/*--------------------------------*- C++ -*----------------------------------*\
  =========                 |
  \\      /  F ield         | OpenFOAM: The Open Source CFD Toolbox
   \\    /   O peration     | Website:  https://openfoam.org
    \\  /    A nd           | Version:  9
     \\/     M anipulation  |
\*---------------------------------------------------------------------------*/
FoamFile
{
    format      ascii;
    class       volScalarField;
    location    "2.9";
    object      epsilon;
}
// * * * * * * * * * * * * * * * * * * * * * * * * * * * * * * * * * * * * * //

dimensions      [0 2 -3 0 0 0 0];

internalField   nonuniform List<scalar> 
36360
(
0.307842
0.242408
0.133758
0.116894
0.114156
0.0833407
0.0189823
0.0177084
0.0763634
0.0175404
0.0207866
0.00595915
0.0197279
0.00560738
0.00675614
0.0047495
0.00461998
0.00462272
0.00407742
0.00407758
0.00308266
0.00308331
0.00493162
0.00493156
0.0175516
0.0763823
0.00596196
0.020798
0.00561132
0.0197428
0.00474992
0.00675981
0.242438
0.307888
0.116925
0.133795
0.0833777
0.114188
0.0177186
0.0189875
0.529254
0.417455
0.434967
0.341114
0.357183
0.249695
0.24422
0.167846
0.182136
0.0772597
0.132303
0.0453392
0.108472
0.0386794
0.0593775
0.0139951
0.0366629
0.0366717
0.0138128
0.0138209
0.0140112
0.0140219
0.00437735
0.00438068
0.0772753
0.18215
0.0453561
0.13232
0.0387148
0.108514
0.0140118
0.0594142
0.417473
0.529294
0.341138
0.435011
0.249735
0.357208
0.167889
0.244254
0.664074
0.53181
0.603238
0.479527
0.533659
0.389719
0.451848
0.323269
0.265906
0.141435
0.226358
0.109916
0.206868
0.112738
0.158369
0.0739842
0.092245
0.0922493
0.0643085
0.0643149
0.0754766
0.075491
0.0408914
0.0409076
0.141442
0.265907
0.109928
0.226366
0.112772
0.206903
0.0740212
0.158411
0.531811
0.6641
0.479538
0.603272
0.389734
0.533643
0.3233
0.451856
0.759717
0.615882
0.7155
0.576769
0.670174
0.504499
0.605803
0.449896
0.332879
0.197622
0.301308
0.170832
0.295457
0.187573
0.252753
0.15115
0.143421
0.143421
0.118886
0.118887
0.14481
0.14482
0.110957
0.110969
0.197616
0.33286
0.170833
0.3013
0.187594
0.295466
0.151178
0.252777
0.615858
0.759722
0.576759
0.715516
0.504466
0.670088
0.449889
0.605755
0.830759
0.679384
0.797862
0.649902
0.777847
0.597197
0.727313
0.553501
0.385323
0.242888
0.360831
0.221656
0.369525
0.251484
0.334416
0.221105
0.185198
0.185192
0.16556
0.165557
0.204307
0.204312
0.176013
0.17602
0.242865
0.385277
0.221642
0.360799
0.251487
0.369498
0.221118
0.334409
0.679329
0.830737
0.649863
0.797854
0.5971
0.777674
0.553437
0.727185
0.882808
0.726289
0.858924
0.704725
0.859909
0.668768
0.821834
0.63547
0.424793
0.277405
0.406586
0.261444
0.427684
0.302064
0.400545
0.278426
0.21726
0.217249
0.202416
0.202408
0.251477
0.251475
0.229419
0.22942
0.277367
0.424721
0.261414
0.406527
0.302046
0.427616
0.278418
0.400498
0.726202
0.882758
0.704653
0.858888
0.668603
0.859643
0.635339
0.821613
0.919367
0.759476
0.902824
0.744435
0.919434
0.721083
0.892196
0.6971
0.453092
0.302363
0.440238
0.291008
0.470636
0.33959
0.450911
0.32234
0.240539
0.240523
0.229939
0.229925
0.286534
0.286525
0.27041
0.270405
0.302309
0.452996
0.290962
0.440153
0.339552
0.470529
0.322312
0.450824
0.759359
0.919293
0.744332
0.902762
0.720853
0.919082
0.696902
0.891884
0.943599
0.781666
0.932849
0.7718
0.960178
0.75706
0.941829
0.740837
0.472248
0.319374
0.463713
0.311784
0.500387
0.36566
0.486958
0.353883
0.25646
0.25644
0.249351
0.249333
0.310924
0.31091
0.299899
0.299888
0.319309
0.472132
0.311725
0.463607
0.365605
0.500248
0.353836
0.486834
0.781526
0.943506
0.771671
0.932765
0.756776
0.959751
0.740578
0.941436
0.958465
0.795422
0.952053
0.789471
0.986126
0.780051
0.974675
0.769889
0.484309
0.330172
0.479077
0.325479
0.519526
0.382474
0.511061
0.37503
0.266605
0.266582
0.262191
0.26217
0.326676
0.326659
0.319696
0.319681
0.330097
0.484178
0.325408
0.478953
0.382405
0.51936
0.374968
0.510907
0.795264
0.958357
0.789321
0.951952
0.779724
0.985642
0.769581
0.974215
0.966553
0.803051
0.963248
0.799909
1.00111
0.793375
0.99469
0.787654
0.491179
0.336406
0.488329
0.333808
0.530726
0.392351
0.525908
0.388094
0.2725
0.272474
0.270037
0.270013
0.335951
0.335931
0.331947
0.331928
0.336325
0.491038
0.333729
0.488192
0.392273
0.530543
0.38802
0.525733
0.802881
0.966436
0.799744
0.963135
0.793019
1.00058
0.787311
0.994182
0.96992
0.80642
0.968753
0.805206
1.00838
0.799888
1.00545
0.797248
0.494438
0.339467
0.493222
0.338305
0.536338
0.397354
0.534048
0.395299
0.275439
0.275412
0.274313
0.274287
0.340674
0.340652
0.338726
0.338705
0.339382
0.49429
0.338221
0.493077
0.39727
0.536145
0.395219
0.533859
0.806243
0.969799
0.805031
0.968633
0.799514
1.00783
0.796882
1.00491
0.970134
0.806943
0.970372
0.807006
1.01038
0.801764
1.00985
0.801233
0.495284
0.340418
0.495155
0.340204
0.538186
0.399102
0.537593
0.398507
0.27642
0.276393
0.276172
0.276145
0.34237
0.342347
0.341777
0.341755
0.340331
0.495133
0.340118
0.495005
0.399016
0.537987
0.398422
0.537396
0.806762
0.970011
0.806826
0.970249
0.801381
1.00982
0.800853
1.0093
0.968363
0.805729
0.969511
0.806574
1.00928
0.800896
1.01013
0.801572
0.494683
0.3401
0.495184
0.340426
0.537768
0.398864
0.538152
0.39912
0.276214
0.276187
0.276469
0.276442
0.342206
0.342183
0.342411
0.342388
0.340013
0.494531
0.340338
0.495032
0.398778
0.537568
0.399034
0.537952
0.805548
0.96824
0.806393
0.969387
0.800511
1.00872
0.801188
1.00957
0.965216
0.803294
0.966966
0.804671
1.00589
0.798028
1.0077
0.799558
0.493059
0.338905
0.494018
0.339637
0.535752
0.397272
0.536849
0.398147
0.275208
0.27518
0.275838
0.27581
0.340797
0.340775
0.341576
0.341553
0.338818
0.492908
0.339549
0.493867
0.397186
0.535552
0.398061
0.536649
0.803114
0.965095
0.80449
0.966844
0.797644
1.00533
0.799173
1.00714
0.961167
0.800093
0.963332
0.801818
1.00115
0.793991
1.00358
0.796053
0.490822
0.33719
0.492059
0.338154
0.532814
0.394893
0.534324
0.396113
0.273723
0.273696
0.274565
0.274537
0.338659
0.338637
0.339752
0.33973
0.337104
0.490673
0.338068
0.491909
0.394808
0.532617
0.396028
0.534127
0.799915
0.96105
0.801639
0.963212
0.793611
1.00059
0.795671
1.00302
0.956463
0.796351
0.958935
0.798328
0.995449
0.789137
0.998323
0.791576
0.488162
0.335123
0.489595
0.336249
0.52924
0.39198
0.531043
0.393446
0.271919
0.271892
0.272908
0.272881
0.336031
0.336009
0.337349
0.337327
0.335038
0.488016
0.336164
0.489447
0.391897
0.529047
0.393362
0.530849
0.796177
0.956349
0.798152
0.958818
0.788763
0.994901
0.791199
0.997768
0.95122
0.792178
0.953953
0.794363
0.989011
0.783653
0.992239
0.786393
0.485174
0.332787
0.486763
0.334041
0.525184
0.388664
0.527216
0.390321
0.269874
0.269848
0.270977
0.270951
0.333035
0.333014
0.334527
0.334506
0.332705
0.48503
0.333958
0.486618
0.388584
0.524995
0.39024
0.527026
0.792008
0.95111
0.79419
0.95384
0.783286
0.988472
0.786022
0.991693
0.945486
0.787621
0.948462
0.789995
0.981928
0.777623
0.985473
0.780631
0.481901
0.330223
0.48363
0.331589
0.520716
0.385007
0.52295
0.38683
0.267626
0.2676
0.268828
0.268802
0.329727
0.329706
0.331371
0.331351
0.330142
0.48176
0.331507
0.483488
0.384929
0.520532
0.386751
0.522764
0.787455
0.945379
0.789827
0.948353
0.777265
0.9814
0.780268
0.984937
0.939273
0.782696
0.942486
0.785252
0.974237
0.771082
0.978083
0.774344
0.47836
0.327447
0.480222
0.328918
0.515865
0.381034
0.518289
0.383014
0.265189
0.265164
0.266485
0.266459
0.326132
0.326112
0.327919
0.327899
0.327368
0.478223
0.328838
0.480083
0.380959
0.515686
0.382938
0.518108
0.782535
0.939171
0.785088
0.942381
0.770731
0.973719
0.773989
0.977558
0.932589
0.777411
0.93604
0.780149
0.965952
0.76404
0.970097
0.767553
0.474557
0.324462
0.476551
0.326037
0.510642
0.376753
0.513253
0.378888
0.262568
0.262544
0.263956
0.263931
0.322257
0.322238
0.324185
0.324166
0.324385
0.474424
0.325959
0.476416
0.376681
0.510469
0.378815
0.513077
0.777255
0.932491
0.779989
0.935939
0.763698
0.965447
0.767207
0.969583
0.925426
0.771762
0.929117
0.774682
0.957073
0.756499
0.961516
0.760263
0.470492
0.32127
0.472617
0.322949
0.505047
0.372166
0.507845
0.374455
0.259764
0.259741
0.261244
0.26122
0.318103
0.318085
0.320172
0.320153
0.321195
0.470362
0.322873
0.472485
0.372097
0.50488
0.374385
0.507675
0.77161
0.925334
0.774527
0.929021
0.756167
0.95658
0.759927
0.961015
0.917782
0.765747
0.921715
0.76885
0.947597
0.748454
0.952341
0.752473
0.466161
0.317868
0.468419
0.319653
0.499079
0.367272
0.502065
0.369716
0.256776
0.256753
0.258348
0.258325
0.313671
0.313654
0.315879
0.315862
0.317796
0.466035
0.319579
0.468291
0.367206
0.498918
0.369648
0.501901
0.7656
0.917694
0.7687
0.921624
0.748132
0.947118
0.752146
0.951853
0.909658
0.759365
0.91383
0.762651
0.937528
0.739907
0.942569
0.744178
0.461567
0.314259
0.463957
0.316147
0.492741
0.362073
0.495913
0.364669
0.253604
0.253583
0.255268
0.255245
0.308961
0.308945
0.311309
0.311292
0.314189
0.461445
0.316076
0.463833
0.362009
0.492585
0.364605
0.495754
0.759224
0.909575
0.762507
0.913744
0.739595
0.937063
0.743861
0.942095
0.901062
0.752624
0.905468
0.756089
0.926877
0.730866
0.932209
0.735384
0.456712
0.310445
0.459232
0.312435
0.486038
0.356573
0.489392
0.35932
0.250252
0.250231
0.252005
0.251984
0.303979
0.303964
0.306463
0.306448
0.310377
0.456594
0.312366
0.459112
0.356514
0.485889
0.359259
0.48924
0.752488
0.900984
0.75595
0.905387
0.730565
0.926426
0.735077
0.931749
0.892008
0.745533
0.89664
0.749171
0.915662
0.721345
0.921275
0.726103
0.451605
0.306431
0.45425
0.30852
0.478981
0.350784
0.482511
0.353676
0.246725
0.246705
0.248565
0.248544
0.298735
0.298721
0.30135
0.301336
0.306366
0.451491
0.308454
0.454134
0.350728
0.478838
0.353618
0.482366
0.745403
0.891935
0.749037
0.896564
0.721055
0.915226
0.725807
0.920829
0.882521
0.738108
0.887367
0.74191
0.903908
0.711357
0.909789
0.716348
0.446255
0.302227
0.449019
0.30441
0.471584
0.344717
0.475284
0.347747
0.243029
0.24301
0.244952
0.244932
0.29324
0.293227
0.29598
0.295967
0.302164
0.446146
0.304346
0.448908
0.344664
0.471448
0.347692
0.475145
0.737983
0.882453
0.741782
0.887296
0.711078
0.903487
0.716063
0.909358
0.872625
0.730365
0.877672
0.734324
0.891647
0.700928
0.897779
0.706136
0.440674
0.297839
0.443553
0.300112
0.463866
0.338387
0.467725
0.341548
0.239172
0.239154
0.241174
0.241155
0.287508
0.287496
0.290366
0.290354
0.29778
0.44057
0.300051
0.443446
0.338338
0.463737
0.341497
0.467593
0.730246
0.872563
0.734202
0.877607
0.700661
0.891242
0.705863
0.897364
0.862343
0.722311
0.86758
0.726425
0.878909
0.690123
0.885278
0.695514
0.434869
0.293275
0.437859
0.295635
0.455844
0.331804
0.459855
0.335092
0.235159
0.235142
0.237239
0.237221
0.281547
0.281537
0.28452
0.284509
0.293218
0.434769
0.295577
0.437757
0.331759
0.455723
0.335045
0.459731
0.722198
0.862287
0.726309
0.86752
0.689868
0.87852
0.695252
0.884879
0.851699
0.713956
0.857114
0.718218
0.865694
0.678919
0.872306
0.684519
0.42884
0.288531
0.431942
0.290982
0.447511
0.324965
0.451682
0.328384
0.230988
0.230971
0.233147
0.23313
0.275355
0.275346
0.278446
0.278437
0.288477
0.428746
0.290926
0.431845
0.324923
0.447397
0.32834
0.451564
0.713849
0.851647
0.718108
0.857059
0.678676
0.865322
0.68427
0.871923
0.840696
0.705298
0.84629
0.709713
0.851974
0.667269
0.858846
0.673099
0.422576
0.283594
0.425798
0.286144
0.438839
0.317847
0.443185
0.32141
0.226643
0.226628
0.228891
0.228875
0.268913
0.268905
0.272134
0.272126
0.283543
0.422486
0.286091
0.425705
0.317809
0.438732
0.321371
0.443075
0.705197
0.84065
0.709609
0.846241
0.667039
0.851619
0.672862
0.85848
0.82931
0.6963
0.8351
0.70089
0.837678
0.655112
0.844852
0.661208
0.416038
0.278429
0.419402
0.281098
0.42977
0.310399
0.434326
0.314137
0.222093
0.222078
0.224448
0.224433
0.262173
0.262166
0.265553
0.265545
0.278381
0.415954
0.281048
0.419315
0.310365
0.429671
0.314101
0.434223
0.696206
0.829269
0.700793
0.835057
0.654894
0.837342
0.660984
0.844505
0.817474
0.686891
0.823499
0.691697
0.822668
0.642327
0.830223
0.648758
0.40916
0.272974
0.412704
0.275796
0.4202
0.30253
0.425024
0.306495
0.217279
0.217265
0.219774
0.21976
0.255052
0.255046
0.258636
0.25863
0.27293
0.409081
0.27575
0.412622
0.3025
0.420109
0.306463
0.424929
0.686803
0.817439
0.691607
0.823461
0.642123
0.82235
0.648547
0.829894
0.805072
0.676952
0.811398
0.68204
0.80672
0.628722
0.81478
0.635596
0.401835
0.267134
0.405617
0.270162
0.409966
0.294101
0.415148
0.298368
0.21211
0.212098
0.214795
0.214782
0.247418
0.247413
0.251279
0.251274
0.267093
0.401762
0.270119
0.405541
0.294075
0.409883
0.29834
0.415061
0.676871
0.805042
0.681956
0.811365
0.628533
0.806423
0.635399
0.814471
0.791919
0.666324
0.798646
0.671777
0.789508
0.614005
0.79825
0.621475
0.393911
0.260771
0.398013
0.264079
0.398841
0.284917
0.404501
0.28959
0.206459
0.206448
0.209403
0.209391
0.239092
0.239089
0.243327
0.243323
0.260734
0.393844
0.26404
0.397943
0.284896
0.398768
0.289567
0.404424
0.666252
0.791896
0.671701
0.798618
0.613832
0.789233
0.621294
0.797962
0.77778
0.654776
0.785031
0.660723
0.770597
0.597861
0.780252
0.606091
0.385181
0.253701
0.389715
0.257387
0.386539
0.274726
0.39283
0.279939
0.200152
0.200143
0.203447
0.203437
0.229842
0.22984
0.234573
0.234571
0.253668
0.385121
0.257352
0.389652
0.274711
0.386478
0.279921
0.392763
0.654713
0.777764
0.660655
0.785011
0.597707
0.770347
0.605927
0.779988
0.762361
0.642002
0.770288
0.648602
0.749416
0.579891
0.760287
0.58909
0.375347
0.245661
0.380475
0.24987
0.372681
0.2632
0.379807
0.269129
0.192949
0.192941
0.196726
0.196718
0.21937
0.219371
0.224754
0.224754
0.245633
0.375296
0.24984
0.38042
0.263192
0.372632
0.269118
0.379752
0.641949
0.762354
0.648543
0.770276
0.579759
0.749195
0.588946
0.760049
0.745482
0.627545
0.754132
0.635065
0.725387
0.55963
0.73774
0.570042
0.363884
0.236198
0.369923
0.241195
0.356684
0.249882
0.364977
0.256778
0.184474
0.184468
0.188944
0.188937
0.207316
0.207319
0.213541
0.213544
0.236176
0.363843
0.241171
0.369877
0.249882
0.356652
0.256774
0.364937
0.627504
0.745487
0.635018
0.754131
0.559522
0.7252
0.569922
0.737534
0.728412
0.609437
0.736725
0.619302
0.699046
0.53599
0.712279
0.548366
0.349014
0.224275
0.357156
0.230693
0.337198
0.234074
0.347508
0.24232
0.174133
0.17413
0.179622
0.179618
0.193349
0.193355
0.200558
0.200562
0.22426
0.348983
0.230674
0.35712
0.234083
0.337184
0.242325
0.347485
0.609409
0.72843
0.619267
0.736736
0.535912
0.698899
0.548273
0.71211
0.726748
0.569085
0.723262
0.595872
0.673839
0.494935
0.686658
0.520344
0.323412
0.207876
0.338492
0.216791
0.309987
0.21523
0.324978
0.224974
0.161387
0.161386
0.168094
0.168092
0.17783
0.177838
0.185674
0.185681
0.207869
0.323395
0.21678
0.338468
0.215247
0.309991
0.224988
0.324973
0.569073
0.72678
0.595851
0.723287
0.494893
0.67374
0.520283
0.686533
0.460481
0.361977
0.244435
0.195291
0.401572
0.314952
0.200374
0.161573
0.143608
0.0472676
0.0519282
0.0117847
0.115346
0.0327754
0.0368591
0.0088283
0.0142457
0.0142558
0.00502811
0.00503026
0.00869958
0.00870663
0.00447316
0.00447407
0.0472921
0.143628
0.0117931
0.0519562
0.0327964
0.115365
0.00883354
0.0368834
0.362009
0.460548
0.195334
0.244498
0.314982
0.401629
0.161613
0.200427
0.7232
0.580244
0.612459
0.486084
0.644976
0.514018
0.542621
0.428363
0.296118
0.151492
0.226073
0.0993301
0.247686
0.118058
0.186938
0.075101
0.0907215
0.0907276
0.0463485
0.0463604
0.0650568
0.0650638
0.0297161
0.0297277
0.151502
0.296123
0.0993473
0.226086
0.118069
0.247693
0.0751177
0.186951
0.580259
0.723257
0.486107
0.612521
0.514033
0.645025
0.428385
0.542674
0.879137
0.718065
0.809401
0.655701
0.788765
0.639197
0.724407
0.582506
0.408388
0.244395
0.356247
0.200159
0.34547
0.196403
0.299929
0.158826
0.174389
0.174387
0.134046
0.134048
0.134562
0.134563
0.100715
0.100719
0.244387
0.408372
0.20016
0.356243
0.196401
0.34546
0.158832
0.299929
0.718062
0.879185
0.655707
0.809452
0.639195
0.788803
0.582513
0.72445
0.985271
0.815183
0.936814
0.770538
0.887481
0.728124
0.84225
0.687113
0.493387
0.319312
0.453817
0.284086
0.420402
0.26092
0.385398
0.230458
0.244013
0.244004
0.211115
0.21111
0.193916
0.19391
0.165748
0.165746
0.319286
0.493348
0.284069
0.453789
0.260902
0.42037
0.230448
0.385377
0.815162
0.985312
0.770526
0.936858
0.728101
0.887507
0.687101
0.842283
1.06068
0.885636
1.02616
0.853248
0.958538
0.793389
0.925909
0.763297
0.557436
0.377387
0.527785
0.350361
0.477504
0.311535
0.450996
0.287921
0.298738
0.298723
0.273205
0.273193
0.241122
0.241111
0.219047
0.219039
0.377343
0.557372
0.350325
0.527733
0.311499
0.477447
0.287894
0.450952
0.885597
1.06072
0.853218
1.0262
0.793343
0.958553
0.763262
0.925929
1.11392
0.936085
1.0897
0.913064
1.00922
0.840557
0.986099
0.818984
0.60443
0.420718
0.582887
0.400787
0.519723
0.349547
0.500335
0.332038
0.339907
0.339886
0.320938
0.320919
0.276836
0.276819
0.260361
0.260346
0.420656
0.604345
0.400734
0.582812
0.349495
0.519643
0.331994
0.500266
0.936031
1.11396
0.913016
1.08973
0.840489
1.00923
0.818927
0.986108
1.15036
0.970998
1.13398
0.955265
1.04419
0.873412
1.02844
0.858583
0.637589
0.451676
0.622594
0.437639
0.549637
0.376777
0.536096
0.364424
0.369503
0.369477
0.356065
0.356041
0.302558
0.302536
0.290875
0.290855
0.4516
0.637486
0.43757
0.622499
0.37671
0.549535
0.364364
0.536005
0.970932
1.1504
0.955204
1.13402
0.873325
1.04419
0.858505
1.02844
1.17407
0.993978
1.16361
0.983815
1.06713
0.89513
1.05699
0.885513
0.659848
0.4727
0.649967
0.463341
0.569738
0.395258
0.56081
0.387032
0.389713
0.389683
0.380704
0.380675
0.320098
0.320072
0.312282
0.312257
0.472613
0.659731
0.463259
0.649856
0.395179
0.569619
0.386959
0.5607
0.993903
1.17411
0.983744
1.16365
0.895028
1.06712
0.885418
1.05698
1.18831
1.00801
1.18223
1.00198
1.08098
0.908431
1.07505
0.902713
0.673817
0.486084
0.667783
0.480279
0.582331
0.40698
0.576891
0.4019
0.402665
0.402631
0.397037
0.397004
0.331289
0.331259
0.326431
0.326403
0.485989
0.673689
0.480188
0.66766
0.406892
0.5822
0.401816
0.576766
1.00793
1.18835
1.00191
1.18227
0.908318
1.08097
0.902605
1.07504
1.19575
1.01559
1.19278
1.01252
1.0883
0.915653
1.08537
0.912721
0.681755
0.493876
0.678489
0.490641
0.589461
0.413758
0.586528
0.410948
0.410283
0.410248
0.407107
0.407073
0.337819
0.337787
0.335102
0.335071
0.493775
0.68162
0.490543
0.678357
0.413664
0.589322
0.410857
0.586391
1.01551
1.1958
1.01244
1.19283
0.915533
1.08829
0.912604
1.08535
1.19844
1.01868
1.19763
1.01765
1.09106
0.918649
1.09019
0.917629
0.685474
0.497747
0.684123
0.496293
0.592786
0.417087
0.591577
0.41584
0.414159
0.414121
0.412683
0.412646
0.341096
0.341063
0.339853
0.339821
0.497642
0.685335
0.496189
0.683986
0.416989
0.592642
0.415744
0.591434
1.01859
1.19849
1.01756
1.19767
0.918525
1.09105
0.917507
1.09018
1.19796
1.01876
1.19855
1.01907
1.0908
0.918836
1.09127
0.919067
0.686354
0.49898
0.686282
0.498713
0.593564
0.418109
0.593501
0.4179
0.415519
0.415481
0.415174
0.415136
0.342204
0.342171
0.341935
0.341902
0.498874
0.686214
0.498607
0.686142
0.41801
0.593417
0.417801
0.593354
1.01868
1.19802
1.01899
1.1986
0.918711
1.09079
0.918942
1.09125
1.19537
1.01689
1.19693
1.01809
1.08854
0.917229
1.08993
0.918273
0.685451
0.498557
0.686164
0.499006
0.592773
0.417716
0.593399
0.418114
0.415293
0.415255
0.415632
0.415595
0.341969
0.341935
0.342274
0.34224
0.498451
0.685311
0.498899
0.686023
0.417615
0.592626
0.418014
0.593251
1.01681
1.19543
1.018
1.19699
0.917105
1.08853
0.918149
1.08991
1.19136
1.01371
1.19356
1.01549
1.08495
0.91441
1.08693
0.915994
0.683323
0.497018
0.684591
0.497985
0.590893
0.416353
0.59201
0.417201
0.414017
0.41398
0.414846
0.414808
0.340837
0.340803
0.341562
0.341528
0.496912
0.683184
0.497879
0.684452
0.416254
0.590747
0.417101
0.591863
1.01363
1.19142
1.01541
1.19362
0.914288
1.08494
0.915871
1.08692
1.18636
1.00964
1.18902
1.01183
1.08042
0.910787
1.08284
0.912738
0.680412
0.494774
0.682035
0.496057
0.588333
0.414395
0.589758
0.41551
0.412076
0.412039
0.413201
0.413163
0.33915
0.339116
0.340122
0.340088
0.49467
0.680276
0.495951
0.681897
0.414297
0.588188
0.41541
0.589612
1.00957
1.18642
1.01175
1.18908
0.910667
1.08042
0.912616
1.08283
1.18062
1.00495
1.18363
1.00743
1.07523
0.906595
1.07796
0.908811
0.676962
0.492054
0.678834
0.493555
0.585302
0.412033
0.586945
0.413333
0.409692
0.409655
0.411019
0.410982
0.337092
0.337059
0.338234
0.3382
0.491951
0.676827
0.493451
0.678698
0.411936
0.58516
0.413235
0.586801
1.00487
1.18069
1.00735
1.18369
0.906478
1.07522
0.908692
1.07795
1.17428
0.999744
1.17758
1.00247
1.06946
0.901944
1.07246
0.904381
0.673095
0.488977
0.675165
0.490647
0.581907
0.409366
0.583723
0.41081
0.40698
0.406944
0.408462
0.408425
0.334757
0.334724
0.336029
0.335997
0.488876
0.672963
0.490545
0.675032
0.40927
0.581768
0.410714
0.583582
0.999672
1.17435
1.00239
1.17765
0.901831
1.06946
0.904265
1.07246
1.16737
0.994087
1.17095
0.997034
1.06317
0.896881
1.06643
0.899521
0.668868
0.485599
0.671113
0.487415
0.578194
0.406438
0.580166
0.40801
0.403995
0.40396
0.405609
0.405573
0.332188
0.332157
0.333574
0.333542
0.4855
0.66874
0.487315
0.670983
0.406345
0.578058
0.407915
0.580028
0.99402
1.16744
0.996964
1.17102
0.896771
1.06317
0.899409
1.06643
1.15992
0.987998
1.16377
0.991156
1.05637
0.891422
1.05989
0.894256
0.664306
0.481946
0.666716
0.483897
0.574184
0.403271
0.576302
0.40496
0.400763
0.400729
0.402498
0.402463
0.329406
0.329375
0.330897
0.330866
0.481849
0.664181
0.483799
0.66659
0.40318
0.574051
0.404868
0.576167
0.987934
1.15999
0.99109
1.16384
0.891317
1.05638
0.894148
1.05989
1.15193
0.981487
1.15605
0.984857
1.04908
0.885577
1.05284
0.888606
0.659419
0.478026
0.661992
0.48011
0.569883
0.399869
0.572147
0.401676
0.397292
0.397259
0.399146
0.399112
0.326416
0.326386
0.328011
0.32798
0.477932
0.659298
0.480014
0.661869
0.39978
0.569753
0.401586
0.572015
0.981426
1.152
0.984795
1.15612
0.885476
1.04908
0.888502
1.05285
1.14339
0.974545
1.14778
0.978131
1.04127
0.879341
1.04529
0.882565
0.654205
0.47384
0.656941
0.476056
0.56529
0.396234
0.5677
0.398157
0.393584
0.393551
0.395556
0.395523
0.323219
0.32319
0.324917
0.324887
0.473749
0.654087
0.475963
0.656822
0.396148
0.565164
0.39807
0.567572
0.974488
1.14347
0.978072
1.14786
0.879243
1.04128
0.882464
1.0453
1.1343
0.967172
1.13897
0.970972
1.03294
0.87271
1.03722
0.876131
0.648663
0.469389
0.651562
0.471737
0.560404
0.392365
0.56296
0.394405
0.389639
0.389607
0.391729
0.391696
0.319815
0.319787
0.321617
0.321588
0.4693
0.648549
0.471647
0.651447
0.392281
0.560282
0.39432
0.562836
0.967119
1.13438
0.970917
1.13905
0.872616
1.03296
0.876035
1.03723
1.12467
0.959374
1.12961
0.963385
1.02411
0.865688
1.02864
0.869304
0.642795
0.464672
0.645857
0.467152
0.555226
0.388262
0.557928
0.390418
0.385456
0.385425
0.387664
0.387632
0.316205
0.316177
0.318109
0.31808
0.464585
0.642685
0.467064
0.645745
0.388181
0.555108
0.390335
0.557807
0.959325
1.12475
0.963334
1.12969
0.865599
1.02413
0.869212
1.02866
1.11449
0.951149
1.1197
0.955374
1.01477
0.858277
1.01956
0.862086
0.636603
0.459692
0.639826
0.462303
0.549759
0.383929
0.552604
0.386199
0.38104
0.38101
0.383363
0.383333
0.31239
0.312363
0.314395
0.314368
0.459609
0.636498
0.462218
0.639718
0.38385
0.549645
0.386119
0.552488
0.951103
1.11458
0.955326
1.11978
0.858192
1.01479
0.861999
1.01957
1.1038
0.942508
1.10926
0.946936
1.00495
0.850489
1.00997
0.854482
0.630096
0.454456
0.633475
0.457193
0.544011
0.379371
0.546994
0.381752
0.376394
0.376365
0.37883
0.378801
0.308377
0.308351
0.31048
0.310453
0.454375
0.629994
0.457111
0.633371
0.379294
0.543901
0.381674
0.546882
0.942467
1.10389
0.946892
1.10935
0.850409
1.00497
0.8544
1.00999
1.09261
0.933473
1.09832
0.938096
0.99466
0.842345
0.999911
0.846513
0.623284
0.44897
0.626813
0.45183
0.537993
0.374596
0.541109
0.377083
0.371525
0.371497
0.374071
0.374043
0.304171
0.304146
0.306369
0.306343
0.448892
0.623186
0.451751
0.626713
0.374522
0.537888
0.377009
0.541002
0.933436
1.0927
0.938056
1.0984
0.84227
0.994687
0.846435
0.999935
1.08096
0.924058
1.08689
0.928867
0.983937
0.833868
0.989402
0.8382
0.616179
0.443244
0.619851
0.446222
0.531719
0.369613
0.534962
0.372203
0.36644
0.366413
0.369093
0.369065
0.299781
0.299757
0.302069
0.302045
0.443169
0.616086
0.446146
0.619756
0.369542
0.531617
0.372131
0.534858
0.924025
1.08105
0.928832
1.08698
0.833798
0.983967
0.838127
0.98943
1.06888
0.914308
1.07502
0.919275
0.972803
0.825047
0.978467
0.829553
0.608796
0.437282
0.612605
0.440377
0.525191
0.364426
0.528559
0.367117
0.36114
0.361114
0.363899
0.363873
0.295209
0.295186
0.297587
0.297564
0.43721
0.608707
0.440303
0.612514
0.364358
0.525094
0.367048
0.52846
0.91428
1.06897
0.919244
1.07511
0.824982
0.972836
0.829484
0.978498
1.05638
0.904222
1.06273
0.909363
0.961296
0.8159
0.967144
0.820562
0.601129
0.431076
0.605082
0.434294
0.51841
0.359031
0.521904
0.361826
0.355617
0.355593
0.358489
0.358464
0.290451
0.290429
0.292923
0.2929
0.431007
0.601045
0.434223
0.604995
0.358967
0.518318
0.36176
0.52181
0.904198
1.05647
0.909336
1.06282
0.815839
0.961332
0.820498
0.967178
1.04347
0.89377
1.05002
0.899093
0.94942
0.806437
0.955451
0.811258
0.593152
0.4246
0.597262
0.427956
0.511365
0.353411
0.514994
0.356321
0.349846
0.349822
0.352845
0.35282
0.285488
0.285467
0.288064
0.288043
0.424535
0.593073
0.427889
0.597181
0.35335
0.511278
0.356258
0.514904
0.89375
1.04357
0.899071
1.05012
0.806381
0.949459
0.811199
0.955488
1.03015
0.882926
1.03691
0.888449
0.937157
0.796626
0.943384
0.801625
0.584824
0.417807
0.589115
0.421328
0.504017
0.347526
0.507802
0.350574
0.343777
0.343754
0.34693
0.346907
0.280281
0.280261
0.282984
0.282964
0.417746
0.58475
0.421264
0.589038
0.347469
0.503935
0.350515
0.507718
0.88291
1.03024
0.88843
1.037
0.796575
0.937199
0.801572
0.943424
1.01636
0.871631
1.02336
0.877388
0.924459
0.786403
0.93091
0.791616
0.576067
0.410619
0.580583
0.414347
0.496296
0.341309
0.500277
0.344532
0.337332
0.337311
0.340684
0.340662
0.274763
0.274745
0.277631
0.277612
0.410561
0.575998
0.414287
0.580511
0.341254
0.49622
0.344476
0.500198
0.871619
1.01646
0.877374
1.02346
0.786358
0.924505
0.791568
0.930954
1.00202
0.85978
1.00931
0.865828
0.911236
0.775666
0.917963
0.781151
0.566764
0.402916
0.571569
0.406917
0.488094
0.334653
0.492331
0.33811
0.330394
0.330374
0.334008
0.333988
0.268834
0.268817
0.271921
0.271903
0.402861
0.5667
0.406861
0.571502
0.334603
0.488023
0.338057
0.492257
0.859773
1.00212
0.865819
1.00941
0.775627
0.911285
0.781108
0.918009
0.987
0.847221
0.994645
0.853644
0.897352
0.764248
0.904427
0.770097
0.556749
0.394531
0.561932
0.398895
0.479253
0.327411
0.48383
0.331181
0.322798
0.32278
0.326763
0.326744
0.26235
0.262334
0.265733
0.265717
0.394481
0.556691
0.398843
0.56187
0.327365
0.479188
0.331132
0.483762
0.847218
0.987101
0.853638
0.994746
0.764214
0.897405
0.77006
0.904478
0.971137
0.833769
0.97922
0.84066
0.882614
0.751954
0.890141
0.758263
0.545802
0.385236
0.551479
0.390086
0.469568
0.31938
0.474594
0.323571
0.314317
0.3143
0.318756
0.318738
0.255114
0.2551
0.2589
0.258885
0.38519
0.54575
0.390038
0.551424
0.319338
0.469509
0.323527
0.474532
0.833771
0.97124
0.840659
0.979322
0.751927
0.882671
0.758232
0.890195
0.954335
0.819221
0.962885
0.826684
0.866831
0.73854
0.874897
0.745443
0.53361
0.374683
0.539957
0.380215
0.458744
0.310253
0.464384
0.315038
0.304604
0.304589
0.30971
0.309694
0.246832
0.246819
0.251184
0.251171
0.374643
0.533565
0.380172
0.539908
0.310217
0.458694
0.314999
0.46433
0.819228
0.95444
0.826688
0.962988
0.738521
0.866893
0.745419
0.874956
0.93703
0.803299
0.945694
0.8115
0.850113
0.723594
0.858579
0.731339
0.519514
0.3622
0.52694
0.368816
0.44615
0.299449
0.452797
0.305175
0.293058
0.293046
0.299178
0.299164
0.237006
0.236995
0.24221
0.242198
0.362165
0.519477
0.368779
0.526899
0.299418
0.446108
0.305141
0.45275
0.803312
0.937137
0.81151
0.9458
0.723582
0.850179
0.731323
0.858643
0.923176
0.784198
0.92903
0.794509
0.835039
0.705016
0.841917
0.715142
0.501112
0.346163
0.511234
0.354852
0.429546
0.285563
0.4387
0.293087
0.278621
0.27861
0.286343
0.286332
0.224767
0.224759
0.231306
0.231297
0.346136
0.501083
0.354821
0.5112
0.285539
0.429514
0.29306
0.438663
0.784215
0.923285
0.794524
0.929137
0.705012
0.835112
0.715135
0.841987
0.942382
0.740354
0.924387
0.769951
0.845353
0.662071
0.833498
0.690874
0.468851
0.323651
0.487891
0.335915
0.40012
0.266001
0.41752
0.276671
0.260337
0.26033
0.27
0.269991
0.209315
0.20931
0.217479
0.217472
0.323631
0.468831
0.335891
0.487865
0.265985
0.400099
0.276651
0.417493
0.740373
0.94249
0.76997
0.924496
0.662075
0.845429
0.690874
0.833573
0.526385
0.415912
0.295874
0.235636
0.499528
0.393708
0.274852
0.218589
0.178615
0.0677123
0.0720864
0.0168519
0.163901
0.0587836
0.0633306
0.014489
0.0245587
0.0245722
0.00646762
0.00647158
0.0197055
0.0197178
0.00577137
0.00577446
0.067741
0.178637
0.0168655
0.0721184
0.0588107
0.163922
0.0145003
0.0633611
0.415946
0.526465
0.235683
0.295949
0.393741
0.499602
0.218634
0.274922
0.81392
0.658751
0.691323
0.552717
0.776368
0.626006
0.658974
0.525171
0.357388
0.197834
0.274468
0.13273
0.331425
0.177687
0.254118
0.118243
0.129289
0.129293
0.0724458
0.0724577
0.11215
0.112155
0.0607358
0.0607479
0.197839
0.357387
0.132747
0.274479
0.177694
0.331427
0.11826
0.25413
0.658765
0.813989
0.552741
0.691398
0.626021
0.776431
0.525194
0.659042
0.990391
0.817474
0.911033
0.745232
0.943457
0.775212
0.868554
0.707522
0.492522
0.313813
0.42953
0.258602
0.45622
0.283219
0.39819
0.23303
0.235523
0.235518
0.184404
0.184403
0.208151
0.208147
0.161972
0.161972
0.313795
0.492495
0.258596
0.429517
0.283205
0.456199
0.233027
0.398181
0.81747
0.990454
0.745237
0.911097
0.775208
0.943512
0.707528
0.868612
1.11171
0.930575
1.05632
0.878561
1.05751
0.880734
1.00547
0.832246
0.595492
0.407173
0.547558
0.363311
0.550785
0.367963
0.506789
0.32816
0.323473
0.323459
0.281958
0.281949
0.287527
0.287516
0.250067
0.25006
0.407133
0.59544
0.363282
0.547518
0.36793
0.550738
0.328136
0.506755
0.930556
1.11177
0.878549
1.05638
0.880714
1.05757
0.832234
1.00553
1.19768
1.01254
1.15838
0.974897
1.13825
0.957076
1.10134
0.922017
0.672984
0.479381
0.637135
0.445798
0.621852
0.433445
0.588979
0.402994
0.392452
0.392431
0.360281
0.360264
0.349721
0.349703
0.320721
0.320706
0.479322
0.672911
0.445748
0.637071
0.433393
0.621783
0.402951
0.58892
1.01251
1.19775