/*--------------------------------*- C++ -*----------------------------------*\
  =========                 |
  \\      /  F ield         | OpenFOAM: The Open Source CFD Toolbox
   \\    /   O peration     | Website:  https://openfoam.org
    \\  /    A nd           | Version:  9
     \\/     M anipulation  |
\*---------------------------------------------------------------------------*/
FoamFile
{
    format      ascii;
    class       volScalarField;
    location    "1.75";
    object      epsilon;
}
// * * * * * * * * * * * * * * * * * * * * * * * * * * * * * * * * * * * * * //

dimensions      [0 2 -3 0 0 0 0];

internalField   nonuniform List<scalar> 
36360
(
0.191491
0.146367
0.0579331
0.0530275
0.0414157
0.0250176
0.0100226
0.00802104
0.0273798
0.00482832
0.00853116
0.00424438
0.00611578
0.00316461
0.00492473
0.00496372
0.00231546
0.00231554
0.00443631
0.00443629
0.00310209
0.00310212
0.00498272
0.0049827
0.00482597
0.0273733
0.00424415
0.00852921
0.00316445
0.00611439
0.00496366
0.00492446
0.146379
0.191548
0.0530237
0.0579503
0.0250203
0.0414353
0.00802078
0.0100241
0.381135
0.29163
0.300356
0.227995
0.195567
0.121628
0.11865
0.071472
0.100289
0.0269579
0.0654015
0.0117306
0.035912
0.00606482
0.0147482
0.00345043
0.00435543
0.00435013
0.00231306
0.00231116
0.00183845
0.00183752
0.00214855
0.00214845
0.0269453
0.100296
0.0117228
0.0653981
0.00605994
0.0359109
0.00344899
0.0147448
0.291691
0.381272
0.228031
0.300453
0.121674
0.195687
0.0714906
0.118717
0.480702
0.372576
0.439261
0.338581
0.304328
0.199973
0.257726
0.165675
0.150137
0.0544178
0.128592
0.0419967
0.0776105
0.0210472
0.0583742
0.0128569
0.0168442
0.0168345
0.00977033
0.00976028
0.00390451
0.00389959
0.00234746
0.00234522
0.054411
0.150169
0.0419858
0.128611
0.0210355
0.0776289
0.0128467
0.0583813
0.372689
0.480918
0.338669
0.439438
0.20008
0.304559
0.16575
0.257902
0.529744
0.413285
0.509781
0.396668
0.361431
0.243005
0.337979
0.225235
0.176922
0.0709267
0.165878
0.063988
0.103125
0.0340391
0.0924534
0.0283725
0.0280426
0.0280372
0.0231432
0.0231355
0.00870897
0.00870144
0.00634166
0.00633494
0.070931
0.176979
0.0639866
0.165923
0.0340318
0.103168
0.0283622
0.0924846
0.413448
0.530035
0.396807
0.510037
0.243173
0.361765
0.225374
0.338263
0.551772
0.431702
0.543156
0.424494
0.387605
0.262872
0.377355
0.255106
0.189322
0.0788663
0.184463
0.0757488
0.115196
0.0406677
0.110476
0.0380715
0.033846
0.0338439
0.0315595
0.031556
0.0119106
0.011903
0.0106159
0.0106082
0.0788795
0.189398
0.0757581
0.184531
0.0406665
0.11526
0.0380675
0.110531
0.431901
0.552121
0.424676
0.543479
0.263085
0.388016
0.255299
0.37773
0.560278
0.438831
0.55718
0.436233
0.397788
0.270515
0.394086
0.267765
0.194151
0.0819456
0.192397
0.0808392
0.119833
0.043161
0.11817
0.0422877
0.0360714
0.0360708
0.035287
0.0352859
0.0131771
0.0131699
0.0127394
0.0127321
0.0819634
0.194238
0.0808553
0.192479
0.0431629
0.119908
0.0422885
0.118241
0.439051
0.560662
0.436445
0.557549
0.270755
0.398245
0.267994
0.394523
0.562743
0.440927
0.562023
0.440306
0.400859
0.272722
0.399937
0.272093
0.195602
0.0828532
0.19517
0.0825905
0.121199
0.0438364
0.120802
0.0436585
0.0366875
0.0366873
0.0365228
0.0365225
0.0134936
0.0134864
0.0134222
0.013415
0.0828727
0.195693
0.0826095
0.19526
0.0438394
0.121278
0.0436612
0.12088
0.441158
0.563143
0.440533
0.562417
0.272973
0.401336
0.272339
0.400406
0.562825
0.441066
0.562986
0.441164
0.401182
0.272865
0.401266
0.272976
0.195759
0.0829624
0.195801
0.0829847
0.121363
0.0438965
0.121393
0.0439238
0.0367483
0.0367481
0.0367726
0.0367724
0.0135096
0.0135023
0.0135302
0.013523
0.0829822
0.195852
0.0830046
0.195893
0.0438996
0.121443
0.043927
0.121473
0.4413
0.56323
0.441397
0.56339
0.27312
0.401666
0.27323
0.401749
0.562058
0.440545
0.562559
0.4409
0.400655
0.272385
0.401051
0.27273
0.195508
0.0828426
0.195699
0.0829436
0.121185
0.0437991
0.121334
0.043881
0.036668
0.0366677
0.0367388
0.0367386
0.0134535
0.0134462
0.0135001
0.0134929
0.0828623
0.195601
0.0829634
0.195792
0.043802
0.121265
0.0438841
0.121414
0.440779
0.562464
0.441134
0.562965
0.27264
0.40114
0.272984
0.401535
0.560885
0.439721
0.561566
0.440209
0.39971
0.271614
0.400302
0.272096
0.195066
0.08261
0.195346
0.0827665
0.120827
0.0436135
0.121068
0.0437415
0.0365146
0.0365142
0.0366223
0.036622
0.013355
0.0133476
0.0134239
0.0134166
0.0826293
0.195158
0.0827861
0.195438
0.0436161
0.120907
0.0437443
0.121148
0.439954
0.56129
0.440443
0.561972
0.271868
0.400194
0.27235
0.400787
0.559457
0.438726
0.560253
0.439289
0.398546
0.270696
0.399237
0.271241
0.194525
0.0823197
0.194848
0.0825032
0.120378
0.0433813
0.120661
0.0435337
0.0363212
0.0363206
0.0364495
0.036449
0.0132334
0.013226
0.013315
0.0133076
0.0823387
0.194617
0.0825225
0.19494
0.0433836
0.120457
0.0435362
0.12074
0.438958
0.55986
0.439522
0.560658
0.270949
0.399028
0.271494
0.39972
0.557825
0.437603
0.558722
0.43823
0.39721
0.269661
0.397985
0.270265
0.193913
0.0819867
0.194271
0.0821908
0.119861
0.0431161
0.120177
0.0432848
0.0361003
0.0360996
0.0362424
0.0362418
0.0130957
0.0130882
0.0131862
0.0131787
0.0820052
0.194004
0.0822096
0.194362
0.043118
0.119938
0.043287
0.120255
0.437834
0.558227
0.438461
0.559125
0.269911
0.397689
0.270517
0.398465
0.555998
0.436357
0.556991
0.437043
0.395714
0.268517
0.396567
0.269174
0.193234
0.0816148
0.193624
0.0818379
0.119281
0.0428196
0.119627
0.0430037
0.0358542
0.0358532
0.0360087
0.0360079
0.0129433
0.0129357
0.013041
0.0130335
0.0816329
0.193324
0.0818562
0.193714
0.0428211
0.119358
0.0430054
0.119705
0.436586
0.556398
0.437273
0.557392
0.268766
0.396191
0.269424
0.397045
0.553979
0.434991
0.555068
0.435737
0.39406
0.267264
0.394992
0.267976
0.19249
0.0812052
0.192913
0.0814471
0.118639
0.042492
0.119016
0.0426915
0.0355829
0.0355817
0.0357499
0.0357489
0.0127759
0.0127682
0.0128809
0.0128733
0.0812227
0.192579
0.0814649
0.193002
0.042493
0.118715
0.0426929
0.119093
0.435218
0.554376
0.435965
0.555466
0.267511
0.394533
0.268224
0.395467
0.551752
0.433495
0.552946
0.434307
0.392238
0.265893
0.393255
0.266665
0.191676
0.0807562
0.192134
0.0810179
0.117932
0.0421318
0.118342
0.0423476
0.0352854
0.0352841
0.0354655
0.0354643
0.012593
0.0125853
0.0127057
0.012698
0.0807732
0.191764
0.0810352
0.192222
0.0421323
0.118007
0.0423485
0.118418
0.433721
0.552147
0.434533
0.553342
0.266138
0.392709
0.266911
0.393728
0.549315
0.431867
0.550615
0.432745
0.390244
0.2644
0.391348
0.265233
0.19079
0.0802664
0.191284
0.0805485
0.117159
0.0417376
0.117602
0.0419704
0.0349606
0.0349591
0.0351544
0.0351529
0.0123941
0.0123863
0.0125146
0.0125069
0.0802828
0.190877
0.0805652
0.191372
0.0417377
0.117232
0.0419708
0.117677
0.432091
0.549706
0.43297
0.551008
0.264643
0.390711
0.265477
0.391817
0.546657
0.430101
0.548068
0.431049
0.388069
0.262777
0.389264
0.263676
0.189829
0.0797341
0.190361
0.0800375
0.116314
0.041308
0.116794
0.0415584
0.0346075
0.0346057
0.0348154
0.0348137
0.0121788
0.0121709
0.0123073
0.0122994
0.0797498
0.189915
0.0800536
0.190448
0.0413076
0.116387
0.0415583
0.116867
0.430323
0.547046
0.431272
0.548459
0.263017
0.388532
0.263918
0.389729
0.54377
0.428189
0.545297
0.42921
0.385705
0.261012
0.386995
0.261983
0.188788
0.0791575
0.189361
0.0794831
0.115396
0.0408416
0.115912
0.0411104
0.0342249
0.0342228
0.0344474
0.0344455
0.0119466
0.0119385
0.0120833
0.0120753
0.0791725
0.188873
0.0794985
0.189446
0.0408406
0.115467
0.0411097
0.115984
0.428409
0.544156
0.429431
0.545684
0.261249
0.386164
0.262222
0.387456
0.540641
0.426122
0.542289
0.42722
0.383143
0.259096
0.384532
0.260142
0.187664
0.0785348
0.188278
0.0788833
0.1144
0.0403372
0.114955
0.0406248
0.0338118
0.0338094
0.0340494
0.0340472
0.0116972
0.0116891
0.0118422
0.0118341
0.0785491
0.187747
0.0788981
0.188362
0.0403356
0.11447
0.0406235
0.115026
0.42634
0.541023
0.427439
0.542673
0.259331
0.383598
0.260379
0.384989
0.537268
0.423901
0.539039
0.425077
0.380381
0.257028
0.381871
0.258151
0.186456
0.0778651
0.187112
0.078237
0.113325
0.0397941
0.11392
0.0401008
0.0333677
0.033365
0.0336206
0.0336181
0.0114308
0.0114225
0.0115839
0.0115757
0.0778785
0.186537
0.078251
0.187195
0.0397919
0.113394
0.0400989
0.113989
0.424116
0.537647
0.425293
0.539419
0.25726
0.380831
0.258384
0.382323
0.533644
0.421519
0.53554
0.422776
0.377415
0.254808
0.379006
0.256004
0.18516
0.0771473
0.18586
0.0775431
0.112172
0.0392121
0.112805
0.0395379
0.0328922
0.0328891
0.0331606
0.0331577
0.0111475
0.0111392
0.0113087
0.0113004
0.0771599
0.18524
0.0775563
0.185941
0.0392092
0.112239
0.0395353
0.112873
0.421732
0.534018
0.42299
0.535917
0.255037
0.37786
0.256235
0.379454
0.529768
0.418972
0.531789
0.420311
0.374245
0.252453
0.375938
0.253717
0.183775
0.0763812
0.184519
0.0768009
0.11094
0.0385913
0.111612
0.038936
0.0323855
0.0323821
0.0326691
0.0326659
0.0108481
0.0108396
0.0110168
0.0110084
0.076393
0.183854
0.0768131
0.184599
0.0385876
0.111005
0.0389328
0.111678
0.419181
0.530139
0.420522
0.532162
0.252679
0.374685
0.253944
0.37638
0.525651
0.416268
0.527791
0.417684
0.370877
0.24995
0.372667
0.251288
0.182305
0.0755681
0.183091
0.0760108
0.109629
0.0379324
0.11034
0.0382956
0.0318484
0.0318446
0.0321468
0.0321431
0.0105334
0.0105248
0.0107092
0.0107007
0.0755789
0.182382
0.0760222
0.183169
0.037928
0.109692
0.0382916
0.110405
0.416474
0.526017
0.417892
0.528159
0.250172
0.371311
0.251512
0.373105
0.521303
0.413413
0.523556
0.414903
0.367317
0.247303
0.369201
0.248711
0.180752
0.0747097
0.181579
0.0751745
0.108242
0.0372372
0.108991
0.0376179
0.0312823
0.031278
0.0315946
0.0315906
0.0102048
0.0101961
0.0103869
0.0103783
0.0747195
0.180828
0.0751849
0.181655
0.037232
0.108304
0.0376131
0.109053
0.413617
0.521665
0.415108
0.52392
0.247521
0.367746
0.248931
0.369633
0.516739
0.410416
0.519097
0.411976
0.363578
0.244522
0.365549
0.245995
0.179121
0.0738086
0.179986
0.074294
0.106784
0.0365082
0.107567
0.036905
0.0306892
0.0306845
0.0310144
0.0310099
0.00986407
0.00985532
0.0100515
0.0100428
0.0738174
0.179195
0.0743034
0.180061
0.0365022
0.106843
0.0368995
0.107628
0.410616
0.517096
0.412177
0.519457
0.244736
0.364001
0.246212
0.365975
0.511984
0.407289
0.514433
0.40891
0.359678
0.241612
0.361727
0.243149
0.177419
0.0728689
0.178318
0.0733727
0.105259
0.0357487
0.106074
0.0361598
0.0300719
0.0300667
0.0304084
0.0304035
0.00951339
0.00950455
0.00970502
0.00969624
0.0728766
0.177491
0.073381
0.178391
0.0357418
0.105316
0.0361534
0.106132
0.407486
0.512336
0.409108
0.514788
0.241822
0.360094
0.243361
0.362147
0.507061
0.404067
0.509593
0.405732
0.355635
0.238587
0.357752
0.240176
0.175657
0.0718955
0.176585
0.0724152
0.103676
0.0349626
0.104518
0.0353859
0.0294337
0.0294281
0.0297798
0.0297744
0.0091552
0.00914629
0.00934975
0.00934089
0.0719021
0.175727
0.0724224
0.176656
0.034955
0.103731
0.0353788
0.104575
0.40426
0.507409
0.405927
0.509942
0.238793
0.356045
0.240384
0.358166
0.501994
0.400748
0.504593
0.402461
0.351473
0.235476
0.353646
0.237105
0.173841
0.0708931
0.174795
0.0714263
0.102043
0.0341545
0.102908
0.0345878
0.0287783
0.0287722
0.0291321
0.0291262
0.00879224
0.00878327
0.0089883
0.00897937
0.0708986
0.173909
0.0714324
0.174863
0.0341461
0.102096
0.0345798
0.102963
0.400938
0.502336
0.402653
0.504938
0.235678
0.351876
0.237309
0.354053
0.496816
0.397349
0.499465
0.399099
0.347215
0.232297
0.349432
0.233957
0.171981
0.0698673
0.172955
0.0704111
0.10037
0.0333295
0.101254
0.03377
0.0281102
0.0281035
0.0284693
0.028463
0.00842751
0.00841849
0.00862353
0.00861454
0.0698717
0.172046
0.0704161
0.173021
0.0333202
0.100421
0.0337612
0.101306
0.397535
0.497153
0.399287
0.499805
0.232494
0.347612
0.234157
0.349832
0.491562
0.393891
0.494245
0.395667
0.342889
0.229074
0.345136
0.230752
0.170086
0.0688244
0.171076
0.0693756
0.0986662
0.0324933
0.0995634
0.0329381
0.0274341
0.027427
0.0277961
0.0277893
0.00806428
0.00805524
0.00825859
0.00824956
0.0688276
0.17015
0.0693795
0.17114
0.0324833
0.0987154
0.0329285
0.0996137
0.394074
0.491893
0.395852
0.494579
0.229267
0.343279
0.230947
0.345529
0.486263
0.390392
0.488964
0.392187
0.338521
0.225837
0.340785
0.227518
0.168167
0.0677705
0.169167
0.068326
0.0969434
0.0316527
0.0978483
0.0320983
0.0267556
0.026748
0.0271177
0.0271104
0.00770596
0.0076969
0.00789685
0.0078878
0.0677726
0.168228
0.0683288
0.16923
0.0316419
0.0969904
0.0320879
0.0978965
0.390571
0.486589
0.392368
0.489293
0.226026
0.338904
0.227708
0.341172
0.480947
0.386849
0.483653
0.388667
0.334139
0.222619
0.336406
0.224281
0.166227
0.0667124
0.167237
0.0672688
0.0952137
0.0308149
0.0961197
0.0312577
0.0260807
0.0260726
0.0264398
0.026432
0.00735576
0.00734671
0.00754168
0.00753263
0.0667134
0.166286
0.0672704
0.167297
0.0308033
0.0952586
0.0312465
0.0961658
0.387025
0.481268
0.388844
0.483976
0.222802
0.334515
0.224467
0.336785
0.47564
0.383263
0.478339
0.385101
0.329757
0.219463
0.332023
0.221102
0.164274
0.0656562
0.165289
0.0662109
0.0934855
0.0299854
0.0943901
0.030423
0.0254137
0.0254051
0.0257681
0.0257598
0.00701612
0.0070071
0.00719602
0.00718699
0.0656562
0.164331
0.0662114
0.165348
0.0299731
0.0935283
0.0304112
0.094434
0.383435
0.475955
0.385275
0.478657
0.219642
0.330125
0.221283
0.332395
0.470315
0.379633
0.473032
0.381496
0.325327
0.216272
0.327629
0.217936
0.162298
0.0645953
0.163328
0.0651543
0.0917465
0.0291624
0.0926594
0.0295972
0.0247528
0.0247438
0.0251046
0.0250958
0.00668748
0.0066785
0.00686151
0.00685251
0.0645942
0.162353
0.0651537
0.163385
0.0291495
0.0917872
0.0295847
0.0927012
0.379801
0.470623
0.381666
0.473344
0.216446
0.325688
0.218112
0.327994
0.464818
0.375847
0.46765
0.377812
0.320664
0.212919
0.323117
0.214687
0.160221
0.0634903
0.161317
0.0640787
0.089937
0.0283264
0.0908964
0.0287714
0.0240799
0.0240705
0.0244411
0.0244319
0.00636527
0.00635636
0.00653668
0.00652773
0.063488
0.160274
0.0640771
0.161371
0.0283129
0.0899754
0.0287582
0.090936
0.37601
0.465119
0.377977
0.467955
0.213087
0.321015
0.214858
0.323473
0.458775
0.371602
0.461944
0.373848
0.315323
0.209097
0.318191
0.211152
0.157851
0.0622348
0.159128
0.0629175
0.087899
0.0274156
0.0890005
0.0279091
0.023338
0.0233281
0.0237441
0.0237345
0.00603198
0.00602318
0.00621189
0.00620303
0.0622313
0.157902
0.0629147
0.159179
0.0274015
0.0879347
0.0278954
0.0890378
0.37176
0.459068
0.374008
0.462241
0.209259
0.315663
0.211317
0.318537
0.451474
0.366277
0.455385
0.369173
0.30845
0.204188
0.31222
0.206891
0.154752
0.0605768
0.156473
0.0615063
0.0852743
0.0262749
0.086732
0.0269109
0.0223834
0.022373
0.0229213
0.0229112
0.00564031
0.00563166
0.00585751
0.00584877
0.0605718
0.154799
0.0615022
0.156521
0.02626
0.0853066
0.0268964
0.0867662
0.366428
0.451756
0.369327
0.455672
0.204342
0.308776
0.207048
0.312554
0.442018
0.357859
0.447066
0.362777
0.298782
0.196852
0.304102
0.201011
0.149635
0.0578769
0.152642
0.0594494
0.0812172
0.0245532
0.0835486
0.0255396
0.0209008
0.0208897
0.0217552
0.0217444
0.00508972
0.00508135
0.00540165
0.00539312
0.0578697
0.149676
0.0594434
0.152686
0.0245374
0.0812449
0.0255243
0.0835789
0.358
0.442288
0.362924
0.447342
0.196996
0.299091
0.201159
0.304419
0.436047
0.332536
0.437498
0.350001
0.284987
0.181099
0.292823
0.191244
0.13731
0.0526317
0.145072
0.0557106
0.0735515
0.0216845
0.0780927
0.0233082
0.0184332
0.018421
0.0198248
0.0198132
0.0042738
0.00426595
0.00472238
0.00471423
0.0526213
0.137343
0.0557021
0.14511
0.0216676
0.0735719
0.0232919
0.0781172
0.332659
0.436314
0.350135
0.437764
0.181223
0.285277
0.191381
0.293123
0.277071
0.210425
0.0955665
0.0765686
0.247697
0.18804
0.0818678
0.0661073
0.051881
0.00883626
0.0119964
0.00454745
0.0421028
0.00699942
0.010387
0.00445696
0.00258451
0.00258315
0.00445126
0.00445141
0.00245313
0.0024524
0.00454389
0.00454396
0.00882838
0.0518702
0.00454646
0.0119921
0.00699404
0.0420926
0.00445634
0.0103837
0.210459
0.277184
0.0765694
0.0956189
0.188063
0.247785
0.0661048
0.0819038
0.519649
0.403439
0.417889
0.320765
0.469381
0.362811
0.376534
0.288044
0.16533
0.0569861
0.113054
0.0279084
0.140585
0.044847
0.0951678
0.0209051
0.013157
0.0131425
0.00459445
0.00458821
0.00891641
0.0089065
0.00345785
0.00345406
0.0569706
0.165355
0.02789
0.113059
0.0448323
0.140601
0.0208906
0.0951688
0.403544
0.519862
0.320834
0.418053
0.362895
0.469558
0.288097
0.376666
0.644053
0.507873
0.592375
0.464074
0.582251
0.456655
0.535457
0.41739
0.237293
0.10275
0.206365
0.0822466
0.202964
0.0826819
0.176206
0.065749
0.0442293
0.0442234
0.0290435
0.0290313
0.0319522
0.0319438
0.0203064
0.0202938
0.102758
0.237362
0.0822404
0.20641
0.0826816
0.203015
0.0657396
0.176239
0.50805
0.644364
0.464216
0.592637
0.456801
0.582515
0.417505
0.535677
0.705471
0.560706
0.68038
0.539019
0.637513
0.503687
0.615005
0.484448
0.276077
0.130231
0.259974
0.118601
0.236207
0.105122
0.222466
0.0956722
0.0664997
0.0665055
0.0568849
0.0568853
0.0492452
0.0492454
0.0417766
0.0417728
0.130266
0.276189
0.118623
0.260065
0.105142
0.236293
0.0956822
0.222535
0.56095
0.705874
0.539231
0.680739
0.503889
0.637858
0.484624
0.615311
0.733572
0.585199
0.722484
0.575506
0.662491
0.525189
0.652681
0.516724
0.294612
0.143939
0.287247
0.138468
0.25182
0.116096
0.245654
0.111748
0.0780331
0.0780465
0.0734233
0.0734335
0.0581036
0.0581095
0.0545886
0.054592
0.143994
0.294758
0.138514
0.287378
0.11613
0.251931
0.111776
0.245754
0.585494
0.734047
0.575778
0.722926
0.525435
0.6629
0.51695
0.653061
0.744769
0.595073
0.740636
0.591411
0.672276
0.533693
0.668689
0.530563
0.302213
0.149599
0.299393
0.147509
0.258079
0.120509
0.255777
0.118896
0.0827747
0.082792
0.0810394
0.0810552
0.0616378
0.0616464
0.0603627
0.0603702
0.149666
0.302379
0.147571
0.299551
0.120551
0.258206
0.118935
0.255897
0.5954
0.745289
0.591724
0.741137
0.533966
0.672724
0.530824
0.66912
0.748133
0.59815
0.747124
0.597197
0.67514
0.53627
0.674297
0.535487
0.304673
0.151431
0.303901
0.150862
0.260041
0.121884
0.259438
0.121468
0.0842733
0.084292
0.08382
0.0838382
0.0627009
0.0627103
0.0623921
0.0624013
0.151502
0.304849
0.150931
0.304073
0.12193
0.260175
0.121512
0.259569
0.598492
0.748676
0.597533
0.747658
0.536555
0.675608
0.535767
0.674757
0.748271
0.598439
0.748482
0.598542
0.675209
0.536471
0.675412
0.536577
0.305039
0.151736
0.305061
0.15174
0.260298
0.122087
0.260332
0.122103
0.0845138
0.0845327
0.0845271
0.0845461
0.0628482
0.0628578
0.0628684
0.062878
0.151808
0.305217
0.151811
0.305238
0.122133
0.260434
0.122149
0.260468
0.598786
0.748822
0.598888
0.749031
0.53676
0.675683
0.536865
0.675884
0.747206
0.597733
0.747891
0.598215
0.674248
0.535838
0.674863
0.536266
0.304704
0.151568
0.304973
0.151727
0.259997
0.121937
0.260231
0.12207
0.0844052
0.0844242
0.0845237
0.0845428
0.0627471
0.0627566
0.0628448
0.0628544
0.15164
0.304883
0.151799
0.305152
0.121983
0.260132
0.122117
0.260367
0.598081
0.747758
0.598563
0.748444
0.536127
0.674723
0.536555
0.675338
0.745604
0.596591
0.746521
0.597261
0.672816
0.534833
0.673636
0.535422
0.304061
0.151194
0.304469
0.151449
0.259443
0.121625
0.259792
0.121836
0.0841393
0.0841581
0.0843308
0.0843497
0.0625311
0.0625404
0.0626846
0.0626941
0.151265
0.304239
0.151521
0.304647
0.121671
0.259578
0.121882
0.259928
0.596938
0.746155
0.597608
0.747073
0.535122
0.67329
0.535711
0.67411
0.74368
0.595211
0.74474
0.595983
0.671092
0.53362
0.672043
0.534299
0.303265
0.150716
0.303739
0.151018
0.25876
0.121232
0.259166
0.121479
0.0837919
0.0838105
0.0840231
0.0840418
0.0622532
0.0622623
0.0624374
0.0624467
0.150787
0.303442
0.151089
0.303917
0.121276
0.258895
0.121525
0.259301
0.595556
0.744229
0.59633
0.74529
0.533907
0.671564
0.534587
0.672516
0.741512
0.593659
0.742692
0.594515
0.669142
0.532253
0.670204
0.533008
0.302363
0.150171
0.302888
0.150505
0.257987
0.120782
0.258436
0.121057
0.0833949
0.0834132
0.0836503
0.0836687
0.0619359
0.0619448
0.0621394
0.0621485
0.150241
0.302539
0.150576
0.303064
0.120827
0.25812
0.121101
0.25857
0.594002
0.742058
0.594859
0.743239
0.532538
0.669611
0.533294
0.670675
0.739107
0.591947
0.740402
0.59288
0.666971
0.530741
0.668141
0.531566
0.301368
0.149569
0.301938
0.149931
0.257131
0.120283
0.257621
0.120582
0.0829553
0.0829732
0.0832315
0.0832497
0.0615835
0.0615922
0.0618043
0.0618131
0.149638
0.301542
0.15
0.302113
0.120327
0.257263
0.120626
0.257754
0.592288
0.73965
0.593222
0.740947
0.531025
0.667438
0.53185
0.668609
0.736474
0.590084
0.737883
0.591092
0.664585
0.529091
0.665862
0.529985
0.300282
0.14891
0.300897
0.1493
0.256195
0.119736
0.256725
0.120059
0.0824738
0.0824914
0.0827708
0.0827887
0.0611966
0.061205
0.0614346
0.0614432
0.148978
0.300454
0.149369
0.301071
0.119779
0.256326
0.120102
0.256856
0.590422
0.737013
0.591432
0.738424
0.529372
0.665049
0.530267
0.666328
0.733585
0.58805
0.735125
0.589146
0.661962
0.527286
0.66336
0.528258
0.299098
0.148191
0.299763
0.148611
0.255173
0.119138
0.255746
0.119487
0.0819486
0.0819658
0.0822676
0.0822851
0.0607735
0.0607816
0.0610296
0.0610379
0.148258
0.299268
0.148679
0.299935
0.11918
0.255303
0.119529
0.255877
0.588386
0.734121
0.589483
0.735663
0.527565
0.662423
0.528539
0.663823
0.730437
0.58584
0.732107
0.587024
0.6591
0.525327
0.660618
0.526377
0.297811
0.14741
0.298528
0.147861
0.254062
0.118487
0.25468
0.118862
0.0813774
0.0813943
0.0817194
0.0817366
0.0603127
0.0603205
0.0605877
0.0605957
0.147476
0.29798
0.147928
0.298698
0.118529
0.25419
0.118904
0.254809
0.586173
0.73097
0.587359
0.732641
0.525604
0.659557
0.526655
0.661077
0.727019
0.583449
0.728825
0.584724
0.655987
0.523206
0.657631
0.524337
0.296419
0.146564
0.297189
0.147048
0.252858
0.117782
0.253523
0.118184
0.0807583
0.0807748
0.0811243
0.0811411
0.0598125
0.05982
0.0601072
0.0601148
0.146629
0.296586
0.147114
0.297357
0.117822
0.252984
0.118225
0.25365
0.583779
0.727547
0.585056
0.729355
0.52348
0.656441
0.524613
0.658087
0.72332
0.580869
0.725267
0.582238
0.652612
0.520917
0.654388
0.522132
0.294916
0.14565
0.295742
0.146168
0.251557
0.117018
0.25227
0.117449
0.0800891
0.0801051
0.0804801
0.0804964
0.0592712
0.0592783
0.0595864
0.0595937
0.145714
0.295081
0.146233
0.295908
0.117058
0.251682
0.117489
0.252396
0.581195
0.723844
0.582567
0.725793
0.521188
0.653062
0.522405
0.654841
0.719321
0.578101
0.721419
0.579564
0.648963
0.518455
0.650876
0.519756
0.2933
0.144665
0.294182
0.145219
0.250157
0.116196
0.25092
0.116656
0.0793678
0.0793833
0.0797847
0.0798005
0.0586874
0.0586941
0.0590237
0.0590306
0.144728
0.293463
0.145282
0.294347
0.116234
0.25028
0.116695
0.251044
0.578425
0.71984
0.579889
0.721941
0.518724
0.649409
0.520026
0.651325
0.71502
0.575128
0.717269
0.576696
0.645036
0.515817
0.64709
0.517207
0.291564
0.143608
0.292507
0.144198
0.248654
0.115312
0.249468
0.115803
0.0785932
0.0786082
0.0790365
0.0790519
0.05806
0.0580662
0.0584179
0.0584244
0.143669
0.291725
0.14426
0.292669
0.115349
0.248775
0.115841
0.249591
0.575448
0.715534
0.577018
0.717786
0.516083
0.645478
0.517474
0.647534
0.710422
0.571947
0.712817
0.573615
0.640817
0.512997
0.643018
0.51448
0.28971
0.142479
0.29071
0.143104
0.247044
0.114366
0.247913
0.114888
0.0777648
0.0777792
0.0782347
0.0782495
0.0573882
0.057394
0.057768
0.0577741
0.142538
0.289868
0.143165
0.29087
0.114402
0.247164
0.114925
0.248033
0.572263
0.71093
0.573933
0.713328
0.513259
0.641255
0.514744
0.643458
0.705523
0.568599
0.708072
0.570349
0.636311
0.509963
0.638651
0.511554
0.287743
0.141277
0.2888
0.141938
0.245324
0.113356
0.246248
0.11391
0.0768821
0.076896
0.0773789
0.0773931
0.0566718
0.0566771
0.0570736
0.0570792
0.141335
0.287899
0.141997
0.288957
0.113391
0.245441
0.113945
0.246366
0.56891
0.706026
0.570663
0.708578
0.510222
0.636744
0.511815
0.639087
0.700313
0.565046
0.703015
0.566902
0.631536
0.506746
0.63401
0.508423
0.285656
0.140002
0.286774
0.140699
0.243499
0.112284
0.244474
0.112868
0.0759449
0.0759581
0.0764685
0.0764821
0.0559114
0.0559162
0.0563347
0.0563398
0.140058
0.285809
0.140757
0.286928
0.112318
0.243614
0.112903
0.24459
0.565354
0.700811
0.567212
0.703516
0.507002
0.631964
0.508681
0.634441
0.694809
0.56129
0.697655
0.563245
0.626497
0.503359
0.629101
0.505121
0.28345
0.138654
0.284626
0.139387
0.241572
0.111153
0.242597
0.111766
0.0749544
0.074967
0.0755039
0.0755168
0.0551086
0.0551128
0.0555525
0.055557
0.138708
0.2836
0.139442
0.284777
0.111185
0.241685
0.111799
0.242711
0.561592
0.6953
0.563551
0.69815
0.503611
0.62692
0.505374
0.629527
0.689029
0.557343
0.69201
0.559391
0.621207
0.499809
0.623934
0.50165
0.281131
0.137237
0.282362
0.138003
0.23955
0.109964
0.240622
0.110605
0.0739132
0.073925
0.0744872
0.0744994
0.0542654
0.054269
0.0547288
0.0547327
0.137289
0.281278
0.138057
0.28251
0.109995
0.23966
0.110637
0.240733
0.557641
0.689514
0.559692
0.692498
0.500057
0.621624
0.5019
0.624355
0.682995
0.553218
0.6861
0.555354
0.615683
0.496104
0.618525
0.498022
0.278706
0.135755
0.279989
0.136553
0.237436
0.108722
0.238553
0.109389
0.0728248
0.0728359
0.0734213
0.0734329
0.053385
0.053388
0.0538661
0.0538694
0.135806
0.27885
0.136605
0.280134
0.108751
0.237544
0.109419
0.238662
0.553512
0.683473
0.55565
0.686581
0.496348
0.616094
0.498268
0.61894
0.676736
0.548929
0.679948
0.551144
0.609954
0.492234
0.612892
0.494233
0.276185
0.134215
0.277514
0.135041
0.235236
0.107432
0.236394
0.108122
0.0716943
0.0717046
0.0723106
0.0723214
0.0524717
0.052474
0.0529681
0.0529708
0.134264
0.276325
0.13509
0.277656
0.107459
0.235341
0.10815
0.236501
0.549218
0.677208
0.551435
0.680423
0.492474
0.61036
0.494475
0.613301
0.670293
0.544505
0.673591
0.546783
0.604066
0.48825
0.607079
0.490299
0.273583
0.132627
0.27495
0.133475
0.232969
0.106102
0.234158
0.10681
0.0705281
0.0705377
0.0711609
0.0711709
0.0515311
0.0515327
0.05204
0.052042
0.132673
0.273721
0.133523
0.275089
0.106128
0.233071
0.106837
0.234262
0.544788
0.670757
0.547068
0.674059
0.488486
0.604466
0.490536
0.607482
0.663705
0.539974
0.66707
0.542301
0.598051
0.484179
0.601123
0.486269
0.270917
0.130999
0.272314
0.131865
0.230648
0.104741
0.231862
0.105463
0.0693334
0.0693421
0.0699789
0.0699881
0.050569
0.05057
0.0510874
0.0510887
0.131043
0.271051
0.13191
0.272449
0.104765
0.230748
0.105488
0.231963
0.540252
0.664162
0.542582
0.667531
0.48441
0.598445
0.486502
0.60152
0.657015
0.535361
0.660425
0.537725
0.591947
0.48004
0.595057
0.48216
0.268201
0.129341
0.26962
0.13022
0.228285
0.103356
0.229518
0.104089
0.0681181
0.068126
0.0687723
0.0687806
0.0495921
0.0495924
0.0501165
0.0501172
0.129383
0.268331
0.130264
0.269752
0.103378
0.228382
0.104112
0.229616
0.535634
0.657465
0.538
0.660878
0.480266
0.592334
0.482389
0.595448
0.650268
0.530695
0.6537
0.533082
0.585793
0.475855
0.588922
0.477995
0.265452
0.127665
0.266885
0.128552
0.225895
0.101957
0.227139
0.102695
0.0668912
0.0668982
0.0675495
0.067557
0.048608
0.0486076
0.0491346
0.0491346
0.127705
0.265579
0.128593
0.267013
0.101978
0.225989
0.102717
0.227235
0.530962
0.65071
0.533352
0.654146
0.476077
0.586174
0.478219
0.589307
0.643502
0.525997
0.646939
0.528397
0.579625
0.471643
0.582757
0.473794
0.262683
0.12598
0.264124
0.12687
0.223487
0.100552
0.224739
0.101292
0.0656603
0.0656664
0.0663192
0.0663258
0.0476239
0.0476228
0.0481491
0.0481484
0.126018
0.262806
0.126909
0.264249
0.100571
0.223579
0.101312
0.224832
0.526259
0.643936
0.528661
0.647377
0.47186
0.58
0.474014
0.583135
0.636733
0.521271
0.640172
0.523686
0.573465
0.467409
0.576593
0.469571
0.259892
0.124285
0.261346
0.12518
0.221066
0.0991438
0.222325
0.099885
0.0644274
0.0644327
0.0650871
0.0650929
0.0466433
0.0466415
0.0471662
0.0471648
0.124321
0.260011
0.125217
0.261467
0.0991612
0.221155
0.0999033
0.222415
0.521526
0.637159
0.523945
0.640602
0.467622
0.573833
0.469787
0.576964
0.629903
0.516457
0.633386
0.518929
0.56727
0.463113
0.570426
0.465316
0.257032
0.122552
0.25853
0.123472
0.218599
0.0977154
0.219888
0.0984707
0.0631763
0.0631807
0.0638484
0.0638533
0.0456581
0.0456557
0.0461852
0.0461831
0.122585
0.257148
0.123506
0.258647
0.0977311
0.218685
0.0984873
0.219975
0.516706
0.630321
0.519181
0.633808
0.46332
0.567631
0.465526
0.570791
0.62281
0.511371
0.626462
0.514012
0.560866
0.458601
0.564159
0.460941
0.253963
0.120689
0.255591
0.121691
0.215976
0.0961999
0.217363
0.0970112
0.0618444
0.0618479
0.0625687
0.0625727
0.0446286
0.0446254
0.0451854
0.0451826
0.12072
0.254074
0.121723
0.255705
0.0962138
0.216058
0.0970261
0.217447
0.511613
0.623218
0.514258
0.626875
0.458803
0.561218
0.461146
0.564516
0.614989
0.505586
0.619083
0.50865
0.553834
0.453505
0.557512
0.456201
0.250351
0.118467
0.252308
0.119689
0.212927
0.0944263
0.214574
0.095397
0.060266
0.0602684
0.0611429
0.0611459
0.0434416
0.0434377
0.0440975
0.044094
0.118495
0.250457
0.119718
0.252417
0.0944381
0.213005
0.09541
0.214655
0.50582
0.615386
0.508889
0.619486
0.4537
0.554176
0.456399
0.55786
0.605623
0.498192
0.61061
0.502225
0.545399
0.447017
0.5499
0.450556
0.245453
0.115378
0.248189
0.117123
0.208835
0.0919992
0.211117
0.0933675
0.0580735
0.0580744
0.0593196
0.0593213
0.0418324
0.0418273
0.0427452
0.0427407
0.115402
0.245553
0.117149
0.248292
0.0920081
0.208908
0.093378
0.211193
0.498416
0.606006
0.502455
0.611
0.447204
0.545729
0.450747
0.550236
0.594299
0.486385
0.600138
0.493252
0.534847
0.436549
0.540381
0.442667
0.237195
0.11026
0.242039
0.113227
0.201915
0.0879684
0.205986
0.0903135
0.0545835
0.0545822
0.0565821
0.0565819
0.0392722
0.0392656
0.0407439
0.0407382
0.110278
0.237285
0.113248
0.242134
0.0879734
0.201981
0.0903207
0.206056
0.486596
0.59467
0.49347
0.600515
0.436724
0.535166
0.442848
0.540706
0.592835
0.45248
0.590314
0.47569
0.53126
0.405808
0.530532
0.426892
0.218403
0.100957
0.230019
0.106292
0.185709
0.0804044
0.195801
0.0847831
0.0490859
0.0490814
0.0521238
0.0521211
0.0351309
0.0351221
0.0374379
0.0374303
0.100967
0.218478
0.106307
0.230103
0.0804036
0.185763
0.0847855
0.195862
0.45267
0.593215
0.475893
0.590685
0.405965
0.531582
0.42706
0.530848
0.300429
0.227951
0.106152
0.0833647
0.292534
0.221835
0.102777
0.0806451
0.059717
0.0105075
0.0131708
0.00467864
0.0569182
0.00989267
0.0127044
0.00465309
0.00276692
0.00276484
0.00445024
0.00445049
0.00271624
0.00271445
0.00448977
0.00448999
0.0104971
0.0597065
0.0046773
0.0131657
0.00988324
0.0569075
0.0046519
0.0126997
0.227998
0.300575
0.0833699
0.106225
0.221876
0.292667