/*--------------------------------*- C++ -*----------------------------------*\
  =========                 |
  \\      /  F ield         | OpenFOAM: The Open Source CFD Toolbox
   \\    /   O peration     | Website:  https://openfoam.org
    \\  /    A nd           | Version:  9
     \\/     M anipulation  |
\*---------------------------------------------------------------------------*/
FoamFile
{
    format      ascii;
    class       volScalarField;
    location    "1.75";
    object      k;
}
// * * * * * * * * * * * * * * * * * * * * * * * * * * * * * * * * * * * * * //

dimensions      [0 2 -2 0 0 0 0];

internalField   nonuniform List<scalar> 
36360
(
0.0610324
0.0486808
0.0222823
0.0199016
0.0122779
0.00877407
0.004767
0.00410914
0.0140067
0.00351043
0.00472261
0.002753
0.00342982
0.00221009
0.00296797
0.00298353
0.00195396
0.00195378
0.00279752
0.00279751
0.00218083
0.00218085
0.00299113
0.00299112
0.00350879
0.0140031
0.00275277
0.00472164
0.00221002
0.0034293
0.00298351
0.00296786
0.0486856
0.0610514
0.0199008
0.0222891
0.0087747
0.0122818
0.00410905
0.00476748
0.112803
0.0918362
0.0911153
0.073159
0.0345538
0.0251775
0.0247644
0.0176644
0.0436399
0.0168703
0.0300453
0.00806467
0.0111658
0.00341198
0.00616921
0.00234181
0.00412531
0.00412125
0.00223985
0.00223874
0.00153911
0.00153859
0.00170723
0.00170718
0.0168638
0.0436434
0.00805991
0.0300446
0.00341016
0.0111655
0.00234116
0.00616827
0.0918564
0.112844
0.0731713
0.0911454
0.0251837
0.0345679
0.0176675
0.0247736
0.139059
0.115179
0.128168
0.105411
0.0464006
0.0350722
0.0415336
0.0309375
0.0621183
0.0307278
0.0542283
0.0245658
0.0186635
0.00782214
0.0154358
0.00563137
0.0136515
0.0136468
0.00851344
0.00850685
0.00254545
0.00254331
0.0018122
0.00181105
0.0307266
0.0621319
0.0245613
0.0542366
0.00781926
0.0186665
0.0056284
0.0154371
0.115215
0.139121
0.105439
0.128219
0.0350848
0.0464241
0.030947
0.0415525
0.152004
0.126917
0.146717
0.122111
0.0520382
0.0399396
0.0497614
0.0379674
0.0718368
0.0387569
0.0678334
0.0353982
0.0225581
0.0107782
0.0209734
0.00954575
0.021231
0.0212308
0.0179876
0.0179853
0.00434759
0.0043451
0.00351827
0.00351579
0.0387633
0.0718606
0.035401
0.0678522
0.0107767
0.0225645
0.00954344
0.0209781
0.126968
0.152086
0.122154
0.146789
0.039958
0.0520702
0.037983
0.0497893
0.157927
0.132313
0.155593
0.130189
0.0545225
0.042089
0.0535563
0.0412553
0.0763552
0.0425899
0.0745786
0.0410844
0.0242869
0.0121366
0.0236184
0.011614
0.0249642
0.0249667
0.0235042
0.0235057
0.00535769
0.00535545
0.00496163
0.00495926
0.0426019
0.0763868
0.041094
0.0746068
0.0121363
0.0242959
0.0116132
0.0236262
0.132376
0.158024
0.130246
0.155684
0.0421118
0.054561
0.0412761
0.0535918
0.160297
0.134463
0.159421
0.133671
0.0554743
0.0429018
0.0551291
0.0426101
0.0781449
0.0440862
0.0774903
0.0435465
0.0249351
0.0126283
0.0247036
0.0124571
0.0263805
0.0263842
0.0258805
0.0258838
0.00573164
0.00572955
0.00560379
0.00560165
0.044101
0.078181
0.0435602
0.0775246
0.0126287
0.0249455
0.0124573
0.0247134
0.134533
0.160404
0.133738
0.159524
0.0429272
0.0555167
0.0426344
0.0551699
0.161049
0.135139
0.160813
0.134929
0.05576
0.0431353
0.0556742
0.0430687
0.0787039
0.0445372
0.0785328
0.0444043
0.0251246
0.01276
0.0250696
0.0127253
0.0267787
0.0267828
0.02667
0.026674
0.00582332
0.00582126
0.00580264
0.00580058
0.044553
0.0787419
0.0444198
0.0785701
0.0127606
0.0251355
0.0127259
0.0250803
0.135212
0.161161
0.135001
0.160923
0.0431618
0.0558042
0.0430948
0.0557177
0.161145
0.135227
0.161159
0.135239
0.0557901
0.0431506
0.0557979
0.0431623
0.0787835
0.0446005
0.0787911
0.0446079
0.0251474
0.0127718
0.0251515
0.012777
0.0268237
0.0268279
0.0268372
0.0268414
0.00582797
0.00582591
0.0058339
0.00583184
0.0446165
0.0788221
0.0446239
0.0788295
0.0127724
0.0251584
0.0127777
0.0251625
0.135301
0.161259
0.135312
0.161272
0.0431775
0.055835
0.043189
0.0558426
0.161016
0.135123
0.161112
0.135203
0.0557413
0.0431
0.055778
0.0431363
0.0787139
0.0445537
0.078772
0.0445968
0.0251228
0.0127529
0.0251434
0.0127688
0.0267789
0.026783
0.0268207
0.0268248
0.00581187
0.00580978
0.00582527
0.00582321
0.0445696
0.0787524
0.0446128
0.0788106
0.0127535
0.0251339
0.0127694
0.0251545
0.135197
0.16113
0.135276
0.161226
0.0431269
0.0557863
0.0431632
0.0558229
0.160781
0.134932
0.160925
0.135051
0.0556537
0.0430187
0.0557086
0.0430695
0.0785758
0.0444546
0.0786664
0.0445232
0.0250734
0.0127169
0.0251067
0.0127417
0.0266899
0.0266939
0.0267536
0.0267577
0.00578348
0.00578137
0.00580334
0.00580125
0.0444704
0.0786142
0.0445391
0.078705
0.0127174
0.0250844
0.0127423
0.0251177
0.135005
0.160895
0.135125
0.161039
0.0430455
0.0556986
0.0430964
0.0557536
0.160485
0.134696
0.160656
0.134834
0.0555456
0.0429217
0.0556097
0.0429793
0.0784039
0.0443282
0.0785092
0.0444099
0.0250112
0.0126717
0.0250503
0.0127014
0.0265759
0.0265798
0.0266523
0.0266563
0.00574833
0.0057462
0.00577192
0.0057698
0.0443438
0.078442
0.0444257
0.0785476
0.0126722
0.0250221
0.0127019
0.0250613
0.134769
0.160598
0.134908
0.160769
0.0429484
0.0555904
0.0430061
0.0556546
0.160142
0.134427
0.160336
0.134582
0.0554214
0.0428122
0.0554934
0.0428762
0.0782082
0.0441826
0.078325
0.0442736
0.0249395
0.01262
0.0249833
0.0126529
0.0264452
0.026449
0.0265303
0.0265342
0.00570841
0.00570625
0.00573465
0.00573251
0.044198
0.0782461
0.0442891
0.0783631
0.0126204
0.0249503
0.0126534
0.0249942
0.1345
0.160255
0.134655
0.160449
0.0428388
0.055466
0.0429028
0.0555381
0.159756
0.134128
0.159971
0.134298
0.0552822
0.0426911
0.0553616
0.0427607
0.0779913
0.0440199
0.0781185
0.0441193
0.024859
0.0125621
0.0249071
0.0125981
0.0262994
0.0263031
0.026392
0.0263958
0.00566403
0.00566183
0.00569251
0.00569033
0.044035
0.0780289
0.0441346
0.0781562
0.0125624
0.0248697
0.0125984
0.0249179
0.134201
0.159869
0.13437
0.160084
0.0427175
0.0553266
0.0427872
0.0554061
0.159329
0.133801
0.159565
0.133984
0.055128
0.0425582
0.0552149
0.0426337
0.0777534
0.0438404
0.0778911
0.0439481
0.0247697
0.012498
0.0248223
0.012537
0.0261384
0.026142
0.0262386
0.0262423
0.0056151
0.00561287
0.00564584
0.00564363
0.0438553
0.0777906
0.0439632
0.0779285
0.0124982
0.0247803
0.0125373
0.0248329
0.133873
0.15944
0.134057
0.159677
0.0425844
0.0551722
0.0426601
0.0552592
0.158856
0.133441
0.159115
0.133641
0.054958
0.0424125
0.055053
0.0424945
0.0774931
0.0436433
0.0776421
0.0437599
0.0246713
0.0124272
0.0247285
0.0124696
0.0259616
0.025965
0.0260697
0.0260733
0.00556141
0.00555914
0.00559452
0.00559228
0.0436579
0.07753
0.0437747
0.0776792
0.0124274
0.0246818
0.0124698
0.024739
0.133513
0.158967
0.133713
0.159226
0.0424386
0.0550019
0.0425207
0.055097
0.158337
0.13305
0.158619
0.133266
0.0547715
0.0422537
0.0548748
0.0423424
0.0772096
0.0434281
0.0773703
0.0435538
0.0245633
0.0123496
0.0246253
0.0123955
0.0257681
0.0257714
0.0258846
0.025888
0.00550272
0.00550041
0.00553832
0.00553604
0.0434424
0.0772461
0.0435683
0.0774071
0.0123497
0.0245736
0.0123956
0.0246357
0.133121
0.158448
0.133337
0.15873
0.0422795
0.0548152
0.0423683
0.0549186
0.157771
0.132624
0.158077
0.132857
0.0545679
0.0420805
0.0546798
0.0421765
0.0769015
0.0431938
0.0770746
0.0433291
0.0244451
0.0122648
0.0245123
0.0123143
0.0255572
0.0255603
0.0256824
0.0256857
0.00543881
0.00543647
0.005477
0.00547468
0.0432078
0.0769376
0.0433432
0.0771109
0.0122647
0.0244553
0.0123143
0.0245225
0.132694
0.157881
0.132928
0.158187
0.0421062
0.0546113
0.0422023
0.0547234
0.157154
0.132162
0.157485
0.132414
0.054346
0.0418919
0.0544672
0.0419957
0.0765675
0.0429396
0.0767537
0.0430849
0.0243163
0.0121723
0.0243888
0.0122256
0.025328
0.025331
0.0254624
0.0254655
0.00536947
0.00536708
0.00541035
0.00540798
0.0429532
0.0766031
0.0430987
0.0767896
0.0121721
0.0243263
0.0122255
0.0243989
0.132232
0.157263
0.132484
0.157595
0.0419173
0.0543892
0.0420213
0.0545104
0.156485
0.131663
0.156842
0.131933
0.0541052
0.0416867
0.0542358
0.0417988
0.0762064
0.0426647
0.0764062
0.0428203
0.0241762
0.0120719
0.0242543
0.0121292
0.02508
0.0250827
0.0252238
0.0252267
0.00529451
0.00529207
0.00533816
0.00533574
0.0426779
0.0762416
0.0428337
0.0764416
0.0120716
0.0241861
0.0121289
0.0242643
0.131732
0.156593
0.132002
0.156951
0.0417119
0.054148
0.0418242
0.0542788
0.155762
0.131125
0.156147
0.131414
0.0538448
0.0414646
0.0539853
0.0415852
0.0758175
0.0423684
0.0760312
0.0425346
0.0240246
0.0119633
0.0241085
0.0120247
0.0248124
0.024815
0.0249659
0.0249686
0.00521383
0.00521134
0.00526028
0.00525782
0.0423812
0.0758522
0.0425477
0.0760662
0.0119629
0.0240343
0.0120243
0.0241183
0.131193
0.15587
0.131483
0.156255
0.0414895
0.0538873
0.0416103
0.054028
0.154985
0.130547
0.155397
0.130856
0.0535646
0.0412255
0.053715
0.0413544
0.0754001
0.0420504
0.0756281
0.0422275
0.0238614
0.0118464
0.0239511
0.0119119
0.0245251
0.0245274
0.0246884
0.0246908
0.00512737
0.00512482
0.00517664
0.00517413
0.0420628
0.0754342
0.0422401
0.0756625
0.0118458
0.0238709
0.0119114
0.0239607
0.130615
0.155091
0.130924
0.155504
0.0412502
0.0536067
0.0413793
0.0537573
0.154152
0.129929
0.154591
0.130258
0.0532643
0.0409712
0.0534247
0.0411078
0.0749537
0.0417105
0.0751961
0.0418984
0.0236863
0.011721
0.0237819
0.0117907
0.0242178
0.0242198
0.0243909
0.0243931
0.00503515
0.00503255
0.00508721
0.00508465
0.0417224
0.0749873
0.0419106
0.07523
0.0117203
0.0236956
0.0117901
0.0237913
0.129996
0.154257
0.130326
0.154697
0.0409956
0.053306
0.0411323
0.0534667
0.153265
0.129271
0.153731
0.12962
0.0529442
0.0406999
0.0531144
0.040845
0.0744787
0.0413488
0.0747353
0.0415474
0.0234994
0.0115873
0.0236009
0.0116611
0.0238907
0.0238925
0.0240735
0.0240755
0.00493731
0.00493465
0.00499208
0.00498946
0.0413602
0.0745117
0.0415591
0.0747685
0.0115864
0.0235085
0.0116603
0.0236101
0.129337
0.153369
0.129687
0.153836
0.040724
0.0529856
0.0408692
0.053156
0.152326
0.128575
0.152818
0.128943
0.0526049
0.0404121
0.0527846
0.0405653
0.073976
0.040966
0.0742462
0.0411749
0.0233009
0.0114453
0.0234081
0.0115232
0.0235445
0.023546
0.0237366
0.0237383
0.00483411
0.0048314
0.00489144
0.00488875
0.0409769
0.0740082
0.0411861
0.0742788
0.0114443
0.0233097
0.0115222
0.0234171
0.12864
0.152429
0.129009
0.152922
0.0404359
0.0526458
0.0405892
0.0528258
0.151337
0.127843
0.151853
0.128228
0.0522474
0.0401086
0.052436
0.0402695
0.0734466
0.0405632
0.0737298
0.0407818
0.0230911
0.0112955
0.0232038
0.0113771
0.0231801
0.0231813
0.023381
0.0233824
0.00472593
0.00472315
0.0047856
0.00478285
0.0405735
0.0734782
0.0407925
0.0737618
0.0112943
0.0230997
0.011376
0.0232126
0.127907
0.15144
0.128293
0.151957
0.040132
0.0522879
0.0402931
0.0524767
0.150304
0.127077
0.150842
0.127478
0.0518731
0.0397897
0.0520699
0.0399582
0.0728928
0.0401418
0.0731878
0.0403694
0.0228708
0.0111383
0.0229886
0.0112235
0.0227989
0.0227998
0.0230078
0.0230089
0.00461328
0.00461044
0.00467501
0.0046722
0.0401516
0.0729237
0.0403795
0.0732191
0.0111369
0.0228791
0.0112222
0.0229971
0.12714
0.150406
0.127542
0.150944
0.0398128
0.0519131
0.0399815
0.0521101
0.149232
0.126282
0.149789
0.126698
0.0514837
0.0394569
0.0516878
0.0396319
0.0723173
0.039704
0.0726227
0.0399394
0.0226409
0.0109744
0.0227633
0.0110628
0.0224028
0.0224034
0.0226188
0.0226196
0.00449677
0.00449386
0.00456023
0.00455737
0.0397132
0.0723475
0.0399489
0.0726533
0.0109729
0.022649
0.0110614
0.0227716
0.126345
0.149332
0.126761
0.149889
0.0394797
0.0515233
0.0396549
0.0517276
0.148125
0.125463
0.148698
0.12589
0.0510812
0.0391133
0.0512915
0.0392935
0.071723
0.039252
0.0720374
0.0394941
0.0224026
0.0108047
0.0225291
0.0108959
0.021994
0.0219943
0.0222158
0.0222163
0.00437714
0.00437418
0.00444196
0.00443903
0.0392605
0.0717524
0.0395029
0.0720672
0.010803
0.0224104
0.0108942
0.0225371
0.125525
0.148224
0.125953
0.148797
0.0391356
0.0511203
0.039316
0.0513309
0.14699
0.124622
0.147576
0.125059
0.0506679
0.0387605
0.0508833
0.0389449
0.0711126
0.0387882
0.0714345
0.0390357
0.0221571
0.0106301
0.022287
0.0107235
0.021575
0.0215749
0.0218014
0.0218015
0.00425526
0.00425224
0.00432097
0.00431799
0.0387961
0.0711413
0.0390439
0.0714636
0.0106281
0.0221646
0.0107217
0.0222947
0.124682
0.147087
0.125121
0.147674
0.0387824
0.0507065
0.0389671
0.0509221
0.145834
0.123763
0.14643
0.124209
0.0502462
0.0384012
0.0504654
0.0385884
0.0704896
0.0383154
0.0708173
0.0385668
0.0219057
0.0104516
0.0220383
0.0105467
0.0211487
0.0211482
0.0213781
0.0213779
0.00413212
0.00412904
0.00419821
0.00419517
0.0383227
0.0705175
0.0385745
0.0708456
0.0104494
0.021913
0.0105447
0.0220457
0.123823
0.14593
0.124269
0.146527
0.0384227
0.0502843
0.0386102
0.0505038
0.144663
0.122892
0.145266
0.123343
0.0498186
0.0380386
0.0500405
0.038227
0.0698565
0.0378364
0.0701889
0.0380904
0.02165
0.0102706
0.0217845
0.0103667
0.0207185
0.0207177
0.0209493
0.0209486
0.00400881
0.00400568
0.00407473
0.00407163
0.037843
0.0698836
0.0380974
0.0702164
0.0102683
0.021657
0.0103645
0.0217917
0.12295
0.144758
0.123403
0.145361
0.0380597
0.0498562
0.0382484
0.0500783
0.143481
0.122005
0.144089
0.122465
0.0493877
0.0376763
0.0496108
0.0378636
0.0692144
0.0373541
0.0695511
0.0376093
0.0213917
0.0100886
0.0215272
0.010185
0.0202881
0.0202869
0.0205183
0.0205173
0.00388643
0.00388325
0.00395163
0.00394849
0.0373601
0.0692408
0.0376156
0.0695779
0.0100861
0.0213985
0.0101826
0.0215341
0.122063
0.143575
0.122523
0.144183
0.037697
0.0494248
0.0378845
0.0496481
0.14229
0.121097
0.142902
0.121568
0.048955
0.0373194
0.049179
0.037505
0.0685641
0.0368705
0.0689047
0.0371261
0.0211321
0.00990674
0.0212682
0.0100029
0.0198599
0.0198583
0.0200886
0.0200872
0.00376587
0.00376265
0.00382996
0.00382677
0.0368759
0.0685897
0.0371318
0.0689308
0.00990406
0.0211386
0.0100003
0.0212748
0.121154
0.142382
0.121625
0.142995
0.0373397
0.0489914
0.0375254
0.0492158
0.141076
0.120166
0.141702
0.12065
0.0485156
0.0369568
0.0487442
0.0371461
0.0678998
0.0363815
0.0682492
0.0366409
0.0208692
0.00972467
0.0210074
0.00982107
0.0194322
0.0194303
0.0196612
0.0196594
0.00364734
0.00364409
0.00371034
0.00370711
0.0363862
0.0679245
0.036646
0.0682744
0.00972183
0.0208754
0.00981831
0.0210138
0.120222
0.141167
0.120706
0.141794
0.0369766
0.0485514
0.0371661
0.0487803
0.139788
0.119172
0.140461
0.119696
0.0480508
0.0365737
0.0482956
0.036776
0.0671891
0.0358657
0.0675678
0.0361425
0.0205939
0.00953793
0.0207401
0.00963755
0.0189919
0.0189896
0.0192297
0.0192276
0.00352922
0.00352593
0.0035923
0.00358903
0.0358697
0.0672129
0.0361469
0.0675921
0.00953492
0.0205998
0.00963463
0.0207462
0.119226
0.139877
0.11975
0.140551
0.036593
0.0480859
0.0367955
0.0483311
0.138308
0.118012
0.139097
0.118635
0.0475157
0.0361347
0.0478034
0.0363711
0.0663545
0.0352674
0.0668086
0.0355954
0.0202816
0.00933236
0.0204507
0.00944403
0.0184977
0.018495
0.01877
0.0187675
0.0034049
0.0034016
0.00347229
0.00346899
0.0352706
0.0663771
0.0355991
0.0668319
0.00932918
0.0202871
0.00944095
0.0204564
0.118065
0.138395
0.118688
0.139185
0.0361533
0.0475499
0.03639
0.0478381
0.136423
0.116494
0.137448
0.117329
0.0468227
0.0355669
0.0472035
0.03588
0.0652288
0.034459
0.065858
0.0349145
0.0198758
0.00907163
0.0201017
0.00921745
0.0178487
0.0178455
0.0182161
0.0182132
0.0032558
0.00325249
0.0033389
0.00333559
0.0344613
0.06525
0.0349173
0.06588
0.00906823
0.0198808
0.00921418
0.020107
0.116544
0.136507
0.117381
0.137534
0.0355847
0.0468556
0.0358983
0.0472371
0.133846
0.114102
0.135245
0.115486
0.045839
0.0347098
0.0463815
0.0351969
0.063389
0.0331595
0.0644592
0.0339094
0.0192402
0.00867087
0.0196067
0.00890156
0.0168429
0.0168389
0.0174199
0.0174163
0.00304022
0.00303689
0.00316326
0.00315993
0.0331603
0.0634081
0.033911
0.0644794
0.00866718
0.0192446
0.00889805
0.0196114
0.114149
0.133926
0.115535
0.135327
0.0347267
0.0458706
0.0352142
0.0464138
0.131412
0.108012
0.132441
0.112037
0.0444172
0.0328325
0.0452276
0.0340475
0.0595552
0.0309074
0.0618715
0.0321851
0.0180098
0.00798175
0.0187436
0.00837526
0.0152657
0.0152605
0.0161401
0.0161356
0.00270584
0.00270254
0.00289206
0.00288874
0.0309061
0.0595711
0.0321849
0.0618893
0.00797761
0.0180132
0.00837138
0.0187475
0.108054
0.13149
0.112083
0.13252
0.0328475
0.0444474
0.0340637
0.0452584
0.0884546
0.0705446
0.0353388
0.0289824
0.0789229
0.0628258
0.0305161
0.0251774
0.0254213
0.00618376
0.00660975
0.00299153
0.0209484
0.00496416
0.00574603
0.00289505
0.00226616
0.00226489
0.00277608
0.00277623
0.00211487
0.00211414
0.0028248
0.00282488
0.00617869
0.0254168
0.00299078
0.00660775
0.00496057
0.0209439
0.00289457
0.00574443
0.0705573
0.0884922
0.028984
0.0353575
0.0628347
0.0789521
0.0251775
0.0305291
0.159855
0.13147
0.129506
0.105029
0.143152
0.117241
0.116063
0.093772
0.0706832
0.0326623
0.0500993
0.0176444
0.0605278
0.026359
0.0426039
0.0136354
0.010939
0.0109295
0.00414379
0.00413888
0.00766617
0.00765868
0.00318013
0.00317699
0.0326553
0.0706938
0.0176341
0.0501019
0.0263518
0.0605349
0.0136269
0.0426048
0.131508
0.159926
0.105054
0.12956
0.11727
0.143209
0.093791
0.116106
0.198274
0.165908
0.182099
0.151291
0.176802
0.147266
0.162729
0.134604
0.0989677
0.0555793
0.0867683
0.0453582
0.0848097
0.0454828
0.0743996
0.0369971
0.0317716
0.0317712
0.0219849
0.0219797
0.023928
0.0239254
0.0161241
0.016118
0.0555871
0.0989977
0.0453577
0.0867882
0.0454859
0.0848318
0.0369942
0.0744139
0.165972
0.198379
0.151342
0.182187
0.147317
0.176888
0.134645
0.1628
0.218097
0.184045
0.209905
0.176521
0.193805
0.162749
0.186818
0.156364
0.114509
0.0692681
0.108014
0.0634715
0.0978634
0.0566948
0.0924426
0.0519729
0.0453612
0.0453682
0.0395765
0.0395803
0.0349081
0.0349117
0.0302373
0.0302381
0.0692914
0.114559
0.0634874
0.108054
0.0567099
0.097901
0.0519823
0.0924727
0.184136
0.218236
0.176599
0.210028
0.162822
0.193918
0.156426
0.186917
0.227534
0.192761
0.22377
0.189279
0.201749
0.170042
0.198598
0.167147
0.122106
0.0761318
0.119069
0.0733863
0.104104
0.0621981
0.101626
0.0600134
0.0521984
0.0522099
0.0494741
0.0494837
0.0403537
0.0403609
0.0382014
0.0382071
0.0761659
0.122172
0.0734156
0.119127
0.0622215
0.104153
0.0600331
0.10167
0.192871
0.2277
0.189381
0.223923
0.17013
0.201884
0.167228
0.198723
0.23147
0.196411
0.229994
0.195041
0.204997
0.17303
0.203787
0.171917
0.125295
0.0789974
0.124103
0.0779345
0.10666
0.0644332
0.105713
0.0636133
0.0550064
0.0550201
0.0539757
0.0539885
0.0425195
0.0425285
0.041736
0.0417443
0.0790373
0.12537
0.0779721
0.124174
0.0644611
0.106716
0.0636394
0.105766
0.196535
0.231653
0.195159
0.230169
0.173129
0.205145
0.172012
0.20393
0.232782
0.197641
0.23236
0.197242
0.20605
0.174007
0.205716
0.173695
0.126372
0.0799472
0.126025
0.079647
0.107495
0.065146
0.107231
0.0649266
0.05591
0.0559246
0.0556322
0.0556465
0.0431822
0.0431918
0.0429864
0.0429959
0.0799897
0.126451
0.0796886
0.126102
0.0651756
0.107555
0.0649557
0.10729
0.197771
0.232973
0.197369
0.232547
0.17411
0.206205
0.173797
0.205869
0.232985
0.197854
0.232993
0.197849
0.206194
0.174158
0.20621
0.174163
0.126576
0.0801263
0.126564
0.0801183
0.107637
0.0652657
0.107637
0.0652677
0.0560684
0.0560832
0.0560704
0.0560852
0.0432828
0.0432926
0.0432924
0.0433021
0.0801694
0.126656
0.0801613
0.126643
0.0652957
0.107697
0.0652977
0.107697
0.197986
0.233179
0.19798
0.233186
0.174263
0.206352
0.174267
0.206367
0.2328
0.197721
0.232945
0.197835
0.206023
0.174033
0.206152
0.174134
0.126494
0.08007
0.126577
0.080136
0.107558
0.0652112
0.107631
0.065268
0.0560212
0.056036
0.0560836
0.0560984
0.0432337
0.0432435
0.0432879
0.0432977
0.0801132
0.126574
0.0801793
0.126657
0.0652412
0.107619
0.0652981
0.107692
0.197854
0.232995
0.197967
0.23314
0.174138
0.206181
0.174239
0.20631
0.232442
0.197438
0.232663
0.197618
0.20571
0.173785
0.205901
0.173941
0.126291
0.0799153
0.126429
0.0800263
0.107382
0.0650788
0.1075
0.0651721
0.055884
0.0558987
0.0559866
0.0560013
0.0431161
0.0431258
0.0432022
0.0432119
0.0799582
0.126371
0.0800695
0.126509
0.0651087
0.107442
0.0652021
0.10756
0.19757
0.232637
0.197751
0.232858
0.17389
0.205868
0.174046
0.20606
0.231997
0.197082
0.232256
0.197293
0.20532
0.173476
0.205545
0.173658
0.126029
0.0797103
0.126193
0.0798447
0.107158
0.0649067
0.107296
0.0650186
0.0556997
0.0557143
0.0558249
0.0558395
0.0429616
0.0429712
0.0430658
0.0430754
0.079753
0.126109
0.0798876
0.126272
0.0649363
0.107217
0.0650484
0.107356
0.197214
0.232192
0.197425
0.23245
0.173581
0.205478
0.173763
0.205703
0.231491
0.196677
0.231779
0.196911
0.204875
0.173125
0.205127
0.173328
0.12573
0.0794754
0.125911
0.079624
0.106902
0.0647095
0.107055
0.0648334
0.0554874
0.0555019
0.0556267
0.0556412
0.0427842
0.0427936
0.0429
0.0429095
0.0795177
0.125809
0.0796666
0.12599
0.0647388
0.106961
0.0648629
0.107115
0.196808
0.231685
0.197043
0.231973
0.173229
0.205032
0.173432
0.205285
0.230929
0.19623
0.231244
0.196485
0.20438
0.172737
0.204656
0.172957
0.1254
0.0792148
0.125596
0.0793759
0.106618
0.0644902
0.106785
0.0646249
0.0552521
0.0552664
0.0554027
0.0554171
0.042587
0.0425963
0.0427126
0.042722
0.0792568
0.125478
0.0794181
0.125675
0.0645192
0.106677
0.0646541
0.106844
0.19636
0.231121
0.196615
0.231437
0.17284
0.204536
0.173061
0.204813
0.230313
0.195741
0.230655
0.196017
0.203834
0.172311
0.204135
0.17255
0.125038
0.0789294
0.12525
0.0791029
0.106307
0.0642494
0.106488
0.0643948
0.054994
0.0550081
0.055156
0.0551702
0.0423701
0.0423793
0.0425056
0.0425148
0.078971
0.125116
0.0791447
0.125328
0.064278
0.106366
0.0644237
0.106547
0.195871
0.230504
0.196147
0.230847
0.172414
0.203989
0.172653
0.204291
0.229637
0.195208
0.230009
0.195506
0.203234
0.171846
0.203563
0.172105
0.124644
0.0786179
0.124872
0.0788046
0.105967
0.0639859
0.106163
0.0641427
0.0547121
0.0547261
0.0548861
0.0549001
0.0421327
0.0421417
0.0422785
0.0422876
0.078659
0.124721
0.078846
0.124949
0.0640142
0.106025
0.0641712
0.106221
0.195337
0.229827
0.195636
0.2302
0.171948
0.203389
0.172207
0.203718
0.228901
0.194629
0.229303
0.19495
0.202579
0.171339
0.202936
0.171619
0.124215
0.078279
0.124461
0.0784794
0.105598
0.0636988
0.105808
0.0638675
0.0544052
0.054419
0.0545917
0.0546056
0.0418737
0.0418825
0.0420303
0.0420392
0.0783196
0.124291
0.0785204
0.124537
0.0637266
0.105655
0.0638956
0.105866
0.194757
0.22909
0.195079
0.229493
0.171441
0.202732
0.171721
0.20309
0.228101
0.194001
0.228535
0.194347
0.201865
0.17079
0.202252
0.171091
0.12375
0.0779114
0.124014
0.0781263
0.105196
0.0633868
0.105423
0.063568
0.0540719
0.0540855
0.0542717
0.0542853
0.0415919
0.0416005
0.0417599
0.0417686
0.0779515
0.123826
0.0781667
0.12409
0.0634143
0.105253
0.0635957
0.10548
0.194128
0.228289
0.194474
0.228724
0.170891
0.202018
0.171193
0.202405
0.227234
0.193322
0.227702
0.193694
0.201091
0.170196
0.201508
0.17052
0.123248
0.0775135
0.12353
0.0777436
0.104762
0.0630489
0.105005
0.0632431
0.0537109
0.0537242
0.0539245
0.053938
0.0412863
0.0412947
0.0414662
0.0414748
0.077553
0.123322
0.0777834
0.123606
0.0630758
0.104818
0.0632704
0.105062
0.193448
0.227421
0.19382
0.22789
0.170296
0.201243
0.17062
0.20166
0.226296
0.192592
0.2268
0.192989
0.200253
0.169556
0.200702
0.169903
0.122706
0.0770842
0.123008
0.0773299
0.104293
0.0626839
0.104554
0.0628916
0.0533209
0.053334
0.053549
0.0535623
0.0409559
0.0409641
0.0411482
0.0411565
0.0771231
0.12278
0.0773692
0.123083
0.0627103
0.104349
0.0629184
0.10461
0.192717
0.226482
0.193114
0.226986
0.169655
0.200404
0.170002
0.200853
0.225286
0.191806
0.225827
0.192231
0.19935
0.168868
0.199832
0.169239
0.122123
0.0766223
0.122446
0.0768843
0.103789
0.062291
0.104067
0.0625127
0.0529012
0.052914
0.0531442
0.0531571
0.0405999
0.0406078
0.0408049
0.0408131
0.0766605
0.122196
0.0769229
0.12252
0.0623169
0.103844
0.0625389
0.104123
0.19193
0.22547
0.192356
0.226011
0.168966
0.199499
0.169337
0.199982
0.224204
0.190964
0.22478
0.191417
0.198379
0.168131
0.198895
0.168527
0.121499
0.0761275
0.121842
0.0764058
0.103249
0.0618697
0.103545
0.0621055
0.052451
0.0524635
0.0527091
0.0527218
0.0402177
0.0402255
0.0404358
0.0404437
0.076165
0.121571
0.0764438
0.121915
0.061895
0.103303
0.0621311
0.1036
0.191086
0.224387
0.19154
0.224964
0.168228
0.198527
0.168624
0.199044
0.22305
0.190073
0.223663
0.19055
0.19734
0.16734
0.197889
0.167763
0.120835
0.0755996
0.121198
0.0758944
0.102671
0.0614193
0.102986
0.0616696
0.0519698
0.051982
0.0522433
0.0522557
0.0398091
0.0398165
0.0400403
0.0400479
0.0756363
0.120906
0.0759316
0.12127
0.061444
0.102724
0.0616946
0.103039
0.190194
0.223231
0.190672
0.223845
0.167436
0.197487
0.16786
0.198037
0.221821
0.189127
0.222471
0.189632
0.196236
0.166499
0.196818
0.166946
0.120129
0.0750378
0.120513
0.0753494
0.102056
0.0609402
0.102389
0.0612046
0.0514574
0.0514693
0.0517463
0.0517584
0.0393739
0.0393811
0.0396182
0.0396255
0.0750738
0.120199
0.0753858
0.120584
0.0609642
0.102108
0.061229
0.102442
0.189246
0.222
0.189752
0.222651
0.166594
0.196382
0.167041
0.196964
0.220519
0.188123
0.221204
0.188656
0.195068
0.16561
0.195682
0.166081
0.11938
0.0744427
0.119786
0.0747707
0.101405
0.0604329
0.101756
0.0607111
0.0509142
0.0509257
0.0512182
0.0512299
0.0389128
0.0389196
0.0391698
0.0391768
0.0744778
0.119449
0.0748063
0.119855
0.0604561
0.101456
0.0607348
0.101808
0.188241
0.220696
0.188775
0.221383
0.165704
0.195212
0.166175
0.195826
0.219148
0.187066
0.219867
0.187625
0.193839
0.164676
0.194482
0.165169
0.118592
0.0738154
0.119017
0.0741591
0.10072
0.0598985
0.101088
0.0601899
0.0503411
0.0503523
0.0506597
0.0506711
0.0384268
0.0384333
0.0386959
0.0387025
0.0738496
0.11866
0.0741938
0.119085
0.0599211
0.100771
0.0602129
0.101139
0.187182
0.219323
0.187742
0.220043
0.164768
0.193982
0.165262
0.194626
0.217712
0.185959
0.218463
0.186543
0.192552
0.163698
0.193224
0.164213
0.117766
0.0731578
0.118209
0.0735161
0.100003
0.0593387
0.100386
0.0596425
0.04974
0.0497508
0.0500721
0.0500832
0.0379174
0.0379235
0.0381977
0.0382041
0.073191
0.117832
0.0735499
0.118276
0.0593605
0.100052
0.0596647
0.100436
0.186073
0.217886
0.186658
0.218637
0.163789
0.192693
0.164304
0.193365
0.216218
0.184804
0.216997
0.185411
0.191213
0.162676
0.191909
0.163212
0.116904
0.0724724
0.117365
0.072844
0.0992541
0.0587557
0.0996526
0.0590705
0.0491133
0.0491237
0.0494576
0.0494683
0.0373869
0.0373926
0.0376772
0.0376832
0.0725047
0.116969
0.0728769
0.11743
0.0587766
0.0993024
0.0590919
0.0997015
0.184917
0.21639
0.185525
0.21717
0.162765
0.191352
0.163302
0.192049
0.214675
0.183609
0.215477
0.184235
0.189831
0.161619
0.190547
0.162171
0.116013
0.0717631
0.116487
0.072146
0.0984805
0.058153
0.0988908
0.058477
0.0484641
0.0484741
0.048819
0.0488292
0.0368381
0.0368434
0.037137
0.0371426
0.0717943
0.116076
0.0721778
0.116552
0.058173
0.0985277
0.0584976
0.0989385
0.183721
0.214844
0.184347
0.215647
0.161708
0.189968
0.16226
0.190686
0.213091
0.182382
0.213912
0.183023
0.188414
0.160536
0.189147
0.1611
0.115096
0.0710337
0.115582
0.0714259
0.097686
0.0575339
0.0981061
0.0578655
0.0477962
0.0478057
0.0481597
0.0481695
0.0362742
0.0362792
0.03658
0.0365852
0.0710639
0.115158
0.0714566
0.115645
0.0575531
0.0977321
0.0578852
0.0981528
0.182491
0.213257
0.183133
0.21408
0.160623
0.18855
0.161188
0.189283
0.211475
0.181128
0.212311
0.181781
0.18697
0.159431
0.187715
0.160005
0.11416
0.0702888
0.114655
0.0706879
0.0968749
0.0569023
0.0973026
0.0572395
0.0471139
0.047123
0.0474838
0.0474931
0.0356991
0.0357037
0.0360098
0.0360146
0.0703179
0.114221
0.0707176
0.114717
0.0569206
0.0969199
0.0572583
0.0973481
0.181236
0.21164
0.18189
0.212477
0.159516
0.187104
0.160091
0.18785
0.209839
0.179855
0.210684
0.180517
0.185508
0.15831
0.186262
0.158891
0.113209
0.069533
0.11371
0.0699367
0.0960516
0.0562622
0.0964847
0.0566029
0.0464219
0.0464305
0.0467958
0.0468046
0.0351171
0.0351212
0.0354304
0.0354348
0.069561
0.113268
0.0699653
0.113771
0.0562796
0.0960954
0.0566208
0.0965291
0.179961
0.210001
0.180623
0.210847
0.158394
0.18564
0.158976
0.186394
0.208187
0.178566
0.209039
0.179235
0.184034
0.157175
0.184793
0.157763
0.112247
0.0687699
0.112753
0.0691768
0.0952191
0.0556171
0.0956564
0.0559597
0.0457243
0.0457324
0.0461003
0.0461087
0.034532
0.0345357
0.0348462
0.0348501
0.0687968
0.112304
0.0692043
0.112812
0.0556336
0.0952618
0.0559767
0.0956997
0.17867
0.208346
0.17934
0.209199
0.157258
0.184164
0.157846
0.184924
0.206516
0.177258
0.207379
0.177938
0.182547
0.156025
0.183313
0.156621
0.111269
0.067998
0.111785
0.0684098
0.0943765
0.0549675
0.0948193
0.0553125
0.0450211
0.0450288
0.0454001
0.045408
0.0339457
0.033949
0.0342604
0.0342639
0.0680238
0.111326
0.0684362
0.111842
0.0549831
0.0944179
0.0553286
0.0948615
0.17736
0.206674
0.178041
0.207537
0.156106
0.182675
0.156703
0.183442
0.204797
0.1759
0.20569
0.176611
0.181025
0.154839
0.181813
0.155458
0.110254
0.0672007
0.110793
0.0676285
0.0935075
0.0543028
0.0939669
0.0546576
0.0443008
0.0443079
0.0446908
0.0446982
0.0333517
0.0333545
0.0336716
0.0336747
0.0672252
0.110309
0.0676537
0.110849
0.0543174
0.0935477
0.0546727
0.0940078
0.175999
0.204951
0.176712
0.205846
0.154918
0.18115
0.155538
0.18194
0.20294
0.174412
0.203917
0.175202
0.179396
0.153553
0.18025
0.154233
0.109134
0.0663267
0.109738
0.0668022
0.0925616
0.0535861
0.0930688
0.0539737
0.0435214
0.043528
0.0439488
0.0439557
0.0327224
0.0327248
0.0330653
0.0330679
0.06635
0.109187
0.0668262
0.109791
0.0535997
0.0926004
0.0539879
0.0931083
0.174509
0.203091
0.1753
0.20407
0.15363
0.179519
0.154311
0.180375
0.200765
0.172621
0.201932
0.173592
0.177506
0.152025
0.178517
0.15285
0.107762
0.0652542
0.108517
0.06585
0.0914211
0.0527257
0.0920459
0.0532013
0.0425759
0.0425818
0.0431051
0.0431114
0.0319816
0.0319834
0.0323939
0.0323961
0.0652758
0.107812
0.0658726
0.108569
0.0527381
0.0914581
0.0532144
0.0920839
0.172715
0.200912
0.173687
0.202081
0.1521
0.177626
0.152926
0.178638
0.197957
0.170194
0.199487
0.171539
0.17508
0.149971
0.176401
0.151108
0.105833
0.0637305
0.106918
0.0645941
0.0898362
0.0515218
0.0907268
0.0522033
0.0412409
0.0412458
0.0420011
0.0420066
0.0309589
0.03096
0.0315407
0.0315422
0.0637499
0.105881
0.0646147
0.106967
0.0515325
0.0898709
0.052215
0.0907627
0.170284
0.198098
0.171631
0.199631
0.150042
0.175195
0.151181
0.176519
0.194194
0.166352
0.196214
0.168558
0.171782
0.146687
0.173564
0.148582
0.102682
0.0612921
0.1045
0.062685
0.0872252
0.0495789