/*--------------------------------*- C++ -*----------------------------------*\
  =========                 |
  \\      /  F ield         | OpenFOAM: The Open Source CFD Toolbox
   \\    /   O peration     | Website:  https://openfoam.org
    \\  /    A nd           | Version:  9
     \\/     M anipulation  |
\*---------------------------------------------------------------------------*/
FoamFile
{
    format      ascii;
    class       volScalarField;
    location    "4.3";
    object      epsilon;
}
// * * * * * * * * * * * * * * * * * * * * * * * * * * * * * * * * * * * * * //

dimensions      [0 2 -3 0 0 0 0];

internalField   nonuniform List<scalar> 
36360
(
0.510281
0.414519
0.281696
0.244236
0.31126
0.250808
0.0717549
0.0863555
0.188309
0.0881602
0.0848889
0.0267046
0.109303
0.0408438
0.0227899
0.0090318
0.0507538
0.0507279
0.0120353
0.0120285
0.0232894
0.0232843
0.00587084
0.00587055
0.0880663
0.18812
0.0266626
0.0847707
0.0408077
0.109173
0.00902789
0.0227575
0.41424
0.509998
0.244024
0.281468
0.250517
0.310862
0.0862234
0.0716146
0.836462
0.689392
0.686992
0.559497
0.785648
0.626122
0.555524
0.434766
0.39677
0.252955
0.292628
0.166203
0.385307
0.258066
0.236584
0.133379
0.194431
0.194377
0.116376
0.116335
0.207266
0.207216
0.0927883
0.0927638
0.252782
0.396471
0.166067
0.29238
0.257891
0.384945
0.133277
0.236341
0.688998
0.836085
0.559156
0.686658
0.625499
0.784822
0.434311
0.554908
1.10341
0.931251
0.973922
0.812656
1.23574
1.02276
1.01095
0.822446
0.603789
0.436591
0.500732
0.343943
0.717568
0.553272
0.547067
0.40015
0.366144
0.366068
0.278826
0.27876
0.484993
0.484893
0.340216
0.340141
0.43636
0.603408
0.343739
0.500388
0.55295
0.716965
0.399901
0.546583
0.930772
1.10298
0.812216
0.973511
1.0218
1.23449
0.821652
1.00991
1.34437
1.15577
1.22679
1.04572
1.67803
1.42488
1.45856
1.22424
0.804256
0.620957
0.705308
0.529423
1.06959
0.875609
0.892655
0.712756
0.542265
0.542174
0.454521
0.454437
0.792859
0.792714
0.636881
0.636758
0.620686
0.803818
0.52917
0.704895
0.875154
1.06877
0.712365
0.891941
1.15523
1.3439
1.04521
1.22633
1.42363
1.67642
1.22313
1.45711
1.56222
1.36157
1.45632
1.26126
2.09785
1.81335
1.89147
1.62167
0.99213
0.796891
0.900179
0.710489
1.41765
1.19969
1.24513
1.03852
0.712133
0.712033
0.628541
0.628445
1.10523
1.10505
0.949595
0.94943
0.796595
0.991661
0.710203
0.899723
1.19913
1.41666
1.03801
1.24422
1.36102
1.56177
1.26071
1.45585
1.81187
2.09594
1.6203
1.88969
1.75601
1.54622
1.66224
1.45673
2.48304
2.17416
2.29505
1.99759
1.16312
0.95884
1.08002
0.879953
1.74595
1.50875
1.58479
1.35669
0.869526
0.869421
0.792758
0.792655
1.40495
1.40475
1.25729
1.25709
0.958531
1.16264
0.879649
1.07954
1.50811
1.74483
1.35608
1.58373
1.54567
1.75558
1.45617
1.6618
2.17251
2.48091
1.99601
2.29301
1.92547
1.70866
1.84385
1.63034
2.82736
2.49956
2.66026
2.34132
1.3151
1.10391
1.24168
1.03372
2.04528
1.79275
1.89939
1.65411
1.01114
1.01103
0.942559
0.942453
1.68156
1.68133
1.5464
1.54618
1.1036
1.31462
1.03341
1.2412
1.79205
2.04407
1.65343
1.89822
1.70812
1.92508
1.62979
1.84344
2.49778
2.82507
2.33959
2.65803
2.07136
1.84899
2.00142
1.78166
3.12901
2.78656
2.98325
2.64766
1.44754
1.2311
1.3839
1.16991
2.3114
2.04667
2.1824
1.92344
1.1357
1.13559
1.07573
1.07563
1.92963
1.92938
1.80915
1.80892
1.23079
1.44707
1.1696
1.38343
2.04592
2.31012
1.92271
2.18116
1.84848
2.07102
1.78113
2.00105
2.78469
3.1266
2.64582
2.98089
2.19499
1.96832
2.13599
1.91134
3.38848
3.0347
3.26362
2.91514
1.56093
1.34051
1.50673
1.28817
2.54295
2.26857
2.43125
2.16143
1.2431
1.243
1.19169
1.19158
2.14692
2.14667
2.04194
2.04169
1.3402
1.56046
1.28786
1.50626
2.2678
2.54163
2.16067
2.42995
1.96783
2.19469
1.91083
2.13567
3.03277
3.38599
2.91322
3.26115
2.29817
2.06823
2.24918
2.02077
3.60803
3.24549
3.50278
3.14432
1.6564
1.43301
1.61101
1.389
2.74068
2.45873
2.6457
2.36731
1.33411
1.33401
1.29079
1.29068
2.33351
2.33325
2.24376
2.24351
1.43271
1.65595
1.38869
1.61055
2.45794
2.73932
2.36653
2.64436
2.06776
2.29792
2.02029
2.2489
3.24351
3.60547
3.14236
3.50023
2.38277
2.15037
2.34284
2.11159
3.79051
3.42128
3.70337
3.33724
1.73535
1.5098
1.69805
1.47349
2.90634
2.61856
2.8271
2.54206
1.40981
1.40971
1.374
1.3739
2.49059
2.49033
2.41538
2.41512
1.5095
1.73492
1.47319
1.69761
2.61776
2.90496
2.54126
2.82574
2.14993
2.38256
2.11113
2.34261
3.41927
3.78791
3.33524
3.70078
2.45072
2.21656
2.41891
2.18555
3.93931
3.56504
3.86859
3.49664
1.79935
1.57229
1.76935
1.54297
3.04241
2.75024
2.97764
2.68751
1.47153
1.47143
1.44256
1.44246
2.62018
2.61991
2.55843
2.55816
1.572
1.79893
1.54268
1.76892
2.74942
3.04103
2.6867
2.97626
2.21614
2.45055
2.18512
2.41871
3.56301
3.93668
3.49461
3.86596
2.5038
2.26845
2.47921
2.24439
4.05769
3.67974
4.00175
3.62547
1.84992
1.62189
1.82645
1.59885
3.15151
2.85613
3.09988
2.80598
1.52061
1.52052
1.4978
1.4977
2.72453
2.72426
2.67509
2.67482
1.62161
1.84951
1.59857
1.82604
2.85531
3.15012
2.80516
3.09849
2.26805
2.50366
2.24398
2.47905
3.6777
4.05504
3.62343
3.99909
2.54374
2.30769
2.52553
2.28977
4.14895
3.76845
4.10617
3.7268
1.88854
1.66
1.87088
1.64255
3.23636
2.93877
3.19651
2.89993
1.55844
1.55834
1.5411
1.54101
2.8061
2.80583
2.76774
2.76746
1.65973
1.88814
1.64227
1.87048
2.93795
3.23496
2.89911
3.19511
2.30732
2.54363
2.28939
2.5254
3.76641
4.14629
3.72475
4.10349
2.57202
2.33572
2.55947
2.32325
4.21602
3.83391
4.18498
3.80356
1.91657
1.68793
1.90406
1.67543
3.29951
3.00057
3.2702
2.97185
1.58628
1.58618
1.5738
1.5737
2.86724
2.86697
2.83881
2.83854
1.68766
1.91618
1.67516
1.90367
2.99975
3.29811
2.97103
3.2688
2.33536
2.57194
2.32288
2.55938
3.83187
4.21335
3.80151
4.18229
2.59001
2.35386
2.58246
2.34619
4.26162
3.87874
4.24099
3.85839
1.93525
1.70684
1.92727
1.69871
3.34332
3.04377
3.32339
3.02407
1.60527
1.60518
1.59708
1.59699
2.91015
2.90988
2.89056
2.89029
1.70658
1.93487
1.69845
1.9269
3.04295
3.34192
3.02325
3.32199
2.35352
2.58996
2.34584
2.58239
3.8767
4.25896
3.85634
4.2383
2.59889
2.36326
2.59577
2.35984
4.28816
3.90522
4.27678
3.89377
1.94566
1.71779
1.9417
1.71353
3.36993
3.07044
3.35835
3.05877
1.61644
1.61635
1.61205
1.61196
2.93684
2.93657
2.92512
2.92485
1.71753
1.9453
1.71327
1.94134
3.06963
3.36855
3.05795
3.35696
2.36294
2.59886
2.35951
2.59573
3.90319
4.28551
3.89173
4.2741
2.59969
2.3649
2.60048
2.36525
4.29758
3.91527
4.29458
3.91185
1.94875
1.72167
1.94836
1.72085
3.38123
3.08242
3.37709
3.07788
1.6207
1.62061
1.61967
1.61959
2.94911
2.94884
2.94439
2.94412
1.72143
1.94839
1.7206
1.948
3.08161
3.37985
3.07707
3.37571
2.36459
2.59968
2.36493
2.60046
3.91326
4.29494
3.90982
4.29192
2.59339
2.35981
2.59766
2.36343
4.29234
3.9111
4.29642
3.91449
1.94551
1.71947
1.94816
1.72155
3.3791
3.08137
3.38131
3.083
1.61895
1.61886
1.62077
1.62069
2.94856
2.9483
2.94993
2.94967
1.71922
1.94517
1.7213
1.94781
3.08058
3.37774
3.0822
3.37995
2.35951
2.5934
2.36313
2.59766
3.9091
4.28972
3.91249
4.29377
2.5805
2.34844
2.58798
2.35512
4.27305
3.89349
4.28393
3.90348
1.93637
1.7116
1.94193
1.7165
3.36456
3.06851
3.37303
3.07615
1.61167
1.61159
1.61627
1.61618
2.93647
2.93621
2.94372
2.94346
1.71137
1.93603
1.71626
1.94159
3.06773
3.36322
3.07536
3.37168
2.34816
2.58053
2.35483
2.588
3.89152
4.27046
3.9015
4.28131
2.56172
2.3315
2.57208
2.3409
4.24148
3.86408
4.25839
3.87983
1.92202
1.69875
1.93012
1.70607
3.33903
3.04504
3.35281
3.05774
1.59951
1.59942
1.60647
1.60639
2.91393
2.91368
2.92615
2.92589
1.69852
1.92169
1.70584
1.92979
3.04426
3.3377
3.05696
3.35147
2.33123
2.56176
2.34063
2.57211
3.86214
4.23893
3.87787
4.2558
2.53752
2.30946
2.55055
2.32137
4.19859
3.8238
4.22105
3.84488
1.90293
1.68136
1.91335
1.6909
3.30343
3.01192
3.32214
3.02935
1.5829
1.58282
1.59204
1.59196
2.88195
2.88169
2.89879
2.89854
1.68113
1.90261
1.69067
1.91303
3.01116
3.30213
3.02858
3.32083
2.3092
2.53757
2.3211
2.55059
3.82189
4.19608
3.84295
4.2185
2.50828
2.28272
2.52378
2.29694
4.14518
3.77345
4.17281
3.79948
1.87946
1.6598
1.89203
1.67139
3.25854
2.9699
3.28182
2.9917
1.56222
1.56215
1.57336
1.57328
2.84123
2.84099
2.86236
2.86211
1.65958
1.87915
1.67117
1.89172
2.96915
3.25727
2.99095
3.28053
2.28247
2.50834
2.29668
2.52384
3.77158
4.14272
3.79759
4.1703
2.47429
2.25155
2.49214
2.26795
4.08192
3.71367
4.11441
3.74435
1.85192
1.63435
1.86649
1.64785
3.20498
2.91958
3.23253
2.94547
1.53775
1.53768
1.55076
1.55068
2.79239
2.79215
2.81752
2.81728
1.63414
1.85162
1.64764
1.86619
2.91885
3.20373
2.94473
3.23127
2.25131
2.47435
2.2677
2.4922
3.71184
4.07951
3.7425
4.11195
2.43579
2.21621
2.45587
2.23467
4.00933
3.64499
4.04643
3.68007
1.82052
1.60524
1.83699
1.62055
3.14322
2.86143
3.17482
2.89119
1.50971
1.50963
1.52447
1.5244
2.73588
2.73564
2.7648
2.76456
1.60503
1.82022
1.62034
1.8367
2.86071
3.14201
2.89047
3.17359
2.21598
2.43586
2.23443
2.45593
3.6432
4.00698
3.67826
4.04403
2.39298
2.17687
2.41519
2.1973
3.92783
3.5678
3.96935
3.6071
1.78543
1.57263
1.80373
1.58967
3.07366
2.79582
3.10913
2.82928
1.47825
1.47817
1.4947
1.49462
2.67207
2.67184
2.70461
2.70438
1.57243
1.78515
1.58947
1.80344
2.79512
3.07248
2.82857
3.10793
2.17664
2.39305
2.19707
2.41526
3.56606
3.92554
3.60533
3.96701
2.346
2.13367
2.37027
2.15601
3.83775
3.48242
3.88354
3.52579
1.74679
1.53665
1.76685
1.55536
2.99659
2.72303
3.03579
2.76006
1.44349
1.44342
1.46157
1.4615
2.60123
2.60101
2.63726
2.63704
1.53645
1.74651
1.55516
1.76657
2.72236
2.99544
2.75937
3.03462
2.13345
2.34607
2.15579
2.37034
3.48073
3.83552
3.52407
3.88126
2.295
2.08674
2.32126
2.11093
3.73937
3.38914
3.78929
3.43644
1.70469
1.49737
1.72647
1.51771
2.91224
2.64329
2.95506
2.68378
1.40552
1.40545
1.4252
1.42513
2.52358
2.52337
2.563
2.56279
1.49717
1.70442
1.51752
1.72619
2.64263
2.91112
2.68311
2.95393
2.08653
2.29506
2.11072
2.32133
3.3875
3.73722
3.43477
3.78708
2.24009
2.03616
2.26828
2.06216
3.63292
3.28814
3.68686
3.33929
1.6592
1.45485
1.68266
1.4768
2.82077
2.55675
2.86714
2.60063
1.36438
1.36432
1.38563
1.38557
2.43929
2.43908
2.48203
2.48181
1.45466
1.65894
1.47661
1.68239
2.55612
2.81969
2.59998
2.86604
2.03595
2.24015
2.06195
2.26834
3.28655
3.63083
3.33768
3.68472
2.18138
1.98201
2.21145
2.00978
3.51857
3.17956
3.57645
3.23449
1.61037
1.40914
1.63549
1.43268
2.72234
2.46356
2.77219
2.51076
1.32012
1.32005
1.34292
1.34286
2.3485
2.34829
2.39448
2.39427
1.40895
1.61011
1.43249
1.63523
2.46295
2.72129
2.51013
2.77113
1.9818
2.18143
2.00957
2.21151
3.17803
3.51655
3.23293
3.57438
2.11898
1.92434
2.15088
1.95386
3.39653
3.0637
3.45823
3.12222
1.55823
1.36024
1.58499
1.38536
2.61708
2.36383
2.67033
2.41429
1.27274
1.27267
1.29709
1.29703
2.25131
2.25111
2.30048
2.30028
1.36006
1.55798
1.38518
1.58474
2.36324
2.61607
2.41369
2.6693
1.92414
2.11903
1.95365
2.15093
3.06222
3.39458
3.12071
3.45624
2.05301
1.86321
2.08667
1.89444
3.26695
2.94076
3.33243
3.00286
1.50281
1.30819
1.5312
1.33488
2.5051
2.25767
2.56172
2.31135
1.22225
1.22218
1.24815
1.24808
2.14784
2.14765
2.20015
2.19996
1.30801
1.50256
1.3347
1.53095
2.2571
2.50413
2.31076
2.56073
1.86301
2.05304
1.89423
2.08671
2.93934
3.26508
3.0014
3.33051
1.98357
1.79871
2.01894
1.83161
3.12989
2.81072
3.19911
2.87637
1.44413
1.25296
1.47414
1.28123
2.38647
2.14515
2.44642
2.20201
1.16864
1.16857
1.19609
1.19603
2.03817
2.03799
2.09358
2.0934
1.25278
1.44389
1.28105
1.47389
2.1446
2.38554
2.20145
2.44547
1.79851
1.9836
1.8314
2.01897
2.80936
3.1281
2.87497
3.19727
1.91081
1.7309
1.94782
1.76543
2.98541
2.67372
3.05835
2.74285
1.38221
1.19455
1.41382
1.2244
2.26127
2.02635
2.3245
2.08635
1.11188
1.11182
1.1409
1.14084
1.92237
1.9222
1.98085
1.98068
1.19438
1.38197
1.22422
1.41358
2.02583
2.26037
2.08582
2.32359
1.7307
1.91082
1.76523
1.94783
2.67241
2.9837
2.74151
3.05659
1.83497
1.65994
1.87346
1.69601
2.8336
2.53
2.9102
2.60246
1.31708
1.13292
1.35028
1.16438
2.12958
1.90131
2.19606
1.96444
1.0519
1.05184
1.08253
1.08247
1.80046
1.8003
1.86202
1.86185
1.13275
1.31684
1.16421
1.35004
1.90081
2.12873
1.96393
2.19518
1.65974
1.83496
1.6958
1.87346
2.52875
2.83197
2.60118
2.90852
1.75666
1.58618
1.79625
1.62357
2.67484
2.38008
2.75484
2.45555
1.24879
1.06793
1.28356
1.10108
1.9915
1.76989
2.06118
1.83626
0.988483
0.988426
1.02087
1.02081
1.67222
1.67206
1.737
1.73684
1.06777
1.24855
1.10092
1.28332
1.76942
1.9907
1.83578
2.06035
1.58598
1.75664
1.62337
1.79624
2.3789
2.6733
2.45434
2.75325
1.6778
1.51033
1.71726
1.54865
2.51103
2.22524
2.59312
2.30296
1.17711
0.999025
1.21363
1.03425
1.84675
1.63143
1.91987
1.70148
0.921003
0.920947
0.955526
0.955469
1.53695
1.5368
1.60538
1.60524
0.998866
1.17688
1.03409
1.2134
1.631
1.84601
1.70103
1.9191
1.51013
1.67777
1.54845
1.71723
2.22414
2.5096
2.30183
2.59163
1.60544
1.43172
1.64002
1.47185
2.35152
2.06651
2.42925
2.14637
1.09972
0.924276
1.1397
0.962792
1.69269
1.48395
1.77116
1.55888
0.848015
0.847962
0.885515
0.88546
1.39343
1.3933
1.46615
1.46601
0.924123
1.0995
0.962636
1.13947
1.48356
1.69202
1.55847
1.77045
1.43152
1.6054
1.47165
1.63998
2.06552
2.35023
2.14533
2.42788
1.57713
1.324
1.58057
1.38741
2.2205
1.86809
2.28269
1.97967
1.00454
0.839289
1.05603
0.883554
1.51679
1.32511
1.6087
1.40573
0.767528
0.767477
0.808984
0.808933
1.2425
1.24239
1.31843
1.31832
0.839145
1.00433
0.883406
1.05582
1.32477
1.51621
1.40536
1.60808
1.3238
1.57707
1.38721
1.58052
1.86724
2.21938
1.97874
2.28147
0.766398
0.628694
0.520863
0.430762
0.655278
0.53284
0.417364
0.345451
0.350051
0.206582
0.205191
0.100263
0.274023
0.147902
0.146191
0.0606294
0.14719
0.147127
0.0606928
0.0606504
0.0977888
0.097743
0.030662
0.0306383
0.206385
0.349725
0.100114
0.204906
0.147752
0.27376
0.060534
0.145987
0.628306
0.766067
0.430369
0.520484
0.532503
0.65497
0.345142
0.417052
1.10061
0.927875
0.951577
0.790882
0.979081
0.816199
0.833781
0.685495
0.605149
0.425557
0.483117
0.317001
0.504234
0.338308
0.392876
0.242296
0.346471
0.346394
0.245542
0.245469
0.267497
0.26743
0.179689
0.17963
0.425332
0.604814
0.316783
0.482778
0.338105
0.503913
0.242114
0.392577
0.927535
1.10037
0.79051
0.951288
0.815836
0.978794
0.685138
0.833477
1.34576
1.16149
1.2301
1.05025
1.22483
1.04572
1.10756
0.935258
0.825177
0.631186
0.718928
0.530709
0.711967
0.527645
0.610521
0.434004
0.543386
0.54331
0.4465
0.446422
0.446572
0.446495
0.357341
0.357267
0.630972
0.824883
0.530486
0.718609
0.52742
0.711631
0.433787
0.610188
1.16125
1.34568
1.04995
1.22993
1.04538
1.22461
0.934899
1.10729
1.54668
1.358
1.45076
1.26377
1.43431
1.24626
1.33339
1.14924
1.01749
0.816866
0.924712
0.7268
0.900792
0.705787
0.808867
0.61857
0.724623
0.724556
0.636429
0.636357
0.61854
0.618461
0.534062
0.533983
0.816685
1.01726
0.726601
0.924449
0.705562
0.90047
0.618343
0.808535
1.35787
1.54676
1.26358
1.45075
1.24597
1.43417
1.14892
1.3332
1.71589
1.52563
1.63491
1.44522
1.61618
1.4226
1.52854
1.33744
1.18461
0.98088
1.10421
0.901743
1.07002
0.868195
0.988025
0.789258
0.886268
0.886214
0.808133
0.808073
0.776929
0.776853
0.699799
0.699721
0.98074
1.18446
0.901582
1.10402
0.867982
1.06973
0.789038
0.987717
1.52562
1.71614
1.44516
1.63507
1.42237
1.61616
1.33717
1.52846
1.85888
1.66836
1.7905
1.60002
1.77358
1.57627
1.69791
1.5023
1.3284
1.12337
1.25945
1.05492
1.21917
1.0128
1.14724
0.942924
1.02751
1.02747
0.959578
0.95953
0.918822
0.918752
0.850175
0.850101
1.12327
1.32833
1.0548
1.25933
1.01261
1.21892
0.942721
1.14697
1.66847
1.85928
1.60008
1.79083
1.57611
1.77366
1.5021
1.69793
1.9792
1.78902
1.92178
1.73141
1.90833
1.70852
1.84381
1.64511
1.45082
1.24545
1.39233
1.18705
1.34856
1.13912
1.28645
1.0784
1.14898
1.14895
1.09082
1.09079
1.04329
1.04322
0.983411
0.983344
1.24539
1.45082
1.18697
1.39229
1.13895
1.34835
1.07822
1.28622
1.78923
1.97974
1.73157
1.92226
1.70843
1.90852
1.64499
1.84394
2.07963
1.89005
2.03189
1.84199
2.02233
1.82092
1.96794
1.76726
1.5539
1.34876
1.50484
1.29954
1.4592
1.24771
1.40633
1.19577
1.25207
1.25205
1.20293
1.20291
1.1506
1.15055
1.09924
1.09918
1.34874
1.55396
1.29951
1.50487
1.24757
1.45904
1.19561
1.40614
1.89036
2.08029
1.84226
2.03249
1.8209
2.02262
1.7672
1.96818
2.16236
1.97356
2.1232
1.93401
2.11752
1.91507
2.07231
1.87033
1.63959
1.43502
1.599
1.39412
1.55242
1.33961
1.5081
1.29588
1.33836
1.33835
1.29742
1.29741
1.24165
1.2416
1.1983
1.19824
1.43503
1.63971
1.39412
1.59909
1.33949
1.55229
1.29574
1.50795
1.97395
2.16313
1.93436
2.12392
1.91511
2.1179
1.87034
2.07264
2.22953
2.04159
2.19792
2.00956
2.19586
1.99279
2.15886
1.95606
1.70986
1.50607
1.67676
1.47257
1.62981
1.41622
1.59321
1.37997
1.40959
1.40959
1.37598
1.37598
1.31771
1.31766
1.28169
1.28165
1.50611
1.71003
1.4726
1.6769
1.41611
1.62971
1.37985
1.59311
2.04206
2.23039
2.00999
2.19874
1.99289
2.19631
1.95613
2.15927
2.28297
2.09596
2.25801
2.07055
2.25911
2.05576
2.22944
2.0262
1.76646
1.5636
1.73999
1.53666
1.69292
1.47898
1.66328
1.44948
1.46742
1.46743
1.44032
1.44033
1.38016
1.38012
1.35078
1.35074
1.56367
1.76667
1.53671
1.74018
1.47889
1.69287
1.44938
1.66321
2.09649
2.28391
2.07104
2.25891
2.05591
2.25964
2.02632
2.22992
2.32437
2.13834
2.30525
2.11874
2.30903
2.10567
2.28584
2.08246
1.81108
1.60924
1.79041
1.58807
1.74335
1.52938
1.71988
1.50589
1.51344
1.51346
1.49207
1.49209
1.43043
1.4304
1.40699
1.40695
1.60933
1.81133
1.58814
1.79065
1.5293
1.74332
1.50581
1.71984
2.13892
2.32539
2.1193
2.30624
2.10585
2.30961
2.08263
2.28639
2.3552
2.1702
2.34119
2.15569
2.34712
2.14399
2.32966
2.12639
1.84516
1.64442
1.82959
1.62831
1.78252
1.56879
1.76452
1.55064
1.54906
1.54909
1.53273
1.53275
1.46987
1.46984
1.45169
1.45166
1.64453
1.84544
1.62841
1.82986
1.56873
1.78252
1.55057
1.7645
2.17082
2.35628
2.15629
2.34224
2.14422
2.34776
2.1266
2.33027
2.37679
2.19286
2.36725
2.1828
2.37484
2.17215
2.3624
2.15948
1.87005
1.67048
1.85893
1.65879
1.81179
1.59852
1.79859
1.58506
1.57561
1.57564
1.56367
1.5637
1.49975
1.49973
1.48621
1.48618
1.6706
1.87036
1.6589
1.85923
1.59847
1.81181
1.58501
1.79859
2.19353
2.37792
2.18345
2.36836
2.17241
2.37553
2.15972
2.36307
2.39024
2.20746
2.38465
2.20131
2.3934
2.19133
2.38541
2.18302
1.88688
1.68853
1.87967
1.68072
1.83233
1.61972
1.82336
1.6104
1.5942
1.59423
1.58611
1.58614
1.52122
1.5212
1.51176
1.51174
1.68867
1.88722
1.68085
1.87999
1.61968
1.83237
1.61036
1.82339
2.20816
2.39142
2.20199
2.38581
2.19162
2.39412
2.1833
2.38612
2.39656
2.21499
2.39442
2.21226
2.4039
2.20265
2.39982
2.19815
1.89668
1.6996
1.89287
1.69517
1.84522
1.63343
1.83996
1.62775
1.60584
1.60588
1.60111
1.60115
1.53529
1.53527
1.52941
1.5294
1.69976
1.89703
1.69531
1.89322
1.63341
1.84527
1.62772
1.84
2.21573
2.39777
2.21298
2.39562
2.20297
2.40466
2.19845
2.40057
2.39662
2.21634
2.39751
2.2166
2.40729
2.20703
2.40667
2.2059
1.90031
1.70456
1.89949
1.70309
1.85137
1.64057
1.84938
1.63807
1.6114
1.61144
1.60962
1.60966
1.54286
1.54284
1.54014
1.54012
1.70472
1.90068
1.70324
1.89985
1.64055
1.85144
1.63805
1.84944
2.21709
2.39787
2.21735
2.39874
2.20737
2.40807
2.20623
2.40744
2.39116
2.21226
2.39475
2.21516
2.40444
2.20533
2.40683
2.20713
1.89856
1.70417
1.90033
1.70527
1.85161
1.64191
1.85247
1.64222
1.61164
1.61169
1.61242
1.61247
1.54469
1.54468
1.54476
1.54474
1.70434
1.89894
1.70543
1.9007
1.6419
1.85168
1.64221
1.85254
2.21304
2.39243
2.21592
2.396
2.20569
2.40525
2.20747
2.40763
2.38072
2.20331
2.38673
2.20858
2.39594
2.1982
2.40109
2.20265
1.89199
1.69905
1.89612
1.70246
1.84663
1.6382
1.85003
1.64095
1.6072
1.60725
1.61026
1.61031
1.54158
1.54157
1.54403
1.54402
1.69922
1.89239
1.70263
1.89651
1.6382
1.84671
1.64095
1.85011
2.2041
2.38201
2.20936
2.38801
2.19857
2.39676
2.20302
2.40191
2.36582
2.19001
2.37401
2.1974
2.38236
2.18617
2.39
2.19302
1.88114
1.68969
1.88736
1.69517
1.83692
1.62988
1.84263
1.63489
1.59854
1.59859
1.60367
1.60372
1.5339
1.53389
1.53859
1.53858
1.68987
1.88154
1.69535
1.88776
1.62988
1.83701
1.63489
1.84273
2.19081
2.36712
2.1982
2.37531
2.18655
2.3832
2.19339
2.39083
2.34685
2.17277
2.35703
2.18209
2.36416
2.16973
2.37406
2.17873
1.86642
1.67653
1.87452
1.68386
1.82298
1.61745
1.83076
1.62447
1.58613
1.58618
1.59308
1.59313
1.52219
1.52218
1.52884
1.52883
1.67671
1.86683
1.68404
1.87493
1.61746
1.82308
1.62447
1.83086
2.17358
2.34815
2.18289
2.35833
2.17012
2.365
2.17912
2.3749
2.32412
2.15193
2.33614
2.163
2.34171
2.14926
2.35369
2.16023
1.84818
1.65992
1.85801
1.66894
1.80519
1.6013
1.81486
1.61014
1.5703
1.57035
1.57892
1.57897
1.50681
1.50681
1.51525
1.51525
1.66011
1.84859
1.66912
1.85841
1.60131
1.8053
1.61015
1.81496
2.15273
2.32542
2.16381
2.33744
2.14965
2.34256
2.16062
2.35454
2.29791
2.12775
2.31164
2.14046
2.31531
2.12505
2.32923
2.13786
1.8267
1.64013
1.83811
1.65071
1.78386
1.58173
1.79526
1.59224
1.55133
1.55138
1.56149
1.56154
1.48807
1.48807
1.49816
1.49816
1.64032
1.82711
1.65089
1.83852
1.58174
1.78397
1.59225
1.79537
2.12855
2.2992
2.14126
2.31294
2.12544
2.31616
2.13825
2.33008
2.26842
2.10044
2.28377
2.11469
2.28518
2.09734
2.30094
2.11188
1.80218
1.61739
1.81509
1.62941
1.7592
1.55896
1.77224
1.57104
1.52944
1.52949
1.54104
1.54109
1.4662
1.4662
1.47783
1.47783
1.61758
1.80259
1.6296
1.8155
1.55897
1.75932
1.57105
1.77235
2.10124
2.2697
2.11549
2.28505
2.09774
2.28602
2.11227
2.30179
2.23582
2.07019
2.2527
2.08589
2.25152
2.06633
2.26902
2.08249
1.77481
1.59185
1.78912
1.60525
1.73142
1.53318
1.74599
1.54674
1.50479
1.50485
1.51775
1.5178
1.44138
1.44138
1.45446
1.45446
1.59203
1.77521
1.60544
1.78953
1.53319
1.73153
1.54676
1.74611
2.07097
2.23708
2.08668
2.25397
2.06672
2.25235
2.08288
2.26986
2.20025
2.03712
2.21859
2.05421
2.21448
2.03216
2.23365
2.04988
1.7447
1.56364
1.76036
1.57836
1.70064
1.50452
1.71669
1.5195
1.47751
1.47756
1.49176
1.49182
1.41373
1.41373
1.42821
1.4282
1.56382
1.7451
1.57854
1.76076
1.50453
1.70076
1.51952
1.71681
2.03789
2.20149
2.05499
2.21984
2.03254
2.21529
2.05026
2.23447
2.16185
2.00136
2.18159
2.01978
2.17419
1.99494
2.19496
2.01417
1.71196
1.53285
1.72893
1.54884
1.66698
1.47308
1.68446
1.48944
1.44768
1.44773
1.46319
1.46324
1.38336
1.38336
1.39918
1.39918
1.53303
1.71235
1.54903
1.72932
1.47309
1.66709
1.48945
1.68457
2.00212
2.16306
2.02054
2.18282
1.99532
2.17499
2.01455
2.19577
2.12074
1.963
2.14181
1.9827
2.13078
1.95479
2.15309
1.97546
1.67668
1.49956
1.6949
1.51679
1.63052
1.43893
1.64938
1.45663
1.41537
1.41541
1.43211
1.43216
1.35033
1.35033
1.36747
1.36746
1.49973
1.67706
1.51697
1.69528
1.43894
1.63063
1.45665
1.64949
1.96374
2.12192
1.98345
2.14301
1.95515
2.13155
1.97583
2.15388
2.07705
1.92214
2.09939
1.94307
2.08436
1.91179
2.10816
1.93387
1.63891
1.46381
1.65836
1.48226
1.59131
1.40212
1.61154
1.42114
1.38061
1.38066
1.39856
1.39861
1.31468
1.31467
1.33311
1.33311
1.46398
1.63927
1.48243
1.65873
1.40213
1.59142
1.42116
1.61164
1.92286
2.0782
1.9438
2.10056
1.91214
2.08511
1.93423
2.10892
2.0309
1.87887
2.05445
1.90099
2.03506
1.86603
2.06028
1.88947
1.5987
1.42563
1.61935
1.44528
1.54942
1.36269
1.57097
1.38301
1.34344
1.34348
1.36259
1.36263
1.27643
1.27643
1.29616
1.29615
1.42579
1.59906
1.44545
1.61972
1.3627
1.54952
1.38302
1.57107
1.87956
2.03201
1.90169
2.05557
1.86637
2.03578
1.88981
2.06101
1.98243
1.83329
2.00712
1.85654
1.98299
1.81757
2.00956
1.84235
1.55613
1.38506
1.57795
1.4059
1.50488
1.32064
1.52774
1.34226
1.30386
1.30391
1.3242
1.32425
1.23561
1.2356
1.25661
1.25661
1.38521
1.55647
1.40605
1.5783
1.32065
1.50497
1.34227
1.52784
1.83396
1.98349
1.85722
2.0082
1.81789
1.98368
1.84268
2.01027
1.93177
1.78552
1.95752
1.80985
1.9283
1.76649
1.95616
1.79255
1.51123
1.34211
1.5342
1.36413
1.45772
1.276
1.48187
1.29891
1.2619
1.26194
1.28343
1.28347
1.1922
1.19219
1.21449
1.21448
1.34226
1.51155
1.36427
1.53453
1.27601
1.45779
1.29891
1.48196
1.78615
1.93278
1.8105
1.95856
1.7668
1.92896
1.79286
1.95683
1.87913
1.73567
1.90583
1.76101
1.87116
1.71292
1.90021
1.74021
1.46408
1.29682
1.48816
1.31999
1.40798
1.22878
1.43341
1.25296
1.21755
1.21759
1.24026
1.2403
1.14621
1.1462
1.16978
1.16977
1.29695
1.46438
1.32013
1.48847
1.22877
1.40805
1.25296
1.43349
1.73627
1.88009
1.76162
1.90682
1.71321
1.87178
1.7405
1.90085
1.82482
1.68397
1.8523
1.71019
1.81176
1.657
1.8419
1.68543
1.41477
1.2492
1.4399
1.27353
1.35573
1.17896
1.3824
1.20443
1.17081
1.17085
1.19471
1.19475
1.0976
1.09759
1.12247
1.12246
1.24932
1.41505
1.27365
1.44019
1.17895
1.35579
1.20443
1.38247
1.68454
1.82573
1.71077
1.85324
1.65726
1.81234
1.6857
1.8425
1.76937
1.63081
1.79733
1.65768
1.75052
1.59898
1.7815
1.6284
1.36347
1.19928
1.38956
1.22475
1.30106
1.12653
1.32892
1.15331
1.12162
1.12165
1.14675
1.14678
1.0463
1.04628
1.07252
1.07251
1.19939
1.36372
1.22486
1.38983
1.12652
1.3011
1.1533
1.32897
1.63133
1.77023
1.65823
1.79821
1.59922
1.75105
1.62865
1.78206
1.71395
1.57692
1.74167
1.60402
1.6883
1.5394
1.7196
1.5695
1.3104
1.14695
1.33734
1.17364
1.24406
1.07131
1.27306
1.09952
1.06972
1.06974
1.09624
1.09627
0.991999
0.991986
1.01977
1.01976
1.14704
1.31063
1.17374
1.33758
1.07129
1.24409
1.0995
1.2731
1.5774
1.71474
1.60453
1.74249
1.53961
1.68879
1.56972
1.72011
1.66161
1.5237
1.68717
1.55024
1.62758
1.47925
1.65762
1.50948
1.25555
1.09155
1.28343
1.11992
1.18454
1.01263
1.21487
1.04269
1.01424
1.01426
1.04272
1.04274
0.933921
0.933905
0.963718
0.963703
1.09162
1.25575
1.12001
1.28364
1.0126
1.18455
1.04266
1.21489
1.52413
1.66234
1.55071
1.68793
1.47943
1.62802
1.50967
1.65808
1.62308
1.47195
1.6393
1.49792
1.57744
1.41852
1.60008
1.44934
1.19659
1.0306
1.22715
1.06222
1.12004
0.94823
1.15349
0.981592
0.953065
0.953078
0.984742
0.984757
0.870228
0.870209
0.903133
0.903116
1.03066
1.19675
1.06229
1.22733
0.948189
1.12003
0.981556
1.15349
1.47233
1.62374
1.49833
1.63999
1.41866
1.57783
1.4495
1.60049
1.64964
1.39896
1.62151
1.44358
1.58577
1.33296
1.56778
1.38448
1.1209
0.958725
1.16255
0.996556
1.03799
0.873027
1.08293
0.912496
0.883276
0.883281
0.919536
0.919545
0.798311
0.798289
0.835585
0.835565
0.958759
1.12102
0.996602
1.16269
0.872975
1.03796
0.91245
1.08291
1.39927
1.65024
1.44393
1.62213
1.33305
1.5861
1.38459
1.56814
0.931914
0.777528
0.680441
0.569253
0.85638
0.70874
0.606851
0.504336
0.478422
0.315015
0.313258
0.183605
0.417735
0.262548
0.260965
0.141934
0.244287
0.244196
0.131011
0.130935
0.196588
0.196509
0.0950516
0.0949914
0.314744
0.478003
0.18336
0.312838
0.262311
0.417357
0.141734
0.260607
0.777075
0.931568
0.568732
0.679975
0.708313
0.856034
0.503872
0.60642
1.28503
1.10325
1.12711
0.953835
1.20092
1.0225
1.04723
0.878878
0.772092
0.579285
0.63208
0.449569
0.69417
0.506387
0.562356
0.386354
0.491559
0.491473
0.368145
0.368053
0.422052
0.421969
0.308977
0.308893
0.579043
0.77176
0.449305
0.631696
0.50615
0.693832
0.386108
0.561989
1.10297
1.28492
0.953462
1.12688
1.02219
1.20075
0.8785
1.04696
1.54102
1.35362
1.42125
1.23543
1.45087
1.2643
1.33362
1.14982
1.01848
0.817135
0.90068
0.70224
0.927945
0.729001
0.815776
0.621004
0.72335
0.723285
0.61072
0.610642
0.637367
0.637295
0.532244
0.532165
0.816962
1.01828
0.70203
0.900411
0.728806
0.927698
0.620784
0.815479
1.35355
1.54117
1.23525
1.42127
1.26414
1.4509
1.14958
1.33354
1.74333
1.5566
1.64772
1.46025
1.65099
1.46299
1.55604
1.3683
1.22561
1.02298
1.1267
0.924181
1.12738
0.924853
1.03176
0.83045
0.92731
0.92727
0.829131
0.829078
0.830194
0.83014
0.736963
0.7369
1.02289
1.22555
0.924049
1.12657
0.924717
1.12724
0.830283
1.03156
1.55674
1.74373
1.46028
1.648
1.46301
1.65125
1.36823
1.55619
1.90747
1.72349
1.82963
1.64416
1.81584
1.62885
1.73736
1.54971
1.39913
1.19809
1.3164
1.11437
1.29697
1.09406
1.21581
1.01285
1.10236
1.10234
1.01853
1.0185
0.998329
0.998295
0.917493
0.917449
1.19808
1.39921
1.11432
1.31642
1.09398
1.29695
1.01274
1.21573
1.72382
1.90811
1.6444
1.83016
1.62902
1.8163
1.5498
1.73772
2.04176
1.8611
1.97804
1.79572
1.95264
1.76751
1.88751
1.7014
1.54377
1.34544
1.47494
1.2752
1.44027
1.23838
1.37185
1.16935
1.25043
1.25044
1.17977
1.17977
1.14253
1.14252
1.07348
1.07346
1.3455
1.54398
1.27523
1.47509
1.23836
1.44035
1.16931
1.37188
1.8616
2.0426
1.79614
1.97878
1.76783
1.95328
1.70165
1.88806
2.15159
1.97425
2.09955
1.92059
2.06597
1.88295
2.0121
1.82804
1.66363
1.46831
1.60674
1.40992
1.56044
1.36016
1.50323
1.30212
1.37437
1.3744
1.31543
1.31545
1.26467
1.26467
1.20641
1.20641
1.46844
1.66394
1.41002
1.607
1.36021
1.56061
1.30213
1.50336
1.97489
2.1526
1.92116
2.10048
1.8834
2.06677
1.82843
2.01282
2.24094
2.06668
2.19873
2.02298
2.15927
1.97834
2.11506
1.93312
1.76221
1.5699
1.71558
1.52179
1.66033
1.46191
1.61295
1.4136
1.47713
1.47718
1.42844
1.42848
1.36699
1.36701
1.31837
1.31839
1.57008
1.76261
1.52195
1.71593
1.462
1.66058
1.41366
1.61315
2.06744
2.24209
2.02368
2.19982
1.9789
2.16021
1.93362
2.11594
2.31278
2.14134
2.27899
2.10619
2.23516
2.05623
2.19936
2.01946
1.84243
1.65299
1.80465
1.61381
1.74243
1.54592
1.70365
1.5062
1.56141
1.56147
1.52164
1.5217
1.45169
1.45172
1.41163
1.41165
1.65322
1.84291
1.61402
1.80508
1.54604
1.74274
1.50631
1.70394
2.1422
2.31405
2.107
2.2802
2.05689
2.23622
2.02007
2.20036
2.36966
2.20078
2.34308
2.17297
2.29598
2.11893
2.26746
2.08951
1.90687
1.72011
1.87669
1.68864
1.80901
1.61439
1.77774
1.5822
1.62967
1.62975
1.59763
1.59771
1.5209
1.52094
1.48834
1.48838
1.72038
1.90741
1.68888
1.8772
1.61455
1.80938
1.58234
1.77808
2.20173
2.37104
2.17387
2.34441
2.11967
2.29714
2.0902
2.26857
2.41364
2.24708
2.39327
2.2256
2.34364
2.16837
2.32148
2.14535
1.95769
1.77342
1.93407
1.7486
1.86204
1.66927
1.83732
1.64365
1.68406
1.68416
1.65872
1.6588
1.57653
1.57659
1.55054
1.55059
1.77372
1.95828
1.74889
1.93464
1.66946
1.86247
1.64383
1.83772
2.2481
2.41511
2.22658
2.39469
2.16917
2.34489
2.14612
2.32268
2.4465
2.28207
2.4315
2.26605
2.3799
2.20629
2.36326
2.18885
1.99677
1.81481
1.97882
1.79574
1.90331
1.71232
1.88428
1.69242
1.72649
1.72659
1.70692
1.70701
1.62034
1.6204
1.60007
1.60013
1.81514
1.9974
1.79606
1.97943
1.71254
1.90378
1.69263
1.88473
2.28314
2.44804
2.2671
2.43301
2.20716
2.38122
2.18968
2.36454
2.46971
2.30725
2.45936
2.29595
2.40619
2.23418
2.39435
2.22158
2.0257
1.8459
2.01264
1.8318
1.93434
1.74506
1.92025
1.73014
1.75855
1.75866
1.74398
1.74408
1.65383
1.65391
1.63855
1.63861
1.84625
2.02637
1.83214
2.01329
1.74531
1.93484
1.73038
1.92074
2.30838
2.47132
2.29706
2.46094
2.2351
2.40757
2.22247
2.39571
2.48461
2.32398
2.47827
2.31676
2.42384
2.25337
2.41618
2.24497
2.04588
1.8681
2.03704
1.85829
1.95648
1.76887