/*--------------------------------*- C++ -*----------------------------------*\
  =========                 |
  \\      /  F ield         | OpenFOAM: The Open Source CFD Toolbox
   \\    /   O peration     | Website:  https://openfoam.org
    \\  /    A nd           | Version:  9
     \\/     M anipulation  |
\*---------------------------------------------------------------------------*/
FoamFile
{
    format      ascii;
    class       volScalarField;
    location    "0.1";
    object      nut;
}
// * * * * * * * * * * * * * * * * * * * * * * * * * * * * * * * * * * * * * //

dimensions      [0 2 -1 0 0 0 0];

internalField   nonuniform List<scalar> 
36360
(
0.000627546
0.000558599
0.000477915
0.000437551
0.000210417
0.00018247
0.000200799
0.000180736
0.000175256
0.000166039
0.000172236
0.000165826
0.00017093
0.000170637
0.000173807
0.000173625
0.000165749
0.000165749
0.000165642
0.000165642
0.000170631
0.000170631
0.00017362
0.00017362
0.000166039
0.000175256
0.000165826
0.000172236
0.000170637
0.00017093
0.000173625
0.000173807
0.000558598
0.000627547
0.000437551
0.000477915
0.00018247
0.000210417
0.000180736
0.000200799
0.000644817
0.000572808
0.000645444
0.000573356
0.000210852
0.00018274
0.000211141
0.000182765
0.000175937
0.000166075
0.000175906
0.000166076
0.000170542
0.000170245
0.000170578
0.000170276
0.000165772
0.000165772
0.000165772
0.000165772
0.00017024
0.00017024
0.000170271
0.000170271
0.000166075
0.000175937
0.000166076
0.000175906
0.000170245
0.000170542
0.000170276
0.000170578
0.000572807
0.000644817
0.000573356
0.000645444
0.00018274
0.000210852
0.000182765
0.000211141
0.000638104
0.000566889
0.000641751
0.000570184
0.000210173
0.000182423
0.000210511
0.000182617
0.000175822
0.000166069
0.000175877
0.000166072
0.000170525
0.000170238
0.000170533
0.000170241
0.000165773
0.000165773
0.000165773
0.000165773
0.000170235
0.000170235
0.000170237
0.000170237
0.000166069
0.000175822
0.000166072
0.000175877
0.000170238
0.000170525
0.000170241
0.000170533
0.000566888
0.000638104
0.000570184
0.000641751
0.000182423
0.000210173
0.000182617
0.000210511
0.000630936
0.000560828
0.000634267
0.000563618
0.000209544
0.000182032
0.000209834
0.000182219
0.000175703
0.000166063
0.000175764
0.000166066
0.00017051
0.000170232
0.000170518
0.000170235
0.000165774
0.000165774
0.000165773
0.000165773
0.000170228
0.000170228
0.000170232
0.000170232
0.000166062
0.000175703
0.000166066
0.000175764
0.000170232
0.00017051
0.000170235
0.000170518
0.000560827
0.000630936
0.000563618
0.000634267
0.000182032
0.000209544
0.000182219
0.000209834
0.000624475
0.000555111
0.000627897
0.000558152
0.000208958
0.000181646
0.000209264
0.000181848
0.000175588
0.000166056
0.000175643
0.000166059
0.000170493
0.000170224
0.000170502
0.000170228
0.000165774
0.000165774
0.000165774
0.000165774
0.00017022
0.00017022
0.000170224
0.000170224
0.000166056
0.000175587
0.000166059
0.000175643
0.000170224
0.000170493
0.000170228
0.000170502
0.000555111
0.000624476
0.000558151
0.000627897
0.000181646
0.000208958
0.000181848
0.000209264
0.000617862
0.000549551
0.000620957
0.000552129
0.000208378
0.000181275
0.000208654
0.00018145
0.000175473
0.00016605
0.000175532
0.000166053
0.000170475
0.000170213
0.000170484
0.000170219
0.000165775
0.000165775
0.000165775
0.000165775
0.00017021
0.00017021
0.000170215
0.000170215
0.00016605
0.000175473
0.000166053
0.000175532
0.000170213
0.000170475
0.000170219
0.000170484
0.00054955
0.000617862
0.000552129
0.000620957
0.000181275
0.000208378
0.00018145
0.000208654
0.000611827
0.000544212
0.000615036
0.000547076
0.000207838
0.000180924
0.000208121
0.000181106
0.000175361
0.000166044
0.000175415
0.000166047
0.000170454
0.000170201
0.000170465
0.000170208
0.000165776
0.000165776
0.000165775
0.000165775
0.000170197
0.000170197
0.000170204
0.000170204
0.000166044
0.00017536
0.000166047
0.000175415
0.000170201
0.000170454
0.000170208
0.000170465
0.000544211
0.000611827
0.000547075
0.000615035
0.000180924
0.000207838
0.000181106
0.000208121
0.000605344
0.000538847
0.00060833
0.000541273
0.000207286
0.000180586
0.000207543
0.000180744
0.000175251
0.000166038
0.000175308
0.000166041
0.00017043
0.000170186
0.000170442
0.000170194
0.000165776
0.000165776
0.000165776
0.000165776
0.000170182
0.000170182
0.00017019
0.00017019
0.000166038
0.000175251
0.000166041
0.000175307
0.000170186
0.00017043
0.000170194
0.000170442
0.000538843
0.000605341
0.00054127
0.000608328
0.000180585
0.000207286
0.000180744
0.000207543
0.000599578
0.000533873
0.0006026
0.000536493
0.00020678
0.000180277
0.000207044
0.000180433
0.000175143
0.000166033
0.000175196
0.000166036
0.000170405
0.000170168
0.000170418
0.000170177
0.000165777
0.000165777
0.000165777
0.000165777
0.000170165
0.000170165
0.000170174
0.000170174
0.000166033
0.000175142
0.000166036
0.000175195
0.000170168
0.000170405
0.000170177
0.000170418
0.000533867
0.00059957
0.000536487
0.000602595
0.000180276
0.00020678
0.000180433
0.000207044
0.000593646
0.000528997
0.000596443
0.000531281
0.000206282
0.000179983
0.000206515
0.000180125
0.000175037
0.000166028
0.00017509
0.000166031
0.000170376
0.000170147
0.000170391
0.000170158
0.000165778
0.000165778
0.000165778
0.000165778
0.000170144
0.000170144
0.000170155
0.000170155
0.000166028
0.000175036
0.000166031
0.00017509
0.000170147
0.000170376
0.000170158
0.000170391
0.000528997
0.000593646
0.00053128
0.00059644
0.000179983
0.000206282
0.000180125
0.000206515
0.000587961
0.000524204
0.00059091
0.000526677
0.000205803
0.000179698
0.000206048
0.000179842
0.000174933
0.000166024
0.000174984
0.000166026
0.000170345
0.000170123
0.000170361
0.000170135
0.00016578
0.00016578
0.000165779
0.000165779
0.000170119
0.000170119
0.000170132
0.000170132
0.000166024
0.000174933
0.000166026
0.000174984
0.000170123
0.000170345
0.000170135
0.000170361
0.000524203
0.000587961
0.000526677
0.00059091
0.000179698
0.000205803
0.000179842
0.000206048
0.000582382
0.000519737
0.000585026
0.000521846
0.000205326
0.000179425
0.000205561
0.000179557
0.000174829
0.00016602
0.000174881
0.000166022
0.00017031
0.000170094
0.000170328
0.000170109
0.000165781
0.000165781
0.00016578
0.00016578
0.000170091
0.000170091
0.000170106
0.000170106
0.00016602
0.000174829
0.000166021
0.000174881
0.000170094
0.00017031
0.000170109
0.000170328
0.000519736
0.000582382
0.000521846
0.000585026
0.000179425
0.000205326
0.000179557
0.000205561
0.000577239
0.000515644
0.000579709
0.000517603
0.000204891
0.000179165
0.000205109
0.000179295
0.000174725
0.000166016
0.000174777
0.000166018
0.000170271
0.000170062
0.000170291
0.000170079
0.000165783
0.000165783
0.000165782
0.000165782
0.000170059
0.000170059
0.000170076
0.000170076
0.000166016
0.000174725
0.000166018
0.000174777
0.000170062
0.000170271
0.000170079
0.000170291
0.000515644
0.000577239
0.000517603
0.000579709
0.000179165
0.000204891
0.000179295
0.000205109
0.000572004
0.000511434
0.000574668
0.000513547
0.000204456
0.000178907
0.000204665
0.000179034
0.000174626
0.000166013
0.000174675
0.000166014
0.000170228
0.000170025
0.00017025
0.000170044
0.000165785
0.000165785
0.000165784
0.000165784
0.000170022
0.000170022
0.000170041
0.000170041
0.000166013
0.000174626
0.000166014
0.000174675
0.000170025
0.000170228
0.000170044
0.00017025
0.000511433
0.000572004
0.000513547
0.000574668
0.000178907
0.000204456
0.000179034
0.000204665
0.000566803
0.000507361
0.000569418
0.000509414
0.000204028
0.000178655
0.000204244
0.000178782
0.000174529
0.00016601
0.000174577
0.000166011
0.00017018
0.000169983
0.000170205
0.000170005
0.000165787
0.000165787
0.000165786
0.000165786
0.00016998
0.00016998
0.000170002
0.000170002
0.00016601
0.000174528
0.000166011
0.000174577
0.000169983
0.00017018
0.000170005
0.000170205
0.00050736
0.000566803
0.000509414
0.000569418
0.000178655
0.000204029
0.000178782
0.000204244
0.000561626
0.000503448
0.00056415
0.000505331
0.000203632
0.000178409
0.000203822
0.00017853
0.000174433
0.000166007
0.000174481
0.000166008
0.000170128
0.000169936
0.000170155
0.00016996
0.000165789
0.000165789
0.000165788
0.000165788
0.000169933
0.000169933
0.000169957
0.000169957
0.000166007
0.000174433
0.000166008
0.000174481
0.000169936
0.000170128
0.00016996
0.000170155
0.000503447
0.000561627
0.00050533
0.00056415
0.000178409
0.000203632
0.00017853
0.000203822
0.000556781
0.000499839
0.000559166
0.000501619
0.00020323
0.000178168
0.000203432
0.000178289
0.000174339
0.000166006
0.000174386
0.000166006
0.000170069
0.000169882
0.000170099
0.00016991
0.000165792
0.000165792
0.000165791
0.000165791
0.00016988
0.00016988
0.000169907
0.000169907
0.000166006
0.000174339
0.000166006
0.000174386
0.000169882
0.000170069
0.00016991
0.000170099
0.000499839
0.000556782
0.000501619
0.000559166
0.000178168
0.00020323
0.000178288
0.000203432
0.000551808
0.000496223
0.000554259
0.000497965
0.000202848
0.000177928
0.000203035
0.000178046
0.000174248
0.000166004
0.000174293
0.000166005
0.000170005
0.000169823
0.000170038
0.000169853
0.000165795
0.000165795
0.000165794
0.000165794
0.00016982
0.00016982
0.000169851
0.000169851
0.000166004
0.000174248
0.000166005
0.000174293
0.000169823
0.000170005
0.000169853
0.000170038
0.000496223
0.000551808
0.000497965
0.000554259
0.000177928
0.000202848
0.000178046
0.000203035
0.00054715
0.00049281
0.0005495
0.000494574
0.000202482
0.000177693
0.000202666
0.000177813
0.00017416
0.000166004
0.000174203
0.000166004
0.000169934
0.000169757
0.000169971
0.000169791
0.000165799
0.000165799
0.000165797
0.000165797
0.000169754
0.000169754
0.000169788
0.000169788
0.000166003
0.00017416
0.000166004
0.000174203
0.000169757
0.000169934
0.000169791
0.000169971
0.000492809
0.00054715
0.000494574
0.0005495
0.000177693
0.000202482
0.000177813
0.000202666
0.000541875
0.000489167
0.000544375
0.000490795
0.000202109
0.000177455
0.000202284
0.00017757
0.000174075
0.000166003
0.000174118
0.000166003
0.000169857
0.000169683
0.000169896
0.000169721
0.000165803
0.000165803
0.000165801
0.000165801
0.000169681
0.000169681
0.000169718
0.000169718
0.000166003
0.000174075
0.000166003
0.000174118
0.000169683
0.000169857
0.000169721
0.000169896
0.000489166
0.000541875
0.000490794
0.000544375
0.000177455
0.000202109
0.00017757
0.000202284
0.00053708
0.000485863
0.000539718
0.000487686
0.000201759
0.000177221
0.000201946
0.000177341
0.000173992
0.000166004
0.000174032
0.000166003
0.000169772
0.000169603
0.000169815
0.000169644
0.000165807
0.000165807
0.000165805
0.000165805
0.0001696
0.0001696
0.000169642
0.000169642
0.000166004
0.000173992
0.000166003
0.000174032
0.000169603
0.000169772
0.000169644
0.000169815
0.000485863
0.00053708
0.000487685
0.000539718
0.000177221
0.000201759
0.000177341
0.000201946
0.000533005
0.00048348
0.000534787
0.000484545
0.000201433
0.000176998
0.000201589
0.000177108
0.000173909
0.000166005
0.00017395
0.000166004
0.00016968
0.000169514
0.000169727
0.00016956
0.000165812
0.000165812
0.000165809
0.000165809
0.000169512
0.000169512
0.000169557
0.000169557
0.000166005
0.000173909
0.000166004
0.00017395
0.000169514
0.00016968
0.00016956
0.000169727
0.00048348
0.000533006
0.000484545
0.000534787
0.000176998
0.000201433
0.000177108
0.000201589
0.000528595
0.000480652
0.000530789
0.000481986
0.000201115
0.000176769
0.00020127
0.000176882
0.000173832
0.000166006
0.00017387
0.000166005
0.00016958
0.000169418
0.000169631
0.000169467
0.000165817
0.000165817
0.000165814
0.000165814
0.000169416
0.000169416
0.000169465
0.000169465
0.000166006
0.000173831
0.000166005
0.00017387
0.000169418
0.00016958
0.000169467
0.000169631
0.00048065
0.000528592
0.000481985
0.000530789
0.000176768
0.000201115
0.000176882
0.00020127
0.000524257
0.000477975
0.000526427
0.000479313
0.000200805
0.000176539
0.00020096
0.000176654
0.000173757
0.000166008
0.000173794
0.000166007
0.000169472
0.000169313
0.000169527
0.000169367
0.000165822
0.000165822
0.000165819
0.000165819
0.000169311
0.000169311
0.000169365
0.000169365
0.000166008
0.000173757
0.000166007
0.000173794
0.000169313
0.000169472
0.000169367
0.000169527
0.000477974
0.000524257
0.000479313
0.000526426
0.000176539
0.000200805
0.000176654
0.00020096
0.000519745
0.000475216
0.000521999
0.000476576
0.000200493
0.000176304
0.000200648
0.000176422
0.000173686
0.000166011
0.000173721
0.00016601
0.000169356
0.000169201
0.000169415
0.000169258
0.000165828
0.000165828
0.000165825
0.000165825
0.000169198
0.000169198
0.000169256
0.000169256
0.000166011
0.000173686
0.00016601
0.000173721
0.000169201
0.000169356
0.000169258
0.000169415
0.000475216
0.000519746
0.000476575
0.000521999
0.000176304
0.000200493
0.000176422
0.000200648
0.000515278
0.000472574
0.000517491
0.00047387
0.000200189
0.000176069
0.000200339
0.000176186
0.000173618
0.000166014
0.000173652
0.000166013
0.000169232
0.00016908
0.000169295
0.000169141
0.000165834
0.000165834
0.000165831
0.000165831
0.000169077
0.000169077
0.000169139
0.000169139
0.000166014
0.000173618
0.000166013
0.000173652
0.00016908
0.000169232
0.000169141
0.000169295
0.000472574
0.000515278
0.00047387
0.000517491
0.000176069
0.000200189
0.000176186
0.000200339
0.000510904
0.000470061
0.000513069
0.000471292
0.000199897
0.000175832
0.000200041
0.00017595
0.000173554
0.000166018
0.000173586
0.000166016
0.0001691
0.00016895
0.000169167
0.000169016
0.000165841
0.000165841
0.000165837
0.000165837
0.000168948
0.000168948
0.000169014
0.000169014
0.000166018
0.000173554
0.000166016
0.000173586
0.00016895
0.0001691
0.000169016
0.000169167
0.000470061
0.000510904
0.000471292
0.000513069
0.000175832
0.000199897
0.00017595
0.000200041
0.000506637
0.000467677
0.000508747
0.000468844
0.000199617
0.000175595
0.000199755
0.000175713
0.000173493
0.000166022
0.000173523
0.00016602
0.00016896
0.000168813
0.000169031
0.000168882
0.000165847
0.000165847
0.000165844
0.000165844
0.000168811
0.000168811
0.00016888
0.00016888
0.000166022
0.000173493
0.00016602
0.000173523
0.000168813
0.00016896
0.000168882
0.000169031
0.000467677
0.000506637
0.000468843
0.000508747
0.000175595
0.000199617
0.000175713
0.000199755
0.000502489
0.000465423
0.000504537
0.000466524
0.000199348
0.000175357
0.00019948
0.000175476
0.000173436
0.000166026
0.000173464
0.000166024
0.000168812
0.000168667
0.000168887
0.000168741
0.000165854
0.000165854
0.000165851
0.000165851
0.000168665
0.000168665
0.000168739
0.000168739
0.000166026
0.000173436
0.000166024
0.000173464
0.000168667
0.000168812
0.000168741
0.000168887
0.000465422
0.000502489
0.000466524
0.000504537
0.000175357
0.000199348
0.000175476
0.00019948
0.000498474
0.000463297
0.000500454
0.000464334
0.000199092
0.000175117
0.000199218
0.000175237
0.000173382
0.00016603
0.000173408
0.000166028
0.000168657
0.000168514
0.000168735
0.000168592
0.000165861
0.000165861
0.000165857
0.000165857
0.000168512
0.000168512
0.00016859
0.00016859
0.00016603
0.000173382
0.000166028
0.000173408
0.000168514
0.000168657
0.000168592
0.000168735
0.000463297
0.000498474
0.000464334
0.000500454
0.000175117
0.000199092
0.000175237
0.000199218
0.000494607
0.000461301
0.000496511
0.000462273
0.000198848
0.000174878
0.000198968
0.000174997
0.000173331
0.000166035
0.000173356
0.000166032
0.000168494
0.000168354
0.000168576
0.000168435
0.000165867
0.000165867
0.000165864
0.000165864
0.000168352
0.000168352
0.000168433
0.000168433
0.000166035
0.000173331
0.000166032
0.000173356
0.000168354
0.000168494
0.000168435
0.000168576
0.000461301
0.000494607
0.000462273
0.000496511
0.000174878
0.000198848
0.000174997
0.000198968
0.000490902
0.000459433
0.000492723
0.000460341
0.000198617
0.000174638
0.00019873
0.000174758
0.000173283
0.000166039
0.000173306
0.000166037
0.000168326
0.000168188
0.000168411
0.000168272
0.000165874
0.000165874
0.000165871
0.000165871
0.000168186
0.000168186
0.00016827
0.00016827
0.000166039
0.000173283
0.000166037
0.000173306
0.000168188
0.000168326
0.000168272
0.000168411
0.000459433
0.000490902
0.000460341
0.000492723
0.000174638
0.000198617
0.000174758
0.00019873
0.000487373
0.000457693
0.000489104
0.000458537
0.0001984
0.000174399
0.000198506
0.000174518
0.000173239
0.000166043
0.00017326
0.000166041
0.000168152
0.000168015
0.000168239
0.000168102
0.00016588
0.00016588
0.000165877
0.000165877
0.000168013
0.000168013
0.0001681
0.0001681
0.000166043
0.000173239
0.000166041
0.00017326
0.000168015
0.000168152
0.000168102
0.000168239
0.000457692
0.000487374
0.000458537
0.000489104
0.000174399
0.0001984
0.000174518
0.000198506
0.000484034
0.000456079
0.000485669
0.00045686
0.000198197
0.00017416
0.000198296
0.000174279
0.000173197
0.000166047
0.000173218
0.000166045
0.000167972
0.000167837
0.000168062
0.000167927
0.000165886
0.000165886
0.000165883
0.000165883
0.000167836
0.000167836
0.000167925
0.000167925
0.000166047
0.000173197
0.000166045
0.000173218
0.000167837
0.000167972
0.000167927
0.000168062
0.000456079
0.000484034
0.00045686
0.000485669
0.00017416
0.000198197
0.000174279
0.000198296
0.000480896
0.00045459
0.000482428
0.000455308
0.000198007
0.000173922
0.000198099
0.00017404
0.000173159
0.000166051
0.000173178
0.000166049
0.000167788
0.000167655
0.00016788
0.000167747
0.000165891
0.000165891
0.000165888
0.000165888
0.000167653
0.000167653
0.000167745
0.000167745
0.000166051
0.000173159
0.000166049
0.000173178
0.000167655
0.000167788
0.000167747
0.00016788
0.00045459
0.000480896
0.000455308
0.000482428
0.000173922
0.000198007
0.00017404
0.000198099
0.00047797
0.000453224
0.000479395
0.000453881
0.000197832
0.000173686
0.000197917
0.000173803
0.000173124
0.000166054
0.000173141
0.000166052
0.0001676
0.000167468
0.000167694
0.000167562
0.000165895
0.000165895
0.000165893
0.000165893
0.000167466
0.000167466
0.00016756
0.00016756
0.000166054
0.000173124
0.000166052
0.000173141
0.000167468
0.0001676
0.000167562
0.000167694
0.000453224
0.00047797
0.000453881
0.000479395
0.000173686
0.000197832
0.000173803
0.000197917
0.000475264
0.000451979
0.000476577
0.000452575
0.000197671
0.000173452
0.000197749
0.000173568
0.000173091
0.000166056
0.000173107
0.000166055
0.000167409
0.000167278
0.000167505
0.000167374
0.000165899
0.000165899
0.000165897
0.000165897
0.000167277
0.000167277
0.000167372
0.000167372
0.000166056
0.000173091
0.000166055
0.000173107
0.000167278
0.000167409
0.000167374
0.000167505
0.000451978
0.000475264
0.000452575
0.000476577
0.000173452
0.000197671
0.000173568
0.000197749
0.000472801
0.000450853
0.000473983
0.00045139
0.000197525
0.00017322
0.000197595
0.000173335
0.000173062
0.000166058
0.000173076
0.000166057
0.000167215
0.000167086
0.000167312
0.000167182
0.000165902
0.000165902
0.000165901
0.000165901
0.000167084
0.000167084
0.000167181
0.000167181
0.000166058
0.000173061
0.000166057
0.000173076
0.000167086
0.000167215
0.000167182
0.000167312
0.000450852
0.000472801
0.000451389
0.000473983
0.00017322
0.000197524
0.000173335
0.000197595
0.000470714
0.000448709
0.000471719
0.000450303
0.00019738
0.000172973
0.000197459
0.000173106
0.00017302
0.000166059
0.000173047
0.000166059
0.00016702
0.000166892
0.000167118
0.000166989
0.000165904
0.000165904
0.000165903
0.000165903
0.00016689
0.00016689
0.000166987
0.000166987
0.000166059
0.00017302
0.000166059
0.000173047
0.000166892
0.00016702
0.000166989
0.000167118
0.000448709
0.000470714
0.000450302
0.000471719
0.000172973
0.00019738
0.000173106
0.000197459
0.000646143
0.000574607
0.00049001
0.00044706
0.000645503
0.000573777
0.000490269
0.000445914
0.000175757
0.000165849
0.000172481
0.00016567
0.000175738
0.000165851
0.000172465
0.000165672
0.000165548
0.000165548
0.00016548
0.00016548
0.00016555
0.00016555
0.000165481
0.000165481
0.000165849
0.000175756
0.00016567
0.000172481
0.000165851
0.000175738
0.000165672
0.000172465
0.000574606
0.000646144
0.00044706
0.00049001
0.000573776
0.000645503
0.000445914
0.000490268
0.000664238
0.000589165
0.000664827
0.00058977
0.000663259
0.000588227
0.00066395
0.000588908
0.000176491
0.000165883
0.000176465
0.000165884
0.000176473
0.000165885
0.000176446
0.000165886
0.000165567
0.000165567
0.000165568
0.000165568
0.00016557
0.00016557
0.00016557
0.00016557
0.000165883
0.000176491
0.000165884
0.000176465
0.000165885
0.000176473
0.000165886
0.000176446
0.000589164
0.000664239
0.000589769
0.000664827
0.000588227
0.000663259
0.000588908
0.00066395
0.000657213
0.000582848
0.000661081
0.000586332
0.000656357
0.000582081
0.00066003
0.000585389
0.000176343
0.000165875
0.000176412
0.000165879
0.000176323
0.000165877
0.000176394
0.000165881
0.000165567
0.000165567
0.000165567
0.000165567
0.000165569
0.000165569
0.00016557
0.00016557
0.000165875
0.000176343
0.000165878
0.000176412
0.000165877
0.000176322
0.000165881
0.000176394
0.000582848
0.000657214
0.000586332
0.000661081
0.000582081
0.000656358
0.00058539
0.00066003
0.000649801
0.000576616
0.000653201
0.000579464
0.000648676
0.000575529
0.000652357
0.000578628
0.0001762
0.000165867
0.000176273
0.000165871
0.000176183
0.000165869
0.000176253
0.000165873
0.000165567
0.000165567
0.000165567
0.000165567
0.000165569
0.000165569
0.000165569
0.000165569
0.000165867
0.000176199
0.000165871
0.000176273
0.000165869
0.000176183
0.000165873
0.000176253
0.000576616
0.000649801
0.000579463
0.000653201
0.000575529
0.000648676
0.000578628
0.000652357
0.000642898
0.000570451
0.000646648
0.000573798
0.000641632
0.000569324
0.000645355
0.000572627
0.000176057
0.000165859
0.000176127
0.000165863
0.000176045
0.000165861
0.000176112
0.000165865
0.000165567
0.000165567
0.000165567
0.000165567
0.000165569
0.000165569
0.000165569
0.000165569
0.000165859
0.000176057
0.000165863
0.000176126
0.000165861
0.000176045
0.000165865
0.000176112
0.00057045
0.000642899
0.000573798
0.000646648
0.000569324
0.000641632
0.000572626
0.000645355
0.000635703
0.000564392
0.00063904
0.000567199
0.000634421
0.000563246
0.000637796
0.000566077
0.00017592
0.000165852
0.000175989
0.000165856
0.00017591
0.000165854
0.000175978
0.000165858
0.000165567
0.000165567
0.000165567
0.000165567
0.000165569
0.000165569
0.000165569
0.000165569
0.000165852
0.00017592
0.000165856
0.000175989
0.000165854
0.00017591
0.000165858
0.000175978
0.000564392
0.000635703
0.000567199
0.00063904
0.000563245
0.00063442
0.000566076
0.000637795
0.000628995
0.000558601
0.000632424
0.000561546
0.000627723
0.000557412
0.000631195
0.000560436
0.000175787
0.000165845
0.000175853
0.000165849
0.000175778
0.000165847
0.000175843
0.000165851
0.000165567
0.000165567
0.000165567
0.000165567
0.000165569
0.000165569
0.000165569
0.000165569
0.000165845
0.000175787
0.000165849
0.000175853
0.000165847
0.000175777
0.000165851
0.000175843
0.0005586
0.000628995
0.000561545
0.000632425
0.000557412
0.000627723
0.000560435
0.000631194
0.000622388
0.000553007
0.000625619
0.000555743
0.000620964
0.000551778
0.000624181
0.000554434
0.000175657
0.000165838
0.000175721
0.000165842
0.000175648
0.00016584
0.000175713
0.000165844
0.000165566
0.000165566
0.000165566
0.000165566
0.000165569
0.000165569
0.000165569
0.000165569
0.000165838
0.000175657
0.000165842
0.000175721
0.00016584
0.000175648
0.000165844
0.000175713
0.000553007
0.000622388
0.000555743
0.000625619
0.000551777
0.000620964
0.000554434
0.000624181
0.000615984
0.000547548
0.000619223
0.000550314
0.000614849
0.000546552
0.000617985
0.000549253
0.00017553
0.000165832
0.000175593
0.000165835
0.00017552
0.000165834
0.000175583
0.000165837
0.000165566
0.000165566
0.000165566
0.000165566
0.000165569
0.000165569
0.000165569
0.000165569
0.000165832
0.00017553
0.000165835
0.000175593
0.000165834
0.00017552
0.000165837
0.000175583
0.000547548
0.000615985
0.000550314
0.000619223
0.000546552
0.000614849
0.000549253
0.000617985
0.000609693
0.000542448
0.000612608
0.000544772
0.000608602
0.000541436
0.00061154
0.000543815
0.000175405
0.000165825
0.000175468
0.000165828
0.000175395
0.000165828
0.000175458
0.000165831
0.000165566
0.000165566
0.000165566
0.000165566
0.000165569
0.000165569
0.000165569
0.000165569
0.000165825
0.000175405
0.000165828
0.000175468
0.000165828
0.000175395
0.000165831
0.000175458
0.000542447
0.000609693
0.000544772
0.000612608
0.000541436
0.000608603
0.000543815
0.00061154
0.000604008
0.000537626
0.000606999
0.000540178
0.00060273
0.000536478
0.000605753
0.000539035
0.000175281
0.000165819
0.000175342
0.000165822
0.000175273
0.000165822
0.000175333
0.000165825
0.000165566
0.000165566
0.000165566
0.000165566
0.000165569
0.000165569
0.000165569
0.000165569
0.000165819
0.000175281
0.000165822
0.000175342
0.000165822
0.000175273
0.000165825
0.000175333
0.000537626
0.000604008
0.000540178
0.000606999
0.000536478
0.000602731
0.000539035
0.000605753
0.000598097
0.000532971
0.000600798
0.00053506
0.000596709
0.000531727
0.000599505
0.000533881
0.000175161
0.000165814
0.000175221
0.000165816
0.000175153
0.000165816
0.000175214
0.000165819
0.000165567
0.000165567
0.000165567
0.000165567
0.000165569
0.000165569
0.000165569
0.000165569
0.000165814
0.00017516
0.000165816
0.000175221
0.000165816
0.000175153
0.000165819
0.000175214
0.000532971
0.000598097
0.00053506
0.000600799
0.000531726
0.000596709
0.000533881
0.000599504
0.000592652
0.000528437
0.000595543
0.00053085
0.000591396
0.000527364
0.00059414
0.000529645
0.000175044
0.000165808
0.000175101
0.000165811
0.000175036
0.000165811
0.000175094
0.000165814
0.000165567
0.000165567
0.000165567
0.000165567
0.00016557
0.00016557
0.00016557
0.00016557
0.000165808
0.000175044
0.000165811
0.000175101
0.000165811
0.000175036
0.000165813
0.000175094
0.000528436
0.000592652
0.00053085
0.000595543
0.000527364
0.000591396
0.000529644
0.00059414
0.000586884
0.000523944
0.000589633
0.000526056
0.000585677
0.000522934
0.000588382
0.000524976
0.00017493
0.000165803
0.000174987
0.000165806
0.000174922
0.000165806
0.000174979
0.000165808
0.000165567
0.000165567
0.000165567
0.000165567
0.00016557
0.00016557
0.00016557
0.00016557
0.000165803
0.00017493
0.000165806
0.000174987
0.000165806
0.000174922
0.000165808
0.000174979
0.000523943
0.000586884
0.000526056
0.000589633
0.000522934
0.000585677
0.000524976
0.000588382
0.000581555
0.000519744
0.000584234
0.000521865
0.000580479
0.000518811
0.000583155
0.000520958
0.000174819
0.000165798
0.000174874
0.000165801
0.00017481
0.000165801
0.000174865
0.000165803
0.000165567
0.000165567
0.000165567
0.000165567
0.00016557
0.00016557
0.00016557
0.00016557
0.000165798
0.000174819
0.000165801
0.000174874
0.000165801
0.00017481
0.000165803
0.000174865
0.000519743
0.000581556
0.000521864
0.000584233
0.000518811
0.000580479
0.000520958
0.000583156
0.000576131
0.000515662
0.000578701
0.000517557
0.000574875
0.000514628
0.000577578
0.000516581
0.000174711
0.000165794
0.000174764
0.000165796
0.000174704
0.000165797
0.000174757
0.000165799
0.000165568
0.000165568
0.000165568
0.000165568
0.000165571
0.000165571
0.000165571
0.000165571
0.000165794
0.00017471
0.000165796
0.000174764
0.000165797
0.000174703
0.000165799
0.000174757
0.000515663
0.000576132
0.000517556
0.0005787
0.000514627
0.000574876
0.000516581
0.000577578
0.000570883
0.000511643
0.000573605
0.000513715
0.000570008
0.000510966
0.000572493
0.000512881
0.000174606
0.00016579
0.000174658
0.000165792
0.000174598
0.000165793
0.00017465
0.000165795
0.000165569
0.000165569
0.000165568
0.000165568
0.000165572
0.000165572
0.000165571
0.000165571
0.00016579
0.000174606
0.000165792
0.000174658
0.000165793
0.000174598
0.000165795
0.00017465
0.000511638
0.000570878
0.000513714
0.000573605
0.000510966
0.000570008
0.00051288
0.000572493
0.000565567
0.000507792
0.000568205
0.000509679
0.00056474
0.00050722
0.000567233
0.000508926
0.000174505
0.000165786
0.000174555
0.000165788
0.000174496
0.000165789
0.000174547
0.000165791
0.000165569
0.000165569
0.000165569
0.000165569
0.000165573
0.000165573
0.000165572
0.000165572
0.000165786
0.000174504
0.000165788
0.000174555
0.000165789
0.000174496
0.000165791
0.000174547
0.000507799
0.000565574
0.000509677
0.000568199
0.000507219
0.000564739
0.000508926
0.000567233
0.000560684
0.000504262
0.000563135
0.000506074
0.000560058
0.000503913
0.000562393
0.000505578
0.000174406
0.000165783
0.000174455
0.000165784
0.000174397
0.000165786
0.000174447
0.000165788
0.000165571
0.000165571
0.00016557
0.00016557
0.000165574
0.000165574
0.000165573
0.000165573
0.000165783
0.000174406
0.000165784
0.000174455
0.000165786
0.000174397
0.000165788
0.000174446
0.000504265
0.000560689
0.000506078
0.000563141
0.000503912
0.000560058
0.000505577
0.000562392
0.000555512
0.000500775
0.000557889
0.000502291
0.000555002
0.000500361
0.000557533
0.000502106
0.000174311
0.00016578
0.000174359
0.000165781
0.000174303
0.000165783
0.00017435
0.000165785
0.000165572
0.000165572
0.000165571
0.000165571
0.000165576
0.000165576
0.000165575
0.000165575
0.00016578
0.000174311
0.000165781
0.000174359
0.000165783
0.000174303
0.000165785
0.00017435
0.000500811
0.000555537
0.000502288
0.000557875
0.000500361
0.000555002
0.000502106
0.000557532
0.000550842
0.000497612
0.00055323
0.000499226
0.000549938
0.000496898
0.000552534
0.000498664
0.000174219
0.000165778
0.000174264
0.000165779
0.000174212
0.000165781
0.000174257
0.000165782
0.000165574
0.000165574
0.000165573
0.000165573
0.000165577
0.000165577
0.000165576
0.000165576
0.000165778
0.000174218
0.000165779
0.000174264
0.000165781
0.000174212
0.000165782
0.000174257
0.000497636
0.000550872
0.000499268
0.000553275
0.000496898
0.000549938
0.000498664
0.000552534
0.000546106
0.000494588
0.000548408
0.000496031
0.000545192
0.000493948
0.00054743
0.00049531
0.00017413
0.000165776
0.000174174
0.000165777
0.000174124
0.00016578
0.000174168
0.00016578
0.000165576
0.000165576
0.000165575
0.000165575
0.000165579
0.000165579
0.000165578
0.000165578
0.000165776
0.00017413
0.000165777
0.000174174
0.00016578
0.000174124
0.00016578
0.000174168
0.000494582
0.000546108
0.000496053
0.000548441
0.000493948
0.000545194
0.000495311
0.000547431
0.000541644
0.000491855
0.000543852
0.000493188
0.00054082
0.000491294
0.00054295
0.000492564
0.000174045
0.000165775
0.000174087
0.000165775
0.000174039
0.000165779
0.000174081
0.000165779
0.000165578
0.000165578
0.000165577
0.000165577
0.000165582
0.000165582
0.000165581
0.000165581
0.000165775
0.000174045