/*--------------------------------*- C++ -*----------------------------------*\
  =========                 |
  \\      /  F ield         | OpenFOAM: The Open Source CFD Toolbox
   \\    /   O peration     | Website:  https://openfoam.org
    \\  /    A nd           | Version:  9
     \\/     M anipulation  |
\*---------------------------------------------------------------------------*/
FoamFile
{
    format      ascii;
    class       volScalarField;
    location    "0.1";
    object      p;
}
// * * * * * * * * * * * * * * * * * * * * * * * * * * * * * * * * * * * * * //

dimensions      [0 2 -2 0 0 0 0];

internalField   nonuniform List<scalar> 
36360
(
20.097
20.0853
20.1013
20.094
20.0933
20.0868
20.0985
20.094
20.0896
20.09
20.0968
20.0971
20.0892
20.0896
20.0959
20.0961
20.0901
20.0901
20.0971
20.0971
20.0896
20.0896
20.0961
20.0961
20.09
20.0896
20.0971
20.0968
20.0896
20.0892
20.0961
20.0959
20.0853
20.097
20.094
20.1013
20.0868
20.0933
20.094
20.0985
20.0808
20.0746
20.0889
20.0798
20.078
20.076
20.0857
20.0815
20.076
20.0765
20.0827
20.0832
20.0761
20.0765
20.0827
20.0831
20.0766
20.0766
20.0832
20.0832
20.0766
20.0766
20.0831
20.0831
20.0765
20.076
20.0832
20.0827
20.0765
20.0761
20.0831
20.0827
20.0746
20.0808
20.0798
20.0889
20.076
20.078
20.0815
20.0857
20.066
20.0633
20.0732
20.069
20.0636
20.0644
20.0707
20.0703
20.0631
20.0634
20.0695
20.0699
20.0632
20.0634
20.0696
20.0699
20.0636
20.0636
20.07
20.07
20.0636
20.0636
20.07
20.07
20.0634
20.0631
20.0699
20.0695
20.0634
20.0632
20.0699
20.0696
20.0633
20.066
20.069
20.0732
20.0644
20.0636
20.0703
20.0707
20.0521
20.0514
20.0589
20.0574
20.0499
20.0526
20.0567
20.0585
20.0505
20.0507
20.0568
20.057
20.0507
20.0507
20.0569
20.057
20.0508
20.0508
20.0572
20.0572
20.0508
20.0508
20.0572
20.0572
20.0507
20.0505
20.057
20.0568
20.0507
20.0507
20.057
20.0569
20.0514
20.0521
20.0574
20.0589
20.0526
20.0499
20.0585
20.0567
20.039
20.0394
20.0455
20.0454
20.0369
20.0405
20.0433
20.0465
20.0383
20.0383
20.0444
20.0445
20.0384
20.0383
20.0445
20.0445
20.0384
20.0384
20.0446
20.0446
20.0384
20.0384
20.0446
20.0446
20.0383
20.0383
20.0445
20.0444
20.0383
20.0384
20.0445
20.0445
20.0394
20.039
20.0454
20.0455
20.0405
20.0369
20.0465
20.0433
20.0263
20.0275
20.0326
20.0334
20.0243
20.0285
20.0305
20.0345
20.0263
20.0262
20.0323
20.0322
20.0264
20.0262
20.0324
20.0322
20.0262
20.0262
20.0323
20.0323
20.0262
20.0262
20.0323
20.0323
20.0262
20.0263
20.0322
20.0323
20.0262
20.0264
20.0322
20.0324
20.0274
20.0263
20.0334
20.0326
20.0285
20.0243
20.0345
20.0305
20.0142
20.0157
20.0202
20.0215
20.0122
20.0167
20.0182
20.0226
20.0145
20.0144
20.0204
20.0202
20.0146
20.0144
20.0205
20.0202
20.0143
20.0143
20.0202
20.0202
20.0144
20.0144
20.0202
20.0202
20.0144
20.0145
20.0202
20.0204
20.0144
20.0146
20.0202
20.0205
20.0157
20.0142
20.0215
20.0202
20.0167
20.0122
20.0226
20.0182
20.0024
20.0042
20.0082
20.0099
20.0005
20.0051
20.0063
20.0109
20.003
20.0028
20.0087
20.0085
20.0031
20.0028
20.0089
20.0086
20.0028
20.0028
20.0085
20.0085
20.0028
20.0028
20.0085
20.0085
20.0028
20.003
20.0085
20.0087
20.0028
20.0031
20.0086
20.0089
20.0042
20.0024
20.0099
20.0082
20.0051
20.0005
20.0109
20.0063
19.991
19.993
19.9967
19.9986
19.9892
19.9936
19.9948
19.9993
19.9918
19.9916
19.9974
19.9972
19.9919
19.9916
19.9975
19.9972
19.9915
19.9915
19.9971
19.9971
19.9915
19.9915
19.9971
19.9971
19.9916
19.9918
19.9972
19.9974
19.9916
19.9919
19.9972
19.9975
19.993
19.991
19.9986
19.9967
19.9936
19.9892
19.9993
19.9948
19.9799
19.9819
19.9854
19.9874
19.9782
19.9826
19.9836
19.9881
19.9808
19.9806
19.9863
19.986
19.9809
19.9806
19.9864
19.9861
19.9805
19.9805
19.986
19.986
19.9806
19.9806
19.986
19.986
19.9806
19.9808
19.986
19.9863
19.9806
19.9809
19.9861
19.9864
19.9819
19.9799
19.9874
19.9854
19.9826
19.9782
19.9881
19.9836
19.9691
19.9711
19.9745
19.9765
19.9674
19.9718
19.9728
19.9772
19.9701
19.9699
19.9754
19.9752
19.9702
19.9699
19.9755
19.9752
19.9699
19.9699
19.9752
19.9752
19.9699
19.9699
19.9752
19.9752
19.9699
19.9701
19.9752
19.9754
19.9699
19.9702
19.9752
19.9755
19.9711
19.9691
19.9765
19.9745
19.9718
19.9674
19.9772
19.9728
19.9587
19.9607
19.9639
19.9659
19.9571
19.9613
19.9622
19.9665
19.9597
19.9595
19.9649
19.9647
19.9598
19.9596
19.965
19.9647
19.9595
19.9595
19.9646
19.9646
19.9595
19.9595
19.9647
19.9647
19.9595
19.9597
19.9647
19.9649
19.9596
19.9598
19.9647
19.965
19.9607
19.9587
19.9659
19.9639
19.9613
19.957
19.9665
19.9622
19.9486
19.9505
19.9536
19.9556
19.947
19.9512
19.952
19.9562
19.9496
19.9495
19.9546
19.9545
19.9497
19.9495
19.9547
19.9545
19.9494
19.9494
19.9544
19.9544
19.9494
19.9494
19.9544
19.9544
19.9495
19.9496
19.9545
19.9546
19.9495
19.9497
19.9545
19.9547
19.9505
19.9486
19.9556
19.9536
19.9512
19.947
19.9562
19.952
19.9388
19.9407
19.9437
19.9456
19.9373
19.9414
19.9421
19.9462
19.9398
19.9397
19.9447
19.9445
19.94
19.9397
19.9448
19.9446
19.9397
19.9397
19.9445
19.9445
19.9397
19.9397
19.9445
19.9445
19.9397
19.9398
19.9445
19.9447
19.9397
19.94
19.9446
19.9448
19.9407
19.9388
19.9456
19.9437
19.9414
19.9373
19.9462
19.9421
19.9294
19.9312
19.9341
19.9359
19.9278
19.9319
19.9325
19.9366
19.9304
19.9303
19.9351
19.9349
19.9305
19.9303
19.9352
19.935
19.9302
19.9302
19.9349
19.9349
19.9303
19.9303
19.9349
19.9349
19.9303
19.9304
19.9349
19.9351
19.9303
19.9305
19.935
19.9352
19.9312
19.9294
19.9359
19.9341
19.9319
19.9278
19.9366
19.9325
19.9202
19.9221
19.9247
19.9266
19.9188
19.9227
19.9232
19.9272
19.9213
19.9211
19.9258
19.9257
19.9214
19.9212
19.9259
19.9257
19.9211
19.9211
19.9256
19.9256
19.9212
19.9212
19.9257
19.9257
19.9211
19.9213
19.9257
19.9258
19.9212
19.9214
19.9257
19.9259
19.9221
19.9202
19.9266
19.9247
19.9227
19.9188
19.9272
19.9232
19.9114
19.9133
19.9158
19.9176
19.91
19.9139
19.9143
19.9182
19.9125
19.9124
19.9168
19.9167
19.9126
19.9124
19.917
19.9168
19.9123
19.9123
19.9167
19.9167
19.9124
19.9124
19.9167
19.9167
19.9124
19.9125
19.9167
19.9168
19.9124
19.9126
19.9168
19.917
19.9133
19.9114
19.9176
19.9158
19.9139
19.91
19.9182
19.9143
19.903
19.9048
19.9072
19.909
19.9016
19.9054
19.9058
19.9096
19.904
19.9039
19.9082
19.9081
19.9042
19.904
19.9083
19.9082
19.9039
19.9039
19.9081
19.9081
19.904
19.904
19.9081
19.9081
19.9039
19.904
19.9081
19.9082
19.904
19.9042
19.9082
19.9083
19.9048
19.903
19.909
19.9072
19.9054
19.9016
19.9096
19.9058
19.8949
19.8967
19.8989
19.9007
19.8936
19.8972
19.8975
19.9013
19.8959
19.8958
19.8999
19.8998
19.8961
19.8959
19.9001
19.8999
19.8958
19.8958
19.8998
19.8998
19.8959
19.8959
19.8999
19.8999
19.8958
19.8959
19.8998
19.8999
19.8959
19.8961
19.8999
19.9001
19.8967
19.8949
19.9007
19.8989
19.8972
19.8936
19.9013
19.8975
19.8871
19.8889
19.891
19.8927
19.8858
19.8894
19.8896
19.8933
19.8881
19.8881
19.892
19.8919
19.8883
19.8881
19.8921
19.892
19.888
19.888
19.8919
19.8919
19.8881
19.8881
19.8919
19.8919
19.8881
19.8881
19.8919
19.892
19.8881
19.8883
19.892
19.8921
19.8889
19.8871
19.8927
19.891
19.8894
19.8858
19.8933
19.8896
19.8797
19.8815
19.8834
19.8852
19.8785
19.882
19.8821
19.8857
19.8808
19.8807
19.8844
19.8843
19.8809
19.8808
19.8846
19.8844
19.8807
19.8807
19.8843
19.8843
19.8807
19.8807
19.8844
19.8844
19.8807
19.8808
19.8843
19.8844
19.8808
19.8809
19.8844
19.8846
19.8815
19.8797
19.8852
19.8834
19.882
19.8785
19.8857
19.8821
19.8727
19.8745
19.8762
19.8779
19.8715
19.875
19.875
19.8785
19.8737
19.8736
19.8772
19.8771
19.8739
19.8737
19.8774
19.8772
19.8736
19.8736
19.8771
19.8771
19.8737
19.8737
19.8772
19.8772
19.8736
19.8737
19.8771
19.8772
19.8737
19.8739
19.8772
19.8774
19.8745
19.8727
19.8779
19.8762
19.875
19.8715
19.8785
19.8749
19.8661
19.8678
19.8694
19.8711
19.8649
19.8683
19.8682
19.8716
19.867
19.867
19.8703
19.8703
19.8672
19.8671
19.8705
19.8704
19.867
19.867
19.8702
19.8702
19.8671
19.8671
19.8703
19.8703
19.867
19.867
19.8703
19.8703
19.8671
19.8672
19.8704
19.8705
19.8678
19.8661
19.8711
19.8693
19.8683
19.8649
19.8716
19.8682
19.8598
19.8615
19.8629
19.8646
19.8586
19.862
19.8617
19.8651
19.8607
19.8607
19.8638
19.8638
19.8609
19.8608
19.864
19.8639
19.8606
19.8606
19.8638
19.8638
19.8608
19.8608
19.8639
19.8639
19.8607
19.8607
19.8638
19.8638
19.8608
19.8609
19.8639
19.864
19.8615
19.8597
19.8646
19.8629
19.862
19.8586
19.8651
19.8617
19.8538
19.8555
19.8567
19.8584
19.8527
19.856
19.8556
19.8589
19.8548
19.8547
19.8577
19.8576
19.855
19.8548
19.8579
19.8578
19.8547
19.8547
19.8576
19.8576
19.8548
19.8548
19.8577
19.8577
19.8547
19.8548
19.8576
19.8577
19.8548
19.855
19.8578
19.8579
19.8555
19.8538
19.8584
19.8567
19.856
19.8527
19.8589
19.8556
19.8482
19.8499
19.851
19.8527
19.8472
19.8504
19.8499
19.8531
19.8492
19.8491
19.852
19.8519
19.8494
19.8493
19.8522
19.852
19.8491
19.8491
19.8519
19.8519
19.8493
19.8493
19.852
19.852
19.8491
19.8492
19.8519
19.8519
19.8493
19.8494
19.852
19.8522
19.8499
19.8482
19.8527
19.851
19.8504
19.8472
19.8531
19.8499
19.843
19.8447
19.8456
19.8473
19.842
19.8451
19.8445
19.8477
19.844
19.8439
19.8465
19.8465
19.8442
19.8441
19.8468
19.8466
19.8439
19.8439
19.8465
19.8465
19.844
19.844
19.8466
19.8466
19.8439
19.844
19.8465
19.8465
19.8441
19.8442
19.8466
19.8468
19.8447
19.843
19.8473
19.8456
19.8451
19.842
19.8477
19.8445
19.8381
19.8398
19.8405
19.8422
19.8372
19.8403
19.8395
19.8427
19.8391
19.8391
19.8415
19.8414
19.8393
19.8392
19.8417
19.8416
19.839
19.839
19.8414
19.8414
19.8392
19.8392
19.8416
19.8416
19.8391
19.8391
19.8414
19.8415
19.8392
19.8393
19.8416
19.8417
19.8398
19.8381
19.8422
19.8405
19.8403
19.8372
19.8427
19.8395
19.8336
19.8353
19.8358
19.8375
19.8327
19.8357
19.8349
19.8379
19.8346
19.8345
19.8368
19.8368
19.8348
19.8347
19.837
19.8369
19.8345
19.8345
19.8367
19.8367
19.8347
19.8347
19.8369
19.8369
19.8345
19.8346
19.8367
19.8368
19.8347
19.8348
19.8369
19.837
19.8353
19.8336
19.8375
19.8358
19.8357
19.8327
19.8379
19.8349
19.8294
19.8311
19.8315
19.8332
19.8285
19.8315
19.8306
19.8336
19.8304
19.8304
19.8325
19.8324
19.8307
19.8305
19.8327
19.8326
19.8304
19.8303
19.8324
19.8324
19.8305
19.8305
19.8326
19.8326
19.8304
19.8304
19.8324
19.8325
19.8305
19.8307
19.8326
19.8327
19.8311
19.8294
19.8332
19.8314
19.8315
19.8285
19.8336
19.8306
19.8255
19.8272
19.8274
19.8291
19.8247
19.8277
19.8266
19.8295
19.8266
19.8265
19.8285
19.8284
19.8268
19.8267
19.8287
19.8286
19.8265
19.8265
19.8284
19.8284
19.8267
19.8267
19.8286
19.8286
19.8265
19.8266
19.8284
19.8284
19.8267
19.8268
19.8286
19.8287
19.8272
19.8255
19.8291
19.8274
19.8277
19.8247
19.8295
19.8266
19.822
19.8237
19.8237
19.8254
19.8212
19.8241
19.8229
19.8258
19.823
19.823
19.8248
19.8247
19.8233
19.8232
19.825
19.8249
19.823
19.823
19.8247
19.8247
19.8232
19.8232
19.8249
19.8249
19.823
19.823
19.8247
19.8248
19.8232
19.8233
19.8249
19.825
19.8237
19.822
19.8254
19.8237
19.8241
19.8212
19.8258
19.8229
19.8188
19.8205
19.8204
19.8221
19.818
19.8209
19.8196
19.8225
19.8198
19.8198
19.8214
19.8213
19.8201
19.82
19.8217
19.8215
19.8198
19.8198
19.8213
19.8213
19.8199
19.8199
19.8215
19.8215
19.8198
19.8198
19.8213
19.8214
19.82
19.8201
19.8215
19.8216
19.8205
19.8188
19.8221
19.8204
19.8209
19.818
19.8225
19.8196
19.8158
19.8176
19.8173
19.819
19.8151
19.8179
19.8165
19.8194
19.8169
19.8168
19.8183
19.8183
19.8172
19.817
19.8186
19.8185
19.8168
19.8168
19.8183
19.8183
19.817
19.817
19.8184
19.8184
19.8168
19.8169
19.8183
19.8183
19.817
19.8172
19.8185
19.8186
19.8176
19.8158
19.819
19.8173
19.8179
19.8151
19.8194
19.8165
19.8132
19.8149
19.8145
19.8162
19.8125
19.8153
19.8138
19.8166
19.8143
19.8142
19.8155
19.8155
19.8145
19.8144
19.8158
19.8157
19.8142
19.8142
19.8155
19.8155
19.8144
19.8144
19.8157
19.8157
19.8142
19.8143
19.8155
19.8155
19.8144
19.8145
19.8157
19.8158
19.8149
19.8132
19.8162
19.8145
19.8153
19.8125
19.8166
19.8138
19.8108
19.8125
19.812
19.8137
19.8102
19.8129
19.8113
19.8141
19.8119
19.8118
19.813
19.813
19.8122
19.812
19.8133
19.8132
19.8118
19.8118
19.813
19.813
19.812
19.812
19.8132
19.8132
19.8118
19.8119
19.813
19.813
19.812
19.8122
19.8132
19.8133
19.8125
19.8108
19.8137
19.812
19.8129
19.8101
19.8141
19.8113
19.8087
19.8104
19.8097
19.8115
19.8081
19.8108
19.8091
19.8118
19.8098
19.8097
19.8108
19.8107
19.81
19.8099
19.8111
19.8109
19.8097
19.8097
19.8107
19.8107
19.8099
19.8099
19.8109
19.8109
19.8097
19.8098
19.8107
19.8108
19.8099
19.81
19.8109
19.8111
19.8104
19.8087
19.8115
19.8097
19.8108
19.808
19.8118
19.8091
19.8068
19.8086
19.8077
19.8095
19.8062
19.8089
19.8071
19.8098
19.8079
19.8078
19.8088
19.8087
19.8082
19.808
19.8091
19.8089
19.8078
19.8078
19.8087
19.8087
19.808
19.808
19.8089
19.8089
19.8078
19.8079
19.8087
19.8088
19.808
19.8082
19.8089
19.8091
19.8086
19.8068
19.8095
19.8077
19.8089
19.8062
19.8098
19.8071
19.8051
19.807
19.8059
19.8077
19.8045
19.8073
19.8054
19.8081
19.8062
19.8062
19.807
19.807
19.8065
19.8064
19.8073
19.8072
19.8062
19.8062
19.807
19.807
19.8064
19.8064
19.8072
19.8072
19.8062
19.8062
19.807
19.807
19.8064
19.8065
19.8072
19.8073
19.8069
19.8051
19.8077
19.8059
19.8073
19.8045
19.8081
19.8053
20.0981
20.0839
20.1018
20.0928
20.0993
20.0821
20.1024
20.0916
20.0894
20.0899
20.0964
20.0967
20.0892
20.0897
20.0962
20.0965
20.09
20.09
20.0967
20.0967
20.0898
20.0898
20.0965
20.0965
20.0899
20.0894
20.0967
20.0964
20.0897
20.0892
20.0965
20.0962
20.0839
20.0981
20.0928
20.1018
20.0821
20.0993
20.0916
20.1024
20.0819
20.0738
20.09
20.0788
20.0836
20.0715
20.0916
20.0767
20.0759
20.0765
20.0826
20.0831
20.0758
20.0765
20.0825
20.0831
20.0766
20.0766
20.0832
20.0832
20.0766
20.0766
20.0831
20.0831
20.0765
20.0759
20.0831
20.0826
20.0765
20.0758
20.0831
20.0825
20.0738
20.0819
20.0788
20.09
20.0715
20.0836
20.0767
20.0916
20.067
20.0626
20.0743
20.0682
20.069
20.0601
20.0762
20.0658
20.0629
20.0634
20.0693
20.0699
20.0629
20.0634
20.0693
20.0699
20.0635
20.0635
20.07
20.07
20.0635
20.0635
20.07
20.07
20.0634
20.0629
20.0699
20.0693
20.0634
20.0629
20.0699
20.0693
20.0626
20.067
20.0682
20.0743
20.0601
20.069
20.0658
20.0762
20.0532
20.0507
20.06
20.0567
20.0551
20.0483
20.0619
20.0542
20.0504
20.0507
20.0566
20.057
20.0504
20.0507
20.0566
20.057
20.0508
20.0508
20.0571
20.0571
20.0508
20.0508
20.0571
20.0571
20.0507
20.0504
20.057
20.0566
20.0507
20.0504
20.057
20.0566
20.0507
20.0532
20.0567
20.06
20.0483
20.0551
20.0542
20.0619
20.0401
20.0387
20.0466
20.0447
20.0419
20.0364
20.0484
20.0423
20.0381
20.0382
20.0442
20.0444
20.0381
20.0383
20.0442
20.0444
20.0383
20.0383
20.0445
20.0445
20.0384
20.0384
20.0445
20.0445
20.0382
20.0381
20.0444
20.0442
20.0383
20.0381
20.0444
20.0442
20.0387
20.0401
20.0447
20.0466
20.0364
20.0419
20.0423
20.0484
20.0274
20.0267
20.0337
20.0326
20.0292
20.0245
20.0355
20.0304
20.0261
20.0261
20.0321
20.0321
20.0261
20.0262
20.0321
20.0322
20.0262
20.0262
20.0322
20.0322
20.0262
20.0262
20.0322
20.0322
20.0261
20.0261
20.0321
20.0321
20.0262
20.0261
20.0322
20.0321
20.0267
20.0274
20.0326
20.0337
20.0245
20.0292
20.0304
20.0355
20.0153
20.0148
20.0213
20.0207
20.017
20.0126
20.0231
20.0185
20.0144
20.0143
20.0202
20.0202
20.0144
20.0143
20.0202
20.0202
20.0143
20.0143
20.0202
20.0202
20.0143
20.0143
20.0202
20.0202
20.0143
20.0144
20.0202
20.0202
20.0143
20.0144
20.0202
20.0202
20.0148
20.0153
20.0207
20.0213
20.0126
20.017
20.0185
20.0231
20.0035
20.0032
20.0094
20.009
20.0051
20.001
20.011
20.0068
20.0028
20.0027
20.0086
20.0085
20.0029
20.0028
20.0086
20.0085
20.0027
20.0027
20.0085
20.0085
20.0028
20.0028
20.0085
20.0085
20.0027
20.0028
20.0085
20.0086
20.0028
20.0029
20.0085
20.0086
20.0032
20.0035
20.009
20.0094
20.001
20.0051
20.0068
20.011
19.9921
19.9918
19.9978
19.9975
19.9936
19.9898
19.9993
19.9953
19.9916
19.9915
19.9972
19.9971
19.9916
19.9915
19.9972
19.9971
19.9914
19.9914
19.997
19.997
19.9915
19.9915
19.9971
19.9971
19.9915
19.9916
19.9971
19.9972
19.9915
19.9916
19.9971
19.9972
19.9918
19.9921
19.9975
19.9978
19.9898
19.9936
19.9953
19.9993
19.981
19.9807
19.9865
19.9862
19.9825
19.9789
19.988
19.9843
19.9806
19.9805
19.986
19.9859
19.9806
19.9805
19.9861
19.986
19.9804
19.9804
19.9859
19.9859
19.9805
19.9805
19.9859
19.9859
19.9805
19.9806
19.9859
19.986
19.9805
19.9806
19.986
19.9861
19.9807
19.981
19.9862
19.9865
19.9789
19.9825
19.9843
19.988
19.9702
19.9699
19.9755
19.9753
19.9717
19.9682
19.9771
19.9735
19.9698
19.9698
19.9752
19.9751
19.9699
19.9699
19.9752
19.9752
19.9697
19.9697
19.975
19.975
19.9698
19.9698
19.9751
19.9751
19.9698
19.9698
19.9751
19.9752
19.9699
19.9699
19.9752
19.9752
19.9699
19.9702
19.9753
19.9755
19.9682
19.9717
19.9735
19.9771
19.9598
19.9594
19.9649
19.9646
19.9612
19.9579
19.9664
19.963
19.9594
19.9594
19.9646
19.9645
19.9595
19.9595
19.9647
19.9646
19.9593
19.9593
19.9645
19.9645
19.9594
19.9594
19.9646
19.9646
19.9594
19.9594
19.9645
19.9646
19.9595
19.9595
19.9646
19.9647
19.9594
19.9598
19.9646
19.9649
19.9579
19.9612
19.963
19.9664
19.9496
19.9493
19.9547
19.9543
19.951
19.9478
19.9561
19.9528
19.9493
19.9493
19.9543
19.9543
19.9494
19.9494
19.9544
19.9544
19.9492
19.9492
19.9543
19.9543
19.9493
19.9493
19.9543
19.9543
19.9493
19.9493
19.9543
19.9543
19.9494
19.9494
19.9544
19.9544
19.9492
19.9496
19.9543
19.9547
19.9478
19.951
19.9528
19.9561
19.9398
19.9394
19.9447
19.9443
19.9412
19.9381
19.9461
19.9429
19.9395
19.9395
19.9444
19.9443
19.9396
19.9396
19.9445
19.9445
19.9395
19.9395
19.9443
19.9443
19.9396
19.9396
19.9444
19.9444
19.9395
19.9395
19.9443
19.9444
19.9396
19.9396
19.9445
19.9445
19.9394
19.9398
19.9443
19.9447
19.9381
19.9412
19.9429
19.9461
19.9304
19.9299
19.935
19.9346
19.9317
19.9286
19.9364
19.9333
19.93
19.93
19.9347
19.9347
19.9302
19.9302
19.9349
19.9348
19.93
19.93
19.9347
19.9347
19.9301
19.9301
19.9348
19.9348
19.93
19.93
19.9347
19.9347
19.9302
19.9302
19.9348
19.9349
19.9299
19.9303
19.9346
19.935
19.9286
19.9317
19.9333
19.9364
19.9212
19.9207
19.9257
19.9252
19.9225
19.9195
19.927
19.9241
19.9209
19.9209
19.9254
19.9254
19.921
19.921
19.9256
19.9256
19.9209
19.9209
19.9254
19.9254
19.921
19.921
19.9255
19.9255
19.9209
19.9209
19.9254
19.9254
19.921
19.921
19.9256
19.9256
19.9207
19.9212
19.9252
19.9257
19.9195
19.9225
19.9241
19.927
19.9124
19.9118
19.9168
19.9162
19.9136
19.9108
19.918
19.9151
19.912
19.9121
19.9164
19.9164
19.9122
19.9122
19.9166
19.9166
19.912
19.912
19.9164
19.9164
19.9122
19.9122
19.9166
19.9166
19.9121
19.912
19.9164
19.9164
19.9122
19.9122
19.9166
19.9166
19.9118
19.9124
19.9162
19.9168
19.9108
19.9136
19.9151
19.918
19.9039
19.9033
19.9082
19.9075
19.9051
19.9024
19.9093
19.9065
19.9036
19.9036
19.9078
19.9078
19.9038
19.9038
19.908
19.908
19.9036
19.9036
19.9078
19.9078
19.9038
19.9038
19.9079
19.9079
19.9036
19.9036
19.9078
19.9078
19.9038
19.9038
19.908
19.908
19.9033
19.9039
19.9075
19.9082
19.9024
19.9051
19.9065
19.9093
19.8958
19.8951
19.8998
19.8992
19.897
19.8943
19.901
19.8983
19.8954
19.8954
19.8994
19.8995
19.8956
19.8957
19.8997
19.8997
19.8954
19.8954
19.8994
19.8994
19.8956
19.8956
19.8997
19.8997
19.8954
19.8954
19.8995
19.8994
19.8957
19.8956
19.8997
19.8997
19.8951
19.8958
19.8992
19.8998
19.8943
19.897
19.8983
19.901
19.888
19.8873
19.8918
19.8912
19.8891
19.8866
19.893
19.8904
19.8876
19.8876
19.8915
19.8915
19.8879
19.8879
19.8917
19.8917
19.8876
19.8876
19.8915
19.8915
19.8879
19.8879
19.8917
19.8917
19.8876
19.8876
19.8915
19.8915
19.8879
19.8879
19.8917
19.8917
19.8873
19.888
19.8912
19.8918
19.8866
19.8891
19.8904
19.893
19.8806
19.8798
19.8842
19.8835
19.8817
19.8792
19.8854
19.8828
19.8802
19.8802
19.8838
19.8839
19.8805
19.8805
19.8841
19.8841
19.8802
19.8802
19.8839
19.8839
19.8805
19.8805
19.8841
19.8841
19.8802
19.8802
19.8839
19.8838
19.8805
19.8805
19.8841
19.8841
19.8798
19.8806
19.8835
19.8842
19.8792
19.8817
19.8828
19.8854
19.8735
19.8728
19.877
19.8763
19.8746
19.8722
19.8781
19.8757
19.8731
19.8731
19.8766
19.8766
19.8734
19.8734
19.8769
19.8769
19.8731
19.8731
19.8766
19.8766
19.8734
19.8734
19.8769
19.8769
19.8731
19.8731
19.8766
19.8766
19.8734
19.8734
19.8769
19.8769
19.8727
19.8735
19.8763
19.877
19.8722
19.8746
19.8757
19.8781
19.8668
19.866
19.8701
19.8693
19.8679
19.8655
19.8712
19.8688
19.8664
19.8664
19.8697
19.8697
19.8667
19.8667
19.87
19.87
19.8664
19.8664
19.8697
19.8697
19.8667
19.8667
19.87
19.87
19.8664
19.8664
19.8697
19.8697
19.8667
19.8667
19.87
19.87
19.866
19.8668
19.8693
19.8701
19.8655
19.8679
19.8688
19.8712
19.8604
19.8596
19.8636
19.8628
19.8615
19.8593
19.8646
19.8624
19.86
19.86
19.8631
19.8632
19.8604
19.8604
19.8635
19.8635
19.86
19.86
19.8632
19.8632
19.8604
19.8604
19.8635
19.8635
19.86
19.86
19.8632
19.8631
19.8604
19.8604
19.8635
19.8635
19.8596
19.8604
19.8628
19.8636
19.8592
19.8615
19.8623
19.8646
19.8544
19.8536
19.8574
19.8566
19.8555
19.8533
19.8585
19.8562
19.854
19.854
19.857
19.857
19.8544
19.8544
19.8574
19.8574
19.854
19.854
19.857
19.857
19.8544
19.8544
19.8574
19.8574
19.854
19.854
19.857
19.857
19.8544
19.8544
19.8574
19.8574
19.8536
19.8544
19.8566
19.8574
19.8533
19.8555
19.8562
19.8584
19.8488
19.848
19.8516
19.8508
19.8498
19.8478
19.8526
19.8505
19.8484
19.8484
19.8511
19.8512
19.8488
19.8488
19.8516
19.8516
19.8484
19.8484
19.8512
19.8512
19.8488
19.8488
19.8516
19.8516
19.8484
19.8484
19.8512
19.8511
19.8488
19.8488
19.8516
19.8516
19.848
19.8488
19.8507
19.8516
19.8477
19.8498
19.8505
19.8526
19.8435
19.8427
19.8461
19.8453
19.8446
19.8425
19.8472
19.8451
19.8431
19.8431
19.8457
19.8457
19.8436
19.8436
19.8462
19.8462
19.8431
19.8431
19.8457
19.8457
19.8436
19.8436
19.8462
19.8462
19.8431
19.8431
19.8457
19.8457
19.8436
19.8436
19.8462
19.8461
19.8427
19.8435
19.8453
19.8461
19.8425
19.8445
19.8451
19.8471
19.8386
19.8378
19.841
19.8402
19.8396
19.8377
19.842
19.8401
19.8382
19.8382
19.8406
19.8406
19.8387
19.8387
19.8411
19.8411
19.8382
19.8382
19.8406
19.8406
19.8387
19.8387
19.8411
19.8411
19.8382
19.8382
19.8406
19.8406
19.8387
19.8387
19.8411
19.8411
19.8378
19.8386
19.8402
19.841
19.8377
19.8396
19.8401
19.842
19.834
19.8332
19.8363
19.8354
19.835
19.8332
19.8373
19.8354
19.8336
19.8337
19.8358
19.8359
19.8341
19.8342
19.8364
19.8364
19.8337
19.8337
19.8359
19.8359
19.8342
19.8342
19.8364
19.8364
19.8336
19.8336
19.8359
19.8358
19.8342
19.8341
19.8364
19.8364
19.8332
19.834
19.8354
19.8362
19.8332
19.835
19.8354
19.8373
19.8298
19.8289
19.8318
19.831
19.8308
19.829
19.8329
19.831
19.8294
19.8294
19.8314
19.8315
19.8299
19.83
19.832
19.832
19.8294
19.8294
19.8315
19.8315
19.83
19.83
19.832
19.832
19.8294
19.8294
19.8315
19.8314
19.83
19.8299
19.832
19.832
19.8289
19.8298
19.831
19.8318
19.829
19.8308
19.831
19.8329
19.8258
19.825
19.8278
19.827
19.8269
19.8251
19.8288
19.827
19.8255
19.8255
19.8274
19.8274
19.8261
19.8261
19.828
19.828
19.8255
19.8255
19.8274
19.8274
19.8261
19.8261
19.828
19.828
19.8255
19.8255
19.8274
19.8274
19.8261
19.8261
19.828
19.828
19.825
19.8258
19.8269
19.8278
19.8251
19.8269
19.827
19.8288
19.8223
19.8215
19.824
19.8232
19.8233
19.8216
19.8251
19.8233
19.8219
19.822
19.8236
19.8237
19.8225
19.8226
19.8243
19.8243
19.822
19.822
19.8237
19.8237
19.8226
19.8226
19.8243
19.8243
19.8219
19.8219
19.8237
19.8236
19.8226
19.8225
19.8243
19.8243
19.8215
19.8222
19.8232
19.824
19.8216
19.8233
19.8233
19.8251
19.819
19.8182
19.8206
19.8198
19.82
19.8184
19.8216
19.82
19.8186
19.8187
19.8202
19.8203
19.8193
19.8193
19.8209
19.8209
19.8187
19.8187
19.8203
19.8203
19.8193
19.8193
19.8209
19.8209
19.8187
19.8186
19.8203
19.8202
19.8193
19.8193
19.8209
19.8209
19.8182
19.819
19.8198
19.8206
19.8184
19.82
19.82
19.8216
19.816
19.8152
19.8174
19.8167
19.8171
19.8155
19.8185
19.8169
19.8157
19.8157
19.8171
19.8172
19.8164
19.8164
19.8178
19.8178
19.8157
19.8157
19.8172
19.8172
19.8164
19.8164
19.8178
19.8178
19.8157
19.8157
19.8172
19.8171
19.8164
19.8164
19.8178
19.8178
19.8152
19.816
19.8167
19.8174
19.8155
19.817
19.8169
19.8185
19.8133
19.8126
19.8146
19.8139
19.8144
19.8128
19.8157
19.8141
19.813
19.813
19.8143
19.8143
19.8137
19.8137
19.815
19.815
19.8131
19.813
19.8144
19.8144
19.8137
19.8137
19.815
19.815
19.813
19.813
19.8143
19.8143
19.8137
19.8137
19.815
19.815
19.8125
19.8133
19.8139
19.8146
19.8128
19.8144
19.8141
19.8157
19.8109
19.8101
19.812
19.8113
19.8119
19.8105
19.8131
19.8116
19.8106
19.8106
19.8117
19.8118
19.8113
19.8113
19.8125
19.8125
19.8106
19.8106
19.8118
19.8118
19.8114
19.8113
19.8125
19.8125
19.8106
19.8106
19.8118
19.8117
19.8113
19.8113
19.8125
19.8125
19.8101
19.8109
19.8113
19.812
19.8105
19.8119
19.8116
19.8131
19.8087
19.808
19.8097
19.809
19.8098
19.8083
19.8108
19.8094
19.8084
19.8085
19.8095
19.8095
19.8092
19.8092
19.8102
19.8102
19.8085
19.8085
19.8095
19.8095
19.8092
19.8092
19.8103
19.8103
19.8085
19.8084
19.8095
19.8095
19.8092
19.8092
19.8102
19.8102
19.808
19.8087
19.809
19.8097
19.8083
19.8098
19.8094
19.8108
19.8068
19.8061
19.8077
19.807
19.8079
19.8065
19.8088
19.8074
19.8065
19.8066
19.8074
19.8075
19.8073
19.8073
19.8082
19.8082
19.8066
19.8066
19.8075
19.8075
19.8073
19.8073
19.8082
19.8082
19.8066
19.8065
19.8075
19.8074
19.8073
19.8073
19.8082
19.8082
19.8061
19.8068
19.807
19.8077
19.8065
19.8079
19.8074
19.8088
19.805
19.8045
19.8059
19.8053
19.8062
19.8048
19.807
19.8056
19.8048
19.8049
19.8056
19.8057
19.8056
19.8057
19.8064
19.8065
19.8049
19.8049
19.8057
19.8057
19.8057
19.8057
19.8065
19.8065
19.8049
19.8048
19.8057
19.8056
19.8057
19.8056
19.8065
19.8064
19.8045
19.805
19.8053
19.8059
19.8048
19.8062
19.8056
19.807
20.0984
20.0835
20.1018
20.0925
20.0987
20.0829
20.102
20.0922
20.0893
20.0898
20.0963
20.0966
20.0892
20.0898
20.0963
20.0966
20.0899
20.0899
20.0966
20.0966
20.0898
20.0898
20.0966
20.0966
20.0898
20.0893
20.0966
20.0963
20.0898
20.0892
20.0966
20.0963
20.0835
20.0984
20.0925
20.1018
20.0829
20.0987
20.0922
20.102
20.0822
20.0734
20.0903
20.0784
20.0827
20.0725
20.0908
20.0777
20.0758
20.0764
20.0825
20.0831
20.0758
20.0764
20.0824
20.0831
20.0765
20.0765
20.0832
20.0832
20.0766
20.0766
20.0832
20.0832
20.0764
20.0758
20.0831
20.0825
20.0764
20.0758
20.0831
20.0824
20.0734
20.0822
20.0784
20.0903
20.0725
20.0827
20.0777
20.0908
20.0673
20.0621
20.0746
20.0679
20.0678
20.0612
20.0752
20.0669
20.0628
20.0634
20.0692
20.0699
20.0628
20.0634
20.0692
20.0699
20.0635
20.0635
20.07
20.07
20.0635
20.0635
20.07
20.07
20.0634
20.0628
20.0699
20.0692
20.0634
20.0628
20.0699
20.0692
20.0621
20.0673
20.0679
20.0746
20.0612
20.0678
20.0669
20.0752
20.0534
20.0503
20.0602
20.0563
20.0539
20.0495
20.0608
20.0554
20.0503
20.0506
20.0565
20.0569
20.0503
20.0506
20.0565
20.057
20.0507
20.0507
20.0571
20.0571
20.0508
20.0508
20.0571
20.0571
20.0506
20.0503
20.0569
20.0565
20.0506
20.0503
20.057
20.0565
20.0503
20.0534
20.0563
20.0602
20.0495
20.0539
20.0554
20.0608
20.0402
20.0382
20.0467
20.0443
20.0407
20.0376
20.0473
20.0435
20.038
20.0382
20.0441
20.0443
20.038
20.0382
20.0441
20.0444
20.0383
20.0383
20.0445
20.0445
20.0383
20.0383
20.0445
20.0445
20.0382
20.038
20.0443
20.0441
20.0382
20.038
20.0444
20.0441
20.0382
20.0402
20.0443
20.0467
20.0376
20.0407
20.0435
20.0473
20.0276
20.0262
20.0338
20.0322
20.028
20.0257
20.0343
20.0316
20.026
20.026
20.0319
20.0321
20.026
20.0261
20.032
20.0321
20.0261
20.0261
20.0321
20.0321
20.0261
20.0261
20.0322
20.0322
20.026
20.026
20.0321
20.0319
20.0261
20.026
20.0321
20.032
20.0262
20.0276
20.0322
20.0338
20.0257
20.028
20.0316
20.0343
20.0154
20.0144
20.0214
20.0203
20.0158
20.0139
20.0219
20.0197
20.0142
20.0142
20.02
20.0201
20.0142
20.0142
20.0201
20.0201
20.0142
20.0142
20.0201
20.0201
20.0142
20.0142
20.0201
20.0201
20.0142
20.0142
20.0201
20.02
20.0142
20.0142
20.0201
20.0201
20.0144
20.0154
20.0203
20.0214
20.0139
20.0158
20.0197
20.0219
20.0036
20.0027
20.0094
20.0085
20.0039
20.0023
20.0098
20.0081
20.0026
20.0026
20.0084
20.0083
20.0027
20.0027
20.0084
20.0084
20.0026
20.0026
20.0083
20.0083
20.0026
20.0026
20.0084
20.0084
20.0026
20.0026
20.0083
20.0084
20.0027
20.0027
20.0084
20.0084
20.0027
20.0036
20.0085
20.0094
20.0023
20.0039
20.0081
20.0098
19.9921
19.9913
19.9978
19.997
19.9924
19.9911
19.9981
19.9967
19.9913
19.9913
19.9969
19.9969
19.9914
19.9914
19.997
19.997
19.9913
19.9913
19.9969
19.9969
19.9913
19.9913
19.997
19.997
19.9913
19.9913
19.9969
19.9969
19.9914
19.9914
19.997
19.997
19.9913
19.9921
19.997
19.9978
19.9911
19.9924
19.9967
19.9981
19.981
19.9803
19.9865
19.9858
19.9813
19.9801
19.9868
19.9856
19.9803
19.9803
19.9858
19.9857
19.9804
19.9804
19.9859
19.9858
19.9802
19.9802
19.9857
19.9857
19.9803
19.9803
19.9858
19.9858
19.9803
19.9803
19.9857
19.9858
19.9804
19.9804
19.9858
19.9859
19.9803
19.981
19.9858
19.9865
19.9801
19.9813
19.9855
19.9868
19.9701
19.9695
19.9755
19.9748
19.9705
19.9694
19.9758
19.9747
19.9696
19.9695
19.9749
19.9749
19.9697
19.9697
19.975
19.975
19.9695
19.9695
19.9748
19.9748
19.9696
19.9696
19.975
19.975
19.9695
19.9696
19.9749
19.9749
19.9697
19.9697
19.975
19.975
19.9695
19.9701
19.9748
19.9755
19.9694
19.9704
19.9747
19.9758
19.9596
19.959
19.9648
19.9642
19.9599
19.959
19.9651
19.9641
19.9591
19.9591
19.9643
19.9643
19.9593
19.9593
19.9644
19.9644
19.9591
19.9591
19.9643
19.9643
19.9592
19.9592
19.9644
19.9644
19.9591
19.9591
19.9643
19.9643
19.9593
19.9593
19.9644
19.9644
19.959
19.9596
19.9642
19.9648
19.959
19.9599
19.9641
19.9651
19.9494
19.9488
19.9545
19.9539
19.9497
19.9488
19.9548
19.9539
19.949
19.949
19.954
19.954
19.9491
19.9491
19.9542
19.9542
19.9489
19.9489
19.954
19.954
19.9491
19.9491
19.9541
19.9541
19.949
19.949
19.954
19.954
19.9491
19.9491
19.9542
19.9542
19.9488
19.9494
19.9539
19.9545
19.9488
19.9497
19.9539
19.9548
19.9396
19.939
19.9444
19.9439
19.9399
19.939
19.9448
19.9439
19.9391
19.9391
19.944
19.944
19.9393
19.9393
19.9442
19.9442
19.9391
19.9391
19.944
19.944
19.9393
19.9393
19.9442
19.9442
19.9391
19.9391
19.944
19.944
19.9393
19.9393
19.9442
19.9442
19.939
19.9395
19.9439
19.9444
19.939
19.9399
19.9439
19.9448
19.93
19.9295
19.9347
19.9342
19.9304
19.9295
19.935
19.9343
19.9296
19.9296
19.9343
19.9343
19.9298
19.9298
19.9345
19.9345
19.9296
19.9296
19.9343
19.9343
19.9298
19.9298
19.9345
19.9345
19.9296
19.9296
19.9343
19.9343
19.9298
19.9298
19.9345
19.9345
19.9294
19.93
19.9342
19.9347
19.9295
19.9303
19.9343
19.9351
19.9207
19.9202
19.9253
19.9248