/*--------------------------------*- C++ -*----------------------------------*\
  =========                 |
  \\      /  F ield         | OpenFOAM: The Open Source CFD Toolbox
   \\    /   O peration     | Website:  https://openfoam.org
    \\  /    A nd           | Version:  9
     \\/     M anipulation  |
\*---------------------------------------------------------------------------*/
FoamFile
{
    format      ascii;
    class       volVectorField;
    location    "0.1";
    object      U;
}
// * * * * * * * * * * * * * * * * * * * * * * * * * * * * * * * * * * * * * //

dimensions      [0 1 -1 0 0 0 0];

internalField   nonuniform List<vector> 
36360
(
(0.00145352 -0.234219 -0.996636)
(-0.00208265 -0.228198 0.000184154)
(0.00152117 -0.23884 -1.00194)
(-0.00251586 -0.221723 0.000111362)
(-0.0027076 -0.229834 -0.995604)
(0.00339376 -0.229103 9.99618e-05)
(-0.000954073 -0.231898 -1.0035)
(0.00587198 -0.228734 6.50182e-05)
(-7.33011e-05 -0.231943 -0.000118563)
(-0.000191936 -0.231733 -1.30058e-05)
(-0.00035984 -0.231491 -7.54798e-05)
(-0.000403449 -0.231026 -6.44136e-06)
(0.000307888 -0.230359 -6.89454e-05)
(0.000157087 -0.230019 -9.35846e-06)
(0.00236 -0.231509 -5.4211e-05)
(0.00223684 -0.230874 -5.49033e-06)
(-0.000201249 -0.231649 -1.32865e-06)
(-0.000201249 -0.231649 1.33045e-06)
(-0.000407397 -0.23091 -3.82792e-07)
(-0.000407397 -0.23091 3.8347e-07)
(0.000150792 -0.229933 -1.25978e-06)
(0.000150793 -0.229933 1.26149e-06)
(0.00223233 -0.230761 -5.0806e-07)
(0.00223233 -0.230761 5.08759e-07)
(-0.000191936 -0.231733 1.30075e-05)
(-7.33003e-05 -0.231943 0.000118565)
(-0.000403449 -0.231026 6.44209e-06)
(-0.00035984 -0.231491 7.54805e-05)
(0.00015709 -0.230019 9.36029e-06)
(0.000307894 -0.230359 6.8947e-05)
(0.00223684 -0.230874 5.49112e-06)
(0.00236001 -0.231509 5.42117e-05)
(-0.00208265 -0.228198 -0.000184154)
(0.00145353 -0.234219 0.996636)
(-0.00251586 -0.221723 -0.000111362)
(0.00152117 -0.23884 1.00194)
(0.00339376 -0.229103 -9.99612e-05)
(-0.0027076 -0.229834 0.995604)
(0.00587198 -0.228734 -6.5018e-05)
(-0.000954075 -0.231898 1.0035)
(0.00221579 -0.233718 -0.993028)
(-0.002398 -0.22903 0.000118255)
(0.00190759 -0.234353 -0.997081)
(-0.00221628 -0.2285 0.00015448)
(-0.00184311 -0.231733 -0.99846)
(0.00198292 -0.227936 4.60731e-05)
(-0.0023089 -0.231589 -0.998782)
(0.00234642 -0.227707 7.33264e-05)
(0.000220712 -0.231216 -4.73475e-05)
(7.17455e-05 -0.231438 -1.42822e-05)
(0.00012779 -0.231604 -8.34519e-05)
(-1.39907e-05 -0.231676 -1.41445e-05)
(8.23447e-05 -0.229808 -1.20635e-05)
(-1.91829e-05 -0.229961 -1.09457e-05)
(5.08404e-05 -0.229903 -3.97244e-05)
(-6.49576e-05 -0.229922 -1.07109e-05)
(5.95624e-05 -0.231413 -2.18788e-06)
(5.95641e-05 -0.231414 2.192e-06)
(-2.33718e-05 -0.231621 -1.828e-06)
(-2.33709e-05 -0.231621 1.83139e-06)
(-2.24681e-05 -0.229936 -2.2425e-06)
(-2.24678e-05 -0.229936 2.24675e-06)
(-7.06883e-05 -0.229872 -1.65052e-06)
(-7.06875e-05 -0.229872 1.65334e-06)
(7.17484e-05 -0.231438 1.42854e-05)
(0.000220717 -0.231216 4.73508e-05)
(-1.39898e-05 -0.231676 1.41466e-05)
(0.000127792 -0.231604 8.34533e-05)
(-1.91844e-05 -0.229961 1.09498e-05)
(8.23456e-05 -0.229808 1.20661e-05)
(-6.49567e-05 -0.229922 1.07131e-05)
(5.08464e-05 -0.229903 3.97265e-05)
(-0.00239801 -0.22903 -0.000118253)
(0.00221579 -0.233718 0.993028)
(-0.00221629 -0.2285 -0.000154479)
(0.00190759 -0.234353 0.997081)
(0.00198293 -0.227936 -4.60716e-05)
(-0.00184311 -0.231733 0.99846)
(0.00234642 -0.227707 -7.33253e-05)
(-0.00230889 -0.231589 0.998782)
(0.0024868 -0.23231 -0.998798)
(-0.00243786 -0.230199 7.16541e-05)
(0.00239808 -0.232861 -0.995309)
(-0.00244779 -0.229802 9.24057e-05)
(-0.00153786 -0.230864 -0.994656)
(0.00179053 -0.228801 9.57811e-06)
(-0.00161357 -0.231279 -0.994327)
(0.00182346 -0.228473 2.65271e-05)
(0.000288575 -0.23089 -4.38005e-06)
(0.000158257 -0.231134 -1.17027e-05)
(0.000260215 -0.231031 -2.24496e-05)
(0.0001185 -0.231283 -1.34493e-05)
(0.000127937 -0.22954 2.48457e-05)
(5.15096e-05 -0.229773 -8.66703e-06)
(0.000109323 -0.229672 8.46706e-06)
(2.51596e-05 -0.229898 -1.0153e-05)
(0.000140337 -0.231163 -2.88822e-06)
(0.000140337 -0.231163 2.89573e-06)
(0.000103074 -0.231286 -2.65454e-06)
(0.000103075 -0.231286 2.66033e-06)
(4.36152e-05 -0.229802 -2.78457e-06)
(4.36152e-05 -0.229802 2.79212e-06)
(1.71451e-05 -0.229902 -2.4968e-06)
(1.71448e-05 -0.229902 2.50272e-06)
(0.00015826 -0.231134 1.17097e-05)
(0.000288577 -0.23089 4.38531e-06)
(0.000118503 -0.231283 1.34548e-05)
(0.000260219 -0.231031 2.24535e-05)
(5.15129e-05 -0.229773 8.67412e-06)
(0.000127937 -0.22954 -2.48406e-05)
(2.51609e-05 -0.229898 1.01584e-05)
(0.000109325 -0.229672 -8.46332e-06)
(-0.00243785 -0.230199 -7.16499e-05)
(0.0024868 -0.23231 0.998798)
(-0.00244778 -0.229802 -9.24028e-05)
(0.00239808 -0.232861 0.995309)
(0.00179054 -0.228801 -9.5741e-06)
(-0.00153786 -0.230864 0.994656)
(0.00182346 -0.228473 -2.65244e-05)
(-0.00161358 -0.231279 0.994327)
(0.00260135 -0.231494 -0.990523)
(-0.00238965 -0.230497 3.86231e-05)
(0.00254913 -0.231855 -0.994646)
(-0.00241377 -0.230414 5.38643e-05)
(-0.00152023 -0.230116 -0.997061)
(0.00180734 -0.229083 -1.84676e-05)
(-0.00152013 -0.230466 -0.994201)
(0.00179352 -0.228998 -5.61391e-06)
(0.000338644 -0.23064 1.7366e-05)
(0.000225737 -0.23082 -6.941e-06)
(0.000313679 -0.230763 8.69404e-06)
(0.000193016 -0.230982 -9.63079e-06)
(0.000150374 -0.229292 4.56512e-05)
(7.63579e-05 -0.229472 -4.03888e-06)
(0.000140292 -0.229417 3.70387e-05)
(6.51495e-05 -0.229631 -6.55003e-06)
(0.000206307 -0.230872 -2.61592e-06)
(0.000206305 -0.230872 2.62696e-06)
(0.000173294 -0.231028 -2.87752e-06)
(0.000173292 -0.231028 2.88705e-06)
(6.97555e-05 -0.229522 -2.50475e-06)
(6.97555e-05 -0.229522 2.51574e-06)
(5.75474e-05 -0.229676 -2.74805e-06)
(5.75471e-05 -0.229676 2.75737e-06)
(0.000225739 -0.23082 6.95143e-06)
(0.00033864 -0.23064 -1.73575e-05)
(0.000193018 -0.230982 9.63919e-06)
(0.000313676 -0.230763 -8.68748e-06)
(7.63604e-05 -0.229472 4.04953e-06)
(0.000150372 -0.229293 -4.56427e-05)
(6.51532e-05 -0.229631 6.55877e-06)
(0.00014029 -0.229417 -3.70321e-05)
(-0.00238964 -0.230497 -3.86162e-05)
(0.00260136 -0.231494 0.990523)
(-0.00241377 -0.230414 -5.38584e-05)
(0.00254913 -0.231855 0.994646)
(0.00180735 -0.229083 1.84742e-05)
(-0.00152023 -0.230116 0.997061)
(0.00179352 -0.228998 5.61933e-06)
(-0.00152013 -0.230466 0.994201)
(0.00269616 -0.230824 -0.993006)
(-0.00232106 -0.230398 1.63921e-05)
(0.00265165 -0.231141 -0.993298)
(-0.00236205 -0.230487 2.65692e-05)
(-0.00153876 -0.22945 -0.995858)
(0.00184165 -0.228999 -3.8489e-05)
(-0.00152817 -0.229762 -0.997295)
(0.00182276 -0.22908 -2.92359e-05)
(0.00039287 -0.230347 2.74998e-05)
(0.00029162 -0.230446 -1.8857e-06)
(0.000365002 -0.230504 2.34084e-05)
(0.000258181 -0.230643 -4.29695e-06)
(0.000173928 -0.228996 5.51985e-05)
(9.9066e-05 -0.229099 8.42529e-07)
(0.000161746 -0.229155 5.14808e-05)
(8.75113e-05 -0.229295 -1.50455e-06)
(0.000276797 -0.230493 -1.73538e-06)
(0.000276795 -0.230493 1.7503e-06)
(0.000240733 -0.230694 -2.21274e-06)
(0.00024073 -0.230694 2.22559e-06)
(9.41411e-05 -0.229144 -1.64648e-06)
(9.41402e-05 -0.229144 1.66138e-06)
(8.17935e-05 -0.229344 -2.11607e-06)
(8.17928e-05 -0.229344 2.12891e-06)
(0.000291622 -0.230446 1.90014e-06)
(0.000392864 -0.230347 -2.74875e-05)
(0.000258183 -0.230643 4.30934e-06)
(0.000364995 -0.230504 -2.3398e-05)
(9.90668e-05 -0.229099 -8.28096e-07)
(0.000173926 -0.228996 -5.51864e-05)
(8.7513e-05 -0.229295 1.51708e-06)
(0.000161744 -0.229155 -5.14704e-05)
(-0.00232105 -0.230398 -1.63829e-05)
(0.00269618 -0.230824 0.993006)
(-0.00236205 -0.230487 -2.65611e-05)
(0.00265166 -0.231141 0.993298)
(0.00184166 -0.228999 3.84976e-05)
(-0.00153875 -0.22945 0.995858)
(0.00182276 -0.22908 2.92435e-05)
(-0.00152817 -0.229762 0.997295)
(0.0027847 -0.2302 -0.990018)
(-0.00223358 -0.230055 1.01221e-06)
(0.00274102 -0.230505 -0.989289)
(-0.00227744 -0.230249 7.75175e-06)
(-0.00155715 -0.228818 -0.997662)
(0.00187601 -0.228661 -5.16055e-05)
(-0.00154937 -0.229124 -0.996819)
(0.00185974 -0.228854 -4.58559e-05)
(0.00045516 -0.229951 3.17064e-05)
(0.000365519 -0.22999 2.04243e-06)
(0.000422703 -0.230164 3.01024e-05)
(0.000327331 -0.23023 2.44834e-07)
(0.000200702 -0.228599 5.829e-05)
(0.000124656 -0.228641 4.65641e-06)
(0.000186911 -0.228812 5.73327e-05)
(0.000111468 -0.228881 2.90919e-06)
(0.000352731 -0.230022 -7.16663e-07)
(0.000352733 -0.230022 7.35562e-07)
(0.000314019 -0.230269 -1.22339e-06)
(0.000314019 -0.230269 1.24044e-06)
(0.000119842 -0.228673 -6.65077e-07)
(0.000119842 -0.228674 6.83735e-07)
(0.000106736 -0.228921 -1.16485e-06)
(0.000106737 -0.228921 1.18175e-06)
(0.000365517 -0.22999 -2.0242e-06)
(0.000455156 -0.229951 -3.16921e-05)
(0.000327328 -0.23023 -2.28385e-07)
(0.000422696 -0.230164 -3.00889e-05)
(0.000124653 -0.228641 -4.63837e-06)
(0.0002007 -0.228599 -5.82761e-05)
(0.000111465 -0.228881 -2.89278e-06)
(0.000186908 -0.228812 -5.73196e-05)
(-0.00223356 -0.230055 -1.00196e-06)
(0.00278472 -0.2302 0.990018)
(-0.00227743 -0.230249 -7.74179e-06)
(0.00274104 -0.230505 0.989289)
(0.00187602 -0.228661 5.16151e-05)
(-0.00155714 -0.228818 0.997662)
(0.00185975 -0.228854 4.58651e-05)
(-0.00154936 -0.229125 0.996819)
(0.00288914 -0.229531 -0.988259)
(-0.00214945 -0.229554 -9.07783e-06)
(0.00283609 -0.22987 -0.989572)
(-0.00219041 -0.229821 -4.45841e-06)
(-0.00156958 -0.228151 -0.994961)
(0.0019213 -0.22815 -6.00864e-05)
(-0.00156298 -0.228484 -0.999295)
(0.00189489 -0.228425 -5.61061e-05)
(0.000530275 -0.229431 3.40112e-05)
(0.000449471 -0.229435 4.51183e-06)
(0.000490932 -0.229707 3.28209e-05)
(0.000406256 -0.229726 3.45353e-06)
(0.000231203 -0.228077 5.81467e-05)
(0.000153445 -0.228085 7.17864e-06)
(0.000215431 -0.228354 5.84887e-05)
(0.000138632 -0.228377 6.07971e-06)
(0.000436769 -0.229452 1.85269e-07)
(0.000436771 -0.229452 -1.64256e-07)
(0.000393498 -0.22975 -2.35735e-07)
(0.000393501 -0.22975 2.55843e-07)
(0.000148432 -0.228103 2.49654e-07)
(0.00014843 -0.228103 -2.28723e-07)
(0.00013371 -0.228401 -1.83048e-07)
(0.00013371 -0.228401 2.02998e-07)
(0.000449476 -0.229435 -4.49204e-06)
(0.000530281 -0.229431 -3.3998e-05)
(0.000406255 -0.229726 -3.43429e-06)
(0.000490931 -0.229707 -3.28067e-05)
(0.000153443 -0.228085 -7.15916e-06)
(0.000231205 -0.228078 -5.8132e-05)
(0.000138629 -0.228377 -6.0607e-06)
(0.000215429 -0.228354 -5.84744e-05)
(-0.00214944 -0.229554 9.08769e-06)
(0.00288916 -0.229531 0.988259)
(-0.00219039 -0.229821 4.46835e-06)
(0.00283612 -0.22987 0.989572)
(0.0019213 -0.22815 6.00966e-05)
(-0.00156958 -0.228151 0.99496)
(0.0018949 -0.228425 5.61158e-05)
(-0.00156298 -0.228485 0.999295)
(0.00299188 -0.228804 -0.989359)
(-0.00207885 -0.228919 -1.53719e-05)
(0.00293983 -0.229174 -0.989627)
(-0.00211193 -0.229253 -1.25682e-05)
(-0.0015777 -0.22742 -0.992197)
(0.00199254 -0.227488 -6.50758e-05)
(-0.00157568 -0.227785 -0.990543)
(0.00195499 -0.227837 -6.31515e-05)
(0.000617264 -0.228781 3.55619e-05)
(0.000544345 -0.228766 5.86286e-06)
(0.000572558 -0.229123 3.49549e-05)
(0.00049545 -0.229115 5.37378e-06)
(0.000265388 -0.227428 5.60042e-05)
(0.000185908 -0.227416 8.72725e-06)
(0.000247986 -0.227769 5.73772e-05)
(0.000169186 -0.227766 8.08317e-06)
(0.000531763 -0.228772 8.63159e-07)
(0.000531766 -0.228772 -8.41434e-07)
(0.000482821 -0.229127 5.67293e-07)
(0.000482822 -0.229127 -5.45679e-07)
(0.000180762 -0.227422 9.73871e-07)
(0.000180762 -0.227422 -9.51779e-07)
(0.000164095 -0.227777 6.42102e-07)
(0.000164094 -0.227777 -6.20466e-07)
(0.000544351 -0.228766 -5.84182e-06)
(0.000617266 -0.228781 -3.55472e-05)
(0.000495457 -0.229116 -5.35325e-06)
(0.000572564 -0.229123 -3.49406e-05)
(0.000185913 -0.227416 -8.70711e-06)
(0.000265392 -0.227428 -5.59887e-05)
(0.000169187 -0.227766 -8.06322e-06)
(0.000247991 -0.227769 -5.73621e-05)
(-0.00207885 -0.228919 1.53826e-05)
(0.00299189 -0.228804 0.989359)
(-0.00211193 -0.229253 1.25783e-05)
(0.00293986 -0.229174 0.989627)
(0.00199256 -0.227488 6.50868e-05)
(-0.00157773 -0.22742 0.992197)
(0.00195501 -0.227837 6.31619e-05)
(-0.00157571 -0.227785 0.990543)
(0.00310785 -0.227957 -0.987384)
(-0.00201211 -0.228131 -1.95772e-05)
(0.00305134 -0.228391 -0.98709)
(-0.00205105 -0.228547 -1.76853e-05)
(-0.00157791 -0.226573 -0.989557)
(0.00210029 -0.226674 -6.78122e-05)
(-0.00157805 -0.227006 -0.991802)
(0.00204172 -0.227099 -6.65595e-05)
(0.000714507 -0.227993 3.57084e-05)
(0.000651796 -0.227968 6.73172e-06)
(0.000664226 -0.228405 3.63307e-05)
(0.000596425 -0.228384 6.41647e-06)
(0.00030304 -0.226638 5.12248e-05)
(0.00022238 -0.226618 9.06681e-06)
(0.000283461 -0.227051 5.34939e-05)
(0.000203565 -0.227034 9.05585e-06)
(0.00063897 -0.227967 1.26131e-06)
(0.000638973 -0.227967 -1.25706e-06)
(0.000583716 -0.228386 1.10329e-06)
(0.000583719 -0.228386 -1.08324e-06)
(0.000217285 -0.226617 1.40291e-06)
(0.000217282 -0.226617 -1.3656e-06)
(0.000198484 -0.227036 1.25381e-06)
(0.000198484 -0.227036 -1.23277e-06)
(0.000651785 -0.227968 -6.68349e-06)
(0.000714502 -0.227993 -3.56833e-05)
(0.000596426 -0.228384 -6.39233e-06)
(0.00066422 -0.228405 -3.63151e-05)
(0.000222372 -0.226618 -9.06972e-06)
(0.000303053 -0.226638 -5.12179e-05)
(0.000203571 -0.227034 -9.03526e-06)
(0.000283462 -0.227051 -5.34766e-05)
(-0.00201212 -0.228131 1.95723e-05)
(0.00310784 -0.227957 0.987384)
(-0.00205107 -0.228547 1.76951e-05)
(0.00305137 -0.228391 0.98709)
(0.00210033 -0.226674 6.78387e-05)
(-0.00157795 -0.226573 0.989557)
(0.00204174 -0.227099 6.657e-05)
(-0.00157809 -0.227006 0.991802)
(0.0032337 -0.226992 -0.990309)
(-0.00191486 -0.227174 -2.18263e-05)
(0.00316558 -0.227489 -0.986943)
(-0.00196364 -0.227672 -2.11041e-05)
(-0.00157262 -0.225617 -0.992299)
(0.00221875 -0.225724 -6.87912e-05)
(-0.00157643 -0.226101 -0.98912)
(0.00216008 -0.226216 -6.87146e-05)
(0.000828026 -0.227054 3.28174e-05)
(0.000773645 -0.227029 6.59302e-06)
(0.000769149 -0.227543 3.41228e-05)
(0.00071081 -0.227517 6.63958e-06)
(0.000346989 -0.225699 4.89673e-05)
(0.000263901 -0.225678 9.00443e-06)
(0.000324409 -0.226188 4.99936e-05)
(0.000242469 -0.226167 9.16508e-06)
(0.000760527 -0.227024 1.42846e-06)
(0.000760531 -0.227024 -1.41286e-06)
(0.000697799 -0.227514 1.37915e-06)
(0.000697807 -0.227514 -1.34596e-06)
(0.000258568 -0.225673 1.60308e-06)
(0.000258567 -0.225673 -1.57396e-06)
(0.000237243 -0.226163 1.54641e-06)
(0.000237248 -0.226163 -1.52992e-06)
(0.000773635 -0.227029 -6.55959e-06)
(0.000828011 -0.227054 -3.27925e-05)
(0.000710804 -0.227517 -6.63074e-06)
(0.000769132 -0.227543 -3.41159e-05)
(0.000263892 -0.225678 -8.98764e-06)
(0.000346988 -0.225699 -4.89516e-05)
(0.00024247 -0.226167 -9.13057e-06)
(0.000324398 -0.226188 -4.9972e-05)
(-0.00191486 -0.227174 2.18309e-05)
(0.00323371 -0.226992 0.990309)
(-0.00196365 -0.227672 2.1125e-05)
(0.00316559 -0.227489 0.986943)
(0.00221874 -0.225724 6.88073e-05)
(-0.00157263 -0.225617 0.992299)
(0.00216006 -0.226216 6.87189e-05)
(-0.00157645 -0.226101 0.98912)
(0.00337952 -0.225869 -0.98607)
(-0.00179451 -0.226062 -2.38379e-05)
(0.00330658 -0.226448 -0.989949)
(-0.00185903 -0.226638 -2.28053e-05)
(-0.00156022 -0.224498 -0.992438)
(0.0023318 -0.224619 -6.93725e-05)
(-0.0015673 -0.225059 -0.991939)
(0.00227596 -0.225192 -6.92465e-05)
(0.000958798 -0.225955 3.02695e-05)
(0.000911464 -0.225932 6.10002e-06)
(0.000891183 -0.226526 3.15137e-05)
(0.000840483 -0.226501 6.39009e-06)
(0.000395833 -0.224601 4.66229e-05)
(0.000310861 -0.224581 8.52275e-06)
(0.000370766 -0.225171 4.77949e-05)
(0.000286687 -0.22515 8.72578e-06)
(0.000898496 -0.225926 1.44844e-06)
(0.000898504 -0.225926 -1.41532e-06)
(0.000827387 -0.226495 1.44436e-06)
(0.000827394 -0.226495 -1.42074e-06)
(0.00030544 -0.224575 1.61065e-06)
(0.000305443 -0.224575 -1.58082e-06)
(0.000281293 -0.225144 1.60303e-06)
(0.000281294 -0.225144 -1.57439e-06)
(0.000911455 -0.225932 -6.07443e-06)
(0.000958785 -0.225955 -3.02516e-05)
(0.000840473 -0.226501 -6.36107e-06)
(0.000891168 -0.226526 -3.14924e-05)
(0.000310857 -0.224581 -8.49222e-06)
(0.00039583 -0.224601 -4.65999e-05)
(0.00028668 -0.22515 -8.69995e-06)
(0.000370764 -0.225171 -4.77763e-05)
(-0.00179452 -0.226062 2.38535e-05)
(0.00337952 -0.225869 0.986069)
(-0.00185904 -0.226638 2.28152e-05)
(0.00330659 -0.226448 0.989949)
(0.00233179 -0.224619 6.93858e-05)
(-0.00156023 -0.224498 0.992438)
(0.00227594 -0.225192 6.92599e-05)
(-0.0015673 -0.225059 0.991938)
(0.00353478 -0.224589 -0.989043)
(-0.0016493 -0.224781 -2.43592e-05)
(0.00345478 -0.225255 -0.989936)
(-0.00172375 -0.225443 -2.38241e-05)
(-0.00154332 -0.223216 -0.991308)
(0.00244004 -0.223343 -6.92499e-05)
(-0.0015523 -0.223862 -0.995909)
(0.00238627 -0.224003 -6.87416e-05)
(0.00110833 -0.224683 2.82994e-05)
(0.00106701 -0.224663 5.46315e-06)
(0.00103116 -0.225342 2.93083e-05)
(0.000986924 -0.22532 5.82847e-06)
(0.000450124 -0.223329 4.42882e-05)
(0.00036383 -0.223312 7.86377e-06)
(0.000422257 -0.223987 4.55253e-05)
(0.000336563 -0.223969 8.24827e-06)
(0.00105453 -0.224657 1.35385e-06)
(0.00105455 -0.224657 -1.31465e-06)
(0.000974166 -0.225314 1.42288e-06)
(0.000974177 -0.225314 -1.38831e-06)
(0.000358447 -0.223306 1.48829e-06)
(0.000358453 -0.223306 -1.44934e-06)
(0.000331144 -0.223963 1.59374e-06)
(0.000331147 -0.223963 -1.56132e-06)
(0.001067 -0.224663 -5.42542e-06)
(0.00110832 -0.224683 -2.82719e-05)
(0.000986913 -0.22532 -5.79564e-06)
(0.00103115 -0.225342 -2.92841e-05)
(0.000363823 -0.223312 -7.82146e-06)
(0.000450128 -0.223329 -4.4263e-05)
(0.000336559 -0.223969 -8.21762e-06)
(0.00042226 -0.223987 -4.54965e-05)
(-0.00164929 -0.224781 2.43772e-05)
(0.0035348 -0.224589 0.989043)
(-0.00172375 -0.225443 2.38393e-05)
(0.00345479 -0.225255 0.989936)
(0.00244003 -0.223343 6.9267e-05)
(-0.00154332 -0.223217 0.991308)
(0.00238626 -0.224003 6.87586e-05)
(-0.0015523 -0.223862 0.995909)
(0.00371705 -0.223131 -0.988477)
(-0.00148551 -0.223314 -2.46802e-05)
(0.00362615 -0.223879 -0.984335)
(-0.0015725 -0.224072 -2.51241e-05)
(-0.00151636 -0.221738 -0.995626)
(0.0025501 -0.221877 -6.80811e-05)
(-0.0015299 -0.222507 -0.991453)
(0.00249618 -0.222635 -6.89545e-05)
(0.00127841 -0.223222 2.6732e-05)
(0.00124226 -0.223206 4.92096e-06)
(0.00119067 -0.223977 2.73245e-05)
(0.00115207 -0.223959 5.15998e-06)
(0.000510738 -0.221868 4.24536e-05)
(0.000423447 -0.221854 7.28795e-06)
(0.000479594 -0.222623 4.32293e-05)
(0.00039277 -0.222608 7.53822e-06)
(0.00123031 -0.2232 1.2248e-06)
(0.00123032 -0.2232 -1.17816e-06)
(0.00113985 -0.223953 1.28578e-06)
(0.00113987 -0.223953 -1.24277e-06)
(0.000418151 -0.221849 1.34605e-06)
(0.000418156 -0.221849 -1.29923e-06)
(0.000387425 -0.222602 1.42743e-06)
(0.000387431 -0.222602 -1.3849e-06)
(0.00124224 -0.223206 -4.87663e-06)
(0.00127842 -0.223222 -2.6698e-05)
(0.00115205 -0.22396 -5.11913e-06)
(0.00119067 -0.223977 -2.72935e-05)
(0.000423442 -0.221854 -7.24403e-06)
(0.000510745 -0.221868 -4.2421e-05)
(0.000392765 -0.222608 -7.50088e-06)
(0.0004796 -0.222623 -4.31961e-05)
(-0.00148548 -0.223314 2.47058e-05)
(0.00371709 -0.223131 0.988477)
(-0.00157248 -0.224072 2.5146e-05)
(0.00362617 -0.22388 0.984335)
(0.0025501 -0.221877 6.8105e-05)
(-0.00151634 -0.221738 0.995625)
(0.00249617 -0.222635 6.89766e-05)
(-0.00152989 -0.222507 0.991452)
(0.00392103 -0.221455 -0.983508)
(-0.00129904 -0.22164 -2.55963e-05)
(0.00381596 -0.222306 -0.988139)
(-0.00139289 -0.222503 -2.4849e-05)
(-0.00148449 -0.220086 -0.995138)
(0.00266569 -0.22021 -6.73786e-05)
(-0.00150231 -0.220943 -0.995363)
(0.00260597 -0.22107 -6.78288e-05)
(0.0014707 -0.221555 2.53073e-05)
(0.00143882 -0.221541 4.3771e-06)
(0.00137174 -0.222415 2.60735e-05)
(0.00133781 -0.2224 4.64783e-06)
(0.000578389 -0.220201 4.06683e-05)
(0.000490277 -0.22019 6.69744e-06)
(0.000543634 -0.221061 4.15249e-05)
(0.000455939 -0.221049 6.99732e-06)
(0.00142743 -0.221536 1.06625e-06)
(0.00142745 -0.221536 -1.01438e-06)
(0.00132613 -0.222395 1.14701e-06)
(0.00132615 -0.222395 -1.09744e-06)
(0.000485109 -0.220185 1.17945e-06)
(0.000485115 -0.220185 -1.12752e-06)
(0.000450699 -0.221044 1.26999e-06)
(0.000450705 -0.221044 -1.21974e-06)
(0.0014388 -0.221541 -4.32814e-06)
(0.00147071 -0.221555 -2.52672e-05)
(0.00133779 -0.2224 -4.60058e-06)
(0.00137174 -0.222415 -2.60365e-05)
(0.000490274 -0.22019 -6.65587e-06)
(0.0005784 -0.220201 -4.06266e-05)
(0.000455934 -0.221049 -6.9491e-06)
(0.000543643 -0.221061 -4.14917e-05)
(-0.001299 -0.22164 2.5627e-05)
(0.00392107 -0.221455 0.983508)
(-0.00139285 -0.222503 2.48774e-05)
(0.003816 -0.222307 0.988138)
(0.00266569 -0.22021 6.7408e-05)
(-0.00148448 -0.220086 0.995138)
(0.00260597 -0.221071 6.78547e-05)
(-0.0015023 -0.220943 0.995362)
(0.00414805 -0.219555 -0.987307)
(-0.00108922 -0.219745 -2.54759e-05)
(0.00403072 -0.220535 -0.987501)
(-0.00119749 -0.220721 -2.5146e-05)
(-0.0014452 -0.218194 -0.98572)
(0.00278789 -0.218316 -6.77113e-05)
(-0.00146592 -0.21916 -0.990409)
(0.00272632 -0.219292 -6.7421e-05)
(0.00168637 -0.219663 2.41113e-05)
(0.00165817 -0.219652 3.87286e-06)
(0.00157553 -0.220638 2.47459e-05)
(0.00154557 -0.220626 4.11838e-06)
(0.000653562 -0.21831 3.87957e-05)
(0.000564832 -0.218301 6.16609e-06)
(0.000615024 -0.219285 3.97734e-05)
(0.000526564 -0.219275 6.4324e-06)
(0.00164735 -0.219648 9.21346e-07)
(0.00164737 -0.219648 -8.62952e-07)
(0.00153447 -0.220622 9.9205e-07)
(0.00153449 -0.220622 -9.36315e-07)
(0.000559795 -0.218297 1.05537e-06)
(0.000559801 -0.218297 -9.99097e-07)
(0.000521462 -0.219271 1.10187e-06)
(0.000521472 -0.219271 -1.04524e-06)
(0.00165815 -0.219652 -3.81854e-06)
(0.0016864 -0.219663 -2.40675e-05)
(0.00154555 -0.220626 -4.06646e-06)
(0.00157555 -0.220638 -2.47033e-05)
(0.000564826 -0.218301 -6.11667e-06)
(0.000653571 -0.21831 -3.87587e-05)
(0.000526555 -0.219275 -6.37386e-06)
(0.000615033 -0.219285 -3.97435e-05)
(-0.00108922 -0.219745 2.54972e-05)
(0.00414819 -0.219555 0.987307)
(-0.0011975 -0.220721 2.51733e-05)
(0.00403084 -0.220535 0.987501)
(0.00278793 -0.218316 6.77245e-05)
(-0.00144518 -0.218194 0.985759)
(0.00272635 -0.219292 6.74374e-05)
(-0.00146591 -0.21916 0.990448)
(0.00439854 -0.21742 -0.988898)
(-0.00085105 -0.217606 -2.51427e-05)
(0.00426756 -0.218525 -0.986956)
(-0.000971971 -0.218706 -2.5545e-05)
(-0.00139569 -0.216077 -0.994137)
(0.00291462 -0.216182 -6.5172e-05)
(-0.00142214 -0.217148 -0.989789)
(0.00284997 -0.21728 -6.65048e-05)
(0.00192695 -0.217527 2.33368e-05)
(0.00190177 -0.217518 3.53133e-06)
(0.00180358 -0.218627 2.3685e-05)
(0.00177689 -0.218617 3.68931e-06)
(0.000736789 -0.216176 3.76482e-05)
(0.000647595 -0.216169 5.80723e-06)
(0.000694158 -0.217274 3.82409e-05)
(0.000605171 -0.217266 5.96913e-06)
(0.00189146 -0.217515 8.09171e-07)
(0.00189148 -0.217515 -7.55188e-07)
(0.00176634 -0.218613 8.61645e-07)
(0.00176636 -0.218613 -8.0374e-07)
(0.000642701 -0.216165 9.16152e-07)
(0.000642706 -0.216165 -8.62074e-07)
(0.000600215 -0.217263 9.56681e-07)
(0.00060022 -0.217263 -9.00468e-07)
(0.00190174 -0.217518 -3.4838e-06)
(0.00192695 -0.217527 -2.33047e-05)
(0.00177687 -0.218617 -3.63679e-06)
(0.00180359 -0.218627 -2.36471e-05)
(0.000647587 -0.216169 -5.75994e-06)
(0.00073679 -0.216176 -3.76148e-05)
(0.000605163 -0.217267 -5.91887e-06)
(0.000694162 -0.217274 -3.82074e-05)
(-0.000851006 -0.217606 2.51366e-05)
(0.00439837 -0.21742 0.988901)
(-0.000971939 -0.218707 2.55454e-05)
(0.00426748 -0.218525 0.986956)
(0.00291462 -0.216182 6.51771e-05)
(-0.00139574 -0.216077 0.994137)
(0.00284999 -0.21728 6.65149e-05)
(-0.00142217 -0.217148 0.989788)
(0.00466841 -0.215024 -0.985459)
(-0.000584408 -0.215207 -2.54772e-05)
(0.00453175 -0.216265 -0.987769)
(-0.00072318 -0.216441 -2.51528e-05)
(-0.00133833 -0.213662 -0.990206)
(0.00304449 -0.213784 -6.5168e-05)
(-0.00136651 -0.214879 -0.990397)
(0.00298001 -0.215016 -6.5389e-05)
(0.00219312 -0.215129 2.25539e-05)
(0.00217074 -0.215121 3.17352e-06)
(0.00205673 -0.216362 2.29364e-05)
(0.00203304 -0.216354 3.34629e-06)
(0.00082839 -0.213779 3.61225e-05)
(0.000738957 -0.213774 5.40455e-06)
(0.000781506 -0.215012 3.67679e-05)
(0.000692184 -0.215005 5.57975e-06)
(0.00216087 -0.215119 6.96267e-07)
(0.00216089 -0.215119 -6.45901e-07)
(0.00202296 -0.216351 7.50493e-07)
(0.00202298 -0.216351 -6.98398e-07)
(0.000734176 -0.213771 8.00702e-07)
(0.00073418 -0.213771 -7.50639e-07)
(0.000687347 -0.215002 8.6532e-07)
(0.000687352 -0.215003 -8.12714e-07)
(0.00217072 -0.215121 -3.12731e-06)
(0.00219313 -0.215129 -2.25183e-05)
(0.00203301 -0.216354 -3.29972e-06)
(0.00205674 -0.216363 -2.29028e-05)
(0.00073895 -0.213774 -5.35942e-06)
(0.000828393 -0.21378 -3.60849e-05)
(0.000692175 -0.215005 -5.52963e-06)
(0.000781507 -0.215012 -3.67358e-05)
(-0.00058432 -0.215207 2.54914e-05)
(0.00466822 -0.215025 0.985456)
(-0.000723134 -0.216441 2.51568e-05)
(0.00453162 -0.216265 0.987769)
(0.0030445 -0.213784 6.51806e-05)
(-0.00133836 -0.213662 0.990206)
(0.00298001 -0.215017 6.53954e-05)
(-0.00136655 -0.21488 0.990397)
(0.00496841 -0.212346 -0.985736)
(-0.000291773 -0.212524 -2.56767e-05)
(0.00481574 -0.213721 -0.985892)
(-0.000440855 -0.213901 -2.52336e-05)
(-0.00126929 -0.210994 -0.99322)
(0.00318355 -0.211108 -6.36557e-05)
(-0.00130531 -0.212365 -0.993437)
(0.00311296 -0.212482 -6.39635e-05)
(0.00248596 -0.212449 2.18394e-05)
(0.00246596 -0.212443 2.89456e-06)
(0.00233627 -0.213826 2.22905e-05)
(0.00231505 -0.213819 3.05792e-06)
(0.000928823 -0.211103 3.49189e-05)
(0.000839218 -0.211098 5.11667e-06)
(0.00087751 -0.212477 3.55813e-05)
(0.000787972 -0.212472 5.27192e-06)
(0.00245642 -0.212441 6.0984e-07)
(0.00245644 -0.212441 -5.66404e-07)
(0.00230537 -0.213816 6.58352e-07)
(0.00230539 -0.213816 -6.12104e-07)
(0.000834502 -0.211096 7.19242e-07)
(0.000834503 -0.211096 -6.73072e-07)
(0.000783229 -0.21247 7.61555e-07)
(0.000783231 -0.21247 -7.13975e-07)
(0.00246594 -0.212443 -2.85414e-06)
(0.00248598 -0.21245 -2.18058e-05)
(0.00231504 -0.213819 -3.0147e-06)
(0.00233629 -0.213826 -2.22549e-05)
(0.000839216 -0.211098 -5.0731e-06)
(0.000928829 -0.211103 -3.48828e-05)
(0.000787968 -0.212472 -5.22733e-06)
(0.000877515 -0.212478 -3.5543e-05)
(-0.000291744 -0.212524 2.57105e-05)
(0.00496856 -0.212346 0.985736)
(-0.000440774 -0.213901 2.52628e-05)
(0.00481571 -0.213722 0.985892)
(0.00318358 -0.211108 6.36772e-05)
(-0.00126925 -0.210995 0.99322)
(0.00311298 -0.212482 6.39823e-05)
(-0.00130531 -0.212366 0.993437)
(0.00529567 -0.209357 -0.989876)
(2.77607e-05 -0.20954 -2.41651e-05)
(0.00512644 -0.210904 -0.985395)
(-0.000134891 -0.211071 -2.54435e-05)
(-0.00119389 -0.20803 -0.992787)
(0.00332967 -0.208132 -6.20159e-05)
(-0.00123391 -0.20954 -0.992994)
(0.00325484 -0.209658 -6.29096e-05)
(0.0028055 -0.209469 2.16235e-05)
(0.00278789 -0.209464 2.7641e-06)
(0.00264234 -0.210998 2.15759e-05)
(0.0026236 -0.210992 2.77051e-06)
(0.00103808 -0.208127 3.39616e-05)
(0.000948509 -0.208123 4.93775e-06)
(0.000982344 -0.209653 3.43901e-05)
(0.000892743 -0.209649 5.00414e-06)
(0.00277863 -0.209462 5.59497e-07)
(0.00277864 -0.209462 -5.14321e-07)
(0.0026142 -0.21099 5.70486e-07)
(0.00261422 -0.21099 -5.27017e-07)
(0.000943864 -0.208121 6.68308e-07)
(0.000943865 -0.208121 -6.20296e-07)
(0.00088806 -0.209647 6.86405e-07)
(0.000888061 -0.209647 -6.40118e-07)
(0.00278787 -0.209464 -2.72254e-06)
(0.00280552 -0.20947 -2.15924e-05)
(0.00262359 -0.210992 -2.73103e-06)
(0.00264236 -0.210998 -2.15464e-05)
(0.000948509 -0.208123 -4.89395e-06)
(0.00103809 -0.208127 -3.39299e-05)
(0.000892742 -0.209649 -4.96126e-06)
(0.000982349 -0.209654 -3.43568e-05)
(2.78105e-05 -0.20954 2.41729e-05)
(0.0052956 -0.209358 0.989876)
(-0.000134871 -0.211071 2.54614e-05)
(0.00512647 -0.210904 0.985395)
(0.00332968 -0.208133 6.20261e-05)
(-0.00119391 -0.208031 0.992787)
(0.00325486 -0.209658 6.29264e-05)
(-0.00123389 -0.20954 0.992994)
(0.00564315 -0.206093 -0.982261)
(0.000374698 -0.206244 -2.61713e-05)
(0.00546434 -0.207741 -0.987072)
(0.000199351 -0.207932 -2.5042e-05)
(-0.00110543 -0.204774 -0.988422)
(0.00348544 -0.204841 -6.22216e-05)
(-0.0011505 -0.206393 -0.988621)
(0.00340727 -0.206527 -6.263e-05)
(0.00315215 -0.206172 2.07899e-05)
(0.00313653 -0.206167 2.49465e-06)
(0.0029755 -0.207862 2.13179e-05)
(0.0029589 -0.207856 2.65811e-06)
(0.00115639 -0.204835 3.26186e-05)
(0.00106686 -0.204832 4.63598e-06)
(0.0010961 -0.206522 3.32235e-05)
(0.00100656 -0.206518 4.77612e-06)
(0.00312749 -0.206166 4.93661e-07)
(0.0031275 -0.206166 -4.38389e-07)
(0.00294976 -0.207855 5.27174e-07)
(0.00294977 -0.207855 -4.7794e-07)
(0.00106225 -0.20483 5.9247e-07)
(0.00106225 -0.20483 -5.36918e-07)
(0.00100194 -0.206516 6.28644e-07)
(0.00100194 -0.206517 -5.77422e-07)
(0.00313652 -0.206168 -2.44716e-06)
(0.00315214 -0.206173 -2.07595e-05)
(0.00295888 -0.207857 -2.61401e-06)
(0.00297551 -0.207862 -2.12888e-05)
(0.00106685 -0.204832 -4.58801e-06)
(0.00115639 -0.204835 -3.25907e-05)
(0.00100656 -0.206518 -4.73067e-06)
(0.0010961 -0.206522 -3.31941e-05)
(0.000374678 -0.206244 2.61359e-05)
(0.00564292 -0.206093 0.98225)
(0.000199388 -0.207933 2.50396e-05)
(0.00546425 -0.207742 0.987061)
(0.00348544 -0.204841 6.2219e-05)
(-0.00110547 -0.204774 0.988421)
(0.00340727 -0.206527 6.26338e-05)
(-0.00115053 -0.206393 0.98862)
(0.00602412 -0.202405 -0.984358)
(0.000752829 -0.20261 -2.56206e-05)
(0.00583598 -0.204304 -0.984464)
(0.000558173 -0.204469 -2.51603e-05)
(-0.00100712 -0.2011 -0.991965)
(0.00364557 -0.201216 -6.06941e-05)
(-0.00105593 -0.202943 -0.992157)
(0.0035644 -0.20307 -6.07632e-05)
(0.00352535 -0.202542 2.07033e-05)
(0.00351151 -0.202538 2.51521e-06)
(0.00333553 -0.2044 2.07827e-05)
(0.00332082 -0.204395 2.50982e-06)
(0.0012835 -0.201212 3.20065e-05)
(0.0011941 -0.201209 4.62732e-06)
(0.00121888 -0.203066 3.24272e-05)
(0.0011294 -0.203063 4.65842e-06)
(0.00350263 -0.202537 4.94275e-07)
(0.00350264 -0.202537 -4.31223e-07)
(0.00331186 -0.204394 4.98839e-07)
(0.00331187 -0.204394 -4.39404e-07)
(0.00118953 -0.201208 5.89868e-07)
(0.00118953 -0.201208 -5.23451e-07)
(0.00112481 -0.203062 5.96032e-07)
(0.00112481 -0.203062 -5.35725e-07)
(0.00351149 -0.202538 -2.4587e-06)
(0.00352536 -0.202542 -2.06622e-05)
(0.00332081 -0.204396 -2.4579e-06)
(0.00333552 -0.2044 -2.07475e-05)
(0.00119411 -0.201209 -4.56809e-06)
(0.00128351 -0.201212 -3.19644e-05)
(0.0011294 -0.203063 -4.60609e-06)
(0.00121888 -0.203066 -3.23949e-05)