/*--------------------------------*- C++ -*----------------------------------*\
  =========                 |
  \\      /  F ield         | OpenFOAM: The Open Source CFD Toolbox
   \\    /   O peration     | Website:  https://openfoam.org
    \\  /    A nd           | Version:  9
     \\/     M anipulation  |
\*---------------------------------------------------------------------------*/
FoamFile
{
    format      ascii;
    class       volVectorField;
    location    "3.15";
    object      U;
}
// * * * * * * * * * * * * * * * * * * * * * * * * * * * * * * * * * * * * * //

dimensions      [0 1 -1 0 0 0 0];

internalField   nonuniform List<vector> 
36360
(
(0.00396951 -0.124154 -0.497224)
(-0.000821214 -0.0904086 0.000208482)
(0.00420983 -0.128484 -0.499914)
(-0.00222567 -0.0826159 0.000124312)
(0.00336068 -0.141762 -0.500745)
(0.005083 -0.0709448 -3.49975e-06)
(0.00798655 -0.151633 -0.501829)
(0.00435013 -0.0731538 8.15107e-07)
(0.00269922 -0.0963758 -0.000135048)
(0.000258899 -0.100372 -6.67404e-06)
(0.000519125 -0.0946523 -8.6303e-05)
(-0.00167546 -0.098692 -3.96623e-06)
(0.00647577 -0.0969922 1.50902e-05)
(0.00444415 -0.105273 -4.3143e-06)
(0.00704593 -0.103725 -5.5747e-06)
(0.00630295 -0.108955 -7.00407e-06)
(-0.00213431 -0.102134 -1.30753e-09)
(-0.00213221 -0.102136 3.13991e-09)
(-0.00312461 -0.0999788 -1.81955e-07)
(-0.00312364 -0.0999801 1.82162e-07)
(0.0042469 -0.105262 -6.80375e-07)
(0.00424625 -0.105264 6.84463e-07)
(0.00656735 -0.107766 -1.85693e-06)
(0.00656687 -0.107768 1.86059e-06)
(0.000260944 -0.100375 6.68165e-06)
(0.00269946 -0.0963801 0.000135086)
(-0.00167326 -0.0986953 3.96889e-06)
(0.000520049 -0.0946573 8.63346e-05)
(0.00444343 -0.105276 4.32197e-06)
(0.00647435 -0.0969955 -1.50768e-05)
(0.00630209 -0.108959 7.00631e-06)
(0.00704465 -0.103728 5.57212e-06)
(-0.00082127 -0.090411 -0.000208502)
(0.0039701 -0.124147 0.497224)
(-0.00222612 -0.0826198 -0.000124323)
(0.0042104 -0.128477 0.499914)
(0.00508088 -0.0709492 3.4643e-06)
(0.00336078 -0.14175 0.500745)
(0.00434695 -0.0731548 -8.24202e-07)
(0.00798709 -0.151622 0.501829)
(0.00614385 -0.120826 -0.4952)
(-0.00472371 -0.093893 0.000156587)
(0.00548694 -0.123304 -0.496268)
(-0.00272631 -0.0919075 0.000188362)
(0.00305118 -0.135442 -0.500758)
(-0.00166167 -0.0689364 -0.000126167)
(0.00276853 -0.138639 -0.500982)
(0.00175409 -0.0674276 -5.78499e-05)
(0.00228529 -0.096804 -6.61814e-05)
(0.00189556 -0.100658 -9.7718e-06)
(0.00293904 -0.0965893 -0.000104138)
(0.00170173 -0.100758 -7.64723e-06)
(0.0037868 -0.0876633 0.000157524)
(0.00278714 -0.0988764 -1.66043e-06)
(0.00554935 -0.0906764 8.23618e-05)
(0.00370771 -0.101529 -3.35374e-06)
(0.00115286 -0.102554 -2.04407e-06)
(0.001153 -0.102554 2.05619e-06)
(0.000193004 -0.102789 -9.8476e-08)
(0.000193892 -0.10279 1.03505e-07)
(0.00210093 -0.102093 -2.0952e-06)
(0.00210077 -0.102094 2.10647e-06)
(0.00266287 -0.103557 -7.59929e-07)
(0.00266265 -0.103557 7.66313e-07)
(0.0018955 -0.10066 9.7925e-06)
(0.00228517 -0.0968069 6.62097e-05)
(0.00170229 -0.100761 7.66179e-06)
(0.00293889 -0.0965926 0.00010417)
(0.00278642 -0.0988787 1.68093e-06)
(0.00378604 -0.0876684 -0.000157491)
(0.00370718 -0.101531 3.36828e-06)
(0.00554799 -0.0906808 -8.2341e-05)
(-0.00472296 -0.0938939 -0.000156639)
(0.00614394 -0.120819 0.495201)
(-0.00272602 -0.0919085 -0.000188396)
(0.00548725 -0.123296 0.496269)
(-0.00166164 -0.0689415 0.00012607)
(0.00305103 -0.135429 0.500758)
(0.00175317 -0.067433 5.77868e-05)
(0.00276847 -0.138627 0.500982)
(0.00668732 -0.116599 -0.493502)
(-0.00684016 -0.0961252 6.75797e-05)
(0.0064656 -0.118545 -0.494272)
(-0.00602156 -0.0951484 0.000115166)
(0.00367351 -0.128458 -0.500435)
(-0.00440919 -0.0741126 -0.000281392)
(0.00337856 -0.131833 -0.500579)
(-0.00346156 -0.071252 -0.00020211)
(0.000978267 -0.0965072 1.77515e-05)
(0.00135335 -0.0997816 3.77784e-06)
(0.00155609 -0.0966617 -2.38874e-05)
(0.0016882 -0.100294 -5.87163e-06)
(0.00192401 -0.0844313 0.000308822)
(0.00131098 -0.0949335 1.59299e-05)
(0.00262537 -0.0855241 0.00023516)
(0.0018985 -0.0966018 5.03352e-06)
(0.00113597 -0.101623 -3.51653e-06)
(0.0011359 -0.101623 3.53828e-06)
(0.00130973 -0.102142 -3.53613e-06)
(0.00130968 -0.102143 3.55398e-06)
(0.00108013 -0.0987673 -2.96905e-06)
(0.00107999 -0.0987682 2.9893e-06)
(0.00159891 -0.100239 -2.9728e-06)
(0.00159867 -0.10024 2.98875e-06)
(0.00135321 -0.0997836 -3.7455e-06)
(0.000978379 -0.0965095 -1.77233e-05)
(0.00168802 -0.100296 5.89783e-06)
(0.00155609 -0.0966642 2.3915e-05)
(0.00131066 -0.0949366 -1.58956e-05)
(0.00192384 -0.0844368 -0.000308753)
(0.00189791 -0.0966047 -5.00662e-06)
(0.00262499 -0.0855295 -0.00023511)
(-0.00683884 -0.0961256 -6.76693e-05)
(0.00668671 -0.116592 0.493504)
(-0.00602053 -0.095149 -0.000115237)
(0.00646532 -0.118538 0.494274)
(-0.00440821 -0.0741173 0.00028121)
(0.00367269 -0.128445 0.500435)
(-0.00346106 -0.0712572 0.000201972)
(0.00337804 -0.13182 0.50058)
(0.00701356 -0.113447 -0.492145)
(-0.00766562 -0.0976721 -3.40742e-05)
(0.00686384 -0.114916 -0.492761)
(-0.00734508 -0.0969534 1.703e-05)
(0.00403442 -0.122455 -0.500185)
(-0.00523611 -0.0797482 -0.000438159)
(0.00388243 -0.125334 -0.500299)
(-0.00491552 -0.0770199 -0.000360762)
(0.000289212 -0.0965701 8.87685e-05)
(0.000828385 -0.098977 3.29652e-05)
(0.000564188 -0.096477 5.56592e-05)
(0.00105825 -0.099331 1.73103e-05)
(0.00119116 -0.084211 0.000435072)
(0.000712114 -0.0929775 4.64808e-05)
(0.00146818 -0.0840782 0.00037579)
(0.000950144 -0.0937808 3.01115e-05)
(0.000729586 -0.100647 -1.22298e-07)
(0.000729548 -0.100648 1.50063e-07)
(0.000912334 -0.101106 -2.33736e-06)
(0.000912278 -0.101106 2.36196e-06)
(0.000562362 -0.0969399 6.85942e-08)
(0.000562314 -0.0969408 -4.02906e-08)
(0.00075431 -0.0977184 -1.94113e-06)
(0.000754232 -0.0977193 1.96547e-06)
(0.000828341 -0.0989788 -3.29196e-05)
(0.000289423 -0.096572 -8.87393e-05)
(0.00105816 -0.0993329 -1.72702e-05)
(0.00056437 -0.0964791 -5.56293e-05)
(0.000712065 -0.0929808 -4.64295e-05)
(0.00119107 -0.0842163 -0.000434963)
(0.000950005 -0.0937841 -3.00688e-05)
(0.00146808 -0.0840837 -0.000375701)
(-0.00766382 -0.0976721 3.3939e-05)
(0.00701225 -0.11344 0.492148)
(-0.00734353 -0.0969535 -1.71416e-05)
(0.00686283 -0.114909 0.492764)
(-0.0052344 -0.079752 0.000437878)
(0.00403298 -0.122442 0.500185)
(-0.00491419 -0.0770242 0.000360532)
(0.00388121 -0.125321 0.5003)
(0.0072532 -0.111041 -0.491029)
(-0.00801473 -0.0988483 -0.000132813)
(0.00713986 -0.112166 -0.491528)
(-0.00787283 -0.0983005 -8.43682e-05)
(0.00420184 -0.117476 -0.499978)
(-0.00557888 -0.0844171 -0.000582049)
(0.0041267 -0.119841 -0.500072)
(-0.00543463 -0.0822241 -0.000512198)
(1.81385e-05 -0.0969839 0.000139893)
(0.000534338 -0.098568 6.67354e-05)
(0.000120795 -0.0967495 0.000116779)
(0.000658251 -0.0987273 4.97042e-05)
(0.000948221 -0.0852347 0.000530258)
(0.000414862 -0.0920669 8.20975e-05)
(0.00103143 -0.08463 0.0004864)
(0.000542066 -0.0924253 6.4087e-05)
(0.000508857 -0.099965 6.71244e-06)
(0.000508842 -0.0999656 -6.66666e-06)
(0.000599313 -0.100269 2.97003e-06)
(0.000599289 -0.100269 -2.93847e-06)
(0.000382135 -0.0958386 6.42223e-06)
(0.000382111 -0.0958395 -6.37121e-06)
(0.000450315 -0.0963317 2.92394e-06)
(0.000450284 -0.0963326 -2.88968e-06)
(0.000534348 -0.0985696 -6.66735e-05)
(1.83916e-05 -0.0969855 -0.000139872)
(0.000658227 -0.098729 -4.96525e-05)
(0.000121011 -0.0967513 -0.000116752)
(0.00041488 -0.09207 -8.20244e-05)
(0.000948119 -0.0852396 -0.000530114)
(0.000542053 -0.0924285 -6.40258e-05)
(0.00103132 -0.0846351 -0.000486272)
(-0.00801252 -0.098848 0.000132624)
(0.00725126 -0.111035 0.491033)
(-0.00787084 -0.0983003 8.4207e-05)
(0.00713816 -0.11216 0.491532)
(-0.00557663 -0.0844201 0.000581667)
(0.00419993 -0.117463 0.499979)
(-0.00543267 -0.0822276 0.000511866)
(0.00412492 -0.119828 0.500073)
(0.00743878 -0.10916 -0.490107)
(-0.00817531 -0.0997134 -0.00022203)
(0.00734955 -0.110048 -0.490509)
(-0.0081093 -0.0993177 -0.000178832)
(0.004292 -0.113419 -0.499804)
(-0.00572863 -0.0879754 -0.000707364)
(0.00424508 -0.115344 -0.499882)
(-0.00566408 -0.0863276 -0.000647139)
(-5.48434e-05 -0.097529 0.000173005)
(0.000384436 -0.0984421 9.9774e-05)
(-3.60269e-05 -0.0972486 0.000158462)
(0.00044534 -0.0984788 8.35531e-05)
(0.000914911 -0.0866979 0.000598036)
(0.000235599 -0.0917364 0.000117029)
(0.000917022 -0.0859393 0.000567168)
(0.000315283 -0.0918501 9.98754e-05)
(0.000402182 -0.0995349 1.5409e-05)
(0.000402194 -0.0995354 -1.51764e-05)
(0.000446399 -0.0997248 1.09069e-05)
(0.00044639 -0.0997253 -1.08126e-05)
(0.000305685 -0.0950768 1.4548e-05)
(0.000305613 -0.0950777 -1.44598e-05)
(0.000337562 -0.0954271 1.03813e-05)
(0.000337539 -0.0954281 -1.02468e-05)
(0.000384462 -0.0984435 -9.94025e-05)
(-5.46666e-05 -0.0975303 -0.00017321)
(0.000445339 -0.0984805 -8.34517e-05)
(-3.57676e-05 -0.0972501 -0.00015845)
(0.000235818 -0.0917393 -0.000116795)
(0.000914958 -0.0867022 -0.000597791)
(0.000315334 -0.0918531 -9.98226e-05)
(0.000917006 -0.0859439 -0.000567056)
(-0.00817274 -0.0997129 0.00022173)
(0.00743634 -0.109155 0.490112)
(-0.00810691 -0.0993173 0.000178619)
(0.00734729 -0.110042 0.490514)
(-0.00572601 -0.0879777 0.000706831)
(0.00428965 -0.113407 0.499805)
(-0.00566168 -0.0863302 0.000646745)
(0.00424281 -0.115332 0.499883)
(0.00758802 -0.107637 -0.489346)
(-0.0082459 -0.100306 -0.000298917)
(0.00751503 -0.108362 -0.489667)
(-0.00821703 -0.10004 -0.000262017)
(0.00434667 -0.110101 -0.499658)
(-0.00579064 -0.0905709 -0.000812965)
(0.00431489 -0.111679 -0.499722)
(-0.00575963 -0.0893804 -0.000762398)
(-2.80465e-05 -0.0980752 0.000193034)
(0.000324541 -0.0984643 0.000128252)
(-4.87054e-05 -0.097809 0.000184486)
(0.000346338 -0.0984415 0.00011457)
(0.000987981 -0.0882171 0.000644121)
(0.000124538 -0.091709 0.000148379)
(0.000941553 -0.0874662 0.000623303)
(0.000172963 -0.0916953 0.000132951)
(0.000345571 -0.0992615 2.43343e-05)
(0.000345861 -0.099262 -2.42997e-05)
(0.000370244 -0.0993837 1.98728e-05)
(0.000370271 -0.0993842 -1.97867e-05)
(0.000259967 -0.0945081 2.29102e-05)
(0.000260246 -0.0945093 -2.33702e-05)
(0.000281499 -0.0947736 1.89399e-05)
(0.000281505 -0.0947742 -1.86993e-05)
(0.000324504 -0.0984655 -0.000128017)
(-2.81899e-05 -0.098076 -0.000192894)
(0.000346287 -0.0984427 -0.000114506)
(-4.85408e-05 -0.0978101 -0.000184352)
(0.000124633 -0.0917113 -0.000146741)
(0.000987731 -0.0882201 -0.000643687)
(0.000173014 -0.0916981 -0.000132814)
(0.000941628 -0.0874703 -0.000623183)
(-0.00824308 -0.100305 0.000298573)
(0.00758511 -0.107632 0.489352)
(-0.0082143 -0.10004 0.000261786)
(0.00751227 -0.108357 0.489673)
(-0.00578776 -0.0905722 0.000811665)
(0.00434395 -0.11009 0.499659)
(-0.00575687 -0.0893824 0.000761925)
(0.00431221 -0.111668 0.499723)
(0.00770857 -0.106361 -0.488723)
(-0.00826855 -0.100668 -0.000363494)
(0.00764933 -0.106974 -0.488978)
(-0.00826019 -0.100513 -0.000332569)
(0.00437876 -0.107354 -0.499537)
(-0.00581145 -0.0924015 -0.000899117)
(0.00435657 -0.108666 -0.499588)
(-0.00579718 -0.0915696 -0.000857394)
(4.52205e-05 -0.0985294 0.0002036)
(0.000319927 -0.0985388 0.000151224)
(3.91679e-06 -0.0983166 0.000199153)
(0.000317011 -0.0984994 0.000140242)
(0.00111276 -0.0895815 0.00067375)
(6.39872e-05 -0.0918329 0.000173123)
(0.00104888 -0.0889255 0.000660627)
(8.91994e-05 -0.0917588 0.000159588)
(0.000314097 -0.099076 3.27767e-05)
(0.000314321 -0.0990764 -3.27263e-05)
(0.000327231 -0.0991611 2.86482e-05)
(0.000326898 -0.0991616 -2.8642e-05)
(0.000220897 -0.0940665 3.12477e-05)
(0.000221127 -0.0940671 -3.14188e-05)
(0.000240024 -0.0942735 2.75384e-05)
(0.000239693 -0.0942744 -2.71263e-05)
(0.000319863 -0.0985397 -0.000151057)
(4.53109e-05 -0.0985301 -0.000203566)
(0.000317279 -0.0985004 -0.000140375)
(4.71685e-06 -0.0983173 -0.000199266)
(6.40658e-05 -0.0918354 -0.000172096)
(0.00111249 -0.0895848 -0.000673627)
(8.95964e-05 -0.0917613 -0.000162012)
(0.00104931 -0.0889285 -0.000660366)
(-0.00826529 -0.100667 0.000363134)
(0.00770535 -0.106356 0.48873)
(-0.00825685 -0.100512 0.00033239)
(0.0076463 -0.106969 0.488985)
(-0.0058082 -0.0924027 0.000898028)
(0.00437579 -0.107344 0.499538)
(-0.00579392 -0.0915708 0.000857943)
(0.00435365 -0.108656 0.49959)
(0.0078035 -0.105252 -0.488207)
(-0.00826243 -0.10084 -0.000417004)
(0.00775636 -0.105789 -0.488407)
(-0.00826723 -0.100776 -0.000391513)
(0.00439397 -0.105043 -0.499436)
(-0.00581078 -0.0936451 -0.000968386)
(0.004379 -0.106151 -0.499478)
(-0.00580539 -0.0930865 -0.000935548)
(0.000148956 -0.0988581 0.000208074)
(0.000349176 -0.0986054 0.00016895)
(9.54537e-05 -0.0987102 0.000206449)
(0.000331459 -0.0985757 0.000160688)
(0.00124161 -0.0907038 0.000691879)
(3.64369e-05 -0.0920077 0.00019209)
(0.00117948 -0.0901751 0.000684061)
(4.71504e-05 -0.0919182 0.000183018)
(0.000303319 -0.0989272 4.00906e-05)
(0.000303368 -0.0989276 -4.00018e-05)
(0.00030653 -0.0989996 3.66015e-05)
(0.000306563 -0.099 -3.65207e-05)
(0.000189494 -0.0937124 3.85444e-05)
(0.000189545 -0.0937132 -3.84556e-05)
(0.000204295 -0.0938801 3.51237e-05)
(0.000204335 -0.0938811 -3.50121e-05)
(0.000349188 -0.0986061 -0.000168817)
(0.000149272 -0.0988584 -0.000208039)
(0.000331479 -0.0985765 -0.000160565)
(9.57467e-05 -0.0987106 -0.000206416)
(3.65922e-05 -0.0920096 -0.000191935)
(0.00124137 -0.0907059 -0.000691621)
(4.73143e-05 -0.0919202 -0.000182953)
(0.0011793 -0.0901774 -0.000683799)
(-0.00825884 -0.10084 0.00041666)
(0.00779998 -0.105248 0.488215)
(-0.0082638 -0.100775 0.000391183)
(0.00775287 -0.105785 0.488415)
(-0.00580726 -0.0936455 0.000967665)
(0.00439077 -0.105034 0.499437)
(-0.00580202 -0.0930872 0.00093489)
(0.00437573 -0.106142 0.499479)
(0.00787877 -0.104253 -0.48778)
(-0.00823046 -0.100851 -0.000460794)
(0.00784077 -0.104742 -0.487939)
(-0.00824773 -0.100864 -0.000439993)
(0.00439702 -0.103063 -0.499352)
(-0.00578916 -0.0944379 -0.00102358)
(0.00438752 -0.104017 -0.499386)
(-0.00579382 -0.0940908 -0.000997593)
(0.000263916 -0.0990519 0.000208587)
(0.000399264 -0.0986275 0.000182043)
(0.000206214 -0.0989718 0.000208717)
(0.000372331 -0.0986236 0.00017602)
(0.00135787 -0.0915619 0.000701654)
(3.05758e-05 -0.092169 0.000206441)
(0.00130288 -0.0911651 0.000697611)
(3.14749e-05 -0.0920923 0.000199843)
(0.000309623 -0.0987782 4.6014e-05)
(0.000309667 -0.0987784 -4.59122e-05)
(0.0003045 -0.0988545 4.3224e-05)
(0.000304546 -0.0988548 -4.31285e-05)
(0.000165422 -0.0934119 4.44414e-05)
(0.000165476 -0.0934126 -4.43395e-05)
(0.000176617 -0.0935569 4.16564e-05)
(0.000176667 -0.0935577 -4.15606e-05)
(0.00039927 -0.098628 -0.000181897)
(0.00026429 -0.0990521 -0.000208552)
(0.00037234 -0.0986242 -0.00017588)
(0.000206556 -0.0989721 -0.000208682)
(3.07256e-05 -0.0921705 -0.000206276)
(0.00135756 -0.0915634 -0.000701379)
(3.16254e-05 -0.0920941 -0.000199684)
(0.00130259 -0.0911669 -0.000697343)
(-0.00822665 -0.10085 0.000460423)
(0.00787502 -0.104249 0.487789)
(-0.00824404 -0.100864 0.000439636)
(0.00783701 -0.104738 0.487948)
(-0.00578544 -0.0944378 0.00102281)
(0.00439364 -0.103055 0.499354)
(-0.00579023 -0.094091 0.000996843)
(0.00438403 -0.104009 0.499387)
(0.00793964 -0.103322 -0.48742)
(-0.00817838 -0.100717 -0.000496552)
(0.007908 -0.103781 -0.487543)
(-0.00820444 -0.100801 -0.000479596)
(0.00439097 -0.101332 -0.499282)
(-0.00574991 -0.0948732 -0.00106687)
(0.00438471 -0.102171 -0.499309)
(-0.00576249 -0.0946951 -0.00104655)
(0.000379762 -0.0991105 0.000206671)
(0.000461831 -0.0985822 0.000191224)
(0.00032371 -0.0990979 0.000207861)
(0.000429707 -0.0986142 0.00018706)
(0.00146115 -0.0921641 0.00070567)
(4.08193e-05 -0.0922769 0.000216542)
(0.00141217 -0.0918933 0.000704235)
(3.40134e-05 -0.0922309 0.000211965)
(0.000331298 -0.0986028 5.05814e-05)
(0.000331337 -0.098603 -5.04671e-05)
(0.000318662 -0.0986951 4.84539e-05)
(0.000318703 -0.0986953 -4.83458e-05)
(0.000149518 -0.0931345 4.90402e-05)
(0.000149581 -0.0931351 -4.89269e-05)
(0.000156169 -0.0932716 4.68979e-05)
(0.000156229 -0.0932722 -4.679e-05)
(0.000461801 -0.0985825 -0.000191065)
(0.000380004 -0.0991104 -0.000206639)
(0.000429703 -0.0986146 -0.000186909)
(0.000324068 -0.099098 -0.000207828)
(4.09856e-05 -0.0922781 -0.000216365)
(0.00146082 -0.092165 -0.000705384)
(3.41663e-05 -0.0922322 -0.000211794)
(0.00141183 -0.0918945 -0.000703954)
(-0.00817441 -0.100716 0.00049615)
(0.00793571 -0.103319 0.487429)
(-0.00820056 -0.1008 0.00047921)
(0.00790402 -0.103778 0.487552)
(-0.00574602 -0.0948726 0.00106605)
(0.00438746 -0.101325 0.499283)
(-0.00575872 -0.0946948 0.00104575)
(0.00438105 -0.102163 0.49931)
(0.00799183 -0.102425 -0.48711)
(-0.00811483 -0.100452 -0.000525158)
(0.00796375 -0.102871 -0.487211)
(-0.0081464 -0.1006 -0.000511623)
(0.00438099 -0.0997855 -0.499222)
(-0.00569264 -0.0950217 -0.00109998)
(0.0043759 -0.10054 -0.499244)
(-0.00571479 -0.09498 -0.00108473)
(0.000475739 -0.0990353 0.000203315)
(0.000530834 -0.0984534 0.000197215)
(0.000428972 -0.0990893 0.000205126)
(0.000495487 -0.098529 0.000194551)
(0.0015569 -0.0925364 0.000705794)
(6.43192e-05 -0.0923063 0.000223143)
(0.00151116 -0.092377 0.000706109)
(5.15421e-05 -0.0923023 0.000220269)
(0.000367676 -0.0983789 5.39245e-05)
(0.000367711 -0.098379 -5.38044e-05)
(0.000347677 -0.0984981 5.23897e-05)
(0.000347713 -0.0984982 -5.22724e-05)
(0.000144648 -0.0928541 5.24522e-05)
(0.000144711 -0.0928545 -5.23317e-05)
(0.000145795 -0.0929957 5.08838e-05)
(0.000145858 -0.0929962 -5.07666e-05)
(0.000530791 -0.0984535 -0.000197053)
(0.000475988 -0.099035 -0.000203285)
(0.000495445 -0.0985292 -0.000194391)
(0.000429189 -0.0990891 -0.000205095)
(6.44811e-05 -0.0923072 -0.00022296)
(0.00155654 -0.0925369 -0.000705502)
(5.17136e-05 -0.0923033 -0.000220089)
(0.00151081 -0.0923777 -0.000705819)
(-0.00811073 -0.100451 0.000524737)
(0.00798777 -0.102422 0.487119)
(-0.00814239 -0.100599 0.000511212)
(0.00795962 -0.102868 0.48722)
(-0.00568863 -0.0950207 0.00109911)
(0.00437741 -0.0997796 0.499223)
(-0.00571087 -0.0949793 0.00108388)
(0.00437213 -0.100533 0.499245)
(0.00804101 -0.101534 -0.486834)
(-0.00803811 -0.100064 -0.000547974)
(0.00801385 -0.10198 -0.486914)
(-0.00807662 -0.100273 -0.000537183)
(0.00436858 -0.0983684 -0.499169)
(-0.00563092 -0.0949413 -0.00112588)
(0.00436442 -0.0990632 -0.499187)
(-0.0056551 -0.0950082 -0.00111341)
(0.000573116 -0.0988288 0.00019919)
(0.000608984 -0.0982285 0.000200797)
(0.000524496 -0.0989482 0.000201306)
(0.000568863 -0.0983535 0.000199248)
(0.00164455 -0.0927007 0.000703342)
(9.62383e-05 -0.0922415 0.000227347)
(0.00160247 -0.0926435 0.000704806)
(7.88282e-05 -0.0922873 0.000225456)
(0.000418909 -0.098088 5.62523e-05)
(0.00041894 -0.0980881 -5.61266e-05)
(0.000391473 -0.0982427 5.51939e-05)
(0.000391507 -0.0982427 -5.5071e-05)
(0.000149943 -0.0925464 5.48683e-05)
(0.000150008 -0.0925467 -5.47418e-05)
(0.000146012 -0.0927046 5.37714e-05)
(0.000146076 -0.0927049 -5.36478e-05)
(0.000608936 -0.0982285 -0.000200631)
(0.000573398 -0.0988283 -0.000199163)
(0.000568819 -0.0983535 -0.000199085)
(0.000524759 -0.0989478 -0.000201278)
(9.64046e-05 -0.092242 -0.000227159)
(0.00164417 -0.0927008 -0.000703046)
(7.8998e-05 -0.092288 -0.000225271)
(0.00160209 -0.0926438 -0.000704512)
(-0.00803392 -0.100063 0.000547533)
(0.00803688 -0.101531 0.486844)
(-0.00807249 -0.100272 0.000536752)
(0.00800962 -0.101978 0.486924)
(-0.00562684 -0.09494 0.00112498)
(0.00436494 -0.0983632 0.499171)
(-0.0056511 -0.095007 0.00111253)
(0.00436057 -0.0990576 0.499189)
(0.00809476 -0.100625 -0.486587)
(-0.00794839 -0.0995563 -0.00056592)
(0.00806448 -0.101083 -0.486651)
(-0.00799264 -0.0998251 -0.000557465)
(0.00436115 -0.0970356 -0.499123)
(-0.00556013 -0.0946563 -0.00114544)
(0.00435389 -0.0976946 -0.499137)
(-0.00558512 -0.0948207 -0.00113647)
(0.000674244 -0.0984908 0.000194753)
(0.000695884 -0.0978982 0.000202549)
(0.000623884 -0.0986762 0.000197006)
(0.000651389 -0.0980771 0.000201852)
(0.00172371 -0.0926701 0.000699231)
(0.000133737 -0.092068 0.000229454)
(0.00168713 -0.0927078 0.000701402)
(0.00011468 -0.0921683 0.000228618)
(0.000484766 -0.0977149 5.7769e-05)
(0.000484793 -0.0977149 -5.76387e-05)
(0.000449971 -0.0979126 5.70948e-05)
(0.00045 -0.0979126 -5.69667e-05)
(0.000165011 -0.0921886 5.64609e-05)
(0.000165079 -0.0921888 -5.63296e-05)
(0.000156323 -0.0923745 5.57554e-05)
(0.00015639 -0.0923747 -5.56263e-05)
(0.000695828 -0.097898 -0.00020238)
(0.000674537 -0.0984902 -0.000194728)
(0.000651335 -0.098077 -0.000201684)
(0.000624167 -0.0986757 -0.00019698)
(0.000133889 -0.0920682 -0.000229261)
(0.00172328 -0.0926698 -0.000698933)
(0.000114837 -0.0921687 -0.000228427)
(0.00168672 -0.0927076 -0.000701104)
(-0.00794416 -0.0995551 0.000565464)
(0.00809059 -0.100623 0.486597)
(-0.00798845 -0.0998239 0.000557016)
(0.0080602 -0.101081 0.486661)
(-0.00555604 -0.0946546 0.00114452)
(0.00435748 -0.0970312 0.499125)
(-0.00558109 -0.0948192 0.00113556)
(0.00435003 -0.0976898 0.499139)
(0.00815515 -0.0996738 -0.486348)
(-0.0078449 -0.0989296 -0.000579855)
(0.00812089 -0.100156 -0.486406)
(-0.00789639 -0.0992581 -0.000573295)
(0.00435592 -0.0957452 -0.49908)
(-0.0054823 -0.0941981 -0.0011596)
(0.0043465 -0.0963872 -0.499093)
(-0.00551156 -0.0944477 -0.00115307)
(0.000781046 -0.0980201 0.000190255)
(0.000793119 -0.0974528 0.000202963)
(0.000727547 -0.098272 0.000192491)
(0.000743305 -0.0976903 0.00020288)
(0.00179548 -0.0924574 0.000694267)
(0.000175794 -0.0917763 0.000230052)
(0.0017619 -0.0925852 0.000696841)
(0.000154322 -0.0919369 0.000229907)
(0.00056605 -0.0972443 5.86479e-05)
(0.000566073 -0.0972442 -5.8514e-05)
(0.000523498 -0.0974925 5.82736e-05)
(0.000523523 -0.0974925 -5.81414e-05)
(0.000188828 -0.0917611 5.73994e-05)
(0.00018889 -0.0917611 -5.72644e-05)
(0.000175921 -0.0919842 5.70008e-05)
(0.000175986 -0.0919843 -5.68675e-05)
(0.000793055 -0.0974525 -0.000202793)
(0.000781342 -0.0980193 -0.000190232)
(0.000743244 -0.09769 -0.000202711)
(0.000727839 -0.0982713 -0.000192468)
(0.000175934 -0.0917763 -0.000229857)
(0.00179501 -0.0924567 -0.000693972)
(0.000154466 -0.091937 -0.000229713)
(0.00176144 -0.0925846 -0.000696545)
(-0.00784064 -0.0989283 0.000579386)
(0.00815096 -0.0996719 0.486358)
(-0.00789216 -0.0992568 0.000572832)
(0.00811658 -0.100154 0.486416)
(-0.00547822 -0.0941962 0.00115867)
(0.00435226 -0.0957413 0.499082)
(-0.00550752 -0.0944459 0.00115214)
(0.00434261 -0.0963831 0.499094)
(0.00822745 -0.0986598 -0.486121)
(-0.00772792 -0.0981799 -0.000590463)
(0.00818694 -0.0991759 -0.486173)
(-0.00778622 -0.0985703 -0.00058549)
(0.00435774 -0.0944596 -0.49904)
(-0.00539967 -0.0935805 -0.00116963)
(0.00434475 -0.0951037 -0.499051)
(-0.00543129 -0.0939083 -0.00116505)
(0.000894918 -0.097414 0.000185905)
(0.000901711 -0.0968832 0.000202395)
(0.000837638 -0.0977341 0.000188055)
(0.000846058 -0.097184 0.000202765)
(0.00186208 -0.0920729 0.000688773)
(0.000222498 -0.0913574 0.000229565)
(0.00183056 -0.0922859 0.000691544)
(0.000198717 -0.0915828 0.000229919)
(0.000663087 -0.0966624 5.90239e-05)
(0.000663105 -0.0966622 -5.88875e-05)
(0.000612579 -0.0969679 5.88846e-05)
(0.000612599 -0.0969678 -5.87493e-05)
(0.000220135 -0.0912439 5.78338e-05)
(0.000220192 -0.0912439 -5.76961e-05)
(0.000203562 -0.0915143 5.76705e-05)
(0.000203621 -0.0915143 -5.75341e-05)
(0.000901639 -0.0968828 -0.000202223)
(0.000895209 -0.0974131 -0.000185885)
(0.000845989 -0.0971836 -0.000202593)
(0.000837928 -0.0977333 -0.000188034)
(0.000222626 -0.091357 -0.000229369)
(0.00186158 -0.0920718 -0.000688479)
(0.00019885 -0.0915826 -0.000229723)
(0.00183007 -0.0922849 -0.000691249)
(-0.00772367 -0.0981786 0.000589985)
(0.00822328 -0.0986581 0.486131)
(-0.00778199 -0.098569 0.000585016)
(0.00818263 -0.0991741 0.486183)
(-0.00539561 -0.0935784 0.00116868)
(0.00435409 -0.0944563 0.499042)
(-0.00542726 -0.0939062 0.00116411)
(0.00434087 -0.0951002 0.499053)
(0.00831417 -0.0975618 -0.485899)
(-0.0075965 -0.0973015 -0.000598303)
(0.00826617 -0.0981225 -0.485947)
(-0.00766214 -0.0977572 -0.000594646)
(0.00436711 -0.0931449 -0.499002)
(-0.00531152 -0.0928116 -0.0011763)
(0.0043501 -0.0938076 -0.499012)
(-0.00534581 -0.0932144 -0.00117331)
(0.00101784 -0.0966668 0.000181811)
(0.00102292 -0.0961791 0.000201117)
(0.000955768 -0.0970583 0.00018382)
(0.000960775 -0.0965485 0.000201811)
(0.00192659 -0.0915213 0.000683092)
(0.00027393 -0.0908016 0.000228296)
(0.0018958 -0.0918174 0.000685926)
(0.000247712 -0.0910967 0.000229008)
(0.0007765 -0.0959553 5.90158e-05)
(0.000776513 -0.0959551 -5.88777e-05)
(0.000717697 -0.0963252 5.90552e-05)
(0.000717712 -0.096325 -5.89178e-05)
(0.000258776 -0.0906184 5.78813e-05)
(0.000258829 -0.0906183 -5.7742e-05)
(0.000238475 -0.0909453 5.78986e-05)
(0.00023853 -0.0909452 -5.776e-05)
(0.00102284 -0.0961785 -0.000200945)
(0.00101813 -0.0966659 -0.000181792)
(0.000960698 -0.096548 -0.00020164)
(0.000956051 -0.0970574 -0.000183801)
(0.000274047 -0.090801 -0.000228099)
(0.00192607 -0.0915199 -0.000682802)
(0.000247834 -0.0910962 -0.000228812)
(0.00189528 -0.0918162 -0.000685634)
(-0.00759227 -0.0973002 0.000597818)
(0.00831002 -0.0975603 0.48591)
(-0.00765792 -0.0977558 0.000594164)
(0.00826187 -0.0981209 0.485958)
(-0.00530749 -0.0928093 0.00117535)
(0.00436349 -0.0931422 0.499004)
(-0.00534182 -0.0932122 0.00117237)
(0.00434623 -0.0938046 0.499014)
(0.00841744 -0.0963597 -0.485679)
(-0.00744952 -0.0962859 -0.000603843)
(0.00836098 -0.0969749 -0.485724)
(-0.00752313 -0.0968113 -0.00060128)
(0.00438487 -0.0917703 -0.498966)
(-0.00521739 -0.0918937 -0.00118021)
(0.00436354 -0.0924666 -0.498975)
(-0.00525469 -0.092371 -0.00117854)
(0.00115198 -0.0957711 0.000178046)
(0.00115821 -0.0953294 0.000199335)
(0.001084 -0.096238 0.000179884)
(0.00108883 -0.095773 0.000200259)
(0.00199116 -0.0908036 0.000677414)
(0.000330523 -0.0900989 0.000226466)
(0.00196007 -0.0911829 0.000680229)
(0.000301649 -0.0904688 0.000227435)
(0.00090717 -0.0951089 5.87164e-05)
(0.000907178 -0.0951087 -5.85776e-05)
(0.000839614 -0.0955502 5.88913e-05)
(0.000839624 -0.09555 -5.87527e-05)
(0.000305052 -0.0898669 5.76326e-05)
(0.000305102 -0.0898667 -5.74927e-05)
(0.000280884 -0.0902589 5.77882e-05)
(0.000280936 -0.0902588 -5.76484e-05)
(0.00115813 -0.0953287 -0.000199164)
(0.00115225 -0.09577 -0.000178029)
(0.00108874 -0.0957724 -0.000200088)
(0.00108427 -0.0962369 -0.000179866)
(0.000330629 -0.0900982 -0.00022627)
(0.00199062 -0.090802 -0.000677127)
(0.00030176 -0.0904681 -0.000227239)
(0.00195954 -0.0911814 -0.00067994)
(-0.00744532 -0.0962845 0.000603354)
(0.00841331 -0.0963584 0.48569)
(-0.00751893 -0.09681 0.000600793)
(0.00835671 -0.0969735 0.485735)
(-0.00521342 -0.0918913 0.00117926)
(0.00438127 -0.0917681 0.498968)
(-0.00525074 -0.0923687 0.00117759)
(0.0043597 -0.0924642 0.498977)
(0.00853883 -0.0950341 -0.485457)
(-0.00728572 -0.0951233 -0.000607458)
(0.00847308 -0.0957134 -0.485499)
(-0.00736787 -0.0957235 -0.000605809)
(0.00441116 -0.0903081 -0.498931)
(-0.00511643 -0.090825 -0.00118184)
(0.00438522 -0.0910515 -0.498939)
(-0.00515695 -0.0913782 -0.00118126)
(0.00129928 -0.0947176 0.000174647)
(0.00130897 -0.0943225 0.000197194)
(0.00122452 -0.0952645 0.000176298)
(0.0012317 -0.0948462 0.000198281)
(0.0020574 -0.0899176 0.000671843)
(0.000392714 -0.0892389 0.000224233)
(0.00202534 -0.0903815 0.000674595)
(0.000360977 -0.0896888 0.000225388)
(0.00105599 -0.0941091 5.81952e-05)
(0.00105599 -0.0941088 -5.80565e-05)
(0.000979246 -0.0946288 5.84732e-05)
(0.000979251 -0.0946286 -5.83343e-05)
(0.000359215 -0.0889723 5.71565e-05)
(0.000359261 -0.0889721 -5.70168e-05)
(0.000331059 -0.089438 5.74185e-05)
(0.000331107 -0.0894377 -5.72785e-05)
(0.00130888 -0.0943217 -0.000197024)
(0.00129954 -0.0947164 -0.000174631)
(0.0012316 -0.0948455 -0.00019811)
(0.00122478 -0.0952634 -0.000176282)
(0.000392809 -0.0892379 -0.000224039)
(0.00205685 -0.0899157 -0.00067156)
(0.000361077 -0.0896879 -0.000225193)
(0.00202479 -0.0903797 -0.00067431)
(-0.00728156 -0.095122 0.000606967)
(0.00853473 -0.095033 0.485468)
(-0.00736371 -0.0957222 0.000605319)
(0.00846885 -0.0957122 0.485509)
(-0.00511251 -0.0908226 0.00118089)
(0.00440759 -0.0903063 0.498933)
(-0.00515305 -0.0913758 0.00118031)
(0.00438142 -0.0910495 0.498941)
(0.00867991 -0.0935661 -0.485235)
(-0.00710348 -0.0938022 -0.000609451)
(0.00860426 -0.0943189 -0.485277)
(-0.00719514 -0.0944832 -0.00060858)
(0.00444674 -0.0887318 -0.498897)
(-0.00500798 -0.0896004 -0.00118154)
(0.00441627 -0.0895355 -0.498904)
(-0.00505252 -0.0902324 -0.00118189)
(0.00146126 -0.0934958 0.000171617)
(0.0014764 -0.0931459 0.000194797)
(0.00137894 -0.0941282 0.000173085)
(0.00139063 -0.093756 0.000196002)
(0.00212622 -0.0888585 0.000666424)
(0.000460865 -0.08821 0.000221703)
(0.00209272 -0.0894096 0.000669098)
(0.000426076 -0.0887458 0.000222996)
(0.00122384 -0.0929414 5.7502e-05)
(0.00122383 -0.0929411 -5.73641e-05)
(0.00113747 -0.0935469 5.78609e-05)
(0.00113747 -0.0935466 -5.77226e-05)
(0.000421497 -0.087918 5.65023e-05)
(0.00042154 -0.0879176 -5.63635e-05)
(0.000389233 -0.0884656 5.68482e-05)
(0.000389278 -0.0884653 -5.67089e-05)
(0.00147629 -0.0931451 -0.000194629)
(0.0014615 -0.0934946 -0.000171603)
(0.00139053 -0.0937552 -0.000195833)
(0.00137919 -0.0941271 -0.00017307)
(0.000460949 -0.0882089 -0.000221511)
(0.00212565 -0.0888565 -0.000666146)
(0.000426165 -0.0887447 -0.000222803)
(0.00209215 -0.0894077 -0.000668817)
(-0.00709936 -0.0938009 0.00060896)
(0.00867585 -0.0935652 0.485246)
(-0.00719102 -0.0944819 0.000608088)
(0.00860006 -0.0943179 0.485287)
(-0.00500412 -0.0895979 0.00118059)
(0.0044432 -0.0887304 0.498898)
(-0.00504868 -0.0902299 0.00118094)
(0.00441249 -0.0895338 0.498906)
(0.00884142 -0.0919374 -0.485012)
(-0.00690132 -0.0923102 -0.000610047)
(0.0087555 -0.0927728 -0.485051)
(-0.00700303 -0.0930783 -0.000609846)
(0.00449143 -0.0870173 -0.498863)
(-0.00489095 -0.0882119 -0.00117955)
(0.00445627 -0.0878929 -0.49887)
(-0.00493968 -0.0889269 -0.00118071)
(0.00163919 -0.092095 0.00016894)
(0.0016615 -0.0917872 0.000192204)
(0.00154876 -0.0928183 0.000170234)
(0.00156678 -0.0924899 0.000193501)
(0.00219839 -0.0876202 0.000661159)
(0.000535356 -0.0870008 0.000218939)
(0.00216311 -0.0882618 0.000663757)
(0.000497327 -0.0876282 0.000220343)
(0.00141142 -0.0915916 5.66698e-05)