/*--------------------------------*- C++ -*----------------------------------*\
  =========                 |
  \\      /  F ield         | OpenFOAM: The Open Source CFD Toolbox
   \\    /   O peration     | Website:  https://openfoam.org
    \\  /    A nd           | Version:  9
     \\/     M anipulation  |
\*---------------------------------------------------------------------------*/
FoamFile
{
    format      ascii;
    class       volScalarField;
    location    "2.5";
    object      epsilon;
}
// * * * * * * * * * * * * * * * * * * * * * * * * * * * * * * * * * * * * * //

dimensions      [0 2 -3 0 0 0 0];

internalField   nonuniform List<scalar> 
4545
(
12.6569
18.1068
15.6257
18.1067
12.6568
26.2096
26.5708
23.6578
26.5708
26.2096
32.6772
31.5518
28.2873
31.5519
32.6773
36.2457
34.7315
31.3556
34.7315
36.2459
38.5447
36.9007
33.483
36.9009
38.545
40.1412
38.4379
35.0025
38.4385
40.1435
41.2702
39.5396
36.1029
39.5414
41.2719
42.0671
40.3266
36.8994
40.3291
42.0686
42.6152
40.8797
37.4687
40.8829
42.6323
42.9856
41.2538
37.8632
41.2567
42.9968
43.228
41.4926
38.121
41.4924
43.2354
43.3644
41.6152
38.2635
41.6084
43.3657
43.3919
41.6375
38.3116
41.6293
43.3715
43.3313
41.5802
38.2825
41.5748
43.3117
43.216
41.4445
38.1812
41.4388
43.1855
43.0203
41.2378
38.0066
41.2317
42.9808
42.7441
40.9693
37.7755
40.9669
42.7187
42.4212
40.6458
37.489
40.6452
42.4123
42.0445
40.2683
37.148
40.2672
42.0445
41.6269
39.834
36.7518
39.8318
41.6258
41.1638
39.3429
36.3004
39.3416
41.1772
40.6431
38.7938
35.7923
38.7904
40.6393
40.0527
38.1863
35.2264
38.1789
40.049
39.4215
37.5156
34.6003
37.5044
39.4002
38.705
36.7726
33.9108
36.7597
38.66
37.8988
35.9587
33.161
35.9562
37.9006
37.0627
35.0842
32.343
35.0887
37.0757
36.1479
34.1486
31.4929
34.1489
36.1545
35.1589
33.1454
30.5859
33.1397
35.1493
34.126
32.0801
29.6224
32.0752
34.1147
33.0197
30.9522
28.6049
30.9529
33.0279
31.8556
29.7678
27.5359
29.7712
31.8576
30.6528
28.5369
26.4193
28.541
30.658
29.4032
27.2603
25.2573
27.2633
29.4112
28.1027
25.9398
24.052
25.9415
28.1065
26.7506
24.5794
22.805
24.5801
26.7519
25.3592
23.1828
21.516
23.1831
25.3595
23.9357
21.744
20.1806
21.7441
23.9357
22.4627
20.234
18.7924
20.234
22.4627
16.9737
16.6377
13.9069
16.6379
16.9739
22.8624
20.9005
18.0502
20.9007
22.8627
26.2524
23.7972
20.7735
23.7974
26.2527
28.2006
25.5466
22.5056
25.5469
28.201
29.3699
26.6494
23.6323
26.6497
29.3704
30.1061
27.357
24.3779
27.3575
30.1076
30.5676
27.8076
24.871
27.8081
30.5669
30.8357
28.0821
25.1896
28.0822
30.8297
30.9798
28.2332
25.3836
28.2339
30.9716
31.0388
28.2954
25.4861
28.2962
31.037
31.0291
28.2905
25.5188
28.2906
31.03
30.969
28.2356
25.4974
28.2336
30.9657
30.8547
28.1296
25.4286
28.1269
30.8606
30.7064
27.9853
25.3194
27.9828
30.709
30.5422
27.8107
25.177
27.8053
30.5203
30.3559
27.6069
25.0045
27.5993
30.317
30.1322
27.3747
24.8053
27.3674
30.0823
29.8559
27.1165
24.5815
27.1121
29.8243
29.5518
26.8358
24.3344
26.834
29.5452
29.2582
26.5362
24.0645
26.5341
29.2505
28.9608
26.2166
23.7721
26.2139
28.9435
28.6123
25.872
23.4557
25.8687
28.6061
28.235
25.5031
23.115
25.4981
28.2292
27.8586
25.1114
22.7488
25.1005
27.8063
27.4268
24.6889
22.3555
24.6764
27.3617
26.9335
24.2354
21.9361
24.231
26.9114
26.425
23.759
21.4919
23.7613
26.4438
25.9058
23.2594
21.0266
23.2626
25.934
25.3495
22.7336
20.5368
22.7347
25.3677
24.7639
22.1835
20.0227
22.1844
24.7788
24.145
21.608
19.484
21.6108
24.1578
23.5007
21.0094
18.9214
21.0123
23.5052
22.8418
20.3905
18.3359
20.3933
22.8402
22.1493
19.7495
17.7274
19.7523
22.1513
21.4288
19.0857
17.095
19.0878
21.4325
20.6785
18.3978
16.4377
18.3991
20.6807
19.9023
17.6838
15.7533
17.6845
19.9034
19.106
16.9348
15.0368
16.9351
19.1066
18.2672
16.1147
14.2823
16.1149
18.2675
18.5488
17.5021
15.4073
17.5024
18.5492
22.314
20.6017
18.6141
20.602
22.3145
24.5761
22.7657
20.7733
22.7661
24.5767
25.9565
24.1112
22.1623
24.1115
25.9571
26.7848
24.9474
23.0499
24.9478
26.7854
27.279
25.4583
23.6114
25.4586
27.2797
27.5577
25.7557
23.9561
25.7561
27.5583
27.6919
25.9086
24.1524
25.9089
27.6922
27.7274
25.961
24.2444
25.9612
27.7278
27.6962
25.943
24.2613
25.9432
27.6968
27.6139
25.8725
24.2235
25.8724
27.6141
27.4919
25.7592
24.1401
25.7585
27.491
27.3364
25.6117
24.0209
25.6111
27.3354
27.1545
25.4367
23.8725
25.4362
27.1533
26.9519
25.2383
23.6993
25.2376
26.9486
26.7298
25.0198
23.5045
25.0188
26.7251
26.4887
24.7829
23.2905
24.7819
26.4837
26.229
24.5289
23.0588
24.5282
26.2259
25.9532
24.2591
22.8103
24.2585
25.9519
25.6633
23.9736
22.5452
23.9728
25.6619
25.3578
23.6726
22.2638
23.6713
25.3557
25.033
23.355
21.9655
23.3533
25.0305
24.6888
23.0203
21.6497
23.0177
24.6848
24.3253
22.6676
21.316
22.6641
24.3174
23.9377
22.2954
20.9635
22.2922
23.9289
23.525
21.9039
20.5925
21.9024
23.5214
23.0918
21.4942
20.2034
21.4945
23.0929
22.6382
21.0671
19.7964
21.0679
22.6407
22.1631
20.6219
19.3715
20.6225
22.165
21.6678
20.1592
18.9291
20.1601
21.6698
21.1526
19.6795
18.4694
19.681
21.1555
20.6193
19.1836
17.9928
19.1855
20.6225
20.0701
18.6726
17.4998
18.6745
20.0731
19.5046
18.1465
16.9905
18.1483
19.5076
18.9231
17.6051
16.4645
17.6066
18.9257
18.3263
17.0482
15.9214
17.0492
18.3281
17.7161
16.4747
15.3603
16.4754
17.7173
17.0977
15.8806
14.7803
15.8811
17.0986
16.4564
15.2488
14.1827
15.2491
16.4571
19.1845
18.1395
16.4772
18.1399
19.185
22.1585
20.7037
19.1931
20.7041
22.1591
23.9388
22.4867
21.0214
22.4871
23.9394
25.0547
23.6146
22.2082
23.615
25.0554
25.7285
24.3158
22.9644
24.3162
25.7292
26.1197
24.7342
23.4321
24.7346
26.1204
26.3235
24.9629
23.7044
24.9633
26.3242
26.4004
25.0619
23.842
25.0623
26.401
26.3905
25.0704
23.8846
25.0707
26.3911
26.322
25.0175
23.861
25.0178
26.3226
26.2056
24.9144
23.7858
24.9146
26.2061
26.0557
24.775
23.6707
24.7751
26.0559
25.8787
24.607
23.5253
24.6071
25.8788
25.6803
24.4161
23.3553
24.4163
25.6804
25.464
24.206
23.1646
24.2061
25.4639
25.232
23.9794
22.9561
23.9795
25.2317
24.9857
23.7381
22.732
23.7382
24.9854
24.7257
23.4831
22.4934
23.4832
24.7257
24.4527
23.2152
22.2411
23.2152
24.4527
24.1663
22.9343
21.9754
22.9343
24.1662
23.8661
22.6406
21.6964
22.6403
23.8658
23.5513
22.3336
21.4038
22.3331
23.5507
23.2212
22.013
21.0975
22.0122
23.22
22.8748
21.6782
20.7771
21.6772
22.8731
22.5114
21.3288
20.4423
21.328
22.5098
22.1308
20.9648
20.0932
20.9645
22.1301
21.7337
20.5867
19.73
20.5869
21.734
21.3205
20.1946
19.3527
20.1951
21.3214
20.8917
19.789
18.9616
19.7895
20.8927
20.4479
19.37
18.557
19.3708
20.4492
19.9899
18.9382
18.1391
18.9392
19.9916
19.5187
18.4941
17.7082
18.4953
19.5206
19.0353
18.0383
17.2647
18.0395
19.0374
18.5407
17.5712
16.8088
17.5724
18.5427
18.0356
17.0936
16.341
17.0946
18.0374
17.5219
16.6062
15.8618
16.607
17.5234
17.0031
16.1104
15.372
16.111
17.0043
16.4871
15.6065
14.8733
15.6071
16.4881
15.9695
15.0882
14.3725
15.0887
15.9704
19.5095
18.5402
17.1548
18.5405
19.5101
22.1026
20.8154
19.5768
20.8158
22.1032
23.6408
22.3837
21.2011
22.384
23.6414
24.6153
23.3828
22.2596
23.3832
24.6159
25.2061
24.0048
22.9337
24.0052
25.2067
25.5443
24.3714
23.3455
24.3717
25.5449
25.7113
24.5633
23.5765
24.5637
25.7119
25.7604
24.6341
23.6814
24.6345
25.7611
25.7296
24.6208
23.6972
24.6211
25.7302
25.6413
24.5484
23.651
24.5487
25.6419
25.5084
24.4283
23.5543
24.4286
25.509
25.3441
24.2747
23.4215
24.275
25.3446
25.1551
24.0949
23.2607
24.0952
25.1557
24.9471
23.8945
23.0777
23.8949
24.9476
24.723
23.677
22.8763
23.6774
24.7236
24.4853
23.4451
22.6593
23.4454
24.4859
24.2354
23.2005
22.4286
23.2008
24.236
23.9741
22.9443
22.1857
22.9446
23.9746
23.7017
22.6771
21.9312
22.6774
23.7022
23.4181
22.3992
21.6656
22.3994
23.4185
23.1231
22.1107
21.3891
22.1109
23.1235
22.8166
21.8117
21.1018
21.8118
22.8168
22.4981
21.5019
20.8036
21.5019
22.4982
22.1672
21.1812
20.4946
21.1812
22.1672
21.8239
20.8497
20.1748
20.8497
21.824
21.4683
20.5074
19.8442
20.5076
21.4686
21.1006
20.1546
19.503
20.155
21.1012
20.7215
19.7916
19.1514
19.7921
20.7223
20.3312
19.4186
18.7896
19.4192
20.3322
19.9305
19.0359
18.4176
19.0365
19.9317
19.5198
18.6436
18.0356
18.6444
19.5211
19.0996
18.2421
17.6436
18.243
19.101
18.6705
17.8317
17.2419
17.8326
18.672
18.2332
17.413
16.8305
17.4138
18.2347
17.7891
16.9868
16.41
16.9875
17.7905
17.3402
16.5548
15.982
16.5555
17.3415
16.8912
16.1194
15.5489
16.12
16.8924
16.4512
15.6829
15.1149
15.6835
16.4523
16.0198
15.2439
14.6875
15.2444
16.0208
19.7036
18.7951
17.5848
18.7955
19.7041
22.0821
20.9004
19.8236
20.9008
22.0827
23.4856
22.3418
21.3211
22.3421
23.4862
24.3789
23.2628
22.2982
23.2631
24.3794
24.9215
23.8363
22.9201
23.8366
24.922
25.2295
24.1716
23.2968
24.1719
25.23
25.3761
24.342
23.5027
24.3423
25.3766
25.41
24.3966
23.5882
24.397
25.4106
25.3677
24.3709
23.5882
24.3713
25.3683
25.2679
24.2866
23.528
24.287
25.2685
25.1253
24.1565
23.4184
24.1569
25.1259
24.952
23.9939
23.2743
23.9942
24.9526
24.7551
23.8062
23.1035
23.8066
24.7557
24.5401
23.5992
22.9118
23.5996
24.5408
24.3103
23.3762
22.7029
23.3766
24.311
24.0681
23.1402
22.4799
23.1406
24.0688
23.8152
22.8929
22.2448
22.8933
23.8159
23.5526
22.6356
21.9991
22.636
23.5532
23.2808
22.3693
21.7438
22.3696
23.2815
23.0002
22.0942
21.4794
22.0946
23.0008
22.7109
21.8111
21.2065
21.8114
22.7115
22.413
21.52
20.9255
21.5203
22.4136
22.1066
21.2211
20.6366
21.2214
22.1072
21.7919
20.9149
20.3401
20.9151
21.7924
21.469
20.6013
20.0362
20.6017
21.4696
21.1384
20.2809
19.7252
20.2812
21.1391
20.8004
19.9538
19.4074
19.9542
20.8012
20.4555
19.6203
19.0828
19.6208
20.4564
20.1041
19.2805
18.7516
19.281
20.105
19.7463
18.9344
18.4135
18.935
19.7474
19.3824
18.582
18.0683
18.5827
19.3836
19.0124
18.2231
17.7156
18.2238
19.0136
18.6361
17.8574
17.3554
17.8581
18.6374
18.2535
17.485
16.9879
17.4857
18.2548
17.8653
17.1071
16.6139
17.1078
17.8666
17.4741
16.7257
16.2349
16.7263
17.4754
17.0853
16.3442
15.8538
16.3448
17.0866
16.7097
15.9668
15.4753
15.9674
16.7109
16.3502
15.5938
15.1078
15.5943
16.3513
19.825
18.9577
17.8586
18.958
19.8255
22.0729
20.9581
19.9811
20.9584
22.0734
23.3973
22.3225
21.3994
22.3228
23.3978
24.2424
23.1957
22.3252
23.1959
24.2428
24.7558
23.739
22.9139
23.7393
24.7563
25.0455
24.0549
23.2684
24.0552
25.0459
25.1796
24.2119
23.4584
24.2122
25.1801
25.2042
24.2564
23.5314
24.2567
25.2047
25.1543
24.2228
23.5216
24.2231
25.1549
25.0467
24.1304
23.4514
24.1307
25.0473
24.8971
23.9932
23.3332
23.9935
24.8977
24.717
23.8239
23.181
23.8242
24.7176
24.5136
23.6301
23.0028
23.6305
24.5143
24.2927
23.4175
22.8043
23.4179
24.2934
24.0578
23.1898
22.5896
23.1902
24.0585
23.8115
22.9501
22.3619
22.9505
23.8122
23.5558
22.7004
22.1234
22.7008
23.5565
23.292
22.4422
21.8758
22.4426
23.2927
23.0212
22.1768
21.6204
22.1772
23.0219
22.7438
21.9049
21.3581
21.9053
22.7445
22.4606
21.6274
21.0898
21.6278
22.4613
22.1721
21.3448
20.8162
21.3452
22.1728
21.8789
21.0577
20.5378
21.0581
21.8796
21.5815
20.7668
20.2553
20.7672
21.5822
21.2804
20.4726
19.9692
20.473
21.2811
20.9763
20.1754
19.6798
20.1759
20.9771
20.6698
19.8758
19.3877
19.8763
20.6706
20.3612
19.574
19.0927
19.5745
20.3621
20.0508
19.2698
18.7947
19.2703
20.0517
19.7383
18.9629
18.4935
18.9635
19.7393
19.4232
18.6528
18.1884
18.6534
19.4242
19.1049
18.339
17.8788
18.3396
19.106
18.7832
18.0212
17.5642
18.0218
18.7844
18.4579
17.6991
17.2442
17.6997
18.4591
18.1295
17.3732
16.9191
17.3739
18.1307
17.7996
17.045
16.5902
17.0457
17.8008
17.4731
16.7175
16.2602
16.7181
17.4743
17.1598
16.3946
15.9334
16.3952
17.161
16.8634
16.0773
15.618
16.0779
16.8646
19.8987
19.0576
18.0271
19.0579
19.8992
22.0665
20.9935
20.0772
20.9938
22.0669
23.3439
22.3115
21.447
22.3118
23.3443
24.1602
23.1556
22.3414
23.1559
24.1606
24.6559
23.6804
22.9092
23.6807
24.6563
24.9339
23.9839
23.2495
23.9842
24.9343
25.0596
24.132
23.429
24.1323
25.06
25.0774
24.1694
23.4935
24.1697
25.0778
25.0217
24.1298
23.4766
24.1301
25.0222
24.9076
24.031
23.3989
24.0313
24.9082
24.7518
23.8879
23.274
23.8883
24.7524
24.5655
23.7128
23.1152
23.7132
24.5661
24.3562
23.5135
22.9307
23.5138
24.3568
24.1296
23.2957
22.7263
23.2961
24.1302
23.8895
23.0635
22.5065
23.0638
23.8902
23.639
22.82
22.2745
22.8204
23.6397
23.3804
22.5678
22.033
22.5682
23.3811
23.1153
22.3086
21.7839
22.309
23.116
22.8452
22.0441
21.5287
22.0445
22.8459
22.5712
21.7753
21.2689
21.7757
22.5719
22.2943
21.5034
21.0057
21.5038
22.295
22.0156
21.2297
20.74
21.2301
22.0163
21.736
20.9549
20.473
20.9553
21.7368
21.4567
20.6801
20.2056
20.6805
21.4574
21.1785
20.4061
19.9385
20.4065
21.1792
20.9023
20.1337
19.6726
20.1341
20.9031
20.6289
19.8634
19.4081
19.8638
20.6297
20.3588
19.5954
19.1453
19.5959
20.3596
20.0918
19.3295
18.8839
19.33
20.0926
19.8277
19.0655
18.6234
19.066
19.8286
19.566
18.8024
18.3629
18.8029
19.567
19.3054
18.539
18.1011
18.5395
19.3064
19.0443
18.2741
17.8367
18.2747
19.0454
18.7817
18.0067
17.5688
18.0073
18.7828
18.5169
17.7365
17.2968
17.7371
18.5181
18.2511
17.4643
17.0213
17.4649
18.2523
17.9883
17.1924
16.7442
17.193
17.9894
17.7378
16.9241
16.4692
16.9247
17.739
17.5032
16.6601
16.2036
16.6607
17.5044
19.9373
19.1108
18.1179
19.1111
19.9378
22.0605
21.0109
20.1277
21.0111
22.0609
23.3121
22.3033
21.4705
22.3035
23.3125
24.1122
23.131
22.347
23.1313
24.1126
24.5972
23.6448
22.9027
23.645
24.5975
24.8674
23.9404
23.234
23.9406
24.8677
24.9868
24.0821
23.4062
24.0824
24.9872
24.9989
24.1139
23.4645
24.1142
24.9994
24.9379
24.0692
23.4419
24.0695
24.9383
24.8177
23.9647
23.3581
23.965
24.8182
24.6558
23.816
23.2272
23.8163
24.6564
24.4633
23.6353
23.0624
23.6356
24.4638
24.2477
23.4303
22.8721
23.4307
24.2482
24.0151
23.2072
22.6623
23.2076
24.0157
23.7696
22.9702
22.4374
22.9706
23.7702
23.5145
22.7228
22.2013
22.7231
23.5151
23.2524
22.4676
21.9566
22.468
23.2531
22.9855
22.207
21.7058
22.2074
22.9862
22.7157
21.9428
21.4507
21.9431
22.7163
22.4443
21.6766
21.1932
21.6769
22.445
22.1732
21.41
20.9348
21.4104
22.1739
21.9038
21.1447
20.6771
21.145
21.9045
21.6377
20.8819
20.4215
20.8823
21.6383
21.3762
20.6231
20.1693
20.6235
21.3769
21.121
20.3696
19.9218
20.37
21.1217
20.8732
20.1225
19.68
20.1229
20.8739
20.6339
19.8825
19.4446
19.8829
20.6346
20.4038
19.6502
19.2159
19.6506
20.4045
20.1831
19.4255
18.9938
19.4259
20.1839
19.9713
19.2077
18.7776
19.2081
19.9722
19.7673
18.9956
18.5659
18.9961
19.7682
19.5693
18.7875
18.357
18.788
19.5702
19.3749
18.5813
18.1488
18.5819
19.3759
19.182
18.3752
17.9394
18.3757
19.183
18.9887
18.1675
17.727
18.1681
18.9898
18.7948
17.9578
17.5109
17.9583
18.7959
18.6027
17.747
17.2919
17.7476
18.6038
18.4208
17.5373
17.0722
17.5379
18.422
18.2517
17.3286
16.858
17.3292
18.2529
19.9473
19.1257
18.1447
19.126
19.9478
22.0548
21.0132
20.1406
21.0135
22.0552
23.2968
22.2962
21.4736
22.2964
23.2972
24.09
23.1172
22.343
23.1174
24.0903
24.5694
23.6256
22.8929
23.6258
24.5698
24.8346
23.9164
23.2192
23.9166
24.8349
24.949
24.0536
23.3868
24.0538
24.9494
24.9559
24.0806
23.4402
24.0809
24.9564
24.8896
24.0312
23.4129
24.0315
24.89
24.7633
23.9212
23.3236
23.9215
24.7638
24.5951
23.767
23.1872
23.7673
24.5956
24.3959
23.5805
23.0168
23.5808
24.3965
24.1737
23.3698
22.8208
23.3701
24.1742
23.9346
23.141
22.6055
23.1414
23.9351
23.683
22.8987
22.3755
22.8991
23.6835
23.4225
22.6467
22.1349
22.647
23.423
23.1561
22.3879
21.8867
22.3882
23.1567
22.8863
22.1249
21.6336
22.1253
22.8869
22.6155
21.86
21.378
21.8604
22.6161
22.3457
21.5953
21.1219
21.5957
22.3463
22.0789
21.3329
20.8675
21.3332
22.0795
21.8174
21.0747
20.6168
21.075
21.818
21.5632
20.8226
20.3715
20.823
21.5638
21.3183
20.5787
20.1337
20.5791
21.3189
21.0848
20.3447
19.905
20.345
21.0854
20.8644
20.1221
19.6869
20.1225
20.8651
20.6589
19.9124
19.4807
19.9127
20.6595
20.4693
19.7163
19.287
19.7167
20.47
20.2964
19.5342
19.1059
19.5346
20.2971
20.1399
19.3655
18.9369
19.366
20.1406
19.9983
19.2088
18.7784
19.2092
19.999
19.8693
19.0619
18.6282
19.0623
19.8702
19.7501
18.9219
18.4833
18.9224
19.751
19.637
18.7857
18.3407
18.7862
19.6379
19.5266
18.6502
18.1972
18.6507
19.5276
19.4166
18.513
18.05
18.5136
19.4176
19.3074
18.373
17.8979
18.3736
19.3085
19.2051
18.2303
17.7411
18.2309
19.2062
19.1109
18.083
17.5837
18.0836
19.112
19.9308
19.1047
18.1118
19.105
19.9313
22.0498
21.0016
20.1186
21.0019
22.0503
23.297
22.2902
21.4578
22.2905
23.2974
24.0918
23.1133
22.3299
23.1136
24.0922
24.5703
23.6215
22.8802
23.6218
24.5707
24.8329
23.9105
23.2052
23.9108
24.8333
24.9435
24.0446
23.3703
24.0449
24.944
24.9456
24.0678
23.4202
24.0681
24.9461
24.874
24.0141
23.3891
24.0144
24.8745
24.7417
23.8989
23.295
23.8992
24.7422
24.5669
23.7392
23.1536
23.7395
24.5674
24.3609
23.5469
22.978
23.5472
24.3614
24.1316
23.3302
22.7765
23.3305
24.1321
23.8854
23.0955
22.5557
23.0958
23.886
23.627
22.8474
22.3205
22.8477
23.6275
23.3602
22.5901
22.075
22.5904
23.3607
23.0884
22.3267
21.8228
22.3271
23.0889
22.8144
22.0603
21.5666
22.0606
22.8149
22.541
21.7934
21.3094
21.7937
22.5415
22.2707
21.5285
21.0535
21.5289
22.2712
22.0061
21.2683
20.8015
21.2686
22.0066
21.7499
21.0151
20.5558
21.0154
21.7505
21.5049
20.7715
20.319
20.7718
21.5055
21.2738
20.54
20.0934
20.5403
21.2743
21.0592
20.323
19.8815
20.3233
21.0597
20.8638
20.1229
19.6853
20.1232
20.8644
20.6901
19.9416
19.5068
19.942
20.6906
20.5399
19.7809
19.3474
19.7812
20.5405
20.415
19.6417
19.2078
19.642
20.4155
20.3155
19.5239
19.0879
19.5242
20.3161
20.2407
19.4264
18.9865
19.4268
20.2413
20.1882
19.347
18.9011
19.3474
20.1889
20.1546
19.2822
18.8283
19.2827
20.1553
20.1351
19.2277
18.7636
19.2281
20.1359
20.1241
19.1782
18.702
19.1787
20.125
20.1167
19.1288
18.638
19.1293
20.1176
20.1097
19.0752
18.5672
19.0757
20.1107
20.1056
19.0138
18.4864
19.0143
20.1066
20.1022
18.9392
18.3961
18.9398
20.1032
19.8863
19.0457
18.0151
19.046
19.8868
22.0462
20.9757
20.0597
20.976
22.0467
23.3152
22.2865
21.4226
22.2868
23.3157
24.1211
23.1217
22.3085
23.122
24.1216
24.6043
23.6356
22.866
23.6359
24.6047
24.8673
23.9263
23.194
23.9266
24.8678
24.9757
24.0595
23.3593
24.0598
24.9762
24.9739
24.08
23.4078
24.0803
24.9744
24.8974
24.0228
23.3741
24.0231
24.898
24.7592
23.9029
23.2764
23.9033
24.7597
24.578
23.7382
23.1309
23.7385
24.5786
24.3651
23.5404
22.9506
23.5407
24.3657
24.1287
23.3179
22.7442
23.3182
24.1292
23.8752
23.0772
22.5183
23.0775
23.8758
23.6095
22.8232
22.278
22.8235
23.6101
23.3357
22.5601
22.0276
22.5604
23.3362
23.0573
22.2914
21.7708
22.2917
23.0579
22.7776
22.0203
21.5108
22.0207
22.7782
22.4997
21.7499
21.2507
21.7502
22.5003
22.2265
21.4828
20.9933
21.4832
22.227
21.9611
21.2223
20.7415
21.2226
21.9617
21.7069
20.9711
20.4985
20.9714
21.7074
21.4671
20.7326
20.2671
20.7329
21.4676
21.2453
20.5097
20.0505
20.51
21.2458
21.0451
20.3059
19.8517
20.3062
21.0455
20.8702
20.1243
19.6739
20.1246
20.8706
20.7241
19.968
19.52
19.9682
20.7246
20.6102
19.8397
19.3923
19.8399
20.6107
20.5313
19.7415
19.2928
19.7418
20.5318
20.4892
19.6748
19.2225
19.6751
20.4897
20.4845
19.6394
19.181
19.6398
20.4851
20.5156
19.6341
19.1669
19.6345
20.5162
20.5806
19.655
19.1763
19.6553
20.5812
20.6732
19.6976
19.2041
19.698
20.6739
20.786
19.7543
19.2432
19.7547
20.7868
20.9101
19.8163
19.2844
19.8167
20.9109
21.0373
19.8744
19.3184
19.8749
21.0382
21.1635
19.9191
19.3362
19.9196
21.1644
21.28
19.9383
19.332
19.9389
21.281
19.8077
18.9406
17.8409
18.9409
19.8083
22.0452
20.9334
19.9563
20.9337
22.0457
23.3579
22.2879
21.3653
22.2883
23.3585
24.1882
23.1485
22.2793
23.1488
24.1888
24.6837
23.6764
22.8533
23.6768
24.6842
24.9517
23.9739
23.1903
23.9742
24.9523
25.0608
24.1094
23.3599
24.1098
25.0614
25.057
24.1296
23.4098
24.13
25.0576
24.977
24.0706
23.3759
24.071
24.9777
24.8341
23.9477
23.2768
23.9481
24.8347
24.6474
23.779
23.1288
23.7794
24.648
24.4284
23.5768
22.9454
23.5771
24.429
24.1853
23.3493
22.7354
23.3496
24.1858
23.9248
23.1032
22.5053
23.1035
23.9253
23.6516
22.8434
22.2605
22.8437
23.6522
23.3702
22.5744
22.0055
22.5747
23.3708
23.0843
22.2998
21.744
22.3001
23.0849
22.7974
22.023
21.4796
22.0234
22.798
22.5129
21.7474
21.2155
21.7478
22.5135
22.234
21.476
20.9549
21.4764
22.2346
21.9644
21.2123
20.7012
21.2126
21.965
21.7078
20.9597
20.4577
20.96
21.7084
21.4683
20.7219
20.228
20.7222
21.4688
21.2501
20.5028
20.016
20.5031
21.2505
21.0578
20.3065
19.8255
20.3068
21.0582
20.8964
20.1374
19.6608
20.1377
20.8968
20.771
19.9999
19.5259
20.0002
20.7714
20.6869
19.8984
19.4249
19.8986
20.6873
20.649
19.8369
19.3615
19.8372
20.6494
20.6614
19.8188
19.3388
19.8191
20.6618
20.7269
19.8457
19.358
19.846
20.7274
20.8498
19.9199
19.4203
19.9201
20.8503
21.028
20.0396
19.5244
20.0399
21.0285
21.2573
20.1996
19.6641
20.2
21.2579
21.5295
20.3913
19.8309
20.3917
21.5301
21.8317
20.6021
20.0118
20.6025
21.8324
22.1481
20.8155
20.1905
20.8159
22.1489
22.4634
21.0114
20.3478
21.0118
22.4643
22.7543
21.1647
20.4662
21.1652
22.7552
19.6823
18.7728
17.5611
18.7732
19.6829
22.0496
20.8704
19.7929
20.8708
22.0503
23.4394
22.3005
21.2799
22.3009
23.4401
24.3146
23.2063
22.2427
23.2067
24.3153
24.8345
23.7606
22.8464
23.761
24.8352
25.1153
24.0729
23.2014
24.0733
25.116
25.2301
24.2164
23.3819
24.2169
25.2308
25.2279
24.2404
23.4383
24.2409
25.2287
25.1476
24.1829
23.4081
24.1834
25.1484
25.0025
24.0601
23.3114
24.0605
25.0033
24.8126
23.8901
23.1641
23.8905
24.8133
24.5893
23.6855
22.9804
23.6859
24.5899
24.341
23.4548
22.7691
23.4551
24.3415
24.0745
23.2047
22.537
23.205
24.075
23.7945
22.9402
22.2893
22.9405
23.7951
23.5056
22.6657
22.0307
22.6661
23.5062
23.2116
22.3852
21.7652
22.3857
23.2123
22.9163
22.1022
21.4964
22.1026
22.917
22.6232
21.8201
21.2277
21.8206
22.624
22.336
21.5424
20.9626
21.5428
22.3367
22.0585
21.2728
20.7048
21.2731
22.0591
21.7949
21.015
20.4579
21.0153
21.7955
21.5498
20.7732
20.2261
20.7735
21.5503
21.3282
20.552
20.0137
20.5523
21.3287
21.1358
20.3565
19.8257
20.3568
21.1362
20.9787
20.1921
19.6671
20.1923
20.9791
20.8639
20.0648
19.5438
20.0651
20.8644
20.7992
19.9811
19.4616
19.9814
20.7996
20.7925
19.9479
19.427
19.9481
20.793
20.8499
19.9706
19.4451
19.9708
20.8503
20.9834
20.0565
19.522
20.0568
20.9838
21.2008
20.2138
19.6651
20.214
21.2012
21.5069
20.4438
19.875
20.4441
21.5074
21.9037
20.7462
20.1502
20.7465
21.9042
22.3867
21.1144
20.4835
21.1148
22.3872
22.9426
21.5338
20.8592
21.5341
22.9432
23.5474
21.9788
21.252
21.9792
23.5481
24.1675
22.4125
21.6266
22.4129
24.1683
24.7491
22.7839
21.9423
22.7843
24.7499
19.4842
18.5116
17.1236
18.5119
19.4848
22.0678
20.7812
19.5406
20.7816
22.0685
23.5918
22.3382
21.1546
22.3386
23.5925
24.5459
23.3208
22.1976
23.3212
24.5467
25.1105
23.9211
22.8513
23.9215
25.1113
25.417
24.2612
23.2381
24.2617
25.4178
25.5469
24.4222
23.4399
24.4227
25.5477
25.5534
24.4575
23.5113
24.458
25.5543
25.4784
24.4073
23.4917
24.4078
25.4793
25.3364
24.2901
23.404
24.2906
25.3373
25.1476
24.1234
23.2629
24.1238
25.1482
24.9238
23.9206
23.0839
23.9208
24.9242
24.6734
23.6901
22.8756
23.6903
24.6737
24.4032
23.4389
22.6451
23.4392
24.4036
24.118
23.1718
22.3976
23.1722
24.1187
23.8225
22.8934
22.1379
22.894
23.8234
23.5207
22.6079
21.8702
22.6086
23.5218
23.2164
22.3189
21.5981
22.3196
23.2176
22.9135
22.0299
21.3254
22.0306
22.9147
22.6157
21.7446
21.0556
21.7452
22.6168
22.327
21.4668
20.7925
21.4674
22.3279
22.052
21.2006
20.5401
21.2011
22.0528
21.7955
20.9504
20.3029
20.9508
21.7962
21.5631
20.7214
20.0857
20.7217
21.5638
21.3614
20.5192
19.8942
20.5196
21.362
21.1977
20.3506
19.7345
20.351
21.1984
21.0809
20.2231
19.6138
20.2234
21.0815
21.0211
20.1453
19.5404
20.1457
21.0216
21.0297
20.1273
19.5236
20.1276
21.0302
21.1171
20.1775
19.5711
20.1778
21.1176
21.3052
20.3126
19.698
20.3128
21.3056
21.6109
20.5474
19.918
20.5477
21.6113
22.0525
20.8943
20.2412
20.8945
22.0529
22.6481
21.3648
20.677
21.3651
22.6485
23.4105
21.9644
21.2282
21.9647
23.411
24.3401
22.6856
21.8846
22.6859
24.3407
25.4148
23.4993
22.6153
23.4997
25.4154
26.5793
24.3445
23.3614
24.3449
26.58
27.7204
25.1191
24.0361
25.1195
27.7211
19.1525
18.1006
16.4341
18.1009
19.153
22.122
20.6641
19.1497
20.6645
22.1226
23.8895
22.4378
20.9696
22.4383
23.8902
24.9841
23.5489
22.1409
23.5494
24.9848
25.629
24.2271
22.8755
24.2276
25.6298
25.985
24.6169
23.3165
24.6174
25.9858
26.1478
24.812
23.5571
24.8126
26.1486
26.1774
24.8723
23.6583
24.8729
26.1783
26.1182
24.8399
23.6609
24.8404
26.1191
25.9898
24.7386
23.5934
24.7391
25.9905
25.8103
24.5834
23.468
24.5835
25.8104
25.5933
24.3895
23.3019
24.3893
25.5927
25.3465
24.1653
23.1039
24.165
25.3458
25.077
23.9177
22.8812
23.9179
25.0773
24.7898
23.6518
22.6392
23.6525
24.7912
24.4899
23.3726
22.3829
23.3737
24.492
24.1818
23.0843
22.1167
23.0857
24.1843
23.8693
22.7908
21.8444
22.7922
23.8719
23.5565
22.4959
21.57
22.4973
23.5591
23.2473
22.2032
21.2971
22.2043
23.2494
22.9456
21.9166
21.0297
21.9174
22.9471
22.6559
21.6401
20.7717
21.6407
22.6569
22.3831
21.3784
20.5279
21.379
22.3841
22.1334
21.1369
20.3035
21.1376
22.1346
21.9139
20.922
20.1045
20.9227
21.9153
21.7328
20.7409
19.9379
20.7417
21.7343
21.6004
20.6027
19.8122
20.6034
21.6015
21.5289
20.5178
19.7376
20.5184
21.5296
21.5331
20.4993
19.7261
20.4997
21.5335
21.6269
20.5591
19.7889
20.5594
21.6272
21.8429
20.7227
19.95
20.7229
21.843
22.213
21.0177
20.2341
21.0179
22.2132
22.7767
21.4734
20.6673
21.4736
22.7771
23.5853
22.1269
21.2817
22.1272
23.5858
24.6984
23.0174
22.1093
23.0177
24.6989
26.1739
24.1754
23.1716
24.1757
26.1745
28.0454
25.6007
24.459
25.6011
28.046
30.2761
27.223
25.8971
27.2234
30.2767
32.6628
28.8446
27.3104
28.845
32.6635
18.5005
17.4425
15.3427
17.4427
18.5008
22.271
20.5504
18.5569
20.5506
22.2715
24.5238
22.7093
20.7115
22.7096
24.5243
25.8826
24.0387
22.086
24.0391
25.8832
26.6798
24.8511
22.9514
24.8515
26.6804
27.1361
25.332
23.4849
25.3324
27.1367
27.371
25.5943
23.7963
25.5947
27.3716
27.4551
25.7068
23.954
25.7071
27.4559
27.4344
25.713
24.0019
25.7133
27.4352
27.3402
25.6457
23.9718
25.6459
27.3404
27.1879
25.5175
23.8798
25.5168
27.1863
26.9934
25.3455
23.7405
25.3437
26.9886
26.762
25.138
23.5648
25.1362
26.7566
26.5006
24.9019
23.36
24.9018
26.4997
26.2163
24.643
23.1317
24.6448
26.2201
25.9157
24.3675
22.8857
24.3705
25.9223
25.6045
24.0802
22.6269
24.0837
25.6115
25.2869
23.7853
22.3596
23.7886
25.2938
24.9666
23.4868
22.0881
23.4899
24.9736
24.648
23.1886
21.8163
23.1911
24.6532
24.3352
22.8948
21.5481
22.8963
24.3374
24.03
22.6084
21.2876
22.6094
24.031
23.7385
22.3344
21.0396
22.3356
23.7407
23.4689
22.0792
20.8096
22.0805
23.4722
23.2267
21.8488
20.6039
21.8506
23.2315
23.0215
21.6512
20.4301
21.6532
23.0267
22.8662
21.4965
20.2975
21.498
22.8682
22.7724
21.3963
20.2176
21.397
22.7711
22.7558
21.3652
20.2049
21.3653
22.7534
22.8328
21.4182
20.2731
21.4181
22.8303
23.0416
21.5868
20.4539
21.5865
23.0391
23.4322
21.9138
20.7852
21.9135
23.4308
24.0682
22.4483
21.3126
22.4485
24.0683
25.0498
23.2676
22.1048
23.268
25.0503
26.5295
24.48
23.2554
24.4804
26.5302
28.7233
26.2278
24.8835
26.2282
28.724
31.9165
28.6711
27.111
28.6716
31.9172
36.3906
31.8996
29.9799
31.9
36.3913
42.077
35.6502
33.2237
35.6506
42.0777
16.8796
16.5313
13.7995
16.5313
16.8796
22.7891
20.8171
17.9616
20.8172
22.7892
26.1763
23.714
20.6847
23.7141
26.1765
28.1028
25.4477
22.4026
25.4479
28.103
29.2373
26.5244
23.5051
26.5246
29.2375
29.9326
27.1992
24.2192
27.1994
29.9328
30.344
27.611
24.6747
27.611
30.3466
30.563
27.8408
24.9491
27.8408
30.5685
30.6371
27.9384
25.0915
27.9384
30.643
30.6133
27.9385
25.1348
27.9375
30.6191
30.5426
27.8725
25.1057
27.8692
30.5418
30.421
27.7484
25.0187
27.7406
30.3971
30.2338
27.5762
24.884
27.5677
30.1938
29.9844
27.3612
24.7101
27.3602
29.969
29.7046
27.1143
24.5044
27.12
29.7183
29.4048
26.8447
24.2746
26.8538
29.4346
29.0918
26.56
24.0271
26.569
29.1167
28.781
26.2641
23.7671
26.2725
28.8023
28.4605
25.9619
23.5001
25.9706
28.4882
28.1369
25.6587
23.2309
25.6646
28.159
27.83
25.3585
22.9641
25.3599
27.8364
27.5122
25.0614
22.7037
25.0615
27.5076
27.1992
24.7742
22.4548
24.7765
27.2108
26.9199
24.507
22.2241
24.5106
26.9397
26.6618
24.2639
22.0184
24.2699
26.6904
26.4392
24.0544
21.8455
24.0616
26.473
26.2903
23.8938
21.7167
23.896
26.2921
26.2042
23.793
21.6469
23.7901
26.1774
26.1881
23.7651
21.6517
23.7611
26.1545
26.2647
23.8278
21.7471
23.8239
26.2343
26.4698
24.0204
21.9759
24.0163
26.4418
26.8728
24.3982
22.3867
24.3957
26.8574
27.5383
25.031
23.0483
25.0308
27.5397
28.611
26.0438
24.0762
26.0443
28.612
30.4206
27.6561
25.6644
27.6568
30.4218
33.4576
30.2335
28.1369
30.2341
33.4587
38.7254
34.4034
32.0217
34.4039
38.7262
48.2357
41.2276
38.1205
41.228
48.2365
64.8512
51.5772
47.1366
51.5776
64.8519
12.4374
17.834
15.3697
17.8338
12.4371
25.9979
26.3551
23.4516
26.3549
25.9975
32.4709
31.33
28.0791
31.3298
32.4706
36.0094
34.4772
31.1154
34.4771
36.0092
38.255
36.5955
33.1947
36.5955
38.2549
39.7854
38.0664
34.6509
38.0663
39.7852
40.8381
39.0875
35.6733
39.0864
40.8333
41.5387
39.7785
36.377
39.7754
41.5343
41.9788
40.2172
36.8379
40.2134
41.9765
42.2233
40.4592
37.1087
40.4559
42.2072
42.3142
40.5462
37.2275
40.5388
42.2902
42.3085
40.5265
37.2328
40.5157
42.2724
42.2047
40.412
37.1547
40.4027
42.1641
41.9857
40.1951
36.9823
40.1977
41.9926
41.6912
39.9142
36.7438
39.9237
41.7198
41.3535
39.5831
36.4563
39.5965
41.3823
41.0029
39.217
36.1297
39.2311
41.0253
40.6106
38.8247
35.7756
38.8349
40.638
40.212
38.4157
35.4047
38.4243
40.2484
39.8276
38.0027
35.0277
38.0086
39.84
39.4363
37.5937
34.655
37.5935
39.419
39.0404
37.1911
34.2963
37.1911
39.0293
38.6605
36.8067
33.9577
36.8097
38.6666
38.336
36.4617
33.6519
36.4634
38.3429
38.0463
36.1644
33.392
36.1691
38.0688
37.8128
35.9321
33.1924
35.9393
37.8497
37.7024
35.7921
33.0728
35.7955
37.7014
37.7218
35.7784
33.0755
35.7789
37.689
37.855
35.8961
33.2042
35.8969
37.8362
38.1849
36.2233
33.5324
36.2227
38.1708
38.7744
36.8477
34.1431
36.844
38.7526
39.7191
37.8593
35.1252
37.8568
39.7119
41.1569
39.4355
36.6412
39.4354
41.1573
43.2183
41.8111
38.9214
41.8121
43.2208
47.0804
45.4146
42.3488
45.4155
47.0823
53.0785
50.9853
47.6202
50.9861
53.0797
62.7879
59.8989
56.0121
59.8995
62.7889
83.237
75.9775
70.5469
75.9781
83.2381
167.954
129.788
117.785
129.789
167.955
17.3878
15.3233
14.0464
15.3232
17.3877
15.6086
13.8235
12.0203
13.8236
15.6087
14.7418
13.7469
12.6246