/*--------------------------------*- C++ -*----------------------------------*\
  =========                 |
  \\      /  F ield         | OpenFOAM: The Open Source CFD Toolbox
   \\    /   O peration     | Website:  https://openfoam.org
    \\  /    A nd           | Version:  9
     \\/     M anipulation  |
\*---------------------------------------------------------------------------*/
FoamFile
{
    format      ascii;
    class       volScalarField;
    location    "2.5";
    object      p;
}
// * * * * * * * * * * * * * * * * * * * * * * * * * * * * * * * * * * * * * //

dimensions      [0 2 -2 0 0 0 0];

internalField   nonuniform List<scalar> 
4545
(
19.9368
20.1733
20.1278
20.1733
19.9368
19.92
20.2137
20.1665
20.2137
19.92
19.8755
20.2768
20.2291
20.2768
19.8755
19.8125
20.3148
20.2818
20.3148
19.8124
19.769
20.3357
20.3206
20.3356
19.7688
19.742
20.3475
20.3472
20.3474
19.7416
19.7243
20.3539
20.3644
20.3536
19.7244
19.7113
20.3577
20.3754
20.3575
19.7099
19.7044
20.3582
20.3814
20.3595
19.6986
19.6992
20.3569
20.3831
20.357
19.6965
19.6949
20.3547
20.3829
20.3548
19.6923
19.6908
20.3519
20.3814
20.3533
19.6854
19.6846
20.3486
20.3776
20.3474
19.686
19.6803
20.3433
20.3727
20.3421
19.6846
19.6753
20.3383
20.3678
20.338
19.6782
19.6737
20.3305
20.3606
20.3308
19.6744
19.6724
20.3214
20.3522
20.3227
19.6703
19.6669
20.3139
20.3436
20.3149
19.6634
19.6614
20.3054
20.3339
20.3054
19.6576
19.656
20.2954
20.3237
20.2956
19.6512
19.6502
20.2848
20.3134
20.2864
19.6433
19.6421
20.275
20.3018
20.2742
19.6398
19.6382
20.2627
20.2893
20.2627
19.6336
19.6346
20.2505
20.2773
20.2525
19.6252
19.6284
20.2399
20.2657
20.2415
19.6193
19.6196
20.2308
20.2548
20.2317
19.6139
19.6114
20.2226
20.2433
20.2208
19.6143
19.6138
20.2115
20.2311
20.2103
19.6166
19.6163
20.2026
20.2202
20.2025
19.6176
19.6186
20.1966
20.2112
20.1965
19.62
19.6228
20.1924
20.2039
20.1925
19.6238
19.6295
20.1905
20.1986
20.1899
19.632
19.6417
20.1898
20.195
20.1897
19.6427
19.6557
20.1917
20.1934
20.1921
19.6555
19.6726
20.1958
20.1937
20.1961
19.6727
19.6927
20.2018
20.1959
20.2019
19.6927
19.7158
20.2095
20.2001
20.2095
19.7157
19.7416
20.2185
20.2063
20.2185
19.7415
19.7698
20.2281
20.2147
20.228
19.7697
20.3259
19.9377
20.0061
19.9377
20.3259
20.3887
19.9003
19.9621
19.9003
20.3887
20.2669
19.9823
20.0317
19.9823
20.2669
20.1904
20.0117
20.0778
20.0117
20.1903
20.15
20.0246
20.1098
20.0245
20.1499
20.1247
20.031
20.1311
20.0309
20.1245
20.1077
20.0341
20.1436
20.0339
20.1075
20.0962
20.035
20.1509
20.0349
20.096
20.0878
20.0341
20.1546
20.0343
20.0877
20.0809
20.0321
20.1554
20.032
20.0807
20.0752
20.0293
20.1546
20.0292
20.0748
20.0699
20.0261
20.1526
20.0262
20.0697
20.0647
20.0221
20.1493
20.0218
20.0643
20.0591
20.0173
20.1451
20.0171
20.0591
20.0532
20.0123
20.1404
20.0124
20.0538
20.0466
20.0062
20.1346
20.0065
20.0474
20.0398
19.9997
20.1281
20.0002
20.0408
20.0337
19.9934
20.1214
19.9937
20.034
20.0276
19.9869
20.1143
19.9868
20.0269
20.0204
19.9801
20.107
19.9799
20.0195
20.0126
19.9732
20.0998
19.9733
20.0122
20.0059
19.9669
20.0925
19.9665
20.0049
19.9996
19.9607
20.0855
19.9604
19.9984
19.9931
19.9552
20.0792
19.9554
19.9932
19.9881
19.9509
20.0737
19.9511
19.9885
19.9849
19.9482
20.0695
19.9482
19.9849
19.983
19.9468
20.0674
19.9464
19.9824
19.9823
19.9464
20.0677
19.9461
19.9818
19.9838
19.9479
20.0696
19.9478
19.9836
19.9879
19.9518
20.0716
19.9517
19.9878
19.9945
19.9579
20.0757
19.958
19.9947
20.0036
19.9662
20.0818
19.9662
20.004
20.0155
19.9765
20.0895
19.9767
20.016
20.0303
19.9889
20.0989
19.9891
20.0306
20.0476
20.0031
20.1097
20.0032
20.0476
20.0667
20.0185
20.1216
20.0185
20.0667
20.0872
20.0351
20.1345
20.0351
20.0871
20.1085
20.0522
20.1484
20.0522
20.1084
20.1318
20.0677
20.1628
20.0677
20.1318
20.4464
19.8805
19.8812
19.8805
20.4464
20.6133
19.7938
19.7524
19.7938
20.6133
20.4977
19.8804
19.8192
19.8804
20.4977
20.4296
19.9055
19.8587
19.9055
20.4296
20.3988
19.9128
19.8827
19.9127
20.3988
20.3804
19.9143
19.8969
19.9142
20.3802
20.3681
19.913
19.9044
19.9132
20.3673
20.3595
19.9103
19.9075
19.9105
20.3589
20.3524
19.9071
19.9077
19.9065
20.3532
20.3467
19.9031
19.9063
19.9029
20.3469
20.3413
19.8987
19.9034
19.8982
20.3422
20.3359
19.894
19.8994
19.8924
20.3387
20.3316
19.8882
19.895
19.8878
20.3325
20.327
19.8822
19.89
19.8827
20.3262
20.3234
19.8748
19.8839
19.8761
20.3214
20.3184
19.8678
19.8777
19.8695
20.3158
20.3124
19.8614
19.8716
19.8631
20.3096
20.306
19.8552
19.8654
19.8559
20.3044
20.299
19.8497
19.8595
19.8492
20.2989
20.2938
19.843
19.8532
19.8422
20.2941
20.2901
19.836
19.8468
19.8348
20.2907
20.2866
19.8302
19.8418
19.8298
20.2858
20.2818
19.8268
19.8381
19.8257
20.2819
20.2791
19.8235
19.8354
19.8229
20.2792
20.2778
19.8215
19.8339
19.8215
20.2778
20.278
19.8211
19.8334
19.8206
20.2791
20.2806
19.8217
19.834
19.8219
20.2812
20.2827
19.8258
19.837
19.8253
20.2844
20.2874
19.8323
19.8436
19.8316
20.2894
20.2951
19.8408
19.8539
19.8402
20.2967
20.305
19.8509
19.865
19.8507
20.3061
20.3175
19.8626
19.8773
19.8634
20.317
20.3314
19.8765
19.8908
19.8772
20.3307
20.3469
19.8918
19.9052
19.892
20.3467
20.3636
19.9082
19.9203
19.9082
20.3636
20.3808
19.9253
19.9357
19.9253
20.3808
20.3976
19.943
19.951
19.943
20.3976
20.415
19.9596
19.9649
19.9596
20.4149
20.4394
19.9674
19.9747
19.9674
20.4393
20.4302
19.9125
19.8596
19.9125
20.4302
20.6084
19.8308
19.7123
19.8308
20.6084
20.4858
19.9279
19.7884
19.9278
20.4858
20.4178
19.9559
19.8331
19.9559
20.4178
20.3884
19.9638
19.8572
19.9638
20.3883
20.3711
19.9651
19.8698
19.965
20.371
20.3597
19.9634
19.8755
19.9633
20.3595
20.3517
19.9602
19.877
19.9601
20.3515
20.3453
19.9562
19.8759
19.956
20.3455
20.3398
19.9516
19.8733
19.9515
20.34
20.3348
19.9466
19.8696
19.9465
20.3351
20.3299
19.9412
19.8651
19.9411
20.3305
20.3252
19.9355
19.8602
19.9356
20.3253
20.3202
19.9296
19.8549
19.9298
20.3198
20.3154
19.9232
19.8492
19.9236
20.3145
20.3101
19.9169
19.8434
19.9174
20.309
20.3044
19.9109
19.8378
19.9112
20.3033
20.2987
19.905
19.8323
19.905
20.2979
20.2931
19.8994
19.8271
19.8992
20.2927
20.2882
19.8939
19.8221
19.8936
20.288
20.2842
19.889
19.8176
19.8885
20.2841
20.2808
19.885
19.8142
19.8845
20.2805
20.2781
19.8822
19.812
19.8818
20.2779
20.2766
19.8805
19.8111
19.8803
20.2765
20.2765
19.8802
19.8115
19.8803
20.2764
20.2779
19.8815
19.8134
19.8816
20.2782
20.281
19.8847
19.8179
19.885
20.2815
20.2857
19.8902
19.8228
19.8904
20.2863
20.2921
19.8965
19.8291
19.8967
20.2928
20.3007
19.9041
19.8375
19.9042
20.3013
20.3112
19.9136
19.8474
19.9138
20.3116
20.3236
19.9246
19.8584
19.9249
20.3237
20.3376
19.9369
19.8701
19.9371
20.3375
20.3528
19.9499
19.8821
19.95
20.3528
20.369
19.9632
19.8939
19.9633
20.369
20.3855
19.9766
19.905
19.9766
20.3855
20.4015
19.99
19.9148
19.9899
20.4015
20.4187
20.0013
19.9222
20.0013
20.4186
20.4448
20.0015
19.9237
20.0014
20.4448
20.4033
19.9365
19.8646
19.9365
20.4033
20.5691
19.8628
19.7179
19.8628
20.5692
20.432
19.965
19.8141
19.965
20.432
20.3592
19.9959
19.8671
19.9959
20.3591
20.3283
20.0056
19.8932
20.0056
20.3283
20.3107
20.0081
19.9059
20.0081
20.3107
20.2993
20.0072
19.9111
20.0072
20.2993
20.2914
20.0046
19.912
20.0046
20.2913
20.2851
20.001
19.9104
20.001
20.2852
20.2798
19.9968
19.9074
19.9968
20.2799
20.2749
19.9922
19.9034
19.9922
20.275
20.2702
19.9871
19.8988
19.9872
20.2704
20.2656
19.9819
19.8937
19.9819
20.2656
20.2609
19.9764
19.8884
19.9764
20.2606
20.256
19.9708
19.8829
19.9708
20.2557
20.2511
19.9651
19.8773
19.9651
20.2507
20.2462
19.9596
19.8719
19.9595
20.2457
20.2414
19.9542
19.8666
19.9541
20.241
20.2368
19.9491
19.8616
19.949
20.2366
20.2328
19.9444
19.8569
19.9442
20.2326
20.2295
19.9402
19.8528
19.94
20.2293
20.2269
19.9369
19.8495
19.9367
20.2267
20.2253
19.9345
19.8472
19.9343
20.2251
20.2247
19.9331
19.846
19.9331
20.2246
20.2255
19.933
19.8461
19.933
20.2255
20.2276
19.9342
19.8476
19.9343
20.2277
20.2313
19.9367
19.8498
19.9369
20.2315
20.2367
19.9407
19.8536
19.9409
20.2369
20.2437
19.9461
19.8587
19.9463
20.244
20.2526
19.9528
19.8649
19.953
20.2529
20.2632
19.9607
19.8721
19.9608
20.2634
20.2753
19.9694
19.8798
19.9695
20.2754
20.289
19.9787
19.8876
19.9788
20.289
20.3039
19.9882
19.8951
19.9883
20.3039
20.3199
19.9975
19.9016
19.9975
20.3199
20.3367
20.0063
19.9066
20.0063
20.3366
20.3536
20.0146
19.9096
20.0146
20.3536
20.3729
20.0205
19.9087
20.0205
20.3729
20.4041
20.0144
19.8994
20.0143
20.404
20.3846
19.9508
19.8755
19.9508
20.3846
20.5392
19.881
19.7354
19.8811
20.5392
20.3905
19.9876
19.8454
19.9876
20.3905
20.3131
20.0211
19.9041
20.0211
20.3131
20.2807
20.0322
19.9329
20.0321
20.2807
20.2626
20.0355
19.947
20.0355
20.2626
20.251
20.0354
19.9529
20.0353
20.251
20.243
20.0334
19.9543
20.0333
20.243
20.2369
20.0303
19.9531
20.0303
20.2369
20.2317
20.0267
19.9504
20.0267
20.2317
20.227
20.0225
19.9468
20.0225
20.227
20.2225
20.0181
19.9426
20.0181
20.2225
20.2181
20.0134
19.938
20.0134
20.2181
20.2137
20.0086
19.9331
20.0085
20.2136
20.2093
20.0036
19.9281
20.0036
20.2091
20.205
19.9987
19.923
19.9986
20.2047
20.2007
19.9938
19.918
19.9937
20.2004
20.1965
19.989
19.9132
19.9889
20.1963
20.1927
19.9846
19.9086
19.9844
20.1925
20.1893
19.9804
19.9043
19.9803
20.1891
20.1865
19.9768
19.9005
19.9767
20.1864
20.1844
19.9738
19.8973
19.9737
20.1843
20.1832
19.9715
19.8948
19.9714
20.183
20.1829
19.9701
19.8931
19.97
20.1828
20.1836
19.9696
19.8923
19.9696
20.1836
20.1856
19.97
19.8925
19.9701
20.1856
20.1888
19.9716
19.8934
19.9717
20.189
20.1935
19.9741
19.8954
19.9742
20.1937
20.1996
19.9777
19.8981
19.9778
20.1998
20.2072
19.9821
19.9014
19.9822
20.2073
20.2162
19.9872
19.9051
19.9873
20.2163
20.2267
19.9928
19.9089
19.9929
20.2268
20.2387
19.9986
19.9122
19.9987
20.2387
20.252
20.0043
19.9146
20.0043
20.252
20.2668
20.0094
19.9156
20.0094
20.2668
20.2828
20.0138
19.9146
20.0138
20.2828
20.2998
20.0176
19.911
20.0176
20.2998
20.3205
20.0191
19.9031
20.0191
20.3204
20.3552
20.0083
19.8856
20.0083
20.3551
20.3719
19.9589
19.886
19.9589
20.3719
20.5188
19.8915
19.7513
19.8915
20.5188
20.3626
20.0015
19.8697
20.0015
20.3626
20.282
20.0367
19.9327
20.0367
20.282
20.2484
20.0488
19.9637
20.0488
20.2484
20.2299
20.053
19.9791
20.053
20.2299
20.2182
20.0534
19.9859
20.0534
20.2182
20.2103
20.052
19.988
20.052
20.2103
20.2042
20.0496
19.9875
20.0496
20.2043
20.1993
20.0465
19.9855
20.0465
20.1993
20.1948
20.043
19.9825
20.043
20.1948
20.1907
20.0392
19.9789
20.0392
20.1906
20.1867
20.0352
19.975
20.0352
20.1866
20.1827
20.0311
19.9708
20.031
20.1826
20.1788
20.0269
19.9665
20.0268
20.1786
20.1749
20.0227
19.9622
20.0226
20.1748
20.1712
20.0185
19.9578
20.0184
20.171
20.1676
20.0144
19.9536
20.0143
20.1675
20.1643
20.0104
19.9494
20.0104
20.1642
20.1613
20.0068
19.9455
20.0067
20.1611
20.1587
20.0034
19.9419
20.0033
20.1586
20.1566
20.0005
19.9387
20.0004
20.1566
20.1552
19.9981
19.9359
19.998
20.1552
20.1545
19.9962
19.9337
19.9962
20.1545
20.1546
19.9949
19.9319
19.9949
20.1546
20.1555
19.9942
19.9306
19.9942
20.1555
20.1574
19.9941
19.9297
19.9941
20.1574
20.1603
19.9946
19.9293
19.9947
20.1604
20.1644
19.9957
19.9293
19.9957
20.1644
20.1696
19.9972
19.9293
19.9972
20.1696
20.176
19.999
19.9292
19.9991
20.176
20.1837
20.001
19.9287
20.001
20.1837
20.1929
20.0028
19.9274
20.0028
20.1929
20.2036
20.0043
19.9248
20.0043
20.2036
20.216
20.0052
19.9205
20.0052
20.216
20.2303
20.0054
19.9138
20.0053
20.2302
20.2464
20.0051
19.9044
20.0051
20.2463
20.2673
20.0028
19.8905
20.0027
20.2672
20.304
19.9883
19.8671
19.9883
20.3039
20.3636
19.9633
19.8933
19.9633
20.3636
20.5058
19.8972
19.7624
19.8972
20.5058
20.3449
20.0097
19.886
20.0097
20.3449
20.2623
20.046
19.9517
20.046
20.2623
20.228
20.0589
19.9844
20.0589
20.228
20.2093
20.0636
20.0008
20.0636
20.2093
20.1977
20.0646
20.0084
20.0646
20.1977
20.19
20.0638
20.0113
20.0638
20.19
20.1842
20.062
20.0114
20.062
20.1842
20.1795
20.0595
20.0101
20.0595
20.1795
20.1755
20.0567
20.0078
20.0567
20.1755
20.1718
20.0536
20.005
20.0536
20.1718
20.1683
20.0503
20.0019
20.0503
20.1683
20.1649
20.0469
19.9985
20.0469
20.1648
20.1616
20.0435
19.995
20.0435
20.1615
20.1583
20.0401
19.9915
20.04
20.1582
20.1551
20.0366
19.9879
20.0365
20.155
20.1521
20.0332
19.9843
20.0331
20.152
20.1492
20.0298
19.9807
20.0297
20.1491
20.1465
20.0265
19.9772
20.0265
20.1464
20.144
20.0234
19.9738
20.0233
20.1439
20.1418
20.0204
19.9705
20.0204
20.1417
20.14
20.0177
19.9674
20.0176
20.1399
20.1385
20.0151
19.9644
20.0151
20.1385
20.1375
20.0127
19.9614
20.0127
20.1374
20.1369
20.0105
19.9585
20.0105
20.1369
20.1369
20.0085
19.9557
20.0085
20.1369
20.1375
20.0066
19.9527
20.0066
20.1374
20.1387
20.0048
19.9496
20.0048
20.1387
20.1408
20.0029
19.9461
20.0029
20.1408
20.1438
20.001
19.942
20.001
20.1438
20.1479
19.9989
19.9371
19.9989
20.1479
20.1534
19.9964
19.931
19.9964
20.1533
20.1604
19.9934
19.9233
19.9933
20.1604
20.1696
19.9897
19.9137
19.9897
20.1695
20.1811
19.9855
19.9017
19.9855
20.181
20.1952
19.9812
19.8871
19.9811
20.1951
20.2151
19.9752
19.868
19.9751
20.2151
20.2525
19.9575
19.8397
19.9574
20.2524
20.3588
19.9651
19.8973
19.9651
20.3588
20.4985
19.9
19.7685
19.9
20.4985
20.3352
20.0139
19.895
20.0139
20.3352
20.2516
20.0509
19.9624
20.0509
20.2517
20.217
20.0643
19.9961
20.0643
20.217
20.1984
20.0695
20.0133
20.0695
20.1984
20.187
20.0711
20.0216
20.0711
20.187
20.1795
20.0707
20.025
20.0707
20.1795
20.1741
20.0695
20.0258
20.0695
20.1741
20.17
20.0676
20.0251
20.0676
20.1699
20.1664
20.0655
20.0236
20.0655
20.1664
20.1633
20.0631
20.0216
20.0631
20.1633
20.1605
20.0606
20.0192
20.0606
20.1604
20.1577
20.058
20.0167
20.058
20.1577
20.1551
20.0554
20.0141
20.0554
20.155
20.1525
20.0528
20.0114
20.0527
20.1525
20.15
20.0501
20.0085
20.05
20.15
20.1476
20.0474
20.0057
20.0473
20.1475
20.1451
20.0446
20.0027
20.0445
20.1451
20.1427
20.0417
19.9996
20.0417
20.1427
20.1404
20.0388
19.9965
20.0387
20.1403
20.1381
20.0358
19.9931
20.0357
20.138
20.1358
20.0326
19.9896
20.0326
20.1357
20.1335
20.0293
19.9859
20.0293
20.1334
20.1312
20.0258
19.9818
20.0258
20.1311
20.1289
20.022
19.9773
20.0219
20.1289
20.1267
20.0178
19.9723
20.0178
20.1267
20.1246
20.0133
19.9666
20.0133
20.1246
20.1227
20.0083
19.9603
20.0083
20.1226
20.1211
20.0028
19.953
20.0028
20.121
20.12
19.9967
19.9447
19.9967
20.1199
20.1197
19.9901
19.9351
19.99
20.1196
20.1205
19.9827
19.924
19.9827
20.1205
20.123
19.9747
19.911
19.9747
20.1229
20.1277
19.966
19.896
19.966
20.1277
20.1352
19.9569
19.8785
19.9569
20.1352
20.146
19.948
19.8586
19.948
20.146
20.1637
19.938
19.8347
19.938
20.1636
20.1999
19.9171
19.802
19.9171
20.1998
20.3568
19.9652
19.898
19.9652
20.3568
20.496
19.9006
19.7703
19.9006
20.496
20.3321
20.0152
19.8979
20.0152
20.3321
20.2484
20.0526
19.966
20.0526
20.2484
20.2138
20.0663
20.0002
20.0663
20.2139
20.1954
20.0719
20.0178
20.0719
20.1954
20.1843
20.0738
20.0265
20.0738
20.1844
20.1773
20.0739
20.0304
20.0739
20.1773
20.1723
20.0732
20.0318
20.0732
20.1723
20.1687
20.072
20.0317
20.0719
20.1687
20.1658
20.0704
20.0309
20.0704
20.1658
20.1634
20.0688
20.0296
20.0688
20.1633
20.1613
20.0671
20.028
20.0671
20.1612
20.1593
20.0654
20.0264
20.0653
20.1593
20.1575
20.0636
20.0246
20.0636
20.1574
20.1557
20.0618
20.0227
20.0618
20.1557
20.154
20.0599
20.0207
20.0599
20.154
20.1523
20.058
20.0186
20.0579
20.1523
20.1505
20.0558
20.0164
20.0558
20.1504
20.1485
20.0535
20.0138
20.0535
20.1485
20.1464
20.0509
20.011
20.0508
20.1464
20.1441
20.0479
20.0077
20.0479
20.144
20.1414
20.0445
20.004
20.0445
20.1414
20.1384
20.0406
19.9996
20.0405
20.1384
20.135
20.036
19.9944
20.0359
20.1349
20.1311
20.0306
19.9884
20.0305
20.131
20.1267
20.0243
19.9813
20.0243
20.1266
20.1218
20.0171
19.973
20.0171
20.1217
20.1164
20.0089
19.9634
20.0088
20.1163
20.1107
19.9995
19.9523
19.9995
20.1106
20.105
19.989
19.9395
19.9889
20.1049
20.0995
19.9772
19.9249
19.9772
20.0994
20.0948
19.9644
19.9083
19.9644
20.0947
20.0915
19.9506
19.8895
19.9506
20.0914
20.0904
19.936
19.8684
19.936
20.0903
20.0924
19.9212
19.8451
19.9211
20.0923
20.0982
19.9068
19.8194
19.9068
20.0981
20.1117
19.892
19.7904
19.892
20.1116
20.1449
19.8675
19.7534
19.8675
20.1448
20.3574
19.9637
19.8958
19.9637
20.3574
20.4977
19.8993
19.7679
19.8993
20.4977
20.3351
20.0138
19.8949
20.0138
20.3351
20.252
20.0513
19.9628
20.0513
20.252
20.2179
20.0651
19.9969
20.0651
20.2179
20.1998
20.0709
20.0147
20.0709
20.1998
20.1891
20.0731
20.0236
20.0731
20.1891
20.1825
20.0736
20.0279
20.0736
20.1825
20.1781
20.0734
20.0297
20.0733
20.178
20.175
20.0727
20.0301
20.0726
20.175
20.1728
20.0718
20.0299
20.0718
20.1728
20.1711
20.0709
20.0293
20.0708
20.1711
20.1698
20.0699
20.0285
20.0699
20.1698
20.1688
20.069
20.0277
20.069
20.1687
20.1679
20.0681
20.0268
20.0681
20.1678
20.1671
20.0672
20.0258
20.0672
20.167
20.1663
20.0662
20.0246
20.0662
20.1663
20.1655
20.0651
20.0233
20.0651
20.1655
20.1644
20.0638
20.0219
20.0638
20.1644
20.1631
20.0621
20.02
20.0621
20.1631
20.1615
20.06
20.0177
20.06
20.1615
20.1594
20.0573
20.0147
20.0573
20.1594
20.1567
20.0539
20.011
20.0539
20.1567
20.1533
20.0497
20.0063
20.0496
20.1533
20.1491
20.0443
20.0004
20.0442
20.149
20.1438
20.0376
19.9931
20.0376
20.1437
20.1375
20.0295
19.9842
20.0295
20.1374
20.1299
20.0198
19.9735
20.0197
20.1298
20.1211
20.0083
19.9608
20.0083
20.121
20.1111
19.995
19.9459
19.9949
20.111
20.1003
19.9797
19.9284
19.9797
20.1002
20.0889
19.9625
19.9084
19.9625
20.0888
20.0775
19.9435
19.8857
19.9434
20.0774
20.0669
19.9229
19.8603
19.9228
20.0668
20.0582
19.9011
19.8323
19.9011
20.0581
20.0525
19.879
19.8018
19.879
20.0524
20.051
19.8578
19.7694
19.8578
20.051
20.058
19.8369
19.7343
19.8369
20.058
20.0862
19.8076
19.6924
19.8076
20.0862
20.361
19.9605
19.8906
19.9605
20.361
20.5043
19.8959
19.7611
19.8959
20.5043
20.3446
20.0094
19.8858
20.0094
20.3446
20.263
20.0466
19.9523
20.0466
20.263
20.2296
20.0604
19.9859
20.0604
20.2296
20.212
20.0662
20.0034
20.0662
20.212
20.2018
20.0686
20.0124
20.0686
20.2018
20.1956
20.0693
20.0167
20.0693
20.1956
20.1917
20.0694
20.0188
20.0694
20.1917
20.1893
20.0692
20.0197
20.0692
20.1893
20.1878
20.0689
20.02
20.0688
20.1878
20.187
20.0686
20.02
20.0686
20.1869
20.1866
20.0684
20.0199
20.0684
20.1865
20.1865
20.0683
20.0199
20.0683
20.1864
20.1866
20.0683
20.0198
20.0683
20.1865
20.1868
20.0684
20.0197
20.0683
20.1868
20.1872
20.0684
20.0195
20.0683
20.1871
20.1874
20.0682
20.0191
20.0682
20.1874
20.1874
20.0678
20.0186
20.0678
20.1873
20.187
20.067
20.0177
20.067
20.187
20.1862
20.0657
20.0161
20.0657
20.1862
20.1848
20.0637
20.0138
20.0637
20.1848
20.1825
20.0607
20.0105
20.0607
20.1825
20.1793
20.0565
20.006
20.0565
20.1792
20.1747
20.0509
19.9999
20.0509
20.1746
20.1687
20.0436
19.9919
20.0435
20.1686
20.1609
20.0342
19.9818
20.0342
20.1607
20.1511
20.0225
19.9692
20.0224
20.151
20.1392
20.0082
19.9537
20.0081
20.1391
20.1252
19.991
19.9351
19.9909
20.125
20.1089
19.9709
19.913
19.9708
20.1088
20.0909
19.9477
19.8873
19.9476
20.0908
20.0716
19.9216
19.8578
19.9215
20.0715
20.0519
19.8929
19.8247
19.8928
20.0518
20.0331
19.8622
19.7882
19.8622
20.033
20.0167
19.8307
19.7488
19.8307
20.0166
20.0045
19.8001
19.7076
19.8
20.0045
20.0015
19.7707
19.6645
19.7707
20.0015
20.0216
19.7349
19.6165
19.7349
20.0216
20.3682
19.9551
19.8822
19.9551
20.3682
20.5167
19.8897
19.7496
19.8896
20.5167
20.3622
20.0012
19.8695
20.0012
20.3622
20.2829
20.0375
19.9335
20.0375
20.2828
20.2505
20.0509
19.9658
20.0509
20.2505
20.2336
20.0566
19.9827
20.0566
20.2336
20.2238
20.0589
19.9913
20.0589
20.2238
20.2181
20.0597
19.9957
20.0597
20.2181
20.2148
20.06
19.9979
20.06
20.2148
20.213
20.0602
19.9991
20.0601
20.2129
20.2123
20.0603
19.9997
20.0602
20.2122
20.2123
20.0606
20.0003
20.0605
20.2122
20.2128
20.0611
20.0008
20.061
20.2127
20.2137
20.0618
20.0015
20.0618
20.2136
20.2148
20.0627
20.0024
20.0627
20.2148
20.2162
20.0637
20.0032
20.0637
20.2162
20.2177
20.0647
20.004
20.0647
20.2176
20.2192
20.0656
20.0047
20.0656
20.2192
20.2205
20.0663
20.0051
20.0663
20.2205
20.2214
20.0667
20.0054
20.0667
20.2214
20.2218
20.0665
20.005
20.0665
20.2218
20.2215
20.0656
20.0038
20.0656
20.2215
20.2203
20.0635
20.0015
20.0635
20.2203
20.2179
20.0602
19.9977
20.0602
20.2179
20.2139
20.0551
19.9922
20.0551
20.2138
20.2079
20.0479
19.9845
20.0479
20.2078
20.1996
20.0382
19.9741
20.0381
20.1995
20.1886
20.0253
19.9604
20.0252
20.1884
20.1745
20.009
19.943
20.0089
20.1742
20.1568
19.9886
19.9214
19.9885
20.1566
20.1355
19.9639
19.895
19.9638
20.1353
20.1105
19.9345
19.8634
19.9344
20.1103
20.082
19.9005
19.8265
19.9004
20.0819
20.0509
19.862
19.7842
19.8619
20.0508
20.0186
19.82
19.737
19.8199
20.0185
19.987
19.7756
19.6857
19.7756
19.9869
19.9587
19.7315
19.632
19.7315
19.9587
19.94
19.6893
19.5772
19.6892
19.9399
19.9464
19.643
19.5197
19.643
19.9464
20.3802
19.9463
19.871
19.9463
20.3802
20.5366
19.8789
19.7334
19.8789
20.5366
20.39
19.9872
19.8451
19.9872
20.39
20.314
20.0219
19.9051
20.0219
20.314
20.2831
20.0345
19.9354
20.0345
20.283
20.2668
20.0397
19.9512
20.0397
20.2668
20.2575
20.0418
19.9594
20.0418
20.2575
20.2522
20.0425
19.9635
20.0425
20.2522
20.2494
20.0429
19.9657
20.0429
20.2493
20.2482
20.0432
19.9671
20.0432
20.2481
20.2482
20.0437
19.9681
20.0436
20.248
20.249
20.0445
19.969
20.0444
20.2488
20.2504
20.0456
19.9702
20.0455
20.2502
20.2523
20.047
19.9717
20.0469
20.2521
20.2545
20.0488
19.9734
20.0486
20.2543
20.2569
20.0507
19.9752
20.0506
20.2568
20.2596
20.0527
19.9771
20.0526
20.2595
20.2624
20.0548
19.979
20.0547
20.2624
20.2652
20.0568
19.9808
20.0567
20.2652
20.2677
20.0585
19.9823
20.0584
20.2677
20.2698
20.0598
19.9835
20.0598
20.2697
20.2712
20.0604
19.9839
20.0604
20.2712
20.2717
20.0599
19.9832
20.06
20.2717
20.271
20.0581
19.9811
20.0582
20.271
20.2685
20.0546
19.9772
20.0546
20.2685
20.264
20.0487
19.9708
20.0486
20.2639
20.2566
20.0398
19.9614
20.0398
20.2564
20.2459
20.0274
19.9483
20.0273
20.2456
20.231
20.0105
19.9305
20.0103
20.2307
20.2113
19.9883
19.9072
19.9881
20.2109
20.1858
19.96
19.8775
19.9599
20.1855
20.1542
19.9249
19.8406
19.9248
20.1539
20.1159
19.8825
19.7959
19.8824
20.1157
20.0713
19.8326
19.7428
19.8325
20.0712
20.0214
19.7758
19.6818
19.7757
20.0213
19.9681
19.7136
19.6138
19.7136
19.968
19.9148
19.6493
19.5413
19.6492
19.9147
19.8696
19.5858
19.4668
19.5858
19.8695
19.8512
19.5206
19.392
19.5206
19.8511
20.3985
19.9318
19.86
19.9318
20.3985
20.5663
19.8607
19.7161
19.8607
20.5663
20.4313
19.9647
19.8139
19.9647
20.4313
20.3598
19.9968
19.8681
19.9968
20.3597
20.3304
20.008
19.8957
20.008
20.3304
20.3147
20.0124
19.9103
20.0124
20.3147
20.3057
20.0139
19.9178
20.0139
20.3058
20.3008
20.0143
19.9218
20.0143
20.3008
20.2982
20.0146
19.9242
20.0146
20.2982
20.2975
20.0149
19.9257
20.0149
20.2973
20.2981
20.0156
19.9271
20.0155
20.2977
20.2996
20.0167
19.9285
20.0165
20.2991
20.3017
20.0182
19.9303
20.0181
20.3013
20.3043
20.0202
19.9325
20.0201
20.304
20.3073
20.0227
19.935
20.0225
20.3071
20.3107
20.0255
19.9379
20.0252
20.3105
20.3145
20.0285
19.9411
20.0283
20.3143
20.3185
20.0318
19.9445
20.0316
20.3185
20.3227
20.0351
19.9479
20.035
20.3228
20.3269
20.0383
19.9511
20.0383
20.3269
20.3309
20.0413
19.9542
20.0413
20.3309
20.3345
20.0439
19.9568
20.0439
20.3344
20.3373
20.0457
19.9586
20.0457
20.3374
20.3392
20.0463
19.9591
20.0464
20.3393
20.3395
20.0453
19.958
20.0454
20.3397
20.3378
20.0421
19.9545
20.0421
20.3378
20.3334
20.0359
19.948
20.0359
20.3331
20.3252
20.0258
19.9373
20.0257
20.3247
20.3122
20.0106
19.9214
20.0105
20.3116
20.2929
19.9889
19.8988
19.9888
20.2923
20.266
19.9594
19.868
19.9592
20.2655
20.2298
19.9203
19.8274
19.9201
20.2294
20.1826
19.8701
19.7752
19.8699
20.1823
20.1232
19.8075
19.7101
19.8074
20.123
20.051
19.7318
19.631
19.7317
20.0508
19.9667
19.6439
19.5382
19.6438
19.9666
19.8734
19.5467
19.4343
19.5467
19.8733
19.7805
19.445
19.3232
19.4449
19.7804
19.711
19.34
19.2103
19.34
19.7109
20.4252
19.9081
19.8553
19.9081
20.4252
20.6054
19.829
19.7108
19.829
20.6054
20.4849
19.9276
19.7883
19.9276
20.4849
20.4178
19.9566
19.8339
19.9566
20.4178
20.3895
19.9658
19.8593
19.9658
20.3895
20.3739
19.9688
19.8738
19.9689
20.3739
20.3648
19.9695
19.8818
19.9696
20.3648
20.3596
19.9694
19.8865
19.9695
20.3598
20.3571
19.9694
19.8895
19.9694
20.3573
20.3567
19.9696
19.8918
19.9697
20.3562
20.3576
19.9703
19.8938
19.9703
20.3569
20.3596
19.9714
19.8959
19.9714
20.3587
20.3623
19.9733
19.8985
19.9732
20.3613
20.3653
19.9758
19.9015
19.9755
20.3648
20.3686
19.9789
19.9053
19.9786
20.3683
20.3726
19.9825
19.9095
19.9823
20.3722
20.3774
19.9864
19.9141
19.9863
20.377
20.3825
19.9909
19.919
19.9906
20.3825
20.388
19.9955
19.9241
19.9952
20.3884
20.3941
20.0002
19.9295
20.0002
20.3941
20.4001
20.0052
19.9352
20.0055
20.3998
20.4059
20.0102
19.9406
20.0104
20.4058
20.4117
20.0147
19.9455
20.0149
20.4119
20.4171
20.0185
19.9496
20.0185
20.4176
20.4214
20.0213
19.9526
20.0212
20.422
20.4243
20.0223
19.9538
20.0222
20.4247
20.4253
20.0206
19.9523
20.0208
20.4249
20.423
20.0152
19.9468
20.0156
20.4218
20.4154
20.0048
19.936
20.0051
20.4141
20.4005
19.9875
19.918
19.9876
20.3993
20.3786
19.9612
19.8905
19.9612
20.3776
20.3449
19.9228
19.8503
19.9227
20.3442
20.2951
19.8689
19.7941
19.8687
20.2946
20.2254
19.7962
19.7185
19.7961
20.2251
20.1314
19.7015
19.62
19.7014
20.1312
20.0087
19.5814
19.4951
19.5813
20.0085
19.8548
19.4351
19.3416
19.435
19.8547
19.6754
19.2648
19.1617
19.2648
19.6753
19.4935
19.0729
18.9618
19.0729
19.4934
20.4419
19.8769
19.8778
19.8769
20.4419
20.6103
19.7922
19.751
19.7922
20.6103
20.4961
19.8798
19.8184
19.8798
20.4961
20.4282
19.9052
19.8583
19.9052
20.4282
20.3978
19.9133
19.8832
19.9133
20.3978
20.3804
19.916
19.8987
19.9161
20.3805
20.3698
19.9167
19.908
19.9169
20.3699
20.3632
19.9171
19.9139
19.9169
20.364
20.3601
19.9174
19.9181
19.917
20.3608
20.3598
19.9175
19.9214
19.9182
20.3586
20.3606
19.9182
19.9239
19.919
20.3589
20.3628
19.9193
19.9263
19.9201
20.3607
20.3658
19.9211
19.9292
19.9221
20.3636
20.3689
19.9239
19.9325
19.9239
20.3683
20.3717
19.9282
19.9369
19.9278
20.3715
20.3761
19.9325
19.942
19.9329
20.3748
20.3824
19.9366
19.9471
19.9376
20.3804
20.3878
19.9423
19.9527
19.9419
20.388
20.3947
19.948
19.9587
19.9468
20.3963
20.4035
19.9536
19.9655
19.9539
20.4032
20.4114
19.9608
19.9732
19.9619
20.4101
20.4196
19.9687
19.9813
19.9694
20.4191
20.4293
19.9761
19.989
19.976
20.43
20.4401
19.9831
19.9966
19.9825
20.4416
20.4501
19.9906
20.0044
19.9896
20.4522
20.4596
19.9978
20.0116
19.9965
20.4617
20.4702
20.0022
20.0171
20.0027
20.4694
20.4795
20.0037
20.0195
20.0061
20.4758
20.4849
20.0017
20.0172
20.0036
20.4815
20.4852
19.9936
20.0083
19.995
20.4822
20.4754
19.9761
19.9893
19.9771
20.4731
20.454
19.9436
19.9546
19.9438
20.4529
20.414
19.8895
19.8981
19.8895
20.4133
20.3455
19.8065
19.8118
19.8064
20.3451
20.2343
19.6837
19.6845
19.6836
20.2341
20.0657
19.5093
19.5028
19.5092
20.0655
19.8222
19.2698
19.2527
19.2698
19.822
19.4873
18.9586
18.9265
18.9586
19.4872
19.042
18.5529
18.5069
18.5529
19.0419
20.323
19.9354
20.004
19.9354
20.323
20.3861
19.898
19.9601
19.898
20.3861
20.2644
19.9795
20.0283
19.9795
20.2645
20.1871
20.0084
20.0738
20.0084
20.1871
20.1465
20.0212
20.106
20.0213
20.1465
20.1214
20.0283
20.1279
20.0284
20.1216
20.1054
20.0327
20.1416
20.0327
20.1055
20.0953
20.0352
20.1506
20.0353
20.0954
20.0893
20.0373
20.157
20.0375
20.0896
20.086
20.0392
20.1615
20.0392
20.0862
20.084
20.0407
20.1649
20.0407
20.0842
20.0835
20.0426
20.1681
20.0427
20.0838
20.0845
20.0454
20.1716
20.0455
20.0849
20.0866
20.0488
20.1755
20.0491
20.0869
20.0895
20.0526
20.1793
20.0527
20.0893
20.0931
20.0571
20.1839
20.0569
20.0928
20.0978
20.0628
20.1897
20.0626
20.0977
20.1029
20.0689
20.1963
20.069
20.1029
20.1092
20.0761
20.2037
20.0763
20.1091
20.1168
20.0845
20.212
20.0844
20.1167
20.1249
20.0934
20.2209
20.0932
20.125
20.1345
20.1035
20.2311
20.1034
20.1349
20.1455
20.115
20.2426
20.1149
20.1456
20.1575
20.1276
20.2551
20.1274
20.1573
20.1708
20.1409
20.2683
20.1408
20.1705
20.1852
20.155
20.2823
20.1549
20.1848
20.2003
20.17
20.2969
20.1697
20.2003
20.216
20.1852
20.3113
20.185
20.2164
20.2318
20.1997
20.3252
20.1999
20.2323
20.2463
20.2118
20.3376
20.212
20.2467
20.2583
20.2199
20.3454
20.2202
20.2586
20.2643
20.2205
20.3443
20.2207
20.2646
20.261
20.2075
20.3283
20.2075
20.2606
20.2396
20.173
20.2892
20.1729
20.2393
20.1743
20.103
20.2124
20.1029
20.1741
20.0675
19.9805
20.079
19.9804
20.0673
19.9033
19.7963
19.8761
19.7962
19.9032
19.5804
19.4709
19.5295
19.4708
19.5803
18.5825
18.4479
18.4984
18.4479
18.5824
19.933
20.1696
20.1243
20.1696
19.933
19.9154
20.2083
20.1609
20.2083
19.9154
19.8708
20.2701
20.2223
20.2701
19.8709
19.8067
20.3071
20.2739
20.3071
19.8068
19.7624
20.3273
20.3121
20.3274
19.7626
19.7349
20.339
20.3387
20.3391
19.7353
19.7166
20.346
20.3563
20.3458
19.7182
19.7062
20.3495
20.3676
20.3496
19.7071
19.6979
20.3522
20.3752
20.3526
19.6989
19.6911
20.3545
20.38
20.3534
19.6972
19.6922
20.3543
20.3825
20.3535
19.6978
19.6952
20.3542
20.3843
20.3541
19.6974
19.6967
20.3554
20.3865
20.3558
19.6956
19.6973
20.3577
20.389
20.3588
19.6937
19.7018
20.3585
20.3902
20.3592
19.7009
19.7058
20.3607
20.392
20.3598
19.7101
19.7081
20.3654
20.3957
20.364
19.7138
19.718
20.3683
20.3998
20.3689
19.7183
19.726
20.3737
20.405
20.3748
19.7245
19.7314
20.3814
20.4111
20.3806
19.7354
19.7446
20.3878
20.4174
20.3864
19.7501
19.758
20.3964
20.426
20.396
19.7602
19.7701
20.4081
20.4372
20.4077
19.7719
19.7847
20.4216
20.4503
20.4213
19.7858
19.8031
20.4361
20.4646
20.4362
19.8032
19.8244
20.4524
20.4809
20.453
19.824
19.8468
20.4721
20.4999
20.4719
19.8482
19.8709
20.4952
20.5217
20.4938
19.8745
19.8988
20.5204
20.5461
20.5207
19.8997
19.9306
20.5483
20.5722
20.549
19.9301
19.9653
20.5769
20.599
20.5777
19.9649
20.001
20.6048
20.6249
20.6056
19.9994
20.0318
20.6294
20.6458
20.6292
20.0311
20.0517
20.6423
20.6535
20.6422
20.0514
20.0487
20.6282
20.631
20.6281
20.0486
19.9901
20.5543
20.5435
20.5542
19.99
19.808
20.3429
20.31
20.3429
19.8079
19.4072
19.8635
19.7887
19.8634
19.4072
18.2956
18.5766
18.4904
18.5766
18.2956
19.8703
20.2729
20.2656
20.2729
19.8703
20.2147
20.1112
20.2137
20.1112
20.2147
20.5101
19.9714
20.0083
19.9715