/*--------------------------------*- C++ -*----------------------------------*\
  =========                 |
  \\      /  F ield         | OpenFOAM: The Open Source CFD Toolbox
   \\    /   O peration     | Website:  https://openfoam.org
    \\  /    A nd           | Version:  9
     \\/     M anipulation  |
\*---------------------------------------------------------------------------*/
FoamFile
{
    format      ascii;
    class       volScalarField;
    location    "3.2";
    object      p;
}
// * * * * * * * * * * * * * * * * * * * * * * * * * * * * * * * * * * * * * //

dimensions      [0 2 -2 0 0 0 0];

internalField   nonuniform List<scalar> 
36360
(
20.2078
20.0262
20.188
20.0372
20.0426
20.1497
20.0533
20.1274
20.0891
20.1
20.0939
20.1033
20.1012
20.0951
20.0957
20.0938
20.1011
20.1011
20.1041
20.1041
20.0948
20.0948
20.0942
20.0942
20.1
20.0891
20.1033
20.0939
20.0951
20.1011
20.0938
20.0957
20.0262
20.2077
20.0372
20.1879
20.1496
20.0426
20.1274
20.0533
20.1283
20.079
20.1605
20.0616
19.9687
20.2118
20.0072
20.1858
20.1058
20.0993
20.098
20.0991
20.1225
20.0973
20.112
20.0963
20.0969
20.0969
20.0987
20.0987
20.0936
20.0936
20.0946
20.0946
20.0993
20.1058
20.0991
20.098
20.0973
20.1225
20.0963
20.112
20.079
20.1284
20.0616
20.1605
20.2117
19.9688
20.1857
20.0073
20.0881
20.0929
20.106
20.0882
19.9119
20.2425
19.9374
20.23
20.1211
20.104
20.1137
20.1012
20.1428
20.1025
20.133
20.0995
20.0957
20.0957
20.0959
20.0959
20.0934
20.0934
20.0931
20.0931
20.104
20.1211
20.1012
20.1137
20.1025
20.1427
20.0995
20.133
20.0929
20.0881
20.0882
20.1061
20.2425
19.912
20.23
19.9375
20.0613
20.0949
20.0734
20.0948
19.8734
20.2564
19.8909
20.2509
20.1327
20.1105
20.1275
20.1072
20.1583
20.1097
20.1512
20.106
20.0976
20.0976
20.0964
20.0964
20.0956
20.0956
20.0943
20.0943
20.1105
20.1327
20.1072
20.1274
20.1097
20.1583
20.106
20.1512
20.095
20.0614
20.0948
20.0734
20.2564
19.8735
20.2508
19.891
20.0429
20.0927
20.0513
20.0941
19.8464
20.2626
19.8588
20.2601
20.1404
20.1169
20.137
20.1138
20.1688
20.1168
20.1641
20.1133
20.1012
20.1012
20.0993
20.0993
20.0994
20.0994
20.0974
20.0974
20.1169
20.1404
20.1138
20.137
20.1168
20.1688
20.1133
20.1641
20.0927
20.0429
20.0941
20.0513
20.2625
19.8464
20.2601
19.8589
20.0295
20.0892
20.0357
20.091
19.8266
20.265
19.8357
20.2641
20.1452
20.1225
20.1431
20.1198
20.1757
20.123
20.1726
20.1201
20.1054
20.1054
20.1033
20.1033
20.1036
20.1036
20.1015
20.1015
20.1225
20.1452
20.1198
20.1431
20.123
20.1757
20.1201
20.1726
20.0892
20.0296
20.0911
20.0357
20.265
19.8266
20.2641
19.8358
20.0195
20.0854
20.0241
20.0873
19.8117
20.2658
19.8186
20.2655
20.148
20.1271
20.1468
20.1249
20.1802
20.1281
20.1782
20.1257
20.1096
20.1096
20.1076
20.1076
20.1079
20.1079
20.1058
20.1058
20.1271
20.148
20.1249
20.1468
20.1281
20.1802
20.1257
20.1782
20.0854
20.0195
20.0873
20.0242
20.2658
19.8117
20.2655
19.8187
20.0117
20.0818
20.0153
20.0836
19.8002
20.2655
19.8056
20.2657
20.1495
20.1306
20.1489
20.129
20.183
20.132
20.1817
20.1302
20.1133
20.1133
20.1115
20.1115
20.1116
20.1116
20.1098
20.1098
20.1306
20.1495
20.129
20.1489
20.132
20.183
20.1302
20.1817
20.0818
20.0117
20.0836
20.0154
20.2655
19.8003
20.2657
19.8056
20.0054
20.0785
20.0084
20.0801
19.7912
20.2648
19.7953
20.2653
20.1502
20.1333
20.1499
20.1321
20.1847
20.135
20.184
20.1336
20.1163
20.1163
20.1149
20.1149
20.1147
20.1147
20.1133
20.1133
20.1332
20.1502
20.1321
20.1499
20.1349
20.1847
20.1336
20.184
20.0785
20.0055
20.0801
20.0084
20.2648
19.7913
20.2653
19.7954
20.0003
20.0754
20.0027
20.0769
19.7843
20.2637
19.7876
20.2643
20.1503
20.135
20.1503
20.1342
20.1856
20.137
20.1853
20.1361
20.1186
20.1186
20.1175
20.1175
20.1172
20.1172
20.116
20.116
20.135
20.1503
20.1342
20.1503
20.137
20.1857
20.1361
20.1853
20.0754
20.0003
20.0769
20.0028
20.2638
19.7838
20.2643
19.7875
19.996
20.0726
19.9981
20.074
19.7786
20.2623
19.7813
20.263
20.1499
20.1361
20.1502
20.1357
20.1859
20.1383
20.1859
20.1377
20.1202
20.1202
20.1194
20.1195
20.1189
20.1189
20.1181
20.1181
20.1361
20.15
20.1357
20.1502
20.1383
20.186
20.1378
20.1859
20.0726
19.996
20.074
19.998
20.2625
19.7775
20.2631
19.7806
19.9923
20.07
19.9941
20.0713
19.7739
20.2607
19.7762
20.2615
20.1492
20.1366
20.1496
20.1364
20.1857
20.1389
20.1859
20.1387
20.1211
20.1211
20.1207
20.1207
20.1199
20.1199
20.1194
20.1195
20.1366
20.1492
20.1364
20.1497
20.1389
20.1858
20.1387
20.186
20.07
19.9922
20.0713
19.9941
20.2608
19.7731
20.2618
19.7749
19.989
20.0675
19.9905
20.0687
19.7697
20.259
19.7719
20.2598
20.1482
20.1365
20.1488
20.1366
20.185
20.1389
20.1854
20.139
20.1214
20.1213
20.1213
20.1213
20.1202
20.1202
20.1201
20.1201
20.1365
20.1482
20.1366
20.1487
20.1389
20.185
20.139
20.1854
20.0675
19.9889
20.0687
19.9905
20.2589
19.7696
20.2598
19.7715
19.986
20.0651
19.9874
20.0663
19.766
20.2571
19.7677
20.2581
20.1469
20.1359
20.1476
20.1363
20.1839
20.1384
20.1845
20.1387
20.1211
20.1211
20.1213
20.1213
20.12
20.12
20.1202
20.1202
20.1359
20.1469
20.1362
20.1476
20.1384
20.1839
20.1387
20.1845
20.065
19.9859
20.0663
19.9874
20.2569
19.7663
20.258
19.7677
19.9831
20.0627
19.9845
20.0639
19.7637
20.2546
19.7649
20.2558
20.1453
20.1348
20.1461
20.1354
20.1823
20.1373
20.1831
20.1379
20.1203
20.1203
20.1207
20.1207
20.1192
20.1192
20.1197
20.1197
20.1349
20.1453
20.1354
20.1461
20.1374
20.1824
20.1379
20.1832
20.0627
19.9831
20.0639
19.9845
20.2549
19.7627
20.2558
19.7647
19.9803
20.0603
19.9817
20.0615
19.7609
20.252
19.7622
20.2533
20.1434
20.1334
20.1444
20.1342
20.1804
20.1358
20.1814
20.1366
20.119
20.119
20.1197
20.1197
20.1179
20.1179
20.1186
20.1186
20.1334
20.1434
20.1342
20.1444
20.1358
20.1804
20.1366
20.1814
20.0603
19.9804
20.0615
19.9817
20.252
19.7611
20.2534
19.762
19.9777
20.058
19.979
20.0592
19.7585
20.2493
19.7595
20.2507
20.1413
20.1315
20.1424
20.1325
20.178
20.1338
20.1793
20.1349
20.1173
20.1173
20.1182
20.1182
20.1161
20.116
20.117
20.117
20.1315
20.1413
20.1325
20.1424
20.1338
20.178
20.1348
20.1792
20.0579
19.9777
20.0592
19.979
20.249
19.7591
20.2506
19.76
19.9751
20.0555
19.9764
20.0568
19.7575
20.2458
19.7579
20.2476
20.1389
20.1293
20.1402
20.1305
20.1752
20.1313
20.1767
20.1326
20.1152
20.1152
20.1163
20.1163
20.1138
20.1138
20.115
20.115
20.1293
20.139
20.1305
20.1402
20.1314
20.1753
20.1326
20.1767
20.0555
19.9753
20.0567
19.9765
20.2462
19.7566
20.2477
19.7577
19.9728
20.0529
19.9739
20.0542
19.7554
20.2426
19.7568
20.244
20.1364
20.1266
20.1377
20.128
20.1721
20.1285
20.1736
20.1299
20.1127
20.1127
20.114
20.114
20.1111
20.1111
20.1125
20.1125
20.1267
20.1364
20.1281
20.1377
20.1285
20.1721
20.13
20.1737
20.053
19.9727
20.0542
19.9739
20.2425
19.7552
20.2443
19.7561
19.9702
20.0506
19.9715
20.0517
19.7531
20.2391
19.7541
20.2409
20.1338
20.1238
20.1351
20.1252
20.1689
20.1254
20.1706
20.127
20.11
20.11
20.1114
20.1114
20.1081
20.1081
20.1096
20.1096
20.1238
20.1338
20.1252
20.1352
20.1254
20.1689
20.127
20.1706
20.0506
19.9703
20.0518
19.9715
20.2392
19.7529
20.241
19.7537
19.9676
20.0482
19.9688
20.0494
19.7518
20.235
19.7525
20.237
20.1311
20.1207
20.1325
20.1222
20.1651
20.1218
20.167
20.1236
20.107
20.107
20.1085
20.1085
20.1047
20.1047
20.1064
20.1064
20.1207
20.1311
20.1222
20.1325
20.1219
20.1652
20.1237
20.167
20.0484
19.9676
20.0495
19.9689
20.2352
19.7518
20.2371
19.7524
19.9654
20.0458
19.9666
20.047
19.7499
20.2313
19.7505
20.2334
20.1284
20.1175
20.1297
20.1191
20.1613
20.1181
20.1633
20.12
20.1039
20.1039
20.1054
20.1054
20.101
20.101
20.1029
20.1029
20.1175
20.1283
20.1191
20.1297
20.1181
20.1612
20.12
20.1632
20.0457
19.9656
20.047
19.9666
20.231
19.7511
20.2331
19.7515
19.9633
20.0437
19.9642
20.0449
19.7479
20.2276
19.749
20.2293
20.1258
20.1143
20.1271
20.1159
20.1575
20.1143
20.1594
20.1162
20.1007
20.1007
20.1023
20.1023
20.0972
20.0972
20.0991
20.0991
20.1143
20.1257
20.1159
20.127
20.1142
20.1573
20.1162
20.1593
20.0438
19.9632
20.0448
19.9644
20.2272
19.7495
20.2291
19.7503
19.9614
20.0416
19.9623
20.0426
19.7478
20.2232
19.748
20.2253
20.1233
20.1112
20.1245
20.1128
20.1534
20.1102
20.1554
20.1122
20.0975
20.0975
20.0991
20.0991
20.0932
20.0932
20.0952
20.0952
20.1112
20.1232
20.1127
20.1244
20.1102
20.1533
20.1122
20.1553
20.0415
19.9617
20.0427
19.9623
20.223
19.7486
20.225
19.7491
19.9598
20.0401
19.9606
20.0408
19.7471
20.2192
19.7472
20.2213
20.1209
20.1082
20.1221
20.1097
20.1494
20.1062
20.1514
20.1082
20.0945
20.0945
20.096
20.096
20.0892
20.0892
20.0912
20.0912
20.1082
20.121
20.1097
20.1221
20.1062
20.1495
20.1082
20.1514
20.0402
19.9597
20.0408
19.9607
20.2195
19.7467
20.2212
19.7475
19.9586
20.0387
19.9591
20.0393
19.747
20.2154
19.7471
20.2172
20.1181
20.1053
20.1196
20.1067
20.1453
20.1022
20.1473
20.1042
20.0916
20.0916
20.093
20.093
20.0854
20.0854
20.0873
20.0873
20.1053
20.1181
20.1067
20.1196
20.1023
20.1454
20.1042
20.1474
20.0386
19.9588
20.0394
19.9591
20.2155
19.747
20.2174
19.7468
19.9582
20.0378
19.9583
20.0382
19.7474
20.2119
19.7471
20.2136
20.1157
20.1028
20.1169
20.104
20.1415
20.0984
20.1434
20.1003
20.0891
20.0891
20.0903
20.0903
20.0817
20.0817
20.0835
20.0835
20.1028
20.1157
20.104
20.1169
20.0985
20.1415
20.1003
20.1434
20.0378
19.9581
20.0382
19.9584
20.2119
19.7473
20.2136
19.7471
19.9582
20.0375
19.9581
20.0375
19.7484
20.2087
19.7478
20.2103
20.1139
20.1006
20.1148
20.1017
20.1379
20.0949
20.1397
20.0966
20.087
20.087
20.088
20.088
20.0783
20.0783
20.08
20.08
20.1006
20.1139
20.1017
20.1148
20.0949
20.1379
20.0967
20.1397
20.0375
19.9582
20.0376
19.9581
20.2087
19.7484
20.2103
19.7478
19.9589
20.0378
19.9584
20.0375
19.7504
20.2058
19.7493
20.2072
20.1126
20.099
20.1132
20.0998
20.1347
20.0918
20.1363
20.0933
20.0854
20.0854
20.0861
20.0861
20.0754
20.0754
20.0768
20.0768
20.099
20.1126
20.0998
20.1132
20.0918
20.1347
20.0933
20.1363
20.0378
19.9589
20.0376
19.9584
20.2058
19.7504
20.2072
19.7493
19.9605
20.0388
19.9596
20.0382
19.7533
20.2034
19.7517
20.2045
20.1119
20.0979
20.1122
20.0984
20.132
20.0892
20.1333
20.0905
20.0844
20.0844
20.0848
20.0848
20.0731
20.0731
20.0742
20.0742
20.0979
20.1119
20.0984
20.1122
20.0892
20.132
20.0905
20.1333
20.0388
19.9605
20.0382
19.9596
20.2034
19.7534
20.2045
19.7518
19.963
20.0405
19.9616
20.0396
19.7574
20.2016
19.7552
20.2024
20.1119
20.0975
20.1118
20.0976
20.1298
20.0873
20.1308
20.0882
20.0842
20.0842
20.0842
20.0842
20.0715
20.0715
20.0722
20.0722
20.0975
20.1119
20.0976
20.1118
20.0873
20.1298
20.0882
20.1308
20.0405
19.963
20.0396
19.9616
20.2016
19.7574
20.2024
19.7553
19.9664
20.0431
19.9646
20.0417
19.7627
20.2003
19.7599
20.2009
20.1124
20.0977
20.1121
20.0975
20.1282
20.086
20.1289
20.0865
20.0847
20.0847
20.0843
20.0843
20.0707
20.0707
20.0709
20.0709
20.0977
20.1124
20.0975
20.1121
20.086
20.1282
20.0865
20.1289
20.0431
19.9664
20.0417
19.9646
20.2003
19.7627
20.2009
19.7599
19.9709
20.0463
19.9685
20.0446
19.7693
20.1997
19.7658
20.2
20.1135
20.0986
20.1129
20.0981
20.1272
20.0855
20.1276
20.0856
20.0861
20.0861
20.0853
20.0853
20.0708
20.0708
20.0706
20.0706
20.0986
20.1135
20.0981
20.1129
20.0855
20.1272
20.0856
20.1276
20.0463
19.971
20.0446
19.9685
20.1997
19.7693
20.2
19.7658
19.9767
20.0502
19.9736
20.0482
19.7775
20.1997
19.7732
20.1997
20.1152
20.1003
20.1143
20.0994
20.1268
20.0859
20.1269
20.0856
20.0883
20.0883
20.0871
20.0871
20.072
20.072
20.0712
20.0712
20.1003
20.1152
20.0994
20.1143
20.0859
20.1268
20.0856
20.1269
20.0502
19.9767
20.0482
19.9736
20.1997
19.7775
20.1997
19.7732
19.9836
20.0547
19.98
20.0524
19.7874
20.2002
19.7822
20.1999
20.1174
20.1028
20.1162
20.1015
20.127
20.0872
20.1268
20.0864
20.0915
20.0915
20.0898
20.0898
20.0742
20.0742
20.073
20.073
20.1028
20.1174
20.1015
20.1162
20.0872
20.127
20.0864
20.1268
20.0547
19.9836
20.0524
19.98
20.2002
19.7874
20.1999
19.7822
19.9918
20.0597
19.9875
20.0572
19.7995
20.2008
19.7932
20.2005
20.1199
20.1059
20.1186
20.1042
20.1277
20.0895
20.1273
20.0882
20.0956
20.0956
20.0934
20.0934
20.0776
20.0776
20.0758
20.0758
20.1059
20.1199
20.1042
20.1186
20.0895
20.1277
20.0882
20.1273
20.0597
19.9918
20.0572
19.9876
20.2008
19.7995
20.2005
19.7932
20.0011
20.0651
19.9964
20.0623
19.8143
20.2011
19.8065
20.2011
20.1226
20.1097
20.1212
20.1077
20.1287
20.0927
20.1281
20.091
20.1005
20.1005
20.0979
20.0979
20.0821
20.0821
20.0797
20.0797
20.1097
20.1226
20.1077
20.1212
20.0927
20.1287
20.091
20.1281
20.0651
20.0011
20.0623
19.9964
20.2011
19.8143
20.2011
19.8065
20.0094
20.0722
20.0058
20.0681
19.833
20.1997
19.8231
20.2007
20.1257
20.1143
20.1241
20.1119
20.1299
20.097
20.1292
20.0947
20.1064
20.1064
20.1033
20.1033
20.0878
20.0878
20.0848
20.0848
20.1143
20.1257
20.1119
20.1241
20.097
20.1298
20.0947
20.1292
20.0722
20.0094
20.0681
20.0058
20.1997
19.833
20.2007
19.8231
20.0161
20.0804
20.0109
20.0781
19.8564
20.1945
19.844
20.1978
20.1303
20.12
20.1278
20.117
20.1317
20.1025
20.1306
20.0995
20.1131
20.1131
20.1096
20.1096
20.0946
20.0946
20.0911
20.0911
20.12
20.1303
20.117
20.1278
20.1025
20.1317
20.0995
20.1306
20.0804
20.0161
20.0781
20.0109
20.1945
19.8564
20.1978
19.844
20.3159
19.9836
20.2441
20.0111
20.2878
19.9808
20.2273
20.0094
20.0382
20.083
20.0607
20.0921
20.0542
20.092
20.0705
20.0965
20.0993
20.0993
20.1012
20.1012
20.0999
20.0999
20.1003
20.1003
20.083
20.0383
20.0921
20.0608
20.0921
20.0543
20.0965
20.0705
19.9837
20.3158
20.0111
20.244
19.9808
20.2877
20.0095
20.2272
20.2395
20.0515
20.2653
20.0328
20.2183
20.0373
20.2441
20.0212
20.0551
20.0794
20.0486
20.0808
20.0696
20.0898
20.0629
20.0905
20.0924
20.0924
20.096
20.096
20.0961
20.0961
20.0984
20.0984
20.0795
20.0552
20.0808
20.0487
20.0898
20.0696
20.0905
20.0629
20.0515
20.2394
20.0328
20.2652
20.0373
20.2183
20.0212
20.244
20.2186
20.0574
20.227
20.0569
20.1923
20.0434
20.2035
20.0426
20.0644
20.0819
20.0605
20.0803
20.0809
20.0937
20.0757
20.0915
20.09
20.09
20.0906
20.0906
20.0944
20.0944
20.0948
20.0948
20.0819
20.0644
20.0803
20.0605
20.0937
20.0809
20.0915
20.0757
20.0574
20.2185
20.0569
20.227
20.0434
20.1922
20.0426
20.2035
20.2075
20.0534
20.2123
20.0558
20.1763
20.0398
20.1834
20.0421
20.0684
20.0855
20.0669
20.0837
20.0879
20.0987
20.0849
20.0961
20.0914
20.0914
20.0904
20.0904
20.0961
20.0961
20.0949
20.0949
20.0855
20.0684
20.0837
20.0669
20.0987
20.0879
20.0961
20.085
20.0534
20.2075
20.0559
20.2123
20.0398
20.1763
20.0421
20.1834
20.2007
20.0476
20.2038
20.0506
20.1658
20.0338
20.1705
20.0369
20.0694
20.089
20.0691
20.0874
20.0913
20.1034
20.09
20.1011
20.0945
20.0945
20.0928
20.0928
20.0995
20.0995
20.0976
20.0976
20.0891
20.0694
20.0874
20.0691
20.1034
20.0913
20.1011
20.09
20.0477
20.2007
20.0506
20.2037
20.0338
20.1658
20.0369
20.1705
20.196
20.042
20.1981
20.0448
20.1585
20.028
20.1618
20.0308
20.0689
20.0919
20.0693
20.0906
20.0923
20.1075
20.0921
20.1056
20.0982
20.0982
20.0964
20.0964
20.1035
20.1035
20.1015
20.1015
20.0919
20.0689
20.0906
20.0693
20.1075
20.0924
20.1056
20.0921
20.042
20.196
20.0448
20.1981
20.028
20.1584
20.0308
20.1618
20.1925
20.0369
20.1941
20.0393
20.153
20.0226
20.1556
20.0252
20.0678
20.094
20.0684
20.093
20.0922
20.1108
20.0924
20.1093
20.1017
20.1017
20.1
20.1
20.1075
20.1075
20.1056
20.1056
20.094
20.0678
20.093
20.0684
20.1108
20.0922
20.1092
20.0924
20.0369
20.1925
20.0394
20.1941
20.0226
20.153
20.0252
20.1556
20.1898
20.0323
20.1911
20.0345
20.1489
20.0177
20.1508
20.0201
20.0664
20.0956
20.0671
20.0949
20.0915
20.1135
20.0919
20.1123
20.1047
20.1047
20.1033
20.1033
20.1109
20.1109
20.1093
20.1093
20.0956
20.0664
20.0949
20.0671
20.1135
20.0915
20.1123
20.0919
20.0323
20.1897
20.0345
20.191
20.0178
20.1488
20.0201
20.1508
20.1875
20.0282
20.1886
20.0302
20.1454
20.0134
20.1471
20.0155
20.0649
20.0966
20.0656
20.0962
20.0906
20.1154
20.0911
20.1145
20.1071
20.1071
20.106
20.106
20.1137
20.1137
20.1124
20.1124
20.0967
20.0649
20.0962
20.0657
20.1155
20.0906
20.1145
20.0911
20.0283
20.1874
20.0302
20.1885
20.0136
20.1453
20.0156
20.147
20.1854
20.0246
20.1864
20.0263
20.1425
20.0097
20.1439
20.0115
20.0633
20.0972
20.0641
20.097
20.0894
20.1168
20.09
20.1162
20.1088
20.1088
20.108
20.108
20.1158
20.1158
20.1149
20.1149
20.0972
20.0633
20.097
20.0641
20.1168
20.0895
20.1162
20.0901
20.0246
20.1854
20.0264
20.1863
20.0097
20.1424
20.0116
20.1437
20.1836
20.0213
20.1845
20.0229
20.1399
20.0063
20.1412
20.0079
20.0616
20.0973
20.0624
20.0973
20.0881
20.1175
20.0888
20.1172
20.1099
20.1099
20.1094
20.1094
20.1172
20.1172
20.1166
20.1166
20.0973
20.0616
20.0973
20.0625
20.1175
20.0881
20.1172
20.0888
20.0213
20.1836
20.0229
20.1845
20.0063
20.1399
20.0079
20.1412
20.1818
20.0182
20.1827
20.0197
20.1376
20.0031
20.1387
20.0046
20.0599
20.0971
20.0607
20.0973
20.0867
20.1177
20.0874
20.1177
20.1104
20.1104
20.1102
20.1102
20.118
20.118
20.1177
20.1177
20.0971
20.0599
20.0973
20.0607
20.1177
20.0866
20.1176
20.0874
20.0182
20.1818
20.0197
20.1827
20.003
20.1377
20.0046
20.1388
20.18
20.0154
20.1809
20.0167
20.1353
20.0002
20.1365
20.0016
20.0581
20.0965
20.059
20.0968
20.0851
20.1174
20.0859
20.1176
20.1105
20.1105
20.1105
20.1105
20.1182
20.1182
20.1182
20.1182
20.0964
20.0581
20.0968
20.059
20.1173
20.085
20.1176
20.0858
20.0153
20.1801
20.0167
20.181
20
20.1356
20.0014
20.1367
20.1782
20.0126
20.1791
20.014
20.1331
19.9975
20.1342
19.9988
20.0562
20.0955
20.0572
20.096
20.0834
20.1166
20.0843
20.1171
20.1101
20.11
20.1103
20.1103
20.1179
20.1179
20.1181
20.1181
20.0955
20.0562
20.096
20.0571
20.1166
20.0833
20.117
20.0842
20.0126
20.1783
20.0139
20.1792
19.9973
20.1334
19.9986
20.1345
20.1763
20.01
20.1773
20.0113
20.131
19.9947
20.1321
19.9961
20.0543
20.0943
20.0553
20.095
20.0815
20.1155
20.0825
20.1161
20.1092
20.1092
20.1097
20.1097
20.1171
20.1171
20.1176
20.1176
20.0943
20.0543
20.095
20.0553
20.1155
20.0815
20.1161
20.0824
20.01
20.1764
20.0113
20.1774
19.9946
20.1313
19.996
20.1323
20.1744
20.0075
20.1754
20.0087
20.129
19.9921
20.1301
19.9934
20.0524
20.0929
20.0533
20.0936
20.0795
20.114
20.0805
20.1148
20.1081
20.1081
20.1087
20.1087
20.1159
20.1159
20.1166
20.1166
20.0929
20.0524
20.0936
20.0533
20.114
20.0795
20.1148
20.0805
20.0075
20.1744
20.0087
20.1755
19.9921
20.1291
19.9933
20.1302
20.1725
20.005
20.1734
20.0063
20.1269
19.9895
20.1279
19.9908
20.0503
20.0913
20.0514
20.0921
20.0773
20.1121
20.0784
20.1131
20.1067
20.1067
20.1074
20.1074
20.1144
20.1144
20.1152
20.1152
20.0913
20.0504
20.0921
20.0514
20.1122
20.0773
20.1131
20.0784
20.0051
20.1723
20.0063
20.1734
19.9895
20.1269
19.9908
20.128
20.1704
20.0027
20.1715
20.0038
20.1248
19.9871
20.1259
19.9882
20.0483
20.0895
20.0493
20.0904
20.0751
20.11
20.0762
20.1111
20.105
20.105
20.1059
20.1059
20.1125
20.1125
20.1135
20.1135
20.0895
20.0484
20.0904
20.0494
20.11
20.0751
20.1111
20.0762
20.0027
20.1704
20.0039
20.1714
19.9869
20.1249
19.9882
20.126
20.1687
20.0003
20.1696
20.0014
20.1229
19.9844
20.1238
19.9857
20.0463
20.0876
20.0473
20.0886
20.0727
20.108
20.0739
20.109
20.1032
20.1032
20.1041
20.1041
20.1104
20.1104
20.1115
20.1115
20.0876
20.0463
20.0886
20.0473
20.1081
20.0728
20.109
20.0739
20.0003
20.1687
20.0014
20.1696
19.9847
20.1226
19.9858
20.1238
20.1665
19.9983
20.1676
19.9992
20.1207
19.9822
20.1218
19.9833
20.0444
20.0858
20.0453
20.0867
20.0704
20.106
20.0716
20.1071
20.1013
20.1013
20.1023
20.1023
20.1081
20.1081
20.1092
20.1092
20.0858
20.0444
20.0867
20.0453
20.106
20.0704
20.1071
20.0716
19.9983
20.1667
19.9992
20.1677
19.9822
20.1208
19.9834
20.1217
20.1651
19.9962
20.1658
19.9972
20.1186
19.9801
20.1196
19.9812
20.0425
20.0839
20.0434
20.0848
20.0681
20.1038
20.0693
20.105
20.0993
20.0993
20.1003
20.1003
20.1057
20.1057
20.1069
20.1069
20.0839
20.0425
20.0848
20.0434
20.1038
20.0681
20.105
20.0693
19.9962
20.1652
19.9972
20.166
19.9802
20.1186
19.9811
20.1197
20.1631
19.9948
20.1641
19.9955
20.1165
19.9783
20.1176
19.9791
20.041
20.0823
20.0417
20.0831
20.0659
20.1015
20.067
20.1026
20.0975
20.0975
20.0984
20.0984
20.1032
20.1032
20.1044
20.1044
20.0823
20.0411
20.0831
20.0418
20.1015
20.0658
20.1026
20.067
19.9949
20.1631
19.9955
20.1641
19.9782
20.1168
19.9791
20.1177
20.1622
19.9933
20.1627
19.9939
20.1151
19.9764
20.1158
19.9773
20.0396
20.0808
20.0403
20.0815
20.0635
20.0992
20.0647
20.1003
20.0958
20.0958
20.0966
20.0966
20.1009
20.1009
20.102
20.102
20.0808
20.0397
20.0815
20.0403
20.0992
20.0636
20.1003
20.0647
19.9933
20.1621
19.994
20.1626
19.9766
20.1149
19.9774
20.1158
20.1606
19.9926
20.1613
19.9929
20.1133
19.9753
20.1142
19.9758
20.0388
20.0796
20.0392
20.0801
20.0613
20.0972
20.0624
20.0982
20.0943
20.0943
20.095
20.095
20.0986
20.0986
20.0997
20.0997
20.0796
20.0389
20.0802
20.0392
20.0971
20.0612
20.0982
20.0624
19.9927
20.1605
19.993
20.1613
19.9752
20.1136
19.9759
20.1142
20.1604
19.992
20.1604
19.9922
20.1126
19.9742
20.1129
19.9747
20.0386
20.0787
20.0386
20.0791
20.059
20.0953
20.06
20.0962
20.093
20.093
20.0936
20.0936
20.0966
20.0966
20.0976
20.0976
20.0787
20.0386
20.0791
20.0386
20.0953
20.059
20.0962
20.06
19.992
20.1604
19.9923
20.1604
19.9743
20.1125
19.9747
20.113
20.1597
19.9921
20.1601
19.992
20.1116
19.974
20.1121
19.974
20.0382
20.0781
20.0383
20.0783
20.0594
20.0939
20.059
20.0945
20.0921
20.0921
20.0925
20.0925
20.0948
20.0948
20.0957
20.0957
20.0781
20.0383
20.0784
20.0384
20.0939
20.0593
20.0945
20.059
19.9922
20.1597
19.9919
20.1601
19.9738
20.1119
19.974
20.1121
20.1601
19.9927
20.1598
19.9923
20.1115
19.9741
20.1115
19.9739
20.0386
20.078
20.0383
20.078
20.0598
20.0928
20.0596
20.0933
20.0917
20.0917
20.0919
20.0919
20.0934
20.0934
20.0941
20.0941
20.078
20.0386
20.078
20.0384
20.0928
20.0598
20.0933
20.0596
19.9927
20.16
19.9924
20.1598
19.9742
20.1114
19.9739
20.1117
20.1606
19.9942
20.1603
19.9933
20.1115
19.9752
20.1115
19.9745
20.0397
20.0784
20.0391
20.0781
20.0604
20.0922
20.0601
20.0924
20.0917
20.0917
20.0916
20.0916
20.0925
20.0925
20.0929
20.0929
20.0784
20.0397
20.0781
20.0391
20.0922
20.0604
20.0924
20.0601
19.9942
20.1606
19.9933
20.1602
19.9752
20.1116
19.9746
20.1114
20.1619
19.9964
20.1612
19.9952
20.1123
19.9767
20.1118
19.9759
20.0414
20.0794
20.0405
20.0788
20.0615
20.0921
20.0609
20.0921
20.0923
20.0923
20.0919
20.0919
20.0922
20.0922
20.0923
20.0923
20.0794
20.0414
20.0788
20.0405
20.0921
20.0615
20.0921
20.0609
19.9964
20.1618
19.9952
20.1612
19.9767
20.1124
19.9759
20.1119
20.1637
19.9995
20.1627
19.9978
20.1138
19.9789
20.113
19.9777
20.0438
20.081
20.0425
20.0801
20.063
20.0927
20.0622
20.0923
20.0935
20.0935
20.0929
20.0929
20.0925
20.0925
20.0923
20.0923
20.081
20.0438
20.0801
20.0425
20.0927
20.063
20.0923
20.0622
19.9995
20.1636
19.9978
20.1627
19.9789
20.1138
19.9777
20.113
20.166
20.004
20.1648
20.0015
20.116
19.9813
20.1149
19.9801
20.0468
20.0832
20.0452
20.082
20.0652
20.0938
20.064
20.0932
20.0954
20.0954
20.0944
20.0944
20.0935
20.0935
20.0929
20.0929
20.0832
20.0468
20.082
20.0452
20.0938
20.0652
20.0932
20.064
20.004
20.166
20.0015
20.1648
19.9813
20.116
19.9801
20.1149
20.1689
20.0069
20.1674
20.0054
20.1189
19.986
20.1174
19.9836
20.0503
20.086
20.0485
20.0845
20.0679
20.0956
20.0665
20.0946
20.0978
20.0978
20.0965
20.0965
20.0952
20.0952
20.0943
20.0943
20.086
20.0503
20.0845
20.0485
20.0956
20.0679
20.0946
20.0665
20.007
20.1689
20.0054
20.1674
19.986
20.1189
19.9836
20.1174
20.1723
20.011
20.1706
20.0088
20.1226
19.9911
20.1207
19.9885
20.0543
20.0894
20.0522
20.0876
20.0713
20.098
20.0695
20.0967
20.1009
20.1009
20.0993
20.0993
20.0976
20.0976
20.0963
20.0963
20.0894
20.0543
20.0876
20.0523
20.098
20.0713
20.0967
20.0695
20.011
20.1723
20.0088
20.1706
19.9911
20.1226
19.9885
20.1207
20.176
20.0159
20.1741
20.0134
20.1269
19.9965
20.1247
19.9937
20.0589
20.0932
20.0565
20.0912
20.0751
20.1009
20.0731
20.0994
20.1045
20.1045
20.1026
20.1026
20.1007
20.1007
20.0991
20.0991
20.0932
20.0589
20.0912
20.0565
20.1009
20.0751
20.0994
20.0731
20.0159
20.176
20.0134
20.1741
19.9965
20.1269
19.9937
20.1247
20.1797
20.0213
20.1779
20.0185
20.1317
20.0025
20.1293
19.9995
20.0638
20.0975
20.0613
20.0953
20.0793
20.1045
20.0771
20.1027
20.1086
20.1086
20.1065
20.1065
20.1045
20.1045
20.1025
20.1025
20.0975
20.0638
20.0953
20.0613
20.1045
20.0793
20.1027
20.0771
20.0213
20.1797
20.0185
20.1779
20.0025
20.1317
19.9995
20.1293
20.1829
20.0274
20.1814
20.0243
20.1368
20.0091
20.1343
20.0057
20.0691
20.102
20.0664
20.0997
20.0839
20.1085
20.0816
20.1064
20.1132
20.1132
20.1108
20.1108
20.1089
20.1089
20.1066
20.1066
20.102
20.0692
20.0997
20.0664
20.1085
20.0839
20.1064
20.0816
20.0274
20.1828
20.0243
20.1814
20.0091
20.1368
20.0057
20.1343
20.1842
20.0349
20.1839
20.0309
20.1413
20.0167
20.1392
20.0127
20.0748
20.1068
20.072
20.1044
20.0886
20.1128
20.0862
20.1106
20.1182
20.1182
20.1156
20.1156
20.1139
20.1139
20.1114
20.1114
20.1068
20.0748
20.1044
20.072
20.1128
20.0886
20.1106
20.0862
20.0348
20.1842
20.0309
20.1839
20.0167
20.1412
20.0127
20.1392
20.1776
20.0485
20.1828
20.0401
20.1407
20.0284
20.1424
20.0214
20.0809
20.1117
20.0778
20.1092
20.0937
20.1176
20.0911
20.1151
20.1237
20.1237
20.1209
20.1209
20.1196
20.1196
20.1167
20.1167
20.1117
20.0809
20.1092
20.0778
20.1176
20.0937
20.1151
20.0911
20.0485
20.1776
20.0401
20.1828
20.0284
20.1407
20.0214
20.1423
20.1932
20.0423
20.1715
20.0582
20.155
20.026
20.1378
20.0366
20.0825
20.1176
20.0837
20.1145
20.097
20.1234
20.0964
20.1203
20.1299
20.1299
20.1267
20.1267
20.126
20.126
20.1227
20.1227
20.1176
20.0825
20.1145
20.0837
20.1234
20.0969
20.1203
20.0964
20.0423
20.1932
20.0582
20.1715
20.026
20.1549
20.0366
20.1378
20.3379
19.9988
20.2604
20.0191
20.3289
19.9918
20.2535
20.0152
20.0201
20.0679
20.0483
20.083
20.0266
20.0744
20.0529
20.0869
20.0928
20.0928
20.0991
20.0991
20.0965
20.0965
20.1006
20.1006
20.0679
20.0201
20.083
20.0484
20.0744
20.0266
20.087
20.0529
19.9989
20.3378
20.0191
20.2603
19.9918
20.3288
20.0153
20.2534
20.237
20.0879
20.2691
20.0631
20.24
20.0713
20.2688
20.0494
20.0479
20.0644
20.0381
20.0659
20.0492
20.0706
20.0409
20.0722
20.08
20.08
20.0861
20.0862
20.0864
20.0864
20.0913
20.0913
20.0644
20.0479
20.0659
20.0381
20.0706
20.0492
20.0722
20.0409
20.0879
20.2369
20.0631
20.269
20.0713
20.24
20.0494
20.2687
20.2149
20.0972
20.2232
20.0954
20.2194
20.0791
20.2274
20.0779
20.0597
20.0663
20.0551
20.065
20.0592
20.0726
20.0552
20.0712
20.0754
20.0754
20.0768
20.0768
20.0828
20.0828
20.0838
20.0838
20.0663
20.0597
20.0651
20.0551
20.0726
20.0592
20.0713
20.0552
20.0972
20.2149
20.0954
20.2232
20.0791
20.2193
20.0779
20.2273
20.2051
20.0953
20.2093
20.0967
20.2096
20.0763
20.2138
20.0782
20.0635
20.0688
20.0623
20.0676
20.0626
20.0754
20.0615
20.074
20.0757
20.0757
20.0752
20.0752
20.0836
20.0836
20.0829
20.0829
20.0688
20.0635
20.0676
20.0623
20.0754
20.0627
20.074
20.0615
20.0953
20.2051
20.0967
20.2092
20.0763
20.2096
20.0782
20.2137
20.1994
20.0915
20.202
20.0934
20.2038
20.0717
20.2064
20.0741
20.0638
20.0708
20.0639
20.0699
20.063
20.0778
20.063
20.0767
20.0779
20.0779
20.0767
20.0767
20.0863
20.0863
20.0849
20.0849
20.0708
20.0639
20.0699
20.0639
20.0778
20.063
20.0767
20.0631
20.0915
20.1994
20.0934
20.202
20.0717
20.2038
20.0741
20.2064
20.1954
20.0876
20.1973
20.0895
20.1998
20.0671
20.2016
20.0693
20.063
20.0722
20.0635
20.0716
20.0621
20.0796
20.0626
20.0788
20.0804
20.0804
20.0791
20.0791
20.0893
20.0893
20.0878
20.0878
20.0722
20.063
20.0716
20.0635
20.0796
20.0621
20.0788
20.0626
20.0876
20.1954
20.0895
20.1973
20.0671
20.1997
20.0694
20.2016
20.1924
20.084
20.1938
20.0857
20.1967
20.0628
20.1982
20.0649
20.0619
20.0731
20.0625
20.0727
20.0607
20.081
20.0614
20.0804
20.0826
20.0826
20.0815
20.0815
20.0922
20.0922
20.0908
20.0908
20.0731
20.0619
20.0727
20.0625
20.081
20.0607
20.0804
20.0614
20.084
20.1924
20.0857
20.1938
20.0628
20.1967
20.0649
20.1981
20.1899
20.0807
20.1911
20.0823
20.1943
20.059
20.1955
20.0608
20.0605
20.0735
20.0612
20.0733
20.0592
20.0819
20.0599
20.0815
20.0844
20.0844
20.0836
20.0836
20.0946
20.0946
20.0935
20.0935
20.0736
20.0605
20.0734
20.0612
20.0819
20.0592
20.0815
20.06
20.0807
20.1899
20.0823
20.1911
20.059
20.1943
20.0608
20.1955
20.1879
20.0777
20.1889
20.0791
20.1923
20.0555
20.1933
20.0572
20.059
20.0737
20.0598
20.0737
20.0575
20.0823
20.0583
20.0822
20.0858
20.0858
20.0852
20.0852
20.0964
20.0964
20.0955
20.0956
20.0737
20.0591
20.0737
20.0598
20.0824
20.0575
20.0822
20.0584
20.0777
20.1878
20.0791
20.1889
20.0556
20.1922
20.0572
20.1932
20.186
20.0749
20.1869
20.0763
20.1905
20.0524
20.1914
20.0539
20.0575
20.0736
20.0583
20.0737
20.0558
20.0825
20.0567
20.0825
20.0866
20.0866
20.0862
20.0862
20.0976
20.0976
20.0971
20.0971
20.0736
20.0575
20.0737
20.0583
20.0825
20.0559
20.0825
20.0567
20.075
20.186
20.0763
20.1869
20.0524
20.1904
20.0539
20.1913
20.1843
20.0724
20.1851
20.0736
20.1887
20.0495
20.1896
20.0509
20.0559
20.0731
20.0567
20.0734
20.0541
20.0822
20.055
20.0824
20.087
20.087
20.0869
20.0869
20.0983
20.0984
20.0981
20.0981
20.0731
20.056
20.0734
20.0567
20.0823
20.0541
20.0824
20.055
20.0724
20.1843
20.0736
20.1851
20.0495
20.1887
20.0509
20.1896
20.1826
20.0699
20.1835
20.0711
20.1871
20.0468
20.1879
20.0481
20.0543
20.0724
20.0551
20.0728
20.0523
20.0817
20.0532
20.082
20.087
20.087
20.0871
20.0871
20.0986
20.0986
20.0985
20.0985
20.0724
20.0543
20.0728
20.0551
20.0817
20.0524
20.082
20.0532
20.0699
20.1827
20.0711
20.1835
20.0468
20.1871
20.0481
20.1879
20.181
20.0676
20.1818
20.0687
20.1854
20.0442
20.1863
20.0455
20.0525
20.0715
20.0534
20.072
20.0505
20.0809
20.0514
20.0814
20.0867
20.0867
20.0869
20.0869
20.0984
20.0984
20.0986
20.0986
20.0715
20.0525
20.072
20.0534
20.0809
20.0505
20.0813
20.0514
20.0676
20.181
20.0688
20.1819
20.0442
20.1855
20.0455
20.1863
20.1794
20.0654
20.1802
20.0665
20.1838
20.0417
20.1846
20.0429
20.0507
20.0704
20.0516
20.071
20.0487
20.0799
20.0496
20.0804
20.086
20.086
20.0864
20.0864
20.0979
20.0979
20.0982
20.0982
20.0704
20.0507
20.071
20.0516
20.0799
20.0487
20.0804
20.0496
20.0654
20.1794
20.0665
20.1803
20.0417
20.1838
20.0429
20.1847
20.1778
20.0632
20.1786
20.0642
20.1821
20.0393
20.183
20.0405
20.0489
20.0691
20.0498
20.0698
20.0468
20.0786
20.0477
20.0793
20.0851
20.0851
20.0856
20.0856
20.097
20.097
20.0975
20.0975
20.0691
20.0489
20.0698
20.0498
20.0786
20.0467
20.0793
20.0477
20.0632
20.1778
20.0643
20.1786
20.0393