/*--------------------------------*- C++ -*----------------------------------*\
  =========                 |
  \\      /  F ield         | OpenFOAM: The Open Source CFD Toolbox
   \\    /   O peration     | Website:  https://openfoam.org
    \\  /    A nd           | Version:  9
     \\/     M anipulation  |
\*---------------------------------------------------------------------------*/
FoamFile
{
    format      ascii;
    class       surfaceScalarField;
    location    "3.2";
    object      phi;
}
// * * * * * * * * * * * * * * * * * * * * * * * * * * * * * * * * * * * * * //

dimensions      [0 3 -1 0 0 0 0];

internalField   nonuniform List<scalar> 
104044
(
6.77063e-06
-0.000147805
-1.90754e-05
0.000137364
2.27459e-05
-9.28865e-05
1.60151e-05
-2.31507e-06
0.00010163
-1.56725e-05
5.78701e-06
-2.79877e-05
2.59187e-05
1.97906e-05
-2.15229e-06
-1.66543e-05
-4.37772e-06
-0.000182598
0.000167901
-6.89153e-05
1.98487e-06
7.85679e-05
-3.0555e-06
1.30714e-06
-3.98034e-07
-0.000100187
-3.89998e-06
0.000100383
1.78783e-06
-0.000103745
-3.61752e-06
-4.06962e-08
0.000103011
3.99415e-06
-3.59737e-07
-3.84573e-06
8.84627e-07
-4.73787e-06
-3.00949e-08
3.73673e-06
2.48389e-07
-8.75645e-05
8.54011e-05
-0.000101685
9.92925e-09
9.83058e-05
7.57753e-08
-1.55493e-08
-1.05924e-11
-0.000105364
-3.02697e-06
0.000104633
3.71721e-06
-0.000105364
-3.02714e-06
4.06508e-08
0.000104633
3.71736e-06
2.43267e-11
-4.41523e-06
3.79101e-06
-4.41517e-06
3.01007e-08
3.79108e-06
-2.96026e-11
-0.000106366
0.000103349
-0.000106368
-9.94307e-09
0.00010335
-3.08454e-11
1.55158e-08
3.97926e-07
-0.000103745
-3.61811e-06
0.000103011
3.99481e-06
-0.000100186
-3.902e-06
2.31447e-06
0.00010038
1.79107e-06
3.59581e-07
-4.738e-06
3.7373e-06
-3.8478e-06
2.15148e-06
8.88024e-07
-2.48054e-07
-0.000101689
9.83086e-05
-8.75687e-05
-1.98364e-06
8.54023e-05
-7.55988e-08
-1.30617e-06
-6.76846e-06
-9.28815e-05
1.60064e-05
0.000101623
-1.56651e-05
-0.000147803
-1.90668e-05
0.000137365
2.27362e-05
-5.78425e-06
1.97811e-05
-1.66476e-05
-2.79745e-05
2.59072e-05
4.37387e-06
-6.89099e-05
7.85588e-05
-0.000182595
0.000167902
3.05264e-06
1.77315e-06
-0.000130594
-2.0446e-05
0.000126087
2.31791e-05
-0.000105443
1.94254e-05
-9.4771e-07
0.000107017
-1.8279e-05
3.58699e-06
-1.96928e-05
2.28762e-05
1.81504e-05
-1.29967e-06
-1.70768e-05
-9.7359e-06
-0.000155374
0.000144664
-8.6598e-05
3.56758e-06
9.27198e-05
-7.16593e-06
2.95433e-06
2.31268e-07
-0.000101134
-1.09246e-06
0.000102005
-9.57061e-07
-0.000102478
-2.10413e-06
7.10604e-08
0.000102227
2.516e-06
-3.84551e-08
-2.12253e-06
1.09408e-07
-2.84903e-06
1.3087e-08
3.33034e-06
8.39525e-07
-8.56631e-05
8.72987e-05
-9.59568e-05
1.51742e-07
9.45405e-05
5.6978e-07
6.97115e-08
-1.1482e-11
-0.000103881
-2.07431e-06
0.000103244
2.78255e-06
-0.000103881
-2.07449e-06
-7.10141e-08
0.000103244
2.78276e-06
-2.21434e-11
-2.50644e-06
3.27176e-06
-2.50663e-06
-1.30902e-08
3.27196e-06
-4.49787e-12
-0.000100913
9.89902e-05
-0.000100914
-1.51638e-07
9.89906e-05
-1.66159e-11
-6.96709e-08
-2.31058e-07
-0.000102478
-2.10488e-06
0.000102226
2.51695e-06
-0.000101132
-1.09392e-06
9.47382e-07
0.000102002
-9.54709e-07
3.85634e-08
-2.84979e-06
3.33123e-06
-2.12453e-06
1.29935e-06
1.12391e-07
-8.39031e-07
-9.59585e-05
9.4541e-05
-8.56615e-05
-3.5665e-06
8.7295e-05
-5.69379e-07
-2.95308e-06
-1.77366e-06
-0.000105437
1.94191e-05
0.000107012
-1.82734e-05
-0.000130596
-2.04392e-05
0.00012609
2.31719e-05
-3.58679e-06
1.81427e-05
-1.70702e-05
-1.96861e-05
2.28686e-05
9.73062e-06
-8.65874e-05
9.27094e-05
-0.000155377
0.000144669
7.1611e-06
-1.65374e-07
-0.000122681
-1.92813e-05
0.000120006
2.21221e-05
-0.000107757
1.95139e-05
-1.17718e-06
0.0001081
-1.88456e-05
6.23644e-07
-1.97039e-05
2.24862e-05
1.93426e-05
-1.00146e-06
-1.84569e-05
-1.29479e-05
-0.000136434
0.000130101
-9.67876e-05
3.90233e-06
9.94513e-05
-1.14745e-05
3.80034e-06
6.67841e-07
-0.000102759
-5.48346e-07
0.000103402
-1.94011e-06
-0.000102194
-1.02271e-06
2.66039e-07
0.000102331
1.28814e-06
4.64543e-07
-6.58919e-07
-1.56093e-06
-1.44805e-06
1.56198e-07
1.78857e-06
1.26933e-06
-8.93783e-05
9.1463e-05
-9.39189e-05
3.14478e-07
9.3851e-05
1.06174e-06
2.35268e-07
2.73593e-11
-0.000102797
-1.25574e-06
0.000102551
1.76764e-06
-0.000102797
-1.2559e-06
-2.65863e-07
0.000102551
1.7678e-06
7.16219e-12
-1.6266e-06
2.22968e-06
-1.62677e-06
-1.56095e-07
2.22988e-06
2.97589e-11
-9.75988e-05
9.66575e-05
-9.7599e-05
-3.14313e-07
9.66574e-05
2.00096e-11
-2.35107e-07
-6.67623e-07
-0.000102193
-1.02316e-06
0.000102329
1.28878e-06
-0.000102756
-5.49043e-07
1.17648e-06
0.000103399
-1.93847e-06
-4.64295e-07
-1.44868e-06
1.78938e-06
-6.59945e-07
1.00085e-06
-1.55892e-06
-1.26877e-06
-9.39184e-05
9.38497e-05
-8.93734e-05
-3.90179e-06
9.14574e-05
-1.06119e-06
-3.79954e-06
1.64498e-07
-0.000107752
1.95095e-05
0.000108096
-1.88415e-05
-0.000122684
-1.92762e-05
0.000120008
2.21164e-05
-6.2444e-07
1.93373e-05
-1.84521e-05
-1.96987e-05
2.24802e-05
1.29429e-05
-9.67779e-05
9.94427e-05
-0.00013644
0.000130106
1.14693e-05
-1.12866e-06
-0.000117935
-1.8405e-05
0.000116296
2.11729e-05
-0.000108242
1.95314e-05
-1.56898e-06
0.000108283
-1.91324e-05
-7.20982e-07
-1.85792e-05
2.13714e-05
1.92984e-05
-1.35749e-06
-1.88036e-05
-1.46787e-05
-0.000125324
0.000121598
-0.000101131
3.75708e-06
0.000102227
-1.3802e-05
3.81663e-06
8.44164e-07
-0.000103954
-5.88183e-07
0.000104437
-2.30861e-06
-0.000102565
-6.09734e-07
4.88341e-07
0.000102877
6.53753e-07
7.78778e-07
-5.47469e-07
-2.14013e-06
-7.54791e-07
3.90192e-07
9.09105e-07
1.54955e-06
-9.33191e-05
9.49384e-05
-9.41294e-05
4.43109e-07
9.46261e-05
1.41306e-06
3.79895e-07
5.28236e-11
-0.000102499
-6.47592e-07
0.000102594
1.04103e-06
-0.000102499
-6.47706e-07
-4.8812e-07
0.000102594
1.04108e-06
4.11583e-11
-9.07923e-07
1.34994e-06
-9.08072e-07
-3.89978e-07
1.35004e-06
5.3559e-11
-9.61294e-05
9.59249e-05
-9.61291e-05
-4.42912e-07
9.59244e-05
4.35416e-11
-3.79708e-07
-8.44067e-07
-0.000102563
-6.09862e-07
0.000102875
6.54074e-07
-0.00010395
-5.88491e-07
1.56818e-06
0.000104434
-2.30757e-06
-7.78617e-07
-7.55053e-07
9.09563e-07
-5.47929e-07
1.35673e-06
-2.13883e-06
-1.54903e-06
-9.41275e-05
9.46237e-05
-9.33133e-05
-3.75692e-06
9.49327e-05
-1.41252e-06
-3.81631e-06
1.12781e-06
-0.000108238
1.9528e-05
0.00010828
-1.91293e-05
-0.000117937
-1.84009e-05
0.000116297
2.11682e-05
7.20093e-07
1.92945e-05
-1.88001e-05
-1.85751e-05
2.13666e-05
1.46744e-05
-0.000101123
0.00010222
-0.000125328
0.000121602
1.37974e-05
-1.625e-06
-0.00011501
-1.78982e-05
0.00011399
2.05436e-05
-0.00010829
1.95973e-05
-1.91636e-06
0.000108288
-1.93039e-05
-1.40238e-06
-1.7929e-05
2.06166e-05
1.93627e-05
-1.73425e-06
-1.90373e-05
-1.56118e-05
-0.000118734
0.000116448
-0.000102924
3.5111e-06
0.000103398
-1.50657e-05
3.60014e-06
8.37307e-07
-0.000104864
-6.55924e-07
0.000105253
-2.48693e-06
-0.000103233
-4.83612e-07
6.02111e-07
0.000103622
3.2922e-07
8.47845e-07
-6.22344e-07
-2.38626e-06
-5.20238e-07
5.50335e-07
4.61983e-07
1.69925e-06
-9.62939e-05
9.74498e-05
-9.52419e-05
5.28534e-07
9.5929e-05
1.62232e-06
4.86291e-07
6.70954e-11
-0.000102798
-2.92003e-07
0.000103089
6.03926e-07
-0.000102798
-2.92029e-07
-6.01915e-07
0.000103088
6.03898e-07
6.01341e-11
-4.38434e-07
7.8438e-07
-4.38505e-07
-5.50123e-07
7.84388e-07
6.19184e-11
-9.59727e-05
9.62092e-05
-9.5972e-05
-5.28342e-07
9.62084e-05
5.83769e-11
-4.86096e-07
-8.3734e-07
-0.000103231
-4.835e-07
0.00010362
3.29298e-07
-0.000104861
-6.5607e-07
1.91558e-06
0.00010525
-2.48623e-06
-8.47816e-07
-5.20228e-07
4.62161e-07
-6.22555e-07
1.73346e-06
-2.38541e-06
-1.69882e-06
-9.52392e-05
9.59262e-05
-9.62884e-05
-3.51115e-06
9.74446e-05
-1.62185e-06
-3.60009e-06
1.62427e-06
-0.000108287
1.95946e-05
0.000108285
-1.93015e-05
-0.000115012
-1.78948e-05
0.000113991
2.05398e-05
1.40158e-06
1.93596e-05
-1.90346e-05
-1.79257e-05
2.06126e-05
1.56082e-05
-0.000102918
0.000103393
-0.000118738
0.000116451
1.50618e-05
-1.89004e-06
-0.000113188
-1.75559e-05
0.000112559
2.0075e-05
-0.000108303
1.96275e-05
-2.17839e-06
0.000108339
-1.9375e-05
-1.76011e-06
-1.75274e-05
2.00891e-05
1.9414e-05
-2.03635e-06
-1.91532e-05
-1.61007e-05
-0.000114659
0.000113204
-0.000103717
3.27524e-06
0.000103969
-1.5739e-05
3.3557e-06
7.43763e-07
-0.000105613
-6.8231e-07
0.000105956
-2.58302e-06
-0.000104026
-4.65859e-07
6.44727e-07
0.000104443
1.47462e-07
7.89221e-07
-6.69756e-07
-2.51558e-06
-4.63249e-07
6.2388e-07
2.2477e-07
1.75397e-06
-9.84169e-05
9.92559e-05
-9.66342e-05
5.74442e-07
9.73478e-05
1.71887e-06
5.50416e-07
7.72468e-11
-0.000103434
-1.05678e-07
0.000103825
3.59061e-07
-0.000103434
-1.05627e-07
-6.44578e-07
0.000103825
3.58982e-07
7.26473e-11
-1.80546e-07
4.58614e-07
-1.80534e-07
-6.23708e-07
4.58561e-07
6.36457e-11
-9.6579e-05
9.70476e-05
-9.65781e-05
-5.74269e-07
9.70468e-05
6.2232e-11
-5.50236e-07
-7.43903e-07
-0.000104024
-4.65582e-07
0.000104442
1.47366e-07
-0.00010561
-6.82375e-07
2.17765e-06
0.000105954
-2.58255e-06
-7.8931e-07
-4.63055e-07
2.24762e-07
-6.69861e-07
2.0356e-06
-2.51501e-06
-1.75365e-06
-9.66314e-05
9.73452e-05
-9.84121e-05
-3.2754e-06
9.92515e-05
-1.71849e-06
-3.3558e-06
1.88946e-06
-0.000108301
1.96252e-05
0.000108337
-1.9373e-05
-0.00011319
-1.75532e-05
0.00011256
2.00719e-05
1.75945e-06
1.94115e-05
-1.9151e-05
-1.75248e-05
2.00859e-05
1.60978e-05
-0.000103713
0.000103965
-0.000114662
0.000113207
1.57358e-05
-2.03219e-06
-0.000112071
-1.72691e-05
0.000111701
1.96711e-05
-0.000108405
1.95871e-05
-2.36125e-06
0.000108495
-1.9348e-05
-1.95336e-06
-1.723e-05
1.96715e-05
1.94183e-05
-2.25614e-06
-1.91812e-05
-1.63261e-05
-0.000112056
0.000111113
-0.000104166
3.07202e-06
0.000104355
-1.60822e-05
3.13869e-06
6.33066e-07
-0.000106291
-6.71631e-07
0.00010662
-2.65181e-06
-0.000104862
-4.72598e-07
6.46283e-07
0.000105288
3.34649e-08
6.75277e-07
-6.7404e-07
-2.59256e-06
-4.65559e-07
6.42266e-07
7.97452e-08
1.7468e-06
-9.99808e-05
0.000100634
-9.80422e-05
5.90157e-07
9.87262e-05
1.7397e-06
5.79774e-07
7.76523e-11
-0.000104242
-1.71159e-08
0.000104683
2.21882e-07
-0.000104241
-1.69845e-08
-6.46146e-07
0.000104683
2.21722e-07
7.59172e-11
-5.31106e-08
2.78862e-07
-5.30324e-08
-6.4214e-07
2.78754e-07
6.04395e-11
-9.75742e-05
9.81472e-05
-9.75735e-05
-5.89983e-07
9.81465e-05
6.31121e-11
-5.79608e-07
-6.33179e-07
-0.000104861
-4.72151e-07
0.000105287
3.31543e-08
-0.000106289
-6.71423e-07
2.36053e-06
0.000106618
-2.6516e-06
-6.75465e-07
-4.65191e-07
7.95054e-08
-6.74037e-07
2.25543e-06
-2.59219e-06
-1.74658e-06
-9.80398e-05
9.87243e-05
-9.99769e-05
-3.07231e-06
0.000100631
-1.73943e-06
-3.1389e-06
2.03177e-06
-0.000108403
1.95851e-05
0.000108493
-1.93462e-05
-0.000112072
-1.72671e-05
0.000111702
1.96689e-05
1.95285e-06
1.94161e-05
-1.91794e-05
-1.7228e-05
1.96691e-05
1.63236e-05
-0.000104163
0.000104352
-0.000112059
0.000111115
1.60795e-05
-2.10605e-06
-0.000111425
-1.69989e-05
0.000111235
1.92951e-05
-0.000108613
1.948e-05
-2.48079e-06
0.000108755
-1.92467e-05
-2.0551e-06
-1.69537e-05
1.92848e-05
1.93393e-05
-2.40224e-06
-1.91108e-05
-1.63915e-05
-0.000110374
0.000109766
-0.000104527
2.90182e-06
0.000104714
-1.62138e-05
2.95384e-06
5.55336e-07
-0.000106945
-6.51318e-07
0.000107271
-2.71111e-06
-0.000105713
-4.70532e-07
6.29847e-07
0.000106142
-3.3464e-08
5.87823e-07
-6.58878e-07
-2.65591e-06
-4.68243e-07
6.33205e-07
-1.63269e-09
1.70407e-06
-0.000101218
0.000101764
-9.93852e-05
5.85959e-07
0.000100033
1.71144e-06
5.84167e-07
1.10964e-10
-0.000105132
3.16705e-08
0.000105593
1.37212e-07
-0.000105131
3.19398e-08
-6.29666e-07
0.000105592
1.36967e-07
8.3013e-11
1.13208e-08
1.73266e-07
1.14841e-08
-6.33062e-07
1.73057e-07
1.31443e-10
-9.87426e-05
9.93601e-05
-9.8742e-05
-5.85563e-07
9.93596e-05
7.50027e-11
-5.83951e-07
-5.55461e-07
-0.000105712
-4.69826e-07
0.000106141
-3.39743e-08
-0.000106943
-6.51115e-07
2.48005e-06
0.000107269
-2.71082e-06
-5.87954e-07
-4.67648e-07
-2.10013e-09
-6.58444e-07
2.40151e-06
-2.65589e-06
-1.70342e-06
-9.93839e-05
0.000100032
-0.000101216
-2.90197e-06
0.000101763
-1.71119e-06
-2.95424e-06
2.10569e-06
-0.000108611
1.94753e-05
0.000108753
-1.92424e-05
-0.000111426
-1.6994e-05
0.000111235
1.92903e-05
2.05474e-06
1.93372e-05
-1.91091e-05
-1.69522e-05
1.92832e-05
1.63868e-05
-0.000104523
0.00010471
-0.000110374
0.000109767
1.62114e-05
-2.13853e-06
-0.000111109
-1.67147e-05
0.000111049
1.89131e-05
-0.000108923
1.93072e-05
-2.55533e-06
0.000109112
-1.90794e-05
-2.10457e-06
-1.66755e-05
1.8906e-05
1.91928e-05
-2.49543e-06
-1.897e-05
-1.6336e-05
-0.0001093
0.000108921
-0.000104898
2.75813e-06
0.000105111
-1.62091e-05
2.79882e-06
4.85706e-07
-0.0001076
-6.18124e-07
0.000107935
-2.75749e-06
-0.000106569
-4.6348e-07
6.0259e-07
0.000106999
-8.3203e-08
5.13806e-07
-6.31303e-07
-2.70724e-06
-4.62779e-07
6.10869e-07
-6.14629e-08
1.64672e-06
-0.000102272
0.000102765
-0.000100656
5.70119e-07
0.00010127
1.65967e-06
5.73246e-07
9.3167e-11
-0.000106052
5.64079e-08
0.000106519
7.93507e-08
-0.000106052
5.64816e-08
-6.02389e-07
0.000106519
7.92614e-08
1.05192e-10
4.60777e-08
1.05066e-07
4.6277e-08
-6.10663e-07
1.04861e-07
1.13232e-10
-9.99793e-05
0.000100606
-9.99789e-05
-5.6972e-07
0.000100605
9.09147e-11
-5.72882e-07
-4.8583e-07
-0.000106568
-4.63205e-07
0.000106998
-8.31515e-08
-0.000107599
-6.20347e-07
2.5549e-06
0.000107934
-2.75506e-06
-5.13956e-07
-4.62167e-07
-6.1786e-08
-6.31969e-07
2.49471e-06
-2.70618e-06
-1.64535e-06
-0.000100656
0.000101268
-0.000102272
-2.75766e-06
0.000102764
-1.65878e-06
-2.7993e-06
2.13824e-06
-0.000108921
1.9294e-05
0.00010911
-1.90665e-05
-0.000111109
-1.66971e-05
0.000111049
1.8896e-05
2.10413e-06
1.91845e-05
-1.89624e-05
-1.66668e-05
1.88968e-05
1.63244e-05
-0.000104896
0.000105108
-0.000109299
0.000108927
1.61992e-05
-2.14439e-06
-0.000111034
-1.64038e-05
0.000111071
1.85119e-05
-0.000109324
1.90768e-05
-2.59602e-06
0.000109553
-1.8855e-05
-2.12226e-06
-1.6383e-05
1.85203e-05
1.8994e-05
-2.55171e-06
-1.87764e-05
-1.62006e-05
-0.000108652
0.000108449
-0.000105326
2.63174e-06
0.000105571
-1.6114e-05
2.66514e-06
4.2631e-07
-0.000108275
-5.79816e-07
0.000108621
-2.78862e-06
-0.000107425
-4.52374e-07
5.709e-07
0.000107855
-1.22019e-07
4.5018e-07
-5.94869e-07
-2.74654e-06
-4.54223e-07
5.80597e-07
-1.01867e-07
1.58504e-06
-0.000103236
0.000103703
-0.000101861
5.4883e-07
0.000102445
1.59969e-06
5.54237e-07
-4.0534e-11
-0.000106982
6.86948e-08
0.000107449
3.499e-08
-0.000106981
6.86451e-08
-5.70987e-07
0.000107449
3.5001e-08
6.7884e-11
6.25768e-08
5.53915e-08
6.25308e-08
-5.80486e-07
5.54295e-08
-2.03437e-10
-0.000101222
0.00010184
-0.000101222
-5.49187e-07
0.000101839
1.37481e-10
-5.5378e-07
-4.26618e-07
-0.000107424
-4.52586e-07
0.000107854
-1.21727e-07
-0.000108274
-5.82445e-07
2.59574e-06
0.00010862
-2.78628e-06
-4.50444e-07
-4.54437e-07
-1.01423e-07
-5.99008e-07
2.55118e-06
-2.74278e-06
-1.58512e-06
-0.000101858
0.000102442
-0.000103232
-2.63358e-06
0.000103698
-1.59846e-06
-2.6662e-06
2.14523e-06
-0.000109323
1.90684e-05
0.000109553
-1.88478e-05
-0.000111036
-1.63907e-05
0.000111072
1.84998e-05
2.12193e-06
1.89744e-05
-1.87582e-05
-1.63616e-05
1.84965e-05
1.619e-05
-0.000105327
0.000105572
-0.000108654
0.000108453
1.60886e-05
-2.13461e-06
-0.00011114
-1.60903e-05
0.000111251
1.8114e-05
-0.000109803
1.88149e-05
-2.61235e-06
0.000110067
-1.86014e-05
-2.1198e-06
-1.60746e-05
1.81249e-05
1.87508e-05
-2.57948e-06
-1.85404e-05
-1.60078e-05
-0.000108324
0.000108242
-0.000105821
2.52426e-06
0.000106103
-1.59498e-05
2.55129e-06
3.77137e-07
-0.000108973
-5.40763e-07
0.000109331
-2.80692e-06
-0.000108281
-4.36992e-07
5.40503e-07
0.000108711
-1.56702e-07
3.96682e-07
-5.57426e-07
-2.77071e-06
-4.41181e-07
5.49705e-07
-1.38293e-07
1.52619e-06
-0.000104156
0.000104614
-0.000103011
5.26434e-07
0.000103574
1.54042e-06
5.32521e-07
-1.69242e-10
-0.000107911
7.73221e-08
0.000108377
-2.62036e-09
-0.00010791
7.72678e-08
-5.4087e-07
0.000108376
-2.6248e-09
-9.60187e-11
7.22858e-08
1.57308e-08
7.23315e-08
-5.49881e-07
1.56483e-08
-5.32865e-10
-0.000102445
0.00010305
-0.000102444
-5.27658e-07
0.000103049
-3.24503e-10
-5.3306e-07
-3.77535e-07
-0.00010828
-4.37401e-07
0.000108711
-1.56501e-07
-0.000108972
-5.42553e-07
2.61209e-06
0.000109331
-2.80567e-06
-3.96879e-07
-4.41089e-07
-1.38383e-07
-5.57507e-07
2.57931e-06
-2.77052e-06
-1.52802e-06
-0.000103008
0.000103571
-0.000104153
-2.52825e-06
0.00010461
-1.54076e-06
-2.55229e-06
2.13633e-06
-0.000109803
1.88141e-05
0.000110067
-1.8603e-05
-0.000111139
-1.60879e-05
0.00011125
1.81133e-05
2.12145e-06
1.8752e-05
-1.85433e-05
-1.60716e-05
1.81258e-05
1.60017e-05
-0.000105819
0.000106103
-0.000108334
0.000108248
1.59528e-05
-2.1145e-06
-0.000111382
-1.57679e-05
0.000111546
1.77184e-05
-0.000110346
1.85266e-05
-2.60902e-06
0.000110635
-1.83211e-05
-2.10487e-06
-1.57665e-05
1.77398e-05
1.84842e-05
-2.58559e-06
-1.82825e-05
-1.57913e-05
-0.000108227
0.000108251
-0.000106384
2.42873e-06
0.000106691
-1.57524e-05
2.45086e-06
3.36871e-07
-0.000109693
-5.03455e-07
0.00011006
-2.80927e-06
-0.000109137
-4.19618e-07
5.13217e-07
0.000109566
-1.85508e-07
3.52546e-07
-5.17915e-07
-2.78278e-06
-4.24416e-07
5.21133e-07
-1.70286e-07
1.47177e-06
-0.000105063
0.000105516
-0.000104123
5.05299e-07
0.00010467
1.48409e-06
5.10574e-07
-9.46593e-12
-0.000108835
8.29442e-08
0.000109294
-2.95138e-08
-0.000108835
8.30038e-08
-5.13276e-07
0.000109294
-2.95923e-08
-1.70094e-10
7.94941e-08
-1.6231e-08
7.93973e-08
-5.21505e-07
-1.62056e-08
-3.57646e-10
-0.00010364
0.000104229
-0.00010364
-5.06009e-07
0.000104228
-6.80052e-10
-5.12166e-07
-3.36829e-07
-0.000109137
-4.19641e-07
0.000109566
-1.85712e-07
-0.000109694
-5.027e-07
2.60891e-06
0.000110061
-2.81017e-06
-3.52932e-07
-4.25058e-07
-1.69951e-07
-5.20428e-07
2.58544e-06
-2.78108e-06
-1.47285e-06
-0.000104121
0.000104668
-0.000105059
-2.43005e-06
0.000105513
-1.48654e-06
-2.45553e-06
2.11508e-06
-0.000110347
1.85299e-05
0.000110637
-1.83259e-05
-0.000111383
-1.57742e-05
0.000111548
1.77247e-05
2.1061e-06
1.84822e-05
-1.82825e-05
-1.57651e-05
1.7738e-05
1.57904e-05
-0.000106387
0.000106696
-0.000108226
0.000108242
1.57431e-05
-2.08829e-06
-0.000111724
-1.54462e-05
0.000111926
1.73317e-05
-0.000110935
1.82139e-05
-2.59293e-06
0.000111241
-1.80156e-05
-2.08058e-06
-1.54379e-05
1.73412e-05
1.81768e-05
-2.57476e-06
-1.79823e-05
-1.55339e-05
-0.000108326
0.000108413
-0.000106995
2.34695e-06
0.000107328
-1.55127e-05
2.36034e-06
3.04896e-07
-0.000110429
-4.72112e-07
0.0001108
-2.79698e-06
-0.000109989
-4.03158e-07
4.89188e-07
0.000110414
-2.05461e-07
3.16665e-07
-4.83916e-07
-2.77652e-06
-4.0722e-07
4.95474e-07
-1.94706e-07
1.42229e-06
-0.000105961
0.000106414
-0.000105204
4.86139e-07
0.000105737
1.43143e-06
4.90457e-07
1.70904e-10
-0.000109746
8.64189e-08
0.000110197
-4.90376e-08
-0.000109746
8.65952e-08
-4.88922e-07
0.000110198
-4.91932e-08
1.08391e-10
8.40826e-08
-4.01648e-08
8.42172e-08
-4.95327e-07
-4.03072e-08
1.8704e-10
-0.000104803
0.000105376
-0.000104803
-4.85864e-07
0.000105376
5.98378e-11
-4.90434e-07
-3.04387e-07
-0.00010999
-4.02789e-07
0.000110414
-2.06138e-07
-0.00011043
-4.6783e-07
2.59302e-06
0.000110801
-2.80053e-06
-3.16385e-07
-4.06929e-07
-1.95319e-07
-4.80595e-07
2.57459e-06
-2.77955e-06
-1.42294e-06
-0.000105203
0.000105737
-0.000105961
-2.34536e-06
0.000106416
-1.4324e-06
-2.36062e-06
2.08857e-06
-0.000110936
1.82358e-05
0.000111242
-1.80368e-05
-0.000111724
-1.54696e-05
0.000111926
1.73561e-05
2.081e-06
1.81912e-05
-1.79974e-05
-1.54549e-05
1.73597e-05
1.55603e-05
-0.000107001
0.000107331
-0.000108313
0.000108403
1.55256e-05
-2.05536e-06
-0.000112135
-1.51209e-05
0.000112361
1.69508e-05
-0.000111555
1.78681e-05
-2.56267e-06
0.000111869
-1.76752e-05
-2.05087e-06
-1.51168e-05
1.69587e-05
1.7846e-05
-2.55082e-06
-1.76596e-05
-1.52386e-05
-0.00010852
0.000108638
-0.000107662
2.275e-06
0.000108016
-1.5224e-05
2.28781e-06
2.795e-07
-0.000111172
-4.46241e-07
0.00011154
-2.76472e-06
-0.00011083
-3.89557e-07
4.67617e-07
0.000111244
-2.12729e-07
2.8872e-07
-4.55999e-07
-2.75467e-06
-3.92142e-07
4.73001e-07
-2.08646e-07
1.37639e-06
-0.00010686
0.000107313
-0.000106258
4.6799e-07
0.000106777
1.38509e-06
4.71953e-07
1.41628e-10
-0.000110638
8.56442e-08
0.000111076
-5.59351e-08
-0.000110638
8.56444e-08
-4.67247e-07
0.000111076
-5.59263e-08
1.4104e-10
8.56955e-08
-5.37611e-08
8.5785e-08
-4.72709e-07
-5.38522e-08
5.99626e-11
-0.000105933
0.000106487
-0.000105933
-4.67729e-07
0.000106487
4.99504e-12
-4.72128e-07
-2.787e-07
-0.00011083
-3.89668e-07
0.000111244
-2.12671e-07
-0.000111171
-4.44918e-07
2.56345e-06
0.00011154
-2.76534e-06
-2.88076e-07
-3.91993e-07
-2.0902e-07
-4.5267e-07
2.5513e-06
-2.75713e-06
-1.37537e-06
-0.000106259
0.000106777
-0.000106863
-2.27001e-06
0.000107312
-1.38581e-06
-2.28571e-06
2.05451e-06
-0.000111554
1.78819e-05
0.000111867
-1.76863e-05
-0.000112134
-1.51326e-05
0.000112361
1.69607e-05
2.05086e-06
1.78704e-05
-1.76821e-05
-1.51395e-05
1.69822e-05
1.52611e-05
-0.000107661
0.000108011
-0.000108519
0.000108648
1.52554e-05
-2.01916e-06
-0.000112583
-1.48075e-05
0.000112818
1.65919e-05
-0.000112181
1.75184e-05
-2.52621e-06
0.000112488
-1.7318e-05
-2.01648e-06
-1.47976e-05
1.65917e-05
1.75034e-05
-2.51745e-06
-1.73145e-05
-1.49584e-05
-0.000108793
0.000108944
-0.000108354
2.20248e-06
0.000108712
-1.49526e-05
2.21306e-06
2.58854e-07
-0.000111903
-4.30256e-07
0.000112258
-2.70968e-06
-0.000111646
-3.82191e-07
4.48449e-07
0.000112041
-2.02449e-07
2.65798e-07
-4.33818e-07
-2.71205e-06
-3.81115e-07
4.52713e-07
-2.07896e-07
1.33138e-06
-0.000107752
0.000108193
-0.00010728
4.51079e-07
0.000107778
1.33936e-06
4.54468e-07
-2.25281e-10
-0.0001115
7.80723e-08
0.000111916
-4.53893e-08
-0.000111499
7.78716e-08
-4.48881e-07
0.000111915
-4.52638e-08
-2.48283e-11
8.19616e-08
-5.26561e-08
8.18331e-08
-4.52668e-07
-5.25612e-08
-7.15937e-10
-0.000107024
0.000107553
-0.000107023
-4.5288e-07
0.000107553
-3.07079e-10
-4.55016e-07
-2.59207e-07
-0.000111646
-3.82907e-07
0.000112041
-2.02094e-07
-0.000111902
-4.30026e-07
2.52541e-06
0.000112257
-2.71006e-06
-2.65418e-07
-3.81586e-07
-2.07566e-07
-4.3369e-07
2.51779e-06
-2.71198e-06
-1.33446e-06
-0.00010728
0.000107778
-0.000107751
-2.20683e-06
0.000108193
-1.33955e-06
-2.21176e-06
2.0204e-06
-0.000112179
1.75315e-05
0.000112486
-1.73332e-05
-0.000112585
-1.48224e-05
0.000112821
1.66069e-05
2.01587e-06
1.75125e-05
-1.73225e-05
-1.48074e-05
1.65986e-05
1.49645e-05
-0.000108352
0.000108713
-0.0001088
0.000108942
1.49598e-05
-1.9816e-06
-0.000113044
-1.4489e-05
0.000113266
1.62493e-05
-0.000112783
1.71388e-05
-2.48027e-06
0.00011307
-1.69276e-05
-1.97958e-06
-1.44992e-05
1.62522e-05
1.71554e-05
-2.47742e-06
-1.69527e-05
-1.46612e-05
-0.000109108
0.00010928
-0.000109055
2.13852e-06
0.000109394
-1.46634e-05
2.14844e-06
2.43462e-07
-0.000112601
-4.2913e-07
0.000112931
-2.62453e-06
-0.00011242
-3.84732e-07
4.32049e-07
0.000112785
-1.69106e-07
2.48029e-07
-4.24119e-07
-2.64429e-06
-3.78392e-07
4.35224e-07
-1.86986e-07
1.29155e-06
-0.000108619
0.000109037
-0.000108259
4.37733e-07
0.000108728
1.2982e-06
4.39795e-07
5.22622e-11
-0.000112313
5.9961e-08
0.000112696
-1.16528e-08
-0.000112312
5.9867e-08
-4.32013e-07
0.000112696
-1.15565e-08
-1.3206e-10
6.97619e-08
-3.13789e-08
6.96384e-08
-4.35522e-07
-3.12726e-08
2.96328e-10
-0.000108063
0.000108561
-0.000108063
-4.3728e-07
0.000108561
-2.28649e-10
-4.40407e-07
-2.43274e-07
-0.00011242
-3.8518e-07
0.000112785
-1.69008e-07
-0.000112601
-4.28409e-07
2.47988e-06
0.000112931
-2.6254e-06
-2.48273e-07
-3.78842e-07
-1.86772e-07
-4.23346e-07
2.47663e-06
-2.64477e-06
-1.29213e-06
-0.000108258
0.000108728
-0.000108619
-2.1392e-06
0.000109037
-1.29923e-06
-2.14804e-06
1.98143e-06
-0.00011278
1.71366e-05
0.00011307
-1.69283e-05
-0.000113049
-1.44893e-05
0.00011327
1.62501e-05
1.98096e-06
1.71603e-05
-1.69583e-05
-1.45044e-05
1.62573e-05
1.46548e-05
-0.000109054
0.000109396
-0.000109109
0.000109275
1.4671e-05
-1.94605e-06
-0.000113464
-1.41638e-05
0.000113648
1.59254e-05
-0.000113351
1.67183e-05
-2.42972e-06
0.000113615
-1.64981e-05
-1.9441e-06
-1.41737e-05
1.59199e-05
1.67489e-05
-2.42868e-06
-1.65455e-05
-1.43306e-05
-0.000109449
0.000109616
-0.000109709
2.08445e-06
0.000110012
-1.43428e-05
2.09107e-06
2.32117e-07
-0.000113245
-4.50482e-07
0.000113539
-2.50494e-06
-0.000113128
-3.99427e-07
4.17851e-07
0.000113451
-1.0952e-07
2.35325e-07
-4.35076e-07
-2.54363e-06
-3.87066e-07
4.20325e-07
-1.41063e-07
1.25375e-06
-0.000109433
0.000109813
-0.000109174
4.25193e-07
0.000109603
1.26043e-06
4.27077e-07
6.10217e-11
-0.000113055
2.45237e-08
0.000113396
5.25478e-08
-0.000113055
2.45352e-08
-4.17695e-07
0.000113396
5.25243e-08
7.96955e-11
4.48974e-08
1.62202e-08
4.48358e-08
-4.20169e-07
1.62612e-08
1.44313e-10
-0.000109032
0.000109482
-0.000109033
-4.24861e-07
0.000109482
2.54813e-10
-4.26752e-07
-2.31525e-07
-0.000113128
-3.99395e-07
0.000113451
-1.09871e-07
-0.000113246
-4.48567e-07
2.43077e-06
0.000113539
-2.50655e-06
-2.34784e-07
-3.87334e-07
-1.412e-07
-4.33551e-07
2.42939e-06
-2.54515e-06
-1.25286e-06
-0.000109175
0.000109603
-0.000109432
-2.07967e-06
0.000109811
-1.26076e-06
-2.08926e-06
1.94271e-06
-0.000113353
1.67223e-05
0.000113616
-1.64976e-05
-0.000113463
-1.41651e-05
0.000113646
1.5925e-05
1.94295e-06
1.67533e-05
-1.65496e-05
-1.41738e-05
1.59235e-05
1.43461e-05
-0.000109705
0.000110002
-0.000109456
0.000109637
1.43552e-05
-1.90138e-06
-0.000113813
-1.38933e-05
0.000113965
1.56428e-05
-0.000113847
1.63165e-05
-2.37771e-06
0.000114041
-1.60345e-05
-1.90456e-06
-1.38732e-05
1.56128e-05
1.6341e-05
-2.3781e-06
-1.60991e-05
-1.4019e-05
-0.000109772
0.000109898
-0.00011029
2.02506e-06
0.000110562
-1.40293e-05
2.03403e-06
2.22919e-07
-0.000113806
-4.82617e-07
0.000114039
-2.35162e-06
-0.000113747
-4.28324e-07
4.05567e-07
0.000114013
-2.0907e-08
2.24713e-07
-4.62096e-07
-2.4074e-06
-4.07096e-07
4.07219e-07
-7.07493e-08
1.21307e-06
-0.000110164
0.000110494
-0.000110002
4.12019e-07
0.000110375
1.2207e-06
4.14577e-07
-2.53245e-10
-0.000113706
-2.38471e-08
0.000113986
1.49222e-07
-0.000113706
-2.45329e-08
-4.05682e-07
0.000113986
1.49301e-07
1.17062e-11
1.94247e-09
9.57906e-08
1.94616e-09
-4.07207e-07
9.57858e-08
-1.93942e-10
-0.000109898
0.000110287
-0.000109899
-4.13197e-07
0.000110287
-1.45886e-11
-4.14824e-07
-2.23156e-07
-0.000113747
-4.28788e-07
0.000114014
-2.06803e-08
-0.000113805
-4.83702e-07
2.37748e-06
0.000114039
-2.35101e-06
-2.24664e-07
-4.07321e-07
-7.07272e-08
-4.61175e-07
2.37814e-06
-2.40846e-06
-1.21582e-06
-0.000110003
0.000110377
-0.000110164
-2.03212e-06
0.000110496
-1.22182e-06
-2.03608e-06
1.89874e-06
-0.000113849
1.63178e-05
0.000114044
-1.60339e-05
-0.00011381
-1.38957e-05
0.000113964
1.56409e-05
1.89993e-06
1.63459e-05
-1.61007e-05
-1.38794e-05
1.5615e-05
1.4004e-05
-0.000110283
0.000110565
-0.000109786
0.000109894
1.40285e-05
-1.85555e-06
-0.000114073
-1.3629e-05
0.000114146
1.54117e-05
-0.000114208
1.58769e-05
-2.32248e-06
0.000114338
-1.554e-05
-1.85798e-06
-1.36119e-05
1.53614e-05
1.59301e-05
-2.32589e-06
-1.56291e-05
-1.36902e-05
-0.000110013
0.000110074
-0.000110786
1.98048e-06
0.000110992
-1.3727e-05
1.97944e-06
2.20883e-07
-0.000114238
-5.39671e-07
0.000114395
-2.16043e-06
-0.000114244
-4.8978e-07
3.91194e-07
0.000114425
1.37652e-07
2.18439e-07
-5.05049e-07
-2.23846e-06
-4.50029e-07
3.95052e-07
4.30305e-08
1.18391e-06
-0.000110783
0.00011104
-0.000110708
4.00015e-07
0.000111002
1.18519e-06
4.01879e-07
-2.09797e-10
-0.000114224
-8.66208e-08
0.000114421
2.81484e-07
-0.000114225
-8.65677e-08
-3.91521e-07
0.000114421
2.81373e-07
-1.7391e-10
-5.13815e-08
2.08219e-07
-5.13984e-08
-3.95354e-07
2.08206e-07
-4.00585e-10
-0.000110638
0.000110952
-0.000110638
-4.00409e-07
0.000110952
-3.52469e-10
-4.02658e-07
-2.21337e-07
-0.000114244
-4.89579e-07
0.000114426
1.37516e-07
-0.000114239
-5.42649e-07
2.32239e-06
0.000114397
-2.15879e-06
-2.18876e-07
-4.5029e-07
4.32291e-08
-5.07437e-07
2.32564e-06
-2.23711e-06
-1.18268e-06
-0.00011071
0.000111003
-0.000110785
-1.97774e-06
0.000111038
-1.18644e-06
-1.98276e-06
1.85904e-06
-0.000114213
1.5862e-05
0.000114348
-1.55334e-05
-0.000114068
-1.36113e-05
0.000114135
1.54036e-05
1.86132e-06
1.59226e-05
-1.56279e-05
-1.36018e-05
1.53584e-05
1.36925e-05
-0.000110785
0.000110977
-0.000110012
0.000110093
1.37192e-05
-1.81582e-06
-0.000114163
-1.33981e-05
0.000114136
1.52404e-05
-0.000114426
1.54263e-05
-2.2645e-06
0.000114458
-1.50097e-05
-1.81821e-06
-1.33651e-05
1.51664e-05
1.54897e-05
-2.26892e-06
-1.51267e-05
-1.33857e-05
-0.000110117
0.000110105
-0.000111135
1.93495e-06
0.000111241
-1.34078e-05
1.93887e-06
2.22799e-07
-0.000114507
-6.18056e-07
0.000114563
-1.92527e-06
-0.000114558
-5.72227e-07
3.77784e-07
0.000114638
3.37037e-07
2.19599e-07
-5.71564e-07
-2.02839e-06
-5.24078e-07
3.79993e-07
2.30976e-07
1.15682e-06
-0.000111247
0.000111408
-0.000111247
3.89574e-07
0.000111442
1.15962e-06
3.90924e-07
-6.03931e-12
-0.000114567
-1.74266e-07
0.000114661
4.58239e-07
-0.000114567
-1.74e-07
-3.77804e-07
0.000114661
4.58039e-07
-1.28238e-10
-1.26108e-07
3.60025e-07
-1.25962e-07
-3.80181e-07
3.59853e-07
-9.49339e-11
-0.000111217
0.000111432
-0.000111217
-3.89464e-07
0.000111432
-3.18104e-10
-3.91235e-07
-2.2302e-07
-0.000114559
-5.71219e-07
0.000114639
3.36521e-07
-0.000114509
-6.17129e-07
2.2648e-06
0.000114563
-1.92531e-06
-2.20005e-07
-5.23432e-07
2.30611e-07
-5.73229e-07
2.26882e-06
-2.02712e-06
-1.15552e-06
-0.000111246
0.000111441
-0.000111246
-1.93631e-06
0.00011141
-1.1583e-06
-1.94e-06
1.81633e-06
-0.000114433
1.54341e-05
0.000114456
-1.50083e-05
-0.00011416
-1.34082e-05
0.000114145
1.52394e-05
1.81739e-06
1.54856e-05
-1.51191e-05
-1.3366e-05
1.51583e-05
1.33715e-05
-0.000111134
0.00011126
-0.000110116
0.000110079
1.33886e-05
-1.7809e-06
-0.000114051
-1.31753e-05
0.000113908
1.50983e-05
-0.000114434
1.49236e-05
-2.20379e-06
0.000114338
-1.44053e-05
-1.78156e-06
-1.31361e-05
1.50034e-05
1.50107e-05
-2.20884e-06
-1.45593e-05
-1.30435e-05
-0.000110048
0.000109916
-0.000111281
1.88756e-06
0.000111273
-1.30797e-05
1.89131e-06
2.25702e-07
-0.000114564
-7.25649e-07
0.000114498
-1.63717e-06
-0.00011466
-6.77089e-07
3.6642e-07
0.000114615
5.8092e-07
2.22074e-07
-6.63439e-07
-1.76909e-06
-6.14765e-07
3.6794e-07
4.47182e-07