/*--------------------------------*- C++ -*----------------------------------*\
  =========                 |
  \\      /  F ield         | OpenFOAM: The Open Source CFD Toolbox
   \\    /   O peration     | Website:  https://openfoam.org
    \\  /    A nd           | Version:  9
     \\/     M anipulation  |
\*---------------------------------------------------------------------------*/
FoamFile
{
    format      ascii;
    class       volScalarField;
    location    "4.1";
    object      nut;
}
// * * * * * * * * * * * * * * * * * * * * * * * * * * * * * * * * * * * * * //

dimensions      [0 2 -1 0 0 0 0];

internalField   nonuniform List<scalar> 
36360
(
0.0228685
0.0230307
0.0216947
0.0219136
0.00248809
0.00244542
0.00212553
0.00224122
0.0224842
0.0222376
0.0213536
0.0211289
0.00231179
0.00223379
0.00208455
0.00198993
0.0221526
0.0221515
0.0210634
0.0210623
0.0021986
0.00219854
0.0019497
0.00194963
0.0222343
0.0224789
0.0211254
0.0213478
0.00223361
0.00231151
0.00198973
0.00208423
0.0230232
0.0228582
0.0219053
0.021683
0.00244505
0.00248763
0.0022408
0.00212499
0.0240777
0.024342
0.0235406
0.023769
0.00267031
0.00260659
0.0026059
0.00254364
0.0238759
0.0236307
0.0232683
0.0230156
0.00247716
0.00240457
0.0024115
0.00233691
0.0235308
0.0235299
0.0229197
0.0229186
0.00237176
0.00237171
0.00230318
0.00230312
0.0236279
0.0238713
0.0230126
0.0232634
0.00240443
0.00247693
0.00233675
0.00241125
0.0243355
0.0240688
0.0237621
0.0235311
0.00260629
0.00266993
0.00254331
0.0026055
0.0249176
0.0251881
0.0245323
0.0248026
0.00275068
0.00268747
0.00271558
0.00265202
0.0247521
0.0245246
0.0243548
0.0241194
0.00256306
0.0024939
0.00252539
0.00245461
0.0244278
0.024427
0.0240198
0.0240189
0.00246267
0.00246263
0.00242263
0.00242258
0.0245221
0.024748
0.0241167
0.0243504
0.00249378
0.00256286
0.00245448
0.00252517
0.0251823
0.0249095
0.0247965
0.0245238
0.0026872
0.00275035
0.00265174
0.00271523
0.0255071
0.0257795
0.0252358
0.0255064
0.00280152
0.00273923
0.00277856
0.00271577
0.0253585
0.0251413
0.0250792
0.024857
0.00261826
0.00255162
0.00259324
0.00252548
0.0250519
0.0250512
0.0247637
0.0247629
0.00252162
0.00252158
0.00249491
0.00249487
0.025139
0.0253548
0.0248546
0.0250753
0.00255151
0.00261808
0.00252536
0.00259305
0.0257743
0.0254998
0.0255009
0.025228
0.002739
0.00280122
0.00271552
0.00277825
0.0259316
0.0262088
0.0257341
0.0260084
0.0028365
0.0027752
0.00282044
0.00275865
0.0257969
0.025587
0.0255921
0.0253789
0.00265674
0.00259187
0.00263906
0.00257337
0.0255038
0.0255031
0.0252928
0.0252921
0.00256279
0.00256276
0.00254387
0.00254383
0.025585
0.0257936
0.0253768
0.0255886
0.00259177
0.00265659
0.00257327
0.00263889
0.026204
0.0259248
0.0260034
0.025727
0.00277499
0.00283623
0.00275842
0.00282016
0.0262452
0.026528
0.0260982
0.0263779
0.00286157
0.00280116
0.00284996
0.00278911
0.026124
0.0259188
0.0259701
0.0257626
0.00268458
0.00262107
0.00267169
0.00260755
0.0258388
0.0258382
0.0256813
0.0256806
0.0025927
0.00259267
0.00257884
0.00257881
0.025917
0.0261209
0.0257607
0.0259669
0.00262099
0.00268444
0.00260745
0.00267154
0.0265236
0.026239
0.0263734
0.0260917
0.00280097
0.00286133
0.00278891
0.00284971
0.0264804
0.0267679
0.0263696
0.0266546
0.00287985
0.00282017
0.00287136
0.00281131
0.026371
0.0261692
0.0262542
0.0260507
0.00270509
0.00264266
0.00269556
0.00263263
0.026091
0.0260904
0.0259717
0.0259711
0.00261483
0.0026148
0.00260454
0.00260451
0.0261675
0.0263682
0.026049
0.0262513
0.00264258
0.00270496
0.00263254
0.00269542
0.026764
0.0264746
0.0266505
0.0263636
0.00282
0.00287962
0.00281113
0.00287113
0.0266572
0.0269482
0.0265736
0.0268629
0.00289312
0.00283409
0.00288694
0.0028276
0.0265574
0.0263584
0.0264691
0.0262687
0.00272022
0.00265867
0.00271319
0.00265122
0.0262812
0.0262807
0.026191
0.0261905
0.00263127
0.00263125
0.00262362
0.0026236
0.0263568
0.0265549
0.0262671
0.0264664
0.0026586
0.0027201
0.00265115
0.00271306
0.0269445
0.0266519
0.0268591
0.0265681
0.00283393
0.00289291
0.00282743
0.00288674
0.0267882
0.0270817
0.0267266
0.0270185
0.00290256
0.0028441
0.00289817
0.00283943
0.0266964
0.0264996
0.0266306
0.0264326
0.00273124
0.00267041
0.00272613
0.00266497
0.0264231
0.0264226
0.0263558
0.0263553
0.00264337
0.00264335
0.00263776
0.00263774
0.0264982
0.0266941
0.0264312
0.0266281
0.00267034
0.00273113
0.0026649
0.00272602
0.0270782
0.0267834
0.027015
0.0267215
0.00284395
0.00290242
0.00283929
0.002898
0.0268819
0.0271771
0.0268378
0.0271322
0.00290918
0.00285102
0.00290614
0.00284784
0.0267971
0.0266022
0.0267496
0.0265537
0.00273898
0.00267876
0.00273544
0.00267493
0.026526
0.0265256
0.0264773
0.0264769
0.00265203
0.00265201
0.00264805
0.00264803
0.026601
0.0267949
0.0265524
0.0267473
0.0026787
0.00273889
0.00267487
0.00273534
0.027174
0.0268774
0.0271288
0.0268333
0.00285089
0.00290897
0.00284769
0.00290593
0.0269449
0.0272411
0.0269158
0.0272112
0.00291327
0.00285537
0.00291148
0.00285342
0.0268658
0.0266727
0.0268337
0.0266397
0.00274404
0.00268432
0.00274178
0.00268183
0.0265967
0.0265963
0.0265635
0.0265631
0.00265786
0.00265785
0.00265524
0.00265522
0.0266716
0.0268638
0.0266385
0.0268316
0.00268427
0.00274395
0.00268177
0.00274169
0.0272381
0.0269406
0.0272082
0.0269114
0.00285525
0.00291309
0.0028533
0.00291125
0.0269818
0.027278
0.0269652
0.0272614
0.00291521
0.00285745
0.00291446
0.00285663
0.0269074
0.0267159
0.0268884
0.0266961
0.00274677
0.00268752
0.00274564
0.00268617
0.0266399
0.0266395
0.02662
0.0266196
0.0026613
0.00266129
0.00265983
0.00265982
0.0267148
0.0269055
0.026695
0.0268865
0.00268747
0.0027467
0.00268612
0.00274556
0.0272755
0.0269781
0.0272585
0.0269611
0.00285735
0.00291506
0.00285652
0.00291433
0.0269976
0.0272926
0.026991
0.0272866
0.00291512
0.00285751
0.00291527
0.00285763
0.0269256
0.0267353
0.026918
0.0267272
0.00274747
0.00268864
0.00274733
0.0026883
0.0266592
0.0266588
0.026651
0.0266507
0.00266265
0.00266264
0.0026622
0.00266218
0.0267341
0.0269237
0.0267261
0.0269161
0.0026886
0.00274741
0.00268825
0.00274726
0.0272904
0.0269939
0.0272841
0.0269874
0.00285744
0.00291509
0.00285755
0.00291521
0.0269927
0.0272866
0.0269969
0.0272913
0.00291367
0.00285611
0.00291455
0.00285698
0.0269227
0.0267337
0.0269259
0.0267363
0.00274649
0.00268799
0.00274718
0.0026885
0.0266575
0.0266571
0.0266599
0.0266595
0.00266218
0.00266217
0.0026626
0.00266258
0.0267326
0.0269208
0.0267351
0.026924
0.00268795
0.00274642
0.00268846
0.00274711
0.0272842
0.0269891
0.0272888
0.026993
0.00285604
0.0029136
0.0028569
0.00291446
0.0269674
0.0272599
0.0269809
0.0272739
0.00291052
0.00285296
0.0029122
0.00285464
0.0268989
0.0267116
0.0269119
0.0267238
0.00274378
0.0026856
0.00274529
0.00268697
0.0266357
0.0266353
0.0266477
0.0266474
0.00265997
0.00265995
0.00266126
0.00266125
0.0267105
0.026897
0.0267227
0.0269101
0.00268556
0.00274372
0.00268693
0.00274523
0.0272564
0.0269626
0.0272712
0.0269772
0.00285287
0.00291044
0.00285457
0.0029122
0.026925
0.0272155
0.0269479
0.027239
0.00290616
0.0028485
0.0029085
0.00285084
0.026857
0.0266712
0.0268792
0.0266926
0.00273962
0.00268168
0.00274185
0.0026838
0.0265956
0.0265952
0.0266168
0.0266164
0.00265618
0.00265617
0.00265824
0.00265823
0.0266701
0.0268552
0.0266915
0.0268773
0.00268164
0.00273955
0.00268376
0.00274179
0.0272131
0.0269212
0.0272358
0.026943
0.00284841
0.00290601
0.00285075
0.00290831
0.0268633
0.0271519
0.0268954
0.0271847
0.00290026
0.00284251
0.00290333
0.00284562
0.0267965
0.0266124
0.0268279
0.026643
0.00273398
0.00267627
0.00273695
0.00267914
0.0265375
0.0265371
0.0265677
0.0265673
0.00265088
0.00265087
0.0026537
0.00265369
0.0266114
0.0267949
0.0266419
0.0268263
0.00267622
0.00273391
0.00267909
0.00273688
0.0271507
0.0268611
0.027183
0.0268926
0.00284241
0.00290012
0.00284552
0.00290314
0.0267878
0.0270741
0.0268265
0.027114
0.00289307
0.0028352
0.00289679
0.00283898
0.0267192
0.0265362
0.026759
0.0265755
0.00272691
0.00266938
0.0027306
0.00267299
0.0264621
0.0264617
0.0265009
0.0265006
0.00264408
0.00264407
0.00264765
0.00264764
0.0265351
0.0267174
0.0265744
0.0267574
0.00266935
0.00272686
0.00267295
0.00273054
0.0270717
0.0267846
0.0271122
0.026824
0.00283513
0.00289303
0.00283889
0.00289671
0.0266928
0.0269768
0.0267416
0.0270265
0.00288434
0.00282633
0.00288882
0.00283088
0.0266231
0.0264418
0.0266725
0.0264903
0.00271835
0.002661
0.00272279
0.00266536
0.0263691
0.0263688
0.0264168
0.0264165
0.00263576
0.00263575
0.0026401
0.00264009
0.0264409
0.0266214
0.0264893
0.0266707
0.00266097
0.00271831
0.00266533
0.00272274
0.0269739
0.0266889
0.0270237
0.026738
0.00282627
0.00288425
0.00283082
0.00288878
0.0265814
0.026863
0.0266387
0.0269211
0.00287431
0.00281597
0.00287944
0.00282128
0.0265091
0.0263293
0.0265675
0.0263869
0.00270827
0.00265109
0.00271348
0.00265622
0.0262584
0.0262581
0.026315
0.0263148
0.00262589
0.00262588
0.002631
0.002631
0.0263285
0.0265076
0.0263861
0.026566
0.00265107
0.00270825
0.0026562
0.00271344
0.0268609
0.026578
0.0269188
0.0266351
0.00281595
0.0028742
0.00282125
0.00287939
0.0264512
0.0267313
0.0265177
0.0267984
0.00286262
0.00280408
0.00286866
0.00281017
0.0263761
0.0261979
0.0264441
0.0262651
0.00269664
0.0026396
0.00270263
0.00264553
0.026129
0.0261287
0.0261952
0.0261949
0.00261438
0.00261438
0.00262033
0.00262032
0.0261972
0.0263747
0.0262643
0.0264427
0.00263958
0.0026966
0.00264551
0.0027026
0.0267288
0.0264486
0.0267964
0.026515
0.00280401
0.00286255
0.00281013
0.00286847
0.0263025
0.0265802
0.0263788
0.0266573
0.00284924
0.00279045
0.00285602
0.00279741
0.0262233
0.0260456
0.0263014
0.0261236
0.00268334
0.00262644
0.00269017
0.00263322
0.0259776
0.0259773
0.0260551
0.0260548
0.00260129
0.00260128
0.00260803
0.00260803
0.0260448
0.0262214
0.0261228
0.0262998
0.00262642
0.00268332
0.0026332
0.00269015
0.0265761
0.0262971
0.0266539
0.0263747
0.00279042
0.00284917
0.00279736
0.00285601
0.0261295
0.0264072
0.026218
0.0264951
0.00283422
0.00277513
0.00284187
0.00278296
0.0260495
0.0258721
0.0261381
0.0259606
0.00266833
0.00261153
0.00267603
0.00261919
0.0258046
0.0258043
0.0258929
0.0258926
0.00258644
0.00258643
0.00259407
0.00259406
0.0258712
0.0260477
0.0259597
0.0261364
0.00261151
0.00266828
0.00261917
0.002676
0.0264051
0.0261266
0.0264923
0.0262138
0.00277504
0.00283402
0.00278289
0.00284179
0.0259377
0.0262157
0.0260355
0.0263133
0.00281738
0.00275792
0.00282602
0.00276671
0.0258546
0.025677
0.025954
0.0257765
0.00265148
0.00259479
0.00266012
0.00260338
0.0256098
0.0256095
0.0257091
0.0257088
0.00256976
0.00256976
0.00257832
0.00257831
0.0256761
0.0258527
0.0257755
0.025952
0.00259478
0.00265146
0.00260336
0.00266008
0.0262125
0.0259334
0.0263102
0.0260318
0.00275788
0.0028173
0.00276663
0.00282578
0.0257212
0.0260007
0.0258315
0.0261099
0.00279851
0.00273876
0.00280817
0.00274852
0.0256368
0.0254591
0.0257477
0.0255701
0.00263275
0.00257616
0.00264233
0.0025857
0.0253922
0.025392
0.025503
0.0255028
0.00255117
0.00255117
0.0025607
0.00256069
0.0254584
0.0256354
0.0255693
0.0257461
0.00257614
0.00263274
0.00258569
0.00264231
0.0259978
0.0257174
0.0261072
0.0258281
0.00273876
0.00279855
0.00274848
0.0028082
0.025479
0.0257617
0.0256027
0.0258831
0.00277786
0.00271768
0.00278834
0.0027284
0.0253956
0.0252175
0.0255185
0.0253405
0.00261208
0.00255553
0.00262265
0.00256608
0.025151
0.0251508
0.0252738
0.0252736
0.00253057
0.00253057
0.00254112
0.00254111
0.025217
0.0253945
0.0253399
0.0255174
0.00255552
0.0026121
0.00256608
0.00262266
0.0257597
0.025476
0.0258812
0.0255994
0.00271781
0.00277799
0.0027285
0.00278847
0.0252133
0.0255005
0.0253486
0.0256332
0.00275523
0.00269462
0.00276675
0.00270636
0.0251288
0.0249515
0.0252645
0.0250868
0.0025893
0.00253279
0.00260093
0.00254442
0.0248851
0.024885
0.0250203
0.0250202
0.00250786
0.00250785
0.00251948
0.00251947
0.0249511
0.0251281
0.0250863
0.0252635
0.00253278
0.00258927
0.0025444
0.00260093
0.0254996
0.0252119
0.0256315
0.025346
0.00269461
0.00275523
0.0027064
0.00276679
0.0249241
0.0252161
0.0250711
0.0253604
0.00273037
0.00266934
0.00274303
0.00268218
0.0248377
0.0246601
0.0249856
0.0248082
0.00256432
0.00250785
0.00257706
0.00252059
0.0245937
0.0245936
0.0247418
0.0247417
0.00248292
0.00248292
0.00249566
0.00249566
0.0246598
0.0248373
0.0248079
0.0249851
0.00250782
0.00256429
0.00252057
0.00257704
0.0252158
0.0249233
0.0253599
0.0250702
0.00266933
0.00273035
0.00268218
0.00274301
0.024609
0.0249059
0.0247692
0.0250634
0.0027031
0.00264165
0.00271702
0.00265577
0.0245207
0.0243422
0.0246818
0.0245037
0.00253702
0.00248055
0.00255096
0.00249449
0.0242757
0.0242755
0.0244372
0.0244371
0.00245564
0.00245563
0.00246957
0.00246956
0.0243418
0.02452
0.0245033
0.0246812
0.00248053
0.00253699
0.00249447
0.00255092
0.0249049
0.0246075
0.0250628
0.0247681
0.0026416
0.00270304
0.00265573
0.00271698
0.0242665
0.0245689
0.0244405
0.0247399
0.00267323
0.00261132
0.00268845
0.00262676
0.0241765
0.0239969
0.0243513
0.0241723
0.00250723
0.00245079
0.00252242
0.00246597
0.0239301
0.0239299
0.0241056
0.0241054
0.00242588
0.00242587
0.00244106
0.00244105
0.0239964
0.0241757
0.0241718
0.0243505
0.00245077
0.00250719
0.00246595
0.00252239
0.0245677
0.0242646
0.0247388
0.0244388
0.00261128
0.00267316
0.00262671
0.00268838
0.023896
0.0242046
0.0240841
0.0243893
0.00264079
0.00257841
0.00265729
0.00259514
0.0238044
0.0236234
0.0239933
0.0238129
0.00247487
0.00241845
0.00249135
0.00243493
0.0235561
0.0235559
0.0237459
0.0237458
0.00239353
0.00239352
0.00241002
0.00241001
0.0236229
0.0238036
0.0238125
0.0239924
0.00241843
0.00247484
0.00243491
0.00249132
0.0242033
0.0238941
0.0243881
0.0240822
0.00257836
0.00264073
0.00259509
0.00265722
0.0234969
0.0238122
0.0236994
0.0240111
0.00260582
0.00254293
0.00262358
0.00256094
0.0234034
0.0232204
0.0236069
0.0234249
0.00243989
0.00238342
0.0024577
0.00240127
0.0231525
0.0231523
0.0233573
0.0233571
0.00235846
0.00235846
0.00237633
0.00237633
0.0232199
0.0234026
0.0234244
0.0236061
0.0023834
0.00243986
0.00240125
0.00245767
0.023811
0.0234951
0.0240099
0.0236976
0.00254288
0.00260576
0.0025609
0.00262352
0.0230677
0.0233895
0.0232856
0.0236039
0.00256823
0.00250476
0.00258732
0.00252414
0.0229717
0.0227863
0.0231908
0.0230066
0.00240214
0.00234555
0.00242136
0.00236484
0.0227175
0.0227173
0.0229383
0.0229381
0.00232051
0.00232051
0.00233985
0.00233984
0.0227859
0.0229709
0.0230062
0.02319
0.00234553
0.00240211
0.00236482
0.00242132
0.0233883
0.0230659
0.0236027
0.0232838
0.00250471
0.00256817
0.00252409
0.00258726
0.022606
0.0229341
0.0228405
0.0231653
0.00252789
0.00246375
0.00254837
0.00248457
0.0225068
0.0223188
0.0227428
0.0225562
0.00236143
0.00230462
0.00238216
0.00232547
0.0222488
0.0222487
0.0224868
0.0224866
0.00227944
0.00227943
0.00230037
0.00230036
0.0223184
0.022506
0.0225557
0.022742
0.0023046
0.0023614
0.00232545
0.00238212
0.022933
0.0226043
0.0231641
0.0228387
0.0024637
0.00252783
0.00248452
0.00254831
0.0221085
0.0224426
0.0223614
0.0226923
0.00248456
0.00241967
0.00250658
0.00244206
0.0220058
0.0218147
0.0222604
0.0220709
0.00231748
0.00226029
0.00233987
0.00228289
0.0217433
0.0217432
0.0220002
0.022
0.0022349
0.00223489
0.00225761
0.00225761
0.0218143
0.022005
0.0220704
0.0222596
0.00226027
0.00231745
0.00228287
0.00233984
0.0224415
0.0221068
0.0226912
0.0223597
0.00241963
0.0024845
0.00244202
0.00250652
0.0215695
0.0219099
0.021844
0.022181
0.00243782
0.00237218
0.00246162
0.00239633
0.0214643
0.0212695
0.0217398
0.0215469
0.00226982
0.00221207
0.00229414
0.00223669
0.0211963
0.0211962
0.0214747
0.0214745
0.00218638
0.00218638
0.00221117
0.00221116
0.0212691
0.0214635
0.0215465
0.021739
0.00221205
0.00226979
0.00223668
0.0022941
0.0219088
0.0215679
0.0221799
0.0218423
0.00237214
0.00243776
0.00239629
0.00246156
0.0209816
0.0213286
0.0212816
0.0216252
0.00238693
0.00232066
0.00241291
0.00234693
0.0208751
0.0206758
0.0211756
0.0209787
0.00221763
0.00215912
0.00224436
0.00218625
0.0206007
0.0206006
0.0209044
0.0209043
0.0021331
0.00213309
0.00216039
0.00216038
0.0206754
0.0208744
0.0209782
0.0211749
0.0021591
0.00221759
0.00218623
0.00224432
0.0213275
0.02098
0.0216241
0.0212799
0.00232061
0.00238687
0.00234689
0.00241286
0.0203461
0.0206858
0.0206675
0.0210155
0.00233106
0.0022635
0.00235959
0.00229296
0.0202232
0.0200217
0.0205579
0.0203565
0.00215888
0.00209995
0.00218928
0.00213043
0.0199474
0.0199473
0.0202811
0.020281
0.00207395
0.00207394
0.00210431
0.0021043
0.0200212
0.0202225
0.0203561
0.0205572
0.00209993
0.00215885
0.00213041
0.00218925
0.0206847
0.0203445
0.0210145
0.0206659
0.00226346
0.00233101
0.00229292
0.00235954
0.0197412
0.019924
0.0200304
0.0203279
0.00226833
0.00218738
0.00230129
0.00223014
0.019474
0.0192949
0.0198624
0.0196666
0.0020879
0.00203267
0.00212547
0.00206737
0.0192323
0.0192322
0.0195964
0.0195962
0.00200841
0.0020084
0.00204191
0.0020419
0.0192945
0.0194733
0.0196662
0.0198617
0.00203265
0.00208787
0.00206735
0.00212545
0.019923
0.0197397
0.0203269
0.0200289
0.00218734
0.00226828
0.0022301
0.00230124
0.0576147
0.0574036
0.0545546
0.0545454
0.0419604
0.0418838
0.039659
0.0397411
0.0570481
0.0570645
0.054114
0.0540912
0.0415339
0.0415184
0.0393227
0.0392891
0.057158
0.057153
0.0541754
0.0541703
0.0415813
0.0415782
0.0393556
0.0393524
0.0570499
0.057025
0.0540762
0.0540902
0.0415093
0.0415192
0.0392797
0.0393074
0.0573736
0.0575781
0.0545143
0.0545165
0.0418643
0.0419353
0.0397205
0.0396323
0.061419
0.0612402
0.0597358
0.0595311
0.0445403
0.044528
0.0434052
0.0433593
0.0609489
0.0609889
0.0592083
0.0592388
0.0442532
0.0442541
0.0430499
0.043043
0.0610832
0.0610786
0.0593335
0.0593287
0.0443095
0.0443067
0.0431012
0.0430983
0.0609756
0.0609279
0.0592248
0.0591862
0.044246
0.0442401
0.0430343
0.043036
0.0612129
0.0613856
0.0595023
0.0597007
0.0445105
0.0445179
0.0433408
0.0433816
0.0640206
0.0638781
0.0628164
0.0626579
0.0462897
0.0463101
0.0454817
0.0454888
0.06363
0.0636803
0.0623904
0.0624356
0.0460763
0.0460877
0.0452373
0.0452436
0.0637723
0.0637682
0.0625282
0.0625239
0.0461406
0.0461381
0.0452968
0.0452942
0.0636683
0.063611
0.0624229
0.0623703
0.0460804
0.0460645
0.0452359
0.0452249
0.0638532
0.0639899
0.0626318
0.0627844
0.0462943
0.0462692
0.0454722
0.0454603
0.0659632
0.0658441
0.0650542
0.0649241
0.0475722
0.0476121
0.0469747
0.0470053
0.0656242
0.065681
0.064691
0.0647441
0.0474031
0.0474212
0.0467848
0.0467993
0.0657718
0.065768
0.064835
0.0648311
0.0474744
0.0474722
0.0468519
0.0468495
0.0656701
0.0656068
0.0647327
0.0646728
0.0474146
0.0473924
0.0467923
0.0467735
0.0658213
0.0659349
0.0649003
0.0650246
0.0475976
0.0475533
0.0469901
0.046955
0.0674526
0.0673509
0.0667517
0.0666417
0.0485351
0.0485904
0.0480834
0.0481312
0.0671518
0.0672141
0.0664324
0.0664915
0.0483997
0.0484231
0.0479316
0.0479521
0.0673045
0.0673011
0.0665816
0.0665781
0.0484772
0.0484751
0.0480055
0.0480033
0.0672041
0.0671359
0.066481
0.0664158
0.0484171
0.0483899
0.0479458
0.0479214
0.06733
0.0674265
0.0666197
0.0667244
0.0485771
0.0485177
0.0481173
0.0480652
0.0686094
0.0685213
0.0680631
0.0679683
0.0492697
0.0493377
0.0489235
0.0489852
0.0683389
0.068406
0.0677777
0.0678419
0.0491616
0.0491894
0.0488019
0.0488273
0.0684965
0.0684934
0.067932
0.0679288
0.0492441
0.0492423
0.0488814
0.0488795
0.0683968
0.0683243
0.0678324
0.0677624
0.049184
0.0491527
0.0488215
0.0487926
0.068502
0.0685851
0.0679481
0.0680377
0.0493255
0.0492536
0.0489724
0.0489067
0.0695131
0.0694359
0.0690854
0.0690028
0.0498348
0.049913
0.0495676
0.0496408
0.0692673
0.0693388
0.0688274
0.0688963
0.0497491
0.0497806
0.0494709
0.0495002
0.0694297
0.0694269
0.0689867
0.0689837
0.0498358
0.0498341
0.049555
0.0495532
0.0693304
0.0692539
0.0688875
0.0688134
0.0497756
0.0497409
0.049495
0.0494623
0.069418
0.0694906
0.0689842
0.069062
0.0499018
0.0498198
0.0496291
0.049552
0.0702186
0.07015
0.0698845
0.0698116
0.0502693
0.0503557
0.0500635
0.0501459
0.069993
0.0700685
0.0696489
0.069722
0.0502019
0.0502368
0.0499871
0.05002
0.0701601
0.0701575
0.069813
0.0698102
0.0502925
0.0502909
0.0500753
0.0500737
0.0700608
0.0699807
0.0697139
0.069636
0.0502321
0.0501944
0.0500152
0.0499793
0.0701335
0.0701978
0.0697944
0.0698627
0.0503453
0.0502555
0.0501351
0.0500491
0.0707646
0.070703
0.0705064
0.0704413
0.0506
0.0506928
0.0504437
0.0505333
0.070556
0.0706351
0.0702893
0.0703662
0.0505478
0.0505856
0.0503838
0.0504199
0.0707274
0.070725
0.0704579
0.0704554
0.0506418
0.0506404
0.0504757
0.0504742
0.070628
0.0705446
0.0703588
0.0702774
0.0505814
0.0505408
0.0504155
0.0503766
0.0706878
0.0707453
0.0704254
0.0704862
0.0506832
0.0505872
0.0505232
0.0504303
0.0711794
0.0711236
0.0709838
0.0709252
0.0508454
0.0509437
0.0507297
0.0508253
0.0709851
0.0710676
0.0707824
0.0708629
0.0508064
0.050847
0.0506842
0.0507231
0.0711608
0.0711586
0.0709554
0.0709531
0.0509037
0.0509024
0.0507795
0.0507781
0.0710611
0.0709746
0.0708561
0.0707715
0.0508431
0.0507999
0.0507191
0.0506775
0.0711096
0.0711615
0.0709105
0.0709652
0.0509348
0.0508336
0.0508161
0.0507175
0.0714837
0.0714328
0.071341
0.0712877
0.0510202
0.051123
0.0509385
0.0510389
0.0713022
0.071388
0.0711534
0.0712372
0.0509923
0.0510355
0.050905
0.0509467
0.0714819
0.0714799
0.0713306
0.0713285
0.0510928
0.0510916
0.0510036
0.0510023
0.0713819
0.0712924
0.071231
0.0711433
0.0510318
0.0509863
0.0509429
0.0508988
0.0714198
0.0714672
0.0712741
0.0713237
0.0511148
0.0510092
0.0510303
0.0509271
0.0716954
0.0716481
0.0715975
0.0715484
0.051135
0.0512411
0.0510817
0.0511862
0.071524
0.0716123
0.0714211
0.0715081
0.0511165
0.0511622
0.0510591
0.0511033
0.0717071
0.0717051
0.0716026
0.0716006
0.0512201
0.0512189
0.0511608
0.0511596
0.0716066
0.0715147
0.0715023
0.0714116
0.0511588
0.0511108
0.0510998
0.0510533
0.0716357
0.0716798
0.0715358
0.0715814
0.0512332
0.0511247
0.0511782
0.0510711
0.0718284
0.0717838
0.0717698
0.0717236
0.0512013
0.0513091
0.0511728
0.0512796
0.0716651
0.0717556
0.0716015
0.0716903
0.051189
0.0512356
0.0511565
0.0512024
0.0718508
0.0718489
0.0717851
0.0717832
0.0512934
0.0512923
0.0512602
0.0512591
0.0717501
0.0716563
0.0716847
0.0715924
0.0512322
0.0511833
0.0511989
0.0511508
0.0717721
0.0718136
0.0717114
0.0717542
0.0513016
0.0511912
0.0512717
0.0511624
0.0718876
0.0718453
0.071864
0.0718206
0.0512179
0.0513275
0.0512133
0.0513221
0.0717314
0.0718241
0.0717045
0.071796
0.0512121
0.0512612
0.0512043
0.0512522
0.0719201
0.0719183
0.0718915
0.0718897
0.0513197
0.0513186
0.0513103
0.0513092
0.0718188
0.0717228
0.0717906
0.0716958
0.0512579
0.0512066
0.0512488
0.0511988
0.0718335
0.0718728
0.0718092
0.0718497
0.0513196
0.0512076
0.0513147
0.0512036
0.0718795
0.0718388
0.07189
0.0718482
0.0511894
0.0513007
0.0512071
0.0513173
0.0717301
0.0718249
0.0717366
0.07183
0.0511907
0.051242
0.0512047
0.0512547
0.0719215
0.0719198
0.0719261
0.0719244
0.0513012
0.0513001
0.0513134
0.0513123
0.0718198
0.0717221
0.0718248
0.0717282
0.0512388
0.0511857
0.0512514
0.0511994
0.0718287
0.0718665
0.0718367
0.071875
0.0512946
0.0511807
0.05131
0.0511968
0.0718083
0.0717693
0.0718488
0.0718093
0.0511213
0.0512338
0.0511582
0.0512703
0.0716647
0.0717619
0.0717029
0.0717987
0.0511275
0.0511812
0.0511623
0.0512146
0.0718595
0.0718579
0.0718956
0.0718939
0.0512412
0.0512402
0.0512741
0.051273
0.0717571
0.0716568
0.0717937
0.071695
0.0511781
0.0511224
0.0512114
0.0511572
0.0717576
0.0717937
0.0717988
0.0718361
0.0512261
0.0511116
0.0512636
0.0511497
0.0716738
0.0716368
0.0717469
0.0717083
0.0510123
0.0511257
0.05107
0.0511827
0.0715383
0.0716383
0.0716067
0.0717051
0.0510242
0.0510803
0.0510789
0.0511336
0.071737
0.0717355
0.0718031
0.0718016
0.0511415
0.0511405
0.0511941
0.0511931
0.0716339
0.0715317
0.0717005
0.0715995
0.0510775
0.0510199
0.0511307
0.0510742
0.0716294
0.071664
0.0716984
0.0717335
0.0511209
0.0510056
0.0511763
0.051061
0.0714874
0.071451
0.0715848
0.0715487
0.0508692
0.0509826
0.0509432
0.051057
0.0713547
0.0714568
0.0714515
0.0715524
0.0508833
0.0509413
0.0509567
0.0510137
0.0715565
0.0715551
0.0716515
0.07165
0.0510035
0.0510025
0.0510752
0.0510742
0.0714525
0.0713475
0.0715481
0.0714447
0.0509385
0.0508785
0.0510108
0.0509522
0.0714401
0.071474
0.0715399
0.0715745
0.0509752
0.0508599
0.0510511
0.0509362
0.0712402
0.0712049
0.0713698
0.0713331
0.0506862
0.0507997
0.0507812
0.0508942
0.0711135
0.0712179
0.0712393
0.0713423
0.0507039
0.050764
0.0507967
0.0508556
0.0713188
0.0713175
0.0714425
0.0714411
0.0508274
0.0508265
0.0509182
0.0509173
0.0712139
0.0711073
0.0713381
0.0712325
0.0507615
0.0506997
0.0508529
0.0507921
0.0711976
0.0712305
0.0713236
0.0713566
0.0507946
0.050679
0.0508876
0.0507719
0.0709404
0.0709052
0.0710946
0.0710601
0.0504679
0.0505808
0.0505797
0.0506933
0.0708155
0.0709219
0.0709697
0.0710749
0.0504863
0.0505484
0.0505983
0.0506593
0.0710238
0.0710225
0.0711762
0.0711749
0.0506129
0.0506121
0.0507231
0.0507223
0.0709181
0.070809
0.0710711
0.0709634
0.050546
0.050482
0.0506568
0.0505941
0.070895
0.0709275
0.0710517
0.0710847
0.0505737
0.050459
0.0506874
0.0505727
0.0705787
0.0705445
0.0707657
0.0707302
0.0502083
0.0503208
0.0503418
0.0504541
0.0704592
0.0705677
0.0706428
0.07075
0.0502293
0.0502933
0.0503612
0.0504241
0.0706706
0.0706694
0.0708524
0.0708511
0.050359
0.0503582
0.0504892
0.0504884
0.070564
0.0704535
0.0707463
0.0706366
0.050291
0.0502256
0.0504218
0.0503571
0.0705379
0.0705697
0.0707215
0.0707533
0.0503163
0.0502017
0.0504481
0.0503332
0.0701623
0.0701283
0.0703752
0.0703419
0.0499113
0.0500231
0.0500629
0.0501754
0.070044
0.0701539
0.0702573
0.0703663
0.049932
0.0499971
0.0500843
0.0501488
0.0702577
0.0702564
0.0704696
0.0704684
0.0500636
0.0500628
0.0502148
0.050214
0.0701502
0.0700375
0.0703626
0.0702512
0.0499946
0.0499275
0.0501464
0.0500802
0.0701182
0.0701495
0.0703338
0.0703657
0.0500156
0.0499017
0.0501697
0.0500559
0.0696803
0.0696477
0.0699281
0.0698939
0.0495687
0.0496808
0.0497443
0.0498556
0.0695672
0.0696787
0.0698115
0.0699221
0.0495922
0.0496583
0.0497658
0.0498314
0.0697832
0.0697819
0.0700262
0.0700249
0.0497256
0.0497248
0.0498982
0.0498974
0.069675
0.0695613
0.0699184
0.0698053
0.0496559
0.0495882
0.0498289
0.0497616
0.0696409
0.0696713
0.069885
0.0699156
0.0496763
0.0495624
0.0498495
0.0497354
0.0691396
0.0691077
0.0694153
0.0693837
0.0491862
0.0492984
0.0493808
0.0494934
0.0690275
0.06914
0.0693036
0.0694155
0.0492094
0.0492761
0.0494048
0.0494712
0.0692451
0.0692438
0.0695202
0.0695189
0.0493439
0.049343
0.0495386
0.0495378
0.0691362
0.069021
0.0694117
0.0692974
0.0492735
0.0492048
0.0494686
0.0494005
0.0690975
0.0691271
0.0693756
0.069406
0.049291
0.0491772
0.0494878
0.0493744
0.068529
0.0684983
0.068842
0.0688098
0.0487554
0.0488679
0.0489758
0.0490876
0.0684211
0.0685349
0.068731
0.068844
0.0487806
0.048848
0.0489994
0.0490663
0.0686406
0.0686394
0.0689493
0.0689481
0.0489164
0.0489156
0.0491343
0.0491335
0.0685312
0.0684154
0.0688403
0.0687248
0.0488456
0.0487767
0.0490638
0.0489951
0.0684913
0.0685194
0.0688008
0.0688293
0.0488631
0.0487481
0.0490813
0.0489667
0.0678507
0.0678219
0.0681961
0.0681669
0.0482768
0.0483908
0.0485204
0.048634
0.0677452
0.06786
0.0680903
0.0682044
0.0483036
0.0483718
0.0485469
0.0486145
0.0679665
0.0679654
0.0683104
0.0683093
0.0484409
0.0484403
0.0486831
0.0486824
0.0678567
0.0677395
0.0682009
0.0680846
0.0483697
0.0482997
0.0486122
0.048543
0.067813
0.0678395
0.0681594
0.0681871
0.0483841
0.0482682
0.0486285
0.0485135
0.0670985
0.0670714
0.0674827
0.0674542
0.0477469
0.0478623
0.0480173
0.0481315
0.0669965
0.0671124
0.0673785
0.0674936
0.047776
0.0478456
0.0480447
0.0481135
0.0672195
0.0672185
0.0676003
0.0675993
0.0479156
0.0479151
0.048183
0.0481824
0.0671095
0.0669919
0.0674905
0.0673732
0.047844
0.0477733
0.0481116
0.0480413
0.0670654
0.0670899
0.0674462
0.0674715
0.047859
0.0477416
0.048126
0.0480092
0.0662716
0.0662466
0.0666926
0.0666668
0.047168
0.0472851
0.0474621
0.0475786
0.066172
0.0662886
0.0665923
0.0667084
0.0471973
0.0472676
0.0474918
0.0475617
0.0663962
0.0663953
0.0668157
0.0668148
0.0473382
0.0473377
0.047632
0.0476315
0.0662859
0.0661676
0.0667056
0.0665878
0.0472662
0.0471949
0.0475602
0.0474894
0.0662406
0.0662638
0.0666611
0.0666851
0.0472814
0.0471632
0.0475755
0.0474578
0.0653658
0.0653426
0.0658271
0.0658029
0.0465364
0.0466543
0.0468576
0.0469749
0.0652683
0.0653852
0.0657285
0.0658452
0.0465651
0.0466357
0.0468866
0.046957
0.0654931
0.0654922
0.065953
0.0659521
0.0467066
0.0467061
0.0470278
0.0470273
0.0653826
0.065264
0.0658426
0.0657242
0.0466342
0.0465626
0.0469556
0.0468842
0.0653367
0.0653578
0.0657968
0.0658189
0.0466507
0.0465312
0.0469713
0.0468523
0.0643784
0.0643569
0.0648808
0.0648585
0.04585
0.0459688
0.0461987
0.0463171
0.0642817
0.064398
0.064784
0.0649006
0.0458774
0.0459475
0.046227
0.0462973
0.0645057
0.0645048
0.0650084
0.0650075
0.0460185
0.046018
0.0463683
0.0463678
0.0643954
0.0642774
0.064898
0.0647797
0.045946
0.0458749
0.0462958
0.0462245
0.064351
0.0643705
0.0648525
0.0648728
0.0459652
0.0458449
0.0463135
0.0461937
0.0633043
0.0632837
0.0638509
0.06383
0.0451062
0.0452254
0.0454841
0.0456031
0.0632065
0.0633213
0.063754
0.0638695
0.0451309
0.0451999
0.0455104
0.0455799
0.0634283
0.0634275
0.0639768
0.063976
0.0452705
0.0452701
0.0456507
0.0456502
0.0633188
0.0632023
0.063867
0.0637497
0.0451984
0.0451285
0.0455784
0.0455079
0.0632779
0.0632965
0.0638241
0.063843
0.0452218
0.0451012
0.0455995
0.045479
0.0621361
0.0621161
0.0627308
0.0627106
0.0443014
0.0444207
0.0447104
0.0448297
0.0620352
0.0621475
0.0626318
0.0627453
0.0443216
0.0443886
0.0447332
0.0448011
0.0622533
0.0622525
0.0628517
0.0628509
0.0444586
0.0444582
0.0448714
0.0448709
0.062145
0.0620311
0.0627428
0.0626277
0.0443872
0.0443192
0.0447997
0.0447307
0.0621105
0.0621285
0.0627049
0.0627231
0.0444173
0.0442965
0.0448262
0.0447054
0.0608644
0.0608441
0.0615121
0.0614921
0.0434299
0.0435486
0.043873
0.0439921
0.060758
0.060867
0.0614089
0.0615195
0.0434438
0.0435082
0.0438904
0.0439561
0.0609713
0.0609705
0.0616246
0.0616238
0.0435773
0.0435768
0.0440256
0.0440251
0.0608646
0.060754
0.0615171
0.0614049
0.0435068
0.0434414
0.0439547
0.043888
0.0608386
0.0608569
0.0614865
0.0615046
0.0435452
0.0434252
0.0439887
0.0438682
0.0594783
0.0594564
0.0601848
0.0601638
0.0424855
0.0426023
0.042966