/*--------------------------------*- C++ -*----------------------------------*\
  =========                 |
  \\      /  F ield         | OpenFOAM: The Open Source CFD Toolbox
   \\    /   O peration     | Website:  https://openfoam.org
    \\  /    A nd           | Version:  9
     \\/     M anipulation  |
\*---------------------------------------------------------------------------*/
FoamFile
{
    format      ascii;
    class       volScalarField;
    location    "4.45";
    object      epsilon;
}
// * * * * * * * * * * * * * * * * * * * * * * * * * * * * * * * * * * * * * //

dimensions      [0 2 -3 0 0 0 0];

internalField   nonuniform List<scalar> 
36360
(
0.566666
0.463305
0.325114
0.281614
0.38102
0.312479
0.0981031
0.116902
0.224745
0.116011
0.10841
0.0409771
0.148879
0.0669257
0.0346776
0.0128146
0.075115
0.075072
0.0199869
0.0199701
0.0411654
0.0411506
0.00812043
0.00811907
0.115865
0.224464
0.0408953
0.108216
0.0668431
0.148649
0.012803
0.034602
0.462903
0.56626
0.281289
0.324769
0.312002
0.380369
0.116658
0.0978403
0.920767
0.765833
0.756867
0.621698
0.92451
0.75225
0.660305
0.527968
0.461886
0.309835
0.343217
0.208481
0.486327
0.344675
0.306159
0.189654
0.247097
0.247022
0.154586
0.154525
0.287476
0.287396
0.144254
0.144207
0.309601
0.461486
0.208287
0.342871
0.344404
0.485786
0.189478
0.305773
0.765312
0.920268
0.621231
0.756409
0.751341
0.923306
0.527273
0.659365
1.21674
1.03698
1.07269
0.903849
1.4444
1.21592
1.18486
0.982173
0.698058
0.522644
0.580546
0.415536
0.88324
0.702513
0.680387
0.51792
0.447917
0.44782
0.346151
0.346064
0.626441
0.6263
0.450764
0.450653
0.52235
0.697576
0.41527
0.580101
0.702061
0.882405
0.517556
0.679696
1.03638
1.21619
0.903284
1.07216
1.21461
1.44268
0.981055
1.18339
1.4852
1.28892
1.35424
1.16552
1.95181
1.68135
1.70059
1.44974
0.925794
0.734354
0.813564
0.629491
1.29708
1.08564
1.08984
0.892876
0.651443
0.651331
0.550326
0.550221
0.994445
0.994249
0.808811
0.808641
0.734021
0.925258
0.629175
0.813052
1.08503
1.29599
0.892341
1.08887
1.28827
1.48463
1.16489
1.35367
1.67968
1.94964
1.44823
1.69864
1.72744
1.51906
1.60977
1.40701
2.42896
2.12628
2.19487
1.90723
1.13794
0.934702
1.03427
0.836504
1.70085
1.46504
1.50127
1.27695
0.845843
0.845722
0.750394
0.750277
1.36191
1.36167
1.17943
1.17921
0.934345
1.13737
0.836158
1.03372
1.46431
1.69955
1.27627
1.50007
1.5184
1.72688
1.40635
1.6092
2.12432
2.42644
1.90541
2.19252
1.94239
1.72483
1.83843
1.62518
2.86359
2.5362
2.65173
2.33588
1.33006
1.11793
1.23679
1.0288
2.07793
1.82284
1.89317
1.64717
1.02464
1.02452
0.93757
0.937447
1.71034
1.71007
1.53907
1.53881
1.11756
1.32948
1.02844
1.23621
1.822
2.07647
1.64638
1.89178
1.72416
1.94184
1.62451
1.83788
2.53402
2.86078
2.33381
2.64906
2.13006
1.90529
2.0397
1.81831
3.25044
2.90416
3.06278
2.72532
1.50024
1.28139
1.41807
1.20236
2.41959
2.14922
2.25323
1.99007
1.18475
1.18462
1.10728
1.10715
2.02938
2.02908
1.87369
1.8734
1.28101
1.49966
1.20199
1.41749
2.1483
2.418
1.98919
2.2517
1.90463
2.12955
1.81764
2.03917
2.9018
3.24742
2.72305
3.05986
2.2917
2.06132
2.21417
1.98643
3.58871
3.22784
3.42525
3.0712
1.64843
1.42447
1.57722
1.35564
2.72231
2.43988
2.57561
2.29887
1.32528
1.32515
1.25764
1.25751
2.31423
2.31391
2.17596
2.17564
1.42409
1.64785
1.35526
1.57663
2.43891
2.72062
2.29792
2.57397
2.06066
2.29121
1.98577
2.21367
3.22534
3.58551
3.06877
3.42213
2.42899
2.19426
2.36341
2.13072
3.87976
3.5076
3.7396
3.37271
1.77545
1.54761
1.71469
1.48866
2.98547
2.69355
2.85846
2.57102
1.4465
1.44637
1.38844
1.38831
2.56339
2.56306
2.44296
2.44263
1.54724
1.77487
1.48829
1.71411
2.69252
2.9837
2.57002
2.85673
2.19362
2.42853
2.13007
2.36294
3.505
3.87641
3.37016
3.73632
2.54408
2.30599
2.48935
2.25284
4.12667
3.7458
4.00813
3.63133
1.88275
1.65201
1.83167
1.60228
3.21058
2.9112
3.10233
2.80645
1.54948
1.54935
1.5004
1.50027
2.77763
2.77728
2.67448
2.67414
1.65164
1.88218
1.6019
1.83109
2.91013
3.20875
2.80541
3.10052
2.30537
2.54365
2.2522
2.4889
3.74311
4.12321
3.62868
4.00473
2.63906
2.39843
2.59412
2.35468
4.33292
3.94538
4.23423
3.84979
1.97198
1.73912
1.92973
1.69785
3.39999
3.09484
3.30923
3.00678
1.63555
1.63542
1.59476
1.59463
2.95864
2.95827
2.87181
2.87146
1.73875
1.97141
1.69747
1.92916
3.09374
3.3981
3.0057
3.30737
2.39782
2.63865
2.35406
2.5937
3.94262
4.32937
3.84706
4.23072
2.71606
2.47356
2.67988
2.43825
4.50235
4.10977
4.42161
4.03135
2.04489
1.81056
2.0106
1.77694
3.55661
3.24714
3.48187
3.17441
1.70624
1.70611
1.67296
1.67283
3.1089
3.10853
3.03712
3.03675
1.81019
2.04433
1.77657
2.01004
3.24602
3.55469
3.1733
3.47996
2.47296
2.71568
2.43764
2.67949
4.10694
4.49872
4.02855
4.41801
2.77697
2.53317
2.74861
2.5054
4.63854
4.24223
4.57395
4.17934
2.10313
1.86785
2.07598
1.84112
3.68339
3.37076
3.62318
3.31201
1.76304
1.76292
1.73653
1.7364
3.23101
3.23064
3.17296
3.17259
1.86748
2.10257
1.84075
2.07542
3.36962
3.68143
3.31088
3.62124
2.53258
2.77661
2.5048
2.74824
4.23936
4.63484
4.17649
4.57028
2.82361
2.57903
2.80218
2.55794
4.74499
4.34606
4.69484
4.29708
2.14829
1.91252
2.12751
1.89193
3.78328
3.46848
3.73615
3.42234
1.80743
1.8073
1.78696
1.78683
3.32767
3.32729
3.28201
3.28163
1.91215
2.14774
1.89157
2.12695
3.46732
3.7813
3.42119
3.73418
2.57845
2.82327
2.55735
2.80183
4.34315
4.74124
4.29419
4.69112
2.85752
2.61259
2.84229
2.59749
4.82477
4.42416
4.7876
4.38769
2.18178
1.9459
2.16668
1.93081
3.85899
3.54286
3.82363
3.50808
1.84071
1.84058
1.82565
1.82552
3.40136
3.40097
3.36689
3.3665
1.94553
2.18124
1.93044
2.16613
3.54169
3.85699
3.50692
3.82164
2.61201
2.8572
2.59691
2.84196
4.42122
4.82099
4.38477
4.78383
2.8801
2.63521
2.87038
2.62543
4.88072
4.47922
4.85512
4.45395
2.20489
1.96923
2.19484
1.95903
3.913
3.59626
3.88819
3.57169
1.86412
1.86399
1.85385
1.85373
3.45445
3.45406
3.42998
3.42959
1.96887
2.20435
1.95867
2.19429
3.59509
3.91099
3.57051
3.88618
2.63465
2.8798
2.62486
2.87007
4.47627
4.87691
4.45101
4.85132
2.89256
2.64808
2.88777
2.64305
4.91529
4.51363
4.9001
4.49842
2.21873
1.9836
2.21319
1.97776
3.94752
3.63083
3.9322
3.61542
1.87872
1.87859
1.87275
1.87262
3.48902
3.48863
3.47357
3.47318
1.98324
2.21819
1.9774
2.21265
3.62965
3.94551
3.61424
3.93018
2.64753
2.89227
2.64249
2.88747
4.51068
4.91147
4.49547
4.89628
2.89585
2.65216
2.89555
2.65142
4.93057
4.5294
4.92478
4.52327
2.22425
1.98993
2.22277
1.98801
3.96447
3.64842
3.95771
3.64128
1.88541
1.88529
1.8833
1.88317
3.50691
3.50652
3.49959
3.4992
1.98957
2.22372
1.98766
2.22223
3.64724
3.96245
3.6401
3.95569
2.65162
2.89558
2.65088
2.89527
4.52645
4.92675
4.52031
4.92096
2.89108
2.64848
2.89468
2.65148
4.92849
4.52834
4.93097
4.53025
2.22239
1.9891
2.22444
1.99063
3.96546
3.65055
3.96642
3.65096
1.88506
1.88494
1.88634
1.88621
3.50956
3.50917
3.50972
3.50933
1.98875
2.22187
1.99028
2.22392
3.64937
3.96345
3.64978
3.96441
2.64795
2.89082
2.65094
2.89441
4.52539
4.92468
4.5273
4.92714
2.87869
2.63756
2.88606
2.64416
4.91043
4.51195
4.92105
4.5217
2.21373
1.98175
2.21919
1.98654
3.95227
3.63911
3.96045
3.64641
1.87832
1.8782
1.88279
1.88267
3.49893
3.49855
3.50582
3.50544
1.98141
2.21322
1.98619
2.21867
3.63795
3.95028
3.64524
3.95845
2.63705
2.87844
2.64364
2.8858
4.50903
4.90664
4.51876
4.91724
2.85938
2.62006
2.87013
2.62987
4.87772
4.48136
4.89539
4.49789
2.19887
1.96842
2.20735
1.97611
3.92568
3.61465
3.94018
3.62804
1.86569
1.86557
1.87301
1.87289
3.47545
3.47507
3.48832
3.48794
1.96808
2.19836
1.97577
2.20684
3.6135
3.92371
3.62688
3.93819
2.61956
2.85915
2.62936
2.86989
4.47846
4.87396
4.49497
4.89161
2.83365
2.59649
2.84756
2.60928
4.83145
4.4377
4.8558
4.46066
2.17832
1.94962
2.18959
1.96
3.88692
3.57846
3.90741
3.59762
1.84771
1.84759
1.85766
1.85754
3.44043
3.44005
3.45898
3.4586
1.94929
2.17782
1.95966
2.18909
3.57732
3.88497
3.59648
3.90544
2.596
2.83342
2.60878
2.84733
4.43484
4.82773
4.45778
4.85205
2.80188
2.56724
2.81877
2.58283
4.77245
4.3818
4.80307
4.41079
2.15247
1.92574
2.16635
1.93862
3.83675
3.53129
3.86286
3.55586
1.82474
1.82463
1.83714
1.83703
3.39462
3.39426
3.41849
3.41812
1.92542
2.15198
1.93829
2.16586
3.53017
3.83483
3.55473
3.86092
2.56676
2.80166
2.58234
2.81855
4.37898
4.76879
4.40795
4.79938
2.76439
2.53263
2.7841
2.55087
4.70145
4.31434
4.738
4.34904
2.12163
1.89709
2.13797
1.91232
3.77587
3.4738
3.80726
3.50346
1.79711
1.797
1.81181
1.8117
3.33869
3.33833
3.36755
3.36718
1.89678
2.12116
1.912
2.13749
3.47271
3.77398
3.50235
3.80536
2.53216
2.76418
2.55039
2.7839
4.31157
4.69785
4.34625
4.73437
2.72144
2.49294
2.74385
2.51368
4.61902
4.23592
4.66123
4.27605
2.08607
1.86393
2.10474
1.88138
3.70481
3.40654
3.74124
3.44104
1.76505
1.76494
1.78193
1.78182
3.27315
3.2728
3.30676
3.3064
1.86361
2.08561
1.88106
2.10427
3.40547
3.70297
3.43995
3.73937
2.49248
2.72125
2.51322
2.74366
4.23321
4.6155
4.27331
4.65767
2.67327
2.44837
2.69827
2.47153
4.52568
4.14702
4.5733
4.19234
2.04598
1.82644
2.06689
1.84603
3.62406
3.32996
3.66529
3.36907
1.72877
1.72866
1.74774
1.74763
3.19846
3.19812
3.23661
3.23626
1.82614
2.04554
1.84572
2.06644
3.32891
3.62226
3.36801
3.66347
2.44793
2.67309
2.47108
2.69808
4.14438
4.52225
4.18966
4.56982
2.62007
2.39912
2.64756
2.4246
4.42185
4.04806
4.47467
4.09837
2.00156
1.7848
2.02462
1.80645
3.53399
3.24443
3.57985
3.28798
1.68842
1.68832
1.70941
1.7093
3.11499
3.11465
3.15749
3.15715
1.78451
2.00112
1.80615
2.02417
3.24341
3.53225
3.28695
3.57808
2.3987
2.6199
2.42416
2.64738
4.04549
4.41851
4.09577
4.47128
2.56204
2.34537
2.59192
2.37307
4.30793
3.93944
4.36576
3.99455
1.95292
1.73914
1.97807
1.76278
3.43495
3.15027
3.48526
3.19811
1.64414
1.64404
1.66707
1.66697
3.02304
3.02272
3.06975
3.06942
1.73886
1.9525
1.76249
1.97764
3.14928
3.43326
3.19711
3.48355
2.34495
2.56187
2.37265
2.59175
3.93695
4.3047
3.99202
4.36247
2.49934
2.28724
2.53152
2.3171
4.18428
3.82147
4.24695
3.88124
1.90021
1.68956
1.92737
1.71514
3.32722
3.04775
3.38186
3.09975
1.59601
1.59592
1.62085
1.62075
2.9229
2.92259
2.97369
2.97337
1.68929
1.8998
1.71486
1.92696
3.0468
3.32559
3.09878
3.3802
2.28684
2.49918
2.3167
2.53136
3.81907
4.18115
3.87879
4.24376
2.43217
2.22489
2.46656
2.25684
4.0512
3.69442
4.11856
3.75871
1.84351
1.63616
1.87265
1.66363
3.21106
2.93714
3.26989
2.99317
1.54413
1.54404
1.57083
1.57074
2.81481
2.81451
2.86956
2.86925
1.63589
1.84312
1.66336
1.87225
2.93622
3.20949
2.99223
3.26829
2.2245
2.43202
2.25645
2.46641
3.6921
4.04818
3.75635
4.11548
2.36069
2.15842
2.39721
2.19242
3.90905
3.55871
3.98091
3.62725
1.78293
1.579
1.81399
1.60833
3.08673
2.81866
3.14963
2.8786
1.48856
1.48847
1.51709
1.517
2.699
2.69872
2.75759
2.7573
1.57874
1.78254
1.60807
1.8136
2.81778
3.08522
2.87771
3.14808
2.15805
2.36054
2.19204
2.39706
3.55648
3.90615
3.62498
3.97795
2.28509
2.08797
2.32364
2.12393
3.75813
3.41474
3.83436
3.48744
1.71854
1.51815
1.75148
1.54931
2.9545
2.69254
3.02133
2.75629
1.42935
1.42927
1.45969
1.4596
2.57571
2.57544
2.63803
2.63775
1.5179
1.71817
1.54906
1.75111
2.6917
2.95305
2.75543
3.01986
2.08761
2.28495
2.12356
2.32349
3.41261
3.75536
3.48526
3.83153
2.20558
2.01369
2.24605
2.05154
3.59868
3.26261
3.67917
3.33937
1.65043
1.45367
1.68522
1.48663
2.81454
2.559
2.88523
2.62645
1.36656
1.36647
1.39867
1.39859
2.44514
2.44488
2.51109
2.51082
1.45342
1.65008
1.48638
1.68485
2.5582
2.81316
2.62563
2.88382
2.01335
2.20544
2.05118
2.2459
3.26058
3.59603
3.33729
3.67646
2.12238
1.93575
2.16465
1.97539
3.43093
3.10265
3.51555
3.18329
1.57871
1.3856
1.61528
1.42034
2.6671
2.41824
2.74151
2.48928
1.30021
1.30013
1.33409
1.334
2.3075
2.30725
2.37697
2.37672
1.38537
1.57836
1.4201
1.61493
2.41748
2.6658
2.4885
2.74017
1.93542
2.12224
1.97505
2.16451
3.10072
3.42842
3.18131
3.51297
2.0359
1.85441
2.07973
1.8957
3.25524
2.93537
3.34379
3.01962
1.50349
1.314
1.54177
1.35049
2.51249
2.27048
2.59046
2.34501
1.2303
1.23022
1.26595
1.26587
2.16296
2.16272
2.23588
2.23564
1.31378
1.50315
1.35026
1.54143
2.26977
2.51126
2.34428
2.58919
1.85409
2.03575
1.89537
2.07959
2.93355
3.25287
3.01774
3.34135
1.94698
1.77023
1.99186
1.81283
3.07244
2.76171
3.1644
2.849
1.42495
1.23881
1.46487
1.27711
2.35108
2.11581
2.43241
2.19382
1.15668
1.1566
1.19421
1.19413
2.01149
2.01127
2.08791
2.08768
1.2386
1.42463
1.27689
1.46454
2.11515
2.34993
2.19313
2.43122
1.76991
1.94684
1.81251
1.99172
2.76001
3.07022
2.84724
3.1621
1.858
1.68421
1.90243
1.72757
2.88532
2.58366
2.97885
2.67282
1.34306
1.15957
1.3847
1.19999
2.18301
1.95383
2.26773
2.03562
1.07879
1.07872
1.11856
1.11849
1.85261
1.85241
1.93285
1.93264
1.15937
1.34275
1.19978
1.38438
1.95322
2.18195
2.03499
2.26662
1.68391
1.85787
1.72726
1.90228
2.58208
2.88326
2.67118
2.9767
1.77711
1.59607
1.81567
1.6409
2.70556
2.40323
2.79273
2.49368
1.25552
1.07433
1.3006
1.11815
2.00581
1.78266
2.09581
1.86943
0.995143
0.995076
1.03803
1.03796
1.68526
1.68508
1.76987
1.76969
1.07413
1.25523
1.11794
1.3003
1.78212
2.00486
1.86885
2.0948
1.59578
1.77698
1.64061
1.81553
2.40179
2.70367
2.49217
2.79075
1.74503
1.47831
1.74938
1.54714
2.56184
2.18098
2.62942
2.3056
1.14945
0.978122
1.20664
1.02819
1.80556
1.59973
1.90997
1.69244
0.903308
0.903246
0.950614
0.95055
1.51047
1.51031
1.59829
1.59813
0.977942
1.14917
1.028
1.20636
1.59925
1.80473
1.69193
1.90908
1.47802
1.74488
1.54685
1.74924
2.17972
2.56012
2.30424
2.62761
0.84379
0.698956
0.597142
0.497819
0.721315
0.591376
0.478039
0.397782
0.411795
0.260176
0.258628
0.142672
0.322445
0.187954
0.184497
0.0886004
0.196226
0.196138
0.0973352
0.0972662
0.133531
0.133464
0.0536689
0.0536251
0.259906
0.411361
0.142444
0.258217
0.18774
0.32208
0.0884428
0.184186
0.698459
0.843378
0.497281
0.596636
0.590921
0.720907
0.397338
0.477599
1.18798
1.01158
1.03339
0.867511
1.0613
0.893289
0.907526
0.752956
0.685357
0.500799
0.554158
0.38171
0.574781
0.402505
0.452304
0.294517
0.418537
0.418442
0.30646
0.306365
0.328042
0.327955
0.227956
0.227877
0.500525
0.684959
0.381431
0.553734
0.402246
0.574379
0.294274
0.451912
1.01119
1.18774
0.867064
1.03306
0.892846
1.06096
0.7525
0.907146
1.44586
1.25976
1.32378
1.14131
1.32592
1.14266
1.19929
1.02238
0.922512
0.725447
0.807979
0.615848
0.803953
0.614392
0.692027
0.509774
0.635415
0.635328
0.528974
0.528882
0.530178
0.530085
0.429726
0.429635
0.725206
0.922188
0.615588
0.807615
0.614124
0.803557
0.509507
0.691624
1.25952
1.44581
1.14099
1.32363
1.14227
1.32568
1.02195
1.199
1.65931
1.46984
1.55724
1.36902
1.55323
1.36168
1.44361
1.25568
1.1298
0.927314
1.02983
0.829518
1.0121
0.812613
0.910836
0.715714
0.833504
0.833431
0.737277
0.737196
0.722639
0.722547
0.628282
0.628189
0.927118
1.12957
0.829298
1.02955
0.812354
1.01173
0.715449
0.910453
1.46973
1.65946
1.36884
1.55729
1.36135
1.5531
1.25532
1.44342
1.84001
1.64958
1.75347
1.56333
1.75122
1.55444
1.65576
1.46135
1.30982
1.10501
1.22324
1.01934
1.19823
0.992453
1.10811
0.905149
1.00929
1.00923
0.924419
0.924353
0.898777
0.898691
0.813133
0.813043
1.10486
1.30968
1.01917
1.22305
0.992212
1.1979
0.904898
1.10776
1.64962
1.84034
1.5633
1.75371
1.5542
1.75121
1.46107
1.6557
1.99336
1.80298
1.91995
1.7295
1.92265
1.72242
1.84027
1.64158
1.46472
1.2591
1.39044
1.1851
1.36198
1.15203
1.28304
1.07498
1.16244
1.1624
1.08883
1.08878
1.05588
1.0558
0.979948
0.979865
1.259
1.46465
1.18498
1.39033
1.15181
1.36169
1.07475
1.28274
1.80314
1.99385
1.72959
1.92036
1.72225
1.92276
1.64137
1.84032
2.1229
1.93299
2.06105
1.87088
2.06957
1.86708
1.99917
1.7977
1.59672
1.39109
1.53363
1.32795
1.50394
1.29119
1.4358
1.22432
1.29404
1.29401
1.23104
1.231
1.19336
1.19328
1.12725
1.12717
1.39103
1.59672
1.32786
1.53359
1.291
1.5037
1.22411
1.43554
1.93325
2.12352
1.87109
2.0616
1.86698
2.06978
1.79757
1.99932
2.23142
2.04221
2.17978
1.99021
2.19429
1.99025
2.13473
1.93141
1.70811
1.50293
1.65505
1.44962
1.62546
1.41085
1.56737
1.3536
1.4058
1.40578
1.3525
1.35248
1.31186
1.31179
1.25513
1.25506
1.5029
1.70817
1.44958
1.65509
1.41067
1.62526
1.35341
1.56715
2.04255
2.23215
1.99051
2.18045
1.99021
2.19458
1.93133
2.13498
2.3213
2.13288
2.27869
2.08988
2.29884
2.09379
2.24911
2.04453
1.80104
1.59658
1.75696
1.55213
1.72812
1.51231
1.67926
1.46399
1.49958
1.49957
1.45505
1.45504
1.41256
1.4125
1.36457
1.36451
1.59658
1.80115
1.55212
1.75705
1.51216
1.72795
1.46382
1.67908
2.1333
2.32213
2.09026
2.27947
2.0938
2.29921
2.04451
2.24945
2.39477
2.20722
2.36013
2.17215
2.38537
2.17969
2.34442
2.13902
1.87764
1.67406
1.84149
1.63747
1.81372
1.59723
1.77318
1.55698
1.57732
1.57732
1.54059
1.54058
1.49699
1.49694
1.45696
1.4569
1.67409
1.87779
1.63748
1.84162
1.59708
1.81358
1.55683
1.77303
2.2077
2.39568
2.1726
2.361
2.17975
2.38581
2.13906
2.34483
2.45374
2.2671
2.42611
2.23903
2.45581
2.24981
2.42267
2.21681
1.93978
1.7372
1.91064
1.70757
1.88399
1.6672
1.85091
1.63423
1.64082
1.64083
1.611
1.611
1.56672
1.56666
1.53385
1.5338
1.73725
1.93997
1.7076
1.91081
1.66708
1.88388
1.6341
1.85078
2.26763
2.45472
2.23954
2.42706
2.24991
2.4563
2.21689
2.42314
2.49995
2.31428
2.47852
2.29237
2.51199
2.30593
2.48578
2.27974
1.98921
1.78773
1.96624
1.76421
1.94064
1.72386
1.91418
1.69737
1.69176
1.69178
1.66803
1.66804
1.62329
1.62325
1.59683
1.59678
1.78779
1.98944
1.76427
1.96645
1.72375
1.94055
1.69726
1.91408
2.31486
2.50099
2.29293
2.47953
2.30607
2.51254
2.27986
2.48631
2.53492
2.35027
2.51893
2.33378
2.55551
2.34963
2.53544
2.32946
2.02746
1.82712
2.0099
1.80899
1.98517
1.76867
1.96459
1.74794
1.73163
1.73165
1.71327
1.71328
1.66815
1.66811
1.64738
1.64734
1.8272
2.02771
1.80907
2.01014
1.76857
1.9851
1.74783
1.96451
2.3509
2.53602
2.33438
2.52
2.34979
2.5561
2.32961
2.53601
2.56005
2.37646
2.54882
2.36472
2.58787
2.38234
2.57322
2.3675
2.05588
1.85675
2.04308
1.84335
2.01899
1.80299
2.00362
1.78735
1.76178
1.7618
1.74813
1.74815
1.70264
1.7026
1.68691
1.68686
1.85685
2.05616
1.84345
2.04335
1.80289
2.01894
1.78725
2.00356
2.37712
2.56119
2.36536
2.54994
2.38254
2.5885
2.36768
2.57383
2.57644
2.39396
2.56946
2.38644
2.61029
2.40531
2.60047
2.3952
2.07564
1.87777
2.06705
1.86855
2.04333
1.82801
2.03257
1.81689
1.78336
1.78338
1.77386
1.77388
1.72794
1.7279
1.71667
1.71663
1.87788
2.07594
1.86866
2.06734
1.82792
2.0433
1.8168
2.03252
2.39465
2.57761
2.38711
2.57062
2.40553
2.61095
2.39541
2.60112
2.5851
2.40381
2.58187
2.4
2.62392
2.41967
2.61837
2.41375
2.08778
1.89121
2.08288
1.88567
2.05927
1.8448
2.05258
1.83767
1.79738
1.79741
1.79155
1.79158
1.7451
1.74506
1.73778
1.73774
1.89133
2.08809
1.88578
2.08319
1.84472
2.05925
1.83759
2.05256
2.40452
2.58631
2.4007
2.58307
2.41992
2.62461
2.41398
2.61905
2.58689
2.40686
2.58701
2.40636
2.62969
2.42637
2.62797
2.42418
2.09314
1.89793
2.09154
1.89565
2.06775
1.85428
2.06469
1.85071
1.80473
1.80476
1.80214
1.80217
1.75503
1.75499
1.75122
1.75119
1.89806
2.09347
1.89578
2.09186
1.85421
2.06774
1.85064
2.06468
2.40759
2.58812
2.40708
2.58823
2.42663
2.6304
2.42443
2.62867
2.58257
2.40389
2.58567
2.40631
2.62845
2.42623
2.63012
2.42735
2.09251
1.8987
2.09381
1.89931
2.06956
1.85723
2.06975
1.85684
1.80615
1.80618
1.80644
1.80647
1.7585
1.75847
1.75784
1.75781
1.89884
2.09286
1.89944
2.09415
1.85716
2.06956
1.85677
2.06974
2.40463
2.58383
2.40704
2.58691
2.4265
2.62918
2.42762
2.63085
2.57265
2.39543
2.57847
2.40052
2.62084
2.41994
2.62564
2.42406
2.0865
1.89416
2.09043
1.89736
2.06547
1.85442
2.06852
1.85681
1.80231
1.80235
1.80515
1.80519
1.75628
1.75626
1.75836
1.75833
1.89431
2.08685
1.89749
2.09077
1.85436
2.06548
1.85675
2.06852
2.39619
2.57392
2.40127
2.57974
2.42023
2.62159
2.42434
2.62638
2.55767
2.38204
2.56597
2.38955
2.60743
2.40804
2.61508
2.41492
2.0756
1.88479
2.08192
1.89035
2.05592
1.84629
2.06165
1.85131
1.79367
1.79371
1.79886
1.7989
1.74882
1.74879
1.7535
1.75347
1.88494
2.07595
1.8905
2.08227
1.84624
2.05594
1.85125
2.06167
2.38281
2.55896
2.39031
2.56725
2.40834
2.60819
2.41521
2.61583
2.53802
2.3641
2.54862
2.37384
2.58865
2.391
2.59893
2.4004
2.06024
1.87103
2.06874
1.87874
2.04143
1.83335
2.04958
1.84072
1.78067
1.78071
1.78799
1.78803
1.73661
1.73659
1.7436
1.74358
1.87118
2.0606
1.87889
2.0691
1.8333
2.04146
1.84067
2.0496
2.36488
2.5393
2.37461
2.5499
2.3913
2.58941
2.4007
2.59969
2.514
2.34197
2.52674
2.35376
2.56488
2.3692
2.57762
2.38093
2.04078
1.85324
2.05129
1.86292
2.02239
1.816
2.03278
1.82553
1.76369
1.76373
1.77296
1.773
1.72005
1.72003
1.72918
1.72915
1.8534
2.04114
1.86308
2.05165
1.81595
2.02242
1.82548
2.0328
2.34274
2.51529
2.35454
2.52803
2.36952
2.56565
2.38124
2.57839
2.48591
2.31591
2.50066
2.32963
2.53644
2.34298
2.55148
2.35689
2.0175
1.83171
2.02989
1.84323
1.99912
1.79454
2.01158
1.80609
1.743
1.74304
1.75409
1.75413
1.69946
1.69944
1.71057
1.71054
1.83187
2.01787
1.84338
2.03026
1.7945
1.99915
1.80604
2.01162
2.31669
2.48719
2.33041
2.50194
2.34329
2.53721
2.3572
2.55225
2.45396
2.28617
2.47061
2.30171
2.50357
2.31257
2.52079
2.32854
1.99064
1.80667
2.00479
1.81992
1.97186
1.76923
1.98629
1.78267
1.71884
1.71888
1.73164
1.73168
1.67508
1.67506
1.68805
1.68803
1.80683
1.99101
1.82007
2.00516
1.76919
1.9719
1.78263
1.98632
2.28695
2.45523
2.30248
2.47188
2.31288
2.50434
2.32885
2.52156
2.41834
2.25294
2.43679
2.2702
2.46647
2.27818
2.48578
2.29611
1.96038
1.77831
1.97621
1.79319
1.94083
1.74028
1.95712
1.75552
1.6914
1.69144
1.70582
1.70586
1.64712
1.6471
1.66186
1.66184
1.77847
1.96075
1.79335
1.97657
1.74024
1.94087
1.75548
1.95716
2.2537
2.41959
2.27097
2.43806
2.2785
2.46724
2.29643
2.48655
2.37923
2.21638
2.39941
2.23528
2.42535
2.24001
2.44665
2.25981
1.92689
1.74678
1.94431
1.76322
1.9062
1.70784
1.92426
1.7248
1.66082
1.66086
1.67679
1.67683
1.61574
1.61572
1.63216
1.63214
1.74693
1.92725
1.76338
1.94468
1.70781
1.90624
1.72477
1.9243
2.21713
2.38047
2.23604
2.40066
2.24033
2.4261
2.26013
2.4474
2.33679
2.17664
2.35861
2.19711
2.38035
2.19821
2.40356
2.2198
1.8903
1.7122
1.90925
1.73015
1.8681
1.67206
1.88788
1.69067
1.62723
1.62727
1.64469
1.64473
1.58107
1.58105
1.59912
1.5991
1.71235
1.89065
1.7303
1.90961
1.67203
1.86814
1.69064
1.88792
2.17739
2.338
2.19786
2.35984
2.19852
2.38109
2.22012
2.40431
2.29118
2.13386
2.31456
2.15582
2.33166
2.1529
2.35669
2.17622
1.85071
1.67468
1.87114
1.69409
1.82666
1.63304
1.84808
1.65325
1.59073
1.59077
1.60962
1.60966
1.54321
1.54319
1.56283
1.56281
1.67483
1.85106
1.69424
1.87149
1.63301
1.8267
1.65322
1.84813
2.13459
2.29237
2.15656
2.31576
2.15321
2.33238
2.17653
2.35742
2.24257
2.08818
2.26742
2.11157
2.27943
2.10424
2.3062
2.12922
1.80824
1.63431
1.83009
1.65512
1.78198
1.59086
1.805
1.61263
1.55138
1.55142
1.57168
1.57172
1.50224
1.50222
1.5234
1.52338
1.63445
1.80858
1.65527
1.83044
1.59083
1.78202
1.6126
1.80505
2.08889
2.24373
2.11229
2.2686
2.10454
2.28013
2.12952
2.30692
2.19114
2.03972
2.21737
2.06448
2.22383
2.05236
2.25226
2.07892
1.76299
1.59115
1.78621
1.61334
1.73416
1.54561
1.75873
1.5689
1.50926
1.5093
1.53093
1.53097
1.45823
1.45821
1.4809
1.48088
1.59129
1.76332
1.61348
1.78655
1.54558
1.7342
1.56887
1.75878
2.04041
2.19227
2.06518
2.21852
2.05265
2.22452
2.07921
2.25295
2.13709
1.98866
2.1646
2.01469
2.16505
1.99736
2.19504
2.02546
1.71506
1.54529
1.7396
1.56882
1.68328
1.49735
1.70937
1.52213
1.46443
1.46447
1.48744
1.48748
1.41123
1.41121
1.43538
1.43536
1.54543
1.71537
1.56895
1.73992
1.49731
1.68331
1.5221
1.70941
1.98933
2.13817
2.01537
2.16571
1.99764
2.16571
2.02575
2.19571
2.08061
1.93516
2.1093
1.96239
2.10329
1.9394
2.13474
1.96895
1.66455
1.4968
1.69036
1.52162
1.62943
1.44613
1.65699
1.47237
1.41695
1.41698
1.44127
1.4413
1.3613
1.36128
1.3869
1.38688
1.49692
1.66485
1.52175
1.69067
1.4461
1.62947
1.47234
1.65702
1.93581
2.08165
1.96304
2.11037
1.93966
2.10392
1.96922
2.13538
2.02199
1.8794
2.0517
1.90772
2.03878
1.87865
2.07156
1.90956
1.61159
1.44575
1.6386
1.47183
1.57273
1.39204
1.60169
1.4197
1.36687
1.3669
1.39247
1.3925
1.30848
1.30846
1.33551
1.33549
1.44587
1.61187
1.47195
1.63889
1.392
1.57275
1.41967
1.60172
1.88002
2.02299
1.90835
2.05273
1.8789
2.03938
1.90982
2.07218
1.9616
1.82167
1.99213
1.85092
1.97183
1.81533
2.00577
1.84748
1.55635
1.39225
1.58446
1.41953
1.51329
1.33512
1.54358
1.36418
1.31424
1.31427
1.3411
1.34113
1.2528
1.25278
1.28125
1.28123
1.39235
1.55662
1.41965
1.58474
1.33508
1.5133
1.36414
1.54361
1.82225
1.96255
1.85152
1.99311
1.81556
1.97239
1.84772
2.00636
1.90009
1.76246
1.93107
1.79236
1.90294
1.74982
1.93776
1.783
1.49909
1.33637
1.52817
1.36483
1.45129
1.27543
1.48283
1.30586
1.25909
1.25911
1.28721
1.28724
1.19426
1.19424
1.22413
1.22411
1.33647
1.49933
1.36493
1.52842
1.2754
1.4513
1.30582
1.48284
1.76301
1.90098
1.79293
1.93199
1.75004
1.90347
1.78323
1.9383
1.83872
1.70264
1.86939
1.73269
1.83322
1.68283
1.86825
1.71662
1.44013
1.2781
1.47001
1.30777
1.38699
1.21293
1.41964
1.24478
1.2012
1.20122
1.23073
1.23076
1.13266
1.13264
1.1641
1.16408
1.27818
1.44035
1.30786
1.47024
1.21289
1.38699
1.24474
1.41965
1.70315
1.83956
1.73322
1.87026
1.68302
1.83372
1.71683
1.86876
1.78089
1.64383
1.80912
1.67312
1.7655
1.6156
1.79895
1.64931
1.37958
1.21681
1.41029
1.24812
1.32036
1.14701
1.35422
1.1807
1.13974
1.13975
1.17122
1.17124
1.06725
1.06723
1.10074
1.10072
1.21688
1.37978
1.2482
1.4105
1.14696
1.32034
1.18065
1.35422
1.6443
1.78167
1.67361
1.80993
1.61577
1.76595
1.64949
1.79943
1.73798
1.58715
1.75619
1.61549
1.70972
1.54843
1.73493
1.58239
1.31517
1.15001
1.34844
1.18458
1.24894
1.07528
1.28586
1.11236
1.07249
1.0725
1.10723
1.10725
0.996014
0.995989
1.03276
1.03273
1.15006
1.31533
1.18464
1.34862
1.07522
1.24891
1.11231
1.28584
1.58756
1.7387
1.61594
1.75694
1.54857
1.71013
1.58254
1.73536
1.76276
1.50988
1.73507
1.55661
1.71644
1.4567
1.69843
1.51143
1.23398
1.07195
1.27844
1.11297
1.15948
0.992046
1.20829
1.03569
0.996198
0.996203
1.03581
1.03582
0.91581
0.915783
0.957382
0.957357
1.07198
1.2341
1.11301
1.27859
0.991982
1.15943
1.03563
1.20825
1.51023
1.76343
1.557
1.73576
1.4568
1.71679
1.51154
1.69881
1.03133
0.871019
0.784477
0.663939
0.945105
0.790885
0.697596
0.585644
0.566269
0.395574
0.396047
0.255009
0.492808
0.329836
0.329389
0.199
0.320285
0.320167
0.195878
0.195768
0.259255
0.25915
0.145851
0.145759
0.395229
0.565755
0.254668
0.395489
0.329523
0.492325
0.198709
0.328895
0.870494
1.03096
0.663286
0.783918
0.790364
0.944705
0.585036
0.697052
1.38648
1.20339
1.22669
1.05017
1.29518
1.11437
1.13802
0.965488
0.872843
0.677299
0.726429
0.539241
0.784805
0.593236
0.645298
0.463792
0.587294
0.587195
0.454546
0.454435
0.506181
0.506083
0.38286
0.382756
0.677027
0.872486
0.538926
0.725987
0.592959
0.784422
0.46349
0.644857
1.20313
1.38643
1.04978
1.22649
1.11404
1.29504
0.965059
1.13775
1.64823
1.46193
1.52543
1.3397
1.55383
1.36709
1.43212
1.24722
1.13068
0.929248
1.00745
0.807765
1.03257
0.83222
0.913705
0.71648
0.834621
0.834553
0.714761
0.714677
0.739109
0.739031
0.625682
0.625593
0.929074
1.13049
0.807541
1.00718
0.832011
1.03232
0.716235
0.913386
1.46193
1.6485
1.33957
1.52555
1.36697
1.55395
1.247
1.43211
1.85688
1.67252
1.75811
1.57248
1.7629
1.57596
1.66353
1.47632
1.34722
1.14612
1.24385
1.04216
1.24386
1.04141
1.14258
0.9407
1.05054
1.0505
0.946785
0.946733
0.946107
0.946052
0.846196
0.84613
1.14605
1.3472
1.04204
1.24375
1.04127
1.24375
0.940528
1.1424
1.67276
1.85743
1.5726
1.75853
1.57604
1.76327
1.47631
1.66378
2.02719
1.84628
1.94632
1.76363
1.9362
1.75093
1.8536
1.66739
1.52856
1.33005
1.44211
1.24217
1.42351
1.22158
1.33754
1.13517
1.23499
1.23498
1.14674
1.14672
1.12576
1.12573
1.03947
1.03943
1.33006
1.52869
1.24214
1.44217
1.22152
1.42351
1.13507
1.33749
1.84671
2.02797
1.76397
1.947
1.75119
1.93678
1.66756
1.85408
2.16725
1.99003
2.10071
1.92167
2.08075
1.8977
2.01184
1.82768
1.67987
1.48465
1.60785
1.41096
1.57541
1.37508
1.50287
1.30168
1.39069
1.39071
1.31642
1.31642
1.27949
1.27948
1.20591
1.20589
1.48473
1.68012
1.41101
1.60804
1.37508
1.57552
1.30165
1.50293
1.99062
2.16823
1.92219
2.1016
1.8981
2.08151
1.82801
2.01252
2.2824
2.10866
2.22777
2.05235
2.20108
2.02033
2.14382
1.96194
1.80549
1.61365
1.74583
1.55233
1.70302
1.50467
1.64224
1.44289
1.521
1.52103
1.45902
1.45905
1.40966
1.40966
1.34757
1.34757
1.61379
1.80584
1.55244
1.74613
1.50472
1.70321
1.44291
1.64239
2.10939
2.28353
2.05301
2.22883
2.02085
2.20199
1.96241
2.14466
2.37657
2.20601
2.33202
2.15993
2.30063
2.12206
2.2534
2.07377
1.90912
1.72052
1.86005
1.66988
1.8094
1.61313
1.75889
1.56159
1.6292
1.62925
1.57789
1.57794
1.51886
1.51888
1.46694
1.46696
1.72072
1.90955
1.67004
1.86044
1.61322
1.80967
1.56166
1.75912
2.20684
2.37784
2.16071
2.33322
2.12268
2.30167
2.07434
2.25437
2.45275
2.28506
2.41685
2.24779
2.38208
2.20556
2.34359
2.16608
1.9938
1.80822
1.95386
1.76682
1.89718
1.70297
1.85567
1.66045
1.71819
1.71826
1.67616
1.67622
1.6095
1.60953
1.56658
1.56661
1.80846
1.99429
1.76704
1.95432
1.7031
1.8975
1.66057
1.85597
2.28598
2.45413
2.24867
2.41818
2.20626
2.38322
2.16675
2.34468
2.51354
2.34841
2.48506
2.31871
2.44783
2.27321
2.41693
2.2414
2.06218
1.8794
2.0301
1.84597
1.96875
1.77655
1.93508
1.7419
1.79059
1.79067
1.75656
1.75663
1.6839
1.68394
1.64884
1.64888
1.87967
2.06274
1.84622
2.03062
1.77672
1.96913
1.74205
1.93543
2.34941
2.515
2.31967
2.48648
2.27399
2.44906
2.24214
2.41812
2.56099
2.39818
2.53894
2.37502
2.49987
2.32702
2.47558
2.30189
2.11649
1.93627
2.09119
1.90974
2.02618
1.83591
1.99934
1.80813
1.84861
1.8487
1.82151
1.8216
1.74406
1.74411
1.71589
1.71594
1.93657
2.11709
1.91002
2.09177
1.83609
2.02661
1.80831
1.99975
2.39924
2.56253
2.37605
2.54044
2.32785
2.50117
2.30269
2.47685
2.59691
2.43621
2.58044
2.41872
2.53997
2.36877
2.52147
2.34948
2.15863
1.98079
2.13921
1.96022
2.0713
1.88286
2.05042
1.86109
1.8942
1.8943
1.87311
1.8732
1.79182
1.79188
1.76965
1.7697
1.98111
2.15927
1.96053
2.13983
1.88307
2.07176
1.86128
2.05086
2.43732
2.59851
2.41981
2.582
2.36965
2.54134
2.35034
2.52281
2.62277
2.46402
2.61115
2.45146
2.56959
2.39995
2.55616
2.38576
2.19021
2.01458
2.17588
1.99919
2.10564
1.91897
2.08997
1.90244
1.92901
1.92911
1.91312
1.91322
1.82872
1.82878
1.8118
1.81186
2.01492
2.19088
1.99952
2.17654
1.9192
2.10613
1.90266
2.09044
2.46517
2.62443
2.45259
2.61277
2.40088
2.57101
2.38667
2.55755
2.6399
2.48296
2.6325
2.47469
2.59006
2.42193
2.58106
2.4122
2.21263
2.03906
2.20273
2.02817
2.13059
1.94564
2.11946
1.93368
1.95445
1.95456
1.94308
1.94319
1.85615
1.85622
1.84381
1.84388
2.03942
2.21333
2.02852
2.20341