/*--------------------------------*- C++ -*----------------------------------*\
  =========                 |
  \\      /  F ield         | OpenFOAM: The Open Source CFD Toolbox
   \\    /   O peration     | Website:  https://openfoam.org
    \\  /    A nd           | Version:  9
     \\/     M anipulation  |
\*---------------------------------------------------------------------------*/
FoamFile
{
    format      ascii;
    class       surfaceScalarField;
    location    "4.45";
    object      phi;
}
// * * * * * * * * * * * * * * * * * * * * * * * * * * * * * * * * * * * * * //

dimensions      [0 3 -1 0 0 0 0];

internalField   nonuniform List<scalar> 
104044
(
8.72924e-07
-7.11207e-05
-3.33616e-06
6.88421e-05
4.74183e-06
-4.49761e-05
9.11156e-07
-3.43668e-07
4.73292e-05
-2.04762e-06
6.52495e-07
-6.20385e-06
6.33321e-06
2.28771e-06
-2.66543e-07
-2.87938e-06
-3.00897e-07
-8.75281e-05
8.44928e-05
-3.08065e-05
1.7312e-07
3.12436e-05
-1.39696e-07
6.75732e-08
-2.52977e-08
-4.93657e-05
-2.93985e-06
4.93432e-05
2.64399e-06
-5.15811e-05
-2.33356e-06
-1.22631e-09
5.15008e-05
2.3898e-06
-1.64514e-08
-2.59117e-06
1.96059e-06
-2.21363e-06
-4.27289e-10
1.91129e-06
-4.03525e-09
-4.70153e-05
4.42526e-05
-5.41625e-05
-3.09408e-09
5.1828e-05
-1.0176e-08
-2.78584e-09
4.55785e-12
-5.26552e-05
-2.07716e-06
5.25838e-05
2.14734e-06
-5.26558e-05
-2.07698e-06
1.23242e-09
5.25843e-05
2.14724e-06
1.18394e-12
-2.00457e-06
1.70496e-06
-2.00441e-06
4.31104e-10
1.70486e-06
2.63258e-12
-5.6456e-05
5.43757e-05
-5.64568e-05
3.0926e-09
5.43767e-05
-4.7691e-13
2.78351e-09
2.52911e-08
-5.15826e-05
-2.33324e-06
5.15022e-05
2.38961e-06
-4.9367e-05
-2.94002e-06
3.4352e-07
4.93444e-05
2.64439e-06
1.64392e-08
-2.21321e-06
1.91099e-06
-2.59107e-06
2.66375e-07
1.9608e-06
4.05565e-09
-5.41659e-05
5.18317e-05
-4.70225e-05
-1.72887e-07
4.42594e-05
1.01735e-08
-6.74304e-08
-8.72341e-07
-4.49747e-05
9.07192e-07
4.73268e-05
-2.0435e-06
-7.11136e-05
-3.3333e-06
6.8837e-05
4.73752e-06
-6.51889e-07
2.28366e-06
-2.87563e-06
-6.19787e-06
6.32685e-06
3.00284e-07
-3.08128e-05
3.12469e-05
-8.7512e-05
8.44789e-05
1.39323e-07
3.02058e-07
-6.67261e-05
-4.45307e-06
6.49826e-05
5.89459e-06
-4.88029e-05
4.21395e-06
-9.98523e-08
4.97371e-05
-4.74618e-06
5.50659e-07
-3.82992e-06
5.39519e-06
2.73222e-06
-1.98832e-07
-3.45648e-06
-1.20313e-06
-8.14094e-05
7.81594e-05
-3.28432e-05
5.7524e-07
3.52788e-05
-7.46501e-07
3.86132e-07
1.15246e-08
-4.92833e-05
-1.38034e-06
4.92536e-05
1.2986e-06
-5.12639e-05
-1.44485e-06
-3.82736e-10
5.09305e-05
1.79009e-06
-1.17347e-08
-2.16933e-06
2.04212e-06
-1.98287e-06
-1.86724e-09
2.20992e-06
4.89797e-08
-4.24524e-05
4.15984e-05
-4.98635e-05
1.39066e-09
4.84663e-05
1.6941e-08
-1.45897e-09
6.50255e-12
-5.23529e-05
-1.36023e-06
5.19842e-05
1.72846e-06
-5.23533e-05
-1.36025e-06
4.06541e-10
5.19847e-05
1.7285e-06
4.48783e-12
-1.84656e-06
2.07559e-06
-1.84651e-06
1.87825e-09
2.07558e-06
6.03851e-12
-5.25277e-05
5.11689e-05
-5.25288e-05
-1.3671e-09
5.11699e-05
3.45294e-12
1.46919e-09
-1.1448e-08
-5.12652e-05
-1.44501e-06
5.09317e-05
1.79035e-06
-4.92843e-05
-1.38117e-06
9.98892e-08
4.92542e-05
1.2999e-06
1.17677e-08
-1.98291e-06
2.21002e-06
-2.17003e-06
1.98819e-07
2.04314e-06
-4.88687e-08
-4.98672e-05
4.84696e-05
-4.24582e-05
-5.74739e-07
4.1603e-05
-1.68787e-08
-3.85769e-07
-3.02213e-07
-4.88002e-05
4.20994e-06
4.97342e-05
-4.74181e-06
-6.67221e-05
-4.4492e-06
6.49792e-05
5.88989e-06
-5.50551e-07
2.72798e-06
-3.45197e-06
-3.82649e-06
5.39083e-06
1.20167e-06
-3.28436e-05
3.52772e-05
-8.13979e-05
7.81503e-05
7.45419e-07
-1.42662e-07
-6.35211e-05
-4.7338e-06
6.22728e-05
6.12474e-06
-5.04176e-05
5.1406e-06
1.83389e-08
5.09694e-05
-5.85343e-06
7.02837e-08
-4.60658e-06
5.99777e-06
4.80491e-06
-2.86267e-08
-5.38653e-06
-2.01934e-06
-7.51661e-05
7.24516e-05
-3.7739e-05
8.69779e-07
3.99905e-05
-1.61324e-06
7.31465e-07
1.15803e-07
-4.93009e-05
-5.2449e-07
4.94354e-05
2.92535e-07
-5.06422e-05
-7.11574e-07
1.5054e-08
5.0446e-05
1.00853e-06
5.84083e-08
-8.42944e-07
7.08634e-07
-1.00303e-06
5.91593e-09
1.34391e-06
1.37092e-07
-4.13973e-05
4.16055e-05
-4.75452e-05
1.71755e-08
4.69535e-05
8.96191e-08
7.66872e-09
-1.54573e-10
-5.16184e-05
-6.97876e-07
5.13172e-05
1.0143e-06
-5.16187e-05
-6.97846e-07
-1.55289e-08
5.13175e-05
1.01441e-06
8.42492e-12
-9.47478e-07
1.31926e-06
-9.47502e-07
-5.84637e-09
1.31932e-06
2.94671e-11
-5.0229e-05
4.95483e-05
-5.023e-05
-1.70371e-08
4.95492e-05
1.27303e-11
-7.62053e-09
-1.15786e-07
-5.06431e-05
-7.11878e-07
5.04466e-05
1.00872e-06
-4.9301e-05
-5.25215e-07
-1.8401e-08
4.9435e-05
2.93845e-07
-5.82574e-08
-1.00324e-06
1.3442e-06
-8.4371e-07
2.86543e-08
7.09936e-07
-1.37015e-07
-4.75483e-05
4.69564e-05
-4.14007e-05
-8.69243e-07
4.16077e-05
-8.94709e-08
-7.30933e-07
1.42171e-07
-5.04146e-05
5.13731e-06
5.09665e-05
-5.84974e-06
-6.35183e-05
-4.73026e-06
6.22705e-05
6.12026e-06
-7.06171e-08
4.80136e-06
-5.38257e-06
-4.60284e-06
5.99317e-06
2.01735e-06
-3.77361e-05
3.99868e-05
-7.5159e-05
7.24461e-05
1.6115e-06
-5.01973e-07
-6.12253e-05
-4.76329e-06
6.03301e-05
6.16043e-06
-5.142e-05
5.36035e-06
5.91062e-08
5.17942e-05
-6.29562e-06
-3.3068e-07
-4.70854e-06
6.08671e-06
5.22564e-06
4.51872e-08
-6.05211e-06
-2.67067e-06
-7.00853e-05
6.79927e-05
-4.19139e-05
1.04288e-06
4.35607e-05
-2.34217e-06
9.60055e-07
2.20872e-07
-4.96562e-05
-2.32197e-07
4.98942e-05
-1.67531e-07
-5.03441e-05
-3.43335e-07
3.62541e-08
5.03176e-05
5.54524e-07
1.69576e-07
-3.25176e-07
-2.00561e-08
-4.93713e-07
2.51664e-08
7.39955e-07
2.05201e-07
-4.20655e-05
4.2671e-05
-4.66057e-05
3.81842e-08
4.64294e-05
1.74841e-07
2.89617e-08
-8.52901e-11
-5.10979e-05
-4.09696e-07
5.09496e-05
5.9428e-07
-5.10981e-05
-4.10149e-07
-3.61091e-08
5.09498e-05
5.94415e-07
1.019e-10
-5.23801e-07
7.68166e-07
-5.23829e-07
-2.48374e-08
7.68228e-07
-1.1159e-09
-4.90533e-05
4.86829e-05
-4.90538e-05
-4.19193e-08
4.86844e-05
1.72128e-10
-2.82038e-08
-2.20368e-07
-5.03446e-05
-3.43779e-07
5.03178e-05
5.54838e-07
-4.96557e-05
-2.31897e-07
-5.92727e-08
4.98932e-05
-1.66686e-07
-1.69402e-07
-4.93719e-07
7.40273e-07
-3.25923e-07
-4.51725e-08
-1.89818e-08
-2.09089e-07
-4.66077e-05
4.64311e-05
-4.20676e-05
-1.04382e-06
4.26704e-05
-1.73253e-07
-9.59068e-07
5.01259e-07
-5.14173e-05
5.35763e-06
5.17914e-05
-6.29229e-06
-6.12234e-05
-4.75998e-06
6.03284e-05
6.15624e-06
3.30138e-07
5.22256e-06
-6.04864e-06
-4.70521e-06
6.08243e-06
2.6679e-06
-4.19102e-05
4.35561e-05
-7.0081e-05
6.7989e-05
2.34016e-06
-7.71914e-07
-5.95736e-05
-4.74188e-06
5.89242e-05
6.16315e-06
-5.21035e-05
5.43157e-06
5.28259e-08
5.23628e-05
-6.51556e-06
-6.40828e-07
-4.70288e-06
6.10026e-06
5.34734e-06
5.99324e-08
-6.35742e-06
-3.15939e-06
-6.61938e-05
6.46113e-05
-4.49181e-05
1.13065e-06
4.60597e-05
-2.90404e-06
1.08584e-06
3.0433e-07
-5.0149e-05
-1.8571e-07
5.04135e-05
-3.30337e-07
-5.03503e-05
-1.49478e-07
5.96392e-08
5.04288e-05
3.15605e-07
2.62538e-07
-1.9172e-07
-2.65644e-07
-2.28851e-07
4.70092e-08
4.11675e-07
2.60568e-07
-4.3329e-05
4.40134e-05
-4.63823e-05
6.13834e-08
4.6432e-05
2.36083e-07
5.42923e-08
-3.61304e-11
-5.08649e-05
-2.50667e-07
5.08316e-05
3.43611e-07
-5.0865e-05
-2.50895e-07
-5.95797e-08
5.08317e-05
3.43734e-07
-7.04227e-12
-3.18255e-07
4.49987e-07
-3.17675e-07
-4.76215e-08
4.50099e-07
-4.18839e-10
-4.84168e-05
4.82279e-05
-4.84169e-05
-6.31212e-08
4.82287e-05
2.1258e-09
-4.79846e-08
-3.04112e-07
-5.03504e-05
-1.4969e-07
5.04288e-05
3.15849e-07
-5.01482e-05
-1.85824e-07
-5.30204e-08
5.04125e-05
-3.29574e-07
-2.62677e-07
-2.29545e-07
4.11988e-07
-1.93035e-07
-5.98869e-08
-2.64721e-07
-2.61765e-07
-4.63842e-05
4.64332e-05
-4.33301e-05
-1.13058e-06
4.40131e-05
-2.30691e-07
-1.08339e-06
7.71166e-07
-5.21011e-05
5.42877e-06
5.23605e-05
-6.51231e-06
-5.95723e-05
-4.73891e-06
5.89231e-05
6.15925e-06
6.40255e-07
5.34416e-06
-6.35404e-06
-4.69997e-06
6.09633e-06
3.15684e-06
-4.49145e-05
4.60558e-05
-6.61913e-05
6.46093e-05
2.90234e-06
-9.68359e-07
-5.83716e-05
-4.71545e-06
5.78951e-05
6.16029e-06
-5.25819e-05
5.46854e-06
2.22368e-08
5.27692e-05
-6.64639e-06
-8.69368e-07
-4.67649e-06
6.09854e-06
5.39335e-06
3.90455e-08
-6.52092e-06
-3.51602e-06
-6.32532e-05
6.20538e-05
-4.69934e-05
1.165e-06
4.7781e-05
-3.31838e-06
1.14121e-06
3.64046e-07
-5.06736e-05
-2.2102e-07
5.0928e-05
-3.752e-07
-5.05397e-05
-4.99567e-08
8.26791e-08
5.06751e-05
1.95911e-07
3.33742e-07
-1.96417e-07
-3.58403e-07
-9.0108e-08
7.06237e-08
2.42336e-07
3.02653e-07
-4.46775e-05
4.53188e-05
-4.65506e-05
8.24772e-08
4.67208e-05
2.80697e-07
7.20057e-08
2.63407e-11
-5.08409e-05
-1.44695e-07
5.08847e-05
1.83565e-07
-5.08409e-05
-1.44773e-07
-8.25758e-08
5.08847e-05
1.83644e-07
7.00375e-12
-1.9119e-07
2.52527e-07
-1.91278e-07
-7.05522e-08
2.52624e-07
2.27592e-11
-4.81088e-05
4.80465e-05
-4.81093e-05
-8.23986e-08
4.80469e-05
-3.44264e-12
-7.18784e-08
-3.63786e-07
-5.05395e-05
-5.01399e-08
5.06748e-05
1.96054e-07
-5.06725e-05
-2.21125e-07
-2.24394e-08
5.09269e-05
-3.74578e-07
-3.33496e-07
-9.03353e-08
2.42534e-07
-1.96567e-07
-3.92303e-08
-3.57731e-07
-3.02457e-07
-4.65515e-05
4.67214e-05
-4.46769e-05
-1.16462e-06
4.53179e-05
-2.80485e-07
-1.14084e-06
9.67595e-07
-5.25798e-05
5.4658e-06
5.27672e-05
-6.64323e-06
-5.83705e-05
-4.71261e-06
5.78942e-05
6.15656e-06
8.68617e-07
5.39062e-06
-6.51775e-06
-4.67359e-06
6.09476e-06
3.51347e-06
-4.69898e-05
4.77775e-05
-6.32515e-05
6.20524e-05
3.31587e-06
-1.10764e-06
-5.74863e-05
-4.68589e-06
5.71323e-05
6.14752e-06
-5.29313e-05
5.48587e-06
-1.73468e-08
5.30716e-05
-6.71646e-06
-1.03335e-06
-4.64763e-06
6.08974e-06
5.41888e-06
2.93973e-09
-6.61724e-06
-3.768e-06
-6.10217e-05
6.01038e-05
-4.84271e-05
1.1681e-06
4.89768e-05
-3.61551e-06
1.15726e-06
4.01638e-07
-5.11692e-05
-2.78529e-07
5.13997e-05
-3.70999e-07
-5.08254e-05
-4.79122e-09
1.03343e-07
5.09885e-05
1.4e-07
3.81251e-07
-2.47508e-07
-3.7195e-07
-2.24857e-08
9.24309e-08
1.61031e-07
3.31612e-07
-4.59133e-05
4.64712e-05
-4.69232e-05
9.93173e-08
4.71507e-05
3.15299e-07
9.04324e-08
4.15443e-11
-5.09553e-05
-6.98992e-08
5.10484e-05
8.01295e-08
-5.09553e-05
-6.99539e-08
-1.03209e-07
5.10483e-05
8.01679e-08
3.50878e-11
-1.02982e-07
1.24728e-07
-1.03049e-07
-9.23095e-08
1.24785e-07
4.16664e-11
-4.80339e-05
4.80633e-05
-4.80342e-05
-9.91971e-08
4.80635e-05
3.3882e-11
-9.03274e-08
-4.01377e-07
-5.0825e-05
-4.91997e-09
5.0988e-05
1.40061e-07
-5.1168e-05
-2.78569e-07
1.71049e-08
5.13985e-05
-3.7045e-07
-3.80992e-07
-2.26231e-08
1.6113e-07
-2.47577e-07
-3.16008e-09
-3.71375e-07
-3.3139e-07
-4.69235e-05
4.71508e-05
-4.59122e-05
-1.16776e-06
4.647e-05
-3.15087e-07
-1.15691e-06
1.10688e-06
-5.29294e-05
5.48317e-06
5.30698e-05
-6.71336e-06
-5.74855e-05
-4.68317e-06
5.71316e-05
6.14397e-06
1.03259e-06
5.41619e-06
-6.61415e-06
-4.64486e-06
6.08613e-06
3.76544e-06
-4.84238e-05
4.89737e-05
-6.10205e-05
6.01028e-05
3.61298e-06
-1.20516e-06
-5.68256e-05
-4.65511e-06
5.65589e-05
6.12698e-06
-5.31958e-05
5.48848e-06
-5.75955e-08
5.33047e-05
-6.74493e-06
-1.14948e-06
-4.62047e-06
6.07668e-06
5.43137e-06
-3.72774e-08
-6.66783e-06
-3.94265e-06
-5.93091e-05
5.85967e-05
-4.94309e-05
1.15481e-06
4.98219e-05
-3.82582e-06
1.15151e-06
4.22815e-07
-5.16153e-05
-3.32964e-07
5.18194e-05
-3.5152e-07
-5.11555e-05
1.66836e-08
1.20406e-07
5.13254e-05
1.15768e-07
4.09872e-07
-3.04555e-07
-3.58207e-07
7.89625e-09
1.11192e-07
1.23777e-07
3.50087e-07
-4.69795e-05
4.74513e-05
-4.7392e-05
1.12243e-07
4.76466e-05
3.38665e-07
1.05243e-07
4.9536e-11
-5.11582e-05
-1.94767e-08
5.12805e-05
1.74574e-08
-5.1158e-05
-1.95146e-08
-1.20255e-07
5.12804e-05
1.74639e-08
4.55131e-11
-4.26368e-08
4.40262e-08
-4.26835e-08
-1.1105e-07
4.4048e-08
5.03241e-11
-4.81259e-05
4.82186e-05
-4.8126e-05
-1.12109e-07
4.82186e-05
4.6228e-11
-1.05116e-07
-4.22567e-07
-5.11549e-05
1.66092e-08
5.13249e-05
1.15775e-07
-5.16141e-05
-3.32965e-07
5.73224e-08
5.18182e-05
-3.51018e-07
-4.0962e-07
7.80529e-09
1.23812e-07
-3.04574e-07
3.70214e-08
-3.57688e-07
-3.49862e-07
-4.73919e-05
4.76463e-05
-4.69781e-05
-1.15452e-06
4.74498e-05
-3.38443e-07
-1.15119e-06
1.2044e-06
-5.31942e-05
5.48581e-06
5.33031e-05
-6.74189e-06
-5.68249e-05
-4.6525e-06
5.65582e-05
6.12356e-06
1.14872e-06
5.42872e-06
-6.66479e-06
-4.61781e-06
6.07322e-06
3.9401e-06
-4.9428e-05
4.98192e-05
-5.93083e-05
5.85959e-05
3.82329e-06
-1.2712e-06
-5.63253e-05
-4.61743e-06
5.61213e-05
6.09265e-06
-5.34033e-05
5.47294e-06
-9.4436e-08
5.34905e-05
-6.73694e-06
-1.22903e-06
-4.58564e-06
6.04826e-06
5.42366e-06
-7.57467e-08
-6.67555e-06
-4.05623e-06
-5.79767e-05
5.74155e-05
-5.0147e-05
1.13237e-06
5.04313e-05
-3.96572e-06
1.13285e-06
4.31452e-07
-5.20093e-05
-3.77333e-07
5.21885e-05
-3.27768e-07
-5.14939e-05
1.78406e-08
1.33679e-07
5.16625e-05
1.11288e-07
4.24075e-07
-3.53705e-07
-3.36013e-07
1.85809e-08
1.26411e-07
1.10661e-07
3.60253e-07
-4.78779e-05
4.82727e-05
-4.79017e-05
1.21081e-07
4.81587e-05
3.52479e-07
1.15966e-07
5.47853e-11
-5.14071e-05
1.38364e-08
5.15451e-05
-1.82135e-08
-5.1407e-05
1.38148e-08
-1.33518e-07
5.1545e-05
-1.82311e-08
5.20573e-11
2.4947e-10
-4.87558e-10
2.21824e-10
-1.26256e-07
-4.92654e-10
5.51659e-11
-4.83348e-05
4.84696e-05
-4.83347e-05
-1.20942e-07
4.84696e-05
5.25458e-11
-1.1583e-07
-4.3122e-07
-5.14933e-05
1.78231e-08
5.16619e-05
1.11251e-07
-5.20081e-05
-3.7731e-07
9.41406e-08
5.21874e-05
-3.27296e-07
-4.23837e-07
1.85411e-08
1.10643e-07
-3.53693e-07
7.54644e-08
-3.35531e-07
-3.60032e-07
-4.79013e-05
4.81582e-05
-4.78765e-05
-1.13212e-06
4.82712e-05
-3.52258e-07
-1.13258e-06
1.27047e-06
-5.34019e-05
5.47031e-06
5.34892e-05
-6.73396e-06
-5.63247e-05
-4.6149e-06
5.61207e-05
6.08936e-06
1.22829e-06
5.42104e-06
-6.67257e-06
-4.58307e-06
6.04493e-06
4.05371e-06
-5.01444e-05
5.04289e-05
-5.7976e-05
5.74148e-05
3.96321e-06
-1.31487e-06
-5.59402e-05
-4.57562e-06
5.57813e-05
6.04938e-06
-5.3571e-05
5.4447e-06
-1.26334e-07
5.36426e-05
-6.70476e-06
-1.28316e-06
-4.54897e-06
6.01315e-06
5.40477e-06
-1.09911e-07
-6.65851e-06
-4.12599e-06
-5.69237e-05
5.64741e-05
-5.067e-05
1.10616e-06
5.08826e-05
-4.05712e-06
1.10896e-06
4.31806e-07
-5.23551e-05
-4.12256e-07
5.25114e-05
-3.02241e-07
-5.18267e-05
8.34045e-09
1.43697e-07
5.19887e-05
1.17829e-07
4.28315e-07
-3.92791e-07
-3.11977e-07
1.38424e-08
1.37665e-07
1.12602e-07
3.64512e-07
-4.86293e-05
4.89587e-05
-4.84091e-05
1.26433e-07
4.86555e-05
3.59571e-07
1.22975e-07
5.72131e-11
-5.16858e-05
3.47134e-08
5.18296e-05
-3.48969e-08
-5.16856e-05
3.46989e-08
-1.43528e-07
5.18295e-05
-3.49293e-08
5.57602e-11
2.54791e-08
-2.85585e-08
2.5461e-08
-1.37501e-07
-2.85836e-08
5.74344e-11
-4.8618e-05
4.87791e-05
-4.86179e-05
-1.26295e-07
4.8779e-05
5.60703e-11
-1.22837e-07
-4.31591e-07
-5.18261e-05
8.35382e-09
5.1988e-05
1.17771e-07
-5.2354e-05
-4.12222e-07
1.26022e-07
5.25104e-05
-3.01786e-07
-4.28094e-07
1.38451e-08
1.12553e-07
-3.92762e-07
1.0961e-07
-3.11521e-07
-3.64298e-07
-4.84085e-05
4.86549e-05
-4.86278e-05
-1.10593e-06
4.89573e-05
-3.59355e-07
-1.10872e-06
1.31415e-06
-5.35698e-05
5.44211e-06
5.36414e-05
-6.70184e-06
-5.59397e-05
-4.57315e-06
5.57808e-05
6.04619e-06
1.28243e-06
5.40219e-06
-6.65559e-06
-4.54648e-06
6.00993e-06
4.12351e-06
-5.06677e-05
5.08804e-05
-5.6923e-05
5.64733e-05
4.05464e-06
-1.34156e-06
-5.5638e-05
-4.5279e-06
5.55109e-05
5.99651e-06
-5.37095e-05
5.40236e-06
-1.53079e-07
5.37686e-05
-6.64991e-06
-1.31687e-06
-4.50253e-06
5.96278e-06
5.3676e-06
-1.38857e-07
-6.61253e-06
-4.16103e-06
-5.60779e-05
5.5711e-05
-5.10623e-05
1.07815e-06
5.12255e-05
-4.10633e-06
1.0815e-06
4.27021e-07
-5.26559e-05
-4.39675e-07
5.27905e-05
-2.74999e-07
-5.21433e-05
-5.12636e-09
1.50892e-07
5.22933e-05
1.31203e-07
4.25603e-07
-4.23451e-07
-2.85469e-07
2.15348e-09
1.46132e-07
1.22693e-07
3.6444e-07
-4.92555e-05
4.95295e-05
-4.88922e-05
1.29073e-07
4.91225e-05
3.61318e-07
1.26778e-07
5.65734e-11
-5.19719e-05
4.45958e-08
5.21139e-05
-3.57591e-08
-5.19717e-05
4.45895e-08
-1.50725e-07
5.21137e-05
-3.58023e-08
5.68469e-11
4.04104e-08
-3.65982e-08
4.03991e-08
-1.45964e-07
-3.66363e-08
6.6962e-11
-4.89462e-05
4.91198e-05
-4.89461e-05
-1.28925e-07
4.91196e-05
5.80729e-11
-1.26643e-07
-4.26817e-07
-5.21427e-05
-5.07278e-09
5.22927e-05
1.31128e-07
-5.26549e-05
-4.39628e-07
1.52728e-07
5.27895e-05
-2.74558e-07
-4.25399e-07
2.18158e-09
1.22625e-07
-4.23413e-07
1.38537e-07
-2.85025e-07
-3.64245e-07
-4.88915e-05
4.91218e-05
-4.9254e-05
-1.07797e-06
4.95281e-05
-3.61112e-07
-1.08129e-06
1.34085e-06
-5.37083e-05
5.39982e-06
5.37674e-05
-6.64703e-06
-5.56374e-05
-4.52549e-06
5.55103e-05
5.99342e-06
1.31616e-06
5.36506e-06
-6.60967e-06
-4.5001e-06
5.95966e-06
4.15858e-06
-5.10603e-05
5.12235e-05
-5.60771e-05
5.57102e-05
4.1039e-06
-1.35478e-06
-5.53934e-05
-4.47559e-06
5.52869e-05
5.93689e-06
-5.38244e-05
5.34506e-06
-1.70711e-07
5.38703e-05
-6.57502e-06
-1.33696e-06
-4.45472e-06
5.90916e-06
5.32076e-06
-1.63146e-07
-6.55038e-06
-4.16917e-06
-5.53847e-05
5.50783e-05
-5.13641e-05
1.04943e-06
5.14905e-05
-4.12847e-06
1.05373e-06
4.20007e-07
-5.29132e-05
-4.59854e-07
5.30281e-05
-2.45746e-07
-5.24348e-05
-2.07342e-08
1.5538e-07
5.25698e-05
1.50366e-07
4.19447e-07
-4.47358e-07
-2.57968e-07
-1.28709e-08
1.51976e-07
1.38861e-07
3.6148e-07
-4.97761e-05
5.00042e-05
-4.93409e-05
1.2978e-07
4.95519e-05
3.59752e-07
1.28438e-07
1.24761e-10
-5.22514e-05
4.53117e-08
5.23857e-05
-2.43242e-08
-5.22512e-05
4.53013e-08
-1.54971e-07
5.23854e-05
-2.43894e-08
5.10535e-11
4.55475e-08
-3.11113e-08
4.55566e-08
-1.51857e-07
-3.11557e-08
1.0345e-10
-4.92937e-05
4.94687e-05
-4.92935e-05
-1.29537e-07
4.94684e-05
1.18422e-10
-1.2816e-07
-4.18941e-07
-5.24343e-05
-2.0896e-08
5.25689e-05
1.50225e-07
-5.29126e-05
-4.60238e-07
1.73895e-07
5.30259e-05
-2.45847e-07
-4.19133e-07
-1.31437e-08
1.38809e-07
-4.47315e-07
1.62606e-07
-2.57558e-07
-3.61285e-07
-4.93401e-05
4.9551e-05
-4.97748e-05
-1.04951e-06
5.00028e-05
-3.59663e-07
-1.05364e-06
1.35496e-06
-5.38229e-05
5.34302e-06
5.38707e-05
-6.57183e-06
-5.53928e-05
-4.47311e-06
5.52869e-05
5.93399e-06
1.3363e-06
5.31831e-06
-6.54752e-06
-4.45232e-06
5.90615e-06
4.16678e-06
-5.13622e-05
5.14889e-05
-5.53839e-05
5.50776e-05
4.12604e-06
-1.35763e-06
-5.51858e-05
-4.42007e-06
5.50901e-05
5.87339e-06
-5.3914e-05
5.27195e-06
-1.78194e-07
5.39442e-05
-6.48157e-06
-1.34567e-06
-4.39887e-06
5.84567e-06
5.25447e-06
-1.8018e-07
-6.4637e-06
-4.15635e-06
-5.48033e-05
5.45396e-05
-5.15958e-05
1.02069e-06
5.16907e-05
-4.1239e-06
1.02535e-06
4.12014e-07
-5.31304e-05
-4.733e-07
5.32267e-05
-2.13244e-07
-5.26944e-05
-3.83293e-08
1.57836e-07
5.28117e-05
1.75224e-07
4.10085e-07
-4.64109e-07
-2.28485e-07
-2.95309e-08
1.54561e-07
1.60466e-07
3.56644e-07
-5.02098e-05
5.04005e-05
-4.97499e-05
1.29103e-07
4.99391e-05
3.55666e-07
1.28126e-07
3.40615e-10
-5.25123e-05
3.84305e-08
5.26314e-05
-4.59127e-11
-5.25122e-05
3.83636e-08
-1.56693e-07
5.26311e-05
-1.75168e-10
-1.36474e-10
4.20867e-08
-1.40255e-08
4.21174e-08
-1.5507e-07
-1.40296e-08
1.60507e-10
-4.96389e-05
4.98063e-05
-4.96387e-05
-1.28736e-07
4.9806e-05
-8.52113e-12
-1.28191e-07
-4.091e-07
-5.26944e-05
-3.87481e-08
5.28106e-05
1.74898e-07
-5.31317e-05
-4.74635e-07
1.88106e-07
5.32238e-05
-2.14695e-07
-4.11933e-07
-2.90779e-08
1.60535e-07
-4.63159e-07
1.72147e-07
-2.26756e-07
-3.56398e-07
-4.97492e-05
4.99382e-05
-5.02087e-05
-1.02143e-06
5.03991e-05
-3.55522e-07
-1.02458e-06
1.35971e-06
-5.39106e-05
5.27099e-06
5.39456e-05
-6.47755e-06
-5.51843e-05
-4.41729e-06
5.50904e-05
5.87088e-06
1.34298e-06
5.25099e-06
-6.46178e-06
-4.39688e-06
5.84242e-06
4.15402e-06
-5.15938e-05
5.16893e-05
-5.48022e-05
5.4539e-05
4.12151e-06
-1.35568e-06
-5.49959e-05
-4.36472e-06
5.49041e-05
5.81225e-06
-5.3973e-05
5.1901e-06
-1.89673e-07
5.39885e-05
-6.37157e-06
-1.34536e-06
-4.34294e-06
5.78246e-06
5.17633e-06
-1.8879e-07
-6.36173e-06
-4.12887e-06
-5.42993e-05
5.40635e-05
-5.17669e-05
9.93812e-07
5.18343e-05
-4.10265e-06
9.97456e-07
4.01196e-07
-5.33086e-05
-4.86174e-07
5.33819e-05
-1.77949e-07
-5.29172e-05
-5.82847e-08
1.55975e-07
5.30138e-05
2.06948e-07
4.00889e-07
-4.76526e-07
-1.95025e-07
-4.79013e-08
1.55068e-07
1.88182e-07
3.5066e-07
-5.05713e-05
5.07283e-05
-5.01145e-05
1.27322e-07
5.02795e-05
3.5016e-07
1.26893e-07
1.11802e-10
-5.27419e-05
2.65543e-08
5.28448e-05
2.64778e-08
-5.27418e-05
2.6542e-08
-1.55604e-07
5.28446e-05
2.64142e-08
-8.87356e-11
3.28942e-08
1.17291e-08
3.29199e-08
-1.55471e-07
1.17476e-08
7.30487e-11
-4.9966e-05
5.01199e-05
-4.99658e-05
-1.27154e-07
5.01196e-05
1.88254e-11
-1.26882e-07
-4.00374e-07
-5.29169e-05
-5.8296e-08
5.30132e-05
2.06811e-07
-5.33089e-05
-4.86488e-07
1.92297e-07
5.33807e-05
-1.78025e-07
-4.02371e-07
-4.76108e-08
1.88219e-07
-4.75762e-07
1.81812e-07
-1.93431e-07
-3.50427e-07
-5.01137e-05
5.02787e-05
-5.05701e-05
-9.93802e-07
5.0727e-05
-3.50033e-07
-9.96839e-07
1.35574e-06
-5.3971e-05
5.18803e-06
5.39881e-05
-6.36855e-06
-5.4995e-05
-4.36237e-06
5.49037e-05
5.80945e-06
1.343e-06
5.17308e-06
-6.35969e-06
-4.34092e-06
5.77934e-06
4.1266e-06
-5.17653e-05
5.18329e-05
-5.42983e-05
5.40626e-05
4.1003e-06
-1.34567e-06
-5.48086e-05
-4.30566e-06
5.47116e-05
5.74825e-06
-5.39986e-05
5.09257e-06
-1.96503e-07
5.39949e-05
-6.23806e-06
-1.33817e-06
-4.28634e-06
5.72004e-06
5.08643e-06
-1.92579e-07
-6.24211e-06
-4.08528e-06
-5.38442e-05
5.36238e-05
-5.18833e-05
9.66903e-07
5.19237e-05
-4.06708e-06
9.7038e-07
3.90413e-07
-5.34422e-05
-4.98682e-07
5.34903e-05
-1.36351e-07
-5.30977e-05
-8.06957e-08
1.52417e-07
5.31699e-05
2.46506e-07
3.91508e-07
-4.88282e-07
-1.56142e-07
-6.85877e-08
1.52667e-07
2.23531e-07
3.43577e-07
-5.08667e-05
5.09913e-05
-5.04297e-05
1.24912e-07
5.05677e-05
3.4369e-07
1.24892e-07
7.16656e-11
-5.29359e-05
8.40176e-09
5.30157e-05
6.41565e-08
-5.29357e-05
8.40472e-09
-1.52218e-07
5.30155e-05
6.41007e-08
5.02196e-11
1.79126e-08
4.35892e-08
1.79179e-08
-1.52548e-07
4.35397e-08
7.62466e-11
-5.02626e-05
5.03958e-05
-5.02623e-05
-1.24747e-07
5.03955e-05
6.15366e-11
-1.24757e-07
-3.90169e-07
-5.30972e-05
-8.06329e-08
5.31693e-05
2.46408e-07
-5.34415e-05
-4.98719e-07
1.96565e-07
5.34896e-05
-1.36021e-07
-3.915e-07
-6.8506e-08
2.23449e-07
-4.88221e-07
1.91472e-07
-1.55597e-07
-3.43348e-07
-5.04289e-05
5.05669e-05
-5.08655e-05
-9.66737e-07
5.09901e-05
-3.43488e-07
-9.70174e-07
1.34514e-06
-5.39977e-05
5.09024e-06
5.39942e-05
-6.23534e-06
-5.4808e-05
-4.30343e-06
5.47111e-05
5.74544e-06
1.33738e-06
5.08399e-06
-6.23949e-06
-4.28413e-06
5.71719e-06
4.08304e-06
-5.18819e-05
5.19224e-05
-5.38433e-05
5.36229e-05
4.06483e-06
-1.33275e-06
-5.46066e-05
-4.24974e-06
5.44968e-05
5.69235e-06
-5.39829e-05
4.98521e-06
-1.99748e-07
5.39556e-05
-6.09086e-06
-1.32612e-06
-4.23026e-06
5.6614e-06
4.98664e-06
-1.96859e-07
-6.10395e-06
-4.0314e-06
-5.34138e-05
5.31955e-05
-5.19454e-05
9.41138e-07
5.19581e-05
-4.02028e-06
9.44651e-07
3.80277e-07
-5.35249e-05
-5.1237e-07
5.3545e-05
-8.76819e-08
-5.32277e-05
-1.07168e-07
1.47433e-07
5.3271e-05
2.96679e-07
3.81363e-07
-5.01111e-07
-1.11753e-07
-9.24883e-08
1.48694e-07
2.67333e-07
3.36167e-07
-5.10983e-05
5.11909e-05
-5.06894e-05
1.22255e-07
5.07961e-05
3.36557e-07
1.22372e-07
1.17771e-10
-5.30806e-05
-1.69627e-08
5.31319e-05
1.12984e-07
-5.30804e-05
-1.69566e-08
-1.47134e-07
5.31318e-05
1.12907e-07
7.54166e-11
-2.53586e-09
8.62038e-08
-2.53065e-09
-1.48501e-07
8.61467e-08
1.48551e-10
-5.05156e-05
5.06207e-05
-5.05153e-05
-1.2196e-07
5.06204e-05
9.92313e-11
-1.22172e-07
-3.79874e-07
-5.32272e-05
-1.07101e-07
5.32705e-05
2.96505e-07
-5.35244e-05
-5.12423e-07
2.01313e-07
5.35447e-05
-8.90599e-08
-3.81194e-07
-9.24143e-08
2.67233e-07
-5.01098e-07
1.96447e-07
-1.11367e-07
-3.35813e-07
-5.06886e-05
5.07953e-05
-5.10972e-05
-9.40932e-07
5.11899e-05
-3.363e-07
-9.44451e-07
1.33253e-06
-5.39821e-05
4.98305e-06
5.3956e-05
-6.08818e-06
-5.46061e-05
-4.24753e-06
5.44966e-05
5.68952e-06
1.32552e-06
4.98433e-06
-6.10133e-06
-4.22806e-06
5.65859e-06
4.02928e-06
-5.19441e-05
5.1957e-05
-5.34129e-05
5.31947e-05
4.01809e-06
-1.31612e-06
-5.43752e-05
-4.1974e-06
5.42438e-05
5.64492e-06
-5.39181e-05
4.86948e-06
-2.02364e-07
5.38608e-05
-5.92597e-06
-1.3125e-06
-4.17616e-06
5.61022e-06
4.87701e-06
-2.02757e-07
-5.94925e-06
-3.96997e-06
-5.29801e-05
5.27527e-05
-5.19548e-05
9.16825e-07
5.19375e-05
-3.9608e-06
9.1945e-07
3.70177e-07
-5.35523e-05
-5.30512e-07
5.35422e-05
-3.19963e-08
-5.32978e-05
-1.38554e-07
1.4186e-07
5.33071e-05
3.57623e-07
3.71806e-07
-5.15746e-07
-6.61087e-08
-1.21154e-07
1.43136e-07
3.2302e-07
3.28315e-07
-5.12655e-05
5.13235e-05
-5.08844e-05
1.19314e-07
5.09549e-05
3.29133e-07
1.19686e-07
1.19428e-10
-5.31662e-05
-4.87983e-08
5.31828e-05
1.74011e-07
-5.3166e-05
-4.87818e-08
-1.41558e-07
5.31826e-05
1.73927e-07
1.45323e-10
-3.18943e-08
1.40581e-07
-3.18822e-08
-1.42696e-07
1.40447e-07
1.51508e-10
-5.07083e-05
5.07787e-05
-5.0708e-05
-1.18992e-07
5.07783e-05
1.80913e-10
-1.19258e-07
-3.69701e-07
-5.32973e-05
-1.38477e-07
5.33065e-05
3.57373e-07
-5.35513e-05
-5.30623e-07
2.02816e-07
5.35414e-05
-3.20248e-08
-3.70838e-07
-1.2109e-07
3.22481e-07
-5.16109e-07
1.96975e-07
-5.83391e-08
-3.2791e-07
-5.08835e-05
5.0954e-05
-5.12642e-05
-9.16561e-07
5.13223e-05
-3.2853e-07
-9.18985e-07
1.31561e-06
-5.39164e-05
4.86719e-06
5.386e-05
-5.92356e-06
-5.43743e-05
-4.19528e-06
5.42431e-05
5.64206e-06
1.31039e-06
4.87392e-06
-5.94775e-06
-4.17427e-06
5.60703e-06
3.96784e-06
-5.19533e-05
5.19361e-05
-5.2979e-05
5.27515e-05
3.95859e-06
-1.29678e-06
-5.40965e-05
-4.15079e-06
5.39353e-05
5.60874e-06
-5.379e-05
4.74357e-06
-2.02542e-07
5.36965e-05
-5.74432e-06
-1.29375e-06
-4.12747e-06
5.56852e-06
4.75625e-06
-2.00796e-07
-5.77842e-06
-3.90638e-06
-5.25258e-05
5.22814e-05
-5.18964e-05
8.94857e-07
5.18387e-05
-3.90057e-06
8.96826e-07
3.58968e-07
-5.35138e-05
-5.58519e-07
5.3468e-05
4.27569e-08
-5.32968e-05
-1.7575e-07
1.37245e-07
5.32652e-05
4.29097e-07
3.60969e-07
-5.38426e-07
5.134e-09
-1.54889e-07
1.38011e-07
3.88066e-07
3.19922e-07
-5.13609e-05
5.13773e-05
-5.10044e-05
1.1609e-07
5.10325e-05
3.20973e-07
1.16553e-07
6.49265e-11
-5.31795e-05
-8.68196e-08
5.31545e-05
2.48951e-07
-5.31793e-05
-8.68064e-08
-1.37075e-07
5.31543e-05
2.48895e-07
8.13393e-11
-6.63705e-08
2.07587e-07
-6.63571e-08
-1.37808e-07
2.07525e-07
7.96554e-11
-5.08288e-05
5.08579e-05
-5.08284e-05
-1.15921e-07
5.08576e-05
1.11867e-10
-1.16332e-07
-3.58767e-07
-5.32964e-05
-1.75679e-07
5.32647e-05
4.28978e-07
-5.35131e-05
-5.58591e-07
2.02357e-07
5.34674e-05
4.31285e-08
-3.60727e-07
-1.54812e-07
3.87922e-07
-5.38469e-07
2.00636e-07
5.45486e-09
-3.19687e-07
-5.10035e-05
5.10316e-05
-5.13597e-05
-8.94685e-07
5.13761e-05
-3.20689e-07
-8.96622e-07
1.29626e-06
-5.37893e-05
4.74133e-06
5.36959e-05
-5.74179e-06
-5.40959e-05
-4.14868e-06
5.39347e-05
5.60609e-06
1.29323e-06
4.75402e-06
-5.77592e-06
-4.12535e-06
5.56581e-06
3.90428e-06
-5.1895e-05
5.18374e-05
-5.25247e-05
5.22803e-05
3.89848e-06
-1.27514e-06
-5.37535e-05
-4.10914e-06
5.35525e-05
5.58529e-06
-5.35855e-05
4.60767e-06
-2.00061e-07
5.34468e-05
-5.5441e-06
-1.27306e-06
-4.08232e-06
5.5372e-06
4.62537e-06
-1.99393e-07
-5.58799e-06
-3.83378e-06
-5.20306e-05
5.17553e-05
-5.17574e-05
8.73588e-07
5.16577e-05
-3.83152e-06
8.75106e-07
3.46217e-07
-5.33945e-05
-5.99946e-07
5.32931e-05
1.55001e-07
-5.32102e-05
-2.19926e-07
1.34589e-07
5.31286e-05
5.13137e-07
3.48966e-07
-5.73584e-07
9.87565e-08
-1.95107e-07
1.345e-07
4.64608e-07
3.11085e-07
-5.13665e-05
5.1329e-05
-5.10364e-05
1.12752e-07
5.10149e-05
3.12356e-07
1.13281e-07
5.08305e-11
-5.31064e-05
-1.30927e-07
5.30322e-05
3.39599e-07
-5.31062e-05
-1.3091e-07
-1.34454e-07
5.30321e-05
3.39548e-07
5.52618e-11
-1.06734e-07
2.8932e-07
-1.0672e-07
-1.34357e-07
2.89268e-07
5.39195e-11
-5.08644e-05
5.08462e-05
-5.08641e-05
-1.12627e-07
5.08459e-05
6.1969e-11
-1.13142e-07
-3.46036e-07
-5.32097e-05
-2.1986e-07
5.31281e-05
5.13026e-07
-5.33938e-05
-6.00015e-07
1.9985e-07
5.32925e-05
1.55468e-07
-3.48777e-07
-1.9504e-07
4.64494e-07
-5.73664e-07
1.99188e-07
9.92851e-08
-3.10889e-07
-5.10356e-05
5.1014e-05
-5.13653e-05
-8.73441e-07
5.13278e-05
-3.12148e-07
-8.74952e-07
1.27462e-06
-5.35848e-05
4.60547e-06
5.34462e-05
-5.5416e-06
-5.37529e-05
-4.10708e-06
5.35519e-05
5.58271e-06
1.27254e-06
4.62318e-06
-5.58549e-06
-4.08025e-06
5.53461e-06
3.83172e-06
-5.17562e-05
5.16565e-05
-5.20295e-05
5.17541e-05
3.82946e-06
-1.25184e-06
-5.33263e-05
-4.07569e-06
5.30754e-05
5.57845e-06
-5.32871e-05
4.46047e-06
-1.96487e-07
5.30952e-05
-5.324e-06
-1.25105e-06
-4.046e-06
5.52324e-06
4.48654e-06
-1.96354e-07
-5.38145e-06
-3.75727e-06
-5.14677e-05
5.11493e-05
-5.15309e-05
8.53513e-07
5.13806e-05
-3.75846e-06
8.54891e-07
3.34075e-07
-5.31663e-05
-6.46716e-07
5.30088e-05
2.73654e-07
-5.30204e-05
-2.72129e-07
1.31292e-07
5.28815e-05
6.13794e-07
3.36611e-07
-6.17028e-07
2.10892e-07
-2.42611e-07
1.31686e-07
5.55747e-07
3.02204e-07
-5.12633e-05
5.11679e-05
-5.09659e-05
1.0942e-07
5.08865e-05
3.03606e-07
1.09983e-07
4.54621e-11
-5.29314e-05
-1.85115e-07
5.28e-05
4.47795e-07
-5.29313e-05
-1.85099e-07
-1.31168e-07
5.27998e-05
4.47745e-07
4.72161e-11
-1.5517e-07
3.87613e-07
-1.55154e-07
-1.31558e-07
3.87564e-07
4.609e-11
-5.0801e-05
5.07252e-05
-5.08006e-05
-1.09309e-07
5.07249e-05
4.86319e-11
-1.09868e-07
-3.33907e-07
-5.30199e-05
-2.72067e-07
5.2881e-05
6.13689e-07
-5.31657e-05
-6.46775e-07
1.96279e-07
5.30082e-05
2.74085e-07
-3.36439e-07
-2.42548e-07
5.5564e-07
-6.17088e-07
1.96146e-07
2.11331e-07
-3.02022e-07
-5.0965e-05
5.08856e-05
-5.1262e-05
-8.53372e-07
5.11666e-05
-3.0342e-07
-8.5475e-07
1.25134e-06
-5.32864e-05
4.45831e-06
5.30946e-05
-5.32154e-06
-5.33257e-05
-4.07368e-06
5.30748e-05
5.57593e-06
1.25054e-06
4.48438e-06
-5.379e-06
-4.04398e-06
5.5207e-06
3.75525e-06
-5.15297e-05
5.13794e-05
-5.14666e-05
5.11482e-05
3.75644e-06
-1.22706e-06
-5.27947e-05
-4.05141e-06
5.24835e-05
5.58968e-06
-5.28785e-05
4.30124e-06
-1.92097e-07
5.26246e-05
-5.08227e-06
-1.22716e-06
-4.01723e-06
5.52504e-06
4.33459e-06
-1.92388e-07
-5.15268e-06
-3.6772e-06
-5.08128e-05
5.04386e-05
-5.11991e-05
8.34246e-07
5.09889e-05
-3.68072e-06
8.35406e-07
3.22614e-07
-5.28226e-05
-7.00934e-07
5.26008e-05
4.08022e-07
-5.27126e-05
-3.33339e-07
1.27419e-07
5.25079e-05
7.33201e-07
3.24939e-07
-6.67207e-07
3.36064e-07
-2.98751e-07
1.28097e-07
6.64511e-07
2.93356e-07
-5.10413e-05
5.08812e-05
-5.07759e-05
1.06051e-07