/*--------------------------------*- C++ -*----------------------------------*\
  =========                 |
  \\      /  F ield         | OpenFOAM: The Open Source CFD Toolbox
   \\    /   O peration     | Website:  https://openfoam.org
    \\  /    A nd           | Version:  9
     \\/     M anipulation  |
\*---------------------------------------------------------------------------*/
FoamFile
{
    format      ascii;
    class       volScalarField;
    location    "3.05";
    object      epsilon;
}
// * * * * * * * * * * * * * * * * * * * * * * * * * * * * * * * * * * * * * //

dimensions      [0 2 -3 0 0 0 0];

internalField   nonuniform List<scalar> 
36360
(
0.322221
0.25449
0.144457
0.125788
0.125929
0.092685
0.0207539
0.0203102
0.0832821
0.0203626
0.0239884
0.00657482
0.0227656
0.00622614
0.00737007
0.00481401
0.00541189
0.00541521
0.00412495
0.00412529
0.00321966
0.00322063
0.00491714
0.00491704
0.0203734
0.0832938
0.00657813
0.0240027
0.00623104
0.0227818
0.00481461
0.00737343
0.25451
0.322257
0.125813
0.144489
0.0927147
0.125956
0.0203224
0.020759
0.548154
0.433767
0.451541
0.355185
0.379872
0.268587
0.26181
0.181982
0.193813
0.0859282
0.141492
0.0511133
0.120894
0.0470782
0.0674418
0.0169904
0.0441875
0.0441931
0.017543
0.0175502
0.0194084
0.0194199
0.00545675
0.00546109
0.085936
0.193813
0.0511253
0.141499
0.04711
0.120925
0.0170073
0.0674742
0.433765
0.548171
0.355195
0.451569
0.268604
0.37987
0.182012
0.26183
0.689609
0.554473
0.625159
0.498751
0.568849
0.420206
0.480332
0.347578
0.283841
0.156342
0.240993
0.121642
0.229713
0.131497
0.17573
0.0875337
0.105798
0.105797
0.0748251
0.0748273
0.0927102
0.0927191
0.0529373
0.0529495
0.156333
0.283816
0.121642
0.240982
0.131514
0.229716
0.0875604
0.17575
0.554438
0.689594
0.498734
0.625161
0.420171
0.568771
0.347573
0.480296
0.79358
0.646394
0.745069
0.603242
0.720724
0.548995
0.648423
0.487166
0.358049
0.219221
0.322783
0.189034
0.330486
0.217325
0.281519
0.175278
0.163279
0.16327
0.135544
0.135539
0.172288
0.172288
0.133197
0.133202
0.21919
0.357989
0.189014
0.32274
0.217315
0.33044
0.175283
0.2815
0.646315
0.793525
0.603186
0.745034
0.548878
0.720536
0.487093
0.648293
0.873665
0.718301
0.83622
0.684593
0.84491
0.656803
0.786068
0.605489
0.418107
0.271485
0.389792
0.246734
0.417683
0.293068
0.375944
0.2567
0.211703
0.211686
0.188718
0.188705
0.242908
0.242898
0.208967
0.208962
0.27143
0.418008
0.246691
0.389712
0.293026
0.417577
0.256675
0.375869
0.718174
0.873565
0.68449
0.836142
0.65659
0.844595
0.605325
0.785817
0.934562
0.773517
0.906319
0.747844
0.943436
0.743476
0.897193
0.702685
0.465113
0.312962
0.44318
0.293557
0.489026
0.355617
0.455339
0.326026
0.250406
0.250381
0.232273
0.232252
0.301423
0.301402
0.273715
0.273699
0.312883
0.464976
0.29349
0.443061
0.35554
0.488856
0.325966
0.455201
0.773344
0.93442
0.747693
0.906197
0.743162
0.942989
0.702421
0.896811
0.979231
0.814409
0.958741
0.795619
1.01841
0.809949
0.983627
0.779051
0.500422
0.34441
0.484158
0.329897
0.544355
0.404424
0.518586
0.381661
0.279896
0.279864
0.266272
0.266243
0.347216
0.347184
0.325842
0.325816
0.344309
0.50025
0.329806
0.484002
0.404313
0.544124
0.381567
0.518385
0.814194
0.979051
0.795423
0.95858
0.80954
1.01784
0.778688
0.983115
1.01063
0.843372
0.996439
0.830257
1.07273
0.858373
1.04786
0.836171
0.525715
0.367104
0.514243
0.356795
0.584983
0.44042
0.56633
0.423875
0.301261
0.301223
0.291548
0.291512
0.38107
0.381029
0.365498
0.365461
0.366984
0.525513
0.356685
0.514055
0.440279
0.584698
0.423749
0.566071
0.84312
1.01042
0.830022
0.996242
0.857882
1.07205
0.835718
1.04723
1.03142
0.862708
1.02222
0.854132
1.10983
0.891607
1.09311
0.876605
0.542817
0.382562
0.535216
0.37568
0.613054
0.465382
0.600373
0.454093
0.315868
0.315825
0.309359
0.309318
0.404596
0.404547
0.393948
0.393902
0.382428
0.542591
0.375553
0.535001
0.465218
0.612726
0.45394
0.600065
0.862427
1.03118
0.853864
1.02199
0.891047
1.10907
0.876077
1.09238
1.04407
0.874625
1.03866
0.869507
1.13341
0.91281
1.123
0.903432
0.553555
0.392365
0.548924
0.388125
0.631099
0.481492
0.623109
0.474348
0.325175
0.325128
0.321144
0.321098
0.419811
0.419756
0.413056
0.413004
0.392219
0.553311
0.387985
0.548688
0.481309
0.630738
0.474174
0.622763
0.874323
1.04382
0.869214
1.03841
0.912199
1.13258
0.902845
1.1222
1.0507
0.881048
1.04806
0.878459
1.14682
0.924944
1.1411
0.919747
0.559565
0.397956
0.557114
0.395659
0.641569
0.4909
0.637074
0.486848
0.330529
0.330479
0.328322
0.328273
0.428724
0.428666
0.424877
0.42482
0.397804
0.559309
0.39551
0.556863
0.490704
0.641185
0.486659
0.6367
0.880732
1.05043
0.878149
1.0478
0.924299
1.14594
0.919117
1.14024
1.05302
0.883556
1.05236
0.882761
1.15293
0.930555
1.15054
0.928338
0.562208
0.400551
0.561296
0.399623
0.646587
0.49549
0.64458
0.493635
0.333071
0.33302
0.332147
0.332097
0.433113
0.433052
0.431327
0.431267
0.400393
0.561944
0.399467
0.561036
0.495287
0.646189
0.493435
0.644188
0.883232
1.05275
0.882439
1.05209
0.929888
1.15203
0.92768
1.14965
1.05243
0.883402
1.05305
0.883782
1.15389
0.93156
1.15383
0.93144
0.562541
0.401081
0.562664
0.401088
0.647781
0.496721
0.647519
0.4964
0.333677
0.333625
0.333633
0.333581
0.434354
0.434292
0.434006
0.433944
0.400921
0.562274
0.400929
0.562398
0.496515
0.647376
0.496195
0.647117
0.883074
1.05215
0.883455
1.05278
0.930882
1.15297
0.930766
1.15291
1.04981
0.881458
1.05139
0.882683
1.15164
0.929722
1.15313
0.930962
0.561383
0.400322
0.562197
0.400911
0.646622
0.495877
0.647459
0.496507
0.333081
0.333029
0.333573
0.33352
0.433642
0.433579
0.434182
0.43412
0.400161
0.561115
0.400751
0.561929
0.495669
0.646215
0.496301
0.647053
0.881129
1.04954
0.882354
1.05112
0.929041
1.15071
0.930281
1.15221
1.04578
0.878255
1.048
0.880039
1.14695
0.925713
1.14943
0.927828
0.55915
0.398606
0.560438
0.399618
0.643674
0.493469
0.645245
0.494752
0.331592
0.33154
0.332482
0.33243
0.43147
0.431408
0.432624
0.432562
0.398446
0.558884
0.399458
0.56017
0.493263
0.643268
0.494545
0.644838
0.877928
1.04551
0.87971
1.04772
0.925034
1.14603
0.927147
1.14851
1.04077
0.874207
1.04344
0.87638
1.14071
0.920335
1.1439
0.923078
0.556225
0.396294
0.55783
0.39758
0.639628
0.490116
0.641703
0.491833
0.329554
0.329503
0.330696
0.330644
0.428418
0.428357
0.429977
0.429915
0.396136
0.555961
0.39742
0.557564
0.489911
0.639226
0.491627
0.6413
0.873883
1.0405
0.876054
1.04317
0.919662
1.1398
0.922402
1.14298
1.035
0.869525
1.03803
0.871997
1.13331
0.913954
1.13705
0.917166
0.552791
0.393552
0.554634
0.395038
0.634783
0.486077
0.63723
0.488112
0.327122
0.327071
0.328447
0.328395
0.424731
0.424671
0.426585
0.426524
0.393396
0.552531
0.394881
0.554372
0.485875
0.634387
0.487909
0.636832
0.869206
1.03473
0.871675
1.03776
0.91329
1.13241
0.916497
1.13614
1.02859
0.864322
1.03193
0.867046
1.12499
0.906772
1.12917
0.910368
0.548951
0.390471
0.55099
0.392119
0.629312
0.481504
0.632058
0.483794
0.324381
0.324331
0.325853
0.325803
0.420551
0.420492
0.42264
0.42258
0.390317
0.548695
0.391964
0.550731
0.481306
0.628923
0.483595
0.631666
0.864009
1.02833
0.86673
1.03167
0.906119
1.1241
0.90971
1.12827
1.02159
0.858652
1.02522
0.861603
1.11586
0.898895
1.12044
0.902831
0.544756
0.387098
0.546968
0.388889
0.623302
0.476476
0.626311
0.478988
0.321377
0.321328
0.322977
0.322928
0.415951
0.415893
0.418245
0.418186
0.386947
0.544504
0.388736
0.546713
0.476282
0.622921
0.478793
0.625926
0.858345
1.02134
0.861293
1.02496
0.898254
1.11499
0.902183
1.11955
1.01404
0.852544
1.01795
0.855714
1.10598
0.890373
1.11093
0.89463
0.540229
0.383454
0.542605
0.385379
0.616796
0.471028
0.620052
0.473749
0.31813
0.318082
0.31985
0.319802
0.410966
0.410909
0.41345
0.413393
0.383306
0.539982
0.385229
0.542356
0.470839
0.616423
0.473558
0.619674
0.852243
1.01379
0.85541
1.0177
0.889744
1.10512
0.893995
1.11006
1.00593
0.846003
1.01012
0.849389
1.09536
0.881223
1.10068
0.885793
0.535379
0.379549
0.537917
0.381604
0.60981
0.465178
0.613306
0.4681
0.314649
0.314601
0.316486
0.316438
0.405609
0.405554
0.408279
0.408224
0.379404
0.535137
0.381457
0.537672
0.464993
0.609446
0.467913
0.612937
0.845709
1.0057
0.849091
1.00987
0.880608
1.09452
0.885172
1.09983
0.997277
0.839033
1.00174
0.842633
1.08402
0.871454
1.0897
0.876336
0.53021
0.375385
0.532907
0.377569
0.602353
0.45893
0.606085
0.462051
0.310936
0.31089
0.312888
0.312841
0.399888
0.399834
0.402741
0.402687
0.375243
0.529974
0.377426
0.532668
0.45875
0.601998
0.46187
0.605725
0.838746
0.997045
0.842343
1.0015
0.870854
1.0832
0.875728
1.08887
0.988072
0.831635
0.992805
0.835449
1.07195
0.86107
1.078
0.866261
0.524723
0.370964
0.527579
0.373277
0.594428
0.45229
0.598395
0.455608
0.306994
0.306949
0.30906
0.309015
0.393807
0.393755
0.396841
0.396788
0.370826
0.524493
0.373137
0.527345
0.452115
0.594082
0.455431
0.598044
0.831356
0.987847
0.835165
0.992576
0.860485
1.07115
0.865668
1.07718
0.978323
0.823814
0.983327
0.827839
1.05918
0.850077
1.06558
0.855572
0.518922
0.36629
0.521934
0.368729
0.586042
0.445263
0.59024
0.448775
0.302825
0.302782
0.305004
0.30496
0.387371
0.387321
0.390583
0.390532
0.366156
0.518698
0.368592
0.521707
0.445094
0.585706
0.448603
0.589899
0.823543
0.978105
0.827563
0.983105
0.849507
1.0584
0.854995
1.06479
0.968044
0.815582
0.97331
0.81981
1.04572
0.838491
1.05246
0.844283
0.512813
0.361368
0.515978
0.36393
0.577206
0.437858
0.581629
0.441559
0.298435
0.298393
0.300724
0.300681
0.380589
0.380541
0.383974
0.383925
0.361237
0.512595
0.363797
0.515757
0.437695
0.57688
0.441393
0.581298
0.815318
0.967834
0.819542
0.973096
0.837938
1.04496
0.843722
1.05169
0.957256
0.806947
0.962774
0.811374
1.03158
0.82632
1.03866
0.832406
0.506405
0.356203
0.509719
0.358885
0.567928
0.430084
0.572572
0.43397
0.293828
0.293787
0.296225
0.296183
0.373471
0.373424
0.377024
0.376977
0.356076
0.506193
0.358756
0.509504
0.429927
0.567613
0.43381
0.572252
0.806692
0.957054
0.811115
0.962567
0.825784
1.03085
0.831861
1.03791
0.94598
0.797925
0.951738
0.802544
1.01679
0.813572
1.0242
0.819948
0.499703
0.3508
0.503162
0.3536
0.558219
0.42195
0.563079
0.426017
0.289008
0.288968
0.29151
0.29147
0.366023
0.365978
0.369742
0.369696
0.350677
0.499499
0.353475
0.502954
0.421799
0.557915
0.425863
0.56277
0.797679
0.945786
0.802293
0.95154
0.813053
1.01608
0.81942
1.02347
0.93423
0.788521
0.940223
0.79333
1.00136
0.800269
1.00909
0.806918
0.492711
0.345159
0.496315
0.348078
0.548083
0.413458
0.553158
0.417706
0.283975
0.283937
0.286584
0.286545
0.358248
0.358205
0.362133
0.362089
0.345041
0.492513
0.347957
0.496114
0.413313
0.547791
0.417558
0.55286
0.788283
0.934045
0.793088
0.940033
0.799768
1.00067
0.806408
1.00838
0.922016
0.77872
0.92824
0.783728
0.985278
0.786441
0.993336
0.793361
0.485418
0.33927
0.489174
0.342314
0.537507
0.40459
0.542808
0.409031
0.278718
0.278681
0.28144
0.281402
0.35013
0.350089
0.354191
0.35415
0.339156
0.485227
0.342198
0.488979
0.404452
0.537227
0.40889
0.542523
0.778492
0.921839
0.783495
0.928058
0.78596
0.984615
0.79287
0.992658
0.909331
0.768514
0.915792
0.773726
0.968487
0.771988
0.976913
0.779235
0.477797
0.333106
0.48172
0.336291
0.526436
0.395304
0.531995
0.399963
0.273211
0.273175
0.276061
0.276025
0.34163
0.341591
0.34589
0.345851
0.332996
0.477614
0.336179
0.481533
0.395172
0.526169
0.399828
0.531722
0.768295
0.909163
0.773503
0.915619
0.771526
0.96785
0.778764
0.97626
0.896139
0.757855
0.902859
0.763301
0.95088
0.756805
0.959733
0.764434
0.4698
0.326618
0.473919
0.329972
0.514783
0.385523
0.520648
0.390443
0.267406
0.267373
0.270412
0.270377
0.332675
0.332639
0.337176
0.337138
0.326513
0.469625
0.329865
0.47374
0.385398
0.514529
0.390315
0.520388
0.757647
0.89598
0.763087
0.902695
0.756364
0.950271
0.763983
0.959107
0.882361
0.746656
0.889385
0.752384
0.932287
0.740745
0.941661
0.748837
0.461343
0.31973
0.465703
0.323294
0.502415
0.375129
0.508659
0.380375
0.261233
0.261201
0.264432
0.264399
0.323158
0.323124
0.327958
0.327923
0.319631
0.461177
0.323192
0.465532
0.375012
0.502174
0.380254
0.508412
0.746458
0.882212
0.752181
0.88923
0.740327
0.931707
0.748408
0.941064
0.867873
0.734786
0.875269
0.740867
0.912452
0.723591
0.922488
0.732265
0.452306
0.312331
0.456972
0.316165
0.48914
0.363955
0.495868
0.369617
0.254584
0.254554
0.258035
0.258004
0.312922
0.31289
0.318106
0.318073
0.312237
0.452149
0.316068
0.45681
0.363847
0.488916
0.369504
0.495636
0.7346
0.867734
0.740675
0.875125
0.723197
0.911905
0.731859
0.921922
0.852491
0.722064
0.860359
0.728594
0.891014
0.705035
0.901906
0.714458
0.442522
0.304268
0.447583
0.308454
0.474703
0.351777
0.48205
0.357974
0.247317
0.247289
0.251096
0.251067
0.301757
0.301729
0.307436
0.307406
0.304181
0.442375
0.308363
0.44743
0.351678
0.474495
0.35787
0.481834
0.721891
0.852364
0.728414
0.860225
0.704668
0.890501
0.714078
0.901374
0.835972
0.708271
0.84444
0.715367
0.867492
0.684685
0.879496
0.695055
0.431774
0.295342
0.437346
0.299986
0.458776
0.33831
0.466915
0.345193
0.23924
0.239214
0.243449
0.243422
0.2894
0.289375
0.295715
0.295688
0.295261
0.431638
0.299902
0.437204
0.338222
0.458588
0.3451
0.466717
0.708112
0.835857
0.715201
0.844319
0.684349
0.867018
0.694703
0.879
0.818032
0.693089
0.827241
0.70092
0.841292
0.662148
0.854717
0.673669
0.41976
0.285265
0.426008
0.290526
0.440947
0.323185
0.450099
0.330953
0.230084
0.230061
0.234871
0.234846
0.275511
0.27549
0.282641
0.282618
0.285193
0.419637
0.290449
0.425879
0.323109
0.44078
0.33087
0.449922
0.692945
0.817932
0.700768
0.827133
0.661845
0.840863
0.673349
0.854263
0.798579
0.676081
0.808518
0.684899
0.811874
0.636958
0.826953
0.649871
0.405922
0.273542
0.413184
0.27971
0.420581
0.305877
0.431109
0.314818
0.21943
0.21941
0.225029
0.225008
0.259663
0.259646
0.267833
0.267814
0.273479
0.405813
0.279641
0.413068
0.305815
0.42044
0.314749
0.430955
0.675954
0.798495
0.684763
0.808426
0.636694
0.811495
0.649587
0.826547
0.779197
0.655293
0.788598
0.666525
0.780147
0.608028
0.796012
0.623098
0.388389
0.259046
0.397918
0.266805
0.396186
0.285575
0.409031
0.296136
0.206605
0.206588
0.213386
0.213367
0.241443
0.241431
0.250835
0.250821
0.258993
0.388296
0.266746
0.397817
0.285528
0.396074
0.296082
0.408904
0.655186
0.77913
0.666408
0.788523
0.607809
0.779827
0.622856
0.79566
0.776927
0.611471
0.773323
0.640246
0.750571
0.559965
0.765449
0.589367
0.359469
0.239614
0.376336
0.250116
0.363029
0.261618
0.381169
0.27399
0.190997
0.190983
0.199189
0.199174
0.221211
0.221203
0.231454
0.231445
0.239572
0.359396
0.250068
0.376253
0.261587
0.362949
0.273951
0.381073
0.611385
0.776874
0.640148
0.773263
0.5598
0.750317
0.589173
0.76516
0.482445
0.380563
0.264178
0.211699
0.419976
0.330411
0.216296
0.174789
0.156197
0.0554021
0.0606232
0.0139281
0.125238
0.0385785
0.043293
0.0100452
0.018613
0.0186219
0.00566362
0.00566605
0.0111548
0.0111617
0.00472498
0.00472624
0.0554197
0.156205
0.0139362
0.0606434
0.0385955
0.125249
0.0100506
0.0433126
0.380577
0.482492
0.211728
0.264226
0.330428
0.420019
0.174819
0.216339
0.74851
0.602775
0.635876
0.50643
0.666798
0.533177
0.562543
0.445478
0.314462
0.166709
0.241452
0.11108
0.262558
0.129894
0.199211
0.0838712
0.104643
0.104643
0.0568163
0.0568236
0.0756936
0.0756963
0.0371179
0.0371262
0.166703
0.314444
0.111087
0.241448
0.129894
0.262548
0.0838805
0.199212
0.602761
0.748535
0.50643
0.635913
0.533168
0.66682
0.445482
0.562576
0.910209
0.746643
0.837345
0.681046
0.81641
0.664228
0.748876
0.604371
0.433546
0.266643
0.37788
0.21885
0.366615
0.21461
0.317795
0.173798
0.195145
0.195135
0.151351
0.151346
0.151354
0.151348
0.114406
0.114404
0.266612
0.433495
0.218831
0.377845
0.214588
0.366575
0.173788
0.317771
0.746597
0.910212
0.681016
0.837359
0.664188
0.816407
0.604346
0.748885
1.02338
0.850908
0.971323
0.802617
0.922381
0.760284
0.873422
0.71562
0.526013
0.34894
0.482666
0.309993
0.44862
0.285918
0.410022
0.252017
0.271953
0.271934
0.235427
0.235413
0.217222
0.217207
0.18575
0.18574
0.348882
0.525927
0.309948
0.482597
0.285872
0.448545
0.251983
0.409964
0.850832
1.02337
0.802556
0.971316
0.760208
0.922352
0.715561
0.873405
1.10616
0.928779
1.06796
0.892686
1.00106
0.833049
0.964607
0.7992
0.597669
0.414502
0.564227
0.383745
0.513049
0.343531
0.482879
0.316419
0.33401
0.333982
0.304819
0.304795
0.271173
0.27115
0.24572
0.245702
0.414421
0.597551
0.383676
0.564125
0.343461
0.512939
0.31636
0.482786
0.928678
1.10614
0.892597
1.06794
0.832939
1.001
0.799106
0.964566
1.16661
0.986443
1.13883
0.959865
1.0593
0.887584
1.03243
0.862373
0.652012
0.465073
0.626853
0.441579
0.562419
0.38838
0.539506
0.3675
0.382295
0.38226
0.359822
0.35979
0.31351
0.313479
0.293765
0.293738
0.464971
0.651867
0.441488
0.626721
0.388288
0.562277
0.367418
0.539379
0.986322
1.16657
0.959753
1.1388
0.887442
1.05923
0.862246
1.03237
1.20972
1.02802
1.19009
1.00905
1.10137
0.927278
1.08217
0.909123
0.691932
0.502693
0.673653
0.485422
0.59894
0.421937
0.582189
0.406509
0.41845
0.418408
0.401827
0.401789
0.345374
0.345336
0.330706
0.330671
0.502574
0.691765
0.485311
0.673497
0.421825
0.59877
0.406407
0.582032
1.02788
1.20969
1.00892
1.19006
0.92711
1.10129
0.908967
1.08209
1.23929
1.05683
1.22602
1.04388
1.13048
0.954975
1.11739
0.942496
0.720102
0.529541
0.707391
0.517395
0.624817
0.445948
0.613126
0.435077
0.444397
0.44435
0.432642
0.432598
0.368289
0.368246
0.357902
0.357861
0.529408
0.719918
0.517269
0.707215
0.44582
0.624624
0.434956
0.612944
1.05669
1.23926
1.04373
1.22599
0.954785
1.13038
0.942316
1.1173
1.25837
1.07569
1.25
1.06739
1.14941
0.973197
1.14109
0.965162
0.738957
0.547739
0.730622
0.539668
0.642166
0.462223
0.63449
0.455003
0.462088
0.462037
0.454229
0.45418
0.383902
0.383854
0.376966
0.37692
0.547595
0.73876
0.539529
0.73043
0.462082
0.641955
0.454868
0.634287
1.07553
1.25834
1.06724
1.24997
0.972991
1.14931
0.964963
1.14098
1.26957
1.08701
1.26486
1.08221
1.16066
0.984221
1.15591
0.979534
0.750695
0.559273
0.745674
0.55431
0.652972
0.472515
0.648344
0.468086
0.473392
0.473338
0.468514
0.468462
0.393844
0.393792
0.389556
0.389506
0.559121
0.750488
0.554162
0.745471
0.472364
0.652747
0.46794
0.648125
1.08685
1.26954
1.08205
1.26484
0.984003
1.16055
0.979322
1.1558
1.27497
1.0928
1.27293
1.09055
1.16624
0.989943
1.1641
0.987696
0.757169
0.565858
0.754575
0.56318
0.658938
0.478366
0.656541
0.475986
0.479938
0.479882
0.477258
0.477203
0.399567
0.399513
0.397226
0.397173
0.565701
0.756956
0.563025
0.754364
0.478209
0.658704
0.475832
0.656311
1.09264
1.27496
1.09039
1.27291
0.989718
1.16613
0.987474
1.16399
1.27623
1.09462
1.2761
1.09419
1.16777
0.99188
1.1675
0.991372
0.759876
0.568898
0.759009
0.567844
0.661451
0.481049
0.660635
0.480118
0.483076
0.483019
0.481957
0.4819
0.40228
0.402225
0.401316
0.401261
0.568738
0.759659
0.567685
0.758794
0.480888
0.661212
0.479959
0.660398
1.09446
1.27621
1.09403
1.27609
0.991651
1.16766
0.991144
1.16738
1.27468
1.09376
1.27581
1.09453
1.16658
0.991269
1.16752
0.991885
0.759994
0.569483
0.760287
0.569539
0.661604
0.48155
0.661842
0.481604
0.483846
0.483788
0.483803
0.483745
0.402915
0.402859
0.402893
0.402838
0.569321
0.759776
0.569378
0.76007
0.481387
0.661363
0.481442
0.661601
1.0936
1.27467
1.09437
1.2758
0.991039
1.16647
0.991655
1.1674
1.2711
1.091
1.27316
1.09265
1.16343
0.988875
1.16527
0.990323
0.758359
0.568458
0.759458
0.569239
0.660178
0.480641
0.661145
0.481331
0.483084
0.483026
0.483722
0.483664
0.402227
0.402171
0.402793
0.402737
0.568297
0.758142
0.569078
0.759241
0.480478
0.659937
0.481167
0.660903
1.09084
1.27109
1.09249
1.27315
0.988645
1.16332
0.990092
1.16516
1.26609
1.08693
1.26881
1.08918
1.15891
0.985246
1.16138
0.987255
0.755494
0.566277
0.757153
0.567586
0.657644
0.478715
0.659111
0.479866
0.481211
0.481154
0.482359
0.482301
0.400572
0.400516
0.401579
0.401523
0.566117
0.755278
0.567425
0.756936
0.478552
0.657404
0.479702
0.65887
1.08677
1.26608
1.08902
1.2688
0.985019
1.15881
0.987026
1.16127
1.26004
1.08193
1.26324
1.0846
1.15342
0.980763
1.15634
0.983166
0.751792
0.563334
0.753834
0.564991
0.654366
0.476129
0.656174
0.477581
0.478617
0.47856
0.480093
0.480036
0.398302
0.398246
0.399589
0.399534
0.563175
0.751579
0.564831
0.753619
0.475968
0.654129
0.477419
0.655934
1.08178
1.26004
1.08445
1.26324
0.980539
1.15332
0.98294
1.15623
1.25319
1.07622
1.25678
1.07923
1.14717
0.975631
1.15045
0.97834
0.747474
0.559841
0.749804
0.561754
0.650543
0.473068
0.652606
0.474742
0.475507
0.475451
0.477222
0.477166
0.39559
0.395535
0.397082
0.397027
0.559684
0.747264
0.561595
0.749592
0.472909
0.650308
0.474581
0.652369
1.07607
1.2532
1.07908
1.25678
0.975412
1.14707
0.978118
1.15035
1.24564
1.06993
1.24957
1.07322
1.14026
0.969958
1.14386
0.972929
0.742661
0.555916
0.745228
0.558034
0.646278
0.469631
0.648553
0.471484
0.471996
0.471941
0.473901
0.473846
0.392534
0.39248
0.39419
0.394136
0.555762
0.742455
0.557878
0.74502
0.469474
0.646048
0.471326
0.64832
1.06978
1.24565
1.07307
1.24957
0.969743
1.14016
0.972711
1.14376
1.23744
1.0631
1.24168
1.06665
1.13274
0.963795
1.13664
0.967003
0.737415
0.551622
0.740192
0.553919
0.641628
0.465871
0.64409
0.46788
0.468147
0.468093
0.470216
0.470161
0.389185
0.389132
0.390983
0.39093
0.55147
0.737213
0.553765
0.739988
0.465717
0.641401
0.467725
0.643861
1.06296
1.23745
1.06651
1.24169
0.963584
1.13265
0.96679
1.13654
1.22863
1.05578
1.23318
1.05957
1.12464
0.957172
1.12883
0.96061
0.73177
0.54699
0.734745
0.549453
0.636618
0.461813
0.639258
0.463969
0.46399
0.463936
0.46621
0.466156
0.385566
0.385514
0.387497
0.387444
0.546841
0.731573
0.549303
0.734545
0.461662
0.636396
0.463817
0.639034
1.05564
1.22864
1.05943
1.23319
0.956967
1.12455
0.960402
1.12874
1.2192
1.04796
1.22406
1.052
1.11597
0.950095
1.12044
0.953759
0.725736
0.542033
0.728904
0.544657
0.631258
0.457467
0.634073
0.459766
0.459537
0.459485
0.461903
0.46185
0.381688
0.381638
0.383748
0.383696
0.541887
0.725543
0.54451
0.728709
0.457319
0.631041
0.459617
0.633853
1.04783
1.21922
1.05187
1.22407
0.949895
1.11588
0.953556
1.12036
1.20916
1.03965
1.21432
1.04394
1.10672
0.942565
1.11148
0.946454
0.719317
0.536755
0.722677
0.539538
0.625551
0.452836
0.628538
0.455277
0.454795
0.454743
0.457304
0.457253
0.377556
0.377506
0.379741
0.379691
0.536613
0.719129
0.539394
0.722486
0.452692
0.625339
0.455131
0.628324
1.03952
1.20918
1.04381
1.21434
0.94237
1.10664
0.946257
1.1114
1.19851
1.03085
1.20398
1.03538
1.09689
0.934586
1.10194
0.938699
0.712517
0.531161
0.716065
0.534101
0.6195
0.447924
0.622659
0.450505
0.449765
0.449715
0.452417
0.452367
0.37317
0.373121
0.375481
0.375432
0.531022
0.712333
0.53396
0.71588
0.447783
0.619293
0.450362
0.622449
1.03073
1.19854
1.03526
1.204
0.934398
1.09682
0.938507
1.10186
1.18726
1.02158
1.19303
1.02635
1.0865
0.926163
1.09183
0.930497
0.705339
0.525251
0.709075
0.528348
0.613108
0.442734
0.616436
0.445453
0.444451
0.444402
0.447244
0.447195
0.368534
0.368487
0.37097
0.370922
0.525116
0.705161
0.52821
0.708894
0.442596
0.612907
0.445313
0.616232
1.02146
1.18729
1.02623
1.19305
0.925981
1.08643
0.930311
1.09176
1.17542
1.01182
1.18148
1.01683
1.07555
0.9173
1.08116
0.921851
0.697787
0.519031
0.701709
0.522281
0.60638
0.437268
0.609874
0.440123
0.438856
0.438809
0.441788
0.44174
0.363653
0.363606
0.36621
0.366163
0.518899
0.697614
0.522148
0.701533
0.437134
0.606185
0.439987
0.609676
1.01171
1.17545
1.01671
1.1815
0.917124
1.07549
0.921671
1.08109
1.16302
1.00161
1.16935
1.00684
1.06407
0.908017
1.06994
0.912774
0.689871
0.512505
0.693973
0.515907
0.599326
0.431534
0.602981
0.434521
0.432983
0.432937
0.436053
0.436006
0.358529
0.358484
0.361205
0.36116
0.512377
0.689704
0.515776
0.693802
0.431404
0.599136
0.434389
0.602788
1.0015
1.16305
1.00673
1.16938
0.907847
1.06401
0.912601
1.06987
1.15008
0.990953
1.15667
0.996403
1.05209
0.898331
1.0582
0.903286
0.681596
0.505675
0.685875
0.509227
0.591953
0.425535
0.595766
0.428653
0.426833
0.426788
0.43004
0.429994
0.353167
0.353123
0.355961
0.355917
0.505551
0.681434
0.509101
0.68571
0.425408
0.591769
0.428525
0.595579
0.990851
1.15011
0.996298
1.15671
0.898168
1.05203
0.903119
1.05814
1.13663
0.979858
1.14347
0.98552
1.03961
0.888251
1.04597
0.893404
0.672964
0.498539
0.677419
0.502244
0.584263
0.419269
0.588234
0.422521
0.420401
0.420358
0.423749
0.423704
0.347563
0.347521
0.350478
0.350435
0.498419
0.672807
0.502121
0.67726
0.419147
0.584085
0.422396
0.588053
0.979761
1.13666
0.98542
1.1435
0.888095
1.03956
0.893244
1.04591
1.12268
0.968367
1.12977
0.974226
1.02666
0.877747
1.03325
0.883112
0.663971
0.491081
0.668609
0.494948
0.576242
0.412724
0.580379
0.416117
0.413669
0.413627
0.417168
0.417126
0.341704
0.341663
0.344748
0.344706
0.490965
0.663821
0.49483
0.668455
0.412606
0.57607
0.415997
0.580205
0.968276
1.12272
0.974132
1.12981
0.877598
1.02662
0.882959
1.0332
1.10823
0.956421
1.11557
0.962512
1.01325
0.86683
1.02007
0.872399
0.654579
0.483264
0.65942
0.487315
0.567866
0.405871
0.572183
0.409421
0.406599
0.406559
0.410272
0.410231
0.33556
0.335521
0.33875
0.33871
0.483152
0.654434
0.487201
0.659273
0.405757
0.567702
0.409305
0.572015
0.956335
1.10827
0.962424
1.11561
0.866687
1.01321
0.872253
1.02003
1.09324
0.943977
1.10085
0.950321
0.999341
0.855461
1.00641
0.861262
0.644727
0.475025
0.649805
0.479294
0.559087
0.398656
0.563612
0.402393
0.39913
0.399091
0.40301
0.40297
0.329078
0.329041
0.332443
0.332405
0.474917
0.644589
0.479184
0.649663
0.398547
0.558929
0.402282
0.563451
0.943897
1.09329
0.950238
1.1009
0.855326
0.999303
0.861123
1.00637
1.07769
0.930969
1.08559
0.937604
0.984873
0.843564
0.992233
0.849639
0.634329
0.466272
0.639691
0.470809
0.54982
0.390998
0.5546
0.394967
0.391168
0.391131
0.395305
0.395267
0.322179
0.322144
0.325763
0.325726
0.46617
0.634198
0.470704
0.639556
0.390895
0.54967
0.394861
0.554446
0.930894
1.07773
0.937526
1.08564
0.843437
0.98484
0.849507
0.992197
1.06147
0.91729
1.06972
0.924273
0.96975
0.831028
0.977451
0.837436
0.62326
0.456876
0.628974
0.461752
0.539948
0.38278
0.545046
0.387044
0.382584
0.382549
0.387049
0.387013
0.314749
0.314715
0.318613
0.318578
0.456779
0.623136
0.461652
0.628846
0.382682
0.539806
0.386943
0.5449
0.917221
1.06151
0.924202
1.06976
0.830908
0.969722
0.837313
0.97742
1.04446
0.902791
1.05312
0.910203
0.953822
0.817691
0.961945
0.824521
0.611347
0.446659
0.617505
0.451968
0.529303
0.373841
0.534808
0.378486
0.373201
0.373167
0.378088
0.378054
0.306629
0.306597
0.310858
0.310825
0.446567
0.611231
0.451873
0.617384
0.373748
0.529169
0.378391
0.534671
0.902729
1.04451
0.910137
1.05316
0.81758
0.9538
0.824406
0.961919
1.02652
0.887296
1.03565
0.895226
0.936908
0.803337
0.945544
0.8107
0.598369
0.435381
0.605087
0.441252
0.517665
0.363961
0.523695
0.369106
0.362774
0.362743
0.368216
0.368184
0.297606
0.297576
0.302315
0.302284
0.435296
0.59826
0.441163
0.604974
0.363875
0.517541
0.369016
0.523567
0.88724
1.02657
0.895166
1.0357
0.803235
0.936891
0.810594
0.945524
1.00763
0.870648
1.01722
0.879168
0.918861
0.787755
0.92807
0.795758
0.584018
0.422682
0.591467
0.429318
0.50473
0.352816
0.511454
0.358642
0.350936
0.350907
0.357139
0.357109
0.28736
0.287333
0.292727
0.292699
0.422602
0.583918
0.429235
0.591362
0.352737
0.504617
0.358559
0.511335
0.870599
1.00768
0.879116
1.01727
0.787665
0.918852
0.795662
0.928057
0.988422
0.852682
0.997992
0.861892
0.899937
0.770609
0.909487
0.779457
0.567656
0.407855
0.576235
0.415679
0.48987
0.339787
0.497677
0.346663
0.337033
0.337007
0.344373
0.344345
0.275345
0.275321
0.281684
0.281658
0.407783
0.567565
0.415603
0.57614
0.339716
0.489768
0.346588
0.49757
0.852639
0.988476
0.861845
0.998046
0.770529
0.899936
0.779372
0.909482
0.973526
0.831798
0.979716
0.842958
0.88326
0.74992
0.890798
0.761089
0.546848
0.389188
0.558205
0.399244
0.470786
0.323377
0.481223
0.332217
0.31991
0.319887
0.329031
0.329006
0.260603
0.260582
0.268447
0.268424
0.389124
0.546766
0.399176
0.558119
0.323316
0.470697
0.332151
0.481127
0.831759
0.97358
0.842918
0.97977
0.749851
0.883267
0.761015
0.890801
0.994985
0.78614
0.975148
0.816769
0.894874
0.704522
0.881728
0.734734
0.511732
0.363581
0.532301
0.377468
0.438347
0.300832
0.457363
0.313066
0.2985
0.29848
0.309791
0.30977
0.242239
0.242222
0.251918
0.251899
0.363526
0.511661
0.377409
0.532224
0.300782
0.438273
0.31301
0.457281
0.786101
0.995032
0.81673
0.9752
0.704462
0.894881
0.734669
0.881736
0.554346
0.439869
0.321517
0.257129
0.524658
0.415128
0.297778
0.237763
0.195856
0.0797905
0.0843279
0.0208805
0.178938
0.0690517
0.0739788
0.0175576
0.0325167
0.0325266
0.00791514
0.00791925
0.0259465
0.0259559
0.00678361
0.00678697
0.0798053
0.195859
0.0208942
0.084345
0.0690686
0.178944
0.017568
0.0739984
0.439877
0.554397
0.257153
0.321569
0.415139
0.524708
0.23779
0.297828
0.846011
0.687799
0.7211
0.578979
0.805166
0.651894
0.685698
0.548592
0.382213
0.219299
0.295461
0.149819
0.353125
0.196149
0.272421
0.132789
0.149242
0.149238
0.0881153
0.0881194
0.129214
0.129213
0.0740096
0.0740155
0.219283
0.382181
0.149819
0.295447
0.196138
0.3531
0.132793
0.272412
0.687775
0.846039
0.57897
0.72114
0.651875
0.805193
0.548588
0.685737
1.02889
0.853561
0.946118
0.777629
0.978271
0.807593
0.900133
0.736469
0.525631
0.343967
0.45842
0.284392
0.485447
0.309524
0.423558
0.255383
0.264032
0.264016
0.208603
0.208593
0.232886
0.232873
0.182835
0.182827
0.34392
0.52556
0.284359
0.458368
0.309484
0.485386
0.255357
0.423514
0.853507
1.0289
0.777589
0.946137
0.807543
0.978279
0.736434
0.900149
1.15763
0.974511
1.09847
0.918532
1.09948
0.920554
1.0438
0.868291
0.637252
0.446178
0.584982
0.397887
0.588044
0.40237
0.540006
0.358498
0.360779
0.360752
0.314853
0.314832
0.320244
0.320221
0.278769
0.278751
0.446104
0.637149
0.397825
0.584894
0.402303
0.587949
0.358444
0.539927
0.974436
1.15764
0.918466
1.09848
0.920478
1.09948
0.868227
1.0438
1.25118
1.0644
1.2081
1.02282
1.18762
1.00451
1.14702
0.965654
0.723316
0.52714
0.683218
0.489218
0.667171
0.47596
0.630293
0.44148
0.438505
0.438471
0.401995
0.401965
0.390471
0.390439
0.357475
0.357448
0.527044
0.723188
0.489132
0.683102
0.47587
0.667048
0.441402
0.630183
1.06431
1.25119
1.02273
1.20811
1.00441
1.18762
0.965568
1.14701
1.31891
1.13053
1.28785
1.10011
1.25157
1.06635
1.22223
1.03788
0.788253
0.589318
0.758229
0.560462
0.726927
0.532513
0.699291
0.506263
0.498754
0.498713
0.470737
0.470699
0.444933