/*--------------------------------*- C++ -*----------------------------------*\
  =========                 |
  \\      /  F ield         | OpenFOAM: The Open Source CFD Toolbox
   \\    /   O peration     | Website:  https://openfoam.org
    \\  /    A nd           | Version:  9
     \\/     M anipulation  |
\*---------------------------------------------------------------------------*/
FoamFile
{
    format      ascii;
    class       volScalarField;
    location    "3.05";
    object      k;
}
// * * * * * * * * * * * * * * * * * * * * * * * * * * * * * * * * * * * * * //

dimensions      [0 2 -2 0 0 0 0];

internalField   nonuniform List<scalar> 
36360
(
0.100133
0.0831795
0.0503324
0.0444128
0.0257653
0.0210038
0.00774484
0.00763501
0.0381679
0.0135646
0.0131716
0.00435203
0.00823864
0.00347096
0.00388372
0.00292334
0.00462547
0.0046297
0.0027601
0.0027606
0.00223591
0.00223635
0.00296481
0.00296477
0.0135769
0.0381781
0.00435455
0.0131825
0.00347279
0.00824255
0.00292358
0.0038849
0.0831883
0.100139
0.0444237
0.05034
0.0210083
0.025769
0.00763805
0.00774609
0.15955
0.135039
0.134334
0.112394
0.0537869
0.0426893
0.0419679
0.0329323
0.079558
0.0474743
0.0603728
0.0303815
0.0250746
0.0133739
0.0169929
0.00677925
0.0323782
0.0323824
0.0148729
0.0148808
0.00741015
0.00741307
0.00317972
0.0031814
0.0474819
0.0795627
0.0303927
0.0603812
0.0133799
0.0250789
0.00678374
0.0169983
0.13504
0.159546
0.112399
0.134335
0.0426912
0.0537867
0.032936
0.0419699
0.196644
0.169831
0.17969
0.153761
0.0704022
0.0575317
0.0628945
0.0506949
0.111374
0.0781686
0.0964164
0.0635672
0.0384666
0.0265226
0.0321753
0.020221
0.0632641
0.0632647
0.0486056
0.0486078
0.021012
0.0210133
0.0144633
0.0144655
0.078168
0.111368
0.0635707
0.0964162
0.0265249
0.038467
0.0202251
0.0321779
0.169819
0.196626
0.153755
0.179679
0.0575285
0.0703958
0.0506945
0.0628914
0.224073
0.196201
0.211269
0.18385
0.0824346
0.0687576
0.0768241
0.0634924
0.136449
0.102796
0.124653
0.0912065
0.0490233
0.0370743
0.0440523
0.0321232
0.087825
0.0878226
0.07629
0.076289
0.0317584
0.0317584
0.0267522
0.0267529
0.102787
0.136431
0.0912018
0.124641
0.0370732
0.0490188
0.0321238
0.0440503
0.196173
0.224038
0.18383
0.211243
0.0687478
0.0824203
0.063486
0.0768139
0.245113
0.216601
0.235284
0.207058
0.091653
0.0774893
0.0873457
0.073398
0.15606
0.12205
0.146874
0.113034
0.0573071
0.0452533
0.0534221
0.0414272
0.106922
0.106917
0.0979874
0.0979836
0.0399316
0.0399305
0.0361194
0.0361188
0.122033
0.15603
0.113021
0.146849
0.045249
0.0572974
0.0414245
0.053415
0.216558
0.24506
0.207022
0.23524
0.0774725
0.0916302
0.0733847
0.0873271
0.26107
0.232138
0.253656
0.224914
0.0986486
0.0841667
0.0953971
0.0810583
0.171067
0.136777
0.164085
0.129926
0.0636614
0.0514837
0.0607024
0.048586
0.1215
0.121493
0.11472
0.114714
0.0461121
0.04611
0.0432406
0.0432389
0.136753
0.171025
0.129905
0.164049
0.0514763
0.0636466
0.0485801
0.0606901
0.23208
0.261
0.224862
0.253595
0.0841429
0.0986175
0.081038
0.09537
0.272838
0.24363
0.267418
0.238333
0.10381
0.0891136
0.101432
0.0868316
0.182203
0.147712
0.17707
0.14267
0.0683787
0.056094
0.0662025
0.0539683
0.132322
0.132312
0.127332
0.127324
0.0506727
0.0506696
0.0485707
0.048568
0.147681
0.182151
0.142643
0.177023
0.0560838
0.0683593
0.0539594
0.0661853
0.243558
0.272753
0.238268
0.26734
0.0890835
0.103772
0.0868046
0.101397
0.281192
0.25181
0.277387
0.248082
0.107471
0.0926329
0.105803
0.0910276
0.190155
0.155533
0.18653
0.151967
0.0717417
0.0593765
0.0702076
0.0578793
0.140068
0.140057
0.136535
0.136524
0.0539165
0.0539126
0.0524368
0.0524333
0.155497
0.190093
0.151933
0.186473
0.0593638
0.0717183
0.0578678
0.0701861
0.251727
0.281094
0.248004
0.277295
0.0925974
0.107426
0.0909948
0.105761
0.286832
0.257352
0.2843
0.254862
0.109938
0.0950104
0.108829
0.0939408
0.195563
0.160867
0.193133
0.158469
0.0740204
0.0616008
0.0729953
0.0605998
0.145359
0.145346
0.142979
0.142967
0.0561146
0.0561101
0.0551251
0.0551209
0.160826
0.195494
0.15843
0.193068
0.0615862
0.0739939
0.0605862
0.0729703
0.257259
0.286724
0.254773
0.284197
0.0949706
0.109887
0.0939031
0.108781
0.290392
0.26087
0.288827
0.25932
0.111491
0.0965122
0.110806
0.0958494
0.199017
0.164289
0.197495
0.16278
0.0754672
0.0630155
0.0748282
0.0623901
0.148764
0.148749
0.147261
0.147247
0.0575139
0.0575089
0.0568948
0.05689
0.164245
0.198943
0.162737
0.197424
0.0629995
0.0754383
0.0623748
0.0748005
0.26077
0.290276
0.259224
0.288715
0.0964692
0.111436
0.0958078
0.110753
0.292406
0.262885
0.291553
0.262027
0.11237
0.0973669
0.111995
0.0970012
0.201023
0.166296
0.200168
0.165438
0.0763006
0.0638347
0.0759433
0.0634825
0.15077
0.150754
0.14991
0.149895
0.0583262
0.0583208
0.0579762
0.0579711
0.166249
0.200945
0.165392
0.200092
0.0638177
0.0762701
0.063466
0.0759135
0.26278
0.292285
0.261925
0.291434
0.0973215
0.112312
0.0969569
0.111939
0.293311
0.263824
0.292966
0.263458
0.11277
0.0977611
0.112613
0.0976054
0.201994
0.167292
0.201612
0.166895
0.0766988
0.0642328
0.0765396
0.064072
0.151779
0.151763
0.151374
0.151358
0.0587243
0.0587187
0.0585624
0.058557
0.167244
0.201913
0.166848
0.201532
0.0642152
0.0766672
0.0640547
0.0765085
0.263717
0.293187
0.263352
0.292842
0.0977144
0.11271
0.0975592
0.112555
0.293434
0.264009
0.293443
0.263985
0.112832
0.0978321
0.112828
0.0978235
0.202243
0.167587
0.202188
0.167508
0.0767937
0.0643397
0.0767728
0.0643117
0.152098
0.152082
0.152005
0.151989
0.0588369
0.0588313
0.0588052
0.0587996
0.167538
0.202161
0.167459
0.202107
0.0643218
0.0767617
0.064294
0.076741
0.263899
0.293308
0.263876
0.293317
0.0977846
0.112772
0.0977762
0.112768
0.293048
0.263707
0.293295
0.263909
0.112686
0.0977038
0.112783
0.0977904
0.202028
0.167429
0.202184
0.167554
0.0767024
0.0642671
0.0767684
0.0643214
0.151969
0.151953
0.152076
0.15206
0.058773
0.0587673
0.0588216
0.0588159
0.16738
0.201945
0.167504
0.202102
0.0642492
0.0766702
0.0643035
0.0767363
0.263597
0.292921
0.263799
0.293168
0.097656
0.112626
0.0977427
0.112723
0.292285
0.263047
0.292695
0.263404
0.11238
0.0974229
0.112542
0.0975712
0.201474
0.166945
0.201779
0.167215
0.0764694
0.0640592
0.0765936
0.06417
0.15152
0.151504
0.151772
0.151755
0.0585768
0.0585711
0.0586811
0.0586755
0.166896
0.201392
0.167166
0.201697
0.0640412
0.0764372
0.0641521
0.0765615
0.262938
0.292158
0.263294
0.292567
0.0973752
0.11232
0.0975234
0.112482
0.291269
0.262154
0.291795
0.262617
0.111972
0.0970453
0.112181
0.0972381
0.200704
0.166254
0.201108
0.166618
0.0761487
0.0637687
0.0763133
0.0639175
0.150868
0.150852
0.151212
0.151196
0.0583004
0.0582948
0.0584416
0.058436
0.166205
0.200622
0.166569
0.201026
0.0637509
0.0761168
0.0638997
0.0762813
0.262045
0.291142
0.262508
0.291668
0.096998
0.111912
0.0971905
0.112121
0.290063
0.261088
0.290679
0.261632
0.111488
0.0965963
0.111733
0.0968225
0.199776
0.165413
0.200253
0.165847
0.0757637
0.0634179
0.0759583
0.0635948
0.15007
0.150055
0.150482
0.150466
0.0579654
0.0579599
0.058134
0.0581284
0.165365
0.199695
0.165798
0.200172
0.0634004
0.0757322
0.0635772
0.0759266
0.26098
0.289939
0.261523
0.290553
0.0965495
0.111429
0.0967753
0.111673
0.288704
0.259885
0.289394
0.260495
0.110941
0.0960896
0.111216
0.0963435
0.198724
0.164456
0.19926
0.164945
0.0753277
0.0630196
0.0755468
0.0632192
0.14916
0.149144
0.149625
0.149609
0.0575845
0.0575791
0.057775
0.0577695
0.164408
0.198644
0.164897
0.19918
0.0630023
0.0752967
0.0632019
0.0755155
0.259779
0.288581
0.260388
0.289269
0.0960434
0.110883
0.096297
0.111157
0.287207
0.258563
0.287964
0.259231
0.11034
0.0955323
0.110642
0.0958109
0.197565
0.1634
0.198154
0.163937
0.0748474
0.0625801
0.0750881
0.0627999
0.148153
0.148138
0.148665
0.14865
0.0571638
0.0571585
0.0573738
0.0573684
0.163353
0.197487
0.16389
0.198075
0.0625631
0.0748168
0.0627828
0.0750573
0.258458
0.287086
0.259125
0.287841
0.0954868
0.110283
0.0957651
0.110583
0.285582
0.25713
0.286403
0.257853
0.109688
0.0949274
0.110015
0.0952298
0.196309
0.162252
0.196946
0.162835
0.0743256
0.0621022
0.0745869
0.0623411
0.147059
0.147044
0.147614
0.147599
0.0567061
0.0567009
0.0569345
0.0569292
0.162206
0.196232
0.162788
0.196868
0.0620855
0.0742955
0.0623243
0.0745566
0.257027
0.285463
0.257749
0.286282
0.0948827
0.109631
0.0951847
0.109957
0.283831
0.255589
0.284715
0.256366
0.108984
0.0942758
0.109337
0.0946016
0.194957
0.161017
0.195642
0.161643
0.0737633
0.0615868
0.0740449
0.0618445
0.14588
0.145865
0.146478
0.146463
0.0562123
0.0562072
0.0564587
0.0564536
0.160972
0.194881
0.161598
0.195565
0.0615705
0.0737338
0.061828
0.0740152
0.255488
0.283714
0.256263
0.284596
0.0942319
0.108929
0.0945573
0.10928
0.281954
0.253941
0.282901
0.254771
0.10823
0.0935777
0.108608
0.0939269
0.193511
0.159695
0.194243
0.160365
0.0731606
0.0610341
0.0734625
0.0613105
0.144618
0.144603
0.145257
0.145242
0.0556824
0.0556774
0.055947
0.055942
0.159651
0.193437
0.16032
0.194168
0.0610181
0.0731318
0.0612944
0.0734334
0.253841
0.281839
0.254671
0.282784
0.0935347
0.108176
0.0938834
0.108553
0.279951
0.252185
0.280961
0.253069
0.107426
0.0928327
0.107829
0.0932055
0.19197
0.158286
0.19275
0.158999
0.0725174
0.0604438
0.0728397
0.0607391
0.143272
0.143257
0.143953
0.143938
0.0551164
0.0551116
0.0553992
0.0553943
0.158242
0.191898
0.158955
0.192676
0.0604283
0.0724892
0.0607234
0.0728112
0.252088
0.279838
0.252971
0.280846
0.0927906
0.107372
0.0931629
0.107775
0.277823
0.250322
0.278895
0.25126
0.106571
0.0920408
0.107
0.0924371
0.190335
0.156789
0.191162
0.157546
0.0718337
0.0598161
0.0721763
0.0601303
0.141842
0.141828
0.142565
0.142551
0.0545142
0.0545095
0.0548152
0.0548104
0.156747
0.190264
0.157503
0.19109
0.059801
0.0718062
0.0601149
0.0721485
0.250227
0.277712
0.251163
0.278783
0.0919996
0.106519
0.0923955
0.106946
0.27557
0.248353
0.276705
0.249344
0.105666
0.0912025
0.106119
0.0916221
0.188606
0.155206
0.18948
0.156007
0.0711096
0.059151
0.0714725
0.0594839
0.140329
0.140315
0.141094
0.14108
0.0538761
0.0538715
0.0541951
0.0541904
0.155165
0.188536
0.155965
0.189409
0.0591363
0.0710829
0.059469
0.0714454
0.248259
0.275462
0.249249
0.276595
0.0911623
0.105615
0.0915814
0.106068
0.273195
0.246277
0.27439
0.247321
0.104711
0.0903176
0.10519
0.0907606
0.186783
0.153537
0.187704
0.15438
0.0703455
0.0584488
0.0707285
0.0588003
0.138733
0.138719
0.139539
0.139526
0.0532021
0.0531977
0.0535391
0.0535346
0.153496
0.186715
0.154339
0.187635
0.0584345
0.0703195
0.0587858
0.0707021
0.246186
0.273089
0.247229
0.274283
0.0902785
0.104661
0.090721
0.105139
0.270698
0.244096
0.271954
0.245193
0.103708
0.0893861
0.104211
0.0898526
0.184866
0.15178
0.185834
0.152667
0.0695413
0.0577094
0.0699445
0.0580796
0.137053
0.13704
0.137902
0.137888
0.0524924
0.0524881
0.0528474
0.052843
0.15174
0.1848
0.152627
0.185767
0.0576956
0.0695161
0.0580656
0.0699189
0.244008
0.270596
0.245104
0.27185
0.0893481
0.103659
0.089814
0.104161
0.26808
0.241808
0.269397
0.242959
0.102655
0.0884088
0.103183
0.088898
0.182853
0.149934
0.18387
0.150867
0.0686968
0.0569323
0.0691203
0.0573217
0.135287
0.135275
0.136179
0.136167
0.0517463
0.0517422
0.0521198
0.0521155
0.149896
0.182789
0.150828
0.183805
0.056919
0.0686724
0.0573081
0.0690955
0.241722
0.267981
0.242872
0.269296
0.0883719
0.102608
0.0888605
0.103135
0.265337
0.239407
0.266718
0.240616
0.101553
0.0873872
0.102106
0.0878992
0.180738
0.147991
0.181807
0.148974
0.0678101
0.0561152
0.0682553
0.0565252
0.133428
0.133416
0.134368
0.134356
0.0509615
0.0509575
0.0513549
0.0513508
0.147955
0.180676
0.148936
0.181744
0.0561024
0.0677865
0.0565121
0.0682313
0.239324
0.265241
0.240531
0.266619
0.0873515
0.101507
0.0878629
0.10206
0.26246
0.236881
0.26391
0.238154
0.100396
0.086313
0.100977
0.0868525
0.178508
0.14594
0.179636
0.146979
0.0668755
0.0552531
0.0673456
0.0556865
0.131463
0.131452
0.132459
0.132447
0.0501332
0.0501294
0.0505492
0.0505453
0.145904
0.178447
0.146943
0.179575
0.0552408
0.0668528
0.055674
0.0673225
0.2368
0.262366
0.238072
0.263814
0.0862786
0.100352
0.0868174
0.100932
0.259429
0.234209
0.260958
0.235558
0.0991749
0.0851773
0.0997896
0.0857489
0.17614
0.143758
0.177341
0.144865
0.0658847
0.0543377
0.0663843
0.0547991
0.129371
0.12936
0.130433
0.130422
0.0492531
0.0492495
0.0496964
0.0496927
0.143724
0.176082
0.144831
0.177282
0.054326
0.065863
0.0547871
0.0663621
0.234131
0.259339
0.235479
0.260866
0.0851442
0.0991324
0.0857151
0.0997462
0.256215
0.23136
0.25784
0.232802
0.0978774
0.0839676
0.0985326
0.0845782
0.173605
0.141414
0.174894
0.142607
0.0648248
0.0533564
0.065361
0.0538528
0.127121
0.12711
0.128267
0.128256
0.0483091
0.0483057
0.0487863
0.0487829
0.141381
0.173549
0.142574
0.174837
0.0533453
0.0648041
0.0538414
0.0653398
0.231285
0.256129
0.232726
0.257752
0.083936
0.0978368
0.0845459
0.0984909
0.252775
0.228289
0.25452
0.229849
0.0964837
0.0826658
0.0971901
0.0833253
0.170857
0.138865
0.172259
0.140167
0.0636776
0.0522912
0.0642603
0.0528323
0.124669
0.124659
0.125922
0.125912
0.0472832
0.04728
0.0478041
0.0478008
0.138834
0.170805
0.140135
0.172205
0.0522808
0.0636581
0.0528216
0.0642402
0.228218
0.252693
0.229777
0.254435
0.0826358
0.0964451
0.0832945
0.0971503
0.249047
0.224936
0.250945
0.226646
0.094966
0.081246
0.0957386
0.0819685
0.167837
0.13605
0.169384
0.137494
0.062418
0.0511179
0.0630606
0.0517167
0.121956
0.121946
0.123348
0.123338
0.0461515
0.0461486
0.0467289
0.0467258
0.136021
0.167788
0.137463
0.169333
0.0511083
0.0623997
0.0517066
0.0630417
0.224869
0.24897
0.226577
0.250865
0.0812178
0.0949295
0.0819394
0.0957009
0.24495
0.221222
0.247044
0.223124
0.0932866
0.0796745
0.0941455
0.0804772
0.164467
0.132893
0.1662
0.134519
0.0610135
0.0498045
0.0617332
0.050478
0.118904
0.118895
0.120476
0.120467
0.0448825
0.0448799
0.0455332
0.0455304
0.132866
0.164421
0.134491
0.166152
0.0497958
0.0609968
0.0504688
0.0617157
0.22116
0.244877
0.223059
0.246969
0.0796483
0.0932526
0.08045
0.0941101
0.240379
0.217045
0.242724
0.219193
0.0913981
0.0779158
0.0923682
0.0788173
0.160642
0.129285
0.162618
0.131152
0.0594219
0.0483085
0.0602415
0.0490796
0.115407
0.115399
0.117218
0.11721
0.0434345
0.0434322
0.0441808
0.0441784
0.129261
0.1606
0.131127
0.162574
0.0483008
0.0594069
0.0490715
0.0602257
0.216988
0.240313
0.219133
0.242654
0.077892
0.091367
0.0787923
0.0923355
0.235252
0.212263
0.23788
0.214736
0.0892542
0.0759264
0.0903563
0.0769494
0.156185
0.12506
0.158508
0.127263
0.0575773
0.0465676
0.0585345
0.0474709
0.111316
0.111309
0.113446
0.113439
0.0417521
0.0417503
0.0426236
0.0426215
0.125039
0.156148
0.12724
0.158468
0.0465612
0.0575644
0.0474639
0.0585205
0.212212
0.235192
0.214682
0.237816
0.0759054
0.0892264
0.076927
0.0903267
0.229803
0.206438
0.232502
0.20954
0.0869129
0.073609
0.0880875
0.0748206
0.150629
0.119912
0.153599
0.122627
0.0553283
0.0444831
0.0565181
0.0455734
0.106437
0.106431
0.108985
0.108979
0.0397752
0.0397738
0.0408003
0.0407987
0.119895
0.150598
0.122608
0.153565
0.0444782
0.0553179
0.0455678
0.0565064
0.206395
0.229751
0.209493
0.232446
0.0735913
0.0868891
0.0748013
0.0880616
0.227145
0.195959
0.227655
0.202491
0.0847017
0.0696765
0.0858176
0.0720948
0.142409
0.113437
0.14702
0.116847
0.0521962
0.0419588
0.053921
0.0432716
0.100711
0.100707
0.103662
0.103658
0.0375205
0.0375197
0.0386703
0.0386692
0.113424
0.142384
0.116832
0.146992
0.0419554
0.0521885
0.0432675
0.053912
0.195924
0.227102
0.202452
0.227607
0.0696628
0.0846826
0.072079
0.0857959
0.154063
0.128443
0.089824
0.0750407
0.133023
0.110427
0.0738079
0.0619083
0.0696773
0.0339392
0.0306429
0.00911268
0.05639
0.0245101
0.0225987
0.00649544
0.0154585
0.0154688
0.00415772
0.00415985
0.00954562
0.00955369
0.00330587
0.00330755
0.0339585
0.0696908
0.00912155
0.0306592
0.0245273
0.0564026
0.00650137
0.0226131
0.128453
0.154068
0.0750553
0.0898334
0.110436
0.133029
0.061922
0.0738172
0.237836
0.2038
0.201076
0.170014
0.207191
0.176361
0.175109
0.14716
0.13392
0.0903955
0.103914
0.0625818
0.111165
0.0714121
0.0857596
0.0481685
0.0694272
0.0694302
0.0418371
0.0418448
0.0523442
0.052348
0.0289761
0.0289842
0.0903998
0.133919
0.0625936
0.103922
0.0714184
0.111167
0.0481807
0.085768
0.203793
0.237824
0.170016
0.201074
0.176358
0.207184
0.147164
0.175109
0.29464
0.257624
0.268394
0.23256
0.2557
0.222066
0.233403
0.200872
0.184187
0.138952
0.160497
0.115906
0.153374
0.11212
0.133517
0.0928008
0.11769
0.117688
0.0947901
0.0947902
0.0930371
0.0930362
0.0737568
0.0737581
0.138943
0.184168
0.115903
0.160487
0.112115
0.153362
0.0928015
0.133512
0.257596
0.294606
0.232543
0.268372
0.222046
0.255674
0.200861
0.233386
0.337557
0.299124
0.317484
0.279651
0.291945
0.256989
0.275013
0.240619
0.2241
0.178051
0.205295
0.159604
0.186742
0.144812
0.171031
0.129403
0.15649
0.156483
0.138192
0.138187
0.125547
0.125542
0.11024
0.110238
0.178028
0.224062
0.159588
0.205266
0.144796
0.186713
0.129393
0.17101
0.299073
0.337498
0.279611
0.317437
0.256948
0.291897
0.240588
0.274975
0.370602
0.331372
0.35516
0.316277
0.319784
0.284057
0.306777
0.271391
0.255484
0.208901
0.240767
0.194426
0.212921
0.170514
0.200649
0.158464
0.187076
0.187064
0.172726
0.172717
0.151034
0.151025
0.13909
0.139083
0.208867
0.255426
0.194398
0.240719
0.170488
0.212876
0.158443
0.200613
0.331297
0.370518
0.316214
0.355087
0.283997
0.319713
0.27134
0.306717
0.395702
0.355994
0.384037
0.344539
0.340901
0.304692
0.33109
0.295096
0.279611
0.232672
0.268375
0.221596
0.233006
0.190257
0.223657
0.181065
0.210643
0.210628
0.199661
0.199648
0.170593
0.170581
0.161487
0.161476
0.232626
0.279536
0.221556
0.268308
0.190221
0.232946
0.181033
0.223604
0.355899
0.395595
0.344454
0.38394
0.304613
0.34081
0.295025
0.331008
0.41426
0.37427
0.405705
0.365839
0.356481
0.319973
0.349303
0.312927
0.297614
0.250449
0.289304
0.242239
0.247953
0.204972
0.241058
0.198182
0.228282
0.228264
0.220134
0.220117
0.185177
0.185162
0.178446
0.178433
0.250393
0.297524
0.242188
0.289221
0.204928
0.24788
0.198141
0.240991
0.374156
0.414133
0.365733
0.405587
0.319877
0.356372
0.312839
0.349202
0.427506
0.38736
0.421463
0.381384
0.367565
0.33088
0.362513
0.325905
0.310573
0.26328
0.304655
0.257417
0.258671
0.215548
0.253781
0.21072
0.241026
0.241005
0.235201
0.235181
0.195666
0.195649
0.190876
0.19086
0.263215
0.310471
0.257357
0.304558
0.215496
0.258586
0.210672
0.253702
0.38723
0.427362
0.381262
0.421327
0.33077
0.367441
0.325801
0.362395
0.436526
0.396311
0.432467
0.39228
0.375079
0.338303
0.371702
0.334964
0.319489
0.272137
0.315473
0.268144
0.266005
0.222807
0.262706
0.219539
0.249838
0.249814
0.245864
0.245841
0.202877
0.202857
0.199629
0.19961
0.272066
0.319376
0.268076
0.315365
0.222749
0.265911
0.219484
0.262616
0.396169
0.436369
0.392143
0.432316
0.338181
0.374941
0.334847
0.37157
0.442294
0.40207
0.439751
0.399527
0.37985
0.343045
0.377749
0.340953
0.325277
0.277917
0.322719
0.275358
0.27073
0.227507
0.268645
0.22543
0.255602
0.255576
0.253048
0.253023
0.207556
0.207536
0.205487
0.205467
0.277841
0.325156
0.275285
0.322601
0.227445
0.270629
0.22537
0.268547
0.401919
0.442127
0.399379
0.439588
0.342915
0.379703
0.340827
0.377606
0.445627
0.405441
0.444207
0.403999
0.382575
0.345789
0.381417
0.344618
0.328722
0.281391
0.327246
0.279898
0.27351
0.230299
0.272322
0.229102
0.259083
0.259056
0.257584
0.257557
0.21035
0.210328
0.20915
0.209128
0.281311
0.328596
0.279819
0.327121
0.230234
0.273404
0.229038
0.272218
0.405282
0.445453
0.403844
0.444035
0.345653
0.382422
0.344485
0.381266
0.447195
0.407081
0.446586
0.406434
0.383825
0.347095
0.383344
0.346583
0.330472
0.283199
0.329772
0.282468
0.274891
0.231721
0.274343
0.231151
0.260913
0.260885
0.26017
0.260142
0.211789
0.211766
0.211208
0.211186
0.283116
0.330342
0.282387
0.329644
0.231654
0.274782
0.231084
0.274235
0.406918
0.447016
0.406272
0.446408
0.346955
0.383668
0.346444
0.383187
0.44751
0.407499
0.44747
0.407406
0.384033
0.347388
0.384024
0.347335
0.331028
0.283836
0.33087
0.283637
0.275292
0.232187
0.275188
0.23205
0.261588
0.261559
0.261369
0.26134
0.212285
0.212262
0.212131
0.212108
0.283753
0.330896
0.283554
0.330739
0.232119
0.275181
0.231981
0.275078
0.407334
0.447329
0.407242
0.447288
0.347246
0.383873
0.347193
0.383864
0.446992
0.407104
0.447335
0.407382
0.383554
0.347017
0.383863
0.347269
0.33079
0.283693
0.33099
0.283841
0.27505
0.232024
0.275237
0.232167
0.261488
0.261459
0.261613
0.261584
0.212159
0.212135
0.212281
0.212258
0.283609
0.330657
0.283757
0.330857
0.231955
0.274938
0.232098
0.275125
0.406938
0.44681
0.407216
0.447153
0.346874
0.383393
0.347126
0.383702
0.445863
0.406122
0.446478
0.406663
0.382569
0.346163
0.383101
0.346628
0.329985
0.282998
0.330442
0.2834
0.274346
0.231413
0.27474
0.23176
0.260847
0.260818
0.261221
0.261193
0.211592
0.211569
0.211916
0.211893
0.282914
0.329852
0.283316
0.330309
0.231344
0.274234
0.23169
0.274628
0.405957
0.445682
0.406497
0.446295
0.34602
0.382408
0.346485
0.382939
0.444323
0.404749
0.445126
0.405468
0.381244
0.344989
0.381932
0.3456
0.328806
0.281941
0.329434
0.282507
0.27334
0.230511
0.273871
0.23099
0.259848
0.25982
0.260384
0.260356
0.210742
0.210719
0.211195
0.211172
0.281857
0.328674
0.282423
0.329301
0.230443
0.273229
0.230921
0.27376
0.404584
0.444143
0.405302
0.444944
0.344847
0.381085
0.345458
0.381771
0.442479
0.403091
0.443424
0.403942
0.379667
0.343583
0.380473
0.344302
0.327359
0.280627
0.328111
0.281312
0.272117
0.229403
0.272749
0.229978
0.258599
0.25857
0.259251
0.259222
0.209689
0.209667
0.210236
0.210213
0.280544
0.327228
0.281228
0.327979
0.229335
0.272007
0.22991
0.272639
0.402928
0.4423
0.403778
0.443243
0.343442
0.37951
0.344161
0.380313
0.440392
0.401211
0.441454
0.402168
0.377887
0.341992
0.378791
0.3428
0.325706
0.279117
0.326555
0.279895
0.270725
0.228136
0.271438
0.228786
0.257158
0.25713
0.2579
0.257872
0.208482
0.20846
0.209102
0.209079
0.279035
0.325577
0.279812
0.326425
0.228069
0.270617
0.228719
0.271329
0.40105
0.440216
0.402006
0.441275
0.341853
0.377732
0.34266
0.378633
0.438096
0.399141
0.439259
0.40019
0.375929
0.340243
0.376919
0.341127
0.32388
0.277445
0.324813
0.278301
0.269191
0.226736
0.269972
0.22745
0.255561
0.255533
0.256378
0.256351
0.207146
0.207124
0.207828
0.207806
0.277364
0.323753
0.278219
0.324684
0.226669
0.269084
0.227383
0.269865
0.398983
0.437922
0.40003
0.439082
0.340106
0.375776
0.340989
0.376763
0.435607
0.396901
0.436865
0.398034
0.373806
0.338348
0.374878
0.339305
0.321899
0.275628
0.322908
0.276555
0.267526
0.225214
0.268372
0.225988
0.253823
0.253796
0.254709
0.254682
0.205694
0.205672
0.206433
0.206411
0.275548
0.321773
0.276474
0.322781
0.225149
0.267421
0.225922
0.268266
0.396744
0.435436
0.397876
0.436692
0.338214
0.373655
0.339169
0.374724
0.432931
0.394495
0.434282
0.39571
0.371521
0.336313
0.372673
0.33734
0.319769
0.273672
0.320852
0.274667
0.265736
0.223576
0.266644
0.224408
0.251951
0.251925
0.252904
0.252877
0.204129
0.204108
0.204924
0.204902
0.273593
0.319645
0.274588
0.320727
0.223512
0.265632
0.224343
0.26654
0.394341
0.432763
0.395555
0.434112
0.336181
0.371373
0.337206
0.372523
0.43007
0.391925
0.431514
0.393222
0.369076
0.334139
0.370309
0.335235
0.317492
0.27158
0.318648
0.272643
0.263822
0.221824
0.264792
0.222713
0.249949
0.249923
0.250967
0.250941
0.202455
0.202434
0.203304
0.203283
0.271503
0.31737
0.272566
0.318525
0.221761
0.26372
0.222649
0.264689
0.391774
0.429905
0.39307
0.431347
0.334009
0.36893
0.335104
0.370161
0.427024
0.389192
0.428561
0.390571
0.366471
0.331825
0.367784
0.332991
0.315069
0.269353
0.316299
0.270484
0.261784
0.219957
0.262816
0.220904
0.247816
0.247791
0.2489
0.248874
0.200671
0.20065
0.201575
0.201554
0.269277
0.31495
0.270408
0.316178
0.219896
0.261684
0.220841
0.262716
0.389045
0.426863
0.390421
0.428396
0.331698
0.366328
0.332862
0.367639
0.423793
0.386298
0.425423
0.387758
0.363706
0.329372
0.365099
0.330608
0.312501
0.26699
0.313803
0.268189
0.259622
0.217977
0.260717
0.21898
0.245553
0.245528
0.246702
0.246677
0.198777
0.198757
0.199736
0.199716
0.266916
0.312384
0.268114
0.313685
0.217916
0.259525
0.218919
0.260618
0.386153
0.423636
0.387611
0.425262
0.329248
0.363566
0.330482
0.364957
0.420379
0.383239
0.4221
0.384781
0.360782
0.32678
0.362254
0.328085
0.309785
0.264491
0.311161
0.265758
0.257337
0.215882
0.258494
0.216943
0.243159
0.243134
0.244373
0.244348
0.196773
0.196754
0.197788
0.197768
0.264418
0.309671
0.265685
0.311046
0.215823
0.257242
0.216883
0.258397
0.383097
0.420225
0.384638
0.421943
0.326658
0.360645
0.327962
0.362115
0.416782
0.380017
0.418594
0.38164
0.3577
0.32405
0.359251
0.325424
0.306923
0.261854
0.308373
0.263191
0.254929
0.213672
0.256147
0.214791
0.240632
0.240608
0.241913
0.241889
0.194659
0.19464
0.195729
0.19571
0.261783
0.306811
0.263119
0.30826
0.213615
0.254836
0.214732
0.256053
0.379879
0.416631
0.381501
0.418441
0.323931
0.357567
0.325304
0.359116
0.413001
0.376629
0.414905
0.378336
0.354463
0.321182
0.356092
0.322625
0.303909
0.259076
0.305435
0.260484
0.252395
0.211346
0.253676
0.212523
0.237968
0.237945
0.239318
0.239295
0.192433
0.192414
0.19356
0.193541
0.259007
0.3038
0.260414
0.305325
0.21129
0.252304
0.212466
0.253584
0.376494
0.412854
0.3782
0.414756
0.321066
0.354333
0.322508
0.35596
0.409034
0.373069
0.411032
0.374863
0.351066
0.318172
0.352775
0.319687
0.300738
0.25615
0.302344
0.257633
0.249732
0.208899
0.251079
0.210137
0.23516
0.235137
0.236584
0.236561
0.19009
0.190071
0.191276
0.191257
0.256083
0.300632
0.257565
0.302236
0.208844
0.249644
0.210082
0.250989
0.372938
0.408892
0.37473
0.410886
0.31806
0.35094
0.319573
0.352647
0.404873
0.369335
0.40697
0.371218
0.347506
0.315008
0.349298
0.316602
0.297399
0.253061
0.299091
0.254628
0.24693
0.20632
0.248348
0.207626
0.232193
0.232171
0.233699
0.233676
0.187618
0.1876
0.18887
0.188852
0.252995
0.297296
0.254562
0.298987
0.206267
0.246844
0.207572
0.248261
0.369208
0.404735
0.371089
0.406829
0.314899
0.347384
0.316491
0.349173
0.400492
0.365394
0.402703
0.367385
0.343767
0.311675
0.345651
0.313356
0.293863
0.249783
0.295657
0.251449
0.243968
0.203589
0.245469
0.204974
0.229041
0.22902
0.230643
0.230622
0.184998
0.184981
0.186328
0.18631
0.24972
0.293763
0.251384
0.295556
0.203538
0.243886
0.204922
0.245385
0.365271
0.400359
0.36726
0.402566
0.31157
0.343649
0.313249
0.34553
0.395861
0.361208
0.398202
0.363326
0.339822
0.308145
0.341813
0.309929
0.290093
0.246278
0.29201
0.248063
0.240819
0.200677
0.242418
0.202157
0.225666
0.225645
0.227385
0.227364
0.182201
0.182184
0.183623
0.183607
0.246217
0.289997
0.248001
0.291912
0.200627
0.240739
0.202107
0.242337
0.36109
0.395732
0.363206
0.398069
0.308044
0.339708
0.309826
0.341696
0.39093
0.356728
0.393428
0.359001
0.33563
0.304375
0.337751
0.306286
0.286035
0.242491
0.288104
0.244425
0.237437
0.197538
0.239159
0.199138
0.222011
0.221992
0.223878
0.223858
0.17918
0.179165
0.180721
0.180705
0.242432
0.285943
0.244365
0.28801
0.197491
0.237361
0.19909
0.239081
0.356614
0.390807
0.358885
0.393301
0.304278
0.335522
0.306186
0.337639
0.385632
0.351882
0.388324
0.354348
0.331136
0.300306
0.333417
0.302374
0.281616
0.238347
0.283877
0.24047
0.233763
0.194113
0.23564
0.195865
0.218003
0.217984
0.220058
0.220039
0.175877
0.175862
0.177568
0.177552
0.238291
0.281528
0.240413
0.283786
0.194068
0.23369
0.195819
0.235565
0.351773
0.385515
0.354237
0.388202
0.300213
0.331032
0.302279
0.33331
0.379877
0.346575
0.38281
0.349285
0.32626
0.295857
0.328743
0.298127
0.276738
0.233748
0.279242
0.236112
0.229715
0.190319
0.231791
0.192268
0.213542
0.213524
0.215837
0.215819
0.172208
0.172194
0.174093
0.174079
0.233695
0.276655
0.236058
0.279156
0.190277
0.229646
0.192224
0.23172
0.346472
0.379765
0.349179
0.382694
0.295769
0.326162
0.298036
0.328641
0.373552
0.34069
0.376784
0.343706
0.320904
0.290922
0.32364
0.293449
0.271277
0.228563
0.27409
0.231239
0.225187
0.186049
0.227517
0.188251
0.208497
0.20848
0.211103
0.211085
0.168066
0.168053
0.170203
0.17019
0.228514
0.271199
0.231187
0.274009
0.18601
0.225122
0.18821
0.227451
0.340594
0.373448
0.343606
0.376675
0.29084
0.320812
0.293364
0.323545
0.366544
0.334088
0.370131
0.337481
0.314955
0.285377
0.318002
0.288227
0.265067
0.222619
0.268278
0.2257
0.220035
0.181155
0.222699
0.183691
0.202693
0.202677
0.205703
0.205687
0.163305
0.163293
0.165773
0.165761
0.222573
0.264995
0.225652
0.268203
0.181119
0.219977
0.183653
0.222637
0.334
0.366448
0.337388
0.370029
0.285301
0.31487
0.288148
0.317913
0.358835
0.326594
0.362759
0.33046
0.308352
0.279046
0.311724
0.282318
0.257845
0.21565
0.261607
0.219285
0.214027
0.175411
0.217159
0.178408
0.195886
0.195872
0.199433
0.199419
0.15772
0.15771
0.16063
0.160619
0.21561
0.257781
0.219242
0.261538
0.175379
0.213974
0.178374
0.217103
0.326514
0.358748
0.330375
0.362666
0.278978
0.308276
0.282246
0.311642
0.351113
0.317695
0.354838
0.322389
0.301531
0.271391
0.304869
0.275454
0.248961
0.207203
0.253686
0.21165
0.206564
0.16842
0.210545
0.172104
0.187768
0.187756
0.192009
0.191997
0.151054
0.151045
0.154536
0.154526
0.207168
0.248905
0.211612
0.253626
0.168393
0.206519
0.172075
0.210496
0.317626
0.351037
0.322314
0.354756
0.271333
0.301465
0.275391
0.304797
0.349253
0.302856
0.348572
0.311943
0.299062
0.258182
0.299045
0.266316
0.23639
0.196717
0.243351
0.202224
0.195813
0.159704
0.201789
0.164283
0.178219
0.17821
0.183153
0.183142
0.143225
0.143218
0.147264
0.147256
0.196689
0.236344
0.202193
0.2433
0.159682
0.195777
0.164258
0.201749
0.302799
0.349189
0.311879
0.348502
0.258134
0.299006
0.266263
0.298984
0.178954
0.150346
0.109376
0.0915488
0.168556
0.141111
0.10119
0.0844818
0.0868843
0.0472392
0.0414939
0.0139591
0.0795109
0.0414723
0.0367617
0.011496
0.0260001
0.0260122
0.00561856
0.0056231
0.0210027
0.021014
0.00485834
0.00486124
0.047257
0.0868973
0.0139789
0.041512
0.0414914
0.0795245
0.011509
0.0367792
0.150353
0.178956
0.0915632
0.109384
0.14112
0.16856
0.0844966
0.101198
0.274759
0.237789
0.231871
0.197869
0.259157
0.223308
0.218947
0.18608
0.163849
0.117207
0.127484
0.0829622
0.150908
0.105401
0.117351
0.0740203
0.0947655
0.0947666
0.0611018
0.0611071
0.0834795
0.0834815
0.0526138
0.0526204
0.117207
0.163842
0.0829712
0.127488
0.105403
0.150904
0.074031
0.117357
0.237774
0.274739
0.197866
0.231863
0.223298
0.259141
0.18608
0.218942
0.343366
0.303354
0.311378