/*--------------------------------*- C++ -*----------------------------------*\
  =========                 |
  \\      /  F ield         | OpenFOAM: The Open Source CFD Toolbox
   \\    /   O peration     | Website:  https://openfoam.org
    \\  /    A nd           | Version:  9
     \\/     M anipulation  |
\*---------------------------------------------------------------------------*/
FoamFile
{
    format      ascii;
    class       volScalarField;
    location    "3.05";
    object      nut;
}
// * * * * * * * * * * * * * * * * * * * * * * * * * * * * * * * * * * * * * //

dimensions      [0 2 -1 0 0 0 0];

internalField   nonuniform List<scalar> 
36360
(
0.00280054
0.00244683
0.00157833
0.0014113
0.000474447
0.000428379
0.000260116
0.000258314
0.0015743
0.000813256
0.00065091
0.000259265
0.000268333
0.00017415
0.000184191
0.00015977
0.0003558
0.000356233
0.000166217
0.000166263
0.000139746
0.00013976
0.000160888
0.000160887
0.00081429
0.00157492
0.000259434
0.000651592
0.000174196
0.000268397
0.000159776
0.000184218
0.00244716
0.00280055
0.00141171
0.00157846
0.000428424
0.000474481
0.000258365
0.000260137
0.00417958
0.00378361
0.00359679
0.0032009
0.000685423
0.000610656
0.000605465
0.000536362
0.00293919
0.00236061
0.00231843
0.00162527
0.000468063
0.000341931
0.000385343
0.000243445
0.00213525
0.00213554
0.00113482
0.00113556
0.000254628
0.000254678
0.000166757
0.000166801
0.00236115
0.00293953
0.00162609
0.00231895
0.000342007
0.000468103
0.000243526
0.000385404
0.00378364
0.00417925
0.00320111
0.00359665
0.000610669
0.000685422
0.000536392
0.00060548
0.00504663
0.00468164
0.00464834
0.00426631
0.000784184
0.000708917
0.000741185
0.000665456
0.00393311
0.00351748
0.00347169
0.00298969
0.000579729
0.000481458
0.000530205
0.000420407
0.0034047
0.0034048
0.00284163
0.00284181
0.000428598
0.000428611
0.000355643
0.00035567
0.00351762
0.00393306
0.00299001
0.00347183
0.000481478
0.000579732
0.00042045
0.000530225
0.00468124
0.00504582
0.00426613
0.00464778
0.000708896
0.000784148
0.000665453
0.000741167
0.00569418
0.0053598
0.0053916
0.00504286
0.00084858
0.000775024
0.000819181
0.000744747
0.00467996
0.00433822
0.00433249
0.00396053
0.000654478
0.000569217
0.0006204
0.000529849
0.00425157
0.00425157
0.00386453
0.00386458
0.000526873
0.000526873
0.000483579
0.000483585
0.0043381
0.00467952
0.00396054
0.00433224
0.000569209
0.000654448
0.000529853
0.000620386
0.00535894
0.00569279
0.00504223
0.0053905
0.000774969
0.000848506
0.000744709
0.000819126
0.00618912
0.00587838
0.00595808
0.00563631
0.000894799
0.000822794
0.000873506
0.000800764
0.00524249
0.0049382
0.00498078
0.00466045
0.000707641
0.000628892
0.000683221
0.000601711
0.00486019
0.00486012
0.004579
0.00457896
0.000590793
0.000590785
0.000561881
0.000561877
0.00493786
0.0052417
0.00466022
0.00498017
0.000628861
0.00070758
0.000601691
0.000683175
0.00587706
0.00618717
0.00563521
0.00595641
0.000822704
0.000894688
0.000800691
0.000873413
0.00656368
0.00626998
0.00638928
0.00608783
0.000928351
0.000857542
0.000912908
0.000841544
0.00566263
0.00537992
0.00546766
0.00517534
0.00074587
0.00067081
0.000728316
0.000651647
0.00530583
0.00530569
0.00509946
0.00509935
0.000634887
0.000634872
0.000614792
0.00061478
0.00537939
0.00566152
0.00517491
0.00546671
0.000670761
0.000745783
0.000651607
0.000728242
0.00626822
0.00656119
0.00608629
0.00638704
0.000857421
0.000928204
0.000841438
0.000912778
0.00684173
0.00655935
0.00671307
0.00642551
0.00095236
0.000882414
0.000941372
0.000871028
0.0059706
0.00570163
0.00582835
0.00555306
0.000773039
0.000700228
0.000760625
0.000686819
0.00563005
0.00562985
0.00548019
0.00548002
0.000665566
0.000665546
0.000651603
0.000651585
0.00570093
0.00596921
0.00555244
0.0058271
0.000700163
0.000772929
0.000686762
0.000760526
0.00655721
0.00683875
0.00642355
0.00671031
0.000882265
0.000952181
0.000870892
0.000941208
0.00704134
0.00676659
0.00694965
0.00667144
0.000969035
0.000899698
0.000961471
0.000891855
0.00619022
0.0059306
0.00608939
0.00582534
0.000791849
0.000720451
0.000783324
0.000711296
0.00586111
0.00586086
0.0057547
0.00575448
0.000686564
0.000686539
0.000677065
0.000677042
0.00592975
0.00618859
0.00582457
0.00608788
0.000720374
0.00079172
0.000711226
0.000783203
0.00676413
0.00703794
0.00666913
0.00694644
0.000899525
0.00096883
0.000891693
0.000961278
0.00717898
0.00690929
0.00711627
0.00684426
0.000980115
0.000911195
0.000975151
0.00090604
0.00634104
0.00608797
0.00627229
0.00601604
0.000804352
0.000733846
0.00079875
0.000727847
0.00602037
0.00602009
0.00594739
0.00594713
0.000700444
0.000700415
0.000694229
0.000694202
0.00608702
0.00633923
0.00601515
0.00627056
0.000733759
0.000804207
0.000727765
0.000798613
0.00690657
0.00717523
0.00684166
0.00711267
0.000911004
0.000979889
0.000905857
0.000974934
0.00726912
0.00700273
0.00722846
0.00696054
0.000987034
0.00091839
0.000983991
0.000915221
0.00643962
0.00619114
0.00639505
0.00614429
0.000812196
0.000742247
0.00080874
0.000738544
0.00612518
0.00612487
0.00607739
0.0060771
0.000709145
0.000709114
0.000705307
0.000705277
0.0061901
0.00643766
0.00614329
0.00639316
0.000742152
0.00081204
0.000738453
0.00080859
0.0069998
0.0072651
0.00695771
0.00722455
0.000918184
0.000986792
0.000915022
0.000983755
0.00732382
0.0070595
0.00729947
0.00703418
0.000990934
0.000922464
0.000989273
0.000920722
0.00649954
0.00625418
0.00647273
0.00622575
0.000816686
0.000747073
0.000814763
0.000745001
0.00618957
0.00618924
0.00616034
0.00616003
0.000714153
0.00071412
0.000711999
0.000711967
0.00625308
0.00649748
0.00622468
0.00647071
0.000746974
0.000816522
0.000744904
0.000814603
0.00705642
0.0073196
0.00703117
0.00729533
0.000922249
0.00099068
0.000920511
0.000989023
0.00735297
0.00708985
0.00734026
0.00707658
0.000992708
0.000924342
0.000992014
0.0009236
0.00653164
0.00628833
0.00651751
0.00627306
0.000818827
0.000749413
0.000817971
0.000748468
0.00622481
0.00622447
0.00620886
0.00620853
0.000716599
0.000716565
0.000715605
0.000715571
0.00628719
0.0065295
0.00627194
0.0065154
0.00074931
0.000818658
0.000748366
0.000817805
0.00708667
0.00734862
0.00707344
0.00733596
0.000924121
0.000992447
0.000923381
0.000991755
0.00736328
0.00710101
0.00735937
0.00709669
0.000992992
0.000924686
0.000992971
0.000924642
0.00654386
0.00630219
0.00653889
0.00629612
0.000819343
0.000750046
0.000819227
0.000749878
0.00623967
0.00623932
0.00623289
0.00623255
0.000717296
0.000717262
0.000717098
0.000717064
0.00630102
0.00654168
0.00629496
0.00653673
0.000749941
0.000819171
0.000749774
0.000819057
0.00709777
0.00735886
0.00709348
0.00735495
0.000924461
0.000992728
0.000924418
0.000992707
0.00736222
0.00710043
0.00736353
0.00710143
0.000992354
0.000924086
0.00099278
0.000924493
0.00654343
0.00630227
0.00654409
0.00630233
0.000818862
0.000749629
0.000819211
0.000749942
0.00624025
0.0062399
0.00623985
0.00623951
0.000716913
0.000716878
0.000717205
0.000717171
0.00630109
0.00654122
0.00630116
0.0065419
0.000749524
0.00081869
0.000749837
0.000819039
0.00709717
0.00735776
0.00709818
0.00735907
0.000923859
0.000992088
0.000924267
0.000992513
0.00735214
0.00709071
0.00735721
0.00709553
0.00099101
0.00092276
0.000991723
0.00092346
0.0065336
0.00629287
0.00653835
0.00629721
0.00081762
0.000748419
0.000818283
0.000749064
0.0062313
0.00623095
0.00623527
0.00623492
0.000715719
0.000715684
0.000716355
0.00071632
0.00629168
0.00653139
0.00629603
0.00653615
0.000748314
0.000817448
0.000748959
0.000818111
0.00708744
0.00734767
0.00709226
0.00735272
0.000922533
0.000990744
0.000923233
0.000991455
0.00733629
0.00707522
0.00734399
0.00708266
0.00098921
0.000920971
0.000990133
0.000921885
0.00651782
0.00627724
0.00652527
0.0062844
0.000815906
0.000746722
0.000816786
0.000747592
0.00621599
0.00621564
0.00622283
0.00622248
0.000714031
0.000713996
0.000714894
0.00071486
0.00627606
0.00651562
0.00628322
0.00652307
0.000746618
0.000815734
0.000747488
0.000816615
0.00707196
0.00733183
0.00707939
0.0073395
0.000920746
0.000988945
0.000921659
0.000989866
0.00731628
0.00705561
0.0073259
0.00706495
0.000987069
0.000918838
0.000988152
0.000919913
0.0064978
0.0062572
0.0065072
0.00626639
0.000813842
0.000744666
0.000814886
0.000745704
0.00619617
0.00619582
0.00620508
0.00620473
0.000711978
0.000711944
0.000713012
0.000712977
0.00625603
0.00649561
0.00626521
0.00650501
0.000744563
0.000813672
0.0007456
0.000814715
0.00705237
0.00731184
0.0070617
0.00732143
0.000918615
0.000986806
0.000919689
0.000987886
0.00729302
0.00703284
0.00730418
0.00704367
0.000984646
0.000916425
0.000985865
0.000917635
0.00647453
0.00623379
0.00648546
0.00624456
0.000811496
0.000742324
0.000812676
0.000743499
0.00617291
0.00617257
0.00618343
0.00618309
0.000709635
0.000709601
0.000710808
0.000710774
0.00623263
0.00647236
0.0062434
0.00648328
0.000742222
0.000811328
0.000743397
0.000812507
0.00702962
0.00728862
0.00704044
0.00729974
0.000916204
0.000984386
0.000917413
0.000985602
0.00726702
0.00700743
0.00727951
0.00701953
0.000981974
0.000913763
0.000983315
0.000915095
0.00644856
0.00620761
0.00646079
0.00621971
0.000808904
0.000739731
0.000810204
0.000741029
0.00614682
0.00614648
0.0061587
0.00615836
0.000707038
0.000707005
0.000708335
0.000708302
0.00620646
0.00644642
0.00621856
0.00645864
0.00073963
0.000808739
0.000740928
0.000810038
0.00700425
0.00726267
0.00701633
0.00727511
0.000913545
0.000981717
0.000914875
0.000983055
0.00723853
0.00697963
0.00725225
0.00699291
0.000979064
0.000910864
0.000980524
0.000912314
0.00642015
0.00617891
0.00643358
0.00619225
0.000806079
0.0007369
0.000807495
0.000738317
0.00611818
0.00611784
0.00613131
0.00613097
0.000704201
0.000704169
0.000705618
0.000705585
0.00617777
0.00641803
0.00619111
0.00643146
0.000736801
0.000805915
0.000738217
0.000807331
0.00697649
0.00723423
0.00698975
0.0072479
0.000910649
0.000978811
0.000912098
0.000980268
0.00720764
0.00694953
0.00722255
0.00696396
0.000975919
0.000907731
0.000977497
0.000909299
0.0063894
0.0061478
0.006404
0.00616234
0.000803023
0.000733836
0.000804555
0.00073537
0.0060871
0.00608677
0.00610144
0.00610111
0.000701128
0.000701096
0.000702664
0.000702631
0.00614669
0.00638731
0.00616122
0.0064019
0.000733738
0.000802862
0.000735271
0.000804393
0.00694644
0.00720339
0.00696084
0.00721825
0.00090752
0.000975669
0.000909085
0.000977244
0.00717436
0.00691718
0.00719047
0.00693274
0.000972537
0.000904363
0.000974234
0.000906049
0.00635633
0.00611433
0.00637209
0.00613005
0.000799734
0.000730534
0.000801383
0.000732187
0.00605362
0.0060533
0.00606916
0.00606884
0.000697815
0.000697784
0.000699471
0.00069944
0.00611323
0.00635428
0.00612894
0.00637002
0.000730439
0.000799576
0.000732091
0.000801224
0.00691412
0.00717017
0.00692966
0.00718623
0.000904154
0.000972291
0.000905839
0.000973985
0.0071387
0.00688254
0.007156
0.00689925
0.000968913
0.000900754
0.000970732
0.000902562
0.00632093
0.00607846
0.00633787
0.00609538
0.00079621
0.000726993
0.000797978
0.000728767
0.00601773
0.00601741
0.00603448
0.00603416
0.000694259
0.000694228
0.000696038
0.000696007
0.00607738
0.00631891
0.00609429
0.00633583
0.000726899
0.000796055
0.000728672
0.000797821
0.00687953
0.00713457
0.00689621
0.00715182
0.000900549
0.000968672
0.000902355
0.000970487
0.00710062
0.0068456
0.00711914
0.00686346
0.000965048
0.000896902
0.000966988
0.000898832
0.00628317
0.00604017
0.00630129
0.00605831
0.000792446
0.000723207
0.000794334
0.000725104
0.00597941
0.0059791
0.00599738
0.00599707
0.000690455
0.000690425
0.000692359
0.000692328
0.00603911
0.00628118
0.00605724
0.00629929
0.000723115
0.000792294
0.000725011
0.000794181
0.00684263
0.00709655
0.00686048
0.00711502
0.000896701
0.00096481
0.000898629
0.000966747
0.00706011
0.00680632
0.00707985
0.00682536
0.000960938
0.000892806
0.000963001
0.000894859
0.00624302
0.00599944
0.00626235
0.00601881
0.000788441
0.000719174
0.000790451
0.000721195
0.00593862
0.00593832
0.00595784
0.00595753
0.000686401
0.000686372
0.000688431
0.000688401
0.00599839
0.00624106
0.00601776
0.00626038
0.000719084
0.000788292
0.000721104
0.0007903
0.00680341
0.00705611
0.00682243
0.0070758
0.000892609
0.000960705
0.000894659
0.000962764
0.00701712
0.00676466
0.00703811
0.00678491
0.000956585
0.000888462
0.00095877
0.00089064
0.00620041
0.00595619
0.00622098
0.00597683
0.000784191
0.000714891
0.000786324
0.000717038
0.00589531
0.00589501
0.0059158
0.0059155
0.000682093
0.000682064
0.00068425
0.000684222
0.00595516
0.00619849
0.0059758
0.00621905
0.000714803
0.000784045
0.000716949
0.000786177
0.00676181
0.00701319
0.00678203
0.00703413
0.000888269
0.000956357
0.000890445
0.000958539
0.00697158
0.00672052
0.00699387
0.00674203
0.000951988
0.000883867
0.000954295
0.000886171
0.00615526
0.00591032
0.00617712
0.0059323
0.000779694
0.000710353
0.000781952
0.000712629
0.00584937
0.00584908
0.0058712
0.0058709
0.000677527
0.000677499
0.000679815
0.000679787
0.00590932
0.00615338
0.00593129
0.00617523
0.000710267
0.000779551
0.000712542
0.000781808
0.00671772
0.00696773
0.00673921
0.00698996
0.000883678
0.000951765
0.00088598
0.000954069
0.00692338
0.00667377
0.00694702
0.00669661
0.000947143
0.000879018
0.000949575
0.000881448
0.0061074
0.00586167
0.00613065
0.00588508
0.000774942
0.000705552
0.000777329
0.000707962
0.00580062
0.00580034
0.00582389
0.0058236
0.000672693
0.000672666
0.000675117
0.00067509
0.0058607
0.00610557
0.00588409
0.00612879
0.000705469
0.000774804
0.000707878
0.000777188
0.00667103
0.00691961
0.00669384
0.00694319
0.000878834
0.000946925
0.000881262
0.000949354
0.00687229
0.00662421
0.00689743
0.00664852
0.000942041
0.000873922
0.000944604
0.00087648
0.00605658
0.00580992
0.00608137
0.00583494
0.000769922
0.000700469
0.000772447
0.000703024
0.00574874
0.00574846
0.00577364
0.00577336
0.000667571
0.000667545
0.000670143
0.000670117
0.00580897
0.00605479
0.00583398
0.00607956
0.000700388
0.000769787
0.000702942
0.00077231
0.00662154
0.0068686
0.00664581
0.00689368
0.000873743
0.000941828
0.000876298
0.000944388
0.00681782
0.00657128
0.00684473
0.00659737
0.000936653
0.00086853
0.000939364
0.000871242
0.00600222
0.00575451
0.00602888
0.00578146
0.000764594
0.000695064
0.000767279
0.000697786
0.00569317
0.0056929
0.00572001
0.00571974
0.000662121
0.000662095
0.000664864
0.000664838
0.00575359
0.00600048
0.00578053
0.00602711
0.000694987
0.000764464
0.000697707
0.000767146
0.00656868
0.00681423
0.00659473
0.00684107
0.000868356
0.000936447
0.000871065
0.000939154
0.00675932
0.00651421
0.00678836
0.00654248
0.000930936
0.000862792
0.000933819
0.000865685
0.00594355
0.00569464
0.00597249
0.00572395
0.000758905
0.000689279
0.000761779
0.000692201
0.00563308
0.00563282
0.00566232
0.00566205
0.000656281
0.000656256
0.000659229
0.000659204
0.00569375
0.00594187
0.00572304
0.00597078
0.000689204
0.000758779
0.000692125
0.000761651
0.00651169
0.00675583
0.00653992
0.0067848
0.000862624
0.000930736
0.000865513
0.000933616
0.00669583
0.00645204
0.00672751
0.00648302
0.000924821
0.000856638
0.000927914
0.00085975
0.00587952
0.00562918
0.00591131
0.00566146
0.000752771
0.000683022
0.00075588
0.000686194
0.00556736
0.00556711
0.00559959
0.00559934
0.000649957
0.000649934
0.000653162
0.000653138
0.00562832
0.00587789
0.00566059
0.00590966
0.000682951
0.00075265
0.000686121
0.000755757
0.0064496
0.00669246
0.00648054
0.00672406
0.000856476
0.000924628
0.000859585
0.000927717
0.00662604
0.0063834
0.00666108
0.00641783
0.000918207
0.000849965
0.000921565
0.000853353
0.00580867
0.00555663
0.00584409
0.00559269
0.000746075
0.000676165
0.000749483
0.000679657
0.00549447
0.00549424
0.00553053
0.00553029
0.000643014
0.000642992
0.000646549
0.000646526
0.00555581
0.00580711
0.00559186
0.00584251
0.000676098
0.00074596
0.000679588
0.000749366
0.00638106
0.00662279
0.00641544
0.00665775
0.000849811
0.000918022
0.000853194
0.000921376
0.00654811
0.00630645
0.0065875
0.00634532
0.000910949
0.000842628
0.000914651
0.00084637
0.00572909
0.00547499
0.00576917
0.0055159
0.000738652
0.000668531
0.000742448
0.000672437
0.00541242
0.0054122
0.00545337
0.00545314
0.000635268
0.000635247
0.000639231
0.000639211
0.00547423
0.00572761
0.00551512
0.00576766
0.000668467
0.000738544
0.000672372
0.000742336
0.00630422
0.00654501
0.00634304
0.00658431
0.000842481
0.000910773
0.000846219
0.00091447
0.00645958
0.00621869
0.00650464
0.00626332
0.00090285
0.000834431
0.000907001
0.000838628
0.00563827
0.0053817
0.00568434
0.00542883
0.000730287
0.00065988
0.000734585
0.00066433
0.00531863
0.00531843
0.00536584
0.00536563
0.000626467
0.000626449
0.000630995
0.000630976
0.00538099
0.00563689
0.0054281
0.00568292
0.000659822
0.000730187
0.000664269
0.000734481
0.00621659
0.00645664
0.00626116
0.0065016
0.000834293
0.000902685
0.000838485
0.00090683
0.00635721
0.00611719
0.00640967
0.00616915
0.000893656
0.000825161
0.000898391
0.000829926
0.00553298
0.00527339
0.00558679
0.00532854
0.000720691
0.000649887
0.000725649
0.000655057
0.00520982
0.00520964
0.00526503
0.00526484
0.000616273
0.000616256
0.000621548
0.000621531
0.00527276
0.00553172
0.00532787
0.00558547
0.000649835
0.0007206
0.000655002
0.000725552
0.00611525
0.00635446
0.00616713
0.00640681
0.000825034
0.000893503
0.000829793
0.000898231
0.00623721
0.00599778
0.00629896
0.00605934
0.000883103
0.000814549
0.000888543
0.000820023
0.00540853
0.00514582
0.00547268
0.00521121
0.000709408
0.000638062
0.000715285
0.000644224
0.00508233
0.00508219
0.00514734
0.00514718
0.000604213
0.0006042
0.000610489
0.000610474
0.00514528
0.00540742
0.00521062
0.00547149
0.000638018
0.000709328
0.000644176
0.000715199
0.00599603
0.00623469
0.00605749
0.00629631
0.000814436
0.000882965
0.000819903
0.000888397
0.00609967
0.00585311
0.00616936
0.00592871
0.000871434
0.000802012
0.000877307
0.000808591
0.00525767
0.00499565
0.00533613
0.00507249
0.000695406
0.00062361
0.000702848
0.00063121
0.004935
0.00493489
0.0050097
0.00500957
0.000589728
0.000589718
0.000597283
0.000597271
0.00499522
0.00525674
0.005072
0.00533511
0.000623575
0.00069534
0.000631171
0.000702775
0.00585161
0.00609745
0.00592708
0.00616697
0.000801916
0.000871314
0.000808486
0.000877177
0.00597681
0.00565194
0.00603166
0.0057638
0.000860271
0.000780287
0.000865922
0.000793716
0.00507754
0.0048333
0.00516915
0.00491291
0.000675428
0.000605649
0.000686501
0.000615055
0.00477938
0.0047793
0.00485535
0.00485526
0.000572761
0.000572755
0.000581475
0.000581467
0.00483298
0.0050768
0.00491254
0.00516832
0.000605624
0.000675377
0.000615026
0.000686443
0.00565072
0.00597495
0.00576243
0.00602959
0.00078021
0.000860173
0.000793629
0.000865812
0.00442782
0.00390158
0.00274872
0.00239396
0.00379204
0.0033215
0.00226673
0.00197345
0.00279739
0.00187119
0.00139401
0.00053659
0.00228512
0.00140148
0.00106167
0.000378009
0.00115548
0.00115647
0.000274701
0.000274864
0.000735174
0.000735959
0.000208168
0.000208324
0.00187273
0.00279833
0.000537324
0.00139502
0.00140283
0.00228595
0.000378496
0.00106255
0.00390201
0.0044277
0.00239457
0.0027488
0.00332192
0.003792
0.00197399
0.00226685
0.00680141
0.00620147
0.00572256
0.00513679
0.00579418
0.00525021
0.00490573
0.00437518
0.00513289
0.0044114
0.00402498
0.00317323
0.00423597
0.00353344
0.00332272
0.00248975
0.00414565
0.00414599
0.00277263
0.00277329
0.00325777
0.00325812
0.00203582
0.00203651
0.00441198
0.00513314
0.00317424
0.00402563
0.00353406
0.00423632
0.00249074
0.00332335
0.00620121
0.00680054
0.00513693
0.00572212
0.00525013
0.00579358
0.00437539
0.00490545
0.00858391
0.00800024
0.00774255
0.00714722
0.0072077
0.00668176
0.00654703
0.00600865
0.00704248
0.00651691
0.00613508
0.00552468
0.0057748
0.00527175
0.00504855
0.00445965
0.00638802
0.00638807
0.00534297
0.00534315
0.00514707
0.00514717
0.00427955
0.00427975
0.00651681
0.00704187
0.0055249
0.00613492
0.00527183
0.0057745
0.00445998
0.00504859
0.00799897
0.00858188
0.00714649
0.00774113
0.00668094
0.00720624
0.00600822
0.00654602
0.0100207
0.00946376
0.00933949
0.00876934
0.00831638
0.00781799
0.00779336
0.00728147
0.00859274
0.00817674
0.00785872
0.00739571
0.00699596
0.00660099
0.00642072
0.00597998
0.00810444
0.00810428
0.0073005
0.00730044
0.00653058
0.00653053
0.00588836
0.00588839
0.00817603
0.00859119
0.00739531
0.00785764
0.00660062
0.00699498
0.00597983
0.00642009
0.00946133
0.0100173
0.00876751
0.00933678
0.00781631
0.00831389
0.00728023
0.00779138
0.0111748
0.0106405
0.0106301
0.0100851
0.00919383
0.00871733
0.00878088
0.00829427
0.00982897
0.00947541
0.00924658
0.00886563
0.00795279
0.00761725
0.00750378
0.00714238
0.00943012
0.00942976
0.00880883
0.00880857
0.00757082
0.00757063
0.00708586
0.00708573
0.0094741
0.00982648
0.00886462
0.00924456
0.00761646
0.00795113
0.0071418
0.00750246
0.0106369
0.01117
0.0100821
0.0106259
0.00871476
0.00919026
0.00829215
0.00877783
0.0120797
0.0115626
0.0116555
0.0111304
0.00987369
0.0094136
0.00955592
0.0090881
0.0107918
0.0104763
0.0103409
0.0100083
0.00868797
0.00838811
0.00834471
0.00802883
0.0104457
0.0104452
0.00997109
0.00997062
0.00835437
0.00835404
0.00798941
0.00798914
0.0104745
0.0107885
0.0100067
0.010338
0.00838693
0.00868568
0.00802785
0.00834273
0.0115578
0.0120735
0.0111261
0.0116499
0.0094102
0.00986909
0.00908511
0.0095518
0.0127674
0.0122634
0.0124475
0.0119374
0.0103844
0.00993707
0.0101473
0.00969409
0.0115209
0.01123
0.0111819
0.0108796
0.00923844
0.00896161
0.00898304
0.0086956
0.0112084
0.0112077
0.0108537
0.0108531
0.00893563
0.00893518
0.00866592
0.00866553
0.0112276
0.0115167
0.0108775
0.0111781
0.00896008
0.00923558
0.00869424
0.00898046
0.0122575
0.0127599
0.0119321
0.0124406
0.00993291
0.0103788
0.00969029
0.0101422
0.0132725
0.012778
0.0130395
0.0125406
0.010756
0.0103179
0.0105848
0.0101425
0.0120553
0.0117809
0.0118086
0.0115264
0.00963798
0.0093766
0.0094539
0.00918523
0.0117652
0.0117644
0.0115078
0.011507
0.00935587
0.00935533
0.00916185
0.00916136
0.0117781
0.0120504
0.0115238
0.0118041
0.00937477
0.00963463
0.00918355
0.00945079
0.0127713
0.013264
0.0125343
0.0130314
0.0103131
0.0107496
0.010138
0.0105788
0.0136288
0.013141
0.013466
0.0129751
0.0110157
0.0105841
0.0108972
0.0104625
0.0124319
0.0121687
0.0122595
0.0119909
0.00991688
0.00966603
0.00978941
0.00953345
0.0121572
0.0121562
0.0119772
0.0119763
0.00964908
0.00964846
0.0095145
0.00951392
0.0121655
0.0124264
0.0119879
0.0122543
0.00966396
0.00991313
0.0095315
0.00978585
0.0131335
0.0136193
0.0129679
0.0134569
0.0105787
0.0110087
0.0104574
0.0108904
0.0138679
0.0133848
0.0137598
0.0132746
0.0111882
0.010761
0.0111103
0.010681
0.0126849
0.0124294
0.0125702
0.0123108
0.0101023
0.00985861
0.0100183
0.00977103
0.0124208
0.0124197
0.0123006
0.0122996
0.00984443
0.00984375
0.0097553
0.00975464
0.0124259
0.0126789
0.0123075
0.0125645
0.00985635
0.0100982
0.00976887
0.0100144
0.0133767
0.0138576
0.0132667
0.0137499
0.0107552
0.0111807
0.0106754
0.0111029
0.0140179
0.0135381
0.0139511
0.0134697
0.011295
0.0108706
0.0112474
0.0108217
0.0128442
0.0125938
0.0127728
0.0125197
0.0102175
0.00997857
0.0101659
0.00992444
0.0125874
0.0125862
0.012512
0.0125108
0.0099664
0.00996567
0.00991106
0.00991035
0.0125901
0.0128379
0.0125161
0.0127667
0.00997617
0.0102132
0.00992211
0.0101617
0.0135295
0.0140072
0.0134614
0.0139405
0.0108645
0.011287
0.0108158
0.0112396
0.0141029
0.0136251
0.0140659
0.0135871
0.0113541
0.0109315
0.0113283
0.0109049
0.0129351
0.0126879
0.0128951
0.012646
0.0102817
0.0100458
0.0102534
0.0100158
0.0126829
0.0126817
0.01264
0.0126388
0.0100351
0.0100343
0.0100041
0.0100033
0.0126841
0.0129286
0.0126423
0.0128887
0.0100433
0.0102773
0.0100133
0.010249
0.0136163
0.0140918
0.0135784
0.0140548
0.0109252
0.0113458
0.0108987
0.0113201
0.01414
0.0136639
0.0141248
0.013648
0.011378
0.0109567
0.0113683
0.0109466
0.0129766
0.012732
0.0129593
0.0127129
0.0103094
0.0100758
0.0102979
0.0100627
0.0127283
0.0127271
0.0127081
0.0127069
0.0100663
0.0100655
0.0100522
0.0100514
0.0127281
0.01297
0.012709
0.0129527
0.0100732
0.0103048
0.0100602
0.0102934
0.0136548
0.0141286
0.0136391
0.0141135
0.0109503
0.0113696
0.0109402
0.01136
0.014147
0.0136719
0.0141458
0.0136699
0.0113803
0.0109598
0.0113807
0.0109597
0.0129859
0.0127421
0.0129828
0.0127379
0.0103135
0.0100806
0.0103124
0.0100786
0.0127387
0.0127374
0.012734
0.0127327
0.0100715
0.0100707
0.0100689
0.0100681
0.0127381
0.0129792
0.012734
0.0129761
0.010078
0.0103089
0.010076
0.0103078
0.0136627
0.0141355
0.0136608
0.0141343
0.0109533
0.0113719
0.0109532
0.0113722
0.0141313
0.013657
0.0141399
0.0136651
0.0113661
0.0109461
0.0113735
0.0109532
0.0129718
0.0127286
0.0129793
0.0127353
0.0103003
0.0100679
0.0103069
0.0100739
0.0127256
0.0127243
0.0127318
0.0127305
0.0100592
0.0100584
0.0100647
0.0100639
0.0127246
0.0129651
0.0127314
0.0129725
0.0100653
0.0102956
0.0100713
0.0103023
0.0136478
0.0141199
0.0136559
0.0141284
0.0109396
0.0113576
0.0109467
0.011365
0.0141011
0.0136274
0.0141163
0.0136422
0.0113412
0.0109217
0.0113535
0.0109336
0.0129427
0.0126997
0.012957
0.0127134
0.0102761
0.0100439
0.0102877
0.010055
0.0126968
0.0126955
0.01271
0.0127088
0.0100353
0.0100345
0.010046
0.0100452
0.0126957
0.012936
0.0127094
0.0129502
0.0100413
0.0102715
0.0100524
0.0102831
0.0136183
0.0140897
0.013633
0.0141048
0.0109152
0.0113328
0.0109271
0.0113449
0.0140608
0.0135877
0.0140806
0.0136071
0.0113089
0.0108898
0.0113246
0.0109052
0.0129032
0.0126601
0.0129222
0.0126786
0.0102442
0.0100119
0.0102593
0.0100267
0.0126572
0.0126559
0.0126754
0.0126741
0.0100035
0.0100027
0.0100178
0.010017
0.0126561
0.0128964
0.0126747
0.0129154
0.0100094
0.0102396
0.0100241
0.0102547
0.0135786
0.0140494
0.013598
0.0140692
0.0108833
0.0113005
0.0108987
0.0113161
0.0140129
0.0135404
0.0140363
0.0135634
0.011271
0.0108523
0.0112893
0.0108703
0.012856
0.0126127
0.0128785
0.0126349
0.0102066
0.00997412
0.0102244
0.00999161
0.0126097
0.0126085
0.0126316
0.0126303
0.00996561
0.00996483
0.00998279
0.009982
0.0126087
0.0128493
0.0126309
0.0128719
0.00997157
0.0102021
0.00998905
0.0102198
0.0135314
0.0140017
0.0135543
0.0140249
0.0108459
0.0112627
0.0108639
0.0112809
0.013959
0.0134872
0.0139853
0.013513
0.0112286
0.0108103
0.0112491
0.0108305
0.0128026
0.012559
0.0128282
0.0125842
0.0101644
0.00993154
0.0101844
0.00995131
0.0125559
0.0125547
0.0125808
0.0125796
0.00992297
0.00992219
0.00994244
0.00994167
0.0125551
0.012796
0.0125803
0.0128215
0.00992902
0.0101599
0.00994877
0.0101799
0.0134783
0.0139479
0.013504
0.013974
0.0108039
0.0112203
0.0108241
0.0112407
0.0138999
0.0134287
0.0139287
0.0134571
0.011182
0.0107642
0.0112045
0.0107864
0.012744
0.0125
0.0127721
0.0125278
0.010118
0.00988477
0.0101401
0.00990659
0.0124967
0.0124955
0.0125242
0.012523
0.00987609
0.00987533
0.00989764
0.00989687
0.0124961
0.0127375
0.0125239
0.0127656
0.00988228
0.0101136
0.00990409
0.0101356
0.0134199
0.0138889
0.0134482
0.0139176
0.0107579
0.0111739
0.0107801
0.0111963
0.0138358
0.0133653
0.0138671
0.0133962
0.0111316
0.0107143
0.011156
0.0107384
0.0126805
0.0124359
0.012711
0.0124662
0.0100678
0.00983407
0.0100918
0.00985785
0.0124324
0.0124312
0.0124624
0.0124612
0.00982525
0.00982449
0.00984877
0.00984801
0.0124321
0.012674
0.0124624
0.0127046
0.00983161
0.0100634
0.00985538
0.0100874
0.0133566
0.0138249
0.0133874
0.0138561
0.0107081
0.0111236
0.0107322
0.0111479
0.0137669
0.0132972
0.0138006
0.0133304
0.0110774
0.0106607
0.0111037
0.0106866
0.0126121
0.0123669
0.0126451
0.0123997
0.0100138
0.00977951
0.0100397
0.00980522
0.0123632
0.012362
0.0123957
0.0123945
0.00977051
0.00976977
0.00979599
0.00979524
0.0123632
0.0126057
0.0123959
0.0126387
0.00977709
0.0100095
0.00980279
0.0100353
0.0132886
0.0137562
0.0133218
0.0137897
0.0106546
0.0110695
0.0106805
0.0110957
0.0136932
0.0132243
0.0137293
0.0132599
0.0110194
0.0106033
0.0110476
0.0106312
0.0125389
0.012293
0.0125743
0.0123283
0.00995605
0.00972108
0.00998382
0.00974874
0.012289
0.0122878
0.012324
0.0123228
0.00971188
0.00971115
0.00973932
0.00973858
0.0122893
0.0125326
0.0123246
0.012568
0.00971869
0.00995179
0.00974634
0.00997953
0.0132159
0.0136826
0.0132514
0.0137186
0.0105973
0.0110116
0.0106251
0.0110397
0.0136146
0.0131466
0.0136532
0.0131847
0.0109575
0.0105421
0.0109877
0.0105719
0.0124608
0.0122142
0.0124987
0.0122519
0.00989441
0.00965873
0.00992412
0.00968837
0.0122098
0.0122087
0.0122474
0.0122462
0.00964931
0.00964859
0.00967874
0.00967801
0.0122106
0.0124547
0.0122483
0.0124925
0.00965638
0.00989022
0.00968601
0.00991991
0.0131383
0.0136042
0.0131763
0.0136426
0.0105363
0.0109499
0.010566
0.0109799
0.013531
0.013064
0.0135721
0.0131045
0.0108918
0.0104771
0.010924
0.0105088
0.0123777
0.0121302
0.0124181
0.0121706
0.00982886
0.00959239
0.00986056
0.00962405
0.0121255
0.0121244
0.0121657
0.0121645
0.00958271
0.009582
0.00961418
0.00961347
0.0121267
0.0123717
0.012167
0.012412
0.00959008
0.00982475
0.00962173
0.00985641
0.0130558
0.0135208
0.0130963
0.0135617
0.0104713
0.0108843
0.010503
0.0109163
0.0134422
0.0129762
0.013486
0.0130194
0.010822
0.0104081
0.0108562
0.0104419
0.0122894
0.012041
0.0123325
0.012084
0.00975926
0.00952191
0.00979302
0.00955568
0.0120359
0.0120347
0.0120787
0.0120776
0.00951194
0.00951125
0.00954553
0.00954483
0.0120375
0.0122835
0.0120805
0.0123265
0.00951964
0.00975522
0.0095534
0.00978895
0.0129682
0.0134322
0.0130113
0.0134758
0.0104024
0.0108146
0.0104361
0.0108487
0.013348
0.012883
0.0133946
0.012929
0.0107481
0.0103349
0.0107844
0.0103708
0.0121956
0.0119461
0.0122415
0.011992
0.00968539
0.00944706
0.00972133
0.00948307
0.0119405
0.0119394
0.0119863
0.0119852
0.00943676
0.00943609
0.00947262
0.00947193
0.0119426
0.0121897
0.0119886
0.0122356
0.00944484
0.00968143
0.00948083
0.00971734
0.0128751
0.0133382
0.012921
0.0133846
0.0103294
0.0107408
0.0103652
0.010777
0.0132478
0.0127838
0.0132975
0.0128328
0.0106696
0.0102573
0.0107083
0.0102955
0.0120956
0.0118449
0.0121447
0.0118941
0.0096069
0.00936747
0.00964522
0.00940593
0.0118388
0.0118377
0.0118879
0.0118868
0.00935678
0.00935612
0.00939512
0.00939445
0.0118415
0.0120899
0.0118907
0.0121389
0.0093653
0.00960304
0.00940374
0.00964132
0.012776
0.0132382
0.012825
0.0132876
0.0102518
0.0106625
0.0102899
0.010701
0.0131408
0.0126778
0.013194
0.0127304
0.0105862
0.0101746
0.0106274