/*--------------------------------*- C++ -*----------------------------------*\
  =========                 |
  \\      /  F ield         | OpenFOAM: The Open Source CFD Toolbox
   \\    /   O peration     | Website:  https://openfoam.org
    \\  /    A nd           | Version:  9
     \\/     M anipulation  |
\*---------------------------------------------------------------------------*/
FoamFile
{
    format      ascii;
    class       surfaceScalarField;
    location    "0.2";
    object      phi;
}
// * * * * * * * * * * * * * * * * * * * * * * * * * * * * * * * * * * * * * //

dimensions      [0 3 -1 0 0 0 0];

internalField   nonuniform List<scalar> 
104044
(
-8.96458e-12
-1.8163e-05
1.38427e-10
1.81624e-05
4.55446e-10
-1.81639e-05
1.66453e-10
-1.00545e-11
1.81633e-05
3.94053e-10
6.2358e-13
1.13255e-10
2.12803e-10
1.10415e-10
-4.34941e-12
2.14375e-10
-8.05353e-12
-6.68146e-06
6.6816e-06
-6.68172e-06
-1.12354e-11
6.68189e-06
-1.39248e-12
-4.46359e-12
-9.53829e-12
-1.81653e-05
1.94769e-10
1.81648e-05
3.26912e-10
-1.81668e-05
2.17875e-10
-5.74466e-12
1.81663e-05
2.70087e-10
-4.57498e-12
1.28394e-10
1.69923e-10
1.50138e-10
-2.77688e-12
1.20564e-10
-1.05157e-11
-6.68218e-06
6.68238e-06
-6.68265e-06
-6.20645e-12
6.68287e-06
-5.09262e-12
-3.03944e-12
2.17216e-13
-1.81677e-05
2.30031e-10
1.81672e-05
2.40378e-10
-1.81677e-05
2.27162e-10
6.33894e-12
1.81672e-05
2.48028e-10
2.67621e-13
1.62442e-10
9.2633e-11
1.5839e-10
3.7578e-12
1.01663e-10
3.75885e-13
-6.68294e-06
6.68317e-06
-6.68295e-06
7.02444e-12
6.68317e-06
4.18448e-13
4.02861e-12
1.00748e-11
-1.81668e-05
2.09156e-10
1.81663e-05
2.93468e-10
-1.81654e-05
1.80898e-10
1.04674e-11
1.81648e-05
3.63751e-10
5.40101e-12
1.376e-10
1.49924e-10
1.08168e-10
4.85998e-12
2.17393e-10
1.12732e-11
-6.68267e-06
6.68287e-06
-6.6822e-06
1.18058e-11
6.68238e-06
6.01651e-12
5.13496e-12
9.214e-12
-1.81639e-05
1.48606e-10
1.81633e-05
4.4164e-10
-1.8163e-05
1.18866e-10
1.81624e-05
5.09036e-10
-5.49475e-13
8.44428e-11
2.74608e-10
8.42307e-11
2.81024e-10
8.38846e-12
-6.68174e-06
6.6819e-06
-6.68148e-06
6.68161e-06
1.54012e-12
-1.45031e-11
-1.81607e-05
-1.004e-09
1.81575e-05
4.20962e-09
-1.81616e-05
-9.9113e-10
-2.04796e-11
1.81585e-05
4.17705e-09
-1.11813e-11
-3.43375e-10
2.02562e-09
-3.25572e-10
-1.53594e-11
1.98492e-09
-1.30865e-11
-6.68127e-06
6.68028e-06
-6.68157e-06
-2.14193e-11
6.68059e-06
-1.07351e-11
-1.64192e-11
-2.00305e-11
-1.81632e-05
-9.70459e-10
1.816e-05
4.12958e-09
-1.81647e-05
-9.52462e-10
-1.21093e-11
1.81616e-05
4.08485e-09
-1.47432e-11
-3.0245e-10
1.92921e-09
-2.82423e-10
-8.88841e-12
1.87871e-09
-2.05311e-11
-6.68208e-06
6.68111e-06
-6.68258e-06
-1.22982e-11
6.68162e-06
-1.55029e-11
-9.22217e-12
2.57354e-13
-1.81657e-05
-9.41898e-10
1.81625e-05
4.05873e-09
-1.81657e-05
-9.42167e-10
1.2618e-11
1.81625e-05
4.06002e-09
2.73e-13
-2.7118e-10
1.85034e-09
-2.72686e-10
9.4706e-12
1.85485e-09
2.87354e-13
-6.68289e-06
6.68194e-06
-6.68289e-06
1.2866e-11
6.68194e-06
3.61041e-13
9.94773e-12
2.05086e-11
-1.81647e-05
-9.53264e-10
1.81616e-05
4.08863e-09
-1.81632e-05
-9.71759e-10
2.0929e-11
1.816e-05
4.13559e-09
1.52764e-11
-2.86853e-10
1.89178e-09
-3.0947e-10
1.58109e-11
1.94991e-09
2.1058e-11
-6.68258e-06
6.68162e-06
-6.68208e-06
2.18709e-11
6.6811e-06
1.6169e-11
1.69347e-11
1.46328e-11
-1.81616e-05
-9.92791e-10
1.81585e-05
4.18474e-09
-1.81607e-05
-1.00556e-09
1.81575e-05
4.21861e-09
1.13517e-11
-3.34532e-10
2.01133e-09
-3.52908e-10
2.05555e-09
1.32963e-11
-6.68157e-06
6.68059e-06
-6.68127e-06
6.68028e-06
1.10343e-11
-2.06211e-11
-1.81528e-05
-2.17504e-09
1.81466e-05
8.40969e-09
-1.81538e-05
-2.16697e-09
-2.92252e-11
1.81476e-05
8.38424e-09
-1.73293e-11
-1.60949e-09
6.31575e-09
-1.59974e-09
-2.47559e-11
6.28792e-09
-1.73907e-11
-6.67869e-06
6.67653e-06
-6.679e-06
-3.01534e-11
6.67685e-06
-1.49611e-11
-2.56638e-11
-2.91388e-11
-1.81554e-05
-2.14839e-09
1.81492e-05
8.34811e-09
-1.81569e-05
-2.13278e-09
-1.77455e-11
1.81507e-05
8.31238e-09
-2.4491e-11
-1.58101e-09
6.24791e-09
-1.56498e-09
-1.48665e-11
6.20926e-09
-2.92606e-11
-6.67953e-06
6.67738e-06
-6.68005e-06
-1.76694e-11
6.67791e-06
-2.47779e-11
-1.49158e-11
2.24395e-13
-1.81579e-05
-2.12335e-09
1.81517e-05
8.29084e-09
-1.81579e-05
-2.12306e-09
1.81824e-11
1.81517e-05
8.29032e-09
2.19978e-13
-1.55532e-09
6.1861e-09
-1.55503e-09
1.52962e-11
6.18578e-09
2.19092e-13
-6.68037e-06
6.67823e-06
-6.68037e-06
1.80955e-11
6.67823e-06
2.23728e-13
1.53539e-11
2.95464e-11
-1.81569e-05
-2.13193e-09
1.81507e-05
8.31084e-09
-1.81554e-05
-2.14704e-09
2.96122e-11
1.81492e-05
8.34564e-09
2.48928e-11
-1.56414e-09
6.20836e-09
-1.57972e-09
2.51324e-11
6.24652e-09
2.96546e-11
-6.68005e-06
6.6779e-06
-6.67953e-06
3.05044e-11
6.67738e-06
2.51822e-11
2.60008e-11
2.07899e-11
-1.81538e-05
-2.16521e-09
1.81476e-05
8.38103e-09
-1.81528e-05
-2.17288e-09
1.81466e-05
8.40644e-09
1.75219e-11
-1.59808e-09
6.28614e-09
-1.60731e-09
6.31418e-09
1.76028e-11
-6.679e-06
6.67685e-06
-6.67869e-06
6.67653e-06
1.52392e-11
-2.67336e-11
-1.81391e-05
-3.16936e-09
1.813e-05
1.22454e-08
-1.814e-05
-3.16223e-09
-3.69645e-11
1.8131e-05
1.22205e-08
-2.34559e-11
-2.65171e-09
1.02352e-08
-2.64431e-09
-3.28722e-11
1.02107e-08
-2.19042e-11
-6.6739e-06
6.67076e-06
-6.67422e-06
-3.80761e-11
6.67108e-06
-1.94545e-11
-3.38687e-11
-3.70887e-11
-1.81416e-05
-3.14215e-09
1.81326e-05
1.2187e-08
-1.81432e-05
-3.12587e-09
-2.26795e-11
1.81341e-05
1.2153e-08
-3.28945e-11
-2.62535e-09
1.01768e-08
-2.60973e-09
-2.00791e-11
1.01428e-08
-3.70134e-11
-6.67475e-06
6.67161e-06
-6.67528e-06
-2.2417e-11
6.67214e-06
-3.29012e-11
-1.99023e-11
3.04196e-13
-1.81442e-05
-3.1161e-09
1.81351e-05
1.21326e-08
-1.81442e-05
-3.11618e-09
2.32784e-11
1.81351e-05
1.21328e-08
2.52904e-13
-2.60033e-09
1.01224e-08
-2.60024e-09
2.05751e-11
1.01222e-08
2.96268e-13
-6.67561e-06
6.67247e-06
-6.67561e-06
2.29997e-11
6.67247e-06
2.47354e-13
2.0387e-11
3.76468e-11
-1.81432e-05
-3.12608e-09
1.81341e-05
1.21535e-08
-1.81416e-05
-3.14246e-09
3.74207e-11
1.81326e-05
1.21878e-08
3.33544e-11
-2.60944e-09
1.01423e-08
-2.62485e-09
3.32597e-11
1.01759e-08
3.75564e-11
-6.67528e-06
6.67214e-06
-6.67475e-06
3.85151e-11
6.67161e-06
3.33474e-11
3.42273e-11
2.69176e-11
-1.814e-05
-3.16258e-09
1.8131e-05
1.22213e-08
-1.81391e-05
-3.16956e-09
1.813e-05
1.22463e-08
2.36624e-11
-2.64359e-09
1.02094e-08
-2.65061e-09
1.02337e-08
2.21174e-11
-6.67422e-06
6.67108e-06
-6.6739e-06
6.67076e-06
1.971e-11
-3.21757e-11
-1.81196e-05
-4.19213e-09
1.81076e-05
1.62054e-08
-1.81206e-05
-4.18531e-09
-4.36604e-11
1.81086e-05
1.61801e-08
-2.92621e-11
-3.63342e-09
1.40468e-08
-3.62651e-09
-4.00517e-11
1.4022e-08
-2.56949e-11
-6.66715e-06
6.66298e-06
-6.66747e-06
-4.50814e-11
6.66331e-06
-2.36757e-11
-4.12837e-11
-4.41317e-11
-1.81222e-05
-4.16293e-09
1.81102e-05
1.61466e-08
-1.81238e-05
-4.14525e-09
-2.70905e-11
1.81118e-05
1.61117e-08
-4.02979e-11
-3.60552e-09
1.3989e-08
-3.58874e-09
-2.46857e-11
1.3955e-08
-4.39411e-11
-6.66801e-06
6.66384e-06
-6.66854e-06
-2.6683e-11
6.66438e-06
-4.01619e-11
-2.43526e-11
3.51116e-13
-1.81247e-05
-4.1345e-09
1.81128e-05
1.60906e-08
-1.81247e-05
-4.13449e-09
2.7782e-11
1.81128e-05
1.60906e-08
3.38679e-13
-3.57862e-09
1.39346e-08
-3.57871e-09
2.53543e-11
1.39348e-08
3.44391e-13
-6.66887e-06
6.66471e-06
-6.66887e-06
2.73622e-11
6.66471e-06
3.30153e-13
2.50045e-11
4.47847e-11
-1.81238e-05
-4.14523e-09
1.81118e-05
1.61117e-08
-1.81222e-05
-4.16296e-09
4.42555e-11
1.81102e-05
1.61468e-08
4.09262e-11
-3.58902e-09
1.39556e-08
-3.60599e-09
4.05661e-11
1.399e-08
4.45821e-11
-6.66854e-06
6.66438e-06
-6.66801e-06
4.56275e-11
6.66384e-06
4.07759e-11
4.17821e-11
3.22669e-11
-1.81206e-05
-4.1854e-09
1.81086e-05
1.61804e-08
-1.81196e-05
-4.19193e-09
1.81076e-05
1.62063e-08
2.94396e-11
-3.62712e-09
1.40233e-08
-3.63389e-09
1.40486e-08
2.58748e-11
-6.66747e-06
6.6633e-06
-6.66715e-06
6.66298e-06
2.39064e-11
-3.64995e-11
-1.80942e-05
-5.33188e-09
1.8079e-05
2.05787e-08
-1.80952e-05
-5.32618e-09
-4.95587e-11
1.808e-05
2.05527e-08
-3.40532e-11
-4.69753e-09
1.81462e-08
-4.69103e-09
-4.62054e-11
1.8121e-08
-2.83592e-11
-6.65831e-06
6.65301e-06
-6.65864e-06
-5.12912e-11
6.65334e-06
-2.6784e-11
-4.77914e-11
-5.04218e-11
-1.80968e-05
-5.30168e-09
1.80816e-05
2.05193e-08
-1.80984e-05
-5.2829e-09
-3.1072e-11
1.80831e-05
2.04836e-08
-4.68774e-11
-4.66779e-09
1.80878e-08
-4.64967e-09
-2.8835e-11
1.80526e-08
-5.01503e-11
-6.65918e-06
6.65388e-06
-6.65971e-06
-3.05383e-11
6.65441e-06
-4.66471e-11
-2.83685e-11
3.057e-13
-1.80993e-05
-5.27139e-09
1.80841e-05
2.04619e-08
-1.80993e-05
-5.2713e-09
3.16712e-11
1.80841e-05
2.04617e-08
3.3206e-13
-4.63858e-09
1.80313e-08
-4.63849e-09
2.94869e-11
1.80311e-08
3.02843e-13
-6.66004e-06
6.65474e-06
-6.66004e-06
3.11299e-11
6.65474e-06
3.25558e-13
2.90078e-11
5.09821e-11
-1.80984e-05
-5.28264e-09
1.80831e-05
2.04831e-08
-1.80968e-05
-5.3013e-09
5.00735e-11
1.80816e-05
2.05186e-08
4.74912e-11
-4.64942e-09
1.80521e-08
-4.66746e-09
4.67788e-11
1.8087e-08
5.06982e-11
-6.65971e-06
6.65441e-06
-6.65918e-06
5.17634e-11
6.65387e-06
4.72451e-11
4.82838e-11
3.66896e-11
-1.80952e-05
-5.32572e-09
1.808e-05
2.05518e-08
-1.80942e-05
-5.33123e-09
1.8079e-05
2.05783e-08
3.42028e-11
-4.69066e-09
1.81201e-08
-4.69665e-09
1.8146e-08
2.85925e-11
-6.65864e-06
6.65334e-06
-6.65831e-06
6.65301e-06
2.70653e-11
-4.06284e-11
-1.80622e-05
-6.62119e-09
1.80434e-05
2.54949e-08
-1.80632e-05
-6.61695e-09
-5.47924e-11
1.80444e-05
2.54673e-08
-3.80781e-11
-5.89502e-09
2.27253e-08
-5.89016e-09
-5.17439e-11
2.26988e-08
-3.06641e-11
-6.64715e-06
6.64055e-06
-6.64747e-06
-5.68934e-11
6.64088e-06
-2.91826e-11
-5.36017e-11
-5.59053e-11
-1.80648e-05
-6.59068e-09
1.80459e-05
2.54346e-08
-1.80663e-05
-6.57135e-09
-3.45224e-11
1.80475e-05
2.53988e-08
-5.2705e-11
-5.86502e-09
2.2666e-08
-5.84612e-09
-3.25184e-11
2.26306e-08
-5.55868e-11
-6.64801e-06
6.64142e-06
-6.64855e-06
-3.38784e-11
6.64195e-06
-5.24056e-11
-3.19329e-11
3.04299e-13
-1.80673e-05
-6.55953e-09
1.80485e-05
2.53773e-08
-1.80673e-05
-6.5596e-09
3.51177e-11
1.80485e-05
2.53774e-08
2.88667e-13
-5.83455e-09
2.26092e-08
-5.83453e-09
3.3082e-11
2.26092e-08
2.95667e-13
-6.64887e-06
6.64228e-06
-6.64887e-06
3.44545e-11
6.64228e-06
2.84993e-13
3.24858e-11
5.64441e-11
-1.80663e-05
-6.57157e-09
1.80475e-05
2.53993e-08
-1.80648e-05
-6.59105e-09
5.51816e-11
1.80459e-05
2.54353e-08
5.3219e-11
-5.84608e-09
2.26306e-08
-5.86498e-09
5.21409e-11
2.2666e-08
5.61078e-11
-6.64855e-06
6.64195e-06
-6.64801e-06
5.72919e-11
6.64142e-06
5.29057e-11
5.39999e-11
4.1003e-11
-1.80632e-05
-6.61745e-09
1.80444e-05
2.54682e-08
-1.80622e-05
-6.6219e-09
1.80434e-05
2.54955e-08
3.83901e-11
-5.89011e-09
2.26987e-08
-5.8951e-09
2.27251e-08
3.09842e-11
-6.64747e-06
6.64088e-06
-6.64715e-06
6.64055e-06
2.9458e-11
-4.52966e-11
-1.80228e-05
-8.09466e-09
1.79998e-05
3.10832e-08
-1.80237e-05
-8.0914e-09
-5.91327e-11
1.80008e-05
3.10551e-08
-4.25218e-11
-7.26212e-09
2.79227e-08
-7.2584e-09
-5.64835e-11
2.78953e-08
-3.31053e-11
-6.63332e-06
6.62526e-06
-6.63365e-06
-6.18624e-11
6.62558e-06
-3.16031e-11
-5.88431e-11
-6.06462e-11
-1.80253e-05
-8.06323e-09
1.80023e-05
3.10232e-08
-1.80269e-05
-8.04341e-09
-3.74941e-11
1.80039e-05
3.09873e-08
-5.77688e-11
-7.23147e-09
2.78633e-08
-7.21208e-09
-3.56965e-11
2.7828e-08
-6.03248e-11
-6.63418e-06
6.62612e-06
-6.63472e-06
-3.67414e-11
6.62665e-06
-5.74469e-11
-3.50043e-11
3.94285e-13
-1.80278e-05
-8.03124e-09
1.80048e-05
3.09657e-08
-1.80278e-05
-8.03134e-09
3.82612e-11
1.80048e-05
3.09658e-08
3.38519e-13
-7.20021e-09
2.78066e-08
-7.20031e-09
3.63577e-11
2.78068e-08
3.85747e-13
-6.63504e-06
6.62698e-06
-6.63504e-06
3.74944e-11
6.62698e-06
3.30737e-13
3.56505e-11
6.13444e-11
-1.80269e-05
-8.04368e-09
1.80039e-05
3.09878e-08
-1.80253e-05
-8.06366e-09
5.97289e-11
1.80023e-05
3.1024e-08
5.83697e-11
-7.21238e-09
2.78286e-08
-7.23195e-09
5.69517e-11
2.78644e-08
6.10137e-11
-6.63472e-06
6.62665e-06
-6.63418e-06
6.24164e-11
6.62612e-06
5.80365e-11
5.93117e-11
4.55165e-11
-1.80237e-05
-8.09194e-09
1.80008e-05
3.10561e-08
-1.80228e-05
-8.09493e-09
1.79998e-05
3.10847e-08
4.28286e-11
-7.25902e-09
2.78967e-08
-7.26281e-09
2.79243e-08
3.34007e-11
-6.63365e-06
6.62558e-06
-6.63332e-06
6.62526e-06
3.19048e-11
-4.95031e-11
-1.79749e-05
-9.77929e-09
1.79473e-05
3.74435e-08
-1.79758e-05
-9.77802e-09
-6.29909e-11
1.79482e-05
3.74142e-08
-4.69459e-11
-8.81977e-09
3.38173e-08
-8.81731e-09
-6.04911e-11
3.37891e-08
-3.49811e-11
-6.61648e-06
6.60673e-06
-6.6168e-06
-6.63717e-11
6.60705e-06
-3.3737e-11
-6.35148e-11
-6.48662e-11
-1.79774e-05
-9.74779e-09
1.79497e-05
3.73831e-08
-1.79789e-05
-9.72751e-09
-4.01571e-11
1.79513e-05
3.73469e-08
-6.21561e-11
-8.78844e-09
3.37579e-08
-8.76859e-09
-3.84523e-11
3.37222e-08
-6.45886e-11
-6.61733e-06
6.60758e-06
-6.61786e-06
-3.93127e-11
6.60811e-06
-6.18584e-11
-3.76632e-11
4.54781e-13
-1.79799e-05
-9.71497e-09
1.79522e-05
3.7325e-08
-1.79799e-05
-9.71498e-09
4.10406e-11
1.79522e-05
3.7325e-08
4.25415e-13
-8.75636e-09
3.37007e-08
-8.75642e-09
3.92815e-11
3.37007e-08
4.494e-13
-6.61818e-06
6.60843e-06
-6.61818e-06
4.01849e-11
6.60843e-06
4.17498e-13
3.84788e-11
6.56643e-11
-1.79789e-05
-9.72752e-09
1.79513e-05
3.73469e-08
-1.79774e-05
-9.74781e-09
6.36449e-11
1.79497e-05
3.73831e-08
6.29119e-11
-8.76874e-09
3.37225e-08
-8.78869e-09
6.11229e-11
3.37582e-08
6.53785e-11
-6.61786e-06
6.60811e-06
-6.61733e-06
6.7018e-11
6.60758e-06
6.26059e-11
6.41119e-11
4.9724e-11
-1.79758e-05
-9.77802e-09
1.79482e-05
3.74143e-08
-1.79749e-05
-9.77923e-09
1.79473e-05
3.74439e-08
4.71856e-11
-8.81761e-09
3.37896e-08
-8.81973e-09
3.38183e-08
3.52238e-11
-6.6168e-06
6.60705e-06
-6.61648e-06
6.60674e-06
3.40636e-11
-5.34337e-11
-1.79174e-05
-1.17149e-08
1.78844e-05
4.47169e-08
-1.79183e-05
-1.17158e-08
-6.64105e-11
1.78853e-05
4.46863e-08
-5.09494e-11
-1.06141e-08
4.05741e-08
-1.06137e-08
-6.41409e-11
4.05445e-08
-3.62036e-11
-6.59616e-06
6.58448e-06
-6.59647e-06
-7.06047e-11
6.58479e-06
-3.5253e-11
-6.78737e-11
-6.87546e-11
-1.79198e-05
-1.16837e-08
1.78868e-05
4.46565e-08
-1.79213e-05
-1.16633e-08
-4.26393e-11
1.78883e-05
4.46205e-08
-6.61989e-11
-1.05828e-08
4.05142e-08
-1.05626e-08
-4.10144e-11
4.04784e-08
-6.85543e-11
-6.597e-06
6.58531e-06
-6.59752e-06
-4.17095e-11
6.58583e-06
-6.59578e-11
-4.0135e-11
4.69891e-13
-1.79223e-05
-1.16506e-08
1.78893e-05
4.45988e-08
-1.79223e-05
-1.16506e-08
4.35483e-11
1.78893e-05
4.45987e-08
4.65105e-13
-1.055e-08
4.04567e-08
-1.055e-08
4.19147e-11
4.04567e-08
4.62618e-13
-6.59784e-06
6.58615e-06
-6.59784e-06
4.26002e-11
6.58615e-06
4.5874e-13
4.102e-11
6.95636e-11
-1.79213e-05
-1.16632e-08
1.78883e-05
4.46204e-08
-1.79198e-05
-1.16836e-08
6.70572e-11
1.78868e-05
4.46563e-08
6.70033e-11
-1.05625e-08
4.04784e-08
-1.05827e-08
6.47728e-11
4.05141e-08
6.93445e-11
-6.59752e-06
6.58583e-06
-6.597e-06
7.12274e-11
6.58531e-06
6.6747e-11
6.84849e-11
5.37106e-11
-1.79183e-05
-1.17157e-08
1.78853e-05
4.46861e-08
-1.79174e-05
-1.17148e-08
1.78844e-05
4.47168e-08
5.12193e-11
-1.06136e-08
4.05444e-08
-1.06139e-08
4.05741e-08
3.64912e-11
-6.59647e-06
6.58479e-06
-6.59616e-06
6.58448e-06
3.55574e-11
-5.74149e-11
-1.78489e-05
-1.39251e-08
1.78099e-05
5.29918e-08
-1.78498e-05
-1.39285e-08
-6.94704e-11
1.78108e-05
5.29597e-08
-5.48303e-11
-1.26592e-08
4.82435e-08
-1.26613e-08
-6.72999e-11
4.82128e-08
-3.71389e-11
-6.57186e-06
6.55797e-06
-6.57217e-06
-7.46184e-11
6.55828e-06
-3.63067e-11
-7.18993e-11
-7.23446e-11
-1.78513e-05
-1.38943e-08
1.78123e-05
5.29315e-08
-1.78528e-05
-1.38739e-08
-4.49474e-11
1.78137e-05
5.28959e-08
-6.98643e-11
-1.26285e-08
4.81842e-08
-1.26083e-08
-4.33645e-11
4.81489e-08
-7.22521e-11
-6.57268e-06
6.55879e-06
-6.5732e-06
-4.39335e-11
6.55929e-06
-6.97121e-11
-4.24004e-11
4.74514e-13
-1.78537e-05
-1.38613e-08
1.78146e-05
5.28744e-08
-1.78537e-05
-1.38613e-08
4.58602e-11
1.78146e-05
5.28743e-08
4.71094e-13
-1.25958e-08
4.81275e-08
-1.25957e-08
4.42715e-11
4.81274e-08
4.63465e-13
-6.57351e-06
6.55961e-06
-6.57351e-06
4.4824e-11
6.55961e-06
4.62034e-13
4.32871e-11
7.31441e-11
-1.78528e-05
-1.38739e-08
1.78137e-05
5.28958e-08
-1.78513e-05
-1.38942e-08
7.00844e-11
1.78123e-05
5.29313e-08
7.06616e-11
-1.26082e-08
4.81486e-08
-1.26283e-08
6.79146e-11
4.81839e-08
7.30356e-11
-6.5732e-06
6.55929e-06
-6.57268e-06
7.52182e-11
6.55879e-06
7.04905e-11
7.24906e-11
5.77313e-11
-1.78498e-05
-1.39285e-08
1.78108e-05
5.29595e-08
-1.78489e-05
-1.3925e-08
1.78099e-05
5.29915e-08
5.51366e-11
-1.26612e-08
4.82125e-08
-1.2659e-08
4.82432e-08
3.74788e-11
-6.57217e-06
6.55828e-06
-6.57186e-06
6.55797e-06
3.66402e-11
-6.15214e-11
-1.77679e-05
-1.64403e-08
1.77221e-05
6.23776e-08
-1.77688e-05
-1.64465e-08
-7.22934e-11
1.77229e-05
6.23434e-08
-5.88563e-11
-1.50006e-08
5.69946e-08
-1.50052e-08
-7.02169e-11
5.69622e-08
-3.78527e-11
-6.54301e-06
6.5266e-06
-6.54331e-06
-7.8559e-11
6.5269e-06
-3.7161e-11
-7.58395e-11
-7.5732e-11
-1.77703e-05
-1.64096e-08
1.77244e-05
6.23162e-08
-1.77718e-05
-1.63891e-08
-4.71363e-11
1.77258e-05
6.22802e-08
-7.33349e-11
-1.49701e-08
5.69348e-08
-1.49498e-08
-4.56031e-11
5.68995e-08
-7.57931e-11
-6.54381e-06
6.5274e-06
-6.54432e-06
-4.60409e-11
6.5279e-06
-7.33131e-11
-4.45572e-11
4.79799e-13
-1.77727e-05
-1.63763e-08
1.77267e-05
6.22585e-08
-1.77727e-05
-1.63763e-08
4.80571e-11
1.77267e-05
6.22585e-08
4.71752e-13
-1.49372e-08
5.68781e-08
-1.49372e-08
4.65093e-11
5.68781e-08
4.72533e-13
-6.54462e-06
6.5282e-06
-6.54462e-06
4.69467e-11
6.5282e-06
4.64099e-13
4.54478e-11
7.65278e-11
-1.77718e-05
-1.63892e-08
1.77258e-05
6.22802e-08
-1.77703e-05
-1.64098e-08
7.28597e-11
1.77244e-05
6.23163e-08
7.41229e-11
-1.49499e-08
5.68994e-08
-1.49701e-08
7.0804e-11
5.69348e-08
7.65841e-11
-6.54432e-06
6.5279e-06
-6.54381e-06
7.91411e-11
6.5274e-06
7.40925e-11
7.64299e-11
6.1904e-11
-1.77688e-05
-1.64467e-08
1.77229e-05
6.23435e-08
-1.77679e-05
-1.64406e-08
1.77221e-05
6.23776e-08
5.91987e-11
-1.50053e-08
5.69622e-08
-1.50007e-08
5.69946e-08
3.82242e-11
-6.54331e-06
6.5269e-06
-6.54301e-06
6.5266e-06
3.74969e-11
-6.60139e-11
-1.76729e-05
-1.9292e-08
1.76193e-05
7.29804e-08
-1.76738e-05
-1.93015e-08
-7.48647e-11
1.76202e-05
7.29442e-08
-6.30468e-11
-1.76483e-08
6.68553e-08
-1.76559e-08
-7.28688e-11
6.68207e-08
-3.85386e-11
-6.50899e-06
6.48974e-06
-6.50929e-06
-8.24615e-11
6.49003e-06
-3.78231e-11
-7.96763e-11
-7.89783e-11
-1.76752e-05
-1.92616e-08
1.76216e-05
7.29181e-08
-1.76766e-05
-1.92409e-08
-4.92441e-11
1.7623e-05
7.28815e-08
-7.65787e-11
-1.7618e-08
6.67943e-08
-1.75975e-08
-4.7707e-11
6.67583e-08
-7.92449e-11
-6.50978e-06
6.49051e-06
-6.51027e-06
-4.8074e-11
6.49099e-06
-7.67363e-11
-4.65875e-11
5.08701e-13
-1.76775e-05
-1.92279e-08
1.76238e-05
7.28596e-08
-1.76775e-05
-1.9228e-08
5.02174e-11
1.76238e-05
7.28597e-08
4.80712e-13
-1.75847e-08
6.67367e-08
-1.75848e-08
4.86276e-11
6.67368e-08
4.99055e-13
-6.51057e-06
6.49129e-06
-6.51057e-06
4.90287e-11
6.49129e-06
4.72127e-13
4.7492e-11
7.98135e-11
-1.76766e-05
-1.92411e-08
1.7623e-05
7.28818e-08
-1.76752e-05
-1.92619e-08
7.54488e-11
1.76216e-05
7.29185e-08
7.73708e-11
-1.75976e-08
6.67585e-08
-1.76181e-08
7.34217e-11
6.67945e-08
8.00775e-11
-6.51027e-06
6.49099e-06
-6.50978e-06
8.30906e-11
6.49051e-06
7.75266e-11
8.02791e-11
6.63967e-11
-1.76738e-05
-1.93018e-08
1.76202e-05
7.29447e-08
-1.76729e-05
-1.92924e-08
1.76193e-05
7.29809e-08
6.34277e-11
-1.76562e-08
6.6821e-08
-1.76488e-08
6.68555e-08
3.8891e-11
-6.50929e-06
6.49003e-06
-6.50899e-06
6.48974e-06
3.8139e-11
-7.09924e-11
-1.7562e-05
-2.25172e-08
1.74997e-05
8.49334e-08
-1.75629e-05
-2.25303e-08
-7.72402e-11
1.75005e-05
8.48953e-08
-6.77503e-11
-2.06496e-08
7.79937e-08
-2.06605e-08
-7.52605e-11
7.79574e-08
-3.92195e-11
-6.46913e-06
6.44665e-06
-6.46941e-06
-8.64988e-11
6.44693e-06
-3.84603e-11
-8.35816e-11
-8.22092e-11
-1.75643e-05
-2.24872e-08
1.75019e-05
8.48707e-08
-1.75656e-05
-2.24664e-08
-5.13532e-11
1.75032e-05
8.48336e-08
-7.97496e-11
-2.06194e-08
7.79322e-08
-2.05989e-08
-4.97728e-11
7.78958e-08
-8.27472e-11
-6.46989e-06
6.4474e-06
-6.47036e-06
-5.01137e-11
6.44786e-06
-8.01436e-11
-4.85831e-11
5.63585e-13
-1.75665e-05
-2.24533e-08
1.75041e-05
8.48115e-08
-1.75665e-05
-2.24534e-08
5.24349e-11
1.75041e-05
8.48117e-08
5.26974e-13
-2.0586e-08
7.78741e-08
-2.05861e-08
5.07833e-11
7.78743e-08
5.50559e-13
-6.47065e-06
6.44815e-06
-6.47065e-06
5.11699e-11
6.44815e-06
5.13431e-13
4.95707e-11
8.31484e-11
-1.75656e-05
-2.24667e-08
1.75032e-05
8.48342e-08
-1.75643e-05
-2.24876e-08
7.79651e-11
1.75019e-05
8.48716e-08
8.0626e-11
-2.05992e-08
7.78964e-08
-2.06199e-08
7.59254e-11
7.79331e-08
8.36752e-11
-6.47036e-06
6.44786e-06
-6.46989e-06
8.72288e-11
6.4474e-06
8.10158e-11
8.42594e-11
7.12985e-11
-1.75629e-05
-2.25309e-08
1.75005e-05
8.48965e-08
-1.7562e-05
-2.25178e-08
1.74997e-05
8.49351e-08
6.80895e-11
-2.0661e-08
7.79584e-08
-2.065e-08
7.7995e-08
3.95432e-11
-6.46942e-06
6.44693e-06
-6.46913e-06
6.44665e-06
3.88341e-11
-7.59513e-11
-1.74333e-05
-2.6112e-08
1.73613e-05
9.82177e-08
-1.74341e-05
-2.61292e-08
-7.96185e-11
1.73621e-05
9.81763e-08
-7.26818e-11
-2.40241e-08
9.04804e-08
-2.40388e-08
-7.76201e-11
9.04415e-08
-3.95447e-11
-6.42266e-06
6.39659e-06
-6.42294e-06
-9.07043e-11
6.39687e-06
-3.89733e-11
-8.7664e-11
-8.54142e-11
-1.74355e-05
-2.60824e-08
1.73634e-05
9.8153e-08
-1.74368e-05
-2.60614e-08
-5.34589e-11
1.73647e-05
9.8115e-08
-8.2932e-11
-2.39943e-08
9.04178e-08
-2.39736e-08
-5.18546e-11
9.03807e-08
-8.6285e-11
-6.4234e-06
6.39732e-06
-6.42386e-06
-5.21631e-11
6.39776e-06
-8.36229e-11
-5.06009e-11
5.92927e-13
-1.74376e-05
-2.60481e-08
1.73655e-05
9.80923e-08
-1.74376e-05
-2.60481e-08
5.45951e-11
1.73655e-05
9.80923e-08
5.74263e-13
-2.39606e-08
9.03585e-08
-2.39606e-08
5.29591e-11
9.03586e-08
5.74402e-13
-6.42414e-06
6.39804e-06
-6.42414e-06
5.32614e-11
6.39804e-06
5.57017e-13
5.16708e-11
8.63815e-11
-1.74368e-05
-2.60613e-08
1.73647e-05
9.81149e-08
-1.74355e-05
-2.60823e-08
8.02608e-11
1.73634e-05
9.8153e-08
8.38888e-11
-2.39738e-08
9.0381e-08
-2.39945e-08
7.83225e-11
9.04183e-08
8.72355e-11
-6.42386e-06
6.39776e-06
-6.4234e-06
9.14094e-11
6.39732e-06
8.45605e-11
8.83737e-11
7.63359e-11
-1.74341e-05
-2.61291e-08
1.73621e-05
9.81762e-08
-1.74333e-05
-2.61122e-08
1.73613e-05
9.82176e-08
7.30224e-11
-2.40391e-08
9.04421e-08
-2.40244e-08
9.04811e-08
3.98916e-11
-6.42294e-06
6.39687e-06
-6.42266e-06
6.39659e-06
3.93339e-11
-8.11952e-11
-1.72847e-05
-3.01237e-08
1.72019e-05
1.13002e-07
-1.72855e-05
-3.0145e-08
-8.17778e-11
1.72027e-05
1.12957e-07
-7.77428e-11
-2.77924e-08
1.04385e-07
-2.78111e-08
-7.98995e-11
1.04343e-07
-3.96165e-11
-6.36884e-06
6.33875e-06
-6.36911e-06
-9.51079e-11
6.33901e-06
-3.92176e-11
-9.19289e-11
-8.86886e-11
-1.72868e-05
-3.00942e-08
1.7204e-05
1.12935e-07
-1.72882e-05
-3.00732e-08
-5.56442e-11
1.72053e-05
1.12896e-07
-8.61539e-11
-2.77628e-08
1.04321e-07
-2.7742e-08
-5.39835e-11
1.04283e-07
-8.9959e-11
-6.36955e-06
6.33945e-06
-6.36998e-06
-5.42839e-11
6.33987e-06
-8.72079e-11
-5.26726e-11
6.12272e-13
-1.7289e-05
-3.00598e-08
1.72061e-05
1.12873e-07
-1.7289e-05
-3.00599e-08
5.67994e-11
1.72061e-05
1.12874e-07
5.97676e-13
-2.77288e-08
1.0426e-07
-2.77288e-08
5.51205e-11
1.0426e-07
5.9785e-13
-6.37025e-06
6.34014e-06
-6.37025e-06
5.54098e-11
6.34014e-06
5.78081e-13
5.37695e-11
8.96324e-11
-1.72882e-05
-3.00735e-08
1.72053e-05
1.12897e-07
-1.72868e-05
-3.00948e-08
8.23667e-11
1.7204e-05
1.12937e-07
8.71035e-11
-2.77421e-08
1.04283e-07
-2.77629e-08
8.05233e-11
1.04321e-07
9.08977e-11
-6.36999e-06
6.33987e-06
-6.36955e-06
9.57546e-11
6.33945e-06
8.81392e-11
9.26044e-11
8.16103e-11
-1.72855e-05
-3.01459e-08
1.72027e-05
1.12959e-07
-1.72847e-05
-3.01246e-08
1.72019e-05
1.13003e-07
7.81179e-11
-2.78113e-08
1.04343e-07
-2.77928e-08
1.04385e-07
4.00362e-11
-6.36911e-06
6.33902e-06
-6.36884e-06
6.33875e-06
3.95456e-11
-8.68118e-11
-1.71142e-05
-3.45597e-08
1.70196e-05
1.29307e-07
-1.7115e-05
-3.4586e-08
-8.36116e-11
1.70203e-05
1.29259e-07
-8.30969e-11
-3.1974e-08
1.19774e-07
-3.19973e-08
-8.19324e-11
1.19728e-07
-3.96872e-11
-6.30682e-06
6.2723e-06
-6.30707e-06
-9.96222e-11
6.27255e-06
-3.92856e-11
-9.63421e-11
-9.19814e-11
-1.71163e-05
-3.45304e-08
1.70216e-05
1.29239e-07
-1.71175e-05
-3.45092e-08
-5.79188e-11
1.70228e-05
1.29198e-07
-8.94155e-11
-3.19447e-08
1.19707e-07
-3.19238e-08
-5.61869e-11
1.19668e-07
-9.37431e-11
-6.30749e-06
6.27296e-06
-6.30791e-06
-5.64897e-11
6.27337e-06
-9.08977e-11
-5.48054e-11
6.03261e-13
-1.71183e-05
-3.44956e-08
1.70236e-05
1.29174e-07
-1.71183e-05
-3.44957e-08
5.90552e-11
1.70236e-05
1.29175e-07
6.09826e-13
-3.19105e-08
1.19645e-07
-3.19107e-08
5.73296e-11
1.19646e-07
6.03989e-13
-6.30817e-06
6.27362e-06
-6.30817e-06
5.76226e-11
6.27362e-06
6.01489e-13
5.59331e-11
9.29214e-11
-1.71175e-05
-3.45095e-08
1.70228e-05
1.29199e-07
-1.71163e-05
-3.45309e-08
8.42642e-11
1.70216e-05
1.2924e-07
9.03379e-11
-3.19243e-08
1.19669e-07
-3.19455e-08
8.25111e-11
1.19709e-07
9.46893e-11
-6.30791e-06
6.27337e-06
-6.30749e-06
1.00315e-10
6.27296e-06
9.18329e-11
9.70186e-11
8.7209e-11
-1.7115e-05
-3.45867e-08
1.70203e-05
1.2926e-07
-1.71142e-05
-3.45604e-08
1.70196e-05
1.29309e-07
8.34881e-11
-3.19983e-08
1.1973e-07
-3.19752e-08
1.19776e-07
4.00808e-11
-6.30707e-06
6.27255e-06
-6.30682e-06
6.2723e-06
3.9648e-11
-9.27367e-11
-1.69196e-05
-3.94284e-08
1.68119e-05
1.4716e-07
-1.69203e-05
-3.946e-08
-8.49465e-11
1.68126e-05
1.47108e-07
-8.88323e-11
-3.65812e-08
1.36685e-07
-3.66094e-08
-8.34964e-11
1.36636e-07
-3.95861e-11
-6.23575e-06
6.19637e-06
-6.236e-06
-1.04284e-10
6.19661e-06
-3.92462e-11
-1.00897e-10
-9.52216e-11
-1.69215e-05
-3.9399e-08
1.68138e-05
1.47089e-07
-1.69227e-05
-3.93774e-08
-6.02371e-11
1.6815e-05
1.47047e-07
-9.26499e-11
-3.65518e-08
1.36617e-07
-3.65305e-08
-5.84673e-11
1.36576e-07
-9.75929e-11
-6.2364e-06
6.197e-06
-6.2368e-06
-5.8758e-11
6.19739e-06
-9.46779e-11
-5.70234e-11
5.81918e-13
-1.69235e-05
-3.93633e-08
1.68157e-05
1.47021e-07
-1.69235e-05
-3.93633e-08
6.13547e-11
1.68157e-05
1.47022e-07
5.89709e-13
-3.65168e-08
1.36552e-07
-3.65168e-08
5.95863e-11
1.36552e-07
5.80901e-13
-6.23705e-06
6.19762e-06
-6.23705e-06
5.98688e-11
6.19762e-06
5.91915e-13
5.81401e-11
9.62068e-11
-1.69227e-05
-3.93774e-08
1.6815e-05
1.47047e-07
-1.69215e-05
-3.9399e-08
8.58087e-11
1.68138e-05
1.4709e-07
9.36032e-11
-3.65306e-08
1.36576e-07
-3.65518e-08
8.42423e-11
1.36618e-07
9.85699e-11
-6.2368e-06
6.19739e-06
-6.2364e-06
1.05055e-10
6.197e-06
9.56284e-11
1.01607e-10
9.30836e-11
-1.69203e-05
-3.946e-08
1.68126e-05
1.47108e-07
-1.69196e-05
-3.94283e-08
1.68119e-05
1.47161e-07
8.92079e-11
-3.66096e-08
1.36637e-07
-3.65814e-08
1.36686e-07
3.99586e-11
-6.236e-06
6.19661e-06
-6.23576e-06
6.19637e-06
3.9626e-11
-9.87046e-11
-1.66985e-05
-4.47197e-08
1.65768e-05
1.66521e-07
-1.66992e-05
-4.47571e-08
-8.65707e-11
1.65775e-05
1.66463e-07
-9.46743e-11
-4.16021e-08
1.55073e-07
-4.16357e-08
-8.48353e-11
1.55019e-07
-3.91333e-11
-6.1548e-06
6.11012e-06
-6.15504e-06
-1.09155e-10
6.11035e-06
-3.89552e-11
-1.05597e-10
-9.85738e-11
-1.67004e-05
-4.46902e-08
1.65787e-05
1.66446e-07
-1.67016e-05
-4.46681e-08
-6.25957e-11
1.65798e-05
1.66401e-07
-9.58676e-11
-4.15725e-08
1.55001e-07
-4.15509e-08
-6.07684e-11
1.54958e-07
-1.01543e-10
-6.15542e-06
6.11072e-06
-6.1558e-06
-6.10551e-11
6.11109e-06
-9.85156e-11
-5.927e-11
5.87038e-13
-1.67023e-05
-4.46536e-08
1.65805e-05
1.66374e-07
-1.67023e-05
-4.46538e-08
6.37222e-11
1.65805e-05
1.66374e-07
5.77535e-13
-4.15368e-08
1.54932e-07
-4.15368e-08
6.18769e-11
1.54932e-07
5.80177e-13
-6.15603e-06
6.11131e-06
-6.15603e-06
6.21634e-11
6.11131e-06
5.81794e-13
6.03795e-11
9.95335e-11
-1.67016e-05
-4.46685e-08
1.65798e-05
1.66401e-07
-1.67004e-05
-4.46908e-08
8.71815e-11
1.65787e-05
1.66447e-07
9.68322e-11
-4.1551e-08
1.54958e-07
-4.15728e-08
8.5582e-11
1.55002e-07
1.02507e-10
-6.1558e-06
6.11109e-06
-6.15542e-06
1.09866e-10
6.11072e-06
9.94834e-11
1.06328e-10
9.91366e-11
-1.66992e-05
-4.47578e-08
1.65775e-05
1.66465e-07
-1.66985e-05
-4.47206e-08
1.65768e-05
1.66523e-07
9.5052e-11
-4.16361e-08
1.5502e-07
-4.16025e-08
1.55074e-07
3.95232e-11
-6.15504e-06
6.11035e-06
-6.1548e-06
6.11012e-06
3.93415e-11
-1.05214e-10
-1.6449e-05
-5.04342e-08
1.63121e-05
1.87388e-07
-1.64496e-05
-5.04774e-08
-8.81579e-11
1.63128e-05
1.87325e-07
-1.00862e-10
-4.70627e-08
1.75029e-07
-4.71019e-08
-8.64676e-11
1.7497e-07
-3.87124e-11
-6.0631e-06
6.0127e-06
-6.06332e-06
-1.14041e-10
6.01292e-06
-3.85142e-11
-1.10431e-10
-1.02021e-10
-1.64507e-05
-5.04045e-08
1.63139e-05
1.87309e-07
-1.64519e-05
-5.03816e-08
-6.5002e-11
1.6315e-05
1.8726e-07
-9.92499e-11
-4.70326e-08
1.74954e-07
-4.70104e-08
-6.31297e-11
1.74907e-07
-1.05574e-10
-6.06368e-06
6.01327e-06
-6.06403e-06
-6.33968e-11
6.01361e-06
-1.02474e-10
-6.15756e-11
6.06906e-13
-1.64526e-05
-5.03665e-08
1.63156e-05
1.87232e-07
-1.64526e-05
-5.03666e-08
6.6151e-11
1.63156e-05
1.87233e-07
5.92808e-13
-4.69957e-08
1.7488e-07
-4.69959e-08
6.42577e-11
1.74881e-07
5.81769e-13
-6.06425e-06
6.01382e-06
-6.06425e-06
6.45103e-11
6.01382e-06
5.72766e-13
6.26732e-11
1.0298e-10
-1.64519e-05
-5.03818e-08
1.63149e-05
1.87261e-07
-1.64507e-05
-5.04046e-08
8.88569e-11
1.63139e-05
1.87309e-07
1.00194e-10
-4.70107e-08
1.74908e-07
-4.7033e-08
8.70901e-11
1.74955e-07
1.06545e-10
-6.06403e-06
6.01361e-06
-6.06368e-06
1.14775e-10
6.01326e-06
1.03431e-10
1.11155e-10
1.05595e-10
-1.64496e-05
-5.04776e-08
1.63128e-05
1.87326e-07
-1.6449e-05
-5.04344e-08
1.63121e-05
1.87388e-07
1.01263e-10
-4.71024e-08
1.74972e-07
-4.70633e-08
1.7503e-07
3.91043e-11
-6.06332e-06
6.01292e-06
-6.0631e-06
6.0127e-06
3.88725e-11
-1.11977e-10
-1.61688e-05
-5.65483e-08
1.60157e-05
2.09672e-07
-1.61694e-05
-5.65978e-08
-9.0048e-11
1.60164e-05
2.09604e-07
-1.07443e-10
-5.292e-08
1.96395e-07
-5.29652e-08
-8.81724e-11
1.96332e-07
-3.8227e-11
-5.95982e-06
5.90331e-06
-5.96003e-06
-1.18997e-10
5.90351e-06
-3.80742e-11
-1.15308e-10
-1.05564e-10
-1.61704e-05
-5.65187e-08
1.60174e-05
2.09589e-07
-1.61715e-05
-5.64953e-08
-6.74991e-11
1.60184e-05
2.09538e-07
-1.02696e-10
-5.289e-08
1.96316e-07
-5.28671e-08
-6.55553e-11
1.96267e-07
-1.09734e-10
-5.96037e-06
5.90384e-06
-5.9607e-06
-6.58354e-11
5.90416e-06
-1.06526e-10
-6.39483e-11
5.87591e-13
-1.61722e-05