/*--------------------------------*- C++ -*----------------------------------*\
  =========                 |
  \\      /  F ield         | OpenFOAM: The Open Source CFD Toolbox
   \\    /   O peration     | Website:  https://openfoam.org
    \\  /    A nd           | Version:  9
     \\/     M anipulation  |
\*---------------------------------------------------------------------------*/
FoamFile
{
    format      ascii;
    class       volVectorField;
    location    "0.2";
    object      U;
}
// * * * * * * * * * * * * * * * * * * * * * * * * * * * * * * * * * * * * * //

dimensions      [0 1 -1 0 0 0 0];

internalField   nonuniform List<vector> 
36360
(
(-1.85658e-07 -0.0345094 -0.936507)
(-2.55395e-07 -0.0345111 -1.04435e-08)
(-2.25958e-07 -0.0345102 -0.945506)
(-2.18933e-07 -0.0345119 -1.59667e-09)
(-2.4911e-07 -0.012695 -0.924069)
(-2.67882e-07 -0.0126956 -1.02987e-08)
(-1.59244e-07 -0.0126945 -0.932541)
(-1.53682e-07 -0.012695 -2.944e-09)
(-3.29751e-07 -0.0345139 -9.94946e-09)
(-3.91268e-07 -0.0345168 -7.51049e-09)
(-2.65083e-07 -0.0345147 -4.13932e-09)
(-3.20823e-07 -0.0345174 -3.50029e-09)
(-2.86227e-07 -0.0126965 -1.07983e-08)
(-3.00837e-07 -0.0126974 -8.21059e-09)
(-1.65015e-07 -0.0126959 -4.55438e-09)
(-1.79683e-07 -0.0126967 -3.866e-09)
(-4.24131e-07 -0.0345185 -2.65465e-09)
(-4.15807e-07 -0.0345185 3.24504e-09)
(-3.51804e-07 -0.0345191 -1.13267e-09)
(-3.40744e-07 -0.0345191 1.94304e-09)
(-3.085e-07 -0.0126979 -2.81517e-09)
(-3.06894e-07 -0.012698 3.68128e-09)
(-1.88138e-07 -0.0126973 -1.19355e-09)
(-1.85461e-07 -0.0126973 2.20163e-09)
(-3.67258e-07 -0.0345168 8.08442e-09)
(-2.91658e-07 -0.034514 1.04402e-08)
(-2.88986e-07 -0.0345175 4.3239e-09)
(-2.14618e-07 -0.0345148 4.77488e-09)
(-2.95819e-07 -0.0126974 9.02633e-09)
(-2.78171e-07 -0.0126965 1.14873e-08)
(-1.71191e-07 -0.0126968 4.82293e-09)
(-1.51153e-07 -0.012696 5.33902e-09)
(-2.06512e-07 -0.0345112 1.08048e-08)
(-1.31068e-07 -0.0345095 0.936507)
(-1.5325e-07 -0.034512 1.88788e-09)
(-1.51612e-07 -0.0345104 0.945506)
(-2.57393e-07 -0.0126956 1.07935e-08)
(-2.37558e-07 -0.0126951 0.924069)
(-1.35875e-07 -0.0126951 3.35881e-09)
(-1.3932e-07 -0.0126946 0.932541)
(3.16055e-06 -0.0345031 -0.935766)
(3.12088e-06 -0.0345049 -1.90894e-08)
(1.21908e-06 -0.0345076 -0.935961)
(1.17049e-06 -0.0345094 -1.45048e-08)
(2.58714e-07 -0.0126938 -0.923347)
(2.39438e-07 -0.0126944 -1.85191e-08)
(-3.6121e-08 -0.012695 -0.923537)
(-5.22463e-08 -0.0126956 -1.46635e-08)
(3.06769e-06 -0.0345078 -2.04802e-08)
(3.01934e-06 -0.0345107 -1.59939e-08)
(1.10894e-06 -0.0345123 -1.52488e-08)
(1.05443e-06 -0.0345152 -1.17826e-08)
(2.23853e-07 -0.0126953 -2.10304e-08)
(2.11926e-07 -0.0126963 -1.64086e-08)
(-6.79923e-08 -0.0126965 -1.60743e-08)
(-8.07853e-08 -0.0126975 -1.23806e-08)
(2.99101e-06 -0.0345125 -5.87136e-09)
(2.99197e-06 -0.0345125 6.42697e-09)
(1.0238e-06 -0.0345169 -4.25529e-09)
(1.02817e-06 -0.0345169 4.88132e-09)
(2.05068e-07 -0.0126969 -5.98631e-09)
(2.05063e-07 -0.0126969 6.60853e-09)
(-8.79144e-08 -0.0126981 -4.40722e-09)
(-8.71618e-08 -0.0126981 5.19794e-09)
(3.02215e-06 -0.0345107 1.65195e-08)
(3.0722e-06 -0.0345078 2.09498e-08)
(1.06716e-06 -0.0345152 1.23725e-08)
(1.12908e-06 -0.0345123 1.57563e-08)
(2.11926e-07 -0.0126963 1.69929e-08)
(2.2387e-07 -0.0126953 2.15412e-08)
(-7.85322e-08 -0.0126975 1.312e-08)
(-6.44206e-08 -0.0126965 1.67012e-08)
(3.12666e-06 -0.0345048 1.93823e-08)
(3.16687e-06 -0.034503 0.935766)
(1.19618e-06 -0.0345094 1.48319e-08)
(1.24745e-06 -0.0345076 0.935961)
(2.39397e-07 -0.0126943 1.88745e-08)
(2.5827e-07 -0.0126938 0.923347)
(-4.76934e-08 -0.0126956 1.51162e-08)
(-3.15792e-08 -0.012695 0.923537)
(6.83139e-06 -0.0344852 -0.935005)
(6.79686e-06 -0.034487 -2.77865e-08)
(5.071e-06 -0.0344955 -0.935214)
(5.03519e-06 -0.0344974 -2.3418e-08)
(7.11778e-07 -0.0126877 -0.922605)
(6.83038e-07 -0.0126883 -2.59002e-08)
(5.10983e-07 -0.0126913 -0.922809)
(4.87207e-07 -0.0126919 -2.2145e-08)
(6.75234e-06 -0.03449 -3.01145e-08)
(6.71139e-06 -0.034493 -2.37683e-08)
(4.98813e-06 -0.0345003 -2.53814e-08)
(4.94499e-06 -0.0345033 -1.99611e-08)
(6.65134e-07 -0.0126893 -3.02888e-08)
(6.52988e-07 -0.0126903 -2.38981e-08)
(4.70993e-07 -0.0126929 -2.57255e-08)
(4.59446e-07 -0.0126939 -2.02219e-08)
(6.68663e-06 -0.0344948 -8.85834e-09)
(6.68589e-06 -0.0344948 9.34594e-09)
(4.91904e-06 -0.0345051 -7.40622e-09)
(4.91838e-06 -0.0345051 7.88632e-09)
(6.46024e-07 -0.0126909 -8.87995e-09)
(6.4578e-07 -0.0126909 9.35769e-09)
(4.52749e-07 -0.0126945 -7.47651e-09)
(4.52441e-07 -0.0126945 7.96733e-09)
(6.70922e-06 -0.034493 2.4228e-08)
(6.7489e-06 -0.03449 3.0532e-08)
(4.9431e-06 -0.0345033 2.04144e-08)
(4.98522e-06 -0.0345003 2.57948e-08)
(6.52274e-07 -0.0126903 2.43461e-08)
(6.63994e-07 -0.0126893 3.069e-08)
(4.58557e-07 -0.0126939 2.06817e-08)
(4.69608e-07 -0.0126929 2.61335e-08)
(6.79242e-06 -0.034487 2.80844e-08)
(6.82636e-06 -0.0344852 0.935005)
(5.0315e-06 -0.0344974 2.3729e-08)
(5.06669e-06 -0.0344955 0.935214)
(6.81451e-07 -0.0126883 2.62149e-08)
(7.0975e-07 -0.0126877 0.922605)
(4.8531e-07 -0.0126919 2.25011e-08)
(5.08443e-07 -0.0126913 0.922809)
(1.01629e-05 -0.0344563 -0.934216)
(1.0125e-05 -0.0344582 -3.63607e-08)
(8.5e-06 -0.0344721 -0.934423)
(8.46424e-06 -0.0344739 -3.20993e-08)
(1.0509e-06 -0.0126777 -0.921836)
(1.01097e-06 -0.0126783 -3.33312e-08)
(8.84153e-07 -0.0126832 -0.922037)
(8.49864e-07 -0.0126838 -2.96335e-08)
(1.00792e-05 -0.0344612 -3.90927e-08)
(1.00372e-05 -0.0344642 -3.09075e-08)
(8.41962e-06 -0.0344769 -3.46759e-08)
(8.37868e-06 -0.0344799 -2.7403e-08)
(9.88552e-07 -0.0126793 -3.9057e-08)
(9.74178e-07 -0.0126803 -3.08686e-08)
(8.29766e-07 -0.0126848 -3.47327e-08)
(8.16568e-07 -0.0126858 -2.74368e-08)
(1.0012e-05 -0.034466 -1.1529e-08)
(1.00122e-05 -0.034466 1.22071e-08)
(8.35405e-06 -0.0344817 -1.02244e-08)
(8.3538e-06 -0.0344817 1.0787e-08)
(9.66089e-07 -0.0126809 -1.1474e-08)
(9.66147e-07 -0.0126809 1.21376e-08)
(8.09092e-07 -0.0126864 -1.02028e-08)
(8.09013e-07 -0.0126864 1.07552e-08)
(1.00377e-05 -0.0344642 3.15434e-08)
(1.00799e-05 -0.0344612 3.96377e-08)
(8.37792e-06 -0.0344799 2.79308e-08)
(8.41831e-06 -0.0344769 3.51384e-08)
(9.74343e-07 -0.0126803 3.14908e-08)
(9.88805e-07 -0.0126793 3.95913e-08)
(8.16325e-07 -0.0126858 2.7953e-08)
(8.2935e-07 -0.0126848 3.51808e-08)
(1.01258e-05 -0.0344582 3.67147e-08)
(1.01636e-05 -0.0344563 0.934216)
(8.46234e-06 -0.0344739 3.24363e-08)
(8.49751e-06 -0.0344721 0.934423)
(1.01128e-06 -0.0126783 3.36994e-08)
(1.05099e-06 -0.0126777 0.921836)
(8.49212e-07 -0.0126838 2.9993e-08)
(8.83099e-07 -0.0126832 0.922037)
(1.37147e-05 -0.0344167 -0.933398)
(1.36717e-05 -0.0344185 -4.43076e-08)
(1.18876e-05 -0.0344379 -0.93362)
(1.18473e-05 -0.0344397 -4.0429e-08)
(1.41335e-06 -0.0126639 -0.921039)
(1.36123e-06 -0.0126645 -4.00998e-08)
(1.22502e-06 -0.0126713 -0.921255)
(1.1792e-06 -0.0126719 -3.68184e-08)
(1.36219e-05 -0.0344215 -4.73997e-08)
(1.35764e-05 -0.0344246 -3.75689e-08)
(1.17996e-05 -0.0344427 -4.33279e-08)
(1.1756e-05 -0.0344457 -3.42828e-08)
(1.33374e-06 -0.0126655 -4.72294e-08)
(1.31683e-06 -0.0126665 -3.74165e-08)
(1.15432e-06 -0.0126729 -4.32172e-08)
(1.13869e-06 -0.0126739 -3.41844e-08)
(1.35488e-05 -0.0344264 -1.40478e-08)
(1.35487e-05 -0.0344264 1.48471e-08)
(1.17297e-05 -0.0344476 -1.27935e-08)
(1.173e-05 -0.0344476 1.35654e-08)
(1.30728e-06 -0.0126672 -1.39319e-08)
(1.30726e-06 -0.0126672 1.47211e-08)
(1.12989e-06 -0.0126745 -1.27082e-08)
(1.12996e-06 -0.0126745 1.34652e-08)
(1.35764e-05 -0.0344245 3.83235e-08)
(1.3622e-05 -0.0344215 4.80559e-08)
(1.17567e-05 -0.0344457 3.50095e-08)
(1.18008e-05 -0.0344427 4.39504e-08)
(1.31682e-06 -0.0126665 3.81614e-08)
(1.33378e-06 -0.0126655 4.78772e-08)
(1.13891e-06 -0.0126739 3.4898e-08)
(1.15471e-06 -0.0126729 4.38333e-08)
(1.36719e-05 -0.0344185 4.46576e-08)
(1.3715e-05 -0.0344167 0.933398)
(1.18489e-05 -0.0344397 4.08143e-08)
(1.18894e-05 -0.0344379 0.93362)
(1.36133e-06 -0.0126645 4.05023e-08)
(1.41292e-06 -0.0126639 0.921039)
(1.17977e-06 -0.0126719 3.72367e-08)
(1.22525e-06 -0.0126713 0.921255)
(1.7777e-05 -0.0343655 -0.932559)
(1.77291e-05 -0.0343673 -5.13195e-08)
(1.56724e-05 -0.0343926 -0.932779)
(1.56268e-05 -0.0343944 -4.7863e-08)
(1.84037e-06 -0.0126461 -0.92022)
(1.77561e-06 -0.0126467 -4.59031e-08)
(1.61783e-06 -0.0126555 -0.920436)
(1.5593e-06 -0.0126561 -4.30418e-08)
(1.76756e-05 -0.0343703 -5.50883e-08)
(1.7627e-05 -0.0343733 -4.38339e-08)
(1.5575e-05 -0.0343975 -5.12934e-08)
(1.55278e-05 -0.0344005 -4.07413e-08)
(1.74297e-06 -0.0126477 -5.48148e-08)
(1.72381e-06 -0.0126487 -4.35902e-08)
(1.52923e-06 -0.0126572 -5.10782e-08)
(1.51114e-06 -0.0126582 -4.0544e-08)
(1.75973e-05 -0.0343752 -1.64872e-08)
(1.75971e-05 -0.0343752 1.71943e-08)
(1.54989e-05 -0.0344023 -1.52779e-08)
(1.54987e-05 -0.0344023 1.60475e-08)
(1.71301e-06 -0.0126494 -1.63172e-08)
(1.71293e-06 -0.0126494 1.7019e-08)
(1.50091e-06 -0.0126588 -1.51361e-08)
(1.50084e-06 -0.0126588 1.58944e-08)
(1.76263e-05 -0.0343733 4.45001e-08)
(1.76746e-05 -0.0343703 5.56814e-08)
(1.55271e-05 -0.0344004 4.14681e-08)
(1.5574e-05 -0.0343974 5.19377e-08)
(1.72358e-06 -0.0126487 4.42473e-08)
(1.74264e-06 -0.0126477 5.53914e-08)
(1.51095e-06 -0.0126582 4.12566e-08)
(1.52899e-06 -0.0126572 5.16995e-08)
(1.77279e-05 -0.0343673 5.17137e-08)
(1.77758e-05 -0.0343655 0.932559)
(1.56256e-05 -0.0343944 4.82528e-08)
(1.5671e-05 -0.0343926 0.932779)
(1.77514e-06 -0.0126467 4.63149e-08)
(1.83962e-06 -0.0126461 0.92022)
(1.55899e-06 -0.0126561 4.35016e-08)
(1.61676e-06 -0.0126555 0.920436)
(2.25018e-05 -0.0343013 -0.931681)
(2.24481e-05 -0.0343032 -5.81327e-08)
(2.0049e-05 -0.0343351 -0.931907)
(1.99984e-05 -0.0343369 -5.46736e-08)
(2.34593e-06 -0.0126237 -0.919365)
(2.26695e-06 -0.0126243 -5.13576e-08)
(2.08232e-06 -0.0126355 -0.919586)
(2.01083e-06 -0.0126361 -4.86223e-08)
(2.23918e-05 -0.0343062 -6.23042e-08)
(2.23414e-05 -0.0343091 -4.96364e-08)
(1.99434e-05 -0.0343399 -5.8749e-08)
(1.98939e-05 -0.0343429 -4.67911e-08)
(2.22922e-06 -0.0126253 -6.19443e-08)
(2.20827e-06 -0.0126263 -4.93205e-08)
(1.97566e-06 -0.0126371 -5.84253e-08)
(1.95557e-06 -0.0126381 -4.65062e-08)
(2.23107e-05 -0.034311 -1.87116e-08)
(2.23109e-05 -0.034311 1.94269e-08)
(1.98636e-05 -0.0343448 -1.76313e-08)
(1.98636e-05 -0.0343448 1.83093e-08)
(2.19664e-06 -0.012627 -1.84986e-08)
(2.1967e-06 -0.012627 1.91952e-08)
(1.94433e-06 -0.0126388 -1.74373e-08)
(1.94431e-06 -0.0126388 1.81066e-08)
(2.2342e-05 -0.0343091 5.03003e-08)
(2.23928e-05 -0.0343062 6.28769e-08)
(1.98938e-05 -0.0343429 4.74222e-08)
(1.99433e-05 -0.0343399 5.92968e-08)
(2.20846e-06 -0.0126263 4.99647e-08)
(2.22952e-06 -0.0126253 6.24917e-08)
(1.95553e-06 -0.0126381 4.71251e-08)
(1.9756e-06 -0.0126371 5.89546e-08)
(2.24494e-05 -0.0343032 5.86354e-08)
(2.25032e-05 -0.0343013 0.931681)
(1.99983e-05 -0.0343369 5.51253e-08)
(2.00489e-05 -0.0343351 0.931907)
(2.26734e-06 -0.0126243 5.18097e-08)
(2.34664e-06 -0.0126237 0.919365)
(2.01069e-06 -0.0126361 4.9039e-08)
(2.08238e-06 -0.0126355 0.919586)
(2.80275e-05 -0.0342226 -0.930782)
(2.79673e-05 -0.0342244 -6.52195e-08)
(2.51563e-05 -0.0342639 -0.931025)
(2.50996e-05 -0.0342657 -6.1664e-08)
(2.94558e-06 -0.0125961 -0.918489)
(2.84906e-06 -0.0125967 -5.67773e-08)
(2.63304e-06 -0.0126106 -0.918726)
(2.54567e-06 -0.0126112 -5.40936e-08)
(2.79081e-05 -0.0342274 -6.9048e-08)
(2.78559e-05 -0.0342303 -5.49705e-08)
(2.50419e-05 -0.0342687 -6.57161e-08)
(2.49906e-05 -0.0342717 -5.23415e-08)
(2.80562e-06 -0.0125977 -6.86276e-08)
(2.78294e-06 -0.0125987 -5.46e-08)
(2.50516e-06 -0.0126122 -6.53204e-08)
(2.48334e-06 -0.0126132 -5.19951e-08)
(2.7824e-05 -0.0342322 -2.06882e-08)
(2.78242e-05 -0.0342322 2.16301e-08)
(2.49593e-05 -0.0342735 -1.97201e-08)
(2.49596e-05 -0.0342735 2.05309e-08)
(2.77046e-06 -0.0125993 -2.04275e-08)
(2.77055e-06 -0.0125993 2.13568e-08)
(2.47129e-06 -0.0126138 -1.94822e-08)
(2.47137e-06 -0.0126138 2.02794e-08)
(2.78566e-05 -0.0342303 5.58444e-08)
(2.79092e-05 -0.0342274 6.97961e-08)
(2.49915e-05 -0.0342717 5.30946e-08)
(2.50433e-05 -0.0342687 6.63631e-08)
(2.78318e-06 -0.0125987 5.54635e-08)
(2.80601e-06 -0.0125977 6.93639e-08)
(2.48358e-06 -0.0126132 5.27357e-08)
(2.50554e-06 -0.0126122 6.59538e-08)
(2.79688e-05 -0.0342244 6.56995e-08)
(2.80289e-05 -0.0342226 0.930782)
(2.51014e-05 -0.0342657 6.21579e-08)
(2.51583e-05 -0.0342639 0.931025)
(2.8495e-06 -0.0125967 5.73006e-08)
(2.94559e-06 -0.0125961 0.918489)
(2.54612e-06 -0.0126112 5.45768e-08)
(2.63356e-06 -0.0126106 0.918726)
(3.45114e-05 -0.0341273 -0.929838)
(3.44445e-05 -0.0341291 -7.19835e-08)
(3.114e-05 -0.0341772 -0.930087)
(3.10765e-05 -0.034179 -6.86059e-08)
(3.65739e-06 -0.0125625 -0.917568)
(3.54168e-06 -0.0125631 -6.17393e-08)
(3.28573e-06 -0.0125801 -0.917812)
(3.17984e-06 -0.0125807 -5.92841e-08)
(3.43821e-05 -0.0341321 -7.54762e-08)
(3.4328e-05 -0.034135 -6.00551e-08)
(3.10157e-05 -0.0341819 -7.22732e-08)
(3.09625e-05 -0.0341849 -5.75184e-08)
(3.49187e-06 -0.0125641 -7.50178e-08)
(3.4674e-06 -0.0125651 -5.96589e-08)
(3.13333e-06 -0.0125817 -7.18371e-08)
(3.10977e-06 -0.0125827 -5.71357e-08)
(3.42947e-05 -0.0341368 -2.25904e-08)
(3.42947e-05 -0.0341368 2.36962e-08)
(3.09299e-05 -0.0341867 -2.1637e-08)
(3.093e-05 -0.0341867 2.26752e-08)
(3.45407e-06 -0.0125658 -2.22894e-08)
(3.45407e-06 -0.0125658 2.33883e-08)
(3.09688e-06 -0.0125833 -2.13574e-08)
(3.09694e-06 -0.0125833 2.23844e-08)
(3.4328e-05 -0.034135 6.10761e-08)
(3.43821e-05 -0.0341321 7.63327e-08)
(3.09629e-05 -0.0341849 5.84823e-08)
(3.10163e-05 -0.0341819 7.30947e-08)
(3.46741e-06 -0.0125651 6.06742e-08)
(3.49189e-06 -0.0125641 7.58745e-08)
(3.10994e-06 -0.0125827 5.80909e-08)
(3.13359e-06 -0.0125817 7.26511e-08)
(3.44445e-05 -0.0341291 7.25079e-08)
(3.45117e-05 -0.0341273 0.929838)
(3.10772e-05 -0.034179 6.91328e-08)
(3.11406e-05 -0.0341772 0.930087)
(3.54167e-06 -0.0125631 6.22814e-08)
(3.65721e-06 -0.0125625 0.917568)
(3.18012e-06 -0.0125807 5.98666e-08)
(3.28548e-06 -0.0125801 0.917812)
(4.21209e-05 -0.0340132 -0.928872)
(4.2046e-05 -0.0340149 -7.85433e-08)
(3.81674e-05 -0.0340728 -0.92914)
(3.80964e-05 -0.0340745 -7.52299e-08)
(4.50305e-06 -0.0125221 -0.916626)
(4.36499e-06 -0.0125227 -6.61934e-08)
(4.06238e-06 -0.0125432 -0.916888)
(3.93583e-06 -0.0125438 -6.39645e-08)
(4.19811e-05 -0.0340178 -8.16804e-08)
(4.19259e-05 -0.0340207 -6.50034e-08)
(3.80326e-05 -0.0340775 -7.85836e-08)
(3.79779e-05 -0.0340803 -6.25291e-08)
(4.30829e-06 -0.0125237 -8.12253e-08)
(4.28228e-06 -0.0125247 -6.46051e-08)
(3.88263e-06 -0.0125448 -7.81262e-08)
(3.85734e-06 -0.0125458 -6.21293e-08)
(4.18919e-05 -0.0340225 -2.4479e-08)
(4.18918e-05 -0.0340225 2.56394e-08)
(3.79441e-05 -0.0340821 -2.35286e-08)
(3.7944e-05 -0.0340821 2.46777e-08)
(4.2683e-06 -0.0125253 -2.41457e-08)
(4.26826e-06 -0.0125253 2.52908e-08)
(3.84364e-06 -0.0125465 -2.32111e-08)
(3.84361e-06 -0.0125465 2.43483e-08)
(4.19257e-05 -0.0340207 6.60689e-08)
(4.19808e-05 -0.0340178 8.2572e-08)
(3.79777e-05 -0.0340803 6.35848e-08)
(3.80324e-05 -0.0340774 7.9463e-08)
(4.28217e-06 -0.0125247 6.56521e-08)
(4.30817e-06 -0.0125237 8.20941e-08)
(3.85727e-06 -0.0125458 6.3171e-08)
(3.88255e-06 -0.0125448 7.89893e-08)
(4.20457e-05 -0.0340149 7.91261e-08)
(4.21206e-05 -0.0340132 0.928872)
(3.80961e-05 -0.0340745 7.57999e-08)
(3.81671e-05 -0.0340728 0.92914)
(4.3649e-06 -0.0125227 6.67715e-08)
(4.50291e-06 -0.0125221 0.916626)
(3.93575e-06 -0.0125438 6.45501e-08)
(4.0621e-06 -0.0125432 0.916888)
(5.10119e-05 -0.0338775 -0.92787)
(5.09279e-05 -0.0338792 -8.52286e-08)
(4.63969e-05 -0.0339482 -0.928134)
(4.63177e-05 -0.0339499 -8.18263e-08)
(5.50017e-06 -0.012474 -0.915651)
(5.33618e-06 -0.0124745 -7.04528e-08)
(4.98115e-06 -0.0124991 -0.915908)
(4.83061e-06 -0.0124997 -6.83065e-08)
(5.08605e-05 -0.0338821 -8.77901e-08)
(5.08047e-05 -0.0338849 -6.98572e-08)
(4.62517e-05 -0.0339528 -8.47206e-08)
(4.61963e-05 -0.0339556 -6.74208e-08)
(5.27172e-06 -0.0124755 -8.73507e-08)
(5.24422e-06 -0.0124765 -6.94717e-08)
(4.77017e-06 -0.0125007 -8.42697e-08)
(4.74344e-06 -0.0125016 -6.70238e-08)
(5.07702e-05 -0.0338866 -2.63404e-08)
(5.07701e-05 -0.0338866 2.75297e-08)
(4.61621e-05 -0.0339574 -2.54032e-08)
(4.61619e-05 -0.0339574 2.65848e-08)
(5.22975e-06 -0.0124771 -2.59754e-08)
(5.22976e-06 -0.0124771 2.71435e-08)
(4.72922e-06 -0.0125022 -2.50529e-08)
(4.72919e-06 -0.0125022 2.62158e-08)
(5.08046e-05 -0.0338849 7.09408e-08)
(5.08603e-05 -0.0338821 8.86879e-08)
(4.6196e-05 -0.0339556 6.84988e-08)
(4.62513e-05 -0.0339528 8.56147e-08)
(5.24424e-06 -0.0124765 7.05355e-08)
(5.27177e-06 -0.0124755 8.82265e-08)
(4.74336e-06 -0.0125016 6.80812e-08)
(4.7701e-06 -0.0125007 8.51369e-08)
(5.09278e-05 -0.0338792 8.58443e-08)
(5.10116e-05 -0.0338775 0.92787)
(4.63173e-05 -0.0339499 8.24331e-08)
(4.63964e-05 -0.0339482 0.928134)
(5.3363e-06 -0.0124745 7.1073e-08)
(5.50012e-06 -0.012474 0.915651)
(4.83057e-06 -0.0124997 6.89173e-08)
(4.98097e-06 -0.0124991 0.915908)
(6.13643e-05 -0.0337174 -0.926833)
(6.12693e-05 -0.0337191 -9.21694e-08)
(5.59949e-05 -0.0338007 -0.927121)
(5.59058e-05 -0.0338024 -8.86268e-08)
(6.6705e-06 -0.0124168 -0.91464)
(6.47673e-06 -0.0124174 -7.46341e-08)
(6.06185e-06 -0.0124466 -0.91492)
(5.88354e-06 -0.0124472 -7.25335e-08)
(6.11981e-05 -0.0337219 -9.39278e-08)
(6.11408e-05 -0.0337246 -7.46967e-08)
(5.58367e-05 -0.0338052 -9.08266e-08)
(5.57802e-05 -0.033808 -7.22578e-08)
(6.40313e-06 -0.0124184 -9.35367e-08)
(6.37382e-06 -0.0124193 -7.43508e-08)
(5.81471e-06 -0.0124481 -9.04074e-08)
(5.78634e-06 -0.0124491 -7.18875e-08)
(6.11053e-05 -0.0337263 -2.81949e-08)
(6.11053e-05 -0.0337263 2.94189e-08)
(5.57453e-05 -0.0338097 -2.7261e-08)
(5.57453e-05 -0.0338097 2.84652e-08)
(6.35871e-06 -0.0124199 -2.77965e-08)
(6.35876e-06 -0.0124199 2.90091e-08)
(5.77157e-06 -0.0124497 -2.68773e-08)
(5.77159e-06 -0.0124497 2.80687e-08)
(6.1141e-05 -0.0337246 7.58051e-08)
(6.11985e-05 -0.0337219 9.48382e-08)
(5.57802e-05 -0.033808 7.33515e-08)
(5.58368e-05 -0.0338052 9.17294e-08)
(6.37396e-06 -0.0124193 7.54498e-08)
(6.40336e-06 -0.0124184 9.44288e-08)
(5.78642e-06 -0.0124491 7.29694e-08)
(5.81486e-06 -0.0124481 9.12924e-08)
(6.12698e-05 -0.0337191 9.28412e-08)
(6.13646e-05 -0.0337174 0.926833)
(5.59061e-05 -0.0338024 8.92673e-08)
(5.59952e-05 -0.0338007 0.927121)
(6.47707e-06 -0.0124174 7.52841e-08)
(6.67092e-06 -0.0124168 0.91464)
(5.88382e-06 -0.0124472 7.31574e-08)
(6.06215e-06 -0.0124466 0.91492)
(7.33693e-05 -0.0335298 -0.925757)
(7.32626e-05 -0.0335314 -9.96332e-08)
(6.71493e-05 -0.0336272 -0.926041)
(6.70488e-05 -0.0336289 -9.5784e-08)
(8.03943e-06 -0.0123496 -0.91359)
(7.8116e-06 -0.0123502 -7.89131e-08)
(7.32819e-06 -0.0123845 -0.913868)
(7.11809e-06 -0.0123851 -7.67412e-08)
(7.31872e-05 -0.0335341 -1.00198e-07)
(7.31281e-05 -0.0335368 -7.95795e-08)
(6.69755e-05 -0.0336317 -9.70134e-08)
(6.69173e-05 -0.0336344 -7.71092e-08)
(7.72755e-06 -0.0123511 -9.98643e-08)
(7.69629e-06 -0.012352 -7.93043e-08)
(7.03944e-06 -0.0123861 -9.66473e-08)
(7.00915e-06 -0.012387 -7.67965e-08)
(7.30915e-05 -0.0335385 -3.00474e-08)
(7.30917e-05 -0.0335385 3.13678e-08)
(6.68812e-05 -0.033636 -2.91173e-08)
(6.68813e-05 -0.033636 3.0366e-08)
(7.68054e-06 -0.0123526 -2.96249e-08)
(7.68062e-06 -0.0123526 3.09303e-08)
(6.99371e-06 -0.0123876 -2.87074e-08)
(6.99378e-06 -0.0123876 2.99435e-08)
(7.31286e-05 -0.0335368 8.07706e-08)
(7.31879e-05 -0.0335341 1.01168e-07)
(6.69175e-05 -0.0336344 7.82374e-08)
(6.6976e-05 -0.0336316 9.79354e-08)
(7.69651e-06 -0.012352 8.04865e-08)
(7.72786e-06 -0.0123511 1.00827e-07)
(7.00932e-06 -0.012387 7.79174e-08)
(7.03968e-06 -0.0123861 9.75619e-08)
(7.32635e-05 -0.0335314 1.00333e-07)
(7.33704e-05 -0.0335298 0.925757)
(6.70495e-05 -0.0336289 9.64636e-08)
(6.71502e-05 -0.0336272 0.926041)
(7.81198e-06 -0.0123502 7.95859e-08)
(8.04001e-06 -0.0123496 0.91359)
(7.11843e-06 -0.0123851 7.73675e-08)
(7.32889e-06 -0.0123846 0.913868)
(8.72201e-05 -0.0333111 -0.924661)
(8.71002e-05 -0.0333127 -1.07761e-07)
(8.00537e-05 -0.0334245 -0.924941)
(7.99406e-05 -0.0334261 -1.03583e-07)
(9.63106e-06 -0.0122709 -0.912523)
(9.36406e-06 -0.0122714 -8.33744e-08)
(8.80564e-06 -0.0123117 -0.912795)
(8.55874e-06 -0.0123123 -8.10782e-08)
(8.70205e-05 -0.0333153 -1.06727e-07)
(8.69599e-05 -0.0333179 -8.46004e-08)
(7.98631e-05 -0.0334288 -1.03385e-07)
(7.98033e-05 -0.0334315 -8.20406e-08)
(9.26823e-06 -0.0122723 -1.06481e-07)
(9.23501e-06 -0.0122732 -8.44377e-08)
(8.469e-06 -0.0123132 -1.03099e-07)
(8.43681e-06 -0.0123141 -8.18211e-08)
(8.69223e-05 -0.0333195 -3.19305e-08)
(8.69226e-05 -0.0333195 3.34271e-08)
(7.97663e-05 -0.0334331 -3.09737e-08)
(7.97666e-05 -0.0334331 3.23728e-08)
(9.21867e-06 -0.0122738 -3.14914e-08)
(9.21878e-06 -0.0122738 3.2965e-08)
(8.4208e-06 -0.0123147 -3.05451e-08)
(8.42092e-06 -0.0123147 3.19227e-08)
(8.69608e-05 -0.0333179 8.59563e-08)
(8.70218e-05 -0.0333153 1.07829e-07)
(7.98042e-05 -0.0334315 8.33088e-08)
(7.98644e-05 -0.0334288 1.04425e-07)
(9.23532e-06 -0.0122732 8.57775e-08)
(9.26868e-06 -0.0122723 1.07582e-07)
(8.43714e-06 -0.0123141 8.30774e-08)
(8.46946e-06 -0.0123132 1.04136e-07)
(8.71019e-05 -0.0333127 1.08463e-07)
(8.72223e-05 -0.0333111 0.924661)
(7.99421e-05 -0.0334261 1.04288e-07)
(8.00554e-05 -0.0334245 0.924941)
(9.36459e-06 -0.0122714 8.4094e-08)
(9.63158e-06 -0.0122709 0.912523)
(8.55924e-06 -0.0123123 8.18099e-08)
(8.80601e-06 -0.0123118 0.912795)
(0.000103102 -0.0330576 -0.923494)
(0.000102966 -0.0330591 -1.16289e-07)
(9.48988e-05 -0.0331889 -0.9238)
(9.4771e-05 -0.0331904 -1.11919e-07)
(1.14669e-05 -0.0121793 -0.911385)
(1.11557e-05 -0.0121798 -8.78408e-08)
(1.05166e-05 -0.0122268 -0.911683)
(1.02281e-05 -0.0122273 -8.5554e-08)
(0.000102881 -0.0330617 -1.136e-07)
(0.000102819 -0.0330642 -8.98559e-08)
(9.46888e-05 -0.033193 -1.10085e-07)
(9.46273e-05 -0.0331956 -8.71725e-08)
(1.10466e-05 -0.0121807 -1.13503e-07)
(1.10111e-05 -0.0121816 -8.98563e-08)
(1.01258e-05 -0.0122282 -1.09913e-07)
(1.00915e-05 -0.0122291 -8.7088e-08)
(0.00010278 -0.0330658 -3.39236e-08)
(0.00010278 -0.0330658 3.55258e-08)
(9.4589e-05 -0.0331972 -3.29036e-08)
(9.45891e-05 -0.0331972 3.44618e-08)
(1.0994e-05 -0.0121821 -3.3481e-08)
(1.0994e-05 -0.0121821 3.5044e-08)
(1.00748e-05 -0.0122296 -3.24642e-08)
(1.00748e-05 -0.0122296 3.39864e-08)
(0.000102819 -0.0330642 9.12948e-08)
(0.000102881 -0.0330617 1.14745e-07)
(9.46277e-05 -0.0331956 8.85833e-08)
(9.46895e-05 -0.033193 1.11226e-07)
(1.1011e-05 -0.0121816 9.12653e-08)
(1.10465e-05 -0.0121807 1.1463e-07)
(1.00916e-05 -0.0122291 8.84695e-08)
(1.0126e-05 -0.0122282 1.11036e-07)
(0.000102966 -0.0330591 1.17065e-07)
(0.000103102 -0.0330576 0.923494)
(9.47718e-05 -0.0331904 1.12667e-07)
(9.48997e-05 -0.0331889 0.9238)
(1.11557e-05 -0.0121798 8.85832e-08)
(1.14672e-05 -0.0121793 0.911385)
(1.02284e-05 -0.0122273 8.63102e-08)
(1.05169e-05 -0.0122268 0.911683)
(0.000121196 -0.0327654 -0.922304)
(0.000121042 -0.0327669 -1.25377e-07)
(0.000111863 -0.0329165 -0.922617)
(0.000111718 -0.0329181 -1.20719e-07)
(1.3571e-05 -0.0120733 -0.910225)
(1.32095e-05 -0.0120738 -9.23195e-08)
(1.24833e-05 -0.0121282 -0.91053)
(1.21478e-05 -0.0121287 -9.00526e-08)
(0.000120951 -0.0327694 -1.20803e-07)
(0.000120887 -0.0327718 -9.53579e-08)
(0.000111631 -0.0329206 -1.17118e-07)
(0.000111567 -0.0329231 -9.25445e-08)
(1.30853e-05 -0.0120747 -1.20909e-07)
(1.30476e-05 -0.0120755 -9.55632e-08)
(1.20313e-05 -0.0121296 -1.17118e-07)
(1.19947e-05 -0.0121304 -9.26453e-08)
(0.000120847 -0.0327733 -3.60306e-08)
(0.000120847 -0.0327733 3.76951e-08)
(0.000111528 -0.0329246 -3.4951e-08)
(0.000111528 -0.0329246 3.65879e-08)
(1.30299e-05 -0.012076 -3.55777e-08)
(1.303e-05 -0.012076 3.72141e-08)
(1.19773e-05 -0.0121309 -3.45075e-08)
(1.19773e-05 -0.0121309 3.61009e-08)
(0.000120888 -0.0327718 9.68267e-08)
(0.000120953 -0.0327694 1.21955e-07)
(0.000111567 -0.0329231 9.4002e-08)
(0.000111631 -0.0329206 1.18266e-07)
(1.30479e-05 -0.0120755 9.70103e-08)
(1.30859e-05 -0.0120747 1.22026e-07)
(1.19948e-05 -0.0121304 9.40677e-08)
(1.20314e-05 -0.0121296 1.18237e-07)
(0.000121044 -0.0327669 1.26187e-07)
(0.000121199 -0.0327654 0.922304)
(0.000111719 -0.0329181 1.21494e-07)
(0.000111864 -0.0329165 0.922617)
(1.32105e-05 -0.0120738 9.3108e-08)
(1.35721e-05 -0.0120733 0.910225)
(1.21481e-05 -0.0121287 9.0776e-08)
(1.2484e-05 -0.0121282 0.91053)
(0.000141679 -0.0324305 -0.921074)
(0.000141505 -0.0324319 -1.35207e-07)
(0.000131131 -0.0326035 -0.921396)
(0.000130967 -0.032605 -1.30154e-07)
(1.59656e-05 -0.0119514 -0.909025)
(1.55482e-05 -0.0119519 -9.70195e-08)
(1.47298e-05 -0.0120144 -0.90934)
(1.43413e-05 -0.0120149 -9.46367e-08)
(0.000141408 -0.0324343 -1.28417e-07)
(0.000141341 -0.0324367 -1.01137e-07)
(0.000130874 -0.0326074 -1.24528e-07)
(0.000130808 -0.0326098 -9.81856e-08)
(1.54067e-05 -0.0119527 -1.28721e-07)
(1.53664e-05 -0.0119535 -1.01595e-07)
(1.42088e-05 -0.0120158 -1.2472e-07)
(1.41698e-05 -0.0120166 -9.85038e-08)
(0.000141299 -0.0324381 -3.8279e-08)
(0.000141299 -0.0324381 3.99516e-08)
(0.000130768 -0.0326113 -3.71222e-08)
(0.000130768 -0.0326113 3.88037e-08)
(1.53479e-05 -0.0119539 -3.78104e-08)
(1.5348e-05 -0.0119539 3.94933e-08)
(1.41518e-05 -0.0120171 -3.66596e-08)
(1.41519e-05 -0.0120171 3.83338e-08)
(0.000141342 -0.0324367 1.02622e-07)
(0.00014141 -0.0324343 1.296e-07)
(0.00013081 -0.0326098 9.96606e-08)
(0.000130877 -0.0326074 1.25676e-07)
(1.53667e-05 -0.0119535 1.03086e-07)
(1.54072e-05 -0.0119527 1.29892e-07)
(1.41703e-05 -0.0120166 9.99819e-08)
(1.42096e-05 -0.0120158 1.25871e-07)
(0.000141507 -0.0324319 1.36029e-07)
(0.000141681 -0.0324305 0.921074)
(0.000130971 -0.032605 1.30949e-07)
(0.000131135 -0.0326035 0.921396)
(1.55489e-05 -0.0119519 9.78251e-08)
(1.59664e-05 -0.0119514 0.909025)
(1.43425e-05 -0.0120149 9.54055e-08)
(1.47312e-05 -0.0120144 0.90934)
(0.000164702 -0.0320486 -0.919799)
(0.000164505 -0.03205 -1.45759e-07)
(0.000152866 -0.0322456 -0.920135)
(0.000152681 -0.032247 -1.4035e-07)
(1.8669e-05 -0.0118119 -0.907783)
(1.81894e-05 -0.0118123 -1.01811e-07)
(1.72765e-05 -0.0118839 -0.90811)
(1.68287e-05 -0.0118844 -9.93654e-08)
(0.000164401 -0.0320522 -1.36418e-07)
(0.00016433 -0.0320545 -1.07134e-07)
(0.000152581 -0.0322494 -1.32325e-07)
(0.000152512 -0.0322517 -1.04074e-07)
(1.80283e-05 -0.0118131 -1.36933e-07)
(1.79852e-05 -0.0118138 -1.07926e-07)
(1.66778e-05 -0.0118852 -1.32734e-07)
(1.6636e-05 -0.0118859 -1.04686e-07)
(0.000164286 -0.0320559 -4.06296e-08)
(0.000164286 -0.0320559 4.23072e-08)
(0.000152469 -0.0322531 -3.94268e-08)
(0.000152469 -0.0322531 4.11074e-08)
(1.79658e-05 -0.0118143 -4.01758e-08)
(1.79658e-05 -0.0118143 4.1859e-08)
(1.66171e-05 -0.0118864 -3.89604e-08)
(1.6617e-05 -0.0118864 4.06531e-08)
(0.00016433 -0.0320545 1.08665e-07)
(0.000164401 -0.0320522 1.37676e-07)
(0.000152512 -0.0322517 1.05585e-07)
(0.000152581 -0.0322494 1.33551e-07)
(1.79852e-05 -0.0118138 1.09457e-07)
(1.80284e-05 -0.0118131 1.38191e-07)
(1.6636e-05 -0.0118859 1.06198e-07)
(1.66778e-05 -0.0118852 1.33938e-07)
(0.000164506 -0.0320499 1.46582e-07)
(0.000164702 -0.0320486 0.919799)
(0.000152682 -0.032247 1.41183e-07)
(0.000152867 -0.0322456 0.920135)
(1.81894e-05 -0.0118123 1.02659e-07)
(1.86689e-05 -0.0118119 0.907783)
(1.68289e-05 -0.0118844 1.00184e-07)
(1.72767e-05 -0.0118839 0.90811)
(0.000190387 -0.0316156 -0.918472)
(0.000190166 -0.0316169 -1.56805e-07)
(0.000177208 -0.0318387 -0.918811)
(0.000176999 -0.03184 -1.51139e-07)
(2.16962e-05 -0.0116532 -0.906489)
(2.11482e-05 -0.0116536 -1.06591e-07)
(2.014e-05 -0.011735 -0.906819)
(1.96269e-05 -0.0117355 -1.04151e-07)
(0.000190052 -0.0316191 -1.44858e-07)
(0.000189977 -0.0316213 -1.13462e-07)
(0.000176891 -0.0318423 -1.40545e-07)
(0.000176818 -0.0318445 -1.10226e-07)
(2.09656e-05 -0.0116543 -1.45631e-07)
(2.09192e-05 -0.011655 -1.14592e-07)
(1.94555e-05 -0.0117362 -1.41193e-07)
(1.94107e-05 -0.0117369 -1.11186e-07)
(0.00018993 -0.0316227 -4.30853e-08)
(0.000189931 -0.0316227 4.48069e-08)
(0.000176772 -0.0318459 -4.18317e-08)
(0.000176773 -0.0318459 4.35291e-08)
(2.08988e-05 -0.0116555 -4.26441e-08)
(2.0899e-05 -0.0116555 4.43566e-08)
(1.93909e-05 -0.0117374 -4.13759e-08)
(1.93909e-05 -0.0117374 4.30918e-08)
(0.000189979 -0.0316213 1.15013e-07)
(0.000190054 -0.0316191 1.46105e-07)
(0.000176819 -0.0318445 1.11767e-07)
(0.000176892 -0.0318423 1.41803e-07)
(2.09195e-05 -0.011655 1.16138e-07)
(2.09662e-05 -0.0116543 1.46865e-07)
(1.94109e-05 -0.0117369 1.12737e-07)
(1.94558e-05 -0.0117362 1.42444e-07)
(0.000190168 -0.0316169 1.57694e-07)
(0.00019039 -0.0316156 0.918472)
(0.000177001 -0.03184 1.51992e-07)
(0.00017721 -0.0318387 0.918811)
(2.1149e-05 -0.0116536 1.07434e-07)
(2.16974e-05 -0.0116532 0.906489)
(1.96274e-05 -0.0117355 1.05003e-07)
(2.01404e-05 -0.011735 0.906819)
(0.000218821 -0.0311274 -0.917105)
(0.000218572 -0.0311286 -1.68655e-07)
(0.00020426 -0.0313786 -0.917462)
(0.000204025 -0.0313799 -1.62578e-07)
(2.50578e-05 -0.0114736 -0.905156)
(2.44343e-05 -0.011474 -1.11569e-07)
(2.33337e-05 -0.0115661 -0.905504)
(2.27487e-05 -0.0115665 -1.09e-07)
(0.000218449 -0.0311307 -1.53597e-07)
(0.000218369 -0.0311328 -1.20079e-07)
(0.000203907 -0.031382 -1.49136e-07)
(0.000203829 -0.0313842 -1.16688e-07)
(2.42284e-05 -0.0114747 -1.54694e-07)
(2.41782e-05 -0.0114754 -1.21561e-07)
(2.25546e-05 -0.0115672 -1.50047e-07)
(2.25062e-05 -0.0115679 -1.17988e-07)
(0.000218319 -0.0311341 -4.56451e-08)
(0.000218319 -0.0311341 4.7441e-08)
(0.000203781 -0.0313855 -4.43309e-08)
(0.000203781 -0.0313855 4.60913e-08)
(2.41566e-05 -0.0114758 -4.52227e-08)
(2.41567e-05 -0.0114758 4.69771e-08)
(2.24853e-05 -0.0115683 -4.39023e-08)
(2.24854e-05 -0.0115683 4.5631e-08)
(0.00021837 -0.0311328 1.21684e-07)
(0.00021845 -0.0311307 1.54892e-07)
(0.00020383 -0.0313842 1.18261e-07)
(0.000203908 -0.031382 1.50391e-07)
(2.41783e-05 -0.0114754 1.23149e-07)
(2.42285e-05 -0.0114747 1.55974e-07)
(2.25066e-05 -0.0115679 1.19553e-07)
(2.2555e-05 -0.0115672 1.51306e-07)
(0.000218573 -0.0311286 1.69535e-07)
(0.000218822 -0.0311274 0.917105)
(0.000204027 -0.0313799 1.6345e-07)
(0.000204262 -0.0313786 0.917462)
(2.44344e-05 -0.011474 1.12444e-07)
(2.50578e-05 -0.0114736 0.905156)
(2.27492e-05 -0.0115665 1.09837e-07)
(2.33344e-05 -0.0115661 0.905504)