/*--------------------------------*- C++ -*----------------------------------*\
  =========                 |
  \\      /  F ield         | OpenFOAM: The Open Source CFD Toolbox
   \\    /   O peration     | Website:  https://openfoam.org
    \\  /    A nd           | Version:  9
     \\/     M anipulation  |
\*---------------------------------------------------------------------------*/
FoamFile
{
    format      ascii;
    class       volScalarField;
    location    "4.5";
    object      k;
}
// * * * * * * * * * * * * * * * * * * * * * * * * * * * * * * * * * * * * * //

dimensions      [0 2 -2 0 0 0 0];

internalField   nonuniform List<scalar> 
36360
(
1.79294
1.71651
1.56358
1.52976
0.753928
0.730249
0.558102
0.619017
1.53517
1.43399
1.3551
1.25663
0.6578
0.617634
0.541245
0.496873
1.38869
1.38866
1.21281
1.21279
0.599963
0.599951
0.478597
0.478585
1.43393
1.53507
1.25656
1.35499
0.617598
0.657742
0.496836
0.541184
1.71639
1.7928
1.52962
1.56342
0.730169
0.753826
0.618932
0.557998
1.99723
1.9132
1.91763
1.83426
0.86029
0.822399
0.82223
0.786033
1.72857
1.62591
1.6493
1.54655
0.74748
0.707376
0.711449
0.671391
1.57985
1.57983
1.50055
1.50053
0.689679
0.689669
0.653708
0.653697
1.62586
1.72849
1.54649
1.64922
0.707346
0.747431
0.671358
0.711396
1.9131
1.99712
1.83415
1.9175
0.822331
0.860204
0.785959
0.822136
2.09987
2.01579
2.0551
1.97099
0.908274
0.869535
0.887304
0.84887
1.83316
1.732
1.78736
1.68542
0.795149
0.755556
0.774217
0.734325
1.6866
1.68659
1.63963
1.63962
0.738073
0.738064
0.716709
0.7167
1.73196
1.8331
1.68537
1.78729
0.755529
0.795107
0.734297
0.774171
2.01572
2.09978
1.97091
2.055
0.869475
0.908197
0.848806
0.887222
2.16374
2.08004
2.1351
2.05118
0.938495
0.899582
0.924902
0.886017
1.89947
1.7998
1.86967
1.7693
0.825744
0.786725
0.811936
0.77265
1.75521
1.7552
1.72432
1.72431
0.76953
0.769522
0.755314
0.755306
1.79976
1.89941
1.76926
1.86961
0.786702
0.825706
0.772625
0.811895
2.07997
2.16366
2.05111
2.13501
0.899529
0.938426
0.88596
0.924828
2.20634
2.12311
2.18698
2.10352
0.958908
0.920095
0.949607
0.910721
1.94435
1.84593
1.92395
1.82495
0.846769
0.808186
0.837175
0.798388
1.80202
1.80201
1.78073
1.78071
0.791236
0.791229
0.781322
0.781314
1.84589
1.9443
1.82491
1.92389
0.808165
0.846735
0.798366
0.837139
2.12305
2.20627
2.10345
2.18691
0.920046
0.958845
0.91067
0.94954
2.23557
2.15277
2.22221
2.13921
0.973101
0.934462
0.966597
0.927862
1.97557
1.87818
1.96131
1.86345
0.861571
0.823367
0.854784
0.816404
1.83482
1.83481
1.81984
1.81983
0.806632
0.806626
0.799569
0.799562
1.87815
1.97552
1.86342
1.96127
0.823348
0.861539
0.816384
0.854751
2.15272
2.2355
2.13915
2.22214
0.934418
0.973043
0.927816
0.966535
2.25561
2.17318
2.24646
2.16386
0.98297
0.944542
0.978456
0.939914
1.99736
1.90085
1.98743
1.89051
0.872048
0.834176
0.867246
0.82922
1.85792
1.85791
1.84738
1.84737
0.817613
0.817607
0.812576
0.812569
1.90083
1.99732
1.89049
1.98739
0.834159
0.87202
0.829202
0.867217
2.17314
2.25555
2.16381
2.2464
0.944504
0.982922
0.939872
0.978404
2.269
2.18686
2.26291
2.18065
0.989702
0.951481
0.986628
0.948306
2.01226
1.91652
2.00552
1.90943
0.879354
0.841775
0.876024
0.838309
1.87395
1.87395
1.86669
1.86668
0.825357
0.825351
0.821822
0.821816
1.91649
2.01222
1.9094
2.00549
0.841758
0.879327
0.838292
0.875996
2.18682
2.26897
2.18061
2.26287
0.951445
0.989669
0.94827
0.986587
2.27739
2.1954
2.27366
2.1916
0.994096
0.956021
0.992122
0.953973
2.02191
1.92685
2.01763
1.92226
0.884236
0.846921
0.882043
0.844605
1.88461
1.8846
1.87986
1.87986
0.830637
0.830632
0.828257
0.828252
1.92683
2.02187
1.92223
2.0176
0.846906
0.884212
0.84459
0.882017
2.19536
2.27734
2.19156
2.27362
0.955987
0.994054
0.953939
0.992087
2.28177
2.19985
2.27997
2.19801
0.996621
0.958658
0.995545
0.957517
2.0274
1.93297
2.0251
1.93037
0.887202
0.850131
0.885917
0.848732
1.89102
1.89102
1.88828
1.88828
0.833975
0.83397
0.832513
0.832509
1.93295
2.02737
1.93035
2.02507
0.850118
0.887179
0.848718
0.885894
2.19982
2.28171
2.19796
2.27988
0.958625
0.996564
0.957483
0.995482
2.28277
2.20086
2.28261
2.2007
0.997571
0.959691
0.997256
0.95934
2.02946
1.93565
2.02881
1.9347
0.88859
0.85176
0.888064
0.851116
1.89399
1.89398
1.89289
1.89289
0.835729
0.835725
0.835023
0.835018
1.93564
2.02944
1.93468
2.02878
0.851747
0.888569
0.851103
0.888042
2.20081
2.28274
2.20068
2.28259
0.95966
0.997538
0.959306
0.997208
2.28091
2.199
2.28207
2.20016
0.997216
0.959394
0.997498
0.959645
2.02869
1.93548
2.02937
1.93588
0.888658
0.852059
0.888752
0.852053
1.89409
1.89409
1.89436
1.89435
0.836154
0.83615
0.836088
0.836084
1.93547
2.02867
1.93586
2.02934
0.852048
0.888641
0.852041
0.888733
2.19904
2.28096
2.20013
2.28206
0.959377
0.997216
0.95962
0.997496
2.27723
2.19513
2.27922
2.19724
0.995881
0.958112
0.996636
0.958843
2.02557
1.93289
2.02738
1.93447
0.887649
0.851267
0.88828
0.851802
1.89175
1.89174
1.89321
1.89321
0.835481
0.835478
0.835954
0.835951
1.93287
2.02555
1.93445
2.02736
0.851257
0.887632
0.851792
0.888263
2.19509
2.27718
2.19727
2.27925
0.958087
0.995839
0.958825
0.996613
2.27115
2.18893
2.27434
2.19215
0.993544
0.955769
0.994792
0.957009
2.02031
1.92815
2.02316
1.93076
0.885634
0.849458
0.886741
0.850469
1.88724
1.88723
1.88974
1.88974
0.833783
0.83378
0.83474
0.834736
1.92813
2.02029
1.93075
2.02314
0.849449
0.885617
0.850459
0.886725
2.18888
2.2711
2.19212
2.2743
0.955738
0.993493
0.956983
0.994751
2.26379
2.18129
2.26758
2.18526
0.990409
0.952646
0.992051
0.954281
2.01321
1.92149
2.01698
1.92504
0.882758
0.846763
0.884288
0.848209
1.8808
1.88079
1.88425
1.88424
0.83119
0.831188
0.832587
0.832584
1.92148
2.01319
1.92503
2.01694
0.846755
0.882743
0.8482
0.884271
2.18118
2.26366
2.18517
2.26747
0.952615
0.990332
0.954243
0.991958
2.2542
2.17149
2.25915
2.1765
0.986314
0.948563
0.98844
0.950663
2.00426
1.91302
2.00893
1.91747
0.879037
0.843232
0.880984
0.84509
1.87255
1.87255
1.87689
1.87689
0.827759
0.827757
0.82957
0.829567
1.91302
2.00426
1.91746
2.00891
0.843225
0.879025
0.845082
0.88097
2.17154
2.25422
2.17644
2.25903
0.948551
0.9863
0.950641
0.988396
2.24336
2.16036
2.24884
2.16604
0.981567
0.943819
0.983968
0.946251
1.9937
1.90286
1.99917
1.90815
0.874548
0.83891
0.876878
0.841163
1.8626
1.86259
1.86779
1.86778
0.823524
0.823522
0.825735
0.825733
1.90286
1.99369
1.90815
1.99917
0.838903
0.874539
0.841156
0.876869
2.16035
2.24342
2.1661
2.24897
0.943815
0.981606
0.946249
0.984016
2.23035
2.14712
2.23705
2.15386
0.975933
0.938119
0.978854
0.941044
1.98133
1.89097
1.98772
1.89713
0.869217
0.833785
0.871974
0.836441
1.85093
1.85092
1.85697
1.85697
0.818484
0.818481
0.821099
0.821096
1.89097
1.98132
1.89712
1.98771
0.833778
0.869205
0.836434
0.871962
2.14711
2.23037
2.15386
2.23707
0.938107
0.97595
0.941031
0.978857
2.21584
2.13242
2.22324
2.13994
0.969477
0.931629
0.972778
0.934948
1.96724
1.87734
1.97449
1.88437
0.863078
0.827851
0.866236
0.830914
1.83752
1.83752
1.84444
1.84444
0.812625
0.812623
0.815652
0.81565
1.87734
1.96724
1.88437
1.97448
0.827845
0.863069
0.830907
0.866226
2.13241
2.21586
2.1399
2.22322
0.931621
0.969477
0.934939
0.972793
2.19929
2.11574
2.20772
2.12421
0.962105
0.92422
0.965881
0.928003
1.95133
1.86193
1.9595
1.86986
0.856092
0.821081
0.859683
0.824566
1.82235
1.82235
1.83016
1.83016
0.805926
0.805924
0.809377
0.809375
1.86192
1.95134
1.86985
1.9595
0.821076
0.856086
0.82456
0.859674
2.11579
2.19934
2.12422
2.20771
0.924224
0.962107
0.927996
0.965862
2.18077
2.09719
2.19019
2.10662
0.953783
0.915905
0.958019
0.92014
1.93355
1.84466
1.94265
1.85352
0.848228
0.813447
0.85226
0.817368
1.80535
1.80535
1.81408
1.81408
0.79835
0.798348
0.802244
0.802243
1.84466
1.93356
1.85352
1.94267
0.813443
0.848226
0.817363
0.852257
2.09724
2.18091
2.1067
2.19034
0.915921
0.953846
0.920158
0.95807
2.16
2.07652
2.17062
2.08703
0.944524
0.906633
0.949248
0.911353
1.91381
1.82547
1.92391
1.83531
0.83945
0.804906
0.843946
0.809288
1.78642
1.78642
1.79613
1.79613
0.789878
0.789877
0.794209
0.794207
1.82547
1.91381
1.83531
1.92392
0.804901
0.839445
0.809283
0.843943
2.07659
2.16009
2.08708
2.17071
0.906638
0.94459
0.911367
0.949325
2.13719
2.05392
2.1488
2.06545
0.934254
0.896341
0.9395
0.901594
1.89203
1.80424
1.90317
1.81511
0.829695
0.795395
0.83469
0.800268
1.76546
1.76546
1.7762
1.7762
0.780486
0.780484
0.785299
0.785297
1.80423
1.89202
1.81511
1.90317
0.79539
0.829689
0.800263
0.834684
2.05393
2.13723
2.06548
2.14886
0.896337
0.934262
0.901591
0.939525
2.1117
2.02891
2.12463
2.04155
0.922869
0.88493
0.928646
0.890728
1.86806
1.78089
1.88029
1.79283
0.818914
0.784886
0.824421
0.79026
1.74242
1.74241
1.7542
1.7542
0.770102
0.7701
0.775414
0.775412
1.78088
1.86803
1.79282
1.88027
0.784881
0.818904
0.790255
0.82441
2.02886
2.11162
2.04153
2.12461
0.884904
0.922839
0.890706
0.928638
2.08407
2.00191
2.0981
2.01561
0.910417
0.872455
0.916763
0.878789
1.84195
1.7554
1.85526
1.76841
0.807106
0.773355
0.813129
0.779245
1.71723
1.71722
1.73009
1.73009
0.758699
0.758696
0.764525
0.764523
1.75538
1.84189
1.7684
1.85522
0.773348
0.807089
0.77924
0.81312
2.0018
2.08396
2.01554
2.098
0.872409
0.910352
0.878771
0.91673
2.05369
1.97242
2.06916
1.98739
0.896701
0.858833
0.903684
0.865752
1.81356
1.72767
1.82802
1.74181
0.79423
0.760765
0.800795
0.76719
1.68982
1.68981
1.7038
1.70379
0.746237
0.746233
0.752598
0.752594
1.72764
1.81351
1.74179
1.82796
0.76075
0.794198
0.767178
0.800768
1.97232
2.05365
1.98726
2.06906
0.858775
0.896692
0.865688
0.903629
2.02084
1.94065
2.03746
1.95672
0.881915
0.844053
0.889436
0.851572
1.78281
1.69763
1.79847
1.71294
0.780205
0.747063
0.787357
0.754051
1.66011
1.6601
1.67525
1.67524
0.732678
0.732673
0.739592
0.739587
1.6976
1.78276
1.71291
1.79842
0.747049
0.780177
0.754035
0.787325
1.94046
2.02067
1.95663
2.03746
0.844
0.881867
0.851514
0.889405
1.98516
1.90634
2.00322
1.92366
0.86582
0.828026
0.873975
0.836132
1.74962
1.6652
1.76649
1.68171
0.765018
0.732222
0.772741
0.73978
1.62804
1.62803
1.64437
1.64437
0.717987
0.717983
0.725471
0.725467
1.66518
1.74961
1.68169
1.76646
0.732212
0.765002
0.739768
0.77272
1.90639
1.9852
1.92359
2.00308
0.828014
0.865799
0.836104
0.873939
1.94692
1.86961
1.96635
1.88826
0.848476
0.810793
0.8573
0.819554
1.71397
1.63031
1.73211
1.64807
0.748657
0.716212
0.756984
0.724362
1.59353
1.59352
1.61109
1.61109
0.702131
0.702128
0.710202
0.710199
1.6303
1.71395
1.64805
1.7321
0.716204
0.748644
0.724353
0.756969
1.86959
1.9469
1.88825
1.96637
0.810775
0.848453
0.819537
0.85728
1.90538
1.82988
1.92648
1.85002
0.829685
0.792141
0.839236
0.801611
1.67564
1.59287
1.69513
1.61191
0.731034
0.698985
0.739996
0.707747
1.5565
1.5565
1.57533
1.57532
0.685075
0.685072
0.693749
0.693747
1.59285
1.67562
1.61189
1.69511
0.698979
0.731023
0.707739
0.739983
1.82986
1.90536
1.85
1.92646
0.792125
0.829663
0.801593
0.839212
1.86083
1.7874
1.88339
1.80889
0.809524
0.77215
0.819747
0.782279
1.63467
1.55284
1.65547
1.57317
0.712157
0.680534
0.721743
0.689908
1.51692
1.51692
1.53703
1.53703
0.666802
0.6668
0.676087
0.676085
1.55284
1.63466
1.57316
1.65545
0.680528
0.712147
0.689902
0.721732
1.78738
1.8608
1.80888
1.88337
0.772136
0.809504
0.782264
0.819726
1.81347
1.74228
1.83742
1.76509
0.78807
0.750901
0.798934
0.761654
1.59111
1.51024
1.6132
1.53186
0.692045
0.660852
0.702248
0.670843
1.47477
1.47477
1.49617
1.49616
0.6473
0.647298
0.657202
0.6572
1.51023
1.59109
1.53185
1.61319
0.660846
0.692036
0.670837
0.702238
1.74227
1.81345
1.76507
1.8374
0.750887
0.788051
0.76164
0.798915
1.76341
1.69457
1.78871
1.71868
0.765346
0.728387
0.776846
0.739776
1.54493
1.46501
1.56833
1.48795
0.670685
0.639918
0.681515
0.650539
1.42997
1.42997
1.4527
1.4527
0.62654
0.626538
0.637075
0.637073
1.465
1.54491
1.48795
1.56832
0.639912
0.670676
0.650533
0.681506
1.69455
1.76339
1.71866
1.78869
0.728373
0.765328
0.739763
0.776828
1.71066
1.6442
1.73731
1.66965
0.74134
0.70459
0.753485
0.716624
1.49604
1.41703
1.52082
1.44137
0.648041
0.617686
0.65952
0.628964
1.38242
1.38241
1.40655
1.40655
0.604473
0.604471
0.61567
0.615668
1.41702
1.49603
1.44136
1.5208
0.617681
0.648032
0.628958
0.65951
1.64419
1.71064
1.66963
1.73729
0.704577
0.741322
0.716611
0.753467
1.65513
1.59105
1.68319
1.61792
0.715995
0.679471
0.728821
0.692175
1.44428
1.36611
1.47052
1.39195
0.624046
0.594076
0.636212
0.606057
1.33188
1.33188
1.35754
1.35753
0.581011
0.58101
0.59292
0.592918
1.3661
1.44426
1.39195
1.47051
0.594071
0.624037
0.606051
0.636203
1.59103
1.65511
1.6179
1.68317
0.679459
0.715978
0.692163
0.728804
1.59653
1.53477
1.62618
1.56326
0.689166
0.65293
0.702761
0.666363
1.38925
1.31185
1.4172
1.33943
0.598559
0.568935
0.611495
0.581706
1.27797
1.27797
1.30538
1.30537
0.556003
0.556001
0.56871
0.568708
1.31184
1.38924
1.33942
1.41718
0.56893
0.598551
0.581701
0.611486
1.53475
1.59651
1.56324
1.62616
0.652917
0.689149
0.666351
0.702744
1.53421
1.47455
1.56583
1.50516
0.660567
0.624758
0.675091
0.639043
1.33015
1.25352
1.36029
1.28326
0.571279
0.541975
0.585168
0.555705
1.22006
1.22006
1.24957
1.24956
0.529189
0.529187
0.542838
0.542837
1.25351
1.33013
1.28325
1.36027
0.54197
0.57127
0.5557
0.585159
1.47453
1.53419
1.50515
1.56581
0.624745
0.66055
0.639031
0.675074
1.46741
1.40774
1.5013
1.44225
0.629939
0.594297
0.645481
0.6099
1.2647
1.18975
1.29846
1.22242
0.541376
0.512644
0.556745
0.527649
1.15732
1.15732
1.18934
1.18933
0.500216
0.500214
0.514988
0.514986
1.18974
1.26468
1.22241
1.29844
0.512639
0.541367
0.527644
0.556736
1.40773
1.46739
1.44224
1.50128
0.594285
0.629923
0.609888
0.645465
1.39941
1.31913
1.43304
1.36865
0.596551
0.555033
0.613956
0.576904
1.18674
1.11906
1.22784
1.15526
0.506357
0.480284
0.524746
0.496845
1.0898
1.0898
1.12404
1.12404
0.469053
0.469052
0.484863
0.484861
1.11905
1.18673
1.15525
1.22783
0.480279
0.506349
0.49684
0.524738
1.31911
1.39939
1.36863
1.43302
0.555021
0.596536
0.576892
0.61394
2.64765
2.54014
2.45926
2.36881
2.30411
2.20086
2.09818
2.01853
2.35572
2.2391
2.18163
2.06512
2.00985
1.89418
1.82866
1.71512
2.18301
2.18299
2.00989
2.00987
1.84003
1.84001
1.66261
1.66259
2.23905
2.35566
2.06506
2.18155
1.89412
2.00976
1.71506
1.82856
2.54008
2.64759
2.36872
2.45916
2.20077
2.304
2.0184
2.09803
2.88279
2.77408
2.78276
2.67353
2.53342
2.42663
2.43914
2.33235
2.59107
2.47537
2.48888
2.37229
2.23469
2.11856
2.13941
2.02283
2.4196
2.41959
2.31614
2.31613
2.06408
2.06406
1.9682
1.96818
2.47535
2.59103
2.37225
2.48883
2.11852
2.23462
2.02278
2.13934
2.77405
2.88277
2.67349
2.78272
2.42656
2.53334
2.33226
2.43905
3.01962
2.9128
2.95924
2.85149
2.65816
2.55265
2.60351
2.49735
2.73398
2.62084
2.67065
2.55623
2.36405
2.24996
2.30711
2.19197
2.56626
2.56625
2.50103
2.50102
2.1964
2.19639
2.13792
2.13791
2.62082
2.73396
2.5562
2.67062
2.24992
2.364
2.19194
2.30706
2.91279
3.01962
2.85147
2.95922
2.55259
2.6581
2.49729
2.60345
3.10675
3.00167
3.06759
2.9617
2.73635
2.63213
2.70126
2.59643
2.82669
2.71595
2.78497
2.6731
2.44675
2.33468
2.40958
2.29656
2.66252
2.66251
2.61912
2.61911
2.2821
2.28209
2.24352
2.24351
2.71594
2.82668
2.67309
2.78495
2.33465
2.44671
2.29653
2.40954
3.00167
3.10675
2.96169
3.06758
2.63209
2.73631
2.59638
2.70121
3.16489
3.06124
3.13851
3.0342
2.78842
2.68529
2.76477
2.66114
2.88946
2.78073
2.86098
2.75132
2.50263
2.39227
2.47727
2.36611
2.72826
2.72826
2.6984
2.69839
2.34052
2.34051
2.31397
2.31396
2.78072
2.88945
2.75131
2.86097
2.39224
2.5026
2.36608
2.47723
3.06124
3.16491
3.0342
3.13851
2.68525
2.78838
2.6611
2.76473
3.20436
3.10183
3.18639
3.08335
2.82389
2.72163
2.8077
2.70505
2.93271
2.82566
2.91305
2.80522
2.54127
2.43233
2.52367
2.41407
2.774
2.774
2.75318
2.75317
2.38127
2.38126
2.36269
2.36268
2.82565
2.93271
2.80521
2.91304
2.43231
2.54124
2.41405
2.52364
3.10183
3.20437
3.08335
3.1864
2.7216
2.82386
2.70502
2.80767
3.2309
3.12926
3.21886
3.11682
2.84796
2.74638
2.837
2.73511
2.96242
2.85678
2.94897
2.84267
2.56798
2.46026
2.55585
2.44756
2.80581
2.80581
2.79137
2.79137
2.40977
2.40977
2.3968
2.3968
2.85678
2.96241
2.84266
2.94896
2.46024
2.56796
2.44754
2.55582
3.12928
3.23093
3.11683
3.21887
2.74635
2.84793
2.73508
2.83697
3.24805
3.14711
3.24035
3.1391
2.86373
2.76268
2.8566
2.75532
2.98221
2.8778
2.97335
2.86838
2.58599
2.47932
2.57789
2.47073
2.82742
2.82742
2.81771
2.81771
2.42934
2.42933
2.42051
2.42051
2.8778
2.98221
2.86837
2.97335
2.4793
2.58597
2.47071
2.57787
3.14712
3.24807
3.13912
3.24037
2.76266
2.86371
2.7553
2.85658
3.25805
3.15766
3.25369
3.15307
2.8732
2.77255
2.86902
2.76821
2.99448
2.89115
2.98914
2.88532
2.59738
2.49164
2.59238
2.48621
2.84129
2.84129
2.8352
2.8352
2.4421
2.4421
2.43646
2.43646
2.89115
2.99448
2.88531
2.98914
2.49162
2.59736
2.48619
2.59236
3.15768
3.25807
3.15308
3.25371
2.77254
2.87318
2.76819
2.869
3.26242
3.16246
3.26074
3.1606
2.87768
2.77734
2.87588
2.77541
3.00082
2.89846
2.99829
2.89548
2.60354
2.49865
2.60102
2.49573
2.84907
2.84907
2.84586
2.84586
2.44952
2.44952
2.44641
2.4464
2.89846
3.00083
2.89548
2.99829
2.49864
2.60353
2.49572
2.601
3.16248
3.26245
3.16061
3.26076
2.77733
2.87767
2.77539
2.87586
3.26223
3.1626
3.26272
3.16296
2.87807
2.77795
2.87823
2.77802
3.00235
2.90088
3.00211
2.90023
2.60544
2.50135
2.60496
2.50049
2.85192
2.85192
2.85105
2.85105
2.4526
2.4526
2.45155
2.45155
2.90088
3.00236
2.90023
3.00212
2.50134
2.60543
2.50047
2.60494
3.16262
3.26226
3.16297
3.26274
2.77793
2.87805
2.77802
2.87823
3.25816
3.15879
3.26055
3.16107
2.87496
2.77497
2.87686
2.77682
2.99988
2.89925
3.00157
2.90053
2.60378
2.50047
2.60501
2.50131
2.85069
2.85069
2.85177
2.85177
2.45208
2.45208
2.45274
2.45274
2.89925
2.99989
2.90053
3.00157
2.50046
2.60377
2.5013
2.60499
3.15881
3.25819
3.16109
3.26058
2.77501
2.87501
2.7768
2.87682
3.2508
3.15164
3.2547
3.15548
2.86885
2.76904
2.87202
2.77217
2.99396
2.89412
2.99729
2.89708
2.59906
2.4965
2.60173
2.49883
2.84594
2.84594
2.84872
2.84872
2.44846
2.44846
2.45063
2.45063
2.89412
2.99397
2.89708
2.9973
2.49649
2.59905
2.49882
2.60172
3.15165
3.25081
3.15549
3.25473
2.76893
2.86874
2.77215
2.87206
3.24064
3.14156
3.24598
3.14688
2.86047
2.76067
2.86486
2.76507
2.98507
2.88596
2.98985
2.8904
2.59179
2.48987
2.59571
2.49349
2.83813
2.83813
2.8424
2.8424
2.44215
2.44215
2.44562
2.44562
2.88596
2.98506
2.8904
2.98985
2.48986
2.59177
2.49349
2.5957
3.14156
3.24065
3.14689
3.246
2.76073
2.86053
2.76503
2.86476
3.22778
3.12885
3.23434
3.13538
2.8499
2.75009
2.85528
2.75552
2.97346
2.87506
2.97956
2.88084
2.58212
2.48083
2.58721
2.48564
2.82758
2.82758
2.83318
2.83318
2.43342
2.43341
2.43807
2.43807
2.87506
2.97344
2.88083
2.97954
2.48083
2.5821
2.48562
2.58718
3.12878
3.22771
3.13531
3.23428
2.74995
2.84975
2.75548
2.85531
3.21268
3.11373
3.22044
3.12152
2.83715
2.73725
2.84372
2.74385
2.95938
2.86165
2.9667
2.86866
2.57027
2.46957
2.57644
2.47547
2.8145
2.81451
2.82135
2.82135
2.42244
2.42244
2.4282
2.4282
2.86167
2.95938
2.86866
2.96669
2.46957
2.57027
2.47546
2.57643
3.11362
3.2125
3.12138
3.2203
2.73733
2.83725
2.7438
2.84359
3.19502
3.09619
3.20398
3.10509
2.82241
2.72245
2.82986
2.72996
2.94293
2.84586
2.95142
2.85405
2.55631
2.45619
2.56352
2.46314
2.79902
2.79903
2.80706
2.80707
2.40934
2.40934
2.41615
2.41615
2.84588
2.94298
2.85407
2.95145
2.45619
2.55632
2.46314
2.56353
3.09633
3.19518
3.10515
3.20396
2.72237
2.82232
2.72999
2.82996
3.17534
3.07655
3.18531
3.08655
2.80546
2.70544
2.81414
2.71413
2.92417
2.82771
2.93383
2.83708
2.54025
2.44069
2.54853
2.4487
2.78117
2.78118
2.79039
2.7904
2.39411
2.39411
2.40199
2.40199
2.82773
2.9242
2.8371
2.93386
2.44069
2.54026
2.4487
2.54854
3.07652
3.17532
3.08662
3.18547
2.70554
2.80557
2.71412
2.81406
3.15306
3.05435
3.16445
3.06566
2.78642
2.68639
2.79605
2.69606
2.90302
2.80718
2.91388
2.81775
2.52204
2.42306
2.53139
2.43214
2.76094
2.76094
2.77136
2.77136
2.37676
2.37676
2.3857
2.3857
2.80719
2.90304
2.81776
2.9139
2.42306
2.52204
2.43214
2.5314
3.05449
3.1532
3.0657
3.1644
2.6863
2.78632
2.69608
2.79615
3.12842
3.02988
3.1409
3.04233
2.76496
2.66498
2.77592
2.67588
2.87943
2.78421
2.89151
2.796
2.50163
2.40324
2.51209
2.41342
2.73829
2.73829
2.74992
2.74992
2.35722
2.35722
2.36726
2.36726
2.78422
2.87944
2.79601
2.89153
2.40324
2.50164
2.41342
2.5121
3.02982
3.12838
3.04237
3.14105
2.66509
2.76509
2.67588
2.77583
3.10092
3.00263
3.11495
3.01649
2.7412
2.64139
2.75322
2.65336
2.85328
2.75874
2.86666
2.77179
2.47893
2.38115
2.49054
2.39248
2.71313
2.71313
2.72603
2.72603
2.33544
2.33544
2.34662
2.34662
2.75875
2.85331
2.7718
2.86668
2.38116
2.47893
2.39248
2.49056
3.00276
3.10104
3.01651
3.11488
2.64131
2.74112
2.65339
2.75336
3.07077
2.9729
3.08604
2.98801
2.71471
2.61522
2.72822
2.62852
2.82453
2.73066
2.83922
2.74503
2.45386
2.35673
2.46667
2.36924
2.6854
2.6854
2.69959
2.6996
2.31133
2.31133
2.32368
2.32368
2.73067
2.82454
2.74504
2.83924
2.35673
2.45387
2.36924
2.46668
2.97283
3.07073
2.98804
3.08619
2.61533
2.71484
2.62852
2.72814
3.03746
2.94013
3.05446
2.95679
2.68568
2.58658
2.70049
2.6012
2.793
2.69988
2.8091
2.71561
2.42628
2.32985
2.44038
2.3436
2.65497
2.65497
2.67053
2.67053
2.28479
2.28479
2.29837
2.29837
2.69988
2.79302
2.71562
2.80912
2.32985
2.42629
2.3436
2.44039
2.94026
3.03759
2.95682
3.05439
2.58659
2.68567
2.60123
2.70059
3.00116
2.90462
3.01953
2.92264
2.6535
2.55518
2.66979
2.57108
2.75862
2.66628
2.77615
2.68343
2.39609
2.30041
2.41149
2.31545
2.62176
2.62176
2.63872
2.63872
2.25572
2.25572
2.27057
2.27057
2.66629
2.75863
2.68344
2.77617
2.30041
2.39609
2.31544
2.41149
2.90455
3.00112
2.92268
3.0197
2.55523
2.65358
2.57113
2.66981
2.96159
2.86595
2.98174
2.88559
2.61875
2.52123
2.63634
2.53844
2.7213
2.62979
2.74032
2.6484
2.36328
2.26837
2.38001
2.28472
2.58567
2.58567
2.60408
2.60408
2.22405
2.22405
2.24021
2.24021
2.62979
2.72131
2.6484
2.74033
2.26835
2.36325
2.28471
2.37999
2.86603
2.96164
2.88558
2.98163
2.5211
2.61859
2.53842
2.63638
2.91866
2.82425
2.94041
2.8454
2.58061
2.48421
2.60004
2.50299
2.68092
2.59028
2.70148
2.61041
2.32768
2.2336
2.34582
2.25133
2.54659
2.54658
2.56651
2.5665
2.18968
2.18968
2.20721
2.2072
2.59027
2.68091
2.61041
2.70148
2.23359
2.32766
2.25131
2.34579
2.82418
2.91864
2.84542
2.94052
2.48428
2.58068
2.50295
2.59987
2.87232
2.77927
2.89585
2.80208
2.53949
2.44445
2.5603
2.4646
2.63739
2.54766
2.65954
2.56936
2.28923
2.19603
2.30881
2.21517
2.50441
2.50441
2.52589
2.52589
2.15253
2.15252
2.17146
2.17145
2.54765
2.63738
2.56936
2.65953
2.19601
2.2892
2.21515
2.30878
2.7793
2.87231
2.80204
2.89574
2.44433
2.53937
2.46458
2.56038
2.82251
2.73105
2.84773
2.75549
2.49515
2.40167
2.51761
2.42333
2.59059
2.50181
2.61439
2.52515
2.24786
2.15555
2.2689
2.17615
2.45904
2.45903
2.48213
2.48213
2.1125
2.11249
2.13288
2.13287
2.50181
2.59059
2.52514
2.61439
2.15554
2.24784
2.17614
2.26887
2.73105
2.82253
2.75551
2.84777
2.40167
2.49513
2.42325
2.51746
2.76889
2.67919
2.7961
2.70549
2.44752
2.35577
2.47167
2.37904
2.54036
2.45261
2.5659
2.47764
2.20342
2.11206
2.22602
2.13419
2.41034
2.41034
2.43511
2.43511
2.06948
2.06947
2.09136
2.09136
2.45261
2.54035
2.47763
2.56589
2.11205
2.2034
2.13418
2.226
2.6792
2.76889
2.70549
2.79611
2.35576
2.44753
2.37905
2.47169
2.71132
2.62367
2.74049
2.6518
2.39612
2.30639
2.4222
2.33142
2.4866
2.39997
2.51391
2.42672
2.15574
2.06546
2.17997
2.08915
2.35824
2.35824
2.38472
2.38472
2.02339
2.02338
2.04682
2.04681
2.39996
2.48659
2.42672
2.5139
2.06545
2.15573
2.08914
2.17995
2.62368
2.71132
2.6518
2.74049
2.30638
2.39611
2.33141
2.42219
2.64997
2.56456
2.68101
2.59447
2.34113
2.25369
2.36896
2.28036
2.4293
2.34382
2.45838
2.37233
2.10485
2.01569
2.13068
2.04097
2.30265
2.30264
2.33088
2.33088
1.97416
1.97416
1.99917
1.99916
2.34381
2.4293
2.37233
2.45837
2.01569
2.10484
2.04096
2.13067
2.56456
2.64998
2.59448
2.68102
2.25368
2.34112
2.28035
2.36895
2.58497
2.5019
2.61783
2.53359
2.28278
2.19777
2.31227
2.22604
2.36844
2.2841
2.3993
2.31441
2.05076
1.96274
2.07819
1.98962
2.24348
2.24348
2.27352
2.27352
1.92175
1.92175
1.94836
1.94836
2.2841
2.36844
2.3144
2.3993
1.96273
2.05075
1.98961
2.07818
2.50191
2.58498
2.53359
2.61784
2.19776
2.28277
2.22603
2.31226
2.51634
2.43567
2.55101
2.46916
2.22116
2.13865
2.25229
2.16853
2.30394
2.22069
2.33664
2.25287
1.99342
1.90651
2.02249
1.93504
2.18061
2.18061
2.21252
2.21252
1.86605
1.86605
1.89432
1.89432
2.22069
2.30393
2.25286
2.33664
1.9065
1.99341
1.93503
2.02248
2.43568
2.51635
2.46916
2.55102
2.13864
2.22115
2.16852
2.25228
2.44404
2.36576
2.48056
2.4011
2.15625
2.07625
2.18903
2.10779
2.23561
2.15339
2.27025
2.18754
1.93269
1.84682
1.96348
1.87711
2.1138
2.1138
2.14771
2.14771
1.80687
1.80686
1.83691
1.8369
2.15339
2.23561
2.18754
2.27025
1.84682
1.93268
1.8771
1.96347
2.36576
2.44405
2.40111
2.48057
2.07624
2.15624
2.10778
2.18902
2.36791
2.29192
2.40639
2.32927
2.08791
2.01037
2.12243
2.04368
2.16316
2.08183
2.19992
2.11817
1.86831
1.78339
1.90097
1.8156
2.04269
2.04269
2.07881
2.07881
1.74389
1.74388
1.77587
1.77587
2.08183
2.16316
2.11817
2.19992
1.78338
1.8683
1.81559
1.90096
2.29192
2.36792
2.32927
2.40639
2.01036
2.08791
2.04367
2.12243
2.28755
2.21365
2.32821
2.2533
2.01579
1.94054
2.05227
1.97591
2.08601
2.00544
2.12521
2.04428
1.79975
1.71567
1.83459
1.7501
1.96669
1.96669
2.00534
2.00534
1.67659
1.67659
1.71082
1.71081
2.00544
2.086
2.04428
2.12521
1.71566
1.79975
1.7501
1.83458
2.21366
2.28756
2.25331
2.32822
1.94053
2.01578
1.9759
2.05227
2.20222
2.12994
2.24548
2.1725
1.93911
1.86572
1.978
1.90378
2.00305
1.92325
2.04535
1.96514
1.72595
1.64274
1.7636
1.67993
1.88498
1.88498
1.9266
1.9266
1.60418
1.60418
1.64108
1.64108
1.92325
2.00305
1.96514
2.04534
1.64274
1.72594
1.67992
1.76359
2.12995
2.20223
2.1725
2.24549
1.86572
1.9391
1.90377
1.97799
2.11128
2.03795
2.15733
2.08525
1.85684
1.78282
1.89861
1.8256
1.91185
1.83382
1.95872
1.87954
1.64431
1.56308
1.68636
1.60386
1.79672
1.79672
1.84169
1.84169
1.52576
1.52576
1.56575
1.56575
1.83382
1.91185
1.87953
1.95872
1.56308
1.6443
1.60386
1.68635
2.03795
2.11129
2.08526
2.15733
1.78281
1.85683
1.82559
1.8986
2.01823
1.92351
2.0646
1.98577
1.77126
1.6761
1.81412
1.73491
1.80706
1.73631
1.86157
1.78598
1.54882
1.47553
1.59877
1.52022
1.70252
1.70252
1.75017
1.75017
1.44172
1.44172
1.48428
1.48427
1.7363
1.80706
1.78597
1.86156
1.47552
1.54881
1.52021
1.59876
1.92351
2.01823
1.98577
2.0646
1.67609
1.77126
1.7349
1.81411
3.12976
3.02798
2.9628
2.87294
2.91267
2.80724
2.73676
2.6452
2.86447
2.75727
2.70354
2.59387
2.63327
2.52065
2.46637
2.35227
2.70443
2.70442
2.54049
2.54048
2.46564
2.46562
2.29731
2.2973
2.75726
2.86446
2.59384
2.70352
2.52063
2.63324
2.35223
2.46631
3.028
3.1298
2.87292
2.96279
2.80722
2.91265
2.64514
2.73671
3.36176
3.26112
3.25924
3.15753
3.14724
3.04206
3.04516
2.93912
3.10155
2.99716
2.9956
2.88972
2.87107
2.76051
2.76604
2.65423
2.94565
2.94565
2.8375
2.8375
2.7064
2.70639
2.59954
2.59954
2.99716
3.10156
2.88972
2.99561
2.7605
2.87106
2.65421
2.76602
3.26117
3.36183
3.15757
3.25929
3.04207
3.14726
2.93911
3.04516
3.50987
3.41164
3.44353
3.34415
3.29114
3.18818
3.22713
3.1231
3.25698
3.15571
3.18717
3.08438
3.02187
2.91422
2.95456
2.84548
3.1057
3.1057
3.03364
3.03364
2.86148
2.86148
2.79206
2.79206
3.15572
3.25701
3.08439
3.18719
2.91421
3.02187
2.84547
2.95456
3.4117
3.50996
3.34421
3.4436
3.18821
3.29118
3.12312
3.22716
3.60783
3.51167
3.56356
3.46644
3.38453
3.28355
3.34245
3.24055
3.36126
3.26272
3.3141
3.21428
3.12137
3.01634
3.07648
2.97023
3.21405
3.21405
3.16497
3.16497
2.96487
2.96487
2.91816
2.91816
3.26274
3.3613
3.21429
3.31413
3.01634
3.12138
2.97022
3.07649
3.51174
3.60792
3.46651
3.56365
3.28358
3.38458
3.24058
3.34249
3.67409
3.57959
3.644
3.54874
3.44722
3.34782
3.41877
3.31864
3.43269
3.33642
3.40026
3.30293
3.18906
3.08622
3.15834
3.05448
3.28885
3.28885
3.25484
3.25484
3.03581
3.03581
3.00358
3.00358
3.33644
3.43274
3.30295
3.4003
3.08622
3.18908
3.05449
3.15836
3.57967
3.67419
3.54881
3.64409
3.34786
3.44727
3.31868
3.41881
3.7191
3.62593
3.69865
3.60488
3.48973
3.3916
3.4704
3.37169
3.48194
3.38754
3.45958
3.36431
3.23568
3.13465
3.21451
3.11263
3.34089
3.34089
3.31723
3.31723
3.08513
3.08513
3.06269
3.06269
3.38756
3.48198
3.36433
3.45963
3.13466
3.2357
3.11264
3.21452
3.62601
3.7192
3.60495
3.69875
3.39164
3.48979
3.37173
3.47045
3.74916
3.65705
3.73559
3.643
3.5182
3.42106
3.50532
3.40773
3.5155
3.42268
3.50036
3.4068
3.26755
3.16805
3.25315
3.15293
3.37681
3.37681
3.36056
3.36057
3.11926
3.11927
3.1038
3.1038
3.42271
3.51555
3.40682
3.5004
3.16805
3.26757
3.15294
3.25317
3.65712
3.74926
3.64307
3.73569
3.4211
3.51826
3.40777
3.50537
3.76824
3.67697
3.75976
3.66811
3.53639
3.44005
3.52826
3.43157
3.53752
3.44606
3.52773
3.43564
3.28859
3.19041
3.27921
3.18041
3.40084
3.40085
3.39011
3.39012
3.14227
3.14227
3.13196
3.13197
3.44608
3.53756
3.43566
3.52778
3.19042
3.28861
3.18042
3.27923
3.67704
3.76834
3.66819
3.75986
3.44009
3.53645
3.43161
3.52832
3.77898
3.68837
3.7744
3.6835
3.54678
3.45107
3.5423
3.44632
3.55074
3.46046
3.54507
3.45424
3.30141
3.20438
3.29588
3.19831
3.41582
3.41583
3.40933
3.40934
3.1568
3.1568
3.15046
3.15047
3.46048
3.55078
3.45426
3.54511
3.20439
3.30144
3.19832
3.2959
3.68844
3.77907
3.68357
3.77449
3.45111
3.54684
3.44636
3.54235
3.78314
3.69306
3.78167
3.69137
3.55104
3.45582
3.54947
3.45404
3.55705
3.46781
3.55464
3.46492
3.30777
3.21176
3.30529
3.2088
3.42369
3.4237
3.42055
3.42056
3.16468
3.16468
3.16148
3.16149
3.46783
3.55709
3.46494
3.55469
3.21177
3.30779
3.20881
3.30531
3.69313
3.78323
3.69144
3.78176
3.45587
3.55109
3.45408
3.54952
3.78201
3.69235
3.78306
3.69322
3.55034
3.45551
3.55112
3.45613
3.55777
3.46947
3.55802
3.46928
3.30889
3.21381
3.3089
3.21338
3.42581
3.42581
3.4254
3.42541
3.16718
3.16718
3.16654
3.16654
3.46949
3.55781
3.46931
3.55806
3.21382
3.30891
3.2134
3.30892
3.69242
3.7821
3.69329
3.78314
3.45555
3.5504
3.45617
3.55118
3.77644
3.6871
3.77963
3.69016
3.54547
3.45094
3.54827
3.45362
3.55385
3.46641
3.55634
3.46849
3.30566
3.21144
3.30776
3.21314
3.42318
3.42319
3.42505
3.42506
3.16524
3.16524
3.16672
3.16673
3.46644
3.55389
3.46852
3.55638
3.21145
3.30568
3.21315
3.30779
3.68717
3.77652
3.69022
3.77971
3.45098
3.54552
3.45366
3.54833
3.76708
3.678
3.77209
3.6829
3.53704
3.44274
3.54155
3.44716
3.54596
3.45931
3.55035
3.46333
3.29869
3.20527
3.30259
3.20879
3.41647
3.41647
3.4203
3.42031