/*--------------------------------*- C++ -*----------------------------------*\
  =========                 |
  \\      /  F ield         | OpenFOAM: The Open Source CFD Toolbox
   \\    /   O peration     | Website:  https://openfoam.org
    \\  /    A nd           | Version:  9
     \\/     M anipulation  |
\*---------------------------------------------------------------------------*/
FoamFile
{
    format      ascii;
    class       volScalarField;
    location    "4.5";
    object      nut;
}
// * * * * * * * * * * * * * * * * * * * * * * * * * * * * * * * * * * * * * //

dimensions      [0 2 -1 0 0 0 0];

internalField   nonuniform List<scalar> 
36360
(
0.0237587
0.0239586
0.0226521
0.0228998
0.002566
0.0025254
0.00220782
0.00232517
0.0234408
0.0231989
0.0223659
0.0221431
0.0023969
0.0023226
0.00217426
0.00208326
0.0231123
0.0231119
0.0220739
0.0220735
0.00228914
0.00228912
0.0020446
0.00204458
0.0231977
0.0234389
0.0221418
0.0223638
0.00232253
0.00239679
0.00208319
0.00217414
0.0239559
0.0237548
0.0228968
0.0226477
0.00252526
0.00256583
0.00232501
0.00220761
0.0248988
0.0251967
0.0243931
0.0246584
0.00274098
0.00267996
0.00267968
0.00262006
0.0247561
0.0245178
0.0241862
0.0239393
0.00255501
0.00248555
0.00249269
0.00242153
0.0244184
0.024418
0.0238428
0.0238424
0.00245427
0.00245426
0.00238944
0.00238942
0.0245168
0.0247544
0.0239382
0.0241844
0.0024855
0.00255493
0.00242147
0.0024926
0.0251944
0.0248955
0.0246559
0.0243895
0.00267985
0.00274085
0.00261993
0.00267953
0.0256852
0.0259846
0.0253271
0.0256284
0.00281636
0.00275566
0.00278367
0.00272273
0.0255708
0.0253501
0.0252044
0.0249763
0.00263519
0.00256876
0.00260029
0.00253243
0.0252547
0.0252545
0.0248778
0.0248775
0.00253888
0.00253887
0.00250189
0.00250187
0.0253492
0.0255693
0.0249754
0.0252029
0.00256872
0.00263512
0.00253239
0.00260021
0.0259824
0.0256821
0.0256262
0.0253239
0.00275557
0.00281624
0.00272263
0.00278354
0.0262254
0.0265238
0.0259793
0.0262773
0.0028628
0.00280284
0.00284201
0.00278164
0.0261233
0.0259116
0.0258712
0.0256555
0.00268538
0.00262119
0.00266285
0.00259765
0.025824
0.0258237
0.025564
0.0255637
0.00259239
0.00259238
0.00256835
0.00256833
0.0259108
0.0261219
0.0256546
0.0258698
0.00262115
0.00268532
0.0025976
0.00266278
0.0265218
0.0262226
0.0262752
0.0259763
0.00280276
0.0028627
0.00278155
0.0028419
0.0266037
0.0269046
0.0264299
0.026729
0.00289375
0.0028346
0.00287969
0.00282013
0.0265116
0.0263067
0.0263327
0.0261247
0.00271933
0.00265667
0.00270389
0.00264053
0.0262251
0.0262249
0.0260404
0.0260402
0.00262868
0.00262866
0.00261217
0.00261215
0.026306
0.0265104
0.026124
0.0263314
0.00265664
0.00271928
0.00264049
0.00270384
0.0269028
0.0266011
0.0267272
0.0264271
0.00283452
0.00289366
0.00282005
0.00287959
0.0268742
0.0271786
0.0267493
0.0270517
0.00291507
0.00285663
0.00290532
0.00284653
0.026792
0.0265915
0.0266621
0.0264595
0.00274298
0.00268149
0.00273216
0.00267014
0.0265128
0.0265126
0.0263796
0.0263794
0.00265411
0.0026541
0.00264247
0.00264246
0.0265908
0.0267909
0.0264588
0.0266609
0.00268146
0.00274293
0.0026701
0.00273211
0.027177
0.0268717
0.02705
0.0267467
0.00285656
0.00291499
0.00284646
0.00290523
0.0270693
0.0273765
0.0269789
0.0272848
0.0029298
0.00287198
0.00292306
0.00286494
0.0269955
0.0267982
0.0269011
0.0267022
0.00275959
0.00269901
0.00275199
0.00269099
0.0267213
0.026721
0.0266246
0.0266243
0.00267209
0.00267208
0.00266386
0.00266385
0.0267976
0.0269945
0.0267016
0.0269
0.00269899
0.00275954
0.00269096
0.00275194
0.027375
0.0270669
0.0272832
0.0269765
0.00287192
0.00292972
0.00286488
0.002923
0.0272085
0.0275176
0.0271442
0.0274523
0.00293976
0.00288249
0.00293523
0.00287768
0.0271417
0.0269467
0.027074
0.0268779
0.00277111
0.00271126
0.00276586
0.00270568
0.0268708
0.0268706
0.0268015
0.0268013
0.0026847
0.00268469
0.00267895
0.00267894
0.0269462
0.0271407
0.0268773
0.0270731
0.00271124
0.00277106
0.00270566
0.00276582
0.0275163
0.0272064
0.0274509
0.027142
0.00288244
0.00293974
0.00287763
0.00293514
0.0273045
0.0276146
0.0272606
0.0275701
0.00294635
0.00288935
0.00294339
0.00288626
0.0272433
0.0270504
0.0271966
0.0270027
0.00277877
0.00271952
0.00277533
0.00271581
0.0269748
0.0269747
0.026927
0.0269268
0.00269326
0.00269325
0.0026894
0.00268939
0.0270498
0.0272423
0.0270021
0.0271957
0.0027195
0.00277873
0.00271578
0.00277529
0.0276132
0.0273023
0.0275687
0.0272584
0.0028893
0.00294625
0.00288621
0.00294334
0.0273658
0.0276764
0.0273384
0.0276487
0.00295004
0.00289332
0.00294849
0.0028916
0.0273094
0.0271181
0.0272796
0.0270875
0.00278342
0.00272466
0.00278141
0.00272242
0.0270428
0.0270426
0.0270121
0.0270119
0.00269865
0.00269864
0.00269629
0.00269628
0.0271176
0.0273085
0.0270869
0.0272786
0.00272463
0.00278338
0.0027224
0.00278137
0.027675
0.0273636
0.0276471
0.027336
0.00289326
0.00294993
0.00289155
0.00294836
0.0273988
0.0277092
0.0273849
0.0276955
0.0029514
0.00289486
0.00295093
0.00289434
0.0273465
0.0271566
0.0273305
0.02714
0.00278558
0.00272725
0.00278476
0.00272623
0.0270812
0.0270811
0.0270646
0.0270645
0.00270147
0.00270146
0.00270034
0.00270033
0.0271561
0.0273456
0.0271394
0.0273296
0.00272723
0.00278555
0.00272621
0.00278473
0.0277078
0.0273969
0.0276942
0.0273831
0.00289482
0.00295138
0.00289429
0.00295088
0.0274096
0.0277184
0.0274069
0.0277163
0.00295089
0.0028944
0.00295129
0.00289478
0.0273591
0.0271704
0.0273547
0.0271656
0.00278567
0.00272772
0.00278583
0.00272771
0.0270948
0.0270946
0.0270902
0.0270901
0.00270214
0.00270214
0.00270204
0.00270204
0.0271699
0.0273584
0.0271651
0.0273539
0.0027277
0.00278565
0.0027277
0.0027858
0.0277177
0.0274079
0.0277151
0.027405
0.00289438
0.00295089
0.00289475
0.00295135
0.0273977
0.0277054
0.0274054
0.0277134
0.0029489
0.00289246
0.00295006
0.00289356
0.0273495
0.0271625
0.027356
0.0271684
0.00278408
0.00272644
0.00278507
0.0027273
0.0270869
0.0270868
0.0270929
0.0270928
0.00270105
0.00270104
0.00270182
0.00270181
0.027162
0.0273486
0.0271679
0.0273553
0.00272642
0.00278405
0.00272728
0.00278505
0.027704
0.0273958
0.0277126
0.0274036
0.00289242
0.00294884
0.00289354
0.00294999
0.0273684
0.0276743
0.0273847
0.0276912
0.00294542
0.00288891
0.00294728
0.00289078
0.0273215
0.0271357
0.0273371
0.0271507
0.00278091
0.00272353
0.00278265
0.00272516
0.02706
0.0270599
0.0270751
0.0270749
0.00269829
0.00269828
0.00269984
0.00269984
0.0271352
0.0273205
0.0271502
0.0273362
0.00272352
0.00278088
0.00272514
0.00278263
0.0276729
0.0273671
0.02769
0.027383
0.00288885
0.00294534
0.00289074
0.00294722
0.0273234
0.0276267
0.0273472
0.0276519
0.00294077
0.00288419
0.0029432
0.00288666
0.0272755
0.0270912
0.0273001
0.027115
0.00277639
0.0027192
0.00277879
0.00272152
0.0270156
0.0270155
0.0270393
0.0270392
0.00269408
0.00269408
0.00269635
0.00269635
0.0270908
0.0272747
0.0271145
0.0272991
0.00271919
0.00277636
0.00272151
0.00277876
0.0276249
0.0273215
0.0276502
0.0273458
0.00288413
0.00294067
0.00288659
0.00294304
0.0272629
0.0275623
0.0272946
0.0275958
0.0029347
0.00287798
0.00293784
0.00288118
0.0272128
0.02703
0.0272456
0.027062
0.00277052
0.00271352
0.00277359
0.00271651
0.0269547
0.0269546
0.0269865
0.0269864
0.00268851
0.0026885
0.00269145
0.00269145
0.0270298
0.0272125
0.0270617
0.027245
0.0027135
0.0027705
0.0027165
0.00277357
0.0275621
0.0272617
0.0275946
0.0272927
0.00287798
0.00293463
0.00288114
0.00293777
0.0271853
0.0274821
0.0272255
0.0275234
0.0029276
0.00287077
0.00293116
0.00287447
0.0271341
0.0269527
0.0271748
0.0269928
0.00276343
0.00270655
0.00276711
0.00271018
0.0268779
0.0268778
0.0269177
0.0269176
0.00268161
0.00268161
0.00268522
0.00268521
0.0269525
0.0271338
0.0269926
0.0271746
0.00270653
0.00276341
0.00271017
0.0027671
0.0274816
0.027184
0.0275233
0.0272245
0.00287077
0.00292767
0.00287448
0.00293124
0.0270931
0.0273867
0.0271406
0.0274355
0.00291922
0.00286208
0.00292359
0.00286654
0.0270402
0.0268596
0.0270886
0.0269076
0.00275499
0.00269826
0.00275935
0.00270256
0.0267854
0.0267854
0.0268331
0.026833
0.00267339
0.00267338
0.00267766
0.00267765
0.0268594
0.0270399
0.0269074
0.0270883
0.00269825
0.00275497
0.00270254
0.00275934
0.0273863
0.027092
0.0274352
0.0271395
0.00286206
0.00291924
0.00286652
0.00292359
0.0269858
0.0272767
0.027041
0.0273332
0.00290946
0.00285217
0.00291446
0.00285724
0.0269299
0.0267502
0.0269867
0.0268065
0.00274523
0.00268863
0.00275025
0.00269361
0.0266771
0.026677
0.0267328
0.0267327
0.0026638
0.00266379
0.00266876
0.00266875
0.02675
0.0269296
0.0268063
0.0269864
0.00268862
0.00274522
0.00269359
0.00275024
0.027276
0.0269846
0.0273325
0.0270397
0.00285216
0.00290953
0.00285723
0.00291449
0.0268621
0.0271496
0.0269255
0.0272144
0.00289848
0.0028408
0.0029041
0.00284661
0.0268023
0.0266239
0.0268678
0.0266887
0.0027341
0.00267761
0.00273983
0.00268329
0.0265524
0.0265523
0.0266163
0.0266163
0.00265279
0.00265279
0.00265847
0.00265846
0.0266237
0.0268021
0.0266885
0.0268675
0.0026776
0.00273409
0.00268328
0.00273981
0.0271493
0.026861
0.0272138
0.0269242
0.00284081
0.00289843
0.0028466
0.00290408
0.0267207
0.0270052
0.0267932
0.0270789
0.00288588
0.00282799
0.00289233
0.00283452
0.0266566
0.0264798
0.0267312
0.0265536
0.00272151
0.00266513
0.00272797
0.00267155
0.0264105
0.0264105
0.0264832
0.0264831
0.00264029
0.00264028
0.00264672
0.00264672
0.0264796
0.0266564
0.0265534
0.026731
0.00266512
0.0027215
0.00267154
0.00272797
0.0270046
0.0267193
0.0270786
0.0267922
0.00282802
0.00288601
0.00283456
0.0028924
0.0265591
0.0268415
0.0266421
0.0269251
0.00287182
0.00281362
0.00287901
0.00282095
0.0264923
0.0263167
0.0265764
0.0264003
0.00270738
0.0026511
0.00271462
0.00265831
0.0262491
0.026249
0.0263322
0.0263322
0.00262624
0.00262623
0.00263343
0.00263343
0.0263165
0.026492
0.0264002
0.0265761
0.00265109
0.00270737
0.0026583
0.00271462
0.0268413
0.0265575
0.0269245
0.0266402
0.00281364
0.00287191
0.00282097
0.00287916
0.0263787
0.02666
0.0264709
0.0267528
0.00285617
0.00279761
0.00286418
0.0028058
0.0263082
0.0261327
0.0264024
0.0262268
0.0026916
0.00263539
0.00269969
0.00264345
0.0260657
0.0260656
0.0261595
0.0261595
0.00261057
0.00261057
0.00261861
0.00261861
0.0261324
0.0263077
0.0262266
0.0264019
0.00263538
0.00269159
0.00264344
0.00269968
0.0266593
0.0263773
0.0267522
0.0264695
0.0027976
0.00285619
0.00280579
0.00286421
0.0261762
0.0264579
0.0262797
0.0265606
0.0028387
0.00277974
0.00284758
0.00278883
0.0261036
0.0259278
0.026208
0.0260324
0.00267406
0.00261791
0.00268303
0.00262686
0.025861
0.0258609
0.0259656
0.0259655
0.00259314
0.00259314
0.00260207
0.00260207
0.0259274
0.0261028
0.0260321
0.0262073
0.00261791
0.00267404
0.00262685
0.00268302
0.0264567
0.0261744
0.0265597
0.0262781
0.0027797
0.00283865
0.0027888
0.00284757
0.0259528
0.026236
0.026067
0.0263492
0.00281948
0.00276008
0.00282928
0.00277009
0.0258773
0.0257009
0.0259928
0.0258167
0.00265471
0.00259861
0.0026646
0.00260849
0.0256343
0.0256342
0.02575
0.0257499
0.00257387
0.00257387
0.00258374
0.00258373
0.0257005
0.0258765
0.0258162
0.0259918
0.0025986
0.00265467
0.00260848
0.00266458
0.0262349
0.0259516
0.0263477
0.0260649
0.00276001
0.00281942
0.00277005
0.00282922
0.0257046
0.0259898
0.0258317
0.0261153
0.00279815
0.00273843
0.00280903
0.00274945
0.025628
0.0254509
0.0257552
0.0255784
0.00263344
0.00257737
0.0026443
0.00258823
0.0253844
0.0253844
0.0255119
0.0255118
0.00255264
0.00255263
0.0025635
0.00256349
0.0254508
0.0256281
0.0255781
0.0257548
0.00257734
0.00263339
0.00258821
0.00264426
0.02599
0.025705
0.0261149
0.0258313
0.00273836
0.00279819
0.00274936
0.002809
0.0254318
0.025721
0.0255704
0.0258574
0.00277495
0.00271477
0.00278676
0.00272682
0.0253536
0.0251768
0.0254936
0.0253165
0.00261008
0.00255405
0.00262202
0.00256597
0.0251105
0.0251105
0.0252501
0.0252501
0.00252934
0.00252934
0.00254125
0.00254124
0.0251769
0.0253537
0.0253165
0.0254937
0.00255403
0.00261004
0.00256594
0.00262197
0.0257205
0.0254316
0.0258578
0.0255711
0.00271468
0.00277493
0.00272675
0.00278679
0.0251351
0.0254288
0.0252865
0.0255774
0.00274955
0.00268887
0.00276243
0.002702
0.0250547
0.0248776
0.0252068
0.02503
0.00258455
0.00252855
0.00259757
0.00254157
0.0248113
0.0248113
0.0249636
0.0249637
0.00250385
0.00250385
0.00251687
0.00251686
0.0248777
0.0250549
0.02503
0.0252069
0.00252854
0.00258453
0.00254155
0.00259753
0.0254292
0.0251351
0.0255772
0.0252859
0.00268886
0.00274953
0.00270196
0.00276242
0.0248125
0.0251115
0.0249767
0.0252729
0.00272187
0.00266074
0.00273598
0.00267508
0.0247302
0.0245523
0.0248953
0.0247179
0.00255676
0.00250075
0.00257094
0.00251494
0.0244858
0.0244857
0.0246514
0.0246514
0.00247605
0.00247605
0.00249024
0.00249024
0.0245522
0.0247301
0.0247179
0.0248953
0.00250074
0.00255674
0.00251493
0.00257092
0.0251113
0.024812
0.0252729
0.0249764
0.00266072
0.00272183
0.00267506
0.00273596
0.0244631
0.0247676
0.0246408
0.0249423
0.00269156
0.00262996
0.00270701
0.00264563
0.0243788
0.0241998
0.0245575
0.0243791
0.00252649
0.00247049
0.00254193
0.00248593
0.024133
0.0241329
0.0243124
0.0243123
0.00244579
0.00244579
0.00246123
0.00246122
0.0241996
0.0243785
0.0243789
0.0245573
0.00247048
0.00252647
0.00248592
0.00254191
0.0247671
0.0244622
0.0249419
0.0246401
0.00262993
0.00269152
0.00264561
0.00270697
0.0240858
0.0243966
0.0242776
0.024585
0.00265865
0.00259656
0.00267539
0.00261354
0.0239998
0.0238192
0.0241924
0.0240126
0.00249366
0.00243767
0.00251038
0.0024544
0.0237519
0.0237518
0.0239456
0.0239455
0.00241295
0.00241295
0.00242969
0.00242969
0.023819
0.0239994
0.0240124
0.0241921
0.00243766
0.00249364
0.00245439
0.00251037
0.024396
0.0240849
0.0245844
0.0242767
0.00259653
0.00265862
0.00261351
0.00267535
0.0236802
0.0239978
0.0238863
0.0242003
0.00262318
0.00256058
0.0026412
0.00257885
0.0235921
0.0234094
0.0237992
0.0236176
0.00245819
0.00240216
0.00247625
0.00242025
0.0233414
0.0233413
0.02355
0.0235499
0.0023774
0.0023774
0.00239552
0.00239551
0.0234091
0.0235917
0.0236174
0.0237988
0.00240215
0.00245817
0.00242024
0.00247623
0.0239972
0.0236793
0.0241997
0.0238853
0.00256056
0.00262315
0.00257883
0.00264117
0.0232444
0.0235688
0.0234658
0.0237867
0.00258509
0.0025219
0.00260444
0.00254154
0.0231537
0.0229685
0.0233764
0.0231925
0.00241995
0.0023638
0.00243942
0.00238334
0.0228995
0.0228995
0.0231241
0.023124
0.00233896
0.00233896
0.00235855
0.00235854
0.0229683
0.0231533
0.0231923
0.023376
0.00236379
0.00241994
0.00238333
0.0024394
0.0235682
0.0232435
0.0237861
0.0234649
0.00252188
0.00258506
0.00254152
0.00260441
0.0227761
0.0231072
0.0230141
0.0233418
0.00254422
0.00248036
0.00256498
0.00250145
0.0226822
0.0224943
0.0229218
0.0227353
0.00237875
0.00232238
0.00239973
0.00234348
0.0224241
0.022424
0.0226658
0.0226657
0.0022974
0.0022974
0.00231858
0.00231858
0.0224941
0.0226818
0.0227351
0.0229215
0.00232237
0.00237874
0.00234347
0.00239971
0.0231066
0.0227752
0.0233412
0.0230132
0.00248034
0.00254419
0.00250143
0.00256495
0.0222719
0.0226095
0.0225284
0.0228626
0.00250035
0.00243574
0.00252265
0.00245841
0.0221747
0.0219835
0.0224328
0.0222433
0.00233429
0.00227756
0.00235694
0.00230041
0.0219118
0.0219117
0.0221724
0.0221723
0.00225238
0.00225237
0.00227534
0.00227534
0.0219833
0.0221743
0.0222431
0.0224324
0.00227755
0.00233428
0.0023004
0.00235692
0.0226089
0.0222711
0.022862
0.0225275
0.00243572
0.00250032
0.00245839
0.00252262
0.0217263
0.0220706
0.0220043
0.0223451
0.00245305
0.0023877
0.00247713
0.00241213
0.0216266
0.0214315
0.0219057
0.0217127
0.00228613
0.00222884
0.0023107
0.00225372
0.0213579
0.0213578
0.02164
0.02164
0.00220337
0.00220336
0.0022284
0.0022284
0.0214313
0.0216262
0.0217124
0.0219053
0.00222883
0.00228611
0.00225371
0.00231068
0.02207
0.0217254
0.0223445
0.0220035
0.00238767
0.00245302
0.00241211
0.0024771
0.0211315
0.021483
0.0214351
0.021783
0.00240161
0.00233562
0.00242787
0.00236217
0.0210307
0.0208309
0.0213349
0.0211375
0.00223342
0.00217539
0.00226041
0.00220277
0.0207552
0.0207552
0.0210628
0.0210628
0.00214958
0.00214958
0.00217713
0.00217712
0.0208307
0.0210303
0.0211373
0.0213345
0.00217538
0.00223341
0.00220276
0.00226039
0.0214825
0.0211307
0.0217824
0.0214343
0.00233559
0.00240158
0.00236214
0.00242784
0.0204891
0.0208338
0.0208142
0.0211672
0.00234528
0.00227797
0.00237403
0.00230768
0.0203717
0.0201692
0.0207104
0.0205083
0.00217418
0.00211571
0.00220483
0.00214645
0.0200942
0.0200942
0.0204322
0.0204321
0.00208991
0.0020899
0.00212054
0.00212054
0.020169
0.0203713
0.0205081
0.02071
0.0021157
0.00217417
0.00214644
0.00220481
0.0208333
0.0204883
0.0211666
0.0208134
0.00227794
0.00234525
0.00230765
0.002374
0.0198773
0.0200639
0.0201703
0.0204725
0.00228228
0.00220143
0.00231533
0.00224438
0.0196137
0.0194334
0.0200072
0.0198103
0.00210269
0.00204784
0.00214053
0.00208285
0.01937
0.0193699
0.0197393
0.0197392
0.00202376
0.00202376
0.00205758
0.00205758
0.0194332
0.0196133
0.0198101
0.0200068
0.00204783
0.00210267
0.00208284
0.00214051
0.0200633
0.0198766
0.020472
0.0201695
0.0022014
0.00228225
0.00224436
0.0023153
0.0608759
0.0607034
0.0579067
0.0579322
0.0440577
0.0440235
0.041852
0.0419684
0.0603902
0.0604151
0.0575456
0.0575315
0.0437145
0.0437048
0.041592
0.0415631
0.0605052
0.0605033
0.0576117
0.0576097
0.0437625
0.0437614
0.0416231
0.0416219
0.0604095
0.0603812
0.0575257
0.0575364
0.0437014
0.0437089
0.0415595
0.0415861
0.0606917
0.0608614
0.05792
0.0578915
0.044016
0.0440479
0.0419604
0.0418414
0.064484
0.0643414
0.0629001
0.0627336
0.0464853
0.0465129
0.0454228
0.0454194
0.064089
0.0641382
0.0624523
0.0624925
0.0462753
0.0462833
0.0451502
0.0451502
0.064231
0.0642293
0.0625851
0.0625833
0.0463359
0.0463348
0.0452048
0.0452037
0.0641331
0.0640808
0.0624871
0.0624437
0.0462803
0.0462704
0.045147
0.045145
0.0643308
0.0644708
0.0627225
0.0628861
0.0465062
0.0464765
0.0454123
0.0454135
0.0669019
0.0667916
0.0657904
0.0656662
0.0481096
0.048165
0.0473643
0.0474089
0.0665778
0.0666372
0.0654357
0.0654905
0.0479638
0.0479824
0.0471925
0.0472065
0.0667289
0.0667273
0.0655827
0.065581
0.0480338
0.0480329
0.0472579
0.0472569
0.0666325
0.0665704
0.0654856
0.0654278
0.0479796
0.0479593
0.0472035
0.0471878
0.0667818
0.0668896
0.065656
0.0657775
0.0481589
0.0481015
0.0474025
0.0473558
0.0686705
0.0685803
0.0678495
0.0677501
0.0492774
0.0493488
0.0487381
0.048802
0.0683912
0.0684568
0.0675498
0.0676123
0.0491689
0.0491937
0.0486125
0.0486342
0.0685479
0.0685464
0.0677035
0.067702
0.0492462
0.0492453
0.048686
0.0486851
0.0684525
0.0683843
0.0676078
0.0675426
0.0491912
0.0491648
0.0486316
0.0486081
0.0685712
0.068659
0.0677407
0.0678375
0.0493431
0.0492698
0.048796
0.0487302
0.069994
0.0699184
0.0693771
0.0692946
0.0501328
0.0502167
0.0497358
0.0498136
0.0697475
0.069818
0.0691152
0.0691832
0.0500523
0.050082
0.0496421
0.0496693
0.069909
0.0699077
0.069274
0.0692726
0.0501356
0.0501348
0.0497223
0.0497214
0.069814
0.069741
0.069179
0.0691085
0.0500796
0.0500484
0.0496668
0.049638
0.06991
0.0699833
0.0692858
0.0693658
0.0502114
0.0501256
0.0498081
0.0497283
0.070993
0.0709287
0.0705264
0.0704568
0.0507661
0.0508602
0.0504713
0.0505605
0.0707721
0.070847
0.0702934
0.070366
0.0507081
0.0507417
0.0504026
0.0504342
0.0709383
0.070937
0.070457
0.0704556
0.0507962
0.0507955
0.0504882
0.0504874
0.0708432
0.0707661
0.0703621
0.0702872
0.0507396
0.0507046
0.0504319
0.0503989
0.0709208
0.0709829
0.0704485
0.0705158
0.0508552
0.0507594
0.0505553
0.0504643
0.0717475
0.071692
0.0713951
0.0713354
0.0512361
0.0513382
0.0510171
0.0511154
0.0715471
0.0716259
0.0711849
0.0712617
0.0511963
0.0512333
0.0509687
0.0510039
0.0717177
0.0717165
0.0713531
0.0713519
0.0512884
0.0512877
0.0510587
0.051058
0.0716224
0.0715415
0.071258
0.0711791
0.0512312
0.051193
0.0510018
0.0509653
0.0716846
0.0717379
0.0713277
0.0713851
0.0513336
0.0512298
0.0511106
0.0510105
0.0723124
0.0722638
0.0720491
0.0719973
0.0515816
0.0516899
0.051421
0.0515263
0.0721286
0.0722109
0.0718574
0.0719379
0.0515564
0.0515963
0.0513889
0.0514272
0.0723034
0.0723023
0.0720299
0.0720288
0.051652
0.0516514
0.0514826
0.0514819
0.0722076
0.0721234
0.0719345
0.071852
0.0515944
0.0515533
0.0514253
0.0513857
0.0722568
0.0723034
0.07199
0.0720397
0.0516856
0.0515756
0.0515219
0.0514148
0.072727
0.0726839
0.0725347
0.072489
0.0518291
0.0519423
0.0517148
0.0518256
0.0725568
0.0726422
0.0723582
0.0724419
0.0518161
0.0518586
0.051696
0.0517371
0.0727354
0.0727343
0.0725346
0.0725336
0.0519148
0.0519142
0.051793
0.0517923
0.0726391
0.0725517
0.0724387
0.072353
0.0518567
0.051813
0.0517352
0.0516929
0.0726771
0.0727183
0.0724821
0.0725257
0.0519381
0.0518233
0.0518213
0.0517088
0.0730187
0.0729801
0.0728845
0.0728439
0.0519976
0.0521148
0.0519209
0.0520361
0.0728605
0.072949
0.0727211
0.0728079
0.0519949
0.0520398
0.0519132
0.0519568
0.073043
0.073042
0.0729014
0.0729003
0.0520966
0.052096
0.0520132
0.0520126
0.072946
0.0728556
0.0728048
0.0727161
0.052038
0.051992
0.051955
0.0519101
0.0729736
0.0730104
0.0728372
0.0728758
0.0521108
0.0519922
0.0520318
0.0519151
0.0732115
0.0731759
0.0731244
0.0730876
0.0521023
0.052222
0.0520553
0.052174
0.0730618
0.0731525
0.0729711
0.0730607
0.0521073
0.0521543
0.0520573
0.0521034
0.073247
0.0732461
0.0731551
0.0731541
0.0522117
0.0522111
0.0521603
0.0521597
0.0731497
0.0730573
0.0730578
0.0729664
0.0521527
0.0521045
0.0521016
0.0520545
0.0731698
0.0732036
0.0730813
0.0731163
0.0522181
0.0520969
0.0521701
0.0520501
0.0733204
0.0732872
0.0732751
0.0732407
0.0521539
0.0522753
0.0521344
0.0522548
0.0731786
0.0732714
0.0731292
0.0732204
0.0521654
0.052214
0.0521418
0.0521889
0.0733665
0.0733656
0.0733149
0.0733139
0.0522713
0.0522708
0.0522459
0.0522454
0.0732687
0.0731742
0.0732176
0.0731248
0.0522124
0.0521628
0.0521873
0.0521391
0.0732816
0.0733131
0.0732347
0.0732672
0.0522721
0.0521493
0.0522509
0.0521289
0.0733544
0.073323
0.0733444
0.0733124
0.0521548
0.0522781
0.0521582
0.0522808
0.0732185
0.0733133
0.073206
0.0732996
0.0521726
0.0522234
0.0521735
0.0522231
0.073409
0.0734081
0.073395
0.0733941
0.0522814
0.0522809
0.0522808
0.0522802
0.0733107
0.0732144
0.073297
0.0732017
0.0522218
0.0521699
0.0522215
0.0521708
0.0733173
0.0733469
0.0733066
0.0733372
0.0522735
0.0521489
0.0522771
0.0521536
0.0733213
0.0732913
0.0733448
0.0733139
0.0521141
0.0522383
0.0521386
0.0522622
0.0731918
0.0732887
0.0732118
0.0733074
0.0521373
0.0521899
0.052159
0.0522106
0.0733851
0.0733843
0.0734034
0.0734026
0.0522485
0.052248
0.0522688
0.0522683
0.0732862
0.0731877
0.0733049
0.0732078
0.0521884
0.0521349
0.052209
0.0521565
0.0732862
0.0733149
0.0733085
0.0733375
0.0522357
0.0521104
0.0522584
0.0521332
0.0732289
0.0732003
0.0732804
0.0732514
0.0520351
0.0521598
0.0520776
0.0522024
0.0731043
0.0732032
0.0731541
0.0732519
0.0520619
0.0521166
0.0521033
0.0521569
0.0733005
0.0732998
0.0733487
0.0733479
0.052176
0.0521756
0.0522158
0.0522153
0.0732009
0.0731006
0.0732495
0.0731502
0.0521153
0.0520593
0.0521554
0.0521007
0.073195
0.0732221
0.0732461
0.0732739
0.052155
0.0520293
0.0521988
0.0520736
0.0730805
0.0730517
0.0731609
0.0731319
0.0519194
0.0520435
0.0519809
0.0521051
0.0729596
0.0730607
0.0730377
0.0731375
0.0519493
0.0520062
0.052009
0.0520648
0.0731591
0.0731585
0.0732353
0.0732346
0.0520666
0.0520663
0.0521246
0.0521243
0.0730589
0.072956
0.0731355
0.0730339
0.0520053
0.0519478
0.0520637
0.052007
0.0730458
0.0730726
0.073126
0.0731529
0.0520417
0.0519162
0.0521015
0.0519755
0.0728748
0.0728476
0.0729826
0.0729545
0.0517683
0.0518923
0.0518466
0.0519708
0.0727602
0.072864
0.0728652
0.0729676
0.0518009
0.0518602
0.0518783
0.0519364
0.0729636
0.0729631
0.0730666
0.0730661
0.0519216
0.0519214
0.0519973
0.051997
0.0728627
0.0727583
0.0729662
0.0728626
0.0518595
0.0517996
0.0519357
0.051877
0.0728452
0.0728711
0.0729506
0.0729767
0.0518894
0.051764
0.0519689
0.0518437
0.0726222
0.072595
0.072753
0.0727262
0.051584
0.0517076
0.0516794
0.051803
0.0725098
0.0726155
0.0726402
0.0727449
0.0516191
0.05168
0.0517133
0.0517733
0.0727161
0.0727156
0.072845
0.0728445
0.0517424
0.0517421
0.0518351
0.0518349
0.0726141
0.0725074
0.0727436
0.0726381
0.0516793
0.0516181
0.0517726
0.0517121
0.072591
0.072617
0.0727234
0.0727493
0.0517067
0.051582
0.0518009
0.0516755
0.0723168
0.0722896
0.0724753
0.0724475
0.0513678
0.0514902
0.0514787
0.051602
0.072208
0.0723157
0.0723643
0.0724709
0.0514029
0.0514654
0.0515144
0.0515761
0.0724173
0.0724167
0.0725719
0.0725714
0.0515288
0.0515285
0.0516388
0.0516386
0.0723142
0.072206
0.0724694
0.072362
0.0514646
0.0514015
0.0515753
0.0515132
0.0722877
0.0723137
0.0724443
0.0724701
0.0514871
0.0513636
0.0516003
0.0514764
0.0719622
0.0719347
0.0721442
0.0721174
0.0511151
0.0512363
0.0512452
0.0513667
0.0718546
0.071964
0.0720368
0.0721453
0.0511515
0.0512157
0.0512808
0.051344
0.0720665
0.072066
0.0722472
0.0722467
0.0512801
0.0512799
0.0514078
0.0514076
0.0719625
0.0718519
0.0721438
0.0720344
0.0512149
0.0511504
0.0513433
0.0512794
0.0719301
0.0719564
0.0721143
0.0721407
0.0512353
0.051113
0.0513644
0.0512412
0.0715519
0.0715244
0.0717633
0.0717352
0.0508281
0.0509478
0.0509748
0.0510956
0.0714476
0.0715588
0.0716568
0.0717671
0.0508636
0.0509295
0.0510113
0.0510763
0.0716624
0.0716619
0.07187
0.0718696
0.0509951
0.0509949
0.0511412
0.051141
0.0715575
0.0714455
0.0717656
0.0716544
0.0509287
0.050862
0.0510755
0.0510099
0.0715223
0.0715483
0.0717314
0.0717572
0.0509445
0.0508233
0.0510936
0.0509722
0.0710888
0.0710613
0.0713256
0.0712986
0.0505005
0.0506196
0.0506686
0.0507876
0.0709856
0.0710984
0.0712226
0.0713345
0.0505375
0.0506049
0.0507045
0.0507712
0.0712028
0.0712023
0.0714385
0.071438
0.0506716
0.0506714
0.0508374
0.0508372
0.071097
0.070983
0.0713332
0.0712203
0.0506042
0.0505363
0.0507705
0.0507031
0.0710567
0.071083
0.0712955
0.071322
0.0506184
0.050498
0.0507851
0.0506639
0.0705657
0.0705388
0.070834
0.0708061
0.0501346
0.050253
0.0503217
0.0504405
0.0704662
0.0705803
0.0707321
0.0708455
0.0501718
0.0502401
0.0503588
0.0504266
0.0706853
0.0706849
0.0709503
0.0709498
0.0503075
0.0503072
0.0504937
0.0504935
0.0705789
0.070464
0.0708442
0.0707297
0.0502392
0.0501702
0.0504258
0.0503573
0.0705368
0.0705624
0.0708024
0.0708279
0.0502506
0.0501312
0.0504386
0.0503191
0.0699864
0.0699598
0.0702818
0.0702557
0.0497271
0.0498458
0.0499352
0.0500536
0.0698873
0.0700021
0.0701834
0.0702978
0.049765
0.0498337
0.0499728
0.0500413
0.0701076
0.0701071
0.0704031
0.0704026
0.0499016
0.0499012
0.0501089
0.0501086
0.0700005
0.0698843
0.0702963
0.0701809
0.0498326
0.0497633
0.0500404
0.0499713
0.0699549
0.0699806
0.0702528
0.0702788
0.0498441
0.0497247
0.0500517
0.0499322
0.0693412
0.0693151
0.0696715
0.0696446
0.0492777
0.0493957
0.0495068
0.0496254
0.0692446
0.0693604
0.0695731
0.0696883
0.0493143
0.0493832
0.0495445
0.0496132
0.0694664
0.0694659
0.069794
0.0697935
0.0494516
0.0494513
0.0496813
0.049681
0.0693589
0.0692423
0.0696867
0.0695704
0.0493823
0.0493125
0.0496122
0.0495426
0.0693126
0.0693371
0.0696403
0.0696651
0.0493927
0.0492737
0.049623
0.049504
0.0686295
0.0686051
0.0689921
0.0689673
0.0487779
0.0488968
0.0490334
0.0491512
0.0685351
0.0686517
0.0688974
0.0690135
0.0488169
0.0488864
0.0490707
0.0491399
0.0687583
0.0687579
0.0691198
0.0691194
0.0489554
0.0489552
0.0492085
0.0492082
0.0686506
0.0685331
0.0690122
0.0688953
0.048886
0.0488165
0.0491392
0.0490696
0.068602
0.0686259
0.068965
0.0689895
0.0488973
0.0487776
0.0491498
0.0490303
0.0678479
0.0678246
0.0682468
0.0682227
0.0482318
0.048352
0.0485095
0.0486294
0.0677555
0.0678727
0.0681533
0.0682702
0.0482708
0.048341
0.0485492
0.0486191
0.0679797
0.0679794
0.068377
0.0683766
0.0484106
0.0484105
0.0486883
0.0486882
0.0678718
0.0677541
0.0682692
0.0681517
0.0483409
0.0482703
0.0486188
0.0485489
0.0678227
0.0678444
0.0682198
0.0682425
0.0483505
0.0482301
0.0486292
0.0485095
0.0669925
0.0669708
0.0674285
0.0674061
0.0476363
0.0477569
0.0479401
0.0480602
0.0669017
0.0670194
0.0673371
0.0674545
0.0476742
0.0477449
0.0479782
0.0480486
0.0671268
0.0671265
0.0675617
0.0675614
0.0478148
0.0478147
0.0481184
0.0481183
0.0670184
0.0669001
0.0674536
0.0673357
0.0477446
0.0476737
0.0480484
0.0479777
0.0669687
0.0669896
0.0674042
0.0674255
0.047756
0.0476341
0.0480587
0.0479374
0.0660593
0.0660393
0.0665347
0.0665138
0.0469869
0.0471088
0.0473171
0.0474385
0.0659702
0.0660881
0.0664449
0.0665627
0.0470245
0.0470954
0.0473553
0.0474261
0.0661958
0.0661954
0.0666703
0.0666699
0.0471658
0.0471656
0.0474963
0.0474961
0.066087
0.0659684
0.0665617
0.0664432
0.0470949
0.0470236
0.0474257
0.0473546
0.0660367
0.0660556
0.0665114
0.0665312
0.0471076
0.0469851
0.0474376
0.0473155
0.065046
0.0650276
0.0655618
0.0655426
0.0462843
0.0464068
0.0466416
0.0467637
0.0649575
0.0650747
0.0654734
0.065591
0.0463202
0.0463907
0.0466786
0.0467493
0.0651821
0.0651817
0.0656986
0.0656982
0.046461
0.0464608
0.0468197
0.0468195
0.0650735
0.0649554
0.0655898
0.0654714
0.04639
0.0463191
0.0467487
0.0466775
0.0650246
0.065042
0.0655398
0.0655578
0.0464051
0.0462818
0.0467622
0.0466393
0.0639476
0.06393
0.0645068
0.0644889
0.0455252
0.045648
0.0459111
0.0460338
0.0638577
0.0639733
0.064418
0.0645345
0.0455582
0.0456273
0.0459459
0.0460158
0.0640799
0.0640794
0.0646415
0.064641
0.0456973
0.045697
0.0460859
0.0460857
0.063972
0.0638555
0.0645332
0.0644158
0.0456266
0.0455569
0.0460151
0.0459447
0.0639269
0.0639435
0.0644858
0.0645026
0.0456462
0.0455226
0.0460321
0.0459085
0.0627565
0.0627393
0.0633631
0.0633458
0.0447058
0.0448287
0.0451225
0.0452454
0.0626631
0.062776
0.0632719
0.0633862
0.0447341
0.0448011
0.0451535
0.0452216
0.0628813
0.0628809
0.0634922
0.0634917
0.0448703
0.0448701
0.0452912
0.0452909
0.0627747
0.0626609
0.0633849
0.0632697
0.0448004
0.0447328
0.0452209
0.0451522
0.0627363
0.0627523
0.0633427
0.0633589
0.0448269
0.0447032
0.0452436
0.0451198
0.0614629
0.0614454
0.062122
0.0621049
0.0438203
0.0439426
0.0442708
0.0443935
0.0613638
0.0614732
0.0620263
0.0621375
0.043842
0.0439063
0.0442962
0.0443619
0.0615769
0.0615764
0.062242
0.0622416
0.0439745
0.0439742
0.0444306
0.0444303
0.0614719
0.0613616
0.0621362
0.0620241
0.0439056
0.0438408
0.0443612
0.044295
0.0614423
0.0614588
0.0621018
0.0621179
0.0439408
0.0438178
0.0443917
0.0442682
0.0600557
0.0600365
0.0607732
0.060755
0.0428623
0.0429827
0.04335