/*--------------------------------*- C++ -*----------------------------------*\
  =========                 |
  \\      /  F ield         | OpenFOAM: The Open Source CFD Toolbox
   \\    /   O peration     | Website:  https://openfoam.org
    \\  /    A nd           | Version:  9
     \\/     M anipulation  |
\*---------------------------------------------------------------------------*/
FoamFile
{
    format      ascii;
    class       volVectorField;
    location    "1.2";
    object      U;
}
// * * * * * * * * * * * * * * * * * * * * * * * * * * * * * * * * * * * * * //

dimensions      [0 1 -1 0 0 0 0];

internalField   nonuniform List<vector> 
36360
(
(0.00061555 -0.122488 -0.499915)
(-0.000808282 -0.0956305 9.89591e-05)
(-0.000776612 -0.124321 -0.501658)
(-0.00250894 -0.0885986 3.95299e-05)
(-0.00143365 -0.116862 -0.50142)
(0.0101513 -0.0978412 1.91348e-05)
(-0.000709923 -0.116345 -0.502146)
(0.0119808 -0.105612 2.09434e-05)
(-0.00147839 -0.1064 -5.64366e-05)
(-0.00206982 -0.10986 -1.75448e-06)
(-0.00281397 -0.104414 -2.82459e-05)
(-0.00259269 -0.107759 -3.15967e-07)
(0.00503778 -0.109946 -9.43773e-06)
(0.00420692 -0.108623 -3.34468e-06)
(0.0067275 -0.112928 -2.17048e-05)
(0.00613241 -0.111162 -1.6155e-06)
(-0.00198192 -0.110574 8.78485e-07)
(-0.00198189 -0.110574 -8.78765e-07)
(-0.00246854 -0.108516 2.47337e-07)
(-0.00246852 -0.108515 -2.47523e-07)
(0.00424848 -0.108285 6.49746e-08)
(0.00424849 -0.108284 -6.9148e-08)
(0.00607534 -0.110891 1.36707e-07)
(0.00607533 -0.11089 -1.37841e-07)
(-0.00206975 -0.10986 1.75191e-06)
(-0.00147857 -0.106399 5.64249e-05)
(-0.00259258 -0.107759 3.14918e-07)
(-0.00281394 -0.104413 2.82415e-05)
(0.00420702 -0.108622 3.33751e-06)
(0.0050377 -0.109944 9.42568e-06)
(0.00613237 -0.111161 1.61338e-06)
(0.0067274 -0.112926 2.1702e-05)
(-0.000808622 -0.0956284 -9.89679e-05)
(0.000614921 -0.122492 0.499914)
(-0.00250896 -0.0885966 -3.95336e-05)
(-0.000776978 -0.124325 0.501658)
(0.0101516 -0.0978402 -1.91282e-05)
(-0.00143372 -0.116868 0.50142)
(0.011981 -0.105611 -2.09408e-05)
(-0.000709915 -0.116351 0.502146)
(0.00225769 -0.119141 -0.498651)
(-0.00209824 -0.102266 0.000135925)
(0.0016367 -0.120721 -0.499361)
(-0.000895896 -0.0995123 0.000127782)
(-0.000986116 -0.117543 -0.501014)
(0.00326661 -0.0893451 -2.92653e-06)
(-0.00136476 -0.118082 -0.501166)
(0.00711397 -0.0909024 9.67182e-06)
(0.000697585 -0.107927 -5.61758e-05)
(-0.000355938 -0.111414 -7.3322e-06)
(0.000299944 -0.107427 -6.03022e-05)
(-0.000907015 -0.111179 -4.34276e-06)
(0.00309036 -0.10472 3.03858e-05)
(0.0014282 -0.106305 -7.86792e-06)
(0.0042736 -0.106722 8.1695e-06)
(0.00280525 -0.106772 -5.75221e-06)
(-0.000512554 -0.112456 3.91966e-07)
(-0.000512573 -0.112456 -3.92729e-07)
(-0.000969273 -0.11208 9.04042e-07)
(-0.000969268 -0.11208 -9.03115e-07)
(0.00140203 -0.105944 -9.48407e-07)
(0.00140209 -0.105944 9.42235e-07)
(0.00284976 -0.106363 -3.30968e-07)
(0.0028498 -0.106363 3.23647e-07)
(-0.000356139 -0.111413 7.32511e-06)
(0.000697316 -0.107925 5.6149e-05)
(-0.000907091 -0.111179 4.34125e-06)
(0.000299637 -0.107426 6.02915e-05)
(0.0014282 -0.106304 7.8567e-06)
(0.00309025 -0.104719 -3.04113e-05)
(0.00280534 -0.106771 5.73902e-06)
(0.00427342 -0.10672 -8.20532e-06)
(-0.00209915 -0.102264 -0.000135948)
(0.0022578 -0.119145 0.49865)
(-0.000896547 -0.0995106 -0.000127768)
(0.00163636 -0.120725 0.499361)
(0.00326751 -0.089344 2.95736e-06)
(-0.000985728 -0.11755 0.501014)
(0.00711476 -0.0909015 -9.69661e-06)
(-0.00136457 -0.118089 0.501166)
(0.00290726 -0.116635 -0.497884)
(-0.00399023 -0.104874 0.000120231)
(0.00263545 -0.117774 -0.498166)
(-0.00325829 -0.103865 0.000131843)
(-2.6832e-06 -0.116107 -0.50132)
(-0.000154559 -0.0904829 -4.27507e-05)
(-0.000455683 -0.116888 -0.501376)
(0.000961935 -0.0894071 -2.13711e-05)
(0.000418657 -0.108069 -2.64685e-05)
(-6.44056e-05 -0.11133 -1.00832e-05)
(0.000576651 -0.108096 -4.40856e-05)
(-0.000158722 -0.111436 -9.43227e-06)
(0.00142293 -0.102286 8.41562e-05)
(0.000179684 -0.105847 -8.56594e-06)
(0.00202259 -0.103204 5.70112e-05)
(0.00053201 -0.106 -8.79344e-06)
(-0.000144469 -0.112625 -1.26423e-06)
(-0.000144449 -0.112625 1.25851e-06)
(-0.000288312 -0.112611 -4.2715e-07)
(-0.000288331 -0.112611 4.24846e-07)
(3.25057e-05 -0.105779 -1.94259e-06)
(3.25501e-05 -0.105778 1.93562e-06)
(0.000428546 -0.105781 -1.48024e-06)
(0.000428611 -0.10578 1.4748e-06)
(-6.45056e-05 -0.11133 1.00707e-05)
(0.000418518 -0.108067 2.64307e-05)
(-0.000158891 -0.111435 9.42201e-06)
(0.000576474 -0.108094 4.40522e-05)
(0.000179689 -0.105846 8.55206e-06)
(0.0014232 -0.102284 -8.41934e-05)
(0.000532002 -0.105999 8.78257e-06)
(0.00202274 -0.103202 -5.70411e-05)
(-0.00399154 -0.104873 -0.000120258)
(0.00290802 -0.116639 0.497882)
(-0.00325938 -0.103864 -0.00013187)
(0.002636 -0.117778 0.498165)
(-0.000153879 -0.0904815 4.28188e-05)
(-1.52546e-06 -0.116113 0.50132)
(0.000962793 -0.0894059 2.14221e-05)
(-0.000454632 -0.116894 0.501375)
(0.00332383 -0.1149 -0.497594)
(-0.00451727 -0.1063 8.67237e-05)
(0.00314232 -0.115695 -0.497687)
(-0.00437166 -0.105653 0.000104349)
(0.000540848 -0.114072 -0.50127)
(-0.000790249 -0.0935808 -8.54951e-05)
(0.000332181 -0.11515 -0.501285)
(-0.000640952 -0.092002 -6.45344e-05)
(0.000259947 -0.107951 1.21285e-05)
(6.71374e-05 -0.111008 -7.36713e-06)
(0.000311623 -0.108 -6.9522e-06)
(4.43652e-06 -0.11117 -9.28764e-06)
(0.00102131 -0.101481 0.000131993)
(0.000112328 -0.105706 -5.18672e-06)
(0.00113877 -0.101777 0.000109494)
(0.000103452 -0.105773 -7.29758e-06)
(4.34599e-06 -0.1125 -2.45347e-06)
(4.39993e-06 -0.1125 2.43618e-06)
(-5.19225e-05 -0.112574 -1.96614e-06)
(-5.18743e-05 -0.112574 1.95771e-06)
(-4.72652e-05 -0.10588 -2.63298e-06)
(-4.72405e-05 -0.105879 2.61887e-06)
(-5.43332e-05 -0.105841 -2.33086e-06)
(-5.42965e-05 -0.105841 2.3214e-06)
(6.70793e-05 -0.111008 7.33979e-06)
(0.000259754 -0.10795 -1.21813e-05)
(4.38085e-06 -0.11117 9.26958e-06)
(0.000311473 -0.107998 6.90532e-06)
(0.000112384 -0.105704 5.16308e-06)
(0.00102162 -0.10148 -0.000132049)
(0.000103502 -0.105772 7.27949e-06)
(0.00113911 -0.101775 -0.00010954)
(-0.00451899 -0.1063 -8.67384e-05)
(0.00332475 -0.114903 0.497592)
(-0.00437319 -0.105653 -0.000104372)
(0.0031432 -0.115698 0.497685)
(-0.000789924 -0.0935797 8.55934e-05)
(0.000542028 -0.114076 0.50127)
(-0.000640453 -0.0920009 6.46178e-05)
(0.000333369 -0.115155 0.501284)
(0.00353125 -0.113579 -0.497482)
(-0.00449669 -0.107256 5.1929e-05)
(0.00345773 -0.114204 -0.497511)
(-0.00454089 -0.106834 6.88946e-05)
(0.000712711 -0.11181 -0.501255)
(-0.000705498 -0.0963198 -0.000122916)
(0.000669513 -0.112937 -0.501257)
(-0.000781331 -0.0950443 -0.00010505)
(0.000217299 -0.107955 4.45313e-05)
(0.0001661 -0.110718 -1.25514e-06)
(0.000232336 -0.107937 2.94049e-05)
(0.000122312 -0.110857 -4.55252e-06)
(0.000899515 -0.101192 0.000167508)
(0.000183114 -0.105426 7.47674e-07)
(0.000946733 -0.1013 0.000151292)
(0.000147517 -0.105589 -2.43255e-06)
(7.77666e-05 -0.112314 -2.83988e-06)
(7.77891e-05 -0.112314 2.82032e-06)
(4.43644e-05 -0.112412 -2.74446e-06)
(4.44357e-05 -0.112412 2.71928e-06)
(1.55545e-05 -0.105834 -2.87583e-06)
(1.55642e-05 -0.105833 2.86078e-06)
(-2.13433e-05 -0.105878 -2.82138e-06)
(-2.13316e-05 -0.105877 2.80291e-06)
(0.000166006 -0.110718 1.22927e-06)
(0.000217058 -0.107954 -4.45921e-05)
(0.000122217 -0.110857 4.50333e-06)
(0.000232068 -0.107936 -2.94647e-05)
(0.000183174 -0.105424 -7.75094e-07)
(0.000899706 -0.101191 -0.000167574)
(0.000147575 -0.105588 2.40283e-06)
(0.000946967 -0.101299 -0.000151356)
(-0.00449859 -0.107256 -5.19274e-05)
(0.00353221 -0.113581 0.497479)
(-0.00454275 -0.106834 -6.88924e-05)
(0.00345867 -0.114206 0.497508)
(-0.000705269 -0.0963194 0.000123043)
(0.000713914 -0.111813 0.501254)
(-0.000781069 -0.0950437 0.000105164)
(0.000670697 -0.112941 0.501257)
(0.00357887 -0.112477 -0.497418)
(-0.00434438 -0.107834 2.22171e-05)
(0.00357251 -0.113006 -0.49743)
(-0.00443005 -0.107587 3.63324e-05)
(0.000696433 -0.109729 -0.501247)
(-0.000541148 -0.0982909 -0.000153389)
(0.000724507 -0.110732 -0.501247)
(-0.000628968 -0.0973995 -0.000139011)
(0.000198637 -0.108012 6.8034e-05)
(0.000216787 -0.110439 5.92472e-06)
(0.000204499 -0.107984 5.73381e-05)
(0.000196032 -0.11058 2.26875e-06)
(0.000840129 -0.101113 0.000191962)
(0.000219941 -0.105034 7.71603e-06)
(0.000864817 -0.101134 0.000180932)
(0.000206359 -0.105237 4.17552e-06)
(0.000131839 -0.112093 -2.51853e-06)
(0.000131842 -0.112093 2.49771e-06)
(0.000106254 -0.112209 -2.7528e-06)
(0.000106277 -0.112209 2.75106e-06)
(6.04473e-05 -0.105645 -2.53062e-06)
(6.04472e-05 -0.105644 2.52169e-06)
(4.3854e-05 -0.10575 -2.7784e-06)
(4.38578e-05 -0.105749 2.76791e-06)
(0.000216685 -0.110439 -5.9303e-06)
(0.000198343 -0.108011 -6.80728e-05)
(0.000195979 -0.11058 -2.31086e-06)
(0.000204178 -0.107983 -5.74183e-05)
(0.000219989 -0.105033 -7.73265e-06)
(0.000840267 -0.101112 -0.000192016)
(0.000206421 -0.105236 -4.20153e-06)
(0.000864975 -0.101133 -0.000181)
(-0.00434633 -0.107835 -2.21891e-05)
(0.00357983 -0.112478 0.497415)
(-0.004432 -0.107587 -3.63107e-05)
(0.00357348 -0.113008 0.497428)
(-0.000540945 -0.098291 0.000153551)
(0.000697636 -0.109732 0.501247)
(-0.000628764 -0.0973995 0.000139153)
(0.00072573 -0.110736 0.501247)
(0.00356727 -0.111517 -0.497359)
(-0.00417416 -0.108116 -1.5539e-06)
(0.00357943 -0.111983 -0.49737)
(-0.00426179 -0.108007 9.55325e-06)
(0.000627055 -0.107964 -0.50124)
(-0.000395677 -0.0995908 -0.000177507)
(0.00066914 -0.108807 -0.50124)
(-0.000469932 -0.0990153 -0.000166174)
(0.000201791 -0.108033 8.3812e-05)
(0.000247382 -0.110144 1.30713e-05)
(0.000196251 -0.108029 7.68799e-05)
(0.000232562 -0.110294 9.66175e-06)
(0.000806166 -0.101127 0.000208238)
(0.000235293 -0.104614 1.47068e-05)
(0.000819433 -0.101114 0.000200964)
(0.00022842 -0.104825 1.12652e-05)
(0.000180446 -0.111814 -1.62202e-06)
(0.000180438 -0.111814 1.64958e-06)
(0.000156189 -0.111961 -2.23361e-06)
(0.000156183 -0.111961 2.0238e-06)
(8.37654e-05 -0.105378 -1.67176e-06)
(8.37651e-05 -0.105377 1.66604e-06)
(7.28598e-05 -0.10552 -2.16283e-06)
(7.28458e-05 -0.10552 2.13891e-06)
(0.000247269 -0.110144 -1.3128e-05)
(0.000201495 -0.108033 -8.39037e-05)
(0.000232452 -0.110294 -9.46349e-06)
(0.000195948 -0.108029 -7.66979e-05)
(0.000235355 -0.104613 -1.47308e-05)
(0.000806265 -0.101126 -0.000208301)
(0.000228412 -0.104824 -1.12578e-05)
(0.000819605 -0.101113 -0.000200986)
(-0.00417608 -0.108117 1.63607e-06)
(0.00356822 -0.111518 0.497356)
(-0.00426373 -0.108008 -9.64858e-06)
(0.00358039 -0.111984 0.497368)
(-0.000395445 -0.0995914 0.00017769)
(0.000628249 -0.107967 0.501239)
(-0.000469711 -0.0990157 0.000166347)
(0.00067035 -0.108809 0.501239)
(0.00355116 -0.11065 -0.497298)
(-0.00401096 -0.108167 -2.02706e-05)
(0.00356126 -0.111074 -0.49731)
(-0.00409381 -0.108167 -1.14825e-05)
(0.00055927 -0.106483 -0.501233)
(-0.000279835 -0.100374 -0.000196412)
(0.000597304 -0.107192 -0.501233)
(-0.000339078 -0.100039 -0.000187542)
(0.000226261 -0.107986 9.43185e-05)
(0.000275963 -0.109819 1.96872e-05)
(0.000210209 -0.10802 8.95759e-05)
(0.000261286 -0.109986 1.64764e-05)
(0.00079331 -0.101149 0.000218677)
(0.000246755 -0.104184 2.11963e-05)
(0.000796243 -0.101141 0.00021413)
(0.000241069 -0.1044 1.80351e-05)
(0.000231615 -0.111475 -4.01393e-07)
(0.000231604 -0.111475 3.8756e-07)
(0.000205496 -0.111652 -1.05634e-06)
(0.000205487 -0.111652 1.04484e-06)
(0.000104311 -0.105046 -4.66628e-07)
(0.00010431 -0.105046 4.52186e-07)
(9.41312e-05 -0.10522 -1.10378e-06)
(9.413e-05 -0.10522 1.0922e-06)
(0.000275838 -0.109819 -1.97178e-05)
(0.000225972 -0.107986 -9.43852e-05)
(0.00026117 -0.109986 -1.65036e-05)
(0.000209911 -0.10802 -8.96382e-05)
(0.000246811 -0.104183 -2.12265e-05)
(0.000793426 -0.101149 -0.000218748)
(0.000241124 -0.1044 -1.80623e-05)
(0.000796357 -0.101141 -0.000214198)
(-0.00401284 -0.108167 2.03315e-05)
(0.00355209 -0.110651 0.497295)
(-0.0040957 -0.108168 1.15379e-05)
(0.0035622 -0.111075 0.497307)
(-0.000279549 -0.100375 0.0001966)
(0.000560448 -0.106485 0.501232)
(-0.000338819 -0.100039 0.000187726)
(0.000598502 -0.107194 0.501232)
(0.00355109 -0.109836 -0.497234)
(-0.00385949 -0.108033 -3.49144e-05)
(0.00355246 -0.110238 -0.497247)
(-0.00393656 -0.108121 -2.80337e-05)
(0.000506639 -0.10521 -0.501225)
(-0.000191906 -0.100769 -0.00021116)
(0.000537329 -0.105824 -0.501225)
(-0.000237694 -0.100614 -0.000204241)
(0.000271307 -0.107847 0.000101155)
(0.000307956 -0.109454 2.54981e-05)
(0.000245733 -0.107929 9.81042e-05)
(0.000290805 -0.109642 2.26957e-05)
(0.000798575 -0.101123 0.000225583)
(0.000258382 -0.103738 2.69466e-05)
(0.000793148 -0.101145 0.00022235)
(0.00025225 -0.103963 2.41666e-05)
(0.000287141 -0.111074 1.0431e-06)
(0.000287131 -0.111074 -1.06002e-06)
(0.000258728 -0.111282 3.04703e-07)
(0.000258717 -0.111283 -3.203e-07)
(0.000125458 -0.104651 9.38979e-07)
(0.000125456 -0.104651 -9.56418e-07)
(0.000114696 -0.104857 2.20291e-07)
(0.000114694 -0.104857 -2.36449e-07)
(0.000307831 -0.109454 -2.55319e-05)
(0.00027102 -0.107847 -0.000101223)
(0.000290679 -0.109642 -2.27282e-05)
(0.000245445 -0.107928 -9.81714e-05)
(0.000258443 -0.103737 -2.69802e-05)
(0.0007987 -0.101122 -0.000225653)
(0.000252308 -0.103963 -2.41988e-05)
(0.000793267 -0.101145 -0.00022242)
(-0.00386133 -0.108034 3.49841e-05)
(0.003552 -0.109837 0.497231)
(-0.00393841 -0.108121 2.80992e-05)
(0.00355339 -0.110239 0.497244)
(-0.000191581 -0.10077 0.000211356)
(0.0005078 -0.105211 0.501224)
(-0.000237392 -0.100615 0.000204433)
(0.000538501 -0.105826 0.501224)
(0.0035702 -0.109042 -0.49717)
(-0.00371798 -0.107748 -4.6391e-05)
(0.00356232 -0.109438 -0.497184)
(-0.00379019 -0.107908 -4.09945e-05)
(0.000468755 -0.104073 -0.501217)
(-0.000125955 -0.100863 -0.000222526)
(0.000493045 -0.104628 -0.501217)
(-0.000160651 -0.10085 -0.000217274)
(0.000329211 -0.107605 0.000105566)
(0.000348901 -0.109037 3.0499e-05)
(0.000298088 -0.107739 0.000103598)
(0.000326952 -0.109252 2.80968e-05)
(0.000814968 -0.10101 0.000229986)
(0.000272476 -0.103264 3.19182e-05)
(0.000805059 -0.101078 0.000228107)
(0.000264924 -0.103506 2.95318e-05)
(0.000348304 -0.110605 2.56095e-06)
(0.000348294 -0.110606 -2.58005e-06)
(0.000316905 -0.110848 1.79942e-06)
(0.000316896 -0.110848 -1.81756e-06)
(0.000148532 -0.10419 2.41678e-06)
(0.000148528 -0.10419 -2.43625e-06)
(0.000136727 -0.10443 1.67549e-06)
(0.000136724 -0.104429 -1.69406e-06)
(0.000348772 -0.109037 -3.05349e-05)
(0.000328922 -0.107605 -0.000105632)
(0.000326826 -0.109252 -2.81319e-05)
(0.0002978 -0.107739 -0.000103664)
(0.000272541 -0.103264 -3.19538e-05)
(0.000815105 -0.10101 -0.000230057)
(0.000264988 -0.103505 -2.95666e-05)
(0.000805191 -0.101078 -0.000228178)
(-0.00371981 -0.107748 4.64681e-05)
(0.00357109 -0.109042 0.497168)
(-0.00379202 -0.107909 4.1068e-05)
(0.00356323 -0.109439 0.497181)
(-0.000125612 -0.100864 0.00022273)
(0.000469895 -0.104074 0.501217)
(-0.000160318 -0.100851 0.000217474)
(0.000494206 -0.104629 0.501217)
(0.00360978 -0.108237 -0.497105)
(-0.00357931 -0.107329 -5.54035e-05)
(0.00359112 -0.108642 -0.497117)
(-0.00365208 -0.107554 -5.11605e-05)
(0.00044524 -0.103016 -0.501209)
(-7.80055e-05 -0.100736 -0.000231595)
(0.000461508 -0.103538 -0.501209)
(-0.000108181 -0.10083 -0.000227233)
(0.000399221 -0.107255 0.000108395)
(0.000401023 -0.108554 3.4748e-05)
(0.000361631 -0.107444 0.000107126)
(0.00037327 -0.108804 3.27107e-05)
(0.000840642 -0.100793 0.000232578)
(0.000290466 -0.102746 3.61505e-05)
(0.000825484 -0.100916 0.000231448)
(0.000280856 -0.103012 3.41199e-05)
(0.000416392 -0.110063 4.05856e-06)
(0.000416383 -0.110063 -4.07836e-06)
(0.000381439 -0.110344 3.31666e-06)
(0.000381433 -0.110344 -3.33678e-06)
(0.000173915 -0.103658 3.87514e-06)
(0.00017391 -0.103658 -3.89625e-06)
(0.000160945 -0.103934 3.15282e-06)
(0.000160941 -0.103933 -3.17308e-06)
(0.000400892 -0.108554 -3.47843e-05)
(0.000398942 -0.107255 -0.000108459)
(0.000373138 -0.108804 -3.27476e-05)
(0.000361342 -0.107444 -0.000107191)
(0.000290531 -0.102746 -3.61861e-05)
(0.000840804 -0.100793 -0.000232644)
(0.000280922 -0.103011 -3.41562e-05)
(0.000825628 -0.100916 -0.000231517)
(-0.00358115 -0.107329 5.54871e-05)
(0.00361064 -0.108238 0.497102)
(-0.00365392 -0.107555 5.12413e-05)
(0.00359199 -0.108643 0.497114)
(-7.76694e-05 -0.100737 0.000231806)
(0.000446365 -0.103017 0.501209)
(-0.000107841 -0.100831 0.00022744)
(0.000462647 -0.103539 0.501209)
(0.00366674 -0.1074 -0.497038)
(-0.00344382 -0.106788 -6.25119e-05)
(0.00364012 -0.107824 -0.497051)
(-0.00351383 -0.107073 -5.91597e-05)
(0.000433337 -0.101991 -0.501202)
(-3.99491e-05 -0.100411 -0.000238709)
(0.000444628 -0.102502 -0.501202)
(-6.25333e-05 -0.100594 -0.000235384)
(0.000479768 -0.106791 0.000110207)
(0.000464834 -0.107992 3.83384e-05)
(0.000437337 -0.107037 0.000109399)
(0.00043126 -0.108283 3.66179e-05)
(0.000874145 -0.100457 0.000234089)
(0.000312634 -0.102168 3.97771e-05)
(0.000855496 -0.10064 0.000233429)
(0.000300925 -0.102466 3.80277e-05)
(0.000491954 -0.109438 5.47682e-06)
(0.000491947 -0.109439 -5.49116e-06)
(0.000453167 -0.109761 4.77935e-06)
(0.000453158 -0.109761 -4.79852e-06)
(0.000201814 -0.103047 5.21156e-06)
(0.000201814 -0.103047 -5.31825e-06)
(0.000187533 -0.103363 4.57369e-06)
(0.000187529 -0.103363 -4.60242e-06)
(0.000464727 -0.107992 -3.83602e-05)
(0.000479494 -0.106791 -0.000110274)
(0.000431129 -0.108284 -3.66521e-05)
(0.000437076 -0.107037 -0.000109461)
(0.000312724 -0.102168 -3.97307e-05)
(0.000874344 -0.100457 -0.000234064)
(0.000300992 -0.102465 -3.8055e-05)
(0.00085569 -0.10064 -0.000233484)
(-0.00344569 -0.106788 6.25862e-05)
(0.00366757 -0.107401 0.497035)
(-0.0035157 -0.107073 5.92442e-05)
(0.00364096 -0.107824 0.497048)
(-3.96507e-05 -0.100412 0.000238852)
(0.000434453 -0.101992 0.501201)
(-6.22247e-05 -0.100595 0.000235592)
(0.000445756 -0.102503 0.501201)
(0.0037396 -0.106509 -0.496969)
(-0.00330825 -0.106128 -6.8079e-05)
(0.0037048 -0.106962 -0.496981)
(-0.00337975 -0.106473 -6.54786e-05)
(0.000430877 -0.100963 -0.501194)
(-1.11121e-05 -0.0999244 -0.000244363)
(0.000437315 -0.101479 -0.501193)
(-3.05143e-05 -0.100187 -0.000241439)
(0.000570121 -0.106211 0.000111501)
(0.000541031 -0.107339 4.12613e-05)
(0.000522661 -0.106516 0.000110763)
(0.000501208 -0.107678 3.99419e-05)
(0.000913936 -0.100001 0.000235045)
(0.000339383 -0.101513 4.31263e-05)
(0.000892297 -0.100244 0.000234307)
(0.000325321 -0.101851 4.10985e-05)
(0.000575772 -0.108723 6.7164e-06)
(0.000575846 -0.108723 -6.86948e-06)
(0.000532803 -0.109092 6.17878e-06)
(0.000532755 -0.109093 -6.12326e-06)
(0.000232524 -0.10235 6.2381e-06)
(0.000232653 -0.10235 -6.83642e-06)
(0.000216898 -0.102711 6.08551e-06)
(0.000216832 -0.10271 -5.74437e-06)
(0.000541014 -0.10734 -4.14386e-05)
(0.000569662 -0.106211 -0.000111299)
(0.000500972 -0.107678 -3.98884e-05)
(0.000522536 -0.106516 -0.000110991)
(0.000339472 -0.101513 -4.23561e-05)
(0.000913963 -0.100001 -0.000234606)
(0.000325332 -0.101851 -4.15433e-05)
(0.000892662 -0.100245 -0.000234744)
(-0.00331018 -0.106128 6.82149e-05)
(0.00374038 -0.106509 0.496966)
(-0.00338157 -0.106473 6.55367e-05)
(0.00370564 -0.106963 0.496978)
(-1.08766e-05 -0.0999253 0.000244094)
(0.000431966 -0.100964 0.501193)
(-3.01878e-05 -0.100188 0.000241924)
(0.000438447 -0.10148 0.501193)
(0.00382791 -0.105547 -0.496899)
(-0.0031651 -0.105352 -7.25356e-05)
(0.00378552 -0.106038 -0.496911)
(-0.00324083 -0.105755 -7.04226e-05)
(0.000437155 -0.0999023 -0.501186)
(1.52643e-05 -0.0992909 -0.000248732)
(0.000439177 -0.100438 -0.501185)
(-3.71592e-06 -0.0996255 -0.000246024)
(0.000669684 -0.105509 0.000112186)
(0.000629892 -0.106584 4.38889e-05)
(0.000617595 -0.105876 0.000111709)
(0.000583886 -0.106975 4.26327e-05)
(0.000958004 -0.0994162 0.000235424)
(0.000371229 -0.100768 4.591e-05)
(0.000934207 -0.0997246 0.000234681)
(0.000354672 -0.101153 4.34537e-05)
(0.000669227 -0.107906 7.9479e-06)
(0.00066938 -0.107907 -8.02951e-06)
(0.000621328 -0.108328 7.4281e-06)
(0.000621164 -0.108328 -7.38519e-06)
(0.000266607 -0.101556 7.24589e-06)
(0.000266767 -0.101556 -8.14127e-06)
(0.000249273 -0.101966 7.48278e-06)
(0.00024911 -0.101966 -6.78085e-06)
(0.000629915 -0.106584 -4.3837e-05)
(0.000669089 -0.105509 -0.000112142)
(0.00058362 -0.106975 -4.26913e-05)
(0.000617643 -0.105876 -0.000111917)
(0.000371425 -0.100768 -4.45362e-05)
(0.000957941 -0.0994164 -0.000234783)
(0.000354631 -0.101153 -4.46355e-05)
(0.000934742 -0.099725 -0.000235349)
(-0.00316706 -0.105352 7.25859e-05)
(0.00382866 -0.105547 0.496896)
(-0.00324259 -0.105755 7.05344e-05)
(0.00378636 -0.106038 0.496908)
(1.54476e-05 -0.0992917 0.000248129)
(0.000438229 -0.0999029 0.501185)
(-3.35645e-06 -0.0996264 0.000246915)
(0.000440319 -0.100439 0.501185)
(0.00392956 -0.104497 -0.496826)
(-0.00301318 -0.104457 -7.60182e-05)
(0.00388065 -0.105034 -0.496839)
(-0.00309341 -0.10492 -7.43212e-05)
(0.000451519 -0.0987859 -0.501178)
(4.74171e-05 -0.0985144 -0.000252052)
(0.00044943 -0.0993521 -0.501177)
(2.46967e-05 -0.0989206 -0.000249564)
(0.000777461 -0.104679 0.000112681)
(0.000730856 -0.105714 4.60196e-05)
(0.000721247 -0.105111 0.000112358)
(0.000678887 -0.106164 4.48817e-05)
(0.00100642 -0.0986982 0.000235463)
(0.000408374 -0.0999195 4.81641e-05)
(0.000980301 -0.0990741 0.000234696)
(0.000389237 -0.100358 4.54737e-05)
(0.000773808 -0.106979 9.01506e-06)
(0.000774014 -0.106979 -9.10987e-06)
(0.000720268 -0.107457 8.56188e-06)
(0.000720037 -0.107457 -8.51995e-06)
(0.000304608 -0.100656 8.16405e-06)
(0.000304816 -0.100656 -9.28623e-06)
(0.000285309 -0.10112 8.71019e-06)
(0.000285101 -0.10112 -7.7405e-06)
(0.000730918 -0.105714 -4.59207e-05)
(0.000776776 -0.104679 -0.000112631)
(0.000678592 -0.106164 -4.50434e-05)
(0.000721415 -0.105111 -0.000112515)
(0.000408612 -0.0999194 -4.63973e-05)
(0.00100628 -0.0986985 -0.000234658)
(0.000389142 -0.100357 -4.7135e-05)
(0.000980947 -0.0990746 -0.00023554)
(-0.00301516 -0.104457 7.60544e-05)
(0.0039303 -0.104497 0.496823)
(-0.00309513 -0.104921 7.44712e-05)
(0.0038815 -0.105034 0.496836)
(4.75532e-05 -0.0985152 0.000251225)
(0.000452583 -0.0987864 0.501177)
(2.50562e-05 -0.0989214 0.00025073)
(0.000450578 -0.0993526 0.501177)
(0.00404465 -0.103345 -0.496752)
(-0.00284811 -0.103429 -7.87544e-05)
(0.0039888 -0.103934 -0.496764)
(-0.00293576 -0.10396 -7.73952e-05)
(0.00047416 -0.0975942 -0.50117)
(8.50103e-05 -0.0975914 -0.000254543)
(0.000467773 -0.0982005 -0.501169)
(5.99868e-05 -0.0980715 -0.000252257)
(0.000894432 -0.103713 0.000112994)
(0.00084419 -0.104719 4.77996e-05)
(0.000833352 -0.104214 0.000112735)
(0.000786016 -0.105232 4.67964e-05)
(0.00105968 -0.0978406 0.000235255)
(0.000450956 -0.0989549 4.9996e-05)
(0.00103098 -0.0982871 0.00023446)
(0.000429105 -0.0994526 4.71877e-05)
(0.000890421 -0.10593 9.96414e-06)
(0.000890664 -0.10593 -1.0068e-05)
(0.000830834 -0.10647 9.58088e-06)
(0.000830564 -0.10647 -9.52706e-06)
(0.000346826 -0.0996413 8.99147e-06)
(0.000347067 -0.0996411 -1.02772e-05)
(0.000325436 -0.100164 9.7781e-06)
(0.000325196 -0.100164 -8.61162e-06)
(0.000844287 -0.104719 -4.76761e-05)
(0.000893681 -0.103713 -0.000112934)
(0.000785693 -0.105233 -4.69878e-05)
(0.000833599 -0.104214 -0.000112897)
(0.000451227 -0.0989548 -4.79649e-05)
(0.00105949 -0.097841 -0.000234323)
(0.000428981 -0.0994524 -4.91634e-05)
(0.00103171 -0.0982876 -0.000235443)
(-0.00285012 -0.103429 7.87811e-05)
(0.00404538 -0.103345 0.496749)
(-0.00293747 -0.10396 7.75612e-05)
(0.00398964 -0.103934 0.496761)
(8.51169e-05 -0.0975921 0.000253557)
(0.000475215 -0.0975946 0.501169)
(6.03513e-05 -0.0980723 0.000253613)
(0.000468924 -0.0982009 0.501169)
(0.00417239 -0.102078 -0.496676)
(-0.00267798 -0.102265 -8.08946e-05)
(0.00411054 -0.102726 -0.496689)
(-0.00276423 -0.102864 -7.98093e-05)
(0.00050663 -0.0963087 -0.501162)
(0.000135616 -0.0965154 -0.000256343)
(0.000494884 -0.0969641 -0.501161)
(0.000102051 -0.0970726 -0.000254271)
(0.00102011 -0.102605 0.000113232)
(0.000970457 -0.103587 4.92841e-05)
(0.00095504 -0.103177 0.000113002)
(0.000905805 -0.104171 4.84075e-05)
(0.00111989 -0.0968363 0.000234907)
(0.000499292 -0.0978626 5.1396e-05)
(0.00108733 -0.097357 0.000234025)
(0.000474598 -0.0984255 4.86481e-05)
(0.00101951 -0.104748 1.07977e-05)
(0.00101974 -0.104748 -1.09147e-05)
(0.00095366 -0.105356 1.0481e-05)
(0.000953382 -0.105356 -1.04182e-05)
(0.000393352 -0.0985002 9.71661e-06)
(0.000393578 -0.0985 -1.1144e-05)
(0.00036981 -0.0990873 1.06994e-05)
(0.000369563 -0.0990871 -9.38771e-06)
(0.000970627 -0.103588 -4.91544e-05)
(0.00101935 -0.102606 -0.000113165)
(0.000905443 -0.104171 -4.8615e-05)
(0.000955338 -0.103178 -0.000113171)
(0.000499636 -0.0978625 -4.93481e-05)
(0.00111966 -0.0968367 -0.000233781)
(0.000474437 -0.0984253 -5.07797e-05)
(0.0010881 -0.0973576 -0.000235151)
(-0.00267985 -0.102265 8.09198e-05)
(0.00417311 -0.102078 0.496673)
(-0.0027659 -0.102864 7.99841e-05)
(0.00411138 -0.102726 0.496686)
(0.000135647 -0.0965161 0.000255295)
(0.000507672 -0.0963091 0.501161)
(0.000102387 -0.0970734 0.000255744)
(0.000496029 -0.0969644 0.501161)
(0.00431124 -0.100682 -0.496599)
(-0.00254551 -0.100957 -8.2562e-05)
(0.00424337 -0.101397 -0.496612)
(-0.00261229 -0.10163 -8.16993e-05)
(0.000549864 -0.0949134 -0.501154)
(0.000210352 -0.0952943 -0.000257606)
(0.000532852 -0.0956256 -0.501152)
(0.000165128 -0.0959218 -0.000255744)
(0.00115366 -0.101346 0.000113324)
(0.00111027 -0.102309 5.05063e-05)
(0.00108417 -0.101995 0.000113166)
(0.00103886 -0.102967 4.97559e-05)
(0.00118803 -0.0956789 0.000234479)
(0.00055307 -0.0966318 5.25106e-05)
(0.00115175 -0.096277 0.000233436)
(0.00052581 -0.0972653 4.99191e-05)
(0.00116147 -0.103423 1.15303e-05)
(0.00116168 -0.103423 -1.16555e-05)
(0.00108912 -0.104104 1.12731e-05)
(0.00108888 -0.104104 -1.12004e-05)
(0.000444338 -0.0972228 1.03678e-05)
(0.000444545 -0.0972226 -1.18857e-05)
(0.000418522 -0.0978793 1.15016e-05)
(0.000418307 -0.0978791 -1.00762e-05)
(0.0011105 -0.10231 -5.03778e-05)
(0.00115288 -0.101346 -0.000113249)
(0.00103843 -0.102968 -4.99644e-05)
(0.00108449 -0.101995 -0.000113343)
(0.000553472 -0.0966317 -5.04966e-05)
(0.00118779 -0.0956795 -0.000233195)
(0.000525586 -0.0972651 -5.20196e-05)
(0.00115253 -0.0962775 -0.000234747)
(-0.00254726 -0.100957 8.2588e-05)
(0.00431195 -0.100682 0.496596)
(-0.00261374 -0.10163 8.18753e-05)
(0.00424421 -0.101397 0.496609)
(0.000210321 -0.095295 0.000256524)
(0.000550901 -0.0949137 0.501153)
(0.000165378 -0.0959225 0.000257259)
(0.000533984 -0.0956258 0.501152)
(0.00446461 -0.0991441 -0.496519)
(-0.00240573 -0.0994932 -8.38472e-05)
(0.0043893 -0.0999312 -0.496531)
(-0.00248144 -0.100245 -8.31658e-05)
(0.000601027 -0.0933938 -0.501145)
(0.000293992 -0.093935 -0.000258429)
(0.000580154 -0.0941698 -0.501144)
(0.000246732 -0.0946324 -0.000256752)
(0.00129923 -0.0999256 0.000113364)
(0.00126391 -0.100874 5.15101e-05)
(0.00122352 -0.100656 0.000113205)
(0.00118566 -0.101612 5.08662e-05)
(0.00126145 -0.094362 0.000234027)
(0.000611984 -0.0952521 5.34015e-05)
(0.00122282 -0.0950407 0.00023287)
(0.000582233 -0.0959613 5.09577e-05)
(0.00131651 -0.101943 1.21728e-05)
(0.00131671 -0.101944 -1.23029e-05)
(0.00123758 -0.102703 1.19654e-05)
(0.00123737 -0.102703 -1.18864e-05)
(0.000499859 -0.0957998 1.09465e-05)
(0.000500053 -0.0957997 -1.25182e-05)
(0.000471748 -0.0965302 1.21862e-05)
(0.000471563 -0.0965301 -1.06912e-05)
(0.00126418 -0.100875 -5.13862e-05)
(0.00129845 -0.0999257 -0.000113283)
(0.00118518 -0.101612 -5.10705e-05)
(0.00122385 -0.100656 -0.000113386)
(0.000612428 -0.095252 -5.14322e-05)
(0.00126122 -0.0943626 -0.000232637)
(0.000581964 -0.0959612 -5.30164e-05)
(0.00122362 -0.0950413 -0.000234307)
(-0.00240751 -0.0994933 8.3875e-05)
(0.00446531 -0.0991439 0.496516)
(-0.00248289 -0.100245 8.33424e-05)
(0.00439012 -0.0999311 0.496528)
(0.000293972 -0.0939357 0.000257331)
(0.000602069 -0.093394 0.501144)
(0.000246962 -0.0946331 0.000258292)
(0.000581286 -0.09417 0.501144)
(0.00463245 -0.0974544 -0.496438)
(-0.00224231 -0.0978681 -8.48224e-05)
(0.00454996 -0.0983184 -0.496451)
(-0.00232976 -0.0987009 -8.42895e-05)
(0.000659144 -0.0917362 -0.501137)
(0.000376982 -0.0924288 -0.000258884)
(0.000634792 -0.0925828 -0.501135)
(0.000330136 -0.0932007 -0.000257373)
(0.00145753 -0.0983384 0.000113464)
(0.00143089 -0.0992728 5.23388e-05)
(0.00137553 -0.099153 0.000113263)
(0.00134613 -0.100095 5.1784e-05)
(0.00133913 -0.0928781 0.000233525)
(0.000675729 -0.0937135 5.41068e-05)
(0.00129843 -0.0936412 0.000232312)
(0.000643668 -0.0945033 5.17998e-05)
(0.00148502 -0.100301 1.27374e-05)
(0.00148522 -0.100301 -1.287e-05)
(0.00139931 -0.101143 1.2571e-05)
(0.00139913 -0.101143 -1.24888e-05)
(0.00056008 -0.0942221 1.14579e-05)
(0.000560266 -0.0942219 -1.30582e-05)
(0.000529579 -0.0950309 1.27701e-05)
(0.000529423 -0.0950308 -1.12362e-05)
(0.00143118 -0.0992733 -5.22212e-05)
(0.00145674 -0.0983385 -0.00011338)
(0.00134561 -0.100095 -5.1982e-05)
(0.00137585 -0.0991532 -0.000113446)
(0.000676203 -0.0937135 -5.21881e-05)
(0.0013389 -0.0928787 -0.000232065)
(0.000643369 -0.0945032 -5.38098e-05)
(0.00129924 -0.0936418 -0.000233832)
(-0.00224413 -0.0978682 8.48522e-05)
(0.00463314 -0.0974542 0.496435)
(-0.00233125 -0.098701 8.44656e-05)
(0.00455077 -0.0983182 0.496448)
(0.000376976 -0.0924293 0.00025778)
(0.000660191 -0.0917363 0.501136)
(0.000330383 -0.0932013 0.000258924)
(0.000635926 -0.0925829 0.501135)
(0.00481267 -0.0956058 -0.496356)
(-0.00206389 -0.0960875 -8.55389e-05)
(0.00472431 -0.09655 -0.496368)
(-0.0021565 -0.0969957 -8.5132e-05)
(0.000723316 -0.0899296 -0.501128)
(0.000473012 -0.0907668 -0.000259022)
(0.000695986 -0.0908519 -0.501126)
(0.000416011 -0.0916178 -0.000257662)
(0.00162706 -0.0965799 0.0001137)
(0.00161065 -0.097497 5.30282e-05)
(0.0015398 -0.0974806 0.000113418)
(0.00151958 -0.0984069 5.25447e-05)
(0.00142104 -0.0912213 0.000232945)
(0.000743976 -0.0920083 5.46608e-05)
(0.0013783 -0.0920715 0.000231721)
(0.000709736 -0.0928823 5.24773e-05)
(0.0016668 -0.0984856 1.32331e-05)
(0.00166701 -0.098486 -1.33664e-05)
(0.00157451 -0.0994152 1.31013e-05)
(0.00157437 -0.0994156 -1.30182e-05)
(0.000624966 -0.0924811 1.1907e-05)
(0.00062515 -0.092481 -1.35191e-05)