/*--------------------------------*- C++ -*----------------------------------*\
  =========                 |
  \\      /  F ield         | OpenFOAM: The Open Source CFD Toolbox
   \\    /   O peration     | Website:  https://openfoam.org
    \\  /    A nd           | Version:  9
     \\/     M anipulation  |
\*---------------------------------------------------------------------------*/
FoamFile
{
    format      ascii;
    class       volScalarField;
    location    "4.1";
    object      p;
}
// * * * * * * * * * * * * * * * * * * * * * * * * * * * * * * * * * * * * * //

dimensions      [0 2 -2 0 0 0 0];

internalField   nonuniform List<scalar> 
36360
(
20.1207
20.0857
20.1143
20.0899
20.0957
20.104
20.097
20.1001
20.0994
20.1003
20.0998
20.1003
20.0991
20.0995
20.0987
20.0991
20.1002
20.1002
20.1003
20.1003
20.0995
20.0995
20.0993
20.0993
20.1003
20.0994
20.1003
20.0998
20.0995
20.0991
20.0991
20.0987
20.0857
20.1206
20.0899
20.1143
20.104
20.0957
20.1001
20.097
20.1104
20.0951
20.1155
20.0908
20.0785
20.1213
20.0877
20.1126
20.0996
20.0996
20.0994
20.1001
20.1
20.0988
20.0995
20.0992
20.0997
20.0997
20.1001
20.1001
20.0988
20.0988
20.0993
20.0993
20.0996
20.0996
20.1001
20.0994
20.0988
20.1
20.0992
20.0995
20.0951
20.1104
20.0908
20.1155
20.1213
20.0785
20.1126
20.0877
20.1
20.1032
20.1052
20.0993
20.0601
20.138
20.0692
20.1299
20.1018
20.0989
20.1004
20.0992
20.1028
20.0983
20.1012
20.0984
20.0986
20.0986
20.0992
20.0992
20.0979
20.0979
20.0983
20.0983
20.0989
20.1018
20.0992
20.1004
20.0983
20.1028
20.0984
20.1012
20.1032
20.1
20.0993
20.1052
20.1379
20.0602
20.1299
20.0693
20.0899
20.1096
20.0948
20.1067
20.0432
20.1517
20.0514
20.1452
20.1054
20.0989
20.1035
20.0988
20.1069
20.0984
20.1047
20.0982
20.0976
20.0976
20.0981
20.0981
20.0971
20.0971
20.0975
20.0975
20.0989
20.1054
20.0988
20.1035
20.0984
20.1068
20.0982
20.1047
20.1096
20.0899
20.1067
20.0948
20.1517
20.0432
20.1452
20.0514
20.0809
20.1142
20.0853
20.1121
20.0284
20.1623
20.0355
20.1573
20.1093
20.0995
20.1074
20.0991
20.1114
20.099
20.1091
20.0986
20.0969
20.0969
20.0972
20.0972
20.0965
20.0966
20.0968
20.0968
20.0995
20.1093
20.0991
20.1073
20.099
20.1112
20.0986
20.1091
20.1141
20.0809
20.1121
20.0853
20.1622
20.0284
20.1573
20.0355
20.0731
20.1172
20.0769
20.1158
20.0157
20.1702
20.0218
20.1665
20.1131
20.1005
20.1112
20.1
20.1155
20.1
20.1135
20.0994
20.0965
20.0965
20.0967
20.0967
20.0963
20.0963
20.0964
20.0963
20.1005
20.1131
20.1
20.1112
20.1
20.1155
20.0995
20.1135
20.1171
20.0731
20.1158
20.0769
20.1701
20.0158
20.1665
20.0218
20.0664
20.119
20.0696
20.1182
20.0051
20.176
20.0102
20.1733
20.1164
20.1017
20.1148
20.1011
20.1193
20.1012
20.1175
20.1006
20.0964
20.0964
20.0964
20.0964
20.0963
20.0962
20.0962
20.0962
20.1017
20.1164
20.1011
20.1148
20.1012
20.1192
20.1006
20.1175
20.119
20.0664
20.1182
20.0696
20.1759
20.0052
20.1732
20.0103
20.0607
20.1201
20.0634
20.1196
19.9962
20.1802
20.0005
20.1782
20.1192
20.103
20.1179
20.1024
20.1224
20.1024
20.1209
20.1018
20.0966
20.0966
20.0965
20.0965
20.0965
20.0965
20.0963
20.0963
20.103
20.1192
20.1024
20.1179
20.1024
20.1224
20.1018
20.1209
20.1201
20.0607
20.1196
20.0635
20.1802
19.9963
20.1782
20.0006
20.0559
20.1206
20.0582
20.1204
19.9888
20.1832
19.9924
20.1818
20.1215
20.1042
20.1204
20.1036
20.1249
20.1036
20.1237
20.103
20.097
20.097
20.0968
20.0968
20.0968
20.0968
20.0966
20.0966
20.1042
20.1215
20.1036
20.1204
20.1036
20.1249
20.103
20.1237
20.1206
20.0559
20.1204
20.0582
20.1832
19.9889
20.1818
19.9924
20.0518
20.1207
20.0538
20.1207
19.9827
20.1854
19.9856
20.1844
20.1233
20.1053
20.1224
20.1048
20.1269
20.1047
20.126
20.1041
20.0974
20.0974
20.0972
20.0972
20.0973
20.0973
20.097
20.097
20.1053
20.1233
20.1048
20.1224
20.1046
20.1269
20.1041
20.126
20.1207
20.0518
20.1207
20.0538
20.1853
19.9827
20.1844
19.9857
20.0483
20.1206
20.05
20.1207
19.9775
20.1869
19.98
20.1862
20.1247
20.1063
20.124
20.1058
20.1285
20.1056
20.1278
20.1051
20.0979
20.0979
20.0976
20.0976
20.0978
20.0978
20.0975
20.0975
20.1063
20.1247
20.1058
20.124
20.1056
20.1285
20.1051
20.1277
20.1206
20.0483
20.1207
20.05
20.1868
19.9776
20.1862
19.9801
20.0454
20.1203
20.0468
20.1205
19.9733
20.1878
19.9753
20.1874
20.1258
20.107
20.1253
20.1067
20.1296
20.1063
20.1291
20.106
20.0984
20.0984
20.0981
20.0981
20.0982
20.0982
20.098
20.098
20.107
20.1257
20.1067
20.1252
20.1063
20.1296
20.106
20.1291
20.1203
20.0454
20.1205
20.0468
20.1878
19.9734
20.1874
19.9754
20.0428
20.1199
20.044
20.1201
19.9698
20.1884
19.9714
20.1881
20.1265
20.1077
20.1262
20.1074
20.1305
20.107
20.1301
20.1067
20.0988
20.0988
20.0986
20.0986
20.0986
20.0986
20.0984
20.0984
20.1077
20.1265
20.1073
20.1261
20.1069
20.1304
20.1066
20.13
20.1199
20.0428
20.1201
20.044
20.1883
19.9698
20.1881
19.9715
20.0407
20.1195
20.0417
20.1197
19.9668
20.1886
19.9682
20.1885
20.127
20.1082
20.1268
20.1079
20.131
20.1074
20.1308
20.1072
20.0992
20.0992
20.099
20.099
20.099
20.099
20.0988
20.0988
20.1081
20.127
20.1079
20.1268
20.1074
20.131
20.1072
20.1307
20.1195
20.0407
20.1197
20.0417
20.1886
19.9669
20.1885
19.9683
20.0388
20.119
20.0397
20.1193
19.9645
20.1886
19.9656
20.1887
20.1273
20.1085
20.1272
20.1083
20.1313
20.1077
20.1311
20.1076
20.0995
20.0995
20.0994
20.0994
20.0992
20.0992
20.0991
20.0991
20.1085
20.1272
20.1083
20.1272
20.1077
20.1312
20.1076
20.1311
20.119
20.0389
20.1192
20.0397
20.1886
19.9645
20.1886
19.9657
20.0373
20.1185
20.038
20.1188
19.9625
20.1884
19.9634
20.1885
20.1273
20.1087
20.1273
20.1086
20.1313
20.1079
20.1313
20.1078
20.0997
20.0997
20.0996
20.0996
20.0994
20.0994
20.0993
20.0993
20.1087
20.1273
20.1086
20.1273
20.1079
20.1313
20.1078
20.1313
20.1185
20.0373
20.1188
20.038
20.1884
19.9626
20.1885
19.9635
20.0359
20.118
20.0366
20.1183
19.961
20.188
19.9617
20.1882
20.1272
20.1088
20.1272
20.1087
20.1312
20.1079
20.1313
20.1079
20.0999
20.0999
20.0998
20.0998
20.0995
20.0995
20.0995
20.0995
20.1088
20.1271
20.1087
20.1272
20.1079
20.1312
20.1079
20.1313
20.118
20.036
20.1182
20.0366
20.188
19.9611
20.1882
19.9618
20.0348
20.1175
20.0354
20.1177
19.9598
20.1875
19.9603
20.1878
20.1269
20.1087
20.127
20.1088
20.1309
20.1078
20.1311
20.1079
20.0999
20.0999
20.0999
20.0999
20.0994
20.0994
20.0995
20.0995
20.1087
20.1269
20.1088
20.127
20.1078
20.1309
20.1079
20.1311
20.1175
20.0349
20.1177
20.0354
20.1874
19.9598
20.1877
19.9604
20.0339
20.117
20.0343
20.1172
19.9589
20.1868
19.9593
20.1872
20.1266
20.1086
20.1268
20.1087
20.1305
20.1076
20.1308
20.1077
20.0999
20.0999
20.0999
20.0999
20.0993
20.0993
20.0994
20.0994
20.1086
20.1266
20.1087
20.1267
20.1076
20.1305
20.1077
20.1307
20.1169
20.0339
20.1172
20.0344
20.1868
19.9589
20.1871
19.9594
20.0332
20.1164
20.0335
20.1167
19.9582
20.1861
19.9585
20.1865
20.1262
20.1084
20.1264
20.1085
20.13
20.1073
20.1303
20.1075
20.0998
20.0998
20.0998
20.0998
20.0991
20.0991
20.0992
20.0992
20.1084
20.1261
20.1085
20.1264
20.1073
20.13
20.1075
20.1303
20.1164
20.0332
20.1167
20.0335
20.186
19.9583
20.1864
19.9586
20.0326
20.1159
20.0329
20.1162
19.9578
20.1852
19.958
20.1856
20.1257
20.1082
20.1259
20.1083
20.1294
20.107
20.1297
20.1072
20.0996
20.0996
20.0997
20.0997
20.0988
20.0988
20.099
20.099
20.1081
20.1256
20.1083
20.1259
20.107
20.1294
20.1072
20.1297
20.1159
20.0326
20.1162
20.0329
20.1852
19.9579
20.1856
19.958
20.0322
20.1155
20.0324
20.1157
19.9576
20.1843
19.9577
20.1847
20.1251
20.1078
20.1254
20.108
20.1287
20.1065
20.1291
20.1068
20.0994
20.0994
20.0995
20.0995
20.0985
20.0985
20.0987
20.0987
20.1078
20.1251
20.108
20.1254
20.1065
20.1287
20.1068
20.1291
20.1155
20.0322
20.1157
20.0324
20.1842
19.9577
20.1847
19.9578
20.0319
20.115
20.032
20.1152
19.9577
20.1833
19.9576
20.1838
20.1246
20.1075
20.1248
20.1077
20.128
20.1061
20.1284
20.1063
20.0992
20.0992
20.0993
20.0993
20.0982
20.0982
20.0983
20.0983
20.1075
20.1245
20.1077
20.1248
20.106
20.128
20.1063
20.1284
20.115
20.032
20.1152
20.0321
20.1832
19.9578
20.1837
19.9577
20.0318
20.1146
20.0319
20.1148
19.958
20.1822
19.9578
20.1828
20.1239
20.1071
20.1243
20.1073
20.1272
20.1055
20.1276
20.1058
20.099
20.099
20.0991
20.0991
20.0978
20.0978
20.098
20.098
20.1071
20.1239
20.1073
20.1242
20.1055
20.1272
20.1058
20.1276
20.1146
20.0319
20.1148
20.0319
20.1822
19.958
20.1827
19.9579
20.0319
20.1142
20.0319
20.1144
19.9585
20.1811
19.9582
20.1817
20.1233
20.1068
20.1236
20.107
20.1263
20.105
20.1268
20.1053
20.0988
20.0988
20.0989
20.0989
20.0974
20.0974
20.0976
20.0976
20.1068
20.1233
20.107
20.1236
20.105
20.1263
20.1053
20.1267
20.1142
20.032
20.1144
20.0319
20.1811
19.9586
20.1816
19.9583
20.0322
20.1139
20.032
20.1141
19.9593
20.18
19.9588
20.1805
20.1227
20.1065
20.123
20.1066
20.1255
20.1045
20.1259
20.1047
20.0987
20.0987
20.0988
20.0988
20.0971
20.0971
20.0972
20.0972
20.1065
20.1227
20.1066
20.123
20.1045
20.1254
20.1047
20.1259
20.1139
20.0322
20.1141
20.0321
20.1799
19.9593
20.1805
19.9589
20.0327
20.1136
20.0324
20.1138
19.9603
20.1788
19.9597
20.1794
20.1221
20.1062
20.1224
20.1063
20.1246
20.104
20.125
20.1042
20.0986
20.0986
20.0987
20.0987
20.0968
20.0968
20.0969
20.0969
20.1062
20.1221
20.1063
20.1224
20.104
20.1246
20.1042
20.125
20.1136
20.0327
20.1138
20.0324
20.1788
19.9603
20.1793
19.9598
20.0334
20.1134
20.033
20.1135
19.9616
20.1776
19.9609
20.1782
20.1216
20.106
20.1218
20.1061
20.1237
20.1036
20.1241
20.1038
20.0986
20.0986
20.0986
20.0986
20.0966
20.0966
20.0967
20.0967
20.106
20.1215
20.1061
20.1218
20.1036
20.1237
20.1038
20.1241
20.1134
20.0334
20.1135
20.033
20.1775
19.9616
20.1781
19.961
20.0343
20.1132
20.0338
20.1133
19.9632
20.1763
19.9623
20.1769
20.121
20.1058
20.1213
20.1059
20.1229
20.1032
20.1233
20.1034
20.0988
20.0988
20.0987
20.0987
20.0965
20.0965
20.0965
20.0965
20.1058
20.121
20.1059
20.1213
20.1032
20.1228
20.1034
20.1233
20.1132
20.0343
20.1133
20.0338
20.1763
19.9632
20.1769
19.9624
20.0354
20.1131
20.0348
20.1131
19.9651
20.175
19.9641
20.1757
20.1206
20.1058
20.1208
20.1058
20.122
20.103
20.1224
20.1031
20.099
20.099
20.0989
20.0989
20.0965
20.0965
20.0965
20.0965
20.1058
20.1205
20.1058
20.1208
20.103
20.122
20.1031
20.1224
20.1131
20.0354
20.1131
20.0348
20.175
19.9651
20.1757
19.9642
20.0368
20.113
20.0361
20.113
19.9673
20.1737
19.9662
20.1744
20.1201
20.1059
20.1203
20.1058
20.1213
20.1028
20.1217
20.1029
20.0994
20.0994
20.0992
20.0992
20.0967
20.0967
20.0966
20.0966
20.1059
20.1201
20.1058
20.1203
20.1028
20.1213
20.1029
20.1216
20.113
20.0368
20.113
20.0361
20.1737
19.9674
20.1744
19.9662
20.0384
20.1129
20.0375
20.113
19.9699
20.1724
19.9686
20.1731
20.1198
20.1061
20.1199
20.106
20.1206
20.1029
20.1209
20.1028
20.0999
20.0999
20.0996
20.0996
20.097
20.097
20.0968
20.0968
20.1061
20.1198
20.106
20.1199
20.1029
20.1206
20.1028
20.1209
20.1129
20.0384
20.113
20.0376
20.1723
19.97
20.173
19.9687
20.0402
20.1129
20.0393
20.1129
19.973
20.1709
19.9714
20.1717
20.1195
20.1064
20.1196
20.1062
20.12
20.1031
20.1203
20.1029
20.1006
20.1006
20.1002
20.1002
20.0975
20.0975
20.0973
20.0973
20.1064
20.1195
20.1062
20.1196
20.1031
20.12
20.1029
20.1203
20.1129
20.0403
20.1129
20.0393
20.1709
19.973
20.1716
19.9715
20.0424
20.1129
20.0413
20.1129
19.9764
20.1694
19.9746
20.1702
20.1193
20.1069
20.1194
20.1067
20.1196
20.1034
20.1198
20.1032
20.1014
20.1014
20.101
20.101
20.0982
20.0982
20.0979
20.0979
20.1069
20.1193
20.1066
20.1194
20.1034
20.1195
20.1032
20.1198
20.1129
20.0424
20.1129
20.0413
20.1694
19.9765
20.1702
19.9747
20.0448
20.1129
20.0435
20.1129
19.9803
20.1677
19.9783
20.1686
20.1192
20.1076
20.1192
20.1072
20.1192
20.104
20.1194
20.1037
20.1024
20.1024
20.1019
20.1019
20.0991
20.0991
20.0986
20.0986
20.1076
20.1192
20.1072
20.1192
20.104
20.1192
20.1037
20.1194
20.1129
20.0448
20.1129
20.0435
20.1677
19.9804
20.1686
19.9783
20.0474
20.1128
20.0461
20.1128
19.9848
20.1658
19.9825
20.1668
20.1193
20.1083
20.1192
20.1079
20.1191
20.1048
20.1191
20.1044
20.1035
20.1035
20.1029
20.1029
20.1001
20.1001
20.0996
20.0996
20.1083
20.1192
20.1079
20.1192
20.1048
20.119
20.1044
20.1191
20.1128
20.0474
20.1128
20.0461
20.1658
19.9848
20.1668
19.9825
20.0502
20.1128
20.0488
20.1128
19.9899
20.1635
19.9872
20.1647
20.1194
20.1093
20.1193
20.1088
20.119
20.1057
20.119
20.1052
20.1047
20.1047
20.104
20.104
20.1013
20.1013
20.1007
20.1007
20.1093
20.1194
20.1088
20.1193
20.1057
20.119
20.1052
20.119
20.1128
20.0502
20.1128
20.0488
20.1635
19.99
20.1647
19.9873
20.0523
20.1135
20.0515
20.1129
19.9961
20.1604
19.9929
20.1621
20.1196
20.1104
20.1195
20.1098
20.1191
20.1068
20.119
20.1063
20.106
20.106
20.1053
20.1053
20.1026
20.1026
20.1019
20.1019
20.1103
20.1196
20.1098
20.1195
20.1068
20.1191
20.1063
20.119
20.1135
20.0524
20.1129
20.0515
20.1604
19.9961
20.1621
19.9929
20.0542
20.1142
20.0522
20.1151
20.0032
20.1562
19.9996
20.1585
20.1205
20.1117
20.12
20.111
20.1196
20.1082
20.1193
20.1075
20.1074
20.1074
20.1067
20.1067
20.1041
20.1041
20.1033
20.1033
20.1117
20.1205
20.111
20.12
20.1082
20.1196
20.1075
20.1193
20.1142
20.0542
20.1151
20.0522
20.1562
20.0033
20.1585
19.9996
20.1417
20.0691
20.1255
20.0801
20.1342
20.0735
20.1204
20.0828
20.0954
20.0999
20.0979
20.1001
20.097
20.0998
20.0983
20.0995
20.1001
20.1001
20.1001
20.1001
20.0998
20.0998
20.0995
20.0995
20.1
20.0954
20.1001
20.0979
20.0998
20.097
20.0995
20.0983
20.0691
20.1417
20.0801
20.1255
20.0735
20.1342
20.0828
20.1203
20.1375
20.0772
20.1391
20.0739
20.13
20.0801
20.1321
20.0772
20.0926
20.0987
20.0939
20.0995
20.0956
20.0992
20.0962
20.0996
20.0997
20.0997
20.1
20.1
20.0995
20.0995
20.0998
20.0998
20.0987
20.0926
20.0995
20.0939
20.0992
20.0956
20.0996
20.0963
20.0772
20.1375
20.0739
20.1391
20.0801
20.13
20.0772
20.1321
20.1349
20.0812
20.1363
20.0795
20.1253
20.0845
20.1278
20.0825
20.0924
20.0975
20.0922
20.0981
20.0961
20.0984
20.0956
20.0987
20.0987
20.0987
20.0993
20.0993
20.0987
20.0987
20.0991
20.0991
20.0975
20.0924
20.0981
20.0922
20.0984
20.0961
20.0987
20.0956
20.0812
20.1349
20.0795
20.1362
20.0845
20.1253
20.0825
20.1278
20.1324
20.0829
20.1336
20.0823
20.1205
20.087
20.1229
20.086
20.0936
20.0971
20.0929
20.0972
20.0981
20.0982
20.097
20.0982
20.0977
20.0977
20.0982
20.0982
20.0977
20.0977
20.0982
20.0982
20.0971
20.0936
20.0972
20.0929
20.0982
20.0981
20.0982
20.097
20.0829
20.1324
20.0823
20.1336
20.087
20.1205
20.086
20.1229
20.1303
20.0832
20.1313
20.0832
20.1162
20.0882
20.1183
20.0878
20.0951
20.0973
20.0943
20.0971
20.1007
20.0986
20.0994
20.0984
20.0969
20.0969
20.0973
20.0973
20.097
20.097
20.0973
20.0973
20.0973
20.0951
20.0971
20.0943
20.0986
20.1007
20.0984
20.0994
20.0832
20.1303
20.0832
20.1313
20.0882
20.1161
20.0878
20.1183
20.1284
20.0826
20.1293
20.083
20.1123
20.0884
20.1142
20.0884
20.0965
20.0979
20.0959
20.0976
20.1032
20.0995
20.102
20.099
20.0966
20.0966
20.0967
20.0967
20.0967
20.0967
20.0968
20.0968
20.0979
20.0965
20.0976
20.0959
20.0994
20.1031
20.099
20.102
20.0826
20.1284
20.083
20.1293
20.0884
20.1123
20.0884
20.1141
20.1267
20.0817
20.1275
20.0822
20.1089
20.0881
20.1105
20.0883
20.0977
20.0988
20.0972
20.0983
20.1052
20.1005
20.1042
20.1
20.0966
20.0966
20.0965
20.0965
20.0967
20.0967
20.0966
20.0966
20.0988
20.0977
20.0983
20.0972
20.1005
20.1051
20.1
20.1042
20.0817
20.1267
20.0822
20.1275
20.0881
20.1089
20.0883
20.1105
20.1252
20.0805
20.1259
20.0811
20.106
20.0875
20.1074
20.0878
20.0986
20.0997
20.0982
20.0992
20.1067
20.1016
20.106
20.101
20.0969
20.0969
20.0967
20.0967
20.0969
20.0969
20.0968
20.0968
20.0996
20.0986
20.0992
20.0982
20.1016
20.1067
20.101
20.106
20.0805
20.1252
20.0811
20.1259
20.0875
20.1059
20.0878
20.1074
20.1238
20.0793
20.1245
20.0799
20.1034
20.0866
20.1046
20.0871
20.0992
20.1005
20.0989
20.1001
20.108
20.1027
20.1074
20.1021
20.0973
20.0973
20.0971
20.0971
20.0974
20.0974
20.0971
20.0971
20.1005
20.0992
20.1001
20.0989
20.1027
20.108
20.1021
20.1074
20.0793
20.1238
20.0799
20.1245
20.0866
20.1034
20.0871
20.1046
20.1225
20.0781
20.1231
20.0787
20.1011
20.0857
20.1022
20.0862
20.0997
20.1014
20.0995
20.101
20.1089
20.1037
20.1085
20.1032
20.0979
20.0979
20.0976
20.0976
20.0979
20.0979
20.0977
20.0977
20.1013
20.0997
20.1009
20.0995
20.1037
20.1089
20.1032
20.1085
20.0781
20.1225
20.0787
20.1231
20.0857
20.1011
20.0862
20.1022
20.1213
20.077
20.1219
20.0776
20.0992
20.0848
20.1001
20.0852
20.0999
20.1021
20.0998
20.1017
20.1095
20.1046
20.1092
20.1041
20.0985
20.0985
20.0982
20.0982
20.0985
20.0985
20.0982
20.0982
20.1021
20.0999
20.1017
20.0998
20.1046
20.1095
20.1041
20.1092
20.077
20.1213
20.0776
20.1219
20.0848
20.0991
20.0853
20.1001
20.1202
20.076
20.1207
20.0765
20.0974
20.0839
20.0982
20.0843
20.1
20.1027
20.0999
20.1024
20.1099
20.1053
20.1097
20.105
20.0991
20.0991
20.0988
20.0988
20.0991
20.0991
20.0988
20.0988
20.1027
20.1
20.1024
20.0999
20.1053
20.1099
20.1049
20.1097
20.076
20.1202
20.0765
20.1207
20.0839
20.0974
20.0843
20.0982
20.1191
20.0751
20.1197
20.0755
20.0958
20.083
20.0966
20.0834
20.1
20.1033
20.1
20.103
20.1101
20.1059
20.11
20.1056
20.0996
20.0996
20.0994
20.0994
20.0996
20.0996
20.0993
20.0993
20.1033
20.1
20.103
20.1
20.1059
20.1101
20.1057
20.1101
20.0751
20.1191
20.0756
20.1196
20.083
20.0958
20.0835
20.0966
20.1181
20.0743
20.1186
20.0747
20.0944
20.0822
20.0951
20.0826
20.1
20.1037
20.1
20.1035
20.1103
20.1064
20.1102
20.1062
20.1001
20.1001
20.0999
20.0999
20.1
20.1
20.0998
20.0998
20.1037
20.1
20.1035
20.1
20.1064
20.1103
20.1062
20.1102
20.0743
20.1181
20.0747
20.1186
20.0822
20.0944
20.0826
20.0951
20.1172
20.0735
20.1177
20.0739
20.0932
20.0815
20.0938
20.0818
20.0998
20.104
20.0999
20.1038
20.1104
20.1068
20.1103
20.1066
20.1005
20.1004
20.1003
20.1003
20.1003
20.1003
20.1002
20.1002
20.104
20.0999
20.1039
20.0999
20.1067
20.1104
20.1066
20.1103
20.0735
20.1172
20.0739
20.1176
20.0815
20.0932
20.0818
20.0938
20.1163
20.0728
20.1168
20.0731
20.0921
20.0808
20.0926
20.0811
20.0997
20.1042
20.0998
20.1041
20.1104
20.107
20.1104
20.1069
20.1007
20.1007
20.1006
20.1006
20.1006
20.1006
20.1005
20.1005
20.1042
20.0997
20.1041
20.0998
20.107
20.1104
20.1069
20.1104
20.0728
20.1163
20.0731
20.1167
20.0808
20.092
20.0811
20.0926
20.1155
20.0722
20.1159
20.0725
20.0911
20.0802
20.0915
20.0805
20.0996
20.1044
20.0997
20.1043
20.1104
20.1071
20.1104
20.1071
20.101
20.101
20.1009
20.1009
20.1008
20.1008
20.1007
20.1007
20.1044
20.0996
20.1043
20.0997
20.1071
20.1104
20.1071
20.1104
20.0722
20.1155
20.0725
20.1159
20.0802
20.091
20.0805
20.0915
20.1148
20.0717
20.1151
20.0719
20.0902
20.0796
20.0906
20.0799
20.0995
20.1044
20.0995
20.1044
20.1103
20.1072
20.1104
20.1072
20.1011
20.1011
20.101
20.101
20.1009
20.1009
20.1008
20.1008
20.1044
20.0995
20.1044
20.0995
20.1072
20.1103
20.1071
20.1104
20.0717
20.1147
20.072
20.1151
20.0796
20.0901
20.0799
20.0906
20.1141
20.0713
20.1144
20.0715
20.0894
20.0791
20.0898
20.0794
20.0993
20.1045
20.0994
20.1045
20.1102
20.1071
20.1102
20.1072
20.1012
20.1012
20.1012
20.1011
20.1009
20.1009
20.1009
20.1009
20.1045
20.0993
20.1045
20.0994
20.1071
20.1102
20.1072
20.1102
20.0713
20.114
20.0715
20.1144
20.0792
20.0894
20.0794
20.0897
20.1135
20.0709
20.1138
20.0711
20.0887
20.0787
20.089
20.0789
20.0991
20.1045
20.0992
20.1045
20.11
20.107
20.1101
20.1071
20.1012
20.1012
20.1012
20.1012
20.1009
20.1009
20.1009
20.1009
20.1044
20.0991
20.1045
20.0992
20.107
20.11
20.1071
20.1101
20.0709
20.1134
20.0711
20.1137
20.0787
20.0887
20.0789
20.089
20.1129
20.0706
20.1132
20.0708
20.0881
20.0784
20.0884
20.0786
20.0989
20.1044
20.099
20.1044
20.1099
20.1069
20.11
20.107
20.1012
20.1012
20.1012
20.1012
20.1008
20.1008
20.1008
20.1008
20.1044
20.0989
20.1044
20.099
20.1069
20.1099
20.107
20.1099
20.0707
20.1129
20.0708
20.1131
20.0784
20.0881
20.0786
20.0884
20.1125
20.0705
20.1127
20.0705
20.0876
20.0781
20.0879
20.0782
20.0988
20.1043
20.0988
20.1044
20.1097
20.1067
20.1098
20.1068
20.1012
20.1012
20.1012
20.1012
20.1007
20.1007
20.1008
20.1008
20.1043
20.0988
20.1044
20.0988
20.1067
20.1096
20.1068
20.1098
20.0705
20.1124
20.0706
20.1126
20.0781
20.0876
20.0783
20.0878
20.1121
20.0704
20.1123
20.0704
20.0873
20.0779
20.0875
20.078
20.0987
20.1043
20.0987
20.1043
20.1094
20.1065
20.1095
20.1066
20.1012
20.1012
20.1012
20.1012
20.1006
20.1006
20.1007
20.1007
20.1043
20.0987
20.1043
20.0987
20.1065
20.1094
20.1066
20.1095
20.0704
20.112
20.0704
20.1122
20.0779
20.0873
20.078
20.0874
20.1118
20.0704
20.1119
20.0704
20.0871
20.0778
20.0872
20.0778
20.0986
20.1042
20.0986
20.1042
20.1092
20.1064
20.1093
20.1064
20.1012
20.1012
20.1012
20.1012
20.1006
20.1006
20.1006
20.1006
20.1042
20.0986
20.1042
20.0986
20.1064
20.1092
20.1064
20.1093
20.0704
20.1118
20.0704
20.1119
20.0778
20.087
20.0779
20.0871
20.1116
20.0705
20.1117
20.0704
20.087
20.0777
20.087
20.0778
20.0986
20.1042
20.0986
20.1042
20.109
20.1062
20.1091
20.1063
20.1013
20.1013
20.1013
20.1013
20.1005
20.1005
20.1005
20.1005
20.1042
20.0986
20.1042
20.0986
20.1062
20.109
20.1063
20.1091
20.0705
20.1116
20.0704
20.1117
20.0778
20.0869
20.0778
20.087
20.1116
20.0706
20.1116
20.0706
20.087
20.0778
20.087
20.0778
20.0986
20.1042
20.0986
20.1042
20.1089
20.1061
20.109
20.1061
20.1014
20.1014
20.1013
20.1013
20.1005
20.1005
20.1005
20.1005
20.1042
20.0987
20.1042
20.0986
20.1061
20.1089
20.1061
20.1089
20.0706
20.1115
20.0706
20.1115
20.0778
20.087
20.0778
20.0869
20.1116
20.071
20.1116
20.0707
20.0871
20.0779
20.0871
20.0778
20.0987
20.1043
20.0987
20.1042
20.1087
20.106
20.1088
20.106
20.1016
20.1016
20.1015
20.1015
20.1006
20.1006
20.1005
20.1005
20.1043
20.0987
20.1042
20.0987
20.106
20.1087
20.106
20.1088
20.071
20.1116
20.0707
20.1115
20.0779
20.0871
20.0778
20.087
20.1117
20.0716
20.1117
20.0713
20.0874
20.0781
20.0873
20.078
20.0989
20.1044
20.0988
20.1044
20.1086
20.106
20.1087
20.106
20.1019
20.1018
20.1017
20.1017
20.1008
20.1008
20.1007
20.1007
20.1044
20.0989
20.1044
20.0988
20.106
20.1086
20.106
20.1087
20.0716
20.1117
20.0713
20.1116
20.0781
20.0874
20.078
20.0873
20.112
20.0723
20.1118
20.0719
20.0879
20.0784
20.0877
20.0782
20.0991
20.1047
20.099
20.1045
20.1086
20.106
20.1086
20.106
20.1022
20.1022
20.102
20.102
20.101
20.101
20.1009
20.1009
20.1047
20.0991
20.1045
20.099
20.106
20.1086
20.106
20.1086
20.0723
20.1119
20.0719
20.1118
20.0784
20.0879
20.0782
20.0876
20.1123
20.0732
20.1121
20.0727
20.0885
20.0786
20.0882
20.0785
20.0994
20.105
20.0993
20.1048
20.1086
20.1062
20.1086
20.1061
20.1027
20.1027
20.1024
20.1024
20.1014
20.1014
20.1012
20.1012
20.105
20.0994
20.1048
20.0993
20.1062
20.1086
20.1061
20.1086
20.0732
20.1122
20.0728
20.1121
20.0786
20.0885
20.0785
20.0882
20.1127
20.0738
20.1125
20.0737
20.0892
20.0792
20.0889
20.0788
20.0998
20.1054
20.0996
20.1052
20.1087
20.1065
20.1087
20.1063
20.1033
20.1033
20.103
20.103
20.1019
20.1019
20.1017
20.1017
20.1054
20.0998
20.1052
20.0996
20.1065
20.1087
20.1063
20.1087
20.0739
20.1127
20.0737
20.1124
20.0792
20.0892
20.0788
20.0888
20.1132
20.0743
20.1129
20.074
20.0901
20.08
20.0897
20.0796
20.1002
20.1059
20.1
20.1057
20.1089
20.1069
20.1088
20.1067
20.104
20.104
20.1036
20.1036
20.1026
20.1026
20.1022
20.1022
20.1059
20.1002
20.1056
20.1
20.1069
20.1089
20.1067
20.1088
20.0743
20.1132
20.0741
20.1129
20.08
20.0901
20.0796
20.0896
20.1137
20.075
20.1135
20.0746
20.0911
20.0808
20.0906
20.0804
20.1008
20.1066
20.1005
20.1062
20.1091
20.1074
20.109
20.1071
20.1048
20.1048
20.1044
20.1044
20.1033
20.1033
20.1029
20.1029
20.1066
20.1008
20.1062
20.1005
20.1074
20.1091
20.1071
20.109
20.075
20.1137
20.0746
20.1134
20.0808
20.0911
20.0804
20.0906
20.1142
20.0758
20.114
20.0754
20.0922
20.0816
20.0916
20.0812
20.1014
20.1073
20.1011
20.1069
20.1094
20.108
20.1092
20.1077
20.1057
20.1057
20.1052
20.1052
20.1042
20.1042
20.1038
20.1038
20.1073
20.1014
20.1069
20.1011
20.108
20.1094
20.1077
20.1092
20.0758
20.1142
20.0754
20.1139
20.0817
20.0921
20.0812
20.0916
20.1145
20.0768
20.1144
20.0763
20.0932
20.0826
20.0927
20.0821
20.1022
20.1081
20.1018
20.1077
20.1098
20.1087
20.1096
20.1083
20.1067
20.1067
20.1062
20.1062
20.1052
20.1052
20.1047
20.1047
20.1081
20.1022
20.1077
20.1018
20.1087
20.1098
20.1083
20.1096
20.0768
20.1145
20.0763
20.1144
20.0826
20.0932
20.0821
20.0927
20.1145
20.0781
20.1146
20.0774
20.0942
20.0836
20.0938
20.0831
20.103
20.109
20.1026
20.1086
20.1103
20.1096
20.1101
20.1091
20.1077
20.1077
20.1072
20.1072
20.1062
20.1062
20.1057
20.1057
20.109
20.103
20.1086
20.1026
20.1095
20.1103
20.1091
20.1101
20.0781
20.1144
20.0774
20.1145
20.0836
20.0942
20.0831
20.0937
20.1136
20.08
20.1142
20.0789
20.0948
20.085
20.0946
20.0842
20.104
20.11
20.1035
20.1095
20.1109
20.1105
20.1106
20.11
20.1088
20.1088
20.1083
20.1083
20.1074
20.1074
20.1068
20.1068
20.11
20.104
20.1095
20.1035
20.1105
20.1109
20.11
20.1106
20.08
20.1136
20.0789
20.1141
20.085
20.0948
20.0843
20.0946
20.1099
20.0845
20.1125
20.0816
20.0936
20.0881
20.0948
20.0861
20.1051
20.1112
20.1045
20.1106
20.1116
20.1116
20.1112
20.111
20.11
20.11
20.1094
20.1094
20.1086
20.1086
20.108
20.108
20.1112
20.1051
20.1106
20.1045
20.1116
20.1116
20.111
20.1112
20.0845
20.1099
20.0816
20.1125
20.0881
20.0936
20.0861
20.0947
20.1175
20.0775
20.1064
20.0883
20.0995
20.0838
20.0916
20.091
20.1063
20.1127
20.106
20.1119
20.1127
20.113
20.1123
20.1122
20.1111
20.1111
20.1106
20.1106
20.1099
20.1099
20.1092
20.1092
20.1127
20.1063
20.1119
20.106
20.113
20.1127
20.1122
20.1123
20.0776
20.1175
20.0884
20.1064
20.0838
20.0995
20.091
20.0916
20.1516
20.0631
20.1323
20.0754
20.1473
20.0654
20.1292
20.0772
20.0917
20.0995
20.0959
20.1
20.0934
20.0997
20.0968
20.0999
20.1001
20.1001
20.1001
20.1001
20.1
20.1
20.0999
20.0999
20.0995
20.0917
20.1
20.0959
20.0997
20.0934
20.0999
20.0968
20.0631
20.1516
20.0754
20.1322
20.0654
20.1472
20.0773
20.1292
20.1447
20.0771
20.1469
20.0715
20.142
20.0764
20.1437
20.072
20.0877
20.0968
20.0895
20.0984
20.0898
20.0978
20.0914
20.099
20.0996
20.0996
20.1
20.1
20.0997
20.0997
20.1
20.1
20.0968
20.0877
20.0984
20.0895
20.0978
20.0898
20.099
20.0915
20.0771
20.1446
20.0715
20.1469
20.0764
20.142
20.072
20.1437
20.142
20.0837
20.1432
20.081
20.1396
20.0816
20.1408
20.0795
20.0867
20.0946
20.0869
20.0955
20.089
20.096
20.0891
20.0968
20.0983
20.0983
20.099
20.099
20.0986
20.0986
20.0992
20.0992
20.0946
20.0867
20.0955
20.0869
20.096
20.089
20.0968
20.0891
20.0837
20.1419
20.081
20.1432
20.0816
20.1396
20.0795
20.1407
20.14
20.0868
20.1409
20.0856
20.1377
20.0839
20.1386
20.0831
20.0872
20.0935
20.0869
20.0939
20.0897
20.0953
20.0893
20.0955
20.0968
20.0968
20.0975
20.0975
20.0974
20.0974
20.098
20.098
20.0935
20.0872
20.0939
20.0869
20.0953
20.0897
20.0955
20.0893
20.0868
20.14
20.0856
20.1409
20.0839
20.1377
20.0831
20.1386
20.1386
20.0881
20.1393
20.0876
20.1363
20.0846
20.137
20.0844
20.0881
20.0932
20.0877
20.0933
20.0907
20.0952
20.0902
20.0951
20.0957
20.0957
20.0962
20.0962
20.0965
20.0965
20.0969
20.0969
20.0932
20.0881
20.0933
20.0877
20.0952
20.0907
20.0951
20.0902
20.0881
20.1386
20.0876
20.1392
20.0846
20.1362
20.0844
20.1369
20.1375
20.0884
20.138
20.0883
20.135
20.0843
20.1356
20.0845
20.0887
20.0932
20.0884
20.0931
20.0916
20.0956
20.0912
20.0953
20.0951
20.0951
20.0954
20.0954
20.096
20.096
20.0962
20.0962
20.0932
20.0887
20.0931
20.0884
20.0956
20.0916
20.0953
20.0912
20.0884
20.1375
20.0883
20.138
20.0843
20.135
20.0845
20.1356
20.1365
20.0881
20.137
20.0883
20.1339
20.0836
20.1344
20.084
20.0892
20.0935
20.089
20.0934
20.0922
20.0961
20.0919
20.0958
20.095
20.095
20.095
20.095
20.096
20.0959
20.0959
20.0959
20.0935
20.0892
20.0934
20.089
20.0961
20.0922
20.0958
20.0919
20.0881
20.1365
20.0883
20.1369
20.0836
20.1338
20.084
20.1344
20.1356
20.0875
20.136
20.0878
20.1328
20.0827
20.1334
20.0832
20.0894
20.094
20.0893
20.0938
20.0926
20.0968
20.0924
20.0965
20.0951
20.0951
20.095
20.095
20.0962
20.0962
20.096
20.096
20.094
20.0894
20.0938
20.0893
20.0968
20.0926
20.0965
20.0924
20.0875
20.1355
20.0878
20.136
20.0827
20.1328
20.0832
20.1333
20.1347
20.0868
20.1351
20.0872
20.1319
20.0817
20.1323
20.0822
20.0896
20.0944
20.0895
20.0942
20.0929
20.0975
20.0927
20.0972
20.0955
20.0955
20.0953
20.0953
20.0966
20.0966
20.0964
20.0964
20.0944
20.0896
20.0942
20.0895
20.0975
20.0929
20.0972
20.0927
20.0868
20.1347
20.0872
20.1351
20.0817
20.1318
20.0822
20.1323
20.1338
20.086
20.1343
20.0864
20.1309
20.0807
20.1314
20.0812
20.0896
20.0949
20.0896
20.0947
20.093
20.0981
20.0929
20.0978
20.096
20.096
20.0957
20.0957
20.0972
20.0972
20.0969
20.0969
20.0949
20.0896
20.0947
20.0896
20.0981
20.093
20.0978
20.0929
20.086
20.1338
20.0864
20.1342
20.0807
20.1309
20.0812
20.1314
20.133
20.0853
20.1334
20.0857
20.13
20.0797
20.1305
20.0802
20.0895
20.0953
20.0896
20.0951
20.093
20.0987
20.093
20.0984
20.0965
20.0965
20.0963
20.0963
20.0978
20.0978
20.0975
20.0975
20.0953
20.0895
20.0951
20.0896
20.0987
20.093
20.0984
20.093
20.0853
20.133
20.0857
20.1334
20.0797
20.13
20.0802
20.1304
20.1322
20.0845
20.1326
20.0849
20.1291
20.0788
20.1296
20.0792
20.0894
20.0956
20.0895
20.0955
20.0929
20.0991
20.093
20.0989
20.0971
20.0971
20.0968
20.0968
20.0983
20.0983
20.0981
20.0981
20.0956
20.0894
20.0955
20.0895
20.0991
20.0929
20.0989
20.093
20.0845
20.1322
20.0849
20.1326
20.0788
20.1291
20.0792
20.1295
20.1314
20.0838
20.1318
20.0842
20.1283
20.0779
20.1287
20.0784
20.0893
20.0959
20.0894
20.0958
20.0928
20.0996
20.0929
20.0994
20.0976
20.0976
20.0973
20.0973
20.0989
20.0989
20.0986
20.0986
20.0959
20.0893
20.0958
20.0894
20.0996
20.0929
20.0994
20.0929
20.0838
20.1314
20.0842
20.1318
20.0779
20.1282
20.0784
20.1287
20.1307
20.0832
20.1311
20.0835
20.1274
20.0772
20.1279
20.0775
20.0892
20.0962
20.0892
20.0961
20.0927
20.0999
20.0928
20.0998
20.098
20.098
20.0978
20.0978
20.0993
20.0993
20.0991
20.0991
20.0962
20.0892
20.0961
20.0892
20.0999
20.0927
20.0998
20.0928
20.0832
20.1306
20.0835
20.131
20.0772
20.1274
20.0775
20.1278
20.13
20.0825
20.1303
20.0828
20.1267
20.0765
20.127
20.0768
20.089
20.0964
20.0891
20.0963
20.0926
20.1002
20.0927
20.1001
20.0984
20.0984
20.0982
20.0982
20.0997
20.0997
20.0995
20.0995
20.0964
20.089
20.0963
20.0891
20.1002
20.0926
20.1001
20.0927
20.0825
20.1299
20.0828
20.1303
20.0765
20.1266
20.0768
20.127
20.1293
20.082
20.1296
20.0823
20.1259
20.0758
20.1263
20.0761