/*--------------------------------*- C++ -*----------------------------------*\
  =========                 |
  \\      /  F ield         | OpenFOAM: The Open Source CFD Toolbox
   \\    /   O peration     | Website:  https://openfoam.org
    \\  /    A nd           | Version:  9
     \\/     M anipulation  |
\*---------------------------------------------------------------------------*/
FoamFile
{
    format      ascii;
    class       surfaceScalarField;
    location    "4.1";
    object      phi;
}
// * * * * * * * * * * * * * * * * * * * * * * * * * * * * * * * * * * * * * //

dimensions      [0 3 -1 0 0 0 0];

internalField   nonuniform List<scalar> 
104044
(
7.31253e-07
-6.99453e-05
-2.74462e-06
6.80951e-05
3.8636e-06
-4.4944e-05
-1.45931e-07
-2.85771e-07
4.71132e-05
-1.0062e-06
5.14276e-07
-5.08013e-06
5.16906e-06
1.00746e-06
-2.09698e-07
-1.711e-06
-1.76593e-07
-8.39698e-05
8.14018e-05
-3.28531e-05
1.0978e-07
3.24208e-05
-6.60406e-08
3.09278e-08
-1.83514e-08
-4.95197e-05
-2.99071e-06
4.96015e-05
2.64146e-06
-5.17255e-05
-2.18593e-06
4.49219e-10
5.17831e-05
2.10955e-06
-1.07475e-08
-2.55592e-06
1.93834e-06
-2.00444e-06
-6.51254e-11
1.5608e-06
-6.89108e-09
-4.85995e-05
4.57255e-05
-5.50235e-05
-1.06068e-09
5.28318e-05
-9.60648e-09
-2.59728e-09
-1.70899e-12
-5.28161e-05
-1.69364e-06
5.28701e-05
1.6401e-06
-5.28167e-05
-1.69352e-06
-4.52747e-10
5.28706e-05
1.64006e-06
-1.65698e-12
-1.59977e-06
1.08983e-06
-1.59976e-06
6.42628e-11
1.08988e-06
-4.1334e-12
-5.66867e-05
5.4992e-05
-5.66874e-05
1.05495e-09
5.49928e-05
-2.02762e-12
2.59369e-09
1.83386e-08
-5.17271e-05
-2.18553e-06
5.17845e-05
2.10931e-06
-4.95213e-05
-2.99052e-06
2.85688e-07
4.96029e-05
2.64149e-06
1.07448e-08
-2.00418e-06
1.56062e-06
-2.55571e-06
2.09641e-07
1.93829e-06
6.89041e-09
-5.50259e-05
5.28345e-05
-4.86048e-05
-1.09663e-07
4.57309e-05
9.60362e-09
-3.08798e-08
-7.3098e-07
-4.49435e-05
-1.4841e-07
4.71125e-05
-1.00398e-06
-6.99393e-05
-2.7431e-06
6.80901e-05
3.8614e-06
-5.14046e-07
1.00555e-06
-1.709e-06
-5.0773e-06
5.16583e-06
1.76316e-07
-3.28591e-05
3.24248e-05
-8.39559e-05
8.13891e-05
6.58977e-08
3.10832e-07
-6.62251e-05
-3.57055e-06
6.46254e-05
4.85936e-06
-4.85254e-05
3.16205e-06
-9.10351e-08
4.93987e-05
-3.63344e-06
5.05179e-07
-3.07995e-06
4.44478e-06
1.61509e-06
-1.76319e-07
-2.34586e-06
-8.87868e-07
-7.8839e-05
7.61563e-05
-3.3238e-05
4.47111e-07
3.5065e-05
-5.17147e-07
2.80774e-07
-2.49117e-10
-4.95789e-05
-1.58743e-06
4.94972e-05
1.5783e-06
-5.16603e-05
-1.54692e-06
-2.99193e-09
5.13582e-05
1.85172e-06
-1.36925e-08
-2.36664e-06
2.22665e-06
-2.03828e-06
-1.00115e-09
2.1484e-06
2.60002e-08
-4.36346e-05
4.24683e-05
-5.07998e-05
-1.21909e-09
4.92801e-05
4.99898e-09
-1.35805e-09
-2.57596e-12
-5.27388e-05
-1.42035e-06
5.24287e-05
1.72742e-06
-5.27392e-05
-1.42031e-06
2.99145e-09
5.24291e-05
1.72741e-06
2.24854e-11
-1.76609e-06
1.89636e-06
-1.76599e-06
1.02063e-09
1.89636e-06
-4.09852e-12
-5.32246e-05
5.1803e-05
-5.32255e-05
1.21693e-09
5.18039e-05
-2.10703e-12
1.34956e-09
2.69614e-10
-5.16616e-05
-1.5469e-06
5.13594e-05
1.85179e-06
-4.95801e-05
-1.58785e-06
9.10433e-08
4.94982e-05
1.57904e-06
1.35314e-08
-2.03809e-06
2.14856e-06
-2.36683e-06
1.76311e-07
2.22686e-06
-2.59595e-08
-5.08028e-05
4.92831e-05
-4.36397e-05
-4.46884e-07
4.24727e-05
-4.99991e-09
-2.80599e-07
-3.1088e-07
-4.85243e-05
3.1596e-06
4.93973e-05
-3.63068e-06
-6.62208e-05
-3.56835e-06
6.46217e-05
4.85658e-06
-5.05088e-07
1.61291e-06
-2.34333e-06
-3.07804e-06
4.44224e-06
8.87139e-07
-3.32404e-05
3.5066e-05
-7.88277e-05
7.61465e-05
5.16644e-07
-6.46923e-08
-6.32713e-05
-3.90972e-06
6.21033e-05
5.14242e-06
-5.0044e-05
4.31368e-06
3.64217e-08
5.05751e-05
-4.94588e-06
1.17145e-07
-3.74699e-06
4.98395e-06
3.88849e-06
-2.20312e-08
-4.39464e-06
-1.5829e-06
-7.36436e-05
7.13168e-05
-3.71344e-05
7.15474e-07
3.91497e-05
-1.23429e-06
5.84828e-07
7.49446e-08
-4.94628e-05
-6.51612e-07
4.95138e-05
5.6211e-07
-5.1038e-05
-7.73747e-07
6.41247e-09
5.07863e-05
1.09396e-06
2.98641e-08
-1.0097e-06
9.92149e-07
-1.08005e-06
4.67361e-10
1.42966e-06
9.1954e-08
-4.19879e-05
4.19599e-05
-4.82538e-05
7.44539e-09
4.75646e-05
5.5504e-08
1.7938e-09
4.72921e-12
-5.20605e-05
-7.21477e-07
5.17303e-05
1.0581e-06
-5.20609e-05
-7.2149e-07
-6.38704e-09
5.17306e-05
1.05814e-06
3.25544e-13
-9.92823e-07
1.3615e-06
-9.92819e-07
-4.57585e-10
1.36153e-06
4.45997e-12
-5.0812e-05
5.0098e-05
-5.08129e-05
-7.41873e-09
5.00988e-05
6.76351e-14
-1.7832e-09
-7.48371e-08
-5.1039e-05
-7.7386e-07
5.07872e-05
1.09415e-06
-4.94635e-05
-6.52036e-07
-3.63975e-08
4.95142e-05
5.62909e-07
-2.97867e-08
-1.08012e-06
1.42981e-06
-1.01013e-06
2.20589e-08
9.92935e-07
-9.18377e-08
-4.82566e-05
4.75672e-05
-4.19917e-05
-7.15125e-07
4.19629e-05
-5.54293e-08
-5.84518e-07
6.44868e-08
-5.00425e-05
4.31145e-06
5.05734e-05
-4.94332e-06
-6.3268e-05
-3.90748e-06
6.21004e-05
5.13958e-06
-1.17278e-07
3.88619e-06
-4.39198e-06
-3.74469e-06
4.98107e-06
1.5818e-06
-3.71343e-05
3.91488e-05
-7.36352e-05
7.13095e-05
1.23337e-06
-3.81879e-07
-6.11141e-05
-4.03127e-06
6.02584e-05
5.26882e-06
-5.1022e-05
4.64997e-06
8.15446e-08
5.14024e-05
-5.49384e-06
-2.29898e-07
-3.9413e-06
5.16043e-06
4.47979e-06
6.17462e-08
-5.21832e-06
-2.16229e-06
-6.92451e-05
6.73761e-05
-4.09527e-05
8.92945e-07
4.25474e-05
-1.8696e-06
8.07183e-07
1.65443e-07
-4.96362e-05
-2.92745e-07
4.98326e-05
1.23663e-08
-5.06237e-05
-3.99529e-07
2.30805e-08
5.05375e-05
6.28083e-07
1.18899e-07
-4.26933e-07
2.47443e-07
-5.50273e-07
1.46394e-08
8.17184e-07
1.61014e-07
-4.22109e-05
4.26501e-05
-4.71283e-05
2.48622e-08
4.68649e-05
1.2924e-07
1.51995e-08
-2.20551e-11
-5.14722e-05
-4.20478e-07
5.128e-05
6.3582e-07
-5.14725e-05
-4.20517e-07
-2.31518e-08
5.12803e-05
6.35891e-07
7.53167e-12
-5.34915e-07
8.07577e-07
-5.3494e-07
-1.45932e-08
8.07625e-07
-7.18889e-11
-4.95782e-05
4.91827e-05
-4.95791e-05
-2.51698e-08
4.91836e-05
-7.75018e-13
-1.51692e-08
-1.65242e-07
-5.06244e-05
-3.99836e-07
5.0538e-05
6.28264e-07
-4.96363e-05
-2.92976e-07
-8.1557e-08
4.98325e-05
1.30455e-08
-1.18749e-07
-5.50415e-07
8.17371e-07
-4.2731e-07
-6.17252e-08
2.48228e-07
-1.61717e-07
-4.71306e-05
4.68673e-05
-4.22134e-05
-8.92831e-07
4.26515e-05
-1.29033e-07
-8.06817e-07
3.81547e-07
-5.10203e-05
4.6479e-06
5.14007e-05
-5.49143e-06
-6.11115e-05
-4.02908e-06
6.02561e-05
5.26599e-06
2.29633e-07
4.47769e-06
-5.21589e-06
-3.93901e-06
5.15754e-06
2.16083e-06
-4.09513e-05
4.25456e-05
-6.92389e-05
6.73706e-05
1.86836e-06
-6.28636e-07
-5.95265e-05
-4.07973e-06
5.88887e-05
5.34614e-06
-5.17226e-05
4.76991e-06
9.12778e-08
5.19943e-05
-5.76153e-06
-5.0858e-07
-4.01668e-06
5.2572e-06
4.67403e-06
8.99203e-08
-5.59271e-06
-2.61379e-06
-6.57386e-05
6.42727e-05
-4.38999e-05
9.93352e-07
4.50626e-05
-2.37918e-06
9.42433e-07
2.43316e-07
-5.00414e-05
-2.0168e-07
5.02652e-05
-1.74175e-07
-5.05135e-05
-2.00367e-07
4.1448e-08
5.05371e-05
3.78653e-07
2.04124e-07
-2.24034e-07
-9.88807e-08
-2.8213e-07
3.16358e-08
4.78568e-07
2.07559e-07
-4.31825e-05
4.37666e-05
-4.67331e-05
4.16752e-08
4.66987e-05
1.8594e-07
3.56092e-08
3.53966e-11
-5.1149e-05
-2.71854e-07
5.10666e-05
3.95698e-07
-5.11492e-05
-2.72419e-07
-4.08594e-08
5.10668e-05
3.95767e-07
9.17122e-11
-3.32678e-07
4.95203e-07
-3.32534e-07
-3.15457e-08
4.95246e-07
-1.49726e-09
-4.8885e-05
4.86564e-05
-4.88852e-05
-4.63024e-08
4.86576e-05
5.94685e-10
-3.3492e-08
-2.42788e-07
-5.0514e-05
-2.00288e-07
5.05374e-05
3.78803e-07
-5.00413e-05
-2.01058e-07
-9.1405e-08
5.02647e-05
-1.73727e-07
-2.04073e-07
-2.82124e-07
4.78739e-07
-2.24605e-07
-8.98583e-08
-9.83679e-08
-2.11492e-07
-4.67351e-05
4.67e-05
-4.31848e-05
-9.94518e-07
4.37668e-05
-1.8339e-07
-9.41239e-07
6.28154e-07
-5.1721e-05
4.76813e-06
5.19926e-05
-5.75925e-06
-5.95245e-05
-4.07747e-06
5.88868e-05
5.34331e-06
5.08262e-07
4.6719e-06
-5.59034e-06
-4.01447e-06
5.25434e-06
2.61169e-06
-4.38983e-05
4.50602e-05
-6.57341e-05
6.42683e-05
2.37796e-06
-8.13793e-07
-5.83374e-05
-4.10375e-06
5.78528e-05
5.40206e-06
-5.22231e-05
4.82472e-06
7.50709e-08
5.24174e-05
-5.90789e-06
-7.20741e-07
-4.04886e-06
5.32094e-06
4.75019e-06
8.45967e-08
-5.78433e-06
-2.95342e-06
-6.29915e-05
6.18412e-05
-4.6031e-05
1.04419e-06
4.68581e-05
-2.76773e-06
1.01412e-06
3.03559e-07
-5.04913e-05
-2.14422e-07
5.0716e-05
-2.38766e-07
-5.05959e-05
-9.33714e-08
5.98258e-08
5.06814e-05
2.51613e-07
2.72875e-07
-1.98756e-07
-2.15621e-07
-1.3692e-07
4.99868e-08
3.01022e-07
2.48191e-07
-4.43532e-05
4.49347e-05
-4.6737e-05
6.10884e-08
4.68308e-05
2.28813e-07
5.35202e-08
1.88522e-11
-5.10258e-05
-1.78428e-07
5.10181e-05
2.45904e-07
-5.10259e-05
-1.78498e-07
-5.97516e-08
5.10182e-05
2.45968e-07
6.11124e-11
-2.19051e-07
3.09821e-07
-2.18877e-07
-5.00518e-08
3.09882e-07
-1.65553e-11
-4.84901e-05
4.83727e-05
-4.84905e-05
-6.13483e-08
4.83733e-05
7.5457e-10
-5.1023e-08
-3.03358e-07
-5.05961e-05
-9.35146e-08
5.06815e-05
2.51734e-07
-5.04908e-05
-2.14522e-07
-7.51412e-08
5.07154e-05
-2.383e-07
-2.72716e-07
-1.37205e-07
3.01168e-07
-1.99144e-07
-8.45806e-08
-2.15132e-07
-2.48257e-07
-4.67385e-05
4.68319e-05
-4.4354e-05
-1.04387e-06
4.49351e-05
-2.26749e-07
-1.01313e-06
8.13342e-07
-5.22215e-05
4.82266e-06
5.24159e-05
-5.90552e-06
-5.83357e-05
-4.1017e-06
5.78514e-05
5.39937e-06
7.20352e-07
4.74811e-06
-5.78199e-06
-4.04668e-06
5.31814e-06
2.95173e-06
-4.60289e-05
4.6856e-05
-6.2988e-05
6.1838e-05
2.76629e-06
-9.49415e-07
-5.74292e-05
-4.11157e-06
5.70534e-05
5.43681e-06
-5.25828e-05
4.85151e-06
4.69568e-08
5.27229e-05
-5.98793e-06
-8.77873e-07
-4.06297e-06
5.36447e-06
4.78777e-06
6.12561e-08
-5.8923e-06
-3.2011e-06
-6.08337e-05
5.99233e-05
-4.75451e-05
1.06202e-06
4.81335e-05
-3.0555e-06
1.04525e-06
3.45558e-07
-5.09301e-05
-2.64443e-07
5.11346e-05
-2.38651e-07
-5.07839e-05
-3.99232e-08
7.71569e-08
5.08994e-05
1.92828e-07
3.23311e-07
-2.35731e-07
-2.40489e-07
-6.11012e-08
6.80262e-08
2.139e-07
2.77019e-07
-4.54831e-05
4.60037e-05
-4.69623e-05
7.65109e-08
4.71229e-05
2.61145e-07
6.84923e-08
2.24506e-11
-5.10369e-05
-1.12237e-07
5.1077e-05
1.49312e-07
-5.1037e-05
-1.12285e-07
-7.7078e-08
5.1077e-05
1.49359e-07
2.08532e-11
-1.41082e-07
1.90241e-07
-1.41133e-07
-6.79528e-08
1.90297e-07
2.30825e-11
-4.83001e-05
4.82644e-05
-4.83006e-05
-7.64353e-08
4.82648e-05
2.1455e-11
-6.84077e-08
-3.45354e-07
-5.07839e-05
-4.00395e-08
5.08993e-05
1.92896e-07
-5.09295e-05
-2.64494e-07
-4.70649e-08
5.1134e-05
-2.38243e-07
-3.2311e-07
-6.12329e-08
2.13993e-07
-2.35804e-07
-6.13469e-08
-2.40062e-07
-2.76856e-07
-4.69632e-05
4.71236e-05
-4.54832e-05
-1.06169e-06
4.60036e-05
-2.60981e-07
-1.04492e-06
9.48928e-07
-5.25814e-05
4.84946e-06
5.27215e-05
-5.98556e-06
-5.74279e-05
-4.10958e-06
5.70522e-05
5.4342e-06
8.77406e-07
4.78575e-06
-5.88997e-06
-4.06083e-06
5.36174e-06
3.19933e-06
-4.7543e-05
4.81315e-05
-6.08309e-05
5.99207e-05
3.05377e-06
-1.04733e-06
-5.67201e-05
-4.10943e-06
5.64213e-05
5.45554e-06
-5.28423e-05
4.85898e-06
1.52906e-08
5.29421e-05
-6.02138e-06
-9.92647e-07
-4.06759e-06
5.39357e-06
4.8067e-06
3.09594e-08
-5.94972e-06
-3.37801e-06
-5.91207e-05
5.83893e-05
-4.86223e-05
1.06107e-06
4.90422e-05
-3.26504e-06
1.05289e-06
3.72228e-07
-5.13245e-05
-3.19655e-07
5.15019e-05
-2.14736e-07
-5.10204e-05
-1.87002e-08
9.20236e-08
5.11456e-05
1.73675e-07
3.57014e-07
-2.90132e-07
-2.25761e-07
-2.62114e-08
8.41113e-08
1.78129e-07
2.96821e-07
-4.64813e-05
4.69259e-05
-4.72995e-05
8.89493e-08
4.74887e-05
2.85126e-07
8.22956e-08
2.64164e-11
-5.11325e-05
-6.67223e-08
5.12011e-05
9.0189e-08
-5.11325e-05
-6.67587e-08
-9.19344e-08
5.1201e-05
9.02188e-08
2.41728e-11
-8.62196e-08
1.14754e-07
-8.62635e-08
-8.40279e-08
1.14792e-07
2.69108e-11
-4.82604e-05
4.82826e-05
-4.82608e-05
-8.88664e-08
4.82829e-05
2.47482e-11
-8.2217e-08
-3.72027e-07
-5.10202e-05
-1.87832e-08
5.11454e-05
1.73705e-07
-5.13238e-05
-3.19667e-07
-1.54239e-08
5.15012e-05
-2.14367e-07
-3.56813e-07
-2.63092e-08
1.78176e-07
-2.90158e-07
-3.10799e-08
-2.2538e-07
-2.96654e-07
-4.73001e-05
4.74891e-05
-4.6481e-05
-1.06077e-06
4.69255e-05
-2.84962e-07
-1.05258e-06
1.04682e-06
-5.2841e-05
4.85692e-06
5.29408e-05
-6.01902e-06
-5.67189e-05
-4.1075e-06
5.64202e-05
5.453e-06
9.92157e-07
4.80468e-06
-5.94739e-06
-4.0655e-06
5.39091e-06
3.37619e-06
-4.86203e-05
4.90403e-05
-5.91184e-05
5.83871e-05
3.26325e-06
-1.11592e-06
-5.61521e-05
-4.09517e-06
5.59079e-05
5.45529e-06
-5.30268e-05
4.84599e-06
-1.5509e-08
5.30958e-05
-6.01533e-06
-1.07387e-06
-4.0583e-06
5.40135e-06
4.80257e-06
-3.40389e-10
-5.96088e-06
-3.49755e-06
-5.77404e-05
5.71428e-05
-4.93901e-05
1.04861e-06
4.96899e-05
-3.40941e-06
1.04528e-06
3.86963e-07
-5.1664e-05
-3.69346e-07
5.18132e-05
-1.82352e-07
-5.12696e-05
-1.56424e-08
1.03884e-07
5.13925e-05
1.7581e-07
3.76993e-07
-3.42671e-07
-1.96752e-07
-1.54624e-08
9.7334e-08
1.71142e-07
3.09011e-07
-4.73278e-05
4.76981e-05
-4.76809e-05
9.82381e-08
4.7876e-05
3.00706e-07
9.30375e-08
2.96869e-11
-5.12776e-05
-3.67082e-08
5.13602e-05
5.80356e-08
-5.12776e-05
-3.67391e-08
-1.03786e-07
5.13601e-05
5.80481e-08
2.77938e-11
-4.98115e-08
7.05566e-08
-4.98477e-08
-9.7241e-08
7.05776e-08
3.05217e-11
-4.83258e-05
4.83873e-05
-4.8326e-05
-9.81492e-08
4.83875e-05
2.8507e-11
-9.29523e-08
-3.86766e-07
-5.12693e-05
-1.56954e-08
5.13922e-05
1.75805e-07
-5.16633e-05
-3.69332e-07
1.53571e-08
5.18125e-05
-1.8201e-07
-3.76796e-07
-1.55286e-08
1.71153e-07
-3.42666e-07
1.98691e-10
-1.96404e-07
-3.08842e-07
-4.76811e-05
4.78761e-05
-4.73273e-05
-1.04833e-06
4.76974e-05
-3.0054e-07
-1.045e-06
1.11542e-06
-5.30256e-05
4.84394e-06
5.30946e-05
-6.01299e-06
-5.61511e-05
-4.09328e-06
5.5907e-05
5.45283e-06
1.07337e-06
4.80055e-06
-5.95856e-06
-4.05625e-06
5.39876e-06
3.49571e-06
-4.93882e-05
4.96881e-05
-5.77385e-05
5.71409e-05
3.40759e-06
-1.16305e-06
-5.56838e-05
-4.07309e-06
5.54777e-05
5.44228e-06
-5.31534e-05
4.81835e-06
-4.33399e-08
5.31975e-05
-5.98215e-06
-1.131e-06
-4.04242e-06
5.3975e-06
4.78476e-06
-2.95353e-08
-5.94383e-06
-3.57477e-06
-5.66077e-05
5.61093e-05
-4.99372e-05
1.03028e-06
5.01505e-05
-3.50731e-06
1.03013e-06
3.93297e-07
-5.19477e-05
-4.11466e-07
5.20694e-05
-1.4681e-07
-5.151e-05
-2.33215e-08
1.12718e-07
5.16229e-05
1.90982e-07
3.87268e-07
-3.88284e-07
-1.63004e-07
-1.83735e-08
1.0764e-07
1.80483e-07
3.15434e-07
-4.803e-05
4.83334e-05
-4.80667e-05
1.04638e-07
4.82542e-05
3.09889e-07
1.00814e-07
3.26495e-11
-5.14446e-05
-1.93973e-08
5.15305e-05
4.62453e-08
-5.14445e-05
-1.94187e-08
-1.12614e-07
5.15304e-05
4.62433e-08
3.08971e-11
-2.63683e-08
4.95139e-08
-2.63937e-08
-1.07539e-07
4.95184e-08
3.39088e-11
-4.84617e-05
4.8547e-05
-4.84618e-05
-1.04544e-07
4.8547e-05
3.18524e-11
-1.00724e-07
-3.93106e-07
-5.15097e-05
-2.33498e-08
5.16225e-05
1.90952e-07
-5.1947e-05
-4.11439e-07
4.31744e-08
5.20686e-05
-1.46479e-07
-3.87076e-07
-1.84125e-08
1.80463e-07
-3.88259e-07
2.93772e-08
-1.62675e-07
-3.15264e-07
-4.80667e-05
4.82541e-05
-4.80293e-05
-1.03002e-06
4.83326e-05
-3.09721e-07
-1.02987e-06
1.16255e-06
-5.31523e-05
4.81631e-06
5.31964e-05
-5.97982e-06
-5.56829e-05
-4.07124e-06
5.54769e-05
5.43987e-06
1.1305e-06
4.78274e-06
-5.94153e-06
-4.04042e-06
5.39497e-06
3.57293e-06
-4.99355e-05
5.01489e-05
-5.6606e-05
5.61076e-05
3.50549e-06
-1.19366e-06
-5.52847e-05
-4.04263e-06
5.51041e-05
5.41682e-06
-5.32326e-05
4.77594e-06
-6.73329e-08
5.32554e-05
-5.92504e-06
-1.16847e-06
-4.01442e-06
5.3759e-06
4.74794e-06
-5.52253e-08
-5.89635e-06
-3.61803e-06
-5.56595e-05
5.52349e-05
-5.03242e-05
1.00862e-06
5.04735e-05
-3.56458e-06
1.00967e-06
3.93673e-07
-5.21769e-05
-4.46543e-07
5.22717e-05
-1.09264e-07
-5.17278e-05
-3.78212e-08
1.18628e-07
5.18258e-05
2.14856e-07
3.90155e-07
-4.26374e-07
-1.26501e-07
-2.97567e-08
1.14862e-07
2.0018e-07
3.1746e-07
-4.86029e-05
4.88475e-05
-4.84324e-05
1.08528e-07
4.86035e-05
3.13786e-07
1.05811e-07
3.65913e-11
-5.16141e-05
-1.27014e-08
5.16955e-05
4.98876e-08
-5.1614e-05
-1.27158e-08
-1.18518e-07
5.16954e-05
4.98751e-08
3.39092e-11
-1.47616e-08
4.59688e-08
-1.47789e-08
-1.14756e-07
4.59611e-08
4.1265e-11
-4.8638e-05
4.87338e-05
-4.8638e-05
-1.08422e-07
4.87337e-05
3.60039e-11
-1.05714e-07
-3.93487e-07
-5.17274e-05
-3.78281e-08
5.18254e-05
2.14805e-07
-5.21761e-05
-4.46503e-07
6.7164e-08
5.22709e-05
-1.08948e-07
-3.89968e-07
-2.97733e-08
2.00138e-07
-4.26338e-07
5.50582e-08
-1.26182e-07
-3.17284e-07
-4.84322e-05
4.86032e-05
-4.86021e-05
-1.00836e-06
4.88467e-05
-3.13615e-07
-1.00941e-06
1.19318e-06
-5.32316e-05
4.77391e-06
5.32544e-05
-5.92274e-06
-5.52838e-05
-4.04082e-06
5.51034e-05
5.41447e-06
1.16798e-06
4.74594e-06
-5.89408e-06
-4.01244e-06
5.37344e-06
3.61621e-06
-5.03226e-05
5.0472e-05
-5.5658e-05
5.52334e-05
3.56277e-06
-1.21172e-06
-5.49312e-05
-4.00571e-06
5.47663e-05
5.38233e-06
-5.32703e-05
4.71941e-06
-8.73983e-08
5.3273e-05
-5.8464e-06
-1.19259e-06
-3.98246e-06
5.34797e-06
4.70066e-06
-7.7046e-08
-5.83109e-06
-3.63479e-06
-5.48473e-05
5.44764e-05
-5.05917e-05
9.85332e-07
5.06909e-05
-3.59486e-06
9.87625e-07
3.901e-07
-5.23531e-05
-4.7467e-07
5.2422e-05
-7.17066e-08
-5.19142e-05
-5.6812e-08
1.21944e-07
5.19938e-05
2.45388e-07
3.88504e-07
-4.577e-07
-8.92706e-08
-4.64791e-08
1.19428e-07
2.27161e-07
3.16313e-07
-4.90632e-05
4.92576e-05
-4.87626e-05
1.10423e-07
4.89117e-05
3.14208e-07
1.0865e-07
6.39753e-11
-5.17716e-05
-1.47336e-08
5.18424e-05
6.58156e-08
-5.17714e-05
-1.47444e-08
-1.21799e-07
5.18423e-05
6.57861e-08
4.15827e-11
-1.26301e-08
5.59277e-08
-1.26419e-08
-1.19311e-07
5.59101e-08
8.4378e-11
-4.88297e-05
4.89253e-05
-4.88296e-05
-1.10252e-07
4.89252e-05
5.35548e-11
-1.08527e-07
-3.89946e-07
-5.19138e-05
-5.68017e-08
5.19934e-05
2.45291e-07
-5.23523e-05
-4.74591e-07
8.72943e-08
5.24216e-05
-7.19555e-08
-3.88324e-07
-4.64751e-08
2.27099e-07
-4.57647e-07
7.68879e-08
-8.89782e-08
-3.16095e-07
-4.87623e-05
4.89113e-05
-4.90624e-05
-9.85072e-07
4.92568e-05
-3.14021e-07
-9.87372e-07
1.21124e-06
-5.32694e-05
4.7174e-06
5.32722e-05
-5.84416e-06
-5.49305e-05
-4.00393e-06
5.47656e-05
5.37999e-06
1.19212e-06
4.69868e-06
-5.82884e-06
-3.98051e-06
5.34555e-06
3.63297e-06
-5.05902e-05
5.06896e-05
-5.48459e-05
5.44749e-05
3.59306e-06
-1.22014e-06
-5.46044e-05
-3.96386e-06
5.44465e-05
5.34187e-06
-5.32682e-05
4.64996e-06
-1.03667e-07
5.32508e-05
-5.74895e-06
-1.20493e-06
-3.94149e-06
5.30833e-06
4.63612e-06
-9.50947e-08
-5.74124e-06
-3.63072e-06
-5.4134e-05
5.38009e-05
-5.07641e-05
9.61509e-07
5.08219e-05
-3.59912e-06
9.63804e-07
3.83904e-07
-5.24791e-05
-4.98924e-07
5.25242e-05
-3.37852e-08
-5.20623e-05
-7.88407e-08
1.23116e-07
5.21204e-05
2.81503e-07
3.83514e-07
-4.82762e-07
-5.29859e-08
-6.70201e-08
1.21568e-07
2.60458e-07
3.12844e-07
-4.94269e-05
4.95766e-05
-4.90467e-05
1.10756e-07
4.917e-05
3.11741e-07
1.09692e-07
7.76559e-11
-5.19051e-05
-2.38942e-08
5.19599e-05
9.21613e-08
-5.1905e-05
-2.38988e-08
-1.22932e-07
5.19597e-05
9.21205e-08
1.41079e-10
-1.83828e-08
7.70459e-08
-1.84065e-08
-1.21103e-07
7.69615e-08
9.37216e-11
-4.90165e-05
4.91033e-05
-4.90163e-05
-1.10565e-07
4.91031e-05
1.2525e-10
-1.09387e-07
-3.83642e-07
-5.20617e-05
-7.88262e-08
5.21199e-05
2.81355e-07
-5.24781e-05
-4.98917e-07
1.03444e-07
5.25235e-05
-3.35978e-08
-3.82433e-07
-6.70991e-08
2.60112e-07
-4.83132e-07
9.39769e-08
-4.9719e-08
-3.12605e-07
-4.90462e-05
4.91694e-05
-4.94259e-05
-9.61267e-07
4.95756e-05
-3.11366e-07
-9.63636e-07
1.21964e-06
-5.32673e-05
4.64795e-06
5.32499e-05
-5.74677e-06
-5.46036e-05
-3.96212e-06
5.44458e-05
5.33957e-06
1.20418e-06
4.63404e-06
-5.73929e-06
-3.93961e-06
5.30583e-06
3.62892e-06
-5.07627e-05
5.08205e-05
-5.41326e-05
5.37994e-05
3.59727e-06
-1.22162e-06
-5.42876e-05
-3.92068e-06
5.4129e-05
5.30089e-06
-5.32254e-05
4.57084e-06
-1.15867e-07
5.31862e-05
-5.63741e-06
-1.20932e-06
-3.89834e-06
5.26661e-06
4.56155e-06
-1.09032e-07
-5.63646e-06
-3.61179e-06
-5.34891e-05
5.31802e-05
-5.08566e-05
9.38293e-07
5.08774e-05
-3.58653e-06
9.40262e-07
3.75407e-07
-5.2555e-05
-5.22663e-07
5.25722e-05
1.41879e-08
-5.21661e-05
-1.02976e-07
1.22932e-07
5.21995e-05
3.2202e-07
3.75976e-07
-5.06475e-07
-9.2995e-09
-8.98482e-08
1.21916e-07
2.98246e-07
3.07746e-07
-4.97031e-05
4.98109e-05
-4.92781e-05
1.09987e-07
4.93729e-05
3.07347e-07
1.09369e-07
4.01259e-11
-5.20044e-05
-3.90094e-08
5.20383e-05
1.28006e-07
-5.20042e-05
-3.90088e-08
-1.2282e-07
5.20381e-05
1.27977e-07
4.79466e-11
-3.04699e-08
1.07875e-07
-3.04709e-08
-1.21791e-07
1.07845e-07
4.58024e-11
-4.91821e-05
4.9253e-05
-4.91819e-05
-1.09877e-07
4.92528e-05
6.10943e-11
-1.09237e-07
-3.75228e-07
-5.21656e-05
-1.02947e-07
5.2199e-05
3.21931e-07
-5.25543e-05
-5.2264e-07
1.1569e-07
5.25715e-05
1.45131e-08
-3.75787e-07
-8.98209e-08
2.98148e-07
-5.06443e-07
1.08858e-07
-8.99063e-09
-3.07569e-07
-4.92775e-05
4.93722e-05
-4.97021e-05
-9.38064e-07
4.98099e-05
-3.07155e-07
-9.40025e-07
1.22117e-06
-5.32245e-05
4.56886e-06
5.31854e-05
-5.63517e-06
-5.42868e-05
-3.91898e-06
5.41283e-05
5.2987e-06
1.20887e-06
4.5596e-06
-5.63427e-06
-3.89647e-06
5.26429e-06
3.61002e-06
-5.08553e-05
5.0876e-05
-5.34877e-05
5.31788e-05
3.58476e-06
-1.21626e-06
-5.39654e-05
-3.87232e-06
5.37985e-05
5.2555e-06
-5.31378e-05
4.47855e-06
-1.24224e-07
5.30735e-05
-5.50629e-06
-1.20722e-06
-3.85275e-06
5.22352e-06
4.47663e-06
-1.19323e-07
-5.51615e-06
-3.57401e-06
-5.28853e-05
5.2587e-05
-5.08794e-05
9.14157e-07
5.08698e-05
-3.55791e-06
9.16753e-07
3.64768e-07
-5.25786e-05
-5.48816e-07
5.25653e-05
7.31071e-08
-5.22192e-05
-1.29189e-07
1.21871e-07
5.22243e-05
3.66998e-07
3.66632e-07
-5.30409e-07
3.80735e-08
-1.14793e-07
1.21168e-07
3.40559e-07
3.0117e-07
-4.98958e-05
4.99599e-05
-4.94514e-05
1.08383e-07
4.9515e-05
3.01518e-07
1.08163e-07
3.78873e-11
-5.20596e-05
-5.93713e-08
5.20679e-05
1.72981e-07
-5.20595e-05
-5.93676e-08
-1.21768e-07
5.20677e-05
1.72957e-07
3.50762e-11
-4.81001e-08
1.47868e-07
-4.8097e-08
-1.21063e-07
1.47835e-07
3.72309e-11
-4.93131e-05
4.9362e-05
-4.93128e-05
-1.08288e-07
4.93618e-05
3.90353e-11
-1.08064e-07
-3.64586e-07
-5.22187e-05
-1.29157e-07
5.22238e-05
3.66908e-07
-5.25779e-05
-5.48819e-07
1.24026e-07
5.25646e-05
7.35577e-08
-3.66459e-07
-1.14761e-07
3.4046e-07
-5.30402e-07
1.19152e-07
3.83634e-08
-3.01006e-07
-4.94508e-05
4.95143e-05
-4.98947e-05
-9.13942e-07
4.99588e-05
-3.01351e-07
-9.16533e-07
1.21582e-06
-5.3137e-05
4.47659e-06
5.30727e-05
-5.5041e-06
-5.39647e-05
-3.87065e-06
5.37978e-05
5.25336e-06
1.20678e-06
4.4747e-06
-5.51396e-06
-3.85092e-06
5.22128e-06
3.57227e-06
-5.0878e-05
5.08684e-05
-5.2884e-05
5.25856e-05
3.55617e-06
-1.20684e-06
-5.36234e-05
-3.82702e-06
5.34414e-05
5.21581e-06
-5.29986e-05
4.37794e-06
-1.29338e-07
5.29058e-05
-5.36262e-06
-1.20003e-06
-3.80694e-06
5.18214e-06
4.38207e-06
-1.2573e-07
-5.38148e-06
-3.53329e-06
-5.22999e-05
5.20062e-05
-5.08376e-05
8.92477e-07
5.07898e-05
-3.51986e-06
8.94368e-07
3.53156e-07
-5.25355e-05
-5.76102e-07
5.2488e-05
1.4107e-07
-5.22136e-05
-1.58431e-07
1.20309e-07
5.2186e-05
4.18831e-07
3.55354e-07
-5.57633e-07
1.06339e-07
-1.42043e-07
1.19979e-07
3.8811e-07
2.93962e-07
-5.0002e-05
5.00244e-05
-4.95614e-05
1.06291e-07
4.95906e-05
2.94696e-07
1.06333e-07
3.3467e-11
-5.20615e-05
-8.52648e-08
5.20392e-05
2.27809e-07
-5.20613e-05
-8.52601e-08
-1.20213e-07
5.2039e-05
2.27781e-07
3.27734e-11
-7.08944e-08
1.97211e-07
-7.08895e-08
-1.19884e-07
1.9718e-07
3.36836e-11
-4.93974e-05
4.94184e-05
-4.93972e-05
-1.06203e-07
4.94182e-05
3.44905e-11
-1.06244e-07
-3.52985e-07
-5.22131e-05
-1.58398e-07
5.21855e-05
4.18734e-07
-5.25348e-05
-5.76089e-07
1.29151e-07
5.24873e-05
1.41427e-07
-3.55181e-07
-1.42009e-07
3.88008e-07
-5.57622e-07
1.25548e-07
1.06692e-07
-2.93804e-07
-4.95606e-05
4.95898e-05
-5.00008e-05
-8.92268e-07
5.00232e-05
-2.94538e-07
-8.94158e-07
1.20642e-06
-5.29978e-05
4.37601e-06
5.2905e-05
-5.36045e-06
-5.36226e-05
-3.82538e-06
5.34407e-05
5.21373e-06
1.1996e-06
4.38016e-06
-5.37932e-06
-3.80515e-06
5.17995e-06
3.53158e-06
-5.08363e-05
5.07884e-05
-5.22986e-05
5.20048e-05
3.51815e-06
-1.19372e-06
-5.32477e-05
-3.78396e-06
5.30433e-05
5.18208e-06
-5.28006e-05
4.26836e-06
-1.32432e-07
5.26746e-05
-5.2036e-06
-1.18876e-06
-3.76317e-06
5.14564e-06
4.27788e-06
-1.29754e-07
-5.23172e-06
-3.48157e-06
-5.17168e-05
5.14144e-05
-5.07211e-05
8.70705e-07
5.06372e-05
-3.47376e-06
8.72819e-07
3.41675e-07
-5.24238e-05
-6.04773e-07
5.23396e-05
2.14834e-07
-5.21411e-05
-1.91831e-07
1.18102e-07
5.20767e-05
4.79803e-07
3.43905e-07
-5.85026e-07
1.75602e-07
-1.72965e-07
1.18071e-07
4.43733e-07
2.86335e-07
-5.00248e-05
5.00044e-05
-4.96009e-05
1.03793e-07
4.95916e-05
2.87337e-07
1.04052e-07
3.12694e-11
-5.20002e-05
-1.16897e-07
5.1942e-05
2.93115e-07
-5.2e-05
-1.1689e-07
-1.1801e-07
5.19418e-05
2.93083e-07
3.16517e-11
-9.952e-08
2.56603e-07
-9.95146e-08
-1.17979e-07
2.56573e-07
3.16274e-11
-4.94229e-05
4.94098e-05
-4.94227e-05
-1.03709e-07
4.94095e-05
3.22316e-11
-1.03967e-07
-3.41512e-07
-5.21406e-05
-1.91796e-07
5.20762e-05
4.79706e-07
-5.2423e-05
-6.04758e-07
1.32252e-07
5.23389e-05
2.15169e-07
-3.43739e-07
-1.72931e-07
4.43635e-07
-5.85008e-07
1.29573e-07
1.75938e-07
-2.86182e-07
-4.96001e-05
4.95908e-05
-5.00236e-05
-8.70499e-07
5.00032e-05
-2.87184e-07
-8.72614e-07
1.1933e-06
-5.27998e-05
4.26645e-06
5.26738e-05
-5.20146e-06
-5.32469e-05
-3.78236e-06
5.30426e-05
5.18005e-06
1.18835e-06
4.27599e-06
-5.2296e-06
-3.76141e-06
5.1435e-06
3.47989e-06
-5.07197e-05
5.06358e-05
-5.17155e-05
5.1413e-05
3.47208e-06
-1.17775e-06
-5.28234e-05
-3.74444e-06
5.25888e-05
5.15684e-06
-5.25342e-05
4.14892e-06
-1.33727e-07
5.23701e-05
-5.02884e-06
-1.17431e-06
-3.72203e-06
5.11621e-06
4.16454e-06
-1.31898e-07
-5.06657e-06
-3.42343e-06
-5.11116e-05
5.07906e-05
-5.05309e-05
8.49581e-07
5.04068e-05
-3.41923e-06
8.51597e-07
3.30475e-07
-5.22369e-05
-6.37386e-07
5.21113e-05
2.98755e-07
-5.19927e-05
-2.30268e-07
1.15471e-07
5.18862e-05
5.51726e-07
3.32675e-07
-6.1505e-07
2.53264e-07
-2.08283e-07
1.15656e-07
5.09309e-07
2.7859e-07
-4.99613e-05
4.98949e-05
-4.95616e-05
1.01123e-07
4.95088e-05
2.79682e-07
1.01468e-07
2.9618e-11
-5.18645e-05
-1.54756e-07
5.17645e-05
3.70176e-07
-5.18643e-05
-1.54749e-07
-1.15383e-07
5.17643e-05
3.70142e-07
3.00816e-11
-1.33778e-07
3.26923e-07
-1.33772e-07
-1.15567e-07
3.2689e-07
2.99675e-11
-4.93775e-05
4.93238e-05
-4.93771e-05
-1.01042e-07
4.93235e-05
3.0481e-11
-1.01386e-07
-3.30318e-07
-5.19921e-05
-2.30233e-07
5.18857e-05
5.51631e-07
-5.22361e-05
-6.37372e-07
1.33553e-07
5.21105e-05
2.99081e-07
-3.32516e-07
-2.08248e-07
5.09214e-07
-6.15032e-07
1.31722e-07
2.53589e-07
-2.78443e-07
-4.95607e-05
4.95078e-05
-4.996e-05
-8.49378e-07
4.98936e-05
-2.79534e-07
-8.51396e-07
1.17735e-06
-5.25334e-05
4.14705e-06
5.23693e-05
-5.02674e-06
-5.28226e-05
-3.74287e-06
5.2588e-05
5.15485e-06
1.1739e-06
4.16268e-06
-5.06449e-06
-3.72031e-06
5.11412e-06
3.42179e-06
-5.05295e-05
5.04054e-05
-5.11103e-05
5.07892e-05
3.41759e-06
-1.15912e-06
-5.23351e-05
-3.70891e-06
5.20622e-05
5.14095e-06
-5.21892e-05
4.01983e-06
-1.33487e-07
5.1981e-05
-4.83718e-06
-1.15678e-06
-3.68381e-06
5.09424e-06
4.04027e-06
-1.32362e-07
-4.88383e-06
-3.35948e-06
-5.04645e-05
5.01151e-05
-5.02586e-05
8.28916e-07
5.00901e-05
-3.35774e-06
8.30686e-07
3.19506e-07
-5.19649e-05
-6.73633e-07
5.17922e-05
3.93312e-07
-5.17579e-05
-2.73964e-07
1.12422e-07
5.16036e-05
6.35443e-07
3.21607e-07
-6.49453e-07
3.41873e-07
-2.49071e-07
1.12831e-07
5.86145e-07
2.70715e-07
-4.98043e-05
4.96888e-05
-4.94329e-05
9.82496e-08
4.93314e-05
2.71881e-07
9.86939e-08
2.81059e-11
-5.16426e-05
-1.99349e-07
5.14946e-05
4.5969e-07
-5.16424e-05
-1.9934e-07
-1.12337e-07
5.14944e-05
4.59657e-07
2.85666e-11
-1.74437e-07
4.09186e-07
-1.74429e-07
-1.12745e-07
4.09153e-07
2.82959e-11
-4.9248e-05
4.91469e-05
-4.92477e-05
-9.81728e-08
4.91465e-05
2.88407e-11
-9.86162e-08
-3.19355e-07
-5.17574e-05
-2.73927e-07
5.1603e-05
6.35348e-07
-5.19641e-05
-6.73608e-07
1.33319e-07
5.17914e-05
3.93616e-07
-3.21455e-07
-2.49035e-07
5.86052e-07
-6.49437e-07
1.32193e-07
3.42189e-07
-2.70573e-07
-4.94319e-05
4.93304e-05
-4.98029e-05
-8.28716e-07
4.96874e-05
-2.71738e-07
-8.30487e-07
1.15874e-06
-5.21884e-05
4.018e-06
5.19801e-05
-4.83512e-06
-5.23343e-05
-3.70737e-06
5.20615e-05
5.13901e-06
1.1564e-06
4.03845e-06
-4.88178e-06
-3.68212e-06
5.09219e-06
3.35788e-06
-5.02572e-05
5.00886e-05
-5.04633e-05
5.01138e-05
3.35614e-06
-1.13865e-06
-5.17666e-05
-3.68016e-06
5.14471e-05
5.13827e-06
-5.17531e-05
3.8822e-06
-1.31965e-07
5.14941e-05
-4.62987e-06
-1.13764e-06
-3.65281e-06
5.08608e-06
3.90926e-06
-1.31481e-07
-4.68757e-06
-3.29168e-06
-4.97555e-05
4.9367e-05
-4.98954e-05
8.08909e-07
4.9677e-05
-3.29316e-06
8.10744e-07
3.08921e-07
-5.15964e-05
-7.14112e-07
5.1371e-05
4.98628e-07
-5.14246e-05
-3.2378e-07
1.09026e-07
5.1216e-05
7.3234e-07
3.11004e-07
-6.86828e-07
4.40117e-07
-2.95176e-07
1.09645e-07
6.75456e-07
2.62884e-07
-4.95486e-05
4.93805e-05
-4.92045e-05
9.52958e-08
4.90483e-05
2.6416e-07
9.58258e-08
2.65334e-11
-5.13219e-05
-2.51312e-07
5.11192e-05
5.63e-07
-5.13216e-05
-2.51303e-07
-1.08946e-07
5.11189e-05
5.62967e-07
2.70547e-11
-2.22185e-07
5.0458e-07
-2.22176e-07
-1.09563e-07
5.04547e-07
2.65929e-11
-4.90205e-05
4.88645e-05
-4.90202e-05
-9.52227e-08
4.88641e-05
2.7178e-11
-9.57516e-08
-3.08776e-07
-5.1424e-05
-3.23743e-07
5.12154e-05
7.32249e-07
-5.15956e-05
-7.14087e-07
1.31804e-07
5.13702e-05
4.98921e-07
-3.10857e-07
-2.95139e-07
6.75364e-07
-6.868e-07
1.31319e-07
4.4041e-07
-2.62747e-07
-4.92035e-05
4.90473e-05
-4.95471e-05
-8.08712e-07
4.9379e-05
-2.64021e-07
-8.10547e-07
1.13828e-06
-5.17523e-05
3.8804e-06
5.14932e-05
-4.62785e-06
-5.17658e-05
-3.67866e-06
5.14464e-05
5.13637e-06
1.13727e-06
3.90747e-06
-4.68556e-06
-3.65116e-06
5.08408e-06
3.29012e-06
-4.98939e-05
4.96755e-05
-4.97542e-05
4.93657e-05
3.29159e-06
-1.11656e-06
-5.11012e-05
-3.65857e-06
5.07266e-05
5.14971e-06
-5.12126e-05
3.73546e-06
-1.29385e-07
5.08959e-05
-4.4059e-06
-1.11648e-06
-3.62765e-06
5.09008e-06
3.76829e-06
-1.29425e-07
-4.4739e-06
-3.22054e-06
-4.89635e-05
4.85255e-05
-4.943e-05
7.89465e-07
4.91554e-05
-3.22416e-06
7.91182e-07
2.98682e-07
-5.11197e-05
-7.61875e-07
5.08347e-05
6.18866e-07
-5.098e-05
-3.80708e-07
1.05408e-07
5.07101e-05
8.43828e-07
3.00687e-07
-7.30463e-07
5.51682e-07
-3.47945e-07
1.0616e-07
7.78477e-07
2.55092e-07
-4.91848e-05
4.89573e-05
-4.8864e-05
9.22813e-08
4.86461e-05