/*--------------------------------*- C++ -*----------------------------------*\
  =========                 |
  \\      /  F ield         | OpenFOAM: The Open Source CFD Toolbox
   \\    /   O peration     | Website:  https://openfoam.org
    \\  /    A nd           | Version:  9
     \\/     M anipulation  |
\*---------------------------------------------------------------------------*/
FoamFile
{
    format      ascii;
    class       volVectorField;
    location    "4.1";
    object      U;
}
// * * * * * * * * * * * * * * * * * * * * * * * * * * * * * * * * * * * * * //

dimensions      [0 1 -1 0 0 0 0];

internalField   nonuniform List<vector> 
36360
(
(0.00540859 -0.12818 -0.495322)
(-0.00239198 -0.0902913 0.000261244)
(0.00615629 -0.134212 -0.498501)
(-0.00387615 -0.0825583 0.000178831)
(0.0047489 -0.154875 -0.500332)
(0.00252096 -0.0634145 -4.26591e-05)
(0.0115743 -0.169033 -0.501539)
(0.000141495 -0.0606624 -2.06284e-05)
(0.00352031 -0.0945326 -0.000178838)
(0.00248233 -0.0985955 -1.05316e-05)
(0.0017596 -0.0932927 -0.000129694)
(0.000682394 -0.0974617 -6.36148e-06)
(0.00618596 -0.0895396 5.70711e-05)
(0.00461782 -0.102634 -4.67126e-06)
(0.00666739 -0.0970939 1.2534e-05)
(0.00594471 -0.10835 -7.54805e-06)
(0.00153349 -0.100668 2.62982e-07)
(0.00153348 -0.100669 -2.67063e-07)
(-0.000481368 -0.0993878 -3.92652e-08)
(-0.000481094 -0.0993891 3.6811e-08)
(0.00399176 -0.106396 -6.25377e-07)
(0.00399141 -0.106397 6.17376e-07)
(0.00580156 -0.110736 -1.90428e-06)
(0.00580125 -0.110737 1.90018e-06)
(0.00248185 -0.0985983 1.0522e-05)
(0.00352009 -0.0945354 0.000178782)
(0.000682095 -0.0974648 6.3594e-06)
(0.00175911 -0.093296 0.000129659)
(0.00461704 -0.102639 4.6675e-06)
(0.00618548 -0.08955 -5.7006e-05)
(0.00594417 -0.108354 7.54458e-06)
(0.0066672 -0.0971037 -1.25074e-05)
(-0.00238894 -0.0902898 -0.000261132)
(0.00540584 -0.128171 0.495326)
(-0.00387341 -0.082558 -0.000178729)
(0.00615235 -0.1342 0.498503)
(0.00252302 -0.0634234 4.25617e-05)
(0.004746 -0.154851 0.500333)
(0.000145373 -0.0606772 2.05726e-05)
(0.0115682 -0.169002 0.50154)
(0.00814688 -0.124247 -0.492524)
(-0.00690614 -0.0931924 0.000131272)
(0.00718568 -0.127445 -0.493991)
(-0.00478479 -0.0910402 0.000196568)
(0.00521785 -0.147032 -0.500287)
(-0.00487213 -0.0649266 -0.000267232)
(0.00437711 -0.151477 -0.500577)
(-0.00148372 -0.0615879 -0.00014647)
(0.00207276 -0.0941374 -5.47687e-05)
(0.00253078 -0.0978995 -1.52138e-06)
(0.00308539 -0.0940842 -0.000114009)
(0.00294183 -0.0982814 -8.81506e-06)
(0.00328934 -0.0815049 0.00028036)
(0.00263276 -0.0948232 1.48523e-05)
(0.00480159 -0.0838146 0.000166541)
(0.00381769 -0.097705 2.18324e-06)
(0.00230634 -0.0999591 -1.37351e-06)
(0.00230631 -0.0999599 1.36639e-06)
(0.00247662 -0.100395 -5.84037e-07)
(0.00247659 -0.100396 6.28065e-07)
(0.00243654 -0.0995507 -7.32758e-07)
(0.00243642 -0.0995524 7.27011e-07)
(0.00339106 -0.102301 -8.15331e-07)
(0.00339081 -0.102302 8.0772e-07)
(0.00253079 -0.0979019 1.52846e-06)
(0.00207368 -0.0941395 5.47857e-05)
(0.0029418 -0.0982839 8.73007e-06)
(0.00308567 -0.0940868 0.000113907)
(0.00263262 -0.0948288 -1.48291e-05)
(0.00328974 -0.0815139 -0.000280185)
(0.0038172 -0.0977105 -2.18888e-06)
(0.00480169 -0.0838246 -0.000166439)
(-0.00690205 -0.0931901 -0.000131296)
(0.00814304 -0.124239 0.492529)
(-0.00478102 -0.0910386 -0.000196518)
(0.00718226 -0.127435 0.493996)
(-0.00486735 -0.0649296 0.000266945)
(0.00521344 -0.147012 0.500288)
(-0.00147959 -0.0615941 0.000146272)
(0.00437337 -0.151454 0.500577)
(0.00902132 -0.119 -0.489981)
(-0.00894005 -0.0956417 -2.19844e-05)
(0.00866711 -0.121368 -0.491198)
(-0.00815434 -0.0945607 5.7913e-05)
(0.00601089 -0.137498 -0.499807)
(-0.00739374 -0.0726084 -0.000529834)
(0.00568345 -0.142061 -0.500032)
(-0.00654468 -0.0687466 -0.000396746)
(0.000618696 -0.0940041 5.21189e-05)
(0.001454 -0.0966902 3.86335e-05)
(0.00122757 -0.0939936 1.5909e-06)
(0.0019453 -0.097241 1.53783e-05)
(0.00172565 -0.0796505 0.000493568)
(0.00122324 -0.0908835 6.0758e-05)
(0.00231579 -0.0800695 0.000391444)
(0.00175986 -0.0924661 3.50237e-05)
(0.00138922 -0.0985671 3.92237e-06)
(0.00138926 -0.0985679 -3.90104e-06)
(0.00182225 -0.0992407 2.85885e-07)
(0.00182226 -0.0992415 -2.79473e-07)
(0.00108541 -0.0957415 4.5532e-06)
(0.00108541 -0.0957432 -4.53145e-06)
(0.00157466 -0.0973181 1.09639e-06)
(0.00157463 -0.0973198 -1.08983e-06)
(0.00145421 -0.096692 -3.85669e-05)
(0.00061968 -0.0940051 -5.20497e-05)
(0.00194544 -0.097243 -1.53407e-05)
(0.00122856 -0.0939951 -1.54242e-06)
(0.00122339 -0.0908886 -6.06705e-05)
(0.00172607 -0.0796569 -0.000493284)
(0.00175992 -0.0924716 -3.49715e-05)
(0.0023162 -0.0800772 -0.000391209)
(-0.00893606 -0.0956386 2.18774e-05)
(0.00901699 -0.118994 0.489988)
(-0.00815033 -0.0945579 -5.79768e-05)
(0.00866283 -0.121361 0.491204)
(-0.00738937 -0.0726074 0.000529375)
(0.00600654 -0.137484 0.499808)
(-0.00654015 -0.0687473 0.000396374)
(0.00567892 -0.142044 0.500033)
(0.00952439 -0.11524 -0.487737)
(-0.00985268 -0.097329 -0.000186212)
(0.00929144 -0.116979 -0.48878)
(-0.00946751 -0.0965514 -0.000104311)
(0.00640322 -0.129664 -0.499391)
(-0.00822727 -0.0794171 -0.00079076)
(0.00623114 -0.133374 -0.499587)
(-0.00789577 -0.0762095 -0.000662101)
(-3.27559e-05 -0.094486 0.000129293)
(0.000820795 -0.0960717 9.41569e-05)
(0.000226363 -0.0941766 9.4853e-05)
(0.00108787 -0.0963007 6.54998e-05)
(0.00118133 -0.0806061 0.000662678)
(0.000624481 -0.0892306 0.000121411)
(0.00139013 -0.0799248 0.000584056)
(0.00087552 -0.0898665 9.00834e-05)
(0.00083541 -0.0975832 1.56514e-05)
(0.000835496 -0.0975837 -1.56018e-05)
(0.00106758 -0.098008 9.13474e-06)
(0.00106763 -0.0980086 -9.09654e-06)
(0.000639638 -0.093766 1.54669e-05)
(0.000639683 -0.0937676 -1.57234e-05)
(0.000807915 -0.0946121 9.47918e-06)
(0.000807942 -0.0946137 -9.45914e-06)
(0.000821143 -0.0960728 -9.39649e-05)
(-3.19012e-05 -0.094486 -0.000129192)
(0.0010881 -0.0963022 -6.53942e-05)
(0.000227388 -0.094177 -9.47633e-05)
(0.000624878 -0.089235 -0.000120947)
(0.00118152 -0.0806099 -0.000661951)
(0.000875731 -0.0898711 -8.99351e-05)
(0.00139041 -0.0799302 -0.0005837)
(-0.00984868 -0.0973257 0.000185998)
(0.00951979 -0.115236 0.487746)
(-0.00946355 -0.0965482 0.000104159)
(0.00928683 -0.116974 0.488788)
(-0.00822317 -0.079414 0.000789923)
(0.00639904 -0.129653 0.499392)
(-0.0078916 -0.0762074 0.000661554)
(0.00622667 -0.133362 0.499588)
(0.00991071 -0.112453 -0.485792)
(-0.0103993 -0.0985478 -0.00033973)
(0.00972376 -0.113746 -0.486686)
(-0.010152 -0.0979893 -0.000264734)
(0.00662787 -0.123432 -0.499024)
(-0.0086374 -0.0845728 -0.00102966)
(0.00651658 -0.126362 -0.499195)
(-0.00844773 -0.0821961 -0.000912976)
(-0.000333039 -0.0952915 0.000175801)
(0.00048373 -0.095981 0.000149097)
(-0.00021843 -0.0948758 0.000155919)
(0.000624846 -0.0959761 0.000121918)
(0.00116775 -0.0826174 0.00078544)
(0.000288505 -0.0887324 0.000184798)
(0.00113643 -0.0815471 0.000728893)
(0.000435833 -0.0888764 0.000152123)
(0.00053175 -0.0970834 3.1305e-05)
(0.000532255 -0.0970838 -3.11481e-05)
(0.000663587 -0.0972819 2.32079e-05)
(0.000663505 -0.0972824 -2.30391e-05)
(0.000441174 -0.0926316 3.00847e-05)
(0.000441681 -0.0926329 -3.05122e-05)
(0.000526784 -0.0931224 2.31117e-05)
(0.000526693 -0.0931234 -2.21844e-05)
(0.000483769 -0.0959816 -0.000148623)
(-0.000332845 -0.0952909 -0.000175523)
(0.000624957 -0.095977 -0.000121898)
(-0.000217224 -0.0948755 -0.00015589)
(0.000288647 -0.0887355 -0.000181712)
(0.00116692 -0.0826197 -0.000784803)
(0.000435999 -0.0888805 -0.000153132)
(0.00113655 -0.0815507 -0.000729137)
(-0.0103954 -0.0985446 0.000339344)
(0.00990583 -0.112449 0.485801)
(-0.0101478 -0.0979862 0.000264571)
(0.00971897 -0.113742 0.486695)
(-0.00863359 -0.084569 0.00102759)
(0.00662376 -0.123424 0.499024)
(-0.00844364 -0.0821928 0.000912959)
(0.00651225 -0.126352 0.499197)
(0.0102384 -0.110353 -0.484107)
(-0.0107912 -0.0994194 -0.000476154)
(0.0100776 -0.111332 -0.484869)
(-0.0106054 -0.0990194 -0.000410228)
(0.00679713 -0.118541 -0.498699)
(-0.00893718 -0.0882815 -0.00123711)
(0.00670527 -0.12084 -0.498849)
(-0.00878357 -0.0865839 -0.00113669)
(-0.000402333 -0.0961512 0.000198509)
(0.000317968 -0.0962048 0.000197726)
(-0.000388802 -0.095721 0.000189556)
(0.000385046 -0.0960639 0.000174302)
(0.00130688 -0.0848443 0.00087031)
(7.69169e-05 -0.0888776 0.00023919)
(0.00123094 -0.0837321 0.000831946)
(0.000171126 -0.0887453 0.000211804)
(0.000341447 -0.0969277 4.7826e-05)
(0.000341549 -0.0969279 -4.77433e-05)
(0.000427787 -0.0969706 3.95927e-05)
(0.000427686 -0.0969709 -3.94921e-05)
(0.000307318 -0.0919988 4.61248e-05)
(0.00030744 -0.0919997 -4.60668e-05)
(0.000370436 -0.0922631 3.8384e-05)
(0.000370347 -0.0922646 -3.80379e-05)
(0.000318142 -0.096205 -0.000197569)
(-0.000401606 -0.0961502 -0.000198455)
(0.000385355 -0.0960643 -0.000174211)
(-0.000387813 -0.0957201 -0.000189477)
(7.72724e-05 -0.0888801 -0.000238954)
(0.00130649 -0.0848454 -0.000869968)
(0.000171569 -0.0887479 -0.000212665)
(0.0012308 -0.083733 -0.00083144)
(-0.0107868 -0.0994165 0.000475817)
(0.0102336 -0.11035 0.484118)
(-0.0106011 -0.0990162 0.000409987)
(0.0100726 -0.111329 0.484879)
(-0.00893314 -0.0882775 0.00123622)
(0.00679324 -0.118534 0.498701)
(-0.00877953 -0.0865796 0.0011364)
(0.00670102 -0.120833 0.498851)
(0.0105205 -0.10874 -0.482641)
(-0.0111044 -0.100048 -0.000593323)
(0.0103811 -0.109496 -0.483291)
(-0.010954 -0.099759 -0.000537123)
(0.00694157 -0.114686 -0.498414)
(-0.00920128 -0.0909185 -0.00141397)
(0.00685944 -0.116502 -0.498545)
(-0.00906217 -0.0897112 -0.0013293)
(-0.000354629 -0.0969672 0.000205302)
(0.000249789 -0.0965957 0.000237515)
(-0.000385348 -0.0965688 0.000203497)
(0.000275372 -0.0963863 0.00021879)
(0.00147743 -0.0869316 0.000927132)
(-5.64136e-05 -0.0893776 0.000285346)
(0.00139325 -0.0859164 0.000901667)
(2.2649e-06 -0.0890962 0.000263533)
(0.000209347 -0.0969998 6.31807e-05)
(0.000209425 -0.0969999 -6.3082e-05)
(0.000269598 -0.0969415 5.57462e-05)
(0.000269682 -0.0969416 -5.56564e-05)
(0.000202059 -0.0917233 6.09612e-05)
(0.000202164 -0.0917241 -6.08626e-05)
(0.00025166 -0.0918224 5.37624e-05)
(0.000251767 -0.0918234 -5.36744e-05)
(0.000249891 -0.0965956 -0.000237346)
(-0.000353996 -0.096966 -0.00020527)
(0.00027551 -0.0963863 -0.000218627)
(-0.000384676 -0.0965676 -0.000203455)
(-5.60567e-05 -0.0893792 -0.000285141)
(0.00147692 -0.0869316 -0.000926778)
(2.62339e-06 -0.0890981 -0.000263337)
(0.0013928 -0.0859168 -0.000901309)
(-0.0110999 -0.100046 0.000592932)
(0.0105156 -0.108737 0.482653)
(-0.0109496 -0.0997561 0.000536756)
(0.0103761 -0.109493 0.483301)
(-0.00919721 -0.0909146 0.00141301)
(0.00693778 -0.114681 0.498416)
(-0.00905815 -0.0897072 0.00132838)
(0.00685525 -0.116496 0.498547)
(0.0107648 -0.107471 -0.481365)
(-0.0113565 -0.100501 -0.00069191)
(0.0106435 -0.10807 -0.481922)
(-0.0112349 -0.100293 -0.00064479)
(0.00706898 -0.111612 -0.498165)
(-0.00943318 -0.0927973 -0.00156194)
(0.00699465 -0.113066 -0.498278)
(-0.00930985 -0.0919365 -0.00149132)
(-0.000270204 -0.0976909 0.000202093)
(0.00023638 -0.0970573 0.00026797)
(-0.00031372 -0.0973417 0.000204652)
(0.00023843 -0.096822 0.000253842)
(0.00163849 -0.0887529 0.000963815)
(-0.000130098 -0.0900497 0.000321383)
(0.00156198 -0.0878773 0.000947534)
(-9.9402e-05 -0.0896998 0.000304583)
(0.00011909 -0.0972124 7.60763e-05)
(0.000119149 -0.0972124 -7.59612e-05)
(0.000159683 -0.0970928 6.99707e-05)
(0.000159751 -0.0970928 -6.98634e-05)
(0.000118032 -0.0917084 7.36527e-05)
(0.000118138 -0.0917089 -7.35371e-05)
(0.000158059 -0.0916881 6.76105e-05)
(0.000158164 -0.0916887 -6.7503e-05)
(0.000236417 -0.0970569 -0.000267793)
(-0.000269633 -0.0976895 -0.000202078)
(0.000238497 -0.0968218 -0.000253668)
(-0.000313128 -0.0973404 -0.000204629)
(-0.000129772 -0.0900506 -0.000321165)
(0.00163789 -0.0887523 -0.000963468)
(-9.90589e-05 -0.089701 -0.00030437)
(0.00156142 -0.087877 -0.000947183)
(-0.0113519 -0.100499 0.000691484)
(0.0107599 -0.107469 0.481377)
(-0.0112304 -0.100291 0.00064438)
(0.0106385 -0.108068 0.481934)
(-0.00942906 -0.0927936 0.00156091)
(0.00706527 -0.111608 0.498167)
(-0.00930579 -0.0919327 0.00149032)
(0.00699053 -0.113061 0.49828)
(0.010976 -0.106448 -0.480242)
(-0.0115582 -0.100822 -0.000773861)
(0.0108704 -0.106935 -0.480719)
(-0.0114606 -0.100676 -0.00073476)
(0.0071789 -0.109124 -0.497946)
(-0.00963153 -0.0941373 -0.00168439)
(0.0071123 -0.110306 -0.498044)
(-0.00952404 -0.0935233 -0.00162607)
(-0.000176105 -0.098309 0.000193177)
(0.000253694 -0.0975305 0.000290159)
(-0.000222618 -0.0980131 0.000198154)
(0.000242351 -0.0972949 0.000279971)
(0.00177631 -0.0902878 0.000986455)
(-0.000158842 -0.0907822 0.000348202)
(0.00171232 -0.0895547 0.000976547)
(-0.00014894 -0.0904126 0.000335845)
(6.38978e-05 -0.0975042 8.61698e-05)
(6.39291e-05 -0.0975041 -8.60419e-05)
(8.74428e-05 -0.0973517 8.14547e-05)
(8.74884e-05 -0.0973516 -8.13329e-05)
(5.6975e-05 -0.0918738 8.37809e-05)
(5.70575e-05 -0.0918741 -8.36515e-05)
(8.37386e-05 -0.0917719 7.90383e-05)
(8.38332e-05 -0.0917723 -7.89155e-05)
(0.00025367 -0.0975299 -0.000289975)
(-0.00017557 -0.0983076 -0.000193177)
(0.000242357 -0.0972945 -0.00027979)
(-0.000222074 -0.0980117 -0.000198147)
(-0.00015858 -0.0907825 -0.000347974)
(0.00177563 -0.0902867 -0.000986115)
(-0.000148644 -0.0904132 -0.000335622)
(0.00171168 -0.0895538 -0.000976203)
(-0.0115535 -0.100819 0.000773411)
(0.0109711 -0.106446 0.480255)
(-0.0114559 -0.100673 0.000734322)
(0.0108652 -0.106933 0.480731)
(-0.00962738 -0.0941339 0.00168331)
(0.00717527 -0.109121 0.497948)
(-0.00951994 -0.0935197 0.00162502)
(0.00710823 -0.110302 0.498046)
(0.0111581 -0.105598 -0.479254)
(-0.0117165 -0.101038 -0.000841534)
(0.0110667 -0.106005 -0.479666)
(-0.0116397 -0.100941 -0.000809273)
(0.00727326 -0.107071 -0.497755)
(-0.00979835 -0.0950918 -0.001785)
(0.00721409 -0.108051 -0.497839)
(-0.00970619 -0.0946549 -0.00173716)
(-8.00594e-05 -0.0988217 0.000181386)
(0.000290427 -0.0979791 0.000305562)
(-0.000127331 -0.0985782 0.000187524)
(0.000270332 -0.0977594 0.000298584)
(0.00188864 -0.0915564 0.000999484)
(-0.000156422 -0.0915092 0.000367339)
(0.00183721 -0.090953 0.000993921)
(-0.000160277 -0.0911488 0.000358618)
(3.9336e-05 -0.0978267 9.35948e-05)
(3.93405e-05 -0.0978265 -9.34567e-05)
(4.81885e-05 -0.0976638 9.01858e-05)
(4.82054e-05 -0.0976637 -9.00526e-05)
(1.97379e-05 -0.0921573 9.14279e-05)
(1.98075e-05 -0.0921574 -9.12867e-05)
(3.63502e-05 -0.0920039 8.78957e-05)
(3.64248e-05 -0.0920041 -8.77603e-05)
(0.000290352 -0.0979784 -0.000305374)
(-7.95289e-05 -0.0988203 -0.000181397)
(0.000270279 -0.0977588 -0.000298398)
(-0.000126808 -0.0985768 -0.00018753)
(-0.000156234 -0.0915091 -0.000367105)
(0.0018879 -0.091555 -0.000999149)
(-0.000160055 -0.0911488 -0.000358387)
(0.0018365 -0.0909517 -0.000993584)
(-0.0117117 -0.101036 0.000841071)
(0.0111531 -0.105596 0.479267)
(-0.011635 -0.100939 0.000808817)
(0.0110616 -0.106004 0.479679)
(-0.00979413 -0.0950886 0.00178389)
(0.00726967 -0.107068 0.497757)
(-0.00970203 -0.0946516 0.00173606)
(0.00721007 -0.108048 0.497841)
(0.0113145 -0.104866 -0.478375)
(-0.0118369 -0.101168 -0.000897149)
(0.011235 -0.10522 -0.478726)
(-0.0117785 -0.101113 -0.00087063)
(0.00735224 -0.105343 -0.497586)
(-0.00993356 -0.0957646 -0.00186709)
(0.00729944 -0.106173 -0.497658)
(-0.00985625 -0.0954579 -0.00182811)
(1.7586e-05 -0.0992315 0.000168552)
(0.000340537 -0.0983796 0.000315649)
(-3.03085e-05 -0.0990392 0.000175035)
(0.000314377 -0.0981863 0.000311141)
(0.00197729 -0.0925875 0.001006)
(-0.00013621 -0.0921893 0.000380397)
(0.00193778 -0.0920991 0.00100337)
(-0.000147504 -0.0918564 0.000374521)
(4.05768e-05 -0.098146 9.87123e-05)
(4.05608e-05 -0.0981457 -9.85628e-05)
(3.7104e-05 -0.0979883 9.63975e-05)
(3.70973e-05 -0.0979881 -9.62545e-05)
(-4.46534e-06 -0.0925043 9.69088e-05)
(-4.40127e-06 -0.0925043 -9.67495e-05)
(6.46626e-06 -0.0923253 9.44112e-05)
(6.53213e-06 -0.0923254 -9.4263e-05)
(0.000340421 -0.0983788 -0.000315455)
(1.81258e-05 -0.0992301 -0.000168568)
(0.00031428 -0.0981855 -0.00031095)
(-2.97794e-05 -0.0990377 -0.00017505)
(-0.000136084 -0.0921888 -0.00038015)
(0.0019765 -0.092586 -0.00100566)
(-0.00014735 -0.0918561 -0.000374282)
(0.00193701 -0.0920976 -0.00100304)
(-0.011832 -0.101166 0.000896681)
(0.0113095 -0.104864 0.478388)
(-0.0117738 -0.101111 0.000870164)
(0.0112298 -0.105218 0.47874)
(-0.0099293 -0.0957617 0.00186597)
(0.00734867 -0.10534 0.497588)
(-0.00985204 -0.0954549 0.00182699)
(0.00729542 -0.10617 0.497661)
(0.0114508 -0.104211 -0.477589)
(-0.0119205 -0.10122 -0.000942715)
(0.0113809 -0.104531 -0.477897)
(-0.0118803 -0.101203 -0.000920986)
(0.00741799 -0.103854 -0.497438)
(-0.0100369 -0.0962245 -0.00193362)
(0.00737153 -0.104574 -0.497501)
(-0.00997539 -0.0960177 -0.00190209)
(0.000115969 -0.0995418 0.000155791)
(0.000401196 -0.098717 0.000321801)
(6.76469e-05 -0.0993987 0.000162133)
(0.000369717 -0.0985569 0.000319098)
(0.00204236 -0.0934134 0.00100814)
(-0.000106421 -0.0927963 0.00038883)
(0.00201431 -0.0930236 0.00100748)
(-0.000121977 -0.0925026 0.0003851)
(6.33373e-05 -0.0984365 0.000102009)
(6.32974e-05 -0.0984362 -0.0001018)
(4.9536e-05 -0.0982961 0.00010054)
(4.95108e-05 -0.0982959 -0.000100378)
(-1.97868e-05 -0.0928701 0.000100659)
(-1.97176e-05 -0.09287 -0.000100409)
(-1.30979e-05 -0.0926868 9.89672e-05)
(-1.3033e-05 -0.0926867 -9.87829e-05)
(0.000401018 -0.0987163 -0.0003216)
(0.000116526 -0.0995407 -0.000155781)
(0.000369579 -0.0985561 -0.0003189)
(6.81905e-05 -0.0993973 -0.000162143)
(-0.000106347 -0.0927956 -0.000388523)
(0.00204146 -0.0934118 -0.00100777)
(-0.000121878 -0.092502 -0.000384836)
(0.00201347 -0.093022 -0.00100713)
(-0.0119156 -0.101219 0.000942288)
(0.0114457 -0.10421 0.477603)
(-0.0118754 -0.101202 0.000920526)
(0.0113757 -0.10453 0.47791)
(-0.0100326 -0.0962218 0.00193249)
(0.00741443 -0.103851 0.49744)
(-0.00997114 -0.0960149 0.00190096)
(0.00736752 -0.104571 0.497503)
(0.0115716 -0.103599 -0.47688)
(-0.0119707 -0.101198 -0.000979822)
(0.0115085 -0.103902 -0.477142)
(-0.0119465 -0.101218 -0.000962228)
(0.00747194 -0.102537 -0.497307)
(-0.0101081 -0.0965126 -0.00198699)
(0.00743001 -0.103178 -0.49736)
(-0.0100617 -0.0963878 -0.00196177)
(0.000211558 -0.0997589 0.00014375)
(0.00047031 -0.0989788 0.000325061)
(0.000166051 -0.0996615 0.000149692)
(0.000435334 -0.0988579 0.000323821)
(0.00209861 -0.0940615 0.00100734)
(-7.05977e-05 -0.0933121 0.000393725)
(0.00207125 -0.0937579 0.00100801)
(-8.88743e-05 -0.0930658 0.000391681)
(0.00010444 -0.0986762 0.00010391)
(0.000104383 -0.0986758 -0.000103656)
(8.18137e-05 -0.0985638 0.000103176)
(8.1733e-05 -0.0985635 -0.00010266)
(-2.6813e-05 -0.093218 0.000103006)
(-2.67559e-05 -0.0932177 -0.000102725)
(-2.42764e-05 -0.0930477 0.000102035)
(-2.41968e-05 -0.0930475 -0.000101623)
(0.000470058 -0.0989778 -0.000324734)
(0.00021195 -0.0997572 -0.00014373)
(0.000434963 -0.098857 -0.000322592)
(0.00016613 -0.0996602 -0.000149586)
(-7.05394e-05 -0.093311 -0.00039339)
(0.00209789 -0.0940596 -0.00100697)
(-8.87697e-05 -0.093065 -0.00039121)
(0.00207065 -0.0937562 -0.00100762)
(-0.0119659 -0.101196 0.000979284)
(0.0115665 -0.103597 0.476894)
(-0.0119418 -0.101217 0.000960847)
(0.0115031 -0.1039 0.477155)
(-0.0101037 -0.0965098 0.00198583)
(0.0074684 -0.102534 0.497309)
(-0.0100573 -0.0963851 0.00196052)
(0.00742602 -0.103175 0.497362)
(0.0116824 -0.102998 -0.476242)
(-0.0119909 -0.101096 -0.00100933)
(0.0116236 -0.103299 -0.476464)
(-0.0119815 -0.101157 -0.000995296)
(0.00751733 -0.101337 -0.497191)
(-0.0101477 -0.0966539 -0.00202917)
(0.00747874 -0.101925 -0.497237)
(-0.0101166 -0.0966001 -0.0020093)
(0.000296376 -0.0998775 0.000132778)
(0.000545152 -0.0991533 0.000325755)
(0.000255708 -0.0998311 0.000138139)
(0.000507134 -0.0990776 0.000325598)
(0.00216288 -0.0945463 0.0010046)
(-2.93825e-05 -0.0937253 0.000395885)
(0.00213215 -0.0943231 0.00100613)
(-5.03569e-05 -0.0935316 0.000395081)
(0.000162331 -0.098846 0.000104764)
(0.000162275 -0.0988457 -0.000104601)
(0.000131384 -0.0987708 0.000104414)
(0.00013133 -0.0987705 -0.000104232)
(-2.49869e-05 -0.0935188 0.000104273)
(-2.49378e-05 -0.0935184 -0.000104096)
(-2.69988e-05 -0.0933753 0.000103736)
(-2.69454e-05 -0.093375 -0.000103529)
(0.000544931 -0.0991524 -0.00032555)
(0.000296753 -0.0998761 -0.000132801)
(0.000506911 -0.0990767 -0.000325375)
(0.000256107 -0.0998297 -0.000138151)
(-2.93269e-05 -0.0937242 -0.000395626)
(0.00216229 -0.0945444 -0.00100427)
(-5.0304e-05 -0.0935305 -0.0003948)
(0.00213147 -0.0943213 -0.00100578)
(-0.0119859 -0.101095 0.00100886)
(0.0116774 -0.102996 0.476256)
(-0.0119766 -0.101156 0.000994822)
(0.0116183 -0.103297 0.476478)
(-0.0101433 -0.0966513 0.002028)
(0.00751381 -0.101334 0.497194)
(-0.0101123 -0.0965975 0.00200815)
(0.00747474 -0.101923 0.497239)
(0.0117872 -0.10238 -0.475647)
(-0.0119825 -0.100907 -0.00103222)
(0.0117307 -0.102693 -0.475845)
(-0.0119867 -0.101014 -0.00102149)
(0.00755386 -0.100201 -0.497087)
(-0.0101524 -0.0966677 -0.00205822)
(0.00751866 -0.100764 -0.497127)
(-0.0101386 -0.0966746 -0.00204451)
(0.000369598 -0.0998939 0.000123033)
(0.000626268 -0.0992287 0.000324481)
(0.000336932 -0.0999 0.000127768)
(0.000585263 -0.0992042 0.000325369)
(0.00225056 -0.0948714 0.00100062)
(1.81248e-05 -0.0940258 0.000396033)
(0.00220381 -0.0947289 0.00100271)
(-6.19609e-06 -0.0938898 0.000396165)
(0.000236756 -0.0989279 0.000104948)
(0.000236699 -0.0989275 -0.00010479)
(0.000197498 -0.0988989 0.000104907)
(0.000197434 -0.0988986 -0.000104755)
(-1.38301e-05 -0.0937479 0.000104835)
(-1.37895e-05 -0.0937475 -0.000104676)
(-2.0545e-05 -0.0936432 0.000104628)
(-2.05018e-05 -0.0936428 -0.000104464)
(0.000626027 -0.0992277 -0.000324277)
(0.000369823 -0.0998926 -0.000123073)
(0.000585008 -0.0992033 -0.000325173)
(0.000337268 -0.0998987 -0.000127792)
(1.81835e-05 -0.0940245 -0.000395786)
(0.00225014 -0.0948694 -0.0010003)
(-6.13943e-06 -0.0938885 -0.000395915)
(0.00220334 -0.0947269 -0.00100239)
(-0.0119775 -0.100906 0.00103173)
(0.0117821 -0.102378 0.475662)
(-0.0119817 -0.101012 0.00102102)
(0.0117254 -0.102691 0.47586)
(-0.010148 -0.0966652 0.00205704)
(0.00755035 -0.100199 0.497089)
(-0.0101342 -0.0966721 0.00204334)
(0.00751467 -0.100761 0.497129)
(0.0118941 -0.101717 -0.475104)
(-0.0119445 -0.100617 -0.00104945)
(0.0118356 -0.102055 -0.475275)
(-0.0119646 -0.100775 -0.00104127)
(0.00758936 -0.0990952 -0.496994)
(-0.0101427 -0.0965532 -0.00208606)
(0.00755398 -0.0996462 -0.497027)
(-0.0101357 -0.09663 -0.00207318)
(0.000443281 -0.0997807 0.000114666)
(0.000718842 -0.0991879 0.000321741)
(0.000405267 -0.0998535 0.00011871)
(0.000670813 -0.0992235 0.00032314)
(0.00234236 -0.0950339 0.000995742)
(7.11705e-05 -0.0942029 0.000394754)
(0.0022999 -0.0949722 0.000998231)
(4.42851e-05 -0.0941301 0.000395526)
(0.000329469 -0.0989037 0.000104609)
(0.000329406 -0.0989034 -0.00010446)
(0.000280716 -0.09893 0.000104812)
(0.000280651 -0.0989297 -0.000104664)
(8.39298e-06 -0.093883 0.000104854)
(8.43073e-06 -0.0938825 -0.000104702)
(-4.24183e-06 -0.0938282 0.000104901)
(-4.20327e-06 -0.0938277 -0.000104746)
(0.000718595 -0.0991869 -0.000321547)
(0.000443555 -0.0997793 -0.000114705)
(0.000670551 -0.0992226 -0.000322946)
(0.000405527 -0.0998521 -0.000118744)
(7.12161e-05 -0.0942014 -0.000394513)
(0.00234184 -0.0950317 -0.000995422)
(4.43359e-05 -0.0941287 -0.000395284)
(0.00229941 -0.09497 -0.00099791)
(-0.0119394 -0.100615 0.00104897)
(0.0118891 -0.101716 0.475119)
(-0.0119596 -0.100774 0.00104079)
(0.0118303 -0.102054 0.47529)
(-0.0101382 -0.0965507 0.00208488)
(0.00758586 -0.0990927 0.496996)
(-0.0101313 -0.0966275 0.002072)
(0.00754999 -0.0996436 0.49703)
(0.0120076 -0.100984 -0.4746)
(-0.0118713 -0.10021 -0.00106236)
(0.0119454 -0.101361 -0.474748)
(-0.0119093 -0.100429 -0.00105624)
(0.00762383 -0.0979809 -0.496909)
(-0.0101033 -0.0962991 -0.00210359)
(0.00758846 -0.0985421 -0.496938)
(-0.0101095 -0.096443 -0.0020956)
(0.000536711 -0.0995348 0.00010756)
(0.000829158 -0.0990165 0.000318492)
(0.000488242 -0.0996749 0.000110984)
(0.000771772 -0.0991195 0.000320107)
(0.00242673 -0.0950377 0.000990387)
(0.000129611 -0.0942423 0.000392398)
(0.00238716 -0.0950556 0.000993071)
(9.99381e-05 -0.0942405 0.000393715)
(0.000442725 -0.0987546 0.000103925)
(0.000442655 -0.0987542 -0.000103781)
(0.000383424 -0.0988459 0.000104278)
(0.000383356 -0.0988455 -0.000104133)
(4.31775e-05 -0.0939004 0.000104393)
(4.32061e-05 -0.0938998 -0.000104245)
(2.47251e-05 -0.0939069 0.000104671)
(2.47599e-05 -0.0939063 -0.000104522)
(0.000828913 -0.0990155 -0.000318303)
(0.000537041 -0.0995333 -0.0001076)
(0.000771521 -0.0991185 -0.000319917)
(0.000488545 -0.0996735 -0.000111023)
(0.000129637 -0.0942407 -0.000392162)
(0.00242615 -0.0950353 -0.000990068)
(9.9974e-05 -0.0942389 -0.000393477)
(0.00238659 -0.0950532 -0.000992751)
(-0.0118662 -0.100209 0.00106188)
(0.0120026 -0.100982 0.474615)
(-0.0119042 -0.100428 0.00105577)
(0.0119401 -0.10136 0.474763)
(-0.0100988 -0.0962965 0.00210241)
(0.00762033 -0.0979784 0.496912)
(-0.0101051 -0.0964404 0.00209441)
(0.00758446 -0.0985395 0.496941)
(0.0121331 -0.100151 -0.474129)
(-0.0117611 -0.0996695 -0.00107154)
(0.0120639 -0.100581 -0.474258)
(-0.0118176 -0.099958 -0.00106722)
(0.00765846 -0.0968157 -0.496833)
(-0.0100368 -0.0959007 -0.00211507)
(0.00762188 -0.0974069 -0.496858)
(-0.0100564 -0.0961187 -0.00210996)
(0.000655019 -0.0991418 0.000101716)
(0.00096159 -0.0986962 0.00031494)
(0.000593404 -0.0993577 0.000104521)
(0.00089257 -0.0988761 0.00031669)
(0.00251077 -0.0948747 0.000984752)
(0.000194582 -0.0941277 0.000389553)
(0.00247045 -0.0949775 0.000987563)
(0.0001608 -0.0942058 0.000390984)
(0.000580237 -0.0984587 0.000103022)
(0.000580162 -0.0984583 -0.000102882)
(0.000508344 -0.0986263 0.000103473)
(0.000508271 -0.0986259 -0.000103332)
(9.50515e-05 -0.0937768 0.000103757)
(9.50741e-05 -0.0937761 -0.000103613)
(6.6813e-05 -0.0938578 0.000104098)
(6.68384e-05 -0.0938572 -0.000103953)
(0.000961352 -0.0986951 -0.000314755)
(0.000655405 -0.0991403 -0.000101756)
(0.000892328 -0.098875 -0.000316503)
(0.000593757 -0.0993562 -0.000104561)
(0.000194592 -0.094126 -0.00038932)
(0.00251015 -0.0948721 -0.000984434)
(0.000160818 -0.0942041 -0.000390749)
(0.00246983 -0.094975 -0.000987244)
(-0.0117559 -0.099668 0.00107107)
(0.0121281 -0.10015 0.474144)
(-0.0118125 -0.0999565 0.00106675)
(0.0120586 -0.10058 0.474273)
(-0.0100324 -0.095898 0.00211389)
(0.00765495 -0.0968131 0.496835)
(-0.010052 -0.096116 0.00210878)
(0.00761789 -0.0974043 0.49686)
(0.0122747 -0.0991888 -0.473681)
(-0.0116138 -0.0989739 -0.00107736)
(0.0121969 -0.0996878 -0.47379)
(-0.0116885 -0.0993423 -0.00107466)
(0.00769662 -0.095561 -0.496762)
(-0.00994592 -0.0953428 -0.0021213)
(0.00765764 -0.0962013 -0.496783)
(-0.00997719 -0.0956424 -0.00211873)
(0.000794753 -0.0985817 9.69929e-05)
(0.00111729 -0.0982062 0.000311133)
(0.000724774 -0.0988839 9.92426e-05)
(0.00103689 -0.0984736 0.000313009)
(0.00259719 -0.0945303 0.000978951)
(0.000267577 -0.0938384 0.000386124)
(0.002556 -0.0947252 0.000981831)
(0.000230269 -0.0940056 0.00038788)
(0.000743184 -0.0979932 0.000101926)
(0.000743106 -0.0979928 -0.00010179)
(0.00065843 -0.0982484 0.000102477)
(0.000658355 -0.098248 -0.000102339)
(0.000157405 -0.0934876 0.000102832)
(0.000157428 -0.0934869 -0.000102693)
(0.00012506 -0.0936541 0.000103316)
(0.000125083 -0.0936535 -0.000103174)
(0.00111705 -0.0982051 -0.000310952)
(0.000795115 -0.0985802 -9.70324e-05)
(0.00103665 -0.0984726 -0.000312826)
(0.000725175 -0.0988824 -9.92823e-05)
(0.000267576 -0.0938365 -0.000385895)
(0.00259652 -0.0945276 -0.000978633)
(0.000230271 -0.0940038 -0.000387649)
(0.00255535 -0.0947226 -0.000981514)
(-0.0116086 -0.0989724 0.00107689)
(0.0122697 -0.0991873 0.473697)
(-0.0116834 -0.0993408 0.00107419)
(0.0121917 -0.0996864 0.473806)
(-0.00994147 -0.09534 0.00212012)
(0.00769312 -0.0955585 0.496765)
(-0.00997279 -0.0956396 0.00211755)
(0.00765367 -0.0961988 0.496786)
(0.0124385 -0.0980666 -0.473259)
(-0.011428 -0.0980989 -0.00108023)
(0.0123491 -0.0986495 -0.473356)
(-0.0115229 -0.0985602 -0.00107895)
(0.00774256 -0.094179 -0.496698)
(-0.00982916 -0.0946071 -0.00212287)
(0.00769961 -0.0948882 -0.496716)
(-0.00987305 -0.0949981 -0.00212256)
(0.000955062 -0.0978335 9.33274e-05)
(0.00129958 -0.0975232 0.000307154)
(0.000871449 -0.0982323 9.50679e-05)
(0.00120473 -0.0978901 0.000309102)
(0.00268882 -0.0939965 0.000973033)
(0.000350751 -0.0933544 0.000382324)
(0.00264412 -0.0942879 0.00097597)
(0.00030809 -0.0936217 0.000384255)
(0.00093519 -0.0973337 0.000100673)
(0.000935113 -0.0973333 -0.000100541)
(0.000835287 -0.0976891 0.000101294)
(0.000835209 -0.0976887 -0.00010116)
(0.000231716 -0.093005 0.000101736)
(0.000231737 -0.0930043 -0.000101601)
(0.000192955 -0.0932717 0.000102301)
(0.000192977 -0.093271 -0.000102163)
(0.00129933 -0.097522 -0.000306977)
(0.000955438 -0.0978319 -9.33663e-05)
(0.00120449 -0.097889 -0.000308923)
(0.000871808 -0.0982307 -9.51071e-05)
(0.000350743 -0.0933524 -0.000382099)
(0.00268814 -0.0939937 -0.000972717)
(0.000308085 -0.0936198 -0.000384028)
(0.00264344 -0.0942851 -0.000975653)
(-0.0114229 -0.0980973 0.00107978)
(0.0124336 -0.0980652 0.473275)
(-0.0115178 -0.0985586 0.0010785)
(0.0123438 -0.0986481 0.473372)
(-0.00982473 -0.0946042 0.0021217)
(0.00773908 -0.0941765 0.4967)
(-0.00986866 -0.0949952 0.00212139)
(0.00769563 -0.0948857 0.496718)
(0.012629 -0.0967523 -0.472859)
(-0.0111987 -0.0970191 -0.00108045)
(0.0125257 -0.0974353 -0.47294)
(-0.0113155 -0.0975861 -0.00108046)
(0.00779714 -0.0926295 -0.496638)
(-0.0096873 -0.0936713 -0.00212023)
(0.0077492 -0.0934273 -0.496653)
(-0.00974337 -0.0941654 -0.00212198)
(0.00115255 -0.0968729 9.05836e-05)
(0.00151485 -0.0966222 0.000303051)
(0.0010501 -0.0973812 9.18765e-05)
(0.0014031 -0.0971014 0.00030506)
(0.00278807 -0.0932506 0.000967001)
(0.000444558 -0.0926505 0.000378183)
(0.00273951 -0.0936512 0.000969996)
(0.000396402 -0.0930311 0.000380285)
(0.00116026 -0.0964538 9.93069e-05)
(0.00116018 -0.0964534 -9.91796e-05)
(0.0010434 -0.0969228 9.99824e-05)
(0.00104332 -0.0969224 -9.98527e-05)
(0.000319538 -0.0923002 0.000100488)