/*--------------------------------*- C++ -*----------------------------------*\
  =========                 |
  \\      /  F ield         | OpenFOAM: The Open Source CFD Toolbox
   \\    /   O peration     | Website:  https://openfoam.org
    \\  /    A nd           | Version:  9
     \\/     M anipulation  |
\*---------------------------------------------------------------------------*/
FoamFile
{
    format      ascii;
    class       volScalarField;
    location    "4.35";
    object      p;
}
// * * * * * * * * * * * * * * * * * * * * * * * * * * * * * * * * * * * * * //

dimensions      [0 2 -2 0 0 0 0];

internalField   nonuniform List<scalar> 
36360
(
20.1231
20.0838
20.1166
20.0881
20.0938
20.1059
20.0958
20.101
20.0992
20.1003
20.0997
20.1004
20.0991
20.0993
20.0985
20.099
20.1004
20.1004
20.1004
20.1004
20.0994
20.0994
20.0991
20.0991
20.1003
20.0992
20.1004
20.0997
20.0993
20.0991
20.099
20.0985
20.0838
20.1231
20.0881
20.1166
20.1059
20.0938
20.101
20.0958
20.1101
20.0951
20.1162
20.0901
20.0733
20.1261
20.084
20.1161
20.0998
20.0995
20.0994
20.1
20.1005
20.0986
20.0997
20.0991
20.0996
20.0996
20.1001
20.1001
20.0986
20.0986
20.0991
20.0991
20.0995
20.0998
20.1
20.0994
20.0986
20.1005
20.0991
20.0996
20.0951
20.1101
20.0901
20.1162
20.126
20.0733
20.1161
20.0841
20.0981
20.104
20.1041
20.0998
20.0523
20.1445
20.0626
20.1357
20.1028
20.0989
20.1011
20.0991
20.1042
20.0982
20.1021
20.0983
20.0983
20.0983
20.0989
20.0989
20.0975
20.0975
20.098
20.098
20.0989
20.1028
20.0991
20.1011
20.0982
20.1042
20.0983
20.1021
20.104
20.0981
20.0998
20.1041
20.1445
20.0523
20.1357
20.0627
20.0867
20.1107
20.0922
20.1076
20.0332
20.1593
20.0424
20.1524
20.1072
20.0991
20.1049
20.0989
20.1092
20.0985
20.1065
20.0983
20.0972
20.0972
20.0977
20.0977
20.0967
20.0967
20.0971
20.0971
20.0991
20.1072
20.0989
20.1049
20.0986
20.1091
20.0983
20.1066
20.1107
20.0867
20.1076
20.0922
20.1592
20.0333
20.1524
20.0425
20.0766
20.1152
20.0814
20.1132
20.0169
20.1703
20.0247
20.1651
20.1117
20.1001
20.1094
20.0995
20.1143
20.0995
20.1117
20.0989
20.0966
20.0966
20.0969
20.0969
20.0962
20.0963
20.0965
20.0964
20.1001
20.1117
20.0995
20.1094
20.0995
20.1143
20.099
20.1118
20.1152
20.0766
20.1132
20.0815
20.1702
20.017
20.1652
20.0248
20.068
20.1181
20.0721
20.1168
20.0032
20.1783
20.0097
20.1746
20.1159
20.1015
20.1139
20.1007
20.1191
20.1008
20.1168
20.1001
20.0964
20.0964
20.0964
20.0964
20.0961
20.0961
20.0961
20.0961
20.1015
20.1159
20.1007
20.1138
20.1008
20.119
20.1001
20.1167
20.1181
20.068
20.1168
20.0721
20.1782
20.0032
20.1745
20.0098
20.0606
20.1197
20.0641
20.119
19.9917
20.184
19.9972
20.1814
20.1195
20.103
20.1178
20.1022
20.1231
20.1023
20.1212
20.1016
20.0965
20.0965
20.0964
20.0964
20.0963
20.0963
20.0962
20.0962
20.103
20.1195
20.1022
20.1178
20.1023
20.1231
20.1016
20.1212
20.1197
20.0607
20.119
20.0642
20.184
19.9918
20.1813
19.9972
20.0545
20.1205
20.0574
20.1202
19.9822
20.1881
19.9867
20.1863
20.1225
20.1045
20.1211
20.1038
20.1265
20.1038
20.1249
20.1031
20.0969
20.0969
20.0966
20.0966
20.0967
20.0967
20.0965
20.0965
20.1045
20.1225
20.1038
20.1211
20.1038
20.1265
20.1031
20.1249
20.1205
20.0545
20.1202
20.0574
20.1881
19.9823
20.1862
19.9868
20.0492
20.1208
20.0517
20.1207
19.9743
20.191
19.9781
20.1897
20.1249
20.1059
20.1238
20.1053
20.1292
20.1052
20.1279
20.1045
20.0974
20.0974
20.0971
20.0971
20.0973
20.0973
20.097
20.097
20.1059
20.1249
20.1052
20.1238
20.1052
20.1292
20.1045
20.1279
20.1208
20.0493
20.1207
20.0518
20.191
19.9744
20.1897
19.9781
20.0448
20.1207
20.0469
20.1208
19.9677
20.193
19.9708
20.1921
20.1267
20.1072
20.1259
20.1066
20.1313
20.1064
20.1303
20.1058
20.098
20.098
20.0977
20.0977
20.0979
20.0979
20.0976
20.0976
20.1072
20.1267
20.1066
20.1259
20.1064
20.1313
20.1058
20.1303
20.1207
20.0449
20.1207
20.047
20.193
19.9678
20.1921
19.9709
20.0411
20.1203
20.0429
20.1205
19.9622
20.1944
19.9648
20.1938
20.1281
20.1082
20.1275
20.1077
20.1329
20.1075
20.1321
20.107
20.0987
20.0987
20.0984
20.0984
20.0986
20.0986
20.0982
20.0982
20.1082
20.1281
20.1077
20.1275
20.1075
20.1329
20.107
20.1321
20.1203
20.0411
20.1205
20.0429
20.1943
19.9623
20.1937
19.9649
20.0379
20.1198
20.0394
20.1201
19.9576
20.1952
19.9598
20.1948
20.1292
20.1091
20.1287
20.1087
20.134
20.1083
20.1335
20.1079
20.0993
20.0993
20.099
20.099
20.0991
20.0991
20.0989
20.0989
20.1091
20.1291
20.1087
20.1287
20.1083
20.134
20.1079
20.1335
20.1198
20.0379
20.1201
20.0395
20.1952
19.9577
20.1948
19.9599
20.0352
20.1193
20.0365
20.1196
19.9538
20.1956
19.9557
20.1955
20.1299
20.1097
20.1296
20.1094
20.1349
20.109
20.1345
20.1087
20.0998
20.0998
20.0995
20.0995
20.0996
20.0996
20.0994
20.0994
20.1097
20.1299
20.1094
20.1295
20.109
20.1348
20.1087
20.1345
20.1192
20.0352
20.1196
20.0365
20.1956
19.9539
20.1954
19.9557
20.0328
20.1185
20.034
20.119
19.9506
20.1958
19.9522
20.1957
20.1305
20.1102
20.1301
20.11
20.1354
20.1094
20.1352
20.1092
20.1002
20.1002
20.1
20.1
20.1
20.1
20.0998
20.0998
20.1102
20.1303
20.11
20.1302
20.1094
20.1354
20.1092
20.1351
20.1187
20.0329
20.1189
20.034
20.1957
19.9507
20.1957
19.9523
20.0308
20.1177
20.0318
20.1184
19.948
20.1956
19.9493
20.1957
20.1308
20.1105
20.1305
20.1103
20.1357
20.1097
20.1355
20.1096
20.1005
20.1005
20.1004
20.1004
20.1003
20.1003
20.1002
20.1002
20.1105
20.1306
20.1104
20.1307
20.1097
20.1356
20.1096
20.1355
20.1181
20.0309
20.1181
20.0318
20.1956
19.9481
20.1957
19.9494
20.0291
20.1171
20.03
20.1178
19.9458
20.1953
19.9469
20.1955
20.1309
20.1107
20.1307
20.1106
20.1357
20.1098
20.1357
20.1098
20.1007
20.1007
20.1006
20.1006
20.1004
20.1004
20.1003
20.1003
20.1106
20.1307
20.1106
20.1308
20.1098
20.1357
20.1098
20.1357
20.1173
20.0291
20.1173
20.0299
20.1952
19.9459
20.1954
19.947
20.0276
20.1165
20.0283
20.1169
19.9441
20.1948
19.9449
20.1951
20.1307
20.1106
20.1307
20.1106
20.1355
20.1097
20.1356
20.1098
20.1007
20.1007
20.1007
20.1007
20.1004
20.1004
20.1004
20.1004
20.1106
20.1306
20.1106
20.1307
20.1097
20.1355
20.1098
20.1356
20.1165
20.0277
20.1168
20.0283
20.1947
19.9442
20.195
19.945
20.0264
20.1158
20.027
20.1162
19.9426
20.1941
19.9433
20.1945
20.1303
20.1105
20.1305
20.1106
20.1351
20.1095
20.1354
20.1097
20.1007
20.1007
20.1007
20.1007
20.1002
20.1002
20.1003
20.1003
20.1105
20.1302
20.1106
20.1305
20.1095
20.1351
20.1096
20.1353
20.1158
20.0264
20.1161
20.027
20.1941
19.9427
20.1944
19.9434
20.0253
20.1151
20.0258
20.1155
19.9415
20.1933
19.9421
20.1937
20.1297
20.1102
20.13
20.1104
20.1346
20.1092
20.1349
20.1094
20.1005
20.1005
20.1006
20.1006
20.1
20.1
20.1001
20.1001
20.1102
20.1297
20.1104
20.13
20.1092
20.1346
20.1094
20.1349
20.1151
20.0253
20.1155
20.0258
20.1933
19.9416
20.1937
19.9421
20.0244
20.1145
20.0248
20.1148
19.9407
20.1924
19.9411
20.1929
20.1291
20.1099
20.1294
20.1101
20.1339
20.1087
20.1343
20.109
20.1003
20.1003
20.1004
20.1004
20.0996
20.0996
20.0998
20.0998
20.1098
20.1291
20.11
20.1294
20.1087
20.1339
20.109
20.1342
20.1145
20.0244
20.1148
20.0249
20.1924
19.9408
20.1929
19.9412
20.0237
20.1138
20.024
20.1142
19.9401
20.1915
19.9404
20.192
20.1285
20.1094
20.1288
20.1096
20.1331
20.1082
20.1335
20.1085
20.1
20.1
20.1001
20.1001
20.0991
20.0991
20.0994
20.0994
20.1094
20.1284
20.1096
20.1288
20.1082
20.1331
20.1085
20.1335
20.1139
20.0237
20.1141
20.024
20.1914
19.9402
20.1919
19.9405
20.0231
20.1132
20.0234
20.1136
19.9398
20.1904
19.9399
20.1909
20.1278
20.1089
20.128
20.1092
20.1322
20.1075
20.1327
20.1079
20.0996
20.0996
20.0998
20.0998
20.0986
20.0986
20.0989
20.0989
20.1089
20.1276
20.1092
20.1281
20.1075
20.1322
20.1079
20.1326
20.1133
20.0232
20.1135
20.0234
20.1903
19.9399
20.1909
19.94
20.0227
20.1125
20.023
20.1131
19.9397
20.1892
19.9398
20.1898
20.1271
20.1084
20.1272
20.1086
20.1312
20.1068
20.1317
20.1072
20.0992
20.0992
20.0994
20.0994
20.098
20.098
20.0983
20.0983
20.1084
20.1267
20.1087
20.1274
20.1068
20.1312
20.1072
20.1317
20.1129
20.0229
20.1128
20.0229
20.1892
19.9398
20.1898
19.9398
20.0226
20.112
20.0227
20.1126
19.9399
20.188
19.9398
20.1886
20.1263
20.1079
20.1263
20.1081
20.1302
20.1061
20.1307
20.1065
20.0988
20.0988
20.099
20.099
20.0974
20.0974
20.0977
20.0977
20.1078
20.1259
20.1082
20.1267
20.1061
20.1301
20.1065
20.1307
20.1123
20.0227
20.1122
20.0226
20.188
19.94
20.1886
19.9399
20.0226
20.1115
20.0226
20.1121
19.9404
20.1867
19.9401
20.1874
20.1254
20.1073
20.1255
20.1075
20.1291
20.1053
20.1296
20.1057
20.0985
20.0984
20.0986
20.0986
20.0968
20.0968
20.0971
20.0971
20.1073
20.1251
20.1076
20.1258
20.1053
20.129
20.1057
20.1296
20.1118
20.0227
20.1118
20.0226
20.1867
19.9405
20.1873
19.9402
20.0228
20.1112
20.0227
20.1116
19.9411
20.1854
19.9407
20.1861
20.1246
20.1068
20.1247
20.107
20.128
20.1046
20.1285
20.1049
20.0981
20.0981
20.0983
20.0983
20.0963
20.0963
20.0965
20.0965
20.1068
20.1243
20.1071
20.125
20.1046
20.1279
20.1049
20.1285
20.1114
20.0229
20.1114
20.0227
20.1854
19.9412
20.186
19.9408
20.0233
20.1109
20.023
20.1112
19.9421
20.184
19.9416
20.1847
20.1238
20.1064
20.124
20.1066
20.1268
20.1039
20.1274
20.1042
20.0979
20.0979
20.098
20.098
20.0958
20.0958
20.096
20.096
20.1063
20.1236
20.1066
20.1242
20.1038
20.1268
20.1042
20.1274
20.1111
20.0233
20.111
20.023
20.184
19.9422
20.1847
19.9416
20.024
20.1106
20.0236
20.1109
19.9434
20.1827
19.9427
20.1834
20.123
20.106
20.1233
20.1062
20.1257
20.1032
20.1263
20.1035
20.0978
20.0978
20.0978
20.0978
20.0954
20.0954
20.0955
20.0955
20.106
20.1229
20.1062
20.1234
20.1032
20.1257
20.1035
20.1263
20.1108
20.024
20.1108
20.0236
20.1826
19.9435
20.1833
19.9428
20.0249
20.1105
20.0244
20.1107
19.9451
20.1813
19.9442
20.182
20.1223
20.1057
20.1226
20.1058
20.1246
20.1027
20.1252
20.1029
20.0978
20.0978
20.0978
20.0978
20.0951
20.0951
20.0952
20.0952
20.1057
20.1223
20.1058
20.1226
20.1027
20.1246
20.1029
20.1252
20.1106
20.025
20.1106
20.0244
20.1812
19.9452
20.1819
19.9443
20.0262
20.1104
20.0255
20.1105
19.9472
20.1799
19.9461
20.1806
20.1217
20.1056
20.122
20.1056
20.1236
20.1022
20.1241
20.1024
20.098
20.0979
20.0978
20.0978
20.095
20.095
20.095
20.095
20.1056
20.1217
20.1056
20.122
20.1022
20.1236
20.1024
20.1241
20.1104
20.0262
20.1105
20.0255
20.1798
19.9473
20.1805
19.9462
20.0277
20.1104
20.0269
20.1104
19.9497
20.1784
19.9484
20.1792
20.1212
20.1056
20.1214
20.1056
20.1227
20.102
20.1231
20.1021
20.0983
20.0983
20.0981
20.0981
20.095
20.095
20.095
20.095
20.1056
20.1212
20.1056
20.1214
20.102
20.1227
20.1021
20.1231
20.1104
20.0277
20.1104
20.0269
20.1784
19.9497
20.1791
19.9485
20.0295
20.1105
20.0285
20.1104
19.9526
20.177
19.951
20.1777
20.1208
20.1058
20.121
20.1057
20.1219
20.1019
20.1223
20.1019
20.0988
20.0988
20.0985
20.0985
20.0953
20.0953
20.0952
20.0952
20.1058
20.1207
20.1057
20.1209
20.1019
20.1218
20.1019
20.1222
20.1105
20.0295
20.1104
20.0286
20.177
19.9526
20.1777
19.9511
20.0316
20.1105
20.0305
20.1105
19.9559
20.1755
19.9542
20.1763
20.1204
20.1061
20.1206
20.1059
20.1212
20.1021
20.1215
20.102
20.0996
20.0996
20.0992
20.0992
20.0958
20.0958
20.0955
20.0955
20.1061
20.1204
20.1059
20.1206
20.1021
20.1211
20.102
20.1215
20.1105
20.0316
20.1105
20.0305
20.1755
19.956
20.1762
19.9543
20.0341
20.1106
20.0328
20.1106
19.9598
20.1739
19.9578
20.1747
20.1202
20.1067
20.1203
20.1064
20.1206
20.1024
20.1209
20.1022
20.1005
20.1005
20.1
20.1
20.0966
20.0966
20.0962
20.0962
20.1067
20.1202
20.1064
20.1203
20.1024
20.1206
20.1022
20.1208
20.1106
20.0341
20.1106
20.0328
20.1739
19.9599
20.1747
19.9579
20.0369
20.1107
20.0354
20.1107
19.9643
20.1722
19.962
20.1731
20.1202
20.1074
20.1202
20.107
20.1202
20.1031
20.1204
20.1027
20.1016
20.1016
20.101
20.101
20.0976
20.0976
20.097
20.097
20.1074
20.1202
20.107
20.1202
20.1031
20.1202
20.1027
20.1204
20.1107
20.0369
20.1107
20.0355
20.1722
19.9644
20.1731
19.9621
20.04
20.1108
20.0384
20.1108
19.9694
20.1702
19.9668
20.1712
20.1202
20.1083
20.1202
20.1078
20.12
20.1039
20.1201
20.1035
20.1029
20.1029
20.1022
20.1022
20.0988
20.0988
20.0981
20.0981
20.1083
20.1202
20.1078
20.1202
20.1039
20.12
20.1035
20.1201
20.1108
20.04
20.1108
20.0384
20.1702
19.9695
20.1712
19.9668
20.0433
20.1109
20.0417
20.1108
19.9754
20.1678
19.9723
20.1691
20.1204
20.1094
20.1203
20.1088
20.1199
20.105
20.12
20.1045
20.1043
20.1043
20.1036
20.1036
20.1002
20.1002
20.0994
20.0994
20.1094
20.1204
20.1088
20.1203
20.105
20.1199
20.1045
20.1199
20.1109
20.0434
20.1108
20.0417
20.1678
19.9755
20.1691
19.9724
20.046
20.1118
20.0449
20.1111
19.9826
20.1645
19.9788
20.1663
20.1207
20.1107
20.1206
20.11
20.1201
20.1064
20.12
20.1057
20.1059
20.1059
20.1051
20.1051
20.1018
20.1018
20.1009
20.1009
20.1107
20.1207
20.11
20.1205
20.1064
20.1201
20.1057
20.12
20.1118
20.046
20.1111
20.045
20.1645
19.9827
20.1663
19.9789
20.0483
20.1127
20.0459
20.1137
19.991
20.1598
19.9867
20.1624
20.1217
20.1122
20.1212
20.1114
20.1207
20.108
20.1203
20.1072
20.1076
20.1076
20.1067
20.1067
20.1036
20.1036
20.1027
20.1027
20.1122
20.1217
20.1114
20.1211
20.108
20.1207
20.1072
20.1203
20.1127
20.0483
20.1137
20.0459
20.1598
19.9911
20.1624
19.9867
20.1489
20.0638
20.1306
20.076
20.1394
20.0695
20.1241
20.0797
20.0937
20.0998
20.0969
20.1001
20.0961
20.0997
20.0977
20.0995
20.1001
20.1001
20.1001
20.1001
20.0998
20.0998
20.0994
20.0994
20.0998
20.0937
20.1001
20.0969
20.0997
20.0961
20.0995
20.0977
20.0638
20.1489
20.076
20.1305
20.0695
20.1393
20.0797
20.1241
20.1421
20.0748
20.1443
20.0707
20.133
20.078
20.1358
20.0746
20.0909
20.0982
20.0922
20.0992
20.0947
20.0989
20.0954
20.0995
20.0995
20.0995
20.0999
20.0999
20.0994
20.0994
20.0998
20.0998
20.0982
20.0909
20.0992
20.0922
20.0989
20.0947
20.0995
20.0954
20.0748
20.142
20.0707
20.1443
20.0781
20.133
20.0746
20.1357
20.1389
20.0791
20.1404
20.0774
20.1275
20.0826
20.1303
20.0806
20.0911
20.097
20.0907
20.0975
20.0957
20.0982
20.095
20.0985
20.0984
20.0984
20.099
20.099
20.0983
20.0983
20.0989
20.0989
20.097
20.0911
20.0975
20.0907
20.0982
20.0957
20.0985
20.095
20.0791
20.1389
20.0774
20.1404
20.0826
20.1275
20.0806
20.1303
20.1362
20.0805
20.1375
20.08
20.122
20.085
20.1247
20.0841
20.0925
20.0967
20.0917
20.0967
20.0982
20.0982
20.0968
20.0981
20.0972
20.0972
20.0978
20.0978
20.0973
20.0973
20.0978
20.0978
20.0967
20.0925
20.0967
20.0917
20.0982
20.0982
20.0981
20.0968
20.0805
20.1361
20.0801
20.1375
20.085
20.122
20.0841
20.1247
20.1338
20.0804
20.1349
20.0806
20.1171
20.0859
20.1195
20.0856
20.0942
20.0971
20.0934
20.0968
20.1012
20.0989
20.0998
20.0985
20.0965
20.0965
20.0968
20.0968
20.0967
20.0967
20.0969
20.0969
20.0971
20.0942
20.0968
20.0934
20.0989
20.1012
20.0985
20.0998
20.0804
20.1338
20.0806
20.1349
20.0859
20.1171
20.0856
20.1195
20.1317
20.0795
20.1327
20.08
20.1128
20.0858
20.1149
20.0859
20.0957
20.0979
20.095
20.0975
20.1038
20.1
20.1026
20.0994
20.0963
20.0963
20.0964
20.0964
20.0965
20.0965
20.0965
20.0965
20.0979
20.0957
20.0975
20.095
20.1
20.1038
20.0994
20.1026
20.0795
20.1317
20.08
20.1327
20.0858
20.1128
20.086
20.1149
20.1298
20.0783
20.1307
20.0789
20.1091
20.0852
20.1109
20.0856
20.0969
20.0989
20.0964
20.0984
20.1059
20.1012
20.1049
20.1006
20.0966
20.0966
20.0964
20.0964
20.0968
20.0967
20.0966
20.0966
20.0989
20.0969
20.0984
20.0964
20.1012
20.1059
20.1006
20.1049
20.0783
20.1298
20.0789
20.1307
20.0852
20.1091
20.0856
20.1109
20.1281
20.0768
20.129
20.0776
20.1059
20.0843
20.1074
20.0848
20.0977
20.1
20.0973
20.0994
20.1075
20.1025
20.1068
20.1019
20.0971
20.0971
20.0968
20.0968
20.0973
20.0973
20.097
20.097
20.1
20.0977
20.0994
20.0973
20.1025
20.1075
20.1019
20.1068
20.0768
20.1281
20.0776
20.1289
20.0843
20.1058
20.0848
20.1074
20.1266
20.0754
20.1274
20.0761
20.1031
20.0832
20.1044
20.0837
20.0982
20.1009
20.098
20.1005
20.1087
20.1038
20.1082
20.1032
20.0978
20.0978
20.0974
20.0974
20.0979
20.0979
20.0976
20.0976
20.1009
20.0982
20.1005
20.098
20.1038
20.1087
20.1032
20.1082
20.0754
20.1266
20.0761
20.1273
20.0832
20.1031
20.0837
20.1044
20.1252
20.0739
20.1259
20.0746
20.1006
20.082
20.1018
20.0826
20.0985
20.1018
20.0984
20.1014
20.1096
20.1049
20.1092
20.1044
20.0985
20.0985
20.0981
20.0981
20.0987
20.0987
20.0983
20.0983
20.1018
20.0985
20.1014
20.0984
20.1049
20.1096
20.1044
20.1092
20.0739
20.1252
20.0746
20.1259
20.082
20.1006
20.0826
20.1018
20.124
20.0726
20.1246
20.0733
20.0985
20.0808
20.0995
20.0814
20.0986
20.1026
20.0986
20.1023
20.1102
20.1059
20.1099
20.1054
20.0992
20.0992
20.0989
20.0989
20.0994
20.0994
20.099
20.099
20.1026
20.0986
20.1022
20.0986
20.1059
20.1102
20.1054
20.1099
20.0726
20.1239
20.0733
20.1245
20.0808
20.0985
20.0814
20.0995
20.1228
20.0714
20.1233
20.072
20.0966
20.0797
20.0975
20.0802
20.0985
20.1033
20.0986
20.103
20.1105
20.1067
20.1104
20.1063
20.0999
20.0999
20.0996
20.0996
20.1001
20.1
20.0997
20.0997
20.1033
20.0985
20.103
20.0986
20.1067
20.1105
20.1063
20.1103
20.0714
20.1227
20.072
20.1233
20.0797
20.0966
20.0802
20.0975
20.1217
20.0703
20.1222
20.0708
20.095
20.0786
20.0958
20.0791
20.0984
20.1039
20.0985
20.1036
20.1106
20.1073
20.1106
20.107
20.1005
20.1004
20.1002
20.1002
20.1006
20.1006
20.1003
20.1003
20.1039
20.0984
20.1036
20.0985
20.1073
20.1106
20.107
20.1106
20.0703
20.1216
20.0708
20.1222
20.0786
20.095
20.0791
20.0958
20.1206
20.0692
20.1211
20.0698
20.0935
20.0775
20.0942
20.0781
20.0982
20.1043
20.0983
20.1041
20.1106
20.1078
20.1106
20.1076
20.1009
20.1009
20.1007
20.1007
20.101
20.101
20.1008
20.1008
20.1043
20.0982
20.1041
20.0983
20.1078
20.1106
20.1076
20.1106
20.0693
20.1206
20.0698
20.1211
20.0776
20.0935
20.0781
20.0942
20.1197
20.0683
20.1202
20.0688
20.0922
20.0766
20.0928
20.0771
20.0979
20.1046
20.098
20.1045
20.1105
20.1082
20.1105
20.108
20.1013
20.1013
20.1011
20.1011
20.1014
20.1014
20.1012
20.1012
20.1046
20.0979
20.1045
20.098
20.1081
20.1103
20.108
20.1106
20.0683
20.1196
20.0688
20.1201
20.0766
20.0922
20.0771
20.0928
20.1188
20.0674
20.1192
20.0679
20.091
20.0757
20.0916
20.0762
20.0976
20.1048
20.0978
20.1047
20.1102
20.1083
20.1102
20.1082
20.1015
20.1015
20.1014
20.1014
20.1016
20.1016
20.1015
20.1015
20.1048
20.0976
20.1047
20.0978
20.1083
20.1102
20.1083
20.1104
20.0675
20.1188
20.0679
20.1192
20.0758
20.091
20.0762
20.0915
20.1179
20.0667
20.1184
20.0671
20.0899
20.0749
20.0904
20.0753
20.0973
20.1048
20.0975
20.1048
20.11
20.1084
20.1101
20.1084
20.1017
20.1017
20.1016
20.1016
20.1017
20.1017
20.1017
20.1017
20.1048
20.0973
20.1048
20.0975
20.1084
20.11
20.1084
20.1101
20.0667
20.1179
20.0671
20.1183
20.0749
20.0899
20.0753
20.0904
20.1172
20.066
20.1175
20.0663
20.0889
20.0742
20.0894
20.0746
20.097
20.1048
20.0972
20.1048
20.1098
20.1083
20.1099
20.1084
20.1018
20.1018
20.1017
20.1017
20.1017
20.1017
20.1017
20.1017
20.1048
20.097
20.1048
20.0972
20.1083
20.1098
20.1084
20.1099
20.066
20.1171
20.0663
20.1175
20.0742
20.0889
20.0746
20.0894
20.1164
20.0654
20.1168
20.0657
20.0881
20.0735
20.0885
20.0739
20.0968
20.1047
20.0969
20.1047
20.1096
20.1082
20.1097
20.1082
20.1017
20.1017
20.1018
20.1018
20.1016
20.1016
20.1017
20.1017
20.1047
20.0968
20.1047
20.0969
20.1081
20.1096
20.1082
20.1097
20.0654
20.1164
20.0657
20.1167
20.0736
20.0881
20.0739
20.0885
20.1158
20.0649
20.1161
20.0651
20.0873
20.073
20.0877
20.0732
20.0965
20.1045
20.0966
20.1046
20.1093
20.1079
20.1095
20.108
20.1017
20.1017
20.1017
20.1017
20.1015
20.1015
20.1015
20.1015
20.1045
20.0965
20.1046
20.0966
20.1079
20.1093
20.108
20.1095
20.0649
20.1157
20.0651
20.1161
20.073
20.0873
20.0733
20.0877
20.1152
20.0645
20.1155
20.0647
20.0867
20.0725
20.087
20.0727
20.0962
20.1043
20.0963
20.1044
20.1091
20.1076
20.1092
20.1078
20.1016
20.1016
20.1016
20.1016
20.1013
20.1013
20.1014
20.1014
20.1043
20.0962
20.1044
20.0963
20.1076
20.1091
20.1078
20.1092
20.0645
20.1152
20.0647
20.1154
20.0725
20.0866
20.0727
20.087
20.1147
20.0642
20.1149
20.0643
20.0861
20.0721
20.0864
20.0723
20.0959
20.1041
20.096
20.1042
20.1088
20.1073
20.1089
20.1075
20.1014
20.1014
20.1015
20.1015
20.101
20.101
20.1011
20.1011
20.1041
20.0959
20.1042
20.096
20.1073
20.1088
20.1075
20.1089
20.0642
20.1147
20.0643
20.1149
20.0721
20.0861
20.0723
20.0864
20.1143
20.064
20.1145
20.0641
20.0857
20.0718
20.0859
20.0719
20.0957
20.1039
20.0958
20.104
20.1085
20.107
20.1086
20.1071
20.1013
20.1013
20.1014
20.1014
20.1008
20.1008
20.1009
20.1009
20.1039
20.0957
20.104
20.0958
20.107
20.1085
20.1071
20.1087
20.064
20.1143
20.0641
20.1144
20.0718
20.0857
20.0719
20.0859
20.114
20.0639
20.1141
20.0639
20.0854
20.0716
20.0856
20.0717
20.0956
20.1038
20.0957
20.1039
20.1082
20.1067
20.1083
20.1068
20.1012
20.1012
20.1013
20.1013
20.1006
20.1005
20.1007
20.1007
20.1038
20.0956
20.1039
20.0957
20.1066
20.1082
20.1068
20.1083
20.0639
20.114
20.064
20.1141
20.0716
20.0854
20.0717
20.0855
20.1138
20.064
20.1139
20.0639
20.0853
20.0715
20.0853
20.0715
20.0955
20.1037
20.0956
20.1037
20.1079
20.1064
20.108
20.1065
20.1012
20.1012
20.1012
20.1012
20.1004
20.1004
20.1005
20.1005
20.1037
20.0955
20.1037
20.0956
20.1063
20.1079
20.1065
20.1081
20.064
20.1138
20.064
20.1139
20.0715
20.0853
20.0715
20.0853
20.1137
20.0641
20.1138
20.0641
20.0853
20.0715
20.0852
20.0715
20.0956
20.1036
20.0955
20.1036
20.1077
20.1061
20.1078
20.1062
20.1012
20.1012
20.1012
20.1012
20.1003
20.1002
20.1003
20.1003
20.1036
20.0956
20.1036
20.0955
20.1061
20.1077
20.1062
20.1078
20.0642
20.1137
20.0641
20.1137
20.0715
20.0853
20.0715
20.0852
20.1138
20.0644
20.1137
20.0642
20.0854
20.0716
20.0853
20.0715
20.0957
20.1036
20.0956
20.1036
20.1075
20.1059
20.1076
20.106
20.1013
20.1013
20.1013
20.1013
20.1002
20.1002
20.1002
20.1002
20.1036
20.0957
20.1036
20.0956
20.1059
20.1075
20.106
20.1076
20.0644
20.1137
20.0643
20.1137
20.0716
20.0854
20.0715
20.0853
20.1139
20.0651
20.1138
20.0647
20.0857
20.0718
20.0856
20.0717
20.0958
20.1038
20.0957
20.1037
20.1074
20.1058
20.1074
20.1059
20.1016
20.1016
20.1014
20.1014
20.1003
20.1003
20.1003
20.1003
20.1038
20.0958
20.1037
20.0957
20.1058
20.1074
20.1059
20.1075
20.0651
20.1139
20.0648
20.1138
20.0719
20.0857
20.0717
20.0855
20.1142
20.0659
20.1141
20.0655
20.0862
20.0722
20.086
20.072
20.0961
20.104
20.096
20.1039
20.1074
20.1059
20.1074
20.1058
20.1019
20.1019
20.1017
20.1017
20.1005
20.1005
20.1004
20.1004
20.104
20.0961
20.1039
20.096
20.1058
20.1073
20.1058
20.1074
20.066
20.1142
20.0655
20.114
20.0722
20.0862
20.072
20.0859
20.1146
20.067
20.1144
20.0664
20.0869
20.0725
20.0865
20.0724
20.0965
20.1043
20.0963
20.1041
20.1074
20.106
20.1074
20.1059
20.1024
20.1024
20.1021
20.1021
20.1009
20.1009
20.1007
20.1007
20.1043
20.0965
20.1041
20.0963
20.106
20.1074
20.1059
20.1074
20.067
20.1146
20.0664
20.1144
20.0725
20.0869
20.0724
20.0865
20.1151
20.0679
20.1148
20.0676
20.0878
20.0732
20.0873
20.0727
20.097
20.1048
20.0967
20.1045
20.1075
20.1063
20.1075
20.1061
20.103
20.103
20.1027
20.1027
20.1014
20.1014
20.1011
20.1011
20.1048
20.097
20.1045
20.0967
20.1063
20.1075
20.1061
20.1074
20.0679
20.1151
20.0677
20.1148
20.0732
20.0878
20.0727
20.0873
20.1157
20.0685
20.1154
20.0681
20.0888
20.0742
20.0882
20.0737
20.0976
20.1054
20.0973
20.1051
20.1077
20.1067
20.1076
20.1065
20.1038
20.1038
20.1034
20.1034
20.1021
20.1021
20.1017
20.1017
20.1054
20.0976
20.1051
20.0973
20.1067
20.1077
20.1065
20.1076
20.0685
20.1157
20.0681
20.1154
20.0742
20.0888
20.0737
20.0882
20.1164
20.0693
20.1161
20.0688
20.0899
20.0752
20.0893
20.0747
20.0982
20.1061
20.0979
20.1058
20.108
20.1072
20.1079
20.1069
20.1047
20.1047
20.1043
20.1042
20.103
20.103
20.1025
20.1025
20.1061
20.0983
20.1058
20.0979
20.1072
20.108
20.1069
20.1079
20.0693
20.1164
20.0689
20.116
20.0752
20.0899
20.0747
20.0893
20.117
20.0703
20.1167
20.0698
20.0912
20.0763
20.0906
20.0757
20.099
20.107
20.0986
20.1066
20.1085
20.108
20.1082
20.1076
20.1058
20.1058
20.1052
20.1052
20.104
20.104
20.1034
20.1034
20.107
20.099
20.1066
20.0986
20.108
20.1085
20.1076
20.1082
20.0703
20.117
20.0698
20.1167
20.0763
20.0912
20.0757
20.0906
20.1174
20.0715
20.1173
20.0709
20.0926
20.0774
20.0919
20.0768
20.1
20.108
20.0995
20.1075
20.109
20.1088
20.1087
20.1084
20.1069
20.1069
20.1063
20.1063
20.1051
20.1051
20.1045
20.1045
20.108
20.1
20.1075
20.0995
20.1088
20.109
20.1084
20.1087
20.0715
20.1174
20.0709
20.1172
20.0774
20.0926
20.0768
20.0919
20.1175
20.0731
20.1175
20.0722
20.0938
20.0787
20.0932
20.078
20.101
20.109
20.1005
20.1085
20.1096
20.1098
20.1093
20.1093
20.1082
20.1082
20.1075
20.1075
20.1064
20.1063
20.1057
20.1057
20.109
20.101
20.1085
20.1005
20.1098
20.1096
20.1093
20.1093
20.0731
20.1174
20.0722
20.1175
20.0787
20.0938
20.078
20.0932
20.1166
20.0753
20.1172
20.0741
20.0947
20.0804
20.0943
20.0795
20.1022
20.1102
20.1016
20.1096
20.1103
20.1109
20.11
20.1103
20.1095
20.1095
20.1088
20.1088
20.1077
20.1077
20.107
20.107
20.1102
20.1022
20.1096
20.1016
20.1109
20.1103
20.1103
20.11
20.0753
20.1166
20.0741
20.1172
20.0804
20.0947
20.0795
20.0943
20.1124
20.0805
20.1154
20.0771
20.0934
20.084
20.0946
20.0816
20.1035
20.1115
20.1028
20.1108
20.1112
20.1122
20.1107
20.1115
20.1109
20.1109
20.1102
20.1102
20.1092
20.1092
20.1084
20.1084
20.1115
20.1035
20.1108
20.1028
20.1121
20.1111
20.1115
20.1107
20.0805
20.1123
20.0771
20.1154
20.084
20.0933
20.0816
20.0946
20.122
20.0718
20.1084
20.0849
20.1006
20.0787
20.091
20.0874
20.1047
20.1134
20.1045
20.1124
20.1124
20.1138
20.1119
20.113
20.1123
20.1123
20.1116
20.1116
20.1107
20.1107
20.1099
20.1099
20.1133
20.1047
20.1124
20.1045
20.1138
20.1124
20.1129
20.1119
20.0719
20.122
20.0849
20.1084
20.0787
20.1006
20.0874
20.091
20.1618
20.0566
20.1397
20.07
20.156
20.0595
20.1355
20.0725
20.0884
20.0989
20.0939
20.0998
20.0908
20.0994
20.0952
20.0999
20.1001
20.1001
20.1002
20.1002
20.1001
20.1001
20.1
20.1
20.0989
20.0884
20.0998
20.0939
20.0994
20.0908
20.0999
20.0953
20.0567
20.1618
20.07
20.1397
20.0595
20.156
20.0725
20.1355
20.1501
20.076
20.1538
20.0687
20.1471
20.0746
20.1499
20.0689
20.0849
20.0954
20.0866
20.0974
20.0875
20.0969
20.089
20.0984
20.0993
20.0993
20.0999
20.0999
20.0995
20.0995
20.0999
20.0999
20.0954
20.0849
20.0974
20.0866
20.0969
20.0875
20.0984
20.089
20.076
20.15
20.0687
20.1537
20.0746
20.1471
20.069
20.1499
20.1465
20.0833
20.148
20.0804
20.1441
20.0803
20.1455
20.0781
20.0845
20.0931
20.0844
20.094
20.0871
20.095
20.087
20.0957
20.0975
20.0975
20.0985
20.0985
20.0981
20.0981
20.0988
20.0988
20.0931
20.0846
20.094
20.0844
20.095
20.0871
20.0957
20.087
20.0833
20.1464
20.0804
20.148
20.0803
20.1441
20.0781
20.1454
20.1443
20.0863
20.1453
20.0852
20.142
20.0824
20.143
20.0817
20.0854
20.0921
20.0849
20.0925
20.0881
20.0943
20.0876
20.0945
20.0958
20.0958
20.0966
20.0966
20.0967
20.0967
20.0974
20.0974
20.0921
20.0854
20.0925
20.085
20.0943
20.0881
20.0945
20.0876
20.0863
20.1442
20.0852
20.1452
20.0824
20.142
20.0817
20.1429
20.1427
20.0873
20.1434
20.087
20.1404
20.0827
20.1411
20.0827
20.0864
20.0919
20.0859
20.0919
20.0892
20.0944
20.0887
20.0943
20.0947
20.0947
20.0952
20.0952
20.0958
20.0958
20.0962
20.0962
20.0919
20.0864
20.0919
20.0859
20.0944
20.0892
20.0943
20.0887
20.0873
20.1427
20.087
20.1434
20.0827
20.1403
20.0827
20.1411
20.1415
20.0873
20.1421
20.0874
20.139
20.0822
20.1397
20.0825
20.087
20.0921
20.0867
20.0919
20.09
20.0949
20.0896
20.0946
20.0943
20.0943
20.0945
20.0945
20.0955
20.0955
20.0956
20.0956
20.0921
20.087
20.0919
20.0867
20.0949
20.09
20.0946
20.0897
20.0873
20.1414
20.0874
20.142
20.0822
20.1389
20.0825
20.1396
20.1403
20.0868
20.1409
20.0871
20.1377
20.0812
20.1384
20.0817
20.0874
20.0925
20.0872
20.0922
20.0906
20.0956
20.0903
20.0952
20.0943
20.0943
20.0943
20.0943
20.0957
20.0957
20.0956
20.0956
20.0925
20.0874
20.0922
20.0872
20.0956
20.0906
20.0952
20.0903
20.0868
20.1403
20.0871
20.1408
20.0812
20.1377
20.0817
20.1383
20.1393
20.086
20.1398
20.0865
20.1366
20.0801
20.1372
20.0807
20.0875
20.0929
20.0875
20.0927
20.0909
20.0963
20.0908
20.096
20.0947
20.0947
20.0945
20.0945
20.0961
20.0961
20.0959
20.0959
20.0929
20.0875
20.0927
20.0875
20.0963
20.0909
20.096
20.0908
20.086
20.1393
20.0864
20.1398
20.0801
20.1366
20.0807
20.1371
20.1384
20.0851
20.1389
20.0856
20.1355
20.0788
20.1361
20.0794
20.0875
20.0934
20.0875
20.0932
20.091
20.0971
20.091
20.0967
20.0952
20.0952
20.0949
20.0949
20.0967
20.0967
20.0964
20.0964
20.0934
20.0875
20.0932
20.0875
20.0971
20.091
20.0967
20.091
20.0851
20.1383
20.0856
20.1388
20.0788
20.1355
20.0794
20.136
20.1375
20.0842
20.1379
20.0847
20.1345
20.0776
20.135
20.0782
20.0874
20.0939
20.0875
20.0936
20.091
20.0977
20.091
20.0974
20.0958
20.0958
20.0955
20.0955
20.0974
20.0974
20.0971
20.0971
20.0939
20.0874
20.0936
20.0875
20.0977
20.091
20.0974
20.0911
20.0842
20.1374
20.0847
20.1379
20.0776
20.1345
20.0782
20.135
20.1366
20.0833
20.137
20.0837
20.1336
20.0764
20.134
20.077
20.0872
20.0942
20.0873
20.0941
20.0909
20.0983
20.091
20.098
20.0964
20.0964
20.0961
20.0961
20.0981
20.0981
20.0978
20.0978
20.0942
20.0872
20.0941
20.0873
20.0983
20.0909
20.098
20.091
20.0833
20.1366
20.0837
20.137
20.0764
20.1335
20.077
20.134
20.1358
20.0824
20.1362
20.0828
20.1326
20.0753
20.1331
20.0759
20.087
20.0946
20.0871
20.0944
20.0907
20.0987
20.0908
20.0985
20.097
20.097
20.0968
20.0968
20.0988
20.0988
20.0985
20.0985
20.0946
20.087
20.0944
20.0871
20.0987
20.0907
20.0985
20.0908
20.0824
20.1357
20.0828
20.1362
20.0753
20.1326
20.0759
20.1331
20.135
20.0815
20.1354
20.0819
20.1318
20.0743
20.1322
20.0748
20.0867
20.0948
20.0869
20.0947
20.0905
20.0991
20.0906
20.0989
20.0976
20.0976
20.0973
20.0973
20.0994
20.0993
20.0991
20.0991
20.0948
20.0867
20.0947
20.0869
20.0991
20.0905
20.0989
20.0906
20.0815
20.135
20.0819
20.1353
20.0743
20.1317
20.0748
20.1322
20.1342
20.0807
20.1346
20.0811
20.1309
20.0734
20.1313
20.0738
20.0865
20.095
20.0866
20.0949
20.0902
20.0993
20.0903
20.0992
20.098
20.098
20.0978
20.0978
20.0998
20.0998
20.0996
20.0996
20.095
20.0865
20.0949
20.0866
20.0993
20.0902
20.0992
20.0903
20.0807
20.1342
20.0811
20.1346
20.0734
20.1309
20.0738
20.1313
20.1335
20.0799
20.1339
20.0803
20.1301
20.0725
20.1305
20.0729
20.0862
20.0951
20.0863
20.095
20.0899
20.0995
20.0901
20.0994
20.0984
20.0984
20.0982
20.0982
20.1002
20.1002
20.1
20.1
20.0951
20.0862
20.095
20.0863
20.0995
20.0899
20.0994
20.0901
20.0799
20.1335
20.0803
20.1338
20.0725
20.1301
20.0729
20.1305