/*--------------------------------*- C++ -*----------------------------------*\
  =========                 |
  \\      /  F ield         | OpenFOAM: The Open Source CFD Toolbox
   \\    /   O peration     | Website:  https://openfoam.org
    \\  /    A nd           | Version:  9
     \\/     M anipulation  |
\*---------------------------------------------------------------------------*/
FoamFile
{
    format      ascii;
    class       volVectorField;
    location    "4.35";
    object      U;
}
// * * * * * * * * * * * * * * * * * * * * * * * * * * * * * * * * * * * * * //

dimensions      [0 1 -1 0 0 0 0];

internalField   nonuniform List<vector> 
36360
(
(0.00618697 -0.129176 -0.494212)
(-0.0033788 -0.0906494 0.00029174)
(0.00717559 -0.136137 -0.497648)
(-0.00483838 -0.0824284 0.000208334)
(0.00538791 -0.159039 -0.500119)
(0.0010414 -0.0615204 -6.58216e-05)
(0.0131181 -0.17511 -0.501373)
(-0.00179383 -0.0564533 -3.41814e-05)
(0.00364358 -0.0942552 -0.000202425)
(0.00298469 -0.0982618 -1.37463e-05)
(0.00201636 -0.0931094 -0.000152415)
(0.00138672 -0.0974558 -8.43585e-06)
(0.0060514 -0.0874617 8.14055e-05)
(0.00456367 -0.101378 -4.51687e-06)
(0.00655438 -0.095042 2.55098e-05)
(0.00576334 -0.107623 -7.82397e-06)
(0.00241132 -0.100326 -4.50398e-07)
(0.00241113 -0.100327 4.54561e-07)
(0.000741291 -0.0994427 -1.42273e-07)
(0.000741181 -0.0994438 1.44078e-07)
(0.00412681 -0.105853 -1.42873e-06)
(0.00412644 -0.105854 1.42946e-06)
(0.00560215 -0.111228 -1.98311e-06)
(0.00560186 -0.111229 1.9805e-06)
(0.00298416 -0.0982642 1.37432e-05)
(0.00364366 -0.0942572 0.00020235)
(0.00138604 -0.0974586 8.43146e-06)
(0.00201591 -0.093112 0.000152336)
(0.00456302 -0.101384 4.52275e-06)
(0.0060514 -0.0874736 -8.12891e-05)
(0.00576278 -0.107627 7.82007e-06)
(0.00655427 -0.0950538 -2.54521e-05)
(-0.00337369 -0.0906457 -0.000291539)
(0.00618219 -0.129168 0.494218)
(-0.0048341 -0.0824273 -0.00020814)
(0.00716857 -0.136123 0.497654)
(0.00104822 -0.0615281 6.56619e-05)
(0.00538382 -0.159015 0.50012)
(-0.00178684 -0.05647 3.40798e-05)
(0.013108 -0.175073 0.501374)
(0.00919282 -0.124962 -0.491077)
(-0.00795566 -0.093521 0.000124263)
(0.00810306 -0.128449 -0.492709)
(-0.0058363 -0.091254 0.000204961)
(0.00633248 -0.150275 -0.500041)
(-0.00643214 -0.0646659 -0.000338305)
(0.00527337 -0.155452 -0.500359)
(-0.0031346 -0.0602938 -0.000193998)
(0.00184448 -0.0937353 -5.33387e-05)
(0.00252172 -0.0973162 3.58062e-06)
(0.00297066 -0.0936495 -0.00012165)
(0.00309543 -0.0977877 -8.68798e-06)
(0.00309986 -0.0801083 0.000342039)
(0.00246831 -0.0936806 2.45458e-05)
(0.00454504 -0.0820252 0.00021249)
(0.00363483 -0.0964152 6.38392e-06)
(0.00238227 -0.0993842 -7.39634e-07)
(0.00238229 -0.099385 7.43572e-07)
(0.00280446 -0.0999027 -1.1087e-06)
(0.00280439 -0.0999036 1.11387e-06)
(0.00230119 -0.0987132 1.46838e-07)
(0.00230118 -0.098715 -1.46848e-07)
(0.00338773 -0.101388 -1.05626e-06)
(0.00338757 -0.10139 1.05788e-06)
(0.00252196 -0.0973182 -3.55089e-06)
(0.00184592 -0.0937367 5.33764e-05)
(0.00309539 -0.09779 8.70038e-06)
(0.00297172 -0.0936515 0.000121648)
(0.00246847 -0.0936865 -2.45037e-05)
(0.00310068 -0.0801172 -0.000341767)
(0.00363475 -0.0964214 -6.3606e-06)
(0.00454569 -0.0820359 -0.00021228)
(-0.00794999 -0.0935167 -0.000124312)
(0.00918687 -0.124955 0.491085)
(-0.00583057 -0.0912501 -0.000204909)
(0.00809772 -0.128441 0.492717)
(-0.00642555 -0.0646658 0.000337845)
(0.00632628 -0.150257 0.500042)
(-0.00312755 -0.0602984 0.000193684)
(0.00526788 -0.155429 0.50036)
(0.0100958 -0.119378 -0.488239)
(-0.00986991 -0.096098 -5.72062e-05)
(0.00974707 -0.121883 -0.489596)
(-0.0091368 -0.0949695 3.65937e-05)
(0.0070835 -0.139483 -0.499504)
(-0.00866452 -0.0734088 -0.000644546)
(0.00679479 -0.144612 -0.499757)
(-0.00794435 -0.0691506 -0.000490354)
(0.000413892 -0.0937993 6.10338e-05)
(0.00140136 -0.096167 5.4989e-05)
(0.000997229 -0.0936802 7.97887e-06)
(0.00189852 -0.0966637 2.6108e-05)
(0.00165803 -0.0789681 0.000575646)
(0.00115885 -0.0899919 8.27342e-05)
(0.0021973 -0.0790402 0.000465069)
(0.00166454 -0.0914497 5.08156e-05)
(0.00137861 -0.097974 7.62023e-06)
(0.00137867 -0.0979747 -7.63248e-06)
(0.00182323 -0.098631 2.352e-06)
(0.00182328 -0.0986317 -2.3532e-06)
(0.00105785 -0.0949958 8.37574e-06)
(0.00105788 -0.0949975 -8.3392e-06)
(0.0014999 -0.0965272 3.3264e-06)
(0.00149992 -0.096529 -3.33311e-06)
(0.00140165 -0.0961684 -5.49555e-05)
(0.000415132 -0.0937993 -6.1012e-05)
(0.00189883 -0.0966654 -2.60693e-05)
(0.000998636 -0.0936809 -7.93323e-06)
(0.00115912 -0.0899971 -8.27659e-05)
(0.00165859 -0.078973 -0.00057543)
(0.00166479 -0.0914552 -5.07704e-05)
(0.00219803 -0.0790472 -0.000464769)
(-0.00986472 -0.0960932 5.69686e-05)
(0.0100898 -0.119373 0.488249)
(-0.0091314 -0.0949648 -3.67332e-05)
(0.00974101 -0.121878 0.489605)
(-0.00865899 -0.073404 0.000643827)
(0.00707779 -0.139472 0.499506)
(-0.00793843 -0.0691475 0.000489753)
(0.00678856 -0.144597 0.499758)
(0.0105638 -0.115446 -0.485761)
(-0.0107386 -0.0978142 -0.000245188)
(0.0103502 -0.117257 -0.486907)
(-0.0103652 -0.097031 -0.000152595)
(0.00737222 -0.130854 -0.49904)
(-0.00933696 -0.0805913 -0.000941818)
(0.0072479 -0.134912 -0.499258)
(-0.00906326 -0.0772524 -0.000795655)
(-0.000226491 -0.0944946 0.000138023)
(0.000766965 -0.0957039 0.000119284)
(3.68475e-05 -0.0940897 0.000104318)
(0.00103593 -0.0958535 8.70653e-05)
(0.00122789 -0.0804399 0.00075383)
(0.000564273 -0.08856 0.000154975)
(0.00135734 -0.0794972 0.000671124)
(0.000817962 -0.0890834 0.000117474)
(0.000819809 -0.0970848 2.28639e-05)
(0.00082012 -0.0970852 -2.29804e-05)
(0.00105703 -0.0974571 1.46334e-05)
(0.00105706 -0.0974575 -1.4614e-05)
(0.00063993 -0.093072 2.21832e-05)
(0.000640172 -0.0930737 -2.33685e-05)
(0.000804043 -0.0938931 1.53917e-05)
(0.00080405 -0.0938944 -1.45247e-05)
(0.000767564 -0.0957046 -0.000119017)
(-0.000225696 -0.0944934 -0.0001379)
(0.00103598 -0.0958545 -8.72116e-05)
(3.82132e-05 -0.0940892 -0.000104342)
(0.000564908 -0.0885633 -0.000153331)
(0.00122757 -0.0804418 -0.000752508)
(0.000818047 -0.0890875 -0.000118371)
(0.00135826 -0.0795012 -0.000671871)
(-0.0107337 -0.0978096 0.000244736)
(0.0105579 -0.115443 0.485773)
(-0.0103601 -0.0970263 0.000152355)
(0.0103442 -0.117253 0.486918)
(-0.00933227 -0.0805849 0.000939971)
(0.00736704 -0.130847 0.499042)
(-0.00905813 -0.0772467 0.000795427)
(0.00724238 -0.134903 0.499261)
(0.0109119 -0.112578 -0.483642)
(-0.0112779 -0.0990152 -0.000417464)
(0.0107428 -0.113902 -0.484612)
(-0.0110308 -0.098467 -0.000333668)
(0.00752182 -0.124162 -0.498633)
(-0.00968752 -0.0858086 -0.0012074)
(0.00744192 -0.127288 -0.498823)
(-0.00951775 -0.0834251 -0.00107801)
(-0.000486747 -0.0954174 0.000180058)
(0.000437589 -0.095761 0.000180101)
(-0.000393213 -0.0949433 0.000162715)
(0.000574458 -0.0956823 0.000150243)
(0.00128644 -0.0827917 0.000877212)
(0.000222696 -0.0882771 0.000224557)
(0.00123384 -0.0815699 0.000821096)
(0.000373429 -0.0883131 0.000188384)
(0.000500653 -0.0967043 4.16998e-05)
(0.000500954 -0.0967045 -4.166e-05)
(0.000641225 -0.0968409 3.20848e-05)
(0.000640911 -0.0968412 -3.21313e-05)
(0.000427704 -0.0920115 4.0401e-05)
(0.000428008 -0.0920122 -4.06145e-05)
(0.000522326 -0.0924598 3.17564e-05)
(0.000521994 -0.092461 -3.11e-05)
(0.0004378 -0.0957611 -0.000179895)
(-0.000485932 -0.095416 -0.000180044)
(0.000574984 -0.0956826 -0.000150487)
(-0.000391371 -0.094942 -0.000162891)
(0.000223074 -0.0882798 -0.000223393)
(0.001286 -0.0827927 -0.000876962)
(0.00037404 -0.0883165 -0.000191397)
(0.00123428 -0.081571 -0.000821111)
(-0.0112729 -0.0990113 0.000416948)
(0.0109061 -0.112576 0.483654)
(-0.0110255 -0.0984627 0.000333388)
(0.010737 -0.113899 0.484624)
(-0.009683 -0.0858025 0.00120582)
(0.00751704 -0.124158 0.498635)
(-0.0095129 -0.0834187 0.00107846)
(0.00743693 -0.127283 0.498827)
(0.0112052 -0.110462 -0.481824)
(-0.0116845 -0.0998697 -0.000567719)
(0.0110603 -0.111442 -0.482643)
(-0.0114888 -0.0994768 -0.000495499)
(0.0076429 -0.119032 -0.498277)
(-0.00997387 -0.0894603 -0.00143538)
(0.00757063 -0.121429 -0.498442)
(-0.00982116 -0.0877979 -0.00132596)
(-0.000525227 -0.0963748 0.000196869)
(0.000279457 -0.0961248 0.000231951)
(-0.000524204 -0.0958993 0.000191025)
(0.000343102 -0.0959153 0.000207353)
(0.0014551 -0.0852375 0.0009595)
(6.17298e-06 -0.0886329 0.000284438)
(0.00136564 -0.0840286 0.000922772)
(0.000102637 -0.0883965 0.000255681)
(0.00029159 -0.0966808 6.05221e-05)
(0.000291692 -0.0966809 -6.04086e-05)
(0.000387135 -0.0966564 5.12735e-05)
(0.000387239 -0.0966566 -5.11799e-05)
(0.000276159 -0.0914974 5.85393e-05)
(0.000276293 -0.0914982 -5.84237e-05)
(0.00034722 -0.0916967 4.96809e-05)
(0.000347348 -0.0916978 -4.95713e-05)
(0.000279638 -0.0961245 -0.000231764)
(-0.000524412 -0.0963729 -0.00019685)
(0.000343348 -0.0959151 -0.000207181)
(-0.000523309 -0.0958976 -0.000191)
(6.62543e-06 -0.0886343 -0.000284206)
(0.00145465 -0.0852366 -0.00095912)
(0.000103104 -0.0883984 -0.000255496)
(0.00136527 -0.084028 -0.000922373)
(-0.0116795 -0.0998661 0.000567203)
(0.0111994 -0.11046 0.481837)
(-0.0114838 -0.099473 0.000495007)
(0.0110544 -0.11144 0.482655)
(-0.00996938 -0.0894543 0.00143421)
(0.00763839 -0.119029 0.49828)
(-0.00981668 -0.0877916 0.00132484)
(0.00756583 -0.121425 0.498445)
(0.0114612 -0.108879 -0.480249)
(-0.0120157 -0.100495 -0.000694566)
(0.011333 -0.109615 -0.480944)
(-0.0118558 -0.100206 -0.000633964)
(0.00775559 -0.115083 -0.497966)
(-0.0102386 -0.0920143 -0.00162683)
(0.00768581 -0.116932 -0.498109)
(-0.0100963 -0.0908493 -0.00153545)
(-0.000472469 -0.0972688 0.000197272)
(0.000215565 -0.0966457 0.000272491)
(-0.000503089 -0.0968326 0.000198663)
(0.000239777 -0.0963722 0.000253622)
(0.00164424 -0.087462 0.00101187)
(-0.000126879 -0.0893245 0.000332583)
(0.00155236 -0.0863853 0.000988728)
(-6.85955e-05 -0.0889499 0.000310053)
(0.000143731 -0.0968915 7.71502e-05)
(0.0001438 -0.0968914 -7.70102e-05)
(0.000211386 -0.0967632 6.91909e-05)
(0.000211474 -0.0967632 -6.90629e-05)
(0.000157901 -0.0913787 7.46263e-05)
(0.000158023 -0.0913791 -7.44846e-05)
(0.000213787 -0.0913953 6.6908e-05)
(0.000213914 -0.091396 -6.67788e-05)
(0.00021564 -0.096645 -0.000272289)
(-0.000471764 -0.0972669 -0.000197277)
(0.000239905 -0.0963717 -0.000253426)
(-0.000502335 -0.0968307 -0.000198655)
(-0.00012648 -0.0893251 -0.000332333)
(0.00164367 -0.0874602 -0.00101151)
(-6.81608e-05 -0.0889508 -0.00030981)
(0.00155185 -0.0863839 -0.000988356)
(-0.0120106 -0.100492 0.000694004)
(0.0114554 -0.108877 0.480262)
(-0.0118507 -0.100202 0.000633424)
(0.0113272 -0.109614 0.480957)
(-0.0102341 -0.0920089 0.00162558)
(0.00775126 -0.115081 0.497968)
(-0.0100919 -0.0908436 0.00153423)
(0.00768123 -0.116929 0.498111)
(0.0116853 -0.107674 -0.478877)
(-0.012287 -0.100965 -0.000799816)
(0.0115729 -0.108237 -0.479474)
(-0.0121551 -0.100746 -0.000749661)
(0.00786262 -0.112006 -0.497693)
(-0.0104798 -0.0938181 -0.00178538)
(0.00779549 -0.113452 -0.497817)
(-0.0103495 -0.0929924 -0.00170987)
(-0.000396583 -0.0980669 0.000188121)
(0.000200367 -0.0972335 0.000302238)
(-0.000434472 -0.0976804 0.00019357)
(0.000204072 -0.0969355 0.000288567)
(0.00181504 -0.0893784 0.00104371)
(-0.000190168 -0.090173 0.000368858)
(0.00173466 -0.0884588 0.00102984)
(-0.00016665 -0.0897358 0.000352111)
(4.11399e-05 -0.0972501 9.04465e-05)
(4.11702e-05 -0.0972499 -9.02893e-05)
(8.75509e-05 -0.0970566 8.42046e-05)
(8.75995e-05 -0.0970564 -8.40555e-05)
(6.8492e-05 -0.0915418 8.79185e-05)
(6.85865e-05 -0.091542 -8.77576e-05)
(0.0001097 -0.0914299 8.16507e-05)
(0.000109812 -0.0914303 -8.14987e-05)
(0.000200356 -0.0972326 -0.00030203)
(-0.000395942 -0.098065 -0.000188149)
(0.000204095 -0.0969347 -0.000288362)
(-0.000433804 -0.0976784 -0.000193587)
(-0.000189929 -0.0901728 -0.000368598)
(0.00181438 -0.0893762 -0.00104337)
(-0.000166346 -0.089736 -0.000351855)
(0.00173403 -0.0884568 -0.00102948)
(-0.0122818 -0.100962 0.000799222)
(0.0116796 -0.107673 0.478891)
(-0.01215 -0.100743 0.000749082)
(0.0115672 -0.108236 0.479488)
(-0.0104753 -0.0938133 0.00178408)
(0.00785841 -0.112005 0.497696)
(-0.0103451 -0.0929873 0.00170859)
(0.00779106 -0.11345 0.49782)
(0.0118793 -0.10674 -0.477666)
(-0.0125098 -0.101325 -0.000886351)
(0.0117813 -0.107179 -0.478179)
(-0.0124009 -0.101156 -0.000845156)
(0.00796029 -0.109576 -0.497454)
(-0.0106913 -0.0951088 -0.00191566)
(0.00789715 -0.110722 -0.497561)
(-0.0105753 -0.0945156 -0.0018537)
(-0.000319265 -0.0987642 0.000173957)
(0.000210109 -0.0978308 0.000322987)
(-0.000356433 -0.0984277 0.000181471)
(0.000202997 -0.0975332 0.000313591)
(0.00195719 -0.0909907 0.00106187)
(-0.000207881 -0.0910767 0.000394888)
(0.00189173 -0.0902199 0.00105413)
(-0.00020234 -0.0906221 0.000383008)
(-2.46064e-05 -0.0976869 0.000100526)
(-2.46104e-05 -0.0976866 -0.000100356)
(4.08734e-06 -0.097463 9.58691e-05)
(4.09992e-06 -0.0974627 -9.57051e-05)
(1.8575e-05 -0.0919027 9.80637e-05)
(1.86534e-05 -0.0919027 -9.78894e-05)
(3.95056e-05 -0.0917014 9.33671e-05)
(3.95887e-05 -0.0917015 -9.3199e-05)
(0.00021002 -0.0978298 -0.000322777)
(-0.000318658 -0.0987623 -0.000174005)
(0.000202944 -0.0975323 -0.000313382)
(-0.000355812 -0.0984258 -0.00018151)
(-0.000207722 -0.0910761 -0.000394624)
(0.00195647 -0.0909883 -0.00106155)
(-0.000202144 -0.0906217 -0.000382746)
(0.00189103 -0.0902176 -0.0010538)
(-0.0125046 -0.101322 0.000885735)
(0.0118736 -0.106739 0.47768)
(-0.0123956 -0.101154 0.00084455)
(0.0117756 -0.107178 0.478193)
(-0.0106868 -0.0951045 0.00191432)
(0.00795616 -0.109575 0.497457)
(-0.0105708 -0.0945111 0.00185237)
(0.00789282 -0.110721 0.497564)
(0.0120464 -0.106 -0.476596)
(-0.012692 -0.101603 -0.000957179)
(0.0119617 -0.10635 -0.477043)
(-0.0126025 -0.101473 -0.000923468)
(0.00804758 -0.107623 -0.497244)
(-0.010873 -0.0960472 -0.00202223)
(0.00798992 -0.108549 -0.497337)
(-0.0107719 -0.0956139 -0.00197159)
(-0.000244965 -0.0993665 0.00015772)
(0.000237359 -0.0984079 0.000336212)
(-0.000280791 -0.0990766 0.000165989)
(0.000222162 -0.0981229 0.000330331)
(0.00207164 -0.0923349 0.00107108)
(-0.000203328 -0.0919695 0.000412773)
(0.00201936 -0.0916932 0.00106734)
(-0.000207456 -0.0915269 0.000404717)
(-5.48875e-05 -0.0981591 0.000107279)
(-5.4914e-05 -0.0981588 -0.0001071)
(-4.39263e-05 -0.097919 0.000104221)
(-4.39401e-05 -0.0979187 -0.000104046)
(-2.85089e-05 -0.0923881 0.00010539)
(-2.84406e-05 -0.0923879 -0.000105205)
(-4.77556e-06 -0.0921337 0.000102053)
(-4.70029e-06 -0.0921336 -0.000101874)
(0.000237223 -0.0984069 -0.000336002)
(-0.000244364 -0.0993647 -0.000157783)
(0.000222046 -0.0981219 -0.000330121)
(-0.00028019 -0.0990748 -0.000166045)
(-0.000203229 -0.0919685 -0.000412507)
(0.00207089 -0.0923324 -0.00107078)
(-0.000207328 -0.0915261 -0.000404452)
(0.00201862 -0.0916908 -0.00106702)
(-0.0126867 -0.101601 0.000956551)
(0.0120408 -0.105999 0.476611)
(-0.0125972 -0.10147 0.000922846)
(0.011956 -0.106349 0.477057)
(-0.0108685 -0.0960434 0.00202087)
(0.00804349 -0.107622 0.497247)
(-0.0107674 -0.0956099 0.00197023)
(0.00798565 -0.108547 0.49734)
(0.0121901 -0.105398 -0.475639)
(-0.0128375 -0.101819 -0.00101498)
(0.0121161 -0.105685 -0.476022)
(-0.012766 -0.101718 -0.000987444)
(0.0081224 -0.106026 -0.497059)
(-0.0110239 -0.0967397 -0.00210902)
(0.00806975 -0.106786 -0.497139)
(-0.0109372 -0.0964188 -0.00206781)
(-0.000172336 -0.0998793 0.000141196)
(0.00027593 -0.0989462 0.000344252)
(-0.000207326 -0.0996337 0.000149434)
(0.000255848 -0.098683 0.000340725)
(0.00216329 -0.093448 0.00107444)
(-0.000178747 -0.0928102 0.000424431)
(0.00212207 -0.0929175 0.00107331)
(-0.000193808 -0.0923973 0.000419252)
(-6.08743e-05 -0.0986407 0.000111747)
(-6.09207e-05 -0.0986404 -0.000111559)
(-6.01424e-05 -0.0984011 0.000109752)
(-6.01783e-05 -0.0984008 -0.000109568)
(-6.02781e-05 -0.0929405 0.000110388)
(-6.0218e-05 -0.0929403 -0.000110194)
(-4.71363e-05 -0.0926583 0.000108137)
(-4.70738e-05 -0.0926581 -0.000107948)
(0.000275758 -0.0989452 -0.00034404)
(-0.000171743 -0.0998777 -0.000141269)
(0.000255694 -0.098682 -0.000340515)
(-0.000206729 -0.099632 -0.000149503)
(-0.000178704 -0.0928091 -0.000424162)
(0.00216251 -0.0934456 -0.00107414)
(-0.000193736 -0.0923963 -0.000418984)
(0.0021213 -0.0929151 -0.00107301)
(-0.0128321 -0.101817 0.00101435)
(0.0121844 -0.105397 0.475654)
(-0.0127607 -0.101716 0.000986812)
(0.0121104 -0.105684 0.476037)
(-0.0110193 -0.0967363 0.00210764)
(0.00811835 -0.106024 0.497062)
(-0.0109327 -0.0964152 0.00206643)
(0.00806552 -0.106785 0.497142)
(0.0123153 -0.104888 -0.474775)
(-0.0129466 -0.101978 -0.00106207)
(0.0122501 -0.105134 -0.475114)
(-0.0128933 -0.101905 -0.00103963)
(0.00818587 -0.104689 -0.496895)
(-0.0111436 -0.0972545 -0.00217941)
(0.00813887 -0.10533 -0.496965)
(-0.0110725 -0.097016 -0.00214602)
(-9.99437e-05 -0.100306 0.000125438)
(0.000321879 -0.0994273 0.000348672)
(-0.000135251 -0.100103 0.000133217)
(0.000297904 -0.0991946 0.000346803)
(0.00223515 -0.0943646 0.00107399)
(-0.000141062 -0.0935822 0.000431577)
(0.00220344 -0.0939285 0.00107455)
(-0.000159971 -0.0932051 0.000428463)
(-4.66831e-05 -0.099095 0.000114459)
(-4.67554e-05 -0.0990947 -0.000114267)
(-5.69546e-05 -0.0988728 0.000113282)
(-5.70093e-05 -0.0988724 -0.000113094)
(-7.7635e-05 -0.0935156 0.000113648)
(-7.7556e-05 -0.0935153 -0.000113443)
(-6.91942e-05 -0.0932271 0.000112205)
(-6.91268e-05 -0.0932268 -0.000112006)
(0.00032168 -0.0994263 -0.000348452)
(-9.93527e-05 -0.100304 -0.000125506)
(0.000297719 -0.0991935 -0.000346588)
(-0.000134659 -0.100102 -0.00013329)
(-0.000141062 -0.093581 -0.0004313)
(0.00223434 -0.0943623 -0.00107369)
(-0.000159952 -0.0932039 -0.00042819)
(0.00220265 -0.0939261 -0.00107426)
(-0.0129412 -0.101976 0.00106145)
(0.0123097 -0.104887 0.47479)
(-0.0128879 -0.101903 0.001039)
(0.0122445 -0.105133 0.475129)
(-0.011139 -0.0972514 0.00217803)
(0.00818182 -0.104688 0.496898)
(-0.011068 -0.0970127 0.00214464)
(0.00813465 -0.105329 0.496967)
(0.012427 -0.104434 -0.473988)
(-0.0130204 -0.102082 -0.00110027)
(0.0123676 -0.104656 -0.47428)
(-0.0129844 -0.102037 -0.00108205)
(0.00823869 -0.103543 -0.496748)
(-0.011232 -0.0976311 -0.00223609)
(0.00819565 -0.104097 -0.496809)
(-0.0111757 -0.097458 -0.00220924)
(-2.35069e-05 -0.100646 0.000110933)
(0.00037786 -0.0998412 0.000350391)
(-6.13393e-05 -0.100487 0.000118033)
(0.000349003 -0.0996431 0.000349722)
(0.00228919 -0.095111 0.00107115)
(-0.000102382 -0.0942721 0.000435529)
(0.00226655 -0.0947572 0.00107276)
(-0.000121319 -0.0939376 0.000433869)
(-8.54539e-06 -0.099507 0.000115651)
(-8.62901e-06 -0.0995066 -0.000115523)
(-2.98187e-05 -0.0993069 0.000115178)
(-2.98983e-05 -0.0993065 -0.00011499)
(-8.85897e-05 -0.0940794 0.000115546)
(-8.85258e-05 -0.094079 -0.000115359)
(-8.46831e-05 -0.0938003 0.000114741)
(-8.46077e-05 -0.0937999 -0.000114535)
(0.000377637 -0.0998402 -0.000350215)
(-2.2922e-05 -0.100644 -0.000110814)
(0.000348792 -0.0996421 -0.000349501)
(-6.07491e-05 -0.100485 -0.000118074)
(-0.000102428 -0.0942707 -0.000435244)
(0.00228836 -0.0951088 -0.00107078)
(-0.000121337 -0.0939363 -0.000433585)
(0.00226572 -0.0947549 -0.00107244)
(-0.013015 -0.102081 0.00109985)
(0.0124214 -0.104433 0.474003)
(-0.012979 -0.102035 0.00108146)
(0.0123619 -0.104655 0.474296)
(-0.0112274 -0.0976282 0.00223477)
(0.00823468 -0.103542 0.496751)
(-0.0111711 -0.097455 0.00220788)
(0.00819145 -0.104095 0.496811)
(0.0125312 -0.104003 -0.473271)
(-0.0130588 -0.102122 -0.00113279)
(0.0124748 -0.104218 -0.473525)
(-0.0130405 -0.102112 -0.00111591)
(0.00828473 -0.102526 -0.496617)
(-0.0112835 -0.0978886 -0.00228156)
(0.00824391 -0.103022 -0.49667)
(-0.0112459 -0.0977743 -0.00225989)
(6.11494e-05 -0.1009 9.61214e-05)
(0.000443425 -0.100179 0.000351764)
(1.87612e-05 -0.100783 0.000104741)
(0.000409647 -0.10002 0.000350238)
(0.00231893 -0.095711 0.00106654)
(-6.45411e-05 -0.0948701 0.000437342)
(0.00230931 -0.0954272 0.00106912)
(-8.30363e-05 -0.0945824 0.000436593)
(4.61751e-05 -0.0998587 0.000116406)
(4.61124e-05 -0.0998583 -0.000115624)
(1.69372e-05 -0.0996916 0.000115796)
(1.68595e-05 -0.0996914 -0.000115914)
(-8.5268e-05 -0.094602 0.000116567)
(-8.51737e-05 -0.0946015 -0.000116216)
(-8.84828e-05 -0.0943471 0.000116086)
(-8.84393e-05 -0.0943466 -0.000115954)
(0.000443239 -0.100178 -0.000349743)
(6.19008e-05 -0.100898 -9.89396e-05)
(0.000409415 -0.100019 -0.000350986)
(1.93273e-05 -0.100782 -0.000103363)
(-6.44305e-05 -0.0948687 -0.000436944)
(0.00231902 -0.0957088 -0.0010666)
(-8.31511e-05 -0.0945811 -0.000436372)
(0.00230822 -0.0954252 -0.00106862)
(-0.0130533 -0.102121 0.00112958)
(0.0125257 -0.104003 0.47329)
(-0.0130351 -0.102109 0.00111675)
(0.0124692 -0.104217 0.473539)
(-0.0112799 -0.097886 0.0022798)
(0.00828042 -0.102524 0.49662)
(-0.011241 -0.0977713 0.00225871)
(0.00823984 -0.10302 0.496672)
(0.012632 -0.103564 -0.472598)
(-0.0130628 -0.102087 -0.00115815)
(0.0125766 -0.103787 -0.47283)
(-0.0130614 -0.102115 -0.00114255)
(0.00832315 -0.101586 -0.496498)
(-0.0113033 -0.0980313 -0.00231705)
(0.00828539 -0.102049 -0.496545)
(-0.0112808 -0.097974 -0.00229992)
(0.000158248 -0.101065 8.34776e-05)
(0.000522761 -0.100428 0.000351231)
(0.000109428 -0.100994 9.34225e-05)
(0.000481154 -0.100315 0.000349446)
(0.00233292 -0.0961834 0.00106122)
(-2.47058e-05 -0.095367 0.000437521)
(0.00233013 -0.0959621 0.00106437)
(-4.45623e-05 -0.0951317 0.000437449)
(0.000116418 -0.100127 0.000116276)
(0.00011639 -0.100127 -0.000115385)
(7.94934e-05 -0.100004 0.000115711)
(7.9443e-05 -0.100004 -0.000116281)
(-7.67556e-05 -0.0950578 0.000116848)
(-7.66544e-05 -0.0950574 -0.000116487)
(-8.05443e-05 -0.0948398 0.000116597)
(-8.05179e-05 -0.0948393 -0.00011657)
(0.000522768 -0.100427 -0.000349025)
(0.00015968 -0.101063 -8.83987e-05)
(0.000480901 -0.100315 -0.000351561)
(0.000109855 -0.100993 -8.97043e-05)
(-2.45586e-05 -0.0953657 -0.000437138)
(0.00233307 -0.0961814 -0.00106147)
(-4.47807e-05 -0.0951303 -0.000437312)
(0.00232865 -0.09596 -0.00106361)
(-0.0130571 -0.102087 0.0011538)
(0.0126264 -0.103564 0.47262)
(-0.013056 -0.102113 0.00114537)
(0.0125709 -0.103786 0.472841)
(-0.0113004 -0.0980293 0.00231517)
(0.00831868 -0.101584 0.496501)
(-0.0112753 -0.0979714 0.002299)
(0.00828152 -0.102047 0.496547)
(0.0127356 -0.103089 -0.471981)
(-0.013033 -0.101968 -0.00117712)
(0.0126782 -0.103333 -0.472184)
(-0.0130481 -0.102038 -0.00116445)
(0.00835805 -0.100676 -0.496391)
(-0.0112932 -0.0980625 -0.00233993)
(0.00832112 -0.10113 -0.496432)
(-0.0112873 -0.09806 -0.00232931)
(0.000264268 -0.101132 7.50788e-05)
(0.000617042 -0.100574 0.000349708)
(0.000213169 -0.101111 8.39368e-05)
(0.000568847 -0.100515 0.000348449)
(0.00235581 -0.0965313 0.00105609)
(2.05156e-05 -0.095748 0.000436636)
(0.0023441 -0.0963731 0.00105937)
(-2.48651e-06 -0.0955725 0.00043718)
(0.000203515 -0.100297 0.000115591)
(0.000203383 -0.100297 -0.000114812)
(0.000157729 -0.100226 0.000115191)
(0.000157588 -0.100226 -0.00011587)
(-5.96549e-05 -0.0954157 0.000116754)
(-5.95932e-05 -0.0954152 -0.000116213)
(-6.96804e-05 -0.0952497 0.000116751)
(-6.96931e-05 -0.0952492 -0.000116503)
(0.000616645 -0.100573 -0.000347592)
(0.000264566 -0.101131 -7.71569e-05)
(0.000568217 -0.100514 -0.000350448)
(0.000212609 -0.10111 -7.78134e-05)
(2.05749e-05 -0.0957466 -0.000435988)
(0.0023559 -0.0965292 -0.00105543)
(-2.82264e-06 -0.095571 -0.000436729)
(0.00234241 -0.0963711 -0.00105768)
(-0.0130278 -0.101964 0.00117417)
(0.01273 -0.103087 0.471999)
(-0.0130432 -0.102038 0.00116834)
(0.0126725 -0.103332 0.472193)
(-0.0112895 -0.0980596 0.00233959)
(0.00835394 -0.100674 0.496394)
(-0.0112811 -0.0980581 0.00232991)
(0.00831761 -0.101129 0.496433)
(0.0128477 -0.102545 -0.471402)
(-0.0129722 -0.10174 -0.00119027)
(0.012785 -0.102827 -0.471578)
(-0.013003 -0.101867 -0.00118297)
(0.00839412 -0.0997525 -0.496293)
(-0.0112676 -0.0979797 -0.00236253)
(0.00835573 -0.100217 -0.496328)
(-0.0112672 -0.0980396 -0.00235119)
(0.000367114 -0.101085 6.77942e-05)
(0.000724741 -0.100598 0.000346262)
(0.000316981 -0.101124 7.23074e-05)
(0.00066917 -0.100602 0.000347194)
(0.00240826 -0.0967434 0.00105021)
(7.50553e-05 -0.095998 0.000434394)
(0.00237949 -0.096655 0.00105314)
(4.66455e-05 -0.0958901 0.000435549)
(0.000311351 -0.100346 0.000114436)
(0.000311248 -0.100345 -0.000114135)
(0.000254611 -0.100338 0.00011478)
(0.000254504 -0.100337 -0.000114722)
(-2.96448e-05 -0.0956556 0.000116062)
(-2.96101e-05 -0.0956551 -0.000115795)
(-4.62326e-05 -0.0955513 0.000116387)
(-4.62069e-05 -0.0955508 -0.000116099)
(0.000724449 -0.100597 -0.000345699)
(0.000367533 -0.101084 -6.83004e-05)
(0.000668852 -0.100601 -0.000347588)
(0.00031738 -0.101122 -7.14234e-05)
(7.5054e-05 -0.0959965 -0.000434058)
(0.00240801 -0.0967412 -0.00104995)
(4.65505e-05 -0.0958885 -0.000435205)
(0.00237872 -0.0966528 -0.00105266)
(-0.0129667 -0.101738 0.0011892)
(0.012842 -0.102544 0.47142)
(-0.0129976 -0.101866 0.0011833)
(0.0127793 -0.102826 0.471594)
(-0.0112633 -0.0979773 0.0023611)
(0.00839003 -0.0997509 0.496296)
(-0.0112625 -0.098037 0.00234988)
(0.0083516 -0.100215 0.496331)
(0.0129729 -0.101904 -0.470858)
(-0.0128788 -0.101384 -0.00119898)
(0.0129034 -0.102239 -0.471013)
(-0.0129266 -0.10158 -0.00119478)
(0.00843246 -0.0987841 -0.496204)
(-0.0112117 -0.0977539 -0.00237563)
(0.00839341 -0.0992767 -0.496234)
(-0.0112251 -0.097884 -0.00237002)
(0.000463848 -0.100895 6.15592e-05)
(0.000849332 -0.100476 0.000341978)
(0.000415742 -0.101012 6.47522e-05)
(0.000784566 -0.100557 0.00034404)
(0.00251401 -0.0967946 0.00104453)
(0.000143059 -0.0960972 0.000431352)
(0.00246114 -0.0967911 0.00104734)
(0.000107874 -0.0960676 0.000432947)
(0.000444192 -0.10025 0.00011325)
(0.000444086 -0.10025 -0.000113037)
(0.000374369 -0.100317 0.000113792)
(0.000374265 -0.100317 -0.000113644)
(1.60383e-05 -0.0957546 0.000115175)
(1.60494e-05 -0.095754 -0.000114975)
(-9.38791e-06 -0.0957241 0.00011564)
(-9.37386e-06 -0.0957235 -0.000115436)
(0.000849032 -0.100475 -0.000341652)
(0.000464184 -0.100894 -6.18078e-05)
(0.000784263 -0.100556 -0.000343968)
(0.000416067 -0.10101 -6.46396e-05)
(0.000143052 -0.0960956 -0.000431075)
(0.00251378 -0.0967923 -0.00104428)
(0.00010785 -0.096066 -0.000432672)
(0.00246084 -0.0967889 -0.00104704)
(-0.0128733 -0.101383 0.00119819)
(0.0129673 -0.101903 0.470875)
(-0.0129211 -0.101579 0.00119436)
(0.0128977 -0.102238 0.47103)
(-0.0112072 -0.0977516 0.0023742)
(0.0084284 -0.0987824 0.496207)
(-0.0112205 -0.0978817 0.00236863)
(0.00838921 -0.099275 0.496237)
(0.013119 -0.101131 -0.47034)
(-0.0127435 -0.100873 -0.00120403)
(0.013038 -0.101536 -0.470474)
(-0.0128131 -0.101149 -0.00120153)
(0.00847508 -0.0977231 -0.496121)
(-0.0111255 -0.0973768 -0.00238236)
(0.00843256 -0.0982679 -0.496147)
(-0.0111528 -0.0975854 -0.00237957)
(0.000586344 -0.100525 5.67301e-05)
(0.00100117 -0.100181 0.000337419)
(0.000521578 -0.100732 5.91471e-05)
(0.000921505 -0.100351 0.000339531)
(0.00262075 -0.09666 0.00103897)
(0.000220537 -0.0960231 0.000427665)
(0.0025701 -0.0967509 0.00104171)
(0.000180647 -0.0960831 0.000429522)
(0.00060689 -0.099983 0.00011195)
(0.000606786 -0.0999826 -0.000111746)
(0.000521492 -0.10014 0.000112566)
(0.000521388 -0.100139 -0.000112419)
(7.72888e-05 -0.0956896 0.000114103)
(7.73037e-05 -0.095689 -0.000113917)
(4.45596e-05 -0.0957442 0.000114626)
(4.45672e-05 -0.0957437 -0.000114447)
(0.00100088 -0.10018 -0.000337098)
(0.000586747 -0.100524 -5.69929e-05)
(0.000921212 -0.10035 -0.000339417)
(0.000521944 -0.100731 -5.91282e-05)
(0.000220518 -0.0960214 -0.000427401)
(0.00262043 -0.0966577 -0.00103872)
(0.000180617 -0.0960815 -0.000429266)
(0.00256974 -0.0967486 -0.00104144)
(-0.0127379 -0.100872 0.00120324)
(0.0131134 -0.10113 0.470358)
(-0.0128075 -0.101148 0.00120103)
(0.0130323 -0.101535 0.470491)
(-0.0111211 -0.0973746 0.00238092)
(0.00847101 -0.0977214 0.496124)
(-0.0111482 -0.0975831 0.00237817)
(0.00842836 -0.0982662 0.49615)
(0.0132912 -0.100191 -0.469852)
(-0.0125604 -0.100178 -0.00120613)
(0.0131964 -0.100684 -0.46997)
(-0.0126542 -0.10055 -0.00120497)
(0.00852568 -0.0965255 -0.496045)
(-0.0110116 -0.0968225 -0.00238395)
(0.00847843 -0.0971439 -0.496068)
(-0.0110532 -0.0971236 -0.00238365)
(0.000748141 -0.0999608 5.31389e-05)
(0.00118678 -0.0996868 0.000332927)
(0.000663415 -0.100269 5.50467e-05)
(0.00108979 -0.09996 0.000334928)
(0.00272972 -0.0963231 0.00103347)
(0.000308706 -0.0957472 0.000423697)
(0.0026767 -0.0965183 0.00103619)
(0.000263489 -0.0959116 0.00042572)
(0.000803478 -0.0995167 0.000110553)
(0.000803378 -0.0995164 -0.000110313)
(0.000700805 -0.0997764 0.000111186)
(0.000700704 -0.0997761 -0.000111066)
(0.000152879 -0.0954247 0.000112939)
(0.000152901 -0.0954241 -0.000112752)
(0.000113484 -0.0955833 0.000113539)
(0.000113496 -0.0955827 -0.000113373)
(0.00118651 -0.0996859 -0.000332457)
(0.000748608 -0.0999594 -5.36007e-05)
(0.00108951 -0.0999592 -0.000334896)
(0.000663851 -0.100268 -5.49375e-05)
(0.000308688 -0.0957455 -0.00042343)
(0.00272941 -0.0963208 -0.00103325)
(0.000263444 -0.0959099 -0.000425477)
(0.00267623 -0.096516 -0.00103591)
(-0.0125548 -0.100177 0.00120513)
(0.0132856 -0.10019 0.46987)
(-0.0126487 -0.100549 0.00120457)
(0.0131907 -0.100683 0.469987)
(-0.0110072 -0.0968203 0.0023825)
(0.00852161 -0.0965237 0.496048)
(-0.0110487 -0.0971213 0.00238226)
(0.00847426 -0.0971421 0.496071)
(0.0134943 -0.0990479 -0.469388)
(-0.0123289 -0.0992697 -0.00120565)
(0.0133834 -0.0996473 -0.469489)
(-0.0124472 -0.0997529 -0.00120532)
(0.00858688 -0.0951461 -0.495975)
(-0.010868 -0.0960611 -0.00238091)
(0.00853367 -0.095861 -0.495994)
(-0.0109243 -0.0964692 -0.00238283)
(0.000941826 -0.0991741 5.04952e-05)
(0.00140843 -0.0989649 0.00032857)
(0.000841545 -0.0995966 5.23427e-05)
(0.00129293 -0.0993561 0.0003302)
(0.00284423 -0.095762 0.00102798)
(0.000409656 -0.0952405 0.000419371)
(0.00278834 -0.0960711 0.00103075)
(0.00035768 -0.0955241 0.00042153)
(0.00103779 -0.09882 0.000109115)
(0.0010377 -0.0988196 -0.00010874)
(0.000915626 -0.099199 0.000109684)
(0.000915529 -0.0991987 -0.00010965)
(0.000244614 -0.0949268 0.000111623)
(0.000244652 -0.0949262 -0.000111418)
(0.00019656 -0.0952067 0.000112269)
(0.000196572 -0.0952061 -0.000112123)
(0.00140816 -0.0989639 -0.000327591)
(0.000942281 -0.0991725 -5.16176e-05)