/*--------------------------------*- C++ -*----------------------------------*\
  =========                 |
  \\      /  F ield         | OpenFOAM: The Open Source CFD Toolbox
   \\    /   O peration     | Website:  https://openfoam.org
    \\  /    A nd           | Version:  9
     \\/     M anipulation  |
\*---------------------------------------------------------------------------*/
FoamFile
{
    format      ascii;
    class       volScalarField;
    location    "3.95";
    object      k;
}
// * * * * * * * * * * * * * * * * * * * * * * * * * * * * * * * * * * * * * //

dimensions      [0 2 -2 0 0 0 0];

internalField   nonuniform List<scalar> 
36360
(
0.132885
0.113046
0.0763051
0.0679902
0.0378035
0.0319933
0.0126213
0.0142911
0.0619542
0.0334229
0.0286645
0.00952963
0.0162525
0.00721565
0.00583082
0.00344603
0.0197479
0.0197471
0.00475707
0.00475744
0.00433119
0.0043315
0.00292092
0.00292098
0.0334139
0.0619309
0.00952857
0.0286535
0.00721507
0.0162474
0.00344616
0.00582971
0.113009
0.132837
0.0679655
0.076271
0.0319817
0.0377883
0.0142853
0.0126148
0.205991
0.179419
0.173329
0.148879
0.0722932
0.0604257
0.0571505
0.0471917
0.120371
0.0870635
0.092343
0.0604365
0.0408784
0.0285881
0.0289243
0.0168909
0.0722863
0.0722778
0.0462478
0.0462426
0.0230513
0.0230492
0.0113976
0.0113973
0.0870363
0.120323
0.0604179
0.0923075
0.0285801
0.0408623
0.0168873
0.0289139
0.179353
0.205913
0.148827
0.173267
0.0604004
0.0722618
0.0471735
0.0571273
0.261052
0.232502
0.234771
0.207011
0.097068
0.08346
0.0852883
0.0723695
0.171099
0.136481
0.146536
0.112455
0.0626215
0.0500809
0.0520647
0.0396533
0.12106
0.121047
0.0973186
0.0973073
0.0445322
0.0445275
0.0341391
0.0341356
0.136439
0.171029
0.112421
0.146477
0.0500656
0.0625944
0.0396416
0.052043
0.232409
0.260944
0.206931
0.234678
0.0834206
0.0970198
0.0723371
0.0852484
0.307898
0.278338
0.285332
0.25621
0.118151
0.103614
0.107972
0.093848
0.215768
0.180392
0.194146
0.15911
0.0820009
0.0691643
0.0725878
0.0599
0.164523
0.164505
0.143447
0.143431
0.0634594
0.0634525
0.0542785
0.0542726
0.180338
0.215679
0.159061
0.194066
0.0691429
0.081964
0.0598815
0.0725556
0.278221
0.307765
0.256104
0.28521
0.103562
0.118087
0.093802
0.107915
0.348239
0.318072
0.328827
0.298926
0.136448
0.121303
0.127625
0.112753
0.254811
0.218942
0.235973
0.200323
0.0991342
0.0860303
0.0908423
0.0778651
0.202756
0.202735
0.18428
0.18426
0.0801688
0.0801601
0.072078
0.0720701
0.218878
0.254708
0.200264
0.235876
0.0860037
0.0990892
0.0778409
0.0908012
0.317938
0.348085
0.2988
0.328682
0.12124
0.136372
0.112696
0.127554
0.382675
0.352143
0.366149
0.335778
0.152163
0.136611
0.144609
0.129239
0.288471
0.252293
0.272288
0.236246
0.114037
0.100724
0.106853
0.0936376
0.2359
0.235876
0.219945
0.219922
0.0947397
0.0947296
0.0877101
0.0877006
0.252222
0.288356
0.236179
0.272178
0.100693
0.113985
0.0936088
0.106805
0.351995
0.382506
0.335635
0.365987
0.13654
0.152077
0.129172
0.144526
0.411713
0.380968
0.397823
0.367171
0.165475
0.149652
0.159098
0.143396
0.317066
0.280708
0.30337
0.267091
0.126783
0.113315
0.120664
0.107268
0.264187
0.264161
0.250626
0.2506
0.107241
0.10723
0.101235
0.101224
0.280631
0.316943
0.267017
0.303251
0.113281
0.126727
0.107235
0.12061
0.380809
0.411533
0.367017
0.397648
0.149573
0.16538
0.143321
0.159006
0.435884
0.405025
0.424362
0.393551
0.176595
0.16059
0.171286
0.155362
0.341013
0.304559
0.329587
0.293173
0.137512
0.123933
0.132381
0.118852
0.287965
0.287937
0.27661
0.276583
0.117795
0.117782
0.112744
0.112732
0.304478
0.340884
0.293094
0.32946
0.123896
0.137451
0.118817
0.132322
0.404858
0.435696
0.393387
0.424176
0.160507
0.176493
0.155281
0.171186
0.455704
0.424796
0.446292
0.415402
0.185739
0.169616
0.181389
0.165318
0.360756
0.324264
0.351374
0.314896
0.146391
0.132735
0.142162
0.12854
0.307632
0.307603
0.29828
0.298252
0.126553
0.12654
0.122378
0.122365
0.32418
0.360621
0.314814
0.351242
0.132696
0.146327
0.128502
0.142099
0.424623
0.455509
0.415232
0.446099
0.169528
0.185631
0.165232
0.181283
0.4717
0.440785
0.464138
0.433222
0.193137
0.176939
0.189631
0.173466
0.37677
0.340278
0.369194
0.332699
0.153617
0.13991
0.150189
0.136505
0.323634
0.323605
0.316059
0.31603
0.133697
0.133684
0.130305
0.130292
0.340191
0.376632
0.332614
0.369058
0.139869
0.15355
0.136465
0.150123
0.440608
0.4715
0.433046
0.463938
0.176847
0.193025
0.173375
0.18952
0.484352
0.45346
0.478402
0.447496
0.199005
0.182761
0.196238
0.180013
0.389507
0.353042
0.383514
0.347034
0.159379
0.145642
0.156658
0.142934
0.336402
0.336372
0.330391
0.330361
0.13941
0.139396
0.136711
0.136697
0.352953
0.389366
0.346946
0.383374
0.1456
0.15931
0.142893
0.15659
0.453279
0.484148
0.447316
0.478198
0.182666
0.198889
0.179919
0.196122
0.494112
0.463265
0.489556
0.458684
0.203547
0.18728
0.201418
0.18516
0.399399
0.36298
0.394778
0.358335
0.163866
0.150114
0.16176
0.148014
0.346357
0.346327
0.341703
0.341672
0.143873
0.143859
0.141777
0.141762
0.36289
0.399255
0.358245
0.394635
0.150071
0.163795
0.147971
0.16169
0.463081
0.493905
0.458502
0.489349
0.187183
0.203428
0.185063
0.2013
0.501381
0.470596
0.498022
0.467204
0.206946
0.190672
0.205366
0.189093
0.406836
0.370478
0.403396
0.367007
0.167248
0.153496
0.165674
0.15192
0.353881
0.35385
0.350396
0.350365
0.147252
0.147237
0.145677
0.145662
0.370386
0.40669
0.366916
0.403251
0.153452
0.167176
0.151876
0.165602
0.47041
0.501172
0.467019
0.497812
0.190573
0.206824
0.188995
0.205245
0.506523
0.475815
0.504185
0.473437
0.209369
0.193101
0.208257
0.191984
0.412175
0.37589
0.409742
0.373421
0.169687
0.155943
0.168565
0.154816
0.359326
0.359295
0.356839
0.356808
0.149703
0.149688
0.148573
0.148558
0.375798
0.412028
0.373329
0.409595
0.155899
0.169614
0.154772
0.168492
0.475628
0.506312
0.47325
0.503973
0.193
0.209245
0.191884
0.208134
0.509848
0.479232
0.508383
0.47772
0.21096
0.194708
0.210248
0.193986
0.415728
0.379526
0.414152
0.377909
0.171321
0.157595
0.170585
0.15685
0.363
0.362969
0.361364
0.361332
0.151362
0.151347
0.150612
0.150597
0.379433
0.41558
0.377817
0.414005
0.15755
0.171247
0.156805
0.170511
0.479044
0.509637
0.477532
0.50817
0.194606
0.210835
0.193884
0.210123
0.511631
0.481121
0.510906
0.480341
0.211845
0.195617
0.211471
0.195229
0.417765
0.381657
0.416916
0.380761
0.172272
0.158573
0.171863
0.15815
0.365175
0.365143
0.364257
0.364225
0.152351
0.152336
0.151922
0.151907
0.381564
0.417618
0.380668
0.416768
0.158527
0.172197
0.158105
0.171789
0.480933
0.511419
0.480153
0.510692
0.195514
0.211719
0.195126
0.211345
0.512098
0.481713
0.512006
0.481556
0.212124
0.195928
0.212044
0.195829
0.418519
0.382515
0.418286
0.382229
0.172643
0.158979
0.172514
0.15883
0.366082
0.36605
0.365772
0.36574
0.152774
0.152758
0.152616
0.152601
0.382421
0.418372
0.382136
0.418138
0.158933
0.172568
0.158785
0.172439
0.481524
0.511887
0.481368
0.511792
0.195825
0.211998
0.195727
0.211917
0.511478
0.481231
0.511912
0.48159
0.21192
0.195759
0.212074
0.19589
0.418211
0.382315
0.418482
0.382528
0.172541
0.158913
0.172634
0.158985
0.365934
0.365903
0.366121
0.366089
0.152725
0.15271
0.152787
0.152772
0.382222
0.418064
0.382435
0.418334
0.158868
0.172466
0.158939
0.172559
0.481044
0.511268
0.481402
0.511699
0.195657
0.211794
0.195787
0.211947
0.509884
0.479796
0.51078
0.480611
0.211266
0.195148
0.211629
0.195488
0.416964
0.381188
0.41769
0.381855
0.172012
0.158431
0.172313
0.158709
0.364867
0.364835
0.365504
0.365473
0.152265
0.15225
0.152533
0.152517
0.381096
0.416817
0.381762
0.417543
0.158386
0.171937
0.158664
0.172238
0.47961
0.509675
0.480424
0.510569
0.195046
0.21114
0.195385
0.211502
0.507467
0.47756
0.508762
0.478762
0.210244
0.194174
0.210786
0.19469
0.41493
0.379284
0.416035
0.380324
0.171133
0.157603
0.171602
0.158046
0.363026
0.362995
0.364034
0.364003
0.151461
0.151446
0.151891
0.151876
0.379192
0.414785
0.380232
0.415889
0.157558
0.171059
0.158001
0.171527
0.477375
0.50726
0.478576
0.508551
0.194072
0.210119
0.194588
0.21066
0.504324
0.474622
0.505971
0.476164
0.208897
0.19288
0.209596
0.193551
0.41221
0.376704
0.413648
0.378071
0.169947
0.156474
0.170564
0.157062
0.360514
0.360483
0.361847
0.361816
0.150359
0.150344
0.150934
0.150919
0.376613
0.412066
0.37798
0.413503
0.156429
0.169873
0.157017
0.17049
0.474439
0.504119
0.47598
0.505763
0.19278
0.208773
0.19345
0.209471
0.50053
0.471057
0.502495
0.472904
0.207259
0.191303
0.2081
0.192112
0.40888
0.373524
0.410614
0.375183
0.168488
0.155078
0.169238
0.155796
0.357408
0.357378
0.35903
0.358999
0.148993
0.148978
0.149696
0.149681
0.373434
0.408737
0.375093
0.410471
0.155034
0.168415
0.155752
0.169165
0.470876
0.500328
0.472722
0.50229
0.191203
0.207137
0.192012
0.207976
0.496137
0.46692
0.498396
0.469048
0.205356
0.189465
0.206328
0.190402
0.404995
0.369801
0.407001
0.371726
0.166782
0.15344
0.167654
0.154277
0.353764
0.353734
0.355649
0.355619
0.147388
0.147373
0.148208
0.148193
0.369712
0.404854
0.371637
0.40686
0.153397
0.166711
0.154233
0.167582
0.466742
0.495938
0.468869
0.498194
0.189367
0.205236
0.190303
0.206206
0.49118
0.462247
0.493718
0.46464
0.203204
0.187384
0.204299
0.188442
0.400591
0.365569
0.402854
0.367746
0.164845
0.151577
0.165831
0.152525
0.349617
0.349587
0.351751
0.351721
0.145559
0.145545
0.146489
0.146475
0.365482
0.400453
0.367658
0.402715
0.151534
0.164775
0.152482
0.16576
0.462073
0.490985
0.464464
0.493519
0.187288
0.203086
0.188344
0.204179
0.48568
0.457059
0.488488
0.459708
0.200812
0.185069
0.202026
0.186243
0.39569
0.360851
0.3982
0.363269
0.162686
0.149497
0.163783
0.150553
0.344988
0.344959
0.347361
0.347332
0.143516
0.143502
0.144553
0.144539
0.360765
0.395554
0.363183
0.398063
0.149455
0.162617
0.150511
0.163713
0.456888
0.485488
0.459535
0.488293
0.184974
0.200696
0.186147
0.201908
0.479643
0.451362
0.48272
0.454265
0.198183
0.182522
0.199516
0.183812
0.390297
0.355652
0.393053
0.358311
0.160308
0.147202
0.161514
0.148366
0.339884
0.339856
0.342495
0.342466
0.141261
0.141247
0.142404
0.14239
0.355568
0.390164
0.358226
0.392919
0.147161
0.16024
0.148324
0.161446
0.451195
0.479456
0.454096
0.482528
0.18243
0.198069
0.183719
0.1994
0.473069
0.445154
0.476415
0.448314
0.195316
0.179743
0.196769
0.18115
0.384408
0.349967
0.387413
0.35287
0.157708
0.144691
0.159026
0.145964
0.334299
0.334271
0.337152
0.337123
0.138791
0.138778
0.140043
0.140029
0.349885
0.384278
0.352787
0.387282
0.144651
0.157642
0.145923
0.158959
0.44499
0.472886
0.448148
0.476228
0.179653
0.195205
0.181058
0.196656
0.465946
0.438423
0.469568
0.441847
0.192205
0.176725
0.193781
0.178253
0.37801
0.343781
0.381272
0.346937
0.15488
0.141957
0.156314
0.143343
0.328218
0.328191
0.331321
0.331294
0.136101
0.136088
0.137464
0.137451
0.343701
0.377883
0.346856
0.381144
0.141917
0.154816
0.143303
0.156248
0.438263
0.465768
0.441685
0.469386
0.176637
0.192097
0.178164
0.193671
0.458259
0.431147
0.462166
0.434846
0.188842
0.173458
0.190546
0.175112
0.371079
0.337071
0.374611
0.340493
0.151813
0.138988
0.153368
0.140493
0.321617
0.321591
0.324984
0.324957
0.133178
0.133165
0.13466
0.134647
0.336993
0.370956
0.340413
0.374486
0.13895
0.151751
0.140454
0.153305
0.430991
0.458085
0.434688
0.461988
0.173372
0.188737
0.175025
0.190439
0.449985
0.423299
0.454189
0.427288
0.185214
0.169928
0.187052
0.171715
0.363587
0.329806
0.367404
0.333509
0.148494
0.135771
0.150177
0.137402
0.314465
0.314439
0.318112
0.318085
0.130009
0.129997
0.131616
0.131603
0.32973
0.363467
0.333432
0.367282
0.135733
0.148433
0.137364
0.150116
0.423147
0.449815
0.427134
0.454015
0.169845
0.185112
0.171631
0.186948
0.441095
0.414847
0.44561
0.419143
0.181308
0.166128
0.183287
0.168052
0.355498
0.321949
0.359618
0.325953
0.144907
0.132288
0.146727
0.134055
0.306724
0.306699
0.31067
0.310645
0.126578
0.126566
0.128319
0.128306
0.321874
0.355381
0.325878
0.359499
0.132252
0.144848
0.134018
0.146667
0.4147
0.440931
0.418993
0.445442
0.166047
0.181209
0.16797
0.183187
0.431558
0.405751
0.436402
0.410374
0.177105
0.162037
0.179236
0.164111
0.346768
0.313454
0.351214
0.317783
0.141032
0.128521
0.142999
0.130433
0.298348
0.298324
0.302618
0.302593
0.122863
0.122852
0.124749
0.124737
0.313382
0.346654
0.31771
0.351099
0.128486
0.140975
0.130398
0.142941
0.405608
0.431398
0.410229
0.436239
0.161959
0.17701
0.164031
0.179139
0.421329
0.395964
0.426525
0.400939
0.172583
0.15763
0.174877
0.159865
0.337346
0.304268
0.342145
0.30895
0.136845
0.124445
0.138971
0.126515
0.289284
0.28926
0.293905
0.293881
0.118843
0.118831
0.120885
0.120873
0.304199
0.337236
0.30888
0.342033
0.124411
0.13679
0.126481
0.138915
0.395826
0.421175
0.400798
0.426367
0.157555
0.172492
0.159789
0.174784
0.410362
0.385432
0.415933
0.390786
0.167715
0.152884
0.170186
0.155292
0.327175
0.294332
0.332356
0.299398
0.13232
0.120033
0.134619
0.122275
0.279469
0.279446
0.284474
0.284451
0.114489
0.114478
0.116701
0.11669
0.294265
0.327069
0.299329
0.332248
0.120001
0.132268
0.122242
0.134565
0.385299
0.410213
0.390651
0.415781
0.152813
0.167628
0.155219
0.170096
0.398605
0.374101
0.404577
0.379862
0.162472
0.147776
0.165135
0.150368
0.31619
0.283571
0.321787
0.289059
0.127429
0.115254
0.129915
0.117685
0.268825
0.268803
0.274256
0.274233
0.109769
0.109758
0.11217
0.112159
0.283507
0.316089
0.288994
0.321683
0.115224
0.127379
0.117653
0.129864
0.373973
0.398463
0.379731
0.404431
0.147707
0.162389
0.150298
0.165049
0.386032
0.361926
0.392412
0.368113
0.156829
0.142288
0.159694
0.145071
0.304316
0.271884
0.310369
0.277851
0.122136
0.110066
0.124829
0.112708
0.25724
0.257219
0.263159
0.263137
0.104636
0.104627
0.107251
0.107241
0.271824
0.304219
0.277789
0.31027
0.110037
0.122089
0.112678
0.12478
0.361804
0.385897
0.367988
0.392272
0.142224
0.15675
0.145005
0.159613
0.372756
0.348881
0.379454
0.355507
0.150809
0.136429
0.153852
0.139396
0.291408
0.259088
0.298005
0.265642
0.116387
0.104395
0.119318
0.107291
0.244528
0.244508
0.25104
0.25102
0.0990206
0.0990118
0.101888
0.101879
0.259031
0.291318
0.265583
0.297912
0.104369
0.116343
0.107263
0.119273
0.348767
0.372629
0.355389
0.379321
0.136369
0.150736
0.139333
0.153776
0.35964
0.334692
0.366033
0.341983
0.144725
0.130177
0.147719
0.133358
0.276954
0.244781
0.284442
0.252161
0.11
0.0981019
0.113291
0.101333
0.230395
0.230377
0.237658
0.23764
0.0928217
0.0928138
0.0959936
0.0959852
0.244729
0.276871
0.252106
0.284355
0.0980781
0.10996
0.101308
0.113249
0.334587
0.359523
0.341873
0.36591
0.130122
0.144659
0.133301
0.147649
0.352247
0.315066
0.354457
0.326452
0.139513
0.121754
0.142025
0.1266
0.258921
0.228328
0.26861
0.236844
0.102279
0.0910127
0.106377
0.094651
0.214654
0.214638
0.222711
0.222694
0.0860358
0.0860289
0.0894829
0.0894755
0.228282
0.258847
0.236794
0.268531
0.0909919
0.102244
0.0946287
0.10634
0.314972
0.352142
0.326353
0.354344
0.121707
0.139455
0.126549
0.141962
0.213637
0.18341
0.14095
0.121044
0.179884
0.15327
0.113181
0.0971922
0.117447
0.0776177
0.0654642
0.0334888
0.0924552
0.0565298
0.0478425
0.0209186
0.0591357
0.0591265
0.0182421
0.0182408
0.0397167
0.0397118
0.00952279
0.00952314
0.0775861
0.11739
0.0334739
0.0654253
0.0565096
0.092415
0.0209127
0.0478185
0.183331
0.213543
0.120982
0.140871
0.153211
0.179813
0.0971491
0.113125
0.319851
0.282592
0.270986
0.236134
0.272551
0.238815
0.230417
0.199077
0.208608
0.163356
0.16484
0.121408
0.169605
0.128355
0.132652
0.0931145
0.142252
0.142234
0.1012
0.101185
0.109454
0.10944
0.0749495
0.0749397
0.1633
0.208517
0.121364
0.164765
0.128313
0.169535
0.0930827
0.132596
0.282475
0.319719
0.236036
0.270873
0.238722
0.272443
0.199001
0.230327
0.404015
0.36433
0.363768
0.325047
0.344451
0.308334
0.310101
0.274938
0.287769
0.240686
0.249477
0.20313
0.236427
0.193479
0.204086
0.16183
0.218585
0.21856
0.181449
0.181427
0.173717
0.173697
0.142439
0.142422
0.240612
0.287651
0.203065
0.249372
0.193419
0.23633
0.161778
0.204002
0.364182
0.403851
0.324913
0.363619
0.308209
0.34431
0.274828
0.309976
0.47536
0.434574
0.441084
0.40075
0.405432
0.368174
0.376105
0.339328
0.357015
0.309052
0.323578
0.275981
0.295077
0.251236
0.266722
0.223268
0.286394
0.286364
0.253564
0.253536
0.230941
0.230916
0.20321
0.203188
0.308964
0.356877
0.2759
0.323449
0.251163
0.294959
0.2232
0.266614
0.434402
0.475172
0.400589
0.440906
0.368024
0.405264
0.33919
0.375949
0.536153
0.494844
0.506979
0.465884
0.457618
0.419745
0.432543
0.394934
0.416978
0.368594
0.38812
0.339905
0.346098
0.301747
0.321513
0.277381
0.345622
0.345588
0.317066
0.317035
0.281111
0.281082
0.256895
0.256868
0.368497
0.416827
0.339812
0.387974
0.301663
0.345964
0.277302
0.321386
0.494657
0.535951
0.465704
0.506782
0.419577
0.457431
0.394774
0.432364
0.587568
0.546037
0.562951
0.521506
0.501938
0.463734
0.480694
0.442632
0.46822
0.419681
0.443642
0.395157
0.38988
0.34526
0.368856
0.324349
0.396551
0.396516
0.372091
0.372057
0.32442
0.324389
0.303597
0.303567
0.419578
0.46806
0.395056
0.443486
0.345168
0.389736
0.324261
0.368717
0.545843
0.587358
0.521314
0.562742
0.463554
0.501738
0.442457
0.480499
0.630602
0.589018
0.610057
0.568486
0.53916
0.500795
0.521372
0.483074
0.511433
0.4629
0.490779
0.44223
0.426933
0.382195
0.409205
0.364513
0.43971
0.439673
0.419061
0.419025
0.361244
0.361211
0.343609
0.343577
0.462793
0.511269
0.442125
0.490616
0.382099
0.426781
0.364419
0.409057
0.588819
0.630389
0.568288
0.609842
0.500606
0.538952
0.482889
0.521166
0.666217
0.624672
0.649267
0.607696
0.570049
0.531623
0.555336
0.516932
0.547411
0.498974
0.530275
0.481784
0.457866
0.413108
0.44312
0.398365
0.475784
0.475746
0.458588
0.458551
0.392107
0.392072
0.377382
0.377349
0.498865
0.547244
0.481675
0.530109
0.413008
0.45771
0.398266
0.442965
0.624471
0.666003
0.607495
0.64905
0.531429
0.569835
0.51674
0.555122
0.695284
0.653834
0.681501
0.640001
0.595314
0.556894
0.583324
0.544897
0.576937
0.528647
0.56293
0.514564
0.483308
0.438589
0.471228
0.426486
0.505494
0.505456
0.49139
0.491352
0.417577
0.417542
0.405476
0.405441
0.528537
0.576769
0.514455
0.562762
0.438487
0.483147
0.426384
0.471069
0.653632
0.695071
0.639799
0.681284
0.556696
0.595097
0.5447
0.583106
0.718649
0.677323
0.707619
0.666231
0.615661
0.577287
0.606047
0.567648
0.600802
0.552686
0.589532
0.541328
0.503906
0.459264
0.49417
0.449488
0.52959
0.529552
0.518202
0.518164
0.438267
0.438231
0.428481
0.428445
0.552575
0.600633
0.541218
0.589363
0.45916
0.503743
0.449384
0.494008
0.677122
0.718438
0.666029
0.707404
0.577086
0.615441
0.567448
0.605826
0.737059
0.695876
0.728415
0.687162
0.631721
0.59342
0.624173
0.585835
0.619727
0.571798
0.610839
0.562818
0.520263
0.475722
0.512574
0.467982
0.548773
0.548735
0.539757
0.539719
0.454756
0.45472
0.446999
0.446963
0.571687
0.619558
0.562707
0.61067
0.475616
0.520098
0.467877
0.512409
0.695676
0.736851
0.686961
0.728202
0.593218
0.631501
0.585633
0.62395
0.751207
0.710176
0.744616
0.703511
0.644086
0.605876
0.638319
0.600063
0.634389
0.586653
0.627555
0.579724
0.532951
0.488526
0.52703
0.482547
0.563707
0.563668
0.556739
0.5567
0.467603
0.467566
0.461602
0.461565
0.586542
0.634221
0.579613
0.627386
0.488419
0.532785
0.482441
0.526864
0.709978
0.751002
0.703311
0.744406
0.605673
0.643865
0.59986
0.638095
0.761692
0.720824
0.75686
0.715913
0.653269
0.615167
0.64903
0.610874
0.645387
0.597845
0.640314
0.592677
0.542479
0.49818
0.538077
0.493716
0.574982
0.574943
0.569773
0.569734
0.477309
0.477271
0.472818
0.472781
0.597734
0.64522
0.592566
0.640146
0.498072
0.542312
0.493608
0.53791
0.720628
0.76149
0.715715
0.756652
0.614963
0.653048
0.61067
0.648805
0.769062
0.728361
0.765725
0.724943
0.659742
0.621759
0.656804
0.618762
0.653262
0.605913
0.649688
0.602246
0.54931
0.505144
0.546203
0.501972
0.583136
0.583098
0.579426
0.579387
0.484331
0.484294
0.481129
0.481092
0.605803
0.653096
0.602135
0.649521
0.505036
0.549143
0.501864
0.546035
0.728167
0.768862
0.724747
0.76552
0.621555
0.659521
0.618557
0.656579
0.773771
0.733248
0.771713
0.731102
0.6639
0.626051
0.662074
0.624158
0.65848
0.611325
0.656182
0.608933
0.553845
0.509821
0.55184
0.507746
0.588636
0.588598
0.586199
0.586161
0.48907
0.489033
0.486964
0.486927
0.611215
0.658314
0.608822
0.656016
0.509713
0.553678
0.507638
0.551673
0.733056
0.773574
0.730908
0.77151
0.625848
0.66368
0.623954
0.66185
0.776225
0.73589
0.775248
0.734821
0.666095
0.628395
0.66521
0.627436
0.661446
0.614487
0.660227
0.613173
0.556436
0.512559
0.555363
0.511413
0.591888
0.59185
0.590529
0.590491
0.491875
0.491838
0.490696
0.490659
0.614378
0.661282
0.613063
0.660062
0.512451
0.556269
0.511305
0.555196
0.7357
0.776031
0.734629
0.775048
0.628192
0.665876
0.627232
0.664987
0.776766
0.736631
0.776706
0.736473
0.666621
0.629086
0.666537
0.62892
0.662509
0.615747
0.662202
0.615344
0.55738
0.513658
0.557096
0.513297
0.593242
0.593204
0.592792
0.592754
0.493047
0.49301
0.49265
0.492613
0.615639
0.662346
0.615235
0.662039
0.51355
0.557214
0.51319
0.556929
0.736444
0.776576
0.736283
0.77651
0.628885
0.666404
0.628717
0.666315
0.7757
0.735781
0.776419
0.736389
0.665753
0.6284
0.666344
0.628896
0.66198
0.615418
0.662433
0.61577
0.556953
0.51339
0.557323
0.513678
0.593007
0.59297
0.593312
0.593274
0.492855
0.492818
0.493104
0.493067
0.615311
0.661819
0.615663
0.662271
0.513283
0.556788
0.51357
0.557157
0.735596
0.775513
0.736202
0.776225
0.6282
0.665538
0.628695
0.666124
0.773224
0.733538
0.774615
0.734812
0.663653
0.626503
0.664831
0.627578
0.660064
0.613709
0.661187
0.614731
0.555326
0.511934
0.556276
0.512799
0.591399
0.591361
0.592371
0.592333
0.491481
0.491444
0.492306
0.492269
0.613603
0.659905
0.614624
0.661027
0.511827
0.555162
0.512693
0.556111
0.733356
0.77304
0.734628
0.774425
0.626305
0.663441
0.627379
0.664613
0.769543
0.730112
0.771516
0.731958
0.660506
0.623581
0.66219
0.625151
0.656972
0.61083
0.658663
0.612416
0.552686
0.509472
0.554124
0.510821
0.588624
0.588587
0.590157
0.59012
0.489105
0.489069
0.490411
0.490375
0.610725
0.656815
0.61231
0.658504
0.509366
0.552524
0.510715
0.553961
0.729932
0.769363
0.731776
0.77133
0.623385
0.660296
0.624954
0.661975
0.764803
0.725649
0.76729
0.727997
0.656436
0.61976
0.658567
0.621766
0.652855
0.606935
0.655042
0.609012
0.549162
0.506137
0.551028
0.507909
0.584836
0.5848
0.586859
0.586823
0.485863
0.485827
0.487588
0.487552
0.606831
0.6527
0.608908
0.654886
0.506033
0.549002
0.507804
0.550867
0.725473
0.764626
0.727818
0.767107
0.619567
0.656229
0.621571
0.658355
0.759112
0.720262
0.762063
0.723061
0.651538
0.615139
0.654073
0.617535
0.647826
0.602137
0.650457
0.604653
0.544853
0.502028
0.547101
0.504177
0.580153
0.580117
0.582611
0.582575
0.481852
0.481816
0.483951
0.483915
0.602035
0.647674
0.60455
0.650303
0.501925
0.544695
0.504073
0.546942
0.720089
0.758939
0.722885
0.761883
0.614949
0.651334
0.617343
0.653864
0.75255
0.714032
0.755929
0.717244
0.64588
0.609787
0.648789
0.612542
0.641968
0.596521
0.645005
0.599438
0.53983
0.497217
0.542428
0.49971
0.574655
0.57462
0.577512
0.577477
0.477145
0.47711
0.479584
0.479549
0.59642
0.641818
0.599336
0.644854
0.497116
0.539674
0.499607
0.542271
0.713862
0.752381
0.717071
0.755753
0.6096
0.64568
0.612352
0.648583
0.745169
0.70701
0.748953
0.710613
0.639508
0.60375
0.64277
0.606843
0.635334
0.590139
0.638754
0.593433
0.53414
0.49175
0.537067
0.494566
0.568398
0.568363
0.57163
0.571595
0.471787
0.471753
0.474548
0.474513
0.59004
0.635187
0.593334
0.638605
0.49165
0.533987
0.494465
0.536913
0.706843
0.745003
0.710444
0.74878
0.603566
0.639312
0.606657
0.642568
0.736998
0.699227
0.741174
0.703208
0.632447
0.597054
0.636051
0.600474
0.627954
0.583022
0.631744
0.586682
0.527808
0.485653
0.531054
0.488782
0.561412
0.561378
0.565006
0.564971
0.465807
0.465773
0.468877
0.468843
0.582925
0.62781
0.586583
0.631598
0.485555
0.527657
0.488683
0.530902
0.699064
0.736836
0.703042
0.741005
0.596874
0.632255
0.600291
0.635853
0.72805
0.690695
0.732614
0.69505
0.624708
0.589709
0.628651
0.593453
0.619838
0.575179
0.623996
0.579201
0.520843
0.478935
0.524405
0.482374
0.553704
0.553671
0.557659
0.557625
0.45921
0.459177
0.462588
0.462554
0.575084
0.619697
0.579105
0.623853
0.478839
0.520696
0.482277
0.524256
0.690535
0.727892
0.694888
0.73245
0.589533
0.62452
0.593274
0.628457
0.718321
0.681408
0.723277
0.686142
0.616287
0.581709
0.620572
0.585782
0.610979
0.566602
0.615511
0.570993
0.513239
0.471588
0.517123
0.475344
0.545267
0.545235
0.549588
0.549555
0.45199
0.451958
0.455682
0.455649
0.566508
0.610841
0.570899
0.615371
0.471494
0.513095
0.475248
0.516977
0.681251
0.718167
0.685983
0.723116
0.581537
0.616103
0.585607
0.620383
0.707797
0.671345
0.713153
0.676469
0.607172
0.573039
0.611806
0.57745
0.601355
0.557266
0.606272
0.56204
0.504978
0.463593
0.509193
0.467676
0.536076
0.536044
0.540778
0.540745
0.444127
0.444095
0.448143
0.448111
0.557174
0.601219
0.561948
0.606135
0.463501
0.504837
0.467583
0.509051
0.671192
0.707646
0.676314
0.712996
0.572871
0.606993
0.577279
0.611621
0.696451
0.660477
0.702222
0.666009
0.59734
0.563673
0.602336
0.568436
0.590929
0.547134
0.596252
0.552311
0.49603
0.454918
0.500593
0.459345
0.526091
0.52606
0.531195
0.531163
0.435587
0.435556
0.439946
0.439915
0.547044
0.590797
0.552221
0.596118
0.454828
0.495892
0.459254
0.500453
0.660327
0.696304
0.665857
0.702068
0.563508
0.597166
0.568269
0.602156
0.684248
0.648761
0.690451
0.654722
0.586762
0.553577
0.592136
0.558709
0.579657
0.536157
0.585409
0.541764
0.486356
0.445521
0.491287
0.450315
0.515263
0.515233
0.520795
0.520764
0.42633
0.4263
0.431054
0.431023
0.53607
0.579528
0.541675
0.585278
0.445433
0.486221
0.450226
0.491151
0.648615
0.684104
0.654574
0.690301
0.553416
0.586592
0.558546
0.59196
0.671145
0.636157
0.677805
0.642568
0.575402
0.542705
0.581171
0.548231
0.567485
0.524277
0.573694
0.530343
0.475908
0.435354
0.481233
0.440539
0.503531
0.503501
0.509523
0.509493
0.416303
0.416274
0.421418
0.421388
0.524191
0.567358
0.530256
0.573566
0.435268
0.475777
0.440453
0.4811
0.636014
0.671004
0.642423
0.677658
0.542549
0.575237
0.548073
0.581
0.657087
0.622598
0.664231
0.629495
0.563216
0.531008
0.569405
0.536954
0.554343
0.51142
0.561046
0.517983
0.46463
0.424354
0.470377
0.429964
0.490821
0.490792
0.497311
0.497282
0.405445
0.405416
0.410984
0.410955
0.511336
0.554219
0.517898
0.56092
0.424271
0.464502
0.429879
0.470248
0.622458
0.656949
0.629354
0.664088
0.530856
0.563055
0.536799
0.569238
0.642015
0.608012
0.649674
0.615431
0.550149
0.518426
0.556785
0.524822
0.540153
0.497506
0.54739
0.504608
0.452454
0.412452
0.458659
0.418522
0.47705
0.477021
0.484082
0.484053
0.393684
0.393656
0.399684
0.399656
0.497424
0.540032
0.504526
0.547267
0.412371
0.45233
0.41844
0.458533
0.607875
0.64188
0.615292
0.649534
0.518278
0.549993
0.524672
0.556624
0.625867
0.592329
0.634071
0.600305
0.536146
0.504892
0.543257
0.511772
0.524832
0.482439
0.532645
0.49013
0.439306
0.399567
0.446006
0.40614
0.462116
0.462089
0.469742
0.469714
0.380936
0.380908
0.387441
0.387413
0.482359
0.524714
0.490049
0.532525
0.399489
0.439185
0.40606
0.445884
0.592195
0.625735
0.60017
0.633934
0.504749
0.535995
0.511627
0.543101
0.608603
0.575485
0.617368
0.584048
0.521159
0.490345
0.528767
0.497739
0.508286
0.466107
0.516723
0.474445
0.425102
0.385601
0.432341
0.392728
0.445899
0.445872
0.454184
0.454156
0.367094
0.367068
0.374161
0.374134
0.466029
0.508171
0.474367
0.516606
0.385525
0.424986
0.39265
0.432223
0.575355
0.608474
0.583916
0.617234
0.490207
0.521012
0.497598
0.528615
0.590254
0.557451
0.599547
0.566609
0.50519
0.47474
0.513281
0.482666
0.490409
0.448352
0.499527
0.457426
0.409744
0.370416
0.417575
0.378173
0.428218
0.428192
0.437262
0.437235
0.352007
0.351982
0.35972
0.359694
0.448277
0.490298
0.45735
0.499414
0.370344
0.409633
0.378099
0.417462
0.557325
0.590129
0.566481
0.599417
0.474608
0.50505
0.482531
0.513135
0.571157
0.538264
0.580743
0.54799
0.488468
0.45807
0.496878
0.466529
0.471012
0.428897
0.480926
0.438868
0.39305
0.353772
0.401583
0.3623
0.408778
0.408754
0.418749
0.418723
0.335426
0.335403
0.343926
0.343901
0.428825
0.470906
0.438795
0.480817
0.353704
0.392945
0.36223
0.401475
0.538143
0.571036
0.547866
0.580617
0.457945
0.488335
0.4664
0.496739
0.553007
0.517742
0.561706
0.52822
0.472286
0.440056
0.480104
0.449287
0.449422
0.407143
0.460584
0.418368
0.374393
0.335152
0.384049
0.344758
0.387096
0.387073
0.398257
0.398233
0.316954
0.316933
0.326455
0.326432
0.407076
0.449322
0.418299
0.460481
0.335089
0.374295
0.344692
0.383947
0.517628
0.552893
0.528102
0.561586
0.439939
0.472162
0.449165
0.479973
0.545318
0.490791
0.546526
0.506194
0.464486
0.415858
0.466217
0.429758
0.423023
0.382117
0.437124
0.395087
0.351416
0.313753
0.363706
0.324831
0.362741
0.362719
0.375256
0.375233
0.296287
0.296267
0.306887
0.306866
0.382055
0.422931
0.395023
0.437028
0.313695
0.351327
0.324771
0.363612
0.490687
0.545213
0.506084
0.546414
0.415752
0.464373
0.429646
0.466096
0.262502
0.228489
0.182628
0.158431
0.240314
0.207829
0.163553
0.14107
0.157332
0.113584
0.0958181
0.0587136
0.138754
0.0965427
0.0813552
0.0462573
0.0931375
0.0931206
0.0418674
0.0418583
0.076848
0.0768349
0.0300963
0.0300912
0.11353
0.157241
0.058678
0.0957469
0.0965002
0.13868
0.0462323
0.0813006
0.228368
0.262363
0.158327
0.182501
0.207729
0.240196
0.140986
0.163449
0.387385
0.346898
0.328991
0.290712
0.356856
0.317616
0.302743
0.26582
0.268874
0.220156
0.214966
0.167969
0.241108
0.193681
0.191803
0.14617
0.197078
0.197052
0.145838
0.145816
0.171344
0.171322
0.124776
0.124757
0.220078
0.268749
0.167902
0.214857
0.193613
0.240999
0.146115
0.191711
0.346741
0.387211
0.290572
0.328833
0.317478
0.356702
0.2657
0.302607
0.489643
0.446963
0.440613
0.398786
0.450895
0.409322
0.405866
0.36521
0.36689
0.316459
0.319461
0.269701
0.330484
0.281249
0.287249
0.238733
0.292347
0.292314
0.246012
0.245982
0.257869
0.25784
0.215786
0.21576
0.316363
0.36674
0.269613
0.319322
0.281163
0.330348
0.238656
0.287126
0.446778
0.489442
0.398613
0.440423
0.409154
0.45071
0.365056
0.405693
0.576583
0.533034
0.534843
0.491628
0.530699
0.488131
0.492378
0.450206
0.452447
0.401338
0.411185
0.360332
0.408535
0.358504
0.370874
0.321162
0.376733
0.376696
0.335927
0.335892
0.334587
0.334553
0.29747
0.297438
0.401231
0.452283
0.36023
0.411027
0.358406
0.408382
0.321069
0.370729
0.532834
0.576369
0.491434
0.534632
0.487943