/*--------------------------------*- C++ -*----------------------------------*\
  =========                 |
  \\      /  F ield         | OpenFOAM: The Open Source CFD Toolbox
   \\    /   O peration     | Website:  https://openfoam.org
    \\  /    A nd           | Version:  9
     \\/     M anipulation  |
\*---------------------------------------------------------------------------*/
FoamFile
{
    format      ascii;
    class       volScalarField;
    location    "3.35";
    object      k;
}
// * * * * * * * * * * * * * * * * * * * * * * * * * * * * * * * * * * * * * //

dimensions      [0 2 -2 0 0 0 0];

internalField   nonuniform List<scalar> 
36360
(
0.109096
0.0912619
0.0576209
0.0509899
0.0292113
0.0239983
0.00874363
0.00933325
0.0443133
0.0182697
0.0173734
0.00526397
0.0101914
0.00418566
0.00431573
0.00300487
0.0072312
0.00723585
0.00301849
0.0030193
0.00253002
0.00253083
0.00292965
0.00292956
0.0182795
0.0443176
0.00526682
0.0173806
0.00418788
0.0101948
0.00300519
0.00431672
0.0912618
0.109092
0.0509948
0.0576219
0.024
0.0292121
0.0093354
0.00874424
0.171419
0.146285
0.144579
0.12187
0.0585398
0.0471841
0.0460272
0.0366669
0.0897018
0.0572978
0.0684022
0.0376343
0.0290048
0.0170956
0.0200158
0.00895326
0.0424545
0.0424551
0.0226607
0.0226649
0.0111118
0.0111136
0.004676
0.00467771
0.0572962
0.0896936
0.0376387
0.0684011
0.0170978
0.0290043
0.00895735
0.020018
0.146269
0.171398
0.121863
0.144567
0.0471798
0.0585328
0.036666
0.0460245
0.212841
0.18551
0.193589
0.167115
0.0770625
0.0639601
0.0685295
0.0561006
0.126178
0.092669
0.108836
0.0757373
0.0444101
0.0323764
0.0370839
0.0250642
0.0777382
0.0777343
0.0608832
0.0608814
0.0269554
0.0269548
0.0194619
0.0194624
0.092656
0.126153
0.0757299
0.108819
0.0323735
0.0444027
0.0250639
0.0370801
0.185475
0.212798
0.16709
0.193557
0.063947
0.0770451
0.056092
0.0685175
0.245255
0.216865
0.229917
0.201985
0.0913617
0.0774161
0.0845962
0.0710147
0.156236
0.122134
0.141921
0.108094
0.0571552
0.0450057
0.0510734
0.0389968
0.106962
0.106955
0.0930504
0.0930446
0.039632
0.0396298
0.0336298
0.0336283
0.12211
0.156195
0.108076
0.141888
0.0449979
0.0571404
0.0389915
0.0510623
0.216809
0.245189
0.201939
0.229862
0.0773933
0.0913327
0.0709967
0.0845729
0.271442
0.242392
0.259037
0.230284
0.102943
0.0884674
0.0974484
0.0832125
0.180945
0.146386
0.169208
0.134863
0.0677038
0.0553728
0.0626829
0.0504449
0.130967
0.130956
0.119564
0.119555
0.0499221
0.0499182
0.0450376
0.0450345
0.146352
0.180888
0.134834
0.169159
0.0553605
0.0676818
0.0504349
0.0626645
0.242316
0.271354
0.230217
0.258959
0.088435
0.102902
0.0831848
0.0974136
0.29244
0.262948
0.282533
0.25324
0.112271
0.0974298
0.107864
0.0931891
0.20095
0.166051
0.191495
0.156752
0.0762933
0.0637891
0.0722262
0.0598051
0.150433
0.150418
0.141226
0.141213
0.0582499
0.0582447
0.0543089
0.0543043
0.166009
0.200879
0.156714
0.19143
0.0637728
0.0762647
0.0597908
0.0722009
0.262854
0.292331
0.253155
0.282434
0.0973886
0.11222
0.0931522
0.107818
0.308947
0.279162
0.301203
0.271549
0.119625
0.104535
0.116172
0.101193
0.216796
0.181662
0.209353
0.174326
0.0831232
0.0704789
0.0799099
0.0673314
0.1659
0.165884
0.158629
0.158614
0.0648659
0.0648595
0.0617528
0.061747
0.181611
0.216713
0.174279
0.209275
0.0704589
0.0830886
0.0673131
0.0798782
0.279052
0.308821
0.271447
0.301085
0.104485
0.119564
0.101148
0.116116
0.321611
0.291638
0.315711
0.285821
0.125274
0.110017
0.12264
0.107457
0.229033
0.193743
0.223326
0.188107
0.0884077
0.0756576
0.0859395
0.0732382
0.177885
0.177866
0.172292
0.172274
0.0699888
0.0699813
0.067595
0.0675879
0.193686
0.228939
0.188052
0.223237
0.0756344
0.088368
0.0732165
0.0859022
0.291514
0.32147
0.285704
0.315576
0.10996
0.125205
0.107404
0.122575
0.331028
0.300942
0.326678
0.296641
0.129478
0.11411
0.127534
0.112215
0.238192
0.202807
0.233958
0.198615
0.0923649
0.0795395
0.0905322
0.0777411
0.18689
0.186869
0.182724
0.182704
0.0738308
0.0738224
0.0720503
0.0720423
0.202744
0.238089
0.198555
0.233859
0.0795135
0.0923207
0.0777164
0.0904902
0.300807
0.330874
0.296512
0.32653
0.114048
0.129402
0.112155
0.127461
0.337765
0.307624
0.334688
0.304569
0.132487
0.11705
0.13111
0.115703
0.244798
0.209363
0.241778
0.206364
0.0952161
0.0823405
0.0939092
0.0810558
0.193413
0.19339
0.190427
0.190405
0.0766052
0.076596
0.0753321
0.0753233
0.209295
0.244687
0.206298
0.24167
0.0823123
0.0951683
0.0810287
0.0938631
0.307479
0.337601
0.304429
0.334528
0.116983
0.132405
0.115638
0.13103
0.342333
0.312178
0.34028
0.310127
0.134528
0.119051
0.133607
0.118147
0.24933
0.21388
0.247289
0.211844
0.097168
0.0842631
0.0962855
0.0833929
0.197918
0.197893
0.195886
0.195862
0.0785119
0.0785021
0.0776482
0.0776387
0.213808
0.249213
0.211774
0.247175
0.0842331
0.0971173
0.0833637
0.0962362
0.312026
0.34216
0.309979
0.34011
0.11898
0.134441
0.118078
0.133522
0.345186
0.315051
0.343938
0.31379
0.135808
0.120313
0.135244
0.119755
0.252221
0.216784
0.250951
0.215505
0.0984096
0.0854923
0.0978601
0.084947
0.200825
0.2008
0.199543
0.199518
0.0797341
0.0797238
0.0791912
0.0791811
0.216709
0.2521
0.215432
0.250832
0.085461
0.0983567
0.0849163
0.0978083
0.314893
0.345007
0.313635
0.343761
0.120239
0.135718
0.119683
0.135155
0.346708
0.316622
0.346082
0.315968
0.1365
0.121003
0.13621
0.120712
0.253845
0.218441
0.253166
0.217744
0.0991039
0.0861877
0.0988092
0.0858909
0.202498
0.202472
0.201792
0.201766
0.0804294
0.0804188
0.0801316
0.0801212
0.218364
0.25372
0.217668
0.253043
0.0861554
0.0990495
0.0858591
0.0987555
0.31646
0.346525
0.315808
0.345899
0.120927
0.136407
0.120637
0.136118
0.347215
0.317202
0.347062
0.31701
0.136741
0.121257
0.136662
0.12117
0.254507
0.219156
0.254275
0.218896
0.0993839
0.086481
0.099282
0.0863707
0.203238
0.203212
0.202964
0.202938
0.0807286
0.0807178
0.0806144
0.0806037
0.219077
0.25438
0.218818
0.254149
0.0864482
0.0993285
0.0863382
0.099227
0.317038
0.347028
0.316846
0.346876
0.12118
0.136647
0.121093
0.136569
0.346981
0.31706
0.347167
0.317196
0.136668
0.121203
0.136732
0.121254
0.254464
0.219176
0.254552
0.219233
0.0993659
0.0864819
0.0993972
0.0865032
0.20329
0.203263
0.203331
0.203305
0.0807383
0.0807274
0.0807551
0.0807443
0.219097
0.254337
0.219154
0.254425
0.0864488
0.0993101
0.0864703
0.0993416
0.316895
0.346793
0.317031
0.34698
0.121125
0.136573
0.121176
0.136637
0.346167
0.316361
0.346625
0.316761
0.136339
0.120902
0.136522
0.121069
0.253889
0.218682
0.254231
0.218984
0.0991189
0.0862648
0.0992612
0.0863926
0.202836
0.202809
0.203118
0.203091
0.0805354
0.0805245
0.0806562
0.0806453
0.218603
0.253761
0.218905
0.254103
0.0862316
0.0990629
0.0863594
0.0992052
0.316195
0.345979
0.316595
0.346436
0.120824
0.136244
0.120991
0.136426
0.34493
0.315257
0.345586
0.315844
0.135832
0.120429
0.136097
0.120676
0.252924
0.217806
0.253444
0.218281
0.0987087
0.0858887
0.0989245
0.0860866
0.202004
0.201977
0.202456
0.20243
0.0801755
0.0801647
0.0803647
0.0803538
0.217727
0.252797
0.218202
0.253317
0.0858556
0.0986529
0.0860534
0.0988686
0.315092
0.344743
0.315678
0.345397
0.120351
0.135737
0.120598
0.136002
0.343365
0.313845
0.344175
0.314576
0.135187
0.119823
0.135517
0.120132
0.251667
0.216648
0.252324
0.217255
0.0981758
0.0853951
0.0984491
0.085648
0.200895
0.200868
0.201477
0.20145
0.0797006
0.0796898
0.0799436
0.0799328
0.21657
0.251541
0.217176
0.252197
0.0853623
0.0981203
0.085615
0.0983934
0.313681
0.343179
0.314412
0.343988
0.119746
0.135092
0.120055
0.135422
0.341535
0.312186
0.342471
0.313034
0.134431
0.119112
0.134814
0.119471
0.25018
0.215269
0.250946
0.21598
0.0975461
0.0848094
0.0978653
0.0851059
0.199569
0.199543
0.200253
0.200227
0.0791355
0.0791248
0.0794212
0.0794104
0.215191
0.250054
0.215902
0.25082
0.0847768
0.0974913
0.0850732
0.0978101
0.312024
0.341351
0.312871
0.342285
0.119036
0.134337
0.119395
0.13472
0.339481
0.310323
0.340526
0.31127
0.133582
0.118313
0.13401
0.118715
0.248502
0.213709
0.24936
0.214507
0.0968362
0.0841474
0.0971941
0.0844807
0.198066
0.19804
0.198835
0.19881
0.0784961
0.0784856
0.0788176
0.078807
0.213632
0.248378
0.21443
0.249235
0.0841153
0.0967821
0.0844483
0.0971396
0.310163
0.339299
0.311109
0.340342
0.118237
0.13349
0.118639
0.133917
0.337225
0.308279
0.338369
0.309315
0.13265
0.117435
0.133119
0.117876
0.246658
0.21199
0.247597
0.212866
0.0960556
0.0834186
0.0964481
0.0837845
0.196409
0.196384
0.197254
0.197228
0.0777916
0.0777812
0.0781449
0.0781344
0.211914
0.246536
0.212789
0.247474
0.0833869
0.0960022
0.0837526
0.0963943
0.308121
0.337046
0.309155
0.338187
0.117361
0.132559
0.117801
0.133027
0.33478
0.306066
0.336018
0.307185
0.13164
0.116484
0.132148
0.116961
0.24466
0.210127
0.245674
0.211074
0.0952094
0.0826279
0.0956343
0.0830245
0.194612
0.194587
0.195525
0.1955
0.0770269
0.0770166
0.0774099
0.0773996
0.210052
0.24454
0.210999
0.245553
0.0825967
0.0951568
0.0829931
0.0955814
0.305911
0.334604
0.307028
0.335839
0.116411
0.131551
0.116887
0.132057
0.332153
0.303692
0.333481
0.304891
0.130555
0.115462
0.1311
0.115974
0.242515
0.208125
0.243603
0.209141
0.0943002
0.0817779
0.0947566
0.0822041
0.192679
0.192655
0.19366
0.193635
0.0762044
0.0761943
0.0766163
0.0766062
0.208052
0.242396
0.209067
0.243483
0.0817472
0.0942485
0.0821732
0.0947045
0.303539
0.33198
0.304737
0.333305
0.11539
0.130468
0.115902
0.131011
0.329345
0.301158
0.330764
0.302437
0.129396
0.11437
0.129978
0.114918
0.240225
0.205987
0.241385
0.207071
0.0933286
0.0808691
0.0938163
0.0813248
0.190615
0.190591
0.191662
0.191637
0.0753248
0.0753149
0.0757654
0.0757554
0.205915
0.240109
0.206998
0.241268
0.080839
0.0932779
0.0812944
0.0937652
0.301008
0.329175
0.302285
0.330591
0.1143
0.12931
0.114846
0.129891
0.326356
0.298464
0.327865
0.299823
0.128163
0.113208
0.128782
0.113791
0.237789
0.203711
0.239022
0.204864
0.0922944
0.0799012
0.0928136
0.0803867
0.188418
0.188394
0.189531
0.189507
0.0743878
0.0743781
0.0748574
0.0748476
0.203641
0.237675
0.204793
0.238907
0.0798717
0.0922447
0.080357
0.0927635
0.298317
0.32619
0.299674
0.327696
0.113139
0.128078
0.113721
0.128697
0.323184
0.295607
0.324786
0.297048
0.126853
0.111975
0.127511
0.112594
0.235204
0.201295
0.236513
0.202519
0.0911961
0.0788728
0.0917478
0.0793889
0.186083
0.18606
0.187266
0.187243
0.0733919
0.0733824
0.0738913
0.0738817
0.201226
0.235092
0.202449
0.2364
0.078844
0.0911476
0.0793598
0.0916987
0.295463
0.323021
0.296903
0.32462
0.111907
0.126771
0.112525
0.127427
0.319824
0.29258
0.321521
0.294108
0.125466
0.110667
0.126163
0.111324
0.232463
0.198731
0.233851
0.20003
0.0900311
0.0777812
0.0906168
0.0783295
0.183606
0.183583
0.184861
0.184838
0.0723345
0.0723252
0.0728652
0.0728559
0.198664
0.232354
0.199962
0.233741
0.0777531
0.0899837
0.0783011
0.0905688
0.292439
0.319665
0.293965
0.321359
0.110601
0.125385
0.111257
0.126081
0.316268
0.289374
0.318064
0.290993
0.123997
0.10928
0.124736
0.109977
0.229555
0.196009
0.231028
0.197389
0.088795
0.0766221
0.089417
0.077205
0.180974
0.180951
0.182308
0.182286
0.0712114
0.0712024
0.0717758
0.0717667
0.195943
0.229449
0.197322
0.230921
0.0765947
0.0887488
0.0771773
0.0893703
0.289237
0.316113
0.290854
0.317906
0.109216
0.123918
0.109912
0.124656
0.312503
0.285974
0.314405
0.287692
0.12244
0.107808
0.123224
0.108549
0.226466
0.193112
0.228032
0.194582
0.0874815
0.0753891
0.0881433
0.0760101
0.178171
0.178149
0.179593
0.179571
0.0700162
0.0700075
0.0706178
0.0706089
0.193048
0.226362
0.194517
0.227927
0.0753626
0.0874366
0.0759831
0.0880978
0.285841
0.312351
0.287557
0.314251
0.107746
0.122364
0.108485
0.123146
0.308509
0.282358
0.310528
0.284188
0.120788
0.106248
0.121621
0.107034
0.223171
0.190018
0.224844
0.19159
0.0860819
0.0740729
0.0867884
0.0747371
0.175175
0.175154
0.176697
0.176676
0.0687395
0.0687311
0.0693834
0.0693749
0.189955
0.223071
0.191527
0.224742
0.0740472
0.0860384
0.074711
0.0867442
0.282228
0.308363
0.284056
0.310379
0.106187
0.120714
0.106972
0.121546
0.304259
0.278494
0.306411
0.280452
0.119026
0.104581
0.119916
0.105423
0.21964
0.186693
0.221436
0.188385
0.0845817
0.0726597
0.0853407
0.0733746
0.171952
0.171932
0.173593
0.173572
0.067368
0.0673598
0.0680615
0.0680532
0.186633
0.219543
0.188324
0.221337
0.0726349
0.0845398
0.0733493
0.085298
0.278369
0.304117
0.280325
0.306266
0.104523
0.118955
0.105364
0.119843
0.299713
0.274342
0.302018
0.27645
0.117136
0.102789
0.118093
0.103697
0.215828
0.183094
0.21777
0.184929
0.0829626
0.0711315
0.0837838
0.0719066
0.16846
0.168441
0.170241
0.170222
0.0658837
0.0658759
0.0666363
0.0666283
0.183036
0.215734
0.18487
0.217675
0.0711077
0.0829223
0.0718823
0.0837427
0.274221
0.299576
0.276327
0.301879
0.102733
0.117067
0.103639
0.118023
0.294818
0.269845
0.297306
0.272133
0.115093
0.100849
0.11613
0.101834
0.21168
0.179167
0.213798
0.181174
0.0812011
0.069465
0.082097
0.0703127
0.164644
0.164625
0.166595
0.166576
0.0642639
0.0642565
0.0650877
0.0650801
0.179112
0.211591
0.181118
0.213707
0.0694423
0.0811626
0.0702894
0.0820576
0.269729
0.294687
0.272015
0.297171
0.100795
0.115027
0.101779
0.116063
0.289507
0.264935
0.292212
0.26744
0.112865
0.0987309
0.114
0.0998089
0.207129
0.174842
0.209458
0.177058
0.0792677
0.0676312
0.0802539
0.0685668
0.160433
0.160416
0.162591
0.162573
0.0624795
0.0624725
0.0633898
0.0633826
0.17479
0.207044
0.177004
0.209371
0.0676097
0.0792313
0.0685447
0.0802164
0.264825
0.289383
0.267327
0.292084
0.0986799
0.112803
0.0997564
0.113935
0.283694
0.25953
0.286662
0.262294
0.110412
0.0964
0.111665
0.0975895
0.202088
0.170032
0.204674
0.172503
0.0771257
0.0655931
0.0782215
0.0666362
0.155741
0.155724
0.158152
0.158135
0.0604939
0.0604874
0.0615102
0.0615035
0.169983
0.202007
0.172452
0.204591
0.0655731
0.0770915
0.0666155
0.0781861
0.259426
0.283577
0.262187
0.286541
0.0963521
0.110353
0.09754
0.111604
0.277285
0.253529
0.280563
0.256604
0.107685
0.0938158
0.109081
0.0951369
0.196447
0.16462
0.199349
0.167409
0.0747285
0.0633028
0.0759586
0.0644792
0.150448
0.150433
0.153177
0.153161
0.0582592
0.0582532
0.0594072
0.0594009
0.164574
0.196373
0.167361
0.199271
0.0632844
0.0746969
0.06446
0.0759257
0.253433
0.277176
0.256503
0.280449
0.0937713
0.10763
0.0950907
0.109024
0.270239
0.246814
0.273831
0.250265
0.10465
0.0909448
0.106202
0.0924138
0.190032
0.158425
0.193352
0.161635
0.0720082
0.0606911
0.0734114
0.0620392
0.144387
0.144373
0.147525
0.147511
0.0557115
0.0557062
0.0570253
0.0570197
0.158383
0.189963
0.161591
0.19328
0.0606745
0.0719797
0.0620217
0.0733813
0.246726
0.270138
0.250172
0.273725
0.0909044
0.1046
0.0923713
0.106149
0.262953
0.238979
0.266539
0.243095
0.101426
0.0877037
0.103032
0.0893817
0.182351
0.151111
0.186408
0.154937
0.0688012
0.0576446
0.0704815
0.0592279
0.137333
0.137321
0.140996
0.140983
0.0527774
0.0527728
0.0542927
0.0542877
0.151074
0.182291
0.154897
0.186344
0.0576303
0.0687763
0.0592125
0.0704547
0.2389
0.262863
0.243011
0.266442
0.0876678
0.101381
0.0893435
0.102985
0.259222
0.226191
0.260089
0.23397
0.0984974
0.0826641
0.0999473
0.0856896
0.171709
0.142216
0.177584
0.146871
0.0645678
0.0540467
0.0668672
0.0559098
0.129199
0.129189
0.133383
0.133372
0.0494679
0.049464
0.0511556
0.0511514
0.142185
0.171657
0.146837
0.177527
0.0540347
0.0645468
0.0558967
0.0668442
0.226123
0.259142
0.233896
0.260003
0.0826339
0.0984592
0.0856563
0.0999057
0.16977
0.14275
0.103559
0.0872273
0.145633
0.121823
0.0846733
0.0715406
0.0816583
0.0443321
0.0392631
0.0134487
0.0656272
0.0322633
0.0291492
0.00879055
0.0249582
0.0249644
0.00556264
0.0055656
0.0154284
0.0154345
0.00416386
0.00416527
0.0443382
0.0816568
0.0134606
0.0392694
0.0322728
0.0656293
0.00879616
0.0291569
0.14274
0.169755
0.0872272
0.103553
0.121819
0.145623
0.0715438
0.084671
0.258628
0.223624
0.219048
0.186839
0.223834
0.192136
0.189494
0.160523
0.152466
0.108562
0.119093
0.0771932
0.125699
0.0856059
0.0975226
0.0593339
0.0878057
0.0878025
0.056999
0.0569995
0.0668338
0.0668325
0.0408234
0.0408262
0.10855
0.152442
0.0771902
0.119081
0.0855992
0.125683
0.0593351
0.0975165
0.223589
0.258586
0.186818
0.21902
0.192111
0.223802
0.160509
0.189474
0.322309
0.284468
0.292478
0.25577
0.278089
0.243709
0.252769
0.219456
0.210024
0.164326
0.182609
0.13762
0.174025
0.132375
0.151033
0.109985
0.142933
0.142923
0.116508
0.116502
0.113223
0.113217
0.0910183
0.0910141
0.164296
0.209974
0.137599
0.182572
0.132354
0.173987
0.109971
0.151006
0.284404
0.322235
0.255721
0.29242
0.243658
0.278029
0.219418
0.252724
0.37282
0.333606
0.348908
0.310276
0.320822
0.285133
0.300597
0.265471
0.257666
0.211042
0.234965
0.188749
0.213937
0.171474
0.194921
0.152825
0.189194
0.189179
0.167114
0.167102
0.151963
0.151951
0.13349
0.133481
0.210997
0.257592
0.188712
0.234904
0.171439
0.213878
0.152797
0.194873
0.333512
0.372715
0.310197
0.348817
0.285056
0.320734
0.265406
0.300522
0.413567
0.373579
0.394285
0.354634
0.355289
0.318828
0.338976
0.302856
0.296851
0.249641
0.278244
0.231297
0.246765
0.203741
0.231175
0.188407
0.227454
0.227434
0.209266
0.209248
0.183924
0.183908
0.168734
0.16872
0.249582
0.296756
0.231244
0.27816
0.203693
0.246687
0.188366
0.231106
0.37346
0.413434
0.354527
0.394165
0.318727
0.355175
0.302766
0.338874
0.446133
0.405693
0.430778
0.390537
0.382853
0.345912
0.369854
0.333126
0.328551
0.280973
0.313573
0.266158
0.273331
0.229924
0.260777
0.217543
0.258551
0.258526
0.243842
0.24382
0.209877
0.209857
0.197602
0.197584
0.280902
0.328438
0.266092
0.313468
0.229865
0.273236
0.217489
0.26069
0.405552
0.445977
0.390405
0.430632
0.34579
0.382716
0.333014
0.369727
0.4717
0.431
0.459709
0.419122
0.404499
0.367258
0.394346
0.357238
0.353666
0.30587
0.341871
0.29417
0.294377
0.25072
0.284492
0.240947
0.283294
0.283266
0.271662
0.271636
0.230514
0.230491
0.220813
0.220791
0.305787
0.353536
0.294093
0.341749
0.250651
0.294267
0.240883
0.284389
0.430839
0.471524
0.41897
0.459541
0.367118
0.404342
0.357106
0.394198
0.491319
0.450479
0.482178
0.441398
0.421103
0.383681
0.413367
0.376025
0.373089
0.325178
0.36403
0.316167
0.310642
0.266831
0.303057
0.259314
0.302509
0.302478
0.293539
0.293509
0.246522
0.246496
0.23905
0.239025
0.325087
0.372946
0.31608
0.363894
0.266754
0.310518
0.25924
0.302939
0.450303
0.491126
0.441229
0.481992
0.383525
0.420929
0.375876
0.4132
0.505935
0.465038
0.499181
0.458307
0.433457
0.395939
0.42775
0.390273
0.387676
0.339722
0.38093
0.332992
0.322836
0.278945
0.317198
0.273341
0.317004
0.31697
0.310294
0.310262
0.258574
0.258545
0.252997
0.252969
0.339623
0.387522
0.332897
0.380781
0.27886
0.322702
0.27326
0.317069
0.464848
0.505728
0.458123
0.498979
0.39577
0.433269
0.390109
0.427567
0.516433
0.475535
0.511636
0.470735
0.442312
0.404757
0.438267
0.400725
0.398255
0.350306
0.393415
0.34546
0.331656
0.287734
0.327623
0.283712
0.32757
0.327535
0.32273
0.322695
0.267333
0.267302
0.263322
0.263293
0.350201
0.398092
0.345358
0.393256
0.287644
0.331513
0.283624
0.327484
0.475334
0.516215
0.470538
0.511421
0.404576
0.442111
0.40055
0.43807
0.523594
0.482737
0.520372
0.479493
0.44833
0.410785
0.445623
0.40807
0.405575
0.357667
0.402276
0.354345
0.337734
0.29382
0.334996
0.291075
0.334936
0.334899
0.33161
0.331573
0.273411
0.273379
0.270668
0.270636
0.357557
0.405404
0.354238
0.402108
0.293725
0.337584
0.290983
0.334849
0.482528
0.523367
0.479287
0.520147
0.410596
0.44812
0.407885
0.445416
0.528112
0.487327
0.526134
0.485311
0.452106
0.414605
0.450453
0.412928
0.410308
0.362467
0.408225
0.36035
0.341639
0.297763
0.339922
0.296025
0.339759
0.33972
0.337629
0.337591
0.277364
0.277331
0.275619
0.275587
0.362354
0.410132
0.360238
0.408052
0.297664
0.341484
0.295928
0.339769
0.487111
0.527878
0.485097
0.525901
0.414409
0.451889
0.412735
0.450238
0.530569
0.489883
0.529554
0.488817
0.454136
0.41671
0.453299
0.415833
0.413028
0.365275
0.411886
0.364089
0.343859
0.300042
0.342929
0.299081
0.342603
0.342563
0.341398
0.341358
0.279668
0.279634
0.278693
0.27866
0.365159
0.412848
0.363974
0.411708
0.299942
0.343699
0.298981
0.342771
0.489662
0.530331
0.488598
0.529315
0.41651
0.453915
0.415635
0.453078
0.53145
0.490887
0.531169
0.490543
0.454834
0.417509
0.454618
0.41724
0.414213
0.366565
0.413786
0.366085
0.344796
0.30106
0.344462
0.300685
0.34394
0.343899
0.343435
0.343395
0.280722
0.280687
0.280328
0.280293
0.366448
0.414031
0.365968
0.413605
0.300957
0.344634
0.300583
0.344302
0.490663
0.531209
0.490321
0.530927
0.417306
0.45461
0.417038
0.454393
0.531159
0.490737
0.531417
0.490922
0.45455
0.417345
0.454784
0.417516
0.414256
0.366723
0.414354
0.366766
0.344786
0.301142
0.344886
0.301197
0.344151
0.34411
0.344167
0.344126
0.280847
0.280812
0.28088
0.280845
0.366605
0.414073
0.366647
0.414171
0.301039
0.344624
0.301094
0.344723
0.490512
0.530917
0.490698
0.531173
0.417141
0.454324
0.417312
0.454558
0.529966
0.489709
0.530648
0.490309
0.453505
0.416446
0.454097
0.416964
0.413444
0.366045
0.413946
0.366482
0.344065
0.300532
0.344502
0.300914
0.343537
0.343496
0.343941
0.3439
0.28029
0.280255
0.280646
0.28061
0.365927
0.41326
0.366363
0.413762
0.300429
0.343902
0.300811
0.344339
0.489485
0.529724
0.490084
0.530404
0.416241
0.453279
0.41676
0.453869
0.528101
0.48803
0.529096
0.488932
0.451899
0.415004
0.452752
0.415773
0.411991
0.364735
0.412787
0.365459
0.342816
0.299404
0.343495
0.300021
0.342295
0.342254
0.342984
0.342943
0.27922
0.279185
0.279808
0.279773
0.364616
0.411808
0.365341
0.412603
0.299301
0.342654
0.299918
0.343332
0.487806
0.52786
0.488707
0.528852
0.414801
0.451674
0.415569
0.452524
0.525719
0.485853
0.526958
0.486988
0.449858
0.41315
0.450915
0.414113
0.410058
0.362956
0.411078
0.363899
0.341172
0.297891
0.342035
0.298688
0.340591
0.34055
0.341496
0.341455
0.277772
0.277737
0.278536
0.278501
0.362838
0.409876
0.363781
0.410895
0.297789
0.34101
0.298586
0.341873
0.485631
0.52548
0.486765
0.526715
0.412948
0.449635
0.41391
0.450689
0.522922
0.483284
0.524357
0.484604
0.447468
0.410968
0.448691
0.412086
0.407749
0.360813
0.408947
0.361928
0.339217
0.29608
0.340227
0.297018
0.338529
0.338489
0.339602
0.339562
0.27603
0.275996
0.276933
0.276898
0.360696
0.407569
0.36181
0.408765
0.295979
0.339057
0.296916
0.340066
0.483064
0.522686
0.484383
0.524117
0.410768
0.447248
0.411885
0.448467
0.519779
0.480391
0.521381
0.481867
0.444786
0.408516
0.44615
0.409764
0.405133
0.358374
0.406478
0.35963
0.337008
0.294025
0.33814
0.29508
0.336177
0.336137
0.337389
0.337349
0.27405
0.274016
0.275067
0.275033
0.358259
0.404955
0.359514
0.406298
0.293924
0.33685
0.294979
0.337981
0.480174
0.519546
0.481649
0.521144
0.408318
0.444568
0.409565
0.445929
0.516329
0.477215
0.518081
0.478829
0.441842
0.405824
0.443334
0.407189
0.402251
0.35568
0.403725
0.35706
0.334576
0.291758
0.335816
0.292916
0.333575
0.333536
0.334908
0.334869
0.271864
0.27183
0.272981
0.272947
0.355567
0.402075
0.356945
0.403547
0.291659
0.33442
0.292816
0.335659
0.477001
0.516099
0.478613
0.517847
0.405629
0.441627
0.406992
0.443116
0.512595
0.473779
0.514487
0.475521
0.438654
0.402912
0.440267
0.404385
0.399126
0.352756
0.400719
0.354249
0.331942
0.289299
0.333282
0.290551
0.330749
0.330711
0.332192
0.332153
0.26949
0.269457
0.270699
0.270666
0.352644
0.398953
0.354136
0.400544
0.289202
0.331788
0.290453
0.333127
0.473568
0.512369
0.475308
0.514257
0.40272
0.438443
0.404192
0.440052
0.508588
0.470093
0.510616
0.471959
0.435232
0.399789
0.436962
0.401367
0.395771
0.349613
0.397479
0.351214
0.329113
0.286657
0.33055
0.288
0.32771
0.327672
0.329259
0.329221
0.266939
0.266906
0.268236
0.268203
0.349503
0.395601
0.351103
0.397307
0.286561
0.328962
0.287903
0.330397
0.469886
0.508366
0.47175
0.510389
0.3996
0.435025
0.401177
0.43675
0.504312
0.466164
0.506474
0.468151
0.431579
0.396458
0.433424
0.39814
0.39219
0.346255
0.39401
0.347964
0.326094
0.283835
0.327626
0.285268
0.324462
0.324425
0.326115
0.326078
0.264213
0.264181
0.265598
0.265565
0.346147
0.392022
0.347854
0.393841
0.283741
0.325945
0.285173
0.327476
0.46596
0.504094
0.467946
0.506252
0.396273
0.431375
0.397953
0.433217
0.499766
0.461988
0.502064
0.464099
0.427694
0.392918
0.429655
0.394705
0.38838
0.342681
0.390316
0.344498
0.322883
0.280832
0.324511
0.282356
0.321003
0.320967
0.322762
0.322725
0.261311
0.26128
0.262784
0.262752
0.342574
0.388216
0.344391
0.39015
0.280739
0.322737
0.282263
0.324364
0.461789
0.499553
0.463898
0.501846
0.392737
0.427494
0.394522
0.429452
0.494946
0.457559
0.497382
0.459799
0.423573
0.389164
0.425653
0.391059
0.384335
0.338882
0.38639
0.340813
0.319474
0.277641
0.321202
0.27926
0.317325
0.317289
0.319195
0.319159
0.258227
0.258196
0.259792
0.259761
0.338778
0.384174
0.340708
0.386227
0.277551
0.319331
0.279169
0.321058
0.457364
0.494737
0.459601
0.497169
0.388987
0.423377
0.39088
0.425454
0.48984
0.452866
0.49242
0.455239
0.419209
0.385188
0.421412
0.387196
0.380042
0.334845
0.382222
0.336897
0.315858
0.274254
0.317692
0.275973
0.313415
0.313379
0.315403
0.315367
0.254951
0.254921
0.256614
0.256583
0.334743
0.379884
0.336794
0.382063
0.274165
0.315719
0.275883
0.317551
0.452676
0.489637
0.455046
0.492212
0.385014
0.419018
0.38702
0.421217
0.484434
0.44789
0.487167
0.450408
0.414589
0.380975
0.416922
0.383103
0.37548
0.33055
0.377797
0.332734
0.312021
0.270654
0.313967
0.272482
0.30925
0.309216
0.311369
0.311334
0.251467
0.251438
0.253236
0.253206
0.33045
0.375326
0.332633
0.377642
0.270567
0.311884
0.272394
0.313829
0.447704
0.484235
0.450219
0.486964
0.380806
0.414403
0.382932
0.416732
0.478704
0.442604
0.481602
0.44528
0.409696
0.376507
0.412168
0.378766
0.370621
0.325966
0.373091
0.328299
0.307938
0.266817
0.310011
0.268767
0.304803
0.304769
0.307067
0.307033
0.247751
0.247723
0.24964
0.249611
0.325869
0.370471
0.3282
0.372939
0.266733
0.307806
0.268681
0.309876
0.442423
0.478511
0.445096
0.481404
0.376342
0.409515
0.378599
0.411983
0.472618
0.436981
0.4757
0.43983
0.404503
0.371748
0.407129
0.374157
0.365428
0.321054
0.368071
0.323557
0.303579
0.262712
0.305795
0.264801
0.30003
0.299997
0.302463
0.30243
0.243771
0.243743
0.245796
0.245768
0.320959
0.365283
0.323461
0.367923
0.26263
0.30345
0.264718
0.305664
0.436805
0.472431
0.439652
0.475508
0.371588
0.404327
0.373995
0.406949
0.466125
0.43096
0.469417
0.434016
0.398972
0.366659
0.401773
0.369239
0.359844
0.315756
0.362691
0.31846
0.298899
0.258293
0.301281
0.260545
0.294875
0.294843
0.297507
0.297474
0.23948
0.239453
0.241667
0.24164
0.315665
0.359703
0.318367
0.362547
0.258213
0.298774
0.260464
0.301155
0.43079
0.465943
0.433843
0.469231
0.366505
0.398802
0.369082
0.401599
0.459161
0.424471
0.462697
0.427771
0.393049
0.361185
0.396053
0.363966
0.353798
0.310001
0.356885
0.312943
0.293839
0.2535
0.29642
0.255947
0.289266
0.289235
0.292135
0.292104
0.234819
0.234793
0.2372
0.237173
0.309913
0.353662
0.312853
0.356747
0.253423
0.293719
0.255869
0.296297
0.424307
0.458986
0.427603
0.462517
0.361036
0.392885
0.363814
0.395885
0.45165
0.417434
0.455471
0.421019
0.386666
0.355254
0.38991
0.358273
0.347202
0.303698
0.350576
0.306927
0.288327
0.248258
0.291144
0.25094
0.283111
0.283082
0.286265
0.286235
0.229713
0.229688
0.232327
0.232301
0.303613
0.347071
0.30684
0.350443
0.248185
0.288211
0.250865
0.291026
0.417276
0.451482
0.420858
0.455298
0.355111
0.386509
0.358127
0.389749
0.443494
0.409745
0.44765
0.41367
0.379739
0.348778
0.383267
0.352082
0.339948
0.296736
0.343666
0.30031
0.282269
0.242475
0.285371
0.245441
0.276297
0.27627
0.279797
0.279768
0.224068
0.224044
0.226964
0.22694
0.296655
0.339823
0.300226
0.343538
0.242405
0.282159
0.245369
0.285258
0.409595
0.443334
0.413516
0.447484
0.348641
0.37959
0.351942
0.383113
0.434587
0.401289
0.439132
0.405613
0.37217
0.34165
0.376032
0.345294
0.331906
0.288975
0.336036
0.292967
0.275553
0.23603
0.279
0.239343
0.268682
0.268656
0.272602
0.272575
0.217762
0.21774
0.221006
0.220983
0.288898
0.331788
0.292888
0.335914
0.235964
0.275449
0.239275
0.278893
0.401146
0.434435
0.405466
0.438974
0.341522
0.372028
0.345161
0.375885
0.424841
0.39194
0.429812
0.396725
0.363863
0.333753
0.368103
0.337797
0.322913
0.280232
0.327541
0.284742
0.268035
0.228768
0.271904
0.232513
0.260076
0.260052
0.264519
0.264493
0.210637
0.210616
0.214313
0.214292
0.28016
0.322802
0.284668
0.327426
0.228707
0.267938
0.232449
0.271804
0.391807
0.424699
0.396587
0.429663
0.333632
0.363731
0.337672
0.367965
0.414332
0.381576
0.419653
0.386887
0.354828
0.324946
0.359415
0.329467
0.312717
0.270231
0.31799
0.275414
0.259484
0.220449
0.26391
0.224761
0.250213
0.25019
0.255323
0.2553
0.202465
0.202446
0.206698
0.206678
0.270164
0.312615
0.275345
0.317883
0.220392
0.259395
0.224702
0.263816
0.381452
0.4142
0.386758
0.419514
0.324835
0.354706
0.329351
0.359287
0.404043
0.369773
0.408985
0.375918
0.34574
0.314755
0.35016
0.32009
0.300656
0.258473
0.306999
0.264615
0.249289
0.210638
0.254664
0.215766
0.238734
0.238714
0.244699
0.244677
0.192951
0.192934
0.197893
0.197875
0.258413
0.300564
0.264552
0.306902
0.210588
0.249209
0.215713
0.254579
0.369661
0.403923
0.3758
0.408858
0.314655
0.34563
0.319985
0.350043
0.400993
0.351802
0.40059
0.362548
0.342136
0.298744
0.342421
0.308373
0.284537
0.244297
0.293342
0.251705
0.235467
0.198778
0.243041
0.204975
0.225451
0.225433
0.232302
0.232283
0.181962
0.181947
0.187621
0.187606
0.244245
0.284456
0.25165
0.293255
0.198734
0.235398
0.204928
0.242966
0.351703
0.400886
0.362442
0.400476
0.298657
0.342038
0.308279
0.342317
0.200126
0.169852
0.127987
0.108223
0.187097
0.15811
0.117475
0.0990097
0.103816
0.0626508
0.0540494
0.0232039
0.0940367
0.0542977
0.0473846
0.0186434
0.042239
0.0422434
0.00979909
0.00980485
0.0341512
0.0341567
0.0075731
0.00757797
0.0626521
0.103806
0.0232175
0.054052
0.0543017
0.0940313
0.0186575
0.0473894
0.169832
0.200097
0.108215
0.127969
0.158095
0.187075
0.0990057
0.117463
0.303005
0.264946
0.25627
0.220951
0.2838
0.246917
0.240241
0.206139
0.189685
0.142548
0.148822
0.103615
0.173217
0.127271
0.135712
0.0917393
0.120119
0.120112
0.0818972
0.0818948
0.105447
0.105442
0.0705538
0.0705528
0.142525
0.189645
0.103604
0.148797
0.127253
0.173185
0.0917323
0.135694
0.264892
0.302942
0.220915
0.256225
0.246872
0.283747
0.20611
0.240205
0.380448
0.339554
0.343914
0.304154
0.35502
0.31528
0.321532
0.282935
0.261236
0.2122
0.22703
0.17876
0.238387
0.19056
0.207292
0.160218
0.188907
0.188892
0.155842
0.155832
0.167957