/*--------------------------------*- C++ -*----------------------------------*\
  =========                 |
  \\      /  F ield         | OpenFOAM: The Open Source CFD Toolbox
   \\    /   O peration     | Website:  https://openfoam.org
    \\  /    A nd           | Version:  9
     \\/     M anipulation  |
\*---------------------------------------------------------------------------*/
FoamFile
{
    format      ascii;
    class       volScalarField;
    location    "4";
    object      epsilon;
}
// * * * * * * * * * * * * * * * * * * * * * * * * * * * * * * * * * * * * * //

dimensions      [0 2 -3 0 0 0 0];

internalField   nonuniform List<scalar> 
36360
(
11.0574
9.97407
8.70728
8.19328
17.436
16.5236
10.7578
12.6344
7.97687
6.92032
6.41517
5.46858
13.8821
12.4732
10.0886
8.72945
6.46008
6.45997
5.06071
5.06058
11.87
11.8695
8.19081
8.19038
6.92003
7.97653
5.46822
6.41469
12.4717
13.8794
8.7281
10.0861
9.97412
11.0584
8.1931
8.70789
16.5193
17.4299
12.6303
10.7525
13.2579
11.9389
12.4129
11.1526
21.7064
20.1437
20.1194
18.6679
9.74426
8.59482
9.01431
7.89469
17.2133
15.6961
15.8292
14.3553
8.09446
8.09438
7.40741
7.40732
15.0398
15.0393
13.7196
13.7191
8.59463
9.74408
7.89445
9.01407
15.6946
17.2107
14.3538
15.8265
11.9392
13.2593
11.1527
12.4142
20.1396
21.7006
18.6637
20.1134
14.3138
12.9591
13.8562
12.5139
23.8165
22.1675
22.8762
21.2619
10.7268
9.55652
10.2944
9.13083
19.1587
17.6053
18.2858
16.745
9.04692
9.04687
8.62426
8.6242
16.9314
16.931
16.0774
16.0769
9.55639
10.7267
9.13067
10.2942
17.6039
19.1563
16.7436
18.2833
12.9595
14.3153
12.5143
13.8576
22.1637
23.8111
21.258
22.8705
14.9737
13.6075
14.6766
13.315
25.2362
23.5483
24.586
22.9135
11.3693
10.1959
11.0784
9.90584
20.4991
18.9327
19.8819
18.3217
9.68449
9.68445
9.39496
9.39492
18.2539
18.2535
17.6446
17.6442
10.1958
11.3693
9.90574
11.0783
18.9315
20.4969
18.3204
19.8796
13.6079
14.9752
13.3154
14.6781
23.5449
25.2311
22.9098
24.5807
15.428
14.0568
15.2201
13.851
26.2593
24.5547
25.7844
24.0863
11.8227
10.6514
11.615
10.4424
21.4826
19.9097
21.0252
19.455
10.1405
10.1404
9.93104
9.93101
19.2297
19.2294
18.7754
18.775
10.6513
11.8228
10.4423
11.615
19.9086
21.4806
19.4538
21.023
14.0572
15.4295
13.8515
15.2216
24.5515
26.2547
24.0829
25.7796
15.754
14.3805
15.6036
14.2311
27.0215
25.31
26.6652
24.9561
12.1543
10.9872
12.0015
10.8323
22.2246
20.65
21.8774
20.3035
10.478
10.478
10.3221
10.3221
19.9706
19.9702
19.6236
19.6232
10.9872
12.1543
10.8322
12.0015
20.649
22.2227
20.3024
21.8755
14.381
15.7555
14.2316
15.605
25.3071
27.0173
24.953
26.6607
15.9914
14.6171
15.8818
14.5078
27.5967
25.8834
27.3273
25.614
12.4003
11.2386
12.2869
11.1225
22.7916
21.2182
22.5256
20.9516
10.7318
10.7318
10.6146
10.6146
20.5403
20.54
20.2729
20.2726
11.2386
12.4004
11.1225
12.2869
21.2173
22.7899
20.9506
22.5239
14.6176
15.9928
14.5083
15.8832
25.8808
27.5929
25.6113
27.3231
16.1628
14.789
16.0838
14.7097
28.0295
26.3181
27.8267
26.1138
12.5826
11.4268
12.4988
11.3402
23.225
21.6549
23.0217
21.4501
10.9227
10.9227
10.8348
10.8348
20.979
20.9787
20.7731
20.7728
11.4268
12.5827
11.3402
12.4989
21.6541
23.2235
21.4492
23.0202
14.7896
16.1644
14.7103
16.0853
26.3159
28.0265
26.1113
27.8232
16.2839
14.9109
16.228
14.855
28.3516
26.6432
28.2
26.4905
12.7153
11.5657
12.6548
11.5023
23.5525
21.9871
23.3994
21.8318
11.0645
11.0645
10.9997
10.9997
21.3137
21.3135
21.1571
21.1569
11.5658
12.7154
11.5024
12.655
21.9864
23.5512
21.831
23.398
14.9115
16.2853
14.8557
16.2298
26.6412
28.3486
26.4885
28.1976
16.365
14.9927
16.3286
14.9559
28.5846
26.8788
28.4767
26.7691
12.8079
11.6648
12.7665
11.6203
23.7933
22.2336
23.6817
22.1192
11.1666
11.1666
11.1207
11.1207
21.5634
21.5632
21.4474
21.4472
11.6648
12.8081
11.6204
12.7666
22.2329
23.7921
22.1185
23.6804
14.9931
16.3659
14.9564
16.3293
26.8768
28.5809
26.7669
28.4726
16.4132
15.041
16.3924
15.0202
28.744
27.0394
28.6711
26.9657
12.8672
11.7306
12.8418
11.7021
23.9612
22.408
23.8846
22.3283
11.2356
11.2356
11.2055
11.2055
21.7414
21.7412
21.6599
21.6597
11.7306
12.8673
11.7021
12.8419
22.4074
23.9601
22.3277
23.8835
15.0413
16.4134
15.0206
16.393
27.0374
28.7391
26.9637
28.6669
16.4316
15.0598
16.4253
15.0534
28.8354
27.1341
28.7955
27.0924
12.8976
11.7678
12.8861
11.753
24.0658
22.5202
24.0199
22.4707
11.276
11.2761
11.2597
11.2597
21.8576
21.8575
21.8061
21.8059
11.7678
12.8977
11.7531
12.8862
22.5196
24.0649
22.4701
24.0189
15.0602
16.4321
15.0537
16.4255
27.1325
28.8326
27.0906
28.7912
16.4232
15.0524
16.4302
15.0589
28.8679
27.1698
28.8577
27.1574
12.9022
11.7796
12.9033
11.7772
24.1143
22.5772
24.0959
22.5545
11.2913
11.2914
11.2872
11.2872
21.9191
21.919
21.8942
21.8941
11.7797
12.9025
11.7773
12.9035
22.5768
24.1135
22.554
24.095
15.0528
16.4244
15.0593
16.4312
27.1685
28.8662
27.1559
28.8556
16.3876
15.0178
16.409
15.0387
28.8452
27.1503
28.8623
27.1658
12.8828
11.7685
12.896
11.7773
24.1111
22.5837
24.118
22.5859
11.2841
11.2842
11.2908
11.2908
21.9308
21.9307
21.9305
21.9304
11.7688
12.8834
11.7774
12.8963
22.5836
24.1108
22.5856
24.1174
15.0194
16.3905
15.0394
16.4104
27.15
28.8456
27.1648
28.8615
16.3249
14.9589
16.3577
14.9896
28.7689
27.0775
28.8111
27.1172
12.8412
11.7361
12.8645
11.7551
24.06
22.5452
24.0905
22.5701
11.2559
11.256
11.2729
11.273
21.8982
21.8982
21.9201
21.9201
11.7365
12.8421
11.7555
12.8653
22.5453
24.0601
22.5701
24.0906
14.9605
16.3277
14.9913
16.3612
27.0778
28.7699
27.1176
28.8127
16.2549
14.8895
16.291
14.9258
28.659
26.9705
28.7174
27.0275
12.7831
11.6855
12.8146
11.7134
23.9689
22.4647
24.0187
22.5094
11.209
11.2091
11.2351
11.2352
21.8228
21.8228
21.8649
21.865
11.6858
12.7837
11.7138
12.8153
22.4646
23.9688
22.5094
24.0187
14.8909
16.2567
14.9274
16.2929
26.9696
28.6559
27.027
28.7157
16.1595
14.7968
16.2089
14.8446
28.4981
26.8144
28.5823
26.8957
12.706
11.617
12.7469
11.6538
23.8362
22.3442
23.9068
22.4088
11.1443
11.1443
11.1792
11.1793
21.7077
21.7076
21.7696
21.7696
11.6171
12.7062
11.654
12.7474
22.3439
23.8357
22.4086
23.9065
14.7972
16.1601
14.8458
16.2106
26.8136
28.4965
26.8951
28.58
16.0483
14.6881
16.1057
14.7442
28.3012
26.6222
28.4028
26.7218
12.6123
11.5316
12.6616
11.5768
23.665
22.1852
23.7548
22.269
11.0626
11.0625
11.1059
11.1059
21.554
21.5538
21.6351
21.635
11.5315
12.6122
11.5768
12.6615
22.1847
23.6638
22.2686
23.7539
14.6896
16.0502
14.7451
16.1063
26.6199
28.2981
26.7201
28.4007
15.9162
14.5605
15.9833
14.6257
28.0583
26.383
28.1839
26.506
12.5005
11.4289
12.5588
11.4827
23.4533
21.9877
23.5634
22.0908
10.9639
10.9638
11.0157
11.0157
21.3619
21.3617
21.4623
21.4621
11.4287
12.5002
11.4826
12.5586
21.987
23.452
22.0901
23.5622
14.5596
15.9152
14.6263
15.9852
26.3808
28.054
26.5039
28.1805
15.7638
14.4138
15.8422
14.4888
27.7712
26.1039
27.9188
26.2474
12.3717
11.3095
12.4385
11.3717
23.2028
21.7521
23.3324
21.8743
10.8485
10.8484
10.9087
10.9086
21.1317
21.1315
21.2512
21.2509
11.3092
12.3711
11.3714
12.438
21.7514
23.2012
21.8735
23.3308
14.414
15.7648
14.4886
15.8409
26.1007
27.7671
26.2442
27.9139
15.5918
14.2489
15.6789
14.3331
27.4377
25.7792
27.6079
25.9449
12.2249
11.1731
12.3007
11.2437
22.9118
21.4779
23.0616
21.6194
10.7164
10.7164
10.7849
10.7848
20.8631
20.8629
21.0017
21.0015
11.173
12.2247
11.2435
12.3002
21.4775
22.9112
21.6188
23.0605
14.247
15.5896
14.3313
15.679
25.7785
27.4387
25.943
27.6066
15.3941
14.0625
15.4947
14.1565
27.0618
25.4118
27.2539
25.5993
12.0604
11.0198
12.145
11.0989
22.5808
21.1644
22.7508
21.3257
10.5682
10.5681
10.6447
10.6447
20.5574
20.5573
20.7147
20.7146
11.0198
12.0607
11.0989
12.1452
21.164
22.5804
21.3253
22.7503
14.0647
15.3994
14.1584
15.4967
25.4119
27.0628
25.5992
27.2554
15.1827
13.8604
15.2909
13.9643
26.6405
25.0001
26.8553
25.2097
11.8782
10.8494
11.9717
10.9371
22.2089
20.8112
22.3994
20.9923
10.4031
10.4031
10.4881
10.4881
20.2126
20.2126
20.3896
20.3894
10.8495
11.8786
10.9371
11.9721
20.8109
22.2089
20.992
22.3992
13.8608
15.183
13.9634
15.2918
25.0013
26.6429
25.2105
26.8565
14.9461
13.637
15.0661
13.7502
26.1759
24.5445
26.4124
24.7762
11.6779
10.6616
11.7804
10.758
21.7961
20.4183
22.0071
20.6193
10.221
10.221
10.3145
10.3145
19.8287
19.8286
20.0252
20.0251
10.6617
11.6782
10.758
11.7809
20.4181
21.796
20.6191
22.007
13.638
14.9483
13.752
15.0689
24.5449
26.1771
24.7773
26.4152
14.6864
13.3931
14.8187
13.5171
25.6609
24.0417
25.9234
24.2975
11.4588
10.4562
11.5709
10.5614
21.3417
19.9853
21.5736
20.2064
10.0217
10.0217
10.1238
10.1238
19.4051
19.405
19.6215
19.6214
10.4562
11.4592
10.5615
11.5713
19.985
21.3415
20.2062
21.5735
13.3951
14.6886
13.5185
14.8205
24.0425
25.6613
24.2983
25.9244
14.4027
13.1293
14.5459
13.2622
25.0993
23.4948
25.3834
23.7713
11.2217
10.2332
11.3425
10.3472
20.8459
19.5121
21.0983
19.7533
9.80512
9.80507
9.91588
9.91585
18.9419
18.9418
19.1781
19.178
10.2331
11.2215
10.3471
11.3425
19.5116
20.8449
19.753
21.0977
13.1314
14.4051
13.264
14.5478
23.4932
25.0972
23.7703
25.3824
14.1038
12.8508
14.2546
12.9917
24.496
22.9061
24.8025
23.205
10.9671
9.99266
11.0969
10.1155
20.3082
18.9986
20.5819
19.26
9.57116
9.57108
9.69062
9.69055
18.439
18.4388
18.6951
18.6949
9.99239
10.9667
10.1152
11.0967
18.998
20.3069
19.2595
20.5807
12.8505
14.1044
12.9937
14.2578
22.9039
24.4929
23.2033
24.7993
13.7772
12.5489
13.9428
12.7015
23.8401
22.2688
24.173
22.5915
10.6929
9.73395
10.8325
9.86584
19.7282
18.4447
20.0229
18.7263
9.31961
9.31956
9.44788
9.4478
17.8965
17.8964
18.1724
18.1722
9.73375
10.6926
9.86559
10.8321
18.4443
19.7272
18.7258
20.0217
12.5485
13.777
12.7008
13.9422
22.267
23.8377
22.5894
24.1703
13.4239
12.2236
13.6037
12.3888
23.1331
21.5832
23.492
21.9308
10.3988
9.45687
10.5486
9.59799
19.1062
17.8508
19.422
18.1524
9.05032
9.0503
9.18747
9.18744
17.3147
17.3146
17.6102
17.6101
9.45681
10.3986
9.59786
10.5483
17.8505
19.1056
18.1521
19.4213
12.2235
13.424
12.3885
13.6036
21.5822
23.1316
21.9294
23.49
13.0427
11.8747
13.2359
12.0513
22.376
20.85
22.7595
21.221
10.0846
9.16142
10.2443
9.31167
18.4424
17.2174
18.7789
17.5386
8.76331
8.76331
8.90928
8.90927
16.6943
16.6942
17.009
17.0089
9.16143
10.0846
9.31165
10.2442
17.2172
18.442
17.5384
18.7785
11.8749
13.0431
12.0514
13.2362
20.8494
22.3749
21.2202
22.7583
12.6377
11.5052
12.8424
11.6918
21.5732
20.0732
21.979
20.4655
9.75159
8.84822
9.92051
9.00724
17.7391
16.5461
18.0951
16.886
8.459
8.459
8.61354
8.61354
16.0366
16.0365
16.3697
16.3697
8.84823
9.75164
9.00725
9.92055
16.5459
17.7388
16.8859
18.0948
11.5053
12.6382
11.692
12.8428
20.0727
21.5723
20.465
21.978
12.2119
11.1167
12.4267
11.3126
20.7293
19.2577
21.1552
19.669
9.4009
8.51793
9.57854
8.68541
16.9988
15.8387
17.3731
16.1965
8.13787
8.13788
8.30076
8.30076
15.3432
15.3431
15.694
15.6939
8.51794
9.40095
8.68542
9.57859
15.8386
16.9985
16.1964
17.3728
11.1169
12.2124
11.3128
12.4272
19.2572
20.7285
19.6684
21.1543
11.7674
10.711
11.9913
10.9154
19.8471
18.4052
20.2919
18.8348
9.03329
8.17099
9.21932
8.34676
16.2233
15.0967
16.615
15.4717
7.80022
7.80022
7.97135
7.97135
14.6153
14.6152
14.9832
14.9832
8.171
9.03334
8.34677
9.21937
15.0966
16.223
15.4716
16.6147
10.7112
11.7679
10.9156
11.9918
18.4047
19.8463
18.8343
20.2911
11.3058
10.2887
11.5381
10.5013
18.9284
17.5175
19.3913
17.9646
8.64898
7.80734
8.84337
7.9915
15.4135
14.3209
15.8223
14.7127
7.44588
7.44588
7.6254
7.6254
13.8536
13.8536
14.2384
14.2384
7.80735
8.64902
7.99151
8.84342
14.3207
15.4132
14.7126
15.822
10.2889
11.3062
10.5015
11.5386
17.517
18.9276
17.9641
19.3905
10.8276
9.84983
11.0682
10.0709
17.9736
16.5957
18.4547
17.0598
8.24735
7.42619
8.45055
7.61926
14.5697
13.511
14.9956
13.92
7.07398
7.07398
7.26244
7.26244
13.0579
13.0578
13.4598
13.4598
7.4262
8.24739
7.61927
8.45059
13.5109
14.5694
13.9199
14.9953
9.84998
10.828
10.071
11.0686
16.5952
17.9728
17.0593
18.454
10.3316
9.3923
10.5815
9.62307
16.9798
15.6389
17.4811
16.1208
7.82606
7.0253
8.03953
7.22862
13.6899
12.6651
14.1342
13.0926
6.68245
6.68245
6.88106
6.88106
12.2261
12.2261
12.6465
12.6465
7.0253
7.8261
7.22863
8.03958
12.665
13.6897
13.0924
14.134
9.39245
10.332
9.62322
10.5819
15.6385
16.9791
16.1204
17.4803
9.8127
8.90942
10.075
9.15428
15.9395
14.6429
16.4653
15.1454
7.37866
6.59977
7.60644
6.81626
12.7674
11.7773
13.2345
12.2268
6.2675
6.2675
6.47839
6.47839
11.3538
11.3537
11.7952
11.7952
6.59978
7.37869
6.81626
7.60648
11.7771
12.7671
12.2267
13.2343
8.90955
9.81303
9.15442
10.0754
14.6425
15.9389
15.145
16.4646
9.2594
8.37438
9.54065
8.65155
14.8465
13.5875
15.3984
14.125
6.8861
6.14001
7.14029
6.37513
11.779
10.8349
12.2839
11.3138
5.82452
5.82452
6.04986
6.04986
10.4348
10.4347
10.9001
10.9001
6.14001
6.88613
6.37513
7.14033
10.8347
11.7788
11.3136
12.2836
8.37451
9.25971
8.65168
9.54097
13.5871
14.8459
14.1247
15.3977
8.67452
7.63133
8.96889
8.05441
13.6776
12.2605
14.2841
12.995
6.2955
5.63659
6.60814
5.89364
10.6538
9.82546
11.2401
10.3378
5.35706
5.35706
5.59284
5.59284
9.47563
9.4756
9.95818
9.95815
5.63659
6.29553
5.89364
6.60817
9.82536
10.6536
10.3377
11.2399
7.63144
8.67482
8.05453
8.9692
12.2602
13.6771
12.9946
14.2835
9.7765
8.95665
8.80604
8.10789
10.0806
9.13253
8.72569
7.99314
7.61296
6.78655
6.79293
6.00147
7.52329
6.58614
6.47636
5.60778
6.39629
6.39651
5.63349
5.63364
6.1579
6.15797
5.21605
5.21608
6.78725
7.61438
6.00201
6.79407
6.58642
7.52401
5.60791
6.47681
8.95922
9.78032
8.11007
8.80936
9.1342
10.0836
7.99442
8.7281
11.0137
10.1548
10.4944
9.64437
11.6479
10.6076
11.0127
9.99649
8.76985
7.9134
8.26744
7.41887
8.90003
7.90281
8.31528
7.33626
7.50684
7.5071
7.01694
7.01718
7.44544
7.44556
6.88808
6.88818
7.91425
8.77148
7.41967
8.26902
7.90322
8.90096
7.33663
8.31614
10.1576
11.0178
9.64711
10.4985
10.6096
11.6512
9.99835
11.0159
11.6902
10.8339
11.398
10.539
12.4535
11.4029
12.1065
11.0583
9.46087
8.60851
9.15803
8.3019
9.68929
8.6855
9.34397
8.34079
8.20282
8.20309
7.89483
7.8951
8.22414
8.22428
7.88007
7.88019
8.60938
9.46251
8.30277
9.15968
8.68596
9.69028
8.34123
9.34494
10.8367
11.6942
10.5418
11.4021
11.4049
12.4568
11.0603
12.1099
12.0917
11.2455
11.9146
11.0633
12.9377
11.8903
12.7225
11.6731
9.89541
9.05545
9.70199
8.85569
10.1902
9.1927
9.96591
8.96483
8.65504
8.65531
8.45249
8.45276
8.7337
8.73384
8.50437
8.5045
9.05629
9.897
8.85655
9.70362
9.19317
10.1912
8.96529
9.9669
11.2482
12.0955
11.066
11.9185
11.8922
12.9409
11.675
12.7258
12.3449
11.5095
12.2317
11.3913
13.2548
12.2133
13.1115
12.0671
10.1831
9.35663
10.0538
9.2208
10.5308
9.54254
10.3764
9.3836
8.96225
8.9625
8.82347
8.82373
9.08745
9.08758
8.92653
8.92667
9.35743
10.1846
9.22163
10.0554
9.543
10.5317
9.38407
10.3774
11.512
12.3485
11.3938
12.2355
12.2151
13.2579
12.069
13.1147
12.5089
11.6836
12.4352
11.6052
13.4711
12.4357
13.3726
12.3343
10.3793
9.56558
10.2908
9.47103
10.7709
9.79242
10.6615
9.67835
9.17702
9.17726
9.07966
9.07991
9.34158
9.34171
9.22542
9.22556
9.56634
10.3807
9.47181
10.2923
9.79287
10.7719
9.67881
10.6625
11.6859
12.5123
11.6077
12.4387
12.4374
13.474
12.3361
13.3756
12.6145
11.798
12.5673
11.7467
13.6199
12.5903
13.5522
12.5198
10.5138
9.71191
10.4533
9.64588
10.9426
9.97354
10.8645
9.89092
9.32879
9.32901
9.26015
9.26039
9.52692
9.52705
9.44225
9.44239
9.71263
10.5151
9.64663
10.4547
9.97397
10.9435
9.89137
10.8654
11.8002
12.6177
11.749
12.5706
12.5919
13.6226
12.5215
13.555
12.6788
11.87
12.6505
11.8382
13.7201
12.6958
13.6748
12.648
10.6041
9.81308
10.564
9.7679
11.0642
10.1043
11.0092
10.045
9.43498
9.43519
9.38739
9.38761
9.66176
9.66188
9.6005
9.60063
9.81376
10.6054
9.7686
10.5653
10.1047
11.0651
10.0454
11.0101
11.8721
12.6817
11.8403
12.6536
12.6974
13.7227
12.6496
13.6774
12.7123
11.9103
12.6983
11.8933
13.7836
12.764
13.7553
12.7336
10.6611
9.88009
10.6366
9.85086
11.1476
10.1964
11.1105
10.1552
9.50663
9.50683
9.47517
9.47537
9.75779
9.75791
9.71472
9.71484
9.88072
10.6623
9.85151
10.6378
10.1968
11.1484
10.1556
11.1114
11.9122
12.7151
11.8952
12.7012
12.7655
13.786
12.7352
13.7578
12.7218
11.9257
12.7192
11.9204
13.818
12.8026
13.8035
12.7863
10.6919
9.92013
10.6798
9.90362
11.2006
10.2576
11.1779
10.231
9.55099
9.55118
9.5324
9.53259
9.82282
9.82293
9.79441
9.79453
9.92072
10.693
9.90423
10.6809
10.258
11.2013
10.2314
11.1787
11.9275
12.7243
11.9223
12.7218
12.804
13.8202
12.7877
13.8058
12.7118
11.9208
12.7185
11.9252
13.8285
12.8166
13.8255
12.8121
10.7013
9.9381
10.6993
9.93209
11.2283
10.2933
11.2177
10.2789
9.57301
9.57318
9.56505
9.56522
9.86222
9.86233
9.84603
9.84614
9.93865
10.7023
9.93265
10.7004
10.2937
11.229
10.2793
11.2184
11.9224
12.7141
11.9269
12.721
12.8179
13.8305
12.8134
13.8276
12.6848
11.8983
12.6997
11.9113
13.8181
12.8095
13.8252
12.8152
10.6923
9.93733
10.6992
9.94029
11.2344
10.3072
11.2342
10.3033
9.57607
9.57623
9.57719
9.57736
9.87974
9.87984
9.87406
9.87417
9.93785
10.6933
9.94082
10.7002
10.3076
11.2351
10.3037
11.2349
11.8999
12.687
11.9128
12.702
12.8107
13.82
12.8164
13.8272
12.6425
11.8602
12.665
11.8808
13.7888
12.7832
13.8053
12.7983
10.6671
9.92004
10.6819
9.93102
11.2213
10.3019
11.2305
10.3073
9.56257
9.56274
9.57172
9.57188
9.87807
9.87818
9.88162
9.88173
9.92057
10.6681
9.93155
10.6828
10.3023
11.2221
10.3076
11.2312
11.8617
12.6447
11.8823
12.6671
12.7845
13.7907
12.7994
13.8071
12.5853
11.8069
12.6152
11.835
13.7402
12.7376
13.7666
12.7626
10.6267
9.88766
10.649
9.90602
11.1899
10.2788
11.2082
10.293
9.53399
9.53419
9.55047
9.55065
9.85887
9.85903
9.871
9.87114
9.88828
10.6278
9.90659
10.65
10.2794
11.1908
10.2934
11.209
11.8086
12.5876
11.8367
12.6176
12.7389
13.7423
12.764
13.7689
12.5137
11.7394
12.5505
11.7744
13.6709
12.6731
13.7063
12.7061
10.5725
9.84157
10.6014
9.86655
11.1417
10.2397
11.1677
10.2615
9.49175
9.49197
9.51485
9.51506
9.82376
9.82396
9.84361
9.8438
9.84225
10.5737
9.86721
10.6026
10.2403
11.1428
10.2621
11.1688
11.7414
12.5164
11.7761
12.5527
12.6756
13.6741
12.7079
13.7085
12.4308
11.6607
12.4725
11.7006
13.5953
12.6003
13.6335
12.6377
10.5065
9.78336
10.541
9.81422
11.0809
10.1867
11.1132
10.2152
9.4372
9.43739
9.46629
9.4665
9.77447
9.77463
9.80122
9.80141
9.78396
10.5076
9.81486
10.5422
10.1872
11.0819
10.2158
11.1142
11.6618
12.4324
11.7023
12.4751
12.6011
13.5968
12.6394
13.6365
12.3379
11.5716
12.3853
11.617
13.5038
12.5121
13.5508
12.5572
10.4296
9.71381
10.4696
9.75029
11.0067
10.1203
11.0456
10.1555
9.37114
9.37129
9.40591
9.40608
9.71177
9.71188
9.74515
9.74528
9.71426
10.4304
9.75081
10.4705
10.1207
11.0073
10.1559
11.0464
11.5734
12.3403
11.6185
12.3867
12.5139
13.5061
12.5585
13.5521
12.2353
11.4727
12.2871
11.523
13.4016
12.4134
13.4533
12.4638
10.3417
9.63317
10.3872
9.67514
10.9198
10.0411
10.9651
10.0827
9.29396
9.29405
9.33424
9.33435
9.63618
9.63623
9.67594
9.67601
9.63346
10.3423
9.67551
10.3878
10.0413
10.9201
10.0829
10.9655
11.4731
12.236
11.524
12.2892
12.4133
13.4023
12.4647
13.4554
12.1201
11.3617
12.1789
11.4181
13.2832
12.299
13.3438
12.3573
10.2428
9.54151
10.2938
9.58899
10.8196
9.94898
10.8715
9.99698
9.20579
9.20586
9.25154
9.25162
9.5478
9.54781
9.59393
9.59396
9.54173
10.2432
9.58924
10.2943
9.94905
10.8198
9.99709
10.8718
11.3629
12.1219
11.4189
12.1795
12.3001
13.2846
12.3578
13.3442
11.9942
11.2404
12.0577
11.302
13.1518
12.1728
13.2183
12.237
10.1327
9.43886
10.1893
9.49183
10.7064
9.84404
10.7648
9.89843
9.10671
9.10677
9.15791
9.15797
9.44674
9.44675
9.49919
9.4992
9.43907
10.1331
9.49203
10.1897
9.84407
10.7065
9.89846
10.7649
11.2406
11.9946
11.3027
12.0594
12.1724
13.152
12.2373
13.2197
11.8543
11.1063
11.9256
11.1744
13.0039
12.031
13.0795
12.1031
10.0113
9.3251
10.0736
9.38362
10.5797
9.72618
10.6449
9.78702
8.99666
8.99674
9.05334
9.05341
9.333
9.33304
9.39177
9.3918
9.32536
10.0118
9.38386
10.074
9.72632
10.58
9.7871
10.6451
11.1077
11.8564
11.1752
11.9262
12.0322
13.0054
12.1034
13.0794
11.7028
10.9613
11.7793
11.0348
12.8413
11.8763
12.9234
11.9548
9.87836
9.20015
9.9464
9.26428
10.4396
9.59539
10.5115
9.6627
8.87557
8.87565
8.93777
8.93786
9.20658
9.20663
9.27171
9.27175
9.20043
9.87893
9.26456
9.94696
9.59559
10.4401
9.66288
10.512
10.9618
11.7036
11.0358
11.7814
11.8767
12.8425
11.9557
12.9258
11.5364
10.8029
11.621
10.8832
12.6622
11.706
12.7537
11.7925
9.73368
9.06383
9.80763
9.13366
10.2859
9.45145
10.3647
9.52536
8.74327
8.74336
8.81109
8.81117
9.06724
9.0673
9.13884
9.1389
9.06411
9.73426
9.13394
9.80821
9.45167
10.2865
9.52558
10.3652
10.8045
11.5386
10.8843
11.6219
11.7079
12.6645
11.7935
12.7543
11.3574
10.6332
11.4478
10.7192
12.4673
11.5223
12.5657
11.6154
9.57718
8.916
9.65706
8.9916
10.1184
9.29419
10.204
9.37477
8.59964
8.59972
8.67314
8.67322
8.91484
8.91489
8.99298
8.99304
8.91627
9.57772
8.99188
9.65763
9.29439
10.1189
9.37499
10.2046
10.6337
11.3583
10.7202
11.45
11.5228
12.4685
11.6167
12.5686
11.1632
10.4497
11.262
10.5428
12.2541
11.3219
12.3627
11.4236
9.40852
8.75647
9.49453
8.83794
9.93661
9.1234
10.0294
9.21077
8.44452
8.44459
8.52377
8.52385
8.7492
8.74924
8.83397
8.83402
8.75671
9.409
8.8382
9.49505
9.12356
9.93707
9.21096
10.03
10.451
11.1651
10.5436
11.2627
11.3238
12.2565
11.4248
12.3638
10.9551
10.2541
11.0602
10.353
12.0245
11.1079
12.1402
11.2161
9.22769
8.58516
9.31974
8.67251
9.74084
8.93905
9.84058
9.03316
8.2778
8.27785
8.36285
8.36291
8.57023
8.57024
8.66166
8.66168
8.58533
9.22804
8.67272
9.32015
8.93908
9.74097
9.03326
9.84084
10.2544
10.9558
10.3539
11.0621
11.1081
12.0256
11.2172
12.1427
10.7327
10.0456
10.8453
10.151
11.7784
10.8784
11.9033
10.9946
9.03479
8.40204
9.13289
8.4953
9.53116
8.74113
9.63793
8.84205
8.09941
8.09945
8.1903
8.19035
8.37787
8.37786
8.476
8.476
8.40217
9.03506
8.49545
9.13319
8.74109
9.53118
8.84205
9.63802
10.0463
10.7338
10.1514
10.8457
10.8793
11.7796
10.9951
11.9041
10.4966
9.8246
10.6158
9.93631
11.5151
10.6347
11.6477
10.7576
8.82947
8.20688
8.93383
8.30619
9.30706
8.52931
9.42104
8.63721
7.90922
7.90926
8.00603
8.00607
8.17194
8.17193
8.27687
8.27686
8.20702
8.82974
8.30632
8.9341
8.5293
9.30708
8.63718
9.42106
9.82511
10.4976
9.93696
10.617
10.635
11.516
10.7583
11.649
10.2444
9.58901
10.3721
9.70823
11.2335
10.374
11.3764
10.5061
8.61112
7.99945
8.72206
8.10491
9.0678
8.30329
9.18953
8.41834
7.70708
7.70714
7.80986
7.80991
7.95223
7.95225
8.06407
8.06407
7.99962
8.61146
8.10507
8.72237
8.30336
9.06795
8.41836
9.1896
9.5896
10.2453
9.70879
10.3731
10.3743
11.2342
10.5064
11.3771
9.97616
9.33944
10.1116
9.4655
10.9309
10.0954
11.0841
10.2363
8.37994
7.77987
8.49721
7.89135
8.81308
8.06301
8.94246
8.18514
7.4931
7.49316
7.60176
7.60182
7.71876
7.71879
7.83744
7.83747
7.78006
8.38032
7.89154
8.49758
8.06312
8.81331
8.18523
8.94266
9.34009
9.97718
9.46613
10.1126
10.0959
10.9318
10.2367
11.0849
9.69435
9.07742
9.83636
9.20951
10.6106
9.80124
10.7722
9.94965
8.1368
7.54866
8.25993
7.66587
8.54394
7.80902
8.68037
7.93791
7.26766
7.26772
7.38199
7.38205
7.4719
7.47193
7.5972
7.59724
7.54885
8.13717
7.66607
8.2603
7.80913
8.54419
7.93802
8.68062
9.07807
9.69536
9.21016
9.83738
9.80173
10.6114
9.95013
10.7731
9.40084
8.80442
9.54851
8.94185
10.2754
9.49326
10.4441
9.6484
7.8826
7.3064
8.01115
7.42907
8.26144
7.54195
8.40444
7.6773
7.0312
7.03125
7.15098
7.15104
7.2121
7.21213
7.34382
7.34385
7.30659
7.88296
7.42926
8.01152
7.54206
8.26168
7.67741
8.40468
8.80506
9.40182
8.9425
9.54951
9.49373
10.2762
9.64889
10.445
9.09729
8.52154
9.24979
8.66381
9.92718
9.17289
10.1023
9.3341
7.618
7.05349
7.75169
7.18145
7.96631
7.2622
8.11555
7.40385
6.78396
6.78401
6.90911
6.90916
6.93961
6.93965
7.07766
7.07769
7.05366
7.61835
7.18163
7.75204
7.26231
7.96655
7.40397
8.11579
8.52215
9.09823
8.66443
9.25076
9.17335
9.92797
9.33457
10.1031
8.78496
8.22951
8.94174
8.37629
9.56734
8.84083
9.74813
9.00785
7.34327
6.78991
7.48202
6.92322
7.6588
6.96973
7.81424
7.11778
6.52585
6.5259
6.65647
6.65652
6.65428
6.65431
6.79879
6.79882
6.79008
7.34361
6.9234
7.48236
6.96983
7.65902
7.11788
7.81447
8.2301
8.78586
8.37689
8.94267
8.84127
9.56809
9.0083
9.74891
8.4644
7.9284
8.6253
8.07978
9.19639
8.49699
9.38275
8.66999
7.05801
6.51503
7.20213
6.65413
7.33831
6.66374
7.50038
6.8187
6.25613
6.25618
6.39269
6.39274
6.35523
6.35526
6.50676
6.50679
6.5152
7.05833
6.6543
7.20247
6.66384
7.33852
6.81881
7.50059
7.92897
8.46526
8.08036
8.62618
8.49741
9.19711
8.67042
9.38349
8.13471
7.61677
8.30041
7.77372
8.81305
8.13942
9.00595
8.3197
6.76039
6.22706
6.91104
6.37301
7.00262
6.34209
7.17271
6.50526
5.97308
5.97313
6.11659
6.11664
6.04046
6.04049
6.20018
6.20021
6.22721
6.7607
6.37317
6.91135
6.34218
7.00282
6.50536
7.17292
7.61731
8.13553
7.77428
8.30125
8.13982
8.81373
8.32011
9.00665
7.79283
7.2899
7.96516
7.45543
8.41251
7.76169
8.61493
7.95337
6.44559
5.9222
6.60574
6.07722
6.64563
6.00012
6.82754
6.17424
5.6738
5.67385
5.82584
5.82588
5.70638
5.70641
5.87628
5.87631
5.92235
6.44588
6.07738
6.60604
6.00021
6.64581
6.17433
6.82774
7.29041
7.7936
7.45595
7.96597
7.76206
8.41315
7.95376
8.61559
7.43621
6.93164
7.6156
7.11643
7.9863
7.34102
8.20241
7.55922
6.10072
5.59412
6.27838
5.76164
6.25041
5.62928
6.45473
5.81912
5.35566
5.3557
5.51724
5.51728
5.34907
5.34909
5.53089
5.53091
5.59425
6.10098
5.76179
6.27866
5.62936
6.25058
5.8192
6.45491
6.93211
7.43694
7.11693
7.61636
7.34137
7.98689
7.55958
8.20303
7.09079
6.45454
7.25911
6.72216
7.54998
6.75911
7.76675
7.08906
5.69554
5.24061
5.90815
5.41987
5.77505
5.22361
6.02637
5.43034
5.02531
5.02534
5.19078
5.19082
4.97367
4.97369
5.1625
5.16252
5.24073
5.69578
5.42
5.9084
5.22368
5.7752
5.43042
6.02653
6.45496
7.09146
6.72261
7.25981
6.75942
7.55052
7.08939
7.76732
9.64473
9.0002
8.97803
8.39751
9.67115
8.95141
8.89331
8.25727
7.98435
7.33102
7.36742
6.71751
7.79712
7.06627
7.10235
6.38625
7.01309
7.01349
6.40572
6.40606
6.71444
6.71476
6.04679
6.04705
7.33225
7.98655
6.71859
7.36938
7.06729
7.79903
6.3871
7.10399
9.00356
9.6491
8.40058
8.98205
8.9545
9.67537
8.26002
8.8971
10.5498
9.90385
10.1574
9.5085
10.707
9.9732
10.2632
9.53044
8.89387
8.2421
8.49068
7.83549
8.80832
8.06721
8.3633
7.62304
7.92356
7.92399
7.51585
7.51628
7.70863
7.70899
7.26561
7.26597
8.24344
8.89621
7.83681
8.493
8.06836
8.8104
7.62415
8.36535
9.90733
10.5542
9.51199
10.1619
9.97647
10.7114
9.53369
10.2676
11.0825
10.4495
10.8502
10.2104
11.2994
10.5749
11.0423
10.3124
9.46601
8.82916
9.21344
8.56861
9.43158
8.7014
9.1574
8.42076
8.51718
8.51761
8.253
8.25344
8.34718
8.34755
8.06377
8.06414
8.83047
9.46828
8.56994
9.21576
8.70255
9.43364
8.42192
9.15948
10.4528
11.0868
10.2139
10.8546
10.5781
11.3036
10.3156
11.0466
11.3998
10.7815
11.2607
10.6353
11.6508
10.9397
11.4965
10.7787
9.82689
9.20743
9.667
9.03906
9.82356
9.1091
9.64963
8.92738
8.90353
8.90394
8.73117
8.73159
8.76197
8.76233
8.57667
8.57703
9.20867
9.82904
9.04034
9.66922
9.11019
9.82552
8.9285
9.65164
10.7846
11.4038
10.6385
11.2649
10.9427
11.6549
10.7819
11.5006
11.5906
10.986
11.5068
10.8957
11.8664
11.1682
11.771
11.0667
10.0581
9.45509
9.95546
9.34458
10.0782
9.37927
9.9645
9.25815
9.15895
9.15933
9.04471
9.0451
9.03935
9.03968
8.91473
8.91508
9.45625
10.0602
9.34579
9.95754
9.3803
10.08
9.25921
9.96641
10.989
11.5944
10.8988
11.5107
11.171
11.8702
11.0696
11.7749
11.7034
11.111
11.6542
11.0561
11.9996
11.3129
11.9406
11.2486
10.2068
9.61852
10.141
9.54575
10.2465
9.5618
10.1713
9.47989
9.32939
9.32975
9.25327
9.25364
9.22854
9.22885
9.14343
9.14376
9.6196
10.2087
9.54687
10.143
9.56277
10.2482
9.48089
10.1731
11.1137
11.707
11.0589
11.6579
11.3156
12.0031
11.2513
11.9443
11.7655
11.1834
11.7392
11.1523
12.079
11.4024
12.0444
11.3631
10.3003
9.72507
10.2595
9.67813
10.357
9.68516
10.308
9.63014
9.4422
9.44253
9.39227
9.39261
9.35793
9.35822
9.30002
9.30032
9.72608
10.302
9.67917
10.2613
9.68606
10.3586
9.63108
10.3097
11.186
11.7687
11.155
11.7426
11.4049
12.0823
11.3657
12.0478
11.7924
11.2194
11.7822
11.205
12.1211
11.4532
12.1035
11.4316
10.3548
9.79127
10.3319
9.76286
10.4266
9.76628
10.3964
9.7307
9.514
9.5143
9.48292
9.48324
9.4445
9.44477
9.40631
9.40659
9.79221
10.3564
9.76383
10.3336
9.76712
10.4281
9.73157
10.398
11.2218
11.7955
11.2074
11.7853
11.4555
12.1241
11.434
12.1067
11.7939
11.2287
11.7954
11.2266
12.1357
11.4754
12.1308
11.467
10.3807
9.82755
10.3711
9.81304
10.4657
9.81581
10.4497
9.79493
9.55529
9.55558
9.53839
9.53868
9.49897
9.49922
9.47573
9.47599
9.82841
10.3822
9.81394
10.3726
9.81659
10.467
9.79574
10.4511
11.2308
11.7967
11.2289
11.7983
11.4775
12.1385
11.4692
12.1338
11.776
11.2175
11.7867
11.225
12.1291
11.4753
12.1343
11.4775
10.3843
9.84065
10.3852
9.83703
10.481
9.84065
10.4762
9.83139
9.57294
9.5732
9.56714
9.56741
9.52835
9.52858
9.51692
9.51716
9.84145
10.3857
9.83786
10.3866
9.84137
10.4823
9.83214
10.4775
11.2195
11.7786
11.2271
11.7894
11.4773
12.1318
11.4795
12.137
11.7425
11.1898
11.7605
11.2052
12.1055
11.4574
12.1188
11.4681
10.3703
9.83517
10.3795
9.84033
10.4771
9.84546
10.4814
9.84572
9.5716
9.57184
9.57477
9.57502
9.53733
9.53754
9.53558
9.5358
9.83591
10.3715
9.8411
10.3809
9.84613
10.4783
9.84641
10.4827
11.1917
11.7449
11.2071
11.7631
11.4592
12.108
11.47
12.1213
11.6959
11.1483
11.7203
11.1704
12.0672
11.4241
12.0876
11.4422
10.3412
9.814
10.3576
9.8267
10.4568
9.83342
10.4691
9.84177
9.55427
9.5545
9.56511
9.56535
9.52921
9.52941
9.53564
9.53585
9.8147
10.3424
9.82741
10.3589
9.83405
10.458
9.84242
10.4702
11.15
11.6981
11.1722
11.7226
11.4258
12.0695
11.444
12.09
11.6376
11.0946
11.6676
11.1225
12.0159
11.3772
12.0426
11.4019
10.2991
9.77929
10.3218
9.79853
10.4222
9.80655
10.4414
9.82206
9.52316
9.52338
9.54065
9.54088
9.50606
9.50626
9.51976
9.51996
9.77996
10.3002
9.7992
10.323
9.80718
10.4234
9.82268
10.4425
11.0962
11.6398
11.1242
11.6699
11.3789
12.0181
11.4036
12.0448
11.5685
11.0296
11.6039
11.0631
11.9521
11.3176
11.985
11.3486
10.2451
9.73243
10.2736
9.75757
10.3745
9.76634
10.4001
9.78834
9.47974
9.47996
9.50321
9.50342
9.46947
9.46969
9.48971
9.48991
9.7331
10.2463
9.75823
10.2748
9.767
10.3757
9.78898
10.4013
11.0313
11.5707
11.0648
11.606
11.3194
11.9544
11.3503
11.9872
11.4895
10.9546
11.5297
10.993
11.8769
11.2464
11.9153
11.283
10.1805
9.67457
10.2142
9.70506
10.3148
9.71399
10.3463
9.74189
9.42518
9.42539
9.45406
9.45428
9.42068
9.4209
9.44685
9.44707
9.67523
10.1817
9.70573
10.2154
9.71467
10.316
9.74256
10.3474
10.9562
11.4916
10.9946
11.5319
11.2482
11.8792
11.2848
11.9176