/*--------------------------------*- C++ -*----------------------------------*\
  =========                 |
  \\      /  F ield         | OpenFOAM: The Open Source CFD Toolbox
   \\    /   O peration     | Website:  https://openfoam.org
    \\  /    A nd           | Version:  9
     \\/     M anipulation  |
\*---------------------------------------------------------------------------*/
FoamFile
{
    format      ascii;
    class       volScalarField;
    location    "4";
    object      k;
}
// * * * * * * * * * * * * * * * * * * * * * * * * * * * * * * * * * * * * * //

dimensions      [0 2 -2 0 0 0 0];

internalField   nonuniform List<scalar> 
36360
(
1.66169
1.58328
1.43444
1.39819
0.689635
0.66537
0.499846
0.556397
1.3983
1.29505
1.22063
1.12088
0.592444
0.551667
0.478915
0.434891
1.24883
1.2488
1.07661
1.07658
0.533742
0.533727
0.41682
0.416805
1.29495
1.39816
1.12078
1.22047
0.551622
0.592367
0.434846
0.478835
1.58309
1.66145
1.39797
1.43415
0.665255
0.689473
0.556276
0.499681
1.86923
1.7831
1.78748
1.70203
0.798041
0.759275
0.758667
0.721737
1.59478
1.48983
1.5133
1.40827
0.683749
0.64297
0.6466
0.605829
1.4427
1.44267
1.36124
1.36121
0.624928
0.624914
0.587816
0.587802
1.48975
1.59465
1.40819
1.51316
0.642929
0.68368
0.605786
0.646527
1.78294
1.86903
1.70185
1.78726
0.759172
0.797898
0.721628
0.758516
1.97742
1.89135
1.92971
1.84356
0.848932
0.809292
0.826448
0.787109
1.70525
1.60192
1.65634
1.55215
0.734315
0.694079
0.71185
0.671292
1.55549
1.55546
1.5053
1.50528
0.676259
0.676247
0.653334
0.653321
1.60185
1.70514
1.55207
1.65622
0.694043
0.734253
0.671253
0.711784
1.89121
1.97724
1.84341
1.92952
0.809199
0.848802
0.787011
0.826311
2.0476
1.96203
2.01574
1.92989
0.882323
0.842541
0.867111
0.827338
1.77821
1.67655
1.74503
1.64258
0.768158
0.728522
0.75267
0.712771
1.631
1.63098
1.59659
1.59657
0.711008
0.710997
0.695106
0.695095
1.67649
1.77812
1.64251
1.74492
0.72849
0.768102
0.712736
0.75261
1.9619
2.04744
1.92976
2.01557
0.842457
0.882204
0.827248
0.866986
2.09679
2.01183
2.07412
1.98885
0.905996
0.866359
0.895048
0.855314
1.83003
1.72977
1.80614
1.70522
0.792517
0.753356
0.781235
0.74185
1.68497
1.68495
1.66007
1.66005
0.736108
0.736098
0.724477
0.724467
1.72972
1.82995
1.70517
1.80605
0.753327
0.792467
0.741819
0.781182
2.01172
2.09665
1.98873
2.07397
0.866283
0.905888
0.855234
0.894934
2.13261
2.04822
2.11596
2.03129
0.923429
0.88402
0.915299
0.875768
1.86821
1.76911
1.85048
1.75084
0.810645
0.771899
0.802189
0.763247
1.72492
1.7249
1.70637
1.70635
0.754878
0.754869
0.746116
0.746107
1.76906
1.86813
1.75079
1.8504
0.771873
0.810601
0.763219
0.802141
2.04812
2.13249
2.03119
2.11583
0.883952
0.923331
0.875695
0.915196
2.15913
2.07521
2.14676
2.06262
0.936473
0.89731
0.930374
0.89108
1.89678
1.79869
1.88348
1.78492
0.824361
0.785981
0.817942
0.779389
1.75499
1.75498
1.74099
1.74097
0.769152
0.769145
0.76247
0.762462
1.79865
1.89671
1.78487
1.88341
0.785958
0.824321
0.779365
0.817899
2.07513
2.15902
2.06253
2.14665
0.897249
0.936387
0.891014
0.93028
2.17872
2.09521
2.16958
2.08588
0.946229
0.907316
0.941664
0.902619
1.91819
1.82098
1.90823
1.81061
0.834767
0.796715
0.829895
0.791689
1.77771
1.7777
1.76714
1.76713
0.780052
0.780046
0.774946
0.774939
1.82094
1.91813
1.81057
1.90817
0.796695
0.834731
0.791667
0.829857
2.09513
2.17863
2.0858
2.16948
0.907264
0.946159
0.902562
0.941586
2.19297
2.10975
2.18632
2.10298
0.953451
0.914761
0.950053
0.911267
1.93401
1.83759
1.92668
1.8299
0.842585
0.80483
0.838934
0.801041
1.7947
1.79469
1.78683
1.78682
0.788316
0.78831
0.784455
0.784449
1.83756
1.93396
1.82986
1.92663
0.804812
0.842553
0.801022
0.838901
2.10969
2.19288
2.10292
2.18624
0.914714
0.953383
0.91122
0.950002
2.20292
2.11991
2.19835
2.11523
0.958651
0.920136
0.956248
0.917635
1.94533
1.84962
1.94015
1.84411
0.848308
0.810824
0.845657
0.808046
1.80706
1.80705
1.80139
1.80138
0.79445
0.794444
0.791604
0.791598
1.84959
1.94528
1.84408
1.9401
0.810808
0.848279
0.808029
0.845627
2.11984
2.20283
2.11516
2.19823
0.920089
0.958572
0.917584
0.956149
2.20934
2.12641
2.20645
2.12349
0.962202
0.923789
0.960578
0.922114
1.95288
1.85782
1.94951
1.85414
0.852285
0.81505
0.850473
0.813121
1.81558
1.81557
1.81175
1.81174
0.798808
0.798803
0.796814
0.796809
1.8578
1.95284
1.85412
1.94946
0.815036
0.852258
0.813105
0.850444
2.12634
2.20921
2.12342
2.20634
0.92374
0.962093
0.922067
0.960489
2.21263
2.12971
2.21126
2.12834
0.96425
0.925935
0.963356
0.924992
1.9572
1.86276
1.95539
1.86066
0.854756
0.817759
0.853673
0.816564
1.8208
1.82079
1.81856
1.81855
0.801643
0.801639
0.800386
0.800381
1.86273
1.95716
1.86064
1.95535
0.817746
0.854733
0.81655
0.853648
2.12967
2.21253
2.12828
2.21113
0.925899
0.964169
0.924948
0.963252
2.21309
2.13018
2.21312
2.13021
0.964957
0.926741
0.964742
0.926463
1.95864
1.86479
1.95824
1.86411
0.855897
0.819132
0.855464
0.818587
1.82311
1.82311
1.82229
1.82228
0.803139
0.803136
0.802534
0.80253
1.86478
1.95861
1.86409
1.95821
0.819121
0.855878
0.818575
0.855442
2.13014
2.21307
2.13017
2.21308
0.926711
0.964919
0.926429
0.964686
2.21089
2.12786
2.21233
2.12936
0.964449
0.926291
0.964826
0.926647
1.95743
1.86422
1.95835
1.8648
0.855813
0.819284
0.85598
0.819339
1.82283
1.82283
1.82326
1.82326
0.803417
0.803416
0.803412
0.80341
1.86422
1.95743
1.86479
1.95833
0.81928
0.855806
0.819332
0.855967
2.12792
2.21097
2.12933
2.21231
0.926284
0.964458
0.926625
0.964808
2.20598
2.12299
2.20859
2.12555
0.962727
0.924628
0.963681
0.925534
1.95375
1.86121
1.95582
1.86299
0.854598
0.818345
0.855323
0.81895
1.82013
1.82013
1.82176
1.82176
0.802614
0.802615
0.803153
0.803153
1.86122
1.95376
1.86299
1.95583
0.818347
0.854601
0.818949
0.855324
2.12302
2.20604
2.12561
2.2087
0.924635
0.962761
0.925542
0.963723
2.19979
2.11665
2.20301
2.11999
0.960276
0.922187
0.961583
0.923487
1.9481
1.85608
1.95116
1.8589
0.852436
0.816392
0.853618
0.817476
1.81525
1.81525
1.81795
1.81795
0.800767
0.800766
0.8018
0.8018
1.85608
1.9481
1.8589
1.95116
0.81639
0.852432
0.817477
0.853618
2.1167
2.19985
2.12003
2.20304
0.922168
0.960221
0.923477
0.96155
2.19123
2.10793
2.19567
2.11244
0.95669
0.918624
0.958564
0.920481
1.94031
1.84885
1.94443
1.85271
0.849282
0.813466
0.85096
0.815035
1.80829
1.80828
1.81202
1.81202
0.797945
0.797943
0.799465
0.799463
1.84885
1.9403
1.85271
1.94443
0.813459
0.84927
0.815031
0.850953
2.10792
2.19117
2.11247
2.19572
0.918604
0.956654
0.920465
0.958523
2.18072
2.09732
2.18616
2.10281
0.952271
0.914219
0.954554
0.916504
1.93057
1.83962
1.93568
1.84448
0.845208
0.8096
0.847346
0.811639
1.7993
1.79929
1.80404
1.80403
0.79417
0.794166
0.796165
0.796161
1.8396
1.93054
1.84446
1.93565
0.809586
0.845181
0.811628
0.847325
2.09745
2.18086
2.10285
2.18615
0.914173
0.952202
0.916467
0.954507
2.16816
2.08471
2.17456
2.09116
0.946794
0.908739
0.949626
0.911559
1.91874
1.82835
1.92489
1.83423
0.840159
0.804786
0.842786
0.807299
1.7883
1.78828
1.79404
1.79403
0.789444
0.789438
0.791915
0.79191
1.82832
1.91869
1.8342
1.92485
0.804769
0.840128
0.807284
0.842758
2.08461
2.16804
2.0912
2.17468
0.908687
0.94671
0.911514
0.94956
2.15339
2.06994
2.16099
2.0775
0.940345
0.902314
0.943663
0.90562
1.9049
1.81506
1.91206
1.82195
0.834162
0.799025
0.837267
0.802014
1.77528
1.77527
1.78203
1.78202
0.78376
0.783754
0.786712
0.786706
1.81503
1.90485
1.82192
1.91201
0.799006
0.834125
0.801994
0.837229
2.06997
2.15346
2.07747
2.16087
0.902244
0.940248
0.905548
0.943547
2.13654
2.05316
2.14511
2.06174
0.932798
0.894817
0.936651
0.898648
1.88895
1.7997
1.89717
1.80763
0.827173
0.792294
0.830774
0.79577
1.7602
1.7602
1.768
1.76799
0.777101
0.777097
0.780541
0.780536
1.79968
1.88891
1.80761
1.89711
0.792282
0.827156
0.795755
0.830747
2.05293
2.13624
2.06155
2.14503
0.894795
0.93282
0.8986
0.936627
2.11695
2.03397
2.12693
2.04366
0.924239
0.886287
0.928623
0.890644
1.87085
1.78221
1.88014
1.79122
0.819185
0.784561
0.823291
0.788544
1.74302
1.74301
1.75187
1.75187
0.76949
0.769487
0.773412
0.773408
1.78221
1.87087
1.79121
1.88014
0.784553
0.819175
0.788534
0.823279
2.03413
2.1173
2.04379
2.127
0.886294
0.924278
0.890645
0.928664
2.0957
2.01291
2.10661
2.02374
0.914639
0.876694
0.919536
0.881588
1.85061
1.76258
1.86099
1.77266
0.810164
0.775807
0.81479
0.780303
1.72368
1.72368
1.73361
1.73361
0.760861
0.760859
0.765295
0.765292
1.76258
1.85063
1.77266
1.861
0.775802
0.810164
0.780296
0.814785
2.01288
2.09557
2.0236
2.10655
0.876718
0.914685
0.8816
0.919559
2.07166
1.98941
2.08388
2.00133
0.903967
0.866007
0.909407
0.87145
1.82814
1.74074
1.83964
1.75193
0.800092
0.766011
0.805248
0.771031
1.70215
1.70214
1.71318
1.71318
0.751194
0.751192
0.75615
0.756148
1.74074
1.82816
1.75193
1.83967
0.766006
0.800089
0.771026
0.805247
1.98944
2.07173
2.00144
2.08399
0.866019
0.903993
0.871477
0.909468
2.04509
1.96353
2.05863
1.97669
0.892069
0.854138
0.898154
0.860188
1.80334
1.71663
1.81602
1.72896
0.788931
0.755141
0.794636
0.760702
1.67837
1.67836
1.69054
1.69053
0.740457
0.740455
0.745952
0.74595
1.71662
1.80337
1.72896
1.81604
0.755135
0.788926
0.760698
0.794634
1.96365
2.04517
1.97676
2.05867
0.854159
0.892089
0.860207
0.898174
2.01577
1.93523
2.03064
1.94953
0.879
0.841131
0.885625
0.847721
1.77625
1.69022
1.79007
1.70371
0.776663
0.743173
0.782922
0.749286
1.65229
1.65228
1.66561
1.66561
0.728625
0.728621
0.734671
0.734668
1.6902
1.77624
1.70369
1.79006
0.743162
0.776641
0.749278
0.782906
1.93545
2.01599
1.94969
2.03076
0.841102
0.878963
0.847702
0.885614
1.98438
1.90493
2.00026
1.92029
0.86486
0.827021
0.872052
0.8342
1.74679
1.66146
1.76181
1.67613
0.763249
0.730076
0.770091
0.736759
1.62386
1.62385
1.63837
1.63836
0.71567
0.715666
0.722281
0.722278
1.66143
1.74677
1.67611
1.7618
0.730062
0.763219
0.736746
0.770064
1.90494
1.98446
1.92048
2.00054
0.826972
0.864792
0.834165
0.871992
1.95003
1.87193
1.96748
1.88865
0.84935
0.81161
0.857239
0.819431
1.71485
1.63025
1.73111
1.64615
0.748648
0.715817
0.756084
0.723085
1.59302
1.59301
1.60874
1.60873
0.701563
0.70156
0.708754
0.70875
1.63023
1.71482
1.64613
1.73108
0.715805
0.748624
0.723071
0.756055
1.8719
1.94999
1.88859
1.96741
0.811568
0.849297
0.819383
0.857178
1.91272
1.83616
1.93171
1.85434
0.832477
0.794866
0.841064
0.803378
1.68032
1.59653
1.6979
1.6137
0.732827
0.700366
0.740882
0.708234
1.55969
1.55968
1.57666
1.57665
0.686274
0.686272
0.69406
0.694058
1.59652
1.68029
1.61368
1.69787
0.700359
0.732813
0.708225
0.740863
1.83613
1.91267
1.8543
1.93166
0.794842
0.832439
0.803344
0.841016
1.87223
1.79752
1.89278
1.81711
0.814211
0.77676
0.823488
0.785948
1.64312
1.56025
1.66203
1.5787
0.715754
0.683698
0.724435
0.692177
1.52383
1.52383
1.54207
1.54207
0.66978
0.669779
0.678171
0.678169
1.56024
1.6431
1.57869
1.66201
0.683693
0.715744
0.692171
0.724424
1.7975
1.8722
1.81708
1.89274
0.776745
0.814186
0.785929
0.823458
1.82885
1.7562
1.85082
1.77711
0.794619
0.757347
0.804552
0.767182
1.60332
1.52139
1.62353
1.54113
0.697439
0.665809
0.706739
0.674898
1.48543
1.48542
1.50494
1.50494
0.652071
0.652069
0.66107
0.661069
1.52139
1.6033
1.54113
1.62351
0.665804
0.697431
0.674894
0.706731
1.75618
1.82883
1.77709
1.8508
0.757333
0.794597
0.767168
0.804528
1.78274
1.71228
1.80606
1.73448
0.773758
0.736692
0.78432
0.747143
1.56094
1.47997
1.58243
1.501
0.677898
0.646695
0.687811
0.656398
1.44445
1.44445
1.46526
1.46526
0.633136
0.633134
0.64275
0.642749
1.47996
1.56092
1.50099
1.58242
0.646691
0.67789
0.656394
0.687803
1.71226
1.78272
1.73446
1.80604
0.736678
0.773736
0.74713
0.784299
1.73397
1.66579
1.75862
1.68928
0.751645
0.714786
0.762834
0.725867
1.51596
1.43593
1.53876
1.45828
0.657118
0.626336
0.667655
0.636666
1.40084
1.40084
1.42298
1.42298
0.612949
0.612948
0.623194
0.623193
1.43592
1.51595
1.45827
1.53875
0.626332
0.657111
0.636662
0.667647
1.66577
1.73395
1.68926
1.7586
0.714773
0.751624
0.725854
0.762813
1.68256
1.61667
1.70853
1.64149
0.728267
0.691613
0.740093
0.703331
1.4683
1.38916
1.49246
1.41289
0.635066
0.604689
0.646245
0.61567
1.35449
1.35448
1.37801
1.37801
0.591464
0.591462
0.602366
0.602365
1.38915
1.46829
1.41288
1.49245
0.604684
0.635058
0.615666
0.646237
1.61665
1.68253
1.64147
1.70851
0.691601
0.728246
0.703318
0.740073
1.62839
1.56479
1.65576
1.59102
0.703564
0.667132
0.716066
0.679514
1.41777
1.33946
1.4434
1.36469
0.611671
0.581671
0.623534
0.593352
1.30516
1.30515
1.33021
1.3302
0.568593
0.568591
0.580203
0.580201
1.33945
1.41776
1.36468
1.44338
0.581667
0.611663
0.593348
0.623526
1.56477
1.62837
1.591
1.65574
0.667119
0.703545
0.679501
0.716046
1.57117
1.50978
1.60013
1.53763
0.677384
0.641238
0.690652
0.654344
1.36399
1.28642
1.39131
1.31338
0.586793
0.557131
0.599422
0.569598
1.25247
1.25247
1.27926
1.27926
0.544184
0.544182
0.556587
0.556586
1.28642
1.36398
1.31338
1.3913
0.557127
0.586786
0.569594
0.599414
1.50976
1.57115
1.53762
1.60011
0.641226
0.677365
0.654332
0.690633
1.5102
1.45082
1.54115
1.48081
0.649427
0.613714
0.663631
0.627676
1.30613
1.22933
1.33564
1.25845
0.560124
0.530781
0.573706
0.544202
1.1958
1.1958
1.22468
1.22468
0.51798
0.517979
0.53132
0.531319
1.22932
1.30611
1.25844
1.33563
0.530777
0.560117
0.544198
0.573698
1.4508
1.51018
1.48079
1.54113
0.613702
0.649409
0.627664
0.663613
1.44461
1.3852
1.47792
1.41913
0.619387
0.583857
0.634644
0.599158
1.24191
1.16682
1.27505
1.19886
0.530832
0.502074
0.545893
0.516761
1.13433
1.13433
1.1657
1.1657
0.489638
0.489637
0.504088
0.504087
1.16681
1.2419
1.19885
1.27504
0.50207
0.530826
0.516758
0.545886
1.38519
1.44459
1.41911
1.4779
0.583847
0.619371
0.599147
0.634626
1.37727
1.29772
1.41068
1.34667
0.586437
0.545198
0.603645
0.566759
1.16524
1.09747
1.20567
1.13298
0.496463
0.470386
0.514515
0.486599
1.06817
1.06817
1.10171
1.10171
0.459154
0.459153
0.474613
0.474612
1.09747
1.16523
1.13297
1.20566
0.470383
0.496458
0.486596
0.514509
1.29771
1.37726
1.34666
1.41066
0.545189
0.586423
0.566749
0.603629
2.47031
2.35965
2.27888
2.18618
2.14377
2.03808
1.93667
1.85519
2.16816
2.04731
1.99252
1.87236
1.84146
1.72255
1.66044
1.54434
1.98928
1.98925
1.81554
1.8155
1.66694
1.66691
1.49078
1.49074
2.04722
2.16802
1.87224
1.99234
1.72244
1.8413
1.54423
1.66026
2.35951
2.47016
2.18598
2.27866
2.0379
2.14356
1.85496
1.9364
2.71141
2.59932
2.60832
2.4957
2.37777
2.26831
2.28084
2.1714
2.40932
2.28933
2.30388
2.18292
2.07076
1.95123
1.97273
1.85272
2.23153
2.2315
2.12473
2.1247
1.89517
1.89514
1.79651
1.79648
2.28926
2.40923
2.18284
2.30376
1.95115
2.07064
1.85263
1.97259
2.59922
2.71131
2.49558
2.6082
2.26817
2.37761
2.17123
2.28066
2.85535
2.74535
2.79125
2.68021
2.50908
2.40104
2.45098
2.34221
2.56008
2.44293
2.49264
2.37406
2.20722
2.08994
2.14655
2.02809
2.38644
2.38642
2.31689
2.31687
2.03488
2.03485
1.97249
1.97246
2.44287
2.56
2.374
2.49256
2.08987
2.20712
2.02802
2.14643
2.74528
2.85528
2.68013
2.79116
2.40093
2.50895
2.34208
2.45083
2.95051
2.84251
2.90725
2.79831
2.59477
2.48821
2.55585
2.44859
2.66159
2.54716
2.61538
2.49967
2.29799
2.18296
2.25671
2.14061
2.49197
2.49195
2.44385
2.44383
2.12898
2.12896
2.08612
2.08609
2.54712
2.66153
2.49962
2.61532
2.1829
2.2979
2.14055
2.25662
2.84246
2.95046
2.79824
2.90718
2.48811
2.59466
2.44848
2.55573
3.01716
2.9108
2.98649
2.87937
2.65472
2.54942
2.6271
2.52122
2.73356
2.62144
2.70046
2.58725
2.36229
2.24919
2.33269
2.21868
2.56735
2.56734
2.53264
2.53262
2.19615
2.19613
2.1652
2.16518
2.6214
2.73352
2.58721
2.7004
2.24914
2.36221
2.21863
2.3326
2.91076
3.01712
2.87932
2.98644
2.54933
2.65462
2.52112
2.627
3.06523
2.96022
3.04295
2.93733
2.69812
2.59386
2.67797
2.57323
2.78609
2.6759
2.76179
2.6507
2.40937
2.2979
2.38756
2.27533
2.62275
2.62274
2.5971
2.59709
2.24565
2.24563
2.2227
2.22268
2.67588
2.78605
2.65067
2.76175
2.29786
2.40931
2.27528
2.38749
2.96019
3.0652
2.93729
3.04292
2.59379
2.69804
2.57315
2.67788
3.10027
2.99636
3.084
2.97959
2.72998
2.62657
2.71515
2.61135
2.82489
2.71637
2.80691
2.69762
2.44435
2.33429
2.42811
2.31739
2.66402
2.66401
2.64489
2.64488
2.2827
2.28269
2.26549
2.26547
2.71635
2.82486
2.69759
2.80688
2.33425
2.4443
2.31735
2.42805
2.99634
3.10025
2.97956
3.08398
2.6265
2.72991
2.61128
2.71507
3.12562
3.02261
3.11386
3.01044
2.75326
2.65053
2.74242
2.63938
2.85345
2.74639
2.84025
2.73251
2.47031
2.36148
2.45828
2.34887
2.69474
2.69473
2.68052
2.68051
2.31048
2.31047
2.29759
2.29758
2.74637
2.85343
2.73249
2.84022
2.36145
2.47026
2.34884
2.45823
3.02259
3.12561
3.01042
3.11385
2.65048
2.7532
2.63933
2.74235
3.14346
3.04118
3.13523
3.03262
2.76987
2.6677
2.76217
2.65975
2.87406
2.76829
2.86461
2.75823
2.48925
2.38151
2.48053
2.37228
2.71725
2.71725
2.7069
2.7069
2.33104
2.33103
2.32155
2.32154
2.76827
2.87405
2.75821
2.86459
2.38149
2.48921
2.37225
2.48048
3.04117
3.14345
3.03261
3.13522
2.66766
2.76982
2.6597
2.76211
3.15523
3.05355
3.14989
3.04795
2.78112
2.67938
2.77597
2.67405
2.88827
2.78365
2.88186
2.7767
2.50254
2.39579
2.4965
2.38929
2.73317
2.73316
2.72595
2.72595
2.34578
2.34577
2.33906
2.33905
2.78364
2.88826
2.77669
2.88185
2.39576
2.5025
2.38927
2.49647
3.05354
3.15523
3.04794
3.14989
2.67935
2.78108
2.67401
2.77593
3.16198
3.06078
3.15905
3.05764
2.78791
2.6865
2.7849
2.68336
2.89716
2.79358
2.8933
2.78923
2.51112
2.40527
2.50734
2.40107
2.74361
2.7436
2.73901
2.73901
2.35569
2.35568
2.35128
2.35128
2.79357
2.89715
2.78922
2.89329
2.40525
2.51109
2.40104
2.50731
3.06078
3.16199
3.05764
3.15905
2.68647
2.78787
2.68332
2.78486
3.16439
3.06358
3.16357
3.06259
2.79083
2.68968
2.7897
2.68845
2.90149
2.79888
2.89983
2.79676
2.51565
2.41064
2.51383
2.40843
2.74937
2.74937
2.74703
2.74703
2.36147
2.36146
2.35906
2.35905
2.79887
2.90149
2.79676
2.89982
2.41063
2.51563
2.40841
2.5138
3.06358
3.1644
3.06259
3.16358
2.68965
2.7908
2.68842
2.78967
3.16298
3.06248
3.16402
3.06339
2.79033
2.68936
2.79088
2.68983
2.90182
2.80011
2.9021
2.79997
2.51662
2.41241
2.51653
2.41195
2.75103
2.75103
2.75068
2.75068
2.36362
2.36361
2.36297
2.36296
2.8001
2.90182
2.79996
2.9021
2.4124
2.5166
2.41193
2.51651
3.06251
3.16301
3.06339
3.16403
2.68936
2.79032
2.68981
2.79084
3.15799
3.05777
3.1608
3.06046
2.78656
2.68572
2.78876
2.68787
2.8985
2.79768
2.90058
2.79934
2.5143
2.41092
2.51585
2.41205
2.74904
2.74904
2.75048
2.75048
2.36252
2.36252
2.36345
2.36345
2.79769
2.89851
2.79934
2.90059
2.41092
2.5143
2.41205
2.51585
3.05779
3.15802
3.06049
3.16085
2.68569
2.78654
2.68789
2.78878
3.14963
3.04966
3.1541
3.05402
2.77937
2.67883
2.78316
2.68245
2.89181
2.79188
2.89553
2.79517
2.50894
2.40641
2.51193
2.409
2.74366
2.74367
2.74675
2.74675
2.3584
2.3584
2.36081
2.36081
2.79189
2.89184
2.79518
2.89555
2.40641
2.50896
2.40901
2.51194
3.04974
3.14973
3.05404
3.1541
2.67896
2.77951
2.68248
2.78314
3.13833
3.03864
3.14412
3.04434
2.77036
2.6699
2.77499
2.67455
2.88212
2.78303
2.88729
2.78781
2.50103
2.39923
2.50528
2.40313
2.73521
2.73522
2.73981
2.73981
2.35157
2.35157
2.35531
2.35531
2.78303
2.88213
2.78782
2.88731
2.39923
2.50104
2.40314
2.50529
3.03858
3.13825
3.04437
3.14422
2.66982
2.77031
2.67459
2.77512
3.1243
3.02484
3.13157
3.03198
2.7586
2.65823
2.76471
2.66425
2.86961
2.77129
2.87619
2.77751
2.49058
2.38948
2.49609
2.39466
2.72386
2.72385
2.72989
2.72989
2.34215
2.34215
2.34718
2.34718
2.77129
2.86962
2.77751
2.8762
2.38947
2.49058
2.39466
2.49609
3.02496
3.12444
3.032
3.13151
2.65833
2.7587
2.66426
2.76464
3.10775
3.00848
3.1162
3.01689
2.74467
2.64439
2.75178
2.65151
2.85432
2.75675
2.86229
2.76437
2.47768
2.37723
2.48442
2.38366
2.70968
2.70967
2.71711
2.71711
2.33023
2.33022
2.3365
2.33649
2.75674
2.8543
2.76436
2.86228
2.37721
2.47764
2.38364
2.4844
3.00837
3.10762
3.0169
3.1163
2.64427
2.74457
2.6515
2.75187
3.0882
2.9892
3.09826
2.99908
2.72796
2.6278
2.73656
2.6363
2.83627
2.73944
2.84562
2.74844
2.46226
2.3625
2.47026
2.37017
2.69273
2.69272
2.70155
2.70154
2.31582
2.31581
2.32333
2.32332
2.73942
2.83624
2.74842
2.84559
2.36247
2.46222
2.37014
2.47022
2.98926
3.08828
2.99905
3.09813
2.62786
2.728
2.63626
2.73644
3.06603
2.96732
3.0773
2.9785
2.70889
2.60895
2.71858
2.61858
2.81545
2.71936
2.82619
2.72975
2.44436
2.34528
2.45361
2.35419
2.67301
2.673
2.68322
2.68321
2.29893
2.29892
2.30768
2.30768
2.71934
2.81542
2.72972
2.82616
2.34525
2.44432
2.35416
2.45356
2.96719
3.06588
2.97847
3.07737
2.60879
2.70875
2.61854
2.71863
3.04068
2.9424
3.05367
2.95512
2.68694
2.58728
2.69819
2.59834
2.7918
2.69648
2.80396
2.70827
2.42391
2.32553
2.43444
2.33572
2.6505
2.6505
2.66211
2.6621
2.27953
2.27953
2.28955
2.28954
2.69647
2.7918
2.70826
2.80394
2.32552
2.42389
2.3357
2.4344
2.94249
3.0408
2.9551
3.05354
2.58735
2.68697
2.59828
2.69801
3.01252
2.91476
3.02682
2.92884
2.66236
2.56317
2.67481
2.57545
2.76529
2.67075
2.77889
2.68397
2.40086
2.30322
2.41269
2.31469
2.62516
2.62516
2.63819
2.63819
2.25758
2.25758
2.26887
2.26887
2.67075
2.76529
2.68397
2.77889
2.30322
2.40087
2.31469
2.41269
2.91468
3.01243
2.92886
3.02694
2.5631
2.66232
2.57547
2.67495
2.98099
2.88394
2.9971
2.89963
2.63484
2.5362
2.64893
2.54994
2.73583
2.64212
2.75091
2.6568
2.37517
2.27828
2.38833
2.29108
2.59693
2.59693
2.61141
2.61141
2.23301
2.23302
2.24562
2.24562
2.64212
2.73585
2.6568
2.75092
2.27829
2.37519
2.29108
2.38835
2.88407
2.98115
2.89965
2.99702
2.53634
2.63496
2.54995
2.64882
2.94646
2.85026
2.96398
2.86739
2.60449
2.50663
2.61987
2.52166
2.70339
2.61052
2.71998
2.62669
2.34677
2.25067
2.36129
2.26481
2.56575
2.56575
2.58171
2.58171
2.20579
2.20579
2.21974
2.21974
2.61053
2.7034
2.6267
2.71999
2.25068
2.34678
2.26482
2.36132
2.8502
2.9464
2.86743
2.96414
2.50659
2.60446
2.52173
2.62006
2.90842
2.81326
2.92782
2.83208
2.57092
2.474
2.58805
2.4906
2.66786
2.57588
2.686
2.59358
2.31556
2.22031
2.3315
2.23583
2.53154
2.53154
2.54903
2.54903
2.17583
2.17583
2.19115
2.19115
2.57588
2.66787
2.59359
2.68601
2.22031
2.31558
2.23584
2.33152
2.81337
2.90854
2.83209
2.92774
2.47416
2.57107
2.49065
2.58801
2.86705
2.77317
2.88801
2.79352
2.53431
2.43863
2.55284
2.45657
2.62917
2.53812
2.64889
2.55739
2.28152
2.18713
2.29888
2.20407
2.49423
2.49423
2.51328
2.51328
2.14308
2.14307
2.1598
2.1598
2.53811
2.62916
2.55739
2.64889
2.18712
2.2815
2.20406
2.29888
2.77311
2.86701
2.79356
2.88816
2.43861
2.53436
2.45666
2.55303
2.82216
2.72974
2.84496
2.75178
2.49454
2.40019
2.51477
2.41971
2.58726
2.49716
2.6086
2.51804
2.24456
2.15108
2.26339
2.16947
2.45374
2.45374
2.47439
2.47438
2.10746
2.10745
2.12563
2.12562
2.49715
2.58725
2.51803
2.60859
2.15106
2.24455
2.16945
2.26338
2.72978
2.82219
2.75174
2.84487
2.40028
2.49462
2.41973
2.51477
2.77381
2.68301
2.7983
2.70671
2.45159
2.35889
2.47328
2.37979
2.54201
2.4529
2.56504
2.47545
2.20463
2.11207
2.22495
2.13194
2.40997
2.40997
2.43227
2.43227
2.06889
2.06889
2.08855
2.08854
2.45289
2.542
2.47544
2.56503
2.11205
2.2046
2.13193
2.22493
2.68301
2.77384
2.70673
2.79837
2.35889
2.45162
2.37984
2.47338
2.7216
2.6326
2.74812
2.65818
2.40525
2.31429
2.42879
2.33692
2.49328
2.40524
2.51807
2.4295
2.16156
2.06998
2.18348
2.09141
2.36283
2.36283
2.38682
2.38682
2.0273
2.0273
2.04848
2.04847
2.40523
2.49327
2.42949
2.51806
2.06997
2.16154
2.09139
2.18346
2.6326
2.72161
2.65818
2.74812
2.31427
2.40524
2.33691
2.42879
2.66547
2.57854
2.69391
2.60593
2.35515
2.26623
2.38056
2.29059
2.44101
2.3541
2.46757
2.3801
2.11525
2.02477
2.13879
2.04776
2.31225
2.31224
2.33797
2.33797
1.98261
1.9826
2.00534
2.00534
2.3541
2.441
2.3801
2.46757
2.02476
2.11523
2.04775
2.13877
2.57854
2.66547
2.60593
2.69392
2.26622
2.35513
2.29057
2.38054
2.60561
2.52089
2.6359
2.55007
2.30154
2.2149
2.32867
2.24088
2.3852
2.29945
2.41353
2.32722
2.06573
1.97639
2.09087
2.00097
2.25816
2.25816
2.28564
2.28564
1.93478
1.93477
1.95908
1.95908
2.29945
2.3852
2.32721
2.41353
1.97639
2.06573
2.00096
2.09086
2.5209
2.60562
2.55007
2.63591
2.21489
2.30153
2.24087
2.32866
2.54214
2.45974
2.57423
2.49067
2.24464
2.16039
2.2734
2.18795
2.32584
2.24124
2.35595
2.27079
2.01304
1.92483
2.03977
1.95101
2.2005
2.2005
2.22978
2.22978
1.88376
1.88376
1.90967
1.90966
2.24124
2.32584
2.27079
2.35595
1.92483
2.01303
1.951
2.03976
2.45975
2.54215
2.49068
2.57424
2.16038
2.24463
2.18794
2.27339
2.47508
2.39504
2.50896
2.42776
2.18451
2.10271
2.21489
2.13186
2.26285
2.17934
2.2948
2.21076
1.95712
1.87
1.98547
1.89783
2.13913
2.13913
2.17029
2.17029
1.82945
1.82945
1.85702
1.85702
2.17934
2.26285
2.21076
2.2948
1.86999
1.95711
1.89782
1.98547
2.39505
2.47509
2.42776
2.50897
2.1027
2.1845
2.13185
2.21488
2.40439
2.32668
2.44011
2.36125
2.12113
2.04177
2.15314
2.07257
2.19606
2.11355
2.22993
2.14694
1.89782
1.81173
1.92789
1.8413
2.07383
2.07383
2.10699
2.10699
1.77167
1.77167
1.80101
1.80101
2.11355
2.19606
2.14694
2.22993
1.81172
1.89781
1.8413
1.92788
2.32668
2.4044
2.36125
2.44011
2.04176
2.12113
2.07256
2.15313
2.32991
2.25441
2.36756
2.29098
2.05437
1.97737
2.0881
2.00994
2.12514
2.04351
2.16113
2.07909
1.83488
1.74972
1.86682
1.78121
2.00423
2.00423
2.03959
2.03959
1.71011
1.71011
1.74139
1.74138
2.04351
2.12514
2.07908
2.16113
1.74971
1.83488
1.78121
1.86681
2.25442
2.32992
2.29098
2.36756
1.97736
2.05436
2.00993
2.08809
2.25119
2.17772
2.29103
2.21658
1.98382
1.90903
2.01952
1.94365
2.04953
1.96865
2.08796
2.00673
1.76778
1.68343
1.80189
1.71715
1.92975
1.92975
1.96764
1.96764
1.64424
1.64423
1.67775
1.67775
1.96864
2.04953
2.00672
2.08796
1.68342
1.76777
1.71714
1.80188
2.17773
2.2512
2.21659
2.29104
1.90902
1.98382
1.94364
2.01951
2.16746
2.09556
2.20993
2.13735
1.90868
1.83568
1.94681
1.87301
1.96811
1.88799
2.00964
1.92911
1.69541
1.61194
1.73234
1.64841
1.84957
1.84957
1.89043
1.89043
1.57326
1.57326
1.60944
1.60944
1.88799
1.96811
1.92911
2.00964
1.61193
1.6954
1.6484
1.73234
2.09557
2.16747
2.13736
2.20993
1.83567
1.90867
1.873
1.9468
2.07796
2.00503
2.12332
2.05161
1.82778
1.75415
1.86889
1.79625
1.87842
1.80011
1.92453
1.84504
1.61519
1.53374
1.65654
1.57378
1.76289
1.76288
1.80706
1.80706
1.49632
1.49632
1.53557
1.53557
1.80011
1.87842
1.84504
1.92453
1.53374
1.61519
1.57378
1.65653
2.00503
2.07797
2.05162
2.12333
1.75414
1.82777
1.79624
1.86888
1.9859
1.89194
2.03185
1.95354
1.74305
1.64872
1.78557
1.70688
1.77519
1.70424
1.8289
1.75307
1.52118
1.44773
1.57038
1.49163
1.67036
1.67036
1.71716
1.71716
1.41386
1.41385
1.45561
1.4556
1.70424
1.77519
1.75307
1.8289
1.44773
1.52118
1.49163
1.57038
1.89195
1.98591
1.95354
2.03186
1.64871
1.74304
1.70687
1.78557
2.93131
2.82542
2.75942
2.66646
2.72339
2.61425
2.5433
2.449
2.65318
2.54054
2.48861
2.37383
2.4322
2.31464
2.26252
2.14393
2.48511
2.48509
2.31809
2.31806
2.25731
2.25728
2.08694
2.08691
2.54048
2.65311
2.37375
2.4885
2.31457
2.4321
2.14383
2.26238
2.82538
2.93127
2.66635
2.75931
2.61415
2.72329
2.44885
2.54313
3.17121
3.06632
3.06491
2.95888
2.96499
2.8559
2.85947
2.74948
2.89828
2.78853
2.78822
2.67685
2.67702
2.56152
2.56828
2.45142
2.73443
2.73442
2.62199
2.62197
2.50505
2.50503
2.39435
2.39432
2.7885
2.89825
2.67681
2.78817
2.56147
2.67696
2.45136
2.5682
3.06633
3.17123
2.95886
3.0649
2.85586
2.96495
2.74941
2.85941
3.32722
3.22503
3.25683
3.15334
3.11641
3.00981
3.04852
2.9407
3.0626
2.95637
2.98823
2.88028
2.83623
2.724
2.76457
2.65072
2.90396
2.90395
2.82703
2.82702
2.66906
2.66905
2.59501
2.595
2.95636
3.0626
2.88026
2.98822
2.72396
2.83619
2.65068
2.76452
3.22506
3.32726
3.15335
3.25686
3.00979
3.1164
2.94066
3.04849
3.43377
3.33398
3.38512
3.28421
3.21816
3.11383
3.17181
3.06641
3.17649
3.07342
3.12445
3.01989
2.945
2.83577
2.8954
2.78475
3.02255
3.02254
2.96828
2.96827
2.78228
2.78227
2.73057
2.73056
3.07342
3.1765
3.01988
3.12445
2.83575
2.94498
2.78472
2.89537
3.33403
3.43383
3.28424
3.38517
3.11382
3.21817
3.0664
3.1718
3.50912
3.41131
3.47444
3.37571
3.28971
3.18723
3.25679
3.15345
3.25794
3.15752
3.22046
3.1188
3.02239
2.91569
2.98679
2.87891
3.10793
3.10793
3.0686
3.0686
2.86343
2.86342
2.82606
2.82605
3.15752
3.25796
3.1188
3.22047
2.91568
3.02237
2.87889
2.98677
3.41136
3.50919
3.37576
3.4745
3.18724
3.28972
3.15345
3.25679
3.56341
3.46721
3.53831
3.44137
3.34124
3.24028
3.31739
3.21574
3.3173
3.21911
3.28989
3.19065
3.07879
2.97422
3.05272
2.94716
3.17061
3.17062
3.14164
3.14164
2.92299
2.92298
2.89544
2.89543
3.21912
3.31733
3.19066
3.28991
2.97421
3.07878
2.94714
3.05271
3.46727
3.56349
3.44142
3.53838
3.24029
3.34126
3.21574
3.3174
3.6027
3.50781
3.58453
3.48904
3.37863
3.27891
3.3613
3.26102
3.36085
3.26456
3.34074
3.24356
3.12027
3.01753
3.10109
2.99749
3.21699
3.21699
3.19555
3.19555
2.96718
2.96717
2.94672
2.94671
3.26457
3.36088
3.24356
3.34077
3.01752
3.12027
2.99748
3.10108
3.50787
3.60278
3.4891
3.58461
3.27893
3.37866
3.26103
3.36133
3.63076
3.53696
3.61783
3.52353
3.40548
3.30678
3.39306
3.2939
3.39254
3.29789
3.37796
3.28254
3.15062
3.04945
3.13663
3.03472
3.25113
3.25113
3.23539
3.2354
2.99987
2.99987
2.98477
2.98477
3.29791
3.39257
3.28255
3.37799
3.04945
3.15062
3.03472
3.13663
3.53702
3.63084
3.52358
3.6179
3.3068
3.40551
3.29392
3.39309
3.65009
3.55718
3.64126
3.54795
3.42415
3.32629
3.41558
3.31734
3.415
3.32179
3.40477
3.31089
3.17231
3.07253
3.16239
3.06197
3.27573
3.27574
3.26449
3.26449
3.02362
3.02362
3.01274
3.01274
3.32181
3.41503
3.3109
3.4048
3.07253
3.17231
3.06196
3.1624
3.55724
3.65017
3.54801
3.64134
3.32632
3.42418
3.31737
3.41561
3.66239
3.57022
3.65691
3.56441
3.43623
3.33906
3.4308
3.33332
3.43002
3.3381
3.42333
3.3308
3.18702
3.08849
3.18042
3.08131
3.29267
3.29267
3.28507
3.28507
3.04018
3.04018
3.03271
3.03271
3.33811
3.43005
3.33081
3.42336
3.08849
3.18703
3.08131
3.18043
3.57028
3.66246
3.56446
3.65698
3.33909
3.43626
3.33335
3.43083
3.66887
3.57731
3.66617
3.57435
3.44285
3.34625
3.44004
3.34318
3.43889
3.34812
3.43514
3.34383
3.19595
3.09854
3.19212
3.09418
3.30325
3.30326
3.29869
3.2987
3.05078
3.05078
3.04616
3.04616
3.34814
3.43892
3.34384
3.43517
3.09854
3.19597
3.09419
3.19213
3.57737
3.66894
3.5744
3.66625
3.34628
3.44289
3.34321
3.44007
3.67035
3.5793
3.67008
3.5788
3.44477
3.34863
3.44424
3.34789
3.4425
3.35278
3.44129
3.35107
3.19994
3.10356
3.1985
3.10163
3.30843
3.30844
3.30647
3.30648
3.0563
3.0563
3.05413
3.05413
3.3528
3.44253
3.35109
3.44132
3.10356
3.19996
3.10163
3.19851
3.57936
3.67042
3.57886
3.67015
3.34866
3.44481
3.34792
3.44428
3.66747
3.57684
3.66932
3.5785
3.44257
3.34682
3.44404
3.34812
3.44153
3.35278
3.44253
3.35333
3.19961
3.10417
3.20026
3.10437
3.30891