/*--------------------------------*- C++ -*----------------------------------*\
  =========                 |
  \\      /  F ield         | OpenFOAM: The Open Source CFD Toolbox
   \\    /   O peration     | Website:  https://openfoam.org
    \\  /    A nd           | Version:  9
     \\/     M anipulation  |
\*---------------------------------------------------------------------------*/
FoamFile
{
    format      ascii;
    class       volScalarField;
    location    "4";
    object      nut;
}
// * * * * * * * * * * * * * * * * * * * * * * * * * * * * * * * * * * * * * //

dimensions      [0 2 -1 0 0 0 0];

internalField   nonuniform List<scalar> 
36360
(
0.0224745
0.0226197
0.0212678
0.0214744
0.0024549
0.00241138
0.00209022
0.00220525
0.0220604
0.0218115
0.0209028
0.020677
0.00227554
0.00219593
0.00204612
0.00194992
0.0217275
0.0217268
0.0206134
0.0206127
0.00216
0.00215997
0.00190903
0.00190899
0.0218094
0.0220566
0.0206747
0.0208987
0.00219583
0.00227538
0.00194982
0.00204594
0.0226141
0.0224658
0.0214681
0.0212579
0.00241116
0.00245461
0.002205
0.00208986
0.0237188
0.0239679
0.0231659
0.0233778
0.00264061
0.00257574
0.00257472
0.00251134
0.0234905
0.0232421
0.0228643
0.022609
0.0024444
0.00237046
0.00237715
0.00230107
0.0231423
0.0231417
0.0225135
0.0225128
0.00233701
0.00233698
0.00226665
0.00226662
0.0232402
0.0234872
0.022607
0.0228608
0.00237039
0.00244427
0.00230099
0.00237701
0.023963
0.0237112
0.0233725
0.0231579
0.00257556
0.00264037
0.00251114
0.00257446
0.0245858
0.0248434
0.0241871
0.0244435
0.0027234
0.00265911
0.00268714
0.00262247
0.0243977
0.0241671
0.0239851
0.0237464
0.00253304
0.00246273
0.00249405
0.00242203
0.0240699
0.0240693
0.0236466
0.023646
0.00243094
0.00243092
0.00238945
0.00238943
0.0241654
0.0243947
0.0237446
0.0239819
0.00246267
0.00253293
0.00242196
0.00249393
0.0248389
0.0245789
0.0244388
0.0241798
0.00265895
0.00272318
0.0026223
0.00268691
0.0252001
0.025461
0.0249164
0.025175
0.00277635
0.00271309
0.00275235
0.00268854
0.0250309
0.0248113
0.0247384
0.0245133
0.00259065
0.00252299
0.00256445
0.00249561
0.0247214
0.0247208
0.0244194
0.0244189
0.0024925
0.00249248
0.00246452
0.0024645
0.0248097
0.0250282
0.0245117
0.0247356
0.00252293
0.00259055
0.00249555
0.00256434
0.0254569
0.0251937
0.0251706
0.0249097
0.00271295
0.00277616
0.00268839
0.00275215
0.0256474
0.0259143
0.0254385
0.0257019
0.00281327
0.00275109
0.00279626
0.00273354
0.0254943
0.0252821
0.0252771
0.0250614
0.00263132
0.00256553
0.00261256
0.00254591
0.0251982
0.0251978
0.0249747
0.0249742
0.00253602
0.002536
0.00251595
0.00251593
0.0252807
0.0254918
0.0250599
0.0252745
0.00256548
0.00263123
0.00254585
0.00261247
0.0259105
0.0256415
0.025698
0.0254324
0.00275096
0.0028131
0.0027334
0.00279607
0.0259822
0.0262556
0.0258246
0.0260945
0.00284014
0.00277892
0.00282764
0.00276595
0.0258442
0.0256369
0.0256789
0.0254692
0.00266116
0.00259683
0.00264728
0.00258228
0.0255564
0.025556
0.0253873
0.0253869
0.00256806
0.00256805
0.00255316
0.00255314
0.0256356
0.025842
0.0254679
0.0256765
0.00259679
0.00266108
0.00258223
0.0026472
0.0262522
0.0259768
0.0260909
0.025819
0.0027788
0.00283998
0.00276583
0.00282748
0.0262369
0.026516
0.0261163
0.0263925
0.00286007
0.00279966
0.00285076
0.00278996
0.0261123
0.0259085
0.025985
0.0257795
0.00268351
0.00262034
0.00267308
0.00260936
0.0258298
0.0258294
0.0256999
0.0256995
0.00259215
0.00259214
0.0025809
0.00258089
0.0259073
0.0261102
0.0257782
0.0259829
0.0026203
0.00268344
0.00260932
0.002673
0.0265129
0.0262319
0.0263892
0.0261112
0.00279956
0.00285994
0.00278985
0.00285062
0.0264319
0.0267151
0.0263393
0.0266204
0.00287488
0.00281517
0.00286796
0.0028079
0.0263181
0.0261172
0.0262201
0.0260177
0.00270033
0.00263811
0.00269247
0.0026298
0.0260396
0.0260393
0.0259396
0.0259392
0.00261039
0.00261038
0.00260186
0.00260185
0.0261161
0.0263163
0.0260166
0.0262182
0.00263807
0.00270027
0.00262976
0.00269241
0.0267122
0.0264272
0.0266174
0.0263345
0.00281509
0.00287476
0.00280781
0.00286784
0.0265796
0.0268659
0.0265096
0.0267942
0.00288577
0.00282664
0.00288064
0.00282127
0.0264749
0.0262764
0.0264002
0.0262005
0.00271289
0.00265145
0.00270703
0.00264523
0.0261994
0.0261991
0.0261231
0.0261228
0.00262412
0.00262411
0.00261772
0.00261771
0.0262754
0.0264732
0.0261995
0.0263985
0.00265142
0.00271284
0.00264519
0.00270698
0.0268632
0.0265752
0.0267913
0.026505
0.00282657
0.00288566
0.00282119
0.00288057
0.0266886
0.0269772
0.0266371
0.0269244
0.00289355
0.00283489
0.00288998
0.00283106
0.0265918
0.0263954
0.0265363
0.0263387
0.00272204
0.00266125
0.00271781
0.00265671
0.0263188
0.0263185
0.0262619
0.0262616
0.00263426
0.00263425
0.00262956
0.00262955
0.0263945
0.0265903
0.0263378
0.0265346
0.00266122
0.00272199
0.00265668
0.00271776
0.0269748
0.0266848
0.0269218
0.026633
0.00283481
0.00289345
0.00283097
0.00288979
0.0267653
0.0270557
0.0267293
0.0270187
0.00289887
0.00284047
0.00289643
0.00283792
0.0266754
0.0264808
0.0266359
0.0264404
0.00272837
0.00266813
0.00272549
0.002665
0.0264044
0.0264041
0.0263638
0.0263635
0.00264143
0.00264142
0.00263815
0.00263814
0.02648
0.0266739
0.0264395
0.0266344
0.00266811
0.00272832
0.00266497
0.00272544
0.0270534
0.026762
0.0270163
0.0267258
0.00284039
0.0028987
0.00283784
0.00289632
0.0268151
0.027106
0.0267922
0.0270827
0.00290199
0.00284374
0.00290063
0.0028423
0.0267303
0.0265374
0.0267047
0.026511
0.00273228
0.00267252
0.00273057
0.00267059
0.0264611
0.0264609
0.0264346
0.0264343
0.00264607
0.00264606
0.00264401
0.00264401
0.0265367
0.026729
0.0265102
0.0267034
0.0026725
0.00273225
0.00267057
0.00273053
0.027104
0.0268119
0.0270805
0.0267889
0.00284367
0.00290178
0.00284223
0.00290043
0.0268401
0.0271311
0.0268294
0.0271203
0.00290298
0.00284494
0.00290271
0.00284453
0.02676
0.0265689
0.0267468
0.0265547
0.00273407
0.00267473
0.0027334
0.00267386
0.0264926
0.0264923
0.0264784
0.0264781
0.0026485
0.0026485
0.00264752
0.00264752
0.0265682
0.0267589
0.026554
0.0267456
0.00267471
0.00273404
0.00267384
0.00273336
0.0271295
0.0268375
0.0271186
0.0268266
0.00284489
0.00290292
0.00284447
0.00290258
0.0268449
0.0271345
0.0268447
0.0271349
0.0029022
0.00284422
0.00290274
0.00284478
0.0267672
0.0265776
0.026765
0.0265745
0.00273391
0.00267495
0.00273419
0.00267505
0.0265013
0.0265011
0.0264983
0.0264981
0.00264893
0.00264893
0.00264894
0.00264893
0.0265768
0.026766
0.0265738
0.0267638
0.00267494
0.0027339
0.00267504
0.00273417
0.027133
0.0268422
0.0271332
0.0268419
0.00284421
0.00290222
0.00284475
0.00290272
0.0268283
0.0271167
0.026838
0.0271267
0.00289952
0.00284163
0.00290101
0.00284304
0.0267531
0.0265651
0.0267613
0.0265726
0.00273194
0.00267339
0.00273311
0.00267439
0.0264891
0.0264888
0.0264965
0.0264962
0.00264758
0.00264758
0.00264848
0.00264848
0.0265642
0.0267516
0.0265717
0.0267599
0.00267339
0.00273194
0.00267439
0.00273311
0.0271148
0.0268253
0.0271248
0.026835
0.00284165
0.00289962
0.00284305
0.0029011
0.0267929
0.0270808
0.0268119
0.0271
0.00289584
0.00283787
0.00289782
0.00283987
0.0267196
0.0265331
0.0267377
0.0265503
0.00272846
0.00267017
0.00273036
0.00267196
0.0264576
0.0264573
0.0264745
0.0264742
0.00264451
0.00264451
0.00264622
0.00264622
0.0265323
0.0267183
0.0265495
0.0267362
0.00267017
0.00272845
0.00267195
0.00273036
0.0270794
0.0267914
0.0270983
0.0268096
0.00283784
0.00289582
0.00283986
0.00289779
0.0267416
0.0270265
0.0267685
0.0270547
0.00289048
0.00283237
0.00289326
0.00283523
0.0266672
0.0264822
0.0266946
0.0265088
0.00272339
0.00266537
0.00272609
0.00266794
0.0264073
0.0264071
0.0264336
0.0264334
0.00263982
0.00263982
0.00264235
0.00264234
0.0264816
0.0266663
0.0265082
0.0266936
0.00266535
0.00272337
0.00266794
0.00272607
0.0270253
0.0267395
0.0270534
0.0267668
0.00283233
0.00289042
0.00283521
0.00289325
0.0266694
0.0269531
0.0267072
0.0269911
0.00288376
0.00282553
0.00288724
0.00282907
0.0265961
0.0264126
0.026633
0.0264487
0.00271684
0.00265901
0.00272028
0.00266236
0.0263386
0.0263385
0.0263742
0.026374
0.00263356
0.00263355
0.00263687
0.00263686
0.0264121
0.0265956
0.0264482
0.0266323
0.00265899
0.0027168
0.00266234
0.00272025
0.0269535
0.0266696
0.0269906
0.0267059
0.00282549
0.00288365
0.00282903
0.00288717
0.0265819
0.0268633
0.0266267
0.0269093
0.00287536
0.00281706
0.0028797
0.00282142
0.0265063
0.0263242
0.0265526
0.0263698
0.0027087
0.00265108
0.00271293
0.00265522
0.0262516
0.0262514
0.0262964
0.0262962
0.0026257
0.00262569
0.00262981
0.0026298
0.0263238
0.0265056
0.0263693
0.0265519
0.00265105
0.00270865
0.0026552
0.00271289
0.0268623
0.0265806
0.026909
0.0266264
0.00281697
0.00287529
0.00282137
0.00287964
0.0264744
0.0267535
0.0265297
0.0268096
0.00286564
0.00280707
0.00287065
0.00281221
0.0263973
0.0262168
0.0264532
0.0262719
0.002699
0.00264156
0.00270403
0.0026465
0.026146
0.0261459
0.0262001
0.0262
0.00261622
0.00261621
0.00262114
0.00262113
0.0262166
0.0263969
0.0262716
0.0264528
0.00264153
0.00269895
0.00264647
0.00270397
0.0267537
0.0264743
0.0268093
0.0265288
0.00280697
0.00286548
0.00281211
0.00287045
0.0263493
0.026626
0.0264136
0.0266914
0.00285411
0.00279538
0.00285999
0.00280136
0.0262686
0.0260898
0.0263345
0.0261549
0.00268767
0.0026304
0.00269351
0.00263617
0.0260206
0.0260206
0.026085
0.0260849
0.00260507
0.00260506
0.00261083
0.00261082
0.0260895
0.0262678
0.0261546
0.0263338
0.00263038
0.00268764
0.00263615
0.00269347
0.0266237
0.0263454
0.0266898
0.0264116
0.00279533
0.00285413
0.00280127
0.00285998
0.0262004
0.026477
0.0262764
0.0265525
0.00284089
0.002782
0.00284768
0.00278883
0.0261191
0.0259411
0.0261955
0.0260171
0.00267465
0.00261753
0.00268135
0.00262417
0.025873
0.0258729
0.0259486
0.0259485
0.00259227
0.00259227
0.00259887
0.00259887
0.025941
0.026119
0.026017
0.0261952
0.00261752
0.00267463
0.00262415
0.00268133
0.026477
0.0262002
0.0265522
0.0262746
0.00278203
0.00284102
0.00278885
0.00284779
0.0260348
0.0263098
0.0261201
0.0263956
0.00282618
0.00276692
0.00283368
0.00277463
0.0259492
0.0257711
0.026036
0.0258579
0.00265987
0.00260288
0.00266746
0.00261041
0.0257035
0.0257035
0.02579
0.02579
0.00257769
0.00257769
0.00258519
0.00258519
0.025771
0.0259487
0.0258578
0.0260355
0.00260287
0.00265988
0.0026104
0.00266745
0.0263081
0.0260311
0.0263936
0.0261171
0.00276694
0.00282621
0.00277463
0.00283369
0.0258435
0.0261198
0.0259412
0.0262164
0.00280961
0.00275
0.00281807
0.00275863
0.0257571
0.0255792
0.0258551
0.025677
0.00264328
0.00258638
0.00265179
0.00259485
0.0255119
0.0255119
0.0256096
0.0256095
0.00256125
0.00256125
0.00256969
0.00256969
0.025579
0.0257568
0.0256769
0.0258548
0.00258638
0.00264328
0.00259484
0.00265179
0.0261189
0.0258414
0.0262158
0.025939
0.00275002
0.00280965
0.00275868
0.00281814
0.0256303
0.0259081
0.0257389
0.0260157
0.00279106
0.00273108
0.00280061
0.00274074
0.0255424
0.0253642
0.0256517
0.0254737
0.00262477
0.00256796
0.00263425
0.0025774
0.0252973
0.0252972
0.0254066
0.0254065
0.00254288
0.00254288
0.0025523
0.0025523
0.025364
0.0255422
0.0254735
0.0256514
0.00256795
0.00262477
0.0025774
0.00263425
0.0259076
0.0256283
0.0260148
0.0257366
0.00273112
0.00279113
0.00274077
0.00280063
0.025391
0.0256724
0.0255133
0.0257922
0.0027705
0.00271018
0.00278094
0.00272079
0.0253043
0.0251256
0.0254258
0.0252471
0.00260428
0.00254753
0.00261476
0.00255799
0.0250588
0.0250587
0.0251802
0.02518
0.00252248
0.00252247
0.00253292
0.00253292
0.0251254
0.0253044
0.0252468
0.0254257
0.00254751
0.00260425
0.00255797
0.00261473
0.0256741
0.0253924
0.0257929
0.0255131
0.00271017
0.0027705
0.00272078
0.00278099
0.0251279
0.0254139
0.0252616
0.0255452
0.00274814
0.00268735
0.00275951
0.00269899
0.02504
0.0248622
0.0251744
0.0249962
0.00258169
0.00252498
0.00259324
0.00253651
0.0247956
0.0247956
0.0249295
0.0249294
0.00249995
0.00249994
0.00251147
0.00251146
0.0248621
0.0250402
0.024996
0.0251746
0.00252495
0.00258165
0.00253649
0.0025932
0.0254145
0.0251287
0.0255465
0.0252631
0.00268729
0.00274806
0.00269896
0.00275948
0.0248407
0.0251314
0.0249868
0.0252748
0.00272338
0.0026622
0.002736
0.00267499
0.0247513
0.0245732
0.0248979
0.0247201
0.00255688
0.0025002
0.00256954
0.00251286
0.0245067
0.0245066
0.0246536
0.0246535
0.00247518
0.00247518
0.00248784
0.00248783
0.024573
0.0247512
0.0247199
0.0248979
0.00250018
0.00255684
0.00251284
0.0025695
0.0251313
0.02484
0.0252747
0.0249863
0.00266214
0.00272331
0.00267493
0.00273592
0.0245281
0.0248237
0.0246871
0.02498
0.0026962
0.0026346
0.00271007
0.00264867
0.0244367
0.0242577
0.0245965
0.024418
0.00252972
0.00247306
0.00254358
0.00248692
0.024191
0.0241909
0.0243514
0.0243513
0.00244806
0.00244806
0.00246191
0.00246191
0.0242574
0.0244362
0.0244177
0.0245962
0.00247305
0.00252969
0.0024869
0.00254355
0.0248229
0.0245267
0.0249795
0.024686
0.00263456
0.00269614
0.00264862
0.00271
0.0241878
0.0244888
0.0243607
0.0246587
0.00266646
0.00260442
0.00268161
0.00261978
0.0240948
0.0239147
0.0242684
0.0240889
0.00250007
0.00244346
0.00251519
0.00245856
0.0238478
0.0238477
0.024022
0.0240219
0.00241846
0.00241846
0.00243357
0.00243356
0.0239144
0.0240943
0.0240885
0.0242678
0.00244345
0.00250005
0.00245855
0.00251517
0.0244879
0.0241862
0.0246578
0.0243591
0.00260439
0.00266641
0.00261975
0.00268156
0.0238194
0.0241266
0.0240064
0.0243103
0.00263418
0.00257167
0.00265059
0.00258831
0.023725
0.0235435
0.0239126
0.0237319
0.00246788
0.00241128
0.00248428
0.00242768
0.0234761
0.023476
0.0236647
0.0236646
0.00238627
0.00238627
0.00240269
0.00240268
0.0235432
0.0237244
0.0237316
0.0239121
0.00241127
0.00246786
0.00242767
0.00248426
0.0241258
0.0238179
0.0243094
0.0240048
0.00257164
0.00263414
0.00258829
0.00265055
0.0234226
0.0237364
0.023624
0.0239342
0.00259937
0.00253635
0.00261705
0.00255428
0.0233262
0.0231428
0.0235285
0.0233461
0.00243305
0.00237641
0.00245078
0.00239417
0.0230748
0.0230747
0.0232784
0.0232783
0.00235137
0.00235137
0.00236916
0.00236916
0.0231425
0.0233257
0.0233458
0.023528
0.0023764
0.00243304
0.00239417
0.00245077
0.0237355
0.0234211
0.0239334
0.0236225
0.00253633
0.00259933
0.00255426
0.00261701
0.0229956
0.0233158
0.0232123
0.0235292
0.00256195
0.00249836
0.00258095
0.00251765
0.0228966
0.0227109
0.0231146
0.0229301
0.00239547
0.0023387
0.0024146
0.00235791
0.022642
0.0226419
0.0228616
0.0228615
0.00231358
0.00231358
0.00233284
0.00233283
0.0227107
0.0228961
0.0229298
0.0231141
0.0023387
0.00239546
0.0023579
0.00241459
0.023315
0.0229942
0.0235283
0.0232109
0.00249833
0.00256192
0.00251762
0.00258092
0.0225362
0.0228625
0.0227694
0.0230926
0.00252179
0.00245752
0.00254219
0.00247826
0.0224339
0.0222456
0.0226688
0.0224818
0.00235493
0.00229793
0.00237557
0.0023187
0.0221756
0.0221755
0.0224124
0.0224123
0.00227267
0.00227267
0.00229352
0.00229352
0.0222453
0.0224335
0.0224816
0.0226683
0.00229792
0.00235492
0.0023187
0.00237555
0.0228617
0.0225348
0.0230918
0.022768
0.0024575
0.00252176
0.00247823
0.00254215
0.0220408
0.022373
0.0222926
0.0226217
0.00247865
0.00241363
0.00250058
0.00243593
0.0219351
0.0217437
0.0221885
0.0219987
0.00231115
0.00225377
0.00233345
0.00227629
0.0216723
0.0216722
0.021928
0.0219279
0.00222829
0.00222829
0.00225093
0.00225093
0.0217434
0.0219346
0.0219984
0.022188
0.00225376
0.00231113
0.00227628
0.00233344
0.0223722
0.0220395
0.0226209
0.0222912
0.00241361
0.00247862
0.00243591
0.00250054
0.021504
0.0218422
0.0217774
0.0221123
0.0024321
0.00236633
0.0024558
0.00239039
0.0213955
0.0212005
0.02167
0.0214769
0.00226366
0.00220572
0.00228789
0.00223026
0.0211273
0.0211272
0.0214046
0.0214045
0.00217994
0.00217994
0.00220464
0.00220464
0.0212003
0.0213951
0.0214766
0.0216695
0.00220571
0.00226364
0.00223025
0.00228787
0.0218415
0.0215027
0.0221116
0.021776
0.0023663
0.00243206
0.00239036
0.00245577
0.0209181
0.0212628
0.021217
0.0215584
0.00238138
0.00231498
0.00240728
0.00234117
0.0208082
0.0206087
0.0211078
0.0209106
0.00221162
0.00215292
0.00223827
0.00217997
0.0205336
0.0205336
0.0208363
0.0208362
0.00212681
0.0021268
0.00215402
0.00215402
0.0206085
0.0208078
0.0209103
0.0211073
0.00215291
0.00221161
0.00217996
0.00223826
0.021262
0.0209168
0.0215576
0.0212157
0.00231496
0.00238134
0.00234114
0.00240725
0.0202842
0.0206214
0.0206048
0.0209504
0.00232565
0.00225797
0.00235412
0.00228736
0.020158
0.0199563
0.0204918
0.0202903
0.00215301
0.00209389
0.00218334
0.0021243
0.0198821
0.019882
0.0202149
0.0202148
0.0020678
0.0020678
0.00209809
0.00209809
0.0199561
0.0201575
0.0202901
0.0204914
0.00209388
0.002153
0.00212429
0.00218333
0.0206207
0.020283
0.0209496
0.0206035
0.00225795
0.00232562
0.00228734
0.00235408
0.0196805
0.0198613
0.0199692
0.0202643
0.00226295
0.00218194
0.0022959
0.00222466
0.0194107
0.0192315
0.0197981
0.0196022
0.00208215
0.00202674
0.00211967
0.00206137
0.0191689
0.0191688
0.0195319
0.0195319
0.0020024
0.0020024
0.00203583
0.00203583
0.0192313
0.0194103
0.0196019
0.0197977
0.00202673
0.00208214
0.00206137
0.00211965
0.0198606
0.0196795
0.0202636
0.0199681
0.00218192
0.00226292
0.00222464
0.00229587
0.0561776
0.0559491
0.053077
0.0530524
0.0410308
0.0409351
0.0386862
0.0387526
0.0555739
0.0555856
0.0526003
0.0525728
0.0405658
0.0405464
0.0383142
0.0382772
0.0556811
0.0556774
0.0526593
0.0526556
0.0406116
0.0406094
0.0383465
0.0383443
0.0555747
0.0555566
0.0525617
0.0525825
0.0405399
0.040555
0.0382704
0.0383029
0.0559263
0.0561486
0.0530286
0.0530465
0.0409202
0.0410105
0.038737
0.0386646
0.0600759
0.0598809
0.0583454
0.0581235
0.0436851
0.0436546
0.0425147
0.0424495
0.0595718
0.0596067
0.0577817
0.057807
0.0433623
0.0433591
0.0421212
0.0421102
0.0597021
0.0596987
0.0579032
0.0578996
0.0434157
0.0434137
0.0421701
0.042168
0.0595968
0.0595559
0.0577965
0.057765
0.0433531
0.0433526
0.0421039
0.042111
0.05986
0.0600494
0.0581016
0.0583176
0.0436412
0.0436667
0.0424353
0.0424954
0.0627681
0.0626112
0.0615191
0.0613452
0.0454969
0.0455015
0.0446582
0.0446484
0.0623473
0.0623929
0.0610606
0.0611009
0.0452525
0.0452599
0.0443805
0.0443825
0.0624855
0.0624824
0.0611942
0.061191
0.0453135
0.0453117
0.0444367
0.0444348
0.0623839
0.0623329
0.0610914
0.0610454
0.0452545
0.0452436
0.0443769
0.0443712
0.0625921
0.0627436
0.0613251
0.0614934
0.0454892
0.0454799
0.0446355
0.0446405
0.0647964
0.0646645
0.063845
0.0637013
0.0468364
0.0468623
0.0462107
0.0462264
0.0644305
0.0644829
0.0634531
0.0635016
0.0466398
0.0466542
0.0459915
0.0460021
0.0645739
0.0645711
0.0635927
0.0635898
0.0467078
0.0467061
0.0460551
0.0460534
0.0644747
0.0644173
0.0634929
0.0634392
0.0466493
0.0466317
0.0459969
0.045983
0.0646469
0.0647737
0.0636828
0.0638211
0.0468509
0.0468207
0.0462145
0.0461943
0.066367
0.0662537
0.0656259
0.0655037
0.0478524
0.0478951
0.0473744
0.0474088
0.066042
0.0661
0.065281
0.0653356
0.0476922
0.0477123
0.0471964
0.0472133
0.0661905
0.0661879
0.0654259
0.0654232
0.0477664
0.047765
0.0472668
0.0472652
0.0660926
0.0660299
0.0653278
0.0652683
0.0477078
0.0476849
0.0472086
0.0471886
0.0662375
0.0663459
0.0654866
0.0656038
0.0478847
0.0478379
0.0473979
0.0473592
0.0676003
0.0675017
0.0670161
0.0669104
0.0486366
0.0486931
0.0482658
0.0483155
0.0673078
0.067371
0.0667076
0.0667676
0.0485061
0.0485307
0.0481206
0.0481425
0.0674614
0.0674591
0.0668577
0.0668553
0.0485854
0.048584
0.0481967
0.0481953
0.0673641
0.0672968
0.0667605
0.066696
0.0485266
0.0484993
0.0481383
0.0481135
0.0674869
0.0675808
0.0668947
0.0669957
0.0486836
0.0486232
0.0483054
0.0482517
0.068576
0.0684893
0.0681128
0.0680203
0.0492478
0.0493156
0.0489577
0.04902
0.0683102
0.0683779
0.0678337
0.0678987
0.0491417
0.0491702
0.0488396
0.0488658
0.0684687
0.0684666
0.0679889
0.0679867
0.0492254
0.0492241
0.0489205
0.0489192
0.0683717
0.0683001
0.0678921
0.0678231
0.0491665
0.0491355
0.0488619
0.0488331
0.0684756
0.0685581
0.0680059
0.0680939
0.0493068
0.0492354
0.0490108
0.0489448
0.0693488
0.0692716
0.0689816
0.0688997
0.0497253
0.0498021
0.0494983
0.0495707
0.069105
0.0691769
0.0687267
0.0687961
0.0496392
0.0496712
0.0494023
0.0494322
0.0692683
0.0692663
0.0688869
0.0688849
0.0497268
0.0497257
0.0494874
0.0494862
0.0691712
0.0690957
0.0687902
0.068717
0.0496678
0.0496336
0.0494287
0.0493964
0.069259
0.0693322
0.0688864
0.0689642
0.049794
0.0497138
0.0495622
0.0494863
0.0699573
0.0698879
0.0696684
0.0695951
0.0500955
0.0501797
0.0499197
0.0500002
0.069732
0.0698078
0.0694337
0.0695072
0.0500263
0.0500614
0.049842
0.0498752
0.0698998
0.0698981
0.0695986
0.0695968
0.0501175
0.0501165
0.0499309
0.0499298
0.0698026
0.0697235
0.0695017
0.0694248
0.0500584
0.0500211
0.049872
0.0498365
0.0698764
0.0699421
0.0695829
0.0696523
0.0501723
0.050085
0.0499923
0.0499085
0.0704299
0.0703669
0.0702061
0.0701399
0.0503775
0.0504678
0.0502439
0.0503311
0.0702203
0.0702997
0.0699886
0.0700658
0.0503227
0.0503608
0.0501819
0.0502182
0.0703925
0.0703909
0.070158
0.0701563
0.0504175
0.0504165
0.0502744
0.0502734
0.070295
0.0702125
0.0700608
0.0699804
0.050358
0.050318
0.0502153
0.0501769
0.0703563
0.0704159
0.0701287
0.0701913
0.050461
0.0503679
0.050324
0.0502338
0.0707872
0.0707297
0.0706188
0.0705587
0.0505854
0.0506807
0.0504874
0.0505802
0.0705916
0.0706744
0.0704162
0.070497
0.0505431
0.050584
0.0504389
0.0504782
0.0707681
0.0707666
0.0705901
0.0705885
0.0506412
0.0506404
0.0505349
0.050534
0.0706701
0.0705845
0.0704925
0.0704088
0.0505815
0.0505388
0.0504755
0.0504344
0.07072
0.0707743
0.0705485
0.0706052
0.0506746
0.0505768
0.0505737
0.0504782
0.0710461
0.0709929
0.0709255
0.0708701
0.0507295
0.050829
0.0506623
0.0507599
0.070862
0.0709481
0.0707356
0.0708199
0.0506983
0.0507419
0.0506257
0.0506677
0.071043
0.0710416
0.0709138
0.0709124
0.0507997
0.0507989
0.0507251
0.0507243
0.0709441
0.0708554
0.0708157
0.0707287
0.0507395
0.0506944
0.0506653
0.0506215
0.0709839
0.0710341
0.0708607
0.070913
0.0508233
0.0507215
0.050754
0.0506541
0.07122
0.0711703
0.0711406
0.071089
0.0508191
0.0509215
0.0507784
0.0508793
0.0710455
0.0711341
0.0709611
0.0710483
0.0507963
0.0508423
0.0507515
0.0507965
0.0712295
0.0712281
0.0711432
0.0711418
0.0509008
0.0509
0.0508545
0.0508537
0.0711302
0.0710393
0.0710444
0.0709547
0.05084
0.0507925
0.0507942
0.0507476
0.0711619
0.0712088
0.0710802
0.0711288
0.0509164
0.0508117
0.0508739
0.0507705
0.0713185
0.0712715
0.0712757
0.0712275
0.0508609
0.0509655
0.0508438
0.0509475
0.0711524
0.0712435
0.071106
0.0711956
0.0508455
0.0508936
0.050825
0.0508716
0.0713396
0.0713382
0.071291
0.0712897
0.0509525
0.0509517
0.0509299
0.0509291
0.0712394
0.0711457
0.0711916
0.0710996
0.0508911
0.0508412
0.0508692
0.0508211
0.0712623
0.0713066
0.071219
0.0712646
0.0509593
0.0508525
0.0509422
0.0508364
0.0713468
0.0713017
0.0713396
0.0712932
0.0508558
0.0509623
0.0508624
0.0509675
0.0711877
0.0712806
0.0711763
0.071268
0.0508475
0.0508974
0.0508501
0.0508988
0.071377
0.0713756
0.071364
0.0713625
0.0509566
0.0509556
0.0509577
0.0509567
0.0712763
0.0711808
0.0712637
0.0711694
0.0508946
0.0508432
0.0508961
0.0508457
0.0712932
0.0713359
0.0712837
0.0713271
0.0509573
0.0508487
0.0509614
0.0508536
0.0713083
0.0712651
0.0713328
0.0712891
0.0508075
0.0509157
0.0508347
0.0509423
0.0711554
0.0712507
0.0711774
0.0712713
0.0508049
0.0508572
0.0508296
0.0508805
0.071348
0.0713467
0.0713679
0.0713665
0.0509173
0.0509165
0.0509399
0.050939
0.0712468
0.0711488
0.0712671
0.0711707
0.0508547
0.0508007
0.0508778
0.0508253
0.0712551
0.0712957
0.0712802
0.0713222
0.0509093
0.0507996
0.0509367
0.050828
0.0712046
0.0711633
0.0712627
0.0712199
0.0507183
0.0508271
0.0507665
0.0508746
0.0710593
0.0711571
0.071113
0.0712093
0.0507209
0.0507754
0.0507661
0.0508193
0.0712554
0.0712543
0.071307
0.0713058
0.0508364
0.0508358
0.0508798
0.0508791
0.0711538
0.0710542
0.0712057
0.0711072
0.0507734
0.0507179
0.0508172
0.0507625
0.0711576
0.0711968
0.0712118
0.0712513
0.0508238
0.0507133
0.0508695
0.0507591
0.0710426
0.0710023
0.0711286
0.0710882
0.05059
0.0506995
0.050657
0.0507665
0.0709016
0.0710018
0.0709859
0.0710847
0.0505961
0.0506528
0.0506617
0.0507171
0.0711013
0.0711003
0.0711835
0.0711825
0.0507149
0.0507143
0.0507786
0.050778
0.0709989
0.0708966
0.0710816
0.0709809
0.0506511
0.0505932
0.0507154
0.0506588
0.0709945
0.0710325
0.0710817
0.0711207
0.0506948
0.050584
0.0507627
0.0506524
0.0708186
0.0707798
0.0709366
0.0708965
0.0504216
0.0505312
0.0505095
0.0506186
0.0706839
0.0707864
0.0707982
0.0708994
0.0504313
0.0504901
0.0505169
0.0505745
0.070887
0.070886
0.0709993
0.0709983
0.0505533
0.0505528
0.0506371
0.0506365
0.0707836
0.0706796
0.0708965
0.0707935
0.0504886
0.050429
0.0505729
0.0505143
0.070775
0.0708118
0.0708898
0.0709269
0.0505288
0.0504177
0.0506147
0.0505034
0.0705386
0.0705001
0.0706835
0.0706454
0.0502154
0.0503248
0.0503213
0.0504312
0.0704064
0.070511
0.0705506
0.070654
0.0502264
0.0502872
0.0503322
0.0503918
0.0706127
0.0706118
0.070755
0.0707541
0.0503516
0.0503511
0.0504555
0.0504551
0.0705085
0.070402
0.0706514
0.0705463
0.0502859
0.0502241
0.0503905
0.05033
0.0704929
0.0705291
0.0706396
0.0706765
0.0503205
0.0502098
0.0504282
0.0503177
0.0701952
0.070158
0.0703732
0.0703347
0.049967
0.0500759
0.0500954
0.0502039
0.0700684
0.0701751
0.0702431
0.0703486
0.0499806
0.0500432
0.0501071
0.0501686
0.0702777
0.070277
0.0704506
0.0704498
0.0501087
0.0501083
0.0502335
0.0502331
0.0701727
0.0700646
0.0703461
0.0702389
0.050042
0.0499785
0.0501673
0.0501048
0.0701535
0.0701886
0.0703285
0.0703639
0.0500734
0.0499624
0.0502002
0.0500891
0.0697935
0.0697566
0.0699996
0.069963
0.0496784
0.0497872
0.0498257
0.0499351
0.0696688
0.0697773
0.0698744
0.0699819
0.0496926
0.0497565
0.0498403
0.0499035
0.0698809
0.0698802
0.0700849
0.0700842
0.049823
0.0498226
0.0499694
0.049969
0.0697752
0.0696649
0.0699796
0.0698706
0.0497554
0.0496904
0.0499023
0.0498381
0.0697499
0.0697843
0.0699577
0.0699928
0.0497827
0.0496722
0.0499319
0.0498215
0.0693258
0.0692905
0.0695664
0.0695296
0.0493451
0.0494538
0.0495164
0.0496244
0.0692062
0.0693163
0.0694436
0.0695528
0.0493615
0.0494265
0.0495309
0.0495953
0.0694207
0.0694201
0.0696567
0.069656
0.0494938
0.0494935
0.0496621
0.0496618
0.0693144
0.0692031
0.0695507
0.06944
0.0494255
0.0493598
0.0495943
0.0495289
0.0692867
0.0693198
0.069524
0.0695575
0.0494515
0.0493404
0.0496207
0.0495097
0.0687964
0.068762
0.0690669
0.0690325
0.0489683
0.0490779
0.0491603
0.0492698
0.0686789
0.0687903
0.068949
0.0690596
0.048986
0.0490519
0.0491779
0.0492432
0.0688955
0.0688949
0.0691643
0.0691637
0.0491198
0.0491195
0.0493107
0.0493104
0.0687884
0.0686754
0.0690577
0.0689456
0.0490509
0.048984
0.0492422
0.049176
0.0687559
0.0687879
0.0690278
0.0690608
0.0490738
0.0489625
0.0492669
0.0491562
0.0681972
0.0681645
0.0685042
0.0684701
0.0485442
0.0486544
0.0487611
0.0488705
0.0680842
0.0681969
0.0683883
0.0685003
0.0485643
0.0486309
0.0487794
0.0488456
0.0683028
0.0683021
0.0686057
0.0686051
0.0486995
0.0486992
0.0489138
0.0489135
0.0681951
0.0680813
0.0684984
0.0683851
0.04863
0.0485628
0.0488447
0.0487777
0.0681611
0.0681916
0.0684647
0.0684957
0.0486527
0.0485405
0.0488672
0.0487552
0.0675299
0.0674991
0.0678702
0.0678388
0.0480724
0.0481842
0.0483127
0.048424
0.0674196
0.0675333
0.0677591
0.0678722
0.0480943
0.0481617
0.0483342
0.0484009
0.0676397
0.0676391
0.0679782
0.0679776
0.0482309
0.0482306
0.0484697
0.0484694
0.0675315
0.0674165
0.0678703
0.0677562
0.0481609
0.0480932
0.0484
0.0483329
0.0674942
0.0675235
0.0678351
0.0678653
0.0481823
0.0480697
0.0484225
0.0483105
0.0667877
0.0667588
0.0671668
0.0671365
0.0475484
0.0476617
0.0478158
0.0479279
0.0666811
0.066796
0.067058
0.0671721
0.0475729
0.0476419
0.0478385
0.0479066
0.0669031
0.0669025
0.0672788
0.0672782
0.0477119
0.0477117
0.0479762
0.0479759
0.0667944
0.0666788
0.0671705
0.0670552
0.0476413
0.0475723
0.0479059
0.0478376
0.0667559
0.0667826
0.0671322
0.0671599
0.0476616
0.0475467
0.0479264
0.0478126
0.0659703
0.0659436
0.0663866
0.066359
0.0469753
0.0470904
0.0472663
0.0473809
0.0658663
0.0659819
0.0662817
0.0663968
0.0470002
0.0470699
0.0472916
0.0473609
0.0660895
0.0660889
0.0665041
0.0665036
0.0471405
0.0471403
0.0474313
0.047431
0.0659803
0.0658637
0.0663953
0.0662793
0.0470692
0.0469992
0.0473603
0.0472909
0.0659401
0.0659654
0.066356
0.0663821
0.0470891
0.046973
0.0473801
0.0472646
0.0650739
0.0650489
0.0655306
0.0655046
0.0463499
0.0464657
0.046668
0.0467833
0.0649718
0.0650877
0.0654275
0.0655431
0.0463739
0.0464437
0.0466924
0.0467621
0.0651955
0.0651949
0.0656508
0.0656503
0.0465146
0.0465143
0.0468329
0.0468326
0.065086
0.0649689
0.0655415
0.0654247
0.0464427
0.0463723
0.0467613
0.0466911
0.0650448
0.0650679
0.0655006
0.0655248
0.0464634
0.0463462
0.0467814
0.0466647
0.0640952
0.0640719
0.0645933
0.0645692
0.0456689
0.0457856
0.046015
0.0461312
0.063994
0.0641092
0.0644919
0.0646075
0.0456916
0.045761
0.0460385
0.046108
0.0642168
0.0642163
0.0647151
0.0647146
0.0458319
0.0458316
0.046179
0.0461786
0.0641075
0.063991
0.0646057
0.064489
0.04576
0.0456899
0.046107
0.0460368
0.0640677
0.0640891
0.064565
0.0645871
0.045783
0.0456649
0.0461286
0.046011
0.0630294
0.063007
0.0635719
0.0635491
0.0449303
0.0450474
0.0453056
0.0454225
0.0629271
0.0630409
0.0634704
0.0635849
0.0449504
0.0450186
0.0453272
0.045396
0.0631477
0.0631472
0.0636921
0.0636916
0.0450892
0.0450889
0.0454667
0.0454664
0.0630392
0.0629242
0.0635832
0.0634675
0.0450176
0.0449487
0.045395
0.0453255
0.0630028
0.0630233
0.0635449
0.0635657
0.0450448
0.0449264
0.0454199
0.0453016
0.061869
0.0618473
0.0624598
0.0624379
0.0441304
0.0442477
0.044537
0.0446542
0.0617637
0.061875
0.0623563
0.0624689
0.0441461
0.0442124
0.0445551
0.0446223
0.0619808
0.0619802
0.0625752
0.0625746
0.0442824
0.0442821
0.0446926
0.0446923
0.0618734
0.0617609
0.0624672
0.0623535
0.0442115
0.0441445
0.0446214
0.0445534
0.0618432
0.0618631
0.0624337
0.0624538
0.0442452
0.0441266
0.0446517
0.044533
0.060605
0.060583
0.0612489
0.0612272
0.0432639
0.0433804
0.0437045
0.0438215
0.0604942
0.0606022
0.0611412
0.0612509
0.0432731
0.0433368
0.0437173
0.0437822
0.0607065
0.0607059
0.0613559
0.0613553
0.0434059
0.0434056
0.0438518
0.0438515
0.0606006
0.0604914
0.0612493
0.0611384
0.0433359
0.0432715
0.0437813
0.0437157
0.0605789
0.0605992
0.0612231
0.061243
0.0433779
0.0432601
0.043819
0.0437007
0.0592263
0.0592027
0.0599291
0.0599064
0.0423241
0.0424388
0.0428023