/*--------------------------------*- C++ -*----------------------------------*\
  =========                 |
  \\      /  F ield         | OpenFOAM: The Open Source CFD Toolbox
   \\    /   O peration     | Website:  https://openfoam.org
    \\  /    A nd           | Version:  9
     \\/     M anipulation  |
\*---------------------------------------------------------------------------*/
FoamFile
{
    format      ascii;
    class       volScalarField;
    location    "4";
    object      p;
}
// * * * * * * * * * * * * * * * * * * * * * * * * * * * * * * * * * * * * * //

dimensions      [0 2 -2 0 0 0 0];

internalField   nonuniform List<scalar> 
36360
(
20.2377
19.9978
20.2271
20.0092
19.9994
20.1811
20.0205
20.1495
20.082
20.0985
20.088
20.1055
20.1096
20.0951
20.0985
20.0919
20.1004
20.1004
20.1076
20.1076
20.0937
20.0937
20.0917
20.0917
20.0985
20.082
20.1055
20.088
20.0951
20.1096
20.0919
20.0985
19.9978
20.2376
20.0092
20.227
20.181
19.9994
20.1495
20.0205
20.1173
20.0703
20.1614
20.048
19.9054
20.2503
19.9502
20.2237
20.1109
20.1019
20.0983
20.0991
20.1428
20.1026
20.1274
20.0989
20.0968
20.0968
20.0975
20.0975
20.0948
20.0948
20.0945
20.0945
20.1019
20.1109
20.0991
20.0983
20.1026
20.1428
20.0989
20.1274
20.0703
20.1173
20.048
20.1613
20.2502
19.9055
20.2237
19.9503
20.0684
20.085
20.0893
20.0805
19.8479
20.2742
19.8725
20.2657
20.1314
20.1118
20.1222
20.1066
20.1666
20.1127
20.1559
20.1074
20.0992
20.0992
20.0975
20.0975
20.0978
20.0978
20.096
20.096
20.1118
20.1314
20.1066
20.1222
20.1127
20.1666
20.1074
20.1559
20.085
20.0684
20.0805
20.0893
20.2742
19.848
20.2656
19.8725
20.04
20.0859
20.0524
20.0863
19.8147
20.2803
19.8293
20.2785
20.1436
20.1213
20.1384
20.1168
20.1808
20.1228
20.1748
20.1179
20.1043
20.1043
20.1016
20.1016
20.1029
20.1029
20.1002
20.1002
20.1213
20.1436
20.1168
20.1384
20.1228
20.1808
20.1179
20.1748
20.086
20.04
20.0863
20.0524
20.2803
19.8148
20.2784
19.8293
20.0225
20.083
20.0303
20.0847
19.7941
20.2803
19.8033
20.2807
20.1501
20.1289
20.1475
20.1253
20.1883
20.1311
20.1851
20.1272
20.1103
20.1103
20.1073
20.1073
20.1086
20.1086
20.1057
20.1057
20.1289
20.1501
20.1253
20.1475
20.1311
20.1882
20.1272
20.1851
20.083
20.0225
20.0847
20.0303
20.2803
19.7942
20.2807
19.8034
20.0108
20.0792
20.0161
20.0811
19.7805
20.2784
19.7867
20.2795
20.1532
20.1346
20.152
20.132
20.1921
20.1373
20.1905
20.1345
20.1158
20.1158
20.1131
20.1131
20.1141
20.1141
20.1114
20.1114
20.1346
20.1532
20.132
20.1519
20.1373
20.1921
20.1345
20.1905
20.0792
20.0108
20.0811
20.0161
20.2784
19.7806
20.2795
19.7867
20.0026
20.0756
20.0064
20.0774
19.7711
20.2761
19.7753
20.2773
20.1545
20.1386
20.154
20.1368
20.1941
20.1415
20.1933
20.1396
20.1203
20.1203
20.1182
20.1182
20.1188
20.1188
20.1166
20.1166
20.1386
20.1545
20.1368
20.154
20.1415
20.1941
20.1396
20.1933
20.0756
20.0026
20.0774
20.0064
20.276
19.7712
20.2772
19.7755
19.9965
20.0723
19.9993
20.0739
19.7643
20.2737
19.7674
20.2749
20.1548
20.1413
20.1548
20.1401
20.195
20.1444
20.1947
20.1431
20.1238
20.1238
20.1222
20.1222
20.1224
20.1224
20.1207
20.1207
20.1413
20.1548
20.1401
20.1548
20.1444
20.195
20.1431
20.1947
20.0723
19.9966
20.0739
19.9993
20.2738
19.7642
20.2748
19.7675
19.9919
20.0695
19.9941
20.0709
19.759
20.2715
19.7615
20.2726
20.1546
20.143
20.1548
20.1423
20.1952
20.1463
20.1952
20.1454
20.1263
20.1263
20.1252
20.1252
20.1251
20.1251
20.1238
20.1238
20.143
20.1546
20.1423
20.1548
20.1462
20.1952
20.1454
20.1952
20.0695
19.9919
20.0709
19.9941
20.2715
19.7593
20.2726
19.7617
19.9881
20.067
19.9899
20.0682
19.7546
20.2695
19.7568
20.2704
20.1539
20.1438
20.1543
20.1435
20.195
20.1473
20.1951
20.1469
20.1279
20.1279
20.1272
20.1272
20.1269
20.1269
20.1261
20.1261
20.1439
20.1539
20.1435
20.1544
20.1473
20.195
20.1469
20.1952
20.067
19.9881
20.0683
19.9899
20.2695
19.7551
20.2706
19.7568
19.985
20.0647
19.9865
20.0658
19.7514
20.2675
19.7528
20.2686
20.1529
20.144
20.1535
20.144
20.1944
20.1477
20.1948
20.1476
20.1286
20.1286
20.1284
20.1283
20.1278
20.1278
20.1275
20.1274
20.144
20.1529
20.144
20.1535
20.1476
20.1943
20.1475
20.1946
20.0647
19.985
20.0658
19.9865
20.2674
19.7519
20.2684
19.7535
19.9822
20.0624
19.9836
20.0635
19.7502
20.265
19.7508
20.2662
20.1515
20.1436
20.1523
20.1439
20.1931
20.1473
20.1938
20.1476
20.1287
20.1287
20.1287
20.1287
20.1281
20.1281
20.128
20.128
20.1436
20.1516
20.1439
20.1523
20.1474
20.1932
20.1476
20.1938
20.0624
19.9823
20.0636
19.9836
20.2653
19.7493
20.2663
19.7506
19.9798
20.0602
19.981
20.0613
19.7481
20.2628
19.7493
20.2638
20.1499
20.1426
20.1508
20.1431
20.1917
20.1465
20.1924
20.147
20.1281
20.1281
20.1284
20.1284
20.1277
20.1277
20.1279
20.1279
20.1426
20.1499
20.1432
20.1508
20.1465
20.1917
20.147
20.1925
20.0602
19.9797
20.0613
19.9809
20.2629
19.7475
20.264
19.7485
19.9774
20.0581
19.9786
20.0592
19.7463
20.2602
19.7468
20.2617
20.148
20.1412
20.149
20.142
20.1898
20.1452
20.1909
20.1459
20.1269
20.1269
20.1276
20.1276
20.1267
20.1267
20.1273
20.1273
20.1412
20.148
20.142
20.149
20.1452
20.1899
20.146
20.1909
20.058
19.9774
20.0592
19.9786
20.2602
19.7461
20.2618
19.7464
19.9752
20.0558
19.9762
20.057
19.744
20.2577
19.7454
20.2588
20.1458
20.1393
20.147
20.1403
20.1877
20.1434
20.1888
20.1444
20.1253
20.1252
20.1262
20.1261
20.1251
20.1251
20.126
20.126
20.1393
20.1458
20.1403
20.1469
20.1434
20.1877
20.1444
20.1888
20.0559
19.975
20.0569
19.9762
20.2576
19.7445
20.2588
19.7455
19.9726
20.0535
19.9739
20.0546
19.743
20.2546
19.7436
20.2561
20.1434
20.137
20.1446
20.1382
20.185
20.1411
20.1864
20.1423
20.1231
20.1231
20.1242
20.1242
20.123
20.123
20.1241
20.1241
20.137
20.1433
20.1382
20.1446
20.141
20.1849
20.1423
20.1864
20.0533
19.9727
20.0547
19.9738
20.2544
19.7438
20.2561
19.744
19.97
20.0509
19.9713
20.0523
19.742
20.2511
19.7422
20.253
20.1406
20.1343
20.1421
20.1357
20.182
20.1383
20.1836
20.1397
20.1205
20.1205
20.1218
20.1218
20.1204
20.1204
20.1218
20.1217
20.1343
20.1405
20.1357
20.142
20.1382
20.1819
20.1397
20.1835
20.0507
19.9703
20.052
19.9715
20.2511
19.7425
20.2527
19.7433
19.9679
20.048
19.969
20.0494
19.7408
20.2473
19.7416
20.2492
20.1376
20.1312
20.1391
20.1328
20.1785
20.135
20.1802
20.1367
20.1175
20.1175
20.119
20.119
20.1173
20.1173
20.1189
20.1189
20.1312
20.1377
20.1328
20.1391
20.1351
20.1786
20.1367
20.1803
20.0482
19.9677
20.0495
19.969
20.2477
19.7403
20.2494
19.7415
19.965
20.0455
19.9664
20.0469
19.7377
20.2441
19.7392
20.2457
20.1346
20.1279
20.1362
20.1296
20.1749
20.1315
20.1767
20.1333
20.1142
20.1141
20.1158
20.1158
20.1137
20.1137
20.1155
20.1155
20.1279
20.1346
20.1296
20.1362
20.1314
20.1748
20.1333
20.1767
20.0454
19.9651
20.0468
19.9664
20.2437
19.7386
20.2458
19.7395
19.9622
20.0427
19.9636
20.0441
19.7372
20.2393
19.7375
20.2417
20.1313
20.1242
20.133
20.1261
20.1705
20.1273
20.1728
20.1294
20.1105
20.1105
20.1124
20.1124
20.1097
20.1097
20.1117
20.1118
20.1242
20.1313
20.1261
20.133
20.1273
20.1706
20.1294
20.1728
20.0426
19.9623
20.0441
19.9638
20.2394
19.7372
20.2419
19.7374
19.9596
20.0396
19.9608
20.0412
19.736
20.2348
19.7365
20.2371
20.1278
20.1204
20.1296
20.1223
20.166
20.1228
20.1683
20.1251
20.1066
20.1066
20.1086
20.1086
20.1052
20.1052
20.1075
20.1075
20.1204
20.1279
20.1223
20.1296
20.1229
20.166
20.1251
20.1683
20.0398
19.9595
20.0412
19.9609
20.2348
19.7359
20.237
19.7368
19.9571
20.0368
19.9584
20.0382
19.7336
20.2303
19.735
20.2325
20.1244
20.1162
20.1261
20.1183
20.1613
20.1182
20.1637
20.1205
20.1025
20.1025
20.1046
20.1046
20.1006
20.1006
20.1029
20.103
20.1162
20.1244
20.1183
20.1262
20.1182
20.1613
20.1206
20.1637
20.0368
19.9569
20.0383
19.9581
20.2303
19.7339
20.2324
19.7351
19.9541
20.0342
19.9554
20.0355
19.7319
20.2254
19.7326
20.228
20.121
20.112
20.1227
20.1141
20.1564
20.1133
20.1589
20.1157
20.0983
20.0983
20.1004
20.1004
20.0957
20.0957
20.0982
20.0982
20.112
20.1209
20.1141
20.1227
20.1133
20.1564
20.1157
20.1589
20.034
19.9544
20.0354
19.9558
20.2254
19.7321
20.2279
19.7328
19.9519
20.0314
19.953
20.0327
19.7304
20.2205
19.731
20.223
20.1176
20.1078
20.1193
20.1099
20.1514
20.1082
20.1539
20.1108
20.0942
20.0942
20.0963
20.0963
20.0907
20.0907
20.0932
20.0932
20.1079
20.1177
20.1099
20.1193
20.1082
20.1515
20.1108
20.154
20.0317
19.9517
20.0329
19.9529
20.2206
19.7303
20.2231
19.7309
19.9497
20.0292
19.9506
20.0303
19.7294
20.2156
19.7301
20.2179
20.1146
20.1039
20.1161
20.1058
20.1464
20.1031
20.1489
20.1056
20.0902
20.0902
20.0921
20.0921
20.0856
20.0856
20.0882
20.0882
20.1039
20.1146
20.1058
20.1161
20.1031
20.1463
20.1056
20.1489
20.029
19.9499
20.0302
19.9507
20.2154
19.7301
20.2179
19.7304
19.9479
20.0274
19.9487
20.0282
19.7285
20.2108
19.729
20.2131
20.1118
20.1002
20.1133
20.102
20.1414
20.098
20.1439
20.1005
20.0864
20.0864
20.0882
20.0882
20.0806
20.0806
20.0831
20.0831
20.1002
20.1118
20.102
20.1133
20.098
20.1414
20.1005
20.1439
20.0273
19.9479
20.0282
19.9488
20.2109
19.7289
20.2131
19.7296
19.947
20.0257
19.9473
20.0265
19.7285
20.2064
19.7282
20.2087
20.1085
20.0968
20.1101
20.0984
20.1366
20.0932
20.139
20.0956
20.083
20.083
20.0846
20.0846
20.0758
20.0758
20.0782
20.0782
20.0968
20.1085
20.0984
20.1101
20.0932
20.1366
20.0956
20.139
20.0258
19.9468
20.0265
19.9473
20.2064
19.7288
20.2086
19.7288
19.9465
20.0249
19.9466
20.0252
19.729
20.2024
19.7287
20.2043
20.1059
20.0939
20.1071
20.0953
20.1321
20.0887
20.1343
20.0909
20.0801
20.0801
20.0815
20.0815
20.0715
20.0715
20.0736
20.0736
20.0939
20.106
20.0953
20.1072
20.0887
20.1321
20.0909
20.1343
20.0249
19.9466
20.0253
19.9466
20.2024
19.7291
20.2044
19.7288
19.9468
20.0249
19.9465
20.0248
19.7304
20.1988
19.7296
20.2005
20.1041
20.0916
20.1049
20.0927
20.128
20.0846
20.13
20.0866
20.0778
20.0778
20.0789
20.0789
20.0676
20.0676
20.0694
20.0694
20.0916
20.1041
20.0927
20.105
20.0846
20.1281
20.0866
20.13
20.0249
19.9468
20.0248
19.9465
20.1988
19.7304
20.2006
19.7296
19.9481
20.0256
19.9473
20.0251
19.7329
20.1957
19.7315
20.1972
20.103
20.09
20.1034
20.0907
20.1246
20.0812
20.1262
20.0828
20.0763
20.0763
20.0769
20.0769
20.0644
20.0644
20.0659
20.0659
20.09
20.103
20.0907
20.1035
20.0812
20.1246
20.0828
20.1262
20.0256
19.9481
20.0251
19.9473
20.1958
19.7329
20.1972
19.7315
19.9504
20.0271
19.9491
20.0263
19.7365
20.1934
19.7345
20.1945
20.1026
20.0892
20.1027
20.0895
20.1217
20.0784
20.123
20.0797
20.0756
20.0756
20.0758
20.0758
20.062
20.062
20.0631
20.0631
20.0892
20.1026
20.0895
20.1027
20.0785
20.1217
20.0797
20.1231
20.0272
19.9504
20.0263
19.9491
20.1934
19.7366
20.1945
19.7346
19.9539
20.0297
19.952
20.0283
19.7416
20.1917
19.7389
20.1925
20.103
20.0892
20.1027
20.0891
20.1196
20.0766
20.1205
20.0774
20.0758
20.0758
20.0756
20.0756
20.0606
20.0606
20.0611
20.0611
20.0892
20.103
20.0891
20.1027
20.0766
20.1196
20.0774
20.1205
20.0297
19.9539
20.0283
19.952
20.1917
19.7416
20.1925
19.7389
19.9585
20.0331
19.956
20.0313
19.7482
20.1909
19.7447
20.1912
20.1042
20.09
20.1035
20.0895
20.1182
20.0756
20.1188
20.076
20.0771
20.0771
20.0763
20.0763
20.0603
20.0603
20.0603
20.0603
20.09
20.1042
20.0895
20.1035
20.0756
20.1182
20.076
20.1188
20.0331
19.9585
20.0313
19.956
20.1909
19.7482
20.1912
19.7447
19.9646
20.0373
19.9614
20.0351
19.7565
20.1908
19.7521
20.1908
20.1061
20.0918
20.1051
20.0908
20.1176
20.0758
20.1178
20.0756
20.0795
20.0795
20.0782
20.0782
20.0612
20.0612
20.0606
20.0606
20.0918
20.1061
20.0908
20.1051
20.0758
20.1176
20.0756
20.1178
20.0373
19.9646
20.0351
19.9614
20.1908
19.7565
20.1908
19.7521
19.9721
20.0423
19.9681
20.0397
19.7668
20.1914
19.7614
20.1911
20.1087
20.0946
20.1073
20.0931
20.1178
20.077
20.1177
20.0762
20.083
20.083
20.0811
20.0811
20.0634
20.0634
20.0621
20.0621
20.0946
20.1087
20.0931
20.1073
20.077
20.1178
20.0762
20.1177
20.0423
19.9721
20.0397
19.9681
20.1914
19.7668
20.1911
19.7614
19.9811
20.0478
19.9764
20.045
19.7795
20.1924
19.7728
20.1919
20.1118
20.0982
20.1102
20.0963
20.1187
20.0794
20.1182
20.0781
20.0875
20.0875
20.0851
20.0851
20.067
20.067
20.065
20.065
20.0982
20.1117
20.0963
20.1102
20.0794
20.1187
20.0781
20.1182
20.0478
19.9811
20.045
19.9764
20.1924
19.7795
20.1919
19.7728
19.9914
20.0538
19.9861
20.0508
19.7952
20.1931
19.7869
20.1928
20.1152
20.1026
20.1134
20.1003
20.12
20.083
20.1193
20.081
20.0931
20.0931
20.0902
20.0902
20.0719
20.0719
20.0692
20.0692
20.1026
20.1152
20.1003
20.1134
20.083
20.12
20.081
20.1193
20.0538
19.9914
20.0508
19.9861
20.1931
19.7952
20.1928
19.7869
20.0007
20.062
19.9966
20.0573
19.8151
20.1922
19.8046
20.193
20.1191
20.108
20.117
20.1052
20.1217
20.0878
20.1208
20.0852
20.0999
20.0999
20.0964
20.0964
20.0782
20.0782
20.0749
20.0749
20.108
20.1191
20.1052
20.117
20.0878
20.1217
20.0852
20.1208
20.062
20.0007
20.0573
19.9966
20.1922
19.8151
20.193
19.8046
20.0084
20.0718
20.0027
20.0688
19.8402
20.1874
19.8269
20.1905
20.1247
20.1147
20.1216
20.1112
20.1242
20.0941
20.1228
20.0907
20.1076
20.1076
20.1036
20.1036
20.0858
20.0858
20.0819
20.0819
20.1147
20.1247
20.1112
20.1216
20.0941
20.1242
20.0907
20.1228
20.0718
20.0084
20.0688
20.0027
20.1874
19.8402
20.1905
19.8269
20.4136
19.9478
20.3195
19.9809
20.37
19.9356
20.298
19.9706
19.9963
20.064
20.0321
20.082
20.0234
20.0811
20.0488
20.0922
20.0949
20.095
20.102
20.102
20.0991
20.0991
20.1032
20.1032
20.0641
19.9964
20.082
20.0322
20.0811
20.0234
20.0922
20.0488
19.9478
20.4135
19.9809
20.3194
19.9356
20.3699
19.9706
20.2979
20.2819
20.0391
20.3247
20.0165
20.2474
20.0165
20.2893
19.9952
20.035
20.0668
20.021
20.0652
20.0574
20.0842
20.0444
20.0822
20.0857
20.0857
20.0897
20.0897
20.0938
20.0938
20.0961
20.0961
20.0668
20.035
20.0652
20.021
20.0842
20.0574
20.0822
20.0444
20.0391
20.2819
20.0165
20.3246
20.0165
20.2473
19.9952
20.2892
20.2462
20.0446
20.2608
20.0446
20.2074
20.0242
20.2243
20.023
20.0512
20.0752
20.0447
20.0708
20.075
20.0935
20.0673
20.0888
20.0869
20.0869
20.0854
20.0854
20.0954
20.0954
20.094
20.094
20.0752
20.0512
20.0708
20.0447
20.0935
20.075
20.0888
20.0673
20.0446
20.2461
20.0446
20.2607
20.0242
20.2074
20.023
20.2242
20.2272
20.0399
20.2354
20.0426
20.1849
20.0211
20.1947
20.0231
20.0581
20.0828
20.0554
20.0792
20.0841
20.1023
20.0804
20.0981
20.0923
20.0923
20.0894
20.0894
20.1007
20.1007
20.0978
20.0978
20.0828
20.0581
20.0792
20.0555
20.1023
20.0841
20.0981
20.0804
20.0399
20.2272
20.0426
20.2354
20.0211
20.1849
20.0232
20.1946
20.2156
20.0343
20.2208
20.0371
20.1712
20.0161
20.1773
20.0185
20.0604
20.0886
20.0596
20.086
20.0879
20.1092
20.0866
20.106
20.0983
20.0983
20.0953
20.0953
20.1067
20.1067
20.1037
20.1037
20.0886
20.0604
20.086
20.0596
20.1092
20.0879
20.106
20.0866
20.0343
20.2156
20.0371
20.2208
20.0161
20.1711
20.0185
20.1773
20.2079
20.0291
20.2114
20.0316
20.1621
20.0113
20.1662
20.0136
20.0608
20.0927
20.0608
20.0908
20.0889
20.1142
20.0886
20.1119
20.1036
20.1036
20.1011
20.1011
20.1121
20.1121
20.1095
20.1095
20.0927
20.0609
20.0909
20.0608
20.1142
20.0889
20.1119
20.0886
20.0291
20.2078
20.0316
20.2114
20.0113
20.162
20.0137
20.1662
20.2023
20.0247
20.2049
20.0268
20.1556
20.0071
20.1586
20.0091
20.0604
20.0954
20.0607
20.0942
20.0888
20.1177
20.089
20.1161
20.1079
20.1079
20.1059
20.1059
20.1166
20.1166
20.1145
20.1145
20.0954
20.0604
20.0942
20.0607
20.1177
20.0888
20.1161
20.089
20.0247
20.2022
20.0268
20.2048
20.0071
20.1556
20.0091
20.1586
20.198
20.0208
20.2
20.0226
20.1507
20.0034
20.153
20.0052
20.0595
20.0971
20.06
20.0964
20.0883
20.12
20.0886
20.119
20.1109
20.1109
20.1095
20.1095
20.1199
20.1199
20.1184
20.1184
20.0971
20.0595
20.0964
20.06
20.12
20.0882
20.119
20.0886
20.0208
20.198
20.0227
20.2
20.0034
20.1507
20.0051
20.153
20.1946
20.0174
20.1962
20.0191
20.1469
20.0001
20.1486
20.0017
20.0583
20.098
20.0589
20.0977
20.0873
20.1214
20.0878
20.1208
20.1129
20.1129
20.112
20.112
20.1223
20.1223
20.1212
20.1212
20.098
20.0583
20.0977
20.0589
20.1214
20.0874
20.1208
20.0878
20.0174
20.1945
20.0191
20.1962
20.0002
20.1468
20.0017
20.1486
20.1918
20.0144
20.1932
20.0158
20.1439
19.9971
20.1454
19.9986
20.0569
20.0982
20.0576
20.0982
20.0861
20.122
20.0867
20.1218
20.1141
20.1141
20.1136
20.1136
20.1237
20.1237
20.1231
20.1231
20.0983
20.057
20.0982
20.0577
20.122
20.0862
20.1218
20.0868
20.0144
20.1917
20.0159
20.1931
19.9973
20.1437
19.9987
20.1452
20.1893
20.0115
20.1906
20.0129
20.1414
19.9943
20.1427
19.9957
20.0553
20.0979
20.0561
20.0981
20.0847
20.122
20.0854
20.1221
20.1145
20.1145
20.1144
20.1144
20.1243
20.1243
20.1241
20.1241
20.0979
20.0554
20.0982
20.0562
20.122
20.0848
20.1221
20.0855
20.0115
20.1892
20.0129
20.1904
19.9945
20.1411
19.9959
20.1423
20.187
20.0088
20.1882
20.0101
20.139
19.9917
20.1402
19.993
20.0536
20.0971
20.0545
20.0976
20.0831
20.1214
20.0839
20.1218
20.1142
20.1142
20.1144
20.1144
20.1242
20.1242
20.1243
20.1243
20.0971
20.0536
20.0976
20.0545
20.1214
20.0832
20.1218
20.084
20.0088
20.1869
20.0101
20.188
19.9918
20.1389
19.9932
20.1399
20.1846
20.0062
20.1858
20.0074
20.1366
19.9893
20.1378
19.9905
20.0517
20.096
20.0527
20.0966
20.0814
20.1204
20.0823
20.121
20.1134
20.1134
20.1139
20.1139
20.1235
20.1235
20.1239
20.1239
20.096
20.0517
20.0966
20.0527
20.1204
20.0813
20.121
20.0823
20.0061
20.1847
20.0074
20.1858
19.9891
20.1368
19.9904
20.1378
20.1823
20.0035
20.1835
20.0048
20.1344
19.9867
20.1355
19.988
20.0497
20.0944
20.0507
20.0952
20.0794
20.1189
20.0804
20.1197
20.1122
20.1122
20.1128
20.1128
20.1223
20.1223
20.123
20.123
20.0944
20.0497
20.0952
20.0507
20.1189
20.0793
20.1197
20.0803
20.0036
20.1823
20.0048
20.1836
19.9866
20.1347
19.9878
20.1358
20.1798
20.001
20.181
20.0023
20.1324
19.9841
20.1334
19.9854
20.0476
20.0926
20.0486
20.0936
20.0771
20.1171
20.0783
20.1181
20.1105
20.1105
20.1114
20.1114
20.1206
20.1206
20.1215
20.1215
20.0926
20.0474
20.0935
20.0486
20.117
20.077
20.118
20.0782
20.0008
20.1802
20.0022
20.1812
19.9839
20.1326
19.9852
20.1337
20.178
19.998
20.179
19.9995
20.1301
19.9813
20.1313
19.9827
20.0451
20.0905
20.0463
20.0916
20.0747
20.1149
20.0759
20.116
20.1085
20.1085
20.1095
20.1095
20.1185
20.1185
20.1196
20.1196
20.0905
20.0452
20.0916
20.0463
20.1148
20.0747
20.116
20.0759
19.9982
20.1777
19.9994
20.1791
19.9815
20.1301
19.9827
20.1314
20.1752
19.9955
20.1766
19.9967
20.1276
19.9788
20.129
19.9801
20.0427
20.0882
20.0439
20.0894
20.0722
20.1123
20.0735
20.1136
20.1062
20.1062
20.1074
20.1074
20.116
20.116
20.1173
20.1173
20.0882
20.0427
20.0894
20.0439
20.1123
20.0721
20.1136
20.0734
19.9955
20.1753
19.9968
20.1765
19.9787
20.1278
19.9801
20.129
20.1728
19.9929
20.174
19.9942
20.1252
19.976
20.1264
19.9774
20.0402
20.0857
20.0415
20.087
20.0694
20.1095
20.0708
20.111
20.1037
20.1037
20.105
20.105
20.1132
20.1132
20.1147
20.1147
20.0858
20.0403
20.087
20.0415
20.1095
20.0695
20.111
20.0708
19.9929
20.1727
19.9942
20.1741
19.9762
20.1252
19.9774
20.1265
20.1701
19.9904
20.1715
19.9916
20.1226
19.9735
20.1239
19.9748
20.0378
20.0832
20.039
20.0845
20.0667
20.1065
20.0681
20.1081
20.1011
20.1011
20.1024
20.1024
20.1102
20.1102
20.1118
20.1118
20.0832
20.0378
20.0845
20.0391
20.1065
20.0666
20.1081
20.0681
19.9903
20.1703
19.9916
20.1715
19.9734
20.1227
19.9748
20.124
20.1679
19.9877
20.169
19.989
20.1199
19.9708
20.1213
19.9721
20.0354
20.0806
20.0366
20.0819
20.0638
20.1033
20.0652
20.1049
20.0983
20.0983
20.0997
20.0997
20.107
20.107
20.1086
20.1086
20.0806
20.0355
20.0819
20.0366
20.1033
20.0639
20.1049
20.0653
19.988
20.1675
19.9891
20.1689
19.9711
20.1198
19.9722
20.1213
20.165
19.9858
20.1665
19.9867
20.1169
19.9687
20.1184
19.9697
20.0332
20.078
20.0343
20.0793
20.061
20.0998
20.0624
20.1016
20.0956
20.0956
20.097
20.097
20.1037
20.1037
20.1053
20.1053
20.078
20.0331
20.0793
20.0343
20.0998
20.0609
20.1016
20.0624
19.9855
20.1655
19.9867
20.1665
19.9683
20.1174
19.9697
20.1186
20.163
19.9836
20.1639
19.9847
20.1146
19.9662
20.1157
19.9674
20.0311
20.0756
20.0321
20.0768
20.0582
20.097
20.0596
20.0984
20.093
20.093
20.0943
20.0943
20.1004
20.1004
20.102
20.102
20.0756
20.0311
20.0768
20.0321
20.0971
20.0582
20.0984
20.0595
19.9837
20.1628
19.9845
20.1642
19.9662
20.1146
19.9672
20.116
20.1609
19.982
20.162
19.9827
20.1122
19.9642
20.1133
19.9651
20.0293
20.0735
20.0301
20.0744
20.0555
20.0942
20.0568
20.0957
20.0905
20.0905
20.0917
20.0917
20.0971
20.0971
20.0987
20.0987
20.0735
20.0292
20.0744
20.0301
20.0942
20.0554
20.0957
20.0568
19.9818
20.1613
19.9828
20.1619
19.9639
20.1126
19.9651
20.1135
20.1596
19.9805
20.1602
19.9812
20.1107
19.962
20.1114
19.963
20.0278
20.0717
20.0285
20.0726
20.0527
20.0913
20.0541
20.0927
20.0883
20.0883
20.0894
20.0894
20.094
20.0941
20.0956
20.0956
20.0717
20.0278
20.0726
20.0284
20.0914
20.0528
20.0927
20.0541
19.9806
20.1595
19.9811
20.1604
19.9622
20.1104
19.9629
20.1116
20.1582
19.98
20.1589
19.9801
20.1087
19.9609
20.1097
19.9614
20.0269
20.0703
20.0273
20.0709
20.0502
20.0888
20.0515
20.09
20.0865
20.0865
20.0874
20.0874
20.0913
20.0913
20.0926
20.0926
20.0703
20.0268
20.071
20.0273
20.0888
20.0501
20.09
20.0515
19.9798
20.1585
19.9802
20.1589
19.9608
20.109
19.9614
20.1097
20.158
19.9795
20.1579
19.9797
20.1078
19.96
20.1081
19.9604
20.0268
20.0694
20.0268
20.0698
20.0478
20.0866
20.0487
20.0877
20.0851
20.0852
20.0858
20.0858
20.0889
20.0889
20.09
20.09
20.0694
20.0269
20.0698
20.0267
20.0867
20.0479
20.0877
20.0487
19.9797
20.1577
19.9797
20.1581
19.9601
20.1076
19.9603
20.1083
20.1576
19.9801
20.1578
19.9797
20.1071
19.9599
20.1075
19.9598
20.0267
20.0689
20.0266
20.0691
20.0485
20.0851
20.0482
20.0858
20.0843
20.0843
20.0846
20.0846
20.0869
20.0869
20.0878
20.0878
20.0689
20.0267
20.0691
20.0266
20.0851
20.0486
20.0858
20.0483
19.98
20.1579
19.9797
20.1577
19.96
20.1069
19.96
20.1072
20.1583
19.9813
20.1578
19.9805
20.1071
19.9605
20.107
19.96
20.0276
20.0691
20.027
20.0689
20.049
20.0841
20.0488
20.0845
20.084
20.084
20.0841
20.0841
20.0854
20.0854
20.0861
20.0861
20.0691
20.0276
20.0689
20.027
20.0841
20.0491
20.0845
20.0488
19.9814
20.1582
19.9805
20.158
19.9605
20.1071
19.9601
20.107
20.1596
19.9835
20.1589
19.9823
20.1076
19.9621
20.1073
19.9612
20.0293
20.07
20.0283
20.0694
20.05
20.0837
20.0494
20.0838
20.0845
20.0845
20.0841
20.0842
20.0847
20.0847
20.085
20.085
20.07
20.0293
20.0694
20.0284
20.0837
20.05
20.0838
20.0495
19.9835
20.1596
19.9823
20.1588
19.9621
20.1076
19.9612
20.1073
20.1615
19.9868
20.1605
19.985
20.1091
19.9642
20.1082
19.963
20.0318
20.0716
20.0304
20.0707
20.0515
20.084
20.0507
20.0838
20.0856
20.0856
20.085
20.085
20.0848
20.0848
20.0846
20.0846
20.0716
20.0318
20.0707
20.0304
20.0841
20.0515
20.0838
20.0507
19.9868
20.1615
19.985
20.1605
19.9642
20.1091
19.963
20.1082
20.1642
19.9916
20.1628
19.989
20.1114
19.9668
20.1101
19.9654
20.0351
20.074
20.0333
20.0727
20.0538
20.0852
20.0526
20.0845
20.0876
20.0876
20.0865
20.0865
20.0856
20.0856
20.0851
20.0851
20.074
20.0351
20.0727
20.0333
20.0852
20.0538
20.0845
20.0526
19.9916
20.1642
19.989
20.1628
19.9668
20.1113
19.9654
20.1101
20.1675
19.9949
20.1658
19.9931
20.1145
19.9719
20.1129
19.9692
20.0389
20.0771
20.0369
20.0755
20.0568
20.0871
20.0552
20.086
20.0903
20.0903
20.0889
20.0889
20.0874
20.0874
20.0864
20.0864
20.0771
20.0389
20.0755
20.0369
20.0871
20.0568
20.086
20.0552
19.9949
20.1675
19.9931
20.1658
19.9719
20.1145
19.9692
20.1129
20.1715
19.9996
20.1695
19.9971
20.1186
19.9773
20.1165
19.9745
20.0436
20.081
20.0412
20.079
20.0605
20.0897
20.0586
20.0883
20.0938
20.0938
20.092
20.092
20.09
20.09
20.0886
20.0886
20.081
20.0436
20.079
20.0412
20.0897
20.0605
20.0883
20.0586
19.9996
20.1715
19.9971
20.1694
19.9773
20.1186
19.9745
20.1165
20.1759
20.0052
20.1737
20.0023
20.1235
19.9834
20.121
19.9803
20.0488
20.0854
20.0461
20.0831
20.0649
20.0932
20.0626
20.0914
20.098
20.098
20.0958
20.0958
20.0935
20.0935
20.0917
20.0917
20.0854
20.0488
20.0831
20.0461
20.0932
20.0649
20.0914
20.0626
20.0052
20.1759
20.0023
20.1736
19.9834
20.1235
19.9803
20.1209
20.1804
20.0115
20.1782
20.0083
20.1291
19.9903
20.1262
19.9867
20.0545
20.0904
20.0516
20.0879
20.0698
20.0973
20.0673
20.0952
20.1028
20.1028
20.1003
20.1003
20.0979
20.0979
20.0956
20.0956
20.0904
20.0545
20.0879
20.0516
20.0973
20.0698
20.0952
20.0673
20.0115
20.1804
20.0083
20.1782
19.9903
20.129
19.9867
20.1262
20.1844
20.0186
20.1826
20.0149
20.135
19.9979
20.132
19.994
20.0608
20.0958
20.0576
20.0931
20.0752
20.102
20.0725
20.0996
20.1082
20.1082
20.1054
20.1054
20.103
20.103
20.1004
20.1004
20.0958
20.0608
20.0931
20.0576
20.102
20.0752
20.0996
20.0725
20.0186
20.1844
20.0149
20.1826
19.9979
20.135
19.994
20.132
20.1866
20.027
20.1859
20.0225
20.1404
20.0069
20.1378
20.0022
20.0674
20.1015
20.0641
20.0987
20.081
20.1072
20.0781
20.1045
20.114
20.114
20.111
20.111
20.1089
20.1089
20.1058
20.1058
20.1015
20.0674
20.0987
20.0641
20.1072
20.081
20.1045
20.0781
20.027
20.1866
20.0225
20.1859
20.0069
20.1404
20.0022
20.1378
20.1803
20.042
20.1855
20.0329
20.1405
20.02
20.1419
20.0125
20.0746
20.1074
20.0709
20.1044
20.087
20.1128
20.0839
20.1099
20.1205
20.1205
20.1172
20.1172
20.1155
20.1155
20.1121
20.1121
20.1074
20.0746
20.1044
20.0709
20.1128
20.087
20.1099
20.0839
20.042
20.1803
20.0329
20.1855
20.02
20.1405
20.0125
20.1419
20.1975
20.0361
20.1742
20.0525
20.1563
20.0175
20.1378
20.0286
20.0769
20.1142
20.0779
20.1106
20.0912
20.1198
20.0902
20.1161
20.1276
20.1276
20.124
20.124
20.1229
20.1229
20.1191
20.1191
20.1142
20.0769
20.1106
20.0779
20.1198
20.0912
20.1161
20.0902
20.0361
20.1975
20.0525
20.1742
20.0175
20.1563
20.0286
20.1378
20.4311
19.9857
20.3272
20.0071
20.4261
19.9691
20.3252
19.9958
19.9801
20.0417
20.022
20.0684
19.9843
20.0508
20.0245
20.0739
20.0796
20.0796
20.094
20.094
20.0873
20.0874
20.0984
20.0984
20.0417
19.9801
20.0684
20.022
20.0508
19.9843
20.0739
20.0245
19.9857
20.431
20.0071
20.3272
19.9691
20.426
19.9958
20.3251
20.2752
20.0943
20.3236
20.0687
20.282
20.0703
20.3274
20.0457
20.0318
20.0458
20.0135
20.044
20.0293
20.0538
20.0137
20.0523
20.0643
20.0643
20.0709
20.0709
20.0748
20.0748
20.0802
20.0802
20.0458
20.0319
20.044
20.0135
20.0538
20.0293
20.0523
20.0137
20.0943
20.2751
20.0687
20.3235
20.0703
20.2819
20.0456
20.3273
20.2401
20.0994
20.2537
20.0998
20.2473
20.0753
20.2611
20.0758
20.0495
20.0537
20.0431
20.0496
20.046
20.0619
20.0395
20.0578
20.0637
20.0637
20.0627
20.0627
20.075
20.075
20.0738
20.0738
20.0537
20.0495
20.0497
20.0431
20.0619
20.046
20.0578
20.0395
20.0994
20.2401
20.0998
20.2537
20.0753
20.2473
20.0758
20.261
20.2233
20.0945
20.2305
20.0972
20.2299
20.0702
20.2374
20.0729
20.0548
20.0603
20.053
20.0572
20.052
20.0688
20.0499
20.0656
20.0687
20.0687
20.066
20.066
20.0802
20.0802
20.0773
20.0774
20.0603
20.0548
20.0572
20.053
20.0688
20.0521
20.0656
20.0499
20.0945
20.2232
20.0972
20.2304
20.0702
20.2299
20.0729
20.2373
20.2132
20.089
20.2177
20.0916
20.2193
20.0646
20.2241
20.0674
20.056
20.0648
20.0557
20.0628
20.0537
20.0737
20.0532
20.0714
20.0742
20.0742
20.0715
20.0715
20.086
20.086
20.0832
20.0832
20.0649
20.056
20.0628
20.0557
20.0737
20.0537
20.0714
20.0532
20.089
20.2132
20.0916
20.2177
20.0646
20.2193
20.0674
20.224
20.2063
20.0841
20.2095
20.0864
20.2122
20.0597
20.2155
20.062
20.0559
20.0678
20.056
20.0665
20.0537
20.077
20.0538
20.0755
20.0788
20.0788
20.0767
20.0767
20.091
20.091
20.0886
20.0887
20.0678
20.0559
20.0665
20.056
20.077
20.0537
20.0755
20.0538
20.0841
20.2063
20.0864
20.2094
20.0597
20.2122
20.062
20.2154
20.2013
20.08
20.2036
20.082
20.207
20.0554
20.2094
20.0574
20.0552
20.0695
20.0556
20.0688
20.053
20.0792
20.0534
20.0782
20.0822
20.0822
20.0807
20.0807
20.0948
20.0948
20.093
20.093
20.0696
20.0552
20.0688
20.0556
20.0792
20.053
20.0782
20.0534
20.08
20.2013
20.082
20.2036
20.0554
20.207
20.0574
20.2094
20.1974
20.0765
20.1992
20.0782
20.203
20.0518
20.2049
20.0535
20.0542
20.0705
20.0548
20.0701
20.052
20.0805
20.0525
20.0799
20.0845
20.0845
20.0835
20.0835
20.0974
20.0974
20.0962
20.0962
20.0705
20.0542
20.0701
20.0548
20.0805
20.052
20.0799
20.0525
20.0765
20.1974
20.0782
20.1992
20.0518
20.2029
20.0535
20.2048
20.1942
20.0734
20.1957
20.0749
20.1997
20.0485
20.2013
20.0501
20.053
20.0708
20.0536
20.0708
20.0507
20.081
20.0513
20.0808
20.0859
20.0859
20.0853
20.0853
20.0991
20.0991
20.0984
20.0984
20.0708
20.053
20.0708
20.0536
20.0811
20.0507
20.0809
20.0514
20.0734
20.1942
20.0749
20.1957
20.0485
20.1997
20.0501
20.2013
20.1915
20.0706
20.1928
20.072
20.197
20.0456
20.1983
20.047
20.0515
20.0706
20.0523
20.0708
20.0492
20.081
20.0499
20.0811
20.0865
20.0865
20.0863
20.0863
20.1
20.1
20.0997
20.0997
20.0706
20.0515
20.0708
20.0523
20.081
20.0492
20.0811
20.05
20.0706
20.1915
20.0719
20.1928
20.0456
20.1969
20.047
20.1983
20.1891
20.0679
20.1903
20.0692
20.1946
20.0428
20.1958
20.0442
20.0499
20.07
20.0507
20.0703
20.0475
20.0805
20.0484
20.0808
20.0865
20.0865
20.0866
20.0866
20.1002
20.1002
20.1002
20.1002
20.07
20.0499
20.0704
20.0508
20.0805
20.0476
20.0808
20.0484
20.0679
20.189
20.0692
20.1902
20.0428
20.1945
20.0442
20.1957
20.1868
20.0653
20.1879
20.0666
20.1922
20.0402
20.1934
20.0415
20.0481
20.0689
20.049
20.0695
20.0457
20.0796
20.0466
20.0801
20.086
20.086
20.0863
20.0863
20.0998
20.0998
20.1
20.1001
20.069
20.0482
20.0695
20.0491
20.0796
20.0457
20.0801
20.0467
20.0653
20.1867
20.0666
20.1879
20.0402
20.1922
20.0415
20.1933
20.1845
20.0628
20.1856
20.064
20.1899
20.0376
20.1911
20.0388
20.0462
20.0676
20.0472
20.0683
20.0438
20.0783
20.0448
20.079
20.0851
20.0851
20.0856
20.0856
20.0989
20.0989
20.0994
20.0994
20.0676
20.0462
20.0683
20.0472
20.0783
20.0438
20.079
20.0448
20.0628
20.1845
20.064
20.1856
20.0376
20.1899
20.0388
20.1911
20.1822
20.0603
20.1834
20.0615
20.1876
20.035
20.1888
20.0362
20.0442
20.066
20.0452
20.0669
20.0418
20.0768
20.0428
20.0776
20.0838
20.0838
20.0845
20.0845
20.0976
20.0976
20.0983
20.0983
20.066
20.0442
20.0669
20.0452
20.0767
20.0417
20.0776
20.0428
20.0603
20.1823
20.0615
20.1834
20.035
20.1876
20.0363
20.1888
20.18
20.0578
20.1811
20.0591
20.1853
20.0324
20.1864
20.0337
20.0421
20.0643
20.0431
20.0652
20.0396
20.075
20.0407
20.0759
20.0822
20.0822
20.083
20.083
20.096
20.096
20.0969
20.0969
20.0643
20.0421
20.0652
20.0431
20.075
20.0396
20.0759
20.0407
20.0579
20.1799
20.0591
20.1811
20.0325
20.1852
20.0338
20.1864
20.1776
20.0554
20.1788
20.0566
20.1829