/*--------------------------------*- C++ -*----------------------------------*\
  =========                 |
  \\      /  F ield         | OpenFOAM: The Open Source CFD Toolbox
   \\    /   O peration     | Website:  https://openfoam.org
    \\  /    A nd           | Version:  9
     \\/     M anipulation  |
\*---------------------------------------------------------------------------*/
FoamFile
{
    format      ascii;
    class       surfaceScalarField;
    location    "4";
    object      phi;
}
// * * * * * * * * * * * * * * * * * * * * * * * * * * * * * * * * * * * * * //

dimensions      [0 3 -1 0 0 0 0];

internalField   nonuniform List<scalar> 
104044
(
8.41063e-06
-0.000142252
-2.37756e-05
0.000130198
2.74191e-05
-9.21434e-05
2.2183e-05
-2.88575e-06
0.00010188
-2.06235e-05
7.86617e-06
-3.61608e-05
3.23918e-05
2.61818e-05
-2.78602e-06
-2.08014e-05
-7.34878e-06
-0.000172115
0.000155688
-6.98891e-05
2.88993e-06
8.18333e-05
-5.26094e-06
2.07696e-06
-5.34081e-07
-9.83061e-05
-2.15837e-06
9.91804e-05
-1.06759e-06
-0.000101393
-2.27362e-06
-6.54692e-08
0.000100789
2.40941e-06
-5.57748e-07
-2.40921e-06
-1.167e-06
-4.40698e-06
-7.27222e-08
2.97562e-06
5.40165e-07
-8.29474e-05
8.31388e-05
-9.46804e-05
5.94452e-08
9.28875e-05
2.66854e-07
9.78347e-09
1.08031e-11
-0.000102721
-1.68743e-06
0.000102027
2.31639e-06
-0.000102721
-1.68743e-06
6.54942e-08
0.000102027
2.31641e-06
1.41354e-11
-4.36315e-06
3.40464e-06
-4.3632e-06
7.27407e-08
3.40472e-06
1.35478e-11
-9.86984e-05
9.70704e-05
-9.86985e-05
-5.93752e-08
9.70704e-05
4.39272e-12
-9.75115e-09
5.34081e-07
-0.000101393
-2.27375e-06
0.000100788
2.40967e-06
-9.83053e-05
-2.15918e-06
2.88566e-06
9.91792e-05
-1.06629e-06
5.57709e-07
-4.40725e-06
2.97604e-06
-2.41028e-06
2.78587e-06
-1.16563e-06
-5.39939e-07
-9.46808e-05
9.28876e-05
-8.29482e-05
-2.88932e-06
8.31384e-05
-2.66682e-07
-2.07643e-06
-8.4092e-06
-9.21406e-05
2.21779e-05
0.000101877
-2.06199e-05
-0.000142252
-2.37714e-05
0.000130199
2.74149e-05
-7.86445e-06
2.61769e-05
-2.07983e-05
-3.61539e-05
3.23865e-05
7.34599e-06
-6.98875e-05
8.18301e-05
-0.000172114
0.000155689
5.2588e-06
1.60289e-06
-0.000123599
-2.36706e-05
0.000119731
2.59357e-05
-0.000105558
2.3963e-05
-1.49567e-06
0.000106989
-2.2295e-05
3.8833e-06
-2.34295e-05
2.61455e-05
2.35388e-05
-1.6801e-06
-2.16531e-05
-1.36942e-05
-0.000143131
0.000133155
-9.06823e-05
4.25357e-06
9.66975e-05
-1.08724e-05
3.81751e-06
2.98496e-07
-0.000100441
2.24287e-07
0.00010171
-3.28666e-06
-0.000100703
-9.03587e-07
1.94651e-07
0.000101
7.10763e-07
-2.8605e-08
-5.27162e-07
-2.38538e-06
-1.4208e-06
6.40569e-08
1.41343e-06
1.28533e-06
-8.54947e-05
8.86872e-05
-9.22282e-05
2.87985e-07
9.2322e-05
9.34481e-07
1.7302e-07
3.10545e-11
-0.00010162
-9.04498e-07
0.000101479
1.23984e-06
-0.000101619
-9.04491e-07
-1.94534e-07
0.000101479
1.23981e-06
2.15276e-11
-1.13944e-06
1.61052e-06
-1.13943e-06
-6.3959e-08
1.6105e-06
4.15758e-11
-9.6104e-05
9.54874e-05
-9.61039e-05
-2.87843e-07
9.54873e-05
2.43976e-11
-1.72903e-07
-2.98344e-07
-0.000100703
-9.03632e-07
0.000100999
7.10892e-07
-0.00010044
2.23814e-07
1.49545e-06
0.000101708
-3.28573e-06
2.87109e-08
-1.42086e-06
1.41362e-06
-5.27888e-07
1.67997e-06
-2.38425e-06
-1.28496e-06
-9.2228e-05
9.23215e-05
-8.54933e-05
-4.25316e-06
8.86854e-05
-9.34172e-07
-3.81699e-06
-1.6026e-06
-0.000105555
2.39594e-05
0.000106986
-2.22924e-05
-0.0001236
-2.36669e-05
0.000119732
2.59324e-05
-3.88276e-06
2.35347e-05
-2.165e-05
-2.34254e-05
2.61418e-05
1.36908e-05
-9.06787e-05
9.66941e-05
-0.000143133
0.000133156
1.08691e-05
-5.50048e-07
-0.000117018
-2.16917e-05
0.000115034
2.42261e-05
-0.000107657
2.28814e-05
-1.85751e-06
0.000107981
-2.18984e-05
2.93893e-07
-2.24003e-05
2.48192e-05
2.31698e-05
-1.62761e-06
-2.19163e-05
-1.65724e-05
-0.000126051
0.000120931
-0.000100311
4.17305e-06
0.000102447
-1.52961e-05
4.2605e-06
6.65878e-07
-0.000102806
1.60274e-07
0.000103702
-3.58043e-06
-0.00010148
-4.19418e-07
4.82797e-07
0.000102066
1.59209e-08
5.07941e-07
2.83841e-07
-3.51538e-06
-5.77089e-07
3.37448e-07
2.67894e-07
1.76176e-06
-9.16934e-05
9.4265e-05
-9.28978e-05
4.7975e-07
9.37604e-05
1.53817e-06
3.85211e-07
5.33328e-11
-0.000101562
-4.74828e-07
0.000101826
6.94094e-07
-0.000101562
-4.74822e-07
-4.82623e-07
0.000101826
6.94042e-07
4.24207e-11
-6.75476e-07
9.29396e-07
-6.75474e-07
-3.37294e-07
9.29358e-07
5.34424e-11
-9.51971e-05
9.5202e-05
-9.51969e-05
-4.79577e-07
9.52017e-05
4.36929e-11
-3.8506e-07
-6.65763e-07
-0.000101479
-4.19349e-07
0.000102065
1.59402e-08
-0.000102804
1.60026e-07
1.85714e-06
0.000103701
-3.57976e-06
-5.07804e-07
-5.7708e-07
2.6798e-07
2.83484e-07
1.62729e-06
-3.51461e-06
-1.76136e-06
-9.28971e-05
9.37596e-05
-9.16913e-05
-4.17286e-06
9.42628e-05
-1.53778e-06
-4.26022e-06
5.50236e-07
-0.000107655
2.28784e-05
0.00010798
-2.18962e-05
-0.000117019
-2.16886e-05
0.000115035
2.42233e-05
-2.93681e-07
2.31665e-05
-2.19139e-05
-2.2397e-05
2.48161e-05
1.65691e-05
-0.000100308
0.000102444
-0.000126052
0.000120933
1.52928e-05
-1.48417e-06
-0.000113596
-2.04353e-05
0.000112535
2.29804e-05
-0.00010814
2.2186e-05
-2.26961e-06
0.000108222
-2.14825e-05
-1.0999e-06
-2.075e-05
2.3288e-05
2.22384e-05
-2.05003e-06
-2.14474e-05
-1.77277e-05
-0.000117288
0.000114581
-0.000103638
3.78103e-06
0.000104315
-1.71068e-05
3.94015e-06
7.29938e-07
-0.000104428
-1.42074e-07
0.000105039
-3.46828e-06
-0.000102669
-3.88919e-07
6.46921e-07
0.000103271
-1.29296e-07
7.21105e-07
-4.52425e-10
-3.49663e-06
-3.71267e-07
5.76734e-07
-8.75077e-08
2.01217e-06
-9.63118e-05
9.79386e-05
-9.47333e-05
6.12501e-07
9.5744e-05
1.89288e-06
5.48769e-07
6.64862e-11
-0.00010221
-1.76519e-07
0.000102675
3.58045e-07
-0.00010221
-1.76492e-07
-6.46738e-07
0.000102675
3.5797e-07
5.96583e-11
-3.04468e-07
4.96821e-07
-3.04453e-07
-5.76557e-07
4.96759e-07
5.96282e-11
-9.54462e-05
9.58821e-05
-9.54459e-05
-6.12312e-07
9.58818e-05
5.7127e-11
-5.48589e-07
-7.29923e-07
-0.000102669
-3.88746e-07
0.00010327
-1.29338e-07
-0.000104427
-1.42347e-07
2.26922e-06
0.000105038
-3.46774e-06
-7.21039e-07
-3.71141e-07
-8.75333e-08
-6.95717e-10
2.04964e-06
-3.49604e-06
-2.01175e-06
-9.47323e-05
9.5743e-05
-9.63097e-05
-3.78096e-06
9.79365e-05
-1.89247e-06
-3.94004e-06
1.48436e-06
-0.000108139
2.21834e-05
0.000108221
-2.14806e-05
-0.000113597
-2.04326e-05
0.000112536
2.29779e-05
1.10008e-06
2.22356e-05
-2.14453e-05
-2.07471e-05
2.32853e-05
1.77248e-05
-0.000103636
0.000104313
-0.000117289
0.000114582
1.71038e-05
-1.90675e-06
-0.000111756
-1.96444e-05
0.00011119
2.21177e-05
-0.000108284
2.17703e-05
-2.57246e-06
0.000108346
-2.11666e-05
-1.71862e-06
-1.97899e-05
2.22872e-05
2.17273e-05
-2.41295e-06
-2.10948e-05
-1.81339e-05
-0.000112603
0.000111092
-0.000104673
3.42598e-06
0.000104883
-1.78119e-05
3.55804e-06
6.53829e-07
-0.000105567
-3.37953e-07
0.000106028
-3.34855e-06
-0.000103847
-4.62582e-07
7.01919e-07
0.000104414
-1.52731e-07
6.84498e-07
-2.55288e-07
-3.37045e-06
-4.22639e-07
6.76384e-07
-1.4575e-07
2.08893e-06
-9.91939e-05
0.000100193
-9.6721e-05
6.82007e-07
9.76653e-05
2.04746e-06
6.47834e-07
1.91236e-10
-0.000103183
-3.28653e-08
0.000103726
1.91449e-07
-0.000103182
-3.24405e-08
-7.01826e-07
0.000103725
1.91338e-07
6.96436e-11
-8.78227e-08
2.57006e-07
-8.78009e-08
-6.76211e-07
2.56926e-07
-2.98723e-11
-9.64421e-05
9.70912e-05
-9.64417e-05
-6.81734e-07
9.7091e-05
4.81925e-11
-6.47647e-07
-6.53857e-07
-0.000103846
-4.6241e-07
0.000104414
-1.52818e-07
-0.000105566
-3.38205e-07
2.57208e-06
0.000106027
-3.34805e-06
-6.84492e-07
-4.22451e-07
-1.45811e-07
-2.55525e-07
2.41256e-06
-3.36995e-06
-2.08847e-06
-9.67199e-05
9.76643e-05
-9.9192e-05
-3.42596e-06
0.000100191
-2.04704e-06
-3.558e-06
1.90693e-06
-0.000108283
2.1768e-05
0.000108345
-2.1165e-05
-0.000111757
-1.9642e-05
0.00011119
2.21154e-05
1.71881e-06
2.17249e-05
-2.1093e-05
-1.97873e-05
2.22848e-05
1.81314e-05
-0.000104671
0.000104882
-0.000112604
0.000111093
1.78092e-05
-2.10349e-06
-0.000110784
-1.9056e-05
0.000110513
2.1431e-05
-0.00010843
2.14434e-05
-2.75954e-06
0.000108535
-2.08931e-05
-2.00385e-06
-1.91264e-05
2.15356e-05
2.13748e-05
-2.64939e-06
-2.08131e-05
-1.81945e-05
-0.000109977
0.000109115
-0.000105002
3.14602e-06
0.000105105
-1.80114e-05
3.24467e-06
5.57811e-07
-0.000106441
-4.31367e-07
0.00010683
-3.27416e-06
-0.000104958
-5.14955e-07
6.99209e-07
0.000105488
-1.56884e-07
6.00908e-07
-3.93752e-07
-3.27025e-06
-4.89361e-07
6.98999e-07
-1.5211e-07
2.04636e-06
-0.000100978
0.000101647
-9.8552e-05
6.98975e-07
9.93844e-05
2.06542e-06
6.89444e-07
7.0316e-11
-0.000104274
3.20595e-08
0.000104833
1.08499e-07
-0.000104274
3.21192e-08
-6.99069e-07
0.000104832
1.08431e-07
6.34074e-11
8.4596e-09
1.42175e-07
8.49361e-09
-6.98861e-07
1.42098e-07
7.68187e-11
-9.77891e-05
9.85201e-05
-9.77888e-05
-6.98762e-07
9.85197e-05
3.68261e-11
-6.8927e-07
-5.57839e-07
-0.000104957
-5.148e-07
0.000105488
-1.56935e-07
-0.000106441
-4.3162e-07
2.75915e-06
0.000106829
-3.27369e-06
-6.00938e-07
-4.89182e-07
-1.52174e-07
-3.94006e-07
2.64901e-06
-3.26977e-06
-2.04602e-06
-9.85508e-05
9.93833e-05
-0.000100977
-3.1462e-06
0.000101645
-2.06501e-06
-3.24472e-06
2.10355e-06
-0.000108429
2.14413e-05
0.000108535
-2.08917e-05
-0.000110785
-1.90539e-05
0.000110513
2.1429e-05
2.00401e-06
2.13727e-05
-2.08116e-05
-1.9124e-05
2.15334e-05
1.81915e-05
-0.000105001
0.000105104
-0.000109978
0.000109116
1.80089e-05
-2.19134e-06
-0.000110341
-1.85479e-05
0.000110264
2.08167e-05
-0.000108674
2.11226e-05
-2.86803e-06
0.000108842
-2.06135e-05
-2.13627e-06
-1.8603e-05
2.09107e-05
2.10682e-05
-2.7929e-06
-2.05502e-05
-1.80726e-05
-0.000108488
0.000108013
-0.000105196
2.9275e-06
0.000105319
-1.79755e-05
3.0014e-06
4.6523e-07
-0.000107204
-4.58838e-07
0.000107576
-3.24631e-06
-0.000105999
-5.30466e-07
6.65664e-07
0.000106504
-1.75074e-07
5.05239e-07
-4.49415e-07
-3.22347e-06
-5.22096e-07
6.78e-07
-1.61771e-07
1.93713e-06
-0.000102224
0.000102755
-0.000100151
6.79631e-07
0.000100878
1.97487e-06
6.85858e-07
6.27539e-11
-0.000105383
5.80947e-08
0.000105936
5.46777e-08
-0.000105383
5.81179e-08
-6.65517e-07
0.000105935
5.46419e-08
8.86671e-11
4.82364e-08
7.95117e-08
4.82767e-08
-6.77813e-07
7.94605e-08
1.9537e-11
-9.9254e-05
9.99917e-05
-9.92536e-05
-6.79516e-07
9.99912e-05
1.49761e-10
-6.85462e-07
-4.65158e-07
-0.000105999
-5.304e-07
0.000106504
-1.75037e-07
-0.000107204
-4.59019e-07
2.86788e-06
0.000107576
-3.24588e-06
-5.05186e-07
-5.21955e-07
-1.61787e-07
-4.49705e-07
2.79264e-06
-3.22293e-06
-1.93675e-06
-0.00010015
0.000100877
-0.000102222
-2.92687e-06
0.000102753
-1.97414e-06
-3.00069e-06
2.19131e-06
-0.000108674
2.11224e-05
0.000108841
-2.06135e-05
-0.000110342
-1.8547e-05
0.000110265
2.08156e-05
2.13618e-06
2.10653e-05
-2.05477e-05
-1.85998e-05
2.09072e-05
1.80731e-05
-0.000105196
0.000105318
-0.000108489
0.000108015
1.79728e-05
-2.22367e-06
-0.000110254
-1.80723e-05
0.000110317
2.02337e-05
-0.000109044
2.07974e-05
-2.92391e-06
0.000109277
-2.033e-05
-2.19083e-06
-1.81153e-05
2.03157e-05
2.07437e-05
-2.8711e-06
-2.02661e-05
-1.78584e-05
-0.000107695
0.000107481
-0.000105456
2.75525e-06
0.00010564
-1.77979e-05
2.80863e-06
3.87214e-07
-0.000107951
-4.47212e-07
0.000108335
-3.24753e-06
-0.000106999
-5.19614e-07
6.21848e-07
0.000107496
-2.1217e-07
4.20163e-07
-4.54521e-07
-3.21158e-06
-5.22885e-07
6.3754e-07
-1.89194e-07
1.82723e-06
-0.000103247
0.000103727
-0.000101561
6.45095e-07
0.000102224
1.86283e-06
6.56859e-07
-2.70841e-11
-0.00010648
7.32023e-08
0.00010703
-1.13485e-09
-0.00010648
7.32487e-08
-6.21911e-07
0.00010703
-1.19818e-09
3.10086e-11
6.45065e-08
2.85848e-08
6.45282e-08
-6.37463e-07
2.85486e-08
-1.05277e-10
-0.000100713
0.000101431
-0.000100713
-6.45391e-07
0.000101431
1.6489e-11
-6.56799e-07
-3.87333e-07
-0.000106998
-5.19529e-07
0.000107496
-2.12267e-07
-0.00010795
-4.46783e-07
2.92357e-06
0.000108334
-3.24784e-06
-4.20111e-07
-5.22828e-07
-1.89194e-07
-4.54393e-07
2.87103e-06
-3.21144e-06
-1.82802e-06
-0.00010156
0.000102223
-0.000103244
-2.75667e-06
0.000103726
-1.86262e-06
-2.80769e-06
2.2241e-06
-0.000109044
2.08e-05
0.000109277
-2.03335e-05
-0.000110255
-1.80763e-05
0.000110318
2.02376e-05
2.19108e-06
2.07447e-05
-2.02671e-05
-1.81152e-05
2.0316e-05
1.78579e-05
-0.000105454
0.000105639
-0.000107701
0.000107483
1.78016e-05
-2.22533e-06
-0.00011043
-1.76216e-05
0.000110603
1.96748e-05
-0.000109545
2.04686e-05
-2.94255e-06
0.000109842
-2.00481e-05
-2.20414e-06
-1.76447e-05
1.9735e-05
2.04029e-05
-2.90475e-06
-1.99704e-05
-1.75916e-05
-0.000107371
0.000107341
-0.000105851
2.61814e-06
0.00010611
-1.75347e-05
2.65681e-06
3.24699e-07
-0.00010873
-4.1103e-07
0.00010914
-3.26631e-06
-0.00010799
-4.9103e-07
5.80003e-07
0.000108493
-2.66949e-07
3.5079e-07
-4.30927e-07
-3.22021e-06
-5.02517e-07
5.9416e-07
-2.34803e-07
1.73027e-06
-0.000104195
0.000104671
-0.00010286
6.07974e-07
0.000103492
1.75877e-06
6.19803e-07
-6.56443e-11
-0.000107572
8.96721e-08
0.000108121
-5.89258e-08
-0.000107571
8.98258e-08
-5.80194e-07
0.000108121
-5.90374e-08
-5.67621e-11
7.93749e-08
-2.70988e-08
7.95264e-08
-5.94242e-07
-2.72386e-08
1.60846e-10
-0.000102131
0.000102828
-0.00010213
-6.0757e-07
0.000102828
-1.54823e-10
-6.19991e-07
-3.25036e-07
-0.000107989
-4.90666e-07
0.000108492
-2.67205e-07
-0.000108729
-4.10772e-07
2.94202e-06
0.000109139
-3.26636e-06
-3.50777e-07
-5.02037e-07
-2.35191e-07
-4.29237e-07
2.9048e-06
-3.22128e-06
-1.72985e-06
-0.00010286
0.000103491
-0.000104193
-2.61819e-06
0.000104671
-1.75865e-06
-2.65499e-06
2.2261e-06
-0.000109544
2.04598e-05
0.00010984
-2.00406e-05
-0.000110431
-1.76138e-05
0.000110602
1.96682e-05
2.20497e-06
2.04054e-05
-1.99725e-05
-1.76456e-05
1.9738e-05
1.75823e-05
-0.000105846
0.000106105
-0.000107381
0.00010735
1.75442e-05
-2.2081e-06
-0.000110812
-1.71832e-05
0.000111075
1.91283e-05
-0.00011017
2.01267e-05
-2.93391e-06
0.000110527
-1.97581e-05
-2.19623e-06
-1.72131e-05
1.92001e-05
2.00842e-05
-2.90967e-06
-1.96988e-05
-1.72839e-05
-0.000107402
0.000107503
-0.000106388
2.5051e-06
0.000106726
-1.72742e-05
2.53136e-06
2.756e-07
-0.000109565
-3.59394e-07
0.000110009
-3.29392e-06
-0.000108998
-4.50819e-07
5.42329e-07
0.000109516
-3.3409e-07
2.95587e-07
-3.84369e-07
-3.24611e-06
-4.67466e-07
5.545e-07
-2.9622e-07
1.64777e-06
-0.000105148
0.000105646
-0.00010411
5.73136e-07
0.000104734
1.66995e-06
5.84024e-07
-2.51583e-11
-0.000108668
1.14348e-07
0.000109226
-1.30132e-07
-0.000108668
1.14523e-07
-5.42495e-07
0.000109226
-1.30235e-07
-1.26691e-10
9.9899e-08
-9.24457e-08
9.99672e-08
-5.54899e-07
-9.24815e-08
2.95655e-10
-0.000103512
0.000104199
-0.000103512
-5.7242e-07
0.000104199
5.88736e-11
-5.8405e-07
-2.76079e-07
-0.000108997
-4.50438e-07
0.000109516
-3.34237e-07
-0.000109565
-3.60233e-07
2.93344e-06
0.000110009
-3.29292e-06
-2.96386e-07
-4.67543e-07
-2.96107e-07
-3.86621e-07
2.90869e-06
-3.2444e-06
-1.64675e-06
-0.00010411
0.000104734
-0.000105149
-2.50432e-06
0.000105646
-1.67067e-06
-2.53549e-06
2.20906e-06
-0.000110169
2.01121e-05
0.000110526
-1.97442e-05
-0.000110814
-1.71655e-05
0.000111075
1.91135e-05
2.19687e-06
2.00679e-05
-1.96851e-05
-1.72005e-05
1.9186e-05
1.7275e-05
-0.000106389
0.000106722
-0.000107397
0.000107506
1.72478e-05
-2.18116e-06
-0.000111366
-1.6769e-05
0.000111702
1.86145e-05
-0.000110912
1.97976e-05
-2.90766e-06
0.000111323
-1.9482e-05
-2.17423e-06
-1.67947e-05
1.86776e-05
1.97542e-05
-2.89193e-06
-1.94214e-05
-1.69825e-05
-0.000107678
0.000107891
-0.000107079
2.41066e-06
0.000107484
-1.69692e-05
2.43186e-06
2.37846e-07
-0.00011047
-2.9775e-07
0.000110949
-3.3269e-06
-0.00011004
-4.03927e-07
5.10584e-07
0.000110579
-4.08454e-07
2.53219e-07
-3.28718e-07
-3.27685e-06
-4.24145e-07
5.20418e-07
-3.66901e-07
1.58025e-06
-0.000106152
0.000106685
-0.000105355
5.42959e-07
0.000105988
1.59719e-06
5.52371e-07
9.41665e-11
-0.000109786
1.45731e-07
0.000110359
-2.08114e-07
-0.000109786
1.45977e-07
-5.10477e-07
0.000110358
-2.08263e-07
1.19579e-10
1.27952e-07
-1.66946e-07
1.28211e-07
-5.2029e-07
-1.67093e-07
4.17796e-10
-0.000104879
0.000105567
-0.000104879
-5.41737e-07
0.000105567
6.62029e-10
-5.50707e-07
-2.38221e-07
-0.000110039
-4.03357e-07
0.000110579
-4.08562e-07
-0.000110469
-3.0067e-07
2.90717e-06
0.000110949
-3.32424e-06
-2.53521e-07
-4.23467e-07
-3.67149e-07
-3.29791e-07
2.89132e-06
-3.27558e-06
-1.5778e-06
-0.000105355
0.000105987
-0.000106152
-2.40969e-06
0.000106683
-1.59467e-06
-2.43026e-06
2.18117e-06
-0.000110911
1.9771e-05
0.000111322
-1.94562e-05
-0.000111365
-1.67419e-05
0.000111701
1.8587e-05
2.17442e-06
1.9733e-05
-1.94013e-05
-1.67725e-05
1.86566e-05
1.69564e-05
-0.000107076
0.000107481
-0.000107683
0.000107898
1.69492e-05
-2.14439e-06
-0.00011206
-1.63383e-05
0.000112457
1.80856e-05
-0.000111758
1.94374e-05
-2.86743e-06
0.000112214
-1.91709e-05
-2.14227e-06
-1.63798e-05
1.8164e-05
1.94159e-05
-2.85911e-06
-1.9134e-05
-1.66547e-05
-0.000108168
0.000108484
-0.000107902
2.32079e-06
0.000108364
-1.66566e-05
2.34066e-06
2.08206e-07
-0.000111444
-2.35617e-07
0.000111956
-3.35256e-06
-0.000111125
-3.54126e-07
4.83223e-07
0.000111687
-4.82975e-07
2.20029e-07
-2.66549e-07
-3.30764e-06
-3.75768e-07
4.91249e-07
-4.41579e-07
1.51846e-06
-0.000107226
0.000107793
-0.000106622
5.14989e-07
0.000107271
1.53311e-06
5.23264e-07
-1.88488e-10
-0.000110934
1.80498e-07
0.000111524
-2.86703e-07
-0.000110934
1.80529e-07
-4.83636e-07
0.000111524
-2.86778e-07
-4.01848e-11
1.61203e-07
-2.45318e-07
1.61395e-07
-4.91375e-07
-2.45462e-07
-4.90163e-10
-0.000106252
0.000106948
-0.000106251
-5.16038e-07
0.000106948
-5.68939e-11
-5.23087e-07
-2.08866e-07
-0.000111125
-3.54111e-07
0.000111688
-4.83055e-07
-0.000111444
-2.37472e-07
2.86677e-06
0.000111957
-3.35143e-06
-2.20569e-07
-3.75326e-07
-4.41701e-07
-2.69537e-07
2.85846e-06
-3.30515e-06
-1.51993e-06
-0.000106621
0.000107271
-0.000107224
-2.32663e-06
0.000107793
-1.53205e-06
-2.34252e-06
2.14514e-06
-0.000111758
1.94249e-05
0.000112217
-1.9162e-05
-0.000112061
-1.63298e-05
0.000112459
1.8077e-05
2.14243e-06
1.93914e-05
-1.91115e-05
-1.63579e-05
1.81407e-05
1.66286e-05
-0.000107903
0.000108373
-0.000108166
0.000108465
1.66264e-05
-2.1048e-06
-0.00011287
-1.59281e-05
0.000113318
1.75846e-05
-0.000112691
1.90731e-05
-2.81859e-06
0.000113188
-1.88569e-05
-2.10328e-06
-1.59589e-05
1.76489e-05
1.9053e-05
-2.81346e-06
-1.88191e-05
-1.6293e-05
-0.000108841
0.000109206
-0.000108842
2.25165e-06
0.00010937
-1.63151e-05
2.2602e-06
1.86281e-07
-0.000112483
-1.76886e-07
0.000113025
-3.36997e-06
-0.000112255
-3.06371e-07
4.61027e-07
0.000112838
-5.51308e-07
1.94558e-07
-2.05039e-07
-3.32916e-06
-3.26457e-07
4.66572e-07
-5.13315e-07
1.46832e-06
-0.000108371
0.000108977
-0.000107924
4.92482e-07
0.000108593
1.477e-06
4.98078e-07
-1.62285e-10
-0.000112115
2.14829e-07
0.000112721
-3.59299e-07
-0.000112115
2.14528e-07
-4.61271e-07
0.000112721
-3.59128e-07
-1.95745e-10
1.95962e-07
-3.21043e-07
1.95797e-07
-4.66951e-07
-3.20974e-07
-4.03871e-10
-0.000107642
0.00010835
-0.000107642
-4.9359e-07
0.00010835
-4.70473e-10
-4.99199e-07
-1.86355e-07
-0.000112256
-3.07215e-07
0.000112839
-5.50709e-07
-0.000112484
-1.76999e-07
2.81862e-06
0.000113026
-3.3699e-06
-1.94928e-07
-3.26979e-07
-5.13051e-07
-2.05678e-07
2.81331e-06
-3.32903e-06
-1.46998e-06
-0.000107924
0.000108593
-0.000108372
-2.25131e-06
0.000108976
-1.479e-06
-2.26346e-06
2.10651e-06
-0.000112694
1.9088e-05
0.000113189
-1.88713e-05
-0.00011287
-1.59375e-05
0.000113318
1.7596e-05
2.10493e-06
1.90566e-05
-1.88249e-05
-1.596e-05
1.76535e-05
1.6314e-05
-0.00010885
0.000109373
-0.000108821
0.000109197
1.63159e-05
-2.0619e-06
-0.00011378
-1.55023e-05
0.000114265
1.70795e-05
-0.000113696
1.86881e-05
-2.76007e-06
0.000114219
-1.85126e-05
-2.063e-06
-1.55558e-05
1.71574e-05
1.86877e-05
-2.76e-06
-1.84984e-05
-1.59465e-05
-0.000109597
0.000110042
-0.000109912
2.18124e-06
0.000110473
-1.59477e-05
2.19788e-06
1.69882e-07
-0.000113576
-1.29834e-07
0.000114138
-3.36225e-06
-0.000113424
-2.65987e-07
4.42002e-07
0.000114021
-6.031e-07
1.75941e-07
-1.52044e-07
-3.33527e-06
-2.82468e-07
4.46403e-07
-5.73774e-07
1.42307e-06
-0.000109591
0.000110219
-0.000109265
4.7332e-07
0.000109948
1.432e-06
4.78098e-07
-2.93872e-11
-0.000113327
2.4334e-07
0.000113943
-4.17318e-07
-0.000113327
2.43277e-07
-4.41886e-07
0.000113943
-4.17402e-07
-1.03626e-10
2.27573e-07
-3.86625e-07
2.27334e-07
-4.4649e-07
-3.86529e-07
-3.30836e-10
-0.000109056
0.000109773
-0.000109056
-4.74227e-07
0.000109773
-3.74371e-10
-4.79139e-07
-1.68984e-07
-0.000113424
-2.66162e-07
0.000114021
-6.03456e-07
-0.000113577
-1.27559e-07
2.76201e-06
0.000114138
-3.36456e-06
-1.75642e-07
-2.83135e-07
-5.73463e-07
-1.51269e-07
2.76044e-06
-3.33605e-06
-1.42471e-06
-0.000109264
0.000109948
-0.000109589
-2.18152e-06
0.000110218
-1.43359e-06
-2.1973e-06
2.06191e-06
-0.000113697
1.87059e-05
0.000114223
-1.85313e-05
-0.000113778
-1.55198e-05
0.000114261
1.70994e-05
2.0626e-06
1.87064e-05
-1.85169e-05
-1.55719e-05
1.71742e-05
1.59636e-05
-0.000109911
0.000110472
-0.000109596
0.00011004
1.59706e-05
-2.01285e-06
-0.000114741
-1.50896e-05
0.000115232
1.66114e-05
-0.000114758
1.82877e-05
-2.69941e-06
0.000115312
-1.8155e-05
-2.01629e-06
-1.51137e-05
1.66537e-05
1.82791e-05
-2.7001e-06
-1.81351e-05
-1.55833e-05
-0.000110531
0.000111025
-0.00011102
2.12768e-06
0.000111596
-1.56033e-05
2.12882e-06
1.58218e-07
-0.000114706
-9.85378e-08
0.000115279
-3.33236e-06
-0.000114616
-2.35615e-07
4.2615e-07
0.000115218
-6.34205e-07
1.61883e-07
-1.1555e-07
-3.31438e-06
-2.47422e-07
4.28948e-07
-6.14859e-07
1.38668e-06
-0.000110844
0.000111486
-0.00011063
4.57862e-07
0.000111323
1.38909e-06
4.60188e-07
1.53093e-10
-0.000114554
2.63265e-07
0.000115172
-4.5509e-07
-0.000114554
2.63511e-07
-4.25908e-07
0.000115172
-4.55263e-07
5.54518e-11
2.51712e-07
-4.3451e-07
2.51865e-07
-4.28767e-07
-4.34705e-07
3.43123e-10
-0.000110485
0.000111206
-0.000110485
-4.57084e-07
0.000111206
-6.3918e-11
-4.604e-07
-1.58603e-07
-0.000114616
-2.34636e-07
0.000115218
-6.34618e-07
-0.000114705
-9.3669e-08
2.6962e-06
0.000115278
-3.33449e-06
-1.6143e-07
-2.46799e-07
-6.1556e-07
-1.1039e-07
2.6998e-06
-3.31775e-06
-1.38603e-06
-0.000110631
0.000111325
-0.000110845
-2.12474e-06
0.00011149
-1.38977e-06
-2.12688e-06
2.01682e-06
-0.000114761
1.83082e-05
0.000115307
-1.81752e-05
-0.000114737
-1.51126e-05
0.000115233
1.66332e-05
2.01723e-06
1.83027e-05
-1.8158e-05
-1.51382e-05
1.66792e-05
1.56083e-05
-0.000111017
0.000111592
-0.000110532
0.000111028
1.56308e-05
-1.97321e-06
-0.000115724
-1.47534e-05
0.000116239
1.62119e-05
-0.000115853
1.79224e-05
-2.63508e-06
0.000116383
-1.77903e-05
-1.97274e-06
-1.47601e-05
1.62406e-05
1.79186e-05
-2.63858e-06
-1.77935e-05
-1.52366e-05
-0.000111532
0.000112015
-0.000112173
2.071e-06
0.000112787
-1.52668e-05
2.07567e-06
1.5149e-07
-0.000115847
-7.06034e-08
0.000116412
-3.28103e-06
-0.000115812
-2.12094e-07
4.12309e-07
0.000116404
-6.41154e-07
1.52855e-07
-8.15868e-08
-3.27801e-06
-2.20163e-07
4.14541e-07
-6.35111e-07
1.34558e-06
-0.000112128
0.000112783
-0.00011201
4.42295e-07
0.000112701
1.35206e-06
4.45338e-07
2.81427e-10
-0.00011578
2.72599e-07
0.000116386
-4.67128e-07
-0.00011578
2.72653e-07
-4.11543e-07
0.000116386
-4.67303e-07
2.10151e-10
2.66847e-07
-4.60244e-07
2.66944e-07
-4.14124e-07
-4.60353e-07
9.77009e-11
-0.000111918
0.000112632
-0.000111918
-4.41809e-07
0.000112633
3.02634e-10
-4.44682e-07
-1.50468e-07
-0.000115812
-2.12014e-07
0.000116404
-6.41295e-07
-0.000115848
-7.32969e-08
2.6369e-06
0.000116413
-3.27907e-06
-1.52984e-07
-2.19862e-07
-6.35062e-07
-8.24138e-08
2.63711e-06
-3.2769e-06
-1.34353e-06
-0.000112012
0.000112702
-0.000112132
-2.06772e-06
0.000112783
-1.35129e-06
-2.07598e-06
1.97149e-06
-0.000115845
1.79185e-05
0.000116378
-1.77854e-05
-0.000115731
-1.47457e-05
0.000116243
1.62052e-05
1.97503e-06
1.79218e-05
-1.77982e-05
-1.47685e-05
1.62454e-05
1.52409e-05
-0.000112174
0.000112784
-0.000111523
0.000112018
1.52636e-05
-1.9318e-06
-0.000116729
-1.43785e-05
0.000117211
1.58288e-05
-0.000116911
1.74938e-05
-2.57057e-06
0.00011743
-1.73743e-05
-1.93354e-06
-1.44088e-05
1.58521e-05
1.75212e-05
-2.57457e-06
-1.7408e-05
-1.48963e-05
-0.000112518
0.000113036
-0.00011337
2.0185e-06
0.000113948
-1.49123e-05
2.02672e-06
1.47581e-07
-0.000116968
-7.47145e-08
0.000117512
-3.18711e-06
-0.000116981
-2.0666e-07
3.99967e-07
0.000117548
-6.12563e-07
1.4821e-07
-7.24656e-08
-3.20602e-06
-2.05648e-07
4.01865e-07
-6.25119e-07
1.30927e-06
-0.000113422
0.000114056
-0.000113379
4.29436e-07
0.000114052
1.3155e-06
4.31748e-07
2.91945e-10
-0.000116976
2.64898e-07
0.000117555
-4.44388e-07
-0.000116975
2.65025e-07
-3.99222e-07
0.000117554
-4.44577e-07
3.63062e-10
2.68229e-07
-4.5599e-07
2.68391e-07
-4.0086e-07
-4.56249e-07
1.07105e-10
-0.000113332
0.000114026
-0.000113332
-4.28913e-07
0.000114026
2.01739e-10
-4.30781e-07
-1.46404e-07
-0.000116981
-2.06241e-07
0.000117547
-6.13033e-07
-0.000116968
-7.47569e-08
2.57193e-06
0.000117511
-3.18672e-06
-1.46616e-07
-2.05092e-07
-6.25684e-07
-7.34506e-08
2.5769e-06
-3.205e-06
-1.30797e-06
-0.000113378
0.000114051
-0.00011342
-2.01873e-06
0.000114056
-1.31216e-06
-2.02211e-06
1.92423e-06
-0.000116911
1.74861e-05
0.000117438
-1.7365e-05
-0.000116729
-1.43748e-05
0.000117209
1.58193e-05
1.92767e-06
1.7513e-05
-1.73972e-05
-1.43987e-05
1.58403e-05
1.48805e-05
-0.000113367
0.000113954
-0.000112528
0.000113033
1.49078e-05
-1.87059e-06
-0.000117666
-1.40636e-05
0.000118111
1.54896e-05
-0.000117931
1.70648e-05
-2.50652e-06
0.000118408
-1.6906e-05
-1.87966e-06
-1.40653e-05
1.54892e-05
1.70957e-05
-2.51126e-06
-1.69655e-05
-1.45251e-05
-0.000113526
0.000113988
-0.000114515
1.97041e-06
0.000115085
-1.45557e-05
1.97316e-06
1.45635e-07
-0.000118032
-9.41919e-08
0.000118527
-3.05306e-06
-0.000118089
-2.18201e-07
3.88293e-07
0.000118608
-5.43728e-07
1.44354e-07
-8.07859e-08
-3.0945e-06
-2.07974e-07
3.89594e-07
-5.77973e-07
1.2705e-06
-0.000114672
0.000115278
-0.000114702
4.17174e-07
0.000115337
1.2765e-06
4.18624e-07
-1.57126e-10
-0.000118107
2.36922e-07
0.000118638
-3.79673e-07
-0.000118107
2.36731e-07
-3.8887e-07
0.000118638
-3.79538e-07
1.22163e-11
2.51086e-07
-4.13602e-07
2.51023e-07
-3.89684e-07
-4.13605e-07
-2.49769e-10
-0.000114696
0.000115351
-0.000114696
-4.18296e-07
0.000115351
-1.25761e-10
-4.19205e-07
-1.47119e-07
-0.000118088
-2.1878e-07
0.000118609
-5.43391e-07
-0.000118031
-9.47611e-08
2.50423e-06
0.000118528
-3.05382e-06
-1.44791e-07
-2.08174e-07
-5.77989e-07
-8.05441e-08
2.51026e-06
-3.09486e-06
-1.27392e-06
-0.000114702
0.000115339
-0.000114673
-1.97742e-06
0.000115281
-1.27841e-06
-1.97618e-06
1.88229e-06
-0.000117936
1.70778e-05
0.000118406
-1.69251e-05
-0.000117664
-1.4075e-05
0.000118114
1.55078e-05
1.88393e-06
1.71012e-05
-1.69735e-05
-1.40674e-05
1.5496e-05
1.4528e-05
-0.000114516
0.000115088
-0.000113529
0.000113982
1.45631e-05
-1.84169e-06
-0.00011851
-1.37673e-05
0.000118882
1.5237e-05
-0.000118858
1.66122e-05
-2.43837e-06
0.000119268
-1.64262e-05
-1.83772e-06
-1.37628e-05
1.52013e-05
1.66616e-05
-2.44539e-06
-1.65033e-05
-1.41655e-05
-0.00011443
0.000114828
-0.000115606
1.93978e-06
0.000116113
-1.42049e-05
1.93527e-06
1.50815e-07
-0.000118993
-1.5199e-07
0.000119424
-2.8679e-06
-0.000119092
-2.53329e-07
3.79454e-07
0.000119542
-4.25792e-07
1.4691e-07
-1.21254e-07
-2.93792e-06
-2.30713e-07
3.79809e-07
-4.863e-07
1.23886e-06
-0.000115849
0.000116398
-0.00011594
4.08898e-07
0.000116517
1.2426e-06
4.08854e-07
1.87862e-10
-0.000119132
1.83819e-07
0.000119593
-2.65081e-07
-0.000119132
1.83681e-07
-3.789e-07
0.000119593
-2.64971e-07
2.23882e-11
2.11531e-07
-3.25803e-07
2.11367e-07
-3.79791e-07
-3.25661e-07
3.42973e-10
-0.000115971
0.000116563
-0.000115971
-4.07848e-07
0.000116563
6.83681e-11
-4.08837e-07
-1.49898e-07
-0.000119093
-2.53556e-07
0.000119543
-4.25346e-07
-0.000118995
-1.53389e-07
2.43966e-06
0.000119424
-2.86573e-06
-1.46996e-07
-2.31109e-07
-4.85872e-07
-1.21689e-07
2.44581e-06
-2.93746e-06
-1.23555e-06
-0.000115941
0.000116516
-0.000115853
-1.93305e-06
0.000116397
-1.24275e-06
-1.93553e-06
1.83558e-06
-0.000118852
1.65989e-05
0.000119265
-1.64081e-05
-0.000118515
-1.37508e-05
0.000118887
1.52144e-05
1.84129e-06
1.66648e-05
-1.65063e-05
-1.37608e-05
1.52012e-05
1.41639e-05
-0.000115609
0.000116111
-0.00011443
0.000114843
1.4209e-05
-1.7911e-06
-0.000119205
-1.35013e-05
0.000119487
1.50102e-05
-0.000119631
1.61357e-05
-2.37212e-06
0.000119939
-1.58624e-05
-1.7963e-06
-1.34869e-05
1.49603e-05
1.62039e-05
-2.3793e-06
-1.59839e-05
-1.38297e-05
-0.000115197
0.000115526
-0.000116566
1.88938e-06
0.000116983
-1.38559e-05
1.89451e-06
1.55179e-07
-0.00011981
-2.36375e-07
0.000120144
-2.62503e-06
-0.000119944
-3.1208e-07
3.70409e-07
0.000120297
-2.56433e-07
1.51489e-07
-1.89967e-07
-2.72634e-06
-2.7694e-07
3.70796e-07
-3.44048e-07
1.19521e-06
-0.000116898
0.000117355
-0.000117046
3.98366e-07
0.00011753
1.20496e-06
3.99293e-07
-3.09249e-11
-0.000120003
1.01809e-07
0.000120367
-9.46933e-08
-0.000120004
1.0167e-07
-3.70393e-07
0.000120367
-9.46741e-08
5.38983e-11
1.45233e-07
-1.85335e-07
1.45011e-07
-3.70568e-07
-1.85247e-07
-1.70427e-10
-0.000117108
0.000117608
-0.000117108
-3.98664e-07
0.000117608
-2.26249e-10
-3.99765e-07
-1.54854e-07
-0.000119945
-3.1265e-07
0.000120298
-2.56455e-07
-0.000119811
-2.38599e-07
2.37289e-06
0.000120147
-2.62472e-06
-1.51148e-07
-2.77698e-07
-3.43702e-07
-1.93655e-07
2.37956e-06
-2.72424e-06
-1.19583e-06
-0.000117044
0.000117528
-0.000116895
-1.89237e-06
0.000117353
-1.20551e-06
-1.89784e-06
1.79395e-06
-0.000119632
1.61213e-05
0.000119945
-1.58554e-05
-0.000119209
-1.34899e-05
0.000119489
1.5004e-05
1.79563e-06
1.61885e-05
-1.59718e-05
-1.3473e-05
1.49462e-05
1.38019e-05
-0.00011657
0.000116997
-0.000115201
0.000115513
1.38311e-05
-1.74937e-06
-0.000119701
-1.32446e-05
0.000119851
1.4844e-05
-0.000120193
1.55995e-05
-2.30733e-06
0.000120383
-1.52309e-05
-1.75424e-06
-1.32213e-05
1.47616e-05
1.56954e-05
-2.31382e-06
-1.53902e-05
-1.34405e-05
-0.000115794
0.00011599
-0.000117335
1.85293e-06
0.000117642
-1.34896e-05
1.85344e-06
1.59368e-07
-0.000120422
-3.56676e-07
0.000120634
-2.32151e-06
-0.000120591
-3.96637e-07
3.63099e-07
0.000120832
-4.83676e-08
1.56012e-07
-2.93236e-07
-2.45506e-06
-3.47697e-07
3.62546e-07