/*--------------------------------*- C++ -*----------------------------------*\
  =========                 |
  \\      /  F ield         | OpenFOAM: The Open Source CFD Toolbox
   \\    /   O peration     | Website:  https://openfoam.org
    \\  /    A nd           | Version:  9
     \\/     M anipulation  |
\*---------------------------------------------------------------------------*/
FoamFile
{
    format      ascii;
    class       volVectorField;
    location    "4";
    object      U;
}
// * * * * * * * * * * * * * * * * * * * * * * * * * * * * * * * * * * * * * //

dimensions      [0 1 -1 0 0 0 0];

internalField   nonuniform List<vector> 
36360
(
(0.0462186 -0.245055 -0.860021)
(-0.0370485 -0.194977 0.00317928)
(0.0512285 -0.281425 -0.885239)
(-0.0375329 -0.162811 0.00292206)
(0.0473236 -0.302976 -0.969887)
(-0.0489063 -0.153511 -0.002653)
(0.0853866 -0.383621 -0.979245)
(-0.0602557 -0.0980102 -0.00188829)
(-0.00175231 -0.189275 -0.00205916)
(0.00368857 -0.192243 -0.000378044)
(-0.00211647 -0.183983 -0.00203243)
(0.00403045 -0.191089 -0.000413598)
(0.00834353 -0.159438 0.0020717)
(0.00481979 -0.178327 0.000383678)
(0.0108312 -0.158523 0.0013978)
(0.012394 -0.187482 0.000164897)
(0.00336283 -0.194516 -3.90231e-05)
(0.00336282 -0.194516 3.90518e-05)
(0.00429195 -0.193783 -4.33273e-05)
(0.004292 -0.193783 4.33523e-05)
(0.00287149 -0.185868 3.54417e-05)
(0.0028715 -0.185868 -3.53822e-05)
(0.0118353 -0.195514 5.83222e-06)
(0.0118354 -0.195515 -5.80772e-06)
(0.00368891 -0.192242 0.000378064)
(-0.00174966 -0.189273 0.0020591)
(0.0040309 -0.191088 0.000413578)
(-0.00211388 -0.183982 0.0020323)
(0.00481977 -0.178327 -0.000383443)
(0.00834387 -0.159439 -0.00207114)
(0.0123943 -0.187484 -0.000164775)
(0.0108324 -0.158527 -0.00139738)
(-0.0370409 -0.194972 -0.00317848)
(0.0462094 -0.245057 0.860066)
(-0.0375265 -0.162806 -0.00292113)
(0.0512171 -0.281422 0.885284)
(-0.0488958 -0.153507 0.00265169)
(0.0473151 -0.302977 0.969895)
(-0.0602446 -0.098011 0.00188733)
(0.0853707 -0.383611 0.979254)
(0.0468618 -0.231175 -0.853733)
(-0.0404098 -0.202109 0.000130711)
(0.0467984 -0.239933 -0.857627)
(-0.0394315 -0.197958 0.00128178)
(0.0462602 -0.261737 -0.97183)
(-0.0531393 -0.178445 -0.00571451)
(0.0455384 -0.278923 -0.973151)
(-0.0524535 -0.164435 -0.00426807)
(-0.00569742 -0.192138 -0.000640205)
(0.00125305 -0.191558 0.000286056)
(-0.00419874 -0.189373 -0.00103839)
(0.0023007 -0.191134 1.48194e-05)
(0.00457155 -0.16535 0.00355307)
(0.00237756 -0.17511 0.00115795)
(0.00544421 -0.159523 0.00300665)
(0.00317394 -0.174891 0.000794284)
(0.00195503 -0.192856 0.000104524)
(0.00195498 -0.192855 -0.00010441)
(0.00250161 -0.193341 3.22572e-05)
(0.00250157 -0.19334 -3.21847e-05)
(0.00138646 -0.181848 0.000187315)
(0.00138644 -0.181848 -0.000187165)
(0.00167003 -0.182767 0.000105166)
(0.00167 -0.182767 -0.00010506)
(0.0012532 -0.191556 -0.000285895)
(-0.00569558 -0.192135 0.000640154)
(0.00230094 -0.191133 -1.4714e-05)
(-0.00419654 -0.18937 0.00103836)
(0.00237745 -0.17511 -0.00115757)
(0.00457164 -0.165347 -0.00355254)
(0.0031738 -0.17489 -0.000793956)
(0.0054442 -0.159521 -0.00300607)
(-0.0404041 -0.202105 -0.00013067)
(0.0468546 -0.231177 0.853773)
(-0.0394249 -0.197952 -0.00128153)
(0.0467905 -0.239935 0.857669)
(-0.0531317 -0.178438 0.00571267)
(0.046252 -0.26174 0.971837)
(-0.0524447 -0.164428 0.0042664)
(0.0455296 -0.278924 0.973158)
(0.0449158 -0.220215 -0.846849)
(-0.0401444 -0.204907 -0.00126255)
(0.0458991 -0.224632 -0.849748)
(-0.0403167 -0.204019 -0.000661478)
(0.0429421 -0.234246 -0.969731)
(-0.0514837 -0.19276 -0.00765955)
(0.0444379 -0.245815 -0.970655)
(-0.0522287 -0.187446 -0.00681683)
(-0.00603021 -0.196256 -0.000540198)
(0.00039842 -0.193355 0.000647373)
(-0.00606743 -0.194405 -0.000526588)
(0.000680369 -0.192325 0.000498913)
(0.00510394 -0.176853 0.00388768)
(0.00151262 -0.177315 0.00165798)
(0.00464497 -0.17167 0.0038125)
(0.00181772 -0.175934 0.00144549)
(0.00119043 -0.193155 0.000254655)
(0.00119035 -0.193154 -0.000254483)
(0.00154075 -0.1928 0.000183918)
(0.00154068 -0.192799 -0.000183769)
(0.000697256 -0.180786 0.000358033)
(0.000697264 -0.180786 -0.000357809)
(0.00105622 -0.181042 0.000275472)
(0.00105623 -0.181042 -0.000275277)
(0.000398389 -0.193353 -0.000647212)
(-0.00602886 -0.196254 0.000540055)
(0.000680422 -0.192323 -0.000498742)
(-0.00606588 -0.194402 0.000526487)
(0.00151232 -0.177313 -0.00165759)
(0.00510372 -0.176849 -0.00388732)
(0.00181755 -0.175933 -0.0014451)
(0.00464489 -0.171666 -0.00381205)
(-0.0401394 -0.204904 0.00126246)
(0.0449096 -0.220216 0.846885)
(-0.0403114 -0.204015 0.000661435)
(0.0458924 -0.224634 0.849786)
(-0.0514772 -0.192755 0.00765766)
(0.0429351 -0.234249 0.969738)
(-0.0522217 -0.18744 0.00681493)
(0.0444303 -0.245818 0.970662)
(0.0436495 -0.214709 -0.841346)
(-0.0400408 -0.205544 -0.00206219)
(0.0441559 -0.217044 -0.843558)
(-0.0400393 -0.205333 -0.00171685)
(0.0412061 -0.2201 -0.968133)
(-0.0507837 -0.197592 -0.00878775)
(0.0418525 -0.226055 -0.968826)
(-0.0509571 -0.195853 -0.00829891)
(-0.00576874 -0.19903 -0.000704972)
(0.000227469 -0.195647 0.000785119)
(-0.0058945 -0.197776 -0.000609636)
(0.000272692 -0.194498 0.000737618)
(0.00584408 -0.184631 0.00378677)
(0.00157593 -0.180974 0.00187541)
(0.00555809 -0.181175 0.00386216)
(0.00147565 -0.179078 0.0017964)
(0.000686716 -0.194617 0.000338853)
(0.000686597 -0.194617 -0.000338665)
(0.000905294 -0.193795 0.000305284)
(0.000905197 -0.193794 -0.000305104)
(0.000129084 -0.181719 0.00048041)
(0.000129067 -0.181719 -0.00048016)
(0.000393616 -0.181044 0.000427004)
(0.000393614 -0.181044 -0.000426763)
(0.000227285 -0.195646 -0.000785003)
(-0.00576765 -0.199028 0.000704773)
(0.000272581 -0.194496 -0.000737478)
(-0.00589329 -0.197773 0.000609464)
(0.00157539 -0.180973 -0.00187508)
(0.00584357 -0.184627 -0.00378655)
(0.00147523 -0.179077 -0.00179604)
(0.00555773 -0.181171 -0.00386188)
(-0.0400364 -0.205542 0.0020621)
(0.0436439 -0.21471 0.84138)
(-0.0400346 -0.205331 0.00171676)
(0.0441499 -0.217045 0.843594)
(-0.0507779 -0.197588 0.00878597)
(0.0411998 -0.220102 0.96814)
(-0.0509509 -0.195848 0.00829707)
(0.0418457 -0.226058 0.968833)
(0.0430127 -0.211729 -0.836815)
(-0.0401932 -0.205786 -0.00252667)
(0.0432665 -0.212989 -0.838589)
(-0.0400831 -0.205672 -0.0023252)
(0.0403931 -0.212412 -0.966888)
(-0.0507431 -0.199077 -0.00945317)
(0.040674 -0.215699 -0.967419)
(-0.0506687 -0.198551 -0.00916128)
(-0.00558372 -0.201031 -0.00091092)
(0.000257306 -0.197855 0.000791829)
(-0.00566439 -0.2001 -0.000807489)
(0.000231968 -0.196768 0.000800424)
(0.0061457 -0.189467 0.00358407)
(0.0018444 -0.184688 0.00191461)
(0.00601133 -0.187342 0.0036881)
(0.00172115 -0.182864 0.00190981)
(0.000435798 -0.196554 0.000370156)
(0.000435701 -0.196554 -0.000369892)
(0.000536892 -0.195551 0.000358875)
(0.000536764 -0.19555 -0.000358687)
(-0.000214285 -0.183842 0.000541065)
(-0.00021429 -0.183842 -0.000540974)
(-6.7179e-05 -0.182683 0.000517536)
(-6.72168e-05 -0.182682 -0.000517302)
(0.000257097 -0.197854 -0.000791831)
(-0.00558268 -0.201029 0.000910679)
(0.000231751 -0.196767 -0.000800331)
(-0.00566334 -0.200098 0.000807272)
(0.00184382 -0.184686 -0.00191429)
(0.00614536 -0.189464 -0.00358393)
(0.00172058 -0.182862 -0.00190953)
(0.0060109 -0.187339 -0.00368794)
(-0.0401893 -0.205784 0.00252657)
(0.0430076 -0.21173 0.836846)
(-0.0400789 -0.205671 0.00232511)
(0.0432611 -0.212991 0.838622)
(-0.050738 -0.199074 0.00945153)
(0.0403873 -0.212414 0.966894)
(-0.0506632 -0.198547 0.00915957)
(0.0406679 -0.215701 0.967425)
(0.0426518 -0.210186 -0.832924)
(-0.0404414 -0.206101 -0.00280492)
(0.0427943 -0.21082 -0.834386)
(-0.0403031 -0.205922 -0.00268173)
(0.0399708 -0.208077 -0.965884)
(-0.0508915 -0.199588 -0.00986638)
(0.0400958 -0.209941 -0.966301)
(-0.050758 -0.199382 -0.0096816)
(-0.00549882 -0.20261 -0.00109434)
(0.000309092 -0.199928 0.000740196)
(-0.00552364 -0.201854 -0.00100636)
(0.000288175 -0.198909 0.000769685)
(0.00634045 -0.192515 0.00338873)
(0.00202675 -0.188053 0.00187438)
(0.00625973 -0.191145 0.00348217)
(0.0019499 -0.186423 0.00189967)
(0.000331917 -0.19865 0.000373188)
(0.000331814 -0.19865 -0.00037302)
(0.000372794 -0.197596 0.000374302)
(0.000372673 -0.197595 -0.000374143)
(-0.000332958 -0.186493 0.000556412)
(-0.000332983 -0.186492 -0.000556167)
(-0.000292451 -0.18513 0.000553168)
(-0.000292499 -0.185129 -0.000552982)
(0.000308942 -0.199927 -0.000740135)
(-0.0054978 -0.202609 0.00109409)
(0.000287971 -0.198908 -0.000769634)
(-0.00552262 -0.201853 0.00100612)
(0.00202626 -0.188051 -0.00187414)
(0.00634018 -0.192512 -0.00338875)
(0.00194934 -0.186421 -0.00189946)
(0.00625945 -0.191142 -0.00348212)
(-0.0404378 -0.2061 0.00280474)
(0.042647 -0.210187 0.832953)
(-0.0402994 -0.205921 0.00268162)
(0.0427893 -0.210821 0.834416)
(-0.0508869 -0.199586 0.00986428)
(0.0399655 -0.208078 0.96589)
(-0.0507531 -0.199379 0.00967995)
(0.0400901 -0.209943 0.966307)
(0.0423718 -0.209541 -0.829472)
(-0.0406708 -0.206623 -0.00298002)
(0.0425021 -0.209773 -0.830734)
(-0.0405569 -0.206333 -0.00290135)
(0.039697 -0.205629 -0.964437)
(-0.0510509 -0.199971 -0.0101335)
(0.0397698 -0.206674 -0.964772)
(-0.0509214 -0.19977 -0.0100156)
(-0.00550729 -0.204037 -0.00124005)
(0.000316597 -0.201879 0.000673313)
(-0.00549144 -0.203331 -0.00117093)
(0.0003198 -0.200915 0.000707245)
(0.00645054 -0.194735 0.00322816)
(0.00211811 -0.190986 0.00180916)
(0.00640905 -0.193688 0.00330431)
(0.00208211 -0.189569 0.00184317)
(0.000281703 -0.200752 0.000361085)
(0.000281651 -0.200751 -0.00036092)
(0.000304652 -0.199704 0.000368283)
(0.000304573 -0.199704 -0.00036805)
(-0.000342639 -0.189286 0.000546707)
(-0.000342662 -0.189285 -0.000546539)
(-0.000341809 -0.187887 0.000553543)
(-0.000341837 -0.187886 -0.000553084)
(0.000316629 -0.201878 -0.000673184)
(-0.00550643 -0.204036 0.00124001)
(0.000319764 -0.200914 -0.000707092)
(-0.00549011 -0.20333 0.00117082)
(0.00211783 -0.190983 -0.00180885)
(0.00645038 -0.194732 -0.00322754)
(0.00208168 -0.189567 -0.00184256)
(0.00640876 -0.193685 -0.00330349)
(-0.0406719 -0.206622 0.00297993)
(0.0423731 -0.209543 0.829498)
(-0.040549 -0.206332 0.00290116)
(0.0424931 -0.209774 0.830762)
(-0.0510472 -0.199971 0.0101304)
(0.0396947 -0.205632 0.96506)
(-0.0509177 -0.199769 0.0100104)
(0.0397658 -0.206674 0.965397)
(0.0420817 -0.209516 -0.826347)
(-0.0408563 -0.207388 -0.00309385)
(0.0422178 -0.209463 -0.827429)
(-0.0407606 -0.206975 -0.00304191)
(0.0394706 -0.204382 -0.963047)
(-0.0511805 -0.200521 -0.01031)
(0.0395274 -0.204887 -0.963686)
(-0.0510658 -0.200218 -0.01023)
(-0.00557021 -0.205463 -0.00135146)
(0.00027715 -0.203767 0.000608381)
(-0.00553086 -0.204745 -0.00129871)
(0.000302809 -0.202827 0.000639917)
(0.00650007 -0.196622 0.00310046)
(0.00215144 -0.193598 0.00174185)
(0.00648588 -0.195702 0.00316025)
(0.00214083 -0.192322 0.00177487)
(0.000234055 -0.202832 0.000343329)
(0.000233917 -0.202832 -0.000343429)
(0.000259349 -0.201793 0.00035234)
(0.00025929 -0.201793 -0.000352263)
(-0.000337762 -0.192039 0.000527989)
(-0.000337777 -0.192038 -0.000528315)
(-0.000339937 -0.190671 0.000537861)
(-0.000339951 -0.190671 -0.000537779)
(0.000276659 -0.203766 -0.000608524)
(-0.00557206 -0.205462 0.00135114)
(0.000302708 -0.202826 -0.000639844)
(-0.00553112 -0.204744 0.0012987)
(0.00215149 -0.193596 -0.00174235)
(0.00650064 -0.196618 -0.00310177)
(0.00214072 -0.192319 -0.00177461)
(0.00648596 -0.195698 -0.00315941)
(-0.0408714 -0.207388 0.00309392)
(0.0421002 -0.209518 0.826373)
(-0.0407662 -0.206975 0.00304205)
(0.0422256 -0.209465 0.827454)
(-0.0511748 -0.200519 0.0103134)
(0.0394669 -0.204388 0.962308)
(-0.0510619 -0.200216 0.0102272)
(0.0395258 -0.204895 0.964629)
(0.0418239 -0.209959 -0.823453)
(-0.0410477 -0.208402 -0.00316904)
(0.0419047 -0.209685 -0.82439)
(-0.0409175 -0.207865 -0.00313372)
(0.0392597 -0.203949 -0.960261)
(-0.0512619 -0.201347 -0.0104381)
(0.0393036 -0.204081 -0.960121)
(-0.0511689 -0.200898 -0.0103777)
(-0.00567179 -0.206967 -0.00143468)
(0.000196592 -0.205653 0.000553005)
(-0.00561061 -0.206203 -0.00139481)
(0.000242568 -0.204708 0.000579517)
(0.00651249 -0.198415 0.00300247)
(0.00215025 -0.196032 0.00168253)
(0.00651525 -0.19752 0.00304881)
(0.00215512 -0.19483 0.00171074)
(0.000162078 -0.204904 0.000326326)
(0.000161796 -0.204904 -0.000326504)
(0.000200785 -0.203868 0.000334536)
(0.000200422 -0.203868 -0.000334684)
(-0.000319822 -0.19471 0.000508504)
(-0.000319939 -0.19471 -0.000508141)
(-0.000327565 -0.193384 0.000517882)
(-0.000327655 -0.193384 -0.000518169)
(0.000195843 -0.205652 -0.000553327)
(-0.00567215 -0.206965 0.00143414)
(0.000241093 -0.204706 -0.000579584)
(-0.00561487 -0.206201 0.00139485)
(0.00214987 -0.196031 -0.00168214)
(0.00651252 -0.198413 -0.00300231)
(0.00215482 -0.194828 -0.00171065)
(0.00651504 -0.197517 -0.00304737)
(-0.041021 -0.208399 0.00316927)
(0.0417943 -0.209959 0.823477)
(-0.0409283 -0.207864 0.00313432)
(0.0419225 -0.209687 0.824414)
(-0.0512579 -0.201335 0.0104318)
(0.039249 -0.203966 0.960236)
(-0.0511644 -0.200893 0.0103744)
(0.0393038 -0.204092 0.96188)
(0.0415959 -0.210773 -0.820703)
(-0.041242 -0.209647 -0.00321829)
(0.0417037 -0.210323 -0.821564)
(-0.0411415 -0.208996 -0.00319544)
(0.0390406 -0.204138 -0.956081)
(-0.0512908 -0.202442 -0.010534)
(0.0391006 -0.203982 -0.95983)
(-0.0512239 -0.201855 -0.0104857)
(-0.00580076 -0.208585 -0.00149575)
(8.71924e-05 -0.20758 0.000507583)
(-0.00573247 -0.20776 -0.00146685)
(0.000144904 -0.206609 0.000528842)
(0.00650405 -0.200245 0.00292756)
(0.00212475 -0.198397 0.00163326)
(0.00651457 -0.19932 0.00296058)
(0.00214032 -0.197218 0.00165605)
(7.14316e-05 -0.206994 0.000311328)
(7.11991e-05 -0.206994 -0.0003114)
(0.000119109 -0.205945 0.000318277)
(0.000119042 -0.205944 -0.000318655)
(-0.000313228 -0.197322 0.000490736)
(-0.000313464 -0.197322 -0.000489903)
(-0.000314706 -0.196021 0.000499062)
(-0.000314807 -0.196021 -0.000499073)
(8.70737e-05 -0.20758 -0.000507964)
(-0.00579674 -0.208584 0.00149511)
(0.000145506 -0.206608 -0.000529618)
(-0.00572634 -0.207758 0.00146558)
(0.00212377 -0.198397 -0.00163237)
(0.00650312 -0.200245 -0.00292654)
(0.00213999 -0.197217 -0.00165681)
(0.00651512 -0.19932 -0.00296417)
(-0.0411884 -0.209645 0.00321866)
(0.0415297 -0.210774 0.820725)
(-0.0410881 -0.208994 0.0031952)
(0.0416339 -0.210325 0.82159)
(-0.0512894 -0.20244 0.0105201)
(0.0390281 -0.204133 0.957346)
(-0.0512201 -0.201852 0.0104867)
(0.0390809 -0.203985 0.956297)
(0.0414361 -0.211898 -0.818104)
(-0.0414719 -0.211109 -0.00324957)
(0.0415003 -0.211301 -0.818885)
(-0.0413492 -0.210353 -0.00323483)
(0.0388251 -0.204771 -0.956096)
(-0.0512754 -0.203819 -0.0105895)
(0.0388817 -0.204397 -0.955598)
(-0.0512305 -0.203101 -0.0105688)
(-0.00594851 -0.210337 -0.00153922)
(-4.08735e-05 -0.20958 0.000471724)
(-0.00586993 -0.209444 -0.00151819)
(2.54839e-05 -0.20857 0.000488671)
(0.00648244 -0.202185 0.00286989)
(0.00208188 -0.200768 0.00159367)
(0.00649903 -0.201198 0.00289698)
(0.00210554 -0.199578 0.00161273)
(-3.61032e-05 -0.20913 0.000299075)
(-3.64121e-05 -0.20913 -0.000298846)
(1.95183e-05 -0.208055 0.000304868)
(1.91898e-05 -0.208055 -0.000304551)
(-0.000319174 -0.199919 0.000475776)
(-0.000319575 -0.199918 -0.000474356)
(-0.000314383 -0.19862 0.000483285)
(-0.000314751 -0.19862 -0.000481358)
(-4.07436e-05 -0.209579 -0.000471884)
(-0.00593737 -0.210336 0.00153867)
(2.51841e-05 -0.208569 -0.000488725)
(-0.00586424 -0.209443 0.00151767)
(0.00208017 -0.200768 -0.00159195)
(0.00648086 -0.202183 -0.00286827)
(0.00210407 -0.199578 -0.00161045)
(0.0064976 -0.201198 -0.00289459)
(-0.0413661 -0.211107 0.00324938)
(0.0413058 -0.211896 0.818056)
(-0.041268 -0.210351 0.00323467)
(0.0414036 -0.2113 0.818906)
(-0.0512766 -0.203812 0.0105756)
(0.0388047 -0.204782 0.955428)
(-0.05123 -0.203092 0.0105472)
(0.0388661 -0.20441 0.956892)
(0.0411951 -0.213277 -0.81538)
(-0.0416038 -0.212762 -0.00326679)
(0.0412988 -0.212558 -0.816311)
(-0.0415275 -0.211914 -0.00325828)
(0.0386017 -0.205803 -0.962186)
(-0.051224 -0.20544 -0.0105856)
(0.0386625 -0.205238 -0.959317)
(-0.0511976 -0.204601 -0.0105876)
(-0.0060882 -0.21222 -0.00156997)
(-0.000175594 -0.211664 0.000443021)
(-0.00601609 -0.211263 -0.00155506)
(-0.000107273 -0.210611 0.000456408)
(0.00645365 -0.204257 0.00281702)
(0.00202706 -0.203191 0.0015582)
(0.0064732 -0.203205 0.00284113)
(0.00205608 -0.201972 0.0015747)
(-0.000153154 -0.211327 0.000288638)
(-0.000153282 -0.211327 -0.000289262)
(-9.38874e-05 -0.210221 0.000293433)
(-9.41949e-05 -0.210221 -0.000293608)
(-0.000336584 -0.202533 0.00046141)
(-0.000336692 -0.202533 -0.000462871)
(-0.000326357 -0.201222 0.00046819)
(-0.000326702 -0.201222 -0.000468115)
(-0.000175791 -0.211664 -0.000443843)
(-0.00608334 -0.212222 0.00156903)
(-0.000107406 -0.210611 -0.000456912)
(-0.0060055 -0.211263 0.00155424)
(0.0020264 -0.203189 -0.00156051)
(0.00645381 -0.204256 -0.00282293)
(0.00205445 -0.20197 -0.00157474)
(0.00647195 -0.203201 -0.00284267)
(-0.0415658 -0.212764 0.00326671)
(0.0411374 -0.213279 0.815579)
(-0.0414326 -0.211913 0.00325805)
(0.0411776 -0.212558 0.816263)
(-0.0512178 -0.20545 0.0106096)
(0.0385739 -0.205779 0.954767)
(-0.0511961 -0.2046 0.0105919)
(0.0386379 -0.205243 0.954952)
(0.0409175 -0.214869 -0.813151)
(-0.0416829 -0.214575 -0.00327292)
(0.0410476 -0.214047 -0.813607)
(-0.041638 -0.213648 -0.00326963)
(0.0383323 -0.207137 -0.957901)
(-0.0511215 -0.20729 -0.0105963)
(0.0384258 -0.206439 -0.961878)
(-0.0511252 -0.206332 -0.0105861)
(-0.00621426 -0.214223 -0.00158876)
(-0.000306213 -0.213831 0.000421715)
(-0.00615239 -0.213208 -0.0015795)
(-0.000242399 -0.212738 0.000431484)
(0.00642324 -0.206471 0.00278296)
(0.00196614 -0.205684 0.00153247)
(0.00644195 -0.205345 0.00279677)
(0.00199692 -0.204427 0.00154389)
(-0.000269374 -0.213588 0.000280932)
(-0.000268805 -0.213588 -0.000281375)
(-0.000212239 -0.21245 0.00028435)
(-0.000211967 -0.21245 -0.000284947)
(-0.00036226 -0.205186 0.000451018)
(-0.000361919 -0.205186 -0.000452512)
(-0.000348531 -0.203854 0.000455762)
(-0.000348355 -0.203854 -0.00045731)
(-0.000304305 -0.213832 -0.000421994)
(-0.00621556 -0.214226 0.00158863)
(-0.000241531 -0.212738 -0.000432069)
(-0.00615249 -0.21321 0.00157914)
(0.00196717 -0.205683 -0.00153406)
(0.00642424 -0.206471 -0.0027835)
(0.00199749 -0.204427 -0.00154608)
(0.00644316 -0.205347 -0.00280059)
(-0.0417416 -0.21458 0.00327474)
(0.0409767 -0.214867 0.812525)
(-0.0416631 -0.213654 0.00327059)
(0.0410638 -0.214048 0.813804)
(-0.0511226 -0.2073 0.0106121)
(0.0383367 -0.20711 0.957926)
(-0.0511194 -0.206348 0.0106086)
(0.03841 -0.206404 0.958051)
(0.0406552 -0.216641 -0.808037)
(-0.0417502 -0.216509 -0.00327446)
(0.0407845 -0.215728 -0.81136)
(-0.0417225 -0.215533 -0.0032723)
(0.0380076 -0.208649 -0.958364)
(-0.0509428 -0.209357 -0.0105928)
(0.0381502 -0.207848 -0.954607)
(-0.0510071 -0.208305 -0.0106059)
(-0.00630532 -0.216321 -0.00159816)
(-0.000414188 -0.216067 0.000406016)
(-0.00626171 -0.215263 -0.00159317)
(-0.000363105 -0.214943 0.000413374)
(0.00639749 -0.208813 0.00275029)
(0.00190875 -0.208247 0.00151147)
(0.00641154 -0.207631 0.00277017)
(0.00193652 -0.206958 0.00152258)
(-0.00037075 -0.215901 0.000275117)
(-0.00037082 -0.215901 -0.000275093)
(-0.00032255 -0.21474 0.000277751)
(-0.000322156 -0.21474 -0.000277993)
(-0.000390112 -0.207883 0.000443046)
(-0.000390049 -0.207882 -0.000444149)
(-0.000376123 -0.20653 0.000447039)
(-0.000375845 -0.206529 -0.000448396)
(-0.000414953 -0.216068 -0.000405269)
(-0.00631375 -0.216323 0.00160043)
(-0.000361935 -0.214944 -0.00041325)
(-0.00626569 -0.215265 0.00159363)
(0.00190882 -0.208246 -0.0015127)
(0.00639845 -0.20881 -0.00275107)
(0.00193727 -0.206957 -0.00152398)
(0.00641243 -0.207628 -0.00277035)
(-0.0418378 -0.216514 0.00327342)
(0.0407657 -0.216636 0.810738)
(-0.0417992 -0.215531 0.00327287)
(0.0408723 -0.21573 0.810724)
(-0.0509327 -0.209356 0.0105996)
(0.0380231 -0.208648 0.959313)
(-0.0510073 -0.208307 0.0106177)
(0.0381644 -0.207837 0.95558)
(0.0404649 -0.218473 -0.805404)
(-0.0418223 -0.218567 -0.00326559)
(0.0405183 -0.217551 -0.806208)
(-0.0417623 -0.217515 -0.00326911)
(0.0375738 -0.210488 -0.95284)
(-0.05063 -0.211483 -0.0105928)
(0.037711 -0.209523 -0.956985)
(-0.0507091 -0.210408 -0.0105862)
(-0.00636497 -0.218484 -0.00160227)
(-0.000492172 -0.21834 0.000395016)
(-0.00633429 -0.217396 -0.00159987)
(-0.000456239 -0.217201 0.000399783)
(0.00638522 -0.211209 0.00273344)
(0.0018602 -0.210852 0.00149774)
(0.0063966 -0.210004 0.00273791)
(0.00188427 -0.209545 0.00150294)
(-0.000446847 -0.218238 0.000270823)
(-0.000447273 -0.218238 -0.000270455)
(-0.000412326 -0.217069 0.000272579)
(-0.000412768 -0.217069 -0.000272405)
(-0.000415657 -0.210603 0.00043794)
(-0.000416094 -0.210604 -0.00043685)
(-0.000402973 -0.209241 0.000439938)
(-0.000403218 -0.209241 -0.000440172)
(-0.000493881 -0.21834 -0.000395189)
(-0.00637385 -0.218482 0.00159922)
(-0.000458593 -0.217201 -0.000399339)
(-0.00634721 -0.217396 0.00160001)
(0.00185852 -0.210855 -0.00149646)
(0.00638393 -0.211214 -0.0027304)
(0.00188335 -0.209545 -0.00150299)
(0.00639645 -0.210004 -0.0027363)
(-0.0418747 -0.218565 0.00326877)
(0.0405448 -0.218467 0.802506)
(-0.0418508 -0.217529 0.00326983)
(0.0406382 -0.217538 0.806014)
(-0.0506544 -0.211475 0.0105809)
(0.0376253 -0.210493 0.958133)
(-0.0507166 -0.210405 0.0105838)
(0.0377489 -0.20952 0.960982)
(0.0403425 -0.220375 -0.802987)
(-0.0418221 -0.220624 -0.00325967)
(0.0404001 -0.219386 -0.803566)
(-0.041831 -0.219611 -0.00326168)
(0.0374701 -0.212396 -0.95626)
(-0.0505385 -0.213711 -0.0105501)
(0.0374808 -0.211393 -0.956414)
(-0.0505381 -0.212576 -0.0105703)
(-0.00640162 -0.220647 -0.00159876)
(-0.000537718 -0.220606 0.000388822)
(-0.0063901 -0.21957 -0.00160011)
(-0.000521008 -0.219477 0.000391325)
(0.00633606 -0.213664 0.00271337)
(0.0018125 -0.213474 0.00148372)
(0.00636696 -0.212429 0.0027208)
(0.00183541 -0.212163 0.00148996)
(-0.000488834 -0.220559 0.000267618)
(-0.000488954 -0.220559 -0.00026665)
(-0.000473356 -0.219404 0.00026896)
(-0.000473437 -0.219404 -0.000268372)
(-0.000436316 -0.213322 0.000432291)
(-0.000436661 -0.213323 -0.00043144)
(-0.000426959 -0.211965 0.000434947)
(-0.00042734 -0.211966 -0.000433935)
(-0.000536889 -0.220606 -0.000387496)
(-0.00639044 -0.220648 0.00160114)
(-0.000520347 -0.219478 -0.000391171)
(-0.00638479 -0.219569 0.00159868)
(0.00181033 -0.213477 -0.00148208)
(0.00633423 -0.213668 -0.00270965)
(0.00183365 -0.212168 -0.00148905)
(0.00636622 -0.212437 -0.00272066)
(-0.041805 -0.220611 0.00325691)
(0.0403278 -0.220384 0.806043)
(-0.0418315 -0.219592 0.00326215)
(0.0404113 -0.219404 0.803579)
(-0.0505333 -0.213709 0.0105295)
(0.0374801 -0.212377 0.960443)
(-0.0505464 -0.212573 0.0105587)
(0.0375064 -0.211401 0.957777)
(0.0402098 -0.222253 -0.801452)
(-0.0417179 -0.222629 -0.00324875)
(0.040254 -0.221319 -0.801178)
(-0.0417694 -0.221627 -0.00325326)
(0.0371121 -0.214295 -0.960013)
(-0.0501672 -0.215958 -0.0104974)
(0.0372193 -0.213288 -0.955876)
(-0.0502816 -0.214844 -0.0105307)
(-0.0063515 -0.222762 -0.00159168)
(-0.000520672 -0.222808 0.000385368)
(-0.00638013 -0.221713 -0.00159356)
(-0.000536092 -0.221719 0.000387102)
(0.00631606 -0.216107 0.00269649)
(0.00178756 -0.216063 0.00147287)
(0.00633141 -0.214895 0.00270705)
(0.0017979 -0.214777 0.00147884)
(-0.000476285 -0.22281 0.000264955)
(-0.000476688 -0.222809 -0.000263895)
(-0.000490001 -0.221697 0.000266245)
(-0.000490454 -0.221697 -0.0002649)
(-0.000442506 -0.215994 0.00042824)
(-0.00044276 -0.215994 -0.00042752)
(-0.000441246 -0.214668 0.000430481)
(-0.000441636 -0.214668 -0.000429093)
(-0.000521784 -0.222807 -0.000383809)
(-0.00634979 -0.22276 0.0015939)
(-0.000536947 -0.221718 -0.000385056)
(-0.00637335 -0.221713 0.00159682)
(0.00178567 -0.216061 -0.00147198)
(0.0063128 -0.216105 -0.00269627)
(0.0017952 -0.214777 -0.0014762)
(0.00632732 -0.214893 -0.00270157)
(-0.0417028 -0.222638 0.00324175)
(0.0402017 -0.22225 0.803763)
(-0.0417352 -0.221621 0.00324751)
(0.0402252 -0.221329 0.804283)
(-0.050153 -0.215961 0.0104844)
(0.0371049 -0.214292 0.960027)
(-0.0502772 -0.214841 0.0105038)
(0.0372271 -0.213309 0.960142)
(0.0401349 -0.224006 -0.798278)
(-0.0415098 -0.224535 -0.00322405)
(0.0401393 -0.223136 -0.799614)
(-0.0416027 -0.223596 -0.00323324)
(0.0369324 -0.216164 -0.959585)
(-0.0498957 -0.218129 -0.010441)
(0.0369744 -0.215223 -0.959702)
(-0.049982 -0.217044 -0.010464)
(-0.0062385 -0.224741 -0.00158377)
(-0.000434587 -0.224873 0.000383676)
(-0.00630185 -0.223774 -0.00158757)
(-0.000487562 -0.223863 0.000383514)
(0.00627539 -0.21846 0.00268405)
(0.00178219 -0.218546 0.00146368)
(0.00630162 -0.217296 0.00268851)
(0.00178197 -0.217322 0.00146719)
(-0.000395232 -0.224919 0.000262081)
(-0.000394774 -0.224919 -0.000262786)
(-0.000445471 -0.223887 0.000263124)
(-0.000445422 -0.223886 -0.000263154)
(-0.000430199 -0.218553 0.000424362)
(-0.000430014 -0.218554 -0.000425823)
(-0.000438851 -0.217292 0.000425826)
(-0.000438789 -0.217292 -0.000426591)
(-0.000432883 -0.224873 -0.000385353)
(-0.00623837 -0.224742 0.00158084)
(-0.000487315 -0.223862 -0.000383911)
(-0.0063024 -0.223773 0.00158666)
(0.00178242 -0.218547 -0.00146699)
(0.00627524 -0.218465 -0.00269222)
(0.00178165 -0.21732 -0.00146899)
(0.00630114 -0.217297 -0.00269231)
(-0.0415573 -0.224535 0.00322923)
(0.0401815 -0.224007 0.800981)
(-0.0416332 -0.22362 0.00323389)
(0.040174 -0.223121 0.801954)
(-0.0499098 -0.218134 0.0104558)
(0.0369515 -0.216154 0.956682)
(-0.0499767 -0.217051 0.0104677)
(0.0369741 -0.21523 0.959706)
(0.0402131 -0.225546 -0.798458)
(-0.0412874 -0.226236 -0.00321522)
(0.0401375 -0.224796 -0.796463)
(-0.0413894 -0.225418 -0.00321859)
(0.0366288 -0.217821 -0.950202)
(-0.0494366 -0.22015 -0.0104262)
(0.036705 -0.216993 -0.954803)
(-0.0495949 -0.219166 -0.0104332)
(-0.00603073 -0.226514 -0.001564)
(-0.000252854 -0.22672 0.00038991)
(-0.00614515 -0.225657 -0.00157195)
(-0.000356236 -0.225828 0.000386669)
(0.00625235 -0.22065 0.00269062)
(0.00180765 -0.220849 0.0014632)
(0.00626779 -0.219581 0.00268618)
(0.00179178 -0.219725 0.00146294)
(-0.00022638 -0.226806 0.000261775)
(-0.000225972 -0.226806 -0.000261015)
(-0.000322664 -0.225896 0.000261742)
(-0.00032216 -0.225896 -0.000261678)
(-0.000394576 -0.220922 0.000424411)
(-0.000394414 -0.220923 -0.000423066)
(-0.000415003 -0.219767 0.000424267)
(-0.000414884 -0.219767 -0.000424218)
(-0.000251025 -0.226721 -0.000388687)
(-0.00602206 -0.226515 0.00156564)
(-0.000354223 -0.22583 -0.000386713)
(-0.006142 -0.225659 0.00157216)
(0.0018075 -0.220849 -0.00146041)
(0.0062491 -0.220652 -0.002683)
(0.00179156 -0.219727 -0.00146318)
(0.00626525 -0.219588 -0.0026866)
(-0.0412176 -0.22623 0.00321149)
(0.0401353 -0.225551 0.79799)
(-0.0413983 -0.2254 0.00321915)
(0.0401437 -0.224816 0.799208)
(-0.0494421 -0.220148 0.0104012)
(0.0366297 -0.217837 0.95486)
(-0.0496041 -0.219171 0.010427)
(0.0367183 -0.216992 0.956314)
(0.0402435 -0.226786 -0.790452)
(-0.0408017 -0.227617 -0.0031966)
(0.0402008 -0.226195 -0.793373)
(-0.0410467 -0.226978 -0.00320369)
(0.0365133 -0.219217 -0.958727)
(-0.0490485 -0.221893 -0.0103301)
(0.0365208 -0.218534 -0.954217)
(-0.0491958 -0.221061 -0.0103777)
(-0.00569745 -0.22798 -0.00154543)
(4.10825e-05 -0.228253 0.000395217)
(-0.00587804 -0.227293 -0.0015538)
(-0.000120875 -0.227532 0.000392287)
(0.00624065 -0.222562 0.00267405)
(0.00185744 -0.222869 0.00145505)
(0.00624613 -0.221648 0.0026811)
(0.00182992 -0.221902 0.00145851)
(4.51347e-05 -0.228375 0.000260539)
(4.5253e-05 -0.228376 -0.00026059)
(-0.000104386 -0.227637 0.000260892)
(-0.000104009 -0.227637 -0.000260648)
(-0.000339933 -0.223002 0.00042169)
(-0.000339591 -0.223001 -0.000422144)
(-0.000368696 -0.222005 0.000422616)
(-0.000368317 -0.222005 -0.000423123)
(4.14325e-05 -0.228255 -0.000394933)
(-0.00569554 -0.227984 0.00154669)
(-0.000119215 -0.227533 -0.000391858)
(-0.00586828 -0.227295 0.00155435)
(0.00185942 -0.222864 -0.00145578)
(0.00624509 -0.222557 -0.00267717)
(0.00183128 -0.221899 -0.00145939)
(0.00624811 -0.221645 -0.00268464)
(-0.0407819 -0.227618 0.00319463)
(0.040221 -0.226798 0.795934)
(-0.0410002 -0.226979 0.00320064)
(0.0401411 -0.226199 0.796168)
(-0.0490078 -0.221911 0.0103321)
(0.036466 -0.219204 0.954155)
(-0.0491702 -0.221063 0.0103804)
(0.0364827 -0.218555 0.949915)
(0.0403721 -0.227614 -0.793866)
(-0.0401753 -0.228576 -0.00317363)
(0.0402572 -0.227256 -0.791842)
(-0.0404768 -0.228152 -0.00318437)
(0.036304 -0.220224 -0.954542)
(-0.0484669 -0.223259 -0.0102494)
(0.0363291 -0.219779 -0.954637)
(-0.0486839 -0.222626 -0.0102923)
(-0.00523115 -0.229035 -0.00152693)
(0.000464106 -0.229385 0.000401737)
(-0.00547486 -0.228565 -0.00153421)
(0.000237571 -0.228871 0.000398405)
(0.00628187 -0.224083 0.00267232)
(0.00192981 -0.224495 0.00145181)
(0.00626271 -0.223377 0.00267405)
(0.00188882 -0.223736 0.00145366)
(0.000437638 -0.229542 0.000260862)
(0.000437522 -0.229542 -0.000261065)
(0.000225036 -0.229013 0.000260289)
(0.000224905 -0.229013 -0.000260408)
(-0.000253797 -0.224664 0.000420395)
(-0.000253469 -0.224664 -0.000421826)
(-0.000309333 -0.223893 0.000421427)
(-0.000309173 -0.223892 -0.000421618)
(0.000462477 -0.229386 -0.000402787)
(-0.00524533 -0.229039 0.00152438)
(0.000236663 -0.228873 -0.000398195)
(-0.00548346 -0.228569 0.0015347)
(0.00193101 -0.224493 -0.00145247)
(0.00628183 -0.224078 -0.00267198)
(0.00189023 -0.223732 -0.00145328)
(0.00626389 -0.223372 -0.00267146)
(-0.0402797 -0.22861 0.00317573)
(0.0405015 -0.227591 0.788176)
(-0.0405342 -0.228167 0.0031831)
(0.0403295 -0.227258 0.790791)
(-0.0484505 -0.223256 0.0102526)
(0.0363091 -0.22024 0.95831)
(-0.0486418 -0.222645 0.0102859)
(0.0362947 -0.219766 0.958413)
(0.0407219 -0.227857 -0.789258)
(-0.0394858 -0.229053 -0.00314947)
(0.0405131 -0.227817 -0.788679)
(-0.0398359 -0.228879 -0.00315698)
(0.0361494 -0.220702 -0.948299)
(-0.0478036 -0.224107 -0.0101928)
(0.0361475 -0.220541 -0.953192)
(-0.0480631 -0.223756 -0.0102152)
(-0.00463903 -0.229558 -0.00149693)
(0.000982603 -0.229985 0.000413649)
(-0.00495086 -0.229372 -0.00151179)
(0.000709576 -0.229766 0.000407103)
(0.00638239 -0.225092 0.00267795)