/*--------------------------------*- C++ -*----------------------------------*\
  =========                 |
  \\      /  F ield         | OpenFOAM: The Open Source CFD Toolbox
   \\    /   O peration     | Website:  https://openfoam.org
    \\  /    A nd           | Version:  9
     \\/     M anipulation  |
\*---------------------------------------------------------------------------*/
FoamFile
{
    format      ascii;
    class       volScalarField;
    location    "2.7";
    object      p;
}
// * * * * * * * * * * * * * * * * * * * * * * * * * * * * * * * * * * * * * //

dimensions      [0 2 -2 0 0 0 0];

internalField   nonuniform List<scalar> 
36360
(
20.1662
20.0581
20.1393
20.0716
20.0826
20.1148
20.0855
20.1046
20.0964
20.1012
20.0988
20.101
20.0979
20.0984
20.0964
20.0977
20.101
20.101
20.1009
20.1009
20.0983
20.0984
20.0981
20.0981
20.1012
20.0964
20.101
20.0988
20.0984
20.0979
20.0977
20.0964
20.0581
20.1662
20.0716
20.1392
20.1148
20.0826
20.1046
20.0855
20.1386
20.0822
20.155
20.0718
20.0335
20.1636
20.0629
20.1398
20.1
20.1004
20.0976
20.1013
20.1063
20.0973
20.1015
20.0983
20.1004
20.1004
20.1014
20.1014
20.0966
20.0966
20.098
20.098
20.1004
20.1
20.1013
20.0976
20.0973
20.1063
20.0983
20.1015
20.0822
20.1386
20.0718
20.155
20.1636
20.0336
20.1398
20.0629
20.1098
20.0947
20.1236
20.0896
19.98
20.2019
20.0055
20.1846
20.1097
20.1002
20.1046
20.0998
20.1208
20.0978
20.113
20.0971
20.0972
20.0972
20.0987
20.0987
20.0943
20.0943
20.0953
20.0953
20.1002
20.1097
20.0998
20.1046
20.0978
20.1208
20.0971
20.113
20.0947
20.1098
20.0896
20.1236
20.2018
19.98
20.1846
20.0055
20.086
20.0997
20.0972
20.098
19.9369
20.2262
19.9571
20.2155
20.1202
20.1034
20.115
20.1015
20.1362
20.1016
20.1287
20.0994
20.0959
20.0959
20.0963
20.0963
20.0938
20.0938
20.0938
20.0938
20.1034
20.1202
20.1015
20.115
20.1015
20.1362
20.0994
20.1287
20.0997
20.086
20.098
20.0972
20.2262
19.937
20.2155
19.9572
20.067
20.1002
20.0759
20.1004
19.9036
20.2407
19.9192
20.2344
20.1293
20.1082
20.125
20.1057
20.1492
20.1069
20.1431
20.1041
20.0969
20.0969
20.0962
20.0962
20.0951
20.0951
20.0943
20.0943
20.1082
20.1293
20.1057
20.125
20.1068
20.1492
20.1041
20.1431
20.1002
20.067
20.1004
20.0759
20.2407
19.9036
20.2344
19.9192
20.0521
20.0984
20.0591
20.0995
19.8779
20.2491
19.8899
20.2455
20.1362
20.1132
20.133
20.1107
20.1591
20.1125
20.1545
20.1097
20.0994
20.0994
20.098
20.098
20.0977
20.0977
20.0963
20.0963
20.1132
20.1361
20.1107
20.133
20.1125
20.1591
20.1097
20.1545
20.0984
20.0521
20.0995
20.0591
20.2491
19.878
20.2455
19.89
20.0403
20.0956
20.0458
20.0971
19.858
20.2539
19.8673
20.2518
20.141
20.118
20.1388
20.1157
20.1662
20.1177
20.163
20.1152
20.1026
20.1026
20.1009
20.1009
20.1009
20.1009
20.0993
20.0993
20.118
20.141
20.1157
20.1388
20.1177
20.1662
20.1152
20.163
20.0956
20.0403
20.0971
20.0459
20.2539
19.8581
20.2518
19.8674
20.0308
20.0925
20.0353
20.0941
19.8424
20.2564
19.8497
20.2554
20.1443
20.122
20.1428
20.1201
20.1713
20.1222
20.169
20.1201
20.1059
20.1059
20.1042
20.1042
20.1043
20.1043
20.1026
20.1026
20.122
20.1443
20.1201
20.1428
20.1222
20.1713
20.12
20.169
20.0925
20.0308
20.0941
20.0353
20.2564
19.8425
20.2554
19.8498
20.0231
20.0895
20.0268
20.091
19.83
20.2576
19.8359
20.2571
20.1465
20.1253
20.1455
20.1238
20.1748
20.1259
20.1732
20.1241
20.1091
20.1091
20.1075
20.1075
20.1074
20.1074
20.1059
20.1059
20.1253
20.1465
20.1238
20.1455
20.1259
20.1748
20.1241
20.1732
20.0895
20.0232
20.091
20.0268
20.2576
19.8301
20.2571
19.8359
20.0168
20.0865
20.0198
20.088
19.8202
20.2578
19.8248
20.2578
20.1477
20.1279
20.1472
20.1267
20.1771
20.1287
20.176
20.1274
20.1118
20.1118
20.1105
20.1105
20.1102
20.1102
20.1089
20.1089
20.1279
20.1477
20.1267
20.1472
20.1287
20.1771
20.1274
20.176
20.0865
20.0168
20.088
20.0198
20.2578
19.8203
20.2578
19.8249
20.0116
20.0838
20.0141
20.0851
19.8123
20.2574
19.816
20.2577
20.1483
20.1299
20.1481
20.129
20.1785
20.1309
20.1779
20.1299
20.114
20.114
20.113
20.113
20.1124
20.1124
20.1114
20.1114
20.1299
20.1483
20.129
20.1481
20.1309
20.1784
20.1299
20.1778
20.0838
20.0116
20.0852
20.0141
20.2574
19.8123
20.2577
19.8161
20.0071
20.0813
20.0092
20.0825
19.8059
20.2566
19.8089
20.2571
20.1484
20.1313
20.1484
20.1307
20.1791
20.1323
20.1789
20.1317
20.1157
20.1157
20.1149
20.1149
20.1141
20.1141
20.1133
20.1133
20.1313
20.1484
20.1307
20.1484
20.1323
20.1791
20.1317
20.1789
20.0813
20.0071
20.0825
20.0092
20.2566
19.8059
20.2571
19.809
20.0033
20.0789
20.0051
20.0801
19.8007
20.2555
19.8032
20.2561
20.1482
20.132
20.1484
20.1317
20.1793
20.1331
20.1793
20.1328
20.1168
20.1168
20.1163
20.1163
20.1152
20.1152
20.1147
20.1147
20.132
20.1482
20.1317
20.1484
20.1331
20.1792
20.1328
20.1793
20.0789
20.0033
20.0801
20.0051
20.2554
19.8008
20.2561
19.8032
19.9999
20.0767
20.0015
20.0778
19.7965
20.254
19.7985
20.2548
20.1476
20.1323
20.1479
20.1322
20.1789
20.1334
20.1791
20.1333
20.1174
20.1174
20.1172
20.1172
20.1157
20.1157
20.1155
20.1155
20.1323
20.1476
20.1322
20.1479
20.1334
20.1789
20.1333
20.1791
20.0767
20
20.0778
20.0016
20.254
19.7965
20.2547
19.7985
19.997
20.0746
19.9984
20.0757
19.793
20.2523
19.7947
20.2532
20.1467
20.1321
20.1472
20.1322
20.1781
20.1332
20.1785
20.1334
20.1175
20.1175
20.1175
20.1175
20.1158
20.1158
20.1158
20.1158
20.1321
20.1467
20.1322
20.1472
20.1332
20.1781
20.1333
20.1785
20.0747
19.997
20.0757
19.9984
20.2523
19.7931
20.2531
19.7947
19.9943
20.0727
19.9956
20.0736
19.7902
20.2502
19.7916
20.2513
20.1456
20.1315
20.1462
20.1318
20.1769
20.1325
20.1775
20.1329
20.1172
20.1172
20.1174
20.1174
20.1154
20.1154
20.1157
20.1157
20.1315
20.1456
20.1318
20.1462
20.1325
20.1768
20.1329
20.1775
20.0727
19.9944
20.0737
19.9956
20.2502
19.7904
20.2513
19.7916
19.992
20.0708
19.9931
20.0717
19.7882
20.2479
19.7892
20.2491
20.1443
20.1305
20.145
20.131
20.1753
20.1314
20.1761
20.132
20.1165
20.1165
20.1169
20.1169
20.1145
20.1145
20.115
20.115
20.1305
20.1443
20.131
20.145
20.1314
20.1753
20.132
20.1761
20.0708
19.992
20.0717
19.9931
20.2479
19.7883
20.2491
19.7893
19.9895
20.0691
19.9907
20.07
19.7863
20.2455
19.7872
20.2467
20.1429
20.1293
20.1436
20.1299
20.1734
20.13
20.1744
20.1307
20.1154
20.1154
20.116
20.116
20.1133
20.1133
20.114
20.114
20.1292
20.1428
20.1299
20.1436
20.1299
20.1734
20.1307
20.1744
20.0691
19.9898
20.0699
19.9909
20.2454
19.7865
20.2466
19.7874
19.9877
20.0672
19.9886
20.0681
19.7849
20.2429
19.7856
20.2442
20.1412
20.1277
20.1421
20.1285
20.1713
20.1282
20.1724
20.1291
20.1141
20.1141
20.1148
20.1148
20.1117
20.1117
20.1126
20.1125
20.1277
20.1412
20.1285
20.1421
20.1282
20.1713
20.1291
20.1724
20.0672
19.9878
20.0681
19.9888
20.2429
19.785
20.2442
19.7857
19.9857
20.0656
19.9867
20.0664
19.7835
20.2402
19.7842
20.2416
20.1396
20.126
20.1405
20.1269
20.169
20.1261
20.1702
20.1272
20.1125
20.1125
20.1133
20.1133
20.1098
20.1098
20.1108
20.1108
20.126
20.1396
20.1269
20.1405
20.1261
20.169
20.1272
20.1702
20.0657
19.9857
20.0665
19.9867
20.2402
19.7836
20.2416
19.7843
19.9839
20.0641
19.9848
20.0649
19.7825
20.2375
19.7829
20.2389
20.138
20.1242
20.1388
20.1251
20.1665
20.1239
20.1678
20.125
20.1107
20.1107
20.1116
20.1116
20.1077
20.1077
20.1088
20.1088
20.1242
20.1379
20.1251
20.1388
20.1238
20.1665
20.125
20.1678
20.064
19.9841
20.0648
19.9849
20.2374
19.7827
20.2388
19.7832
19.9825
20.0626
19.9832
20.0633
19.782
20.2346
19.7822
20.236
20.1363
20.1222
20.1372
20.1232
20.1639
20.1214
20.1652
20.1226
20.1088
20.1088
20.1098
20.1098
20.1053
20.1053
20.1065
20.1065
20.1222
20.1363
20.1232
20.1371
20.1214
20.1639
20.1226
20.1652
20.0627
19.9825
20.0633
19.9833
20.2346
19.7819
20.236
19.7823
19.9813
20.0613
19.9819
20.0619
19.7817
20.2316
19.7818
20.2331
20.1347
20.1202
20.1355
20.1212
20.1612
20.1188
20.1625
20.1201
20.1069
20.1069
20.1079
20.1079
20.1029
20.1029
20.1041
20.1041
20.1203
20.1348
20.1213
20.1356
20.1188
20.1612
20.1201
20.1625
20.0614
19.9812
20.062
19.9818
20.2317
19.7817
20.2331
19.7817
19.9802
20.0603
19.9807
20.0608
19.7816
20.2287
19.7817
20.2302
20.133
20.1183
20.1339
20.1193
20.1583
20.1161
20.1598
20.1175
20.105
20.105
20.1059
20.1059
20.1003
20.1003
20.1016
20.1016
20.1183
20.133
20.1193
20.1339
20.1161
20.1583
20.1175
20.1598
20.0603
19.9803
20.0608
19.9807
20.2287
19.7818
20.2302
19.7817
19.9794
20.0597
19.9798
20.06
19.7818
20.2259
19.7817
20.2273
20.131
20.1164
20.132
20.1173
20.1554
20.1135
20.1569
20.1148
20.1032
20.1031
20.1041
20.1041
20.0978
20.0978
20.099
20.099
20.1164
20.1309
20.1173
20.1319
20.1134
20.1554
20.1148
20.1569
20.0596
19.9795
20.0599
19.9799
20.2259
19.782
20.2273
19.7819
19.9792
20.0591
19.9792
20.0594
19.7829
20.2232
19.7823
20.2245
20.1292
20.1146
20.1301
20.1155
20.1526
20.1109
20.154
20.1121
20.1015
20.1015
20.1023
20.1023
20.0953
20.0953
20.0965
20.0965
20.1146
20.1292
20.1155
20.1301
20.1109
20.1526
20.1121
20.154
20.0591
19.9792
20.0593
19.9793
20.2232
19.7829
20.2245
19.7824
19.9795
20.0589
19.9793
20.0589
19.7844
20.2206
19.7836
20.2219
20.1278
20.1131
20.1285
20.1138
20.1499
20.1084
20.1512
20.1096
20.1
20.1
20.1007
20.1007
20.093
20.093
20.0942
20.0942
20.1131
20.1278
20.1138
20.1285
20.1084
20.1499
20.1096
20.1512
20.059
19.9794
20.059
19.9793
20.2206
19.7844
20.2219
19.7836
19.9801
20.0593
19.9797
20.0591
19.7865
20.2183
19.7854
20.2194
20.1268
20.1119
20.1273
20.1124
20.1475
20.1062
20.1487
20.1073
20.0989
20.0989
20.0994
20.0994
20.091
20.091
20.092
20.092
20.1119
20.1268
20.1124
20.1273
20.1062
20.1475
20.1073
20.1487
20.0593
19.9801
20.0591
19.9797
20.2183
19.7865
20.2194
19.7854
19.9813
20.0601
19.9806
20.0597
19.7893
20.2162
19.7878
20.2172
20.1261
20.111
20.1264
20.1114
20.1453
20.1043
20.1464
20.1052
20.0981
20.0981
20.0984
20.0984
20.0893
20.0893
20.0901
20.0901
20.111
20.1261
20.1114
20.1264
20.1042
20.1453
20.1052
20.1463
20.0601
19.9813
20.0597
19.9806
20.2162
19.7894
20.2172
19.7879
19.9832
20.0614
19.9821
20.0607
19.793
20.2145
19.791
20.2153
20.1259
20.1105
20.126
20.1107
20.1434
20.1027
20.1443
20.1034
20.0978
20.0978
20.0979
20.0979
20.0881
20.0881
20.0887
20.0887
20.1105
20.1259
20.1107
20.1259
20.1027
20.1434
20.1034
20.1443
20.0614
19.9832
20.0607
19.9822
20.2144
19.793
20.2153
19.7911
19.9858
20.0633
19.9844
20.0623
19.7975
20.2131
19.7951
20.2137
20.126
20.1104
20.1259
20.1104
20.1419
20.1016
20.1426
20.1021
20.098
20.098
20.0978
20.0978
20.0874
20.0874
20.0877
20.0877
20.1104
20.126
20.1104
20.1259
20.1016
20.1419
20.1021
20.1426
20.0633
19.9858
20.0623
19.9844
20.2131
19.7976
20.2137
19.7952
19.9891
20.0656
19.9873
20.0644
19.803
20.2121
19.8001
20.2125
20.1265
20.1109
20.1262
20.1106
20.1408
20.101
20.1413
20.1012
20.0988
20.0988
20.0983
20.0983
20.0873
20.0873
20.0873
20.0873
20.1108
20.1265
20.1106
20.1262
20.101
20.1408
20.1012
20.1413
20.0656
19.9891
20.0644
19.9873
20.2121
19.8031
20.2125
19.8002
19.9932
20.0685
19.991
20.067
19.8096
20.2115
19.8062
20.2117
20.1274
20.1118
20.1269
20.1112
20.14
20.101
20.1403
20.1009
20.1002
20.1002
20.0994
20.0994
20.0879
20.0879
20.0875
20.0875
20.1118
20.1274
20.1112
20.1269
20.101
20.14
20.1009
20.1403
20.0685
19.9932
20.067
19.991
20.2114
19.8097
20.2117
19.8062
19.9982
20.0717
19.9955
20.0701
19.8174
20.2112
19.8133
20.2113
20.1286
20.1132
20.128
20.1124
20.1397
20.1016
20.1398
20.1012
20.1022
20.1022
20.1011
20.1011
20.0893
20.0893
20.0885
20.0885
20.1132
20.1286
20.1124
20.128
20.1016
20.1397
20.1012
20.1398
20.0717
19.9982
20.0701
19.9956
20.2111
19.8175
20.2112
19.8134
20.0041
20.0754
20.001
20.0735
19.8266
20.2111
19.8218
20.2111
20.1301
20.1151
20.1293
20.1141
20.1397
20.1028
20.1396
20.1021
20.1049
20.1048
20.1034
20.1034
20.0914
20.0914
20.0902
20.0902
20.1151
20.1301
20.1141
20.1293
20.1028
20.1396
20.1021
20.1396
20.0754
20.0041
20.0735
20.001
20.211
19.8267
20.2111
19.8219
20.0109
20.0793
20.0074
20.0773
19.8375
20.2109
19.8318
20.211
20.1317
20.1175
20.1309
20.1163
20.1399
20.1048
20.1398
20.1037
20.1081
20.1081
20.1064
20.1064
20.0943
20.0943
20.0928
20.0928
20.1175
20.1317
20.1162
20.1309
20.1048
20.1399
20.1037
20.1397
20.0793
20.0109
20.0773
20.0074
20.2109
19.8375
20.211
19.8319
20.0184
20.0834
20.0146
20.0813
19.8506
20.2103
19.8437
20.2107
20.1335
20.1204
20.1326
20.1189
20.1403
20.1074
20.1401
20.106
20.112
20.112
20.11
20.11
20.0981
20.0981
20.0961
20.0961
20.1204
20.1335
20.1189
20.1326
20.1074
20.1403
20.106
20.1401
20.0834
20.0184
20.0813
20.0146
20.2102
19.8507
20.2107
19.8438
20.0249
20.0891
20.0221
20.0858
19.8669
20.208
19.8583
20.2094
20.1354
20.1238
20.1344
20.122
20.1407
20.1107
20.1405
20.1089
20.1166
20.1166
20.1142
20.1142
20.1026
20.1026
20.1003
20.1003
20.1238
20.1354
20.122
20.1344
20.1107
20.1407
20.1089
20.1405
20.0891
20.0249
20.0858
20.0221
20.2079
19.8669
20.2094
19.8583
20.0301
20.0953
20.0259
20.0939
19.8871
20.2022
19.8764
20.2057
20.1385
20.1281
20.1368
20.1258
20.1416
20.1149
20.1411
20.1127
20.1218
20.1218
20.1191
20.1191
20.108
20.108
20.1052
20.1052
20.1281
20.1385
20.1258
20.1368
20.1149
20.1416
20.1127
20.141
20.0953
20.0301
20.0939
20.0259
20.2022
19.8871
20.2057
19.8764
20.2201
20.027
20.1693
20.0511
20.2025
20.031
20.156
20.0557
20.0764
20.0975
20.0884
20.0997
20.084
20.0985
20.0919
20.0985
20.1005
20.1005
20.1004
20.1004
20.0994
20.0994
20.0982
20.0982
20.0975
20.0764
20.0997
20.0884
20.0985
20.084
20.0985
20.0918
20.027
20.2201
20.0511
20.1692
20.0311
20.2025
20.0557
20.1559
20.2055
20.0578
20.2123
20.0464
20.1931
20.0519
20.1999
20.0439
20.0721
20.0908
20.0735
20.0941
20.0803
20.0959
20.0815
20.0977
20.0984
20.0985
20.1
20.1
20.0993
20.0993
20.1
20.1
20.0908
20.0721
20.0941
20.0735
20.0959
20.0803
20.0977
20.0815
20.0578
20.2055
20.0464
20.2123
20.0519
20.1931
20.0439
20.1999
20.199
20.0651
20.2018
20.0631
20.1822
20.0569
20.1875
20.0557
20.0733
20.0881
20.0723
20.089
20.0834
20.0948
20.0811
20.0949
20.0949
20.0949
20.0966
20.0966
20.0968
20.0968
20.0981
20.0981
20.0881
20.0733
20.089
20.0723
20.0948
20.0834
20.0949
20.0811
20.0651
20.1989
20.0631
20.2018
20.0569
20.1822
20.0557
20.1875
20.1944
20.0639
20.1965
20.065
20.1727
20.0548
20.1772
20.0564
20.0752
20.0883
20.0743
20.088
20.0886
20.0964
20.0861
20.0954
20.0931
20.0931
20.0937
20.0937
20.0954
20.0954
20.0958
20.0958
20.0883
20.0752
20.088
20.0743
20.0964
20.0886
20.0954
20.0861
20.0639
20.1944
20.0651
20.1965
20.0548
20.1726
20.0564
20.1772
20.191
20.0599
20.1926
20.0621
20.1649
20.05
20.1686
20.0526
20.0761
20.0899
20.0758
20.089
20.0926
20.0993
20.0908
20.0977
20.0934
20.0934
20.093
20.093
20.0962
20.0962
20.0956
20.0956
20.0899
20.0761
20.089
20.0758
20.0993
20.0926
20.0977
20.0908
20.0599
20.1909
20.0621
20.1925
20.05
20.1649
20.0526
20.1685
20.1882
20.0551
20.1895
20.0575
20.1587
20.0445
20.1616
20.0473
20.0761
20.0919
20.0762
20.0908
20.095
20.1028
20.0939
20.1011
20.0952
20.0952
20.0941
20.0941
20.0985
20.0985
20.0972
20.0972
20.0919
20.0762
20.0908
20.0762
20.1028
20.095
20.1011
20.094
20.0551
20.1881
20.0575
20.1895
20.0445
20.1587
20.0473
20.1616
20.1858
20.0503
20.1869
20.0526
20.1537
20.0391
20.1561
20.0417
20.0755
20.094
20.0759
20.093
20.0959
20.1062
20.0956
20.1046
20.0979
20.0979
20.0965
20.0965
20.1015
20.1015
20.0999
20.0999
20.094
20.0756
20.093
20.0759
20.1062
20.0959
20.1046
20.0956
20.0503
20.1858
20.0526
20.1869
20.0391
20.1537
20.0417
20.1561
20.1838
20.0458
20.1848
20.048
20.1496
20.0342
20.1516
20.0366
20.0746
20.0958
20.0751
20.0949
20.096
20.1093
20.0961
20.1078
20.1006
20.1006
20.0992
20.0992
20.1047
20.1047
20.1031
20.1031
20.0958
20.0746
20.095
20.0751
20.1093
20.096
20.1078
20.0961
20.0458
20.1837
20.048
20.1847
20.0342
20.1496
20.0366
20.1516
20.182
20.0417
20.1828
20.0437
20.1462
20.0297
20.1478
20.0319
20.0735
20.0973
20.074
20.0966
20.0957
20.1118
20.0959
20.1106
20.1033
20.1033
20.102
20.102
20.1077
20.1077
20.1062
20.1062
20.0973
20.0735
20.0966
20.0741
20.1118
20.0957
20.1106
20.0959
20.0417
20.1819
20.0437
20.1828
20.0297
20.1462
20.0319
20.1478
20.1803
20.038
20.1811
20.0398
20.1433
20.0257
20.1447
20.0276
20.0722
20.0985
20.0729
20.0979
20.095
20.1138
20.0954
20.1129
20.1056
20.1056
20.1045
20.1045
20.1103
20.1103
20.1091
20.1091
20.0985
20.0722
20.0979
20.0729
20.1138
20.095
20.1129
20.0954
20.0381
20.1803
20.0398
20.1811
20.0257
20.1433
20.0277
20.1447
20.1788
20.0347
20.1795
20.0363
20.1407
20.0221
20.142
20.0238
20.071
20.0992
20.0716
20.0989
20.0942
20.1153
20.0946
20.1146
20.1074
20.1074
20.1066
20.1066
20.1125
20.1125
20.1115
20.1115
20.0993
20.071
20.0989
20.0716
20.1153
20.0942
20.1146
20.0946
20.0348
20.1787
20.0364
20.1795
20.0221
20.1407
20.0238
20.1419
20.1773
20.0318
20.178
20.0332
20.1384
20.0189
20.1395
20.0204
20.0697
20.0997
20.0703
20.0995
20.0932
20.1163
20.0937
20.1159
20.1088
20.1088
20.1082
20.1082
20.1141
20.1141
20.1133
20.1133
20.0997
20.0697
20.0995
20.0703
20.1163
20.0932
20.1159
20.0937
20.0318
20.1773
20.0332
20.178
20.0189
20.1384
20.0204
20.1395
20.1759
20.0291
20.1766
20.0304
20.1363
20.016
20.1374
20.0174
20.0684
20.0999
20.069
20.0998
20.0921
20.1169
20.0926
20.1166
20.1098
20.1098
20.1094
20.1094
20.1152
20.1152
20.1147
20.1147
20.0999
20.0684
20.0998
20.0691
20.1169
20.0921
20.1166
20.0927
20.0291
20.1758
20.0304
20.1766
20.016
20.1363
20.0174
20.1374
20.1744
20.0266
20.1751
20.0278
20.1344
20.0133
20.1353
20.0146
20.0671
20.0998
20.0677
20.0999
20.0909
20.1171
20.0915
20.117
20.1104
20.1104
20.1101
20.1101
20.1158
20.1158
20.1155
20.1155
20.0998
20.0671
20.0999
20.0678
20.1171
20.0909
20.117
20.0915
20.0266
20.1744
20.0278
20.1751
20.0134
20.1344
20.0146
20.1353
20.173
20.0244
20.1737
20.0255
20.1325
20.0109
20.1334
20.0121
20.0658
20.0994
20.0664
20.0996
20.0896
20.1169
20.0903
20.117
20.1106
20.1106
20.1105
20.1105
20.116
20.116
20.116
20.116
20.0994
20.0658
20.0996
20.0665
20.1169
20.0896
20.117
20.0903
20.0244
20.1729
20.0255
20.1737
20.011
20.1325
20.0121
20.1334
20.1714
20.0224
20.1722
20.0233
20.1307
20.0088
20.1316
20.0098
20.0645
20.0989
20.0652
20.0992
20.0883
20.1165
20.089
20.1167
20.1104
20.1104
20.1105
20.1105
20.1158
20.1158
20.116
20.116
20.0989
20.0646
20.0992
20.0652
20.1165
20.0883
20.1167
20.089
20.0224
20.1713
20.0234
20.1722
20.0088
20.1307
20.0099
20.1316
20.1698
20.0206
20.1706
20.0215
20.129
20.0067
20.1298
20.0078
20.0633
20.0981
20.0639
20.0985
20.0869
20.1158
20.0876
20.1162
20.11
20.11
20.1102
20.1102
20.1153
20.1153
20.1156
20.1156
20.0981
20.0634
20.0985
20.064
20.1158
20.0869
20.1162
20.0876
20.0207
20.1697
20.0215
20.1705
20.0068
20.1289
20.0078
20.1298
20.1683
20.0189
20.169
20.0197
20.1274
20.0049
20.1282
20.0058
20.0621
20.0974
20.0627
20.0977
20.0854
20.1148
20.0861
20.1154
20.1093
20.1094
20.1097
20.1097
20.1145
20.1145
20.1149
20.1149
20.0974
20.0622
20.0978
20.0628
20.1148
20.0854
20.1154
20.0862
20.019
20.1682
20.0198
20.1689
20.0048
20.1274
20.0058
20.1282
20.1673
20.0171
20.1678
20.018
20.1259
20.0031
20.1266
20.0039
20.0609
20.0965
20.0615
20.097
20.0839
20.1136
20.0846
20.1143
20.1086
20.1086
20.109
20.109
20.1135
20.1135
20.114
20.114
20.0966
20.0609
20.097
20.0615
20.1137
20.0839
20.1143
20.0847
20.0172
20.167
20.0181
20.1676
20.0032
20.1257
20.004
20.1266
20.1657
20.0159
20.1665
20.0164
20.1241
20.0018
20.125
20.0024
20.0599
20.0957
20.0604
20.0961
20.0824
20.1124
20.0831
20.1131
20.1077
20.1077
20.1081
20.1082
20.1123
20.1123
20.1129
20.1129
20.0957
20.0599
20.0961
20.0604
20.1124
20.0824
20.1131
20.0832
20.0159
20.1657
20.0165
20.1664
20.0017
20.1243
20.0024
20.125
20.1648
20.0146
20.1653
20.0152
20.1229
20.0003
20.1235
20.001
20.0589
20.0948
20.0594
20.0953
20.0808
20.1111
20.0816
20.1118
20.1068
20.1068
20.1073
20.1073
20.111
20.111
20.1117
20.1117
20.0948
20.0589
20.0953
20.0594
20.1111
20.0809
20.1118
20.0817
20.0147
20.1646
20.0153
20.1651
20.0005
20.1227
20.001
20.1235
20.1633
20.0139
20.1641
20.0142
20.1213
19.9995
20.1221
19.9999
20.0583
20.0941
20.0585
20.0944
20.0793
20.1098
20.0801
20.1105
20.1059
20.1059
20.1064
20.1064
20.1097
20.1097
20.1103
20.1103
20.0941
20.0583
20.0944
20.0586
20.1098
20.0793
20.1105
20.0801
20.014
20.1633
20.0143
20.1639
19.9994
20.1215
19.9999
20.122
20.1627
20.0133
20.1629
20.0136
20.1204
19.9985
20.1209
19.9989
20.0577
20.0934
20.058
20.0937
20.0776
20.1086
20.0785
20.1092
20.1051
20.1051
20.1055
20.1055
20.1084
20.1084
20.109
20.109
20.0934
20.0577
20.0937
20.058
20.1086
20.0776
20.1092
20.0785
20.0133
20.1626
20.0136
20.163
19.9987
20.1202
19.9989
20.1209
20.1616
20.0132
20.1622
20.0132
20.1191
19.9983
20.1198
19.9984
20.0581
20.093
20.0579
20.0932
20.0765
20.1075
20.0769
20.108
20.1044
20.1044
20.1047
20.1047
20.1071
20.1071
20.1078
20.1078
20.093
20.0581
20.0932
20.0579
20.1075
20.0764
20.108
20.0769
20.0133
20.1615
20.0132
20.1621
19.9982
20.1194
19.9984
20.1197
20.1615
20.013
20.1615
20.0131
20.1187
19.9981
20.1189
19.9981
20.0577
20.0926
20.0578
20.0928
20.0773
20.1065
20.077
20.107
20.1038
20.1038
20.1041
20.1041
20.106
20.106
20.1065
20.1065
20.0926
20.0577
20.0928
20.0578
20.1065
20.0774
20.107
20.0769
20.0131
20.1614
20.0131
20.1614
19.9982
20.1185
19.9981
20.119
20.161
20.0137
20.1613
20.0132
20.118
19.9986
20.1183
19.9983
20.0581
20.0926
20.0578
20.0926
20.0779
20.1058
20.0776
20.1061
20.1035
20.1035
20.1036
20.1036
20.105
20.105
20.1055
20.1055
20.0926
20.0581
20.0926
20.0578
20.1058
20.0778
20.1061
20.0776
20.0137
20.161
20.0133
20.1612
19.9985
20.1182
19.9983
20.1182
20.1612
20.0145
20.161
20.0141
20.1181
19.9993
20.118
19.9988
20.0589
20.0929
20.0584
20.0927
20.0784
20.1054
20.0781
20.1056
20.1035
20.1035
20.1035
20.1035
20.1044
20.1044
20.1047
20.1047
20.0929
20.0589
20.0927
20.0584
20.1054
20.0784
20.1056
20.0781
20.0145
20.1611
20.0141
20.161
19.9994
20.118
19.9988
20.1181
20.1617
20.0163
20.1614
20.0154
20.1183
20.0008
20.1181
20
20.0602
20.0936
20.0595
20.0932
20.0793
20.1053
20.0788
20.1053
20.1039
20.1039
20.1036
20.1036
20.1041
20.1041
20.1042
20.1042
20.0936
20.0602
20.0932
20.0595
20.1053
20.0793
20.1053
20.0788
20.0163
20.1616
20.0154
20.1613
20.0008
20.1183
20
20.1181
20.1626
20.0185
20.1621
20.0173
20.1191
20.0025
20.1186
20.0016
20.0619
20.0946
20.061
20.0941
20.0804
20.1055
20.0798
20.1053
20.1046
20.1046
20.1042
20.1042
20.1042
20.1042
20.1041
20.1041
20.0946
20.0619
20.0941
20.061
20.1055
20.0804
20.1053
20.0798
20.0185
20.1625
20.0173
20.162
20.0025
20.1191
20.0016
20.1186
20.1638
20.0212
20.1632
20.0197
20.1204
20.0047
20.1197
20.0035
20.064
20.0961
20.0629
20.0953
20.0819
20.1062
20.0811
20.1058
20.1057
20.1057
20.1051
20.1051
20.1048
20.1048
20.1044
20.1044
20.0961
20.064
20.0953
20.0629
20.1062
20.082
20.1058
20.0811
20.0213
20.1638
20.0198
20.1631
20.0047
20.1203
20.0035
20.1197
20.1655
20.025
20.1646
20.0229
20.1222
20.007
20.1212
20.0058
20.0666
20.0979
20.0652
20.097
20.0839
20.1072
20.0829
20.1067
20.1073
20.1073
20.1065
20.1065
20.1058
20.1058
20.1052
20.1052
20.0979
20.0666
20.097
20.0652
20.1072
20.0839
20.1066
20.0829
20.025
20.1654
20.023
20.1646
20.0071
20.1221
20.0059
20.1212
20.1675
20.0281
20.1665
20.027
20.1245
20.0107
20.1233
20.0085
20.0695
20.1002
20.068
20.099
20.0862
20.1087
20.085
20.1079
20.1093
20.1093
20.1083
20.1083
20.1073
20.1073
20.1065
20.1065
20.1002
20.0695
20.099
20.068
20.1087
20.0862
20.1079
20.085
20.0281
20.1674
20.027
20.1664
20.0107
20.1244
20.0085
20.1232
20.1697
20.0311
20.1686
20.0295
20.1272
20.0151
20.1258
20.0129
20.0727
20.1028
20.071
20.1015
20.0888
20.1106
20.0875
20.1096
20.1117
20.1117
20.1105
20.1105
20.1093
20.1093
20.1082
20.1082
20.1028
20.0727
20.1015
20.071
20.1106
20.0888
20.1096
20.0875
20.0311
20.1697
20.0295
20.1685
20.0152
20.1272
20.0129
20.1258
20.1722
20.0349
20.1709
20.0329
20.1304
20.0197
20.1288
20.0174
20.0762
20.1058
20.0744
20.1043
20.0918
20.1129
20.0903
20.1117
20.1145
20.1145
20.1131
20.1131
20.1118
20.1118
20.1105
20.1105
20.1058
20.0762
20.1043
20.0744
20.1129
20.0918
20.1117
20.0903
20.0349
20.1721
20.0329
20.1709
20.0198
20.1304
20.0174
20.1287
20.1745
20.0391
20.1734
20.0369
20.1339
20.0247
20.1321
20.0221
20.0801
20.1091
20.0781
20.1074
20.095
20.1156
20.0934
20.1142
20.1177
20.1177
20.1161
20.1161
20.1147
20.1147
20.1132
20.1132
20.1091
20.0801
20.1074
20.0781
20.1156
20.095
20.1142
20.0934
20.0391
20.1744
20.0369
20.1733
20.0247
20.1339
20.0222
20.1321
20.1762
20.044
20.1755
20.0414
20.1375
20.03
20.1357
20.0272
20.0842
20.1125
20.0821
20.1108
20.0985
20.1186
20.0967
20.1171
20.1212
20.1212
20.1194
20.1194
20.1181
20.1181
20.1164
20.1164
20.1125
20.0842
20.1108
20.0821
20.1186
20.0985
20.1171
20.0967
20.044
20.1761
20.0414
20.1754
20.03
20.1374
20.0272
20.1357
20.1763
20.05
20.1766
20.0467
20.1404
20.0361
20.1391
20.0329
20.0887
20.1162
20.0864
20.1143
20.102
20.1218
20.1002
20.1202
20.125
20.125
20.1231
20.1231
20.122
20.122
20.12
20.12
20.1162
20.0887
20.1143
20.0864
20.1218
20.102
20.1202
20.1002
20.05
20.1762
20.0467
20.1765
20.0361
20.1403
20.0329
20.139
20.1695
20.0617
20.1745
20.0545
20.1388
20.046
20.1408
20.04
20.0934
20.1199
20.0909
20.118
20.1057
20.1254
20.1038
20.1235
20.1294
20.1294
20.1271
20.1271
20.1264
20.1264
20.1241
20.1241
20.1199
20.0934
20.118
20.0909
20.1254
20.1057
20.1235
20.1038
20.0617
20.1695
20.0545
20.1745
20.046
20.1388
20.04
20.1407
20.1821
20.056
20.1638
20.07
20.1502
20.0436
20.1358
20.053
20.0945
20.1245
20.0956
20.122
20.1079
20.1299
20.1077
20.1275
20.1342
20.1342
20.1317
20.1317
20.1313
20.1313
20.1288
20.1288
20.1245
20.0945
20.122
20.0956
20.1299
20.1079
20.1275
20.1077
20.056
20.182
20.07
20.1637
20.0436
20.1502
20.053
20.1358
20.2407
20.0248
20.1859
20.0459
20.2316
20.0252
20.1786
20.0477
20.0639
20.0914
20.0798
20.0973
20.0692
20.0944
20.0834
20.0984
20.0998
20.0998
20.1004
20.1004
20.1001
20.1001
20.1001
20.1001
20.0914
20.0639
20.0973
20.0798
20.0944
20.0692
20.0984
20.0834
20.0248
20.2407
20.0459
20.1859
20.0252
20.2316
20.0478
20.1786
20.209
20.0754
20.2209
20.0572
20.2084
20.0669
20.2176
20.0517
20.063
20.0815
20.063
20.086
20.066
20.0856
20.067
20.0897
20.0936
20.0936
20.0974
20.0974
20.0962
20.0962
20.0989
20.0989
20.0815
20.0631
20.086
20.063
20.0856
20.066
20.0897
20.067
20.0754
20.209
20.0572
20.2208
20.0669
20.2083
20.0517
20.2176
20.1997
20.0901
20.2034
20.0849
20.2009
20.0783
20.2039
20.0746
20.0661
20.0774
20.0644
20.0789
20.0679
20.082
20.0667
20.0833
20.0871
20.0871
20.0901
20.0901
20.0912
20.0912
20.0936
20.0936
20.0774
20.0661
20.0789
20.0644
20.082
20.0679
20.0833
20.0667
20.0901
20.1996
20.0849
20.2033
20.0783
20.2009
20.0746
20.2039
20.1948
20.0937
20.1969
20.0926
20.1968
20.0799
20.1986
20.0798
20.0686
20.0762
20.0675
20.0766
20.0696
20.0812
20.0689
20.0813
20.0834
20.0834
20.0848
20.0848
20.0885
20.0885
20.0895
20.0895
20.0762
20.0686
20.0766
20.0676
20.0812
20.0696
20.0814
20.0689
20.0937
20.1948
20.0926
20.1969
20.0799
20.1967
20.0798
20.1986
20.1915
20.0933
20.1931
20.0938
20.1939
20.0779
20.1952
20.0791
20.0696
20.0761
20.0693
20.076
20.0701
20.0816
20.07
20.0812
20.0823
20.0823
20.0826
20.0826
20.0881
20.0881
20.088
20.088
20.0761
20.0696
20.0761
20.0693
20.0816
20.0701
20.0813
20.07
20.0933
20.1915
20.0938
20.193
20.078
20.1939
20.0791
20.1952
20.1889
20.0915
20.1902
20.0925
20.1916
20.0748
20.1927
20.0765
20.0694
20.0766
20.0696
20.0763
20.0697
20.0826
20.07
20.0821
20.0828
20.0828
20.0824
20.0824
20.0893
20.0893
20.0886
20.0886
20.0766
20.0694
20.0763
20.0696
20.0826
20.0697
20.0821
20.07
20.0915
20.1889
20.0925
20.1901
20.0748
20.1916
20.0765
20.1927
20.1867
20.089
20.1878
20.0903
20.1896
20.0714
20.1906
20.0731
20.0688
20.0772
20.0692
20.0769
20.0688
20.0837
20.0693
20.0831
20.0842
20.0842
20.0834
20.0834
20.0912
20.0912
20.0902
20.0902
20.0773
20.0688
20.077
20.0692
20.0837
20.0688
20.0831
20.0693
20.089
20.1867
20.0903
20.1877
20.0714
20.1896
20.0731
20.1906
20.1848
20.0865
20.1857
20.0877
20.1879
20.068
20.1887
20.0697
20.068
20.0778
20.0684
20.0776
20.0676
20.0847
20.0682
20.0842
20.0858
20.0858
20.085
20.085
20.0934
20.0934
20.0923
20.0923
20.0779
20.068
20.0776
20.0684
20.0847
20.0677
20.0842
20.0682
20.0865
20.1847
20.0877
20.1857
20.068
20.1879
20.0697
20.1887
20.183
20.0839
20.1839
20.0852
20.1863
20.0649
20.1871
20.0664
20.067
20.0783
20.0675
20.0781
20.0664
20.0855
20.067
20.0851
20.0874
20.0874
20.0866
20.0866
20.0955
20.0955
20.0945
20.0945
20.0784
20.067
20.0781
20.0675
20.0856
20.0664
20.0851
20.067
20.0839
20.183
20.0852
20.1839
20.0649
20.1863
20.0664
20.1871
20.1815
20.0815
20.1823
20.0827
20.1849
20.0619
20.1856
20.0633
20.0659
20.0787
20.0665
20.0785
20.0651
20.0862
20.0658
20.0859
20.0887
20.0887
20.0881
20.0881
20.0973
20.0973
20.0965
20.0965
20.0787
20.066
20.0786
20.0665
20.0862
20.0651
20.0859
20.0658
20.0816
20.1815
20.0827
20.1822
20.0619
20.1849
20.0634
20.1856
20.1801
20.0793
20.1808
20.0804
20.1836
20.0592
20.1842
20.0605
20.0649
20.0789
20.0654
20.0788
20.0638
20.0866
20.0645
20.0864
20.0898
20.0898
20.0893
20.0893
20.0988
20.0988
20.0981
20.0981
20.0789
20.0649
20.0788
20.0654
20.0866
20.0638
20.0864
20.0645
20.0793
20.1801
20.0804
20.1808
20.0592
20.1835
20.0605
20.1842
20.1788
20.0773
20.1794
20.0783
20.1823
20.0568
20.1829
20.058
20.0637
20.0789
20.0643
20.0789
20.0625
20.0868
20.0632
20.0867
20.0906
20.0906
20.0902
20.0902
20.0998
20.0998
20.0993
20.0993
20.0789
20.0637
20.0789
20.0643
20.0868
20.0625
20.0867
20.0632
20.0773
20.1787
20.0783
20.1794
20.0568
20.1822
20.058
20.1829
20.1775
20.0754
20.1781
20.0763
20.181
20.0545
20.1816
20.0556
20.0625
20.0787
20.0631
20.0788
20.0612
20.0867
20.0619
20.0868
20.0911
20.0911
20.0909
20.0909
20.1005
20.1005
20.1002
20.1002
20.0787
20.0625
20.0788
20.0631
20.0867
20.0612
20.0868
20.0619
20.0754
20.1775
20.0763
20.1781
20.0545
20.1809
20.0556
20.1816
20.1763
20.0736
20.1769
20.0744
20.1797
20.0524
20.1804
20.0534
20.0613
20.0784
20.0619
20.0785
20.0599
20.0865
20.0606
20.0866
20.0914
20.0914
20.0913
20.0913
20.1009
20.1009
20.1008
20.1008
20.0784
20.0614
20.0786
20.0619
20.0865
20.06
20.0866
20.0606
20.0736
20.1762
20.0744
20.1769
20.0524
20.1797
20.0534
20.1803
20.175
20.0719
20.1757
20.0727
20.1784
20.0504
20.1791
20.0514
20.0602
20.0779
20.0608
20.0782
20.0587
20.086
20.0593
20.0863
20.0914
20.0914
20.0914
20.0914
20.1009
20.1009
20.101
20.101
20.0779
20.0602
20.0782
20.0608
20.0861
20.0587
20.0863
20.0593
20.0719
20.175
20.0727
20.1756
20.0504
20.1784
20.0514
20.1791