/*--------------------------------*- C++ -*----------------------------------*\
  =========                 |
  \\      /  F ield         | OpenFOAM: The Open Source CFD Toolbox
   \\    /   O peration     | Website:  https://openfoam.org
    \\  /    A nd           | Version:  9
     \\/     M anipulation  |
\*---------------------------------------------------------------------------*/
FoamFile
{
    format      ascii;
    class       volScalarField;
    location    "3.9";
    object      epsilon;
}
// * * * * * * * * * * * * * * * * * * * * * * * * * * * * * * * * * * * * * //

dimensions      [0 2 -3 0 0 0 0];

internalField   nonuniform List<scalar> 
36360
(
0.421107
0.338019
0.216463
0.188053
0.215621
0.167141
0.0407245
0.0489938
0.134847
0.050255
0.0535928
0.0132874
0.0590753
0.0170973
0.0128926
0.00597548
0.0212853
0.0212803
0.00606829
0.00606816
0.00785666
0.00785779
0.00476183
0.00476198
0.0502282
0.134781
0.0132826
0.0535631
0.0170969
0.0590529
0.00597601
0.01289
0.337912
0.421005
0.187988
0.216395
0.167062
0.215507
0.0489691
0.0406984
0.6955
0.562962
0.573223
0.459575
0.573015
0.435569
0.402658
0.300554
0.292677
0.164681
0.215112
0.104096
0.239187
0.137098
0.141918
0.0612309
0.114055
0.114032
0.0615023
0.0614884
0.0974929
0.0974816
0.0327118
0.0327117
0.164604
0.292534
0.104045
0.215008
0.137047
0.239057
0.0612158
0.141851
0.562766
0.695313
0.459425
0.573079
0.435316
0.57267
0.300397
0.402436
0.901637
0.745384
0.802954
0.657182
0.889097
0.705295
0.733394
0.570281
0.441937
0.291949
0.368291
0.228016
0.453657
0.320883
0.344022
0.225457
0.230372
0.230331
0.171312
0.171279
0.267189
0.267148
0.178276
0.17825
0.291819
0.441715
0.227912
0.368108
0.320743
0.453375
0.225364
0.343819
0.745095
0.901364
0.656939
0.802723
0.704819
0.888468
0.56992
0.732909
1.07993
0.908311
0.993567
0.828911
1.19033
0.973025
1.04137
0.839825
0.582672
0.417748
0.513506
0.355472
0.678869
0.521555
0.565808
0.420205
0.348577
0.348519
0.289811
0.289761
0.456265
0.456192
0.360489
0.360432
0.417571
0.582378
0.355318
0.513247
0.521318
0.678424
0.420017
0.565445
0.907941
1.07959
0.828579
0.993259
0.972313
1.1894
0.83923
1.04059
1.23749
1.05479
1.16123
0.983669
1.47365
1.22976
1.33461
1.10326
0.712669
0.53657
0.649225
0.478334
0.901047
0.723358
0.790981
0.622994
0.46169
0.461618
0.406112
0.406047
0.648283
0.648178
0.552585
0.552496
0.536354
0.712316
0.478137
0.648901
0.723026
0.900443
0.622709
0.790455
1.05436
1.2371
0.983264
1.16086
1.22882
1.47243
1.10243
1.33353
1.37527
1.18422
1.30888
1.12172
1.73189
1.46695
1.6061
1.35107
0.829584
0.644953
0.772928
0.592281
1.1101
0.915703
1.00758
0.821121
0.565716
0.565633
0.515076
0.514998
0.832585
0.832451
0.74182
0.7417
0.644704
0.829184
0.592048
0.77255
0.915284
1.10935
0.820744
1.0069
1.18374
1.37485
1.12126
1.30847
1.46581
1.73042
1.35002
1.60475
1.49363
1.29624
1.4369
1.24247
1.96061
1.67912
1.84994
1.57622
0.932077
0.740919
0.882755
0.694644
1.29956
1.09163
1.20743
1.00592
0.65835
0.658258
0.613629
0.613541
1.00201
1.00185
0.919368
0.919221
0.740644
0.931641
0.694381
0.882336
1.09113
1.29868
1.00546
1.20662
1.29572
1.49319
1.24196
1.43647
1.6778
1.95891
1.57499
1.84835
1.59339
1.3912
1.54585
1.34589
2.15808
1.86369
2.0631
1.77475
1.01983
0.8237
0.977886
0.784072
1.46599
1.24724
1.38563
1.172
0.738591
0.738492
0.700145
0.700048
1.15243
1.15225
1.07963
1.07946
0.823406
1.01936
0.783787
0.977435
1.24668
1.465
1.17147
1.3847
1.39065
1.59295
1.34536
1.54541
1.86221
2.15619
1.77335
2.06129
1.6757
1.46991
1.63673
1.43261
2.32442
2.02006
2.24488
1.94516
1.09319
0.89333
1.05838
0.860247
1.6081
1.38083
1.53994
1.31668
0.806304
0.806199
0.774109
0.774006
1.28192
1.28172
1.21969
1.2195
0.89302
1.09271
0.859944
1.0579
1.38021
1.60702
1.31608
1.5389
1.46935
1.67525
1.43205
1.63628
2.01845
2.32237
1.94362
2.24289
1.7421
1.53369
1.71091
1.5037
2.46124
2.14928
2.39619
2.08775
1.15309
0.95048
1.12489
0.923544
1.72629
1.49241
1.66996
1.43917
0.862034
0.861924
0.835751
0.835643
1.39033
1.39011
1.33857
1.33836
0.950158
1.15259
0.923228
1.12439
1.49174
1.72513
1.43852
1.66883
1.53311
1.74166
1.50313
1.71046
2.14756
2.45905
2.08608
2.39405
1.79421
1.58396
1.76996
1.56054
2.57083
2.25319
2.51905
2.20402
1.20069
0.996131
1.17849
0.974821
1.82188
1.58298
1.77662
1.54005
0.906665
0.906552
0.885817
0.885706
1.4785
1.47826
1.43668
1.43646
0.995799
1.20017
0.974493
1.17798
1.58227
1.82065
1.53936
1.77542
1.58337
1.79377
1.55996
1.76951
2.25139
2.56852
2.20226
2.51678
1.83376
1.62231
1.8156
1.60468
2.65598
2.33424
2.61606
2.29618
1.23733
1.03148
1.22046
1.01518
1.89682
1.65426
1.86161
1.62074
0.941323
0.941207
0.925331
0.925217
1.54802
1.54777
1.5153
1.51506
1.03114
1.23681
1.01485
1.21994
1.65352
1.89554
1.62001
1.86036
1.62172
1.83332
1.60409
1.81515
2.33236
2.65358
2.29433
2.61368
1.86235
1.65025
1.84947
1.63764
2.71953
2.39497
2.69003
2.36673
1.26438
1.05776
1.25215
1.04585
1.95334
1.70824
1.92704
1.68309
0.967179
0.967061
0.955451
0.955334
1.60077
1.60051
1.57617
1.57593
1.05742
1.26385
1.04551
1.25162
1.70747
1.95202
1.68234
1.92574
1.64965
1.86192
1.63704
1.84904
2.39303
2.71705
2.36481
2.68757
1.88155
1.66925
1.8732
1.66095
2.76436
2.43804
2.74386
2.4183
1.28315
1.07621
1.27491
1.06808
1.99377
1.74706
1.97522
1.72922
0.985423
0.985304
0.977368
0.977249
1.63879
1.63854
1.6213
1.62105
1.07587
1.28262
1.06774
1.27437
1.74627
1.99242
1.72844
1.97388
1.66865
1.88113
1.66035
1.87277
2.43605
2.76182
2.41633
2.74134
1.89273
1.68061
1.88824
1.67598
2.79308
2.46588
2.78033
2.45346
1.29486
1.08797
1.29002
1.08306
2.02032
1.77277
2.00844
1.76123
0.997161
0.997041
0.992237
0.992118
1.6641
1.66383
1.65272
1.65246
1.08762
1.29432
1.08271
1.28948
1.77197
2.01894
1.76044
2.00708
1.68001
1.89232
1.67539
1.88782
2.46387
2.79051
2.45146
2.77776
1.89713
1.68553
1.89589
1.684
2.80813
2.48078
2.80193
2.47456
1.30061
1.09408
1.29863
1.09188
2.03504
1.78732
2.02883
1.78113
1.0034
1.00328
1.00112
1.001
1.67855
1.67828
1.67237
1.6721
1.09373
1.30007
1.09153
1.29809
1.78652
2.03365
1.78033
2.02745
1.68495
1.89673
1.6834
1.89549
2.47874
2.80553
2.47253
2.79932
1.89589
1.68511
1.89731
1.6861
2.81145
2.48456
2.81091
2.48373
1.30137
1.09543
1.30176
1.09552
2.03966
1.79236
2.03834
1.79077
1.00501
1.00489
1.00495
1.00483
1.68376
1.6835
1.68204
1.68177
1.09508
1.30083
1.09517
1.30123
1.79155
2.03827
1.78996
2.03695
1.68453
1.8955
1.68552
1.89691
2.48252
2.80884
2.48168
2.80829
1.88988
1.68022
1.89366
1.68341
2.80551
2.4796
2.80958
2.48307
1.29805
1.09298
1.30042
1.09488
2.0363
1.78981
2.03883
1.79183
1.00293
1.00281
1.00463
1.00451
1.68156
1.6813
1.68335
1.68309
1.09263
1.29752
1.09453
1.29989
1.789
2.0349
1.79102
2.03743
1.67964
1.8895
1.68282
1.89327
2.47756
2.8029
2.48103
2.80696
1.87976
1.67146
1.88549
1.67648
2.79106
2.46657
2.79896
2.4737
1.29116
1.08712
1.29523
1.09065
2.0256
1.78036
2.03152
1.78562
0.997543
0.997425
1.00082
1.0007
1.67268
1.67241
1.67764
1.67738
1.08678
1.29063
1.0903
1.2947
1.77955
2.02421
1.78481
2.03013
1.6709
1.87938
1.67591
1.88511
2.46455
2.78846
2.47166
2.79634
1.86618
1.6595
1.87358
1.66607
2.76968
2.44702
2.78093
2.4573
1.28133
1.07851
1.28682
1.08337
2.00903
1.76539
2.01779
1.77332
0.989489
0.989372
0.99405
0.993932
1.65844
1.65818
1.66598
1.66572
1.07817
1.28082
1.08302
1.28629
1.76459
2.00766
1.77251
2.01641
1.65894
1.86581
1.6655
1.87321
2.44501
2.76711
2.45527
2.77833
1.84959
1.64477
1.85845
1.65267
2.74231
2.42183
2.75645
2.43483
1.269
1.06755
1.27569
1.07354
1.9874
1.74568
1.9986
1.75589
0.979162
0.979046
0.984818
0.984701
1.6396
1.63934
1.64936
1.6491
1.06722
1.26849
1.0732
1.27518
1.74489
1.98605
1.7551
1.99724
1.64421
1.84923
1.65211
1.85809
2.41984
2.73978
2.43283
2.75388
1.83032
1.62759
1.84049
1.63668
2.70967
2.39169
2.72637
2.40709
1.25447
1.05455
1.26223
1.06153
1.96137
1.72184
1.9747
1.73405
0.966863
0.966749
0.973473
0.973359
1.61676
1.61651
1.62846
1.6282
1.05422
1.25396
1.06119
1.26172
1.72106
1.96003
1.73327
1.97336
1.62705
1.82998
1.63613
1.84013
2.38974
2.70718
2.40512
2.72384
1.80862
1.60821
1.81998
1.61838
2.6723
2.35713
2.69132
2.3747
1.23797
1.03973
1.24669
1.04759
1.9314
1.69434
1.94666
1.70834
0.952812
0.9527
0.960276
0.960163
1.59038
1.59013
1.6038
1.60355
1.0394
1.23748
1.04726
1.24619
1.69358
1.93009
1.70757
1.94534
1.60768
1.80829
1.61784
1.81964
2.35522
2.66986
2.37276
2.68883
1.78466
1.5868
1.79713
1.59797
2.63057
2.3185
2.65174
2.33807
1.21967
1.02323
1.22927
1.03191
1.89784
1.66348
1.91487
1.67913
0.937157
0.937047
0.945407
0.945296
1.56075
1.56051
1.57577
1.57553
1.02291
1.21918
1.03159
1.22878
1.66274
1.89656
1.67838
1.91357
1.58628
1.78433
1.59744
1.7968
2.31663
2.62818
2.33618
2.6493
1.75853
1.56345
1.77207
1.57558
2.58469
2.27601
2.60791
2.2975
1.19965
1.00516
1.2101
1.01462
1.86088
1.62947
1.87959
1.64668
0.919987
0.91988
0.928985
0.928876
1.52808
1.52784
1.54461
1.54437
1.00485
1.19918
1.01431
1.20963
1.62874
1.85964
1.64595
1.87833
1.56295
1.75821
1.57506
1.77174
2.27419
2.58236
2.29565
2.60554
1.73029
1.53822
1.74488
1.55128
2.5348
2.22978
2.56003
2.25313
1.17797
0.985556
1.18925
0.995777
1.82063
1.5924
1.84099
1.61114
0.901345
0.901241
0.911074
0.910968
1.49245
1.49222
1.51046
1.51022
0.985253
1.17751
0.99547
1.18878
1.59169
1.81942
1.61042
1.83976
1.53773
1.72998
1.55078
1.74456
2.22801
2.53254
2.25134
2.55772
1.69997
1.51112
1.7156
1.52511
2.48093
2.17985
2.50816
2.20506
1.15463
0.96442
1.16674
0.975405
1.77712
1.55229
1.79912
1.57256
0.881233
0.881132
0.891695
0.891592
1.45389
1.45367
1.47337
1.47315
0.964124
1.15418
0.975105
1.16628
1.5516
1.77595
1.57186
1.79792
1.51064
1.69967
1.52463
1.71529
2.17814
2.47874
2.20332
2.50591
1.66758
1.48214
1.68424
1.49707
2.42306
2.12619
2.4523
2.15329
1.12961
0.941724
1.14256
0.953489
1.7303
1.5091
1.75397
1.53092
0.859621
0.859522
0.870834
0.870734
1.41236
1.41215
1.43334
1.43312
0.941438
1.12917
0.953198
1.14211
1.50844
1.72916
1.53025
1.75281
1.48167
1.66728
1.4966
1.68394
2.12453
2.42094
2.1516
2.45013
1.63307
1.45123
1.65079
1.46712
2.3611
2.06868
2.39241
2.09773
1.10285
0.917414
1.11667
0.92999
1.68007
1.46274
1.70546
1.48617
0.836453
0.836357
0.848447
0.84835
1.36778
1.36757
1.39031
1.39009
0.917136
1.10243
0.929708
1.11624
1.46211
1.67898
1.48552
1.70435
1.45078
1.63279
1.46666
1.6505
2.06708
2.35906
2.0961
2.39032
1.59643
1.41834
1.61521
1.43522
2.29492
2.00719
2.32836
2.03825
1.07429
0.891414
1.08901
0.904839
1.62632
1.4131
1.6535
1.4382
0.811651
0.811559
0.824467
0.824372
1.32002
1.31982
1.34416
1.34395
0.891145
1.07388
0.904566
1.0886
1.41249
1.62527
1.43757
1.65242
1.4179
1.59615
1.43478
1.61493
2.00566
2.29296
2.03668
2.32635
1.55759
1.38337
1.57747
1.4013
2.2244
1.94173
2.26004
1.97479
1.04383
0.863629
1.05951
0.877953
1.56889
1.36002
1.59793
1.38686
0.785122
0.785033
0.798807
0.798716
1.26895
1.26876
1.29477
1.29457
0.86337
1.04343
0.877688
1.0591
1.35944
1.56789
1.38627
1.59691
1.38295
1.55732
1.40087
1.57719
1.94027
2.22253
1.97329
2.25811
1.51649
1.34625
1.5375
1.36526
2.14933
1.87204
2.18728
1.90726
1.01136
0.833949
1.02805
0.849227
1.50761
1.30334
1.53861
1.33201
0.756754
0.756668
0.771365
0.771278
1.21441
1.21423
1.24199
1.24181
0.833699
1.01098
0.848972
1.02766
1.30279
1.50665
1.33144
1.53763
1.34584
1.51623
1.36484
1.53723
1.87064
2.14754
1.90583
2.18544
1.47308
1.30688
1.49525
1.32702
2.06945
1.79785
2.10985
1.83535
0.976775
0.802249
0.99453
0.818545
1.44225
1.24287
1.47533
1.27347
0.726421
0.726339
0.742023
0.741939
1.15622
1.15604
1.18566
1.18548
0.80201
0.97641
0.818301
0.994158
1.24234
1.44135
1.27293
1.4744
1.30648
1.47283
1.32662
1.49499
1.79652
2.06775
1.83399
2.1081
1.42726
1.26515
1.45063
1.28647
1.98448
1.71897
2.02747
1.75885
0.939935
0.768392
0.958824
0.785776
1.37262
1.17841
1.40787
1.21104
0.693984
0.693905
0.710648
0.710568
1.09419
1.09403
1.12558
1.12541
0.768163
0.939586
0.785541
0.958467
1.17792
1.37177
1.21053
1.40699
1.26477
1.42701
1.28608
1.45038
1.71772
1.98288
1.75756
2.02581
1.37901
1.22099
1.40359
1.24352
1.89414
1.63524
1.93986
1.67757
0.900714
0.732216
0.9208
0.750772
1.29851
1.10977
1.33603
1.14452
0.659269
0.659194
0.677088
0.677011
1.02813
1.02798
1.06158
1.06142
0.731999
0.900382
0.750549
0.920459
1.10931
1.29772
1.14405
1.33521
1.22063
1.37877
1.24315
1.40334
1.63408
1.89265
1.67636
1.93831
1.32853
1.17443
1.35416
1.19813
1.79827
1.54668
1.84676
1.59142
0.858968
0.693482
0.880328
0.713347
1.2197
1.03664
1.25961
1.07369
0.622001
0.621931
0.641132
0.641059
0.95772
0.957583
0.993398
0.993255
0.693277
0.858654
0.713136
0.880005
1.03622
1.21897
1.07325
1.25885
1.17409
1.3283
1.19778
1.35392
1.5456
1.79688
1.5903
1.84532
1.27687
1.1257
1.30283
1.15045
1.69758
1.45372
1.74827
1.50058
0.814315
0.651648
0.837208
0.673158
1.13575
0.958453
1.17834
0.998151
0.58164
0.581575
0.602401
0.602333
0.882419
0.882296
0.920636
0.920506
0.651456
0.814021
0.67296
0.836904
0.958075
1.13509
0.997751
1.17764
1.12537
1.27665
1.15012
1.30261
1.45274
1.69632
1.49955
1.74694
1.22891
1.07355
1.25184
1.10049
1.59749
1.35634
1.64653
1.40566
0.764599
0.605152
0.790548
0.629286
1.04455
0.873857
1.09127
0.916996
0.537123
0.537063
0.560119
0.560057
0.801527
0.801421
0.842616
0.842501
0.604976
0.764326
0.629102
0.790265
0.873529
1.04397
0.916643
1.09065
1.07325
1.22871
1.10018
1.25163
1.35547
1.59637
1.40473
1.64533
1.21407
0.99441
1.2132
1.0425
1.51307
1.22761
1.55363
1.30136
0.699567
0.550647
0.735382
0.57924
0.937205
0.781503
0.99378
0.828493
0.487182
0.487128
0.51299
0.512933
0.715868
0.715779
0.758985
0.758887
0.550488
0.699319
0.579072
0.735121
0.781227
0.936719
0.828192
0.993247
0.994131
1.21386
1.04221
1.21299
1.22688
1.51211
1.30056
1.55258
0.633976
0.511159
0.398332
0.32503
0.545433
0.437187
0.322254
0.264234
0.252787
0.126349
0.128859
0.0465494
0.19957
0.0895943
0.0926392
0.0276214
0.075388
0.0753648
0.0188703
0.0188635
0.0465024
0.0464889
0.0108817
0.0108795
0.126269
0.252641
0.0465091
0.128759
0.0895409
0.199463
0.0276031
0.0925761
0.510973
0.633816
0.324873
0.398181
0.43704
0.545302
0.264123
0.322144
0.938193
0.775344
0.80502
0.656569
0.832026
0.680924
0.706304
0.571043
0.463784
0.296428
0.363885
0.212013
0.384569
0.232369
0.296336
0.160379
0.224552
0.224509
0.148366
0.148331
0.169007
0.168972
0.105202
0.105177
0.296296
0.463577
0.211904
0.363705
0.232262
0.384392
0.160297
0.296192
0.775114
0.938019
0.656357
0.804849
0.680712
0.83185
0.570861
0.706148
1.14892
0.971005
1.05066
0.878733
1.0344
0.865444
0.939353
0.777753
0.640364
0.455513
0.555521
0.377878
0.544437
0.372668
0.466932
0.303482
0.373724
0.373668
0.300276
0.300226
0.298881
0.298831
0.234217
0.234174
0.455351
0.640125
0.377728
0.555294
0.37252
0.544205
0.303353
0.466725
0.970767
1.14877
0.878495
1.05049
0.865186
1.03421
0.777515
0.939163
1.31544
1.13071
1.23651
1.05457
1.19972
1.02087
1.12065
0.946149
0.792233
0.598345
0.719185
0.529138
0.686542
0.503164
0.617638
0.439421
0.510984
0.510922
0.444196
0.444137
0.422853
0.422792
0.362037
0.361981
0.59817
0.791988
0.528967
0.71894
0.502986
0.686274
0.439256
0.617386
1.13049
1.31534
1.05434
1.23638
1.02059
1.19953
0.945877
1.12046
1.45203
1.26407
1.38705
1.20041
1.33954
1.15446
1.27255
1.09025
0.922562
0.723705
0.860046
0.663315
0.811975
0.620978
0.751402
0.56384
0.633016
0.632953
0.574082
0.57402
0.536252
0.536184
0.481116
0.481052
0.723531
0.922331
0.66314
0.859806
0.620782
0.811689
0.563652
0.751123
1.2639
1.45201
1.20021
1.38699
1.15418
1.33938
1.08997
1.27237
1.56475
1.37536
1.51116
1.32234
1.45779
1.26861
1.40125
1.21392
1.03318
0.831613
0.980321
0.779906
0.920938
0.724769
0.868577
0.674754
0.738914
0.738854
0.688086
0.688024
0.636978
0.636906
0.588359
0.588289
0.831448
1.03297
0.779736
0.980102
0.724564
0.920646
0.674553
0.868286
1.37524
1.56482
1.32219
1.51119
1.26835
1.45767
1.21364
1.40111
1.65725
1.46741
1.61341
1.42372
1.55679
1.36488
1.50964
1.31897
1.12579
0.922851
1.08174
0.879372
1.01392
0.814207
0.969485
0.771384
0.828962
0.828905
0.785999
0.78594
0.724272
0.724198
0.682425
0.682352
0.9227
1.12561
0.879214
1.08155
0.814
1.01363
0.771177
0.969193
1.46736
1.65741
1.42363
1.61352
1.36463
1.55672
1.31871
1.50955
1.7323
1.54257
1.69689
1.50707
1.63851
1.44478
1.59979
1.40688
1.20215
0.998672
1.16603
0.962747
1.09181
0.889707
1.05481
0.853788
0.904119
0.904066
0.868475
0.86842
0.798275
0.798201
0.763036
0.762961
0.998537
1.20201
0.962604
1.16587
0.889499
1.09153
0.85358
1.05452
1.54257
1.73255
1.50704
1.6971
1.44456
1.63848
1.40665
1.59974
1.79208
1.60283
1.76405
1.57454
1.7047
1.50982
1.67354
1.47917
1.26399
1.0605
1.23493
1.0314
1.15577
0.95209
1.1256
0.922622
0.965629
0.965582
0.936655
0.936605
0.859638
0.859563
0.830629
0.830554
1.06038
1.26388
1.03127
1.2348
0.951885
1.1555
0.922415
1.12532
1.60289
1.79242
1.57458
1.76435
1.50962
1.70473
1.47896
1.67354
1.8387
1.65012
1.81704
1.62811
1.75715
1.56161
1.73267
1.53741
1.31305
1.10989
1.29018
1.08683
1.20715
1.00251
1.18311
0.978889
1.01495
1.0149
0.991901
0.991856
0.909394
0.909321
0.886063
0.88599
1.10979
1.31297
1.08672
1.29009
1.00231
1.20689
0.978685
1.18284
1.65023
1.83911
1.6282
1.81741
1.56144
1.75723
1.53722
1.73272
1.87392
1.68616
1.85774
1.66958
1.7975
1.60169
1.77887
1.58316
1.35095
1.14837
1.33348
1.13059
1.24734
1.04223
1.22873
1.02381
1.05351
1.05347
1.03568
1.03563
0.948711
0.948639
0.930462
0.930389
1.14828
1.3509
1.13049
1.33341
1.04203
1.24709
1.02361
1.22847
1.68632
1.87439
1.66971
1.85819
1.60155
1.79762
1.583
1.77897
1.8994
1.71254
1.88792
1.70062
1.82734
1.6316
1.8138
1.61799
1.37925
1.1774
1.36641
1.16418
1.27777
1.07254
1.26389
1.05868
1.08276
1.08272
1.06942
1.06939
0.97884
0.978769
0.965045
0.964973
1.17732
1.37922
1.1641
1.36637
1.07235
1.27753
1.05848
1.26364
1.71274
1.89993
1.7008
1.88843
1.63148
1.82751
1.61786
1.81394
1.91655
1.73067
1.90907
1.72271
1.84814
1.65274
1.83894
1.64335
1.39932
1.19833
1.39044
1.18901
1.29976
1.0947
1.28994
1.08477
1.10399
1.10396
1.09452
1.09448
1.00099
1.00092
0.991045
0.990974
1.19827
1.39932
1.18894
1.39042
1.09451
1.29953
1.08458
1.28971
1.73091
1.91714
1.72293
1.90963
1.65264
1.84834
1.64324
1.83912
1.92668
1.74184
1.92257
1.73722
1.86127
1.66643
1.85575
1.66062
1.41244
1.2124
1.40689
1.20638
1.31454
1.1099
1.30819
1.10332
1.11843
1.1184
1.11222
1.11219
1.0163
1.01623
1.00965
1.00958
1.21234
1.41246
1.20632
1.4069
1.10972
1.31432
1.10314
1.30797
1.74211
1.92731
1.73747
1.92318
1.66635
1.8615
1.66053
1.85597
1.93082
1.74711
1.92959
1.74532
1.86787
1.67379
1.8655
1.67102
1.41969
1.22067
1.41696
1.21743
1.32323
1.1192
1.31981
1.11546
1.12713
1.12711
1.12367
1.12365
1.02583
1.02576
1.02196
1.02189
1.22062
1.41972
1.21738
1.41698
1.11902
1.32302
1.11527
1.31959
1.7474
1.93148
1.7456
1.93024
1.67373
1.86813
1.67095
1.86574
1.93
1.74746
1.93112
1.74801
1.86899
1.67584
1.86924
1.67562
1.42202
1.22409
1.42164
1.22317
1.32679
1.12354
1.32583
1.12217
1.13103
1.13101
1.12987
1.12985
1.03049
1.03042
1.02895
1.02888
1.22405
1.42206
1.22313
1.42168
1.12336
1.32659
1.12199
1.32562
1.74777
1.93069
1.74831
1.9318
1.67578
1.86927
1.67556
1.86951
1.92499
1.74373
1.92814
1.74624
1.86558
1.67352
1.868
1.67537
1.42031
1.22351
1.42185
1.22449
1.32612
1.12376
1.32716
1.12434
1.13096
1.13094
1.13168
1.13166
1.0311
1.03103
1.03149
1.03142
1.22348
1.42036
1.22445
1.4219
1.12358
1.32592
1.12417
1.32695
1.74406
1.9257
1.74656
1.92884
1.67348
1.86588
1.67532
1.86829
1.91642
1.73652
1.92129
1.74071
1.85826
1.66744
1.86257
1.67112
1.41515
1.21956
1.41836
1.22217
1.32187
1.12056
1.32465
1.1228
1.12757
1.12755
1.12989
1.12987
1.02838
1.02832
1.03036
1.0303
1.21954
1.41521
1.22214
1.41842
1.12039
1.32168
1.12263
1.32445
1.73686
1.91715
1.74104
1.92201
1.66741
1.85857
1.67108
1.86287
1.90479
1.72635
1.91113
1.73195
1.84761
1.6582
1.85351
1.66339
1.4071
1.21277
1.41169
1.21674
1.3146
1.11445
1.31883
1.11808
1.12137
1.12135
1.12504
1.12502
1.02279
1.02273
1.02616
1.02609
1.21275
1.40717
1.21672
1.41176
1.11428
1.31442
1.11792
1.31864
1.7267
1.90553
1.7323
1.91186
1.65818
1.84793
1.66336
1.85383
1.89055
1.71368
1.89815
1.72049
1.83412
1.64628
1.84139
1.65276
1.39659
1.20359
1.40237
1.20871
1.3048
1.1059
1.31024
1.1107
1.11281
1.1128
1.11761
1.1176
1.01483
1.01477
1.01933
1.01927
1.20357
1.39667
1.20869
1.40244
1.10573
1.30462
1.11054
1.31006
1.71403
1.89129
1.72084
1.89889
1.64627
1.83444
1.65274
1.84172
1.87399
1.69881
1.88271
1.70668
1.81813
1.63204
1.82662
1.63964
1.38397
1.19236
1.39077
1.19847
1.29281
1.09527
1.2993
1.10108
1.10224
1.10223
1.10801
1.108
1.00485
1.00478
1.01032
1.01026
1.19234
1.38405
1.19845
1.39085
1.09511
1.29263
1.10092
1.29913
1.69917
1.87474
1.70704
1.88346
1.63203
1.81846
1.63962
1.82695
1.85535
1.68199
1.86509
1.69082
1.79992
1.61573
1.80949
1.62433
1.36948
1.17933
1.37719
1.18631
1.2789
1.08283
1.28633
1.08951
1.08991
1.0899
1.09654
1.09652
0.993098
0.993038
0.999429
0.999368
1.17931
1.36957
1.18629
1.37727
1.08267
1.27873
1.08936
1.28615
1.68235
1.85609
1.69118
1.86584
1.61573
1.80025
1.62433
1.80982
1.8348
1.6634
1.84548
1.67309
1.77966
1.59756
1.79024
1.60707
1.35331
1.16468
1.36184
1.17245
1.26327
1.06876
1.27154
1.07624
1.076
1.07599
1.08339
1.08338
0.979773
0.979715
0.986872
0.986812
1.16467
1.3534
1.17243
1.36192
1.06861
1.2631
1.07608
1.27137
1.66376
1.83554
1.67345
1.84622
1.59756
1.77999
1.60707
1.79057
1.81245
1.64316
1.82401
1.65366
1.75749
1.57765
1.76901
1.58802
1.33558
1.14854
1.34487
1.15704
1.24604
1.05319
1.25509
1.0614
1.06063
1.06062
1.06874
1.06873
0.965
0.964942
0.972808
0.97275
1.14853
1.33566
1.15703
1.34495
1.05304
1.24588
1.06125
1.25493
1.64351
1.81318
1.65402
1.82474
1.57765
1.75782
1.58802
1.76934
1.78839
1.62133
1.80079
1.63261
1.73349
1.55609
1.74591
1.56727
1.31635
1.13098
1.32638
1.14018
1.2273
1.0362
1.2371
1.04512
1.04388
1.04387
1.05267
1.05266
0.948853
0.948797
0.957338
0.957281
1.13097
1.31644
1.14017
1.32646
1.03606
1.22714
1.04497
1.23694
1.62168
1.7891
1.63297
1.80151
1.55609
1.73382
1.56727
1.74623
1.76266
1.59798
1.77589
1.61002
1.70772
1.53293
1.72101
1.5449
1.29569
1.11204
1.30643
1.12192
1.20708
1.01783
1.21761
1.02743
1.02578
1.02577
1.03524
1.03522
0.931369
0.931314
0.940516
0.94046
1.11203
1.29577
1.12191
1.30651
1.01769
1.20693
1.02728
1.21745
1.59833
1.76336
1.61037
1.7766
1.53293
1.70804
1.5449
1.72133
1.73531
1.57312
1.74934
1.58591
1.6802
1.50817
1.69436
1.52094
1.27358
1.09172
1.28504
1.10228
1.18539
0.998076
1.19665
1.00836
1.00633
1.00632
1.01646
1.01645
0.912546
0.912492
0.922359
0.922305
1.09171
1.27366
1.10227
1.28512
0.997937
1.18524
1.00822
1.1965
1.57346
1.73599
1.58625
1.75003
1.50817
1.68051
1.52094
1.69467
1.70636
1.54676
1.72118
1.56029
1.65095
1.48182
1.66597
1.49538
1.25004
1.07
1.26221
1.08126
1.16222
0.976916
1.17422
0.987903
0.98551
0.985497
0.996322
0.996309
0.892359
0.892307
0.902854
0.902801
1.06999
1.25011
1.08125
1.26229
0.976779
1.16208
0.987765
1.17407
1.54709
1.70702
1.56062
1.72185
1.48183
1.65125
1.49538
1.66627
1.67583
1.5189
1.69144
1.53318
1.61998
1.45387
1.63585
1.46823
1.22501
1.04683
1.23792
1.05882
1.13753
0.954302
1.15029
0.966017
0.963268
0.963255
0.974792
0.974779
0.870757
0.870706
0.881961
0.881909
1.04682
1.22508
1.05881
1.238
0.954168
1.13739
0.965882
1.15014
1.51922
1.67647
1.5335
1.69209
1.45387
1.62026
1.46823
1.63614
1.64375
1.48952
1.66012
1.50455
1.58727
1.42429
1.604
1.43946
1.19846
1.02217
1.21213
1.03491
1.11126
0.93017
1.12481
0.942646
0.939541
0.939527
0.95181
0.951797
0.84767
0.84762
0.859619
0.859568
1.02216
1.19853
1.03489
1.2122
0.930039
1.11112
0.942514
1.12467
1.48982
1.64435
1.50486
1.66074
1.42429
1.58754
1.43946
1.60428
1.61011
1.45862
1.62725
1.4744
1.55281
1.39301
1.57041
1.40903
1.17034
0.99593
1.1848
1.00946
1.08334
0.904435
1.09771
0.917716
0.914244
0.91423
0.927302
0.927288
0.823012
0.822963
0.835751
0.835701
0.995913
1.1704
1.00944
1.18486
0.904306
1.0832
0.917587
1.09757
1.4589
1.61069
1.47469
1.62784
1.393
1.55306
1.40902
1.57067
1.57493
1.42615
1.59283
1.44272
1.51658
1.35997
1.53507
1.37686
1.14058
0.968021
1.15586
0.982388
1.05368
0.877001
1.06893
0.891136
0.887279
0.887264
0.901176
0.901162
0.79668
0.796632
0.81026
0.810212
0.968001
1.14063
0.98237
1.15592
0.876875
1.05354
0.891009
1.06879
1.42642
1.57548
1.44299
1.59339
1.35996
1.51681
1.37685
1.53531
1.53825
1.39211
1.55689
1.40945
1.47854
1.32515
1.49792
1.34294
1.10909
0.938341
1.12523
0.9536
1.0222
0.847763
1.03836
0.862805
0.858533
0.858518
0.873328
0.873312
0.768559
0.768512
0.78304
0.782993
0.938318
1.10913
0.953578
1.12528
0.847639
1.02206
0.86268
1.03822
1.39235
1.53877
1.40971
1.55742
1.32513
1.47875
1.34292
1.49814
1.50016
1.3565
1.51949
1.37461
1.43872
1.28849
1.45898
1.30719
1.07581
0.90678
1.09285
0.922984
0.98881
0.816601
1.00593
0.832612
0.827876
0.827859
0.843635
0.843619
0.738518
0.738471
0.753968
0.753921
0.906752
1.07584
0.922958
1.09288
0.81648
0.988672
0.83249
1.00579
1.35673
1.50064
1.37485
1.51998
1.28847
1.4389
1.30716
1.45918
1.4609
1.31948
1.48075
1.33826
1.39723
1.25003
1.41829
1.26961
1.04073
0.873212
1.05866
0.89043
0.953424
0.783367
0.97154
0.800427
0.795126
0.795108
0.81195
0.811933
0.706386
0.706341
0.722899
0.722853
0.873179
1.04075
0.890399
1.05869
0.783247
0.953285
0.800306
0.971402
1.31968
1.46134
1.33848
1.48121
1.25
1.3974
1.26958
1.41847
1.42116
1.28142
1.4411
1.30064
1.35452
1.20998
1.37609
1.2303
1.00384
0.837399
1.02267
0.855775
0.915957
0.747811
0.935118
0.766066
0.75995
0.75993
0.778039
0.77802
0.671844
0.6718
0.689607
0.689562
0.837359
1.00385
0.855739
1.02269
0.747693
0.915818
0.765947
0.93498
1.28159
1.42156
1.30083
1.44152
1.20993
1.35467
1.23026
1.37624
1.38318
1.24316
1.40177
1.26234
1.31224
1.16882
1.33323
1.18961
0.964869
0.798636
0.984816
0.818623
0.876052
0.70928
0.896518
0.729144
0.721545
0.721523
0.741387
0.741366
0.634196
0.634153
0.653628
0.653584
0.798589
0.964858
0.81858
0.984815
0.709164
0.875911
0.729027
0.896379
1.2433
1.38353
1.2625
1.40215
1.16876
1.31236
1.18956
1.33336
1.35579
1.2047
1.36701
1.22425
1.2774
1.12579
1.29298
1.14792
0.921434
0.754743
0.944217
0.777712
0.831293
0.665805
0.85478
0.688515
0.678165
0.67814
0.70077
0.700747
0.591963
0.591921
0.613917
0.613875
0.754687
0.921403
0.777661
0.944197
0.66569
0.831149
0.688399
0.854638
1.2048
1.35609
1.22438
1.36734
1.12572
1.2775
1.14786
1.29309
1.38491
1.14329
1.35713
1.18216
1.29046
1.05758
1.27232
1.10007
0.861775
0.701185
0.895189
0.729581
0.770346
0.613275
0.804334
0.64105
0.627659
0.627632
0.653994
0.653968
0.54332
0.543279
0.56862
0.568578
0.701118
0.861719
0.72952
0.895146
0.613162
0.770199
0.640936
0.804189
1.14335
1.38516
1.18224
1.3574
1.05748
1.29051
1.09999
1.2724
0.754902
0.615849
0.505897
0.414784
0.701308
0.568916
0.457847
0.373988
0.334973
0.189453
0.189219
0.0844892
0.297256
0.159711
0.160843
0.0656012
0.128769
0.128728
0.0447927
0.0447711
0.103256
0.103223
0.0305182
0.0305043
0.189323
0.334756
0.0844042
0.189044
0.159605
0.297074
0.0655388
0.160706
0.615591
0.754692
0.414539
0.505671
0.568693
0.701121
0.373786
0.457657
1.08701
0.911971
0.940607
0.777947
1.02076
0.850565
0.880482
0.723575
0.585848
0.402772
0.466968
0.297772
0.530084
0.353247
0.419903
0.257749
0.321626
0.321567
0.224496
0.224444
0.275835
0.275783
0.18845
0.188406
0.402602
0.585596
0.297617
0.466727
0.353094
0.529852
0.257616
0.41969
0.911717
1.08684
0.777684
0.940412
0.850321
1.02058
0.723336
0.880296
1.31811
1.13187
1.21077
1.0286
1.24187
1.05876
1.13908
0.960886
0.793529
0.59637
0.694337
0.502644
0.72308
0.530569
0.63073
0.444484
0.506514
0.506451
0.416309
0.416247
0.443838
0.443777
0.3616
0.361543
0.596195
0.793289
0.502467
0.694086
0.530398
0.722839
0.444319
0.630488
1.13168
1.31804
1.02837
1.21064
1.05854
1.24176
0.960649
1.13893
1.49649
1.30721
1.41261
1.22425
1.41377
1.226
1.33271
1.14666
0.96743
0.764881
0.884432
0.683892
0.886194
0.68667
0.808117
0.611411
0.671019
0.67096
0.591643
0.591581
0.595206
0.595145
0.521929
0.521868
0.764723
0.967238
0.683723
0.884212
0.686502
0.885974
0.611239
0.807883
1.3071
1.49655
1.2241
1.4126
1.22585
1.41376
1.14646
1.33264
1.6384
1.44938
1.57142
1.38203
1.55209
1.36313
1.48661
1.29798
1.1124
0.908434
1.04338
0.8398
1.0237
0.821217
0.958037
0.756693
0.81288
0.812831
0.744891
0.744837
0.727326
0.727269
0.663809
0.66375
0.90831
1.11227
0.839658
1.04322
0.821068
1.02352
0.756533
0.957836
1.44939
1.63861
1.38198
1.57156
1.36305
1.55219
1.29785
1.48665
1.75215
1.56478
1.69846
1.51018
1.66428
1.47569
1.61117
1.42228
1.2322
1.02874
1.17533
0.971477
1.13857
0.935211
1.08389
0.880802
0.932703
0.932666
0.875577
0.875534
0.840162
0.840113
0.786216
0.786163
1.02865
1.23214
0.971372
1.17524
0.935087
1.13844
0.880664
1.08374
1.5649
1.75251
1.51024
1.69875
1.4757
1.6645
1.42224
1.61133
1.8431
1.65788
1.80027
1.61396
1.75495
1.56745
1.71213
1.52404
1.33015
1.12812
1.28384
1.08104
1.23342
1.0303
1.18846
0.985137
1.03224
1.03222
0.985027
0.984996
0.934816
0.934776
0.889807
0.889762
1.12808
1.33017
1.08097
1.28382
1.0302
1.23335
0.985027
1.18836
1.65811
1.8436
1.61414
1.8007
1.56755
1.7553
1.5241
1.71242
1.91515
1.73221
1.88136
1.6973
1.82754
1.64142
1.79341
1.60659
1.40928
1.20906
1.37205
1.17091
1.31072
1.10841
1.27426
1.07151
1.11368
1.11367
1.07525
1.07523
1.01292
1.01288
0.975984
0.975948
1.20906
1.40937
1.17088
1.3721
1.10834
1.3107
1.07143
1.27422
1.73255
1.91578
1.69759
1.88193
1.6416
1.828
1.60673
1.79381
1.97127
1.79058
1.94512
1.76333
1.88464
1.70004
1.85796
1.67261
1.47217
1.27391
1.44276
1.24354
1.37265
1.17147
1.34363
1.14187
1.17919
1.17919
1.14847
1.14846
1.07621
1.07619
1.04647
1.04645
1.27395
1.47232
1.24355
1.44288
1.17143
1.37268
1.14181
1.34363
1.79101
1.97203
1.76372
1.94581
1.7003
1.88521
1.67283
1.85847
2.01401
1.83544
1.99428
1.81468
1.92859
1.74551
1.90824
1.72441
1.5212
1.32491
1.49846
1.30121
1.42131
1.2214
1.39869
1.19815
1.23091
1.23092
1.20684
1.20685
1.12652
1.12651
1.10307
1.10305
1.32497
1.52141
1.30126
1.49865
1.22138
1.42139
1.19812
1.39875
1.83595
2.01488
1.81516
1.99509
1.74584
1.92925
1.72471
1.90886
2.04542
1.86883
2.03112
1.85357
1.9613
1.77971
1.94635
1.76403
1.55842
1.36402
1.54136
1.34604
1.45853
1.25996
1.44142
1.24219
1.27078
1.2708
1.25242
1.25244
1.16555
1.16554
1.14754
1.14753
1.36411
1.55868
1.34611
1.54159
1.25996
1.45865
1.24219
1.44152
1.86942
2.04638
1.85412
2.03203
1.7801
1.96204
1.7644
1.94705
2.06731
1.89257
2.05758
1.88195