/*--------------------------------*- C++ -*----------------------------------*\
  =========                 |
  \\      /  F ield         | OpenFOAM: The Open Source CFD Toolbox
   \\    /   O peration     | Website:  https://openfoam.org
    \\  /    A nd           | Version:  9
     \\/     M anipulation  |
\*---------------------------------------------------------------------------*/
FoamFile
{
    format      ascii;
    class       volScalarField;
    location    "3.9";
    object      nut;
}
// * * * * * * * * * * * * * * * * * * * * * * * * * * * * * * * * * * * * * //

dimensions      [0 2 -1 0 0 0 0];

internalField   nonuniform List<scalar> 
36360
(
0.00362778
0.00325975
0.00229416
0.00209409
0.000567634
0.000521463
0.000325769
0.000346482
0.00239861
0.00178712
0.00125994
0.000539702
0.000368809
0.00024402
0.000222
0.000171758
0.0013709
0.0013712
0.000301863
0.000301931
0.000188327
0.000188336
0.000159197
0.000159199
0.00178733
0.00239822
0.000539871
0.00125985
0.000244018
0.000368761
0.000171763
0.000221986
0.00325885
0.00362634
0.00209351
0.00229308
0.00052138
0.000567533
0.000346423
0.000325699
0.00528667
0.00493477
0.00454476
0.00416611
0.000786198
0.000717561
0.000698968
0.000634087
0.00420085
0.00382684
0.00335959
0.00288971
0.000587706
0.000488324
0.000493869
0.000373349
0.00374947
0.00374941
0.00278543
0.00278551
0.000435975
0.000435958
0.000303091
0.000303091
0.00382641
0.00419979
0.00288953
0.00335885
0.000488263
0.000587599
0.000373318
0.00049379
0.00493311
0.00528438
0.00416484
0.00454291
0.000717422
0.00078604
0.000633976
0.000698839
0.00652637
0.00623631
0.00593827
0.00561776
0.000910212
0.000842645
0.000853617
0.000785011
0.00561549
0.0053354
0.00494635
0.00462991
0.000727483
0.000648275
0.000663397
0.000576343
0.00527501
0.0052748
0.00456522
0.00456508
0.000609944
0.000609913
0.000533027
0.000533002
0.00533459
0.00561388
0.00462928
0.004945
0.000648181
0.000727332
0.000576262
0.000663266
0.00623393
0.00652318
0.00561573
0.00593552
0.000842455
0.000909996
0.000784845
0.000853428
0.00755355
0.00730924
0.00706252
0.00679769
0.00100323
0.000938091
0.000959483
0.000893153
0.00675991
0.00651867
0.00621649
0.00595929
0.000832116
0.000762201
0.000783082
0.000709237
0.00645766
0.00645734
0.00589909
0.00589882
0.000729013
0.000728974
0.000673959
0.000673923
0.00651757
0.00675786
0.00595833
0.00621465
0.000762086
0.000831934
0.000709132
0.000782914
0.00730626
0.00754955
0.00679499
0.0070589
0.000937862
0.00100297
0.000892941
0.000959242
0.00840766
0.00819601
0.00799991
0.00777305
0.00107727
0.00101428
0.00104225
0.000978219
0.00769289
0.00747165
0.00724915
0.00701904
0.000914494
0.000850008
0.00087562
0.00080872
0.00740796
0.00740755
0.00695654
0.00695617
0.000819562
0.000819518
0.00077707
0.000777028
0.00747032
0.00769049
0.00701783
0.00724692
0.000849878
0.000914289
0.000808596
0.000875426
0.00819253
0.00840299
0.0077698
0.00799554
0.00101402
0.00107697
0.000977974
0.00104196
0.0091131
0.00892626
0.00877662
0.0085781
0.00113687
0.00107572
0.00110864
0.0010466
0.0084545
0.00824567
0.00809192
0.00787734
0.00098038
0.000919522
0.000949212
0.0008867
0.00818002
0.00817955
0.00781241
0.00781197
0.000890852
0.000890805
0.000857223
0.000857177
0.00824417
0.00845183
0.00787592
0.00808938
0.000919381
0.000980159
0.000886564
0.000948998
0.00892239
0.00910787
0.00857441
0.00877163
0.00107545
0.00113655
0.00104633
0.00110833
0.00969187
0.00952429
0.00941606
0.00923935
0.00118489
0.0011253
0.00116215
0.00110181
0.0090749
0.00887468
0.00877953
0.00857516
0.00103327
0.00097501
0.00100825
0.000948784
0.00880805
0.00880752
0.00850878
0.00850828
0.000947601
0.00094755
0.000920792
0.000920743
0.00887303
0.009072
0.00857357
0.00877673
0.000974862
0.00103304
0.00094864
0.00100802
0.0095201
0.00968617
0.0092353
0.00941055
0.001125
0.00118455
0.00110152
0.00116182
0.0101634
0.0100109
0.00993885
0.00977919
0.00122344
0.00116513
0.0012052
0.00114628
0.00957807
0.00938425
0.0093385
0.0091415
0.00107564
0.00101931
0.00105561
0.00099838
0.00931736
0.0093168
0.00907455
0.009074
0.000992839
0.000992787
0.00097147
0.000971418
0.00938249
0.00957499
0.00913979
0.0093355
0.00101916
0.0010754
0.000998229
0.00105537
0.0100065
0.0101573
0.00977485
0.00993291
0.00116482
0.00122308
0.00114598
0.00120485
0.010544
0.0104036
0.0103629
0.0102167
0.00125412
0.00119687
0.00123963
0.00118188
0.00998322
0.00979437
0.00979036
0.00959898
0.00110936
0.0010545
0.00109344
0.0010379
0.00972766
0.00972706
0.00953201
0.00953143
0.00102873
0.00102868
0.0010118
0.00101175
0.00979251
0.00997999
0.00959717
0.0097872
0.00105434
0.00110911
0.00103774
0.0010932
0.0103989
0.0105376
0.0102121
0.0103566
0.00119655
0.00125375
0.00118156
0.00123927
0.0108481
0.0107172
0.0107035
0.010568
0.00127828
0.00122189
0.00126691
0.0012101
0.0103065
0.0101216
0.0101527
0.00996568
0.00113592
0.00108219
0.00112341
0.00106915
0.0100553
0.0100547
0.00989904
0.00989843
0.00105697
0.00105691
0.00104367
0.00104362
0.0101197
0.0103032
0.00996379
0.0101494
0.00108202
0.00113566
0.00106899
0.00112316
0.0107124
0.0108414
0.0105633
0.0106969
0.00122156
0.0012779
0.00120978
0.00126653
0.0110877
0.0109644
0.0109739
0.0108469
0.001297
0.00124129
0.00128823
0.00123219
0.0105611
0.0103794
0.01044
0.0102566
0.00115653
0.00110367
0.00114686
0.00109359
0.0103137
0.010313
0.0101904
0.0101898
0.00107887
0.00107882
0.00106859
0.00106854
0.0103774
0.0105577
0.0102546
0.0104366
0.00110351
0.00115627
0.00109343
0.0011466
0.0109594
0.0110808
0.010842
0.010967
0.00124096
0.00129662
0.00123186
0.00128784
0.011273
0.0111557
0.0111851
0.0110649
0.00131119
0.00125602
0.00130458
0.00124915
0.0107582
0.0105791
0.0106645
0.0104839
0.0011722
0.00112001
0.00116489
0.00111239
0.010514
0.0105133
0.0104184
0.0104177
0.00109554
0.00109549
0.00108776
0.0010877
0.010577
0.0107547
0.0104819
0.010661
0.00111985
0.00117193
0.00111222
0.00116462
0.0111506
0.0112659
0.0110598
0.011178
0.00125569
0.0013108
0.00124881
0.00130418
0.0114126
0.0113
0.0113465
0.0112316
0.00132159
0.00126684
0.00131678
0.00126183
0.0109069
0.01073
0.0108362
0.010658
0.00118375
0.00113209
0.0011784
0.00112649
0.0106655
0.0106648
0.0105931
0.0105924
0.00110787
0.00110781
0.00110216
0.0011021
0.0107279
0.0109033
0.010656
0.0108326
0.00113192
0.00118348
0.00112633
0.00117813
0.0112948
0.0114052
0.0112264
0.0113392
0.0012665
0.00132119
0.00126149
0.00131638
0.0115137
0.011405
0.011466
0.0113553
0.00132883
0.00127441
0.00132553
0.00127095
0.0110151
0.01084
0.0109637
0.0107875
0.00119188
0.00114062
0.00118816
0.00113671
0.0107761
0.0107754
0.0107232
0.0107225
0.00111659
0.00111654
0.0011126
0.00111254
0.0108379
0.0110115
0.0107854
0.0109601
0.00114045
0.00119161
0.00113654
0.00118789
0.0113996
0.0115063
0.01135
0.0114585
0.00127407
0.00132843
0.00127061
0.00132512
0.0115826
0.0114769
0.0115503
0.011443
0.00133344
0.00127927
0.0013314
0.00127711
0.0110894
0.0109158
0.0110542
0.0108796
0.00119716
0.00114621
0.0011948
0.0011437
0.0108524
0.0108517
0.0108158
0.0108152
0.00112233
0.00112227
0.00111976
0.0011197
0.0109136
0.0110857
0.0108774
0.0110505
0.00114603
0.00119689
0.00114353
0.00119453
0.0114715
0.011575
0.0114376
0.0115427
0.00127892
0.00133303
0.00127676
0.00133098
0.0116243
0.011521
0.0116049
0.0115003
0.00133584
0.00128185
0.00133485
0.00128077
0.0111352
0.0109627
0.0111136
0.0109403
0.00120008
0.00114935
0.00119885
0.00114801
0.0108999
0.0108992
0.010877
0.0108763
0.00112559
0.00112553
0.0011242
0.00112414
0.0109606
0.0111315
0.0109381
0.0111098
0.00114918
0.00119981
0.00114784
0.00119858
0.0115155
0.0116166
0.0114948
0.0115972
0.0012815
0.00133543
0.00128042
0.00133444
0.0116425
0.0115411
0.0116346
0.0115321
0.00133638
0.00128252
0.00133629
0.00128237
0.0111568
0.0109855
0.0111468
0.0109746
0.001201
0.00115045
0.00120074
0.0011501
0.0109233
0.0109226
0.0109119
0.0109112
0.00112677
0.00112671
0.00112637
0.00112632
0.0109833
0.011153
0.0109724
0.0111431
0.00115027
0.00120073
0.00114992
0.00120046
0.0115356
0.0116348
0.0115266
0.0116268
0.00128217
0.00133597
0.00128202
0.00133588
0.0116422
0.0115423
0.0116432
0.0115424
0.00133545
0.00128168
0.00133609
0.00128227
0.0111586
0.0109878
0.011158
0.0109866
0.00120035
0.00114991
0.00120084
0.00115034
0.0109259
0.0109252
0.0109243
0.0109236
0.00112629
0.00112623
0.00112668
0.00112662
0.0109856
0.0111548
0.0109844
0.0111542
0.00114974
0.00120008
0.00115016
0.00120057
0.0115368
0.0116344
0.0115369
0.0116354
0.00128133
0.00133504
0.00128192
0.00133568
0.0116248
0.0115262
0.0116336
0.0115343
0.00133317
0.00127944
0.00133442
0.00128066
0.0111428
0.0109727
0.0111505
0.0109798
0.00119826
0.0011479
0.00119942
0.00114902
0.0109111
0.0109104
0.0109179
0.0109172
0.00112431
0.00112425
0.00112542
0.00112536
0.0109705
0.011139
0.0109776
0.0111467
0.00114772
0.00119799
0.00114885
0.00119915
0.0115207
0.0116171
0.0115287
0.0116258
0.00127909
0.00133275
0.00128031
0.001334
0.0115932
0.0114957
0.0116089
0.0115107
0.00132976
0.00127606
0.00133155
0.00127784
0.0111123
0.0109426
0.0111271
0.0109569
0.00119499
0.00114468
0.00119672
0.00114638
0.0108815
0.0108807
0.0108954
0.0108947
0.00112112
0.00112106
0.00112282
0.00112276
0.0109404
0.0111086
0.0109547
0.0111233
0.00114451
0.00119472
0.00114621
0.00119645
0.0114902
0.0115855
0.0115052
0.0116011
0.00127571
0.00132935
0.00127749
0.00133114
0.011549
0.0114526
0.0115708
0.0114737
0.00132537
0.00127167
0.00132764
0.00127394
0.0110689
0.0108995
0.01109
0.0109201
0.00119069
0.00114041
0.00119292
0.00114262
0.0108387
0.010838
0.010859
0.0108583
0.00111687
0.00111681
0.00111908
0.00111902
0.0108974
0.0110652
0.010918
0.0110862
0.00114024
0.00119042
0.00114245
0.00119265
0.0114471
0.0115414
0.0114682
0.011563
0.00127132
0.00132496
0.00127359
0.00132723
0.0114936
0.0113981
0.0115209
0.0114247
0.00132009
0.00126637
0.0013228
0.00126908
0.011014
0.0108448
0.0110406
0.0108711
0.00118547
0.0011352
0.00118815
0.00113787
0.0107842
0.0107835
0.0108102
0.0108095
0.00111166
0.0011116
0.00111433
0.00111428
0.0108426
0.0110102
0.0108689
0.0110369
0.00113503
0.00118521
0.0011377
0.00118788
0.0113927
0.011486
0.0114192
0.0115131
0.00126603
0.00131969
0.00126874
0.00132239
0.0114278
0.0113333
0.0114602
0.011365
0.001314
0.00126024
0.00131711
0.00126337
0.0109484
0.0107792
0.0109802
0.0108108
0.00117941
0.00112912
0.00118251
0.00113222
0.0107189
0.0107182
0.0107502
0.0107495
0.00110559
0.00110553
0.00110869
0.00110863
0.0107771
0.0109447
0.0108087
0.0109765
0.00112895
0.00117914
0.00113205
0.00118224
0.0113279
0.0114203
0.0113596
0.0114525
0.0012599
0.0013136
0.00126302
0.0013167
0.0113521
0.0112586
0.0113894
0.0112952
0.00130712
0.00125332
0.00131062
0.00125684
0.0108727
0.0107035
0.0109095
0.0107401
0.00117254
0.00112223
0.00117603
0.00112574
0.0106434
0.0106427
0.0106797
0.010679
0.00109868
0.00109862
0.00110219
0.00110213
0.0107014
0.010869
0.010738
0.0109059
0.00112206
0.00117227
0.00112557
0.00117577
0.0112533
0.0113447
0.0112899
0.0113818
0.00125298
0.00130672
0.0012565
0.00131022
0.0112668
0.0111744
0.0113089
0.0112158
0.00129947
0.00124561
0.00130336
0.00124952
0.0107871
0.0106178
0.0108289
0.0106594
0.00116487
0.00111452
0.00116877
0.00111844
0.0105578
0.0105571
0.0105992
0.0105985
0.00109096
0.0010909
0.00109488
0.00109482
0.0106157
0.0107835
0.0106573
0.0108253
0.00111436
0.00116461
0.00111827
0.0011685
0.0111691
0.0112595
0.0112105
0.0113014
0.00124528
0.00129908
0.00124919
0.00130296
0.0111717
0.0110804
0.0112187
0.0111267
0.00129105
0.00123712
0.00129533
0.00124142
0.0106916
0.010522
0.0107384
0.0105687
0.00115641
0.001106
0.00116071
0.00111033
0.0104621
0.0104614
0.0105086
0.0105079
0.00108241
0.00108235
0.00108675
0.00108669
0.0105199
0.0106881
0.0105666
0.0107349
0.00110584
0.00115615
0.00111016
0.00116045
0.0110752
0.0111645
0.0111215
0.0112114
0.00123679
0.00129067
0.0012411
0.00129494
0.0110667
0.0109764
0.0111187
0.0110278
0.00128184
0.00122781
0.00128651
0.00123253
0.0105859
0.0104158
0.0106379
0.0104677
0.00114712
0.00109663
0.00115183
0.00110139
0.010356
0.0103553
0.0104077
0.0104071
0.001073
0.00107295
0.00107777
0.00107772
0.0104137
0.0105824
0.0104657
0.0106344
0.00109647
0.00114687
0.00110123
0.00115158
0.0109714
0.0110596
0.0110226
0.0111115
0.00122749
0.00128146
0.0012322
0.00128613
0.0109511
0.0108619
0.0110085
0.0109186
0.00127178
0.00121764
0.00127688
0.0012228
0.0104692
0.0102985
0.0105268
0.0103561
0.00113695
0.00108636
0.00114211
0.00109158
0.0102388
0.0102381
0.0102962
0.0102955
0.00106268
0.00106263
0.00106792
0.00106786
0.0102965
0.0104658
0.0103541
0.0105233
0.0010862
0.0011367
0.00109142
0.00114186
0.0108569
0.0109441
0.0109136
0.0110014
0.00121733
0.00127141
0.00122248
0.00127651
0.0108242
0.010736
0.0108874
0.0107986
0.00126084
0.00120655
0.00126639
0.00121218
0.0103409
0.0101694
0.0104044
0.0102331
0.00112583
0.00107512
0.00113148
0.00108083
0.0101097
0.0101091
0.0101732
0.0101726
0.00105137
0.00105132
0.00105711
0.00105706
0.0101675
0.0103375
0.0102311
0.0104011
0.00107496
0.00112559
0.00108067
0.00113123
0.0107312
0.0108175
0.0107937
0.0108805
0.00120624
0.00126047
0.00121187
0.00126602
0.0106853
0.0105978
0.0107547
0.0106667
0.00124893
0.00119447
0.00125498
0.0012006
0.0101998
0.0100275
0.0102699
0.0100978
0.00111368
0.0010628
0.00111986
0.00106906
0.00996781
0.00996719
0.0100379
0.0100373
0.00103898
0.00103893
0.00104528
0.00104523
0.0100256
0.0101966
0.0100958
0.0102666
0.00106265
0.00111344
0.00106891
0.00111961
0.0105931
0.0106787
0.0106619
0.0107479
0.00119416
0.00124858
0.00120029
0.00125462
0.0105332
0.0104462
0.0106093
0.010522
0.001236
0.00118133
0.00124257
0.001188
0.0100449
0.00987145
0.0101221
0.00994899
0.00110041
0.00104932
0.00110716
0.00105618
0.00981181
0.00981121
0.00988916
0.00988855
0.0010254
0.00102534
0.00103231
0.00103226
0.0098696
0.0100417
0.00994711
0.0101189
0.00104917
0.00110017
0.00105603
0.00110692
0.0104416
0.0105268
0.0105173
0.0106027
0.00118103
0.00123565
0.0011877
0.00124222
0.0103666
0.0102797
0.0104502
0.0103632
0.00122192
0.00116701
0.00122908
0.00117429
0.00987455
0.00969982
0.00995977
0.00978541
0.00108587
0.00103452
0.00109327
0.00104206
0.00964024
0.00963966
0.00972563
0.00972504
0.00101048
0.00101043
0.00101808
0.00101803
0.00969801
0.00987144
0.00978358
0.00995661
0.00103437
0.00108565
0.00104191
0.00109304
0.0102752
0.0103604
0.0103586
0.0104438
0.00116672
0.00122158
0.00117399
0.00122873
0.0101838
0.0100964
0.0102758
0.0101886
0.00120657
0.00115137
0.00121438
0.00115933
0.00968695
0.00951077
0.00978109
0.00960537
0.00106994
0.00101826
0.00107806
0.00102655
0.00945131
0.00945074
0.00954568
0.0095451
0.000994061
0.000994012
0.00100243
0.00100238
0.00950902
0.00968393
0.00960359
0.00977802
0.00101811
0.00106971
0.00102641
0.00107784
0.010092
0.0101777
0.0101841
0.0102696
0.00115108
0.00120624
0.00115904
0.00121405
0.0099827
0.00989428
0.0100842
0.0099962
0.00118981
0.00113426
0.00119835
0.00114297
0.00948
0.00930216
0.00958416
0.0094069
0.00105242
0.00100033
0.00106136
0.00100948
0.00924288
0.00924233
0.00934736
0.0093468
0.000975947
0.0009759
0.000985197
0.000985149
0.00930047
0.00947709
0.00940517
0.00958119
0.00100019
0.0010522
0.00100934
0.00106114
0.00989008
0.00997691
0.00999192
0.0100782
0.00113399
0.00118949
0.0011427
0.00119803
0.0097609
0.00967087
0.00987315
0.00978385
0.00117146
0.00111552
0.00118082
0.00112507
0.00925117
0.00907138
0.00936669
0.00918764
0.00103311
0.000980501
0.00104298
0.000990638
0.0090123
0.00901177
0.00912829
0.00912775
0.000955886
0.000955839
0.000966146
0.000966099
0.00906976
0.00924837
0.00918598
0.00936383
0.000980366
0.0010329
0.000990501
0.00104276
0.00966685
0.00975536
0.00977973
0.00986742
0.00111526
0.00117115
0.0011248
0.0011805
0.00951519
0.00942316
0.00963987
0.00954876
0.00115133
0.00109499
0.0011616
0.00110546
0.00899721
0.00881496
0.00912583
0.00894461
0.00101176
0.000958461
0.00102269
0.000969753
0.00875609
0.0087556
0.00888547
0.00888496
0.000933534
0.00093349
0.000944992
0.000944946
0.00881343
0.00899455
0.00894304
0.0091231
0.000958332
0.00101156
0.000969621
0.00102248
0.00941933
0.00950993
0.00954483
0.00963441
0.00109474
0.00115104
0.0011052
0.0011613
0.00924288
0.00914757
0.00938111
0.00928767
0.00112941
0.00107258
0.00114056
0.001084
0.00871348
0.00852815
0.00885778
0.00867377
0.00098798
0.000933719
0.00100018
0.000946442
0.00846983
0.00846938
0.00861491
0.00861444
0.000908386
0.000908344
0.000921321
0.000921277
0.00852674
0.00871101
0.00867229
0.00885522
0.000933596
0.000987789
0.000946316
0.000999988
0.009144
0.00923795
0.00928396
0.00937596
0.00107234
0.00112914
0.00108375
0.00114027
0.00895015
0.00883847
0.00909624
0.00899651
0.00110675
0.00104806
0.00111797
0.00106062
0.00839179
0.00820554
0.00855652
0.00836968
0.000960782
0.000905386
0.000974904
0.000920052
0.00815009
0.00814969
0.00831209
0.00831167
0.000879724
0.000879685
0.000894512
0.000894471
0.00820429
0.00838957
0.00836834
0.00855417
0.000905273
0.000960605
0.000919934
0.000974719
0.00883523
0.00894565
0.00899309
0.00909146
0.00104784
0.00110649
0.00106039
0.0011177
0.00869934
0.00846041
0.00881114
0.00866315
0.00108689
0.00101379
0.00109652
0.0010337
0.0080222
0.00785327
0.00821105
0.00802936
0.000926663
0.000872286
0.00094495
0.000889435
0.00780717
0.00780684
0.00797754
0.00797718
0.000847187
0.000847152
0.000863871
0.000863834
0.0078522
0.00802029
0.00802821
0.00820899
0.000872184
0.000926503
0.000889327
0.000944781
0.00845763
0.00869545
0.00866013
0.00880686
0.00101359
0.00108666
0.00103349
0.00109628
0.0061847
0.00562983
0.00422515
0.00380366
0.00511668
0.00461701
0.0033817
0.00303153
0.00457089
0.00387149
0.0027148
0.00184878
0.00360255
0.0028923
0.00202492
0.00120919
0.00365475
0.00365487
0.00119174
0.00119216
0.00261888
0.00261913
0.000605495
0.000605733
0.00387108
0.00456946
0.00184905
0.00271405
0.00289221
0.00360167
0.00120959
0.00202456
0.00562742
0.00618125
0.00380195
0.00422241
0.00461537
0.00511421
0.00303043
0.00337982
0.00939883
0.00884043
0.00786074
0.00728732
0.00771741
0.00721063
0.00649958
0.00597715
0.00793768
0.00749797
0.0063007
0.00574646
0.00634217
0.00590791
0.00502593
0.00446985
0.00742536
0.00742498
0.00561298
0.00561282
0.00583221
0.00583202
0.00432472
0.00432471
0.00749645
0.00793468
0.00574549
0.00629851
0.00590696
0.00634013
0.00446931
0.00502447
0.00883613
0.00939326
0.00728402
0.0078563
0.00720758
0.00771333
0.00597484
0.00649635
0.012225
0.0117155
0.0108481
0.0103137
0.00988861
0.00943247
0.00883826
0.00835705
0.0109512
0.0106524
0.00948615
0.00912864
0.00870382
0.00841329
0.00756484
0.00721592
0.0106377
0.0106369
0.00909215
0.00909156
0.008394
0.00839351
0.00717671
0.00717637
0.0106498
0.0109466
0.00912658
0.00948233
0.00841158
0.00870062
0.00721459
0.00756221
0.0117092
0.0122169
0.0103084
0.0108413
0.00942791
0.00988269
0.00835324
0.00883325
0.0147518
0.0142878
0.0135252
0.0130395
0.01178
0.0113714
0.010867
0.0104355
0.0136182
0.0133914
0.0123268
0.0120692
0.0107376
0.0105171
0.0097586
0.00950837
0.013397
0.0133958
0.0120669
0.0120659
0.0105145
0.0105138
0.00949959
0.00949898
0.0133878
0.013612
0.0120661
0.0123214
0.0105147
0.0107334
0.00950632
0.00975485
0.0142795
0.0147414
0.0130321
0.0135159
0.0113655
0.0117723
0.0104302
0.0108602
0.0169701
0.0165433
0.0158984
0.015454
0.0134096
0.0130401
0.0126254
0.0122374
0.0159393
0.0157528
0.0148197
0.0146153
0.0124721
0.0122898
0.0116391
0.0114399
0.0157655
0.015764
0.014625
0.0146237
0.0122923
0.0122913
0.0114403
0.0114395
0.0157482
0.0159316
0.0146112
0.0148127
0.0122868
0.0124669
0.0114372
0.0116344
0.0165331
0.0169575
0.0154446
0.0158868
0.0130329
0.0134004
0.0122308
0.0126168
0.0188818
0.0184847
0.0179618
0.0175505
0.014794
0.0144557
0.0141297
0.0137766
0.017928
0.0177663
0.0169717
0.0167985
0.0139347
0.0137759
0.0132337
0.013064
0.0177816
0.0177798
0.0168125
0.0168109
0.0137797
0.0137786
0.0130671
0.0130661
0.017761
0.0179191
0.0167935
0.0169634
0.0137724
0.0139288
0.0130608
0.0132281
0.0184729
0.0188673
0.0175395
0.0179481
0.0144474
0.0147834
0.0137688
0.0141197
0.0205038
0.0201305
0.0197257
0.0193411
0.0159548
0.0156414
0.0153991
0.0150739
0.0196092
0.0194641
0.0188029
0.0186498
0.0151555
0.0150123
0.0145714
0.0144207
0.0194802
0.0194782
0.0186653
0.0186634
0.0150163
0.0150151
0.0144244
0.0144232
0.019458
0.0195992
0.0186441
0.0187935
0.0150083
0.0151488
0.014417
0.0145651
0.0201173
0.0204876
0.0193285
0.0197102
0.0156323
0.015943
0.0150652
0.0153878
0.0218619
0.0215077
0.0212121
0.0208487
0.0169171
0.0166238
0.0164574
0.0161545
0.0210134
0.0208802
0.0203414
0.0202022
0.0161644
0.0160324
0.0156823
0.0155447
0.0208966
0.0208944
0.0202182
0.0202161
0.0160365
0.0160351
0.0155485
0.0155472
0.0208736
0.0210026
0.0201958
0.020331
0.0160281
0.0161572
0.0155406
0.0156754
0.0214933
0.0218442
0.0208349
0.0211949
0.0166139
0.0169043
0.0161449
0.016445
0.0229843
0.0226452
0.0224486
0.0221022
0.017705
0.0174281
0.0173293
0.0170445
0.0221719
0.0220476
0.0216187
0.0214897
0.0169893
0.0168657
0.0165957
0.0164677
0.0220642
0.0220618
0.0215059
0.0215035
0.0168699
0.0168684
0.0164716
0.0164701
0.0220404
0.0221602
0.0214828
0.0216074
0.0168611
0.0169816
0.0164633
0.0165882
0.0226297
0.0229653
0.0220872
0.02243
0.0174175
0.0176914
0.0170342
0.0173159
0.0238995
0.0235724
0.0234638
0.0231308
0.0183425
0.0180787
0.018039
0.0177689
0.0231157
0.0229983
0.0226659
0.0225447
0.0176562
0.0175391
0.0173383
0.0172177
0.0230152
0.0230127
0.0225611
0.0225586
0.0175436
0.017542
0.0172218
0.0172202
0.0229907
0.0231034
0.0225373
0.0226538
0.0175343
0.0176481
0.017213
0.0173304
0.0235561
0.0238794
0.0231149
0.023444
0.0180676
0.0183281
0.017758
0.0180248
0.0246341
0.0243168
0.0242853
0.0239631
0.0188507
0.0185974
0.0186092
0.0183508
0.0238732
0.0237614
0.0235129
0.0233979
0.0181876
0.0180758
0.0179346
0.0178199
0.0237786
0.023776
0.0234146
0.023412
0.0180807
0.018079
0.0178242
0.0178226
0.0237534
0.0238603
0.0233901
0.0235003
0.0180708
0.0181792
0.0178149
0.0179264
0.0242997
0.024613
0.0239464
0.0242644
0.0185858
0.0188356
0.0183394
0.0185943
0.025213
0.0249036
0.0249391
0.0246256
0.0192487
0.0190036
0.0190599
0.0188109
0.0244705
0.0243633
0.0241871
0.0240771
0.0186039
0.0184963
0.018406
0.0182959
0.024381
0.0243782
0.0240943
0.0240915
0.0185017
0.0184999
0.0183007
0.018299
0.024355
0.0244571
0.024069
0.024174
0.0184911
0.0185951
0.0182908
0.0183974
0.0248858
0.0251911
0.0246082
0.0249173
0.0189916
0.019233
0.018799
0.0190443
0.0256583
0.0253552
0.0254484
0.0251421
0.0195528
0.0193141
0.019409
0.0191671
0.0249306
0.0248272
0.024713
0.0246071
0.0189222
0.0188181
0.0187711
0.0186649
0.0248455
0.0248427
0.0246248
0.024622
0.0188241
0.0188223
0.0186702
0.0186685
0.0248187
0.0249168
0.0245987
0.0246994
0.0188127
0.0189132
0.0186596
0.0187622
0.025337
0.0256357
0.025124
0.0254259
0.0193017
0.0195366
0.0191549
0.0193929
0.0259899
0.025692
0.0258344
0.0255338
0.0197772
0.0195434
0.0196715
0.0194352
0.0252741
0.0251739
0.0251123
0.0250099
0.0191577
0.0190566
0.0190461
0.0189431
0.0251928
0.0251899
0.0250281
0.0250252
0.0190631
0.0190613
0.018949
0.0189472
0.0251651
0.02526
0.0250012
0.0250983
0.019051
0.0191485
0.0189377
0.019037
0.0256733
0.0259668
0.0255153
0.0258113
0.0195308
0.0197606
0.0194227
0.0196549
0.0262251
0.0259313
0.0261158
0.0258198
0.0199341
0.0197042
0.0198607
0.0196287
0.0255187
0.0254211
0.0254042
0.0253047
0.0193233
0.0192246
0.0192451
0.0191448
0.0254407
0.0254377
0.0253236
0.0253206
0.0192318
0.01923
0.0191513
0.0191495
0.0254122
0.0255043
0.0252958
0.0253899
0.019219
0.019314
0.0191392
0.0192358
0.0259122
0.0262016
0.0258008
0.0260921
0.0196913
0.0199173
0.0196159
0.0198438
0.0263781
0.0260877
0.0263084
0.026016
0.020034
0.0198072
0.0199879
0.0197593
0.0256797
0.0255844
0.0256051
0.0255081
0.01943
0.0193334
0.0193799
0.0192818
0.0256047
0.0256016
0.0255276
0.0255246
0.0193413
0.0193394
0.019289
0.0192871
0.0255753
0.0256651
0.0254991
0.0255906
0.0193277
0.0194205
0.0192761
0.0193705
0.0260684
0.0263542
0.0259968
0.0262844
0.0197941
0.020017
0.0197463
0.0199707
0.0264621
0.026174
0.026425
0.0261357
0.0200851
0.0198604
0.0200622
0.0198364
0.025769
0.0256758
0.025729
0.0256343
0.0194863
0.0193916
0.0194606
0.0193644
0.025697
0.0256939
0.0256546
0.0256515
0.0194003
0.0193984
0.0193724
0.0193705
0.0256667
0.0257543
0.0256252
0.0257143
0.0193859
0.0194767
0.0193587
0.0194511
0.0261545
0.0264381
0.0261162
0.0264008
0.0198472
0.0200679
0.0198233
0.0200448
0.0264892
0.0262032
0.0264798
0.0261926
0.020097
0.0198742
0.0200933
0.0198693
0.0258009
0.0257092
0.0257882
0.0256948
0.0195022
0.0194087
0.0194956
0.0194008
0.0257309
0.0257278
0.0257157
0.0257126
0.0194179
0.019416
0.0194093
0.0194074
0.0257
0.0257861
0.0256856
0.0257734
0.019403
0.0194926
0.0193951
0.019486
0.0261836
0.026465
0.026173
0.0264554
0.019861
0.0200797
0.0198561
0.0200758
0.0264662
0.0261818
0.0264804
0.026195
0.0200738
0.0198523
0.0200865
0.0198641
0.0257814
0.025691
0.0257931
0.0257014
0.0194818
0.0193895
0.0194924
0.019399
0.0257133
0.0257102
0.025723
0.0257199
0.0193993
0.0193974
0.0194081
0.0194062
0.0256818
0.0257666
0.0256922
0.0257783
0.0193837
0.0194722
0.0193932
0.0194828
0.0261622
0.026442
0.0261753
0.0264559
0.0198391
0.0200565
0.0198509
0.0200689
0.0264012
0.026118
0.0264356
0.0261516
0.0200212
0.0198007
0.020048
0.0198268
0.0257191
0.0256297
0.0257514
0.0256608
0.0194312
0.0193398
0.0194563
0.0193639
0.0256526
0.0256495
0.025683
0.0256799
0.0193502
0.0193483
0.0193737
0.0193718
0.0256205
0.0257043
0.0256516
0.0257365
0.0193341
0.0194216
0.0193582
0.0194467
0.0260985
0.0263771
0.0261319
0.0264111
0.0197875
0.020004
0.0198136
0.0200305
0.0262997
0.0260175
0.0263517
0.0260688
0.019943
0.0197233
0.0199822
0.0197619
0.0256196
0.0255311
0.0256699
0.0255803
0.0193543
0.0192637
0.0193922
0.0193006
0.0255545
0.0255514
0.025603
0.0255999
0.0192745
0.0192726
0.0193109
0.0193089
0.0255219
0.0256049
0.0255711
0.0256551
0.0192579
0.0193448
0.0192948
0.0193826
0.0259981
0.0262757
0.0260493
0.0263274
0.0197102
0.0199258
0.0197487
0.0199647
0.0261658
0.0258845
0.0262336
0.0259516
0.019842
0.0196228
0.0198923
0.0196726
0.0254872
0.0253994
0.0255535
0.0254646
0.0192541
0.019164
0.0193033
0.0192124
0.0254232
0.0254202
0.0254879
0.0254848
0.0191753
0.0191734
0.0192231
0.0192212
0.0253902
0.0254726
0.0254555
0.0255388
0.0191583
0.0192446
0.0192067
0.0192938
0.0258652
0.0261421
0.0259322
0.0262095
0.0196098
0.019825
0.0196595
0.0198749
0.0260025
0.0257218
0.0260848
0.0258035
0.0197201
0.0195014
0.0197807
0.0195615
0.0253249
0.0252374
0.0254059
0.0253175
0.0191326
0.0190428
0.0191923
0.0191018
0.0252618
0.0252587
0.0253412
0.0253381
0.0190546
0.0190527
0.0191129
0.019111
0.0252284
0.0253103
0.0253084
0.0253912
0.0190372
0.0191232
0.0190961
0.0191828
0.0257027
0.0259791
0.0257843
0.0260609
0.0194886
0.0197033
0.0195486
0.0197635
0.0258115
0.0255313
0.0259076
0.0256268
0.0195786
0.0193602
0.0196489
0.0194301
0.0251343
0.0250471
0.0252293
0.0251413
0.018991
0.0189014
0.0190606
0.0189704
0.0250718
0.0250688
0.0251654
0.0251623
0.0189135
0.0189116
0.0189819
0.01898
0.0250382
0.02512
0.0251323
0.0252148
0.0188958
0.0189817
0.0189647
0.0190512
0.0255125
0.0257884
0.0256078
0.0258839
0.0193475
0.019562
0.0194173
0.019632
0.0255935
0.0253137
0.0257031
0.0254228
0.0194179
0.0191998
0.0194978
0.0192793
0.0249163
0.0248291
0.025025
0.0249371
0.0188297
0.0187401
0.0189092
0.018819
0.0248541
0.0248511
0.0249616
0.0249586
0.0187525
0.0187507
0.0188309
0.0188291
0.0248203
0.0249021
0.0249282
0.0250107
0.0187346
0.0188206
0.0188135
0.0188999
0.0252951
0.0255708
0.025404
0.0256798
0.0191872
0.0194016
0.0192667
0.0194811
0.0253483
0.0250686
0.0254716
0.0251915
0.019238
0.0190198
0.0193276
0.0191092
0.0246705
0.0245832
0.0247932
0.0247053
0.0186487
0.018559
0.0187382
0.0186479
0.0246085
0.0246055
0.02473
0.0247271
0.0185716
0.0185698
0.0186601
0.0186582
0.0245745
0.0246566
0.0246965
0.0247791
0.0185535
0.0186397
0.0186424
0.0187291
0.0250504
0.025326
0.0251731
0.0254487
0.0190075
0.0192219
0.0190968
0.0193112
0.025075
0.0247953
0.0252125
0.0249326
0.019038
0.0188198
0.0191378
0.0189194
0.024396
0.0243083
0.0245333
0.0244451
0.0184473
0.0183571
0.0185471
0.0184566
0.0243337
0.0243308
0.0244701
0.0244671
0.0183699
0.0183681
0.0184689
0.0184671
0.0242997
0.0243823
0.0244365
0.0245195
0.0183518
0.0184385
0.0184512
0.0185382
0.0247774
0.0250531
0.0249145
0.0251901
0.0188077
0.0190223
0.0189072
0.0191217
0.0247717
0.0244917
0.0249245
0.0246444
0.018817
0.0185984
0.0189275
0.0187089
0.0240908
0.0240024
0.0242438
0.0241551
0.0182241
0.0181333
0.018335
0.018244
0.0240279
0.0240251
0.0241801
0.0241773
0.0181462
0.0181445
0.0182565
0.0182547
0.0239941
0.0240774
0.0241466
0.0242302
0.0181281
0.0182154
0.0182387
0.0183263
0.0244742
0.0247503
0.0246267
0.0249026
0.0185866
0.0188016
0.018697
0.0189118
0.024436
0.0241555
0.0246054
0.024325
0.0185732
0.018354
0.0186954
0.0184763
0.0237524
0.0236631
0.0239224
0.0238329
0.0179774
0.0178858
0.0181004
0.0180086
0.0236886
0.0236858
0.0238581
0.0238552
0.0178987
0.017897
0.0180212
0.0180195
0.0236549
0.0237393
0.0238247
0.0239092
0.0178806
0.017969
0.0180035
0.0180919
0.0241384
0.0244153
0.0243077
0.0245841
0.0183425
0.0185582
0.0184647
0.01868
0.024065
0.0237834
0.0242526
0.0239713
0.0183046
0.0180844
0.0184395
0.0182197
0.0233776
0.023287
0.0235664
0.0234758
0.0177051
0.0176123
0.0178413
0.0177485
0.0233125
0.0233098
0.0235009
0.0234981
0.0176253
0.0176236
0.0177611
0.0177595
0.023279
0.0233649
0.0234677
0.0235534
0.0176073
0.0176968
0.0177435
0.0178329
0.0237668
0.0240448
0.0239545
0.0242318
0.0180732
0.0182901
0.0182083
0.0184246
0.023655
0.0233721
0.0238627
0.0235802
0.018009
0.0177873
0.0181578
0.0179368
0.0229626
0.0228702
0.0231721
0.02308
0.0174045
0.0173102
0.0175553
0.0174612
0.0228956
0.0228929
0.023105
0.0231023
0.0173231
0.0173215
0.0174738
0.0174721
0.0228625
0.0229502
0.0230721
0.0231595
0.0173053
0.0173965
0.0174563
0.0175471
0.023356
0.0236355
0.0235638
0.0238426
0.0177765
0.0179949
0.0179257
0.0181434
0.0232015
0.0229167
0.0234316
0.0231476
0.0176835
0.0174596
0.0178477
0.0176249
0.0225027
0.0224082
0.0227353
0.0226413
0.0170724
0.0169762
0.0172395
0.0171437
0.0224332
0.0224307
0.0226661
0.0226635
0.016989
0.0169875
0.0171562
0.0171546
0.0224007
0.0224907