/*--------------------------------*- C++ -*----------------------------------*\
  =========                 |
  \\      /  F ield         | OpenFOAM: The Open Source CFD Toolbox
   \\    /   O peration     | Website:  https://openfoam.org
    \\  /    A nd           | Version:  9
     \\/     M anipulation  |
\*---------------------------------------------------------------------------*/
FoamFile
{
    format      ascii;
    class       volScalarField;
    location    "3.9";
    object      p;
}
// * * * * * * * * * * * * * * * * * * * * * * * * * * * * * * * * * * * * * //

dimensions      [0 2 -2 0 0 0 0];

internalField   nonuniform List<scalar> 
36360
(
20.1194
20.0868
20.1131
20.0908
20.0968
20.103
20.0976
20.0997
20.0995
20.1002
20.0999
20.1003
20.0992
20.0995
20.0987
20.0992
20.1002
20.1002
20.1003
20.1003
20.0995
20.0995
20.0993
20.0993
20.1002
20.0995
20.1003
20.0999
20.0995
20.0992
20.0992
20.0987
20.0868
20.1194
20.0908
20.1131
20.103
20.0968
20.0997
20.0976
20.1107
20.0951
20.1152
20.0911
20.0816
20.1185
20.0898
20.1106
20.0995
20.0997
20.0994
20.1001
20.0998
20.0989
20.0994
20.0993
20.0998
20.0998
20.1001
20.1001
20.099
20.099
20.0994
20.0994
20.0997
20.0995
20.1001
20.0994
20.0989
20.0998
20.0993
20.0994
20.095
20.1107
20.0911
20.1152
20.1185
20.0816
20.1106
20.0898
20.1013
20.1027
20.106
20.099
20.0651
20.1339
20.0733
20.1264
20.1012
20.099
20.1001
20.0993
20.102
20.0984
20.1007
20.0986
20.0988
20.0988
20.0994
20.0994
20.0982
20.0982
20.0986
20.0986
20.099
20.1012
20.0993
20.1001
20.0984
20.102
20.0986
20.1007
20.1027
20.1013
20.099
20.106
20.1339
20.0651
20.1264
20.0733
20.0921
20.1089
20.0966
20.106
20.0497
20.1467
20.0572
20.1407
20.1043
20.0988
20.1026
20.0988
20.1055
20.0983
20.1037
20.0983
20.0979
20.0979
20.0984
20.0984
20.0974
20.0975
20.0978
20.0978
20.0988
20.1043
20.0988
20.1026
20.0984
20.1055
20.0983
20.1037
20.1089
20.0921
20.106
20.0966
20.1467
20.0497
20.1406
20.0572
20.0839
20.1134
20.0879
20.1113
20.0362
20.1567
20.0427
20.1521
20.1078
20.0992
20.106
20.099
20.1095
20.0988
20.1075
20.0985
20.0972
20.0972
20.0975
20.0975
20.0969
20.0969
20.0971
20.0971
20.0992
20.1078
20.099
20.1061
20.0988
20.1094
20.0985
20.1075
20.1134
20.0839
20.1114
20.0879
20.1567
20.0363
20.152
20.0428
20.0768
20.1165
20.0802
20.1151
20.0247
20.1643
20.0302
20.1608
20.1112
20.1
20.1095
20.0996
20.1133
20.0996
20.1113
20.0991
20.0968
20.0968
20.097
20.097
20.0965
20.0965
20.0967
20.0966
20.1
20.1112
20.0996
20.1095
20.0996
20.1132
20.0992
20.1114
20.1165
20.0768
20.1151
20.0802
20.1643
20.0248
20.1608
20.0303
20.0706
20.1184
20.0736
20.1176
20.015
20.1699
20.0196
20.1673
20.1143
20.101
20.1128
20.1005
20.1166
20.1005
20.115
20.1
20.0966
20.0966
20.0967
20.0967
20.0964
20.0964
20.0964
20.0964
20.101
20.1143
20.1005
20.1128
20.1005
20.1166
20.1
20.115
20.1184
20.0706
20.1176
20.0736
20.1699
20.015
20.1673
20.0197
20.0654
20.1197
20.0679
20.1191
20.0069
20.174
20.0107
20.1721
20.1169
20.1021
20.1156
20.1016
20.1195
20.1016
20.1181
20.1011
20.0967
20.0967
20.0966
20.0966
20.0965
20.0965
20.0964
20.0964
20.1021
20.1169
20.1016
20.1156
20.1016
20.1195
20.1011
20.1181
20.1196
20.0654
20.1191
20.0679
20.174
20.0069
20.1721
20.0108
20.061
20.1203
20.0631
20.12
20.0001
20.177
20.0033
20.1756
20.119
20.1032
20.118
20.1027
20.1219
20.1026
20.1207
20.1021
20.0969
20.0969
20.0968
20.0968
20.0967
20.0967
20.0966
20.0966
20.1032
20.119
20.1027
20.118
20.1026
20.1218
20.1021
20.1207
20.1203
20.061
20.12
20.0631
20.177
20.0002
20.1756
20.0034
20.0572
20.1206
20.059
20.1205
19.9945
20.1791
19.9972
20.1781
20.1208
20.1042
20.1199
20.1037
20.1237
20.1036
20.1229
20.1031
20.0972
20.0972
20.097
20.097
20.0971
20.0971
20.0969
20.0969
20.1042
20.1208
20.1037
20.1199
20.1036
20.1237
20.1031
20.1228
20.1206
20.0572
20.1205
20.059
20.1791
19.9946
20.1781
19.9972
20.054
20.1207
20.0555
20.1207
19.9898
20.1806
19.992
20.1799
20.1221
20.105
20.1214
20.1046
20.1252
20.1044
20.1245
20.104
20.0976
20.0976
20.0974
20.0974
20.0975
20.0975
20.0973
20.0973
20.105
20.1221
20.1046
20.1215
20.1044
20.1252
20.104
20.1245
20.1207
20.0541
20.1207
20.0556
20.1805
19.9899
20.1799
19.9921
20.0513
20.1206
20.0526
20.1206
19.986
20.1815
19.9878
20.1811
20.1231
20.1057
20.1227
20.1054
20.1263
20.1051
20.1258
20.1048
20.098
20.098
20.0978
20.0978
20.0979
20.0979
20.0977
20.0977
20.1057
20.1231
20.1054
20.1226
20.1051
20.1263
20.1048
20.1258
20.1205
20.0514
20.1206
20.0526
20.1815
19.9861
20.1811
19.9879
20.049
20.1203
20.0501
20.1205
19.9829
20.1821
19.9844
20.1819
20.1238
20.1063
20.1235
20.1061
20.1271
20.1057
20.1267
20.1054
20.0984
20.0984
20.0982
20.0982
20.0982
20.0982
20.0981
20.0981
20.1063
20.1238
20.1061
20.1235
20.1057
20.127
20.1054
20.1267
20.1203
20.0491
20.1204
20.0502
20.1821
19.9829
20.1818
19.9844
20.0471
20.12
20.048
20.1202
19.9803
20.1824
19.9815
20.1823
20.1242
20.1068
20.124
20.1066
20.1276
20.1061
20.1273
20.1059
20.0988
20.0988
20.0986
20.0986
20.0986
20.0986
20.0984
20.0984
20.1068
20.1242
20.1066
20.124
20.1061
20.1275
20.1059
20.1273
20.12
20.0471
20.1202
20.048
20.1823
19.9804
20.1822
19.9816
20.0454
20.1197
20.0462
20.1199
19.9782
20.1824
19.9792
20.1824
20.1245
20.1072
20.1244
20.107
20.1278
20.1065
20.1277
20.1063
20.0991
20.0991
20.099
20.099
20.0988
20.0988
20.0987
20.0987
20.1072
20.1245
20.107
20.1244
20.1064
20.1278
20.1063
20.1277
20.1197
20.0455
20.1199
20.0463
20.1824
19.9783
20.1824
19.9793
20.0441
20.1193
20.0447
20.1195
19.9766
20.1822
19.9774
20.1823
20.1246
20.1074
20.1246
20.1073
20.128
20.1067
20.1279
20.1066
20.0994
20.0994
20.0992
20.0992
20.099
20.099
20.0989
20.0989
20.1074
20.1246
20.1073
20.1245
20.1067
20.1279
20.1066
20.1279
20.1193
20.0441
20.1195
20.0447
20.1822
19.9767
20.1823
19.9774
20.0429
20.1189
20.0434
20.1191
19.9753
20.1819
19.9759
20.1821
20.1246
20.1076
20.1246
20.1075
20.1279
20.1068
20.128
20.1067
20.0995
20.0995
20.0995
20.0994
20.0991
20.0991
20.0991
20.0991
20.1075
20.1246
20.1075
20.1246
20.1067
20.1279
20.1067
20.1279
20.1189
20.0429
20.1191
20.0435
20.1818
19.9754
20.182
19.976
20.0419
20.1185
20.0424
20.1187
19.9743
20.1814
19.9748
20.1816
20.1244
20.1076
20.1245
20.1076
20.1277
20.1068
20.1278
20.1068
20.0996
20.0996
20.0996
20.0996
20.0992
20.0992
20.0992
20.0992
20.1076
20.1244
20.1076
20.1245
20.1067
20.1277
20.1068
20.1278
20.1185
20.042
20.1187
20.0424
20.1814
19.9744
20.1816
19.9748
20.0411
20.1181
20.0415
20.1183
19.9736
20.1808
19.9739
20.1811
20.1242
20.1076
20.1243
20.1076
20.1275
20.1067
20.1276
20.1067
20.0997
20.0997
20.0997
20.0997
20.0992
20.0992
20.0992
20.0992
20.1076
20.1242
20.1076
20.1243
20.1066
20.1274
20.1067
20.1276
20.1181
20.0412
20.1183
20.0415
20.1808
19.9737
20.1811
19.974
20.0405
20.1177
20.0408
20.1179
19.9731
20.1801
19.9733
20.1805
20.1239
20.1075
20.1241
20.1075
20.1271
20.1065
20.1273
20.1066
20.0997
20.0997
20.0997
20.0997
20.0991
20.0991
20.0991
20.0991
20.1075
20.1239
20.1075
20.1241
20.1065
20.1271
20.1066
20.1273
20.1177
20.0406
20.1179
20.0408
20.1801
19.9732
20.1804
19.9734
20.0401
20.1173
20.0403
20.1175
19.9728
20.1794
19.9729
20.1798
20.1236
20.1073
20.1238
20.1074
20.1266
20.1063
20.1269
20.1064
20.0996
20.0996
20.0997
20.0997
20.0989
20.0989
20.099
20.099
20.1073
20.1236
20.1074
20.1237
20.1062
20.1266
20.1064
20.1268
20.1173
20.0401
20.1175
20.0403
20.1794
19.9729
20.1797
19.973
20.0398
20.117
20.0399
20.1172
19.9728
20.1786
19.9728
20.179
20.1232
20.1072
20.1234
20.1073
20.1261
20.106
20.1264
20.1061
20.0996
20.0996
20.0996
20.0996
20.0988
20.0988
20.0988
20.0988
20.1071
20.1232
20.1072
20.1234
20.106
20.1261
20.1061
20.1263
20.117
20.0398
20.1172
20.0399
20.1786
19.9729
20.179
19.9729
20.0396
20.1166
20.0397
20.1168
19.9729
20.1777
19.9728
20.1782
20.1227
20.1069
20.123
20.1071
20.1255
20.1056
20.1258
20.1058
20.0995
20.0995
20.0995
20.0995
20.0985
20.0985
20.0987
20.0987
20.1069
20.1227
20.107
20.1229
20.1056
20.1255
20.1058
20.1258
20.1166
20.0396
20.1168
20.0397
20.1777
19.973
20.1781
19.9729
20.0396
20.1163
20.0396
20.1165
19.9733
20.1768
19.9731
20.1773
20.1223
20.1067
20.1225
20.1068
20.1249
20.1053
20.1252
20.1055
20.0994
20.0994
20.0995
20.0995
20.0983
20.0983
20.0984
20.0984
20.1067
20.1223
20.1068
20.1225
20.1053
20.1248
20.1055
20.1252
20.1163
20.0396
20.1165
20.0396
20.1768
19.9734
20.1772
19.9732
20.0397
20.116
20.0396
20.1162
19.9738
20.1759
19.9735
20.1764
20.1218
20.1065
20.1221
20.1066
20.1242
20.1049
20.1245
20.1051
20.0994
20.0994
20.0994
20.0994
20.0981
20.0981
20.0982
20.0982
20.1065
20.1218
20.1066
20.122
20.1049
20.1242
20.1051
20.1245
20.116
20.0398
20.1162
20.0397
20.1758
19.9739
20.1763
19.9736
20.04
20.1157
20.0399
20.1159
19.9746
20.1749
19.9742
20.1754
20.1213
20.1063
20.1216
20.1064
20.1235
20.1046
20.1239
20.1047
20.0993
20.0993
20.0994
20.0993
20.0979
20.0979
20.098
20.098
20.1063
20.1213
20.1064
20.1216
20.1046
20.1235
20.1047
20.1238
20.1157
20.0401
20.1159
20.0399
20.1749
19.9747
20.1754
19.9743
20.0405
20.1155
20.0403
20.1156
19.9756
20.1739
19.9751
20.1744
20.1209
20.1061
20.1211
20.1062
20.1228
20.1042
20.1232
20.1044
20.0994
20.0994
20.0994
20.0994
20.0978
20.0978
20.0979
20.0979
20.1061
20.1209
20.1062
20.1211
20.1042
20.1228
20.1044
20.1231
20.1155
20.0406
20.1156
20.0403
20.1738
19.9756
20.1744
19.9751
20.0412
20.1153
20.0408
20.1154
19.9768
20.1728
19.9761
20.1734
20.1204
20.106
20.1207
20.1061
20.1221
20.104
20.1225
20.1041
20.0995
20.0995
20.0994
20.0994
20.0977
20.0977
20.0978
20.0978
20.106
20.1204
20.1061
20.1206
20.1039
20.1221
20.1041
20.1224
20.1153
20.0412
20.1154
20.0409
20.1728
19.9768
20.1733
19.9762
20.042
20.1151
20.0416
20.1152
19.9782
20.1717
19.9775
20.1723
20.12
20.106
20.1202
20.106
20.1214
20.1037
20.1218
20.1038
20.0997
20.0997
20.0996
20.0996
20.0977
20.0977
20.0977
20.0977
20.106
20.12
20.106
20.1202
20.1037
20.1214
20.1038
20.1218
20.1151
20.0421
20.1152
20.0416
20.1717
19.9783
20.1722
19.9775
20.0431
20.115
20.0425
20.1151
19.98
20.1706
19.9791
20.1712
20.1196
20.106
20.1198
20.106
20.1208
20.1036
20.1211
20.1037
20.1
20.1
20.0998
20.0998
20.0979
20.0979
20.0978
20.0978
20.106
20.1196
20.106
20.1198
20.1036
20.1208
20.1037
20.1211
20.115
20.0431
20.1151
20.0426
20.1706
19.98
20.1711
19.9791
20.0443
20.1149
20.0437
20.1149
19.982
20.1694
19.9809
20.17
20.1193
20.1061
20.1194
20.1061
20.1202
20.1036
20.1205
20.1036
20.1004
20.1004
20.1001
20.1001
20.0981
20.0981
20.098
20.098
20.1061
20.1193
20.1061
20.1194
20.1036
20.1201
20.1036
20.1204
20.1149
20.0443
20.1149
20.0437
20.1694
19.9821
20.17
19.981
20.0457
20.1148
20.045
20.1148
19.9843
20.1682
19.9831
20.1688
20.119
20.1064
20.1191
20.1062
20.1196
20.1037
20.1199
20.1036
20.1009
20.1009
20.1006
20.1006
20.0984
20.0984
20.0982
20.0982
20.1064
20.1189
20.1062
20.1191
20.1036
20.1196
20.1036
20.1199
20.1148
20.0458
20.1148
20.045
20.1682
19.9844
20.1688
19.9832
20.0474
20.1147
20.0465
20.1148
19.987
20.1669
19.9856
20.1676
20.1187
20.1067
20.1188
20.1065
20.1191
20.1039
20.1194
20.1037
20.1015
20.1015
20.1012
20.1012
20.0989
20.0989
20.0987
20.0987
20.1067
20.1187
20.1065
20.1188
20.1039
20.1191
20.1037
20.1193
20.1147
20.0474
20.1148
20.0466
20.1669
19.987
20.1676
19.9857
20.0493
20.1146
20.0483
20.1147
19.99
20.1655
19.9884
20.1662
20.1186
20.1072
20.1186
20.1069
20.1187
20.1042
20.1189
20.104
20.1022
20.1022
20.1018
20.1018
20.0996
20.0996
20.0992
20.0992
20.1072
20.1186
20.1069
20.1186
20.1042
20.1187
20.104
20.1189
20.1146
20.0493
20.1147
20.0483
20.1655
19.99
20.1662
19.9885
20.0514
20.1145
20.0503
20.1146
19.9934
20.1639
19.9916
20.1647
20.1185
20.1078
20.1185
20.1074
20.1185
20.1048
20.1186
20.1045
20.1031
20.1031
20.1026
20.1026
20.1003
20.1003
20.0999
20.0999
20.1077
20.1185
20.1074
20.1185
20.1048
20.1185
20.1045
20.1186
20.1145
20.0514
20.1146
20.0503
20.1639
19.9935
20.1647
19.9917
20.0536
20.1144
20.0525
20.1144
19.9973
20.1622
19.9953
20.1631
20.1185
20.1085
20.1185
20.1081
20.1183
20.1054
20.1184
20.1051
20.104
20.104
20.1035
20.1035
20.1012
20.1012
20.1007
20.1007
20.1084
20.1185
20.1081
20.1185
20.1054
20.1183
20.1051
20.1184
20.1144
20.0536
20.1144
20.0525
20.1621
19.9973
20.1631
19.9953
20.056
20.1143
20.0548
20.1143
20.0017
20.16
19.9994
20.1611
20.1187
20.1093
20.1186
20.1088
20.1183
20.1063
20.1183
20.1058
20.105
20.105
20.1045
20.1045
20.1022
20.1022
20.1017
20.1017
20.1093
20.1186
20.1088
20.1186
20.1063
20.1183
20.1058
20.1183
20.1143
20.056
20.1143
20.0548
20.16
20.0018
20.1611
19.9995
20.0578
20.1149
20.0571
20.1143
20.0071
20.1572
20.0043
20.1587
20.1189
20.1102
20.1187
20.1097
20.1184
20.1072
20.1183
20.1067
20.1061
20.1061
20.1056
20.1056
20.1033
20.1033
20.1028
20.1028
20.1102
20.1189
20.1097
20.1187
20.1072
20.1184
20.1067
20.1183
20.1148
20.0578
20.1143
20.0571
20.1572
20.0071
20.1587
20.0043
20.0595
20.1154
20.0577
20.1162
20.0133
20.1533
20.0101
20.1554
20.1196
20.1113
20.1192
20.1107
20.1189
20.1084
20.1186
20.1078
20.1073
20.1073
20.1067
20.1067
20.1046
20.1046
20.1039
20.1039
20.1113
20.1196
20.1107
20.1192
20.1084
20.1189
20.1078
20.1186
20.1153
20.0595
20.1162
20.0577
20.1533
20.0133
20.1554
20.0101
20.138
20.0719
20.1229
20.0822
20.1316
20.0755
20.1185
20.0844
20.0962
20.1
20.0983
20.1001
20.0974
20.0998
20.0985
20.0996
20.1001
20.1001
20.1001
20.1001
20.0998
20.0998
20.0995
20.0995
20.1
20.0962
20.1001
20.0983
20.0998
20.0974
20.0996
20.0985
20.0719
20.138
20.0822
20.1229
20.0755
20.1315
20.0844
20.1185
20.1351
20.0785
20.1363
20.0756
20.1285
20.0812
20.1303
20.0785
20.0935
20.099
20.0948
20.0997
20.096
20.0993
20.0967
20.0997
20.0998
20.0998
20.1
20.1
20.0996
20.0996
20.0998
20.0998
20.099
20.0935
20.0997
20.0948
20.0993
20.096
20.0997
20.0967
20.0785
20.1351
20.0756
20.1363
20.0812
20.1285
20.0785
20.1302
20.1326
20.0825
20.1339
20.0808
20.1242
20.0855
20.1265
20.0835
20.0932
20.0979
20.0931
20.0984
20.0964
20.0986
20.0959
20.0989
20.099
20.099
20.0994
20.0994
20.0989
20.0989
20.0993
20.0993
20.0979
20.0932
20.0984
20.0931
20.0986
20.0964
20.0989
20.0959
20.0825
20.1326
20.0808
20.1339
20.0855
20.1242
20.0835
20.1265
20.1302
20.0845
20.1313
20.0837
20.1197
20.0883
20.1219
20.0871
20.0942
20.0974
20.0936
20.0976
20.0981
20.0983
20.0971
20.0984
20.0981
20.098
20.0985
20.0985
20.098
20.098
20.0984
20.0984
20.0974
20.0942
20.0976
20.0936
20.0983
20.098
20.0984
20.0971
20.0845
20.1301
20.0837
20.1313
20.0883
20.1197
20.0871
20.1219
20.128
20.0851
20.129
20.0849
20.1156
20.0898
20.1176
20.0892
20.0957
20.0975
20.095
20.0974
20.1004
20.0986
20.0992
20.0984
20.0973
20.0973
20.0976
20.0976
20.0973
20.0973
20.0976
20.0976
20.0975
20.0957
20.0974
20.0949
20.0986
20.1004
20.0984
20.0991
20.0851
20.128
20.0849
20.129
20.0898
20.1156
20.0892
20.1176
20.1261
20.0849
20.127
20.085
20.112
20.0903
20.1137
20.0901
20.0971
20.098
20.0964
20.0977
20.1027
20.0992
20.1016
20.0989
20.0969
20.0969
20.097
20.097
20.0969
20.0969
20.0971
20.0971
20.098
20.0971
20.0977
20.0964
20.0992
20.1027
20.0989
20.1016
20.0849
20.1261
20.085
20.127
20.0903
20.112
20.0901
20.1137
20.1245
20.0842
20.1253
20.0846
20.1088
20.0903
20.1103
20.0903
20.0984
20.0987
20.0978
20.0984
20.1047
20.1001
20.1037
20.0996
20.0968
20.0968
20.0968
20.0968
20.0968
20.0968
20.0968
20.0968
20.0987
20.0983
20.0984
20.0978
20.1001
20.1046
20.0996
20.1037
20.0842
20.1245
20.0846
20.1253
20.0903
20.1088
20.0903
20.1103
20.123
20.0834
20.1237
20.0838
20.106
20.0899
20.1074
20.0901
20.0993
20.0995
20.0989
20.0991
20.1062
20.1011
20.1055
20.1006
20.0969
20.0969
20.0968
20.0968
20.0969
20.0969
20.0968
20.0968
20.0995
20.0993
20.0991
20.0989
20.1011
20.1062
20.1006
20.1055
20.0834
20.123
20.0838
20.1237
20.0899
20.106
20.0901
20.1074
20.1216
20.0824
20.1223
20.0829
20.1036
20.0893
20.1048
20.0896
20.1001
20.1004
20.0997
20.1
20.1074
20.102
20.1069
20.1016
20.0973
20.0973
20.0971
20.0971
20.0973
20.0973
20.0971
20.0971
20.1003
20.1001
20.0999
20.0997
20.102
20.1074
20.1015
20.1069
20.0824
20.1216
20.0829
20.1223
20.0893
20.1036
20.0896
20.1048
20.1204
20.0815
20.121
20.0819
20.1015
20.0886
20.1025
20.089
20.1006
20.1011
20.1004
20.1007
20.1084
20.1029
20.1079
20.1025
20.0977
20.0977
20.0975
20.0975
20.0977
20.0977
20.0975
20.0975
20.1011
20.1006
20.1007
20.1004
20.1029
20.1084
20.1025
20.1079
20.0815
20.1203
20.0819
20.1209
20.0886
20.1015
20.089
20.1025
20.1192
20.0806
20.1198
20.081
20.0996
20.0879
20.1005
20.0883
20.101
20.1018
20.1008
20.1015
20.109
20.1038
20.1088
20.1034
20.0982
20.0982
20.098
20.098
20.0982
20.0982
20.0979
20.0979
20.1018
20.1009
20.1015
20.1008
20.1037
20.109
20.1033
20.1086
20.0806
20.1191
20.081
20.1197
20.0879
20.0996
20.0883
20.1005
20.118
20.0798
20.1186
20.0802
20.0979
20.0873
20.0988
20.0876
20.1012
20.1024
20.1011
20.1021
20.1096
20.1045
20.1093
20.1041
20.0988
20.0988
20.0985
20.0985
20.0986
20.0986
20.0984
20.0984
20.1024
20.1012
20.1021
20.1011
20.1044
20.1095
20.1041
20.1093
20.0798
20.118
20.0802
20.1186
20.0873
20.0979
20.0876
20.0987
20.117
20.0791
20.1175
20.0794
20.0965
20.0866
20.0972
20.0869
20.1013
20.103
20.1013
20.1027
20.11
20.105
20.1098
20.1048
20.0992
20.0992
20.099
20.099
20.0991
20.0991
20.0989
20.0989
20.1029
20.1013
20.1027
20.1013
20.105
20.11
20.1047
20.1098
20.0791
20.1169
20.0794
20.1175
20.0866
20.0964
20.0869
20.0972
20.116
20.0784
20.1165
20.0787
20.0951
20.086
20.0958
20.0863
20.1014
20.1034
20.1014
20.1032
20.1103
20.1055
20.1102
20.1053
20.0997
20.0997
20.0995
20.0995
20.0995
20.0995
20.0993
20.0993
20.1034
20.1014
20.1032
20.1014
20.1055
20.1103
20.1053
20.1102
20.0784
20.1159
20.0787
20.1164
20.086
20.0951
20.0863
20.0958
20.1151
20.0778
20.1155
20.0781
20.0939
20.0854
20.0945
20.0857
20.1015
20.1037
20.1015
20.1036
20.1105
20.1059
20.1104
20.1057
20.1001
20.1
20.0999
20.0999
20.0998
20.0998
20.0997
20.0997
20.1037
20.1015
20.1036
20.1015
20.1059
20.1105
20.1057
20.1104
20.0778
20.115
20.0781
20.1155
20.0854
20.0939
20.0857
20.0945
20.1142
20.0773
20.1146
20.0776
20.0929
20.0849
20.0934
20.0852
20.1015
20.104
20.1015
20.1039
20.1106
20.1062
20.1106
20.106
20.1004
20.1004
20.1002
20.1002
20.1001
20.1001
20.1
20.1
20.104
20.1015
20.1039
20.1015
20.1061
20.1106
20.106
20.1106
20.0773
20.1141
20.0776
20.1146
20.0849
20.0929
20.0852
20.0934
20.1134
20.0769
20.1138
20.0771
20.0919
20.0845
20.0924
20.0847
20.1015
20.1042
20.1015
20.1041
20.1106
20.1063
20.1107
20.1063
20.1006
20.1006
20.1005
20.1005
20.1003
20.1003
20.1002
20.1002
20.1042
20.1015
20.1041
20.1015
20.1063
20.1106
20.1063
20.1106
20.0769
20.1133
20.0771
20.1137
20.0845
20.0919
20.0847
20.0924
20.1126
20.0765
20.113
20.0767
20.0911
20.0841
20.0915
20.0843
20.1014
20.1044
20.1015
20.1043
20.1107
20.1065
20.1107
20.1064
20.1008
20.1008
20.1007
20.1007
20.1005
20.1005
20.1004
20.1004
20.1044
20.1014
20.1043
20.1015
20.1064
20.1107
20.1064
20.1106
20.0766
20.1126
20.0767
20.113
20.0841
20.0911
20.0843
20.0915
20.112
20.0763
20.1123
20.0764
20.0904
20.0838
20.0907
20.0839
20.1013
20.1045
20.1014
20.1044
20.1106
20.1065
20.1107
20.1065
20.101
20.101
20.1009
20.1009
20.1006
20.1006
20.1006
20.1006
20.1044
20.1013
20.1044
20.1014
20.1065
20.1106
20.1065
20.1107
20.0763
20.1119
20.0764
20.1123
20.0838
20.0904
20.0839
20.0907
20.1114
20.076
20.1117
20.0761
20.0898
20.0835
20.0901
20.0836
20.1012
20.1045
20.1013
20.1045
20.1106
20.1065
20.1106
20.1065
20.1011
20.1011
20.1011
20.1011
20.1007
20.1007
20.1007
20.1006
20.1045
20.1012
20.1045
20.1013
20.1065
20.1106
20.1065
20.1106
20.076
20.1114
20.0761
20.1116
20.0835
20.0897
20.0836
20.09
20.1109
20.0759
20.1111
20.0759
20.0893
20.0832
20.0895
20.0834
20.1012
20.1045
20.1012
20.1045
20.1105
20.1065
20.1105
20.1065
20.1012
20.1012
20.1012
20.1012
20.1007
20.1007
20.1007
20.1007
20.1045
20.1012
20.1045
20.1012
20.1064
20.1104
20.1065
20.1105
20.0759
20.1109
20.076
20.1111
20.0833
20.0892
20.0834
20.0895
20.1105
20.0758
20.1107
20.0758
20.0889
20.0831
20.089
20.0832
20.1011
20.1046
20.1011
20.1045
20.1103
20.1064
20.1104
20.1064
20.1013
20.1013
20.1012
20.1012
20.1007
20.1007
20.1007
20.1007
20.1045
20.1011
20.1045
20.1011
20.1064
20.1103
20.1064
20.1104
20.0758
20.1104
20.0758
20.1106
20.0831
20.0888
20.0832
20.089
20.1102
20.0758
20.1103
20.0758
20.0886
20.083
20.0887
20.083
20.1011
20.1046
20.1011
20.1046
20.1102
20.1063
20.1103
20.1063
20.1014
20.1014
20.1013
20.1013
20.1007
20.1007
20.1007
20.1007
20.1046
20.1011
20.1046
20.1011
20.1063
20.1102
20.1063
20.1102
20.0758
20.1101
20.0758
20.1103
20.083
20.0885
20.083
20.0887
20.1099
20.0758
20.11
20.0758
20.0884
20.0829
20.0885
20.0829
20.1011
20.1046
20.1011
20.1046
20.11
20.1062
20.1101
20.1063
20.1014
20.1014
20.1014
20.1014
20.1008
20.1008
20.1008
20.1007
20.1046
20.1011
20.1046
20.1011
20.1062
20.11
20.1062
20.1101
20.0758
20.1099
20.0758
20.11
20.0829
20.0884
20.0829
20.0884
20.1098
20.076
20.1098
20.0759
20.0883
20.0829
20.0883
20.0829
20.1011
20.1046
20.1011
20.1046
20.1099
20.1061
20.11
20.1062
20.1016
20.1016
20.1015
20.1015
20.1008
20.1008
20.1008
20.1008
20.1046
20.1011
20.1046
20.1011
20.1061
20.1099
20.1062
20.11
20.076
20.1097
20.0759
20.1098
20.0829
20.0883
20.0829
20.0883
20.1098
20.0761
20.1098
20.076
20.0884
20.0829
20.0883
20.0829
20.1011
20.1047
20.1011
20.1046
20.1098
20.1061
20.1098
20.1061
20.1017
20.1017
20.1016
20.1016
20.1009
20.1009
20.1009
20.1009
20.1047
20.1011
20.1046
20.1011
20.1061
20.1098
20.1061
20.1098
20.0761
20.1097
20.076
20.1097
20.083
20.0884
20.0829
20.0883
20.1098
20.0765
20.1098
20.0762
20.0886
20.0831
20.0885
20.083
20.1012
20.1048
20.1012
20.1047
20.1097
20.1061
20.1097
20.1061
20.102
20.102
20.1018
20.1018
20.1011
20.101
20.101
20.101
20.1048
20.1012
20.1047
20.1012
20.1061
20.1097
20.1061
20.1097
20.0765
20.1098
20.0763
20.1097
20.0831
20.0886
20.083
20.0885
20.11
20.077
20.1099
20.0768
20.0889
20.0832
20.0887
20.0831
20.1014
20.105
20.1013
20.1049
20.1096
20.1061
20.1097
20.1061
20.1022
20.1022
20.1021
20.1021
20.1013
20.1013
20.1012
20.1011
20.105
20.1014
20.1049
20.1013
20.1061
20.1096
20.1061
20.1096
20.0771
20.1099
20.0768
20.1098
20.0832
20.0889
20.0831
20.0887
20.1102
20.0777
20.1101
20.0773
20.0893
20.0834
20.0891
20.0833
20.1015
20.1052
20.1014
20.1051
20.1096
20.1062
20.1096
20.1062
20.1026
20.1026
20.1024
20.1024
20.1016
20.1016
20.1014
20.1014
20.1052
20.1015
20.1051
20.1014
20.1062
20.1096
20.1062
20.1096
20.0777
20.1102
20.0774
20.11
20.0834
20.0893
20.0833
20.0891
20.1105
20.0785
20.1103
20.0781
20.0899
20.0836
20.0896
20.0835
20.1017
20.1055
20.1016
20.1053
20.1096
20.1064
20.1096
20.1063
20.1031
20.1031
20.1028
20.1028
20.102
20.102
20.1018
20.1018
20.1055
20.1017
20.1053
20.1016
20.1064
20.1096
20.1063
20.1096
20.0785
20.1105
20.0781
20.1103
20.0836
20.0899
20.0835
20.0896
20.1109
20.0788
20.1107
20.0787
20.0906
20.0841
20.0902
20.0838
20.102
20.1059
20.1019
20.1057
20.1097
20.1067
20.1096
20.1066
20.1036
20.1036
20.1033
20.1033
20.1025
20.1025
20.1022
20.1022
20.1059
20.102
20.1057
20.1019
20.1067
20.1097
20.1066
20.1096
20.0789
20.1109
20.0787
20.1107
20.0842
20.0906
20.0838
20.0902
20.1114
20.0792
20.1112
20.079
20.0914
20.0848
20.091
20.0845
20.1024
20.1064
20.1023
20.1061
20.1098
20.1071
20.1097
20.1069
20.1042
20.1042
20.1039
20.1039
20.103
20.103
20.1027
20.1027
20.1064
20.1024
20.1061
20.1023
20.1071
20.1098
20.1069
20.1097
20.0792
20.1114
20.079
20.1111
20.0848
20.0914
20.0845
20.091
20.1119
20.0798
20.1117
20.0795
20.0923
20.0854
20.0918
20.0851
20.1028
20.107
20.1027
20.1066
20.1099
20.1075
20.1098
20.1073
20.105
20.105
20.1046
20.1046
20.1037
20.1037
20.1034
20.1034
20.107
20.1028
20.1066
20.1027
20.1075
20.1099
20.1073
20.1098
20.0798
20.1119
20.0795
20.1116
20.0854
20.0923
20.0851
20.0918
20.1124
20.0804
20.1122
20.0801
20.0932
20.0861
20.0927
20.0857
20.1033
20.1076
20.1031
20.1072
20.1102
20.1081
20.11
20.1078
20.1058
20.1058
20.1053
20.1053
20.1045
20.1045
20.1041
20.1041
20.1076
20.1033
20.1072
20.1031
20.1081
20.1102
20.1078
20.11
20.0804
20.1123
20.0801
20.1121
20.0861
20.0932
20.0858
20.0927
20.1127
20.0813
20.1125
20.0808
20.0942
20.0868
20.0937
20.0864
20.1039
20.1083
20.1037
20.1079
20.1105
20.1087
20.1103
20.1084
20.1066
20.1066
20.1062
20.1062
20.1054
20.1054
20.1049
20.1049
20.1083
20.1039
20.1079
20.1037
20.1087
20.1105
20.1084
20.1103
20.0813
20.1126
20.0808
20.1125
20.0868
20.0942
20.0864
20.0937
20.1126
20.0824
20.1127
20.0818
20.0951
20.0877
20.0947
20.0872
20.1047
20.1091
20.1043
20.1087
20.1109
20.1095
20.1107
20.1091
20.1075
20.1075
20.1071
20.1071
20.1063
20.1063
20.1058
20.1058
20.1091
20.1047
20.1087
20.1043
20.1095
20.1109
20.1091
20.1107
20.0824
20.1126
20.0818
20.1127
20.0877
20.095
20.0872
20.0946
20.112
20.084
20.1124
20.0831
20.0956
20.0888
20.0954
20.0882
20.1055
20.11
20.1051
20.1095
20.1114
20.1103
20.1112
20.1099
20.1085
20.1085
20.108
20.108
20.1073
20.1073
20.1068
20.1068
20.11
20.1055
20.1095
20.1051
20.1103
20.1114
20.1099
20.1112
20.084
20.1119
20.0831
20.1124
20.0888
20.0956
20.0882
20.0954
20.1088
20.0879
20.111
20.0854
20.0946
20.0914
20.0955
20.0897
20.1064
20.111
20.1059
20.1105
20.112
20.1112
20.1117
20.1107
20.1095
20.1095
20.109
20.109
20.1083
20.1083
20.1078
20.1078
20.111
20.1064
20.1105
20.1059
20.1112
20.112
20.1107
20.1117
20.0879
20.1088
20.0854
20.111
20.0914
20.0946
20.0897
20.0955
20.1153
20.0819
20.1059
20.0912
20.0997
20.0877
20.0929
20.0939
20.1076
20.1123
20.1072
20.1116
20.113
20.1125
20.1126
20.1118
20.1105
20.1105
20.11
20.11
20.1094
20.1094
20.1089
20.1089
20.1123
20.1076
20.1116
20.1072
20.1124
20.113
20.1118
20.1126
20.0819
20.1152
20.0912
20.1059
20.0877
20.0996
20.0939
20.0929
20.1463
20.0667
20.1285
20.0782
20.1427
20.0685
20.126
20.0797
20.0933
20.0997
20.0969
20.1
20.0946
20.0998
20.0975
20.0999
20.1001
20.1001
20.1001
20.1001
20.1
20.1
20.0999
20.0999
20.0997
20.0933
20.1
20.0969
20.0998
20.0946
20.0999
20.0975
20.0667
20.1463
20.0783
20.1285
20.0685
20.1427
20.0797
20.126
20.1415
20.078
20.1431
20.0732
20.1391
20.0776
20.1404
20.0738
20.0893
20.0976
20.0911
20.0989
20.0911
20.0983
20.0927
20.0993
20.0998
20.0998
20.1
20.1
20.0998
20.0998
20.1
20.1
20.0976
20.0893
20.0989
20.0911
20.0983
20.0911
20.0993
20.0927
20.078
20.1415
20.0732
20.1431
20.0776
20.1391
20.0738
20.1404
20.1391
20.0842
20.1403
20.0815
20.1369
20.0826
20.138
20.0805
20.0881
20.0955
20.0884
20.0964
20.0902
20.0967
20.0903
20.0974
20.0988
20.0988
20.0994
20.0994
20.099
20.099
20.0994
20.0994
20.0955
20.0881
20.0964
20.0884
20.0967
20.0902
20.0974
20.0903
20.0841
20.1391
20.0815
20.1402
20.0826
20.1369
20.0805
20.138
20.1372
20.0874
20.1381
20.086
20.135
20.085
20.1359
20.0841
20.0885
20.0944
20.0882
20.0949
20.0908
20.0959
20.0904
20.0962
20.0975
20.0975
20.0981
20.0981
20.0979
20.0979
20.0984
20.0984
20.0944
20.0885
20.0949
20.0882
20.0959
20.0908
20.0962
20.0904
20.0874
20.1372
20.086
20.1381
20.085
20.135
20.0841
20.1359
20.1358
20.0888
20.1365
20.0882
20.1335
20.0859
20.1342
20.0856
20.0893
20.0941
20.0889
20.0942
20.0918
20.0958
20.0912
20.0958
20.0964
20.0964
20.0969
20.0969
20.097
20.097
20.0974
20.0974
20.0941
20.0893
20.0942
20.0889
20.0958
20.0917
20.0958
20.0912
20.0888
20.1358
20.0882
20.1364
20.0859
20.1335
20.0856
20.1342
20.1346
20.0892
20.1352
20.0891
20.1322
20.086
20.1328
20.086
20.09
20.0941
20.0897
20.094
20.0927
20.0961
20.0922
20.0959
20.0958
20.0958
20.0961
20.0961
20.0965
20.0964
20.0967
20.0967
20.0941
20.09
20.094
20.0897
20.0961
20.0927
20.0959
20.0922
20.0892
20.1346
20.0891
20.1352
20.086
20.1322
20.086
20.1328
20.1336
20.0891
20.1341
20.0892
20.1311
20.0855
20.1316
20.0858
20.0906
20.0944
20.0903
20.0942
20.0934
20.0967
20.093
20.0964
20.0955
20.0955
20.0956
20.0956
20.0963
20.0963
20.0963
20.0963
20.0944
20.0906
20.0942
20.0903
20.0967
20.0934
20.0964
20.093
20.0891
20.1336
20.0892
20.1341
20.0855
20.131
20.0858
20.1316
20.1327
20.0888
20.1332
20.089
20.13
20.0848
20.1305
20.0852
20.091
20.0948
20.0908
20.0946
20.094
20.0973
20.0937
20.097
20.0956
20.0956
20.0955
20.0955
20.0964
20.0964
20.0963
20.0963
20.0948
20.091
20.0946
20.0908
20.0972
20.094
20.0969
20.0937
20.0888
20.1327
20.089
20.1331
20.0848
20.13
20.0852
20.1305
20.1318
20.0882
20.1323
20.0885
20.129
20.084
20.1295
20.0844
20.0912
20.0953
20.0911
20.095
20.0944
20.0979
20.0942
20.0976
20.0959
20.0959
20.0957
20.0957
20.0968
20.0968
20.0966
20.0966
20.0953
20.0912
20.095
20.0911
20.0979
20.0944
20.0976
20.0942
20.0882
20.1318
20.0885
20.1322
20.084
20.129
20.0844
20.1295
20.131
20.0876
20.1314
20.0879
20.1281
20.0832
20.1285
20.0836
20.0914
20.0957
20.0913
20.0955
20.0946
20.0985
20.0945
20.0982
20.0963
20.0963
20.0961
20.0961
20.0972
20.0972
20.097
20.097
20.0957
20.0914
20.0955
20.0913
20.0985
20.0946
20.0982
20.0945
20.0876
20.1309
20.0879
20.1313
20.0832
20.128
20.0836
20.1285
20.1301
20.087
20.1305
20.0873
20.1271
20.0824
20.1276
20.0828
20.0915
20.0962
20.0914
20.0959
20.0948
20.0991
20.0947
20.0988
20.0968
20.0968
20.0965
20.0965
20.0977
20.0977
20.0975
20.0974
20.0962
20.0915
20.0959
20.0914
20.0991
20.0948
20.0988
20.0947
20.087
20.1301
20.0873
20.1305
20.0824
20.1271
20.0828
20.1276
20.1293
20.0864
20.1297
20.0867
20.1262
20.0817
20.1267
20.082
20.0915
20.0966
20.0915
20.0964
20.0948
20.0996
20.0948
20.0993
20.0973
20.0973
20.097
20.097
20.0982
20.0982
20.098
20.098
20.0966
20.0915
20.0964
20.0915
20.0996
20.0949
20.0993
20.0948
20.0864
20.1292
20.0867
20.1296
20.0817
20.1262
20.082
20.1266
20.1285
20.0858
20.1289
20.0861
20.1253
20.081
20.1258
20.0813
20.0915
20.097
20.0915
20.0968
20.0949
20.1
20.0949
20.0998
20.0977
20.0977
20.0975
20.0975
20.0987
20.0987
20.0985
20.0985
20.097
20.0915
20.0968
20.0915
20.1
20.0949
20.0998
20.0949
20.0858
20.1284
20.0861
20.1288
20.081
20.1253
20.0813
20.1257
20.1277
20.0853
20.1281
20.0856
20.1245
20.0804
20.1249
20.0807
20.0915
20.0973
20.0915
20.0971
20.0949
20.1004
20.0949
20.1002
20.0982
20.0982
20.098
20.098
20.0992
20.0992
20.0989
20.0989
20.0973
20.0915
20.0971
20.0915
20.1004
20.0949
20.1002
20.0949
20.0853
20.1276
20.0856
20.128
20.0804
20.1245
20.0807
20.1249
20.1269
20.0848
20.1273
20.085
20.1237
20.0798
20.1241
20.0801
20.0915
20.0976
20.0915
20.0974
20.0949
20.1007
20.0949
20.1006
20.0986
20.0986
20.0984
20.0984
20.0996
20.0996
20.0994
20.0994
20.0976
20.0915
20.0974
20.0915
20.1007
20.0949
20.1006
20.0949
20.0848
20.1269
20.085
20.1273
20.0798
20.1236
20.0801
20.124
20.1262