/*--------------------------------*- C++ -*----------------------------------*\
  =========                 |
  \\      /  F ield         | OpenFOAM: The Open Source CFD Toolbox
   \\    /   O peration     | Website:  https://openfoam.org
    \\  /    A nd           | Version:  9
     \\/     M anipulation  |
\*---------------------------------------------------------------------------*/
FoamFile
{
    format      ascii;
    class       volScalarField;
    location    "2.45";
    object      epsilon;
}
// * * * * * * * * * * * * * * * * * * * * * * * * * * * * * * * * * * * * * //

dimensions      [0 2 -3 0 0 0 0];

internalField   nonuniform List<scalar> 
36360
(
0.264271
0.205973
0.102136
0.0905474
0.0817994
0.0566265
0.0145284
0.0125683
0.0559753
0.0107612
0.0143754
0.00484449
0.012518
0.00412186
0.00564454
0.00484373
0.00300664
0.00300732
0.00426104
0.00426101
0.00305181
0.00305184
0.00494482
0.00494481
0.0107683
0.0560007
0.00484526
0.0143828
0.00412353
0.0125288
0.00484364
0.00564579
0.20602
0.264336
0.0905876
0.102177
0.0566668
0.0818334
0.0125759
0.0145326
0.474576
0.370571
0.385507
0.299183
0.293939
0.198182
0.194024
0.128278
0.149915
0.055021
0.105921
0.0300291
0.0763524
0.0201625
0.0380419
0.00763737
0.0182701
0.0182805
0.00634791
0.00635202
0.00496008
0.00496378
0.00266024
0.00266108
0.0550465
0.149957
0.0300466
0.105953
0.0201851
0.0764083
0.0076449
0.038076
0.37064
0.474677
0.29924
0.38559
0.198271
0.294028
0.128343
0.194087
0.594107
0.47025
0.541767
0.426087
0.441225
0.311039
0.375067
0.259102
0.218636
0.103093
0.187139
0.0797948
0.149768
0.0673447
0.114464
0.0422081
0.0575509
0.0575679
0.0376816
0.0376951
0.0345341
0.0345524
0.0146992
0.0147099
0.10314
0.218708
0.0798308
0.187195
0.0674048
0.149872
0.0422491
0.114544
0.470356
0.594254
0.426173
0.54189
0.311183
0.441371
0.259217
0.375183
0.669152
0.534915
0.635679
0.505884
0.541013
0.392357
0.495717
0.355072
0.267568
0.142269
0.245234
0.124053
0.209065
0.114879
0.181374
0.0921614
0.0926002
0.092624
0.07614
0.0761604
0.0774477
0.0774794
0.0565476
0.056573
0.142336
0.267672
0.12411
0.245322
0.114975
0.20922
0.0922399
0.181504
0.535064
0.669354
0.506011
0.635853
0.39256
0.541222
0.355245
0.495894
0.717574
0.57737
0.696058
0.558448
0.608862
0.44907
0.578324
0.423434
0.301121
0.170324
0.286061
0.157659
0.25232
0.151187
0.232641
0.134599
0.118216
0.118246
0.106628
0.106655
0.111181
0.111224
0.0957589
0.0957964
0.170409
0.301254
0.157736
0.28618
0.151314
0.252523
0.134711
0.23282
0.57756
0.71783
0.558619
0.696287
0.449329
0.609128
0.423666
0.578562
0.74769
0.604004
0.734534
0.59235
0.652598
0.486003
0.63328
0.46966
0.3226
0.188535
0.313174
0.18053
0.280953
0.175383
0.268259
0.164657
0.134914
0.134949
0.127571
0.127604
0.133623
0.133675
0.123685
0.123732
0.188636
0.322758
0.180623
0.31332
0.175536
0.281195
0.164798
0.268482
0.604229
0.747991
0.592558
0.734814
0.486309
0.652912
0.469944
0.633571
0.765034
0.619442
0.757669
0.612875
0.678535
0.507974
0.667365
0.498506
0.335207
0.199282
0.329837
0.194702
0.298095
0.189828
0.290707
0.183611
0.144777
0.144816
0.140574
0.140611
0.146965
0.147023
0.141227
0.141283
0.199395
0.335383
0.194809
0.330005
0.190001
0.298367
0.183775
0.290965
0.619694
0.765372
0.613114
0.757989
0.508317
0.678887
0.498832
0.667698
0.773908
0.627426
0.770316
0.62418
0.692311
0.519625
0.686576
0.514776
0.341825
0.204958
0.339127
0.202641
0.307237
0.197492
0.303429
0.194303
0.149992
0.150034
0.147863
0.147903
0.154011
0.154074
0.151081
0.151142
0.205078
0.342015
0.202758
0.339311
0.197679
0.307531
0.194484
0.303713
0.627697
0.774272
0.624442
0.770668
0.519993
0.692689
0.515132
0.686941
0.77752
0.63079
0.776227
0.62956
0.698462
0.524797
0.696051
0.52277
0.344733
0.207502
0.343652
0.206547
0.311376
0.200951
0.309744
0.199585
0.15235
0.152393
0.151461
0.151504
0.157182
0.157248
0.155927
0.155992
0.207628
0.344932
0.206671
0.343847
0.201147
0.311684
0.199777
0.310046
0.631073
0.777901
0.629837
0.7766
0.525183
0.698858
0.523148
0.696438
0.77807
0.63148
0.778099
0.631404
0.700164
0.526215
0.699684
0.52581
0.345514
0.208276
0.345347
0.208076
0.312655
0.20205
0.312246
0.201684
0.153104
0.153149
0.152896
0.15294
0.158199
0.158266
0.157852
0.15792
0.208405
0.345717
0.208203
0.345548
0.202251
0.31297
0.201883
0.312558
0.63177
0.77846
0.631691
0.778485
0.526611
0.700571
0.526201
0.700084
0.777045
0.630826
0.777749
0.631312
0.699642
0.525761
0.70007
0.52612
0.345233
0.208162
0.345494
0.208315
0.312502
0.201977
0.312668
0.202082
0.153055
0.1531
0.153167
0.153212
0.158152
0.158221
0.158235
0.158303
0.208292
0.345438
0.208444
0.345698
0.20218
0.312821
0.202284
0.312985
0.631119
0.77744
0.631604
0.778141
0.526161
0.700054
0.526518
0.700479
0.775043
0.629346
0.776154
0.63018
0.697746
0.524181
0.698748
0.525011
0.34432
0.20755
0.34486
0.207929
0.311513
0.201245
0.312047
0.201644
0.152571
0.152616
0.152881
0.152926
0.157521
0.157589
0.157865
0.157933
0.20768
0.344526
0.20806
0.345065
0.201448
0.311832
0.201847
0.312366
0.62964
0.775438
0.630474
0.776549
0.524583
0.69816
0.525413
0.69916
0.77249
0.627428
0.773845
0.628454
0.695166
0.522045
0.696472
0.523118
0.343088
0.206683
0.343766
0.207171
0.310118
0.200192
0.310824
0.200722
0.151862
0.151907
0.152266
0.152311
0.156604
0.156672
0.157061
0.157129
0.206814
0.343294
0.207302
0.343972
0.200394
0.310436
0.200925
0.311144
0.627723
0.772885
0.628748
0.774241
0.522446
0.69558
0.52352
0.696884
0.769555
0.625221
0.77109
0.626381
0.692129
0.519544
0.693646
0.520785
0.34165
0.205659
0.342423
0.206219
0.308459
0.198936
0.309286
0.199559
0.151017
0.151062
0.151483
0.151528
0.15551
0.155578
0.156048
0.156116
0.205789
0.341855
0.20635
0.342629
0.199138
0.308777
0.199761
0.309605
0.625514
0.769949
0.626675
0.771484
0.519944
0.692542
0.521186
0.694058
0.766288
0.622769
0.767987
0.624049
0.688723
0.516752
0.690419
0.518134
0.340049
0.204514
0.340902
0.205132
0.306596
0.197523
0.307522
0.198222
0.150068
0.150113
0.150584
0.150629
0.15428
0.154347
0.154883
0.154951
0.204643
0.340253
0.205262
0.341106
0.197724
0.306912
0.198423
0.307839
0.623061
0.76668
0.624341
0.76838
0.51715
0.689135
0.518533
0.69083
0.762712
0.620096
0.764565
0.621486
0.684983
0.513695
0.686844
0.515209
0.3383
0.20326
0.339226
0.203932
0.304549
0.19597
0.305567
0.196738
0.149027
0.149071
0.149589
0.149634
0.152926
0.152993
0.153591
0.153658
0.203388
0.338503
0.204062
0.33943
0.196169
0.304863
0.196938
0.305882
0.620387
0.763103
0.621777
0.764956
0.514091
0.685392
0.515606
0.687254
0.758826
0.617203
0.760835
0.618705
0.680912
0.510375
0.68294
0.512022
0.336405
0.201899
0.337405
0.202625
0.302322
0.194278
0.30343
0.195116
0.147896
0.14794
0.148504
0.148548
0.151451
0.151517
0.152177
0.152244
0.202027
0.336607
0.202754
0.337608
0.194476
0.302634
0.195314
0.303743
0.617492
0.759214
0.618994
0.761224
0.510769
0.681319
0.512417
0.683348
0.754616
0.614082
0.75679
0.615699
0.6765
0.506782
0.678701
0.508568
0.33436
0.200428
0.335437
0.201211
0.299909
0.192444
0.301111
0.193354
0.146672
0.146716
0.147327
0.147371
0.149851
0.149917
0.150641
0.150707
0.200555
0.334561
0.201338
0.335638
0.192641
0.300218
0.193551
0.301422
0.614369
0.755002
0.615987
0.757176
0.507174
0.676906
0.50896
0.679106
0.750071
0.610722
0.752413
0.612458
0.671738
0.50291
0.674116
0.504837
0.33216
0.198845
0.333315
0.199684
0.297305
0.190465
0.298604
0.191449
0.145354
0.145397
0.146057
0.1461
0.148124
0.14819
0.148979
0.149044
0.198971
0.332359
0.199811
0.333515
0.19066
0.297613
0.191644
0.298912
0.611008
0.750454
0.612744
0.752797
0.503299
0.672141
0.505227
0.674519
0.745187
0.607123
0.7477
0.608981
0.666619
0.49875
0.669178
0.500823
0.3298
0.197145
0.331036
0.198043
0.294507
0.188336
0.295904
0.189395
0.143937
0.14398
0.14469
0.144733
0.146266
0.146331
0.147187
0.147252
0.19727
0.329998
0.198169
0.331234
0.188528
0.294811
0.189589
0.29621
0.607406
0.745567
0.609265
0.748081
0.499136
0.667019
0.501211
0.669578
0.739953
0.603275
0.742641
0.605257
0.661133
0.494293
0.663877
0.496516
0.327277
0.195326
0.328595
0.196284
0.291508
0.186054
0.293006
0.187191
0.14242
0.142463
0.143224
0.143267
0.144274
0.144338
0.145262
0.145327
0.19545
0.327473
0.196409
0.328792
0.186245
0.29181
0.187382
0.29331
0.603556
0.74033
0.605539
0.74302
0.494676
0.661531
0.4969
0.664274
0.734368
0.599177
0.737233
0.601285
0.65528
0.489536
0.658208
0.49191
0.324588
0.193387
0.325989
0.194405
0.288308
0.183619
0.289908
0.184832
0.140803
0.140846
0.141657
0.141699
0.142148
0.142211
0.143204
0.143267
0.19351
0.324783
0.194529
0.326185
0.183807
0.288607
0.185022
0.290208
0.599456
0.734742
0.601565
0.737608
0.489915
0.655675
0.492291
0.658603
0.728437
0.594833
0.731474
0.597064
0.649065
0.48448
0.652174
0.487004
0.321736
0.191329
0.323219
0.192407
0.284909
0.181032
0.286608
0.182321
0.139085
0.139128
0.139989
0.140031
0.139889
0.139952
0.141011
0.141074
0.191451
0.321929
0.19253
0.323413
0.181218
0.285204
0.182509
0.286906
0.595109
0.728808
0.597341
0.731846
0.484856
0.649456
0.487381
0.652566
0.722172
0.590249
0.725375
0.592599
0.642498
0.479132
0.645782
0.481802
0.318725
0.189154
0.320287
0.19029
0.281317
0.178298
0.283112
0.179661
0.13727
0.137312
0.138222
0.138264
0.137503
0.137565
0.138689
0.138751
0.189276
0.318916
0.190412
0.320479
0.178482
0.281608
0.179846
0.283406
0.590522
0.722538
0.592873
0.725742
0.479503
0.642885
0.482175
0.64617
0.715585
0.585434
0.718946
0.587898
0.6356
0.473513
0.639047
0.476314
0.315562
0.186869
0.317199
0.18806
0.277542
0.175425
0.279428
0.176857
0.135361
0.135402
0.13636
0.136401
0.134995
0.135056
0.136241
0.136303
0.186989
0.315751
0.18818
0.317389
0.175607
0.27783
0.17704
0.279718
0.585704
0.715946
0.588169
0.71931
0.47388
0.635983
0.476683
0.639432
0.708698
0.580396
0.712206
0.582969
0.628398
0.467672
0.631995
0.470583
0.312255
0.18448
0.313962
0.185722
0.2736
0.172423
0.275569
0.173919
0.133364
0.133405
0.134406
0.134447
0.132374
0.132434
0.133676
0.133737
0.184598
0.312441
0.185841
0.31415
0.172601
0.273884
0.174099
0.275855
0.580662
0.709056
0.583237
0.712565
0.468034
0.628777
0.470947
0.632375
0.701548
0.575162
0.705183
0.57783
0.620918
0.461604
0.624651
0.464628
0.308817
0.181995
0.310588
0.183283
0.269502
0.169302
0.271547
0.170856
0.131287
0.131327
0.132368
0.132408
0.12965
0.129709
0.131003
0.131062
0.182112
0.309001
0.183401
0.310773
0.169477
0.269782
0.171033
0.271829
0.575425
0.701901
0.578094
0.705538
0.461961
0.621292
0.464988
0.625027
0.694169
0.569757
0.697914
0.572507
0.613197
0.455334
0.617047
0.458456
0.305266
0.179425
0.307092
0.180754
0.265266
0.166077
0.267378
0.167682
0.129138
0.129178
0.130253
0.130293
0.126837
0.126895
0.128233
0.128292
0.17954
0.305447
0.180871
0.307274
0.16625
0.265541
0.167856
0.267656
0.570017
0.694517
0.572768
0.698264
0.455687
0.613566
0.458811
0.617418
0.686599
0.564205
0.690435
0.567026
0.60527
0.448896
0.60922
0.4521
0.301615
0.176781
0.303489
0.178146
0.26091
0.162762
0.263081
0.164411
0.126927
0.126966
0.128072
0.128112
0.123948
0.124004
0.125381
0.125438
0.176895
0.301794
0.178261
0.303669
0.162932
0.261181
0.164582
0.263354
0.56446
0.686942
0.567283
0.69078
0.449243
0.605634
0.452449
0.609586
0.678867
0.558519
0.68278
0.561405
0.597162
0.44231
0.601201
0.445587
0.297875
0.174071
0.299792
0.175469
0.256449
0.15937
0.258673
0.161057
0.124659
0.124698
0.125832
0.125871
0.120993
0.121049
0.122459
0.122515
0.174183
0.298051
0.175581
0.29997
0.159536
0.256715
0.161225
0.258941
0.55877
0.679204
0.561658
0.68312
0.442651
0.59752
0.445931
0.601562
0.670994
0.55271
0.674977
0.555656
0.588873
0.43556
0.593007
0.438925
0.294045
0.171293
0.296008
0.172725
0.251878
0.1559
0.254159
0.157627
0.122335
0.122373
0.123537
0.123575
0.117974
0.118029
0.119473
0.119528
0.171403
0.294218
0.172836
0.296183
0.156063
0.252139
0.157792
0.254422
0.552957
0.671325
0.555905
0.67531
0.435895
0.589225
0.439263
0.593361
0.66296
0.546766
0.667028
0.549786
0.580358
0.428613
0.584615
0.432082
0.290105
0.16843
0.292128
0.169908
0.247172
0.152332
0.249527
0.154114
0.119938
0.119976
0.12118
0.121217
0.114875
0.114928
0.116419
0.116473
0.168538
0.290275
0.170017
0.292299
0.152491
0.247427
0.154275
0.249785
0.547009
0.663284
0.55003
0.667356
0.428941
0.580703
0.432413
0.584963
0.654692
0.540599
0.65889
0.543744
0.571485
0.421374
0.575946
0.42501
0.285993
0.16543
0.288112
0.166985
0.242252
0.148606
0.244729
0.150478
0.117424
0.11746
0.118731
0.118768
0.111643
0.111695
0.113263
0.113316
0.165536
0.286159
0.167092
0.28828
0.148761
0.242501
0.150636
0.244981
0.540836
0.655009
0.543983
0.659211
0.421694
0.571822
0.425334
0.576286
0.646036
0.534063
0.650453
0.537415
0.561998
0.413635
0.566808
0.417555
0.281588
0.162196
0.283872
0.163884
0.236964
0.144602
0.23965
0.146634
0.114704
0.114739
0.116128
0.116164
0.108172
0.108223
0.10993
0.109981
0.162299
0.28175
0.163988
0.284036
0.144753
0.237205
0.146787
0.239895
0.534294
0.646344
0.537648
0.650765
0.413946
0.562327
0.41787
0.567141
0.636728
0.526925
0.64151
0.530612
0.551485
0.405082
0.556872
0.409455
0.2767
0.158566
0.279254
0.160476
0.231059
0.140119
0.234091
0.142421
0.111631
0.111665
0.113253
0.113288
0.104282
0.104331
0.106278
0.106327
0.158666
0.276856
0.160577
0.279413
0.140264
0.231292
0.142569
0.234329
0.527148
0.637027
0.53084
0.641813
0.405383
0.551804
0.409762
0.557195
0.626397
0.518843
0.631741
0.523051
0.539367
0.395303
0.545639
0.400346
0.271038
0.154292
0.274022
0.15656
0.224183
0.134862
0.227753
0.137594
0.107984
0.108017
0.109925
0.109959
0.0997109
0.0997573
0.102085
0.102133
0.154389
0.271189
0.156658
0.274176
0.135001
0.224407
0.137737
0.227982
0.519059
0.626686
0.523271
0.632035
0.395594
0.539675
0.400642
0.545951
0.614663
0.509292
0.620744
0.514323
0.524989
0.383823
0.532468
0.389783
0.264114
0.148991
0.267815
0.151834
0.215834
0.128445
0.220218
0.131812
0.103457
0.10349
0.105882
0.105915
0.0941462
0.0941904
0.0970564
0.0971017
0.149084
0.26426
0.151929
0.267963
0.128578
0.216049
0.131948
0.220438
0.509501
0.614943
0.514535
0.621028
0.384104
0.525287
0.390069
0.53277
0.602024
0.496381
0.608306
0.503572
0.508322
0.369755
0.516821
0.377211
0.254449
0.141879
0.25985
0.145769
0.205059
0.120415
0.210836
0.124646
0.0976515
0.0976822
0.100768
0.100799
0.0873942
0.0874358
0.0909006
0.0909436
0.141968
0.254588
0.14586
0.259993
0.120541
0.205265
0.124775
0.211047
0.496582
0.602297
0.503777
0.608582
0.370027
0.508614
0.377487
0.517114
0.600139
0.463656
0.597874
0.48586
0.49102
0.342828
0.500069
0.359909
0.23581
0.13143
0.247068
0.13719
0.189069
0.110662
0.198
0.115689
0.0903266
0.0903553
0.0941876
0.0942173
0.0799651
0.0800034
0.0836622
0.0837023
0.131513
0.235941
0.137276
0.247204
0.110778
0.189261
0.115811
0.198199
0.463846
0.600416
0.486057
0.598147
0.343086
0.491316
0.360176
0.500361
0.393866
0.306258
0.185553
0.147426
0.345389
0.268049
0.152933
0.123256
0.108051
0.0272469
0.0289262
0.00740378
0.0866755
0.0194769
0.0216406
0.00605685
0.00633592
0.00634082
0.00421596
0.00421624
0.00467175
0.004674
0.00420099
0.00420107
0.0272683
0.108091
0.00740949
0.0289566
0.0194913
0.086711
0.00605927
0.0216561
0.30633
0.393979
0.147493
0.18564
0.268109
0.345481
0.123312
0.152999
0.649454
0.515258
0.542553
0.425907
0.581284
0.458535
0.482806
0.377264
0.245215
0.111023
0.182625
0.0688588
0.206182
0.0865511
0.151654
0.0519012
0.0542661
0.0542852
0.0219162
0.0219304
0.0371442
0.0371597
0.0138759
0.0138854
0.111067
0.245277
0.0688916
0.182674
0.0865861
0.206233
0.0519274
0.151694
0.515354
0.649604
0.425987
0.542683
0.458616
0.58141
0.377332
0.482913
0.791644
0.638484
0.729636
0.584137
0.711547
0.569941
0.654807
0.520877
0.34024
0.185163
0.297108
0.150293
0.288576
0.148317
0.251199
0.119128
0.119267
0.119291
0.0880541
0.0880755
0.0902819
0.0903025
0.0645412
0.064559
0.185228
0.340336
0.150348
0.297187
0.148372
0.288658
0.119173
0.251265
0.638622
0.791847
0.584252
0.729811
0.570061
0.711721
0.520976
0.654955
0.879165
0.716865
0.840389
0.681902
0.791683
0.640696
0.756149
0.609117
0.405689
0.240822
0.376065
0.2153
0.345405
0.195384
0.319653
0.173738
0.170332
0.170362
0.146779
0.146806
0.133012
0.133039
0.11323
0.113254
0.240906
0.405818
0.215374
0.376177
0.195458
0.345519
0.173802
0.319751
0.717051
0.87943
0.682064
0.840623
0.64086
0.791915
0.609259
0.756351
0.934413
0.767351
0.909998
0.744948
0.842442
0.686357
0.819988
0.666085
0.449663
0.279499
0.429999
0.262107
0.383679
0.228273
0.366558
0.213476
0.206335
0.206371
0.190108
0.19014
0.16334
0.163372
0.149666
0.149695
0.2796
0.449821
0.262199
0.430143
0.228363
0.383821
0.213559
0.366687
0.767581
0.934738
0.745156
0.910294
0.686563
0.84273
0.66627
0.820248
0.968275
0.798715
0.953531
0.785018
0.873616
0.714725
0.860038
0.70234
0.477691
0.304562
0.465394
0.293533
0.408035
0.249535
0.397359
0.240191
0.229818
0.229858
0.219472
0.21951
0.183055
0.183092
0.174384
0.174418
0.304676
0.477874
0.293641
0.465565
0.249639
0.408201
0.240289
0.397513
0.798983
0.968654
0.785268
0.953884
0.714966
0.873954
0.702564
0.860352
0.987649
0.816881
0.979439
0.809158
0.891433
0.7311
0.883886
0.724146
0.494279
0.319568
0.487198
0.313148
0.422359
0.26216
0.416257
0.256773
0.243941
0.243984
0.237892
0.237933
0.194799
0.194839
0.189784
0.189823
0.319694
0.494481
0.313268
0.487392
0.262276
0.422543
0.256883
0.416432
0.817179
0.988071
0.809442
0.97984
0.731369
0.89181
0.724401
0.884245
0.997515
0.826306
0.993542
0.822484
0.900473
0.739543
0.896836
0.736124
0.503145
0.327705
0.499522
0.324365
0.429933
0.268915
0.426848
0.266154
0.251643
0.251689
0.248475
0.24852
0.201109
0.201152
0.198525
0.198567
0.327839
0.503362
0.324495
0.499732
0.269039
0.430131
0.266274
0.427039
0.826626
0.997968
0.822794
0.993981
0.739831
0.900879
0.736404
0.897228
1.00143
0.830258
1.00007
0.828834
0.90405
0.743051
0.902803
0.741789
0.507148
0.331504
0.505658
0.330067
0.433294
0.272004
0.432051
0.270845
0.255291
0.255339
0.253901
0.253948
0.204031
0.204076
0.202927
0.202971
0.331644
0.507374
0.330204
0.50588
0.272133
0.4335
0.270972
0.432253
0.830593
1.00191
0.829162
1.00053
0.743353
0.904474
0.742085
0.903218
1.00186
0.830994
1.002
0.830963
0.904438
0.743685
0.904563
0.743666
0.508297
0.332771
0.508039
0.332423
0.434209
0.272983
0.434019
0.272728
0.256578
0.256627
0.256201
0.25625
0.205013
0.205059
0.204738
0.204783
0.332914
0.508529
0.332565
0.508269
0.273116
0.43442
0.272859
0.434228
0.831338
1.00234
0.831303
1.00248
0.743995
0.904872
0.743972
0.904992
1.00038
0.830028
1.00134
0.830716
0.90312
0.742828
0.903983
0.743438
0.507938
0.332691
0.508297
0.332893
0.433862
0.272867
0.434186
0.273054
0.256608
0.256658
0.256747
0.256797
0.204989
0.205035
0.20512
0.205167
0.332836
0.508173
0.333037
0.508531
0.273001
0.434076
0.273187
0.434398
0.830376
1.00087
0.831062
1.00183
0.743142
0.90356
0.74375
0.90442
0.99776
0.82804
0.999214
0.829167
0.900772
0.741068
0.902074
0.742062
0.506708
0.331874
0.507457
0.332407
0.432778
0.272147
0.433429
0.272607
0.255971
0.256021
0.256407
0.256457
0.204425
0.204472
0.204801
0.204847
0.33202
0.506945
0.332553
0.507693
0.272281
0.432993
0.272741
0.433644
0.828389
0.998253
0.829515
0.999706
0.741382
0.901213
0.742375
0.902513
0.99446
0.825479
0.996214
0.826856
0.897816
0.738811
0.899387
0.740021
0.505009
0.330656
0.505961
0.331359
0.431305
0.271104
0.432125
0.271701
0.254965
0.255015
0.255557
0.255607
0.203571
0.203617
0.204069
0.204115
0.330801
0.505246
0.331505
0.506197
0.271238
0.43152
0.271836
0.43234
0.825828
0.994952
0.827204
0.996706
0.739125
0.898257
0.740335
0.899827
0.990694
0.822544
0.992665
0.824093
0.89444
0.736225
0.896207
0.737588
0.503018
0.329199
0.504103
0.33001
0.429587
0.269866
0.430519
0.270553
0.253746
0.253796
0.254434
0.254484
0.202545
0.202592
0.203121
0.203167
0.329344
0.503254
0.330156
0.504339
0.27
0.429801
0.270687
0.430734
0.822892
0.991186
0.824441
0.993157
0.736538
0.894879
0.737901
0.896646
0.986523
0.819294
0.988694
0.820996
0.890695
0.733362
0.892644
0.73486
0.500799
0.327565
0.501993
0.328461
0.427674
0.268481
0.428701
0.269238
0.252374
0.252424
0.253135
0.253184
0.201392
0.201438
0.202029
0.202075
0.32771
0.501034
0.328606
0.502229
0.268614
0.427887
0.269371
0.428914
0.819641
0.987012
0.821343
0.989184
0.733674
0.891132
0.735172
0.893082
0.98198
0.815767
0.984335
0.817606
0.886609
0.730251
0.888727
0.731872
0.498381
0.325778
0.499673
0.326749
0.425589
0.266965
0.426701
0.267786
0.25087
0.25092
0.251695
0.251745
0.200128
0.200174
0.200819
0.200865
0.325923
0.498615
0.326894
0.499908
0.267098
0.425801
0.267919
0.426913
0.816112
0.982466
0.817951
0.984822
0.730561
0.887043
0.732183
0.889162
0.977065
0.811966
0.979608
0.813942
0.882179
0.726893
0.884471
0.728638
0.49577
0.323844
0.497159
0.324889
0.423334
0.265322
0.424532
0.266207
0.24924
0.249289
0.250128
0.250177
0.198755
0.198801
0.199501
0.199547
0.323988
0.496003
0.325033
0.497393
0.265455
0.423546
0.26634
0.424743
0.81231
0.977549
0.814286
0.980092
0.727201
0.882611
0.728947
0.884904
0.971762
0.807881
0.974501
0.810001
0.877392
0.723277
0.879865
0.725153
0.49296
0.321761
0.49445
0.322881
0.420905
0.263551
0.422191
0.264501
0.247481
0.24753
0.248434
0.248483
0.197273
0.197319
0.198074
0.19812
0.321904
0.493192
0.323025
0.494683
0.263682
0.421115
0.264633
0.422402
0.808222
0.972243
0.810343
0.974983
0.723584
0.877822
0.72546
0.880295
0.966051
0.803494
0.968994
0.805765
0.872231
0.719394
0.874891
0.721403
0.489943
0.319523
0.491537
0.320721
0.418296
0.261646
0.419672
0.262663
0.245591
0.24564
0.24661
0.246659
0.195678
0.195723
0.196536
0.196581
0.319665
0.490174
0.320864
0.491769
0.261776
0.418505
0.262794
0.419882
0.803834
0.966529
0.806105
0.969472
0.719698
0.872658
0.721708
0.875318
0.959933
0.798807
0.963082
0.801229
0.866695
0.715241
0.869544
0.717387
0.486717
0.317126
0.488417
0.318404
0.415502
0.259603
0.416972
0.26069
0.243565
0.243614
0.244653
0.244701
0.193966
0.194011
0.194883
0.194928
0.317267
0.486946
0.318546
0.488646
0.259733
0.41571
0.260821
0.41718
0.799144
0.960407
0.801567
0.963557
0.715543
0.867118
0.71769
0.869969
0.953395
0.793811
0.956754
0.796388
0.860772
0.710811
0.863815
0.713095
0.483275
0.314567
0.485083
0.315926
0.41252
0.257422
0.414084
0.258579
0.241401
0.241449
0.242558
0.242606
0.192136
0.192181
0.193112
0.193157
0.314708
0.483503
0.316068
0.485311
0.257551
0.412726
0.258708
0.414291
0.794145
0.953865
0.796723
0.957225
0.711111
0.861191
0.713396
0.864236
0.946433
0.788503
0.950004
0.791236
0.854459
0.7061
0.857697
0.708525
0.479615
0.311844
0.481532
0.313285
0.409347
0.255099
0.411007
0.256326
0.239097
0.239145
0.240324
0.240372
0.190186
0.19023
0.191222
0.191267
0.311984
0.479842
0.313426
0.481759
0.255227
0.409552
0.256455
0.411212
0.788835
0.946898
0.791569
0.950471
0.706398
0.854875
0.708823
0.858114
0.939052
0.782886
0.942831
0.785773
0.847764
0.701115
0.851192
0.703676
0.47574
0.308958
0.477764
0.310481
0.405986
0.252636
0.40774
0.253933
0.236654
0.236701
0.23795
0.237998
0.188118
0.188162
0.189213
0.189257
0.309097
0.475964
0.31062
0.47799
0.252763
0.406189
0.254061
0.407943
0.783215
0.939513
0.786103
0.943294
0.70141
0.848176
0.703972
0.851605
0.931265
0.776963
0.935245
0.780001
0.840695
0.695863
0.844308
0.698555
0.471652
0.305912
0.473782
0.307514
0.402442
0.250037
0.404286
0.251402
0.234074
0.234121
0.235437
0.235485
0.185934
0.185978
0.187086
0.18713
0.30605
0.471874
0.307652
0.474005
0.250163
0.402643
0.251528
0.404488
0.777288
0.931721
0.780328
0.935703
0.696155
0.841103
0.698848
0.844717
0.923099
0.770747
0.927262
0.773927
0.833266
0.690358
0.837057
0.693177
0.467362
0.302715
0.46959
0.304391
0.398722
0.247308
0.400653
0.248737
0.231364
0.231411
0.232791
0.232838
0.18364
0.183683
0.184846
0.18489
0.302851
0.467583
0.304528
0.469812
0.247432
0.398921
0.248862
0.400853
0.771069
0.92355
0.77425
0.927716
0.690646
0.833668
0.693467
0.837462
0.914581
0.764298
0.91892
0.76759
0.825505
0.684583
0.829456
0.687536
0.462892
0.299375
0.465209
0.301121
0.394833
0.244455
0.396847
0.245944
0.228531
0.228578
0.230019
0.230065
0.181242
0.181285
0.182499
0.182542
0.299511
0.463111
0.301257
0.465428
0.244579
0.395029
0.246068
0.397045
0.764617
0.915027
0.76791
0.919368
0.684868
0.825903
0.687822
0.829856
0.905729
0.757601
0.910229
0.761018
0.817457
0.678587
0.821548
0.681643
0.458247
0.295903
0.46065
0.297713
0.390791
0.24149
0.392879
0.243034
0.225584
0.22563
0.227127
0.227173
0.178749
0.178791
0.180052
0.180095
0.296037
0.458463
0.297848
0.460867
0.241612
0.390985
0.243156
0.393074
0.757915
0.906169
0.761335
0.910672
0.678868
0.81785
0.681926
0.821943
0.896585
0.750673
0.901224
0.7542
0.809152
0.6724
0.813366
0.675548
0.45344
0.292308
0.455921
0.294177
0.386615
0.238424
0.388768
0.240016
0.222532
0.222577
0.224126
0.224171
0.176169
0.176211
0.177514
0.177556
0.29244
0.453654
0.294311
0.456135
0.238544
0.386807
0.240137
0.388961
0.750983
0.897019
0.754512
0.901661
0.672678
0.80954
0.675828
0.813756
0.887195
0.743547
0.891952
0.747169
0.80063
0.666046
0.804947
0.669275
0.448491
0.288603
0.45104
0.290526
0.382319
0.235268
0.384529
0.236903
0.219385
0.21943
0.221025
0.22107
0.173514
0.173555
0.174895
0.174937
0.288734
0.448702
0.290658
0.451253
0.235387
0.382508
0.237023
0.38472
0.743853
0.887623
0.747478
0.892383
0.66632
0.801011
0.669551
0.805331
0.877594
0.736244
0.882453
0.739952
0.791921
0.659544
0.796327
0.662844
0.443408
0.284793
0.446023
0.286768
0.377913
0.232029
0.380177
0.233705
0.216146
0.216191
0.217831
0.217876
0.170787
0.170828
0.172204
0.172245
0.284923
0.443616
0.286898
0.446233
0.232146
0.3781
0.233823
0.380365
0.736546
0.878015
0.740256
0.882877
0.659814
0.792296
0.663116
0.796705
0.867798
0.728763
0.872753
0.732562
0.783041
0.652892
0.787532
0.65627
0.438183
0.280869
0.440871
0.282903
0.373393
0.228702
0.375716
0.230423
0.212807
0.212851
0.214544
0.214589
0.167985
0.168025
0.16944
0.169481
0.280996
0.438388
0.283031
0.441078
0.228817
0.373576
0.23054
0.375901
0.72906
0.868212
0.732861
0.87317
0.653157
0.783409
0.656537
0.787903
0.857791
0.72107
0.862855
0.72498
0.77398
0.646045
0.778564
0.649523
0.432779
0.276793
0.435563
0.278909
0.368726
0.225259
0.371127
0.227043
0.20933
0.209373
0.211142
0.211186
0.165082
0.165121
0.166592
0.166631
0.276918
0.43298
0.279035
0.435766
0.225373
0.368907
0.227158
0.371309
0.721361
0.858196
0.725274
0.863265
0.646305
0.774341
0.649786
0.778929
0.8475
0.713089
0.852719
0.717156
0.764676
0.638959
0.769394
0.642568
0.427111
0.272484
0.430041
0.274729
0.363848
0.221639
0.366367
0.223522
0.205639
0.205682
0.207571
0.207614
0.162018
0.162057
0.163618
0.163657
0.272608
0.427308
0.274854
0.43024
0.22175
0.364025
0.223634
0.366545
0.713374
0.847897
0.717444
0.85312
0.639213
0.765029
0.642825
0.769751
0.836772
0.704662
0.842234
0.708976
0.754977
0.631482
0.759917
0.63531
0.421022
0.267797
0.424186
0.270254
0.358623
0.217719
0.361336
0.21977
0.201595
0.201637
0.203724
0.203766
0.158683
0.158721
0.160436
0.160474
0.267918
0.421215
0.270375
0.424381
0.217828
0.358795
0.21988
0.36151
0.70494
0.837158
0.709258
0.842625
0.63173
0.755321
0.635561
0.760265
0.825361
0.695542
0.831198
0.700237
0.744635
0.623375
0.749932
0.627552
0.41427
0.262504
0.4178
0.265296
0.352831
0.213308
0.355859
0.215634
0.196981
0.197022
0.199426
0.199467
0.154896
0.154933
0.156901
0.156938
0.262622
0.414458
0.265415
0.417991
0.213414
0.352999
0.215741
0.356029
0.695813
0.825737
0.700512
0.831579
0.623616
0.74497
0.627797
0.750271
0.812981
0.685396
0.819336
0.690651
0.733328
0.614299
0.739149
0.619009
0.406498
0.256266
0.410591
0.259581
0.34615
0.208112
0.349671
0.210873
0.191482
0.191522
0.194415
0.194455
0.150391
0.150426
0.152794
0.15283
0.256381
0.40668
0.259697
0.410777
0.208215
0.346312
0.210978
0.349836
0.685658
0.813346
0.690917
0.819706
0.614532
0.733652
0.619246
0.739478
0.799569
0.673703
0.806402
0.679824
0.720818
0.603697
0.727245
0.60927
0.397043
0.248509
0.402101
0.25268
0.337976
0.201639
0.342354
0.205121
0.184626
0.184665
0.188309
0.188348
0.144772
0.144806
0.14779
0.147825
0.24862
0.397221
0.252793
0.402281
0.201738
0.338133
0.205222
0.342514
0.673958
0.799924
0.680082
0.806762
0.603923
0.721133
0.6095
0.727564
0.78738
0.658282
0.792892
0.666833
0.708412
0.589326
0.714312
0.597355
0.383732
0.237944
0.391202
0.243754
0.326358
0.192793
0.332893
0.197663
0.175683
0.175721
0.180514
0.180552
0.137444
0.137478
0.141401
0.141435
0.238052
0.383904
0.243864
0.391376
0.192888
0.32651
0.19776
0.333048
0.65853
0.78773
0.667085
0.793244
0.589545
0.708721
0.597577
0.714623
0.799074
0.618827
0.786885
0.645758
0.713945
0.552078
0.70618
0.577431
0.358069
0.222236
0.373494
0.230889
0.30358
0.17951
0.317325
0.186849
0.164097
0.164133
0.170237
0.170273
0.127953
0.127985
0.132984
0.133016
0.222339
0.358234
0.230995
0.373662
0.179601
0.303724
0.186942
0.317473
0.619066
0.799437
0.646002
0.787238
0.552287
0.714262
0.577646
0.706489
0.443262
0.345703
0.220246
0.173231
0.424027
0.330165
0.206722
0.162591
0.131101
0.0375284
0.039177
0.00914058
0.121857
0.0331159
0.0347241
0.00840834
0.00937163
0.00938154
0.00444244
0.00444329
0.0079734
0.00798101
0.00436473
0.00436527
0.0375652
0.131155
0.00914909
0.0392253
0.033146
0.121903
0.00841499
0.0347653
0.345795
0.443409
0.173321
0.220365
0.330247
0.424158
0.162671
0.206827
0.72178
0.576523
0.604201
0.476963
0.692996
0.551985
0.579946
0.456733
0.289957
0.141706
0.217053
0.0893326
0.271812
0.128956
0.203252
0.0809278
0.0777519
0.0777758
0.0342423
0.0342646
0.0677588
0.0677803
0.028774
0.028793
0.141764
0.290039
0.0893783
0.217118
0.129008
0.271885
0.0809675
0.203309
0.576646
0.721972
0.477066
0.604369
0.552095
0.693168
0.456826
0.580096
0.881934
0.717222
0.811546
0.654652
0.845231
0.684998
0.778586
0.626089
0.403133
0.233821
0.351394
0.190427
0.377045
0.213177
0.329116
0.173562
0.16026
0.160289
0.12078
0.120807
0.142536
0.142563
0.106733
0.106757
0.233902
0.403254
0.190497
0.351496
0.21325
0.377154
0.173625
0.329207
0.717397
0.882191
0.654799
0.811768
0.685156
0.845461
0.626221
0.778786
0.982611
0.808804
0.937841
0.767781
0.939842
0.770532
0.897864
0.732311
0.482643
0.303476
0.446526
0.271474
0.450167
0.276475
0.417023
0.247437
0.224966
0.225001
0.195081
0.195114
0.201038
0.20107
0.174054
0.174084
0.303576
0.482801
0.271565
0.446666
0.276567
0.450311
0.24752
0.41715
0.809033
0.982939