/*--------------------------------*- C++ -*----------------------------------*\
  =========                 |
  \\      /  F ield         | OpenFOAM: The Open Source CFD Toolbox
   \\    /   O peration     | Website:  https://openfoam.org
    \\  /    A nd           | Version:  9
     \\/     M anipulation  |
\*---------------------------------------------------------------------------*/
FoamFile
{
    format      ascii;
    class       volScalarField;
    location    "2.45";
    object      nut;
}
// * * * * * * * * * * * * * * * * * * * * * * * * * * * * * * * * * * * * * //

dimensions      [0 2 -1 0 0 0 0];

internalField   nonuniform List<scalar> 
36360
(
0.00234498
0.0020116
0.00118243
0.00104977
0.000410944
0.000363565
0.00023096
0.00022009
0.00116781
0.000467039
0.000372415
0.000196159
0.000219845
0.000151771
0.000168496
0.000160077
0.000219387
0.000219534
0.000148453
0.000148453
0.000137234
0.000137234
0.000161191
0.000161191
0.000467646
0.00116869
0.000196251
0.000372745
0.000151792
0.000219909
0.000160076
0.000168509
0.00201224
0.0023453
0.00105033
0.00118272
0.000363652
0.000411001
0.000220134
0.000230983
0.00365857
0.00325079
0.003118
0.00272363
0.000629287
0.000551835
0.000547953
0.000477388
0.00236209
0.00163813
0.00183021
0.00106906
0.00040162
0.000257788
0.000318451
0.000186496
0.00115071
0.0011515
0.000475332
0.000475921
0.0001616
0.00016164
0.00013118
0.000131194
0.00163928
0.00236306
0.00107018
0.00183113
0.000257884
0.000401718
0.000186558
0.000318546
0.00325149
0.00365893
0.0027243
0.00311832
0.000551918
0.00062935
0.000477468
0.000548012
0.00438019
0.00398323
0.00406196
0.00365664
0.00072051
0.000641282
0.000682532
0.000603393
0.00315627
0.00260069
0.00279572
0.00215934
0.000502711
0.000385268
0.000459627
0.000329726
0.00238819
0.00238866
0.00184977
0.00185034
0.000308552
0.000308606
0.000232179
0.000232236
0.00260178
0.00315736
0.00216047
0.00279676
0.000385382
0.000502827
0.000329832
0.000459733
0.00398405
0.00438062
0.0036574
0.00406235
0.00064138
0.000720589
0.000603483
0.000682602
0.00484804
0.00446971
0.00463716
0.00424987
0.000771205
0.000692925
0.000749037
0.000670227
0.0037011
0.00324874
0.00345464
0.00295946
0.000561852
0.000460324
0.00053585
0.000427728
0.00311324
0.00311364
0.00279679
0.00279721
0.000403759
0.000403814
0.000363608
0.000363662
0.00324979
0.0037023
0.00296052
0.00345579
0.000460452
0.000561991
0.000427849
0.000535978
0.00447064
0.00484853
0.00425075
0.00463763
0.000693044
0.000771303
0.000670336
0.000749126
0.00515972
0.00479497
0.00501976
0.00464896
0.00080222
0.000724859
0.000788559
0.000710776
0.00406354
0.00366229
0.00390133
0.00347873
0.000598236
0.000504472
0.000582241
0.000485291
0.00355249
0.00355288
0.00335883
0.00335922
0.000455453
0.000455511
0.00043334
0.000433396
0.00366337
0.00406482
0.00347979
0.00390257
0.000504613
0.000598394
0.000485425
0.00058239
0.00479598
0.00516022
0.00464993
0.00502025
0.000724998
0.000802336
0.000710904
0.000788666
0.00536011
0.00500347
0.00527123
0.0049111
0.000821025
0.000744249
0.000812824
0.000735792
0.00429329
0.00391855
0.00419181
0.00380571
0.000620098
0.000530094
0.000610595
0.000519045
0.00382007
0.00382047
0.00370238
0.00370277
0.000484256
0.000484318
0.000471929
0.000471989
0.00391967
0.00429465
0.00380681
0.00419314
0.000530248
0.000620274
0.000519192
0.000610764
0.00500454
0.0053606
0.00491214
0.00527173
0.000744404
0.000821156
0.000735939
0.000812947
0.00548119
0.00512882
0.00542838
0.00507423
0.000831794
0.000755333
0.000827189
0.000750595
0.00443008
0.0040697
0.00437063
0.00400398
0.000632496
0.000544298
0.00062721
0.000538274
0.00397722
0.00397763
0.00390874
0.00390914
0.000499892
0.000499958
0.000493286
0.00049335
0.00407086
0.00443152
0.00400512
0.00437203
0.000544463
0.000632687
0.000538433
0.000627395
0.00512995
0.00548167
0.00507533
0.00542886
0.000755501
0.000831936
0.000750757
0.000827325
0.00554846
0.00519804
0.00551971
0.0051685
0.000837411
0.00076109
0.00083508
0.000758703
0.00450502
0.00415241
0.00447308
0.004117
0.000638923
0.000551554
0.00063626
0.000548557
0.00406342
0.00406385
0.0040263
0.00402672
0.000507782
0.000507851
0.000504529
0.000504597
0.00415362
0.00450652
0.00411819
0.00447455
0.000551727
0.000639126
0.000548726
0.000636458
0.00519921
0.00554895
0.00516965
0.00552019
0.000761268
0.000837562
0.000758877
0.000835227
0.0055815
0.00523174
0.00556776
0.00521774
0.0008399
0.000763625
0.000838925
0.000762632
0.00454128
0.00419273
0.00452621
0.00417577
0.000641798
0.000554775
0.000640667
0.000553506
0.00410582
0.00410625
0.00408775
0.00408818
0.000511262
0.000511333
0.000509889
0.00050996
0.00419398
0.00454283
0.00417701
0.00452774
0.000554954
0.000642008
0.000553682
0.000640873
0.00523295
0.005582
0.00521894
0.00556824
0.00076381
0.000840057
0.000762814
0.000839079
0.00559421
0.00524462
0.00558926
0.00523954
0.000840592
0.000764322
0.000840395
0.000764121
0.00455514
0.00420858
0.00454959
0.00420203
0.000642687
0.000555796
0.000642402
0.000555455
0.00412289
0.00412333
0.0041156
0.00411604
0.000512375
0.000512447
0.000511995
0.000512067
0.00420986
0.00455673
0.0042033
0.00455117
0.000555979
0.000642902
0.000555636
0.000642614
0.00524587
0.00559474
0.00524077
0.00558976
0.000764512
0.000840754
0.000764309
0.000840554
0.00559561
0.0052459
0.00559522
0.00524551
0.000840388
0.000764108
0.000840557
0.000764279
0.00455651
0.00421084
0.00455611
0.00421005
0.000642587
0.000555735
0.000642698
0.000555829
0.00412579
0.00412624
0.0041246
0.00412506
0.000512331
0.000512404
0.000512418
0.000512491
0.00421213
0.00455812
0.00421133
0.00455771
0.00055592
0.000642804
0.000556012
0.000642914
0.00524717
0.00559614
0.00524676
0.00559573
0.0007643
0.000840551
0.00076447
0.000840719
0.00559075
0.00524103
0.0055932
0.00524346
0.000839631
0.000763344
0.000840032
0.000763746
0.0045515
0.0042062
0.00455398
0.00420841
0.000641912
0.000555067
0.000642277
0.000555432
0.00412158
0.00412203
0.00412345
0.00412391
0.000511652
0.000511726
0.000512023
0.000512097
0.0042075
0.00455312
0.00420972
0.0045556
0.000555252
0.00064213
0.000555617
0.000642495
0.00524231
0.00559129
0.00524473
0.00559372
0.000763537
0.000839795
0.000763939
0.000840195
0.00558257
0.00523294
0.00558644
0.00523672
0.000838595
0.000762306
0.00083912
0.000762828
0.0045431
0.00419779
0.00454695
0.00420145
0.000640953
0.000554098
0.000641439
0.000554586
0.00411338
0.00411384
0.00411672
0.00411718
0.00051066
0.000510733
0.000511155
0.000511229
0.0041991
0.00454473
0.00420276
0.00454858
0.000554283
0.000641171
0.000554771
0.000641657
0.00523422
0.00558312
0.005238
0.00558698
0.0007625
0.00083876
0.000763022
0.000839284
0.00557233
0.00522292
0.00557714
0.00522756
0.000837372
0.000761087
0.000837983
0.000761693
0.00453275
0.00418726
0.00453747
0.00419187
0.000639809
0.000552938
0.00064038
0.000553514
0.00410296
0.00410342
0.0041073
0.00410776
0.000509469
0.000509543
0.000510056
0.000510129
0.00418857
0.00453439
0.00419318
0.00453911
0.000553123
0.000640026
0.000553699
0.000640598
0.00522421
0.00557289
0.00522885
0.00557768
0.000761281
0.000837537
0.000761886
0.000838148
0.00556057
0.0052115
0.00556609
0.0052168
0.000835996
0.000759721
0.000836682
0.000760398
0.004521
0.00417521
0.00452638
0.00418053
0.000638518
0.000551626
0.00063916
0.000552275
0.00409093
0.00409139
0.00409602
0.00409648
0.000508123
0.000508197
0.000508784
0.000508858
0.00417652
0.00452264
0.00418184
0.00452802
0.000551811
0.000638735
0.00055246
0.000639378
0.0052128
0.00556113
0.0052181
0.00556664
0.000759914
0.000836161
0.000760591
0.000836846
0.00554748
0.00519889
0.00555365
0.00520478
0.000834479
0.000758219
0.000835235
0.000758964
0.00450805
0.00416186
0.00451401
0.00416781
0.000637093
0.000550177
0.000637802
0.000550894
0.00407751
0.00407797
0.00408328
0.00408374
0.000506633
0.000506707
0.000507366
0.00050744
0.00416317
0.00450969
0.00416912
0.00451565
0.000550362
0.000637311
0.000551079
0.00063802
0.00520019
0.00554805
0.00520607
0.00555421
0.000758413
0.000834644
0.000759157
0.000835399
0.00553312
0.00518512
0.00553992
0.00519159
0.000832822
0.000756582
0.000833649
0.000757395
0.00449394
0.00414725
0.00450048
0.00415383
0.000635536
0.000548589
0.000636312
0.000549376
0.00406278
0.00406324
0.0040692
0.00406966
0.000505
0.000505074
0.000505806
0.000505879
0.00414856
0.00449557
0.00415514
0.00450212
0.000548774
0.000635753
0.000549561
0.000636529
0.00518643
0.0055337
0.00519289
0.00554049
0.000756775
0.000832987
0.000757588
0.000833813
0.00551746
0.00517018
0.00552492
0.00517724
0.000831019
0.000754802
0.00083192
0.000755687
0.00447864
0.00413138
0.00448578
0.00413859
0.00063384
0.000546858
0.000634686
0.000547718
0.00404671
0.00404717
0.00405379
0.00405425
0.000503218
0.000503291
0.000504099
0.000504173
0.00413269
0.00448027
0.0041399
0.00448742
0.000547042
0.000634057
0.000547903
0.000634903
0.00517148
0.00551805
0.00517854
0.00552549
0.000754994
0.000831183
0.00075588
0.000832084
0.00550048
0.00515402
0.0055086
0.00516169
0.000829064
0.000752874
0.000830041
0.000753834
0.00446211
0.00411419
0.00446987
0.00412206
0.000632
0.000544977
0.000632919
0.000545913
0.00402927
0.00402973
0.00403704
0.0040375
0.000501278
0.000501352
0.000502239
0.000502313
0.0041155
0.00446375
0.00412338
0.00447151
0.000545161
0.000632216
0.000546098
0.000633136
0.00515533
0.00550107
0.005163
0.00550918
0.000753066
0.000829228
0.000754027
0.000830205
0.00548212
0.00513661
0.00549094
0.00514491
0.000826951
0.000750791
0.000828008
0.000751831
0.00444429
0.00409563
0.0044527
0.00410419
0.00063001
0.000542939
0.000631006
0.000543955
0.0040104
0.00401086
0.00401889
0.00401935
0.000499175
0.000499248
0.000500219
0.000500292
0.00409694
0.00444593
0.00410551
0.00445435
0.000543123
0.000630226
0.000544139
0.000631222
0.00513791
0.00548273
0.00514622
0.00549153
0.000750983
0.000827115
0.000752023
0.000828172
0.00546236
0.00511788
0.00547189
0.00512684
0.000824676
0.000748547
0.000825815
0.000749668
0.00442514
0.00407565
0.00443423
0.00408493
0.000627864
0.000540738
0.000628939
0.000541837
0.00399006
0.00399052
0.00399928
0.00399974
0.0004969
0.000496973
0.000498031
0.000498104
0.00407696
0.00442678
0.00408624
0.00443587
0.000540921
0.000628079
0.00054202
0.000629154
0.00511919
0.00546297
0.00512816
0.00547248
0.000748739
0.00082484
0.00074986
0.000825979
0.00544115
0.00509782
0.0054514
0.00510745
0.000822234
0.000746137
0.000823457
0.000747342
0.00440463
0.00405423
0.0044144
0.00406423
0.000625558
0.000538369
0.000626713
0.000539552
0.00396823
0.00396869
0.0039782
0.00397866
0.000494449
0.000494522
0.000495669
0.000495742
0.00405554
0.00440627
0.00406554
0.00441604
0.000538552
0.000625773
0.000539736
0.000626928
0.00509913
0.00544177
0.00510877
0.00545201
0.000746328
0.000822397
0.000747533
0.00082362
0.00541851
0.00507641
0.00542948
0.00508672
0.000819625
0.000743559
0.000820932
0.000744848
0.00438275
0.00403135
0.0043932
0.00404208
0.000623089
0.000535829
0.000624326
0.000537098
0.00394489
0.00394535
0.00395561
0.00395607
0.000491818
0.000491891
0.000493129
0.000493202
0.00403267
0.00438438
0.0040434
0.00439484
0.000536012
0.000623303
0.000537281
0.00062454
0.00507772
0.00541913
0.00508804
0.00543009
0.00074375
0.000819788
0.000745039
0.000821095
0.00539444
0.00505366
0.00540612
0.00506464
0.00081685
0.000740812
0.00081824
0.000742186
0.0043595
0.00400703
0.00437063
0.00401848
0.000620459
0.000533119
0.000621777
0.000534474
0.00392008
0.00392054
0.00393153
0.00393199
0.000489007
0.00048908
0.000490408
0.000490481
0.00400834
0.00436113
0.00401979
0.00437227
0.000533301
0.000620672
0.000534656
0.00062199
0.00505498
0.00539507
0.00506596
0.00540674
0.000741002
0.000817013
0.000742376
0.000818403
0.005369
0.00502964
0.00538136
0.00504125
0.000813915
0.000737903
0.000815385
0.000739356
0.00433493
0.00398132
0.00434672
0.00399345
0.000617671
0.000530241
0.000619067
0.000531679
0.00389384
0.0038943
0.003906
0.00390646
0.000486018
0.000486091
0.000487508
0.000487581
0.00398263
0.00433657
0.00399477
0.00434836
0.000530423
0.000617883
0.000531861
0.00061928
0.00503096
0.00536964
0.00504257
0.00538198
0.000738092
0.000814077
0.000739545
0.000815546
0.00534227
0.00500444
0.00535527
0.00501664
0.000810828
0.000734855
0.000812373
0.000736377
0.00430913
0.00395426
0.00432153
0.00396706
0.000614732
0.000527199
0.000616203
0.000528719
0.00386623
0.00386669
0.00387907
0.00387953
0.000482855
0.000482927
0.000484432
0.000484504
0.00395557
0.00431077
0.00396838
0.00432317
0.00052738
0.000614943
0.000528901
0.000616415
0.00500577
0.00534291
0.00501796
0.0053559
0.000735043
0.000810989
0.000736566
0.000812534
0.00531429
0.00497808
0.00532791
0.00499085
0.000807596
0.000731662
0.000809212
0.000733257
0.00428212
0.00392593
0.00429512
0.00393936
0.000611646
0.000524
0.00061319
0.000525598
0.00383731
0.00383777
0.0038508
0.00385126
0.000479523
0.000479595
0.000481183
0.000481256
0.00392724
0.00428375
0.00394067
0.00429676
0.00052418
0.000611856
0.000525779
0.000613401
0.0049794
0.00531494
0.00499218
0.00532855
0.000731849
0.000807757
0.000733445
0.000809373
0.00528515
0.00495061
0.00529934
0.00496393
0.000804233
0.000728333
0.000805914
0.000729994
0.00425396
0.00389639
0.00426753
0.00391041
0.000608424
0.000520652
0.000610035
0.000522323
0.00380717
0.00380763
0.00382126
0.00382172
0.000476032
0.000476104
0.000477771
0.000477843
0.00389769
0.00425559
0.00391173
0.00426917
0.000520831
0.000608633
0.000522503
0.000610245
0.00495193
0.00528581
0.00496525
0.00529999
0.000728519
0.000804393
0.000730181
0.000806074
0.00525493
0.00492211
0.00526966
0.00493594
0.000800751
0.000724882
0.00080249
0.000726603
0.00422472
0.00386571
0.00423883
0.0038803
0.000605074
0.000517166
0.000606748
0.000518906
0.00377588
0.00377634
0.00379053
0.00379099
0.000472392
0.000472464
0.000474205
0.000474277
0.00386701
0.00422635
0.00388161
0.00424046
0.000517345
0.000605282
0.000519085
0.000606957
0.00492343
0.0052556
0.00493727
0.00527031
0.000725067
0.00080091
0.000726789
0.000802649
0.00522361
0.00489256
0.0052389
0.00490693
0.000797157
0.000721317
0.000798951
0.000723096
0.00419438
0.00383388
0.00420905
0.00384906
0.000601604
0.000513548
0.000603339
0.000515354
0.00374341
0.00374387
0.00375867
0.00375913
0.000468611
0.000468682
0.000470494
0.000470566
0.00383518
0.004196
0.00385037
0.00421068
0.000513726
0.000601811
0.000515532
0.000603546
0.00489388
0.00522428
0.00490825
0.00523956
0.000721501
0.000797315
0.00072328
0.00079911
0.00519103
0.00486176
0.00520699
0.00487681
0.000793449
0.000717627
0.000795302
0.000719472
0.00416276
0.0038007
0.00417812
0.0038166
0.000598007
0.000509793
0.000599807
0.00051167
0.00370958
0.00371003
0.00372556
0.00372602
0.000464684
0.000464755
0.000466642
0.000466713
0.003802
0.00416437
0.0038179
0.00417974
0.00050997
0.000598212
0.000511847
0.000600013
0.00486308
0.0051917
0.00487813
0.00520765
0.00071781
0.000793606
0.000719655
0.000795459
0.00515674
0.00482922
0.00517363
0.00484522
0.000789603
0.000713788
0.00079153
0.00071571
0.00412938
0.00376567
0.0041457
0.00378259
0.000594257
0.000505874
0.00059614
0.000507839
0.00367381
0.00367426
0.00369086
0.00369132
0.00046058
0.000460651
0.000462633
0.000462704
0.00376695
0.00413098
0.00378389
0.00414731
0.00050605
0.00059446
0.000508015
0.000596344
0.00483053
0.00515741
0.00484653
0.0051743
0.000713969
0.000789758
0.000715892
0.000791686
0.00511986
0.00479412
0.0051382
0.00481155
0.000785554
0.000709744
0.000787595
0.000711781
0.00409331
0.00372772
0.00411114
0.00374628
0.000590285
0.000501715
0.000592291
0.000503814
0.00363499
0.00363544
0.00365376
0.00365421
0.000456222
0.000456292
0.000458417
0.000458488
0.003729
0.00409489
0.00374757
0.00411274
0.000501889
0.000590485
0.000503988
0.000592493
0.00479541
0.00512053
0.00481286
0.00513887
0.000709922
0.000785707
0.00071196
0.000787749
0.00507886
0.00475491
0.0050995
0.00477464
0.000781179
0.000705367
0.000783403
0.00070759
0.00405291
0.00368508
0.00407316
0.00370628
0.000585954
0.000497166
0.000588162
0.000499484
0.00359122
0.00359167
0.00361276
0.00361321
0.000451445
0.000451514
0.000453877
0.000453946
0.00368635
0.00405448
0.00370755
0.00407474
0.000497337
0.000586152
0.000499657
0.000588361
0.00475619
0.00507953
0.00477593
0.00510017
0.000705543
0.00078133
0.000707767
0.000783555
0.00503151
0.00470936
0.00505566
0.00473259
0.000776272
0.000700466
0.000778793
0.000702981
0.00400581
0.00363512
0.00402976
0.00366037
0.000581042
0.000491971
0.000583575
0.000494653
0.00353974
0.00354019
0.00356555
0.00356599
0.000445967
0.000446036
0.000448794
0.000448863
0.00363638
0.00400736
0.00366163
0.00403133
0.00049214
0.000581236
0.000494823
0.000583771
0.00471063
0.00503218
0.00473386
0.00505633
0.000700639
0.00077642
0.000703155
0.000778943
0.00497483
0.0046546
0.00500407
0.00468285
0.000770539
0.000694779
0.000773516
0.000697723
0.0039489
0.00357448
0.00397821
0.00360553
0.000575215
0.000485738
0.000578255
0.000488998
0.00347722
0.00347767
0.00350899
0.00350943
0.000439355
0.000439422
0.000442814
0.000442882
0.00357574
0.00395044
0.00360679
0.00397976
0.000485904
0.000575406
0.000489165
0.000578447
0.00465586
0.00497551
0.00468411
0.00500474
0.000694948
0.000770684
0.000697894
0.000773663
0.00490532
0.00458685
0.00494142
0.00462215
0.000763626
0.000687983
0.000767237
0.000691527
0.0038781
0.00349964
0.00391495
0.00353821
0.000567981
0.000477909
0.000571802
0.000482048
0.00340102
0.00340147
0.00343982
0.00344027
0.00043103
0.000431097
0.000435423
0.00043549
0.0035009
0.00387964
0.00353947
0.0039165
0.000478073
0.000568168
0.000482213
0.000571991
0.00458812
0.00490601
0.00462341
0.0049421
0.00068815
0.00076377
0.000691695
0.000767381
0.00482132
0.00449956
0.00486441
0.00454588
0.000755457
0.000679471
0.000759644
0.000684008
0.00378786
0.00340988
0.00383521
0.00345551
0.000558368
0.000467741
0.000563562
0.000473152
0.00331368
0.00331414
0.00335706
0.00335751
0.000420482
0.000420549
0.000426024
0.000426091
0.00341116
0.00378942
0.00345679
0.00383676
0.000467903
0.000558553
0.000473315
0.000563749
0.00450086
0.00482207
0.00454716
0.00486512
0.000679636
0.0007556
0.000684174
0.000759787
0.00474158
0.00436658
0.0047777
0.00444235
0.000746788
0.00066256
0.000751346
0.000673385
0.00368043
0.00332251
0.0037338
0.00336236
0.000543464
0.000454767
0.000551886
0.000461545
0.00323477
0.00323522
0.00326984
0.0032703
0.000408233
0.000408298
0.00041442
0.000414485
0.00332376
0.00368198
0.00336364
0.00373537
0.000454925
0.000543646
0.000461706
0.000552071
0.00436792
0.00474244
0.00444368
0.00477848
0.000662725
0.000746937
0.000673551
0.000751491
0.00357657
0.00308994
0.00199066
0.00169374
0.00311324
0.00267849
0.00166714
0.00142435
0.00201011
0.00102607
0.000762189
0.000272854
0.00168433
0.000759545
0.000544661
0.000242553
0.000397946
0.00039861
0.000167253
0.0001673
0.000280836
0.00028118
0.000157661
0.000157682
0.00102784
0.00201152
0.00027317
0.000763527
0.000760665
0.00168546
0.000242701
0.00054549
0.00309103
0.00357715
0.00169479
0.00199122
0.00267939
0.00311371
0.00142518
0.00166758
0.00568966
0.00508672
0.00476108
0.00419248
0.00493994
0.00439345
0.0041538
0.00363876
0.00395074
0.00303279
0.00305735
0.00205928
0.00332497
0.00244838
0.00257548
0.00164643
0.00254312
0.00254399
0.00129118
0.00129254
0.0019453
0.0019462
0.000886826
0.000887816
0.00303456
0.00395239
0.00206109
0.0030589
0.00244993
0.00332635
0.00164804
0.00257677
0.00508796
0.00569036
0.00419363
0.00476169
0.00439448
0.0049405
0.00363971
0.0041543
0.00707447
0.00646177
0.00644441
0.00583093
0.00606671
0.00551339
0.00556
0.00500486
0.00539204
0.00467127
0.0047233
0.00390982
0.0045058
0.00381831
0.00396163
0.00318265
0.00440464
0.00440533
0.00355593
0.00355667
0.00355654
0.00355716
0.00282479
0.00282549
0.00467294
0.00539385
0.00391153
0.00472503
0.00381979
0.00450736
0.00318416
0.00396311
0.00646322
0.00707532
0.00583228
0.00644519
0.0055146
0.00606741
0.00500598
0.00556063
0.00804929
0.00744902
0.00760329
0.00699615
0.00683505
0.00629488
0.0064856
0.00593834
0.00644851
0.00585591
0.00596341
0.00531538
0.00535349
0.00479297
0.0049661
0.00435094
0.00568378
0.00568442
0.0051051
0.00510575
0.00463006
0.00463063
0.00414907
0.00414965
0.00585758
0.00645045
0.00531705
0.0059653
0.00479446
0.0053552
0.00435242
0.00496774
0.00745061
0.0080502
0.00699768
0.00760418
0.00629625
0.00683583
0.00593965
0.00648634
0.00872863
0.00814082
0.00842063
0.007827
0.00736092
0.00683308
0.00712342
0.00658989
0.00718774
0.00666719
0.00685281
0.00630124
0.00593689
0.00544639
0.00567366
0.00515324
0.00653951
0.00654015
0.00615492
0.00615556
0.00532676
0.00532733
0.00501576
0.00501633
0.00666889
0.00718977
0.00630293
0.0068548
0.00544793
0.00593872
0.00515476
0.00567544
0.00814248
0.00872951
0.00782863
0.00842152
0.00683456
0.0073617
0.00659132
0.0071242
0.00917975
0.00860058
0.00897822
0.0083952
0.00770539
0.00718578
0.00755199
0.00702875
0.00767653
0.0071961
0.0074584
0.00696055
0.00631687
0.00586457
0.00614794
0.00567916
0.0070913
0.00709195
0.00684581
0.00684645
0.00576636
0.00576695
0.00557171
0.00557229
0.00719784
0.00767863
0.00696227
0.00746047
0.00586618
0.00631881
0.00568074
0.00614983
0.00860228
0.00918055
0.00839688
0.00897904
0.00718733
0.00770614
0.00703027
0.00755274
0.00946002
0.00888612
0.00933706
0.00876086
0.00791671
0.00740188
0.00782426
0.00730738
0.00797884
0.00752067
0.00784626
0.0073783
0.00654845
0.00611703
0.00644726
0.00600671
0.00742828
0.00742895
0.00728033
0.00728099
0.00603026
0.00603087
0.00591481
0.00591541
0.00752246
0.00798102
0.00738008
0.0078484
0.0061187
0.00655048
0.00600836
0.00644925
0.00888785
0.00946077
0.00876257
0.00933781
0.00740349
0.00791743
0.00730896
0.00782498
0.00962032
0.00904936
0.00955147
0.00897923
0.00803587
0.00752355
0.00798483
0.00747144
0.00815125
0.0077051
0.00807711
0.00762556
0.00667836
0.00625807
0.0066227
0.00619745
0.00761952
0.0076202
0.00753677
0.00753745
0.00617756
0.00617819
0.00611399
0.00611461
0.00770694
0.00815349
0.00762739
0.00807932
0.00625981
0.00668047
0.00619916
0.00662477
0.00905113
0.00962103
0.00898098
0.00955217
0.00752521
0.00803659
0.00747308
0.00798552
0.00970227
0.00913288
0.009668
0.00909792
0.00809561
0.00758448
0.0080707
0.00755906
0.00823946
0.00779948
0.0082024
0.00775951
0.00674335
0.00632871
0.00671615
0.00629889
0.00771751
0.0077182
0.00767569
0.00767639
0.00625153
0.00625218
0.00622
0.00622065
0.00780137
0.00824176
0.00776139
0.00820467
0.0063305
0.00674553
0.00630066
0.00671831
0.00913469
0.00970298
0.00909971
0.00966868
0.0075862
0.00809633
0.00756076
0.0080714
0.00973676
0.00916838
0.00972313
0.00915416
0.00811968
0.00760928
0.00811026
0.00759942
0.00827726
0.00784016
0.0082619
0.00782329
0.00677005
0.00635803
0.00675926
0.00634589
0.00775999
0.0077607
0.00774203
0.00774274
0.00628253
0.0062832
0.00626938
0.00627004
0.0078421
0.0082796
0.00782521
0.00826423
0.00635985
0.00677228
0.0063477
0.00676147
0.00917024
0.0097375
0.009156
0.00972382
0.00761105
0.00812044
0.00760116
0.00811098
0.00974456
0.00917652
0.0097417
0.00917351
0.00812404
0.0076138
0.00812255
0.00761214
0.0082863
0.0078504
0.00828312
0.00784666
0.00677522
0.00636425
0.00677341
0.00636198
0.00777097
0.00777169
0.00776672
0.00776744
0.00628946
0.00629014
0.00628673
0.00628741
0.00785236
0.00828868
0.00784862
0.0082855
0.0063661
0.00677748
0.00636383
0.00677567
0.00917841
0.00974532
0.00917538
0.00974241
0.00761559
0.00812481
0.00761392
0.00812329
0.00973781
0.00917037
0.0097416
0.00917391
0.00811749
0.00760759
0.00812092
0.00761088
0.00828083
0.00784539
0.00828401
0.00784815
0.00676944
0.00635886
0.0067725
0.00636157
0.00776621
0.00776694
0.00776864
0.00776937
0.00628437
0.00628505
0.00628673
0.00628741
0.00784737
0.00828324
0.00785013
0.00828642
0.00636073
0.00677172
0.00636344
0.00677478
0.00917228
0.00973859
0.00917582
0.00974234
0.00760941
0.00811828
0.00761269
0.00812168
0.0097234
0.00915644
0.00973038
0.00916313
0.00810528
0.00759572
0.00811111
0.00760134
0.00826714
0.00783159
0.00827353
0.00783767
0.00675764
0.00634696
0.00676309
0.00635215
0.00775233
0.00775306
0.00775811
0.00775885
0.00627245
0.00627313
0.00627733
0.00627801
0.00783358
0.00826956
0.00783967
0.00827595
0.00634884
0.00675994
0.00635403
0.00676538
0.00915837
0.0097242
0.00916506
0.00973114
0.00759755
0.00810609
0.00760317
0.00811189
0.00970464
0.00913821
0.00971354
0.0091468
0.00808976
0.0075806
0.00809707
0.00758767
0.00824905
0.00781322
0.00825738
0.00782132
0.00674253
0.00633159
0.00674945
0.00633831
0.00773376
0.00773449
0.0077416
0.00774234
0.00625695
0.00625763
0.00626341
0.0062641
0.00781521
0.00825148
0.00782331
0.00825981
0.00633347
0.00674483
0.0063402
0.00675175
0.00914015
0.00970546
0.00914874
0.00971432
0.00758244
0.00809058
0.0075895
0.00809786
0.00968292
0.00911709
0.00969319
0.00912702
0.0080719
0.00756322
0.0080803
0.00757134
0.00822804
0.00779181
0.00823772
0.0078013
0.00672514
0.00631381
0.00673311
0.00632165
0.00771206
0.00771279
0.00772134
0.00772207
0.00623897
0.00623966
0.00624658
0.00624727
0.00779381
0.00823048
0.00780331
0.00824016
0.00631569
0.00672744
0.00632353
0.00673542
0.00911904
0.00968376
0.00912896
0.00969399
0.00756506
0.00807274
0.00757318
0.0080811
0.00965882
0.00909366
0.00967025
0.00910471
0.0080521
0.00754398
0.00806145
0.00755301
0.0082047
0.00776797
0.0082155
0.00777864
0.00670585
0.00629406
0.00671474
0.00630285
0.00768786
0.00768859
0.00769834
0.00769908
0.00621897
0.00621965
0.00622756
0.00622825
0.00776997
0.00820714
0.00778064
0.00821795
0.00629594
0.00670816
0.00630474
0.00671706
0.00909562
0.00965968
0.00910667
0.00967107
0.00754583
0.00805295
0.00755486
0.00806226
0.00963251
0.00906809
0.00964505
0.0090802
0.00803046
0.00752298
0.00804072
0.00753289
0.00817918
0.00774188
0.00819107
0.00775366
0.00668478
0.00627245
0.00669457
0.00628217
0.00766136
0.0076621
0.00767299
0.00767372
0.00619706
0.00619774
0.0062066
0.00620729
0.00774388
0.00818163
0.00775567
0.00819352
0.00627433
0.00668709
0.00628406
0.00669688
0.00907006
0.00963339
0.00908217
0.00964588
0.00752484
0.00803132
0.00753474
0.00804155
0.00960398
0.00904037
0.00961764
0.00905357
0.00800696
0.0075002
0.00801816
0.00751101
0.0081515
0.00771354
0.00816448
0.00772646
0.00666192
0.00624896
0.00667261
0.00625963
0.00763257
0.0076333
0.00764535
0.00764608
0.00617323
0.00617392
0.00618374
0.00618442
0.00771555
0.00815395
0.00772846
0.00816693
0.00625085
0.00666423
0.00626152
0.00667492
0.00904236
0.00960488
0.00905555
0.00961849
0.00750206
0.00800783
0.00751287
0.00801901
0.00957318
0.00901046
0.00958798
0.00902476
0.00798155
0.0074756
0.00799372
0.00748732
0.00812161
0.00768291
0.00813571
0.00769699
0.00663721
0.00622355
0.00664883
0.00623519
0.00760142
0.00760216
0.00761539
0.00761613
0.00614743
0.00614811
0.00615893
0.00615962
0.00768492
0.00812407
0.007699
0.00813817
0.00622544
0.00663952
0.00623708
0.00665115
0.00901246
0.0095741
0.00902676
0.00958886
0.00747747
0.00798244
0.00748919
0.00799457
0.00954002
0.00897826
0.00955602
0.00899373
0.00795417
0.00744909
0.00796734
0.00746178
0.00808941
0.00764988
0.00810467
0.00766517
0.00661056
0.00619612
0.00662317
0.00620878
0.00756782
0.00756855
0.00758303
0.00758377
0.00611956
0.00612025
0.0061321
0.00613279
0.00765189
0.00809187
0.00766719
0.00810714
0.006198
0.00661288
0.00621067
0.00662549
0.00898027
0.00954095
0.00899573
0.00955691
0.00745097
0.00795507
0.00746366
0.00796821
0.00950441
0.0089437
0.00952165
0.00896036
0.00792473
0.00742062
0.00793893
0.0074343
0.00805481
0.00761437
0.00807129
0.00763091
0.00658192
0.00616659
0.00659553
0.00618031
0.00753167
0.0075324
0.00754816
0.0075489
0.00608955
0.00609024
0.00610318
0.00610386
0.00761638
0.00805728
0.00763293
0.00807376
0.00616848
0.00658423
0.0061822
0.00659785
0.00894572
0.00950537
0.00896238
0.00952256
0.0074225
0.00792565
0.00743618
0.00793982
0.0094663
0.00890671
0.0094848
0.0089246
0.00789321
0.00739013
0.00790846
0.00740483
0.00801776
0.0075763
0.00803547
0.00759413
0.00655122
0.00613492
0.00656587
0.00614972
0.0074929
0.00749364
0.00751072
0.00751145
0.00605735
0.00605804
0.00607208
0.00607277
0.00757831
0.00802023
0.00759615
0.00803795
0.00613681
0.00655354
0.00615161
0.00656819
0.00890874
0.00946729
0.00892663
0.00948574
0.00739202
0.00789414
0.00740672
0.00790936
0.00942567
0.00886727
0.00944544
0.00888639
0.00785958
0.00735761
0.00787589
0.00737333
0.00797822
0.00753564
0.00799718
0.00755477
0.00651845
0.00610108
0.00653414
0.00611697
0.00745147
0.00745221
0.00747063
0.00747137
0.00602292
0.0060236
0.00603877
0.00603945
0.00753765
0.00798069
0.00755679
0.00799967
0.00610297
0.00652077
0.00611886
0.00653646
0.00886931
0.00942667
0.00888843
0.0094464
0.0073595
0.00786052
0.00737522
0.00787681
0.00938251
0.00882536
0.00940354
0.00884572
0.00782386
0.00732306
0.00784122
0.0073398
0.00793619
0.00749238
0.0079564
0.00751282
0.00648361
0.00606507
0.00650033
0.00608204
0.00740739
0.00740813
0.00742788
0.00742862
0.00598625
0.00598694
0.00600322
0.0060039
0.0074944
0.00793867
0.00751484
0.00795889
0.00606696
0.00648593
0.00608394
0.00650266
0.00882742
0.00938354
0.00884777
0.00940453
0.00732496
0.00782482
0.0073417
0.00784215
0.0093369
0.00878105
0.00935915
0.00880261
0.00778612
0.00728656
0.00780448
0.00730427
0.00789172
0.00744658
0.00791315
0.00746829
0.00644677
0.00602693
0.00646449
0.00604496
0.00736068
0.00736142
0.00738248
0.00738322
0.00594739
0.00594807
0.00596545
0.00596614
0.00744859
0.0078942
0.00747031
0.00791564
0.00602882
0.00644909
0.00604686
0.00646681
0.00878311
0.00933795
0.00880467
0.00936016
0.00728846
0.00778709
0.00730618
0.00780543
0.00928895
0.00873451
0.00931237
0.00875717
0.00774645
0.00724823
0.00776577
0.00726685
0.00784491
0.00739829
0.0078675
0.00742124
0.00640803
0.00598676
0.00642669
0.00600581
0.00731141
0.00731215
0.00733449
0.00733523
0.0059064
0.00590709
0.00592552
0.00592621
0.0074003
0.00784739
0.00742326
0.00787
0.00598865
0.00641035
0.0060077
0.00642902
0.00873659
0.00929003
0.00875925
0.0093134
0.00725014
0.00774744
0.00726876
0.00776673
0.00923872
0.00868574
0.00926328
0.00870953
0.00770493
0.00720809
0.00772517
0.00722761
0.00779581
0.0073476
0.00781955
0.00737175
0.00636742
0.0059446
0.00638702
0.00596464
0.00725966
0.0072604
0.00728398
0.00728472