/*--------------------------------*- C++ -*----------------------------------*\
  =========                 |
  \\      /  F ield         | OpenFOAM: The Open Source CFD Toolbox
   \\    /   O peration     | Website:  https://openfoam.org
    \\  /    A nd           | Version:  9
     \\/     M anipulation  |
\*---------------------------------------------------------------------------*/
FoamFile
{
    format      ascii;
    class       volScalarField;
    location    "0.2";
    object      p;
}
// * * * * * * * * * * * * * * * * * * * * * * * * * * * * * * * * * * * * * //

dimensions      [0 2 -2 0 0 0 0];

internalField   nonuniform List<scalar> 
4545
(
20.0895
20.0895
20.0895
20.0895
20.0895
20.0686
20.0686
20.0686
20.0686
20.0686
20.0482
20.0482
20.0482
20.0482
20.0482
20.0282
20.0282
20.0282
20.0282
20.0282
20.0087
20.0087
20.0087
20.0087
20.0087
19.9895
19.9895
19.9895
19.9895
19.9895
19.9708
19.9708
19.9708
19.9708
19.9708
19.9526
19.9526
19.9526
19.9526
19.9526
19.9348
19.9348
19.9348
19.9348
19.9348
19.9175
19.9175
19.9175
19.9175
19.9175
19.9007
19.9007
19.9007
19.9007
19.9007
19.8843
19.8843
19.8843
19.8843
19.8843
19.8685
19.8685
19.8685
19.8685
19.8685
19.8531
19.8531
19.8531
19.8531
19.8531
19.8383
19.8383
19.8383
19.8383
19.8383
19.824
19.824
19.824
19.824
19.824
19.8103
19.8103
19.8103
19.8103
19.8103
19.7971
19.7971
19.7971
19.7971
19.7971
19.7845
19.7845
19.7845
19.7845
19.7845
19.7725
19.7725
19.7725
19.7725
19.7725
19.7611
19.7611
19.7611
19.7611
19.7611
19.7503
19.7503
19.7503
19.7503
19.7503
19.7402
19.7402
19.7402
19.7402
19.7402
19.7306
19.7306
19.7306
19.7306
19.7306
19.7218
19.7217
19.7217
19.7217
19.7218
19.7135
19.7135
19.7135
19.7135
19.7135
19.7059
19.7059
19.7059
19.7059
19.7059
19.6989
19.6989
19.6989
19.6989
19.6989
19.6925
19.6925
19.6925
19.6925
19.6925
19.6868
19.6867
19.6867
19.6867
19.6868
19.6816
19.6816
19.6816
19.6816
19.6816
19.677
19.677
19.677
19.677
19.677
19.673
19.6729
19.6729
19.6729
19.673
19.6694
19.6694
19.6694
19.6694
19.6694
19.6664
19.6664
19.6664
19.6664
19.6664
19.6639
19.6639
19.6639
19.6639
19.6639
19.6618
19.6618
19.6618
19.6618
19.6618
19.6602
19.6601
19.6601
19.6601
19.6602
19.6589
19.6588
19.6589
19.6589
19.6589
20.0895
20.0895
20.0895
20.0895
20.0895
20.0687
20.0687
20.0687
20.0687
20.0687
20.0483
20.0483
20.0483
20.0483
20.0483
20.0283
20.0283
20.0283
20.0283
20.0283
20.0087
20.0088
20.0088
20.0088
20.0087
19.9896
19.9897
19.9897
19.9897
19.9896
19.971
19.971
19.971
19.971
19.971
19.9528
19.9528
19.9528
19.9528
19.9528
19.9351
19.9351
19.9351
19.9351
19.9351
19.9178
19.9178
19.9178
19.9178
19.9178
19.901
19.901
19.901
19.901
19.901
19.8847
19.8847
19.8847
19.8847
19.8847
19.8689
19.8689
19.8689
19.8689
19.8689
19.8536
19.8537
19.8537
19.8537
19.8536
19.8389
19.8389
19.8389
19.8389
19.8389
19.8247
19.8247
19.8247
19.8247
19.8247
19.8111
19.8111
19.8111
19.8111
19.8111
19.798
19.7981
19.7981
19.7981
19.798
19.7856
19.7856
19.7856
19.7856
19.7856
19.7737
19.7738
19.7738
19.7738
19.7737
19.7625
19.7625
19.7625
19.7625
19.7625
19.7519
19.7519
19.7519
19.7519
19.7519
19.7419
19.742
19.742
19.742
19.7419
19.7326
19.7327
19.7327
19.7327
19.7326
19.724
19.724
19.724
19.724
19.724
19.7159
19.716
19.716
19.716
19.7159
19.7086
19.7086
19.7086
19.7086
19.7086
19.7019
19.7019
19.7019
19.7019
19.7019
19.6958
19.6958
19.6958
19.6958
19.6958
19.6903
19.6903
19.6903
19.6903
19.6903
19.6854
19.6854
19.6854
19.6854
19.6854
19.6811
19.6811
19.6811
19.6811
19.6811
19.6773
19.6774
19.6774
19.6774
19.6773
19.6741
19.6742
19.6741
19.6742
19.6741
19.6714
19.6714
19.6714
19.6714
19.6714
19.6691
19.6692
19.6691
19.6692
19.6691
19.6673
19.6673
19.6673
19.6673
19.6673
19.6659
19.6659
19.6659
19.6659
19.6659
19.6648
19.6649
19.6649
19.6649
19.6648
20.0895
20.0895
20.0895
20.0895
20.0895
20.0686
20.0686
20.0686
20.0686
20.0686
20.0482
20.0482
20.0482
20.0482
20.0482
20.0283
20.0283
20.0283
20.0283
20.0283
20.0087
20.0087
20.0087
20.0087
20.0087
19.9896
19.9896
19.9896
19.9896
19.9896
19.971
19.971
19.971
19.971
19.971
19.9527
19.9527
19.9527
19.9527
19.9527
19.935
19.935
19.935
19.935
19.935
19.9177
19.9177
19.9177
19.9177
19.9177
19.9009
19.9009
19.9009
19.9009
19.9009
19.8846
19.8846
19.8846
19.8846
19.8846
19.8688
19.8688
19.8688
19.8688
19.8688
19.8535
19.8535
19.8535
19.8535
19.8535
19.8388
19.8388
19.8388
19.8388
19.8388
19.8246
19.8246
19.8246
19.8246
19.8246
19.8109
19.8109
19.8109
19.8109
19.8109
19.7978
19.7978
19.7978
19.7978
19.7978
19.7854
19.7854
19.7854
19.7854
19.7854
19.7735
19.7735
19.7735
19.7735
19.7735
19.7623
19.7623
19.7623
19.7623
19.7623
19.7516
19.7516
19.7516
19.7516
19.7516
19.7417
19.7417
19.7417
19.7417
19.7417
19.7324
19.7324
19.7324
19.7324
19.7324
19.7237
19.7237
19.7237
19.7237
19.7237
19.7157
19.7157
19.7157
19.7157
19.7157
19.7084
19.7084
19.7084
19.7084
19.7084
19.7017
19.7017
19.7017
19.7017
19.7017
19.6956
19.6956
19.6956
19.6956
19.6956
19.6902
19.6902
19.6902
19.6902
19.6902
19.6854
19.6854
19.6854
19.6854
19.6854
19.6811
19.6811
19.6811
19.6811
19.6811
19.6775
19.6774
19.6774
19.6774
19.6775
19.6743
19.6743
19.6743
19.6743
19.6743
19.6717
19.6716
19.6716
19.6716
19.6717
19.6695
19.6694
19.6694
19.6694
19.6695
19.6677
19.6677
19.6677
19.6677
19.6677
19.6664
19.6663
19.6663
19.6663
19.6664
19.6654
19.6654
19.6654
19.6654
19.6654
20.0894
20.0894
20.0894
20.0894
20.0894
20.0686
20.0686
20.0686
20.0686
20.0686
20.0482
20.0482
20.0482
20.0482
20.0482
20.0282
20.0282
20.0282
20.0282
20.0282
20.0086
20.0086
20.0086
20.0086
20.0086
19.9895
19.9895
19.9895
19.9895
19.9895
19.9708
19.9708
19.9708
19.9708
19.9708
19.9526
19.9526
19.9526
19.9526
19.9526
19.9348
19.9348
19.9348
19.9348
19.9348
19.9175
19.9175
19.9175
19.9175
19.9175
19.9007
19.9007
19.9007
19.9007
19.9007
19.8843
19.8843
19.8843
19.8843
19.8843
19.8684
19.8684
19.8684
19.8684
19.8684
19.8531
19.8531
19.8531
19.8531
19.8531
19.8383
19.8383
19.8383
19.8383
19.8383
19.824
19.824
19.824
19.824
19.824
19.8103
19.8103
19.8103
19.8103
19.8103
19.7971
19.7971
19.7971
19.7971
19.7971
19.7845
19.7845
19.7845
19.7845
19.7845
19.7726
19.7726
19.7726
19.7726
19.7726
19.7612
19.7612
19.7612
19.7612
19.7612
19.7505
19.7505
19.7505
19.7505
19.7505
19.7405
19.7405
19.7405
19.7405
19.7405
19.7311
19.7311
19.7311
19.7311
19.7311
19.7223
19.7223
19.7223
19.7223
19.7223
19.7142
19.7142
19.7142
19.7142
19.7142
19.7068
19.7068
19.7068
19.7068
19.7068
19.7001
19.7001
19.7001
19.7001
19.7001
19.694
19.694
19.694
19.694
19.694
19.6885
19.6885
19.6885
19.6885
19.6885
19.6837
19.6836
19.6836
19.6836
19.6837
19.6794
19.6794
19.6794
19.6794
19.6794
19.6757
19.6757
19.6757
19.6757
19.6757
19.6726
19.6726
19.6726
19.6726
19.6726
19.67
19.6699
19.6699
19.6699
19.67
19.6678
19.6678
19.6678
19.6678
19.6678
19.6661
19.6661
19.6661
19.6661
19.6661
19.6648
19.6648
19.6648
19.6648
19.6648
19.6639
19.6639
19.6639
19.6639
19.6639
20.0894
20.0894
20.0894
20.0894
20.0894
20.0686
20.0686
20.0686
20.0686
20.0686
20.0481
20.0481
20.0481
20.0481
20.0481
20.0281
20.0281
20.0281
20.0281
20.0281
20.0085
20.0085
20.0085
20.0085
20.0085
19.9893
19.9893
19.9893
19.9893
19.9893
19.9706
19.9706
19.9706
19.9706
19.9706
19.9523
19.9523
19.9523
19.9523
19.9523
19.9345
19.9345
19.9345
19.9345
19.9345
19.9171
19.9171
19.9171
19.9171
19.9171
19.9002
19.9002
19.9002
19.9002
19.9002
19.8838
19.8838
19.8838
19.8838
19.8838
19.8678
19.8678
19.8678
19.8678
19.8678
19.8524
19.8524
19.8524
19.8524
19.8524
19.8374
19.8374
19.8374
19.8374
19.8374
19.823
19.823
19.823
19.823
19.823
19.8091
19.8091
19.8091
19.8091
19.8091
19.7958
19.7958
19.7958
19.7958
19.7958
19.7831
19.7831
19.7831
19.7831
19.7831
19.7709
19.7709
19.7709
19.7709
19.7709
19.7594
19.7594
19.7594
19.7594
19.7594
19.7485
19.7485
19.7485
19.7485
19.7485
19.7382
19.7382
19.7382
19.7382
19.7382
19.7286
19.7286
19.7286
19.7286
19.7286
19.7197
19.7197
19.7197
19.7197
19.7197
19.7114
19.7114
19.7114
19.7114
19.7114
19.7038
19.7038
19.7038
19.7038
19.7038
19.6968
19.6968
19.6968
19.6968
19.6968
19.6905
19.6905
19.6905
19.6905
19.6905
19.6849
19.6849
19.6849
19.6849
19.6849
19.6799
19.6799
19.6799
19.6799
19.6799
19.6755
19.6755
19.6755
19.6755
19.6755
19.6717
19.6717
19.6717
19.6717
19.6717
19.6685
19.6685
19.6685
19.6685
19.6685
19.6658
19.6658
19.6658
19.6658
19.6658
19.6636
19.6636
19.6636
19.6636
19.6636
19.6618
19.6618
19.6618
19.6618
19.6618
19.6605
19.6605
19.6605
19.6605
19.6605
19.6596
19.6595
19.6595
19.6595
19.6595
20.0894
20.0894
20.0894
20.0894
20.0894
20.0685
20.0685
20.0685
20.0685
20.0685
20.048
20.048
20.048
20.048
20.048
20.028
20.028
20.028
20.028
20.028
20.0083
20.0083
20.0083
20.0083
20.0083
19.9891
19.9891
19.9891
19.9891
19.9891
19.9703
19.9703
19.9703
19.9703
19.9703
19.952
19.952
19.952
19.952
19.952
19.9341
19.9341
19.9341
19.9341
19.9341
19.9166
19.9166
19.9166
19.9166
19.9166
19.8996
19.8996
19.8996
19.8996
19.8996
19.883
19.883
19.883
19.883
19.883
19.867
19.867
19.867
19.867
19.867
19.8514
19.8514
19.8514
19.8514
19.8514
19.8362
19.8362
19.8362
19.8362
19.8362
19.8216
19.8216
19.8216
19.8216
19.8216
19.8076
19.8076
19.8076
19.8076
19.8076
19.794
19.794
19.794
19.794
19.794
19.781
19.781
19.781
19.781
19.781
19.7686
19.7686
19.7686
19.7686
19.7686
19.7568
19.7568
19.7568
19.7568
19.7568
19.7456
19.7456
19.7456
19.7456
19.7456
19.735
19.735
19.735
19.735
19.735
19.7251
19.7251
19.7251
19.7251
19.7251
19.7158
19.7158
19.7158
19.7158
19.7158
19.7071
19.7071
19.7071
19.7071
19.7071
19.6992
19.6992
19.6992
19.6992
19.6992
19.6919
19.6919
19.6919
19.6919
19.6919
19.6853
19.6853
19.6853
19.6853
19.6853
19.6794
19.6793
19.6793
19.6793
19.6794
19.6741
19.674
19.674
19.674
19.6741
19.6694
19.6694
19.6694
19.6694
19.6694
19.6653
19.6653
19.6653
19.6653
19.6653
19.6619
19.6619
19.6619
19.6619
19.6619
19.659
19.659
19.659
19.659
19.659
19.6566
19.6566
19.6566
19.6566
19.6566
19.6547
19.6547
19.6547
19.6547
19.6547
19.6532
19.6532
19.6532
19.6532
19.6532
19.6522
19.6522
19.6522
19.6522
19.6522
20.0894
20.0894
20.0894
20.0894
20.0894
20.0685
20.0685
20.0685
20.0685
20.0685
20.0479
20.0479
20.0479
20.0479
20.0479
20.0278
20.0278
20.0278
20.0278
20.0278
20.0081
20.0081
20.0081
20.0081
20.0081
19.9888
19.9888
19.9888
19.9888
19.9888
19.97
19.97
19.97
19.97
19.97
19.9515
19.9516
19.9516
19.9516
19.9516
19.9335
19.9335
19.9336
19.9335
19.9335
19.916
19.916
19.916
19.916
19.916
19.8988
19.8988
19.8988
19.8988
19.8988
19.8821
19.8821
19.8821
19.8821
19.8821
19.8659
19.8659
19.8659
19.8659
19.8659
19.8501
19.8501
19.8501
19.8501
19.8501
19.8348
19.8348
19.8348
19.8348
19.8348
19.8199
19.8199
19.8199
19.8199
19.8199
19.8056
19.8056
19.8056
19.8056
19.8056
19.7917
19.7917
19.7917
19.7917
19.7917
19.7784
19.7784
19.7784
19.7784
19.7784
19.7656
19.7656
19.7656
19.7656
19.7656
19.7534
19.7534
19.7534
19.7534
19.7534
19.7418
19.7418
19.7418
19.7418
19.7418
19.7308
19.7308
19.7308
19.7308
19.7308
19.7204
19.7204
19.7204
19.7204
19.7204
19.7106
19.7106
19.7106
19.7106
19.7106
19.7015
19.7015
19.7015
19.7015
19.7015
19.693
19.693
19.693
19.693
19.693
19.6853
19.6853
19.6853
19.6853
19.6853
19.6782
19.6782
19.6782
19.6782
19.6782
19.6717
19.6717
19.6717
19.6717
19.6717
19.666
19.666
19.666
19.666
19.666
19.6609
19.6609
19.6609
19.6609
19.6609
19.6564
19.6564
19.6564
19.6564
19.6564
19.6526
19.6526
19.6526
19.6526
19.6526
19.6494
19.6493
19.6493
19.6493
19.6494
19.6467
19.6467
19.6467
19.6467
19.6467
19.6445
19.6445
19.6445
19.6445
19.6445
19.6429
19.6428
19.6428
19.6428
19.6429
19.6416
19.6416
19.6416
19.6416
19.6416
20.0894
20.0894
20.0894
20.0894
20.0894
20.0684
20.0684
20.0684
20.0684
20.0684
20.0478
20.0478
20.0478
20.0478
20.0478
20.0276
20.0276
20.0276
20.0276
20.0276
20.0079
20.0079
20.0079
20.0079
20.0079
19.9885
19.9885
19.9885
19.9885
19.9885
19.9696
19.9696
19.9696
19.9696
19.9696
19.9511
19.9511
19.9511
19.9511
19.9511
19.9329
19.9329
19.9329
19.9329
19.9329
19.9152
19.9152
19.9152
19.9152
19.9152
19.8979
19.898
19.898
19.898
19.8979
19.8811
19.8811
19.8811
19.8811
19.8811
19.8646
19.8646
19.8646
19.8646
19.8646
19.8486
19.8486
19.8486
19.8486
19.8486
19.833
19.833
19.833
19.833
19.833
19.8179
19.8179
19.8179
19.8179
19.8179
19.8032
19.8032
19.8032
19.8032
19.8032
19.789
19.789
19.789
19.789
19.789
19.7753
19.7753
19.7753
19.7753
19.7753
19.7621
19.7621
19.7621
19.7621
19.7621
19.7494
19.7494
19.7494
19.7494
19.7494
19.7372
19.7372
19.7372
19.7372
19.7372
19.7256
19.7256
19.7256
19.7256
19.7256
19.7146
19.7146
19.7146
19.7146
19.7146
19.7042
19.7042
19.7042
19.7042
19.7042
19.6945
19.6945
19.6945
19.6945
19.6945
19.6853
19.6853
19.6853
19.6853
19.6853
19.6769
19.6769
19.6769
19.6769
19.6769
19.6691
19.6691
19.6691
19.6691
19.6691
19.662
19.662
19.662
19.662
19.662
19.6556
19.6556
19.6556
19.6556
19.6556
19.6498
19.6498
19.6498
19.6498
19.6498
19.6448
19.6448
19.6448
19.6448
19.6448
19.6404
19.6404
19.6404
19.6404
19.6404
19.6367
19.6366
19.6366
19.6366
19.6367
19.6335
19.6335
19.6335
19.6335
19.6335
19.631
19.631
19.631
19.631
19.631
19.629
19.629
19.629
19.629
19.629
19.6275
19.6275
19.6275
19.6275
19.6275
20.0894
20.0894
20.0894
20.0894
20.0894
20.0683
20.0683
20.0683
20.0683
20.0683
20.0476
20.0476
20.0476
20.0476
20.0476
20.0274
20.0274
20.0274
20.0274
20.0274
20.0076
20.0076
20.0076
20.0076
20.0076
19.9882
19.9882
19.9882
19.9882
19.9882
19.9691
19.9691
19.9691
19.9691
19.9691
19.9505
19.9505
19.9505
19.9505
19.9505
19.9323
19.9323
19.9323
19.9323
19.9323
19.9144
19.9144
19.9144
19.9144
19.9144
19.897
19.897
19.897
19.897
19.897
19.8799
19.8799
19.8799
19.8799
19.8799
19.8632
19.8632
19.8632
19.8632
19.8632
19.8469
19.847
19.847
19.847
19.8469
19.8311
19.8311
19.8311
19.8311
19.8311
19.8156
19.8156
19.8156
19.8156
19.8156
19.8005
19.8005
19.8005
19.8005
19.8005
19.7859
19.7859
19.7859
19.7859
19.7859
19.7717
19.7717
19.7717
19.7717
19.7717
19.7579
19.7579
19.7579
19.7579
19.7579
19.7447
19.7447
19.7447
19.7447
19.7447
19.7319
19.7319
19.7319
19.7319
19.7319
19.7196
19.7196
19.7196
19.7196
19.7196
19.7078
19.7078
19.7078
19.7078
19.7078
19.6966
19.6966
19.6966
19.6966
19.6966
19.686
19.686
19.686
19.686
19.686
19.676
19.676
19.676
19.676
19.676
19.6667
19.6667
19.6667
19.6667
19.6667
19.658
19.658
19.658
19.658
19.658
19.6499
19.6499
19.6499
19.6499
19.6499
19.6426
19.6426
19.6426
19.6426
19.6426
19.636
19.636
19.636
19.636
19.636
19.6301
19.6301
19.6301
19.6301
19.6301
19.625
19.6249
19.6249
19.6249
19.625
19.6205
19.6205
19.6205
19.6205
19.6205
19.6167
19.6167
19.6167
19.6167
19.6167
19.6136
19.6136
19.6136
19.6136
19.6136
19.6112
19.6112
19.6112
19.6112
19.6112
19.6093
19.6093
19.6093
19.6093
19.6093
20.0893
20.0893
20.0893
20.0893
20.0893
20.0682
20.0682
20.0682
20.0682
20.0682
20.0475
20.0475
20.0475
20.0475
20.0475
20.0272
20.0272
20.0272
20.0272
20.0272
20.0073
20.0073
20.0073
20.0073
20.0073
19.9878
19.9878
19.9878
19.9878
19.9878
19.9687
19.9687
19.9687
19.9687
19.9687
19.9499
19.9499
19.9499
19.9499
19.9499
19.9316
19.9316
19.9316
19.9316
19.9316
19.9136
19.9136
19.9136
19.9136
19.9136
19.8959
19.8959
19.8959
19.8959
19.8959
19.8787
19.8787
19.8787
19.8787
19.8787
19.8617
19.8617
19.8617
19.8617
19.8617
19.8452
19.8452
19.8452
19.8452
19.8452
19.829
19.829
19.829
19.829
19.829
19.8131
19.8131
19.8131
19.8131
19.8131
19.7976
19.7976
19.7976
19.7976
19.7976
19.7825
19.7825
19.7825
19.7825
19.7825
19.7677
19.7678
19.7678
19.7678
19.7677
19.7534
19.7534
19.7534
19.7534
19.7534
19.7394
19.7394
19.7394
19.7394
19.7394
19.7259
19.7259
19.7259
19.7259
19.7259
19.7127
19.7127
19.7127
19.7127
19.7127
19.7001
19.7001
19.7001
19.7001
19.7001
19.6879
19.6879
19.6879
19.6879
19.6879
19.6762
19.6763
19.6762
19.6763
19.6762
19.6651
19.6651
19.6651
19.6651
19.6651
19.6546
19.6546
19.6546
19.6546
19.6546
19.6447
19.6447
19.6447
19.6447
19.6447
19.6355
19.6355
19.6355
19.6355
19.6355
19.627
19.6269
19.6269
19.6269
19.627
19.6191
19.6191
19.6191
19.6191
19.6191
19.6121
19.6121
19.6121
19.6121
19.6121
19.6058
19.6058
19.6058
19.6058
19.6058
19.6004
19.6003
19.6003
19.6003
19.6004
19.5957
19.5956
19.5956
19.5956
19.5957
19.5918
19.5918
19.5918
19.5918
19.5918
19.5887
19.5886
19.5887
19.5886
19.5887
19.5863
19.5863
19.5863
19.5863
19.5863
20.0893
20.0893
20.0893
20.0893
20.0893
20.0681
20.0681
20.0681
20.0681
20.0681
20.0474
20.0474
20.0474
20.0474
20.0474
20.027
20.027
20.027
20.027
20.027
20.007
20.007
20.007
20.007
20.007
19.9874
19.9874
19.9874
19.9874
19.9874
19.9682
19.9682
19.9682
19.9682
19.9682
19.9493
19.9493
19.9493
19.9493
19.9493
19.9308
19.9308
19.9308
19.9308
19.9308
19.9127
19.9127
19.9127
19.9127
19.9127
19.8949
19.8949
19.8949
19.8949
19.8949
19.8774
19.8774
19.8774
19.8774
19.8774
19.8602
19.8602
19.8602
19.8602
19.8602
19.8433
19.8433
19.8433
19.8433
19.8433
19.8268
19.8268
19.8268
19.8268
19.8268
19.8105
19.8105
19.8105
19.8105
19.8105
19.7946
19.7946
19.7946
19.7946
19.7946
19.7789
19.7789
19.7789
19.7789
19.7789
19.7635
19.7636
19.7636
19.7636
19.7635
19.7485
19.7485
19.7485
19.7485
19.7485
19.7337
19.7338
19.7338
19.7338
19.7337
19.7193
19.7193
19.7193
19.7193
19.7193
19.7052
19.7052
19.7052
19.7052
19.7052
19.6915
19.6915
19.6915
19.6915
19.6915
19.6781
19.6782
19.6782
19.6782
19.6781
19.6652
19.6652
19.6652
19.6652
19.6652
19.6527
19.6527
19.6527
19.6527
19.6527
19.6407
19.6408
19.6408
19.6408
19.6407
19.6293
19.6293
19.6293
19.6293
19.6293
19.6185
19.6185
19.6185
19.6185
19.6185
19.6083
19.6083
19.6083
19.6083
19.6083
19.5989
19.5989
19.5988
19.5989
19.5989
19.5902
19.5902
19.5902
19.5902
19.5902
19.5824
19.5823
19.5823
19.5823
19.5824
19.5754
19.5754
19.5754
19.5754
19.5754
19.5694
19.5694
19.5694
19.5694
19.5694
19.5644
19.5644
19.5644
19.5644
19.5644
19.5604
19.5603
19.5603
19.5603
19.5604
19.5573
19.5573
19.5573
19.5573
19.5573
20.0893
20.0893
20.0893
20.0893
20.0893
20.068
20.068
20.068
20.068
20.068
20.0472
20.0472
20.0472
20.0472
20.0472
20.0268
20.0268
20.0268
20.0268
20.0268
20.0067
20.0067
20.0067
20.0067
20.0067
19.9871
19.9871
19.9871
19.9871
19.9871
19.9677
19.9677
19.9677
19.9677
19.9677
19.9488
19.9488
19.9488
19.9488
19.9488
19.9301
19.9301
19.9301
19.9301
19.9301
19.9118
19.9118
19.9118
19.9118
19.9118
19.8938
19.8938
19.8938
19.8938
19.8938
19.8761
19.8761
19.8761
19.8761
19.8761
19.8587
19.8587
19.8587
19.8587
19.8587
19.8415
19.8415
19.8415
19.8415
19.8415
19.8246
19.8246
19.8246
19.8246
19.8246
19.8079
19.8079
19.8079
19.8079
19.8079
19.7915
19.7915
19.7915
19.7915
19.7915
19.7752
19.7752
19.7752
19.7752
19.7752
19.7592
19.7592
19.7592
19.7592
19.7592
19.7434
19.7434
19.7434
19.7434
19.7434
19.7278
19.7278
19.7278
19.7278
19.7278
19.7124
19.7124
19.7124
19.7124
19.7124
19.6973
19.6973
19.6973
19.6973
19.6973
19.6823
19.6823
19.6823
19.6823
19.6823
19.6676
19.6676
19.6676
19.6676
19.6676
19.6531
19.6531
19.6531
19.6531
19.6531
19.6389
19.6389
19.6389
19.6389
19.6389
19.6251
19.6251
19.6251
19.6251
19.6251
19.6117
19.6117
19.6117
19.6117
19.6117
19.5988
19.5988
19.5988
19.5988
19.5988
19.5864
19.5864
19.5864
19.5864
19.5864
19.5747
19.5747
19.5747
19.5747
19.5747
19.5638
19.5638
19.5638
19.5638
19.5638
19.5537
19.5537
19.5537
19.5537
19.5537
19.5447
19.5446
19.5446
19.5446
19.5447
19.5367
19.5367
19.5367
19.5367
19.5367
19.53
19.53
19.53
19.53
19.53
19.5246
19.5246
19.5246
19.5246
19.5246
19.5207
19.5206
19.5207
19.5206
19.5207
20.0893
20.0893
20.0893
20.0893
20.0893
20.068
20.068
20.068
20.068
20.068
20.0471
20.0471
20.0471
20.0471
20.0471
20.0266
20.0266
20.0266
20.0266
20.0266
20.0065
20.0065
20.0065
20.0065
20.0065
19.9867
19.9867
19.9867
19.9867
19.9867
19.9673
19.9673
19.9673
19.9673
19.9673
19.9482
19.9482
19.9482
19.9482
19.9482
19.9295
19.9295
19.9295
19.9295
19.9295
19.911
19.911
19.911
19.911
19.911
19.8928
19.8928
19.8928
19.8928
19.8928
19.8749
19.8749
19.8749
19.8749
19.8749
19.8572
19.8572
19.8572
19.8572
19.8572
19.8397
19.8397
19.8397
19.8397
19.8397
19.8225
19.8225
19.8225
19.8225
19.8225
19.8054
19.8054
19.8054
19.8054
19.8054
19.7884
19.7884
19.7884
19.7884
19.7884
19.7716
19.7716
19.7716
19.7716
19.7716
19.755
19.755
19.755
19.755
19.755
19.7384
19.7384
19.7384
19.7384
19.7384
19.7219
19.7219
19.7219
19.7219
19.7219
19.7054
19.7054
19.7054
19.7054
19.7054
19.689
19.689
19.689
19.689
19.689
19.6727
19.6727
19.6727
19.6727
19.6727
19.6564
19.6564
19.6564
19.6564
19.6564
19.6401
19.6401
19.6401
19.6401
19.6401
19.6239
19.624
19.624
19.624
19.6239
19.6079
19.6079
19.6079
19.6079
19.6079
19.592
19.592
19.592
19.592
19.592
19.5764
19.5764
19.5764
19.5764
19.5764
19.5611
19.5611
19.5611
19.5611
19.5611
19.5463
19.5463
19.5463
19.5463
19.5463
19.5321
19.5321
19.5321
19.5321
19.5321
19.5187
19.5187
19.5187
19.5187
19.5187
19.5064
19.5064
19.5064
19.5064
19.5064
19.4953
19.4952
19.4952
19.4952
19.4953
19.4856
19.4855
19.4855
19.4855
19.4856
19.4776
19.4774
19.4774
19.4774
19.4776
19.4717
19.4713
19.4713
19.4713
19.4717
20.0892
20.0892
20.0892
20.0892
20.0892
20.0679
20.0679
20.0679
20.0679
20.0679
20.047
20.047
20.047
20.047
20.047
20.0264
20.0264
20.0264
20.0264
20.0264
20.0062
20.0062
20.0062
20.0062
20.0062
19.9864
19.9864
19.9864
19.9864
19.9864
19.9669
19.9669
19.9669
19.9669
19.9669
19.9477
19.9477
19.9477
19.9477
19.9477
19.9289
19.9289
19.9289
19.9289
19.9289
19.9103
19.9103
19.9103
19.9103
19.9103
19.8919
19.8919
19.8919
19.8919
19.8919
19.8738
19.8738
19.8738
19.8738
19.8738
19.8559
19.8559
19.8559
19.8559
19.8559
19.8381
19.8381
19.8381
19.8381
19.8381
19.8205
19.8205
19.8205
19.8205
19.8205
19.803
19.803
19.803
19.803
19.803
19.7856
19.7856
19.7856
19.7856
19.7856
19.7683
19.7683
19.7683
19.7683
19.7683
19.7509
19.7509
19.7509
19.7509
19.7509
19.7336
19.7336
19.7336
19.7336
19.7336
19.7161
19.7161
19.7161
19.7161
19.7161
19.6986
19.6986
19.6986
19.6986
19.6986
19.6809
19.6809
19.6809
19.6809
19.6809
19.663
19.663
19.663
19.663
19.663
19.645
19.645
19.645
19.645
19.645
19.6267
19.6267
19.6267
19.6267
19.6267
19.6081
19.6082
19.6082
19.6082
19.6081
19.5894
19.5894
19.5894
19.5894
19.5894
19.5704
19.5704
19.5704
19.5704
19.5704
19.5513
19.5513
19.5513
19.5513
19.5513
19.5321
19.5322
19.5322
19.5322
19.5321
19.513
19.5131
19.5131
19.5131
19.513
19.4942
19.4943
19.4943
19.4943
19.4942
19.476
19.4761
19.4761
19.4761
19.476
19.4587
19.4589
19.4589
19.4589
19.4587
19.4429
19.4431
19.4432
19.4431
19.4429
19.4293
19.4297
19.4298
19.4297
19.4293
19.4188
19.4194
19.4195
19.4194
19.4188
19.4124
19.4132
19.4133
19.4132
19.4124
20.0892
20.0892
20.0892
20.0892
20.0892
20.0678
20.0678
20.0678
20.0678
20.0678
20.0469
20.0469
20.0469
20.0469
20.0469
20.0263
20.0263
20.0263
20.0263
20.0263
20.006
20.006
20.006
20.006
20.006
19.9862
19.9862
19.9862
19.9862
19.9862
19.9666
19.9666
19.9666
19.9666
19.9666
19.9473
19.9473
19.9473
19.9473
19.9473
19.9284
19.9284
19.9284
19.9284
19.9284
19.9096
19.9096
19.9096
19.9096
19.9096
19.8911
19.8911
19.8911
19.8911
19.8911
19.8728
19.8728
19.8728
19.8728
19.8728
19.8547
19.8547
19.8547
19.8547
19.8547
19.8367
19.8367
19.8367
19.8367
19.8367
19.8188
19.8188
19.8188
19.8188
19.8188
19.801
19.801
19.801
19.801
19.801
19.7831
19.7831
19.7831
19.7831
19.7831
19.7653
19.7653
19.7653
19.7653
19.7653
19.7473
19.7473
19.7473
19.7473
19.7473
19.7292
19.7292
19.7292
19.7292
19.7292
19.7108
19.7108
19.7108
19.7108
19.7108
19.6922
19.6922
19.6922
19.6922
19.6922
19.6732
19.6732
19.6732
19.6732
19.6732
19.6538
19.6538
19.6538
19.6538
19.6538
19.6339
19.6339
19.6339
19.6339
19.6339
19.6134
19.6134
19.6134
19.6134
19.6134
19.5921
19.5922
19.5922
19.5922
19.5921
19.5702
19.5702
19.5702
19.5702
19.5702
19.5475
19.5475
19.5475
19.5475
19.5475
19.5239
19.524
19.524
19.524
19.5239
19.4996
19.4997
19.4997
19.4997
19.4996
19.4746
19.4747
19.4747
19.4747
19.4746
19.449
19.4491
19.4491
19.4491
19.449
19.423
19.423
19.423
19.423
19.423
19.3967
19.3965
19.3964
19.3965
19.3967
19.3701
19.3696
19.3695
19.3696
19.3701
19.3434
19.3422
19.3422
19.3422
19.3434
19.3172
19.3154
19.3153
19.3154
19.3172
19.2947
19.2923
19.2923
19.2923
19.2947
20.0892
20.0892
20.0892
20.0892
20.0892
20.0678
20.0678
20.0678
20.0678
20.0678
20.0468
20.0468
20.0468
20.0468
20.0468
20.0262
20.0262
20.0262
20.0262
20.0262
20.0059
20.0059
20.0059
20.0059
20.0059
19.986
19.986
19.986
19.986
19.986
19.9663
19.9663
19.9663
19.9663
19.9663
19.947
19.947
19.947
19.947
19.947
19.928
19.928
19.928
19.928
19.928
19.9092
19.9091
19.9091
19.9091
19.9092
19.8905
19.8905
19.8905
19.8905
19.8905
19.8721
19.8721
19.8721
19.8721
19.8721
19.8538
19.8538
19.8538
19.8538
19.8538
19.8356
19.8356
19.8356
19.8356
19.8356
19.8175
19.8175
19.8175
19.8175
19.8175
19.7993
19.7993
19.7993
19.7993
19.7993
19.7811
19.7811
19.7811
19.7811
19.7811
19.7628
19.7628
19.7628
19.7628
19.7628
19.7443
19.7443
19.7443
19.7443
19.7443
19.7255
19.7255
19.7255
19.7255
19.7255
19.7064
19.7064
19.7064
19.7064
19.7064
19.6868
19.6867
19.6867
19.6867
19.6868
19.6665
19.6665
19.6665
19.6665
19.6665
19.6456
19.6456
19.6456
19.6456
19.6456
19.6238
19.6238
19.6238
19.6238
19.6238
19.6009
19.6009
19.6009
19.6009
19.6009
19.5769
19.5769
19.5769
19.5769
19.5769
19.5514
19.5514
19.5514
19.5514
19.5514
19.5243
19.5243
19.5243
19.5243
19.5243
19.4953
19.4954
19.4954
19.4954
19.4953
19.4645
19.4646
19.4646
19.4646
19.4645
19.4315
19.4318
19.4318
19.4318
19.4315
19.3967
19.3971
19.3971
19.3971
19.3967
19.3604
19.3611
19.3611
19.3611
19.3604
19.3238
19.3249
19.325
19.3249
19.3238
19.2888
19.2907
19.2908
19.2907
19.2888
19.2583
19.2612
19.2613
19.2612
19.2583
19.2334
19.2367
19.2367
19.2367
19.2334
19.2239
19.2277
19.2277
19.2277
19.2239
20.0892
20.0892
20.0892
20.0892
20.0892
20.0678
20.0678
20.0678
20.0678
20.0678
20.0467
20.0467
20.0467
20.0467
20.0467
20.0261
20.0261
20.0261
20.0261
20.0261
20.0058
20.0058
20.0058
20.0058
20.0058
19.9858
19.9858
19.9858
19.9858
19.9858
19.9662
19.9662
19.9662
19.9662
19.9662
19.9468
19.9468
19.9468
19.9468
19.9468
19.9277
19.9277
19.9277
19.9277
19.9277
19.9088
19.9088
19.9088
19.9088
19.9088
19.8901
19.8901
19.8901
19.8901
19.8901
19.8716
19.8716
19.8716
19.8716
19.8716
19.8532
19.8532
19.8532
19.8532
19.8532
19.8349
19.8349
19.8349
19.8349
19.8349
19.8165
19.8165
19.8165
19.8165
19.8165
19.7982
19.7982
19.7982
19.7982
19.7982
19.7797
19.7797
19.7797
19.7797
19.7797
19.7611
19.7611
19.7611
19.7611
19.7611
19.7421
19.7421
19.7421
19.7421
19.7421
19.7228
19.7228
19.7228
19.7228
19.7228
19.703
19.703
19.703
19.703
19.703
19.6826
19.6826
19.6826
19.6826
19.6826
19.6613
19.6613
19.6613
19.6613
19.6613
19.6391
19.6391
19.6391
19.6391
19.6391
19.6156
19.6155
19.6155
19.6155
19.6156
19.5905
19.5905
19.5905
19.5905
19.5905
19.5636
19.5636
19.5636
19.5636
19.5636
19.5345
19.5345
19.5345
19.5345
19.5345
19.5026
19.5026
19.5026
19.5026
19.5026
19.4674
19.4674
19.4674
19.4674
19.4674
19.4282
19.4283
19.4283
19.4283
19.4282
19.3844
19.3845
19.3845
19.3845
19.3844
19.3349
19.335
19.335
19.335
19.3349
19.2784
19.2783
19.2782
19.2783
19.2784
19.2125
19.2118
19.2117
19.2118
19.2125
19.1322
19.1305
19.1303
19.1305
19.1322
19.0291
19.0261
19.0259
19.0261
19.0291
18.9014
18.8976
18.8975
18.8976
18.9014
18.7493
18.7435
18.7436
18.7435
18.7493
20.0892
20.0892
20.0892
20.0892
20.0892
20.0677
20.0677
20.0677
20.0677
20.0677
20.0467
20.0467
20.0467
20.0467
20.0467
20.026
20.026
20.026
20.026
20.026
20.0057
20.0057
20.0057
20.0057
20.0057
19.9858
19.9858
19.9858
19.9858
19.9858
19.9661
19.9661
19.9661
19.9661
19.9661
19.9467
19.9467
19.9467
19.9467
19.9467
19.9276
19.9276
19.9276
19.9276
19.9276
19.9087
19.9087
19.9087
19.9087
19.9087
19.89
19.89
19.89
19.89
19.89
19.8714
19.8714
19.8714
19.8714
19.8714
19.8529
19.8529
19.8529
19.8529
19.8529
19.8345
19.8345
19.8345
19.8345
19.8345
19.8161
19.8161
19.8161
19.8161
19.8161
19.7976
19.7976
19.7976
19.7976
19.7976
19.779
19.779
19.779
19.779
19.779
19.7602
19.7601
19.7601
19.7601
19.7602
19.741
19.741
19.741
19.741
19.741
19.7214
19.7213
19.7213
19.7213
19.7214
19.7012
19.7011
19.7011
19.7011
19.7012
19.6802
19.6801
19.6801
19.6801
19.6802
19.6583
19.6581
19.6581
19.6581
19.6583
19.635
19.6349
19.6349
19.6349
19.635
19.6103
19.6101
19.6101
19.6101
19.6103
19.5835
19.5833
19.5833
19.5833
19.5835
19.5543
19.5541
19.5541
19.5541
19.5543
19.5219
19.5216
19.5217
19.5216
19.5219
19.4856
19.4852
19.4853
19.4852
19.4856
19.4441
19.4437
19.4438
19.4437
19.4441
19.3962
19.3958
19.3959
19.3958
19.3962
19.3399
19.3397
19.3398
19.3397
19.3399
19.2733
19.2734
19.2735
19.2734
19.2733
19.1946
19.1953
19.1955
19.1953
19.1946
19.1043
19.1063
19.1065
19.1063
19.1043
19.0059
19.0094
19.0096
19.0094
19.0059
18.9164
18.9233
18.9235
18.9233
18.9164
18.8053
18.8111
18.8112
18.8112
18.8053
18.7591
18.7732
18.7734
18.7732
18.7592
20.0892
20.0892
20.0892
20.0892
20.0892
20.0678
20.0678
20.0678
20.0678
20.0678
20.0467
20.0467
20.0467
20.0467
20.0467
20.0261
20.0261
20.0261
20.0261
20.0261
20.0058
20.0058
20.0058
20.0058
20.0058
19.9859
19.9859
19.9859
19.9859
19.9859
19.9663
19.9663
19.9663
19.9663
19.9663
19.9469
19.9469
19.9469
19.9469
19.9469
19.9278
19.9278
19.9278
19.9278
19.9278
19.909
19.909
19.909
19.909
19.909
19.8903
19.8903
19.8903
19.8903
19.8903
19.8718
19.8718
19.8718
19.8718
19.8718
19.8534
19.8534
19.8534
19.8534
19.8534
19.8351
19.8351
19.8351
19.8351
19.8351
19.8168
19.8167
19.8167
19.8167
19.8168
19.7984
19.7984
19.7984
19.7984
19.7984
19.7799
19.7799
19.7799
19.7799
19.7799
19.7612
19.7612
19.7612
19.7612
19.7612
19.7421
19.7421
19.7421
19.7421
19.7421
19.7227
19.7227
19.7227
19.7227
19.7227
19.7026
19.7026
19.7026
19.7026
19.7026
19.6818
19.6818
19.6818
19.6818
19.6818
19.66
19.66
19.66
19.66
19.66
19.637
19.637
19.637
19.637
19.637
19.6123
19.6123
19.6123
19.6123
19.6123
19.5856
19.5856
19.5856
19.5856
19.5856
19.5563
19.5562
19.5562
19.5562
19.5563
19.5235
19.5234
19.5234
19.5234
19.5235
19.4861
19.4861
19.4861
19.4861
19.4861
19.4427
19.4427
19.4427
19.4427
19.4427
19.391
19.3909
19.391
19.3909
19.391
19.3276
19.3274
19.3275
19.3274
19.3276
19.2469
19.2466
19.2467
19.2466
19.2469
19.1396
19.1389
19.139
19.1389
19.1396
18.9862
18.9851
18.9853
18.9851
18.9862
18.7527
18.7518
18.7519
18.7518
18.7527
18.3409
18.3401
18.3399
18.3401
18.3409
17.651
17.6535
17.6523
17.6535
17.651
16.1588
16.1512
16.1487
16.1512
16.1588
19.6573
19.6572
19.6572
19.6572
19.6573
19.6638
19.6639
19.6638