/*--------------------------------*- C++ -*----------------------------------*\
  =========                 |
  \\      /  F ield         | OpenFOAM: The Open Source CFD Toolbox
   \\    /   O peration     | Website:  https://openfoam.org
    \\  /    A nd           | Version:  9
     \\/     M anipulation  |
\*---------------------------------------------------------------------------*/
FoamFile
{
    format      ascii;
    class       surfaceScalarField;
    location    "0.2";
    object      phi;
}
// * * * * * * * * * * * * * * * * * * * * * * * * * * * * * * * * * * * * * //

dimensions      [0 3 -1 0 0 0 0];

internalField   nonuniform List<scalar> 
12376
(
8.33763e-11
0.000433993
8.73574e-08
1.62785e-11
0.000433987
8.6775e-08
4.21909e-11
0.000433986
8.67816e-08
-5.63899e-11
0.000433987
8.81229e-08
0.000433992
8.97422e-08
-3.48886e-10
0.00043383
1.63475e-07
-4.57779e-11
0.000433825
1.62266e-07
6.1956e-11
0.000433824
1.61716e-07
3.77406e-10
0.000433824
1.6259e-07
0.000433829
1.641e-07
-2.1595e-10
0.000433518
3.11784e-07
-1.40706e-10
0.000433514
3.11173e-07
1.22537e-10
0.000433513
3.10384e-07
2.23771e-10
0.000433513
3.10661e-07
0.000433518
3.1099e-07
-2.17516e-10
0.000433035
4.83002e-07
-2.08038e-10
0.000433031
4.8262e-07
1.68722e-10
0.000433031
4.82019e-07
2.11078e-10
0.000433031
4.82278e-07
0.000433035
4.82476e-07
-2.72754e-10
0.000432376
6.59269e-07
-2.40187e-10
0.000432372
6.58967e-07
2.03512e-10
0.000432372
6.58602e-07
2.63573e-10
0.000432372
6.59099e-07
0.000432376
6.59455e-07
-2.98239e-10
0.000431532
8.44586e-07
-2.59136e-10
0.000431527
8.44395e-07
2.3186e-10
0.000431527
8.44042e-07
2.88268e-10
0.000431527
8.44657e-07
0.000431532
8.44954e-07
-3.06752e-10
0.000430487
1.04489e-06
-2.78116e-10
0.000430483
1.04471e-06
2.57924e-10
0.000430483
1.04421e-06
2.945e-10
0.000430482
1.04477e-06
0.000430487
1.04496e-06
-3.01251e-10
0.000429224
1.26325e-06
-2.96049e-10
0.00042922
1.26301e-06
2.76475e-10
0.00042922
1.26239e-06
2.87136e-10
0.000429219
1.26291e-06
0.000429224
1.26303e-06
-2.77182e-10
0.000427722
1.50312e-06
-3.09341e-10
0.000427717
1.50308e-06
2.90727e-10
0.000427717
1.50247e-06
2.59726e-10
0.000427716
1.50309e-06
0.000427721
1.50317e-06
-2.35379e-10
0.000425954
1.76794e-06
-3.20825e-10
0.000425949
1.76807e-06
3.02645e-10
0.000425948
1.76748e-06
2.16787e-10
0.000425948
1.76819e-06
0.000425953
1.76815e-06
-1.92368e-10
0.000423893
2.06061e-06
-3.41925e-10
0.000423888
2.06072e-06
3.06208e-10
0.000423888
2.05995e-06
1.72761e-10
0.000423888
2.06058e-06
0.000423893
2.06036e-06
-1.58207e-10
0.00042151
2.38332e-06
-3.68372e-10
0.000421505
2.38348e-06
3.12124e-10
0.000421505
2.38255e-06
1.34114e-10
0.000421505
2.38327e-06
0.00042151
2.38304e-06
-1.24231e-10
0.000418773
2.73701e-06
-3.88898e-10
0.000418768
2.73731e-06
3.3021e-10
0.000418767
2.73644e-06
9.88898e-11
0.000418767
2.73748e-06
0.000418773
2.73735e-06
-8.84019e-11
0.000415647
3.12647e-06
-4.11559e-10
0.000415641
3.12681e-06
3.467e-10
0.000415641
3.12585e-06
6.46543e-11
0.000415641
3.12698e-06
0.000415646
3.12676e-06
-5.04962e-11
0.000412098
3.54861e-06
-4.35955e-10
0.000412093
3.54886e-06
3.59443e-10
0.000412093
3.54754e-06
2.47188e-11
0.000412093
3.54855e-06
0.000412098
3.54815e-06
6.52065e-12
0.000408092
4.00621e-06
-4.45731e-10
0.000408087
4.00646e-06
3.83814e-10
0.000408087
4.00495e-06
-3.21861e-11
0.000408087
4.00612e-06
0.000408092
4.00569e-06
9.69234e-11
0.000403593
4.49955e-06
-4.38306e-10
0.000403588
4.49997e-06
4.12967e-10
0.000403588
4.49849e-06
-1.14193e-10
0.000403588
4.50001e-06
0.000403593
4.49963e-06
2.14394e-10
0.000398566
5.02696e-06
-4.24023e-10
0.000398561
5.02749e-06
4.26927e-10
0.000398561
5.02592e-06
-2.2162e-10
0.000398561
5.02762e-06
0.000398565
5.02716e-06
3.51067e-10
0.000392977
5.58819e-06
-4.01376e-10
0.000392973
5.58876e-06
4.21388e-10
0.000392973
5.58697e-06
-3.52762e-10
0.000392973
5.58875e-06
0.000392977
5.58814e-06
5.05281e-10
0.000386799
6.17729e-06
-3.84176e-10
0.000386795
6.17803e-06
4.04281e-10
0.000386796
6.17611e-06
-5.04026e-10
0.000386795
6.1781e-06
0.000386799
6.17735e-06
6.75398e-10
0.000380004
6.79455e-06
-3.8029e-10
0.000380001
6.79562e-06
3.99964e-10
0.000380002
6.79362e-06
-6.70624e-10
0.00038
6.79586e-06
0.000380003
6.79492e-06
8.51336e-10
0.000372568
7.43504e-06
-3.80741e-10
0.000372566
7.43637e-06
3.8833e-10
0.000372567
7.43417e-06
-8.47032e-10
0.000372565
7.4365e-06
0.000372567
7.43527e-06
1.02897e-09
0.000364474
8.09267e-06
-3.80733e-10
0.000364473
8.09417e-06
3.74105e-10
0.000364474
8.09162e-06
-1.02857e-09
0.000364473
8.09397e-06
0.000364474
8.09239e-06
1.21341e-09
0.000355712
8.76143e-06
-3.74062e-10
0.000355711
8.76313e-06
3.63513e-10
0.000355713
8.76031e-06
-1.21501e-09
0.000355711
8.76279e-06
0.000355712
8.76089e-06
1.40986e-09
0.000346275
9.4352e-06
-3.6003e-10
0.000346276
9.43728e-06
3.57229e-10
0.000346278
9.43437e-06
-1.40819e-09
0.000346276
9.43712e-06
0.000346275
9.43493e-06
1.61697e-09
0.000336166
1.01072e-05
-3.42515e-10
0.000336168
1.01098e-05
3.50844e-10
0.000336171
1.01069e-05
-1.60886e-09
0.000336168
1.01099e-05
0.000336166
1.01074e-05
1.82895e-09
0.000325394
1.07708e-05
-3.25298e-10
0.000325396
1.07739e-05
3.40127e-10
0.000325399
1.07709e-05
-1.81549e-09
0.000325396
1.07741e-05
0.000325393
1.07712e-05
2.03968e-09
0.000313973
1.14182e-05
-3.09729e-10
0.000313977
1.14217e-05
3.24127e-10
0.00031398
1.14185e-05
-2.02408e-09
0.000313977
1.14218e-05
0.000313973
1.14184e-05
2.24403e-09
0.000301931
1.20404e-05
-2.95571e-10
0.000301935
1.20443e-05
3.04658e-10
0.000301938
1.2041e-05
-2.22873e-09
0.000301935
1.20443e-05
0.00030193
1.20404e-05
2.438e-09
0.000289297
1.26318e-05
-2.82407e-10
0.000289302
1.26362e-05
2.84409e-10
0.000289305
1.26327e-05
-2.4238e-09
0.000289302
1.26361e-05
0.000289296
1.26316e-05
2.61773e-09
0.000276109
1.3185e-05
-2.70002e-10
0.000276115
1.31899e-05
2.65391e-10
0.000276118
1.31863e-05
-2.60449e-09
0.000276115
1.31898e-05
0.000276109
1.31849e-05
2.78064e-09
0.000262412
1.36945e-05
-2.58372e-10
0.000262418
1.36998e-05
2.48575e-10
0.000262421
1.36962e-05
-2.76823e-09
0.000262418
1.36998e-05
0.000262411
1.36945e-05
2.92568e-09
0.000248253
1.41556e-05
-2.47862e-10
0.00024826
1.41614e-05
2.34077e-10
0.000248263
1.41578e-05
-2.91433e-09
0.000248259
1.41615e-05
0.000248253
1.41558e-05
3.05251e-09
0.000233686
1.45636e-05
-2.39294e-10
0.000233693
1.45698e-05
2.21621e-10
0.000233696
1.45662e-05
-3.04262e-09
0.000233693
1.45699e-05
0.000233686
1.45638e-05
3.16129e-09
0.000218767
1.49158e-05
-2.34008e-10
0.000218774
1.49223e-05
2.1111e-10
0.000218777
1.49186e-05
-3.15319e-09
0.000218774
1.49223e-05
0.000218767
1.49159e-05
3.25255e-09
0.000203554
1.52103e-05
-2.33491e-10
0.00020356
1.52171e-05
2.02766e-10
0.000203563
1.52134e-05
-3.24651e-09
0.00020356
1.52171e-05
0.000203553
1.52103e-05
3.32604e-09
0.000188105
1.54457e-05
-2.38573e-10
0.000188111
1.54528e-05
1.96858e-10
0.000188114
1.54491e-05
-3.32269e-09
0.000188111
1.54527e-05
0.000188104
1.54456e-05
3.37097e-09
0.000172478
1.56231e-05
-2.4901e-10
0.000172484
1.56307e-05
1.93711e-10
0.000172486
1.5627e-05
-3.37221e-09
0.000172484
1.56306e-05
0.000172478
1.5623e-05
3.36513e-09
1.5748e-05
0.000156727
-2.65625e-10
1.57559e-05
0.000156732
1.92326e-10
1.57522e-05
0.000156734
-3.37295e-09
1.57557e-05
0.000156732
1.57477e-05
0.000156727
6.81984e-11
0.000791404
2.25733e-07
1.82058e-11
0.000791399
2.24646e-07
-9.22005e-12
0.000791399
2.2448e-07
-5.71951e-11
0.000791399
2.26014e-07
0.000791403
2.28161e-07
-4.88791e-10
0.000791123
4.4483e-07
-2.03209e-11
0.000791117
4.43374e-07
3.04859e-11
0.000791118
4.42749e-07
4.99378e-10
0.000791117
4.43802e-07
0.000791122
4.45687e-07
-3.91444e-10
0.000790603
8.31856e-07
-6.37209e-11
0.000790598
8.30636e-07
6.37973e-11
0.000790598
8.29994e-07
3.99132e-10
0.000790597
8.30186e-07
0.000790603
8.31121e-07
-5.22043e-10
0.000789804
1.28291e-06
-1.05395e-10
0.000789798
1.28176e-06
8.86767e-11
0.000789799
1.28148e-06
5.21312e-10
0.000789798
1.28141e-06
0.000789803
1.28229e-06
-7.07246e-10
0.000788705
1.75902e-06
-1.26994e-10
0.000788698
1.75796e-06
1.05746e-10
0.000788699
1.75804e-06
6.9582e-10
0.000788698
1.7581e-06
0.000788704
1.75926e-06
-8.3857e-10
0.000787287
2.26268e-06
-1.37833e-10
0.000787281
2.26149e-06
1.20975e-10
0.000787281
2.26172e-06
8.26009e-10
0.00078728
2.26177e-06
0.000787287
2.26302e-06
-9.67982e-10
0.000785528
2.80555e-06
-1.4697e-10
0.00078552
2.80419e-06
1.38276e-10
0.00078552
2.80441e-06
9.54622e-10
0.00078552
2.8043e-06
0.000785527
2.80561e-06
-1.09953e-09
0.000783395
3.39689e-06
-1.56026e-10
0.000783387
3.39546e-06
1.50531e-10
0.000783387
3.39567e-06
1.08395e-09
0.000783386
3.39541e-06
0.000783394
3.39685e-06
-1.2179e-09
0.000780852
4.0472e-06
-1.65979e-10
0.000780843
4.04563e-06
1.49194e-10
0.000780843
4.04594e-06
1.20151e-09
0.000780843
4.04565e-06
0.000780852
4.04725e-06
-1.33714e-09
0.000777857
4.76413e-06
-1.67737e-10
0.000777848
4.76244e-06
1.48167e-10
0.000777847
4.76288e-06
1.31833e-09
0.000777847
4.76252e-06
0.000777857
4.7642e-06
-1.47242e-09
0.000774364
5.55586e-06
-1.71492e-10
0.000774353
5.55396e-06
1.4247e-10
0.000774352
5.55435e-06
1.45068e-09
0.000774353
5.5538e-06
0.000774363
5.55559e-06
-1.62638e-09
0.000770318
6.43032e-06
-1.81178e-10
0.000770307
6.4281e-06
1.35212e-10
0.000770306
6.42847e-06
1.60144e-09
0.000770307
6.42792e-06
0.000770318
6.43009e-06
-1.79681e-09
0.000765667
7.38981e-06
-1.8538e-10
0.000765655
7.38733e-06
1.36285e-10
0.000765654
7.38789e-06
1.77008e-09
0.000765655
7.38752e-06
0.000765667
7.39016e-06
-1.98375e-09
0.000760349
8.44708e-06
-1.8498e-10
0.000760336
8.44425e-06
1.36998e-10
0.000760335
8.44485e-06
1.95915e-09
0.000760336
8.44439e-06
0.000760348
8.44731e-06
-2.18046e-09
0.000754304
9.59559e-06
-1.83316e-10
0.000754291
9.59223e-06
1.34201e-10
0.00075429
9.59262e-06
2.15587e-09
0.00075429
9.59192e-06
0.000754303
9.59511e-06
-2.37237e-09
0.000747468
1.08442e-05
-1.73458e-10
0.000747455
1.08403e-05
1.38772e-10
0.000747454
1.08407e-05
2.34853e-09
0.000747454
1.084e-05
0.000747468
1.08437e-05
-2.54817e-09
0.000739778
1.21929e-05
-1.55731e-10
0.000739764
1.21887e-05
1.45423e-10
0.000739763
1.21893e-05
2.53297e-09
0.000739763
1.21887e-05
0.000739777
1.2193e-05
-2.71559e-09
0.000731169
1.36379e-05
-1.36967e-10
0.000731155
1.36332e-05
1.4034e-10
0.000731155
1.36338e-05
2.70995e-09
0.000731155
1.36333e-05
0.000731169
1.3638e-05
-2.88004e-09
0.000721579
1.5181e-05
-1.15742e-10
0.000721565
1.51759e-05
1.24668e-10
0.000721565
1.51765e-05
2.87805e-09
0.000721565
1.51759e-05
0.000721579
1.5181e-05
-3.03334e-09
0.000710952
1.68078e-05
-8.86567e-11
0.000710938
1.68023e-05
1.03272e-10
0.000710938
1.68029e-05
3.03363e-09
0.000710938
1.68024e-05
0.000710951
1.68079e-05
-3.17884e-09
0.000699231
1.85187e-05
-6.21142e-11
0.000699218
1.85131e-05
7.51582e-11
0.000699218
1.85138e-05
3.18264e-09
0.000699217
1.85133e-05
0.00069923
1.85192e-05
-3.32532e-09
0.000686368
2.03011e-05
-3.83135e-11
0.000686356
2.02952e-05
3.92073e-11
0.000686356
2.02958e-05
3.32903e-09
0.000686355
2.02953e-05
0.000686367
2.03013e-05
-3.47181e-09
0.000672324
2.21404e-05
-1.07386e-11
0.000672312
2.21341e-05
1.62111e-12
0.000672313
2.21346e-05
3.47184e-09
0.000672312
2.21339e-05
0.000672323
2.21401e-05
-3.60658e-09
0.000657067
2.40219e-05
2.58463e-11
0.000657056
2.40155e-05
-3.11007e-11
0.000657057
2.40159e-05
3.60576e-09
0.000657056
2.40151e-05
0.000657066
2.40214e-05
-3.72127e-09
0.000640577
2.59292e-05
6.86845e-11
0.000640567
2.59227e-05
-5.98965e-11
0.000640569
2.59233e-05
3.72575e-09
0.000640567
2.59226e-05
0.000640576
2.5929e-05
-3.81704e-09
0.000622845
2.78429e-05
1.11489e-10
0.000622836
2.78366e-05
-9.02704e-11
0.000622838
2.78374e-05
3.82928e-09
0.000622836
2.78367e-05
0.000622844
2.78431e-05
-3.89883e-09
0.000603875
2.97446e-05
1.50915e-10
0.000603868
2.97385e-05
-1.25654e-10
0.00060387
2.97395e-05
3.91604e-09
0.000603867
2.97388e-05
0.000603874
2.9745e-05
-3.96866e-09
0.000583684
3.16126e-05
1.87129e-10
0.000583678
3.16068e-05
-1.65276e-10
0.000583681
3.16077e-05
3.98656e-09
0.000583678
3.16069e-05
0.000583684
3.16129e-05
-4.02604e-09
0.000562306
3.34226e-05
2.2099e-10
0.000562301
3.3417e-05
-2.06058e-10
0.000562304
3.3418e-05
4.04232e-09
0.000562301
3.3417e-05
0.000562306
3.34226e-05
-4.07154e-09
0.000539785
3.51575e-05
2.52585e-10
0.000539781
3.51523e-05
-2.4497e-10
0.000539784
3.51533e-05
4.08609e-09
0.00053978
3.51522e-05
0.000539784
3.51574e-05
-4.1055e-09
0.000516179
3.67951e-05
2.81606e-10
0.000516176
3.67902e-05
-2.79942e-10
0.00051618
3.67914e-05
4.11909e-09
0.000516176
3.67902e-05
0.000516178
3.6795e-05
-4.12794e-09
0.00049156
3.83174e-05
3.08028e-10
0.000491558
3.8313e-05
-3.09983e-10
0.000491562
3.83144e-05
4.1412e-09
0.000491558
3.83131e-05
0.000491559
3.83175e-05
-4.13765e-09
0.00046601
3.97098e-05
3.31878e-10
0.000466009
3.9706e-05
-3.34915e-10
0.000466013
3.97075e-05
4.15094e-09
0.000466009
3.97061e-05
0.000466009
3.97101e-05
-4.13229e-09
0.000439621
4.09568e-05
3.52647e-10
0.000439621
4.09533e-05
-3.54919e-10
0.000439625
4.09549e-05
4.14588e-09
0.000439621
4.09534e-05
0.00043962
4.0957e-05
-4.11021e-09
0.000412491
4.20491e-05
3.69154e-10
0.000412493
4.20459e-05
-3.70125e-10
0.000412497
4.20475e-05
4.1243e-09
0.000412493
4.20459e-05
0.000412491
4.20492e-05
-4.07069e-09
0.000384726
4.298e-05
3.79495e-10
0.000384729
4.29771e-05
-3.80128e-10
0.000384732
4.29787e-05
4.08534e-09
0.000384728
4.2977e-05
0.000384725
4.298e-05
-4.0108e-09
0.000356432
4.37435e-05
3.80848e-10
0.000356437
4.37406e-05
-3.83226e-10
0.00035644
4.37422e-05
4.02587e-09
0.000356436
4.37405e-05
0.000356432
4.37434e-05
-3.91206e-09
0.000327716
4.43427e-05
3.70265e-10
0.000327723
4.43395e-05
-3.7621e-10
0.000327727
4.43411e-05
3.92688e-09
0.000327723
4.43393e-05
0.000327716
4.43424e-05
-3.74052e-09
4.47752e-05
0.000298693
3.45961e-10
4.47716e-05
0.000298704
-3.57391e-10
4.47731e-05
0.000298707
3.7534e-09
4.47712e-05
0.000298704
4.47746e-05
0.000298693
1.30035e-10
0.000883289
3.73142e-07
1.57619e-11
0.000883287
3.71956e-07
-2.66003e-11
0.000883289
3.71515e-07
-1.2755e-10
0.000883287
3.72599e-07
0.000883288
3.74413e-07
-3.69852e-10
0.000882995
7.38777e-07
-1.75692e-11
0.000882993
7.37717e-07
1.09051e-11
0.000882994
7.37246e-07
3.6889e-10
0.000882992
7.37998e-07
0.000882995
7.39296e-07
-1.76617e-10
0.00088246
1.36783e-06
-7.97333e-11
0.000882456
1.36695e-06
7.3895e-11
0.000882458
1.3665e-06
1.75703e-10
0.000882456
1.36666e-06
0.000882459
1.36746e-06
-2.29555e-10
0.000881637
2.1056e-06
-1.51848e-10
0.000881633
2.10458e-06
1.19597e-10
0.000881634
2.10439e-06
2.26276e-10
0.000881633
2.10433e-06
0.000881636
2.10514e-06
-3.18515e-10
0.000880503
2.89391e-06
-1.74673e-10
0.000880498
2.89289e-06
1.29221e-10
0.000880499
2.89302e-06
3.08476e-10
0.000880498
2.89301e-06
0.000880502
2.89406e-06
-3.45408e-10
0.000879035
3.73107e-06
-1.74535e-10
0.000879029
3.72997e-06
1.47622e-10
0.00087903
3.73023e-06
3.30173e-10
0.000879029
3.73016e-06
0.000879034
3.73131e-06
-3.63583e-10
0.000877207
4.63362e-06
-1.72091e-10
0.000877201
4.63233e-06
1.69055e-10
0.000877202
4.63259e-06
3.50239e-10
0.000877201
4.63239e-06
0.000877206
4.63364e-06
-3.77063e-10
0.000874987
5.61719e-06
-1.78128e-10
0.00087498
5.61581e-06
1.70795e-10
0.000874981
5.61611e-06
3.66345e-10
0.00087498
5.61581e-06
0.000874986
5.61718e-06
-3.76938e-10
0.000872335
6.69928e-06
-1.90345e-10
0.000872328
6.69775e-06
1.62868e-10
0.000872328
6.69811e-06
3.61252e-10
0.000872328
6.69776e-06
0.000872335
6.69929e-06
-3.6643e-10
0.000869207
7.89249e-06
-1.92414e-10
0.0008692
7.89078e-06
1.63024e-10
0.0008692
7.89119e-06
3.44577e-10
0.000869199
7.8908e-06
0.000869207
7.89245e-06
-3.52993e-10
0.000865552
9.21091e-06
-1.97361e-10
0.000865544
9.209e-06
1.57258e-10
0.000865544
9.20936e-06
3.30675e-10
0.000865544
9.20889e-06
0.000865552
9.21075e-06
-3.42885e-10
0.000861314
1.06689e-05
-2.11262e-10
0.000861306
1.06666e-05
1.46276e-10
0.000861305
1.06669e-05
3.1746e-10
0.000861305
1.06665e-05
0.000861313
1.06688e-05
-3.3087e-10
0.000856434
1.22707e-05
-2.13282e-10
0.000856425
1.22681e-05
1.46977e-10
0.000856424
1.22685e-05
3.01922e-10
0.000856424
1.22682e-05
0.000856433
1.22709e-05
-3.10643e-10
0.000850843
1.4038e-05
-2.05039e-10
0.000850834
1.4035e-05
1.48762e-10
0.000850834
1.40353e-05
2.84869e-10
0.000850834
1.4035e-05
0.000850843
1.4038e-05
-2.80127e-10
0.000844477
1.59616e-05
-1.96454e-10
0.000844468
1.59581e-05
1.443e-10
0.000844468
1.59582e-05
2.57153e-10
0.000844468
1.59579e-05
0.000844477
1.59613e-05
-2.29246e-10
0.000837264
1.80577e-05
-1.8149e-10
0.000837255
1.80536e-05
1.45261e-10
0.000837254
1.80537e-05
2.08735e-10
0.000837254
1.80534e-05
0.000837263
1.80574e-05
-1.51271e-10
0.00082913
2.03268e-05
-1.58172e-10
0.000829121
2.03222e-05
1.44625e-10
0.000829121
2.03223e-05
1.38601e-10
0.000829121
2.03222e-05
0.00082913
2.03268e-05
-5.53475e-11
0.000820005
2.27634e-05
-1.31394e-10
0.000819996
2.27584e-05
1.26692e-10
0.000819996
2.27584e-05
4.97295e-11
0.000819996
2.27584e-05
0.000820004
2.27634e-05
5.65131e-11
0.000809812
2.53735e-05
-9.46628e-11
0.000809804
2.5368e-05
9.14514e-11
0.000809805
2.53679e-05
-6.0202e-11
0.000809804
2.5368e-05
0.000809812
2.53735e-05
1.90511e-10
0.000798486
2.81344e-05
-5.34263e-11
0.000798478
2.81286e-05
5.61038e-11
0.000798479
2.81285e-05
-1.91924e-10
0.000798478
2.81287e-05
0.000798485
2.81345e-05
3.44855e-10
0.000785956
3.1048e-05
-2.56235e-11
0.00078595
3.1042e-05
2.80265e-11
0.000785951
3.10418e-05
-3.42671e-10
0.000785949
3.10421e-05
0.000785955
3.10483e-05
5.09516e-10
0.000772163
3.40937e-05
8.38096e-13
0.000772158
3.40875e-05
-5.1923e-12
0.00077216
3.40872e-05
-5.07257e-10
0.000772158
3.40876e-05
0.000772162
3.40939e-05
6.85076e-10
0.000757053
3.72494e-05
3.30166e-11
0.00075705
3.72431e-05
-3.79187e-11
0.000757052
3.72425e-05
-6.84886e-10
0.000757049
3.72429e-05
0.000757052
3.72492e-05
8.79771e-10
0.000740582
4.04922e-05
7.41525e-11
0.00074058
4.04859e-05
-6.57158e-11
0.000740583
4.04852e-05
-8.77319e-10
0.000740579
4.04857e-05
0.000740581
4.04919e-05
1.09395e-09
0.000722716
4.37947e-05
1.18804e-10
0.000722715
4.37886e-05
-9.18225e-11
0.000722718
4.37879e-05
-1.08375e-09
0.000722715
4.37885e-05
0.000722715
4.37945e-05
1.31789e-09
0.000703433
4.71238e-05
1.59475e-10
0.000703435
4.71182e-05
-1.21967e-10
0.000703438
4.71175e-05
-1.29974e-09
0.000703434
4.71182e-05
0.000703432
4.71239e-05
1.54129e-09
0.000682728
5.0448e-05
1.94174e-10
0.000682732
5.0443e-05
-1.57386e-10
0.000682736
5.04424e-05
-1.52013e-09
0.000682731
5.04432e-05
0.000682728
5.04483e-05
1.75943e-09
0.000660609
5.37303e-05
2.25264e-10
0.000660614
5.3726e-05
-1.95236e-10
0.000660619
5.37254e-05
-1.73984e-09
0.000660613
5.37261e-05
0.000660608
5.37305e-05
1.97077e-09
0.000637101
5.69285e-05
2.54893e-10
0.000637108
5.6925e-05
-2.31495e-10
0.000637113
5.69244e-05
-1.95379e-09
0.000637107
5.69251e-05
0.0006371
5.69286e-05
2.17356e-09
0.000612245
6.00116e-05
2.83226e-10
0.000612253
6.0009e-05
-2.63429e-10
0.000612258
6.00084e-05
-2.15767e-09
0.000612252
6.0009e-05
0.000612244
6.00116e-05
2.36472e-09
0.000586099
6.2939e-05
3.09434e-10
0.000586108
6.29374e-05
-2.89909e-10
0.000586113
6.29369e-05
-2.34804e-09
0.000586107
6.29374e-05
0.000586098
6.2939e-05
2.54186e-09
0.000558737
6.56767e-05
3.32972e-10
0.000558747
6.56762e-05
-3.1087e-10
0.000558752
6.56758e-05
-2.5233e-09
0.000558746
6.56762e-05
0.000558736
6.56768e-05
2.70424e-09
0.000530247
6.81966e-05
3.53618e-10
0.000530258
6.8197e-05
-3.26719e-10
0.000530264
6.81968e-05
-2.68339e-09
0.000530258
6.81971e-05
0.000530247
6.81967e-05
2.85174e-09
0.000500733
7.04683e-05
3.70847e-10
0.000500744
7.04696e-05
-3.37849e-10
0.00050075
7.04694e-05
-2.82853e-09
0.000500744
7.04696e-05
0.000500732
7.04684e-05
2.98422e-09
0.000470306
7.24728e-05
3.83575e-10
0.000470318
7.24749e-05
-3.44259e-10
0.000470323
7.24748e-05
-2.95874e-09
0.000470317
7.24749e-05
0.000470306
7.24729e-05
3.10076e-09
0.000439088
7.41953e-05
3.90173e-10
0.0004391
7.41979e-05
-3.45247e-10
0.000439105
7.41979e-05
-3.07331e-09
0.000439099
7.41979e-05
0.000439087
7.41952e-05
3.19983e-09
0.000407207
7.56216e-05
3.89151e-10
0.000407218
7.56247e-05
-3.39495e-10
0.000407223
7.56247e-05
-3.17083e-09
0.000407218
7.56246e-05
0.000407206
7.56215e-05
3.27503e-09
0.000374792
7.67535e-05
3.81071e-10
0.000374804
7.67571e-05
-3.26407e-10
0.000374808
7.67571e-05
-3.24479e-09
0.000374803
7.67569e-05
0.000374792
7.67533e-05
3.30278e-09
7.75896e-05
0.000341975
3.68152e-10
7.75938e-05
0.000341984
-3.06511e-10
7.75937e-05
0.000341988
-3.27113e-09
7.75934e-05
0.000341984
7.7589e-05
0.000341974
1.2751e-10
0.000901112
5.13236e-07
1.59902e-11
0.000901111
5.11979e-07
-2.94671e-11
0.000901112
5.11391e-07
-1.30126e-10
0.00090111
5.1204e-07
0.000901111
5.13401e-07
-3.43739e-10
0.000900837
1.01401e-06
-1.69288e-11
0.000900835
1.01351e-06
8.87634e-12
0.000900837
1.01319e-06
3.38903e-10
0.000900834
1.01355e-06
0.000900836
1.0141e-06
-1.53071e-10
0.000900336
1.86832e-06
-8.23576e-11
0.000900334
1.86779e-06
7.59938e-11
0.000900335
1.86757e-06
1.52163e-10
0.000900333
1.86762e-06
0.000900336
1.8681e-06
-2.22996e-10
0.000899569
2.87312e-06
-1.5044e-10
0.000899566
2.87238e-06
1.24883e-10
0.000899567
2.87232e-06
2.18341e-10
0.000899565
2.8722e-06
0.000899568
2.87284e-06
-3.16825e-10
0.00089851
3.95346e-06
-1.74485e-10
0.000898506
3.95256e-06
1.41128e-10
0.000898507
3.9527e-06
3.04657e-10
0.000898505
3.95258e-06
0.000898509
3.95343e-06
-3.42387e-10
0.000897138
5.1037e-06
-1.8132e-10
0.000897133
5.10269e-06
1.65474e-10
0.000897134
5.10295e-06
3.27692e-10
0.000897133
5.10276e-06
0.000897137
5.10375e-06
-3.68079e-10
0.000895427
6.3449e-06
-1.91252e-10
0.000895421
6.34375e-06
1.91897e-10
0.000895422
6.34408e-06
3.5764e-10
0.000895421
6.3438e-06
0.000895426
6.34493e-06
-3.99987e-10
0.000893345
7.69903e-06
-2.11444e-10
0.000893339
7.69771e-06
1.97326e-10
0.00089334
7.69808e-06
3.90786e-10
0.000893339
7.69774e-06
0.000893345
7.69904e-06
-4.26414e-10
0.000890855
9.19e-06
-2.32696e-10
0.000890848
9.18849e-06
1.94711e-10
0.000890848
9.18888e-06
4.08466e-10
0.000890848
9.1885e-06
0.000890854
9.18997e-06
-4.44856e-10
0.000887912
1.08354e-05
-2.40881e-10
0.000887905
1.08337e-05
2.04476e-10
0.000887905
1.08341e-05
4.20759e-10
0.000887905
1.08337e-05
0.000887912
1.08354e-05
-4.61863e-10
0.000884468
1.26557e-05
-2.52987e-10
0.00088446
1.26537e-05
2.07423e-10
0.00088446
1.2654e-05
4.39357e-10
0.00088446
1.26536e-05
0.000884467
1.26556e-05
-4.83612e-10
0.000880466
1.46713e-05
-2.73074e-10
0.000880458
1.46689e-05
2.03117e-10
0.000880457
1.46692e-05
4.5729e-10
0.000880457
1.46689e-05
0.000880465
1.46713e-05
-4.9963e-10
0.000875848
1.68894e-05
-2.78069e-10
0.000875839
1.68866e-05
2.15673e-10
0.000875838
1.68868e-05
4.69329e-10
0.000875839
1.68866e-05
0.000875847
1.68895e-05
-5.03446e-10
0.000870545
1.93409e-05
-2.72679e-10
0.000870536
1.93376e-05
2.29983e-10
0.000870536
1.93376e-05
4.79191e-10
0.000870536
1.93375e-05
0.000870545
1.93409e-05
-5.01151e-10
0.000864492
2.20151e-05
-2.70492e-10
0.000864483
2.20112e-05
2.29718e-10
0.000864482
2.20111e-05
4.82493e-10
0.000864482
2.2011e-05
0.000864492
2.2015e-05
-4.89703e-10
0.000857614
2.49361e-05
-2.65516e-10
0.000857605
2.49315e-05
2.30994e-10
0.000857604
2.49313e-05
4.72913e-10
0.000857604
2.49314e-05
0.000857614
2.49359e-05
-4.63038e-10
0.000849836
2.8106e-05
-2.55133e-10
0.000849826
2.81008e-05
2.34794e-10
0.000849825
2.81005e-05
4.51545e-10
0.000849825
2.81008e-05
0.000849835
2.8106e-05
-4.29325e-10
0.00084108
3.15195e-05
-2.44826e-10
0.00084107
3.15137e-05
2.26992e-10
0.00084107
3.15132e-05
4.22969e-10
0.00084107
3.15137e-05
0.000841079
3.15195e-05
-3.90326e-10
0.000831266
3.51875e-05
-2.32587e-10
0.000831257
3.51811e-05
2.12393e-10
0.000831257
3.51805e-05
3.84917e-10
0.000831257
3.51811e-05
0.000831266
3.51875e-05
-3.3569e-10
0.00082032
3.90811e-05
-2.14414e-10
0.000820311
3.90743e-05
2.00613e-10
0.000820312
3.90735e-05
3.31961e-10
0.000820311
3.90744e-05
0.000820319
3.90812e-05
-2.64681e-10
0.000808164
4.32047e-05
-1.9374e-10
0.000808156
4.31975e-05
1.88005e-10
0.000808157
4.31966e-05
2.64859e-10
0.000808155
4.31976e-05
0.000808163
4.32049e-05
-1.84365e-10
0.000794726
4.75317e-05
-1.70868e-10
0.000794719
4.75242e-05
1.69576e-10
0.00079472
4.75231e-05
1.86532e-10
0.000794719
4.75243e-05
0.000794725
4.75318e-05
-9.47105e-11
0.000779942
5.20337e-05
-1.39104e-10
0.000779936
5.20261e-05
1.48529e-10
0.000779938
5.20247e-05
9.78833e-11
0.000779936
5.2026e-05
0.000779941
5.20336e-05
9.37859e-12
0.000763753
5.66806e-05
-9.22566e-11
0.000763749
5.6673e-05
1.27545e-10
0.000763751
5.66715e-05
-1.59604e-12
0.000763749
5.66729e-05
0.000763752
5.66804e-05
1.24374e-10
0.000746113
6.1435e-05
-4.87915e-11
0.00074611
6.14278e-05
9.87253e-11
0.000746113
6.14262e-05
-1.09416e-10
0.00074611
6.14277e-05
0.000746112
6.14349e-05
2.40796e-10
0.000726986
6.62507e-05
-2.45125e-11
0.000726985
6.6244e-05
7.00676e-11
0.000726988
6.62423e-05
-2.18793e-10
0.000726984
6.6244e-05
0.000726985
6.62507e-05
3.48991e-10
0.00070635
7.1083e-05
-6.72571e-12
0.000706351
7.1077e-05
4.77841e-11
0.000706355
7.10753e-05
-3.26169e-10
0.000706351
7.10771e-05
0.00070635
7.10831e-05
4.47363e-10
0.000684202
7.58785e-05
9.15638e-12
0.000684204
7.58735e-05
2.52778e-11
0.000684209
7.58718e-05
-4.27515e-10
0.000684204
7.58736e-05
0.000684201
7.58787e-05
5.3792e-10
0.000660554
8.05761e-05
2.60138e-11
0.000660558
8.05721e-05
6.39579e-12
0.000660562
8.05706e-05
-5.20454e-10
0.000660557
8.05722e-05
0.000660553
8.05762e-05
6.21684e-10
0.000635436
8.51286e-05
4.3361e-11
0.000635441
8.51259e-05
-6.79485e-12
0.000635447
8.51244e-05
-6.03545e-10
0.000635441
8.51259e-05
0.000635435
8.51286e-05
6.97448e-10
0.0006089
8.94745e-05
5.91218e-11
0.000608906
8.94732e-05
-1.44166e-11
0.000608912
8.94719e-05
-6.75782e-10
0.000608906
8.94732e-05
0.000608899
8.94745e-05
7.63147e-10
0.000581015
9.35609e-05
7.19452e-11
0.000581022
9.35609e-05
-1.77205e-11
0.000581028
9.35598e-05
-7.36788e-10
0.000581022
9.35609e-05
0.000581014
9.35609e-05
8.17371e-10
0.000551868
9.73422e-05
8.13684e-11
0.000551876
9.73436e-05
-1.79755e-11
0.000551882
9.73427e-05
-7.86596e-10
0.000551876
9.73436e-05
0.000551868
9.73423e-05
8.59264e-10
0.000521566
0.00010077
8.73574e-11
0.000521574
0.000100773
-1.60879e-11
0.000521579
0.000100772
-8.2492e-10
0.000521574
0.000100773
0.000521565
0.00010077
8.87981e-10
0.000490225
0.000103813
8.98279e-11
0.000490233
0.000103816
-1.16061e-11
0.000490238
0.000103816
-8.51193e-10
0.000490233
0.000103816
0.000490224
0.000103813
9.03051e-10
0.000457976
0.000106443
8.88604e-11
0.000457984
0.000106448
-4.08454e-12
0.000457989
0.000106447
-8.64479e-10
0.000457984
0.000106448
0.000457976
0.000106443
9.06188e-10
0.000424959
0.000108637
8.49996e-11
0.000424967
0.000108643
7.88104e-12
0.000424972
0.000108642
-8.66014e-10
0.000424967
0.000108643
0.000424959
0.000108637
9.02885e-10
0.000391317
0.000110395
8.04235e-11
0.000391325
0.0001104
2.46672e-11
0.000391328
0.0001104
-8.60443e-10
0.000391325
0.0001104
0.000391317
0.000110395
8.93812e-10
0.000111711
0.000357195
7.66685e-11
0.000111717
0.000357203
4.66449e-11
0.000111716
0.000357206
-8.47231e-10
0.000111716
0.000357202
0.000111711
0.000357194
1.01245e-10
0.000904531
6.37996e-07
1.77948e-11
0.00090453
6.36834e-07
-3.29715e-11
0.000904532
6.36337e-07
-1.04638e-10
0.000904529
6.36737e-07
0.00090453
6.37801e-07
-3.19148e-10
0.000904286
1.25922e-06
-1.37616e-11
0.000904284
1.25916e-06
7.47611e-12
0.000904286
1.25899e-06
3.14751e-10
0.000904284
1.25906e-06
0.000904285
1.25908e-06
-1.53312e-10
0.000903839
2.315e-06
-7.48823e-11
0.000903837
2.31472e-06
7.05641e-11
0.000903839
2.31468e-06
1.49845e-10
0.000903836
2.31457e-06
0.000903839
2.31477e-06
-2.35509e-10
0.000903154
3.55837e-06
-1.32729e-10
0.000903151
3.55778e-06
1.18195e-10
0.000903153
3.55786e-06
2.28888e-10
0.000903151
3.55761e-06
0.000903153
3.55808e-06
-3.25772e-10
0.000902209
4.89923e-06
-1.49324e-10
0.000902205
4.89847e-06
1.28291e-10
0.000902206
4.89872e-06
3.14288e-10
0.000902205
4.89843e-06
0.000902208
4.89911e-06
-3.49001e-10
0.000900983
6.32967e-06
-1.60811e-10
0.000900979
6.32877e-06
1.4935e-10
0.00090098
6.32916e-06
3.3694e-10
0.000900979
6.3288e-06
0.000900983
6.32968e-06
-3.81979e-10
0.000899453
7.87522e-06
-1.7586e-10
0.000899448
7.87414e-06
1.71926e-10
0.000899449
7.87461e-06
3.72553e-10
0.000899448
7.87418e-06
0.000899453
7.87525e-06
-4.29445e-10
0.000897589
9.56339e-06
-1.97047e-10
0.000897584
9.5621e-06
1.73503e-10
0.000897584
9.56263e-06
4.18054e-10
0.000897583
9.56212e-06
0.000897589
9.56339e-06
-4.75332e-10
0.000895355
1.14244e-05
-2.16675e-10
0.000895349
1.14228e-05
1.68627e-10
0.000895349
1.14234e-05
4.54959e-10
0.000895349
1.14228e-05
0.000895355
1.14243e-05
-5.16308e-10
0.00089271
1.34808e-05
-2.19487e-10
0.000892704
1.34789e-05
1.76935e-10
0.000892703
1.34795e-05
4.90965e-10
0.000892703
1.3479e-05
0.00089271
1.34808e-05
-5.55668e-10
0.000889608
1.57591e-05
-2.22764e-10
0.0008896
1.57569e-05
1.6592e-10
0.0008896
1.57574e-05
5.31896e-10
0.0008896
1.57569e-05
0.000889607
1.57591e-05
-5.94972e-10
0.000885993
1.82863e-05
-2.30603e-10
0.000885985
1.82837e-05
1.41004e-10
0.000885984
1.82841e-05
5.6771e-10
0.000885984
1.82836e-05
0.000885992
1.82863e-05
-6.21353e-10
0.00088181
2.10728e-05
-2.15167e-10
0.000881801
2.10696e-05
1.55694e-10
0.000881801
2.107e-05
5.92403e-10
0.000881801
2.10695e-05
0.00088181
2.10728e-05
-6.31719e-10
0.000876993
2.41592e-05
-1.86719e-10
0.000876983
2.41553e-05
1.60541e-10
0.000876982
2.41556e-05
6.12452e-10
0.000876983
2.41553e-05
0.000876992
2.41591e-05
-6.40321e-10
0.000871474
2.75345e-05
-1.72648e-10
0.000871464
2.75299e-05
1.42699e-10
0.000871463
2.753e-05
6.2701e-10
0.000871464
2.75298e-05
0.000871473
2.75344e-05
-6.47342e-10
0.000865179
3.12313e-05
-1.60431e-10
0.000865169
3.12259e-05
1.30239e-10
0.000865168
3.12259e-05
6.32212e-10
0.000865169
3.12258e-05
0.000865179
3.12312e-05
-6.4265e-10
0.000858031
3.52551e-05
-1.44825e-10
0.00085802
3.5249e-05
1.23657e-10
0.00085802
3.52488e-05
6.30005e-10
0.00085802
3.52489e-05
0.00085803
3.52551e-05
-6.32248e-10
0.000849949
3.96024e-05
-1.31151e-10
0.000849938
3.95955e-05
1.12973e-10
0.000849938
3.95952e-05
6.24525e-10
0.000849938
3.95955e-05
0.000849948
3.96024e-05