/*--------------------------------*- C++ -*----------------------------------*\
  =========                 |
  \\      /  F ield         | OpenFOAM: The Open Source CFD Toolbox
   \\    /   O peration     | Website:  https://openfoam.org
    \\  /    A nd           | Version:  9
     \\/     M anipulation  |
\*---------------------------------------------------------------------------*/
FoamFile
{
    format      ascii;
    class       volVectorField;
    location    "0.2";
    object      U;
}
// * * * * * * * * * * * * * * * * * * * * * * * * * * * * * * * * * * * * * //

dimensions      [0 1 -1 0 0 0 0];

internalField   nonuniform List<vector> 
4545
(
(1.47112e-05 -0.206187 -0.969527)
(1.44186e-05 -0.206184 1.52053e-08)
(1.44353e-05 -0.206184 7.85813e-09)
(1.48761e-05 -0.206185 -3.23368e-09)
(1.55226e-05 -0.206188 0.969527)
(2.75261e-05 -0.206118 -0.960282)
(2.68207e-05 -0.206116 -6.14027e-08)
(2.65964e-05 -0.206116 3.62257e-09)
(2.68573e-05 -0.206116 6.94594e-08)
(2.76195e-05 -0.206118 0.960282)
(5.43349e-05 -0.20601 -0.958904)
(5.35161e-05 -0.206009 -5.13611e-08)
(5.31719e-05 -0.206009 -2.09857e-09)
(5.32482e-05 -0.206009 5.05028e-08)
(5.39255e-05 -0.20601 0.958904)
(8.51977e-05 -0.205824 -0.957529)
(8.4141e-05 -0.205823 -6.08553e-08)
(8.384e-05 -0.205823 -4.74728e-09)
(8.39697e-05 -0.205823 5.50664e-08)
(8.49461e-05 -0.205824 0.957529)
(0.000116943 -0.205554 -0.956164)
(0.00011553 -0.205553 -7.52103e-08)
(0.000115281 -0.205553 -4.54694e-09)
(0.000115562 -0.205553 6.91487e-08)
(0.000116965 -0.205554 0.956164)
(0.00015129 -0.205198 -0.9548)
(0.000149541 -0.205197 -8.34457e-08)
(0.000149266 -0.205197 -3.43998e-09)
(0.000149653 -0.205197 7.83277e-08)
(0.000151451 -0.205198 0.9548)
(0.000189867 -0.204751 -0.95344)
(0.000187691 -0.204751 -8.90874e-08)
(0.000187312 -0.204751 -2.57423e-09)
(0.000187729 -0.204751 8.44098e-08)
(0.000189937 -0.204751 0.95344)
(0.000233339 -0.204206 -0.952085)
(0.000230613 -0.204205 -9.23968e-08)
(0.00023012 -0.204205 -2.52801e-09)
(0.000230569 -0.204205 8.73973e-08)
(0.000233239 -0.204205 0.952085)
(0.000282279 -0.203551 -0.950736)
(0.000279092 -0.203551 -9.19438e-08)
(0.000278554 -0.203551 -2.37147e-09)
(0.000279101 -0.203551 8.64548e-08)
(0.000282307 -0.203551 0.950736)
(0.00033792 -0.202778 -0.949388)
(0.000334193 -0.202777 -8.81978e-08)
(0.000333615 -0.202777 -2.26338e-09)
(0.000334263 -0.202777 8.25476e-08)
(0.00033805 -0.202778 0.949388)
(0.000401129 -0.201872 -0.948041)
(0.000396682 -0.201872 -8.55224e-08)
(0.000395961 -0.201872 -4.56556e-09)
(0.000396647 -0.201872 7.73133e-08)
(0.000401057 -0.201872 0.948041)
(0.000472344 -0.200821 -0.946701)
(0.000467138 -0.20082 -8.5162e-08)
(0.000466269 -0.20082 -7.26892e-09)
(0.000467062 -0.20082 7.33269e-08)
(0.00047224 -0.20082 0.946701)
(0.00055244 -0.199609 -0.945356)
(0.000546434 -0.199608 -8.41243e-08)
(0.000545506 -0.199608 -7.59522e-09)
(0.000546514 -0.199608 7.16291e-08)
(0.000552596 -0.199608 0.945356)
(0.000642345 -0.19822 -0.944025)
(0.000635389 -0.19822 -8.29871e-08)
(0.00063433 -0.19822 -8.47938e-09)
(0.000635466 -0.19822 6.98256e-08)
(0.000642476 -0.19822 0.944025)
(0.000742415 -0.19664 -0.942686)
(0.000734346 -0.19664 -8.17242e-08)
(0.000733029 -0.19664 -1.00847e-08)
(0.000734218 -0.19664 6.64544e-08)
(0.000742221 -0.19664 0.942686)
(0.000853021 -0.19485 -0.941351)
(0.000843773 -0.19485 -7.47983e-08)
(0.000842255 -0.19485 -8.06718e-09)
(0.000843626 -0.19485 6.14653e-08)
(0.000852798 -0.19485 0.941351)
(0.000974936 -0.192835 -0.94002)
(0.00096446 -0.192835 -5.89753e-08)
(0.000962829 -0.192835 -3.12435e-09)
(0.000964476 -0.192835 5.22369e-08)
(0.000974966 -0.192835 0.94002)
(0.00110847 -0.190577 -0.938686)
(0.00109663 -0.190578 -3.66204e-08)
(0.00109482 -0.190578 5.46804e-10)
(0.00109668 -0.190578 3.56246e-08)
(0.00110856 -0.190577 0.938686)
(0.00125328 -0.188061 -0.937359)
(0.00123991 -0.188062 -8.77372e-09)
(0.00123785 -0.188062 2.63551e-09)
(0.0012399 -0.188062 1.10403e-08)
(0.00125325 -0.188061 0.937359)
(0.00140904 -0.185271 -0.936026)
(0.0013941 -0.185272 2.63917e-08)
(0.00139182 -0.185272 4.49163e-09)
(0.00139413 -0.185272 -2.16214e-08)
(0.00140907 -0.18527 0.936026)
(0.00157566 -0.182194 -0.934696)
(0.00155909 -0.182195 6.63408e-08)
(0.00155661 -0.182196 4.48315e-09)
(0.0015592 -0.182195 -6.07762e-08)
(0.00157583 -0.182194 0.934696)
(0.00175259 -0.178818 -0.933367)
(0.00173427 -0.17882 1.08212e-07)
(0.0017315 -0.17882 1.76381e-09)
(0.00173433 -0.17882 -1.05453e-07)
(0.0017527 -0.178818 0.933367)
(0.00193858 -0.175133 -0.932035)
(0.00191836 -0.175136 1.52245e-07)
(0.00191523 -0.175136 -1.57118e-09)
(0.00191827 -0.175135 -1.53722e-07)
(0.00193845 -0.175133 0.932035)
(0.00213214 -0.171133 -0.9307)
(0.00210995 -0.171136 2.01244e-07)
(0.0021065 -0.171136 -2.55072e-09)
(0.00210979 -0.171136 -2.04179e-07)
(0.00213188 -0.171133 0.9307)
(0.00233193 -0.166813 -0.929363)
(0.0023078 -0.166816 2.56899e-07)
(0.00230408 -0.166817 -6.90618e-10)
(0.00230773 -0.166816 -2.5718e-07)
(0.0023318 -0.166813 0.929363)
(0.00253659 -0.162173 -0.92802)
(0.00251052 -0.162176 3.1825e-07)
(0.00250656 -0.162177 2.09537e-09)
(0.00251057 -0.162176 -3.14126e-07)
(0.00253667 -0.162173 0.92802)
(0.00274433 -0.157214 -0.926672)
(0.00271629 -0.157218 3.83111e-07)
(0.00271206 -0.157219 3.80533e-09)
(0.00271639 -0.157218 -3.75873e-07)
(0.0027445 -0.157214 0.926672)
(0.00295301 -0.151943 -0.925317)
(0.00292297 -0.151947 4.49675e-07)
(0.00291842 -0.151948 3.76835e-09)
(0.00292302 -0.151947 -4.41847e-07)
(0.0029531 -0.151943 0.925317)
(0.00316037 -0.14637 -0.923951)
(0.00312834 -0.146374 5.16708e-07)
(0.00312345 -0.146375 2.4261e-09)
(0.00312832 -0.146374 -5.10223e-07)
(0.00316035 -0.14637 0.923951)
(0.00336433 -0.140507 -0.922574)
(0.00333036 -0.140512 5.83134e-07)
(0.00332516 -0.140513 5.45223e-10)
(0.00333031 -0.140511 -5.78744e-07)
(0.00336426 -0.140507 0.922574)
(0.003563 -0.134372 -0.921184)
(0.00352718 -0.134376 6.47879e-07)
(0.00352172 -0.134378 -1.28087e-09)
(0.00352716 -0.134376 -6.45503e-07)
(0.00356297 -0.134372 0.921184)
(0.00375459 -0.127984 -0.919777)
(0.00371702 -0.127988 7.10031e-07)
(0.00371132 -0.12799 -2.77557e-09)
(0.00371705 -0.127988 -7.09312e-07)
(0.00375464 -0.127984 0.919777)
(0.00393738 -0.121364 -0.918353)
(0.00389815 -0.121368 7.68936e-07)
(0.00389221 -0.12137 -3.98362e-09)
(0.0038982 -0.121368 -7.6966e-07)
(0.00393748 -0.121364 0.918353)
(0.00410972 -0.114537 -0.916906)
(0.00406893 -0.114541 8.24026e-07)
(0.00406275 -0.114543 -5.20958e-09)
(0.00406897 -0.114541 -8.26339e-07)
(0.00410981 -0.114537 0.916906)
(0.00427014 -0.107529 -0.915435)
(0.00422792 -0.107533 8.74621e-07)
(0.00422152 -0.107534 -6.88451e-09)
(0.00422793 -0.107533 -8.79085e-07)
(0.00427018 -0.107529 0.915435)
(0.00441744 -0.100367 -0.913937)
(0.00437395 -0.100371 9.2009e-07)
(0.00436735 -0.100372 -9.42247e-09)
(0.00437394 -0.10037 -9.2767e-07)
(0.00441744 -0.100366 0.913938)
(0.00455066 -0.0930785 -0.912409)
(0.00450613 -0.0930821 9.59785e-07)
(0.00449936 -0.0930834 -1.30491e-08)
(0.0045061 -0.093082 -9.71794e-07)
(0.00455064 -0.0930783 0.912409)
(0.00466877 -0.0856929 -0.910848)
(0.00462355 -0.0856962 9.89899e-07)
(0.00461665 -0.0856973 -1.76435e-08)
(0.00462349 -0.0856961 -1.00794e-06)
(0.00466872 -0.0856928 0.910848)
(0.00477025 -0.0782363 -0.908066)
(0.00472479 -0.0782391 1.00242e-06)
(0.00471779 -0.0782401 -2.38547e-08)
(0.00472466 -0.0782391 -1.02881e-06)
(0.00477008 -0.0782362 0.908066)
(5.91895e-05 -0.375983 -0.978952)
(5.87717e-05 -0.37598 1.35787e-08)
(5.87518e-05 -0.37598 1.47126e-09)
(5.94846e-05 -0.37598 -1.04303e-08)
(6.04399e-05 -0.375983 0.978952)
(0.000116606 -0.375869 -0.967015)
(0.000115903 -0.375867 -7.91699e-08)
(0.000115626 -0.375867 1.58986e-09)
(0.000116144 -0.375867 8.24058e-08)
(0.000117068 -0.375869 0.967015)
(0.000225313 -0.375687 -0.965628)
(0.000224756 -0.375687 -7.39275e-08)
(0.000224385 -0.375687 -1.51639e-10)
(0.00022456 -0.375687 7.49949e-08)
(0.000225004 -0.375687 0.965628)
(0.000355804 -0.37538 -0.964241)
(0.000355261 -0.375379 -1.05753e-07)
(0.000355012 -0.375379 -3.78566e-09)
(0.000355124 -0.375379 1.01849e-07)
(0.000355573 -0.375379 0.964241)
(0.000496475 -0.37493 -0.962866)
(0.000495908 -0.374929 -1.41855e-07)
(0.000495803 -0.37493 -5.20096e-09)
(0.000496001 -0.374929 1.34769e-07)
(0.000496635 -0.37493 0.962866)
(0.000650139 -0.374335 -0.961492)
(0.000649469 -0.374334 -1.67715e-07)
(0.000649382 -0.374334 -4.28438e-09)
(0.00064961 -0.374334 1.61317e-07)
(0.000650331 -0.374335 0.961492)
(0.000821208 -0.373584 -0.960122)
(0.000820388 -0.373583 -1.93569e-07)
(0.000820242 -0.373583 -2.34792e-09)
(0.000820412 -0.373583 1.88927e-07)
(0.000821209 -0.373584 0.960122)
(0.00101326 -0.372664 -0.958756)
(0.0010123 -0.372663 -2.2093e-07)
(0.00101211 -0.372663 -1.88241e-09)
(0.00101224 -0.372663 2.16319e-07)
(0.00101316 -0.372664 0.958756)
(0.00123024 -0.371558 -0.957398)
(0.00122918 -0.371557 -2.47311e-07)
(0.00122902 -0.371557 -3.0154e-09)
(0.00122918 -0.371557 2.41369e-07)
(0.00123026 -0.371558 0.957398)
(0.00147644 -0.370249 -0.956039)
(0.00147525 -0.370247 -2.74317e-07)
(0.00147514 -0.370247 -3.58626e-09)
(0.00147531 -0.370247 2.67304e-07)
(0.00147652 -0.370248 0.956039)
(0.00175566 -0.368714 -0.954683)
(0.00175425 -0.368712 -3.05664e-07)
(0.00175406 -0.368712 -5.42529e-09)
(0.00175415 -0.368712 2.96199e-07)
(0.00175549 -0.368714 0.954683)
(0.0020714 -0.36693 -0.953333)
(0.00206974 -0.366929 -3.42762e-07)
(0.00206948 -0.366928 -8.76335e-09)
(0.00206961 -0.366928 3.29271e-07)
(0.00207122 -0.36693 0.953333)
(0.00242757 -0.364872 -0.951979)
(0.00242567 -0.36487 -3.83482e-07)
(0.0024255 -0.36487 -9.54964e-09)
(0.00242579 -0.36487 3.68763e-07)
(0.00242779 -0.364872 0.951979)
(0.00282801 -0.362513 -0.950639)
(0.00282579 -0.362511 -4.27784e-07)
(0.0028256 -0.36251 -9.51634e-09)
(0.00282591 -0.362511 4.13418e-07)
(0.0028282 -0.362513 0.950639)
(0.00327566 -0.359822 -0.949292)
(0.00327299 -0.35982 -4.75672e-07)
(0.00327261 -0.35982 -9.93798e-09)
(0.00327279 -0.35982 4.60787e-07)
(0.00327535 -0.359822 0.949292)
(0.00377326 -0.356772 -0.947948)
(0.00377014 -0.35677 -5.22519e-07)
(0.00376967 -0.356769 -7.1589e-09)
(0.00376991 -0.356769 5.1047e-07)
(0.0037729 -0.356771 0.947948)
(0.00432396 -0.353331 -0.946609)
(0.00432046 -0.353328 -5.65997e-07)
(0.00432005 -0.353328 -2.16995e-09)
(0.00432049 -0.353328 5.60645e-07)
(0.00432401 -0.35333 0.946609)
(0.00492981 -0.349469 -0.945267)
(0.00492584 -0.349467 -6.09095e-07)
(0.00492542 -0.349466 7.24222e-10)
(0.00492593 -0.349467 6.08615e-07)
(0.00492994 -0.349469 0.945267)
(0.00559134 -0.345156 -0.943933)
(0.00558682 -0.345154 -6.52324e-07)
(0.00558629 -0.345154 1.95478e-09)
(0.00558681 -0.345154 6.53847e-07)
(0.00559129 -0.345156 0.943933)
(0.00630865 -0.340363 -0.942593)
(0.00630364 -0.340361 -6.93469e-07)
(0.00630307 -0.340361 3.26519e-09)
(0.00630369 -0.340361 6.96799e-07)
(0.0063087 -0.340363 0.942593)
(0.00708158 -0.335064 -0.941256)
(0.00707613 -0.335062 -7.34222e-07)
(0.00707558 -0.335062 2.9723e-09)
(0.00707632 -0.335062 7.38055e-07)
(0.00708187 -0.335064 0.941256)
(0.00790867 -0.329234 -0.939921)
(0.0079027 -0.329232 -7.77194e-07)
(0.00790207 -0.329232 2.07741e-10)
(0.00790281 -0.329232 7.7826e-07)
(0.00790886 -0.329234 0.939921)
(0.0087864 -0.322851 -0.938583)
(0.00877981 -0.32285 -8.20738e-07)
(0.00877898 -0.32285 -2.16146e-09)
(0.00877966 -0.322849 8.18584e-07)
(0.00878619 -0.322851 0.938583)
(0.00971006 -0.315899 -0.937243)
(0.00970285 -0.315897 -8.60714e-07)
(0.00970188 -0.315898 -1.27059e-09)
(0.00970257 -0.315897 8.59245e-07)
(0.00970962 -0.315898 0.937243)
(0.0106744 -0.308364 -0.9359)
(0.0106667 -0.308363 -8.95482e-07)
(0.0106657 -0.308363 2.16752e-09)
(0.0106665 -0.308363 8.98748e-07)
(0.0106742 -0.308363 0.9359)
(0.0116733 -0.30024 -0.934552)
(0.0116652 -0.300239 -9.26597e-07)
(0.0116643 -0.30024 5.33823e-09)
(0.0116653 -0.300239 9.34998e-07)
(0.0116735 -0.30024 0.934552)
(0.0126993 -0.291526 -0.9332)
(0.0126908 -0.291526 -9.55873e-07)
(0.01269 -0.291527 6.48222e-09)
(0.012691 -0.291526 9.66745e-07)
(0.0126996 -0.291526 0.9332)
(0.0137436 -0.282227 -0.93184)
(0.0137347 -0.282227 -9.83663e-07)
(0.0137338 -0.282228 5.71992e-09)
(0.0137348 -0.282226 9.94042e-07)
(0.0137438 -0.282226 0.93184)
(0.0147965 -0.272353 -0.930469)
(0.0147872 -0.272354 -1.00957e-06)
(0.0147861 -0.272355 3.98664e-09)
(0.0147871 -0.272353 1.01788e-06)
(0.0147965 -0.272353 0.930469)
(0.0158481 -0.261925 -0.929088)
(0.0158385 -0.261925 -1.03346e-06)
(0.0158374 -0.261927 2.07358e-09)
(0.0158384 -0.261925 1.03948e-06)
(0.015848 -0.261925 0.929088)
(0.0168888 -0.250966 -0.927692)
(0.0168789 -0.250966 -1.05546e-06)
(0.0168778 -0.250968 4.62062e-10)
(0.0168788 -0.250966 1.05967e-06)
(0.0168888 -0.250965 0.927692)
(0.017909 -0.239507 -0.926279)
(0.0178989 -0.239508 -1.07542e-06)
(0.0178979 -0.239509 -5.53933e-10)
(0.0178989 -0.239507 1.0786e-06)
(0.0179091 -0.239506 0.926279)
(0.0188993 -0.227584 -0.924848)
(0.018889 -0.227586 -1.09282e-06)
(0.018888 -0.227587 -8.77728e-10)
(0.0188891 -0.227585 1.09576e-06)
(0.0188995 -0.227584 0.924848)
(0.0198508 -0.21524 -0.923393)
(0.0198404 -0.215242 -1.10701e-06)
(0.0198394 -0.215244 -6.69694e-10)
(0.0198404 -0.215242 1.11032e-06)
(0.019851 -0.21524 0.923393)
(0.0207556 -0.20252 -0.921914)
(0.020745 -0.202522 -1.1176e-06)
(0.020744 -0.202524 -2.92037e-10)
(0.020745 -0.202522 1.12152e-06)
(0.0207557 -0.20252 0.921914)
(0.0216068 -0.189472 -0.920407)
(0.0215961 -0.189474 -1.12472e-06)
(0.0215952 -0.189476 -1.94214e-10)
(0.0215961 -0.189474 1.12899e-06)
(0.0216068 -0.189472 0.920407)
(0.0223993 -0.176147 -0.918867)
(0.0223885 -0.17615 -1.1282e-06)
(0.0223875 -0.176151 -7.43985e-10)
(0.0223884 -0.17615 1.13214e-06)
(0.0223991 -0.176147 0.918867)
(0.0231289 -0.162595 -0.917294)
(0.0231182 -0.162598 -1.12281e-06)
(0.0231172 -0.1626 -1.89674e-09)
(0.023118 -0.162598 1.12562e-06)
(0.0231287 -0.162595 0.917294)
(0.0237935 -0.148869 -0.914614)
(0.0237828 -0.148874 -1.0977e-06)
(0.0237817 -0.148875 -3.71997e-09)
(0.0237825 -0.148873 1.09815e-06)
(0.0237931 -0.148869 0.914614)
(0.000120522 -0.419628 -0.979621)
(0.000120249 -0.419627 2.22658e-08)
(0.000120155 -0.419628 -2.61783e-09)
(0.000120658 -0.419626 -2.45049e-08)
(0.000121266 -0.419627 0.979621)
(0.000243493 -0.419507 -0.967028)
(0.000243375 -0.419506 -6.02476e-08)
(0.000243188 -0.419507 -1.04229e-09)
(0.00024355 -0.419506 5.90557e-08)
(0.000243834 -0.419506 0.967028)
(0.00046227 -0.419319 -0.96564)
(0.000462552 -0.41932 -3.82036e-08)
(0.000462388 -0.41932 -6.4026e-10)
(0.000462439 -0.41932 3.74183e-08)
(0.000462142 -0.419319 0.96564)
(0.00072716 -0.419003 -0.964254)
(0.000727719 -0.419003 -5.6023e-08)
(0.000727698 -0.419004 -3.95412e-09)
(0.000727613 -0.419003 5.15385e-08)
(0.000726976 -0.419003 0.964254)
(0.0010186 -0.41854 -0.962879)
(0.00101949 -0.41854 -7.54915e-08)
(0.00101963 -0.41854 -5.72872e-09)
(0.00101954 -0.41854 6.81068e-08)
(0.00101867 -0.41854 0.962879)
(0.00133872 -0.417925 -0.961504)
(0.00133991 -0.417924 -8.18101e-08)
(0.00134014 -0.417925 -3.68683e-09)
(0.00133999 -0.417924 7.55594e-08)
(0.00133878 -0.417924 0.961504)
(0.00169478 -0.417146 -0.960134)
(0.00169629 -0.417145 -8.63848e-08)
(0.00169656 -0.417146 -7.26367e-10)
(0.0016963 -0.417145 8.33677e-08)
(0.00169473 -0.417145 0.960134)
(0.00209457 -0.416189 -0.958769)
(0.00209652 -0.416188 -9.14657e-08)
(0.00209686 -0.416189 -1.25703e-09)
(0.00209652 -0.416188 8.8332e-08)
(0.00209459 -0.416189 0.958769)
(0.00254665 -0.415037 -0.95741)
(0.002549 -0.415037 -9.4831e-08)
(0.00254942 -0.415037 -4.04344e-09)
(0.00254902 -0.415036 8.79865e-08)
(0.00254668 -0.415037 0.95741)
(0.00305936 -0.413671 -0.956051)
(0.00306216 -0.41367 -9.48893e-08)
(0.00306266 -0.41367 -4.52815e-09)
(0.00306217 -0.41367 8.63804e-08)
(0.00305933 -0.41367 0.956051)
(0.00364079 -0.412066 -0.954694)
(0.0036441 -0.412066 -9.47416e-08)
(0.00364465 -0.412066 -6.07343e-09)
(0.00364403 -0.412066 8.4521e-08)
(0.00364069 -0.412066 0.954694)
(0.00429929 -0.410199 -0.953344)
(0.00430308 -0.410199 -9.64843e-08)
(0.00430369 -0.410199 -9.77996e-09)
(0.00430303 -0.410199 8.18861e-08)
(0.00429925 -0.410199 0.953344)
(0.00504307 -0.408042 -0.95199)
(0.00504738 -0.408041 -9.62111e-08)
(0.00504813 -0.408041 -1.02125e-08)
(0.00504746 -0.408041 8.04014e-08)
(0.00504321 -0.408041 0.95199)
(0.0058801 -0.405564 -0.950649)
(0.00588498 -0.405563 -9.26645e-08)
(0.00588578 -0.405563 -8.82101e-09)
(0.005885 -0.405563 7.87622e-08)
(0.00588013 -0.405564 0.950649)
(0.00681779 -0.402734 -0.949301)
(0.00682321 -0.402733 -8.68245e-08)
(0.006824 -0.402733 -8.2733e-09)
(0.00682305 -0.402733 7.39302e-08)
(0.00681753 -0.402733 0.949301)
(0.0078629 -0.399518 -0.947957)
(0.00786893 -0.399518 -7.5395e-08)
(0.00786979 -0.399518 -5.7758e-09)
(0.00786878 -0.399518 6.54113e-08)
(0.00786267 -0.399518 0.947957)
(0.00902204 -0.395883 -0.946617)
(0.00902877 -0.395883 -5.67346e-08)
(0.00902979 -0.395883 -2.07554e-09)
(0.00902878 -0.395883 5.20077e-08)
(0.00902205 -0.395883 0.946617)
(0.0103001 -0.391795 -0.945274)
(0.0103076 -0.391795 -3.36643e-08)
(0.0103087 -0.391795 -6.35634e-10)
(0.0103076 -0.391795 3.18294e-08)
(0.0103002 -0.391795 0.945274)
(0.0117003 -0.387218 -0.943939)
(0.0117085 -0.387218 -5.78465e-09)
(0.0117098 -0.387218 -3.43239e-10)
(0.0117086 -0.387218 4.63836e-09)
(0.0117003 -0.387217 0.943939)
(0.0132244 -0.382117 -0.942599)
(0.0132335 -0.382118 3.03735e-08)
(0.0132348 -0.382118 5.98167e-10)
(0.0132336 -0.382118 -3.00891e-08)
(0.0132244 -0.382117 0.942599)
(0.0148724 -0.376462 -0.941262)
(0.0148825 -0.376463 7.22767e-08)
(0.014884 -0.376463 5.47559e-10)
(0.0148826 -0.376463 -7.12344e-08)
(0.0148726 -0.376461 0.941262)
(0.0166422 -0.37022 -0.939926)
(0.0166533 -0.370222 1.17913e-07)
(0.0166549 -0.370223 -1.01198e-09)
(0.0166533 -0.370222 -1.18403e-07)
(0.0166423 -0.37022 0.939926)
(0.0185285 -0.363366 -0.938588)
(0.0185405 -0.363368 1.69275e-07)
(0.0185421 -0.363369 -1.16211e-09)
(0.0185404 -0.363368 -1.70393e-07)
(0.0185283 -0.363365 0.938588)
(0.0205233 -0.355874 -0.937248)
(0.0205363 -0.355877 2.29411e-07)
(0.020538 -0.355878 2.04005e-09)
(0.0205361 -0.355876 -2.26782e-07)
(0.0205229 -0.355873 0.937248)
(0.0226164 -0.347726 -0.935905)
(0.0226306 -0.347729 2.97525e-07)
(0.0226325 -0.34773 6.65479e-09)
(0.0226305 -0.347729 -2.88369e-07)
(0.0226162 -0.347725 0.935905)
(0.0247951 -0.338909 -0.934558)
(0.0248106 -0.338913 3.69724e-07)
(0.0248128 -0.338914 9.43624e-09)
(0.0248107 -0.338912 -3.55747e-07)
(0.0247952 -0.338908 0.934558)
(0.0270441 -0.329416 -0.933207)
(0.0270609 -0.329421 4.43007e-07)
(0.0270632 -0.329423 9.44011e-09)
(0.027061 -0.329421 -4.28171e-07)
(0.0270443 -0.329416 0.933207)
(0.0293452 -0.319248 -0.931848)
(0.0293633 -0.319253 5.16758e-07)
(0.0293658 -0.319255 7.85951e-09)
(0.0293634 -0.319253 -5.038e-07)
(0.0293454 -0.319248 0.931848)
(0.0316784 -0.308413 -0.930479)
(0.0316978 -0.308418 5.91116e-07)
(0.0317005 -0.30842 6.24664e-09)
(0.0316978 -0.308418 -5.80363e-07)
(0.0316784 -0.308412 0.930479)
(0.0340222 -0.296925 -0.9291)
(0.0340429 -0.296931 6.65545e-07)
(0.0340458 -0.296933 5.39105e-09)
(0.0340428 -0.29693 -6.55852e-07)
(0.0340221 -0.296924 0.9291)
(0.0363546 -0.284808 -0.927707)
(0.0363767 -0.284814 7.38924e-07)
(0.0363797 -0.284817 5.42312e-09)
(0.0363766 -0.284814 -7.28895e-07)
(0.0363546 -0.284808 0.927707)
(0.0386534 -0.272094 -0.926297)
(0.0386767 -0.272101 8.10279e-07)
(0.0386801 -0.272104 6.26183e-09)
(0.0386767 -0.272101 -7.98789e-07)
(0.0386534 -0.272094 0.926297)
(0.0408966 -0.258822 -0.924868)
(0.0409212 -0.258829 8.79094e-07)
(0.0409247 -0.258832 7.77323e-09)
(0.0409212 -0.258829 -8.65332e-07)
(0.0408967 -0.258822 0.924868)
(0.0430635 -0.245037 -0.923417)
(0.0430891 -0.245044 9.44997e-07)
(0.0430928 -0.245047 9.72678e-09)
(0.0430891 -0.245044 -9.28469e-07)
(0.0430635 -0.245037 0.923417)
(0.0451347 -0.230791 -0.92194)
(0.0451613 -0.230797 1.00733e-06)
(0.0451651 -0.2308 1.18207e-08)
(0.0451612 -0.230797 -9.87897e-07)
(0.0451347 -0.23079 0.92194)
(0.0470937 -0.216138 -0.920437)
(0.047121 -0.216144 1.06502e-06)
(0.047125 -0.216147 1.37774e-08)
(0.0471209 -0.216144 -1.04288e-06)
(0.0470935 -0.216138 0.920437)
(0.0489264 -0.201139 -0.9189)
(0.0489543 -0.201145 1.11684e-06)
(0.0489584 -0.201147 1.55328e-08)
(0.0489542 -0.201145 -1.09229e-06)
(0.0489262 -0.201138 0.9189)
(0.0506225 -0.185855 -0.917329)
(0.0506507 -0.185861 1.16045e-06)
(0.0506547 -0.185863 1.7441e-08)
(0.0506504 -0.185861 -1.13342e-06)
(0.0506221 -0.185855 0.917329)
(0.0521754 -0.17035 -0.914691)
(0.0522034 -0.170355 1.18846e-06)
(0.0522073 -0.170357 2.00605e-08)
(0.0522029 -0.170355 -1.15815e-06)
(0.0521747 -0.170349 0.914691)
(0.000180153 -0.428098 -0.979749)
(0.000179708 -0.428098 2.21263e-08)
(0.000179422 -0.428099 -2.97219e-09)
(0.000179706 -0.428097 -2.54972e-08)
(0.000180198 -0.428097 0.979749)
(0.0003631 -0.427983 -0.967028)
(0.000362939 -0.427983 -5.60888e-08)
(0.000362741 -0.427984 -1.25945e-09)
(0.000362949 -0.427983 5.40774e-08)
(0.000363109 -0.427983 0.967028)
(0.000683655 -0.427808 -0.96564)
(0.000683657 -0.427809 -3.44452e-08)
(0.000683496 -0.42781 -7.31208e-10)
(0.000683537 -0.427809 3.357e-08)
(0.000683488 -0.427808 0.96564)
(0.0010731 -0.427514 -0.964253)
(0.00107314 -0.427514 -5.47612e-08)
(0.00107303 -0.427514 -3.14777e-09)
(0.00107299 -0.427514 5.08604e-08)
(0.00107285 -0.427513 0.964253)
(0.00150512 -0.427082 -0.962877)
(0.0015052 -0.427081 -7.50956e-08)
(0.00150519 -0.427082 -4.32062e-09)
(0.00150516 -0.427081 6.87674e-08)
(0.00150498 -0.427081 0.962877)
(0.00198101 -0.426507 -0.961502)
(0.00198121 -0.426506 -8.18316e-08)
(0.00198128 -0.426507 -2.26129e-09)
(0.00198123 -0.426506 7.70972e-08)
(0.00198099 -0.426506 0.961502)
(0.00251078 -0.425778 -0.960131)
(0.00251108 -0.425778 -8.91479e-08)
(0.00251118 -0.425778 -9.60504e-11)
(0.00251112 -0.425778 8.72597e-08)
(0.00251083 -0.425778 0.960131)
(0.00310631 -0.424882 -0.958764)
(0.00310666 -0.424881 -9.94055e-08)
(0.00310677 -0.424882 -2.03086e-09)
(0.00310669 -0.424881 9.57637e-08)
(0.00310634 -0.424882 0.958764)
(0.00377993 -0.423801 -0.957403)
(0.00378034 -0.4238 -1.09208e-07)
(0.00378045 -0.423801 -5.46246e-09)
(0.00378034 -0.4238 1.00541e-07)
(0.00377991 -0.423801 0.957403)
(0.00454424 -0.422517 -0.956043)
(0.0045447 -0.422516 -1.16015e-07)
(0.00454481 -0.422516 -5.50106e-09)
(0.0045447 -0.422516 1.06124e-07)
(0.00454422 -0.422516 0.956043)
(0.00541182 -0.421006 -0.954684)
(0.00541228 -0.421006 -1.23315e-07)
(0.00541237 -0.421006 -6.84392e-09)
(0.00541227 -0.421006 1.12289e-07)
(0.00541182 -0.421006 0.954684)
(0.00639546 -0.419245 -0.953332)
(0.00639586 -0.419244 -1.32955e-07)
(0.0063959 -0.419244 -1.05244e-08)
(0.00639585 -0.419244 1.17442e-07)
(0.00639547 -0.419245 0.953332)
(0.00750778 -0.417206 -0.951975)
(0.00750807 -0.417205 -1.39564e-07)
(0.00750807 -0.417205 -9.76521e-09)
(0.00750807 -0.417205 1.2394e-07)
(0.00750778 -0.417205 0.951975)
(0.00876127 -0.414858 -0.950631)
(0.00876141 -0.414858 -1.42192e-07)
(0.00876134 -0.414857 -6.89143e-09)
(0.00876137 -0.414858 1.30519e-07)
(0.0087612 -0.414858 0.950631)
(0.0101681 -0.412171 -0.94928)
(0.010168 -0.41217 -1.44246e-07)
(0.0101678 -0.41217 -6.57531e-09)
(0.0101679 -0.41217 1.33918e-07)
(0.010168 -0.412171 0.949281)
(0.0117393 -0.40911 -0.947932)
(0.0117389 -0.409109 -1.43824e-07)
(0.0117387 -0.409109 -5.68907e-09)
(0.0117388 -0.409109 1.3469e-07)
(0.0117392 -0.409109 0.947932)
(0.0134854 -0.405639 -0.946589)
(0.0134847 -0.405639 -1.3904e-07)
(0.0134843 -0.405638 -3.42707e-09)
(0.0134847 -0.405638 1.33208e-07)
(0.0134853 -0.405639 0.946589)
(0.0154147 -0.401723 -0.945243)
(0.0154137 -0.401723 -1.32625e-07)
(0.0154133 -0.401723 -2.97003e-09)
(0.0154137 -0.401723 1.28298e-07)
(0.0154147 -0.401723 0.945243)
(0.0175341 -0.397325 -0.943903)
(0.0175327 -0.397324 -1.2445e-07)
(0.0175321 -0.397324 -3.41107e-09)
(0.0175327 -0.397324 1.19861e-07)
(0.0175341 -0.397324 0.943904)
(0.0198476 -0.392405 -0.942559)
(0.0198458 -0.392405 -1.11268e-07)
(0.0198452 -0.392405 -2.38045e-09)
(0.0198459 -0.392405 1.0806e-07)
(0.0198478 -0.392405 0.942559)
(0.0223566 -0.386929 -0.941217)
(0.0223543 -0.38693 -9.33908e-08)
(0.0223535 -0.38693 -9.82981e-10)
(0.0223544 -0.38693 9.2448e-08)
(0.0223568 -0.386929 0.941217)
(0.0250592 -0.380862 -0.939877)
(0.0250564 -0.380863 -7.25583e-08)
(0.0250554 -0.380864 -1.9709e-10)
(0.0250564 -0.380863 7.28618e-08)
(0.0250592 -0.380862 0.939877)
(0.0279492 -0.37417 -0.938534)
(0.0279458 -0.374172 -4.76343e-08)
(0.0279447 -0.374173 1.62824e-09)
(0.0279457 -0.374172 5.00102e-08)
(0.0279491 -0.37417 0.938534)
(0.0310165 -0.366824 -0.93719)
(0.0310126 -0.366826 -1.68207e-08)
(0.0310112 -0.366827 5.6393e-09)
(0.0310124 -0.366826 2.43308e-08)
(0.0310163 -0.366824 0.93719)
(0.0342468 -0.358799 -0.935844)
(0.0342423 -0.358801 1.84614e-08)
(0.0342409 -0.358802 1.00077e-08)
(0.0342423 -0.358801 -4.78619e-09)
(0.0342466 -0.358798 0.935844)
(0.0376214 -0.350074 -0.934493)
(0.0376166 -0.350077 5.40568e-08)
(0.0376151 -0.350079 1.1461e-08)
(0.0376167 -0.350077 -3.70928e-08)
(0.0376215 -0.350074 0.934493)
(0.0411176 -0.340637 -0.933138)
(0.0411124 -0.34064 8.73031e-08)
(0.0411108 -0.340642 1.05362e-08)
(0.0411125 -0.34064 -7.09449e-08)
(0.0411177 -0.340636 0.933138)
(0.0447081 -0.33048 -0.931777)
(0.0447026 -0.330484 1.18801e-07)
(0.0447008 -0.330486 9.01279e-09)
(0.0447026 -0.330484 -1.04624e-07)
(0.0447082 -0.33048 0.931777)
(0.048362 -0.319605 -0.930405)
(0.0483562 -0.31961 1.49718e-07)
(0.0483544 -0.319612 8.65286e-09)
(0.0483563 -0.31961 -1.3643e-07)
(0.048362 -0.319605 0.930405)
(0.0520458 -0.308023 -0.929025)
(0.0520399 -0.308028 1.80111e-07)
(0.052038 -0.308031 9.95765e-09)
(0.0520399 -0.308028 -1.65243e-07)
(0.0520458 -0.308023 0.929025)
(0.0557241 -0.295753 -0.927631)
(0.0557181 -0.295758 2.09014e-07)
(0.0557162 -0.295761 1.24175e-08)
(0.0557181 -0.295758 -1.90613e-07)
(0.0557241 -0.295752 0.927631)
(0.0593605 -0.282823 -0.92622)
(0.0593544 -0.282828 2.35336e-07)
(0.0593526 -0.282831 1.53631e-08)
(0.0593544 -0.282828 -2.12549e-07)
(0.0593605 -0.282822 0.92622)
(0.0629187 -0.269271 -0.924792)
(0.0629126 -0.269276 2.58343e-07)
(0.0629108 -0.269279 1.83196e-08)
(0.0629126 -0.269276 -2.31182e-07)
(0.0629187 -0.26927 0.924792)
(0.0663638 -0.255142 -0.923341)
(0.0663577 -0.255147 2.77557e-07)
(0.0663559 -0.25515 2.1008e-08)
(0.0663577 -0.255147 -2.46485e-07)
(0.0663638 -0.255142 0.923341)
(0.0696631 -0.24049 -0.921866)
(0.069657 -0.240495 2.92438e-07)
(0.0696552 -0.240498 2.35185e-08)
(0.069657 -0.240495 -2.57923e-07)
(0.0696631 -0.24049 0.921866)
(0.0727877 -0.225374 -0.920364)
(0.0727815 -0.225379 3.02581e-07)
(0.0727797 -0.225382 2.59984e-08)
(0.0727815 -0.225379 -2.64823e-07)
(0.0727877 -0.225374 0.920364)
(0.0757128 -0.209859 -0.918829)
(0.0757064 -0.209864 3.0841e-07)
(0.0757046 -0.209866 2.90542e-08)
(0.0757063 -0.209864 -2.66861e-07)
(0.0757126 -0.209859 0.918829)
(0.0784183 -0.194012 -0.917261)
(0.0784118 -0.194016 3.12068e-07)
(0.0784099 -0.194018 3.35306e-08)
(0.0784116 -0.194016 -2.65074e-07)
(0.078418 -0.194012 0.917261)
(0.0808897 -0.177903 -0.91464)
(0.0808831 -0.177907 3.14158e-07)
(0.0808811 -0.177908 4.01319e-08)
(0.0808827 -0.177907 -2.58954e-07)
(0.0808891 -0.177903 0.91464)
(0.000233957 -0.429707 -0.979773)
(0.000233538 -0.429707 1.88303e-08)
(0.000233288 -0.429708 -1.71933e-09)
(0.00023349 -0.429706 -2.10668e-08)
(0.000233867 -0.429706 0.979773)
(0.000470853 -0.429604 -0.967027)
(0.000470919 -0.429604 -5.17693e-08)
(0.000470816 -0.429605 -9.83076e-10)
(0.000470899 -0.429604 5.01027e-08)
(0.000470821 -0.429603 0.967027)
(0.000883639 -0.429448 -0.965637)
(0.000883752 -0.429449 -3.37317e-08)
(0.000883693 -0.42945 -5.42388e-10)
(0.000883681 -0.429449 3.26395e-08)
(0.000883505 -0.429448 0.965637)
(0.00138589 -0.429186 -0.964249)
(0.00138603 -0.429186 -5.49019e-08)
(0.00138603 -0.429187 -1.8444e-09)
(0.00138595 -0.429186 5.19863e-08)
(0.00138573 -0.429185 0.964249)
(0.00194527 -0.4288 -0.962871)
(0.00194551 -0.4288 -7.42299e-08)
(0.0019456 -0.4288 -2.81402e-09)
(0.00194553 -0.428799 6.95215e-08)
(0.00194526 -0.428799 0.962871)
(0.00256299 -0.428286 -0.961494)
(0.00256332 -0.428286 -8.10173e-08)
(0.00256348 -0.428287 -1.74335e-09)
(0.00256338 -0.428286 7.72441e-08)
(0.00256307 -0.428286 0.961494)
(0.00325145 -0.427636 -0.960121)
(0.00325185 -0.427635 -9.02965e-08)
(0.00325202 -0.427636 -7.5539e-10)
(0.00325189 -0.427635 8.7923e-08)
(0.00325151 -0.427635 0.960121)
(0.00402604 -0.426833 -0.958752)
(0.00402649 -0.426833 -1.03858e-07)
(0.00402668 -0.426834 -3.30368e-09)
(0.0040265 -0.426833 9.85597e-08)
(0.00402604 -0.426834 0.958752)
(0.00490305 -0.425865 -0.957389)
(0.00490355 -0.425865 -1.17616e-07)
(0.00490375 -0.425865 -6.70251e-09)
(0.00490354 -0.425864 1.07275e-07)
(0.00490302 -0.425865 0.957389)
(0.0058992 -0.424712 -0.956026)
(0.00589974 -0.424711 -1.28952e-07)
(0.00589994 -0.424711 -6.37344e-09)
(0.00589975 -0.424711 1.17962e-07)
(0.00589921 -0.424711 0.956026)
(0.00703135 -0.423353 -0.954664)
(0.00703188 -0.423352 -1.40811e-07)
(0.00703206 -0.423352 -7.32203e-09)
(0.00703187 -0.423352 1.29072e-07)
(0.00703134 -0.423353 0.954664)
(0.00831676 -0.421765 -0.953308)
(0.00831723 -0.421764 -1.53877e-07)
(0.00831737 -0.421764 -1.02661e-08)
(0.00831719 -0.421764 1.38444e-07)
(0.00831671 -0.421764 0.953308)
(0.0097727 -0.419921 -0.951946)
(0.00977307 -0.41992 -1.62226e-07)
(0.00977316 -0.419919 -8.08084e-09)
(0.00977303 -0.419919 1.48548e-07)
(0.00977264 -0.41992 0.951946)
(0.0114166 -0.417791 -0.950598)
(0.0114168 -0.41779 -1.65816e-07)
(0.0114168 -0.41779 -4.80149e-09)
(0.0114167 -0.41779 1.57216e-07)
(0.0114165 -0.417791 0.950598)
(0.0132654 -0.415346 -0.949241)
(0.0132654 -0.415345 -1.70053e-07)
(0.0132654 -0.415345 -6.13282e-09)
(0.0132654 -0.415345 1.61242e-07)
(0.0132654 -0.415346 0.949241)
(0.0153352 -0.41255 -0.947887)
(0.0153349 -0.412549 -1.73292e-07)
(0.0153347 -0.412549 -7.11499e-09)
(0.0153348 -0.412549 1.63073e-07)
(0.0153351 -0.41255 0.947887)
(0.017641 -0.409368 -0.946537)
(0.0176404 -0.409367 -1.72388e-07)
(0.0176402 -0.409367 -5.48196e-09)
(0.0176403 -0.409367 1.6426e-07)
(0.017641 -0.409367 0.946537)
(0.020196 -0.405762 -0.945183)
(0.0201949 -0.405761 -1.70046e-07)