/*--------------------------------*- C++ -*----------------------------------*\
  =========                 |
  \\      /  F ield         | OpenFOAM: The Open Source CFD Toolbox
   \\    /   O peration     | Website:  https://openfoam.org
    \\  /    A nd           | Version:  9
     \\/     M anipulation  |
\*---------------------------------------------------------------------------*/
FoamFile
{
    format      ascii;
    class       volScalarField;
    location    "0.3";
    object      nut;
}
// * * * * * * * * * * * * * * * * * * * * * * * * * * * * * * * * * * * * * //

dimensions      [0 2 -1 0 0 0 0];

internalField   nonuniform List<scalar> 
36360
(
0.000529948
0.000452171
0.000374423
0.000339388
0.000197342
0.000167043
0.000187826
0.000169537
0.000187127
0.000162385
0.000173969
0.00016046
0.000152768
0.000151812
0.000163173
0.000162752
0.000160881
0.00016088
0.000159822
0.000159822
0.000151771
0.000151771
0.00016273
0.00016273
0.000162376
0.000187074
0.000160457
0.000173952
0.000151812
0.000152765
0.000162752
0.000163172
0.000452061
0.000530043
0.000339361
0.000374449
0.000167034
0.000197346
0.000169536
0.000187827
0.000577069
0.000486563
0.000570099
0.000481156
0.000199838
0.000167128
0.000199762
0.000167081
0.000191284
0.000163685
0.00019046
0.000163533
0.00015034
0.000149218
0.000150651
0.00014955
0.000161916
0.000161915
0.000161805
0.000161805
0.000149173
0.000149173
0.000149504
0.000149504
0.000163673
0.00019121
0.000163522
0.00019039
0.000149218
0.000150336
0.000149549
0.000150646
0.000486407
0.000577212
0.000481007
0.000570224
0.000167116
0.000199842
0.000167069
0.000199766
0.000577994
0.000487515
0.000578282
0.000487663
0.000199508
0.000167127
0.000199664
0.000167142
0.000191319
0.000163575
0.000191369
0.000163697
0.000150291
0.00014919
0.000150299
0.000149178
0.000161908
0.000161907
0.00016192
0.000161919
0.000149147
0.000149147
0.000149132
0.000149132
0.000163563
0.000191244
0.000163685
0.000191293
0.00014919
0.000150286
0.000149177
0.000150294
0.000487358
0.000578134
0.000487505
0.000578423
0.000167115
0.000199511
0.00016713
0.000199668
0.000577277
0.000487118
0.000577854
0.000487482
0.00019937
0.000167075
0.000199445
0.000167112
0.000191224
0.000163636
0.00019129
0.000163638
0.000150273
0.000149166
0.00015028
0.000149173
0.000161904
0.000161903
0.000161908
0.000161907
0.000149125
0.000149125
0.00014913
0.00014913
0.000163625
0.000191149
0.000163626
0.000191215
0.000149166
0.000150268
0.000149173
0.000150275
0.000486966
0.000577424
0.000487329
0.000577999
0.000167063
0.000199374
0.0001671
0.000199449
0.000576378
0.000486544
0.000577002
0.000486952
0.000199237
0.000166992
0.000199313
0.00016704
0.000191113
0.00016354
0.000191184
0.000163651
0.000150254
0.000149156
0.000150261
0.000149156
0.000161899
0.000161898
0.000161905
0.000161904
0.000149118
0.000149118
0.000149114
0.000149114
0.000163528
0.000191038
0.000163639
0.000191109
0.000149155
0.000150249
0.000149156
0.000150257
0.000486392
0.000576525
0.000486799
0.000577148
0.00016698
0.000199241
0.000167029
0.000199317
0.000575409
0.000485921
0.000576065
0.000486346
0.000199099
0.000166899
0.000199177
0.00016695
0.000190999
0.000163609
0.00019107
0.00016361
0.000150231
0.000149137
0.00015024
0.000149143
0.000161899
0.000161898
0.000161902
0.000161901
0.000149096
0.000149096
0.000149102
0.000149102
0.000163597
0.000190926
0.000163598
0.000190996
0.000149136
0.000150227
0.000149143
0.000150236
0.000485773
0.000575559
0.000486195
0.000576212
0.000166889
0.000199104
0.000166939
0.000199181
0.000574409
0.000485298
0.000575086
0.000485728
0.00019896
0.000166809
0.000199039
0.000166858
0.000190882
0.000163513
0.000190957
0.000163624
0.000150206
0.000149117
0.000150217
0.000149124
0.000161894
0.000161893
0.0001619
0.000161899
0.000149076
0.000149076
0.000149083
0.000149083
0.000163501
0.000190809
0.000163613
0.000190883
0.000149116
0.000150202
0.000149124
0.000150212
0.000485153
0.000574562
0.000485581
0.000575238
0.000166799
0.000198966
0.000166847
0.000199045
0.000573368
0.000484671
0.000574069
0.000485104
0.00019882
0.000166721
0.0001989
0.00016677
0.00019077
0.000163581
0.000190841
0.000163583
0.000150178
0.000149094
0.00015019
0.000149103
0.000161893
0.000161892
0.000161896
0.000161895
0.000149053
0.000149053
0.000149062
0.000149062
0.000163569
0.000190697
0.000163571
0.000190768
0.000149093
0.000150173
0.000149102
0.000150186
0.000484523
0.000573518
0.000484959
0.000574222
0.00016671
0.000198826
0.000166759
0.000198906
0.000572287
0.000484039
0.000573015
0.000484479
0.000198679
0.00016663
0.00019876
0.00016668
0.000190655
0.000163485
0.000190729
0.000163597
0.000150145
0.000149066
0.000150159
0.000149077
0.000161887
0.000161886
0.000161894
0.000161893
0.000149026
0.000149026
0.000149036
0.000149036
0.000163474
0.000190581
0.000163585
0.000190655
0.000149065
0.000150141
0.000149077
0.000150155
0.000483889
0.000572433
0.00048433
0.000573163
0.000166619
0.000198684
0.000166669
0.000198766
0.000571159
0.000483402
0.000571916
0.000483849
0.000198535
0.000166535
0.000198617
0.000166587
0.000190545
0.000163551
0.000190616
0.000163556
0.000150108
0.000149034
0.000150124
0.000149047
0.000161885
0.000161884
0.000161889
0.000161888
0.000148994
0.000148994
0.000149007
0.000149007
0.000163539
0.000190471
0.000163544
0.000190542
0.000149033
0.000150103
0.000149047
0.00015012
0.000483249
0.0005713
0.000483697
0.00057206
0.000166523
0.00019854
0.000166576
0.000198623
0.00056997
0.000482755
0.000570765
0.000483213
0.000198387
0.000166435
0.000198472
0.00016649
0.000190431
0.000163458
0.000190505
0.000163567
0.000150065
0.000148996
0.000150084
0.000149012
0.000161879
0.000161878
0.000161885
0.000161884
0.000148956
0.000148956
0.000148972
0.000148972
0.000163446
0.000190356
0.000163555
0.000190431
0.000148995
0.00015006
0.000149012
0.00015008
0.000482598
0.000570106
0.000483057
0.000570904
0.000166423
0.000198392
0.000166478
0.000198477
0.0005687
0.000482083
0.000569543
0.000482557
0.000198232
0.000166328
0.000198321
0.000166387
0.00019032
0.000163551
0.000190391
0.000163529
0.000150016
0.000148953
0.000150039
0.000148971
0.000161877
0.000161877
0.00016188
0.000161879
0.000148913
0.000148913
0.000148931
0.000148931
0.000163539
0.000190246
0.000163517
0.000190317
0.000148952
0.000150012
0.000148971
0.000150034
0.000481926
0.000568835
0.0004824
0.000569678
0.000166316
0.000198237
0.000166375
0.000198326
0.000567348
0.000481392
0.000568236
0.000481879
0.000198072
0.000166216
0.000198164
0.000166278
0.000190205
0.000163548
0.000190278
0.000163558
0.000149961
0.000148903
0.000149987
0.000148925
0.000161872
0.000161872
0.000161877
0.000161876
0.000148863
0.000148863
0.000148884
0.000148884
0.000163536
0.000190131
0.000163546
0.000190204
0.000148902
0.000149957
0.000148924
0.000149982
0.000481235
0.000567482
0.000481722
0.000568371
0.000166204
0.000198076
0.000166265
0.000198168
0.000565912
0.000480683
0.000566848
0.000481182
0.000197904
0.000166097
0.000198
0.000166162
0.000190089
0.000163536
0.000190163
0.000163546
0.000149899
0.000148846
0.000149928
0.000148871
0.000161866
0.000161865
0.000161871
0.00016187
0.000148806
0.000148806
0.000148831
0.000148831
0.000163524
0.000190015
0.000163534
0.000190089
0.000148845
0.000149894
0.00014887
0.000149923
0.000480527
0.000566046
0.000481026
0.000566982
0.000166084
0.000197909
0.00016615
0.000198005
0.000564386
0.000479953
0.000565373
0.000480468
0.000197731
0.000165971
0.00019783
0.00016604
0.000189972
0.000163522
0.000190047
0.000163532
0.000149829
0.00014878
0.000149861
0.00014881
0.000161859
0.000161858
0.000161864
0.000161863
0.000148741
0.00014874
0.00014877
0.00014877
0.00016351
0.000189898
0.000163521
0.000189973
0.00014878
0.000149824
0.000148809
0.000149857
0.000479798
0.000564519
0.000480312
0.000565507
0.000165958
0.000197735
0.000166027
0.000197835
0.000562763
0.000479203
0.000563804
0.000479732
0.000197549
0.000165837
0.000197653
0.00016591
0.000189853
0.000163506
0.000189929
0.000163517
0.00014975
0.000148707
0.000149787
0.00014874
0.000161851
0.00016185
0.000161856
0.000161856
0.000148667
0.000148667
0.0001487
0.0001487
0.000163495
0.00018978
0.000163506
0.000189856
0.000148706
0.000149745
0.00014874
0.000149782
0.000479048
0.000562896
0.000479577
0.000563938
0.000165825
0.000197554
0.000165898
0.000197657
0.000561036
0.000478428
0.000562135
0.000478974
0.00019736
0.000165694
0.000197468
0.000165772
0.000189733
0.00016349
0.000189811
0.000163501
0.000149662
0.000148624
0.000149703
0.000148662
0.000161842
0.000161841
0.000161848
0.000161847
0.000148584
0.000148584
0.000148622
0.000148622
0.000163478
0.00018966
0.00016349
0.000189737
0.000148623
0.000149657
0.000148661
0.000149699
0.000478275
0.000561169
0.000478819
0.000562268
0.000165682
0.000197364
0.00016576
0.000197473
0.000559202
0.000477629
0.00056036
0.000478191
0.000197163
0.000165543
0.000197275
0.000165625
0.000189612
0.000163472
0.00018969
0.000163484
0.000149564
0.000148531
0.00014961
0.000148574
0.000161833
0.000161832
0.000161839
0.000161838
0.000148491
0.000148491
0.000148534
0.000148534
0.000163461
0.000189539
0.000163473
0.000189617
0.00014853
0.000149559
0.000148573
0.000149606
0.000477476
0.000559333
0.000478037
0.000560492
0.000165531
0.000197167
0.000165613
0.000197279
0.000557254
0.000476804
0.000558474
0.000477383
0.000196956
0.000165382
0.000197074
0.000165469
0.000189488
0.000163454
0.000189568
0.000163467
0.000149455
0.000148427
0.000149507
0.000148475
0.000161823
0.000161822
0.000161829
0.000161829
0.000148388
0.000148388
0.000148436
0.000148436
0.000163443
0.000189416
0.000163455
0.000189495
0.000148427
0.000149451
0.000148475
0.000149502
0.000476652
0.000557385
0.00047723
0.000558606
0.00016537
0.000196961
0.000165457
0.000197078
0.000555193
0.000475953
0.000556475
0.000476548
0.000196741
0.00016521
0.000196863
0.000165303
0.000189363
0.000163435
0.000189445
0.000163448
0.000149336
0.000148312
0.000149393
0.000148366
0.000161811
0.000161811
0.000161819
0.000161818
0.000148273
0.000148273
0.000148326
0.000148326
0.000163424
0.000189291
0.000163437
0.000189372
0.000148312
0.000149331
0.000148365
0.000149388
0.000475801
0.000555323
0.000476396
0.000556606
0.000165199
0.000196745
0.000165291
0.000196867
0.000553017
0.000475075
0.000554361
0.000475687
0.000196517
0.000165028
0.000196644
0.000165126
0.000189236
0.000163416
0.000189319
0.000163429
0.000149204
0.000148185
0.000149267
0.000148244
0.0001618
0.000161799
0.000161807
0.000161807
0.000148146
0.000148146
0.000148205
0.000148205
0.000163404
0.000189164
0.000163418
0.000189247
0.000148184
0.000149199
0.000148244
0.000149262
0.000474924
0.000553147
0.000475536
0.000554491
0.000165016
0.000196521
0.000165114
0.000196648
0.000550729
0.000474171
0.000552133
0.0004748
0.000196285
0.000164834
0.000196416
0.000164938
0.000189107
0.000163395
0.000189192
0.000163409
0.00014906
0.000148045
0.000149129
0.000148111
0.000161787
0.000161786
0.000161795
0.000161794
0.000148006
0.000148006
0.000148072
0.000148072
0.000163383
0.000189036
0.000163397
0.00018912
0.000148045
0.000149055
0.000148111
0.000149124
0.000474022
0.000550858
0.00047465
0.000552263
0.000164822
0.000196289
0.000164926
0.00019642
0.000548335
0.000473244
0.000549795
0.000473888
0.000196044
0.000164628
0.00019618
0.000164738
0.000188977
0.000163374
0.000189063
0.000163388
0.000148903
0.000147893
0.000148978
0.000147965
0.000161774
0.000161773
0.000161782
0.000161782
0.000147854
0.000147854
0.000147926
0.000147926
0.000163362
0.000188906
0.000163376
0.000188991
0.000147892
0.000148898
0.000147964
0.000148974
0.000473095
0.000548463
0.000473739
0.000549924
0.000164617
0.000196048
0.000164727
0.000196183
0.000545842
0.000472295
0.000547355
0.000472953
0.000195796
0.000164411
0.000195935
0.000164527
0.000188845
0.000163352
0.000188932
0.000163366
0.000148733
0.000147727
0.000148814
0.000147806
0.00016176
0.000161759
0.000161769
0.000161768
0.000147689
0.000147689
0.000147767
0.000147767
0.00016334
0.000188775
0.000163355
0.000188861
0.000147727
0.000148728
0.000147805
0.00014881
0.000472148
0.000545969
0.000472805
0.000547482
0.000164399
0.0001958
0.000164515
0.000195939
0.00054326
0.000471328
0.000544819
0.000471999
0.000195541
0.000164181
0.000195684
0.000164304
0.000188713
0.000163329
0.0001888
0.000163344
0.000148549
0.000147548
0.000148637
0.000147633
0.000161746
0.000161745
0.000161755
0.000161754
0.00014751
0.00014751
0.000147594
0.000147594
0.000163318
0.000188642
0.000163333
0.00018873
0.000147547
0.000148545
0.000147632
0.000148633
0.000471182
0.000543386
0.000471852
0.000544946
0.00016417
0.000195545
0.000164292
0.000195688
0.000540603
0.000470349
0.000542202
0.000471029
0.000195281
0.00016394
0.000195426
0.000164068
0.000188579
0.000163306
0.000188668
0.000163322
0.000148352
0.000147355
0.000148447
0.000147447
0.000161732
0.000161731
0.00016174
0.00016174
0.000147317
0.000147317
0.000147408
0.000147408
0.000163295
0.00018851
0.00016331
0.000188597
0.000147355
0.000148348
0.000147446
0.000148443
0.000470204
0.000540729
0.000470883
0.000542328
0.000163929
0.000195285
0.000164057
0.00019543
0.000537889
0.00046936
0.000539518
0.000470047
0.000195017
0.000163687
0.000195164
0.000163821
0.000188446
0.000163283
0.000188535
0.000163299
0.000148142
0.000147149
0.000148243
0.000147247
0.000161717
0.000161716
0.000161726
0.000161725
0.000147111
0.000147111
0.000147209
0.000147209
0.000163272
0.000188377
0.000163288
0.000188465
0.000147148
0.000148137
0.000147246
0.000148239
0.000469217
0.000538013
0.000469903
0.000539644
0.000163676
0.000195021
0.00016381
0.000195168
0.000535135
0.000468369
0.000536785
0.000469059
0.000194751
0.000163424
0.000194899
0.000163563
0.000188313
0.00016326
0.000188402
0.000163275
0.000147918
0.000146929
0.000148026
0.000147033
0.000161703
0.000161702
0.000161711
0.00016171
0.000146891
0.000146891
0.000146995
0.000146995
0.000163249
0.000188244
0.000163264
0.000188333
0.000146929
0.000147914
0.000147033
0.000148022
0.000468227
0.000535258
0.000468916
0.000536909
0.000163412
0.000194754
0.000163552
0.000194903
0.000532362
0.000467382
0.000534023
0.00046807
0.000194484
0.00016315
0.000194633
0.000163294
0.000188179
0.000163237
0.00018827
0.000163252
0.000147682
0.000146696
0.000147796
0.000146807
0.000161687
0.000161686
0.000161696
0.000161695
0.000146659
0.000146659
0.000146769
0.000146769
0.000163226
0.000188111
0.000163241
0.000188201
0.000146696
0.000147678
0.000146807
0.000147791
0.000467241
0.000532485
0.000467928
0.000534146
0.000163139
0.000194488
0.000163283
0.000194636
0.000529594
0.000466405
0.000531253
0.000467087
0.000194219
0.000162866
0.000194367
0.000163016
0.000188047
0.000163213
0.000188138
0.000163229
0.000147434
0.000146452
0.000147553
0.000146568
0.000161671
0.00016167
0.00016168
0.000161679
0.000146414
0.000146414
0.00014653
0.00014653
0.000163203
0.000187978
0.000163218
0.00018807
0.000146451
0.00014743
0.000146567
0.000147549
0.000466265
0.000529716
0.000466947
0.000531375
0.000162855
0.000194223
0.000163005
0.00019437
0.000526854
0.000465444
0.000528498
0.000466117
0.000193958
0.000162574
0.000194104
0.000162728
0.000187916
0.000163189
0.000188008
0.000163205
0.000147174
0.000146195
0.000147299
0.000146317
0.000161654
0.000161653
0.000161663
0.000161662
0.000146158
0.000146158
0.000146279
0.000146279
0.000163178
0.000187848
0.000163194
0.00018794
0.000146195
0.00014717
0.000146316
0.000147295
0.000465306
0.000526974
0.000465977
0.00052862
0.000162564
0.000193961
0.000162717
0.000194107
0.000524165
0.000464508
0.000525784
0.000465169
0.000193702
0.000162275
0.000193845
0.000162432
0.000187789
0.000163165
0.000187881
0.00016318
0.000146904
0.000145928
0.000147033
0.000146054
0.000161636
0.000161635
0.000161645
0.000161645
0.000145891
0.000145891
0.000146017
0.000146017
0.000163154
0.000187721
0.000163169
0.000187813
0.000145927
0.0001469
0.000146054
0.000147029
0.00046437
0.000524285
0.000465031
0.000525904
0.000162264
0.000193705
0.000162421
0.000193848
0.000521552
0.000463603
0.000523133
0.00046425
0.000193454
0.00016197
0.000193593
0.000162129
0.000187657
0.00016314
0.000187758
0.000163156
0.000146624
0.000145651
0.000146758
0.000145782
0.000161618
0.000161617
0.000161627
0.000161626
0.000145614
0.000145614
0.000145745
0.000145745
0.000163129
0.00018759
0.000163145
0.000187691
0.00014565
0.00014662
0.000145781
0.000146754
0.000463467
0.000521671
0.000464113
0.000523253
0.000161959
0.000193457
0.000162119
0.000193596
0.000519039
0.000462737
0.00052057
0.000463367
0.000193215
0.000161659
0.000193349
0.000161821
0.000187538
0.000163115
0.000187632
0.00016313
0.000146336
0.000145365
0.000146473
0.0001455
0.000161599
0.000161598
0.000161608
0.000161608
0.000145328
0.000145328
0.000145463
0.000145463
0.000163104
0.000187471
0.00016312
0.000187565
0.000145364
0.000146331
0.0001455
0.000146469
0.000462602
0.000519156
0.000463231
0.000520689
0.000161648
0.000193218
0.000161811
0.000193352
0.000516647
0.000461916
0.000518118
0.000462525
0.000192987
0.000161345
0.000193116
0.000161509
0.000187425
0.00016309
0.000187517
0.000163105
0.00014604
0.000145071
0.000146181
0.00014521
0.00016158
0.000161579
0.000161589
0.000161588
0.000145035
0.000145035
0.000145173
0.000145173
0.000163079
0.000187359
0.000163095
0.00018745
0.000145071
0.000146036
0.000145209
0.000146177
0.000461782
0.000516764
0.00046239
0.000518235
0.000161334
0.00019299
0.000161498
0.000193119
0.000514389
0.00046114
0.000515795
0.00046173
0.000192772
0.000161029
0.000192895
0.000161193
0.000187318
0.000163065
0.000187407
0.00016308
0.000145738
0.000144772
0.000145882
0.000144913
0.00016156
0.000161559
0.000161569
0.000161569
0.000144735
0.000144735
0.000144876
0.000144876
0.000163054
0.000187252
0.00016307
0.00018734
0.000144771
0.000145734
0.000144912
0.000145877
0.000461007
0.000514505
0.000461596
0.000515912
0.000161018
0.000192775
0.000161183
0.000192897
0.000512284
0.000460415
0.000513614
0.000460981
0.000192572
0.000160711
0.000192687
0.000160877
0.000187217
0.00016304
0.000187302
0.000163055
0.000145432
0.000144467
0.000145577
0.00014461
0.00016154
0.000161539
0.000161549
0.000161548
0.00014443
0.00014443
0.000144573
0.000144573
0.00016303
0.000187152
0.000163045
0.000187237
0.000144467
0.000145428
0.00014461
0.000145573
0.000460283
0.000512399
0.000460848
0.00051373
0.000160701
0.000192575
0.000160866
0.00019269
0.000510377
0.000459728
0.000511598
0.000460288
0.000192389
0.000160395
0.000192494
0.00016056
0.000187123
0.000163015
0.000187204
0.00016303
0.000145122
0.000144158
0.000145268
0.000144303
0.000161519
0.000161518
0.000161528
0.000161528
0.000144122
0.000144122
0.000144266
0.000144266
0.000163005
0.000187058
0.000163019
0.000187139
0.000144158
0.000145118
0.000144302
0.000145264
0.000459597
0.000510492
0.000460156
0.000511713
0.000160384
0.000192392
0.000160549
0.000192497
0.000507405
0.000456079
0.000509709
0.00045926
0.000192177
0.000159964
0.000192319
0.000160237
0.000186791
0.000162999
0.000187074
0.000163005
0.000144798
0.00014384
0.000144957
0.000143993
0.000161514
0.000161514
0.000161508
0.000161508
0.000143804
0.000143804
0.000143956
0.000143956
0.000162989
0.000186727
0.000162994
0.000187009
0.000143839
0.000144794
0.000143993
0.000144953
0.00045595
0.000507515
0.000459129
0.000509824
0.000159954
0.00019218
0.000160227
0.000192322
0.000564367
0.000480119
0.000391347
0.000351457
0.000562549
0.000477847
0.000392204
0.000348772
0.000190093
0.000162343
0.00017504
0.000160237
0.000189867
0.000162343
0.000174832
0.00016024
0.000160684
0.000160684
0.00015955
0.00015955
0.000160694
0.000160693
0.000159561
0.000159561
0.000162333
0.000190034
0.000160234
0.000175015
0.000162333
0.00018981
0.000160237
0.000174808
0.000479983
0.000564485
0.000351424
0.000391378
0.000477713
0.000562664
0.000348739
0.000392235
0.00061809
0.000518518
0.000609936
0.000512802
0.000615248
0.000516238
0.000607486
0.000510856
0.000195209
0.000163757
0.000194391
0.000163589
0.000194945
0.00016376
0.000194166
0.000163593
0.0001618
0.000161799
0.000161677
0.000161676
0.000161813
0.000161812
0.00016169
0.000161689
0.000163743
0.000195114
0.000163575
0.000194299
0.000163747
0.000194852
0.00016358
0.000194076
0.000518323
0.000618257
0.000512619
0.000610093
0.000516049
0.000615412
0.000510676
0.00060764
0.000619236
0.000519308
0.000619544
0.000519549
0.00061548
0.000516571
0.000615873
0.000516683
0.000195242
0.000163644
0.000195304
0.000163772
0.000194976
0.000163646
0.000195039
0.000163773
0.000161793
0.000161792
0.000161805
0.000161804
0.000161806
0.000161805
0.000161819
0.000161818
0.00016363
0.000195145
0.000163758
0.000195208
0.000163631
0.000194882
0.000163759
0.000194946
0.000519109
0.000619404
0.000519351
0.000619713
0.000516369
0.000615642
0.000516491
0.000616038
0.000618548
0.000518827
0.000619179
0.000519264
0.000615295
0.000516454
0.000615801
0.000516824
0.000195123
0.0001637
0.000195206
0.00016371
0.000194871
0.000163704
0.000194949
0.000163713
0.00016179
0.000161789
0.000161794
0.000161793
0.000161804
0.000161803
0.000161808
0.000161807
0.000163687
0.000195028
0.000163696
0.000195111
0.000163691
0.000194777
0.000163699
0.000194856
0.000518632
0.000618723
0.000519068
0.000619352
0.000516266
0.000615468
0.000516634
0.000615973
0.000617564
0.000518165
0.000618281
0.000518643
0.000614395
0.000515865
0.000615092
0.000516328
0.000194987
0.000163609
0.000195074
0.00016372
0.000194743
0.000163613
0.000194828
0.000163723
0.000161787
0.000161786
0.000161793
0.000161792
0.000161801
0.0001618
0.000161807
0.000161806
0.000163595
0.000194891
0.000163706
0.000194978
0.000163599
0.000194649
0.00016371
0.000194734
0.000517967
0.000617732
0.000518446
0.000618452
0.000515674
0.000614563
0.000516137
0.000615262
0.000616468
0.00051745
0.000617229
0.000517947
0.000613299
0.000515155
0.00061406
0.000515651
0.000194852
0.000163673
0.000194937
0.000163682
0.000194609
0.000163676
0.000194694
0.000163685
0.000161789
0.000161788
0.000161791
0.00016179
0.000161802
0.000161801
0.000161805
0.000161804
0.00016366
0.000194758
0.000163668
0.000194842
0.000163663
0.000194515
0.000163672
0.0001946
0.000517259
0.000616644
0.000517751
0.0006174
0.00051496
0.000613463
0.000515456
0.000614225
0.000615355
0.000516752
0.000616129
0.000517245
0.000612166
0.000514439
0.000612948
0.00051494
0.00019472
0.000163584
0.000194805
0.000163694
0.000194474
0.000163587
0.000194561
0.000163697
0.000161786
0.000161785
0.000161791
0.00016179
0.0001618
0.000161799
0.000161805
0.000161804
0.00016357
0.000194625
0.000163681
0.00019471
0.000163573
0.000194381
0.000163683
0.000194467
0.000516556
0.000615523
0.000517051
0.000616302
0.00051425
0.000612335
0.000514747
0.000613114
0.000614198
0.000516054
0.000615001
0.00051655
0.000610994
0.000513723
0.0006118
0.000514225
0.000194593
0.000163648
0.000194675
0.000163658
0.000194345
0.000163652
0.000194428
0.000163661
0.000161787
0.000161786
0.00016179
0.000161789
0.000161801
0.0001618
0.000161804
0.000161803
0.000163636
0.000194498
0.000163644
0.00019458
0.000163637
0.000194253
0.000163647
0.000194336
0.000515861
0.00061437
0.000516356
0.000615172
0.000513535
0.000611165
0.000514037
0.000611971
0.000613016
0.00051537
0.000613839
0.000515865
0.000609793
0.000513019
0.000610619
0.00051352
0.000194466
0.00016356
0.00019455
0.000163669
0.000194218
0.000163563
0.000194301
0.000163673
0.000161784
0.000161784
0.00016179
0.000161789
0.000161799
0.000161798
0.000161804
0.000161803
0.000163546
0.000194371
0.000163657
0.000194455
0.000163549
0.000194125
0.000163659
0.000194209
0.000515175
0.000613183
0.00051567
0.000614009
0.00051283
0.000609961
0.000513331
0.000610789
0.000611783
0.000514683
0.00061264
0.000515186
0.000608544
0.000512316
0.000609404
0.000512823
0.000194343
0.000163622
0.000194425
0.000163634
0.000194095
0.000163627
0.000194176
0.000163637
0.000161786
0.000161785
0.000161788
0.000161787
0.0001618
0.000161799
0.000161803
0.000161802
0.00016361
0.000194248
0.00016362
0.00019433
0.000163612
0.000194002
0.000163624
0.000194083
0.000514485
0.000611947
0.000514988
0.000612805
0.000512124
0.000608707
0.000512632
0.000609569
0.00061049
0.000513991
0.000611383
0.0005145
0.000607236
0.000511608
0.000608132
0.000512122
0.000194219
0.000163537
0.000194303
0.000163645
0.000193971
0.00016354
0.000194055
0.000163649
0.000161783
0.000161782
0.000161788
0.000161787
0.000161798
0.000161797
0.000161803
0.000161802
0.000163523
0.000194125
0.000163632
0.000194208
0.000163526
0.000193879
0.000163635
0.000193962
0.000513796
0.000610657
0.000514303
0.000611549
0.000511416
0.000607398
0.000511929
0.000608294
0.000609131
0.000513292
0.000610065
0.000513809
0.000605854
0.000510889
0.000606795
0.000511413
0.000194099
0.000163596
0.000194181
0.000163612
0.000193851
0.000163602
0.000193933
0.000163615
0.000161784
0.000161783
0.000161787
0.000161786
0.000161799
0.000161799
0.000161802
0.000161801
0.000163583
0.000194005
0.000163598
0.000194087
0.000163588
0.000193759
0.000163602
0.00019384
0.000513098
0.000609298
0.000513615
0.000610233
0.000510699
0.000606018
0.000511223
0.000606958
0.000607696
0.000512584
0.000608675
0.00051311
0.000604395
0.000510159
0.000605381
0.000510693
0.000193977
0.000163515
0.000194061
0.000163621
0.000193729
0.000163522
0.000193813
0.000163626
0.000161782
0.000161781
0.000161787
0.000161786
0.000161798
0.000161797
0.000161802
0.000161801
0.000163501
0.000193883
0.000163608
0.000193967
0.000163508
0.000193638
0.000163612
0.000193721
0.000512392
0.000607863
0.000512917
0.000608842
0.00050997
0.000604558
0.000510504
0.000605544
0.000606186
0.000511872
0.000607209
0.000512404
0.000602856
0.000509422
0.000603888
0.000509964
0.000193859
0.000163575
0.000193941
0.000163591
0.000193614
0.000163615
0.000193693
0.000163597
0.000161784
0.000161783
0.000161786
0.000161785
0.000161801
0.0001618
0.000161801
0.0001618
0.000163561
0.000193766
0.000163577
0.000193847
0.000163601
0.000193522
0.000163583
0.000193601
0.00051168
0.000606353
0.000512211
0.000607376
0.000509234
0.000603019
0.000509775
0.000604051
0.000604595
0.000511155
0.000605666
0.000511693
0.000601232
0.000508678
0.000602314
0.000509228
0.000193746
0.000163613
0.000193824
0.000163598
0.000193498
0.000163626
0.000193576
0.000163627
0.000161786
0.000161785
0.000161786
0.000161785
0.000161803
0.000161802
0.000161803
0.000161802
0.000163599
0.000193653
0.000163585
0.00019373
0.000163612
0.000193406
0.000163613
0.000193485
0.000510963
0.000604761
0.000511501
0.000605832
0.00050849
0.000601395
0.00050904
0.000602477
0.000602916
0.000510431
0.000604038
0.000510977
0.000599518
0.000507925
0.000600652
0.000508484
0.000193632
0.000163618
0.00019371
0.000163623
0.000193382
0.000163622
0.000193461
0.000163629
0.000161787
0.000161786
0.000161788
0.000161787
0.000161803
0.000161802
0.000161804
0.000161803
0.000163604
0.000193539
0.000163609
0.000193617
0.000163608
0.000193291
0.000163615
0.00019337
0.00051024
0.000603081
0.000510785
0.000604204
0.000507739
0.00059968
0.000508296
0.000600814
0.000601143
0.0005097
0.000602319
0.000510253
0.000597706
0.000507163
0.000598896
0.00050773
0.000193519
0.000163611
0.000193597
0.000163618
0.000193268
0.000163615
0.000193347
0.000163622
0.000161787
0.000161786
0.000161788
0.000161787
0.000161803
0.000161803
0.000161804
0.000161803
0.000163597
0.000193426
0.000163605
0.000193504
0.000163601
0.000193177
0.000163609
0.000193256
0.00050951
0.000601308
0.000510063
0.000602485
0.000506977
0.000597867
0.000507544
0.000599057
0.000599269
0.00050896
0.000600503
0.000509521
0.000595792
0.000506389
0.000597039
0.000506966
0.000193408
0.000163604
0.000193486
0.000163611
0.000193155
0.000163607
0.000193234
0.000163615
0.000161786
0.000161786
0.000161788
0.000161787
0.000161804
0.000161803
0.000161805
0.000161804
0.00016359
0.000193315
0.000163597
0.000193393
0.000163594
0.000193065
0.000163601
0.000193143
0.000508771
0.000599433
0.000509331
0.000600667
0.000506204
0.000595952
0.00050678
0.0005972
0.00059729
0.00050821
0.000598582
0.00050878
0.00059377
0.000505603
0.000595077
0.000506189
0.000193298
0.000163597
0.000193376
0.000163604
0.000193044
0.000163601
0.000193122
0.000163608
0.000161786
0.000161786
0.000161787
0.000161787
0.000161804
0.000161803
0.000161805
0.000161804
0.000163583
0.000193206
0.00016359
0.000193284
0.000163587
0.000192953
0.000163594
0.000193032
0.000508022
0.000597453
0.000508591
0.000598746
0.000505419
0.000593929
0.000506005
0.000595237
0.000595207
0.000507452
0.000596557
0.000508029
0.000591639
0.000504805
0.000593007
0.000505401
0.000193191
0.00016359
0.000193268
0.000163597
0.000192933
0.000163594
0.000193012
0.000163601
0.000161787
0.000161786
0.000161788
0.000161787
0.000161805
0.000161804
0.000161806
0.000161805
0.000163577
0.000193099
0.000163584
0.000193176
0.000163581
0.000192844
0.000163588
0.000192922
0.000507265
0.00059537
0.000507841
0.000596721
0.000504622
0.000591798
0.000505217
0.000593166
0.000593017
0.000506684
0.000594428
0.00050727
0.000589398
0.000503996
0.000590827
0.0005046
0.000193085
0.000163585
0.000193162
0.000163591
0.000192825
0.000163588
0.000192903
0.000163595
0.000161787
0.000161786
0.000161788
0.000161787
0.000161806
0.000161806
0.000161807
0.000161806
0.000163571
0.000192994
0.000163578
0.000193071
0.000163575
0.000192735
0.000163582
0.000192813
0.000506499
0.00059318
0.000507083
0.000594591
0.000503814
0.000589556
0.000504418
0.000590985
0.000590722
0.000505909
0.00059219
0.000506501
0.000587048
0.000503174
0.000588536
0.000503787
0.000192981
0.000163578
0.000193058
0.000163585
0.000192718
0.000163583
0.000192796
0.00016359
0.000161788
0.000161787
0.000161789
0.000161788
0.000161808
0.000161807
0.000161809
0.000161808
0.000163564
0.00019289
0.000163571
0.000192967
0.00016357
0.000192629
0.000163576
0.000192706
0.000505725
0.000590884
0.000506315
0.000592352
0.000502993
0.000587206
0.000503606
0.000588695
0.000588338
0.000505129
0.000589856
0.000505729
0.000584594
0.000502342
0.000586139
0.000502963
0.000192879
0.000163572
0.000192955
0.000163579
0.000192612
0.000163578
0.00019269
0.000163585
0.000161789
0.000161789
0.00016179
0.000161789
0.000161811
0.00016181
0.000161811
0.00016181
0.000163559
0.000192788
0.000163565
0.000192865