/*--------------------------------*- C++ -*----------------------------------*\
  =========                 |
  \\      /  F ield         | OpenFOAM: The Open Source CFD Toolbox
   \\    /   O peration     | Website:  https://openfoam.org
    \\  /    A nd           | Version:  9
     \\/     M anipulation  |
\*---------------------------------------------------------------------------*/
FoamFile
{
    format      ascii;
    class       volScalarField;
    location    "4.6";
    object      epsilon;
}
// * * * * * * * * * * * * * * * * * * * * * * * * * * * * * * * * * * * * * //

dimensions      [0 2 -3 0 0 0 0];

internalField   nonuniform List<scalar> 
36360
(
12.293
11.1813
9.81729
9.30101
20.1907
19.2573
12.8956
15.0563
9.15952
8.08705
7.49006
6.51683
16.4895
15.0191
12.3357
10.8659
7.61822
7.61814
6.09451
6.09442
14.3868
14.3865
10.2787
10.2784
8.08682
9.15921
6.51657
7.48969
15.0181
16.4878
10.865
12.3341
11.1811
12.293
9.3007
9.81719
19.2547
20.1874
15.0538
12.8927
14.5393
13.1926
13.6872
12.397
24.567
22.977
22.9701
21.4845
10.9791
9.81968
10.2371
9.10594
19.9353
18.3685
18.5262
17.0001
9.31458
9.31453
8.61275
8.61268
17.691
17.6907
16.3406
16.3403
9.81952
10.9789
9.10575
10.2369
18.3676
19.9337
16.9991
18.5245
13.1926
14.5396
12.3969
13.6874
22.9747
24.564
21.4821
22.9669
15.5704
14.1917
15.1285
13.7607
26.6266
24.9563
25.7205
24.0827
11.9438
10.7656
11.5242
10.3518
21.8474
20.2509
21.0014
19.4147
10.2524
10.2523
9.84122
9.84116
19.5592
19.5589
18.7276
18.7273
10.7655
11.9437
10.3517
11.524
20.2501
21.8459
19.4138
20.9998
14.1917
15.5708
13.7607
15.1288
24.9542
26.6239
24.0805
25.7177
16.1837
14.7956
15.911
14.5266
27.9474
26.2417
27.3514
25.6594
12.5437
11.3639
12.2756
11.0958
23.1006
21.4967
22.5328
20.9317
10.8494
10.8494
10.5816
10.5816
20.8024
20.8022
20.2381
20.2378
11.3638
12.5436
11.0957
12.2755
21.4959
23.0993
20.9309
22.5314
14.7957
16.1841
14.5266
15.9114
26.2398
27.9449
25.6574
27.3487
16.5811
15.1897
16.4018
15.0118
28.8477
27.1276
28.4369
26.7222
12.9435
11.7667
12.7629
11.5845
23.9716
22.3652
23.5734
21.9678
11.2531
11.2531
11.0703
11.0702
21.6715
21.6713
21.2736
21.2734
11.7666
12.9435
11.5844
12.7628
22.3644
23.9704
21.9671
23.5721
15.1899
16.5816
15.0119
16.4022
27.1259
28.8453
26.7203
28.4344
16.8456
15.4533
16.7257
15.3338
29.4756
27.7505
29.1878
27.4643
13.2161
12.0443
13.0927
11.9184
24.5877
22.983
24.3051
22.6994
11.5329
11.5329
11.4059
11.4059
22.2918
22.2915
22.007
22.0068
12.0442
13.2161
11.9184
13.0927
22.9824
24.5866
22.6987
24.3039
15.4535
16.8461
15.3339
16.7262
27.7488
29.4734
27.4626
29.1855
17.0196
15.628
16.9412
15.5492
29.9117
28.1869
29.7124
27.9867
13.4013
12.2354
13.3179
12.1491
25.0238
23.4232
24.8242
23.2216
11.7266
11.7266
11.6391
11.639
22.7346
22.7344
22.5316
22.5314
12.2354
13.4014
12.1491
13.3179
23.4226
25.0228
23.2209
24.8231
15.6282
17.0201
15.5493
16.9416
28.1854
29.9094
27.9852
29.7103
17.1285
15.7386
17.0799
15.6893
30.2063
28.4852
30.0725
28.3492
13.5231
12.3635
13.469
12.3064
25.3262
23.7312
25.1888
23.5911
11.8577
11.8577
11.7991
11.7991
23.0455
23.0454
22.9039
22.9037
12.3635
13.5231
12.3064
13.469
23.7307
25.3253
23.5905
25.1878
15.7388
17.1291
15.6895
17.0804
28.4838
30.2046
28.3476
30.0702
17.1892
15.8007
17.163
15.7741
30.3952
28.6772
30.3108
28.5911
13.5969
12.4439
13.5652
12.4091
25.5256
23.9374
25.4366
23.8451
11.9412
11.9412
11.9049
11.9049
23.2552
23.2551
23.1612
23.161
12.4439
13.5969
12.4091
13.5653
23.9369
25.5248
23.8446
25.4356
15.801
17.1899
15.7743
17.1639
28.676
30.3937
28.5898
30.309
17.2116
15.8244
17.2041
15.8162
30.4992
28.7845
30.4554
28.7388
13.6328
12.4868
13.6191
12.4698
25.6431
24.0626
25.5929
24.0087
11.9874
11.9874
11.9687
11.9687
23.3846
23.3844
23.3286
23.3284
12.4868
13.6329
12.4698
13.6192
24.0622
25.6424
24.0082
25.5921
15.825
17.213
15.8166
17.205
28.7838
30.4998
28.738
30.455
17.2018
15.8157
17.21
15.8235
30.5335
28.8207
30.5237
28.8101
13.6374
12.4991
13.6388
12.4967
25.6931
24.1217
25.6754
24.0993
12.0033
12.0033
11.999
11.999
23.4483
23.4481
23.4236
23.4234
12.4991
13.6375
12.4967
13.6389
24.1212
25.6924
24.0989
25.6746
15.8158
17.2027
15.824
17.2116
28.8198
30.533
28.8093
30.5238
17.1629
15.7796
17.1839
15.7994
30.5082
28.7984
30.5262
28.8145
13.6164
12.4863
13.6298
12.4957
25.6873
24.1256
25.6955
24.1293
11.9943
11.9943
12.0017
12.0017
23.4571
23.4569
23.4586
23.4584
12.4863
13.6165
12.4957
13.6298
24.1251
25.6866
24.1288
25.6948
15.7805
17.164
15.7997
17.1846
28.7976
30.5076
28.8137
30.526
17.1114
15.7279
17.1383
15.7553
30.4398
28.7323
30.4781
28.7693
13.5756
12.4525
13.5984
12.472
25.6346
24.0829
25.6661
24.1099
11.9641
11.9641
11.9819
11.9819
23.4199
23.4198
23.4444
23.4443
12.4526
13.5757
12.4721
13.5985
24.0825
25.634
24.1095
25.6654
15.7279
17.1115
15.756
17.1393
28.7313
30.4373
28.7683
30.4761
17.0346
15.6533
17.074
15.6914
30.3228
28.6189
30.3842
28.6786
13.5157
12.4004
13.5477
12.4287
25.5398
23.9987
25.5915
24.0453
11.9156
11.9156
11.9422
11.9422
23.3411
23.341
23.385
23.3849
12.4004
13.5158
12.4288
13.5478
23.9984
25.5393
24.0449
25.5909
15.6535
17.0353
15.6917
17.0747
28.6181
30.3223
28.6777
30.3833
16.95
15.5682
16.9931
15.6121
30.1737
28.472
30.2519
28.5487
13.4406
12.3321
13.4801
12.3683
25.4088
23.8776
25.4781
23.9423
11.8508
11.8509
11.8854
11.8854
23.2254
23.2254
23.2874
23.2874
12.3322
13.4408
12.3684
13.4802
23.8774
25.4085
23.942
25.4776
15.5681
16.9503
15.612
16.9933
28.4716
30.1734
28.548
30.2508
16.8421
15.4622
16.8972
15.5161
29.9825
28.2831
30.0813
28.3801
13.3493
12.2486
13.3967
12.2923
25.2421
23.7221
25.3291
23.8037
11.771
11.771
11.8129
11.8129
23.0754
23.0754
23.1543
23.1543
12.2487
13.3495
12.2924
13.3969
23.7219
25.2417
23.8035
25.3287
15.463
16.8423
15.516
16.8967
28.2824
29.9801
28.3793
30.0794
16.7255
15.346
16.7844
15.4052
29.76
28.0651
29.874
28.1769
13.2447
12.151
13.2988
12.2017
25.0431
23.5341
25.1462
23.6318
11.6768
11.6768
11.7258
11.7258
22.8928
22.8927
22.9879
22.9878
12.1511
13.2449
12.2018
13.299
23.534
25.0429
23.6317
25.1459
15.3469
16.7266
15.406
16.7853
28.065
29.7599
28.1765
29.8732
16.5853
15.209
16.657
15.2783
29.4979
27.8061
29.6326
27.9385
13.1241
12.0389
13.1862
12.0969
24.8093
23.3136
24.93
23.4277
11.5684
11.5684
11.6246
11.6246
22.6778
22.6777
22.7891
22.789
12.039
13.1243
12.097
13.1866
23.3134
24.809
23.4275
24.9298
15.2108
16.5886
15.2805
16.6595
27.8058
29.497
27.9388
29.6324
16.4346
15.061
16.5112
15.1366
29.2008
27.5135
29.3527
27.6629
12.9892
11.9125
13.0585
11.9776
24.5421
23.0606
24.6794
23.1909
11.4457
11.4457
11.509
11.509
22.4301
22.43
22.5578
22.5577
11.9123
12.9881
11.9775
13.0579
23.0601
24.5409
23.1906
24.6786
15.0558
16.4291
15.134
16.51
27.5093
29.1967
27.6603
29.3501
16.2629
14.8938
16.3493
14.9783
28.8631
27.1823
29.0347
27.3509
12.839
11.7715
12.916
11.844
24.2411
22.7744
24.3955
22.9215
11.3086
11.3085
11.3792
11.3791
22.1493
22.1491
22.2937
22.2935
11.7712
12.8384
11.8437
12.9151
22.7738
24.2399
22.9209
24.3942
14.8912
16.2591
14.9743
16.3443
27.1802
28.8622
27.3478
29.032
16.0699
14.7078
16.1686
14.8022
28.4871
26.812
28.6793
27.001
12.6729
11.6154
12.758
11.6955
23.904
22.4538
24.0767
22.6183
11.1565
11.1565
11.2346
11.2345
21.8342
21.834
21.9959
21.9957
11.6152
12.6725
11.6953
12.7574
22.4533
23.903
22.6176
24.0754
14.7085
16.0709
14.8012
16.1666
26.81
28.4848
26.9983
28.6776
15.8611
14.5073
15.9663
14.6089
28.0663
26.3993
28.2802
26.6087
12.4906
11.4439
12.5837
11.5317
23.5297
22.0978
23.7209
22.28
10.9895
10.9895
11.075
11.0749
21.4842
21.4841
21.6629
21.6627
11.4439
12.491
11.5316
12.5839
22.0975
23.5296
22.2797
23.7206
14.5072
15.862
14.6098
15.969
26.401
28.0691
26.6095
28.281
15.6325
14.2878
15.7491
14.3991
27.6096
25.9498
27.8431
26.179
12.2922
11.2568
12.3936
11.3525
23.1184
21.7047
23.3286
21.9057
10.8076
10.8075
10.9007
10.9007
21.0995
21.0993
21.2963
21.2961
11.2567
12.2921
11.3525
12.3937
21.7043
23.1177
21.9054
23.3282
14.2878
15.6317
14.3989
15.748
25.9484
27.6068
26.1785
27.8417
15.3788
14.0478
15.5075
14.1693
27.1015
25.4529
27.3594
25.7046
12.0761
11.0532
12.1862
11.1572
22.667
21.2737
22.8971
21.4937
10.6096
10.6096
10.7107
10.7107
20.6775
20.6773
20.8929
20.8928
11.0531
12.076
11.1571
12.1862
21.2732
22.6663
21.4932
22.8963
14.0501
15.3816
14.1702
15.5076
25.4524
27.1001
25.7038
27.3574
15.1088
13.7917
15.2452
13.9216
26.5566
24.9172
26.8331
25.1897
11.843
10.8331
11.9618
10.9454
22.1771
20.8046
22.4268
21.0438
10.3954
10.3954
10.5047
10.5047
20.2178
20.2177
20.4522
20.4521
10.833
11.8427
10.9453
11.9616
20.8043
22.1762
21.0434
22.4259
13.7904
15.1065
13.9216
15.2467
24.9149
26.5515
25.188
26.8309
14.8101
13.5117
14.9622
13.6534
25.9561
24.3301
26.2618
24.6277
11.5908
10.5956
11.7192
10.7166
21.6454
20.2964
21.9159
20.5552
10.1645
10.1645
10.2822
10.2822
19.7198
19.7198
19.9735
19.9734
10.5957
11.591
10.7166
11.7191
20.2963
21.6453
20.555
21.9154
13.5135
14.811
13.6536
14.9603
24.33
25.9544
24.6263
26.2578
14.4903
13.2147
14.6512
13.3643
25.3111
23.7013
25.6376
24.0198
11.3211
10.341
11.4581
10.4705
21.0726
19.7489
21.3639
20.0274
9.91666
9.91671
10.0428
10.0429
19.1832
19.1831
19.4562
19.4562
10.3412
11.3218
10.4707
11.4585
19.7489
21.0729
20.0274
21.364
13.2171
14.4925
13.3664
14.6528
23.7025
25.309
24.0202
25.6349
14.1518
12.9012
14.3217
13.0586
24.6227
23.032
24.9706
23.3698
11.0342
10.069
11.1798
10.2073
20.4598
19.1621
20.7707
19.4602
9.65169
9.65171
9.78645
9.78648
18.6077
18.6076
18.9001
18.9001
10.0691
11.0346
10.2074
11.1805
19.162
20.4599
19.4602
20.7709
12.9026
14.154
13.0612
14.3252
23.0326
24.6234
23.3712
24.9708
13.7899
12.5661
13.9738
12.7361
23.8864
22.3161
24.2603
22.6791
10.7279
9.77899
10.8836
9.9264
19.8059
18.5357
20.1379
18.8537
9.36922
9.36922
9.51278
9.51279
17.9933
17.9932
18.3052
18.3051
9.779
10.728
9.92645
10.8839
18.5356
19.8058
18.8536
20.1378
12.5664
13.7906
12.7369
13.9751
22.3159
23.8862
22.6793
24.2606
13.3964
12.2046
13.5961
12.3876
23.0963
21.5493
23.4969
21.9376
10.4008
9.47043
10.5669
9.6271
19.1095
17.8698
19.4626
18.2074
9.06903
9.06903
9.22144
9.22144
17.3404
17.3403
17.6714
17.6714
9.47042
10.4008
9.6271
10.5669
17.8696
19.1092
18.2073
19.4624
12.2047
13.3966
12.3877
13.5964
21.5489
23.0957
21.9372
23.4964
12.9768
11.821
13.1887
12.0146
22.2581
20.7374
22.6819
21.1475
10.0543
9.14386
10.2299
9.30943
18.3729
17.1657
18.7457
17.5222
8.75143
8.75143
8.91248
8.91247
16.6501
16.65
16.9996
16.9996
9.14384
10.0543
9.30942
10.2299
17.1655
18.3726
17.522
18.7454
11.8211
12.977
12.0146
13.1889
20.7369
22.2575
21.147
22.6812
12.5352
11.4179
12.7578
11.621
21.3778
19.8859
21.8221
20.3153
9.68967
8.8
9.87415
8.97413
17.5989
16.4253
17.9902
16.7998
8.41688
8.41688
8.58635
8.58634
15.9239
15.9238
16.2912
16.2912
8.79998
9.68967
8.97412
9.87415
16.4251
17.5986
16.7996
17.9898
11.418
12.5354
11.6211
12.758
19.8854
21.3771
20.3148
21.8215
12.0743
10.9971
12.3063
11.2089
20.4584
18.997
20.922
19.445
9.30786
8.43929
9.50088
8.62182
16.7893
15.65
17.1982
16.0418
8.06565
8.06565
8.24344
8.24344
15.163
15.163
15.5476
15.5476
8.43927
9.30786
8.6218
9.50087
15.6499
16.789
16.0416
17.1979
10.9971
12.0745
11.2089
12.3065
18.9965
20.4578
19.4445
20.9214
11.5957
10.5593
11.8364
10.7796
19.5021
18.0724
19.984
18.538
8.90912
8.0617
9.11061
8.25271
15.9453
14.8407
16.3713
15.2495
7.69758
7.69758
7.88384
7.88383
14.3682
14.3681
14.7697
14.7697
8.06169
8.90911
8.25269
9.1106
14.8405
15.945
15.2493
16.371
10.5594
11.5958
10.7796
11.8366
18.0719
19.5015
18.5376
19.9834
11.1001
10.1047
11.3493
10.3335
18.5092
17.1134
19.0095
17.5962
8.49288
7.66646
8.70326
7.86645
15.0669
13.9971
15.5102
14.4231
7.31181
7.31181
7.50709
7.50708
13.5391
13.539
13.9578
13.9578
7.66644
8.49287
7.86644
8.70326
13.997
15.0667
14.4229
15.5099
10.1048
11.1003
10.3335
11.3495
17.113
18.5086
17.5958
19.0089
10.5867
9.6315
10.8451
9.86996
17.4774
16.1193
17.9977
16.62
8.05692
7.25137
8.2776
7.46168
14.1526
13.1173
14.6143
13.5619
6.90629
6.90628
7.11178
7.11178
12.6737
12.6736
13.111
13.1109
7.25135
8.0569
7.46166
8.27759
13.1172
14.1523
13.5617
14.614
9.63154
10.5869
9.87
10.8453
16.1189
17.4768
16.6195
17.9972
10.0509
9.13322
10.3214
9.3856
16.3997
15.0864
16.9441
15.6073
7.5949
6.81157
7.82985
7.03508
13.1954
12.1955
13.6799
12.6621
6.47719
6.47718
6.69506
6.69505
11.7674
11.7674
12.226
12.2259
6.81155
7.59489
7.03506
7.82983
12.1953
13.1951
12.662
13.6796
9.13326
10.051
9.38563
10.3216
15.086
16.3992
15.6069
16.9436
9.48282
8.58362
9.77091
8.86776
15.2717
13.9959
15.8407
14.551
7.08789
6.33737
7.34917
6.57963
12.1725
11.2185
12.6948
11.7149
6.01978
6.01977
6.25227
6.25226
10.8139
10.8139
11.2967
11.2967
6.33734
7.08787
6.57961
7.34916
11.2184
12.1722
11.7147
12.6945
8.58365
9.48293
8.86779
9.77102
13.9955
15.2712
14.5506
15.8402
8.89042
7.82661
9.18693
8.25676
14.0739
12.632
14.6941
13.3858
6.48236
5.81898
6.80252
6.0835
11.0104
10.1728
11.6158
10.7037
5.53743
5.53742
5.7806
5.78059
9.81879
9.81874
10.3197
10.3196
5.81896
6.48234
6.08347
6.8025
10.1726
11.0102
10.7035
11.6155
7.82663
8.89052
8.25678
9.18703
12.6316
14.0734
13.3854
14.6936
10.4279
9.63237
9.4638
8.78268
10.9258
9.98382
9.54485
8.81569
8.34047
7.54089
7.51263
6.74205
8.39978
7.47242
7.31539
6.44926
7.16168
7.16178
6.38182
6.38189
7.04698
7.04701
6.05644
6.05644
7.54122
8.34112
6.7423
7.51315
7.47252
8.40006
6.4493
7.31555
9.63351
10.4295
8.78365
9.46522
9.98448
10.927
8.81618
9.54574
11.6637
10.8314
11.1446
10.321
12.5095
11.4779
11.8705
10.8623
9.49907
8.67163
8.99773
8.17802
9.79846
8.81479
9.20891
8.2426
8.27768
8.2778
7.78842
7.78854
8.36267
8.36272
7.79899
7.79903
8.67203
9.49983
8.17839
8.99845
8.81497
9.79886
8.24275
9.20926
10.8326
11.6655
10.3223
11.1463
11.4787
12.5109
10.8631
11.8718
12.3308
11.4991
12.0443
11.2109
13.3011
12.2591
12.9631
11.9236
10.1748
9.34972
9.88074
9.0529
10.5724
9.58195
10.237
9.2474
8.95604
8.95617
8.65822
8.65835
9.126
9.12606
8.7921
8.79216
9.35014
10.1756
9.05331
9.88152
9.58216
10.5728
9.24759
10.2374
11.5004
12.3326
11.2122
12.0461
12.26
13.3024
11.9245
12.9644
12.7133
11.8895
12.5462
11.7184
13.7564
12.7169
13.5563
12.5151
10.5837
9.7687
10.4035
9.58335
11.0416
10.0567
10.8339
9.84583
9.37938
9.37951
9.19169
9.19182
9.60288
9.60294
9.39065
9.39072
9.76912
10.5845
9.58377
10.4043
10.057
11.0421
9.84605
10.8344
11.8907
12.7151
11.7196
12.548
12.7177
13.7577
12.516
13.5577
12.9413
12.1261
12.8409
12.0217
14.037
13.0025
13.912
12.8751
10.84
10.0363
10.7264
9.91725
11.3428
10.3663
11.2082
10.2276
9.65204
9.65217
9.5305
9.53063
9.91598
9.91605
9.77546
9.77552
10.0367
10.8408
9.91767
10.7272
10.3665
11.3433
10.2278
11.2087
12.1274
12.943
12.0229
12.8426
13.0033
14.0383
12.876
13.9134
13.0765
12.2695
13.0171
12.2064
14.2128
13.1837
14.1343
13.1027
11.0018
10.2089
10.9303
10.1323
11.54
10.5722
11.4518
10.4799
9.82959
9.82972
9.75058
9.75071
10.1258
10.1259
10.0315
10.0316
10.2093
11.0025
10.1327
10.9311
10.5724
11.5404
10.4801
11.4523
12.2707
13.0782
12.2076
13.0188
13.1845
14.2141
13.1035
14.1356
13.1516
12.3516
13.1194
12.3162
14.3197
13.2956
14.2725
13.2461
11.1009
10.318
11.0578
10.2702
11.6672
10.7081
11.6109
10.6476
9.94331
9.94343
9.89329
9.89341
10.2656
10.2657
10.2033
10.2033
10.3183
11.1016
10.2706
11.0586
10.7083
11.6677
10.6479
11.6113
12.3528
13.1532
12.3174
13.1211
13.2964
14.321
13.2469
14.2738
13.1851
12.3913
13.1719
12.3753
14.3781
13.3587
14.3531
13.3316
11.1559
10.3822
11.133
10.355
11.7448
10.794
11.7113
10.7566
10.0118
10.012
9.98259
9.98271
10.3553
10.3554
10.316
10.3161
10.3826
11.1566
10.3554
11.1337
10.7942
11.7452
10.7568
11.7117
12.3924
13.1866
12.3764
13.1735
13.3595
14.3794
13.3324
14.3543
13.1882
12.3997
13.1891
12.3982
14.4008
13.3854
14.3924
13.3752
11.1785
10.4134
11.1707
10.4015
11.7853
10.8426
11.7691
10.8225
10.047
10.0471
10.0333
10.0334
10.4075
10.4076
10.3857
10.3858
10.4137
11.1792
10.4019
11.1714
10.8428
11.7858
10.8228
11.7695
12.4008
13.1897
12.3993
13.1906
13.3862
14.402
13.376
14.3936
13.1683
12.3844
13.1801
12.3942
14.3956
13.3838
14.4004
13.387
11.1763
10.4192
11.1802
10.4193
11.7971
10.8621
11.7944
10.8557
10.0566
10.0567
10.0548
10.055
10.4306
10.4307
10.4225
10.4226
10.4195
11.177
10.4196
11.1809
10.8623
11.7975
10.856
11.7949
12.3854
13.1698
12.3952
13.1816
13.3846
14.3969
13.3878
14.4017
13.1297
12.3498
13.1504
12.3687
14.3675
13.359
14.3835
13.3735
11.1542
10.4047
11.1676
10.4144
11.7855
10.8583
11.794
10.863
10.0458
10.0459
10.0537
10.0538
10.4304
10.4304
10.4333
10.4334
10.4051
11.1548
10.4148
11.1682
10.8585
11.7859
10.8632
11.7944
12.3508
13.1311
12.3697
13.1518
13.3596
14.3686
13.3743
14.3848
13.0753
12.299
13.1037
12.3257
14.3193
13.3138
14.345
13.3382
11.1156
10.3736
11.1368
10.3912
11.7542
10.835
11.7721
10.849
10.0181
10.0183
10.034
10.0342
10.4108
10.4109
10.423
10.4231
10.3739
11.1162
10.3915
11.1374
10.8352
11.7546
10.8492
11.7725
12.3
13.0766
12.3267
13.105
13.3148
14.3208
13.3388
14.3459
13.0084
12.2354
13.0423
12.268
14.2559
13.2537
14.2876
13.2841
11.0635
10.3287
11.0911
10.3528
11.7073
10.7958
11.7324
10.8174
9.97665
9.97675
9.99918
9.99928
10.3753
10.3753
10.3951
10.3952
10.329
11.0641
10.3532
11.0917
10.796
11.7077
10.8176
11.7328
12.2364
13.0096
12.2689
13.0436
13.2537
14.2562
13.2848
14.289
12.9313
12.1607
12.9707
12.1991
14.1817
13.1815
14.2196
13.2186
11
10.272
11.0332
10.3019
11.6474
10.7431
11.679
10.7712
9.92322
9.92332
9.95151
9.95162
10.3259
10.3259
10.3524
10.3524
10.2723
11.0006
10.3022
11.0338
10.7433
11.6478
10.7714
11.6794
12.1616
12.9326
12.2
12.972
13.1828
14.1833
13.2191
14.22
12.8432
12.0756
12.887
12.1183
14.0966
13.0983
14.1391
13.1402
10.9259
10.2047
10.9641
10.2397
11.5754
10.6781
11.6127
10.7122
9.85915
9.85926
9.89261
9.89272
10.2642
10.2643
10.2967
10.2967
10.205
10.9265
10.24
10.9647
10.6783
11.5758
10.7124
11.6132
12.0765
12.8445
12.1192
12.8883
13.0984
14.0969
13.141
14.1407
12.7471
11.9818
12.7957
12.0291
14.0005
13.0036
14.0494
13.0518
10.8427
10.1279
10.8854
10.1676
11.4923
10.6019
11.5352
10.6415
9.78544
9.78554
9.82362
9.82373
10.1912
10.1913
10.2292
10.2293
10.1283
10.8434
10.1679
10.886
10.6021
11.4928
10.6417
11.5356
11.9828
12.7484
12.03
12.797
13.0049
14.0021
13.0523
14.0496
12.6439
11.8806
12.6955
11.9316
13.8941
12.8993
13.9473
12.9518
10.7507
10.0421
10.7978
10.0862
11.3987
10.515
11.4468
10.5599
9.70254
9.70265
9.74529
9.7454
10.1075
10.1076
10.1509
10.1509
10.0424
10.7513
10.0866
10.7985
10.5152
11.3991
10.5601
11.4472
11.8816
12.6452
11.9326
12.6968
12.8994
13.8946
12.9525
13.949
12.5302
11.7693
12.5878
11.8255
13.7756
12.7827
13.8359
12.8419
10.6496
9.94707
10.7013
9.99584
11.2941
10.4173
11.3478
10.4676
9.61052
9.61062
9.65783
9.65794
10.0132
10.0132
10.0619
10.0619
9.94737
10.6502
9.99617
10.7019
10.4175
11.2944
10.4679
11.3483
11.7702
12.5314
11.8265
12.5891
12.784
13.7775
12.8426
13.8365
12.4076
11.6494
12.4692
11.71
13.6455
12.6555
13.7108
12.7197
10.539
9.84273
10.5955
9.89621
11.1782
10.3087
11.2375
10.3645
9.5092
9.50927
9.56118
9.56126
9.90797
9.90798
9.96208
9.96212
9.84293
10.5393
9.89645
10.5959
10.3087
11.1781
10.3646
11.2376
11.6499
12.4083
11.7106
12.4701
12.6543
13.6439
12.7197
13.7116
12.2731
11.5183
12.3413
11.5846
13.5017
12.5153
13.5747
12.5863
10.4186
9.7288
10.4801
9.78711
11.0509
10.189
11.116
10.2504
9.39839
9.39844
9.45514
9.4552
9.79181
9.7918
9.85144
9.85144
9.72894
10.4189
9.78727
10.4804
10.189
11.0509
10.2504
11.1159
11.5187
12.2737
11.585
12.342
12.5158
13.5021
12.5858
13.5732
12.1279
11.3774
12.201
11.4486
13.344
12.363
13.4234
12.44
10.2879
9.60488
10.3546
9.66822
10.9115
10.0578
10.9828
10.125
9.27776
9.27781
9.33946
9.3395
9.66432
9.66432
9.72965
9.72964
9.60503
10.2881
9.66836
10.3548
10.0578
10.9116
10.125
10.9827
11.3778
12.1286
11.4491
12.2016
12.3624
13.3437
12.4399
13.4242
11.9691
11.2241
12.0497
11.3016
13.1713
12.1966
13.259
12.2807
10.1464
9.47065
10.2185
9.53918
10.7598
9.91464
10.8372
9.9878
9.14703
9.14709
9.2138
9.21386
9.52528
9.52531
9.59639
9.59641
9.47085
10.1469
9.53935
10.2189
9.91478
10.7601
9.98789
10.8374
11.2248
11.9701
11.3021
12.0506
12.1979
13.173
12.2812
13.2591
11.7985
11.0602
11.8846
11.1431
12.9845
12.0174
13.0795
12.1085
9.99399
9.32579
10.0717
9.39969
10.5954
9.75941
10.6793
9.83873
9.00586
9.00591
9.0779
9.07796
9.37436
9.37438
9.45149
9.45152
9.32596
9.99428
9.39988
10.072
9.75949
10.5956
9.83885
10.6796
11.0607
11.7994
11.1438
11.8855
12.0178
12.985
12.1092
13.0809
11.6126
10.8828
11.7069
10.9724
12.7792
11.8229
12.8827
11.9209
9.82993
9.1699
9.91339
9.24933
10.4175
9.59145
10.508
9.67713
8.8539
8.85395
8.93136
8.93141
9.21108
9.21109
9.29441
9.29442
9.17004
9.83023
9.24948
9.91369
9.59149
10.4176
9.67717
10.5082
10.8833
11.6133
10.9729
11.7077
11.8237
12.7807
11.9217
12.8836
11.4145
10.6943
11.5143
10.7896
12.5601
11.6157
12.6704
11.7203
9.65434
9.0028
9.74364
9.08788
10.2263
9.41068
10.3236
9.50282
8.69094
8.69099
8.77394
8.77398
9.03523
9.03525
9.12488
9.12489
9.00295
9.65459
9.08802
9.74391
9.41073
10.2264
9.50285
10.3237
10.6948
11.4151
10.7901
11.515
11.6152
12.5595
11.7205
12.6715
11.2
10.4917
11.3088
10.5942
12.3208
11.391
12.4424
11.5046
9.46655
8.82416
9.56197
8.91503
10.0209
9.21659
10.1254
9.31541
8.51672
8.51678
8.60537
8.60542
8.84647
8.84651
8.9426
8.94263
8.82435
9.46693
8.9152
9.56228
9.21675
10.0212
9.31551
10.1256
10.4923
11.2009
10.5946
11.3096
11.3923
12.3225
11.505
12.4421
10.9723
10.2775
11.0869
10.3855
12.0654
11.1529
12.194
11.273
9.26686
8.6339
9.36821
8.73059
9.80176
9.00918
9.91303
9.11466
8.33105
8.33111
8.42544
8.4255
8.64461
8.64467
8.74731
8.74736
8.6341
9.26724
8.73079
9.3686
9.00939
9.80222
9.11485
9.91344
10.2782
10.9731
10.3862
11.0877
11.1533
12.0664
11.2739
12.196
10.7305
10.0503
10.8526
10.165
11.7945
10.9007
11.931
11.0278
9.05494
8.43178
9.16247
8.53443
9.56895
8.78831
9.68706
8.90055
8.13371
8.13377
8.23396
8.23402
8.42945
8.42949
8.53883
8.53888
8.43195
9.05527
8.53462
9.16282
8.78846
9.56928
8.90073
9.68749
10.0509
10.7314
10.1656
10.8535
10.9015
11.7955
11.0283
11.9316
10.4727
9.80876
10.6031
9.93089
11.5058
10.6325
11.6519
10.7681
8.83002
8.21742
8.94415
8.32624
9.32125
8.55339
9.44706
8.67274
7.92448
7.92453
8.0307
8.03074
8.20065
8.20067
8.31688
8.31692
8.21756
8.83029
8.32639
8.94445
8.55348
9.32145
8.67286
9.44732
9.80924
10.4734
9.93141
10.6039
10.6329
11.5065
10.7688
11.6529
10.1981
9.5527
10.3368
9.68198
11.1949
10.3454
11.3523
10.4905
8.59199
7.99077
8.71262
8.1057
9.05767
8.30405
9.19141
8.4306
7.70334
7.70338
7.81548
7.81552
7.95803
7.95805
8.08116
8.08118
7.9909
8.59224
8.10584
8.71288
8.30412
9.05782
8.43067
9.19158
9.55314
10.1987
9.68243
10.3374
10.3457
11.1954
10.4909
11.3529
9.90907
9.2836
10.0547
9.41919
10.8649
10.0419
11.0313
10.1949
8.34163
7.75228
8.4683
7.87306
8.77921
8.04075
8.92022
8.17419
7.47058
7.47062
7.58848
7.58852
7.70187
7.70189
7.83171
7.83173
7.75241
8.34188
7.87318
8.46855
8.04082
8.77935
8.17426
8.92037
9.28402
9.9097
9.41962
10.0553
10.0422
10.8653
10.1952
11.0318
9.60767
9.00303
9.75927
9.1442
10.5191
9.72395
10.6931
9.884
8.0799
7.50253
8.21216
7.62886
8.48702
7.76415
8.63477
7.90417
7.22664
7.22667
7.35008
7.35011
7.43262
7.43264
7.56896
7.56897
7.50266
8.08015
7.62899
8.2124
7.76422
8.48717
7.90423
8.63492
9.00344
9.60829
9.14462
9.75989
9.72424
10.5195
9.88429
10.6936
9.29566
8.71217
9.45236
8.85837
10.1597
9.3932
10.3403
9.55952
7.80751
7.24192
7.94503
7.37365
8.18193
7.47467
8.33606
7.62109
6.97175
6.97179
7.10064
7.10068
7.15051
7.15053
7.29326
7.29328
7.24204
7.80774
7.37377
7.94526
7.47474
8.18207
7.62116
8.3362
8.71257
9.29626
8.85878
9.45297
9.39347
10.1601
9.55981
10.3408
8.97444
8.41184
9.13563
8.56271
9.78811
9.0504
9.97469
9.2227
7.52477
6.9705
7.66744
7.10765
7.8642
7.1723
8.02465
7.3252
6.70586
6.7059
6.84029
6.84033
6.85541
6.85543
7.0047
7.00472
6.97061
7.52499
7.10777
7.66767
7.17236
7.86434
7.32526
8.02479
8.41223
8.97502
8.56311
9.13622
9.05067
9.78855
9.22297
9.97514
8.64473
8.10224
8.81014
8.25779
9.40513
8.6956
9.59742
8.87398
7.23135
6.68767
7.37947
6.83066
7.53336
6.85629
7.70051
7.01616
6.42828
6.42832
6.56869
6.56873
6.54649
6.54651
6.70285
6.70287
6.68778
7.23157
6.83077
7.37969
6.85635
7.53349
7.01622
7.70064
8.10261
8.64528
8.25818
8.81071
8.69585
9.40555
8.87424
9.59785
8.30589
7.78212
8.47606
7.94322
9.00975
8.32706
9.20853
8.5127
6.92559
6.39171
7.08021
6.54156
7.18728
6.52456
7.36246
6.69267
6.13734
6.13737
6.2847
6.28474
6.22177
6.22179
6.38636
6.38638
6.39182
6.92579
6.54167
7.08042
6.52462
7.1874
6.69272
7.36258
7.78248
8.30642
7.94359
8.4766
8.3273
9.01014
8.51295
9.20894
7.95532
7.44711
8.13182
7.61656
8.5977
7.93872
8.80565
8.13552
6.60282
6.07896
6.76684
6.23783
6.82006
6.17253
7.00696
6.35157
5.83019
5.83022
5.98607
5.9861
5.8777
5.87771
6.0525
6.05252
6.07906
6.60302
6.23793
6.76704
6.17258
6.82017
6.35162
7.00707
7.44746
7.95583
7.61691
8.13234
7.93895
8.59807
8.13576
8.80603
7.59157
7.0816
7.77415
7.2698
8.16178
7.50844
8.38227
7.73119
6.25036
5.7431
6.43168
5.91442
6.41493
5.79165
6.62408
5.98642
5.50424
5.50426
5.66962
5.66965
5.51028
5.5103
5.69708
5.69709
5.74319
6.25054
5.91451
6.43187
5.79169
6.41503
5.98646
6.62419
7.08192
7.59205
7.27013
7.77464
7.50865
8.16213
7.73141
8.38263
7.24308
6.59827
7.4122
6.8689
7.72125
6.91775
7.93904
7.25205
5.8377
5.38181
6.05402
5.5649
5.92956
5.37569
6.1859
5.58753
5.16599
5.16601
5.33536
5.33539
5.12458
5.12459
5.31849
5.3185
5.38189
5.83786
5.56499
6.05419
5.37572
5.92965
5.58757
6.18599
6.59856
7.24353
6.8692
7.41266
6.91793
7.72157
7.25224
7.93938
10.0889
9.48357
9.44821
8.89954
10.2
9.51435
9.44178
8.83211
8.54027
7.92996
7.93907
7.3288
8.42559
7.73182
7.73807
7.05451
7.63172
7.63191
7.03459
7.03476
7.3964
7.39655
6.72878
6.72891
7.93054
8.5413
7.32931
7.93999
7.7323
8.42648
7.05491
7.73883
9.48514
10.091
8.90097
9.45007
9.51577
10.2019
8.83336
9.44348
10.9739
10.3676
10.5877
9.97921
11.2234
10.5248
10.7829
10.0859
9.4285
8.81971
9.0343
8.4229
9.42487
8.72176
8.98539
8.28356
8.52121
8.52142
8.12352
8.12372
8.38045
8.38063
7.94342
7.94359
8.82035
9.42962
8.42352
9.03539
8.72231
9.42585
8.28408
8.98634
10.3693
10.9761
9.98085
10.5898
10.5263
11.2254
10.0874
10.7849
11.4989
10.9022
11.2701
10.6683
11.8079
11.1158
11.5549
10.8589
9.9834
9.38613
9.73915
9.13568
10.0321
9.33712
9.76624
9.06633
9.09274
9.09295
8.83945
8.83966
8.99907
8.99925
8.72613
8.72631
9.38677
9.98452
9.13633
9.74027
9.33768
10.0331
9.06688
9.76723
10.9038
11.5011
10.67
11.2722
11.1174
11.8099
10.8604
11.5569
11.8071
11.2215
11.6728
11.0818
12.1464
11.4646
11.9989
11.312
10.3253
9.74163
10.1749
9.58458
10.4024
9.71994
10.2395
9.55082
9.45461
9.45482
9.29439
9.2946
9.38758
9.38775
9.21556
9.21574
9.74225
10.3263
9.58521
10.176
9.72049
10.4033
9.55137
10.2405
11.2231
11.8091
11.0834
11.6748
11.4661
12.1484
11.3135
12.0009
11.9854
11.4103
11.9081
11.3281
12.3443
11.6726
12.258
11.5815
10.535
9.96431
10.443
9.86618
10.6313
9.96141
10.5305
9.85458
9.68345
9.68364
9.58235
9.58255
9.6349
9.63507
9.52522
9.52539
9.96491
10.536
9.86679
10.4441
9.96194
10.6322
9.85512
10.5314
11.4119
11.9873
11.3296
11.9101
11.6741
12.3462
11.583
12.2599
12.0828
11.517
12.0414
11.4713
12.4565
11.7939
12.4081
11.7412
10.6603
10.1013
10.6061
10.0416
10.7715
10.1132
10.7102
10.0464
9.82602
9.82621
9.7636
9.76379
9.7921
9.79227
9.72275
9.72291
10.1019
10.6613
10.0421
10.6071
10.1137
10.7724
10.047
10.7111
11.5185
12.0847
11.4728
12.0434
11.7952
12.4584
11.7427
12.41
12.1277
11.5697
12.11
11.5484
12.5132
11.8583
12.4899
11.8314
10.7295
10.1808
10.7007
10.1471
10.8529
10.205
10.8182
10.1654
9.91053
9.91071
9.87445
9.87463
9.8889
9.88906
9.84694
9.8471
10.1814
10.7305
10.1477
10.7017
10.2055
10.8538
10.1659
10.8191
11.5711
12.1295
11.5498
12.1119
11.8596
12.515
11.8327
12.4916
12.1364
11.5852
12.1352
11.5809
12.5318
11.8835
12.5258
11.8745
10.7596
10.2202
10.7487
10.2049
10.8933
10.2549
10.8774
10.2345
9.95435
9.95452
9.9369
9.93708
9.94324
9.9434
9.92075
9.92091
10.2207
10.7605
10.2054
10.7496
10.2554
10.8942
10.235
10.8783
11.5865
12.1382
11.5822
12.1369
11.8848
12.5335
11.8758
12.5275
12.1197
11.5742
12.1302
11.5821
12.5231
11.8805
12.5296
11.8845
10.7616
10.2304
10.7636
10.2286
10.904
10.2741
10.9019
10.268
9.96852
9.96869
9.9648
9.96497
9.9665
9.96665
9.95842
9.95857
10.2309
10.7625
10.2291
10.7645
10.2745
10.9048
10.2684
10.9027
11.5754
12.1214
11.5834
12.1319
11.8817
12.5247
11.8857
12.5313
12.0837
11.543
12.1032
11.5603
12.4937
11.856
12.51
11.8701
10.7423
10.2186
10.7543
10.2271
10.8921
10.27
10.9006
10.2747
9.96039
9.96055
9.96707
9.96723
9.96614
9.96628
9.96908
9.96923
10.2191
10.7431
10.2276
10.7551
10.2704
10.8928
10.2752
10.9013
11.5442
12.0853
11.5616
12.1048
11.8572
12.4953
11.8713
12.5116
12.0328
11.4962
12.0594
11.5209
12.448
11.8145
12.4721
11.8366
10.7062
10.1895
10.7261
10.2061
10.8621
10.2474
10.8791
10.2609
9.9346
9.93475
9.94961
9.94977
9.94704
9.94717
9.95888
9.95901
10.1899
10.707
10.2066
10.7269
10.2478
10.8629
10.2613
10.8799
11.4974
12.0343
11.5221
12.0609
11.8156
12.4495
11.8378
12.4736
11.9697
11.4367
12.002
11.4674
12.3889
11.759
12.4194
11.7878
10.6567
10.1464
10.683
10.1696
10.8176
10.2097
10.8415
10.2304
9.89463
9.89478
9.91638
9.91653
9.91272
9.91285
9.93178
9.93191
10.1468
10.6575
10.1701
10.6838
10.2101
10.8183
10.2308
10.8422
11.4378
11.9711
11.4686
12.0035
11.76
12.3903
11.7889
12.4208
11.8966
11.3667
11.9337
11.4025
12.3188
11.692
12.3544
11.7263
10.5961
10.0917
10.6277
10.1205
10.7609
10.1596
10.7906
10.1862
9.84293
9.84307
9.87028
9.87043
9.86579
9.86592
9.89088
9.891
10.0922
10.5968
10.1209
10.6284
10.16
10.7616
10.1866
10.7913
11.3678
11.898
11.4035
11.9352
11.6931
12.3202
11.7274
12.3558
11.8149
11.2877
11.8563
11.3278
12.2392
11.6153
12.2795
11.6544
10.5258
10.0272
10.5621
10.0607
10.6939
10.0988
10.7287
10.1306
9.78115
9.78129
9.81337
9.8135
9.80803
9.80815
9.83834
9.83847
10.0276
10.5265
10.0612
10.5628
10.0992
10.6946
10.131
10.7294
11.2887
11.8163
11.3289
11.8577
11.6164
12.2407
11.6554
12.2809
11.7251
11.2004
11.7704
11.2446
12.1506
11.529
12.1954
11.5728
10.447
9.95378
10.4874
9.99164
10.6174
10.0284
10.6568
10.0649
9.71046
9.7106
9.74701
9.74715
9.74063
9.74075
9.77563
9.77575
9.9542
10.4477
9.99206
10.4882
10.0288
10.6181
10.0653
10.6575
11.2015
11.7265
11.2457
11.7718
11.5301
12.152