/*--------------------------------*- C++ -*----------------------------------*\
  =========                 |
  \\      /  F ield         | OpenFOAM: The Open Source CFD Toolbox
   \\    /   O peration     | Website:  https://openfoam.org
    \\  /    A nd           | Version:  9
     \\/     M anipulation  |
\*---------------------------------------------------------------------------*/
FoamFile
{
    format      ascii;
    class       volScalarField;
    location    "4.6";
    object      k;
}
// * * * * * * * * * * * * * * * * * * * * * * * * * * * * * * * * * * * * * //

dimensions      [0 2 -2 0 0 0 0];

internalField   nonuniform List<scalar> 
36360
(
1.80608
1.72986
1.57647
1.54291
0.760312
0.736698
0.563889
0.625234
1.54888
1.44792
1.36855
1.27022
0.664308
0.624208
0.547453
0.503058
1.40271
1.40269
1.22645
1.22643
0.606566
0.606557
0.484769
0.484759
1.44787
1.54881
1.27017
1.36846
0.624179
0.664261
0.503028
0.547404
1.72977
1.80597
1.5428
1.57634
0.736634
0.76023
0.625165
0.563805
2.01018
1.92637
1.93072
1.84757
0.866539
0.82874
0.828573
0.792454
1.74211
1.63968
1.66299
1.56046
0.753889
0.713856
0.717934
0.677951
1.59373
1.59372
1.51457
1.51456
0.696196
0.696187
0.660304
0.660295
1.63964
1.74204
1.56042
1.66292
0.713832
0.753849
0.677924
0.717891
1.92629
2.01009
1.84749
1.93062
0.828684
0.866469
0.792394
0.828497
2.11243
2.02856
2.06786
1.98398
0.914315
0.875669
0.893455
0.855114
1.84628
1.74534
1.80071
1.69899
0.801349
0.761823
0.780529
0.740707
1.70005
1.70004
1.65331
1.6533
0.744377
0.744369
0.723128
0.72312
1.74531
1.84623
1.69895
1.80065
0.761802
0.801314
0.740684
0.780491
2.0285
2.11235
1.98391
2.06778
0.87562
0.914252
0.855062
0.893388
2.17583
2.09233
2.14743
2.06372
0.944302
0.905481
0.93083
0.892038
1.9121
1.81263
1.88255
1.7824
0.831704
0.792751
0.818022
0.778801
1.76814
1.76813
1.73752
1.73751
0.77559
0.775584
0.761501
0.761494
1.8126
1.91205
1.78236
1.8825
0.792732
0.831673
0.778781
0.817988
2.09227
2.17576
2.06366
2.14736
0.905437
0.944246
0.891991
0.93077
2.21793
2.1349
2.19883
2.11556
0.96447
0.925744
0.955294
0.916498
1.95645
1.85822
1.93631
1.83751
0.852477
0.813957
0.843013
0.804289
1.81441
1.8144
1.79339
1.79338
0.79704
0.797034
0.787256
0.78725
1.85819
1.95641
1.83749
1.93627
0.813939
0.852449
0.804271
0.842983
2.13485
2.21787
2.11551
2.19876
0.925704
0.964418
0.916456
0.955239
2.24664
2.16404
2.23355
2.15074
0.978413
0.939857
0.972035
0.933386
1.98713
1.88992
1.97315
1.87547
0.867021
0.828877
0.860365
0.822046
1.84665
1.84664
1.83195
1.83194
0.812173
0.812168
0.805244
0.805238
1.8899
1.98709
1.87544
1.97311
0.828861
0.866994
0.822029
0.860337
2.16399
2.24659
2.15069
2.23349
0.93982
0.978364
0.933348
0.971984
2.26617
2.18392
2.25729
2.17486
0.988033
0.949683
0.983646
0.945183
2.00838
1.91204
1.99872
1.90198
0.87724
0.839424
0.872569
0.8346
1.86919
1.86919
1.85893
1.85892
0.82289
0.822885
0.817987
0.817982
1.91202
2.00834
1.90196
1.99868
0.83941
0.877216
0.834585
0.872544
2.18388
2.26612
2.17482
2.25723
0.949648
0.987987
0.945147
0.983597
2.27905
2.19707
2.27323
2.19113
0.994511
0.956367
0.991572
0.953322
2.02274
1.92715
2.01627
1.92034
0.88429
0.846764
0.881089
0.843429
1.88467
1.88466
1.87769
1.87768
0.830375
0.83037
0.82697
0.826966
1.92714
2.02271
1.92032
2.01624
0.846751
0.884268
0.843415
0.881066
2.19703
2.27902
2.19108
2.27319
0.956336
0.994478
0.953288
0.991526
2.28691
2.20509
2.28343
2.20155
0.998649
0.96066
0.996795
0.958736
2.03186
1.93695
2.02785
1.93263
0.888922
0.851658
0.886855
0.849469
1.89478
1.89478
1.89031
1.8903
0.835402
0.835398
0.833149
0.833145
1.93693
2.03183
1.93261
2.02782
0.851646
0.888903
0.849457
0.886834
2.20506
2.28689
2.20152
2.28342
0.960633
0.99862
0.958706
0.996771
2.2908
2.20903
2.28925
2.20745
1.00093
0.963052
0.999975
0.962034
2.03684
1.94255
2.03479
1.94021
0.891646
0.854624
0.890483
0.853347
1.90068
1.90067
1.8982
1.89819
0.838494
0.83849
0.837156
0.837152
1.94254
2.03682
1.9402
2.03477
0.854613
0.89163
0.853336
0.890466
2.20903
2.29081
2.20742
2.28921
0.963037
1.00094
0.962014
0.999959
2.29137
2.20958
2.29142
2.20965
1.00168
0.963857
1.00146
0.963621
2.03841
1.94474
2.038
1.94403
0.892803
0.85602
0.892393
0.855492
1.90314
1.90313
1.90229
1.90229
0.840014
0.840011
0.839425
0.839421
1.94472
2.03839
1.94401
2.03798
0.856009
0.892786
0.855481
0.892376
2.20954
2.29136
2.20965
2.29145
0.963837
1.00167
0.963603
1.00146
2.28909
2.20728
2.29046
2.20865
1.00112
0.963358
1.00152
0.963718
2.03718
1.94411
2.03809
1.94473
0.892667
0.85611
0.892858
0.856198
1.90278
1.90278
1.90327
1.90326
0.840222
0.840219
0.840259
0.840255
1.9441
2.03716
1.94471
2.03807
0.8561
0.892651
0.856188
0.892842
2.20732
2.2891
2.20863
2.29041
0.963342
1.0011
0.963701
1.00151
2.28501
2.20301
2.2872
2.20532
0.999616
0.961883
1.00046
0.962708
2.03364
1.94107
2.03566
1.94286
0.891444
0.855098
0.892174
0.855738
1.89998
1.89998
1.90166
1.90166
0.839333
0.83933
0.839919
0.839916
1.94106
2.03362
1.94285
2.03564
0.855089
0.89143
0.855729
0.892158
2.20296
2.28495
2.20534
2.28721
0.961858
0.999559
0.962686
1.00041
2.27854
2.19641
2.28192
2.19982
0.997052
0.959346
0.998404
0.960681
2.02798
1.93592
2.03102
1.93873
0.889242
0.853102
0.890442
0.854206
1.89506
1.89506
1.89777
1.89776
0.837447
0.837445
0.838498
0.838496
1.93591
2.02796
1.93872
2.03101
0.853095
0.88923
0.854198
0.890429
2.19638
2.27853
2.19981
2.2819
0.959328
0.99704
0.960661
0.99838
2.27085
2.18842
2.2748
2.19256
0.993789
0.95606
0.995496
0.957776
2.02051
1.92888
2.02445
1.93262
0.886198
0.850229
0.887808
0.851764
1.88824
1.88824
1.89188
1.89187
0.834677
0.834675
0.836162
0.83616
1.92888
2.0205
1.93262
2.02444
0.850224
0.88619
0.851757
0.887798
2.18835
2.27079
2.19251
2.27475
0.95605
0.99378
0.95776
0.995469
2.26099
2.17831
2.26606
2.18347
0.989575
0.951827
0.991748
0.954001
2.01121
1.92006
2.01605
1.92468
0.882315
0.846531
0.884342
0.848473
1.87964
1.87964
1.88415
1.88415
0.831078
0.831076
0.832972
0.83297
1.92006
2.01121
1.92468
2.01604
0.846527
0.882306
0.848468
0.884333
2.17836
2.26096
2.18342
2.26596
0.951811
0.989516
0.953984
0.991708
2.24986
2.16685
2.25552
2.17271
0.984675
0.946926
0.987188
0.949441
2.00032
1.90957
2.00596
1.91502
0.877671
0.842052
0.880078
0.844383
1.86934
1.86934
1.8747
1.8747
0.826685
0.826683
0.828974
0.828972
1.90957
2.00033
1.91502
2.00596
0.842049
0.877666
0.844379
0.880072
2.16691
2.2499
2.17276
2.25555
0.946926
0.984671
0.949433
0.987159
2.23651
2.15332
2.24335
2.16018
0.978891
0.94109
0.981868
0.944075
1.98766
1.89737
1.99418
1.90368
0.8722
0.836784
0.875025
0.839511
1.85736
1.85736
1.86356
1.86356
0.821499
0.821497
0.824186
0.824185
1.89737
1.98766
1.90368
1.9942
0.836779
0.872193
0.839507
0.875022
2.15345
2.23675
2.16035
2.24351
0.941086
0.978876
0.944085
0.981868
2.22188
2.13845
2.22936
2.14606
0.972302
0.934481
0.975678
0.93786
1.97333
1.88347
1.9807
1.89063
0.865926
0.830717
0.869152
0.833845
1.84367
1.84367
1.85073
1.85073
0.815507
0.815504
0.8186
0.818597
1.88344
1.97321
1.89061
1.98062
0.830705
0.865895
0.833837
0.869132
2.13798
2.22141
2.14582
2.22922
0.934378
0.972214
0.937796
0.975619
2.20511
2.1215
2.2136
2.1301
0.964804
0.926962
0.968614
0.930792
1.95716
1.8678
1.96545
1.87585
0.858829
0.823829
0.862473
0.827372
1.82824
1.82823
1.83618
1.83617
0.808685
0.808681
0.812197
0.812193
1.86777
1.9571
1.87582
1.96536
0.823815
0.858801
0.827359
0.862442
2.12125
2.20473
2.12973
2.21315
0.926913
0.964754
0.930718
0.968545
2.18607
2.1025
2.19581
2.11216
0.956395
0.918523
0.960693
0.922835
1.93911
1.85029
1.94836
1.85927
0.850847
0.81608
0.854942
0.820059
1.81099
1.81099
1.81985
1.81984
0.800996
0.800992
0.804947
0.804943
1.85027
1.93908
1.85925
1.94831
0.816067
0.850824
0.820044
0.854911
2.10257
2.18614
2.11208
2.19562
0.91848
0.956353
0.922776
0.960651
2.16535
2.08185
2.17585
2.09235
0.94696
0.90908
0.95176
0.913877
1.91913
1.83086
1.92935
1.84081
0.841942
0.807428
0.846497
0.811863
1.79184
1.79184
1.80166
1.80165
0.792412
0.792409
0.7968
0.796797
1.83086
1.91914
1.84081
1.92935
0.807422
0.841941
0.811855
0.84649
2.08176
2.16528
2.09239
2.17598
0.909112
0.947003
0.913893
0.951776
2.14225
2.05894
2.15404
2.07058
0.936654
0.898724
0.941937
0.904011
1.89714
1.80942
1.90839
1.8204
0.832101
0.797824
0.837138
0.802743
1.77068
1.77067
1.78151
1.78151
0.782923
0.78292
0.787784
0.787781
1.80941
1.89712
1.82039
1.90838
0.797814
0.832084
0.802735
0.837128
2.05894
2.14217
2.07052
2.15389
0.898694
0.936593
0.903999
0.941895
2.11658
2.03375
2.12966
2.04654
0.925112
0.887213
0.930978
0.893054
1.873
1.78589
1.88531
1.79791
0.821234
0.787226
0.826781
0.792644
1.74744
1.74743
1.75932
1.75931
0.772448
0.772445
0.777806
0.777802
1.78588
1.87301
1.7979
1.88531
0.787215
0.821218
0.792633
0.826765
2.03397
2.11682
2.04662
2.12965
0.887208
0.925091
0.89304
0.930937
2.08881
2.00656
2.10288
2.02037
0.912672
0.87472
0.918989
0.881084
1.84673
1.76022
1.86013
1.77333
0.809356
0.775611
0.81542
0.781544
1.72207
1.72206
1.73502
1.73502
0.760958
0.760955
0.766829
0.766825
1.76021
1.84669
1.77331
1.86011
0.775602
0.809335
0.781534
0.8154
2.00644
2.08864
2.02038
2.10303
0.874664
0.912565
0.881049
0.918957
2.05814
1.97672
2.07379
1.99186
0.898873
0.860923
0.905917
0.867932
1.8181
1.7323
1.83269
1.74654
0.796367
0.762927
0.802989
0.769399
1.69447
1.69447
1.70855
1.70855
0.74841
0.748409
0.754814
0.754812
1.73229
1.81811
1.74653
1.83267
0.762925
0.796364
0.769394
0.802977
1.97688
2.05822
1.99188
2.07364
0.860924
0.898836
0.867901
0.905822
2.02494
1.94471
2.04172
1.96089
0.883912
0.846024
0.891502
0.853586
1.78713
1.70207
1.80289
1.71747
0.782254
0.749143
0.789446
0.756171
1.66459
1.6646
1.67982
1.67982
0.734768
0.734768
0.741724
0.741723
1.70208
1.78718
1.71747
1.80292
0.749144
0.782261
0.756171
0.789449
1.94491
2.02515
1.96107
2.04187
0.846055
0.883868
0.853598
0.891441
1.98937
1.91051
2.00733
1.92776
0.86781
0.83002
0.875966
0.838116
1.75388
1.66949
1.77078
1.68607
0.767014
0.734228
0.774764
0.741824
1.63236
1.63236
1.64877
1.64877
0.719998
0.719997
0.727522
0.727522
1.6695
1.75391
1.68609
1.77083
0.734228
0.767017
0.741824
0.774771
1.91062
1.98955
1.92797
2.00761
0.830037
0.867827
0.838152
0.875975
1.95111
1.87371
1.97057
1.8924
0.850423
0.812732
0.859274
0.821521
1.7181
1.63445
1.73631
1.65229
0.750584
0.71814
0.758947
0.72633
1.59768
1.59768
1.61533
1.61533
0.704061
0.70406
0.712174
0.712173
1.63445
1.7181
1.65229
1.73632
0.718137
0.75058
0.726328
0.758946
1.87373
1.95114
1.89246
1.97066
0.812728
0.850419
0.821528
0.859282
1.90945
1.83384
1.93062
1.85406
0.831564
0.794007
0.841152
0.803515
1.67961
1.59684
1.69918
1.61597
0.732884
0.700834
0.741885
0.709636
1.56048
1.56048
1.5794
1.57939
0.686924
0.686922
0.69564
0.695639
1.59684
1.67961
1.61596
1.69917
0.70083
0.732877
0.709632
0.741879
1.83383
1.90944
1.85406
1.93062
0.793996
0.83155
0.803506
0.84114
1.86473
1.7912
1.88738
1.81278
0.811323
0.773934
0.821587
0.784105
1.63848
1.55665
1.65936
1.57707
0.713927
0.682302
0.723553
0.691717
1.52074
1.52073
1.54093
1.54092
0.66857
0.668569
0.677896
0.677894
1.55665
1.63847
1.57706
1.65935
0.682297
0.713919
0.691712
0.723546
1.79118
1.86472
1.81277
1.88737
0.773923
0.811307
0.784094
0.821572
1.81721
1.74592
1.84124
1.76881
0.789786
0.752601
0.800692
0.763397
1.59474
1.51388
1.61692
1.53559
0.693734
0.662539
0.703977
0.672571
1.47841
1.47841
1.4999
1.49989
0.648987
0.648985
0.658929
0.658928
1.51388
1.59473
1.53558
1.61691
0.662534
0.693726
0.672566
0.70397
1.7459
1.81719
1.76879
1.84123
0.75259
0.789771
0.763385
0.800676
1.76697
1.69803
1.79236
1.72222
0.766977
0.730002
0.77852
0.741434
1.54839
1.46848
1.57189
1.49151
0.672292
0.641524
0.683164
0.652186
1.43345
1.43345
1.45626
1.45626
0.628145
0.628144
0.638722
0.63872
1.46847
1.54838
1.4915
1.57187
0.641519
0.672284
0.652181
0.683156
1.69801
1.76695
1.72221
1.79234
0.72999
0.766962
0.741423
0.778504
1.71403
1.64749
1.74077
1.67302
0.742884
0.706119
0.755073
0.718197
1.49934
1.42033
1.5242
1.44475
0.649566
0.61921
0.661086
0.630529
1.38572
1.38572
1.40994
1.40993
0.605997
0.605995
0.617235
0.617233
1.42033
1.49932
1.44475
1.52419
0.619206
0.649558
0.630524
0.661078
1.64748
1.71401
1.67301
1.74076
0.706107
0.742869
0.718185
0.755057
1.65831
1.59416
1.68647
1.62112
0.717451
0.680913
0.730322
0.693661
1.4474
1.36924
1.47373
1.39517
0.625487
0.595518
0.637696
0.60754
1.33501
1.33501
1.36076
1.36075
0.582453
0.582452
0.594403
0.594402
1.36923
1.44739
1.39516
1.47372
0.595513
0.625479
0.607535
0.637687
1.59415
1.6583
1.6211
1.68645
0.680901
0.717436
0.693649
0.730306
1.59952
1.5377
1.62927
1.56628
0.690533
0.654283
0.704172
0.667761
1.39221
1.31481
1.42023
1.34247
0.599917
0.570295
0.612895
0.583107
1.28094
1.28094
1.30842
1.30842
0.557362
0.557361
0.570111
0.570109
1.3148
1.39219
1.34246
1.42022
0.57029
0.599909
0.583102
0.612887
1.53769
1.5995
1.56627
1.62925
0.654271
0.690518
0.667749
0.704157
1.53702
1.47731
1.56873
1.50801
0.661847
0.626024
0.676414
0.640352
1.33293
1.25631
1.36315
1.28613
0.572554
0.543252
0.586484
0.557023
1.22286
1.22286
1.25245
1.25244
0.530465
0.530463
0.544157
0.544155
1.2563
1.33291
1.28612
1.36314
0.543247
0.572546
0.557018
0.586476
1.4773
1.537
1.508
1.56871
0.626012
0.661832
0.640341
0.6764
1.47006
1.41035
1.50402
1.44493
0.631139
0.595481
0.64672
0.611125
1.26731
1.19237
1.30115
1.22513
0.542568
0.513836
0.557979
0.528884
1.15995
1.15994
1.19204
1.19204
0.501407
0.501406
0.516222
0.516221
1.19236
1.2673
1.22512
1.30114
0.513832
0.54256
0.528879
0.557971
1.41033
1.47004
1.44492
1.50401
0.59547
0.631124
0.611113
0.646705
1.40196
1.32158
1.43563
1.37118
0.597691
0.556136
0.615123
0.578047
1.18918
1.1215
1.23037
1.15779
0.507463
0.481387
0.525897
0.497994
1.09225
1.09224
1.12657
1.12657
0.470154
0.470152
0.48601
0.486008
1.1215
1.18917
1.15778
1.23036
0.481382
0.507455
0.497989
0.525889
1.32156
1.40195
1.37116
1.43561
0.556125
0.597677
0.578036
0.615109
2.66565
2.55846
2.47746
2.38726
2.32027
2.21728
2.11438
2.03493
2.37472
2.25851
2.20071
2.08456
2.02681
1.91146
1.84555
1.73227
2.20261
2.2026
2.0295
2.02948
1.85746
1.85744
1.67987
1.67986
2.25847
2.37467
2.08451
2.20064
1.91142
2.02674
1.73222
1.84547
2.55841
2.6656
2.38719
2.47738
2.2172
2.32018
2.03483
2.11426
2.90039
2.79201
2.80057
2.69167
2.54928
2.44276
2.45517
2.34865
2.60968
2.4944
2.50771
2.39155
2.25137
2.13558
2.15628
2.04004
2.43883
2.43882
2.3356
2.33558
2.08125
2.08124
1.98556
1.98555
2.49438
2.60965
2.39152
2.50767
2.13554
2.25131
2.04
2.15622
2.79199
2.90037
2.69164
2.80053
2.4427
2.54921
2.34858
2.4551
3.03671
2.93021
2.97659
2.86917
2.67355
2.5683
2.61915
2.51326
2.75203
2.63928
2.68899
2.57497
2.38022
2.26645
2.32356
2.20874
2.58488
2.58488
2.51998
2.51997
2.21305
2.21304
2.15485
2.15483
2.63927
2.75201
2.57495
2.68896
2.26642
2.38018
2.20871
2.32351
2.9302
3.03671
2.86916
2.97658
2.56826
2.6735
2.51321
2.6191
3.12325
3.01847
3.08439
2.97881
2.75119
2.64722
2.71638
2.61181
2.84408
2.73371
2.8027
2.69121
2.46233
2.35056
2.42547
2.31275
2.68045
2.68045
2.63741
2.6374
2.29812
2.29811
2.25985
2.25984
2.7337
2.84407
2.6912
2.80268
2.35053
2.46229
2.31273
2.42543
3.01847
3.12325
2.97881
3.08439
2.64719
2.75115
2.61177
2.71634
3.18075
3.07738
3.15469
3.05068
2.80266
2.69977
2.77932
2.67593
2.90615
2.79776
2.87803
2.76872
2.51757
2.40748
2.49252
2.38166
2.74546
2.74546
2.71597
2.71596
2.35587
2.35586
2.32966
2.32965
2.79775
2.90614
2.76871
2.87802
2.40746
2.51754
2.38164
2.49249
3.07738
3.18076
3.05068
3.15469
2.69974
2.80263
2.6759
2.77928
3.21954
3.11727
3.20191
3.09914
2.83751
2.73547
2.82164
2.71921
2.94868
2.84195
2.92937
2.82188
2.55555
2.44687
2.53828
2.42895
2.79044
2.79044
2.77
2.76999
2.39593
2.39593
2.37769
2.37769
2.84194
2.94867
2.82187
2.92937
2.44685
2.55552
2.42893
2.53825
3.11728
3.21955
3.09914
3.20191
2.73545
2.83749
2.71918
2.82161
3.2454
3.14401
3.2337
3.13191
2.86095
2.75958
2.85031
2.74864
2.97764
2.87231
2.96456
2.85858
2.58159
2.47411
2.56979
2.46176
2.82148
2.82148
2.80743
2.80743
2.42375
2.42374
2.41112
2.41112
2.87231
2.97764
2.85857
2.96456
2.4741
2.58157
2.46174
2.56977
3.14402
3.24542
3.13192
3.23371
2.75956
2.86093
2.74861
2.85028
3.26186
3.16115
3.2545
3.1535
2.8761
2.77525
2.86929
2.76821
2.99671
2.89258
2.98821
2.88353
2.59894
2.4925
2.59117
2.48425
2.84233
2.84233
2.833
2.833
2.44263
2.44262
2.43415
2.43414
2.89258
2.99671
2.88352
2.98821
2.49248
2.59892
2.48423
2.59115
3.16116
3.26188
3.15351
3.25452
2.77523
2.87609
2.76819
2.86927
3.27119
3.17102
3.26716
3.16676
2.88496
2.7845
2.88109
2.78046
3.00826
2.9052
3.00328
2.89972
2.60968
2.50416
2.605
2.49906
2.85546
2.85546
2.84974
2.84974
2.45473
2.45472
2.44942
2.44941
2.90519
3.00826
2.89972
3.00328
2.50415
2.60966
2.49904
2.60499
3.17103
3.27121
3.16678
3.26718
2.78448
2.88494
2.78045
2.88108
3.2749
3.17514
3.27354
3.17361
2.88884
2.78867
2.88734
2.78704
3.0139
2.91179
3.01171
2.90916
2.61521
2.51053
2.613
2.50793
2.86252
2.86251
2.85966
2.85966
2.4615
2.4615
2.4587
2.4587
2.91179
3.0139
2.90916
3.01171
2.51052
2.6152
2.50792
2.61299
3.17516
3.27492
3.17362
3.27356
2.78866
2.88884
2.78703
2.88732
3.27409
3.17464
3.27487
3.17531
2.88868
2.78871
2.8891
2.78906
3.01477
2.91353
3.01485
2.91321
2.61651
2.51261
2.61632
2.51205
2.86467
2.86467
2.86415
2.86415
2.46396
2.46395
2.46321
2.46321
2.91353
3.01477
2.91321
3.01485
2.51261
2.6165
2.51204
2.61631
3.17466
3.27411
3.17532
3.2749
2.78869
2.88866
2.78905
2.88911
3.26941
3.17021
3.2721
3.17279
2.88502
2.78517
2.88719
2.78729
3.01166
2.91125
3.01366
2.91286
2.61428
2.51115
2.6158
2.51229
2.86279
2.86279
2.8642
2.8642
2.46286
2.46286
2.46381
2.46381
2.91125
3.01166
2.91286
3.01367
2.51115
2.61427
2.51228
2.61578
3.17023
3.26945
3.17281
3.27212
2.78521
2.88507
2.78727
2.88715
3.26151
3.1625
3.26567
3.16661
2.87843
2.77874
2.88183
2.78211
3.00514
2.90551
3.00876
2.90877
2.60904
2.50664
2.61196
2.50924
2.85742
2.85742
2.86051
2.86051
2.45869
2.45868
2.46112
2.46112
2.90551
3.00515
2.90877
3.00877
2.50663
2.60903
2.50923
2.61195
3.16251
3.26152
3.16663
3.2657
2.77864
2.87832
2.7821
2.88188
3.25081
3.15186
3.25642
3.15746
2.86959
2.76989
2.87421
2.77453
2.99569
2.89678
3.00075
2.9015
2.60126
2.49951
2.60544
2.50338
2.84905
2.84905
2.85359
2.85359
2.45187
2.45186
2.45559
2.45559
2.89679
2.9957
2.9015
3.00076
2.49951
2.60126
2.50338
2.60543
3.15189
3.25086
3.15748
3.25645
2.76997
2.86967
2.7745
2.87412
3.2374
3.13859
3.24419
3.14536
2.85856
2.75884
2.86416
2.76449
2.98354
2.88535
2.98989
2.89138
2.59113
2.49
2.59644
2.49503
2.83796
2.83796
2.84382
2.84383
2.44265
2.44265
2.44754
2.44754
2.88536
2.98356
2.89139
2.98991
2.49
2.59113
2.49503
2.59644
3.13862
3.23744
3.1454
3.24424
2.75875
2.85846
2.7645
2.86423
3.22169
3.12293
3.22975
3.13094
2.84544
2.7456
2.85219
2.7524
2.96898
2.87145
2.97653
2.87869
2.57885
2.4783
2.58523
2.48441
2.82438
2.82439
2.83147
2.83147
2.43124
2.43124
2.43721
2.43721
2.87147
2.96901
2.87871
2.97655
2.47831
2.57887
2.48441
2.58524
3.12298
3.22176
3.13098
3.22979
2.74571
2.84556
2.75239
2.8521
3.20398
3.10522
3.21294
3.11424
2.83034
2.73045
2.83797
2.73814
2.95213
2.8552
2.96082
2.86361
2.56451
2.46451
2.57191
2.47166
2.80844
2.80844
2.8167
2.81671
2.41771
2.41772
2.42473
2.42474
2.85523
2.95217
2.86363
2.96086
2.46452
2.56452
2.47166
2.57193
3.10528
3.20405
3.1143
3.21301
2.73038
2.83029
2.73818
2.83809
3.18376
3.08504
3.19409
3.09532
2.81309
2.7131
2.82192
2.72195
2.93296
2.83664
2.94281
2.84621
2.54809
2.44864
2.55654
2.45683
2.79017
2.79017
2.79959
2.7996
2.40211
2.40211
2.41017
2.41017
2.83665
2.93299
2.84623
2.94285
2.44864
2.5481
2.45684
2.55656
3.08509
3.18383
3.09537
3.19416
2.71321
2.81323
2.72197
2.82188
3.16138
3.0627
3.17271
3.07406
2.79378
2.69376
2.80354
2.70358
2.91145
2.81573
2.92249
2.82648
2.52955
2.43066
2.53907
2.43991
2.76955
2.76955
2.78015
2.78015
2.3844
2.3844
2.39352
2.39352
2.81573
2.91145
2.82649
2.9225
2.43064
2.52951
2.4399
2.53904
3.06269
3.16136
3.07408
3.17273
2.69356
2.79352
2.70354
2.80357
3.13624
3.03773
3.14907
3.05043
2.77206
2.67206
2.78315
2.68311
2.88752
2.79242
2.89978
2.80438
2.50884
2.41053
2.51946
2.42086
2.74654
2.74654
2.75835
2.75835
2.36455
2.36454
2.37475
2.37474
2.79241
2.88752
2.80437
2.89977
2.41051
2.50881
2.42085
2.51942
3.03773
3.13625
3.05042
3.14906
2.67211
2.77206
2.68301
2.7829
3.10867
3.01038
3.12263
3.02427
2.74797
2.64818
2.76016
2.6603
2.86108
2.76662
2.87461
2.77983
2.48585
2.38815
2.49761
2.39962
2.72106
2.72106
2.73411
2.73411
2.34247
2.34247
2.35379
2.35379
2.76662
2.86108
2.77983
2.8746
2.38814
2.48582
2.3996
2.49759
3.01037
3.10865
3.02427
3.12263
2.64806
2.74786
2.66027
2.76021
3.07805
2.98017
3.09366
2.99552
2.72128
2.62174
2.73489
2.63517
2.83202
2.73825
2.84687
2.75276
2.4605
2.36345
2.47345
2.37609
2.69302
2.69302
2.70736
2.70736
2.31809
2.31808
2.33057
2.33057
2.73824
2.83202
2.75276
2.84687
2.36345
2.4605
2.37609
2.47345
2.98018
3.07809
2.99552
3.09367
2.62185
2.72137
2.63516
2.73479
3.0447
2.94734
3.06161
2.96402
2.69199
2.59287
2.70692
2.60759
2.80024
2.70718
2.81646
2.72306
2.43268
2.33632
2.4469
2.35019
2.66231
2.66231
2.678
2.678
2.29129
2.29128
2.30499
2.30499
2.70718
2.80024
2.72305
2.81646
2.33631
2.43268
2.35019
2.4469
2.94735
3.04472
2.96403
3.06163
2.59287
2.69198
2.60762
2.707
3.008
2.91141
3.02668
2.92965
2.65965
2.56126
2.67604
2.57727
2.7656
2.67333
2.78326
2.69061
2.40227
2.30665
2.41778
2.3218
2.62884
2.62884
2.64593
2.64592
2.26198
2.26198
2.27695
2.27695
2.67333
2.7656
2.69061
2.78326
2.30664
2.40227
2.32179
2.41777
2.91142
3.00803
2.92966
3.02671
2.56133
2.65978
2.57732
2.67608
2.96838
2.87269
2.98844
2.89234
2.62468
2.52712
2.64237
2.54441
2.72805
2.63659
2.74719
2.65533
2.36925
2.27439
2.38608
2.29085
2.5925
2.59249
2.61103
2.61103
2.23009
2.23009
2.24637
2.24636
2.63659
2.72805
2.65532
2.74719
2.27438
2.36923
2.29084
2.38607
2.87269
2.96837
2.89235
2.98845
2.52701
2.62455
2.54441
2.64245
2.9251
2.8306
2.94713
2.85196
2.5863
2.48984
2.60585
2.50876
2.68742
2.59684
2.70811
2.61709
2.33342
2.2394
2.35167
2.25723
2.55317
2.55317
2.57321
2.57321
2.19551
2.19551
2.21314
2.21314
2.59684
2.68743
2.61709
2.70811
2.23939
2.33342
2.25723
2.35166
2.83063
2.92515
2.85197
2.94714
2.48997
2.58646
2.50875
2.60575
2.8786
2.78552
2.90212
2.80836
2.54493
2.44986
2.56585
2.4701
2.64367
2.55399
2.66593
2.57581
2.29475
2.20161
2.31442
2.22085
2.51077
2.51077
2.53236
2.53236
2.15814
2.15814
2.17717
2.17717
2.554
2.64369
2.57581
2.66594
2.20161
2.29477
2.22085
2.31444
2.78554
2.87863
2.80838
2.90216
2.44983
2.54498
2.47017
2.56606
2.82863
2.73706
2.85397
2.76163
2.50052
2.40695
2.523
2.42867
2.59667
2.50792
2.62057
2.53136
2.2532
2.16094
2.27432
2.18163
2.46516
2.46517
2.48837
2.48837
2.1179
2.1179
2.13838
2.13839
2.50793
2.59668
2.53137
2.62058
2.16094
2.25322
2.18164
2.27434
2.73709
2.82866
2.76165
2.854
2.40701
2.50056
2.42867
2.52299
2.7748
2.68502
2.80211
2.71141
2.45276
2.36091
2.47698
2.38425
2.54622
2.45851
2.57187
2.48364
2.20859
2.11726
2.23128
2.13948
2.41625
2.41625
2.44113
2.44113
2.07468
2.07468
2.09667
2.09667
2.45851
2.54623
2.48364
2.57188
2.11726
2.20859
2.13948
2.23129
2.68503
2.77483
2.71143
2.80214
2.36092
2.4528
2.3843
2.47705
2.71704
2.62929
2.74631
2.65753
2.40119
2.31135
2.42736
2.33647
2.49225
2.40564
2.51967
2.43251
2.16072
2.07045
2.18505
2.09425
2.36392
2.36392
2.39051
2.39051
2.02839
2.02839
2.05192
2.05192
2.40564
2.49225
2.43251
2.51967
2.07045
2.16072
2.09424
2.18505
2.6293
2.71705
2.65754
2.74632
2.31135
2.40119
2.33647
2.42737
2.65549
2.56997
2.68663
2.59999
2.346
2.25845
2.37393
2.28522
2.43474
2.34927
2.46392
2.37789
2.10963
2.02049
2.13556
2.04586
2.30811
2.30811
2.33645
2.33645
1.97897
1.97896
2.00407
2.00407
2.34927
2.43474
2.37789
2.46392
2.02049
2.10963
2.04586
2.13556
2.56997
2.6555
2.6
2.68664
2.25845
2.346
2.28522
2.37393
2.59026
2.5071
2.62324
2.53889
2.28746
2.20234
2.31705
2.23071
2.37366
2.28934
2.40463
2.31975
2.05534
1.96734
2.08288
1.99431
2.24873
2.24873
2.27887
2.27887
1.92635
1.92635
1.95306
1.95306
2.28934
2.37366
2.31975
2.40463
1.96733
2.05534
1.99431
2.08287
2.5071
2.59027
2.5389
2.62325
2.20233
2.28745
2.2307
2.31704
2.52141
2.44065
2.5562
2.47424
2.22562
2.14301
2.25686
2.17299
2.30894
2.22572
2.34175
2.258
1.9978
1.9109
2.02697
1.93953
2.18564
2.18564
2.21766
2.21766
1.87045
1.87045
1.89882
1.89882
2.22571
2.30894
2.25799
2.34175
1.9109
1.99779
1.93953
2.02696
2.44065
2.52142
2.47425
2.55621
2.14301
2.22562
2.17299
2.25685
2.44889
2.37051
2.48552
2.40597
2.1605
2.08041
2.19339
2.11205
2.2404
2.15819
2.27515
2.19246
1.93687
1.85102
1.96776
1.8814
2.11861
2.11861
2.15264
2.15263
1.81106
1.81106
1.8412
1.8412
2.15819
2.2404
2.19245
2.27515
1.85101
1.93686
1.88139
1.96775
2.37052
2.4489
2.40598
2.48553
2.0804
2.16049
2.11204
2.19338
2.37253
2.29645
2.41112
2.33392
2.09195
2.01432
2.12658
2.04774
2.16773
2.08642
2.2046
2.12287
1.87229
1.78738
1.90505
1.81969
2.04728
2.04728
2.08351
2.08351
1.74789
1.74788
1.77997
1.77997
2.08642
2.16773
2.12286
2.2046
1.78737
1.87228
1.81968
1.90504
2.29646
2.37254
2.33392
2.41113
2.01431
2.09194
2.04773
2.12657
2.29195
2.21797
2.33272
2.25773
2.01961
1.94428
2.0562
1.97975
2.09036
2.00981
2.12967
2.04877
1.80353
1.71946
1.83847
1.754
1.97107
1.97107
2.00983
2.00983
1.68039
1.68039
1.71472
1.71471
2.00981
2.09036
2.04876
2.12967
1.71946
1.80352
1.75399
1.83846
2.21798
2.29195
2.25773
2.33272
1.94428
2.0196
1.97975
2.05619
2.20639
2.13405
2.24976
2.17672
1.94272
1.86927
1.98172
1.90742
2.0072
1.92741
2.0496
1.96941
1.72953
1.64634
1.76728
1.68363
1.88915
1.88915
1.93088
1.93088
1.60778
1.60778
1.64478
1.64478
1.92741
2.00719
1.96941
2.04959
1.64633
1.72952
1.68362
1.76727
2.13405
2.2064
2.17672
2.24977
1.86926
1.94271
1.90742
1.98171
2.11526
2.04186
2.1614
2.08926
1.86027
1.78618
1.90212
1.82905
1.91579
1.83777
1.96276
1.88359
1.64769
1.56648
1.68985
1.60736
1.80067
1.80067
1.84575
1.84575
1.52916
1.52916
1.56926
1.56925
1.83777
1.91579
1.88359
1.96275
1.56647
1.64768
1.60735
1.68984
2.04186
2.11526
2.08926
2.1614
1.78617
1.86026
1.82904
1.90211
2.02207
1.92723
2.0685
1.98959
1.77458
1.67929
1.81747
1.73818
1.81079
1.74004
1.8654
1.78982
1.55201
1.47872
1.60206
1.52352
1.70626
1.70625
1.75402
1.75402
1.44491
1.44491
1.48757
1.48757
1.74004
1.81078
1.78982
1.8654
1.47871
1.552
1.52351
1.60205
1.92723
2.02207
1.98959
2.0685
1.67928
1.77457
1.73817
1.81747
3.15018
3.0488
2.98359
2.89404
2.93201
2.82695
2.75641
2.66513
2.88612
2.77944
2.72546
2.61627
2.65376
2.54161
2.48704
2.37338
2.72685
2.72684
2.56313
2.56312
2.48682
2.48681
2.31862
2.31861
2.77943
2.88612
2.61625
2.72544
2.54159
2.65373
2.37335
2.487
3.04882
3.15021
2.89404
2.98358
2.82694
2.932
2.66509
2.75637
3.3816
3.28138
3.27935
3.17806
3.16609
3.06129
3.06424
2.95859
3.12261
3.01874
3.01696
2.91161
2.89106
2.78097
2.78629
2.67496
2.96748
2.96748
2.85964
2.85964
2.72709
2.72709
2.62051
2.6205
3.01874
3.12263
2.91161
3.01697
2.78096
2.89105
2.67495
2.78627
3.28143
3.38166
3.17809
3.27939
3.0613
3.1661
2.95859
3.06425
3.52915
3.43131
3.46309
3.36412
3.30945
3.20686
3.24572
3.14207
3.2774
3.1766
3.20792
3.10563
3.04125
2.93404
2.97426
2.86564
3.12683
3.12683
3.05513
3.05513
2.88153
2.88152
2.81244
2.81244
3.17661
3.27742
3.10564
3.20794
2.93404
3.04125
2.86563
2.97426
3.43136
3.52922
3.36417
3.46316
3.20688
3.30948
3.14208
3.24574
3.62647
3.53068
3.58253
3.48579
3.40222
3.30158
3.36046
3.25891
3.38097
3.28287
3.33416
3.2348
3.14006
3.03545
3.09553
2.9897
3.23441
3.23442
3.18572
3.18572
2.98418
2.98418
2.93784
2.93784
3.28289
3.381
3.23482
3.33419
3.03545
3.14007
2.9897
3.09553
3.53073
3.62655
3.48584
3.5826
3.30161
3.40226
3.25893
3.36049
3.69204
3.59789
3.6623
3.5674
3.46424
3.36516
3.43613
3.33634
3.45163
3.35577
3.41958
3.32268
3.20701
3.10456
3.17667
3.07321
3.3084
3.3084
3.27479
3.2748
3.05434
3.05434
3.0225
3.0225
3.35578
3.45166
3.32269
3.41961
3.10456
3.20703
3.07321
3.17668
3.59794
3.69212
3.56745
3.66238
3.36519
3.46428
3.33636
3.43617
3.73632
3.64347
3.71624
3.6228
3.50605
3.40821
3.48707
3.38867
3.50008
3.40606
3.47812
3.38325
3.25287
3.15219
3.23207
3.13057
3.35959
3.3596
3.33635
3.33636
3.10284
3.10284
3.08081
3.08081
3.40608
3.50011
3.38326
3.47815
3.1522
3.25288
3.13058
3.23209
3.64353
3.7364
3.62286
3.71632
3.40825
3.5061
3.3887
3.48711
3.76564
3.67381
3.75244
3.66015
3.53379
3.43693
3.52127
3.42397
3.53283
3.44037
3.51809
3.4249
3.28395
3.18478
3.26993
3.17007
3.39466
3.39467
3.37884
3.37884
3.13616
3.13617
3.1211
3.12111
3.44038
3.53286
3.42492
3.51812
3.18479
3.28396
3.17008
3.26995
3.67388
3.76572
3.66021
3.75252
3.43697
3.53384
3.424
3.52132
3.78396
3.69296
3.77586
3.68449
3.55126
3.45517
3.54349
3.44707
3.55403
3.4629
3.54465
3.4529
3.30421
3.20634
3.29521
3.19674
3.41785
3.41785
3.40754
3.40754
3.15836
3.15836
3.14846
3.14846
3.46292
3.55406
3.45292
3.54468
3.20635
3.30423
3.19675
3.29523
3.69302
3.78404
3.68455
3.77593
3.45521
3.5513
3.4471
3.54354
3.79395
3.7036
3.78974
3.6991
3.56093
3.46546
3.55681
3.46107
3.56645
3.47648
3.56118
3.47067
3.31627
3.21953
3.31111
3.21385
3.43199
3.432
3.42592
3.42592
3.17209
3.17209
3.16615
3.16615
3.4765
3.56648
3.47069
3.56121
3.21954
3.31629
3.21386
3.31113
3.70366
3.79403
3.69916
3.78981
3.4655
3.56098
3.46111
3.55685
3.79738
3.70754
3.79628
3.70621
3.56449
3.4695
3.56327
3.46807
3.57198
3.48303
3.56996
3.48054
3.32188
3.22615
3.31976
3.22357
3.43905
3.43906
3.43632
3.43632
3.1792
3.1792
3.17638
3.17639
3.48305
3.57201
3.48055
3.56999
3.22616
3.3219
3.22357
3.31978
3.7076
3.79746
3.70627
3.79635
3.46954
3.56454
3.4681
3.56331
3.79556
3.70611
3.79695
3.70733
3.56313
3.4685
3.56424
3.46946
3.57195
3.48392
3.57257
3.48411
3.32229
3.22746
3.32264
3.2274
3.44039
3.4404
3.44037
3.44038
3.18096
3.18096
3.18068
3.18069
3.48394
3.57199
3.48413
3.5726
3.22747
3.32231
3.22741
3.32266
3.70617
3.79563
3.70739
3.79702
3.46854
3.56318
3.4695
3.56429
3.78931
3.70017
3.79283
3.70356
3.55762
3.46328
3.56073
3.46628
3.56732
3.48013
3.57015
3.48258
3.31838
3.2244
3.32082
3.22644
3.43702
3.43703
3.43926
3.43927
3.17831
3.17831
3.18015
3.18015
3.48015
3.56735
3.48259
3.57019
3.22441
3.3184
3.22645
3.32084
3.70023
3.78939
3.70362
3.7929
3.46331
3.55767
3.46631
3.56078
3.77933
3.69043
3.78464
3.69565
3.5486
3.45446
3.5534
3.45919
3.55875
3.47234
3.56347
3.4767
3.31077
3.21758
3.31498
3.22142
3.42961
3.42962