/*--------------------------------*- C++ -*----------------------------------*\
  =========                 |
  \\      /  F ield         | OpenFOAM: The Open Source CFD Toolbox
   \\    /   O peration     | Website:  https://openfoam.org
    \\  /    A nd           | Version:  9
     \\/     M anipulation  |
\*---------------------------------------------------------------------------*/
FoamFile
{
    format      ascii;
    class       volScalarField;
    location    "4.6";
    object      p;
}
// * * * * * * * * * * * * * * * * * * * * * * * * * * * * * * * * * * * * * //

dimensions      [0 2 -2 0 0 0 0];

internalField   nonuniform List<scalar> 
36360
(
20.2418
19.9936
20.2326
20.0052
19.9918
20.1859
20.0149
20.1529
20.0808
20.0985
20.087
20.1059
20.1114
20.0954
20.0991
20.0918
20.1005
20.1005
20.1081
20.1081
20.0937
20.0937
20.0914
20.0914
20.0985
20.0808
20.1059
20.087
20.0954
20.1113
20.0918
20.0991
19.9936
20.2418
20.0052
20.2325
20.1859
19.9918
20.1529
20.015
20.1156
20.0684
20.1613
20.0457
19.8942
20.2562
19.9403
20.2295
20.1119
20.1029
20.0984
20.0995
20.1466
20.104
20.1304
20.0997
20.0972
20.0972
20.0977
20.0977
20.0954
20.0954
20.0948
20.0948
20.1029
20.1119
20.0995
20.0984
20.104
20.1466
20.0997
20.1304
20.0684
20.1156
20.0457
20.1613
20.2562
19.8943
20.2295
19.9403
20.0654
20.0829
20.0868
20.0786
19.8363
20.2793
19.8609
20.2713
20.1332
20.1136
20.1237
20.1081
20.1711
20.115
20.1602
20.1093
20.1003
20.1003
20.0983
20.0983
20.099
20.099
20.0969
20.0969
20.1136
20.1332
20.1081
20.1237
20.115
20.1711
20.1093
20.1602
20.0829
20.0654
20.0786
20.0868
20.2793
19.8363
20.2713
19.8609
20.0368
20.0836
20.0492
20.0841
19.8036
20.2846
19.8178
20.2832
20.1454
20.1236
20.1402
20.1188
20.1851
20.1258
20.1792
20.1206
20.1061
20.1061
20.1031
20.1031
20.1047
20.1047
20.1017
20.1017
20.1236
20.1454
20.1188
20.1402
20.1258
20.1851
20.1206
20.1792
20.0836
20.0368
20.0841
20.0492
20.2846
19.8036
20.2832
19.8178
20.0194
20.0806
20.0271
20.0823
19.7837
20.284
19.7925
20.2846
20.1517
20.1316
20.1491
20.1278
20.1923
20.1345
20.1893
20.1305
20.1125
20.1125
20.1094
20.1094
20.1109
20.1109
20.1078
20.1078
20.1316
20.1517
20.1278
20.1491
20.1345
20.1923
20.1305
20.1893
20.0806
20.0194
20.0823
20.0271
20.284
19.7837
20.2846
19.7925
20.0079
20.0768
20.0131
20.0787
19.7708
20.2816
19.7766
20.2829
20.1547
20.1374
20.1535
20.1347
20.1959
20.1406
20.1944
20.1378
20.1183
20.1183
20.1155
20.1155
20.1167
20.1167
20.1139
20.1139
20.1374
20.1547
20.1347
20.1535
20.1406
20.1959
20.1378
20.1944
20.0768
20.0079
20.0787
20.0131
20.2816
19.7709
20.2829
19.7767
19.9999
20.0733
20.0036
20.075
19.7619
20.279
19.7661
20.2803
20.1559
20.1414
20.1555
20.1396
20.1977
20.1449
20.197
20.143
20.123
20.123
20.1208
20.1208
20.1216
20.1216
20.1193
20.1193
20.1414
20.1559
20.1396
20.1555
20.1449
20.1977
20.143
20.197
20.0733
20
20.075
20.0036
20.279
19.7623
20.2803
19.7661
19.9941
20.0702
19.9968
20.0717
19.7561
20.2764
19.7589
20.2777
20.1562
20.144
20.1562
20.1429
20.1984
20.1477
20.1981
20.1464
20.1265
20.1265
20.1249
20.1249
20.1252
20.1252
20.1235
20.1235
20.144
20.1562
20.1429
20.1562
20.1476
20.1984
20.1464
20.1981
20.0702
19.9942
20.0717
19.9968
20.2764
19.7565
20.2776
19.7591
19.9898
20.0676
19.9918
20.0689
19.7517
20.2741
19.7534
20.2754
20.1559
20.1456
20.1561
20.145
20.1984
20.1494
20.1985
20.1487
20.129
20.1289
20.1279
20.1278
20.1279
20.1279
20.1267
20.1267
20.1456
20.1559
20.1449
20.1561
20.1494
20.1984
20.1486
20.1984
20.0676
19.9898
20.0688
19.9918
20.274
19.752
20.275
19.7544
19.9862
20.0652
19.9878
20.0663
19.7487
20.2718
19.7504
20.2728
20.1551
20.1464
20.1556
20.1461
20.198
20.1503
20.1982
20.15
20.1304
20.1304
20.1298
20.1298
20.1296
20.1296
20.1289
20.1289
20.1464
20.1551
20.1461
20.1556
20.1504
20.1981
20.15
20.1983
20.0652
19.9862
20.0663
19.9879
20.2719
19.7483
20.2729
19.75
19.9833
20.063
19.9847
20.0642
19.7467
20.2694
19.7472
20.2707
20.154
20.1464
20.1546
20.1465
20.1971
20.1505
20.1976
20.1505
20.1311
20.1311
20.1309
20.1309
20.1305
20.1305
20.1302
20.1302
20.1464
20.154
20.1465
20.1546
20.1505
20.1971
20.1505
20.1976
20.063
19.9832
20.0641
19.9847
20.2692
19.7467
20.2707
19.7472
19.9808
20.0609
19.982
20.062
19.7448
20.2671
19.7458
20.2682
20.1526
20.1459
20.1533
20.1462
20.1959
20.1502
20.1965
20.1504
20.131
20.131
20.1311
20.1311
20.1307
20.1307
20.1307
20.1307
20.1459
20.1526
20.1462
20.1534
20.1502
20.196
20.1504
20.1965
20.061
19.9807
20.0621
19.9819
20.2673
19.7439
20.2682
19.7454
19.9785
20.0588
19.9796
20.0599
19.7427
20.2649
19.7437
20.266
20.1509
20.1448
20.1518
20.1454
20.1944
20.1492
20.1952
20.1498
20.1303
20.1303
20.1307
20.1307
20.1302
20.1302
20.1305
20.1305
20.1448
20.1509
20.1454
20.1518
20.1492
20.1943
20.1498
20.1952
20.0589
19.9784
20.06
19.9795
20.2648
19.7426
20.2661
19.7432
19.976
20.0569
19.9772
20.0579
19.7415
20.2622
19.7424
20.2634
20.149
20.1432
20.15
20.1441
20.1924
20.1477
20.1934
20.1485
20.129
20.129
20.1297
20.1297
20.129
20.1291
20.1297
20.1297
20.1432
20.1489
20.1441
20.1499
20.1478
20.1924
20.1485
20.1934
20.0567
19.9762
20.0578
19.9772
20.2623
19.7411
20.2635
19.742
19.9738
20.0544
19.9749
20.0557
19.7405
20.2593
19.7407
20.2609
20.1466
20.1412
20.1479
20.1423
20.19
20.1457
20.1913
20.1468
20.1271
20.1271
20.1281
20.1281
20.1273
20.1273
20.1283
20.1283
20.1412
20.1467
20.1422
20.1478
20.1457
20.1899
20.1468
20.1912
20.0545
19.9737
20.0556
19.975
20.2592
19.7403
20.2608
19.7407
19.9714
20.0521
19.9726
20.0533
19.7385
20.2564
19.7396
20.2579
20.1441
20.1387
20.1454
20.14
20.1873
20.1433
20.1887
20.1446
20.1248
20.1248
20.126
20.126
20.1251
20.1251
20.1263
20.1263
20.1387
20.1441
20.14
20.1455
20.1433
20.1873
20.1446
20.1887
20.0522
19.9714
20.0534
19.9725
20.2564
19.7384
20.2578
19.7394
19.9691
20.0494
19.9702
20.0508
19.7376
20.2529
19.7379
20.2548
20.1412
20.1358
20.1427
20.1373
20.184
20.1403
20.1858
20.1419
20.122
20.122
20.1234
20.1234
20.1223
20.1223
20.1238
20.1238
20.1358
20.1412
20.1373
20.1428
20.1403
20.1841
20.1419
20.1858
20.0495
19.9689
20.0509
19.9702
20.253
19.7373
20.255
19.7374
19.9663
20.0469
19.9677
20.0482
19.7367
20.2489
19.7373
20.2508
20.1381
20.1325
20.1397
20.1342
20.1803
20.1368
20.1822
20.1386
20.1187
20.1187
20.1204
20.1204
20.1189
20.1189
20.1207
20.1207
20.1325
20.138
20.1342
20.1397
20.1368
20.1803
20.1386
20.1822
20.0467
19.9664
20.0481
19.9676
20.2488
19.737
20.2509
19.7373
19.9637
20.044
19.9649
20.0455
19.7349
20.2451
19.7359
20.247
20.1347
20.1289
20.1365
20.1307
20.1764
20.133
20.1784
20.1349
20.1151
20.1151
20.117
20.1169
20.1151
20.1151
20.1171
20.1171
20.1289
20.1347
20.1307
20.1364
20.1329
20.1763
20.1349
20.1783
20.0441
19.9636
20.0454
19.965
20.2447
19.7351
20.2467
19.7362
19.9609
20.0409
19.9623
20.0425
19.7341
20.2402
19.7345
20.2427
20.1311
20.1249
20.1329
20.1269
20.1718
20.1286
20.1742
20.1308
20.1112
20.1112
20.1132
20.1132
20.1109
20.1109
20.113
20.1131
20.125
20.1312
20.1269
20.133
20.1287
20.1721
20.1309
20.1742
20.0412
19.9609
20.0427
19.9622
20.2408
19.7323
20.2427
19.7337
19.958
20.0381
19.9595
20.0395
19.7317
20.2357
19.733
20.238
20.1276
20.1208
20.1294
20.1229
20.1672
20.124
20.1695
20.1263
20.1071
20.1071
20.1092
20.1092
20.1062
20.1062
20.1086
20.1086
20.1208
20.1275
20.1229
20.1294
20.1239
20.1671
20.1264
20.1696
20.0378
19.958
20.0396
19.9594
20.2354
19.7323
20.2382
19.7322
19.955
20.035
19.9564
20.0366
19.7301
20.2307
19.7306
20.2334
20.1239
20.1165
20.1258
20.1187
20.1621
20.119
20.1648
20.1215
20.1027
20.1027
20.105
20.1049
20.1012
20.1012
20.1038
20.1037
20.1165
20.1239
20.1187
20.1257
20.119
20.1622
20.1215
20.1646
20.0349
19.9554
20.0363
19.9568
20.231
19.7293
20.2332
19.7311
19.9525
20.0318
19.9538
20.0333
19.7284
20.2256
19.7296
20.228
20.1201
20.1119
20.122
20.1142
20.1569
20.1137
20.1595
20.1163
20.0982
20.0982
20.1005
20.1005
20.096
20.096
20.0986
20.0987
20.1119
20.1202
20.1142
20.1221
20.1137
20.1569
20.1164
20.1596
20.0321
19.9521
20.0335
19.9537
20.2256
19.7279
20.2283
19.7287
19.9499
20.0292
19.9512
20.0305
19.7258
20.2207
19.727
20.2232
20.1166
20.1075
20.1183
20.1097
20.1516
20.1083
20.1543
20.1111
20.0938
20.0938
20.096
20.096
20.0907
20.0906
20.0934
20.0934
20.1075
20.1166
20.1097
20.1184
20.1083
20.1515
20.111
20.1542
20.0292
19.9499
20.0307
19.9509
20.2205
19.7265
20.2231
19.727
19.9473
20.0268
19.9486
20.028
19.7251
20.2152
19.7255
20.2179
20.1133
20.1032
20.1149
20.1053
20.1461
20.1028
20.1489
20.1056
20.0894
20.0894
20.0916
20.0916
20.0852
20.0852
20.0879
20.0879
20.1032
20.1133
20.1053
20.1149
20.1028
20.1461
20.1055
20.1488
20.0267
19.9474
20.0279
19.9486
20.215
19.7257
20.2177
19.7261
19.9456
20.0245
19.9464
20.0256
19.7247
20.21
19.7249
20.2125
20.1103
20.0991
20.1118
20.1011
20.1408
20.0975
20.1435
20.1001
20.0853
20.0854
20.0873
20.0874
20.0799
20.0799
20.0825
20.0825
20.0992
20.1104
20.1011
20.1118
20.0974
20.1408
20.1001
20.1435
20.0247
19.9455
20.0257
19.9463
20.21
19.725
20.2126
19.7252
19.9443
20.0229
19.9448
20.0237
19.7245
20.2052
19.7245
20.2075
20.1068
20.0955
20.1086
20.0973
20.1357
20.0922
20.1382
20.0948
20.0816
20.0817
20.0834
20.0834
20.0748
20.0748
20.0773
20.0773
20.0955
20.1069
20.0973
20.1087
20.0923
20.1357
20.0948
20.1383
20.0229
19.9443
20.0237
19.9447
20.2054
19.7243
20.2076
19.7246
19.9436
20.0219
19.9438
20.0223
19.7246
20.201
19.7245
20.203
20.104
20.0923
20.1053
20.0938
20.1309
20.0874
20.1332
20.0898
20.0785
20.0785
20.08
20.08
20.07
20.07
20.0723
20.0723
20.0923
20.1041
20.0938
20.1054
20.0874
20.1309
20.0898
20.1333
20.022
19.9436
20.0223
19.9439
20.2011
19.7242
20.2031
19.7242
19.9439
20.0216
19.9436
20.0217
19.7257
20.1972
19.725
20.199
20.102
20.0898
20.1029
20.091
20.1265
20.083
20.1286
20.0851
20.0759
20.0759
20.0771
20.0771
20.0658
20.0658
20.0678
20.0679
20.0898
20.102
20.091
20.103
20.083
20.1265
20.0851
20.1287
20.0216
19.9439
20.0217
19.9436
20.1972
19.7256
20.199
19.7248
19.945
20.0222
19.9443
20.0218
19.728
20.1939
19.7267
20.1954
20.1007
20.088
20.1012
20.0888
20.1228
20.0793
20.1246
20.0811
20.0742
20.0742
20.075
20.075
20.0623
20.0623
20.064
20.064
20.088
20.1007
20.0888
20.1012
20.0793
20.1228
20.0811
20.1246
20.0222
19.945
20.0218
19.9443
20.1938
19.728
20.1954
19.7267
19.9473
20.0237
19.946
20.0229
19.7315
20.1913
19.7296
20.1925
20.1002
20.087
20.1003
20.0874
20.1197
20.0763
20.1211
20.0777
20.0733
20.0733
20.0736
20.0736
20.0597
20.0597
20.0609
20.0609
20.087
20.1002
20.0874
20.1003
20.0763
20.1197
20.0777
20.1211
20.0237
19.9473
20.0229
19.946
20.1913
19.7315
20.1925
19.7296
19.9506
20.0262
19.9488
20.0248
19.7365
20.1895
19.7338
20.1903
20.1005
20.0869
20.1002
20.0868
20.1173
20.0742
20.1184
20.0751
20.0735
20.0735
20.0733
20.0733
20.058
20.058
20.0587
20.0587
20.0869
20.1005
20.0868
20.1002
20.0742
20.1173
20.0751
20.1184
20.0262
19.9506
20.0248
19.9488
20.1895
19.7365
20.1902
19.7338
19.9553
20.0296
19.9528
20.0278
19.743
20.1885
19.7395
20.1889
20.1016
20.0877
20.101
20.0872
20.1158
20.0731
20.1165
20.0735
20.0747
20.0747
20.074
20.074
20.0575
20.0575
20.0576
20.0576
20.0877
20.1016
20.0872
20.101
20.0731
20.1158
20.0735
20.1165
20.0296
19.9553
20.0278
19.9528
20.1885
19.743
20.1889
19.7395
19.9614
20.0339
19.9582
20.0317
19.7513
20.1884
19.7469
20.1883
20.1036
20.0895
20.1025
20.0885
20.1152
20.0731
20.1154
20.0729
20.0771
20.0771
20.0758
20.0758
20.0583
20.0583
20.0578
20.0578
20.0895
20.1036
20.0885
20.1025
20.0731
20.1152
20.0729
20.1154
20.0339
19.9614
20.0317
19.9582
20.1884
19.7513
20.1883
19.7469
19.9691
20.039
19.965
20.0364
19.7617
20.1889
19.7562
20.1886
20.1063
20.0923
20.1049
20.0908
20.1153
20.0743
20.1151
20.0735
20.0806
20.0806
20.0787
20.0787
20.0605
20.0605
20.0593
20.0593
20.0923
20.1063
20.0908
20.1049
20.0743
20.1153
20.0735
20.1151
20.039
19.9691
20.0364
19.9651
20.1889
19.7617
20.1886
19.7562
19.9783
20.0447
19.9735
20.0418
19.7745
20.1899
19.7677
20.1894
20.1095
20.096
20.1078
20.0941
20.1162
20.0767
20.1157
20.0753
20.0853
20.0853
20.0828
20.0828
20.0641
20.0641
20.0621
20.0621
20.096
20.1095
20.0941
20.1078
20.0767
20.1162
20.0753
20.1157
20.0447
19.9783
20.0418
19.9735
20.1899
19.7745
20.1894
19.7677
19.9888
20.0509
19.9834
20.0477
19.7905
20.1908
19.782
20.1904
20.1132
20.1007
20.1113
20.0983
20.1176
20.0803
20.1168
20.0783
20.0912
20.0912
20.0881
20.0881
20.0691
20.0691
20.0664
20.0664
20.1007
20.1132
20.0983
20.1113
20.0803
20.1176
20.0783
20.1168
20.0509
19.9888
20.0477
19.9834
20.1908
19.7905
20.1904
19.782
19.9985
20.0597
19.9942
20.0548
19.8107
20.19
19.8
20.1907
20.1173
20.1064
20.1151
20.1034
20.1194
20.0853
20.1185
20.0826
20.0982
20.0982
20.0945
20.0945
20.0756
20.0756
20.0722
20.0722
20.1064
20.1173
20.1034
20.1151
20.0853
20.1194
20.0826
20.1185
20.0597
19.9985
20.0548
19.9942
20.19
19.8107
20.1907
19.8
20.0066
20.0696
20.0006
20.0666
19.8362
20.1854
19.8227
20.1884
20.1233
20.1134
20.12
20.1097
20.1221
20.0918
20.1206
20.0883
20.1063
20.1063
20.1021
20.1021
20.0835
20.0835
20.0794
20.0794
20.1134
20.1233
20.1097
20.12
20.0918
20.1221
20.0883
20.1206
20.0696
20.0066
20.0666
20.0006
20.1854
19.8362
20.1884
19.8227
20.4299
19.9427
20.3315
19.9766
20.3831
19.9288
20.3089
19.965
19.9894
20.0606
20.0275
20.0801
20.0185
20.0793
20.0454
20.0913
20.0939
20.0939
20.1019
20.1019
20.0989
20.0989
20.1036
20.1036
20.0606
19.9894
20.0801
20.0275
20.0793
20.0185
20.0913
20.0454
19.9427
20.4298
19.9766
20.3315
19.9288
20.3831
19.965
20.3088
20.2904
20.0368
20.3354
20.0139
20.2532
20.0125
20.2972
19.9909
20.0311
20.0644
20.0161
20.0623
20.0549
20.0832
20.0411
20.0808
20.0846
20.0846
20.0884
20.0884
20.0937
20.0937
20.0958
20.0958
20.0644
20.0311
20.0624
20.0161
20.0832
20.0549
20.0808
20.0411
20.0368
20.2904
20.0139
20.3354
20.0125
20.2532
19.9909
20.2971
20.2529
20.0418
20.2682
20.042
20.2115
20.0201
20.229
20.019
20.0482
20.0737
20.0413
20.069
20.0733
20.0937
20.0654
20.0882
20.0864
20.0864
20.0846
20.0846
20.096
20.096
20.0942
20.0942
20.0737
20.0482
20.069
20.0413
20.0937
20.0733
20.0882
20.0654
20.0418
20.2529
20.0421
20.2682
20.0201
20.2115
20.019
20.229
20.233
20.037
20.2416
20.0397
20.1883
20.0168
20.1983
20.019
20.0553
20.082
20.0526
20.0781
20.0828
20.1032
20.0789
20.0987
20.0925
20.0925
20.0892
20.0892
20.1019
20.1019
20.0988
20.0988
20.082
20.0553
20.0781
20.0526
20.1032
20.0828
20.0987
20.0789
20.037
20.233
20.0397
20.2416
20.0168
20.1882
20.019
20.1983
20.2208
20.0313
20.2263
20.0341
20.1741
20.0119
20.1804
20.0143
20.0579
20.0882
20.057
20.0854
20.0866
20.1105
20.0852
20.1071
20.099
20.099
20.0958
20.0958
20.1083
20.1083
20.1051
20.1051
20.0882
20.0579
20.0854
20.057
20.1105
20.0866
20.1071
20.0853
20.0313
20.2208
20.0341
20.2262
20.0119
20.1741
20.0143
20.1804
20.2126
20.0263
20.2163
20.0287
20.1647
20.0074
20.169
20.0096
20.0585
20.0925
20.0583
20.0905
20.0877
20.1156
20.0874
20.1133
20.1047
20.1047
20.102
20.102
20.1141
20.1141
20.1113
20.1113
20.0925
20.0585
20.0905
20.0583
20.1156
20.0877
20.1133
20.0874
20.0263
20.2126
20.0287
20.2163
20.0074
20.1647
20.0096
20.169
20.2066
20.0219
20.2094
20.024
20.158
20.0034
20.1611
20.0053
20.0582
20.0954
20.0584
20.0941
20.0878
20.1192
20.0878
20.1176
20.109
20.109
20.107
20.107
20.1187
20.1187
20.1166
20.1166
20.0954
20.0582
20.0941
20.0584
20.1192
20.0878
20.1176
20.0879
20.0219
20.2066
20.024
20.2094
20.0034
20.158
20.0053
20.1612
20.202
20.0182
20.2042
20.02
20.1529
20
20.1553
20.0016
20.0575
20.0971
20.0579
20.0964
20.0873
20.1215
20.0876
20.1205
20.1122
20.1122
20.1108
20.1108
20.1222
20.1222
20.1206
20.1206
20.0971
20.0575
20.0964
20.0579
20.1215
20.0873
20.1205
20.0876
20.0182
20.202
20.02
20.2042
20
20.1529
20.0016
20.1553
20.1983
20.015
20.2001
20.0165
20.149
19.997
20.1508
19.9984
20.0564
20.0981
20.057
20.0977
20.0865
20.1228
20.087
20.1223
20.1142
20.1142
20.1133
20.1133
20.1245
20.1244
20.1234
20.1234
20.0981
20.0564
20.0977
20.057
20.1228
20.0865
20.1223
20.0869
20.015
20.1983
20.0165
20.2001
19.9969
20.149
19.9984
20.1508
20.1952
20.0121
20.1967
20.0135
20.1459
19.9942
20.1474
19.9955
20.0551
20.0983
20.0558
20.0983
20.0854
20.1234
20.086
20.1232
20.1153
20.1153
20.1148
20.1148
20.1258
20.1258
20.1252
20.1252
20.0983
20.0551
20.0983
20.0558
20.1234
20.0853
20.1232
20.0859
20.012
20.1953
20.0135
20.1968
19.994
20.1461
19.9954
20.1475
20.1923
20.0094
20.1938
20.0107
20.1431
19.9916
20.1445
19.9929
20.0537
20.098
20.0544
20.0982
20.084
20.1233
20.0847
20.1234
20.1156
20.1156
20.1155
20.1155
20.1263
20.1263
20.1261
20.1261
20.098
20.0537
20.0982
20.0544
20.1233
20.084
20.1234
20.0847
20.0093
20.1924
20.0106
20.1938
19.9916
20.1432
19.9927
20.1447
20.1897
20.0068
20.191
20.0081
20.1408
19.9891
20.1419
19.9904
20.052
20.0972
20.0529
20.0976
20.0824
20.1226
20.0833
20.123
20.1152
20.1152
20.1155
20.1155
20.126
20.126
20.1262
20.1262
20.0972
20.052
20.0976
20.0529
20.1226
20.0824
20.123
20.0833
20.0067
20.1898
20.008
20.1911
19.9891
20.1408
19.9904
20.1419
20.1873
20.0041
20.1885
20.0054
20.1387
19.9865
20.1398
19.9877
20.0501
20.0959
20.0511
20.0966
20.0806
20.1215
20.0815
20.1221
20.1143
20.1143
20.1148
20.1148
20.1252
20.1252
20.1257
20.1257
20.0959
20.0501
20.0966
20.0511
20.1215
20.0806
20.1221
20.0815
20.0041
20.1873
20.0054
20.1886
19.9867
20.1385
19.9878
20.1397
20.1849
20.0014
20.186
20.0028
20.1361
19.9843
20.1373
19.9854
20.0481
20.0943
20.0491
20.0952
20.0786
20.1199
20.0796
20.1207
20.1129
20.1129
20.1137
20.1137
20.1238
20.1238
20.1246
20.1246
20.0943
20.0481
20.0951
20.0491
20.1198
20.0785
20.1207
20.0796
20.0016
20.1847
20.0028
20.186
19.984
20.1364
19.9853
20.1374
20.1826
19.9986
20.1839
19.9999
20.134
19.9814
20.1352
19.9828
20.0457
20.0923
20.0469
20.0933
20.0762
20.1178
20.0775
20.1189
20.1111
20.1111
20.112
20.112
20.1219
20.1219
20.1229
20.1229
20.0923
20.0457
20.0933
20.0469
20.1178
20.0763
20.1189
20.0774
19.9986
20.1826
20
20.1837
19.9816
20.134
19.9827
20.1352
20.1798
19.9961
20.1812
19.9973
20.1316
19.9789
20.1328
19.9802
20.0434
20.0901
20.0446
20.0912
20.0738
20.1155
20.0751
20.1167
20.1089
20.1089
20.11
20.11
20.1196
20.1196
20.1208
20.1208
20.0901
20.0434
20.0912
20.0446
20.1155
20.0739
20.1167
20.0751
19.996
20.1799
19.9973
20.1813
19.979
20.1314
19.9803
20.1327
20.1773
19.9932
20.1786
19.9946
20.129
19.9761
20.1304
19.9775
20.0408
20.0876
20.0421
20.0889
20.0711
20.1128
20.0725
20.1142
20.1064
20.1064
20.1077
20.1077
20.1169
20.1169
20.1183
20.1183
20.0876
20.0408
20.0889
20.0421
20.1128
20.0712
20.1142
20.0725
19.9931
20.1773
19.9946
20.1786
19.9763
20.1289
19.9776
20.1303
20.1744
19.9906
20.1758
19.9919
20.126
19.9738
20.1275
19.975
20.0383
20.085
20.0396
20.0863
20.0684
20.1098
20.0698
20.1113
20.1037
20.1037
20.105
20.105
20.1139
20.1139
20.1155
20.1154
20.085
20.0384
20.0863
20.0396
20.1098
20.0683
20.1113
20.0698
19.9907
20.1742
19.9919
20.1758
19.9736
20.1261
19.975
20.1275
20.1718
19.9878
20.1731
19.9892
20.1234
19.9709
20.1248
19.9723
20.0357
20.0822
20.037
20.0836
20.0654
20.1066
20.0669
20.1082
20.1008
20.1008
20.1022
20.1022
20.1106
20.1106
20.1123
20.1123
20.0822
20.0357
20.0836
20.037
20.1066
20.0654
20.1082
20.0669
19.9878
20.1716
19.9893
20.1729
19.971
20.1233
19.9723
20.1247
20.1686
19.9855
20.1702
19.9866
20.1201
19.9685
20.1217
19.9697
20.0333
20.0795
20.0345
20.0809
20.0625
20.1032
20.064
20.1049
20.0978
20.0978
20.0993
20.0993
20.1072
20.1072
20.1089
20.1089
20.0795
20.0332
20.0809
20.0345
20.1032
20.0624
20.1049
20.0639
19.9854
20.1687
19.9866
20.1702
19.9682
20.1206
19.9696
20.1219
20.1663
19.9829
20.1674
19.9841
20.1176
19.9656
20.1189
19.967
20.0307
20.0767
20.032
20.0781
20.0594
20.0996
20.061
20.1014
20.0949
20.0949
20.0963
20.0963
20.1036
20.1036
20.1054
20.1054
20.0767
20.0308
20.0781
20.032
20.0996
20.0594
20.1014
20.0609
19.983
20.166
19.9841
20.1674
19.9658
20.1174
19.9669
20.1191
20.1634
19.9809
20.1649
19.9818
20.1147
19.9633
20.1162
19.9644
20.0286
20.0741
20.0296
20.0754
20.0564
20.096
20.0579
20.0977
20.092
20.092
20.0934
20.0934
20.1
20.1
20.1018
20.1018
20.0741
20.0286
20.0754
20.0297
20.096
20.0564
20.0977
20.0579
19.981
20.1633
19.9819
20.1646
19.9631
20.1149
19.9644
20.1161
20.1614
19.9789
20.1623
19.9799
20.1125
19.9608
20.1136
19.962
20.0266
20.0716
20.0275
20.0729
20.0535
20.0932
20.0549
20.0946
20.0893
20.0893
20.0906
20.0906
20.0965
20.0965
20.0982
20.0982
20.0716
20.0265
20.0729
20.0275
20.0932
20.0536
20.0946
20.055
19.9788
20.1615
19.9798
20.1624
19.9611
20.1121
19.962
20.1135
20.1592
19.9777
20.1603
19.9782
20.1099
19.9591
20.1112
19.9599
20.0251
20.0698
20.0258
20.0707
20.0508
20.0901
20.0521
20.0916
20.0869
20.0869
20.0881
20.0881
20.0931
20.0931
20.0948
20.0948
20.0697
20.025
20.0707
20.0257
20.0901
20.0508
20.0916
20.0522
19.9776
20.1594
19.9781
20.1605
19.9591
20.1099
19.96
20.111
20.1583
19.9765
20.1587
19.977
20.1083
19.9574
20.109
19.9582
20.0239
20.0681
20.0244
20.0689
20.0481
20.0873
20.0495
20.0887
20.0849
20.0849
20.0858
20.0858
20.0901
20.0901
20.0916
20.0916
20.0682
20.0239
20.0689
20.0244
20.0873
20.0482
20.0887
20.0495
19.9766
20.1582
19.977
20.1587
19.9577
20.1079
19.9583
20.1089
20.157
19.9765
20.1577
19.9764
20.1069
19.9565
20.1076
19.9568
20.0237
20.0671
20.0236
20.0676
20.0453
20.0849
20.0466
20.0861
20.0833
20.0833
20.0841
20.0841
20.0874
20.0875
20.0887
20.0887
20.0671
20.0237
20.0676
20.0236
20.0849
20.0454
20.0861
20.0468
19.9764
20.1572
19.9764
20.1577
19.9566
20.1068
19.9571
20.1072
20.157
19.9768
20.1569
19.9766
20.1063
19.9561
20.1065
19.9562
20.0236
20.0665
20.0236
20.0667
20.0454
20.0831
20.045
20.0839
20.0823
20.0823
20.0828
20.0828
20.0852
20.0852
20.0863
20.0863
20.0665
20.0236
20.0667
20.0236
20.0832
20.0456
20.084
20.0451
19.9768
20.157
19.9765
20.1571
19.9564
20.1059
19.9564
20.1063
20.1574
19.978
20.1571
19.9773
20.1057
19.9569
20.106
19.9564
20.0244
20.0666
20.0239
20.0665
20.0461
20.082
20.0458
20.0825
20.0819
20.0819
20.082
20.082
20.0836
20.0836
20.0843
20.0843
20.0666
20.0244
20.0665
20.0239
20.082
20.0461
20.0825
20.0459
19.9779
20.1575
19.9772
20.1571
19.9568
20.1059
19.9565
20.1058
20.1587
19.9801
20.1579
19.9789
20.1064
19.9583
20.106
19.9575
20.026
20.0674
20.0251
20.0669
20.047
20.0815
20.0465
20.0816
20.0823
20.0823
20.082
20.082
20.0827
20.0827
20.0831
20.0831
20.0674
20.026
20.0669
20.0251
20.0815
20.047
20.0816
20.0465
19.9801
20.1587
19.9789
20.158
19.9583
20.1063
19.9574
20.106
20.1607
19.9833
20.1596
19.9815
20.1077
19.9604
20.1069
19.9592
20.0285
20.069
20.0272
20.0681
20.0485
20.0817
20.0476
20.0815
20.0834
20.0834
20.0828
20.0828
20.0827
20.0827
20.0826
20.0826
20.069
20.0285
20.0681
20.0272
20.0817
20.0485
20.0815
20.0476
19.9833
20.1607
19.9815
20.1596
19.9604
20.1077
19.9592
20.1069
20.1634
19.9883
20.1619
19.9856
20.11
19.9629
20.1087
19.9616
20.0319
20.0714
20.0301
20.0701
20.0507
20.0828
20.0495
20.0822
20.0854
20.0854
20.0843
20.0843
20.0835
20.0835
20.083
20.083
20.0714
20.0319
20.0701
20.0301
20.0828
20.0507
20.0822
20.0495
19.9883
20.1634
19.9856
20.1619
19.9629
20.11
19.9616
20.1087
20.1668
19.9917
20.165
19.9898
20.1132
19.9681
20.1115
19.9654
20.0359
20.0746
20.0338
20.0729
20.0538
20.0847
20.0521
20.0836
20.0882
20.0882
20.0867
20.0867
20.0852
20.0852
20.0842
20.0842
20.0746
20.0359
20.0729
20.0338
20.0847
20.0538
20.0836
20.0521
19.9917
20.1667
19.9898
20.165
19.9681
20.1131
19.9654
20.1115
20.1708
19.9966
20.1687
19.994
20.1173
19.9737
20.1151
19.9708
20.0407
20.0786
20.0382
20.0766
20.0576
20.0874
20.0556
20.086
20.0918
20.0918
20.0899
20.0899
20.0879
20.0879
20.0864
20.0864
20.0786
20.0407
20.0766
20.0382
20.0874
20.0576
20.086
20.0556
19.9966
20.1708
19.994
20.1687
19.9737
20.1173
19.9708
20.1151
20.1754
20.0024
20.1731
19.9994
20.1223
19.98
20.1197
19.9767
20.0461
20.0833
20.0433
20.0809
20.0622
20.091
20.0598
20.0891
20.0961
20.0961
20.0939
20.0939
20.0915
20.0915
20.0896
20.0896
20.0833
20.0461
20.0809
20.0433
20.091
20.0622
20.0891
20.0598
20.0024
20.1754
19.9994
20.1731
19.98
20.1223
19.9767
20.1197
20.1802
20.009
20.1778
20.0056
20.1281
19.9871
20.1251
19.9834
20.0521
20.0885
20.049
20.0858
20.0673
20.0953
20.0647
20.0931
20.1012
20.1012
20.0986
20.0986
20.096
20.096
20.0937
20.0937
20.0885
20.0521
20.0858
20.049
20.0953
20.0673
20.0931
20.0647
20.009
20.1802
20.0056
20.1778
19.9871
20.1281
19.9834
20.1251
20.1845
20.0163
20.1825
20.0125
20.1342
19.9952
20.1312
19.991
20.0587
20.0942
20.0553
20.0913
20.073
20.1002
20.0701
20.0977
20.1068
20.1068
20.1039
20.1039
20.1014
20.1014
20.0986
20.0986
20.0942
20.0587
20.0913
20.0553
20.1002
20.073
20.0977
20.0701
20.0163
20.1845
20.0125
20.1825
19.9952
20.1342
19.991
20.1312
20.1869
20.0252
20.1861
20.0204
20.1399
20.0046
20.1373
19.9997
20.0656
20.1002
20.0621
20.0972
20.079
20.1057
20.076
20.1029
20.113
20.113
20.1098
20.1098
20.1075
20.1075
20.1044
20.1044
20.1002
20.0656
20.0972
20.0621
20.1057
20.079
20.1029
20.076
20.0252
20.1869
20.0204
20.1861
20.0046
20.1399
19.9997
20.1372
20.1809
20.0405
20.186
20.0312
20.1403
20.0175
20.1416
20.0098
20.0732
20.1064
20.0693
20.1032
20.0854
20.1117
20.0821
20.1086
20.1198
20.1198
20.1163
20.1163
20.1145
20.1145
20.1109
20.1109
20.1064
20.0732
20.1032
20.0693
20.1117
20.0854
20.1086
20.0821
20.0405
20.1809
20.0312
20.186
20.0175
20.1403
20.0098
20.1416
20.1985
20.0349
20.1749
20.0513
20.1566
20.0156
20.1377
20.0265
20.0758
20.1136
20.0767
20.1098
20.09
20.119
20.0888
20.1152
20.1273
20.1273
20.1235
20.1235
20.1223
20.1223
20.1183
20.1183
20.1136
20.0758
20.1098
20.0767
20.119
20.09
20.1152
20.0888
20.0349
20.1985
20.0513
20.1748
20.0156
20.1566
20.0265
20.1377
20.4472
19.9843
20.3383
20.0058
20.4426
19.9662
20.3369
19.9933
19.9734
20.0368
20.0177
20.0657
19.9772
20.0464
20.0198
20.0715
20.0767
20.0767
20.0928
20.0928
20.0853
20.0853
20.0977
20.0977
20.0368
19.9734
20.0657
20.0177
20.0464
19.9772
20.0715
20.0198
19.9843
20.4472
20.0057
20.3383
19.9662
20.4426
19.9933
20.3369
20.2833
20.0953
20.3339
20.0698
20.2907
20.0701
20.3382
20.0452
20.0288
20.0421
20.0092
20.0398
20.0255
20.0506
20.0089
20.0485
20.0611
20.0611
20.0677
20.0677
20.0725
20.0725
20.0779
20.0779
20.0421
20.0288
20.0398
20.0092
20.0506
20.0255
20.0485
20.0089
20.0953
20.2833
20.0698
20.3339
20.0701
20.2906
20.0452
20.3382
20.2466
20.0997
20.2609
20.1004
20.2543
20.0744
20.2687
20.0752
20.047
20.0508
20.0404
20.0464
20.0429
20.0595
20.0361
20.055
20.0612
20.0612
20.0598
20.0598
20.0734
20.0734
20.0717
20.0717
20.0508
20.047
20.0464
20.0404
20.0595
20.0429
20.055
20.0361
20.0997
20.2466
20.1004
20.2609
20.0744
20.2542
20.0752
20.2687
20.2289
20.0944
20.2365
20.0973
20.2359
20.0689
20.2438
20.0718
20.0524
20.058
20.0505
20.0547
20.0492
20.067
20.047
20.0635
20.0669
20.0669
20.0638
20.0638
20.0793
20.0793
20.0761
20.0761
20.058
20.0524
20.0547
20.0505
20.067
20.0492
20.0635
20.047
20.0944
20.2289
20.0973
20.2365
20.0689
20.2359
20.0718
20.2438
20.2182
20.0886
20.223
20.0914
20.2247
20.0632
20.2297
20.066
20.0537
20.0629
20.0533
20.0607
20.0511
20.0723
20.0505
20.0699
20.0729
20.0729
20.07
20.07
20.0856
20.0856
20.0826
20.0826
20.0629
20.0537
20.0607
20.0533
20.0723
20.0511
20.0699
20.0505
20.0886
20.2182
20.0914
20.223
20.0632
20.2247
20.066
20.2297
20.2108
20.0837
20.2142
20.086
20.2171
20.0582
20.2206
20.0606
20.0537
20.0661
20.0537
20.0647
20.0512
20.0759
20.0513
20.0743
20.0779
20.0779
20.0756
20.0756
20.0909
20.0909
20.0885
20.0885
20.0661
20.0537
20.0647
20.0538
20.0759
20.0513
20.0743
20.0513
20.0837
20.2108
20.086
20.2142
20.0582
20.217
20.0606
20.2206
20.2054
20.0795
20.2079
20.0815
20.2114
20.054
20.2141
20.056
20.0532
20.0681
20.0535
20.0672
20.0507
20.0783
20.051
20.0772
20.0815
20.0815
20.0798
20.0798
20.0949
20.0949
20.0931
20.0931
20.0681
20.0532
20.0672
20.0535
20.0783
20.0507
20.0772
20.0511
20.0795
20.2054
20.0815
20.2079
20.054
20.2114
20.056
20.2141
20.2011
20.076
20.2032
20.0777
20.2071
20.0504
20.2091
20.0521
20.0523
20.0692
20.0528
20.0687
20.0498
20.0797
20.0503
20.0791
20.0839
20.0839
20.0828
20.0828
20.0977
20.0977
20.0965
20.0965
20.0692
20.0523
20.0687
20.0528
20.0797
20.0498
20.0791
20.0503
20.076
20.2011
20.0777
20.2032
20.0504
20.2071
20.0521
20.2091
20.1976
20.0729
20.1993
20.0744
20.2035
20.0472
20.2052
20.0487
20.0511
20.0696
20.0517
20.0695
20.0487
20.0803
20.0493
20.0801
20.0854
20.0854
20.0848
20.0848
20.0994
20.0994
20.0987
20.0987
20.0696
20.0511
20.0695
20.0517
20.0803
20.0487
20.0801
20.0493
20.0729
20.1976
20.0744
20.1993
20.0472
20.2035
20.0487
20.2052
20.1946
20.07
20.1961
20.0714
20.2005
20.0443
20.2019
20.0457
20.0498
20.0694
20.0505
20.0696
20.0473
20.0803
20.048
20.0804
20.086
20.086
20.0858
20.0858
20.1003
20.1003
20.0999
20.0999
20.0694
20.0498
20.0696
20.0505
20.0803
20.0473
20.0804
20.048
20.07
20.1946
20.0714
20.1961
20.0443
20.2005
20.0457
20.202
20.1919
20.0673
20.1932
20.0686
20.1976
20.0416
20.1991
20.0429
20.0482
20.0688
20.049
20.0692
20.0457
20.0798
20.0465
20.0801
20.086
20.086
20.0861
20.0861
20.1004
20.1004
20.1004
20.1004
20.0688
20.0482
20.0692
20.049
20.0798
20.0457
20.0801
20.0465
20.0673
20.1919
20.0686
20.1932
20.0415
20.1977
20.0429
20.1991
20.1893
20.0646
20.1906
20.0659
20.195
20.0389
20.1963
20.0402
20.0465
20.0678
20.0473
20.0684
20.044
20.0789
20.0449
20.0794
20.0854
20.0854
20.0858
20.0858
20.0999
20.0999
20.1002
20.1002
20.0678
20.0465
20.0683
20.0473
20.0789
20.044
20.0794
20.0449
20.0647
20.1893
20.0659
20.1906
20.039
20.195
20.0402
20.1964
20.1867
20.0621
20.188
20.0633
20.1923
20.0364
20.1937
20.0376
20.0446
20.0664
20.0455
20.0671
20.0421
20.0776
20.0431
20.0783
20.0844
20.0844
20.085
20.085
20.099
20.099
20.0995
20.0995
20.0664
20.0446
20.0671
20.0455
20.0776
20.0421
20.0783
20.043
20.0621
20.1867
20.0633
20.188
20.0363
20.1925
20.0376
20.1937
20.1843
20.0594
20.1855
20.0607
20.19
20.0336
20.1911
20.035
20.0425
20.0648
20.0435
20.0656
20.0399
20.0759
20.041
20.0768
20.083
20.083
20.0838
20.0838
20.0976
20.0976
20.0983
20.0983
20.0648
20.0425
20.0656
20.0435
20.0759
20.04
20.0768
20.041
20.0594
20.1842
20.0607
20.1855
20.0337
20.1899
20.035
20.1912
20.1816
20.0569
20.1829
20.0582
20.1874
20.0311
20.1887
20.0323
20.0403
20.0629
20.0414
20.0639
20.0377
20.074
20.0388
20.075
20.0814
20.0814
20.0822
20.0822
20.0958
20.0958
20.0967
20.0967
20.0629
20.0403
20.0639
20.0414
20.074
20.0377
20.075
20.0388
20.0569
20.1816
20.0582
20.1829
20.031
20.1875
20.0323
20.1887
20.1794