/*--------------------------------*- C++ -*----------------------------------*\
  =========                 |
  \\      /  F ield         | OpenFOAM: The Open Source CFD Toolbox
   \\    /   O peration     | Website:  https://openfoam.org
    \\  /    A nd           | Version:  9
     \\/     M anipulation  |
\*---------------------------------------------------------------------------*/
FoamFile
{
    format      ascii;
    class       volScalarField;
    location    "1.2";
    object      k;
}
// * * * * * * * * * * * * * * * * * * * * * * * * * * * * * * * * * * * * * //

dimensions      [0 2 -2 0 0 0 0];

internalField   nonuniform List<scalar> 
36360
(
0.0875441
0.0906164
0.0131866
0.0184861
0.0110078
0.0107065
0.00424928
0.00388999
0.0155081
0.00337866
0.00394333
0.00306719
0.00378484
0.00298616
0.00337936
0.00350462
0.00248001
0.00248001
0.00326559
0.00326558
0.00307286
0.00307285
0.00348015
0.00348015
0.00337859
0.0155074
0.00306719
0.0039433
0.00298614
0.00378478
0.00350461
0.00337935
0.090614
0.0875408
0.0184859
0.0131862
0.0107061
0.0110073
0.00388997
0.00424926
0.386567
0.318067
0.255943
0.214098
0.104362
0.0827822
0.0438544
0.0393538
0.143231
0.0465453
0.0685508
0.0121711
0.0308664
0.0069928
0.0100161
0.00329209
0.00833061
0.00833037
0.00275608
0.00275603
0.0028044
0.00280437
0.00268266
0.00268266
0.0465454
0.143233
0.0121706
0.0685496
0.00699261
0.0308664
0.00329203
0.0100159
0.318071
0.386569
0.214096
0.255939
0.0827831
0.104361
0.039353
0.0438519
0.540126
0.452171
0.476368
0.394989
0.17956
0.142338
0.148791
0.117004
0.252441
0.134852
0.204073
0.0931181
0.0784094
0.0356482
0.0573759
0.0185432
0.0745299
0.0745331
0.0312091
0.0312098
0.0124034
0.0124037
0.00462442
0.00462434
0.134861
0.252456
0.0931221
0.204081
0.03565
0.0784141
0.0185434
0.0573779
0.452189
0.540145
0.395
0.476378
0.142345
0.179567
0.117008
0.148794
0.622517
0.5288
0.586959
0.495389
0.217532
0.175734
0.201395
0.16126
0.321922
0.201974
0.291016
0.17136
0.1079
0.0641902
0.0948715
0.0511122
0.145714
0.145722
0.113343
0.113348
0.0417064
0.0417086
0.0274321
0.0274332
0.201996
0.321953
0.171375
0.291038
0.0641973
0.107912
0.0511164
0.0948795
0.528836
0.622556
0.495416
0.586988
0.17575
0.217548
0.161271
0.201406
0.670505
0.57461
0.649652
0.554607
0.238888
0.195436
0.229665
0.18686
0.365659
0.24636
0.346429
0.226759
0.126187
0.0830746
0.118166
0.074765
0.192064
0.192077
0.171683
0.171693
0.0624847
0.0624891
0.053403
0.0534063
0.246393
0.365708
0.226786
0.346469
0.0830875
0.126207
0.0747749
0.118182
0.574667
0.670565
0.554654
0.649701
0.195461
0.238915
0.18688
0.229687
0.697931
0.601143
0.68619
0.589755
0.250926
0.206758
0.245795
0.201916
0.391527
0.27286
0.380407
0.261463
0.136916
0.0941634
0.132318
0.0894237
0.219439
0.219455
0.20769
0.207704
0.0743708
0.074377
0.0693257
0.069331
0.272905
0.391592
0.261503
0.380465
0.0941814
0.136944
0.0894391
0.132341
0.601219
0.698011
0.589822
0.68626
0.206792
0.250962
0.201946
0.245827
0.712228
0.615105
0.706323
0.609323
0.257155
0.21266
0.254593
0.21023
0.405348
0.287092
0.399623
0.281191
0.142583
0.0999784
0.140247
0.0975874
0.234096
0.234115
0.228018
0.228035
0.08049
0.0804976
0.0779839
0.0779908
0.287146
0.405426
0.28124
0.399695
0.100001
0.142617
0.0976075
0.140277
0.615196
0.712323
0.609407
0.706412
0.212701
0.257199
0.210269
0.254634
0.71829
0.621132
0.715998
0.618835
0.259802
0.215176
0.258804
0.214227
0.411498
0.293544
0.409145
0.291054
0.145064
0.102526
0.144122
0.101557
0.240792
0.240812
0.238195
0.238215
0.083152
0.0831604
0.0821395
0.0821476
0.293599
0.411577
0.291111
0.409226
0.102551
0.1451
0.101581
0.144158
0.621221
0.718379
0.618929
0.716095
0.21522
0.259847
0.21427
0.25885
0.719286
0.622277
0.71924
0.622136
0.260295
0.21565
0.260235
0.215591
0.413041
0.295416
0.412687
0.294892
0.14566
0.103204
0.145529
0.10303
0.242861
0.242875
0.24224
0.242258
0.0838861
0.0838931
0.0836875
0.0836957
0.295451
0.413084
0.294941
0.412754
0.103222
0.145684
0.103053
0.145562
0.622345
0.719348
0.622214
0.71931
0.215676
0.260319
0.215628
0.260271
0.717538
0.620847
0.718711
0.621827
0.259726
0.215132
0.260148
0.215515
0.41223
0.294977
0.412861
0.295384
0.145363
0.103012
0.145606
0.103183
0.242598
0.2426
0.242901
0.24291
0.0837345
0.0837386
0.083878
0.083884
0.294969
0.412188
0.295403
0.412876
0.103019
0.145358
0.103197
0.14562
0.620803
0.717489
0.621867
0.718748
0.215112
0.259693
0.215526
0.260153
0.714324
0.618054
0.71597
0.619492
0.258501
0.214019
0.259136
0.214595
0.410108
0.293269
0.411238
0.2942
0.144531
0.102313
0.14497
0.102686
0.241085
0.241077
0.241923
0.241919
0.0830791
0.0830807
0.0834305
0.0834329
0.293225
0.409987
0.29417
0.411153
0.10231
0.144501
0.102686
0.14495
0.617862
0.714121
0.619387
0.715859
0.213954
0.258414
0.214549
0.259073
0.710564
0.614738
0.712478
0.616422
0.257101
0.212744
0.257814
0.213393
0.407572
0.291153
0.408869
0.292238
0.143557
0.101483
0.144053
0.101906
0.239159
0.239153
0.240148
0.240139
0.082295
0.0822971
0.0826948
0.0826962
0.291114
0.407454
0.292189
0.408728
0.101481
0.14353
0.101902
0.144019
0.614517
0.710263
0.616165
0.712188
0.212683
0.257009
0.213316
0.257712
0.706414
0.611181
0.708424
0.612885
0.255592
0.211391
0.256332
0.212052
0.404858
0.288893
0.406205
0.290028
0.142529
0.100609
0.143042
0.101048
0.237099
0.237104
0.238137
0.238135
0.0814702
0.0814752
0.0818842
0.0818875
0.2889
0.404863
0.29001
0.406148
0.10062
0.142537
0.101051
0.14303
0.611352
0.706617
0.612887
0.708355
0.211411
0.255597
0.212028
0.25628
0.70258
0.607887
0.704461
0.609503
0.254105
0.21005
0.254832
0.210702
0.402165
0.286599
0.4035
0.287743
0.141486
0.0997198
0.142002
0.100164
0.234993
0.235007
0.236047
0.236059
0.0806307
0.0806384
0.0810507
0.0810574
0.286635
0.402198
0.28777
0.403527
0.0997414
0.14152
0.100181
0.142029
0.60788
0.702581
0.609551
0.704567
0.210104
0.254158
0.210753
0.254878
0.698828
0.604657
0.700653
0.606241
0.252679
0.208768
0.253382
0.209404
0.399502
0.284305
0.400831
0.285454
0.14046
0.0988267
0.140972
0.0992737
0.232864
0.232878
0.233931
0.233946
0.0797803
0.0797879
0.0802064
0.0802143
0.284334
0.399505
0.285489
0.400857
0.0988464
0.140481
0.0992953
0.141002
0.604587
0.698716
0.606223
0.700626
0.20877
0.252676
0.20944
0.253416
0.694632
0.601074
0.696695
0.602811
0.251149
0.207384
0.251908
0.208066
0.396739
0.281958
0.398115
0.283135
0.139396
0.0979127
0.139928
0.0983713
0.230695
0.230709
0.231783
0.231797
0.0789116
0.0789188
0.0793476
0.0793549
0.281991
0.396757
0.283162
0.398115
0.097932
0.139423
0.09839
0.139948
0.601149
0.694666
0.602804
0.696627
0.207418
0.251167
0.208072
0.251901
0.690327
0.597469
0.692423
0.59921
0.249578
0.205984
0.250351
0.206672
0.393926
0.279565
0.395325
0.280765
0.13831
0.0969751
0.138853
0.0974461
0.228476
0.228491
0.229591
0.229606
0.0780192
0.0780264
0.0784678
0.0784749
0.279601
0.393965
0.280803
0.395369
0.0969948
0.138341
0.0974656
0.138884
0.597595
0.690492
0.599373
0.692586
0.206039
0.249634
0.20673
0.2504
0.686012
0.593877
0.688162
0.595656
0.247993
0.204561
0.248785
0.205271
0.391066
0.277113
0.392501
0.278346
0.137197
0.0960096
0.137755
0.0964949
0.226196
0.226209
0.227343
0.227357
0.0770987
0.0771056
0.0775618
0.0775689
0.277138
0.391066
0.278374
0.392506
0.0960281
0.13722
0.096514
0.13778
0.593857
0.685966
0.595635
0.688155
0.204579
0.248006
0.205294
0.248809
0.681629
0.590242
0.683807
0.592046
0.246364
0.203108
0.247173
0.203831
0.388128
0.274583
0.389603
0.275857
0.136051
0.0950117
0.136626
0.0955142
0.223841
0.223853
0.225028
0.22504
0.0761451
0.0761509
0.0766255
0.0766318
0.274605
0.388128
0.275881
0.389605
0.0950258
0.136063
0.0955306
0.136644
0.59031
0.681688
0.59207
0.683797
0.203107
0.246362
0.203842
0.247181
0.676967
0.586395
0.679255
0.588282
0.24462
0.201546
0.245491
0.202324
0.385034
0.271949
0.386586
0.273277
0.134846
0.0939725
0.135452
0.0944963
0.221399
0.221411
0.222631
0.222642
0.0751541
0.0751592
0.0756535
0.0756588
0.271973
0.385041
0.273299
0.386591
0.0939848
0.134858
0.094509
0.135463
0.586401
0.676975
0.588334
0.679326
0.201549
0.244619
0.202325
0.245489
0.672001
0.582308
0.674467
0.584317
0.242808
0.199928
0.243713
0.200736
0.381823
0.269216
0.383437
0.270593
0.133592
0.0928912
0.134223
0.093436
0.218868
0.21888
0.220144
0.220156
0.0741247
0.0741295
0.0746432
0.0746481
0.269244
0.381836
0.270619
0.383445
0.0929029
0.133603
0.0934477
0.134234
0.582301
0.671998
0.584332
0.674477
0.199926
0.242803
0.200735
0.24371
0.666785
0.578039
0.669371
0.580147
0.240873
0.198204
0.241836
0.199059
0.378466
0.266384
0.380146
0.267809
0.132281
0.0917694
0.132939
0.0923337
0.216251
0.216266
0.217568
0.217582
0.0730589
0.0730641
0.0735952
0.0736
0.266422
0.37851
0.267841
0.380172
0.0917837
0.132302
0.0923461
0.132953
0.57807
0.666799
0.580132
0.669346
0.198228
0.240893
0.199065
0.24184
0.661424
0.573691
0.66405
0.575808
0.2389
0.196454
0.239877
0.197319
0.375047
0.263479
0.376752
0.264938
0.130937
0.0906141
0.13161
0.0911946
0.21356
0.213579
0.214914
0.21493
0.0719597
0.0719658
0.0725125
0.0725181
0.26353
0.375117
0.264983
0.376812
0.0906329
0.13097
0.091211
0.131637
0.57376
0.661503
0.575882
0.664125
0.196499
0.238948
0.197357
0.239914
0.656033
0.569344
0.658671
0.571457
0.236905
0.194687
0.237887
0.195554
0.371594
0.26051
0.373311
0.262
0.129569
0.0894276
0.130252
0.090024
0.210792
0.210812
0.212186
0.212206
0.0708251
0.0708316
0.0713965
0.0714029
0.260568
0.371673
0.262057
0.373388
0.089448
0.129605
0.090044
0.130289
0.569408
0.656094
0.571518
0.658735
0.194734
0.236957
0.195604
0.237941
0.650515
0.564886
0.653273
0.567112
0.234863
0.192869
0.235889
0.193783
0.368032
0.257429
0.369833
0.258988
0.128152
0.0881921
0.128869
0.0888173
0.207909
0.207928
0.209368
0.209388
0.06964
0.0696466
0.0702394
0.0702459
0.257484
0.368109
0.259045
0.369909
0.0882115
0.128184
0.088837
0.128902
0.564964
0.650589
0.567174
0.653331
0.192908
0.234906
0.193823
0.235934
0.644474
0.559984
0.647517
0.562445
0.232635
0.190878
0.233763
0.191884
0.364185
0.254147
0.366138
0.255813
0.126628
0.0868779
0.127402
0.0875448
0.204856
0.204875
0.206404
0.206424
0.0683844
0.0683914
0.0690209
0.0690276
0.254202
0.364266
0.255869
0.366218
0.0868982
0.12666
0.0875643
0.127433
0.560078
0.644574
0.562534
0.647608
0.19092
0.23268
0.191925
0.233807
0.638
0.554731
0.641233
0.557348
0.230246
0.188747
0.231446
0.189817
0.360077
0.250661
0.362152
0.252426
0.125002
0.0854812
0.125824
0.0861884
0.201621
0.201641
0.203259
0.203279
0.0670517
0.0670593
0.0677267
0.0677339
0.250718
0.36016
0.252482
0.362234
0.0855032
0.125036
0.0862094
0.125856
0.554829
0.638105
0.557445
0.641336
0.188791
0.230293
0.18986
0.231492
0.63124
0.549241
0.634605
0.551968
0.227747
0.186514
0.228998
0.187632
0.355775
0.247004
0.35794
0.24885
0.123295
0.0840132
0.124155
0.0847543
0.198224
0.198245
0.19994
0.199961
0.0656483
0.0656562
0.0663574
0.0663651
0.247062
0.355861
0.248908
0.358025
0.0840362
0.123331
0.0847768
0.12419
0.549341
0.631347
0.552067
0.634711
0.186559
0.227795
0.187676
0.229046
0.624266
0.54357
0.627731
0.546382
0.225167
0.184214
0.226456
0.18536
0.351324
0.24321
0.353559
0.245121
0.121529
0.0824881
0.122416
0.0832561
0.194694
0.194715
0.196473
0.196494
0.064186
0.0641939
0.0649229
0.0649308
0.24327
0.35141
0.24518
0.353645
0.0825113
0.121564
0.0832792
0.122452
0.543671
0.624373
0.546483
0.627838
0.184259
0.225215
0.185405
0.226504
0.617124
0.537751
0.620669
0.540634
0.222523
0.181864
0.223842
0.183036
0.346755
0.239309
0.349046
0.241271
0.119714
0.0809176
0.120625
0.0817071
0.191056
0.191077
0.192887
0.192908
0.0626766
0.0626844
0.0634357
0.0634435
0.239367
0.34684
0.24133
0.349132
0.0809404
0.11975
0.08173
0.12066
0.537851
0.617231
0.540735
0.620776
0.181909
0.222571
0.183081
0.223891
0.609843
0.531806
0.613456
0.534751
0.219825
0.179462
0.221171
0.18066
0.342083
0.235315
0.344425
0.237322
0.117859
0.0793108
0.118789
0.0801175
0.187329
0.18735
0.189203
0.189223
0.0611303
0.0611379
0.0619069
0.0619145
0.235373
0.342167
0.23738
0.344509
0.0793331
0.117894
0.08014
0.118824
0.531905
0.609948
0.53485
0.613562
0.179506
0.219872
0.180704
0.221218
0.602422
0.525732
0.606108
0.528744
0.217075
0.177009
0.218447
0.178233
0.337306
0.231231
0.339703
0.233284
0.115965
0.0776716
0.116915
0.0784946
0.183515
0.183536
0.185434
0.185454
0.0595521
0.0595595
0.0603445
0.0603519
0.231287
0.337388
0.233342
0.339786
0.0776933
0.115999
0.0785166
0.116949
0.525828
0.602525
0.528842
0.606211
0.177052
0.217121
0.178276
0.218494
0.594816
0.519479
0.598605
0.522591
0.214255
0.174489
0.215667
0.17575
0.332381
0.227018
0.334861
0.229144
0.11402
0.0759917
0.114999
0.0768373
0.17958
0.1796
0.181567
0.181587
0.0579357
0.0579429
0.0587491
0.0587563
0.227073
0.332462
0.2292
0.334943
0.0760128
0.114054
0.0768586
0.115032
0.519574
0.594916
0.522687
0.598706
0.174531
0.2143
0.175793
0.215712
0.586882
0.512914
0.590861
0.516207
0.211309
0.171853
0.212794
0.173181
0.327189
0.222569
0.329824
0.224832
0.111986
0.0742384
0.113017
0.075127
0.175421
0.17544
0.177538
0.177558
0.0562517
0.0562586
0.0571047
0.0571116
0.222623
0.327267
0.224887
0.329904
0.0742588
0.112018
0.0751476
0.113049
0.513006
0.586979
0.5163
0.59096
0.171894
0.211353
0.173223
0.212839
0.578315
0.505755
0.582663
0.509392
0.208113
0.168994
0.209745
0.170452
0.321476
0.217651
0.324415
0.220188
0.109771
0.0723345
0.110907
0.0733119
0.170815
0.170834
0.173193
0.173212
0.0544278
0.0544344
0.0553634
0.0553702
0.217704
0.321552
0.220242
0.324492
0.0723541
0.109802
0.0733318
0.110939
0.505844
0.57841
0.509483
0.582759
0.169033
0.208156
0.170492
0.209788
0.568514
0.497457
0.573581
0.501755
0.204423
0.165714
0.206343
0.167415
0.314764
0.211837
0.318282
0.214892
0.107202
0.0701276
0.108544
0.0712815
0.165362
0.16538
0.168227
0.168245
0.0523208
0.0523271
0.0534212
0.0534277
0.211888
0.314838
0.214943
0.318357
0.0701465
0.107232
0.0713006
0.108575
0.497544
0.568606
0.501843
0.573674
0.165753
0.204464
0.167454
0.206385
0.556305
0.48695
0.562777
0.492542
0.199774
0.161666
0.202251
0.163808
0.306146
0.204399
0.310771
0.208379
0.103957
0.067354
0.10569
0.0688324
0.158446
0.158464
0.16213
0.162148
0.0496966
0.0497026
0.0510901
0.0510963
0.204448
0.306218
0.20843
0.310844
0.067372
0.103986
0.0688507
0.10572
0.487035
0.556395
0.492628
0.562868
0.161704
0.199814
0.163846
0.202292
0.539353
0.471493
0.548583
0.480121
0.193303
0.156126
0.196832
0.159154
0.293651
0.194202
0.300578
0.199728
0.0994203
0.0636217
0.101907
0.065634
0.1494
0.149417
0.154216
0.154233
0.0462844
0.0462901
0.0481004
0.0481061
0.19425
0.293722
0.199777
0.300649
0.0636389
0.0994485
0.0656515
0.101935
0.471577
0.539443
0.480205
0.548673
0.156163
0.193344
0.159191
0.196872
0.513596
0.439213
0.52796
0.459273
0.182975
0.145535
0.188914
0.152038
0.272573
0.180226
0.28461
0.187667
0.0922615
0.0586316
0.0962889
0.0612741
0.138417
0.138433
0.144045
0.144062
0.0421215
0.0421267
0.0442609
0.0442662
0.180272
0.272641
0.187714
0.284679
0.0586478
0.0922884
0.0612908
0.0963165
0.439294
0.513688
0.459356
0.52805
0.145571
0.183016
0.152075
0.188954
0.162228
0.146864
0.0215623
0.0259687
0.127733
0.122069
0.0172978
0.0214561
0.0343685
0.00569235
0.00467185
0.00312481
0.0251852
0.00437244
0.00423721
0.00311069
0.00263527
0.00263523
0.00325233
0.00325234
0.00255401
0.00255399
0.00330159
0.0033016
0.00569207
0.0343668
0.0031248
0.00467175
0.00437227
0.0251841
0.00311068
0.00423715
0.146857
0.162214
0.0259677
0.02156
0.122065
0.127726
0.0214556
0.0172969
0.561788
0.461829
0.392473
0.320536
0.498125
0.408255
0.342936
0.280411
0.24312
0.107275
0.132986
0.0349875
0.203926
0.081323
0.106469
0.0240012
0.0333201
0.0333211
0.00593364
0.00593347
0.0202508
0.0202509
0.00400185
0.0040017
0.107279
0.243128
0.0349876
0.132986
0.0813247
0.20393
0.0240007
0.106468
0.461838
0.561797
0.320537
0.392472
0.408262
0.498131
0.280411
0.342934
0.775727
0.652787
0.68455
0.569749
0.68908
0.577258
0.608566
0.504446
0.406548
0.249376
0.33316
0.181834
0.345544
0.201144
0.282501
0.144442
0.16898
0.168987
0.0992124
0.0992166
0.126963
0.126969
0.06786
0.0678624
0.249396
0.406575
0.181845
0.333177
0.201159
0.345565
0.14445
0.282513
0.652819
0.775761
0.569769
0.684571
0.577284
0.689107
0.504461
0.608581
0.898138
0.767952
0.844747
0.71723
0.795197
0.676506
0.74917
0.633025
0.514426
0.35512
0.466137
0.30715
0.436988
0.290106
0.396202
0.249736
0.277972
0.277986
0.228649
0.22866
0.219686
0.219697
0.177752
0.17776
0.355158
0.514478
0.307179
0.466177
0.290137
0.437031
0.249758
0.396233
0.768013
0.898202
0.717276
0.844796
0.676556
0.79525
0.633062
0.749209
0.971319
0.838679
0.939347
0.807623
0.857707
0.736565
0.83048
0.710275
0.583694
0.425014
0.553069
0.394008
0.495085
0.348725
0.469468
0.322775
0.34951
0.34953
0.317821
0.317838
0.280136
0.280153
0.253438
0.253452
0.425069
0.583773
0.394055
0.553135
0.348771
0.49515
0.322813
0.469522
0.838771
0.971417
0.8077
0.939428
0.736641
0.857788
0.710338
0.830546
1.01387
0.880449
0.995558
0.862417
0.893691
0.771657
0.878248
0.756552
0.625589
0.467701
0.60745
0.449194
0.529863
0.384177
0.514852
0.368858
0.393062
0.393088
0.37419
0.374213
0.316489
0.31651
0.300798
0.300817
0.467773
0.625693
0.449258
0.607542
0.384237
0.52995
0.368912
0.514928
0.880569
1.014
0.862524
0.995671
0.771758
0.893797
0.756641
0.878342
1.03648
0.902954
1.02707
0.893558
0.912602
0.790335
0.904764
0.782568
0.648643
0.491395
0.638995
0.481458
0.548752
0.403577
0.540882
0.39548
0.417253
0.417283
0.407101
0.407129
0.336365
0.336391
0.328067
0.32809
0.491479
0.648764
0.481537
0.639108
0.403648
0.548854
0.395547
0.540978
0.903095
1.03663
0.89369
1.02721
0.790454
0.912727
0.782678
0.904881
1.04637
0.913048
1.04258
0.909136
0.920712
0.798543
0.917627
0.795389
0.659407
0.502685
0.655201
0.498238
0.557384
0.41262
0.554042
0.40909
0.428867
0.428898
0.424273
0.424304
0.345697
0.345723
0.342039
0.342065
0.502771
0.65953
0.498325
0.655326
0.412693
0.557487
0.409164
0.554147
0.91319
1.04652
0.909281
1.04273
0.79866
0.920835
0.79551
0.917756
1.04844
0.915507
1.04806
0.914929
0.922234
0.800366
0.92202
0.799992
0.662637
0.506433
0.661708
0.505251
0.559797
0.415457
0.559151
0.414601
0.432885
0.432909
0.431572
0.431601
0.348767
0.348785
0.347799
0.347823
0.506496
0.662712
0.505331
0.661818
0.415499
0.559829
0.414665
0.559235
0.915573
1.04851
0.915051
1.04819
0.800352
0.922241
0.80008
0.922119
1.04608
0.913655
1.04772
0.914999
0.920194
0.79876
0.921567
0.799884
0.661742
0.506101
0.662552
0.506593
0.558919
0.415035
0.559652
0.415502
0.432806
0.432818
0.433166
0.433185
0.348556
0.348558
0.348909
0.34892
0.506118
0.661712
0.506637
0.662587
0.415014
0.558785
0.415519
0.559624
0.913542
1.04594
0.914993
1.0477
0.798305
0.919692
0.799701
0.921398
1.04108
0.909324
1.04369
0.911593
0.916094
0.795205
0.918223
0.797058
0.65854
0.503564
0.660283
0.504993
0.556209
0.412845
0.55767
0.414058
0.430573
0.430572
0.431862
0.431866
0.346612
0.3466
0.347711
0.347704
0.503533
0.658398
0.504983
0.660192
0.412771
0.555938
0.414005
0.557459
0.908954
1.04062
0.911354
1.0434
0.794513
0.915277
0.796468
0.917525
1.03545
0.904402
1.03824
0.906842
0.911303
0.790978
0.913726
0.793121
0.654636
0.500234
0.65663
0.501952
0.552889
0.41004
0.554585
0.411483
0.427507
0.427504
0.429095
0.429091
0.34404
0.344028
0.345366
0.345352
0.500191
0.654454
0.501904
0.656432
0.409962
0.552592
0.411396
0.554264
0.904077
1.035
0.906414
1.03765
0.790235
0.910347
0.792297
0.912725
1.02954
0.899228
1.03243
0.901764
0.905911
0.786284
0.908602
0.788611
0.650393
0.496603
0.652519
0.498435
0.549282
0.407007
0.551095
0.408537
0.424155
0.424162
0.42585
0.425852
0.341258
0.341259
0.342662
0.342656
0.496599
0.650319
0.498415
0.652407
0.406981
0.549139
0.408483
0.550877
0.899009
1.02927
0.901534
1.03214
0.785957
0.905504
0.78809
0.907909
1.02351
0.893913
1.02649
0.896541
0.900533
0.78165
0.903135
0.7839
0.646077
0.492881
0.648233
0.494747
0.545592
0.4039
0.547429
0.405454
0.420707
0.420719
0.422438
0.422447
0.338404
0.338414
0.339834
0.33984
0.492889
0.646007
0.49475
0.648162
0.403903
0.545496
0.405446
0.547316
0.893673
1.02322
0.896319
1.02621
0.781246
0.900046
0.783549
0.902744
1.01711
0.888369
1.02024
0.891064
0.895136
0.776968
0.897816
0.779277
0.641666
0.489105
0.643858
0.490995
0.541924
0.400777
0.543746
0.402339
0.417213
0.417228
0.418965
0.418979
0.335518
0.335531
0.336964
0.336977
0.489125
0.641622
0.491014
0.643811
0.400792
0.54187
0.402352
0.543679
0.888098
1.01677
0.890806
1.01994
0.776782
0.894869
0.778958
0.897374
1.01096
0.88302
1.01395
0.885652
0.889759
0.772387
0.892336
0.774597
0.637252
0.485292
0.639458
0.487204
0.538225
0.397612
0.540069
0.399198
0.413675
0.413686
0.41545
0.415463
0.332589
0.332599
0.334059
0.33407
0.485291
0.637136
0.487214
0.639378
0.397612
0.538122
0.399205
0.539993
0.88264
1.01046
0.88534
1.01355
0.772005
0.889304
0.774353
0.892068
1.00418
0.877213
1.00752
0.880032
0.884107
0.767584
0.88688
0.769914
0.632688
0.481395
0.634965
0.483352
0.534429
0.394381
0.536322
0.396003
0.410071
0.410081
0.411882
0.411892
0.329601
0.329611
0.331102
0.331112
0.481394
0.632578
0.483349
0.634853
0.394379
0.53432
0.396001
0.536217
0.876887
1.0038
0.879708
1.00709
0.767262
0.883745
0.769591
0.886458
0.997654
0.871615
1.00085
0.874391
0.878456
0.762787
0.881247
0.765163
0.628058
0.477413
0.63038
0.479416
0.530556
0.391071
0.532495
0.392735
0.406383
0.406393
0.408239
0.408249
0.326538
0.326547
0.328079
0.328088
0.477413
0.627943
0.479414
0.630256
0.39107
0.530437
0.39273
0.532363
0.871126
0.997054
0.873928
1.00032
0.762266
0.877818
0.76467
0.880705
0.990463
0.86549
0.994038
0.8685
0.872399
0.757678
0.875416
0.760203
0.62323
0.473302
0.625649
0.475372
0.526542
0.387656
0.528555
0.389375
0.402584
0.402595
0.404498
0.404509
0.32338
0.32339
0.324971
0.324981
0.473307
0.623153
0.475375
0.625557
0.387662
0.526469
0.389379
0.528468
0.865124
0.989977
0.868069
0.993489
0.757361
0.871988
0.759814
0.874907
0.983257
0.859345
0.986833
0.862412
0.866185
0.752468
0.869234
0.755037
0.618276
0.469061
0.620767
0.471198
0.522377
0.384118
0.524468
0.385901
0.398665
0.398678
0.40064
0.400652
0.320113
0.320125
0.32176
0.32177
0.469071
0.618211
0.471205
0.620695
0.384132
0.522327
0.385909
0.524403
0.859142
0.982961
0.862126
0.986422
0.752295
0.865928
0.754777
0.868878
0.975351
0.852699
0.979277
0.855964
0.85951
0.746899
0.862821
0.749633
0.613091
0.464666
0.615689
0.466879
0.518044
0.380451
0.520217
0.382298
0.394617
0.394632
0.396656
0.39667
0.316734
0.316749
0.318436
0.31845
0.464686
0.613047
0.466895
0.615639
0.380476
0.518023
0.382317
0.520185
0.852542
0.975149
0.855797
0.97905
0.746806
0.85938
0.749518
0.862651
0.967589
0.846175
0.971403
0.849404
0.852717
0.741278
0.856055
0.744042
0.607793
0.460149
0.61045
0.462422
0.513568
0.376668
0.515809
0.37857
0.390452
0.390469
0.392548
0.392564
0.313249
0.313267
0.315003
0.315019
0.460176
0.607754
0.462444
0.610404
0.376705
0.513575
0.378601
0.5158
0.845989
0.967336
0.849219
0.971166
0.741214
0.852635
0.743956
0.855936
0.959352
0.839291
0.963391
0.842645
0.845728
0.735491
0.849165
0.738328
0.602331
0.455512
0.605059
0.457841
0.508993
0.37279
0.511276
0.374737
0.386177
0.386199
0.388327
0.388346
0.309671
0.309694
0.311471
0.311491
0.455562
0.602358
0.457878
0.605049
0.372845
0.509045
0.374782
0.511304
0.839267
0.959282
0.842528
0.963202
0.735461
0.845651
0.73825
0.849068
0.951247
0.832561
0.955155
0.835799
0.838659
0.729711
0.842069
0.732482
0.596865
0.450795
0.59958
0.453162
0.504386
0.368836
0.506672
0.370819
0.381795
0.381824
0.384001
0.384027
0.305998
0.306025
0.307847
0.307872
0.450869
0.596955
0.453225
0.599641
0.368908
0.504482
0.370885
0.506749
0.832649
0.951338
0.835842
0.955177
0.729838
0.838784
0.732554
0.842104
0.943024
0.825674
0.947134
0.829114
0.831578
0.723871
0.835117
0.726791
0.591233
0.445906
0.594082
0.448382
0.499652
0.364739
0.502046
0.366813
0.377239
0.37727
0.379546
0.379576
0.302177
0.302204
0.304111
0.304138
0.44599
0.591346
0.448463
0.594186
0.364814
0.499755
0.366887
0.502147
0.82578
0.94313
0.829208
0.947233
0.723983
0.831698
0.726912
0.83525
0.933961
0.818091
0.938524
0.821899
0.82374
0.7174
0.827687
0.720649
0.585162
0.440702
0.588245
0.443345
0.494534
0.360374
0.497133
0.362591
0.372414
0.372446
0.374863
0.374895
0.298129
0.298156
0.300183
0.30021
0.440792
0.58529
0.443433
0.588367
0.360449
0.494643
0.362666
0.497239
0.818237
0.934117
0.822032
0.938658
0.717525
0.823872
0.720768
0.827811
0.924248
0.809977
0.929095
0.814024
0.815328
0.710468
0.819524
0.713922
0.578686
0.435172
0.581958
0.437974
0.489069
0.355734
0.491829
0.358084
0.3673
0.367333
0.369892
0.369925
0.293837
0.293865
0.296012
0.296039
0.435266
0.57882
0.438066
0.582091
0.355811
0.489181
0.35816
0.49194
0.810134
0.924417
0.814176
0.929258
0.710597
0.815467
0.714049
0.81966
0.914105
0.801486
0.919151
0.805709
0.806543
0.703221
0.810912
0.70682
0.571894
0.429366
0.575315
0.4323
0.483341
0.350863
0.486224
0.353323
0.361925
0.36196
0.364642
0.364677
0.289329
0.289358
0.291607
0.291636
0.429462
0.572032
0.432395
0.575452
0.350943
0.483455
0.353401
0.486338
0.801645
0.914278
0.805868
0.919321
0.703353
0.806684
0.706951
0.811052
0.903642
0.792715
0.908838
0.797064
0.797474
0.695734
0.801975
0.699447
0.564858
0.423335
0.568394
0.426375
0.47741
0.345807
0.480389
0.348355
0.356333
0.356367
0.359154
0.359189
0.284641
0.284669
0.287005
0.287033
0.423431
0.564997
0.426471
0.568532
0.345888
0.477525
0.348435
0.480504
0.792875
0.903816
0.797224
0.90901
0.695867
0.797616
0.69958
0.802117
0.892912
0.783734
0.898239
0.788189
0.788191
0.688045
0.792794
0.691855
0.557623
0.417117
0.561256
0.420247
0.471313
0.3406
0.474372
0.34322
0.350557
0.350592
0.353467
0.353501
0.279804
0.279832
0.282238
0.282267
0.417212
0.557761
0.420343
0.561394
0.34068
0.471428
0.3433
0.474487
0.783893
0.893084
0.788349
0.89841
0.688178
0.788332
0.691988
0.792935
0.88194
0.774531
0.887386
0.779098
0.778718
0.680186
0.783416
0.68408
0.5502
0.410727
0.553927
0.413943
0.46507
0.33526
0.468201
0.337945
0.344616
0.34465
0.347608
0.347642
0.274838
0.274866
0.277336
0.277364
0.410821
0.550336
0.414038
0.554064
0.335339
0.465183
0.338024
0.468315
0.774688
0.882109
0.779256
0.887555
0.680316
0.778857
0.684211
0.783555
0.870721
0.765089
0.876297
0.769782
0.769049
0.672143
0.773849
0.676134
0.542568
0.404146
0.546406
0.407463
0.458669
0.329779
0.461884
0.332538
0.33849
0.338523
0.34158
0.341613
0.269736
0.269764
0.272306
0.272334
0.404239
0.542701
0.407557
0.54654
0.329856
0.458779
0.332616
0.461995
0.765243
0.870887
0.769936
0.876463
0.672271
0.769185
0.676263
0.773986
0.85917
0.755319
0.864931
0.760195
0.759116
0.663844
0.764064
0.667979
0.534633
0.397283
0.538641
0.400759
0.452041
0.324091
0.455383
0.326967
0.33209
0.332123
0.335334
0.335367
0.264437
0.264464
0.267118
0.267145
0.397373
0.534763
0.400851
0.538773
0.324166
0.452149
0.327043
0.455492
0.755469
0.859332
0.760346
0.865093
0.663969
0.759249
0.668105
0.764197
0.84705
0.744985
0.853137
0.750184
0.748728
0.655101
0.753938
0.659491
0.526165
0.389912
0.53048
0.393681
0.445006
0.318029
0.448584
0.321122
0.325195
0.325227
0.328725
0.328758
0.258777
0.258803
0.261667
0.261694
0.390001
0.526291
0.393771
0.530609
0.318102
0.445111
0.321196
0.44869
0.745131
0.847208
0.750332
0.853296
0.655222
0.748857
0.659614
0.754069
0.83388
0.73362
0.840574
0.739413
0.737484
0.645528
0.74319
0.650398
0.516702
0.381593
0.521591
0.385909
0.437198
0.311245
0.441224
0.314756
0.317376
0.317407
0.321438
0.32147
0.25242
0.252446
0.255714
0.25574
0.381679
0.516826
0.385997
0.521717
0.311316
0.4373
0.314829
0.441328
0.733763
0.834034
0.739557
0.840728
0.645646
0.73761
0.650518
0.743317
0.818736
0.720336
0.826573
0.727237
0.724597
0.634383
0.731258
0.640164
0.505405
0.371557
0.511349
0.376852
0.427928
0.303117
0.432799
0.3074
0.307916
0.307946
0.312907
0.312938
0.244786
0.244811
0.248809
0.248834
0.371641
0.505526
0.376938
0.511471
0.303187
0.428028
0.307471
0.4329
0.720475
0.818887
0.727378
0.826723
0.634498
0.72472
0.64028
0.731382
0.799809
0.703373
0.80985
0.712425
0.708516
0.620175
0.717044
0.627753
0.490731
0.358584
0.498622
0.365532
0.415904
0.29262
0.422372
0.298246
0.295815
0.295845
0.302262
0.302292
0.235028
0.235052
0.240231
0.240256
0.358667
0.49085
0.365616
0.498742
0.292688
0.416002
0.298315
0.42247
0.70351
0.799957
0.712563
0.809998
0.620288
0.708637
0.627866
0.717165
0.773374
0.678354
0.787801
0.692304
0.685981
0.59909
0.698297
0.610877
0.469566
0.340979
0.48125
0.35047
0.398409
0.278244
0.4081
0.28602
0.280163
0.280193
0.288454
0.288484
0.222303
0.222327
0.229062
0.229087
0.341061
0.469684
0.350552
0.481368
0.27831
0.398505
0.286087
0.408197
0.67849
0.773523
0.69244
0.787948
0.599202
0.686101
0.610989
0.698417
0.732567
0.628653
0.755391
0.658989
0.65059
0.555969
0.670512
0.582511
0.435741
0.317835
0.454698
0.329988
0.369674
0.258953
0.385908
0.269142
0.261739
0.261768
0.271093
0.271122
0.207106
0.207129
0.21485
0.214874
0.317914
0.435856
0.330069
0.454814
0.259017
0.369767
0.269208
0.386003
0.628788
0.732722
0.659125
0.75554
0.556078
0.650714
0.582622
0.670634
0.198878
0.173427
0.026957
0.0306151
0.184959
0.162724
0.0248179
0.0283687
0.0448288
0.00752939
0.00520431
0.00317944
0.040399
0.00669751
0.00494652
0.0031639
0.00281956
0.00281948
0.00321954
0.00321958
0.00274395
0.00274389
0.00324709
0.00324712
0.00752911
0.0448272
0.00317941
0.00520416
0.00669718
0.040397
0.00316388
0.00494637
0.173421
0.198865
0.0306137
0.0269543
0.162717
0.184945
0.0283673
0.0248152
0.624407
0.515869
0.441617
0.361094
0.600302
0.494858
0.422823
0.345349
0.284731
0.136654
0.160989
0.0479371
0.268366
0.124835
0.149888
0.0425438
0.0516298
0.0516328
0.00915971
0.00915981
0.0437698
0.0437717
0.00767996
0.00767987
0.136663
0.284744
0.0479389
0.160992
0.124841
0.268376
0.0425444
0.149889
0.515886
0.624423
0.361098
0.441619
0.494872
0.600315
0.345352
0.422824
0.864169
0.732294
0.760458
0.636872
0.829442
0.700781
0.730952
0.61054
0.474699
0.30769
0.38828
0.226121
0.447289
0.283714
0.366367
0.208082
0.222972
0.222984
0.139498
0.139505
0.200412
0.200421
0.122732
0.122738
0.307719
0.474738
0.22614
0.388306
0.283738
0.447323
0.208097
0.366388
0.732339
0.864217
0.636902
0.760489
0.70082
0.829483
0.610565
0.730979
1.00766
0.868529
0.94445
0.807958
0.963873
0.827924