/*--------------------------------*- C++ -*----------------------------------*\
  =========                 |
  \\      /  F ield         | OpenFOAM: The Open Source CFD Toolbox
   \\    /   O peration     | Website:  https://openfoam.org
    \\  /    A nd           | Version:  9
     \\/     M anipulation  |
\*---------------------------------------------------------------------------*/
FoamFile
{
    format      ascii;
    class       volScalarField;
    location    "1.2";
    object      p;
}
// * * * * * * * * * * * * * * * * * * * * * * * * * * * * * * * * * * * * * //

dimensions      [0 2 -2 0 0 0 0];

internalField   nonuniform List<scalar> 
36360
(
20.1168
20.0886
20.1041
20.0968
20.1004
20.1
20.1022
20.0946
20.1003
20.1012
20.101
20.101
20.0997
20.1
20.0989
20.0992
20.1011
20.1011
20.101
20.101
20.1001
20.1001
20.0992
20.0992
20.1012
20.1003
20.101
20.101
20.1
20.0997
20.0992
20.0989
20.0886
20.1168
20.0968
20.1041
20.1
20.1005
20.0946
20.1022
20.1405
20.0824
20.1339
20.0816
20.0867
20.1162
20.0939
20.1075
20.0998
20.1015
20.0997
20.1012
20.1006
20.1003
20.1003
20.1005
20.1017
20.1017
20.1012
20.1012
20.1009
20.1009
20.1009
20.1009
20.1015
20.0998
20.1012
20.0997
20.1003
20.1006
20.1005
20.1003
20.0824
20.1405
20.0816
20.1339
20.1162
20.0867
20.1075
20.0939
20.131
20.0938
20.1374
20.0875
20.0641
20.1413
20.0765
20.1285
20.1012
20.1017
20.1002
20.1017
20.1035
20.1
20.1016
20.1001
20.1023
20.1023
20.1021
20.1021
20.1006
20.1006
20.1007
20.1007
20.1017
20.1012
20.1017
20.1002
20.1
20.1035
20.1001
20.1016
20.0938
20.131
20.0875
20.1374
20.1413
20.0641
20.1285
20.0765
20.1175
20.1043
20.1241
20.0995
20.0413
20.1622
20.0521
20.1527
20.1056
20.1017
20.1031
20.1016
20.1094
20.1004
20.1062
20.1001
20.1019
20.1019
20.1023
20.1023
20.1005
20.1005
20.1005
20.1005
20.1017
20.1056
20.1016
20.1031
20.1004
20.1094
20.1001
20.1062
20.1043
20.1175
20.0995
20.1241
20.1622
20.0413
20.1527
20.0521
20.1062
20.1111
20.1115
20.1081
20.0239
20.1758
20.0319
20.1698
20.1112
20.1026
20.1084
20.102
20.1162
20.1016
20.1128
20.1009
20.1014
20.1014
20.1016
20.1016
20.1005
20.1005
20.1005
20.1005
20.1026
20.1112
20.102
20.1084
20.1016
20.1162
20.1009
20.1128
20.1111
20.1062
20.1081
20.1115
20.1758
20.0239
20.1698
20.0319
20.0975
20.1151
20.1015
20.1133
20.0113
20.1841
20.0171
20.1805
20.1164
20.1044
20.1139
20.1034
20.1222
20.1035
20.1193
20.1025
20.1013
20.1013
20.1013
20.1013
20.1008
20.1008
20.1006
20.1006
20.1044
20.1164
20.1034
20.1139
20.1035
20.1222
20.1025
20.1193
20.1151
20.0975
20.1133
20.1015
20.1841
20.0113
20.1805
20.0171
20.0908
20.1174
20.0939
20.1164
20.0026
20.1887
20.0066
20.1867
20.1207
20.1064
20.1187
20.1054
20.1269
20.1056
20.1247
20.1045
20.1018
20.1018
20.1015
20.1015
20.1015
20.1015
20.1011
20.1011
20.1064
20.1207
20.1054
20.1187
20.1056
20.127
20.1045
20.1247
20.1174
20.0908
20.1164
20.0939
20.1887
20.0026
20.1867
20.0066
20.086
20.1188
20.0882
20.1182
19.9967
20.1913
19.9994
20.1902
20.1243
20.1085
20.1227
20.1075
20.1306
20.1077
20.1289
20.1067
20.1028
20.1028
20.1023
20.1023
20.1025
20.1025
20.1019
20.1019
20.1085
20.1243
20.1075
20.1227
20.1077
20.1306
20.1067
20.1289
20.1188
20.086
20.1182
20.0882
20.1913
19.9967
20.1902
19.9993
20.0824
20.1197
20.084
20.1193
19.9928
20.1925
19.9945
20.192
20.1268
20.1105
20.1257
20.1095
20.1332
20.1097
20.132
20.1087
20.1039
20.1039
20.1033
20.1033
20.1036
20.1036
20.103
20.103
20.1105
20.1268
20.1095
20.1257
20.1097
20.1332
20.1087
20.132
20.1197
20.0824
20.1193
20.084
20.1925
19.9927
20.192
19.9945
20.0798
20.1202
20.081
20.12
19.9903
20.193
19.9914
20.1928
20.1287
20.1122
20.1278
20.1114
20.1351
20.1114
20.1343
20.1106
20.1052
20.1052
20.1045
20.1045
20.1049
20.1049
20.1042
20.1042
20.1122
20.1287
20.1114
20.1278
20.1114
20.1351
20.1106
20.1343
20.1202
20.0798
20.12
20.081
20.193
19.9901
20.1928
19.9913
20.078
20.1206
20.0788
20.1204
19.9888
20.1931
19.9894
20.1931
20.1301
20.1138
20.1294
20.113
20.1365
20.113
20.1359
20.1122
20.1065
20.1065
20.1059
20.1059
20.1062
20.1062
20.1055
20.1055
20.1138
20.1301
20.113
20.1294
20.113
20.1365
20.1122
20.1359
20.1206
20.078
20.1204
20.0788
20.1931
19.9887
20.1931
19.9893
20.0769
20.1209
20.0774
20.1208
19.988
20.193
19.9883
20.1931
20.1312
20.1152
20.1307
20.1145
20.1375
20.1143
20.1371
20.1137
20.1078
20.1078
20.1072
20.1072
20.1074
20.1074
20.1068
20.1068
20.1152
20.1312
20.1145
20.1307
20.1143
20.1376
20.1137
20.1371
20.1208
20.0769
20.1207
20.0774
20.193
19.9878
20.1931
19.9882
20.0761
20.1212
20.0765
20.121
19.9873
20.1929
19.9877
20.1929
20.1321
20.1164
20.1317
20.1158
20.1384
20.1155
20.138
20.1149
20.1091
20.1091
20.1085
20.1085
20.1086
20.1086
20.108
20.108
20.1164
20.1321
20.1158
20.1317
20.1155
20.1384
20.1149
20.138
20.1211
20.0762
20.121
20.0765
20.1929
19.9874
20.193
19.9876
20.0758
20.1214
20.0759
20.1213
19.9873
20.1928
19.9873
20.1928
20.1329
20.1175
20.1325
20.117
20.1391
20.1166
20.1387
20.1161
20.1103
20.1103
20.1097
20.1097
20.1098
20.1098
20.1092
20.1092
20.1176
20.1329
20.117
20.1325
20.1166
20.1391
20.1161
20.1388
20.1214
20.0757
20.1213
20.0759
20.1928
19.9871
20.1929
19.9872
20.0757
20.1217
20.0757
20.1215
19.9876
20.1927
19.9873
20.1928
20.1336
20.1186
20.1333
20.1181
20.1397
20.1176
20.1394
20.1171
20.1115
20.1115
20.1109
20.1109
20.1109
20.1109
20.1104
20.1104
20.1186
20.1336
20.1181
20.1333
20.1176
20.1397
20.1171
20.1394
20.1218
20.0756
20.1216
20.0757
20.1927
19.9875
20.1927
19.9873
20.0757
20.1221
20.0757
20.1219
19.988
20.1927
19.9878
20.1927
20.1343
20.1195
20.1339
20.1191
20.1402
20.1185
20.1399
20.1181
20.1126
20.1126
20.1121
20.1121
20.112
20.112
20.1115
20.1115
20.1196
20.1343
20.1191
20.1339
20.1185
20.1402
20.1181
20.14
20.1221
20.0757
20.1219
20.0756
20.1927
19.9879
20.1927
19.9876
20.076
20.1225
20.0759
20.1223
19.9886
20.1927
19.9883
20.1926
20.1349
20.1205
20.1346
20.12
20.1407
20.1194
20.1405
20.119
20.1137
20.1137
20.1132
20.1132
20.113
20.113
20.1125
20.1125
20.1205
20.1349
20.12
20.1346
20.1194
20.1407
20.119
20.1405
20.1225
20.0761
20.1223
20.0759
20.1927
19.9885
20.1927
19.9882
20.0764
20.1231
20.0761
20.1229
19.9894
20.1927
19.9889
20.1927
20.1355
20.1214
20.1352
20.1209
20.1412
20.1202
20.141
20.1198
20.1148
20.1148
20.1142
20.1142
20.114
20.114
20.1135
20.1135
20.1214
20.1355
20.1209
20.1352
20.1203
20.1412
20.1198
20.141
20.1231
20.0763
20.1228
20.0762
20.1928
19.9892
20.1928
19.9887
20.0769
20.1236
20.0767
20.1233
19.9903
20.1929
19.9899
20.1928
20.1361
20.1223
20.1358
20.1218
20.1417
20.1211
20.1414
20.1207
20.1158
20.1158
20.1153
20.1153
20.1149
20.1149
20.1144
20.1144
20.1223
20.1362
20.1218
20.1358
20.1211
20.1417
20.1207
20.1415
20.1237
20.0769
20.1234
20.0766
20.1929
19.9901
20.1928
19.9896
20.0775
20.1243
20.0772
20.124
19.9912
20.1931
19.9907
20.193
20.1368
20.1231
20.1364
20.1227
20.1422
20.1218
20.1419
20.1214
20.1168
20.1168
20.1163
20.1163
20.1158
20.1158
20.1154
20.1154
20.1231
20.1368
20.1227
20.1365
20.1219
20.1422
20.1215
20.142
20.1244
20.0775
20.124
20.0771
20.1931
19.9911
20.193
19.9906
20.0781
20.1251
20.0778
20.1247
19.9921
20.1933
19.9916
20.1932
20.1375
20.124
20.1371
20.1236
20.1427
20.1226
20.1425
20.1222
20.1178
20.1178
20.1173
20.1173
20.1167
20.1167
20.1163
20.1163
20.124
20.1375
20.1236
20.1372
20.1226
20.1427
20.1222
20.1425
20.1251
20.0782
20.1247
20.0778
20.1933
19.9922
20.1932
19.9917
20.079
20.1259
20.0785
20.1255
19.9934
20.1935
19.9927
20.1934
20.1382
20.1249
20.1379
20.1245
20.1433
20.1234
20.143
20.123
20.1188
20.1188
20.1183
20.1183
20.1176
20.1177
20.1172
20.1172
20.1249
20.1382
20.1245
20.1378
20.1234
20.1433
20.123
20.143
20.1259
20.079
20.1255
20.0786
20.1936
19.9934
20.1934
19.9928
20.0798
20.1267
20.0794
20.1263
19.9946
20.1938
19.994
20.1937
20.1389
20.1258
20.1386
20.1254
20.1438
20.1242
20.1435
20.1238
20.1198
20.1198
20.1193
20.1193
20.1186
20.1186
20.1181
20.1181
20.1258
20.1389
20.1254
20.1386
20.1242
20.1438
20.1238
20.1435
20.1267
20.0798
20.1263
20.0794
20.1939
19.9946
20.1937
19.994
20.0808
20.1276
20.0803
20.1272
19.996
20.1942
19.9953
20.194
20.1397
20.1267
20.1393
20.1263
20.1444
20.125
20.1441
20.1246
20.1208
20.1208
20.1203
20.1203
20.1195
20.1195
20.119
20.119
20.1267
20.1397
20.1263
20.1393
20.125
20.1444
20.1246
20.1441
20.1276
20.0809
20.1272
20.0803
20.1942
19.996
20.194
19.9953
20.0819
20.1286
20.0814
20.1281
19.9975
20.1945
19.9967
20.1943
20.1405
20.1276
20.1401
20.1272
20.145
20.1258
20.1447
20.1254
20.1219
20.1219
20.1213
20.1213
20.1204
20.1204
20.1199
20.1199
20.1277
20.1405
20.1272
20.1401
20.1259
20.145
20.1254
20.1447
20.1286
20.082
20.1281
20.0814
20.1945
19.9975
20.1944
19.9967
20.0831
20.1296
20.0825
20.1291
19.9991
20.1949
19.9983
20.1947
20.1413
20.1286
20.1409
20.1281
20.1456
20.1267
20.1453
20.1263
20.1229
20.1229
20.1224
20.1224
20.1214
20.1214
20.1209
20.1209
20.1286
20.1413
20.1281
20.1409
20.1267
20.1456
20.1263
20.1453
20.1296
20.0831
20.1291
20.0825
20.1949
19.9991
20.1947
19.9983
20.0843
20.1306
20.0837
20.1301
20.0008
20.1953
19.9999
20.1951
20.1421
20.1296
20.1417
20.1291
20.1462
20.1275
20.1459
20.1271
20.124
20.124
20.1235
20.1235
20.1224
20.1224
20.1219
20.1219
20.1296
20.1422
20.1291
20.1417
20.1275
20.1462
20.1271
20.1459
20.1306
20.0843
20.1301
20.0837
20.1953
20.0008
20.1951
19.9999
20.0857
20.1317
20.085
20.1312
20.0026
20.1957
20.0017
20.1955
20.143
20.1306
20.1426
20.1301
20.1468
20.1284
20.1465
20.128
20.1251
20.1251
20.1246
20.1246
20.1234
20.1234
20.1229
20.1229
20.1306
20.143
20.1301
20.1426
20.1284
20.1468
20.128
20.1465
20.1317
20.0857
20.1312
20.085
20.1957
20.0026
20.1955
20.0017
20.0871
20.1328
20.0863
20.1323
20.0045
20.1961
20.0035
20.1959
20.1438
20.1316
20.1434
20.1311
20.1474
20.1293
20.1471
20.1288
20.1263
20.1263
20.1257
20.1257
20.1244
20.1244
20.1239
20.1239
20.1316
20.1438
20.1311
20.1434
20.1293
20.1474
20.1289
20.1471
20.1328
20.0871
20.1323
20.0864
20.1961
20.0045
20.1959
20.0035
20.0885
20.134
20.0878
20.1334
20.0065
20.1965
20.0055
20.1963
20.1446
20.1326
20.1442
20.1321
20.148
20.1302
20.1477
20.1297
20.1275
20.1275
20.1269
20.1269
20.1255
20.1255
20.1249
20.1249
20.1326
20.1446
20.1321
20.1442
20.1302
20.148
20.1297
20.1477
20.134
20.0885
20.1334
20.0878
20.1965
20.0065
20.1963
20.0055
20.0901
20.1352
20.0893
20.1346
20.0087
20.1969
20.0076
20.1967
20.1454
20.1336
20.145
20.1331
20.1485
20.1311
20.1483
20.1306
20.1287
20.1287
20.1281
20.1281
20.1266
20.1266
20.126
20.126
20.1336
20.1454
20.1331
20.145
20.1311
20.1486
20.1306
20.1483
20.1352
20.0901
20.1346
20.0893
20.1969
20.0086
20.1967
20.0076
20.0917
20.1363
20.0909
20.1357
20.011
20.1972
20.0098
20.197
20.1461
20.1346
20.1458
20.1341
20.1491
20.132
20.1488
20.1316
20.1299
20.1299
20.1293
20.1293
20.1277
20.1277
20.1271
20.1271
20.1346
20.1462
20.1341
20.1458
20.132
20.1491
20.1316
20.1488
20.1363
20.0917
20.1357
20.0909
20.1972
20.0109
20.1971
20.0098
20.0935
20.1373
20.0926
20.1368
20.0134
20.1974
20.0122
20.1973
20.1469
20.1356
20.1465
20.1351
20.1496
20.133
20.1493
20.1325
20.1311
20.1312
20.1305
20.1305
20.1289
20.1289
20.1283
20.1283
20.1356
20.1469
20.1351
20.1465
20.133
20.1496
20.1325
20.1493
20.1373
20.0935
20.1368
20.0926
20.1975
20.0134
20.1974
20.0122
20.0955
20.1383
20.0945
20.1378
20.0161
20.1975
20.0147
20.1975
20.1475
20.1367
20.1472
20.1361
20.15
20.1339
20.1498
20.1335
20.1324
20.1324
20.1318
20.1318
20.1301
20.1301
20.1295
20.1295
20.1367
20.1476
20.1362
20.1472
20.134
20.15
20.1335
20.1498
20.1383
20.0955
20.1378
20.0945
20.1976
20.0161
20.1975
20.0147
20.0975
20.1392
20.0965
20.1387
20.019
20.1975
20.0175
20.1975
20.1482
20.1377
20.1479
20.1372
20.1504
20.135
20.1502
20.1345
20.1337
20.1337
20.1331
20.1331
20.1314
20.1313
20.1307
20.1307
20.1377
20.1482
20.1372
20.1479
20.135
20.1505
20.1345
20.1502
20.1392
20.0975
20.1387
20.0965
20.1975
20.019
20.1976
20.0175
20.0996
20.1401
20.0985
20.1396
20.0223
20.1972
20.0206
20.1974
20.1488
20.1388
20.1485
20.1383
20.1508
20.136
20.1506
20.1355
20.135
20.135
20.1344
20.1344
20.1326
20.1326
20.132
20.132
20.1388
20.1488
20.1383
20.1485
20.136
20.1508
20.1355
20.1506
20.1401
20.0996
20.1396
20.0985
20.1972
20.0223
20.1974
20.0206
20.1013
20.1412
20.1005
20.1406
20.026
20.1966
20.0241
20.197
20.1493
20.1398
20.1491
20.1393
20.1511
20.137
20.151
20.1366
20.1363
20.1363
20.1357
20.1357
20.134
20.1339
20.1332
20.1333
20.1398
20.1493
20.1393
20.1491
20.1371
20.1511
20.1365
20.151
20.1412
20.1013
20.1406
20.1005
20.1967
20.026
20.197
20.0241
20.102
20.1433
20.1019
20.142
20.0303
20.1954
20.028
20.1961
20.1498
20.1408
20.1495
20.1403
20.1513
20.1381
20.1512
20.1376
20.1376
20.1376
20.1369
20.1369
20.1352
20.1352
20.1345
20.1345
20.1408
20.1497
20.1403
20.1495
20.1381
20.1513
20.1376
20.1512
20.1434
20.1021
20.142
20.1019
20.1954
20.0303
20.1962
20.028
20.1022
20.1454
20.1015
20.1453
20.0357
20.193
20.0328
20.1944
20.1502
20.1419
20.15
20.1414
20.1514
20.1392
20.1513
20.1386
20.1388
20.1388
20.1382
20.1382
20.1364
20.1364
20.1358
20.1357
20.1419
20.1502
20.1414
20.15
20.1392
20.1514
20.1387
20.1514
20.1454
20.1022
20.1453
20.1015
20.193
20.0357
20.1945
20.0328
20.1338
20.0741
20.1081
20.0919
20.127
20.0769
20.1057
20.0921
20.0989
20.101
20.1008
20.1007
20.099
20.1006
20.0999
20.0998
20.1011
20.1011
20.1007
20.1007
20.1005
20.1005
20.0998
20.0998
20.101
20.0989
20.1007
20.1008
20.1006
20.099
20.0998
20.0999
20.0741
20.1338
20.0919
20.1081
20.0769
20.127
20.0921
20.1057
20.1731
20.0623
20.1604
20.0626
20.1673
20.0622
20.1538
20.0645
20.0904
20.1007
20.0947
20.101
20.0933
20.1011
20.0967
20.1012
20.1018
20.1018
20.1014
20.1014
20.1017
20.1017
20.1013
20.1013
20.1007
20.0904
20.101
20.0947
20.1011
20.0933
20.1012
20.0967
20.0623
20.1731
20.0626
20.1604
20.0622
20.1673
20.0645
20.1538
20.1726
20.073
20.1747
20.0673
20.1668
20.0705
20.1692
20.0657
20.0877
20.099
20.0881
20.0998
20.091
20.1002
20.0914
20.1006
20.1022
20.1022
20.1021
20.1021
20.102
20.102
20.1019
20.1019
20.099
20.0877
20.0998
20.0881
20.1002
20.091
20.1006
20.0914
20.073
20.1726
20.0673
20.1747
20.0705
20.1668
20.0657
20.1692
20.1662
20.0811
20.1695
20.0776
20.1593
20.0781
20.1632
20.0747
20.09
20.0983
20.0886
20.0984
20.0934
20.1001
20.0919
20.1
20.1018
20.1018
20.1021
20.1021
20.1017
20.1017
20.1019
20.1019
20.0983
20.09
20.0984
20.0886
20.1001
20.0934
20.1
20.0919
20.0811
20.1662
20.0776
20.1695
20.0781
20.1593
20.0747
20.1632
20.1602
20.0852
20.1631
20.0835
20.152
20.0823
20.1555
20.0805
20.0933
20.0992
20.0916
20.0986
20.0977
20.101
20.0954
20.1004
20.1013
20.1013
20.1015
20.1015
20.1014
20.1014
20.1015
20.1015
20.0992
20.0933
20.0986
20.0916
20.101
20.0977
20.1004
20.0954
20.0852
20.1602
20.0835
20.1631
20.0823
20.152
20.0805
20.1555
20.155
20.0872
20.1575
20.0863
20.1459
20.0847
20.1488
20.0837
20.0968
20.1009
20.0951
20.1
20.102
20.1027
20.0999
20.1018
20.1014
20.1014
20.1013
20.1013
20.1015
20.1015
20.1014
20.1014
20.1009
20.0968
20.1
20.0951
20.1027
20.102
20.1018
20.0999
20.0872
20.1551
20.0863
20.1575
20.0847
20.1459
20.0837
20.1488
20.1508
20.0883
20.1528
20.0878
20.1409
20.086
20.1433
20.0854
20.0999
20.1029
20.0984
20.1019
20.1057
20.1047
20.1039
20.1037
20.102
20.102
20.1016
20.1016
20.1022
20.1022
20.1018
20.1018
20.1029
20.0999
20.1019
20.0984
20.1047
20.1057
20.1037
20.1039
20.0883
20.1508
20.0878
20.1528
20.086
20.1409
20.0854
20.1433
20.1472
20.0889
20.1489
20.0886
20.1369
20.0869
20.1388
20.0865
20.1026
20.1049
20.1013
20.1039
20.1085
20.1068
20.1071
20.1057
20.1031
20.1031
20.1025
20.1025
20.1032
20.1032
20.1026
20.1026
20.1049
20.1026
20.1039
20.1013
20.1068
20.1085
20.1057
20.1071
20.0889
20.1472
20.0886
20.1489
20.0869
20.1369
20.0865
20.1388
20.1442
20.0894
20.1456
20.0892
20.1337
20.0874
20.1352
20.0872
20.1048
20.1067
20.1037
20.1058
20.1109
20.1087
20.1097
20.1077
20.1045
20.1045
20.1038
20.1038
20.1044
20.1044
20.1038
20.1038
20.1067
20.1048
20.1058
20.1037
20.1087
20.1109
20.1077
20.1097
20.0894
20.1443
20.0892
20.1456
20.0874
20.1338
20.0872
20.1352
20.142
20.0897
20.1431
20.0896
20.1314
20.0879
20.1325
20.0877
20.1066
20.1085
20.1057
20.1076
20.1127
20.1104
20.1119
20.1096
20.1059
20.1059
20.1052
20.1052
20.1058
20.1058
20.1051
20.1051
20.1085
20.1065
20.1076
20.1057
20.1104
20.1127
20.1096
20.1118
20.0897
20.142
20.0895
20.1431
20.0879
20.1314
20.0876
20.1325
20.1404
20.0899
20.1411
20.0899
20.1296
20.0883
20.1304
20.0881
20.1081
20.1101
20.1073
20.1093
20.1141
20.112
20.1134
20.1113
20.1073
20.1073
20.1066
20.1066
20.1072
20.1072
20.1065
20.1065
20.1101
20.1081
20.1093
20.1073
20.112
20.1141
20.1113
20.1134
20.09
20.1403
20.0898
20.1411
20.0883
20.1295
20.0881
20.1304
20.1391
20.0903
20.1397
20.0901
20.1284
20.0887
20.1289
20.0885
20.1094
20.1115
20.1088
20.1108
20.1152
20.1135
20.1146
20.1128
20.1087
20.1087
20.108
20.108
20.1085
20.1085
20.1079
20.1079
20.1115
20.1094
20.1108
20.1088
20.1135
20.1152
20.1128
20.1146
20.0903
20.1391
20.0901
20.1396
20.0886
20.1283
20.0885
20.1289
20.1383
20.0906
20.1386
20.0905
20.1276
20.0889
20.128
20.0888
20.1103
20.1128
20.1099
20.1122
20.1163
20.1147
20.1158
20.1141
20.1101
20.1101
20.1094
20.1094
20.1099
20.1099
20.1092
20.1092
20.1128
20.1103
20.1122
20.1099
20.1148
20.1163
20.1141
20.1158
20.0906
20.1383
20.0904
20.1387
20.0889
20.1276
20.0888
20.1279
20.1379
20.0909
20.138
20.0908
20.1271
20.0894
20.1273
20.0892
20.111
20.1141
20.1107
20.1135
20.1173
20.1159
20.1168
20.1154
20.1114
20.1114
20.1107
20.1107
20.1111
20.1111
20.1105
20.1105
20.114
20.111
20.1135
20.1107
20.1159
20.1173
20.1154
20.1168
20.0909
20.1379
20.0908
20.138
20.0894
20.1271
20.0891
20.1274
20.1377
20.0913
20.1378
20.0911
20.1269
20.0897
20.127
20.0895
20.1118
20.1152
20.1114
20.1146
20.1182
20.1171
20.1178
20.1165
20.1126
20.1126
20.112
20.112
20.1123
20.1123
20.1117
20.1117
20.1152
20.1118
20.1146
20.1114
20.117
20.1182
20.1165
20.1178
20.0913
20.1377
20.091
20.1378
20.0897
20.1269
20.0896
20.127
20.1377
20.0918
20.1376
20.0916
20.127
20.0901
20.1269
20.0899
20.1125
20.1163
20.1122
20.1157
20.119
20.1181
20.1186
20.1176
20.1138
20.1138
20.1132
20.1132
20.1135
20.1135
20.1129
20.1129
20.1163
20.1125
20.1158
20.1122
20.1181
20.1191
20.1176
20.1186
20.0918
20.1376
20.0915
20.1377
20.0902
20.1269
20.0899
20.127
20.1377
20.0924
20.1377
20.0921
20.1271
20.0907
20.127
20.0904
20.1133
20.1173
20.1129
20.1168
20.1199
20.1191
20.1194
20.1186
20.1149
20.1149
20.1143
20.1143
20.1146
20.1146
20.114
20.114
20.1173
20.1133
20.1168
20.1129
20.1191
20.1199
20.1186
20.1195
20.0924
20.1378
20.0921
20.1377
20.0907
20.1271
20.0905
20.127
20.1381
20.0931
20.1379
20.0928
20.1273
20.0914
20.1271
20.0911
20.1141
20.1183
20.1137
20.1178
20.1207
20.1201
20.1203
20.1196
20.116
20.116
20.1155
20.1155
20.1157
20.1157
20.1151
20.1151
20.1183
20.1141
20.1178
20.1137
20.1201
20.1207
20.1196
20.1203
20.0929
20.1382
20.0927
20.138
20.0913
20.1274
20.091
20.1272
20.1385
20.0938
20.1383
20.0934
20.1278
20.092
20.1275
20.0917
20.1149
20.1193
20.1145
20.1188
20.1215
20.121
20.1211
20.1205
20.1171
20.1171
20.1165
20.1165
20.1167
20.1167
20.1162
20.1162
20.1193
20.1149
20.1188
20.1145
20.121
20.1215
20.1205
20.1211
20.0937
20.1385
20.0933
20.1384
20.092
20.1279
20.0916
20.1276
20.139
20.0947
20.1387
20.0942
20.1283
20.0928
20.128
20.0924
20.1158
20.1203
20.1153
20.1198
20.1224
20.1219
20.122
20.1215
20.1181
20.1181
20.1176
20.1176
20.1177
20.1178
20.1172
20.1172
20.1203
20.1158
20.1198
20.1153
20.122
20.1224
20.1215
20.122
20.0947
20.139
20.0942
20.1388
20.0929
20.1282
20.0924
20.128
20.1397
20.0954
20.1393
20.095
20.1289
20.0936
20.1286
20.0932
20.1166
20.1213
20.1162
20.1208
20.1233
20.1229
20.1228
20.1224
20.1192
20.1192
20.1187
20.1187
20.1188
20.1188
20.1183
20.1183
20.1213
20.1166
20.1208
20.1162
20.1229
20.1233
20.1224
20.1228
20.0954
20.1397
20.095
20.1394
20.0936
20.1289
20.0932
20.1286
20.1403
20.0965
20.14
20.0959
20.1295
20.0946
20.1292
20.0941
20.1176
20.1224
20.1171
20.1218
20.1242
20.1239
20.1238
20.1234
20.1203
20.1203
20.1198
20.1198
20.1198
20.1198
20.1193
20.1193
20.1224
20.1176
20.1218
20.1171
20.1239
20.1242
20.1234
20.1238
20.0965
20.1403
20.096
20.14
20.0945
20.1296
20.0941
20.1292
20.1411
20.0975
20.1407
20.097
20.1303
20.0955
20.1299
20.095
20.1186
20.1234
20.1181
20.1229
20.1252
20.1249
20.1247
20.1244
20.1214
20.1214
20.1208
20.1208
20.1209
20.1209
20.1204
20.1204
20.1234
20.1186
20.1229
20.1181
20.1249
20.1252
20.1244
20.1247
20.0975
20.1411
20.097
20.1406
20.0955
20.1303
20.095
20.1299
20.142
20.0987
20.1416
20.0981
20.1312
20.0965
20.1307
20.096
20.1197
20.1244
20.1191
20.1239
20.1262
20.1259
20.1257
20.1254
20.1225
20.1225
20.1219
20.1219
20.122
20.122
20.1214
20.1214
20.1244
20.1197
20.1239
20.1191
20.1259
20.1262
20.1254
20.1257
20.0987
20.142
20.0981
20.1415
20.0965
20.1312
20.096
20.1307
20.1429
20.1
20.1424
20.0994
20.1321
20.0976
20.1316
20.097
20.1207
20.1255
20.1202
20.125
20.1272
20.1269
20.1267
20.1264
20.1236
20.1236
20.123
20.1231
20.1231
20.1231
20.1225
20.1225
20.1255
20.1207
20.125
20.1202
20.1269
20.1272
20.1264
20.1267
20.1
20.1429
20.0994
20.1424
20.0976
20.1321
20.097
20.1316
20.1438
20.1013
20.1433
20.1007
20.1331
20.0986
20.1326
20.0981
20.1218
20.1266
20.1213
20.1261
20.1282
20.1279
20.1277
20.1274
20.1248
20.1248
20.1242
20.1242
20.1242
20.1242
20.1236
20.1236
20.1266
20.1219
20.1261
20.1213
20.1279
20.1282
20.1274
20.1277
20.1013
20.1439
20.1007
20.1434
20.0986
20.1331
20.0981
20.1326
20.1449
20.1028
20.1444
20.102
20.1342
20.0997
20.1337
20.0992
20.123
20.1277
20.1224
20.1272
20.1293
20.129
20.1288
20.1284
20.1259
20.1259
20.1253
20.1253
20.1253
20.1253
20.1248
20.1248
20.1277
20.123
20.1272
20.1224
20.129
20.1293
20.1285
20.1288
20.1028
20.1449
20.102
20.1444
20.0997
20.1342
20.0992
20.1337
20.1459
20.1044
20.1454
20.1035
20.1354
20.1008
20.1348
20.1003
20.1241
20.1288
20.1236
20.1283
20.1304
20.1301
20.1298
20.1295
20.1271
20.1271
20.1265
20.1265
20.1265
20.1265
20.1259
20.1259
20.1289
20.1241
20.1283
20.1236
20.1301
20.1304
20.1295
20.1298
20.1044
20.146
20.1035
20.1454
20.1008
20.1354
20.1003
20.1348
20.1471
20.1059
20.1465
20.1052
20.1366
20.1019
20.136
20.1013
20.1253
20.13
20.1247
20.1294
20.1315
20.1312
20.1309
20.1306
20.1284
20.1284
20.1277
20.1277
20.1277
20.1277
20.1271
20.1271
20.13
20.1253
20.1294
20.1247
20.1312
20.1315
20.1306
20.1309
20.1059
20.1471
20.1052
20.1465
20.1019
20.1366
20.1013
20.136
20.1484
20.1069
20.1477
20.1064
20.1379
20.1035
20.1372
20.1027
20.1265
20.1312
20.1259
20.1306
20.1325
20.1322
20.132
20.1317
20.1296
20.1296
20.129
20.129
20.1289
20.1289
20.1283
20.1283
20.1312
20.1265
20.1306
20.1259
20.1323
20.1325
20.1317
20.132
20.1069
20.1484
20.1064
20.1477
20.1035
20.1379
20.1027
20.1372
20.1497
20.108
20.149
20.1074
20.1392
20.105
20.1385
20.1042
20.1277
20.1324
20.1271
20.1318
20.1336
20.1333
20.133
20.1328
20.1309
20.1309
20.1302
20.1302
20.1302
20.1302
20.1296
20.1296
20.1324
20.1277
20.1318
20.1271
20.1334
20.1336
20.1328
20.133
20.108
20.1497
20.1074
20.149
20.105
20.1392
20.1042
20.1385
20.1511
20.109
20.1504
20.1085
20.1407
20.1064
20.1399
20.1057
20.1288
20.1335
20.1282
20.1329
20.1346
20.1345
20.1341
20.1339
20.1322
20.1322
20.1315
20.1315
20.1314
20.1315
20.1308
20.1308
20.1335
20.1288
20.1329
20.1282
20.1345
20.1346
20.1339
20.1341
20.109
20.1511
20.1085
20.1504
20.1064
20.1407
20.1057
20.1399
20.1526
20.1101
20.1518
20.1096
20.1422
20.1077
20.1414
20.1071
20.1299
20.1347
20.1293
20.1341
20.1355
20.1356
20.135
20.135
20.1335
20.1335
20.1328
20.1328
20.1327
20.1327
20.1321
20.1321
20.1347
20.1299
20.1341
20.1294
20.1356
20.1355
20.135
20.1351
20.1101
20.1526
20.1096
20.1518
20.1077
20.1422
20.1071
20.1414
20.154
20.1112
20.1533
20.1106
20.1438
20.109
20.143
20.1084
20.131
20.1359
20.1304
20.1353
20.1365
20.1367
20.136
20.1361
20.1348
20.1348
20.1341
20.1341
20.134
20.134
20.1334
20.1334
20.1359
20.131
20.1353
20.1304
20.1367
20.1365
20.1361
20.136
20.1112
20.154
20.1106
20.1533
20.109
20.1438
20.1084
20.143
20.1554
20.1123
20.1547
20.1117
20.1454
20.1102
20.1446
20.1096
20.1321
20.1371
20.1315
20.1365
20.1374
20.1378
20.1369
20.1372
20.1361
20.1361
20.1354
20.1355
20.1353
20.1353
20.1347
20.1347
20.1371
20.1321
20.1365
20.1315
20.1378
20.1374
20.1372
20.1369
20.1123
20.1554
20.1117
20.1547
20.1102
20.1454
20.1096
20.1447
20.1563
20.1136
20.1559
20.1129
20.1467
20.1116
20.1461
20.1108
20.1332
20.1382
20.1326
20.1376
20.1383
20.1389
20.1379
20.1384
20.1374
20.1374
20.1368
20.1368
20.1366
20.1366
20.136
20.136
20.1382
20.1332
20.1376
20.1326
20.1389
20.1383
20.1384
20.1379
20.1136
20.1563
20.1129
20.1559
20.1116
20.1468
20.1108
20.1461
20.1563
20.1157
20.1565
20.1145
20.1474
20.1134
20.1472
20.1124
20.1344
20.1394
20.1338
20.1388
20.1392
20.14
20.1388
20.1394
20.1387
20.1387
20.1381
20.1381
20.1379
20.1379
20.1373
20.1373
20.1394
20.1344
20.1388
20.1338
20.14
20.1393
20.1395
20.1388
20.1157
20.1563
20.1145
20.1565
20.1134
20.1474
20.1124
20.1472
20.1538
20.1202
20.1556
20.1174
20.1461
20.117
20.1472
20.1148
20.1356
20.1405
20.135
20.1399
20.1401
20.1411
20.1397
20.1405
20.1401
20.1401
20.1394
20.1394
20.1392
20.1392
20.1386
20.1386
20.1405
20.1356
20.1399
20.135
20.1411
20.1401
20.1405
20.1397
20.1202
20.1538
20.1174
20.1556
20.117
20.1461
20.1148
20.1472
20.1552
20.1198
20.1516
20.1234
20.1477
20.1168
20.1446
20.1197
20.1364
20.1419
20.1363
20.1412
20.1407
20.1423
20.1406
20.1416
20.1414
20.1414
20.1407
20.1407
20.1405
20.1405
20.1398
20.1398
20.1419
20.1364
20.1412
20.1363
20.1423
20.1407
20.1416
20.1406
20.1198
20.1552
20.1234
20.1516
20.1168
20.1477
20.1197
20.1446
20.1401
20.07
20.1111
20.0888
20.1379
20.071
20.1098
20.0895
20.0979
20.1008
20.1006
20.1005
20.0981
20.1006
20.1003
20.1001
20.1009
20.1009
20.1004
20.1004
20.1007
20.1007
20.1001
20.1001
20.1008
20.0979
20.1005
20.1006
20.1006
20.0981
20.1001
20.1003
20.07
20.1401
20.0888
20.1111
20.071
20.1379
20.0895
20.1098
20.1764
20.0645
20.1658
20.0612
20.1757
20.0629
20.1641
20.0611
20.0867
20.0994
20.0923
20.1005
20.0879
20.1001
20.0932
20.1008
20.1017
20.1017
20.1013
20.1013
20.1019
20.1019
20.1013
20.1013
20.0994
20.0866
20.1005
20.0922
20.1001
20.0879
20.1008
20.0932
20.0645
20.1764
20.0612
20.1658
20.0629
20.1757
20.0611
20.1641
20.1732
20.0806
20.1764
20.0726
20.1739
20.0767
20.1765
20.0697
20.0829
20.096
20.0836
20.0976
20.0843
20.0973
20.0851
20.0986
20.1018
20.1018
20.102
20.102
20.1021
20.1021
20.1021
20.1021
20.096
20.0829
20.0976
20.0836
20.0973
20.0843
20.0986
20.0851
20.0806
20.1733
20.0726
20.1764
20.0767
20.1739
20.0697
20.1765
20.1659
20.0912
20.1695
20.0868
20.1672
20.0861
20.1705
20.0822
20.085
20.0947
20.0836
20.0951
20.0863
20.0962
20.0849
20.0965
20.1006
20.1006
20.1013
20.1013
20.1013
20.1013
20.1018
20.1018
20.0947
20.085
20.0951
20.0836
20.0962
20.0863
20.0965
20.0849
20.0912
20.1659
20.0868
20.1695
20.0861
20.1672
20.0822
20.1705
20.1598
20.0964
20.1627
20.0943
20.1613
20.0908
20.1641
20.0889
20.0884
20.0952
20.0867
20.0948
20.0898
20.0969
20.088
20.0964
20.0998
20.0998
20.1001
20.1001
20.1007
20.1006
20.1009
20.1009
20.0952
20.0884
20.0948
20.0867
20.0969
20.0898
20.0964
20.088
20.0964
20.1598
20.0943
20.1627
20.0908
20.1613
20.0889
20.1641
20.155
20.0988
20.1573
20.0978
20.1564
20.093
20.1587
20.092
20.0917
20.0966
20.0901
20.0958
20.0931
20.0984
20.0915
20.0975
20.0998
20.0998
20.0997
20.0997
20.1007
20.1007
20.1006
20.1006
20.0966
20.0917
20.0958
20.0901
20.0984
20.0931
20.0975
20.0915
20.0988
20.155
20.0978
20.1573
20.093
20.1564
20.092
20.1587
20.1511
20.0999
20.1529
20.0994
20.1523
20.0941
20.1543
20.0936
20.0945
20.0984
20.0932
20.0975
20.096
20.1003
20.0946
20.0993
20.1005
20.1005
20.1
20.1
20.1014
20.1014
20.101
20.101
20.0984
20.0945
20.0975
20.0932
20.1003
20.096
20.0993
20.0946
20.0999
20.1511
20.0994
20.153
20.0941
20.1524
20.0936
20.1543
20.1478
20.1005
20.1493
20.1003
20.149
20.0947
20.1506
20.0944
20.0968
20.1002
20.0957
20.0993
20.0984
20.1022
20.0972
20.1012
20.1016
20.1016
20.101
20.101
20.1025
20.1025
20.1019
20.1019
20.1002
20.0968
20.0993
20.0957
20.1022
20.0984
20.1012
20.0972
20.1005
20.1478
20.1003
20.1493
20.0947
20.149
20.0944
20.1506
20.1451
20.1009
20.1463
20.1007
20.1462
20.0951
20.1475
20.0949
20.0987
20.1021
20.0978
20.1012
20.1004
20.1041
20.0994
20.1032
20.103
20.103
20.1023
20.1023
20.1039
20.1039
20.1032
20.1032
20.1021
20.0987
20.1012
20.0978
20.1041
20.1004
20.1032
20.0994
20.1009
20.1451
20.1007
20.1463
20.0951
20.1462
20.0949
20.1475
20.143
20.1011
20.144
20.101
20.1441
20.0953
20.145
20.0952
20.1003
20.1038
20.0996
20.103
20.102
20.1059
20.1012
20.105
20.1046
20.1046
20.1038
20.1038
20.1053
20.1053
20.1046
20.1046
20.1038
20.1003
20.103
20.0996
20.1059
20.102
20.105
20.1012
20.1011
20.143
20.101
20.144
20.0953
20.144
20.0952
20.145
20.1415
20.1012
20.1422
20.1012
20.1425
20.0955
20.1432
20.0954
20.1017
20.1054
20.101
20.1046
20.1033
20.1075
20.1027
20.1067
20.1061
20.1061
20.1053
20.1053
20.1068
20.1068
20.1061
20.1061
20.1054
20.1017
20.1046
20.101
20.1075
20.1033
20.1067
20.1027
20.1012
20.1415
20.1012
20.1422
20.0955
20.1425
20.0954
20.1432
20.1404
20.1014
20.1409
20.1013
20.1413
20.0957
20.1419
20.0956
20.1029
20.1068
20.1023
20.1061
20.1043
20.1089
20.1038
20.1082
20.1076
20.1076
20.1068
20.1068
20.1083
20.1083
20.1076
20.1076
20.1068
20.1029
20.1061
20.1023
20.1089
20.1044
20.1082
20.1039
20.1014
20.1404
20.1013
20.1409
20.0957
20.1413
20.0956
20.1418
20.1397
20.1016
20.14
20.1015
20.1405
20.096
20.1408
20.0959
20.1038
20.1082
20.1034
20.1075
20.1054
20.1103
20.1049
20.1096
20.109
20.109
20.1083
20.1083
20.1097
20.1097
20.109
20.109
20.1082
20.1038
20.1075
20.1034
20.1103
20.1054
20.1096
20.1049
20.1017
20.1396
20.1016
20.14
20.096
20.1405
20.0959
20.1409
20.1393
20.1019
20.1395
20.1017
20.1402
20.0962
20.1403
20.0961
20.1047
20.1094
20.1042
20.1088
20.1063
20.1115
20.1059
20.1109
20.1104
20.1103
20.1097
20.1097
20.111
20.111
20.1104
20.1104
20.1093
20.1046
20.1088
20.1042
20.1115
20.1063
20.1109
20.1059
20.1018
20.1394
20.1017
20.1395
20.0961
20.1403
20.0961
20.1404
20.1391
20.1022
20.1391
20.1021
20.1399
20.0967
20.1401
20.0964
20.1055
20.1105
20.1051
20.1099
20.1072
20.1126
20.1068
20.1121
20.1116
20.1116
20.111
20.111
20.1123
20.1123
20.1116
20.1116
20.1105
20.1055
20.1099
20.1051
20.1126
20.1072
20.1121
20.1068
20.1023
20.1391
20.102
20.1392