/*--------------------------------*- C++ -*----------------------------------*\
  =========                 |
  \\      /  F ield         | OpenFOAM: The Open Source CFD Toolbox
   \\    /   O peration     | Website:  https://openfoam.org
    \\  /    A nd           | Version:  9
     \\/     M anipulation  |
\*---------------------------------------------------------------------------*/
FoamFile
{
    format      ascii;
    class       surfaceScalarField;
    location    "0.7";
    object      phi;
}
// * * * * * * * * * * * * * * * * * * * * * * * * * * * * * * * * * * * * * //

dimensions      [0 3 -1 0 0 0 0];

internalField   nonuniform List<scalar> 
104044
(
-3.40183e-11
-3.13169e-05
-3.27601e-09
3.13098e-05
1.03923e-08
-3.1317e-05
-3.24865e-09
-3.22912e-13
3.13098e-05
1.03583e-08
3.68351e-11
-4.66585e-09
1.19889e-08
-4.70726e-09
2.14934e-12
1.20159e-08
-2.32275e-11
-1.09557e-05
1.09525e-05
-1.09558e-05
-1.11787e-12
1.09525e-05
3.52199e-11
2.56303e-12
9.84836e-13
-3.13169e-05
-3.24286e-09
3.13098e-05
1.03523e-08
-3.13169e-05
-3.24297e-09
4.49801e-13
3.13098e-05
1.03524e-08
-1.74824e-13
-4.7116e-09
1.20279e-08
-4.71257e-09
-1.72746e-14
1.2031e-08
5.42474e-13
-1.09558e-05
1.09525e-05
-1.09558e-05
4.48345e-13
1.09525e-05
-8.52346e-15
1.88175e-14
6.13261e-14
-3.13169e-05
-3.24357e-09
3.13098e-05
1.03534e-08
-3.13169e-05
-3.24382e-09
-3.32429e-13
3.13098e-05
1.03542e-08
3.9682e-14
-4.71301e-09
1.20323e-08
-4.71336e-09
8.07981e-14
1.20332e-08
6.7315e-14
-1.09558e-05
1.09525e-05
-1.09558e-05
-3.13105e-13
1.09525e-05
4.65073e-14
6.82439e-14
-9.08527e-13
-3.13169e-05
-3.24371e-09
3.13098e-05
1.03546e-08
-3.13169e-05
-3.24402e-09
3.56365e-13
3.13098e-05
1.03558e-08
2.26516e-13
-4.71361e-09
1.20336e-08
-4.71323e-09
-2.11578e-12
1.20319e-08
-4.09191e-13
-1.09558e-05
1.09525e-05
-1.09558e-05
1.20457e-12
1.09525e-05
6.93856e-14
-2.52241e-12
3.40651e-11
-3.1317e-05
-3.25013e-09
3.13098e-05
1.03627e-08
-3.13169e-05
-3.27761e-09
3.13098e-05
1.03973e-08
-3.67966e-11
-4.70932e-09
1.2021e-08
-4.66813e-09
1.19946e-08
2.32976e-11
-1.09558e-05
1.09525e-05
-1.09557e-05
1.09525e-05
-3.52196e-11
-6.64802e-12
-3.13027e-05
-2.85398e-09
3.1295e-05
1.0622e-08
-3.13028e-05
-2.85976e-09
-4.4361e-13
3.1295e-05
1.06241e-08
-1.13906e-11
-2.75567e-09
9.80507e-09
-2.76007e-09
1.80078e-12
9.80118e-09
-2.54228e-12
-1.09497e-05
1.09469e-05
-1.09497e-05
-5.88999e-13
1.09469e-05
-7.76056e-12
7.4121e-13
9.34391e-13
-3.13028e-05
-2.85963e-09
3.1295e-05
1.06273e-08
-3.13028e-05
-2.86095e-09
6.35922e-13
3.1295e-05
1.06295e-08
1.90575e-12
-2.76323e-09
9.80582e-09
-2.76625e-09
6.24108e-13
9.80944e-09
7.3875e-13
-1.09497e-05
1.09469e-05
-1.09497e-05
6.29549e-13
1.09469e-05
1.56876e-12
7.00613e-13
7.54229e-14
-3.13028e-05
-2.86171e-09
3.1295e-05
1.06309e-08
-3.13028e-05
-2.86188e-09
-4.88864e-13
3.1295e-05
1.06315e-08
6.3992e-14
-2.7676e-09
9.81141e-09
-2.7678e-09
-5.07828e-13
9.81208e-09
8.41952e-14
-1.09497e-05
1.09469e-05
-1.09497e-05
-4.63559e-13
1.09469e-05
7.11433e-14
-5.61495e-13
-8.03994e-13
-3.13028e-05
-2.86144e-09
3.1295e-05
1.06312e-08
-3.13028e-05
-2.8604e-09
5.39028e-13
3.1295e-05
1.06299e-08
-1.80272e-12
-2.76684e-09
9.81137e-09
-2.76415e-09
-1.71251e-12
9.80883e-09
-5.71798e-13
-1.09497e-05
1.09469e-05
-1.09497e-05
7.11263e-13
1.09469e-05
-1.44613e-12
-6.28168e-13
6.57473e-12
-3.13028e-05
-2.86072e-09
3.1295e-05
1.06274e-08
-3.13027e-05
-2.85499e-09
3.1295e-05
1.06258e-08
1.14628e-11
-2.76122e-09
9.80498e-09
-2.75694e-09
9.8093e-09
2.58388e-12
-1.09497e-05
1.09469e-05
-1.09497e-05
1.09469e-05
7.86456e-12
-5.98339e-12
-3.1286e-05
-3.93252e-09
3.12751e-05
1.48404e-08
-3.1286e-05
-3.9368e-09
-8.53634e-13
3.12751e-05
1.48397e-08
-6.40434e-12
-3.22944e-09
1.21967e-08
-3.23271e-09
-9.52291e-13
1.21965e-08
-3.20294e-14
-1.09436e-05
1.09397e-05
-1.09436e-05
-1.44566e-12
1.09397e-05
-1.29103e-12
-1.47285e-12
3.25046e-13
-3.1286e-05
-3.93382e-09
3.12751e-05
1.48409e-08
-3.1286e-05
-3.9345e-09
4.80674e-13
3.12751e-05
1.4842e-08
5.39465e-13
-3.23034e-09
1.21977e-08
-3.23112e-09
5.73722e-13
1.21991e-08
6.04688e-14
-1.09437e-05
1.09397e-05
-1.09437e-05
4.17861e-13
1.09397e-05
2.55049e-13
5.21491e-13
8.65957e-14
-3.1286e-05
-3.93504e-09
3.12751e-05
1.48429e-08
-3.12861e-05
-3.93515e-09
-3.17997e-13
3.12751e-05
1.48433e-08
7.8479e-14
-3.23174e-09
1.22002e-08
-3.23187e-09
-4.1773e-13
1.22006e-08
9.1502e-14
-1.09437e-05
1.09397e-05
-1.09437e-05
-2.37801e-13
1.09397e-05
8.11394e-14
-3.56618e-13
-1.85537e-13
-3.1286e-05
-3.93483e-09
3.12751e-05
1.48431e-08
-3.1286e-05
-3.9343e-09
9.66746e-13
3.12751e-05
1.48426e-08
-3.74697e-13
-3.23154e-09
1.22005e-08
-3.23094e-09
1.06685e-12
1.21999e-08
9.93165e-14
-1.09437e-05
1.09397e-05
-1.09437e-05
1.58405e-12
1.09397e-05
-1.09968e-13
1.64129e-12
5.87954e-12
-3.1286e-05
-3.93741e-09
3.12751e-05
1.48419e-08
-3.1286e-05
-3.93313e-09
3.12751e-05
1.4843e-08
6.43051e-12
-3.23347e-09
1.21992e-08
-3.23021e-09
1.21998e-08
4.06664e-14
-1.09437e-05
1.09397e-05
-1.09436e-05
1.09397e-05
1.49084e-12
-6.33991e-12
-3.1262e-05
-5.84972e-09
3.1246e-05
2.18343e-08
-3.1262e-05
-5.8566e-09
-6.29894e-13
3.1246e-05
2.18326e-08
-5.73952e-12
-4.76371e-09
1.78762e-08
-4.76921e-09
-7.32518e-13
1.78752e-08
2.23516e-12
-1.09349e-05
1.09291e-05
-1.09349e-05
-1.13284e-12
1.09291e-05
1.32685e-12
-1.28093e-12
9.11661e-14
-3.1262e-05
-5.85231e-09
3.1246e-05
2.18338e-08
-3.1262e-05
-5.85267e-09
2.89113e-13
3.1246e-05
2.18345e-08
1.68819e-13
-4.76566e-09
1.78765e-08
-4.76615e-09
3.66446e-13
1.78773e-08
-1.83425e-13
-1.0935e-05
1.09291e-05
-1.0935e-05
2.00212e-13
1.09291e-05
-9.9955e-14
2.91865e-13
9.68907e-14
-3.1262e-05
-5.85302e-09
3.12461e-05
2.1835e-08
-3.1262e-05
-5.85308e-09
-1.06703e-13
3.12461e-05
2.18352e-08
8.97771e-14
-4.76658e-09
1.7878e-08
-4.76666e-09
-2.01406e-13
1.78783e-08
9.48069e-14
-1.0935e-05
1.09291e-05
-1.0935e-05
-2.71163e-14
1.09291e-05
9.22035e-14
-1.07693e-13
7.14733e-14
-3.1262e-05
-5.85283e-09
3.1246e-05
2.18351e-08
-3.1262e-05
-5.85256e-09
7.43406e-13
3.1246e-05
2.18348e-08
-2.18325e-14
-4.76639e-09
1.78781e-08
-4.76602e-09
8.63089e-13
1.78778e-08
3.53645e-13
-1.0935e-05
1.09291e-05
-1.0935e-05
1.28869e-12
1.09291e-05
2.70767e-13
1.45978e-12
6.21049e-12
-3.1262e-05
-5.8569e-09
3.1246e-05
2.18338e-08
-3.1262e-05
-5.85e-09
3.1246e-05
2.18358e-08
5.78188e-12
-4.76966e-09
1.78769e-08
-4.76411e-09
1.78782e-08
-2.23195e-12
-1.09349e-05
1.09291e-05
-1.09349e-05
1.09291e-05
-1.11678e-12
-7.83211e-12
-3.12272e-05
-8.26777e-09
3.12048e-05
3.06415e-08
-3.12272e-05
-8.2777e-09
-3.50801e-13
3.12048e-05
3.06384e-08
-6.76972e-12
-6.94239e-09
2.58022e-08
-6.95062e-09
-4.63981e-13
2.57999e-08
4.11959e-12
-1.09221e-05
1.09139e-05
-1.09221e-05
-1.04221e-12
1.09139e-05
3.34855e-12
-1.04325e-12
6.39971e-14
-3.12272e-05
-8.2718e-09
3.12048e-05
3.06399e-08
-3.12272e-05
-8.27204e-09
1.95123e-13
3.12048e-05
3.06403e-08
6.52054e-14
-6.94562e-09
2.58012e-08
-6.94591e-09
2.30881e-13
2.58018e-08
-2.87829e-13
-1.09222e-05
1.09139e-05
-1.09222e-05
1.05176e-13
1.09139e-05
-2.41426e-13
1.34307e-13
1.07602e-13
-3.12272e-05
-8.27234e-09
3.12048e-05
3.06407e-08
-3.12272e-05
-8.27236e-09
1.08725e-14
3.12048e-05
3.06408e-08
1.00903e-13
-6.94622e-09
2.58022e-08
-6.94626e-09
-3.71541e-14
2.58024e-08
1.01172e-13
-1.09222e-05
1.09139e-05
-1.09222e-05
8.79432e-14
1.09139e-05
9.16552e-14
3.40667e-14
1.20111e-13
-3.12272e-05
-8.27209e-09
3.12048e-05
3.06406e-08
-3.12272e-05
-8.27188e-09
4.8592e-13
3.12048e-05
3.06402e-08
1.10391e-13
-6.94601e-09
2.58022e-08
-6.94577e-09
6.20998e-13
2.58019e-08
4.81579e-13
-1.09222e-05
1.09139e-05
-1.09222e-05
1.20917e-12
1.09139e-05
4.17753e-13
1.22965e-12
7.6549e-12
-3.12272e-05
-8.27777e-09
3.12048e-05
3.06389e-08
-3.12272e-05
-8.26779e-09
3.12048e-05
3.06421e-08
6.80621e-12
-6.95079e-09
2.58007e-08
-6.94248e-09
2.58032e-08
-4.13272e-12
-1.09222e-05
1.09139e-05
-1.09221e-05
1.09139e-05
-3.10049e-12
-9.85041e-12
-3.11791e-05
-1.10101e-08
3.11495e-05
4.0685e-08
-3.11791e-05
-1.10234e-08
-1.0177e-13
3.11495e-05
4.06805e-08
-8.52155e-12
-9.50967e-09
3.51767e-08
-9.52106e-09
-1.99502e-13
3.51732e-08
5.92639e-12
-1.09044e-05
1.08933e-05
-1.09044e-05
-1.03805e-12
1.08933e-05
5.19046e-12
-1.01026e-12
1.28872e-13
-3.11792e-05
-1.10156e-08
3.11495e-05
4.06825e-08
-3.11792e-05
-1.10158e-08
1.6089e-13
3.11495e-05
4.06829e-08
8.50043e-14
-9.51435e-09
3.51749e-08
-9.51458e-09
1.68329e-13
3.51753e-08
-3.64374e-13
-1.09044e-05
1.08934e-05
-1.09044e-05
6.2049e-14
1.08934e-05
-3.34478e-13
7.20473e-14
1.09597e-13
-3.11792e-05
-1.10162e-08
3.11495e-05
4.06832e-08
-3.11792e-05
-1.10162e-08
5.4513e-14
3.11495e-05
4.06832e-08
1.04718e-13
-9.51487e-09
3.51756e-08
-9.51488e-09
3.39763e-14
3.51756e-08
1.0403e-13
-1.09044e-05
1.08934e-05
-1.09044e-05
1.42894e-13
1.08934e-05
9.56714e-14
1.16672e-13
6.94755e-14
-3.11792e-05
-1.10158e-08
3.11495e-05
4.06829e-08
-3.11792e-05
-1.10156e-08
2.5047e-13
3.11495e-05
4.06825e-08
1.02046e-13
-9.51459e-09
3.51754e-08
-9.51438e-09
3.81061e-13
3.5175e-08
5.69132e-13
-1.09044e-05
1.08934e-05
-1.09044e-05
1.22134e-12
1.08934e-05
5.29506e-13
1.2208e-12
9.64514e-12
-3.11791e-05
-1.10233e-08
3.11495e-05
4.06806e-08
-3.11792e-05
-1.10099e-08
3.11495e-05
4.06852e-08
8.56003e-12
-9.52106e-09
3.51734e-08
-9.50955e-09
3.51771e-08
-5.94435e-12
-1.09044e-05
1.08933e-05
-1.09044e-05
1.08933e-05
-4.89649e-12
-1.21974e-11
-3.11162e-05
-1.40315e-08
3.10784e-05
5.18059e-08
-3.11162e-05
-1.40484e-08
1.24674e-13
3.10784e-05
5.18001e-08
-1.06779e-11
-1.23667e-08
4.56681e-08
-1.23815e-08
3.51078e-14
4.56632e-08
7.77949e-12
-1.0881e-05
1.08669e-05
-1.0881e-05
-1.07588e-12
1.08669e-05
7.01102e-12
-1.02805e-12
2.55145e-13
-3.11162e-05
-1.40387e-08
3.10784e-05
5.18027e-08
-3.11162e-05
-1.40389e-08
1.62795e-13
3.10784e-05
5.18031e-08
1.91188e-13
-1.23729e-08
4.56655e-08
-1.23731e-08
1.59564e-13
4.56659e-08
-4.07573e-13
-1.0881e-05
1.08669e-05
-1.0881e-05
5.43799e-14
1.08669e-05
-3.9347e-13
4.8323e-14
1.11302e-13
-3.11162e-05
-1.40393e-08
3.10784e-05
5.18033e-08
-3.11162e-05
-1.40393e-08
5.66646e-14
3.10784e-05
5.18033e-08
1.05542e-13
-1.23734e-08
4.56661e-08
-1.23734e-08
5.04357e-14
4.56661e-08
1.08411e-13
-1.0881e-05
1.08669e-05
-1.0881e-05
1.63263e-13
1.08669e-05
9.89071e-14
1.50648e-13
-4.20399e-14
-3.11162e-05
-1.40389e-08
3.10784e-05
5.1803e-08
-3.11162e-05
-1.40387e-08
3.37731e-14
3.10784e-05
5.18026e-08
1.71428e-14
-1.23731e-08
4.56658e-08
-1.23729e-08
1.56188e-13
4.56654e-08
6.25151e-13
-1.0881e-05
1.08669e-05
-1.0881e-05
1.27378e-12
1.08669e-05
5.97218e-13
1.25441e-12
1.19758e-11
-3.11162e-05
-1.40484e-08
3.10784e-05
5.18e-08
-3.11162e-05
-1.40313e-08
3.10784e-05
5.1806e-08
1.07215e-11
-1.23814e-08
4.56632e-08
-1.23664e-08
4.56683e-08
-7.79822e-12
-1.0881e-05
1.08669e-05
-1.0881e-05
1.08669e-05
-6.6931e-12
-1.48413e-11
-3.10367e-05
-1.73707e-08
3.099e-05
6.41346e-08
-3.10367e-05
-1.73916e-08
3.2364e-13
3.099e-05
6.41273e-08
-1.31299e-11
-1.55066e-08
5.72448e-08
-1.55252e-08
2.47351e-13
5.72386e-08
9.74229e-12
-1.08514e-05
1.0834e-05
-1.08514e-05
-1.16143e-12
1.0834e-05
8.90848e-12
-1.08782e-12
3.9055e-13
-3.10367e-05
-1.73797e-08
3.099e-05
6.41306e-08
-3.10367e-05
-1.738e-08
1.91223e-13
3.099e-05
6.41311e-08
3.1816e-13
-1.55145e-08
5.72414e-08
-1.55147e-08
1.70565e-13
5.72419e-08
-4.37931e-13
-1.08514e-05
1.0834e-05
-1.08514e-05
6.71184e-14
1.08341e-05
-4.27143e-13
5.28031e-14
1.19731e-13
-3.10367e-05
-1.73804e-08
3.099e-05
6.41313e-08
-3.10367e-05
-1.73804e-08
4.64972e-14
3.099e-05
6.41313e-08
1.1225e-13
-1.55151e-08
5.72421e-08
-1.55151e-08
5.07767e-14
5.72421e-08
1.15348e-13
-1.08514e-05
1.08341e-05
-1.08514e-05
1.65201e-13
1.08341e-05
1.05695e-13
1.5993e-13
-1.64237e-13
-3.10367e-05
-1.73799e-08
3.099e-05
6.4131e-08
-3.10367e-05
-1.73797e-08
-1.53209e-13
3.099e-05
6.41305e-08
-1.00007e-13
-1.55147e-08
5.72418e-08
-1.55145e-08
-4.13946e-14
5.72414e-08
6.71881e-13
-1.08514e-05
1.08341e-05
-1.08514e-05
1.37763e-12
1.08341e-05
6.45897e-13
1.33386e-12
1.4602e-11
-3.10367e-05
-1.73915e-08
3.099e-05
6.41273e-08
-3.10367e-05
-1.73705e-08
3.099e-05
6.41347e-08
1.31772e-11
-1.55251e-08
5.72385e-08
-1.55064e-08
5.72449e-08
-9.76246e-12
-1.08514e-05
1.0834e-05
-1.08514e-05
1.0834e-05
-8.56611e-12
-1.77745e-11
-3.09389e-05
-2.10867e-08
3.08821e-05
7.78781e-08
-3.09389e-05
-2.1112e-08
5.168e-13
3.08821e-05
7.78692e-08
-1.5866e-11
-1.89847e-08
7.00974e-08
-1.90073e-08
4.39269e-13
7.00897e-08
1.18799e-11
-1.0815e-05
1.07939e-05
-1.08151e-05
-1.28443e-12
1.0794e-05
1.09509e-11
-1.19266e-12
5.40782e-13
-3.09389e-05
-2.10977e-08
3.08821e-05
7.78732e-08
-3.09389e-05
-2.1098e-08
2.31401e-13
3.08821e-05
7.78737e-08
4.58953e-13
-1.89944e-08
7.00932e-08
-1.89946e-08
2.04682e-13
7.00938e-08
-4.68164e-13
-1.08151e-05
1.0794e-05
-1.08151e-05
8.88441e-14
1.0794e-05
-4.56715e-13
7.02688e-14
1.22886e-13
-3.09389e-05
-2.10985e-08
3.08821e-05
7.7874e-08
-3.09389e-05
-2.10985e-08
1.25725e-14
3.08821e-05
7.7874e-08
1.17382e-13
-1.89951e-08
7.0094e-08
-1.89951e-08
2.74115e-14
7.0094e-08
1.18395e-13
-1.08151e-05
1.0794e-05
-1.08151e-05
1.51017e-13
1.0794e-05
1.12138e-13
1.5568e-13
-3.04708e-13
-3.09389e-05
-2.10979e-08
3.08821e-05
7.78737e-08
-3.09389e-05
-2.10977e-08
-3.38668e-13
3.08821e-05
7.78731e-08
-2.27124e-13
-1.89946e-08
7.00937e-08
-1.89944e-08
-2.20406e-13
7.00932e-08
7.11953e-13
-1.08151e-05
1.0794e-05
-1.08151e-05
1.51014e-12
1.0794e-05
6.90521e-13
1.45439e-12
1.75236e-11
-3.09389e-05
-2.11119e-08
3.08821e-05
7.78692e-08
-3.09389e-05
-2.10865e-08
3.08821e-05
7.78782e-08
1.59161e-11
-1.90072e-08
7.00896e-08
-1.89844e-08
7.00975e-08
-1.19072e-11
-1.08151e-05
1.0794e-05
-1.0815e-05
1.0794e-05
-1.05814e-11
-2.10034e-11
-3.08205e-05
-2.52366e-08
3.07525e-05
9.32426e-08
-3.08205e-05
-2.52667e-08
7.21492e-13
3.07525e-05
9.3232e-08
-1.89096e-11
-2.28746e-08
8.44913e-08
-2.29018e-08
6.34039e-13
8.44821e-08
1.42602e-11
-1.07711e-05
1.07458e-05
-1.07711e-05
-1.43117e-12
1.07458e-05
1.31879e-11
-1.32849e-12
7.05427e-13
-3.08205e-05
-2.52497e-08
3.07525e-05
9.32367e-08
-3.08205e-05
-2.525e-08
2.78903e-13
3.07525e-05
9.32374e-08
6.14855e-13
-2.28864e-08
8.44864e-08
-2.28867e-08
2.4975e-13
8.4487e-08
-5.04754e-13
-1.07711e-05
1.07458e-05
-1.07711e-05
1.14868e-13
1.07458e-05
-4.87586e-13
9.64306e-14
1.21496e-13
-3.08205e-05
-2.52506e-08
3.07525e-05
9.32377e-08
-3.08205e-05
-2.52506e-08
-3.75575e-14
3.07525e-05
9.32377e-08
1.18602e-13
-2.28872e-08
8.44873e-08
-2.28872e-08
-1.43819e-14
8.44873e-08
1.19093e-13
-1.07711e-05
1.07458e-05
-1.07711e-05
1.2471e-13
1.07458e-05
1.14453e-13
1.33038e-13
-4.6578e-13
-3.08205e-05
-2.525e-08
3.07525e-05
9.32374e-08
-3.08205e-05
-2.52497e-08
-5.38019e-13
3.07525e-05
9.32367e-08
-3.78659e-13
-2.28866e-08
8.44869e-08
-2.28864e-08
-4.13036e-13
8.44863e-08
7.46235e-13
-1.07711e-05
1.07458e-05
-1.07711e-05
1.65508e-12
1.07458e-05
7.22844e-13
1.58915e-12
2.0758e-11
-3.08205e-05
-2.52666e-08
3.07525e-05
9.3232e-08
-3.08205e-05
-2.52364e-08
3.07525e-05
9.32427e-08
1.89601e-11
-2.29017e-08
8.44821e-08
-2.28744e-08
8.44915e-08
-1.42865e-11
-1.07711e-05
1.07458e-05
-1.07711e-05
1.07458e-05
-1.2815e-11
-2.45886e-11
-3.06791e-05
-2.98976e-08
3.05985e-05
1.10516e-07
-3.06791e-05
-2.99331e-08
9.35461e-13
3.05985e-05
1.10504e-07
-2.22784e-11
-2.72338e-08
1.00637e-07
-2.7266e-08
8.39157e-13
1.00626e-07
1.6914e-11
-1.07186e-05
1.06887e-05
-1.07186e-05
-1.61141e-12
1.06887e-05
1.56718e-11
-1.48957e-12
8.73271e-13
-3.06791e-05
-2.99132e-08
3.05985e-05
1.10509e-07
-3.06791e-05
-2.99135e-08
3.31738e-13
3.05985e-05
1.1051e-07
7.7997e-13
-2.72478e-08
1.00631e-07
-2.72481e-08
3.00749e-13
1.00632e-07
-5.57562e-13
-1.07186e-05
1.06887e-05
-1.07186e-05
1.4114e-13
1.06887e-05
-5.30383e-13
1.22979e-13
1.22672e-13
-3.06791e-05
-2.99142e-08
3.05985e-05
1.1051e-07
-3.06791e-05
-2.99142e-08
-8.97852e-14
3.05985e-05
1.1051e-07
1.18297e-13
-2.72487e-08
1.00632e-07
-2.72487e-08
-6.91235e-14
1.00632e-07
1.19669e-13
-1.07186e-05
1.06887e-05
-1.07186e-05
1.0034e-13
1.06887e-05
1.13426e-13
1.04475e-13
-6.31404e-13
-3.06791e-05
-2.99135e-08
3.05985e-05
1.1051e-07
-3.06791e-05
-2.99132e-08
-7.3883e-13
3.05985e-05
1.10509e-07
-5.43288e-13
-2.72481e-08
1.00632e-07
-2.72477e-08
-6.11889e-13
1.00631e-07
8.02211e-13
-1.07186e-05
1.06887e-05
-1.07186e-05
1.84141e-12
1.06887e-05
7.65132e-13
1.75129e-12
2.4357e-11
-3.06791e-05
-2.99331e-08
3.05985e-05
1.10504e-07
-3.06791e-05
-2.98974e-08
3.05985e-05
1.10516e-07
2.23391e-11
-2.72659e-08
1.00626e-07
-2.72335e-08
1.00637e-07
-1.69286e-11
-1.07186e-05
1.06887e-05
-1.07186e-05
1.06887e-05
-1.53048e-11
-2.85571e-11
-3.05119e-05
-3.51013e-08
3.04172e-05
1.29819e-07
-3.05119e-05
-3.51429e-08
1.15972e-12
3.04172e-05
1.29805e-07
-2.60193e-11
-3.21192e-08
1.18749e-07
-3.2157e-08
1.05332e-12
1.18736e-07
1.9833e-11
-1.06565e-05
1.06214e-05
-1.06565e-05
-1.81494e-12
1.06214e-05
1.84328e-11
-1.68447e-12
1.05307e-12
-3.05119e-05
-3.51196e-08
3.04172e-05
1.29811e-07
-3.05119e-05
-3.512e-08
3.87012e-13
3.04172e-05
1.29812e-07
9.48783e-13
-3.21357e-08
1.18742e-07
-3.21361e-08
3.53126e-13
1.18743e-07
-6.2205e-13
-1.06565e-05
1.06214e-05
-1.06565e-05
1.67699e-13
1.06214e-05
-5.9084e-13
1.47878e-13
1.2727e-13
-3.05119e-05
-3.51208e-08
3.04172e-05
1.29813e-07
-3.05119e-05
-3.51208e-08
-1.35114e-13
3.04172e-05
1.29813e-07
1.21396e-13
-3.21368e-08
1.18743e-07
-3.21368e-08
-1.14845e-13
1.18743e-07
1.24671e-13
-1.06565e-05
1.06214e-05
-1.06565e-05
8.32364e-14
1.06214e-05
1.1603e-13
8.622e-14
-7.97005e-13
-3.05119e-05
-3.512e-08
3.04172e-05
1.29812e-07
-3.05119e-05
-3.51196e-08
-9.54837e-13
3.04172e-05
1.29811e-07
-7.05664e-13
-3.2136e-08
1.18743e-07
-3.21357e-08
-8.16379e-13
1.18742e-07
8.76437e-13
-1.06565e-05
1.06214e-05
-1.06565e-05
2.05639e-12
1.06214e-05
8.34023e-13
1.95268e-12
2.83158e-11
-3.05119e-05
-3.51428e-08
3.04172e-05
1.29805e-07
-3.05119e-05
-3.51011e-08
3.04172e-05
1.29819e-07
2.60861e-11
-3.2157e-08
1.18736e-07
-3.2119e-08
1.18749e-07
-1.98546e-11
-1.06565e-05
1.06214e-05
-1.06565e-05
1.06214e-05
-1.8067e-11
-3.29157e-11
-3.03159e-05
-4.0932e-08
3.02054e-05
1.51473e-07
-3.03159e-05
-4.09803e-08
1.42615e-12
3.02054e-05
1.51457e-07
-3.01264e-11
-3.75627e-08
1.3895e-07
-3.76067e-08
1.28898e-12
1.38936e-07
2.31142e-11
-1.05838e-05
1.05429e-05
-1.05838e-05
-2.02544e-12
1.05429e-05
2.15016e-11
-1.89227e-12
1.25186e-12
-3.03159e-05
-4.09533e-08
3.02054e-05
1.51464e-07
-3.03159e-05
-4.09537e-08
4.46841e-13
3.02054e-05
1.51465e-07
1.13535e-12
-3.7582e-08
1.38943e-07
-3.75823e-08
4.10324e-13
1.38943e-07
-6.91326e-13
-1.05838e-05
1.05429e-05
-1.05838e-05
1.96876e-13
1.05429e-05
-6.56837e-13
1.76846e-13
1.31443e-13
-3.03159e-05
-4.09547e-08
3.02054e-05
1.51466e-07
-3.03159e-05
-4.09547e-08
-1.85806e-13
3.02054e-05
1.51466e-07
1.26754e-13
-3.75832e-08
1.38944e-07
-3.75832e-08
-1.61875e-13
1.38944e-07
1.30203e-13
-1.05838e-05
1.05429e-05
-1.05838e-05
6.4334e-14
1.05429e-05
1.23354e-13
7.05748e-14
-9.84821e-13
-3.03159e-05
-4.09537e-08
3.02054e-05
1.51465e-07
-3.03159e-05
-4.09533e-08
-1.20995e-12
3.02054e-05
1.51464e-07
-8.77818e-13
-3.75823e-08
1.38943e-07
-3.7582e-08
-1.04758e-12
1.38943e-07
9.54831e-13
-1.05838e-05
1.05429e-05
-1.05838e-05
2.2776e-12
1.05429e-05
9.11592e-13
2.16882e-12
3.26691e-11
-3.03159e-05
-4.09802e-08
3.02054e-05
1.51457e-07
-3.03159e-05
-4.09318e-08
3.02054e-05
1.51474e-07
3.01885e-11
-3.76067e-08
1.38936e-07
-3.75625e-08
1.38951e-07
-2.31455e-11
-1.05838e-05
1.05429e-05
-1.05838e-05
1.05429e-05
-2.11307e-11
-3.76213e-11
-3.00875e-05
-4.73657e-08
2.99595e-05
1.75399e-07
-3.00875e-05
-4.74214e-08
1.72477e-12
2.99595e-05
1.7538e-07
-3.45999e-11
-4.36328e-08
1.61505e-07
-4.36837e-08
1.57075e-12
1.61488e-07
2.67452e-11
-1.04992e-05
1.04518e-05
-1.04992e-05
-2.24829e-12
1.04518e-05
2.49359e-11
-2.10661e-12
1.46244e-12
-3.00875e-05
-4.73904e-08
2.99595e-05
1.75388e-07
-3.00875e-05
-4.73909e-08
5.0846e-13
2.99595e-05
1.75389e-07
1.33854e-12
-4.36551e-08
1.61496e-07
-4.36555e-08
4.72946e-13
1.61497e-07
-7.71777e-13
-1.04992e-05
1.04518e-05
-1.04992e-05
2.23348e-13
1.04518e-05
-7.27857e-13
2.06725e-13
1.3505e-13
-3.00875e-05
-4.73919e-08
2.99595e-05
1.7539e-07
-3.00875e-05
-4.73919e-08
-2.4127e-13
2.99595e-05
1.7539e-07
1.31006e-13
-4.36565e-08
1.61498e-07
-4.36565e-08
-2.1668e-13
1.61498e-07
1.33409e-13
-1.04992e-05
1.04518e-05
-1.04992e-05
4.25898e-14
1.04518e-05
1.27242e-13
4.66577e-14
-1.19567e-12
-3.00875e-05
-4.73909e-08
2.99595e-05
1.75389e-07
-3.00875e-05
-4.73904e-08
-1.5039e-12
2.99595e-05
1.75388e-07
-1.08013e-12
-4.36555e-08
1.61497e-07
-4.36551e-08
-1.32145e-12
1.61496e-07
1.03792e-12
-1.04992e-05
1.04518e-05
-1.04992e-05
2.50402e-12
1.04518e-05
9.86448e-13
2.38835e-12
3.73848e-11
-3.00875e-05
-4.74213e-08
2.99595e-05
1.7538e-07
-3.00875e-05
-4.73655e-08
2.99596e-05
1.75399e-07
3.46716e-11
-4.36836e-08
1.61488e-07
-4.36325e-08
1.61505e-07
-2.67755e-11
-1.04992e-05
1.04518e-05
-1.04992e-05
1.04518e-05
-2.45565e-11
-4.27642e-11
-2.98235e-05
-5.44716e-08
2.96762e-05
2.01866e-07
-2.98235e-05
-5.45354e-08
2.03147e-12
2.96761e-05
2.01844e-07
-3.9461e-11
-5.03225e-08
1.86398e-07
-5.03809e-08
1.86723e-12
1.86379e-07
3.0714e-11
-1.04015e-05
1.0347e-05
-1.04015e-05
-2.50865e-12
1.0347e-05
2.86867e-11
-2.34766e-12
1.67307e-12
-2.98235e-05
-5.45e-08
2.96761e-05
2.01854e-07
-2.98235e-05
-5.45005e-08
5.62764e-13
2.96761e-05
2.01855e-07
1.54292e-12
-5.03482e-08
1.86388e-07
-5.03486e-08
5.3001e-13
1.86389e-07
-8.7992e-13
-1.04015e-05
1.0347e-05
-1.04015e-05
2.39194e-13
1.0347e-05
-8.21224e-13
2.28369e-13
1.34778e-13
-2.98235e-05
-5.45017e-08
2.96762e-05
2.01855e-07
-2.98235e-05
-5.45017e-08
-2.94004e-13
2.96762e-05
2.01855e-07
1.3357e-13
-5.03497e-08
1.86389e-07
-5.03497e-08
-2.68083e-13
1.86389e-07
1.35491e-13
-1.04015e-05
1.0347e-05
-1.04015e-05
3.04996e-14
1.0347e-05
1.30596e-13
2.95595e-14
-1.39899e-12
-2.98235e-05
-5.45005e-08
2.96762e-05
2.01855e-07
-2.98235e-05
-5.45e-08
-1.80216e-12
2.96761e-05
2.01854e-07
-1.28343e-12
-5.03486e-08
1.86389e-07
-5.03481e-08
-1.61779e-12
1.86388e-07
1.14713e-12
-1.04015e-05
1.0347e-05
-1.04015e-05
2.7642e-12
1.0347e-05
1.07924e-12
2.62664e-12
4.25341e-11
-2.98235e-05
-5.45353e-08
2.96761e-05
2.01844e-07
-2.98235e-05
-5.44714e-08
2.96762e-05
2.01866e-07
3.95414e-11
-5.03808e-08
1.86379e-07
-5.03222e-08
1.86398e-07
-3.07417e-11
-1.04015e-05
1.0347e-05
-1.04015e-05
1.0347e-05
-2.83108e-11
-4.82871e-11
-2.952e-05
-6.2219e-08
2.93515e-05
2.30775e-07
-2.952e-05
-6.22915e-08
2.37297e-12
2.93515e-05
2.30751e-07
-4.47612e-11
-5.76876e-08
2.13852e-07
-5.77543e-08
2.17788e-12
2.1383e-07
3.49914e-11
-1.02892e-05
1.0227e-05
-1.02893e-05
-2.78397e-12
1.0227e-05
3.27707e-11
-2.61862e-12
1.90296e-12
-2.952e-05
-6.22515e-08
2.93515e-05
2.30762e-07
-2.952e-05
-6.2252e-08
6.24328e-13
2.93515e-05
2.30763e-07
1.75745e-12
-5.7717e-08
2.1384e-07
-5.77175e-08
5.8511e-13
2.13841e-07
-9.90813e-13
-1.02893e-05
1.0227e-05
-1.02893e-05
2.55602e-13
1.0227e-05
-9.34351e-13
2.43771e-13
1.30708e-13
-2.952e-05
-6.22533e-08
2.93515e-05
2.30763e-07
-2.952e-05
-6.22533e-08
-3.60666e-13
2.93515e-05
2.30763e-07
1.32781e-13
-5.77188e-08
2.13842e-07
-5.77188e-08
-3.23299e-13
2.13842e-07
1.31915e-13
-1.02893e-05
1.0227e-05
-1.02893e-05
7.65555e-15
1.0227e-05
1.32776e-13
1.49047e-14
-1.63027e-12
-2.952e-05
-6.2252e-08
2.93515e-05
2.30763e-07
-2.952e-05
-6.22515e-08
-2.14087e-12
2.93515e-05
2.30762e-07
-1.49574e-12
-5.77175e-08
2.13841e-07
-5.7717e-08
-1.93282e-12
2.1384e-07
1.25127e-12
-1.02893e-05
1.0227e-05
-1.02893e-05
3.0357e-12
1.0227e-05
1.18757e-12
2.89319e-12
4.80728e-11
-2.952e-05
-6.22915e-08
2.93515e-05
2.30751e-07
-2.95201e-05
-6.22189e-08
2.93515e-05
2.30776e-07
4.48373e-11
-5.77543e-08
2.1383e-07
-5.76874e-08
2.13852e-07
-3.5019e-11
-1.02893e-05
1.0227e-05
-1.02892e-05
1.0227e-05
-3.24054e-11
-5.42069e-11
-2.91735e-05
-7.06508e-08
2.89819e-05
2.62307e-07
-2.91734e-05
-7.07328e-08
2.75215e-12
2.89818e-05
2.62279e-07
-5.0462e-11
-6.57125e-08
2.43825e-07
-6.57881e-08
2.53191e-12
2.438e-07
3.95923e-11
-1.01612e-05
1.00906e-05
-1.01613e-05
-3.08261e-12
1.00906e-05
3.71579e-11
-2.91097e-12
2.14674e-12
-2.91734e-05
-7.06876e-08
2.89818e-05
2.62292e-07
-2.91735e-05
-7.06881e-08
6.86325e-13
2.89819e-05
2.62293e-07
1.99073e-12
-6.5746e-08
2.43811e-07
-6.57465e-08
6.47569e-13
2.43813e-07
-1.10957e-12
-1.01613e-05
1.00906e-05
-1.01613e-05
2.72648e-13
1.00906e-05
-1.05005e-12
2.61112e-13
1.21431e-13
-2.91735e-05
-7.06897e-08
2.89819e-05
2.62294e-07
-2.91735e-05
-7.06896e-08
-4.45305e-13
2.89819e-05
2.62294e-07
1.26535e-13
-6.57479e-08
2.43813e-07
-6.57479e-08
-4.00767e-13
2.43813e-07
1.20909e-13
-1.01613e-05
1.00906e-05
-1.01613e-05
-3.04793e-14
1.00906e-05
1.24132e-13
-2.07311e-14
-1.89462e-12
-2.91735e-05
-7.06881e-08
2.89819e-05
2.62293e-07
-2.91735e-05
-7.06876e-08
-2.51429e-12
2.89818e-05
2.62292e-07
-1.74651e-12
-6.57465e-08
2.43813e-07
-6.5746e-08
-2.28898e-12
2.43811e-07
1.34904e-12
-1.01613e-05
1.00906e-05
-1.01613e-05
3.31922e-12
1.00906e-05
1.28127e-12
3.16473e-12
5.40251e-11
-2.91734e-05
-7.07327e-08
2.89818e-05
2.6228e-07
-2.91735e-05
-7.06506e-08
2.89819e-05
2.62307e-07
5.05346e-11
-6.57881e-08
2.438e-07
-6.57123e-08
2.43825e-07
-3.96158e-11
-1.01613e-05
1.00906e-05
-1.01612e-05
1.00906e-05
-3.68148e-11
-6.04333e-11
-2.87801e-05
-7.96855e-08
2.85637e-05
2.96178e-07
-2.87801e-05
-7.97775e-08
3.12015e-12
2.85636e-05
2.96147e-07
-5.65007e-11
-7.43527e-08
2.7617e-07
-7.44378e-08
2.89466e-12
2.76143e-07
4.44665e-11
-1.00162e-05
9.93643e-06
-1.00162e-05
-3.39847e-12
9.93645e-06
4.18119e-11
-3.21873e-12
2.3985e-12
-2.87801e-05
-7.9727e-08
2.85637e-05
2.96161e-07
-2.87801e-05
-7.97276e-08
7.45753e-13
2.85637e-05
2.96162e-07
2.23584e-12
-7.43905e-08
2.76155e-07
-7.43911e-08
7.03847e-13
2.76157e-07
-1.24293e-12
-1.00162e-05
9.93646e-06
-1.00162e-05
2.80214e-13
9.93646e-06
-1.17711e-12
2.68959e-13
1.01742e-13
-2.87801e-05
-7.97292e-08
2.85637e-05
2.96163e-07
-2.87801e-05
-7.97292e-08
-5.36412e-13
2.85637e-05
2.96163e-07
1.08152e-13
-7.43926e-08
2.76157e-07
-7.43926e-08
-4.92898e-13
2.76157e-07
1.04084e-13
-1.00162e-05
9.93646e-06
-1.00162e-05
-6.84781e-14
9.93646e-06
1.05412e-13
-6.03862e-14
-2.15981e-12
-2.87801e-05
-7.97276e-08
2.85637e-05
2.96162e-07
-2.87801e-05
-7.9727e-08
-2.89929e-12
2.85637e-05
2.96161e-07
-2.01562e-12
-7.43911e-08
2.76157e-07
-7.43905e-08
-2.67886e-12
2.76155e-07
1.4636e-12
-1.00162e-05
9.93646e-06
-1.00162e-05
3.62211e-12
9.93646e-06
1.38741e-12
3.45241e-12
6.02996e-11
-2.87801e-05
-7.97775e-08
2.85637e-05
2.96147e-07
-2.87801e-05
-7.96854e-08
2.85637e-05
2.96178e-07
5.65744e-11
-7.44378e-08
2.76143e-07
-7.43525e-08
2.7617e-07
-4.4487e-11
-1.00162e-05
9.93645e-06
-1.00162e-05
9.93643e-06
-4.15232e-11
-6.70226e-11
-2.83364e-05
-8.93327e-08
2.80933e-05
3.32449e-07
-2.83363e-05
-8.94353e-08
3.52333e-12
2.80933e-05
3.32415e-07
-6.28814e-11
-8.36349e-08
3.11012e-07
-8.37302e-08
3.29205e-12
3.10982e-07
4.95964e-11
-9.85275e-06
9.76337e-06
-9.85277e-06
-3.72369e-12
9.76339e-06
4.67687e-11
-3.53623e-12
2.65984e-12
-2.83363e-05
-8.93791e-08
2.80933e-05
3.3243e-07
-2.83363e-05
-8.93797e-08
8.15861e-13
2.80933e-05
3.32431e-07
2.48785e-12
-8.36774e-08
3.10996e-07
-8.36779e-08
7.62472e-13
3.10997e-07
-1.37698e-12
-9.85278e-06
9.7634e-06
-9.85278e-06
3.02616e-13
9.7634e-06
-1.30966e-12
2.80932e-13
1.12612e-13
-2.83364e-05
-8.93815e-08
2.80933e-05
3.32432e-07
-2.83364e-05
-8.93815e-08
-5.85283e-13
2.80933e-05
3.32432e-07
9.75262e-14
-8.36797e-08
3.10998e-07
-8.36797e-08
-5.65926e-13
3.10998e-07
1.15115e-13
-9.85278e-06
9.7634e-06
-9.85278e-06
-6.73519e-14
9.7634e-06
1.01241e-13
-7.55327e-14
-2.40681e-12
-2.83363e-05
-8.93797e-08
2.80933e-05
3.32431e-07
-2.83363e-05
-8.93791e-08
-3.29783e-12
2.80933e-05
3.3243e-07
-2.26624e-12
-8.36779e-08
3.10997e-07
-8.36774e-08
-3.06412e-12
3.10996e-07
1.61659e-12
-9.85278e-06
9.7634e-06
-9.85278e-06
3.95336e-12
9.7634e-06
1.52221e-12
3.76015e-12
6.68892e-11
-2.83363e-05
-8.94353e-08
2.80933e-05
3.32415e-07
-2.83364e-05
-8.93326e-08
2.80933e-05
3.32449e-07
6.29571e-11
-8.37302e-08
3.10982e-07
-8.36348e-08
3.11013e-07
-4.96254e-11
-9.85277e-06
9.76339e-06
-9.85275e-06
9.76337e-06
-4.6515e-11
-7.38432e-11
-2.78389e-05
-9.94973e-08
2.75677e-05
3.70791e-07
-2.78389e-05
-9.9611e-08
3.94871e-12
2.75677e-05
3.70753e-07
-6.95007e-11
-9.34319e-08
3.479e-07
-9.35377e-08
3.70487e-12
3.47866e-07
5.49337e-11
-9.66989e-06
9.57033e-06
-9.66991e-06
-4.05248e-12
9.57036e-06
5.19559e-11
-3.85773e-12
2.93863e-12
-2.78389e-05
-9.95489e-08
2.75677e-05
3.7077e-07
-2.78389e-05
-9.95495e-08
9.01725e-13
2.75677e-05
3.70771e-07
2.75441e-12
-9.34792e-08
3.47882e-07
-9.34798e-08
8.46755e-13
3.47883e-07
-1.51293e-12
-9.66992e-06
9.57037e-06
-9.66992e-06
3.3581e-13
9.57037e-06
-1.44001e-12
3.13932e-13
1.44966e-13
-2.78389e-05
-9.95515e-08
2.75677e-05
3.70772e-07
-2.78389e-05
-9.95515e-08
-6.16012e-13
2.75677e-05
3.70772e-07
1.29914e-13
-9.34817e-08
3.47884e-07
-9.34817e-08
-5.88333e-13
3.47884e-07
1.45024e-13
-9.66992e-06
9.57037e-06
-9.66992e-06
-4.94511e-14
9.57037e-06
1.32365e-13
-5.54827e-14
-2.65659e-12
-2.78389e-05
-9.95495e-08
2.75677e-05
3.70771e-07
-2.78389e-05
-9.95489e-08
-3.72889e-12
2.75677e-05
3.7077e-07
-2.49653e-12
-9.34798e-08
3.47883e-07
-9.34792e-08
-3.45855e-12
3.47882e-07
1.78378e-12
-9.66992e-06
9.57037e-06
-9.66992e-06
4.29551e-12
9.57037e-06
1.68978e-12
4.11329e-12
7.37136e-11
-2.78389e-05
-9.9611e-08
2.75677e-05
3.70753e-07
-2.78389e-05
-9.94972e-08
2.75677e-05
3.70791e-07
6.95995e-11
-9.35377e-08
3.47866e-07
-9.34318e-08
3.479e-07
-5.49714e-11
-9.66991e-06
9.57036e-06
-9.66989e-06
9.57034e-06
-5.16689e-11
-8.06908e-11
-2.72847e-05
-1.10093e-07
2.6984e-05
4.10909e-07
-2.72847e-05
-1.10219e-07
4.42898e-12
2.69839e-05
4.10869e-07
-7.63148e-11
-1.03724e-07
3.86786e-07
-1.03841e-07
4.14043e-12
3.8675e-07
6.0495e-11
-9.46655e-06
9.3564e-06
-9.46658e-06
-4.35459e-12
9.35643e-06
5.73282e-11
-4.16595e-12
3.22895e-12
-2.72847e-05
-1.10151e-07
2.69839e-05
4.10887e-07
-2.72847e-05
-1.10151e-07
9.68824e-13
2.6984e-05
4.10888e-07
3.04492e-12
-1.03776e-07
3.86767e-07
-1.03777e-07
9.3293e-13
3.86768e-07
-1.64991e-12
-9.46659e-06
9.35644e-06
-9.46659e-06
3.44452e-13
9.35644e-06
-1.56352e-12
3.49932e-13
1.221e-13
-2.72847e-05
-1.10153e-07
2.6984e-05
4.10888e-07
-2.72847e-05
-1.10153e-07
-7.25059e-13
2.6984e-05
4.10888e-07