/*--------------------------------*- C++ -*----------------------------------*\
  =========                 |
  \\      /  F ield         | OpenFOAM: The Open Source CFD Toolbox
   \\    /   O peration     | Website:  https://openfoam.org
    \\  /    A nd           | Version:  9
     \\/     M anipulation  |
\*---------------------------------------------------------------------------*/
FoamFile
{
    format      ascii;
    class       volVectorField;
    location    "0.7";
    object      U;
}
// * * * * * * * * * * * * * * * * * * * * * * * * * * * * * * * * * * * * * //

dimensions      [0 1 -1 0 0 0 0];

internalField   nonuniform List<vector> 
36360
(
(9.35579e-06 -0.0594948 -0.935995)
(9.29204e-06 -0.0594945 -2.02335e-08)
(1.21318e-05 -0.0595156 -0.945608)
(1.21855e-05 -0.0595156 2.29717e-08)
(1.6531e-06 -0.0208124 -0.923568)
(1.59601e-06 -0.0208122 -1.43522e-08)
(3.04683e-06 -0.0208244 -0.932407)
(3.05446e-06 -0.0208244 2.22704e-08)
(9.28079e-06 -0.0594944 2.62869e-10)
(9.28091e-06 -0.0594944 7.14305e-10)
(1.21997e-05 -0.0595156 1.17641e-09)
(1.22031e-05 -0.0595156 -1.1699e-10)
(1.58558e-06 -0.0208121 -3.69348e-10)
(1.58479e-06 -0.0208121 5.18703e-10)
(3.05526e-06 -0.0208244 1.52197e-09)
(3.05515e-06 -0.0208245 6.84008e-12)
(9.28225e-06 -0.0594944 2.94041e-10)
(9.28297e-06 -0.0594945 -1.58724e-10)
(1.22044e-05 -0.0595156 1.17542e-11)
(1.22054e-05 -0.0595156 8.3482e-11)
(1.58516e-06 -0.0208121 2.59593e-10)
(1.58529e-06 -0.0208121 -1.1073e-10)
(3.05523e-06 -0.0208245 3.78992e-11)
(3.05546e-06 -0.0208245 6.25953e-11)
(9.283e-06 -0.0594945 -6.15469e-10)
(9.28407e-06 -0.0594945 -2.093e-10)
(1.22058e-05 -0.0595156 1.93855e-10)
(1.22039e-05 -0.0595156 -1.12562e-09)
(1.58517e-06 -0.0208121 -3.9238e-10)
(1.58619e-06 -0.0208121 4.74032e-10)
(3.05584e-06 -0.0208245 7.79542e-11)
(3.05633e-06 -0.0208245 -1.46151e-09)
(9.2962e-06 -0.0594946 2.0281e-08)
(9.36043e-06 -0.0594948 0.935995)
(1.21908e-05 -0.0595156 -2.29291e-08)
(1.21377e-05 -0.0595156 0.945608)
(1.59679e-06 -0.0208122 1.44452e-08)
(1.65396e-06 -0.0208124 0.923568)
(3.05583e-06 -0.0208245 -2.2246e-08)
(3.04835e-06 -0.0208244 0.932407)
(8.79478e-06 -0.0594684 -0.935212)
(8.78997e-06 -0.0594684 -4.26386e-09)
(8.37106e-06 -0.0594818 -0.93544)
(8.36228e-06 -0.059482 -5.74726e-09)
(1.06501e-06 -0.0208019 -0.922804)
(1.04103e-06 -0.020802 -1.96289e-09)
(1.13655e-06 -0.0208069 -0.923027)
(1.11264e-06 -0.020807 -4.21151e-09)
(8.79262e-06 -0.0594684 1.73066e-10)
(8.79594e-06 -0.0594685 7.61964e-10)
(8.36964e-06 -0.059482 2.05495e-09)
(8.376e-06 -0.059482 1.40316e-09)
(1.03686e-06 -0.020802 -7.4631e-11)
(1.03728e-06 -0.020802 6.69077e-10)
(1.11226e-06 -0.020807 1.20363e-09)
(1.11467e-06 -0.020807 1.15945e-09)
(8.79781e-06 -0.0594685 3.62757e-10)
(8.79831e-06 -0.0594685 -1.93488e-10)
(8.37903e-06 -0.0594821 4.79328e-10)
(8.37963e-06 -0.0594821 -3.31307e-10)
(1.03782e-06 -0.020802 3.56401e-10)
(1.03789e-06 -0.020802 -1.70945e-10)
(1.11589e-06 -0.020807 4.4634e-10)
(1.11598e-06 -0.0208071 -2.87752e-10)
(8.79742e-06 -0.0594685 -6.19893e-10)
(8.79492e-06 -0.0594685 -5.52944e-11)
(8.37774e-06 -0.0594821 -1.26807e-09)
(8.37236e-06 -0.059482 -1.94036e-09)
(1.03749e-06 -0.020802 -5.08349e-10)
(1.03719e-06 -0.020802 2.24885e-10)
(1.11494e-06 -0.020807 -1.01598e-09)
(1.11269e-06 -0.020807 -1.06975e-09)
(8.79289e-06 -0.0594684 4.27782e-09)
(8.79801e-06 -0.0594684 0.935212)
(8.3657e-06 -0.059482 5.84424e-09)
(8.37486e-06 -0.0594819 0.93544)
(1.04142e-06 -0.020802 2.06705e-09)
(1.06543e-06 -0.0208019 0.922804)
(1.11316e-06 -0.020807 4.34267e-09)
(1.13714e-06 -0.0208069 0.923027)
(1.23929e-05 -0.0594341 -0.9344)
(1.23779e-05 -0.0594341 -4.19566e-09)
(1.01897e-05 -0.0594527 -0.934628)
(1.01775e-05 -0.0594527 -4.51476e-09)
(1.45807e-06 -0.0207895 -0.922012)
(1.42097e-06 -0.0207896 -7.24945e-10)
(1.19067e-06 -0.0207962 -0.922235)
(1.15966e-06 -0.0207963 -1.50443e-09)
(1.23756e-05 -0.0594341 -3.36137e-10)
(1.23774e-05 -0.0594341 4.29591e-10)
(1.0176e-05 -0.0594527 -3.04493e-10)
(1.01781e-05 -0.0594528 5.69022e-10)
(1.4122e-06 -0.0207896 -6.67831e-10)
(1.41163e-06 -0.0207896 2.42564e-10)
(1.15244e-06 -0.0207963 -5.55091e-10)
(1.15214e-06 -0.0207963 4.11131e-10)
(1.23788e-05 -0.0594342 2.90986e-10)
(1.23791e-05 -0.0594342 -9.35397e-11)
(1.01796e-05 -0.0594528 3.30789e-10)
(1.018e-05 -0.0594528 -1.49801e-10)
(1.41192e-06 -0.0207896 2.63209e-10)
(1.41197e-06 -0.0207896 -6.18113e-11)
(1.15252e-06 -0.0207963 3.02409e-10)
(1.15258e-06 -0.0207963 -1.21104e-10)
(1.23784e-05 -0.0594342 -2.62983e-10)
(1.23772e-05 -0.0594341 4.84273e-10)
(1.01793e-05 -0.0594528 -4.29677e-10)
(1.01779e-05 -0.0594528 4.5721e-10)
(1.41176e-06 -0.0207896 -5.83747e-11)
(1.41239e-06 -0.0207896 8.3847e-10)
(1.15232e-06 -0.0207963 -2.38658e-10)
(1.15268e-06 -0.0207963 7.36868e-10)
(1.23798e-05 -0.0594341 4.20214e-09)
(1.2395e-05 -0.0594341 0.9344)
(1.018e-05 -0.0594527 4.62995e-09)
(1.01923e-05 -0.0594527 0.934628)
(1.4212e-06 -0.0207896 8.01827e-10)
(1.45828e-06 -0.0207895 0.922012)
(1.15997e-06 -0.0207963 1.71873e-09)
(1.19096e-06 -0.0207962 0.922235)
(1.87094e-05 -0.059384 -0.933562)
(1.86875e-05 -0.059384 -4.36084e-09)
(1.52761e-05 -0.0594115 -0.933788)
(1.52581e-05 -0.0594115 -4.05181e-09)
(2.27918e-06 -0.0207713 -0.921195)
(2.22442e-06 -0.0207714 7.06224e-10)
(1.83049e-06 -0.0207814 -0.921416)
(1.78547e-06 -0.0207814 1.29089e-10)
(1.86839e-05 -0.0593841 -3.40626e-10)
(1.86851e-05 -0.0593841 2.04985e-10)
(1.52552e-05 -0.0594115 -3.56534e-10)
(1.52566e-05 -0.0594115 2.9131e-10)
(2.21158e-06 -0.0207714 -8.2566e-10)
(2.21016e-06 -0.0207714 -2.16608e-11)
(1.77485e-06 -0.0207814 -7.63841e-10)
(1.77385e-06 -0.0207814 8.72559e-11)
(1.8686e-05 -0.0593841 2.11624e-10)
(1.86862e-05 -0.0593841 1.59879e-11)
(1.52577e-05 -0.0594115 2.42938e-10)
(1.5258e-05 -0.0594115 -3.7404e-11)
(2.2102e-06 -0.0207714 1.76644e-10)
(2.21023e-06 -0.0207714 4.65046e-11)
(1.77401e-06 -0.0207814 2.12824e-10)
(1.77405e-06 -0.0207814 -5.76728e-12)
(1.86856e-05 -0.0593841 -3.10244e-12)
(1.86847e-05 -0.0593841 5.15231e-10)
(1.52574e-05 -0.0594115 -1.09617e-10)
(1.52564e-05 -0.0594115 5.32086e-10)
(2.21022e-06 -0.0207714 2.46766e-10)
(2.21167e-06 -0.0207714 1.03464e-09)
(1.77395e-06 -0.0207814 1.10322e-10)
(1.77498e-06 -0.0207814 9.47916e-10)
(1.86886e-05 -0.0593841 4.35171e-09)
(1.87105e-05 -0.059384 0.933562)
(1.52596e-05 -0.0594115 4.16088e-09)
(1.52777e-05 -0.0594115 0.933788)
(2.22453e-06 -0.0207714 -6.24498e-10)
(2.27923e-06 -0.0207714 0.921195)
(1.78564e-06 -0.0207814 7.11313e-11)
(1.83059e-06 -0.0207814 0.921416)
(2.68902e-05 -0.0593121 -0.932697)
(2.68597e-05 -0.0593121 -5.21955e-09)
(2.26069e-05 -0.0593511 -0.932938)
(2.25809e-05 -0.0593511 -4.61521e-09)
(3.34334e-06 -0.0207448 -0.920352)
(3.26547e-06 -0.0207448 1.95465e-09)
(2.78777e-06 -0.0207592 -0.920587)
(2.72202e-06 -0.0207592 1.46233e-09)
(2.68545e-05 -0.0593121 -1.84972e-10)
(2.68556e-05 -0.0593121 1.47201e-10)
(2.25766e-05 -0.0593511 -2.57187e-10)
(2.25777e-05 -0.0593511 1.64334e-10)
(3.24734e-06 -0.0207449 -9.01862e-10)
(3.2451e-06 -0.0207449 -1.61865e-10)
(2.70668e-06 -0.0207593 -8.64941e-10)
(2.70486e-06 -0.0207593 -1.05485e-10)
(2.68564e-05 -0.0593121 1.78575e-10)
(2.68565e-05 -0.0593121 7.96605e-11)
(2.25785e-05 -0.0593511 1.90224e-10)
(2.25786e-05 -0.0593511 4.92327e-11)
(3.24499e-06 -0.0207449 1.32026e-10)
(3.245e-06 -0.0207449 1.20912e-10)
(2.70482e-06 -0.0207593 1.46236e-10)
(2.70484e-06 -0.0207593 8.15868e-11)
(2.68558e-05 -0.0593121 8.44771e-11)
(2.68548e-05 -0.0593121 3.90855e-10)
(2.2578e-05 -0.0593511 5.24852e-11)
(2.25771e-05 -0.0593511 4.71703e-10)
(3.24511e-06 -0.0207449 4.13155e-10)
(3.24735e-06 -0.0207449 1.13628e-09)
(2.70489e-06 -0.0207593 3.38787e-10)
(2.70673e-06 -0.0207593 1.10987e-09)
(2.68601e-05 -0.0593121 5.19372e-09)
(2.68907e-05 -0.0593121 0.932697)
(2.25816e-05 -0.0593511 4.73974e-09)
(2.26076e-05 -0.0593511 0.932938)
(3.26547e-06 -0.0207449 -1.85534e-09)
(3.34328e-06 -0.0207448 0.920352)
(2.72207e-06 -0.0207593 -1.18394e-09)
(2.78773e-06 -0.0207592 0.920587)
(3.64774e-05 -0.0592141 -0.931802)
(3.64369e-05 -0.0592141 -6.4732e-09)
(3.15221e-05 -0.0592665 -0.932048)
(3.14868e-05 -0.0592665 -5.67325e-09)
(4.57163e-06 -0.0207085 -0.919479)
(4.46669e-06 -0.0207085 3.17191e-09)
(3.93901e-06 -0.020728 -0.919719)
(3.84806e-06 -0.020728 2.71149e-09)
(3.64301e-05 -0.0592141 6.53862e-12)
(3.64312e-05 -0.0592141 1.69276e-10)
(3.14808e-05 -0.0592665 -7.62628e-11)
(3.1482e-05 -0.0592666 1.51515e-10)
(4.44233e-06 -0.0207085 -9.64057e-10)
(4.4392e-06 -0.0207085 -2.40307e-10)
(3.82692e-06 -0.020728 -9.26037e-10)
(3.82426e-06 -0.020728 -2.13994e-10)
(3.64321e-05 -0.0592142 1.70375e-10)
(3.64321e-05 -0.0592142 1.10455e-10)
(3.14828e-05 -0.0592666 1.68297e-10)
(3.14828e-05 -0.0592666 9.41227e-11)
(4.439e-06 -0.0207085 1.09048e-10)
(4.439e-06 -0.0207085 1.62235e-10)
(3.8241e-06 -0.020728 1.09848e-10)
(3.8241e-06 -0.020728 1.39206e-10)
(3.64312e-05 -0.0592141 8.15714e-11)
(3.64301e-05 -0.0592141 2.1049e-10)
(3.1482e-05 -0.0592666 8.94886e-11)
(3.14809e-05 -0.0592665 3.17834e-10)
(4.43919e-06 -0.0207085 5.07289e-10)
(4.44231e-06 -0.0207085 1.21679e-09)
(3.82425e-06 -0.020728 4.69717e-10)
(3.82692e-06 -0.020728 1.19611e-09)
(3.64369e-05 -0.0592141 6.43753e-09)
(3.64774e-05 -0.0592141 0.931802)
(3.1487e-05 -0.0592665 5.81773e-09)
(3.15223e-05 -0.0592665 0.932048)
(4.46663e-06 -0.0207085 -3.063e-09)
(4.57148e-06 -0.0207085 0.919479)
(3.84802e-06 -0.020728 -2.38177e-09)
(3.93886e-06 -0.020728 0.919719)
(4.73971e-05 -0.059087 -0.930876)
(4.73454e-05 -0.059087 -8.00872e-09)
(4.17654e-05 -0.0591544 -0.931139)
(4.17195e-05 -0.0591544 -7.05822e-09)
(5.95088e-06 -0.0206613 -0.918576)
(5.81522e-06 -0.0206613 4.44005e-09)
(5.24132e-06 -0.0206863 -0.918832)
(5.12149e-06 -0.0206863 3.96082e-09)
(4.73367e-05 -0.059087 2.25948e-10)
(4.73381e-05 -0.0590871 2.53441e-10)
(4.17118e-05 -0.0591544 1.29846e-10)
(4.17131e-05 -0.0591544 2.06755e-10)
(5.78383e-06 -0.0206613 -1.03399e-09)
(5.77971e-06 -0.0206613 -2.75421e-10)
(5.09374e-06 -0.0206863 -9.90009e-10)
(5.09013e-06 -0.0206864 -2.67868e-10)
(4.73391e-05 -0.0590871 1.86646e-10)
(4.73391e-05 -0.0590871 1.12176e-10)
(4.1714e-05 -0.0591544 1.72615e-10)
(4.17139e-05 -0.0591544 1.09762e-10)
(5.77944e-06 -0.0206613 1.09596e-10)
(5.77943e-06 -0.0206613 1.82672e-10)
(5.08989e-06 -0.0206864 9.89425e-11)
(5.08988e-06 -0.0206864 1.67593e-10)
(4.73381e-05 -0.0590871 3.13816e-11)
(4.73366e-05 -0.0590871 1.73511e-11)
(4.1713e-05 -0.0591544 5.80897e-11)
(4.17117e-05 -0.0591544 1.25267e-10)
(5.7797e-06 -0.0206613 5.64818e-10)
(5.7838e-06 -0.0206613 1.31013e-09)
(5.09012e-06 -0.0206864 5.39982e-10)
(5.09371e-06 -0.0206863 1.2805e-09)
(4.73453e-05 -0.059087 7.96808e-09)
(4.7397e-05 -0.059087 0.930876)
(4.17194e-05 -0.0591544 7.21551e-09)
(4.17653e-05 -0.0591544 0.931139)
(5.81516e-06 -0.0206613 -4.31966e-09)
(5.95072e-06 -0.0206613 0.918576)
(5.12142e-06 -0.0206863 -3.59807e-09)
(5.24112e-06 -0.0206863 0.918832)
(5.98272e-05 -0.0589277 -0.929928)
(5.97627e-05 -0.0589277 -9.82022e-09)
(5.34079e-05 -0.0590116 -0.930189)
(5.335e-05 -0.0590116 -8.71446e-09)
(7.50549e-06 -0.0206021 -0.917651)
(7.33506e-06 -0.0206021 5.79776e-09)
(6.70375e-06 -0.0206332 -0.917906)
(6.55125e-06 -0.0206333 5.28388e-09)
(5.9752e-05 -0.0589277 4.4828e-10)
(5.97537e-05 -0.0589278 3.68616e-10)
(5.33404e-05 -0.0590116 3.53781e-10)
(5.3342e-05 -0.0590116 3.0973e-10)
(7.29568e-06 -0.0206021 -1.13627e-09)
(7.29049e-06 -0.0206021 -2.95403e-10)
(6.51601e-06 -0.0206333 -1.07347e-09)
(6.51138e-06 -0.0206333 -2.92779e-10)
(5.97549e-05 -0.0589278 2.21536e-10)
(5.97549e-05 -0.0589278 1.02975e-10)
(5.3343e-05 -0.0590116 2.01156e-10)
(5.3343e-05 -0.0590116 1.04704e-10)
(7.29014e-06 -0.0206021 1.24834e-10)
(7.29013e-06 -0.0206021 1.91965e-10)
(6.51106e-06 -0.0206333 1.08858e-10)
(6.51106e-06 -0.0206333 1.8218e-10)
(5.97537e-05 -0.0589278 -5.29883e-11)
(5.97519e-05 -0.0589278 -1.81136e-10)
(5.33419e-05 -0.0590116 -1.04774e-11)
(5.33403e-05 -0.0590116 -6.76027e-11)
(7.29048e-06 -0.0206021 6.11803e-10)
(7.29566e-06 -0.0206021 1.44164e-09)
(6.51137e-06 -0.0206333 5.9e-10)
(6.51599e-06 -0.0206333 1.39348e-09)
(5.97626e-05 -0.0589277 9.77493e-09)
(5.98272e-05 -0.0589277 0.929928)
(5.33499e-05 -0.0590116 8.88745e-09)
(5.34078e-05 -0.0590116 0.930189)
(7.33501e-06 -0.0206021 -5.66344e-09)
(7.50534e-06 -0.0206021 0.917651)
(6.5512e-06 -0.0206333 -4.8838e-09)
(6.70355e-06 -0.0206332 0.917906)
(7.40621e-05 -0.0587326 -0.92895)
(7.39831e-05 -0.0587326 -1.19043e-08)
(6.67008e-05 -0.0588349 -0.929207)
(6.66293e-05 -0.0588349 -1.06454e-08)
(9.27415e-06 -0.0205295 -0.916697)
(9.06416e-06 -0.0205295 7.30224e-09)
(8.36018e-06 -0.0205675 -0.916949)
(8.17062e-06 -0.0205676 6.7276e-09)
(7.397e-05 -0.0587326 6.83304e-10)
(7.39722e-05 -0.0587326 5.03042e-10)
(6.66175e-05 -0.0588349 5.82626e-10)
(6.66194e-05 -0.0588349 4.35228e-10)
(9.01568e-06 -0.0205296 -1.27261e-09)
(9.00928e-06 -0.0205296 -3.14038e-10)
(8.12685e-06 -0.0205676 -1.19378e-09)
(8.12109e-06 -0.0205676 -3.11908e-10)
(7.39736e-05 -0.0587327 2.6341e-10)
(7.39735e-05 -0.0587327 7.61285e-11)
(6.66207e-05 -0.0588349 2.38415e-10)
(6.66207e-05 -0.0588349 8.8052e-11)
(9.00884e-06 -0.0205296 1.4473e-10)
(9.00884e-06 -0.0205296 1.88127e-10)
(8.12069e-06 -0.0205676 1.27168e-10)
(8.12069e-06 -0.0205676 1.86809e-10)
(7.39721e-05 -0.0587326 -1.69708e-10)
(7.397e-05 -0.0587326 -3.99295e-10)
(6.66193e-05 -0.0588349 -1.07309e-10)
(6.66174e-05 -0.0588349 -2.7018e-10)
(9.00927e-06 -0.0205296 6.48701e-10)
(9.01566e-06 -0.0205296 1.59739e-09)
(8.12108e-06 -0.0205676 6.34969e-10)
(8.12684e-06 -0.0205676 1.54182e-09)
(7.3983e-05 -0.0587326 1.18555e-08)
(7.40621e-05 -0.0587326 0.92895)
(6.66292e-05 -0.0588349 1.08328e-08)
(6.67007e-05 -0.0588349 0.929207)
(9.0641e-06 -0.0205295 -7.16355e-09)
(9.27398e-06 -0.0205295 0.916697)
(8.17056e-06 -0.0205676 -6.28979e-09)
(8.35997e-06 -0.0205675 0.916949)
(9.04311e-05 -0.0584974 -0.927927)
(9.03355e-05 -0.0584974 -1.42728e-08)
(8.19621e-05 -0.0586203 -0.928204)
(8.18752e-05 -0.0586203 -1.2861e-08)
(1.12977e-05 -0.0204421 -0.9157)
(1.10425e-05 -0.0204422 9.02168e-09)
(1.02512e-05 -0.0204878 -0.91597)
(1.00194e-05 -0.0204878 8.33972e-09)
(9.03198e-05 -0.0584974 9.44858e-10)
(9.03224e-05 -0.0584974 6.5668e-10)
(8.18608e-05 -0.0586203 8.29124e-10)
(8.18632e-05 -0.0586203 5.79403e-10)
(1.09837e-05 -0.0204422 -1.43698e-09)
(1.09759e-05 -0.0204422 -3.3598e-10)
(9.96594e-06 -0.0204878 -1.34416e-09)
(9.95889e-06 -0.0204878 -3.29409e-10)
(9.0324e-05 -0.0584975 3.1049e-10)
(9.0324e-05 -0.0584975 3.32222e-11)
(8.18647e-05 -0.0586203 2.83656e-10)
(8.18647e-05 -0.0586203 5.1848e-11)
(1.09754e-05 -0.0204422 1.67146e-10)
(1.09754e-05 -0.0204422 1.74154e-10)
(9.9584e-06 -0.0204878 1.50469e-10)
(9.9584e-06 -0.0204878 1.76538e-10)
(9.03223e-05 -0.0584974 -3.17137e-10)
(9.03198e-05 -0.0584974 -6.48644e-10)
(8.18631e-05 -0.0586203 -2.42108e-10)
(8.18608e-05 -0.0586203 -5.06247e-10)
(1.09759e-05 -0.0204422 6.75716e-10)
(1.09837e-05 -0.0204422 1.76556e-09)
(9.95889e-06 -0.0204878 6.62134e-10)
(9.96593e-06 -0.0204878 1.6991e-09)
(9.03355e-05 -0.0584974 1.42307e-08)
(9.0431e-05 -0.0584974 0.927927)
(8.18751e-05 -0.0586203 1.30539e-08)
(8.1962e-05 -0.0586203 0.928204)
(1.10425e-05 -0.0204422 -8.88069e-09)
(1.12975e-05 -0.0204421 0.9157)
(1.00194e-05 -0.0204878 -7.89156e-09)
(1.0251e-05 -0.0204878 0.91597)
(0.000109266 -0.0582173 -0.926885)
(0.000109151 -0.0582172 -1.69755e-08)
(9.95221e-05 -0.0583633 -0.927166)
(9.94175e-05 -0.0583632 -1.53867e-08)
(1.36155e-05 -0.0203381 -0.914683)
(1.33088e-05 -0.0203381 1.09759e-08)
(1.24169e-05 -0.0203923 -0.914958)
(1.21369e-05 -0.0203923 1.01724e-08)
(0.000109132 -0.0582173 1.2264e-09)
(0.000109136 -0.0582173 8.22847e-10)
(9.94004e-05 -0.0583633 1.09952e-09)
(9.94032e-05 -0.0583633 7.40076e-10)
(1.32381e-05 -0.0203381 -1.64251e-09)
(1.32287e-05 -0.0203381 -3.69636e-10)
(1.20723e-05 -0.0203923 -1.52734e-09)
(1.20638e-05 -0.0203924 -3.56149e-10)
(0.000109137 -0.0582173 3.63987e-10)
(0.000109137 -0.0582173 -9.3707e-12)
(9.9405e-05 -0.0583633 3.35022e-10)
(9.9405e-05 -0.0583633 6.61401e-12)
(1.32281e-05 -0.0203382 1.90503e-10)
(1.32281e-05 -0.0203382 1.6087e-10)
(1.20632e-05 -0.0203924 1.72627e-10)
(1.20632e-05 -0.0203924 1.59187e-10)
(0.000109135 -0.0582173 -4.7446e-10)
(0.000109132 -0.0582173 -9.13588e-10)
(9.94031e-05 -0.0583633 -3.99295e-10)
(9.94003e-05 -0.0583633 -7.65338e-10)
(1.32287e-05 -0.0203381 7.20173e-10)
(1.32381e-05 -0.0203381 1.98471e-09)
(1.20638e-05 -0.0203924 6.93059e-10)
(1.20723e-05 -0.0203923 1.88914e-09)
(0.000109151 -0.0582172 1.6952e-08)
(0.000109265 -0.0582173 0.926885)
(9.94175e-05 -0.0583633 1.55953e-08)
(9.9522e-05 -0.0583633 0.927166)
(1.33088e-05 -0.0203381 -1.08194e-08)
(1.36153e-05 -0.0203381 0.914683)
(1.21368e-05 -0.0203923 -9.71871e-09)
(1.24167e-05 -0.0203923 0.914958)
(0.000130891 -0.0578866 -0.92579)
(0.000130755 -0.0578866 -2.00611e-08)
(0.000119713 -0.0580586 -0.926095)
(0.000119589 -0.0580585 -1.82736e-08)
(1.62642e-05 -0.0202154 -0.913615)
(1.58988e-05 -0.0202155 1.31866e-08)
(1.48958e-05 -0.0202792 -0.913913)
(1.45607e-05 -0.0202792 1.22525e-08)
(0.000130733 -0.0578866 1.53654e-09)
(0.000130736 -0.0578866 1.0081e-09)
(0.000119568 -0.0580586 1.39104e-09)
(0.000119571 -0.0580586 9.12315e-10)
(1.58145e-05 -0.0202155 -1.88283e-09)
(1.58034e-05 -0.0202155 -4.13638e-10)
(1.44834e-05 -0.0202792 -1.75489e-09)
(1.44732e-05 -0.0202793 -3.97596e-10)
(0.000130739 -0.0578867 4.23023e-10)
(0.000130739 -0.0578867 -4.77972e-11)
(0.000119574 -0.0580586 3.89351e-10)
(0.000119574 -0.0580586 -3.25997e-11)
(1.58026e-05 -0.0202155 2.16851e-10)
(1.58026e-05 -0.0202155 1.54261e-10)
(1.44725e-05 -0.0202793 1.95629e-10)
(1.44725e-05 -0.0202793 1.49957e-10)
(0.000130736 -0.0578866 -6.34845e-10)
(0.000130733 -0.0578866 -1.20253e-09)
(0.000119571 -0.0580586 -5.54887e-10)
(0.000119568 -0.0580586 -1.03917e-09)
(1.58034e-05 -0.0202155 7.86904e-10)
(1.58145e-05 -0.0202155 2.24907e-09)
(1.44732e-05 -0.0202793 7.53706e-10)
(1.44834e-05 -0.0202793 2.13627e-09)
(0.000130755 -0.0578866 2.00362e-08)
(0.000130891 -0.0578866 0.92579)
(0.000119588 -0.0580586 1.84981e-08)
(0.000119713 -0.0580586 0.926095)
(1.58988e-05 -0.0202155 -1.30235e-08)
(1.6264e-05 -0.0202154 0.913615)
(1.45606e-05 -0.0202792 -1.1786e-08)
(1.48955e-05 -0.0202792 0.913913)
(0.000155617 -0.0574996 -0.92469)
(0.000155457 -0.0574996 -2.35063e-08)
(0.000142849 -0.0577005 -0.924974)
(0.000142702 -0.0577005 -2.15352e-08)
(1.9278e-05 -0.0200719 -0.912542)
(1.8846e-05 -0.020072 1.57357e-08)
(1.77224e-05 -0.0201464 -0.91282)
(1.73247e-05 -0.0201464 1.46375e-08)
(0.000155431 -0.0574996 1.90189e-09)
(0.000155435 -0.0574996 1.2169e-09)
(0.000142678 -0.0577005 1.72394e-09)
(0.000142681 -0.0577005 1.10969e-09)
(1.87464e-05 -0.020072 -2.1396e-09)
(1.87332e-05 -0.020072 -4.60714e-10)
(1.72331e-05 -0.0201465 -2.00595e-09)
(1.72209e-05 -0.0201465 -4.42176e-10)
(0.000155438 -0.0574996 4.8972e-10)
(0.000155438 -0.0574996 -9.29331e-11)
(0.000142684 -0.0577006 4.5374e-10)
(0.000142684 -0.0577006 -7.25686e-11)
(1.87323e-05 -0.020072 2.47017e-10)
(1.87323e-05 -0.020072 1.46886e-10)
(1.72201e-05 -0.0201465 2.26422e-10)
(1.72201e-05 -0.0201465 1.46105e-10)
(0.000155435 -0.0574996 -8.21345e-10)
(0.000155431 -0.0574996 -1.54519e-09)
(0.000142681 -0.0577006 -7.25927e-10)
(0.000142678 -0.0577005 -1.35126e-09)
(1.87332e-05 -0.020072 8.56249e-10)
(1.87464e-05 -0.020072 2.5283e-09)
(1.7221e-05 -0.0201465 8.24974e-10)
(1.72331e-05 -0.0201465 2.41076e-09)
(0.000155457 -0.0574996 2.34854e-08)
(0.000155617 -0.0574996 0.92469)
(0.000142702 -0.0577005 2.1764e-08)
(0.000142849 -0.0577006 0.924974)
(1.8846e-05 -0.020072 -1.55686e-08)
(1.92778e-05 -0.0200719 0.912542)
(1.73247e-05 -0.0201464 -1.41513e-08)
(1.77222e-05 -0.0201464 0.91282)
(0.000183744 -0.0570496 -0.923521)
(0.000183557 -0.0570496 -2.73391e-08)
(0.000169243 -0.0572828 -0.923834)
(0.00016907 -0.0572828 -2.51553e-08)
(2.26871e-05 -0.0199052 -0.911403)
(2.21801e-05 -0.0199053 1.86507e-08)
(2.09306e-05 -0.0199916 -0.911708)
(2.04621e-05 -0.0199916 1.73809e-08)
(0.000183527 -0.0570496 2.31765e-09)
(0.000183532 -0.0570496 1.44616e-09)
(0.000169042 -0.0572828 2.11672e-09)
(0.000169047 -0.0572828 1.33138e-09)
(2.20632e-05 -0.0199053 -2.42579e-09)
(2.20477e-05 -0.0199053 -5.20675e-10)
(2.03542e-05 -0.0199916 -2.27425e-09)
(2.03399e-05 -0.0199916 -4.9116e-10)
(0.000183535 -0.0570496 5.60721e-10)
(0.000183535 -0.0570496 -1.44931e-10)
(0.00016905 -0.0572828 5.24508e-10)
(0.00016905 -0.0572828 -1.23242e-10)
(2.20467e-05 -0.0199053 2.75945e-10)
(2.20466e-05 -0.0199053 1.36618e-10)
(2.03389e-05 -0.0199916 2.57413e-10)
(2.03389e-05 -0.0199916 1.34035e-10)
(0.000183532 -0.0570496 -1.03893e-09)
(0.000183527 -0.0570496 -1.95042e-09)
(0.000169047 -0.0572828 -9.33752e-10)
(0.000169042 -0.0572828 -1.72994e-09)
(2.20477e-05 -0.0199053 9.28189e-10)
(2.20632e-05 -0.0199053 2.82544e-09)
(2.03399e-05 -0.0199916 8.88889e-10)
(2.03542e-05 -0.0199916 2.69384e-09)
(0.000183557 -0.0570496 2.7329e-08)
(0.000183744 -0.0570496 0.923521)
(0.00016907 -0.0572828 2.54021e-08)
(0.000169243 -0.0572828 0.923834)
(2.21801e-05 -0.0199053 -1.84766e-08)
(2.2687e-05 -0.0199052 0.911403)
(2.04621e-05 -0.0199916 -1.68745e-08)
(2.09303e-05 -0.0199916 0.911708)
(0.000215528 -0.0565301 -0.922332)
(0.000215312 -0.0565301 -3.16382e-08)
(0.000199167 -0.056799 -0.922635)
(0.000198965 -0.0567989 -2.92121e-08)
(2.65163e-05 -0.019713 -0.910243)
(2.59252e-05 -0.019713 2.19015e-08)
(2.45464e-05 -0.0198124 -0.910539)
(2.39985e-05 -0.0198125 2.04607e-08)
(0.000215276 -0.0565301 2.75781e-09)
(0.000215282 -0.0565301 1.68159e-09)
(0.000198933 -0.0567989 2.53975e-09)
(0.000198938 -0.056799 1.56047e-09)
(2.5789e-05 -0.019713 -2.77183e-09)
(2.57709e-05 -0.019713 -6.11758e-10)
(2.38722e-05 -0.0198125 -2.59202e-09)
(2.38555e-05 -0.0198125 -5.66167e-10)
(0.000215286 -0.0565301 6.23751e-10)
(0.000215286 -0.0565301 -2.00249e-10)
(0.000198941 -0.056799 5.9237e-10)
(0.000198941 -0.056799 -1.74489e-10)
(2.57696e-05 -0.019713 2.94815e-10)
(2.57696e-05 -0.019713 1.30761e-10)
(2.38543e-05 -0.0198125 2.83302e-10)
(2.38543e-05 -0.0198125 1.26953e-10)
(0.000215282 -0.0565301 -1.25761e-09)
(0.000215276 -0.0565301 -2.37101e-09)
(0.000198938 -0.056799 -1.14962e-09)
(0.000198933 -0.0567989 -2.14418e-09)
(2.57709e-05 -0.019713 1.03215e-09)
(2.5789e-05 -0.019713 3.18111e-09)
(2.38555e-05 -0.0198125 9.74173e-10)
(2.38722e-05 -0.0198125 3.01658e-09)
(0.000215312 -0.0565301 3.16396e-08)
(0.000215528 -0.0565301 0.922332)
(0.000198965 -0.0567989 2.94708e-08)
(0.000199167 -0.056799 0.922635)
(2.59252e-05 -0.019713 -2.17222e-08)
(2.65161e-05 -0.019713 0.910243)
(2.39984e-05 -0.0198125 -1.9949e-08)
(2.45462e-05 -0.0198124 0.910539)
(0.000251201 -0.055934 -0.921089)
(0.000250952 -0.0559339 -3.63851e-08)
(0.000232872 -0.056242 -0.921416)
(0.000232639 -0.0562419 -3.37457e-08)
(3.07846e-05 -0.0194926 -0.909031)
(3.01002e-05 -0.0194926 2.5517e-08)
(2.85933e-05 -0.0196064 -0.90935)
(2.79567e-05 -0.0196064 2.38884e-08)
(0.000250911 -0.0559339 3.25874e-09)
(0.000250918 -0.055934 1.94867e-09)
(0.000232602 -0.0562419 2.99926e-09)
(0.000232608 -0.056242 1.80741e-09)
(2.99425e-05 -0.0194926 -3.14749e-09)
(2.99215e-05 -0.0194926 -7.09678e-10)
(2.781e-05 -0.0196065 -2.9604e-09)
(2.77905e-05 -0.0196065 -6.64689e-10)
(0.000250922 -0.055934 6.94852e-10)
(0.000250922 -0.055934 -2.68687e-10)
(0.000232611 -0.056242 6.5818e-10)
(0.000232611 -0.056242 -2.32242e-10)
(2.992e-05 -0.0194926 3.1087e-10)
(2.992e-05 -0.0194926 1.12011e-10)
(2.77891e-05 -0.0196065 3.02904e-10)
(2.77891e-05 -0.0196065 1.19348e-10)
(0.000250918 -0.055934 -1.5176e-09)
(0.000250911 -0.0559339 -2.86421e-09)
(0.000232608 -0.056242 -1.38293e-09)
(0.000232602 -0.056242 -2.59754e-09)
(2.99215e-05 -0.0194926 1.12764e-09)
(2.99424e-05 -0.0194926 3.55622e-09)
(2.77905e-05 -0.0196065 1.07686e-09)
(2.781e-05 -0.0196065 3.38532e-09)
(0.000250952 -0.0559339 3.64014e-08)
(0.000251201 -0.055934 0.921089)
(0.000232639 -0.0562419 3.40025e-08)
(0.000232872 -0.056242 0.921416)
(3.01001e-05 -0.0194926 -2.5337e-08)
(3.07845e-05 -0.0194926 0.909031)
(2.79566e-05 -0.0196064 -2.33786e-08)
(2.85931e-05 -0.0196064 0.90935)
(0.000290936 -0.0552541 -0.919823)
(0.00029065 -0.0552541 -4.1583e-08)
(0.000270556 -0.0556049 -0.920159)
(0.000270289 -0.0556048 -3.87347e-08)
(3.55029e-05 -0.0192415 -0.907796)
(3.47155e-05 -0.0192416 2.94995e-08)
(3.30854e-05 -0.019371 -0.908124)
(3.23506e-05 -0.0193711 2.76709e-08)
(0.000290604 -0.0552541 3.81432e-09)
(0.000290611 -0.0552541 2.23249e-09)
(0.000270246 -0.0556048 3.52527e-09)
(0.000270253 -0.0556049 2.08431e-09)
(3.45341e-05 -0.0192416 -3.56245e-09)
(3.45099e-05 -0.0192416 -8.18164e-10)
(3.21813e-05 -0.0193711 -3.36212e-09)
(3.21588e-05 -0.0193711 -7.67655e-10)
(0.000290616 -0.0552541 7.6604e-10)
(0.000290616 -0.0552541 -3.59748e-10)
(0.000270257 -0.0556049 7.30413e-10)
(0.000270257 -0.0556049 -3.13219e-10)
(3.45082e-05 -0.0192416 3.22651e-10)
(3.45081e-05 -0.0192416 7.47209e-11)
(3.21572e-05 -0.0193711 3.16475e-10)
(3.21572e-05 -0.0193711 8.59533e-11)
(0.000290611 -0.0552541 -1.82887e-09)
(0.000290604 -0.0552541 -3.42871e-09)
(0.000270253 -0.0556049 -1.67427e-09)
(0.000270246 -0.0556049 -3.13272e-09)
(3.45099e-05 -0.0192416 1.20925e-09)
(3.4534e-05 -0.0192416 3.94899e-09)
(3.21588e-05 -0.0193711 1.15679e-09)
(3.21813e-05 -0.0193711 3.7622e-09)
(0.00029065 -0.0552541 4.16306e-08)
(0.000290936 -0.0552541 0.919823)
(0.000270289 -0.0556048 3.89922e-08)
(0.000270556 -0.0556049 0.920159)
(3.47154e-05 -0.0192416 -2.9325e-08)
(3.55027e-05 -0.0192415 0.907796)
(3.23506e-05 -0.0193711 -2.71859e-08)
(3.30852e-05 -0.019371 0.908124)
(0.000334829 -0.0544837 -0.918496)
(0.000334504 -0.0544836 -4.72535e-08)
(0.000312364 -0.0548805 -0.918842)
(0.000312059 -0.0548805 -4.41971e-08)
(4.067e-05 -0.0189575 -0.906502)
(3.97702e-05 -0.0189575 3.38542e-08)
(3.80285e-05 -0.0191038 -0.90684)
(3.7186e-05 -0.0191038 3.18137e-08)
(0.000334452 -0.0544836 4.39852e-09)
(0.00033446 -0.0544836 2.54142e-09)
(0.00031201 -0.0548805 4.08879e-09)
(0.000312018 -0.0548805 2.37712e-09)
(3.95629e-05 -0.0189575 -4.01921e-09)
(3.95352e-05 -0.0189576 -9.496e-10)
(3.69919e-05 -0.0191038 -3.80321e-09)
(3.6966e-05 -0.0191038 -8.92976e-10)
(0.000334465 -0.0544836 8.28884e-10)
(0.000334465 -0.0544836 -4.70177e-10)
(0.000312023 -0.0548805 7.90524e-10)
(0.000312023 -0.0548805 -4.2228e-10)
(3.95332e-05 -0.0189576 3.18857e-10)
(3.95332e-05 -0.0189576 2.78979e-11)
(3.69642e-05 -0.0191038 3.12304e-10)
(3.69642e-05 -0.0191038 3.74885e-11)
(0.00033446 -0.0544836 -2.16043e-09)
(0.000334452 -0.0544836 -4.02708e-09)
(0.000312018 -0.0548805 -2.00427e-09)
(0.00031201 -0.0548805 -3.73051e-09)
(3.95352e-05 -0.0189576 1.30959e-09)
(3.95629e-05 -0.0189575 4.38913e-09)
(3.6966e-05 -0.0191038 1.24722e-09)
(3.69919e-05 -0.0191038 4.1784e-09)
(0.000334504 -0.0544836 4.73275e-08)
(0.000334829 -0.0544837 0.918496)
(0.00031206 -0.0548805 4.44379e-08)
(0.000312364 -0.0548806 0.918842)
(3.97701e-05 -0.0189575 -3.36845e-08)
(4.06699e-05 -0.0189575 0.906502)
(3.71859e-05 -0.0191038 -3.13805e-08)
(3.80283e-05 -0.0191038 0.90684)
(0.000382911 -0.0536158 -0.917141)
(0.000382545 -0.0536157 -5.33953e-08)
(0.000358353 -0.0540622 -0.917504)
(0.000358007 -0.0540622 -5.00984e-08)
(4.62765e-05 -0.018638 -0.905181)
(4.52548e-05 -0.0186381 3.85683e-08)
(4.34171e-05 -0.0188023 -0.905535)
(4.24574e-05 -0.0188023 3.63415e-08)
(0.000382485 -0.0536157 5.03918e-09)
(0.000382494 -0.0536158 2.87336e-09)
(0.000357952 -0.0540622 4.70509e-09)
(0.00035796 -0.0540622 2.68502e-09)
(4.50195e-05 -0.0186381 -4.50178e-09)
(4.49881e-05 -0.0186381 -1.07529e-09)
(4.22363e-05 -0.0188024 -4.27224e-09)
(4.22069e-05 -0.0188024 -1.02432e-09)
(0.0003825 -0.0536158 9.27941e-10)
(0.0003825 -0.0536158 -5.27463e-10)
(0.000357966 -0.0540622 8.6074e-10)
(0.000357966 -0.0540622 -5.1506e-10)
(4.49858e-05 -0.0186381 3.54668e-10)
(4.49858e-05 -0.0186381 3.98158e-11)
(4.22047e-05 -0.0188024 3.24153e-10)
(4.22047e-05 -0.0188024 2.08468e-11)
(0.000382494 -0.0536158 -2.45888e-09)
(0.000382485 -0.0536157 -4.64263e-09)
(0.00035796 -0.0540622 -2.31808e-09)
(0.000357951 -0.0540622 -4.3305e-09)
(4.49881e-05 -0.0186381 1.47776e-09)
(4.50195e-05 -0.0186381 4.89949e-09)
(4.22069e-05 -0.0188024 1.38295e-09)
(4.22363e-05 -0.0188024 4.64662e-09)
(0.000382545 -0.0536157 5.34749e-08)
(0.000382911 -0.0536158 0.917141)
(0.000358007 -0.0540622 5.03561e-08)
(0.000358353 -0.0540622 0.917504)
(4.52548e-05 -0.0186381 -3.83972e-08)
(4.62764e-05 -0.018638 0.905181)
(4.24574e-05 -0.0188023 -3.59375e-08)
(4.34169e-05 -0.0188023 0.905535)
(0.000435101 -0.0526444 -0.915735)
(0.00043469 -0.0526443 -5.99466e-08)
(0.000408505 -0.0531433 -0.9161)
(0.000408116 -0.0531432 -5.64337e-08)
(5.22963e-05 -0.0182811 -0.903809)
(5.11442e-05 -0.0182811 4.36349e-08)
(4.92335e-05 -0.0184643 -0.904165)
(4.81476e-05 -0.0184644 4.12496e-08)
(0.000434623 -0.0526443 5.73835e-09)
(0.000434633 -0.0526443 3.24742e-09)
(0.000408053 -0.0531433 5.37949e-09)
(0.000408063 -0.0531433 3.04424e-09)
(5.08789e-05 -0.0182812 -5.00389e-09)
(5.08434e-05 -0.0182812 -1.19478e-09)
(4.78975e-05 -0.0184644 -4.761e-09)
(4.78642e-05 -0.0184644 -1.13977e-09)
(0.00043464 -0.0526443 1.06162e-09)
(0.00043464 -0.0526443 -5.56791e-10)
(0.000408069 -0.0531433 9.91055e-10)
(0.000408069 -0.0531433 -5.3617e-10)
(5.08408e-05 -0.0182812 4.1759e-10)
(5.08408e-05 -0.0182812 8.31777e-11)
(4.78617e-05 -0.0184644 3.86661e-10)
(4.78617e-05 -0.0184644 6.59882e-11)
(0.000434633 -0.0526443 -2.75812e-09)
(0.000434623 -0.0526443 -5.31305e-09)
(0.000408063 -0.0531433 -2.59336e-09)
(0.000408053 -0.0531433 -4.94913e-09)
(5.08434e-05 -0.0182812 1.67621e-09)
(5.08789e-05 -0.0182812 5.44771e-09)
(4.78642e-05 -0.0184644 1.58361e-09)
(4.78976e-05 -0.0184644 5.20234e-09)
(0.00043469 -0.0526443 6.00262e-08)
(0.000435101 -0.0526444 0.915735)
(0.000408116 -0.0531433 5.67323e-08)
(0.000408505 -0.0531433 0.9161)
(5.11442e-05 -0.0182811 -4.34562e-08)
(5.22962e-05 -0.0182811 0.903809)
(4.81476e-05 -0.0184644 -4.07814e-08)
(4.92334e-05 -0.0184643 0.904165)
(0.000491222 -0.0515638 -0.914279)
(0.000490764 -0.0515637 -6.67183e-08)
(0.00046269 -0.0521179 -0.914657)
(0.000462255 -0.0521179 -6.31426e-08)