/*--------------------------------*- C++ -*----------------------------------*\
  =========                 |
  \\      /  F ield         | OpenFOAM: The Open Source CFD Toolbox
   \\    /   O peration     | Website:  https://openfoam.org
    \\  /    A nd           | Version:  9
     \\/     M anipulation  |
\*---------------------------------------------------------------------------*/
FoamFile
{
    format      ascii;
    class       volScalarField;
    location    "3";
    object      epsilon;
}
// * * * * * * * * * * * * * * * * * * * * * * * * * * * * * * * * * * * * * //

dimensions      [0 2 -3 0 0 0 0];

internalField   nonuniform List<scalar> 
36360
(
0.317409
0.250459
0.140876
0.122794
0.121934
0.0895486
0.020144
0.0193601
0.0810074
0.0193792
0.0227858
0.00634951
0.0216696
0.00599893
0.00717571
0.00478931
0.00511511
0.00511821
0.00410389
0.00410418
0.0031648
0.00316564
0.0049233
0.00492321
0.0193901
0.0810215
0.00635266
0.0227994
0.00600343
0.0216855
0.00478986
0.00717937
0.250482
0.317449
0.122821
0.14091
0.0895805
0.121963
0.0193719
0.0201491
0.541759
0.428244
0.445967
0.35046
0.372146
0.262131
0.255852
0.177169
0.189832
0.0829446
0.138385
0.049143
0.116619
0.0441368
0.0646641
0.0159316
0.0415939
0.0416006
0.0162135
0.0162211
0.017434
0.0174454
0.00503908
0.00504308
0.0829553
0.189837
0.0491568
0.138395
0.0441703
0.116654
0.0159486
0.0646979
0.428249
0.541784
0.350475
0.446001
0.262157
0.372154
0.177204
0.255877
0.680905
0.546738
0.617709
0.492209
0.556768
0.409713
0.470585
0.339234
0.277694
0.151217
0.235986
0.117611
0.221817
0.124995
0.169738
0.0828271
0.101138
0.101138
0.0712092
0.0712129
0.0867428
0.0867536
0.0487656
0.0487791
0.151213
0.277677
0.117615
0.235981
0.125018
0.221831
0.0828576
0.169767
0.546715
0.680904
0.492201
0.617722
0.409695
0.556711
0.339242
0.470565
0.782002
0.63595
0.734972
0.59419
0.703309
0.533633
0.633761
0.474315
0.349404
0.211786
0.315413
0.182773
0.318351
0.207
0.271564
0.166913
0.156438
0.156432
0.129811
0.129809
0.16275
0.162753
0.125489
0.125497
0.211763
0.349357
0.182761
0.315381
0.207001
0.318324
0.166926
0.27156
0.635889
0.781967
0.594149
0.734954
0.533544
0.703156
0.474264
0.633658
0.85897
0.704956
0.823082
0.672705
0.821762
0.636182
0.765811
0.587522
0.406827
0.261622
0.379836
0.238094
0.400963
0.278599
0.361541
0.244331
0.202551
0.202537
0.18073
0.180721
0.229466
0.229461
0.19751
0.197509
0.261578
0.406746
0.23806
0.379771
0.278572
0.400883
0.244319
0.361489
0.704853
0.858895
0.672623
0.823026
0.636007
0.821494
0.587391
0.765601
0.916829
0.757298
0.890078
0.733047
0.91454
0.717574
0.871154
0.679407
0.451216
0.300673
0.430578
0.28247
0.467677
0.336933
0.436292
0.309442
0.238934
0.238913
0.221951
0.221934
0.283977
0.283963
0.258267
0.258256
0.300607
0.451099
0.282415
0.430479
0.336875
0.46754
0.309399
0.436184
0.757152
0.916716
0.732921
0.889983
0.717308
0.914153
0.679187
0.870824
0.958672
0.795507
0.93957
0.778027
0.984079
0.779056
0.951951
0.7506
0.484073
0.329842
0.469004
0.31644
0.518625
0.381734
0.495001
0.360934
0.266238
0.266211
0.25368
0.253656
0.325951
0.325926
0.306449
0.30643
0.329756
0.483925
0.316364
0.468871
0.381647
0.518435
0.360861
0.494837
0.795323
0.958526
0.777861
0.93944
0.778705
0.983579
0.750291
0.951504
0.987545
0.822071
0.974569
0.810113
1.03358
0.823053
1.01103
0.802983
0.507194
0.350519
0.496765
0.341179
0.555362
0.414165
0.538584
0.399339
0.285666
0.285633
0.276882
0.276852
0.356397
0.356365
0.342468
0.34244
0.350417
0.507019
0.341084
0.496603
0.414052
0.555124
0.399238
0.538369
0.821854
0.98737
0.809911
0.974407
0.822628
1.03299
0.802593
1.01048
1.00622
0.839412
0.998018
0.831777
1.06668
0.852592
1.05186
0.839344
0.522486
0.364297
0.515739
0.358208
0.580188
0.436153
0.569046
0.426274
0.298661
0.298624
0.292913
0.292878
0.377081
0.377042
0.36778
0.367745
0.364182
0.52229
0.358099
0.515553
0.43602
0.579913
0.426151
0.568788
0.839169
1.00602
0.831545
0.997831
0.852107
1.066
0.838887
1.05122
1.01722
0.849771
1.01257
0.845374
1.0871
0.870895
1.07817
0.862871
0.531809
0.372789
0.527833
0.369156
0.595698
0.449943
0.58889
0.44388
0.306711
0.306671
0.303261
0.303222
0.39008
0.390036
0.384357
0.384316
0.372664
0.531598
0.369035
0.527628
0.449795
0.595394
0.443739
0.588599
0.84951
1.017
0.845121
1.01237
0.870367
1.08637
0.862362
1.07746
1.02263
0.855058
1.02055
0.852984
1.09821
0.880906
1.09354
0.876683
0.536789
0.377428
0.534804
0.375562
0.604322
0.457669
0.600671
0.454386
0.311154
0.311111
0.309358
0.309317
0.397389
0.397343
0.394274
0.394229
0.377297
0.536567
0.375433
0.534586
0.457511
0.604
0.454232
0.600358
0.854785
1.02241
0.852716
1.02033
0.880349
1.09744
0.876138
1.09278
1.02413
0.856794
1.02384
0.856342
1.10274
0.885077
1.10107
0.883508
0.538739
0.379387
0.538132
0.378737
0.608104
0.461142
0.60665
0.459785
0.313089
0.313045
0.312431
0.312387
0.400715
0.400667
0.399403
0.399355
0.379252
0.538511
0.378603
0.537906
0.460977
0.607771
0.459623
0.606322
0.856514
1.0239
0.856065
1.02361
0.884503
1.10195
0.882941
1.10028
1.02309
0.856226
1.02391
0.856777
1.10287
0.885307
1.1031
0.885464
0.538693
0.379569
0.538958
0.379703
0.60861
0.461734
0.608616
0.461675
0.313359
0.313315
0.31344
0.313396
0.401341
0.401292
0.401252
0.401203
0.379433
0.538463
0.379567
0.538729
0.461568
0.608274
0.46151
0.608281
0.855944
1.02286
0.856495
1.02368
0.884725
1.10207
0.884885
1.1023
1.02023
0.854054
1.02189
0.855356
1.10008
0.882993
1.10174
0.884387
0.537321
0.378609
0.538211
0.379275
0.60707
0.460566
0.608061
0.461347
0.312577
0.312533
0.313142
0.313098
0.40033
0.400281
0.401017
0.400968
0.378473
0.53709
0.379138
0.53798
0.460399
0.606732
0.46118
0.607723
0.853772
1.02
0.855073
1.02166
0.88241
1.09928
0.883804
1.10093
1.01615
0.850818
1.01837
0.852596
1.09531
0.878913
1.0978
0.881037
0.535059
0.376868
0.536341
0.377875
0.604077
0.458125
0.605649
0.459406
0.311065
0.311021
0.311949
0.311905
0.398128
0.398079
0.39928
0.399231
0.376732
0.534829
0.377739
0.536111
0.457959
0.603741
0.459239
0.605312
0.850538
1.01593
0.852314
1.01814
0.878333
1.09451
0.880455
1.097
1.01122
0.846856
1.01384
0.84897
1.08922
0.873684
1.09232
0.876335
0.532208
0.374627
0.53376
0.375863
0.600166
0.454899
0.602159
0.456539
0.309094
0.309051
0.310188
0.310144
0.395201
0.395153
0.396685
0.396637
0.374492
0.531982
0.375728
0.533532
0.454736
0.599834
0.456375
0.601825
0.84658
1.011
0.848691
1.01361
0.87311
1.08842
0.875758
1.09152
1.00563
0.842342
1.00856
0.844718
1.08214
0.867601
1.0857
0.870654
0.528922
0.37202
0.53068
0.373428
0.595586
0.451104
0.597892
0.45301
0.306791
0.306749
0.308041
0.307998
0.391748
0.3917
0.393478
0.39343
0.371888
0.528699
0.373294
0.530455
0.450944
0.595259
0.452848
0.597563
0.842071
1.00541
0.844443
1.00834
0.867036
1.08136
0.870084
1.08491
0.99945
0.837362
1.00266
0.839964
1.07425
0.860822
1.0782
0.864212
0.525279
0.369119
0.527209
0.370668
0.590465
0.446854
0.593031
0.448979
0.304223
0.304181
0.3056
0.305557
0.387875
0.387829
0.389806
0.38976
0.368989
0.52506
0.370537
0.526988
0.446696
0.590145
0.44882
0.592708
0.837095
0.999239
0.839695
1.00245
0.860267
1.07348
0.863651
1.07743
0.992729
0.831953
0.996211
0.834765
1.06562
0.853421
1.06994
0.857116
0.521315
0.365958
0.523402
0.367635
0.58487
0.442205
0.587669
0.444525
0.301421
0.301379
0.302912
0.30287
0.383637
0.383592
0.385748
0.385702
0.36583
0.5211
0.367506
0.523185
0.442051
0.584556
0.44437
0.587353
0.831692
0.992524
0.834501
0.996003
0.852876
1.06487
0.856566
1.06918
0.985486
0.826137
0.98923
0.829153
1.05631
0.84543
1.06097
0.84942
0.517046
0.36255
0.519286
0.36435
0.578826
0.43718
0.581849
0.439688
0.298398
0.298358
0.299999
0.299958
0.379055
0.379011
0.381337
0.381293
0.362425
0.516836
0.364223
0.519073
0.43703
0.57852
0.439536
0.581539
0.825882
0.985286
0.828895
0.989027
0.844897
1.05557
0.848881
1.06022
0.977716
0.819914
0.981724
0.823133
1.04632
0.83686
1.05132
0.841139
0.512477
0.358901
0.514867
0.360821
0.572344
0.431789
0.575587
0.43448
0.295161
0.295122
0.296869
0.296829
0.374137
0.374094
0.376588
0.376544
0.358779
0.512272
0.360698
0.514659
0.431643
0.572046
0.434333
0.575285
0.819665
0.977523
0.822881
0.981527
0.836339
1.04559
0.840613
1.05059
0.969421
0.813285
0.973692
0.816708
1.03565
0.827714
1.04099
0.832284
0.50761
0.355013
0.510149
0.357053
0.565428
0.426034
0.568889
0.428908
0.291711
0.291672
0.293525
0.293486
0.368887
0.368845
0.371504
0.371462
0.354894
0.507409
0.356932
0.509946
0.425893
0.565137
0.428765
0.568594
0.813043
0.969235
0.816462
0.973502
0.827207
1.03494
0.83177
1.04027
0.960603
0.806251
0.965135
0.809876
1.0243
0.817994
1.02998
0.822852
0.502444
0.350885
0.505132
0.353044
0.558079
0.41992
0.561757
0.422975
0.288048
0.28801
0.289968
0.28993
0.363307
0.363267
0.36609
0.36605
0.350769
0.502249
0.352927
0.504934
0.419783
0.557797
0.422836
0.561471
0.806016
0.960423
0.809637
0.964951
0.817499
1.02361
0.822351
1.02928
0.951267
0.798818
0.956057
0.802641
1.0123
0.807707
1.01831
0.812848
0.496984
0.346522
0.499819
0.348799
0.550305
0.413451
0.554196
0.416684
0.284175
0.284139
0.2862
0.286163
0.357404
0.357365
0.360349
0.36031
0.34641
0.496794
0.348684
0.499626
0.413319
0.550032
0.416549
0.553919
0.79859
0.951093
0.802409
0.955879
0.807227
1.01163
0.812361
1.01763
0.941428
0.790996
0.946466
0.795012
0.999645
0.796869
1.00598
0.802286
0.491237
0.341929
0.494214
0.344319
0.542117
0.406637
0.546215
0.410042
0.280098
0.280063
0.282224
0.282188
0.351185
0.351149
0.354288
0.354251
0.34182
0.491053
0.344208
0.494027
0.40651
0.541853
0.409913
0.545947
0.790775
0.941261
0.794787
0.946295
0.796403
0.998994
0.801813
1.00532
0.931107
0.782798
0.936383
0.786999
0.98637
0.785489
0.993015
0.791178
0.485211
0.337112
0.488326
0.339613
0.533525
0.399488
0.537825
0.40306
0.275822
0.275788
0.278046
0.278011
0.344662
0.344627
0.347917
0.347882
0.337006
0.485032
0.339505
0.488145
0.399366
0.53327
0.402936
0.537566
0.782585
0.930948
0.786782
0.93622
0.785038
0.985739
0.790719
0.992372
0.920328
0.774239
0.92583
0.778619
0.972494
0.773581
0.979439
0.779534
0.478915
0.332077
0.482164
0.334686
0.524542
0.392015
0.529038
0.39575
0.271352
0.271319
0.273672
0.273639
0.337845
0.337812
0.341248
0.341213
0.331975
0.478743
0.334582
0.481988
0.391899
0.524297
0.395631
0.528788
0.774034
0.920176
0.778409
0.925674
0.773146
0.971884
0.779091
0.978816
0.909107
0.765325
0.914828
0.769882
0.958039
0.761185
0.965273
0.767374
0.472353
0.326828
0.475735
0.329544
0.51518
0.384225
0.519865
0.38812
0.266691
0.266659
0.269107
0.269074
0.330738
0.330706
0.334287
0.334254
0.32673
0.472187
0.329443
0.475565
0.384113
0.514945
0.388006
0.519626
0.765128
0.908963
0.769681
0.914679
0.760766
0.95745
0.766947
0.964671
0.897459
0.756049
0.903391
0.760786
0.942999
0.748316
0.950532
0.754754
0.465519
0.321356
0.469037
0.324184
0.505427
0.376104
0.510313
0.380168
0.26183
0.2618
0.264347
0.264316
0.323331
0.323301
0.327034
0.327003
0.321261
0.465359
0.324088
0.468874
0.375998
0.505202
0.38006
0.510084
0.75586
0.897322
0.760593
0.90325
0.747914
0.942432
0.754343
0.949952
0.885382
0.746404
0.891529
0.751327
0.927323
0.734885
0.935184
0.741615
0.458391
0.315639
0.462059
0.318593
0.495236
0.367616
0.50035
0.371872
0.256747
0.256718
0.259378
0.259348
0.31559
0.315562
0.319467
0.319438
0.315549
0.458238
0.3185
0.461903
0.367516
0.495022
0.371769
0.500131
0.746223
0.885252
0.751142
0.891395
0.7345
0.92678
0.741222
0.934627
0.872842
0.736347
0.879226
0.741483
0.910919
0.720806
0.919162
0.727876
0.450923
0.309633
0.454768
0.312737
0.484531
0.358695
0.489916
0.363179
0.251402
0.251374
0.254169
0.254141
0.307455
0.307428
0.311541
0.311513
0.309547
0.450778
0.312649
0.454618
0.358601
0.484329
0.363083
0.489708
0.736175
0.872721
0.741306
0.8791
0.720439
0.9104
0.7275
0.918628
0.859767
0.725796
0.866429
0.73119
0.893626
0.705941
0.90234
0.713427
0.44304
0.303268
0.447103
0.306562
0.473189
0.349232
0.478913
0.354005
0.245725
0.245699
0.248667
0.24864
0.298822
0.298798
0.303173
0.303148
0.303186
0.442902
0.306478
0.446961
0.349144
0.472999
0.353915
0.478717
0.725633
0.859655
0.731023
0.866312
0.705594
0.893133
0.71307
0.901832
0.846037
0.714625
0.853044
0.720347
0.875202
0.690083
0.884521
0.698099
0.434624
0.296437
0.438969
0.299977
0.46103
0.339069
0.467191
0.344217
0.239617
0.239592
0.242788
0.242763
0.289547
0.289525
0.294243
0.294219
0.29636
0.434494
0.299898
0.438835
0.338988
0.460853
0.344133
0.467007
0.714473
0.845934
0.720189
0.852935
0.689758
0.874738
0.697763
0.88404
0.831472
0.702662
0.838921
0.708802
0.855298
0.672928
0.86541
0.68164
0.425516
0.288994
0.430229
0.292859
0.447806
0.327993
0.454536
0.333629
0.232939
0.232917
0.236414
0.23639
0.27943
0.27941
0.284576
0.284555
0.288922
0.425395
0.292785
0.430103
0.32792
0.447644
0.333552
0.454366
0.702522
0.831379
0.708655
0.838822
0.672626
0.854864
0.681327
0.864958
0.815827
0.689683
0.823848
0.696363
0.833451
0.654114
0.844601
0.663702
0.415503
0.280743
0.420696
0.285039
0.433207
0.315731
0.440669
0.322
0.225508
0.225488
0.229384
0.229363
0.268219
0.268202
0.273949
0.273931
0.280678
0.415392
0.284971
0.42058
0.315667
0.433061
0.321932
0.440515
0.689554
0.815745
0.696228
0.82376
0.653838
0.833052
0.663412
0.844183
0.798812
0.67537
0.807552
0.682757
0.809081
0.633244
0.821574
0.643917
0.404285
0.271408
0.410124
0.276287
0.416831
0.301929
0.425242
0.309021
0.217064
0.217045
0.221483
0.221464
0.255589
0.255575
0.262076
0.26206
0.27135
0.404186
0.276225
0.410018
0.301876
0.416704
0.308963
0.425106
0.675255
0.798742
0.682635
0.807475
0.632998
0.808721
0.643656
0.821193
0.780283
0.659277
0.789765
0.66763
0.781633
0.60985
0.795715
0.621853
0.391313
0.260504
0.39813
0.266248
0.398061
0.286084
0.407773
0.294276
0.207201
0.207186
0.212391
0.212374
0.241134
0.241124
0.248591
0.248579
0.260454
0.391226
0.266194
0.398037
0.286043
0.397956
0.294229
0.407657
0.659178
0.780227
0.667523
0.789702
0.609638
0.781318
0.621624
0.795376
0.761678
0.639441
0.770714
0.650189
0.751866
0.582834
0.766776
0.596932
0.374735
0.246933
0.38377
0.254211
0.375452
0.26742
0.387376
0.277139
0.195272
0.19526
0.201588
0.201574
0.224469
0.224463
0.233065
0.233057
0.246892
0.374662
0.254165
0.38369
0.267392
0.375373
0.277105
0.387284
0.639359
0.761637
0.650098
0.770665
0.582663
0.751604
0.59674
0.766485
0.759645
0.596832
0.756065
0.624916
0.723869
0.537268
0.738004
0.565254
0.346977
0.228581
0.363218
0.238519
0.344433
0.245313
0.361445
0.256736
0.180689
0.18068
0.18835
0.188339
0.205947
0.205945
0.215322
0.215318
0.22855
0.346922
0.238483
0.363154
0.245297
0.344381
0.256715
0.361379
0.596769
0.75962
0.624843
0.756032
0.537144
0.723666
0.565105
0.737769
0.47509
0.374329
0.257576
0.206201
0.413818
0.325233
0.210975
0.170364
0.151939
0.0526093
0.0576756
0.0131669
0.121901
0.0365857
0.0411082
0.00961169
0.0170423
0.0170517
0.00542846
0.00543088
0.0102638
0.0102709
0.00462778
0.00462893
0.0526296
0.151952
0.0131752
0.0576986
0.0366043
0.121915
0.00961708
0.0411295
0.37435
0.475144
0.206234
0.257629
0.325255
0.413867
0.170397
0.211022
0.739959
0.59515
0.627998
0.499573
0.659425
0.526695
0.555845
0.439718
0.308216
0.161499
0.23623
0.107047
0.257496
0.125837
0.19505
0.0808582
0.0998678
0.0998703
0.0531958
0.0532047
0.0720386
0.0720429
0.0345466
0.034556
0.161498
0.308206
0.107057
0.236232
0.125841
0.257492
0.0808702
0.195056
0.595145
0.739994
0.499581
0.628044
0.526694
0.659456
0.439728
0.555885
0.899669
0.736932
0.827879
0.672446
0.807018
0.655712
0.740581
0.596948
0.424961
0.259031
0.370503
0.212455
0.359391
0.208374
0.3117
0.168671
0.188038
0.188031
0.145426
0.145423
0.145599
0.145595
0.109714
0.109714
0.259007
0.424922
0.212443
0.370479
0.208359
0.359361
0.168665
0.311684
0.736901
0.899687
0.672428
0.827906
0.655684
0.807029
0.596934
0.740601
1.01044
0.838757
0.95961
0.791709
0.910503
0.749321
0.862819
0.705909
0.514874
0.338798
0.472818
0.301127
0.438966
0.277345
0.401603
0.244628
0.262379
0.262363
0.227099
0.227088
0.209222
0.20921
0.17889
0.178882
0.338751
0.514803
0.301091
0.472763
0.277308
0.438905
0.244602
0.401558
0.838698
1.01045
0.791664
0.959619
0.749262
0.910492
0.705866
0.862819
1.09072
0.914101
1.05377
0.87927
0.986575
0.819518
0.951439
0.786957
0.58393
0.401793
0.551784
0.372316
0.500878
0.332547
0.471967
0.30664
0.321915
0.321891
0.293981
0.293961
0.260843
0.260824
0.236558
0.236543
0.401724
0.583829
0.372257
0.551698
0.332488
0.500785
0.306592
0.47189
0.914019
1.09071
0.879199
1.05377
0.819428
0.986544
0.786882
0.951418
1.14871
0.969304
1.12214
0.94394
1.04222
0.871521
1.01664
0.847562
0.635756
0.449875
0.611837
0.427608
0.547785
0.375033
0.526087
0.355319
0.367748
0.367717
0.346483
0.346456
0.300885
0.300859
0.282275
0.282252
0.449786
0.63563
0.427528
0.611723
0.374953
0.547662
0.355249
0.525979
0.969202
1.1487
0.943848
1.12213
0.871402
1.04217
0.847457
1.0166
1.18954
1.00859
1.17103
0.990734
1.08185
0.908853
1.06382
0.891847
0.673349
0.485194
0.656203
0.469042
0.582015
0.406388
0.566379
0.392032
0.401631
0.401594
0.386114
0.38608
0.330608
0.330575
0.316982
0.316952
0.485088
0.673201
0.468944
0.656065
0.40629
0.581866
0.391943
0.566242
1.00848
1.18953
0.990624
1.17101
0.908709
1.08179
0.891715
1.06377
1.21709
1.03539
1.2048
1.0234
1.10881
0.934466
1.09675
0.922988
0.699466
0.510011
0.68774
0.498839
0.605871
0.428457
0.59515
0.418518
0.425573
0.425531
0.414781
0.414741
0.35163
0.351592
0.342151
0.342115
0.509891
0.699301
0.498726
0.687583
0.428344
0.6057
0.418412
0.59499
1.03526
1.21708
1.02328
1.20479
0.934302
1.10874
0.922834
1.09668
1.23448
1.05255
1.22691
1.04506
1.12596
0.950947
1.11848
0.943735
0.716602
0.526509
0.70908
0.519242
0.621532
0.44311
0.614653
0.436656
0.441587
0.441541
0.434521
0.434477
0.365664
0.365622
0.359474
0.359433
0.526379
0.716424
0.519117
0.708908
0.442985
0.621345
0.436536
0.614473
1.05242
1.23447
1.04492
1.2269
0.950769
1.12588
0.943563
1.1184
1.24434
1.06254
1.24026
1.05837
1.13579
0.960603
1.1317
0.956551
0.726979
0.536699
0.72259
0.53236
0.631009
0.452127
0.626997
0.448289
0.451564
0.451515
0.447302
0.447255
0.374365
0.37432
0.370652
0.370608
0.536561
0.726793
0.532226
0.722407
0.451994
0.63081
0.448159
0.626803
1.0624
1.24434
1.05823
1.24025
0.960414
1.13571
0.956367
1.13161
1.24876
1.06735
1.24717
1.06554
1.14034
0.965322
1.13867
0.96353
0.732446
0.542287
0.73031
0.540061
0.635999
0.457042
0.634044
0.455086
0.457127
0.457076
0.454893
0.454844
0.379178
0.379131
0.377249
0.377203
0.542145
0.732254
0.539921
0.73012
0.456903
0.635792
0.454949
0.633841
1.06721
1.24876
1.0654
1.24717
0.965126
1.14026
0.963337
1.13858
1.24936
1.0685
1.24951
1.06837
1.14117
0.966581
1.1412
0.966371
0.734465
0.544644
0.733901
0.54389
0.637852
0.459091
0.637326
0.458438
0.459591
0.45954
0.458769
0.458717
0.381277
0.381228
0.380581
0.380533
0.5445
0.73427
0.543747
0.733707
0.458949
0.63764
0.458297
0.637116
1.06836
1.24936
1.06823
1.24951
0.966383
1.14109
0.966173
1.14111
1.2474
1.06726
1.24872
1.0682
1.13957
0.965586
1.14069
0.966373
0.73418
0.544832
0.734634
0.545043
0.637627
0.459233
0.638013
0.459423
0.459968
0.459916
0.460078
0.460026
0.381563
0.381513
0.381673
0.381624
0.544686
0.733984
0.544897
0.734438
0.459089
0.637414
0.45928
0.637801
1.06711
1.24741
1.06805
1.24872
0.965387
1.13949
0.966174
1.14061
1.24364
1.06431
1.24577
1.06602
1.13623
0.963
1.13814
0.964515
0.73233
0.543583
0.73351
0.544451
0.636
0.458122
0.63704
0.45889
0.458983
0.458931
0.459709
0.459657
0.380677
0.380628
0.38132
0.381271
0.543438
0.732135
0.544306
0.733314
0.457978
0.635787
0.458746
0.636827
1.06417
1.24365
1.06588
1.24577
0.962802
1.13614
0.964316
1.13805
1.2386
1.06021
1.24131
1.06245
1.13168
0.959343
1.13414
0.961345
0.72942
0.541351
0.731079
0.542664
0.633428
0.456158
0.634893
0.457308
0.457058
0.457006
0.45821
0.458158
0.378985
0.378936
0.379991
0.379942
0.541207
0.729226
0.542519
0.730885
0.456015
0.633217
0.457165
0.63468
1.06007
1.23861
1.06231
1.24132
0.959148
1.1316
0.961148
1.13406
1.23265
1.0553
1.23579
1.05791
1.12627
0.954943
1.12913
0.957289
0.725785
0.538467
0.727776
0.540077
0.630219
0.453634
0.631976
0.45504
0.454518
0.454467
0.45595
0.455899
0.376773
0.376724
0.378016
0.377967
0.538324
0.725594
0.539933
0.727584
0.453493
0.63001
0.454898
0.631766
1.05516
1.23266
1.05778
1.2358
0.954751
1.12619
0.957095
1.12905
1.22596
1.04975
1.22945
1.05267
1.12017
0.949969
1.12336
0.952587
0.721613
0.535108
0.723857
0.53694
0.626535
0.450702
0.628515
0.452299
0.451536
0.451486
0.453174
0.453124
0.374184
0.374137
0.375603
0.375555
0.534967
0.721426
0.536798
0.723668
0.450562
0.626329
0.452158
0.628308
1.04963
1.22598
1.05254
1.22947
0.949781
1.1201
0.952397
1.12329
1.21863
1.04368
1.22243
1.04685
1.11348
0.944504
1.11696
0.947361
0.716999
0.531369
0.719456
0.533383
0.622459
0.44744
0.624629
0.449195
0.448205
0.448155
0.45001
0.44996
0.371296
0.371249
0.372859
0.372811
0.531231
0.716815
0.533243
0.71927
0.447303
0.622258
0.449057
0.624425
1.04355
1.21865
1.04672
1.22245
0.944321
1.11341
0.947175
1.11689
1.21068
1.0371
1.21479
1.04052
1.10621
0.938587
1.10997
0.941664
0.711991
0.527298
0.71464
0.529473
0.618033
0.443888
0.620374
0.445784
0.444571
0.444522
0.446523
0.446474
0.368147
0.3681
0.369836
0.36979
0.527162
0.711811
0.529336
0.714458
0.443753
0.617835
0.445649
0.620174
1.03698
1.21071
1.04039
1.21481
0.938408
1.10614
0.941482
1.10991
1.20216
1.03006
1.20656
1.03371
1.09839
0.932238
1.10243
0.935532
0.706612
0.522917
0.709445
0.525245
0.613274
0.440062
0.615781
0.442095
0.440656
0.440608
0.442746
0.442698
0.364751
0.364706
0.366562
0.366517
0.522784
0.706436
0.525111
0.709267
0.439931
0.61308
0.441961
0.615585
1.02995
1.20219
1.03359
1.20658
0.932064
1.09833
0.935355
1.10237
1.19304
1.02255
1.19774
1.02644
1.09002
0.925458
1.09434
0.928966
0.700867
0.518233
0.703883
0.520712
0.608186
0.43597
0.610857
0.438135
0.436467
0.436421
0.438693
0.438646
0.361117
0.361073
0.363047
0.363002
0.518103
0.700695
0.52058
0.703709
0.435841
0.607997
0.438005
0.610665
1.02244
1.19307
1.02632
1.19777
0.925289
1.08997
0.928794
1.09428
1.18334
1.01457
1.18833
1.01869
1.0811
0.918247
1.08569
0.92197
0.694758
0.513248
0.697955
0.515877
0.602772
0.431612
0.605605
0.433909
0.432008
0.431963
0.434369
0.434323
0.357245
0.357202
0.359293
0.35925
0.513121
0.694591
0.515748
0.697785
0.431486
0.602587
0.433782
0.605418
1.01447
1.18337
1.01858
1.18836
0.918083
1.08105
0.921803
1.08564
1.17305
1.00613
1.17833
1.01048
1.07163
0.910609
1.07649
0.914544
0.688288
0.507966
0.691664
0.510742
0.597032
0.42699
0.600027
0.429418
0.427281
0.427236
0.429774
0.429729
0.353138
0.353096
0.355303
0.35526
0.507842
0.688126
0.510617
0.6915
0.426867
0.596852
0.429294
0.599845
1.00603
1.17309
1.01037
1.17836
0.91045
1.07158
0.914383
1.07644
1.16218
0.997228
1.16774
1.0018
1.06161
0.902545
1.06675
0.906692
0.68146
0.502388
0.685015
0.505311
0.59097
0.422106
0.594126
0.424664
0.422287
0.422244
0.424913
0.424869
0.348797
0.348756
0.351078
0.351036
0.502267
0.681303
0.505189
0.684854
0.421986
0.590796
0.424543
0.593949
0.997129
1.16222
1.0017
1.16778
0.902392
1.06157
0.906536
1.0667
1.15074
0.987867
1.15659
0.992667
1.05106
0.894065
1.05646
0.898417
0.67428
0.496518
0.678008
0.499585
0.584593
0.416966
0.587904
0.419651
0.417031
0.416989
0.419786
0.419744
0.344227
0.344187
0.346621
0.346581
0.496401
0.674127
0.499467
0.677853
0.41685
0.584423
0.419533
0.587732
0.987773
1.15078
0.99257
1.15663
0.893918
1.05102
0.898267
1.05642
1.13877
0.978071
1.14488
0.983085
1.04001
0.885188
1.04565
0.889735
0.666756
0.490364
0.670654
0.493572
0.577909
0.411576
0.581372
0.414384
0.411518
0.411477
0.4144
0.414358
0.339434
0.339396
0.341938
0.341899
0.49025
0.666609
0.493456
0.670504
0.411463
0.577745
0.41427
0.581205
0.977983
1.13881
0.982994
1.14492
0.885046
1.03997
0.88959
1.04562
1.12628
0.967852
1.13264
0.973076
1.02847
0.875934
1.03436
0.880666
0.658897
0.483928
0.662961
0.487275
0.57093
0.405942
0.574539
0.408871
0.405749
0.405709
0.408757
0.408717
0.334422
0.334385
0.337034
0.336996
0.483818
0.658755
0.487163
0.662816
0.405833
0.570772
0.40876
0.574377
0.967769
1.12633
0.97299
1.13269
0.875799
1.02844
0.880527
1.03432
1.11331
0.957234
1.11991
0.962648
1.01647
0.866306
1.02258
0.871227
0.65071
0.477212
0.654935
0.480698
0.563657
0.400066
0.567412
0.403115
0.399723
0.399685
0.40286
0.402821
0.329191
0.329155
0.331912
0.331875
0.477106
0.650573
0.48059
0.654795
0.39996
0.563505
0.403008
0.567257
0.957155
1.11336
0.962567
1.11996
0.866176
1.01645
0.871094
1.02255
1.09988
0.946242
1.10671
0.951846
1.00404
0.856285
1.01036
0.861399
0.642191
0.470203
0.646584
0.473837
0.556082
0.393936
0.559988
0.397113
0.393426
0.393389
0.3967
0.396662
0.32373
0.323696
0.326567
0.326532
0.470101
0.64206
0.473733
0.64645
0.393834
0.555935
0.397009
0.559838
0.946169
1.09993
0.95177
1.10676
0.856162
1.00402
0.861273
1.01034
1.08597
0.934826
1.09304
0.940645
0.991175
0.845888
0.997714
0.85119
0.633304
0.462867
0.637885
0.466668
0.548184
0.387527
0.552254
0.390846
0.386823
0.386787
0.390253
0.390217
0.318014
0.31798
0.320981
0.320947
0.462768
0.633178
0.466568
0.637756
0.38743
0.548044
0.390747
0.55211
0.934759
1.08603
0.940575
1.09309
0.845772
0.991156
0.85107
0.997693
1.07158
0.922951
1.07889
0.929003
0.977851
0.835076
0.984623
0.840591
0.623996
0.455146
0.628793
0.459147
0.539919
0.380793
0.544179
0.384281
0.379857
0.379823
0.383476
0.383441
0.311993
0.311961
0.315119
0.315086
0.455052
0.623876
0.459051
0.628671
0.3807
0.539785
0.384186
0.544041
0.922888
1.07164
0.928938
1.07894
0.834966
0.977837
0.840477
0.984606
1.05665
0.910549
1.06423
0.916873
0.964013
0.823776
0.97105
0.829544
0.614184
0.446954
0.619244
0.451202
0.531208
0.373655
0.535701
0.377355
0.37244
0.372408
0.376295
0.376262
0.305594
0.305564
0.308919
0.308888
0.446865
0.61407
0.45111
0.619127
0.373566
0.531081
0.377264
0.53557
0.910492
1.05671
0.916813
1.06429
0.823673
0.964003
0.829437
0.971037
1.04109
0.897518
1.049
0.90417
0.949563
0.811881
0.956919
0.81796
0.603745
0.438165
0.609134
0.442727
0.521935
0.366
0.526724
0.369973
0.364447
0.364417
0.368607
0.368575
0.298706
0.298678
0.30229
0.30226
0.43808
0.603638
0.44264
0.609024
0.365917
0.521815
0.369887
0.5266
0.897466
1.04115
0.904116
1.04906
0.811786
0.949557
0.817861
0.956911
1.02478
0.883706
1.03308
0.890768
0.934352
0.799227
0.942108
0.805709
0.592508
0.428603
0.598318
0.433574
0.511937
0.357672
0.51711
0.362002
0.355706
0.355677
0.360262
0.360232
0.291178
0.291151
0.295101
0.295073
0.428524
0.592408
0.433492
0.598214
0.357594
0.511825
0.361921
0.516994
0.88366
1.02484
0.890719
1.03314
0.79914
0.934351
0.805617
0.942104
1.00757
0.868935
1.01634
0.876496
0.918199
0.785605
0.926447
0.792593
0.580252
0.418034
0.5866
0.423541
0.500997
0.348457
0.506669
0.35326
0.345976
0.34595
0.351059
0.351031
0.2828
0.282775
0.287176
0.28715
0.41796
0.58016
0.423464
0.586504
0.348385
0.500894
0.353184
0.506561
0.868895
1.00764
0.876453
1.0164
0.785526
0.918204
0.79251
0.926449
0.98942
0.85303
0.998645
0.861176
0.900943
0.770795
0.909753
0.778406
0.566668
0.4061
0.573725
0.412343
0.488813
0.338037
0.495152
0.34349
0.334898
0.334873
0.340709
0.340683
0.273261
0.273239
0.278263
0.27824
0.406033
0.566584
0.412272
0.573637
0.337972
0.48872
0.343421
0.495053
0.852997
0.989487
0.861139
0.99871
0.770726
0.900955
0.778332
0.90976
0.97089
0.835789
0.980137
0.84464
0.882802
0.754434
0.891964
0.762888
0.551108
0.392106
0.559279
0.399501
0.474755
0.325804
0.482152
0.332269
0.321834
0.321812
0.32874
0.328717
0.262032
0.262012
0.267964
0.267943
0.392045
0.551033
0.399437
0.5592
0.325746
0.474673
0.332207
0.482064
0.835762
0.970959
0.84461
0.980205
0.754375
0.882822
0.762824
0.891979
0.956378
0.815536
0.962439
0.826396
0.866745
0.734501
0.87402
0.745297
0.531147
0.374367
0.54207
0.383942
0.456548
0.310292
0.466532
0.318665
0.30566
0.305641
0.314288
0.314267
0.248182
0.248166
0.255562
0.255544
0.374314
0.531081
0.383885
0.541999
0.310242
0.456477
0.318611
0.466454
0.815514
0.956448
0.826371
0.962509
0.734452
0.866773
0.745243
0.874044
0.977104
0.770506
0.957874
0.800782
0.877951
0.689962
0.865229
0.719684
0.497024
0.349842
0.517063
0.363163
0.425173
0.2888
0.443622
0.300483
0.285347
0.285332
0.296068
0.296051
0.230849
0.230836
0.239993
0.239978
0.349798
0.496969
0.363114
0.517002
0.288761
0.425115
0.300438
0.443557
0.770485
0.977169
0.80076
0.957942
0.689923
0.877979
0.71964
0.865258
0.544958
0.431805
0.312917
0.249912
0.516236
0.407935
0.290102
0.231332
0.189996
0.0756576
0.0801895
0.0194083
0.173841
0.0655247
0.0703676
0.0164649
0.0296643
0.0296752
0.0073805
0.00738499
0.0237284
0.023739
0.00640603
0.0064093
0.0756771
0.190006
0.0194219
0.0802121
0.0655456
0.173852
0.0164756
0.0703913
0.431823
0.54502
0.249944
0.312977
0.407954
0.516294
0.231366
0.290159
0.835153
0.677945
0.711064
0.570101
0.795432
0.643124
0.676705
0.540691
0.373738
0.211938
0.2883
0.143947
0.345728
0.189825
0.266194
0.127795
0.142397
0.142396
0.0827509
0.0827576
0.123362
0.123363
0.069442
0.0694501
0.211929
0.373716
0.143953
0.288295
0.18982
0.345712
0.127803
0.266192
0.677934
0.835195
0.570104
0.711116
0.643116
0.795471
0.540697
0.676754
1.01584
0.8413
0.934228
0.766624
0.966469
0.796593
0.889436
0.726644
0.514331
0.333647
0.448557
0.275559
0.475475
0.300524
0.414905
0.247733
0.254264
0.254252
0.200307
0.2003
0.224416
0.224406
0.175689
0.175684
0.333608
0.514275
0.275534
0.448518
0.300493
0.475427
0.247715
0.414873
0.841262
1.01587
0.766599
0.934262
0.796558
0.966492
0.726622
0.889467
1.14207
0.959591
1.08418
0.904953
1.08525
0.907025
1.0308
0.856044
0.623013
0.432841
0.572215
0.386059
0.575335
0.390602
0.528674
0.34812
0.348004
0.347982
0.303586
0.303569
0.30904
0.309021
0.26894
0.268925
0.432777
0.622926
0.386007
0.572143
0.390546
0.575255
0.348076
0.52861
0.959533
1.1421
0.904904
1.08421
0.906966
1.08527
0.855996
1.03082
1.23307
1.0468
1.19127
1.00655
1.17089
0.988396
1.13153
0.950831
0.706168
0.51082
0.667512
0.474376
0.651719
0.461422
0.616204
0.428319
0.422743
0.422712
0.387715
0.387689
0.376515
0.376488
0.344888
0.344865
0.510735
0.706057
0.474302
0.667412
0.461344
0.651612
0.428252
0.61611
1.04673
1.2331
1.00649
1.19129
0.98832
1.1709
0.950762
1.13155
1.29834
1.11037
1.26849
1.08121
1.23241
1.04775
1.20427
1.02051
0.768337
0.570159
0.739672
0.542696
0.708843
0.515316