/*--------------------------------*- C++ -*----------------------------------*\
  =========                 |
  \\      /  F ield         | OpenFOAM: The Open Source CFD Toolbox
   \\    /   O peration     | Website:  https://openfoam.org
    \\  /    A nd           | Version:  9
     \\/     M anipulation  |
\*---------------------------------------------------------------------------*/
FoamFile
{
    format      ascii;
    class       volScalarField;
    location    "3";
    object      k;
}
// * * * * * * * * * * * * * * * * * * * * * * * * * * * * * * * * * * * * * //

dimensions      [0 2 -2 0 0 0 0];

internalField   nonuniform List<scalar> 
36360
(
0.0987032
0.0818979
0.0491632
0.0433772
0.0252176
0.0205273
0.00759234
0.00739492
0.0372258
0.0129114
0.0125084
0.0042348
0.00797201
0.00338593
0.00381519
0.00291332
0.00434097
0.00434491
0.00273423
0.00273469
0.00221039
0.00221078
0.00296729
0.00296726
0.0129233
0.0372366
0.00423718
0.0125195
0.00338763
0.0079759
0.00291354
0.00381649
0.0819079
0.0987103
0.0433888
0.0491716
0.0205322
0.0252216
0.00739792
0.00759363
0.157735
0.133327
0.132735
0.110923
0.0530552
0.0420025
0.0413287
0.0323491
0.0780313
0.0459999
0.0591501
0.0293231
0.0244798
0.012811
0.016523
0.0064946
0.0308497
0.0308546
0.0137953
0.0138035
0.00689874
0.00690176
0.00301519
0.00301679
0.046009
0.0780378
0.0293355
0.0591598
0.0128174
0.0244848
0.00649921
0.0165288
0.13333
0.157733
0.110929
0.132739
0.0420052
0.0530559
0.0323533
0.0413314
0.194211
0.167481
0.177589
0.151749
0.0694017
0.0565698
0.0620407
0.0498802
0.109164
0.0759943
0.0945577
0.0617376
0.03758
0.025641
0.0314398
0.0194896
0.061077
0.0610783
0.0467372
0.0467401
0.0201006
0.0201023
0.0136934
0.0136959
0.0759957
0.109162
0.0617428
0.0945599
0.0256442
0.0375816
0.0194943
0.0314432
0.167472
0.194197
0.151747
0.177582
0.0565682
0.069397
0.049881
0.0620389
0.220902
0.193114
0.208474
0.181137
0.0811011
0.0674688
0.0756615
0.0623707
0.133503
0.099911
0.122079
0.0886813
0.0478158
0.0358906
0.0430076
0.0310929
0.0849619
0.0849604
0.0737721
0.073772
0.0305754
0.0305758
0.0257101
0.0257111
0.099905
0.133489
0.088679
0.122071
0.0358907
0.047813
0.0310945
0.0430071
0.193091
0.220872
0.181122
0.208453
0.0674613
0.0810893
0.0623663
0.0756534
0.241174
0.212751
0.23173
0.20359
0.0899711
0.0758587
0.0858385
0.0719386
0.152359
0.11843
0.14355
0.109782
0.0557673
0.0437515
0.0520488
0.0400856
0.103343
0.103339
0.0947684
0.0947657
0.0384448
0.0384442
0.0347869
0.0347868
0.118416
0.152333
0.109773
0.14353
0.0437486
0.0557599
0.0400842
0.0520437
0.212714
0.241128
0.20356
0.231692
0.0758448
0.0899515
0.0719279
0.0858228
0.256381
0.227543
0.249338
0.220687
0.0966238
0.0822001
0.0935421
0.079258
0.166628
0.132432
0.160011
0.12594
0.0617948
0.0496643
0.0589976
0.0469242
0.117206
0.1172
0.11078
0.110775
0.0443155
0.0443139
0.0415981
0.041597
0.132412
0.166592
0.125923
0.15998
0.0496587
0.0617828
0.0469199
0.0589879
0.227491
0.256319
0.220642
0.249284
0.0821798
0.0965965
0.0792408
0.0935185
0.267449
0.23834
0.26237
0.233382
0.101464
0.0868328
0.0992422
0.0847043
0.177076
0.142688
0.172278
0.137978
0.0662067
0.053976
0.0641797
0.0519963
0.127356
0.127348
0.122695
0.122688
0.0485822
0.0485798
0.0466241
0.0466221
0.142662
0.17703
0.137955
0.172237
0.0539677
0.0661904
0.0519894
0.0641655
0.238276
0.267373
0.233324
0.262301
0.0868067
0.101429
0.084681
0.0992111
0.275182
0.245904
0.271676
0.242472
0.104841
0.0900739
0.103309
0.0886027
0.184416
0.149905
0.181087
0.14663
0.069299
0.0569928
0.0678954
0.0556237
0.134503
0.134493
0.131259
0.13125
0.0515637
0.0515605
0.0502106
0.0502079
0.149873
0.184362
0.146601
0.181036
0.0569824
0.0692792
0.0556144
0.0678772
0.245829
0.275094
0.242403
0.271594
0.0900428
0.1048
0.0885739
0.103272
0.280298
0.250926
0.278015
0.248683
0.107069
0.092218
0.106074
0.0912594
0.18931
0.154729
0.187125
0.152573
0.0713507
0.0589939
0.0704335
0.058099
0.139288
0.139276
0.137148
0.137138
0.0535411
0.0535374
0.0526564
0.052653
0.154693
0.189249
0.152539
0.187067
0.0589818
0.071328
0.0580878
0.0704121
0.250843
0.280201
0.248604
0.277922
0.092183
0.107023
0.0912263
0.106031
0.283438
0.254028
0.282071
0.252673
0.108433
0.0935346
0.107837
0.0929585
0.192353
0.157745
0.191024
0.156425
0.0726179
0.0602321
0.0720629
0.0596892
0.142288
0.142276
0.140974
0.140962
0.0547656
0.0547616
0.0542282
0.0542243
0.157706
0.192287
0.156388
0.19096
0.0602188
0.0725932
0.0596765
0.0720392
0.253939
0.283334
0.252587
0.281969
0.0934967
0.108384
0.0929219
0.10779
0.285137
0.255731
0.28443
0.255017
0.109171
0.0942511
0.108861
0.0939491
0.194051
0.159447
0.193338
0.158729
0.0733181
0.0609205
0.073022
0.0606284
0.143992
0.143979
0.143271
0.143258
0.0554486
0.0554442
0.055158
0.0551538
0.159406
0.193982
0.158689
0.19327
0.0609064
0.073292
0.0606147
0.0729966
0.255637
0.285028
0.254925
0.284322
0.0942112
0.10912
0.0939101
0.108811
0.28582
0.256452
0.285575
0.256185
0.109472
0.0945491
0.109361
0.094437
0.194807
0.160231
0.194522
0.159929
0.0736244
0.061229
0.0735067
0.0611085
0.144791
0.144777
0.14448
0.144467
0.0557582
0.0557537
0.0556361
0.0556317
0.160189
0.194736
0.159888
0.194451
0.0612144
0.0735975
0.0610942
0.0734801
0.256356
0.285708
0.25609
0.285464
0.0945082
0.10942
0.0943965
0.109309
0.285811
0.256505
0.285872
0.256534
0.109481
0.0945659
0.109496
0.094577
0.194923
0.160393
0.194924
0.160371
0.0736657
0.0612819
0.073666
0.0612765
0.144977
0.144963
0.144942
0.144929
0.0558167
0.0558121
0.0558082
0.0558037
0.16035
0.194852
0.160329
0.194853
0.0612671
0.0736385
0.0612618
0.0736389
0.256408
0.285698
0.256437
0.285758
0.0945245
0.109428
0.0945357
0.109443
0.285341
0.256123
0.28562
0.256357
0.109297
0.0944015
0.109406
0.0945007
0.194632
0.160162
0.194823
0.160321
0.0735417
0.0611787
0.0736216
0.0612478
0.144776
0.144763
0.144919
0.144905
0.0557232
0.0557186
0.0557868
0.0557822
0.160119
0.19456
0.160278
0.194751
0.0611639
0.0735144
0.061233
0.0735943
0.256026
0.285228
0.256259
0.285505
0.0943599
0.109243
0.0944591
0.109353
0.284549
0.255437
0.284969
0.255802
0.108981
0.0941107
0.109146
0.0942621
0.194053
0.159653
0.194366
0.15993
0.0732999
0.0609626
0.073427
0.0610761
0.144302
0.144289
0.144562
0.144548
0.0555189
0.0555143
0.0556259
0.0556213
0.15961
0.193981
0.159888
0.194294
0.0609478
0.0732727
0.0610613
0.0733997
0.255339
0.284436
0.255704
0.284855
0.0940692
0.108927
0.0942205
0.109092
0.283539
0.254549
0.284059
0.255006
0.108576
0.0937371
0.108782
0.0939266
0.193289
0.158967
0.193687
0.159325
0.0729833
0.0606762
0.0731447
0.0608219
0.143656
0.143643
0.143994
0.14398
0.0552465
0.055242
0.0553847
0.0553802
0.158925
0.193217
0.159283
0.193615
0.0606616
0.0729564
0.0608072
0.0731177
0.254453
0.283426
0.254909
0.283946
0.093696
0.108523
0.0938853
0.108729
0.282362
0.253512
0.282961
0.25404
0.108105
0.0933015
0.108343
0.0935202
0.192389
0.158154
0.19285
0.158572
0.0726115
0.0603383
0.0727988
0.0605081
0.142886
0.142872
0.143282
0.143268
0.0549243
0.0549198
0.0550858
0.0550814
0.158112
0.192318
0.15853
0.192779
0.0603239
0.0725849
0.0604937
0.0727721
0.253417
0.28225
0.253944
0.282848
0.093261
0.108053
0.0934794
0.10829
0.281046
0.252354
0.281712
0.25294
0.107579
0.0928148
0.107843
0.0930583
0.19138
0.157239
0.191894
0.157705
0.0721948
0.0599587
0.0724038
0.0601486
0.142016
0.142003
0.14246
0.142446
0.0545617
0.0545574
0.0547427
0.0547383
0.157197
0.19131
0.157664
0.191823
0.0599446
0.0721686
0.0601344
0.0723774
0.25226
0.280936
0.252845
0.281601
0.0927749
0.107528
0.0930181
0.107791
0.279604
0.251086
0.280332
0.251725
0.107003
0.092282
0.107291
0.0925482
0.190275
0.156235
0.190836
0.156745
0.0717379
0.059542
0.0719666
0.0597502
0.141061
0.141048
0.141547
0.141533
0.0541636
0.0541593
0.0543621
0.0543578
0.156194
0.190207
0.156704
0.190767
0.0595282
0.0717122
0.0597362
0.0719407
0.250994
0.279496
0.251632
0.280223
0.0922427
0.106952
0.0925085
0.10724
0.278042
0.249716
0.27883
0.250407
0.106378
0.091705
0.106691
0.0919933
0.18908
0.155147
0.189685
0.155699
0.0712428
0.0590901
0.0714906
0.0593159
0.140026
0.140013
0.140551
0.140538
0.0537314
0.0537272
0.0539468
0.0539427
0.155107
0.189012
0.155659
0.189618
0.0590766
0.0712176
0.0593022
0.0714652
0.249625
0.277936
0.250315
0.278723
0.0916664
0.106328
0.0919543
0.106641
0.276361
0.248244
0.277209
0.248986
0.105706
0.0910841
0.106043
0.0913944
0.187796
0.153978
0.188446
0.15457
0.0707099
0.0586033
0.0709767
0.0588466
0.138912
0.1389
0.139477
0.139464
0.0532656
0.0532615
0.053498
0.0534939
0.153939
0.18773
0.154531
0.188379
0.0585901
0.0706852
0.0588332
0.0709518
0.248155
0.276257
0.248895
0.277103
0.0910463
0.105657
0.0913562
0.105993
0.27456
0.246671
0.275468
0.247463
0.104986
0.0904192
0.105347
0.0907517
0.186422
0.152727
0.187117
0.15336
0.070139
0.0580814
0.0704249
0.0583424
0.13772
0.137708
0.138324
0.138311
0.0527661
0.0527621
0.0530154
0.0530114
0.152689
0.186358
0.153322
0.187052
0.0580685
0.0701149
0.0583293
0.0704006
0.246584
0.274458
0.247375
0.275364
0.0903822
0.104938
0.0907143
0.105298
0.272639
0.244996
0.273607
0.24584
0.104218
0.0897098
0.104603
0.0900647
0.18496
0.151394
0.1857
0.152068
0.0695299
0.0575243
0.069835
0.057803
0.136449
0.136437
0.137092
0.13708
0.0522326
0.0522288
0.052499
0.0524952
0.151357
0.184897
0.152031
0.185636
0.0575118
0.0695064
0.0577903
0.0698113
0.244911
0.272539
0.245753
0.273505
0.0896736
0.104171
0.0900281
0.104555
0.270598
0.24322
0.271626
0.244114
0.103402
0.088956
0.103811
0.0893331
0.183409
0.149979
0.184193
0.150695
0.0688826
0.056932
0.0692069
0.0572283
0.1351
0.135088
0.135782
0.13577
0.0516652
0.0516615
0.0519487
0.051945
0.149943
0.183347
0.150658
0.184131
0.0569198
0.0688598
0.057216
0.0691838
0.243136
0.270501
0.244029
0.271527
0.0889207
0.103356
0.0892974
0.103764
0.26844
0.241343
0.269526
0.242287
0.102538
0.0881583
0.102971
0.0885575
0.181769
0.148483
0.182598
0.14924
0.0681975
0.0563046
0.0685408
0.0566186
0.133673
0.133661
0.134394
0.134382
0.0510642
0.0510606
0.0513645
0.0513609
0.148448
0.181709
0.149204
0.182537
0.0562929
0.0681753
0.0566066
0.0685183
0.241261
0.268344
0.242204
0.269429
0.0881239
0.102494
0.0885226
0.102926
0.266165
0.239366
0.26731
0.24036
0.101628
0.0873168
0.102084
0.087738
0.180042
0.146907
0.180914
0.147703
0.0674749
0.0556427
0.067837
0.055974
0.132169
0.132158
0.132928
0.132917
0.0504299
0.0504264
0.0507469
0.0507434
0.146873
0.179984
0.147669
0.180855
0.0556314
0.0674534
0.0559624
0.0678152
0.239287
0.266073
0.240279
0.267215
0.0872834
0.101585
0.0877041
0.10204
0.263778
0.237291
0.264979
0.238334
0.100673
0.086432
0.101151
0.0868749
0.178228
0.145251
0.179144
0.146087
0.0667153
0.0549466
0.067096
0.055295
0.130588
0.130577
0.131386
0.131375
0.0497626
0.0497593
0.0500962
0.0500928
0.145217
0.178171
0.146053
0.179086
0.0549357
0.0666945
0.0552839
0.0670748
0.237214
0.263687
0.238256
0.264887
0.0863995
0.10063
0.086842
0.101109
0.261277
0.235118
0.262535
0.23621
0.0996723
0.085506
0.100174
0.0859689
0.176326
0.143512
0.177286
0.14439
0.0659189
0.0542161
0.0663181
0.0545819
0.128928
0.128917
0.129766
0.129755
0.0490622
0.0490591
0.0494126
0.0494094
0.14348
0.176271
0.144357
0.17723
0.0542056
0.0658989
0.0545712
0.0662977
0.235043
0.26119
0.236134
0.262445
0.0854746
0.0996314
0.085937
0.100132
0.258662
0.232841
0.259978
0.233986
0.0986262
0.0845393
0.0991509
0.0850236
0.174331
0.141687
0.175339
0.142609
0.0650841
0.0534493
0.0655031
0.0538338
0.127184
0.127174
0.128065
0.128055
0.0483268
0.0483238
0.0486952
0.0486921
0.141656
0.174278
0.142578
0.175284
0.0534393
0.0650648
0.0538235
0.0654834
0.232768
0.258578
0.233912
0.259891
0.0845089
0.0985867
0.0849927
0.0991105
0.255924
0.230449
0.257303
0.231654
0.0975299
0.0835244
0.0980805
0.0840337
0.172231
0.139763
0.173293
0.140737
0.0642061
0.052642
0.0646475
0.0530475
0.125345
0.125335
0.126276
0.126266
0.0475523
0.0475495
0.047941
0.0479381
0.139733
0.17218
0.140706
0.173241
0.0526324
0.0641876
0.0530377
0.0646286
0.230379
0.255842
0.231583
0.257219
0.0834952
0.0974918
0.084004
0.0980414
0.253045
0.227925
0.254497
0.229199
0.096376
0.0824539
0.0969567
0.0829923
0.170007
0.13772
0.171134
0.138756
0.0632773
0.0517867
0.0637454
0.0522175
0.12339
0.123381
0.124382
0.124372
0.0467314
0.0467287
0.0471446
0.0471418
0.137692
0.169958
0.138727
0.171084
0.0517776
0.0632597
0.0522082
0.0637273
0.227858
0.252966
0.229131
0.254416
0.0824259
0.0963393
0.0829638
0.0969191
0.249998
0.225239
0.251538
0.226599
0.095152
0.081316
0.0957698
0.0818901
0.167629
0.135531
0.168838
0.136645
0.0622857
0.0508716
0.0627871
0.0513342
0.121292
0.121283
0.12236
0.122351
0.0458524
0.0458499
0.0462965
0.0462939
0.135503
0.167582
0.136617
0.16879
0.0508631
0.062269
0.0513254
0.06277
0.225174
0.249922
0.226533
0.25146
0.0812894
0.095117
0.0818628
0.0957338
0.24674
0.222347
0.248392
0.223816
0.0938392
0.0800933
0.0945044
0.0807126
0.165055
0.133151
0.166368
0.134366
0.0612138
0.0498796
0.0617581
0.0503833
0.119007
0.118998
0.120174
0.120166
0.0448984
0.0448961
0.0453826
0.0453802
0.133125
0.165011
0.13434
0.166322
0.0498717
0.0611981
0.0503751
0.0617419
0.222286
0.246669
0.223753
0.248318
0.0800681
0.093806
0.0806866
0.0944701
0.243213
0.21919
0.245009
0.2208
0.0924105
0.07876
0.0931377
0.0794385
0.162227
0.130524
0.163675
0.131871
0.0600373
0.0487871
0.0606374
0.0493445
0.116479
0.116471
0.117776
0.117768
0.0438461
0.0438441
0.0443829
0.0443807
0.1305
0.162185
0.131846
0.163632
0.0487798
0.0600227
0.049337
0.0606223
0.219133
0.243146
0.22074
0.244939
0.0787364
0.0923793
0.0794141
0.0931053
0.239335
0.215691
0.241318
0.217483
0.0908297
0.0772846
0.0916382
0.0780382
0.159068
0.127573
0.160693
0.129093
0.0587248
0.0475632
0.0593975
0.0481909
0.113632
0.113625
0.115099
0.115092
0.0426651
0.0426633
0.0432708
0.0432688
0.127551
0.15903
0.12907
0.160652
0.0475568
0.0587116
0.048184
0.0593836
0.215638
0.239272
0.217428
0.241252
0.0772628
0.0908006
0.0780155
0.0916079
0.235004
0.21175
0.237227
0.213777
0.0890497
0.0756313
0.0899644
0.0764791
0.155475
0.124195
0.157332
0.125945
0.057235
0.0461665
0.0580026
0.0468868
0.110363
0.110356
0.112056
0.11205
0.0413148
0.0413133
0.042011
0.0420094
0.124176
0.15544
0.125924
0.157296
0.046161
0.0572233
0.0468808
0.0579901
0.211701
0.234947
0.213726
0.237167
0.0756117
0.0890233
0.0764583
0.0899365
0.230132
0.207222
0.232632
0.209566
0.0870235
0.0737564
0.088066
0.0747213
0.151275
0.120226
0.153466
0.122298
0.0555032
0.0445365
0.0564026
0.0453828
0.106526
0.106521
0.108525
0.108519
0.0397418
0.0397407
0.040557
0.0405557
0.120209
0.151244
0.122279
0.153433
0.0445321
0.0554934
0.0453779
0.0563919
0.20718
0.230081
0.209521
0.232577
0.0737393
0.0870002
0.0747029
0.0880409
0.22493
0.201669
0.22751
0.204633
0.0847993
0.0715613
0.085917
0.0727109
0.146003
0.115367
0.148827
0.117933
0.0533807
0.0425774
0.0545053
0.0436031
0.101935
0.101931
0.104335
0.10433
0.0378887
0.037888
0.03885
0.0388491
0.115353
0.145978
0.117918
0.148799
0.0425744
0.0533732
0.0435994
0.0544966
0.201633
0.224886
0.204594
0.227462
0.0715472
0.0847796
0.0726952
0.0858953
0.222407
0.191513
0.222876
0.197868
0.0826806
0.0677806
0.0837536
0.0701146
0.138118
0.109223
0.142553
0.112462
0.0503982
0.0401969
0.0520444
0.0414355
0.0965364
0.0965335
0.0993193
0.0993158
0.0357744
0.0357741
0.036852
0.0368516
0.109213
0.138099
0.11245
0.142531
0.0401953
0.050393
0.0414332
0.0520381
0.191485
0.222371
0.197836
0.222836
0.0677702
0.0826651
0.0701022
0.0837358
0.151588
0.126204
0.0876276
0.0731036
0.131022
0.108628
0.0720578
0.0603679
0.0678336
0.0323606
0.0293013
0.00860615
0.0549599
0.0233598
0.0215711
0.00619229
0.0142049
0.0142157
0.00399367
0.00399595
0.00879606
0.00880423
0.00320342
0.00320496
0.0323814
0.0678489
0.00861507
0.0293188
0.0233778
0.0549738
0.00619813
0.0215863
0.126215
0.151596
0.0731199
0.087639
0.10864
0.13103
0.0603829
0.0720685
0.23468
0.200804
0.198304
0.167435
0.204656
0.173969
0.172878
0.1451
0.13114
0.0876679
0.10162
0.0603811
0.108983
0.0692838
0.0839756
0.0465061
0.0666335
0.0666374
0.0394806
0.0394893
0.0501449
0.0501495
0.0272038
0.0272127
0.0876747
0.131143
0.0603949
0.10163
0.0692921
0.108988
0.0465198
0.0839859
0.200802
0.234673
0.16744
0.198306
0.173969
0.204653
0.145106
0.172881
0.290487
0.253605
0.264767
0.229076
0.252337
0.218824
0.230481
0.198077
0.180335
0.135162
0.157195
0.112655
0.150294
0.10909
0.130899
0.0902254
0.113905
0.113904
0.0915173
0.0915184
0.0900015
0.0900016
0.0711481
0.0711502
0.135156
0.180321
0.112656
0.157189
0.109088
0.150285
0.0902285
0.130897
0.253583
0.290459
0.229065
0.26475
0.218808
0.252316
0.19807
0.230469
0.332267
0.293964
0.312771
0.275069
0.287617
0.25278
0.271177
0.236901
0.219095
0.173131
0.200872
0.155256
0.182689
0.140835
0.16747
0.125905
0.151607
0.151601
0.133867
0.133864
0.1216
0.121596
0.106757
0.106756
0.173113
0.219063
0.155244
0.200849
0.140823
0.182666
0.125898
0.167454
0.29392
0.332216
0.275036
0.312731
0.252746
0.287576
0.236876
0.271145
0.364147
0.325046
0.349286
0.310533
0.314458
0.278855
0.30195
0.266685
0.249308
0.202826
0.235175
0.188928
0.207876
0.165565
0.196101
0.154002
0.181054
0.181044
0.167275
0.167267
0.146132
0.146125
0.134667
0.134662
0.202796
0.249258
0.188904
0.235134
0.165543
0.207838
0.153985
0.19607
0.324981
0.364072
0.310478
0.349222
0.278802
0.314396
0.266642
0.301898
0.388117
0.34854
0.377009
0.337642
0.334606
0.298524
0.325273
0.289404
0.2723
0.225469
0.261624
0.21495
0.226998
0.184354
0.218124
0.175634
0.203504
0.203491
0.193074
0.193063
0.16475
0.16474
0.15611
0.156101
0.225429
0.272234
0.214915
0.261565
0.184323
0.226945
0.175607
0.218079
0.348454
0.388021
0.337566
0.376923
0.298454
0.334525
0.289342
0.325201
0.405627
0.365768
0.397583
0.357848
0.349287
0.312908
0.342548
0.306301
0.28925
0.242197
0.281454
0.234499
0.241048
0.198181
0.234591
0.191825
0.220098
0.220082
0.212461
0.212446
0.178451
0.178438
0.172151
0.17214
0.242147
0.289169
0.234454
0.28138
0.198141
0.240982
0.191789
0.234531
0.365664
0.405511
0.357753
0.397477
0.312822
0.349188
0.306222
0.342457
0.417939
0.377925
0.412347
0.372399
0.35957
0.323018
0.354904
0.318428
0.301271
0.254091
0.295805
0.24868
0.250968
0.207964
0.246463
0.203519
0.23191
0.23189
0.226535
0.226517
0.188152
0.188137
0.183743
0.183729
0.254033
0.301177
0.248626
0.295718
0.207917
0.250892
0.203476
0.246392
0.377807
0.417808
0.372288
0.412223
0.322919
0.359457
0.318335
0.354797
0.426166
0.386084
0.422485
0.38243
0.366404
0.329765
0.363351
0.326748
0.309389
0.262153
0.305753
0.258539
0.257627
0.214551
0.254649
0.211603
0.239929
0.239907
0.236332
0.236311
0.194695
0.194678
0.191765
0.191749
0.262089
0.309287
0.258477
0.305654
0.2145
0.257543
0.211554
0.254568
0.385954
0.426022
0.382306
0.422347
0.329655
0.366279
0.326643
0.363231
0.431292
0.391204
0.429051
0.38896
0.370629
0.333964
0.368785
0.332128
0.314534
0.267291
0.312278
0.265034
0.26181
0.218712
0.259979
0.216888
0.245053
0.24503
0.2428
0.242777
0.198839
0.19882
0.19702
0.197003
0.267222
0.314424
0.264967
0.312171
0.218657
0.261719
0.216835
0.259891
0.391065
0.431139
0.388825
0.428901
0.333846
0.370495
0.332013
0.368654
0.434136
0.394087
0.432943
0.392871
0.37294
0.336298
0.371974
0.335317
0.31749
0.270277
0.31624
0.269009
0.264181
0.221098
0.263181
0.220088
0.248047
0.248022
0.246772
0.246748
0.201228
0.201208
0.200214
0.200195
0.270204
0.317375
0.268938
0.316127
0.22104
0.264085
0.220031
0.263088
0.393943
0.433977
0.392729
0.432785
0.336175
0.372801
0.335196
0.371836
0.435355
0.395381
0.434905
0.394891
0.373897
0.337313
0.373549
0.336933
0.318892
0.271737
0.31835
0.271163
0.265273
0.222233
0.264855
0.221792
0.249531
0.249506
0.248944
0.248919
0.202382
0.202362
0.201929
0.201909
0.271662
0.318773
0.27109
0.318233
0.222173
0.265175
0.221732
0.264758
0.395233
0.435192
0.394743
0.434742
0.337187
0.373754
0.336808
0.373406
0.435452
0.395578
0.435504
0.39558
0.373925
0.337427
0.37399
0.337449
0.319224
0.272149
0.319164
0.272048
0.265491
0.222516
0.265466
0.222459
0.24998
0.249954
0.24986
0.249834
0.202695
0.202675
0.202621
0.202601
0.272073
0.319104
0.271973
0.319044
0.222455
0.265392
0.222398
0.265367
0.395428
0.435287
0.395431
0.435338
0.337299
0.373781
0.337322
0.373845
0.434802
0.395056
0.4352
0.39539
0.373336
0.33695
0.373689
0.337247
0.318858
0.271878
0.319116
0.272085
0.265146
0.222251
0.26538
0.222442
0.249754
0.249728
0.249936
0.24991
0.202468
0.202447
0.202638
0.202617
0.271802
0.318737
0.27201
0.318996
0.22219
0.265046
0.222381
0.26528
0.394905
0.434637
0.395239
0.435033
0.336821
0.373191
0.337118
0.373543
0.433623
0.394024
0.434255
0.394581
0.372311
0.336057
0.372856
0.336535
0.318001
0.27113
0.318476
0.27155
0.264402
0.2216
0.264809
0.22196
0.249058
0.249033
0.249451
0.249426
0.201862
0.201842
0.202199
0.202179
0.271055
0.317881
0.271475
0.318356
0.221539
0.264303
0.221899
0.26471
0.393873
0.433457
0.394431
0.434088
0.335929
0.372166
0.336406
0.37271
0.432085
0.392654
0.432882
0.393365
0.370991
0.334889
0.371672
0.335493
0.316824
0.270074
0.317444
0.270634
0.263401
0.220703
0.263926
0.221176
0.24806
0.248035
0.24859
0.248565
0.201015
0.200995
0.201462
0.201441
0.269999
0.316704
0.270559
0.317325
0.220643
0.263302
0.221115
0.263827
0.392504
0.431922
0.393215
0.432716
0.334762
0.370848
0.335365
0.371527
0.430283
0.391037
0.431203
0.391864
0.36945
0.333519
0.370235
0.334217
0.315416
0.268797
0.316144
0.269459
0.262213
0.219629
0.262825
0.220184
0.246847
0.246822
0.247477
0.247452
0.199996
0.199976
0.200523
0.200502
0.268723
0.315298
0.269385
0.316025
0.219569
0.262116
0.220123
0.262727
0.39089
0.430121
0.391715
0.431039
0.333393
0.369309
0.334091
0.370091
0.428263
0.389224
0.429288
0.390145
0.367728
0.331986
0.3686
0.332763
0.313828
0.267351
0.314641
0.268094
0.260877
0.218416
0.26156
0.219037
0.245469
0.245444
0.246177
0.246152
0.198842
0.198823
0.199433
0.199413
0.267277
0.313711
0.26802
0.314524
0.218357
0.260781
0.218977
0.261463
0.389079
0.428104
0.389998
0.429126
0.331862
0.367588
0.332638
0.368458
0.426053
0.38724
0.427171
0.388244
0.365842
0.330309
0.366794
0.331155
0.312084
0.265759
0.312973
0.266572
0.259413
0.217084
0.260158
0.217763
0.243951
0.243926
0.244727
0.244702
0.197574
0.197554
0.19822
0.198201
0.265687
0.31197
0.266499
0.312858
0.217026
0.259318
0.217704
0.260062
0.387097
0.425895
0.3881
0.427011
0.330187
0.365704
0.331032
0.366654
0.423663
0.385098
0.42487
0.386181
0.363802
0.328498
0.364831
0.329411
0.310199
0.264035
0.311158
0.264914
0.257829
0.215641
0.258633
0.216375
0.242305
0.242281
0.243144
0.243119
0.196199
0.196179
0.196898
0.196879
0.263964
0.310086
0.264842
0.311044
0.215584
0.257736
0.216317
0.258539
0.384957
0.423509
0.386038
0.424713
0.328377
0.363667
0.32929
0.364694
0.421097
0.382802
0.422393
0.383961
0.36161
0.326554
0.362715
0.327534
0.308175
0.262183
0.309203
0.263125
0.256128
0.21409
0.256991
0.214878
0.240536
0.240512
0.241436
0.241412
0.19472
0.194701
0.195471
0.195452
0.262113
0.308064
0.263055
0.309091
0.214034
0.256036
0.214821
0.256898
0.382663
0.420946
0.383821
0.422238
0.326436
0.361477
0.327415
0.36258
0.418356
0.38035
0.419739
0.381587
0.359265
0.324479
0.360447
0.325525
0.306013
0.260204
0.307111
0.26121
0.25431
0.212432
0.255231
0.213273
0.238644
0.238621
0.239606
0.239582
0.193139
0.19312
0.193941
0.193922
0.260135
0.305904
0.26114
0.307001
0.212377
0.254221
0.213218
0.255141
0.380214
0.418207
0.38145
0.419588
0.324364
0.359135
0.325408
0.360315
0.415439
0.377745
0.41691
0.379059
0.356769
0.322273
0.358027
0.323384
0.303714
0.258097
0.304881
0.259167
0.252377
0.210667
0.253356
0.211562
0.236631
0.236608
0.237654
0.237631
0.191454
0.191436
0.192308
0.19229
0.25803
0.303608
0.259099
0.304773
0.210613
0.252289
0.211507
0.253267
0.377612
0.415294
0.378924
0.416762
0.322159
0.356641
0.32327
0.357897
0.412346
0.374986
0.413905
0.376377
0.35412
0.319934
0.355454
0.321112
0.301278
0.255864
0.302513
0.256997
0.250326
0.208795
0.251364
0.209743
0.234495
0.234473
0.235579
0.235557
0.189667
0.18965
0.190573
0.190555
0.255798
0.301174
0.256931
0.302408
0.208742
0.25024
0.20969
0.251277
0.374856
0.412204
0.376246
0.41376
0.319823
0.353995
0.321
0.355327
0.40908
0.372073
0.410725
0.373541
0.35132
0.317464
0.352729
0.318707
0.298704
0.253503
0.300008
0.2547
0.24816
0.206816
0.249255
0.207818
0.232237
0.232216
0.233383
0.233361
0.187778
0.187761
0.188734
0.188717
0.253438
0.298602
0.254635
0.299905
0.206764
0.248076
0.207765
0.24917
0.371946
0.408941
0.373412
0.410584
0.317356
0.351199
0.318598
0.352605
0.40564
0.369006
0.407372
0.370551
0.348372
0.314865
0.349855
0.316172
0.295993
0.251014
0.297365
0.252275
0.245878
0.20473
0.247031
0.205785
0.229856
0.229835
0.231063
0.231041
0.185786
0.185769
0.186794
0.186777
0.250951
0.295893
0.252212
0.297265
0.204679
0.245796
0.205734
0.246948
0.368882
0.405505
0.370425
0.407234
0.31476
0.348254
0.316066
0.349734
0.402029
0.365785
0.403847
0.367407
0.345277
0.312138
0.346834
0.313509
0.293141
0.248395
0.294584
0.249722
0.24348
0.202536
0.244692
0.203646
0.227349
0.227328
0.228619
0.228598
0.18369
0.183674
0.18475
0.184734
0.248333
0.293044
0.24966
0.294486
0.202487
0.243401
0.203596
0.244611
0.365664
0.401898
0.367285
0.403713
0.312035
0.345162
0.313405
0.346716
0.398247
0.362407
0.400151
0.364107
0.342036
0.309279
0.343666
0.310717
0.290146
0.24564
0.291662
0.247036
0.240964
0.200232
0.242236
0.201398
0.224711
0.224691
0.226048
0.226027
0.181488
0.181472
0.182602
0.182586
0.245581
0.290052
0.246975
0.291566
0.200185
0.240887
0.20135
0.242157
0.36229
0.39812
0.363988
0.40002
0.309179
0.341924
0.310616
0.343552
0.394284
0.358868
0.396281
0.360652
0.338643
0.306278
0.34035
0.307789
0.286997
0.242737
0.288592
0.244209
0.238321
0.197808
0.239658
0.199035
0.221928
0.221908
0.223339
0.223319
0.179169
0.179154
0.180343
0.180328
0.24268
0.286906
0.244151
0.288499
0.197762
0.238246
0.198989
0.239582
0.358754
0.39416
0.360536
0.396154
0.306182
0.338535
0.307691
0.340239
0.39012
0.355138
0.39222
0.357021
0.335087
0.303124
0.336878
0.304714
0.283669
0.239663
0.285357
0.241225
0.235533
0.195247
0.236945
0.196546
0.218977
0.218958
0.220476
0.220457
0.176717
0.176702
0.17796
0.177945
0.239607
0.28358
0.241168
0.285267
0.195203
0.235461
0.1965
0.236871
0.355029
0.390001
0.35691
0.392097
0.303031
0.334982
0.304619
0.336771
0.385725
0.351185
0.387945
0.353185
0.331341
0.299789
0.333231
0.301473
0.280127
0.236382
0.281927
0.238052
0.232574
0.192521
0.234075
0.193906
0.215822
0.215804
0.217429
0.21741
0.174103
0.174089
0.175431
0.175417
0.236328
0.280041
0.237997
0.28184
0.192478
0.232504
0.193863
0.234005
0.35108
0.38561
0.353077
0.387827
0.2997
0.331241
0.301382
0.333127
0.381053
0.346959
0.383419
0.349102
0.327368
0.296233
0.329377
0.298034
0.276319
0.232841
0.27826
0.234648
0.229401
0.189587
0.231016
0.191082
0.212412
0.212394
0.214154
0.214136
0.171285
0.171271
0.172722
0.172708
0.232789
0.276237
0.234596
0.278176
0.189546
0.229334
0.191041
0.230948
0.346858
0.380943
0.348999
0.383305
0.296147
0.327272
0.297946
0.329278
0.376039
0.342392
0.378585
0.344716
0.323113
0.292398
0.325272
0.294347
0.272175
0.228969
0.274295
0.230952
0.225957
0.186388
0.227716
0.188024
0.208673
0.208656
0.210589
0.210572
0.168205
0.168192
0.169781
0.169768
0.22892
0.272098
0.230902
0.274215
0.186349
0.225894
0.187985
0.227651
0.342296
0.375934
0.344617
0.378477
0.292317
0.323022
0.294263
0.325177
0.370593
0.337392
0.373368
0.339945
0.318499
0.288206
0.320848
0.290345
0.267601
0.224669
0.269949
0.22688
0.222162
0.182844
0.224108
0.184664
0.204509
0.204493
0.206651
0.206635
0.164783
0.164771
0.166542
0.166529
0.224622
0.267527
0.226832
0.269873
0.182807
0.222103
0.184627
0.224047
0.337301
0.370494
0.339852
0.373265
0.288129
0.318413
0.290266
0.320759
0.364605
0.331841
0.367665
0.334685
0.313428
0.283552
0.316019
0.285936
0.262472
0.219815
0.265114
0.222321
0.217912
0.178849
0.2201
0.18091
0.199792
0.199778
0.202229
0.202214
0.160914
0.160903
0.162912
0.1629
0.219772
0.262404
0.222276
0.265043
0.178816
0.217857
0.180875
0.220043
0.331756
0.364512
0.334597
0.367569
0.283481
0.313347
0.285862
0.315935
0.357959
0.3256
0.361362
0.328809
0.307786
0.278313
0.310677
0.281007
0.256626
0.214235
0.259651
0.217129
0.213067
0.17426
0.215574
0.176639
0.194353
0.19434
0.197176
0.197163
0.156457
0.156447
0.158769
0.158759
0.214196
0.256564
0.217088
0.259585
0.17423
0.213017
0.176608
0.215521
0.325523
0.357874
0.328727
0.361272
0.278248
0.307713
0.280939
0.310599
0.350625
0.318491
0.354361
0.322162
0.301505
0.27231
0.304715
0.275416
0.249802
0.20767
0.253361
0.211098
0.207394
0.168854
0.210355
0.171677
0.187951
0.18794
0.19129
0.191278
0.15121
0.151202
0.153946
0.153937
0.207636
0.249747
0.211061
0.253302
0.168828
0.20735
0.171649
0.210308
0.318421
0.35055
0.322088
0.35428
0.272252
0.30144
0.275354
0.304645
0.343249
0.309989
0.346811
0.314483
0.294987
0.264999
0.29818
0.268888
0.241353
0.199673
0.245855
0.203889
0.2003
0.162243
0.204092
0.165731
0.18029
0.18028
0.184296
0.184285
0.144926
0.144919
0.148211
0.148203
0.199644
0.241305
0.203857
0.245803
0.162221
0.200263
0.165707
0.204051
0.30993
0.343184
0.314419
0.346739
0.26495
0.29493
0.268835
0.298118
0.341528
0.295595
0.340827
0.304443
0.292656
0.252186
0.292611
0.260106
0.22928
0.189703
0.23598
0.194943
0.189978
0.15396
0.19573
0.158314
0.171259
0.171251
0.175925
0.175916
0.137531
0.137526
0.141347
0.14134
0.189679
0.229242
0.194917
0.235937
0.153942
0.189949
0.158295
0.195696
0.295547
0.341474
0.304388
0.340767
0.252147
0.29261
0.260061
0.292559
0.175679
0.147349
0.106461
0.088958
0.165661
0.138474
0.0986104
0.0821948
0.0843333
0.0450394
0.0396225
0.0128146
0.0772907
0.0395244
0.0351365
0.0107663
0.0238037
0.0238168
0.00524649
0.00525044
0.0193234
0.0193352
0.00462238
0.00462513
0.04506
0.0843495
0.0128329
0.0396427
0.0395468
0.0773069
0.0107779
0.0351557
0.14736
0.175685
0.0889754
0.106472
0.138485
0.165668
0.0822119
0.0986216
0.270509
0.233718
0.22816
0.194376
0.255433
0.219755
0.215686
0.183026
0.159998
0.113414
0.124287
0.079864
0.147571
0.102116
0.114583
0.0713318
0.090934
0.0909364
0.0579449
0.0579517
0.0801369
0.0801401
0.049768
0.0497762
0.113418
0.159995
0.0798762
0.124295
0.102121
0.147572
0.0713452
0.114592
0.233709
0.270495
0.194378
0.228157
0.219749
0.255422
0.18303
0.215685
0.337817