/*--------------------------------*- C++ -*----------------------------------*\
  =========                 |
  \\      /  F ield         | OpenFOAM: The Open Source CFD Toolbox
   \\    /   O peration     | Website:  https://openfoam.org
    \\  /    A nd           | Version:  9
     \\/     M anipulation  |
\*---------------------------------------------------------------------------*/
FoamFile
{
    format      ascii;
    class       volScalarField;
    location    "3";
    object      nut;
}
// * * * * * * * * * * * * * * * * * * * * * * * * * * * * * * * * * * * * * //

dimensions      [0 2 -1 0 0 0 0];

internalField   nonuniform List<scalar> 
36360
(
0.0027624
0.00241019
0.00154414
0.00137907
0.000469379
0.000423495
0.000257542
0.000254216
0.00153959
0.000774205
0.000617995
0.000254195
0.000263953
0.000171999
0.000182562
0.000159495
0.000331559
0.00033196
0.000163953
0.000163996
0.000138942
0.000138954
0.000160956
0.000160955
0.000775193
0.00154022
0.000254356
0.00061872
0.000172042
0.000264017
0.000159501
0.000182593
0.00241056
0.00276244
0.00137951
0.00154429
0.000423545
0.000469416
0.000254267
0.000257564
0.00413323
0.00373584
0.00355561
0.00315969
0.000680744
0.000605723
0.000600838
0.000531592
0.00288676
0.00229598
0.00227544
0.00157472
0.000462479
0.00033466
0.000379978
0.00023828
0.00205928
0.00205959
0.00105639
0.00105716
0.000245689
0.000245743
0.000162376
0.000162419
0.00229659
0.00288717
0.0015756
0.00227601
0.000334744
0.000462525
0.000238364
0.000380044
0.00373594
0.00413298
0.00315994
0.00355552
0.000605743
0.000680749
0.000531627
0.000600857
0.00498542
0.00461738
0.00459505
0.00421063
0.00077859
0.000702964
0.000736136
0.000660086
0.00386224
0.00343719
0.00340997
0.00291671
0.000573009
0.000473391
0.000524109
0.000412737
0.00331959
0.00331971
0.00276078
0.00276097
0.000419207
0.000419225
0.000346059
0.000346091
0.00343741
0.00386227
0.0029171
0.00341019
0.00047342
0.00057302
0.000412787
0.000524137
0.00461708
0.00498471
0.00421054
0.00459458
0.000702953
0.000778564
0.000660091
0.000736125
0.00561606
0.00527772
0.00532202
0.00496973
0.000841686
0.000767724
0.000812957
0.000738137
0.00459087
0.004242
0.00425251
0.00387252
0.000646367
0.000560058
0.000612999
0.000521285
0.00415288
0.0041529
0.00377324
0.00377331
0.000516971
0.000516975
0.000474072
0.000474081
0.00424196
0.00459054
0.00387259
0.00425236
0.000560059
0.000646348
0.000521298
0.000612995
0.00527698
0.00561482
0.00496922
0.00532105
0.000767681
0.000841625
0.00073811
0.000812913
0.00609433
0.00577863
0.00587169
0.00554536
0.000886549
0.000814089
0.000865934
0.000792761
0.00513531
0.00482491
0.00488262
0.00455574
0.000698069
0.000618369
0.000674382
0.000591889
0.00474536
0.00474531
0.00447238
0.00447236
0.000579693
0.000579689
0.000551424
0.000551423
0.00482465
0.00513465
0.00455558
0.00488212
0.000618349
0.000698022
0.000591879
0.000674349
0.00577745
0.00609255
0.0055444
0.00587017
0.000814014
0.000886452
0.000792702
0.000865855
0.00645244
0.0061532
0.00628625
0.00597947
0.000918772
0.000847463
0.000903987
0.000832144
0.00553801
0.00524968
0.00535166
0.00505352
0.000734854
0.000658853
0.000718015
0.000640408
0.0051745
0.00517438
0.00497636
0.00497627
0.000622399
0.000622388
0.000603006
0.000602998
0.00524923
0.00553703
0.00505316
0.00535084
0.000658815
0.000734782
0.000640378
0.000717956
0.00615161
0.00645014
0.00597808
0.00628419
0.000847358
0.000918641
0.000832053
0.000903872
0.00671511
0.00642674
0.00659389
0.00630062
0.000941532
0.000871047
0.000931153
0.00086029
0.00582974
0.00555536
0.00569544
0.00541466
0.000760663
0.000686883
0.000748914
0.000674157
0.00548295
0.00548278
0.00534085
0.00534071
0.000651697
0.000651681
0.000638416
0.000638403
0.00555475
0.0058285
0.00541413
0.00569433
0.000686831
0.000760569
0.000674111
0.000748831
0.00642478
0.00671233
0.00629884
0.00659133
0.000870915
0.000941372
0.000860171
0.000931006
0.00690122
0.00662008
0.00681606
0.00653162
0.000957099
0.000887182
0.00095007
0.000879893
0.00603486
0.00576982
0.00594106
0.00567162
0.000778252
0.000705844
0.000770317
0.000697302
0.00569964
0.00569943
0.00560023
0.00560004
0.000671422
0.000671401
0.000662542
0.000662523
0.00576907
0.0060334
0.00567094
0.0059397
0.00070578
0.00077814
0.000697243
0.000770214
0.00661782
0.00689804
0.0065295
0.00681305
0.000887028
0.000956914
0.00087975
0.000949896
0.00702731
0.00675084
0.00697015
0.00669155
0.000967239
0.000897703
0.000962724
0.000893014
0.00617324
0.00591463
0.00611047
0.00584875
0.000789713
0.000718154
0.000784609
0.000712674
0.00584642
0.00584618
0.00577945
0.00577922
0.000684199
0.000684175
0.000678511
0.000678489
0.00591378
0.00617159
0.00584795
0.00610891
0.00071808
0.000789587
0.000712605
0.00078449
0.00674832
0.00702381
0.00668915
0.00696678
0.000897532
0.000967034
0.000892851
0.000962527
0.00710799
0.00683444
0.00707182
0.00679692
0.0009734
0.000904109
0.000970713
0.000901311
0.00626158
0.00600742
0.00622187
0.0059655
0.000796716
0.000725672
0.000793656
0.000722384
0.00594088
0.00594061
0.00589801
0.00589776
0.000691999
0.000691974
0.000688586
0.000688561
0.00600649
0.0062598
0.00596461
0.00622015
0.000725591
0.00079658
0.000722307
0.000793525
0.00683174
0.00710424
0.00679431
0.00706817
0.000903925
0.00097318
0.000901133
0.0009705
0.00715534
0.00688357
0.00713444
0.00686183
0.000976723
0.000907581
0.000975329
0.000906118
0.00631351
0.00606232
0.00629045
0.00603771
0.000800564
0.000729824
0.000798939
0.000728064
0.00599713
0.00599684
0.00597172
0.00597145
0.000696318
0.00069629
0.000694483
0.000694456
0.00606133
0.00631164
0.00603676
0.00628861
0.000729739
0.000800421
0.000727981
0.000798799
0.00688073
0.00715141
0.00685905
0.00713057
0.000907388
0.000976494
0.00090593
0.000975103
0.00717915
0.00690841
0.00716889
0.00689765
0.000978082
0.000909026
0.000977579
0.000908482
0.00633976
0.00609048
0.00632833
0.00607799
0.000802247
0.000731681
0.0008016
0.000730956
0.00602636
0.00602606
0.00601319
0.0060129
0.000698271
0.000698243
0.000697501
0.000697473
0.00608946
0.00633782
0.00607698
0.00632642
0.000731594
0.000802099
0.000730869
0.000801454
0.00690549
0.0071751
0.00689476
0.00716488
0.000908829
0.000977846
0.000908286
0.000977345
0.00718603
0.00691585
0.00718326
0.00691297
0.000978127
0.000909114
0.000978193
0.000909164
0.00634789
0.00609988
0.00634482
0.00609608
0.000802479
0.000732005
0.000802478
0.00073197
0.00603667
0.00603637
0.00603225
0.00603195
0.000698646
0.000698617
0.000698589
0.000698561
0.00609884
0.00634592
0.00609505
0.00634286
0.000731917
0.00080233
0.000731882
0.00080233
0.00691288
0.00718192
0.00691002
0.00717916
0.000908914
0.000977889
0.000908965
0.000977955
0.00718251
0.00691283
0.0071848
0.00691489
0.00097731
0.000908329
0.000977798
0.000908804
0.00634509
0.00609775
0.00634702
0.00609915
0.000801809
0.000731395
0.000802243
0.000731805
0.00603505
0.00603474
0.006036
0.0060357
0.000698067
0.000698038
0.000698462
0.000698433
0.0060967
0.00634311
0.00609811
0.00634504
0.000731306
0.00080166
0.000731716
0.000802093
0.00690984
0.00717837
0.00691191
0.00718065
0.000908128
0.00097707
0.000908603
0.000977558
0.00717132
0.00690197
0.00717686
0.00690728
0.000975897
0.000906931
0.000976636
0.000907659
0.00633406
0.00608703
0.00633934
0.00609195
0.000800493
0.000730105
0.000801185
0.000730783
0.00602475
0.00602444
0.0060293
0.00602899
0.000696789
0.00069676
0.000697459
0.00069743
0.00608598
0.00633207
0.0060909
0.00633735
0.000730016
0.000800343
0.000730694
0.000801036
0.00689898
0.00716718
0.00690428
0.0071727
0.00090673
0.000975658
0.000907458
0.000976396
0.00715516
0.00688615
0.00716296
0.00689371
0.000974086
0.00090513
0.000975009
0.000906044
0.00631791
0.00607098
0.00632551
0.00607831
0.000798764
0.00072839
0.000799646
0.000729263
0.00600898
0.00600867
0.006016
0.00601569
0.000695079
0.000695051
0.000695948
0.000695919
0.00606993
0.00631593
0.00607726
0.00632352
0.000728302
0.000798615
0.000729175
0.000799497
0.00688317
0.00715104
0.00689072
0.00715881
0.000904931
0.000973849
0.000905844
0.00097477
0.00713538
0.00686677
0.00714486
0.00687597
0.000971971
0.000903025
0.000973037
0.000904083
0.0062981
0.00605111
0.00630739
0.0060602
0.000796727
0.000726359
0.000797754
0.000727381
0.0059893
0.005989
0.00599812
0.00599782
0.00069305
0.000693022
0.000694068
0.00069404
0.00605007
0.00629614
0.00605916
0.00630542
0.000726272
0.00079658
0.000727293
0.000797606
0.00686381
0.00713129
0.00687301
0.00714074
0.000902828
0.000971736
0.000903885
0.0009728
0.00711272
0.00684461
0.00712358
0.00685513
0.000969602
0.000900666
0.000970792
0.000901847
0.00627545
0.00602829
0.00628608
0.00603877
0.000794437
0.000724071
0.000795586
0.000725217
0.00596661
0.00596631
0.00597686
0.00597656
0.000690759
0.000690732
0.000691904
0.000691876
0.00602727
0.00627351
0.00603775
0.00628413
0.000723985
0.000794292
0.000725131
0.000795441
0.00684168
0.00710867
0.00685219
0.00711948
0.000900472
0.000969369
0.000901651
0.000970557
0.00708759
0.00682008
0.00709965
0.00683175
0.000967
0.000898076
0.000968304
0.000899371
0.00625038
0.00600297
0.00626218
0.00601466
0.000791918
0.00072155
0.00079318
0.000722811
0.00594137
0.00594107
0.00595285
0.00595255
0.000688234
0.000688207
0.000689494
0.000689467
0.00600196
0.00624846
0.00601365
0.00626026
0.000721466
0.000791776
0.000722726
0.000793037
0.00681718
0.00708358
0.00682885
0.0070956
0.000897884
0.00096677
0.000899178
0.000968072
0.00706014
0.00679334
0.00707335
0.00680611
0.000964173
0.000895263
0.00096559
0.00089667
0.00622305
0.00597532
0.00623597
0.00598816
0.00078918
0.000718806
0.000790552
0.000720179
0.00591377
0.00591347
0.00592641
0.00592611
0.000685482
0.000685456
0.000686856
0.000686829
0.00597433
0.00622115
0.00598716
0.00623407
0.000718724
0.00078904
0.000720095
0.000790411
0.00679048
0.00705618
0.00680324
0.00706934
0.000895074
0.000963947
0.000896479
0.000965361
0.00703044
0.00676446
0.00704477
0.0067783
0.000961121
0.000892226
0.000962651
0.000893745
0.00619353
0.00594543
0.00620754
0.00595939
0.000786222
0.000715839
0.000787704
0.000717323
0.00588388
0.0058836
0.00589766
0.00589737
0.000682505
0.000682478
0.000683992
0.000683965
0.00594445
0.00619166
0.00595841
0.00620567
0.000715757
0.000786084
0.000717242
0.000787566
0.00676165
0.00702653
0.00677547
0.00704082
0.00089204
0.000960898
0.000893558
0.000962426
0.00699848
0.00673344
0.00701395
0.00674836
0.00095784
0.000888962
0.000959486
0.000890596
0.00616182
0.00591329
0.00617693
0.00592838
0.00078304
0.000712643
0.000784636
0.000714243
0.00585173
0.00585144
0.00586664
0.00586636
0.000679296
0.000679271
0.0006809
0.000680874
0.00591232
0.00615998
0.00592741
0.00617509
0.000712564
0.000782905
0.000714163
0.000784499
0.00673067
0.00699462
0.00674556
0.00701004
0.000888779
0.000957621
0.000890412
0.000959264
0.00696424
0.00670025
0.00698085
0.00671626
0.000954328
0.000885466
0.00095609
0.000887217
0.0061279
0.00587887
0.00614412
0.0058951
0.000779632
0.000709217
0.000781341
0.000710933
0.00581728
0.005817
0.00583334
0.00583306
0.000675853
0.000675828
0.000677575
0.00067755
0.00587793
0.00612609
0.00589415
0.00614231
0.000709139
0.0007795
0.000710855
0.000781208
0.00669752
0.00696044
0.00671351
0.006977
0.000885287
0.000954113
0.000887036
0.000955872
0.00692772
0.00666488
0.00694548
0.00668199
0.000950582
0.000881737
0.000952462
0.000883605
0.00609173
0.00584216
0.00610908
0.00585955
0.000775993
0.000705555
0.000777818
0.000707389
0.00578051
0.00578024
0.00579774
0.00579747
0.000672172
0.000672148
0.000674014
0.000673989
0.00584124
0.00608996
0.00585861
0.0061073
0.000705479
0.000775864
0.000707313
0.000777688
0.00666219
0.00692398
0.00667928
0.00694169
0.000881561
0.000950371
0.000883427
0.000952248
0.00688888
0.0066273
0.0069078
0.00664552
0.000946603
0.000877773
0.000948599
0.000879759
0.0060533
0.00580313
0.0060718
0.00582169
0.000772123
0.000701656
0.000774065
0.00070361
0.00574142
0.00574115
0.00575982
0.00575955
0.00066825
0.000668226
0.000670213
0.000670189
0.00580223
0.00605156
0.00582077
0.00607004
0.000701582
0.000771997
0.000703535
0.000773937
0.00662466
0.00688521
0.00664286
0.00690408
0.000877601
0.000946396
0.000879585
0.00094839
0.00684772
0.00658747
0.00686782
0.00660683
0.000942391
0.000873572
0.000944504
0.000875677
0.00601257
0.00576174
0.00603223
0.00578149
0.00076802
0.000697518
0.000770079
0.000699592
0.00569995
0.00569969
0.00571955
0.00571929
0.000664086
0.000664063
0.00066617
0.000666147
0.00576086
0.00601087
0.00578059
0.00603051
0.000697447
0.000767897
0.000699519
0.000769954
0.00658489
0.00684412
0.00660422
0.00686416
0.000873404
0.000942189
0.000875507
0.000944299
0.00680419
0.00654532
0.00682548
0.00656586
0.000937948
0.000869132
0.000940177
0.000871357
0.00596947
0.00571792
0.00599033
0.0057389
0.000763683
0.00069314
0.000765859
0.000695335
0.00565604
0.00565579
0.00567687
0.00567662
0.000659677
0.000659655
0.000661885
0.000661862
0.00571706
0.00596781
0.00573803
0.00598865
0.00069307
0.000763563
0.000695264
0.000765738
0.00654279
0.00680065
0.0065633
0.00682189
0.000868968
0.00093775
0.000871191
0.000939976
0.0067582
0.00650081
0.00678074
0.00652253
0.000933273
0.000864461
0.000935618
0.000866799
0.00592391
0.00567155
0.00594602
0.00569383
0.000759109
0.000688515
0.000761405
0.000690835
0.00560955
0.0056093
0.0056317
0.00563146
0.000655017
0.000654995
0.000657352
0.00065733
0.0056707
0.00592228
0.00569298
0.00594438
0.000688448
0.000758992
0.000690767
0.000761287
0.00649833
0.00675475
0.00652003
0.00677722
0.000864301
0.000933081
0.000866637
0.000935423
0.00670957
0.00645372
0.00673348
0.0064768
0.000928359
0.000859557
0.000930827
0.000862017
0.00587562
0.00562232
0.00589916
0.00564609
0.000754284
0.000683627
0.000756709
0.000686082
0.00556017
0.00555994
0.00558383
0.00558359
0.000650087
0.000650067
0.000652561
0.00065254
0.0056215
0.00587404
0.00564526
0.00589756
0.000683562
0.000754171
0.000686016
0.000756595
0.00645131
0.00670619
0.00647436
0.00673004
0.000859402
0.000928172
0.00086186
0.000930637
0.00665784
0.00640354
0.00668337
0.00642825
0.000923181
0.000854378
0.000925785
0.000856981
0.0058241
0.00556974
0.00584934
0.00559527
0.000749176
0.000678442
0.000751748
0.000681052
0.00550741
0.00550719
0.00553285
0.00553262
0.000644855
0.000644835
0.000647486
0.000647466
0.00556894
0.00582257
0.00559447
0.00584779
0.00067838
0.000749067
0.000680988
0.000751638
0.0064012
0.00665455
0.00642587
0.00668002
0.000854228
0.000923
0.000856829
0.000925601
0.0066024
0.00634959
0.00662989
0.00637629
0.000917699
0.000848881
0.000920462
0.000851651
0.00576863
0.00551304
0.00579596
0.00554076
0.000743733
0.000672905
0.000746481
0.000675699
0.0054505
0.00545028
0.00547814
0.00547792
0.000639262
0.000639243
0.000642083
0.000642064
0.00551228
0.00576715
0.00553998
0.00579446
0.000672845
0.000743629
0.000675639
0.000746375
0.00634732
0.0065992
0.00637398
0.00662663
0.000848737
0.000917524
0.000851503
0.000920283
0.00654234
0.00629093
0.00657229
0.00632014
0.000911848
0.000842999
0.000914806
0.000845972
0.0057082
0.00545118
0.00573818
0.00548165
0.000737878
0.000666929
0.000740845
0.000669957
0.00538835
0.00538814
0.00541878
0.00541857
0.000633218
0.0006332
0.000636279
0.000636261
0.00545044
0.00570677
0.00548091
0.00573672
0.000666873
0.000737779
0.000669899
0.000740743
0.00628874
0.00653925
0.00631791
0.00656913
0.00084286
0.00091168
0.00084583
0.000914633
0.0064764
0.00622624
0.00650949
0.00625867
0.00090553
0.000836631
0.000908737
0.000839862
0.0056414
0.00538267
0.00567478
0.00541669
0.000731496
0.00066039
0.000734744
0.000663718
0.00531947
0.00531928
0.0053535
0.0053533
0.000626592
0.000626575
0.000629964
0.000629947
0.00538197
0.00564004
0.00541598
0.00567339
0.000660337
0.000731402
0.000663664
0.000734647
0.00622414
0.00647343
0.00625653
0.00650644
0.000836499
0.000905369
0.000839726
0.000908571
0.00640279
0.00615371
0.00643999
0.00619034
0.000898604
0.000829631
0.000902136
0.000833201
0.00556637
0.00530558
0.00560415
0.00534419
0.000724426
0.000653112
0.000728041
0.000656836
0.00524193
0.00524175
0.0052806
0.00528041
0.000619201
0.000619186
0.000622982
0.000622967
0.00530493
0.00556509
0.00534352
0.00560283
0.000653064
0.000724338
0.000656785
0.00072795
0.00615172
0.00639996
0.0061883
0.00643707
0.000829506
0.000898451
0.000833072
0.000901978
0.00631914
0.00607098
0.00636172
0.00611305
0.000890877
0.000821816
0.000894837
0.000825817
0.00548069
0.00521739
0.00552415
0.00526193
0.000716457
0.000644862
0.000720552
0.000649106
0.00515321
0.00515304
0.00519784
0.00519767
0.0006108
0.000610787
0.000615123
0.000615109
0.0052168
0.00547949
0.00526131
0.00552292
0.000644819
0.000716376
0.00064906
0.000720468
0.00606911
0.00631646
0.00611111
0.00635894
0.0008217
0.000890733
0.000825697
0.000894688
0.00622229
0.00597513
0.00627193
0.00602421
0.000882096
0.000812971
0.000886619
0.000817518
0.00538117
0.00511483
0.00543205
0.00516706
0.000707303
0.000635317
0.000712034
0.000640257
0.00505009
0.00504995
0.0051024
0.00510224
0.000601051
0.00060104
0.000606097
0.000606085
0.00511431
0.00538009
0.0051665
0.00543091
0.000635279
0.000707231
0.000640216
0.000711957
0.00597341
0.00621979
0.00602241
0.00626932
0.000812865
0.000881964
0.000817407
0.000886481
0.00610862
0.00586203
0.00616711
0.00592038
0.000871994
0.000802821
0.000877205
0.00080806
0.00526321
0.00499374
0.00532405
0.00505582
0.000696512
0.000623994
0.000702137
0.000629899
0.00492904
0.00492893
0.00499076
0.00499063
0.000589492
0.000589484
0.000595511
0.000595501
0.00499331
0.00526227
0.00505535
0.00532304
0.000623963
0.00069645
0.000629864
0.00070207
0.00586049
0.00610635
0.00591875
0.0061647
0.000802728
0.000871876
0.00080796
0.00087708
0.00597814
0.00572426
0.00604435
0.00579637
0.00086077
0.000790775
0.000866428
0.000797106
0.0051197
0.00485095
0.00519439
0.004924
0.000683056
0.000610108
0.000690218
0.000617417
0.00478905
0.00478897
0.00485997
0.00485988
0.000575578
0.000575573
0.000582838
0.000582831
0.00485062
0.00511894
0.00492362
0.00519354
0.000610087
0.000683007
0.000617391
0.000690163
0.00572295
0.00597614
0.00579494
0.0060422
0.000790697
0.000860669
0.00079702
0.000866317
0.00586041
0.0055308
0.00591304
0.00563862
0.000849942
0.000769596
0.000855442
0.000782738
0.00494814
0.00469713
0.00503534
0.00477234
0.000663692
0.0005928
0.000674448
0.000601868
0.00464188
0.00464183
0.0047135
0.00471344
0.000559281
0.000559279
0.000567646
0.000567643
0.00469689
0.00494754
0.00477207
0.00503467
0.000592787
0.000663658
0.000601851
0.000674407
0.00552976
0.00585874
0.00563744
0.00591118
0.000769537
0.000849862
0.000782668
0.000855351
0.00435307
0.00382941
0.00268299
0.00233254
0.00373354
0.00326537
0.00221499
0.0019252
0.0027256
0.00179148
0.00133975
0.000506263
0.00223012
0.00134236
0.00101872
0.000359042
0.00106559
0.00106662
0.00026443
0.000264614
0.000678437
0.000679229
0.000199571
0.000199714
0.0017931
0.00272661
0.000506993
0.00134082
0.00134375
0.00223099
0.000359518
0.00101964
0.00382992
0.00435304
0.0023332
0.00268313
0.00326585
0.00373357
0.00192579
0.00221516
0.00669865
0.00609765
0.00563572
0.00505049
0.00571646
0.00517162
0.00483915
0.00430926
0.00502176
0.00428306
0.00393427
0.00306528
0.00415135
0.0034332
0.00325388
0.00240734
0.00400131
0.00400168
0.00263714
0.00263786
0.00314146
0.00314185
0.00192795
0.00192868
0.00428374
0.00502215
0.00306639
0.00393502
0.00343391
0.0041518
0.00240841
0.00325459
0.00609754
0.00669794
0.00505074
0.0056354
0.00517165
0.00571599
0.00430955
0.00483897
0.00844134
0.00785474
0.00762086
0.00702338
0.00710105
0.00657232
0.00645564
0.00591527
0.00688733
0.00634743
0.00600242
0.00537626
0.0056566
0.00514005
0.00494739
0.00434371
0.00620986
0.00620995
0.00518332
0.00518353
0.00500708
0.00500722
0.00415248
0.00415272
0.00634746
0.00688691
0.0053766
0.00600241
0.00514023
0.00565645
0.00434414
0.00494755
0.0078537
0.00843957
0.00702283
0.00761965
0.00657167
0.00709978
0.00591498
0.00645479
0.00983339
0.00927245
0.00917489
0.00860122
0.00817694
0.00767468
0.00767055
0.00715528
0.00839086
0.0079625
0.00768043
0.00720423
0.00684286
0.00643643
0.00628518
0.0058321
0.00788412
0.007884
0.00710189
0.00710188
0.00636062
0.0063606
0.00573393
0.00573399
0.00796195
0.00838956
0.00720397
0.00767957
0.00643618
0.00684207
0.00583206
0.00628472
0.00927032
0.00983033
0.00859965
0.00917247
0.00767323
0.00817471
0.00715424
0.0076688
0.0109416
0.0104025
0.0104198
0.00987042
0.00902064
0.00853965
0.00862444
0.00813371
0.00957972
0.00921479
0.00902099
0.00862827
0.00776464
0.00741869
0.00733312
0.0069609
0.00916466
0.00916435
0.00856611
0.0085659
0.0073681
0.00736795
0.0068997
0.00689961
0.00921368
0.00957753
0.00862744
0.00901925
0.00741804
0.00776321
0.00696045
0.00733201
0.0103992
0.0109372
0.00986773
0.010416
0.00853736
0.00901737
0.00813184
0.00862167
0.011802
0.0112794
0.0113998
0.0108695
0.00966837
0.00920288
0.00936634
0.00889366
0.0104966
0.0101701
0.0100684
0.00972465
0.00846595
0.00815606
0.00813942
0.00781339
0.0101353
0.0101348
0.009683
0.0096826
0.0081188
0.00811853
0.00777017
0.00776996
0.0101684
0.0104935
0.00972327
0.0100658
0.00815504
0.00846391
0.00781255
0.00813769
0.0112751
0.0117963
0.0108657
0.0113947
0.00919979
0.00966412
0.00889097
0.00936255
0.0124485
0.0119381
0.0121488
0.0116328
0.0101494
0.00969578
0.00992695
0.00946778
0.0111827
0.0108809
0.0108647
0.0105515
0.00898493
0.00869809
0.00874495
0.00844752
0.0108555
0.0108548
0.0105217
0.0105211
0.00866893
0.00866855
0.00841452
0.00841419
0.0108788
0.0111789
0.0105496
0.0108613
0.00869674
0.00898235
0.00844633
0.00874264
0.0119328
0.0124415
0.0116279
0.0121424
0.00969198
0.0101443
0.00946431
0.00992221
0.0129165
0.0124151
0.0127015
0.0121959
0.0104943
0.0100492
0.0103361
0.00988708
0.0116786
0.0113931
0.0114506
0.0111574
0.00935622
0.00908468
0.00918584
0.0089071
0.0113738
0.011373
0.0111351
0.0111344
0.00906097
0.0090605
0.00888067
0.00888024
0.0113906
0.0116741
0.0111551
0.0114465
0.00908305
0.00935318
0.00890561
0.00918303
0.0124088
0.0129085
0.0121901
0.0126939
0.0100448
0.0104884
0.00988295
0.0103305
0.0132409
0.0127456
0.0130934
0.0125953
0.010731
0.0102919
0.0106235
0.0101816
0.012022
0.0117475
0.0118656
0.0115857
0.00961086
0.0093496
0.00949503
0.00922881
0.0117325
0.0117316
0.0115685
0.0115676
0.00932975
0.0093292
0.00920692
0.00920641
0.0117446
0.012017
0.011583
0.0118608
0.00934775
0.00960745
0.00922706
0.0094918
0.0127387
0.013232
0.0125886
0.0130849
0.010287
0.0107245
0.0101769
0.0106172
0.0134538
0.0129629
0.0133582
0.0128652
0.0108848
0.0104496
0.0108158
0.0103787
0.0122478
0.0119806
0.012146
0.0118752
0.00977641
0.00952202
0.00970185
0.00944402
0.0119686
0.0119676
0.0118614
0.0118605
0.00950494
0.00950433
0.00942539
0.00942481
0.0119775
0.0122423
0.0118722
0.0121408
0.00951999
0.0097727
0.00944207
0.00969828
0.0129554
0.0134443
0.012858
0.0133489
0.0104442
0.0108778
0.0103736
0.0108089
0.0135836
0.0130955
0.0135263
0.0130368
0.0109771
0.0105443
0.0109363
0.0105024
0.0123859
0.0121236
0.0123245
0.0120596
0.00987617
0.00962624
0.00983179
0.0095795
0.0121136
0.0121125
0.0120483
0.0120473
0.00961112
0.00961047
0.00956319
0.00956256
0.0121203
0.0123802
0.0120563
0.0123189
0.00962408
0.00987226
0.0095774
0.00982797
0.0130876
0.0135736
0.0130291
0.0135164
0.0105387
0.0109697
0.0104969
0.010929
0.0136535
0.0131673
0.0136235
0.0131363
0.0110254
0.0105943
0.0110046
0.0105727
0.0124612
0.0122019
0.0124284
0.0121673
0.00992908
0.00968194
0.00990599
0.00965723
0.0121932
0.0121922
0.0121577
0.0121566
0.00966819
0.00966751
0.00964255
0.00964189
0.0121984
0.0124552
0.0121639
0.0124225
0.00967971
0.00992503
0.00965504
0.00990201
0.0131592
0.0136432
0.0131283
0.0136133
0.0105885
0.0110178
0.010567
0.0109971
0.0136809
0.0131959
0.0136698
0.0131844
0.0110426
0.0106123
0.0110355
0.0106051
0.012492
0.0122347
0.0124795
0.0122209
0.00994894
0.00970361
0.00994102
0.00969456
0.0122271
0.012226
0.0122125
0.0122114
0.00969088
0.00969019
0.00968102
0.00968034
0.0122312
0.0124859
0.0122174
0.0124735
0.00970133
0.00994481
0.0096923
0.00993693
0.0131876
0.0136705
0.0131762
0.0136594
0.0106065
0.0110348
0.0105993
0.0110278
0.0136815
0.0131975
0.0136831
0.0131986
0.0110402
0.0106108
0.0110426
0.0106128
0.0124948
0.0122384
0.0124949
0.0122375
0.00994843
0.00970394
0.00994973
0.00970438
0.0122312
0.0122301
0.0122297
0.0122286
0.00969165
0.00969095
0.00969154
0.00969085
0.0122349
0.0124887
0.012234
0.0124888
0.00970163
0.00994427
0.00970209
0.00994559
0.0131891
0.0136709
0.0131902
0.0136725
0.0106049
0.0110324
0.0106069
0.0110347
0.0136627
0.0131794
0.0136726
0.0131889
0.0110238
0.0105948
0.0110321
0.0106029
0.0124774
0.0122214
0.0124862
0.0122296
0.0099329
0.00968876
0.00994051
0.00969582
0.0122144
0.0122133
0.0122222
0.0122211
0.00967676
0.00967606
0.00968338
0.00968269
0.0122178
0.0124712
0.0122261
0.0124801
0.00968645
0.00992873
0.00969352
0.00993636
0.013171
0.0136521
0.0131805
0.013662
0.0105889
0.011016
0.0105969
0.0110243
0.0136315
0.0131488
0.013647
0.0131639
0.0109983
0.0105698
0.0110108
0.010582
0.0124471
0.0121913
0.0124618
0.0122054
0.00990802
0.00966394
0.00991986
0.00967536
0.0121844
0.0121833
0.0121981
0.012197
0.00965208
0.00965138
0.00966312
0.00966243
0.0121877
0.012441
0.0122018
0.0124557
0.00966164
0.00990387
0.00967306
0.00991571
0.0131405
0.013621
0.0131556
0.0136364
0.0105639
0.0109906
0.010576
0.0110029
0.0135917
0.0131097
0.0136112
0.0131287
0.0109665
0.0105384
0.0109819
0.0105535
0.0124081
0.0121521
0.0124268
0.0121704
0.00987659
0.00963237
0.00989144
0.00964689
0.0121452
0.0121441
0.0121632
0.012162
0.00962054
0.00961985
0.00963473
0.00963404
0.0121486
0.012402
0.0121668
0.0124207
0.00963009
0.00987247
0.0096446
0.00988731
0.0131014
0.0135813
0.0131204
0.0136006
0.0105325
0.0109588
0.0105476
0.0109741
0.0135455
0.013064
0.013568
0.0130861
0.0109298
0.0105021
0.0109475
0.0105195
0.0123625
0.0121062
0.0123843
0.0121276
0.00984021
0.00959572
0.0098574
0.00961263
0.0120992
0.0120981
0.0121203
0.0121192
0.00958385
0.00958316
0.00960046
0.00959977
0.0121027
0.0123565
0.0121241
0.0123782
0.00959346
0.00983613
0.00961036
0.0098533
0.0130558
0.0135351
0.0130779
0.0135575
0.0104963
0.0109222
0.0105137
0.0109398
0.0134939
0.0130131
0.013519
0.0130378
0.0108891
0.0104618
0.0109087
0.0104812
0.0123115
0.0120549
0.0123359
0.0120789
0.00979973
0.00955487
0.0098189
0.0095738
0.0120477
0.0120466
0.0120715
0.0120704
0.0095429
0.00954222
0.00956156
0.00956088
0.0120514
0.0123056
0.0120754
0.0123299
0.00955263
0.0097957
0.00957156
0.00981485
0.013005
0.0134837
0.0130296
0.0135086
0.0104561
0.0108815
0.0104754
0.0109011
0.0134376
0.0129575
0.013465
0.0129845
0.0108446
0.0104179
0.0108661
0.010439
0.0122558
0.0119987
0.0122825
0.0120251
0.00975554
0.00951021
0.00977654
0.00953102
0.0119913
0.0119902
0.0120175
0.0120164
0.00949811
0.00949744
0.00951866
0.00951799
0.0119952
0.0122499
0.0120217
0.0122766
0.00950801
0.00975156
0.00952881
0.00977254
0.0129495
0.0134275
0.0129764
0.0134548
0.0104122
0.0108372
0.0104333
0.0108586
0.0133768
0.0128974
0.0134065
0.0129266
0.0107966
0.0103704
0.0108199
0.0103933
0.0121955
0.0119379
0.0122245
0.0119666
0.00970777
0.00946192
0.00973055
0.00948455
0.0119302
0.0119292
0.0119587
0.0119577
0.00944964
0.00944898
0.00947203
0.00947137
0.0119345
0.0121897
0.0119632
0.0122187
0.00945974
0.00970384
0.00948236
0.00972661
0.0128895
0.0133668
0.0129187
0.0133963
0.0103648
0.0107892
0.0103877
0.0108124
0.0133114
0.0128329
0.0133434
0.0128643
0.010745
0.0103195
0.0107701
0.0103441
0.0121308
0.0118725
0.012162
0.0119035
0.00965646
0.00941001
0.00968103
0.00943446
0.0118646
0.0118635
0.0118954
0.0118943
0.00939754
0.00939689
0.00942176
0.00942111
0.0118691
0.0121251
0.0119002
0.0121562
0.00940787
0.0096526
0.0094323
0.00967714
0.0128251
0.0133016
0.0128565
0.0133334
0.0103139
0.0107378
0.0103386
0.0107627
0.0132416
0.012764
0.0132758
0.0127976
0.0106899
0.010265
0.0107167
0.0102914
0.0120615
0.0118025
0.012095
0.0118359
0.00960158
0.00935447
0.00962795
0.00938075
0.0117943
0.0117933
0.0118274
0.0118264
0.00934177
0.00934113
0.00936784
0.0093672
0.0117992
0.0120559
0.0118326
0.0120893
0.00935236
0.00959778
0.00937863
0.00962412
0.0127563
0.0132319
0.0127899
0.013266
0.0102595
0.0106827
0.0102859
0.0107095
0.0131672
0.0126905
0.0132037
0.0127265
0.0106311
0.0102069
0.0106598
0.0102352
0.0119877
0.0117279
0.0120235
0.0117636
0.00954309
0.00929524
0.00957128
0.00932338
0.0117193
0.0117183
0.0117548
0.0117538
0.00928229
0.00928166
0.00931023
0.0093096
0.0117247
0.0119822
0.0117604
0.0120179
0.00929317
0.00953935
0.00932129
0.00956751
0.012683
0.0131577
0.0127188
0.0131941
0.0102016
0.0106241
0.0102298
0.0106526
0.0130882
0.0126125
0.0131271
0.0126507
0.0105686
0.0101453
0.0105992
0.0101753
0.0119093
0.0116486
0.0119474
0.0116867
0.00948094
0.00923227
0.00951098
0.0092623
0.0116396
0.0116386
0.0116775
0.0116765
0.00921903
0.00921842
0.00924888
0.00924827
0.0116454
0.0119038
0.0116835
0.0119419
0.00923024
0.00947727
0.00926025
0.00950728
0.012605
0.0130788
0.0126432
0.0131175
0.01014
0.0105617
0.01017
0.0105922
0.0130044
0.0125297
0.0130457
0.0125703
0.0105025
0.0100799
0.0105349
0.0101118
0.011826
0.0115643
0.0118666
0.0116049
0.00941502
0.00916545
0.00944697
0.00919743
0.0115549
0.0115539
0.0115953
0.0115944
0.0091519
0.0091513
0.00918372
0.00918312
0.0115612
0.0118206
0.0116018
0.0118612
0.00916346
0.00941142
0.00919543
0.00944334
0.0125224
0.0129952
0.012563
0.0130363
0.0100748
0.0104957
0.0101067
0.010528
0.0129155
0.0124418
0.0129594
0.0124851
0.0104324
0.0100107
0.0104668
0.0100446
0.0117376
0.0114748
0.0117808
0.0115181
0.00934516
0.0090946
0.00937912
0.00912864
0.0114649
0.011464
0.0115081
0.0115071
0.0090807
0.00908012
0.0091146
0.00911401
0.0114718
0.0117323
0.011515
0.0117755
0.00909266
0.00934164
0.00912668
0.00937557
0.0124347
0.0129065
0.0124779
0.0129502
0.0100056
0.0104258
0.0100395
0.0104601
0.0128212
0.0123486
0.0128679
0.0123946
0.0103583
0.00993736
0.0103948
0.00997336
0.0116436
0.0113797
0.0116897
0.0114259
0.00927112
0.00901943
0.00930723
0.0090557
0.0113692
0.0113683
0.0114153
0.0114144
0.00900512
0.00900455
0.00904129
0.00904071
0.0113767
0.0116385
0.0114229
0.0116845
0.00901753
0.00926768
0.00905379
0.00930376
0.0123416
0.0128125
0.0123876
0.0128589