/*--------------------------------*- C++ -*----------------------------------*\
  =========                 |
  \\      /  F ield         | OpenFOAM: The Open Source CFD Toolbox
   \\    /   O peration     | Website:  https://openfoam.org
    \\  /    A nd           | Version:  9
     \\/     M anipulation  |
\*---------------------------------------------------------------------------*/
FoamFile
{
    format      ascii;
    class       surfaceScalarField;
    location    "3";
    object      phi;
}
// * * * * * * * * * * * * * * * * * * * * * * * * * * * * * * * * * * * * * //

dimensions      [0 3 -1 0 0 0 0];

internalField   nonuniform List<scalar> 
104044
(
5.5412e-07
-6.67829e-05
-1.8539e-06
6.55088e-05
2.57385e-06
-4.52733e-05
-1.82981e-06
-2.10363e-07
4.75984e-05
2.69197e-07
3.30882e-07
-3.25051e-06
3.39058e-06
-1.05526e-06
-1.31232e-07
-2.7882e-07
-2.69213e-08
-7.52643e-05
7.34373e-05
-3.84833e-05
3.04304e-08
3.65962e-05
9.38288e-09
-5.40353e-09
-1.07987e-08
-5.05812e-05
-2.807e-06
5.09496e-05
2.23901e-06
-5.28093e-05
-1.32623e-06
-1.55849e-10
5.31165e-05
1.0084e-06
-6.0657e-09
-2.25177e-06
1.48706e-06
-1.31476e-06
-1.93486e-10
6.17704e-07
-5.79894e-09
-5.2874e-05
5.01033e-05
-5.60249e-05
-1.35063e-09
5.46942e-05
-1.1499e-08
-2.30783e-09
-7.88882e-12
-5.36167e-05
-5.64552e-07
5.41118e-05
6.92403e-08
-5.36172e-05
-5.64922e-07
1.25731e-10
5.41123e-05
6.97073e-08
-8.12021e-13
-1.01772e-06
1.80332e-07
-1.0178e-06
1.99556e-10
1.80384e-07
8.08181e-11
-5.55657e-05
5.49997e-05
-5.55666e-05
1.52177e-09
5.50002e-05
2.05499e-11
2.34755e-09
1.07549e-08
-5.28107e-05
-1.32672e-06
5.31177e-05
1.00904e-06
-5.05833e-05
-2.8066e-06
2.10363e-07
5.09512e-05
2.23908e-06
6.06585e-09
-1.31519e-06
6.18206e-07
-2.25173e-06
1.31287e-07
1.48723e-06
6.00639e-09
-5.60262e-05
5.4695e-05
-5.28749e-05
-3.02225e-08
5.01046e-05
1.15406e-08
5.43001e-09
-5.54149e-07
-4.52747e-05
-1.8285e-06
4.75988e-05
2.68922e-07
-6.67798e-05
-1.85411e-06
6.55055e-05
2.57422e-06
-3.30959e-07
-1.05371e-06
-2.79454e-07
-3.25106e-06
3.3909e-06
2.68169e-08
-3.8484e-05
3.65985e-05
-7.52604e-05
7.34331e-05
-9.37509e-09
3.6632e-07
-6.41018e-05
-2.31178e-06
6.28382e-05
3.20904e-06
-4.89915e-05
1.535e-06
-9.98394e-08
4.98597e-05
-1.93709e-06
4.73565e-07
-2.07325e-06
3.00668e-06
6.34282e-08
-1.60847e-07
-8.22059e-07
-4.3052e-07
-7.15766e-05
6.96953e-05
-3.63076e-05
2.56046e-07
3.7156e-05
-2.12558e-07
1.39472e-07
-1.3622e-08
-5.12112e-05
-1.84213e-06
5.12015e-05
1.76564e-06
-5.32539e-05
-1.35878e-06
-3.01752e-09
5.31785e-05
1.42363e-06
-1.24556e-08
-2.58437e-06
2.17436e-06
-1.54082e-06
-6.44234e-10
1.39162e-06
-1.20395e-09
-4.76628e-05
4.60779e-05
-5.31502e-05
-5.01345e-09
5.17952e-05
-4.41109e-09
-1.19927e-09
-7.3482e-12
-5.42467e-05
-8.49416e-07
5.41336e-05
9.59519e-07
-5.42471e-05
-8.49462e-07
2.99272e-09
5.4134e-05
9.59598e-07
-5.98511e-11
-7.24145e-07
5.88659e-07
-7.24354e-07
4.44914e-10
5.89057e-07
6.26273e-11
-5.42742e-05
5.34197e-05
-5.42744e-05
5.15593e-09
5.34199e-05
1.62196e-10
1.62366e-09
1.36039e-08
-5.32551e-05
-1.35852e-06
5.31794e-05
1.42357e-06
-5.12128e-05
-1.84167e-06
9.98073e-08
5.12027e-05
1.76555e-06
1.19276e-08
-1.54074e-06
1.39189e-06
-2.5833e-06
1.59268e-07
2.1744e-06
1.39614e-09
-5.31507e-05
5.17959e-05
-4.76642e-05
-2.55876e-07
4.60798e-05
5.19799e-09
-1.37729e-07
-3.66362e-07
-4.89926e-05
1.53535e-06
4.98602e-05
-1.93686e-06
-6.40988e-05
-2.31177e-06
6.28351e-05
3.20912e-06
-4.72141e-07
5.90914e-08
-8.21438e-07
-2.07254e-06
3.00705e-06
4.30326e-07
-3.6309e-05
3.71582e-05
-7.15714e-05
6.96899e-05
2.10785e-07
1.1463e-07
-6.17498e-05
-2.55531e-06
6.08045e-05
3.38592e-06
-5.04653e-05
2.84058e-06
1.29854e-08
5.09588e-05
-3.23245e-06
2.38425e-07
-2.42979e-06
3.27981e-06
2.35867e-06
-3.88739e-08
-2.68694e-06
-8.65964e-07
-6.79125e-05
6.62231e-05
-3.85052e-05
4.60271e-07
4.00196e-05
-6.46926e-07
3.62508e-07
9.72682e-09
-5.11214e-05
-8.49753e-07
5.10684e-05
9.06064e-07
-5.29654e-05
-7.68342e-07
-8.19855e-09
5.2721e-05
1.03065e-06
-6.45107e-09
-1.23532e-06
1.28299e-06
-1.03005e-06
-8.2672e-09
1.24489e-06
2.49748e-08
-4.51959e-05
4.47814e-05
-5.07803e-05
-6.02098e-09
5.00429e-05
9.23938e-09
-5.87944e-09
1.14967e-11
-5.39218e-05
-6.22572e-07
5.3661e-05
8.75138e-07
-5.39221e-05
-6.22509e-07
8.23871e-09
5.36613e-05
8.75085e-07
1.09129e-11
-7.91002e-07
9.94561e-07
-7.90938e-07
8.29828e-09
9.94529e-07
1.62326e-11
-5.26228e-05
5.19942e-05
-5.2623e-05
6.05965e-09
5.19945e-05
2.33006e-11
5.94191e-09
-9.68061e-09
-5.29663e-05
-7.68196e-07
5.27219e-05
1.03055e-06
-5.11225e-05
-8.49681e-07
-1.29633e-08
5.10693e-05
9.06103e-07
6.48629e-09
-1.02981e-06
1.24477e-06
-1.23512e-06
3.89056e-08
1.28294e-06
-2.49279e-08
-5.07812e-05
5.0044e-05
-4.5198e-05
-4.60255e-07
4.47836e-05
-9.17359e-09
-3.62477e-07
-1.14784e-07
-5.04656e-05
2.84023e-06
5.09591e-05
-3.23183e-06
-6.17467e-05
-2.55519e-06
6.08015e-05
3.3856e-06
-2.3855e-07
2.35858e-06
-2.68653e-06
-2.42978e-06
3.27967e-06
8.65674e-07
-3.85076e-05
4.00219e-05
-6.79069e-05
6.62174e-05
6.46721e-07
-1.1301e-07
-5.99951e-05
-2.65663e-06
5.92846e-05
3.4802e-06
-5.13694e-05
3.19879e-06
1.05324e-07
5.17288e-05
-3.77652e-06
-4.25413e-09
-2.59145e-06
3.40511e-06
3.04363e-06
7.11245e-08
-3.52955e-06
-1.2346e-06
-6.46815e-05
6.32595e-05
-4.14826e-05
5.94706e-07
4.28521e-05
-1.04982e-06
5.30754e-07
5.21812e-08
-5.10816e-05
-4.08549e-07
5.11477e-05
3.95597e-07
-5.25099e-05
-4.34716e-07
-2.78845e-09
5.23473e-05
6.52281e-07
2.8156e-08
-5.744e-07
6.04141e-07
-5.68159e-07
-5.60379e-09
8.13042e-07
6.44967e-08
-4.46943e-05
4.48159e-05
-4.95232e-05
-2.42136e-09
4.91554e-05
4.34948e-08
-4.91883e-09
6.69164e-12
-5.34129e-05
-3.54082e-07
5.31953e-05
5.68844e-07
-5.34131e-05
-3.54057e-07
2.81084e-09
5.31956e-05
5.68814e-07
9.04847e-12
-4.60082e-07
7.02599e-07
-4.60043e-07
5.62897e-09
7.02557e-07
6.05249e-12
-5.15292e-05
5.11727e-05
-5.15295e-05
2.44208e-09
5.1173e-05
9.62381e-12
4.94557e-09
-5.2118e-08
-5.25107e-05
-4.34682e-07
5.23481e-05
6.52239e-07
-5.10825e-05
-4.08563e-07
-1.05339e-07
5.11485e-05
3.95752e-07
-2.80901e-08
-5.68089e-07
8.12972e-07
-5.74385e-07
-7.11133e-08
6.04244e-07
-6.44566e-08
-4.95243e-05
4.91566e-05
-4.46965e-05
-5.94683e-07
4.48182e-05
-4.34535e-08
-5.30736e-07
1.12806e-07
-5.13695e-05
3.19811e-06
5.17288e-05
-3.77557e-06
-5.99921e-05
-2.6562e-06
5.92817e-05
3.4795e-06
4.07752e-09
3.04312e-06
-3.52877e-06
-2.59114e-06
3.40457e-06
1.23413e-06
-4.14848e-05
4.28541e-05
-6.46757e-05
6.32536e-05
1.04945e-06
-2.96481e-07
-5.86678e-05
-2.68133e-06
5.81199e-05
3.52572e-06
-5.20398e-05
3.27829e-06
1.33418e-07
5.231e-05
-3.97841e-06
-2.08362e-07
-2.64652e-06
3.47168e-06
3.22301e-06
1.23117e-07
-3.86553e-06
-1.51902e-06
-6.19863e-05
6.0824e-05
-4.40664e-05
6.79951e-07
4.51457e-05
-1.37334e-06
6.35375e-07
1.03998e-07
-5.12505e-05
-2.48578e-07
5.13769e-05
1.51545e-07
-5.22356e-05
-2.60573e-07
6.49644e-09
5.21638e-05
4.29853e-07
7.76684e-08
-3.0305e-07
2.45687e-07
-3.30294e-07
1.37658e-09
5.18349e-07
1.05379e-07
-4.50638e-05
4.53898e-05
-4.89082e-05
6.14528e-09
4.87469e-05
8.44805e-08
1.37529e-09
6.04313e-12
-5.30173e-05
-2.3749e-07
5.2872e-05
3.89296e-07
-5.30176e-05
-2.37471e-07
-6.48291e-09
5.28723e-05
3.89279e-07
4.27406e-12
-2.80173e-07
4.59548e-07
-2.80157e-07
-1.35973e-09
4.59529e-07
3.36921e-11
-5.08939e-05
5.06625e-05
-5.08942e-05
-6.11529e-09
5.06629e-05
3.337e-12
-1.36452e-09
-1.03973e-07
-5.22363e-05
-2.60554e-07
5.21645e-05
4.29839e-07
-5.12513e-05
-2.48654e-07
-1.33475e-07
5.13777e-05
1.51778e-07
-7.7614e-08
-3.30276e-07
5.18324e-07
-3.03073e-07
-1.23153e-07
2.45871e-07
-1.05527e-07
-4.89094e-05
4.87482e-05
-4.50659e-05
-6.7986e-07
4.53916e-05
-8.44601e-08
-6.35294e-07
2.9623e-07
-5.20398e-05
3.27733e-06
5.231e-05
-3.97718e-06
-5.86649e-05
-2.68065e-06
5.81171e-05
3.52471e-06
2.08134e-07
3.2222e-06
-3.86446e-06
-2.64592e-06
3.47079e-06
1.5184e-06
-4.40682e-05
4.51473e-05
-6.19805e-05
6.08182e-05
1.37279e-06
-4.36622e-07
-5.76367e-05
-2.67418e-06
5.72006e-05
3.54684e-06
-5.25403e-05
3.25925e-06
1.39716e-07
5.27316e-05
-4.02693e-06
-3.6787e-07
-2.65096e-06
3.50201e-06
3.24248e-06
1.33392e-07
-3.97402e-06
-1.72755e-06
-5.97884e-05
5.88417e-05
-4.60717e-05
7.27399e-07
4.6876e-05
-1.61533e-06
7.01154e-07
1.4947e-07
-5.15104e-05
-2.1169e-07
5.16498e-05
6.25493e-08
-5.21236e-05
-1.67813e-07
1.81942e-08
5.2105e-05
3.1772e-07
1.2638e-07
-2.18321e-07
9.18695e-08
-2.05148e-07
1.21016e-08
3.59605e-07
1.32433e-07
-4.57508e-05
4.61341e-05
-4.86517e-05
1.69439e-08
4.85994e-05
1.21778e-07
1.1771e-08
-1.67198e-11
-5.2756e-05
-1.88643e-07
5.26609e-05
3.01912e-07
-5.27562e-05
-1.88672e-07
-1.82104e-08
5.26612e-05
3.0191e-07
4.28838e-11
-2.06175e-07
3.34241e-07
-2.06096e-07
-1.20455e-08
3.34218e-07
-1.58322e-10
-5.04678e-05
5.02963e-05
-5.0468e-05
-1.73998e-08
5.02966e-05
2.83819e-10
-1.09707e-08
-1.49289e-07
-5.21242e-05
-1.67998e-07
5.21056e-05
3.17736e-07
-5.15111e-05
-2.11566e-07
-1.39768e-07
5.16504e-05
6.28293e-08
-1.26504e-07
-2.04862e-07
3.59586e-07
-2.187e-07
-1.33418e-07
9.21242e-08
-1.33613e-07
-4.86525e-05
4.86007e-05
-4.57532e-05
-7.27683e-07
4.61358e-05
-1.20059e-07
-7.00384e-07
4.36308e-07
-5.25403e-05
3.2582e-06
5.27315e-05
-4.02551e-06
-5.76341e-05
-2.67325e-06
5.71981e-05
3.54553e-06
3.6763e-07
3.24133e-06
-3.97267e-06
-2.65017e-06
3.50084e-06
1.72663e-06
-4.60734e-05
4.68772e-05
-5.97829e-05
5.88363e-05
1.61486e-06
-5.40244e-07
-5.68088e-05
-2.65076e-06
5.64489e-05
3.55091e-06
-5.28869e-05
3.19409e-06
1.40411e-07
5.30098e-05
-3.99757e-06
-4.87351e-07
-2.63398e-06
3.51316e-06
3.19467e-06
1.39844e-07
-3.97717e-06
-1.8726e-06
-5.7996e-05
5.72179e-05
-4.75497e-05
7.47428e-07
4.81238e-05
-1.7883e-06
7.32699e-07
1.84323e-07
-5.17835e-05
-2.31415e-07
5.19081e-05
6.28769e-08
-5.21012e-05
-1.20336e-07
2.71374e-08
5.21063e-05
2.72359e-07
1.66562e-07
-2.14803e-07
5.43519e-08
-1.38707e-07
2.29513e-08
2.86118e-07
1.50215e-07
-4.65107e-05
4.68765e-05
-4.85792e-05
2.80336e-08
4.8581e-05
1.41291e-07
2.28069e-08
-1.1566e-11
-5.25829e-05
-1.65436e-07
5.25156e-05
2.59956e-07
-5.25831e-05
-1.65471e-07
-2.71932e-08
5.25158e-05
2.59981e-07
9.19861e-11
-1.73393e-07
2.74271e-07
-1.73403e-07
-2.26737e-08
2.74252e-07
-1.23021e-10
-5.01457e-05
5.00084e-05
-5.01459e-05
-2.8666e-08
5.0009e-05
3.54324e-11
-2.26463e-08
-1.84203e-07
-5.21018e-05
-1.2043e-07
5.21068e-05
2.72358e-07
-5.17841e-05
-2.31402e-07
-1.40461e-07
5.19085e-05
6.31748e-08
-1.66402e-07
-1.38639e-07
2.86158e-07
-2.14904e-07
-1.39837e-07
5.4642e-08
-1.5097e-07
-4.85801e-05
4.8582e-05
-4.65125e-05
-7.47478e-07
4.68776e-05
-1.40757e-07
-7.32414e-07
5.39908e-07
-5.28868e-05
3.19284e-06
5.30095e-05
-3.99597e-06
-5.68064e-05
-2.64967e-06
5.64465e-05
3.54939e-06
4.87055e-07
3.1935e-06
-3.97567e-06
-2.63293e-06
3.51171e-06
1.87164e-06
-4.75508e-05
4.81246e-05
-5.79909e-05
5.72129e-05
1.7875e-06
-6.15852e-07
-5.61188e-05
-2.6189e-06
5.58104e-05
3.54317e-06
-5.31027e-05
3.11226e-06
1.34181e-07
5.31672e-05
-3.9268e-06
-5.75378e-07
-2.60743e-06
3.51289e-06
3.12162e-06
1.36582e-07
-3.92653e-06
-1.9695e-06
-5.65176e-05
5.58682e-05
-4.85944e-05
7.49813e-07
4.89874e-05
-1.90719e-06
7.4375e-07
2.08894e-07
-5.20177e-05
-2.7636e-07
5.21122e-05
1.07087e-07
-5.21153e-05
-1.01725e-07
3.49854e-08
5.21239e-05
2.66997e-07
1.95707e-07
-2.49862e-07
8.11984e-08
-1.06953e-07
3.06604e-08
2.63075e-07
1.6124e-07
-4.72131e-05
4.75253e-05
-4.85981e-05
3.35038e-08
4.86241e-05
1.5725e-07
3.32233e-08
4.22206e-11
-5.24567e-05
-1.51102e-07
5.24028e-05
2.39946e-07
-5.24569e-05
-1.51583e-07
-3.44337e-08
5.2403e-05
2.39976e-07
3.45595e-11
-1.56454e-07
2.45931e-07
-1.56165e-07
-3.08689e-08
2.4595e-07
-1.36445e-09
-4.98843e-05
4.9768e-05
-4.98839e-05
-3.79458e-08
4.97689e-05
9.12936e-10
-3.01646e-08
-2.08515e-07
-5.21157e-05
-1.01469e-07
5.21243e-05
2.66978e-07
-5.20182e-05
-2.75813e-07
-1.34299e-07
5.21124e-05
1.07346e-07
-1.95749e-07
-1.0705e-07
2.63061e-07
-2.50321e-07
-1.36554e-07
8.14852e-08
-1.64753e-07
-4.85993e-05
4.86246e-05
-4.72154e-05
-7.50929e-07
4.75258e-05
-1.54503e-07
-7.42653e-07
6.15427e-07
-5.31026e-05
3.1111e-06
5.31669e-05
-3.92513e-06
-5.61166e-05
-2.61758e-06
5.58082e-05
3.54142e-06
5.7508e-07
3.12019e-06
-3.92486e-06
-2.60627e-06
3.51126e-06
1.96806e-06
-4.85956e-05
4.89877e-05
-5.65131e-05
5.58636e-05
1.90653e-06
-6.69532e-07
-5.55221e-05
-2.57888e-06
5.52481e-05
3.52244e-06
-5.32074e-05
3.02363e-06
1.2496e-07
5.32234e-05
-3.83407e-06
-6.38564e-07
-2.57094e-06
3.49781e-06
3.03536e-06
1.28544e-07
-3.84269e-06
-2.02782e-06
-5.52797e-05
5.47287e-05
-4.93e-05
7.42616e-07
4.95532e-05
-1.98246e-06
7.40318e-07
2.24423e-07
-5.21884e-05
-3.28854e-07
5.2247e-05
1.70801e-07
-5.21292e-05
-1.01201e-07
4.11139e-08
5.21292e-05
2.84571e-07
2.15344e-07
-2.99366e-07
1.36364e-07
-9.88403e-08
3.76346e-08
2.7123e-07
1.70597e-07
-4.77997e-05
4.80429e-05
-4.86523e-05
4.13174e-08
4.86804e-05
1.66547e-07
3.9456e-08
2.10345e-11
-5.2352e-05
-1.42036e-07
5.23009e-05
2.34273e-07
-5.23521e-05
-1.42075e-07
-4.10458e-08
5.2301e-05
2.34294e-07
5.54234e-11
-1.44575e-07
2.32955e-07
-1.44406e-07
-3.77011e-08
2.32976e-07
-2.3916e-11
-4.96623e-05
4.95616e-05
-4.96624e-05
-4.16291e-08
4.95619e-05
6.45065e-10
-3.72443e-08
-2.24278e-07
-5.21296e-05
-1.01224e-07
5.21295e-05
2.84561e-07
-5.21887e-05
-3.28883e-07
-1.25002e-07
5.22472e-05
1.71089e-07
-2.15246e-07
-9.89605e-08
2.7122e-07
-2.99609e-07
-1.28536e-07
1.36644e-07
-1.70774e-07
-4.86532e-05
4.86812e-05
-4.7801e-05
-7.42461e-07
4.80438e-05
-1.64793e-07
-7.39599e-07
6.69144e-07
-5.32071e-05
3.02217e-06
5.3223e-05
-3.83223e-06
-5.55201e-05
-2.57757e-06
5.52462e-05
3.52061e-06
6.38218e-07
3.03391e-06
-3.84091e-06
-2.56963e-06
3.49601e-06
2.02672e-06
-4.93004e-05
4.95534e-05
-5.52755e-05
5.47247e-05
1.98156e-06
-7.06781e-07
-5.4987e-05
-2.53537e-06
5.47348e-05
3.49437e-06
-5.32191e-05
2.93289e-06
1.14803e-07
5.31928e-05
-3.72812e-06
-6.83425e-07
-2.53065e-06
3.47513e-06
2.94814e-06
1.18781e-07
-3.74606e-06
-2.05891e-06
-5.4225e-05
5.37486e-05
-4.9745e-05
7.28903e-07
4.989e-05
-2.02697e-06
7.29357e-07
2.33401e-07
-5.2287e-05
-3.80214e-07
5.23088e-05
2.39883e-07
-5.2122e-05
-1.10655e-07
4.61778e-08
5.21061e-05
3.13779e-07
2.27449e-07
-3.52473e-07
2.03811e-07
-1.04106e-07
4.3396e-08
2.95341e-07
1.74834e-07
-4.82482e-05
4.84221e-05
-4.87043e-05
4.6075e-08
4.87224e-05
1.71553e-07
4.35507e-08
2.35669e-11
-5.22485e-05
-1.38746e-07
5.21923e-05
2.41121e-07
-5.22486e-05
-1.38761e-07
-4.61172e-08
5.21924e-05
2.41138e-07
2.28967e-11
-1.38403e-07
2.3415e-07
-1.38417e-07
-4.33376e-08
2.34168e-07
2.40196e-11
-4.94667e-05
4.9374e-05
-4.9467e-05
-4.60167e-08
4.93742e-05
2.71574e-11
-4.34648e-08
-2.33255e-07
-5.21222e-05
-1.10683e-07
5.21063e-05
3.13766e-07
-5.22871e-05
-3.80225e-07
-1.14855e-07
5.23088e-05
2.40147e-07
-2.27306e-07
-1.04136e-07
2.95329e-07
-3.5251e-07
-1.18827e-07
2.04089e-07
-1.74736e-07
-4.8705e-05
4.8723e-05
-4.8249e-05
-7.28694e-07
4.84227e-05
-1.71437e-07
-7.29149e-07
7.06366e-07
-5.32187e-05
2.93138e-06
5.31923e-05
-3.72622e-06
-5.49852e-05
-2.53399e-06
5.47331e-05
3.49246e-06
6.83027e-07
2.94667e-06
-3.74421e-06
-2.52925e-06
3.47323e-06
2.05776e-06
-4.97451e-05
4.989e-05
-5.42213e-05
5.3745e-05
2.02585e-06
-7.31163e-07
-5.44902e-05
-2.48981e-06
5.425e-05
3.4612e-06
-5.3149e-05
2.84009e-06
1.04887e-07
5.30848e-05
-3.61191e-06
-7.13275e-07
-2.48513e-06
3.44299e-06
2.85581e-06
1.0871e-07
-3.63407e-06
-2.06907e-06
-5.33093e-05
5.28885e-05
-4.99865e-05
7.11706e-07
5.00458e-05
-2.04583e-06
7.13497e-07
2.37304e-07
-5.23124e-05
-4.23574e-07
5.2298e-05
3.05536e-07
-5.20805e-05
-1.26251e-07
4.99067e-08
5.20439e-05
3.50261e-07
2.33541e-07
-3.99076e-07
2.70604e-07
-1.16707e-07
4.77248e-08
3.28089e-07
1.76098e-07
-4.85625e-05
4.86745e-05
-4.87324e-05
4.93475e-08
4.87329e-05
1.74056e-07
4.74039e-08
2.525e-11
-5.21318e-05
-1.40706e-07
5.20646e-05
2.57779e-07
-5.21319e-05
-1.4072e-07
-4.98425e-08
5.20647e-05
2.57795e-07
2.41367e-11
-1.37754e-07
2.4593e-07
-1.37767e-07
-4.7663e-08
2.45946e-07
2.54795e-11
-4.92836e-05
4.91922e-05
-4.92838e-05
-4.92857e-08
4.91924e-05
2.44416e-11
-4.73441e-08
-2.37155e-07
-5.20807e-05
-1.26279e-07
5.2044e-05
3.50246e-07
-5.23124e-05
-4.23582e-07
-1.04944e-07
5.2298e-05
3.05795e-07
-2.33395e-07
-1.16735e-07
3.28075e-07
-3.9908e-07
-1.08764e-07
2.70859e-07
-1.75997e-07
-4.87329e-05
4.87333e-05
-4.8563e-05
-7.11497e-07
4.86749e-05
-1.73957e-07
-7.13289e-07
7.30728e-07
-5.31486e-05
2.83855e-06
5.30843e-05
-3.60997e-06
-5.44886e-05
-2.48841e-06
5.42485e-05
3.45925e-06
7.12853e-07
2.85431e-06
-3.63217e-06
-2.48369e-06
3.44102e-06
2.06787e-06
-4.99864e-05
5.00456e-05
-5.3306e-05
5.28855e-05
2.04467e-06
-7.45622e-07
-5.40131e-05
-2.44484e-06
5.37771e-05
3.42647e-06
-5.30055e-05
2.74718e-06
9.57032e-08
5.29069e-05
-3.48993e-06
-7.32442e-07
-2.44108e-06
3.41041e-06
2.76467e-06
9.92457e-08
-3.51702e-06
-2.06345e-06
-5.24959e-05
5.21145e-05
-5.00663e-05
6.92706e-07
5.00573e-05
-2.04848e-06
6.95739e-07
2.37569e-07
-5.22666e-05
-4.6318e-07
5.22168e-05
3.7112e-07
-5.19959e-05
-1.46173e-07
5.24421e-08
5.19351e-05
3.92124e-07
2.35551e-07
-4.39933e-07
3.35071e-07
-1.34344e-07
5.08197e-08
3.67067e-07
1.75395e-07
-4.8756e-05
4.88102e-05
-4.87227e-05
5.15267e-08
4.87004e-05
1.74259e-07
5.00715e-08
2.67865e-11
-5.19908e-05
-1.47515e-07
5.19078e-05
2.82871e-07
-5.19908e-05
-1.47529e-07
-5.23748e-08
5.19079e-05
2.82886e-07
2.58176e-11
-1.42164e-07
2.66779e-07
-1.42177e-07
-5.07545e-08
2.66794e-07
2.70036e-11
-4.91001e-05
4.90041e-05
-4.91003e-05
-5.14623e-08
4.90043e-05
2.60204e-11
-5.0009e-08
-2.37418e-07
-5.1996e-05
-1.46203e-07
5.19351e-05
3.9211e-07
-5.22665e-05
-4.6319e-07
-9.57652e-08
5.22167e-05
3.7139e-07
-2.35402e-07
-1.34373e-07
3.67052e-07
-4.39939e-07
-9.93047e-08
3.35324e-07
-1.75292e-07
-4.87231e-05
4.87007e-05
-4.87563e-05
-6.92499e-07
4.88104e-05
-1.74158e-07
-6.95532e-07
7.4517e-07
-5.3005e-05
2.74564e-06
5.29064e-05
-3.48798e-06
-5.40117e-05
-2.44344e-06
5.37758e-05
3.42451e-06
7.32002e-07
2.76315e-06
-3.5151e-06
-2.43961e-06
3.40841e-06
2.06223e-06
-5.00659e-05
5.00568e-05
-5.24931e-05
5.21119e-05
2.04728e-06
-7.52522e-07
-5.35406e-05
-2.40187e-06
5.33019e-05
3.39317e-06
-5.27944e-05
2.65475e-06
8.7524e-08
5.26634e-05
-3.36379e-06
-7.42495e-07
-2.39583e-06
3.37477e-06
2.67233e-06
9.05984e-08
-3.3929e-06
-2.04756e-06
-5.17548e-05
5.14005e-05
-5.00172e-05
6.73463e-07
4.99509e-05
-2.03615e-06
6.76285e-07
2.35246e-07
-5.21499e-05
-4.99724e-07
5.20646e-05
4.37283e-07
-5.18618e-05
-1.69402e-07
5.39746e-08
5.17741e-05
4.38378e-07
2.3431e-07
-4.77515e-07
4.00669e-07
-1.55971e-07
5.27946e-08
4.10723e-07
1.73215e-07
-4.88362e-05
4.88367e-05
-4.86655e-05
5.27367e-08
4.86165e-05
1.7274e-07
5.17288e-08
2.79829e-11
-5.18163e-05
-1.58883e-07
5.17134e-05
3.15763e-07
-5.18163e-05
-1.58896e-07
-5.39051e-08
5.17134e-05
3.15776e-07
2.71631e-11
-1.51124e-07
2.95437e-07
-1.51137e-07
-5.27267e-08
2.95451e-07
2.82418e-11
-4.89047e-05
4.87985e-05
-4.89048e-05
-5.26703e-08
4.87986e-05
2.73847e-11
-5.16639e-08
-2.35095e-07
-5.18619e-05
-1.6943e-07
5.17741e-05
4.3836e-07
-5.21497e-05
-4.99727e-07
-8.75884e-08
5.20644e-05
4.37539e-07
-2.3416e-07
-1.56e-07
4.10707e-07
-4.77519e-07
-9.06612e-08
4.00928e-07
-1.73112e-07
-4.86657e-05
4.86167e-05
-4.88363e-05
-6.7326e-07
4.88367e-05
-1.72637e-07
-6.76083e-07
7.52058e-07
-5.27938e-05
2.65323e-06
5.26628e-05
-3.36185e-06
-5.35395e-05
-2.40047e-06
5.33008e-05
3.39121e-06
7.42041e-07
2.67081e-06
-3.39098e-06
-2.39437e-06
3.37277e-06
2.04633e-06
-5.00166e-05
4.99502e-05
-5.17525e-05
5.13983e-05
2.03493e-06
-7.53785e-07
-5.30597e-05
-2.36395e-06
5.28118e-05
3.36569e-06
-5.25195e-05
2.56442e-06
8.02965e-08
5.23566e-05
-3.23564e-06
-7.46161e-07
-2.35569e-06
3.34399e-06
2.58116e-06
8.29586e-08
-3.26637e-06
-2.02408e-06
-5.1061e-05
5.07211e-05
-4.98587e-05
6.54456e-07
4.97446e-05
-2.01614e-06
6.57224e-07
2.31312e-07
-5.19629e-05
-5.33017e-07
5.18425e-05
5.02437e-07
-5.16731e-05
-1.95267e-07
5.46949e-08
5.15561e-05
4.88894e-07
2.31074e-07
-5.11782e-07
4.65352e-07
-1.80222e-07
5.38766e-08
4.58481e-07
1.70098e-07
-4.88121e-05
4.87635e-05
-4.85538e-05
5.31885e-08
4.84755e-05
1.70024e-07
5.25131e-08
2.88271e-11
-5.16001e-05
-1.74916e-07
5.14732e-05
3.5643e-07
-5.16001e-05
-1.74929e-07
-5.46238e-08
5.14732e-05
3.56442e-07
2.81541e-11
-1.64649e-07
3.31792e-07
-1.64662e-07
-5.38069e-08
3.31805e-07
2.91523e-11
-4.86863e-05
4.85646e-05
-4.86864e-05
-5.31209e-08
4.85646e-05
2.84512e-11
-5.24467e-08
-2.31163e-07
-5.1673e-05
-1.95293e-07
5.1556e-05
4.88873e-07
-5.19627e-05
-5.33012e-07
-8.03631e-08
5.18422e-05
5.02681e-07
-2.30925e-07
-1.80248e-07
4.5846e-07
-5.11776e-07
-8.30234e-08
4.65596e-07
-1.69995e-07
-4.8554e-05
4.84755e-05
-4.8812e-05
-6.54259e-07
4.87633e-05
-1.69922e-07
-6.57026e-07
7.53313e-07
-5.25189e-05
2.56292e-06
5.2356e-05
-3.23373e-06
-5.30587e-05
-2.36258e-06
5.28108e-05
3.36376e-06
7.45698e-07
2.57967e-06
-3.26448e-06
-2.35425e-06
3.34201e-06
2.02285e-06
-4.9858e-05
4.97438e-05
-5.1059e-05
5.07193e-05
2.01492e-06
-7.50054e-07
-5.25577e-05
-2.32894e-06
5.2295e-05
3.34172e-06
-5.21814e-05
2.47184e-06
7.39641e-08
5.19867e-05
-3.10114e-06
-7.44807e-07
-2.31947e-06
3.31829e-06
2.4904e-06
7.62565e-08
-3.13627e-06
-1.99338e-06
-5.03907e-05
5.00552e-05
-4.96075e-05
6.35463e-07
4.94505e-05
-1.98908e-06
6.3839e-07
2.26101e-07
-5.17061e-05
-5.64161e-07
5.15504e-05
5.67799e-07
-5.14249e-05
-2.23673e-07
5.4704e-08
5.12764e-05
5.43598e-07
2.2649e-07
-5.43721e-07
5.29853e-07
-2.07129e-07
5.42189e-08
5.10533e-07
1.66221e-07
-4.86916e-05
4.85967e-05
-4.83822e-05
5.30008e-08
4.82718e-05
1.66529e-07
5.26246e-08
2.9373e-11
-5.13345e-05
-1.95566e-07
5.11802e-05
4.04504e-07
-5.13345e-05
-1.95578e-07
-5.46322e-08
5.11802e-05
4.04514e-07
2.88377e-11
-1.82823e-07
3.75727e-07
-1.82835e-07
-5.41481e-08
3.75738e-07
2.97443e-11
-4.84343e-05
4.82918e-05
-4.84344e-05
-5.29327e-08
4.82918e-05
2.91886e-11
-5.25573e-08
-2.25954e-07
-5.14248e-05
-2.23696e-07
5.12763e-05
5.43573e-07
-5.17058e-05
-5.64148e-07
-7.40322e-08
5.155e-05
5.68029e-07
-2.26343e-07
-2.07152e-07
5.10509e-07
-5.4371e-07
-7.63232e-08
5.30085e-07
-1.6612e-07
-4.83823e-05
4.82717e-05
-4.86913e-05
-6.35273e-07
4.85964e-05
-1.66427e-07
-6.38198e-07
7.4958e-07
-5.21808e-05
2.47038e-06
5.19861e-05
-3.09927e-06
-5.25569e-05
-2.32759e-06
5.22943e-05
3.33982e-06
7.44339e-07
2.48895e-06
-3.1344e-06
-2.31806e-06
3.31635e-06
1.99216e-06
-4.96067e-05
4.94496e-05
-5.03891e-05
5.00537e-05
1.98787e-06
-7.43277e-07
-5.20235e-05
-2.30037e-06
5.17404e-05
3.32677e-06
-5.17794e-05
2.38022e-06
6.85388e-08
5.15516e-05
-2.96424e-06
-7.39634e-07
-2.28848e-06
3.29962e-06
2.39983e-06
7.04585e-08
-3.00264e-06
-1.95959e-06
-4.97241e-05
4.93833e-05
-4.92728e-05
6.1744e-07
4.9076e-05
-1.95739e-06
6.20179e-07
2.20309e-07
-5.13785e-05
-5.94664e-07
5.11862e-05
6.35185e-07
-5.11128e-05
-2.54694e-07
5.4217e-08
5.09301e-05
6.03438e-07
2.21046e-07
-5.74187e-07
5.95501e-07
-2.36569e-07
5.39764e-08
5.6728e-07
1.62035e-07
-4.84802e-05
4.83409e-05
-4.81455e-05
5.23845e-08
4.80005e-05
1.62544e-07
5.22211e-08
2.9665e-11
-5.10125e-05
-2.2077e-07
5.08271e-05
4.60326e-07
-5.10125e-05
-2.20781e-07
-5.41451e-08
5.08271e-05
4.60335e-07
2.92578e-11
-2.05569e-07
4.27238e-07
-2.0558e-07
-5.39052e-08
4.27248e-07
3.00522e-11
-4.81384e-05
4.797e-05
-4.81384e-05
-5.23165e-08
4.79699e-05
2.96392e-11
-5.21536e-08
-2.20165e-07
-5.11126e-05
-2.54713e-07
5.09299e-05
6.03409e-07
-5.13781e-05
-5.94645e-07
-6.86078e-08
5.11858e-05
6.354e-07
-2.20902e-07
-2.36589e-07
5.67253e-07
-5.74168e-07
-7.05264e-08
5.95719e-07
-1.61935e-07
-4.81454e-05
4.80004e-05
-4.84797e-05
-6.17257e-07
4.83404e-05
-1.62445e-07
-6.19994e-07
7.42803e-07
-5.17788e-05
2.37879e-06
5.1551e-05
-2.96242e-06
-5.20228e-05
-2.29906e-06
5.17397e-05
3.32492e-06
7.39164e-07
2.39841e-06
-3.00081e-06
-2.2871e-06
3.29772e-06
1.95839e-06
-4.92718e-05
4.9075e-05
-4.97227e-05
4.93821e-05
1.95619e-06
-7.34037e-07
-5.1446e-05
-2.2775e-06
5.11373e-05
3.32032e-06
-5.13107e-05
2.28803e-06
6.39286e-08
5.10481e-05
-2.8233e-06
-7.31616e-07
-2.26307e-06
3.28903e-06
2.30894e-06
6.54988e-08
-2.8652e-06
-1.92316e-06
-4.90428e-05
4.86884e-05
-4.88597e-05
6.00222e-07
4.86243e-05
-1.92253e-06
6.02734e-07
2.14145e-07
-5.09774e-05
-6.25361e-07
5.07469e-05
7.05586e-07
-5.07314e-05
-2.88393e-07
5.33386e-08
5.05119e-05
6.68693e-07
2.15099e-07
-6.04369e-07
6.63576e-07
-2.68591e-07
5.3287e-08
6.29159e-07
1.57653e-07
-4.8181e-05
4.79982e-05
-4.78388e-05
5.14381e-08
4.76566e-05
1.58286e-07
5.14351e-08
2.97007e-11
-5.06268e-05
-2.50357e-07
5.04067e-05
5.23764e-07
-5.06268e-05
-2.50367e-07
-5.32671e-08
5.04067e-05
5.23771e-07
2.94185e-11
-2.32707e-07
4.86285e-07
-2.32718e-07
-5.32159e-08
4.86293e-07
3.00844e-11
-4.77887e-05
4.75897e-05
-4.77886e-05
-5.13708e-08
4.75897e-05
2.98048e-11
-5.1368e-08
-2.14005e-07
-5.07312e-05
-2.88408e-07
5.05116e-05
6.6866e-07
-5.0977e-05
-6.25336e-07
-6.39977e-08
5.07465e-05
7.05788e-07
-2.14959e-07
-2.68608e-07
6.29127e-07
-6.04344e-07
-6.55672e-08
6.63781e-07
-1.57556e-07
-4.78386e-05
4.76563e-05
-4.81804e-05
-6.00046e-07
4.79976e-05
-1.58189e-07
-6.02557e-07
7.33566e-07
-5.13102e-05
2.28664e-06
5.10475e-05
-2.82153e-06
-5.14455e-05
-2.27623e-06
5.11367e-05
3.31852e-06
7.31148e-07
2.30757e-06
-2.86343e-06
-2.26173e-06
3.28717e-06
1.92198e-06
-4.88587e-05
4.86233e-05
-4.90417e-05
4.86874e-05
1.92134e-06
-7.23007e-07
-5.0815e-05
-2.26035e-06
5.04756e-05
3.32281e-06
-5.07715e-05
2.19481e-06
6.0063e-08
5.04715e-05
-2.6779e-06
-7.21519e-07
-2.24337e-06
3.28714e-06
2.21728e-06
6.13124e-08
-2.72357e-06
-1.88498e-06
-4.83306e-05
4.79552e-05
-4.837e-05
5.83823e-07
4.8096e-05
-1.88553e-06
5.86104e-07
2.07812e-07
-5.04994e-05
-6.57068e-07
5.02287e-05
7.8e-07
-5.02752e-05
-3.24913e-07
5.21716e-08
5.0016e-05
7.39792e-07
2.08895e-07
-6.35171e-07
7.35156e-07
-3.03337e-07
5.2264e-08
6.96625e-07
1.53196e-07
-4.77952e-05
4.75688e-05
-4.74568e-05
5.02552e-08
4.72348e-05
1.53901e-07
5.03717e-08
2.95029e-11
-5.01702e-05
-2.84226e-07
4.99117e-05
5.94827e-07
-5.01701e-05
-2.84234e-07
-5.21011e-08
4.99117e-05
5.94832e-07
2.93351e-11
-2.64136e-07
5.52884e-07
-2.64146e-07
-5.21937e-08
5.5289e-07
2.9871e-11
-4.73759e-05
4.71419e-05
-4.73759e-05
-5.01888e-08
4.71418e-05
2.97115e-11
-5.03055e-08
-2.07676e-07
-5.0275e-05
-3.24924e-07
5.00157e-05
7.39755e-07
-5.04989e-05
-6.57038e-07
-6.01319e-08
5.02282e-05
7.80188e-07
-2.08758e-07
-3.03349e-07
6.9659e-07
-6.35141e-07
-6.13808e-08
7.35347e-07
-1.53102e-07
-4.74565e-05
4.72345e-05
-4.77946e-05
-5.83654e-07
4.75681e-05
-1.53807e-07
-5.85933e-07
7.22543e-07
-5.0771e-05
2.19347e-06
5.0471e-05
-2.67618e-06
-5.08145e-05
-2.25912e-06
5.04751e-05
3.32105e-06
7.21056e-07
2.21595e-06
-2.72184e-06
-2.24207e-06
3.28533e-06
1.88382e-06
-4.83689e-05
4.80949e-05
-4.83297e-05
4.79544e-05
1.88437e-06
-7.10533e-07
-5.01206e-05
-2.24825e-06
4.97458e-05
3.33362e-06
-5.01569e-05
2.09972e-06
5.68534e-08
4.98171e-05
-2.52725e-06
-7.09635e-07
-2.22831e-06
3.29285e-06
2.12353e-06
5.78033e-08
-2.57635e-06
-1.84526e-06
-4.75733e-05
4.71703e-05
-4.7803e-05
5.68088e-07
4.74894e-05
-1.8464e-06
5.70049e-07
2.01403e-07
-4.99402e-05
-6.90253e-07
4.96269e-05
8.58979e-07
-4.97386e-05
-3.64295e-07
5.07848e-08
4.94366e-05
8.16849e-07
2.02518e-07
-6.67056e-07
8.10802e-07
-3.40813e-07
5.09774e-08
7.69746e-07
1.48709e-07
-4.73223e-05
4.70515e-05
-4.69943e-05
4.88956e-08
4.67298e-05
1.49426e-07
4.90924e-08
2.90955e-11
-4.96356e-05
-3.22184e-07
4.93352e-05
6.7331e-07
-4.96355e-05
-3.22192e-07
-5.07158e-08
4.93351e-05
6.73313e-07
2.9024e-11
-2.99634e-07
6.26775e-07
-2.99643e-07
-5.09083e-08
6.26779e-07
2.94398e-11
-4.68913e-05
4.6618e-05
-4.68912e-05
-4.88307e-08
4.66179e-05
2.93804e-11
-4.90274e-08
-2.01271e-07
-4.97383e-05
-3.64302e-07
4.94363e-05
8.16809e-07
-4.99398e-05
-6.90219e-07
-5.69215e-08
4.96265e-05
8.59155e-07
-2.02385e-07
-3.40822e-07
7.69707e-07
-6.67021e-07
-5.78711e-08
8.1098e-07
-1.48618e-07
-4.6994e-05
4.67294e-05
-4.73216e-05
-5.67926e-07
4.70507e-05
-1.49334e-07
-5.69885e-07
7.10077e-07
-5.01564e-05
2.09842e-06
4.98165e-05
-2.52558e-06
-5.01203e-05
-2.24705e-06
4.97455e-05
3.33191e-06
7.0918e-07
2.12224e-06
-2.57468e-06
-2.22704e-06
3.29109e-06
1.84413e-06
-4.7802e-05
4.74884e-05
-4.75727e-05
4.71697e-05
1.84527e-06
-6.97172e-07
-4.93535e-05
-2.24176e-06
4.89387e-05
3.35373e-06
-4.94614e-05
2.00301e-06
5.42336e-08
4.90786e-05
-2.37161e-06
-6.96966e-07
-2.21972e-06
3.30896e-06
2.02917e-06
5.494e-08
-2.42538e-06
-1.80493e-06
-4.67577e-05
4.63209e-05
-4.71565e-05
5.53116e-07
4.68014e-05
-1.80715e-06
5.54982e-07
1.95061e-07
-4.92949e-05
-7.25469e-07
4.89364e-05
9.43172e-07
-4.91154e-05
-4.06679e-07
4.92519e-08
4.87677e-05
9.00214e-07
1.96244e-07
-7.01012e-07
8.91714e-07
-3.81358e-07
4.95372e-08
8.49323e-07
1.4428e-07
-4.67604e-05
4.64438e-05
-4.64458e-05
4.7424e-08
4.6136e-05
1.45041e-07
4.76965e-08
2.85202e-11
-4.90157e-05
-3.64167e-07
4.86698e-05
7.59249e-07
-4.90155e-05
-3.64173e-07
-4.91846e-08
4.86697e-05
7.59251e-07
2.85398e-11
-3.39292e-07
7.08333e-07
-3.39299e-07
-4.94697e-08
7.08335e-07
2.88352e-11
-4.63264e-05
4.60096e-05
-4.63263e-05
-4.73608e-08
4.60095e-05
2.887e-11
-4.76331e-08
-1.94934e-07
-4.91151e-05
-4.06682e-07
4.87673e-05
9.0017e-07
-4.92945e-05
-7.2543e-07
-5.43005e-08
4.89359e-05
9.43334e-07
-1.96115e-07
-3.81363e-07
8.49281e-07
-7.00974e-07
-5.50068e-08
8.91879e-07
-1.44192e-07
-4.64454e-05
4.61356e-05
-4.67596e-05
-5.5296e-07
4.64429e-05
-1.44953e-07
-5.54825e-07
6.96726e-07
-4.94609e-05
2.00176e-06
4.90781e-05
-2.36999e-06
-4.93532e-05
-2.24059e-06
4.89385e-05
3.35207e-06
6.9652e-07
2.02792e-06
-2.42376e-06
-2.21849e-06
3.30725e-06
1.80384e-06
-4.71554e-05
4.68004e-05
-4.67573e-05
4.63205e-05
1.80604e-06
-6.83118e-07
-4.85047e-05
-2.24032e-06
4.80456e-05
3.38251e-06
-4.86788e-05
1.90455e-06
5.21213e-08
4.825e-05
-2.21098e-06
-6.83337e-07
-2.21579e-06
3.33313e-06
1.93242e-06
5.26034e-08
-2.26861e-06
-1.76414e-06
-4.5872e-05
4.53958e-05
-4.64265e-05
5.3879e-07
4.60281e-05
-1.76689e-06
5.40465e-07
1.88813e-07
-4.85583e-05
-7.6282e-07
4.81518e-05
1.0326e-06
-4.83996e-05
-4.52036e-07
4.76115e-08
4.8003e-05
9.89802e-07
1.9e-07
-7.36897e-07
9.77627e-07
-4.2478e-07
4.79599e-08
9.3492e-07
1.3992e-07
-4.61066e-05
4.57427e-05
-4.58057e-05
4.58721e-08
4.54477e-05
1.40683e-07
4.61943e-08
2.78059e-11
-4.83035e-05