/*--------------------------------*- C++ -*----------------------------------*\
  =========                 |
  \\      /  F ield         | OpenFOAM: The Open Source CFD Toolbox
   \\    /   O peration     | Website:  https://openfoam.org
    \\  /    A nd           | Version:  9
     \\/     M anipulation  |
\*---------------------------------------------------------------------------*/
FoamFile
{
    format      ascii;
    class       volVectorField;
    location    "3";
    object      U;
}
// * * * * * * * * * * * * * * * * * * * * * * * * * * * * * * * * * * * * * //

dimensions      [0 1 -1 0 0 0 0];

internalField   nonuniform List<vector> 
36360
(
(0.00374811 -0.123723 -0.497426)
(-0.000715572 -0.0905026 0.000201887)
(0.00390153 -0.127878 -0.500071)
(-0.00212353 -0.0825438 0.000117307)
(0.00311745 -0.140044 -0.500795)
(0.00555585 -0.0721637 -3.11749e-07)
(0.00738919 -0.149183 -0.50186)
(0.00501485 -0.0750624 3.07034e-06)
(0.0024998 -0.0967288 -0.000130099)
(-0.000126036 -0.100759 -6.44424e-06)
(0.000245652 -0.0948925 -8.07579e-05)
(-0.0020009 -0.0990305 -3.68047e-06)
(0.00653256 -0.0981376 1.21075e-05)
(0.00444161 -0.105521 -4.41435e-06)
(0.00715506 -0.104709 -7.51106e-06)
(0.00637087 -0.108951 -6.76604e-06)
(-0.00248334 -0.10244 -9.51516e-08)
(-0.00248144 -0.102441 7.03904e-08)
(-0.00324223 -0.100287 -1.14186e-07)
(-0.00324157 -0.100288 1.16799e-07)
(0.00435867 -0.105056 -9.58783e-07)
(0.00435802 -0.105058 1.11542e-06)
(0.00663768 -0.107504 -1.68384e-06)
(0.00663729 -0.107506 1.72687e-06)
(-0.000123637 -0.100761 6.40081e-06)
(0.00250028 -0.0967325 0.000130073)
(-0.0019986 -0.0990332 3.68412e-06)
(0.00024698 -0.094897 8.079e-05)
(0.00444091 -0.105523 4.59491e-06)
(0.00653113 -0.0981396 -1.17792e-05)
(0.00636999 -0.108955 6.81214e-06)
(0.00715368 -0.10471 7.56663e-06)
(-0.000716019 -0.0905047 -0.000201904)
(0.00374884 -0.123717 0.497426)
(-0.00212416 -0.0825478 -0.000117319)
(0.00390231 -0.127872 0.50007)
(0.0055528 -0.0721671 4.56697e-07)
(0.00311791 -0.140036 0.500794)
(0.0050108 -0.0750609 -3.03875e-06)
(0.00739039 -0.149177 0.50186)
(0.0059052 -0.120427 -0.495455)
(-0.00450976 -0.0941587 0.000159402)
(0.00525984 -0.122813 -0.49649)
(-0.00252688 -0.0921637 0.000187224)
(0.00281018 -0.133956 -0.500806)
(-0.00131326 -0.0697899 -0.000112196)
(0.00255854 -0.137002 -0.501028)
(0.00215794 -0.068395 -4.92759e-05)
(0.00226777 -0.0973271 -6.80562e-05)
(0.00174718 -0.101173 -1.03212e-05)
(0.00286914 -0.0970699 -0.000103999)
(0.00145265 -0.101223 -7.86609e-06)
(0.00386442 -0.0887156 0.000145115)
(0.00276307 -0.099514 -2.96468e-06)
(0.00564626 -0.0918114 7.55329e-05)
(0.00362799 -0.102045 -3.59898e-06)
(0.000890255 -0.103047 -2.15769e-06)
(0.000890512 -0.103048 2.14605e-06)
(-0.000225134 -0.103242 -4.1604e-07)
(-0.000223977 -0.103242 2.37445e-07)
(0.00195954 -0.102406 -2.20934e-06)
(0.00195947 -0.102406 2.38427e-06)
(0.00264417 -0.103526 -8.5878e-07)
(0.00264382 -0.103527 1.25355e-06)
(0.00174716 -0.101175 1.03088e-05)
(0.0022675 -0.0973298 6.8026e-05)
(0.00145335 -0.101225 7.42967e-06)
(0.00286869 -0.0970728 0.000102735)
(0.00276235 -0.0995151 3.18555e-06)
(0.00386343 -0.0887188 -0.000144779)
(0.00362744 -0.102046 4.27386e-06)
(0.00564445 -0.0918139 -7.34972e-05)
(-0.00450966 -0.0941601 -0.000159446)
(0.00590548 -0.120421 0.495456)
(-0.00252802 -0.0921648 -0.000187316)
(0.00525992 -0.122808 0.496492)
(-0.001314 -0.0697933 0.000112299)
(0.00281031 -0.133946 0.500806)
(0.00215498 -0.0683989 4.97765e-05)
(0.00255828 -0.136993 0.501024)
(0.00643684 -0.116333 -0.493845)
(-0.006619 -0.0964145 7.78242e-05)
(0.00622322 -0.118222 -0.49457)
(-0.00580065 -0.0954285 0.000121713)
(0.00342754 -0.127261 -0.500498)
(-0.00408567 -0.0746732 -0.000255831)
(0.00313582 -0.130505 -0.500635)
(-0.00312446 -0.0719217 -0.000182429)
(0.00100283 -0.0970675 1.24385e-05)
(0.00130825 -0.100381 2.7483e-07)
(0.00156624 -0.0972168 -2.77361e-05)
(0.00160147 -0.100857 -7.77533e-06)
(0.00195382 -0.0853478 0.000288711)
(0.00131733 -0.095642 1.15879e-05)
(0.00267439 -0.0865075 0.000218648)
(0.00190311 -0.0972891 2.31769e-06)
(0.00106149 -0.102193 -4.22021e-06)
(0.00106143 -0.102194 4.25302e-06)
(0.00116385 -0.102673 -3.82963e-06)
(0.00116384 -0.102674 3.86108e-06)
(0.00107566 -0.0992926 -3.67015e-06)
(0.00107551 -0.099293 3.71363e-06)
(0.00154792 -0.100715 -3.31899e-06)
(0.00154771 -0.100715 3.39876e-06)
(0.00130809 -0.100383 -2.33619e-07)
(0.00100283 -0.0970694 -1.24021e-05)
(0.0016013 -0.100859 7.81482e-06)
(0.00156611 -0.097219 2.7777e-05)
(0.00131699 -0.095644 -1.15357e-05)
(0.00195356 -0.0853519 -0.000288639)
(0.00190249 -0.0972908 -2.22289e-06)
(0.00267388 -0.0865114 -0.000218542)
(-0.00661811 -0.096415 -7.79043e-05)
(0.00643662 -0.116327 0.493846)
(-0.00580011 -0.0954293 -0.00012177)
(0.00622328 -0.118216 0.49457)
(-0.00408527 -0.0746777 0.000255698)
(0.00342717 -0.12725 0.500498)
(-0.00312459 -0.071926 0.000182369)
(0.00313571 -0.130495 0.500634)
(0.00673894 -0.113265 -0.49259)
(-0.00743275 -0.0979678 -1.66493e-05)
(0.00660254 -0.114696 -0.493156)
(-0.00712061 -0.0972466 3.09103e-05)
(0.00377508 -0.121455 -0.500267)
(-0.00490232 -0.0801799 -0.000400807)
(0.00363102 -0.124243 -0.500372)
(-0.0045934 -0.0775043 -0.000329282)
(0.000315845 -0.0971066 8.18193e-05)
(0.000810884 -0.0995907 2.63643e-05)
(0.000592898 -0.0970277 4.93522e-05)
(0.00103221 -0.0999448 1.22308e-05)
(0.00119066 -0.0850057 0.000409001)
(0.000717405 -0.0936817 3.87054e-05)
(0.00148315 -0.0849286 0.000352513)
(0.000956387 -0.0944914 2.40619e-05)
(0.000694697 -0.101258 -1.73306e-06)
(0.000694656 -0.101259 1.75823e-06)
(0.000866755 -0.101703 -3.48861e-06)
(0.000866697 -0.101703 3.51778e-06)
(0.000545488 -0.0975131 -1.5043e-06)
(0.000545439 -0.0975137 1.52769e-06)
(0.000745591 -0.0982678 -3.06049e-06)
(0.000745508 -0.0982683 3.0913e-06)
(0.000810816 -0.0995921 -2.63279e-05)
(0.000315989 -0.0971083 -8.17973e-05)
(0.0010321 -0.0999463 -1.21922e-05)
(0.000592983 -0.0970296 -4.9322e-05)
(0.000717344 -0.0936839 -3.86675e-05)
(0.00119054 -0.08501 -0.00040893)
(0.000956242 -0.0944935 -2.40195e-05)
(0.00148299 -0.0849329 -0.000352445)
(-0.00743134 -0.097968 1.65219e-05)
(0.0067381 -0.11326 0.492592)
(-0.00711947 -0.0972469 -3.10129e-05)
(0.00660197 -0.11469 0.493157)
(-0.00490116 -0.0801838 0.000400565)
(0.00377409 -0.121444 0.500267)
(-0.00459263 -0.0775086 0.000329093)
(0.00363026 -0.124232 0.500372)
(0.00694723 -0.110917 -0.491575)
(-0.00775239 -0.0991487 -0.000108669)
(0.00684912 -0.112016 -0.492025)
(-0.00762711 -0.0985988 -6.35073e-05)
(0.00392684 -0.116619 -0.500079)
(-0.00521118 -0.0847942 -0.000533357)
(0.00386137 -0.118917 -0.500164)
(-0.00508477 -0.0826221 -0.000469099)
(4.54978e-05 -0.0974939 0.000132524)
(0.000525854 -0.0991644 5.72222e-05)
(0.000145083 -0.0972719 0.000109494)
(0.000644974 -0.0993341 4.16301e-05)
(0.000924501 -0.0859332 0.000499512)
(0.00042011 -0.0927445 7.09299e-05)
(0.00101801 -0.0853734 0.000457868)
(0.000546215 -0.0931184 5.46065e-05)
(0.00048397 -0.10058 4.13841e-06)
(0.000483941 -0.10058 -4.11677e-06)
(0.000569978 -0.100884 8.7993e-07)
(0.00056995 -0.100885 -8.60448e-07)
(0.000361403 -0.0964537 3.92944e-06)
(0.000361374 -0.0964543 -3.86752e-06)
(0.000429768 -0.0969278 8.78865e-07)
(0.000429735 -0.0969283 -8.6349e-07)
(0.000525825 -0.0991657 -5.72176e-05)
(4.58246e-05 -0.0974953 -0.00013256)
(0.000644929 -0.0993355 -4.16004e-05)
(0.00014528 -0.0972735 -0.000109488)
(0.000420081 -0.092747 -7.10053e-05)
(0.000924375 -0.085937 -0.000499549)
(0.000546177 -0.0931207 -5.45867e-05)
(0.00101787 -0.0853776 -0.000457804)
(-0.00775048 -0.0991487 0.000108478)
(0.00694583 -0.110911 0.491579)
(-0.00762548 -0.0985989 6.33504e-05)
(0.00684793 -0.11201 0.492028)
(-0.00520939 -0.0847974 0.000533022)
(0.00392536 -0.116608 0.50008)
(-0.00508331 -0.0826257 0.000468803)
(0.00386003 -0.118906 0.500164)
(0.00710438 -0.109076 -0.490756)
(-0.0078785 -0.100021 -0.000191746)
(0.00702879 -0.109945 -0.491109)
(-0.00783044 -0.0996217 -0.000151482)
(0.00399353 -0.112669 -0.499924)
(-0.0053286 -0.0883308 -0.0006483)
(0.00395973 -0.114544 -0.499992)
(-0.00528228 -0.0866911 -0.000592791)
(-3.79454e-05 -0.0980057 0.000166277)
(0.00038103 -0.0990102 8.74641e-05)
(-1.42112e-05 -0.0977436 0.000151239)
(0.000439997 -0.0990623 7.25396e-05)
(0.000891807 -0.0873033 0.000563968)
(0.000250155 -0.0923776 0.000103137)
(0.000892018 -0.0865917 0.000534068)
(0.000325132 -0.0925102 8.67483e-05)
(0.000389649 -0.100137 1.17947e-05)
(0.000389674 -0.100138 -1.18175e-05)
(0.00042712 -0.100335 7.87972e-06)
(0.000427037 -0.100335 -7.78767e-06)
(0.000290626 -0.0957136 1.09055e-05)
(0.000290637 -0.0957141 -1.13672e-05)
(0.000319188 -0.0960563 7.80501e-06)
(0.000319104 -0.0960568 -6.94854e-06)
(0.000381184 -0.0990113 -8.73602e-05)
(-3.78433e-05 -0.098007 -0.000166197)
(0.000439744 -0.0990636 -7.26339e-05)
(-1.3645e-05 -0.0977449 -0.000151386)
(0.000250327 -0.0923795 -0.000102584)
(0.000891596 -0.0873071 -0.000563304)
(0.000324903 -0.0925122 -8.76673e-05)
(0.00089213 -0.0865958 -0.000535006)
(-0.00787629 -0.100021 0.00019151)
(0.00710241 -0.109071 0.49076)
(-0.00782825 -0.0996216 0.00015131)
(0.0070271 -0.10994 0.491113)
(-0.00532646 -0.0883335 0.000647525)
(0.00399158 -0.112659 0.499925)
(-0.0052802 -0.0866941 0.000592983)
(0.00395795 -0.114533 0.499994)
(0.00722647 -0.107583 -0.490093)
(-0.00790977 -0.100613 -0.00026343)
(0.00716717 -0.108295 -0.490368)
(-0.00790114 -0.100349 -0.000229037)
(0.00402408 -0.109436 -0.499797)
(-0.00534892 -0.0909125 -0.00074405)
(0.00400424 -0.110974 -0.499852)
(-0.00533918 -0.0897296 -0.000698298)
(-1.24752e-05 -0.0985136 0.000186888)
(0.000323887 -0.0989956 0.000114057)
(-3.42403e-05 -0.0982666 0.000177965)
(0.00034475 -0.0989919 0.000101266)
(0.000958756 -0.0887334 0.00060694)
(0.000145229 -0.0923001 0.000131322)
(0.000917371 -0.0880264 0.000587464)
(0.000191815 -0.0923136 0.000117537)
(0.000348824 -0.0998393 2.00354e-05)
(0.000348883 -0.0998397 -2.00027e-05)
(0.000365166 -0.0999754 1.59147e-05)
(0.000365163 -0.0999758 -1.59188e-05)
(0.000254433 -0.0951404 1.8877e-05)
(0.000254437 -0.0951411 -1.90671e-05)
(0.000270222 -0.0954111 1.51178e-05)
(0.00027021 -0.0954116 -1.49654e-05)
(0.000323945 -0.0989967 -0.000113931)
(-1.22803e-05 -0.0985145 -0.000186865)
(0.000344715 -0.098993 -0.000101291)
(-3.39487e-05 -0.0982677 -0.000177858)
(0.000145362 -0.092302 -0.000130945)
(0.000958632 -0.0887362 -0.000606608)
(0.000191805 -0.0923157 -0.000117601)
(0.000917349 -0.0880297 -0.000587445)
(-0.00790719 -0.100613 0.000263174)
(0.0072241 -0.107578 0.490098)
(-0.00789872 -0.100349 0.000228846)
(0.00716493 -0.10829 0.490373)
(-0.00534638 -0.0909143 0.000743384)
(0.00402176 -0.109427 0.499798)
(-0.00533684 -0.0897318 0.000697955)
(0.00400198 -0.110964 0.499853)
(0.00732133 -0.106325 -0.489561)
(-0.00789053 -0.100967 -0.000323658)
(0.00727474 -0.10693 -0.489774)
(-0.0079034 -0.100817 -0.000294849)
(0.00403392 -0.106757 -0.499693)
(-0.00532876 -0.0927202 -0.000822577)
(0.00402319 -0.108036 -0.499736)
(-0.00533531 -0.0919012 -0.000784652)
(6.63734e-05 -0.0989313 0.000198556)
(0.000322294 -0.099029 0.000135828)
(2.2581e-05 -0.0987366 0.000193558)
(0.000317144 -0.0990107 0.000125438)
(0.00106985 -0.0900168 0.000634414)
(8.60894e-05 -0.0923634 0.000155718)
(0.00101287 -0.0893999 0.000622158)
(0.000110757 -0.0923201 0.000142628)
(0.000330797 -0.0996153 2.78125e-05)
(0.000331234 -0.0996156 -2.7681e-05)
(0.000338375 -0.0997211 2.40447e-05)
(0.000338143 -0.0997215 -2.39338e-05)
(0.000225956 -0.0946672 2.63223e-05)
(0.000226406 -0.0946677 -2.66243e-05)
(0.000240359 -0.0948938 2.31346e-05)
(0.000240115 -0.0948939 -2.24746e-05)
(0.000322046 -0.0990298 -0.000135481)
(6.61032e-05 -0.0989319 -0.000198364)
(0.000317192 -0.0990116 -0.000125453)
(2.32188e-05 -0.0987374 -0.000193618)
(8.59469e-05 -0.0923651 -0.000153025)
(0.00106923 -0.0900194 -0.000634211)
(0.0001109 -0.0923222 -0.000144173)
(0.00101309 -0.0894032 -0.000622189)
(-0.00788787 -0.100966 0.000323293)
(0.00731848 -0.106321 0.489566)
(-0.00790055 -0.100817 0.000294667)
(0.00727214 -0.106926 0.489779)
(-0.00532607 -0.0927215 0.000820852)
(0.00403122 -0.106748 0.499693)
(-0.00533252 -0.0919031 0.000784944)
(0.00402061 -0.108027 0.499738)
(0.00739273 -0.105227 -0.489126)
(-0.0078467 -0.101119 -0.000373355)
(0.00735728 -0.10576 -0.489289)
(-0.00786915 -0.101065 -0.000349665)
(0.00402844 -0.104503 -0.499607)
(-0.00528982 -0.093924 -0.000884346)
(0.00402405 -0.105584 -0.499641)
(-0.00530307 -0.0933876 -0.000854716)
(0.000177292 -0.0992222 0.000203995)
(0.000356177 -0.0990492 0.000152537)
(0.000119039 -0.0990936 0.000201849)
(0.000336247 -0.0990432 0.000144666)
(0.00118647 -0.0910648 0.000650749)
(5.94678e-05 -0.0924708 0.000172556)
(0.00112957 -0.0905729 0.000643786)
(6.98094e-05 -0.0924158 0.000163626)
(0.000327481 -0.0994212 3.45454e-05)
(0.000327536 -0.0994215 -3.44576e-05)
(0.000327428 -0.0995169 3.13158e-05)
(0.000327295 -0.0995172 -3.12058e-05)
(0.000199902 -0.0942625 3.31201e-05)
(0.000199963 -0.0942629 -3.30673e-05)
(0.000212398 -0.0944571 3.00933e-05)
(0.000212274 -0.094458 -2.9736e-05)
(0.000356167 -0.0990499 -0.000152409)
(0.000177604 -0.0992226 -0.000203949)
(0.000336317 -0.0990439 -0.000144595)
(0.000119518 -0.099094 -0.000201806)
(5.95585e-05 -0.0924723 -0.000172328)
(0.00118625 -0.0910669 -0.000650533)
(6.99791e-05 -0.0924172 -0.000164426)
(0.00112955 -0.0905745 -0.000643473)
(-0.00784355 -0.101118 0.000373059)
(0.00738971 -0.105224 0.489133)
(-0.0078661 -0.101065 0.000349432)
(0.0073543 -0.105757 0.489296)
(-0.00528671 -0.0939247 0.000883697)
(0.00402558 -0.104495 0.499608)
(-0.00530008 -0.0933883 0.000854592)
(0.00402115 -0.105575 0.499643)
(0.00744663 -0.104234 -0.488772)
(-0.00778617 -0.1011 -0.000413956)
(0.00741912 -0.104721 -0.488899)
(-0.00781661 -0.101129 -0.000394692)
(0.0040135 -0.102572 -0.499536)
(-0.00523655 -0.0946643 -0.000933438)
(0.00401307 -0.103502 -0.499564)
(-0.00525704 -0.0943448 -0.000910364)
(0.000297272 -0.0993742 0.000205503)
(0.000407595 -0.0990215 0.00016502)
(0.000239211 -0.0993156 0.000205144)
(0.000380706 -0.0990428 0.000159273)
(0.00129644 -0.0918492 0.000659233)
(5.41267e-05 -0.092561 0.000185927)
(0.00124379 -0.0914893 0.000655789)
(5.45696e-05 -0.0925202 0.000179751)
(0.000338449 -0.0992213 4.0098e-05)
(0.000338478 -0.0992216 -4.00036e-05)
(0.000331356 -0.0993236 3.74771e-05)
(0.000331388 -0.0993239 -3.73863e-05)
(0.000180804 -0.0939002 3.86331e-05)
(0.000180844 -0.0939007 -3.85385e-05)
(0.000189412 -0.0940771 3.60332e-05)
(0.000189448 -0.0940777 -3.59411e-05)
(0.00040756 -0.099022 -0.000164889)
(0.000297467 -0.0993744 -0.000205462)
(0.000380695 -0.0990434 -0.000159146)
(0.000239524 -0.0993158 -0.000205102)
(5.42439e-05 -0.0925622 -0.000185783)
(0.0012962 -0.0918505 -0.000658995)
(5.46727e-05 -0.0925215 -0.000179615)
(0.00124355 -0.0914908 -0.000655555)
(-0.00778286 -0.101099 0.00041363)
(0.00744339 -0.104231 0.488779)
(-0.00781339 -0.101128 0.000394381)
(0.00741587 -0.104717 0.488905)
(-0.00523325 -0.0946644 0.000932772)
(0.00401048 -0.102565 0.499537)
(-0.00525387 -0.0943452 0.000909726)
(0.00400995 -0.103495 0.499565)
(0.00748959 -0.103303 -0.488473)
(-0.0077138 -0.10093 -0.000446717)
(0.00746647 -0.103763 -0.48857)
(-0.00774967 -0.101033 -0.000431224)
(0.00399321 -0.100887 -0.499477)
(-0.00517026 -0.0950404 -0.000971668)
(0.00399425 -0.101704 -0.499499)
(-0.00519604 -0.0948925 -0.000953752)
(0.000398543 -0.099388 0.000204472)
(0.000467781 -0.0989239 0.000173797)
(0.000349278 -0.0993979 0.000205234)
(0.000436685 -0.0989824 0.00016981)
(0.0013977 -0.0923863 0.000662339)
(6.584e-05 -0.0925976 0.000195279)
(0.00134952 -0.0921464 0.000661315)
(5.84207e-05 -0.0925875 0.000191122)
(0.000362611 -0.0989904 4.44039e-05)
(0.00036264 -0.0989906 -4.43017e-05)
(0.000348928 -0.099111 4.23966e-05)
(0.000348957 -0.0991112 -4.22983e-05)
(0.000169468 -0.0935549 4.29593e-05)
(0.000169514 -0.0935553 -4.28568e-05)
(0.000174187 -0.0937265 4.09381e-05)
(0.000174231 -0.0937269 -4.08395e-05)
(0.000467741 -0.0989242 -0.00017366)
(0.00039875 -0.099388 -0.000204434)
(0.000436643 -0.0989828 -0.000169676)
(0.00034946 -0.099398 -0.000205195)
(6.59655e-05 -0.0925985 -0.000195125)
(0.00139744 -0.0923872 -0.000662093)
(5.85472e-05 -0.0925886 -0.000190973)
(0.00134927 -0.0921475 -0.000661072)
(-0.00771036 -0.100929 0.000446365)
(0.00748619 -0.1033 0.48848)
(-0.00774631 -0.101032 0.000430885)
(0.00746303 -0.10376 0.488577)
(-0.00516684 -0.0950399 0.000970958)
(0.00399008 -0.100881 0.499478)
(-0.00519272 -0.0948923 0.000953063)
(0.00399098 -0.101697 0.4995)
(0.0075285 -0.102402 -0.488214)
(-0.00763228 -0.100624 -0.000472869)
(0.00750687 -0.102851 -0.488293)
(-0.00767203 -0.100793 -0.000460516)
(0.00397271 -0.0993806 -0.499426)
(-0.00509619 -0.0951246 -0.00100065)
(0.00397333 -0.100116 -0.499444)
(-0.0051257 -0.0951159 -0.00098734)
(0.000498761 -0.0992675 0.00020189)
(0.000537291 -0.0987409 0.000179628)
(0.000449144 -0.0993443 0.000203331)
(0.000501527 -0.0988438 0.000177026)
(0.00149115 -0.0926982 0.000661876)
(8.81873e-05 -0.0925588 0.000201769)
(0.00144622 -0.0925694 0.000662453)
(7.52224e-05 -0.0925893 0.000198752)
(0.000400103 -0.0987086 4.76035e-05)
(0.00040013 -0.0987087 -4.74946e-05)
(0.000379698 -0.0988569 4.61242e-05)
(0.000379727 -0.098857 -4.60186e-05)
(0.000166622 -0.093203 4.62171e-05)
(0.000166673 -0.0932033 -4.61076e-05)
(0.000166855 -0.0933807 4.47112e-05)
(0.000166905 -0.093381 -4.46051e-05)
(0.000537249 -0.0987411 -0.000179484)
(0.000498987 -0.0992673 -0.000201852)
(0.000501486 -0.098844 -0.000176886)
(0.000449358 -0.0993442 -0.000203293)
(8.83239e-05 -0.0925595 -0.000201609)
(0.00149087 -0.0926987 -0.000661625)
(7.53548e-05 -0.0925901 -0.000198595)
(0.00144593 -0.09257 -0.000662203)
(-0.00762875 -0.100623 0.000472494)
(0.00752501 -0.102399 0.488221)
(-0.00766856 -0.100792 0.000460153)
(0.0075033 -0.102849 0.488301)
(-0.00509272 -0.0951237 0.000999914)
(0.00396951 -0.0993755 0.499427)
(-0.00512229 -0.0951152 0.000986613)
(0.00396996 -0.10011 0.499445)
(0.00756883 -0.101504 -0.48798)
(-0.0075423 -0.100192 -0.000493539)
(0.00754495 -0.101954 -0.488044)
(-0.00758673 -0.100424 -0.000483806)
(0.00395348 -0.0980001 -0.499381)
(-0.00502072 -0.0949773 -0.00102339)
(0.00395123 -0.098678 -0.499396)
(-0.00505105 -0.0950806 -0.00101256)
(0.000600205 -0.099012 0.000198442)
(0.000615127 -0.0984613 0.000183158)
(0.000549809 -0.0991566 0.000200241)
(0.000575232 -0.0986137 0.000181627)
(0.00157699 -0.0927987 0.000659128)
(0.000118886 -0.0924251 0.000205731)
(0.00153624 -0.0927741 0.000660711)
(0.000102975 -0.092504 0.000204042)
(0.000451217 -0.0983591 4.988e-05)
(0.000451242 -0.0983591 -4.97655e-05)
(0.0004239 -0.0985432 4.88432e-05)
(0.000423926 -0.0985433 -4.87313e-05)
(0.000173105 -0.092823 4.8547e-05)
(0.000173156 -0.0928233 -4.84318e-05)
(0.000168711 -0.0930173 4.74879e-05)
(0.000168762 -0.0930176 -4.73755e-05)
(0.00061508 -0.0984613 -0.00018301)
(0.000600442 -0.0990117 -0.000198406)
(0.000575185 -0.0986138 -0.000181481)
(0.000550036 -0.0991563 -0.000200204)
(0.000119016 -0.0924255 -0.000205565)
(0.00157668 -0.0927987 -0.000658874)
(0.000103107 -0.0925046 -0.000203879)
(0.00153594 -0.0927743 -0.000660457)
(-0.00753873 -0.100191 0.000493146)
(0.00756528 -0.101502 0.487988)
(-0.0075832 -0.100423 0.000483422)
(0.00754132 -0.101952 0.488052)
(-0.00501722 -0.0949761 0.00102262)
(0.00395025 -0.0979958 0.499382)
(-0.00504758 -0.0950795 0.00101181)
(0.00394783 -0.0986733 0.499397)
(0.00761657 -0.100582 -0.487765)
(-0.00744358 -0.0996404 -0.000509654)
(0.00758915 -0.101047 -0.487817)
(-0.00749276 -0.0999311 -0.000502063)
(0.00394026 -0.0966968 -0.49934)
(-0.004944 -0.0946313 -0.00104004)
(0.00393605 -0.0973413 -0.499353)
(-0.00497411 -0.0948269 -0.00103232)
(0.000704541 -0.0986238 0.000194515)
(0.000702415 -0.0980755 0.000184963)
(0.000652325 -0.0988344 0.000196507)
(0.000657632 -0.0982821 0.000184228)
(0.00165204 -0.0927066 0.000654976)
(0.000154596 -0.0921857 0.000207766)
(0.00161626 -0.0927761 0.000657156)
(0.000136168 -0.0923189 0.000206945)
(0.000516905 -0.0979265 5.13951e-05)
(0.000516928 -0.0979265 -5.12761e-05)
(0.000482223 -0.098154 5.07173e-05)
(0.000482247 -0.098154 -5.06005e-05)
(0.000187866 -0.0923945 5.01135e-05)
(0.000187913 -0.0923946 -4.99937e-05)
(0.000179475 -0.0926156 4.9414e-05)
(0.000179524 -0.0926158 -4.92963e-05)
(0.000702364 -0.0980753 -0.000184812)
(0.000704784 -0.0986233 -0.00019448)
(0.000657582 -0.098282 -0.000184079)
(0.000652561 -0.098834 -0.000196471)
(0.000154719 -0.0921859 -0.000207597)
(0.00165168 -0.0927062 -0.000654723)
(0.000136292 -0.0923192 -0.000206777)
(0.00161591 -0.092776 -0.000656902)
(-0.00743999 -0.0996394 0.000509247)
(0.00761301 -0.10058 0.487774)
(-0.00748919 -0.09993 0.000501662)
(0.00758549 -0.101045 0.487826)
(-0.0049405 -0.0946298 0.00103925)
(0.00393703 -0.0966932 0.499342)
(-0.00497065 -0.0948256 0.00103154)
(0.00393263 -0.0973373 0.499354)
(0.0076752 -0.099616 -0.487554)
(-0.00733408 -0.098968 -0.000522083)
(0.00764178 -0.100106 -0.487603)
(-0.00738837 -0.099319 -0.000516252)
(0.00393385 -0.0954287 -0.499302)
(-0.00486387 -0.0941134 -0.0010522)
(0.00392583 -0.0960605 -0.499313)
(-0.00489475 -0.0943923 -0.0010466)
(0.00081384 -0.0981027 0.000190468)
(0.000800166 -0.0975748 0.000185493)
(0.000759133 -0.0983798 0.000192495)
(0.000750078 -0.0978398 0.00018535)
(0.00172108 -0.0924336 0.000650101)
(0.000195703 -0.0918298 0.000208418)
(0.00168856 -0.0925914 0.000652602)
(0.000174711 -0.0920223 0.000208236)
(0.00059785 -0.0973968 5.23039e-05)
(0.00059787 -0.0973968 -5.21815e-05)
(0.000555466 -0.0976745 5.19116e-05)
(0.000555488 -0.0976744 -5.17908e-05)
(0.000210917 -0.0918969 5.10737e-05)
(0.000210962 -0.091897 -5.09502e-05)
(0.00019844 -0.092155 5.06596e-05)
(0.000198486 -0.0921551 -5.05379e-05)
(0.00080011 -0.0975745 -0.00018534)
(0.000814077 -0.0981021 -0.000190435)
(0.000750024 -0.0978397 -0.000185198)
(0.000759369 -0.0983792 -0.000192461)
(0.000195818 -0.0918298 -0.000208247)
(0.0017207 -0.092433 -0.000649849)
(0.000174829 -0.0920224 -0.000208065)
(0.00168819 -0.0925909 -0.000652349)
(-0.00733048 -0.0989669 0.000521664)
(0.00767164 -0.0996145 0.487562)
(-0.00738479 -0.0993179 0.000515839)
(0.0076381 -0.100105 0.487612)
(-0.00486039 -0.0941117 0.0010514)
(0.00393063 -0.0954257 0.499304)
(-0.00489132 -0.0943907 0.0010458)
(0.00392241 -0.0960572 0.499315)
(0.00774781 -0.0985829 -0.487349)
(-0.00721332 -0.0981733 -0.000531469)
(0.00770711 -0.099109 -0.487395)
(-0.0072734 -0.0985862 -0.000527079)
(0.00393593 -0.0941584 -0.499266)
(-0.00478142 -0.09344 -0.00106076)
(0.00392349 -0.0947958 -0.499276)
(-0.00481351 -0.0937952 -0.00105686)
(0.00092956 -0.0974459 0.000186479)
(0.000909172 -0.09695 0.000185089)
(0.000871379 -0.0977914 0.000188455)
(0.000853311 -0.0972783 0.000185374)
(0.00178604 -0.0919899 0.000644848)
(0.000241505 -0.0913478 0.000208062)
(0.00175516 -0.0922323 0.000647487)
(0.000218123 -0.0916046 0.000208343)
(0.000694452 -0.0967565 5.27408e-05)
(0.000694468 -0.0967564 -5.26158e-05)
(0.000644161 -0.0970912 5.25689e-05)
(0.000644179 -0.0970911 -5.24451e-05)
(0.000241449 -0.0913111 5.15603e-05)
(0.000241492 -0.091311 -5.14342e-05)
(0.000225212 -0.0916156 5.13679e-05)
(0.000225256 -0.0916156 -5.1243e-05)
(0.000909108 -0.0969497 -0.000184935)
(0.000929789 -0.0974453 -0.000186448)
(0.00085325 -0.0972781 -0.000185221)
(0.000871608 -0.0977908 -0.000188423)
(0.000241613 -0.0913476 -0.000207889)
(0.00178564 -0.091989 -0.000644599)
(0.000218234 -0.0916045 -0.00020817)
(0.00175475 -0.0922315 -0.000647236)
(-0.00720974 -0.0981722 0.000531041)
(0.00774427 -0.0985816 0.487358)
(-0.00726983 -0.0985851 0.000526655)
(0.00770345 -0.0991076 0.487403)
(-0.00477798 -0.0934382 0.00105996)
(0.00393273 -0.0941559 0.499268)
(-0.00481011 -0.0937935 0.00105605)
(0.00392009 -0.094793 0.499277)
(0.00783643 -0.0974626 -0.487146)
(-0.00707988 -0.0972505 -0.000538373)
(0.00778753 -0.0980348 -0.487189)
(-0.00714651 -0.0977283 -0.000535158)
(0.00394688 -0.0928522 -0.499232)
(-0.00469548 -0.092619 -0.00106645)
(0.00392988 -0.0935114 -0.49924)
(-0.00472937 -0.0930474 -0.00106391)
(0.00105379 -0.0966483 0.00018269)
(0.00103065 -0.0961911 0.000184013)
(0.000991077 -0.097065 0.000184552)
(0.000968383 -0.0965878 0.000184605)
(0.00184941 -0.0913805 0.000639499)
(0.000292197 -0.0907304 0.00020698)
(0.00181905 -0.0917053 0.000642161)
(0.000266331 -0.0910561 0.000207593)
(0.000807365 -0.0959916 5.28152e-05)
(0.000807378 -0.0959915 -5.26885e-05)
(0.000748824 -0.0963903 5.28123e-05)
(0.000748838 -0.0963902 -5.26864e-05)
(0.000279517 -0.0906186 5.16815e-05)
(0.000279558 -0.0906185 -5.15537e-05)
(0.000259488 -0.0909787 5.16598e-05)
(0.00025953 -0.0909786 -5.15328e-05)
(0.00103057 -0.0961907 -0.000183859)
(0.00105401 -0.0966475 -0.00018266)
(0.000968314 -0.0965874 -0.000184451)
(0.000991296 -0.0970643 -0.000184522)
(0.000292296 -0.09073 -0.000206807)
(0.00184898 -0.0913794 -0.000639253)
(0.000266434 -0.0910558 -0.000207421)
(0.00181863 -0.0917043 -0.000641913)
(-0.00707632 -0.0972494 0.000537939)
(0.00783292 -0.0974615 0.487155)
(-0.00714296 -0.0977272 0.000534727)
(0.0077839 -0.0980336 0.487198)
(-0.00469209 -0.0926171 0.00106563)
(0.00394371 -0.0928502 0.499233)
(-0.00472601 -0.0930455 0.00106309)
(0.00392651 -0.0935092 0.499242)
(0.00794243 -0.0962357 -0.486942)
(-0.00693213 -0.0961913 -0.000543244)
(0.00788475 -0.0968635 -0.486984)
(-0.00700614 -0.0967384 -0.000540993)
(0.00396683 -0.0914803 -0.499198)
(-0.00460493 -0.0916526 -0.00106978)
(0.00394529 -0.0921759 -0.499206)
(-0.00464121 -0.0921538 -0.00106835)
(0.00118864 -0.0957026 0.000179184)
(0.00116586 -0.0952876 0.000182461)
(0.00112034 -0.0961943 0.000180897)
(0.00109656 -0.095758 0.00018327)
(0.00191294 -0.0906066 0.000634209)
(0.000348008 -0.0899676 0.00020538)
(0.00188228 -0.0910138 0.000636827)
(0.000319527 -0.0903673 0.000206231)
(0.000937302 -0.0950886 5.26133e-05)
(0.000937311 -0.0950885 -5.24858e-05)
(0.000870153 -0.0955581 5.2739e-05)
(0.000870163 -0.095558 -5.26119e-05)
(0.000325215 -0.0898021 5.15222e-05)
(0.000325253 -0.089802 -5.13937e-05)
(0.000301341 -0.0902263 5.16316e-05)
(0.000301381 -0.0902262 -5.15033e-05)
(0.00116578 -0.0952871 -0.000182307)
(0.00118884 -0.0957018 -0.000179157)
(0.00109648 -0.0957575 -0.000183116)
(0.00112055 -0.0961935 -0.000180868)
(0.000348098 -0.089967 -0.000205208)
(0.0019125 -0.0906053 -0.000633967)
(0.00031962 -0.0903668 -0.000206058)
(0.00188184 -0.0910126 -0.000636583)
(-0.00692861 -0.0961903 0.000542807)
(0.00793896 -0.0962349 0.486951)
(-0.00700261 -0.0967374 0.000540557)
(0.00788115 -0.0968626 0.486993)
(-0.00460159 -0.0916506 0.00106897)
(0.00396369 -0.0914787 0.499199)
(-0.00463789 -0.0921518 0.00106754)
(0.00394195 -0.0921742 0.499208)
(0.00806675 -0.094884 -0.486735)
(-0.00676867 -0.0949866 -0.000546436)
(0.00799977 -0.0955764 -0.486774)
(-0.0068507 -0.0956077 -0.00054498)
(0.00399546 -0.0900164 -0.499165)
(-0.00450857 -0.0905386 -0.00107117)
(0.00396932 -0.0907611 -0.499172)
(-0.00454765 -0.091114 -0.00107067)
(0.00133596 -0.0946006 0.000176007)
(0.00131596 -0.0942283 0.000180571)
(0.00126121 -0.0951716 0.000177551)
(0.00123908 -0.094778 0.000181534)
(0.00197804 -0.0896666 0.00062906)
(0.000409241 -0.0890494 0.000203407)
(0.00194644 -0.0901572 0.0006316)
(0.000377997 -0.0895281 0.000204429)
(0.00108491 -0.094034 5.21997e-05)
(0.00108491 -0.0940338 -5.20722e-05)
(0.00100884 -0.094581 5.24241e-05)
(0.00100885 -0.0945808 -5.22966e-05)
(0.000378638 -0.0888451 5.11466e-05)
(0.000378674 -0.0888449 -5.1018e-05)
(0.000350876 -0.0893416 5.13573e-05)
(0.000350913 -0.0893415 -5.12286e-05)
(0.00131587 -0.0942278 -0.000180419)
(0.00133615 -0.0945997 -0.000175981)
(0.001239 -0.0947775 -0.000181381)
(0.0012614 -0.0951707 -0.000177524)
(0.000409322 -0.0890487 -0.000203237)
(0.00197758 -0.0896652 -0.000628822)
(0.000378082 -0.0895275 -0.000204258)
(0.00194599 -0.0901558 -0.00063136)
(-0.00676518 -0.0949856 0.000545998)
(0.00806331 -0.0948833 0.486743)
(-0.00684721 -0.0956067 0.000544542)
(0.00799621 -0.0955757 0.486783)
(-0.00450529 -0.0905366 0.00107036)
(0.00399235 -0.0900153 0.499166)
(-0.00454439 -0.091112 0.00106986)
(0.00396602 -0.0907598 0.499174)
(0.00821037 -0.0933897 -0.486527)
(-0.00658778 -0.0936253 -0.000548226)
(0.00813375 -0.0941556 -0.486566)
(-0.00667878 -0.0943261 -0.000547441)
(0.00403315 -0.0884359 -0.499132)
(-0.00440555 -0.0892716 -0.00107091)
(0.00400263 -0.0892418 -0.499139)
(-0.00444819 -0.0899244 -0.0010712)
(0.00149724 -0.0933325 0.000173167)
(0.00148195 -0.0930017 0.000178442)
(0.00141533 -0.0939878 0.000174542)
(0.00139701 -0.0936365 0.000179515)
(0.00204562 -0.0885561 0.000624079)
(0.000476163 -0.087965 0.000201162)
(0.00201265 -0.0891326 0.000626534)
(0.000442018 -0.0885281 0.00020231)
(0.00125078 -0.092814 5.16213e-05)
(0.00125078 -0.0928138 -5.14944e-05)
(0.00116551 -0.0934453 5.19233e-05)
(0.00116551 -0.0934451 -5.17961e-05)
(0.000439867 -0.0877315 5.06011e-05)
(0.000439901 -0.0877312 -5.04732e-05)
(0.000408172 -0.0883083 5.08919e-05)
(0.000408207 -0.088308 -5.07636e-05)
(0.00148185 -0.0930011 -0.000178291)
(0.00149743 -0.0933315 -0.000173142)
(0.00139691 -0.0936359 -0.000179364)
(0.00141552 -0.0939869 -0.000174517)
(0.000476235 -0.0879642 -0.000200993)
(0.00204516 -0.0885546 -0.000623845)
(0.000442094 -0.0885274 -0.000202141)
(0.00201218 -0.0891311 -0.000626299)
(-0.00658432 -0.0936243 0.000547788)
(0.00820696 -0.0933892 0.486535)
(-0.00667533 -0.0943251 0.000547002)
(0.00813023 -0.094155 0.486575)
(-0.00440232 -0.0892697 0.00107011)
(0.00403006 -0.0884351 0.499134)
(-0.00444498 -0.0899224 0.0010704)
(0.00399935 -0.0892409 0.499141)
(0.00837333 -0.091736 -0.486316)
(-0.0063889 -0.0920956 -0.000548817)
(0.00828709 -0.0925836 -0.486354)
(-0.0064888 -0.0928821 -0.000548606)
(0.00407937 -0.0867167 -0.499101)
(-0.00429552 -0.0878443 -0.00106923)
(0.00404452 -0.0875946 -0.499107)
(-0.00434143 -0.0885781 -0.00107022)
(0.00167335 -0.0918881 0.000170649)
(0.00166456 -0.0915962 0.00017613)
(0.00158396 -0.0926328 0.000171866)
(0.00157122 -0.0923219 0.000177289)
(0.00211632 -0.0872697 0.00061926)
(0.00054907 -0.0867039 0.000198703)
(0.00208172 -0.0879349 0.000621637)
(0.000511875 -0.0873568 0.000199953)