/*--------------------------------*- C++ -*----------------------------------*\
  =========                 |
  \\      /  F ield         | OpenFOAM: The Open Source CFD Toolbox
   \\    /   O peration     | Website:  https://openfoam.org
    \\  /    A nd           | Version:  9
     \\/     M anipulation  |
\*---------------------------------------------------------------------------*/
FoamFile
{
    format      ascii;
    class       volScalarField;
    location    "2.35";
    object      k;
}
// * * * * * * * * * * * * * * * * * * * * * * * * * * * * * * * * * * * * * //

dimensions      [0 2 -2 0 0 0 0];

internalField   nonuniform List<scalar> 
36360
(
0.0799911
0.0651958
0.0344169
0.0305928
0.0182663
0.0141455
0.00587289
0.00528072
0.0250208
0.00669631
0.00716236
0.00313174
0.00514309
0.00252582
0.00318969
0.00295046
0.00249509
0.00249564
0.00269249
0.00269254
0.00216413
0.00216414
0.00297848
0.00297848
0.00670158
0.0250358
0.00313232
0.00716676
0.00252614
0.00514557
0.00295045
0.00318999
0.0652152
0.0800087
0.0306078
0.0344287
0.0141522
0.018272
0.0052826
0.00587404
0.135455
0.112509
0.112327
0.092198
0.0439054
0.0335584
0.0330554
0.0249143
0.060066
0.0293397
0.0440908
0.0171337
0.0174104
0.00683387
0.0107307
0.003634
0.0128624
0.01287
0.00488894
0.00489224
0.00258452
0.00258527
0.00186494
0.00186504
0.0293568
0.0600891
0.0171463
0.0441094
0.00683786
0.017419
0.00363561
0.0107366
0.112536
0.135481
0.0922209
0.112348
0.03357
0.0439164
0.0249235
0.033064
0.165889
0.14031
0.152629
0.128056
0.0577079
0.0454585
0.0517789
0.0402411
0.0839598
0.0510082
0.0731507
0.0408042
0.0274818
0.0155627
0.0229511
0.0113369
0.0352952
0.0353055
0.024651
0.02466
0.00936168
0.00936495
0.00514582
0.00514785
0.0510344
0.0839941
0.040826
0.0731792
0.0155722
0.0274962
0.0113437
0.0229625
0.140349
0.165927
0.128088
0.15266
0.0454757
0.0577244
0.0402553
0.0517925
0.184645
0.157959
0.176322
0.150089
0.0659051
0.0528824
0.0622918
0.0495846
0.100153
0.0669024
0.09286
0.0596973
0.034193
0.0222628
0.0311804
0.0192228
0.0516984
0.0517113
0.0442972
0.0443088
0.0165169
0.0165222
0.013259
0.0132634
0.0669368
0.1002
0.0597276
0.0929004
0.0222773
0.0342136
0.019235
0.0311979
0.158011
0.184696
0.150134
0.176367
0.0529059
0.0659282
0.0496049
0.0623116
0.196458
0.169206
0.191243
0.164234
0.0709745
0.0575579
0.0687455
0.0554963
0.110706
0.0773567
0.106029
0.0727264
0.0385184
0.02663
0.0366071
0.0247054
0.0623268
0.0623421
0.0576354
0.0576495
0.0211228
0.0211295
0.0191073
0.0191133
0.0773984
0.110763
0.0727646
0.106082
0.0266487
0.0385447
0.024722
0.0366306
0.16927
0.196522
0.164292
0.191301
0.0575877
0.0710039
0.0555231
0.0687717
0.203587
0.176015
0.200493
0.17306
0.0739912
0.0603548
0.072687
0.0591449
0.117127
0.0836964
0.114342
0.0809503
0.0411169
0.0292207
0.0399938
0.0281059
0.0687082
0.0687258
0.0659499
0.0659664
0.0237959
0.0238039
0.0226514
0.0226588
0.0837445
0.117194
0.0809954
0.114404
0.0292426
0.041148
0.0281263
0.0400226
0.17609
0.203662
0.173129
0.200563
0.0603899
0.0740259
0.0591775
0.0727191
0.207557
0.17981
0.205879
0.178206
0.0756462
0.0618882
0.0749493
0.0612428
0.120705
0.0872165
0.119196
0.0857331
0.0425404
0.0306189
0.0419423
0.030034
0.0722304
0.0722497
0.0707475
0.070766
0.025217
0.0252258
0.0246245
0.0246329
0.0872695
0.120779
0.0857838
0.119266
0.0306434
0.0425751
0.0300573
0.0419753
0.179893
0.207641
0.178285
0.205959
0.0619273
0.0756849
0.0612801
0.0749861
0.209518
0.181686
0.208723
0.180924
0.0764496
0.0626284
0.0761246
0.0623294
0.122477
0.0889603
0.121759
0.0882531
0.0432299
0.0312874
0.0429514
0.0310183
0.0739714
0.0739919
0.0732649
0.0732849
0.0258887
0.0258981
0.0256188
0.025628
0.0890167
0.122556
0.088308
0.121835
0.0313135
0.043267
0.0310437
0.0429874
0.181775
0.209607
0.18101
0.20881
0.0626702
0.0764911
0.06237
0.0761648
0.210289
0.182435
0.210005
0.182157
0.0767609
0.0629114
0.0766456
0.0628069
0.123196
0.0896791
0.122928
0.0894085
0.0435018
0.031549
0.0434002
0.0314511
0.0746934
0.0747146
0.0744199
0.0744409
0.0261494
0.0261591
0.0260517
0.0260613
0.0897376
0.123278
0.0894662
0.123008
0.031576
0.0435402
0.0314778
0.043438
0.182527
0.210382
0.182247
0.210096
0.0629548
0.076804
0.0628496
0.076688
0.210399
0.182566
0.210396
0.182549
0.0768046
0.0629484
0.0768021
0.0629472
0.123347
0.0898543
0.123318
0.0898107
0.0435537
0.0316025
0.043544
0.0315907
0.0748813
0.0749029
0.0748298
0.0748512
0.0262039
0.0262138
0.0261908
0.0262007
0.0899139
0.12343
0.0898699
0.123401
0.03163
0.0435928
0.0316181
0.0435829
0.18266
0.210495
0.182642
0.210491
0.0629925
0.0768485
0.0629912
0.0768457
0.210189
0.182402
0.210325
0.182511
0.0767265
0.0628748
0.0767786
0.0629229
0.123232
0.0897751
0.123314
0.0898365
0.043508
0.0315657
0.0435408
0.0315928
0.0748193
0.0748411
0.0748701
0.0748918
0.02617
0.0261799
0.026195
0.0262049
0.0898351
0.123316
0.0898963
0.123398
0.0315934
0.0435474
0.0316204
0.0435801
0.182497
0.210285
0.182606
0.21042
0.0629194
0.0767709
0.0629674
0.0768227
0.209784
0.182065
0.209996
0.182241
0.0765732
0.0627343
0.0766522
0.0628062
0.122962
0.0895521
0.123106
0.0896718
0.0434028
0.0314745
0.0434571
0.0315213
0.0746184
0.0746402
0.0747263
0.0747481
0.0260833
0.0260932
0.0261273
0.0261373
0.0896122
0.123046
0.0897319
0.12319
0.0315022
0.0434421
0.031549
0.0434965
0.18216
0.209881
0.182336
0.210093
0.0627789
0.0766175
0.0628508
0.0766965
0.209273
0.181637
0.209533
0.181854
0.0763802
0.0625593
0.076477
0.0626465
0.122616
0.0892591
0.122794
0.0894097
0.0432683
0.0313575
0.0433358
0.031416
0.0743506
0.0743724
0.0744881
0.0745099
0.0259722
0.0259822
0.0260273
0.0260372
0.0893191
0.1227
0.0894698
0.122878
0.0313851
0.0433076
0.0314436
0.0433752
0.181732
0.209369
0.181948
0.209629
0.0626038
0.0764245
0.062691
0.0765212
0.208686
0.181148
0.208981
0.181393
0.0761589
0.0623599
0.0762691
0.0624585
0.122219
0.088919
0.12242
0.0890915
0.0431131
0.0312222
0.0431903
0.0312892
0.0740377
0.0740594
0.0741961
0.0742179
0.0258438
0.0258537
0.025907
0.0259169
0.0889788
0.122303
0.0891515
0.122504
0.0312497
0.0431522
0.0313168
0.0432295
0.181242
0.208782
0.181488
0.209077
0.0624042
0.0762031
0.0625029
0.0763132
0.208031
0.180605
0.20836
0.180877
0.0759127
0.062139
0.0760352
0.0622483
0.121779
0.0885407
0.122001
0.0887318
0.0429403
0.0310714
0.0430262
0.031146
0.0736883
0.0737099
0.0738645
0.0738862
0.0257007
0.0257105
0.0257711
0.0257809
0.0886002
0.121862
0.0887915
0.122085
0.0310988
0.0429793
0.0311735
0.0430652
0.1807
0.208127
0.180971
0.208456
0.0621831
0.0759567
0.0622925
0.0760791
0.207313
0.180014
0.207674
0.18031
0.0756428
0.0618977
0.0757771
0.0620172
0.121299
0.0881266
0.121541
0.0883356
0.0427508
0.0309058
0.0428451
0.0309879
0.0733047
0.0733262
0.073498
0.0735196
0.0255435
0.0255533
0.025621
0.0256308
0.0881859
0.121382
0.088395
0.121624
0.0309331
0.0427896
0.0310152
0.0428839
0.180107
0.207408
0.180404
0.207769
0.0619416
0.0756865
0.0620612
0.0758209
0.206531
0.179372
0.206924
0.179693
0.0753487
0.0616352
0.0754953
0.0617655
0.120778
0.0876765
0.121041
0.0879038
0.0425443
0.0307252
0.0426472
0.0308149
0.0728867
0.0729081
0.0730974
0.0731189
0.0253719
0.0253816
0.0254566
0.0254664
0.0877355
0.120861
0.0879629
0.121124
0.0307522
0.0425828
0.030842
0.0426858
0.179465
0.206625
0.179787
0.207018
0.0616789
0.0753922
0.0618093
0.0755388
0.205681
0.178678
0.206108
0.179026
0.0750294
0.0613508
0.0751888
0.0614922
0.120215
0.0871891
0.120499
0.0874353
0.04232
0.0305288
0.0424319
0.0306264
0.072433
0.0724543
0.0726618
0.0726832
0.0251852
0.0251949
0.0252776
0.0252873
0.0872477
0.120297
0.0874941
0.120582
0.0305557
0.0423582
0.0306534
0.0424703
0.178771
0.205775
0.179119
0.206202
0.0613942
0.0750726
0.0615357
0.075232
0.204762
0.17793
0.205224
0.178305
0.0746839
0.0610434
0.0748565
0.0611964
0.119608
0.0866627
0.119915
0.0869286
0.0420773
0.030316
0.0421985
0.030422
0.0719424
0.0719636
0.0721899
0.0722111
0.0249828
0.0249924
0.0250832
0.0250928
0.086721
0.11969
0.0869871
0.119996
0.0303427
0.0421152
0.0304488
0.0422366
0.178022
0.204855
0.178397
0.205318
0.0610865
0.0747268
0.0612397
0.0748995
0.203771
0.177125
0.204269
0.177529
0.0743114
0.0607121
0.0744977
0.0608773
0.118956
0.0860961
0.119285
0.0863823
0.0418154
0.0300862
0.0419463
0.0302008
0.0714135
0.0714345
0.0716804
0.0717015
0.0247641
0.0247736
0.0248727
0.0248822
0.0861539
0.119037
0.0864405
0.119367
0.0301127
0.0418531
0.0302274
0.0419842
0.177217
0.203864
0.177621
0.204362
0.0607549
0.074354
0.0609202
0.0745404
0.202707
0.176264
0.203242
0.176696
0.0739112
0.060356
0.0741114
0.0605337
0.118256
0.0854881
0.11861
0.0857952
0.0415338
0.029839
0.0416747
0.0299624
0.0708454
0.0708663
0.0711321
0.071153
0.0245285
0.0245379
0.0246456
0.0246551
0.0855455
0.118337
0.0858529
0.11869
0.0298652
0.0415712
0.0299887
0.0417122
0.176354
0.2028
0.176787
0.203335
0.0603984
0.0739535
0.0605763
0.0741538
0.201569
0.175343
0.202142
0.175805
0.073483
0.0599746
0.0736973
0.0601651
0.11751
0.0848381
0.117887
0.0851663
0.0412323
0.0295739
0.0413832
0.0297063
0.0702375
0.0702582
0.0705442
0.070565
0.0242758
0.0242851
0.0244015
0.0244109
0.0848952
0.117589
0.0852236
0.117967
0.0295999
0.0412693
0.0297324
0.0414204
0.175434
0.201661
0.175896
0.202233
0.0600166
0.0735249
0.0602073
0.0737394
0.200359
0.174365
0.200967
0.174856
0.0730269
0.0595678
0.0732552
0.059771
0.116716
0.0841464
0.117116
0.0844955
0.0409108
0.0292911
0.0410717
0.0294324
0.06959
0.0696106
0.0699165
0.0699372
0.024006
0.0240152
0.0241403
0.0241496
0.084203
0.116795
0.0845524
0.117196
0.0293169
0.0409474
0.0294583
0.0411086
0.174455
0.200449
0.174946
0.201058
0.0596095
0.0730685
0.0598129
0.0732969
0.199076
0.173331
0.19972
0.17385
0.0725436
0.0591361
0.0727854
0.0593517
0.115875
0.0834137
0.116299
0.0837833
0.0405697
0.0289909
0.0407404
0.0291408
0.0689036
0.068924
0.0692495
0.06927
0.0237193
0.0237285
0.023862
0.0238713
0.0834698
0.115953
0.0838396
0.116378
0.0290164
0.040606
0.0291665
0.0407769
0.173419
0.199166
0.173938
0.19981
0.0591774
0.0725849
0.0593932
0.0728268
0.197725
0.172242
0.198403
0.172787
0.0720345
0.0586827
0.0722891
0.0589086
0.11499
0.0826415
0.115436
0.0830307
0.04021
0.0286737
0.0403899
0.0288321
0.0681796
0.0681998
0.0685441
0.0685645
0.0234162
0.0234252
0.0235671
0.0235762
0.0826971
0.115068
0.0830865
0.115514
0.0286989
0.0402459
0.0288575
0.040426
0.172329
0.197814
0.172876
0.198492
0.0587235
0.0720753
0.0589497
0.07233
0.196309
0.171101
0.197019
0.171672
0.071501
0.0582083
0.0717677
0.0584451
0.114063
0.0818317
0.11453
0.0822394
0.0398325
0.0283404
0.0400213
0.0285068
0.0674198
0.0674398
0.0678021
0.0678222
0.0230973
0.0231063
0.0232561
0.0232651
0.0818867
0.11414
0.0822947
0.114607
0.0283653
0.0398679
0.0285318
0.0400569
0.171187
0.196398
0.171759
0.197108
0.0582487
0.0715414
0.0584856
0.0718082
0.194836
0.169913
0.195574
0.170507
0.0709452
0.0577134
0.0712228
0.0579602
0.113097
0.0809871
0.113582
0.0814119
0.0394382
0.0279919
0.0396352
0.0281658
0.0666268
0.0666466
0.0670254
0.0670453
0.0227638
0.0227727
0.0229298
0.0229387
0.0810415
0.113173
0.0814666
0.113659
0.0280165
0.0394732
0.0281905
0.0396704
0.169999
0.194923
0.170593
0.195661
0.0577533
0.0709851
0.0580003
0.0712628
0.193311
0.168683
0.194074
0.169297
0.0703697
0.0572006
0.0706568
0.0574561
0.112096
0.0801113
0.112598
0.0805513
0.039029
0.0276299
0.0392333
0.0278104
0.0658041
0.0658237
0.0662172
0.0662369
0.022417
0.0224258
0.0225895
0.0225983
0.0801651
0.112171
0.0806054
0.112674
0.0276541
0.0390635
0.0278348
0.0392681
0.168767
0.193397
0.169383
0.19416
0.0572399
0.070409
0.0574957
0.0706964
0.191742
0.167416
0.192526
0.168048
0.0697771
0.0566724
0.0700725
0.0569353
0.111064
0.0792078
0.111582
0.0796613
0.0386065
0.0272558
0.0388173
0.0274422
0.0649549
0.0649743
0.0653809
0.0654004
0.0220586
0.0220672
0.0222367
0.0222454
0.0792609
0.111138
0.0797148
0.111656
0.0272797
0.0386405
0.0274663
0.0388516
0.167499
0.191827
0.168133
0.192612
0.0567111
0.0698159
0.0569744
0.0701115
0.190134
0.166115
0.190937
0.166764
0.0691697
0.0561299
0.0694724
0.0564001
0.110004
0.0782794
0.110536
0.0787452
0.0381722
0.0268712
0.0383888
0.0270627
0.0640821
0.0641012
0.0645197
0.064539
0.0216899
0.0216984
0.0218731
0.0218816
0.0783318
0.110077
0.078798
0.110609
0.0268947
0.0382056
0.0270864
0.0384226
0.166197
0.190218
0.166847
0.191021
0.0561681
0.0692079
0.0564386
0.0695108
0.18849
0.164782
0.189311
0.165448
0.0685484
0.0555731
0.0688581
0.0558504
0.108916
0.0773258
0.109462
0.0778046
0.0377265
0.0264765
0.0379489
0.0266731
0.0631854
0.0632042
0.0636353
0.0636543
0.0213117
0.0213201
0.0214997
0.0215081
0.0773775
0.108988
0.0778567
0.109535
0.0264996
0.0377594
0.0266965
0.0379821
0.164863
0.188572
0.165529
0.189394
0.0556107
0.068586
0.0558883
0.068896
0.186801
0.163408
0.187646
0.164096
0.0679105
0.0550014
0.0682293
0.0552868
0.107793
0.0763404
0.108358
0.0768366
0.0372676
0.0260703
0.0374972
0.0262732
0.0622583
0.0622769
0.0627249
0.0627436
0.0209226
0.0209308
0.0211165
0.0211247
0.0763912
0.107864
0.0768879
0.10843
0.026093
0.0372999
0.0262961
0.0375298
0.163488
0.186882
0.164177
0.187728
0.0550383
0.0679474
0.055324
0.0682665
0.185044
0.161969
0.185928
0.162694
0.0672469
0.0544062
0.0675803
0.0547049
0.106613
0.0753036
0.10721
0.075829
0.0367884
0.0256465
0.0370295
0.0258594
0.0612823
0.0613005
0.0617768
0.0617952
0.0205171
0.0205251
0.0207203
0.0207284
0.0753535
0.106682
0.0758794
0.107281
0.0256687
0.03682
0.0258818
0.0370614
0.162048
0.185123
0.162773
0.186008
0.0544423
0.067283
0.0547414
0.0676168
0.183171
0.160419
0.184121
0.161207
0.0665376
0.05377
0.0668972
0.0540922
0.105334
0.074176
0.105988
0.0747534
0.0362737
0.0251916
0.0365351
0.0254224
0.0602184
0.0602363
0.0607633
0.0607813
0.0200821
0.0200899
0.0203023
0.0203102
0.0742248
0.105402
0.0748028
0.106056
0.0252132
0.0363045
0.0254443
0.0365663
0.160496
0.183249
0.161285
0.1842
0.0538052
0.0665729
0.0541278
0.0669329
0.181099
0.158681
0.182162
0.159575
0.0657478
0.0530634
0.0661533
0.0534254
0.103885
0.0728892
0.104635
0.0735569
0.0356963
0.02468
0.0359934
0.0249432
0.058999
0.0590164
0.0596323
0.0596499
0.0195925
0.0196001
0.0198441
0.0198518
0.0729367
0.103951
0.0736051
0.104702
0.024701
0.0357262
0.0249645
0.0360238
0.158755
0.181175
0.15965
0.182238
0.0530976
0.065782
0.0534601
0.066188
0.178707
0.15664
0.179947
0.157702
0.0648231
0.0522435
0.065304
0.0526684
0.102159
0.0713376
0.103064
0.0721535
0.0350129
0.0240698
0.0353697
0.0243888
0.0575198
0.0575367
0.0582983
0.0583154
0.0190067
0.019014
0.0193129
0.0193203
0.0713837
0.102222
0.0722003
0.103128
0.0240901
0.0350418
0.0244095
0.0353991
0.156712
0.17878
0.157775
0.180021
0.0522765
0.0648562
0.052702
0.0653377
0.175854
0.154134
0.177341
0.155454
0.0636959
0.0512544
0.0642866
0.0517717
0.0999874
0.0693701
0.101142
0.0704162
0.0341571
0.0232987
0.0346104
0.0237074
0.0556459
0.0556622
0.0566395
0.0566562
0.018266
0.018273
0.0186578
0.0186649
0.0694147
0.100049
0.0704616
0.101204
0.0233181
0.0341848
0.0237273
0.0346387
0.154203
0.175925
0.155525
0.177412
0.0512863
0.0637279
0.0518042
0.0643191
0.172557
0.150747
0.174229
0.152603
0.0623437
0.0500021
0.0630393
0.0506706
0.0969985
0.0667699
0.0986365
0.0681642
0.0330067
0.0222854
0.0336295
0.0228258
0.0532629
0.0532786
0.054519
0.054535
0.0173167
0.0173233
0.0178167
0.0178235
0.0668129
0.097058
0.0682081
0.0986972
0.0223038
0.0330332
0.0228447
0.0336566
0.150815
0.172626
0.152671
0.174298
0.0500329
0.0623747
0.0507019
0.0630707
0.170776
0.143493
0.171158
0.148189
0.0608865
0.0475317
0.0616544
0.0491075
0.0919868
0.0633417
0.0948783
0.0651519
0.0312309
0.0209961
0.0322307
0.0216668
0.0504875
0.0505024
0.0518948
0.0519102
0.0162159
0.0162221
0.0167695
0.0167759
0.0633823
0.0920434
0.0651939
0.0949366
0.0210133
0.0312557
0.0216847
0.0322564
0.143558
0.170846
0.148256
0.171227
0.047561
0.0609175
0.0491377
0.0616852
0.120159
0.0981797
0.0598393
0.0491614
0.10519
0.0856804
0.0498373
0.0413362
0.045899
0.0154726
0.0135389
0.00436703
0.0375203
0.0113417
0.010327
0.0038319
0.00449539
0.00449925
0.00273732
0.00273751
0.00343669
0.00343859
0.0026849
0.00268502
0.0154898
0.0459253
0.00436992
0.0135569
0.011353
0.0375429
0.00383342
0.0103359
0.0982124
0.12019
0.0491902
0.0598649
0.0857071
0.105215
0.0413591
0.0498566
0.196896
0.165324
0.164088
0.136011
0.17391
0.145255
0.144859
0.119499
0.0990549
0.0567501
0.0747594
0.0364206
0.0835175
0.045068
0.0626135
0.0281553
0.0345194
0.0345333
0.0147517
0.0147637
0.0245953
0.024607
0.00981452
0.00982233
0.0567816
0.0990941
0.0364463
0.0747919
0.0450932
0.0835493
0.0281756
0.0626398
0.165367
0.19694
0.136049
0.164125
0.145291
0.173946
0.11953
0.144889
0.242455
0.207422
0.222282
0.188595
0.213295
0.181421
0.195986
0.165359
0.1365
0.0917983
0.119421
0.0754531
0.115165
0.0743314
0.100799
0.0606704
0.0699718
0.069988
0.0533844
0.0533993
0.0545249
0.0545386
0.0405103
0.0405228
0.0918399
0.136555
0.0754898
0.119468
0.0743663
0.115211
0.0607006
0.100838
0.207482
0.242517
0.188647
0.222334
0.181472
0.213346
0.165402
0.196029
0.271705
0.235172
0.258634
0.222713
0.238077
0.204823
0.227044
0.194353
0.162432
0.117151
0.150703
0.105638
0.13681
0.0954905
0.127043
0.0858941
0.0955881
0.0956072
0.0839782
0.0839958
0.0760782
0.0760948
0.0663317
0.0663468
0.117203
0.162502
0.105685
0.150765
0.0955347
0.13687
0.0859338
0.127096
0.235251
0.271786
0.222783
0.258705
0.20489
0.238146
0.194412
0.227104
0.29052
0.253243
0.282175
0.245211
0.25384
0.219896
0.246867
0.213214
0.179638
0.134095
0.171971
0.126543
0.151045
0.109525
0.144718
0.103286
0.112599
0.112621
0.105028
0.105048
0.0902404
0.0902599
0.0839585
0.0839765
0.134156
0.179723
0.126599
0.172048
0.109578
0.151118
0.103335
0.144785
0.253339
0.29062
0.245298
0.282265
0.219978
0.253925
0.213289
0.246943
0.302082
0.264415
0.297039
0.259537
0.263434
0.229119
0.259261
0.225104
0.190357
0.144652
0.185675
0.140042
0.159821
0.118168
0.155999
0.114407
0.123153
0.123177
0.118548
0.118571
0.0989067
0.0989287
0.0951406
0.0951614
0.14472
0.190454
0.140106
0.185765
0.118228
0.159905
0.114463
0.156078
0.264525
0.302196
0.25964
0.297146
0.229214
0.263532
0.225193
0.259352
0.30866
0.2708
0.305862
0.268081
0.268832
0.234327
0.266543
0.232117
0.196514
0.150714
0.193893
0.148134
0.164794
0.123057
0.162685
0.120985
0.129199
0.129226
0.126626
0.126652
0.103792
0.103816
0.101723
0.101746
0.150788
0.19662
0.148205
0.193994
0.123123
0.164887
0.121049
0.162774
0.270921
0.308786
0.268197
0.305982
0.234432
0.26894
0.232218
0.266646
0.312004
0.274068
0.310636
0.272728
0.271533
0.236949
0.270433
0.235879
0.199691
0.153849
0.198387
0.152561
0.167314
0.125538
0.166286
0.124525
0.132327
0.132355
0.131041
0.131069
0.106268
0.106294
0.105256
0.105281
0.153928
0.199803
0.152638
0.198496
0.125608
0.167413
0.124593
0.166382
0.274197
0.312138
0.272852
0.310766
0.237061
0.271648
0.235988
0.270545
0.313388
0.275453
0.312868
0.274926
0.272619
0.238028
0.272216
0.237622
0.201072
0.155232
0.200543
0.154699
0.168378
0.1266
0.167976
0.126195
0.133714
0.133744
0.133177
0.133206
0.107335
0.107361
0.106926
0.106952
0.155314
0.201188
0.15478
0.200658
0.126673
0.16848
0.126267
0.168076
0.275586
0.313528
0.275058
0.313005
0.238145
0.27274
0.237737
0.272333
0.313669
0.275781
0.31362
0.275704
0.272804
0.238252
0.272784
0.238209
0.201455
0.155649
0.201349
0.155523
0.168643
0.126894
0.168578
0.126811
0.13415
0.13418
0.134013
0.134043
0.107644
0.107671
0.107552
0.107578
0.155733
0.201574
0.155606
0.201467
0.126968
0.168748
0.126885
0.168681
0.275918
0.313812
0.275839
0.31376
0.238371
0.272927
0.238327
0.272906
0.31339
0.27558
0.313577
0.275724
0.27254
0.238056
0.272712
0.238191
0.20134
0.155586
0.201439
0.155654
0.16852
0.126815
0.168615
0.126884
0.13411
0.134141
0.134165
0.134196
0.107586
0.107613
0.107643
0.10767
0.15567
0.20146
0.155739
0.201558
0.12689
0.168625
0.126959
0.16872
0.275718
0.313534
0.275861
0.31372
0.238176
0.272664
0.23831
0.272835
0.31279
0.27508
0.313109
0.275348
0.272014
0.237619
0.272291
0.23785
0.20095
0.155262
0.201165
0.155443
0.168178
0.126531
0.168363
0.126687
0.133818
0.133849
0.133983
0.134014
0.10733
0.107357
0.107471
0.107498
0.155347
0.20107
0.155528
0.201285
0.126606
0.168283
0.126762
0.168469
0.275218
0.312935
0.275485
0.313253
0.237739
0.272138
0.23797
0.272415
0.312016
0.274422
0.312411
0.274758
0.271344
0.237056
0.271685
0.237342
0.20042
0.15481
0.200696
0.155047
0.167726
0.126147
0.167959
0.126346
0.133401
0.133432
0.133619
0.13365
0.106977
0.107004
0.10716
0.107187
0.154895
0.200541
0.155131
0.200816
0.126222
0.167831
0.126421
0.168065
0.27456
0.31216
0.274896
0.312555
0.237176
0.271468
0.237462
0.271808
0.311125
0.273664
0.311574
0.274047
0.270576
0.236409
0.270963
0.236734
0.199803
0.154277
0.200118
0.15455
0.167203
0.125698
0.167469
0.125927
0.132907
0.132938
0.13316
0.133191
0.106561
0.106589
0.106773
0.1068
0.154361
0.199923
0.154635
0.200239
0.125772
0.167308
0.126002
0.167574
0.273802
0.311269
0.274184
0.311718
0.236529
0.2707
0.236854
0.271086
0.310136
0.272824
0.310633
0.273246
0.269723
0.235693
0.270151
0.236052
0.199116
0.153682
0.199465
0.153985
0.166622
0.125197
0.166916
0.125451
0.132354
0.132385
0.132636
0.132666
0.106098
0.106125
0.106333
0.10636
0.153766
0.199235
0.154069
0.199585
0.125272
0.166726
0.125526
0.167021
0.272961
0.31028
0.273383
0.310777
0.235812
0.269846
0.236171
0.270275
0.309057
0.271908
0.309599
0.272368
0.26879
0.234912
0.269258
0.235303
0.198366
0.153031
0.198746
0.153362
0.165988
0.12465
0.166308
0.124927
0.131749
0.131779
0.132056
0.132087
0.105589
0.105616
0.105847
0.105873
0.153115
0.198485
0.153446
0.198865
0.124724
0.166092
0.125001
0.166413
0.272045
0.3092
0.272504
0.309742
0.235031
0.268913
0.235422
0.269381
0.307886
0.270919
0.308474
0.271415
0.267778
0.234067
0.268286
0.23449
0.197554
0.152325
0.197965
0.152684
0.165301
0.124055
0.165648
0.124356
0.131092
0.131122
0.131425
0.131456
0.105036
0.105063
0.105316
0.105343
0.152409
0.197672
0.152767
0.198084
0.124129
0.165404
0.12443
0.165752
0.271054
0.308029
0.271552
0.308617
0.234185
0.2679
0.234609
0.268408
0.306621
0.269851
0.307257
0.270388
0.266681
0.233155
0.267232
0.233612
0.196678
0.151563
0.197122
0.15195
0.164558
0.123412
0.164934
0.123738
0.130381
0.130411
0.130742
0.130772
0.104438
0.104464
0.104741
0.104768
0.151646
0.196796
0.152033
0.19724
0.123486
0.164662
0.123812
0.165038
0.269987
0.306763
0.270523
0.307399
0.233272
0.266803
0.23373
0.267353
0.305257
0.268703
0.305943
0.26928
0.265497
0.232172
0.266091
0.232665
0.195735
0.150742
0.196213
0.151159
0.163759
0.122719
0.164163
0.12307
0.129615
0.129645
0.130003
0.130033
0.103792
0.103818
0.104119
0.104145
0.150824
0.195852
0.151242
0.19633
0.122792
0.163862
0.123143
0.164266
0.268837
0.305398
0.269415
0.306084
0.232289
0.265618
0.232782
0.266212
0.303792
0.267472
0.304529
0.268091
0.264223
0.231119
0.264863
0.231648
0.194723
0.149859
0.195236
0.150307
0.1629
0.121973
0.163335
0.122351
0.128791
0.128821
0.129209
0.129239
0.103096
0.103123
0.103448
0.103475
0.149942
0.194839
0.15039
0.195353
0.122046
0.163002
0.122424
0.163437
0.267606
0.303932
0.268225
0.304669
0.231235
0.264344
0.231764
0.264984
0.302222
0.266156
0.303012
0.266817
0.262858
0.229991
0.263544
0.230557
0.19364
0.148914
0.194189
0.149394
0.161981
0.121174
0.162446
0.121579
0.127908
0.127938
0.128356
0.128385
0.10235
0.102376
0.102728
0.102754
0.148996
0.193756
0.149476
0.194305
0.121246
0.162082
0.121651
0.162548
0.266289
0.302362
0.266951
0.303151
0.230106
0.262978
0.230673
0.263664
0.300548
0.264753
0.30139
0.265458
0.2614
0.228789
0.262133
0.229392
0.192485
0.147906
0.19307
0.148417
0.161
0.12032
0.161496
0.120752
0.126965
0.126994
0.127443
0.127472
0.101553
0.101579
0.101956
0.101982
0.147987
0.1926
0.148498
0.193186
0.120392
0.1611
0.120824
0.161597
0.264885
0.300686
0.26559
0.301529
0.228903
0.261519
0.229507
0.262252
0.298768
0.263264
0.299663
0.264012
0.25985
0.227512
0.260629
0.228153
0.191258
0.146833
0.191879
0.147376
0.159957
0.119412
0.160484
0.119871
0.125961
0.12599
0.126469
0.126499
0.100704
0.100729
0.101133
0.101159
0.146913
0.191372
0.147457
0.191994
0.119483
0.160057
0.119943
0.160584
0.263395
0.298905
0.264144
0.2998
0.227626
0.259968
0.228267
0.260747
0.296885
0.261688
0.297831
0.262479
0.258209
0.226164
0.259033
0.22684
0.18996
0.145697
0.190616
0.146272
0.158855
0.11845
0.159411
0.118936
0.124898
0.124927
0.125436
0.125465
0.0998039
0.0998295
0.100258
0.100284
0.145777
0.190073
0.146352
0.19073
0.118521
0.158953
0.119007
0.159511
0.261818
0.297022
0.26261
0.297967
0.226277
0.258326
0.226953
0.25915
0.294907
0.260034
0.2959
0.260863
0.256481
0.224744
0.257348
0.225456
0.188595
0.144501
0.189284
0.145105
0.157693
0.117437
0.158279
0.117949
0.123777
0.123806
0.124344
0.124372
0.0988551
0.0988805
0.0993339
0.0993594
0.14458
0.188707
0.145185
0.189397
0.117507
0.157791
0.118019
0.158378
0.260163
0.295042
0.260992
0.296035
0.224855
0.256597
0.225568
0.257464
0.292834
0.258308
0.293874
0.259174
0.254673
0.223254
0.255579
0.224
0.187165
0.143246
0.187887
0.14388
0.156476
0.116374
0.157089
0.11691
0.122601
0.122629
0.123195
0.123223
0.0978594
0.0978845
0.0983614
0.0983867
0.143325
0.187277
0.143959
0.187998
0.116443
0.156573
0.11698
0.157187
0.258435
0.292968
0.259302
0.294008
0.223364
0.254787
0.224111
0.255694
0.290674
0.256507
0.291757
0.257409
0.252791
0.221704
0.253733
0.222479
0.185674
0.141936
0.186426
0.142597
0.155208
0.115266
0.155846
0.115824
0.121372
0.1214
0.121992
0.12202
0.0968198
0.0968447
0.0973433
0.0973684
0.142014
0.185784
0.142675
0.186537
0.115334
0.155304
0.115893
0.155943
0.256633
0.290807
0.257536
0.29189
0.221813
0.252904
0.222589
0.253847
0.288436
0.254638
0.289556
0.255574
0.250842
0.220098
0.251817
0.220901
0.184126
0.140576
0.184906
0.141262
0.153893
0.114115
0.154554
0.114694
0.120095
0.120123
0.120738
0.120766
0.0957402
0.0957649
0.0962833
0.0963081
0.140653
0.184235
0.141339
0.185015
0.114183
0.153988
0.114762
0.154649
0.254763
0.288567
0.255699
0.289688
0.220206
0.250954
0.221009
0.251929
0.286128
0.25271
0.287283
0.253675
0.248835
0.218443
0.249838
0.21927
0.182527
0.139169
0.183332
0.139878
0.152536
0.112927
0.153218
0.113524
0.118774
0.118801
0.119439
0.119467
0.0946245
0.0946489
0.0951853
0.0952098
0.139246
0.182635
0.139955
0.18344
0.112994
0.15263
0.113591
0.153312
0.252833
0.286258
0.253799
0.287413
0.21855
0.248945
0.219378
0.249949
0.283756
0.250724
0.284942
0.251717
0.246774
0.216743
0.247804
0.217593
0.180878
0.137718
0.181708
0.138449
0.15114
0.111703
0.151841
0.112318
0.117409
0.117437
0.118096
0.118124
0.0934749
0.093499
0.0940526
0.0940769
0.137793
0.180985
0.138525
0.181815
0.111769
0.151232
0.112385
0.151935
0.250846
0.283884
0.25184
0.285071
0.216848
0.246884
0.217699
0.247913
0.281318
0.248675
0.282538
0.249701
0.244661
0.21499
0.245717
0.215867
0.179175
0.136217
0.180033
0.136974
0.149701
0.110441
0.150425
0.111076
0.115998
0.116025
0.116709
0.116737
0.0922893
0.0923131
0.0928858
0.0929098
0.136291
0.17928
0.137049
0.180139
0.110506
0.149792
0.111142
0.150517
0.248795
0.281444
0.249822
0.282665
0.215094
0.244769
0.215972
0.245826
0.278798
0.246546
0.280063
0.247616
0.242485
0.213176
0.243575
0.214086
0.1774
0.134648
0.178297
0.135442
0.148208
0.10913
0.148961
0.109792
0.114521
0.114547
0.115268
0.115295
0.0910559
0.0910794
0.0916787
0.0917023
0.134722
0.177503
0.135516
0.178402
0.109194
0.148298
0.109857
0.149052
0.246664
0.278922
0.247735
0.280187
0.213278
0.24259
0.214189
0.243681
0.276154
0.244296
0.277488
0.245434
0.240212
0.211269
0.241357
0.212231
0.175511
0.132973
0.176472
0.133827
0.14663
0.107739
0.147431
0.108446
0.112939
0.112965
0.113746
0.113773
0.0897454
0.0897684
0.090412
0.0904352
0.133045
0.175612
0.1339
0.176575
0.107802
0.146718
0.10851
0.14752
0.244412
0.276276
0.245551
0.277611
0.211369
0.240316
0.212332
0.241461
0.273308
0.241846
0.274756
0.243096
0.237779
0.209204
0.239014
0.210256
0.173433
0.131115
0.174501
0.132072
0.144906
0.10621
0.14579
0.106996
0.111179
0.111204
0.112087
0.112113
0.0882999
0.0883225
0.0890434
0.0890662
0.131186
0.173532
0.132144
0.174602
0.106272
0.144992
0.107058
0.145877
0.241959
0.273428
0.243211
0.274876
0.209302
0.23788
0.210355
0.239117
0.270138
0.239073
0.271766
0.240503
0.235079
0.206879
0.236464
0.208076
0.171045
0.128956
0.172286
0.130082
0.142937
0.104446
0.143958
0.105364
0.10912
0.109145
0.110195
0.110221
0.086623
0.086645
0.087497
0.0875193
0.129025
0.171142
0.130152
0.172384
0.104506
0.14302
0.105425
0.144043
0.239184
0.270255
0.240615
0.271883
0.206974
0.235178
0.208173
0.236564
0.266486
0.235813
0.268376
0.23751
0.231969
0.204146
0.233579
0.205568
0.168177
0.126326
0.169683
0.127712
0.140576
0.102303
0.141815
0.103432
0.106598
0.106622
0.107928
0.107953
0.0845735
0.084595
0.0856539
0.0856757
0.126394
0.168272
0.12778
0.169779
0.102362
0.140657
0.103491
0.141898
0.235921
0.2666
0.237619
0.26849
0.204238
0.232065
0.205662
0.233676
0.262213
0.231843
0.264424
0.233929
0.2283
0.200797
0.230204
0.20256
0.164582
0.123004
0.166491
0.124767
0.137602
0.099584
0.139183
0.101029
0.103418
0.103442
0.105101
0.105125
0.0819793
0.0820002
0.083354
0.0833752
0.123069
0.164673
0.124834
0.166584
0.0996408
0.137681
0.101087
0.139264
0.231948
0.262324
0.234035
0.264535
0.200887
0.228393
0.202651
0.230298
0.257555
0.226618
0.259858
0.229455
0.224171
0.196302
0.226242
0.198759
0.159732
0.118692
0.162371
0.120992
0.133535
0.0960182
0.135757
0.0979255
0.0994394
0.0994626
0.10153
0.101554
0.0787069
0.0787271
0.0804286
0.0804492
0.118756
0.159822
0.121057
0.162462
0.0960733
0.133611
0.0979815
0.135835
0.226721
0.257664
0.229559
0.259967
0.19639
0.224263
0.198847
0.226334
0.256226
0.216271
0.255884
0.22285
0.222435
0.187087
0.222534
0.192976
0.152093
0.113171
0.156421
0.116067
0.126962
0.0914004
0.130707
0.0938268
0.0948324
0.0948547
0.0971759
0.0971988
0.0749137
0.0749329
0.0768392
0.076859
0.113232
0.152179
0.11613
0.15651
0.0914529
0.127035
0.0938808
0.130783
0.216372
0.25634
0.222952
0.255994
0.187172
0.22253
0.193063
0.222627
0.135406
0.111089
0.0703353
0.0573895
0.129478
0.106023
0.0662492
0.0540375
0.054799
0.0206355
0.0178116
0.00514481
0.0512607
0.0184803
0.0159773
0.00478719
0.0063267
0.00633458
0.00286939
0.00286994
0.00548663
0.00549267
0.00281893