/*--------------------------------*- C++ -*----------------------------------*\
  =========                 |
  \\      /  F ield         | OpenFOAM: The Open Source CFD Toolbox
   \\    /   O peration     | Website:  https://openfoam.org
    \\  /    A nd           | Version:  9
     \\/     M anipulation  |
\*---------------------------------------------------------------------------*/
FoamFile
{
    format      ascii;
    class       surfaceScalarField;
    location    "2.35";
    object      phi;
}
// * * * * * * * * * * * * * * * * * * * * * * * * * * * * * * * * * * * * * //

dimensions      [0 3 -1 0 0 0 0];

internalField   nonuniform List<scalar> 
104044
(
4.60282e-07
-6.5774e-05
-1.05771e-06
6.4664e-05
1.70741e-06
-4.56193e-05
-2.56456e-06
-1.70958e-07
4.8152e-05
6.63115e-07
2.44809e-07
-1.86208e-06
2.13436e-06
-2.1546e-06
-9.61769e-08
3.3502e-07
3.85074e-09
-7.06838e-05
6.96222e-05
-4.22717e-05
1.32533e-08
3.96978e-05
3.65601e-08
-1.85322e-08
-9.46024e-09
-5.1522e-05
-2.38834e-06
5.20375e-05
1.71127e-06
-5.39252e-05
-8.02261e-07
-8.80072e-11
5.431e-05
4.08166e-07
-5.01996e-09
-1.86701e-06
1.00268e-06
-1.06588e-06
1.38652e-10
2.74294e-07
-6.9339e-09
-5.51763e-05
5.28082e-05
-5.62935e-05
-3.86425e-09
5.54882e-05
-6.17753e-09
-1.25016e-09
1.10994e-12
-5.46815e-05
-5.2012e-07
5.5149e-05
5.25517e-08
-5.46812e-05
-5.20051e-07
9.30597e-11
5.51487e-05
5.24997e-08
9.12636e-13
-1.04784e-06
2.08577e-07
-1.04779e-06
-1.37275e-10
2.08544e-07
4.48434e-12
-5.54591e-05
5.49351e-05
-5.54588e-05
3.87176e-09
5.49349e-05
4.93382e-13
1.25275e-09
9.46793e-09
-5.39242e-05
-8.02484e-07
5.43088e-05
4.08512e-07
-5.15204e-05
-2.38898e-06
1.71024e-07
5.20359e-05
1.71187e-06
5.02502e-09
-1.06589e-06
2.74397e-07
-1.86752e-06
9.62223e-08
1.00318e-06
6.93687e-09
-5.62925e-05
5.54869e-05
-5.51731e-05
-1.32795e-08
5.28043e-05
6.1842e-09
1.85063e-08
-4.6041e-07
-4.56183e-05
-2.56386e-06
4.8151e-05
6.62585e-07
-6.5775e-05
-1.05871e-06
6.4665e-05
1.70835e-06
-2.44899e-07
-2.15336e-06
3.33799e-07
-1.86345e-06
2.13555e-06
-3.84638e-09
-4.22658e-05
3.96925e-05
-7.06909e-05
6.96284e-05
-3.65374e-08
3.83385e-07
-6.34471e-05
-1.72556e-06
6.23365e-05
2.45279e-06
-4.98088e-05
9.09617e-07
-1.074e-07
5.07414e-05
-1.35135e-06
4.42897e-07
-1.40477e-06
2.17875e-06
-7.16574e-07
-1.47037e-07
-3.50324e-07
-2.77196e-07
-6.83364e-05
6.68881e-05
-3.8771e-05
1.8389e-07
3.92195e-05
-1.18978e-07
9.12204e-08
-1.53149e-08
-5.24923e-05
-1.93784e-06
5.26326e-05
1.70544e-06
-5.45132e-05
-1.11369e-06
-3.38438e-09
5.45588e-05
1.05615e-06
-1.13876e-08
-2.53563e-06
1.94522e-06
-1.08818e-06
-1.81761e-09
8.75433e-07
-7.61899e-09
-5.03704e-05
4.86241e-05
-5.43988e-05
-6.84958e-09
5.32843e-05
-6.66205e-09
-5.4992e-09
3.26271e-12
-5.55018e-05
-3.95778e-07
5.55246e-05
3.69557e-07
-5.55013e-05
-3.95855e-07
3.37924e-09
5.5524e-05
3.69756e-07
3.55155e-12
-3.95829e-07
4.12276e-08
-3.95858e-07
1.82431e-09
4.13973e-08
8.83563e-12
-5.45338e-05
5.41311e-05
-5.45336e-05
6.86094e-09
5.41309e-05
8.2691e-12
5.50712e-09
1.53294e-08
-5.45118e-05
-1.11385e-06
5.45573e-05
1.05637e-06
-5.24907e-05
-1.93777e-06
1.07411e-07
5.26309e-05
1.70542e-06
1.13946e-08
-1.08838e-06
8.75781e-07
-2.53579e-06
1.47073e-07
1.9454e-06
7.62424e-09
-5.43974e-05
5.32828e-05
-5.03665e-05
-1.83991e-07
4.86203e-05
6.66654e-09
-9.1287e-08
-3.83437e-07
-4.98076e-05
9.10587e-07
5.07402e-05
-1.35228e-06
-6.3448e-05
-1.72622e-06
6.23372e-05
2.45353e-06
-4.42979e-07
-7.15462e-07
-3.51087e-07
-1.40558e-06
2.17962e-06
2.77291e-07
-3.87667e-05
3.9216e-05
-6.83418e-05
6.68929e-05
1.19026e-07
1.93192e-07
-6.13753e-05
-2.02768e-06
6.05397e-05
2.67009e-06
-5.13904e-05
2.28121e-06
-8.77659e-09
5.19081e-05
-2.59694e-06
2.89543e-07
-1.89624e-06
2.56787e-06
1.76675e-06
-5.64508e-08
-2.0698e-06
-6.09063e-07
-6.54334e-05
6.40148e-05
-4.02714e-05
3.57458e-07
4.15861e-05
-4.41589e-07
2.73321e-07
-6.73122e-09
-5.26128e-05
-9.17225e-07
5.25738e-05
9.54162e-07
-5.44679e-05
-6.74511e-07
-1.24699e-08
5.43047e-05
8.43486e-07
-1.26956e-08
-1.32477e-06
1.30082e-06
-9.01524e-07
-5.93946e-09
9.85618e-07
4.61763e-09
-4.75762e-05
4.70119e-05
-5.23885e-05
-1.09808e-08
5.17295e-05
-3.60494e-09
-9.2419e-09
8.63112e-12
-5.53925e-05
-4.08547e-07
5.52185e-05
5.70028e-07
-5.53919e-05
-4.08643e-07
1.24879e-08
5.52179e-05
5.70107e-07
7.90811e-12
-4.30506e-07
5.56705e-07
-4.306e-07
5.92895e-09
5.56851e-07
1.06398e-11
-5.36914e-05
5.32718e-05
-5.3691e-05
1.10028e-08
5.32714e-05
8.72841e-12
9.25591e-09
6.73666e-09
-5.44665e-05
-6.74632e-07
5.43033e-05
8.43606e-07
-5.26111e-05
-9.17091e-07
8.76417e-09
5.25722e-05
9.53978e-07
1.26594e-08
-9.01654e-07
9.85784e-07
-1.32464e-06
5.64437e-08
1.30063e-06
-4.61887e-09
-5.23868e-05
5.17278e-05
-4.75727e-05
-3.5761e-07
4.70086e-05
3.60772e-09
-2.73451e-07
-1.93209e-07
-5.13893e-05
2.28204e-06
5.1907e-05
-2.59782e-06
-6.13759e-05
-2.02826e-06
6.05402e-05
2.67077e-06
-2.89571e-07
1.76766e-06
-2.07074e-06
-1.89682e-06
2.56853e-06
6.0924e-07
-4.02685e-05
4.15837e-05
-6.54378e-05
6.40188e-05
4.41727e-07
5.57076e-09
-5.98248e-05
-2.11181e-06
5.91984e-05
2.73266e-06
-5.2351e-05
2.65678e-06
8.57542e-08
5.27261e-05
-3.11212e-06
9.48424e-08
-2.06306e-06
2.68316e-06
2.51531e-06
2.58897e-08
-2.88925e-06
-8.90281e-07
-6.27022e-05
6.14807e-05
-4.29306e-05
4.76986e-07
4.42201e-05
-7.50508e-07
4.20235e-07
1.3483e-08
-5.25618e-05
-4.38192e-07
5.26099e-05
4.62331e-07
-5.41352e-05
-3.56341e-07
-1.0983e-08
5.39886e-05
5.27468e-07
2.83222e-09
-6.26712e-07
6.61834e-07
-4.79718e-07
-1.32052e-08
6.65191e-07
2.95277e-08
-4.67894e-05
4.67987e-05
-5.12761e-05
-9.55409e-09
5.09588e-05
1.59399e-08
-1.03135e-08
1.20985e-11
-5.50294e-05
-2.11341e-07
5.48517e-05
3.78093e-07
-5.50289e-05
-2.1142e-07
1.10104e-08
5.48511e-05
3.78154e-07
1.09696e-11
-2.98253e-07
4.74131e-07
-2.98345e-07
1.32271e-08
4.74201e-07
1.28349e-11
-5.29633e-05
5.27424e-05
-5.29627e-05
9.5726e-09
5.27417e-05
1.19125e-11
1.03413e-08
-1.34855e-08
-5.41339e-05
-3.56431e-07
5.39872e-05
5.27543e-07
-5.25603e-05
-4.38098e-07
-8.57693e-08
5.26085e-05
4.62159e-07
-2.83206e-09
-4.79826e-07
6.65283e-07
-6.26599e-07
-2.58996e-08
6.61647e-07
-2.9538e-08
-5.12742e-05
5.09569e-05
-4.67865e-05
-4.77166e-07
4.6796e-05
-1.59454e-08
-4.20402e-07
-5.56874e-09
-5.235e-05
2.65748e-06
5.27252e-05
-3.11288e-06
-5.98252e-05
-2.11241e-06
5.91987e-05
2.73336e-06
-9.48485e-08
2.51607e-06
-2.89007e-06
-2.06362e-06
2.68382e-06
8.90523e-07
-4.29287e-05
4.42185e-05
-6.27059e-05
6.1484e-05
7.50718e-07
-1.49383e-07
-5.86544e-05
-2.1107e-06
5.81705e-05
2.74393e-06
-5.30519e-05
2.67814e-06
1.32176e-07
5.33338e-05
-3.24161e-06
-7.56483e-08
-2.09434e-06
2.71395e-06
2.66277e-06
1.128e-07
-3.17697e-06
-1.1012e-06
-6.03808e-05
5.93713e-05
-4.53777e-05
5.43356e-07
4.64113e-05
-9.94387e-07
5.10797e-07
3.68788e-08
-5.26923e-05
-2.45674e-07
5.27987e-05
2.34544e-07
-5.38768e-05
-2.24119e-07
-6.38916e-09
5.37941e-05
3.50122e-07
2.45332e-08
-3.13355e-07
3.19243e-07
-2.72029e-07
-8.64912e-09
4.16968e-07
5.75146e-08
-4.69529e-05
4.71931e-05
-5.07383e-05
-6.22816e-09
5.05779e-05
4.32161e-08
-8.26998e-09
1.35187e-11
-5.46988e-05
-1.34311e-07
5.45671e-05
2.59537e-07
-5.46982e-05
-1.34363e-07
6.40677e-09
5.45666e-05
2.59583e-07
1.24534e-11
-1.56581e-07
3.00842e-07
-1.56645e-07
8.66635e-09
3.00896e-07
1.51968e-11
-5.25775e-05
5.24369e-05
-5.25768e-05
6.24894e-09
5.24362e-05
1.37146e-11
8.28938e-09
-3.68922e-08
-5.38755e-05
-2.24167e-07
5.37928e-05
3.5016e-07
-5.26909e-05
-2.4562e-07
-1.32183e-07
5.27974e-05
2.34409e-07
-2.45399e-08
-2.721e-07
4.17022e-07
-3.13279e-07
-1.12811e-07
3.19088e-07
-5.75326e-08
-5.07363e-05
5.05759e-05
-4.69505e-05
-5.4355e-07
4.71909e-05
-4.32306e-08
-5.10984e-07
1.49398e-07
-5.30509e-05
2.67878e-06
5.33329e-05
-3.24229e-06
-5.86546e-05
-2.1113e-06
5.81707e-05
2.74464e-06
7.56571e-08
2.66343e-06
-3.17768e-06
-2.09491e-06
2.71463e-06
1.10149e-06
-4.53762e-05
4.641e-05
-6.03837e-05
5.93739e-05
9.94652e-07
-2.69145e-07
-5.77426e-05
-2.0782e-06
5.73546e-05
2.73535e-06
-5.35688e-05
2.5825e-06
1.49921e-07
5.37604e-05
-3.19319e-06
-2.11317e-07
-2.07394e-06
2.71321e-06
2.60968e-06
1.42135e-07
-3.19811e-06
-1.24889e-06
-5.84676e-05
5.76383e-05
-4.72952e-05
5.75258e-07
4.80535e-05
-1.17025e-06
5.55581e-07
7.20623e-08
-5.29136e-05
-2.03218e-07
5.3023e-05
1.7167e-07
-5.37334e-05
-1.72705e-07
4.39578e-10
5.36913e-05
2.86505e-07
4.96504e-08
-2.09634e-07
1.87222e-07
-1.91235e-07
-3.24393e-09
3.04785e-07
8.24365e-08
-4.74692e-05
4.77588e-05
-5.04598e-05
-1.40593e-11
5.03696e-05
6.98321e-08
-3.33798e-09
1.80182e-11
-5.44548e-05
-1.31678e-07
5.43544e-05
2.3248e-07
-5.44543e-05
-1.31708e-07
-4.14684e-10
5.43539e-05
2.32504e-07
1.58971e-11
-1.27134e-07
2.36213e-07
-1.27175e-07
3.26416e-09
2.36249e-07
1.7746e-11
-5.23065e-05
5.21747e-05
-5.23057e-05
4.27229e-11
5.2174e-05
1.70026e-11
3.36142e-09
-7.21894e-08
-5.37322e-05
-1.72678e-07
5.36902e-05
2.86523e-07
-5.29124e-05
-2.03221e-07
-1.49911e-07
5.30218e-05
1.71541e-07
-4.96774e-08
-1.91251e-07
3.04811e-07
-2.09603e-07
-1.42135e-07
1.8709e-07
-8.24435e-08
-5.04579e-05
5.03677e-05
-4.74672e-05
-5.7543e-07
4.7757e-05
-6.98509e-08
-5.55775e-07
2.69169e-07
-5.35679e-05
2.58312e-06
5.37595e-05
-3.19385e-06
-5.77426e-05
-2.07878e-06
5.73546e-05
2.73603e-06
2.11337e-07
2.61031e-06
-3.19877e-06
-2.0745e-06
2.71387e-06
1.24922e-06
-4.7294e-05
4.80524e-05
-5.847e-05
5.76404e-05
1.17055e-06
-3.57762e-07
-5.7004e-05
-2.02835e-06
5.66799e-05
2.71025e-06
-5.39094e-05
2.45265e-06
1.5096e-07
5.40199e-05
-3.07186e-06
-3.1372e-07
-2.0315e-06
2.69575e-06
2.4913e-06
1.50481e-07
-3.10453e-06
-1.34547e-06
-5.6896e-05
5.62131e-05
-4.86766e-05
5.89826e-07
4.9194e-05
-1.28921e-06
5.78991e-07
1.04546e-07
-5.31206e-05
-2.26952e-07
5.32057e-05
1.88246e-07
-5.36592e-05
-1.49435e-07
8.13749e-09
5.36294e-05
2.75696e-07
8.97875e-08
-2.0913e-07
1.72229e-07
-1.57054e-07
4.24326e-09
2.74614e-07
1.00283e-07
-4.80366e-05
4.82992e-05
-5.03011e-05
7.01343e-09
5.02449e-05
9.21225e-08
3.55304e-09
-4.58175e-12
-5.4263e-05
-1.46574e-07
5.41747e-05
2.43033e-07
-5.42625e-05
-1.46618e-07
-8.12513e-09
5.41742e-05
2.43017e-07
1.51583e-11
-1.37379e-07
2.33011e-07
-1.37401e-07
-4.21515e-09
2.33024e-07
-1.64212e-10
-5.20409e-05
5.19015e-05
-5.20401e-05
-7.51984e-09
5.19008e-05
2.23298e-13
-3.54238e-09
-1.04491e-07
-5.36582e-05
-1.49587e-07
5.36284e-05
2.75734e-07
-5.31195e-05
-2.26755e-07
-1.50971e-07
5.32046e-05
1.88141e-07
-8.98131e-08
-1.57026e-07
2.74613e-07
-2.09121e-07
-1.50465e-07
1.72108e-07
-1.01604e-07
-5.02992e-05
5.02437e-05
-4.8035e-05
-5.90466e-07
4.82971e-05
-9.20212e-08
-5.79168e-07
3.57764e-07
-5.39085e-05
2.45335e-06
5.4019e-05
-3.07253e-06
-5.70039e-05
-2.02889e-06
5.66797e-05
2.71089e-06
3.13743e-07
2.49195e-06
-3.10519e-06
-2.03202e-06
2.69637e-06
1.34567e-06
-4.86757e-05
4.91929e-05
-5.68979e-05
5.62147e-05
1.28953e-06
-4.20955e-07
-5.63807e-05
-1.97049e-06
5.60989e-05
2.67326e-06
-5.4096e-05
2.32145e-06
1.478e-07
5.41373e-05
-2.93147e-06
-3.88345e-07
-1.9783e-06
2.66583e-06
2.36159e-06
1.46258e-07
-2.9723e-06
-1.40439e-06
-5.56e-05
5.50339e-05
-4.96043e-05
5.89815e-07
4.99316e-05
-1.36524e-06
5.85972e-07
1.25636e-07
-5.32731e-05
-2.68788e-07
5.3325e-05
2.39016e-07
-5.35991e-05
-1.39264e-07
1.54715e-08
5.35648e-05
2.83677e-07
1.14739e-07
-2.45063e-07
2.09199e-07
-1.42009e-07
1.18118e-08
2.75251e-07
1.08537e-07
-4.85347e-05
4.87472e-05
-5.01971e-05
1.41813e-08
5.01522e-05
1.05332e-07
1.11787e-08
-9.76142e-12
-5.40882e-05
-1.59266e-07
5.39999e-05
2.63061e-07
-5.40877e-05
-1.59284e-07
-1.5531e-08
5.39995e-05
2.63045e-07
4.56604e-11
-1.52152e-07
2.50417e-07
-1.52088e-07
-1.1762e-08
2.504e-07
-1.26992e-10
-5.17603e-05
5.16153e-05
-5.17594e-05
-1.46024e-08
5.16146e-05
2.73514e-10
-1.04076e-08
-1.25618e-07
-5.3598e-05
-1.39352e-07
5.35638e-05
2.83666e-07
-5.32721e-05
-2.68642e-07
-1.47793e-07
5.3324e-05
2.38906e-07
-1.14948e-07
-1.41689e-07
2.75211e-07
-2.45371e-07
-1.46217e-07
2.09114e-07
-1.09706e-07
-5.01951e-05
5.01509e-05
-4.85337e-05
-5.90373e-07
4.87457e-05
-1.03537e-07
-5.85501e-07
4.20973e-07
-5.40952e-05
2.32213e-06
5.41364e-05
-2.93214e-06
-5.63805e-05
-1.97103e-06
5.60986e-05
2.67388e-06
3.88399e-07
2.36213e-06
-2.97294e-06
-1.97886e-06
2.66645e-06
1.40465e-06
-4.96037e-05
4.99308e-05
-5.56016e-05
5.50353e-05
1.36581e-06
-4.63948e-07
-5.58336e-05
-1.91039e-06
5.55793e-05
2.62865e-06
-5.41494e-05
2.1981e-06
1.44592e-07
5.41332e-05
-2.79048e-06
-4.40159e-07
-1.91844e-06
2.62392e-06
2.23369e-06
1.45226e-07
-2.83121e-06
-1.43532e-06
-5.45239e-05
5.40488e-05
-5.01764e-05
5.80958e-07
5.03582e-05
-1.4084e-06
5.805e-07
1.39636e-07
-5.33583e-05
-3.10743e-07
5.33732e-05
3.00787e-07
-5.35253e-05
-1.37613e-07
2.0057e-08
5.34786e-05
3.0384e-07
1.32148e-07
-2.87397e-07
2.67223e-07
-1.36311e-07
1.84316e-08
2.89595e-07
1.13899e-07
-4.89292e-05
4.90855e-05
-5.01094e-05
2.06048e-08
5.00651e-05
1.11112e-07
1.75485e-08
-1.32308e-10
-5.39102e-05
-1.67065e-07
5.38158e-05
2.81614e-07
-5.39097e-05
-1.67013e-07
-2.05381e-08
5.38155e-05
2.81632e-07
1.81474e-10
-1.61974e-07
2.69905e-07
-1.61999e-07
-1.78602e-08
2.69836e-07
-2.47032e-11
-5.14708e-05
5.13244e-05
-5.14701e-05
-2.08075e-08
5.13239e-05
5.16269e-11
-1.74448e-08
-1.39804e-07
-5.35245e-05
-1.37692e-07
5.34777e-05
3.03743e-07
-5.33574e-05
-3.10742e-07
-1.44616e-07
5.33723e-05
3.00683e-07
-1.32072e-07
-1.36117e-07
2.89645e-07
-2.87453e-07
-1.45146e-07
2.67147e-07
-1.14503e-07
-5.01079e-05
5.00639e-05
-4.89282e-05
-5.81283e-07
4.90842e-05
-1.10644e-07
-5.80531e-07
4.63967e-07
-5.41486e-05
2.19874e-06
5.41324e-05
-2.79116e-06
-5.58333e-05
-1.91093e-06
5.55789e-05
2.62925e-06
4.40211e-07
2.23432e-06
-2.83187e-06
-1.91894e-06
2.6245e-06
1.43567e-06
-5.01758e-05
5.03576e-05
-5.45251e-05
5.40499e-05
1.40882e-06
-4.92071e-07
-5.53351e-05
-1.85432e-06
5.50966e-05
2.58487e-06
-5.40943e-05
2.08803e-06
1.38868e-07
5.4032e-05
-2.65674e-06
-4.75054e-07
-1.86183e-06
2.58107e-06
2.11984e-06
1.40643e-07
-2.69656e-06
-1.4477e-06
-5.36166e-05
5.321e-05
-5.04788e-05
5.67184e-07
5.0552e-05
-1.42962e-06
5.69623e-07
1.48511e-07
-5.33698e-05
-3.51032e-07
5.33483e-05
3.62886e-07
-5.34243e-05
-1.43431e-07
2.3783e-08
5.33603e-05
3.32091e-07
1.432e-07
-3.28066e-07
3.28919e-07
-1.38469e-07
2.18377e-08
3.14179e-07
1.15332e-07
-4.92114e-05
4.93122e-05
-5.00193e-05
2.24081e-08
4.99688e-05
1.15698e-07
2.30619e-08
-2.77752e-12
-5.37179e-05
-1.72461e-07
5.36136e-05
3.00531e-07
-5.37175e-05
-1.72737e-07
-2.35382e-08
5.36133e-05
3.00512e-07
3.54969e-11
-1.6834e-07
2.88086e-07
-1.68158e-07
-2.18877e-08
2.88058e-07
-8.21392e-10
-5.11786e-05
5.10294e-05
-5.11776e-05
-2.54639e-08
5.10295e-05
4.83967e-10
-2.13494e-08
-1.48377e-07
-5.34234e-05
-1.4339e-07
5.33596e-05
3.32063e-07
-5.3369e-05
-3.50622e-07
-1.38888e-07
5.33474e-05
3.62769e-07
-1.43365e-07
-1.38363e-07
3.14125e-07
-3.2837e-07
-1.4059e-07
3.28847e-07
-1.18558e-07
-5.0018e-05
4.99677e-05
-4.92112e-05
-5.68416e-07
4.93105e-05
-1.13776e-07
-5.6916e-07
4.92069e-07
-5.40936e-05
2.08882e-06
5.40312e-05
-2.65745e-06
-5.53348e-05
-1.85478e-06
5.50962e-05
2.58543e-06
4.75114e-07
2.12039e-06
-2.69722e-06
-1.86236e-06
2.58164e-06
1.44777e-06
-5.04786e-05
5.05513e-05
-5.36177e-05
5.32107e-05
1.43019e-06
-5.08881e-07
-5.48636e-05
-1.80643e-06
5.46319e-05
2.54703e-06
-5.39512e-05
1.99116e-06
1.31973e-07
5.38504e-05
-2.53126e-06
-4.96647e-07
-1.80962e-06
2.53927e-06
2.01692e-06
1.34221e-07
-2.56694e-06
-1.44659e-06
-5.28343e-05
5.24744e-05
-5.05797e-05
5.51644e-07
5.05726e-05
-1.43392e-06
5.55289e-07
1.53204e-07
-5.33092e-05
-3.8891e-07
5.32519e-05
4.24913e-07
-5.32871e-05
-1.54728e-07
2.64318e-08
5.32024e-05
3.66229e-07
1.49602e-07
-3.6628e-07
3.90028e-07
-1.46981e-07
2.46837e-08
3.45089e-07
1.1585e-07
-4.93828e-05
4.94297e-05
-4.9913e-05
2.45861e-08
4.98495e-05
1.18368e-07
2.71493e-08
-2.21506e-12
-5.35041e-05
-1.78211e-07
5.33863e-05
3.22404e-07
-5.35038e-05
-1.78616e-07
-2.60708e-08
5.33861e-05
3.22391e-07
5.28836e-11
-1.73782e-07
3.07904e-07
-1.73392e-07
-2.4922e-08
3.07873e-07
-1.24819e-09
-5.08817e-05
5.07293e-05
-5.08803e-05
-2.8957e-08
5.07294e-05
1.10602e-09
-2.31393e-08
-1.53036e-07
-5.32864e-05
-1.54546e-07
5.32017e-05
3.66192e-07
-5.33085e-05
-3.88378e-07
-1.32009e-07
5.32511e-05
4.24781e-07
-1.49826e-07
-1.46944e-07
3.45036e-07
-3.66826e-07
-1.34118e-07
3.89977e-07
-1.19839e-07
-4.99121e-05
4.98485e-05
-4.93833e-05
-5.5316e-07
4.94283e-05
-1.14518e-07
-5.54209e-07
5.08869e-07
-5.39506e-05
1.99199e-06
5.38497e-05
-2.53198e-06
-5.48633e-05
-1.80685e-06
5.46314e-05
2.54755e-06
4.96741e-07
2.0174e-06
-2.56759e-06
-1.81015e-06
2.53982e-06
1.44657e-06
-5.05798e-05
5.05721e-05
-5.28352e-05
5.24749e-05
1.43468e-06
-5.17643e-07
-5.44011e-05
-1.76646e-06
5.41681e-05
2.51713e-06
-5.37342e-05
1.90432e-06
1.24918e-07
5.35994e-05
-2.41212e-06
-5.092e-07
-1.7662e-06
2.50615e-06
1.92716e-06
1.2726e-07
-2.44736e-06
-1.43654e-06
-5.21368e-05
5.18068e-05
-5.05317e-05
5.36324e-07
5.04632e-05
-1.42851e-06
5.39534e-07
1.54847e-07
-5.31776e-05
-4.25012e-07
5.30854e-05
4.87352e-07
-5.31071e-05
-1.71305e-07
2.81195e-08
5.29988e-05
4.06344e-07
1.52766e-07
-4.03276e-07
4.52066e-07
-1.60858e-07
2.69556e-08
3.81931e-07
1.16995e-07
-4.94483e-05
4.94427e-05
-4.97779e-05
2.78662e-08
4.96957e-05
1.17643e-07
2.84194e-08
8.20518e-12
-5.32618e-05
-1.86891e-07
5.31272e-05
3.49593e-07
-5.32615e-05
-1.86921e-07
-2.80899e-08
5.31269e-05
3.49578e-07
4.2189e-11
-1.80618e-07
3.3207e-07
-1.80396e-07
-2.70576e-08
3.32044e-07
-1.22563e-10
-5.05765e-05
5.04176e-05
-5.05757e-05
-2.85027e-08
5.04172e-05
6.37094e-10
-2.60577e-08
-1.5488e-07
-5.31065e-05
-1.71259e-07
5.29982e-05
4.06316e-07
-5.3177e-05
-4.2501e-07
-1.24893e-07
5.30847e-05
4.87285e-07
-1.52881e-07
-1.60845e-07
3.81896e-07
-4.03574e-07
-1.27185e-07
4.52008e-07
-1.1764e-07
-4.97771e-05
4.9695e-05
-4.94482e-05
-5.36655e-07
4.94422e-05
-1.15548e-07
-5.39049e-07
5.17691e-07
-5.37335e-05
1.90495e-06
5.35988e-05
-2.41279e-06
-5.44007e-05
-1.76694e-06
5.41677e-05
2.51767e-06
5.09275e-07
1.92771e-06
-2.44803e-06
-1.76668e-06
2.50667e-06
1.4369e-06
-5.05316e-05
5.0463e-05
-5.21373e-05
5.18073e-05
1.42909e-06
-5.20678e-07
-5.39327e-05
-1.73488e-06
5.36914e-05
2.4968e-06
-5.34515e-05
1.82324e-06
1.18118e-07
5.32852e-05
-2.29574e-06
-5.1462e-07
-1.73028e-06
2.48031e-06
1.84305e-06
1.20278e-07
-2.33003e-06
-1.42043e-06
-5.14915e-05
5.11771e-05
-5.0368e-05
5.20705e-07
5.02501e-05
-1.41498e-06
5.23266e-07
1.54534e-07
-5.29766e-05
-4.58793e-07
5.28496e-05
5.49368e-07
-5.28788e-05
-1.92638e-07
2.92993e-08
5.27441e-05
4.52621e-07
1.5335e-07
-4.37739e-07
5.1341e-07
-1.79611e-07
2.84941e-08
4.245e-07
1.15934e-07
-4.94126e-05
4.93586e-05
-4.96032e-05
2.92366e-08
4.94972e-05
1.15606e-07
2.85529e-08
1.10183e-11
-5.29843e-05
-1.99198e-07
5.28295e-05
3.83352e-07
-5.29841e-05
-1.99183e-07
-2.92942e-08
5.28292e-05
3.83337e-07
1.27007e-11
-1.9065e-07
3.62025e-07
-1.90628e-07
-2.84894e-08
3.62009e-07
1.0473e-11
-5.02554e-05
5.00855e-05
-5.0255e-05
-2.92423e-08
5.00851e-05
3.22038e-11
-2.84386e-08
-1.54582e-07
-5.28782e-05
-1.92597e-07
5.27435e-05
4.52598e-07
-5.2976e-05
-4.5885e-07
-1.18088e-07
5.2849e-05
5.49311e-07
-1.53399e-07
-1.79568e-07
4.24474e-07
-4.37802e-07
-1.20245e-07
5.13348e-07
-1.15981e-07
-4.96025e-05
4.94967e-05
-4.94123e-05
-5.20876e-07
4.93583e-05
-1.15531e-07
-5.23415e-07
5.20733e-07
-5.34509e-05
1.82384e-06
5.32846e-05
-2.29639e-06
-5.39323e-05
-1.73534e-06
5.3691e-05
2.49732e-06
5.14674e-07
1.84367e-06
-2.3307e-06
-1.73071e-06
2.48081e-06
1.42082e-06
-5.03679e-05
5.025e-05
-5.1492e-05
5.11774e-05
1.41538e-06
-5.19924e-07
-5.34448e-05
-1.7117e-06
5.31892e-05
2.4872e-06
-5.31066e-05
1.7466e-06
1.11896e-07
5.29093e-05
-2.18112e-06
-5.15463e-07
-1.70295e-06
2.46506e-06
1.76484e-06
1.13779e-07
-2.21546e-06
-1.40084e-06
-5.0871e-05
5.05601e-05
-5.01101e-05
5.05734e-07
4.99501e-05
-1.39684e-06
5.07974e-07
1.52894e-07
-5.2707e-05
-4.91289e-07
5.25453e-05
6.11931e-07
-5.25964e-05
-2.18366e-07
2.99606e-08
5.24322e-05
5.05503e-07
1.52304e-07
-4.70774e-07
5.74902e-07
-2.02984e-07
2.93874e-08
4.73509e-07
1.13995e-07
-4.92819e-05
4.91823e-05
-4.93788e-05
2.9806e-08
4.92447e-05
1.13874e-07
2.92816e-08
9.93034e-12
-5.26649e-05
-2.15533e-07
5.24865e-05
4.23882e-07
-5.26647e-05
-2.15518e-07
-2.99568e-08
5.24863e-05
4.23868e-07
1.0301e-11
-2.04785e-07
3.98746e-07
-2.0477e-07
-2.93831e-08
3.98731e-07
1.04913e-11
-4.99099e-05
4.97242e-05
-4.99096e-05
-2.98025e-08
4.97239e-05
1.10238e-11
-2.92766e-08
-1.52942e-07
-5.25959e-05
-2.1833e-07
5.24318e-05
5.05485e-07
-5.27064e-05
-4.91352e-07
-1.11866e-07
5.25448e-05
6.11881e-07
-1.52351e-07
-2.02945e-07
4.73488e-07
-4.70832e-07
-1.13749e-07
5.74847e-07
-1.1403e-07
-4.93783e-05
4.92442e-05
-4.92817e-05
-5.05902e-07
4.91822e-05
-1.13908e-07
-5.08142e-07
5.19983e-07
-5.3106e-05
1.74719e-06
5.29088e-05
-2.18177e-06
-5.34444e-05
-1.71215e-06
5.31888e-05
2.4877e-06
5.1552e-07
1.76544e-06
-2.21611e-06
-1.70337e-06
2.46554e-06
1.40122e-06
-5.01101e-05
4.99502e-05
-5.08713e-05
5.05604e-05
1.39722e-06
-5.15989e-07
-5.29257e-05
-1.69383e-06
5.26506e-05
2.48493e-06
-5.26999e-05
1.6705e-06
1.06244e-07
5.24712e-05
-2.06411e-06
-5.13017e-07
-1.68279e-06
2.45929e-06
1.68945e-06
1.07894e-07
-2.10095e-06
-1.37742e-06
-5.02528e-05
4.99363e-05
-4.97708e-05
4.91076e-07
4.95729e-05
-1.37542e-06
4.93295e-07
1.50132e-07
-5.23682e-05
-5.22564e-07
5.21713e-05
6.75552e-07
-5.22543e-05
-2.47081e-07
3.01994e-08
5.20586e-05
5.62748e-07
1.50078e-07
-5.0219e-07
6.37185e-07
-2.30087e-07
2.982e-08
5.28242e-07
1.11549e-07
-4.90618e-05
4.89187e-05
-4.90966e-05
2.99611e-08
4.89311e-05
1.11676e-07
2.96246e-08
9.1759e-12
-5.22968e-05
-2.36188e-07
5.20911e-05
4.72111e-07
-5.22966e-05
-2.36173e-07
-3.01963e-08
5.20909e-05
4.72097e-07
9.43857e-12
-2.23004e-07
4.42501e-07
-2.2299e-07
-2.98166e-08
4.42487e-07
9.75571e-12
-4.95308e-05
4.93246e-05
-4.95305e-05
-2.99582e-08
4.93243e-05
9.99378e-12
-2.96215e-08
-1.50178e-07
-5.22539e-05
-2.4705e-07
5.20582e-05
5.62734e-07
-5.23677e-05
-5.22629e-07
-1.06214e-07
5.21708e-05
6.75507e-07
-1.50124e-07
-2.30054e-07
5.28226e-07
-5.02251e-07
-1.07864e-07
6.37136e-07
-1.11583e-07
-4.90963e-05
4.89309e-05
-4.90617e-05
-4.91239e-07
4.89188e-05
-1.11711e-07
-4.93459e-07
5.1605e-07
-5.26994e-05
1.67108e-06
5.24708e-05
-2.06475e-06
-5.29253e-05
-1.69426e-06
5.26502e-05
2.4854e-06
5.13076e-07
1.69004e-06
-2.1016e-06
-1.68319e-06
2.45974e-06
1.37781e-06
-4.9771e-05
4.9573e-05
-5.0253e-05
4.99365e-05
1.3758e-06
-5.10355e-07
-5.23653e-05
-1.6828e-06
5.20659e-05
2.49261e-06
-5.22302e-05
1.59591e-06
1.01295e-07
5.19688e-05
-1.94619e-06
-5.08299e-07
-1.66896e-06
2.46255e-06
1.61539e-06
1.02674e-07
-1.98529e-06
-1.35281e-06
-4.96192e-05
4.92892e-05
-4.93571e-05
4.77373e-07
4.91228e-05
-1.35183e-06
4.79361e-07
1.46796e-07
-5.19586e-05
-5.54048e-07
5.17252e-05
7.41936e-07
-5.18482e-05
-2.78538e-07
3.01345e-08
5.16185e-05
6.2499e-07
1.47051e-07
-5.3328e-07
7.01604e-07
-2.59931e-07
2.99031e-08
5.87447e-07
1.08899e-07
-4.87556e-05
4.85701e-05
-4.87507e-05
2.98317e-08
4.85513e-05
1.09161e-07
2.96338e-08
8.53791e-12
-5.18724e-05
-2.61466e-07
5.16357e-05
5.28312e-07
-5.18722e-05
-2.61452e-07
-3.01319e-08
5.16355e-05
5.28299e-07
8.75961e-12
-2.45828e-07
4.94365e-07
-2.45813e-07
-2.99002e-08
4.94351e-07
9.17072e-12
-4.91084e-05
4.88767e-05
-4.91082e-05
-2.98292e-08
4.88765e-05
9.35951e-12
-2.96311e-08
-1.4684e-07
-5.18479e-05
-2.78511e-07
5.16181e-05
6.24979e-07
-5.19582e-05
-5.54116e-07
-1.01265e-07
5.17248e-05
7.41895e-07
-1.47095e-07
-2.59902e-07
5.87435e-07
-5.33344e-07
-1.02644e-07
7.0156e-07
-1.08933e-07
-4.87505e-05
4.85511e-05
-4.87557e-05
-4.77532e-07
4.85702e-05
-1.09195e-07
-4.79521e-07
5.10418e-07
-5.22297e-05
1.59648e-06
5.19684e-05
-1.94682e-06
-5.2365e-05
-1.68321e-06
5.20655e-05
2.49307e-06
5.08361e-07
1.61597e-06
-1.98592e-06
-1.66934e-06
2.46299e-06
1.35319e-06
-4.93572e-05
4.9123e-05
-4.96194e-05
4.92894e-05
1.35221e-06
-5.034e-07
-5.17542e-05
-1.67725e-06
5.1426e-05
2.50888e-06
-5.16943e-05
1.52091e-06
9.69499e-08
5.13981e-05
-1.82506e-06
-5.02012e-07
-1.66088e-06
2.47452e-06
1.5415e-06
9.80816e-08
-1.86713e-06
-1.32705e-06
-4.89552e-05
4.8605e-05
-4.88713e-05
4.64385e-07
4.86008e-05
-1.32685e-06
4.6616e-07
1.43088e-07
-5.14756e-05
-5.86082e-07
5.12042e-05
8.11392e-07
-5.13731e-05
-3.1257e-07
2.98255e-08
5.11067e-05
6.92231e-07
1.43539e-07
-5.64666e-07
7.68774e-07
-2.92363e-07
2.97101e-08
6.51548e-07
1.06116e-07
-4.83651e-05
4.81373e-05
-4.8336e-05
2.94773e-08
4.81e-05
1.06461e-07
2.93868e-08
7.98039e-12
-5.13847e-05
-2.90948e-07
5.11136e-05
5.91851e-07
-5.13845e-05
-2.90934e-07
-2.98233e-08
5.11135e-05
5.91838e-07
8.167e-12
-2.72977e-07
5.53698e-07
-2.72963e-07
-2.97078e-08
5.53685e-07
8.68334e-12
-4.86331e-05
4.83716e-05
-4.8633e-05
-2.94751e-08
4.83715e-05
8.82771e-12
-2.93845e-08
-1.4313e-07
-5.13728e-05
-3.12545e-07
5.11064e-05
6.9222e-07
-5.14753e-05
-5.86153e-07
-9.69198e-08
5.12039e-05
8.11359e-07
-1.43582e-07
-2.92337e-07
6.51537e-07
-5.64732e-07
-9.80517e-08
7.68736e-07
-1.06148e-07
-4.83359e-05
4.81e-05
-4.83653e-05
-4.64541e-07
4.81376e-05
-1.06494e-07
-4.66316e-07
5.03464e-07
-5.1694e-05
1.52147e-06
5.13978e-05
-1.82568e-06
-5.17539e-05
-1.67766e-06
5.14257e-05
2.50933e-06
5.02075e-07
1.54206e-06
-1.86775e-06
-1.66125e-06
2.47495e-06
1.32742e-06
-4.88715e-05
4.8601e-05
-4.89553e-05
4.86051e-05
1.32722e-06
-4.95534e-07
-5.10838e-05
-1.67665e-06
5.07228e-05
2.53325e-06
-5.10879e-05
1.44514e-06
9.31461e-08
5.07544e-05
-1.70031e-06
-4.94639e-07
-1.65798e-06
2.49479e-06
1.46688e-06
9.40557e-08
-1.74538e-06
-1.30059e-06
-4.8248e-05
4.78719e-05
-4.8313e-05
4.52056e-07
4.80055e-05
-1.30098e-06
4.53642e-07
1.39181e-07
-5.0916e-05
-6.19084e-07
5.06046e-05
8.84425e-07
-5.08238e-05
-3.49137e-07
2.93315e-08
5.05182e-05
7.64569e-07
1.39755e-07
-5.96825e-07
8.39281e-07
-3.27318e-07
2.93067e-08
7.20645e-07
1.03275e-07
-4.78904e-05
4.76201e-05
-4.78474e-05
2.89548e-08
4.75726e-05
1.03671e-07
2.8947e-08
7.50954e-12
-5.08269e-05
-3.24348e-07
5.05182e-05
6.62381e-07
-5.08268e-05
-3.24335e-07
-2.93296e-08
5.05181e-05
6.62369e-07
7.65602e-12
-3.04144e-07
6.20123e-07
-3.04131e-07
-2.93047e-08
6.20111e-07
8.30093e-12
-4.80964e-05
4.7801e-05
-4.80963e-05
-2.89528e-08
4.7801e-05
8.3945e-12
-2.89449e-08
-1.39222e-07
-5.08236e-05
-3.49114e-07
5.0518e-05
7.64561e-07
-5.09157e-05
-6.19156e-07
-9.31159e-08
5.06044e-05
8.84395e-07
-1.39796e-07
-3.27294e-07
7.20635e-07
-5.96894e-07
-9.40258e-08
8.39248e-07
-1.03307e-07
-4.78475e-05
4.75727e-05
-4.78908e-05
-4.52208e-07
4.76205e-05
-1.03703e-07
-4.53794e-07
4.95599e-07
-5.10876e-05
1.44568e-06
5.07541e-05
-1.70092e-06
-5.10835e-05
-1.67704e-06
5.07225e-05
2.53368e-06
4.94704e-07
1.46744e-06
-1.746e-06
-1.65834e-06
2.4952e-06
1.30095e-06
-4.83133e-05
4.80058e-05
-4.82481e-05
4.7872e-05
1.30134e-06
-4.86948e-07
-5.03463e-05
-1.68013e-06
4.99488e-05
2.56462e-06
-5.04065e-05
1.3684e-06
8.98132e-08
5.00338e-05
-1.57246e-06
-4.86333e-07
-1.659e-06
2.52177e-06
1.39108e-06
9.05048e-08
-1.61996e-06
-1.27344e-06
-4.7487e-05
4.70803e-05
-4.7681e-05
4.40229e-07
4.73357e-05
-1.27406e-06
4.41573e-07
1.35156e-07
-5.02761e-05
-6.5322e-07
4.9923e-05
9.61051e-07
-5.01954e-05
-3.88138e-07
2.8693e-08
4.98481e-05
8.41871e-07
1.35781e-07
-6.29851e-07
9.13083e-07
-3.6464e-07
2.87332e-08
7.94523e-07
1.00406e-07
-4.7331e-05
4.70176e-05
-4.72804e-05
2.83025e-08
4.69644e-05
1.00812e-07
2.8353e-08
7.11861e-12
-5.01928e-05
-3.61314e-07
4.98434e-05
7.39382e-07
-5.01927e-05
-3.61303e-07
-2.86913e-08
4.98434e-05
7.39372e-07
7.22917e-12
-3.38926e-07
6.93033e-07
-3.38914e-07
-2.87314e-08
6.93022e-07
8.00512e-12
-4.74905e-05
4.71574e-05
-4.74904e-05
-2.83005e-08
4.71574e-05
8.0574e-12
-2.8351e-08
-1.35196e-07
-5.01952e-05
-3.88119e-07
4.9848e-05
8.41865e-07
-5.02759e-05
-6.53293e-07
-8.97832e-08
4.99228e-05
9.61023e-07
-1.3582e-07
-3.64619e-07
7.94516e-07
-6.2992e-07
-9.04749e-08
9.13053e-07
-1.00437e-07
-4.72806e-05
4.69646e-05
-4.73315e-05
-4.40377e-07
4.70181e-05
-1.00843e-07
-4.41721e-07
4.87014e-07
-5.04062e-05
1.36893e-06
5.00336e-05
-1.57307e-06
-5.03461e-05
-1.68051e-06
4.99486e-05
2.56504e-06
4.86398e-07
1.39163e-06
-1.62057e-06
-1.65935e-06
2.52216e-06
1.2738e-06
-4.76813e-05
4.73361e-05
-4.74871e-05
4.70804e-05
1.27443e-06
-4.77958e-07
-4.95344e-05
-1.68798e-06
4.90969e-05
2.60349e-06
-4.96456e-05
1.29021e-06
8.69051e-08
4.9231e-05
-1.4405e-06
-4.77722e-07
-1.66509e-06
2.5572e-06
1.31482e-06
8.74436e-08
-1.49181e-06
-1.24614e-06
-4.66626e-05
4.62207e-05
-4.69729e-05
4.28955e-07
4.6588e-05
-1.24738e-06
4.30244e-07
1.31124e-07
-4.95519e-05
-6.88931e-07
4.91548e-05
1.04184e-06
-4.94827e-05
-4.2958e-07
2.79551e-08
4.90912e-05
9.24246e-07
1.31815e-07
-6.64538e-07
9.91198e-07
-4.04556e-07
2.80541e-08
8.73771e-07
9.75659e-08
-4.66853e-05
4.63278e-05
-4.66302e-05
2.75621e-08
4.62706e-05
9.80059e-08
2.76662e-08
6.76021e-12
-4.94762e-05
-4.01641e-07
4.90832e-05
8.22614e-07
-4.94762e-05
-4.01631e-07
-2.79535e-08
4.90831e-05
8.22605e-07
6.86537e-12
-3.773e-07
7.72568e-07
-3.7729e-07
-2.80525e-08
7.72559e-07
7.73543e-12
-4.68078e-05
4.64337e-05
-4.68078e-05
-2.75601e-08
4.64337e-05
7.78384e-12
-2.76642e-08
-1.31162e-07
-4.94825e-05
-4.29563e-07
4.90911e-05
9.24243e-07
-4.95518e-05
-6.89002e-07
-8.68751e-08
4.91547e-05
1.04182e-06
-1.31853e-07
-4.04538e-07
8.73767e-07
-6.64607e-07
-8.74138e-08
9.91169e-07
-9.75955e-08
-4.66304e-05
4.62709e-05
-4.66859e-05
-4.29099e-07
4.63284e-05
-9.80358e-08
-4.30388e-07
4.78024e-07
-4.96454e-05
1.29074e-06
4.92309e-05
-1.44109e-06
-4.95342e-05
-1.68835e-06
4.90967e-05
2.6039e-06
4.77787e-07
1.31535e-06
-1.49241e-06
-1.66543e-06
2.55759e-06
1.24649e-06
-4.69733e-05
4.65885e-05
-4.66627e-05
4.62208e-05
1.24773e-06
-4.68653e-07
-4.86412e-05
-1.69963e-06
4.81605e-05
2.64903e-06
-4.88001e-05
1.21014e-06
8.43578e-08
4.83413e-05
-1.30429e-06
-4.6863e-07
-1.67475e-06
2.59899e-06
1.23647e-06
8.47445e-08
-1.35897e-06
-1.21872e-06
-4.57662e-05
4.52853e-05
-4.6185e-05
4.18134e-07
4.57582e-05
-1.22022e-06
4.19295e-07
1.27114e-07
-4.87392e-05
-7.26263e-07
4.82961e-05
1.12665e-06
-4.86808e-05
-4.73286e-07
2.71436e-08
4.82427e-05
1.01136e-06
1.27825e-07
-7.00661e-07
1.07315e-06
-4.46712e-07
2.72829e-08
9.5768e-07
9.47609e-08
-4.59512e-05
4.55483e-05
-4.58922e-05
2.67569e-08
4.54869e-05
9.52061e-08
2.68973e-08