/*--------------------------------*- C++ -*----------------------------------*\
  =========                 |
  \\      /  F ield         | OpenFOAM: The Open Source CFD Toolbox
   \\    /   O peration     | Website:  https://openfoam.org
    \\  /    A nd           | Version:  9
     \\/     M anipulation  |
\*---------------------------------------------------------------------------*/
FoamFile
{
    format      ascii;
    class       surfaceScalarField;
    location    "0.4";
    object      phi;
}
// * * * * * * * * * * * * * * * * * * * * * * * * * * * * * * * * * * * * * //

dimensions      [0 3 -1 0 0 0 0];

internalField   nonuniform List<scalar> 
104044
(
9.55097e-07
-0.000138845
-3.11571e-07
0.00013721
9.91659e-07
-0.00010595
-3.06658e-06
-3.71693e-07
0.000110492
-1.48825e-07
2.97836e-07
1.5752e-06
-9.32034e-07
-4.64376e-06
-1.49049e-07
1.45883e-06
1.62875e-07
-0.000131903
0.000131428
-0.000114167
-7.16966e-08
0.000111335
2.84115e-07
-1.54483e-07
-3.13516e-09
-0.000122573
-9.60766e-07
0.000122762
4.03473e-07
-0.000123868
-7.09794e-07
-7.35989e-10
0.000124479
9.64174e-08
7.27675e-09
-1.59384e-06
2.49384e-07
-1.55663e-06
-8.76333e-11
1.55356e-07
-6.66108e-09
-0.000123095
0.000122069
-0.000122433
-1.76918e-09
0.000121718
-5.11687e-09
-7.93484e-10
-6.97359e-12
-0.000123703
-7.06605e-07
0.000124327
8.16139e-08
-0.000123703
-7.06609e-07
7.25243e-10
0.000124327
8.16186e-08
-2.19483e-12
-1.55617e-06
1.48392e-07
-1.55617e-06
8.44495e-11
1.48391e-07
-5.79348e-12
-0.000122149
0.00012144
-0.000122149
1.76012e-09
0.00012144
-2.19318e-12
7.90368e-10
3.13721e-09
-0.000123868
-7.09799e-07
0.000124479
9.64148e-08
-0.000122574
-9.60682e-07
3.71708e-07
0.000122763
4.03186e-07
-7.276e-09
-1.55662e-06
1.55346e-07
-1.59376e-06
1.49037e-07
2.49228e-07
6.66397e-09
-0.000122433
0.000121718
-0.000123095
7.17427e-08
0.000122069
5.11891e-09
1.54469e-07
-9.55079e-07
-0.00010595
-3.06614e-06
0.000110493
-1.49744e-07
-0.000138846
-3.11736e-07
0.000137211
9.91075e-07
-2.97835e-07
-4.64276e-06
1.45756e-06
1.57609e-06
-9.33151e-07
-1.62922e-07
-0.000114167
0.000111336
-0.000131903
0.000131428
-2.84125e-07
1.26025e-06
-0.000134842
-1.17452e-06
0.00013255
2.206e-06
-0.000114717
9.67309e-07
-3.17497e-07
0.000117622
-2.29444e-06
1.29635e-06
-9.08628e-07
1.98021e-06
-1.36807e-06
-4.10467e-07
-1.14984e-06
-3.40225e-07
-0.000130587
0.000129753
-0.00010983
2.3736e-07
0.00011022
-6.70632e-08
6.91564e-08
-4.40227e-08
-0.000122725
-1.05804e-06
0.000122659
8.50793e-07
-0.000124663
-1.66895e-07
-6.73603e-09
0.000124673
1.19788e-07
-2.57031e-08
-1.07039e-06
7.22295e-07
-3.41089e-07
-3.25894e-09
1.34387e-07
-2.0164e-08
-0.000121082
0.000120281
-0.000121367
-6.01146e-09
0.000121185
-1.43487e-08
-3.71334e-09
-4.47581e-12
-0.000124553
-1.04668e-07
0.000124625
2.52001e-08
-0.000124553
-1.04672e-07
6.72005e-09
0.000124625
2.5204e-08
-7.5456e-12
-3.03772e-07
7.48175e-08
-3.03775e-07
3.24329e-09
7.48224e-08
-2.3956e-12
-0.000121133
0.000121022
-0.000121133
6.00022e-09
0.000121022
-6.28787e-12
3.70068e-09
4.40062e-08
-0.000124663
-1.6687e-07
0.000124673
1.19749e-07
-0.000122726
-1.05781e-06
3.1761e-07
0.000122659
8.5058e-07
2.56995e-08
-3.41093e-07
1.34395e-07
-1.07039e-06
4.10512e-07
7.22435e-07
2.01494e-08
-0.000121367
0.000121186
-0.000121082
-2.3725e-07
0.000120282
1.43448e-08
-6.90467e-08
-1.2605e-06
-0.000114717
9.66857e-07
0.000117622
-2.29277e-06
-0.000134842
-1.1765e-06
0.000132553
2.20527e-06
-1.29638e-06
-1.36846e-06
-1.14936e-06
-9.12165e-07
1.98503e-06
3.40207e-07
-0.000109831
0.000110221
-0.000130583
0.000129747
6.69996e-08
7.30696e-07
-0.000130679
-2.15607e-06
0.000129235
2.86976e-06
-0.000119509
3.16105e-06
-5.43251e-08
0.000120773
-3.64015e-06
1.00356e-06
-1.65381e-06
2.52132e-06
2.42489e-06
-1.79512e-07
-3.12949e-06
-9.67963e-07
-0.000128754
0.000127566
-0.00011159
5.42736e-07
0.00011324
-6.55212e-07
3.99865e-07
-5.14547e-08
-0.000122544
-8.28859e-07
0.000122487
8.82782e-07
-0.000124535
-7.41161e-08
-1.05588e-08
0.00012434
2.28508e-07
-4.10546e-08
-8.9701e-07
8.74072e-07
-6.67112e-08
-9.2649e-09
1.72559e-07
-7.22129e-09
-0.000119802
0.000119523
-0.000121113
-1.61988e-08
0.000121048
-1.75256e-08
-1.1808e-08
1.66634e-12
-0.000124553
1.57556e-08
0.000124441
8.55016e-08
-0.000124553
1.57574e-08
1.05601e-08
0.000124441
8.54902e-08
-3.37951e-12
1.06023e-08
5.23445e-08
1.05967e-08
9.25014e-09
5.23454e-08
4.09286e-12
-0.000121021
0.00012102
-0.000121021
1.61931e-08
0.00012102
4.11042e-12
1.17886e-08
5.14388e-08
-0.000124535
-7.40803e-08
0.00012434
2.28441e-07
-0.000122544
-8.28206e-07
5.43778e-08
0.000122487
8.8198e-07
4.10524e-08
-6.66968e-08
1.72516e-07
-8.97017e-07
1.79662e-07
8.73902e-07
7.20144e-09
-0.000121113
0.000121048
-0.000119802
-5.4257e-07
0.000119523
1.75067e-08
-3.99726e-07
-7.30838e-07
-0.000119508
3.16171e-06
0.000120773
-3.64131e-06
-0.000130679
-2.15946e-06
0.000129232
2.87529e-06
-1.00383e-06
2.42334e-06
-3.1267e-06
-1.6463e-06
2.51595e-06
9.67661e-07
-0.000111589
0.000113241
-0.000128756
0.000127564
6.55187e-07
2.65685e-07
-0.000128151
-2.63404e-06
0.000127294
3.22561e-06
-0.00012164
3.39297e-06
9.93589e-08
0.000122274
-3.86062e-06
4.7092e-07
-2.46121e-06
3.07394e-06
3.35506e-06
4.55841e-08
-3.79658e-06
-1.4283e-06
-0.000126318
0.000125112
-0.000114747
7.02115e-07
0.00011601
-1.213e-06
6.34906e-07
-8.0304e-09
-0.000122491
-7.66144e-07
0.000122515
8.50408e-07
-0.000124168
-1.68406e-07
-1.98799e-08
0.000124021
3.27602e-07
-2.99427e-08
-7.8737e-07
8.58361e-07
-1.18792e-07
-1.64186e-08
2.7715e-07
2.44582e-08
-0.000119363
0.000119274
-0.000120954
-1.4989e-08
0.000120825
7.78093e-09
-1.67295e-08
-4.82118e-11
-0.000124326
-5.30192e-08
0.000124213
1.45828e-07
-0.000124326
-5.29876e-08
1.99134e-08
0.000124213
1.4564e-07
-5.44906e-12
-1.28516e-08
1.12147e-07
-1.28434e-08
1.64436e-08
1.12121e-07
-2.15003e-11
-0.000120991
0.000120923
-0.000120991
1.49956e-08
0.000120923
-2.53997e-12
1.67306e-08
8.10263e-09
-0.000124168
-1.68374e-07
0.000124021
3.27546e-07
-0.000122492
-7.66521e-07
-9.9778e-08
0.000122515
8.51319e-07
2.99446e-08
-1.18763e-07
2.77118e-07
-7.87029e-07
-4.56848e-08
8.58177e-07
-2.44027e-08
-0.000120954
0.000120825
-0.000119363
-7.02253e-07
0.000119275
-7.77472e-09
-6.34929e-07
-2.65422e-07
-0.000121639
3.39379e-06
0.000122271
-3.85955e-06
-0.000128153
-2.62701e-06
0.000127295
3.21962e-06
-4.7086e-07
3.35769e-06
-3.79851e-06
-2.46803e-06
3.07698e-06
1.4284e-06
-0.000114751
0.000116014
-0.000126309
0.00012511
1.21285e-06
-2.5031e-08
-0.000126597
-2.61495e-06
0.000126
3.23731e-06
-0.000122669
3.1792e-06
2.43497e-07
0.000122934
-3.71205e-06
1.01613e-07
-2.62663e-06
3.22206e-06
3.26732e-06
2.09939e-07
-3.77099e-06
-1.69425e-06
-0.000124051
0.00012313
-0.000116973
7.69263e-07
0.000117689
-1.56556e-06
7.3826e-07
2.75433e-08
-0.000122593
-7.01838e-07
0.00012266
8.50656e-07
-0.000123882
-2.12808e-07
-1.38202e-08
0.000123744
3.91922e-07
1.06255e-08
-7.1824e-07
8.39512e-07
-1.9317e-07
-1.80707e-08
3.60756e-07
5.61429e-08
-0.000119254
0.000119265
-0.000120686
-1.26759e-08
0.000120542
4.06007e-08
-1.363e-08
-6.37327e-11
-0.000124101
-1.0046e-07
0.000123981
2.06916e-07
-0.000124101
-1.00435e-07
1.37093e-08
0.000123981
2.06869e-07
8.26242e-12
-8.14849e-08
1.75327e-07
-8.14814e-08
1.79847e-08
1.75473e-07
-7.97514e-11
-0.000120828
0.000120715
-0.000120828
1.25445e-08
0.000120715
-4.45367e-11
1.3559e-08
-2.75378e-08
-0.000123882
-2.12701e-07
0.000123744
3.91703e-07
-0.000122593
-7.01984e-07
-2.43318e-07
0.00012266
8.50585e-07
-1.07428e-08
-1.93088e-07
3.60716e-07
-7.18306e-07
-2.09919e-07
8.39234e-07
-5.61509e-08
-0.000120686
0.000120542
-0.000119254
-7.69145e-07
0.000119265
-4.05499e-08
-7.38205e-07
2.48736e-08
-0.000122666
3.17573e-06
0.000122932
-3.71005e-06
-0.000126598
-2.61221e-06
0.000126001
3.23446e-06
-1.01375e-07
3.26621e-06
-3.77032e-06
-2.62444e-06
3.21935e-06
1.69273e-06
-0.000116977
0.000117691
-0.000124051
0.000123131
1.56504e-06
-1.96927e-07
-0.000125486
-2.50053e-06
0.000125026
3.15756e-06
-0.000123091
2.95346e-06
2.56103e-07
0.000123164
-3.47957e-06
-1.21297e-07
-2.52936e-06
3.16406e-06
3.02817e-06
2.52679e-07
-3.55951e-06
-1.83088e-06
-0.000122357
0.000121688
-0.00011819
7.79118e-07
0.000118533
-1.75659e-06
7.71079e-07
4.45207e-08
-0.000122708
-6.86917e-07
0.000122733
8.73668e-07
-0.000123607
-2.37982e-07
-1.0215e-08
0.000123467
4.33364e-07
3.67198e-08
-6.84084e-07
8.51518e-07
-2.24298e-07
-1.20894e-08
4.09603e-07
7.99117e-08
-0.000119283
0.000119296
-0.000120397
-9.1702e-09
0.000120248
6.8483e-08
-1.09626e-08
-5.41669e-11
-0.00012385
-1.33188e-07
0.000123705
2.68441e-07
-0.00012385
-1.33162e-07
1.01076e-08
0.000123705
2.68404e-07
-8.52091e-11
-1.15804e-07
2.34461e-07
-1.15773e-07
1.19111e-08
2.34416e-07
-7.57631e-11
-0.000120588
0.000120446
-0.000120588
9.03432e-09
0.000120446
-9.04965e-11
1.08031e-08
-4.46267e-08
-0.000123608
-2.37883e-07
0.000123467
4.33245e-07
-0.000122709
-6.86816e-07
-2.56371e-07
0.000122734
8.73468e-07
-3.69092e-08
-2.24149e-07
4.09405e-07
-6.83848e-07
-2.52801e-07
8.51131e-07
-7.99641e-08
-0.000120397
0.000120248
-0.000119284
-7.78891e-07
0.000119296
-6.85498e-08
-7.70915e-07
1.98301e-07
-0.00012309
2.94885e-06
0.000123167
-3.48035e-06
-0.000125488
-2.50023e-06
0.000125027
3.16015e-06
1.22093e-07
3.02499e-06
-3.55755e-06
-2.52618e-06
3.16091e-06
1.82982e-06
-0.000118189
0.00011853
-0.00012236
0.00012169
1.75536e-06
-2.98822e-07
-0.000124614
-2.41388e-06
0.000124228
3.09861e-06
-0.000123169
2.77155e-06
2.40714e-07
0.00012312
-3.26153e-06
-2.5225e-07
-2.43171e-06
3.09608e-06
2.83172e-06
2.47928e-07
-3.33708e-06
-1.89524e-06
-0.000121108
0.000120589
-0.000118748
7.62724e-07
0.000118862
-1.85211e-06
7.64594e-07
5.55896e-08
-0.000122731
-6.93916e-07
0.000122698
9.12172e-07
-0.000123321
-2.61122e-07
-6.00403e-09
0.000123165
4.78694e-07
5.01286e-08
-6.81834e-07
8.8207e-07
-2.46797e-07
-8.02327e-09
4.50504e-07
9.46233e-08
-0.000119291
0.000119265
-0.000120096
-5.0924e-09
0.000119934
8.72573e-08
-7.07328e-09
1.2204e-11
-0.000123548
-1.64857e-07
0.000123375
3.31259e-07
-0.000123548
-1.64846e-07
6.06317e-09
0.000123375
3.31249e-07
-1.83787e-11
-1.47605e-07
2.9684e-07
-1.47593e-07
8.01429e-09
2.96817e-07
-1.10116e-11
-0.000120291
0.000120121
-0.000120291
5.10589e-09
0.000120121
-4.62676e-11
7.00573e-09
-5.54196e-08
-0.000123321
-2.61059e-07
0.000123165
4.78661e-07
-0.000122731
-6.93216e-07
-2.40119e-07
0.000122697
9.11693e-07
-5.00404e-08
-2.46783e-07
4.50485e-07
-6.82143e-07
-2.47576e-07
8.82415e-07
-9.448e-08
-0.000120096
0.000119934
-0.000119291
-7.62448e-07
0.000119266
-8.72326e-08
-7.6447e-07
2.97488e-07
-0.000123173
2.77726e-06
0.000123122
-3.26399e-06
-0.000124613
-2.42008e-06
0.000124228
3.10314e-06
2.5232e-07
2.83171e-06
-3.33771e-06
-2.43313e-06
3.09869e-06
1.8958e-06
-0.000118745
0.000118864
-0.000121109
0.000120584
1.85158e-06
-3.58357e-07
-0.000123865
-2.35661e-06
0.00012351
3.06949e-06
-0.000123028
2.6312e-06
2.16755e-07
0.000122892
-3.07051e-06
-3.2909e-07
-2.35706e-06
3.04961e-06
2.66915e-06
2.27155e-07
-3.13352e-06
-1.91863e-06
-0.000120126
0.000119688
-0.000118892
7.39193e-07
0.000118865
-1.89384e-06
7.45371e-07
6.29009e-08
-0.000122633
-7.14841e-07
0.000122537
9.64758e-07
-0.000122999
-2.87944e-07
-2.15245e-09
0.000122818
5.34118e-07
5.90621e-08
-6.9671e-07
9.29083e-07
-2.71442e-07
-3.97174e-09
5.00376e-07
1.03098e-07
-0.000119215
0.000119136
-0.000119765
-1.37099e-09
0.000119581
9.87806e-08
-3.11446e-09
-1.09982e-11
-0.00012319
-1.98032e-07
0.000122988
3.98131e-07
-0.00012319
-1.98008e-07
2.12282e-09
0.000122988
3.98118e-07
1.15476e-11
-1.7933e-07
3.60312e-07
-1.79314e-07
3.99772e-09
3.60313e-07
8.1518e-12
-0.000119939
0.000119739
-0.000119939
1.42142e-09
0.000119739
1.05761e-11
3.17223e-09
-6.30181e-08
-0.000122999
-2.87849e-07
0.000122818
5.34049e-07
-0.000122633
-7.14952e-07
-2.17297e-07
0.000122537
9.64973e-07
-5.90776e-08
-2.71341e-07
5.00349e-07
-6.95823e-07
-2.27123e-07
9.28314e-07
-1.02916e-07
-0.000119765
0.000119581
-0.000119216
-7.38571e-07
0.000119137
-9.8593e-08
-7.44969e-07
3.57585e-07
-0.000123029
2.62856e-06
0.000122892
-3.06628e-06
-0.000123863
-2.35373e-06
0.000123512
3.06293e-06
3.2789e-07
2.67382e-06
-3.13601e-06
-2.36017e-06
3.05251e-06
1.91897e-06
-0.0001189
0.000118871
-0.000120118
0.000119683
1.89347e-06
-3.9294e-07
-0.000123169
-2.31486e-06
0.000122824
3.05247e-06
-0.000122722
2.4971e-06
1.90487e-07
0.000122521
-2.87934e-06
-3.74246e-07
-2.31159e-06
3.02741e-06
2.54029e-06
2.01567e-07
-2.94568e-06
-1.91839e-06
-0.000119276
0.00011888
-0.000118788
7.11973e-07
0.000118655
-1.89966e-06
7.17792e-07
6.71262e-08
-0.000122412
-7.43764e-07
0.000122256
1.02335e-06
-0.000122624
-3.18438e-07
9.65569e-10
0.00012241
5.98635e-07
6.46822e-08
-7.20631e-07
9.82339e-07
-2.99608e-07
-4.98774e-10
5.59449e-07
1.05861e-07
-0.00011903
0.000118892
-0.000119385
1.61809e-09
0.000119171
1.03884e-07
1.83836e-10
8.82185e-12
-0.000122771
-2.34284e-07
0.000122535
4.71411e-07
-0.000122771
-2.34272e-07
-9.38598e-10
0.000122535
4.71383e-07
-1.1984e-11
-2.13573e-07
4.29582e-07
-2.13555e-07
4.83607e-10
4.29552e-07
1.72985e-12
-0.000119526
0.000119293
-0.000119526
-1.6184e-09
0.000119293
-1.24308e-11
-1.86763e-10
-6.70204e-08
-0.000122624
-3.18518e-07
0.00012241
5.98631e-07
-0.000122412
-7.44469e-07
-1.91162e-07
0.000122256
1.02492e-06
-6.46531e-08
-2.99604e-07
5.594e-07
-7.2137e-07
-2.02036e-07
9.83582e-07
-1.05993e-07
-0.000119385
0.000119171
-0.00011903
-7.12721e-07
0.000118892
-1.03873e-07
-7.17893e-07
3.935e-07
-0.000122723
2.49868e-06
0.000122521
-2.88215e-06
-0.000123169
-2.31629e-06
0.000122824
3.05451e-06
3.73809e-07
2.5365e-06
-2.94289e-06
-2.30581e-06
3.02272e-06
1.9223e-06
-0.000118788
0.000118651
-0.000119279
0.000118885
1.90166e-06
-4.13141e-07
-0.000122478
-2.28614e-06
0.000122122
3.05522e-06
-0.000122296
2.3789e-06
1.65109e-07
0.000122041
-2.70183e-06
-4.00071e-07
-2.27508e-06
3.02085e-06
2.41258e-06
1.75537e-07
-2.76404e-06
-1.90514e-06
-0.000118499
0.000118118
-0.000118481
6.84199e-07
0.000118271
-1.89424e-06
6.9143e-07
6.94524e-08
-0.000122071
-7.77021e-07
0.000121853
1.09058e-06
-0.000122179
-3.52998e-07
3.27758e-09
0.000121925
6.72646e-07
6.77843e-08
-7.52661e-07
1.04521e-06
-3.31863e-07
2.21887e-09
6.28116e-07
1.05255e-07
-0.000118726
0.000118528
-0.000118941
3.80643e-09
0.00011869
1.04945e-07
2.82933e-09
-4.93304e-11
-0.000122283
-2.73774e-07
0.000122009
5.51265e-07
-0.000122283
-2.73763e-07
-3.38303e-09
0.000122009
5.51257e-07
-1.71444e-11
-2.51066e-07
5.05364e-07
-2.51056e-07
-2.24512e-09
5.05342e-07
-1.273e-11
-0.000119045
0.000118775
-0.000119045
-3.82525e-09
0.000118775
1.22306e-11
-2.79763e-09
-6.93884e-08
-0.000122179
-3.53012e-07
0.000121925
6.72527e-07
-0.000122072
-7.76879e-07
-1.66208e-07
0.000121855
1.09086e-06
-6.77324e-08
-3.31905e-07
6.28037e-07
-7.52866e-07
-1.77086e-07
1.04627e-06
-1.05301e-07
-0.000118941
0.00011869
-0.000118726
-6.84256e-07
0.000118528
-1.04991e-07
-6.91689e-07
4.1426e-07
-0.000122297
2.37757e-06
0.000122042
-2.70372e-06
-0.000122479
-2.28705e-06
0.000122123
3.05769e-06
4.01654e-07
2.41284e-06
-2.76699e-06
-2.27621e-06
3.0228e-06
1.90493e-06
-0.000118475
0.000118264
-0.000118505
0.000118123
1.89702e-06
-4.2524e-07
-0.000121762
-2.27712e-06
0.000121384
3.07973e-06
-0.000121761
2.26428e-06
1.52873e-07
0.000121451
-2.53218e-06
-4.16179e-07
-2.25549e-06
3.03239e-06
2.29821e-06
1.57303e-07
-2.59141e-06
-1.88269e-06
-0.000117738
0.000117344
-0.000118029
6.5811e-07
0.000117753
-1.87568e-06
6.64348e-07
7.0536e-08
-0.000121611
-8.12999e-07
0.000121337
1.1689e-06
-0.000121653
-3.92283e-07
4.82742e-09
0.000121354
7.56464e-07
6.94568e-08
-7.86911e-07
1.1174e-06
-3.68427e-07
4.09121e-09
7.06408e-07
1.02442e-07
-0.000118302
0.000118045
-0.00011842
5.16558e-09
0.000118125
1.03019e-07
4.52239e-09
-6.14921e-11
-0.000121717
-3.17221e-07
0.0001214
6.39079e-07
-0.000121717
-3.17222e-07
-5.01936e-09
0.0001214
6.39136e-07
-5.53487e-11
-2.92103e-07
5.88327e-07
-2.92096e-07
-4.24488e-09
5.88351e-07
-5.6247e-11
-0.000118487
0.000118175
-0.000118487
-5.29223e-09
0.000118176
-3.83885e-11
-4.59594e-09
-7.09423e-08
-0.000121653
-3.92181e-07
0.000121354
7.5656e-07
-0.000121612
-8.12215e-07
-1.53198e-07
0.000121338
1.16873e-06
-6.96738e-08
-3.68363e-07
7.06404e-07
-7.86065e-07
-1.57655e-07
1.11693e-06
-1.02464e-07
-0.00011842
0.000118125
-0.000118302
-6.5747e-07
0.000118045
-1.03024e-07
-6.63758e-07
4.25049e-07
-0.000121761
2.26629e-06
0.000121448
-2.53147e-06
-0.000121763
-2.27721e-06
0.000121387
3.07823e-06
4.16189e-07
2.29958e-06
-2.59208e-06
-2.25835e-06
3.03404e-06
1.88186e-06
-0.000118025
0.000117752
-0.00011774
0.000117344
1.87485e-06
-4.30086e-07
-0.000120995
-2.27143e-06
0.000120584
3.11235e-06
-0.000121119
2.15228e-06
1.41149e-07
0.000120756
-2.36047e-06
-4.23924e-07
-2.25147e-06
3.06496e-06
2.18802e-06
1.45259e-07
-2.42594e-06
-1.85272e-06
-0.000116943
0.000116524
-0.000117451
6.33055e-07
0.000117118
-1.85028e-06
6.39223e-07
6.97488e-08
-0.000121037
-8.51025e-07
0.000120705
1.25498e-06
-0.000121035
-4.36217e-07
5.54864e-09
0.000120686
8.49093e-07
6.98682e-08
-8.23179e-07
1.19851e-06
-4.09613e-07
5.25237e-09
7.93934e-07
9.83365e-08
-0.000117761
0.000117445
-0.000117809
5.86653e-09
0.000117465
9.95657e-08
5.55021e-09
-1.33337e-10
-0.000121063
-3.6482e-07
0.000120698
7.35252e-07
-0.000121063
-3.64822e-07
-5.88239e-09
0.000120698
7.35323e-07
-9.13152e-11
-3.37215e-07
6.79502e-07
-3.37229e-07
-5.45897e-09
6.79574e-07
-9.82075e-11
-0.000117844
0.000117485
-0.000117844
-6.05829e-09
0.000117485
-7.93732e-11
-5.71092e-09
-7.03236e-08
-0.000121035
-4.36065e-07
0.000120686
8.4921e-07
-0.000121038
-8.51098e-07
-1.40797e-07
0.000120705
1.25422e-06
-7.0088e-08
-4.09519e-07
7.93982e-07
-8.22831e-07
-1.45652e-07
1.19827e-06
-9.82971e-08
-0.000117809
0.000117465
-0.000117761
-6.32393e-07
0.000117444
-9.95757e-08
-6.38637e-07
4.29834e-07
-0.000121114
2.14766e-06
0.000120755
-2.35851e-06
-0.000120998
-2.26676e-06
0.000120586
3.1084e-06
4.24093e-07
2.18678e-06
-2.42292e-06
-2.2472e-06
3.06074e-06
1.84943e-06
-0.000117451
0.000117117
-0.000116946
0.000116528
1.84849e-06
-4.33542e-07
-0.00012016
-2.26807e-06
0.000119708
3.15424e-06
-0.000120371
2.03164e-06
1.31755e-07
0.000119955
-2.18139e-06
-4.27499e-07
-2.24315e-06
3.09409e-06
2.07051e-06
1.35007e-07
-2.24756e-06
-1.819e-06
-0.0001161
0.00011565
-0.000116754
6.10193e-07
0.000116357
-1.81882e-06
6.15014e-07
6.76565e-08
-0.000120346
-8.95359e-07
0.000119953
1.35238e-06
-0.000120314
-4.85671e-07
5.87701e-09
0.000119909
9.51886e-07
6.79796e-08
-8.63998e-07
1.28943e-06
-4.55714e-07
5.66155e-09
8.90262e-07
9.36313e-08
-0.000117101
0.000116722
-0.000117099
6.08658e-09
0.000116701
9.50169e-08
5.95266e-09
-9.58584e-11
-0.000120311
-4.1715e-07
0.000119894
8.41014e-07
-0.000120311
-4.17157e-07
-6.07956e-09
0.000119894
8.41058e-07
-1.41879e-10
-3.86513e-07
7.79098e-07
-3.86512e-07
-6.04212e-09
7.79172e-07
-4.88108e-11
-0.000117105
0.000116694
-0.000117105
-6.16333e-09
0.000116694
-8.04628e-11
-6.11891e-09
-6.78891e-08
-0.000120314
-4.8562e-07
0.000119909
9.51943e-07
-0.000120346
-8.95557e-07
-1.30831e-07
0.000119952
1.35201e-06
-6.87685e-08
-4.55551e-07
8.90422e-07
-8.64403e-07
-1.33569e-07
1.28865e-06
-9.35409e-08
-0.000117099
0.0001167
-0.0001171
-6.10072e-07
0.000116721
-9.49628e-08
-6.14628e-07
4.32172e-07
-0.000120376
2.03252e-06
0.000119963
-2.18248e-06
-0.000120158
-2.27015e-06
0.000119705
3.15546e-06
4.2617e-07
2.06509e-06
-2.24624e-06
-2.23776e-06
3.09212e-06
1.81938e-06
-0.000116752
0.000116355
-0.000116106
0.000115655
1.81526e-06
-4.32634e-07
-0.000119237
-2.27368e-06
0.000118734
3.20896e-06
-0.000119516
1.9151e-06
1.22816e-07
0.000119038
-1.99221e-06
-4.29439e-07
-2.2418e-06
3.14221e-06
1.94965e-06
1.25934e-07
-2.06584e-06
-1.78378e-06
-0.000115191
0.000114701
-0.000115931
5.88496e-07
0.000115474
-1.78204e-06
5.9309e-07
6.45446e-08
-0.000119533
-9.43852e-07
0.000119075
1.46023e-06
-0.00011948
-5.40035e-07
5.65303e-09
0.000119015
1.06379e-06
6.57788e-08
-9.10147e-07
1.39098e-06
-5.07063e-07
5.80227e-09
9.9663e-07
8.84134e-08
-0.000116315
0.000115871
-0.000116278
5.70507e-09
0.00011582
9.01395e-08
5.90795e-09
-2.62151e-11
-0.000119452
-4.73854e-07
0.000118976
9.55594e-07
-0.000119452
-4.73869e-07
-5.72778e-09
0.000118976
9.55642e-07
-5.39346e-11
-4.40471e-07
8.88169e-07
-4.4049e-07
-5.8826e-09
8.88204e-07
-6.64259e-11
-0.000116259
0.000115791
-0.000116259
-5.85885e-09
0.000115791
-4.79348e-11
-5.99703e-09
-6.44841e-08
-0.000119479
-5.40026e-07
0.000119014
1.06373e-06
-0.000119532
-9.43597e-07
-1.23335e-07
0.000119074
1.45988e-06
-6.54464e-08
-5.07109e-07
9.96545e-07
-9.09398e-07
-1.26337e-07
1.39046e-06
-8.86002e-08
-0.000116278
0.00011582
-0.000116315
-5.88835e-07
0.000115871
-9.02324e-08
-5.93622e-07
4.33429e-07
-0.000119521
1.91466e-06
0.000119041
-1.99179e-06
-0.000119234
-2.27595e-06
0.000118733
3.21044e-06
4.29289e-07
1.95875e-06
-2.07253e-06
-2.25196e-06
3.15204e-06
1.78525e-06
-0.000115935
0.000115475
-0.000115189
0.000114698
1.78574e-06
-4.28588e-07
-0.000118211
-2.29392e-06
0.00011765
3.28309e-06
-0.000118533
1.79162e-06
1.14893e-07
0.000117993
-1.79535e-06
-4.27128e-07
-2.26084e-06
3.21125e-06
1.83879e-06
1.17878e-07
-1.87855e-06
-1.74705e-06
-0.000114189
0.000113642
-0.000114992
5.67866e-07
0.000114469
-1.74864e-06
5.72475e-07
5.9655e-08
-0.000118589
-9.96472e-07
0.000118063
1.57708e-06
-0.000118523
-5.99937e-07
4.83033e-09
0.000117992
1.18557e-06
6.13971e-08
-9.5934e-07
1.50181e-06
-5.63554e-07
5.20384e-09
1.11198e-06
8.30904e-08
-0.0001154
0.000114888
-0.000115337
4.94355e-09
0.000114815
8.4903e-08
5.2901e-09
-3.34876e-11
-0.000118474
-5.35609e-07
0.000117934
1.0803e-06
-0.000118474
-5.35607e-07
-5.02558e-09
0.000117934
1.08037e-06
-3.20709e-11
-4.98987e-07
1.00635e-06
-4.9899e-07
-5.37587e-09
1.00641e-06
-8.99701e-11
-0.000115297
0.000114767
-0.000115297
-5.15533e-09
0.000114767
-8.46387e-11
-5.49528e-09
-6.02103e-08
-0.000118522
-5.9987e-07
0.000117992
1.18567e-06
-0.000118588
-9.96042e-07
-1.15688e-07
0.000118063
1.57701e-06
-6.2092e-08
-5.63434e-07
1.11204e-06
-9.59496e-07
-1.18053e-07
1.50144e-06
-8.33584e-08
-0.000115336
0.000114815
-0.000115399
-5.68114e-07
0.000114888
-8.50963e-08
-5.72314e-07
4.30629e-07
-0.000118537
1.79744e-06
0.000117993
-1.7998e-06
-0.000118209
-2.29901e-06
0.000117651
3.28818e-06
4.2769e-07
1.83516e-06
-1.87666e-06
-2.25729e-06
3.20851e-06
1.74914e-06
-0.00011499
0.00011447
-0.00011419
0.00011364
1.7487e-06
-4.25851e-07
-0.000117067
-2.31602e-06
0.000116445
3.36389e-06
-0.000117432
1.65993e-06
1.08805e-07
0.000116827
-1.58993e-06
-4.2168e-07
-2.27694e-06
3.28228e-06
1.7048e-06
1.09748e-07
-1.67499e-06
-1.70973e-06
-0.000113075
0.000112468
-0.000113912
5.48052e-07
0.000113314
-1.70988e-06
5.51727e-07
5.48038e-08
-0.000117508
-1.05378e-06
0.000116911
1.70476e-06
-0.000117432
-6.64875e-07
3.93248e-09
0.000116831
1.31714e-06
5.67638e-08
-1.01439e-06
1.62277e-06
-6.25431e-07
4.38538e-09
1.23762e-06
7.8041e-08
-0.000114345
0.000113762
-0.000114265
4.08124e-09
0.000113674
7.96672e-08
4.48586e-09
-1.24815e-11
-0.000117366
-6.02089e-07
0.000116757
1.21463e-06
-0.000117366
-6.02106e-07
-3.97124e-09
0.000116757
1.21467e-06
-8.71223e-12
-5.62569e-07
1.13479e-06
-5.62581e-07
-4.46402e-09
1.13485e-06
-4.02737e-11
-0.000114209
0.000113611
-0.000114209
-4.18292e-09
0.000113611
-6.88043e-11
-4.6568e-09
-5.4963e-08
-0.000117432
-6.64912e-07
0.000116831
1.3172e-06
-0.000117508
-1.05433e-06
-1.08618e-07
0.000116911
1.70504e-06
-5.69094e-08
-6.25461e-07
1.23769e-06
-1.01422e-06
-1.1091e-07
1.62297e-06
-7.82133e-08
-0.000114265
0.000113674
-0.000114346
-5.48395e-07
0.000113762
-7.999e-08
-5.52608e-07
4.2658e-07
-0.000117427
1.65857e-06
0.000116822
-1.58872e-06
-0.000117067
-2.31356e-06
0.000116446
3.36118e-06
4.24372e-07
1.71146e-06
-1.68084e-06
-2.28361e-06
3.29116e-06
1.71048e-06
-0.000113916
0.000113315
-0.000113069
0.000112466
1.71293e-06
-4.22538e-07
-0.000115795
-2.34858e-06
0.000115103
3.46395e-06
-0.000116188
1.53555e-06
1.03285e-07
0.000115503
-1.37635e-06
-4.21027e-07
-2.30967e-06
3.37987e-06
1.58416e-06
1.05596e-07
-1.47147e-06
-1.67515e-06
-0.000111835
0.000111162
-0.000112687
5.30423e-07
0.000112017
-1.67669e-06
5.34041e-07
4.9563e-08
-0.000116282
-1.11677e-06
0.000115608
1.84505e-06
-0.000116198
-7.35246e-07
2.81674e-09
0.000115521
1.45931e-06
5.17428e-08
-1.07367e-06
1.75594e-06
-6.92601e-07
3.3511e-09
1.37342e-06
7.32029e-08
-0.000113147
0.000112488
-0.000113052
3.08392e-09
0.000112387
7.49841e-08
3.59241e-09
-3.22101e-11
-0.000116118
-6.73832e-07
0.000115436
1.35966e-06
-0.000116119
-6.7385e-07
-2.85913e-09
0.000115435
1.35969e-06
-2.67706e-11
-6.31132e-07
1.27334e-06
-6.31147e-07
-3.39781e-09
1.27337e-06
-3.90678e-12
-0.000112983
0.000112313
-0.000112983
-3.08251e-09
0.000112313
-9.06245e-12
-3.59423e-09
-4.93899e-08
-0.000116198
-7.35358e-07
0.000115521
1.45936e-06
-0.000116282
-1.11703e-06
-1.03376e-07
0.000115608
1.84525e-06
-5.16039e-08
-6.92703e-07
1.37348e-06
-1.07438e-06
-1.04766e-07
1.75648e-06
-7.32562e-08
-0.000113052
0.000112387
-0.000113147
-5.30716e-07
0.000112487
-7.49632e-08
-5.3401e-07
4.22775e-07
-0.000116185
1.536e-06
0.000115502
-1.3792e-06
-0.000115796
-2.34904e-06
0.000115102
3.46531e-06
4.20479e-07
1.58035e-06
-1.46818e-06
-2.30337e-06
3.37433e-06
1.67504e-06
-0.000112686
0.000112016
-0.000111839
0.000111165
1.676e-06
-4.16395e-07
-0.000114377
-2.38458e-06
0.000113608
3.57055e-06
-0.000114789
1.41451e-06
9.74086e-08
0.000114025
-1.16474e-06
-4.14743e-07
-2.3387e-06
3.47868e-06
1.46018e-06
9.8897e-08
-1.25992e-06
-1.6398e-06
-0.000110463
0.000109718
-0.000111321
5.13641e-07
0.000110582
-1.63975e-06
5.16672e-07
4.4381e-08
-0.0001149
-1.18497e-06
0.000114144
1.99383e-06
-0.000114811
-8.1016e-07
1.58977e-09
0.000114053
1.61087e-06
4.63356e-08
-1.13889e-06
1.89912e-06
-7.64475e-07
2.19354e-09
1.51863e-06
6.79806e-08
-0.000111795
0.000111056
-0.00011169
1.80659e-09
0.000110946
6.98613e-08
2.42826e-09
-1.95027e-11
-0.000114721
-7.50144e-07
0.000113958
1.51402e-06
-0.000114721
-7.5016e-07
-1.66116e-09
0.000113958
1.51405e-06
-1.35376e-11
-7.04334e-07
1.42137e-06
-7.0435e-07
-2.25331e-09
1.42141e-06
-4.18201e-11
-0.000111611
0.000110862
-0.000111611
-1.92384e-09
0.000110862
-2.56533e-11
-2.5063e-09
-4.46107e-08
-0.000114811
-8.10162e-07
0.000114053
1.61092e-06
-0.000114901
-1.1849e-06
-9.73558e-08
0.000114145
1.9934e-06
-4.66456e-08
-7.64494e-07
1.51872e-06
-1.13885e-06
-9.94154e-08
1.89892e-06
-6.81694e-08
-0.00011169
0.000110946
-0.000111795
-5.13928e-07
0.000111056
-7.00586e-08
-5.17083e-07
4.16776e-07
-0.000114787
1.41425e-06
0.000114024
-1.16537e-06
-0.00011438
-2.38516e-06
0.00011361
3.57143e-06
4.15925e-07
1.46097e-06
-1.26173e-06
-2.34385e-06
3.48233e-06
1.63965e-06
-0.000111319
0.00011058
-0.000110462
0.000109716
1.64092e-06
-4.12459e-07
-0.000112805
-2.43265e-06
0.000111955
3.69561e-06
-0.000113228
1.28864e-06
9.31556e-08
0.000112381
-9.47158e-07
-4.10985e-07
-2.38329e-06
3.59672e-06
1.33943e-06
9.4694e-08
-1.04822e-06
-1.60675e-06
-0.000108943
0.000108118
-0.000109812
4.99252e-07
0.000108994
-1.60855e-06
5.01358e-07
3.97429e-08
-0.000113355
-1.25869e-06
0.000112515
2.15209e-06
-0.000113261
-8.89926e-07
3.61643e-10
0.000112418
1.77238e-06
4.1704e-08
-1.20944e-06
2.05191e-06
-8.41303e-07
9.65649e-10
1.67424e-06
6.32826e-08
-0.000110283
0.00010946
-0.000110169
6.06022e-10
0.000109341
6.49316e-08
1.17452e-09
1.2038e-11
-0.000113162
-8.3131e-07
0.000112316
1.67826e-06
-0.000113162
-8.31328e-07
-3.15918e-10
0.000112316
1.67828e-06
-8.1974e-12
-7.82574e-07
1.57968e-06
-7.82594e-07
-9.71959e-10
1.57969e-06
-2.75128e-11
-0.000110081
0.00010925
-0.000110081
-6.75656e-10
0.00010925
-4.43768e-11
-1.28358e-09
-3.96838e-08
-0.000113261
-8.89919e-07
0.000112418
1.77241e-06
-0.000113355
-1.25856e-06
-9.27332e-08
0.000112515
2.15164e-06
-4.15821e-08
-8.41323e-07
1.67423e-06
-1.20934e-06
-9.38502e-08
2.05131e-06
-6.33053e-08
-0.000110169
0.000109341
-0.000110283
-4.98855e-07
0.00010946
-6.50415e-08
-5.0121e-07
4.11815e-07
-0.00011323
1.28589e-06
0.000112385
-9.45481e-07
-0.000112806
-2.42899e-06
0.000111955
3.69202e-06
4.09806e-07
1.3365e-06
-1.04599e-06
-2.37847e-06
3.5927e-06
1.60601e-06
-0.000109808
0.000108989
-0.000108944
0.000108121
1.60659e-06
-4.0618e-07
-0.000111068
-2.48055e-06
0.000110129
3.82574e-06
-0.000111504
1.1577e-06
8.88334e-08
0.000110575
-7.23248e-07
-4.05057e-07
-2.42796e-06
3.71949e-06
1.2097e-06
8.99104e-08
-8.28006e-07
-1.57314e-06
-0.000107264
0.000106356
-0.000108143
4.85169e-07
0.000107242
-1.57392e-06
4.87413e-07
3.52258e-08
-0.00011164
-1.3367e-06
0.000110712
2.31846e-06
-0.000111539
-9.73867e-07
-9.14896e-10
0.000110607
1.94253e-06
3.70419e-08
-1.28439e-06
2.21188e-06
-9.22216e-07
-2.67274e-10
1.83805e-06
5.86832e-08
-0.000108603
0.000107693
-0.00010848
-6.06973e-10
0.000107565
6.04176e-08
2.1413e-11
-1.47279e-11
-0.000111434
-9.16661e-07
0.000110499
1.85102e-06
-0.000111434
-9.16662e-07
8.36239e-10
0.000110499
1.85105e-06
7.67324e-12
-8.64862e-07
1.74619e-06
-8.6487e-07
2.53837e-10
1.74622e-06
-3.22418e-11
-0.000108386
0.000107468
-0.000108386
5.3821e-10
0.000107468
-2.18777e-11
-7.3785e-11
-3.55711e-08
-0.000111539
-9.73817e-07
0.000110607
1.94269e-06
-0.000111641
-1.33658e-06
-8.94053e-08
0.000110713
2.31863e-06
-3.7268e-08
-9.2218e-07
1.83819e-06
-1.28428e-06
-9.03923e-08
2.2119e-06
-5.86964e-08
-0.00010848
0.000107565
-0.000108602
-4.85114e-07
0.000107692
-6.04086e-08
-4.87126e-07
4.07102e-07
-0.000111507
1.15843e-06
0.000110574
-7.221e-07
-0.00011107
-2.4795e-06
0.000110132
3.82523e-06
4.05649e-07
1.21107e-06
-8.28457e-07
-2.42942e-06
3.71937e-06
1.57303e-06
-0.000108139
0.000107239
-0.000107266
0.00010636
1.5742e-06
-4.02803e-07
-0.000109158
-2.54046e-06
0.000108133
3.96892e-06
-0.000109611
1.02643e-06
8.67734e-08
0.000108591
-4.95262e-07
-4.00246e-07
-2.48451e-06
3.85592e-06
1.08054e-06
8.65473e-08
-6.03743e-07
-1.54056e-06
-0.000105413
0.000104413
-0.000106308
4.71584e-07
0.000105322
-1.54144e-06
4.73499e-07
3.14172e-08
-0.000109748
-1.4187e-06
0.000108729
2.4935e-06
-0.000109638
-1.06144e-06
-2.1518e-09
0.000108612
2.12055e-06
3.28921e-08
-1.36381e-06
2.3812e-06
-1.0072e-06
-1.54465e-09
2.01057e-06
5.42041e-08
-0.000106747
0.000105745
-0.000106615