/*--------------------------------*- C++ -*----------------------------------*\
  =========                 |
  \\      /  F ield         | OpenFOAM: The Open Source CFD Toolbox
   \\    /   O peration     | Website:  https://openfoam.org
    \\  /    A nd           | Version:  9
     \\/     M anipulation  |
\*---------------------------------------------------------------------------*/
FoamFile
{
    format      ascii;
    class       volVectorField;
    location    "0.4";
    object      U;
}
// * * * * * * * * * * * * * * * * * * * * * * * * * * * * * * * * * * * * * //

dimensions      [0 1 -1 0 0 0 0];

internalField   nonuniform List<vector> 
36360
(
(0.00259091 -0.264895 -0.99178)
(-0.00545115 -0.204486 0.00034832)
(-0.00184207 -0.26558 -1.00264)
(-0.00381785 -0.194417 8.8633e-05)
(-0.00100643 -0.249385 -0.994331)
(0.0141727 -0.216357 5.45623e-05)
(-0.0025151 -0.24824 -1.00363)
(0.0197737 -0.224727 8.01986e-05)
(-0.00223099 -0.232155 -0.000224066)
(-0.00215972 -0.235074 -2.39998e-06)
(-0.00282292 -0.230672 -8.45289e-05)
(-0.002403 -0.232703 4.28376e-06)
(0.0056314 -0.234188 -4.67234e-05)
(0.00468478 -0.232964 -5.2808e-06)
(0.00851349 -0.237153 -9.21136e-05)
(0.00791737 -0.235553 -3.5214e-06)
(-0.00213808 -0.234733 -5.33818e-07)
(-0.00213807 -0.234733 5.21182e-07)
(-0.00237371 -0.232391 -5.3486e-08)
(-0.00237371 -0.232391 4.90404e-08)
(0.00464703 -0.232402 -1.31366e-06)
(0.00464703 -0.232402 1.30142e-06)
(0.00788331 -0.235005 -4.73933e-07)
(0.00788332 -0.235005 4.69721e-07)
(-0.00215971 -0.235074 2.39688e-06)
(-0.00223126 -0.232155 0.000224076)
(-0.00240301 -0.232703 -4.28521e-06)
(-0.00282321 -0.230672 8.4522e-05)
(0.00468479 -0.232964 5.27698e-06)
(0.00563138 -0.234188 4.67526e-05)
(0.00791737 -0.235553 3.52076e-06)
(0.00851349 -0.237153 9.21093e-05)
(-0.00545267 -0.204486 -0.0003483)
(0.00259051 -0.264892 0.991781)
(-0.00382066 -0.194417 -8.86395e-05)
(-0.00184546 -0.26558 1.00264)
(0.0141727 -0.21636 -5.45624e-05)
(-0.00100532 -0.249385 0.994331)
(0.0197732 -0.224727 -8.02102e-05)
(-0.00251425 -0.248239 1.00363)
(0.00619937 -0.252708 -0.986019)
(-0.00865826 -0.221834 0.000573566)
(0.00513914 -0.257707 -0.989555)
(-0.00657491 -0.215886 0.000539042)
(-0.000828869 -0.24693 -0.995663)
(0.0046689 -0.208632 -7.39408e-05)
(-0.000909351 -0.248727 -0.992603)
(0.00997864 -0.20878 -4.43028e-06)
(0.000283059 -0.233258 -0.000220783)
(-0.000200892 -0.237187 -3.09353e-05)
(-0.000401979 -0.233458 -0.000266246)
(-0.000795581 -0.23722 -1.76333e-05)
(0.00309348 -0.228852 0.000121374)
(0.00071484 -0.230097 -1.68201e-05)
(0.00396677 -0.230248 2.78468e-05)
(0.00194065 -0.230257 -1.15015e-05)
(-0.000264998 -0.237061 -4.09955e-06)
(-0.000264993 -0.237061 4.08335e-06)
(-0.000830968 -0.236988 -1.98535e-06)
(-0.00083096 -0.236988 1.96666e-06)
(0.000579137 -0.229707 -4.55918e-06)
(0.000579144 -0.229707 4.54914e-06)
(0.00184218 -0.22978 -2.7836e-06)
(0.00184218 -0.22978 2.76833e-06)
(-0.000200961 -0.237187 3.09155e-05)
(0.000282966 -0.233258 0.000220842)
(-0.000795564 -0.237221 1.76216e-05)
(-0.000401848 -0.233459 0.000266271)
(0.000714823 -0.230097 1.68041e-05)
(0.00309273 -0.228853 -0.000121338)
(0.00194064 -0.230258 1.14915e-05)
(0.00396661 -0.230249 -2.77988e-05)
(-0.00865127 -0.221833 -0.00057365)
(0.00619159 -0.252708 0.98602)
(-0.00657423 -0.215889 -0.000539031)
(0.00514885 -0.257712 0.989556)
(0.00466336 -0.208632 7.39745e-05)
(-0.00081317 -0.246912 0.995663)
(0.00997901 -0.208783 4.4417e-06)
(-0.000905143 -0.248731 0.992603)
(0.0080766 -0.246603 -0.983421)
(-0.0113056 -0.228567 0.000419104)
(0.0072338 -0.2494 -0.984135)
(-0.0103715 -0.225862 0.000511022)
(0.00118629 -0.243482 -0.994981)
(-0.000749789 -0.213654 -0.00027613)
(0.000115203 -0.245412 -0.995178)
(0.000978736 -0.210745 -0.000171533)
(0.000503161 -0.232798 -5.94139e-05)
(0.000193028 -0.236399 -3.38134e-05)
(0.000461815 -0.232961 -0.000142002)
(5.37886e-05 -0.236736 -3.66047e-05)
(0.00222528 -0.227375 0.000321632)
(5.97865e-05 -0.230079 -1.20444e-05)
(0.00247897 -0.228025 0.000225283)
(0.000175974 -0.230179 -1.70263e-05)
(5.24473e-05 -0.23651 -8.10905e-06)
(5.24496e-05 -0.23651 8.11069e-06)
(-5.28586e-05 -0.23672 -6.37753e-06)
(-5.28473e-05 -0.23672 6.36917e-06)
(-9.54386e-05 -0.229961 -7.54228e-06)
(-9.54455e-05 -0.229962 7.54252e-06)
(2.53287e-05 -0.229949 -6.15399e-06)
(2.53413e-05 -0.229949 6.15107e-06)
(0.000192899 -0.236399 3.38149e-05)
(0.000500847 -0.232798 5.94473e-05)
(5.37077e-05 -0.236737 3.65979e-05)
(0.000461857 -0.232961 0.000142091)
(5.97747e-05 -0.230079 1.20291e-05)
(0.00222552 -0.227375 -0.000321545)
(0.000175977 -0.230179 1.70082e-05)
(0.00247883 -0.228025 -0.000225239)
(-0.0113101 -0.228567 -0.00041916)
(0.00809094 -0.246604 0.983419)
(-0.0103606 -0.225861 -0.000511094)
(0.00721422 -0.249401 0.984134)
(-0.000747491 -0.213656 0.000276041)
(0.00118475 -0.243517 0.994981)
(0.00097297 -0.210748 0.000171574)
(0.000106204 -0.245412 0.995178)
(0.00896573 -0.242602 -0.98288)
(-0.0117951 -0.231778 0.000241192)
(0.0086628 -0.24437 -0.983001)
(-0.0117079 -0.230435 0.00032623)
(0.00228607 -0.238824 -0.998763)
(-0.0013633 -0.219244 -0.000459872)
(0.00193534 -0.241214 -0.99881)
(-0.00130314 -0.216627 -0.000372977)
(0.000470596 -0.232775 6.9268e-05)
(0.000373497 -0.235775 -1.4541e-05)
(0.000496381 -0.232749 1.27575e-05)
(0.000296468 -0.236082 -2.53857e-05)
(0.00213322 -0.226704 0.000460073)
(0.000181004 -0.229686 6.56046e-06)
(0.00215771 -0.22694 0.000400398)
(0.000101173 -0.229928 -3.52557e-06)
(0.000174522 -0.236113 -9.4872e-06)
(0.000174346 -0.236113 9.45662e-06)
(0.000120544 -0.236327 -9.00959e-06)
(0.000120531 -0.236327 9.01177e-06)
(4.43923e-06 -0.229827 -8.91625e-06)
(4.40677e-06 -0.229827 8.88247e-06)
(-7.33553e-05 -0.22993 -8.41235e-06)
(-7.33679e-05 -0.22993 8.40714e-06)
(0.000373493 -0.235776 1.46172e-05)
(0.000473207 -0.232775 -6.9394e-05)
(0.000296463 -0.236082 2.54044e-05)
(0.000496146 -0.232749 -1.28127e-05)
(0.000180926 -0.229687 -6.53194e-06)
(0.00213224 -0.226706 -0.0004601)
(0.000101105 -0.229928 3.52861e-06)
(0.00215689 -0.226942 -0.000400364)
(-0.0117923 -0.231775 -0.000241215)
(0.00895042 -0.242604 0.982667)
(-0.0117147 -0.230434 -0.000326256)
(0.00867186 -0.244364 0.983)
(-0.00136826 -0.219254 0.000459876)
(0.0022746 -0.238843 0.998764)
(-0.00130529 -0.216625 0.000372911)
(0.00195219 -0.241148 0.99881)
(0.00906163 -0.239939 -0.979621)
(-0.0115975 -0.233352 0.000103576)
(0.0090626 -0.241173 -0.982672)
(-0.0117317 -0.23274 0.00016705)
(0.00230898 -0.234808 -0.99781)
(-0.00103493 -0.222959 -0.000597807)
(0.0023595 -0.236697 -0.998703)
(-0.00122168 -0.221367 -0.0005343)
(0.000442242 -0.232998 0.000139036)
(0.000463934 -0.235244 8.92807e-06)
(0.000450083 -0.232866 0.000109754)
(0.000424553 -0.235503 -2.56535e-06)
(0.00203954 -0.226594 0.000533133)
(0.000246102 -0.229168 2.80607e-05)
(0.00207796 -0.226603 0.000503088)
(0.000223053 -0.229435 1.74144e-05)
(0.00025803 -0.235679 -8.95813e-06)
(0.000257968 -0.235679 8.78403e-06)
(0.000218494 -0.235898 -9.44541e-06)
(0.000218615 -0.235898 9.39687e-06)
(8.73407e-05 -0.229468 -8.22572e-06)
(8.73195e-05 -0.229468 8.04135e-06)
(6.05059e-05 -0.229664 -8.82003e-06)
(6.05029e-05 -0.229664 8.71678e-06)
(0.000463607 -0.235245 -9.01941e-06)
(0.000441923 -0.232999 -0.000138952)
(0.000424435 -0.235503 2.41356e-06)
(0.000450245 -0.232866 -0.000109763)
(0.000246048 -0.229168 -2.81506e-05)
(0.00204034 -0.226595 -0.000533061)
(0.000222994 -0.229436 -1.74274e-05)
(0.00207801 -0.226604 -0.00050302)
(-0.0116013 -0.233344 -0.000103623)
(0.00906509 -0.239945 0.982641)
(-0.0117329 -0.232733 -0.000166842)
(0.00906029 -0.241172 0.982457)
(-0.00101789 -0.222961 0.000596909)
(0.00229606 -0.234799 0.997806)
(-0.00121594 -0.221375 0.000533995)
(0.00235184 -0.236697 0.998704)
(0.00897729 -0.237979 -0.978968)
(-0.011274 -0.233963 5.80761e-06)
(0.00901689 -0.238901 -0.979342)
(-0.0114353 -0.233744 5.03282e-05)
(0.00213693 -0.231839 -0.998614)
(-0.000742225 -0.224911 -0.000692757)
(0.00221408 -0.233187 -0.997744)
(-0.000864599 -0.224109 -0.000649675)
(0.000470211 -0.233182 0.00017227)
(0.000529153 -0.234723 2.85061e-05)
(0.000451618 -0.233112 0.000159071)
(0.000497954 -0.234986 1.93851e-05)
(0.00201085 -0.226654 0.000565962)
(0.000276451 -0.228614 4.6579e-05)
(0.00201973 -0.226624 0.000553152)
(0.000262565 -0.228893 3.78757e-05)
(0.000342932 -0.235179 -6.75724e-06)
(0.000342875 -0.235179 6.62217e-06)
(0.000299007 -0.235441 -8.0106e-06)
(0.000298938 -0.235441 7.79031e-06)
(0.000122986 -0.228984 -6.07753e-06)
(0.000122965 -0.228984 5.90014e-06)
(0.000106244 -0.22924 -7.267e-06)
(0.000106219 -0.22924 7.05372e-06)
(0.000528855 -0.234723 -2.86755e-05)
(0.000468121 -0.233182 -0.000172565)
(0.000497553 -0.234986 -1.95877e-05)
(0.000450329 -0.233113 -0.000159278)
(0.000276451 -0.228614 -4.67028e-05)
(0.00201278 -0.226655 -0.000565847)
(0.000262499 -0.228893 -3.80245e-05)
(0.00202015 -0.226625 -0.000553087)
(-0.0112919 -0.233964 -5.32798e-06)
(0.00900207 -0.237983 0.982431)
(-0.011444 -0.233742 -5.00532e-05)
(0.00902599 -0.238901 0.982466)
(-0.000704921 -0.224907 0.000692205)
(0.00211225 -0.231849 0.998617)
(-0.000842628 -0.224113 0.000648975)
(0.0021941 -0.233197 0.997741)
(0.00894248 -0.236391 -0.982192)
(-0.0109778 -0.233983 -6.35184e-05)
(0.00895268 -0.23716 -0.97875)
(-0.0111205 -0.234033 -3.19576e-05)
(0.00201786 -0.229598 -0.99515)
(-0.000555386 -0.225744 -0.000761828)
(0.00207702 -0.230649 -0.998566)
(-0.000643497 -0.225437 -0.000729416)
(0.000527506 -0.233169 0.000184351)
(0.000598579 -0.234165 4.26656e-05)
(0.000495143 -0.233202 0.000180057)
(0.000562065 -0.234451 3.62848e-05)
(0.00201955 -0.226634 0.000574818)
(0.000304331 -0.22803 6.02871e-05)
(0.00201184 -0.226662 0.000571183)
(0.000290104 -0.228327 5.3955e-05)
(0.000432692 -0.234579 -4.02104e-06)
(0.000432675 -0.234579 4.08333e-06)
(0.000387313 -0.234892 -5.39441e-06)
(0.000387284 -0.234892 5.37271e-06)
(0.00015518 -0.228394 -3.41905e-06)
(0.000155167 -0.228394 3.42601e-06)
(0.000139013 -0.228702 -4.77034e-06)
(0.000139003 -0.228702 4.67611e-06)
(0.000598555 -0.234165 -4.25124e-05)
(0.000526576 -0.233169 -0.000183861)
(0.000562087 -0.234451 -3.62292e-05)
(0.000495535 -0.233203 -0.000179812)
(0.000304198 -0.22803 -6.01813e-05)
(0.0020177 -0.226634 -0.000574541)
(0.000290063 -0.228328 -5.39837e-05)
(0.00201241 -0.226662 -0.000571084)
(-0.011001 -0.233988 6.33951e-05)
(0.00896642 -0.236392 0.978196)
(-0.0111377 -0.23404 3.22088e-05)
(0.00897044 -0.23716 0.978244)
(-0.000554554 -0.225746 0.000760229)
(0.00201378 -0.229626 0.998548)
(-0.0006256 -0.225428 0.00072914)
(0.00206045 -0.230631 0.998567)
(0.00897541 -0.234996 -0.981952)
(-0.0107383 -0.233633 -0.000113381)
(0.00894634 -0.235699 -0.981996)
(-0.0108498 -0.233857 -9.04075e-05)
(0.00193877 -0.227821 -0.994804)
(-0.000440215 -0.22588 -0.000809518)
(0.0019715 -0.228684 -0.995033)
(-0.000488001 -0.225881 -0.000788914)
(0.000613581 -0.232921 0.000186431)
(0.000683451 -0.23353 5.18489e-05)
(0.000570039 -0.233076 0.000186494)
(0.000639295 -0.23386 4.77672e-05)
(0.00204548 -0.226439 0.000577907)
(0.000335343 -0.227381 6.96764e-05)
(0.00203121 -0.226561 0.000578325)
(0.000319362 -0.227716 6.55555e-05)
(0.000530221 -0.233872 -1.48028e-06)
(0.000530186 -0.233872 1.44787e-06)
(0.000479993 -0.23424 -2.71169e-06)
(0.000479979 -0.23424 2.74665e-06)
(0.000189882 -0.227696 -9.32852e-07)
(0.000189862 -0.227696 9.7853e-07)
(0.000172038 -0.228059 -2.11994e-06)
(0.000172024 -0.228059 2.18326e-06)
(0.000683232 -0.23353 -5.19529e-05)
(0.000613821 -0.232921 -0.000186819)
(0.000639145 -0.23386 -4.77615e-05)
(0.00056781 -0.233075 -0.000186483)
(0.000335326 -0.227381 -6.95177e-05)
(0.00204588 -0.226441 -0.000577347)
(0.000319274 -0.227716 -6.53871e-05)
(0.00203025 -0.226563 -0.000577924)
(-0.0107271 -0.233631 0.000113565)
(0.00896035 -0.234994 0.973856)
(-0.0108662 -0.233864 9.0087e-05)
(0.00896002 -0.235696 0.977944)
(-0.000439506 -0.225893 0.000807764)
(0.00193316 -0.227817 0.998482)
(-0.000490346 -0.225889 0.000786691)
(0.00196592 -0.228643 0.998498)
(0.009013 -0.233683 -0.981699)
(-0.010469 -0.232984 -0.000149619)
(0.00899482 -0.234363 -0.981742)
(-0.0106099 -0.233353 -0.000132943)
(0.00191147 -0.22624 -0.99458)
(-0.000374796 -0.225573 -0.000845293)
(0.00192293 -0.22702 -0.99468)
(-0.000408479 -0.225789 -0.000827356)
(0.000712715 -0.232443 0.000182194)
(0.000782945 -0.232786 5.71103e-05)
(0.00066027 -0.232713 0.000184792)
(0.000731223 -0.233174 5.49005e-05)
(0.00208537 -0.22603 0.00057177)
(0.000371023 -0.226631 7.50751e-05)
(0.00206379 -0.226263 0.000575293)
(0.00035253 -0.22702 7.27195e-05)
(0.000640125 -0.233045 6.74889e-07)
(0.000640089 -0.233045 -6.55147e-07)
(0.000583577 -0.233474 -3.55957e-07)
(0.000583532 -0.233474 3.30478e-07)
(0.000228846 -0.226881 1.12898e-06)
(0.000228837 -0.226881 -1.13032e-06)
(0.00020881 -0.227304 1.22489e-07)
(0.000208797 -0.227304 -1.36311e-07)
(0.000783047 -0.232786 -5.71284e-05)
(0.000715135 -0.232443 -0.000182794)
(0.000731135 -0.233174 -5.49412e-05)
(0.000662122 -0.232713 -0.000185174)
(0.000371094 -0.226631 -7.51674e-05)
(0.00208617 -0.22603 -0.000572336)
(0.00035257 -0.22702 -7.27144e-05)
(0.00206478 -0.226264 -0.000575299)
(-0.0104954 -0.232991 0.000150034)
(0.00903764 -0.233678 0.977571)
(-0.0106099 -0.233348 0.000132846)
(0.00898809 -0.234368 0.977586)
(-0.0003491 -0.225572 0.000845003)
(0.00188912 -0.22626 0.998419)
(-0.000389832 -0.225795 0.00082628)
(0.00190161 -0.227011 0.998433)
(0.00911428 -0.232361 -0.981446)
(-0.010244 -0.232131 -0.000177269)
(0.00905854 -0.233059 -0.981488)
(-0.0103596 -0.232588 -0.000164144)
(0.00188061 -0.22478 -0.998357)
(-0.00030897 -0.224923 -0.000870312)
(0.00188945 -0.225525 -0.994455)
(-0.000336688 -0.225289 -0.000860054)
(0.000826833 -0.231737 0.000175257)
(0.000899249 -0.231904 5.96468e-05)
(0.000768126 -0.232123 0.000178899)
(0.000838961 -0.232364 5.86629e-05)
(0.00213094 -0.225396 0.000562975)
(0.000412099 -0.225753 7.77209e-05)
(0.00210794 -0.225742 0.000567912)
(0.000390859 -0.22621 7.68039e-05)
(0.000763654 -0.232081 2.29961e-06)
(0.000763632 -0.232081 -2.44687e-06)
(0.000700091 -0.232581 1.5672e-06)
(0.00070006 -0.232581 -1.61395e-06)
(0.000272532 -0.225932 2.69871e-06)
(0.000272524 -0.225932 -2.73658e-06)
(0.000250061 -0.226424 2.01979e-06)
(0.000250055 -0.226424 -1.98774e-06)
(0.000899049 -0.231904 -5.98982e-05)
(0.000826079 -0.23174 -0.00017622)
(0.00083885 -0.232364 -5.88424e-05)
(0.000768648 -0.232123 -0.000180047)
(0.000412209 -0.225753 -7.77672e-05)
(0.0021328 -0.225396 -0.000563049)
(0.000390976 -0.22621 -7.68143e-05)
(0.00210977 -0.225742 -0.000568129)
(-0.0102521 -0.232128 0.000177299)
(0.00912535 -0.232365 0.981375)
(-0.0103791 -0.232594 0.000164911)
(0.00907829 -0.23306 0.977277)
(-0.000290669 -0.224909 0.000870127)
(0.00187327 -0.2248 0.998358)
(-0.000311659 -0.22528 0.000859206)
(0.0018722 -0.225523 0.998371)
(0.00926909 -0.230978 -0.977228)
(-0.0100315 -0.231054 -0.000199045)
(0.00918062 -0.231713 -0.981232)
(-0.0101366 -0.231633 -0.000188643)
(0.00187156 -0.223325 -0.998299)
(-0.000223671 -0.223999 -0.000890242)
(0.00187234 -0.224077 -0.998309)
(-0.000266633 -0.224497 -0.000880622)
(0.000957974 -0.23081 0.000168284)
(0.00103353 -0.230862 6.04317e-05)
(0.00089001 -0.231302 0.000171861)
(0.00096411 -0.231404 6.02389e-05)
(0.00218518 -0.224535 0.000553147)
(0.000459713 -0.224721 7.82078e-05)
(0.00215803 -0.224994 0.000558105)
(0.000435116 -0.225257 7.81608e-05)
(0.00090289 -0.230965 3.4557e-06)
(0.000902947 -0.230965 -3.70074e-06)
(0.000831192 -0.231544 2.92762e-06)
(0.000831209 -0.231544 -3.13091e-06)
(0.000321766 -0.224833 3.70769e-06)
(0.000321763 -0.224833 -3.88842e-06)
(0.000296417 -0.225403 3.25526e-06)
(0.00029641 -0.225403 -3.3679e-06)
(0.0010336 -0.230862 -6.07646e-05)
(0.000958328 -0.230811 -0.000168713)
(0.000964041 -0.231404 -6.05233e-05)
(0.000888765 -0.231305 -0.00017229)
(0.000459537 -0.224721 -7.83158e-05)
(0.00218294 -0.224536 -0.000552698)
(0.000435065 -0.225258 -7.82176e-05)
(0.00215749 -0.224994 -0.000557679)
(-0.0100271 -0.231056 0.000199378)
(0.00926088 -0.230982 0.972763)
(-0.0101399 -0.23163 0.000189059)
(0.00918449 -0.231717 0.976936)
(-0.000233767 -0.223992 0.000890103)
(0.00187397 -0.223332 0.998298)
(-0.000266214 -0.224483 0.000880448)
(0.00187391 -0.224078 0.998309)
(0.0094287 -0.229489 -0.976628)
(-0.00979144 -0.229792 -0.000215381)
(0.00935149 -0.230294 -0.976935)
(-0.00992488 -0.230458 -0.000207654)
(0.00187987 -0.221782 -0.998242)
(-0.000165854 -0.222846 -0.000904647)
(0.00186833 -0.222596 -0.998252)
(-0.0001878 -0.223453 -0.000897918)
(0.00110736 -0.229665 0.000160225)
(0.00118662 -0.22964 5.94421e-05)
(0.00102888 -0.230268 0.000164157)
(0.0011076 -0.230275 6.01368e-05)
(0.00223844 -0.223452 0.000542733)
(0.000513939 -0.223515 7.7269e-05)
(0.00221123 -0.224022 0.000548007)
(0.000485912 -0.224141 7.79158e-05)
(0.00105985 -0.229678 4.01476e-06)
(0.00105992 -0.229678 -4.46152e-06)
(0.000979094 -0.230344 3.82749e-06)
(0.000979175 -0.230344 -4.11207e-06)
(0.000377254 -0.223567 4.27474e-06)
(0.000377255 -0.223567 -4.56259e-06)
(0.000348704 -0.224222 4.05187e-06)
(0.000348717 -0.224222 -4.29036e-06)
(0.00118652 -0.22964 -5.97913e-05)
(0.00110637 -0.229665 -0.000160063)
(0.00110755 -0.230275 -6.04413e-05)
(0.00102902 -0.230269 -0.000164601)
(0.000513844 -0.223515 -7.73819e-05)
(0.00223907 -0.223451 -0.000542212)
(0.000485816 -0.224141 -7.80423e-05)
(0.00221033 -0.224022 -0.00054758)
(-0.00978549 -0.229779 0.000214925)
(0.00941971 -0.229499 0.97987)
(-0.009914 -0.230452 0.000207537)
(0.00933534 -0.230297 0.976645)
(-0.00015433 -0.222844 0.000902695)
(0.00187073 -0.221792 0.998244)
(-0.00019103 -0.223456 0.000897028)
(0.00186466 -0.222596 0.998252)
(0.00958918 -0.22787 -0.977493)
(-0.00951975 -0.228316 -0.000229071)
(0.00949104 -0.228736 -0.973171)
(-0.00964856 -0.229091 -0.000222866)
(0.00189162 -0.22017 -0.994166)
(-7.8617e-05 -0.221463 -0.000916829)
(0.00188161 -0.221014 -0.998193)
(-0.000128126 -0.222192 -0.000910646)
(0.00127633 -0.228295 0.000153235)
(0.0013596 -0.228218 5.78546e-05)
(0.00119024 -0.229012 0.000156708)
(0.00127059 -0.228956 5.86602e-05)
(0.00230316 -0.222138 0.000532458)
(0.000575776 -0.222114 7.53834e-05)
(0.00226968 -0.222825 0.000537366)
(0.000543934 -0.222841 7.63602e-05)
(0.0012359 -0.2282 4.37402e-06)
(0.00123595 -0.2282 -4.66463e-06)
(0.00114539 -0.228964 4.17623e-06)
(0.00114546 -0.228964 -4.67479e-06)
(0.000439491 -0.222113 4.55914e-06)
(0.000439495 -0.222113 -4.69597e-06)
(0.000407498 -0.222864 4.43391e-06)
(0.000407495 -0.222864 -4.6901e-06)
(0.00135963 -0.228218 -5.79312e-05)
(0.00127626 -0.228294 -0.000152456)
(0.00127058 -0.228956 -5.89083e-05)
(0.00118942 -0.229011 -0.000155574)
(0.000575698 -0.222114 -7.5373e-05)
(0.00230315 -0.222135 -0.000532298)
(0.000543761 -0.22284 -7.64449e-05)
(0.00227023 -0.222824 -0.000537033)
(-0.00953742 -0.22834 0.000228838)
(0.00960741 -0.227865 0.976842)
(-0.00965621 -0.229091 0.000221873)
(0.00949545 -0.228731 0.979627)
(-6.79186e-05 -0.22146 0.000914438)
(0.00188433 -0.220189 0.99819)
(-0.000103846 -0.22219 0.000908247)
(0.00185853 -0.221018 0.998197)
(0.00978157 -0.226072 -0.980388)
(-0.00924304 -0.22664 -0.000239339)
(0.00966822 -0.227031 -0.980433)
(-0.00937675 -0.227516 -0.000234486)
(0.00193234 -0.218424 -0.998136)
(-6.3373e-06 -0.219846 -0.000922169)
(0.00189867 -0.219299 -0.99404)
(-3.1656e-05 -0.220683 -0.000920113)
(0.00146969 -0.226689 0.000146062)
(0.00155419 -0.226577 5.54824e-05)
(0.00137031 -0.227526 0.000149671)
(0.00145418 -0.227427 5.67968e-05)
(0.00237348 -0.220584 0.000522492)
(0.000645115 -0.220499 7.25936e-05)
(0.00233834 -0.221392 0.000527368)
(0.000609477 -0.221335 7.40814e-05)
(0.00143273 -0.226512 4.33418e-06)
(0.00143279 -0.226512 -4.44368e-06)
(0.00133165 -0.227384 4.43677e-06)
(0.00133171 -0.227384 -4.57565e-06)
(0.000509074 -0.220453 4.34396e-06)
(0.000509089 -0.220453 -4.57008e-06)
(0.000473337 -0.22131 4.51638e-06)
(0.000473356 -0.22131 -4.66057e-06)
(0.00155401 -0.226576 -5.56884e-05)
(0.00146815 -0.226688 -0.000146613)
(0.00145409 -0.227426 -5.69356e-05)
(0.00136851 -0.227524 -0.000150061)
(0.000645157 -0.220499 -7.28562e-05)
(0.00237381 -0.220584 -0.000522897)
(0.000609522 -0.221334 -7.42217e-05)
(0.00233757 -0.22139 -0.00052785)
(-0.00923999 -0.226638 0.000239555)
(0.00978423 -0.226062 0.980386)
(-0.00940489 -0.227532 0.000234722)
(0.00970006 -0.227027 0.976527)
(-6.61154e-06 -0.219847 0.00092304)
(0.00194285 -0.218396 0.998136)
(-4.13707e-05 -0.220686 0.000919727)
(0.00191544 -0.21931 0.998142)
(0.0100168 -0.224072 -0.976553)
(-0.00893723 -0.224705 -0.00024773)
(0.00990085 -0.225129 -0.976589)
(-0.00910685 -0.225717 -0.000244348)
(0.00198749 -0.216449 -0.998081)
(9.19248e-05 -0.217996 -0.000927816)
(0.00195715 -0.217456 -0.998085)
(3.90301e-05 -0.218956 -0.000925824)
(0.0016803 -0.224832 0.000139166)
(0.00177075 -0.224697 5.23807e-05)
(0.00157144 -0.225795 0.000142861)
(0.00165963 -0.225668 5.39804e-05)
(0.002455 -0.218781 0.000512446)
(0.000722852 -0.21865 6.92492e-05)
(0.00241239 -0.219715 0.000517713)
(0.000682932 -0.219605 7.09769e-05)
(0.00165184 -0.224594 3.76008e-06)
(0.00165191 -0.224594 -3.99257e-06)
(0.00153942 -0.225584 4.06227e-06)
(0.00153949 -0.225583 -4.26319e-06)
(0.000586571 -0.218567 3.81991e-06)
(0.000586565 -0.218567 -4.1194e-06)
(0.000546813 -0.21954 4.09249e-06)
(0.000546816 -0.21954 -4.39004e-06)
(0.00177086 -0.224697 -5.28836e-05)
(0.00168027 -0.224832 -0.000140143)
(0.00165955 -0.225668 -5.43452e-05)
(0.00157105 -0.225795 -0.000143228)
(0.000722714 -0.21865 -6.96264e-05)
(0.00245355 -0.21878 -0.000512852)
(0.000682826 -0.219605 -7.12904e-05)
(0.00241272 -0.219714 -0.000517738)
(-0.0089466 -0.22472 0.000248715)
(0.010025 -0.224069 0.976561)
(-0.00909509 -0.225725 0.000244043)
(0.00988811 -0.225131 0.980141)
(7.60873e-05 -0.217997 0.000929267)
(0.00200648 -0.216447 0.998081)
(4.13816e-05 -0.218956 0.000926)
(0.00196031 -0.217467 0.998086)
(0.0102672 -0.22185 -0.972162)
(-0.0086001 -0.222567 -0.000256141)
(0.0101309 -0.223003 -0.975269)
(-0.00876814 -0.223674 -0.000251496)
(0.00204498 -0.21428 -0.994161)
(0.000218581 -0.215877 -0.000935227)
(0.00199972 -0.215392 -0.998035)
(0.000165991 -0.216975 -0.000929742)
(0.00191669 -0.222712 0.000133892)
(0.00201161 -0.222559 4.9517e-05)
(0.00179523 -0.223809 0.000135644)
(0.00188808 -0.223661 5.08789e-05)
(0.00254718 -0.216711 0.000502868)
(0.000809186 -0.216548 6.59081e-05)
(0.00250002 -0.21778 0.000507123)
(0.000764905 -0.217632 6.75378e-05)
(0.00189477 -0.222425 3.14593e-06)
(0.00189482 -0.222425 -3.19706e-06)
(0.00177027 -0.223542 3.50378e-06)
(0.00177034 -0.223542 -3.59817e-06)
(0.000672462 -0.216436 3.2409e-06)
(0.00067248 -0.216436 -3.38765e-06)
(0.000628446 -0.217533 3.5463e-06)
(0.00062846 -0.217533 -3.78689e-06)
(0.00201166 -0.222559 -4.95763e-05)
(0.00191771 -0.222713 -0.00013377)
(0.00188817 -0.223662 -5.12259e-05)
(0.00179492 -0.223808 -0.000136865)
(0.000809292 -0.216549 -6.61278e-05)
(0.00254804 -0.216711 -0.000503281)
(0.000764961 -0.217632 -6.7934e-05)
(0.00250012 -0.217781 -0.00050809)
(-0.00859038 -0.222555 0.000255536)
(0.0102541 -0.22185 0.979813)
(-0.00878213 -0.223664 0.000252563)
(0.0101478 -0.223008 0.976244)
(0.000214057 -0.215875 0.000932896)
(0.00205823 -0.214244 0.99803)
(0.000153008 -0.216981 0.000931485)
(0.00202148 -0.215399 0.998034)
(0.0105453 -0.219353 -0.97951)
(-0.00828614 -0.220116 -0.000261646)
(0.0104087 -0.22066 -0.976336)
(-0.00844211 -0.221388 -0.000259095)
(0.00215152 -0.211845 -0.994605)
(0.000360658 -0.213477 -0.000939485)
(0.00209757 -0.213117 -0.994036)
(0.000280815 -0.214717 -0.000938182)
(0.00217197 -0.220311 0.00012872)
(0.0022771 -0.220143 4.62779e-05)
(0.00204124 -0.221552 0.000131939)
(0.00214113 -0.221387 4.80414e-05)
(0.00265215 -0.214362 0.000494432)
(0.000904646 -0.214176 6.24375e-05)
(0.0025984 -0.215573 0.000498852)
(0.000855815 -0.215397 6.43114e-05)
(0.00216283 -0.219986 2.28555e-06)
(0.00216288 -0.219986 -2.35968e-06)
(0.00202562 -0.221241 2.72072e-06)
(0.00202567 -0.221241 -2.80274e-06)
(0.000767224 -0.214039 2.51613e-06)
(0.00076724 -0.214039 -2.5278e-06)
(0.000718727 -0.215272 2.92926e-06)
(0.000718741 -0.215272 -2.94918e-06)
(0.00227729 -0.220143 -4.63225e-05)
(0.00217267 -0.220311 -0.000128805)
(0.00214137 -0.221387 -4.79717e-05)
(0.00204376 -0.221551 -0.000131148)
(0.000904762 -0.214176 -6.248e-05)
(0.00265253 -0.214361 -0.000494716)
(0.000855881 -0.215397 -6.42957e-05)
(0.0025983 -0.215573 -0.00049881)
(-0.00828746 -0.220118 0.000261764)
(0.0105434 -0.219366 0.97952)
(-0.00842382 -0.221384 0.000258752)
(0.0103819 -0.220657 0.979563)
(0.000359461 -0.21348 0.000938008)
(0.00215559 -0.211854 0.996274)
(0.000277575 -0.214719 0.000934924)
(0.00209629 -0.213134 0.997983)
(0.0108344 -0.216578 -0.975782)
(-0.00801711 -0.217388 -0.000267306)
(0.0106758 -0.218053 -0.979254)
(-0.00815453 -0.218806 -0.00026408)
(0.00225883 -0.209185 -0.997926)
(0.000530797 -0.210822 -0.000940599)
(0.0021969 -0.210569 -0.994488)
(0.000446744 -0.212189 -0.000940389)
(0.00244689 -0.217609 0.000122785)
(0.0025685 -0.217432 4.25591e-05)
(0.00230648 -0.219002 0.000125333)
(0.0024196 -0.218826 4.43715e-05)
(0.00276719 -0.21172 0.000486043)
(0.00100902 -0.211514 5.82723e-05)
(0.00270897 -0.213079 0.000490144)
(0.000955749 -0.212882 6.03616e-05)
(0.00245679 -0.217256 1.30828e-06)
(0.00245683 -0.217256 -1.40608e-06)
(0.00230657 -0.218658 1.81405e-06)
(0.00230662 -0.218658 -1.89885e-06)
(0.000871078 -0.211358 1.47049e-06)
(0.000871095 -0.211358 -1.64252e-06)
(0.000818014 -0.212735 2.0019e-06)
(0.000818033 -0.212735 -2.11595e-06)
(0.00256848 -0.217432 -4.27021e-05)
(0.00244595 -0.21761 -0.000122823)
(0.00241965 -0.218826 -4.45748e-05)
(0.00230558 -0.219002 -0.000125921)
(0.00100908 -0.211514 -5.85278e-05)
(0.00276736 -0.211719 -0.00048644)
(0.000955839 -0.212882 -6.05914e-05)
(0.00270956 -0.213078 -0.000490653)
(-0.0080118 -0.21739 0.000267159)
(0.0108269 -0.216612 0.978638)
(-0.00816031 -0.218797 0.000264637)
(0.0106904 -0.218038 0.979253)
(0.000525191 -0.210812 0.000940234)
(0.00227378 -0.209158 0.997927)
(0.00044888 -0.212183 0.000939857)
(0.0022101 -0.210577 0.99619)
(0.0111724 -0.213524 -0.974342)
(-0.00771448 -0.214345 -0.000273088)
(0.0109952 -0.215142 -0.970928)
(-0.00787642 -0.215921 -0.000271098)
(0.00238805 -0.206214 -0.994858)
(0.000714424 -0.207878 -0.000945498)
(0.0023164 -0.207756 -0.997878)
(0.0006284 -0.209392 -0.000942996)
(0.00274787 -0.214594 0.00011825)
(0.00288615 -0.214407 3.89987e-05)
(0.00259348 -0.216145 0.000120873)
(0.00272402 -0.21596 4.08426e-05)
(0.00289235 -0.208768 0.000479452)
(0.00112263 -0.208545 5.44085e-05)
(0.00282913 -0.210284 0.000482562)
(0.00106468 -0.210069 5.62867e-05)
(0.00277715 -0.214216 3.182e-07)
(0.00277718 -0.214216 -2.58774e-07)
(0.00261369 -0.215775 8.15824e-07)
(0.00261373 -0.215776 -8.33848e-07)
(0.000984239 -0.208375 4.92837e-07)
(0.000984255 -0.208375 -5.97981e-07)
(0.000926499 -0.209906 9.63962e-07)
(0.00092652 -0.209906 -1.12772e-06)
(0.00288618 -0.214407 -3.88834e-05)
(0.0027471 -0.214595 -0.000117812)
(0.00272401 -0.21596 -4.07354e-05)
(0.00259282 -0.216145 -0.000120038)
(0.00112262 -0.208545 -5.44872e-05)
(0.00289206 -0.208767 -0.000479132)
(0.00106471 -0.210069 -5.64731e-05)
(0.00282851 -0.210284 -0.00048253)
(-0.00770567 -0.214359 0.000272786)
(0.0111548 -0.213546 0.974948)
(-0.00786051 -0.215914 0.000269473)
(0.0109773 -0.215114 0.978361)
(0.00071925 -0.207872 0.000944209)
(0.00238627 -0.206208 0.996308)
(0.00062361 -0.209389 0.000941449)
(0.00231689 -0.207775 0.997879)
(0.0115381 -0.210148 -0.978576)
(-0.00736662 -0.210998 -0.000276004)
(0.0113463 -0.211913 -0.978619)
(-0.0075469 -0.212717 -0.000274108)
(0.00251306 -0.202954 -0.99783)
(0.000901077 -0.204633 -0.000945319)
(0.00243908 -0.204638 -0.994749)
(0.000816591 -0.206299 -0.000946191)
(0.00307715 -0.211255 0.00011339)
(0.00323024 -0.211052 3.51945e-05)
(0.00290855 -0.212969 0.000115663)
(0.00305492 -0.212772 3.70966e-05)
(0.00302591 -0.205494 0.000472792)
(0.00124532 -0.205254 5.04468e-05)
(0.00295825 -0.207173 0.00047627)
(0.00118287 -0.206941 5.25012e-05)
(0.00312379 -0.210849 -8.13633e-07)
(0.00312383 -0.210849 7.073e-07)
(0.00294722 -0.212574 -2.31729e-07)
(0.00294725 -0.212574 2.209e-07)
(0.00110669 -0.205072 -5.53103e-07)
(0.00110668 -0.205072 4.41003e-07)
(0.00104432 -0.206765 -2.39683e-10)
(0.00104432 -0.206765 -8.28826e-08)
(0.00323039 -0.211052 -3.54865e-05)
(0.00307743 -0.211256 -0.000114112)
(0.00305505 -0.212772 -3.725e-05)
(0.00290861 -0.212969 -0.000116225)
(0.00124526 -0.205254 -5.05179e-05)
(0.00302542 -0.205493 -0.000472756)
(0.00118282 -0.206941 -5.25389e-05)
(0.00295802 -0.207172 -0.000476013)
(-0.00735666 -0.210999 0.000276312)
(0.011522 -0.210164 0.97857)
(-0.00754111 -0.212723 0.000274932)
(0.0113356 -0.211902 0.974591)
(0.000890189 -0.204626 0.000945266)
(0.00252576 -0.202955 0.997829)
(0.000807295 -0.206291 0.00094567)
(0.00245189 -0.20465 0.996227)
(0.0119325 -0.206451 -0.974541)
(-0.00697067 -0.207318 -0.000281057)
(0.0117298 -0.208356 -0.974586)
(-0.00717435 -0.209207 -0.000278982)
(0.00267516 -0.199356 -0.997781)
(0.00107758 -0.201065 -0.000947443)
(0.00258521 -0.201204 -0.997779)
(0.00099448 -0.202892 -0.000946517)
(0.00343667 -0.207575 0.000110705)
(0.00360043 -0.207352 3.16541e-05)
(0.0032533 -0.209459 0.000111651)
(0.00341214 -0.209246 3.3351e-05)
(0.00317096 -0.201881 0.000466259)
(0.00137703 -0.201626 4.64103e-05)
(0.00309785 -0.203731 0.000469397)
(0.00131012 -0.203483 4.83848e-05)
(0.00349657 -0.20714 -1.93761e-06)
(0.0034966 -0.20714 1.81075e-06)
(0.003307 -0.209038 -1.39943e-06)
(0.00330704 -0.209038 1.25054e-06)
(0.00123837 -0.201435 -1.65232e-06)
(0.00123837 -0.201435 1.50613e-06)
(0.0011714 -0.203297 -1.11771e-06)
(0.0011714 -0.203297 9.72502e-07)
(0.00360064 -0.207352 -3.16513e-05)
(0.00343685 -0.207575 -0.000109976)
(0.00341232 -0.209247 -3.35595e-05)
(0.00325364 -0.209459 -0.000111821)
(0.00137704 -0.201626 -4.65399e-05)
(0.00317019 -0.201881 -0.000466585)
(0.00131007 -0.203483 -4.85089e-05)
(0.0030968 -0.20373 -0.000469652)
(-0.00697231 -0.207311 0.000279969)
(0.011933 -0.206451 0.978236)
(-0.0071683 -0.209199 0.000278084)
(0.0117192 -0.208356 0.978281)