/*--------------------------------*- C++ -*----------------------------------*\
  =========                 |
  \\      /  F ield         | OpenFOAM: The Open Source CFD Toolbox
   \\    /   O peration     | Website:  https://openfoam.org
    \\  /    A nd           | Version:  9
     \\/     M anipulation  |
\*---------------------------------------------------------------------------*/
FoamFile
{
    format      ascii;
    class       surfaceScalarField;
    location    "0.6";
    object      phi;
}
// * * * * * * * * * * * * * * * * * * * * * * * * * * * * * * * * * * * * * //

dimensions      [0 3 -1 0 0 0 0];

internalField   nonuniform List<scalar> 
104044
(
-3.22149e-11
-3.30946e-05
-3.07599e-09
3.30879e-05
9.8154e-09
-3.30947e-05
-3.04977e-09
-3.31979e-13
3.30879e-05
9.78257e-09
3.49526e-11
-4.39962e-09
1.13213e-08
-4.43937e-09
2.09062e-12
1.13482e-08
-2.20553e-11
-1.16131e-05
1.161e-05
-1.16132e-05
-1.11269e-12
1.16101e-05
3.34096e-11
2.4603e-12
8.89414e-13
-3.30946e-05
-3.04421e-09
3.30879e-05
9.77689e-09
-3.30947e-05
-3.04435e-09
3.67468e-13
3.30879e-05
9.77713e-09
-1.30417e-13
-4.4438e-09
1.13602e-08
-4.44494e-09
-9.89154e-15
1.13636e-08
4.33683e-13
-1.16131e-05
1.16101e-05
-1.16131e-05
3.75314e-13
1.16101e-05
2.40986e-15
2.14866e-14
3.63058e-14
-3.30947e-05
-3.04503e-09
3.30879e-05
9.77845e-09
-3.30947e-05
-3.04543e-09
-2.67602e-13
3.30879e-05
9.77966e-09
4.92364e-14
-4.44555e-09
1.13653e-08
-4.44611e-09
1.03908e-13
1.13667e-08
6.07393e-14
-1.16131e-05
1.16101e-05
-1.16131e-05
-2.44969e-13
1.16101e-05
6.90032e-14
1.17648e-13
-7.6188e-13
-3.30947e-05
-3.04553e-09
3.30879e-05
9.78066e-09
-3.30947e-05
-3.04602e-09
4.43647e-13
3.30879e-05
9.78237e-09
2.54837e-13
-4.44657e-09
1.13676e-08
-4.44635e-09
-1.97954e-12
1.13665e-08
-3.11899e-13
-1.16131e-05
1.16101e-05
-1.16131e-05
1.22969e-12
1.16101e-05
1.25091e-13
-2.35107e-12
3.23154e-11
-3.30947e-05
-3.05208e-09
3.30879e-05
9.78949e-09
-3.30946e-05
-3.07858e-09
3.30879e-05
9.82311e-09
-3.49375e-11
-4.4426e-09
1.13561e-08
-4.40317e-09
1.13301e-08
2.20885e-11
-1.16132e-05
1.16101e-05
-1.16131e-05
1.161e-05
-3.33812e-11
-6.37927e-12
-3.30811e-05
-2.74987e-09
3.30735e-05
1.03514e-08
-3.30811e-05
-2.75543e-09
-5.62803e-13
3.30735e-05
1.03534e-08
-1.10356e-11
-2.60026e-09
9.35507e-09
-2.60416e-09
1.58967e-12
9.35128e-09
-2.51531e-12
-1.16074e-05
1.16047e-05
-1.16075e-05
-7.07383e-13
1.16047e-05
-7.51494e-12
5.69305e-13
7.27309e-13
-3.30812e-05
-2.75524e-09
3.30736e-05
1.03564e-08
-3.30812e-05
-2.75652e-09
5.14124e-13
3.30736e-05
1.03586e-08
1.70487e-12
-2.6071e-09
9.35563e-09
-2.61e-09
5.23855e-13
9.3592e-09
5.16393e-13
-1.16075e-05
1.16047e-05
-1.16075e-05
5.16977e-13
1.16047e-05
1.3748e-12
5.88301e-13
9.2022e-14
-3.30812e-05
-2.75728e-09
3.30736e-05
1.03601e-08
-3.30812e-05
-2.75754e-09
-3.33017e-13
3.30736e-05
1.0361e-08
5.98678e-14
-2.61135e-09
9.36133e-09
-2.61165e-09
-4.15493e-13
9.36237e-09
1.12344e-13
-1.16075e-05
1.16047e-05
-1.16075e-05
-2.99106e-13
1.16047e-05
9.10109e-14
-4.07296e-13
-5.45708e-13
-3.30812e-05
-2.75727e-09
3.30736e-05
1.03612e-08
-3.30812e-05
-2.75641e-09
6.68742e-13
3.30736e-05
1.03604e-08
-1.59201e-12
-2.61092e-09
9.36221e-09
-2.60853e-09
-1.4903e-12
9.3603e-09
-3.07043e-13
-1.16075e-05
1.16047e-05
-1.16075e-05
8.21515e-13
1.16047e-05
-1.21327e-12
-4.40763e-13
6.41766e-12
-3.30812e-05
-2.75692e-09
3.30736e-05
1.03584e-08
-3.30811e-05
-2.7515e-09
3.30735e-05
1.03569e-08
1.10071e-11
-2.60595e-09
9.35716e-09
-2.60217e-09
9.36166e-09
2.53418e-12
-1.16075e-05
1.16047e-05
-1.16075e-05
1.16047e-05
7.60255e-12
-5.96983e-12
-3.30645e-05
-3.9781e-09
3.30534e-05
1.50945e-08
-3.30646e-05
-3.98241e-09
-9.97204e-13
3.30534e-05
1.50936e-08
-6.26476e-12
-3.19601e-09
1.21722e-08
-3.1993e-09
-1.03315e-12
1.21719e-08
-1.13907e-14
-1.16015e-05
1.15975e-05
-1.16015e-05
-1.68583e-12
1.15975e-05
-1.34798e-12
-1.64918e-12
7.81168e-14
-3.30646e-05
-3.97924e-09
3.30535e-05
1.50945e-08
-3.30646e-05
-3.97991e-09
3.15754e-13
3.30535e-05
1.50955e-08
2.94439e-13
-3.19682e-09
1.21729e-08
-3.1976e-09
4.44022e-13
1.21743e-08
-1.8664e-13
-1.16015e-05
1.15975e-05
-1.16015e-05
2.5179e-13
1.15976e-05
7.55409e-14
4.05332e-13
1.01556e-13
-3.30646e-05
-3.98041e-09
3.30535e-05
1.50964e-08
-3.30646e-05
-3.98056e-09
-1.20191e-13
3.30535e-05
1.5097e-08
1.15249e-13
-3.19818e-09
1.21754e-08
-3.19838e-09
-2.24339e-13
1.21761e-08
1.1214e-13
-1.16015e-05
1.15976e-05
-1.16015e-05
-3.7837e-14
1.15976e-05
1.24771e-13
-1.59355e-13
8.44808e-14
-3.30646e-05
-3.98036e-09
3.30535e-05
1.50971e-08
-3.30646e-05
-3.9799e-09
1.10521e-12
3.30535e-05
1.5097e-08
-1.19314e-13
-3.19819e-09
1.21763e-08
-3.19772e-09
1.16284e-12
1.21761e-08
3.39365e-13
-1.16015e-05
1.15976e-05
-1.16015e-05
1.84178e-12
1.15975e-05
1.04997e-13
1.78457e-12
6.01202e-12
-3.30646e-05
-3.9833e-09
3.30535e-05
1.50966e-08
-3.30646e-05
-3.97904e-09
3.30534e-05
1.50979e-08
6.33982e-12
-3.20046e-09
1.21758e-08
-3.19728e-09
1.21766e-08
8.48382e-14
-1.16015e-05
1.15975e-05
-1.16015e-05
1.15975e-05
1.4005e-12
-6.45388e-12
-3.30399e-05
-6.03899e-09
3.30234e-05
2.26022e-08
-3.30399e-05
-6.04601e-09
-8.37845e-13
3.30234e-05
2.26001e-08
-5.94273e-12
-4.88553e-09
1.83993e-08
-4.89113e-09
-9.47364e-13
1.8398e-08
2.2794e-12
-1.15926e-05
1.15866e-05
-1.15926e-05
-1.52373e-12
1.15866e-05
1.21074e-12
-1.61103e-12
-2.02147e-13
-3.304e-05
-6.04142e-09
3.30234e-05
2.26011e-08
-3.304e-05
-6.04172e-09
5.5089e-14
3.30234e-05
2.26015e-08
-1.1525e-13
-4.8873e-09
1.8399e-08
-4.88778e-09
1.7011e-13
1.83997e-08
-4.82938e-13
-1.15927e-05
1.15866e-05
-1.15927e-05
-1.9945e-15
1.15866e-05
-3.3292e-13
1.0593e-13
5.22964e-14
-3.304e-05
-6.04204e-09
3.30234e-05
2.2602e-08
-3.304e-05
-6.04211e-09
3.57783e-14
3.30234e-05
2.26022e-08
8.11868e-14
-4.88816e-09
1.84003e-08
-4.88827e-09
-1.05819e-14
1.84007e-08
4.40579e-14
-1.15927e-05
1.15866e-05
-1.15927e-05
8.49727e-14
1.15866e-05
7.63754e-14
3.28082e-14
2.73876e-13
-3.304e-05
-6.0419e-09
3.30234e-05
2.26022e-08
-3.304e-05
-6.04171e-09
9.23437e-13
3.30234e-05
2.26022e-08
2.38111e-13
-4.88807e-09
1.84008e-08
-4.88775e-09
1.03179e-12
1.84007e-08
5.88114e-13
-1.15927e-05
1.15866e-05
-1.15927e-05
1.64745e-12
1.15866e-05
4.65871e-13
1.74172e-12
6.51039e-12
-3.30399e-05
-6.04644e-09
3.30234e-05
2.26015e-08
-3.30399e-05
-6.03939e-09
3.30234e-05
2.26039e-08
5.9832e-12
-4.89175e-09
1.84002e-08
-4.88614e-09
1.84018e-08
-2.22979e-12
-1.15927e-05
1.15866e-05
-1.15926e-05
1.15866e-05
-1.13744e-12
-7.99836e-12
-3.30038e-05
-8.5414e-09
3.29806e-05
3.17331e-08
-3.30038e-05
-8.55153e-09
-6.22575e-13
3.29806e-05
3.17294e-08
-7.03267e-12
-7.17944e-09
2.67483e-08
-7.18785e-09
-7.2889e-13
2.67455e-08
4.2083e-12
-1.15794e-05
1.15709e-05
-1.15794e-05
-1.38802e-12
1.15709e-05
3.23977e-12
-1.40297e-12
-2.72129e-13
-3.30038e-05
-8.54538e-09
3.29806e-05
3.17307e-08
-3.30038e-05
-8.54547e-09
-6.38111e-14
3.29807e-05
3.17309e-08
-2.39934e-13
-7.18258e-09
2.67467e-08
-7.18274e-09
-1.14781e-14
2.6747e-08
-6.80735e-13
-1.15794e-05
1.15709e-05
-1.15794e-05
-1.18061e-13
1.15709e-05
-5.81998e-13
-7.61687e-14
5.0306e-14
-3.30039e-05
-8.54573e-09
3.29807e-05
3.17311e-08
-3.30039e-05
-8.54574e-09
1.57272e-13
3.29807e-05
3.17312e-08
4.2626e-14
-7.18302e-09
2.67473e-08
-7.18306e-09
9.70911e-14
2.67474e-08
5.78291e-14
-1.15794e-05
1.15709e-05
-1.15794e-05
2.27838e-13
1.15709e-05
3.92572e-14
1.56137e-13
3.54938e-13
-3.30039e-05
-8.5455e-09
3.29807e-05
3.17311e-08
-3.30038e-05
-8.54545e-09
7.16829e-13
3.29807e-05
3.1731e-08
3.1424e-13
-7.18283e-09
2.67474e-08
-7.18273e-09
7.91317e-13
2.67473e-08
7.9271e-13
-1.15794e-05
1.15709e-05
-1.15794e-05
1.48978e-12
1.15709e-05
6.85768e-13
1.4773e-12
8.06853e-12
-3.30038e-05
-8.55166e-09
3.29806e-05
3.17298e-08
-3.30038e-05
-8.54149e-09
3.29806e-05
3.17336e-08
7.08615e-12
-7.1881e-09
2.67463e-08
-7.17963e-09
2.67493e-08
-4.16519e-12
-1.15794e-05
1.15709e-05
-1.15794e-05
1.15709e-05
-3.23998e-12
-1.01674e-11
-3.29541e-05
-1.13194e-08
3.29235e-05
4.19377e-08
-3.29541e-05
-1.13329e-08
-4.88376e-13
3.29235e-05
4.19326e-08
-8.91507e-12
-9.80215e-09
3.63504e-08
-9.81379e-09
-5.49643e-13
3.63462e-08
5.94371e-12
-1.15611e-05
1.15497e-05
-1.15611e-05
-1.48638e-12
1.15497e-05
5.05882e-12
-1.39954e-12
-2.97173e-13
-3.29541e-05
-1.1325e-08
3.29235e-05
4.19344e-08
-3.29541e-05
-1.1325e-08
-1.58671e-13
3.29235e-05
4.19345e-08
-2.6903e-13
-9.80681e-09
3.63477e-08
-9.80685e-09
-9.61145e-14
3.63479e-08
-8.24931e-13
-1.15611e-05
1.15498e-05
-1.15611e-05
-1.84253e-13
1.15498e-05
-7.33393e-13
-1.42759e-13
7.70634e-14
-3.29541e-05
-1.13253e-08
3.29235e-05
4.19346e-08
-3.29541e-05
-1.13253e-08
3.16563e-13
3.29235e-05
4.19346e-08
6.80987e-14
-9.80711e-09
3.6348e-08
-9.80712e-09
2.47876e-13
3.6348e-08
7.84412e-14
-1.15611e-05
1.15498e-05
-1.15611e-05
3.27129e-13
1.15498e-05
7.51115e-14
2.97643e-13
4.1498e-13
-3.29541e-05
-1.1325e-08
3.29235e-05
4.19345e-08
-3.29541e-05
-1.1325e-08
5.78813e-13
3.29235e-05
4.19344e-08
3.9488e-13
-9.80685e-09
3.6348e-08
-9.80682e-09
6.3932e-13
3.63479e-08
9.53822e-13
-1.15611e-05
1.15498e-05
-1.15611e-05
1.57661e-12
1.15498e-05
8.84989e-13
1.51685e-12
1.01763e-11
-3.29541e-05
-1.1333e-08
3.29235e-05
4.19326e-08
-3.29541e-05
-1.13194e-08
3.29235e-05
4.19378e-08
8.9544e-12
-9.81383e-09
3.63463e-08
-9.80217e-09
3.63506e-08
-5.92408e-12
-1.15611e-05
1.15497e-05
-1.15611e-05
1.15497e-05
-5.00242e-12
-1.2594e-11
-3.28892e-05
-1.43631e-08
3.28504e-05
5.31698e-08
-3.28892e-05
-1.43803e-08
-3.34201e-13
3.28504e-05
5.31633e-08
-1.1187e-11
-1.26839e-08
4.69637e-08
-1.2699e-08
-4.02689e-13
4.69581e-08
7.76623e-12
-1.15371e-05
1.15227e-05
-1.15371e-05
-1.59599e-12
1.15227e-05
6.82947e-12
-1.49443e-12
-2.66104e-13
-3.28892e-05
-1.43703e-08
3.28504e-05
5.31657e-08
-3.28892e-05
-1.43703e-08
-2.0034e-13
3.28504e-05
5.31658e-08
-2.63814e-13
-1.26901e-08
4.69602e-08
-1.26901e-08
-1.68523e-13
4.69603e-08
-9.22884e-13
-1.15371e-05
1.15227e-05
-1.15371e-05
-2.30538e-13
1.15227e-05
-8.47861e-13
-1.95806e-13
7.54333e-14
-3.28893e-05
-1.43706e-08
3.28505e-05
5.31659e-08
-3.28893e-05
-1.43706e-08
3.53686e-13
3.28505e-05
5.31659e-08
8.37365e-14
-1.26904e-08
4.69604e-08
-1.26904e-08
3.50101e-13
4.69604e-08
6.81984e-14
-1.15371e-05
1.15227e-05
-1.15371e-05
3.51363e-13
1.15227e-05
8.34291e-14
3.66404e-13
3.75841e-13
-3.28892e-05
-1.43703e-08
3.28504e-05
5.31658e-08
-3.28892e-05
-1.43703e-08
4.26564e-13
3.28504e-05
5.31656e-08
4.22387e-13
-1.26901e-08
4.69603e-08
-1.26901e-08
5.12394e-13
4.69601e-08
1.03829e-12
-1.15371e-05
1.15227e-05
-1.15371e-05
1.68614e-12
1.15227e-05
1.01984e-12
1.64438e-12
1.25766e-11
-3.28892e-05
-1.43803e-08
3.28504e-05
5.31632e-08
-3.28892e-05
-1.43631e-08
3.28504e-05
5.31698e-08
1.12229e-11
-1.2699e-08
4.6958e-08
-1.26839e-08
4.69636e-08
-7.74553e-12
-1.15371e-05
1.15227e-05
-1.15371e-05
1.15227e-05
-6.72433e-12
-1.51958e-11
-3.28076e-05
-1.77355e-08
3.27597e-05
6.56428e-08
-3.28076e-05
-1.77566e-08
-1.29992e-13
3.27597e-05
6.56349e-08
-1.36732e-11
-1.58493e-08
5.86597e-08
-1.58682e-08
-2.33163e-13
5.86528e-08
9.77767e-12
-1.15068e-05
1.14891e-05
-1.15068e-05
-1.7013e-12
1.14891e-05
8.69647e-12
-1.61367e-12
-1.63954e-13
-3.28076e-05
-1.77444e-08
3.27597e-05
6.56379e-08
-3.28077e-05
-1.77445e-08
-1.95335e-13
3.27598e-05
6.5638e-08
-1.99675e-13
-1.58572e-08
5.86555e-08
-1.58572e-08
-1.90718e-13
5.86556e-08
-9.85254e-13
-1.15068e-05
1.14891e-05
-1.15068e-05
-2.47819e-13
1.14891e-05
-9.32908e-13
-2.35592e-13
6.15768e-14
-3.28077e-05
-1.77449e-08
3.27598e-05
6.56382e-08
-3.28077e-05
-1.77449e-08
3.24425e-13
3.27598e-05
6.56381e-08
6.41489e-14
-1.58576e-08
5.86557e-08
-1.58576e-08
3.38975e-13
5.86557e-08
5.39786e-14
-1.15068e-05
1.14891e-05
-1.15068e-05
3.37613e-13
1.14891e-05
5.9501e-14
3.54098e-13
2.62947e-13
-3.28077e-05
-1.77444e-08
3.27598e-05
6.5638e-08
-3.28076e-05
-1.77444e-08
2.37921e-13
3.27597e-05
6.56378e-08
3.28864e-13
-1.58572e-08
5.86555e-08
-1.58572e-08
3.29404e-13
5.86554e-08
1.07284e-12
-1.15068e-05
1.14891e-05
-1.15068e-05
1.77765e-12
1.14891e-05
1.05895e-12
1.72169e-12
1.52215e-11
-3.28076e-05
-1.77566e-08
3.27597e-05
6.56347e-08
-3.28076e-05
-1.77354e-08
3.27597e-05
6.56427e-08
1.37006e-11
-1.58681e-08
5.86526e-08
-1.58493e-08
5.86596e-08
-9.75329e-12
-1.15068e-05
1.14891e-05
-1.15068e-05
1.14891e-05
-8.63421e-12
-1.81856e-11
-3.27074e-05
-2.1505e-08
3.26494e-05
7.95986e-08
-3.27074e-05
-2.15306e-08
2.5963e-14
3.26493e-05
7.9589e-08
-1.64121e-11
-1.93696e-08
7.16859e-08
-1.93925e-08
-5.44637e-14
7.16775e-08
1.19493e-11
-1.14697e-05
1.14482e-05
-1.14697e-05
-1.86235e-12
1.14482e-05
1.07529e-11
-1.74141e-12
-5.76078e-14
-3.27074e-05
-2.15159e-08
3.26494e-05
7.95928e-08
-3.27075e-05
-2.1516e-08
-1.53374e-13
3.26494e-05
7.9593e-08
-9.29935e-14
-1.93793e-08
7.16809e-08
-1.93793e-08
-1.65271e-13
7.16811e-08
-1.0387e-12
-1.14697e-05
1.14482e-05
-1.14697e-05
-2.17287e-13
1.14482e-05
-9.84139e-13
-2.27067e-13
9.09576e-14
-3.27075e-05
-2.15165e-08
3.26494e-05
7.95932e-08
-3.27075e-05
-2.15165e-08
3.14058e-13
3.26494e-05
7.95931e-08
6.84167e-14
-1.93797e-08
7.16812e-08
-1.93797e-08
3.12168e-13
7.16812e-08
9.35205e-14
-1.14697e-05
1.14482e-05
-1.14697e-05
4.09737e-13
1.14482e-05
6.8289e-14
3.73797e-13
1.89199e-13
-3.27075e-05
-2.1516e-08
3.26494e-05
7.9593e-08
-3.27074e-05
-2.15159e-08
1.04887e-13
3.26494e-05
7.95927e-08
2.25628e-13
-1.93793e-08
7.1681e-08
-1.93792e-08
1.53906e-13
7.16808e-08
1.1903e-12
-1.14697e-05
1.14482e-05
-1.14697e-05
1.97328e-12
1.14482e-05
1.1175e-12
1.8395e-12
1.82175e-11
-3.27074e-05
-2.15306e-08
3.26494e-05
7.95889e-08
-3.27074e-05
-2.1505e-08
3.26494e-05
7.95986e-08
1.64595e-11
-1.93925e-08
7.16774e-08
-1.93695e-08
7.16858e-08
-1.19073e-11
-1.14697e-05
1.14482e-05
-1.14697e-05
1.14482e-05
-1.07216e-11
-2.15772e-11
-3.25864e-05
-2.57312e-08
3.25169e-05
9.5254e-08
-3.25864e-05
-2.57617e-08
1.54205e-13
3.25169e-05
9.52426e-08
-1.95658e-11
-2.33238e-08
8.63286e-08
-2.33513e-08
9.56446e-14
8.63186e-08
1.42916e-11
-1.14248e-05
1.13991e-05
-1.14249e-05
-2.08262e-12
1.13991e-05
1.30285e-11
-1.90455e-12
4.46221e-14
-3.25864e-05
-2.57443e-08
3.25169e-05
9.52472e-08
-3.25864e-05
-2.57444e-08
-1.12732e-13
3.25169e-05
9.52474e-08
2.54986e-14
-2.33355e-08
8.63227e-08
-2.33355e-08
-1.08578e-13
8.63229e-08
-1.1196e-12
-1.14249e-05
1.13991e-05
-1.14249e-05
-2.02939e-13
1.13991e-05
-1.03142e-12
-1.86072e-13
9.9938e-14
-3.25864e-05
-2.5745e-08
3.25169e-05
9.52476e-08
-3.25864e-05
-2.5745e-08
2.85629e-13
3.25169e-05
9.52476e-08
1.10359e-13
-2.33361e-08
8.63231e-08
-2.33361e-08
3.07858e-13
8.63231e-08
1.14483e-13
-1.14249e-05
1.13991e-05
-1.14249e-05
4.36853e-13
1.13991e-05
1.17184e-13
4.4245e-13
9.77174e-14
-3.25864e-05
-2.57444e-08
3.25169e-05
9.52474e-08
-3.25864e-05
-2.57443e-08
-2.59953e-14
3.25169e-05
9.52471e-08
1.66391e-13
-2.33355e-08
8.63229e-08
-2.33355e-08
4.91463e-14
8.63227e-08
1.30907e-12
-1.14249e-05
1.13991e-05
-1.14249e-05
2.21918e-12
1.13991e-05
1.26197e-12
2.08877e-12
2.15757e-11
-3.25864e-05
-2.57618e-08
3.25169e-05
9.52425e-08
-3.25864e-05
-2.57313e-08
3.25169e-05
9.5254e-08
1.96223e-11
-2.33513e-08
8.63185e-08
-2.33238e-08
8.63286e-08
-1.42525e-11
-1.14249e-05
1.13991e-05
-1.14248e-05
1.13991e-05
-1.29142e-11
-2.52546e-11
-3.24419e-05
-3.0493e-08
3.23595e-05
1.12903e-07
-3.24418e-05
-3.0529e-08
3.25061e-13
3.23595e-05
1.12889e-07
-2.30888e-11
-2.77706e-08
1.02804e-07
-2.78032e-08
2.39821e-13
1.02792e-07
1.69279e-11
-1.13713e-05
1.13408e-05
-1.13713e-05
-2.32439e-12
1.13408e-05
1.54859e-11
-2.1443e-12
1.5644e-13
-3.24419e-05
-3.05085e-08
3.23595e-05
1.12895e-07
-3.24419e-05
-3.05087e-08
-8.89354e-14
3.23595e-05
1.12895e-07
1.16256e-13
-2.77845e-08
1.02797e-07
-2.77846e-08
-9.56274e-14
1.02797e-07
-1.24337e-12
-1.13713e-05
1.13408e-05
-1.13713e-05
-2.55553e-13
1.13408e-05
-1.14294e-12
-2.14152e-13
5.30451e-14
-3.24419e-05
-3.05093e-08
3.23595e-05
1.12895e-07
-3.24419e-05
-3.05093e-08
2.07783e-13
3.23595e-05
1.12895e-07
7.20284e-14
-2.77852e-08
1.02797e-07
-2.77852e-08
2.47833e-13
1.02797e-07
5.40377e-14
-1.13713e-05
1.13408e-05
-1.13713e-05
3.48351e-13
1.13408e-05
9.18832e-14
4.17778e-13
-7.78875e-14
-3.24419e-05
-3.05086e-08
3.23595e-05
1.12895e-07
-3.24419e-05
-3.05085e-08
-2.33628e-13
3.23595e-05
1.12895e-07
2.81533e-14
-2.77846e-08
1.02797e-07
-2.77845e-08
-1.19614e-13
1.02797e-07
1.33668e-12
-1.13713e-05
1.13408e-05
-1.13713e-05
2.4091e-12
1.13408e-05
1.33998e-12
2.31598e-12
2.52858e-11
-3.24419e-05
-3.0529e-08
3.23595e-05
1.12889e-07
-3.24419e-05
-3.0493e-08
3.23595e-05
1.12903e-07
2.3125e-11
-2.78032e-08
1.02792e-07
-2.77706e-08
1.02804e-07
-1.69196e-11
-1.13713e-05
1.13408e-05
-1.13713e-05
1.13408e-05
-1.5373e-11
-2.92416e-11
-3.22709e-05
-3.58228e-08
3.21741e-05
1.32669e-07
-3.22709e-05
-3.5865e-08
5.4985e-13
3.21741e-05
1.32653e-07
-2.69478e-11
-3.27683e-08
1.2133e-07
-3.28066e-08
4.17666e-13
1.21317e-07
1.99662e-11
-1.1308e-05
1.12722e-05
-1.1308e-05
-2.55043e-12
1.12722e-05
1.82168e-11
-2.41878e-12
3.05366e-13
-3.22709e-05
-3.58412e-08
3.21741e-05
1.3266e-07
-3.2271e-05
-3.58413e-08
-5.20943e-14
3.21741e-05
1.3266e-07
2.34631e-13
-3.27847e-08
1.21323e-07
-3.27849e-08
-6.83426e-14
1.21323e-07
-1.35517e-12
-1.1308e-05
1.12722e-05
-1.1308e-05
-2.96645e-13
1.12722e-05
-1.28682e-12
-2.83024e-13
2.31856e-14
-3.2271e-05
-3.58421e-08
3.21741e-05
1.3266e-07
-3.2271e-05
-3.58421e-08
1.15125e-13
3.21741e-05
1.3266e-07
3.07564e-14
-3.27856e-08
1.21323e-07
-3.27856e-08
1.57776e-13
1.21323e-07
-7.94926e-15
-1.1308e-05
1.12722e-05
-1.1308e-05
2.73503e-13
1.12722e-05
1.03386e-14
3.06408e-13
-2.57563e-13
-3.2271e-05
-3.58413e-08
3.21741e-05
1.3266e-07
-3.22709e-05
-3.58411e-08
-4.70016e-13
3.21741e-05
1.3266e-07
-1.61337e-13
-3.27848e-08
1.21323e-07
-3.27847e-08
-3.59226e-13
1.21322e-07
1.36342e-12
-1.1308e-05
1.12722e-05
-1.1308e-05
2.58442e-12
1.12722e-05
1.34138e-12
2.46644e-12
2.93439e-11
-3.22709e-05
-3.5865e-08
3.21741e-05
1.32653e-07
-3.22709e-05
-3.58228e-08
3.21741e-05
1.32669e-07
2.69474e-11
-3.28066e-08
1.21316e-07
-3.27682e-08
1.2133e-07
-1.99544e-11
-1.1308e-05
1.12722e-05
-1.1308e-05
1.12722e-05
-1.82436e-11
-3.3721e-11
-3.20705e-05
-4.18078e-08
3.19574e-05
1.54884e-07
-3.20704e-05
-4.18569e-08
7.8905e-13
3.19574e-05
1.54866e-07
-3.11346e-11
-3.83501e-08
1.42037e-07
-3.83948e-08
6.45922e-13
1.42021e-07
2.33803e-11
-1.12338e-05
1.1192e-05
-1.12338e-05
-2.78984e-12
1.1192e-05
2.13607e-11
-2.65423e-12
4.84016e-13
-3.20705e-05
-4.18293e-08
3.19574e-05
1.54874e-07
-3.20705e-05
-4.18295e-08
1.16065e-14
3.19574e-05
1.54874e-07
3.95574e-13
-3.83693e-08
1.42028e-07
-3.83695e-08
-1.89008e-14
1.42028e-07
-1.43843e-12
-1.12338e-05
1.1192e-05
-1.12338e-05
-2.63099e-13
1.1192e-05
-1.38352e-12
-2.87534e-13
3.10459e-14
-3.20705e-05
-4.18304e-08
3.19574e-05
1.54874e-07
-3.20705e-05
-4.18304e-08
4.85051e-14
3.19574e-05
1.54874e-07
2.00014e-14
-3.83703e-08
1.42028e-07
-3.83703e-08
6.76513e-14
1.42028e-07
2.50843e-14
-1.12338e-05
1.1192e-05
-1.12338e-05
3.03799e-13
1.1192e-05
-1.71284e-15
2.90946e-13
-4.33363e-13
-3.20705e-05
-4.18295e-08
3.19574e-05
1.54874e-07
-3.20705e-05
-4.18293e-08
-7.24097e-13
3.19574e-05
1.54874e-07
-3.33277e-13
-3.83695e-08
1.42028e-07
-3.83693e-08
-6.05548e-13
1.42028e-07
1.46799e-12
-1.12338e-05
1.1192e-05
-1.12338e-05
2.82125e-12
1.1192e-05
1.39846e-12
2.65419e-12
3.38243e-11
-3.20705e-05
-4.18569e-08
3.19574e-05
1.54866e-07
-3.20705e-05
-4.18079e-08
3.19574e-05
1.54884e-07
3.11406e-11
-3.83948e-08
1.42021e-07
-3.835e-08
1.42037e-07
-2.33471e-11
-1.12338e-05
1.1192e-05
-1.12338e-05
1.1192e-05
-2.14492e-11
-3.85978e-11
-3.18368e-05
-4.84258e-08
3.17058e-05
1.79473e-07
-3.18368e-05
-4.84824e-08
1.06632e-12
3.17058e-05
1.79453e-07
-3.57684e-11
-4.45874e-08
1.65197e-07
-4.46392e-08
9.14722e-13
1.65178e-07
2.70983e-11
-1.11474e-05
1.10989e-05
-1.11474e-05
-3.0538e-12
1.10989e-05
2.49218e-11
-2.87002e-12
6.84189e-13
-3.18368e-05
-4.84506e-08
3.17058e-05
1.79461e-07
-3.18369e-05
-4.84509e-08
7.46137e-14
3.17058e-05
1.79462e-07
5.96337e-13
-4.46098e-08
1.65186e-07
-4.461e-08
5.74419e-14
1.65187e-07
-1.52916e-12
-1.11474e-05
1.10989e-05
-1.11474e-05
-2.31641e-13
1.10989e-05
-1.44743e-12
-2.33293e-13
3.25018e-14
-3.18369e-05
-4.84519e-08
3.17059e-05
1.79462e-07
-3.18369e-05
-4.84519e-08
-2.0492e-14
3.17059e-05
1.79462e-07
3.90569e-14
-4.4611e-08
1.65187e-07
-4.4611e-08
2.56426e-14
1.65187e-07
3.93138e-14
-1.11474e-05
1.10989e-05
-1.11474e-05
3.13005e-13
1.10989e-05
3.51662e-14
3.18294e-13
-6.39585e-13
-3.18369e-05
-4.84509e-08
3.17058e-05
1.79462e-07
-3.18368e-05
-4.84507e-08
-1.01848e-12
3.17058e-05
1.79461e-07
-5.09808e-13
-4.461e-08
1.65187e-07
-4.46098e-08
-8.53688e-13
1.65186e-07
1.58549e-12
-1.11474e-05
1.10989e-05
-1.11474e-05
3.08563e-12
1.10989e-05
1.53174e-12
2.93071e-12
3.87025e-11
-3.18368e-05
-4.84825e-08
3.17058e-05
1.79453e-07
-3.18369e-05
-4.84259e-08
3.17058e-05
1.79473e-07
3.57887e-11
-4.46392e-08
1.65178e-07
-4.45874e-08
1.65197e-07
-2.70602e-11
-1.11474e-05
1.10989e-05
-1.11474e-05
1.10989e-05
-2.49422e-11
-4.3817e-11
-3.15666e-05
-5.575e-08
3.14156e-05
2.06722e-07
-3.15665e-05
-5.58149e-08
1.3893e-12
3.14156e-05
2.06699e-07
-4.0769e-11
-5.14757e-08
1.90803e-07
-5.15352e-08
1.20771e-12
1.90782e-07
3.11612e-11
-1.10474e-05
1.09916e-05
-1.10474e-05
-3.35571e-12
1.09916e-05
2.87631e-11
-3.1397e-12
8.80737e-13
-3.15665e-05
-5.57786e-08
3.14156e-05
2.06709e-07
-3.15666e-05
-5.57789e-08
9.72645e-14
3.14156e-05
2.06709e-07
7.8817e-13
-5.15015e-08
1.90791e-07
-5.15018e-08
9.65737e-14
1.90792e-07
-1.67507e-12
-1.10474e-05
1.09916e-05
-1.10474e-05
-2.81538e-13
1.09916e-05
-1.55695e-12
-2.3274e-13
-2.46118e-14
-3.15666e-05
-5.57801e-08
3.14156e-05
2.0671e-07
-3.15666e-05
-5.57801e-08
-1.58223e-13
3.14156e-05
2.0671e-07
7.51954e-15
-5.15029e-08
1.90792e-07
-5.15029e-08
-8.39325e-14
1.90792e-07
-7.76249e-15
-1.10474e-05
1.09916e-05
-1.10474e-05
2.59998e-13
1.09916e-05
2.419e-14
2.9729e-13
-9.24756e-13
-3.15666e-05
-5.5779e-08
3.14156e-05
2.06709e-07
-3.15665e-05
-5.57787e-08
-1.38995e-12
3.14156e-05
2.06709e-07
-7.60725e-13
-5.15018e-08
1.90792e-07
-5.15016e-08
-1.19575e-12
1.90791e-07
1.6484e-12
-1.10474e-05
1.09916e-05
-1.10474e-05
3.31576e-12
1.09916e-05
1.61623e-12
3.16367e-12
4.40061e-11
-3.15665e-05
-5.5815e-08
3.14156e-05
2.06699e-07
-3.15666e-05
-5.57501e-08
3.14156e-05
2.06722e-07
4.07919e-11
-5.15353e-08
1.90782e-07
-5.14758e-08
1.90803e-07
-3.11639e-11
-1.10474e-05
1.09916e-05
-1.10474e-05
1.09916e-05
-2.88322e-11
-4.95633e-11
-3.12557e-05
-6.37525e-08
3.10829e-05
2.3654e-07
-3.12556e-05
-6.38264e-08
1.71099e-12
3.10829e-05
2.36514e-07
-4.62513e-11
-5.9075e-08
2.19093e-07
-5.9143e-08
1.5129e-12
2.19069e-07
3.55604e-11
-1.09325e-05
1.08687e-05
-1.09325e-05
-3.66228e-12
1.08687e-05
3.29246e-11
-3.45693e-12
1.10039e-12
-3.12556e-05
-6.37852e-08
3.10829e-05
2.36525e-07
-3.12557e-05
-6.37856e-08
1.50096e-13
3.10829e-05
2.36526e-07
9.80555e-13
-5.91047e-08
2.1908e-07
-5.91051e-08
1.25509e-13
2.1908e-07
-1.80946e-12
-1.09325e-05
1.08687e-05
-1.09325e-05
-2.90466e-13
1.08688e-05
-1.70836e-12
-2.81218e-13
-4.36837e-14
-3.12557e-05
-6.37869e-08
3.10829e-05
2.36526e-07
-3.12557e-05
-6.37869e-08
-2.45364e-13
3.10829e-05
2.36526e-07
-4.25217e-14
-5.91062e-08
2.19081e-07
-5.91063e-08
-2.08244e-13
2.19081e-07
-2.79675e-14
-1.09325e-05
1.08688e-05
-1.09325e-05
2.24414e-13
1.08688e-05
-2.12081e-14
2.4327e-13
-1.17851e-12
-3.12557e-05
-6.37856e-08
3.10829e-05
2.36526e-07
-3.12556e-05
-6.37853e-08
-1.74609e-12
3.10829e-05
2.36525e-07
-1.04298e-12
-5.91051e-08
2.1908e-07
-5.91048e-08
-1.57119e-12
2.1908e-07
1.74023e-12
-1.09325e-05
1.08688e-05
-1.09325e-05
3.59297e-12
1.08687e-05
1.68281e-12
3.40292e-12
4.97471e-11
-3.12556e-05
-6.38265e-08
3.10829e-05
2.36514e-07
-3.12557e-05
-6.37526e-08
3.10829e-05
2.3654e-07
4.62482e-11
-5.91431e-08
2.19069e-07
-5.90752e-08
2.19093e-07
-3.55631e-11
-1.09325e-05
1.08687e-05
-1.09325e-05
1.08687e-05
-3.30746e-11
-5.58047e-11
-3.09003e-05
-7.24807e-08
3.07037e-05
2.69124e-07
-3.09003e-05
-7.25645e-08
2.05355e-12
3.07037e-05
2.69095e-07
-5.22102e-11
-6.73729e-08
2.50036e-07
-6.74501e-08
1.84513e-12
2.5001e-07
4.02678e-11
-1.08013e-05
1.07288e-05
-1.08013e-05
-3.99135e-12
1.07288e-05
3.74138e-11
-3.78723e-12
1.33769e-12
-3.09003e-05
-7.2518e-08
3.07037e-05
2.69107e-07
-3.09003e-05
-7.25184e-08
2.1396e-13
3.07037e-05
2.69108e-07
1.20957e-12
-6.74067e-08
2.50021e-07
-6.74071e-08
1.90774e-13
2.50022e-07
-1.94998e-12
-1.08013e-05
1.07288e-05
-1.08013e-05
-2.84823e-13
1.07288e-05
-1.85125e-12
-2.83987e-13
-3.01929e-14
-3.09003e-05
-7.25198e-08
3.07037e-05
2.69109e-07
-3.09003e-05
-7.25198e-08
-2.87815e-13
3.07037e-05
2.69109e-07
-3.8903e-14
-6.74084e-08
2.50022e-07
-6.74084e-08
-2.69564e-13
2.50022e-07
-3.47009e-14
-1.08013e-05
1.07288e-05
-1.08013e-05
2.21468e-13
1.07288e-05
-3.87239e-14
2.21491e-13
-1.38639e-12
-3.09003e-05
-7.25184e-08
3.07037e-05
2.69108e-07
-3.09003e-05
-7.2518e-08
-2.06697e-12
3.07037e-05
2.69107e-07
-1.27384e-12
-6.74071e-08
2.50022e-07
-6.74068e-08
-1.90978e-12
2.50021e-07
1.88677e-12
-1.08013e-05
1.07288e-05
-1.08013e-05
3.93482e-12
1.07288e-05
1.79919e-12
3.71019e-12
5.59812e-11
-3.09003e-05
-7.25645e-08
3.07037e-05
2.69095e-07
-3.09003e-05
-7.24808e-08
3.07037e-05
2.69124e-07
5.21889e-11
-6.74501e-08
2.50009e-07
-6.7373e-08
2.50036e-07
-4.02731e-11
-1.08013e-05
1.07288e-05
-1.08013e-05
1.07288e-05
-3.75904e-11
-6.24682e-11
-3.04966e-05
-8.18556e-08
3.02743e-05
3.04198e-07
-3.04966e-05
-8.19498e-08
2.41438e-12
3.02743e-05
3.04166e-07
-5.85854e-11
-7.63276e-08
2.83495e-07
-7.64146e-08
2.19406e-12
2.83466e-07
4.5265e-11
-1.06524e-05
1.05705e-05
-1.06524e-05
-4.33397e-12
1.05705e-05
4.21992e-11
-4.13973e-12
1.58006e-12
-3.04966e-05
-8.18977e-08
3.02743e-05
3.0418e-07
-3.04966e-05
-8.18981e-08
2.71059e-13
3.02743e-05
3.04181e-07
1.44008e-12
-7.63658e-08
2.83479e-07
-7.63662e-08
2.41822e-13
2.8348e-07
-2.10551e-12
-1.06524e-05
1.05705e-05
-1.06525e-05
-2.85393e-13
1.05706e-05
-2.01163e-12
-2.90558e-13
-2.25966e-14
-3.04966e-05
-8.18996e-08
3.02743e-05
3.04181e-07
-3.04966e-05
-8.18996e-08
-3.27864e-13
3.02743e-05
3.04181e-07
-2.93134e-14
-7.63677e-08
2.8348e-07
-7.63677e-08
-3.0759e-13
2.8348e-07
-3.72437e-14
-1.06525e-05
1.05706e-05
-1.06525e-05
2.16555e-13
1.05706e-05
-4.21103e-14
2.26959e-13
-1.59054e-12
-3.04966e-05
-8.18981e-08
3.02743e-05
3.0418e-07
-3.04966e-05
-8.18977e-08
-2.3913e-12
3.02743e-05
3.0418e-07
-1.46948e-12
-7.63662e-08
2.8348e-07
-7.63658e-08
-2.21597e-12
2.83479e-07
2.06518e-12
-1.06525e-05
1.05706e-05
-1.06524e-05
4.32197e-12
1.05705e-05
1.95706e-12
4.06557e-12
6.25806e-11
-3.04966e-05
-8.19497e-08
3.02743e-05
3.04166e-07
-3.04966e-05
-8.18556e-08
3.02743e-05
3.04198e-07
5.85586e-11
-7.64146e-08
2.83466e-07
-7.63276e-08
2.83495e-07
-4.52488e-11
-1.06524e-05
1.05705e-05
-1.06524e-05
1.05705e-05
-4.23691e-11
-6.93886e-11
-3.00407e-05
-9.18914e-08
2.97909e-05
3.41841e-07
-3.00407e-05
-9.19966e-08
2.82749e-12
2.97908e-05
3.41805e-07
-6.52987e-11
-8.59709e-08
3.19614e-07
-8.60684e-08
2.59232e-12
3.19581e-07
5.05869e-11
-1.04845e-05
1.03926e-05
-1.04845e-05
-4.68031e-12
1.03926e-05
4.73573e-11
-4.48461e-12
1.8515e-12
-3.00407e-05
-9.19386e-08
2.97908e-05
3.4182e-07
-3.00407e-05
-9.1939e-08
3.58411e-13
2.97909e-05
3.41821e-07
1.69654e-12
-8.6014e-08
3.19596e-07
-8.60144e-08
3.09173e-13
3.19596e-07
-2.25957e-12
-1.04845e-05
1.03926e-05
-1.04845e-05
-2.69322e-13
1.03926e-05
-2.17307e-12
-2.91456e-13
3.40309e-15
-3.00407e-05
-9.19408e-08
2.97909e-05
3.41822e-07
-3.00407e-05
-9.19407e-08
-3.66793e-13
2.97909e-05
3.41822e-07
-1.65855e-14
-8.6016e-08
3.19597e-07
-8.6016e-08
-3.51639e-13
3.19597e-07
-1.15241e-14
-1.04845e-05
1.03926e-05
-1.04845e-05
2.61055e-13
1.03926e-05
-3.78946e-14
2.27821e-13
-1.81201e-12
-3.00407e-05
-9.1939e-08
2.97909e-05
3.41821e-07
-3.00407e-05
-9.19386e-08
-2.77382e-12
2.97908e-05
3.4182e-07
-1.68957e-12
-8.60144e-08
3.19596e-07
-8.60139e-08
-2.57344e-12
3.19596e-07
2.26107e-12
-1.04845e-05
1.03926e-05
-1.04845e-05
4.70194e-12
1.03926e-05
2.13685e-12
4.44858e-12
6.94709e-11
-3.00407e-05
-9.19966e-08
2.97908e-05
3.41805e-07
-3.00408e-05
-9.18914e-08
2.97909e-05
3.41841e-07
6.52713e-11
-8.60684e-08
3.19581e-07
-8.59709e-08
3.19614e-07
-5.0573e-11
-1.04845e-05
1.03926e-05
-1.04845e-05
1.03926e-05
-4.74714e-11
-7.66152e-11
-2.95292e-05
-1.02495e-07
2.925e-05
3.81731e-07
-2.95291e-05
-1.02612e-07
3.21539e-12
2.925e-05
3.81691e-07
-7.2265e-11
-9.61769e-08
3.57943e-07
-9.62854e-08
2.98605e-12
3.57907e-07
5.60881e-11
-1.02963e-05
1.01938e-05
-1.02964e-05
-5.08055e-12
1.01938e-05
5.27588e-11
-4.84567e-12
2.0891e-12
-2.95291e-05
-1.02548e-07
2.925e-05
3.81708e-07
-2.95292e-05
-1.02548e-07
3.95873e-13
2.925e-05
3.81709e-07
1.94483e-12
-9.62249e-08
3.57923e-07
-9.62253e-08
3.78614e-13
3.57924e-07
-2.45114e-12
-1.02964e-05
1.01938e-05
-1.02964e-05
-2.65682e-13
1.01938e-05
-2.33759e-12
-2.71492e-13
2.04353e-14
-2.95292e-05
-1.0255e-07
2.925e-05
3.81709e-07
-2.95292e-05
-1.0255e-07
-3.72021e-13
2.925e-05
3.81709e-07
2.08032e-14
-9.62271e-08
3.57925e-07
-9.62271e-08
-3.47312e-13
3.57925e-07
1.67029e-14
-1.02964e-05
1.01938e-05
-1.02964e-05
3.08668e-13
1.01938e-05
5.83201e-16
2.80708e-13
-2.00868e-12
-2.95292e-05
-1.02548e-07
2.925e-05
3.81709e-07
-2.95291e-05
-1.02548e-07
-3.13835e-12
2.925e-05
3.81708e-07
-1.88679e-12
-9.62253e-08
3.57924e-07
-9.62249e-08
-2.93943e-12
3.57923e-07
2.49702e-12
-1.02964e-05
1.01938e-05
-1.02964e-05
5.13507e-12
1.01938e-05
2.35536e-12
4.86312e-12
7.66547e-11
-2.95291e-05
-1.02612e-07
2.925e-05
3.81691e-07
-2.95292e-05
-1.02495e-07
2.925e-05
3.81731e-07
7.22429e-11
-9.62854e-08
3.57907e-07
-9.61768e-08
3.57943e-07
-5.60831e-11
-1.02964e-05
1.01938e-05
-1.02963e-05
1.01938e-05
-5.2791e-11
-8.38221e-11
-2.89586e-05
-1.13583e-07
2.86487e-05
4.23581e-07
-2.89585e-05
-1.13712e-07
3.68972e-12
2.86486e-05
4.23538e-07
-7.94799e-11
-1.0693e-07
3.98453e-07
-1.0705e-07
3.40081e-12
3.98414e-07
6.18681e-11
-1.00868e-05
9.97314e-06
-1.00868e-05
-5.43192e-12
9.97317e-06
5.83569e-11
-5.21407e-12
2.374e-12
-2.89585e-05
-1.13642e-07
2.86486e-05
4.23557e-07
-2.89585e-05
-1.13642e-07
4.49532e-13
2.86486e-05
4.23557e-07
2.19576e-12
-1.06983e-07
3.98431e-07
-1.06984e-07
4.20533e-13
3.98432e-07
-2.60991e-12
-1.00868e-05
9.97318e-06
-1.00868e-05
-2.64778e-13
9.97319e-06
-2.50733e-12
-2.63619e-13