/*--------------------------------*- C++ -*----------------------------------*\
  =========                 |
  \\      /  F ield         | OpenFOAM: The Open Source CFD Toolbox
   \\    /   O peration     | Website:  https://openfoam.org
    \\  /    A nd           | Version:  9
     \\/     M anipulation  |
\*---------------------------------------------------------------------------*/
FoamFile
{
    format      ascii;
    class       volVectorField;
    location    "0.6";
    object      U;
}
// * * * * * * * * * * * * * * * * * * * * * * * * * * * * * * * * * * * * * //

dimensions      [0 1 -1 0 0 0 0];

internalField   nonuniform List<vector> 
36360
(
(8.80154e-06 -0.0628729 -0.935991)
(8.74038e-06 -0.0628726 -1.91765e-08)
(1.1442e-05 -0.0628925 -0.945654)
(1.14944e-05 -0.0628925 2.18282e-08)
(1.53774e-06 -0.0220616 -0.923564)
(1.48359e-06 -0.0220614 -1.36585e-08)
(2.8692e-06 -0.0220729 -0.932422)
(2.877e-06 -0.022073 2.1143e-08)
(8.72959e-06 -0.0628726 2.2487e-10)
(8.72984e-06 -0.0628726 6.39002e-10)
(1.15087e-05 -0.0628925 1.16789e-09)
(1.15124e-05 -0.0628926 -8.41316e-11)
(1.47366e-06 -0.0220614 -4.0468e-10)
(1.47291e-06 -0.0220614 4.40729e-10)
(2.878e-06 -0.022073 1.46728e-09)
(2.87805e-06 -0.022073 1.57471e-11)
(8.73144e-06 -0.0628726 2.34854e-10)
(8.73257e-06 -0.0628726 -1.52606e-10)
(1.15142e-05 -0.0628926 2.32807e-11)
(1.15156e-05 -0.0628926 1.04302e-10)
(1.47333e-06 -0.0220614 2.13182e-10)
(1.47354e-06 -0.0220614 -8.58416e-11)
(2.87826e-06 -0.022073 5.19662e-11)
(2.87862e-06 -0.022073 9.97981e-11)
(8.73315e-06 -0.0628726 -5.30976e-10)
(8.73471e-06 -0.0628726 -9.53863e-11)
(1.15166e-05 -0.0628926 2.26423e-10)
(1.15152e-05 -0.0628926 -1.02757e-09)
(1.47354e-06 -0.0220614 -3.02649e-10)
(1.47461e-06 -0.0220614 5.4699e-10)
(2.87913e-06 -0.022073 1.36672e-10)
(2.87969e-06 -0.022073 -1.32623e-09)
(8.74687e-06 -0.0628727 1.93023e-08)
(8.80878e-06 -0.0628729 0.935991)
(1.15027e-05 -0.0628926 -2.17531e-08)
(1.14512e-05 -0.0628926 0.945654)
(1.48482e-06 -0.0220614 1.37478e-08)
(1.53913e-06 -0.0220616 0.923564)
(2.87914e-06 -0.022073 -2.10612e-08)
(2.87157e-06 -0.022073 0.932422)
(8.51043e-06 -0.0628475 -0.935201)
(8.50555e-06 -0.0628476 -4.17484e-09)
(7.93087e-06 -0.0628605 -0.935432)
(7.92201e-06 -0.0628607 -5.66233e-09)
(9.95572e-07 -0.0220517 -0.922794)
(9.72294e-07 -0.0220518 -2.02234e-09)
(1.04563e-06 -0.0220565 -0.923019)
(1.02274e-06 -0.0220566 -4.16841e-09)
(8.50795e-06 -0.0628476 9.92617e-12)
(8.51118e-06 -0.0628476 6.09343e-10)
(7.9289e-06 -0.0628607 1.82026e-09)
(7.93504e-06 -0.0628608 1.23127e-09)
(9.68194e-07 -0.0220518 -2.3922e-10)
(9.68578e-07 -0.0220518 5.24452e-10)
(1.02232e-06 -0.0220566 1.0031e-09)
(1.0246e-06 -0.0220566 1.00927e-09)
(8.5131e-06 -0.0628477 3.08571e-10)
(8.51387e-06 -0.0628477 -1.10752e-10)
(7.93813e-06 -0.0628608 4.12162e-10)
(7.93905e-06 -0.0628608 -2.70741e-10)
(9.6909e-07 -0.0220518 3.13994e-10)
(9.69198e-07 -0.0220518 -7.59536e-11)
(1.02577e-06 -0.0220566 4.02514e-10)
(1.02591e-06 -0.0220566 -2.06811e-10)
(8.51343e-06 -0.0628477 -4.25463e-10)
(8.51143e-06 -0.0628476 1.42983e-10)
(7.93775e-06 -0.0628608 -1.09372e-09)
(7.93312e-06 -0.0628608 -1.69325e-09)
(9.68906e-07 -0.0220518 -3.11871e-10)
(9.68699e-07 -0.0220518 4.09246e-10)
(1.02503e-06 -0.0220566 -8.27093e-10)
(1.02298e-06 -0.0220566 -8.37673e-10)
(8.50995e-06 -0.0628476 4.26229e-09)
(8.51528e-06 -0.0628475 0.935201)
(7.92732e-06 -0.0628607 5.70555e-09)
(7.93674e-06 -0.0628606 0.935432)
(9.72941e-07 -0.0220518 2.10677e-09)
(9.96279e-07 -0.0220517 0.922794)
(1.02356e-06 -0.0220566 4.29914e-09)
(1.04651e-06 -0.0220565 0.923019)
(1.25636e-05 -0.0628132 -0.934383)
(1.25482e-05 -0.0628132 -4.30889e-09)
(1.01169e-05 -0.062832 -0.934615)
(1.01047e-05 -0.062832 -4.53133e-09)
(1.45126e-06 -0.0220395 -0.921996)
(1.41361e-06 -0.0220395 -8.26605e-10)
(1.15036e-06 -0.0220462 -0.922222)
(1.11959e-06 -0.0220462 -1.62197e-09)
(1.25456e-05 -0.0628133 -6.02279e-10)
(1.25473e-05 -0.0628133 2.03195e-10)
(1.01029e-05 -0.0628321 -5.09912e-10)
(1.0105e-05 -0.0628321 4.02811e-10)
(1.40456e-06 -0.0220395 -9.41057e-10)
(1.40397e-06 -0.0220395 1.61324e-11)
(1.11229e-06 -0.0220462 -7.49001e-10)
(1.112e-06 -0.0220462 2.49695e-10)
(1.25485e-05 -0.0628133 2.09313e-10)
(1.2549e-05 -0.0628133 2.50322e-12)
(1.01064e-05 -0.0628321 2.84042e-10)
(1.01071e-05 -0.0628321 -3.50708e-11)
(1.40421e-06 -0.0220395 1.98666e-10)
(1.40428e-06 -0.0220395 3.76447e-11)
(1.11233e-06 -0.0220462 2.71004e-10)
(1.11241e-06 -0.0220462 -4.90737e-13)
(1.25487e-05 -0.0628133 3.30348e-13)
(1.25477e-05 -0.0628133 7.37493e-10)
(1.01068e-05 -0.0628321 -1.72788e-10)
(1.01057e-05 -0.0628321 6.52721e-10)
(1.40415e-06 -0.0220395 1.86918e-10)
(1.40481e-06 -0.0220395 1.10982e-09)
(1.11225e-06 -0.0220462 -3.54014e-12)
(1.11266e-06 -0.0220462 9.37462e-10)
(1.25509e-05 -0.0628132 4.36916e-09)
(1.25666e-05 -0.0628132 0.934383)
(1.01082e-05 -0.0628321 4.61158e-09)
(1.01208e-05 -0.062832 0.934615)
(1.41399e-06 -0.0220395 9.51443e-10)
(1.45163e-06 -0.0220395 0.921996)
(1.12009e-06 -0.0220462 1.7307e-09)
(1.1509e-06 -0.0220462 0.922222)
(1.93363e-05 -0.0627616 -0.93354)
(1.93134e-05 -0.0627616 -4.56355e-09)
(1.56894e-05 -0.06279 -0.933769)
(1.56707e-05 -0.06279 -4.31475e-09)
(2.33264e-06 -0.0220208 -0.921173)
(2.27595e-06 -0.0220208 5.68921e-10)
(1.85652e-06 -0.0220311 -0.921397)
(1.81023e-06 -0.0220312 -6.58618e-11)
(1.93093e-05 -0.0627617 -6.83532e-10)
(1.93103e-05 -0.0627617 -1.18948e-10)
(1.56674e-05 -0.0627901 -6.72092e-10)
(1.56687e-05 -0.0627901 2.0323e-11)
(2.2625e-06 -0.0220209 -1.21574e-09)
(2.26096e-06 -0.0220209 -3.61038e-10)
(1.79912e-06 -0.0220312 -1.08458e-09)
(1.79808e-06 -0.0220312 -1.94622e-10)
(1.93111e-05 -0.0627617 7.00832e-11)
(1.93113e-05 -0.0627617 5.78731e-11)
(1.56697e-05 -0.0627901 1.38199e-10)
(1.567e-05 -0.0627901 3.82886e-11)
(2.26098e-06 -0.0220209 3.21088e-11)
(2.26101e-06 -0.0220209 8.70962e-11)
(1.79819e-06 -0.0220312 1.11505e-10)
(1.79824e-06 -0.0220312 6.52562e-11)
(1.93109e-05 -0.0627617 2.30192e-10)
(1.93103e-05 -0.0627617 7.9144e-10)
(1.56696e-05 -0.0627901 1.4391e-10)
(1.56688e-05 -0.0627901 8.03198e-10)
(2.26102e-06 -0.0220209 4.77625e-10)
(2.26259e-06 -0.0220209 1.33251e-09)
(1.79819e-06 -0.0220312 3.72217e-10)
(1.79928e-06 -0.0220312 1.26676e-09)
(1.93147e-05 -0.0627617 4.65299e-09)
(1.93377e-05 -0.0627616 0.93354)
(1.56726e-05 -0.06279 4.39345e-09)
(1.56915e-05 -0.06279 0.933769)
(2.27613e-06 -0.0220208 -4.85263e-10)
(2.33277e-06 -0.0220208 0.921173)
(1.81049e-06 -0.0220312 2.04031e-10)
(1.85674e-06 -0.0220311 0.921397)
(2.7808e-05 -0.0626869 -0.932669)
(2.77761e-05 -0.062687 -5.50082e-09)
(2.34021e-05 -0.0627274 -0.932913)
(2.33749e-05 -0.0627274 -4.95371e-09)
(3.42776e-06 -0.0219934 -0.920324)
(3.34704e-06 -0.0219934 1.78819e-09)
(2.86065e-06 -0.0220083 -0.920562)
(2.79245e-06 -0.0220083 1.20631e-09)
(2.77705e-05 -0.062687 -6.03041e-10)
(2.77712e-05 -0.062687 -2.53401e-10)
(2.33701e-05 -0.0627275 -6.58379e-10)
(2.33709e-05 -0.0627275 -1.9569e-10)
(3.32821e-06 -0.0219934 -1.36848e-09)
(3.32572e-06 -0.0219935 -5.69911e-10)
(2.77644e-06 -0.0220083 -1.28518e-09)
(2.77442e-06 -0.0220083 -4.74816e-10)
(2.77719e-05 -0.062687 -1.52831e-11)
(2.77719e-05 -0.062687 1.57298e-10)
(2.33716e-05 -0.0627275 2.43694e-11)
(2.33717e-05 -0.0627275 9.63444e-11)
(3.32558e-06 -0.0219935 -5.93266e-11)
(3.32559e-06 -0.0219935 1.97426e-10)
(2.77435e-06 -0.0220083 -2.04917e-11)
(2.77437e-06 -0.0220083 1.29332e-10)
(2.77714e-05 -0.062687 3.83343e-10)
(2.77707e-05 -0.062687 7.24961e-10)
(2.33712e-05 -0.0627275 3.07717e-10)
(2.33706e-05 -0.0627275 7.53498e-10)
(3.32571e-06 -0.0219935 6.96824e-10)
(3.3282e-06 -0.0219934 1.49752e-09)
(2.77444e-06 -0.0220083 5.73744e-10)
(2.77647e-06 -0.0220083 1.42287e-09)
(2.77764e-05 -0.062687 5.60634e-09)
(2.78084e-05 -0.062687 0.932669)
(2.33756e-05 -0.0627274 5.02807e-09)
(2.34028e-05 -0.0627274 0.932913)
(3.34709e-06 -0.0219934 -1.69507e-09)
(3.42774e-06 -0.0219934 0.920324)
(2.79254e-06 -0.0220083 -1.11611e-09)
(2.86067e-06 -0.0220083 0.920562)
(3.75426e-05 -0.0625856 -0.931769)
(3.75006e-05 -0.0625856 -6.93367e-09)
(3.25251e-05 -0.0626398 -0.932018)
(3.24883e-05 -0.0626398 -6.15953e-09)
(4.66298e-06 -0.021956 -0.919445)
(4.55472e-06 -0.021956 2.88822e-09)
(4.02876e-06 -0.021976 -0.919688)
(3.93472e-06 -0.021976 2.36976e-09)
(3.74933e-05 -0.0625857 -5.22916e-10)
(3.74941e-05 -0.0625857 -2.92707e-10)
(3.24819e-05 -0.0626398 -5.61575e-10)
(3.24826e-05 -0.0626399 -2.6795e-10)
(4.52957e-06 -0.021956 -1.52839e-09)
(4.52615e-06 -0.021956 -7.05947e-10)
(3.91282e-06 -0.021976 -1.42428e-09)
(3.90987e-06 -0.021976 -6.2897e-10)
(3.74948e-05 -0.0625857 -4.31217e-11)
(3.74948e-05 -0.0625857 2.27722e-10)
(3.24833e-05 -0.0626399 -2.23763e-11)
(3.24833e-05 -0.0626399 2.03137e-10)
(4.52594e-06 -0.021956 -1.0383e-10)
(4.52595e-06 -0.021956 2.96318e-10)
(3.90969e-06 -0.021976 -7.60187e-11)
(3.9097e-06 -0.021976 2.64003e-10)
(3.7494e-05 -0.0625857 4.55137e-10)
(3.74933e-05 -0.0625857 6.5618e-10)
(3.24827e-05 -0.0626399 4.38977e-10)
(3.2482e-05 -0.0626398 7.0205e-10)
(4.52613e-06 -0.021956 8.9133e-10)
(4.52956e-06 -0.021956 1.68386e-09)
(3.90985e-06 -0.021976 8.18099e-10)
(3.91281e-06 -0.021976 1.60144e-09)
(3.75006e-05 -0.0625856 6.99896e-09)
(3.75427e-05 -0.0625856 0.931769)
(3.24884e-05 -0.0626398 6.24411e-09)
(3.25252e-05 -0.0626398 0.932018)
(4.55475e-06 -0.021956 -2.81609e-09)
(4.66296e-06 -0.021956 0.919445)
(3.93473e-06 -0.021976 -2.2559e-09)
(4.02871e-06 -0.021976 0.919688)
(4.85707e-05 -0.0624548 -0.930837)
(4.85172e-05 -0.0624548 -8.57983e-09)
(4.28836e-05 -0.0625241 -0.931103)
(4.28361e-05 -0.0625241 -7.68957e-09)
(6.04324e-06 -0.0219075 -0.918537)
(5.9039e-06 -0.0219075 4.08218e-09)
(5.33298e-06 -0.0219332 -0.918796)
(5.2097e-06 -0.0219332 3.5275e-09)
(4.8508e-05 -0.0624549 -3.94911e-10)
(4.8509e-05 -0.0624549 -2.79562e-10)
(4.28279e-05 -0.0625241 -4.49242e-10)
(4.28287e-05 -0.0625241 -2.70365e-10)
(5.87159e-06 -0.0219076 -1.69111e-09)
(5.86718e-06 -0.0219076 -8.13994e-10)
(5.18107e-06 -0.0219332 -1.57675e-09)
(5.17716e-06 -0.0219332 -7.4399e-10)
(4.85099e-05 -0.0624549 -6.21494e-11)
(4.85099e-05 -0.0624549 2.4183e-10)
(4.28295e-05 -0.0625242 -3.8748e-11)
(4.28295e-05 -0.0625242 2.49892e-10)
(5.8669e-06 -0.0219076 -1.4825e-10)
(5.86691e-06 -0.0219076 3.18288e-10)
(5.17692e-06 -0.0219332 -1.13886e-10)
(5.17694e-06 -0.0219332 3.30409e-10)
(4.85089e-05 -0.0624549 4.35684e-10)
(4.8508e-05 -0.0624549 5.26935e-10)
(4.28287e-05 -0.0625241 4.72821e-10)
(4.28278e-05 -0.0625241 6.19237e-10)
(5.86716e-06 -0.0219076 9.81146e-10)
(5.87158e-06 -0.0219076 1.84027e-09)
(5.17715e-06 -0.0219332 9.697e-10)
(5.18106e-06 -0.0219332 1.79849e-09)
(4.85171e-05 -0.0624548 8.63027e-09)
(4.85706e-05 -0.0624548 0.930837)
(4.2836e-05 -0.0625241 7.78702e-09)
(4.28836e-05 -0.0625241 0.931103)
(5.90393e-06 -0.0219075 -4.00795e-09)
(6.04322e-06 -0.0219075 0.918537)
(5.20972e-06 -0.0219332 -3.35715e-09)
(5.33297e-06 -0.0219332 0.918796)
(6.11486e-05 -0.0622914 -0.929883)
(6.10822e-05 -0.0622914 -1.03706e-08)
(5.46475e-05 -0.0623774 -0.930147)
(5.45878e-05 -0.0623774 -9.41093e-09)
(7.60498e-06 -0.021847 -0.917607)
(7.43039e-06 -0.021847 5.4522e-09)
(6.79856e-06 -0.0218788 -0.917864)
(6.6422e-06 -0.0218789 4.7805e-09)
(6.10709e-05 -0.0622915 -1.96635e-10)
(6.10722e-05 -0.0622915 -2.11643e-10)
(5.45776e-05 -0.0623774 -2.94898e-10)
(5.45787e-05 -0.0623775 -2.37416e-10)
(7.38996e-06 -0.021847 -1.84151e-09)
(7.38444e-06 -0.021847 -8.91006e-10)
(6.60595e-06 -0.0218789 -1.74591e-09)
(6.601e-06 -0.0218789 -8.4555e-10)
(6.10732e-05 -0.0622915 -6.18342e-11)
(6.10732e-05 -0.0622915 2.21987e-10)
(5.45797e-05 -0.0623775 -5.81972e-11)
(5.45797e-05 -0.0623775 2.32728e-10)
(7.38407e-06 -0.021847 -1.75671e-10)
(7.38409e-06 -0.021847 3.05564e-10)
(6.60068e-06 -0.0218789 -1.63369e-10)
(6.6007e-06 -0.0218789 3.18086e-10)
(6.10721e-05 -0.0622915 3.49188e-10)
(6.10708e-05 -0.0622915 3.32189e-10)
(5.45786e-05 -0.0623775 4.02884e-10)
(5.45775e-05 -0.0623774 4.39518e-10)
(7.38442e-06 -0.021847 1.0172e-09)
(7.38992e-06 -0.021847 1.96659e-09)
(6.60098e-06 -0.0218789 1.01265e-09)
(6.60593e-06 -0.0218789 1.91368e-09)
(6.10821e-05 -0.0622914 1.04618e-08)
(6.11485e-05 -0.0622914 0.929883)
(5.45877e-05 -0.0623774 9.49535e-09)
(5.46473e-05 -0.0623774 0.930147)
(7.43038e-06 -0.021847 -5.38344e-09)
(7.6049e-06 -0.021847 0.917607)
(6.64219e-06 -0.0218789 -4.66443e-09)
(6.79849e-06 -0.0218788 0.917864)
(7.56067e-05 -0.0620917 -0.9289)
(7.55255e-05 -0.0620917 -1.25306e-08)
(6.81232e-05 -0.0621963 -0.92916)
(6.80497e-05 -0.0621963 -1.13671e-08)
(9.39132e-06 -0.021773 -0.916647)
(9.17648e-06 -0.021773 6.94678e-09)
(8.46713e-06 -0.0218118 -0.916902)
(8.27312e-06 -0.0218118 6.20772e-09)
(7.55118e-05 -0.0620917 -1.99059e-11)
(7.55134e-05 -0.0620918 -1.11072e-10)
(6.80373e-05 -0.0621964 -1.0558e-10)
(6.80387e-05 -0.0621964 -1.50569e-10)
(9.12678e-06 -0.021773 -2.03303e-09)
(9.12002e-06 -0.021773 -9.36998e-10)
(8.2282e-06 -0.0218118 -1.91031e-09)
(8.22209e-06 -0.0218118 -9.02329e-10)
(7.55147e-05 -0.0620918 -1.66042e-11)
(7.55147e-05 -0.0620918 2.57976e-10)
(6.80399e-05 -0.0621964 -3.52459e-11)
(6.80399e-05 -0.0621964 2.3364e-10)
(9.11956e-06 -0.021773 -1.25662e-10)
(9.11956e-06 -0.021773 3.64258e-10)
(8.22168e-06 -0.0218118 -1.525e-10)
(8.22168e-06 -0.0218118 3.30541e-10)
(7.55133e-05 -0.0620918 3.30485e-10)
(7.55118e-05 -0.0620917 2.02161e-10)
(6.80387e-05 -0.0621964 3.37332e-10)
(6.80372e-05 -0.0621964 2.58934e-10)
(9.12002e-06 -0.021773 1.14217e-09)
(9.12677e-06 -0.021773 2.23355e-09)
(8.22207e-06 -0.0218118 1.07406e-09)
(8.22818e-06 -0.0218118 2.08349e-09)
(7.55254e-05 -0.0620917 1.2644e-08)
(7.56067e-05 -0.0620917 0.9289)
(6.80496e-05 -0.0621964 1.14693e-08)
(6.81231e-05 -0.0621964 0.92916)
(9.17649e-06 -0.021773 -6.84036e-09)
(9.39127e-06 -0.021773 0.916647)
(8.2731e-06 -0.0218118 -6.11767e-09)
(8.46703e-06 -0.0218118 0.916902)
(9.22888e-05 -0.0618512 -0.927872)
(9.21905e-05 -0.0618512 -1.50808e-08)
(8.36515e-05 -0.0619768 -0.928151)
(8.35621e-05 -0.0619768 -1.37064e-08)
(1.14446e-05 -0.0216839 -0.915645)
(1.11836e-05 -0.0216839 8.57985e-09)
(1.03818e-05 -0.0217304 -0.915917)
(1.01447e-05 -0.0217304 7.81727e-09)
(9.21742e-05 -0.0618512 1.40811e-10)
(9.21761e-05 -0.0618513 -1.54908e-11)
(8.35472e-05 -0.0619769 7.95323e-11)
(8.35489e-05 -0.0619769 -2.96399e-11)
(1.11233e-05 -0.0216839 -2.29536e-09)
(1.11151e-05 -0.0216839 -1.01588e-09)
(1.00899e-05 -0.0217305 -2.10546e-09)
(1.00824e-05 -0.0217305 -9.39957e-10)
(9.21777e-05 -0.0618513 1.69634e-11)
(9.21777e-05 -0.0618513 2.66858e-10)
(8.35504e-05 -0.0619769 2.76407e-11)
(8.35504e-05 -0.0619769 2.87939e-10)
(1.11145e-05 -0.0216839 -1.06994e-10)
(1.11145e-05 -0.0216839 4.07743e-10)
(1.00819e-05 -0.0217305 -9.37504e-11)
(1.00819e-05 -0.0217305 4.12146e-10)
(9.21761e-05 -0.0618513 2.75889e-10)
(9.21741e-05 -0.0618512 5.39674e-11)
(8.35489e-05 -0.0619769 3.39504e-10)
(8.35471e-05 -0.0619769 1.55264e-10)
(1.11151e-05 -0.0216839 1.27898e-09)
(1.11233e-05 -0.0216839 2.54826e-09)
(1.00824e-05 -0.0217305 1.24171e-09)
(1.00899e-05 -0.0217305 2.41413e-09)
(9.21905e-05 -0.0618512 1.5171e-08)
(9.22888e-05 -0.0618512 0.927872)
(8.35621e-05 -0.0619768 1.38492e-08)
(8.36514e-05 -0.0619768 0.928151)
(1.11837e-05 -0.0216839 -8.45502e-09)
(1.14446e-05 -0.0216839 0.915645)
(1.01447e-05 -0.0217304 -7.60556e-09)
(1.03817e-05 -0.0217304 0.915917)
(0.000111536 -0.0615648 -0.926824)
(0.000111418 -0.0615648 -1.78971e-08)
(0.000101573 -0.0617141 -0.927109)
(0.000101466 -0.0617141 -1.64039e-08)
(1.38051e-05 -0.0215778 -0.914623)
(1.34913e-05 -0.0215778 1.04681e-08)
(1.25835e-05 -0.0216331 -0.914901)
(1.22971e-05 -0.0216331 9.56333e-09)
(0.000111399 -0.0615648 3.38282e-10)
(0.000111401 -0.0615649 4.45007e-11)
(0.000101448 -0.0617141 2.54039e-10)
(0.00010145 -0.0617141 3.9392e-11)
(1.34189e-05 -0.0215778 -2.61798e-09)
(1.34091e-05 -0.0215778 -1.16932e-09)
(1.22309e-05 -0.0216331 -2.41073e-09)
(1.2222e-05 -0.0216331 -1.06888e-09)
(0.000111403 -0.0615649 -2.73845e-11)
(0.000111403 -0.0615649 1.49475e-10)
(0.000101452 -0.0617141 1.18484e-11)
(0.000101452 -0.0617141 2.18359e-10)
(1.34084e-05 -0.0215779 -2.003e-10)
(1.34084e-05 -0.0215779 3.1521e-10)
(1.22213e-05 -0.0216331 -1.38414e-10)
(1.22213e-05 -0.0216331 3.80568e-10)
(0.000111401 -0.0615649 7.16537e-11)
(0.000111399 -0.0615648 -2.172e-10)
(0.00010145 -0.0617141 1.93475e-10)
(0.000101448 -0.0617141 -5.94454e-11)
(1.34091e-05 -0.0215778 1.29291e-09)
(1.34189e-05 -0.0215778 2.76667e-09)
(1.2222e-05 -0.0216331 1.31465e-09)
(1.22309e-05 -0.0216331 2.69331e-09)
(0.000111418 -0.0615648 1.79859e-08)
(0.000111536 -0.0615648 0.926824)
(0.000101466 -0.0617141 1.65171e-08)
(0.000101573 -0.0617141 0.927109)
(1.34914e-05 -0.0215778 -1.04006e-08)
(1.38051e-05 -0.0215778 0.914623)
(1.22972e-05 -0.0216331 -9.35756e-09)
(1.25835e-05 -0.0216331 0.914901)
(0.000133683 -0.0612268 -0.925724)
(0.000133544 -0.0612268 -2.10145e-08)
(0.00012223 -0.0614026 -0.926032)
(0.000122102 -0.0614026 -1.94244e-08)
(1.65109e-05 -0.0214526 -0.91355)
(1.6137e-05 -0.0214527 1.27392e-08)
(1.51121e-05 -0.0215177 -0.913851)
(1.47692e-05 -0.0215177 1.15504e-08)
(0.000133521 -0.0612268 6.07188e-10)
(0.000133524 -0.0612269 1.6113e-10)
(0.000122081 -0.0614026 4.58897e-10)
(0.000122084 -0.0614026 9.88902e-11)
(1.60506e-05 -0.0214527 -2.93451e-09)
(1.6039e-05 -0.0214527 -1.29759e-09)
(1.46901e-05 -0.0215178 -2.77945e-09)
(1.46794e-05 -0.0215178 -1.23961e-09)
(0.000133526 -0.0612269 -3.06216e-11)
(0.000133526 -0.0612269 7.16674e-11)
(0.000122086 -0.0614027 -3.89338e-11)
(0.000122086 -0.0614027 9.55879e-11)
(1.60381e-05 -0.0214527 -2.48541e-10)
(1.60381e-05 -0.0214527 2.43546e-10)
(1.46786e-05 -0.0215178 -2.35368e-10)
(1.46786e-05 -0.0215178 2.78641e-10)
(0.000133524 -0.0612269 -1.09962e-10)
(0.000133521 -0.0612268 -5.21942e-10)
(0.000122084 -0.0614026 -2.22489e-11)
(0.000122081 -0.0614026 -3.7224e-10)
(1.6039e-05 -0.0214527 1.30868e-09)
(1.60506e-05 -0.0214527 2.98475e-09)
(1.46794e-05 -0.0215178 1.30729e-09)
(1.46901e-05 -0.0215178 2.87212e-09)
(0.000133544 -0.0612268 2.11486e-08)
(0.000133683 -0.0612268 0.925724)
(0.000122102 -0.0614026 1.94674e-08)
(0.00012223 -0.0614026 0.926032)
(1.6137e-05 -0.0214527 -1.27054e-08)
(1.65109e-05 -0.0214526 0.91355)
(1.47693e-05 -0.0215177 -1.15348e-08)
(1.51121e-05 -0.0215177 0.913851)
(0.000159057 -0.060831 -0.924619)
(0.000158893 -0.060831 -2.4589e-08)
(0.000145949 -0.0610365 -0.924906)
(0.000145797 -0.0610365 -2.27745e-08)
(1.95981e-05 -0.0213061 -0.912472)
(1.91556e-05 -0.0213061 1.53569e-08)
(1.80038e-05 -0.0213822 -0.912753)
(1.75967e-05 -0.0213822 1.39563e-08)
(0.000158866 -0.060831 9.2453e-10)
(0.000158869 -0.060831 3.37197e-10)
(0.000145772 -0.0610365 7.49388e-10)
(0.000145776 -0.0610366 2.46937e-10)
(1.90535e-05 -0.0213062 -3.24453e-09)
(1.90398e-05 -0.0213062 -1.37529e-09)
(1.75027e-05 -0.0213822 -3.09798e-09)
(1.749e-05 -0.0213822 -1.34047e-09)
(0.000158872 -0.0608311 2.69759e-11)
(0.000158872 -0.0608311 5.48516e-11)
(0.000145778 -0.0610366 -8.3617e-12)
(0.000145778 -0.0610366 5.70514e-11)
(1.90387e-05 -0.0213062 -2.1945e-10)
(1.90387e-05 -0.0213062 2.4846e-10)
(1.74891e-05 -0.0213822 -2.43793e-10)
(1.74891e-05 -0.0213822 2.3373e-10)
(0.000158869 -0.060831 -2.60776e-10)
(0.000158866 -0.060831 -8.44452e-10)
(0.000145776 -0.0610366 -1.84367e-10)
(0.000145772 -0.0610365 -6.93149e-10)
(1.90398e-05 -0.0213062 1.40899e-09)
(1.90535e-05 -0.0213062 3.31084e-09)
(1.749e-05 -0.0213822 1.35049e-09)
(1.75027e-05 -0.0213822 3.12738e-09)
(0.000158893 -0.060831 2.47153e-08)
(0.000159057 -0.060831 0.924619)
(0.000145797 -0.0610365 2.28094e-08)
(0.000145949 -0.0610365 0.924906)
(1.91556e-05 -0.0213061 -1.53085e-08)
(1.95981e-05 -0.0213061 0.912472)
(1.75967e-05 -0.0213822 -1.40225e-08)
(1.80037e-05 -0.0213822 0.912753)
(0.000187973 -0.0603706 -0.923446)
(0.000187781 -0.0603706 -2.85907e-08)
(0.000173058 -0.0606092 -0.923761)
(0.000172881 -0.0606092 -2.65514e-08)
(2.3099e-05 -0.0211358 -0.911328)
(2.25792e-05 -0.0211358 1.82989e-08)
(2.12942e-05 -0.021224 -0.911635)
(2.08143e-05 -0.0212241 1.67817e-08)
(0.000187749 -0.0603706 1.29892e-09)
(0.000187753 -0.0603706 5.34523e-10)
(0.000172852 -0.0606092 1.11617e-09)
(0.000172856 -0.0606093 4.5539e-10)
(2.24593e-05 -0.0211358 -3.59465e-09)
(2.24432e-05 -0.0211358 -1.46648e-09)
(2.07035e-05 -0.0212241 -3.38617e-09)
(2.06886e-05 -0.0212241 -1.40122e-09)
(0.000187757 -0.0603706 8.19126e-11)
(0.000187757 -0.0603706 8.60612e-12)
(0.000172858 -0.0606093 7.43804e-11)
(0.000172858 -0.0606093 4.98697e-11)
(2.24419e-05 -0.0211358 -1.81142e-10)
(2.24419e-05 -0.0211358 2.85795e-10)
(2.06874e-05 -0.0212241 -1.89324e-10)
(2.06875e-05 -0.0212241 2.83254e-10)
(0.000187753 -0.0603706 -4.59241e-10)
(0.000187749 -0.0603706 -1.22848e-09)
(0.000172856 -0.0606093 -3.34323e-10)
(0.000172852 -0.0606092 -1.0121e-09)
(2.24432e-05 -0.0211358 1.54547e-09)
(2.24593e-05 -0.0211358 3.68258e-09)
(2.06886e-05 -0.0212241 1.50006e-09)
(2.07035e-05 -0.0212241 3.51368e-09)
(0.000187781 -0.0603706 2.87073e-08)
(0.000187973 -0.0603706 0.923446)
(0.000172881 -0.0606092 2.66139e-08)
(0.000173058 -0.0606092 0.923761)
(2.25793e-05 -0.0211358 -1.82453e-08)
(2.30991e-05 -0.0211358 0.911328)
(2.08143e-05 -0.0212241 -1.67504e-08)
(2.12942e-05 -0.0212241 0.911635)
(0.000220708 -0.0598386 -0.922252)
(0.000220485 -0.0598386 -3.29612e-08)
(0.000203849 -0.060114 -0.922557)
(0.000203642 -0.0601139 -3.07477e-08)
(2.70411e-05 -0.0209391 -0.910163)
(2.64346e-05 -0.0209391 2.15833e-08)
(2.5012e-05 -0.0210409 -0.910462)
(2.44501e-05 -0.0210409 1.98972e-08)
(0.000220448 -0.0598386 1.71366e-09)
(0.000220453 -0.0598387 6.97997e-10)
(0.000203608 -0.060114 1.50399e-09)
(0.000203613 -0.060114 6.30163e-10)
(2.62947e-05 -0.0209391 -4.03317e-09)
(2.62759e-05 -0.0209391 -1.62479e-09)
(2.43205e-05 -0.0210409 -3.76658e-09)
(2.43031e-05 -0.0210409 -1.51841e-09)
(0.000220457 -0.0598387 5.7112e-11)
(0.000220457 -0.0598387 -1.43725e-10)
(0.000203616 -0.060114 8.40479e-11)
(0.000203616 -0.060114 -5.79062e-11)
(2.62744e-05 -0.0209392 -2.24914e-10)
(2.62744e-05 -0.0209392 2.09019e-10)
(2.43017e-05 -0.0210409 -1.88239e-10)
(2.43017e-05 -0.0210409 2.66524e-10)
(0.000220453 -0.0598387 -7.78871e-10)
(0.000220448 -0.0598387 -1.74713e-09)
(0.000203613 -0.060114 -6.03151e-10)
(0.000203608 -0.060114 -1.47751e-09)
(2.62759e-05 -0.0209391 1.59494e-09)
(2.62947e-05 -0.0209391 3.99706e-09)
(2.43031e-05 -0.0210409 1.59179e-09)
(2.43205e-05 -0.0210409 3.84597e-09)
(0.000220485 -0.0598386 3.31076e-08)
(0.000220708 -0.0598387 0.922252)
(0.000203642 -0.060114 3.0775e-08)
(0.000203849 -0.060114 0.922557)
(2.64347e-05 -0.0209391 -2.16168e-08)
(2.70412e-05 -0.0209391 0.910163)
(2.44502e-05 -0.0210409 -1.99321e-08)
(2.50121e-05 -0.0210409 0.910462)
(0.000257516 -0.0592278 -0.921004)
(0.000257259 -0.0592277 -3.79279e-08)
(0.000238595 -0.0595435 -0.921334)
(0.000238355 -0.0595434 -3.54605e-08)
(3.14466e-05 -0.0207134 -0.908947)
(3.07434e-05 -0.0207134 2.52638e-08)
(2.91836e-05 -0.02083 -0.909268)
(2.853e-05 -0.02083 2.33381e-08)
(0.000257217 -0.0592278 2.16886e-09)
(0.000257223 -0.0592278 9.21989e-10)
(0.000238316 -0.0595435 1.91705e-09)
(0.000238322 -0.0595435 8.04332e-10)
(3.05813e-05 -0.0207134 -4.48134e-09)
(3.05595e-05 -0.0207135 -1.77706e-09)
(2.83793e-05 -0.0208301 -4.23005e-09)
(2.83591e-05 -0.0208301 -1.68305e-09)
(0.000257227 -0.0592278 9.33439e-11)
(0.000257227 -0.0592278 -2.28832e-10)
(0.000238325 -0.0595435 6.92861e-11)
(0.000238325 -0.0595435 -1.98392e-10)
(3.05578e-05 -0.0207135 -2.55392e-10)
(3.05578e-05 -0.0207135 1.57555e-10)
(2.83574e-05 -0.0208301 -2.36422e-10)
(2.83575e-05 -0.0208301 1.84232e-10)
(0.000257223 -0.0592278 -1.0537e-09)
(0.000257217 -0.0592278 -2.25732e-09)
(0.000238322 -0.0595435 -9.23627e-10)
(0.000238316 -0.0595435 -2.01674e-09)
(3.05595e-05 -0.0207135 1.67861e-09)
(3.05813e-05 -0.0207134 4.38028e-09)
(2.83591e-05 -0.0208301 1.64205e-09)
(2.83793e-05 -0.0208301 4.17617e-09)
(0.000257259 -0.0592278 3.80455e-08)
(0.000257516 -0.0592278 0.921004)
(0.000238355 -0.0595434 3.54113e-08)
(0.000238595 -0.0595435 0.921334)
(3.07435e-05 -0.0207134 -2.53216e-08)
(3.14466e-05 -0.0207134 0.908947)
(2.85301e-05 -0.02083 -2.35004e-08)
(2.91837e-05 -0.02083 0.909268)
(0.000298596 -0.0585305 -0.919733)
(0.000298301 -0.0585305 -4.34465e-08)
(0.000277516 -0.0588904 -0.920072)
(0.00027724 -0.0588903 -4.07101e-08)
(3.63292e-05 -0.020456 -0.907707)
(3.55194e-05 -0.0204561 2.93026e-08)
(3.38261e-05 -0.0205888 -0.908038)
(3.30708e-05 -0.0205888 2.71612e-08)
(0.000298253 -0.0585305 2.67361e-09)
(0.00029826 -0.0585305 1.19449e-09)
(0.000277196 -0.0588903 2.40203e-09)
(0.000277202 -0.0588904 1.05833e-09)
(3.53327e-05 -0.0204561 -4.96615e-09)
(3.53076e-05 -0.0204561 -1.93455e-09)
(3.28967e-05 -0.0205889 -4.71142e-09)
(3.28733e-05 -0.0205889 -1.84609e-09)
(0.000298265 -0.0585306 1.83908e-10)
(0.000298265 -0.0585306 -2.51997e-10)
(0.000277206 -0.0588904 1.39386e-10)
(0.000277206 -0.0588904 -2.47896e-10)
(3.53056e-05 -0.0204561 -2.54538e-10)
(3.53056e-05 -0.0204561 1.59562e-10)
(3.28714e-05 -0.0205889 -2.57504e-10)
(3.28715e-05 -0.0205889 1.5593e-10)
(0.00029826 -0.0585306 -1.26552e-09)
(0.000298253 -0.0585305 -2.72071e-09)
(0.000277202 -0.0588904 -1.16861e-09)
(0.000277196 -0.0588904 -2.5088e-09)
(3.53076e-05 -0.0204561 1.83663e-09)
(3.53327e-05 -0.0204561 4.87381e-09)
(3.28733e-05 -0.0205889 1.75824e-09)
(3.28967e-05 -0.0205889 4.61167e-09)
(0.000298301 -0.0585305 4.35782e-08)
(0.000298596 -0.0585306 0.919733)
(0.00027724 -0.0588903 4.064e-08)
(0.000277516 -0.0588904 0.920072)
(3.55194e-05 -0.0204561 -2.93531e-08)
(3.63293e-05 -0.020456 0.907707)
(3.30708e-05 -0.0205888 -2.7367e-08)
(3.38261e-05 -0.0205888 0.908038)
(0.000344069 -0.0577397 -0.918402)
(0.000343734 -0.0577396 -4.95212e-08)
(0.000320783 -0.0581472 -0.91875)
(0.000320469 -0.0581471 -4.65015e-08)
(4.16914e-05 -0.0201644 -0.906409)
(4.07647e-05 -0.0201645 3.37324e-08)
(3.89484e-05 -0.0203146 -0.906749)
(3.80813e-05 -0.0203147 3.13648e-08)
(0.000343679 -0.0577396 3.21995e-09)
(0.000343687 -0.0577397 1.47747e-09)
(0.000320418 -0.0581471 2.923e-09)
(0.000320425 -0.0581472 1.33028e-09)
(4.05511e-05 -0.0201645 -5.48938e-09)
(4.05224e-05 -0.0201645 -2.11112e-09)
(3.78815e-05 -0.0203147 -5.24287e-09)
(3.78547e-05 -0.0203147 -2.031e-09)
(0.000343692 -0.0577397 2.61808e-10)
(0.000343692 -0.0577397 -2.83921e-10)
(0.00032043 -0.0581472 2.20638e-10)
(0.00032043 -0.0581472 -2.74097e-10)
(4.05201e-05 -0.0201645 -2.73158e-10)
(4.05201e-05 -0.0201645 1.77492e-10)
(3.78525e-05 -0.0203147 -2.75755e-10)
(3.78525e-05 -0.0203147 1.56077e-10)
(0.000343687 -0.0577397 -1.48497e-09)
(0.000343679 -0.0577397 -3.20677e-09)
(0.000320425 -0.0581472 -1.37249e-09)
(0.000320418 -0.0581472 -2.9649e-09)
(4.05225e-05 -0.0201645 2.05105e-09)
(4.05511e-05 -0.0201645 5.44493e-09)
(3.78547e-05 -0.0203147 1.93549e-09)
(3.78815e-05 -0.0203147 5.13855e-09)
(0.000343734 -0.0577396 4.96332e-08)
(0.000344069 -0.0577397 0.918402)
(0.000320469 -0.0581471 4.64611e-08)
(0.000320783 -0.0581472 0.91875)
(4.07647e-05 -0.0201645 -3.37291e-08)
(4.16914e-05 -0.0201644 0.906409)
(3.80814e-05 -0.0203147 -3.15668e-08)
(3.89484e-05 -0.0203146 0.906749)
(0.000393994 -0.0568479 -0.917043)
(0.000393615 -0.0568478 -5.59782e-08)
(0.00036848 -0.0573067 -0.917408)
(0.000368123 -0.0573067 -5.27274e-08)
(4.7527e-05 -0.019836 -0.905083)
(4.64735e-05 -0.0198361 3.85876e-08)
(4.45487e-05 -0.0200049 -0.90544)
(4.35597e-05 -0.020005 3.60298e-08)
(0.000393554 -0.0568478 3.85682e-09)
(0.000393562 -0.0568479 1.80509e-09)
(0.000368065 -0.0573067 3.5297e-09)
(0.000368074 -0.0573067 1.63582e-09)
(4.62307e-05 -0.0198361 -6.02852e-09)
(4.61981e-05 -0.0198361 -2.27465e-09)
(4.33318e-05 -0.020005 -5.78199e-09)
(4.33012e-05 -0.020005 -2.21415e-09)
(0.000393568 -0.0568479 3.65194e-10)
(0.000393568 -0.0568479 -3.05855e-10)
(0.000368079 -0.0573068 3.02673e-10)
(0.000368079 -0.0573068 -3.08386e-10)
(4.61954e-05 -0.0198361 -2.42315e-10)
(4.61954e-05 -0.0198361 2.09049e-10)
(4.32987e-05 -0.020005 -2.82915e-10)
(4.32987e-05 -0.020005 1.80259e-10)
(0.000393562 -0.0568479 -1.73073e-09)
(0.000393554 -0.0568479 -3.77482e-09)
(0.000368074 -0.0573067 -1.61529e-09)
(0.000368065 -0.0573067 -3.50577e-09)
(4.61981e-05 -0.0198361 2.27003e-09)
(4.62307e-05 -0.0198361 6.04934e-09)
(4.33012e-05 -0.020005 2.15005e-09)
(4.33318e-05 -0.020005 5.72005e-09)
(0.000393615 -0.0568478 5.60932e-08)
(0.000393994 -0.0568479 0.917043)
(0.000368123 -0.0573067 5.27203e-08)
(0.00036848 -0.0573068 0.917408)
(4.64735e-05 -0.0198361 -3.85575e-08)
(4.7527e-05 -0.019836 0.905083)
(4.35597e-05 -0.020005 -3.61565e-08)
(4.45486e-05 -0.0200049 0.90544)
(0.000448315 -0.0558486 -0.915632)
(0.00044789 -0.0558485 -6.29621e-08)
(0.000420616 -0.056362 -0.916)
(0.000420214 -0.0563619 -5.94302e-08)
(5.38132e-05 -0.0194686 -0.903707)
(5.26235e-05 -0.0194686 4.37333e-08)
(5.06125e-05 -0.0196573 -0.904066)
(4.94919e-05 -0.0196573 4.10812e-08)
(0.000447821 -0.0558486 4.46027e-09)
(0.000447831 -0.0558486 2.09161e-09)
(0.000420149 -0.056362 4.14645e-09)
(0.000420158 -0.056362 1.94575e-09)
(5.23493e-05 -0.0194687 -6.6704e-09)
(5.23125e-05 -0.0194687 -2.49101e-09)
(4.92337e-05 -0.0196574 -6.36187e-09)
(4.9199e-05 -0.0196574 -2.39123e-09)
(0.000447837 -0.0558486 4.39817e-10)
(0.000447837 -0.0558486 -3.39126e-10)
(0.000420164 -0.056362 4.11313e-10)
(0.000420164 -0.056362 -3.08925e-10)
(5.23095e-05 -0.0194687 -2.17112e-10)
(5.23094e-05 -0.0194687 2.81432e-10)
(4.91962e-05 -0.0196574 -2.33381e-10)
(4.91962e-05 -0.0196574 2.45959e-10)
(0.000447831 -0.0558486 -1.96153e-09)
(0.000447821 -0.0558486 -4.32907e-09)
(0.000420158 -0.056362 -1.83626e-09)
(0.000420149 -0.056362 -4.05897e-09)
(5.23125e-05 -0.0194687 2.57102e-09)
(5.23493e-05 -0.0194687 6.76042e-09)
(4.9199e-05 -0.0196574 2.41281e-09)
(4.92337e-05 -0.0196574 6.3906e-09)
(0.00044789 -0.0558485 6.30629e-08)
(0.000448316 -0.0558486 0.915632)
(0.000420214 -0.0563619 5.94517e-08)
(0.000420616 -0.056362 0.916)
(5.26235e-05 -0.0194687 -4.36817e-08)
(5.38131e-05 -0.0194686 0.903707)
(4.94919e-05 -0.0196573 -4.10936e-08)
(5.06123e-05 -0.0196573 0.904066)
(0.000506882 -0.0547357 -0.914173)
(0.000506407 -0.0547356 -7.01142e-08)
(0.000477086 -0.0553066 -0.914553)