/*--------------------------------*- C++ -*----------------------------------*\
  =========                 |
  \\      /  F ield         | OpenFOAM: The Open Source CFD Toolbox
   \\    /   O peration     | Website:  https://openfoam.org
    \\  /    A nd           | Version:  9
     \\/     M anipulation  |
\*---------------------------------------------------------------------------*/
FoamFile
{
    format      ascii;
    class       volScalarField;
    location    "1.5";
    object      k;
}
// * * * * * * * * * * * * * * * * * * * * * * * * * * * * * * * * * * * * * //

dimensions      [0 2 -2 0 0 0 0];

internalField   nonuniform List<scalar> 
36360
(
0.0531613
0.0421904
0.0178967
0.0162666
0.0103685
0.00723722
0.00446485
0.00383819
0.0107816
0.00300764
0.0042062
0.00271551
0.00309287
0.00222884
0.00294829
0.00298819
0.00197869
0.00197876
0.00280321
0.00280322
0.00219427
0.00219427
0.00299868
0.00299868
0.00300678
0.0107786
0.00271547
0.00420558
0.00222883
0.00309249
0.0029882
0.00294826
0.0421911
0.0531737
0.0162648
0.0179001
0.00723721
0.0103706
0.00383806
0.00446506
0.101681
0.0818454
0.0814758
0.0647236
0.0301418
0.0213094
0.0213604
0.014668
0.036183
0.0118322
0.0243159
0.00572271
0.00854932
0.00252504
0.00483984
0.00203874
0.00256756
0.00256467
0.00186476
0.00186376
0.00143488
0.0014347
0.00169606
0.00169601
0.0118236
0.0361807
0.00571865
0.0243118
0.00252355
0.00854756
0.00203813
0.0048387
0.0818579
0.101714
0.0647298
0.0814986
0.0213127
0.0301528
0.0146692
0.0213669
0.124788
0.102076
0.115513
0.0938893
0.0403263
0.0296273
0.0362686
0.0262527
0.0514478
0.0222298
0.0451482
0.017784
0.0143318
0.00489409
0.0119144
0.00368853
0.00674857
0.00673889
0.00445703
0.00445029
0.00153803
0.0015366
0.00142063
0.00141977
0.0222182
0.05145
0.0177734
0.0451482
0.00488923
0.0143306
0.00368521
0.0119128
0.102101
0.124841
0.093908
0.115557
0.0296352
0.0403461
0.0262584
0.0362841
0.134667
0.110873
0.130854
0.107473
0.0445164
0.0331521
0.0429254
0.031813
0.0583195
0.0271807
0.0556607
0.0252643
0.0169053
0.00635176
0.0159275
0.00578331
0.00982368
0.00981136
0.00858061
0.00856924
0.00186905
0.00186627
0.00172418
0.00172193
0.0271685
0.0583254
0.0252524
0.0556649
0.00634523
0.016905
0.00577743
0.0159268
0.110907
0.134737
0.107503
0.130917
0.0331636
0.044543
0.0318229
0.0429489
0.13831
0.114121
0.136996
0.112952
0.0459735
0.0343683
0.0454606
0.0339437
0.0608448
0.0289633
0.059943
0.0283373
0.0177842
0.00685919
0.0174802
0.00668707
0.0109933
0.0109801
0.0105892
0.0105763
0.00201156
0.00200828
0.00196266
0.00195956
0.0289509
0.0608528
0.028325
0.0599502
0.00685203
0.0177844
0.00668015
0.0174802
0.114161
0.13839
0.11299
0.137072
0.0343819
0.0460042
0.0339564
0.0454896
0.139377
0.115064
0.139044
0.114772
0.0463668
0.0346859
0.0462501
0.0345952
0.061566
0.0294442
0.0613462
0.0293039
0.018011
0.00697933
0.0179462
0.00694768
0.0112816
0.0112679
0.0112051
0.0111916
0.00204439
0.00204096
0.00203654
0.00203316
0.0294316
0.0615749
0.0292914
0.0613548
0.00697198
0.0180113
0.0069404
0.0179465
0.115106
0.139462
0.114814
0.139127
0.0347003
0.0463992
0.0346093
0.0462819
0.139545
0.115211
0.139539
0.115206
0.0464169
0.0347169
0.0464199
0.0347246
0.0616818
0.0295116
0.0616774
0.0295148
0.01804
0.00699035
0.0180418
0.00699346
0.0113089
0.0112951
0.0113171
0.0113033
0.00204566
0.00204221
0.00204733
0.00204388
0.0294988
0.0616909
0.0295021
0.0616864
0.00698295
0.0180404
0.00698607
0.0180422
0.115254
0.139632
0.115249
0.139625
0.0347316
0.0464498
0.0347392
0.0464527
0.13947
0.115149
0.139539
0.115207
0.0463849
0.0346797
0.0464123
0.0347085
0.0616455
0.0294904
0.0616852
0.0295168
0.0180256
0.00698094
0.0180399
0.00698988
0.0112891
0.0112752
0.0113097
0.0112958
0.00204127
0.00203782
0.00204486
0.00204141
0.0294776
0.0616545
0.029504
0.0616942
0.00697351
0.018026
0.00698246
0.0180403
0.115193
0.139557
0.115251
0.139626
0.0346944
0.0464178
0.0347232
0.0464453
0.139296
0.115009
0.139411
0.115104
0.0463192
0.0346167
0.0463634
0.0346582
0.0615526
0.0294324
0.0616188
0.0294756
0.0179927
0.0069616
0.0180162
0.00697554
0.0112477
0.0112338
0.0112786
0.0112647
0.00203383
0.00203039
0.00203899
0.00203554
0.0294195
0.0615615
0.0294628
0.0616277
0.00695416
0.017993
0.00696811
0.0180166
0.115053
0.139383
0.115147
0.139498
0.0346314
0.0463521
0.0346729
0.0463964
0.139069
0.114831
0.139208
0.114943
0.0462363
0.0345413
0.0462884
0.0345885
0.0614303
0.0293544
0.0615106
0.0294077
0.0179495
0.00693658
0.0179784
0.00695358
0.011194
0.01118
0.0112313
0.0112173
0.0020247
0.00202127
0.00203075
0.00202732
0.0293414
0.061439
0.0293948
0.0615195
0.00692913
0.0179498
0.00694614
0.0179787
0.114874
0.139155
0.114986
0.139295
0.0345559
0.0462692
0.0346031
0.0463213
0.138801
0.114625
0.13896
0.11475
0.0461402
0.0344568
0.0461988
0.0345083
0.0612889
0.0292633
0.0613785
0.0293236
0.0178992
0.00690758
0.0179317
0.00692684
0.0111322
0.0111182
0.0111741
0.0111601
0.00201432
0.0020109
0.00202106
0.00201764
0.0292502
0.0612976
0.0293106
0.0613872
0.00690013
0.0178995
0.00691939
0.017932
0.114668
0.138887
0.114793
0.139046
0.0344713
0.046173
0.0345229
0.0462315
0.138496
0.114394
0.138673
0.114531
0.0460314
0.0343626
0.0460963
0.0344191
0.0611303
0.0291606
0.0612283
0.0292268
0.0178421
0.00687493
0.017878
0.00689607
0.0110631
0.0110491
0.0111091
0.0110951
0.00200272
0.00199932
0.00201012
0.00200671
0.0291474
0.0611388
0.0292137
0.0612369
0.00686747
0.0178423
0.00688862
0.0178783
0.114437
0.138582
0.114574
0.138759
0.034377
0.046064
0.0344335
0.046129
0.138154
0.114138
0.138349
0.114288
0.04591
0.0342591
0.0459812
0.0343203
0.060955
0.0290465
0.0610613
0.0291184
0.0177784
0.00683855
0.0178176
0.00686158
0.0109868
0.0109727
0.0110365
0.0110225
0.00198985
0.00198647
0.00199789
0.0019945
0.0290333
0.0609634
0.0291053
0.0610698
0.00683109
0.0177786
0.00685412
0.0178178
0.114181
0.138239
0.11433
0.138435
0.0342734
0.0459425
0.0343346
0.0460137
0.137774
0.113858
0.137988
0.11402
0.0457757
0.0341458
0.0458534
0.0342119
0.0607631
0.0289208
0.0608778
0.0289986
0.017708
0.00679833
0.0177506
0.00682331
0.0109029
0.0108888
0.0109565
0.0109424
0.00197568
0.00197232
0.00198438
0.00198101
0.0289075
0.0607713
0.0289854
0.0608861
0.00679087
0.0177081
0.00681584
0.0177507
0.1139
0.137859
0.114062
0.138073
0.03416
0.045808
0.0342262
0.0458858
0.137354
0.11355
0.137589
0.113726
0.0456275
0.0340216
0.0457123
0.0340934
0.0605529
0.0287828
0.0606769
0.0288669
0.0176302
0.00675401
0.0176766
0.00678107
0.010811
0.0107969
0.0108686
0.0108545
0.0019601
0.00195676
0.0019695
0.00196615
0.0287694
0.060561
0.0288535
0.0606851
0.00674654
0.0176303
0.0067736
0.0176767
0.113592
0.137439
0.113768
0.137674
0.0340357
0.0456597
0.0341075
0.0457445
0.136893
0.113215
0.137148
0.113405
0.0454649
0.0338856
0.045557
0.0339634
0.0603237
0.0286317
0.0604573
0.0287223
0.0175448
0.00670534
0.017595
0.00673459
0.0107107
0.0106966
0.0107725
0.0107584
0.00194303
0.00193972
0.00195317
0.00194984
0.0286182
0.0603315
0.0287089
0.0604653
0.00669788
0.0175448
0.00672713
0.017595
0.113257
0.136977
0.113446
0.137233
0.0338996
0.0454969
0.0339774
0.045589
0.136389
0.112849
0.136666
0.113054
0.045287
0.0337366
0.0453868
0.033821
0.0600741
0.0284669
0.0602181
0.0285644
0.0174511
0.00665211
0.0175055
0.00668366
0.0106017
0.0105875
0.0106679
0.0106537
0.00192442
0.00192114
0.00193532
0.00193202
0.0284533
0.0600818
0.0285509
0.0602258
0.00664465
0.017451
0.0066762
0.0175055
0.112891
0.136472
0.113096
0.13675
0.0337504
0.0453187
0.0338349
0.0454187
0.135839
0.112452
0.136139
0.112673
0.0450928
0.0335738
0.0452009
0.0336651
0.059803
0.0282877
0.0599578
0.0283925
0.0173489
0.00659409
0.0174076
0.00662804
0.0104835
0.0104693
0.0105542
0.01054
0.0019042
0.00190095
0.00191589
0.00191262
0.0282739
0.0598105
0.0283788
0.0599654
0.00658663
0.0173487
0.00662059
0.0174075
0.112493
0.135922
0.112714
0.136223
0.0335875
0.0451244
0.0336789
0.0452326
0.135241
0.112021
0.135565
0.112259
0.0448817
0.0333969
0.0449983
0.0334952
0.0595093
0.0280934
0.0596755
0.0282058
0.0172377
0.00653107
0.0173009
0.00656753
0.0103558
0.0103416
0.0104312
0.010417
0.00188232
0.0018791
0.00189482
0.00189159
0.0280795
0.0595165
0.028192
0.0596828
0.00652362
0.0172375
0.00656007
0.0173007
0.112062
0.135324
0.1123
0.135648
0.0334105
0.0449131
0.0335089
0.0450298
0.134594
0.111556
0.134943
0.111811
0.0446534
0.0332069
0.0447786
0.0333116
0.0591922
0.0278836
0.0593701
0.0280037
0.0171174
0.00646292
0.0171852
0.00650193
0.0102186
0.0102044
0.0102987
0.0102845
0.00185875
0.00185558
0.00187208
0.00186888
0.0278696
0.0591992
0.0279898
0.0593773
0.00645548
0.0171171
0.00649449
0.017185
0.111597
0.134676
0.111852
0.135025
0.0332203
0.0446845
0.0333251
0.0448098
0.133897
0.111057
0.134271
0.111329
0.0444074
0.0330028
0.0445415
0.0331148
0.0588515
0.0276581
0.0590412
0.0277861
0.0169878
0.00638954
0.0170603
0.00643115
0.0100717
0.0100575
0.0101566
0.0101423
0.0018335
0.00183036
0.00184764
0.00184448
0.027644
0.0588582
0.027772
0.0590481
0.0063821
0.0169874
0.00642371
0.0170599
0.111096
0.133979
0.111369
0.134353
0.033016
0.0444382
0.0331282
0.0445724
0.133152
0.110522
0.13355
0.110812
0.0441438
0.0327838
0.0442866
0.0329032
0.0584869
0.0274168
0.0586885
0.0275526
0.0168486
0.00631089
0.0169258
0.00635511
0.00991535
0.00990106
0.0100048
0.00999054
0.00180657
0.00180347
0.00182151
0.0018184
0.0274026
0.0584934
0.0275385
0.0586951
0.00630347
0.0168481
0.00634768
0.0169254
0.110561
0.133232
0.110851
0.133631
0.0327968
0.0441744
0.0329164
0.0443174
0.132358
0.109953
0.13278
0.11026
0.0438629
0.0325501
0.0440143
0.0326768
0.0580989
0.0271599
0.0583121
0.0273034
0.0166999
0.00622703
0.0167818
0.00627381
0.00974971
0.0097354
0.00984363
0.00982934
0.001778
0.00177496
0.00179373
0.00179066
0.0271455
0.0581051
0.0272891
0.0583184
0.00621962
0.0166993
0.00626639
0.0167813
0.109992
0.132438
0.110299
0.13286
0.032563
0.0438932
0.0326898
0.0440448
0.131518
0.109352
0.131963
0.109674
0.0435654
0.0323017
0.043725
0.0324358
0.0576883
0.0268878
0.0579125
0.0270388
0.016542
0.00613809
0.0166285
0.00618735
0.00957529
0.00956097
0.0096734
0.00965909
0.00174788
0.00174489
0.00176434
0.00176132
0.0268733
0.0576941
0.0270243
0.0579186
0.0061307
0.0165413
0.00617995
0.0166279
0.10939
0.131597
0.109713
0.132042
0.0323143
0.0435953
0.0324485
0.0437551
0.130636
0.108721
0.131101
0.109058
0.0432518
0.0320393
0.0434193
0.03218
0.0572564
0.0266015
0.057491
0.0267594
0.0163752
0.00604432
0.016466
0.00609592
0.00939279
0.00937845
0.0094947
0.00948038
0.00171632
0.00171339
0.00173345
0.00173048
0.0265868
0.057262
0.0267448
0.0574967
0.00603694
0.0163745
0.00608854
0.0164653
0.108759
0.130714
0.109096
0.13118
0.0320517
0.0432815
0.0321926
0.0434491
0.129712
0.108062
0.130198
0.108413
0.0429232
0.0317649
0.0430981
0.0319114
0.0568044
0.0263016
0.0570489
0.0264661
0.0162002
0.00594602
0.016295
0.0059998
0.00920303
0.00918869
0.00930831
0.00929397
0.00168347
0.00168059
0.00170119
0.00169828
0.0262867
0.0568096
0.0264513
0.0570543
0.00593866
0.0161993
0.00599243
0.0162942
0.108099
0.129789
0.10845
0.130276
0.0317771
0.0429525
0.0319238
0.0431276
0.128752
0.107376
0.129255
0.10774
0.042581
0.0314799
0.0427624
0.0316314
0.0563334
0.0259891
0.0565871
0.0261596
0.0160175
0.00584364
0.0161161
0.00589935
0.00900713
0.00899278
0.00911516
0.00910081
0.00164951
0.00164669
0.00166772
0.00166487
0.025974
0.0563383
0.0261447
0.0565922
0.00583631
0.0160165
0.00589201
0.0161152
0.107413
0.128828
0.107777
0.129332
0.0314919
0.04261
0.0316436
0.0427916
0.127759
0.106666
0.128278
0.107041
0.0422269
0.031187
0.042414
0.031342
0.055845
0.0256654
0.0561072
0.0258413
0.0158282
0.00573781
0.0159299
0.00579511
0.00880647
0.00879213
0.00891651
0.00890217
0.00161468
0.00161192
0.00163325
0.00163046
0.0256502
0.0558496
0.0258262
0.0561119
0.00573051
0.0158271
0.00578779
0.0159289
0.106702
0.127835
0.107078
0.128354
0.0311987
0.0422556
0.0313539
0.0424428
0.126738
0.105931
0.12727
0.106319
0.0418635
0.0308899
0.0420549
0.0310465
0.0553403
0.0253326
0.0556104
0.0255126
0.0156335
0.00562935
0.0157376
0.00568779
0.00860282
0.0085885
0.00871394
0.00869961
0.00157922
0.00157653
0.00159803
0.00159531
0.0253172
0.0553445
0.0254973
0.0556148
0.00562208
0.0156323
0.00568051
0.0157365
0.105967
0.126813
0.106355
0.127346
0.0309014
0.0418918
0.0310581
0.0420833
0.125699
0.10517
0.126239
0.10557
0.0414943
0.0305957
0.041688
0.0307505
0.0548231
0.0249941
0.0550984
0.0251763
0.0154352
0.00551922
0.0155409
0.00557832
0.0083982
0.00838391
0.00850937
0.00849507
0.00154342
0.0015408
0.00156233
0.00155967
0.0249785
0.054827
0.0251609
0.0551024
0.00551199
0.0154339
0.00557107
0.0155397
0.105204
0.125773
0.105605
0.126313
0.0306069
0.0415222
0.0307618
0.0417161
0.124654
0.1044
0.125195
0.104802
0.0411226
0.0302998
0.0413172
0.0304555
0.0543023
0.0246535
0.0545784
0.0248363
0.0152349
0.00540833
0.0153414
0.00546765
0.0081945
0.00818025
0.0083048
0.00829053
0.00150753
0.00150497
0.00152641
0.00152382
0.0246378
0.0543058
0.0248207
0.0545821
0.00540114
0.0152335
0.00546044
0.0153401
0.104434
0.124727
0.104836
0.125268
0.0303107
0.0411501
0.0304666
0.0413449
0.12361
0.103632
0.124149
0.104033
0.040751
0.0300033
0.0409452
0.030159
0.0537819
0.0243138
0.0540573
0.0244958
0.0150341
0.00529755
0.0151406
0.00535665
0.00799347
0.00797927
0.00810203
0.0080878
0.00147179
0.0014693
0.00149053
0.001488
0.0242979
0.053785
0.02448
0.0540606
0.0052904
0.0150325
0.00534948
0.0151391
0.103666
0.123682
0.104067
0.124222
0.030014
0.0407781
0.0301699
0.0409725
0.122573
0.102869
0.123109
0.103267
0.0403818
0.0297079
0.0405745
0.0298629
0.0532646
0.0239771
0.0535381
0.0241572
0.0148339
0.00518773
0.0149399
0.0052462
0.00779675
0.00778262
0.00790278
0.00788861
0.00143646
0.00143404
0.00145493
0.00145247
0.023961
0.0532674
0.0241412
0.0535411
0.00518064
0.0148323
0.00523908
0.0149383
0.102901
0.122644
0.1033
0.12318
0.0297183
0.0404085
0.0298734
0.0406014
0.121538
0.102105
0.122074
0.102504
0.0400147
0.0294137
0.0402067
0.0295682
0.0527492
0.023644
0.0530223
0.0238223
0.0146351
0.00507951
0.0147404
0.00513707
0.00760545
0.00759139
0.00770852
0.00769442
0.00140174
0.00139938
0.00141984
0.00141745
0.0236279
0.0527516
0.0238062
0.0530249
0.00507246
0.0146334
0.00513
0.0147387
0.102137
0.121608
0.102537
0.122145
0.0294239
0.040041
0.0295785
0.0402331
0.120478
0.101319
0.121033
0.101734
0.0396415
0.0291149
0.0398384
0.0292731
0.0522215
0.0233087
0.0525039
0.0234896
0.0144351
0.00497249
0.0145416
0.00502956
0.00741852
0.00740455
0.00751962
0.0075056
0.00136768
0.00136539
0.00138543
0.0013831
0.0232924
0.0522235
0.0234734
0.0525062
0.0049655
0.0144333
0.00502255
0.0145398
0.10135
0.120546
0.101766
0.121102
0.0291248
0.0396673
0.0292831
0.0398645
0.119298
0.100434
0.11993
0.100913
0.0392313
0.0287889
0.0394527
0.0289651
0.0516303
0.0229439
0.0519544
0.0231451
0.0142218
0.00486257
0.0143375
0.00492199
0.00722712
0.00721329
0.00733229
0.00731838
0.00133381
0.00133159
0.00135155
0.00134929
0.0229276
0.051632
0.0231288
0.0519563
0.00485566
0.0142198
0.00491503
0.0143356
0.100464
0.119365
0.100944
0.119998
0.0287984
0.0392564
0.0289749
0.0394782
0.117787
0.0992678
0.11862
0.0999203
0.0387047
0.0283736
0.0389984
0.0286059
0.0508366
0.0224654
0.051288
0.0227398
0.0139556
0.00473374
0.0141054
0.00480587
0.00699769
0.0069841
0.00712857
0.00711484
0.00129773
0.00129559
0.00131707
0.00131488
0.0224491
0.0508377
0.0227235
0.0512894
0.00472693
0.0139535
0.004799
0.0141034
0.0992967
0.117851
0.09995
0.118686
0.0283827
0.0387291
0.0286153
0.0390232
0.115588
0.0973258
0.116811
0.0984694
0.0379104
0.027709
0.0383601
0.0280971
0.0494602
0.0216445
0.0502784
0.0221327
0.0135238
0.00453591
0.0137785
0.00465224
0.00663156
0.0066184
0.00684896
0.00683555
0.00125111
0.00124909
0.00127734
0.00127525
0.0216282
0.0494605
0.0221164
0.0502792
0.00452928
0.0135215
0.00464551
0.0137764
0.0973529
0.11565
0.0984975
0.116875
0.0277175
0.0379337
0.0281059
0.038384
0.1131
0.0920054
0.114275
0.0955774
0.0366226
0.0261558
0.0373752
0.0271542
0.0462944
0.0200075
0.0482534
0.0209704
0.0125968
0.0041506
0.0131639
0.0043793
0.00595141
0.00593891
0.00634527
0.00633242
0.00117493
0.00117314
0.00121875
0.00121683
0.019991
0.0462933
0.0209541
0.0482531
0.00414428
0.0125941
0.00437281
0.0131615
0.092029
0.11316
0.0956032
0.114336
0.0261631
0.0366446
0.0271623
0.0373979
0.0750593
0.0592992
0.0262968
0.0216533
0.0678873
0.0536038
0.0234392
0.0194033
0.0181236
0.00420268
0.00508128
0.00279915
0.0153004
0.00367665
0.00469139
0.00277902
0.00201011
0.0020097
0.00281528
0.0028153
0.00198579
0.00198561
0.00284083
0.00284082
0.00419957
0.018117
0.00279881
0.00507957
0.00367464
0.0152951
0.0027788
0.00469014
0.0593032
0.0750847
0.0216506
0.0263068
0.0536061
0.0679069
0.0194008
0.0234461
0.141901
0.115376
0.113758
0.0912615
0.128116
0.103781
0.102924
0.0823003
0.0579949
0.0234386
0.0400244
0.0114525
0.0501033
0.0190118
0.0344421
0.00908066
0.00565052
0.00564192
0.00263604
0.00263349
0.0042881
0.00428211
0.00231534
0.0023138
0.0234243
0.057994
0.0114425
0.0400198
0.0189997
0.0501016
0.00907322
0.0344376
0.115399
0.141959
0.0912749
0.1138
0.1038
0.128164
0.0823103
0.102957
0.175492
0.144993
0.161782
0.132809
0.157654
0.129722
0.145682
0.119125
0.0812916
0.0405091
0.071574
0.0332108
0.0702034
0.0333709
0.061869
0.0272508
0.0168851
0.0168707
0.011488
0.0114743
0.0125325
0.0125194
0.00841685
0.00840527
0.0404951
0.0812999
0.0331958
0.0715776
0.0333575
0.0702087
0.0272373
0.0618707
0.145037
0.175582
0.132844
0.161857
0.129757
0.157728
0.119153
0.145744
0.19067
0.158607
0.184713
0.153252
0.17069
0.14137
0.165611
0.136821
0.0923069
0.049008
0.0879643
0.0456399
0.0794907
0.0403518
0.0758579
0.0376125
0.0239001
0.0238871
0.0210623
0.0210486
0.0178734
0.0178599
0.0157224
0.0157089
0.048997
0.0923234
0.0456275
0.087977
0.0403396
0.079502
0.0375997
0.0758665
0.158669
0.190787
0.153306
0.184819
0.141419
0.170787
0.136864
0.165697
0.196595
0.163946
0.194415
0.161982
0.175656
0.145823
0.173845
0.144199
0.0966278
0.0523399
0.0950457
0.051131
0.083034
0.0429958
0.0817497
0.0420486
0.0267034
0.026691
0.0256998
0.0256872
0.0199508
0.0199372
0.0192175
0.019204
0.0523305
0.0966492
0.0511211
0.095065
0.0429842
0.0830489
0.0420368
0.0817631
0.164017
0.196729
0.162049
0.194542
0.14588
0.175767
0.144253
0.17395
0.198448
0.165621
0.197851
0.165081
0.177163
0.147177
0.176685
0.146747
0.09797
0.0533407
0.0975419
0.0530304
0.0840971
0.0437574
0.0837641
0.0435265
0.0274992
0.0274867
0.0272652
0.0272529
0.0205101
0.0204962
0.0203514
0.0203377
0.0533317
0.0979934
0.0530213
0.0975646
0.0437458
0.0841134
0.043515
0.08378
0.165698
0.198591
0.165155
0.197991
0.147238
0.177281
0.146807
0.1768
0.198787
0.165945
0.198751
0.165901
0.177417
0.147417
0.1774
0.147394
0.0982325
0.0535228
0.0981981
0.053507
0.0842891
0.0438827
0.0842707
0.0438782
0.0276166
0.027604
0.0276222
0.0276097
0.020581
0.020567
0.0205904
0.0205764
0.0535136
0.0982564
0.0534979
0.0982219
0.0438709
0.0843058
0.0438666
0.0842873
0.166022
0.198933
0.165979
0.198896
0.14748
0.177537
0.147456
0.177519
0.198682
0.165873
0.198787
0.165954
0.177318
0.147347
0.177411
0.147419
0.0981928
0.053499
0.0982507
0.0535412
0.0842485
0.043859
0.0842993
0.0438946
0.0275965
0.0275838
0.0276342
0.0276216
0.0205596
0.0205455
0.0205904
0.0205764
0.0534897
0.0982167
0.053532
0.0982747
0.0438472
0.0842651
0.0438829
0.084316
0.165951
0.198828
0.166032
0.198933
0.14741
0.177438
0.147482
0.177531
0.198419
0.165672
0.198595
0.165811
0.177085
0.147169
0.177238
0.14729
0.0980584
0.0534085
0.0981579
0.0534796
0.08413
0.0437814
0.0842161
0.0438408
0.0275227
0.0275099
0.027583
0.0275703
0.0204985
0.0204843
0.0205466
0.0205324
0.0533991
0.0980821
0.0534702
0.0981818
0.0437695
0.0841465
0.043829
0.0842327
0.16575
0.198565
0.165889
0.198741
0.147231
0.177205
0.147353
0.177358
0.198081
0.165409
0.19829
0.165576
0.176786
0.146938
0.176969
0.147083
0.0978764
0.0532833
0.0979983
0.0533709
0.083972
0.0436757
0.0840769
0.0437489
0.0274213
0.0274084
0.0274948
0.0274819
0.0204165
0.0204023
0.0204749
0.0204606
0.0532737
0.0979
0.0533614
0.098022
0.0436637
0.0839884
0.0437369
0.0840934
0.165486
0.198227
0.165654
0.198435
0.147
0.176906
0.147146
0.177089
0.197691
0.165106
0.197924
0.165291
0.17644
0.146672
0.176645
0.146834
0.0976663
0.0531378
0.0978017
0.0532359
0.0837895
0.0435526
0.0839062
0.0436349
0.0273038
0.0272908
0.0273858
0.0273729
0.0203219
0.0203075
0.0203871
0.0203728
0.053128
0.0976896
0.0532262
0.0978252
0.0435405
0.0838056
0.0436228
0.0839225
0.165183
0.197836
0.165368
0.198069
0.146734
0.176559
0.146896
0.176764
0.197255
0.164769
0.197511
0.164971
0.17605
0.146375
0.176277
0.146552
0.0974322
0.0529753
0.0975796
0.0530824
0.0835854
0.0434147
0.0837128
0.0435047
0.0271732
0.0271601
0.0272625
0.0272495
0.0202163
0.0202018
0.0202877
0.0202733
0.0529654
0.0974552
0.0530726
0.0976028
0.0434024
0.0836013
0.0434925
0.0837289
0.164845
0.1974
0.165048
0.197655
0.146437
0.176169
0.146614
0.176396
0.196773
0.164398
0.197051
0.164617
0.175618
0.146047
0.175866
0.14624
0.0971744
0.0527963
0.0973336
0.0529118
0.08336
0.0432621
0.083498
0.0433595
0.0270296
0.0270164
0.0271261
0.027113
0.0200997
0.0200852
0.0201772
0.0201628
0.0527862
0.0971971
0.0529019
0.0973565
0.0432497
0.0833757
0.0433472
0.0835139
0.164474
0.196916
0.164693
0.197195
0.146109
0.175736
0.146301
0.175985
0.196243
0.163992
0.196545
0.164228
0.175141
0.145689
0.175411
0.145896
0.0968922
0.0526003
0.0970637
0.0527245
0.0831131
0.0430946
0.0832619
0.0431995
0.0268726
0.0268593
0.0269766
0.0269633
0.0199722
0.0199576
0.0200555
0.0200409
0.05259
0.0969147
0.0527143
0.0970864
0.043082
0.0831286
0.043187
0.0832776
0.164068
0.196386
0.164305
0.196689
0.145749
0.175258
0.145958
0.175529
0.195661
0.163547
0.19599
0.163803
0.174616
0.145296
0.174911
0.145521
0.0965839
0.0523863
0.0967686
0.0525195
0.0828429
0.0429112
0.0830035
0.0430242
0.0267016
0.0266882
0.0268128
0.0267994
0.0198329
0.0198182
0.0199222
0.0199075
0.0523757
0.096606
0.0525092
0.096791
0.0428985
0.0828582
0.0430115
0.083019
0.163623
0.195804
0.163879
0.196133
0.145356
0.174733
0.145582
0.175028
0.195026
0.163064
0.195382
0.16334
0.174043
0.144869
0.174362
0.145111
0.0962484
0.0521533
0.0964468
0.0522961
0.0825487
0.0427113
0.0827215
0.0428325
0.0265158
0.0265022
0.0266344
0.0266209
0.0196813
0.0196665
0.0197767
0.019762
0.0521425
0.0962703
0.0522855
0.0964689
0.0426983
0.0825637
0.0428197
0.0827366
0.163139
0.195168
0.163415
0.195524
0.144929
0.174159
0.145171
0.174479
0.194336
0.162541
0.19472
0.162837
0.173418
0.144405
0.173763
0.144666
0.0958849
0.0519006
0.0960973
0.0520533
0.0822294
0.042494
0.0824148
0.042624
0.0263144
0.0263006
0.0264408
0.0264272
0.0195166
0.0195017
0.0196186
0.0196037
0.0518896
0.0959064
0.0520424
0.0961191
0.0424809
0.0822441
0.042611
0.0824297
0.162616
0.194477
0.162911
0.194861
0.144465
0.173534
0.144725
0.173879
0.193586
0.161976
0.194
0.162294
0.172738
0.143904
0.173111
0.144184
0.0954914
0.051627
0.0957191
0.0517902
0.0818832
0.0422584
0.0820822
0.0423976
0.0260966
0.0260827
0.0262312
0.0262174
0.0193384
0.0193234
0.0194471
0.0194322
0.0516157
0.0955125
0.0517791
0.0957404
0.0422451
0.0818977
0.0423845
0.0820968
0.16205
0.193727
0.162368
0.194141
0.143962
0.172853
0.144243
0.173227
0.192775
0.161365
0.193219
0.161705
0.172001
0.143362
0.172403
0.143662
0.0950662
0.0513317
0.0953097
0.0515057
0.0815089
0.0420036
0.081722
0.0421524
0.0258619
0.0258478
0.0260049
0.0259909
0.019146
0.0191309
0.0192618
0.0192467
0.0513202
0.0950869
0.0514943
0.0953306
0.0419901
0.081523
0.0421391
0.0817363
0.161438
0.192914
0.161778
0.193359
0.14342
0.172115
0.14372
0.172517
0.191903
0.160712
0.192378
0.161071
0.171203
0.142775
0.171635
0.143098
0.0946106
0.0510146
0.0948691
0.0511995
0.0811048
0.0417288
0.0813329
0.0418877
0.0256097
0.0255954
0.0257614
0.0257472
0.0189391
0.0189238
0.0190621
0.0190469
0.0510027
0.0946308
0.0511878
0.0948896
0.0417151
0.0811186
0.0418741
0.0813469
0.160784
0.192041
0.161144
0.192516
0.142833
0.171317
0.143156
0.171749
0.190965
0.160014
0.191473
0.160398
0.170347
0.142143
0.170808
0.142488
0.0941222
0.0506743
0.0943974
0.0508708
0.0806707
0.0414338
0.0809137
0.0416027
0.0253395
0.025325
0.0255001
0.0254857
0.0187173
0.0187019
0.0188476
0.0188323
0.0506621
0.0941419
0.0508588
0.0944174
0.0414198
0.080684
0.0415889
0.0809272
0.160086
0.191102
0.16047
0.191611
0.142201
0.17046
0.142546
0.170922
0.189961
0.159267
0.190501
0.159675
0.169433
0.14147
0.169923
0.141835
0.0935996
0.0503104
0.0938918
0.0505186
0.0802067
0.0411184
0.0804646
0.0412974
0.0250511
0.0250363
0.0252206
0.025206
0.0184808
0.0184652
0.0186183
0.0186028
0.0502978
0.0936188
0.0505062
0.0939113
0.0411041
0.0802197
0.0412833
0.0804777
0.159338
0.190096
0.159747
0.190638
0.141526
0.169544
0.141892
0.170035
0.188891
0.158472
0.189464
0.158904
0.168459
0.140754
0.168979
0.141141
0.0930431
0.0499231
0.0933521
0.0501428
0.0797132
0.0407826
0.0799857
0.0409717
0.0247446
0.0247296
0.024923
0.0249081
0.0182296
0.0182139
0.0183743
0.0183586
0.0499102
0.0930618
0.0501301
0.0933711
0.0407681
0.0797257
0.0409573
0.0799985
0.158542
0.189026
0.158974
0.1896
0.14081
0.16857
0.141197
0.16909
0.187758
0.15763
0.188363
0.158085
0.167427
0.139997
0.167976
0.140404
0.0924533
0.0495127
0.0927788
0.0497438
0.0791901
0.0404267
0.0794773
0.0406257
0.0244206
0.0244054
0.0246075
0.0245924
0.0179643
0.0179484
0.0181158
0.0181
0.0494994
0.0924714
0.0497307
0.0927972
0.0404119
0.0792021
0.0406111
0.0794896
0.157699
0.187892
0.158154
0.188497
0.140052
0.167537
0.14046
0.168086
0.186565
0.156741
0.187199
0.157219
0.16634
0.139195
0.166915
0.139625
0.0918311
0.0490802
0.0921724
0.049322
0.0786375
0.0400516
0.0789391
0.0402599
0.0240801
0.0240646
0.0242748
0.0242595
0.0176858
0.0176697
0.0178436
0.0178276
0.0490665
0.0918486
0.0493085
0.0921902
0.0400364
0.0786491
0.0402449
0.078951
0.156809
0.186697
0.157287
0.187332
0.139249
0.166448
0.13968
0.167024
0.185317
0.15581
0.185977
0.156308
0.165203
0.138355
0.165803
0.138802
0.0911795
0.0486274
0.091535
0.0488789
0.0780592
0.0396588
0.0783731
0.0398756
0.0237243
0.0237086
0.0239263
0.0239107
0.0173952
0.017379
0.0175587
0.0175425
0.0486132
0.0911963
0.048865
0.0915522
0.0396434
0.0780703
0.0398604
0.0783845
0.155877
0.185447
0.156376
0.186109
0.138409
0.165311
0.138856
0.165911
0.184019
0.154842
0.184703
0.155358
0.164023
0.137484
0.164644
0.137947
0.090501
0.048156
0.0908694
0.0484164
0.0774575
0.0392501
0.0777828
0.0394745
0.023355
0.023339
0.0235633
0.0235474
0.0170942
0.0170778
0.0172625
0.0172461
0.0481414
0.0905173
0.048402
0.090886
0.0392344
0.0774681
0.039459
0.0777936
0.154908
0.184148
0.155424
0.184833
0.137537
0.164129
0.138
0.16475
0.182679
0.15384
0.183383
0.154372
0.162804
0.136583
0.163443
0.13706
0.0897992
0.0476687
0.0901786
0.0479366
0.0768349
0.0388275
0.0771701
0.0390585
0.0229743
0.022958
0.0231877
0.0231716
0.0167846
0.016768
0.0169567
0.0169402
0.0476537
0.0898147
0.0479218
0.0901946
0.0388115
0.076845
0.0390426
0.0771805
0.153905
0.182806
0.154438
0.183512
0.136635
0.162909
0.137112
0.163548
0.181304
0.152812
0.182024
0.153356
0.161554
0.135658
0.162207
0.136146
0.0890781
0.0471686
0.0894664
0.0474422
0.076195
0.0383939
0.0765382
0.0386298
0.0225849
0.0225683
0.0228021
0.0227857
0.0164687
0.0164519
0.0166434
0.0166267
0.0471531
0.089093
0.047427
0.0894817
0.0383775
0.0762045
0.0386136
0.0765481
0.152876
0.18143
0.153421
0.182151
0.135709
0.161658
0.136198
0.162311
0.179906
0.151764
0.180637
0.152317
0.160283
0.134715
0.160945
0.135211
0.0883431
0.0466592
0.0887375
0.0469368
0.0755427
0.0379527
0.0758912
0.0381917
0.0221897
0.0221728
0.0224091
0.0223924
0.0161492
0.0161323
0.0163251
0.0163083
0.0466432
0.0883573
0.046921
0.0887521
0.037936
0.0755517
0.0381752
0.0759005
0.151827
0.180031
0.15238
0.180762
0.134765
0.160385
0.135261
0.161048
0.178495
0.150704
0.17923
0.151262
0.159001
0.133762
0.159667
0.134261
0.0875995
0.0461445
0.0879974
0.046424
0.074884
0.0375078
0.0752349
0.0377481
0.0217918
0.0217747
0.0220119
0.0219949
0.0158288
0.0158117
0.0160046
0.0159876
0.046128
0.087613
0.0464079
0.0880113
0.0374907
0.0748925
0.0377312
0.0752437
0.150766
0.178617
0.151324
0.179354
0.133811
0.159102
0.134311
0.159769
0.17708
0.149639
0.177816
0.150198
0.157719
0.132807
0.158384
0.133306
0.0868525
0.0456282
0.0872514
0.0459078
0.0742238
0.0370624
0.0745748
0.0373024
0.0213946
0.0213772
0.0216136
0.0215963
0.0155102
0.015493
0.0156845
0.0156673
0.0456113
0.0868653
0.0458912
0.0872645
0.0370451
0.0742317
0.0372852
0.074583
0.1497
0.177201
0.15026
0.177938
0.132855
0.157819
0.133355
0.158485
0.175667
0.148573
0.176401
0.149132
0.156442
0.131853
0.157104
0.132352
0.086105
0.0451131
0.0865038
0.0453918
0.0735651
0.0366194
0.073915
0.0368578
0.0210008
0.0209831
0.0212175
0.0212
0.0151959
0.0151785
0.0153675
0.0153502
0.0450958
0.0861171
0.0453747
0.0865163
0.0366018
0.0735725
0.0368404
0.0739227
0.148632
0.175787
0.149192
0.176522
0.1319
0.156541
0.132399
0.157203
0.174248
0.147495
0.174988
0.148063
0.155165
0.130894
0.155829
0.131397
0.0853509
0.0445969
0.0857547
0.0448769
0.0729044
0.0361781
0.0732564
0.036416
0.0206111
0.0205932
0.0208257
0.0208079
0.014887
0.0148695
0.0150557
0.0150382
0.0445792
0.0853623
0.0448594
0.0857665
0.0361602
0.0729113
0.0363983
0.0732635
0.147553
0.174365
0.148122
0.175107
0.13094
0.155261
0.131444
0.155926
0.172768
0.146359
0.173549
0.146966
0.153844
0.129894
0.154538
0.130425
0.0845558
0.0440601
0.0849872
0.0443546
0.0722168
0.0357255
0.0725876
0.035972
0.0202169
0.0201988
0.0204356
0.0204177
0.0145791
0.0145615
0.0147482
0.0147307
0.044042
0.0845665
0.0443367
0.0849983
0.0357074
0.0722231
0.035954
0.0725942
0.146416
0.172883
0.147023
0.173666
0.129939
0.153939
0.130471
0.154634
0.171075
0.145027
0.171991
0.145757
0.152355
0.128742
0.153156
0.12937
0.0836141
0.0434339
0.0841387
0.0437863
0.0714203
0.0352121
0.0718612
0.0354988
0.0197796
0.0197614
0.0200277
0.0200095
0.0142488
0.0142312
0.014434
0.0144164
0.0434155
0.0836239
0.0437681
0.084149
0.0351938
0.0714259
0.0354806
0.0718672
0.145082
0.171188
0.145813
0.172105
0.128785
0.152447
0.129414
0.15325
0.168846
0.143179
0.170083
0.144224
0.150417
0.127167
0.15149