/*--------------------------------*- C++ -*----------------------------------*\
  =========                 |
  \\      /  F ield         | OpenFOAM: The Open Source CFD Toolbox
   \\    /   O peration     | Website:  https://openfoam.org
    \\  /    A nd           | Version:  9
     \\/     M anipulation  |
\*---------------------------------------------------------------------------*/
FoamFile
{
    format      ascii;
    class       surfaceScalarField;
    location    "1.5";
    object      phi;
}
// * * * * * * * * * * * * * * * * * * * * * * * * * * * * * * * * * * * * * //

dimensions      [0 3 -1 0 0 0 0];

internalField   nonuniform List<scalar> 
104044
(
3.07189e-07
-6.49568e-05
2.12625e-07
6.40031e-05
4.33861e-07
-4.6821e-05
-3.3328e-06
-1.08402e-07
4.94119e-05
1.15744e-06
1.40068e-07
2.78668e-07
3.73136e-08
-3.03361e-06
-5.54585e-08
1.03371e-06
2.95495e-08
-6.37104e-05
6.38935e-05
-4.93656e-05
-3.03947e-09
4.60654e-05
6.13402e-08
-3.13938e-08
-6.9985e-09
-5.39346e-05
-1.3979e-06
5.43842e-05
8.4687e-07
-5.61531e-05
-5.98655e-07
5.32372e-12
5.66136e-05
1.31193e-07
-2.15237e-09
-1.27981e-06
4.29484e-07
-1.04152e-06
-1.21217e-10
1.78785e-07
-9.5773e-09
-5.7337e-05
5.59457e-05
-5.67163e-05
-1.73396e-09
5.61098e-05
-4.21854e-09
-3.23e-10
1.90349e-13
-5.67473e-05
-6.9114e-07
5.72584e-05
1.79996e-07
-5.67472e-05
-6.91173e-07
-4.80702e-12
5.72583e-05
1.80019e-07
-1.07303e-13
-1.08499e-06
2.14285e-07
-1.08499e-06
1.21343e-10
2.14295e-07
-3.19211e-13
-5.63949e-05
5.5702e-05
-5.63947e-05
1.7346e-09
5.57017e-05
2.38538e-14
3.22872e-10
6.9962e-09
-5.61525e-05
-5.98687e-07
5.6613e-05
1.31229e-07
-5.39332e-05
-1.39786e-06
1.08382e-07
5.43828e-05
8.46899e-07
2.15165e-09
-1.04154e-06
1.78812e-07
-1.27978e-06
5.54488e-08
4.29518e-07
9.57374e-09
-5.67154e-05
5.61089e-05
-5.73354e-05
3.02698e-09
5.59441e-05
4.2172e-09
3.13958e-08
-3.07202e-07
-4.68192e-05
-3.33302e-06
4.94105e-05
1.15725e-06
-6.49595e-05
2.129e-07
6.40058e-05
4.33633e-07
-1.40076e-07
-3.03402e-06
1.03402e-06
2.78703e-07
3.72978e-08
-2.95064e-08
-4.93634e-05
4.60629e-05
-6.37154e-05
6.38988e-05
-6.13307e-08
3.44557e-07
-6.30272e-05
-6.71508e-07
6.20879e-05
1.26625e-06
-5.14498e-05
-1.55614e-07
-9.54357e-08
5.25565e-05
-5.11155e-07
3.47807e-07
-3.10216e-07
9.38305e-07
-2.02057e-06
-1.07938e-07
4.38489e-07
-1.20299e-07
-6.36195e-05
6.30683e-05
-4.39644e-05
1.00056e-07
4.35884e-05
-3.61501e-08
4.42134e-08
-1.54338e-08
-5.48337e-05
-1.64307e-06
5.50857e-05
1.31108e-06
-5.69627e-05
-5.48285e-07
-3.048e-09
5.70824e-05
4.16197e-07
-1.14022e-08
-1.88319e-06
1.33716e-06
-6.46981e-07
-1.23767e-09
2.87713e-07
-1.25381e-08
-5.41168e-05
5.25863e-05
-5.54565e-05
-7.54443e-09
5.49032e-05
-1.00885e-08
-3.72457e-09
1.17434e-11
-5.77587e-05
-3.50285e-07
5.80437e-05
6.22036e-08
-5.77586e-05
-3.50303e-07
3.07834e-09
5.80437e-05
6.21683e-08
1.48735e-12
-6.32681e-07
1.31226e-07
-6.32763e-07
1.23935e-09
1.31247e-07
1.54742e-12
-5.50656e-05
5.47078e-05
-5.50653e-05
7.56021e-09
5.47074e-05
-6.44443e-14
3.72769e-09
1.54342e-08
-5.69621e-05
-5.48162e-07
5.70818e-05
4.16104e-07
-5.48323e-05
-1.64313e-06
9.54208e-08
5.50844e-05
1.31112e-06
1.13987e-08
-6.46954e-07
2.87662e-07
-1.88323e-06
1.07917e-07
1.3372e-06
1.25343e-08
-5.54556e-05
5.49024e-05
-5.41152e-05
-1.00093e-07
5.25847e-05
1.00855e-08
-4.42366e-08
-3.44557e-07
-5.14488e-05
-1.55201e-07
5.25557e-05
-5.11746e-07
-6.30298e-05
-6.7172e-07
6.20904e-05
1.26658e-06
-3.47819e-07
-2.0205e-06
4.37998e-07
-3.10221e-07
9.38356e-07
1.2044e-07
-4.39619e-05
4.35862e-05
-6.36248e-05
6.30736e-05
3.62359e-08
2.41937e-07
-6.13138e-05
-1.1324e-06
6.06523e-05
1.55188e-06
-5.32592e-05
1.48384e-06
-3.32292e-08
5.37943e-05
-1.74376e-06
2.999e-07
-9.66208e-07
1.44046e-06
8.93959e-07
-6.66679e-08
-1.23004e-06
-3.22001e-07
-6.23197e-05
6.15093e-05
-4.4106e-05
2.16892e-07
4.5051e-05
-2.1769e-07
1.58715e-07
-1.33476e-08
-5.5137e-05
-7.68353e-07
5.51181e-05
7.6731e-07
-5.70465e-05
-2.13991e-07
-7.36012e-09
5.69505e-05
3.03973e-07
-1.47552e-08
-1.135e-06
1.03183e-06
-3.55539e-07
-4.65948e-09
3.81347e-07
-1.08891e-08
-5.16227e-05
5.10822e-05
-5.45451e-05
-1.24002e-08
5.43326e-05
-1.27214e-08
-1.01726e-08
-1.01642e-11
-5.81227e-05
4.28247e-08
5.80905e-05
-1.80156e-08
-5.81227e-05
4.28655e-08
7.44789e-09
5.80906e-05
-1.81971e-08
2.41721e-11
-9.08718e-08
7.22094e-09
-9.08462e-08
4.7608e-09
7.08071e-09
7.42834e-12
-5.46067e-05
5.46371e-05
-5.46064e-05
1.24262e-08
5.46368e-05
6.11272e-12
1.01946e-08
1.34108e-08
-5.70458e-05
-2.13922e-07
5.69498e-05
3.03985e-07
-5.51357e-05
-7.68476e-07
3.31888e-08
5.51169e-05
7.67507e-07
1.50104e-08
-3.55402e-07
3.81154e-07
-1.13508e-06
6.67048e-08
1.03203e-06
1.08905e-08
-5.45445e-05
5.43321e-05
-5.1621e-05
-2.16962e-07
5.10804e-05
1.27111e-08
-1.58763e-07
-2.41919e-07
-5.32585e-05
1.48441e-06
5.37938e-05
-1.74451e-06
-6.13161e-05
-1.13305e-06
6.06545e-05
1.55273e-06
-2.99877e-07
8.94429e-07
-1.23069e-06
-9.66674e-07
1.44109e-06
3.22263e-07
-4.4104e-05
4.50492e-05
-6.23248e-05
6.1514e-05
2.17892e-07
1.05927e-07
-6.00946e-05
-1.30526e-06
5.96079e-05
1.686e-06
-5.42304e-05
1.86256e-06
2.50259e-08
5.46112e-05
-2.16249e-06
1.7201e-07
-1.2236e-06
1.60935e-06
1.74758e-06
5.75387e-10
-2.01226e-06
-5.0099e-07
-6.06985e-05
5.98942e-05
-4.61232e-05
3.04176e-07
4.71806e-05
-4.12749e-07
2.62616e-07
-7.26075e-09
-5.5107e-05
-4.19199e-07
5.51096e-05
4.48909e-07
-5.68433e-05
-1.22722e-07
-1.41645e-08
5.67485e-05
2.24432e-07
-1.69328e-08
-5.34837e-07
5.63485e-07
-1.4066e-07
-1.24526e-08
2.43363e-07
-1.14755e-09
-5.08167e-05
5.07028e-05
-5.4199e-05
-1.45439e-08
5.40897e-05
-6.74284e-09
-1.37595e-08
2.28497e-12
-5.80216e-05
6.05894e-08
5.79492e-05
-2.34079e-09
-5.80217e-05
6.05861e-08
1.41658e-08
5.79493e-05
-2.34758e-09
1.15843e-11
7.62087e-08
-1.97708e-08
7.62311e-08
1.24685e-08
-1.97908e-08
1.43352e-13
-5.46996e-05
5.47456e-05
-5.46993e-05
1.45415e-08
5.47453e-05
3.62188e-12
1.37689e-08
7.23784e-09
-5.68426e-05
-1.22756e-07
5.67478e-05
2.24485e-07
-5.51059e-05
-4.19266e-07
-2.50528e-08
5.51085e-05
4.48908e-07
1.6913e-08
-1.40655e-07
2.43398e-07
-5.34932e-07
-6.06762e-10
5.63501e-07
1.12151e-09
-5.41985e-05
5.40892e-05
-5.08149e-05
-3.04281e-07
5.07011e-05
6.72893e-09
-2.62703e-07
-1.05852e-07
-5.423e-05
1.86332e-06
5.4611e-05
-2.16349e-06
-6.00966e-05
-1.30606e-06
5.96097e-05
1.68707e-06
-1.71956e-07
1.74825e-06
-2.01316e-06
-1.22434e-06
1.61032e-06
5.01364e-07
-4.61216e-05
4.71793e-05
-6.07027e-05
5.9898e-05
4.13066e-07
-1.38153e-08
-5.91861e-05
-1.36865e-06
5.88057e-05
1.76287e-06
-5.49144e-05
1.80086e-06
9.91327e-08
5.51648e-05
-2.16421e-06
4.24473e-08
-1.33794e-06
1.71727e-06
1.83783e-06
7.35338e-08
-2.17208e-06
-6.32669e-07
-5.91234e-05
5.83874e-05
-4.81211e-05
3.54571e-07
4.89347e-05
-5.67087e-07
3.30226e-07
7.08528e-09
-5.5147e-05
-3.09127e-07
5.51951e-05
3.53061e-07
-5.66662e-05
-1.44895e-07
-1.34342e-08
5.65932e-05
2.38383e-07
-2.39437e-10
-3.44252e-07
3.80588e-07
-1.28292e-07
-1.42268e-08
2.24631e-07
1.2552e-08
-5.06833e-05
5.07162e-05
-5.39809e-05
-1.2931e-08
5.38615e-05
5.45502e-09
-1.40799e-08
-3.4184e-12
-5.78781e-05
-5.73309e-09
5.78051e-05
6.52292e-08
-5.78782e-05
-5.74698e-09
1.34176e-08
5.78053e-05
6.52421e-08
-1.74071e-12
2.75588e-08
2.93445e-08
2.75462e-08
1.4218e-08
2.93499e-08
-4.97289e-12
-5.47591e-05
5.47404e-05
-5.47588e-05
1.29107e-08
5.47401e-05
-3.28563e-12
1.40683e-08
-7.12734e-09
-5.66655e-05
-1.44946e-07
5.65925e-05
2.38435e-07
-5.5146e-05
-3.09115e-07
-9.92043e-08
5.51942e-05
3.53003e-07
2.065e-10
-1.28339e-07
2.24688e-07
-3.44272e-07
-7.36061e-08
3.80557e-07
-1.25946e-08
-5.39804e-05
5.3861e-05
-5.06816e-05
-3.54695e-07
5.07146e-05
-5.48976e-09
-3.30342e-07
1.39361e-08
-5.49142e-05
1.80171e-06
5.51647e-05
-2.16534e-06
-5.91877e-05
-1.36948e-06
5.88071e-05
1.76402e-06
-4.23519e-08
1.83864e-06
-2.17314e-06
-1.33875e-06
1.71837e-06
6.33132e-07
-4.81201e-05
4.8934e-05
-5.91268e-05
5.83904e-05
5.67504e-07
-1.05325e-07
-5.84659e-05
-1.35246e-06
5.81516e-05
1.77213e-06
-5.53584e-05
1.65599e-06
1.27168e-07
5.55052e-05
-2.03531e-06
-6.25455e-08
-1.3559e-06
1.75827e-06
1.71496e-06
1.14725e-07
-2.08581e-06
-7.21466e-07
-5.77064e-05
5.70754e-05
-4.96097e-05
3.77378e-07
5.01669e-05
-6.74919e-07
3.65013e-07
1.8668e-08
-5.52445e-05
-2.72683e-07
5.52912e-05
3.3445e-07
-5.65272e-05
-1.65876e-07
-9.29308e-09
5.6462e-05
2.59042e-07
1.39072e-08
-2.83338e-07
3.3482e-07
-1.56178e-07
-1.13886e-08
2.47507e-07
2.6198e-08
-5.07785e-05
5.0857e-05
-5.37353e-05
-9.49821e-09
5.36051e-05
1.93465e-08
-1.0606e-08
-4.79634e-12
-5.77311e-05
-6.15044e-08
5.76527e-05
1.30606e-07
-5.77312e-05
-6.15147e-08
9.27913e-09
5.76528e-05
1.30616e-07
-1.15342e-12
-3.61456e-08
9.8821e-08
-3.6163e-08
1.13728e-08
9.88355e-08
-4.95205e-12
-5.46937e-05
5.46227e-05
-5.46934e-05
9.48453e-09
5.46224e-05
-4.29273e-12
1.05762e-08
-1.87063e-08
-5.65265e-05
-1.65923e-07
5.64613e-05
2.59083e-07
-5.52436e-05
-2.72631e-07
-1.27241e-07
5.52905e-05
3.3436e-07
-1.39122e-08
-1.56233e-07
2.47547e-07
-2.83299e-07
-1.14789e-07
3.34749e-07
-2.62503e-08
-5.37347e-05
5.36045e-05
-5.07771e-05
-3.77507e-07
5.08557e-05
-1.93964e-08
-3.6514e-07
1.05493e-07
-5.53584e-05
1.65687e-06
5.55053e-05
-2.03648e-06
-5.84671e-05
-1.35329e-06
5.81526e-05
1.77329e-06
6.26918e-08
1.71582e-06
-2.08696e-06
-1.35673e-06
1.75942e-06
7.21994e-07
-4.96093e-05
5.01666e-05
-5.77091e-05
5.70778e-05
6.75412e-07
-1.6982e-07
-5.78653e-05
-1.29936e-06
5.75952e-05
1.73926e-06
-5.56061e-05
1.51486e-06
1.38093e-07
5.56707e-05
-1.88738e-06
-1.39128e-07
-1.31659e-06
1.74203e-06
1.56885e-06
1.32828e-07
-1.94175e-06
-7.773e-07
-5.65039e-05
5.59818e-05
-5.0613e-05
3.82494e-07
5.0968e-05
-7.45064e-07
3.77664e-07
2.6982e-08
-5.53295e-05
-2.59665e-07
5.53573e-05
3.42972e-07
-5.63977e-05
-1.69902e-07
-6.77839e-09
5.63308e-05
2.70505e-07
2.27662e-08
-2.60777e-07
3.32533e-07
-1.67307e-07
-8.03496e-09
2.62406e-07
3.78502e-08
-5.09419e-05
5.10269e-05
-5.3478e-05
-7.05189e-09
5.3353e-05
3.19955e-08
-8.26665e-09
-5.73573e-12
-5.75683e-05
-9.21507e-08
5.7476e-05
1.77689e-07
-5.75685e-05
-9.21508e-08
6.76051e-09
5.74762e-05
1.77689e-07
-5.19168e-12
-7.80413e-08
1.54367e-07
-7.80458e-08
8.01944e-09
1.54371e-07
-5.90055e-12
-5.45364e-05
5.44372e-05
-5.45361e-05
7.03369e-09
5.44369e-05
-5.37298e-12
8.25077e-09
-2.70238e-08
-5.63971e-05
-1.69936e-07
5.63302e-05
2.70537e-07
-5.53288e-05
-2.59604e-07
-1.38161e-07
5.53567e-05
3.42874e-07
-2.28037e-08
-1.67346e-07
2.62441e-07
-2.60717e-07
-1.32898e-07
3.32438e-07
-3.79093e-08
-5.34775e-05
5.33525e-05
-5.09407e-05
-3.82617e-07
5.10258e-05
-3.20509e-08
-3.7779e-07
1.70029e-07
-5.56063e-05
1.51572e-06
5.56709e-05
-1.88854e-06
-5.78662e-05
-1.30017e-06
5.7596e-05
1.74041e-06
1.39316e-07
1.56971e-06
-1.94291e-06
-1.3174e-06
1.74317e-06
7.7787e-07
-5.06129e-05
5.09682e-05
-5.6506e-05
5.59837e-05
7.4561e-07
-2.13162e-07
-5.73443e-05
-1.24242e-06
5.71031e-05
1.69677e-06
-5.5701e-05
1.39596e-06
1.39135e-07
5.57033e-05
-1.75049e-06
-1.91822e-07
-1.25944e-06
1.70218e-06
1.4398e-06
1.38148e-07
-1.80006e-06
-8.10286e-07
-5.55107e-05
5.50786e-05
-5.12423e-05
3.78903e-07
5.1449e-05
-7.88357e-07
3.77214e-07
3.39056e-08
-5.53721e-05
-2.62405e-07
5.53732e-05
3.66463e-07
-5.62611e-05
-1.69403e-07
-3.8431e-09
5.61861e-05
2.8218e-07
3.03098e-08
-2.56171e-07
3.49227e-07
-1.67937e-07
-5.28442e-09
2.7328e-07
4.69847e-08
-5.11056e-05
5.11752e-05
-5.3233e-05
-4.20627e-09
5.31148e-05
4.2316e-08
-5.59842e-09
-6.73395e-12
-5.73778e-05
-1.12967e-07
5.72717e-05
2.15208e-07
-5.73779e-05
-1.12966e-07
3.82106e-09
5.72719e-05
2.15209e-07
-6.18744e-12
-1.02106e-07
1.95055e-07
-1.02106e-07
5.26457e-09
1.95055e-07
-6.88949e-12
-5.43295e-05
5.42123e-05
-5.43292e-05
4.18404e-09
5.4212e-05
-6.34824e-12
5.57831e-09
-3.39544e-08
-5.62605e-05
-1.69426e-07
5.61855e-05
2.82199e-07
-5.53715e-05
-2.62364e-07
-1.39196e-07
5.53728e-05
3.66378e-07
-3.03547e-08
-1.67965e-07
2.73305e-07
-2.56116e-07
-1.38213e-07
3.49133e-07
-4.70486e-08
-5.32325e-05
5.31143e-05
-5.11047e-05
-3.79066e-07
5.11743e-05
-4.23771e-08
-3.77331e-07
2.13399e-07
-5.57012e-05
1.3968e-06
5.57034e-05
-1.75163e-06
-5.73449e-05
-1.24321e-06
5.71037e-05
1.69789e-06
1.92045e-07
1.44064e-06
-1.8012e-06
-1.26023e-06
1.7033e-06
8.1088e-07
-5.12425e-05
5.14494e-05
-5.55124e-05
5.50801e-05
7.88935e-07
-2.41427e-07
-5.68744e-05
-1.19313e-06
5.66497e-05
1.65924e-06
-5.56795e-05
1.29725e-06
1.34878e-07
5.56334e-05
-1.62747e-06
-2.26512e-07
-1.20594e-06
1.66115e-06
1.33255e-06
1.36049e-07
-1.67137e-06
-8.27213e-07
-5.46848e-05
5.43189e-05
-5.15964e-05
3.73786e-07
5.16926e-05
-8.12142e-07
3.7307e-07
3.95849e-08
-5.536e-05
-2.77333e-07
5.53316e-05
4.01034e-07
-5.61062e-05
-1.70473e-07
-8.58996e-10
5.6019e-05
2.9815e-07
3.65133e-08
-2.65404e-07
3.78208e-07
-1.6763e-07
-2.31502e-09
2.86285e-07
5.3618e-08
-5.12327e-05
5.12756e-05
-5.3e-05
-1.31243e-09
5.28844e-05
5.0089e-08
-2.72002e-09
-7.64821e-12
-5.71597e-05
-1.31097e-07
5.70394e-05
2.50601e-07
-5.71599e-05
-1.31096e-07
8.33479e-10
5.70396e-05
2.50603e-07
-7.14867e-12
-1.20925e-07
2.3058e-07
-1.20924e-07
2.29136e-09
2.30581e-07
-7.76858e-12
-5.40887e-05
5.39563e-05
-5.40884e-05
1.2869e-09
5.3956e-05
-7.29684e-12
2.69626e-09
-3.96397e-08
-5.61057e-05
-1.70483e-07
5.60185e-05
2.98156e-07
-5.53595e-05
-2.77315e-07
-1.34929e-07
5.53312e-05
4.00966e-07
-3.65647e-08
-1.67645e-07
2.86294e-07
-2.65378e-07
-1.36105e-07
3.78135e-07
-5.36838e-08
-5.29995e-05
5.2884e-05
-5.1232e-05
-3.73943e-07
5.1275e-05
-5.01535e-08
-3.73229e-07
2.41682e-07
-5.56797e-05
1.29806e-06
5.56336e-05
-1.62857e-06
-5.68749e-05
-1.19388e-06
5.66501e-05
1.66033e-06
2.26757e-07
1.33337e-06
-1.67248e-06
-1.2067e-06
1.66224e-06
8.27818e-07
-5.15968e-05
5.16931e-05
-5.46862e-05
5.43201e-05
8.12736e-07
-2.59556e-07
-5.64321e-05
-1.15623e-06
5.62141e-05
1.63377e-06
-5.55666e-05
1.21443e-06
1.28262e-07
5.54812e-05
-1.5168e-06
-2.49132e-07
-1.16397e-06
1.63065e-06
1.24412e-06
1.30497e-07
-1.55696e-06
-8.33844e-07
-5.39786e-05
5.36563e-05
-5.17464e-05
3.65929e-07
5.17611e-05
-8.23725e-07
3.66593e-07
4.42589e-08
-5.52882e-05
-2.99739e-07
5.52288e-05
4.43088e-07
-5.5925e-05
-1.7607e-07
1.93199e-09
5.58214e-05
3.2197e-07
4.16387e-08
-2.84788e-07
4.17059e-07
-1.70965e-07
5.64664e-10
3.06073e-07
5.81218e-08
-5.13018e-05
5.13099e-05
-5.2769e-05
1.39577e-09
5.26496e-05
5.55795e-08
7.40615e-11
-8.65121e-12
-5.69126e-05
-1.48981e-07
5.67765e-05
2.87028e-07
-5.69128e-05
-1.48981e-07
-1.96051e-09
5.67767e-05
2.87031e-07
-8.00417e-12
-1.38665e-07
2.66012e-07
-1.38665e-07
-5.91428e-10
2.66014e-07
-9.24955e-12
-5.38177e-05
5.36701e-05
-5.38174e-05
-1.42406e-09
5.36699e-05
-8.10414e-12
-1.00633e-10
-4.43186e-08
-5.59245e-05
-1.76073e-07
5.5821e-05
3.21974e-07
-5.52878e-05
-2.99738e-07
-1.28303e-07
5.52285e-05
4.43033e-07
-4.16957e-08
-1.70972e-07
3.06078e-07
-2.84778e-07
-1.30542e-07
4.16997e-07
-5.81839e-08
-5.27685e-05
5.26492e-05
-5.13013e-05
-3.66077e-07
5.13094e-05
-5.56445e-08
-3.66745e-07
2.59821e-07
-5.55668e-05
1.2152e-06
5.54813e-05
-1.51787e-06
-5.64325e-05
-1.15695e-06
5.62144e-05
1.63482e-06
2.4939e-07
1.2449e-06
-1.55803e-06
-1.1647e-06
1.63171e-06
8.34451e-07
-5.17469e-05
5.17616e-05
-5.39797e-05
5.36572e-05
8.24327e-07
-2.70688e-07
-5.59989e-05
-1.1294e-06
5.57792e-05
1.61978e-06
-5.53786e-05
1.14355e-06
1.20768e-07
5.52583e-05
-1.41476e-06
-2.63199e-07
-1.13201e-06
1.61043e-06
1.16764e-06
1.23327e-07
-1.45156e-06
-8.33219e-07
-5.33502e-05
5.3054e-05
-5.1745e-05
3.56548e-07
5.16988e-05
-8.25973e-07
3.57759e-07
4.81321e-08
-5.51541e-05
-3.25241e-07
5.50626e-05
4.8933e-07
-5.57093e-05
-1.86218e-07
4.40361e-09
5.55857e-05
3.53605e-07
4.58204e-08
-3.08401e-07
4.60639e-07
-1.78686e-07
3.18137e-09
3.33377e-07
6.02359e-08
-5.13001e-05
5.12712e-05
-5.25274e-05
3.71821e-09
5.23977e-05
5.91115e-08
2.60868e-09
-1.63286e-11
-5.66331e-05
-1.67806e-07
5.64789e-05
3.26389e-07
-5.66333e-05
-1.6782e-07
-4.4476e-09
5.64792e-05
3.26397e-07
-1.06319e-11
-1.56624e-07
3.03207e-07
-1.56627e-07
-3.21273e-09
3.03211e-07
-5.54858e-11
-5.35161e-05
5.33521e-05
-5.35159e-05
-3.90583e-09
5.33519e-05
-1.75736e-11
-2.64661e-09
-4.81788e-08
-5.5709e-05
-1.8626e-07
5.55853e-05
3.53606e-07
-5.51538e-05
-3.25199e-07
-1.20807e-07
5.50624e-05
4.89276e-07
-4.58787e-08
-1.78687e-07
3.33379e-07
-3.08405e-07
-1.23362e-07
4.60586e-07
-6.07593e-08
-5.2527e-05
5.23976e-05
-5.12998e-05
-3.56831e-07
5.12707e-05
-5.91414e-08
-3.57907e-07
2.70952e-07
-5.53787e-05
1.14432e-06
5.52584e-05
-1.4158e-06
-5.59992e-05
-1.13008e-06
5.57794e-05
1.62079e-06
2.63463e-07
1.1684e-06
-1.4526e-06
-1.13271e-06
1.61144e-06
8.33786e-07
-5.17455e-05
5.16992e-05
-5.33511e-05
5.30548e-05
8.26569e-07
-2.77047e-07
-5.55589e-05
-1.11229e-06
5.5331e-05
1.61723e-06
-5.51232e-05
1.07745e-06
1.13239e-07
5.49721e-05
-1.31661e-06
-2.71728e-07
-1.11093e-06
1.60304e-06
1.10071e-06
1.15883e-07
-1.35316e-06
-8.28052e-07
-5.27663e-05
5.24821e-05
-5.16275e-05
3.46784e-07
5.15301e-05
-8.23209e-07
3.48781e-07
5.15183e-08
-5.49563e-05
-3.5429e-07
5.48329e-05
5.39467e-07
-5.5452e-05
-2.00885e-07
6.52664e-09
5.53048e-05
3.93036e-07
4.93338e-08
-3.36009e-07
5.08866e-07
-1.91255e-07
5.47143e-09
3.68819e-07
5.96433e-08
-5.12233e-05
5.11562e-05
-5.22621e-05
5.52748e-09
5.21153e-05
6.06263e-08
5.03644e-09
-3.60618e-11
-5.63164e-05
-1.88587e-07
5.61416e-05
3.69916e-07
-5.63166e-05
-1.88636e-07
-6.58769e-09
5.61419e-05
3.69922e-07
1.97109e-12
-1.76295e-07
3.44306e-07
-1.76274e-07
-5.4938e-09
3.44329e-07
-2.16312e-10
-5.31807e-05
5.29979e-05
-5.31804e-05
-6.21997e-09
5.29978e-05
1.28082e-10
-4.63694e-09
-5.14958e-08
-5.54516e-05
-2.01096e-07
5.53046e-05
3.93078e-07
-5.49561e-05
-3.54077e-07
-1.13296e-07
5.48326e-05
5.3941e-07
-4.94757e-08
-1.91089e-07
3.68785e-07
-3.3619e-07
-1.15886e-07
5.08821e-07
-6.15471e-08
-5.22614e-05
5.21156e-05
-5.12235e-05
-3.47506e-07
5.11554e-05
-5.94638e-08
-3.48533e-07
2.77292e-07
-5.51233e-05
1.07825e-06
5.49721e-05
-1.31764e-06
-5.5559e-05
-1.11293e-06
5.53311e-05
1.61819e-06
2.72012e-07
1.10139e-06
-1.35417e-06
-1.11163e-06
1.60403e-06
8.28479e-07
-5.16282e-05
5.15304e-05
-5.27671e-05
5.24826e-05
8.23918e-07
-2.80031e-07
-5.50995e-05
-1.10219e-06
5.48575e-05
1.62415e-06
-5.48066e-05
1.01609e-06
1.07687e-07
5.46242e-05
-1.22141e-06
-2.76087e-07
-1.09705e-06
1.60464e-06
1.03778e-06
1.08797e-07
-1.25716e-06
-8.19433e-07
-5.22008e-05
5.1918e-05
-5.14129e-05
3.37004e-07
5.12726e-05
-8.15747e-07
3.39224e-07
5.49806e-08
-5.46941e-05
-3.83677e-07
5.45382e-05
5.92304e-07
-5.51464e-05
-2.19764e-07
8.31187e-09
5.49727e-05
4.40132e-07
5.25252e-08
-3.64554e-07
5.59567e-07
-2.07969e-07
7.42569e-09
4.11478e-07
5.87782e-08
-5.10699e-05
5.09644e-05
-5.19612e-05
7.09826e-09
5.17931e-05
6.09836e-08
7.09871e-09
-3.99816e-11
-5.59574e-05
-2.11462e-07
5.57594e-05
4.17866e-07
-5.59577e-05
-2.11527e-07
-8.39978e-09
5.57597e-05
4.17887e-07
2.02907e-11
-1.97843e-07
3.89448e-07
-1.97796e-07
-7.41662e-09
3.89459e-07
-3.04619e-10
-5.28069e-05
5.26028e-05
-5.28065e-05
-8.08722e-09
5.26028e-05
2.45444e-10
-6.31455e-09
-5.49403e-08
-5.51461e-05
-2.20066e-07
5.49725e-05
4.40179e-07
-5.4694e-05
-3.83369e-07
-1.07767e-07
5.4538e-05
5.9223e-07
-5.27377e-08
-2.07671e-07
4.11467e-07
-3.6488e-07
-1.08812e-07
5.59542e-07
-6.15754e-08
-5.19603e-05
5.17937e-05
-5.10705e-05
-3.37987e-07
5.09635e-05
-5.86814e-08
-3.38623e-07
2.80268e-07
-5.48067e-05
1.01691e-06
5.46242e-05
-1.22244e-06
-5.50996e-05
-1.10279e-06
5.48576e-05
1.62508e-06
2.76379e-07
1.0384e-06
-1.25815e-06
-1.09773e-06
1.60559e-06
8.19779e-07
-5.14137e-05
5.12728e-05
-5.22014e-05
5.19184e-05
8.16544e-07
-2.80841e-07
-5.46096e-05
-1.09874e-06
5.43486e-05
1.64057e-06
-5.44271e-05
9.57481e-07
1.03579e-07
5.4213e-05
-1.1277e-06
-2.77792e-07
-1.09015e-06
1.6159e-06
9.78187e-07
1.04585e-07
-1.16355e-06
-8.08895e-07
-5.16338e-05
5.1344e-05
-5.1115e-05
3.27638e-07
5.09359e-05
-8.05941e-07
3.29874e-07
6.10034e-08
-5.43668e-05
-4.1442e-07
5.41755e-05
6.48283e-07
-5.4787e-05
-2.42298e-07
9.56193e-09
5.45856e-05
4.95147e-07
5.68236e-08
-3.94113e-07
6.13272e-07
-2.28574e-07
9.07008e-09
4.62005e-07
5.7758e-08
-5.08394e-05
5.06949e-05
-5.16166e-05
8.37971e-09
5.14236e-05
6.07257e-08
8.73936e-09
-8.72515e-11
-5.55508e-05
-2.36861e-07
5.53265e-05
4.70842e-07
-5.5551e-05
-2.36931e-07
-9.814e-09
5.53268e-05
4.70863e-07
2.85384e-11
-2.21663e-07
4.39296e-07
-2.21601e-07
-9.03997e-09
4.39297e-07
-3.54479e-10
-5.23896e-05
5.21615e-05
-5.23892e-05
-9.53021e-09
5.21615e-05
3.1021e-10
-7.73432e-09
-6.10005e-08
-5.47868e-05
-2.42669e-07
5.45854e-05
4.95199e-07
-5.43667e-05
-4.14065e-07
-1.03666e-07
5.41752e-05
6.48206e-07
-5.71407e-08
-2.2819e-07
4.62018e-07
-3.94532e-07
-1.0459e-07
6.13241e-07
-6.1115e-08
-5.16155e-05
5.14244e-05
-5.08403e-05
-3.28771e-07
5.06939e-05
-5.77241e-08
-3.29066e-07
2.8107e-07
-5.44272e-05
9.58294e-07
5.42129e-05
-1.1287e-06
-5.46096e-05
-1.09932e-06
5.43485e-05
1.64147e-06
2.78089e-07
9.78763e-07
-1.16451e-06
-1.09081e-06
1.61683e-06
8.09191e-07
-5.11157e-05
5.09361e-05
-5.16344e-05
5.13443e-05
8.06782e-07
-2.79851e-07
-5.40796e-05
-1.09981e-06
5.37953e-05
1.66393e-06
-5.39844e-05
8.99432e-07
9.95489e-08
5.37381e-05
-1.03252e-06
-2.77627e-07
-1.08899e-06
1.63564e-06
9.20634e-07
1.00569e-07
-1.07028e-06
-7.96198e-07
-5.10493e-05
5.07457e-05
-5.07415e-05
3.18332e-07
5.05264e-05
-7.94338e-07
3.20751e-07
6.2717e-08
-5.39687e-05
-4.45425e-07
5.37427e-05
7.08292e-07
-5.43708e-05
-2.69036e-07
9.75059e-09
5.41378e-05
5.55051e-07
6.15097e-08
-4.24736e-07
6.70558e-07
-2.52983e-07
1.01099e-08
5.19169e-07
5.64896e-08
-5.05308e-05
5.03473e-05
-5.12208e-05
8.99555e-09
5.09992e-05
6.00799e-08
9.95856e-09
-2.60089e-10
-5.50904e-05
-2.64677e-07
5.48366e-05
5.28507e-07
-5.50905e-05
-2.64741e-07
-1.06105e-08
5.4837e-05
5.28573e-07
1.35311e-10
-2.48021e-07
4.94068e-07
-2.48004e-07
-9.57043e-09
4.94013e-07
-4.25196e-10
-5.19231e-05
5.16678e-05
-5.19226e-05
-1.04574e-08
5.16679e-05
3.45009e-10
-8.83125e-09
-6.27949e-08
-5.43708e-05
-2.69498e-07
5.41375e-05
5.55019e-07
-5.39687e-05
-4.45037e-07
-9.96754e-08
5.37424e-05
7.08213e-07
-6.16821e-08
-2.52502e-07
5.19236e-07
-4.25184e-07
-1.00533e-07
6.70558e-07
-6.03139e-08
-5.12197e-05
5.10001e-05
-5.05319e-05
-3.19586e-07
5.03462e-05
-5.66202e-08
-3.19815e-07
2.80062e-07
-5.39845e-05
9.00234e-07
5.3738e-05
-1.0335e-06
-5.40796e-05
-1.10037e-06
5.37952e-05
1.6648e-06
2.77931e-07
9.21182e-07
-1.07121e-06
-1.08964e-06
1.63654e-06
7.96451e-07
-5.07422e-05
5.05264e-05
-5.10498e-05
5.07459e-05
7.95197e-07
-2.77863e-07
-5.35011e-05
-1.10619e-06
5.31896e-05
1.69556e-06
-5.34772e-05
8.41404e-07
9.58957e-08
5.31977e-05
-9.35707e-07
-2.76152e-07
-1.09293e-06
1.66324e-06
8.63514e-07
9.68155e-08
-9.75553e-07
-7.82801e-07
-5.04343e-05
5.01109e-05
-5.02964e-05
3.09538e-07
5.00454e-05
-7.81507e-07
3.11976e-07
6.28228e-08
-5.35008e-05
-4.77542e-07
5.32385e-05
7.72889e-07
-5.38898e-05
-2.99652e-07
1.00165e-08
5.36221e-05
6.20141e-07
6.2291e-08
-4.56015e-07
7.32434e-07
-2.81572e-07
1.07829e-08
5.81048e-07
5.51023e-08
-5.0144e-05
4.99209e-05
-5.07663e-05
9.02136e-09
5.05127e-05
5.92072e-08
1.0611e-08
-3.20927e-10
-5.45699e-05
-2.952e-07
5.42836e-05
5.91845e-07
-5.457e-05
-2.9529e-07
-1.10638e-08
5.42841e-05
5.91926e-07
2.82091e-10
-2.76938e-07
5.54086e-07
-2.76899e-07
-9.77846e-09
5.53998e-07
-5.31492e-10
-5.1401e-05
5.11153e-05
-5.14005e-05
-1.09843e-08
5.11156e-05
4.89916e-10
-8.93284e-09
-6.29406e-08
-5.389e-05
-3.00114e-07
5.36219e-05
6.20079e-07
-5.35008e-05
-4.77128e-07
-9.60418e-08
5.32383e-05
7.72811e-07
-6.23553e-08
-2.81079e-07
5.81172e-07
-4.565e-07
-9.67405e-08
7.32459e-07
-5.93117e-08
-5.07653e-05
5.05135e-05
-5.01453e-05
-3.10884e-07
4.99198e-05
-5.52627e-08
-3.10903e-07
2.78063e-07
-5.34772e-05
8.42198e-07
5.31976e-05
-9.36665e-07
-5.35011e-05
-1.10673e-06
5.31895e-05
1.6964e-06
2.76464e-07
8.64035e-07
-9.76459e-07
-1.09356e-06
1.66412e-06
7.8302e-07
-5.02972e-05
5.00455e-05
-5.04347e-05
5.0111e-05
7.82389e-07
-2.75064e-07
-5.28666e-05
-1.11676e-06
5.25239e-05
1.73451e-06
-5.29033e-05
7.81297e-07
9.25934e-08
5.25879e-05
-8.33517e-07
-2.73761e-07
-1.10135e-06
1.69812e-06
8.05197e-07
9.33662e-08
-8.77914e-07
-7.68705e-07
-4.97774e-05
4.94294e-05
-4.97792e-05
3.01147e-07
4.94907e-05
-7.67863e-07
3.03533e-07
6.22791e-08
-5.29598e-05
-5.10849e-07
5.26591e-05
8.41906e-07
-5.33386e-05
-3.3347e-07
1.04785e-08
5.30335e-05
6.90419e-07
6.19627e-08
-4.88386e-07
7.98512e-07
-3.13468e-07
1.08527e-08
6.48113e-07
5.3717e-08
-4.96779e-05
4.94145e-05
-5.02463e-05
8.9994e-09
4.99575e-05
5.81101e-08
1.10355e-08
-1.53462e-10
-5.39833e-05
-3.28451e-07
5.36616e-05
6.60752e-07
-5.39835e-05
-3.28612e-07
-1.08707e-08
5.3662e-05
6.60776e-07
1.86177e-10
-3.08579e-07
6.19557e-07
-3.0847e-07
-1.01911e-08
6.19483e-07
-5.92727e-10
-5.08172e-05
5.04984e-05
-5.08166e-05
-1.13182e-08
5.04987e-05
5.4415e-10
-8.93354e-09
-6.2253e-08
-5.33386e-05
-3.33822e-07
5.30334e-05
6.90438e-07
-5.29598e-05
-5.10411e-07
-9.26967e-08
5.26589e-05
8.41847e-07
-6.20916e-08
-3.13054e-07
6.48196e-07
-4.88899e-07
-9.33074e-08
7.98537e-07
-5.81114e-08
-5.02454e-05
4.99584e-05
-4.96794e-05
-3.02516e-07
4.94134e-05
-5.38916e-08
-3.02399e-07
2.75271e-07
-5.29033e-05
7.82091e-07
5.25877e-05
-8.34472e-07
-5.28665e-05
-1.11728e-06
5.25238e-05
1.73534e-06
2.74063e-07
8.05702e-07
-8.78802e-07
-1.10197e-06
1.69898e-06
7.68912e-07
-4.978e-05
4.94907e-05
-4.97778e-05
4.94294e-05
7.68741e-07
-2.71682e-07
-5.21681e-05
-1.13111e-06
5.17906e-05
1.78023e-06
-5.22554e-05
7.18877e-07
8.95582e-08
5.19005e-05
-7.25193e-07
-2.70684e-07
-1.11366e-06
1.74022e-06
7.44421e-07
9.02048e-08
-7.72869e-07
-7.54154e-07
-4.90694e-05
4.86924e-05
-4.9186e-05
2.93122e-07
4.88576e-05
-7.53672e-07
2.95424e-07
6.12341e-08
-5.23411e-05
-5.45736e-07
5.19997e-05
9.15459e-07
-5.27118e-05
-3.70191e-07
1.0648e-08
5.23668e-05
7.65803e-07
6.10688e-08
-5.22082e-07
8.69214e-07
-3.48341e-07
1.06995e-08
7.20328e-07
5.23209e-08
-4.9131e-05
4.88261e-05
-4.96548e-05
8.96509e-09
4.9328e-05
5.68515e-08
1.12667e-08
-9.29783e-11
-5.33247e-05
-3.64417e-07
5.29648e-05
7.35082e-07
-5.33249e-05
-3.64601e-07
-1.0797e-08
5.29651e-05
7.35088e-07
6.82429e-11
-3.42928e-07
6.90482e-07
-3.42762e-07
-1.05184e-08
6.90436e-07
-6.17336e-10
-5.01661e-05
4.98113e-05
-5.01655e-05
-1.1461e-08
4.98117e-05
5.75996e-10
-8.91283e-09
-6.11697e-08
-5.27118e-05
-3.70496e-07
5.23668e-05
7.65846e-07
-5.23411e-05
-5.45301e-07
-8.96494e-08
5.19995e-05
9.15411e-07
-6.12799e-08
-3.48008e-07
7.20363e-07
-5.22605e-07
-9.01682e-08
8.69236e-07
-5.67773e-08
-4.9654e-05
4.93288e-05
-4.91325e-05
-2.94482e-07
4.88249e-05
-5.25148e-08
-2.94277e-07
2.71887e-07
-5.22554e-05
7.19663e-07
5.19004e-05
-7.26133e-07
-5.2168e-05
-1.13162e-06
5.17904e-05
1.78104e-06
2.70975e-07
7.4492e-07
-7.73767e-07
-1.11427e-06
1.74105e-06
7.54356e-07
-4.91868e-05
4.88576e-05
-4.90697e-05
4.86924e-05
7.54535e-07
-2.67873e-07
-5.13991e-05
-1.14901e-06
5.09844e-05
1.83161e-06
-5.15288e-05
6.5342e-07
8.68058e-08
5.11339e-05
-6.13264e-07
-2.67036e-07
-1.12927e-06
1.78783e-06
6.80938e-07
8.73106e-08
-6.63572e-07
-7.39164e-07
-4.8302e-05
4.78921e-05
-4.85122e-05
2.85379e-07
4.81411e-05
-7.38842e-07
2.87524e-07
5.98288e-08
-5.16408e-05
-5.82543e-07
5.12574e-05
9.92936e-07
-5.20048e-05
-4.09562e-07
1.06335e-08
5.16176e-05
8.45902e-07
5.9814e-08
-5.57461e-07
9.43822e-07
-3.85921e-07
1.06361e-08
7.97133e-07
5.09133e-08
-4.85007e-05
4.81526e-05
-4.89862e-05
8.88706e-09
4.86186e-05
5.546e-08
1.13248e-08
-7.78092e-11
-5.25887e-05
-4.02835e-07
5.21878e-05
8.1439e-07
-5.25889e-05
-4.03022e-07
-1.07206e-08
5.21882e-05
8.14388e-07
4.55689e-11
-3.79705e-07
7.66386e-07
-3.79518e-07
-1.0571e-08
7.66345e-07
-6.18858e-10
-4.94423e-05
4.9049e-05
-4.94416e-05
-1.14509e-08
4.90494e-05
5.84108e-10
-8.85744e-09
-5.97621e-08
-5.20047e-05
-4.09839e-07
5.16177e-05
8.45951e-07
-5.16409e-05
-5.82122e-07
-8.68918e-08
5.12572e-05
9.92894e-07
-6.00323e-08
-3.85626e-07
7.97161e-07
-5.57974e-07
-8.72782e-08
9.43846e-07
-5.53345e-08
-4.89855e-05
4.86195e-05
-4.85022e-05
-2.86702e-07
4.81515e-05
-5.11111e-08
-2.86394e-07
2.68075e-07
-5.15288e-05
6.54191e-07
5.11338e-05
-6.14176e-07
-5.1399e-05
-1.14951e-06
5.09841e-05
1.83239e-06
2.67319e-07
6.81436e-07
-6.64453e-07
-1.12985e-06
1.78864e-06
7.39367e-07
-4.8513e-05
4.81411e-05
-4.83023e-05
4.78921e-05
7.39681e-07
-2.63742e-07
-5.05544e-05
-1.17033e-06
5.00991e-05
1.88941e-06
-5.07221e-05
5.90099e-07
8.42456e-08
5.02847e-05
-5.00747e-07
-2.63177e-07
-1.14902e-06
1.84212e-06
6.15793e-07
8.47229e-08
-5.51826e-07
-7.24085e-07
-4.74672e-05
4.7021e-05
-4.77527e-05
2.77987e-07
4.73407e-05
-7.24115e-07
2.80047e-07
5.81856e-08
-5.0856e-05
-6.20851e-07
5.04281e-05
1.07474e-06
-5.12126e-05
-4.51353e-07
1.05303e-08
5.07808e-05
9.30823e-07
5.83123e-08
-5.94936e-07
1.02278e-06
-4.26215e-07
1.05357e-08
8.79056e-07
4.95168e-08
-4.77837e-05
4.73913e-05
-4.82352e-05
8.76601e-09
4.78246e-05
5.40068e-08
1.12566e-08
-6.9646e-11
-5.17698e-05
-4.43643e-07
5.13255e-05
8.98621e-07
-5.17701e-05
-4.43826e-07
-1.05896e-08
5.13258e-05
8.98616e-07
3.71054e-11
-4.19036e-07
8.47546e-07
-4.18844e-07
-1.051e-08
8.47506e-07
-6.04479e-10
-4.86407e-05
4.82064e-05
-4.86399e-05
-1.13257e-08
4.82068e-05
5.75424e-10
-8.76057e-09
-5.81244e-08
-5.12125e-05
-4.51604e-07
5.07808e-05
9.30872e-07
-5.0856e-05
-6.20455e-07
-8.43278e-08
5.0428e-05
1.07469e-06
-5.85236e-08
-4.2595e-07
8.79082e-07
-5.9543e-07
-8.46936e-08
1.02281e-06
-5.38216e-08
-4.82345e-05
4.78254e-05
-4.77853e-05
-2.79253e-07
4.73903e-05
-4.97322e-08
-2.78956e-07
2.63942e-07
-5.07221e-05
5.90805e-07
5.02846e-05
-5.0161e-07
-5.05543e-05
-1.17081e-06
5.00989e-05
1.89017e-06
2.63453e-07
6.16262e-07
-5.52669e-07
-1.14959e-06
1.84291e-06
7.24293e-07
-4.77535e-05
4.73407e-05
-4.74675e-05
4.70209e-05
7.24925e-07
-2.59318e-07
-4.96271e-05
-1.19486e-06
4.91278e-05
1.95341e-06
-4.98288e-05
5.29197e-07
8.18129e-08
4.9346e-05
-3.87559e-07
-2.58908e-07
-1.17157e-06
1.90252e-06
5.55613e-07
8.22279e-08
-4.40818e-07
-7.09009e-07
-4.65586e-05
4.60727e-05
-4.69143e-05
2.70964e-07
4.64635e-05
-7.09169e-07
2.72838e-07
5.63412e-08
-4.99813e-05
-6.60774e-07
4.95067e-05
1.16085e-06
-5.03304e-05
-4.95241e-07
1.03635e-08
4.98519e-05
1.01974e-06
5.65929e-08
-6.33592e-07
1.10603e-06
-4.6863e-07
1.03778e-08
9.65198e-07
4.81441e-08
-4.69781e-05
4.65401e-05
-4.73973e-05