/*--------------------------------*- C++ -*----------------------------------*\
  =========                 |
  \\      /  F ield         | OpenFOAM: The Open Source CFD Toolbox
   \\    /   O peration     | Website:  https://openfoam.org
    \\  /    A nd           | Version:  9
     \\/     M anipulation  |
\*---------------------------------------------------------------------------*/
FoamFile
{
    format      ascii;
    class       volScalarField;
    location    "4.8";
    object      epsilon;
}
// * * * * * * * * * * * * * * * * * * * * * * * * * * * * * * * * * * * * * //

dimensions      [0 2 -3 0 0 0 0];

internalField   nonuniform List<scalar> 
36360
(
0.823866
0.691808
0.540472
0.471713
0.781962
0.671365
0.301098
0.343207
0.41143
0.272125
0.249353
0.147052
0.416565
0.284047
0.166275
0.09199
0.21562
0.215475
0.108693
0.108586
0.23373
0.233575
0.0697289
0.0696681
0.27167
0.41064
0.146692
0.248674
0.283508
0.41546
0.0917358
0.165621
0.690762
0.822829
0.470749
0.539494
0.669481
0.779473
0.341864
0.299622
1.25048
1.07097
1.05192
0.889601
1.5351
1.3126
1.17606
0.992828
0.7315
0.553734
0.573079
0.410559
0.960149
0.767784
0.682279
0.515124
0.477567
0.47739
0.342296
0.342131
0.686993
0.686711
0.447153
0.446927
0.5532
0.730626
0.410053
0.572233
0.766894
0.958534
0.514386
0.680886
1.06987
1.24944
0.888517
1.05087
1.3101
1.53188
0.990599
1.17313
1.61173
1.40988
1.43627
1.24434
2.2215
1.94306
1.88236
1.62966
1.03821
0.839864
0.887082
0.69788
1.52791
1.29759
1.24342
1.03057
0.753194
0.753006
0.615844
0.61566
1.19753
1.19717
0.939357
0.939033
0.839306
1.03732
0.69733
0.886194
1.29649
1.52597
1.02956
1.24162
1.40879
1.61072
1.24324
1.43524
1.94019
2.21784
1.62695
1.87889
1.93495
1.71799
1.77802
1.56801
2.86442
2.54504
2.54907
2.2486
1.32401
1.11164
1.18431
0.978375
2.08204
1.82339
1.80814
1.56272
1.01799
1.0178
0.887908
0.887718
1.70914
1.70874
1.45505
1.45467
1.11108
1.32312
0.977813
1.18342
1.82215
2.07991
1.56154
1.80609
1.71693
1.934
1.56693
1.77705
2.54193
2.86048
2.24559
2.54525
2.22164
1.99333
2.08298
1.85996
3.45
3.10047
3.16457
2.82897
1.5831
1.36051
1.45727
1.23942
2.59957
2.31901
2.34601
2.07573
1.26187
1.26168
1.14308
1.14289
2.19407
2.19363
1.95577
1.95535
1.35996
1.58225
1.23886
1.4564
2.31769
2.59733
2.07444
2.34381
1.99232
2.22077
1.85892
2.08207
3.09723
3.4459
2.82578
3.16053
2.47259
2.23565
2.35162
2.11871
3.97182
3.59981
3.71858
3.357
1.8132
1.58296
1.70198
1.4753
3.0688
2.77115
2.84025
2.55064
1.48059
1.48041
1.37466
1.37448
2.63804
2.6376
2.42134
2.4209
1.58242
1.81237
1.47476
1.70114
2.7698
3.0665
2.5493
2.83798
2.23469
2.47178
2.11773
2.35077
3.59649
3.96765
3.35372
3.71444
2.68975
2.44613
2.58539
2.34491
4.42948
4.04045
4.20811
3.827
2.01442
1.7784
1.91754
1.68422
3.48557
3.17469
3.28344
2.97879
1.6732
1.67303
1.58034
1.58016
3.03515
3.03469
2.84227
2.84182
1.77788
2.01362
1.68369
1.91673
3.17332
3.48325
2.97742
3.28113
2.44522
2.68901
2.34397
2.58461
4.03711
4.42527
3.82366
4.20391
2.87588
2.62703
2.78669
2.5403
4.82609
4.42404
4.63473
4.23875
2.18825
1.94785
2.10484
1.86649
3.8502
3.52891
3.67392
3.35754
1.84055
1.84037
1.76016
1.75998
3.38452
3.38406
3.21539
3.21493
1.94735
2.18749
1.86598
2.10406
3.52753
3.84786
3.35616
3.67159
2.62616
2.87519
2.53941
2.78597
4.4207
4.82187
4.2354
4.63051
3.0338
2.78088
2.95835
2.70735
5.16593
4.75383
5.00235
4.59494
2.33671
2.09299
2.26572
2.02356
4.165
3.83553
4.01324
3.68763
1.98412
1.98396
1.91541
1.91524
3.68747
3.68701
3.54129
3.54083
2.09251
2.33597
2.02307
2.26497
3.83415
4.16267
3.68625
4.01091
2.78005
3.03316
2.7065
2.95768
4.7505
5.16171
4.5916
4.99812
3.16647
2.91037
3.1033
2.8487
5.45414
5.03427
5.31573
4.89948
2.46215
2.21595
2.40239
2.15735
4.43366
4.09779
4.30448
3.97163
2.10592
2.10576
2.04785
2.04769
3.94692
3.94647
3.82207
3.82162
2.21549
2.46143
2.15687
2.40166
4.09642
4.43133
3.97025
4.30215
2.90957
3.16587
2.84789
3.10268
5.03094
5.44993
4.89615
5.31151
3.27653
3.01797
3.22434
2.96694
5.6956
5.26975
5.57994
5.15687
2.56681
2.31881
2.51717
2.27
4.65999
4.3192
4.55148
4.213
2.20794
2.20779
2.15952
2.15936
4.16621
4.16576
4.061
4.06055
2.31836
2.56611
2.26954
2.51646
4.31782
4.65768
4.21162
4.54916
3.0172
3.27597
2.96616
3.22376
5.26643
5.6914
5.15354
5.57574
3.36652
3.10609
3.32409
3.06454
5.8951
5.46471
5.79987
5.37157
2.65288
2.40364
2.61228
2.36362
4.84799
4.50348
4.75817
4.41539
2.2922
2.29204
2.25243
2.25227
4.34893
4.34847
4.26157
4.26111
2.4032
2.6522
2.36317
2.6116
4.50211
4.84568
4.41402
4.75585
3.10534
3.36599
3.06378
3.32355
5.46141
5.89091
5.36826
5.79567
3.43856
3.17677
3.40485
3.14368
6.05683
5.6231
5.97996
5.54775
2.72229
2.47228
2.6898
2.44013
5.00126
4.65409
4.92835
4.58241
2.36048
2.36033
2.32848
2.32833
4.4984
4.49794
4.42724
4.42679
2.47184
2.72163
2.43969
2.68913
4.65272
4.99897
4.58104
4.92605
3.17605
3.43806
3.14295
3.40433
5.61981
6.05266
5.54445
5.97578
3.49464
3.23192
3.46868
3.20639
6.18472
5.74863
6.12431
5.68927
2.77682
2.52645
2.75157
2.50134
5.12327
4.77435
5.06558
4.71745
2.41445
2.41431
2.38942
2.38927
4.61785
4.6174
4.56132
4.56087
2.52602
2.77617
2.50091
2.75091
4.77299
5.12099
4.71609
5.06329
3.23122
3.49416
3.20567
3.46819
5.74536
6.18057
5.68599
6.12015
3.53635
3.27311
3.5174
3.25439
6.28207
5.84445
6.23656
5.79959
2.81798
2.5676
2.79925
2.54884
5.217
4.86711
5.17311
4.82363
2.45557
2.45543
2.43681
2.43667
4.71011
4.70966
4.66685
4.6664
2.56718
2.81735
2.54841
2.79861
4.86576
5.21473
4.82228
5.17083
3.27243
3.53589
3.25369
3.51693
5.8412
6.27794
5.79632
6.23242
3.56512
3.30174
3.55248
3.28914
6.3518
5.91339
6.31976
5.88164
2.8471
2.59702
2.83424
2.58398
5.28513
4.93493
5.25373
4.90362
2.48511
2.48496
2.47199
2.47185
4.7777
4.77725
4.74648
4.74603
2.59661
2.84648
2.58356
2.83361
4.93359
5.28287
4.90228
5.25146
3.30107
3.56468
3.28846
3.55203
5.91016
6.34769
5.8784
6.31563
3.58211
3.31896
3.57525
3.31194
6.39636
5.95782
6.37664
5.93806
2.86532
2.61582
2.85779
2.60797
5.32993
4.98005
5.30993
4.95984
2.50414
2.504
2.49616
2.49602
4.82286
4.82242
4.8026
4.80216
2.61542
2.86471
2.60756
2.85717
4.97872
5.32769
4.9585
5.30768
3.31832
3.5817
3.31128
3.57481
5.95462
6.39228
5.93484
6.37253
3.58825
3.32567
3.58673
3.32383
6.41779
5.97972
6.40941
5.97101
2.87356
2.62494
2.87092
2.62183
5.35335
5.00435
5.34382
4.99434
2.51362
2.51349
2.51031
2.51017
4.84744
4.847
4.83724
4.8368
2.62454
2.87297
2.62143
2.87032
5.00303
5.35113
4.99301
5.3416
3.32508
3.58788
3.3232
3.58634
5.97656
6.41376
5.96782
6.40535
3.58441
3.3228
3.58773
3.32558
6.41777
5.98067
6.41981
5.98221
2.87269
2.62522
2.87447
2.62641
5.35686
5.00923
5.35717
5.00884
2.51443
2.51429
2.51535
2.51521
4.85297
4.85253
4.85222
4.85179
2.62484
2.87215
2.62602
2.8739
5.00793
5.3547
5.00753
5.35497
3.32233
3.58423
3.32506
3.58744
5.97764
6.41387
5.97909
6.41582
3.57121
3.31104
3.57911
3.31819
6.39802
5.96263
6.41005
5.97372
2.86342
2.6174
2.86937
2.62262
5.34262
4.99692
5.35192
5.0052
2.50728
2.50715
2.51215
2.51202
4.84153
4.84111
4.84932
4.84889
2.61705
2.86294
2.62226
2.86887
4.99565
5.34054
5.00392
5.34981
3.31062
3.57109
3.31775
3.57899
5.95983
6.3944
5.97085
6.40631
3.54993
3.2914
3.56185
3.30247
6.36011
5.9268
6.38086
5.94645
2.8464
2.60193
2.85615
2.61088
5.31097
4.9676
5.32849
4.9839
2.49254
2.49241
2.50111
2.50098
4.81329
4.81287
4.82903
4.8286
2.60157
2.84591
2.61052
2.85566
4.96633
5.30888
4.98263
5.32639
3.29101
3.54984
3.30208
3.56174
5.92392
6.35641
5.94357
6.37718
3.52034
3.26393
3.53629
3.27879
6.30456
5.87387
6.33397
5.90186
2.82201
2.57934
2.83538
2.5918
5.2633
4.92272
5.2887
4.9467
2.4708
2.47067
2.48282
2.4827
4.76971
4.76929
4.79303
4.79261
2.57898
2.82151
2.59144
2.83489
4.92147
5.26122
4.94545
5.28664
3.26349
3.5202
3.27838
3.53619
5.87102
6.30092
5.89906
6.33034
3.48315
3.22916
3.50297
3.24772
6.2325
5.80487
6.27017
5.84093
2.79064
2.55001
2.80748
2.5658
5.20043
4.86306
5.23337
4.89436
2.44243
2.4423
2.45773
2.4576
4.71152
4.71111
4.74206
4.74164
2.54964
2.7901
2.56544
2.80696
4.86181
5.19833
4.89311
5.23128
3.2286
3.48285
3.24722
3.50274
5.80187
6.22869
5.83798
6.26643
3.43812
3.18705
3.46183
3.20923
6.14416
5.72009
6.18989
5.76395
2.75254
2.51424
2.77271
2.53321
5.12292
4.78925
5.16311
4.82755
2.40773
2.40761
2.42615
2.42603
4.63939
4.63899
4.67683
4.67642
2.51387
2.752
2.53284
2.77216
4.78802
5.12084
4.82631
5.16102
3.18647
3.43778
3.20866
3.46149
5.71711
6.14035
5.76095
6.18607
3.38575
3.13807
3.41307
3.16364
6.04035
5.62037
6.09373
5.67162
2.70804
2.47231
2.73137
2.49433
5.03144
4.70192
5.07854
4.74691
2.367
2.36688
2.38841
2.38828
4.55395
4.55354
4.59798
4.59757
2.47195
2.7075
2.49396
2.73083
4.70071
5.0294
4.74569
5.07649
3.1375
3.38541
3.16306
3.41273
5.61744
6.0366
5.66866
6.08995
3.32639
3.08254
3.35717
3.11135
5.92177
5.50637
5.98247
5.56469
2.65741
2.4245
2.68377
2.44942
4.9266
4.60164
4.98032
4.65305
2.32049
2.32037
2.34476
2.34463
4.45573
4.45534
4.50609
4.50569
2.42414
2.65688
2.44907
2.68323
4.60045
4.9246
4.65185
4.9783
3.08198
3.32606
3.11079
3.35683
5.50348
5.91809
5.56178
5.97875
3.26031
3.02072
3.29441
3.05264
5.78902
5.37866
5.85674
5.44378
2.60089
2.37102
2.63016
2.39875
4.80893
4.48895
4.86901
4.54651
2.26842
2.2683
2.29544
2.29531
4.34527
4.34489
4.4017
4.40131
2.37067
2.60037
2.3984
2.62964
4.48778
4.80697
4.54533
4.86703
3.02017
3.25998
3.05209
3.29408
5.37583
5.78541
5.44092
5.85309
3.18778
2.95286
3.22507
2.98777
5.64269
5.23785
5.71714
5.30945
2.53871
2.31209
2.57079
2.34252
4.67898
4.36433
4.74515
4.4278
2.21099
2.21088
2.24066
2.24054
4.22306
4.22269
4.28531
4.28493
2.31175
2.5382
2.34217
2.57027
4.36319
4.67705
4.42665
4.7432
2.95232
3.18746
2.98722
3.22474
5.23508
5.63916
5.30666
5.71356
3.10911
2.87922
3.14943
2.91699
5.48338
5.08448
5.56426
5.16232
2.47109
2.24792
2.50585
2.28094
4.53722
4.22828
4.60924
4.29742
2.1484
2.14829
2.18062
2.18051
4.08957
4.0892
4.15741
4.15704
2.24758
2.47058
2.2806
2.50534
4.22717
4.53534
4.29629
4.60734
2.87869
3.10879
2.91645
3.1491
5.08178
5.47992
5.15958
5.56076
3.0246
2.80006
3.06779
2.84055
5.31167
4.91908
5.39868
5.00288
2.39824
2.17868
2.43559
2.2142
4.38416
4.08127
4.46178
4.15584
2.08083
2.08072
2.11552
2.1154
3.94528
3.94492
4.01847
4.0181
2.17835
2.39774
2.21387
2.43509
4.08018
4.38232
4.15473
4.45992
2.79954
3.02427
2.84002
3.06747
4.91645
5.3083
5.00021
5.39527
2.93456
2.71563
2.98047
2.75872
5.1282
4.74237
5.22102
4.83171
2.32037
2.10457
2.3602
2.1425
4.22031
3.92377
4.30327
4.00353
2.00845
2.00834
2.04551
2.0454
3.79065
3.79029
3.86896
3.8686
2.10424
2.31988
2.14217
2.3597
3.92271
4.21852
4.00245
4.30145
2.71512
2.93424
2.7582
2.98015
4.7398
5.12492
4.8291
5.21769
2.83938
2.62621
2.88781
2.67174
4.93363
4.55509
5.03195
4.6497
2.2377
2.02577
2.27989
2.06602
4.04622
3.75628
4.13426
3.84099
1.93143
1.93132
1.97079
1.97067
3.62615
3.6258
3.70935
3.709
2.02545
2.23722
2.0657
2.27941
3.75524
4.04447
3.83994
4.13248
2.6257
2.83905
2.67123
2.88749
4.55259
4.93043
4.64716
5.02871
2.73941
2.5321
2.79018
2.57994
4.72847
4.35761
4.83203
4.45726
2.15046
1.94247
2.1949
1.98494
3.86232
3.57923
3.95522
3.66868
1.84994
1.84983
1.8915
1.89139
3.45222
3.45189
3.54009
3.53975
1.94215
2.14998
1.98462
2.19443
3.57822
3.86062
3.66765
3.95349
2.5316
2.73909
2.57943
2.78986
4.35518
4.72537
4.45479
4.82888
2.63511
2.43366
2.68799
2.48361
4.51327
4.15053
4.62179
4.25491
2.05886
1.85482
2.10544
1.89944
3.66909
3.39303
3.7666
3.48702
1.7641
1.76399
1.80782
1.80771
3.26927
3.26894
3.36162
3.36129
1.85451
2.05839
1.89912
2.10497
3.39206
3.66744
3.48602
3.76493
2.43316
2.63479
2.48311
2.68766
4.14818
4.51026
4.25252
4.61874
2.52709
2.33132
2.58172
2.38314
4.28867
3.93466
4.40181
4.04334
1.96317
1.76295
2.01176
1.80966
3.46702
3.19803
3.5689
3.2964
1.67398
1.67388
1.71983
1.71972
3.07753
3.07721
3.17427
3.17395
1.76265
1.96271
1.80935
2.0113
3.19709
3.46542
3.29544
3.56728
2.33083
2.52676
2.38265
2.58139
3.93238
4.28576
4.04102
4.39886
2.41651
2.22584
2.4722
2.2791
4.05581
3.71121
4.17289
3.82349
1.86366
1.66682
1.91412
1.71568
3.25655
2.99425
3.36259
3.09705
1.5794
1.57929
1.62752
1.62741
2.87684
2.87654
2.97813
2.97782
1.66652
1.86321
1.71538
1.91367
2.99334
3.25501
3.09613
3.36103
2.22536
2.41618
2.27862
2.47187
3.70901
4.05302
3.82125
4.17004
2.30633
2.11852
2.36123
2.17251
3.8183
3.48267
3.93694
3.59708
1.76026
1.56579
1.81272
1.61724
3.03761
2.78075
3.14801
2.88865
1.47953
1.47943
1.53045
1.53035
2.66609
2.6658
2.77265
2.77236
1.5655
1.75981
1.61695
1.81228
2.77989
3.03615
2.88776
3.14651
2.11805
2.306
2.17203
2.36089
3.48057
3.81563
3.59493
3.93421
2.20635
2.0093
2.25399
2.06464
3.59095
3.25149
3.7011
3.36737
1.65028
1.45731
1.70676
1.513
2.80649
2.5542
2.92399
2.66927
1.37227
1.37217
1.42724
1.42714
2.44284
2.44257
2.55601
2.55573
1.45702
1.64984
1.51271
1.70632
2.55338
2.80511
2.66843
2.92257
2.00883
2.206
2.06417
2.25365
3.24951
3.58842
3.36533
3.6985
2.16411
1.86823
2.17143
1.94958
3.41022
2.96841
3.49508
3.12675
1.51899
1.33514
1.58936
1.39863
2.54402
2.30926
2.68114
2.43396
1.25415
1.25406
1.31501
1.31491
2.20632
2.20607
2.3258
2.32554
1.33486
1.51857
1.39835
1.58893
2.30851
2.54276
2.43318
2.67981
1.86775
2.16375
1.9491
2.17108
2.96658
3.40783
3.12484
3.49262
1.1319
0.970213
0.899302
0.773806
0.98634
0.834303
0.739637
0.631001
0.666703
0.494619
0.502576
0.355639
0.538777
0.379352
0.377869
0.24872
0.417931
0.417749
0.292384
0.292199
0.310814
0.310645
0.195695
0.19554
0.494096
0.665938
0.355086
0.501712
0.378848
0.537988
0.248239
0.377063
0.969464
1.1314
0.77285
0.898508
0.833423
0.985626
0.630017
0.738738
1.48128
1.29858
1.32119
1.14491
1.35622
1.17472
1.18561
1.01428
0.968931
0.77433
0.823275
0.6366
0.840598
0.651665
0.693873
0.51608
0.684842
0.684696
0.551846
0.551681
0.567202
0.56704
0.4378
0.437632
0.773927
0.968391
0.636135
0.822625
0.651199
0.83991
0.515589
0.69313
1.29816
1.48116
1.14434
1.3209
1.17403
1.35575
1.01349
1.18502
1.75716
1.569
1.62562
1.43942
1.65657
1.46344
1.51231
1.32407
1.23327
1.03116
1.10568
0.90643
1.11334
0.911296
0.980648
0.784129
0.936828
0.936719
0.814003
0.813876
0.819442
0.819297
0.6954
0.695247
1.03087
1.23292
0.906085
1.10524
0.910888
1.11276
0.783691
0.980015
1.56883
1.75733
1.43913
1.62565
1.4629
1.6563
1.32346
1.51194
1.98992
1.80026
1.87833
1.6892
1.91633
1.7166
1.79119
1.59434
1.46379
1.25886
1.35279
1.14894
1.35763
1.14806
1.23927
1.03302
1.1624
1.16232
1.05334
1.05324
1.05194
1.05181
0.938779
0.938643
1.25866
1.46358
1.14869
1.35251
1.14771
1.35714
1.03264
1.23874
1.80028
1.99031
1.68913
1.87862
1.7162
1.91624
1.59387
1.79101
2.18851
1.99862
2.09332
1.90346
2.14153
1.93773
2.03318
1.83121
1.66318
1.45733
1.56742
1.36189
1.57322
1.35885
1.4692
1.25699
1.35992
1.35987
1.26486
1.2648
1.25999
1.25988
1.15935
1.15924
1.4572
1.66309
1.36173
1.56728
1.35854
1.57282
1.25666
1.46876
1.99878
2.18907
1.90356
2.0938
1.93745
2.14158
1.83087
2.03315
2.35749
2.16789
2.2766
2.08684
2.33566
2.12907
2.24245
2.03715
1.83417
1.62828
1.75226
1.54633
1.76096
1.54338
1.67069
1.45456
1.53051
1.53048
1.44869
1.44865
1.44268
1.44259
1.3547
1.35459
1.62821
1.83417
1.54623
1.75222
1.54312
1.76063
1.45428
1.67032
2.16817
2.35818
2.08706
2.27723
2.12888
2.33582
2.03691
2.24256
2.50042
2.31135
2.43217
2.24283
2.50163
2.29308
2.42216
2.21452
1.9796
1.77415
1.91013
1.70443
1.92265
1.70292
1.84516
1.6264
1.67634
1.67631
1.60661
1.60658
1.60097
1.60088
1.52502
1.52493
1.77411
1.97966
1.70438
1.91016
1.70269
1.92238
1.62616
1.84486
2.31171
2.50121
2.24315
2.43291
2.29297
2.50188
2.21436
2.42236
2.62038
2.43199
2.56325
2.37452
2.6424
2.43243
2.57518
2.36588
2.10232
1.89757
2.04386
1.83875
2.06058
1.83943
1.99468
1.77417
1.79991
1.7999
1.741
1.74099
1.73665
1.73657
1.67177
1.67168
1.89757
2.10244
1.83874
2.04396
1.83923
2.06035
1.77396
1.99443
2.43242
2.62124
2.37493
2.56408
2.43238
2.64272
2.3658
2.57547
2.72009
2.53245
2.67276
2.48476
2.76056
2.54958
2.70432
2.49381
2.2049
2.00103
2.15621
1.95189
2.17703
1.95502
2.12159
1.89996
1.90365
1.90365
1.85437
1.85436
1.85171
1.85164
1.79689
1.79681
2.00106
2.20506
1.95191
2.15635
1.95485
2.17684
1.89978
2.12138
2.53294
2.72102
2.48522
2.67366
2.54958
2.76095
2.49379
2.70467
2.80209
2.61523
2.76333
2.5761
2.85877
2.6471
2.81221
2.60086
2.2898
2.0869
2.24967
2.04629
2.27436
2.05191
2.22821
2.00594
1.98989
1.98989
1.94908
1.94909
1.94829
1.94823
1.90245
1.90239
2.08695
2.29
2.04633
2.24985
2.05175
2.27421
2.00578
2.22803
2.61576
2.80307
2.57661
2.76429
2.64714
2.85921
2.60088
2.81262
2.86849
2.68244
2.83728
2.65084
2.93929
2.7272
2.9013
2.6894
2.35912
2.15727
2.32653
2.12416
2.35469
2.13211
2.31678
2.09424
2.06068
2.06069
2.02736
2.02737
2.02836
2.0283
1.99054
1.99049
2.15734
2.35934
2.12422
2.32674
2.13197
2.35456
2.0941
2.31664
2.683
2.86951
2.65138
2.83828
2.72728
2.93977
2.68946
2.90175
2.92119
2.73596
2.89662
2.711
3.00419
2.79192
2.97378
2.76159
2.41475
2.21401
2.38879
2.18751
2.41995
2.19751
2.38936
2.16683
2.11788
2.1179
2.09114
2.09116
2.09377
2.09371
2.06307
2.06302
2.21409
2.415
2.18758
2.38903
2.19738
2.41984
2.1667
2.38924
2.73656
2.92225
2.71158
2.89766
2.79202
3.0047
2.76168
2.97428
2.96175
2.77738
2.94306
2.75827
3.0552
2.84295
3.03152
2.81925
2.45829
2.2587
2.43819
2.23804
2.47182
2.24973
2.44773
2.22545
2.16308
2.1631
2.14216
2.14218
2.14612
2.14607
2.12176
2.12171
2.2588
2.45855
2.23813
2.43844
2.24962
2.47173
2.22533
2.44763
2.778
2.96284
2.75888
2.94413
2.84308
3.05575
2.81937
3.03205
2.99161
2.80813
2.97811
2.7942
3.09392
2.88186
3.07621
2.86405
2.49115
2.29276
2.47623
2.27725
2.51181
2.29027
2.49349
2.27167
2.19768
2.1977
2.1819
2.18192
2.18688
2.18683
2.16815
2.16811
2.29287
2.49143
2.27736
2.4765
2.29017
2.51174
2.27156
2.49341
2.80876
2.99271
2.79482
2.9792
2.88202
3.09449
2.86419
3.07677
3.01185
2.82931
3.00303
2.82003
3.12158
2.90991
3.10926
2.89739
2.5145
2.31736
2.5042
2.30645
2.54118
2.32035
2.52803
2.30684
2.22284
2.22287
2.21165
2.21168
2.21727
2.21723
2.20359
2.20355
2.31747
2.51479
2.30656
2.50449
2.32026
2.54112
2.30674
2.52797
2.82997
3.01297
2.82068
3.00415
2.91008
3.12218
2.89755
3.10985
3.02348
2.84196
3.01886
2.83684
3.13934
2.92823
3.13185
2.92045
2.52935
2.3335
2.52319
2.32671
2.56102
2.34107
2.55251
2.33212
2.23959
2.23962
2.23249
2.23252
2.23837
2.23833
2.22922
2.22918
2.33363
2.52965
2.32683
2.52349
2.34098
2.56098
2.33203
2.55246
2.84263
3.02463
2.8375
3.01999
2.92842
3.13995
2.92063
3.13245
3.02731
2.84689
3.02651
2.84554
3.14807
2.93773
3.145
2.93426
2.53653
2.34204
2.53411
2.33895
2.57226
2.35333
2.56795
2.3485
2.24876
2.2488
2.24535
2.24539
2.2511
2.25106
2.24603
2.24599
2.34217
2.53685
2.33908
2.53442
2.35325
2.57223
2.34842
2.56791
2.84757
3.02846
2.84622
3.02766
2.93793
3.1487
2.93445
3.14562
3.02404
2.84481
3.0267
2.84687
3.14854
2.93914
3.14951
2.93963
2.53677
2.3437
2.53773
2.34397
2.57565
2.3579
2.57518
2.35683
2.25108
2.25112
2.25102
2.25105
2.25621
2.25618
2.25486
2.25483
2.34383
2.5371
2.3441
2.53806
2.35782
2.57563
2.35676
2.57516
2.84551
3.02521
2.84756
3.02786
2.93937
3.1492
2.93984
3.15015
3.01417
2.83629
3.02006
2.84151
3.14142
2.93323
3.14611
2.9373
2.53069
2.33912
2.53475
2.34243
2.57195
2.35553
2.57493
2.35782
2.24722
2.24726
2.25017
2.25021
2.25446
2.25443
2.25644
2.2564
2.33926
2.53103
2.34257
2.53508
2.35546
2.57195
2.35775
2.57492
2.837
3.01535
2.84221
3.02124
2.93349
3.14212
2.93754
3.14679
2.99825
2.82185
3.00711
2.82997
3.12723
2.92047
3.13538
2.92789
2.51876
2.32875
2.52569
2.3349
2.56162
2.34667
2.56786
2.35218
2.23759
2.23763
2.24338
2.24341
2.2463
2.24627
2.25145
2.25142
2.32889
2.5191
2.33505
2.52603
2.34662
2.56164
2.35212
2.56788
2.82257
2.99945
2.83069
3.00831
2.92079
3.12799
2.92818
3.13611
2.97669
2.80191
2.98832
2.81273
3.10661
2.90149
3.11792
2.91197
2.50141
2.31303
2.511
2.32181
2.5452
2.33183
2.55444
2.34027
2.22266
2.2227
2.23105
2.23109
2.23221
2.23218
2.24027
2.24024
2.31318
2.50176
2.32196
2.51135
2.33178
2.54522
2.34022
2.55446
2.80264
2.97789
2.81346
2.98953
2.90179
3.10737
2.91228
3.11869
2.94978
2.7768
2.96406
2.79017
3.07979
2.87655
3.09415
2.88995
2.47899
2.29231
2.49108
2.30355
2.52303
2.31137
2.5351
2.32258
2.20275
2.20279
2.21359
2.21362
2.21257
2.21254
2.22336
2.22334
2.29245
2.47934
2.3037
2.49143
2.31132
2.52305
2.32253
2.53513
2.77752
2.95097
2.7909
2.96525
2.87685
3.08053
2.89026
3.0949
2.91772
2.74673
2.93456
2.76256
3.04702
2.84594
3.06435
2.86217
2.45174
2.26685
2.46622
2.28043
2.4954
2.2856
2.51018
2.29943
2.17816
2.1782
2.1913
2.19134
2.18769
2.18766
2.20107
2.20104
2.26699
2.45208
2.28057
2.46656
2.28554
2.4954
2.29938
2.51019
2.74743
2.91889
2.76327
2.93574
2.84619
3.0477
2.86244
3.06506
2.88066
2.71188
2.89998
2.73007
3.00837
2.80977
3.02863
2.82875
2.41988
2.23688
2.43663
2.25268
2.46252
2.25476
2.47989
2.2711
2.14911
2.14914
2.16445
2.16449
2.15782
2.15779
2.17366
2.17364
2.23702
2.42021
2.25283
2.43697
2.2547
2.46252
2.27104
2.47989
2.71258
2.88182
2.73077
2.90114
2.81
3.00903
2.82899
3.02929
2.83885
2.6725
2.86051
2.69293
2.96414
2.76834
2.98715
2.78991
2.38362
2.20261
2.40254
2.22054
2.42464
2.21908
2.44448
2.2378
2.11581
2.11585
2.13325
2.13329
2.12319
2.12317
2.14139
2.14136
2.20275
2.38395
2.22068
2.40288
2.21902
2.42464
2.23775
2.44447
2.67319
2.83999
2.69362
2.86165
2.76857
2.96478
2.79015
2.9878
2.79251
2.6288
2.8164
2.65136
2.91459
2.72189
2.94022
2.74594
2.34318
2.16425
2.36416
2.1842
2.38198
2.17877
2.40418
2.19978
2.07845
2.07849
2.0979
2.09793
2.08401
2.08399
2.10445
2.10443
2.16439
2.3435
2.18434
2.3645
2.17871
2.38198
2.19973
2.40418
2.62948
2.79363
2.65204
2.81753
2.72212
2.91522
2.74618
2.94086
2.74185
2.58098
2.76787
2.60557
2.85994
2.67065
2.88809
2.69707
2.29873
2.12195
2.32169
2.14384
2.33474
2.13402
2.3592
2.15723
2.03721
2.03725
2.05857
2.05861
2.04046
2.04043
2.06306
2.06303
2.12209
2.29905
2.14398
2.32202
2.13397
2.33474
2.15717
2.3592
2.58165
2.74296
2.60624
2.76899
2.67088
2.86057
2.6973
2.88872
2.68711
2.52924
2.71514
2.55576
2.80044
2.61481
2.83099
2.6435
2.25045
2.0759
2.2753
2.09964
2.28311
2.08501
2.30974
2.11032
1.99224
1.99228
2.01544
2.01548
1.9927
1.99267
2.01738
2.01735
2.07603
2.25076
2.09978
2.27562
2.08495
2.28311
2.11027
2.30974
2.5299
2.68819
2.55643
2.71623
2.61504
2.80105
2.64373
2.8316
2.62853
2.4738
2.65844
2.50214
2.73634
2.55461
2.76915
2.58545
2.19853
2.02624
2.22517
2.05176
2.22727
2.03189
2.25598
2.05923
1.94368
1.94372
1.96866
1.96869
1.94089
1.94086
1.96757
1.96754
2.02637
2.19883
2.0519
2.22549
2.03184
2.22727
2.05918
2.25597
2.47444
2.62959
2.50279
2.65952
2.55483
2.73693
2.58567
2.76975
2.56639
2.41489
2.59804
2.44493
2.66792
2.49028
2.70285
2.52314
2.14314
1.97314
2.17149
2.00036
2.16742
1.97485
2.1981
2.00412
1.89169
1.89173
1.91836
1.91839
1.88519
1.88516
1.91379
1.91376
1.97327
2.14344
2.00049
2.1718
1.97479
2.16741
2.00407
2.1981
2.41551
2.56742
2.44556
2.59909
2.49049
2.6685
2.52336
2.70343
2.50099
2.35276
2.53423
2.38437
2.59547
2.42203
2.63237
2.45683
2.0845
1.91676
2.11445
1.94559
2.10374
1.91402
2.13631
1.94516
1.83642
1.83645
1.8647
1.86473
1.82574
1.82572
1.85619
1.85616
1.91688
2.08479
1.94571
2.11474
1.91397
2.10373
1.94511
2.1363
2.35337
2.502
2.38498
2.53525
2.42223
2.59603
2.45704
2.63293
2.43267
2.28772
2.46732
2.32074
2.51936
2.35014
2.55804
2.38671
2.02283
1.85727
2.05426
1.88763
2.03643
1.8496
2.07078
1.88251
1.77802
1.77805
1.80784
1.80787
1.76271
1.76268
1.79492
1.7949
1.85739
2.0231
1.88775
2.05454
1.84954
2.03642
1.88245
2.07076
2.28831
2.43365
2.32134
2.46831
2.35033
2.51989
2.38691
2.55858
2.36186
2.22008
2.39769
2.25435
2.43996
2.27494
2.48022
2.31312
1.95836
1.79488
1.99114
1.82666
1.96573
1.78175
2.00174
1.81635
1.71666
1.71669
1.74793
1.74796
1.69623
1.6962
1.73014
1.73011
1.79499
1.95862
1.82677
1.99141
1.78169
1.96571
1.81629
2.00172
2.22064
2.3628
2.25493
2.39865
2.27512
2.44047
2.3133
2.48074
2.28911
2.15028
2.32583
2.18556
2.35776
2.1968
2.39935
2.23639
1.8914
1.72979
1.92538
1.76288
1.8919
1.71065
1.92943
1.74684
1.65251
1.65253
1.68515
1.68518
1.62644
1.62642
1.66199
1.66196
1.72989
1.89165
1.76299
1.92564
1.71059
1.89187
1.74678
1.9294
2.15083
2.29001
2.18612
2.32675
2.19696
2.35824
2.23656
2.39984
2.21527
2.079
2.25239
2.11492
2.2735
2.11627
2.31599
2.15696
1.82234
1.66221
1.85731
1.69652
1.81526
1.63646
1.85414
1.67417
1.58566
1.58568
1.61964
1.61966
1.55343
1.5534
1.59058
1.59055
1.6623
1.82257
1.69661
1.85755
1.63639
1.81522
1.6741
1.8541
2.07952
2.21613
2.11545
2.25327
2.11642
2.27395
2.15712
2.31646
2.14195
2.00735
2.17852
2.04326
2.18855
2.03428
2.23114
2.07555
1.75165
1.59218
1.78737
1.62772
1.73616
1.55916
1.77622
1.59844
1.51598
1.516
1.55142
1.55144
1.47701
1.47698
1.5159
1.51587
1.59225
1.75186
1.6278
1.78759
1.55909
1.73611
1.59837
1.77617
2.00783
2.14277
2.04376
2.17936
2.0344
2.18896
2.07568
2.23157
2.07298
1.93723
2.10663
1.97208
2.10626
1.95238
2.14685
1.99336
1.67957
1.51909
1.71601
1.55631
1.65467
1.47811
1.69597
1.51942
1.44254
1.44255
1.48004
1.48006
1.39628
1.39624
1.4375
1.43747
1.51915
1.67976
1.55638
1.71621
1.47802
1.65461
1.51934
1.69592
1.93768
2.07375
1.97254
2.10743
1.95249
2.10664
1.99347
2.14725
2.02074
1.87018
2.04328
1.90355
2.03799
1.8713
2.06901
1.91209
1.60383
1.44023
1.64275
1.48088
1.5682
1.39055
1.61269
1.43566
1.36284
1.36285
1.40389
1.4039
1.30883
1.3088
1.35383
1.35379
1.44027
1.60398
1.48094
1.64292
1.39046
1.56812
1.43558
1.61262
1.87059
2.02146
1.90398
2.04403
1.87137
2.03833
1.91218
2.06937
2.04072
1.78352
2.01458
1.8349
2.03968
1.76566
2.02256
1.82761
1.51102
1.34932
1.5614
1.3969
1.46253
1.29006
1.51971
1.34258
1.27315
1.27315
1.31961
1.31961
1.2109
1.21086
1.26158
1.26154
1.34934
1.51114
1.39693
1.56154
1.28996
1.46243
1.34249
1.51962
1.78387
2.0414
1.83527
2.01527
1.76569
2.03998
1.82766
2.02287
1.36841
1.2002
1.15182
1.0125
1.25844
1.09213
1.03491
0.900429
0.893706
0.710732
0.726551
0.561199
0.785652
0.606422
0.619357
0.46109
0.626053
0.625878
0.486478
0.486275
0.524719
0.524537
0.390944
0.390744
0.710251
0.89308
0.560621
0.725729
0.60591
0.784945
0.460508
0.618492
1.19975
1.36833
1.01174
1.15134
1.09152
1.25814
0.899552
1.03426
1.70153
1.52128
1.54908
1.37132
1.59766
1.41573
1.44252
1.26464
1.202
1.00579
1.05405
0.861624
1.09114
0.89471
0.944423
0.753523
0.91296
0.912857
0.771447
0.771309
0.802799
0.802673
0.665174
0.665019
1.00552
1.20174
0.861257
1.05362
0.894376
1.09074
0.7531
0.943877
1.5213
1.70196
1.37113
1.54928
1.41554
1.59783
1.26426
1.44248
1.95962
1.78017
1.8375
1.65709
1.86183
1.67825
1.73646
1.55306
1.46493
1.26809
1.33906
1.14183
1.35376
1.15386
1.22765
1.02869
1.17389
1.17385
1.0479
1.04783
1.05908
1.05901
0.934887
0.934787
1.268
1.46494
1.14166
1.33895
1.15367
1.3536
1.02844
1.22738
1.78052
1.9604
1.65729
1.83811
1.67836
1.86233
1.55304
1.73681
2.17096
1.99494
2.07044
1.89259
2.08085
1.89876
1.97632
1.79332
1.68726
1.49323
1.58104
1.38542
1.57857
1.37918
1.47081
1.27091
1.39974
1.39974
1.29144
1.29142
1.28392
1.28388
1.17573
1.17568
1.49327
1.68746
1.3854
1.58115
1.37911
1.57859
1.27079
1.47074
1.99552
2.17199
1.89307
2.07135
1.89909
2.0816
1.79356
1.97696
2.3463
2.17415
2.2628
2.08874
2.26486
2.08502
2.17696
1.99598
1.87434
1.68402
1.7851
1.59291
1.77003
1.57244
1.67842
1.47987
1.5919
1.59193
1.50007
1.50008
1.47758
1.47757
1.38475
1.38472
1.68414
1.87468
1.59299
1.78537
1.57245
1.77017
1.47984
1.67851
2.17489
2.3475
2.08941
2.26392
2.08552
2.26578
1.9964
2.1778
2.49206
2.32357
2.42268
2.25242
2.41951
2.24203
2.3457
2.16707
2.03105
1.84448
1.95641
1.76801
1.93211
1.73672
1.85471
1.65822
1.75389
1.75394
1.67665
1.6767
1.6426
1.64261
1.56371
1.56371
1.84467
2.03148
1.76817
1.9568
1.7368
1.93236
1.65826
1.85491
2.32443
2.49338
2.25322
2.42394
2.24264
2.42056
2.16763
2.3467
2.61284
2.44764
2.55544
2.38866
2.54893
2.37367
2.48727
2.31095
2.16165
1.9786
2.09958
1.91483
2.06848
1.87535
2.00352
1.80928
1.88952
1.88959
1.82501
1.82507
1.78209
1.78212
1.71558
1.7156
1.97884
2.16215
1.91504
2.10005
1.87547
2.0688
1.80937
2.0038
2.44858
2.61425
2.38957
2.55681
2.37437
2.55008
2.31161
2.48838
2.71233
2.55004
2.66518
2.5015
2.65658
2.48333
2.60544
2.43123
2.26983
2.09001
2.21855
2.03718
2.18245
1.99151
2.1283
1.9363
2.00236
2.00244
1.94883
1.94891
1.89914
1.89918
1.84348
1.84352
2.09029
2.27039
2.03743
2.21909
1.99166
2.18282
1.93643
2.12865
2.55104
2.7138
2.50247
2.66662
2.4841
2.6578
2.43196
2.60662
2.79342
2.6337
2.75512
2.59418
2.74519
2.57378
2.70323
2.53095
2.35865
2.18178
2.3167
2.13841
2.27684
2.08799
2.23215
2.04229
2.09545
2.09554
2.05144
2.05153
1.9965
1.99655
1.95036
1.95041
2.18208
2.35925
2.1387
2.31728
2.08817
2.27725
2.04246
2.23254
2.63475
2.79494
2.59521
2.75662
2.5746
2.74647
2.53174
2.70449
2.85866
2.70124
2.82801
2.6695
2.81729
2.64755
2.78331
2.61278
2.4308
2.25661
2.39688
2.2214
2.35422
2.16735
2.31774
2.12991
2.1715
2.1716
2.1357
2.1358
2.07672
2.07678
2.03886
2.03892
2.25693
2.43143
2.22171
2.3975
2.16755
2.35466
2.13011
2.31817
2.70232
2.86022
2.67056
2.82955
2.6484
2.81861
2.61361
2.78462
2.9101
2.75476
2.8861
2.72977
2.87491
2.70672
2.84792
2.67899
2.48848
2.31675
2.46154
2.28863
2.41673
2.23174
2.38744
2.20153
2.23278
2.23289
2.2041
2.20421
2.14195
2.14201
2.11134
2.1114
2.31709
2.48914
2.28896
2.46218
2.23196
2.4172
2.20175
2.3879
2.75587
2.91169
2.73087
2.88768
2.70761
2.87627
2.67987
2.84926
2.94956
2.79609
2.93136
2.777
2.91989
2.75314
2.89903
2.73159
2.53361
2.36416
2.51274
2.34218
2.46627
2.28307
2.44325
2.25918
2.28124
2.28135
2.25875
2.25886
2.19409
2.19416
2.16981
2.16987
2.36451
2.53429
2.34253
2.5134
2.28331
2.46677
2.25942
2.44374
2.79722
2.95117
2.77812
2.93297
2.75405
2.92128
2.73249
2.90041
2.97848
2.82674
2.96537
2.8128
2.95369
2.78833
2.93823
2.77221
2.56777
2.40043
2.55219
2.38384
2.50441
2.32293
2.48691
2.3046
2.31851
2.31862
2.30143
2.30154
2.23474
2.23481
2.21602
2.21609
2.40079
2.56846
2.38419
2.55288
2.32318
2.50492
2.30484
2.48741
2.82789
2.98011
2.81395
2.96699
2.78926
2.9551
2.77313
2.93964
2.99815
2.84803
2.98952
2.83863
2.97768
2.81364
2.96698
2.80231
2.59231
2.42696
2.58139
2.41508
2.53253
2.35271
2.51988
2.33926
2.34598
2.34609
2.33364
2.33375
2.26529
2.26537
2.25146
2.25153
2.42733
2.59302
2.41545
2.58209
2.35297
2.53306
2.33951
2.5204
2.8492
2.9998
2.83979
2.99116
2.8146
2.97911
2.80325
2.9684
3.00956
2.86098
3.00496
2.85563
2.99288
2.83015
2.98646
2.8231
2.60834
2.44488
2.60155
2.43718
2.55174
2.37355