/*--------------------------------*- C++ -*----------------------------------*\
  =========                 |
  \\      /  F ield         | OpenFOAM: The Open Source CFD Toolbox
   \\    /   O peration     | Website:  https://openfoam.org
    \\  /    A nd           | Version:  9
     \\/     M anipulation  |
\*---------------------------------------------------------------------------*/
FoamFile
{
    format      ascii;
    class       volScalarField;
    location    "4.8";
    object      k;
}
// * * * * * * * * * * * * * * * * * * * * * * * * * * * * * * * * * * * * * //

dimensions      [0 2 -2 0 0 0 0];

internalField   nonuniform List<scalar> 
36360
(
0.257282
0.231095
0.187481
0.172198
0.0871009
0.0786849
0.0461214
0.0503249
0.170387
0.136586
0.117804
0.0886519
0.0572561
0.0443702
0.0310591
0.0209443
0.121801
0.121751
0.076579
0.0765362
0.038969
0.0389518
0.0174174
0.0174072
0.136433
0.170129
0.0885143
0.117559
0.044314
0.0571548
0.0209057
0.0309775
0.230751
0.256881
0.171858
0.187075
0.0785376
0.0869158
0.0501935
0.0459705
0.356154
0.326328
0.310456
0.281455
0.13652
0.122993
0.114315
0.102115
0.262299
0.225753
0.218206
0.182448
0.0998621
0.0860423
0.0795339
0.0659562
0.209262
0.209209
0.166487
0.166434
0.0798996
0.0798778
0.0600241
0.0600038
0.225595
0.262042
0.18229
0.217947
0.0859757
0.09975
0.0658932
0.0794255
0.325992
0.355768
0.281114
0.310062
0.122837
0.136329
0.101962
0.114125
0.43639
0.405821
0.397886
0.367615
0.174643
0.159732
0.15639
0.142065
0.341254
0.304155
0.303218
0.266302
0.136091
0.122053
0.118633
0.104684
0.287229
0.287176
0.249534
0.249481
0.115698
0.115675
0.0984159
0.0983932
0.304
0.341006
0.266145
0.302965
0.121984
0.135976
0.104616
0.118519
0.405498
0.436022
0.367285
0.397509
0.159574
0.17445
0.141908
0.156198
0.504602
0.473736
0.471854
0.4411
0.206878
0.191204
0.191406
0.176058
0.409107
0.371913
0.376476
0.339301
0.167256
0.153106
0.152252
0.138149
0.354852
0.354802
0.322286
0.322234
0.146645
0.146622
0.131732
0.131708
0.371765
0.408869
0.33915
0.376233
0.153036
0.167142
0.138079
0.152137
0.473429
0.504251
0.440785
0.471494
0.191048
0.206688
0.175901
0.191215
0.562496
0.531552
0.534731
0.503807
0.234179
0.218088
0.221083
0.205167
0.467034
0.429908
0.439225
0.402053
0.193924
0.179712
0.181104
0.166918
0.412836
0.412788
0.384977
0.384927
0.1732
0.173177
0.160426
0.160403
0.429767
0.466808
0.401909
0.438993
0.179644
0.193812
0.166849
0.180991
0.53126
0.562163
0.503508
0.534388
0.217935
0.233994
0.205013
0.220895
0.611416
0.580506
0.587974
0.557038
0.257226
0.240907
0.246177
0.229953
0.516184
0.479197
0.492616
0.455556
0.2166
0.202362
0.205711
0.191483
0.462175
0.462129
0.438505
0.438458
0.195831
0.195809
0.184959
0.184936
0.479063
0.515969
0.455419
0.492396
0.202296
0.216491
0.191416
0.205601
0.580229
0.611099
0.556753
0.587648
0.24076
0.257046
0.229803
0.245994
0.652594
0.621773
0.632879
0.602009
0.276619
0.26018
0.267326
0.250936
0.557688
0.52087
0.537809
0.500907
0.235784
0.221552
0.226581
0.212344
0.503924
0.50388
0.483921
0.483877
0.215013
0.214992
0.205808
0.205786
0.520742
0.557483
0.500776
0.5376
0.221488
0.235679
0.212279
0.226475
0.621509
0.652291
0.601739
0.632568
0.260036
0.276443
0.250791
0.267149
0.687136
0.656428
0.670612
0.639847
0.292889
0.276392
0.285096
0.268622
0.592595
0.555953
0.575893
0.539165
0.251948
0.237734
0.244201
0.229976
0.539091
0.539049
0.522261
0.522219
0.231206
0.231185
0.22344
0.223419
0.55583
0.592399
0.539039
0.575693
0.237672
0.251847
0.229913
0.244098
0.656175
0.686845
0.639588
0.670315
0.276252
0.292718
0.26848
0.284923
0.715967
0.685379
0.702191
0.671543
0.306478
0.289958
0.299975
0.283462
0.6218
0.585333
0.607845
0.571293
0.265497
0.251308
0.25901
0.244808
0.568554
0.568514
0.554473
0.554432
0.2448
0.24478
0.238289
0.238269
0.585214
0.621611
0.571173
0.607653
0.251248
0.265398
0.244746
0.258909
0.685134
0.715686
0.671295
0.701905
0.289822
0.306311
0.283325
0.299806
0.739895
0.709425
0.72848
0.697952
0.31777
0.301249
0.312373
0.295849
0.646096
0.609797
0.634506
0.598126
0.276791
0.262634
0.27139
0.257217
0.593101
0.593062
0.581389
0.58135
0.256149
0.256129
0.25072
0.2507
0.609683
0.645914
0.598009
0.634321
0.262575
0.276694
0.257157
0.271292
0.709188
0.739623
0.697711
0.728203
0.301116
0.317607
0.295715
0.312208
0.759581
0.729224
0.75021
0.719797
0.327079
0.310569
0.322637
0.306119
0.666137
0.63
0.656599
0.620384
0.28613
0.272008
0.281672
0.267532
0.613385
0.613347
0.603729
0.60369
0.265548
0.265529
0.26106
0.26104
0.629889
0.66596
0.620271
0.656419
0.27195
0.286035
0.267474
0.281576
0.728993
0.759316
0.719564
0.749941
0.310439
0.326918
0.305987
0.322475
0.775594
0.745342
0.767997
0.737693
0.33467
0.318181
0.331057
0.314556
0.68249
0.646508
0.674733
0.638676
0.293773
0.279689
0.290134
0.276031
0.62997
0.629933
0.6221
0.622062
0.273254
0.273235
0.269584
0.269564
0.6464
0.682316
0.638566
0.674557
0.279632
0.293679
0.275973
0.29004
0.745116
0.775335
0.737466
0.767735
0.318052
0.334512
0.314427
0.330898
0.788395
0.758241
0.78235
0.752148
0.340762
0.324298
0.337874
0.321395
0.695616
0.659786
0.689418
0.653515
0.299931
0.285888
0.297009
0.282946
0.643322
0.643286
0.637015
0.636978
0.279478
0.279459
0.276524
0.276505
0.659679
0.695446
0.653408
0.689246
0.285833
0.299839
0.28289
0.296917
0.758021
0.788141
0.751925
0.782093
0.324171
0.340606
0.321268
0.337717
0.798382
0.768322
0.793699
0.763593
0.345542
0.329105
0.343288
0.326836
0.705917
0.670231
0.701087
0.665331
0.304788
0.290791
0.302496
0.288477
0.653841
0.653806
0.648905
0.648869
0.284403
0.284384
0.282078
0.282059
0.670127
0.705749
0.665226
0.700918
0.290736
0.304697
0.288421
0.302405
0.768106
0.798132
0.763374
0.793446
0.32898
0.345387
0.326711
0.343133
0.805872
0.775905
0.802402
0.772389
0.349157
0.332751
0.347469
0.331047
0.713716
0.678174
0.710101
0.67449
0.308493
0.294544
0.306761
0.292788
0.661856
0.661821
0.658136
0.658101
0.288177
0.288159
0.286411
0.286392
0.678071
0.713551
0.674386
0.709935
0.29449
0.308404
0.292733
0.306671
0.775691
0.805626
0.772174
0.802154
0.332628
0.349004
0.330923
0.347315
0.811133
0.78126
0.808748
0.778828
0.351736
0.335362
0.350552
0.334161
0.719287
0.683887
0.716755
0.681286
0.311172
0.297273
0.309939
0.296015
0.667642
0.667608
0.665005
0.66497
0.290927
0.290909
0.289658
0.28964
0.683786
0.719124
0.681184
0.716591
0.29722
0.311084
0.295961
0.30985
0.78105
0.81089
0.778616
0.808503
0.33524
0.351584
0.334038
0.3504
0.81438
0.784608
0.812979
0.783156
0.353378
0.337039
0.352652
0.336294
0.722854
0.687598
0.721299
0.685973
0.312928
0.299082
0.312145
0.298273
0.671428
0.671394
0.669765
0.669731
0.292757
0.292739
0.291937
0.291919
0.687498
0.722694
0.685873
0.721138
0.299029
0.31284
0.298219
0.312057
0.784402
0.814142
0.782947
0.812737
0.336919
0.353228
0.336172
0.3525
0.815783
0.786121
0.815288
0.78557
0.354167
0.337865
0.353859
0.337537
0.724597
0.68949
0.723935
0.688754
0.313843
0.300054
0.313471
0.299654
0.673395
0.673362
0.672622
0.672588
0.29375
0.293733
0.293338
0.293321
0.689391
0.72444
0.688655
0.723776
0.300001
0.313757
0.299601
0.313384
0.785924
0.815552
0.785366
0.815052
0.337746
0.354019
0.337417
0.353709
0.815483
0.785949
0.815814
0.786214
0.354166
0.3379
0.354241
0.337958
0.72467
0.689713
0.724822
0.689793
0.31398
0.300249
0.313992
0.300233
0.673692
0.673659
0.673736
0.673703
0.293973
0.293956
0.293943
0.293926
0.689618
0.72452
0.689696
0.724668
0.300197
0.313896
0.300181
0.313907
0.785768
0.815277
0.786026
0.815595
0.337786
0.354022
0.337841
0.354094
0.813602
0.784228
0.814712
0.785257
0.353439
0.33722
0.353882
0.337638
0.723204
0.68841
0.72412
0.689249
0.313424
0.299757
0.313787
0.300088
0.672469
0.672437
0.673269
0.673237
0.293511
0.293494
0.293826
0.293809
0.688318
0.723062
0.689156
0.723976
0.299706
0.313342
0.300037
0.313705
0.784048
0.813395
0.785075
0.814507
0.337114
0.353305
0.33753
0.353744
0.810301
0.781094
0.812112
0.78282
0.352041
0.335868
0.352807
0.33661
0.720294
0.685659
0.721916
0.687202
0.312185
0.298583
0.312871
0.299236
0.669796
0.669764
0.6713
0.671268
0.292369
0.292352
0.293006
0.292988
0.685567
0.720152
0.68711
0.721774
0.298532
0.312103
0.299185
0.312789
0.780922
0.810106
0.782648
0.811913
0.335759
0.351905
0.336501
0.352671
0.805587
0.77658
0.80809
0.778979
0.349989
0.333865
0.351076
0.334925
0.716019
0.681549
0.718313
0.683763
0.310314
0.296782
0.311311
0.297745
0.665768
0.665737
0.667941
0.66791
0.290601
0.290584
0.291548
0.291531
0.681458
0.715877
0.683671
0.718172
0.296732
0.310232
0.297695
0.31123
0.7764
0.805382
0.778803
0.807891
0.333757
0.349854
0.334819
0.350942
0.79954
0.770755
0.802716
0.773816
0.347317
0.331246
0.348715
0.332616
0.710442
0.676142
0.713384
0.678999
0.307838
0.294379
0.309136
0.295641
0.660445
0.660413
0.66326
0.663228
0.288233
0.288216
0.289477
0.28946
0.676048
0.710294
0.678907
0.713239
0.294329
0.307755
0.295591
0.309054
0.770565
0.799322
0.773631
0.802504
0.331132
0.347175
0.332504
0.348576
0.792138
0.763619
0.795988
0.767331
0.344027
0.328013
0.345732
0.329687
0.70359
0.669476
0.707165
0.672958
0.304771
0.291393
0.306363
0.292945
0.653871
0.653839
0.657306
0.657274
0.285284
0.285267
0.286817
0.2868
0.669383
0.703441
0.672865
0.707016
0.291343
0.304689
0.292894
0.306281
0.763427
0.791915
0.767138
0.795766
0.327899
0.343885
0.329573
0.34559
0.783437
0.755228
0.78793
0.759562
0.340141
0.32419
0.342142
0.326157
0.695506
0.661592
0.699692
0.665679
0.301133
0.28784
0.303009
0.289673
0.646083
0.646052
0.650121
0.650089
0.281771
0.281754
0.283584
0.283567
0.6615
0.695359
0.665586
0.699544
0.287791
0.301051
0.289624
0.302927
0.755038
0.783216
0.75937
0.787708
0.324077
0.340001
0.326044
0.342001
0.773477
0.745619
0.778596
0.750558
0.335675
0.319791
0.337965
0.322045
0.686223
0.652519
0.691006
0.657197
0.296935
0.283733
0.29909
0.285842
0.637112
0.637081
0.641738
0.641707
0.277705
0.277689
0.279793
0.279777
0.652428
0.686077
0.657106
0.690859
0.283685
0.296855
0.285793
0.299009
0.745431
0.773258
0.750368
0.778377
0.319679
0.335536
0.321933
0.337825
0.762282
0.734816
0.768017
0.74035
0.33064
0.314827
0.333213
0.317363
0.675764
0.64228
0.681132
0.647539
0.292188
0.279082
0.294617
0.281463
0.626978
0.626948
0.632184
0.632153
0.273097
0.27308
0.275455
0.275439
0.64219
0.67562
0.647448
0.680987
0.279034
0.292109
0.281414
0.294537
0.73463
0.762066
0.740162
0.767799
0.314717
0.330502
0.317252
0.333075
0.749877
0.72284
0.756214
0.728958
0.325045
0.309309
0.327897
0.312121
0.664147
0.630892
0.670093
0.636723
0.286901
0.273893
0.289599
0.276542
0.615699
0.615669
0.621476
0.621446
0.267952
0.267936
0.270579
0.270562
0.630802
0.664005
0.636634
0.669949
0.273846
0.286822
0.276494
0.28952
0.722656
0.749663
0.728772
0.755999
0.3092
0.324909
0.312012
0.32776
0.736281
0.709707
0.743211
0.716402
0.318898
0.303241
0.322026
0.306328
0.651385
0.618364
0.657902
0.624765
0.281077
0.268172
0.284043
0.271087
0.603284
0.603254
0.609628
0.609598
0.262276
0.26226
0.265168
0.265152
0.618276
0.651244
0.624676
0.657761
0.268124
0.280999
0.271039
0.283965
0.709524
0.73607
0.716218
0.742999
0.303134
0.318764
0.30622
0.321891
0.721514
0.695428
0.729028
0.702694
0.312205
0.296629
0.315605
0.299988
0.637487
0.604705
0.644572
0.611671
0.27472
0.261919
0.277953
0.2651
0.589739
0.58971
0.596648
0.596618
0.25607
0.256054
0.259227
0.259211
0.604617
0.637348
0.611583
0.644431
0.261873
0.274643
0.265053
0.277875
0.695247
0.721305
0.702513
0.728817
0.296523
0.312073
0.299881
0.315472
0.705595
0.680015
0.713682
0.687847
0.304974
0.289482
0.308643
0.293106
0.622459
0.589915
0.630108
0.597447
0.267832
0.255138
0.27133
0.258583
0.575065
0.575035
0.582539
0.582509
0.249335
0.24932
0.252757
0.252742
0.589829
0.62232
0.59736
0.629969
0.255091
0.267756
0.258537
0.271254
0.679837
0.705389
0.687668
0.713475
0.289378
0.304844
0.293001
0.308512
0.688543
0.663476
0.697196
0.671872
0.297211
0.28181
0.301146
0.285699
0.606301
0.573992
0.614515
0.582091
0.260416
0.247825
0.264179
0.251537
0.559255
0.559226
0.567298
0.567269
0.242069
0.242054
0.245757
0.245742
0.573907
0.606164
0.582005
0.614378
0.247779
0.260341
0.251491
0.264103
0.6633
0.688339
0.671694
0.69699
0.281707
0.297083
0.285595
0.301017
0.67037
0.645813
0.679582
0.654771
0.288913
0.273605
0.293117
0.277761
0.589007
0.556925
0.597791
0.565598
0.252465
0.239975
0.256496
0.243957
0.542297
0.542268
0.550917
0.550888
0.234266
0.234251
0.238224
0.238209
0.556839
0.588871
0.565513
0.597654
0.23993
0.25239
0.243911
0.256422
0.645638
0.670168
0.654595
0.679379
0.273504
0.288787
0.277658
0.292989
0.651085
0.627022
0.660852
0.636544
0.28008
0.264868
0.284552
0.26929
0.570564
0.53869
0.579924
0.547951
0.243973
0.23158
0.248276
0.235836
0.524164
0.524135
0.533376
0.533347
0.225915
0.2259
0.230149
0.230134
0.538606
0.570429
0.547866
0.579789
0.231535
0.2439
0.235791
0.248202
0.626849
0.650885
0.63637
0.660651
0.264768
0.279956
0.269189
0.284426
0.630713
0.607112
0.641019
0.617192
0.270709
0.255603
0.27545
0.260288
0.550956
0.519251
0.560901
0.529121
0.234931
0.222621
0.239511
0.227162
0.504805
0.504776
0.514638
0.51461
0.216994
0.216979
0.221518
0.221503
0.519167
0.550823
0.529037
0.560768
0.222577
0.234859
0.227118
0.239439
0.606941
0.630516
0.61702
0.64082
0.255504
0.270587
0.260188
0.275327
0.609339
0.586124
0.620127
0.596735
0.26082
0.245832
0.265815
0.250765
0.530154
0.498521
0.540702
0.509052
0.225325
0.213061
0.23019
0.21791
0.484106
0.484078
0.49463
0.494601
0.207456
0.207441
0.212297
0.212282
0.498438
0.530022
0.508969
0.54057
0.213018
0.225254
0.217866
0.230119
0.585955
0.609145
0.596565
0.619931
0.245735
0.260701
0.250668
0.265694
0.587314
0.56417
0.59835
0.575245
0.250536
0.235634
0.255699
0.240766
0.508049
0.476283
0.519275
0.48761
0.21511
0.20281
0.220291
0.208022
0.461818
0.461791
0.473181
0.473153
0.197197
0.197183
0.202417
0.202402
0.476202
0.50792
0.487528
0.519145
0.202767
0.215041
0.207979
0.220221
0.564004
0.587123
0.575077
0.598157
0.235539
0.250419
0.240671
0.255581
0.566198
0.541162
0.576408
0.552838
0.24049
0.225088
0.245383
0.230404
0.484041
0.451961
0.496365
0.464437
0.204056
0.19164
0.209713
0.197353
0.437454
0.437427
0.449931
0.449903
0.18603
0.186016
0.191731
0.191718
0.451882
0.483915
0.464357
0.496238
0.191599
0.20399
0.197311
0.209645
0.540999
0.566011
0.552673
0.576218
0.224997
0.240377
0.230311
0.245268
0.554282
0.512192
0.557974
0.528488
0.232352
0.211827
0.236191
0.219294
0.455482
0.424481
0.470631
0.438671
0.191128
0.179184
0.197935
0.185577
0.410477
0.410451
0.4243
0.424273
0.17382
0.173807
0.18004
0.180027
0.424404
0.45536
0.438593
0.470506
0.179146
0.191065
0.185538
0.197869
0.512035
0.554099
0.528328
0.55779
0.21174
0.232244
0.219205
0.23608
0.433228
0.395032
0.353143
0.322912
0.354997
0.320576
0.278037
0.2524
0.319832
0.273772
0.252278
0.210307
0.249861
0.207944
0.187318
0.150019
0.252235
0.252147
0.191211
0.191123
0.188822
0.18875
0.133582
0.133514
0.273509
0.319414
0.210042
0.251845
0.207727
0.249509
0.149809
0.186965
0.394502
0.432633
0.322349
0.352497
0.320122
0.35448
0.25193
0.27749
0.566275
0.524851
0.503192
0.462579
0.475795
0.437806
0.419088
0.382016
0.44684
0.398154
0.385139
0.337175
0.363734
0.318916
0.308745
0.26476
0.374971
0.374888
0.314495
0.314409
0.298013
0.297942
0.244414
0.244342
0.397913
0.446463
0.336922
0.384741
0.318708
0.363403
0.264547
0.308402
0.524381
0.565753
0.46208
0.502635
0.437386
0.475322
0.381579
0.418595
0.678529
0.636644
0.624554
0.582789
0.575866
0.537206
0.527825
0.489396
0.558799
0.509862
0.504736
0.455811
0.462843
0.417535
0.415048
0.369874
0.486385
0.486311
0.43241
0.432332
0.396226
0.396159
0.348699
0.34863
0.509645
0.558461
0.455582
0.504379
0.41734
0.462535
0.369672
0.414729
0.636224
0.678065
0.582344
0.624062
0.536818
0.575431
0.488991
0.527372
0.774332
0.732558
0.728332
0.686467
0.660989
0.62222
0.620127
0.581376
0.65551
0.606878
0.608994
0.560177
0.548204
0.502952
0.507156
0.461842
0.583455
0.583387
0.536704
0.536633
0.481577
0.481515
0.440477
0.440413
0.606681
0.655205
0.55997
0.608673
0.50277
0.547919
0.461654
0.506859
0.732181
0.773916
0.686069
0.727893
0.621861
0.660588
0.581003
0.619709
0.855646
0.814176
0.816656
0.775025
0.733204
0.694534
0.698577
0.659844
0.738086
0.689932
0.69846
0.650059
0.62106
0.576049
0.586096
0.540952
0.666686
0.666624
0.626716
0.626652
0.55474
0.554682
0.519601
0.519541
0.689753
0.737809
0.649871
0.69817
0.57588
0.620795
0.540777
0.585821
0.813835
0.85527
0.774666
0.81626
0.694201
0.732832
0.659498
0.69819
0.924315
0.883205
0.891418
0.850129
0.794195
0.755706
0.764974
0.726391
0.808075
0.760445
0.774536
0.726646
0.682829
0.638129
0.653224
0.608366
0.737418
0.737361
0.703508
0.703449
0.61694
0.616886
0.587113
0.587057
0.76028
0.80782
0.726475
0.774271
0.637972
0.682582
0.608203
0.652968
0.882893
0.923972
0.849803
0.891059
0.755395
0.793848
0.726069
0.764614
0.982055
0.941307
0.954421
0.913498
0.845501
0.807224
0.820942
0.78256
0.867083
0.819969
0.838843
0.791478
0.73494
0.69057
0.709994
0.665461
0.79717
0.797118
0.768566
0.768511
0.669521
0.669471
0.644342
0.644289
0.819817
0.866848
0.791319
0.838598
0.690422
0.734707
0.665309
0.709754
0.941019
0.981738
0.913198
0.954091
0.806932
0.845175
0.782259
0.820606
1.03041
0.990005
1.00729
0.966723
0.888504
0.850438
0.867939
0.829771
0.916613
0.869987
0.892937
0.846075
0.778717
0.734673
0.757784
0.713581
0.847409
0.84736
0.823389
0.823338
0.713769
0.713721
0.692605
0.692556
0.869845
0.916393
0.845928
0.89271
0.734533
0.778497
0.713437
0.757557
0.989737
1.03012
0.966445
1.00699
0.850162
0.888195
0.829487
0.867622
1.07067
1.03058
1.05145
1.01121
0.924349
0.886489
0.907229
0.86927
0.957951
0.911778
0.938221
0.891831
0.815295
0.771561
0.797829
0.753946
0.889409
0.889363
0.86936
0.869312
0.750799
0.750753
0.733114
0.733067
0.911644
0.957743
0.891692
0.938008
0.771427
0.815085
0.753809
0.797614
1.03033
1.0704
1.01095
1.05116
0.886226
0.924055
0.869001
0.906927
1.10399
1.06418
1.08811
1.04817
0.954051
0.916382
0.939889
0.902129
0.992238
0.946483
0.975904
0.929948
0.845675
0.802234
0.831194
0.787612
0.924308
0.924264
0.907679
0.907634
0.781607
0.781563
0.766919
0.766874
0.946355
0.992041
0.929817
0.975702
0.802105
0.845473
0.787481
0.830989
1.06394
1.10372
1.04792
1.08784
0.916129
0.953769
0.901871
0.939601
1.13128
1.09173
1.1183
1.07863
0.978435
0.940942
0.966835
0.929258
1.02042
0.975049
1.00703
0.961474
0.870687
0.827521
0.858794
0.815495
0.953056
0.953013
0.939392
0.939349
0.807022
0.80698
0.794935
0.794891
0.974927
1.02023
0.961349
1.00684
0.827396
0.870493
0.815369
0.858596
1.0915
1.13103
1.0784
1.11805
0.940699
0.978162
0.92901
0.966557
1.15336
1.11405
1.1429
1.10348
0.998215
0.960885
0.988839
0.951432
1.04331
0.998298
1.03248
0.98729
0.89105
0.848141
0.881402
0.838369
0.976473
0.976432
0.965383
0.965341
0.827765
0.827723
0.817933
0.817891
0.99818
1.04313
0.98717
1.03229
0.84802
0.890861
0.838247
0.881211
1.11383
1.15312
1.10326
1.14266
0.960649
0.99795
0.951192
0.98857
1.17088
1.13179
1.16263
1.12343
1.01397
0.97679
1.00654
0.969287
1.06159
1.0169
1.05298
1.00814
0.907349
0.864683
0.899665
0.856882
0.995235
0.995195
0.986394
0.986354
0.844423
0.844383
0.836565
0.836524
1.01679
1.06141
1.00802
1.0528
0.864566
0.907165
0.856763
0.899479
1.13158
1.17065
1.12322
1.16239
0.97656
1.01371
0.969053
1.00627
1.18441
1.14553
1.17809
1.13911
1.02619
0.989162
1.02047
0.983369
1.07582
1.03144
1.06917
1.02464
0.92009
0.877655
0.914128
0.871582
1.00992
1.00988
1.00305
1.00301
0.857506
0.857467
0.851378
0.851339
1.03133
1.07565
1.02453
1.069
0.877541
0.91991
0.871466
0.913946
1.14532
1.18419
1.1389
1.17786
0.988937
1.02594
0.983141
1.02021
1.1944
1.15572
1.1898
1.15102
1.03529
0.998401
1.03109
0.994129
1.08647
1.04239
1.08156
1.03733
0.929684
0.887472
0.92525
0.88293
1.02101
1.02097
1.01589
1.01585
0.86743
0.867391
0.862835
0.862797
1.04228
1.0863
1.03722
1.08139
0.887359
0.929508
0.882817
0.925072
1.15552
1.19418
1.15082
1.18958
0.998181
1.03504
0.993906
1.03084
1.20124
1.16275
1.19817
1.15958
1.0416
1.00485
1.03875
1.00194
1.09394
1.05014
1.09058
1.04664
0.936476
0.89448
0.933403
0.891303
1.0289
1.02886
1.02533
1.02529
0.874543
0.874505
0.871314
0.871276
1.05003
1.09378
1.04653
1.09041
0.89437
0.936303
0.891191
0.933229
1.16255
1.20102
1.15939
1.19795
1.00464
1.04135
1.00172
1.0385
1.20523
1.16694
1.20355
1.16516
1.04538
1.00879
1.04377
1.0071
1.09856
1.05503
1.09658
1.05292
0.94075
0.898968
0.938905
0.897019
1.03392
1.03388
1.03174
1.03171
0.879135
0.879098
0.877134
0.877097
1.05492
1.0984
1.05282
1.09642
0.89886
0.94058
0.896909
0.938734
1.16675
1.20502
1.16497
1.20333
1.00858
1.04515
1.00689
1.04353
1.20663
1.16854
1.20621
1.16803
1.04687
1.01044
1.04638
1.00987
1.10058
1.05732
1.09987
1.05648
0.942738
0.90117
0.942011
0.900338
1.03634
1.0363
1.03543
1.0354
0.881442
0.881405
0.880557
0.88052
1.05722
1.10043
1.05638
1.09972
0.901064
0.942571
0.90023
0.941842
1.16836
1.20642
1.16784
1.20601
1.01023
1.04664
1.00966
1.04615
1.20566
1.1678
1.2064
1.16843
1.04626
1.01001
1.04679
1.01045
1.10025
1.05725
1.10069
1.05756
0.942642
0.901288
0.942929
0.901472
1.0364
1.03636
1.03665
1.03661
0.881663
0.881628
0.881797
0.88176
1.05715
1.1001
1.05746
1.10053
0.901184
0.94248
0.901366
0.942764
1.16762
1.20546
1.16824
1.2062
1.00981
1.04604
1.01024
1.04657
1.20249
1.16486
1.20432
1.16657
1.04368
1.00763
1.04518
1.00903
1.09773
1.05499
1.09925
1.05638
0.940613
0.899482
0.941857
0.900619
1.03427
1.03424
1.0356
1.03557
0.879967
0.879932
0.88105
0.881015
1.05489
1.09758
1.05629
1.0991
0.899381
0.940457
0.900516
0.941698
1.16469
1.2023
1.16639
1.20412
1.00744
1.04347
1.00884
1.04496
1.19726
1.15989
1.2001
1.1626
1.03929
1.00346
1.04168
1.00574
1.09316
1.05069
1.09569
1.05309
0.936781
0.89587
0.938909
0.89789
1.0301
1.03007
1.03243
1.0324
0.876463
0.876428
0.878429
0.878394
1.0506
1.09302
1.05299
1.09554
0.895769
0.936625
0.897789
0.938753
1.15972
1.19707
1.16243
1.19991
1.00327
1.03908
1.00555
1.04147
1.19008
1.153
1.19388
1.15666
1.03317
0.997582
1.03642
1.00071
1.08668
1.04447
1.09015
1.04782
0.931246
0.890561
0.934214
0.893419
1.02401
1.02398
1.02729
1.02726
0.871264
0.871229
0.874067
0.874032
1.04438
1.08653
1.04772
1.09
0.890461
0.931092
0.893319
0.93406
1.15282
1.18989
1.15648
1.19369
0.997392
1.03295
1.00052
1.0362
1.18102
1.14425
1.18576
1.14883
1.02537
0.990061
1.02945
0.994003
1.07835
1.03642
1.08274
1.04067
0.924083
0.88363
0.927859
0.887291
1.0161
1.01606
1.02028
1.02025
0.864448
0.864413
0.868051
0.868017
1.03633
1.07821
1.04058
1.08259
0.88353
0.923926
0.887191
0.927703
1.14408
1.18083
1.14866
1.18557
0.989867
1.02515
0.993812
1.02924
1.17013
1.13371
1.17577
1.13918
1.01592
0.980935
1.02082
0.985675
1.06825
1.0266
1.07351
1.03173
0.915339
0.875134
0.919899
0.879571
1.00642
1.00638
1.01147
1.01144
0.856072
0.856038
0.860449
0.860414
1.02651
1.06811
1.03163
1.07337
0.875034
0.915183
0.879471
0.919743
1.13354
1.16994
1.13901
1.17559
0.980741
1.0157
0.985481
1.02061
1.15746
1.12144
1.16399
1.12777
1.00488
0.970258
1.01057
0.975767
1.05643
1.01507
1.06255
1.02105
0.905066
0.865121
0.910385
0.870311
0.995032
0.995
1.00093
1.0009
0.846186
0.846152
0.851313
0.851279
1.01498
1.05629
1.02096
1.0624
0.865022
0.904911
0.870212
0.91023
1.12127
1.15728
1.1276
1.1638
0.970066
1.00466
0.975574
1.01036
1.14307
1.10748
1.15046
1.11464
0.992285
0.958073
0.998751
0.964332
1.04293
1.00188
1.04988
1.00868
0.893302
0.853628
0.899363
0.859554
0.981984
0.981952
0.988713
0.988681
0.834826
0.834793
0.840686
0.840652
1.00179
1.04279
1.00859
1.04974
0.85353
0.89315
0.859456
0.899209
1.10731
1.14289
1.11448
1.15027
0.957883
0.992073
0.964141
0.998537
1.12699
1.09186
1.13522
1.09985
0.978177
0.944412
0.985398
0.951406
1.02779
0.987046
1.03556
0.994664
0.880078
0.840685
0.886866
0.847334
0.967303
0.967271
0.974845
0.974814
0.822019
0.821986
0.8286
0.828566
0.986955
1.02765
0.994573
1.03542
0.840588
0.879927
0.847236
0.886714
1.0917
1.12682
1.09969
1.13504
0.944225
0.977968
0.951218
0.985187
1.10926
1.07462
1.11831
1.08342
0.96258
0.929298
0.970542
0.937016
1.01103
0.970599
1.01961
0.979022
0.865415
0.82631
0.87292
0.833672
0.95101
0.950979
0.959356
0.959325
0.807785
0.807752
0.815077
0.815044
0.970509
1.01089
0.978932
1.01947
0.826214
0.865265
0.833576
0.87277
1.07446
1.10908
1.08326
1.11813
0.929113
0.962373
0.93683
0.970333
1.08989
1.05578
1.09976
1.06538
0.945519
0.912751
0.954211
0.921184
0.99267
0.95255
1.00205
0.961773
0.849327
0.810515
0.857543
0.818586
0.933115
0.933084
0.942261
0.94223
0.792133
0.792101
0.800134
0.800101
0.952461
0.992534
0.961684
1.00191
0.81042
0.849179
0.818491
0.857395
1.05562
1.08972
1.06522
1.09958
0.912568
0.945314
0.921
0.954004
1.06892
1.03534
1.07959
1.04574
0.927015
0.894788
0.936426
0.903927
0.972713
0.932903
0.982887
0.942925
0.831824
0.793307
0.840747
0.802085
0.913621
0.913591
0.923567
0.923537
0.775069
0.775037
0.783775
0.783743
0.932815
0.972579
0.942836
0.982752
0.793212
0.831677
0.80199
0.8406
1.03518
1.06875
1.04558
1.07941
0.894606
0.926812
0.903745
0.936221
1.04637
1.01334
1.05782
1.02452
0.907091
0.875418
0.917209
0.88526
0.951165
0.911656
0.962134
0.922479
0.812909
0.774683
0.822538
0.784169
0.892523
0.892492
0.903273
0.903242
0.756588
0.756556
0.766003
0.765971
0.911568
0.951032
0.922391
0.962
0.77459
0.812764
0.784075
0.822392
1.01318
1.0462
1.02436
1.05765
0.875238
0.906889
0.885079
0.917007
1.02224
0.989759
1.03448
1.00172
0.885766
0.854647
0.896583
0.865189
0.928021
0.888797
0.93979
0.900428
0.79258
0.754636
0.802917
0.764836
0.869804
0.869774
0.881367
0.881336
0.736679
0.736647
0.74681
0.746778
0.888709
0.927888
0.90034
0.939657
0.754543
0.792436
0.764743
0.802772
0.989601
1.02207
1.00157
1.03431
0.854468
0.885566
0.865009
0.896382
0.996564
0.96461
1.00958
0.977361
0.863053
0.832479
0.874563
0.84372
0.903267
0.864301
0.915843
0.876754
0.770826
0.733147
0.781878
0.744071
0.845438
0.845408
0.857829
0.857798
0.715319
0.715288
0.72618
0.726148
0.864214
0.903134
0.876667
0.91571
0.733055
0.770683
0.743978
0.781734
0.964452
0.996394
0.977204
1.0094
0.832302
0.862855
0.843542
0.874364
0.969357
0.937895
0.983128
0.951428
0.838971
0.808914
0.851163
0.820853
0.876884
0.838134
0.890277
0.851428
0.747629
0.710184
0.759405
0.721849
0.819377
0.819347
0.832622
0.832592
0.69247
0.692439
0.704082
0.70405
0.838047
0.876752
0.851341
0.890145
0.710092
0.747487
0.721757
0.759262
0.937738
0.969186
0.951271
0.982957
0.808738
0.838774
0.820676
0.850965
0.940686
0.909643
0.955177
0.923939
0.813567
0.783968
0.826411
0.796594
0.848852
0.810233
0.863073
0.824405
0.722968
0.685692
0.735479
0.698131
0.79154
0.791509
0.805687
0.805657
0.668059
0.668028
0.680464
0.680433
0.810146
0.848719
0.824317
0.86294
0.685601
0.722826
0.69804
0.735337
0.909486
0.940516
0.923782
0.955006
0.783793
0.813371
0.796418
0.826214
0.910746
0.879946
0.925832
0.894947
0.78699
0.757708
0.80039
0.770978
0.819133
0.780471
0.834204
0.795596
0.696803
0.659559
0.710073
0.672839
0.761753
0.761722
0.776905
0.776875
0.641937
0.641906
0.655224
0.655193
0.780384
0.819
0.795509
0.834071
0.659468
0.696662
0.672748
0.709932
0.879789
0.910576
0.89479
0.925661
0.757534
0.786796
0.770804
0.800195
0.880182
0.849031
0.895445
0.864604
0.759763
0.7303
0.773376
0.744117
0.787595
0.748535
0.803608
0.764807
0.669002
0.631505
0.683122
0.645799
0.729642
0.729611
0.746022
0.745991
0.613779
0.613748
0.628141
0.62811
0.748448
0.787463
0.764719
0.803475
0.631415
0.668862
0.645708
0.682981
0.848874
0.880012
0.864447
0.895274
0.730128
0.759571
0.743944
0.773183
0.851475
0.81698
0.865241
0.833173
0.733983
0.701713
0.746385
0.71619
0.753504
0.713625
0.77097
0.73153
0.638866
0.60082
0.654321
0.61656
0.694476
0.694446
0.712498
0.712468
0.582955
0.582925
0.598748
0.598717
0.713539
0.753373
0.731443
0.770838
0.600732
0.638729
0.61647
0.654182
0.816824
0.851306
0.833016
0.865071
0.701543
0.733793
0.716019
0.746194
0.83659
0.778385
0.840693
0.799732
0.720342
0.666679
0.724171
0.686171
0.713676
0.674239
0.734676
0.694583
0.603442
0.566195
0.622152
0.584073
0.655351
0.655321
0.675441
0.675411
0.548728
0.548698
0.566288
0.566258
0.674154
0.713546
0.694496
0.734545
0.566108
0.603308
0.583986
0.622015
0.778231
0.836426
0.799577
0.840525
0.666513
0.720157
0.686003
0.723983
0.56227
0.520965
0.480248
0.44605
0.501278
0.46109
0.419809
0.387074
0.442624
0.393123
0.370571
0.323948
0.383763
0.335485
0.313362
0.268543
0.369394
0.369284
0.302048
0.301933
0.312568
0.312467
0.247755
0.247651
0.3928
0.442119
0.323607
0.370029
0.335188
0.383295
0.268235
0.312867
0.520339
0.561576
0.445364
0.479476
0.460504
0.500625
0.386441
0.41909
0.707912
0.664198
0.637879
0.594648
0.641954
0.598968
0.574729
0.532388
0.584223
0.532967
0.514746
0.463868
0.519452
0.468979
0.45318
0.403259
0.508064
0.507968
0.439285
0.439182
0.444643
0.444553
0.379339
0.379243
0.532689
0.583795
0.463568
0.51428
0.468717
0.519044
0.402979
0.452742
0.663674
0.707337
0.594075
0.637247
0.598465
0.641399
0.531845
0.574128
0.834778
0.791086
0.773529
0.729733
0.762669
0.719473
0.704511
0.661316
0.712095
0.661129
0.650146
0.598935
0.640561
0.590115
0.581987
0.53142
0.636218
0.636136
0.573966
0.573877
0.565628
0.565549
0.506941
0.506856
0.660892
0.711732
0.598679
0.649752
0.589885
0.640206
0.531175
0.581607
0.790645
0.834296
0.729252
0.773003
0.719037
0.762191
0.660848
0.703996
0.944128
0.900943
0.89155
0.848085
0.866168
0.823297
0.816443
0.773378
0.823459
0.773264
0.769835
0.719229
0.745572
0.695677
0.69504
0.64484
0.748649
0.748578
0.694448
0.694372
0.67137
0.6713
0.620422
0.620347
0.773059
0.823147
0.719009
0.769499
0.695474
0.745259
0.644624
0.694707
0.900567
0.943718
0.847678
0.891105
0.822916
0.865751
0.772971
0.815996
1.03727
0.994725
0.992585
0.949719
0.95414
0.911758
0.91195
0.869317
0.918818
0.86951
0.873043
0.823291
0.835334
0.786139
0.792255
0.742706
0.84528
0.845218
0.798864
0.798798
0.76212
0.762057
0.718537
0.718471
0.869331
0.918546
0.8231
0.872751
0.785958
0.835056
0.742515
0.791961
0.994399
1.03691
0.949369
0.992203
0.911421
0.953772
0.868959
0.911558
1.11601
1.07412
1.07828
1.03607
1.02846
0.986594
0.992854
0.950736
0.999702
0.951272
0.960944
0.912084
0.911426
0.862948
0.874965
0.826134
0.927439
0.927384
0.888055
0.887996
0.839243
0.839186
0.802272
0.802213
0.951113
0.999461
0.911916
0.960688