/*--------------------------------*- C++ -*----------------------------------*\
  =========                 |
  \\      /  F ield         | OpenFOAM: The Open Source CFD Toolbox
   \\    /   O peration     | Website:  https://openfoam.org
    \\  /    A nd           | Version:  9
     \\/     M anipulation  |
\*---------------------------------------------------------------------------*/
FoamFile
{
    format      ascii;
    class       volScalarField;
    location    "4.8";
    object      p;
}
// * * * * * * * * * * * * * * * * * * * * * * * * * * * * * * * * * * * * * //

dimensions      [0 2 -2 0 0 0 0];

internalField   nonuniform List<scalar> 
36360
(
20.1334
20.0749
20.1279
20.0788
20.0862
20.1132
20.0903
20.1056
20.0984
20.1003
20.0992
20.1008
20.0991
20.0988
20.098
20.0984
20.1003
20.1003
20.1008
20.1008
20.0987
20.0987
20.0985
20.0985
20.1003
20.0984
20.1008
20.0992
20.0988
20.0991
20.0984
20.098
20.0749
20.1333
20.0789
20.1279
20.1132
20.0862
20.1056
20.0903
20.1087
20.0952
20.119
20.0872
20.0563
20.1414
20.071
20.1287
20.1011
20.0991
20.0996
20.0997
20.1029
20.0981
20.1008
20.0985
20.0987
20.0987
20.0995
20.0995
20.0976
20.0976
20.0983
20.0983
20.0991
20.1011
20.0997
20.0996
20.0981
20.1029
20.0985
20.1008
20.0952
20.1087
20.0872
20.119
20.1414
20.0564
20.1286
20.0711
20.0916
20.1065
20.0999
20.1015
20.0301
20.1624
20.0427
20.1527
20.1064
20.0991
20.1035
20.099
20.109
20.0983
20.1057
20.0981
20.0973
20.0973
20.098
20.098
20.0965
20.0966
20.097
20.097
20.0991
20.1064
20.099
20.1035
20.0984
20.1089
20.0981
20.1057
20.1065
20.0916
20.1014
20.0999
20.1623
20.0302
20.1526
20.0428
20.0771
20.1136
20.0839
20.1105
20.0083
20.177
20.0186
20.1703
20.1123
20.1003
20.1093
20.0996
20.1157
20.0996
20.1122
20.0989
20.0965
20.0965
20.0968
20.0968
20.096
20.096
20.0963
20.0962
20.1003
20.1123
20.0996
20.1094
20.0996
20.1156
20.0989
20.1124
20.1136
20.0771
20.1105
20.084
20.177
20.0084
20.1704
20.0188
20.0653
20.1176
20.0709
20.1159
19.9907
20.187
19.999
20.1825
20.1178
20.1021
20.1151
20.1011
20.1219
20.1013
20.1189
20.1004
20.0963
20.0963
20.0963
20.0963
20.0959
20.0959
20.0959
20.0959
20.1021
20.1178
20.1011
20.1151
20.1013
20.1218
20.1004
20.1189
20.1176
20.0653
20.1159
20.0709
20.1869
19.9908
20.1824
19.9991
20.0557
20.1196
20.0602
20.1188
19.9764
20.1937
19.9832
20.1907
20.1224
20.1042
20.1202
20.1031
20.1271
20.1034
20.1246
20.1023
20.0966
20.0965
20.0964
20.0963
20.0963
20.0963
20.0961
20.0961
20.1042
20.1224
20.1031
20.1202
20.1034
20.1271
20.1023
20.1246
20.1196
20.0558
20.1188
20.0603
20.1937
19.9765
20.1906
19.9833
20.0479
20.1204
20.0516
20.1201
19.9649
20.1982
19.9704
20.1962
20.1261
20.1062
20.1244
20.1052
20.1313
20.1054
20.1293
20.1044
20.0972
20.0972
20.0968
20.0968
20.0971
20.0971
20.0967
20.0967
20.1062
20.1261
20.1052
20.1243
20.1054
20.1313
20.1044
20.1293
20.1204
20.0479
20.1201
20.0516
20.1982
19.965
20.1961
19.9705
20.0415
20.1205
20.0445
20.1205
19.9554
20.2012
19.9599
20.1999
20.129
20.1081
20.1276
20.1072
20.1346
20.1073
20.1331
20.1064
20.0981
20.0981
20.0976
20.0976
20.098
20.098
20.0975
20.0975
20.1081
20.1289
20.1071
20.1276
20.1073
20.1346
20.1064
20.133
20.1205
20.0415
20.1205
20.0446
20.2012
19.9555
20.1998
19.96
20.0361
20.12
20.0387
20.1203
19.9477
20.2031
19.9514
20.2023
20.1312
20.1097
20.1301
20.1089
20.1372
20.1089
20.136
20.1081
20.0991
20.0991
20.0986
20.0986
20.099
20.099
20.0985
20.0985
20.1097
20.1311
20.1089
20.1301
20.1089
20.1371
20.1081
20.1359
20.1201
20.0362
20.1203
20.0387
20.2031
19.9478
20.2023
19.9515
20.0317
20.1193
20.0338
20.1198
19.9413
20.2044
19.9443
20.2038
20.1328
20.111
20.132
20.1104
20.1391
20.1103
20.1382
20.1096
20.1001
20.1001
20.0996
20.0996
20.1
20.1
20.0995
20.0995
20.111
20.1328
20.1104
20.1321
20.1103
20.139
20.1096
20.1382
20.1194
20.0317
20.1197
20.0338
20.2043
19.9414
20.2038
19.9444
20.0279
20.1185
20.0297
20.1189
19.9359
20.2051
19.9385
20.2048
20.134
20.1121
20.1335
20.1116
20.1405
20.1114
20.1398
20.1109
20.101
20.101
20.1006
20.1006
20.1009
20.1009
20.1004
20.1004
20.1121
20.134
20.1116
20.1335
20.1114
20.1404
20.1108
20.1398
20.1185
20.0279
20.1189
20.0297
20.205
19.936
20.2047
19.9386
20.0247
20.1176
20.0262
20.1181
19.9315
20.2054
19.9336
20.2052
20.1348
20.1129
20.1345
20.1125
20.1414
20.1122
20.141
20.1118
20.1017
20.1017
20.1014
20.1014
20.1016
20.1016
20.1012
20.1012
20.1129
20.1348
20.1125
20.1345
20.1122
20.1414
20.1118
20.141
20.1176
20.0247
20.1181
20.0263
20.2053
19.9316
20.2052
19.9337
20.0219
20.1166
20.0232
20.1171
19.9277
20.2053
19.9295
20.2054
20.1353
20.1135
20.1351
20.1132
20.142
20.1128
20.1418
20.1125
20.1023
20.1023
20.102
20.102
20.1021
20.1021
20.1019
20.1019
20.1135
20.1353
20.1132
20.1351
20.1128
20.142
20.1125
20.1417
20.1166
20.022
20.1171
20.0233
20.2053
19.9278
20.2053
19.9296
20.0195
20.1156
20.0207
20.1161
19.9246
20.2051
19.9261
20.2052
20.1356
20.1138
20.1355
20.1137
20.1423
20.1131
20.1422
20.113
20.1026
20.1026
20.1025
20.1025
20.1025
20.1025
20.1023
20.1023
20.1138
20.1355
20.1137
20.1355
20.1131
20.1423
20.113
20.1422
20.1156
20.0196
20.1161
20.0207
20.205
19.9247
20.2052
19.9262
20.0174
20.1147
20.0184
20.1152
19.9219
20.2046
19.9232
20.2049
20.1355
20.1139
20.1356
20.1139
20.1423
20.1132
20.1423
20.1132
20.1028
20.1028
20.1027
20.1027
20.1026
20.1026
20.1026
20.1026
20.1139
20.1355
20.1139
20.1356
20.1132
20.1423
20.1132
20.1423
20.1147
20.0175
20.1152
20.0185
20.2046
19.922
20.2048
19.9233
20.0156
20.1137
20.0165
20.1142
19.9197
20.2039
19.9208
20.2043
20.1353
20.1138
20.1355
20.1139
20.1421
20.1131
20.1422
20.1132
20.1028
20.1028
20.1028
20.1028
20.1026
20.1026
20.1026
20.1026
20.1138
20.1353
20.1139
20.1355
20.1131
20.1421
20.1132
20.1422
20.1137
20.0156
20.1142
20.0165
20.2039
19.9198
20.2043
19.9208
20.014
20.1127
20.0148
20.1132
19.9178
20.2031
19.9187
20.2035
20.135
20.1136
20.1352
20.1137
20.1417
20.1128
20.1419
20.113
20.1026
20.1026
20.1027
20.1027
20.1023
20.1023
20.1025
20.1025
20.1136
20.135
20.1137
20.1352
20.1128
20.1416
20.113
20.1419
20.1127
20.014
20.1132
20.0148
20.2031
19.9179
20.2035
19.9188
20.0125
20.1117
20.0132
20.1122
19.9162
20.2021
19.917
20.2026
20.1345
20.1131
20.1347
20.1134
20.141
20.1123
20.1414
20.1126
20.1023
20.1023
20.1025
20.1025
20.1019
20.1019
20.1021
20.1021
20.1131
20.1345
20.1134
20.1347
20.1123
20.141
20.1126
20.1414
20.1117
20.0126
20.1122
20.0133
20.2021
19.9163
20.2026
19.9171
20.0113
20.1107
20.0119
20.1112
19.915
20.201
19.9156
20.2016
20.1338
20.1125
20.1342
20.1129
20.1402
20.1116
20.1406
20.112
20.1018
20.1018
20.102
20.102
20.1013
20.1013
20.1016
20.1016
20.1125
20.1338
20.1128
20.1342
20.1116
20.1402
20.112
20.1406
20.1107
20.0113
20.1112
20.0119
20.201
19.9151
20.2015
19.9157
20.0102
20.1098
20.0107
20.1103
19.9139
20.1997
19.9144
20.2004
20.1331
20.1118
20.1335
20.1122
20.1392
20.1108
20.1397
20.1112
20.1012
20.1012
20.1015
20.1015
20.1005
20.1005
20.1009
20.1009
20.1118
20.133
20.1122
20.1335
20.1108
20.1392
20.1112
20.1397
20.1098
20.0102
20.1102
20.0108
20.1997
19.914
20.2003
19.9145
20.0093
20.1089
20.0097
20.1093
19.9132
20.1984
19.9135
20.1991
20.1319
20.111
20.1325
20.1115
20.138
20.1098
20.1386
20.1103
20.1005
20.1005
20.1008
20.1008
20.0997
20.0997
20.1001
20.1001
20.111
20.1319
20.1114
20.1325
20.1098
20.138
20.1103
20.1386
20.1088
20.0093
20.1093
20.0097
20.1984
19.9132
20.1991
19.9136
20.0085
20.108
20.0089
20.1084
19.9126
20.197
19.9129
20.1977
20.1307
20.1101
20.1313
20.1106
20.1367
20.1088
20.1374
20.1093
20.0997
20.0997
20.1001
20.1001
20.0987
20.0987
20.0992
20.0992
20.1101
20.1307
20.1106
20.1313
20.1087
20.1367
20.1093
20.1373
20.108
20.0085
20.1084
20.0089
20.197
19.9127
20.1977
19.9129
20.0079
20.1072
20.0082
20.1076
19.9123
20.1955
19.9124
20.1963
20.1295
20.1092
20.1301
20.1097
20.1353
20.1076
20.136
20.1082
20.0989
20.0989
20.0993
20.0993
20.0977
20.0976
20.0982
20.0982
20.1092
20.1295
20.1097
20.1301
20.1076
20.1353
20.1082
20.136
20.1072
20.008
20.1076
20.0082
20.1955
19.9124
20.1962
19.9125
20.0075
20.1064
20.0077
20.1068
19.9122
20.194
19.9122
20.1947
20.1283
20.1083
20.1289
20.1087
20.1338
20.1064
20.1345
20.107
20.0981
20.0981
20.0985
20.0985
20.0966
20.0966
20.0971
20.0971
20.1082
20.1283
20.1087
20.1289
20.1064
20.1338
20.107
20.1345
20.1064
20.0076
20.1068
20.0077
20.1939
19.9123
20.1947
19.9123
20.0073
20.1057
20.0074
20.106
19.9124
20.1923
19.9123
20.1932
20.1271
20.1073
20.1277
20.1078
20.1322
20.1051
20.133
20.1058
20.0973
20.0973
20.0977
20.0977
20.0955
20.0955
20.096
20.096
20.1073
20.1271
20.1078
20.1277
20.1051
20.1322
20.1058
20.133
20.1057
20.0074
20.1061
20.0074
20.1923
19.9125
20.1931
19.9124
20.0074
20.1051
20.0073
20.1054
19.913
20.1907
19.9127
20.1915
20.1259
20.1064
20.1265
20.1069
20.1307
20.1039
20.1314
20.1045
20.0966
20.0966
20.097
20.097
20.0944
20.0944
20.0949
20.0949
20.1064
20.1259
20.1069
20.1265
20.1039
20.1306
20.1045
20.1314
20.1051
20.0074
20.1054
20.0074
20.1907
19.913
20.1915
19.9127
20.0077
20.1047
20.0075
20.1049
19.9138
20.1891
19.9134
20.1899
20.1249
20.1056
20.1254
20.106
20.1291
20.1027
20.1299
20.1033
20.096
20.096
20.0963
20.0963
20.0934
20.0934
20.0939
20.0939
20.1056
20.1248
20.106
20.1254
20.1027
20.1291
20.1033
20.1298
20.1047
20.0077
20.1049
20.0075
20.189
19.9139
20.1899
19.9134
20.0083
20.1043
20.008
20.1045
19.9151
20.1874
19.9144
20.1882
20.1238
20.105
20.1243
20.1053
20.1276
20.1016
20.1283
20.1022
20.0955
20.0955
20.0957
20.0957
20.0926
20.0926
20.093
20.093
20.105
20.1238
20.1053
20.1243
20.1016
20.1275
20.1022
20.1283
20.1043
20.0083
20.1045
20.008
20.1874
19.9151
20.1882
19.9145
20.0092
20.1041
20.0087
20.1042
19.9167
20.1858
19.9158
20.1866
20.1229
20.1044
20.1234
20.1047
20.1261
20.1007
20.1268
20.1012
20.0952
20.0952
20.0954
20.0954
20.0919
20.0919
20.0922
20.0922
20.1044
20.1229
20.1047
20.1234
20.1007
20.1261
20.1011
20.1268
20.1041
20.0093
20.1042
20.0088
20.1858
19.9168
20.1866
19.9159
20.0105
20.104
20.0098
20.104
19.9188
20.1842
19.9177
20.185
20.1221
20.1041
20.1225
20.1042
20.1247
20.0999
20.1254
20.1003
20.0952
20.0952
20.0952
20.0952
20.0914
20.0914
20.0916
20.0916
20.1041
20.1221
20.1042
20.1225
20.0999
20.1247
20.1003
20.1254
20.104
20.0106
20.104
20.0099
20.1842
19.9189
20.185
19.9178
20.0122
20.1041
20.0113
20.104
19.9214
20.1827
19.92
20.1835
20.1215
20.1039
20.1218
20.104
20.1235
20.0994
20.1241
20.0996
20.0954
20.0954
20.0953
20.0953
20.0912
20.0912
20.0913
20.0913
20.1039
20.1215
20.104
20.1218
20.0994
20.1235
20.0996
20.1241
20.1041
20.0122
20.104
20.0114
20.1827
19.9215
20.1834
19.9201
20.0143
20.1043
20.0132
20.1042
19.9245
20.1812
19.9229
20.182
20.1209
20.104
20.1212
20.1039
20.1224
20.0991
20.1229
20.0992
20.0958
20.0958
20.0956
20.0956
20.0913
20.0913
20.0912
20.0912
20.104
20.1209
20.1039
20.1212
20.0991
20.1224
20.0992
20.1229
20.1043
20.0143
20.1042
20.0132
20.1812
19.9246
20.1819
19.923
20.0168
20.1046
20.0155
20.1044
19.9283
20.1797
19.9263
20.1805
20.1206
20.1043
20.1207
20.1041
20.1215
20.0991
20.1219
20.099
20.0966
20.0966
20.0962
20.0962
20.0917
20.0917
20.0914
20.0914
20.1043
20.1206
20.1041
20.1207
20.0991
20.1215
20.099
20.1219
20.1046
20.0168
20.1044
20.0155
20.1797
19.9284
20.1805
19.9264
20.0198
20.1049
20.0182
20.1048
19.9327
20.1782
19.9304
20.179
20.1204
20.1049
20.1205
20.1046
20.1208
20.0994
20.1211
20.0992
20.0977
20.0977
20.0971
20.0971
20.0924
20.0924
20.092
20.092
20.1049
20.1204
20.1046
20.1204
20.0994
20.1207
20.0992
20.1211
20.1049
20.0198
20.1048
20.0183
20.1782
19.9328
20.179
19.9305
20.0233
20.1053
20.0215
20.1051
19.9379
20.1766
19.9352
20.1774
20.1204
20.1058
20.1203
20.1053
20.1203
20.1
20.1205
20.0997
20.099
20.099
20.0983
20.0983
20.0935
20.0935
20.0929
20.0929
20.1058
20.1203
20.1053
20.1203
20.1
20.1203
20.0997
20.1205
20.1053
20.0233
20.1051
20.0215
20.1766
19.938
20.1774
19.9353
20.0273
20.1056
20.0253
20.1054
19.944
20.1747
19.9408
20.1757
20.1205
20.1069
20.1204
20.1063
20.12
20.101
20.1201
20.1005
20.1006
20.1006
20.0998
20.0998
20.095
20.095
20.0942
20.0942
20.1069
20.1205
20.1063
20.1204
20.101
20.12
20.1005
20.1201
20.1056
20.0274
20.1054
20.0253
20.1747
19.9441
20.1757
19.9409
20.0317
20.1059
20.0295
20.1057
19.9513
20.1723
19.9475
20.1736
20.1208
20.1083
20.1206
20.1076
20.12
20.1024
20.12
20.1017
20.1025
20.1025
20.1015
20.1015
20.0968
20.0968
20.0959
20.0959
20.1083
20.1208
20.1076
20.1206
20.1024
20.12
20.1017
20.12
20.1059
20.0317
20.1057
20.0295
20.1723
19.9513
20.1736
19.9475
20.0353
20.1073
20.0339
20.1063
19.9601
20.1689
19.9555
20.1708
20.1213
20.11
20.121
20.1091
20.1202
20.1042
20.1201
20.1032
20.1046
20.1046
20.1035
20.1035
20.0989
20.0989
20.0978
20.0978
20.11
20.1212
20.1091
20.121
20.1041
20.1202
20.1032
20.1201
20.1073
20.0354
20.1063
20.0339
20.1688
19.9602
20.1707
19.9555
20.0383
20.1089
20.0353
20.1096
19.9706
20.1638
19.9651
20.1666
20.1226
20.1121
20.122
20.111
20.121
20.1064
20.1205
20.1052
20.1069
20.1069
20.1057
20.1057
20.1014
20.1014
20.1001
20.1001
20.1121
20.1226
20.111
20.122
20.1064
20.121
20.1052
20.1205
20.1089
20.0383
20.1096
20.0353
20.1637
19.9707
20.1666
19.9652
20.1779
20.0437
20.1527
20.0591
20.1617
20.0521
20.1418
20.065
20.0854
20.0989
20.0913
20.0997
20.0914
20.0994
20.0946
20.0995
20.1002
20.1002
20.1002
20.1002
20.0998
20.0998
20.0996
20.0996
20.0989
20.0855
20.0997
20.0914
20.0994
20.0914
20.0995
20.0946
20.0437
20.1778
20.0592
20.1526
20.0521
20.1616
20.0651
20.1417
20.1557
20.0686
20.163
20.0604
20.1421
20.0719
20.1494
20.0651
20.0856
20.096
20.0856
20.0976
20.0919
20.098
20.0917
20.0989
20.0988
20.0988
20.0997
20.0997
20.0988
20.0988
20.0995
20.0995
20.096
20.0856
20.0976
20.0856
20.098
20.0919
20.0989
20.0917
20.0686
20.1556
20.0604
20.1629
20.0719
20.1421
20.0651
20.1494
20.1482
20.0747
20.1515
20.0726
20.132
20.0785
20.1368
20.0759
20.0879
20.0953
20.0866
20.0954
20.0951
20.0977
20.0932
20.0977
20.0972
20.0972
20.098
20.098
20.0974
20.0974
20.0981
20.0981
20.0953
20.0879
20.0954
20.0866
20.0977
20.0951
20.0977
20.0932
20.0747
20.1482
20.0726
20.1514
20.0785
20.132
20.0759
20.1367
20.1433
20.0758
20.1455
20.0756
20.1239
20.0809
20.1277
20.08
20.0906
20.0959
20.0893
20.0955
20.0993
20.0985
20.0972
20.098
20.0961
20.0961
20.0965
20.0965
20.0965
20.0965
20.0969
20.0969
20.0959
20.0906
20.0955
20.0893
20.0985
20.0993
20.098
20.0972
20.0758
20.1432
20.0756
20.1455
20.0809
20.1239
20.0801
20.1277
20.1396
20.075
20.1413
20.0755
20.1174
20.0813
20.1205
20.0813
20.0928
20.0971
20.0918
20.0964
20.1029
20.0999
20.1012
20.0991
20.0959
20.0959
20.0959
20.0959
20.0964
20.0964
20.0964
20.0964
20.0971
20.0928
20.0964
20.0918
20.0999
20.1029
20.0991
20.1012
20.0751
20.1395
20.0756
20.1413
20.0813
20.1174
20.0813
20.1204
20.1365
20.0736
20.138
20.0744
20.1121
20.0807
20.1146
20.0811
20.0944
20.0984
20.0937
20.0977
20.1056
20.1016
20.1043
20.1008
20.0963
20.0963
20.096
20.096
20.0968
20.0968
20.0965
20.0965
20.0984
20.0944
20.0977
20.0937
20.1016
20.1056
20.1008
20.1043
20.0736
20.1365
20.0744
20.1379
20.0807
20.112
20.0811
20.1146
20.134
20.0718
20.1352
20.0727
20.1077
20.0795
20.1098
20.0802
20.0954
20.0998
20.0949
20.0991
20.1076
20.1034
20.1067
20.1025
20.0971
20.0971
20.0967
20.0967
20.0976
20.0976
20.0972
20.0972
20.0998
20.0954
20.0991
20.0949
20.1034
20.1076
20.1025
20.1067
20.0718
20.134
20.0727
20.1352
20.0796
20.1077
20.0802
20.1098
20.1319
20.07
20.1329
20.0709
20.104
20.0781
20.1058
20.0788
20.096
20.1011
20.0957
20.1004
20.1091
20.105
20.1084
20.1042
20.0981
20.0981
20.0976
20.0976
20.0986
20.0986
20.0981
20.0981
20.1011
20.096
20.1004
20.0957
20.105
20.109
20.1042
20.1084
20.07
20.1318
20.0709
20.1329
20.0781
20.104
20.0789
20.1058
20.13
20.0681
20.1309
20.069
20.1009
20.0765
20.1024
20.0773
20.0962
20.1022
20.0961
20.1017
20.11
20.1064
20.1096
20.1057
20.0991
20.0991
20.0986
20.0986
20.0996
20.0996
20.0991
20.0991
20.1022
20.0962
20.1017
20.0961
20.1064
20.11
20.1057
20.1096
20.0681
20.13
20.069
20.1309
20.0765
20.101
20.0773
20.1024
20.1284
20.0665
20.1292
20.0673
20.0983
20.0749
20.0996
20.0757
20.0962
20.1032
20.0962
20.1027
20.1106
20.1076
20.1104
20.107
20.1001
20.1001
20.0996
20.0996
20.1006
20.1006
20.1002
20.1002
20.1032
20.0962
20.1027
20.0962
20.1076
20.1106
20.107
20.1104
20.0665
20.1283
20.0673
20.1291
20.0749
20.0983
20.0757
20.0996
20.1269
20.0649
20.1276
20.0657
20.096
20.0734
20.0971
20.0742
20.096
20.104
20.0961
20.1036
20.111
20.1086
20.1108
20.1081
20.101
20.101
20.1006
20.1006
20.1015
20.1015
20.1011
20.1011
20.104
20.096
20.1036
20.0961
20.1086
20.111
20.1081
20.1108
20.0649
20.1268
20.0657
20.1276
20.0734
20.096
20.0742
20.0971
20.1255
20.0634
20.1262
20.0641
20.0941
20.0719
20.095
20.0727
20.0957
20.1045
20.0958
20.1043
20.1111
20.1093
20.111
20.109
20.1018
20.1018
20.1014
20.1014
20.1023
20.1023
20.1019
20.1019
20.1045
20.0957
20.1043
20.0958
20.1093
20.1111
20.109
20.111
20.0634
20.1255
20.0641
20.1261
20.072
20.094
20.0727
20.095
20.1243
20.062
20.1249
20.0627
20.0923
20.0706
20.0931
20.0712
20.0953
20.1049
20.0955
20.1048
20.111
20.1098
20.1111
20.1096
20.1023
20.1023
20.1021
20.1021
20.1029
20.1029
20.1026
20.1026
20.1049
20.0953
20.1048
20.0955
20.1098
20.111
20.1096
20.111
20.062
20.1242
20.0627
20.1249
20.0706
20.0923
20.0713
20.0931
20.1231
20.0607
20.1237
20.0614
20.0907
20.0693
20.0915
20.0699
20.0948
20.1052
20.095
20.1051
20.1108
20.1102
20.1109
20.11
20.1027
20.1027
20.1026
20.1026
20.1033
20.1033
20.1031
20.1031
20.1052
20.0948
20.1051
20.0951
20.1102
20.1107
20.11
20.1109
20.0607
20.1231
20.0614
20.1237
20.0693
20.0907
20.0699
20.0915
20.122
20.0595
20.1226
20.0601
20.0893
20.068
20.09
20.0686
20.0943
20.1052
20.0946
20.1052
20.1104
20.1103
20.1106
20.1103
20.103
20.103
20.1029
20.1029
20.1035
20.1035
20.1034
20.1034
20.1052
20.0943
20.1052
20.0946
20.1103
20.1104
20.1103
20.1106
20.0596
20.122
20.0601
20.1225
20.0681
20.0893
20.0687
20.09
20.121
20.0584
20.1215
20.059
20.088
20.0669
20.0886
20.0675
20.0937
20.1052
20.094
20.1052
20.1099
20.1103
20.1102
20.1103
20.1031
20.1031
20.103
20.103
20.1036
20.1036
20.1036
20.1036
20.1052
20.0937
20.1052
20.094
20.1103
20.1099
20.1103
20.1101
20.0585
20.121
20.059
20.1215
20.0669
20.088
20.0675
20.0886
20.1201
20.0574
20.1205
20.0579
20.0868
20.0658
20.0874
20.0664
20.0931
20.105
20.0934
20.1051
20.1093
20.1101
20.1096
20.1102
20.103
20.103
20.1031
20.1031
20.1035
20.1035
20.1035
20.1035
20.105
20.0931
20.1051
20.0934
20.1101
20.1093
20.1102
20.1096
20.0574
20.12
20.0579
20.1205
20.0658
20.0868
20.0664
20.0873
20.1192
20.0565
20.1196
20.057
20.0857
20.0648
20.0862
20.0653
20.0925
20.1048
20.0928
20.1049
20.1086
20.1098
20.1089
20.11
20.1028
20.1028
20.1029
20.1029
20.1032
20.1032
20.1033
20.1033
20.1048
20.0925
20.1049
20.0928
20.1098
20.1086
20.11
20.1089
20.0565
20.1191
20.057
20.1196
20.0649
20.0857
20.0653
20.0862
20.1183
20.0557
20.1187
20.0561
20.0847
20.0639
20.0852
20.0644
20.0919
20.1044
20.0922
20.1046
20.1077
20.1094
20.1082
20.1096
20.1025
20.1025
20.1027
20.1027
20.1028
20.1028
20.103
20.103
20.1044
20.0919
20.1046
20.0922
20.1094
20.1077
20.1096
20.1082
20.0557
20.1183
20.0561
20.1187
20.0639
20.0847
20.0644
20.0852
20.1176
20.055
20.1179
20.0553
20.0838
20.0631
20.0842
20.0635
20.0914
20.104
20.0916
20.1042
20.107
20.1089
20.1073
20.1091
20.1022
20.1022
20.1024
20.1024
20.1023
20.1023
20.1026
20.1026
20.104
20.0914
20.1042
20.0916
20.1089
20.107
20.1091
20.1073
20.055
20.1175
20.0554
20.1179
20.0631
20.0838
20.0635
20.0842
20.1169
20.0543
20.1172
20.0546
20.083
20.0623
20.0834
20.0627
20.0909
20.1035
20.0911
20.1037
20.1065
20.1082
20.1067
20.1086
20.1018
20.1018
20.102
20.102
20.1018
20.1018
20.1021
20.102
20.1035
20.0909
20.1037
20.0911
20.1082
20.1065
20.1086
20.1067
20.0544
20.1168
20.0547
20.1172
20.0624
20.083
20.0627
20.0834
20.1162
20.0538
20.1165
20.054
20.0823
20.0617
20.0826
20.062
20.0905
20.103
20.0907
20.1032
20.1061
20.1076
20.1063
20.1079
20.1013
20.1013
20.1016
20.1016
20.1012
20.1012
20.1015
20.1015
20.103
20.0905
20.1032
20.0907
20.1076
20.1061
20.1079
20.1063
20.0538
20.1162
20.0541
20.1165
20.0617
20.0823
20.062
20.0826
20.1158
20.0534
20.116
20.0536
20.0817
20.0612
20.082
20.0614
20.09
20.1025
20.0902
20.1027
20.1057
20.1069
20.1059
20.1073
20.1009
20.1009
20.1011
20.1011
20.1006
20.1006
20.1009
20.1009
20.1025
20.09
20.1027
20.0902
20.1069
20.1057
20.1072
20.1059
20.0534
20.1157
20.0536
20.1159
20.0612
20.0817
20.0614
20.082
20.1154
20.0532
20.1156
20.0533
20.0813
20.0608
20.0815
20.061
20.0897
20.1021
20.0899
20.1023
20.1052
20.1063
20.1055
20.1066
20.1005
20.1005
20.1007
20.1007
20.1
20.1
20.1003
20.1003
20.1021
20.0897
20.1023
20.0899
20.1063
20.1052
20.1066
20.1055
20.0532
20.1153
20.0533
20.1155
20.0608
20.0812
20.061
20.0814
20.1151
20.0531
20.1152
20.0531
20.081
20.0605
20.0811
20.0606
20.0895
20.1018
20.0896
20.1019
20.1048
20.1057
20.105
20.106
20.1003
20.1002
20.1004
20.1004
20.0995
20.0995
20.0997
20.0997
20.1018
20.0895
20.1019
20.0896
20.1057
20.1048
20.106
20.105
20.0531
20.1151
20.0531
20.1152
20.0606
20.081
20.0607
20.0811
20.1151
20.0532
20.1151
20.0532
20.0809
20.0604
20.0809
20.0605
20.0895
20.1016
20.0895
20.1017
20.1045
20.1052
20.1046
20.1054
20.1001
20.1001
20.1001
20.1001
20.0991
20.0991
20.0993
20.0993
20.1016
20.0895
20.1017
20.0895
20.1052
20.1045
20.1054
20.1046
20.0533
20.115
20.0532
20.115
20.0605
20.0809
20.0605
20.0809
20.1151
20.0535
20.1151
20.0533
20.081
20.0605
20.0809
20.0605
20.0895
20.1015
20.0895
20.1015
20.1042
20.1048
20.1043
20.105
20.1
20.1
20.1
20.1
20.0988
20.0988
20.0989
20.0989
20.1015
20.0895
20.1015
20.0895
20.1048
20.1042
20.1049
20.1043
20.0535
20.1151
20.0534
20.115
20.0605
20.081
20.0605
20.0809
20.1154
20.0541
20.1152
20.0537
20.0814
20.0608
20.0812
20.0606
20.0897
20.1015
20.0896
20.1015
20.104
20.1045
20.1041
20.1046
20.1001
20.1001
20.1
20.1
20.0987
20.0987
20.0987
20.0987
20.1015
20.0897
20.1015
20.0896
20.1045
20.104
20.1046
20.1041
20.0542
20.1153
20.0537
20.1152
20.0608
20.0813
20.0606
20.0812
20.1158
20.0551
20.1156
20.0546
20.0819
20.0612
20.0816
20.0609
20.0901
20.1017
20.0899
20.1016
20.1039
20.1044
20.1039
20.1044
20.1004
20.1004
20.1002
20.1002
20.0987
20.0987
20.0987
20.0987
20.1017
20.0901
20.1016
20.0899
20.1044
20.1039
20.1044
20.1039
20.0551
20.1158
20.0546
20.1155
20.0612
20.0819
20.061
20.0816
20.1164
20.0564
20.1161
20.0557
20.0828
20.0616
20.0823
20.0614
20.0906
20.102
20.0903
20.1018
20.104
20.1044
20.1039
20.1044
20.1008
20.1008
20.1006
20.1006
20.099
20.099
20.0988
20.0988
20.102
20.0906
20.1018
20.0903
20.1044
20.104
20.1044
20.1039
20.0564
20.1164
20.0557
20.116
20.0616
20.0827
20.0614
20.0823
20.1172
20.0575
20.1168
20.0572
20.0838
20.0624
20.0833
20.0618
20.0912
20.1026
20.0909
20.1023
20.1042
20.1047
20.1041
20.1045
20.1015
20.1015
20.1012
20.1012
20.0995
20.0995
20.0992
20.0992
20.1026
20.0912
20.1023
20.0909
20.1047
20.1042
20.1045
20.1041
20.0576
20.1171
20.0572
20.1167
20.0624
20.0838
20.0618
20.0833
20.1182
20.0583
20.1177
20.0579
20.0852
20.0637
20.0845
20.0631
20.092
20.1033
20.0916
20.1029
20.1045
20.1051
20.1043
20.1049
20.1024
20.1024
20.102
20.1019
20.1002
20.1002
20.0998
20.0998
20.1033
20.092
20.1029
20.0916
20.1051
20.1045
20.1049
20.1043
20.0583
20.1181
20.0579
20.1176
20.0637
20.0852
20.0631
20.0845
20.1192
20.0594
20.1187
20.0588
20.0868
20.0651
20.0859
20.0644
20.0929
20.1042
20.0925
20.1038
20.105
20.1058
20.1047
20.1054
20.1035
20.1035
20.1029
20.1029
20.1012
20.1012
20.1007
20.1007
20.1042
20.0929
20.1038
20.0925
20.1058
20.105
20.1054
20.1047
20.0595
20.1192
20.0589
20.1186
20.0651
20.0868
20.0644
20.0859
20.1203
20.0608
20.1198
20.0601
20.0886
20.0665
20.0877
20.0658
20.094
20.1053
20.0935
20.1048
20.1056
20.1067
20.1052
20.1062
20.1048
20.1048
20.1041
20.1041
20.1024
20.1024
20.1017
20.1017
20.1053
20.094
20.1048
20.0935
20.1066
20.1055
20.1062
20.1052
20.0608
20.1203
20.0601
20.1197
20.0665
20.0886
20.0658
20.0876
20.1213
20.0624
20.1209
20.0615
20.0906
20.068
20.0896
20.0672
20.0952
20.1065
20.0946
20.1059
20.1063
20.1077
20.1059
20.1072
20.1063
20.1063
20.1055
20.1055
20.1038
20.1038
20.1031
20.1031
20.1065
20.0952
20.1059
20.0946
20.1077
20.1063
20.1072
20.1059
20.0624
20.1213
20.0616
20.1208
20.068
20.0905
20.0672
20.0896
20.1219
20.0643
20.1217
20.0632
20.0925
20.0697
20.0916
20.0688
20.0965
20.1079
20.0958
20.1072
20.1071
20.109
20.1067
20.1083
20.1079
20.1079
20.1071
20.1071
20.1054
20.1054
20.1046
20.1046
20.1079
20.0965
20.1072
20.0958
20.109
20.1071
20.1083
20.1067
20.0643
20.1218
20.0633
20.1216
20.0697
20.0925
20.0688
20.0915
20.1215
20.0669
20.1218
20.0655
20.0941
20.0718
20.0934
20.0707
20.098
20.1094
20.0973
20.1086
20.1081
20.1104
20.1076
20.1097
20.1096
20.1096
20.1087
20.1087
20.1072
20.1072
20.1063
20.1063
20.1094
20.098
20.1086
20.0973
20.1104
20.1081
20.1096
20.1076
20.0669
20.1214
20.0655
20.1218
20.0718
20.0941
20.0707
20.0934
20.1166
20.0733
20.1202
20.0691
20.093
20.0762
20.0944
20.0733
20.0996
20.1111
20.0987
20.1102
20.1092
20.1121
20.1086
20.1112
20.1115
20.1115
20.1105
20.1105
20.1092
20.1091
20.1082
20.1082
20.111
20.0996
20.1102
20.0987
20.112
20.1092
20.1112
20.1086
20.0733
20.1166
20.0691
20.1202
20.0762
20.0929
20.0733
20.0943
20.1298
20.0618
20.112
20.0786
20.1027
20.0694
20.0902
20.0803
20.1009
20.1134
20.1009
20.1121
20.1107
20.1142
20.1102
20.1131
20.1133
20.1133
20.1124
20.1124
20.1112
20.1112
20.1102
20.1102
20.1134
20.1009
20.1121
20.1009
20.1142
20.1107
20.1131
20.1102
20.0618
20.1298
20.0786
20.1119
20.0694
20.1027
20.0803
20.0902
20.198
20.0364
20.1674
20.0523
20.1892
20.039
20.1608
20.055
20.0751
20.0958
20.0846
20.0985
20.0797
20.0975
20.0877
20.0992
20.1002
20.1002
20.1005
20.1005
20.1002
20.1002
20.1004
20.1004
20.0958
20.0752
20.0985
20.0847
20.0975
20.0798
20.0992
20.0877
20.0365
20.1978
20.0524
20.1672
20.039
20.189
20.0551
20.1607
20.1646
20.075
20.1752
20.0622
20.1617
20.0709
20.1704
20.0604
20.0771
20.0907
20.0766
20.093
20.0804
20.0933
20.0804
20.0953
20.0976
20.0976
20.0992
20.0992
20.0984
20.0984
20.0996
20.0996
20.0907
20.0771
20.093
20.0766
20.0933
20.0805
20.0953
20.0804
20.075
20.1645
20.0622
20.1751
20.0709
20.1616
20.0604
20.1703
20.156
20.0841
20.1594
20.081
20.1542
20.0784
20.1572
20.0759
20.0799
20.0891
20.0784
20.0896
20.0828
20.0919
20.0815
20.0923
20.0948
20.0948
20.0961
20.0961
20.0963
20.0963
20.0973
20.0973
20.0891
20.0799
20.0896
20.0784
20.092
20.0828
20.0923
20.0815
20.0841
20.156
20.081
20.1593
20.0784
20.1541
20.0759
20.1571
20.152
20.0863
20.1537
20.0856
20.1501
20.0799
20.1519
20.0795
20.0821
20.089
20.0811
20.089
20.085
20.0921
20.084
20.0919
20.0932
20.0932
20.0939
20.0939
20.095
20.095
20.0955
20.0955
20.089
20.0821
20.089
20.0811
20.0921
20.085
20.0919
20.084
20.0863
20.1519
20.0856
20.1536
20.0799
20.1501
20.0795
20.1518
20.1495
20.0863
20.1506
20.0865
20.1474
20.0794
20.1486
20.0798
20.0834
20.0895
20.0828
20.0892
20.0864
20.0929
20.0858
20.0925
20.0927
20.0927
20.0928
20.0928
20.0946
20.0946
20.0947
20.0947
20.0895
20.0834
20.0892
20.0828
20.0929
20.0864
20.0925
20.0858
20.0863
20.1494
20.0865
20.1505
20.0794
20.1473
20.0798
20.1486
20.1476
20.0855
20.1485
20.086
20.1452
20.0782
20.1462
20.0789
20.084
20.0901
20.0837
20.0898
20.0873
20.0939
20.0869
20.0934
20.0929
20.0929
20.0927
20.0927
20.0949
20.0949
20.0947
20.0947
20.0901
20.084
20.0898
20.0837
20.0939
20.0873
20.0934
20.0869
20.0855
20.1475
20.086
20.1484
20.0782
20.1452
20.0789
20.1462
20.146
20.0844
20.1468
20.085
20.1434
20.0767
20.1443
20.0775
20.0842
20.0907
20.0841
20.0904
20.0877
20.0949
20.0875
20.0944
20.0935
20.0935
20.0931
20.0931
20.0956
20.0956
20.0952
20.0952
20.0907
20.0842
20.0904
20.0841
20.0949
20.0877
20.0944
20.0875
20.0844
20.146
20.085
20.1467
20.0767
20.1434
20.0775
20.1443
20.1447
20.0831
20.1453
20.0838
20.1419
20.0751
20.1426
20.0759
20.0841
20.0913
20.0842
20.091
20.0878
20.0958
20.0878
20.0954
20.0943
20.0943
20.0939
20.0939
20.0966
20.0966
20.0961
20.0961
20.0913
20.0841
20.091
20.0842
20.0958
20.0878
20.0954
20.0878
20.0831
20.1446
20.0838
20.1453
20.0751
20.1418
20.0759
20.1426
20.1434
20.0819
20.144
20.0825
20.1405
20.0735
20.1412
20.0743
20.0839
20.0919
20.084
20.0916
20.0877
20.0966
20.0878
20.0963
20.0951
20.0951
20.0947
20.0947
20.0975
20.0975
20.097
20.097
20.0919
20.0839
20.0916
20.084
20.0966
20.0877
20.0963
20.0878
20.0819
20.1434
20.0825
20.144
20.0735
20.1404
20.0743
20.1411
20.1423
20.0806
20.1428
20.0812
20.1392
20.072
20.1398
20.0727
20.0835
20.0923
20.0837
20.0921
20.0874
20.0973
20.0876
20.097
20.0959
20.0959
20.0955
20.0955
20.0984
20.0984
20.098
20.098
20.0923
20.0836
20.0921
20.0837
20.0973
20.0874
20.097
20.0876
20.0806
20.1423
20.0812
20.1428
20.072
20.1392
20.0727
20.1398
20.1413
20.0794
20.1418
20.08
20.1381
20.0706
20.1386
20.0713
20.0831
20.0926
20.0833
20.0924
20.0871
20.0978
20.0873
20.0976
20.0966
20.0966
20.0963
20.0963
20.0993
20.0993
20.0989
20.0989
20.0926
20.0831
20.0924
20.0834
20.0978
20.0871
20.0976
20.0873
20.0794
20.1412
20.08
20.1417
20.0706
20.138
20.0713
20.1386
20.1403
20.0783
20.1408
20.0788
20.137
20.0692
20.1375
20.0699
20.0827
20.0928
20.0829
20.0927
20.0866
20.0982
20.0869
20.098
20.0972
20.0972
20.0969
20.0969
20.0999
20.0999
20.0996
20.0996
20.0928
20.0827
20.0927
20.0829
20.0982
20.0867
20.098
20.0869
20.0783
20.1402
20.0788
20.1407
20.0692
20.1369
20.0699
20.1375
20.1394
20.0772
20.1398
20.0777
20.136
20.068
20.1365
20.0686
20.0822
20.0929
20.0824
20.0929
20.0862
20.0984
20.0864
20.0983
20.0977
20.0977
20.0974
20.0974
20.1005
20.1005
20.1002
20.1002
20.0929
20.0822
20.0929
20.0824
20.0984
20.0862
20.0983
20.0864
20.0772
20.1393
20.0777
20.1398
20.068
20.1359
20.0686
20.1364
20.1385
20.0762
20.1389
20.0767
20.135
20.0668
20.1355
20.0674
20.0817
20.0929
20.0819
20.0929
20.0857
20.0984
20.0859
20.0984
20.098
20.098
20.0978
20.0978
20.1008
20.1008
20.1007
20.1007
20.0929
20.0817
20.0929
20.0819
20.0984
20.0857
20.0984
20.0859
20.0762
20.1385
20.0767
20.1389
20.0668
20.135
20.0674
20.1354
20.1377
20.0752
20.1381
20.0757
20.1341
20.0657
20.1345
20.0662
20.0811
20.0928
20.0814
20.0929
20.0851
20.0984
20.0854
20.0984
20.0982
20.0981
20.0981
20.0981
20.1011
20.1011
20.101
20.101
20.0928
20.0812
20.0929
20.0814
20.0984
20.0851
20.0984
20.0854
20.0752
20.1376
20.0757
20.138
20.0657
20.134
20.0662
20.1345