/*--------------------------------*- C++ -*----------------------------------*\
  =========                 |
  \\      /  F ield         | OpenFOAM: The Open Source CFD Toolbox
   \\    /   O peration     | Website:  https://openfoam.org
    \\  /    A nd           | Version:  9
     \\/     M anipulation  |
\*---------------------------------------------------------------------------*/
FoamFile
{
    format      ascii;
    class       volVectorField;
    location    "4.8";
    object      U;
}
// * * * * * * * * * * * * * * * * * * * * * * * * * * * * * * * * * * * * * //

dimensions      [0 1 -1 0 0 0 0];

internalField   nonuniform List<vector> 
36360
(
(0.00895859 -0.128567 -0.489601)
(-0.00649157 -0.0927941 0.000422409)
(0.0107965 -0.138276 -0.493546)
(-0.00779897 -0.0830259 0.000350583)
(0.007481 -0.164007 -0.499307)
(-0.00413298 -0.0606027 -0.000160608)
(0.0188228 -0.186803 -0.50061)
(-0.00862126 -0.0478536 -9.61711e-05)
(0.00336677 -0.0941762 -0.000307857)
(0.00317437 -0.0976722 -2.25214e-05)
(0.00214611 -0.0931733 -0.000268922)
(0.00226217 -0.0974436 -2.00073e-05)
(0.00537315 -0.0832311 0.00017987)
(0.00357864 -0.097095 5.09354e-06)
(0.00617037 -0.0898223 9.00194e-05)
(0.00541646 -0.103591 -6.29812e-06)
(0.00279426 -0.0995688 -3.34319e-08)
(0.0027942 -0.0995698 3.90622e-08)
(0.00196353 -0.0994413 -1.36973e-07)
(0.00196326 -0.0994424 1.48733e-07)
(0.00321381 -0.101842 2.00885e-07)
(0.00321387 -0.101845 -2.01262e-07)
(0.00509873 -0.107708 -1.79512e-06)
(0.00509833 -0.107711 1.78071e-06)
(0.00317427 -0.0976746 2.25021e-05)
(0.00336847 -0.0941769 0.000307576)
(0.00226144 -0.0974462 1.9978e-05)
(0.00214687 -0.0931752 0.000268566)
(0.00357908 -0.0971056 -5.05931e-06)
(0.00537371 -0.0832481 -0.000179456)
(0.00541573 -0.103601 6.29262e-06)
(0.00617062 -0.0898427 -8.97627e-05)
(-0.00647842 -0.0927836 -0.000421715)
(0.00894602 -0.128566 0.489623)
(-0.00778794 -0.0830211 -0.000349807)
(0.0107788 -0.138263 0.493567)
(-0.00411654 -0.060603 0.000160109)
(0.00747228 -0.163991 0.499311)
(-0.00860117 -0.0478774 9.58083e-05)
(0.0187953 -0.186755 0.500614)
(0.0121394 -0.124415 -0.486351)
(-0.0107446 -0.0952864 9.15319e-05)
(0.0109464 -0.128324 -0.487982)
(-0.00888375 -0.0928323 0.00023333)
(0.00938706 -0.153036 -0.499256)
(-0.0103611 -0.067464 -0.000577258)
(0.00802012 -0.160298 -0.499584)
(-0.00787651 -0.0606037 -0.00036915)
(0.00103636 -0.0935064 -4.70897e-05)
(0.00212376 -0.0963438 2.88339e-05)
(0.00222246 -0.093201 -0.000150478)
(0.00276978 -0.0968773 9.1957e-07)
(0.0025686 -0.0782212 0.000537269)
(0.00188897 -0.0912068 6.54711e-05)
(0.00378953 -0.0788526 0.000374946)
(0.00263156 -0.0932296 3.12289e-05)
(0.00199255 -0.0982334 4.84502e-06)
(0.00199266 -0.0982343 -4.81897e-06)
(0.00252061 -0.0989145 1.67409e-06)
(0.0025207 -0.0989155 -1.66209e-06)
(0.00162701 -0.0963773 6.61528e-06)
(0.00162711 -0.0963799 -6.57847e-06)
(0.00233241 -0.0983478 2.52099e-06)
(0.00233259 -0.0983506 -2.50571e-06)
(0.0021244 -0.0963459 -2.87152e-05)
(0.00103951 -0.0935061 4.72429e-05)
(0.00277027 -0.0968798 -8.67107e-07)
(0.00222538 -0.0932018 0.000150483)
(0.0018895 -0.0912151 -6.52768e-05)
(0.00257048 -0.0782309 -0.0005365)
(0.00263222 -0.0932392 -3.11265e-05)
(0.00379117 -0.0788668 -0.000374303)
(-0.0107334 -0.0952763 -9.16465e-05)
(0.0121271 -0.124415 0.486372)
(-0.00887127 -0.092822 -0.000233161)
(0.0109344 -0.128321 0.488004)
(-0.0103484 -0.0674517 0.000576137)
(0.00937534 -0.153027 0.499261)
(-0.0078618 -0.0605988 0.000368289)
(0.0080091 -0.16028 0.499588)
(0.012643 -0.118527 -0.483619)
(-0.0119837 -0.0978762 -0.000176735)
(0.0125175 -0.121108 -0.484971)
(-0.0115496 -0.0967868 -4.40786e-05)
(0.00948433 -0.139508 -0.498692)
(-0.0113436 -0.0779558 -0.000977856)
(0.00954326 -0.145739 -0.498958)
(-0.0111477 -0.0732296 -0.000781566)
(-0.000156603 -0.0941647 8.81552e-05)
(0.00115505 -0.095562 0.000108592)
(0.00031444 -0.0937512 2.99507e-05)
(0.00158498 -0.0958431 6.69389e-05)
(0.00148214 -0.0789862 0.00079367)
(0.000908837 -0.0885282 0.000154613)
(0.0018589 -0.0782411 0.000676947)
(0.00132333 -0.0895525 0.000107836)
(0.00120129 -0.0970484 2.15533e-05)
(0.0012017 -0.0970489 -2.16392e-05)
(0.00154995 -0.097562 1.20292e-05)
(0.00155011 -0.0975627 -1.19926e-05)
(0.000902688 -0.0934174 2.18e-05)
(0.000902985 -0.09342 -2.32041e-05)
(0.00117614 -0.0946767 1.34852e-05)
(0.00117624 -0.094679 -1.35127e-05)
(0.00115623 -0.0955627 -0.000108142)
(-0.000154251 -0.0941619 -8.78151e-05)
(0.00158572 -0.0958444 -6.67118e-05)
(0.000317318 -0.0937496 -2.97121e-05)
(0.000909932 -0.088534 -0.000152501)
(0.00148221 -0.0789877 -0.000791514)
(0.00132398 -0.0895594 -0.00010742)
(0.00186023 -0.078247 -0.000675993)
(-0.0119753 -0.097867 0.000176144)
(0.0126324 -0.118528 0.483638)
(-0.01154 -0.0967771 4.3752e-05)
(0.012506 -0.121109 0.484991)
(-0.0113352 -0.0779384 0.000975317)
(0.0094754 -0.139508 0.498694)
(-0.0111372 -0.0732141 0.000780211)
(0.00953295 -0.145737 0.498961)
(0.0127322 -0.11459 -0.481161)
(-0.0125121 -0.0993922 -0.000416077)
(0.01269 -0.116385 -0.482282)
(-0.0122782 -0.0987232 -0.000300879)
(0.00926763 -0.129717 -0.498202)
(-0.0114276 -0.0851143 -0.00132955)
(0.00935958 -0.13422 -0.498431)
(-0.0113807 -0.0819081 -0.00115953)
(-0.000635771 -0.0952171 0.00015743)
(0.000598527 -0.0955078 0.000187326)
(-0.000462333 -0.0946751 0.000129584)
(0.000830612 -0.0954645 0.000148664)
(0.00139179 -0.0816082 0.000959512)
(0.000366719 -0.0877849 0.000244354)
(0.00138003 -0.0802031 0.000885772)
(0.000602263 -0.0879865 0.00019789)
(0.000708063 -0.0964834 4.48145e-05)
(0.000708498 -0.0964836 -4.47328e-05)
(0.000927557 -0.0966942 3.27843e-05)
(0.0009273 -0.0966945 -3.2773e-05)
(0.000566881 -0.0918305 4.41541e-05)
(0.000567301 -0.0918317 -4.43523e-05)
(0.000714506 -0.0924973 3.34943e-05)
(0.000714197 -0.0924992 -3.24372e-05)
(0.000599169 -0.0955074 -0.000187013)
(-0.000634048 -0.0952138 -0.000157351)
(0.000831542 -0.0954646 -0.000148891)
(-0.000459089 -0.0946719 -0.000129699)
(0.000367578 -0.0877882 -0.000243015)
(0.00139153 -0.0816067 -0.000958967)
(0.000603241 -0.0879914 -0.000201292)
(0.0013809 -0.0802026 -0.000885806)
(-0.012505 -0.0993849 0.000415301)
(0.0127233 -0.114592 0.48118)
(-0.01227 -0.0987149 0.000300421)
(0.0126806 -0.116387 0.482302)
(-0.0114212 -0.0850986 0.00132733)
(0.00926071 -0.129722 0.498205)
(-0.0113732 -0.081891 0.00115965)
(0.0093519 -0.134223 0.498436)
(0.0128186 -0.111832 -0.479076)
(-0.0128975 -0.100369 -0.000616746)
(0.0127677 -0.11309 -0.480017)
(-0.012708 -0.0999286 -0.000521297)
(0.00912523 -0.122672 -0.497776)
(-0.0115461 -0.0897535 -0.00162313)
(0.00916754 -0.125905 -0.497974)
(-0.0114618 -0.0876866 -0.00148333)
(-0.000744134 -0.0963284 0.000182167)
(0.000325625 -0.0958957 0.0002534)
(-0.000718698 -0.0957742 0.000174084)
(0.000436322 -0.0956611 0.000222341)
(0.00155509 -0.0845196 0.00106009)
(4.12536e-05 -0.0880612 0.000321057)
(0.00146034 -0.083072 0.00101646)
(0.000183951 -0.0878314 0.000284529)
(0.000384389 -0.096414 6.86442e-05)
(0.000384599 -0.0964138 -6.8474e-05)
(0.000530819 -0.0963973 5.69406e-05)
(0.000531049 -0.0963973 -5.67969e-05)
(0.00034048 -0.0910828 6.69656e-05)
(0.000340738 -0.0910838 -6.67922e-05)
(0.000444973 -0.0913696 5.58059e-05)
(0.000445226 -0.0913711 -5.56487e-05)
(0.000326073 -0.0958945 -0.000253114)
(-0.000742895 -0.0963246 -0.00018213)
(0.000436925 -0.0956602 -0.000222066)
(-0.000717152 -0.0957705 -0.000174016)
(4.21405e-05 -0.0880622 -0.000320697)
(0.00155457 -0.0845149 -0.00105952)
(0.000184884 -0.0878334 -0.0002842)
(0.00146003 -0.0830681 -0.00101582)
(-0.0128911 -0.100363 0.000615957)
(0.0128107 -0.111834 0.479094)
(-0.0127013 -0.0999221 0.000520534)
(0.0127593 -0.113092 0.480036)
(-0.0115404 -0.08974 0.0016214)
(0.00911943 -0.122678 0.497779)
(-0.0114557 -0.0876717 0.00148162)
(0.0091612 -0.125911 0.497978)
(0.0129304 -0.109895 -0.477292)
(-0.0132386 -0.101057 -0.000780004)
(0.012867 -0.11078 -0.478083)
(-0.0130704 -0.100739 -0.00070271)
(0.00907767 -0.117593 -0.497407)
(-0.0117381 -0.0927785 -0.00186283)
(0.00907604 -0.11993 -0.497577)
(-0.0116222 -0.0914213 -0.00174919)
(-0.000710688 -0.0973813 0.000180733)
(0.00020337 -0.0965245 0.000302929)
(-0.000733777 -0.0968656 0.000183827)
(0.000252876 -0.0961885 0.000280184)
(0.00177456 -0.0871859 0.00111726)
(-0.000149858 -0.0888604 0.000380617)
(0.00166664 -0.0858971 0.00109289)
(-6.83009e-05 -0.0884168 0.00035305)
(0.000159878 -0.0966819 8.93694e-05)
(0.000160016 -0.0966816 -8.91665e-05)
(0.000262647 -0.0965141 7.95381e-05)
(0.000262823 -0.0965139 -7.93482e-05)
(0.000171055 -0.0909234 8.7018e-05)
(0.000171282 -0.0909238 -8.68102e-05)
(0.00025046 -0.0909404 7.74441e-05)
(0.000250706 -0.0909411 -7.72516e-05)
(0.000203556 -0.0965228 -0.000302643)
(-0.000709843 -0.0973775 -0.000180756)
(0.000253184 -0.096187 -0.000279895)
(-0.000732764 -0.0968617 -0.000183822)
(-0.000149277 -0.0888598 -0.000380256)
(0.00177377 -0.0871802 -0.00111679)
(-6.75069e-05 -0.0884169 -0.000352687)
(0.00166597 -0.0858918 -0.00109238)
(-0.0132326 -0.101052 0.000779187)
(0.0129232 -0.109898 0.477309)
(-0.0130642 -0.100733 0.000701903)
(0.0128594 -0.110782 0.4781)
(-0.0117328 -0.0927675 0.0018611)
(0.00907254 -0.117599 0.49741)
(-0.0116168 -0.0914091 0.00174746)
(0.00907056 -0.119936 0.49758)
(0.0130556 -0.10853 -0.475742)
(-0.0135374 -0.101587 -0.000911142)
(0.0129875 -0.109154 -0.476414)
(-0.0133897 -0.101336 -0.000849129)
(0.00908851 -0.113885 -0.497085)
(-0.0119572 -0.094811 -0.00205653)
(0.00906149 -0.115598 -0.497232)
(-0.0118318 -0.0938901 -0.00196481)
(-0.000647931 -0.0983385 0.000165775)
(0.000155351 -0.0972658 0.000337211)
(-0.000678808 -0.0978722 0.000174467)
(0.000173251 -0.0968878 0.000321743)
(0.00197663 -0.0894647 0.00114712)
(-0.000209043 -0.0899132 0.000423436)
(0.00188174 -0.0883738 0.00113476)
(-0.000190657 -0.0893646 0.000403941)
(3.17672e-06 -0.0971646 0.000105028)
(3.23266e-06 -0.0971641 -0.000104811)
(7.39196e-05 -0.0969033 9.77712e-05)
(7.4014e-05 -0.0969028 -9.75595e-05)
(5.08022e-05 -0.0911757 0.000103126)
(5.09693e-05 -0.0911756 -0.000102903)
(0.000106413 -0.0910053 9.56153e-05)
(0.000106603 -0.0910054 -9.53971e-05)
(0.000155325 -0.097264 -0.000336943)
(-0.000647305 -0.0983351 -0.000165852)
(0.000173315 -0.096886 -0.000321464)
(-0.000678089 -0.0978686 -0.000174518)
(-0.000208784 -0.0899116 -0.000423093)
(0.00197571 -0.0894589 -0.00114673)
(-0.000190331 -0.0893634 -0.000403587)
(0.00188086 -0.088368 -0.00113434)
(-0.0135316 -0.101584 0.000910325)
(0.013049 -0.108531 0.475759)
(-0.0133838 -0.101332 0.00084831)
(0.0129805 -0.109156 0.476431)
(-0.0119521 -0.0948022 0.00205483)
(0.00908382 -0.113891 0.497088)
(-0.0118266 -0.0938803 0.00196309)
(0.00905656 -0.115604 0.497235)
(0.0131791 -0.107568 -0.474385)
(-0.0137984 -0.102034 -0.00101616)
(0.0131136 -0.108007 -0.474965)
(-0.0136692 -0.101818 -0.000966464)
(0.00912959 -0.111138 -0.496805)
(-0.0121764 -0.0962376 -0.00221279)
(0.00909068 -0.112411 -0.496931)
(-0.0120537 -0.0955821 -0.00213877)
(-0.00058887 -0.0992024 0.000144149)
(0.000144021 -0.0980484 0.000358871)
(-0.000615964 -0.0987812 0.000155493)
(0.000147275 -0.0976537 0.000349329)
(0.00214012 -0.0913712 0.00116046)
(-0.000224741 -0.0910694 0.000452478)
(0.00206535 -0.0904605 0.00115532)
(-0.000218922 -0.090485 0.000439441)
(-8.90149e-05 -0.0977789 0.000115781)
(-8.90266e-05 -0.0977784 -0.000115555)
(-4.88102e-05 -0.0974577 0.00011094)
(-4.87915e-05 -0.0974572 -0.000110722)
(-4.83253e-05 -0.0917145 0.000114736)
(-4.81687e-05 -0.0917141 -0.000114516)
(1.31819e-06 -0.091415 0.000109458)
(1.48828e-06 -0.0914147 -0.000109237)
(0.000143869 -0.0980466 -0.000358638)
(-0.000588358 -0.0991994 -0.000144312)
(0.000147178 -0.0976518 -0.000349077)
(-0.000615403 -0.098778 -0.000155602)
(-0.00022458 -0.0910672 -0.000452172)
(0.00213915 -0.0913658 -0.00116018)
(-0.00021871 -0.090483 -0.000439114)
(0.00206439 -0.0904549 -0.00115498)
(-0.0137928 -0.102031 0.00101531)
(0.0131728 -0.10757 0.474402)
(-0.0136635 -0.101815 0.000965645)
(0.0131071 -0.108008 0.474982)
(-0.0121715 -0.0962305 0.00221109)
(0.00912518 -0.111142 0.496808)
(-0.0120487 -0.0955743 0.00213708)
(0.00908609 -0.112417 0.496935)
(0.0132908 -0.106898 -0.473174)
(-0.0140248 -0.102441 -0.00110137)
(0.0132317 -0.107203 -0.473677)
(-0.0139124 -0.102242 -0.00106054)
(0.00918045 -0.109078 -0.496558)
(-0.0123716 -0.0972948 -0.00233906)
(0.00913758 -0.110036 -0.496668)
(-0.0122642 -0.0968018 -0.00227917)
(-0.000541324 -0.0999862 0.000119292)
(0.000147141 -0.0988421 0.000372354)
(-0.000562474 -0.0996025 0.000132238)
(0.00014477 -0.0984453 0.000366164)
(0.00225754 -0.092966 0.00116381)
(-0.00022326 -0.0922399 0.000471251)
(0.00220818 -0.0922023 0.00116306)
(-0.00022531 -0.0916556 0.000462913)
(-0.000144436 -0.0984763 0.000122842)
(-0.000144495 -0.0984758 -0.000122172)
(-0.000120205 -0.0981204 0.000119653)
(-0.000120242 -0.0981199 -0.000119354)
(-0.000126466 -0.0924463 0.00012252)
(-0.000126305 -0.0924457 -0.000122181)
(-9.06036e-05 -0.0920609 0.00011904)
(-9.04601e-05 -0.0920604 -0.000118799)
(0.000146922 -0.0988403 -0.000371058)
(-0.00054084 -0.0999834 -0.000121165)
(0.000144578 -0.0984436 -0.000365893)
(-0.000561988 -0.0996002 -0.000132611)
(-0.000223077 -0.0922374 -0.000470895)
(0.0022572 -0.0929611 -0.00116387)
(-0.000225185 -0.0916532 -0.000462624)
(0.00220727 -0.0921972 -0.00116288)
(-0.0140194 -0.102439 0.00109875)
(0.0132849 -0.1069 0.473192)
(-0.0139069 -0.102238 0.00105949)
(0.0132255 -0.107204 0.473694)
(-0.0123675 -0.0972891 0.00233707)
(0.00917608 -0.109082 0.496561)
(-0.0122595 -0.0967954 0.0022774)
(0.0091332 -0.11004 0.496671)
(0.0133881 -0.106442 -0.472092)
(-0.0142193 -0.102822 -0.00116848)
(0.0133366 -0.106648 -0.472535)
(-0.0141228 -0.102634 -0.00113575)
(0.00923245 -0.107519 -0.496341)
(-0.0125307 -0.0981187 -0.00244081)
(0.00919029 -0.108246 -0.496436)
(-0.01244 -0.0977297 -0.00239243)
(-0.000503862 -0.100713 9.61586e-05)
(0.000156873 -0.0996265 0.000378772)
(-0.000520318 -0.100356 0.000108458)
(0.000151708 -0.0992366 0.000375579)
(0.00232883 -0.0943271 0.00116177)
(-0.000210566 -0.0933833 0.00048258)
(0.00229891 -0.093671 0.00116339)
(-0.00021779 -0.0928163 0.000477628)
(-0.000176305 -0.0992153 0.000126377)
(-0.000176399 -0.0992148 -0.000126136)
(-0.000162648 -0.0988422 0.000124705)
(-0.000162726 -0.0988416 -0.000124681)
(-0.000184057 -0.0932985 0.000127152)
(-0.000183953 -0.0932978 -0.000126925)
(-0.000156934 -0.0928603 0.000125097)
(-0.000156836 -0.0928597 -0.000124927)
(0.000156608 -0.099625 -0.000378431)
(-0.000503417 -0.100711 -9.64593e-05)
(0.00015146 -0.0992348 -0.000375959)
(-0.000519869 -0.100353 -0.000107815)
(-0.00021055 -0.0933808 -0.000482282)
(0.00232817 -0.0943227 -0.00116154)
(-0.000217797 -0.0928138 -0.00047739)
(0.00229796 -0.0936664 -0.00116305)
(-0.014214 -0.10282 0.00116758)
(0.0133823 -0.106443 0.472108)
(-0.0141175 -0.102632 0.00113583)
(0.0133307 -0.106649 0.47255)
(-0.0125264 -0.0981141 0.00243923)
(0.00922837 -0.107522 0.496344)
(-0.0124353 -0.0977246 0.00239093)
(0.00918617 -0.108249 0.496439)
(0.0134714 -0.106142 -0.47111)
(-0.0143816 -0.10319 -0.00122296)
(0.0134262 -0.106275 -0.471494)
(-0.0143009 -0.103007 -0.001197)
(0.00927944 -0.10633 -0.496147)
(-0.0126653 -0.0987938 -0.00252307)
(0.00923913 -0.106885 -0.49623)
(-0.0125853 -0.0984705 -0.00248406)
(-0.000474467 -0.101389 7.38636e-05)
(0.000170132 -0.100386 0.000381443)
(-0.000487203 -0.101057 8.48748e-05)
(0.000163459 -0.10001 0.000380408)
(0.00237873 -0.0955111 0.00115645)
(-0.000195453 -0.0944762 0.000488806)
(0.002358 -0.0949381 0.00115935)
(-0.000201771 -0.0939363 0.000486196)
(-0.000191479 -0.0999709 0.00012827)
(-0.000191592 -0.0999704 -0.00012805)
(-0.000185683 -0.0995926 0.000127443)
(-0.000185788 -0.0995921 -0.000127226)
(-0.000224714 -0.0942214 0.000129756)
(-0.00022464 -0.0942206 -0.000129527)
(-0.000207106 -0.0937534 0.000128655)
(-0.000207017 -0.0937527 -0.000128427)
(0.000169849 -0.100385 -0.000381223)
(-0.000474013 -0.101387 -7.40188e-05)
(0.000163183 -0.100008 -0.000380201)
(-0.000486756 -0.101055 -8.50115e-05)
(-0.000195447 -0.0944739 -0.000488519)
(0.00237804 -0.0955072 -0.00115622)
(-0.000201771 -0.0939339 -0.000485907)
(0.0023573 -0.094934 -0.00115911)
(-0.0143764 -0.103189 0.00122224)
(0.0134658 -0.106143 0.471126)
(-0.0142957 -0.103006 0.00119628)
(0.0134205 -0.106276 0.47151)
(-0.012661 -0.0987901 0.00252154)
(0.00927548 -0.106333 0.49615)
(-0.0125809 -0.0984664 0.00248252)
(0.00923507 -0.106888 0.496233)
(0.0135436 -0.105955 -0.470211)
(-0.0145118 -0.103548 -0.00126672)
(0.0135039 -0.106036 -0.470556)
(-0.0144473 -0.10337 -0.00124588)
(0.00931976 -0.105414 -0.495975)
(-0.0127754 -0.0993751 -0.00258929)
(0.00928331 -0.105843 -0.496048)
(-0.0127081 -0.0990937 -0.00255791)
(-0.000448781 -0.10202 5.35829e-05)
(0.000186783 -0.101116 0.000381572)
(-0.000460453 -0.10171 6.34827e-05)
(0.00017813 -0.100755 0.000381702)
(0.00241397 -0.0965572 0.00114953)
(-0.00018473 -0.095513 0.000491609)
(0.00239978 -0.0960492 0.00115308)
(-0.000190164 -0.0950017 0.000490536)
(-0.000192633 -0.100718 0.000129118)
(-0.000192755 -0.100718 -0.000128904)
(-0.000193619 -0.100347 0.000128782)
(-0.000193736 -0.100346 -0.000128565)
(-0.000245522 -0.0951713 0.000131)
(-0.000245479 -0.0951706 -0.000130774)
(-0.000237069 -0.094695 0.000130512)
(-0.000237007 -0.0946943 -0.000130285)
(0.00018649 -0.101115 -0.000381362)
(-0.000448297 -0.102018 -5.37381e-05)
(0.000177844 -0.100754 -0.000381488)
(-0.000459984 -0.101708 -6.3638e-05)
(-0.000184816 -0.0955108 -0.000491332)
(0.00241331 -0.0965538 -0.00114931)
(-0.000190165 -0.0949994 -0.000490254)
(0.00239911 -0.0960455 -0.00115285)
(-0.0145067 -0.103547 0.00126603)
(0.0135382 -0.105956 0.470226)
(-0.0144422 -0.103369 0.00124517)
(0.0134983 -0.106037 0.470572)
(-0.0127711 -0.0993721 0.0025878)
(0.0093159 -0.105417 0.495977)
(-0.0127037 -0.0990904 0.00255641)
(0.00927935 -0.105845 0.49605)
(0.0136084 -0.105844 -0.469379)
(-0.0146097 -0.103892 -0.00130171)
(0.0135714 -0.105892 -0.469681)
(-0.0145612 -0.103722 -0.001285)
(0.00935273 -0.104701 -0.495818)
(-0.0128596 -0.0998904 -0.00264222)
(0.00931869 -0.105036 -0.495882)
(-0.0128042 -0.0996397 -0.00261717)
(-0.000420883 -0.102604 3.58749e-05)
(0.000210031 -0.101807 0.000380132)
(-0.000434316 -0.102318 4.44616e-05)
(0.000197718 -0.101467 0.000380929)
(0.00243986 -0.0974904 0.00114193)
(-0.000164602 -0.0964891 0.000492188)
(0.00242998 -0.0970364 0.00114573)
(-0.000175051 -0.0960083 0.000492102)
(-0.000181086 -0.101438 0.000129099)
(-0.00018121 -0.101437 -0.000128893)
(-0.000188316 -0.101082 0.000129162)
(-0.000188439 -0.101082 -0.000128951)
(-0.000252119 -0.0961132 0.000131406)
(-0.000252088 -0.0961124 -0.000131188)
(-0.000250106 -0.0956446 0.000131282)
(-0.000250071 -0.0956439 -0.00013106)
(0.000209742 -0.101805 -0.000379931)
(-0.000420358 -0.102603 -3.60301e-05)
(0.000197426 -0.101466 -0.000380723)
(-0.00043381 -0.102317 -4.46169e-05)
(-0.000164727 -0.0964871 -0.000491921)
(0.00243923 -0.0974874 -0.00114172)
(-0.000175164 -0.0960061 -0.00049183)
(0.00242934 -0.0970332 -0.00114551)
(-0.0146046 -0.103891 0.00130104)
(0.013603 -0.105845 0.469394)
(-0.0145561 -0.103721 0.00128432)
(0.013566 -0.105893 0.469697)
(-0.0128553 -0.0998878 0.00264077)
(0.00934894 -0.104703 0.495821)
(-0.0127999 -0.099637 0.00261571)
(0.00931482 -0.105038 0.495885)
(0.0136714 -0.105776 -0.468612)
(-0.0146747 -0.104211 -0.00132949)
(0.0136346 -0.105807 -0.468876)
(-0.0146427 -0.104055 -0.00131619)
(0.00938134 -0.104129 -0.495677)
(-0.0129191 -0.100352 -0.00268407)
(0.00934869 -0.104401 -0.495733)
(-0.0128754 -0.100127 -0.00266432)
(-0.00038496 -0.103137 2.07261e-05)
(0.000242986 -0.102446 0.000377859)
(-0.000403223 -0.102878 2.80335e-05)
(0.000225266 -0.102133 0.000378993)
(0.0024599 -0.0983255 0.00113424)
(-0.000134993 -0.0973986 0.00049138)
(0.00245247 -0.0979194 0.00113803)
(-0.00015158 -0.0969526 0.000491901)
(-0.000156618 -0.102113 0.000128573)
(-0.000156739 -0.102113 -0.000128376)
(-0.000170492 -0.101782 0.000128865)
(-0.000170615 -0.101782 -0.000128663)
(-0.000247421 -0.0970213 0.000131278)
(-0.000247403 -0.0970206 -0.000131067)
(-0.000251106 -0.0965725 0.000131388)
(-0.000251081 -0.0965718 -0.000131174)
(0.000242706 -0.102445 -0.000377667)
(-0.000384387 -0.103136 -2.08797e-05)
(0.000224982 -0.102132 -0.000378796)
(-0.000402673 -0.102876 -2.81883e-05)
(-0.000135185 -0.0973967 -0.000491124)
(0.0024593 -0.0983227 -0.00113404)
(-0.000151729 -0.0969506 -0.000491639)
(0.00245185 -0.0979165 -0.00113782)
(-0.0146697 -0.10421 0.00132885)
(0.0136661 -0.105777 0.468627)
(-0.0146377 -0.104054 0.00131553)
(0.0136293 -0.105807 0.468892)
(-0.0129148 -0.100349 0.00268266)
(0.0093776 -0.10413 0.49568)
(-0.0128712 -0.100125 0.00266289)
(0.00934487 -0.104402 0.495736)
(0.0137366 -0.10572 -0.467879)
(-0.0147042 -0.104489 -0.00135123)
(0.013698 -0.105749 -0.468122)
(-0.0146902 -0.104356 -0.0013408)
(0.00940448 -0.103647 -0.495546)
(-0.0129511 -0.100758 -0.0027165)
(0.00937397 -0.10388 -0.495597)
(-0.0129209 -0.100562 -0.00270127)
(-0.000334182 -0.103606 8.14326e-06)
(0.000290168 -0.103018 0.000375253)
(-0.000360685 -0.10338 1.41959e-05)
(0.000264854 -0.102741 0.000376498)
(0.00247737 -0.0990662 0.00112673)
(-9.3099e-05 -0.098232 0.00048975)
(0.00247103 -0.0987075 0.0011304)
(-0.000114331 -0.0978251 0.000490625)
(-0.000117315 -0.102726 0.00012768)
(-0.000117428 -0.102725 -0.000127491)
(-0.00013887 -0.102429 0.000128118)
(-0.000138988 -0.102428 -0.000127925)
(-0.00023066 -0.0978719 0.000130874)
(-0.000230643 -0.0978712 -0.000130673)
(-0.000240527 -0.097455 0.0001311)
(-0.00024051 -0.0974543 -0.000130895)
(0.000289917 -0.103017 -0.000375071)
(-0.000333542 -0.103605 -8.29707e-06)
(0.000264586 -0.10274 -0.00037631)
(-0.000360081 -0.103379 -1.43493e-05)
(-9.32814e-05 -0.0982302 -0.000489504)
(0.00247681 -0.0990637 -0.00112653)
(-0.000114525 -0.0978233 -0.000490374)
(0.00247044 -0.0987049 -0.0011302)
(-0.0146991 -0.104488 0.00135061)
(0.0137313 -0.10572 0.467895)
(-0.0146852 -0.104355 0.00134017)
(0.0136927 -0.105749 0.468138)
(-0.0129469 -0.100756 0.00271512)
(0.00940071 -0.103648 0.495549)
(-0.0129167 -0.10056 0.00269988)
(0.00937018 -0.103881 0.4956)
(0.0138114 -0.105641 -0.467179)
(-0.0146959 -0.104705 -0.00136793)
(0.0137672 -0.105685 -0.467412)
(-0.0147012 -0.104606 -0.00135989)
(0.00942733 -0.103207 -0.495427)
(-0.0129573 -0.101099 -0.00274085)
(0.00939667 -0.103425 -0.495471)
(-0.0129402 -0.100937 -0.00272952)
(-0.000262195 -0.103993 -2.13854e-06)
(0.000355686 -0.103503 0.000372708)
(-0.000300196 -0.103811 2.78591e-06)
(0.000320525 -0.103273 0.000373875)
(0.00249341 -0.0997078 0.00111963)
(-4.69678e-05 -0.098975 0.000487659)
(0.00248761 -0.0993997 0.00112308)
(-7.01277e-05 -0.0986157 0.000488732)
(-6.00864e-05 -0.103252 0.000126746)
(-6.01821e-05 -0.103252 -0.000126563)
(-9.13415e-05 -0.103002 0.000127175)
(-9.14463e-05 -0.103001 -0.00012699)
(-0.000198668 -0.0986388 0.000130276)
(-0.000198647 -0.0986382 -0.000130083)
(-0.000216206 -0.0982673 0.000130593)
(-0.00021619 -0.0982667 -0.000130396)
(0.000355487 -0.103502 -0.00037253)
(-0.000261436 -0.103992 1.98972e-06)
(0.000320297 -0.103272 -0.000373696)
(-0.000299504 -0.10381 -2.93979e-06)
(-4.71178e-05 -0.0989733 -0.000487425)
(0.00249294 -0.0997054 -0.00111944)
(-7.02955e-05 -0.098614 -0.000488492)
(0.00248709 -0.0993972 -0.00112289)
(-0.0146908 -0.104705 0.00136732)
(0.013806 -0.105641 0.467211)
(-0.0146962 -0.104605 0.00135929)
(0.0137619 -0.105686 0.467428)
(-0.0129529 -0.101096 0.0027395)
(0.00942332 -0.103208 0.49543)
(-0.0129359 -0.100935 0.00272815)
(0.00939277 -0.103426 0.495474)
(0.0139016 -0.105505 -0.466546)
(-0.0146457 -0.104835 -0.00138026)
(0.0138491 -0.105583 -0.466725)
(-0.0146726 -0.104783 -0.00137432)
(0.00945096 -0.102762 -0.495316)
(-0.0129352 -0.101355 -0.0027581)
(0.00942008 -0.102988 -0.495356)
(-0.0129328 -0.101239 -0.00275021)
(-0.000161043 -0.104278 -1.03045e-05)
(0.000447332 -0.10388 0.000370044)
(-0.00021464 -0.10415 -6.40562e-06)
(0.000398367 -0.103707 0.000371321)
(0.00250887 -0.100239 0.00111299)
(1.69573e-06 -0.0996071 0.000485256)
(0.00250332 -0.0999878 0.00111621)
(-2.27902e-05 -0.099306 0.000486474)
(3.34492e-05 -0.103666 0.00012548)
(3.33568e-05 -0.103666 -0.000125305)
(-1.79522e-05 -0.103473 0.000126136)
(-1.80493e-05 -0.103473 -0.000125956)
(-0.000172566 -0.0992988 0.000129489)
(-0.000172528 -0.0992982 -0.000129301)
(-0.000186267 -0.098983 0.000129902)
(-0.00018623 -0.0989824 -0.000129712)
(0.000447198 -0.10388 -0.000369886)
(-0.000160108 -0.104277 1.01461e-05)
(0.000398202 -0.103706 -0.00037115)
(-0.000213793 -0.104149 6.25543e-06)
(1.56126e-06 -0.0996055 -0.000485038)
(0.00250846 -0.100236 -0.00111285)
(-2.2925e-05 -0.0993043 -0.000486248)
(0.00250291 -0.0999853 -0.00111604)
(-0.0146405 -0.104835 0.00137971)
(0.0138959 -0.105506 0.466562)
(-0.0146674 -0.104782 0.00137373)
(0.0138435 -0.105583 0.466757)
(-0.0129314 -0.101352 0.00275683)
(0.00944763 -0.102764 0.495319)
(-0.0129281 -0.101236 0.00274889)
(0.00941575 -0.102989 0.495358)
(0.0140134 -0.105277 -0.46556)
(-0.0145493 -0.104847 -0.00138913)
(0.0139494 -0.105405 -0.466104)
(-0.0145999 -0.104858 -0.00138478)
(0.00947829 -0.102262 -0.495212)
(-0.0128826 -0.101501 -0.00276917)
(0.00944596 -0.102522 -0.495248)
(-0.0128968 -0.101444 -0.00276425)
(-2.32713e-05 -0.104435 -1.64129e-05)
(0.000569126 -0.104125 0.000367674)
(-9.61729e-05 -0.104374 -1.35583e-05)
(0.000504197 -0.104021 0.000368716)
(0.00252175 -0.100642 0.0011068)
(5.66433e-05 -0.100105 0.000482673)
(0.00251781 -0.100457 0.0011098)
(2.83987e-05 -0.0998742 0.000483966)
(0.000159188 -0.103948 0.000124154)
(0.000159117 -0.103948 -0.000123974)
(9.25661e-05 -0.103826 0.000124781)
(9.24843e-05 -0.103826 -0.000124603)
(-0.000132953 -0.0998261 0.000128584)
(-0.00013292 -0.0998256 -0.000128392)
(-0.000154071 -0.099581 0.000129043)
(-0.000154034 -0.0995805 -0.000128853)
(0.000569098 -0.104124 -0.000367498)
(-2.20045e-05 -0.104434 1.63006e-05)
(0.000504115 -0.10402 -0.000368553)
(-9.50749e-05 -0.104374 1.3414e-05)
(5.65191e-05 -0.100103 -0.000482458)
(0.00252158 -0.100639 -0.00110673)
(2.8273e-05 -0.0998726 -0.000483752)
(0.00251753 -0.100454 -0.00110969)
(-0.0145434 -0.104848 0.00138851)
(0.0140069 -0.105276 0.46582)
(-0.0145944 -0.104858 0.0013842)
(0.0139434 -0.105405 0.46612)
(-0.0128789 -0.101497 0.00276789)
(0.00947521 -0.102266 0.495215)
(-0.0128925 -0.10144 0.00276299)
(0.00944198 -0.102524 0.495251)
(0.0141518 -0.104915 -0.46502)
(-0.0144024 -0.104712 -0.00139414)
(0.0140736 -0.105117 -0.465114)
(-0.0144786 -0.1048 -0.00139164)
(0.0095039 -0.101664 -0.495115)
(-0.0127909 -0.101502 -0.00277333)
(0.00947308 -0.101979 -0.495147)
(-0.0128272 -0.101523 -0.00277222)
(0.000156315 -0.104437 -2.09455e-05)
(0.000730429 -0.104204 0.00036553)
(6.25418e-05 -0.104457 -1.88659e-05)
(0.000645392 -0.104187 0.000366454)
(0.00252942 -0.100898 0.00110112)
(0.000122897 -0.100436 0.000479872)
(0.00252725 -0.100789 0.00110383)
(8.84444e-05 -0.100293 0.000481296)
(0.000319655 -0.104061 0.000122816)
(0.000319556 -0.104061 -0.000122676)
(0.000234776 -0.104028 0.000123433)
(0.000234704 -0.104028 -0.000123275)
(-7.3583e-05 -0.10018 0.000127584)
(-7.35828e-05 -0.10018 -0.000127414)
(-0.000106801 -0.100027 0.000128095)
(-0.000106783 -0.100027 -0.000127913)
(0.000730296 -0.104204 -0.000365435)
(0.000157389 -0.104437 2.08322e-05)
(0.000645372 -0.104187 -0.000366336)
(6.38813e-05 -0.104456 1.8655e-05)
(0.000122625 -0.100434 -0.00047966)
(0.00252887 -0.100895 -0.00110104)
(8.82926e-05 -0.100292 -0.000481087)
(0.00252719 -0.100786 -0.0011038)
(-0.0143966 -0.104711 0.00139376)
(0.0141457 -0.104915 0.465352)
(-0.0144725 -0.104801 0.00139127)
(0.0140669 -0.105115 0.465378)
(-0.0127907 -0.101496 0.00277221)
(0.00950489 -0.10167 0.495118)
(-0.0128248 -0.101517 0.00277107)
(0.00947135 -0.101983 0.495149)
(0.0143234 -0.104371 -0.464192)
(-0.0142074 -0.104398 -0.00139659)
(0.0142266 -0.10467 -0.46452)
(-0.0143061 -0.10458 -0.00139566)
(0.00953551 -0.100926 -0.495025)
(-0.0126611 -0.101316 -0.0027743)
(0.00948973 -0.101316 -0.495053)
(-0.012706 -0.101436 -0.00277392)
(0.000354826 -0.104269 -2.34153e-05)
(0.000925593 -0.104086 0.000362967)
(0.000257607 -0.104377 -2.22849e-05)
(0.000824387 -0.104172 0.000364429)
(0.00258856 -0.100978 0.00109551)
(0.000208091 -0.100563 0.000476551)
(0.00254868 -0.100964 0.00109844)
(0.000162438 -0.100527 0.000478306)
(0.000519585 -0.103968 0.000121539)
(0.000519441 -0.103967 -0.00012138)
(0.000414562 -0.104043 0.000122157)
(0.000414424 -0.104042 -0.00012201)
(5.37373e-06 -0.100323 0.000126487)
(5.33371e-06 -0.100322 -0.00012631)
(-3.58788e-05 -0.10028 0.00012705)
(-3.59058e-05 -0.10028 -0.000126879)
(0.00092526 -0.104086 -0.000362788)
(0.000355378 -0.104268 2.33975e-05)
(0.000824076 -0.104172 -0.000364273)
(0.000258203 -0.104376 2.23329e-05)
(0.000207617 -0.100562 -0.00047631)
(0.00258686 -0.100976 -0.00109532)
(0.000161985 -0.100526 -0.000478075)
(0.00254701 -0.100961 -0.00109827)
(-0.0142017 -0.104398 0.00139583)
(0.0143176 -0.104371 0.463786)
(-0.0143007 -0.104579 0.001395)
(0.0142215 -0.104669 0.464419)
(-0.0126668 -0.101313 0.00277311)
(0.00954353 -0.100927 0.495027)
(-0.0127109 -0.101432 0.00277275)
(0.00949686 -0.10132 0.495055)
(0.0145392 -0.103611 -0.46423)
(-0.0139674 -0.10385 -0.00139242)
(0.0144204 -0.104023 -0.463831)
(-0.0140908 -0.104157 -0.00139485)
(0.00961824 -0.099982 -0.49494)
(-0.0125246 -0.100913 -0.00276888)
(0.00956007 -0.100485 -0.494964)
(-0.0125848 -0.101143 -0.00277215)
(0.000548813 -0.103858 -2.47888e-05)
(0.00115552 -0.103726 0.00035774)
(0.000450661 -0.1041 -2.41985e-05)
(0.0010354 -0.10394 0.000360536)
(0.00275532 -0.100819 0.00109139)
(0.000320628 -0.100448 0.000472603)
(0.00266357 -0.100934 0.00109309)
(0.00026093 -0.100539 0.000474589)
(0.000763792 -0.103629 0.000120068)
(0.000763678 -0.103629 -0.000119902)
(0.000635512 -0.103831 0.0001208)
(0.000635391 -0.103831 -0.000120632)
(9.61987e-05 -0.10022 0.000125296)
(9.61737e-05 -0.10022 -0.000125114)
(4.80026e-05 -0.100304 0.00012588)
(4.79709e-05 -0.100303 -0.000125696)
(0.0011553 -0.103725 -0.000357545)
(0.00054958 -0.103857 2.4735e-05)
(0.00103517 -0.103939 -0.000360346)
(0.000451485 -0.104099 2.41053e-05)