/*--------------------------------*- C++ -*----------------------------------*\
  =========                 |
  \\      /  F ield         | OpenFOAM: The Open Source CFD Toolbox
   \\    /   O peration     | Website:  https://openfoam.org
    \\  /    A nd           | Version:  9
     \\/     M anipulation  |
\*---------------------------------------------------------------------------*/
FoamFile
{
    format      ascii;
    class       volScalarField;
    location    "0.1";
    object      p;
}
// * * * * * * * * * * * * * * * * * * * * * * * * * * * * * * * * * * * * * //

dimensions      [0 2 -2 0 0 0 0];

internalField   nonuniform List<scalar> 
4545
(
20.0475
20.0475
20.0475
20.0475
20.0475
19.9435
19.9435
19.9435
19.9435
19.9435
19.8416
19.8416
19.8416
19.8416
19.8416
19.7418
19.7418
19.7419
19.7418
19.7418
19.6441
19.6441
19.6441
19.6441
19.6441
19.5485
19.5485
19.5485
19.5485
19.5485
19.4549
19.4549
19.4549
19.4549
19.4549
19.3634
19.3634
19.3634
19.3634
19.3634
19.274
19.274
19.274
19.274
19.274
19.1866
19.1866
19.1866
19.1866
19.1866
19.1013
19.1013
19.1014
19.1014
19.1013
19.0182
19.0182
19.0182
19.0182
19.0182
18.9371
18.9371
18.9371
18.9371
18.9371
18.8582
18.8582
18.8582
18.8582
18.8582
18.7814
18.7814
18.7814
18.7814
18.7814
18.7068
18.7068
18.7068
18.7068
18.7068
18.6344
18.6344
18.6344
18.6344
18.6344
18.5642
18.5643
18.5643
18.5643
18.5642
18.4964
18.4964
18.4964
18.4964
18.4964
18.4308
18.4308
18.4308
18.4308
18.4308
18.3676
18.3676
18.3676
18.3676
18.3676
18.3067
18.3067
18.3068
18.3067
18.3067
18.2483
18.2483
18.2483
18.2483
18.2483
18.1924
18.1924
18.1924
18.1924
18.1924
18.1389
18.1389
18.1389
18.1389
18.1389
18.0879
18.0879
18.0879
18.0879
18.0879
18.0394
18.0394
18.0394
18.0394
18.0394
17.9935
17.9935
17.9935
17.9935
17.9935
17.9501
17.9501
17.9501
17.9501
17.9501
17.9093
17.9093
17.9093
17.9093
17.9093
17.8711
17.871
17.871
17.871
17.8711
17.8353
17.8353
17.8353
17.8353
17.8353
17.8021
17.802
17.802
17.802
17.8021
17.7713
17.7713
17.7713
17.7713
17.7713
17.743
17.7429
17.743
17.7429
17.743
17.7171
17.717
17.717
17.717
17.7171
17.6935
17.6934
17.6934
17.6934
17.6935
17.6721
17.6721
17.6721
17.6721
17.6722
17.653
17.653
17.653
17.653
17.6531
20.0475
20.0475
20.0475
20.0475
20.0475
19.9435
19.9435
19.9435
19.9435
19.9435
19.8416
19.8416
19.8416
19.8416
19.8416
19.7419
19.7419
19.7419
19.7419
19.7419
19.6442
19.6442
19.6442
19.6442
19.6442
19.5485
19.5485
19.5485
19.5485
19.5485
19.455
19.455
19.455
19.455
19.455
19.3635
19.3635
19.3635
19.3635
19.3635
19.274
19.2741
19.2741
19.2741
19.274
19.1867
19.1867
19.1867
19.1867
19.1867
19.1014
19.1014
19.1015
19.1014
19.1014
19.0183
19.0183
19.0183
19.0183
19.0183
18.9372
18.9372
18.9372
18.9372
18.9372
18.8583
18.8583
18.8583
18.8583
18.8583
18.7815
18.7816
18.7816
18.7816
18.7815
18.707
18.707
18.707
18.707
18.707
18.6346
18.6346
18.6346
18.6346
18.6346
18.5645
18.5645
18.5645
18.5645
18.5645
18.4966
18.4967
18.4967
18.4967
18.4966
18.4311
18.4311
18.4311
18.4311
18.4311
18.3679
18.3679
18.368
18.3679
18.3679
18.3071
18.3071
18.3072
18.3072
18.3071
18.2487
18.2488
18.2488
18.2488
18.2487
18.1928
18.1929
18.1929
18.1929
18.1928
18.1394
18.1394
18.1394
18.1394
18.1394
18.0885
18.0885
18.0885
18.0885
18.0885
18.0401
18.0401
18.0401
18.0401
18.0401
17.9942
17.9943
17.9943
17.9943
17.9942
17.9509
17.951
17.951
17.951
17.9509
17.9102
17.9102
17.9103
17.9103
17.9102
17.872
17.8721
17.8721
17.8721
17.872
17.8363
17.8364
17.8364
17.8364
17.8364
17.8032
17.8033
17.8033
17.8033
17.8032
17.7725
17.7726
17.7726
17.7726
17.7725
17.7443
17.7443
17.7443
17.7443
17.7443
17.7185
17.7185
17.7185
17.7185
17.7185
17.695
17.695
17.695
17.695
17.695
17.6737
17.6738
17.6738
17.6738
17.6737
17.6547
17.6548
17.6548
17.6548
17.6547
20.0475
20.0475
20.0475
20.0475
20.0475
19.9435
19.9435
19.9435
19.9435
19.9435
19.8416
19.8416
19.8416
19.8416
19.8416
19.7417
19.7417
19.7417
19.7417
19.7417
19.644
19.644
19.644
19.644
19.644
19.5483
19.5483
19.5483
19.5483
19.5483
19.4547
19.4547
19.4547
19.4547
19.4547
19.3632
19.3632
19.3632
19.3632
19.3632
19.2737
19.2737
19.2737
19.2737
19.2737
19.1862
19.1863
19.1863
19.1863
19.1862
19.1009
19.1009
19.1009
19.1009
19.1009
19.0176
19.0176
19.0176
19.0176
19.0176
18.9365
18.9365
18.9365
18.9365
18.9365
18.8574
18.8574
18.8574
18.8574
18.8574
18.7805
18.7805
18.7805
18.7805
18.7805
18.7058
18.7058
18.7058
18.7058
18.7058
18.6332
18.6333
18.6333
18.6333
18.6332
18.5629
18.5629
18.5629
18.5629
18.5629
18.4949
18.4949
18.4949
18.4949
18.4949
18.4291
18.4291
18.4291
18.4291
18.4291
18.3657
18.3657
18.3657
18.3657
18.3657
18.3046
18.3046
18.3046
18.3046
18.3046
18.246
18.246
18.246
18.246
18.246
18.1898
18.1898
18.1898
18.1898
18.1898
18.136
18.136
18.136
18.136
18.136
18.0848
18.0848
18.0848
18.0848
18.0848
18.0361
18.0361
18.0361
18.0361
18.0361
17.9899
17.9899
17.9899
17.9899
17.9899
17.9463
17.9463
17.9463
17.9463
17.9463
17.9052
17.9052
17.9052
17.9052
17.9052
17.8667
17.8667
17.8667
17.8667
17.8667
17.8307
17.8307
17.8307
17.8307
17.8307
17.7973
17.7973
17.7973
17.7973
17.7973
17.7663
17.7663
17.7663
17.7663
17.7663
17.7378
17.7378
17.7378
17.7378
17.7378
17.7117
17.7117
17.7117
17.7117
17.7117
17.688
17.688
17.688
17.688
17.688
17.6666
17.6665
17.6665
17.6665
17.6666
17.6474
17.6473
17.6473
17.6473
17.6473
20.0474
20.0474
20.0474
20.0474
20.0474
19.9434
19.9434
19.9434
19.9434
19.9434
19.8414
19.8414
19.8414
19.8414
19.8414
19.7415
19.7415
19.7415
19.7415
19.7415
19.6437
19.6437
19.6437
19.6437
19.6437
19.5479
19.5479
19.548
19.5479
19.5479
19.4542
19.4542
19.4543
19.4542
19.4542
19.3626
19.3626
19.3626
19.3626
19.3626
19.273
19.273
19.273
19.273
19.273
19.1854
19.1854
19.1854
19.1854
19.1854
19.0999
19.0999
19.0999
19.0999
19.0999
19.0165
19.0165
19.0165
19.0165
19.0165
18.9351
18.9351
18.9351
18.9351
18.9351
18.8558
18.8558
18.8558
18.8558
18.8558
18.7786
18.7786
18.7787
18.7786
18.7786
18.7036
18.7036
18.7036
18.7036
18.7036
18.6307
18.6307
18.6308
18.6307
18.6307
18.5601
18.5601
18.5601
18.5601
18.5601
18.4916
18.4916
18.4916
18.4916
18.4916
18.4254
18.4254
18.4254
18.4254
18.4254
18.3615
18.3615
18.3616
18.3615
18.3615
18.3
18.3
18.3
18.3
18.3
18.2408
18.2408
18.2408
18.2408
18.2408
18.184
18.184
18.1841
18.184
18.184
18.1297
18.1297
18.1297
18.1297
18.1297
18.0779
18.0779
18.0779
18.0779
18.0779
18.0285
18.0286
18.0286
18.0286
18.0285
17.9818
17.9818
17.9818
17.9818
17.9818
17.9375
17.9375
17.9375
17.9375
17.9375
17.8958
17.8958
17.8958
17.8958
17.8958
17.8567
17.8567
17.8567
17.8567
17.8567
17.8201
17.8201
17.8201
17.8201
17.8201
17.7861
17.7861
17.7861
17.7861
17.7861
17.7546
17.7546
17.7546
17.7546
17.7546
17.7255
17.7255
17.7255
17.7255
17.7255
17.699
17.6989
17.6989
17.6989
17.699
17.6748
17.6747
17.6747
17.6747
17.6748
17.6529
17.6529
17.6529
17.6529
17.6529
17.6333
17.6333
17.6333
17.6333
17.6333
20.0474
20.0474
20.0474
20.0474
20.0474
19.9433
19.9433
19.9433
19.9433
19.9433
19.8412
19.8412
19.8412
19.8412
19.8412
19.7412
19.7412
19.7412
19.7412
19.7412
19.6433
19.6433
19.6433
19.6433
19.6433
19.5474
19.5474
19.5474
19.5474
19.5474
19.4536
19.4536
19.4536
19.4536
19.4536
19.3618
19.3618
19.3618
19.3618
19.3618
19.272
19.272
19.272
19.272
19.272
19.1842
19.1842
19.1842
19.1842
19.1842
19.0985
19.0985
19.0985
19.0985
19.0985
19.0148
19.0148
19.0148
19.0148
19.0148
18.9331
18.9331
18.9331
18.9331
18.9331
18.8535
18.8535
18.8535
18.8535
18.8535
18.7759
18.776
18.776
18.776
18.7759
18.7005
18.7005
18.7005
18.7005
18.7005
18.6271
18.6272
18.6272
18.6272
18.6271
18.5559
18.556
18.556
18.556
18.5559
18.4869
18.4869
18.4869
18.4869
18.4869
18.4201
18.4201
18.4201
18.4201
18.4201
18.3555
18.3556
18.3556
18.3556
18.3555
18.2933
18.2933
18.2933
18.2933
18.2933
18.2333
18.2333
18.2333
18.2333
18.2333
18.1757
18.1757
18.1757
18.1757
18.1757
18.1205
18.1206
18.1206
18.1206
18.1205
18.0678
18.0678
18.0678
18.0678
18.0678
18.0176
18.0176
18.0176
18.0176
18.0175
17.9698
17.9698
17.9698
17.9698
17.9698
17.9246
17.9246
17.9246
17.9246
17.9246
17.882
17.882
17.882
17.882
17.882
17.8419
17.8419
17.8419
17.8419
17.8419
17.8044
17.8044
17.8044
17.8044
17.8044
17.7695
17.7695
17.7695
17.7695
17.7695
17.7371
17.7371
17.7371
17.7371
17.7371
17.7072
17.7072
17.7072
17.7072
17.7072
17.6799
17.6799
17.6799
17.6799
17.6799
17.655
17.6549
17.6549
17.6549
17.6549
17.6324
17.6324
17.6324
17.6324
17.6324
17.6123
17.6122
17.6122
17.6122
17.6123
20.0473
20.0473
20.0473
20.0473
20.0473
19.9431
19.9431
19.9431
19.9431
19.9431
19.8409
19.8409
19.8409
19.8409
19.8409
19.7408
19.7408
19.7408
19.7408
19.7408
19.6428
19.6428
19.6428
19.6428
19.6428
19.5467
19.5467
19.5467
19.5467
19.5467
19.4527
19.4527
19.4527
19.4527
19.4527
19.3607
19.3607
19.3607
19.3607
19.3607
19.2707
19.2707
19.2707
19.2707
19.2707
19.1827
19.1827
19.1827
19.1827
19.1827
19.0967
19.0967
19.0967
19.0967
19.0967
19.0126
19.0126
19.0126
19.0126
19.0126
18.9306
18.9306
18.9306
18.9306
18.9306
18.8505
18.8505
18.8506
18.8505
18.8505
18.7725
18.7725
18.7725
18.7725
18.7725
18.6965
18.6965
18.6965
18.6965
18.6965
18.6225
18.6225
18.6226
18.6225
18.6225
18.5507
18.5507
18.5507
18.5507
18.5507
18.4809
18.4809
18.4809
18.4809
18.4809
18.4132
18.4133
18.4133
18.4133
18.4132
18.3478
18.3478
18.3478
18.3478
18.3478
18.2845
18.2846
18.2846
18.2846
18.2845
18.2236
18.2236
18.2236
18.2236
18.2236
18.1649
18.1649
18.1649
18.1649
18.1649
18.1085
18.1086
18.1086
18.1086
18.1085
18.0546
18.0546
18.0546
18.0546
18.0546
18.0031
18.0031
18.0031
18.0031
18.0031
17.9541
17.9541
17.9541
17.9541
17.9541
17.9076
17.9076
17.9076
17.9076
17.9076
17.8636
17.8636
17.8637
17.8636
17.8636
17.8223
17.8223
17.8223
17.8223
17.8223
17.7835
17.7835
17.7835
17.7835
17.7835
17.7473
17.7473
17.7473
17.7473
17.7473
17.7137
17.7137
17.7137
17.7137
17.7137
17.6827
17.6827
17.6827
17.6827
17.6827
17.6543
17.6542
17.6542
17.6542
17.6543
17.6283
17.6283
17.6283
17.6283
17.6283
17.6049
17.6049
17.6049
17.6049
17.6049
17.5839
17.5839
17.5839
17.5839
17.5839
20.0473
20.0473
20.0473
20.0473
20.0473
19.9429
19.9429
19.9429
19.9429
19.9429
19.8406
19.8406
19.8406
19.8406
19.8406
19.7403
19.7404
19.7404
19.7404
19.7403
19.6421
19.6421
19.6421
19.6421
19.6421
19.5459
19.5459
19.5459
19.5459
19.5459
19.4517
19.4517
19.4517
19.4517
19.4517
19.3595
19.3595
19.3595
19.3595
19.3595
19.2692
19.2692
19.2692
19.2692
19.2692
19.1809
19.1809
19.1809
19.1809
19.1809
19.0945
19.0945
19.0945
19.0945
19.0945
19.0101
19.0101
19.0101
19.0101
19.0101
18.9276
18.9276
18.9276
18.9276
18.9276
18.847
18.847
18.847
18.847
18.847
18.7684
18.7684
18.7684
18.7684
18.7684
18.6917
18.6917
18.6917
18.6917
18.6917
18.617
18.617
18.617
18.617
18.617
18.5443
18.5443
18.5443
18.5443
18.5443
18.4736
18.4736
18.4737
18.4737
18.4736
18.405
18.405
18.405
18.405
18.405
18.3384
18.3385
18.3385
18.3385
18.3384
18.274
18.274
18.274
18.274
18.274
18.2117
18.2118
18.2118
18.2118
18.2117
18.1517
18.1517
18.1517
18.1517
18.1517
18.0939
18.0939
18.0939
18.0939
18.0939
18.0384
18.0384
18.0385
18.0384
18.0384
17.9853
17.9853
17.9854
17.9853
17.9853
17.9347
17.9347
17.9347
17.9347
17.9347
17.8865
17.8865
17.8865
17.8865
17.8865
17.8408
17.8408
17.8408
17.8408
17.8408
17.7977
17.7977
17.7977
17.7977
17.7977
17.7573
17.7573
17.7573
17.7573
17.7573
17.7194
17.7194
17.7194
17.7194
17.7194
17.6842
17.6842
17.6842
17.6842
17.6842
17.6517
17.6517
17.6517
17.6517
17.6517
17.6219
17.6218
17.6218
17.6218
17.6219
17.5946
17.5946
17.5946
17.5946
17.5946
17.57
17.57
17.57
17.57
17.57
17.5479
17.5479
17.5479
17.5479
17.5479
20.0472
20.0472
20.0472
20.0472
20.0472
19.9427
19.9427
19.9427
19.9427
19.9427
19.8402
19.8402
19.8402
19.8402
19.8402
19.7398
19.7398
19.7398
19.7398
19.7398
19.6414
19.6414
19.6414
19.6414
19.6414
19.545
19.545
19.545
19.545
19.545
19.4506
19.4506
19.4506
19.4506
19.4506
19.3581
19.3581
19.3581
19.3581
19.3581
19.2675
19.2675
19.2675
19.2675
19.2675
19.1789
19.1789
19.1789
19.1789
19.1789
19.0921
19.0921
19.0921
19.0921
19.0921
19.0072
19.0072
19.0072
19.0072
19.0072
18.9242
18.9242
18.9242
18.9242
18.9242
18.843
18.843
18.843
18.843
18.843
18.7637
18.7637
18.7637
18.7637
18.7637
18.6863
18.6863
18.6863
18.6863
18.6863
18.6107
18.6107
18.6108
18.6107
18.6107
18.5371
18.5371
18.5371
18.5371
18.5371
18.4653
18.4653
18.4653
18.4653
18.4653
18.3955
18.3955
18.3955
18.3955
18.3955
18.3276
18.3277
18.3277
18.3277
18.3276
18.2618
18.2618
18.2618
18.2618
18.2618
18.198
18.198
18.198
18.198
18.198
18.1363
18.1363
18.1363
18.1363
18.1363
18.0767
18.0767
18.0768
18.0767
18.0767
18.0194
18.0194
18.0194
18.0194
18.0194
17.9643
17.9643
17.9644
17.9643
17.9643
17.9116
17.9116
17.9116
17.9116
17.9116
17.8613
17.8613
17.8613
17.8613
17.8613
17.8135
17.8135
17.8135
17.8135
17.8135
17.7683
17.7683
17.7683
17.7683
17.7683
17.7257
17.7257
17.7257
17.7257
17.7257
17.6857
17.6857
17.6857
17.6857
17.6857
17.6485
17.6485
17.6485
17.6485
17.6485
17.614
17.614
17.614
17.614
17.614
17.5823
17.5823
17.5823
17.5823
17.5823
17.5534
17.5534
17.5534
17.5534
17.5534
17.5272
17.5272
17.5272
17.5272
17.5272
17.5038
17.5037
17.5037
17.5037
17.5038
20.0471
20.0471
20.0472
20.0471
20.0471
19.9425
19.9425
19.9425
19.9425
19.9425
19.8398
19.8398
19.8399
19.8398
19.8398
19.7393
19.7393
19.7393
19.7393
19.7393
19.6407
19.6407
19.6407
19.6407
19.6407
19.5441
19.5441
19.5441
19.5441
19.5441
19.4494
19.4494
19.4494
19.4494
19.4494
19.3566
19.3566
19.3566
19.3566
19.3566
19.2657
19.2657
19.2657
19.2657
19.2657
19.1767
19.1767
19.1767
19.1767
19.1767
19.0895
19.0895
19.0895
19.0895
19.0895
19.0041
19.0041
19.0041
19.0041
19.0041
18.9205
18.9205
18.9205
18.9205
18.9205
18.8387
18.8387
18.8387
18.8387
18.8387
18.7586
18.7586
18.7586
18.7586
18.7586
18.6803
18.6804
18.6804
18.6804
18.6804
18.6038
18.6039
18.6039
18.6039
18.6038
18.5291
18.5291
18.5291
18.5291
18.5291
18.4561
18.4562
18.4562
18.4562
18.4561
18.385
18.385
18.385
18.385
18.385
18.3156
18.3157
18.3157
18.3157
18.3156
18.2481
18.2482
18.2482
18.2482
18.2481
18.1826
18.1826
18.1826
18.1826
18.1826
18.1189
18.1189
18.119
18.1189
18.1189
18.0573
18.0573
18.0573
18.0573
18.0573
17.9977
17.9977
17.9978
17.9977
17.9977
17.9403
17.9403
17.9403
17.9403
17.9403
17.8851
17.8851
17.8851
17.8851
17.8851
17.8322
17.8323
17.8323
17.8323
17.8322
17.7818
17.7818
17.7818
17.7818
17.7818
17.7339
17.7339
17.7339
17.7339
17.7339
17.6886
17.6886
17.6886
17.6886
17.6886
17.646
17.646
17.646
17.646
17.646
17.6062
17.6062
17.6062
17.6062
17.6062
17.5692
17.5692
17.5692
17.5692
17.5692
17.5352
17.5352
17.5352
17.5352
17.5352
17.5041
17.5041
17.5041
17.5041
17.5041
17.476
17.476
17.4759
17.476
17.476
17.4508
17.4507
17.4507
17.4507
17.4508
20.0471
20.0471
20.0471
20.0471
20.0471
19.9422
19.9422
19.9422
19.9422
19.9422
19.8394
19.8394
19.8394
19.8394
19.8394
19.7387
19.7387
19.7387
19.7387
19.7387
19.6399
19.6399
19.6399
19.6399
19.6399
19.5431
19.5431
19.5431
19.5431
19.5431
19.4481
19.4481
19.4481
19.4481
19.4481
19.355
19.3551
19.3551
19.3551
19.3551
19.2638
19.2638
19.2638
19.2638
19.2638
19.1744
19.1744
19.1744
19.1744
19.1744
19.0867
19.0867
19.0867
19.0867
19.0867
19.0008
19.0008
19.0008
19.0008
19.0008
18.9166
18.9166
18.9166
18.9166
18.9166
18.8341
18.8341
18.8341
18.8341
18.8341
18.7533
18.7533
18.7533
18.7533
18.7533
18.6741
18.6741
18.6741
18.6741
18.6741
18.5965
18.5965
18.5965
18.5965
18.5965
18.5206
18.5206
18.5206
18.5206
18.5206
18.4463
18.4463
18.4464
18.4463
18.4463
18.3737
18.3737
18.3737
18.3737
18.3737
18.3027
18.3027
18.3027
18.3027
18.3027
18.2334
18.2334
18.2334
18.2334
18.2334
18.1658
18.1658
18.1658
18.1658
18.1658
18.0999
18.1
18.1
18.1
18.0999
18.0359
18.0359
18.0359
18.0359
18.0359
17.9737
17.9737
17.9738
17.9737
17.9737
17.9135
17.9136
17.9136
17.9136
17.9135
17.8554
17.8554
17.8554
17.8554
17.8554
17.7994
17.7995
17.7995
17.7995
17.7994
17.7458
17.7458
17.7458
17.7458
17.7458
17.6945
17.6946
17.6946
17.6946
17.6945
17.6459
17.6459
17.6459
17.6459
17.6459
17.6
17.6
17.6
17.6
17.6
17.5569
17.5569
17.5569
17.5569
17.5569
17.5168
17.5168
17.5168
17.5168
17.5168
17.4798
17.4798
17.4798
17.4798
17.4798
17.446
17.4459
17.4459
17.4459
17.446
17.4154
17.4153
17.4153
17.4153
17.4154
17.3881
17.388
17.388
17.388
17.3881
20.047
20.047
20.047
20.047
20.047
19.942
19.942
19.942
19.942
19.942
19.839
19.839
19.839
19.839
19.839
19.7381
19.7381
19.7381
19.7381
19.7381
19.6391
19.6391
19.6391
19.6391
19.6391
19.542
19.542
19.5421
19.542
19.542
19.4468
19.4469
19.4469
19.4469
19.4468
19.3535
19.3535
19.3535
19.3535
19.3535
19.2619
19.2619
19.2619
19.2619
19.2619
19.1721
19.1721
19.1721
19.1721
19.1721
19.0839
19.084
19.084
19.084
19.0839
18.9975
18.9975
18.9975
18.9975
18.9975
18.9127
18.9127
18.9127
18.9127
18.9127
18.8294
18.8295
18.8295
18.8295
18.8294
18.7478
18.7478
18.7478
18.7478
18.7478
18.6676
18.6676
18.6676
18.6676
18.6676
18.589
18.589
18.589
18.589
18.589
18.5118
18.5119
18.5119
18.5119
18.5119
18.4362
18.4362
18.4362
18.4362
18.4362
18.3619
18.3619
18.362
18.3619
18.3619
18.2892
18.2892
18.2892
18.2892
18.2892
18.2178
18.2179
18.2179
18.2179
18.2178
18.148
18.148
18.148
18.148
18.148
18.0797
18.0797
18.0797
18.0797
18.0797
18.0129
18.013
18.013
18.013
18.0129
17.9478
17.9478
17.9478
17.9478
17.9478
17.8844
17.8844
17.8844
17.8844
17.8844
17.8228
17.8228
17.8228
17.8228
17.8228
17.7631
17.7632
17.7632
17.7632
17.7631
17.7056
17.7056
17.7056
17.7056
17.7056
17.6503
17.6503
17.6503
17.6504
17.6503
17.5975
17.5975
17.5975
17.5975
17.5975
17.5474
17.5474
17.5474
17.5474
17.5474
17.5002
17.5002
17.5002
17.5002
17.5002
17.4561
17.456
17.456
17.456
17.4561
17.4153
17.4152
17.4152
17.4152
17.4153
17.3779
17.3779
17.3778
17.3779
17.3779
17.3442
17.3441
17.3441
17.3441
17.3442
17.3142
17.3141
17.3141
17.3141
17.3142
20.0469
20.0469
20.0469
20.0469
20.0469
19.9418
19.9418
19.9418
19.9418
19.9418
19.8386
19.8386
19.8386
19.8386
19.8386
19.7375
19.7375
19.7375
19.7375
19.7375
19.6384
19.6384
19.6384
19.6384
19.6384
19.5411
19.5411
19.5411
19.5411
19.5411
19.4456
19.4456
19.4456
19.4456
19.4456
19.352
19.352
19.352
19.352
19.352
19.26
19.26
19.26
19.26
19.26
19.1698
19.1698
19.1698
19.1698
19.1698
19.0812
19.0812
19.0812
19.0812
19.0812
18.9942
18.9942
18.9942
18.9942
18.9942
18.9088
18.9088
18.9088
18.9088
18.9088
18.8248
18.8249
18.8249
18.8249
18.8248
18.7423
18.7423
18.7423
18.7423
18.7423
18.6612
18.6613
18.6613
18.6613
18.6612
18.5815
18.5815
18.5815
18.5815
18.5815
18.5031
18.5031
18.5031
18.5031
18.5031
18.426
18.426
18.426
18.426
18.426
18.3501
18.3501
18.3501
18.3501
18.3501
18.2754
18.2754
18.2754
18.2754
18.2754
18.202
18.202
18.202
18.202
18.202
18.1297
18.1298
18.1298
18.1298
18.1297
18.0587
18.0587
18.0587
18.0587
18.0587
17.9889
17.989
17.989
17.989
17.9889
17.9205
17.9205
17.9205
17.9205
17.9205
17.8534
17.8534
17.8534
17.8534
17.8534
17.7878
17.7878
17.7878
17.7878
17.7878
17.7238
17.7238
17.7238
17.7238
17.7238
17.6616
17.6616
17.6616
17.6616
17.6616
17.6014
17.6014
17.6014
17.6014
17.6014
17.5434
17.5435
17.5435
17.5435
17.5434
17.488
17.488
17.488
17.488
17.488
17.4355
17.4355
17.4355
17.4355
17.4355
17.3861
17.3861
17.3861
17.3861
17.3861
17.3403
17.3402
17.3402
17.3402
17.3403
17.2983
17.2982
17.2982
17.2982
17.2983
17.2605
17.2604
17.2604
17.2604
17.2605
17.2271
17.2269
17.2269
17.2269
17.227
20.0469
20.0469
20.0469
20.0469
20.0469
19.9415
19.9415
19.9416
19.9415
19.9415
19.8383
19.8383
19.8383
19.8383
19.8383
19.737
19.737
19.737
19.737
19.737
19.6376
19.6376
19.6376
19.6376
19.6376
19.5401
19.5401
19.5401
19.5401
19.5401
19.4444
19.4445
19.4445
19.4445
19.4444
19.3505
19.3505
19.3505
19.3505
19.3505
19.2583
19.2583
19.2583
19.2583
19.2583
19.1677
19.1677
19.1677
19.1677
19.1677
19.0787
19.0787
19.0787
19.0787
19.0787
18.9912
18.9912
18.9912
18.9912
18.9912
18.9051
18.9051
18.9051
18.9051
18.9051
18.8205
18.8205
18.8205
18.8205
18.8205
18.7372
18.7372
18.7372
18.7372
18.7372
18.6551
18.6551
18.6551
18.6551
18.6551
18.5743
18.5743
18.5743
18.5743
18.5743
18.4946
18.4946
18.4946
18.4946
18.4946
18.416
18.416
18.416
18.416
18.416
18.3385
18.3385
18.3385
18.3385
18.3385
18.2619
18.2619
18.2619
18.2619
18.2619
18.1863
18.1863
18.1863
18.1863
18.1863
18.1115
18.1115
18.1115
18.1115
18.1115
18.0376
18.0377
18.0377
18.0377
18.0376
17.9646
17.9647
17.9647
17.9647
17.9646
17.8925
17.8925
17.8925
17.8925
17.8925
17.8213
17.8214
17.8214
17.8214
17.8213
17.7511
17.7512
17.7512
17.7512
17.7511
17.6821
17.6821
17.6821
17.6821
17.6821
17.6143
17.6144
17.6144
17.6144
17.6143
17.5481
17.5482
17.5482
17.5482
17.5481
17.4837
17.4838
17.4838
17.4838
17.4837
17.4216
17.4216
17.4216
17.4216
17.4216
17.3621
17.3621
17.3621
17.3621
17.3621
17.3057
17.3057
17.3057
17.3057
17.3057
17.2531
17.253
17.253
17.253
17.2531
17.2048
17.2047
17.2047
17.2047
17.2048
17.1614
17.1612
17.1612
17.1612
17.1614
17.1233
17.1231
17.1231
17.1231
17.1233
20.0468
20.0468
20.0468
20.0468
20.0468
19.9414
19.9414
19.9414
19.9414
19.9414
19.8379
19.8379
19.8379
19.8379
19.8379
19.7365
19.7365
19.7365
19.7365
19.7365
19.637
19.637
19.637
19.637
19.637
19.5393
19.5393
19.5393
19.5393
19.5393
19.4434
19.4434
19.4434
19.4434
19.4434
19.3492
19.3492
19.3492
19.3492
19.3492
19.2567
19.2567
19.2567
19.2567
19.2567
19.1657
19.1657
19.1657
19.1657
19.1657
19.0763
19.0763
19.0763
19.0763
19.0763
18.9883
18.9883
18.9884
18.9884
18.9884
18.9018
18.9018
18.9018
18.9018
18.9018
18.8165
18.8165
18.8165
18.8165
18.8165
18.7324
18.7324
18.7324
18.7324
18.7324
18.6495
18.6495
18.6495
18.6495
18.6495
18.5677
18.5676
18.5676
18.5676
18.5677
18.4868
18.4868
18.4868
18.4868
18.4868
18.4068
18.4068
18.4068
18.4068
18.4068
18.3276
18.3276
18.3276
18.3276
18.3276
18.2492
18.2492
18.2492
18.2492
18.2492
18.1713
18.1713
18.1713
18.1713
18.1713
18.0941
18.0941
18.0941
18.0941
18.0941
18.0172
18.0173
18.0173
18.0173
18.0172
17.9408
17.9409
17.9409
17.9409
17.9408
17.8648
17.8648
17.8648
17.8648
17.8648
17.7891
17.7892
17.7892
17.7892
17.7891
17.7138
17.7139
17.7139
17.7139
17.7138
17.639
17.6391
17.6391
17.6391
17.639
17.5647
17.5648
17.5648
17.5648
17.5647
17.4912
17.4913
17.4913
17.4913
17.4912
17.4189
17.419
17.4189
17.419
17.4189
17.348
17.3481
17.3481
17.3481
17.348
17.2793
17.2793
17.2793
17.2793
17.2793
17.2134
17.2134
17.2134
17.2134
17.2134
17.1511
17.1511
17.1511
17.1511
17.1511
17.0936
17.0935
17.0935
17.0935
17.0936
17.0419
17.0417
17.0417
17.0417
17.0419
16.9972
16.9969
16.997
16.9969
16.9972
20.0467
20.0467
20.0467
20.0467
20.0467
19.9412
19.9412
19.9412
19.9412
19.9412
19.8377
19.8377
19.8377
19.8377
19.8377
19.7361
19.7361
19.7361
19.7361
19.7361
19.6364
19.6364
19.6364
19.6364
19.6364
19.5386
19.5386
19.5386
19.5386
19.5386
19.4425
19.4425
19.4425
19.4425
19.4425
19.3481
19.3481
19.3481
19.3481
19.3481
19.2553
19.2553
19.2553
19.2553
19.2553
19.1641
19.1641
19.1641
19.1641
19.1641
19.0743
19.0743
19.0743
19.0743
19.0743
18.9859
18.9859
18.9859
18.9859
18.9859
18.8989
18.8989
18.8989
18.8989
18.8989
18.813
18.813
18.813
18.813
18.813
18.7283
18.7283
18.7283
18.7283
18.7283
18.6446
18.6446
18.6446
18.6446
18.6446
18.5618
18.5618
18.5618
18.5618
18.5618
18.4799
18.4799
18.4799
18.4799
18.4799
18.3986
18.3986
18.3986
18.3986
18.3986
18.318
18.3179
18.3179
18.3179
18.318
18.2377
18.2377
18.2377
18.2377
18.2377
18.1578
18.1578
18.1578
18.1578
18.1578
18.0781
18.0781
18.0781
18.0781
18.0781
17.9984
17.9984
17.9984
17.9984
17.9984
17.9186
17.9186
17.9186
17.9186
17.9186
17.8386
17.8386
17.8386
17.8386
17.8386
17.7582
17.7582
17.7582
17.7582
17.7582
17.6774
17.6774
17.6775
17.6774
17.6774
17.5961
17.5962
17.5962
17.5962
17.5961
17.5143
17.5144
17.5144
17.5144
17.5143
17.4321
17.4323
17.4323
17.4323
17.4321
17.3498
17.35
17.35
17.35
17.3498
17.2678
17.2679
17.2679
17.2679
17.2678
17.1866
17.1867
17.1867
17.1867
17.1866
17.1071
17.1072
17.1073
17.1072
17.1071
17.0306
17.0306
17.0307
17.0306
17.0306
16.9585
16.9585
16.9585
16.9584
16.9585
16.8929
16.8926
16.8927
16.8926
16.8929
16.8362
16.8357
16.8358
16.8357
16.8362
20.0467
20.0467
20.0467
20.0467
20.0467
19.9411
19.9411
19.9411
19.9411
19.9411
19.8374
19.8374
19.8374
19.8374
19.8374
19.7358
19.7358
19.7358
19.7358
19.7358
19.636
19.636
19.636
19.636
19.636
19.538
19.538
19.538
19.538
19.538
19.4418
19.4418
19.4418
19.4418
19.4418
19.3472
19.3472
19.3472
19.3472
19.3472
19.2542
19.2542
19.2542
19.2542
19.2542
19.1627
19.1627
19.1627
19.1627
19.1627
19.0727
19.0727
19.0727
19.0727
19.0727
18.984
18.984
18.984
18.984
18.984
18.8965
18.8965
18.8965
18.8965
18.8965
18.8102
18.8102
18.8102
18.8102
18.8102
18.7249
18.7249
18.7249
18.7249
18.7249
18.6406
18.6406
18.6406
18.6406
18.6406
18.5571
18.557
18.557
18.557
18.5571
18.4742
18.4742
18.4742
18.4742
18.4742
18.3919
18.3918
18.3918
18.3918
18.3919
18.3099
18.3099
18.3099
18.3099
18.3099
18.2282
18.2281
18.2281
18.2281
18.2282
18.1464
18.1464
18.1464
18.1464
18.1464
18.0645
18.0645
18.0645
18.0645
18.0645
17.9822
17.9821
17.9821
17.9821
17.9822
17.8992
17.8992
17.8992
17.8992
17.8992
17.8153
17.8153
17.8153
17.8153
17.8153
17.7303
17.7303
17.7303
17.7303
17.7303
17.6438
17.6438
17.6438
17.6438
17.6438
17.5556
17.5557
17.5557
17.5557
17.5556
17.4655
17.4656
17.4656
17.4656
17.4655
17.3733
17.3734
17.3734
17.3734
17.3733
17.2789
17.2791
17.2791
17.2791
17.2789
17.1825
17.1827
17.1827
17.1827
17.1825
17.0844
17.0846
17.0846
17.0846
17.0844
16.9855
16.9858
16.9858
16.9858
16.9854
16.8872
16.8877
16.8877
16.8877
16.8872
16.7922
16.7929
16.793
16.7929
16.7922
16.7048
16.7058
16.706
16.7058
16.7048
16.6323
16.6336
16.6339
16.6336
16.6323
20.0467
20.0467
20.0467
20.0467
20.0467
19.941
19.941
19.941
19.941
19.941
19.8373
19.8373
19.8373
19.8373
19.8373
19.7355
19.7355
19.7355
19.7355
19.7355
19.6357
19.6357
19.6357
19.6357
19.6357
19.5376
19.5376
19.5376
19.5376
19.5376
19.4413
19.4413
19.4413
19.4413
19.4413
19.3466
19.3466
19.3466
19.3466
19.3466
19.2535
19.2534
19.2535
19.2535
19.2535
19.1618
19.1618
19.1618
19.1618
19.1618
19.0715
19.0715
19.0715
19.0715
19.0715
18.9826
18.9826
18.9826
18.9826
18.9826
18.8948
18.8948
18.8948
18.8948
18.8948
18.8082
18.8082
18.8082
18.8082
18.8082
18.7225
18.7225
18.7225
18.7225
18.7225
18.6377
18.6377
18.6377
18.6377
18.6377
18.5536
18.5536
18.5535
18.5536
18.5536
18.47
18.47
18.47
18.47
18.47
18.3869
18.3868
18.3868
18.3868
18.3869
18.3039
18.3039
18.3039
18.3039
18.3039
18.221
18.2209
18.2209
18.2209
18.221
18.1378
18.1377
18.1377
18.1377
18.1378
18.0541
18.054
18.054
18.054
18.0541
17.9696
17.9695
17.9695
17.9695
17.9696
17.8839
17.8838
17.8838
17.8838
17.8839
17.7967
17.7966
17.7966
17.7966
17.7967
17.7074
17.7073
17.7073
17.7073
17.7074
17.6156
17.6156
17.6156
17.6156
17.6156
17.5207
17.5206
17.5207
17.5206
17.5207
17.4219
17.4219
17.422
17.422
17.4219
17.3187
17.3188
17.3188
17.3188
17.3187
17.2102
17.2104
17.2104
17.2104
17.2102
17.0958
17.0961
17.0961
17.0961
17.0958
16.9749
16.9752
16.9752
16.9752
16.9749
16.8468
16.847
16.847
16.847
16.8468
16.7107
16.7104
16.7103
16.7104
16.7107
16.5637
16.5627
16.5626
16.5627
16.5637
16.4044
16.4027
16.4027
16.4027
16.4044
16.2383
16.2354
16.2356
16.2354
16.2383
20.0466
20.0467
20.0467
20.0467
20.0466
19.9409
19.9409
19.9409
19.9409
19.9409
19.8372
19.8372
19.8372
19.8372
19.8372
19.7354
19.7354
19.7354
19.7354
19.7354
19.6355
19.6355
19.6355
19.6355
19.6355
19.5374
19.5374
19.5374
19.5374
19.5374
19.441
19.441
19.441
19.441
19.441
19.3462
19.3462
19.3462
19.3462
19.3462
19.253
19.253
19.253
19.253
19.253
19.1613
19.1613
19.1613
19.1613
19.1613
19.0709
19.0709
19.0709
19.0709
19.0709
18.9818
18.9818
18.9818
18.9818
18.9818
18.8939
18.8939
18.8939
18.8939
18.8939
18.8071
18.807
18.807
18.807
18.8071
18.7211
18.7211
18.7211
18.7211
18.7211
18.636
18.636
18.636
18.636
18.636
18.5516
18.5515
18.5515
18.5515
18.5516
18.4676
18.4676
18.4676
18.4676
18.4676
18.384
18.3839
18.3839
18.3839
18.384
18.3004
18.3003
18.3003
18.3003
18.3004
18.2167
18.2166
18.2166
18.2166
18.2167
18.1326
18.1325
18.1325
18.1325
18.1326
18.0477
18.0476
18.0476
18.0476
18.0477
17.9617
17.9616
17.9616
17.9616
17.9617
17.8742
17.874
17.874
17.874
17.8742
17.7845
17.7843
17.7843
17.7843
17.7845
17.6921
17.6918
17.6918
17.6918
17.6921
17.596
17.5958
17.5958
17.5958
17.596
17.4954
17.4951
17.4951
17.4951
17.4954
17.3888
17.3885
17.3886
17.3885
17.3889
17.2749
17.2746
17.2746
17.2746
17.2749
17.1514
17.1512
17.1513
17.1512
17.1514
17.0163
17.0164
17.0165
17.0164
17.0163
16.8676
16.8682
16.8683
16.8682
16.8676
16.7042
16.7056
16.7058
16.7056
16.7042
16.5278
16.5306
16.5307
16.5306
16.5278
16.3481
16.353
16.353
16.353
16.3481
16.1582
16.1628
16.1626
16.1628
16.1582
16.0442
16.0541
16.0539
16.0541
16.0442
20.0467
20.0467
20.0467
20.0467
20.0467
19.9409
19.9409
19.9409
19.9409
19.9409
19.8372
19.8372
19.8372
19.8372
19.8372
19.7354
19.7354
19.7354
19.7354
19.7354
19.6355
19.6355
19.6355
19.6355
19.6355
19.5374
19.5374
19.5374
19.5374
19.5374
19.441
19.441
19.441
19.441
19.441
19.3463
19.3463
19.3463
19.3463
19.3463
19.2531
19.2531
19.2531
19.2531
19.2531
19.1613
19.1613
19.1613
19.1613
19.1613
19.071
19.071
19.071
19.071
19.071
18.9819
18.9819
18.9819
18.9819
18.9819
18.894
18.894
18.894
18.894
18.894
18.8071
18.8071
18.8071
18.8071
18.8071
18.7212
18.7212
18.7212
18.7212
18.7212
18.6361
18.6361
18.6361
18.6361
18.6361
18.5517
18.5517
18.5516
18.5517
18.5517
18.4677
18.4677
18.4677
18.4677
18.4677
18.384
18.384
18.384
18.384
18.384
18.3004
18.3004
18.3004
18.3004
18.3004
18.2166
18.2166
18.2166
18.2166
18.2166
18.1324
18.1324
18.1324
18.1324
18.1324
18.0474
18.0474
18.0473
18.0474
18.0474
17.9612
17.9611
17.9611
17.9611
17.9612
17.8732
17.8732
17.8732
17.8732
17.8732
17.783
17.7829
17.7829
17.7829
17.783
17.6897
17.6896
17.6896
17.6896
17.6897
17.5923
17.5922
17.5922
17.5922
17.5923
17.4895
17.4894
17.4894
17.4894
17.4895
17.3795
17.3794
17.3794
17.3794
17.3795
17.2598
17.2596
17.2597
17.2596
17.2598
17.1265
17.1262
17.1263
17.1262
17.1265
16.9738
16.9733
16.9734
16.9733
16.9738
16.7913
16.7906
16.7907
16.7906
16.7913
16.5609
16.5599
16.56
16.5599
16.5609
16.2485
16.2478
16.2478
16.2478
16.2485
15.7793
15.7794
15.7792
15.7794
15.7793
15.0369
15.0405
15.0396
15.0405
15.0369
13.6787
13.6773
13.6757
13.6773
13.6788
17.6013
17.6012
17.6012
17.6012
17.6013
17.6032
17.6033
17.6033
17.6033
17.6032
17.5953
17.5953
17.5953