/*--------------------------------*- C++ -*----------------------------------*\
  =========                 |
  \\      /  F ield         | OpenFOAM: The Open Source CFD Toolbox
   \\    /   O peration     | Website:  https://openfoam.org
    \\  /    A nd           | Version:  9
     \\/     M anipulation  |
\*---------------------------------------------------------------------------*/
FoamFile
{
    format      ascii;
    class       surfaceScalarField;
    location    "0.1";
    object      phi;
}
// * * * * * * * * * * * * * * * * * * * * * * * * * * * * * * * * * * * * * //

dimensions      [0 3 -1 0 0 0 0];

internalField   nonuniform List<scalar> 
12376
(
-6.38632e-10
0.000514875
7.36943e-08
-1.2646e-10
0.000514862
6.90989e-08
3.28208e-10
0.000514863
6.82584e-08
7.17631e-10
0.000514859
7.3234e-08
0.000514872
8.10453e-08
-7.56687e-10
0.000514656
2.19402e-07
-5.3577e-10
0.000514648
2.13694e-07
5.67198e-10
0.000514651
2.10099e-07
8.19041e-10
0.000514647
2.12451e-07
0.000514654
2.19423e-07
-5.75616e-10
0.000514242
4.14628e-07
-7.35936e-10
0.000514237
4.11161e-07
6.112e-10
0.000514242
4.07862e-07
5.45296e-10
0.000514239
4.08225e-07
0.000514244
4.10668e-07
-8.7502e-10
0.000513637
6.06272e-07
-8.64502e-10
0.000513632
6.04957e-07
7.30668e-10
0.000513637
6.0385e-07
7.96966e-10
0.000513634
6.04773e-07
0.000513639
6.0586e-07
-1.16002e-09
0.000512839
7.99141e-07
-9.49315e-10
0.000512834
7.9757e-07
8.53458e-10
0.000512837
7.97573e-07
1.09733e-09
0.000512834
7.9929e-07
0.000512839
8.00782e-07
-1.32746e-09
0.000511834
1.00604e-06
-9.67924e-10
0.000511829
1.00485e-06
9.09273e-10
0.000511831
1.00406e-06
1.25397e-09
0.000511828
1.00598e-06
0.000511833
1.00731e-06
-1.33996e-09
0.000510603
1.23241e-06
-9.695e-10
0.000510597
1.23179e-06
9.29823e-10
0.000510599
1.23023e-06
1.27017e-09
0.000510596
1.23127e-06
0.000510602
1.23223e-06
-1.22458e-09
0.000509125
1.47897e-06
-9.33238e-10
0.000509119
1.47751e-06
9.02192e-10
0.000509121
1.47626e-06
1.18782e-09
0.000509119
1.47707e-06
0.000509125
1.47766e-06
-1.03655e-09
0.000507379
1.74749e-06
-8.29721e-10
0.000507371
1.74764e-06
8.46455e-10
0.000507373
1.74654e-06
9.90783e-10
0.000507371
1.748e-06
0.000507378
1.74844e-06
-7.65526e-10
0.000505334
2.04573e-06
-7.55598e-10
0.000505325
2.04629e-06
7.62046e-10
0.000505326
2.0455e-06
7.23186e-10
0.000505324
2.04678e-06
0.000505332
2.04656e-06
-5.39572e-10
0.000502959
2.3757e-06
-7.59044e-10
0.00050295
2.37547e-06
6.35152e-10
0.000502951
2.37407e-06
4.9732e-10
0.00050295
2.37448e-06
0.000502959
2.3737e-06
-4.35185e-10
0.000500223
2.73663e-06
-7.73618e-10
0.000500213
2.73686e-06
5.64577e-10
0.000500214
2.73487e-06
3.51325e-10
0.000500214
2.73607e-06
0.000500223
2.73598e-06
-3.80614e-10
0.000497091
3.13224e-06
-7.90364e-10
0.000497081
3.13287e-06
5.62905e-10
0.000497081
3.13187e-06
2.77194e-10
0.00049708
3.13432e-06
0.000497089
3.13455e-06
-4.06941e-10
0.000493522
3.56932e-06
-8.83094e-10
0.000493511
3.56983e-06
5.45886e-10
0.000493511
3.56871e-06
2.93417e-10
0.00049351
3.57034e-06
0.000493519
3.56977e-06
-5.28326e-10
0.000489481
4.04163e-06
-9.91189e-10
0.00048947
4.0417e-06
5.75042e-10
0.00048947
4.03909e-06
3.85054e-10
0.00048947
4.03994e-06
0.000489481
4.03918e-06
-6.03519e-10
0.000484929
4.55219e-06
-1.01153e-09
0.000484918
4.55215e-06
7.23573e-10
0.000484919
4.5495e-06
4.64279e-10
0.000484919
4.55148e-06
0.00048493
4.55143e-06
-5.62619e-10
0.000479825
5.10432e-06
-9.80945e-10
0.000479814
5.10474e-06
8.8297e-10
0.000479814
5.10291e-06
4.69374e-10
0.000479813
5.10584e-06
0.000479824
5.10598e-06
-4.74429e-10
0.00047413
5.69615e-06
-9.75657e-10
0.000474118
5.69661e-06
9.61869e-10
0.000474118
5.69436e-06
4.1841e-10
0.000474117
5.69696e-06
0.000474128
5.69667e-06
-3.63359e-10
0.000467805
6.32507e-06
-9.78781e-10
0.000467794
6.32509e-06
1.0053e-09
0.000467794
6.32197e-06
3.25346e-10
0.000467793
6.32445e-06
0.000467804
6.32404e-06
-1.90759e-10
0.00046082
6.98502e-06
-9.64375e-10
0.000460809
6.98515e-06
1.03649e-09
0.00046081
6.98211e-06
1.69802e-10
0.000460809
6.98531e-06
0.000460819
6.98506e-06
1.95101e-11
0.000453141
7.67925e-06
-9.8377e-10
0.00045313
7.68009e-06
1.00483e-09
0.00045313
7.67739e-06
-3.2626e-11
0.000453129
7.68103e-06
0.000453139
7.68062e-06
1.90657e-10
0.000444738
8.40299e-06
-1.0686e-09
0.000444727
8.40416e-06
9.11594e-10
0.000444727
8.401e-06
-2.2146e-10
0.000444725
8.40431e-06
0.000444735
8.40341e-06
3.05418e-10
0.000435589
9.14814e-06
-1.14801e-09
0.000435579
9.14903e-06
8.47257e-10
0.00043558
9.14497e-06
-3.63819e-10
0.000435579
9.14794e-06
0.000435588
9.14671e-06
4.30771e-10
0.000425681
9.90768e-06
-1.1327e-09
0.000425672
9.90841e-06
8.73704e-10
0.000425674
9.90401e-06
-4.93186e-10
0.000425673
9.90732e-06
0.000425681
9.90607e-06
6.36004e-10
0.000415004
1.06763e-05
-1.01024e-09
0.000414997
1.06776e-05
9.40172e-10
0.000414999
1.06735e-05
-6.68724e-10
0.000414997
1.06775e-05
0.000415004
1.06762e-05
9.2919e-10
0.000403555
1.1448e-05
-8.5596e-10
0.000403548
1.14501e-05
9.48805e-10
0.000403551
1.14464e-05
-9.22247e-10
0.000403548
1.14509e-05
0.000403554
1.14492e-05
1.27647e-09
0.000391339
1.22152e-05
-7.92041e-10
0.000391332
1.2218e-05
8.93531e-10
0.000391335
1.22143e-05
-1.24545e-09
0.000391331
1.22187e-05
0.000391337
1.22163e-05
1.64065e-09
0.000378369
1.29682e-05
-7.5396e-10
0.000378363
1.29714e-05
8.05088e-10
0.000378366
1.29672e-05
-1.61307e-09
0.000378362
1.29713e-05
0.000378367
1.29681e-05
1.99745e-09
0.00036467
1.36965e-05
-7.35762e-10
0.000364666
1.37001e-05
6.83601e-10
0.000364669
1.36954e-05
-1.99372e-09
0.000364666
1.36994e-05
0.00036467
1.36956e-05
2.3321e-09
0.000350274
1.4394e-05
-7.28131e-10
0.000350271
1.4398e-05
5.53153e-10
0.000350275
1.43931e-05
-2.35976e-09
0.000350271
1.43973e-05
0.000350274
1.4393e-05
2.63464e-09
0.000335219
1.50526e-05
-7.20385e-10
0.000335217
1.50574e-05
4.34333e-10
0.000335221
1.50527e-05
-2.69125e-09
0.000335217
1.50571e-05
0.000335219
1.50523e-05
2.90384e-09
0.00031955
1.56661e-05
-6.98509e-10
0.000319549
1.56717e-05
3.41676e-10
0.000319553
1.56671e-05
-2.98092e-09
0.000319549
1.56718e-05
0.00031955
1.56664e-05
3.14956e-09
0.000303318
1.62284e-05
-6.49543e-10
0.000303318
1.62348e-05
2.78847e-10
0.000303322
1.62303e-05
-3.23576e-09
0.000303318
1.62349e-05
0.000303318
1.6229e-05
3.38572e-09
0.000286582
1.67329e-05
-5.71023e-10
0.000286582
1.67398e-05
2.36089e-10
0.000286585
1.67352e-05
-3.47068e-09
0.000286581
1.67397e-05
0.000286581
1.67331e-05
3.61904e-09
0.000269403
1.71752e-05
-4.75744e-10
0.000269404
1.71825e-05
1.94644e-10
0.000269407
1.71778e-05
-3.69771e-09
0.000269403
1.71821e-05
0.000269402
1.7175e-05
3.84328e-09
0.000251847
1.75524e-05
-3.86739e-10
0.000251848
1.756e-05
1.36938e-10
0.000251851
1.75551e-05
-3.9169e-09
0.000251848
1.75594e-05
0.000251847
1.75517e-05
4.04402e-09
0.000233981
1.78618e-05
-3.25586e-10
0.000233983
1.78696e-05
5.41997e-11
0.000233986
1.78648e-05
-4.11657e-09
0.000233983
1.7869e-05
0.000233982
1.7861e-05
4.19781e-09
0.000215873
1.81038e-05
-3.03689e-10
0.000215875
1.81122e-05
-5.59318e-11
0.000215879
1.81074e-05
-4.27139e-09
0.000215876
1.81116e-05
0.000215874
1.81032e-05
4.26648e-09
1.82828e-05
0.000197586
-3.28215e-10
1.82914e-05
0.000197588
-1.81113e-10
1.82867e-05
0.000197592
-4.33407e-09
1.82909e-05
0.000197589
1.82824e-05
0.000197588
-6.12566e-10
0.000711676
2.01279e-07
-1.46089e-10
0.000711677
1.9625e-07
1.52191e-10
0.000711688
1.95453e-07
6.28775e-10
0.000711678
1.99478e-07
0.000711676
2.06719e-07
-8.58873e-10
0.00071136
5.36427e-07
-5.03415e-10
0.000711359
5.3108e-07
5.22033e-10
0.000711369
5.27675e-07
8.58764e-10
0.000711359
5.30269e-07
0.00071136
5.36767e-07
-7.37582e-10
0.000710806
9.68604e-07
-7.10384e-10
0.000710805
9.64853e-07
6.76186e-10
0.000710813
9.6217e-07
7.25601e-10
0.000710805
9.62547e-07
0.000710806
9.65359e-07
-1.25593e-09
0.000710001
1.41263e-06
-9.044e-10
0.00071
1.40989e-06
7.68018e-10
0.000710006
1.40903e-06
1.20024e-09
0.00071
1.40981e-06
0.000710001
1.41178e-06
-1.72266e-09
0.000708934
1.86849e-06
-9.74412e-10
0.00070893
1.86633e-06
8.1475e-10
0.000708936
1.86607e-06
1.61769e-09
0.00070893
1.86764e-06
0.000708933
1.87018e-06
-1.93118e-09
0.000707586
2.35577e-06
-9.94095e-10
0.000707581
2.3532e-06
8.48821e-10
0.000707586
2.35284e-06
1.86451e-09
0.000707581
2.35426e-06
0.000707586
2.35657e-06
-2.06938e-09
0.000705936
2.88465e-06
-9.2215e-10
0.000705929
2.88236e-06
8.70735e-10
0.000705933
2.88149e-06
2.01425e-09
0.000705929
2.88216e-06
0.000705936
2.88446e-06
-2.13374e-09
0.000703956
3.4612e-06
-7.64577e-10
0.000703947
3.45898e-06
7.9588e-10
0.000703949
3.45833e-06
2.07189e-09
0.000703946
3.45879e-06
0.000703955
3.46107e-06
-2.04412e-09
0.00070161
4.09533e-06
-7.26046e-10
0.0007016
4.0933e-06
6.82129e-10
0.000701601
4.09305e-06
2.02195e-09
0.000701599
4.09377e-06
0.000701609
4.09588e-06
-1.97175e-09
0.000698863
4.79476e-06
-6.01008e-10
0.000698851
4.79304e-06
5.26571e-10
0.000698853
4.79297e-06
1.935e-09
0.000698851
4.79315e-06
0.000698863
4.79482e-06
-1.97937e-09
0.000695674
5.5665e-06
-4.9908e-10
0.000695661
5.56424e-06
4.0256e-10
0.000695662
5.56368e-06
1.90834e-09
0.000695661
5.5633e-06
0.000695673
5.56501e-06
-2.04329e-09
0.000691996
6.4163e-06
-5.18848e-10
0.000691983
6.41366e-06
3.55971e-10
0.000691983
6.41308e-06
1.96005e-09
0.000691982
6.41349e-06
0.000691995
6.41613e-06
-2.21258e-09
0.000687783
7.34738e-06
-5.30021e-10
0.000687769
7.34483e-06
3.56629e-10
0.000687769
7.34499e-06
2.10341e-09
0.000687768
7.34604e-06
0.000687783
7.34914e-06
-2.49236e-09
0.000682982
8.37296e-06
-5.61142e-10
0.000682967
8.36988e-06
3.63696e-10
0.000682967
8.36968e-06
2.36221e-09
0.000682967
8.36999e-06
0.000682982
8.37295e-06
-2.83341e-09
0.000677542
9.48429e-06
-6.06696e-10
0.000677526
9.48017e-06
4.00458e-10
0.000677526
9.47903e-06
2.69263e-09
0.000677525
9.47895e-06
0.000677541
9.48249e-06
-3.13492e-09
0.000671408
1.069e-05
-6.1315e-10
0.000671391
1.06853e-05
4.87886e-10
0.00067139
1.06844e-05
3.00529e-09
0.000671389
1.06851e-05
0.000671406
1.06899e-05
-3.35749e-09
0.000664523
1.19923e-05
-6.01439e-10
0.000664505
1.19873e-05
5.69288e-10
0.000664505
1.19869e-05
3.26882e-09
0.000664504
1.19881e-05
0.000664521
1.19935e-05
-3.57082e-09
0.000656836
1.33864e-05
-6.12938e-10
0.000656818
1.33808e-05
6.07976e-10
0.000656818
1.33799e-05
3.51758e-09
0.000656818
1.33809e-05
0.000656835
1.33865e-05
-3.78755e-09
0.000648292
1.48729e-05
-6.29555e-10
0.000648274
1.48663e-05
6.37304e-10
0.000648274
1.4865e-05
3.74788e-09
0.000648273
1.48659e-05
0.000648291
1.48721e-05
-3.94548e-09
0.000638843
1.64383e-05
-6.37176e-10
0.000638824
1.64314e-05
6.61748e-10
0.000638824
1.64302e-05
3.91584e-09
0.000638823
1.64317e-05
0.000638841
1.64386e-05
-4.06874e-09
0.000628441
1.80856e-05
-6.65483e-10
0.000628422
1.80788e-05
6.51745e-10
0.000628422
1.80778e-05
4.04314e-09
0.000628421
1.80795e-05
0.000628439
1.80868e-05
-4.24329e-09
0.000617045
1.98027e-05
-7.22014e-10
0.000617027
1.97954e-05
6.21886e-10
0.000617028
1.97942e-05
4.20006e-09
0.000617026
1.97955e-05
0.000617044
1.98029e-05
-4.47466e-09
0.000604623
2.15745e-05
-7.59676e-10
0.000604606
2.15666e-05
6.24561e-10
0.000604607
2.15647e-05
4.41001e-09
0.000604605
2.15658e-05
0.000604622
2.15734e-05
-4.67279e-09
0.000591148
2.33874e-05
-7.44191e-10
0.000591131
2.33791e-05
6.66313e-10
0.000591132
2.3377e-05
4.61684e-09
0.00059113
2.33783e-05
0.000591146
2.33862e-05
-4.76396e-09
0.000576602
2.52269e-05
-6.87108e-10
0.000576586
2.52187e-05
7.17227e-10
0.000576587
2.52169e-05
4.75407e-09
0.000576585
2.52187e-05
0.0005766
2.52269e-05
-4.75935e-09
0.00056098
2.70755e-05
-6.33698e-10
0.000560964
2.70678e-05
7.36424e-10
0.000560966
2.70664e-05
4.79837e-09
0.000560963
2.70684e-05
0.000560978
2.70764e-05
-4.70938e-09
0.000544284
2.89157e-05
-5.84796e-10
0.00054427
2.89085e-05
6.83299e-10
0.000544272
2.89071e-05
4.76397e-09
0.000544269
2.89089e-05
0.000544282
2.89165e-05
-4.64738e-09
0.00052653
3.07263e-05
-5.58376e-10
0.000526518
3.07194e-05
6.07955e-10
0.00052652
3.07177e-05
4.69277e-09
0.000526517
3.07192e-05
0.000526529
3.07262e-05
-4.57941e-09
0.000507748
3.24837e-05
-5.40997e-10
0.000507736
3.24773e-05
4.85897e-10
0.000507739
3.24754e-05
4.59793e-09
0.000507735
3.24767e-05
0.000507746
3.2483e-05
-4.50039e-09
0.000487974
3.41722e-05
-5.16263e-10
0.000487964
3.41664e-05
3.73964e-10
0.000487967
3.41645e-05
4.4953e-09
0.000487963
3.41657e-05
0.000487972
3.41714e-05
-4.40866e-09
0.00046726
3.57707e-05
-4.77545e-10
0.000467252
3.57658e-05
2.82918e-10
0.000467255
3.57642e-05
4.39147e-09
0.00046725
3.57655e-05
0.000467258
3.57705e-05
-4.30531e-09
0.000445668
3.72623e-05
-4.19025e-10
0.000445661
3.72584e-05
2.14647e-10
0.000445664
3.7257e-05
4.28689e-09
0.00044566
3.72583e-05
0.000445667
3.72625e-05
-4.18799e-09
0.000423269
3.86324e-05
-3.37207e-10
0.000423262
3.86295e-05
1.62363e-10
0.000423266
3.86283e-05
4.17563e-09
0.000423261
3.86294e-05
0.000423267
3.86327e-05
-4.05229e-09
0.00040014
3.98651e-05
-2.37773e-10
0.000400135
3.9863e-05
1.13617e-10
0.000400139
3.98618e-05
4.04878e-09
0.000400134
3.98627e-05
0.000400139
3.98652e-05
-3.90044e-09
0.000376369
4.09509e-05
-1.35523e-10
0.000376365
4.09494e-05
5.57309e-11
0.000376368
4.09483e-05
3.9023e-09
0.000376364
4.09489e-05
0.000376367
4.09506e-05
-3.74114e-09
0.000352042
4.18826e-05
-4.69165e-11
0.000352039
4.18816e-05
-1.66626e-11
0.000352043
4.18804e-05
3.74085e-09
0.000352038
4.18809e-05
0.000352041
4.1882e-05
-3.57857e-09
0.000327254
4.26537e-05
1.97565e-11
0.000327252
4.2653e-05
-9.69914e-11
0.000327256
4.26519e-05
3.56977e-09
0.000327251
4.26522e-05
0.000327252
4.2653e-05
-3.39772e-09
0.000302095
4.32663e-05
6.73388e-11
0.000302095
4.32657e-05
-1.73519e-10
0.000302099
4.32647e-05
3.38163e-09
0.000302095
4.32649e-05
0.000302093
4.32656e-05
-3.18398e-09
4.3719e-05
0.000276662
9.67216e-11
4.3718e-05
0.000276665
-2.42001e-10
4.37171e-05
0.000276669
3.16085e-09
4.37173e-05
0.000276665
4.37184e-05
0.000276661
-5.51559e-10
0.000736658
3.40014e-07
-1.78734e-10
0.000736663
3.37172e-07
8.9286e-11
0.000736677
3.35604e-07
5.51348e-10
0.000736665
3.37636e-07
0.000736659
3.42324e-07
-7.43291e-10
0.000736336
8.59652e-07
-5.47372e-10
0.000736339
8.557e-07
4.67985e-10
0.00073635
8.54057e-07
7.26112e-10
0.000736339
8.55953e-07
0.000736337
8.60075e-07
-5.81267e-10
0.000735789
1.51619e-06
-6.87716e-10
0.00073579
1.51359e-06
6.11147e-10
0.000735799
1.51196e-06
5.1929e-10
0.000735789
1.51262e-06
0.000735788
1.51504e-06
-1.06081e-09
0.000734999
2.20289e-06
-8.97538e-10
0.000735
2.20008e-06
7.0481e-10
0.000735007
2.19956e-06
9.9631e-10
0.000734999
2.20025e-06
0.000734998
2.20223e-06
-1.42754e-09
0.000733952
2.91749e-06
-1.00337e-09
0.00073395
2.91539e-06
7.79219e-10
0.000733956
2.91503e-06
1.36059e-09
0.000733949
2.91621e-06
0.000733951
2.91884e-06
-1.6062e-09
0.000732628
3.68082e-06
-9.41799e-10
0.000732625
3.67812e-06
8.52663e-10
0.000732629
3.67763e-06
1.52206e-09
0.000732625
3.67848e-06
0.000732628
3.68114e-06
-1.65944e-09
0.000731007
4.50793e-06
-8.62622e-10
0.000731001
4.50474e-06
8.92899e-10
0.000731005
4.50422e-06
1.61011e-09
0.000731001
4.50479e-06
0.000731007
4.50742e-06
-1.63551e-09
0.000729059
5.41035e-06
-8.30159e-10
0.000729052
5.40797e-06
8.26638e-10
0.000729054
5.40756e-06
1.6202e-09
0.000729051
5.40799e-06
0.000729059
5.41074e-06
-1.55542e-09
0.000726751
6.40552e-06
-7.97755e-10
0.000726742
6.40266e-06
7.24438e-10
0.000726743
6.40246e-06
1.52269e-09
0.000726741
6.40292e-06
0.00072675
6.40564e-06
-1.45173e-09
0.000724045
7.50244e-06
-7.20642e-10
0.000724034
7.49941e-06
6.45162e-10
0.000724036
7.49915e-06
1.39233e-09
0.000724034
7.49928e-06
0.000724045
7.50183e-06
-1.38079e-09
0.0007209
8.7122e-06
-7.0622e-10
0.000720889
8.70926e-06
5.35183e-10
0.000720889
8.70878e-06
1.3133e-09
0.000720888
8.70879e-06
0.000720899
8.71169e-06
-1.39052e-09
0.00071727
1.00482e-05
-7.44262e-10
0.000717257
1.00446e-05
4.47747e-10
0.000717257
1.00443e-05
1.29124e-09
0.000717256
1.00448e-05
0.000717268
1.00485e-05
-1.46133e-09
0.000713105
1.15134e-05
-7.21398e-10
0.000713092
1.15093e-05
4.21381e-10
0.000713092
1.15091e-05
1.32879e-09
0.000713091
1.15097e-05
0.000713105
1.1514e-05
-1.57601e-09
0.000708353
1.31265e-05
-7.02337e-10
0.000708339
1.31217e-05
3.60774e-10
0.000708339
1.31212e-05
1.44023e-09
0.000708339
1.31214e-05
0.000708353
1.31262e-05
-1.7269e-09
0.000702961
1.48782e-05
-7.01297e-10
0.000702946
1.48723e-05
3.83067e-10
0.000702945
1.48715e-05
1.5915e-09
0.000702945
1.48718e-05
0.000702959
1.48776e-05
-1.83902e-09
0.000696869
1.67836e-05
-6.44136e-10
0.000696853
1.67767e-05
5.00538e-10
0.000696853
1.67761e-05
1.71833e-09
0.000696852
1.67768e-05
0.000696867
1.67838e-05
-1.89369e-09
0.00069002
1.88428e-05
-6.14552e-10
0.000690004
1.88351e-05
6.13624e-10
0.000690004
1.88345e-05
1.81124e-09
0.000690003
1.88354e-05
0.000690019
1.88432e-05
-1.96269e-09
0.000682359
2.10497e-05
-6.18191e-10
0.000682343
2.10409e-05
5.78664e-10
0.000682343
2.10399e-05
1.90233e-09
0.000682342
2.10408e-05
0.000682358
2.10494e-05
-2.03576e-09
0.000673825
2.34089e-05
-5.96761e-10
0.000673809
2.33993e-05
5.82905e-10
0.000673808
2.3398e-05
1.97846e-09
0.000673808
2.33991e-05
0.000673824
2.34085e-05
-2.03818e-09
0.000664365
2.59005e-05
-5.98307e-10
0.000664348
2.58903e-05
6.13554e-10
0.000664348
2.58891e-05
1.98953e-09
0.000664347
2.58906e-05
0.000664363
2.59009e-05
-1.99427e-09
0.000653926
2.85271e-05
-7.07052e-10
0.000653909
2.85164e-05
5.77166e-10
0.00065391
2.85151e-05
1.94961e-09
0.000653909
2.85169e-05
0.000653924
2.85278e-05
-1.97776e-09
0.000642461
3.12696e-05
-8.18644e-10
0.000642445
3.12584e-05
5.06153e-10
0.000642446
3.12567e-05
1.9181e-09
0.000642444
3.12584e-05
0.000642459
3.12698e-05
-1.97731e-09
0.000629929
3.41078e-05
-8.07942e-10
0.000629915
3.40959e-05
4.94798e-10
0.000629915
3.40938e-05
1.9084e-09
0.000629913
3.40955e-05
0.000629927
3.41071e-05
-1.90854e-09
0.000616297
3.70212e-05
-6.4363e-10
0.000616283
3.7009e-05
5.6279e-10
0.000616284
3.70066e-05
1.86885e-09
0.000616282
3.70085e-05
0.000616295
3.70205e-05
-1.73159e-09
0.00060154
3.99859e-05
-4.81304e-10
0.000601527
3.99738e-05
6.95598e-10
0.000601529
3.99716e-05
1.74979e-09
0.000601525
3.99738e-05
0.000601538
3.99859e-05
-1.48562e-09
0.000585644
4.2973e-05
-4.18934e-10
0.000585632
4.29614e-05
6.936e-10
0.000585635
4.29592e-05
1.54961e-09
0.000585631
4.29617e-05
0.000585642
4.29735e-05
-1.22879e-09
0.000568607
4.59544e-05
-4.58962e-10
0.000568596
4.59435e-05
6.00468e-10
0.000568599
4.59412e-05
1.30221e-09
0.000568596
4.59437e-05
0.000568605
4.59548e-05
-9.79196e-10
0.000550437
4.8897e-05
-4.55155e-10
0.000550428
4.88869e-05
4.77646e-10
0.000550432
4.88844e-05
1.03687e-09
0.000550427
4.88868e-05
0.000550435
4.8897e-05
-7.20486e-10
0.000531158
5.17633e-05
-4.18774e-10
0.000531151
5.17542e-05
3.80474e-10
0.000531155
5.17517e-05
7.61896e-10
0.00053115
5.17539e-05
0.000531156
5.1763e-05
-4.32525e-10
0.000510804
5.45263e-05
-3.42512e-10
0.000510799
5.45184e-05
3.14657e-10
0.000510803
5.45159e-05
4.74505e-10
0.000510797
5.4518e-05
0.000510802
5.45258e-05
-1.12168e-10
0.000489425
5.71501e-05
-2.23881e-10
0.000489421
5.71438e-05
2.58756e-10
0.000489425
5.71414e-05
1.71901e-10
0.00048942
5.71434e-05
0.000489423
5.71499e-05
2.24807e-10
0.000467082
5.96051e-05
-6.39677e-11
0.00046708
5.96004e-05
1.88099e-10
0.000467084
5.95982e-05
-1.4367e-10
0.000467078
5.96001e-05
0.00046708
5.96051e-05
5.59571e-10
0.000443848
6.18663e-05
5.06114e-11
0.000443846
6.18632e-05
9.24048e-11
0.000443851
6.18612e-05
-4.61661e-10
0.000443845
6.18629e-05
0.000443846
6.18664e-05
8.78605e-10
0.000419805
6.39069e-05
1.58837e-10
0.000419805
6.39051e-05
1.73725e-11
0.000419809
6.39033e-05
-7.72028e-10
0.000419804
6.39048e-05
0.000419803
6.39069e-05
1.17014e-09
0.000395045
6.571e-05
2.27308e-10
0.000395046
6.57095e-05
-6.44821e-11
0.00039505
6.57078e-05
-1.06573e-09
0.000395045
6.57091e-05
0.000395043
6.57098e-05
1.43053e-09
0.000369663
6.72625e-05
2.9314e-10
0.000369666
6.7263e-05
-1.40663e-10
0.00036967
6.72614e-05
-1.33171e-09
0.000369664
6.72625e-05
0.000369662
6.72621e-05
1.66638e-09
0.000343764
6.85517e-05
3.55489e-10
0.000343767
6.85531e-05
-1.97609e-10
0.000343771
6.85515e-05
-1.57056e-09
0.000343765
6.85525e-05
0.000343762
6.85513e-05
1.89465e-09
0.000317449
6.95787e-05
4.24535e-10
0.000317453
6.95807e-05
-2.20252e-10
0.000317457
6.95792e-05
-1.79278e-09
0.000317452
6.95801e-05
0.000317447
6.95783e-05
2.09824e-09
7.0341e-05
0.000290825
4.98719e-10
7.03434e-05
0.000290829
-2.35749e-10
7.03419e-05
0.000290833
-1.98399e-09
7.03427e-05
0.000290828
7.03406e-05
0.000290823
-5.66863e-10
0.000739497
4.6935e-07
-1.63375e-10
0.000739503
4.66763e-07
9.34845e-11
0.000739516
4.65151e-07
5.44371e-10
0.000739503
4.66261e-07
0.000739497
4.68852e-07
-7.43332e-10
0.000739199
1.15834e-06
-5.52054e-10
0.000739202
1.15589e-06
4.72958e-10
0.000739214
1.15541e-06
7.05445e-10
0.000739203
1.15642e-06
0.000739199
1.15854e-06
-5.45114e-10
0.000738691
2.0244e-06
-7.09441e-10
0.000738693
2.02271e-06
6.07884e-10
0.000738702
2.02197e-06
5.06997e-10
0.000738693
2.02255e-06
0.00073869
2.02451e-06
-1.05435e-09
0.00073796
2.93505e-06
-8.85034e-10
0.00073796
2.93303e-06
7.22015e-10
0.000737968
2.93237e-06
9.86803e-10
0.00073796
2.93289e-06
0.000737958
2.93489e-06
-1.38489e-09
0.000736989
3.88999e-06
-9.50877e-10
0.000736988
3.88702e-06
8.02992e-10
0.000736995
3.88667e-06
1.31004e-09
0.000736988
3.88746e-06
0.000736989
3.88986e-06
-1.48748e-09
0.000735764
4.90771e-06
-8.94126e-10
0.000735761
4.90487e-06
8.67092e-10
0.000735766
4.9045e-06
1.43446e-09
0.000735761
4.90498e-06
0.000735764
4.90764e-06
-1.52994e-09
0.000734262
6.01137e-06
-8.49055e-10
0.000734257
6.00844e-06
8.94707e-10
0.00073426
6.00813e-06
1.50971e-09
0.000734257
6.00856e-06
0.000734261
6.01153e-06
-1.54469e-09
0.000732454
7.21931e-06
-8.48711e-10
0.000732448
7.21601e-06
8.08329e-10
0.000732451
7.21581e-06
1.53007e-09
0.000732448
7.21625e-06
0.000732454
7.2194e-06
-1.52104e-09
0.000730311
8.55076e-06
-8.28288e-10
0.000730302
8.54737e-06
7.06218e-10
0.000730304
8.54718e-06
1.47286e-09
0.000730302
8.54744e-06
0.00073031
8.55062e-06
-1.47293e-09
0.000727795
1.00197e-05
-7.69348e-10
0.000727785
1.00162e-05
6.59008e-10
0.000727786
1.00158e-05
1.4061e-09
0.000727785
1.0016e-05
0.000727794
1.00194e-05
-1.46603e-09
0.000724866
1.16426e-05
-7.69381e-10
0.000724855
1.16386e-05
5.65898e-10
0.000724855
1.16382e-05
1.38907e-09
0.000724854
1.16386e-05
0.000724865
1.16426e-05
-1.5223e-09
0.000721479
1.34369e-05
-8.02459e-10
0.000721466
1.34322e-05
4.80714e-10
0.000721466
1.3432e-05
1.40709e-09
0.000721466
1.34325e-05
0.000721477
1.34373e-05
-1.58203e-09
0.000717586
1.54073e-05
-7.68661e-10
0.000717573
1.54019e-05
5.12494e-10
0.000717573
1.54015e-05
1.44672e-09
0.000717572
1.54018e-05
0.000717585
1.54073e-05
-1.64504e-09
0.000713134
1.75799e-05
-7.38877e-10
0.00071312
1.75733e-05
5.49602e-10
0.00071312
1.75725e-05
1.52237e-09
0.00071312
1.75729e-05
0.000713134
1.75793e-05
-1.74647e-09
0.000708071
1.99437e-05
-7.54922e-10
0.000708056
1.99359e-05
5.4352e-10
0.000708055
1.99351e-05
1.62691e-09
0.000708055
1.99359e-05
0.000708069
1.99437e-05
-1.83923e-09
0.000702336
2.25205e-05
-7.66072e-10
0.00070232
2.25115e-05
6.08572e-10
0.000702319
2.25108e-05
1.7259e-09
0.000702319
2.25118e-05
0.000702334
2.25208e-05
-1.90562e-09
0.00069587
2.53107e-05
-7.78477e-10
0.000695853
2.53005e-05
6.86219e-10
0.000695853
2.52994e-05
1.81453e-09
0.000695853
2.53004e-05
0.000695869
2.53106e-05
-2.00873e-09
0.000688614
2.83075e-05
-8.09674e-10
0.000688597
2.8296e-05
7.01737e-10
0.000688596
2.82946e-05
1.92723e-09
0.000688596
2.82958e-05
0.000688613
2.83071e-05
-2.13656e-09
0.000680504
3.15205e-05
-8.25597e-10
0.000680487
3.1508e-05
7.11138e-10
0.000680486
3.15064e-05
2.05243e-09
0.000680486
3.15081e-05
0.000680503
3.15207e-05
-2.2059e-09
0.000671483
3.49245e-05
-8.47237e-10
0.000671465
3.4911e-05
7.57887e-10
0.000671465
3.49094e-05
2.13029e-09
0.000671464
3.49114e-05
0.000671481
3.49251e-05
-2.21272e-09
0.000661489
3.8523e-05
-9.05614e-10
0.000661472
3.85086e-05
7.71299e-10
0.000661471
3.85066e-05
2.14898e-09
0.000661471
3.85089e-05
0.000661487
3.85234e-05
-2.20877e-09
0.000650469
4.22917e-05
-9.48819e-10
0.000650452
4.22765e-05
7.44687e-10
0.000650452
4.2274e-05
2.14663e-09
0.000650451
4.22764e-05
0.000650468
4.22916e-05
-2.18888e-09
0.000638374
4.62053e-05
-9.17046e-10
0.000638358
4.61893e-05
7.59047e-10
0.000638358
4.61865e-05
2.13554e-09
0.000638356
4.6189e-05
0.000638372
4.62049e-05
-2.09704e-09
0.000625159
5.02379e-05
-8.0786e-10
0.000625144
5.02215e-05
8.2927e-10
0.000625145
5.02185e-05
2.08065e-09
0.000625142
5.02214e-05
0.000625157
5.02376e-05
-1.91896e-09
0.00061079
5.43573e-05
-7.01972e-10
0.000610775
5.4341e-05
8.67592e-10
0.000610777
5.43378e-05
1.95428e-09
0.000610774
5.43411e-05
0.000610787
5.43573e-05
-1.70332e-09
0.000595241
5.85235e-05
-6.62397e-10
0.000595228
5.85077e-05
8.29604e-10
0.00059523
5.85044e-05
1.77193e-09
0.000595226
5.85079e-05
0.000595239
5.85238e-05
-1.49952e-09
0.000578499
6.26981e-05
-6.56085e-10
0.000578487
6.2683e-05
7.39098e-10
0.00057849
6.26796e-05
1.57043e-09
0.000578486
6.26831e-05
0.000578497
6.26983e-05
-1.30716e-09
0.000560562
6.6835e-05
-6.29222e-10
0.000560553
6.6821e-05
6.54336e-10
0.000560556
6.68175e-05
1.36862e-09
0.000560551
6.6821e-05
0.00056056
6.6835e-05
-1.08955e-09
0.000541445
7.08816e-05
-5.46304e-10
0.000541437
7.08692e-05
6.11862e-10
0.000541441
7.08656e-05
1.15735e-09
0.000541436
7.0869e-05
0.000541443
7.08815e-05
-8.1638e-10
0.000521173
7.47984e-05
-4.0985e-10
0.000521168
7.47877e-05
6.03902e-10
0.000521171
7.47842e-05
9.16827e-10
0.000521166
7.47875e-05
0.000521171
7.47983e-05
-4.89286e-10
0.000499791
7.8533e-05
-2.40405e-10
0.000499787
7.85244e-05
5.95966e-10
0.000499791
7.85211e-05
6.36982e-10
0.000499785
7.85242e-05
0.000499789
7.85329e-05
-1.39301e-10
0.000477355
8.20408e-05
-5.06324e-11
0.000477353
8.20343e-05
5.54018e-10
0.000477357
8.20313e-05
3.2605e-10
0.000477351
8.20342e-05
0.000477353
8.20408e-05
1.96662e-10
0.000453938
8.52836e-05
6.06307e-11
0.000453937
8.52794e-05
4.6471e-10
0.000453941
8.52766e-05
6.89075e-12
0.000453935
8.52793e-05
0.000453936
8.52837e-05
4.94306e-10
0.000429624
8.82208e-05
1.42393e-10
0.000429623
8.82187e-05
3.43711e-10
0.000429628
8.82163e-05
-2.94152e-10
0.000429622
8.82186e-05
0.000429622
8.82209e-05
7.43705e-10
0.000404507
9.08257e-05
1.96418e-10
0.000404508
9.08255e-05
2.15627e-10
0.000404512
9.08234e-05
-5.55929e-10
0.000404507
9.08254e-05
0.000404505
9.08257e-05
9.51326e-10
0.000378692
9.30766e-05
2.5855e-10
0.000378694
9.30781e-05
1.30296e-10
0.000378698
9.30762e-05
-7.66568e-10
0.000378692
9.30779e-05
0.00037869
9.30765e-05
1.13484e-09
0.00035229
9.49531e-05
3.33882e-10
0.000352292
9.4956e-05
1.06419e-10
0.000352295
9.49543e-05
-9.37151e-10
0.00035229
9.49558e-05
0.000352288
9.49529e-05
1.31643e-09
0.000325412
9.64546e-05
4.31821e-10
0.000325415
9.64584e-05
1.1523e-10
0.000325418
9.64569e-05
-1.08839e-09
0.000325413
9.64582e-05
0.00032541
9.64543e-05
1.47356e-09
9.75767e-05
0.000298175
5.54305e-10
9.75811e-05
0.000298178
1.43807e-10
9.75796e-05
0.000298181
-1.20281e-09
9.75807e-05
0.000298176
9.75763e-05
0.000298173
-5.78269e-10
0.000740374
5.80646e-07
-1.88266e-10
0.00074038
5.78818e-07
1.28265e-10
0.000740392
5.77775e-07
5.64101e-10
0.000740379
5.78507e-07
0.000740373
5.79877e-07
-7.49924e-10
0.000740111
1.42188e-06
-5.45674e-10
0.000740115
1.42073e-06
4.87999e-10
0.000740126
1.42034e-06
7.1552e-10
0.000740115
1.42079e-06
0.00074011
1.4219e-06
-5.79473e-10
0.000739659
2.47684e-06
-6.95013e-10
0.000739662
2.4751e-06
6.33029e-10
0.000739672
2.47475e-06
5.36798e-10
0.000739662
2.47518e-06
0.000739659
2.47663e-06
-1.05188e-09
0.000739008
3.5869e-06
-8.48071e-10
0.00073901
3.58486e-06
7.58244e-10
0.000739018
3.58438e-06
1.0008e-09
0.00073901
3.58466e-06
0.000739008
3.58641e-06
-1.32899e-09
0.000738146
4.75381e-06
-9.04065e-10
0.000738146
4.75134e-06
8.22163e-10
0.000738152
4.75107e-06
1.28088e-09
0.000738146
4.75142e-06
0.000738146
4.75368e-06
-1.38744e-09
0.000737055
5.99959e-06
-8.70201e-10
0.000737053
5.99667e-06
8.58793e-10
0.000737058
5.9965e-06
1.36077e-09
0.000737053
5.99689e-06
0.000737055
5.99969e-06
-1.42581e-09
0.000735716
7.35176e-06
-8.44074e-10
0.000735713
7.34851e-06
8.58125e-10
0.000735716
7.34842e-06
1.41124e-09
0.000735713
7.34876e-06
0.000735716
7.35192e-06
-1.473e-09
0.000734104
8.83314e-06
-8.5434e-10
0.000734098
8.82957e-06
7.63662e-10
0.000734101
8.82949e-06
1.44501e-09
0.000734098
8.82969e-06
0.000734104
8.83308e-06
-1.49932e-09
0.000732188
1.0468e-05
-8.50997e-10
0.000732181
1.04641e-05
6.80182e-10
0.000732183
1.04639e-05
1.44197e-09
0.000732181
1.0464e-05
0.000732188
1.04678e-05
-1.52706e-09
0.000729935
1.2274e-05
-7.93005e-10
0.000729927
1.22697e-05
6.49694e-10
0.000729928
1.22695e-05
1.44793e-09
0.000729926
1.22698e-05
0.000729935
1.22742e-05
-1.5864e-09
0.000727307
1.42726e-05
-7.85667e-10
0.000727297
1.42676e-05
5.59469e-10
0.000727297
1.42674e-05
1.4959e-09
0.000727296
1.42677e-05
0.000727306
1.42727e-05
-1.67131e-09
0.00072426
1.64853e-05
-8.12478e-10
0.000724249
1.64795e-05
5.02705e-10
0.000724249
1.64792e-05
1.55382e-09
0.000724248
1.64796e-05
0.00072426
1.64855e-05
-1.71779e-09
0.00072075
1.89197e-05
-7.52166e-10
0.000720737
1.89129e-05
5.87231e-10
0.000720736
1.89124e-05
1.59269e-09
0.000720736
1.89127e-05
0.000720749
1.89195e-05
-1.73788e-09
0.000716722
2.16096e-05
-7.08117e-10
0.000716708
2.16015e-05
6.08997e-10
0.000716707
2.16007e-05
1.63352e-09
0.000716707
2.16012e-05
0.000716721
2.16092e-05
-1.81191e-09
0.000712124
2.45434e-05
-7.55349e-10
0.000712109
2.45338e-05
5.05267e-10
0.000712108
2.4533e-05
1.70473e-09
0.000712108
2.45338e-05
0.000712123
2.45434e-05
-1.91313e-09
0.000706897
2.77491e-05
-7.91569e-10
0.000706881
2.7738e-05
5.60323e-10
0.00070688
2.77372e-05
1.79397e-09
0.00070688
2.77382e-05
0.000706896
2.77493e-05
-1.99862e-09
0.00070098
3.12297e-05
-8.00332e-10
0.000700963
3.1217e-05
6.60628e-10
0.000700962
3.12158e-05
1.88898e-09
0.000700963
3.12169e-05
0.000700979
3.12294e-05
-2.12572e-09
0.00069431
3.49797e-05
-8.35748e-10
0.000694292
3.49655e-05
6.69852e-10
0.000694291
3.4964e-05
2.02278e-09
0.000694292
3.49654e-05
0.000694309
3.49795e-05
-2.30023e-09