/*--------------------------------*- C++ -*----------------------------------*\
  =========                 |
  \\      /  F ield         | OpenFOAM: The Open Source CFD Toolbox
   \\    /   O peration     | Website:  https://openfoam.org
    \\  /    A nd           | Version:  9
     \\/     M anipulation  |
\*---------------------------------------------------------------------------*/
FoamFile
{
    format      ascii;
    class       volVectorField;
    location    "0.1";
    object      U;
}
// * * * * * * * * * * * * * * * * * * * * * * * * * * * * * * * * * * * * * //

dimensions      [0 1 -1 0 0 0 0];

internalField   nonuniform List<vector> 
4545
(
(1.02715e-05 -0.244599 -0.968062)
(8.94624e-06 -0.244592 -1.20106e-07)
(8.76103e-06 -0.244592 2.15346e-08)
(1.05938e-05 -0.244592 1.53682e-07)
(1.33939e-05 -0.244602 0.968062)
(4.07219e-05 -0.244516 -0.954306)
(3.84255e-05 -0.244513 -1.80548e-07)
(3.70422e-05 -0.244513 3.95183e-09)
(3.75067e-05 -0.244512 1.94194e-07)
(4.00123e-05 -0.244514 0.954306)
(8.27056e-05 -0.244376 -0.949035)
(8.12461e-05 -0.244376 -1.80404e-07)
(7.98587e-05 -0.244378 -1.45286e-08)
(7.93367e-05 -0.244376 1.61067e-07)
(8.03493e-05 -0.244376 0.949035)
(0.000123259 -0.244136 -0.943848)
(0.000122486 -0.244136 -2.47823e-07)
(0.000122046 -0.244138 -1.62259e-08)
(0.000121939 -0.244137 2.18969e-07)
(0.000122696 -0.244137 0.943848)
(0.000164555 -0.243802 -0.938756)
(0.000162859 -0.243802 -3.10478e-07)
(0.000163174 -0.243804 -1.22852e-08)
(0.000163731 -0.243803 2.8785e-07)
(0.00016497 -0.243803 0.938756)
(0.000209945 -0.243375 -0.933745)
(0.000208465 -0.243375 -3.47816e-07)
(0.000208494 -0.243376 -7.96324e-09)
(0.000209316 -0.243375 3.27484e-07)
(0.000211021 -0.243374 0.933745)
(0.000262516 -0.242845 -0.928821)
(0.000260975 -0.242846 -3.57318e-07)
(0.000260471 -0.242847 -5.52779e-09)
(0.000260954 -0.242845 3.39808e-07)
(0.000262977 -0.242845 0.928821)
(0.00032202 -0.242204 -0.923983)
(0.000319156 -0.242204 -3.39454e-07)
(0.000318625 -0.242205 -4.28791e-09)
(0.000319 -0.242204 3.28729e-07)
(0.00032123 -0.242204 0.923983)
(0.000386878 -0.241441 -0.919231)
(0.000384525 -0.24144 -2.98717e-07)
(0.00038405 -0.241441 2.16584e-09)
(0.000384708 -0.24144 2.92709e-07)
(0.000387339 -0.24144 0.919231)
(0.000461498 -0.240542 -0.914561)
(0.00045901 -0.240542 -2.45666e-07)
(0.000458714 -0.240543 9.18106e-10)
(0.000459408 -0.240542 2.38871e-07)
(0.000462305 -0.240542 0.914561)
(0.00054714 -0.239496 -0.909974)
(0.000543505 -0.239496 -2.10108e-07)
(0.000542886 -0.239496 -1.67427e-08)
(0.000543165 -0.239496 1.85514e-07)
(0.000546304 -0.239496 0.909974)
(0.000642129 -0.238285 -0.905475)
(0.000638092 -0.238285 -1.97312e-07)
(0.000637065 -0.238285 -2.79434e-08)
(0.000637604 -0.238284 1.53476e-07)
(0.000641598 -0.238284 0.905475)
(0.000748819 -0.236894 -0.901054)
(0.000744425 -0.236894 -1.94011e-07)
(0.00074384 -0.236894 -3.0329e-08)
(0.00074508 -0.236894 1.43684e-07)
(0.000749937 -0.236894 0.901054)
(0.000869813 -0.235306 -0.896727)
(0.00086466 -0.235307 -2.16818e-07)
(0.000864116 -0.235307 -4.60587e-08)
(0.000865117 -0.235307 1.48377e-07)
(0.000870318 -0.235307 0.896727)
(0.00100439 -0.233504 -0.892476)
(0.000998243 -0.233504 -2.61503e-07)
(0.000996934 -0.233504 -5.85596e-08)
(0.000997491 -0.233504 1.74124e-07)
(0.00100331 -0.233503 0.892476)
(0.00115252 -0.231466 -0.888313)
(0.00114544 -0.231466 -2.85751e-07)
(0.00114396 -0.231466 -4.11253e-08)
(0.00114499 -0.231466 2.16058e-07)
(0.00115199 -0.231465 0.888313)
(0.00131677 -0.229176 -0.884237)
(0.00130895 -0.229177 -2.79799e-07)
(0.00130783 -0.229177 -1.34405e-08)
(0.00130942 -0.229177 2.46846e-07)
(0.00131752 -0.229176 0.884237)
(0.00149816 -0.226616 -0.880244)
(0.00148932 -0.226618 -2.67902e-07)
(0.00148802 -0.226618 -1.03351e-09)
(0.00148954 -0.226618 2.5491e-07)
(0.00149849 -0.226616 0.880244)
(0.00169519 -0.223767 -0.876343)
(0.00168498 -0.223768 -2.52117e-07)
(0.00168315 -0.223768 4.99893e-09)
(0.00168462 -0.223767 2.4884e-07)
(0.00169462 -0.223765 0.876343)
(0.00190743 -0.220608 -0.872524)
(0.00189599 -0.22061 -2.20641e-07)
(0.00189408 -0.22061 1.17619e-08)
(0.00189594 -0.220609 2.27748e-07)
(0.00190726 -0.220607 0.872524)
(0.00213618 -0.217129 -0.868797)
(0.00212378 -0.217131 -1.85634e-07)
(0.00212202 -0.217131 3.71724e-09)
(0.00212424 -0.217131 1.8638e-07)
(0.00213684 -0.217129 0.868797)
(0.00238165 -0.213313 -0.865159)
(0.00236808 -0.213316 -1.67799e-07)
(0.00236609 -0.213317 -2.30229e-08)
(0.00236828 -0.213316 1.37659e-07)
(0.00238205 -0.213313 0.86516)
(0.0026419 -0.20915 -0.861611)
(0.00262676 -0.209152 -1.6054e-07)
(0.00262423 -0.209153 -4.42991e-08)
(0.00262631 -0.209152 1.02477e-07)
(0.00264135 -0.209149 0.861611)
(0.00291479 -0.204627 -0.858152)
(0.00289799 -0.20463 -1.35338e-07)
(0.00289512 -0.20463 -3.79849e-08)
(0.0028974 -0.204629 8.23487e-08)
(0.00291393 -0.204626 0.858152)
(0.00319922 -0.19974 -0.854785)
(0.00318102 -0.199743 -7.4309e-08)
(0.00317816 -0.199744 -9.82294e-09)
(0.00318089 -0.199743 5.64631e-08)
(0.00319899 -0.199739 0.854785)
(0.00349421 -0.194486 -0.851507)
(0.0034748 -0.19449 1.70558e-08)
(0.00347205 -0.194491 1.74789e-08)
(0.00347513 -0.19449 2.15966e-09)
(0.0034947 -0.194486 0.851507)
(0.00379772 -0.188867 -0.84832)
(0.00377702 -0.188871 1.22397e-07)
(0.00377414 -0.188872 2.60434e-08)
(0.00377734 -0.188871 -8.84383e-08)
(0.00379826 -0.188867 0.84832)
(0.00410663 -0.182887 -0.845223)
(0.00408446 -0.182891 2.29573e-07)
(0.00408124 -0.182892 1.33822e-08)
(0.00408443 -0.18289 -2.09015e-07)
(0.00410664 -0.182886 0.845223)
(0.00441769 -0.176554 -0.842213)
(0.00439398 -0.176557 3.33738e-07)
(0.00439039 -0.176559 -1.39261e-08)
(0.00439364 -0.176557 -3.46672e-07)
(0.0044172 -0.176553 0.842213)
(0.00472814 -0.16988 -0.839291)
(0.00470301 -0.169884 4.33088e-07)
(0.0046992 -0.169886 -4.76491e-08)
(0.00470265 -0.169884 -4.88225e-07)
(0.0047276 -0.16988 0.839292)
(0.00503559 -0.162884 -0.836455)
(0.00500923 -0.162888 5.2745e-07)
(0.00500535 -0.16289 -7.94541e-08)
(0.00500908 -0.162888 -6.22537e-07)
(0.00503538 -0.162883 0.836455)
(0.00533759 -0.155584 -0.833702)
(0.00531013 -0.155589 6.20035e-07)
(0.00530621 -0.155591 -1.01098e-07)
(0.00531019 -0.155589 -7.42843e-07)
(0.00533774 -0.155584 0.833702)
(0.00563133 -0.148005 -0.83103)
(0.00560283 -0.148009 7.17179e-07)
(0.00559881 -0.148011 -1.07124e-07)
(0.00560293 -0.148009 -8.49071e-07)
(0.00563161 -0.148005 0.83103)
(0.00591385 -0.140172 -0.828434)
(0.00588428 -0.140176 8.23894e-07)
(0.00588008 -0.140178 -9.87268e-08)
(0.00588426 -0.140176 -9.4752e-07)
(0.00591397 -0.140172 0.828434)
(0.00618237 -0.132113 -0.825913)
(0.00615174 -0.132117 9.38774e-07)
(0.00614731 -0.132119 -8.4516e-08)
(0.00615152 -0.132117 -1.04681e-06)
(0.00618219 -0.132113 0.825913)
(0.00643454 -0.123859 -0.823463)
(0.00640293 -0.123863 1.0532e-06)
(0.00639829 -0.123865 -7.66064e-08)
(0.00640256 -0.123863 -1.15226e-06)
(0.00643412 -0.123859 0.823463)
(0.00666852 -0.115442 -0.821077)
(0.00663606 -0.115445 1.15586e-06)
(0.00663128 -0.115447 -8.48919e-08)
(0.00663564 -0.115445 -1.26332e-06)
(0.00666802 -0.115442 0.821078)
(0.00688249 -0.106894 -0.818754)
(0.00684947 -0.106897 1.23475e-06)
(0.00684461 -0.106898 -1.1474e-07)
(0.00684908 -0.106897 -1.37283e-06)
(0.00688209 -0.106894 0.818754)
(0.00707418 -0.0982488 -0.815456)
(0.00704091 -0.0982513 1.27371e-06)
(0.00703601 -0.098253 -1.65757e-07)
(0.00704053 -0.0982517 -1.46134e-06)
(0.00707388 -0.0982494 0.815456)
(5.17471e-05 -0.338107 -0.976272)
(4.90657e-05 -0.338107 -1.20128e-07)
(4.86468e-05 -0.338113 1.30946e-09)
(5.10296e-05 -0.338107 1.23908e-07)
(5.50271e-05 -0.338106 0.976272)
(0.000149807 -0.337972 -0.960973)
(0.00014686 -0.337974 -1.93079e-07)
(0.000145164 -0.337977 2.09498e-09)
(0.000146637 -0.337974 1.95157e-07)
(0.000150522 -0.337972 0.960973)
(0.000283875 -0.337784 -0.955663)
(0.000281412 -0.337788 -2.02154e-07)
(0.000279973 -0.337792 -4.18927e-09)
(0.000280571 -0.337788 1.96064e-07)
(0.000282442 -0.337785 0.955663)
(0.000423595 -0.337466 -0.950439)
(0.000422011 -0.337467 -3.14336e-07)
(0.000421603 -0.337471 -1.72881e-08)
(0.000422353 -0.337468 2.88038e-07)
(0.000423691 -0.337465 0.950439)
(0.000570561 -0.33702 -0.945308)
(0.000569328 -0.337021 -4.10118e-07)
(0.000569174 -0.337024 -2.17606e-08)
(0.000570134 -0.337021 3.7104e-07)
(0.0005719 -0.33702 0.945308)
(0.000734189 -0.336446 -0.940261)
(0.000732319 -0.336449 -4.58705e-07)
(0.000731831 -0.336451 -1.97567e-08)
(0.000732791 -0.336448 4.27728e-07)
(0.000734544 -0.336447 0.940261)
(0.000917173 -0.335739 -0.9353)
(0.000915305 -0.335739 -4.86509e-07)
(0.000914522 -0.335741 -8.14935e-09)
(0.000914986 -0.335739 4.68896e-07)
(0.000916689 -0.335738 0.9353)
(0.00112197 -0.334878 -0.930426)
(0.00112003 -0.334878 -4.9702e-07)
(0.00111941 -0.33488 -4.15362e-10)
(0.00111976 -0.334879 4.85774e-07)
(0.00112159 -0.334879 0.930426)
(0.00135304 -0.333853 -0.925639)
(0.00135124 -0.333854 -4.86327e-07)
(0.00135081 -0.333854 -5.10181e-09)
(0.00135151 -0.333853 4.77266e-07)
(0.00135355 -0.333853 0.925639)
(0.00161587 -0.332649 -0.920934)
(0.00161386 -0.332648 -4.75748e-07)
(0.00161356 -0.332648 -8.56312e-09)
(0.00161404 -0.332648 4.60491e-07)
(0.00161599 -0.332648 0.920934)
(0.00191341 -0.331243 -0.916312)
(0.00191089 -0.331242 -4.80862e-07)
(0.00191019 -0.331243 -2.04084e-08)
(0.00191022 -0.331243 4.47256e-07)
(0.00191227 -0.331243 0.916313)
(0.00224825 -0.329616 -0.911779)
(0.00224547 -0.329616 -5.0801e-07)
(0.00224458 -0.329616 -3.68216e-08)
(0.00224518 -0.329615 4.55413e-07)
(0.00224812 -0.329615 0.911779)
(0.00262594 -0.327747 -0.907325)
(0.00262282 -0.327746 -5.55095e-07)
(0.00262254 -0.327746 -4.22889e-08)
(0.00262381 -0.327746 4.91697e-07)
(0.00262738 -0.327747 0.907325)
(0.00305089 -0.325613 -0.902965)
(0.0030472 -0.325612 -6.2917e-07)
(0.00304672 -0.325612 -5.20248e-08)
(0.00304742 -0.325613 5.51485e-07)
(0.00305102 -0.325614 0.902965)
(0.00352453 -0.323186 -0.898682)
(0.00351995 -0.323186 -7.21357e-07)
(0.00351855 -0.323186 -5.71056e-08)
(0.00351884 -0.323185 6.35933e-07)
(0.00352299 -0.323185 0.898682)
(0.00404984 -0.320442 -0.894486)
(0.00404446 -0.320441 -7.97741e-07)
(0.00404312 -0.32044 -3.49494e-08)
(0.00404413 -0.320439 7.36197e-07)
(0.00404947 -0.320439 0.894486)
(0.00463203 -0.317355 -0.890379)
(0.00462615 -0.317354 -8.54845e-07)
(0.00462529 -0.317354 -8.32864e-09)
(0.00462686 -0.317354 8.2796e-07)
(0.0046331 -0.317355 0.890379)
(0.00527303 -0.313903 -0.886355)
(0.0052663 -0.313902 -9.18367e-07)
(0.00526512 -0.313903 -5.50042e-10)
(0.00526646 -0.313903 9.06451e-07)
(0.00527325 -0.313903 0.886355)
(0.0059718 -0.310055 -0.882425)
(0.00596389 -0.310055 -9.85603e-07)
(0.00596213 -0.310054 3.68811e-09)
(0.00596345 -0.310053 9.80655e-07)
(0.00597107 -0.310053 0.882425)
(0.00672905 -0.305785 -0.878576)
(0.00672027 -0.305785 -1.04006e-06)
(0.00671859 -0.305784 9.68987e-09)
(0.00672042 -0.305784 1.04317e-06)
(0.00672916 -0.305784 0.878576)
(0.00754666 -0.301075 -0.87482)
(0.00753731 -0.301075 -1.09608e-06)
(0.00753587 -0.301075 -3.50711e-09)
(0.00753802 -0.301076 1.08678e-06)
(0.00754771 -0.301076 0.87482)
(0.00842367 -0.295905 -0.871155)
(0.00841341 -0.295906 -1.17498e-06)
(0.00841162 -0.295907 -3.49825e-08)
(0.00841354 -0.295907 1.13001e-06)
(0.00842398 -0.295907 0.871155)
(0.00935551 -0.290257 -0.867578)
(0.00934387 -0.290257 -1.26258e-06)
(0.0093414 -0.290258 -5.14213e-08)
(0.0093431 -0.290257 1.19593e-06)
(0.00935445 -0.290256 0.867578)
(0.0103372 -0.284111 -0.864093)
(0.0103242 -0.284111 -1.32479e-06)
(0.0103214 -0.284111 -3.13995e-08)
(0.0103234 -0.284109 1.27994e-06)
(0.0103359 -0.284108 0.864093)
(0.0113644 -0.277458 -0.860699)
(0.0113506 -0.277458 -1.34861e-06)
(0.0113481 -0.277459 7.14977e-09)
(0.0113505 -0.277457 1.35334e-06)
(0.0113643 -0.277456 0.860699)
(0.0124322 -0.270294 -0.857395)
(0.0124178 -0.270296 -1.34975e-06)
(0.0124155 -0.270297 3.36743e-08)
(0.0124183 -0.270296 1.39318e-06)
(0.0124331 -0.270294 0.857395)
(0.0135329 -0.262622 -0.854183)
(0.0135177 -0.262624 -1.35144e-06)
(0.0135154 -0.262625 3.50387e-08)
(0.0135182 -0.262624 1.4004e-06)
(0.0135336 -0.262622 0.854183)
(0.0146566 -0.254443 -0.851061)
(0.0146406 -0.254445 -1.35539e-06)
(0.0146379 -0.254446 1.29765e-08)
(0.0146404 -0.254445 1.38018e-06)
(0.0146565 -0.254443 0.851061)
(0.0157932 -0.245767 -0.848027)
(0.0157762 -0.245768 -1.35988e-06)
(0.0157731 -0.24577 -1.47107e-08)
(0.0157756 -0.245768 1.35008e-06)
(0.0157924 -0.245765 0.848027)
(0.0169326 -0.236608 -0.845082)
(0.0169148 -0.23661 -1.35893e-06)
(0.0169116 -0.236611 -3.87503e-08)
(0.0169142 -0.236609 1.3188e-06)
(0.0169318 -0.236606 0.845082)
(0.0180651 -0.226989 -0.842222)
(0.0180469 -0.226991 -1.35003e-06)
(0.0180438 -0.226993 -5.40601e-08)
(0.0180467 -0.226991 1.29123e-06)
(0.0180649 -0.226988 0.842222)
(0.0191809 -0.216938 -0.839446)
(0.0191624 -0.21694 -1.33137e-06)
(0.0191594 -0.216942 -5.79047e-08)
(0.0191624 -0.21694 1.26828e-06)
(0.0191812 -0.216937 0.839446)
(0.0202695 -0.206485 -0.836751)
(0.0202508 -0.206488 -1.30064e-06)
(0.0202478 -0.20649 -5.05268e-08)
(0.0202508 -0.206488 1.24656e-06)
(0.0202699 -0.206485 0.836752)
(0.0213207 -0.195668 -0.834134)
(0.0213016 -0.19567 -1.2576e-06)
(0.0212985 -0.195672 -3.65969e-08)
(0.0213014 -0.19567 1.21997e-06)
(0.0213208 -0.195667 0.834134)
(0.022325 -0.184523 -0.831591)
(0.0223055 -0.184526 -1.20663e-06)
(0.0223022 -0.184528 -2.39904e-08)
(0.022305 -0.184525 1.1832e-06)
(0.0223246 -0.184523 0.831591)
(0.0232743 -0.173094 -0.829119)
(0.0232545 -0.173096 -1.15501e-06)
(0.0232511 -0.173098 -1.94978e-08)
(0.0232538 -0.173096 1.13543e-06)
(0.0232736 -0.173093 0.829119)
(0.0241623 -0.161421 -0.826711)
(0.0241423 -0.161424 -1.10673e-06)
(0.0241389 -0.161425 -2.41598e-08)
(0.0241416 -0.161423 1.07984e-06)
(0.0241615 -0.161421 0.826711)
(0.0249838 -0.149551 -0.824366)
(0.0249638 -0.149553 -1.05631e-06)
(0.0249604 -0.149555 -3.3878e-08)
(0.0249631 -0.149553 1.01733e-06)
(0.0249831 -0.14955 0.824366)
(0.0257347 -0.13753 -0.821097)
(0.0257149 -0.137533 -9.9874e-07)
(0.0257115 -0.137534 -4.72803e-08)
(0.0257142 -0.137532 9.43976e-07)
(0.0257341 -0.13753 0.821097)
(0.000109341 -0.349975 -0.976447)
(0.000108077 -0.349979 -1.12901e-07)
(0.000107786 -0.349985 -1.15566e-08)
(0.00010872 -0.349978 1.01312e-07)
(0.000110834 -0.349974 0.976447)
(0.000287713 -0.349831 -0.960974)
(0.000286243 -0.349834 -1.79716e-07)
(0.000285309 -0.349838 -9.60546e-09)
(0.000286339 -0.349834 1.67439e-07)
(0.000288252 -0.349831 0.960975)
(0.000522056 -0.349645 -0.955663)
(0.000521533 -0.349649 -1.75061e-07)
(0.000520763 -0.349655 -8.72916e-09)
(0.000521227 -0.34965 1.56504e-07)
(0.000522054 -0.349646 0.955663)
(0.000776014 -0.349331 -0.950437)
(0.000775325 -0.349335 -2.81393e-07)
(0.000775121 -0.349339 -2.38653e-08)
(0.00077561 -0.349335 2.47093e-07)
(0.000775983 -0.349332 0.950437)
(0.00104818 -0.348895 -0.945304)
(0.00104809 -0.348897 -3.61943e-07)
(0.00104769 -0.3489 -2.88174e-08)
(0.0010483 -0.348896 3.22081e-07)
(0.00104874 -0.348894 0.945304)
(0.00134934 -0.348333 -0.940255)
(0.00134893 -0.348334 -3.93308e-07)
(0.00134856 -0.348337 -1.25548e-08)
(0.00134888 -0.348334 3.66592e-07)
(0.00134892 -0.348332 0.940255)
(0.00168529 -0.347636 -0.935292)
(0.00168497 -0.347637 -4.01343e-07)
(0.00168467 -0.347639 3.06829e-09)
(0.00168483 -0.347637 3.95943e-07)
(0.00168456 -0.347636 0.935292)
(0.00206209 -0.346791 -0.930415)
(0.00206296 -0.346791 -4.01907e-07)
(0.00206276 -0.346793 -7.27424e-10)
(0.00206293 -0.346792 3.98498e-07)
(0.00206255 -0.346792 0.930415)
(0.00248988 -0.345784 -0.925625)
(0.00249046 -0.345784 -3.92001e-07)
(0.00249046 -0.345784 -1.05272e-08)
(0.00249066 -0.345783 3.75629e-07)
(0.00248993 -0.345783 0.925625)
(0.00297426 -0.344597 -0.920916)
(0.00297514 -0.344596 -3.71249e-07)
(0.00297514 -0.344597 -1.19024e-08)
(0.00297499 -0.344596 3.48527e-07)
(0.00297367 -0.344596 0.920916)
(0.00352201 -0.343211 -0.916291)
(0.00352362 -0.343211 -3.64125e-07)
(0.00352345 -0.343212 -2.52941e-08)
(0.00352322 -0.343212 3.2629e-07)
(0.00352175 -0.343212 0.916291)
(0.00414195 -0.341607 -0.911753)
(0.0041434 -0.341606 -3.79748e-07)
(0.00414345 -0.341606 -4.37053e-08)
(0.00414368 -0.341606 3.1723e-07)
(0.00414239 -0.341606 0.911753)
(0.00484108 -0.339761 -0.907293)
(0.00484266 -0.33976 -4.01385e-07)
(0.00484296 -0.33976 -4.53903e-08)
(0.00484317 -0.339759 3.30369e-07)
(0.00484165 -0.33976 0.907293)
(0.00562602 -0.337649 -0.902928)
(0.00562786 -0.337649 -4.34529e-07)
(0.00562779 -0.337649 -4.53686e-08)
(0.00562752 -0.337649 3.6239e-07)
(0.00562559 -0.33765 0.902928)
(0.00650332 -0.335246 -0.898638)
(0.00650493 -0.335245 -4.79887e-07)
(0.00650456 -0.335245 -4.42137e-08)
(0.00650432 -0.335245 4.0844e-07)
(0.00650246 -0.335245 0.898638)
(0.00747953 -0.332523 -0.894434)
(0.00748109 -0.332523 -5.11779e-07)
(0.00748102 -0.332522 -2.69582e-08)
(0.00748119 -0.332521 4.6006e-07)
(0.00747961 -0.332521 0.894434)
(0.00856117 -0.329456 -0.890319)
(0.00856296 -0.329456 -5.30669e-07)
(0.00856305 -0.329456 -1.09541e-08)
(0.0085633 -0.329456 5.02463e-07)
(0.00856168 -0.329456 0.890319)
(0.00975201 -0.326019 -0.886286)
(0.0097538 -0.326019 -5.59549e-07)
(0.0097536 -0.326019 -9.2157e-09)
(0.00975369 -0.326019 5.3745e-07)
(0.00975185 -0.326019 0.886286)
(0.0110542 -0.32218 -0.882345)
(0.0110559 -0.32218 -5.89005e-07)
(0.0110555 -0.322179 -6.80534e-09)
(0.0110557 -0.322179 5.69724e-07)
(0.0110538 -0.322178 0.882345)
(0.0124699 -0.31791 -0.878486)
(0.0124718 -0.31791 -6.01101e-07)
(0.0124717 -0.31791 -3.10653e-09)
(0.0124721 -0.31791 5.8719e-07)
(0.0124703 -0.317909 0.878486)
(0.0140002 -0.313189 -0.874718)
(0.0140024 -0.31319 -6.08798e-07)
(0.0140024 -0.313191 -1.60311e-08)
(0.0140029 -0.313191 5.8265e-07)
(0.0140009 -0.31319 0.874718)
(0.0156429 -0.307996 -0.87104)
(0.0156452 -0.307998 -6.27661e-07)
(0.0156449 -0.307998 -3.90546e-08)
(0.0156453 -0.307998 5.74824e-07)
(0.015643 -0.307997 0.87104)
(0.0173926 -0.302305 -0.867451)
(0.0173948 -0.302307 -6.39663e-07)
(0.0173941 -0.302307 -4.12345e-08)
(0.0173943 -0.302306 5.82189e-07)
(0.0173918 -0.302304 0.867451)
(0.0192419 -0.296097 -0.863951)
(0.0192441 -0.296098 -6.16282e-07)
(0.0192433 -0.296098 -1.19672e-08)
(0.0192436 -0.296096 5.94775e-07)
(0.0192411 -0.296093 0.863951)
(0.0211822 -0.289357 -0.860543)
(0.0211848 -0.289359 -5.56094e-07)
(0.0211842 -0.289359 2.46818e-08)
(0.0211847 -0.289358 5.85241e-07)
(0.0211821 -0.289355 0.860543)
(0.0232026 -0.282079 -0.857225)
(0.0232057 -0.282082 -4.83037e-07)
(0.0232054 -0.282084 4.03468e-08)
(0.023206 -0.282082 5.39389e-07)
(0.0232031 -0.282079 0.857224)
(0.025289 -0.274262 -0.853997)
(0.0252926 -0.274265 -4.15491e-07)
(0.0252923 -0.274267 2.9987e-08)
(0.0252928 -0.274266 4.64206e-07)
(0.0252894 -0.274262 0.853997)
(0.0274246 -0.265904 -0.850861)
(0.0274288 -0.265908 -3.51433e-07)
(0.0274283 -0.26591 8.84428e-09)
(0.0274287 -0.265908 3.75284e-07)
(0.0274246 -0.265904 0.85086)
(0.0295911 -0.257011 -0.847811)
(0.0295957 -0.257015 -2.78321e-07)
(0.0295952 -0.257017 -5.07952e-09)
(0.0295954 -0.257015 2.84232e-07)
(0.0295906 -0.25701 0.847811)
(0.031769 -0.247598 -0.844851)
(0.0317743 -0.247602 -1.87248e-07)
(0.0317738 -0.247603 -4.83642e-09)
(0.0317739 -0.247601 1.93776e-07)
(0.0317684 -0.247596 0.844851)
(0.0339385 -0.237683 -0.841977)
(0.0339447 -0.237688 -7.78629e-08)
(0.0339444 -0.23769 6.86085e-09)
(0.0339443 -0.237687 1.01218e-07)
(0.0339382 -0.237681 0.841977)
(0.0360794 -0.227295 -0.839186)
(0.0360865 -0.227301 4.51963e-08)
(0.0360864 -0.227302 2.45857e-08)
(0.0360862 -0.2273 2.24274e-09)
(0.0360793 -0.227294 0.839186)
(0.0381715 -0.216466 -0.836477)
(0.0381795 -0.216472 1.75386e-07)
(0.0381795 -0.216474 4.13288e-08)
(0.0381792 -0.216471 -1.05928e-07)
(0.0381714 -0.216466 0.836477)
(0.0401953 -0.205233 -0.833847)
(0.0402042 -0.205239 3.05413e-07)
(0.0402044 -0.205241 5.30634e-08)
(0.0402039 -0.205238 -2.21117e-07)
(0.0401952 -0.205233 0.833846)
(0.0421331 -0.193637 -0.831291)
(0.0421428 -0.193642 4.28751e-07)
(0.042143 -0.193644 5.95997e-08)
(0.0421423 -0.193642 -3.37942e-07)
(0.0421327 -0.193636 0.831291)
(0.0439692 -0.181721 -0.828807)
(0.0439796 -0.181726 5.42873e-07)
(0.0439799 -0.181728 6.35898e-08)
(0.043979 -0.181726 -4.49152e-07)
(0.0439686 -0.181721 0.828807)
(0.0456904 -0.169534 -0.826389)
(0.0457015 -0.169539 6.52528e-07)
(0.0457018 -0.169541 7.23212e-08)
(0.0457008 -0.169538 -5.50407e-07)
(0.0456897 -0.169533 0.826389)
(0.0472864 -0.157125 -0.824034)
(0.047298 -0.157129 7.65979e-07)
(0.0472984 -0.157131 9.12966e-08)
(0.0472972 -0.157128 -6.42368e-07)
(0.0472857 -0.157123 0.824034)
(0.0487502 -0.144547 -0.820767)
(0.048762 -0.144551 8.77655e-07)
(0.0487623 -0.144552 1.20108e-07)
(0.048761 -0.14455 -7.20582e-07)
(0.0487492 -0.144546 0.820767)
(0.000164911 -0.351325 -0.976465)
(0.000163919 -0.351329 -1.1495e-07)
(0.000162888 -0.351335 -1.02961e-08)
(0.00016335 -0.351328 1.01225e-07)
(0.000164554 -0.351324 0.976465)
(0.000417858 -0.35119 -0.96097)
(0.000416555 -0.351194 -1.80268e-07)
(0.000416122 -0.351197 -9.58645e-09)
(0.000416692 -0.351193 1.64791e-07)
(0.00041754 -0.35119 0.96097)
(0.000746879 -0.35102 -0.955656)
(0.000746458 -0.351025 -1.72205e-07)
(0.000745826 -0.35103 -1.1679e-08)
(0.000746004 -0.351025 1.54481e-07)
(0.000746543 -0.351021 0.955656)
(0.00110576 -0.35073 -0.950426)
(0.00110527 -0.350733 -2.78787e-07)
(0.00110468 -0.350737 -2.01356e-08)
(0.00110479 -0.350733 2.47723e-07)
(0.00110506 -0.35073 0.950426)
(0.00149421 -0.350324 -0.94529)
(0.00149324 -0.350326 -3.48163e-07)
(0.00149295 -0.350329 -1.91985e-08)
(0.00149328 -0.350326 3.16617e-07)
(0.00149341 -0.350323 0.94529)
(0.00192206 -0.349803 -0.940237)
(0.00192186 -0.349806 -3.66178e-07)
(0.00192165 -0.349808 -4.06122e-09)
(0.00192183 -0.349805 3.53193e-07)
(0.00192189 -0.349803 0.940237)
(0.00240079 -0.349158 -0.935269)
(0.00240092 -0.34916 -3.75698e-07)
(0.00240078 -0.349162 5.67467e-09)
(0.00240104 -0.34916 3.77899e-07)
(0.00240114 -0.349159 0.935269)
(0.00294069 -0.348375 -0.930387)
(0.00294066 -0.348376 -3.87052e-07)
(0.00294058 -0.348378 -5.61531e-09)
(0.00294086 -0.348377 3.78876e-07)
(0.00294073 -0.348376 0.930387)
(0.00355126 -0.34744 -0.925591)
(0.00355163 -0.34744 -3.89191e-07)
(0.00355154 -0.347441 -1.74482e-08)
(0.00355159 -0.347439 3.63138e-07)
(0.00355109 -0.347439 0.925591)
(0.00424365 -0.346337 -0.920876)
(0.0042443 -0.346337 -3.81061e-07)
(0.00424407 -0.346337 -1.6734e-08)
(0.00424412 -0.346336 3.52154e-07)
(0.0042435 -0.346337 0.920876)
(0.00502866 -0.345047 -0.916243)
(0.00502921 -0.345047 -3.88911e-07)
(0.00502908 -0.345048 -3.00454e-08)
(0.00502936 -0.345049 3.44566e-07)
(0.00502882 -0.345049 0.916243)
(0.00591708 -0.343553 -0.911697)
(0.0059177 -0.343552 -4.1438e-07)
(0.00591769 -0.343552 -4.74868e-08)
(0.00591798 -0.343551 3.45059e-07)
(0.00591741 -0.343551 0.911697)
(0.00691964 -0.341829 -0.907227)
(0.00692027 -0.341828 -4.3174e-07)
(0.00692 -0.341827 -4.04561e-08)
(0.00692008 -0.341826 3.65121e-07)
(0.00691944 -0.341827 0.907227)
(0.00804659 -0.339852 -0.90285)
(0.00804687 -0.339851 -4.5049e-07)
(0.00804639 -0.339852 -3.15188e-08)
(0.00804654 -0.339852 3.94785e-07)
(0.00804616 -0.339853 0.902851)
(0.00930866 -0.337598 -0.898548)
(0.00930861 -0.337598 -4.85476e-07)
(0.00930827 -0.337598 -3.38087e-08)
(0.0093087 -0.337598 4.2762e-07)
(0.00930876 -0.337598 0.898548)
(0.0107159 -0.335039 -0.894331)
(0.0107156 -0.335038 -5.17533e-07)
(0.0107153 -0.335038 -2.7627e-08)
(0.0107158 -0.335037 4.66655e-07)
(0.0107162 -0.335037 0.894331)
(0.0122765 -0.332148 -0.8902)
(0.0122758 -0.332147 -5.43524e-07)
(0.0122753 -0.332147 -1.83511e-08)
(0.0122757 -0.332147 5.06112e-07)
(0.0122764 -0.332147 0.8902)
(0.013997 -0.328897 -0.88615)
(0.0139958 -0.328897 -5.83803e-07)
(0.013995 -0.328897 -2.01606e-08)
(0.0139957 -0.328897 5.46245e-07)
(0.0139967 -0.328897 0.88615)
(0.0158832 -0.325255 -0.882191)
(0.0158817 -0.325255 -6.31216e-07)
(0.0158809 -0.325254 -2.20519e-08)
(0.0158818 -0.325254 5.90847e-07)
(0.0158834 -0.325254 0.882191)
(0.0179394 -0.321191 -0.878311)
(0.0179376 -0.321191 -6.63445e-07)
(0.0179368 -0.321191 -1.88235e-08)
(0.0179379 -0.321191 6.2783e-07)
(0.01794 -0.32119 0.878311)
(0.0201664 -0.316681 -0.874521)
(0.020164 -0.316682 -6.83281e-07)
(0.020163 -0.316682 -2.31074e-08)
(0.0201642 -0.316682 6.45735e-07)
(0.0201667 -0.316682 0.874521)
(0.0225616 -0.3117 -0.87082)
(0.0225586 -0.311701 -7.0115e-07)
(0.0225571 -0.311701 -3.22517e-08)
(0.0225584 -0.311701 6.54541e-07)
(0.0225614 -0.3117 0.87082)
(0.0251193 -0.306219 -0.867206)
(0.0251156 -0.30622 -7.0514e-07)
(0.0251138 -0.30622 -2.52608e-08)
(0.0251152 -0.306219 6.6731e-07)
(0.0251188 -0.306217 0.867206)
(0.0278306 -0.300214 -0.863681)
(0.0278263 -0.300215 -6.77521e-07)
(0.0278245 -0.300214 2.46786e-09)
(0.0278262 -0.300213 6.76049e-07)
(0.0278303 -0.300211 0.863681)
(0.0306835 -0.293666 -0.860245)
(0.0306788 -0.293668 -6.2395e-07)
(0.030677 -0.293668 2.88535e-08)
(0.0306789 -0.293667 6.61463e-07)
(0.0306836 -0.293664 0.860245)
(0.0336617 -0.286564 -0.856899)
(0.0336567 -0.286567 -5.6754e-07)
(0.0336548 -0.286568 3.31752e-08)
(0.0336569 -0.286567 6.17874e-07)
(0.033662 -0.286564 0.856899)
(0.0367449 -0.2789 -0.853643)
(0.0367396 -0.278904 -5.20271e-07)
(0.0367376 -0.278905 1.92544e-08)
(0.0367397 -0.278904 5.57613e-07)
(0.0367451 -0.278901 0.853643)
(0.0399092 -0.270669 -0.850477)
(0.0399037 -0.270673 -4.71953e-07)
(0.0399015 -0.270674 8.0433e-09)
(0.0399037 -0.270672 4.95987e-07)
(0.0399092 -0.270668 0.850477)
(0.0431278 -0.261871 -0.847399)
(0.0431223 -0.261875 -4.03854e-07)
(0.0431199 -0.261876 1.5938e-08)
(0.043122 -0.261874 4.37788e-07)
(0.0431276 -0.261869 0.847399)
(0.0463716 -0.252515 -0.84441)
(0.0463661 -0.25252 -3.06451e-07)
(0.0463637 -0.252521 4.2879e-08)
(0.0463657 -0.252519 3.76523e-07)
(0.0463713 -0.252514 0.844409)
(0.0496099 -0.24262 -0.841507)
(0.0496046 -0.242625 -1.85115e-07)
(0.0496023 -0.242627 7.66579e-08)
(0.0496043 -0.242624 3.02558e-07)
(0.0496097 -0.242619 0.841507)
(0.0528113 -0.23221 -0.838688)
(0.0528063 -0.232216 -5.35817e-08)
(0.0528041 -0.232218 1.04424e-07)
(0.0528061 -0.232215 2.10607e-07)
(0.0528112 -0.232209 0.838688)
(0.0559444 -0.221316 -0.835953)
(0.0559398 -0.221322 7.40218e-08)
(0.0559378 -0.221324 1.19407e-07)
(0.0559396 -0.221321 1.03866e-07)
(0.0559443 -0.221315 0.835953)
(0.058979 -0.209974 -0.833296)
(0.0589749 -0.20998 1.8909e-07)
(0.0589729 -0.209982 1.23531e-07)
(0.0589746 -0.20998 -6.90333e-09)
(0.0589789 -0.209974 0.833296)
(0.061887 -0.198228 -0.830717)
(0.0618832 -0.198234 2.90931e-07)
(0.0618814 -0.198236 1.25633e-07)
(0.0618829 -0.198233 -1.09169e-07)
(0.0618867 -0.198228 0.830717)
(0.0646434 -0.186125 -0.828211)
(0.0646399 -0.18613 3.85205e-07)
(0.0646381 -0.186132 1.35114e-07)
(0.0646395 -0.186129 -1.9376e-07)
(0.064643 -0.186124 0.828211)
(0.0672266 -0.173714 -0.825772)
(0.0672234 -0.173718 4.80818e-07)
(0.0672216 -0.17372 1.61178e-07)
(0.0672229 -0.173717 -2.58161e-07)
(0.0672261 -0.173712 0.825772)
(0.069619 -0.16105 -0.823399)
(0.069616 -0.161054 5.86243e-07)
(0.0696142 -0.161056 2.0542e-07)
(0.0696154 -0.161053 -3.08488e-07)
(0.0696184 -0.161049 0.823398)
(0.0718074 -0.148192 -0.820123)
(0.0718044 -0.148195 6.93035e-07)
(0.0718026 -0.148196 2.63045e-07)
(0.0718036 -0.148194 -3.42385e-07)
(0.0718066 -0.148191 0.820122)
(0.000213275 -0.351726 -0.97647)
(0.00021249 -0.35173 -1.17118e-07)
(0.000211869 -0.351736 -5.85403e-09)
(0.000212291 -0.35173 1.09104e-07)
(0.000212903 -0.351726 0.97647)
(0.000533545 -0.351607 -0.960964)
(0.000533273 -0.35161 -1.80558e-07)
(0.000533057 -0.351613 -7.00023e-09)
(0.000533321 -0.35161 1.68209e-07)
(0.000533637 -0.351606 0.960964)
(0.000949466 -0.351459 -0.955646)
(0.000948899 -0.351464 -1.75812e-07)
(0.000948691 -0.351469 -7.03741e-09)
(0.000948919 -0.351464 1.62007e-07)
(0.000949055 -0.351459 0.955646)
(0.00140286 -0.3512 -0.950412)
(0.00140264 -0.351203 -2.73809e-07)
(0.00140245 -0.351207 -1.10964e-08)
(0.00140258 -0.351203 2.54449e-07)
(0.00140255 -0.3512 0.950412)
(0.00189558 -0.350839 -0.945271)
(0.00189568 -0.350841 -3.32767e-07)
(0.00189565 -0.350844 -1.06337e-08)
(0.00189585 -0.350841 3.14195e-07)
(0.00189587 -0.350838 0.945271)
(0.00244047 -0.350376 -0.940212)
(0.00244053 -0.350378 -3.45566e-07)
(0.00244049 -0.350381 -1.73102e-09)
(0.00244077 -0.350378 3.39347e-07)
(0.00244082 -0.350375 0.940212)
(0.00304996 -0.349802 -0.935238)
(0.00305009 -0.349803 -3.56392e-07)
(0.00305007 -0.349805 1.62408e-09)
(0.00305027 -0.349803 3.55515e-07)
(0.00305013 -0.349802 0.935238)
(0.0037371 -0.349103 -0.930348)
(0.00373742 -0.349104 -3.74692e-07)
(0.00373735 -0.349106 -1.25584e-08)
(0.0037374 -0.349104 3.57233e-07)
(0.00373701 -0.349104 0.930348)
(0.00451558 -0.348268 -0.925544)
(0.00451601 -0.348269 -3.88008e-07)
(0.00451583 -0.348269 -2.42253e-08)
(0.0045159 -0.348268 3.53543e-07)
(0.00451541 -0.348267 0.925544)
(0.00539926 -0.347282 -0.920819)
(0.00539978 -0.347282 -3.94967e-07)
(0.00539968 -0.347282 -2.1573e-08)
(0.00539988 -0.347281 3.5898e-07)
(0.00539933 -0.347281 0.92082)
(0.00640211 -0.346126 -0.916176)
(0.00640277 -0.346126 -4.16163e-07)
(0.00640268 -0.346127 -3.31743e-08)
(0.00640282 -0.346127 3.66171e-07)
(0.00640215 -0.346128 0.916176)
(0.00753847 -0.344783 -0.911617)
(0.00753917 -0.344783 -4.47125e-07)
(0.00753892 -0.344782 -4.47437e-08)
(0.00753899 -0.344782 3.80116e-07)
(0.00753829 -0.344781 0.911617)
(0.00882268 -0.34323 -0.907133)
(0.00882316 -0.343229 -4.58622e-07)
(0.00882279 -0.343228 -2.80045e-08)
(0.00882293 -0.343227 4.06429e-07)
(0.00882239 -0.343228 0.907133)
(0.010269 -0.341444 -0.90274)
(0.0102691 -0.341443 -4.67202e-07)
(0.0102688 -0.341444 -1.89945e-08)
(0.0102692 -0.341445 4.27634e-07)
(0.010269 -0.341446 0.90274)
(0.011892 -0.339403 -0.89842)
(0.011892 -0.339402 -5.00792e-07)
(0.0118917 -0.339402 -3.30023e-08)
(0.0118923 -0.339402 4.46232e-07)
(0.0118925 -0.339403 0.89842)
(0.0137053 -0.337075 -0.894182)
(0.0137048 -0.337074 -5.38935e-07)
(0.0137044 -0.337073 -3.52565e-08)
(0.013705 -0.337072 4.79231e-07)
(0.0137055 -0.337073 0.894182)
(0.0157205 -0.334434 -0.890029)
(0.0157194 -0.334433 -5.70139e-07)
(0.0157187 -0.334432 -2.62282e-08)
(0.0157192 -0.334432 5.20969e-07)
(0.0157202 -0.334433 0.890029)
(0.0179476 -0.331453 -0.885954)