/*--------------------------------*- C++ -*----------------------------------*\
  =========                 |
  \\      /  F ield         | OpenFOAM: The Open Source CFD Toolbox
   \\    /   O peration     | Website:  https://openfoam.org
    \\  /    A nd           | Version:  9
     \\/     M anipulation  |
\*---------------------------------------------------------------------------*/
FoamFile
{
    format      ascii;
    class       volScalarField;
    location    "1.3";
    object      nut;
}
// * * * * * * * * * * * * * * * * * * * * * * * * * * * * * * * * * * * * * //

dimensions      [0 2 -1 0 0 0 0];

internalField   nonuniform List<scalar> 
36360
(
0.0014996
0.00156116
0.000272329
0.000354948
0.00032117
0.000322243
0.000193028
0.000185397
0.000468497
0.000180255
0.000168921
0.000162233
0.000185372
0.000161682
0.000171803
0.000174798
0.00015858
0.00015858
0.000167657
0.000167657
0.000163917
0.000163916
0.00017418
0.00017418
0.000180255
0.000468492
0.000162233
0.000168921
0.000161682
0.000185371
0.000174798
0.000171803
0.00156114
0.00149955
0.000354946
0.000272325
0.00032224
0.000321164
0.000185397
0.000193027
0.00558149
0.00488485
0.00394624
0.00342167
0.000980946
0.000877469
0.000647808
0.000615501
0.00314947
0.00162439
0.00172878
0.000518626
0.000550007
0.000268069
0.000316443
0.000173734
0.000518544
0.000518583
0.000184278
0.000184281
0.000160112
0.000160112
0.000152735
0.000152735
0.00162449
0.00314957
0.000518646
0.0017288
0.000268073
0.000550014
0.000173733
0.000316444
0.00488494
0.00558152
0.00342169
0.00394622
0.000877476
0.000980945
0.0006155
0.000647796
0.00748122
0.00675533
0.00668367
0.00594956
0.0012773
0.0011416
0.00116451
0.00103668
0.00510816
0.00385924
0.00423932
0.00280285
0.000858218
0.000598282
0.00073697
0.000437209
0.00320514
0.00320527
0.0016905
0.00169062
0.00038648
0.000386493
0.000228998
0.000229003
0.00385952
0.00510842
0.00280304
0.0042395
0.000598306
0.000858243
0.000437221
0.000736985
0.00675554
0.00748137
0.0059497
0.00668377
0.00114162
0.00127731
0.00103669
0.00116452
0.00858356
0.00790515
0.0080941
0.00739093
0.00140866
0.00127167
0.00135337
0.00121596
0.00640195
0.00545768
0.00581834
0.00474326
0.00100987
0.000801429
0.000944667
0.000714869
0.00514258
0.00514272
0.00431694
0.00431707
0.000675998
0.000676016
0.000558691
0.000558706
0.00545804
0.00640236
0.00474357
0.00581867
0.000801469
0.00100991
0.000714901
0.000944701
0.00790549
0.00858382
0.0073912
0.00809431
0.00127171
0.00140869
0.00121599
0.0013534
0.00929908
0.00866253
0.00897877
0.00832301
0.0014825
0.00134779
0.00145034
0.00131444
0.00726317
0.00647651
0.00687799
0.00602613
0.00109918
0.000915554
0.0010601
0.000866376
0.00625222
0.00625237
0.0057686
0.00576873
0.000817717
0.000817739
0.000758301
0.000758321
0.00647694
0.00726369
0.00602651
0.00687844
0.000915608
0.00109924
0.000866422
0.00106016
0.00866298
0.00929943
0.0083234
0.00897909
0.00134785
0.00148255
0.00131449
0.00145038
0.00975997
0.00915154
0.00955581
0.0089349
0.00152628
0.00139356
0.00150724
0.00137361
0.0078139
0.00710743
0.0075707
0.00683052
0.00115263
0.000980936
0.00112938
0.000952781
0.0069187
0.00691887
0.00662724
0.00662739
0.00089356
0.000893586
0.000861291
0.000861315
0.00710791
0.00781451
0.00683095
0.00757126
0.000981001
0.0011527
0.00095284
0.00112945
0.00915209
0.00976039
0.00893539
0.00955621
0.00139363
0.00152634
0.00137368
0.0015073
0.0100404
0.00944919
0.00991873
0.00932005
0.00155121
0.00141979
0.00154058
0.00140859
0.00814642
0.00748272
0.0080025
0.00732063
0.00118321
0.00101743
0.00117017
0.00100195
0.00731247
0.00731264
0.00714234
0.0071425
0.00093466
0.000934689
0.000917322
0.000917349
0.00748323
0.00814709
0.00732111
0.00800313
0.0010175
0.0011833
0.00100202
0.00117026
0.00944979
0.0100408
0.00932062
0.00991919
0.00141987
0.00155128
0.00140867
0.00154065
0.0101952
0.00961365
0.0101303
0.0095447
0.00156392
0.00143322
0.00155873
0.00142772
0.00832956
0.00768886
0.00825289
0.00760244
0.00119903
0.00103614
0.00119255
0.00102848
0.00752959
0.00752976
0.00743827
0.00743843
0.000955494
0.000955524
0.000946985
0.000947015
0.00768936
0.00833022
0.00760293
0.00825355
0.00103621
0.00119912
0.00102856
0.00119264
0.00961422
0.0101956
0.00954528
0.0101308
0.0014333
0.00156399
0.00142781
0.0015588
0.010267
0.00969018
0.0102389
0.00966023
0.00156887
0.00143852
0.0015671
0.00143662
0.00841491
0.00778614
0.00838163
0.00774786
0.00120556
0.00104401
0.00120317
0.00104109
0.00763359
0.00763379
0.00759228
0.00759244
0.000964304
0.00096433
0.000961014
0.000961043
0.00778668
0.00841559
0.00774834
0.00838225
0.00104407
0.00120563
0.00104116
0.00120325
0.00969077
0.0102673
0.00966076
0.0102393
0.00143858
0.00156891
0.00143669
0.00156717
0.0102848
0.00970969
0.0102791
0.00970396
0.00156911
0.00143888
0.0015693
0.00143904
0.00843825
0.00781579
0.00843229
0.00780742
0.00120653
0.00104553
0.00120651
0.00104533
0.00766779
0.00766807
0.00765718
0.0076574
0.000966192
0.000966206
0.000965867
0.000965886
0.00781648
0.00843924
0.00780801
0.00843301
0.00104556
0.00120656
0.00104537
0.00120655
0.00971113
0.0102859
0.00970467
0.0102795
0.0014389
0.00156912
0.00143907
0.00156932
0.0102715
0.00969787
0.0102819
0.00970767
0.00156653
0.00143637
0.00156814
0.00143796
0.00842989
0.00781037
0.00843833
0.00781668
0.00120456
0.00104388
0.00120594
0.00104511
0.00766434
0.0076648
0.00766892
0.0076693
0.000964689
0.000964689
0.000965845
0.000965854
0.00781152
0.0084316
0.00781767
0.00843968
0.00104386
0.0012045
0.00104512
0.00120592
0.00970151
0.0102751
0.00971023
0.0102842
0.00143634
0.00156648
0.00143795
0.00156812
0.010242
0.00966898
0.0102574
0.00968432
0.00156254
0.00143241
0.0015646
0.00143446
0.0084011
0.00778221
0.00841673
0.00779765
0.00120091
0.00104031
0.00120283
0.0010422
0.00763728
0.00763782
0.00765223
0.00765274
0.000961108
0.000961102
0.000963008
0.000963003
0.00778357
0.00840301
0.00779894
0.00841866
0.00104027
0.00120079
0.00104216
0.00120273
0.00967221
0.0102455
0.00968815
0.0102617
0.00143225
0.00156238
0.00143437
0.00156451
0.0102055
0.00963276
0.0102241
0.00965116
0.00155795
0.00142785
0.00156028
0.00143016
0.00836466
0.00774524
0.00838333
0.00776421
0.00119663
0.00103608
0.00119881
0.00103824
0.00760048
0.00760088
0.00761936
0.00761984
0.000956838
0.000956841
0.000959021
0.000959018
0.0077462
0.00836574
0.00776541
0.00838491
0.00103606
0.00119656
0.0010382
0.0011987
0.00963376
0.0102065
0.00965348
0.0102267
0.00142767
0.00155777
0.00142996
0.00156008
0.0101657
0.00959348
0.0101857
0.00961321
0.00155305
0.001423
0.00155548
0.0014254
0.00832461
0.00770419
0.00834479
0.00772484
0.00119208
0.00103155
0.00119436
0.00103383
0.00755919
0.00755949
0.0075799
0.00758022
0.000952257
0.00095227
0.000954565
0.000954573
0.0077049
0.00832526
0.0077256
0.00834552
0.00103157
0.00119208
0.00103384
0.00119433
0.00959348
0.0101654
0.0096131
0.0101854
0.00142297
0.00155299
0.00142528
0.00155535
0.0101247
0.00955285
0.0101452
0.00957324
0.00154823
0.00141822
0.0015506
0.00142056
0.00828274
0.00766108
0.00830374
0.00768261
0.00118747
0.00102691
0.00118976
0.00102923
0.0075157
0.00751601
0.00753734
0.00753762
0.000947522
0.000947537
0.000949897
0.000949911
0.00766182
0.0082834
0.00768329
0.00830432
0.00102693
0.00118747
0.00102926
0.00118977
0.00955195
0.0101235
0.00957292
0.0101448
0.00141815
0.00154814
0.00142053
0.00155055
0.0100806
0.00950956
0.0101027
0.009531
0.00154328
0.00141331
0.00154574
0.00141574
0.00823958
0.00761675
0.00826113
0.00763883
0.00118275
0.00102214
0.00118511
0.00102453
0.00747091
0.00747123
0.00749315
0.00749345
0.000942656
0.000942676
0.000945098
0.000945115
0.00761755
0.00824043
0.00763958
0.00826188
0.00102219
0.0011828
0.00102456
0.00118513
0.00950986
0.0100806
0.00953096
0.0101021
0.0014133
0.00154327
0.0014157
0.00154569
0.0100361
0.00946609
0.0100582
0.00948772
0.00153817
0.00140821
0.0015407
0.00141073
0.00819541
0.00757131
0.00821751
0.00759399
0.00117789
0.00101723
0.00118032
0.0010197
0.00742486
0.00742516
0.00744776
0.00744805
0.000937642
0.000937665
0.000940161
0.000940184
0.00757206
0.00819625
0.00759472
0.0082183
0.00101729
0.00117799
0.00101975
0.0011804
0.00946641
0.0100359
0.00948775
0.0100579
0.00140833
0.00153826
0.0014108
0.00154074
0.00998954
0.00942073
0.0100129
0.00944345
0.00153293
0.00140302
0.00153553
0.0014056
0.00814981
0.00752437
0.00817267
0.00754782
0.00117291
0.00101217
0.00117541
0.00101472
0.0073773
0.00737768
0.00740098
0.00740131
0.000932456
0.000932474
0.000935064
0.000935084
0.00752536
0.00815108
0.00754868
0.00817373
0.00101221
0.00117293
0.00101477
0.00117546
0.00942159
0.0099902
0.00944417
0.0100134
0.00140296
0.00153289
0.00140562
0.00153556
0.00994077
0.00937359
0.00996532
0.00939721
0.00152741
0.00139755
0.00153016
0.00140026
0.00810275
0.00747585
0.00812639
0.00750014
0.00116772
0.00100692
0.00117032
0.00100956
0.00732804
0.0073284
0.0073526
0.00735296
0.000927066
0.000927085
0.000929781
0.000929799
0.00747676
0.00810379
0.00750106
0.00812749
0.00100696
0.00116777
0.0010096
0.00117036
0.00937437
0.00994119
0.00939789
0.00996572
0.00139757
0.00152743
0.00140025
0.00153015
0.0098908
0.0093253
0.00991564
0.0093494
0.00152173
0.00139193
0.00152457
0.00139474
0.00805383
0.00742544
0.00807836
0.00745066
0.00116233
0.00100144
0.00116504
0.0010042
0.00727687
0.00727725
0.00730239
0.00730276
0.000921441
0.00092146
0.000924277
0.000924297
0.00742637
0.00805486
0.00745156
0.00807938
0.00100148
0.00116237
0.00100424
0.00116509
0.0093259
0.00989103
0.0093501
0.00991608
0.00139192
0.00152171
0.00139474
0.00152457
0.0098375
0.00927416
0.00986425
0.00929961
0.00151573
0.001386
0.00151873
0.00138896
0.00800307
0.00737316
0.00802857
0.00739934
0.00115667
0.0009957
0.00115952
0.000998593
0.00722375
0.00722412
0.00725027
0.00725063
0.000915558
0.000915578
0.000918524
0.000918544
0.00737409
0.00800419
0.00740024
0.00802961
0.000995739
0.00115669
0.000998634
0.00115955
0.00927519
0.00983824
0.00930037
0.00986468
0.00138596
0.00151568
0.00138894
0.0015187
0.00978381
0.00922266
0.00981056
0.00924841
0.00150936
0.00137972
0.00151254
0.00138285
0.00795054
0.00731899
0.00797691
0.0073461
0.00115074
0.000989706
0.00115372
0.000992726
0.00716866
0.007169
0.00719616
0.00719651
0.000909417
0.000909438
0.000912512
0.000912532
0.00731988
0.00795163
0.00734701
0.00797801
0.000989749
0.00115076
0.000992766
0.00115374
0.00922363
0.00978456
0.00924944
0.00981143
0.00137971
0.00150934
0.00138281
0.00151249
0.00972765
0.00916876
0.00975579
0.00919568
0.00150279
0.00137325
0.00150605
0.00137646
0.00789628
0.00726294
0.00792349
0.007291
0.0011446
0.000983487
0.00114767
0.000986616
0.00711158
0.00711187
0.00714008
0.00714039
0.000903033
0.000903056
0.000906248
0.00090627
0.00726371
0.00789723
0.00729181
0.0079245
0.000983538
0.00114464
0.000986663
0.00114771
0.00916935
0.00972809
0.00919651
0.00975653
0.00137326
0.00150278
0.00137646
0.00150604
0.00967001
0.00911363
0.00969873
0.00914107
0.00149611
0.00136669
0.00149941
0.00136992
0.00784028
0.00720474
0.00786841
0.00723395
0.00113831
0.00097706
0.00114145
0.000980293
0.00705223
0.00705247
0.00708193
0.00708219
0.000896404
0.000896431
0.000899744
0.000899769
0.00720542
0.00784113
0.00723465
0.00786927
0.000977121
0.00113836
0.000980349
0.0011415
0.00911409
0.00967022
0.00914153
0.009699
0.0013667
0.00149612
0.00136993
0.00149941
0.00960983
0.00905593
0.00964025
0.00908506
0.00148923
0.00135988
0.0014927
0.00136331
0.00778158
0.00714369
0.00781122
0.0071744
0.00113178
0.000970353
0.00113508
0.000973745
0.00699
0.00699023
0.00702121
0.00702143
0.000889464
0.000889496
0.000892973
0.000893002
0.00714436
0.00778245
0.00717504
0.00781204
0.000970431
0.00113186
0.000973813
0.00113514
0.00905663
0.00961024
0.00908555
0.0096405
0.00135994
0.00148927
0.00136333
0.00149271
0.00954537
0.00899432
0.00957788
0.00902535
0.00148177
0.0013525
0.00148554
0.00135623
0.00771956
0.00707948
0.00775086
0.00711178
0.00112479
0.000963231
0.00112833
0.000966844
0.00692461
0.00692486
0.00695742
0.00695765
0.000882106
0.000882142
0.000885836
0.00088587
0.0070802
0.00772049
0.00711245
0.00775173
0.000963321
0.0011249
0.000966928
0.00112843
0.00899518
0.00954601
0.00902614
0.00957848
0.0013526
0.00148185
0.00135631
0.00148561
0.00947737
0.00892941
0.00951157
0.00896204
0.00147378
0.00134462
0.0014778
0.00134858
0.00765431
0.00701205
0.00768721
0.00704598
0.00111733
0.000955644
0.0011211
0.000959489
0.00685596
0.00685621
0.00689041
0.00689066
0.000874272
0.00087431
0.000878243
0.00087828
0.0070128
0.0076553
0.00704669
0.00768815
0.00095574
0.00111745
0.000959582
0.00112122
0.00893034
0.00947809
0.00896292
0.00951229
0.00134473
0.00147389
0.00134869
0.0014779
0.00940626
0.00886148
0.00944198
0.0088956
0.00146539
0.00133631
0.0014696
0.00134048
0.00758594
0.00694137
0.00762039
0.00697692
0.00110946
0.000947618
0.00111343
0.000951678
0.006784
0.00678426
0.0068201
0.00682035
0.00086597
0.000866009
0.000870171
0.00087021
0.00694212
0.00758694
0.00697764
0.00762136
0.000947717
0.00110958
0.000951775
0.00111355
0.00886242
0.00940701
0.00889652
0.00944276
0.00133642
0.0014655
0.00134059
0.00146971
0.00933233
0.00879075
0.00936943
0.00882623
0.00145666
0.00132765
0.00146104
0.00133198
0.00751467
0.0068676
0.00755053
0.00690466
0.00110123
0.000939198
0.00110537
0.000943449
0.00670889
0.00670914
0.00674655
0.00674679
0.000857236
0.000857275
0.000861648
0.000861687
0.00686834
0.00751567
0.00690539
0.00755151
0.000939299
0.00110135
0.000943548
0.00110549
0.0087917
0.00933308
0.00882716
0.00937021
0.00132776
0.00145677
0.0013321
0.00146114
0.00925585
0.00871759
0.0092942
0.00875425
0.00144765
0.00131872
0.00145216
0.00132317
0.00744078
0.00679094
0.00747793
0.00682943
0.00109269
0.000930428
0.00109699
0.00093485
0.00663079
0.00663104
0.00666994
0.00667018
0.00084811
0.000848149
0.000852714
0.000852753
0.00679168
0.00744179
0.00683016
0.00747891
0.000930529
0.00109282
0.00093495
0.00109711
0.00871854
0.0092566
0.00875518
0.00929499
0.00131883
0.00144775
0.00132329
0.00145227
0.00917672
0.00864188
0.00921645
0.00867989
0.00143836
0.00130953
0.00144301
0.00131412
0.00736418
0.00671128
0.00740275
0.00675132
0.00108387
0.000921324
0.00108831
0.000925913
0.00654955
0.0065498
0.00659032
0.00659056
0.000838611
0.000838651
0.000843401
0.000843441
0.00671202
0.00736518
0.00675205
0.00740373
0.000921425
0.00108399
0.000926014
0.00108843
0.00864283
0.00917748
0.00868083
0.00921724
0.00130964
0.00143846
0.00131424
0.00144311
0.00909429
0.00856283
0.00913579
0.00860264
0.00142877
0.00130001
0.00143358
0.00130478
0.00728412
0.0066279
0.00732455
0.00666995
0.00107471
0.000911861
0.00107933
0.000916637
0.00646441
0.00646466
0.00650728
0.00650752
0.000828715
0.000828755
0.000833711
0.000833751
0.00662864
0.00728512
0.00667067
0.00732553
0.000911961
0.00107483
0.000916737
0.00107945
0.00856377
0.00909504
0.00860357
0.00913658
0.00130013
0.00142888
0.00130489
0.00143368
0.00900705
0.0084789
0.00905122
0.00852142
0.00141879
0.00129008
0.00142381
0.00129508
0.00719901
0.00653903
0.00724225
0.00658414
0.00106513
0.000901928
0.00106998
0.00090696
0.00637348
0.00637373
0.00641959
0.00641983
0.000818305
0.000818344
0.000823581
0.000823621
0.00653977
0.0072
0.00658486
0.00724322
0.000902028
0.00106525
0.00090706
0.0010701
0.00847984
0.0090078
0.00852235
0.00905201
0.00129019
0.00141889
0.00129519
0.00142392
0.00891205
0.00838708
0.0089606
0.00843405
0.00140819
0.00127949
0.00141356
0.00128486
0.00710566
0.00644118
0.00715354
0.00649136
0.00105488
0.000891259
0.0010601
0.000896706
0.00627305
0.00627329
0.00632451
0.00632475
0.000807094
0.000807133
0.000812821
0.00081286
0.00644192
0.00710665
0.00649208
0.00715451
0.000891358
0.00105499
0.000896805
0.00106022
0.00838801
0.00891279
0.00843497
0.00896138
0.00127961
0.00140829
0.00128497
0.00141366
0.00880395
0.00828203
0.0088599
0.00833646
0.00139652
0.00126783
0.0014025
0.0012738
0.00699854
0.00632838
0.00705418
0.00638696
0.00104348
0.00087933
0.00104935
0.000885494
0.00615693
0.00615717
0.00621718
0.00621742
0.000794516
0.000794555
0.00080102
0.000801059
0.00632912
0.00699952
0.00638768
0.00705514
0.000879428
0.00104359
0.000885591
0.00104947
0.00828296
0.00880469
0.00833737
0.00886068
0.00126794
0.00139663
0.00127391
0.0014026
0.00867382
0.0081551
0.0087422
0.00822181
0.00138297
0.00125434
0.00139003
0.00126135
0.00686891
0.00619176
0.00693713
0.00626353
0.00103009
0.000865223
0.00103709
0.00087262
0.0060165
0.00601675
0.00609009
0.00609033
0.000779596
0.000779635
0.000787422
0.00078746
0.00619251
0.0068699
0.00626425
0.00693809
0.00086532
0.00103021
0.000872717
0.00103721
0.00815604
0.00867458
0.00822273
0.00874297
0.00125445
0.00138307
0.00126145
0.00139013
0.0085072
0.00799254
0.00859606
0.00807921
0.00136598
0.00123775
0.00137501
0.00124651
0.00670392
0.00602058
0.00679171
0.00611095
0.00101324
0.000847468
0.00102222
0.000856912
0.00584323
0.00584348
0.00593406
0.0059343
0.000760898
0.000760937
0.000770816
0.000770855
0.00602134
0.00670492
0.00611169
0.00679268
0.000847565
0.00101336
0.000857009
0.00102233
0.00799349
0.00850798
0.00808013
0.00859685
0.00123786
0.00136608
0.00124662
0.00137511
0.00828349
0.00777143
0.00840356
0.00789112
0.00134266
0.0012153
0.00135534
0.00122753
0.00648732
0.00580987
0.00660289
0.00591947
0.000990083
0.000823961
0.00100272
0.000836573
0.00563922
0.00563948
0.00574366
0.00574391
0.0007369
0.000736939
0.000749617
0.000749656
0.00581064
0.00648834
0.00592022
0.00660388
0.000824059
0.0009902
0.00083667
0.00100283
0.00777241
0.00828432
0.00789208
0.00840438
0.00121541
0.00134277
0.00122764
0.00135544
0.00799223
0.00744605
0.00814594
0.00762587
0.0013058
0.00117288
0.00132698
0.00119889
0.00622656
0.00559523
0.0063578
0.0056972
0.000954142
0.000793095
0.000974315
0.000809395
0.00544232
0.00544258
0.00553535
0.0055356
0.000708032
0.000708071
0.000722843
0.000722882
0.00559601
0.00622759
0.00569797
0.00635881
0.000793193
0.000954259
0.000809493
0.000974432
0.00744707
0.00799312
0.00762685
0.00814682
0.001173
0.00130591
0.001199
0.00132709
0.00300177
0.00268689
0.000476397
0.000541859
0.00234193
0.00218414
0.000366008
0.000435871
0.00103296
0.000290297
0.000194486
0.000165616
0.000756105
0.000224682
0.000179437
0.000163504
0.000173264
0.000173265
0.000163564
0.000163564
0.00016369
0.00016369
0.000166634
0.000166635
0.000290309
0.00103297
0.000165616
0.000194486
0.000224684
0.000756095
0.000163504
0.000179437
0.00268684
0.00300163
0.000541845
0.000476367
0.00218408
0.00234177
0.000435862
0.000365984
0.00847623
0.00743735
0.00609997
0.00526592
0.00740592
0.00647208
0.00527123
0.00454512
0.00528786
0.00335378
0.00319967
0.00132423
0.00444197
0.00261712
0.00258857
0.000940801
0.00173804
0.00173822
0.000393654
0.000393693
0.00112419
0.00112428
0.000264481
0.000264494
0.00335409
0.00528813
0.00132434
0.00319978
0.00261731
0.00444214
0.00094085
0.00258862
0.00743754
0.00847631
0.00526598
0.00609996
0.0064722
0.00740599
0.00454515
0.00527123
0.0118069
0.0106606
0.0103231
0.00920141
0.0102143
0.0091845
0.00898841
0.00797813
0.00857783
0.00701515
0.00705561
0.00527078
0.00721141
0.00570311
0.00594849
0.00423029
0.00630425
0.00630448
0.00425209
0.00425231
0.0049684
0.00496859
0.00312446
0.00312462
0.00701567
0.00857836
0.00527118
0.00705599
0.00570351
0.00721181
0.00423058
0.00594875
0.010661
0.0118072
0.00920171
0.0103232
0.00918482
0.0102145
0.00797834
0.00898859
0.0140406
0.0129125
0.0130252
0.0118822
0.0119986
0.0109912
0.0111953
0.0101717
0.0109976
0.00978745
0.00988406
0.00851889
0.0091758
0.00801778
0.0082776
0.00696496
0.00938817
0.00938841
0.00799903
0.00799925
0.00763119
0.00763139
0.00644803
0.00644821
0.00978808
0.0109983
0.00851945
0.00988469
0.0080183
0.0091764
0.0069654
0.00827808
0.0129131
0.0140411
0.0118827
0.0130256
0.0109917
0.011999
0.0101721
0.0111956
0.0155893
0.0144975
0.0148865
0.0137767
0.0132026
0.0122316
0.0126593
0.0116706
0.0127167
0.0117106
0.0119352
0.0108418
0.0105428
0.00958607
0.00992463
0.00888221
0.0114435
0.0114438
0.0105211
0.0105214
0.00933445
0.00933468
0.00857704
0.00857725
0.0117113
0.0127176
0.0108425
0.011936
0.00958669
0.0105436
0.00888276
0.00992531
0.0144983
0.0155899
0.0137775
0.014887
0.0122323
0.0132031
0.0116712
0.0126598
0.0166321
0.0155698
0.0161651
0.0150893
0.0139988
0.0130561
0.0136438
0.0126883
0.0138769
0.0129846
0.0133577
0.0124166
0.011449
0.0106025
0.0110454
0.0101519
0.0127814
0.0127817
0.0121866
0.0121869
0.0104125
0.0104128
0.00993641
0.00993663
0.0129854
0.0138779
0.0124173
0.0133586
0.0106032
0.0114499
0.0101526
0.0110462
0.0155708
0.0166328
0.0150902
0.0161658
0.013057
0.0139994
0.0126891
0.0136445
0.0172914
0.0162493
0.0170023
0.0159512
0.0144942
0.0135703
0.014278
0.0133458
0.0146101
0.0137816
0.0142887
0.0134328
0.0120123
0.0112264
0.0117667
0.0109548
0.0136119
0.0136122
0.0132487
0.013249
0.011068
0.0110683
0.010783
0.0107832
0.0137824
0.0146112
0.0134336
0.0142898
0.0112271
0.0120133
0.0109555
0.0117676
0.0162503
0.0172922
0.0159522
0.0170031
0.0135712
0.0144949
0.0133467
0.0142787
0.017671
0.0166413
0.0175097
0.0164746
0.0147744
0.0138617
0.0146561
0.0137386
0.0150334
0.01424
0.0148534
0.0140449
0.0123316
0.0115786
0.0121967
0.0114297
0.0140884
0.0140887
0.0138855
0.0138858
0.0114372
0.0114375
0.011281
0.0112813
0.0142408
0.0150345
0.0140458
0.0148545
0.0115793
0.0123326
0.0114305
0.0121977
0.0166423
0.0176717
0.0164756
0.0175104
0.0138626
0.0147751
0.0137395
0.0146568
0.0178585
0.0168362
0.0177835
0.0167579
0.0149092
0.0140027
0.0148558
0.0139467
0.0152451
0.0144701
0.0151599
0.0143771
0.012487
0.011751
0.0124253
0.0116822
0.0143283
0.0143286
0.014231
0.0142313
0.0116188
0.0116191
0.011546
0.0115463
0.0144711
0.0152463
0.014378
0.015161
0.0117518
0.012488
0.0116829
0.0124262
0.0168373
0.0178592
0.0167589
0.0177842
0.0140036
0.0149099
0.0139476
0.0148565
0.0179213
0.0169027
0.0178986
0.0168791
0.0149497
0.0140463
0.0149353
0.0140314
0.0153201
0.0145552
0.0152952
0.014526
0.0125374
0.0118104
0.0125219
0.0117913
0.0144191
0.0144196
0.014387
0.0143874
0.0116837
0.0116841
0.0116619
0.0116623
0.0145564
0.0153216
0.0145271
0.0152965
0.0118115
0.0125388
0.0117923
0.0125231
0.0169041
0.0179225
0.0168803
0.0178995
0.0140477
0.0149511
0.0140324
0.0149362
0.0179147
0.0168995
0.0179259
0.0169094
0.0149376
0.0140368
0.01495
0.0140483
0.0153224
0.0145606
0.0153296
0.0145645
0.0125334
0.0118096
0.0125425
0.0118158
0.0144254
0.0144261
0.0144277
0.0144283
0.0116842
0.0116849
0.0116886
0.0116891
0.0145622
0.0153243
0.014566
0.0153314
0.0118112
0.0125354
0.0118172
0.0125442
0.0169013
0.0179162
0.0169112
0.0179275
0.0140386
0.0149391
0.0140496
0.0149514
0.0178637
0.0168508
0.0178922
0.0168783
0.0148923
0.0139935
0.0149171
0.0140174
0.0152762
0.0145152
0.0153026
0.0145412
0.0124928
0.0117698
0.0125156
0.0117923
0.0143804
0.0143811
0.0144062
0.0144069
0.0116449
0.0116457
0.0116672
0.0116679
0.0145169
0.0152781
0.0145429
0.0153047
0.0117717
0.0124951
0.0117941
0.0125179
0.0168523
0.0178649
0.0168801
0.0178938
0.0139969
0.0148956
0.0140201
0.0149196
0.017793
0.0167817
0.0178296
0.0168175
0.0148361
0.0139385
0.0148648
0.0139668
0.0152085
0.0144472
0.0152436
0.0144823
0.0124376
0.0117139
0.0124662
0.0117429
0.0143118
0.0143124
0.0143471
0.0143478
0.0115885
0.0115892
0.0116177
0.0116184
0.0144486
0.0152097
0.0144839
0.0152452
0.0117154
0.0124392
0.0117446
0.0124682
0.0167816
0.0177919
0.0168179
0.0178294
0.0139397
0.0148371
0.0139692
0.0148674
0.0177126
0.0167034
0.0177529
0.0167427
0.0147731
0.0138767
0.0148045
0.0139076
0.0151317
0.0143694
0.0151704
0.0144084
0.0123758
0.0116509
0.012407
0.0116827
0.0142331
0.0142335
0.0142724
0.0142729
0.0115247
0.0115252
0.0115568
0.0115573
0.0143705
0.0151327
0.0144096
0.0151715
0.0116521
0.012377
0.011684
0.0124084
0.0167034
0.0177122
0.0167429
0.0177525
0.0138769
0.0147728
0.0139085
0.0148052
0.0176294
0.0166218
0.0176711
0.0166627
0.0147066
0.0138114
0.01474
0.0138441
0.015051
0.0142875
0.0150913
0.0143282
0.0123108
0.0115846
0.0123434
0.0116177
0.01415
0.0141505
0.014191
0.0141915
0.0114574
0.011458
0.0114909
0.0114914
0.0142885
0.0150519
0.0143292
0.0150922
0.0115859
0.0123123
0.011619
0.0123447
0.0166212
0.0176277
0.0166621
0.0176698
0.0138126
0.0147073
0.0138447
0.0147399
0.0175425
0.0165374
0.0175857
0.0165793
0.014638
0.0137442
0.0146723
0.0137778
0.0149683
0.0142034
0.0150094
0.014245
0.0122442
0.0115165
0.0122775
0.0115504
0.0140648
0.0140653
0.0141068
0.0141072
0.0113884
0.011389
0.0114227
0.0114232
0.0142045
0.0149694
0.0142461
0.0150104
0.0115178
0.0122457
0.0115517
0.012279
0.0165385
0.0175429
0.0165795
0.0175849
0.013745
0.0146382
0.0137787
0.0146729
0.0174564
0.0164534
0.0174991
0.0164952
0.0145672
0.0136753
0.0146026
0.0137097
0.0148842
0.0141178
0.014926
0.0141602
0.0121762
0.011447
0.0122102
0.0114817
0.0139779
0.0139784
0.0140207
0.0140212
0.0113179
0.0113184
0.0113529
0.0113535
0.014119
0.0148856
0.0141614
0.0149273
0.0114483
0.0121779
0.011483
0.0122117
0.0164548
0.0174574
0.0164962
0.0174996
0.0136775
0.0145692
0.0137111
0.0146034
0.0173665
0.016366
0.0174114
0.0164096
0.0144951
0.0136053
0.014531
0.0136403
0.014798
0.0140301
0.0148411
0.0140736
0.0121062
0.0113755
0.0121413
0.0114112
0.0138889
0.0138894
0.0139328
0.0139334
0.0112454
0.011246
0.0112815
0.011282
0.0140315
0.0147997
0.014075
0.0148426
0.0113772
0.0121084
0.0114127
0.0121432
0.0163674
0.017368
0.0164113
0.0174131
0.0136071
0.0144969
0.0136423
0.0145333
0.0172734
0.0162754
0.0173198
0.0163205
0.014421
0.0135333
0.0144579
0.0135691
0.0147091
0.0139398
0.0147534
0.0139846
0.0120342
0.0113018
0.0120704
0.0113387
0.0137973
0.0137979
0.0138426
0.0138432
0.0111706
0.0111712
0.0112079
0.0112085
0.0139414
0.0147111
0.0139862
0.0147554
0.0113035
0.0120364
0.0113403
0.0120725
0.0162769
0.0172747
0.016322
0.0173214
0.0135353
0.0144228
0.0135712
0.0144598
0.0171782
0.0161834
0.0172253
0.0162288
0.0143436
0.0134581
0.0143823
0.0134956
0.0146182
0.013847
0.0146635
0.0138931
0.0119599
0.0112257
0.0119972
0.0112638
0.013703
0.0137036
0.0137497
0.0137503
0.0110933
0.0110939
0.0111319
0.0111325
0.0138486
0.0146203
0.0138947
0.0146656
0.0112273
0.011962
0.0112654
0.0119993
0.0161864
0.0171811
0.0162311
0.017227
0.0134605
0.014346
0.013498
0.0143847
0.0170834
0.0160908
0.0171308
0.0161373
0.0142644
0.0133812
0.0143041
0.0134199
0.0145247
0.0137513
0.0145715
0.013799
0.0118832
0.0111471
0.0119217
0.0111864
0.0136057
0.0136063
0.0136539
0.0136545
0.0110134
0.011014
0.0110533
0.0110539
0.0137529
0.0145267
0.0138005
0.0145736
0.0111486
0.011885
0.011188
0.0119236
0.0160925
0.017085
0.0161396
0.0171334
0.0133825
0.0142653
0.0134215
0.0143058
0.0169817
0.0159923
0.0170327
0.0160416
0.0141808
0.0133005
0.0142228
0.0133409
0.0144277
0.0136526
0.0144762
0.0137017
0.0118037
0.0110657
0.0118436
0.0111065
0.0135053
0.0135059
0.0135551
0.0135557
0.0109308
0.0109313
0.010972
0.0109726
0.0136542
0.0144299
0.0137034
0.0144783
0.0110672
0.0118056
0.0111079
0.0118455
0.0159942
0.0169834
0.0160433
0.0170343
0.0133032
0.0141834
0.0133429
0.0142243
0.016878
0.0158917
0.0169298
0.015942
0.0140961
0.0132188
0.0141383
0.0132596
0.0143279
0.0135505
0.0143779
0.0136014
0.0117218
0.0109816
0.011763
0.0110238
0.0134013
0.013402
0.013453
0.0134536
0.0108452
0.0108457
0.010888
0.0108885
0.0135521
0.0143301
0.0136031
0.0143801
0.010983
0.0117235
0.0110252
0.0117647
0.0158942
0.0168802
0.0159442
0.0169316
0.01322
0.0140972
0.0132614
0.0141404
0.0167699
0.0157871
0.0168238
0.0158393
0.0140089
0.0131343
0.0140523
0.0131764
0.0142239
0.013444
0.0142761
0.0134973
0.0116368
0.010894
0.0116797
0.0109381
0.0132929
0.0132935
0.013347
0.0133476
0.0107559
0.0107563
0.0108007
0.0108011
0.0134456
0.014226
0.0134989
0.0142783
0.0108952
0.0116384
0.0109394
0.0116813
0.0157892
0.0167717
0.0158416
0.0168261
0.0131358
0.0140101
0.013178
0.0140536
0.0166579
0.0156782
0.0167142
0.015733
0.0139174
0.0130454
0.0139636
0.0130902
0.0141147
0.0133321
0.0141697
0.0133882
0.0115474
0.0108018
0.0115925
0.0108482
0.013179
0.0131795
0.0132359
0.0132364
0.010662
0.0106624
0.0107091
0.0107095
0.0133334
0.0141166
0.0133896
0.0141717
0.0108029
0.0115489
0.0108493
0.011594
0.0156802
0.0166596
0.015735
0.016716
0.0130468
0.0139185
0.0130916
0.0139648
0.0165388
0.0155628
0.0165988
0.0156208
0.0138199
0.0129511
0.013869
0.0129986
0.014
0.0132146
0.0140577
0.0132735
0.0114535
0.010705
0.0115009
0.0107537
0.0130593
0.0130598
0.0131191
0.0131195
0.0105633
0.0105637
0.0106129
0.0106132
0.0132159
0.0140017
0.0132747
0.0140595
0.0107061
0.0114549
0.0107548
0.0115023
0.0155645
0.0165403
0.0156226
0.0166004
0.0129526
0.013821
0.013
0.0138703
0.0164133
0.0154414
0.0164763
0.0155024
0.0137171
0.012852
0.0137688
0.0129019
0.0138796
0.0130914
0.0139402
0.0131532
0.0113548
0.0106035
0.0114046
0.0106546
0.0129338
0.0129342
0.0129965
0.012997
0.0104598
0.0104601
0.0105118
0.0105122
0.0130927
0.0138813
0.0131544
0.0139419
0.0106046
0.0113563
0.0106557
0.0114061
0.0154431
0.0164148
0.0155041
0.0164779
0.0128534
0.0137183
0.0129033
0.0137701
0.016282
0.0153142
0.0163479
0.0153781
0.0136097
0.0127482
0.0136637
0.0128004
0.0137534
0.0129622
0.0138169
0.013027
0.0112514
0.0104969
0.0113036
0.0105505
0.0128021
0.0128025
0.012868
0.0128684
0.010351
0.0103514
0.0104057
0.010406
0.0129634
0.0137551
0.0130282
0.0138186
0.010498
0.0112529
0.0105516
0.011305
0.015316
0.0162834
0.0153798
0.0163494
0.0127496
0.0136109
0.0128018
0.013665
0.016145
0.0151815
0.0162138
0.0152482
0.0134978
0.0126399
0.013554
0.0126943
0.0136215
0.0128269
0.0136878
0.0128948
0.0111434
0.0103853
0.0111978
0.0104415
0.0126641
0.0126645
0.0127331
0.0127335
0.0102371
0.0102375
0.0102943
0.0102947
0.0128281
0.0136231
0.012896
0.0136895
0.0103864
0.0111449
0.0104425
0.0111993
0.0151832
0.0161465
0.0152499
0.0162153
0.0126414
0.013499
0.0126958
0.0135553
0.0160027
0.0150434
0.0160741
0.0151127
0.0133817
0.0125276
0.01344
0.012584
0.0134838
0.0126855
0.013553
0.0127565
0.011031
0.010269
0.0110876
0.0103275
0.0125198
0.0125202
0.012592
0.0125924
0.0101182
0.0101185
0.0101779
0.0101783
0.0126867
0.0134855
0.0127577
0.0135547
0.0102701
0.0110325
0.0103286
0.0110891
0.0150451
0.0160042
0.0151144
0.0160757
0.0125291
0.0133829
0.0125854
0.0134413
0.0158543
0.0148994
0.0159289
0.0149719