/*--------------------------------*- C++ -*----------------------------------*\
  =========                 |
  \\      /  F ield         | OpenFOAM: The Open Source CFD Toolbox
   \\    /   O peration     | Website:  https://openfoam.org
    \\  /    A nd           | Version:  9
     \\/     M anipulation  |
\*---------------------------------------------------------------------------*/
FoamFile
{
    format      ascii;
    class       surfaceScalarField;
    location    "1.3";
    object      phi;
}
// * * * * * * * * * * * * * * * * * * * * * * * * * * * * * * * * * * * * * //

dimensions      [0 3 -1 0 0 0 0];

internalField   nonuniform List<scalar> 
104044
(
1.26144e-06
-0.000147961
3.12282e-06
0.000144152
-5.75387e-07
-8.27805e-05
-9.42881e-06
-5.19671e-07
9.20586e-05
1.93184e-06
3.62209e-07
3.49728e-06
-4.40289e-06
-9.45499e-06
-2.07738e-07
6.04273e-06
-2.4386e-09
-0.000151879
0.000155004
-9.27186e-05
2.92256e-08
8.32581e-05
3.49368e-07
-2.0065e-07
-4.05326e-08
-0.000103774
-3.17866e-06
0.000104108
2.36472e-06
-0.000110408
-7.5102e-07
4.42544e-09
0.000111002
1.1163e-07
-2.83512e-09
-2.19205e-06
9.9817e-07
-1.72178e-06
-5.92461e-10
3.11054e-07
-1.26025e-08
-0.000114327
0.00011119
-0.000116693
-4.42892e-09
0.000115934
-1.33659e-08
3.93578e-10
3.25087e-12
-0.000112331
-1.05634e-06
0.000113135
2.57129e-07
-0.000112331
-1.05633e-06
-4.41738e-09
0.000113134
2.5713e-07
1.26004e-12
-1.79529e-06
3.42269e-07
-1.79528e-06
5.94742e-10
3.42272e-07
4.40755e-12
-0.000116762
0.000115701
-0.000116762
4.43654e-09
0.000115701
1.06432e-12
-3.90976e-10
4.05388e-08
-0.000110407
-7.51062e-07
0.000111001
1.11692e-07
-0.000103772
-3.17877e-06
5.19658e-07
0.000104107
2.36483e-06
2.83714e-09
-1.72178e-06
3.11074e-07
-2.19206e-06
2.07728e-07
9.98168e-07
1.26086e-08
-0.000116691
0.000115932
-0.000114324
-2.92386e-08
0.000111188
1.3367e-08
2.00639e-07
-1.26144e-06
-8.27789e-05
-9.42912e-06
9.2057e-05
1.93206e-06
-0.000147961
3.12308e-06
0.000144152
-5.75603e-07
-3.62198e-07
-9.45487e-06
6.0426e-06
3.49682e-06
-4.40217e-06
2.41671e-09
-9.27161e-05
8.32554e-05
-0.000151879
0.000155005
-3.4936e-07
2.31822e-06
-0.000140573
-5.41306e-06
0.000136323
7.34523e-06
-9.92227e-05
4.09269e-06
-6.99654e-07
0.000104198
-6.05028e-06
2.18082e-06
-3.26536e-06
4.66354e-06
-1.17292e-06
-7.63916e-07
-3.04647e-06
-1.3172e-06
-0.00015235
0.000148254
-8.11435e-05
7.06314e-07
8.32126e-05
-6.11458e-07
3.30262e-07
-6.63318e-08
-0.000105618
-5.93483e-06
0.00010716
3.75918e-06
-0.000111223
-2.47211e-06
-8.0799e-09
0.000111496
2.14092e-06
-6.30093e-08
-5.93659e-06
3.72631e-06
-1.01089e-06
-4.96511e-10
7.27524e-07
2.00884e-08
-0.000105588
0.000100339
-0.00011494
-2.84111e-08
0.000112516
-4.15995e-09
-2.12184e-08
1.05402e-11
-0.000113788
-4.15655e-07
0.00011424
-4.48787e-08
-0.000113787
-4.15685e-07
8.09817e-09
0.00011424
-4.47868e-08
5.25962e-12
-4.7288e-07
-1.80752e-07
-4.72866e-07
5.09916e-10
-1.80732e-07
1.2853e-11
-0.000115207
0.000114763
-0.000115207
2.84377e-08
0.000114763
8.29859e-12
2.12356e-08
6.6339e-08
-0.000111222
-2.47223e-06
0.000111495
2.1411e-06
-0.000105616
-5.93489e-06
6.99655e-07
0.000107159
3.75921e-06
6.30166e-08
-1.01094e-06
7.27655e-07
-5.93673e-06
7.63917e-07
3.72643e-06
-2.00825e-08
-0.000114938
0.000112515
-0.000105585
-7.0637e-07
0.000100337
4.16621e-09
-3.30298e-07
-2.31829e-06
-9.92211e-05
4.09297e-06
0.000104197
-6.05055e-06
-0.000140573
-5.41298e-06
0.000136323
7.3452e-06
-2.18085e-06
-1.17276e-06
-3.04656e-06
-3.26525e-06
4.66352e-06
1.3172e-06
-8.11409e-05
8.32103e-05
-0.000152351
0.000148255
6.11438e-07
1.36884e-06
-0.000132651
-8.34948e-06
0.00012962
1.00111e-05
-0.000107343
8.89798e-06
-2.79931e-07
0.000109411
-9.31703e-06
1.88889e-06
-7.22102e-06
9.00452e-06
7.14237e-06
-4.83862e-07
-7.91429e-06
-3.30125e-06
-0.000143286
0.000138238
-8.69266e-05
1.59895e-06
9.09244e-05
-2.25279e-06
1.17557e-06
-8.62723e-09
-0.000108067
-2.71847e-06
0.000108598
1.91598e-06
-0.000111709
-2.66081e-06
-2.94575e-08
0.000111649
2.74141e-06
-5.50222e-08
-4.19975e-06
2.86421e-06
-2.99567e-06
-1.11131e-08
2.7387e-06
1.6244e-07
-9.72423e-05
9.59603e-05
-0.000109614
-1.94463e-08
0.000107136
7.2794e-08
-2.11771e-08
1.79834e-11
-0.000114108
-1.56889e-06
0.000113783
1.86392e-06
-0.000114107
-1.56898e-06
2.94872e-08
0.000113783
1.86399e-06
1.57687e-11
-9.33718e-07
1.05497e-06
-9.33818e-07
1.11284e-08
1.0551e-06
1.84095e-11
-0.000113808
0.00011222
-0.000113808
1.94734e-08
0.000112219
1.60115e-11
2.11991e-08
8.63378e-09
-0.000111708
-2.66092e-06
0.000111648
2.74148e-06
-0.000108065
-2.71844e-06
2.79922e-07
0.000108597
1.9159e-06
5.50293e-08
-2.99583e-06
2.73884e-06
-4.19976e-06
4.83857e-07
2.8642e-06
-1.62442e-07
-0.000109613
0.000107134
-9.72398e-05
-1.59906e-06
9.59579e-05
-7.27908e-08
-1.17565e-06
-1.36891e-06
-0.000107341
8.89834e-06
0.000109409
-9.31736e-06
-0.00013265
-8.34966e-06
0.00012962
1.00113e-05
-1.88896e-06
7.14266e-06
-7.91456e-06
-7.22115e-06
9.00469e-06
3.30131e-06
-8.69245e-05
9.09224e-05
-0.000143287
0.000138239
2.25281e-06
4.21758e-07
-0.000127133
-9.01351e-06
0.00012503
1.06944e-05
-0.000110774
1.02318e-05
-6.27811e-08
0.000111715
-1.06885e-05
8.51303e-07
-8.73196e-06
1.03677e-05
9.68743e-06
-1.36432e-07
-1.00631e-05
-5.01428e-06
-0.000133692
0.000129693
-9.45285e-05
2.14303e-06
9.76029e-05
-4.18631e-06
1.89707e-06
2.16169e-07
-0.000109017
-1.2056e-06
0.000109399
5.43813e-07
-0.000111404
-1.51025e-06
-4.37459e-09
0.00011115
1.98533e-06
7.4805e-08
-1.74727e-06
1.11756e-06
-2.04575e-06
-2.34525e-08
2.3892e-06
3.78173e-07
-9.5837e-05
9.63962e-05
-0.000105377
2.33219e-09
0.000104242
2.73158e-07
-1.39456e-08
2.11216e-11
-0.00011338
-1.37359e-06
0.000112893
1.85696e-06
-0.00011338
-1.37361e-06
4.40728e-09
0.000112892
1.85696e-06
1.85485e-11
-1.64849e-06
2.028e-06
-1.64854e-06
2.34796e-08
2.02803e-06
2.68177e-11
-0.000110557
0.000109186
-0.000110557
-2.28454e-09
0.000109185
2.1087e-11
1.39771e-08
-2.16165e-07
-0.000111403
-1.51024e-06
0.000111148
1.98529e-06
-0.000109015
-1.20552e-06
6.27812e-08
0.000109398
5.43651e-07
-7.48001e-08
-2.0458e-06
2.38922e-06
-1.74722e-06
1.36425e-07
1.11746e-06
-3.78162e-07
-0.000105375
0.000104241
-9.58347e-05
-2.14313e-06
9.63942e-05
-2.73165e-07
-1.89717e-06
-4.21844e-07
-0.000110773
1.02322e-05
0.000111714
-1.06888e-05
-0.000127132
-9.0138e-06
0.00012503
1.06947e-05
-8.5138e-07
9.68774e-06
-1.00634e-05
-8.73229e-06
1.0368e-05
5.01441e-06
-9.45266e-05
9.76012e-05
-0.000133693
0.000129693
4.1864e-06
-2.44674e-07
-0.000123276
-9.04971e-06
0.000121778
1.07921e-05
-0.000112369
1.05278e-05
-4.57862e-08
0.000112833
-1.11903e-05
5.56907e-08
-8.97079e-06
1.067e-05
1.03364e-05
-3.85503e-08
-1.08962e-05
-6.16847e-06
-0.000126321
0.00012344
-0.000100078
2.36502e-06
0.000102072
-5.59927e-06
2.26261e-06
4.46957e-07
-0.000109808
-7.40918e-07
0.000110189
-1.33083e-07
-0.000110958
-7.94696e-07
5.97689e-08
0.000110839
1.30106e-06
3.3843e-07
-8.75163e-07
8.93763e-08
-1.07858e-06
2.52181e-08
1.58303e-06
5.20953e-07
-9.73345e-05
9.84377e-05
-0.000103586
5.82174e-08
0.000103254
4.49124e-07
2.73231e-08
3.60451e-11
-0.000112437
-8.51986e-07
0.000112053
1.29552e-06
-0.000112436
-8.51975e-07
-5.97246e-08
0.000112053
1.2955e-06
2.48924e-11
-1.06702e-06
1.54801e-06
-1.06702e-06
-2.51813e-08
1.54801e-06
5.09098e-11
-0.000108146
0.000107353
-0.000108146
-5.81302e-08
0.000107352
3.10846e-11
-2.72683e-08
-4.46935e-07
-0.000110957
-7.9464e-07
0.000110838
1.30098e-06
-0.000109807
-7.40828e-07
4.58244e-08
0.000110188
-1.3325e-07
-3.3842e-07
-1.07855e-06
1.58296e-06
-8.75075e-07
3.85613e-08
8.92273e-08
-5.20919e-07
-0.000103584
0.000103252
-9.73327e-05
-2.36511e-06
9.84361e-05
-4.49116e-07
-2.26271e-06
2.44576e-07
-0.000112368
1.05282e-05
0.000112832
-1.11906e-05
-0.000123275
-9.05006e-06
0.000121777
1.07925e-05
-5.57828e-08
1.03368e-05
-1.08965e-05
-8.97121e-06
1.06704e-05
6.16864e-06
-0.000100076
0.00010207
-0.000126322
0.00012344
5.59942e-06
-6.87448e-07
-0.000120511
-8.95027e-06
0.000119412
1.07365e-05
-0.000113165
1.04914e-05
-9.06364e-08
0.000113376
-1.12994e-05
-4.84606e-07
-8.9117e-06
1.0663e-05
1.04313e-05
-8.25373e-08
-1.11649e-05
-6.88109e-06
-0.000121034
0.000118965
-0.000103622
2.40315e-06
0.000104829
-6.50542e-06
2.3761e-06
5.92184e-07
-0.000110511
-7.34966e-07
0.000110815
-2.51625e-07
-0.000110789
-4.73472e-07
1.07373e-07
0.000110788
9.59123e-07
5.20215e-07
-7.09859e-07
-2.14637e-07
-5.91464e-07
8.24141e-08
1.07931e-06
6.23593e-07
-9.95327e-05
0.000100577
-0.000103144
1.22742e-07
0.000103171
5.71261e-07
8.9594e-08
1.26187e-10
-0.000111752
-5.84743e-07
0.000111521
9.22446e-07
-0.000111751
-5.84749e-07
-1.07062e-07
0.000111521
9.22402e-07
7.70832e-11
-6.87972e-07
1.07168e-06
-6.87965e-07
-8.22531e-08
1.07165e-06
8.74469e-11
-0.000106754
0.000106292
-0.000106753
-1.22047e-07
0.000106291
9.41591e-11
-8.94119e-08
-5.92052e-07
-0.000110788
-4.73268e-07
0.000110787
9.59009e-07
-0.00011051
-7.3479e-07
9.07506e-08
0.000110814
-2.51845e-07
-5.20137e-07
-5.91381e-07
1.07923e-06
-7.0979e-07
8.26115e-08
-2.14791e-07
-6.23485e-07
-0.000103143
0.000103171
-9.95313e-05
-2.40335e-06
0.000100576
-5.71166e-07
-2.37618e-06
6.87309e-07
-0.000113163
1.04919e-05
0.000113374
-1.12997e-05
-0.00012051
-8.95062e-06
0.000119411
1.07369e-05
4.84498e-07
1.04317e-05
-1.11652e-05
-8.91218e-06
1.06635e-05
6.88119e-06
-0.00010362
0.000104828
-0.000121034
0.000118964
6.50559e-06
-9.80456e-07
-0.000118463
-8.81982e-06
0.000117623
1.0641e-05
-0.000113503
1.03131e-05
-1.57714e-07
0.000113558
-1.11916e-05
-8.40698e-07
-8.79791e-06
1.05877e-05
1.03098e-05
-1.2099e-07
-1.11564e-05
-7.28667e-06
-0.000117214
0.00011568
-0.00010573
2.3539e-06
0.000106403
-7.04672e-06
2.36168e-06
6.80846e-07
-0.000111074
-8.42854e-07
0.000111287
-2.09193e-07
-0.000110817
-3.70768e-07
1.50524e-07
0.000110859
8.59072e-07
6.37093e-07
-7.75933e-07
-2.41088e-07
-4.00957e-07
1.29082e-07
8.80025e-07
6.88731e-07
-0.00010151
0.000102333
-0.000103282
1.63353e-07
0.000103437
6.52518e-07
1.40363e-07
7.80537e-11
-0.00011135
-4.4977e-07
0.000111218
7.32051e-07
-0.00011135
-4.49524e-07
-1.50567e-07
0.000111218
7.32014e-07
1.249e-10
-5.00919e-07
8.00721e-07
-5.0156e-07
-1.28177e-07
8.00687e-07
8.68364e-10
-0.000105934
0.000105646
-0.000105934
-1.60426e-07
0.000105645
-2.09908e-09
-1.46505e-07
-6.80739e-07
-0.000110816
-3.71007e-07
0.000110858
8.58996e-07
-0.000111073
-8.42878e-07
1.57877e-07
0.000111286
-2.09383e-07
-6.36966e-07
-3.99777e-07
8.79838e-07
-7.75318e-07
1.20955e-07
-2.41326e-07
-6.87567e-07
-0.00010328
0.000103436
-0.000101509
-2.35364e-06
0.000102332
-6.55483e-07
-2.36299e-06
9.80313e-07
-0.000113501
1.03136e-05
0.000113557
-1.11918e-05
-0.000118462
-8.82034e-06
0.000117621
1.06416e-05
8.40469e-07
1.03104e-05
-1.11568e-05
-8.79837e-06
1.05881e-05
7.28691e-06
-0.000105729
0.000106402
-0.000117212
0.000115679
7.04645e-06
-1.17536e-06
-0.000116878
-8.67139e-06
0.000116202
1.05228e-05
-0.000113556
1.00761e-05
-2.26982e-07
0.0001135
-1.09682e-05
-1.07719e-06
-8.6575e-06
1.04794e-05
1.00965e-05
-1.91171e-07
-1.09803e-05
-7.49007e-06
-0.000114359
0.000113178
-0.000106871
2.27031e-06
0.000107187
-7.33616e-06
2.29164e-06
7.24082e-07
-0.000111452
-9.65757e-07
0.000111575
-1.07921e-07
-0.000110901
-3.65645e-07
1.8437e-07
0.000110934
8.72675e-07
7.00048e-07
-8.97112e-07
-1.58855e-07
-3.57513e-07
1.67107e-07
8.48741e-07
7.20983e-07
-0.000103026
0.00010361
-0.000103606
1.88349e-07
0.000103773
7.01081e-07
1.74562e-07
1.25942e-11
-0.000111114
-3.79229e-07
0.000111025
6.53103e-07
-0.000111114
-3.79193e-07
-1.84342e-07
0.000111024
6.53065e-07
2.2505e-11
-4.05029e-07
6.76276e-07
-4.05019e-07
-1.67069e-07
6.7625e-07
1.4771e-11
-0.000105416
0.000105225
-0.000105415
-1.883e-07
0.000105224
-1.68022e-11
-1.74846e-07
-7.23952e-07
-0.0001109
-3.6559e-07
0.000110933
8.72552e-07
-0.000111451
-9.65739e-07
2.27061e-07
0.000111574
-1.07792e-07
-6.99995e-07
-3.57457e-07
8.48662e-07
-8.97093e-07
1.91298e-07
-1.59012e-07
-7.20961e-07
-0.000103605
0.000103772
-0.000103025
-2.27035e-06
0.000103609
-7.01111e-07
-2.29167e-06
1.17515e-06
-0.000113555
1.00765e-05
0.000113499
-1.09685e-05
-0.000116876
-8.67218e-06
0.0001162
1.05237e-05
1.07702e-06
1.00969e-05
-1.09805e-05
-8.65828e-06
1.04802e-05
7.49024e-06
-0.000106871
0.000107186
-0.000114357
0.000113175
7.33633e-06
-1.30368e-06
-0.000115587
-8.50738e-06
0.000115015
1.03827e-05
-0.0001134
9.81334e-06
-2.82438e-07
0.000113254
-1.06887e-05
-1.23337e-06
-8.49841e-06
1.03469e-05
9.84109e-06
-2.54094e-07
-1.07206e-05
-7.55872e-06
-0.00011214
0.000111192
-0.000107366
2.17777e-06
0.000107442
-7.46097e-06
2.20157e-06
7.342e-07
-0.000111646
-1.08019e-06
0.000111672
3.73432e-08
-0.000110949
-3.98751e-07
2.07892e-07
0.000110944
9.30551e-07
7.24821e-07
-1.01511e-06
-3.52777e-08
-3.75679e-07
1.95291e-07
8.89417e-07
7.29707e-07
-0.000104076
0.000104444
-0.000103922
2.04498e-07
0.000104049
7.20456e-07
1.95589e-07
-2.47719e-11
-0.000110943
-3.43542e-07
0.000110859
6.35136e-07
-0.000110942
-3.43474e-07
-2.07954e-07
0.000110859
6.35098e-07
-1.19086e-11
-3.5431e-07
6.31775e-07
-3.54257e-07
-1.95317e-07
6.31736e-07
-2.10473e-11
-0.000105066
0.000104927
-0.000105066
-2.04558e-07
0.000104927
-9.68447e-12
-1.95611e-07
-7.34162e-07
-0.000110948
-3.9861e-07
0.000110943
9.30442e-07
-0.000111645
-1.08009e-06
2.82902e-07
0.000111671
3.71095e-08
-7.24765e-07
-3.75572e-07
8.893e-07
-1.01501e-06
2.54338e-07
-3.54908e-08
-7.29796e-07
-0.000103921
0.000104048
-0.000104075
-2.17788e-06
0.000104443
-7.20482e-07
-2.2016e-06
1.30331e-06
-0.0001134
9.81376e-06
0.000113255
-1.06895e-05
-0.000115584
-8.5083e-06
0.000115012
1.03839e-05
1.23315e-06
9.84151e-06
-1.0721e-05
-8.49954e-06
1.03481e-05
7.55943e-06
-0.000107365
0.000107442
-0.000112137
0.000111188
7.46128e-06
-1.38313e-06
-0.00011448
-8.32224e-06
0.000113969
1.02163e-05
-0.000113077
9.53589e-06
-3.2018e-07
0.000112863
-1.03842e-05
-1.33588e-06
-8.32572e-06
1.01967e-05
9.57371e-06
-3.00462e-07
-1.04319e-05
-7.53325e-06
-0.000110345
0.000109556
-0.000107428
2.08548e-06
0.000107345
-7.47863e-06
2.10956e-06
7.21524e-07
-0.000111658
-1.18782e-06
0.00011159
2.14176e-07
-0.000110914
-4.46755e-07
2.2279e-07
0.000110856
1.00363e-06
7.23304e-07
-1.12436e-06
1.14729e-07
-4.17699e-07
2.14049e-07
9.56639e-07
7.21329e-07
-0.000104709
0.000104885
-0.000104144
2.12059e-07
0.000104206
7.19964e-07
2.07122e-07
-2.00358e-11
-0.000110769
-3.3185e-07
0.000110668
6.56318e-07
-0.000110769
-3.3183e-07
-2.22901e-07
0.000110667
6.56342e-07
-2.13209e-11
-3.31825e-07
6.35373e-07
-3.31771e-07
-2.14136e-07
6.35359e-07
-3.07083e-11
-0.000104802
0.000104683
-0.000104802
-2.12199e-07
0.000104682
-2.84429e-11
-2.07219e-07
-7.21758e-07
-0.000110913
-4.4678e-07
0.000110855
1.00378e-06
-0.000111656
-1.188e-06
3.20441e-07
0.000111588
2.13972e-07
-7.23348e-07
-4.17606e-07
9.56626e-07
-1.12431e-06
3.00974e-07
1.14472e-07
-7.21733e-07
-0.000104143
0.000104206
-0.000104708
-2.08629e-06
0.000104885
-7.20154e-07
-2.10975e-06
1.38412e-06
-0.000113079
9.53998e-06
0.000112865
-1.0389e-05
-0.000114477
-8.32604e-06
0.000113967
1.02202e-05
1.33571e-06
9.57482e-06
-1.04336e-05
-8.32743e-06
1.01983e-05
7.5358e-06
-0.000107427
0.000107345
-0.00011034
0.00010955
7.47942e-06
-1.42724e-06
-0.000113479
-8.1351e-06
0.000113002
1.00398e-05
-0.000112624
9.25582e-06
-3.45067e-07
0.000112352
-1.00667e-05
-1.3934e-06
-8.14469e-06
1.00278e-05
9.30215e-06
-3.30651e-07
-1.01259e-05
-7.46011e-06
-0.00010884
0.000108165
-0.000107197
1.99985e-06
0.000106992
-7.42874e-06
2.02191e-06
6.97606e-07
-0.000111482
-1.27479e-06
0.000111333
3.80743e-07
-0.000110769
-4.99911e-07
2.30924e-07
0.000110652
1.08417e-06
7.03087e-07
-1.2222e-06
2.96708e-07
-4.68363e-07
2.25388e-07
1.03282e-06
7.02943e-07
-0.000104979
0.000105001
-0.000104233
2.13284e-07
0.000104223
7.06084e-07
2.11276e-07
4.70652e-11
-0.000110552
-3.38031e-07
0.000110416
7.0489e-07
-0.000110551
-3.38141e-07
-2.30855e-07
0.000110415
7.04981e-07
1.17814e-11
-3.29724e-07
6.71222e-07
-3.29763e-07
-2.25433e-07
6.71285e-07
1.31093e-13
-0.000104564
0.000104439
-0.000104564
-2.13428e-07
0.000104439
-1.66326e-11
-2.11436e-07
-6.97906e-07
-0.000110768
-5.00266e-07
0.000110651
1.08464e-06
-0.00011148
-1.27548e-06
3.4578e-07
0.000111331
3.80333e-07
-7.03378e-07
-4.68542e-07
1.03315e-06
-1.22264e-06
3.31108e-07
2.96509e-07
-7.03715e-07
-0.000104233
0.000104223
-0.000104979
-2.00239e-06
0.000105002
-7.06743e-07
-2.02376e-06
1.4316e-06
-0.000112624
9.26411e-06
0.000112349
-1.00753e-05
-0.000113478
-8.13816e-06
0.000113001
1.00474e-05
1.39668e-06
9.30835e-06
-1.01329e-05
-8.14875e-06
1.0034e-05
7.4631e-06
-0.000107197
0.000106996
-0.000108833
0.000108158
7.43231e-06
-1.45054e-06
-0.000112535
-7.95063e-06
0.000112064
9.87135e-06
-0.000112057
8.97747e-06
-3.62844e-07
0.000111732
-9.74013e-06
-1.4281e-06
-7.96108e-06
9.85641e-06
9.02593e-06
-3.50949e-07
-9.80747e-06
-7.34393e-06
-0.000107538
0.000106931
-0.000106744
1.92111e-06
0.000106456
-7.33438e-06
1.94024e-06
6.68876e-07
-0.00011115
-1.34117e-06
0.000110928
5.31443e-07
-0.000110504
-5.54562e-07
2.32809e-07
0.000110325
1.17015e-06
6.76993e-07
-1.29783e-06
4.53299e-07
-5.21351e-07
2.30227e-07
1.11546e-06
6.80198e-07
-0.000104958
0.000104858
-0.000104176
2.10473e-07
0.000104091
6.84987e-07
2.10164e-07
-1.41641e-11
-0.00011026
-3.60104e-07
0.000110079
7.73538e-07
-0.00011026
-3.60329e-07
-2.329e-07
0.000110079
7.73731e-07
2.83352e-11
-3.43932e-07
7.29905e-07
-3.44124e-07
-2.30183e-07
7.30046e-07
3.52155e-12
-0.000104306
0.000104156
-0.000104306
-2.10542e-07
0.000104156
4.68241e-12
-2.1027e-07
-6.6957e-07
-0.000110504
-5.55348e-07
0.000110325
1.17099e-06
-0.000111149
-1.3432e-06
3.62106e-07
0.000110928
5.32307e-07
-6.77482e-07
-5.21955e-07
1.11613e-06
-1.29917e-06
3.51052e-07
4.53192e-07
-6.8061e-07
-0.000104176
0.000104091
-0.00010496
-1.92259e-06
0.000104859
-6.85617e-07
-1.94255e-06
1.45326e-06
-0.000112051
8.98097e-06
0.000111725
-9.74565e-06
-0.000112534
-7.95191e-06
0.000112065
9.87376e-06
1.43131e-06
9.03315e-06
-9.81558e-06
-7.96447e-06
9.86269e-06
7.34751e-06
-0.000106749
0.00010646
-0.000107532
0.000106927
7.338e-06
-1.45823e-06
-0.000111596
-7.79448e-06
0.000111121
9.72783e-06
-0.000111386
8.71269e-06
-3.71889e-07
0.000111008
-9.42064e-06
-1.44015e-06
-7.78809e-06
9.69685e-06
8.75314e-06
-3.64959e-07
-9.48285e-06
-7.21704e-06
-0.000106353
0.000105776
-0.000106132
1.85306e-06
0.000105775
-7.21009e-06
1.86697e-06
6.40457e-07
-0.000110676
-1.39811e-06
0.000110387
6.74053e-07
-0.000110117
-6.11279e-07
2.30996e-07
0.000109875
1.26279e-06
6.4783e-07
-1.35849e-06
5.97869e-07
-5.77397e-07
2.29953e-07
1.20355e-06
6.56795e-07
-0.000104705
0.000104503
-0.00010397
2.05285e-07
0.00010381
6.61875e-07
2.06033e-07
2.22787e-11
-0.000109875
-3.94805e-07
0.000109642
8.5904e-07
-0.000109875
-3.94831e-07
-2.30937e-07
0.000109642
8.59114e-07
-1.0494e-11
-3.72383e-07
8.06332e-07
-3.72556e-07
-2.30025e-07
8.06516e-07
1.88679e-11
-0.00010399
0.0001038
-0.000103989
-2.05173e-07
0.0001038
1.76566e-11
-2.06023e-07
-6.40262e-07
-0.000110117
-6.11433e-07
0.000109875
1.26314e-06
-0.000110677
-1.39884e-06
3.7182e-07
0.000110388
6.75457e-07
-6.48279e-07
-5.78061e-07
1.20435e-06
-1.36059e-06
3.63921e-07
5.99575e-07
-6.56369e-07
-0.000103969
0.000103809
-0.000104704
-1.85191e-06
0.000104501
-6.6199e-07
-1.86765e-06
1.45772e-06
-0.00011138
8.70888e-06
0.000111006
-9.42025e-06
-0.000111596
-7.78983e-06
0.000111119
9.72465e-06
1.44255e-06
8.75206e-06
-9.48637e-06
-7.78597e-06
9.69761e-06
7.21866e-06
-0.000106133
0.000105771
-0.000106352
0.000105781
7.21122e-06
-1.45149e-06
-0.000110635
-7.63257e-06
0.00011013
9.58842e-06
-0.000110612
8.43403e-06
-3.79087e-07
0.000110188
-9.08294e-06
-1.44216e-06
-7.6297e-06
9.55779e-06
8.4843e-06
-3.71392e-07
-9.15927e-06
-7.06562e-06
-0.000105217
0.000104651
-0.000105386
1.78848e-06
0.000104966
-7.07138e-06
1.8018e-06
6.10411e-07
-0.000110071
-1.4431e-06
0.000109718
8.06802e-07
-0.000109603
-6.67448e-07
2.25139e-07
0.000109295
1.36082e-06
6.19132e-07
-1.40762e-06
7.33534e-07
-6.32946e-07
2.26125e-07
1.29786e-06
6.31726e-07
-0.000104259
0.000103973
-0.000103615
1.98279e-07
0.000103381
6.37714e-07
1.9981e-07
-3.42942e-11
-0.000109382
-4.39664e-07
0.000109089
9.58234e-07
-0.000109382
-4.39515e-07
-2.25266e-07
0.000109088
9.58145e-07
6.24243e-12
-4.11916e-07
8.97996e-07
-4.11812e-07
-2.26091e-07
8.97938e-07
-4.40526e-11
-0.000103588
0.000103347
-0.000103588
-1.98378e-07
0.000103346
-4.204e-11
-1.99841e-07
-6.10477e-07
-0.000109602
-6.6702e-07
0.000109294
1.36051e-06
-0.000110071
-1.442e-06
3.78707e-07
0.000109717
8.06727e-07
-6.18744e-07
-6.3263e-07
1.29766e-06
-1.40706e-06
3.72063e-07
7.33819e-07
-6.31871e-07
-0.000103613
0.00010338
-0.000104256
-1.78849e-06
0.000103971
-6.37387e-07
-1.80026e-06
1.45103e-06
-0.000110613
8.43842e-06
0.000110186
-9.08298e-06
-0.000110633
-7.63641e-06
0.000110131
9.58946e-06
1.43861e-06
8.48158e-06
-9.15585e-06
-7.6281e-06
9.55282e-06
7.06694e-06
-0.000105378
0.000104961
-0.000105227
0.000104658
7.07412e-06
-1.43941e-06
-0.000109612
-7.50834e-06
0.000109073
9.48623e-06
-0.000109743
8.18091e-06
-3.8049e-07
0.000109258
-8.75465e-06
-1.43178e-06
-7.48541e-06
9.43609e-06
8.21787e-06
-3.76392e-07
-8.82758e-06
-6.91926e-06
-0.000104087
0.000103498
-0.00010452
1.73143e-06
0.000104051
-6.92184e-06
1.74144e-06
5.82861e-07
-0.000109337
-1.48455e-06
0.000108917
9.41015e-07
-0.000108956
-7.24989e-07
2.17749e-07
0.00010858
1.46659e-06
5.90128e-07
-1.4497e-06
8.64433e-07
-6.88992e-07
2.19296e-07
1.39816e-06
6.08298e-07
-0.000103651
0.00010329
-0.000103113
1.9107e-07
0.000102805
6.1367e-07
1.92798e-07
4.76703e-11
-0.000108766
-4.93261e-07
0.000108407
1.07022e-06
-0.000108766
-4.93274e-07
-2.17623e-07
0.000108407
1.07027e-06
6.30639e-12
-4.60787e-07
1.00248e-06
-4.60696e-07
-2.19331e-07
1.00247e-06
6.30378e-11
-0.000103079
0.000102776
-0.000103078
-1.90851e-07
0.000102776
7.38396e-11
-1.92583e-07
-5.82892e-07
-0.000108955
-7.25132e-07
0.000108579
1.4669e-06
-0.000109335
-1.4851e-06
3.79159e-07
0.000108916
9.42239e-07
-5.90365e-07
-6.88763e-07
1.39824e-06
-1.44915e-06
3.74976e-07
8.6533e-07
-6.07663e-07
-0.000103112
0.000102804
-0.000103649
-1.72994e-06
0.000103287
-6.13277e-07
-1.74072e-06
1.43548e-06
-0.000109736
8.17498e-06
0.000109255
-8.74941e-06
-0.000109615
-7.5064e-06
0.000109078
9.47889e-06
1.43147e-06
8.21821e-06
-8.82543e-06
-7.48634e-06
9.43395e-06
6.91564e-06
-0.000104519
0.000104048
-0.000104091
0.0001035
6.91971e-06
-1.41794e-06
-0.000108517
-7.39083e-06
0.000107934
9.39164e-06
-0.000108753
7.91965e-06
-3.77668e-07
0.00010821
-8.41734e-06
-1.41359e-06
-7.36749e-06
9.33741e-06
7.96408e-06
-3.75601e-07
-8.4972e-06
-6.76737e-06
-0.000102903
0.00010228
-0.000103556
1.67713e-06
0.000103031
-6.77262e-06
1.6863e-06
5.56906e-07
-0.000108468
-1.52923e-06
0.00010798
1.08269e-06
-0.000108172
-7.85938e-07
2.09156e-07
0.000107724
1.58188e-06
5.63763e-07
-1.49211e-06
1.00108e-06
-7.47537e-07
2.11325e-07
1.50773e-06
5.85137e-07
-0.000102893
0.000102456
-0.000102463
1.83349e-07
0.000102078
5.90388e-07
1.85256e-07
1.10389e-11
-0.000108017
-5.54244e-07
0.000107586
1.19361e-06
-0.000108016
-5.54207e-07
-2.09023e-07
0.000107586
1.19348e-06
1.46038e-11
-5.17701e-07
1.11929e-06
-5.17732e-07
-2.11239e-07
1.11927e-06
-9.46065e-11
-0.000102444
0.000102073
-0.000102444
-1.83508e-07
0.000102073
-6.57086e-11
-1.85362e-07
-5.55984e-07
-0.000108171
-7.85923e-07
0.000107723
1.58136e-06
-0.000108468
-1.52953e-06
3.79919e-07
0.000107979
1.08237e-06
-5.63397e-07
-7.47758e-07
1.50769e-06
-1.49273e-06
3.75843e-07
1.00155e-06
-5.85214e-07
-0.000102461
0.000102077
-0.00010289
-1.67722e-06
0.000102452
-5.90429e-07
-1.68608e-06
1.41681e-06
-0.00010875
7.91156e-06
0.000108211
-8.40871e-06
-0.000108519
-7.3814e-06
0.000107932
9.3853e-06
1.41269e-06
7.9608e-06
-8.49338e-06
-7.36278e-06
9.33395e-06
6.76197e-06
-0.000103552
0.000103024
-0.000102909
0.00010229
6.77159e-06
-1.39855e-06
-0.000107325
-7.27496e-06
0.000106682
9.31663e-06
-0.000107646
7.65629e-06
-3.7491e-07
0.000107041
-8.07515e-06
-1.39466e-06
-7.25484e-06
9.25835e-06
7.70827e-06
-3.72612e-07
-8.16601e-06
-6.6175e-06
-0.000101651
0.000100994
-0.000102476
1.62813e-06
0.000101887
-6.62627e-06
1.63659e-06
5.32604e-07
-0.000107463
-1.57794e-06
0.000106902
1.23099e-06
-0.000107243
-8.51079e-07
2.00154e-07
0.000106719
1.7077e-06
5.39129e-07
-1.53888e-06
1.14481e-06
-8.10229e-07
2.02684e-07
1.62748e-06
5.63997e-07
-0.000101985
0.000101471
-0.000101659
1.76217e-07
0.000101196
5.69032e-07
1.78072e-07
5.31691e-11
-0.000107123
-6.22057e-07
0.000106617
1.32844e-06
-0.000107123
-6.21909e-07
-2.00074e-07
0.000106617
1.32827e-06
4.04921e-11
-5.8171e-07
1.24747e-06
-5.81582e-07
-2.02517e-07
1.24728e-06
4.15381e-11
-0.00010167
0.000101224
-0.000101669
-1.76108e-07
0.000101223
1.06202e-11
-1.77951e-07
-5.32634e-07
-0.000107242
-8.50496e-07
0.000106718
1.70709e-06
-0.000107461
-1.57578e-06
3.74602e-07
0.0001069
1.22949e-06
-5.38442e-07
-8.09784e-07
1.62673e-06
-1.53772e-06
3.74277e-07
1.14358e-06
-5.64022e-07
-0.000101657
0.000101195
-0.000101982
-1.6289e-06
0.000101471
-5.68619e-07
-1.63596e-06
1.39628e-06
-0.000107648
7.65914e-06
0.00010704
-8.07296e-06
-0.000107323
-7.28039e-06
0.000106683
9.31742e-06
1.39152e-06
7.70276e-06
-8.15701e-06
-7.25209e-06
9.25239e-06
6.61038e-06
-0.000102473
0.000101893
-0.000101656
0.000100986
6.6179e-06
-1.37273e-06
-0.000106014
-7.18169e-06
0.000105309
9.25959e-06
-0.000106409
7.39626e-06
-3.67341e-07
0.000105733
-7.72545e-06
-1.3719e-06
-7.15022e-06
9.19018e-06
7.44885e-06
-3.67342e-07
-7.82123e-06
-6.46138e-06
-0.000100317
9.95969e-05
-0.000101273
1.58242e-06
0.000100626
-6.47393e-06
1.5888e-06
5.10722e-07
-0.000106311
-1.62797e-06
0.000105675
1.38592e-06
-0.000106161
-9.19259e-07
1.90963e-07
0.000105557
1.84263e-06
5.16104e-07
-1.58721e-06
1.29461e-06
-8.7604e-07
1.93546e-07
1.75627e-06
5.43721e-07
-0.000100925
0.000100335
-0.000100697
1.69079e-07
0.000100152
5.48155e-07
1.70873e-07
-4.52275e-11
-0.000106076
-6.95245e-07
0.000105489
1.47321e-06
-0.000106076
-6.95213e-07
-1.91084e-07
0.000105489
1.47318e-06
9.962e-12
-6.51508e-07
1.3857e-06
-6.51458e-07
-1.93554e-07
1.38563e-06
-4.17481e-11
-0.000100743
0.000100217
-0.000100743
-1.69165e-07
0.000100217
-1.81463e-11
-1.70971e-07
-5.1099e-07
-0.00010616
-9.19279e-07
0.000105557
1.84256e-06
-0.00010631
-1.62861e-06
3.66326e-07
0.000105675
1.38602e-06
-5.16315e-07
-8.75926e-07
1.75607e-06
-1.58706e-06
3.66618e-07
1.29413e-06
-5.43823e-07
-0.000100697
0.000100152
-0.000100925
-1.58206e-06
0.000100335
-5.48582e-07
-1.58995e-06
1.37295e-06
-0.000106409
7.39217e-06
0.000105735
-7.72471e-06
-0.000106012
-7.17807e-06
0.000105305
9.258e-06
1.37137e-06
7.44644e-06
-7.82088e-06
-7.14891e-06
9.19129e-06
6.46487e-06
-0.000101278
0.000100623
-0.000100308
9.9595e-05
6.47146e-06
-1.34595e-06
-0.000104568
-7.09076e-06
0.000103788
9.21766e-06
-0.000105034
7.12718e-06
-3.60036e-07
0.000104289
-7.36813e-06
-1.34631e-06
-7.05792e-06
9.14448e-06
7.18595e-06
-3.6031e-07
-7.47353e-06
-6.30817e-06
-9.88616e-05
9.8079e-05
-9.99432e-05
1.53985e-06
9.92224e-05
-6.32261e-06
1.54575e-06
4.90523e-07
-0.000105007
-1.6833e-06
0.000104291
1.5492e-06
-0.000104919
-9.9153e-07
1.82279e-07
0.000104231
1.98768e-06
4.95423e-07
-1.64031e-06
1.45254e-06
-9.45908e-07
1.84708e-07
1.89549e-06
5.25002e-07
-9.97116e-05
9.90432e-05
-9.95714e-05
1.62464e-07
9.89424e-05
5.29052e-07
1.64112e-07
-5.83171e-11
-0.000104866
-7.7376e-07
0.000104194
1.62865e-06
-0.000104866
-7.73698e-07
-1.82417e-07
0.000104193
1.6286e-06
-7.10099e-11
-7.26862e-07
1.53482e-06
-7.26791e-07
-1.84883e-07
1.53476e-06
-3.88556e-11
-9.96542e-05
9.9043e-05
-9.96541e-05
-1.62514e-07
9.90429e-05
-4.40602e-11
-1.6417e-07
-4.9053e-07
-0.000104918
-9.91289e-07
0.00010423
1.98737e-06
-0.000105007
-1.68218e-06
3.60235e-07
0.00010429
1.54848e-06
-4.95646e-07
-9.45656e-07
1.89522e-06
-1.6393e-06
3.59547e-07
1.45203e-06
-5.24937e-07
-9.95711e-05
9.89423e-05
-9.97115e-05
-1.53923e-06
9.90436e-05
-5.29004e-07
-1.54513e-06
1.346e-06
-0.000105033
7.12834e-06
0.000104286
-7.36712e-06
-0.000104568
-7.091e-06
0.000103788
9.21717e-06
1.34607e-06
7.18905e-06
-7.4736e-06
-7.0619e-06
9.14434e-06
6.30807e-06
-9.99422e-05
9.92232e-05
-9.88578e-05
9.80748e-05
6.3247e-06
-1.3199e-06
-0.000102974
-7.0163e-06
0.000102114
9.19589e-06
-0.000103511
6.86654e-06
-3.4982e-07
0.00010268
-7.00548e-06
-1.31975e-06
-6.97775e-06
9.111e-06
6.92524e-06
-3.51244e-07
-7.11565e-06
-6.15932e-06
-9.72727e-05
9.64157e-05
-9.84719e-05
1.49944e-06
9.76797e-05
-6.17142e-06
1.50436e-06
4.72812e-07
-0.000103541
-1.74141e-06
0.000102739
1.72026e-06
-0.000103506
-1.06761e-06
1.74291e-07
0.00010273
2.14233e-06
4.76539e-07
-1.69533e-06
1.61761e-06
-1.01897e-06
1.76398e-07
2.04331e-06
5.0737e-07
-9.83413e-05
9.75919e-05
-9.82767e-05
1.56309e-07
9.75601e-05
5.10942e-07
1.57753e-07
1.33983e-11
-0.000103484
-8.57255e-07
0.000102721
1.79416e-06
-0.000103483
-8.57261e-07
-1.74337e-07
0.000102721
1.79419e-06
-2.10426e-11
-8.06885e-07
1.69332e-06
-8.06868e-07
-1.76489e-07
1.69331e-06
-1.09123e-12
-9.83938e-05
9.76929e-05
-9.83938e-05
-1.56337e-07
9.76928e-05
-1.9519e-11
-1.57793e-07
-4.7289e-07
-0.000103506
-1.06763e-06
0.00010273
2.14232e-06
-0.00010354
-1.74098e-06
3.49482e-07
0.000102739
1.71991e-06
-4.76568e-07
-1.0189e-06
2.04314e-06
-1.6948e-06
3.51318e-07
1.6169e-06
-5.07459e-07
-9.82765e-05
9.756e-05
-9.83417e-05
-1.49906e-06
9.75923e-05
-5.10949e-07
-1.50383e-06
1.32076e-06
-0.00010351
6.86565e-06
0.000102681
-7.00758e-06
-0.000102974
-7.015e-06
0.000102114
9.19576e-06
1.32003e-06
6.92414e-06
-7.11666e-06
-6.97623e-06
9.11071e-06
6.15886e-06
-9.84727e-05
9.76804e-05
-9.72695e-05
9.64133e-05
6.17086e-06
-1.29281e-06
-0.000101221
-6.9549e-06
0.000100282
9.18737e-06
-0.000101819
6.60226e-06
-3.38697e-07
0.000100901
-6.6382e-06
-1.29228e-06
-6.90947e-06
9.09487e-06
6.66342e-06
-3.41038e-07
-6.75328e-06
-6.01346e-06
-9.55317e-05
9.45902e-05
-9.68529e-05
1.46024e-06
9.59815e-05
-6.0254e-06
1.46475e-06
4.56715e-07
-0.000101903
-1.80424e-06
0.000101012
1.89959e-06
-0.000101917
-1.14804e-06
1.66861e-07
0.000101048
2.30661e-06
4.59853e-07
-1.75533e-06
1.79065e-06
-1.09645e-06
1.68802e-07
2.20118e-06
4.90745e-07
-9.68074e-05
9.59726e-05
-9.68058e-05
1.50515e-07
9.59979e-05