/*--------------------------------*- C++ -*----------------------------------*\
  =========                 |
  \\      /  F ield         | OpenFOAM: The Open Source CFD Toolbox
   \\    /   O peration     | Website:  https://openfoam.org
    \\  /    A nd           | Version:  9
     \\/     M anipulation  |
\*---------------------------------------------------------------------------*/
FoamFile
{
    format      ascii;
    class       volVectorField;
    location    "1.3";
    object      U;
}
// * * * * * * * * * * * * * * * * * * * * * * * * * * * * * * * * * * * * * //

dimensions      [0 1 -1 0 0 0 0];

internalField   nonuniform List<vector> 
36360
(
(-0.00427264 -0.282588 -0.989097)
(-0.000670535 -0.162511 0.000443006)
(-0.0090766 -0.280037 -1.00227)
(0.000321038 -0.149732 9.74303e-05)
(-0.00346853 -0.291421 -0.99464)
(0.0277688 -0.167944 1.24747e-05)
(-0.00125698 -0.28271 -1.00351)
(0.0315321 -0.192814 9.48368e-05)
(-0.00278576 -0.195782 -0.00033496)
(-0.00658021 -0.209758 -2.15531e-05)
(-0.0067867 -0.195332 -0.000120153)
(-0.00630197 -0.207128 -2.10325e-06)
(0.0133905 -0.216755 7.0956e-06)
(0.00929374 -0.222249 -9.9703e-06)
(0.0144871 -0.221693 -0.000121277)
(0.012402 -0.224975 -7.72894e-06)
(-0.00556039 -0.213013 2.64202e-06)
(-0.0055604 -0.213012 -2.63272e-06)
(-0.00581502 -0.210701 -4.12844e-07)
(-0.00581501 -0.2107 4.16414e-07)
(0.00926318 -0.222285 -3.11811e-06)
(0.00926318 -0.222284 3.12748e-06)
(0.0121688 -0.225217 2.35224e-07)
(0.0121688 -0.225216 -2.32211e-07)
(-0.00658009 -0.209756 2.15616e-05)
(-0.00278553 -0.195779 0.000334956)
(-0.00630192 -0.207126 2.10627e-06)
(-0.00678662 -0.195329 0.000120149)
(0.00929376 -0.222247 9.97764e-06)
(0.0133906 -0.21675 -7.09777e-06)
(0.012402 -0.224973 7.73118e-06)
(0.014487 -0.221688 0.000121273)
(-0.000670021 -0.162508 -0.000443014)
(-0.00427336 -0.282588 0.989097)
(0.000320796 -0.149728 -9.74293e-05)
(-0.00907567 -0.280037 1.00227)
(0.0277692 -0.167939 -1.24927e-05)
(-0.00346856 -0.291422 0.99464)
(0.0315319 -0.192809 -9.48372e-05)
(-0.00125645 -0.282712 1.00351)
(0.01275 -0.261381 -0.968136)
(-0.0139128 -0.194938 0.000982113)
(0.00718489 -0.272207 -0.978713)
(-0.00809839 -0.183721 0.000861372)
(0.00960963 -0.286924 -0.992335)
(-0.0025558 -0.15632 -0.000384239)
(0.00669092 -0.294208 -0.992333)
(0.0102328 -0.149719 -0.000176388)
(0.00452344 -0.202419 -0.000468405)
(0.000909596 -0.211682 -4.54791e-05)
(0.0035948 -0.199167 -0.000505321)
(-0.00383164 -0.211306 -3.87722e-05)
(0.0156407 -0.194043 0.000430979)
(0.00761516 -0.21621 -1.93464e-06)
(0.0161465 -0.205745 0.000194066)
(0.00737203 -0.219111 -1.22719e-05)
(-0.00390331 -0.217152 -4.92763e-06)
(-0.00390313 -0.217151 4.95041e-06)
(-0.00549539 -0.216158 -2.98753e-07)
(-0.00549536 -0.216157 3.14418e-07)
(0.00543173 -0.217915 -1.4183e-05)
(0.00543165 -0.217914 1.42064e-05)
(0.0071483 -0.21857 -9.74202e-06)
(0.00714823 -0.218569 9.75817e-06)
(0.000909953 -0.21168 4.54946e-05)
(0.00452356 -0.202416 0.000468409)
(-0.0038314 -0.211303 3.87847e-05)
(0.00359511 -0.199163 0.000505326)
(0.0076152 -0.216207 1.9489e-06)
(0.0156407 -0.194038 -0.000430999)
(0.00737199 -0.219108 1.22834e-05)
(0.0161467 -0.20574 -0.000194076)
(-0.0139131 -0.194935 -0.000982152)
(0.0127498 -0.26138 0.968136)
(-0.00809834 -0.183718 -0.000861395)
(0.00718469 -0.272207 0.978712)
(-0.00255661 -0.156315 0.00038421)
(0.00960948 -0.286926 0.992335)
(0.0102323 -0.149714 0.000176362)
(0.00669068 -0.29421 0.992333)
(0.0191481 -0.248715 -0.954869)
(-0.0194902 -0.20641 0.000671593)
(0.0169081 -0.254514 -0.960396)
(-0.0173862 -0.201898 0.000867873)
(0.0149299 -0.266546 -0.992316)
(-0.0154794 -0.169469 -0.00106174)
(0.0127914 -0.275519 -0.993607)
(-0.0108556 -0.16245 -0.00068559)
(0.00208345 -0.205936 -0.000180046)
(0.00337695 -0.212231 -1.91945e-05)
(0.00346168 -0.204623 -0.000335994)
(0.0029578 -0.212193 -4.21887e-05)
(0.00762686 -0.183051 0.00108718)
(0.00613657 -0.205501 8.87987e-05)
(0.0113418 -0.186681 0.000757676)
(0.00766555 -0.210888 3.20803e-05)
(0.00162433 -0.216574 -1.39473e-05)
(0.00162449 -0.216573 1.39799e-05)
(-0.000588945 -0.217139 -7.91855e-06)
(-0.000588677 -0.217138 7.94702e-06)
(0.00408576 -0.215141 -1.20498e-05)
(0.00408592 -0.215139 1.20859e-05)
(0.00404578 -0.217202 -1.31266e-05)
(0.00404586 -0.217201 1.31566e-05)
(0.00337712 -0.212228 1.92127e-05)
(0.00208338 -0.205933 0.000180045)
(0.0029581 -0.212191 4.22052e-05)
(0.00346173 -0.20462 0.000335995)
(0.00613677 -0.205498 -8.8783e-05)
(0.00762681 -0.183046 -0.00108723)
(0.00766576 -0.210885 -3.20647e-05)
(0.0113419 -0.186676 -0.000757711)
(-0.0194905 -0.206407 -0.000671642)
(0.0191484 -0.248714 0.954868)
(-0.0173865 -0.201895 -0.000867919)
(0.0169083 -0.254513 0.960396)
(-0.0154805 -0.169465 0.00106173)
(0.0149303 -0.266548 0.992316)
(-0.0108565 -0.162446 0.000685566)
(0.0127917 -0.275521 0.993607)
(0.0210191 -0.239373 -0.946756)
(-0.0216053 -0.211508 0.000225395)
(0.0203479 -0.243665 -0.950251)
(-0.0207898 -0.20943 0.000449372)
(0.0165612 -0.249916 -0.990531)
(-0.0195546 -0.182729 -0.00181478)
(0.0160011 -0.257886 -0.991297)
(-0.0180816 -0.176495 -0.00144775)
(0.000252118 -0.207536 6.82707e-05)
(0.00258393 -0.211399 0.000106384)
(0.00100315 -0.20681 -3.9689e-05)
(0.00312922 -0.211917 3.26873e-05)
(0.00426655 -0.182553 0.00160802)
(0.00302461 -0.198884 0.000252841)
(0.00545349 -0.182016 0.00137448)
(0.00438705 -0.20154 0.000164182)
(0.0023256 -0.214928 -2.7583e-06)
(0.00232562 -0.214927 2.80361e-06)
(0.00238128 -0.215812 -1.48805e-05)
(0.00238135 -0.215811 1.49182e-05)
(0.00272598 -0.208554 1.49151e-06)
(0.00272604 -0.208552 -1.42934e-06)
(0.00370108 -0.211524 -8.81546e-06)
(0.00370119 -0.211523 8.85869e-06)
(0.00258389 -0.211397 -0.000106361)
(0.000251913 -0.207533 -6.82681e-05)
(0.00312928 -0.211915 -3.26672e-05)
(0.00100304 -0.206807 3.96875e-05)
(0.00302464 -0.198881 -0.000252834)
(0.00426643 -0.182548 -0.00160811)
(0.00438717 -0.201537 -0.000164166)
(0.00545343 -0.182011 -0.00137455)
(-0.0216057 -0.211505 -0.000225448)
(0.0210197 -0.239372 0.946754)
(-0.0207901 -0.209428 -0.000449425)
(0.0203485 -0.243664 0.950249)
(-0.0195559 -0.182726 0.00181479)
(0.0165618 -0.249917 0.99053)
(-0.0180826 -0.176492 0.00144775)
(0.0160018 -0.257888 0.991296)
(0.0216535 -0.232695 -0.941108)
(-0.0224939 -0.214003 -0.000185938)
(0.0214072 -0.235756 -0.943521)
(-0.022137 -0.212965 1.09372e-05)
(0.0170171 -0.237108 -0.989321)
(-0.0209639 -0.192145 -0.00245138)
(0.0168371 -0.242993 -0.989844)
(-0.0204101 -0.187932 -0.0021508)
(-0.000586472 -0.209018 0.000194073)
(0.00164294 -0.210683 0.000263908)
(-0.00025273 -0.208272 0.000144436)
(0.00205735 -0.210972 0.000187022)
(0.00344935 -0.186013 0.00192364)
(0.0014585 -0.196408 0.000434253)
(0.00364172 -0.184036 0.00178869)
(0.00208171 -0.19728 0.000345399)
(0.00170089 -0.213226 3.86205e-05)
(0.00170086 -0.213225 -3.8542e-05)
(0.00201743 -0.214025 1.6303e-05)
(0.00201743 -0.214024 -1.62476e-05)
(0.00147038 -0.204611 3.75962e-05)
(0.00147038 -0.20461 -3.74778e-05)
(0.00197045 -0.206303 1.76513e-05)
(0.00197048 -0.206301 -1.75758e-05)
(0.00164281 -0.210681 -0.000263861)
(-0.000586756 -0.209015 -0.000194031)
(0.00205727 -0.210969 -0.00018699)
(-0.000252955 -0.20827 -0.000144421)
(0.00145847 -0.196405 -0.000434204)
(0.0034493 -0.186009 -0.0019237)
(0.0020817 -0.197276 -0.000345377)
(0.00364161 -0.184033 -0.00178877)
(-0.0224944 -0.214 0.0001859)
(0.0216543 -0.232693 0.941105)
(-0.0221374 -0.212962 -1.0989e-05)
(0.021408 -0.235755 0.943519)
(-0.0209653 -0.192142 0.00245143)
(0.0170179 -0.237109 0.98932)
(-0.0204113 -0.187929 0.00215083)
(0.0168381 -0.242994 0.989843)
(0.0219667 -0.227864 -0.937064)
(-0.0228631 -0.215247 -0.000516186)
(0.0218236 -0.230094 -0.938719)
(-0.0227254 -0.214741 -0.000358717)
(0.0171809 -0.227913 -0.988451)
(-0.0215174 -0.198093 -0.00294359)
(0.0170975 -0.232134 -0.988817)
(-0.021304 -0.195488 -0.00271461)
(-0.000792643 -0.210282 0.000233364)
(0.00118295 -0.210486 0.000388622)
(-0.000757588 -0.209687 0.000221803)
(0.0013536 -0.210528 0.00032857)
(0.00361582 -0.190155 0.00208747)
(0.000771841 -0.195976 0.000585685)
(0.0035102 -0.188117 0.00202061)
(0.00104486 -0.19603 0.000514747)
(0.00125453 -0.21208 8.5095e-05)
(0.00125448 -0.21208 -8.48199e-05)
(0.00144509 -0.212579 6.21825e-05)
(0.00144505 -0.212578 -6.20462e-05)
(0.000937186 -0.202342 8.08443e-05)
(0.000937196 -0.20234 -8.02721e-05)
(0.00115156 -0.203326 5.90284e-05)
(0.00115157 -0.203325 -5.87929e-05)
(0.00118266 -0.210484 -0.00038842)
(-0.000793091 -0.21028 -0.000233219)
(0.00135345 -0.210526 -0.000328488)
(-0.000757884 -0.209685 -0.0002217)
(0.000771692 -0.195974 -0.000585181)
(0.00361576 -0.190153 -0.00208756)
(0.00104482 -0.196027 -0.000514612)
(0.00351024 -0.188115 -0.00202064)
(-0.0228637 -0.215245 0.00051613)
(0.0219675 -0.227861 0.937061)
(-0.0227258 -0.214739 0.000358685)
(0.0218246 -0.230092 0.938716)
(-0.021519 -0.198091 0.00294353)
(0.0171817 -0.227912 0.98845)
(-0.0213053 -0.195486 0.00271467)
(0.0170986 -0.232134 0.988816)
(0.0221863 -0.224242 -0.934186)
(-0.0229469 -0.215733 -0.000777857)
(0.022082 -0.225932 -0.935301)
(-0.0229295 -0.215563 -0.000655497)
(0.0172415 -0.221203 -0.987827)
(-0.0217004 -0.20157 -0.0033076)
(0.0172035 -0.224308 -0.98808)
(-0.0216235 -0.200083 -0.0031405)
(-0.000624547 -0.211265 0.000228453)
(0.00108616 -0.210593 0.000481936)
(-0.000735395 -0.210815 0.000234424)
(0.00110439 -0.21052 0.000439795)
(0.00388972 -0.193698 0.00215653)
(0.000508131 -0.196386 0.000694944)
(0.00375286 -0.192033 0.00212975)
(0.000604779 -0.196124 0.000647189)
(0.00103133 -0.211427 0.000124668)
(0.00103109 -0.211427 -0.000124563)
(0.00112112 -0.211708 0.000106192)
(0.00112161 -0.211707 -0.0001057)
(0.000662075 -0.200978 0.000120258)
(0.00066186 -0.200978 -0.000120205)
(0.000780258 -0.201579 0.000101993)
(0.000780818 -0.201579 -0.000100632)
(0.00108625 -0.210591 -0.000481872)
(-0.000624777 -0.211262 -0.000228279)
(0.00110328 -0.210518 -0.000439317)
(-0.000736289 -0.210813 -0.000234357)
(0.000508308 -0.196383 -0.000695598)
(0.00388979 -0.193696 -0.00215587)
(0.000603868 -0.196121 -0.000643954)
(0.00375243 -0.19203 -0.00213157)
(-0.0229474 -0.21573 0.000777849)
(0.0221875 -0.224239 0.934182)
(-0.0229301 -0.21556 0.000655295)
(0.0220831 -0.22593 0.935297)
(-0.0217021 -0.201567 0.00330795)
(0.0172426 -0.2212 0.987826)
(-0.0216252 -0.20008 0.00313944)
(0.0172047 -0.224306 0.988078)
(0.022339 -0.221402 -0.932133)
(-0.0228816 -0.215724 -0.000978265)
(0.022267 -0.222745 -0.932856)
(-0.0229257 -0.215781 -0.000884798)
(0.0172285 -0.216135 -0.987378)
(-0.021697 -0.203386 -0.00356927)
(0.0172234 -0.218504 -0.987547)
(-0.0217008 -0.202646 -0.0034495)
(-0.000330899 -0.211896 0.000204131)
(0.00115556 -0.21075 0.000542948)
(-0.000482811 -0.211624 0.000217724)
(0.00110878 -0.210676 0.000515985)
(0.00413789 -0.196343 0.00217045)
(0.000446191 -0.197022 0.000766013)
(0.00402006 -0.195133 0.00216813)
(0.000460931 -0.196699 0.000735057)
(0.000936981 -0.211029 0.000153904)
(0.00093691 -0.211029 -0.000153872)
(0.000972715 -0.211209 0.000140592)
(0.000972678 -0.211208 -0.000140541)
(0.000495226 -0.2001 0.000150834)
(0.000495162 -0.200099 -0.000150822)
(0.000569557 -0.200495 0.000136803)
(0.000569539 -0.200494 -0.000136746)
(0.0011554 -0.210749 -0.000542839)
(-0.000331245 -0.211894 -0.000204033)
(0.00110865 -0.210675 -0.000515925)
(-0.00048307 -0.211621 -0.000217626)
(0.000446084 -0.197019 -0.000766024)
(0.00413778 -0.196341 -0.00217047)
(0.000460882 -0.196697 -0.000734998)
(0.0040201 -0.195131 -0.00216818)
(-0.022882 -0.215722 0.000978126)
(0.0223408 -0.221398 0.93213)
(-0.022926 -0.215779 0.00088474)
(0.0222687 -0.222741 0.932853)
(-0.0216988 -0.203385 0.00356937)
(0.0172301 -0.21613 0.987378)
(-0.0217023 -0.202645 0.00344959)
(0.0172251 -0.218501 0.987546)
(0.0224359 -0.219054 -0.930627)
(-0.0227526 -0.215342 -0.00112803)
(0.0223897 -0.220183 -0.931086)
(-0.0228193 -0.215573 -0.00105841)
(0.0171649 -0.21215 -0.98705)
(-0.0215833 -0.204093 -0.00375247)
(0.0171809 -0.214034 -0.987161)
(-0.0216321 -0.203851 -0.00366907)
(-4.77872e-05 -0.212173 0.000173127)
(0.00128341 -0.21081 0.000576828)
(-0.000185282 -0.212079 0.000188948)
(0.00121576 -0.210798 0.000562642)
(0.00437834 -0.198126 0.00215536)
(0.000479537 -0.197587 0.000805579)
(0.00426138 -0.197336 0.00216536)
(0.000455251 -0.197324 0.000789098)
(0.000917346 -0.210715 0.000173023)
(0.000917261 -0.210714 -0.000173096)
(0.000919516 -0.21087 0.00016457)
(0.000919437 -0.210869 -0.000164602)
(0.000388735 -0.199493 0.000171617)
(0.00038855 -0.199492 -0.000171719)
(0.000435599 -0.199772 0.000162364)
(0.000435475 -0.199772 -0.000162415)
(0.00128325 -0.210808 -0.000576854)
(-4.7988e-05 -0.21217 -0.000172908)
(0.00121558 -0.210797 -0.00056263)
(-0.000185555 -0.212077 -0.000188822)
(0.000479084 -0.197585 -0.000805716)
(0.00437758 -0.198124 -0.00215552)
(0.000454963 -0.197322 -0.000789161)
(0.00426087 -0.197334 -0.0021654)
(-0.0227527 -0.215341 0.00112798)
(0.0224379 -0.219049 0.930624)
(-0.0228195 -0.215571 0.00105836)
(0.0223921 -0.220179 0.931083)
(-0.0215862 -0.204091 0.00375288)
(0.0171676 -0.212143 0.98705)
(-0.0216342 -0.203851 0.00366926)
(0.0171836 -0.214028 0.98716)
(0.0224841 -0.217025 -0.929458)
(-0.0226084 -0.214654 -0.00123679)
(0.0224576 -0.218011 -0.929773)
(-0.0226787 -0.215032 -0.00118749)
(0.0170398 -0.208897 -0.986802)
(-0.0213804 -0.204051 -0.00387511)
(0.0170848 -0.210451 -0.986879)
(-0.0214666 -0.204146 -0.00381912)
(0.000196613 -0.212104 0.00014078)
(0.00142987 -0.210696 0.000590283)
(8.40759e-05 -0.212183 0.000157235)
(0.00135594 -0.210778 0.000586011)
(0.0046361 -0.199141 0.00212501)
(0.000560637 -0.197949 0.000822403)
(0.00450902 -0.198724 0.00214146)
(0.000516542 -0.197798 0.000816339)
(0.000951779 -0.210373 0.000184029)
(0.000951805 -0.210373 -0.000184138)
(0.000928673 -0.210553 0.0001794)
(0.000928629 -0.210552 -0.000179497)
(0.000329894 -0.199015 0.00018412)
(0.000329762 -0.199015 -0.000184282)
(0.000354051 -0.199245 0.00017878)
(0.00035387 -0.199245 -0.000178913)
(0.00143015 -0.210693 -0.000590536)
(0.000197255 -0.2121 -0.000140911)
(0.00135594 -0.210776 -0.000586109)
(8.42718e-05 -0.21218 -0.000157038)
(0.000560423 -0.197948 -0.000822865)
(0.00463573 -0.19914 -0.0021261)
(0.000516113 -0.197797 -0.00081659)
(0.00450803 -0.198723 -0.00214193)
(-0.022608 -0.214659 0.00123753)
(0.0224848 -0.217019 0.929449)
(-0.0226781 -0.215035 0.00118761)
(0.0224595 -0.218004 0.929769)
(-0.0213981 -0.204051 0.00387591)
(0.0170578 -0.208886 0.986801)
(-0.0214719 -0.204144 0.00381913)
(0.0170915 -0.210444 0.986879)
(0.0225 -0.21515 -0.921456)
(-0.0224395 -0.213741 -0.00131716)
(0.022492 -0.216073 -0.925179)
(-0.0225278 -0.214226 -0.0012791)
(0.0168687 -0.206145 -0.986603)
(-0.0211324 -0.203493 -0.00396212)
(0.0169414 -0.207471 -0.986654)
(-0.0212515 -0.203832 -0.00392335)
(0.000419225 -0.211692 0.000111196)
(0.00158773 -0.210364 0.000591235)
(0.000307262 -0.211936 0.000125338)
(0.00150742 -0.210558 0.000591645)
(0.00484571 -0.199504 0.00208776)
(0.000656964 -0.198047 0.000823471)
(0.00474923 -0.199397 0.00210658)
(0.000607999 -0.198034 0.000824724)
(0.00102944 -0.20993 0.000189115)
(0.00102966 -0.209929 -0.000189057)
(0.000985933 -0.210168 0.000187135)
(0.000986055 -0.210167 -0.000187174)
(0.000305168 -0.198561 0.000190363)
(0.000305283 -0.198561 -0.000190466)
(0.000313614 -0.198791 0.000187886)
(0.000313581 -0.19879 -0.00018804)
(0.00158863 -0.210362 -0.000591319)
(0.000420721 -0.211688 -0.000110374)
(0.00150802 -0.210556 -0.000591853)
(0.00030843 -0.211933 -0.000125134)
(0.000657488 -0.198047 -0.000824254)
(0.00484685 -0.199505 -0.00209027)
(0.00060808 -0.198033 -0.000825417)
(0.00474937 -0.199397 -0.00210849)
(-0.0224404 -0.213739 0.00131724)
(0.0225014 -0.215149 0.928474)
(-0.0225276 -0.214228 0.00127988)
(0.022493 -0.21607 0.928688)
(-0.0211733 -0.203497 0.00396245)
(0.0169105 -0.206132 0.986604)
(-0.0212819 -0.203833 0.00392458)
(0.0169739 -0.207459 0.986654)
(0.0225282 -0.213368 -0.925998)
(-0.02225 -0.212609 -0.00137342)
(0.0225089 -0.214267 -0.922585)
(-0.0223457 -0.213204 -0.00134802)
(0.0167305 -0.203735 -0.986437)
(-0.020889 -0.20255 -0.00401431)
(0.0167823 -0.204926 -0.986475)
(-0.0209966 -0.203065 -0.00399149)
(0.000643898 -0.21099 8.2252e-05)
(0.00175821 -0.209803 0.000584571)
(0.000530955 -0.211376 9.69194e-05)
(0.00167102 -0.210113 0.000588595)
(0.00499913 -0.199349 0.00204949)
(0.000756014 -0.19787 0.000817689)
(0.00492973 -0.199481 0.00206765)
(0.00070344 -0.197997 0.000820749)
(0.00114353 -0.209335 0.000189879)
(0.00114395 -0.209335 -0.00019003)
(0.00108216 -0.209653 0.000189883)
(0.00108251 -0.209653 -0.000189889)
(0.000314495 -0.198049 0.000192285)
(0.000314959 -0.198049 -0.000192322)
(0.000306072 -0.198317 0.000191749)
(0.000306403 -0.198317 -0.000191809)
(0.00175972 -0.209803 -0.000585114)
(0.000646412 -0.210989 -8.29409e-05)
(0.00167231 -0.210112 -0.000588866)
(0.000532985 -0.211373 -9.66189e-05)
(0.000758118 -0.19787 -0.000818099)
(0.00500593 -0.199351 -0.00205097)
(0.000704826 -0.197997 -0.000821393)
(0.00493381 -0.199484 -0.00206993)
(-0.022248 -0.212597 0.00137475)
(0.0225263 -0.21337 0.926648)
(-0.0223462 -0.213194 0.00134846)
(0.0225098 -0.214263 0.926827)
(-0.0209084 -0.202558 0.00401587)
(0.0167453 -0.203724 0.986436)
(-0.0210331 -0.203074 0.00399247)
(0.0168175 -0.204914 0.986475)
(0.0225753 -0.211579 -0.91962)
(-0.0220464 -0.211287 -0.00141733)
(0.0225487 -0.212487 -0.923335)
(-0.0221498 -0.211979 -0.00139605)
(0.016613 -0.20151 -0.983914)
(-0.0206498 -0.20132 -0.00405526)
(0.0166537 -0.202638 -0.986311)
(-0.0207549 -0.201975 -0.00403454)
(0.000862048 -0.210025 6.02797e-05)
(0.00193742 -0.209007 0.000575337)
(0.000757948 -0.21054 7.01048e-05)
(0.00184786 -0.209435 0.000579997)
(0.00513445 -0.198764 0.00201678)
(0.000862821 -0.197407 0.00080716)
(0.00507206 -0.199104 0.00203286)
(0.000809372 -0.197673 0.000812796)
(0.00128786 -0.208556 0.000188506)
(0.00128792 -0.208556 -0.000188417)
(0.00121238 -0.20897 0.00018934)
(0.00121273 -0.20897 -0.000189443)
(0.000350107 -0.197413 0.000191521)
(0.000350237 -0.197412 -0.000191357)
(0.000329355 -0.19775 0.00019215)
(0.000329761 -0.197749 -0.000192105)
(0.00193771 -0.209008 -0.000575065)
(0.000862973 -0.210027 -5.99336e-05)
(0.00184913 -0.209435 -0.000580335)
(0.000760614 -0.210541 -7.09106e-05)
(0.000863465 -0.197404 -0.000806683)
(0.00513679 -0.19876 -0.00201556)
(0.000811299 -0.197672 -0.000812882)
(0.0050789 -0.199103 -0.00203349)
(-0.0220425 -0.211275 0.00141707)
(0.0225741 -0.211582 0.919613)
(-0.0221447 -0.211965 0.00139731)
(0.0225448 -0.212488 0.923319)
(-0.0206335 -0.201317 0.00405079)
(0.0165964 -0.201517 0.986285)
(-0.0207539 -0.201979 0.00403489)
(0.0166488 -0.202633 0.986311)
(0.022633 -0.209728 -0.923973)
(-0.0218171 -0.20977 -0.00144434)
(0.0225923 -0.210688 -0.920455)
(-0.0219303 -0.210551 -0.0014326)
(0.0165046 -0.199365 -0.98386)
(-0.0203787 -0.199845 -0.00407032)
(0.0165366 -0.200468 -0.983746)
(-0.0205004 -0.20062 -0.00406487)
(0.00103315 -0.208815 3.76785e-05)
(0.00211903 -0.207969 0.000562677)
(0.000950077 -0.209452 4.93397e-05)
(0.00202715 -0.20852 0.000569233)
(0.0052578 -0.197837 0.00198419)
(0.000975467 -0.196663 0.000793262)
(0.00519858 -0.198342 0.00200008)
(0.000918878 -0.19707 0.000800353)
(0.00145925 -0.207563 0.000185247)
(0.00145903 -0.207563 -0.000185353)
(0.00137018 -0.208088 0.000187012)
(0.00137 -0.208088 -0.000186943)
(0.00040857 -0.196603 0.00018879)
(0.00040824 -0.196602 -0.000188942)
(0.00037688 -0.197032 0.000190257)
(0.000376705 -0.197031 -0.000190288)
(0.00211839 -0.207968 -0.000562762)
(0.00103228 -0.208814 -3.8221e-05)
(0.00202654 -0.208519 -0.000568788)
(0.000949114 -0.209452 -4.83043e-05)
(0.000974335 -0.196661 -0.000793401)
(0.00525482 -0.197833 -0.00198423)
(0.000918228 -0.197067 -0.000799972)
(0.00519748 -0.198337 -0.00199853)
(-0.0218257 -0.209775 0.00144447)
(0.022641 -0.20973 0.922316)
(-0.0219366 -0.210553 0.00143151)
(0.0226019 -0.21068 0.91881)
(-0.0203841 -0.199832 0.00407295)
(0.0165094 -0.19938 0.983277)
(-0.0204781 -0.200609 0.00406148)
(0.0165163 -0.200483 0.986163)
(0.0227458 -0.207753 -0.925087)
(-0.0215895 -0.208062 -0.00146426)
(0.0226868 -0.208776 -0.925214)
(-0.0217094 -0.208957 -0.0014549)
(0.0164876 -0.197195 -0.983354)
(-0.020163 -0.198151 -0.00408198)
(0.0164656 -0.198331 -0.983691)
(-0.0202438 -0.199031 -0.00407692)
(0.00121265 -0.207358 2.04001e-05)
(0.00231613 -0.206677 0.000550272)
(0.00111963 -0.208119 2.8495e-05)
(0.00221493 -0.207356 0.000556301)
(0.00536724 -0.19661 0.00195602)
(0.0010877 -0.195639 0.000779295)
(0.00531694 -0.197261 0.00196981)
(0.00103206 -0.196186 0.000786386)
(0.0016578 -0.206332 0.000181661)
(0.00165794 -0.206332 -0.000181505)
(0.00155512 -0.206979 0.00018345)
(0.0015551 -0.206978 -0.000183452)
(0.000484431 -0.195579 0.000185583)
(0.000484343 -0.195578 -0.000185295)
(0.00044465 -0.196119 0.000187338)
(0.00044434 -0.196119 -0.000187113)
(0.00231683 -0.206676 -0.000550192)
(0.00121436 -0.207355 -2.13907e-05)
(0.0022151 -0.207354 -0.000556488)
(0.0011207 -0.208116 -2.99597e-05)
(0.00108784 -0.195637 -0.000778601)
(0.00536926 -0.196606 -0.00195435)
(0.00103114 -0.196184 -0.000786001)
(0.00531483 -0.197258 -0.00196898)
(-0.0215773 -0.208054 0.00146469)
(0.0227269 -0.207762 0.917789)
(-0.0217007 -0.208943 0.0014556)
(0.0226739 -0.208774 0.921559)
(-0.0201456 -0.198149 0.00408061)
(0.016459 -0.197203 0.983244)
(-0.0202492 -0.199023 0.00407746)
(0.016465 -0.198339 0.983096)
(0.0228664 -0.205633 -0.916848)
(-0.0213263 -0.20613 -0.00147911)
(0.0227896 -0.206733 -0.920661)
(-0.021453 -0.207129 -0.00147147)
(0.0164608 -0.194916 -0.983448)
(-0.0199267 -0.196269 -0.00408576)
(0.0164474 -0.196114 -0.983178)
(-0.0200251 -0.197244 -0.00408339)
(0.00142298 -0.205644 7.80897e-06)
(0.00253822 -0.20512 0.000538381)
(0.00131531 -0.206534 1.34547e-05)
(0.00242419 -0.205933 0.000544053)
(0.00547658 -0.1951 0.00192946)
(0.00120283 -0.194333 0.000764809)
(0.00542352 -0.195892 0.00194187)
(0.00114486 -0.195022 0.000771769)
(0.00188424 -0.204842 0.000177702)
(0.00188404 -0.204842 -0.000177499)
(0.00176761 -0.205621 0.000179619)
(0.00176766 -0.20562 -0.000179494)
(0.000575426 -0.19431 0.000181583)
(0.000575416 -0.194309 -0.000181753)
(0.000528176 -0.194976 0.000183507)
(0.000528226 -0.194975 -0.000183619)
(0.00253737 -0.205118 -0.000537606)
(0.00142118 -0.205642 -5.67585e-06)
(0.00242431 -0.205931 -0.000543755)
(0.00131543 -0.206533 -1.33447e-05)
(0.00120308 -0.194329 -0.00076477)
(0.00547861 -0.195091 -0.00192944)
(0.00114549 -0.195019 -0.000771708)
(0.00542635 -0.195886 -0.0019416)
(-0.0213317 -0.206123 0.00147627)
(0.0228758 -0.205632 0.922475)
(-0.0214559 -0.207122 0.0014707)
(0.0227911 -0.206745 0.920607)
(-0.0198872 -0.196258 0.00408304)
(0.0164208 -0.194932 0.982838)
(-0.020005 -0.19724 0.00408305)
(0.0164226 -0.196124 0.983066)
(0.0230503 -0.203311 -0.923325)
(-0.0210603 -0.20397 -0.0014861)
(0.022953 -0.204527 -0.919695)
(-0.0212005 -0.205079 -0.00148276)
(0.0164141 -0.192507 -0.985715)
(-0.0196345 -0.194158 -0.00407758)
(0.0164075 -0.19377 -0.98328)
(-0.0197571 -0.195253 -0.00408454)
(0.00165496 -0.203666 -5.05374e-06)
(0.00278446 -0.203284 0.000526444)
(0.00153623 -0.20469 1.34615e-06)
(0.00265842 -0.204238 0.000532307)
(0.00559206 -0.193302 0.00190627)
(0.00132324 -0.192732 0.000751271)
(0.00553673 -0.194238 0.00191815)
(0.00126275 -0.19357 0.000758178)
(0.0021377 -0.203074 0.000173734)
(0.00213734 -0.203074 -0.000173602)
(0.00200766 -0.203994 0.00017571)
(0.00200727 -0.203993 -0.00017545)
(0.000680212 -0.192768 0.000177877)
(0.000679927 -0.192768 -0.000177788)
(0.000626271 -0.193574 0.000179817)
(0.000626079 -0.193573 -0.000179667)
(0.00278311 -0.203282 -0.000526128)
(0.00165128 -0.203661 5.68834e-06)
(0.00265693 -0.204236 -0.000531522)
(0.00153318 -0.204688 6.70835e-07)
(0.00132188 -0.19273 -0.000751323)
(0.00558578 -0.193298 -0.001907)
(0.00126194 -0.193566 -0.000757697)
(0.00553381 -0.194231 -0.00191728)
(-0.021063 -0.20397 0.00148464)
(0.0230555 -0.20331 0.923325)
(-0.0211928 -0.205088 0.00148037)
(0.022949 -0.204522 0.921701)
(-0.0196511 -0.19416 0.00407893)
(0.0164236 -0.192509 0.982874)
(-0.0197455 -0.195241 0.00407992)
(0.0163932 -0.193781 0.982658)
(0.0232501 -0.200765 -0.921327)
(-0.0207509 -0.20155 -0.00149027)
(0.0231353 -0.202089 -0.921466)
(-0.0209049 -0.202803 -0.00148851)
(0.0164267 -0.189924 -0.985573)
(-0.0193801 -0.19182 -0.00406801)
(0.0164009 -0.191278 -0.985588)
(-0.0194963 -0.193024 -0.00407311)
(0.0019134 -0.201408 -1.39698e-05)
(0.00305561 -0.201155 0.00051558)
(0.00178192 -0.202574 -9.54188e-06)
(0.00291707 -0.202257 0.00052082)
(0.00570542 -0.191216 0.00188589)
(0.00144787 -0.190828 0.000738243)
(0.00564992 -0.192296 0.00189566)
(0.00138503 -0.191818 0.000744601)
(0.00241791 -0.20101 0.000169807)
(0.00241787 -0.201009 -0.000169979)
(0.00227451 -0.20208 0.000171714)
(0.00227439 -0.202079 -0.000171732)
(0.000797022 -0.190933 0.000173941)
(0.000796927 -0.190933 -0.000174099)
(0.000737235 -0.191888 0.00017586)
(0.000737106 -0.191888 -0.000176027)
(0.00305531 -0.201153 -0.000515922)
(0.00191123 -0.201406 1.29101e-05)
(0.00291654 -0.202255 -0.000520852)
(0.00177922 -0.202569 9.53336e-06)
(0.00144833 -0.190827 -0.000738429)
(0.00571132 -0.191217 -0.00188568)
(0.00138497 -0.191817 -0.000745099)
(0.00565204 -0.192296 -0.001897)
(-0.0207654 -0.201556 0.00149185)
(0.0232656 -0.200756 0.917774)
(-0.0209221 -0.202798 0.00148803)
(0.0231546 -0.202089 0.921528)
(-0.0193408 -0.191823 0.00407121)
(0.0163812 -0.189913 0.985569)
(-0.0194692 -0.193033 0.00407804)
(0.0163667 -0.19126 0.982689)
(0.0234913 -0.197945 -0.921483)
(-0.0204193 -0.198878 -0.00149057)
(0.0233614 -0.199419 -0.921625)
(-0.0205887 -0.200248 -0.00149025)
(0.0164013 -0.187103 -0.985436)
(-0.0190562 -0.189226 -0.00405494)
(0.0163753 -0.188567 -0.985449)
(-0.0191879 -0.190563 -0.00406143)
(0.00219628 -0.198856 -2.11763e-05)
(0.00335229 -0.198715 0.000505666)
(0.00205201 -0.20017 -1.78333e-05)
(0.00320082 -0.199975 0.000510353)
(0.00582945 -0.188838 0.00186756)
(0.00157901 -0.18861 0.00072625)
(0.00577074 -0.190066 0.00187643)
(0.00151302 -0.189759 0.000732098)
(0.00272541 -0.198631 0.000166166)
(0.00272528 -0.19863 -0.000166331)
(0.00256821 -0.199861 0.000167884)
(0.00256808 -0.19986 -0.000168121)
(0.000925195 -0.188785 0.000170314)
(0.000925078 -0.188785 -0.000170428)
(0.000859731 -0.189899 0.000172085)
(0.000859564 -0.189899 -0.000172215)
(0.00335149 -0.198714 -0.000505812)
(0.00219303 -0.198854 2.10928e-05)
(0.00320007 -0.199974 -0.000510724)
(0.00204887 -0.20017 1.67707e-05)
(0.0015787 -0.18861 -0.000726241)
(0.00582774 -0.188838 -0.00186696)
(0.0015127 -0.189758 -0.000732122)
(0.00577009 -0.190065 -0.00187585)
(-0.0204307 -0.198871 0.00149067)
(0.0235046 -0.197945 0.921367)
(-0.0206017 -0.20025 0.00149161)
(0.0233752 -0.199418 0.917823)
(-0.0190488 -0.189224 0.00405538)
(0.0163892 -0.187096 0.985434)
(-0.0191848 -0.190559 0.00406373)
(0.0163682 -0.18856 0.985446)
(0.0237571 -0.194844 -0.920532)
(-0.0200526 -0.195901 -0.00148983)
(0.0236111 -0.196459 -0.920668)
(-0.0202375 -0.19744 -0.00149017)
(0.016437 -0.184021 -0.985291)
(-0.0187656 -0.186365 -0.00404195)
(0.0163972 -0.185612 -0.985304)
(-0.0188982 -0.187832 -0.00404832)
(0.00250712 -0.19599 -2.54817e-05)
(0.00367623 -0.19595 0.000497167)
(0.00234883 -0.197464 -2.34311e-05)
(0.00351084 -0.197374 0.000501142)
(0.00595551 -0.186159 0.00185093)
(0.0017173 -0.186069 0.000715196)
(0.00589248 -0.187537 0.00185904)
(0.00164714 -0.187381 0.00072059)
(0.00306143 -0.19592 0.00016309)
(0.00306148 -0.195919 -0.000163078)
(0.00288981 -0.197318 0.000164536)
(0.00288978 -0.197317 -0.000164608)
(0.00106496 -0.186307 0.000167007)
(0.00106498 -0.186306 -0.00016706)
(0.000993623 -0.187588 0.000168619)
(0.000993617 -0.187588 -0.000168705)
(0.00367599 -0.195949 -0.000497196)
(0.00250426 -0.195988 2.5242e-05)
(0.00351031 -0.197373 -0.000501207)
(0.00234542 -0.197462 2.34046e-05)
(0.00171763 -0.186068 -0.000715321)
(0.00595591 -0.18616 -0.00185068)
(0.00164737 -0.187381 -0.000720644)
(0.00589305 -0.187538 -0.00185857)
(-0.020064 -0.1959 0.00149035)
(0.0237704 -0.194841 0.920528)
(-0.0202502 -0.197435 0.0014904)
(0.0236263 -0.196462 0.920663)
(-0.0187488 -0.186366 0.00404189)
(0.0164145 -0.184015 0.985291)
(-0.0188795 -0.187834 0.0040483)
(0.0163734 -0.185605 0.985303)
(0.0240553 -0.191439 -0.912197)
(-0.0196558 -0.192607 -0.00149053)
(0.0238977 -0.193205 -0.915939)
(-0.019859 -0.194301 -0.00148948)
(0.016477 -0.180634 -0.985144)
(-0.0184494 -0.183214 -0.00402871)
(0.0164227 -0.182378 -0.985156)
(-0.0185826 -0.184831 -0.00403524)
(0.00284713 -0.192795 -2.6867e-05)
(0.00402918 -0.192843 0.00048993)
(0.00267307 -0.194436 -2.66065e-05)
(0.00384899 -0.19444 0.000493308)
(0.00609113 -0.183165 0.00183516)
(0.00186471 -0.183189 0.00070494)
(0.00602482 -0.184703 0.0018426)
(0.00179006 -0.184672 0.000709913)
(0.00342696 -0.19286 0.000160213)
(0.00342716 -0.19286 -0.000160155)
(0.00324047 -0.194434 0.000161597)
(0.00324061 -0.194434 -0.000161537)
(0.00121659 -0.183481 0.00016391)
(0.00121677 -0.18348 -0.000163909)
(0.00113928 -0.184938 0.000165431)
(0.00113936 -0.184938 -0.000165446)
(0.00402975 -0.192842 -0.000489894)
(0.00284747 -0.192793 2.67171e-05)
(0.0038492 -0.194439 -0.00049325)
(0.00267207 -0.194434 2.65295e-05)
(0.00186563 -0.183188 -0.000705033)
(0.00609414 -0.183165 -0.00183522)
(0.00179055 -0.184671 -0.00071002)
(0.00602616 -0.184703 -0.0018425)
(-0.0196589 -0.192607 0.00149046)
(0.0240577 -0.191435 0.912189)
(-0.0198653 -0.194305 0.00148969)
(0.0239043 -0.193204 0.915935)
(-0.0184376 -0.183214 0.0040286)
(0.0164599 -0.180634 0.985144)
(-0.0185677 -0.184832 0.00403512)
(0.0164024 -0.182376 0.985156)
(0.0243685 -0.187699 -0.91857)
(-0.0192131 -0.188973 -0.00148466)
(0.0242016 -0.189644 -0.915002)
(-0.019438 -0.190837 -0.00148743)
(0.0164974 -0.176945 -0.985004)
(-0.0180865 -0.179747 -0.00400737)
(0.016451 -0.178834 -0.98501)
(-0.0182416 -0.181525 -0.00401823)
(0.00322336 -0.189254 -2.92537e-05)
(0.00441274 -0.189377 0.000482531)
(0.00303185 -0.19107 -2.79273e-05)
(0.00421747 -0.191156 0.000486096)
(0.00624327 -0.179838 0.00182174)
(0.00202314 -0.179956 0.000695444)