/*--------------------------------*- C++ -*----------------------------------*\
  =========                 |
  \\      /  F ield         | OpenFOAM: The Open Source CFD Toolbox
   \\    /   O peration     | Website:  https://openfoam.org
    \\  /    A nd           | Version:  9
     \\/     M anipulation  |
\*---------------------------------------------------------------------------*/
FoamFile
{
    format      ascii;
    class       volVectorField;
    location    "1.6";
    object      U;
}
// * * * * * * * * * * * * * * * * * * * * * * * * * * * * * * * * * * * * * //

dimensions      [0 1 -1 0 0 0 0];

internalField   nonuniform List<vector> 
36360
(
(-0.00178627 -0.280313 -0.984415)
(-0.00368485 -0.162611 0.000637399)
(-0.0136233 -0.279959 -1.00119)
(0.00329256 -0.143237 0.000202625)
(-0.000527499 -0.300566 -0.99413)
(0.024038 -0.151761 -1.70918e-05)
(-0.00283299 -0.288936 -1.00327)
(0.0332307 -0.181262 0.000142393)
(-0.000300389 -0.189057 -0.000442573)
(-0.0066635 -0.203045 -2.62398e-05)
(-0.00590285 -0.18878 -0.000181854)
(-0.00700922 -0.200456 -7.86423e-06)
(0.0153934 -0.210348 3.41671e-05)
(0.00993827 -0.219023 -7.6413e-06)
(0.015808 -0.217274 -0.000139616)
(0.0129988 -0.221742 -1.51896e-05)
(-0.0062798 -0.206843 1.80786e-06)
(-0.00627989 -0.206843 -1.80034e-06)
(-0.00641374 -0.204563 5.432e-08)
(-0.00641375 -0.204562 -5.19485e-08)
(0.00977332 -0.219244 -3.84526e-06)
(0.00977329 -0.219244 3.85373e-06)
(0.0126542 -0.22206 -1.1845e-07)
(0.0126542 -0.222059 1.20635e-07)
(-0.00666346 -0.203045 2.62464e-05)
(-0.000300311 -0.189056 0.000442577)
(-0.00700922 -0.200455 7.86638e-06)
(-0.0059028 -0.18878 0.000181853)
(0.00993816 -0.219022 7.64925e-06)
(0.0153933 -0.210346 -3.41681e-05)
(0.0129987 -0.221741 1.51918e-05)
(0.0158079 -0.217272 0.000139614)
(-0.00368494 -0.162609 -0.000637416)
(-0.00178583 -0.280311 0.984415)
(0.00329263 -0.143236 -0.000202628)
(-0.0136231 -0.279956 1.00119)
(0.0240377 -0.151758 1.70735e-05)
(-0.00052699 -0.300565 0.994129)
(0.0332304 -0.18126 -0.000142396)
(-0.00283269 -0.288935 1.00327)
(0.0151544 -0.259292 -0.963643)
(-0.0162323 -0.192748 0.000974798)
(0.00921419 -0.268639 -0.974054)
(-0.0109705 -0.182564 0.000966508)
(0.0123243 -0.290269 -0.992847)
(-0.00720026 -0.151588 -0.000536178)
(0.00899044 -0.300201 -0.993375)
(0.00514117 -0.14285 -0.000252283)
(0.00434379 -0.197459 -0.000463641)
(0.00211276 -0.205637 -3.82623e-05)
(0.00454514 -0.193973 -0.000558638)
(-0.00232822 -0.204331 -3.76483e-05)
(0.0151371 -0.184491 0.000566795)
(0.00917233 -0.210347 2.37608e-05)
(0.0180985 -0.195705 0.000262162)
(0.00857302 -0.215213 1.6966e-06)
(-0.00305961 -0.210596 -2.74673e-06)
(-0.00305931 -0.210595 2.76751e-06)
(-0.00614779 -0.209987 -1.78484e-07)
(-0.00614767 -0.209987 1.92827e-07)
(0.00568063 -0.215275 -8.58889e-06)
(0.00568056 -0.215275 8.61239e-06)
(0.00744091 -0.21558 -8.4205e-06)
(0.00744087 -0.21558 8.43627e-06)
(0.0021129 -0.205636 3.82849e-05)
(0.00434375 -0.197459 0.000463657)
(-0.00232799 -0.20433 3.76606e-05)
(0.00454515 -0.193972 0.000558648)
(0.0091723 -0.210346 -2.37384e-05)
(0.0151368 -0.18449 -0.000566792)
(0.00857297 -0.215212 -1.6821e-06)
(0.0180983 -0.195704 -0.000262161)
(-0.0162322 -0.192746 -0.000974852)
(0.0151548 -0.259289 0.963643)
(-0.0109705 -0.182562 -0.000966542)
(0.00921474 -0.268636 0.974054)
(-0.00720089 -0.151586 0.000536113)
(0.0123245 -0.290266 0.992847)
(0.00514047 -0.142848 0.000252241)
(0.00899065 -0.300199 0.993375)
(0.0212337 -0.246663 -0.949936)
(-0.0209824 -0.203203 0.000554623)
(0.0191124 -0.252519 -0.955865)
(-0.0191652 -0.19913 0.000795854)
(0.0172646 -0.268482 -0.991274)
(-0.0185819 -0.166538 -0.00137308)
(0.0153194 -0.27832 -0.992627)
(-0.014478 -0.158858 -0.000922222)
(0.00166164 -0.200881 -0.000140069)
(0.00382613 -0.206318 1.37534e-05)
(0.00297616 -0.199647 -0.000301884)
(0.00369855 -0.206385 -2.68606e-05)
(0.00688043 -0.175933 0.001301)
(0.00601539 -0.198421 0.000151187)
(0.0101713 -0.178435 0.000942812)
(0.00815222 -0.203853 7.43422e-05)
(0.00293047 -0.210262 -1.04189e-05)
(0.0029305 -0.210261 1.04602e-05)
(0.00121611 -0.210753 -5.90718e-06)
(0.00121622 -0.210753 5.93693e-06)
(0.00511484 -0.209255 -4.75942e-06)
(0.00511485 -0.209255 4.80489e-06)
(0.00537389 -0.213397 -6.81299e-06)
(0.00537394 -0.213397 6.84554e-06)
(0.00382615 -0.206318 -1.37136e-05)
(0.0016617 -0.20088 0.000140082)
(0.00369862 -0.206384 2.68918e-05)
(0.0029762 -0.199647 0.000301898)
(0.0060153 -0.198421 -0.000151147)
(0.00688031 -0.175932 -0.00130099)
(0.00815217 -0.203852 -7.43111e-05)
(0.0101712 -0.178434 -0.000942804)
(-0.020982 -0.203201 -0.000554711)
(0.0212339 -0.246659 0.949936)
(-0.0191648 -0.199128 -0.000795926)
(0.0191129 -0.252516 0.955865)
(-0.018582 -0.166537 0.00137296)
(0.0172646 -0.268478 0.991274)
(-0.0144782 -0.158857 0.000922133)
(0.0153198 -0.278316 0.992627)
(0.0232106 -0.237168 -0.940353)
(-0.0230112 -0.20756 4.58325e-05)
(0.0224427 -0.24155 -0.94464)
(-0.0221688 -0.205833 0.000297864)
(0.0189678 -0.250847 -0.989197)
(-0.0223922 -0.179616 -0.00226113)
(0.0183087 -0.259216 -0.990126)
(-0.0209101 -0.173649 -0.00182832)
(2.52546e-06 -0.202426 8.33423e-05)
(0.0027813 -0.205332 0.000179375)
(0.000706445 -0.201707 -8.95042e-06)
(0.00341762 -0.205897 8.77163e-05)
(0.00421867 -0.17665 0.0018536)
(0.00293634 -0.192019 0.000363089)
(0.00511096 -0.175613 0.00160655)
(0.00422728 -0.194566 0.000251035)
(0.00287007 -0.208434 1.83023e-05)
(0.00287006 -0.208433 -1.82245e-05)
(0.00320913 -0.20943 -2.30742e-06)
(0.00320912 -0.20943 2.36429e-06)
(0.00293327 -0.201518 2.24585e-05)
(0.00293323 -0.201517 -2.23497e-05)
(0.00403502 -0.20488 4.51576e-06)
(0.00403499 -0.20488 -4.43385e-06)
(0.00278131 -0.205331 -0.000179305)
(2.67673e-06 -0.202425 -8.33178e-05)
(0.00341764 -0.205896 -8.76662e-05)
(0.000706566 -0.201706 8.96148e-06)
(0.0029363 -0.192018 -0.000363012)
(0.00421863 -0.176649 -0.00185356)
(0.00422723 -0.194565 -0.000250998)
(0.00511092 -0.175612 -0.00160654)
(-0.0230105 -0.207559 -4.59366e-05)
(0.0232105 -0.237164 0.940354)
(-0.0221681 -0.205831 -0.000297965)
(0.0224429 -0.241546 0.944641)
(-0.0223918 -0.179615 0.00226096)
(0.0189674 -0.250842 0.989198)
(-0.0209098 -0.173648 0.00182819)
(0.0183087 -0.259212 0.990126)
(0.0241382 -0.23026 -0.932889)
(-0.0241942 -0.209516 -0.000400967)
(0.0237347 -0.23344 -0.936207)
(-0.0236599 -0.208722 -0.000189146)
(0.019766 -0.237497 -0.987614)
(-0.0242677 -0.188247 -0.00301924)
(0.019401 -0.243628 -0.988326)
(-0.0234253 -0.184432 -0.00265939)
(-0.000859572 -0.203847 0.000172368)
(0.00177391 -0.204628 0.000351342)
(-0.000496682 -0.203159 0.000141595)
(0.00221625 -0.204902 0.000270156)
(0.00386275 -0.180617 0.00219045)
(0.00148122 -0.1897 0.000581455)
(0.00384526 -0.178468 0.0020454)
(0.0020622 -0.190499 0.00047576)
(0.00198788 -0.206664 7.42134e-05)
(0.00198787 -0.206663 -7.39781e-05)
(0.00240624 -0.207475 4.4928e-05)
(0.00240623 -0.207475 -4.48134e-05)
(0.00164849 -0.197175 7.38658e-05)
(0.00164846 -0.197174 -7.34107e-05)
(0.00215983 -0.199032 4.65207e-05)
(0.00215979 -0.199031 -4.6321e-05)
(0.00177382 -0.204627 -0.000351163)
(-0.000859397 -0.203846 -0.000172281)
(0.00221624 -0.204901 -0.000270093)
(-0.000496459 -0.203157 -0.000141506)
(0.0014811 -0.1897 -0.000581022)
(0.00386251 -0.180617 -0.00219039)
(0.00206215 -0.190499 -0.000475616)
(0.00384516 -0.178468 -0.00204532)
(-0.0241933 -0.209515 0.00040085)
(0.0241375 -0.230256 0.932892)
(-0.0236591 -0.20872 0.000189061)
(0.0237344 -0.233436 0.936209)
(-0.0242668 -0.188246 0.00301891)
(0.019765 -0.237491 0.987614)
(-0.0234245 -0.18443 0.0026592)
(0.0194005 -0.243623 0.988326)
(0.0247789 -0.225193 -0.927004)
(-0.0249829 -0.21041 -0.000763681)
(0.0244722 -0.22754 -0.929551)
(-0.024628 -0.210055 -0.000592449)
(0.0203128 -0.227885 -0.986365)
(-0.0254876 -0.193568 -0.00362187)
(0.0200365 -0.232305 -0.986917)
(-0.0249193 -0.191239 -0.00333966)
(-0.00116773 -0.205031 0.000177042)
(0.00125822 -0.204506 0.00048581)
(-0.00106837 -0.204464 0.000181999)
(0.00146109 -0.204504 0.000423753)
(0.00417438 -0.18489 0.00237278)
(0.000843111 -0.189458 0.000757698)
(0.00400717 -0.182804 0.00229601)
(0.00109421 -0.189405 0.000677061)
(0.00138682 -0.205583 0.000130317)
(0.00138667 -0.205582 -0.000130175)
(0.00164882 -0.206036 0.000103363)
(0.00164921 -0.206035 -0.000102949)
(0.00102958 -0.194791 0.000129257)
(0.00102943 -0.194791 -0.000129141)
(0.00129378 -0.195798 0.000102361)
(0.00129419 -0.195797 -0.000101335)
(0.00125839 -0.204505 -0.000485704)
(-0.00116733 -0.205029 -0.000176971)
(0.0014604 -0.204504 -0.000423347)
(-0.00106849 -0.204463 -0.000181993)
(0.000843209 -0.189457 -0.000758053)
(0.00417425 -0.184888 -0.00237219)
(0.00109353 -0.189404 -0.000674584)
(0.00400666 -0.182803 -0.00229716)
(-0.0249816 -0.210408 0.000763568)
(0.0247778 -0.225189 0.927007)
(-0.024627 -0.210053 0.000592206)
(0.0244714 -0.227536 0.929554)
(-0.0254863 -0.193566 0.00362173)
(0.0203113 -0.227879 0.986365)
(-0.0249182 -0.191238 0.00333853)
(0.0200355 -0.232299 0.986917)
(0.0253174 -0.22137 -0.922386)
(-0.0254929 -0.210743 -0.0010497)
(0.0250556 -0.223155 -0.924326)
(-0.0252659 -0.210629 -0.000915491)
(0.0207244 -0.220818 -0.985386)
(-0.0263316 -0.196742 -0.0040846)
(0.0205124 -0.224096 -0.985808)
(-0.0259298 -0.195366 -0.00386906)
(-0.00117264 -0.205984 0.000141555)
(0.00108581 -0.204732 0.000578231)
(-0.00119316 -0.20554 0.000162337)
(0.00114167 -0.204593 0.000537062)
(0.00451742 -0.188512 0.00245808)
(0.00061049 -0.190153 0.000883189)
(0.00435034 -0.186803 0.00242433)
(0.000691966 -0.189738 0.000826821)
(0.00105554 -0.205077 0.000174681)
(0.00105552 -0.205076 -0.000174589)
(0.00119355 -0.205275 0.00015426)
(0.00119355 -0.205274 -0.000154154)
(0.000666759 -0.193565 0.000176411)
(0.000666753 -0.193564 -0.000176314)
(0.000825816 -0.194069 0.00015435)
(0.00082582 -0.194069 -0.000154238)
(0.00108582 -0.204731 -0.00057815)
(-0.0011722 -0.205983 -0.000141585)
(0.00114169 -0.204593 -0.000536965)
(-0.00119273 -0.205539 -0.000162341)
(0.000610412 -0.190152 -0.00088308)
(0.00451722 -0.188511 -0.00245798)
(0.000691906 -0.189737 -0.000826684)
(0.00435019 -0.186802 -0.00242422)
(-0.0254913 -0.210741 0.00104951)
(0.0253159 -0.221366 0.922392)
(-0.0252644 -0.210627 0.000915333)
(0.0250545 -0.223151 0.92433)
(-0.0263298 -0.19674 0.00408417)
(0.0207225 -0.220812 0.985387)
(-0.0259281 -0.195365 0.0038687)
(0.0205111 -0.22409 0.985809)
(0.0257597 -0.218371 -0.918775)
(-0.0257948 -0.210728 -0.00127114)
(0.0255466 -0.219789 -0.920219)
(-0.0256636 -0.210772 -0.0011674)
(0.0210233 -0.215428 -0.984622)
(-0.0269009 -0.19854 -0.00443199)
(0.0208636 -0.217955 -0.984939)
(-0.0266265 -0.197779 -0.00427082)
(-0.00104125 -0.206657 9.17204e-05)
(0.00109369 -0.205056 0.000633668)
(-0.00111835 -0.206357 0.000117451)
(0.00107426 -0.204894 0.000609886)
(0.00482449 -0.191281 0.00248684)
(0.000585393 -0.191134 0.000962532)
(0.00467931 -0.190003 0.00247759)
(0.000580591 -0.190634 0.000927908)
(0.00090502 -0.204892 0.000204252)
(0.000904986 -0.204892 -0.000204169)
(0.000962447 -0.204958 0.000191245)
(0.000962427 -0.204958 -0.00019116)
(0.00044123 -0.193012 0.000210298)
(0.00044122 -0.193011 -0.00021021)
(0.000541473 -0.193226 0.000195054)
(0.000541469 -0.193225 -0.000194964)
(0.00109368 -0.205055 -0.000633599)
(-0.00104075 -0.206655 -9.17788e-05)
(0.00107426 -0.204893 -0.000609814)
(-0.00111785 -0.206356 -0.0001175)
(0.000585276 -0.191133 -0.000962423)
(0.00482425 -0.19128 -0.00248673)
(0.000580507 -0.190633 -0.0009278)
(0.00467913 -0.190002 -0.00247749)
(-0.0257929 -0.210726 0.00127093)
(0.0257578 -0.218367 0.918781)
(-0.0256618 -0.21077 0.0011672)
(0.0255451 -0.219785 0.920225)
(-0.0268988 -0.198537 0.00443148)
(0.0210211 -0.215423 0.984623)
(-0.0266244 -0.197777 0.00427034)
(0.0208619 -0.217949 0.98494)
(0.0260957 -0.215904 -0.915936)
(-0.0259553 -0.210459 -0.00144168)
(0.0259352 -0.217085 -0.916992)
(-0.0258888 -0.210622 -0.00136167)
(0.0212192 -0.211152 -0.984026)
(-0.027256 -0.199427 -0.00468873)
(0.0211075 -0.213177 -0.98426)
(-0.0270801 -0.199075 -0.00457)
(-0.000823897 -0.207031 4.05272e-05)
(0.00119655 -0.205319 0.000661507)
(-0.000938286 -0.206882 6.59225e-05)
(0.00113724 -0.205202 0.000650271)
(0.00508487 -0.193233 0.00248315)
(0.00066396 -0.192063 0.0010067)
(0.00496385 -0.192353 0.00248785)
(0.000616081 -0.191618 0.00098825)
(0.000870818 -0.204839 0.000220426)
(0.000870772 -0.204838 -0.000220345)
(0.000876579 -0.204858 0.000213773)
(0.000876546 -0.204858 -0.000213692)
(0.000294425 -0.19283 0.000231378)
(0.00029442 -0.19283 -0.000231292)
(0.000360462 -0.192888 0.000222266)
(0.000360457 -0.192888 -0.000222179)
(0.00119652 -0.205318 -0.00066144)
(-0.000823387 -0.207029 -4.05984e-05)
(0.00113723 -0.205202 -0.000650204)
(-0.000937761 -0.20688 -6.59898e-05)
(0.000663786 -0.192062 -0.00100658)
(0.00508456 -0.193232 -0.00248303)
(0.000615949 -0.191617 -0.000988137)
(0.00496361 -0.192352 -0.00248774)
(-0.0259532 -0.210457 0.00144144)
(0.0260936 -0.2159 0.915944)
(-0.0258867 -0.210619 0.00136144)
(0.0259334 -0.217081 0.916999)
(-0.0272535 -0.199424 0.00468815)
(0.0212167 -0.211146 0.984028)
(-0.0270776 -0.199073 0.00456945)
(0.0211056 -0.213171 0.984262)
(0.0263456 -0.213773 -0.913678)
(-0.0259953 -0.209977 -0.00157333)
(0.0262246 -0.214806 -0.914457)
(-0.0259862 -0.210244 -0.00151142)
(0.0213234 -0.207627 -0.983561)
(-0.0274247 -0.19969 -0.0048751)
(0.0212542 -0.209314 -0.983734)
(-0.0273395 -0.199626 -0.00478946)
(-0.000575645 -0.207109 -7.38871e-06)
(0.00134596 -0.205425 0.000671774)
(-0.000700905 -0.207105 1.61857e-05)
(0.00126771 -0.205395 0.000668083)
(0.00528528 -0.194477 0.00246076)
(0.000782161 -0.192774 0.00102654)
(0.0051955 -0.193936 0.00247358)
(0.000723311 -0.192451 0.00101899)
(0.000912447 -0.204794 0.000227938)
(0.000912384 -0.204794 -0.00022784)
(0.000884071 -0.204822 0.000224746)
(0.000884025 -0.204821 -0.000224661)
(0.000205092 -0.19282 0.000242833)
(0.000205085 -0.19282 -0.000242726)
(0.000241675 -0.192814 0.000238058)
(0.000241678 -0.192813 -0.000237967)
(0.00134588 -0.205424 -0.000671697)
(-0.00057517 -0.207107 7.30606e-06)
(0.00126766 -0.205394 -0.000668013)
(-0.000700379 -0.207104 -1.62635e-05)
(0.000781925 -0.192774 -0.00102641)
(0.00528486 -0.194476 -0.00246066)
(0.00072311 -0.192451 -0.00101887)
(0.00519518 -0.193935 -0.00247347)
(-0.0259931 -0.209974 0.00157306)
(0.0263434 -0.213769 0.913687)
(-0.025984 -0.210241 0.00151118)
(0.0262227 -0.214802 0.914465)
(-0.0274221 -0.199687 0.00487441)
(0.0213209 -0.207622 0.983562)
(-0.0273367 -0.199624 0.00478885)
(0.0212521 -0.209308 0.983735)
(0.0265293 -0.211844 -0.911879)
(-0.0259419 -0.209292 -0.00167556)
(0.0264395 -0.212791 -0.912438)
(-0.0259763 -0.209659 -0.00162719)
(0.021357 -0.204603 -0.983198)
(-0.0274624 -0.199502 -0.00500715)
(0.0213204 -0.206065 -0.983321)
(-0.0274316 -0.199643 -0.00494549)
(-0.000318154 -0.206914 -5.03565e-05)
(0.00151674 -0.205341 0.000671885)
(-0.000446708 -0.207044 -2.95913e-05)
(0.00142968 -0.205408 0.000672644)
(0.00542097 -0.195147 0.00242884)
(0.000890377 -0.193213 0.00103058)
(0.00536273 -0.194876 0.00244537)
(0.000837993 -0.193029 0.00103005)
(0.00100502 -0.204658 0.000230897)
(0.00100494 -0.204657 -0.000230729)
(0.000953661 -0.204742 0.000229869)
(0.000953596 -0.204742 -0.000229742)
(0.000176873 -0.192829 0.000247136)
(0.000176867 -0.192829 -0.000246946)
(0.000184766 -0.192831 0.000246004)
(0.000184759 -0.192831 -0.000245863)
(0.00151661 -0.20534 -0.000671711)
(-0.000317775 -0.206913 5.04297e-05)
(0.00142958 -0.205407 -0.000672543)
(-0.000446249 -0.207043 2.9509e-05)
(0.000890162 -0.193213 -0.00103037)
(0.00542053 -0.195147 -0.0024287)
(0.000837749 -0.193028 -0.0010299)
(0.00536226 -0.194875 -0.00244528)
(-0.0259398 -0.209289 0.00167495)
(0.0265271 -0.211841 0.911888)
(-0.025974 -0.209656 0.00162685)
(0.0264375 -0.212788 0.912446)
(-0.0274599 -0.199499 0.00500628)
(0.0213542 -0.204597 0.9832)
(-0.0274289 -0.19964 0.00494472)
(0.0213184 -0.206059 0.983323)
(0.0266677 -0.210041 -0.910334)
(-0.0258226 -0.208397 -0.00175315)
(0.0265983 -0.210935 -0.91076)
(-0.0258851 -0.208869 -0.00171734)
(0.0213076 -0.20192 -0.982907)
(-0.0273652 -0.198934 -0.00509994)
(0.0213195 -0.203227 -0.982998)
(-0.0274104 -0.19926 -0.00505921)
(-6.75605e-05 -0.206475 -8.7627e-05)
(0.00169758 -0.205049 0.000665336)
(-0.000188 -0.206724 -6.92949e-05)
(0.00160711 -0.205222 0.000669416)
(0.00553947 -0.19535 0.00238807)
(0.000995979 -0.193368 0.00102378)
(0.00547815 -0.195305 0.00241083)
(0.000942106 -0.193328 0.00102848)
(0.00113382 -0.204368 0.000230345)
(0.00113373 -0.204367 -0.000230327)
(0.00106568 -0.204534 0.000230967)
(0.0010656 -0.204534 -0.000230775)
(0.000192016 -0.192748 0.000248316)
(0.000192007 -0.192748 -0.000248219)
(0.000179781 -0.192806 0.000247712)
(0.000179789 -0.192806 -0.000247512)
(0.00169738 -0.205049 -0.000665328)
(-6.73366e-05 -0.206473 8.7439e-05)
(0.00160692 -0.205221 -0.000669066)
(-0.000187759 -0.206722 6.9483e-05)
(0.000995845 -0.193367 -0.00102357)
(0.00553928 -0.195349 -0.00238775)
(0.000941981 -0.193328 -0.0010282)
(0.00547801 -0.195304 -0.00241056)
(-0.0258207 -0.208399 0.00175334)
(0.026666 -0.210035 0.910386)
(-0.0258831 -0.208869 0.00171657)
(0.0265964 -0.210929 0.910813)
(-0.0273644 -0.198932 0.00509985)
(0.0213073 -0.201913 0.982908)
(-0.027407 -0.199258 0.00505829)
(0.0213165 -0.20322 0.983)
(0.0267726 -0.208248 -0.909122)
(-0.0256617 -0.207334 -0.00181019)
(0.0267184 -0.209153 -0.909396)
(-0.0257455 -0.207885 -0.00178296)
(0.0211654 -0.199473 -0.982675)
(-0.027144 -0.198061 -0.00515829)
(0.0212268 -0.200673 -0.982731)
(-0.0272546 -0.198538 -0.00513216)
(0.000155505 -0.205789 -0.000119423)
(0.00188172 -0.204531 0.000653517)
(4.55615e-05 -0.206163 -0.000104274)
(0.00178862 -0.20482 0.000659536)
(0.00565441 -0.195148 0.00235214)
(0.00109751 -0.193235 0.00101083)
(0.00559524 -0.195299 0.00236719)
(0.00104549 -0.193338 0.00101727)
(0.00128918 -0.203886 0.000227458)
(0.0012891 -0.203885 -0.000227667)
(0.00120841 -0.204153 0.000229008)
(0.00120833 -0.204152 -0.000229149)
(0.000232947 -0.192508 0.000246353)
(0.000232866 -0.192508 -0.000246337)
(0.000210071 -0.192651 0.000247623)
(0.000210031 -0.192651 -0.00024761)
(0.00188162 -0.20453 -0.000654029)
(0.000155921 -0.205787 0.000118016)
(0.00178845 -0.204819 -0.000659808)
(4.58317e-05 -0.206161 0.000103631)
(0.00109713 -0.193235 -0.00101084)
(0.00565346 -0.195147 -0.00235211)
(0.00104527 -0.193337 -0.00101719)
(0.00559483 -0.195298 -0.00236693)
(-0.0256598 -0.207333 0.00181221)
(0.0267709 -0.208245 0.907711)
(-0.0257435 -0.207889 0.00178412)
(0.0267172 -0.209145 0.909404)
(-0.0271522 -0.198058 0.00516046)
(0.0211752 -0.199469 0.982674)
(-0.0272563 -0.198536 0.00513302)
(0.0212305 -0.200668 0.982731)
(0.0268646 -0.206427 -0.907981)
(-0.0254683 -0.20608 -0.001853)
(0.0268149 -0.207353 -0.908204)
(-0.0255659 -0.20674 -0.00183333)
(0.02107 -0.197176 -0.982472)
(-0.0269098 -0.196894 -0.00519571)
(0.0210939 -0.198318 -0.982516)
(-0.0270118 -0.197511 -0.0051791)
(0.000349906 -0.20487 -0.000144037)
(0.00207024 -0.203773 0.00063922)
(0.000260334 -0.205361 -0.00013227)
(0.00197609 -0.204183 0.000646832)
(0.00579572 -0.194576 0.00231663)
(0.00120701 -0.192812 0.000994994)
(0.00572182 -0.194906 0.00233474)
(0.00115231 -0.193059 0.00100356)
(0.0014678 -0.203183 0.000223618)
(0.00146782 -0.203183 -0.000223443)
(0.00137574 -0.203563 0.000225613)
(0.00137572 -0.203563 -0.00022565)
(0.000294816 -0.192068 0.000242724)
(0.000294852 -0.192068 -0.000242513)
(0.000261787 -0.192315 0.00024471)
(0.000261749 -0.192315 -0.000244579)
(0.0020704 -0.203772 -0.000639141)
(0.000350706 -0.204868 0.000143826)
(0.00197613 -0.204182 -0.000647103)
(0.000261 -0.20536 0.000131347)
(0.0012071 -0.192812 -0.000994822)
(0.00579614 -0.194576 -0.00231668)
(0.00115208 -0.193059 -0.00100347)
(0.00572122 -0.194906 -0.00233473)
(-0.0254664 -0.206072 0.00185304)
(0.0268633 -0.206431 0.907987)
(-0.0255639 -0.206731 0.00183436)
(0.0268133 -0.207355 0.906766)
(-0.0269109 -0.196892 0.00519491)
(0.0210709 -0.19717 0.982474)
(-0.0270186 -0.197508 0.00518034)
(0.021102 -0.198314 0.982516)
(0.0269495 -0.204534 -0.900035)
(-0.0252394 -0.204611 -0.00188258)
(0.026901 -0.205501 -0.903638)
(-0.0253563 -0.205378 -0.00186805)
(0.0209886 -0.194917 -0.982292)
(-0.0266528 -0.195484 -0.00521691)
(0.0209937 -0.196054 -0.982322)
(-0.026754 -0.196221 -0.00520765)
(0.000541203 -0.203675 -0.000162921)
(0.00227083 -0.202755 0.000622904)
(0.000442148 -0.204307 -0.000154194)
(0.0021683 -0.203297 0.000630744)
(0.00593232 -0.193655 0.00228132)
(0.00131602 -0.192098 0.000976248)
(0.00587017 -0.194158 0.00229838)
(0.00126211 -0.192492 0.000985632)
(0.00166969 -0.202238 0.000218863)
(0.00166968 -0.202237 -0.000218544)
(0.00156592 -0.202742 0.00022121)
(0.00156594 -0.202742 -0.000220973)
(0.000372945 -0.191393 0.000237989)
(0.00037301 -0.191393 -0.000237808)
(0.000332178 -0.191761 0.000240412)
(0.000332249 -0.191761 -0.000240225)
(0.00227081 -0.202754 -0.000622296)
(0.000541209 -0.203674 0.000164543)
(0.00216845 -0.203297 -0.000630451)
(0.000442813 -0.204306 0.000154513)
(0.00131618 -0.192098 -0.000976198)
(0.00593322 -0.193654 -0.00228174)
(0.00126233 -0.192492 -0.000985556)
(0.00587118 -0.194157 -0.00229878)
(-0.0252381 -0.204605 0.00188139)
(0.0269525 -0.204534 0.906954)
(-0.0253544 -0.205368 0.00186797)
(0.0269016 -0.205508 0.907106)
(-0.0266352 -0.195481 0.0052122)
(0.0209712 -0.194917 0.982299)
(-0.0267474 -0.196219 0.00520504)
(0.0209883 -0.196049 0.982326)
(0.0270481 -0.202526 -0.905938)
(-0.0249717 -0.20291 -0.00190235)
(0.0269894 -0.203568 -0.902539)
(-0.0251066 -0.203788 -0.00189288)
(0.02089 -0.192631 -0.982131)
(-0.0263439 -0.193837 -0.00521943)
(0.020906 -0.193785 -0.982152)
(-0.0264731 -0.194693 -0.00521933)
(0.000770011 -0.202216 -0.000180153)
(0.00249248 -0.201469 0.000607148)
(0.000651669 -0.20298 -0.000171912)
(0.00237898 -0.202146 0.0006147)
(0.00605624 -0.192414 0.00224978)
(0.00142486 -0.191089 0.000957921)
(0.00599764 -0.193075 0.00226492)
(0.00137022 -0.191631 0.000966901)
(0.00189457 -0.20103 0.000213935)
(0.00189452 -0.20103 -0.000213616)
(0.00177925 -0.201667 0.000216337)
(0.00177924 -0.201667 -0.000216004)
(0.000464788 -0.19046 0.000233026)
(0.000464899 -0.19046 -0.000232743)
(0.000417263 -0.19096 0.000235505)
(0.000417348 -0.19096 -0.000235281)
(0.0024921 -0.201468 -0.000607089)
(0.000768823 -0.202215 0.000179367)
(0.00237884 -0.202145 -0.000614355)
(0.000651124 -0.202978 0.000172486)
(0.00142494 -0.191089 -0.00095774)
(0.00605587 -0.192413 -0.00225)
(0.00137035 -0.191631 -0.000966842)
(0.00599801 -0.193073 -0.00226539)
(-0.0249714 -0.202904 0.00190172)
(0.02705 -0.202523 0.903031)
(-0.025106 -0.203793 0.00189193)
(0.0269931 -0.203558 0.906087)
(-0.0263525 -0.193836 0.0052191)
(0.0208946 -0.192631 0.982132)
(-0.0264678 -0.19469 0.00521633)
(0.0209001 -0.193789 0.982157)
(0.0271755 -0.200354 -0.903946)
(-0.0246862 -0.200967 -0.0019132)
(0.0271022 -0.201477 -0.904075)
(-0.0248283 -0.201975 -0.0019088)
(0.020812 -0.190256 -0.981979)
(-0.0260257 -0.191952 -0.00521352)
(0.0208206 -0.191467 -0.981995)
(-0.0261628 -0.192926 -0.00521779)
(0.000991841 -0.200483 -0.000192591)
(0.00272962 -0.199902 0.00059261)
(0.000889216 -0.201384 -0.000186171)
(0.00261021 -0.200721 0.000599696)
(0.00617016 -0.190868 0.0022216)
(0.0015417 -0.189781 0.000940445)
(0.00611783 -0.191677 0.00223531)
(0.00148222 -0.190472 0.00094906)
(0.00214253 -0.199543 0.00020889)
(0.00214248 -0.199542 -0.000208649)
(0.00201574 -0.200322 0.000211395)
(0.00201565 -0.200322 -0.000211041)
(0.000571683 -0.189247 0.000227906)
(0.000571793 -0.189247 -0.00022771)
(0.000516436 -0.18989 0.000230469)
(0.000516569 -0.18989 -0.000230187)
(0.0027293 -0.199902 -0.000592054)
(0.000991292 -0.200483 0.000193792)
(0.00260961 -0.200721 -0.000599218)
(0.000887691 -0.201384 0.000186916)
(0.00154176 -0.189781 -0.000939984)
(0.00617005 -0.190869 -0.0022207)
(0.00148231 -0.190472 -0.000948655)
(0.00611743 -0.191678 -0.00223478)
(-0.0246838 -0.200977 0.00191042)
(0.0271718 -0.20034 0.901437)
(-0.0248272 -0.201967 0.00190605)
(0.0271022 -0.201481 0.90213)
(-0.0260194 -0.191955 0.00521294)
(0.0208003 -0.190248 0.98198)
(-0.0261579 -0.192928 0.00521652)
(0.0208109 -0.191462 0.981996)
(0.0273288 -0.197959 -0.903949)
(-0.0243686 -0.19879 -0.0019177)
(0.0272418 -0.199207 -0.904071)
(-0.0245301 -0.199912 -0.00191505)
(0.0207332 -0.187728 -0.981826)
(-0.025672 -0.189829 -0.00519908)
(0.0207353 -0.189021 -0.98184)
(-0.0258201 -0.190924 -0.00520637)
(0.0012141 -0.198476 -0.000202827)
(0.0029875 -0.19804 0.000579304)
(0.00109778 -0.199517 -0.000198126)
(0.00285478 -0.199009 0.000585507)
(0.00628405 -0.189043 0.00219535)
(0.00166707 -0.188168 0.000924049)
(0.00622887 -0.189992 0.002208)
(0.00160378 -0.189013 0.000932)
(0.00241654 -0.197756 0.000203909)
(0.00241673 -0.197756 -0.000204165)
(0.00227596 -0.198688 0.000206253)
(0.00227605 -0.198688 -0.000206305)
(0.000691836 -0.187734 0.000223026)
(0.00069187 -0.187733 -0.000223008)
(0.000630389 -0.188529 0.000225394)
(0.000630451 -0.188529 -0.000225318)
(0.00298844 -0.198039 -0.00058008)
(0.00121684 -0.198475 0.000200067)
(0.00285522 -0.199008 -0.00058567)
(0.00109941 -0.199515 0.000197191)
(0.00166707 -0.188168 -0.00092406)
(0.00628478 -0.189043 -0.00219536)
(0.00160381 -0.189013 -0.000931771)
(0.00622933 -0.189992 -0.00220748)
(-0.0243647 -0.198795 0.00192079)
(0.0273209 -0.19795 0.900409)
(-0.0245256 -0.199929 0.00191543)
(0.0272342 -0.199194 0.900487)
(-0.0256854 -0.18983 0.00520331)
(0.0207453 -0.187721 0.981824)
(-0.025825 -0.190926 0.00520855)
(0.0207375 -0.189013 0.981839)
(0.0275134 -0.19532 -0.902943)
(-0.0240121 -0.196333 -0.00192077)
(0.0274098 -0.196693 -0.90307)
(-0.024192 -0.197606 -0.00191926)
(0.0206901 -0.185001 -0.981676)
(-0.0253204 -0.187448 -0.0051832)
(0.0206767 -0.186399 -0.981689)
(-0.0254693 -0.188675 -0.00519122)
(0.00148407 -0.196172 -0.000208001)
(0.00327842 -0.195865 0.000568326)
(0.00134461 -0.197363 -0.000205545)
(0.00312908 -0.196993 0.000573478)
(0.0064079 -0.186922 0.00217244)
(0.00179939 -0.186238 0.000909306)
(0.00634799 -0.188021 0.00218348)
(0.00173261 -0.187244 0.000916489)
(0.00272072 -0.195651 0.000199787)
(0.00272086 -0.195651 -0.000199711)
(0.00256484 -0.196745 0.000201733)
(0.00256503 -0.196744 -0.000201853)
(0.000823638 -0.1859 0.000218585)
(0.000823736 -0.185899 -0.000218487)
(0.000756381 -0.186858 0.000220768)
(0.000756438 -0.186857 -0.000220697)
(0.00327902 -0.195865 -0.000568454)
(0.00148563 -0.196172 0.000207273)
(0.0031299 -0.196992 -0.000574038)
(0.00134666 -0.197363 0.000203555)
(0.00179948 -0.186236 -0.000909216)
(0.00640827 -0.186921 -0.00217249)
(0.00173259 -0.187243 -0.000916461)
(0.00634839 -0.18802 -0.00218349)
(-0.0240109 -0.196324 0.00192118)
(0.0275111 -0.195328 0.902952)
(-0.0241903 -0.197598 0.0019214)
(0.0274048 -0.196698 0.899467)
(-0.0253227 -0.187448 0.00518306)
(0.0206928 -0.184996 0.981679)
(-0.0254797 -0.188675 0.00519421)
(0.0206871 -0.186394 0.981688)
(0.0277314 -0.192407 -0.894815)
(-0.0236196 -0.193573 -0.00192118)
(0.0276108 -0.193917 -0.898465)
(-0.0238188 -0.194998 -0.00192012)
(0.0206633 -0.182026 -0.981522)
(-0.0249544 -0.18479 -0.00516389)
(0.0206379 -0.183557 -0.981532)
(-0.0251077 -0.186158 -0.00517364)
(0.0017927 -0.193551 -0.000209809)
(0.00360123 -0.193359 0.000558744)
(0.00163398 -0.194903 -0.000209306)
(0.00343585 -0.194655 0.000563154)
(0.00653667 -0.184488 0.00215095)
(0.00193857 -0.183974 0.000895451)
(0.00647408 -0.185745 0.00216119)
(0.00186814 -0.185148 0.000902163)
(0.00305587 -0.193209 0.000195911)
(0.00305585 -0.193209 -0.00019583)
(0.00288437 -0.194473 0.000197722)
(0.00288444 -0.194473 -0.000197636)
(0.000966853 -0.183726 0.00021437)
(0.000966957 -0.183726 -0.00021438)
(0.000893847 -0.184856 0.000216412)
(0.000893972 -0.184856 -0.000216372)
(0.00360131 -0.193358 -0.000558303)
(0.00179366 -0.193549 0.000211545)
(0.00343625 -0.194654 -0.000562986)
(0.00163553 -0.194903 0.000209577)
(0.00193885 -0.183972 -0.000895438)
(0.00653802 -0.184486 -0.00215108)
(0.00186844 -0.185147 -0.000902122)
(0.00647523 -0.185744 -0.00216143)
(-0.023617 -0.193568 0.00191968)
(0.0277324 -0.192408 0.901927)
(-0.0238161 -0.194987 0.0019202)
(0.0276104 -0.193927 0.902036)
(-0.0249337 -0.184788 0.00515918)
(0.0206438 -0.182028 0.98153)
(-0.0251003 -0.186157 0.0051711)
(0.0206326 -0.183554 0.981538)
(0.0279856 -0.18918 -0.900871)
(-0.0231841 -0.190487 -0.00191618)
(0.0278463 -0.190864 -0.897348)
(-0.0234033 -0.192072 -0.00191832)
(0.0206216 -0.178772 -0.981378)
(-0.0245365 -0.18183 -0.00513414)
(0.0206053 -0.180443 -0.981381)
(-0.0247168 -0.183353 -0.00514929)
(0.00214082 -0.19059 -0.000212189)
(0.00395731 -0.190502 0.000549991)
(0.00196311 -0.192115 -0.000210958)
(0.00377532 -0.191976 0.000554086)
(0.00667782 -0.181725 0.00213209)
(0.00208744 -0.18136 0.000882986)
(0.00660914 -0.18315 0.00214105)
(0.00201201 -0.182711 0.000889003)
(0.00342337 -0.190409 0.000192527)
(0.00342326 -0.190409 -0.000192355)
(0.00323558 -0.191855 0.000194112)
(0.0032355 -0.191855 -0.000193999)
(0.00112242 -0.181195 0.000210644)
(0.00112239 -0.181194 -0.000210603)
(0.00104311 -0.182506 0.000212444)
(0.00104314 -0.182505 -0.000212449)
(0.00395709 -0.190501 -0.000550087)
(0.00214089 -0.190589 0.000211183)
(0.00377519 -0.191975 -0.000553922)
(0.00196337 -0.192113 0.000211459)
(0.00208706 -0.181358 -0.000882956)
(0.00667689 -0.181722 -0.00213218)
(0.00201197 -0.182709 -0.000889031)
(0.00660937 -0.183146 -0.00214128)
(-0.0231835 -0.190483 0.00191603)
(0.0279834 -0.189178 0.89834)
(-0.0234022 -0.192079 0.00191743)
(0.0278464 -0.190856 0.900991)
(-0.0245399 -0.181828 0.00513393)
(0.0206224 -0.178779 0.98138)
(-0.0247077 -0.18335 0.00514636)
(0.0205963 -0.18045 0.981387)
(0.0282732 -0.185612 -0.899812)
(-0.0227141 -0.187053 -0.00190753)
(0.0281185 -0.187463 -0.899914)
(-0.0229526 -0.188823 -0.0019121)
(0.020611 -0.175211 -0.981231)
(-0.0241185 -0.178547 -0.00510217)
(0.0205792 -0.177043 -0.981233)
(-0.0242994 -0.180232 -0.00511842)
(0.0025247 -0.187272 -0.000212217)
(0.00434689 -0.187276 0.000542061)
(0.00232829 -0.188978 -0.000212029)
(0.00414784 -0.188936 0.000545812)
(0.00682512 -0.178616 0.0021151)
(0.00224578 -0.178381 0.000871407)