/*--------------------------------*- C++ -*----------------------------------*\
  =========                 |
  \\      /  F ield         | OpenFOAM: The Open Source CFD Toolbox
   \\    /   O peration     | Website:  https://openfoam.org
    \\  /    A nd           | Version:  9
     \\/     M anipulation  |
\*---------------------------------------------------------------------------*/
FoamFile
{
    format      ascii;
    class       volScalarField;
    location    "2.3";
    object      epsilon;
}
// * * * * * * * * * * * * * * * * * * * * * * * * * * * * * * * * * * * * * //

dimensions      [0 2 -3 0 0 0 0];

internalField   nonuniform List<scalar> 
36360
(
0.249142
0.193396
0.0919044
0.0820104
0.0719313
0.0485967
0.0133165
0.0112742
0.0492965
0.00899081
0.0127661
0.00462906
0.0106288
0.00375407
0.005415
0.00489773
0.0026927
0.00269245
0.00433314
0.00433323
0.00307125
0.00307124
0.00495448
0.00495448
0.00899368
0.0493167
0.00462912
0.0127707
0.00375439
0.0106354
0.00489774
0.00541552
0.193446
0.249216
0.0820438
0.091944
0.0486309
0.0719674
0.0112796
0.0133205
0.455931
0.354701
0.368287
0.284659
0.273228
0.181715
0.17749
0.115498
0.139489
0.0485525
0.0971434
0.0253472
0.0668154
0.0158469
0.0318223
0.00623507
0.0136557
0.0136604
0.0048575
0.00485813
0.00362224
0.00362314
0.00237302
0.00237301
0.0485722
0.139536
0.025357
0.0971749
0.0158579
0.0668634
0.00623795
0.0318465
0.354788
0.456058
0.284727
0.368387
0.181815
0.273343
0.115564
0.177567
0.571534
0.450599
0.521419
0.408568
0.41268
0.287289
0.350666
0.239218
0.204145
0.0918425
0.174857
0.0710303
0.133337
0.0551932
0.101673
0.0341997
0.0475031
0.0475194
0.0302695
0.03028
0.0243664
0.0243781
0.00978593
0.00979049
0.091892
0.204232
0.0710642
0.174923
0.0552422
0.133445
0.0342272
0.101749
0.450739
0.571726
0.40868
0.521576
0.287466
0.412881
0.239355
0.350822
0.640811
0.509834
0.610393
0.483666
0.502523
0.35951
0.462428
0.326953
0.247913
0.125875
0.228245
0.110238
0.184478
0.094487
0.160968
0.0758497
0.0775031
0.0775302
0.0635352
0.063557
0.0584098
0.0584388
0.0416773
0.0416978
0.125956
0.248048
0.110303
0.228356
0.0945829
0.184656
0.0759223
0.161111
0.510038
0.641082
0.483837
0.610623
0.359777
0.502825
0.327175
0.462678
0.682803
0.546329
0.664502
0.530378
0.559621
0.406572
0.534439
0.385731
0.27612
0.148979
0.2637
0.138735
0.219463
0.123161
0.203861
0.110293
0.0984388
0.0984755
0.0891291
0.0891613
0.0848149
0.0848587
0.0729267
0.0729635
0.149089
0.2763
0.13883
0.263859
0.1233
0.219709
0.110411
0.204074
0.546595
0.683152
0.530613
0.664812
0.406928
0.560023
0.386044
0.534792
0.707018
0.567545
0.696691
0.558483
0.593611
0.434832
0.578959
0.422636
0.29286
0.162913
0.285691
0.156938
0.240839
0.140855
0.231601
0.133215
0.111127
0.111172
0.105686
0.105727
0.101143
0.101198
0.0941028
0.0941528
0.163046
0.293078
0.157059
0.285892
0.141028
0.241141
0.133372
0.231876
0.567863
0.707433
0.558777
0.697074
0.435264
0.594098
0.423033
0.579405
0.7197
0.578728
0.714488
0.574123
0.611914
0.450055
0.604268
0.443699
0.301795
0.170387
0.298113
0.167308
0.252421
0.15038
0.247589
0.14642
0.117927
0.117977
0.115128
0.115175
0.109873
0.109936
0.106252
0.106312
0.170536
0.30204
0.16745
0.298346
0.150577
0.252763
0.146606
0.247913
0.579084
0.720163
0.574462
0.714929
0.450542
0.612463
0.444161
0.604788
0.72535
0.583782
0.723194
0.581839
0.620463
0.45712
0.617057
0.454311
0.305912
0.173857
0.304322
0.172514
0.257837
0.154786
0.255682
0.15304
0.121086
0.121139
0.119863
0.119915
0.113873
0.113941
0.112292
0.112358
0.174016
0.306175
0.172669
0.304577
0.154999
0.258204
0.153247
0.256039
0.584163
0.725845
0.582209
0.723674
0.457642
0.621052
0.454817
0.617627
0.727008
0.585388
0.726555
0.584908
0.6235
0.459582
0.622423
0.458715
0.307337
0.175108
0.306885
0.174699
0.259809
0.15638
0.259101
0.155807
0.122242
0.122298
0.12186
0.121914
0.115306
0.115377
0.11479
0.11486
0.175273
0.307609
0.174862
0.307153
0.1566
0.26019
0.156025
0.259477
0.585783
0.727521
0.585297
0.72706
0.460123
0.624111
0.459248
0.623024
0.726644
0.58525
0.727002
0.585467
0.623674
0.459682
0.623753
0.459767
0.307407
0.175256
0.307499
0.175292
0.260045
0.156595
0.26004
0.156577
0.122414
0.12247
0.122429
0.122485
0.115505
0.115577
0.115483
0.115554
0.175423
0.307683
0.175458
0.307774
0.156819
0.260432
0.1568
0.260425
0.58565
0.727164
0.585865
0.727518
0.460231
0.624293
0.460313
0.624369
0.725199
0.584227
0.72604
0.58484
0.622509
0.458695
0.623208
0.459278
0.306833
0.174911
0.30721
0.175159
0.259512
0.156223
0.259859
0.156474
0.122162
0.122219
0.122355
0.122412
0.115189
0.115261
0.115404
0.115476
0.175079
0.30711
0.175327
0.307486
0.156447
0.259901
0.156698
0.260247
0.584629
0.725721
0.585242
0.726561
0.459247
0.623133
0.45983
0.623831
0.723167
0.58273
0.72426
0.583543
0.620586
0.457106
0.621568
0.457912
0.305908
0.174287
0.306428
0.174648
0.258533
0.155507
0.259036
0.155874
0.121666
0.121722
0.121958
0.122015
0.114574
0.114645
0.114887
0.114959
0.174455
0.306184
0.174816
0.306705
0.155731
0.258921
0.156099
0.259425
0.583132
0.723688
0.583945
0.724782
0.457656
0.621208
0.458463
0.62219
0.720754
0.580947
0.722021
0.581889
0.618232
0.455183
0.619409
0.456138
0.304786
0.173518
0.305394
0.173944
0.25732
0.154619
0.257929
0.155064
0.121046
0.121102
0.121394
0.12145
0.113809
0.113881
0.11419
0.114261
0.173685
0.305062
0.174112
0.305671
0.154842
0.257706
0.155287
0.258316
0.581347
0.721274
0.582289
0.722541
0.455731
0.618852
0.456687
0.62003
0.718048
0.578952
0.719457
0.579995
0.615561
0.453015
0.616889
0.454087
0.303525
0.172646
0.3042
0.173121
0.255937
0.153605
0.256626
0.154109
0.12034
0.120395
0.120729
0.120785
0.112938
0.113009
0.113369
0.11344
0.172812
0.303799
0.173288
0.304474
0.153826
0.25632
0.154331
0.25701
0.57935
0.718564
0.580394
0.719974
0.45356
0.616178
0.454633
0.617506
0.71506
0.57676
0.71661
0.577902
0.612604
0.450628
0.614074
0.451809
0.302138
0.171685
0.302875
0.172204
0.254406
0.152481
0.255168
0.153039
0.119559
0.119615
0.119985
0.12004
0.111974
0.112044
0.11245
0.112521
0.17185
0.30241
0.17237
0.303148
0.152701
0.254786
0.15326
0.25555
0.577155
0.715572
0.578298
0.717124
0.451169
0.613216
0.452352
0.614688
0.711797
0.574379
0.713486
0.575615
0.60937
0.448026
0.610979
0.449315
0.300631
0.170637
0.301429
0.1712
0.252731
0.151253
0.253565
0.151863
0.118707
0.118762
0.119169
0.119224
0.110919
0.110988
0.111441
0.111511
0.170801
0.300901
0.171364
0.3017
0.15147
0.253108
0.152082
0.253944
0.57477
0.712307
0.576008
0.713996
0.448563
0.609978
0.449854
0.611588
0.708252
0.571802
0.710084
0.573138
0.605853
0.445203
0.607605
0.446605
0.298999
0.169501
0.29986
0.170109
0.250911
0.149916
0.251818
0.150581
0.117782
0.117836
0.118281
0.118335
0.109771
0.10984
0.11034
0.110409
0.169664
0.299267
0.170272
0.300129
0.150131
0.251284
0.150797
0.252194
0.572191
0.708757
0.573528
0.710591
0.445736
0.606456
0.447139
0.60821
0.704412
0.569022
0.706393
0.570461
0.602043
0.442151
0.603944
0.443669
0.297239
0.168274
0.298166
0.168928
0.248939
0.148467
0.249923
0.149189
0.11678
0.116834
0.117318
0.117372
0.108527
0.108595
0.109145
0.109213
0.168435
0.297504
0.16909
0.298432
0.14868
0.249309
0.149403
0.250295
0.569407
0.704912
0.570848
0.706896
0.442678
0.60264
0.444198
0.604543
0.700263
0.566029
0.702399
0.567574
0.597927
0.438859
0.599982
0.440498
0.295343
0.166952
0.296338
0.167654
0.24681
0.146902
0.247874
0.147682
0.115701
0.115754
0.116278
0.116332
0.107183
0.107251
0.107851
0.107919
0.167111
0.295606
0.167815
0.296602
0.147112
0.247176
0.147894
0.248242
0.56641
0.700759
0.567958
0.702897
0.439382
0.59852
0.441023
0.600576
0.695802
0.56282
0.698096
0.564476
0.593501
0.43532
0.595714
0.437085
0.29331
0.165532
0.294375
0.166284
0.244519
0.145218
0.245665
0.146059
0.11454
0.114593
0.115158
0.115211
0.105737
0.105804
0.106457
0.106524
0.16569
0.29357
0.166442
0.294636
0.145426
0.244881
0.146268
0.246029
0.563198
0.696293
0.564855
0.698589
0.435837
0.594087
0.437604
0.596302
0.691021
0.55939
0.693476
0.561157
0.588757
0.431526
0.59113
0.433419
0.291136
0.164012
0.292272
0.164814
0.242065
0.143413
0.243293
0.144314
0.113296
0.113349
0.113956
0.114009
0.104187
0.104252
0.104959
0.105025
0.164168
0.291393
0.164971
0.29253
0.143618
0.242422
0.144521
0.243653
0.559764
0.691507
0.561532
0.693964
0.432036
0.589337
0.433933
0.591712
0.68592
0.555737
0.688535
0.557615
0.583696
0.427473
0.586227
0.429496
0.28882
0.162392
0.290027
0.163245
0.239444
0.141486
0.240756
0.142449
0.11197
0.112021
0.112671
0.112723
0.102533
0.102597
0.103357
0.103422
0.162546
0.289074
0.1634
0.290282
0.141688
0.239797
0.142652
0.241111
0.556106
0.6864
0.557986
0.689018
0.427977
0.584268
0.430004
0.586803
0.680504
0.551864
0.683276
0.553851
0.578321
0.423165
0.581009
0.425316
0.286364
0.160673
0.287641
0.161575
0.236661
0.13944
0.238054
0.140463
0.110561
0.110612
0.111304
0.111355
0.100776
0.100839
0.101651
0.101715
0.160825
0.286614
0.161728
0.287893
0.139639
0.237009
0.140663
0.238404
0.552228
0.680979
0.554218
0.683753
0.423662
0.578887
0.425817
0.581577
0.674782
0.547778
0.677706
0.549871
0.572646
0.418612
0.575483
0.420883
0.283771
0.158857
0.285116
0.159807
0.233722
0.137279
0.235192
0.138359
0.109073
0.109123
0.109855
0.109906
0.0989204
0.0989828
0.0998448
0.0999078
0.159007
0.284018
0.159958
0.285365
0.137475
0.234064
0.138556
0.235537
0.548137
0.67525
0.550233
0.678177
0.419102
0.573203
0.421377
0.576044
0.668767
0.543479
0.671834
0.545678
0.566688
0.413855
0.569665
0.416225
0.281046
0.156949
0.282456
0.157945
0.230636
0.135009
0.232179
0.136143
0.107508
0.107558
0.108328
0.108378
0.0969709
0.0970321
0.0979419
0.0980037
0.157096
0.281289
0.158093
0.282701
0.135201
0.230971
0.136336
0.232518
0.543833
0.669228
0.546035
0.672299
0.414337
0.567237
0.416711
0.570217
0.662485
0.53899
0.665683
0.541281
0.560467
0.40889
0.563573
0.411365
0.2782
0.154954
0.279669
0.155992
0.22741
0.132636
0.229022
0.13382
0.105872
0.105921
0.106727
0.106776
0.0949341
0.094994
0.095948
0.0960086
0.155099
0.278439
0.156138
0.279911
0.132824
0.22774
0.13401
0.229355
0.539338
0.66294
0.541632
0.66614
0.409364
0.561007
0.411844
0.564117
0.65597
0.534331
0.659281
0.536704
0.554012
0.403733
0.557232
0.406302
0.275244
0.152881
0.276767
0.153957
0.224059
0.130171
0.225732
0.1314
0.104171
0.104219
0.105058
0.105106
0.0928194
0.092878
0.0938712
0.0939306
0.153024
0.275479
0.154101
0.277004
0.130356
0.224382
0.131586
0.226059
0.534674
0.656417
0.53705
0.659731
0.404199
0.554543
0.406772
0.557767
0.649254
0.529525
0.65266
0.531969
0.547357
0.398416
0.550674
0.401061
0.272194
0.150741
0.273762
0.151849
0.220599
0.127628
0.222325
0.128895
0.102414
0.102461
0.103327
0.103375
0.0906381
0.0906954
0.0917221
0.0917801
0.150881
0.272425
0.15199
0.273995
0.127808
0.220916
0.129077
0.222645
0.529862
0.649694
0.532309
0.653103
0.398873
0.547879
0.401523
0.551199
0.642375
0.524593
0.645858
0.527097
0.540537
0.392966
0.543933
0.395676
0.269063
0.148543
0.270669
0.149678
0.217048
0.125018
0.218818
0.126317
0.100609
0.100655
0.101545
0.101591
0.0884026
0.0884585
0.0895125
0.0895691
0.14868
0.269289
0.149817
0.270898
0.125194
0.217359
0.126495
0.219132
0.524923
0.642807
0.527431
0.646293
0.393414
0.541049
0.396129
0.544449
0.635372
0.519562
0.638912
0.52211
0.533584
0.387394
0.537044
0.390166
0.265865
0.146297
0.267503
0.147455
0.213421
0.122357
0.215227
0.12368
0.0987652
0.0988104
0.0997196
0.0997653
0.0861249
0.0861793
0.0872548
0.08731
0.146432
0.266088
0.147591
0.267728
0.122528
0.213724
0.123854
0.215535
0.519886
0.635796
0.522438
0.639339
0.387834
0.534086
0.39061
0.53755
0.628268
0.514458
0.631857
0.517043
0.526515
0.381721
0.530033
0.38454
0.262611
0.144011
0.264278
0.145189
0.209727
0.119651
0.211567
0.120996
0.0968873
0.0969315
0.0978586
0.0979033
0.0838129
0.0838659
0.0849598
0.0850136
0.144142
0.262828
0.145322
0.264497
0.119818
0.210024
0.121166
0.211867
0.514775
0.628682
0.517364
0.632276
0.38215
0.527006
0.384975
0.530529
0.621058
0.509253
0.624702
0.511893
0.519307
0.37594
0.522902
0.37882
0.259287
0.141675
0.260991
0.14288
0.205957
0.116894
0.207839
0.118268
0.0949695
0.0950127
0.0959622
0.096006
0.0814638
0.0815152
0.0826311
0.0826834
0.141803
0.259499
0.14301
0.261206
0.117057
0.206246
0.118433
0.208132
0.509563
0.621464
0.512207
0.625112
0.376359
0.519787
0.379244
0.523387
0.613696
0.503896
0.617427
0.506622
0.511869
0.369972
0.515598
0.37296
0.25585
0.139258
0.257619
0.140509
0.202059
0.114055
0.204015
0.115477
0.0929851
0.0930271
0.0940161
0.0940587
0.0790515
0.0791012
0.0802562
0.0803068
0.139383
0.256057
0.140636
0.257828
0.114213
0.20234
0.115637
0.2043
0.504198
0.614091
0.506928
0.617827
0.370379
0.512336
0.373374
0.516071
0.606044
0.498264
0.609943
0.501148
0.503987
0.363651
0.507975
0.366844
0.252205
0.136686
0.254094
0.138027
0.197919
0.11105
0.200016
0.11257
0.0908698
0.0909106
0.091977
0.0920185
0.0765075
0.0765554
0.0777905
0.0778394
0.136808
0.252406
0.138151
0.254298
0.111202
0.19819
0.112725
0.200292
0.498558
0.606428
0.501446
0.610333
0.364047
0.504441
0.367246
0.508435
0.59784
0.492128
0.602057
0.4953
0.495271
0.35669
0.499739
0.360249
0.248173
0.133818
0.250283
0.13533
0.193323
0.107719
0.195683
0.109428
0.0884997
0.088539
0.0897541
0.0897942
0.0736948
0.0737406
0.0751351
0.0751821
0.133935
0.248366
0.135449
0.250481
0.107865
0.193584
0.109577
0.195949
0.492412
0.598212
0.495589
0.602435
0.357071
0.495708
0.360638
0.500184
0.58866
0.485111
0.593427
0.488781
0.485097
0.348647
0.490388
0.352813
0.243453
0.130411
0.245953
0.13223
0.187919
0.103791
0.190737
0.105841
0.0856631
0.0857007
0.087183
0.0872215
0.070379
0.0704224
0.0721075
0.0721521
0.130523
0.243638
0.132345
0.246143
0.103929
0.188168
0.105983
0.190993
0.485383
0.589018
0.489059
0.593792
0.349011
0.485516
0.353186
0.490815
0.577989
0.476599
0.58356
0.481117
0.47266
0.338929
0.479186
0.344017
0.237515
0.126057
0.240716
0.128415
0.18116
0.0988519
0.184742
0.101469
0.0820325
0.082068
0.0839974
0.0840341
0.0662233
0.0662637
0.0684188
0.0684608
0.126162
0.237691
0.128524
0.240896
0.0989817
0.181395
0.101603
0.184984
0.476859
0.578331
0.481384
0.58391
0.339276
0.473059
0.344373
0.479594
0.56603
0.464672
0.572049
0.471366
0.45764
0.326577
0.465381
0.333173
0.22891
0.119965
0.233757
0.123329
0.172058
0.0923686
0.176986
0.0958258
0.0771745
0.0772075
0.0798076
0.0798419
0.0609201
0.060957
0.0637115
0.0637502
0.120064
0.229075
0.123432
0.233928
0.092488
0.172277
0.0959506
0.177213
0.464919
0.56636
0.47162
0.572385
0.326906
0.45802
0.333511
0.46577
0.563335
0.433647
0.561803
0.454754
0.441346
0.30252
0.449931
0.31779
0.211771
0.110718
0.222181
0.115841
0.158139
0.0841812
0.165941
0.0884246
0.0708917
0.0709216
0.0742083
0.0742398
0.0548219
0.0548547
0.0578783
0.0579132
0.110807
0.211921
0.115935
0.222339
0.0842879
0.158337
0.088538
0.16615
0.433875
0.563665
0.454992
0.56213
0.302823
0.441718
0.318108
0.450306
0.370234
0.286552
0.165813
0.131994
0.325491
0.251522
0.137068
0.110535
0.0958802
0.0222687
0.0238184
0.00637897
0.0767081
0.0159626
0.0185231
0.00549928
0.00507799
0.00507917
0.00415244
0.00415246
0.00389391
0.00389408
0.00427562
0.00427575
0.0222814
0.0959225
0.00638084
0.023836
0.0159704
0.0767405
0.00549999
0.0185334
0.286636
0.370365
0.132062
0.165906
0.251589
0.325596
0.110588
0.137137
0.623987
0.493059
0.517849
0.40479
0.559286
0.439547
0.461666
0.359329
0.228563
0.0985273
0.16794
0.0594034
0.19258
0.0769661
0.139695
0.044565
0.0432052
0.0432215
0.016337
0.0163443
0.0290542
0.029065
0.0103638
0.0103674
0.0985719
0.228641
0.0594303
0.167996
0.0769985
0.192642
0.0445836
0.139739
0.493185
0.624175
0.404892
0.518008
0.439652
0.559444
0.359413
0.461797
0.762721
0.612514
0.702779
0.560342
0.686179
0.547444
0.631435
0.500404
0.318756
0.166937
0.278213
0.13494
0.270747
0.133694
0.235662
0.107067
0.102313
0.102343
0.0739494
0.0739726
0.0768452
0.0768685
0.0536856
0.0537028
0.16702
0.318886
0.135004
0.278316
0.13376
0.270855
0.107116
0.235745
0.612704
0.762986
0.560498
0.703003
0.547606
0.686405
0.500535
0.631625
0.844696
0.685344
0.808866
0.6533
0.760944
0.612962
0.728268
0.584147
0.378342
0.216703
0.351724
0.194142
0.322265
0.175455
0.299251
0.156479
0.147696
0.147737
0.126986
0.127022
0.114462
0.114497
0.0972323
0.0972613
0.216821
0.378529
0.194243
0.351883
0.175554
0.322423
0.156562
0.299384
0.685606
0.84505
0.653526
0.809175
0.613191
0.761252
0.584342
0.728534
0.893727
0.729763
0.872424
0.710385
0.80565
0.652847
0.786227
0.635456
0.416296
0.249607
0.399607
0.23505
0.355032
0.203155
0.340634
0.190905
0.178178
0.17823
0.16466
0.164707
0.139865
0.139909
0.128604
0.128644
0.249757
0.416534
0.235185
0.39982
0.203283
0.355238
0.19102
0.340816
0.730096
0.894169
0.710683
0.872822
0.65314
0.806039
0.635718
0.786576
0.921834
0.755568
0.909859
0.744541
0.831231
0.675927
0.82034
0.666078
0.438927
0.269564
0.429212
0.260972
0.374463
0.219858
0.366138
0.212685
0.196781
0.196842
0.188764
0.188821
0.155268
0.15532
0.148649
0.148698
0.269741
0.439208
0.261136
0.429472
0.220011
0.374708
0.212826
0.366365
0.755959
0.92235
0.744904
0.91034
0.676274
0.831689
0.666399
0.820766
0.936569
0.769277
0.930517
0.763623
0.844576
0.6881
0.839102
0.68309
0.451229
0.28054
0.446134
0.275983
0.384916
0.228929
0.380601
0.225179
0.20705
0.207118
0.202783
0.202848
0.16365
0.163708
0.160184
0.160239
0.280736
0.451542
0.27617
0.446432
0.229099
0.38519
0.225341
0.380861
0.769711
0.937141
0.764037
0.931062
0.688486
0.845085
0.683458
0.839588
0.943136
0.775547
0.940646
0.77314
0.850476
0.693607
0.848243
0.691499
0.457077
0.285847
0.454804
0.283771
0.389806
0.233233
0.387916
0.23156
0.212049
0.21212
0.210088
0.210157
0.167644
0.167707
0.166089
0.166149
0.286056
0.45741
0.283974
0.455128
0.233415
0.390099
0.231737
0.3882
0.77601
0.943744
0.77359
0.941237
0.694019
0.851019
0.691899
0.848771
0.944983
0.777535
0.944517
0.776958
0.852111
0.695318
0.851703
0.694827
0.459207
0.287899
0.458521
0.287211
0.391534
0.234841
0.390988
0.234312
0.214028
0.214102
0.213352
0.213425
0.169171
0.169235
0.16866
0.168723
0.288116
0.459553
0.287424
0.458861
0.23503
0.391837
0.234497
0.391286
0.778015
0.945613
0.777431
0.945137
0.695745
0.852673
0.695248
0.852257
0.944383
0.777295
0.944918
0.777626
0.851565
0.695085
0.852044
0.695379
0.459392
0.288248
0.459506
0.288266
0.391638
0.235072
0.391752
0.235106
0.214434
0.21451
0.214412
0.214487
0.169442
0.169507
0.169447
0.169512
0.288468
0.459742
0.288484
0.459855
0.235263
0.391945
0.235296
0.392057
0.777782
0.945023
0.77811
0.945553
0.695518
0.852136
0.69581
0.85261
0.942441
0.775891
0.943563
0.776732
0.849825
0.693841
0.850828
0.694582
0.458623
0.287808
0.459145
0.288149
0.390951
0.234669
0.391408
0.234968
0.214128
0.214203
0.21439
0.214466
0.169157
0.169223
0.169388
0.169453
0.288029
0.458976
0.28837
0.459497
0.234861
0.39126
0.23516
0.391716
0.776381
0.943084
0.777221
0.944205
0.694276
0.850398
0.695016
0.8514
0.939769
0.77386
0.941211
0.774971
0.847434
0.692053
0.848721
0.693028
0.457334
0.286921
0.458075
0.287452
0.389834
0.233911
0.390471
0.234359
0.213416
0.213492
0.213853
0.213929
0.168553
0.168618
0.168918
0.168984
0.287142
0.457686
0.287673
0.458428
0.234103
0.390142
0.234551
0.390779
0.774349
0.940411
0.775461
0.941853
0.692488
0.848007
0.693463
0.849294
0.936622
0.771449
0.938278
0.772729
0.844619
0.689934
0.8461
0.691057
0.455755
0.285806
0.456624
0.286437
0.388475
0.232968
0.389219
0.233498
0.212504
0.212579
0.213029
0.213104
0.167789
0.167854
0.168225
0.168291
0.286026
0.456107
0.286658
0.456976
0.233159
0.388783
0.23369
0.389527
0.771936
0.937261
0.773217
0.938919
0.690367
0.84519
0.69149
0.846671
0.933116
0.768765
0.934944
0.770175
0.841478
0.687575
0.843115
0.688812
0.453978
0.284536
0.454941
0.28524
0.386948
0.231897
0.387772
0.232488
0.211458
0.211533
0.212045
0.212121
0.166916
0.166981
0.167404
0.167469
0.284755
0.454328
0.28546
0.455291
0.232087
0.387254
0.232678
0.388079
0.76925
0.933753
0.77066
0.935582
0.688005
0.842045
0.689243
0.843683
0.929266
0.765827
0.931267
0.767363
0.838021
0.684988
0.839817
0.686338
0.452027
0.283138
0.453075
0.283905
0.385272
0.230718
0.38617
0.231362
0.210303
0.210378
0.210944
0.211019
0.165953
0.166017
0.166485
0.16655
0.283356
0.452374
0.284123
0.453424
0.230907
0.385575
0.231551
0.386475
0.766308
0.929898
0.767846
0.931901
0.685416
0.838584
0.686767
0.840381
0.925083
0.762649
0.92725
0.764304
0.834259
0.682188
0.836207
0.683645
0.449912
0.281618
0.451042
0.282446
0.383452
0.229435
0.384422
0.230131
0.209046
0.209121
0.209738
0.209812
0.164903
0.164967
0.165478
0.165543
0.281835
0.450257
0.282663
0.451389
0.229623
0.383754
0.230319
0.384725
0.763127
0.925711
0.764784
0.92788
0.682612
0.834818
0.684071
0.836768
0.920559
0.759225
0.922899
0.761005
0.830181
0.679165
0.83229
0.680735
0.44763
0.279976
0.448845
0.280866
0.381487
0.228047
0.382531
0.228797
0.207686
0.20776
0.20843
0.208504
0.163764
0.163828
0.164385
0.164448
0.280191
0.447973
0.281081
0.449189
0.228233
0.381787
0.228983
0.382832
0.7597
0.921182
0.761481
0.923524
0.679587
0.830736
0.681158
0.832846
0.915673
0.755541
0.918197
0.757454
0.825772
0.675911
0.828048
0.677598
0.445173
0.278207
0.446477
0.279161
0.37937
0.22655
0.380491
0.227355
0.20622
0.206293
0.207017
0.207091
0.162535
0.162598
0.163201
0.163265
0.27842
0.445513
0.279375
0.446818
0.226735
0.379666
0.22754
0.380789
0.756011
0.916291
0.757926
0.918817
0.676328
0.826322
0.678018
0.828601
0.91041
0.751583
0.913121
0.753631
0.821016
0.672413
0.823465
0.674222
0.442535
0.276305
0.44393
0.277326
0.377093
0.224939
0.378295
0.225801
0.204642
0.204715
0.205496
0.205568
0.161211
0.161274
0.161925
0.161988
0.276517
0.442871
0.277538
0.444268
0.225122
0.377387
0.225985
0.37859
0.752049
0.911022
0.754099
0.913736
0.672827
0.821561
0.674637
0.824013
0.904768
0.747353
0.907671
0.749539
0.815912
0.668672
0.818538
0.670604
0.439711
0.274268
0.4412
0.275357
0.374655
0.223212
0.375938
0.224133
0.202951
0.203023
0.203862
0.203934
0.15979
0.159852
0.160553
0.160615
0.274478
0.440045
0.275567
0.441535
0.223393
0.374946
0.224315
0.376231
0.747814
0.905374
0.750003
0.90828
0.669081
0.816452
0.671016
0.81908
0.898736
0.742842
0.901835
0.745168
0.81045
0.664679
0.813255
0.666737
0.436698
0.272092
0.438282
0.273251
0.372052
0.221366
0.373418
0.222346
0.201143
0.201214
0.202112
0.202184
0.15827
0.158331
0.159083
0.159145
0.2723
0.437029
0.273459
0.438614
0.221545
0.37234
0.222526
0.373707
0.743298
0.899336
0.745627
0.902437
0.665084
0.810984
0.667144
0.813792
0.892312
0.738049
0.895607
0.740517
0.80463
0.660435
0.807614
0.662618
0.433494
0.269776
0.435174
0.271005
0.369282
0.2194
0.370732
0.22044
0.199217
0.199288
0.200246
0.200316
0.156651
0.156711
0.157513
0.157574
0.269982
0.433821
0.271211
0.435502
0.219577
0.369567
0.220618
0.371018
0.738501
0.892905
0.740971
0.896203
0.660835
0.805158
0.663021
0.808145
0.885501
0.732973
0.888988
0.735582
0.798456
0.655945
0.801616
0.65825
0.4301
0.267321
0.431875
0.268619
0.366349
0.217316
0.36788
0.218415
0.197175
0.197245
0.198261
0.198332
0.154933
0.154993
0.155844
0.155905
0.267524
0.430423
0.268823
0.432199
0.217491
0.36663
0.218591
0.368162
0.733419
0.886087
0.736031
0.889577
0.656341
0.798977
0.658648
0.80214
0.878323
0.72762
0.88199
0.730365
0.791934
0.651218
0.795268
0.653642
0.426521
0.264732
0.428387
0.266096
0.363255
0.215117
0.364866
0.216273
0.19502
0.195088
0.196162
0.196231
0.153119
0.153178
0.154078
0.154138
0.264932
0.42684
0.266297
0.428707
0.21529
0.363533
0.216447
0.365145
0.728061
0.878901
0.730808
0.882571
0.651608
0.792449
0.654034
0.795786
0.8708
0.722039
0.874638
0.724891
0.785083
0.646235
0.788576
0.648788
0.422775
0.262014
0.424722
0.263441
0.360004
0.212808
0.361693
0.214018
0.192755
0.192823
0.193951
0.194019
0.151213
0.151272
0.152218
0.152276
0.262212
0.42309
0.26364
0.425039
0.212978
0.360278
0.21419
0.361968
0.722473
0.871371
0.725328
0.875212
0.64662
0.785591
0.649175
0.789087
0.862939
0.716223
0.866943
0.719196
0.77794
0.641028
0.781576
0.643686
0.418865
0.259175
0.420893
0.260662
0.356608
0.210394
0.358367
0.211656
0.190388
0.190455
0.191634
0.191702
0.149221
0.149279
0.150268
0.150326
0.25937
0.419175
0.260859
0.421206
0.210562
0.356878
0.211825
0.358638
0.71665
0.863502
0.719627
0.867509
0.641407
0.778441
0.644067
0.782079
0.854778
0.710176
0.858926
0.71326
0.770534
0.635633
0.774297
0.638382
0.4148
0.256223
0.416903
0.257765
0.353083
0.207887
0.354905
0.209194
0.187924
0.187991
0.189217
0.189284
0.147151
0.147207
0.148235
0.148292
0.256415
0.415105
0.257958
0.417211
0.208052
0.353349
0.209361
0.355172
0.710597
0.855332
0.713685
0.859484
0.636006
0.771026
0.638758
0.774793
0.846359
0.703931
0.85063
0.70711
0.762897
0.63007
0.76677
0.632899
0.410599
0.25317
0.412768
0.25476
0.349445
0.205298
0.351321
0.206644
0.185377
0.185442
0.18671
0.186776
0.145011
0.145067
0.146128
0.146185
0.25336
0.4109
0.254951
0.413071
0.20546
0.349706
0.206808
0.351584
0.704346
0.846904
0.707527
0.851179
0.630437
0.763382
0.633269
0.767258
0.837727
0.697519
0.842099
0.700777
0.755071
0.624366
0.759034
0.627263
0.406282
0.25003
0.408507
0.251662
0.345709
0.202637
0.347631
0.204017
0.182754
0.182819
0.184123
0.184188
0.142812
0.142867
0.143958
0.144013
0.250216
0.406578
0.25185
0.408805
0.202797
0.345965
0.204178
0.34789
0.697926
0.838262
0.701188
0.842639
0.624726
0.755547
0.627626
0.759514
0.828918
0.690959
0.833373
0.694289
0.747089
0.618537
0.751125
0.621496
0.40186
0.246812
0.404135
0.248481
0.341887
0.199915
0.343852
0.201325
0.180066
0.180129
0.181467
0.181531
0.140562
0.140616
0.141732
0.141786
0.246995
0.40215
0.248666
0.404428
0.200072
0.342139
0.201483
0.344105
0.691359
0.829444
0.694692
0.833903
0.61889
0.747556
0.621852
0.751596
0.819964
0.684262
0.824488
0.687659
0.738985
0.612577
0.743077
0.615598
0.397337
0.243516
0.399663
0.245225
0.337982
0.197134
0.339987
0.198573
0.177311
0.177373
0.178746
0.178808
0.138263
0.138316
0.139458
0.139511
0.243696
0.397622
0.245406
0.39995
0.197288
0.338229
0.198728
0.340236
0.684654
0.82048
0.688055
0.825009
0.612923
0.739442
0.615948
0.74354
0.810865
0.67742
0.815464
0.680893
0.730764
0.606506
0.734918
0.609584
0.392694
0.240123
0.395084
0.241884
0.333986
0.194282
0.33604
0.19576
0.174471
0.174532
0.175952
0.176013
0.135905
0.135956
0.137132
0.137184
0.240299
0.392973
0.242062
0.395366
0.194433
0.334227
0.195912
0.336284
0.677804
0.81137
0.68128
0.815974
0.606844
0.731212
0.609926
0.73537
0.801563
0.670368
0.806276
0.673958
0.722375
0.600263
0.726623
0.603439
0.387864
0.236572
0.390359
0.238422
0.329845
0.191314
0.331981
0.192858
0.171489
0.171548
0.17305
0.17311
0.133445
0.133496
0.13473
0.134781
0.236744
0.388136
0.238596
0.390635
0.191461
0.33008
0.193006
0.332219
0.670742
0.802056
0.674337
0.806774
0.600594
0.722812
0.603773
0.727066
0.791908
0.662954
0.796822
0.666749
0.713677
0.593713
0.718103
0.597064
0.382705
0.232736
0.385388
0.234749
0.325439
0.188129
0.327727
0.189797
0.168247
0.168305
0.169957
0.170016
0.130796
0.130845
0.13219
0.13224
0.232903
0.38297
0.234919
0.385656
0.188272
0.325668
0.189942
0.327959
0.663318
0.792387
0.667118
0.797308
0.594034
0.714102
0.59739
0.718534
0.781629
0.654915
0.786896
0.659063
0.704411
0.58661
0.709161
0.590275
0.376969
0.228392
0.379978
0.230693
0.320556
0.184544
0.323115
0.186441
0.164539
0.164595
0.166514
0.166571
0.127791
0.127838
0.129388
0.129437
0.228554
0.377225
0.230858
0.380239
0.184683
0.320777
0.186581
0.32334
0.655268
0.782094
0.659421
0.787368
0.58692
0.704823
0.590591
0.709579
0.770346
0.645849
0.776164
0.650569
0.694183
0.578564
0.699469
0.582759
0.370257
0.223177
0.373815
0.225969
0.314843
0.180257
0.317872
0.182551
0.16003
0.160084
0.162455
0.16251
0.124158
0.124203
0.126111
0.126157
0.223334
0.370504
0.226128
0.374067
0.180389
0.315055
0.182687
0.318088
0.646188
0.770794
0.650915
0.776621
0.578863
0.69458
0.583064
0.699874
0.757793
0.635111
0.764245
0.640777
0.682589
0.568921
0.688592
0.574029
0.361852
0.216486
0.366384
0.220115
0.307653
0.174745
0.311535
0.177737
0.154222
0.154274
0.15737
0.157423
0.119476
0.119519
0.122015
0.12206
0.216635
0.362089
0.220267
0.366626
0.174871
0.307855
0.177866
0.311742
0.635437
0.758226
0.641109
0.764686
0.569207
0.682971
0.574321
0.688981
0.745689
0.620415
0.75132
0.628631
0.67053
0.555381
0.676377
0.563003
0.349638
0.207089
0.356535
0.212287
0.297088
0.166951
0.30307
0.171271
0.146425
0.146474
0.150659
0.150709
0.11316
0.113201
0.116594
0.116636
0.207231
0.349863
0.212433
0.356765
0.167069
0.29728
0.171394
0.303267
0.620727
0.746112
0.62895
0.751747
0.555654
0.670901
0.563282
0.676752
0.754533
0.582053
0.74441
0.608246
0.674103
0.519516
0.667833
0.543961
0.32555
0.192886
0.340081
0.200725
0.275841
0.155003
0.288717
0.161622
0.136256
0.136302
0.141639
0.141686
0.104881
0.104918
0.109267
0.109306
0.193017
0.32576
0.200862
0.340299
0.155112
0.276018
0.161736
0.288902
0.582348
0.754969
0.608551
0.744835
0.519771
0.674481
0.544226
0.668203
0.414292
0.321582
0.195204
0.153369
0.397437
0.307994
0.183996
0.144699
0.11605
0.0298426
0.0302975
0.00763741
0.108144
0.0267118
0.027458
0.00708537
0.00681646
0.00682002
0.00425451
0.00425456
0.00604423
0.00604664
0.00423765
0.00423766
0.0298649
0.116106
0.00764201
0.0303314
0.0267296
0.108195
0.00708883
0.0274825
0.321692
0.414464
0.15346
0.195333
0.308092
0.397591
0.14478
0.184109
0.6904
0.548906
0.573914
0.450917
0.664367
0.526882
0.552208
0.432924
0.268326
0.124607
0.198309
0.0766153
0.252466
0.113941
0.186329
0.0696848
0.062359
0.0623833
0.0249698
0.0249836
0.054292
0.0543127
0.0212422
0.021253
0.124672
0.268431
0.0766562
0.198386
0.113997
0.252558
0.0697191
0.186396
0.549069
0.690642
0.45105
0.57412
0.527028
0.664584
0.433042
0.552392
0.846222
0.684728
0.778356
0.624899
0.812764
0.655609
0.748387
0.599141
0.375135
0.209285
0.326729
0.169545
0.352118
0.191599
0.307141
0.155238
0.137205
0.137245
0.101354
0.101386
0.122336
0.122371
0.0897555
0.0897835
0.209395
0.375306
0.169633
0.326866
0.191697
0.35227
0.155315
0.307262
0.684971
0.846557
0.6251
0.778642
0.655827
0.813065
0.59932
0.748644
0.940466
0.769676
0.899075
0.7321
0.901432
0.735084
0.862594
0.700029
0.447408
0.271605
0.414966
0.243271
0.418701
0.248292
0.388892
0.222566
0.194786
0.194839
0.168456
0.168502
0.174445