/*--------------------------------*- C++ -*----------------------------------*\
  =========                 |
  \\      /  F ield         | OpenFOAM: The Open Source CFD Toolbox
   \\    /   O peration     | Website:  https://openfoam.org
    \\  /    A nd           | Version:  9
     \\/     M anipulation  |
\*---------------------------------------------------------------------------*/
FoamFile
{
    format      ascii;
    class       volVectorField;
    location    "2.3";
    object      U;
}
// * * * * * * * * * * * * * * * * * * * * * * * * * * * * * * * * * * * * * //

dimensions      [0 1 -1 0 0 0 0];

internalField   nonuniform List<vector> 
36360
(
(0.00237549 -0.122512 -0.498351)
(-0.000403435 -0.0909287 0.000167119)
(0.00207896 -0.125911 -0.500759)
(-0.00173005 -0.0825581 8.50029e-05)
(0.00138143 -0.132057 -0.501034)
(0.00771027 -0.078758 8.72023e-06)
(0.00402257 -0.13696 -0.501993)
(0.00840238 -0.0850567 1.19065e-05)
(0.00112682 -0.0987229 -0.000103958)
(-0.00189488 -0.10309 -5.53552e-06)
(-0.0013808 -0.0965991 -5.79245e-05)
(-0.00305623 -0.101163 -2.78664e-06)
(0.00638896 -0.103464 2.0019e-06)
(0.00442066 -0.106428 -5.44139e-06)
(0.00741001 -0.108638 -1.5052e-05)
(0.00657942 -0.109003 -5.05666e-06)
(-0.00284301 -0.104504 -3.62536e-08)
(-0.00284301 -0.104503 4.18417e-08)
(-0.00315806 -0.102496 8.29609e-08)
(-0.00315809 -0.102495 -8.09724e-08)
(0.00457445 -0.104882 -1.91681e-06)
(0.00457425 -0.104882 1.92454e-06)
(0.00665795 -0.107408 -6.72608e-07)
(0.00665786 -0.107408 6.74704e-07)
(-0.00189405 -0.103087 5.54393e-06)
(0.00112839 -0.0987194 0.000103999)
(-0.0030561 -0.101161 2.79094e-06)
(-0.00137931 -0.0965954 5.79518e-05)
(0.00442029 -0.106426 5.4474e-06)
(0.00638946 -0.103456 -2.01359e-06)
(0.00657924 -0.109 5.06113e-06)
(0.00741005 -0.108632 1.50425e-05)
(-0.000403621 -0.0909271 -0.000167154)
(0.00237672 -0.122514 0.49835)
(-0.00173064 -0.0825549 -8.50292e-05)
(0.00208028 -0.125914 0.500759)
(0.00770853 -0.0787467 -8.72662e-06)
(0.00138348 -0.132071 0.501034)
(0.00839948 -0.0850428 -1.19054e-05)
(0.00402583 -0.136978 0.501993)
(0.0047415 -0.119235 -0.496531)
(-0.00357789 -0.0959867 0.000165121)
(0.00395279 -0.121242 -0.497481)
(-0.00176847 -0.0936984 0.000175974)
(0.00165311 -0.127801 -0.501017)
(0.000238266 -0.0744429 -6.06197e-05)
(0.00121853 -0.1301 -0.501231)
(0.00371074 -0.0740783 -2.02132e-05)
(0.00210961 -0.10016 -7.38243e-05)
(0.000996223 -0.103938 -1.16562e-05)
(0.00235196 -0.0996091 -9.41393e-05)
(0.000201175 -0.10379 -7.95153e-06)
(0.00432893 -0.0940723 9.45059e-05)
(0.00262216 -0.102459 -8.03411e-06)
(0.00591741 -0.0976211 4.35124e-05)
(0.0032729 -0.104256 -6.78346e-06)
(-0.000398179 -0.105856 -2.43833e-06)
(-0.000397821 -0.105855 2.44747e-06)
(-0.00169319 -0.10569 -1.11188e-06)
(-0.00169292 -0.105689 1.12057e-06)
(0.0016767 -0.103291 -3.25652e-06)
(0.00167647 -0.103291 3.26908e-06)
(0.003012 -0.10353 -2.69094e-06)
(0.00301169 -0.10353 2.70227e-06)
(0.000996723 -0.103935 1.16621e-05)
(0.00210967 -0.100156 7.38303e-05)
(0.00020194 -0.103787 7.95957e-06)
(0.00235252 -0.0996053 9.41631e-05)
(0.00262217 -0.102456 8.03972e-06)
(0.00432889 -0.0940642 -9.45626e-05)
(0.00327265 -0.104254 6.78963e-06)
(0.00591773 -0.0976129 -4.35464e-05)
(-0.0035794 -0.095984 -0.000165139)
(0.00474259 -0.119237 0.49653)
(-0.00176972 -0.0936958 -0.000175998)
(0.00395396 -0.121245 0.49748)
(0.000236083 -0.0744345 6.06343e-05)
(0.00165439 -0.127812 0.501017)
(0.00370879 -0.0740682 2.02151e-05)
(0.00122011 -0.130112 0.50123)
(0.00534004 -0.115703 -0.495224)
(-0.0056913 -0.0983859 0.000114542)
(0.00512741 -0.117343 -0.495783)
(-0.00485137 -0.0973487 0.000143257)
(0.00236767 -0.122518 -0.500756)
(-0.00272582 -0.0781099 -0.000158544)
(0.00206543 -0.125144 -0.500865)
(-0.00167932 -0.0758617 -0.000108122)
(0.00105602 -0.100172 -1.20212e-05)
(0.000979571 -0.103592 -1.11631e-05)
(0.00156962 -0.100236 -4.44944e-05)
(0.00111062 -0.103827 -1.3227e-05)
(0.00211361 -0.090068 0.000204803)
(0.00127793 -0.0990261 -3.27388e-06)
(0.00296824 -0.0915294 0.000150431)
(0.00190744 -0.100496 -6.91629e-06)
(0.000488694 -0.105346 -5.72212e-06)
(0.000488856 -0.105345 5.73676e-06)
(0.000296618 -0.105653 -4.14583e-06)
(0.000296871 -0.105652 4.14738e-06)
(0.000824901 -0.101753 -5.33508e-06)
(0.000825061 -0.101752 5.35303e-06)
(0.00108747 -0.102626 -4.25893e-06)
(0.00108748 -0.102625 4.27142e-06)
(0.000979816 -0.103589 1.11722e-05)
(0.0010558 -0.100169 1.20107e-05)
(0.00111096 -0.103824 1.32269e-05)
(0.00156943 -0.100232 4.44958e-05)
(0.00127819 -0.0990226 3.27796e-06)
(0.0021135 -0.0900609 -0.0002049)
(0.00190763 -0.100493 6.91998e-06)
(0.00296812 -0.0915217 -0.000150508)
(-0.00569271 -0.0983834 -0.00011455)
(0.00534117 -0.115705 0.495222)
(-0.00485289 -0.0973461 -0.000143271)
(0.00512845 -0.117345 0.495782)
(-0.00272794 -0.0781039 0.00015859)
(0.00236887 -0.122528 0.500756)
(-0.00168149 -0.0758546 0.000108151)
(0.00206657 -0.125155 0.500865)
(0.00555582 -0.113038 -0.494359)
(-0.00649493 -0.100031 4.77014e-05)
(0.0054679 -0.11428 -0.494728)
(-0.00620368 -0.0992655 8.19847e-05)
(0.00266343 -0.117674 -0.500594)
(-0.00353644 -0.0830999 -0.000258169)
(0.00254978 -0.120014 -0.500663)
(-0.00327631 -0.080622 -0.000209114)
(0.000374557 -0.100152 4.8421e-05)
(0.000592573 -0.10297 2.73237e-06)
(0.000653938 -0.100118 1.96548e-05)
(0.000769655 -0.103264 -5.52938e-06)
(0.00121527 -0.089203 0.0002988)
(0.000613153 -0.0973467 1.09168e-05)
(0.00157951 -0.089373 0.000254692)
(0.000861302 -0.0980214 2.83375e-06)
(0.000353449 -0.104653 -6.43992e-06)
(0.000353572 -0.104651 6.46008e-06)
(0.000445083 -0.104994 -6.45319e-06)
(0.000445224 -0.104993 6.47184e-06)
(0.000329343 -0.100627 -6.08461e-06)
(0.000329521 -0.100626 6.10701e-06)
(0.000530754 -0.101078 -6.01891e-06)
(0.000530959 -0.101078 6.03979e-06)
(0.000592737 -0.102967 -2.73064e-06)
(0.00037436 -0.100149 -4.84393e-05)
(0.000769851 -0.103261 5.5342e-06)
(0.000653711 -0.100114 -1.96698e-05)
(0.000613391 -0.0973429 -1.09183e-05)
(0.00121519 -0.0891969 -0.000298928)
(0.000861565 -0.0980177 -2.83196e-06)
(0.00157944 -0.0893663 -0.000254805)
(-0.00649616 -0.100029 -4.76933e-05)
(0.00555716 -0.11304 0.494357)
(-0.006205 -0.0992632 -8.19839e-05)
(0.0054691 -0.114282 0.494726)
(-0.00353853 -0.0830955 0.000258248)
(0.00266476 -0.117682 0.500594)
(-0.00327843 -0.080617 0.000209177)
(0.002551 -0.120023 0.500663)
(0.00566314 -0.110994 -0.493756)
(-0.0066823 -0.10127 -1.96695e-05)
(0.00561538 -0.111951 -0.494005)
(-0.0066355 -0.100694 1.3478e-05)
(0.00274452 -0.113562 -0.500483)
(-0.00366571 -0.0874708 -0.000347661)
(0.00271503 -0.115524 -0.50053)
(-0.00363918 -0.085404 -0.000304563)
(0.000105759 -0.100456 9.56726e-05)
(0.000392287 -0.102554 2.23334e-05)
(0.000201451 -0.100275 7.38359e-05)
(0.000468557 -0.102732 1.22595e-05)
(0.000840293 -0.0897423 0.000368641)
(0.000385877 -0.096541 3.02866e-05)
(0.000982217 -0.0893686 0.000336697)
(0.000470542 -0.0968779 2.0286e-05)
(0.000259284 -0.104085 -4.42401e-06)
(0.000259376 -0.104083 4.44371e-06)
(0.000288154 -0.104347 -5.72984e-06)
(0.000288263 -0.104346 5.75037e-06)
(0.000181043 -0.100056 -4.31912e-06)
(0.000181168 -0.100055 4.3408e-06)
(0.000223165 -0.10031 -5.49385e-06)
(0.000223313 -0.100309 5.51655e-06)
(0.000392388 -0.102551 -2.23393e-05)
(0.000105611 -0.100453 -9.56952e-05)
(0.00046869 -0.10273 -1.22612e-05)
(0.000201282 -0.100272 -7.38565e-05)
(0.000386033 -0.096537 -3.02974e-05)
(0.000840255 -0.0897372 -0.000368796)
(0.000470749 -0.096874 -2.02918e-05)
(0.000982145 -0.089363 -0.00033684)
(-0.00668348 -0.101268 1.96913e-05)
(0.00566467 -0.110995 0.493754)
(-0.0066367 -0.100692 -1.34628e-05)
(0.00561679 -0.111952 0.494003)
(-0.00366788 -0.0874674 0.000347771)
(0.00274593 -0.113569 0.500482)
(-0.00364132 -0.0854001 0.000304659)
(0.00271635 -0.115531 0.500529)
(0.00572386 -0.109383 -0.493335)
(-0.00661888 -0.102164 -8.03576e-05)
(0.00569653 -0.110145 -0.493499)
(-0.00666711 -0.10176 -5.10855e-05)
(0.00273581 -0.11016 -0.500402)
(-0.00357743 -0.0908206 -0.000422841)
(0.00274187 -0.11178 -0.500435)
(-0.00363136 -0.0892758 -0.000387091)
(5.71019e-05 -0.100879 0.000129206)
(0.000334928 -0.102325 4.21736e-05)
(6.47023e-05 -0.100665 0.000114036)
(0.000351876 -0.102423 3.24279e-05)
(0.000744963 -0.0907524 0.000416507)
(0.000295274 -0.0960942 5.03832e-05)
(0.000766871 -0.0902252 0.000395024)
(0.000332861 -0.0962894 4.04341e-05)
(0.000272416 -0.103661 -4.37345e-07)
(0.000272466 -0.10366 4.478e-07)
(0.000257858 -0.103859 -2.62791e-06)
(0.00025793 -0.103858 2.64454e-06)
(0.000178936 -0.0995898 -6.38998e-07)
(0.000179017 -0.0995883 6.4909e-07)
(0.000172625 -0.0998233 -2.6591e-06)
(0.000172729 -0.0998219 2.67738e-06)
(0.000334961 -0.102322 -4.21921e-05)
(5.6974e-05 -0.100876 -0.000129235)
(0.000351941 -0.10242 -3.2439e-05)
(6.45647e-05 -0.100662 -0.00011406)
(0.000295273 -0.0960903 -5.04109e-05)
(0.000745083 -0.0907481 -0.000416687)
(0.000332954 -0.0962854 -4.04516e-05)
(0.000766895 -0.0902205 -0.000395192)
(-0.00662011 -0.102162 8.03881e-05)
(0.00572549 -0.109384 0.493332)
(-0.00666832 -0.101758 5.1113e-05)
(0.00569806 -0.110146 0.493496)
(-0.00357974 -0.0908179 0.000422975)
(0.00273725 -0.110165 0.500402)
(-0.00363363 -0.0892727 0.000387213)
(0.00274323 -0.111786 0.500434)
(0.00574916 -0.108061 -0.493035)
(-0.00647107 -0.102726 -0.000132046)
(0.00573857 -0.108693 -0.493142)
(-0.00654852 -0.102484 -0.000107313)
(0.00268212 -0.107353 -0.500342)
(-0.00342404 -0.0931826 -0.000483641)
(0.00270653 -0.108689 -0.500365)
(-0.00349852 -0.0921157 -0.000454929)
(9.58076e-05 -0.101244 0.000151467)
(0.000334703 -0.10219 5.9962e-05)
(7.03971e-05 -0.101075 0.000141526)
(0.00033152 -0.102251 5.13509e-05)
(0.000804142 -0.0917771 0.000447245)
(0.000232658 -0.0958118 6.87769e-05)
(0.000765833 -0.091278 0.000433673)
(0.00026049 -0.0959379 5.98734e-05)
(0.000320201 -0.10331 4.51382e-06)
(0.000320211 -0.103309 -4.52175e-06)
(0.000295378 -0.10348 2.02198e-06)
(0.000295408 -0.103479 -2.02104e-06)
(0.000200229 -0.0990906 3.93398e-06)
(0.000200265 -0.0990891 -4.01973e-06)
(0.000189685 -0.0993456 1.61039e-06)
(0.000189744 -0.099344 -1.61925e-06)
(0.000334713 -0.102188 -6.00143e-05)
(9.56906e-05 -0.101241 -0.000151537)
(0.000331522 -0.102248 -5.13814e-05)
(7.02771e-05 -0.101072 -0.000141567)
(0.00023255 -0.0958085 -6.87977e-05)
(0.000804356 -0.0917732 -0.000447431)
(0.000260387 -0.095934 -5.99138e-05)
(0.000766046 -0.0912741 -0.000433869)
(-0.00647236 -0.102724 0.00013206)
(0.00575087 -0.108061 0.493032)
(-0.00654981 -0.102482 0.000107342)
(0.00574018 -0.108694 0.493139)
(-0.00342648 -0.0931803 0.0004837)
(0.00268359 -0.107358 0.500342)
(-0.00350093 -0.0921133 0.000455062)
(0.0027079 -0.108694 0.500365)
(0.00574821 -0.106932 -0.492814)
(-0.00630827 -0.103003 -0.00017484)
(0.00574922 -0.107477 -0.492887)
(-0.00638803 -0.102897 -0.000154502)
(0.00260832 -0.105033 -0.500297)
(-0.00326123 -0.0947307 -0.000531859)
(0.00264006 -0.106139 -0.500313)
(-0.00333724 -0.0940455 -0.000508649)
(0.000170479 -0.101491 0.000165428)
(0.000347682 -0.102065 7.51745e-05)
(0.000131266 -0.101384 0.000159247)
(0.00034023 -0.10213 6.78276e-05)
(0.00090237 -0.0926445 0.000466126)
(0.000192377 -0.0956066 8.48092e-05)
(0.000852794 -0.0922341 0.000457043)
(0.000210372 -0.0957037 7.63277e-05)
(0.000364696 -0.102973 9.3823e-06)
(0.000364734 -0.102973 -9.44644e-06)
(0.000343851 -0.103142 7.04832e-06)
(0.000343765 -0.103141 -6.94883e-06)
(0.000215375 -0.0985517 8.28517e-06)
(0.000215407 -0.0985502 -9.10912e-06)
(0.000208979 -0.0988245 6.90955e-06)
(0.000208916 -0.0988229 -5.80712e-06)
(0.000347911 -0.102063 -7.51156e-05)
(0.000170123 -0.101489 -0.000165356)
(0.000339873 -0.102128 -6.80192e-05)
(0.00013154 -0.101381 -0.000159481)
(0.000192474 -0.0956032 -8.39842e-05)
(0.000902328 -0.0926418 -0.000465399)
(0.00020992 -0.0957001 -7.76124e-05)
(0.000853347 -0.092231 -0.00045859)
(-0.00630974 -0.103001 0.000174856)
(0.00574989 -0.106932 0.492811)
(-0.00638923 -0.102895 0.000154568)
(0.00575095 -0.107477 0.492884)
(-0.00326383 -0.0947292 0.000531425)
(0.00260976 -0.105037 0.500296)
(-0.00333965 -0.0940438 0.000509583)
(0.0026415 -0.106143 0.500313)
(0.00573539 -0.105929 -0.492635)
(-0.00615573 -0.103038 -0.000209282)
(0.00574003 -0.106418 -0.492688)
(-0.00622891 -0.103047 -0.000193006)
(0.00253302 -0.103102 -0.500258)
(-0.00310573 -0.0956519 -0.000568845)
(0.00256267 -0.104025 -0.500271)
(-0.00317487 -0.0952589 -0.000551225)
(0.000254657 -0.101604 0.000172999)
(0.000373858 -0.101903 8.74084e-05)
(0.000212097 -0.101564 0.00016986)
(0.000359158 -0.10199 8.1567e-05)
(0.000993981 -0.0933109 0.000475691)
(0.000169215 -0.0954226 9.69882e-05)
(0.000950033 -0.0930033 0.000471291)
(0.000179247 -0.0955136 9.08424e-05)
(0.00039884 -0.102622 1.39762e-05)
(0.000398817 -0.102621 -1.38542e-05)
(0.000382893 -0.102801 1.17534e-05)
(0.000382846 -0.1028 -1.16977e-05)
(0.000223353 -0.0979939 1.30112e-05)
(0.000223286 -0.0979926 -1.31552e-05)
(0.000219936 -0.0982736 1.11267e-05)
(0.000219901 -0.0982722 -1.07727e-05)
(0.000373877 -0.101901 -8.7237e-05)
(0.000254527 -0.101602 -0.000173205)
(0.000359017 -0.101988 -8.16365e-05)
(0.000212119 -0.101562 -0.000169904)
(0.000169205 -0.0954198 -9.68365e-05)
(0.000994171 -0.0933085 -0.000475704)
(0.000179002 -0.0955108 -9.12247e-05)
(0.00095034 -0.0930005 -0.000471858)
(-0.00615716 -0.103037 0.000209299)
(0.00573712 -0.105929 0.492631)
(-0.00623029 -0.103046 0.00019309)
(0.00574171 -0.106418 0.492685)
(-0.00310829 -0.0956508 0.000568902)
(0.0025345 -0.103105 0.500257)
(-0.00317742 -0.0952575 0.000551677)
(0.00256405 -0.104029 0.500271)
(0.00572369 -0.105006 -0.492482)
(-0.00601671 -0.102879 -0.000236491)
(0.00572641 -0.10546 -0.492525)
(-0.00608357 -0.102981 -0.000223667)
(0.0024648 -0.101468 -0.500225)
(-0.00297048 -0.0961008 -0.000597762)
(0.0024897 -0.102253 -0.500236)
(-0.00302908 -0.0959269 -0.000583801)
(0.000344985 -0.101579 0.000176684)
(0.000413608 -0.101683 9.66953e-05)
(0.000299441 -0.101608 0.000175286)
(0.000392371 -0.101801 9.22561e-05)
(0.00107814 -0.0937698 0.000480217)
(0.000160774 -0.0952278 0.000107286)
(0.00103745 -0.0935657 0.000478148)
(0.000163321 -0.0953277 0.00010168)
(0.000428891 -0.102238 1.77926e-05)
(0.000429083 -0.102238 -1.78265e-05)
(0.000413885 -0.102435 1.59708e-05)
(0.00041376 -0.102434 -1.59254e-05)
(0.000227737 -0.0974275 1.65533e-05)
(0.000227922 -0.0974265 -1.72775e-05)
(0.000225884 -0.0977116 1.53129e-05)
(0.000225777 -0.0977101 -1.48463e-05)
(0.000413618 -0.101682 -9.66048e-05)
(0.000344548 -0.101577 -0.000176581)
(0.000392247 -0.101799 -9.23837e-05)
(0.000299537 -0.101606 -0.000175297)
(0.00016066 -0.0952254 -0.000105727)
(0.00107806 -0.0937677 -0.000479911)
(0.000163078 -0.0953251 -0.000102422)
(0.00103785 -0.0935639 -0.000478691)
(-0.00601829 -0.102878 0.000236528)
(0.00572536 -0.105006 0.492478)
(-0.00608498 -0.102979 0.000223788)
(0.00572811 -0.105459 0.492521)
(-0.00297314 -0.0961 0.000597149)
(0.00246621 -0.10147 0.500224)
(-0.00303165 -0.0959262 0.000584423)
(0.00249112 -0.102256 0.500236)
(0.00572421 -0.104122 -0.492336)
(-0.00589195 -0.102562 -0.000257671)
(0.0057206 -0.104562 -0.492373)
(-0.00595194 -0.102738 -0.000247665)
(0.00241255 -0.100046 -0.500195)
(-0.00285956 -0.0961985 -0.000619591)
(0.00243017 -0.100735 -0.500204)
(-0.002908 -0.0961883 -0.000608411)
(0.000439785 -0.101419 0.000177435)
(0.000464788 -0.101393 0.00010355)
(0.000391543 -0.101516 0.000177199)
(0.000437851 -0.101548 0.00010025)
(0.0011555 -0.0940248 0.000481046)
(0.000163827 -0.0949979 0.000114723)
(0.00111775 -0.093922 0.00048047)
(0.000160925 -0.0951183 0.000109228)
(0.000462702 -0.10181 2.09737e-05)
(0.000463048 -0.101809 -2.10186e-05)
(0.000445277 -0.10203 1.95262e-05)
(0.000444931 -0.10203 -1.94547e-05)
(0.000230442 -0.0968501 1.96095e-05)
(0.000230763 -0.0968491 -2.05257e-05)
(0.000229102 -0.09714 1.90425e-05)
(0.000228747 -0.0971387 -1.81093e-05)
(0.00046473 -0.101391 -0.000103407)
(0.000439208 -0.101418 -0.000177333)
(0.000437782 -0.101546 -0.000100436)
(0.000391963 -0.101514 -0.000177341)
(0.000163636 -0.0949959 -0.000112337)
(0.00115531 -0.0940234 -0.000480836)
(0.000160754 -0.0951162 -0.000111383)
(0.00111846 -0.0939206 -0.00048119)
(-0.0058936 -0.102561 0.000257677)
(0.00572586 -0.104122 0.492332)
(-0.00595326 -0.102737 0.000247836)
(0.00572234 -0.104561 0.492369)
(-0.00286225 -0.0961981 0.000618597)
(0.00241396 -0.100048 0.500193)
(-0.00291047 -0.0961878 0.000609734)
(0.0024316 -0.100737 0.500204)
(0.00574034 -0.103247 -0.492195)
(-0.00577775 -0.102109 -0.000274027)
(0.00572795 -0.103686 -0.492231)
(-0.00583306 -0.102352 -0.000266301)
(0.00237636 -0.0987654 -0.500166)
(-0.00276955 -0.0960363 -0.000635826)
(0.00238516 -0.0993922 -0.500174)
(-0.00280827 -0.096148 -0.000627234)
(0.000541035 -0.101126 0.000176464)
(0.00052871 -0.101018 0.000108261)
(0.000489933 -0.101289 0.000177014)
(0.000495206 -0.101216 0.000105979)
(0.00122805 -0.0940825 0.000479562)
(0.000178058 -0.0947087 0.000118867)
(0.00119227 -0.0940788 0.000480281)
(0.000169672 -0.0948616 0.000115079)
(0.000505777 -0.101323 2.34748e-05)
(0.000505902 -0.101323 -2.35022e-05)
(0.000483199 -0.101575 2.23345e-05)
(0.000482829 -0.101574 -2.23164e-05)
(0.000236781 -0.0962531 2.23617e-05)
(0.000236885 -0.0962518 -2.27381e-05)
(0.000233423 -0.0965542 2.17451e-05)
(0.000233041 -0.0965535 -2.10414e-05)
(0.000528683 -0.101016 -0.000108246)
(0.000540832 -0.101125 -0.000176461)
(0.000495259 -0.101215 -0.000106201)
(0.000490395 -0.101288 -0.000177144)
(0.000177896 -0.0947072 -0.000118019)
(0.0012282 -0.0940821 -0.000479682)
(0.000169596 -0.0948598 -0.000117367)
(0.00119301 -0.0940773 -0.000480758)
(-0.00577929 -0.102108 0.000274096)
(0.00574202 -0.103246 0.492191)
(-0.00583438 -0.10235 0.000266482)
(0.00572967 -0.103685 0.492227)
(-0.00277212 -0.0960364 0.000635605)
(0.00237779 -0.0987669 0.500165)
(-0.0028107 -0.0961476 0.00062857)
(0.00238656 -0.0993937 0.500174)
(0.00577457 -0.102351 -0.492053)
(-0.00566599 -0.101536 -0.000286616)
(0.00575313 -0.102803 -0.492086)
(-0.00572063 -0.101837 -0.000280708)
(0.00235536 -0.0975666 -0.500138)
(-0.00269064 -0.0956685 -0.000648036)
(0.00235685 -0.098159 -0.500146)
(-0.00272259 -0.0958754 -0.000642189)
(0.000645674 -0.100703 0.00017458)
(0.000605423 -0.100549 0.000111379)
(0.000593257 -0.100931 0.000175596)
(0.000565528 -0.100796 0.000109969)
(0.00129487 -0.0939566 0.000477206)
(0.000201764 -0.0943406 0.000121681)
(0.00126132 -0.0940439 0.000478382)
(0.00018872 -0.0945355 0.000120125)
(0.000561028 -0.100766 2.53407e-05)
(0.000561008 -0.100766 -2.53402e-05)
(0.000531817 -0.101055 2.44901e-05)
(0.000531762 -0.101054 -2.44851e-05)
(0.000248167 -0.0956198 2.44012e-05)
(0.00024813 -0.095619 -2.44138e-05)
(0.000241743 -0.0959412 2.35964e-05)
(0.000241672 -0.0959405 -2.35068e-05)
(0.000605416 -0.100548 -0.00011142)
(0.000645665 -0.100702 -0.000174599)
(0.000565512 -0.100794 -0.000110023)
(0.000593284 -0.10093 -0.000175622)
(0.00020162 -0.0943394 -0.000121703)
(0.00129522 -0.0939561 -0.000477408)
(0.00018857 -0.0945341 -0.00012037)
(0.00126169 -0.094043 -0.000478642)
(-0.00566747 -0.101535 0.000286728)
(0.00577623 -0.10235 0.492049)
(-0.00572212 -0.101836 0.000280823)
(0.00575475 -0.102802 0.492082)
(-0.00269313 -0.0956687 0.000648268)
(0.00235677 -0.0975676 0.500137)
(-0.00272513 -0.0958754 0.000642538)
(0.00235817 -0.0981602 0.500145)
(0.00582731 -0.101411 -0.491912)
(-0.00555181 -0.100845 -0.000296305)
(0.00579667 -0.101888 -0.491943)
(-0.00560811 -0.101205 -0.000291767)
(0.00234778 -0.0963998 -0.500111)
(-0.00261926 -0.0951309 -0.000657332)
(0.00234268 -0.0969817 -0.500118)
(-0.00264778 -0.0954191 -0.000653009)
(0.000753557 -0.100149 0.000172249)
(0.000694792 -0.099975 0.000113282)
(0.000699566 -0.100442 0.000173448)
(0.000648581 -0.100276 0.000112459)
(0.00135851 -0.0936539 0.000474162)
(0.000233598 -0.0938754 0.000123632)
(0.00132792 -0.0938263 0.000475727)
(0.000216791 -0.0941207 0.000122784)
(0.000629439 -0.100126 2.6644e-05)
(0.000629412 -0.100125 -2.6643e-05)
(0.000593582 -0.100457 2.60528e-05)
(0.000593557 -0.100457 -2.60514e-05)
(0.00026556 -0.0949337 2.57327e-05)
(0.000265513 -0.0949331 -2.57299e-05)
(0.000256062 -0.0952839 2.51312e-05)
(0.000256018 -0.0952832 -2.51264e-05)
(0.000694796 -0.099974 -0.000113325)
(0.000753565 -0.100148 -0.000172268)
(0.000648577 -0.100274 -0.000112502)
(0.000699565 -0.100441 -0.000173467)
(0.000233463 -0.0938745 -0.000123683)
(0.00135888 -0.0936537 -0.000474369)
(0.00021665 -0.0941196 -0.000122838)
(0.00132828 -0.0938259 -0.000475936)
(-0.00555331 -0.100844 0.000296424)
(0.00582894 -0.10141 0.491908)
(-0.00560962 -0.101204 0.000291883)
(0.00579826 -0.101887 0.491939)
(-0.00262173 -0.0951312 0.000657586)
(0.00234916 -0.0964005 0.50011)
(-0.00265029 -0.0954193 0.000653262)
(0.00234397 -0.0969826 0.500117)
(0.00589794 -0.100406 -0.491764)
(-0.00543158 -0.100037 -0.000303721)
(0.00585846 -0.100918 -0.491797)
(-0.00549131 -0.100456 -0.000300249)
(0.00235106 -0.0952258 -0.500084)
(-0.00255116 -0.0944437 -0.000664203)
(0.00234073 -0.0958156 -0.500091)
(-0.0025784 -0.0948049 -0.000661024)
(0.000866595 -0.0994636 0.000169752)
(0.000796958 -0.0992858 0.000114258)
(0.000809753 -0.0998228 0.000171009)
(0.000744517 -0.0996453 0.000113861)
(0.00141947 -0.093184 0.000470829)
(0.000272387 -0.0932982 0.00012464)
(0.00138994 -0.093439 0.000472511)
(0.000252235 -0.0936011 0.000124236)
(0.000711539 -0.0993882 2.75277e-05)
(0.00071151 -0.0993879 -2.75278e-05)
(0.000668566 -0.0997695 2.71257e-05)
(0.000668537 -0.0997691 -2.71252e-05)
(0.000289286 -0.0941779 2.66393e-05)
(0.000289234 -0.0941773 -2.66373e-05)
(0.000276537 -0.0945649 2.62298e-05)
(0.000276487 -0.0945643 -2.62272e-05)
(0.000796972 -0.0992849 -0.000114302)
(0.000866611 -0.0994626 -0.000169769)
(0.000744526 -0.0996444 -0.000113904)
(0.000809761 -0.0998218 -0.000171026)
(0.000272264 -0.0932976 -0.000124693)
(0.00141986 -0.093184 -0.000471035)
(0.000252106 -0.0936004 -0.000124288)
(0.00139031 -0.0934389 -0.000472717)
(-0.00543309 -0.100036 0.000303845)
(0.00589954 -0.100405 0.49176)
(-0.00549283 -0.100455 0.000300371)
(0.00586001 -0.100917 0.491793)
(-0.0025536 -0.0944442 0.000664462)
(0.00235242 -0.0952264 0.500084)
(-0.00258089 -0.0948053 0.00066128)
(0.002342 -0.0958162 0.50009)
(0.00598632 -0.0993157 -0.491616)
(-0.00530259 -0.0991074 -0.000309361)
(0.00593801 -0.0998721 -0.491648)
(-0.00536708 -0.0995875 -0.000306722)
(0.00236438 -0.094013 -0.500058)
(-0.00248416 -0.0936171 -0.000669164)
(0.00234917 -0.0946259 -0.500065)
(-0.00251113 -0.0940473 -0.000666883)
(0.000986764 -0.0986427 0.000167258)
(0.00091036 -0.098472 0.000114555)
(0.000926108 -0.0990702 0.000168495)
(0.000852299 -0.0988949 0.000114473)
(0.00147938 -0.0925525 0.000467398)
(0.000316737 -0.0925973 0.000124943)
(0.0014502 -0.0928879 0.00046911)
(0.000293946 -0.0929634 0.000124865)
(0.000809689 -0.0985411 2.81037e-05)
(0.00080966 -0.0985408 -2.8105e-05)
(0.000758578 -0.0989792 2.78492e-05)
(0.000758549 -0.0989788 -2.78498e-05)
(0.000320142 -0.093335 2.72289e-05)
(0.000320089 -0.0933346 -2.7228e-05)
(0.000303752 -0.0937678 2.69691e-05)
(0.000303699 -0.0937674 -2.69676e-05)
(0.000910382 -0.0984712 -0.0001146)
(0.000986786 -0.0986419 -0.000167274)
(0.000852316 -0.0988941 -0.000114518)
(0.000926123 -0.0990694 -0.000168511)
(0.000316626 -0.092597 -0.000124997)
(0.00147978 -0.0925528 -0.000467602)
(0.000293829 -0.0929629 -0.000124919)
(0.00145059 -0.0928881 -0.000469315)
(-0.00530411 -0.0991066 0.000309488)
(0.00598789 -0.099315 0.491612)
(-0.00536861 -0.0995867 0.000306847)
(0.00593954 -0.0998714 0.491644)
(-0.00248659 -0.0936176 0.000669427)
(0.00236572 -0.0940134 0.500057)
(-0.0025136 -0.0940477 0.000667144)
(0.00235041 -0.0946263 0.500064)
(0.00609212 -0.0981244 -0.491465)
(-0.00516183 -0.0980501 -0.000313604)
(0.00603517 -0.0987336 -0.491498)
(-0.00523253 -0.0985951 -0.000311621)
(0.00238644 -0.0927343 -0.500032)
(-0.00241587 -0.0926537 -0.000672604)
(0.00236693 -0.0933831 -0.500038)
(-0.00244364 -0.0931523 -0.000671042)
(0.00111568 -0.0976809 0.000164873)
(0.00103567 -0.0975244 0.000114354)
(0.00105047 -0.0981796 0.000166046)
(0.00097154 -0.0980154 0.000114502)
(0.00153934 -0.0917616 0.00046398)
(0.000366024 -0.0917629 0.000124725)
(0.00151003 -0.0921766 0.000465675)
(0.000340782 -0.0921969 0.000124888)
(0.000923924 -0.0975703 2.84272e-05)
(0.000923897 -0.09757 -2.84299e-05)
(0.000864791 -0.0980718 2.82917e-05)
(0.000864764 -0.0980715 -2.82937e-05)
(0.00035823 -0.0923876 2.75651e-05)
(0.000358178 -0.0923873 -2.75652e-05)
(0.000338234 -0.0928748 2.74247e-05)
(0.000338181 -0.0928744 -2.74243e-05)
(0.0010357 -0.0975238 -0.000114399)
(0.00111571 -0.0976802 -0.000164888)
(0.000971565 -0.0980147 -0.000114546)
(0.00105049 -0.0981789 -0.000166061)
(0.000365924 -0.0917629 -0.000124778)
(0.00153976 -0.0917621 -0.000464182)
(0.000340677 -0.0921967 -0.000124941)
(0.00151044 -0.0921771 -0.000465878)
(-0.00516337 -0.0980494 0.000313733)
(0.00609367 -0.0981237 0.491461)
(-0.00523407 -0.0985944 0.00031175)
(0.00603668 -0.0987329 0.491494)
(-0.00241827 -0.0926544 0.000672869)
(0.00238776 -0.0927345 0.500032)
(-0.00244609 -0.0931529 0.000671306)
(0.00236816 -0.0933835 0.500038)
(0.00621482 -0.0968159 -0.491312)
(-0.00500842 -0.0968561 -0.000316731)
(0.00614955 -0.0974856 -0.491344)
(-0.00508536 -0.0974706 -0.000315274)
(0.0024164 -0.0913669 -0.500007)
(-0.00234581 -0.0915522 -0.000674811)
(0.00239301 -0.0920627 -0.500012)
(-0.00237435 -0.09212 -0.000673834)
(0.00125459 -0.0965716 0.000162652)
(0.00117363 -0.0964335 0.000113789)
(0.00118425 -0.097145 0.000163737)
(0.00110309 -0.0969973 0.000114104)
(0.00160011 -0.0908109 0.000460634)
(0.0004202 -0.090786 0.000124122)
(0.0015703 -0.0913059 0.000462288)
(0.000392501 -0.0912924 0.000124463)
(0.00105417 -0.0964633 2.85511e-05)
(0.00105414 -0.0964631 -2.8555e-05)
(0.000987019 -0.0970344 2.85095e-05)
(0.000986994 -0.0970342 -2.85128e-05)
(0.000403388 -0.0913196 2.77006e-05)
(0.000403338 -0.0913194 -2.77017e-05)
(0.000379866 -0.091869 2.76547e-05)
(0.000379815 -0.0918688 -2.76553e-05)
(0.00117366 -0.096433 -0.000113834)
(0.00125462 -0.0965711 -0.000162665)
(0.00110312 -0.0969968 -0.000114149)
(0.00118427 -0.0971444 -0.000163751)
(0.000420109 -0.0907861 -0.000124176)
(0.00160054 -0.0908117 -0.000460835)
(0.000392405 -0.0912924 -0.000124516)
(0.00157072 -0.0913066 -0.00046249)
(-0.00500997 -0.0968556 0.000316862)
(0.00621636 -0.0968153 0.491308)
(-0.00508692 -0.09747 0.000315405)
(0.00615104 -0.097485 0.49134)
(-0.00234818 -0.091553 0.000675078)
(0.00241772 -0.0913671 0.500006)
(-0.00237677 -0.0921208 0.0006741)
(0.00239423 -0.0920629 0.500012)
(0.00635441 -0.0953761 -0.491154)
(-0.00484112 -0.0955181 -0.000318951)
(0.00628059 -0.0961132 -0.491186)
(-0.00492552 -0.0962055 -0.000317924)
(0.00245347 -0.0898921 -0.499981)
(-0.00227319 -0.0903103 -0.000675997)
(0.00242642 -0.0906439 -0.499986)
(-0.00230309 -0.0909488 -0.000675508)
(0.00140484 -0.0953081 0.000160627)
(0.0013249 -0.0951899 0.000112959)
(0.0013286 -0.0959595 0.000161611)
(0.00124761 -0.0958312 0.000113395)
(0.00166237 -0.089699 0.000457387)
(0.000479258 -0.0896576 0.000123236)
(0.00163178 -0.090275 0.00045899)
(0.00044912 -0.0902408 0.000123707)
(0.00120044 -0.0952084 2.85172e-05)
(0.00120041 -0.0952083 -2.85219e-05)
(0.00112527 -0.0958549 2.85497e-05)
(0.00112525 -0.0958547 -2.85541e-05)
(0.000455427 -0.0901165 2.7677e-05)
(0.00045538 -0.0901164 -2.76786e-05)
(0.000428479 -0.0907352 2.77061e-05)
(0.00042843 -0.0907351 -2.77075e-05)
(0.00132493 -0.0951895 -0.000113004)
(0.00140487 -0.0953077 -0.00016064)
(0.00124764 -0.0958308 -0.00011344)
(0.00132863 -0.095959 -0.000161624)
(0.000479176 -0.089658 -0.000123289)
(0.00166282 -0.0897 -0.000457585)
(0.000449034 -0.0902411 -0.000123761)
(0.00163221 -0.0902759 -0.000459189)
(-0.00484269 -0.0955176 0.000319084)
(0.00635593 -0.0953756 0.49115)
(-0.0049271 -0.096205 0.000318056)
(0.00628206 -0.0961126 0.491181)
(-0.00227553 -0.0903112 0.000676265)
(0.00245478 -0.0898923 0.49998)
(-0.00230548 -0.0909497 0.000675775)
(0.00242764 -0.090644 0.499985)
(0.00651147 -0.0937913 -0.490995)
(-0.00465623 -0.0940264 -0.000320418)
(0.00642897 -0.0946025 -0.491027)
(-0.00474979 -0.0947919 -0.000319751)
(0.00249719 -0.0882921 -0.499955)
(-0.00219722 -0.0889223 -0.00067632)
(0.002467 -0.0891085 -0.49996)
(-0.00222889 -0.0896348 -0.000676246)
(0.00156784 -0.0938823 0.000158805)
(0.00149003 -0.0937837 0.000111935)
(0.00148508 -0.0946158 0.000159688)
(0.00140576 -0.0945075 0.000112461)
(0.00172625 -0.0884221 0.000454238)
(0.000543114 -0.0883689 0.000122136)
(0.00169481 -0.0890811 0.000455793)
(0.00051057 -0.0890333 0.000122708)
(0.00136269 -0.0937941 2.83579e-05)
(0.00136267 -0.093794 -2.83634e-05)
(0.00127954 -0.0945217 2.84496e-05)
(0.00127952 -0.0945216 -2.84547e-05)
(0.000514139 -0.0887647 2.75262e-05)
(0.000514095 -0.0887648 -2.75283e-05)
(0.000483866 -0.0894594 2.76155e-05)
(0.000483821 -0.0894594 -2.76174e-05)
(0.00149007 -0.0937834 -0.00011198)
(0.00156786 -0.093882 -0.000158817)
(0.00140579 -0.0945072 -0.000112506)
(0.0014851 -0.0946155 -0.0001597)
(0.000543042 -0.0883695 -0.000122189)
(0.00172671 -0.0884233 -0.000454435)
(0.000510493 -0.0890338 -0.000122761)
(0.00169525 -0.0890821 -0.000455991)
(-0.00465783 -0.094026 0.000320553)
(0.00651296 -0.0937908 0.490991)
(-0.00475139 -0.0947915 0.000319885)
(0.00643042 -0.094602 0.491022)
(-0.00219951 -0.0889233 0.000676588)
(0.00249851 -0.0882922 0.499955)
(-0.00223124 -0.0896357 0.000676514)
(0.00246822 -0.0891086 0.49996)
(0.00668576 -0.0920491 -0.490832)
(-0.00445159 -0.0923718 -0.000321242)
(0.00659469 -0.0929405 -0.490863)
(-0.00455531 -0.0932199 -0.000320883)
(0.00254685 -0.0865513 -0.49993)
(-0.0021169 -0.0873802 -0.000675889)
(0.00251366 -0.0874399 -0.499935)
(-0.00215087 -0.0881708 -0.00067618)
(0.00174429 -0.0922865 0.000157181)
(0.0016692 -0.092206 0.000110766)
(0.00165473 -0.093106 0.000157965)
(0.0015779 -0.0930167 0.00011136)
(0.00179206 -0.0869762 0.000451173)
(0.000611727 -0.0869116 0.00012087)
(0.00175961 -0.0877202 0.000452689)
(0.000576801 -0.0876614 0.00012152)
(0.00154067 -0.0922099 2.80978e-05)
(0.00154066 -0.0922098 -2.8104e-05)
(0.00144969 -0.0930237 2.82372e-05)
(0.00144968 -0.0930236 -2.82431e-05)