/*--------------------------------*- C++ -*----------------------------------*\
  =========                 |
  \\      /  F ield         | OpenFOAM: The Open Source CFD Toolbox
   \\    /   O peration     | Website:  https://openfoam.org
    \\  /    A nd           | Version:  9
     \\/     M anipulation  |
\*---------------------------------------------------------------------------*/
FoamFile
{
    format      ascii;
    class       surfaceScalarField;
    location    "1.55";
    object      phi;
}
// * * * * * * * * * * * * * * * * * * * * * * * * * * * * * * * * * * * * * //

dimensions      [0 3 -1 0 0 0 0];

internalField   nonuniform List<scalar> 
104044
(
3.1604e-07
-6.5011e-05
1.52374e-07
6.40583e-05
4.84304e-07
-4.6669e-05
-3.32725e-06
-1.11506e-07
4.92856e-05
1.13819e-06
1.45441e-07
1.83271e-07
1.43368e-07
-3.0196e-06
-5.72304e-08
1.0035e-06
2.76848e-08
-6.41522e-05
6.42769e-05
-4.88869e-05
-2.02291e-09
4.55894e-05
5.96782e-08
-3.05867e-08
-7.26992e-09
-5.37364e-05
-1.45842e-06
5.41896e-05
9.01018e-07
-5.59973e-05
-5.90372e-07
-1.01063e-10
5.64492e-05
1.31241e-07
-2.32933e-09
-1.30546e-06
4.56946e-07
-1.03846e-06
-1.62084e-10
1.79745e-07
-9.63629e-09
-5.72543e-05
5.58035e-05
-5.6678e-05
-1.88474e-09
5.60799e-05
-4.43328e-09
-3.77944e-10
-4.17205e-12
-5.66024e-05
-6.84181e-07
5.71098e-05
1.76705e-07
-5.66023e-05
-6.84218e-07
9.36506e-11
5.71097e-05
1.76731e-07
-1.5222e-12
-1.08457e-06
2.15783e-07
-1.08458e-06
1.59791e-10
2.15793e-07
-4.67495e-12
-5.63094e-05
5.56234e-05
-5.63092e-05
1.8775e-09
5.56231e-05
-1.17545e-12
3.75894e-10
7.26001e-09
-5.59966e-05
-5.9039e-07
5.64486e-05
1.31278e-07
-5.37349e-05
-1.4584e-06
1.11481e-07
5.4188e-05
9.01066e-07
2.32651e-09
-1.03848e-06
1.79772e-07
-1.30543e-06
5.72186e-08
4.5699e-07
9.62637e-09
-5.66771e-05
5.60789e-05
-5.72525e-05
2.00403e-09
5.58017e-05
4.43019e-09
3.05879e-08
-3.16062e-07
-4.66671e-05
-3.3275e-06
4.92841e-05
1.13799e-06
-6.50139e-05
1.52622e-07
6.40611e-05
4.84108e-07
-1.45452e-07
-3.02004e-06
1.00382e-06
1.83267e-07
1.43399e-07
-2.76425e-08
-4.88844e-05
4.55866e-05
-6.41576e-05
6.42826e-05
-5.96688e-08
3.49537e-07
-6.30666e-05
-7.34928e-07
6.21127e-05
1.33928e-06
-5.13206e-05
-8.1209e-08
-9.73947e-08
5.24063e-05
-5.57464e-07
3.54655e-07
-3.60595e-07
9.9767e-07
-1.96638e-06
-1.10534e-07
3.96489e-07
-1.29238e-07
-6.39572e-05
6.33515e-05
-4.35352e-05
1.05136e-07
4.32196e-05
-4.08632e-08
4.69415e-08
-1.55174e-08
-5.46457e-05
-1.70212e-06
5.49007e-05
1.3652e-06
-5.67837e-05
-5.89171e-07
-3.28252e-09
5.68957e-05
4.64929e-07
-1.15307e-08
-1.95232e-06
1.39722e-06
-6.58472e-07
-1.48384e-09
3.13954e-07
-1.23463e-08
-5.39081e-05
5.23235e-05
-5.54158e-05
-8.3762e-09
5.48227e-05
-9.94469e-09
-4.28643e-09
-9.21227e-12
-5.7605e-05
-3.52117e-07
5.78898e-05
6.4053e-08
-5.7605e-05
-3.52125e-07
3.24704e-09
5.78898e-05
6.40188e-08
-6.37456e-12
-6.21622e-07
1.24907e-07
-6.217e-07
1.47053e-09
1.24923e-07
-8.49515e-12
-5.49975e-05
5.4637e-05
-5.49971e-05
8.3719e-09
5.46366e-05
-6.90264e-12
4.2803e-09
1.54681e-08
-5.67831e-05
-5.89053e-07
5.6895e-05
4.64862e-07
-5.46442e-05
-1.70221e-06
9.73437e-08
5.48993e-05
1.36521e-06
1.15087e-08
-6.58429e-07
3.13898e-07
-1.95238e-06
1.105e-07
1.39728e-06
1.23261e-08
-5.54149e-05
5.48219e-05
-5.39063e-05
-1.0519e-07
5.23216e-05
9.93032e-09
-4.69749e-08
-3.4955e-07
-5.13196e-05
-8.06942e-08
5.24054e-05
-5.58151e-07
-6.30693e-05
-7.35157e-07
6.21153e-05
1.33962e-06
-3.54678e-07
-1.96629e-06
3.95951e-07
-3.60621e-07
9.97749e-07
1.29381e-07
-4.35324e-05
4.32171e-05
-6.39629e-05
6.33571e-05
4.09494e-08
2.42436e-07
-6.13247e-05
-1.19887e-06
6.06499e-05
1.63122e-06
-5.31119e-05
1.53804e-06
-3.28435e-08
5.36501e-05
-1.80104e-06
3.02408e-07
-1.03457e-06
1.52009e-06
9.44322e-07
-6.73216e-08
-1.2802e-06
-3.38776e-07
-6.25474e-05
6.16873e-05
-4.37677e-05
2.25823e-07
4.47411e-05
-2.30497e-07
1.65741e-07
-1.32163e-08
-5.49526e-05
-7.96747e-07
5.49345e-05
7.95165e-07
-5.68609e-05
-2.54495e-07
-9.49973e-09
5.67669e-05
3.44811e-07
-1.51576e-08
-1.17868e-06
1.07467e-06
-4.06695e-07
-5.05551e-09
4.31357e-07
-1.03696e-08
-5.13229e-05
5.07624e-05
-5.44143e-05
-1.28498e-08
5.41622e-05
-1.24128e-08
-1.072e-08
-4.58487e-11
-5.79618e-05
3.83825e-08
5.7919e-05
-5.02411e-09
-5.79618e-05
3.84511e-08
9.58091e-09
5.7919e-05
-5.27178e-09
-5.45089e-12
-9.83259e-08
2.13304e-08
-9.82777e-08
4.96053e-09
2.13145e-08
-3.73791e-13
-5.45279e-05
5.45535e-05
-5.45276e-05
1.28637e-08
5.45532e-05
-7.63879e-12
1.07157e-08
1.33035e-08
-5.68602e-05
-2.54431e-07
5.67661e-05
3.44811e-07
-5.49512e-05
-7.96871e-07
3.27739e-08
5.49332e-05
7.95405e-07
1.47495e-08
-4.06526e-07
4.31553e-07
-1.17878e-06
6.72043e-08
1.0744e-06
1.03637e-08
-5.44136e-05
5.41617e-05
-5.1321e-05
-2.25911e-07
5.07604e-05
1.24067e-08
-1.65816e-07
-2.42427e-07
-5.31112e-05
1.53868e-06
5.36496e-05
-1.80187e-06
-6.13272e-05
-1.19954e-06
6.06522e-05
1.63211e-06
-3.02405e-07
9.44864e-07
-1.28109e-06
-1.03504e-06
1.52068e-06
3.39053e-07
-4.37655e-05
4.47392e-05
-6.25528e-05
6.16923e-05
2.30703e-07
1.03151e-07
-6.00798e-05
-1.36054e-06
5.9582e-05
1.7552e-06
-5.40904e-05
1.92555e-06
2.60738e-08
5.44765e-05
-2.23456e-06
1.70788e-07
-1.28362e-06
1.68297e-06
1.80572e-06
1.62603e-09
-2.07679e-06
-5.24342e-07
-6.08365e-05
6.00003e-05
-4.58411e-05
3.15721e-07
4.69266e-05
-4.32809e-07
2.72925e-07
-6.48861e-09
-5.49253e-05
-4.24646e-07
5.4931e-05
4.51508e-07
-5.66585e-05
-1.37784e-07
-1.46085e-08
5.65627e-05
2.41741e-07
-1.64039e-08
-5.49667e-07
5.76951e-07
-1.66071e-07
-1.3057e-08
2.71129e-07
5.66004e-11
-5.04916e-05
5.03826e-05
-5.40044e-05
-1.48321e-08
5.38815e-05
-5.92321e-09
-1.41353e-08
5.20778e-13
-5.78392e-05
6.56434e-08
5.7757e-05
1.99233e-09
-5.78392e-05
6.56552e-08
1.46067e-08
5.7757e-05
1.98586e-09
4.02656e-12
7.77236e-08
-1.10138e-08
7.7769e-08
1.3069e-08
-1.10396e-08
-1.34872e-12
-5.46171e-05
5.46679e-05
-5.46168e-05
1.48264e-08
5.46676e-05
7.92089e-13
1.41391e-08
6.46032e-09
-5.66577e-05
-1.3783e-07
5.65619e-05
2.41809e-07
-5.4924e-05
-4.24711e-07
-2.61086e-08
5.49298e-05
4.51503e-07
1.63791e-08
-1.66078e-07
2.71182e-07
-5.49759e-07
-1.66636e-09
5.76966e-07
-8.82134e-11
-5.40039e-05
5.3881e-05
-5.04896e-05
-3.15841e-07
5.03806e-05
5.90226e-09
-2.73027e-07
-1.03067e-07
-5.409e-05
1.92637e-06
5.44762e-05
-2.23563e-06
-6.00819e-05
-1.36138e-06
5.95839e-05
1.75632e-06
-1.7073e-07
1.80645e-06
-2.07776e-06
-1.2844e-06
1.68399e-06
5.24745e-07
-4.58394e-05
4.69252e-05
-6.08411e-05
6.00044e-05
4.33149e-07
-1.932e-08
-5.91507e-05
-1.41826e-06
5.87622e-05
1.82613e-06
-5.47846e-05
1.86631e-06
1.01382e-07
5.50404e-05
-2.2428e-06
3.83144e-08
-1.38893e-06
1.7819e-06
1.9022e-06
7.58783e-08
-2.24791e-06
-6.60945e-07
-5.92042e-05
5.84469e-05
-4.78935e-05
3.67449e-07
4.87314e-05
-5.92845e-07
3.42451e-07
8.66102e-09
-5.49733e-05
-3.05791e-07
5.50265e-05
3.45228e-07
-5.64804e-05
-1.49836e-07
-1.34904e-08
5.64084e-05
2.4392e-07
9.39743e-10
-3.43708e-07
3.76347e-07
-1.36765e-07
-1.45017e-08
2.34509e-07
1.45532e-08
-5.03743e-05
5.04214e-05
-5.3766e-05
-1.28474e-08
5.36436e-05
7.04695e-09
-1.42193e-08
-2.81848e-12
-5.76784e-05
-3.60444e-09
5.76007e-05
6.7828e-08
-5.76784e-05
-3.61438e-09
1.34714e-08
5.76007e-05
6.78473e-08
-1.86045e-12
3.2241e-08
3.18392e-08
3.22358e-08
1.44908e-08
3.18502e-08
-3.43993e-12
-5.46859e-05
5.46694e-05
-5.46857e-05
1.2824e-08
5.46692e-05
-3.45375e-12
1.42052e-08
-8.70725e-09
-5.64796e-05
-1.49898e-07
5.64077e-05
2.43984e-07
-5.49722e-05
-3.05779e-07
-1.01456e-07
5.50256e-05
3.45164e-07
-9.76991e-10
-1.36823e-07
2.34579e-07
-3.43728e-07
-7.59534e-08
3.76312e-07
-1.46005e-08
-5.37654e-05
5.36429e-05
-5.03724e-05
-3.6759e-07
5.04196e-05
-7.08651e-09
-3.42582e-07
1.94534e-08
-5.47844e-05
1.86723e-06
5.50403e-05
-2.24401e-06
-5.91524e-05
-1.41915e-06
5.87636e-05
1.82735e-06
-3.82075e-08
1.90307e-06
-2.24905e-06
-1.3898e-06
1.78308e-06
6.61446e-07
-4.78924e-05
4.87306e-05
-5.92079e-05
5.84502e-05
5.93295e-07
-1.13274e-07
-5.84154e-05
-1.40076e-06
5.80951e-05
1.83436e-06
-5.52391e-05
1.71882e-06
1.29353e-07
5.53905e-05
-2.11287e-06
-6.92233e-08
-1.40404e-06
1.82e-06
1.77874e-06
1.17008e-07
-2.16363e-06
-7.53156e-07
-5.77477e-05
5.71001e-05
-4.94273e-05
3.90697e-07
5.00023e-05
-7.04768e-07
3.7807e-07
2.01077e-08
-5.50815e-05
-2.68703e-07
5.51337e-05
3.25759e-07
-5.63436e-05
-1.68872e-07
-9.27617e-09
5.62805e-05
2.61438e-07
1.53524e-08
-2.79229e-07
3.25927e-07
-1.59622e-07
-1.10472e-08
2.50804e-07
2.89009e-08
-5.04986e-05
5.05916e-05
-5.3516e-05
-9.49363e-09
5.33855e-05
2.16659e-08
-1.0401e-08
-4.65827e-12
-5.75225e-05
-6.31741e-08
5.74413e-05
1.35045e-07
-5.75225e-05
-6.31851e-08
9.26081e-09
5.74413e-05
1.3506e-07
-5.25293e-13
-3.51313e-08
1.02299e-07
-3.51424e-08
1.10285e-08
1.02317e-07
-4.68048e-12
-5.46239e-05
5.45513e-05
-5.46237e-05
9.47855e-09
5.4551e-05
-3.56656e-12
1.03893e-08
-2.01502e-08
-5.63429e-05
-1.68929e-07
5.62797e-05
2.61488e-07
-5.50806e-05
-2.68651e-07
-1.29427e-07
5.51329e-05
3.25662e-07
-1.53582e-08
-1.59692e-07
2.50855e-07
-2.79188e-07
-1.17073e-07
3.25848e-07
-2.89586e-08
-5.35154e-05
5.33849e-05
-5.04969e-05
-3.90843e-07
5.05901e-05
-2.17207e-08
-3.78213e-07
1.13458e-07
-5.5239e-05
1.71977e-06
5.53905e-05
-2.11414e-06
-5.84167e-05
-1.40165e-06
5.80962e-05
1.83561e-06
6.93835e-08
1.77968e-06
-2.16487e-06
-1.40493e-06
1.82123e-06
7.53728e-07
-4.94268e-05
5.0002e-05
-5.77506e-05
5.71027e-05
7.05303e-07
-1.7974e-07
-5.78038e-05
-1.34687e-06
5.75293e-05
1.80116e-06
-5.54953e-05
1.57409e-06
1.40117e-07
5.55631e-05
-1.96173e-06
-1.48035e-07
-1.36397e-06
1.8033e-06
1.6291e-06
1.34932e-07
-2.01686e-06
-8.11139e-07
-5.65137e-05
5.5978e-05
-5.04629e-05
3.95688e-07
5.08302e-05
-7.77622e-07
3.90836e-07
2.90149e-08
-5.51769e-05
-2.57076e-07
5.52092e-05
3.35847e-07
-5.62184e-05
-1.72152e-07
-6.51113e-09
5.61539e-05
2.72217e-07
2.45096e-08
-2.57486e-07
3.24723e-07
-1.69912e-07
-7.89098e-09
2.64381e-07
4.10772e-08
-5.069e-05
5.07876e-05
-5.32587e-05
-6.81314e-09
5.31345e-05
3.49544e-08
-8.14788e-09
-5.79181e-12
-5.73552e-05
-9.65494e-08
5.72617e-05
1.83554e-07
-5.73552e-05
-9.65533e-08
6.49162e-09
5.72617e-05
1.83559e-07
-5.13851e-12
-8.14327e-08
1.59678e-07
-8.14405e-08
7.87406e-09
1.59687e-07
-5.90702e-12
-5.44617e-05
5.43583e-05
-5.44614e-05
6.79329e-09
5.43581e-05
-5.25937e-12
8.13057e-09
-2.90618e-08
-5.62177e-05
-1.72192e-07
5.61532e-05
2.72255e-07
-5.51762e-05
-2.57015e-07
-1.40186e-07
5.52086e-05
3.35741e-07
-2.45514e-08
-1.69959e-07
2.64424e-07
-2.57427e-07
-1.35003e-07
3.24621e-07
-4.11426e-08
-5.32581e-05
5.31338e-05
-5.06887e-05
-3.95829e-07
5.07864e-05
-3.50155e-08
-3.90979e-07
1.79966e-07
-5.54953e-05
1.57503e-06
5.55632e-05
-1.963e-06
-5.78048e-05
-1.34776e-06
5.75301e-05
1.8024e-06
1.48239e-07
1.63004e-06
-2.01812e-06
-1.36485e-06
1.80454e-06
8.11758e-07
-5.04628e-05
5.08303e-05
-5.6516e-05
5.598e-05
7.78214e-07
-2.24558e-07
-5.72746e-05
-1.28799e-06
5.70303e-05
1.75684e-06
-5.5596e-05
1.45195e-06
1.40905e-07
5.56002e-05
-1.82157e-06
-2.02456e-07
-1.30537e-06
1.76247e-06
1.49651e-06
1.40038e-07
-1.87196e-06
-8.45312e-07
-5.54952e-05
5.50525e-05
-5.11141e-05
3.92648e-07
5.13281e-05
-8.22551e-07
3.90085e-07
3.64606e-08
-5.52281e-05
-2.61501e-07
5.52331e-05
3.60963e-07
-5.60864e-05
-1.70757e-07
-3.33672e-09
5.60137e-05
2.833e-07
3.25841e-08
-2.54468e-07
3.43041e-07
-1.69744e-07
-4.89982e-09
2.74671e-07
5.05495e-08
-5.08775e-05
5.09581e-05
-5.30157e-05
-3.73322e-09
5.28992e-05
4.57e-08
-5.24429e-09
-6.97971e-12
-5.71626e-05
-1.17882e-07
5.70561e-05
2.21104e-07
-5.71627e-05
-1.17885e-07
3.31248e-09
5.70561e-05
2.2111e-07
-6.34254e-12
-1.06897e-07
2.01036e-07
-1.069e-07
4.87809e-09
2.01042e-07
-7.08522e-12
-5.42462e-05
5.41246e-05
-5.42459e-05
3.70883e-09
5.41243e-05
-6.45159e-12
5.22232e-09
-3.6516e-08
-5.60858e-05
-1.70782e-07
5.60131e-05
2.83323e-07
-5.52275e-05
-2.6146e-07
-1.40967e-07
5.52325e-05
3.60868e-07
-3.26348e-08
-1.69777e-07
2.74701e-07
-2.54412e-07
-1.40104e-07
3.42939e-07
-5.06203e-08
-5.3015e-05
5.28986e-05
-5.08764e-05
-3.92831e-07
5.09571e-05
-4.57677e-08
-3.90221e-07
2.24816e-07
-5.55961e-05
1.45286e-06
5.56003e-05
-1.82282e-06
-5.72753e-05
-1.28885e-06
5.70309e-05
1.75805e-06
2.02697e-07
1.49743e-06
-1.87321e-06
-1.30622e-06
1.76368e-06
8.45958e-07
-5.11143e-05
5.13284e-05
-5.5497e-05
5.50541e-05
8.23179e-07
-2.53701e-07
-5.6799e-05
-1.23643e-06
5.65721e-05
1.71704e-06
-5.5578e-05
1.35081e-06
1.3626e-07
5.55332e-05
-1.69598e-06
-2.38286e-07
-1.24987e-06
1.71949e-06
1.38666e-06
1.3762e-07
-1.74037e-06
-8.62745e-07
-5.46497e-05
5.42761e-05
-5.14811e-05
3.87224e-07
5.15819e-05
-8.47134e-07
3.86538e-07
4.26379e-08
-5.52232e-05
-2.77928e-07
5.5198e-05
3.96775e-07
-5.59361e-05
-1.7087e-07
-1.33514e-10
5.58511e-05
2.98634e-07
3.92892e-08
-2.65429e-07
3.73627e-07
-1.68465e-07
-1.70168e-09
2.86994e-07
5.73562e-08
-5.10255e-05
5.10774e-05
-5.27866e-05
-6.26215e-10
5.26737e-05
5.37214e-08
-2.14299e-09
-7.93597e-12
-5.6944e-05
-1.35618e-07
5.68238e-05
2.55686e-07
-5.6944e-05
-1.3562e-07
1.0529e-10
5.68239e-05
2.55692e-07
-7.44595e-12
-1.25649e-07
2.36065e-07
-1.25652e-07
1.67557e-09
2.36071e-07
-7.99952e-12
-5.39968e-05
5.38606e-05
-5.39966e-05
5.98002e-10
5.38603e-05
-7.54223e-12
2.11682e-09
-4.27012e-08
-5.59356e-05
-1.70881e-07
5.58506e-05
2.98644e-07
-5.52227e-05
-2.77913e-07
-1.36311e-07
5.51976e-05
3.96697e-07
-3.9348e-08
-1.68481e-07
2.87008e-07
-2.65403e-07
-1.37677e-07
3.73545e-07
-5.74297e-08
-5.2786e-05
5.26731e-05
-5.10247e-05
-3.87401e-07
5.10767e-05
-5.37931e-08
-3.86716e-07
2.53978e-07
-5.55781e-05
1.35169e-06
5.55333e-05
-1.69719e-06
-5.67995e-05
-1.23725e-06
5.65725e-05
1.71821e-06
2.38552e-07
1.38755e-06
-1.74158e-06
-1.2507e-06
1.72067e-06
8.63403e-07
-5.14814e-05
5.15823e-05
-5.46512e-05
5.42773e-05
8.47781e-07
-2.72325e-07
-5.63527e-05
-1.19743e-06
5.61333e-05
1.68922e-06
-5.54675e-05
1.26604e-06
1.29268e-07
5.5383e-05
-1.58311e-06
-2.61575e-07
-1.20571e-06
1.68666e-06
1.29608e-06
1.31678e-07
-1.62364e-06
-8.69447e-07
-5.39293e-05
5.36014e-05
-5.16393e-05
3.78999e-07
5.16568e-05
-8.59e-07
3.79725e-07
4.78522e-08
-5.51574e-05
-3.01605e-07
5.51007e-05
4.39725e-07
-5.57592e-05
-1.75812e-07
2.84822e-09
5.56577e-05
3.22363e-07
4.49208e-08
-2.85964e-07
4.13306e-07
-1.71005e-07
1.38129e-09
3.0647e-07
6.19068e-08
-5.11119e-05
5.11273e-05
-5.25612e-05
2.27262e-09
5.2445e-05
5.93212e-08
8.49909e-10
-7.48564e-12
-5.66974e-05
-1.52785e-07
5.6562e-05
2.91099e-07
-5.66975e-05
-1.52788e-07
-2.87811e-09
5.65621e-05
2.91106e-07
-8.03143e-12
-1.42792e-07
2.70548e-07
-1.42795e-07
-1.41072e-09
2.70554e-07
-5.21888e-12
-5.37186e-05
5.35681e-05
-5.37184e-05
-2.29734e-09
5.35679e-05
-7.80344e-12
-8.78945e-10
-4.79251e-08
-5.57587e-05
-1.7581e-07
5.56572e-05
3.22369e-07
-5.5157e-05
-3.01613e-07
-1.29308e-07
5.51003e-05
4.39662e-07
-4.49876e-08
-1.71011e-07
3.06479e-07
-2.85958e-07
-1.31724e-07
4.13235e-07
-6.19975e-08
-5.25606e-05
5.24445e-05
-5.11113e-05
-3.79163e-07
5.11268e-05
-5.93957e-08
-3.79896e-07
2.72614e-07
-5.54676e-05
1.26689e-06
5.53831e-05
-1.58428e-06
-5.63531e-05
-1.19821e-06
5.61336e-05
1.69036e-06
2.61855e-07
1.29694e-06
-1.62482e-06
-1.2065e-06
1.6878e-06
8.70112e-07
-5.16397e-05
5.16573e-05
-5.39305e-05
5.36024e-05
8.59655e-07
-2.83681e-07
-5.59169e-05
-1.16878e-06
5.56963e-05
1.67303e-06
-5.52813e-05
1.19355e-06
1.21425e-07
5.5162e-05
-1.47936e-06
-2.75978e-07
-1.17185e-06
1.66419e-06
1.21773e-06
1.2415e-07
-1.51623e-06
-8.68625e-07
-5.32906e-05
5.29905e-05
-5.16429e-05
3.69098e-07
5.15987e-05
-8.61127e-07
3.70551e-07
5.24383e-08
-5.50286e-05
-3.2834e-07
5.49395e-05
4.86439e-07
-5.55475e-05
-1.85153e-07
5.48469e-09
5.54255e-05
3.54078e-07
4.96879e-08
-3.11163e-07
4.57669e-07
-1.78065e-07
4.1767e-09
3.33773e-07
6.28919e-08
-5.1124e-05
5.11018e-05
-5.23261e-05
4.61642e-09
5.21992e-05
6.27558e-08
3.60305e-09
-2.85968e-11
-5.64195e-05
-1.70981e-07
5.62665e-05
3.29482e-07
-5.64196e-05
-1.71019e-07
-5.53773e-09
5.62666e-05
3.29492e-07
-6.15544e-12
-1.6008e-07
3.06747e-07
-1.60081e-07
-4.20197e-09
3.06755e-07
-1.47024e-10
-5.34116e-05
5.32454e-05
-5.34114e-05
-5.08507e-09
5.32453e-05
1.39558e-11
-3.54225e-09
-5.24473e-08
-5.5547e-05
-1.85289e-07
5.54251e-05
3.54103e-07
-5.50284e-05
-3.28202e-07
-1.21477e-07
5.49392e-05
4.86372e-07
-4.97695e-08
-1.78025e-07
3.33776e-07
-3.11212e-07
-1.24179e-07
4.57611e-07
-6.41349e-08
-5.23254e-05
5.21992e-05
-5.11238e-05
-3.69643e-07
5.11011e-05
-6.24659e-08
-3.70626e-07
2.83958e-07
-5.52815e-05
1.19443e-06
5.51621e-05
-1.48051e-06
-5.59171e-05
-1.16951e-06
5.56965e-05
1.67411e-06
2.76269e-07
1.21855e-06
-1.51738e-06
-1.17261e-06
1.66529e-06
8.69169e-07
-5.16435e-05
5.15991e-05
-5.32916e-05
5.29913e-05
8.61801e-07
-2.90052e-07
-5.54753e-05
-1.15005e-06
5.52469e-05
1.66845e-06
-5.50279e-05
1.12617e-06
1.13932e-07
5.48778e-05
-1.38003e-06
-2.84618e-07
-1.14902e-06
1.65469e-06
1.14962e-06
1.16396e-07
-1.41647e-06
-8.63055e-07
-5.26995e-05
5.24125e-05
-5.1529e-05
3.59007e-07
5.14332e-05
-8.58029e-07
3.6127e-07
5.71614e-08
-5.48354e-05
-3.58666e-07
5.47141e-05
5.36691e-07
-5.52934e-05
-1.99234e-07
7.76651e-09
5.51476e-05
3.94364e-07
5.4049e-08
-3.39615e-07
5.06107e-07
-1.90032e-07
6.63481e-09
3.69573e-07
6.22683e-08
-5.10595e-05
5.09976e-05
-5.20668e-05
6.58213e-09
5.19233e-05
6.3953e-08
6.26937e-09
-4.0291e-11
-5.61053e-05
-1.91096e-07
5.59321e-05
3.7209e-07
-5.61054e-05
-1.91163e-07
-7.85446e-09
5.59323e-05
3.72113e-07
1.40674e-11
-1.79136e-07
3.4694e-07
-1.791e-07
-6.64316e-09
3.46965e-07
-2.92375e-10
-5.30723e-05
5.28881e-05
-5.3072e-05
-7.52417e-09
5.28881e-05
2.10654e-10
-5.6104e-09
-5.71347e-08
-5.52929e-05
-1.99516e-07
5.51473e-05
3.94415e-07
-5.48352e-05
-3.58377e-07
-1.14018e-07
5.47138e-05
5.36606e-07
-5.42465e-08
-1.89771e-07
3.69545e-07
-3.39898e-07
-1.16385e-07
5.06056e-07
-6.48763e-08
-5.20659e-05
5.19237e-05
-5.10599e-05
-3.59967e-07
5.09966e-05
-6.20552e-08
-3.60804e-07
2.90316e-07
-5.5028e-05
1.12708e-06
5.48778e-05
-1.38118e-06
-5.54754e-05
-1.15074e-06
5.5247e-05
1.6695e-06
2.84935e-07
1.15035e-06
-1.41758e-06
-1.14978e-06
1.65577e-06
8.63473e-07
-5.15298e-05
5.14334e-05
-5.27003e-05
5.24131e-05
8.58859e-07
-2.92958e-07
-5.50151e-05
-1.1385e-06
5.4773e-05
1.67355e-06
-5.47124e-05
1.06339e-06
1.09439e-07
5.45304e-05
-1.28375e-06
-2.88923e-07
-1.13362e-06
1.65438e-06
1.08526e-06
1.10638e-07
-1.31946e-06
-8.53911e-07
-5.2129e-05
5.18444e-05
-5.13169e-05
3.4886e-07
5.11776e-05
-8.50095e-07
3.51365e-07
6.57576e-08
-5.4577e-05
-3.89327e-07
5.44208e-05
5.89284e-07
-5.49916e-05
-2.17075e-07
9.63867e-09
5.48216e-05
4.43112e-07
6.05806e-08
-3.69468e-07
5.56621e-07
-2.05837e-07
8.76264e-09
4.13717e-07
6.13922e-08
-5.09153e-05
5.08134e-05
-5.17733e-05
8.21934e-09
5.16094e-05
6.42453e-08
8.4283e-09
-4.40739e-11
-5.57497e-05
-2.13367e-07
5.55536e-05
4.19123e-07
-5.57498e-05
-2.13452e-07
-9.75576e-09
5.55539e-05
4.19143e-07
2.99312e-11
-2.00024e-07
3.91145e-07
-1.99963e-07
-8.74516e-09
3.91152e-07
-3.77532e-10
-5.26962e-05
5.24914e-05
-5.26959e-05
-9.44967e-09
5.24915e-05
3.17432e-10
-7.41606e-09
-6.57018e-08
-5.49912e-05
-2.1745e-07
5.48214e-05
4.43177e-07
-5.45769e-05
-3.88946e-07
-1.09526e-07
5.44204e-05
5.89203e-07
-6.0958e-08
-2.05435e-07
4.13739e-07
-3.69903e-07
-1.10647e-07
5.56578e-07
-6.4878e-08
-5.17721e-05
5.16101e-05
-5.0916e-05
-3.5007e-07
5.08123e-05
-6.12745e-08
-3.50572e-07
2.93213e-07
-5.47125e-05
1.0643e-06
5.45303e-05
-1.28487e-06
-5.50152e-05
-1.13915e-06
5.4773e-05
1.67456e-06
2.89247e-07
1.08592e-06
-1.32054e-06
-1.13437e-06
1.65542e-06
8.5425e-07
-5.13177e-05
5.11777e-05
-5.21297e-05
5.18448e-05
8.51004e-07
-2.93626e-07
-5.4525e-05
-1.13379e-06
5.42641e-05
1.68832e-06
-5.43338e-05
1.00345e-06
1.05048e-07
5.41202e-05
-1.18846e-06
-2.90518e-07
-1.12537e-06
1.66392e-06
1.02435e-06
1.06185e-07
-1.22452e-06
-8.42792e-07
-5.15588e-05
5.12678e-05
-5.10206e-05
3.39111e-07
5.08421e-05
-8.39732e-07
3.41628e-07
6.81759e-08
-5.42494e-05
-4.20009e-07
5.40598e-05
6.46469e-07
-5.46392e-05
-2.40047e-07
1.02489e-08
5.44399e-05
4.97281e-07
6.64836e-08
-3.99755e-07
6.10773e-07
-2.26088e-07
1.02876e-08
4.64762e-07
6.03407e-08
-5.06913e-05
5.055e-05
-5.14372e-05
9.44999e-09
5.1248e-05
6.39999e-08
1.00794e-08
-2.17655e-10
-5.53471e-05
-2.38281e-07
5.51247e-05
4.71136e-07
-5.53472e-05
-2.38343e-07
-1.09328e-08
5.51251e-05
4.71187e-07
6.65567e-11
-2.23326e-07
4.40075e-07
-2.23277e-07
-1.00327e-08
4.40045e-07
-4.34988e-10
-5.22778e-05
5.20494e-05
-5.22775e-05
-1.08766e-08
5.20496e-05
3.83812e-10
-8.85255e-09
-6.81993e-08
-5.4639e-05
-2.40562e-07
5.44395e-05
4.97273e-07
-5.42493e-05
-4.19582e-07
-1.05173e-07
5.40595e-05
6.46388e-07
-6.67459e-08
-2.25606e-07
4.64785e-07
-4.00257e-07
-1.06171e-07
6.10766e-07
-6.44317e-08
-5.1436e-05
5.1249e-05
-5.06923e-05
-3.4048e-07
5.05488e-05
-6.03104e-08
-3.40622e-07
2.93863e-07
-5.43339e-05
1.00435e-06
5.41201e-05
-1.18955e-06
-5.4525e-05
-1.13442e-06
5.4264e-05
1.6893e-06
2.90848e-07
1.02497e-06
-1.22557e-06
-1.1261e-06
1.66493e-06
8.43079e-07
-5.10214e-05
5.08422e-05
-5.15594e-05
5.12681e-05
8.40684e-07
-2.92431e-07
-5.39952e-05
-1.13368e-06
5.37112e-05
1.7101e-06
-5.38922e-05
9.44264e-07
1.00889e-07
5.36465e-05
-1.09187e-06
-2.90169e-07
-1.12301e-06
1.68205e-06
9.6551e-07
1.01986e-07
-1.12968e-06
-8.29454e-07
-5.09723e-05
5.0668e-05
-5.06479e-05
3.2945e-07
5.04333e-05
-8.27509e-07
3.32178e-07
6.87158e-08
-5.38548e-05
-4.50833e-07
5.36306e-05
7.07251e-07
-5.42268e-05
-2.67209e-07
1.05467e-08
5.39957e-05
5.56486e-07
6.78812e-08
-4.30083e-07
6.69205e-07
-2.51103e-07
1.12195e-08
5.20802e-07
5.89296e-08
-5.03888e-05
5.02084e-05
-5.10492e-05
9.53786e-09
5.08314e-05
6.33758e-08
1.11377e-08
-3.63069e-10
-5.48908e-05
-2.65491e-07
5.46391e-05
5.28068e-07
-5.48908e-05
-2.65589e-07
-1.17245e-08
5.46396e-05
5.28165e-07
2.51315e-10
-2.4911e-07
4.94004e-07
-2.49074e-07
-1.03056e-08
4.93921e-07
-5.77484e-10
-5.18109e-05
5.15555e-05
-5.18104e-05
-1.16351e-08
5.15559e-05
5.26338e-10
-9.41682e-09
-6.88406e-08
-5.42269e-05
-2.67755e-07
5.39953e-05
5.56409e-07
-5.38548e-05
-4.50358e-07
-1.01057e-07
5.36302e-05
7.07161e-07
-6.8003e-08
-2.50551e-07
5.20905e-07
-4.30634e-07
-1.01918e-07
6.6923e-07
-6.36321e-08
-5.1048e-05
5.08323e-05
-5.03901e-05
-3.30984e-07
5.02071e-05
-5.90612e-08
-3.30992e-07
2.92649e-07
-5.38923e-05
9.45159e-07
5.36464e-05
-1.09295e-06
-5.39952e-05
-1.13428e-06
5.37111e-05
1.71105e-06
2.90511e-07
9.6609e-07
-1.1307e-06
-1.12372e-06
1.68304e-06
8.29684e-07
-5.06488e-05
5.04333e-05
-5.09728e-05
5.06682e-05
8.28494e-07
-2.90216e-07
-5.34173e-05
-1.13904e-06
5.31062e-05
1.74036e-06
-5.33861e-05
8.85476e-07
9.71932e-08
5.31069e-05
-9.93771e-07
-2.88488e-07
-1.12586e-06
1.70821e-06
9.07452e-07
9.81239e-08
-1.03364e-06
-8.154e-07
-5.03562e-05
5.00326e-05
-5.02036e-05
3.20385e-07
4.99533e-05
-8.14044e-07
3.23093e-07
6.84608e-08
-5.33903e-05
-4.8285e-07
5.31297e-05
7.72248e-07
-5.37497e-05
-2.98083e-07
1.11242e-08
5.34838e-05
6.21288e-07
6.79688e-08
-4.61219e-07
7.31635e-07
-2.79927e-07
1.16381e-08
5.82313e-07
5.7529e-08
-5.00079e-05
4.97879e-05
-5.06021e-05
9.58042e-09
5.0352e-05
6.24568e-08
1.17826e-08
-2.06689e-10
-5.43748e-05
-2.95596e-07
5.40909e-05
5.90818e-07
-5.43748e-05
-2.95775e-07
-1.16852e-08
5.40912e-05
5.90856e-07
2.60939e-10
-2.77592e-07
5.53348e-07
-2.77489e-07
-1.07422e-08
5.53258e-07
-6.78493e-10
-5.12891e-05
5.10038e-05
-5.12885e-05
-1.21767e-08
5.10042e-05
6.18315e-10
-9.48265e-09
-6.844e-08
-5.37497e-05
-2.98519e-07
5.34837e-05
6.21293e-07
-5.33903e-05
-4.82334e-07
-9.73191e-08
5.31294e-05
7.7218e-07
-6.80844e-08
-2.79409e-07
5.8242e-07
-4.61808e-07
-9.80435e-08
7.3167e-07
-6.25671e-08
-5.06011e-05
5.03529e-05
-5.00094e-05
-3.21984e-07
4.97865e-05
-5.76786e-08
-3.21788e-07
2.90441e-07
-5.33861e-05
8.86368e-07
5.31068e-05
-9.94821e-07
-5.34173e-05
-1.13962e-06
5.31061e-05
1.74128e-06
2.8883e-07
9.08007e-07
-1.03463e-06
-1.12656e-06
1.70917e-06
8.15607e-07
-5.02045e-05
4.99532e-05
-5.03567e-05
5.00327e-05
8.15043e-07
-2.87204e-07
-5.27837e-05
-1.14875e-06
5.24417e-05
1.77794e-06
-5.28129e-05
8.25115e-07
9.38473e-08
5.24988e-05
-8.9207e-07
-2.85884e-07
-1.13336e-06
1.7418e-06
8.48633e-07
9.46156e-08
-9.35084e-07
-8.00644e-07
-4.9699e-05
4.93509e-05
-4.96878e-05
3.11744e-07
4.94005e-05
-7.99754e-07
3.14378e-07
6.75929e-08
-5.28525e-05
-5.16153e-07
5.25535e-05
8.41441e-07
-5.32023e-05
-3.3205e-07
1.14514e-08
5.2899e-05
6.91484e-07
6.72649e-08
-4.9353e-07
7.98018e-07
-3.11992e-07
1.1513e-08
6.49237e-07
5.6101e-08
-4.95474e-05
4.92869e-05
-5.00891e-05
9.61261e-09
4.98035e-05
6.12963e-08
1.22007e-08
-1.12594e-10
-5.37929e-05
-3.28524e-07
5.34739e-05
6.59169e-07
-5.37931e-05
-3.2874e-07
-1.16453e-08
5.34741e-05
6.59181e-07
9.34686e-11
-3.08887e-07
6.18238e-07
-3.08703e-07
-1.12507e-08
6.18184e-07
-7.23483e-10
-5.07064e-05
5.03882e-05
-5.07057e-05
-1.24853e-08
5.03887e-05
6.73475e-10
-9.52193e-09
-6.75052e-08
-5.32022e-05
-3.32424e-07
5.2899e-05
6.91526e-07
-5.28525e-05
-5.15629e-07
-9.39556e-08
5.25532e-05
8.41382e-07
-6.75061e-08
-3.1158e-07
6.49274e-07
-4.94147e-07
-9.45692e-08
7.98047e-07
-6.13026e-08
-5.00881e-05
4.98045e-05
-4.95491e-05
-3.1336e-07
4.92855e-05
-5.62793e-08
-3.13028e-07
2.87429e-07
-5.28129e-05
8.26005e-07
5.24986e-05
-8.93135e-07
-5.27836e-05
-1.14932e-06
5.24415e-05
1.77883e-06
2.86213e-07
8.49173e-07
-9.36065e-07
-1.13404e-06
1.74273e-06
8.00839e-07
-4.96886e-05
4.94004e-05
-4.96994e-05
4.93509e-05
8.00743e-07
-2.8356e-07
-5.20865e-05
-1.16228e-06
5.17098e-05
1.82258e-06
-5.21678e-05
7.62315e-07
9.07565e-08
5.18141e-05
-7.82964e-07
-2.82573e-07
-1.14488e-06
1.78263e-06
7.87576e-07
9.14266e-08
-8.30533e-07
-7.85417e-07
-4.89909e-05
4.8614e-05
-4.90972e-05
3.03482e-07
4.87706e-05
-7.84905e-07
3.06022e-07
6.63348e-08
-5.22371e-05
-5.51008e-07
5.18972e-05
9.15269e-07
-5.25793e-05
-3.6889e-07
1.15276e-08
5.22361e-05
7.66931e-07
6.61685e-08
-5.27278e-07
8.68934e-07
-3.47033e-07
1.15099e-08
7.21414e-07
5.46556e-08
-4.90057e-05
4.87035e-05
-4.95041e-05
9.60219e-09
4.91802e-05
5.99725e-08
1.2408e-08
-9.24962e-11
-5.31396e-05
-3.64196e-07
5.27824e-05
7.32956e-07
-5.31397e-05
-3.64422e-07
-1.16353e-08
5.27827e-05
7.3296e-07
5.93649e-11
-3.42903e-07
6.88641e-07
-3.42688e-07
-1.14207e-08
6.88596e-07
-7.38121e-10
-5.0057e-05
4.97032e-05
-5.00563e-05
-1.26074e-08
4.97037e-05
6.96667e-10
-9.53741e-09
-6.62392e-08
-5.25792e-05
-3.69235e-07
5.22361e-05
7.66983e-07
-5.22371e-05
-5.50494e-07
-9.08583e-08
5.1897e-05
9.15218e-07
-6.64286e-08
-3.46666e-07
7.21439e-07
-5.27896e-07
-9.13857e-08
8.68965e-07
-5.99004e-08
-4.95032e-05
4.91812e-05
-4.90074e-05
-3.05079e-07
4.87021e-05
-5.48548e-08
-3.04666e-07
2.83781e-07
-5.21678e-05
7.63188e-07
5.18139e-05
-7.83995e-07
-5.20864e-05
-1.16283e-06
5.17096e-05
1.82345e-06
2.82894e-07
7.88112e-07
-8.31519e-07
-1.14554e-06
1.78354e-06
7.85608e-07
-4.9098e-05
4.87705e-05
-4.89913e-05
4.8614e-05
7.85875e-07
-2.79472e-07
-5.13188e-05
-1.17927e-06
5.09047e-05
1.8729e-06
-5.14434e-05
6.96601e-07
8.79598e-08
5.10492e-05
-6.6987e-07
-2.78646e-07
-1.1596e-06
1.82919e-06
7.2384e-07
8.84792e-08
-7.20242e-07
-7.69739e-07
-4.82238e-05
4.78143e-05
-4.84271e-05
2.9551e-07
4.80585e-05
-7.69392e-07
2.9788e-07
6.47689e-08
-5.15398e-05
-5.87585e-07
5.11577e-05
9.92838e-07
-5.18758e-05
-4.0832e-07
1.14878e-08
5.14904e-05
8.4695e-07
6.47465e-08
-5.62496e-07
9.43694e-07
-3.84717e-07
1.14663e-08
7.98259e-07
5.31938e-08
-4.83804e-05
4.80351e-05
-4.88416e-05
9.53628e-09
4.84769e-05
5.85119e-08
1.24494e-08
-8.3254e-11
-5.24092e-05
-4.02425e-07
5.20113e-05
8.11919e-07
-5.24094e-05
-4.02652e-07
-1.15614e-08
5.20116e-05
8.1192e-07
4.91526e-11
-3.79421e-07
7.64075e-07
-3.79196e-07
-1.14281e-08
7.64033e-07
-7.32084e-10
-4.93355e-05
4.89433e-05
-4.93347e-05
-1.25835e-08
4.89439e-05
6.97366e-10
-9.49773e-09
-6.46777e-08
-5.18757e-05
-4.08639e-07
5.14905e-05
8.47004e-07
-5.15398e-05
-5.87089e-07
-8.80571e-08
5.11575e-05
9.92793e-07
-6.50019e-08
-3.84382e-07
7.98284e-07
-5.63098e-07
-8.84397e-08
9.43727e-07
-5.83886e-08
-4.88407e-05
4.84779e-05
-4.83822e-05
-2.97062e-07
4.80337e-05
-5.33987e-08
-2.96548e-07
2.7969e-07
-5.14434e-05
6.97461e-07
5.1049e-05
-6.70874e-07
-5.13187e-05
-1.1798e-06
5.09044e-05
1.87376e-06
2.78958e-07
7.24373e-07
-7.21203e-07
-1.16024e-06
1.83007e-06
7.69933e-07
-4.8428e-05
4.80585e-05
-4.82241e-05
4.78143e-05
7.70334e-07
-2.7512e-07
-5.04754e-05
-1.19986e-06
5.00211e-05
1.92928e-06
-5.06381e-05
6.29842e-07
8.54327e-08
5.02022e-05
-5.54483e-07
-2.74536e-07
-1.17853e-06
1.88234e-06
6.57471e-07
8.58795e-08
-6.0678e-07
-7.53956e-07
-4.73898e-05
4.69439e-05
-4.76718e-05
2.87888e-07
4.72598e-05
-7.53993e-07
2.90178e-07
6.29967e-08
-5.07577e-05
-6.25885e-07
5.03317e-05
1.07432e-06
-5.10873e-05
-4.50088e-07
1.13687e-08
5.06575e-05
9.31512e-07
6.31072e-08
-5.99848e-07
1.02261e-06
-4.2503e-07
1.13631e-08
8.7991e-07
5.17385e-08
-4.76684e-05
4.72787e-05
-4.80965e-05
9.41825e-09
4.76887e-05
5.69922e-08
1.23685e-08
-7.64556e-11
-5.15962e-05
-4.43155e-07
5.11548e-05
8.96017e-07
-5.15964e-05
-4.43377e-07
-1.14225e-08
5.11551e-05
8.96016e-07
4.27791e-11
-4.1863e-07
8.45027e-07
-4.18403e-07
-1.13494e-08
8.44987e-07
-7.11902e-10
-4.85364e-05
4.81034e-05
-4.85356e-05
-1.24433e-08
4.8104e-05
6.82843e-10
-9.40873e-09
-6.29132e-08
-5.10873e-05
-4.50382e-07
5.06576e-05
9.31564e-07
-5.07578e-05
-6.25416e-07
-8.55267e-08
5.03315e-05
1.07428e-06
-6.33519e-08
-4.24722e-07
8.79935e-07
-6.00426e-07
-8.58439e-08
1.02264e-06
-5.68071e-08
-4.80958e-05
4.76897e-05
-4.76702e-05
-2.89377e-07
4.72774e-05
-5.19654e-08
-2.88893e-07
2.75337e-07
-5.06381e-05
6.30642e-07
5.0202e-05
-5.55462e-07
-5.04752e-05
-1.20039e-06
5.00208e-05
1.93011e-06
2.74841e-07
6.58002e-07
-6.07719e-07
-1.17915e-06
1.8832e-06
7.54159e-07
-4.76727e-05
4.72598e-05
-4.739e-05
4.69438e-05
7.54902e-07
-2.70434e-07
-4.95501e-05
-1.22347e-06
4.9052e-05
1.99206e-06
-4.97477e-05
5.6819e-07
8.29991e-08
4.92663e-05
-4.40225e-07
-2.70044e-07
-1.20026e-06
1.94128e-06
5.94326e-07
8.34189e-08
-4.9329e-07
-7.38172e-07
-4.64819e-05
4.59966e-05
-4.6833e-05
2.80637e-07
4.63824e-05
-7.38339e-07
2.82727e-07
6.10613e-08
-4.98868e-05
-6.65497e-07
4.9414e-05
1.16017e-06
-5.02092e-05
-4.93921e-07
1.11824e-08
4.97327e-05
1.02027e-06
6.12781e-08
-6.38346e-07
1.10545e-06
-4.67392e-07
1.11942e-08
9.65781e-07
5.03017e-08
-4.68677e-05
4.64325e-05
-4.72646e-05