/*--------------------------------*- C++ -*----------------------------------*\
  =========                 |
  \\      /  F ield         | OpenFOAM: The Open Source CFD Toolbox
   \\    /   O peration     | Website:  https://openfoam.org
    \\  /    A nd           | Version:  9
     \\/     M anipulation  |
\*---------------------------------------------------------------------------*/
FoamFile
{
    format      ascii;
    class       volVectorField;
    location    "1.55";
    object      U;
}
// * * * * * * * * * * * * * * * * * * * * * * * * * * * * * * * * * * * * * //

dimensions      [0 1 -1 0 0 0 0];

internalField   nonuniform List<vector> 
36360
(
(0.000707939 -0.122007 -0.499442)
(-0.000367369 -0.0921831 0.00012019)
(-0.000398081 -0.124447 -0.501421)
(-0.00199625 -0.084441 5.18294e-05)
(-0.000941129 -0.121463 -0.500843)
(0.0100299 -0.0899483 1.50809e-05)
(4.51647e-06 -0.121666 -0.502109)
(0.0117617 -0.0984078 1.76576e-05)
(-0.000881954 -0.102503 -6.98482e-05)
(-0.00244351 -0.106828 -4.33269e-06)
(-0.00279912 -0.100599 -3.50134e-05)
(-0.00295103 -0.104775 -1.46404e-06)
(0.00558297 -0.107873 -5.43638e-06)
(0.0043763 -0.107195 -5.62359e-06)
(0.00713543 -0.111302 -2.00091e-05)
(0.00641517 -0.10966 -2.82668e-06)
(-0.00230667 -0.107922 -6.16286e-08)
(-0.00230659 -0.107921 5.27565e-08)
(-0.00274353 -0.105902 -9.60325e-08)
(-0.00274349 -0.105901 9.30755e-08)
(0.0045185 -0.106426 -1.37708e-06)
(0.00451853 -0.106425 1.36879e-06)
(0.00635545 -0.10904 -2.22728e-07)
(0.00635543 -0.109039 2.20157e-07)
(-0.00244348 -0.106827 4.32251e-06)
(-0.00088207 -0.1025 6.98274e-05)
(-0.00295094 -0.104773 1.46104e-06)
(-0.00279913 -0.100596 3.50049e-05)
(0.00437631 -0.107193 5.61469e-06)
(0.00558302 -0.10787 5.41952e-06)
(0.00641515 -0.109658 2.82366e-06)
(0.00713536 -0.111298 2.00061e-05)
(-0.000367644 -0.0921796 -0.000120218)
(0.000707326 -0.122012 0.499441)
(-0.00199588 -0.0844371 -5.18428e-05)
(-0.000398366 -0.124452 0.501421)
(0.010031 -0.0899428 -1.50671e-05)
(-0.000941049 -0.121474 0.500843)
(0.0117628 -0.098404 -1.76532e-05)
(4.84382e-06 -0.121677 0.502109)
(0.00308617 -0.118693 -0.497837)
(-0.0024363 -0.0988785 0.000151023)
(0.00217001 -0.120448 -0.498708)
(-0.000904483 -0.0961155 0.000146321)
(-0.000124723 -0.12099 -0.500812)
(0.0025377 -0.082144 -2.08063e-05)
(-0.000609736 -0.121934 -0.50053)
(0.0064905 -0.0831459 -1.95449e-07)
(0.0014792 -0.104159 -6.77413e-05)
(-2.54545e-05 -0.108078 -1.16091e-05)
(0.00117536 -0.103519 -7.32674e-05)
(-0.000940717 -0.107897 -7.81027e-06)
(0.00412303 -0.100628 4.93155e-05)
(0.00197969 -0.104669 -1.15729e-05)
(0.0051902 -0.103754 1.8379e-05)
(0.00310166 -0.105481 -8.8458e-06)
(-0.000779469 -0.109864 -2.3058e-06)
(-0.000779635 -0.109864 2.28996e-06)
(-0.00135196 -0.10938 -8.93625e-07)
(-0.00135197 -0.10938 8.78232e-07)
(0.00193766 -0.104006 -4.17918e-06)
(0.00193784 -0.104006 4.1632e-06)
(0.00333695 -0.104563 -2.88796e-06)
(0.00333713 -0.104563 2.87401e-06)
(-2.57278e-05 -0.108077 1.15764e-05)
(0.00147918 -0.104156 6.76814e-05)
(-0.000941018 -0.107896 7.78911e-06)
(0.00117536 -0.103517 7.3234e-05)
(0.00197957 -0.104667 1.15551e-05)
(0.00412332 -0.100625 -4.93677e-05)
(0.00310179 -0.105479 8.8312e-06)
(0.00519039 -0.103751 -1.84127e-05)
(-0.00243758 -0.0988767 -0.000151062)
(0.00308646 -0.118698 0.497835)
(-0.000905241 -0.0961133 -0.000146355)
(0.00216984 -0.120453 0.498707)
(0.0025378 -0.082139 2.08524e-05)
(-0.000124038 -0.121 0.500812)
(0.00649102 -0.0831405 2.22076e-07)
(-0.00060938 -0.121944 0.50053)
(0.0038391 -0.115753 -0.496784)
(-0.00464243 -0.101538 0.000127969)
(0.00359566 -0.117084 -0.497203)
(-0.00375687 -0.100443 0.00014357)
(0.000913671 -0.117891 -0.501067)
(-0.0011211 -0.0841008 -7.89253e-05)
(0.000538812 -0.11938 -0.501153)
(0.000126591 -0.0825927 -4.80383e-05)
(0.000789938 -0.104401 -3.01035e-05)
(0.000258035 -0.10795 -1.52056e-05)
(0.00117966 -0.104385 -5.17143e-05)
(0.000251769 -0.108075 -1.43685e-05)
(0.00193268 -0.0968356 0.000121865)
(0.000614225 -0.10309 -1.22793e-05)
(0.0028126 -0.0982479 8.53101e-05)
(0.00113497 -0.103748 -1.27204e-05)
(-0.000245535 -0.110102 -5.22782e-06)
(-0.000245768 -0.110102 5.21985e-06)
(-0.000413044 -0.110107 -3.85364e-06)
(-0.000413198 -0.110107 3.80088e-06)
(0.0001393 -0.103607 -5.94405e-06)
(0.000139236 -0.103606 5.95164e-06)
(0.000758542 -0.10368 -5.1388e-06)
(0.000758592 -0.103679 5.12381e-06)
(0.000258012 -0.107949 1.52999e-05)
(0.000790103 -0.104398 3.01069e-05)
(0.000251785 -0.108074 1.438e-05)
(0.00117941 -0.104383 5.16996e-05)
(0.000613998 -0.103089 1.22854e-05)
(0.00193307 -0.0968319 -0.000121925)
(0.0011346 -0.103747 1.2711e-05)
(0.00281296 -0.0982443 -8.53657e-05)
(-0.00464408 -0.101537 -0.000128006)
(0.00384028 -0.115757 0.496781)
(-0.00375849 -0.100441 -0.000143639)
(0.00359639 -0.117088 0.497201)
(-0.00112175 -0.0840968 7.90385e-05)
(0.000915158 -0.117901 0.501066)
(0.000126188 -0.0825882 4.81123e-05)
(0.000539955 -0.119391 0.501153)
(0.00414408 -0.113622 -0.496264)
(-0.00537473 -0.103187 8.44065e-05)
(0.00401036 -0.11461 -0.496459)
(-0.00514775 -0.102424 0.000107387)
(0.00131946 -0.114752 -0.500965)
(-0.00194029 -0.0881799 -0.00014076)
(0.00115991 -0.116323 -0.501003)
(-0.00171602 -0.0861017 -0.000110336)
(0.000331148 -0.104363 1.62262e-05)
(0.000211123 -0.107552 -1.08876e-05)
(0.000502083 -0.104367 -6.66109e-06)
(0.000220542 -0.107746 -1.393e-05)
(0.00117541 -0.0958009 0.000186249)
(0.00026756 -0.102472 -7.0287e-06)
(0.00143282 -0.0961195 0.000155962)
(0.000360447 -0.102713 -1.03087e-05)
(-0.000103839 -0.109812 -6.85357e-06)
(-0.000103833 -0.109812 6.8556e-06)
(-0.00016757 -0.10997 -6.23899e-06)
(-0.000167608 -0.10997 6.25181e-06)
(-9.72369e-05 -0.103824 -7.06929e-06)
(-9.72887e-05 -0.103824 7.06875e-06)
(-6.71987e-05 -0.1037 -6.61726e-06)
(-6.73097e-05 -0.103699 6.6234e-06)
(0.000211224 -0.107551 1.08713e-05)
(0.000331083 -0.104361 -1.62754e-05)
(0.000220611 -0.107745 1.39299e-05)
(0.000502054 -0.104364 6.6281e-06)
(0.000267606 -0.102471 7.0099e-06)
(0.00117574 -0.0957972 -0.000186353)
(0.000360389 -0.102712 1.03007e-05)
(0.00143318 -0.0961158 -0.000156044)
(-0.00537676 -0.103186 -8.43854e-05)
(0.00414567 -0.113626 0.496261)
(-0.00514961 -0.102423 -0.000107375)
(0.00401178 -0.114614 0.496457)
(-0.00194132 -0.088177 0.000140928)
(0.00132127 -0.114761 0.500964)
(-0.00171688 -0.0860983 0.00011048)
(0.0011616 -0.116332 0.501002)
(0.00432498 -0.111991 -0.496003)
(-0.00539247 -0.104363 3.74441e-05)
(0.00425333 -0.112758 -0.496093)
(-0.0054329 -0.103834 6.06146e-05)
(0.00146818 -0.111758 -0.500914)
(-0.00187654 -0.0918246 -0.000195784)
(0.00142479 -0.113222 -0.500932)
(-0.00195445 -0.0901178 -0.000169399)
(0.000198679 -0.104503 5.54096e-05)
(0.000256528 -0.107242 -1.47038e-06)
(0.000240137 -0.104412 3.70226e-05)
(0.000228862 -0.107385 -6.48138e-06)
(0.000922969 -0.0957602 0.000233889)
(0.00026357 -0.102039 2.14153e-06)
(0.00101419 -0.0957162 0.000212191)
(0.00025058 -0.102261 -2.75034e-06)
(3.13456e-05 -0.109514 -7.00929e-06)
(3.13809e-05 -0.109514 6.99992e-06)
(-3.73449e-05 -0.109659 -7.10074e-06)
(-3.73173e-05 -0.109659 7.0955e-06)
(-1.7587e-05 -0.103896 -7.12258e-06)
(-1.75881e-05 -0.103895 7.11195e-06)
(-6.32867e-05 -0.103895 -7.23997e-06)
(-6.33019e-05 -0.103895 7.23366e-06)
(0.000256621 -0.10724 1.43611e-06)
(0.000198524 -0.104501 -5.54783e-05)
(0.000228965 -0.107383 6.45532e-06)
(0.000240023 -0.104409 -3.70817e-05)
(0.000263682 -0.102038 -2.17684e-06)
(0.000923123 -0.0957567 -0.000234026)
(0.000250671 -0.102259 2.72273e-06)
(0.00101441 -0.0957126 -0.000212312)
(-0.00539477 -0.104362 -3.73983e-05)
(0.00432673 -0.111994 0.496)
(-0.00543508 -0.103834 -6.05819e-05)
(0.00425503 -0.112761 0.49609)
(-0.00187774 -0.0918228 0.000195996)
(0.0014701 -0.111765 0.500914)
(-0.00195558 -0.0901154 0.00016959)
(0.00142666 -0.113229 0.500931)
(0.0043821 -0.110674 -0.495854)
(-0.00520493 -0.105116 -4.59751e-06)
(0.00436933 -0.111301 -0.495898)
(-0.00530988 -0.104788 1.56619e-05)
(0.00145465 -0.109101 -0.500884)
(-0.00166182 -0.0944784 -0.000241159)
(0.0014796 -0.110379 -0.500894)
(-0.00177783 -0.0932762 -0.000219695)
(0.000175761 -0.104711 8.42431e-05)
(0.00030015 -0.106994 9.25159e-06)
(0.000179801 -0.104608 7.10028e-05)
(0.000281748 -0.107114 3.727e-06)
(0.000833816 -0.0960438 0.000266125)
(0.000291215 -0.101558 1.25953e-05)
(0.000867969 -0.0958815 0.000251678)
(0.000279825 -0.101803 7.31517e-06)
(0.000150002 -0.109217 -6.02723e-06)
(0.000150018 -0.109217 6.0098e-06)
(9.62776e-05 -0.109367 -6.58008e-06)
(9.63039e-05 -0.109367 6.57699e-06)
(6.41198e-05 -0.103721 -6.16213e-06)
(6.4136e-05 -0.10372 6.14476e-06)
(2.55946e-05 -0.10384 -6.75147e-06)
(2.56021e-05 -0.10384 6.73804e-06)
(0.000300218 -0.106992 -9.29617e-06)
(0.000175556 -0.10471 -8.43231e-05)
(0.000281834 -0.107112 -3.77809e-06)
(0.000179615 -0.104607 -7.10899e-05)
(0.000291341 -0.101557 -1.26425e-05)
(0.000833877 -0.0960408 -0.000266281)
(0.000279964 -0.101802 -7.35828e-06)
(0.000868062 -0.0958782 -0.000251827)
(-0.00520737 -0.105116 4.67139e-06)
(0.00438391 -0.110677 0.49585)
(-0.00531227 -0.104788 -1.55947e-05)
(0.00437113 -0.111304 0.495894)
(-0.00166309 -0.0944776 0.000241412)
(0.00145661 -0.109107 0.500884)
(-0.00177909 -0.0932749 0.000219929)
(0.00148155 -0.110385 0.500893)
(0.00436461 -0.109562 -0.495746)
(-0.00499664 -0.105518 -3.9308e-05)
(0.00438169 -0.110097 -0.495774)
(-0.00510134 -0.105356 -2.28777e-05)
(0.00137237 -0.106864 -0.500861)
(-0.00145253 -0.0962421 -0.000277232)
(0.00142282 -0.10793 -0.500868)
(-0.00155811 -0.0954585 -0.000260272)
(0.000187246 -0.104874 0.000103476)
(0.000318677 -0.106757 1.94884e-05)
(0.000178001 -0.104802 9.49069e-05)
(0.000311036 -0.106876 1.4494e-05)
(0.000798237 -0.0964119 0.000286712)
(0.00029466 -0.101075 2.26814e-05)
(0.000809882 -0.0962262 0.000277635)
(0.00029499 -0.101314 1.77524e-05)
(0.000225099 -0.108889 -4.31826e-06)
(0.000225094 -0.108889 4.29578e-06)
(0.00019145 -0.109059 -5.23364e-06)
(0.000191455 -0.109059 5.21394e-06)
(0.000108228 -0.103382 -4.5137e-06)
(0.000108239 -0.103382 4.49081e-06)
(8.96309e-05 -0.103566 -5.39835e-06)
(8.96466e-05 -0.103566 5.3782e-06)
(0.000318714 -0.106755 -1.95426e-05)
(0.000187022 -0.104873 -0.000103564)
(0.000311087 -0.106875 -1.45438e-05)
(0.000177784 -0.104801 -9.49918e-05)
(0.000294765 -0.101074 -2.27378e-05)
(0.00079828 -0.0964095 -0.000286878)
(0.000295104 -0.101312 -1.78044e-05)
(0.000809925 -0.0962235 -0.000277797)
(-0.00499912 -0.105518 3.94104e-05)
(0.00436646 -0.109563 0.495742)
(-0.00510381 -0.105356 2.29666e-05)
(0.00438351 -0.110099 0.49577)
(-0.0014538 -0.0962421 0.000277518)
(0.00137434 -0.106869 0.50086)
(-0.00155939 -0.0954581 0.000260542)
(0.00142478 -0.107934 0.500867)
(0.00432702 -0.10859 -0.495651)
(-0.00480989 -0.105645 -6.68662e-05)
(0.00434774 -0.109062 -0.495676)
(-0.00490143 -0.105611 -5.39219e-05)
(0.00128117 -0.105019 -0.50084)
(-0.0012842 -0.0973301 -0.000305459)
(0.0013291 -0.105897 -0.500846)
(-0.00136592 -0.0968587 -0.000292219)
(0.000219854 -0.104945 0.000115397)
(0.000332222 -0.106499 2.84599e-05)
(0.000200067 -0.104923 0.000110199)
(0.000324983 -0.106632 2.41553e-05)
(0.000799295 -0.0967517 0.000299144)
(0.00028828 -0.100621 3.16039e-05)
(0.000793668 -0.0965902 0.000293756)
(0.000291748 -0.100844 2.73112e-05)
(0.000280883 -0.108511 -2.26037e-06)
(0.000280879 -0.108511 2.23225e-06)
(0.000253997 -0.108706 -3.31594e-06)
(0.000253993 -0.108706 3.2906e-06)
(0.000135635 -0.102955 -2.5257e-06)
(0.000135642 -0.102955 2.49729e-06)
(0.000122959 -0.103177 -3.54504e-06)
(0.000122967 -0.103177 3.51935e-06)
(0.000332231 -0.106498 -2.85217e-05)
(0.000219645 -0.104944 -0.00011549)
(0.000325006 -0.10663 -2.42135e-05)
(0.000199845 -0.104922 -0.000110291)
(0.000288365 -0.10062 -3.16682e-05)
(0.000799393 -0.0967498 -0.000299316)
(0.000291844 -0.100843 -2.73717e-05)
(0.000793727 -0.096588 -0.000293925)
(-0.00481238 -0.105645 6.69928e-05)
(0.00432884 -0.108591 0.495647)
(-0.00490391 -0.105611 5.40371e-05)
(0.00434956 -0.109063 0.495672)
(-0.00128544 -0.0973307 0.000305771)
(0.0012831 -0.105022 0.500839)
(-0.00136717 -0.096859 0.00029252)
(0.00133104 -0.105901 0.500846)
(0.00429918 -0.107704 -0.495556)
(-0.00464872 -0.105563 -8.83998e-05)
(0.00431337 -0.108138 -0.495579)
(-0.00472863 -0.105627 -7.82876e-05)
(0.00120385 -0.103479 -0.500819)
(-0.00115747 -0.0979185 -0.00032739)
(0.00124412 -0.104216 -0.500825)
(-0.00122048 -0.0976783 -0.000317117)
(0.000272988 -0.104908 0.000122245)
(0.00035165 -0.106203 3.59143e-05)
(0.000243573 -0.104941 0.000119305)
(0.000340326 -0.106356 3.23766e-05)
(0.000826692 -0.0970055 0.000306163)
(0.000282064 -0.10019 3.90714e-05)
(0.000809439 -0.0968925 0.000303189)
(0.000284347 -0.100404 3.55242e-05)
(0.000332857 -0.108083 -9.89324e-08)
(0.000332849 -0.108084 6.56954e-08)
(0.000306829 -0.108303 -1.17952e-06)
(0.000306823 -0.108303 1.1487e-06)
(0.000158272 -0.102467 -4.38198e-07)
(0.000158276 -0.102467 4.04849e-07)
(0.000147114 -0.102718 -1.48226e-06)
(0.00014712 -0.102718 1.45122e-06)
(0.00035163 -0.106201 -3.59817e-05)
(0.000272811 -0.104907 -0.000122338)
(0.000340318 -0.106355 -3.24415e-05)
(0.000243389 -0.10494 -0.000119399)
(0.000282127 -0.100189 -3.91414e-05)
(0.000826851 -0.0970041 -0.000306335)
(0.000284419 -0.100403 -3.55916e-05)
(0.000809569 -0.0968908 -0.000303361)
(-0.00465118 -0.105563 8.85451e-05)
(0.00430097 -0.107705 0.495552)
(-0.00473111 -0.105627 7.84242e-05)
(0.00431518 -0.108139 0.495575)
(-0.00115868 -0.0979193 0.000327722)
(0.00120575 -0.103482 0.500818)
(-0.00122171 -0.097679 0.000317439)
(0.00124604 -0.104219 0.500824)
(0.0042928 -0.106864 -0.495462)
(-0.0045062 -0.105315 -0.000105203)
(0.00429585 -0.10728 -0.495485)
(-0.00457774 -0.105458 -9.7315e-05)
(0.00114847 -0.102156 -0.500799)
(-0.00106181 -0.0981401 -0.000344403)
(0.00117803 -0.102796 -0.500805)
(-0.00111099 -0.0980687 -0.000336435)
(0.000340411 -0.104753 0.000125865)
(0.00038406 -0.105851 4.18804e-05)
(0.000304698 -0.104845 0.000124376)
(0.000366002 -0.106035 3.90751e-05)
(0.000870035 -0.0971351 0.000309689)
(0.000281549 -0.0997596 4.50825e-05)
(0.000845854 -0.0970877 0.000308271)
(0.000280841 -0.0999764 4.2252e-05)
(0.000387053 -0.107601 1.99568e-06)
(0.000387046 -0.107601 -2.03081e-06)
(0.00035942 -0.107849 9.63667e-07)
(0.000359412 -0.107849 -9.98803e-07)
(0.000180412 -0.101926 1.59105e-06)
(0.000180413 -0.101925 -1.61884e-06)
(0.000169278 -0.102203 5.89628e-07)
(0.000169281 -0.102203 -6.24248e-07)
(0.000384019 -0.10585 -4.19515e-05)
(0.000340249 -0.104752 -0.000125956)
(0.000365973 -0.106034 -3.91444e-05)
(0.000304527 -0.104844 -0.000124468)
(0.000281591 -0.0997587 -4.51636e-05)
(0.00087026 -0.097134 -0.000309868)
(0.000280897 -0.0999754 -4.23247e-05)
(0.000846043 -0.0970865 -0.000308443)
(-0.00450865 -0.105315 0.000105364)
(0.00429456 -0.106865 0.495458)
(-0.0045802 -0.105458 9.74681e-05)
(0.00429762 -0.107281 0.495481)
(-0.00106297 -0.098141 0.000344756)
(0.00115033 -0.102158 0.500798)
(-0.00111217 -0.0980695 0.000336774)
(0.00117991 -0.102798 0.500804)
(0.00430806 -0.106036 -0.495366)
(-0.00437675 -0.104928 -0.000118316)
(0.00430015 -0.10645 -0.495388)
(-0.00444279 -0.105138 -0.000112148)
(0.00111047 -0.10097 -0.500779)
(-0.000991543 -0.0980901 -0.000357675)
(0.0011317 -0.101549 -0.500784)
(-0.0010265 -0.0981398 -0.000351282)
(0.000416394 -0.104477 0.000127398)
(0.000429855 -0.10543 4.65244e-05)
(0.000376287 -0.10463 0.000126816)
(0.000404984 -0.10565 4.43438e-05)
(0.00091997 -0.0971237 0.000311126)
(0.00028641 -0.0993036 5.00402e-05)
(0.000893924 -0.0971454 0.000310422)
(0.00028312 -0.0995365 4.75511e-05)
(0.000446815 -0.107057 3.91321e-06)
(0.000446848 -0.107057 -3.99221e-06)
(0.000416031 -0.107337 2.98901e-06)
(0.000416026 -0.107337 -3.02026e-06)
(0.0002035 -0.101328 3.21447e-06)
(0.000203538 -0.101328 -3.73589e-06)
(0.000191774 -0.101634 2.58566e-06)
(0.000191775 -0.101634 -2.53338e-06)
(0.000429958 -0.10543 -4.65433e-05)
(0.000416074 -0.104477 -0.000127423)
(0.000404904 -0.10565 -4.44169e-05)
(0.000376157 -0.10463 -0.000126906)
(0.000286562 -0.099303 -4.96025e-05)
(0.000920121 -0.0971228 -0.000310746)
(0.000283119 -0.0995355 -4.77077e-05)
(0.000894221 -0.0971448 -0.000310679)
(-0.00437927 -0.104928 0.000118471)
(0.00430974 -0.106037 0.495361)
(-0.00444524 -0.105138 0.000112322)
(0.00430188 -0.106451 0.495383)
(-0.000992711 -0.0980909 0.000357676)
(0.00111229 -0.100972 0.500778)
(-0.00102764 -0.0981408 0.000351715)
(0.00113355 -0.101551 0.500783)
(0.00434585 -0.105191 -0.495268)
(-0.00425002 -0.104417 -0.000128582)
(0.004327 -0.105617 -0.495291)
(-0.00431522 -0.104687 -0.000123721)
(0.00108961 -0.0998601 -0.50076)
(-0.000930615 -0.097821 -0.000368241)
(0.00110265 -0.100408 -0.500764)
(-0.00096348 -0.0979784 -0.000362761)
(0.000501847 -0.10408 0.000127597)
(0.000490652 -0.104926 5.00349e-05)
(0.000457395 -0.104294 0.000127537)
(0.000458553 -0.105189 4.83262e-05)
(0.000979102 -0.0969619 0.000311414)
(0.000297293 -0.0987959 5.38852e-05)
(0.000948661 -0.0970608 0.000310596)
(0.000291299 -0.0990575 5.12994e-05)
(0.00051463 -0.106442 5.64812e-06)
(0.000514702 -0.106442 -5.77966e-06)
(0.00047971 -0.106758 4.86265e-06)
(0.000479686 -0.106759 -4.84729e-06)
(0.000228284 -0.100667 4.62748e-06)
(0.000228355 -0.100666 -5.68065e-06)
(0.000215729 -0.101006 4.70372e-06)
(0.0002157 -0.101006 -3.97404e-06)
(0.000490916 -0.104925 -5.00036e-05)
(0.000501346 -0.104079 -0.000127564)
(0.000458231 -0.105188 -4.84829e-05)
(0.000457474 -0.104293 -0.000127711)
(0.000297564 -0.0987954 -5.29079e-05)
(0.000979159 -0.0969613 -0.000310452)
(0.000291068 -0.0990566 -5.21857e-05)
(0.000949218 -0.0970604 -0.00031162)
(-0.0042526 -0.104418 0.000128712)
(0.00434747 -0.105191 0.495264)
(-0.00431761 -0.104687 0.000123928)
(0.00432872 -0.105617 0.495287)
(-0.000931776 -0.097822 0.000367845)
(0.00109139 -0.0998615 0.500758)
(-0.000964522 -0.0979794 0.000363704)
(0.00110451 -0.10041 0.500764)
(0.00440251 -0.104305 -0.495168)
(-0.00412325 -0.103788 -0.000136662)
(0.0043743 -0.104754 -0.49519)
(-0.00418932 -0.104118 -0.000132766)
(0.00107994 -0.0987795 -0.50074)
(-0.000879449 -0.0973773 -0.000376353)
(0.00108742 -0.0993186 -0.500744)
(-0.000908611 -0.09762 -0.000371645)
(0.000594189 -0.103556 0.00012701)
(0.000565523 -0.10433 5.26456e-05)
(0.000545901 -0.103835 0.0001272)
(0.000526616 -0.104639 5.12862e-05)
(0.00103766 -0.0966502 0.000310618)
(0.000312385 -0.0982195 5.67225e-05)
(0.00100692 -0.0968251 0.000309779)
(0.000304463 -0.0985173 5.41692e-05)
(0.000591496 -0.105745 7.1544e-06)
(0.000591584 -0.105745 -7.31797e-06)
(0.000551931 -0.106104 6.55671e-06)
(0.000551863 -0.106104 -6.50776e-06)
(0.000255532 -0.0999332 5.88876e-06)
(0.000255619 -0.0999329 -7.28108e-06)
(0.000241639 -0.10031 6.47362e-06)
(0.000241584 -0.10031 -5.33619e-06)
(0.000565893 -0.10433 -5.25916e-05)
(0.000593579 -0.103556 -0.000126934)
(0.000526191 -0.104639 -5.14845e-05)
(0.000546118 -0.103834 -0.000127418)
(0.000312722 -0.0982191 -5.54016e-05)
(0.00103767 -0.0966499 -0.000309285)
(0.000304056 -0.0985166 -5.54889e-05)
(0.00100769 -0.0968249 -0.000311259)
(-0.00412589 -0.103788 0.000136787)
(0.00440408 -0.104305 0.495164)
(-0.00419168 -0.104118 0.000133)
(0.004376 -0.104754 0.495186)
(-0.000880585 -0.0973782 0.000375705)
(0.0010817 -0.0987806 0.500739)
(-0.000909555 -0.097621 0.000372913)
(0.00108926 -0.0993198 0.500744)
(0.00447698 -0.103356 -0.495068)
(-0.00399216 -0.103039 -0.000143181)
(0.00443995 -0.103839 -0.495088)
(-0.00406061 -0.103429 -0.000140015)
(0.00108073 -0.0976909 -0.500721)
(-0.000833922 -0.0967772 -0.000382686)
(0.00108291 -0.0982381 -0.500725)
(-0.00086029 -0.0970958 -0.000378602)
(0.000695202 -0.102903 0.000125982)
(0.000654145 -0.103633 5.47144e-05)
(0.00064238 -0.103245 0.000126432)
(0.000608448 -0.103995 5.35483e-05)
(0.00109373 -0.0961876 0.000309268)
(0.00033547 -0.0975577 5.8792e-05)
(0.00106473 -0.0964376 0.000308385)
(0.000323183 -0.0979005 5.63205e-05)
(0.000678749 -0.104956 8.38304e-06)
(0.000678854 -0.104956 -8.48352e-06)
(0.000633891 -0.105362 7.90085e-06)
(0.0006338 -0.105363 -7.84275e-06)
(0.000286255 -0.0991164 6.94858e-06)
(0.000286337 -0.0991163 -8.54928e-06)
(0.000270551 -0.0995362 7.89988e-06)
(0.000270512 -0.099536 -6.49357e-06)
(0.000654595 -0.103633 -5.44809e-05)
(0.000694536 -0.102902 -0.000126073)
(0.000607946 -0.103995 -5.38278e-05)
(0.000642695 -0.103245 -0.000126617)
(0.000335957 -0.0975574 -5.72316e-05)
(0.00109367 -0.0961874 -0.000307717)
(0.000322685 -0.0979 -5.79271e-05)
(0.00106558 -0.0964375 -0.000310157)
(-0.00399481 -0.103039 0.000143266)
(0.00447853 -0.103356 0.495063)
(-0.00406296 -0.103429 0.000140276)
(0.00444163 -0.103839 0.495084)
(-0.00083503 -0.0967781 0.000381866)
(0.00108248 -0.0976918 0.50072)
(-0.000861168 -0.0970968 0.000380089)
(0.00108475 -0.0982391 0.500725)
(0.00456832 -0.102329 -0.494962)
(-0.00385476 -0.10217 -0.000148399)
(0.00452282 -0.102853 -0.494985)
(-0.00392693 -0.10262 -0.000145797)
(0.00109046 -0.096565 -0.500702)
(-0.000792491 -0.0960353 -0.000387645)
(0.00108827 -0.0971341 -0.500706)
(-0.000816936 -0.0964234 -0.000384022)
(0.000805865 -0.10212 0.000124763)
(0.000756492 -0.10282 5.61986e-05)
(0.000748012 -0.102528 0.000125479)
(0.000704021 -0.103242 5.51211e-05)
(0.00114778 -0.0955761 0.000307521)
(0.000366886 -0.096794 6.03576e-05)
(0.00111952 -0.0959003 0.000306739)
(0.000350704 -0.0971894 5.77827e-05)
(0.000777275 -0.104062 9.37241e-06)
(0.000777462 -0.104062 -9.38422e-06)
(0.000726707 -0.104522 8.92283e-06)
(0.000726576 -0.104523 -8.95707e-06)
(0.000320658 -0.0982044 7.81534e-06)
(0.000320791 -0.0982043 -9.51757e-06)
(0.000303092 -0.0986734 9.01755e-06)
(0.000303083 -0.0986731 -7.46621e-06)
(0.000756917 -0.10282 -5.57866e-05)
(0.000805127 -0.10212 -0.000125031)
(0.000703528 -0.103241 -5.56048e-05)
(0.000748417 -0.102527 -0.000125452)
(0.000367424 -0.0967938 -5.8367e-05)
(0.00114767 -0.0955761 -0.000306011)
(0.000350135 -0.0971891 -5.97456e-05)
(0.00112043 -0.0959004 -0.000308569)
(-0.00385745 -0.10217 0.000148438)
(0.00456983 -0.102329 0.494958)
(-0.00392925 -0.10262 0.000146116)
(0.00452447 -0.102853 0.49498)
(-0.000793579 -0.0960361 0.000386634)
(0.0010922 -0.0965657 0.500701)
(-0.000817762 -0.0964243 0.000385704)
(0.00109011 -0.0971349 0.500705)
(0.00467663 -0.101206 -0.494857)
(-0.00370516 -0.101178 -0.000152536)
(0.00462264 -0.10178 -0.494878)
(-0.00378398 -0.10169 -0.000150435)
(0.00110816 -0.0953771 -0.500683)
(-0.000753724 -0.0951578 -0.000391445)
(0.00110201 -0.0959801 -0.500686)
(-0.000777098 -0.0956134 -0.000388231)
(0.000927247 -0.101204 0.000123687)
(0.000871931 -0.101881 5.70413e-05)
(0.000863929 -0.101679 0.000124319)
(0.000812948 -0.102367 5.62493e-05)
(0.00120127 -0.0948153 0.000305646)
(0.000405354 -0.0959146 6.13234e-05)
(0.00117311 -0.0952144 0.000304953)
(0.000385755 -0.0963695 5.87198e-05)
(0.000888253 -0.103052 1.00454e-05)
(0.000888463 -0.103052 -1.01701e-05)
(0.000831444 -0.103572 9.74565e-06)
(0.000831228 -0.103572 -9.78626e-06)
(0.000359336 -0.0971854 8.46701e-06)
(0.000359548 -0.0971852 -1.02495e-05)
(0.000339657 -0.0977093 9.86217e-06)
(0.000339581 -0.0977091 -8.22033e-06)
(0.000872337 -0.101881 -5.67924e-05)
(0.000926476 -0.101204 -0.000123743)
(0.000812487 -0.102367 -5.67592e-05)
(0.000864393 -0.101679 -0.00012428)
(0.000405796 -0.0959145 -5.91187e-05)
(0.00120111 -0.0948154 -0.000304163)
(0.000385218 -0.0963694 -6.09889e-05)
(0.00117407 -0.0952146 -0.000306744)
(-0.00370788 -0.101177 0.000152615)
(0.00467811 -0.101206 0.494852)
(-0.00378632 -0.10169 0.000150769)
(0.00462427 -0.10178 0.494874)
(-0.000754802 -0.0951586 0.000390345)
(0.00110989 -0.0953776 0.500682)
(-0.000777881 -0.0956143 0.000390052)
(0.00110385 -0.0959808 0.500686)
(0.0048006 -0.0999738 -0.494749)
(-0.00354137 -0.100056 -0.000155852)
(0.00473895 -0.100604 -0.49477)
(-0.00362729 -0.100633 -0.000154168)
(0.00113325 -0.094106 -0.500665)
(-0.000711913 -0.0941435 -0.000394324)
(0.00112329 -0.094753 -0.500667)
(-0.000737717 -0.0946681 -0.000391482)
(0.00105944 -0.100146 0.000122575)
(0.00100018 -0.100807 5.75453e-05)
(0.000990724 -0.100693 0.000123046)
(0.000934808 -0.101362 5.70517e-05)
(0.00125575 -0.0939026 0.000303692)
(0.00045016 -0.0949069 6.18418e-05)
(0.00122689 -0.0943781 0.00030307)
(0.000427382 -0.0954275 5.92922e-05)
(0.00101219 -0.101914 1.05601e-05)
(0.00101241 -0.101914 -1.07253e-05)
(0.00094891 -0.102499 1.04177e-05)
(0.000948644 -0.102499 -1.03693e-05)
(0.000402653 -0.0960478 8.9556e-06)
(0.000402902 -0.0960477 -1.07599e-05)
(0.000380716 -0.0966324 1.04758e-05)
(0.000380546 -0.0966322 -8.78778e-06)
(0.00100058 -0.100807 -5.73808e-05)
(0.00105867 -0.100146 -0.000122533)
(0.000934375 -0.101361 -5.74038e-05)
(0.000991224 -0.100693 -0.000123205)
(0.000450549 -0.094907 -5.95268e-05)
(0.00125557 -0.0939028 -0.000302254)
(0.000426949 -0.0954275 -6.1715e-05)
(0.00122789 -0.0943783 -0.000304823)
(-0.00354412 -0.100056 0.000155946)
(0.00480207 -0.0999735 0.494744)
(-0.00362964 -0.100633 0.000154471)
(0.00474056 -0.100604 0.494766)
(-0.000713015 -0.0941442 0.000393179)
(0.00113497 -0.0941065 0.500663)
(-0.000738492 -0.0946689 0.000393368)
(0.00112512 -0.0947535 0.500667)
(0.00493917 -0.098617 -0.494639)
(-0.00336134 -0.0987937 -0.000158504)
(0.00487014 -0.0993117 -0.49466)
(-0.00345596 -0.0994437 -0.000157142)
(0.00116526 -0.0927343 -0.500646)
(-0.000664427 -0.0929848 -0.00039645)
(0.00115185 -0.0934336 -0.500648)
(-0.000692343 -0.0935827 -0.000393939)
(0.00120304 -0.0989389 0.000121415)
(0.00114148 -0.0995858 5.779e-05)
(0.0011285 -0.0995619 0.00012186)
(0.00106951 -0.100215 5.74643e-05)
(0.00131213 -0.0928343 0.000301685)
(0.000501029 -0.0937598 6.20129e-05)
(0.00128233 -0.0933881 0.000301141)
(0.000475223 -0.0943514 5.95542e-05)
(0.0011494 -0.100637 1.09446e-05)
(0.00114964 -0.100637 -1.11145e-05)
(0.00107948 -0.101293 1.08807e-05)
(0.00107919 -0.101293 -1.08215e-05)
(0.00045078 -0.094781 9.30699e-06)
(0.000451037 -0.0947808 -1.10977e-05)
(0.00042648 -0.0954315 1.08926e-05)
(0.000426267 -0.0954313 -9.20542e-06)
(0.00114186 -0.0995857 -5.76478e-05)
(0.00120227 -0.0989387 -0.000121356)
(0.00106911 -0.100215 -5.77764e-05)
(0.00112902 -0.0995617 -0.000122057)
(0.000501396 -0.0937599 -5.96589e-05)
(0.00131195 -0.0928347 -0.000300306)
(0.00047483 -0.0943515 -6.20483e-05)
(0.00128334 -0.0933884 -0.000302838)
(-0.00336413 -0.0987936 0.000158603)
(0.00494063 -0.0986167 0.494634)
(-0.00345834 -0.0994435 0.000157439)
(0.00487174 -0.0993114 0.494656)
(-0.0006655 -0.0929855 0.000395294)
(0.00116698 -0.0927346 0.500644)
(-0.000693124 -0.0935835 0.000395851)
(0.00115368 -0.093434 0.500648)
(0.00509294 -0.0971237 -0.494525)
(-0.003159 -0.09738 -0.000160611)
(0.00501628 -0.0978878 -0.494546)
(-0.00326523 -0.0981058 -0.00015951)
(0.00120418 -0.0912466 -0.500627)
(-0.00061389 -0.0916726 -0.000397951)
(0.00118691 -0.0920058 -0.500629)
(-0.000643674 -0.0923486 -0.000395743)
(0.00135872 -0.0975746 0.000120329)
(0.00129566 -0.0982099 5.78172e-05)
(0.00127824 -0.0982766 0.00012072)
(0.00121737 -0.0989176 5.76108e-05)
(0.00137164 -0.0916059 0.000299652)
(0.000558059 -0.0924631 6.19081e-05)
(0.00133998 -0.0922405 0.000299186)
(0.000529137 -0.0931307 5.95702e-05)
(0.0013003 -0.0992113 1.12189e-05)
(0.00130054 -0.0992117 -1.13871e-05)
(0.00122352 -0.099943 1.12075e-05)
(0.00122321 -0.0999434 -1.11496e-05)
(0.000503807 -0.0933745 9.5488e-06)
(0.000504063 -0.0933743 -1.13001e-05)
(0.000477079 -0.0940961 1.11579e-05)
(0.000476841 -0.0940959 -9.49996e-06)
(0.00129603 -0.0982099 -5.76893e-05)
(0.00135797 -0.0975745 -0.000120269)
(0.00121699 -0.0989175 -5.79066e-05)
(0.00127876 -0.0982764 -0.000120921)
(0.000558403 -0.0924633 -5.95687e-05)
(0.00137146 -0.0916063 -0.000298344)
(0.00052877 -0.0931309 -6.20739e-05)
(0.00134099 -0.0922408 -0.000300813)
(-0.00316183 -0.0973799 0.000160713)
(0.00509439 -0.0971234 0.49452)
(-0.00326768 -0.0981057 0.000159806)
(0.00501785 -0.0978875 0.494542)
(-0.000614963 -0.0916734 0.000396813)
(0.00120589 -0.0912469 0.500625)
(-0.000644432 -0.0923494 0.00039765)
(0.00118873 -0.0920061 0.500629)
(0.0052584 -0.0954839 -0.49441)
(-0.00295415 -0.0958103 -0.000162268)
(0.00517684 -0.0963226 -0.494432)
(-0.00305474 -0.0966151 -0.000161385)
(0.00125389 -0.089628 -0.500608)
(-0.000547813 -0.0901961 -0.000398928)
(0.00123055 -0.0904544 -0.50061)
(-0.000587603 -0.0909549 -0.000397)
(0.00152257 -0.0960476 0.000119311)
(0.00146175 -0.0966704 5.76586e-05)
(0.00143908 -0.0968318 0.000119687)
(0.0013776 -0.097461 5.75575e-05)
(0.00143862 -0.0902115 0.000297603)
(0.000621546 -0.0910073 6.15703e-05)
(0.00140262 -0.0909296 0.000297221)
(0.000589395 -0.0917555 5.93806e-05)
(0.00146504 -0.0976261 1.13969e-05)
(0.00146527 -0.0976265 -1.15606e-05)
(0.00138137 -0.0984388 1.14289e-05)
(0.00138105 -0.0984393 -1.13751e-05)
(0.000561775 -0.0918182 9.69857e-06)
(0.000562025 -0.0918181 -1.13891e-05)
(0.000532608 -0.0926159 1.13008e-05)
(0.000532359 -0.0926157 -9.69428e-06)
(0.00146211 -0.0966704 -5.75436e-05)
(0.00152188 -0.0960475 -0.000119257)
(0.00137725 -0.097461 -5.784e-05)
(0.0014396 -0.0968316 -0.000119884)
(0.000621864 -0.0910076 -5.92861e-05)
(0.00143841 -0.090212 -0.000296378)
(0.000589047 -0.0917558 -6.18486e-05)
(0.00140359 -0.0909301 -0.00029877)
(-0.00295667 -0.0958101 0.000162374)
(0.00525988 -0.0954834 0.494405)
(-0.00305715 -0.0966149 0.000161677)
(0.00517841 -0.0963222 0.494427)
(-0.000549005 -0.090197 0.000397829)
(0.00125556 -0.0896281 0.500606)
(-0.000588429 -0.0909557 0.000398878)
(0.00123234 -0.0904546 0.50061)
(0.00543295 -0.0936851 -0.494293)
(-0.00279033 -0.0940762 -0.000163552)
(0.00534593 -0.094605 -0.494314)
(-0.00287369 -0.0949645 -0.000162851)
(0.00131562 -0.0878665 -0.500589)
(-0.00045677 -0.0885666 -0.000399455)
(0.00128661 -0.0887658 -0.500591)
(-0.000508061 -0.0893995 -0.000397795)
(0.00169231 -0.0943491 0.000118215)
(0.00164002 -0.0949583 5.73128e-05)
(0.00160497 -0.0952204 0.000118637)
(0.00154963 -0.0958363 5.73162e-05)
(0.00151427 -0.0886476 0.000295607)
(0.000690918 -0.0893845 6.10364e-05)
(0.0014745 -0.0894509 0.000295277)
(0.000655962 -0.0902172 5.90125e-05)
(0.00164334 -0.0958718 1.14902e-05)
(0.00164356 -0.0958723 -1.16482e-05)
(0.00155297 -0.0967702 1.15571e-05)
(0.00155265 -0.0967707 -1.15094e-05)