/*--------------------------------*- C++ -*----------------------------------*\
  =========                 |
  \\      /  F ield         | OpenFOAM: The Open Source CFD Toolbox
   \\    /   O peration     | Website:  https://openfoam.org
    \\  /    A nd           | Version:  9
     \\/     M anipulation  |
\*---------------------------------------------------------------------------*/
FoamFile
{
    format      ascii;
    class       volScalarField;
    location    "4.7";
    object      epsilon;
}
// * * * * * * * * * * * * * * * * * * * * * * * * * * * * * * * * * * * * * //

dimensions      [0 2 -3 0 0 0 0];

internalField   nonuniform List<scalar> 
36360
(
12.3864
11.2728
9.90116
9.38496
20.3953
19.4608
13.0556
15.2371
9.24914
8.17555
7.57159
6.59651
16.6846
15.2102
12.5049
11.0275
7.70616
7.70609
6.17322
6.17315
14.5761
14.5758
10.4371
10.4368
8.17538
9.24891
6.59631
7.57131
15.2094
16.6833
11.0268
12.5036
11.2726
12.3865
9.38474
9.90114
19.4589
20.3929
15.2353
13.0535
14.6369
13.2884
13.7838
12.4916
24.7809
23.1893
23.1824
21.6947
11.0733
9.91317
10.3301
9.19802
20.1399
18.57
18.7284
17.1989
9.40775
9.40771
8.70443
8.70437
17.8911
17.8909
16.5379
16.5377
9.91305
11.0732
9.19787
10.3299
18.5692
20.1388
17.1982
18.7271
13.2883
14.6372
12.4915
13.7841
23.1876
24.7788
21.693
23.1802
15.6673
14.287
15.226
13.8565
26.8393
25.1677
25.9346
24.2953
12.0378
10.859
11.6185
10.4455
22.0518
20.4525
21.2067
19.617
10.3455
10.3455
9.93466
9.93462
19.7596
19.7594
18.9287
18.9285
10.8589
12.0377
10.4454
11.6184
20.4518
22.0507
19.6163
21.2056
14.2871
15.6677
13.8565
15.2264
25.1662
26.8375
24.2937
25.9326
16.2785
14.8889
16.0069
14.6209
28.1557
26.4488
27.5623
25.8691
12.6358
11.4555
12.3687
11.1884
23.3012
21.6948
22.7359
21.1321
10.9408
10.9408
10.674
10.6739
20.9995
20.9993
20.4374
20.4371
11.4555
12.6358
11.1884
12.3687
21.6942
23.3003
21.1314
22.7349
14.889
16.2789
14.621
16.0073
26.4475
28.154
25.8677
27.5606
16.673
15.2802
16.4952
15.1037
29.0498
27.3288
28.6424
26.9267
13.033
11.8557
12.8537
11.6748
24.1666
22.5579
23.7716
22.1636
11.3419
11.3419
11.1604
11.1604
21.8634
21.8632
21.4685
21.4683
11.8556
13.0329
11.6747
12.8537
22.5574
24.1658
22.163
23.7707
15.2804
16.6735
15.1038
16.4956
27.3275
29.0483
26.9254
28.6408
16.9342
15.5406
16.816
15.4227
29.6706
27.9446
29.3866
27.6622
13.3024
12.1302
13.1806
12.0058
24.7762
23.1693
24.4971
22.8893
11.6186
11.6186
11.4931
11.4931
22.4772
22.4771
22.196
22.1958
12.1301
13.3024
12.0058
13.1805
23.1688
24.7753
22.8887
24.4963
15.5407
16.9347
15.4228
16.8164
27.9435
29.6692
27.661
29.3851
17.1045
15.7117
17.0279
15.6346
30.0985
28.3733
29.9036
28.1773
13.4842
12.3179
13.4024
12.2333
25.205
23.6024
25.0092
23.4045
11.809
11.809
11.723
11.723
22.913
22.9128
22.7138
22.7136
12.3179
13.4842
12.2332
13.4025
23.6019
25.2042
23.404
25.0084
15.7119
17.1051
15.6348
17.0284
28.3723
30.0975
28.1762
29.9023
17.2099
15.8187
17.1629
15.7712
30.3857
28.6638
30.2554
28.5318
13.6024
12.4425
13.55
12.3871
25.4998
23.903
25.3663
23.7668
11.9365
11.9365
11.8797
11.8797
23.2166
23.2165
23.0789
23.0787
12.4425
13.6025
12.3871
13.5501
23.9025
25.4991
23.7663
25.3656
15.8189
17.2102
15.7714
17.1635
28.6628
30.384
28.5308
30.2545
17.2672
15.8773
17.2429
15.8525
30.5673
28.848
30.4872
28.7661
13.6726
12.5193
13.6427
12.4863
25.6915
24.1016
25.6065
24.0132
12.0165
12.0165
11.9819
11.9819
23.4188
23.4186
23.3287
23.3285
12.5193
13.6726
12.4863
13.6428
24.1011
25.6908
24.0128
25.6058
15.8774
17.2673
15.8526
17.243
28.8469
30.5652
28.7649
30.485
17.2853
15.8962
17.2803
15.8908
30.6636
28.9466
30.6239
28.9058
13.7045
12.5585
13.6929
12.5433
25.801
24.2191
25.7551
24.1692
12.0591
12.0591
12.0421
12.0421
23.5405
23.5404
23.4885
23.4883
12.5585
13.7046
12.5433
13.6929
24.2187
25.8004
24.1688
25.7544
15.8966
17.2855
15.8909
17.2802
28.9456
30.6616
28.9047
30.6218
17.2695
15.8827
17.2804
15.8924
30.6872
28.9728
30.6824
28.9665
13.7051
12.5671
13.7083
12.5664
25.8428
24.2705
25.8291
24.252
12.0714
12.0714
12.0688
12.0688
23.5968
23.5967
23.5759
23.5758
12.5671
13.7054
12.5664
13.7084
24.2702
25.8424
24.2517
25.8285
15.882
17.2683
15.8919
17.2797
28.9725
30.6853
28.9654
30.6798
17.2285
15.8443
17.2499
15.8648
30.655
28.9442
30.6762
28.9628
13.6812
12.5512
13.6957
12.5621
25.8305
24.2678
25.8418
24.2746
12.0592
12.0592
12.0682
12.0683
23.599
23.5989
23.6036
23.6034
12.5513
13.6817
12.5622
13.6964
24.2675
25.8304
24.2744
25.8419
15.8465
17.2318
15.8664
17.2518
28.9457
30.6572
28.9648
30.6776
17.1748
15.7904
17.2031
15.8191
30.5804
28.8725
30.6224
28.913
13.6377
12.5144
13.6618
12.5354
25.7712
24.2181
25.8059
24.2485
12.0259
12.0259
12.0452
12.0451
23.5547
23.5545
23.5826
23.5824
12.5142
13.6369
12.5352
13.6616
24.2174
25.7697
24.2479
25.8049
15.7888
17.1733
15.8192
17.2037
28.8689
30.5766
28.9108
30.6197
17.0995
15.7157
17.1384
15.7542
30.461
28.7555
30.5246
28.8175
13.5757
12.4595
13.6088
12.4892
25.6705
24.1276
25.7253
24.1775
11.9745
11.9745
12.0025
12.0024
23.4695
23.4693
23.5167
23.5165
12.4592
13.5748
12.4889
13.6079
24.127
25.6691
24.1768
25.7238
15.7134
17.097
15.7523
17.1365
28.7521
30.458
28.8139
30.5216
17.0083
15.626
17.0544
15.6717
30.3012
28.6002
30.3836
28.6807
13.4975
12.3884
13.5384
12.426
25.5332
24.0003
25.6057
24.0682
11.907
11.9069
11.9428
11.9428
23.3477
23.3476
23.4128
23.4127
12.3883
13.4968
12.4258
13.5377
23.9999
25.5322
24.0677
25.6046
15.6239
17.0064
15.6696
17.0524
28.5976
30.2997
28.6778
30.3819
16.9022
15.5201
16.9566
15.5744
30.1065
28.4079
30.2071
28.5069
13.4042
12.3024
13.4527
12.3474
25.361
23.839
25.4509
23.9236
11.8244
11.8244
11.8677
11.8676
23.1918
23.1917
23.2737
23.2736
12.3021
13.4034
12.3471
13.452
23.8386
25.36
23.9232
25.4499
15.5183
16.8998
15.572
16.9538
28.4047
30.1041
28.5042
30.2056
16.7782
15.398
16.8412
15.46
29.8767
28.1814
29.9943
28.2975
13.2963
12.2021
13.352
12.2541
25.1558
23.6452
25.2621
23.7459
11.7277
11.7276
11.778
11.7779
23.0035
23.0034
23.1015
23.1014
12.2018
13.2954
12.2538
13.3511
23.6448
25.1546
23.7455
25.261
15.396
16.7763
15.4581
16.8391
28.1783
29.8744
28.2942
29.9916
16.6407
15.2619
16.7097
15.3308
29.6116
27.9182
29.7473
28.0527
13.1737
12.0878
13.2368
12.1468
24.9172
23.4197
25.0403
23.5363
11.617
11.6169
11.6742
11.6741
22.7833
22.7832
22.8973
22.8971
12.0874
13.1729
12.1465
13.2358
23.4192
24.9159
23.5358
25.0389
15.2598
16.6385
15.3289
16.7078
27.9151
29.6084
28.0493
29.744
16.4849
15.1089
16.5647
15.1867
29.311
27.6216
29.4656
27.7734
13.0368
11.9594
13.1071
12.0255
24.6454
23.162
24.7852
23.2947
11.4923
11.4923
11.5566
11.5565
22.531
22.531
22.6611
22.661
11.9592
13.0364
12.0252
13.1064
23.1617
24.6447
23.2943
24.7842
15.1078
16.484
15.1848
16.5627
27.6201
29.3088
27.7708
29.4622
16.3113
14.9399
16.3988
15.0256
28.9669
27.2844
29.1423
27.4561
12.8844
11.8164
12.9625
11.8898
24.3396
22.8713
24.4964
23.0207
11.3533
11.3533
11.4248
11.4248
22.2458
22.2458
22.3925
22.3924
11.8164
12.8845
11.8898
12.9625
22.8712
24.3393
23.0205
24.4961
14.939
16.3107
15.0248
16.3987
27.2841
28.9684
27.4559
29.143
16.1154
14.7518
16.2147
14.8462
28.5864
26.9101
28.7811
27.1008
12.7167
11.6586
12.8024
11.7395
23.9983
22.5466
24.173
22.7131
11.1995
11.1995
11.2784
11.2784
21.9265
21.9265
22.0904
22.0904
11.6586
12.7165
11.7395
12.8023
22.5465
23.9979
22.713
24.1726
14.7512
16.1158
14.8457
16.2141
26.9085
28.5863
27.0991
28.7807
15.9069
14.5505
16.0129
14.6533
28.164
26.4955
28.3787
26.7063
12.5331
11.4854
12.6269
11.574
23.6205
22.1866
23.8136
22.3709
11.0307
11.0308
11.117
11.1171
21.5724
21.5723
21.7533
21.7533
11.4856
12.5332
11.5741
12.6269
22.1866
23.6203
22.3709
23.8133
14.5495
15.9063
14.6518
16.0123
26.4946
28.164
26.7052
28.3791
15.6747
14.3298
15.7918
14.441
27.6996
26.0401
27.9365
26.272
12.333
11.2967
12.4352
11.3932
23.205
21.7896
23.4174
21.9927
10.8471
10.8471
10.941
10.941
21.1837
21.1837
21.3825
21.3825
11.2968
12.3332
11.3933
12.4353
21.7896
23.2051
21.9927
23.4173
14.3294
15.6745
14.4398
15.7912
26.0406
27.7007
26.2718
27.9371
15.4252
14.0906
15.5524
14.2127
27.1929
25.5418
27.4498
25.795
12.1155
11.0915
12.2265
11.1963
22.7502
21.3548
22.9822
21.5768
10.6475
10.6474
10.7494
10.7494
20.7579
20.7578
20.9754
20.9753
11.0913
12.1151
11.1963
12.2264
21.3544
22.7492
21.5766
22.9818
14.0897
15.4239
14.2119
15.5516
25.5394
27.1906
25.7944
27.4497
15.1484
13.8295
15.2882
13.9611
26.6375
24.998
26.9194
25.2733
11.8802
10.8696
11.9999
10.9827
22.2555
20.8818
22.5073
21.1229
10.4316
10.4315
10.5417
10.5416
20.2944
20.2943
20.5308
20.5307
10.8692
11.8791
10.9824
11.9992
20.8812
22.254
21.1225
22.5061
13.8274
15.1459
13.9604
15.2878
24.9942
26.6336
25.2706
26.9172
14.8514
13.5517
15.0007
13.6913
26.0384
24.4119
26.3429
24.7088
11.6273
10.6308
11.7558
10.7524
21.7214
20.3702
21.9931
20.6307
10.1992
10.1991
10.3176
10.3175
19.7928
19.7927
20.0483
20.0482
10.6304
11.626
10.752
11.7547
20.3696
21.7195
20.6301
21.9914
13.5488
14.848
13.6894
14.9979
24.407
26.0328
24.7046
26.3365
14.5342
13.2553
14.6951
13.4054
25.392
23.7802
25.7201
24.1013
11.3565
10.3746
11.4943
10.505
21.145
19.8191
21.4384
20.0995
9.94978
9.94971
10.0767
10.0766
19.2525
19.2524
19.5274
19.5273
10.3742
11.3549
10.5046
11.4926
19.8185
21.1432
20.0989
21.4364
13.2507
14.528
13.4009
14.6894
23.7742
25.3851
24.0949
25.7142
14.1908
12.9369
14.3641
13.0973
24.6972
23.1037
25.0486
23.4451
11.0672
10.101
11.214
10.2401
20.5279
19.2286
20.8409
19.5285
9.68332
9.6833
9.81879
9.81874
18.6735
18.6734
18.9677
18.9676
10.1009
11.0667
10.2398
11.2129
19.2283
20.5272
19.5281
20.8397
12.9354
14.1888
13.094
14.3597
23.1021
24.6946
23.4412
25.0436
13.8255
12.599
14.0109
12.7703
23.9562
22.3838
24.3323
22.7489
10.7593
9.80957
10.9158
9.95765
19.8704
18.5988
20.2042
18.9185
9.39947
9.39947
9.5437
9.54369
18.0557
18.0557
18.3694
18.3693
9.80956
10.7592
9.9576
10.9155
18.5986
19.8701
18.9183
20.2037
12.5989
13.8251
12.7694
14.0097
22.3832
23.9553
22.7478
24.3307
13.4302
12.236
13.6306
12.4197
23.1623
21.6134
23.5648
22.0035
10.4308
9.49964
10.5976
9.65698
19.1705
17.9294
19.5254
18.2688
9.09791
9.09791
9.25099
9.25099
17.3994
17.3993
17.7322
17.7322
9.49964
10.4308
9.65698
10.5976
17.9292
19.1703
18.2687
19.5251
12.2361
13.4304
12.4197
13.6307
21.613
23.1618
22.003
23.5642
13.0091
11.851
13.2217
12.0453
22.3205
20.7978
22.7462
21.2098
10.0829
9.17167
10.2591
9.33794
18.4304
17.2219
18.8051
17.5802
8.77891
8.77891
8.94064
8.94064
16.7057
16.7057
17.057
17.057
9.17167
10.0829
9.33793
10.2592
17.2217
18.4302
17.58
18.8048
11.8511
13.0093
12.0454
13.222
20.7974
22.3201
21.2094
22.7457
12.5659
11.4464
12.7893
11.6502
21.4365
19.9426
21.8827
20.3739
9.7168
8.82638
9.90199
9.00122
17.653
16.4781
18.046
16.8543
8.44294
8.44294
8.6131
8.6131
15.9761
15.9761
16.3452
16.3452
8.82637
9.7168
9.00121
9.902
16.4779
17.6527
16.8542
18.0458
11.4465
12.5661
11.6503
12.7895
19.9423
21.436
20.3736
21.8822
12.1033
11.024
12.3362
11.2366
20.5133
19.05
20.9788
19.4999
9.3335
8.46422
9.52724
8.64747
16.8399
15.6994
17.2506
16.0929
8.09028
8.09027
8.26877
8.26876
15.2119
15.2118
15.5982
15.5981
8.46421
9.3335
8.64746
9.52725
15.6993
16.8397
16.0928
17.2504
11.0241
12.1035
11.2367
12.3363
19.0496
20.5129
19.4995
20.9784
11.6229
10.5847
11.8645
10.8057
19.5531
18.1216
20.037
18.5892
8.93325
8.08518
9.13548
8.2769
15.9924
14.8866
16.4202
15.2971
7.72076
7.72076
7.90773
7.90772
14.4136
14.4136
14.8169
14.8168
8.08517
8.93325
8.27689
9.13548
14.8865
15.9921
15.297
16.4199
10.5847
11.6231
10.8057
11.8647
18.1213
19.5527
18.5888
20.0365
11.1256
10.1285
11.3757
10.358
18.5564
17.1589
19.0586
17.6436
8.5155
7.68847
8.72662
7.88918
15.1105
14.0397
15.5556
14.4674
7.33355
7.33355
7.52953
7.52952
13.5811
13.5811
14.0016
14.0016
7.68846
8.5155
7.88917
8.72662
14.0395
15.1103
14.4672
15.5553
10.1285
11.1258
10.358
11.3758
17.1585
18.556
17.6433
19.0582
10.6104
9.65364
10.8697
9.89288
17.5207
16.1611
18.0431
16.6636
8.07803
7.27192
8.29945
7.48294
14.1927
13.1565
14.6561
13.6027
6.92658
6.92657
7.13278
7.13278
12.7124
12.7123
13.1514
13.1513
7.27191
8.07802
7.48293
8.29944
13.1563
14.1924
13.6026
14.6559
9.65367
10.6106
9.89292
10.8698
16.1608
17.5203
16.6633
18.0426
10.0729
9.1538
10.3443
9.40693
16.4394
15.1245
16.9856
15.6472
7.61454
6.83067
7.8502
7.05489
13.2321
12.2312
13.7183
12.6996
6.49604
6.49604
6.71462
6.71461
11.8028
11.8027
12.263
12.2629
6.83065
7.61452
7.05488
7.85019
12.2311
13.2318
12.6995
13.7181
9.15383
10.073
9.40696
10.3444
15.1242
16.4389
15.6469
16.9852
9.50334
8.60274
9.79211
8.88757
15.3079
14.0305
15.8786
14.5874
7.10607
6.35501
7.36806
6.59799
12.2058
11.2508
12.7298
11.749
6.03718
6.03717
6.27039
6.27038
10.8458
10.8458
11.3304
11.3303
6.35499
7.10605
6.59797
7.36805
11.2507
12.2055
11.7488
12.7295
8.60277
9.50343
8.8876
9.79221
14.0302
15.3074
14.5871
15.8782
8.9102
7.84434
9.2069
8.27519
14.1071
12.6629
14.7287
13.4187
6.49905
5.83513
6.81996
6.10039
11.04
10.2015
11.6473
10.7343
5.55335
5.55334
5.79725
5.79724
9.84712
9.84708
10.3498
10.3498
5.83511
6.49903
6.10037
6.81994
10.2014
11.0398
10.7342
11.6471
7.84435
8.91028
8.27521
9.20699
12.6626
14.1067
13.4184
14.7283
10.4801
9.68613
9.51581
8.8358
10.9915
10.0498
9.60796
8.87902
8.39734
7.59939
7.56842
6.79909
8.46714
7.54032
7.37959
6.51352
7.22084
7.22093
6.43933
6.43939
7.11503
7.11505
6.12059
6.1206
7.59966
8.39788
6.7993
7.56886
7.54041
8.46738
6.51356
7.37974
9.68705
10.4814
8.83659
9.51698
10.0503
10.9924
8.87944
9.60871
11.7167
10.886
11.1971
10.3753
12.5772
11.5461
11.9375
10.9297
9.55686
8.73121
9.0552
8.23726
9.86822
8.88533
9.27791
8.31233
8.33803
8.33813
7.84841
7.84851
8.43351
8.43356
7.86898
7.86901
8.73154
9.55749
8.23757
9.0558
8.88548
9.86856
8.31246
9.27821
10.887
11.7182
10.3763
11.1986
11.5467
12.5783
10.9303
11.9386
12.3836
11.5536
12.0973
11.2655
13.3685
12.3271
13.0307
11.9918
10.2322
9.40884
9.93843
9.11233
10.6419
9.65223
10.3067
9.31796
9.01591
9.01602
8.71841
8.71852
9.1966
9.19666
8.86299
8.86304
9.40919
10.2329
9.11268
9.93907
9.65241
10.6422
9.31813
10.3071
11.5546
12.3851
11.2665
12.0987
12.3278
13.3696
11.9925
13.0318
12.7654
11.943
12.5987
11.7724
13.8225
12.7835
13.6231
12.5824
10.64
9.82658
10.4604
9.64187
11.1097
10.1256
10.9028
9.91544
9.43795
9.43806
9.25093
9.25104
9.67203
9.67209
9.46057
9.46063
9.82693
10.6406
9.64221
10.4611
10.1258
11.1101
9.91562
10.9031
11.944
12.7668
11.7734
12.6002
12.7842
13.8236
12.5831
13.6242
12.9921
12.1783
12.8923
12.0745
14.1013
13.0672
13.9772
12.9408
10.8947
10.0925
10.7819
9.97427
11.409
10.4331
11.2753
10.2954
9.70887
9.70898
9.58819
9.5883
9.98309
9.98315
9.84359
9.84364
10.0928
10.8954
9.97462
10.7826
10.4333
11.4093
10.2956
11.2757
12.1793
12.9935
12.0755
12.8938
13.0679
14.1024
12.9415
13.9783
13.1258
12.32
13.0672
12.2577
14.2749
13.2462
14.1975
13.1663
11.0547
10.2631
10.9841
10.1874
11.6037
10.6367
11.5167
10.5455
9.88442
9.88453
9.80638
9.80649
10.1905
10.1906
10.0974
10.0975
10.2634
11.0553
10.1878
10.9847
10.6368
11.6041
10.5457
11.5171
12.321
13.1272
12.2587
13.0686
13.2469
14.276
13.167
14.1986
13.1991
12.4003
13.1678
12.3658
14.3794
13.3557
14.3334
13.3074
11.1517
10.3701
11.1097
10.3233
11.7285
10.77
11.6733
10.7108
9.99597
9.99608
9.947
9.9471
10.3278
10.3278
10.2667
10.2667
10.3704
11.1523
10.3236
11.1103
10.7702
11.7289
10.711
11.6737
12.4013
13.2005
12.3667
13.1692
13.3564
14.3805
13.3081
14.3345
13.2307
12.438
13.2184
12.4229
14.4354
13.4162
14.4115
13.3904
11.2046
10.4321
11.1828
10.406
11.8035
10.8533
11.7712
10.8171
10.0623
10.0624
10.0341
10.0342
10.4148
10.4148
10.3768
10.3769
10.4324
11.2052
10.4063
11.1834
10.8534
11.8038
10.8173
11.7716
12.4389
13.232
12.4239
13.2198
13.4169
14.4364
13.391
14.4126
13.232
12.4444
13.2338
12.4439
14.4555
13.4404
14.4484
13.4315
11.2251
10.4611
11.2184
10.4503
11.8414
10.8991
11.8264
10.8804
10.0952
10.0953
10.0825
10.0826
10.4643
10.4643
10.4438
10.4439
10.4614
11.2257
10.4506
11.2189
10.8993
11.8417
10.8806
11.8268
12.4453
13.2332
12.4448
13.235
13.441
14.4565
13.4321
14.4494
13.21
12.4269
13.2229
12.4378
14.4474
13.4358
14.4538
13.4406
11.2207
10.4646
11.2256
10.4657
11.8502
10.9158
11.849
10.9109
10.1024
10.1025
10.1018
10.1019
10.4847
10.4847
10.4779
10.478
10.4649
11.2213
10.4661
11.2262
10.916
11.8506
10.9111
11.8494
12.4278
13.2112
12.4386
13.2241
13.4365
14.4484
13.4412
14.4547
13.1692
12.3902
13.1909
12.4101
14.416
13.408
14.4334
13.4238
11.1964
10.4479
11.2108
10.4587
11.8358
10.9093
11.8457
10.9153
10.0894
10.0895
10.0984
10.0985
10.4818
10.4819
10.486
10.486
10.4482
11.1969
10.459
11.2113
10.9096
11.8363
10.9155
11.8461
12.3911
13.1704
12.411
13.1921
13.4087
14.4169
13.4246
14.4344
13.1132
12.3376
13.1422
12.3651
14.3659
13.3607
14.3923
13.3859
11.1559
10.4148
11.178
10.4333
11.8023
10.8837
11.8212
10.8988
10.0598
10.0599
10.0766
10.0767
10.4598
10.4599
10.4731
10.4732
10.4151
11.1564
10.4336
11.1785
10.8839
11.8028
10.8991
11.8218
12.3385
13.1144
12.3661
13.1436
13.362
14.3678
13.387
14.3937
13.0449
12.2725
13.0794
12.3058
14.301
13.299
14.3335
13.3302
11.1021
10.368
11.1304
10.3931
11.7534
10.8423
11.7795
10.865
10.0163
10.0164
10.0398
10.0399
10.4219
10.4219
10.4429
10.4429
10.3682
11.1024
10.3933
11.1309
10.8424
11.7534
10.865
11.7797
12.2731
13.0456
12.3065
13.0804
13.2983
14.3004
13.3305
14.3346
12.9666
12.1964
13.0066
12.2354
14.226
13.2255
14.2644
13.2633
11.0369
10.3096
11.0709
10.3403
11.6917
10.7875
11.7242
10.8167
9.96113
9.9612
9.99027
9.99034
10.3704
10.3704
10.3979
10.3979
10.3098
11.0373
10.3405
11.0712
10.7875
11.6916
10.8167
11.724
12.1969
12.9674
12.2359
13.0073
13.2258
14.2263
13.2629
14.2635
12.8772
12.1099
12.9216
12.1532
14.1386
13.1402
14.1822
13.1831
10.9613
10.2407
11.0002
10.2765
11.6177
10.7205
11.656
10.7556
9.89538
9.89546
9.92964
9.92971
10.3067
10.3067
10.3401
10.3402
10.2409
10.9616
10.2767
11.0006
10.7205
11.6176
10.7556
11.6559
12.1105
12.878
12.1538
12.9224
13.1394
14.1378
13.1829
14.1826
12.78
12.0148
12.8291
12.0628
14.0417
13.0443
14.0911
13.0931
10.8767
10.1623
10.9201
10.2028
11.5329
10.6424
11.5766
10.6829
9.82008
9.82016
9.85902
9.8591
10.2318
10.2318
10.2707
10.2707
10.1626
10.8771
10.203
10.9204
10.6424
11.5328
10.683
11.5766
12.0154
12.7808
12.0633
12.8299
13.0446
14.0421
13.0927
14.0901
12.6755
11.9123
12.7277
11.964
13.9328
12.9377
13.9873
12.9913
10.7832
10.075
10.831
10.1199
11.4373
10.5536
11.4864
10.5994
9.73569
9.73576
9.77914
9.77921
10.1462
10.1462
10.1904
10.1904
10.0752
10.7836
10.1201
10.8314
10.5536
11.4371
10.5994
11.4862
11.9128
12.6761
11.9646
12.7285
12.9366
13.9317
12.9909
13.9876
12.5609
11.7999
12.6189
11.8566
13.8136
12.8199
13.8741
12.8796
10.6809
9.97873
10.7332
10.0281
11.3311
10.4544
11.3856
10.5054
9.64233
9.64239
9.69026
9.69032
10.0502
10.0502
10.0996
10.0996
9.9789
10.6812
10.0283
10.7335
10.4543
11.331
10.5054
11.3854
11.8004
12.5615
11.8571
12.6195
12.8201
13.8138
12.879
13.8729
12.4376
11.6791
12.4994
11.7401
13.6819
12.6914
13.748
12.7562
10.5693
9.87326
10.6263
9.92726
11.214
10.3444
11.2739
10.4008
9.53985
9.53991
9.59237
9.59242
9.94357
9.94359
9.99835
9.99835
9.87345
10.5696
9.92743
10.6265
10.3444
11.214
10.4008
11.2738
11.6796
12.4381
11.7406
12.5
12.6906
13.6812
12.7559
13.7484
12.3022
11.5472
12.3709
11.6139
13.537
12.5498
13.6106
12.6215
10.4479
9.7583
10.5098
9.81709
11.0854
10.2233
11.1511
10.2854
9.42798
9.42805
9.48523
9.4853
9.82608
9.82613
9.88634
9.88637
9.75852
10.4483
9.81729
10.5102
10.2235
11.0856
10.2855
11.1513
11.5478
12.3032
11.6144
12.3716
12.5509
13.5382
12.6217
13.6102
12.1565
11.4055
12.2298
11.4771
13.3782
12.3965
13.4579
12.4738
10.3163
9.63344
10.3834
9.69722
10.9448
10.0909
11.0166
10.1587
9.30639
9.30646
9.36854
9.36861
9.69735
9.69742
9.76327
9.76332
9.63368
10.3167
9.69745
10.3838
10.091
10.9451
10.1588
11.0168
11.4061
12.1572
11.4777
12.2306
12.396
13.3778
12.4741
13.4591
11.9972
11.2517
12.078
11.3294
13.2052
12.2294
13.2932
12.3139
10.1741
9.49835
10.2466
9.56729
10.7922
9.94665
10.87
10.0203
9.17473
9.17481
9.24194
9.24202
9.55712
9.55719
9.62881
9.62887
9.4986
10.1746
9.56753
10.247
9.94685
10.7925
10.0205
10.8703
11.2524
11.9982
11.3301
12.0789
12.2305
13.2064
12.3142
13.2926
11.8261
11.0871
11.9124
11.1704
13.0174
12.0493
13.1127
12.1408
10.0209
9.35262
10.0989
9.42694
10.6267
9.79028
10.7111
9.87014
9.03267
9.03274
9.10514
9.10521
9.40505
9.4051
9.48273
9.48279
9.35284
10.0212
9.42718
10.0994
9.79046
10.627
9.87034
10.7115
11.0877
11.8269
11.1711
11.9133
12.0497
13.0178
12.1414
13.1138
11.6395
10.9089
11.7342
10.999
12.8118
11.8539
12.9158
11.9525
9.85601
9.19588
9.93987
9.27573
10.4477
9.62121
10.5388
9.70743
8.87983
8.87987
8.95771
8.95777
9.24063
9.24063
9.32451
9.32454
9.196
9.85625
9.2759
9.94018
9.6212
10.4476
9.70752
10.539
10.9093
11.6401
10.9994
11.7349
11.8542
12.8123
11.9531
12.9162
11.4406
10.7197
11.5408
10.8153
12.5905
11.645
12.7017
11.7502
9.67957
9.02793
9.76926
9.11341
10.2553
9.43927
10.3531
9.53194
8.716
8.71603
8.79941
8.79944
9.06363
9.0636
9.15382
9.1538
9.02799
9.67964
9.11349
9.7694
9.43914
10.2549
9.53186
10.3529
10.7198
11.4407
10.8156
11.5412
11.6438
12.5892
11.75
12.7021
11.2257
10.5165
11.3347
10.6192
12.3516
11.4202
12.4728
11.5338
9.49109
8.8485
9.58683
8.93974
10.0491
9.2442
10.1539
9.34348
8.54094
8.54097
8.62999
8.63001
8.8738
8.87376
8.97044
8.9704
8.84855
9.49117
8.93979
9.58689
9.24405
10.0487
9.34333
10.1535
10.5166
11.2259
10.6193
11.3349
11.4201
12.3513
11.5332
12.4713
10.9974
10.3017
11.1124
10.41
12.096
11.1814
12.225
11.3021
9.29063
8.65742
9.39236
8.75451
9.829
9.03574
9.94082
9.14175
8.35445
8.35448
8.44923
8.44925
8.67088
8.67086
8.77408
8.77405
8.6575
9.29071
8.75457
9.39243
9.03563
9.82859
9.14159
9.94033
10.3018
10.9975
10.4101
11.1125
11.1799
12.0942
11.3011
12.2244
10.7548
10.0736
10.8773
10.1887
11.823
10.9275
11.9607
11.0555
9.07788
8.4545
9.1858
8.55754
9.5949
8.81377
9.71364
8.92653
8.15633
8.15637
8.25694
8.25698
8.45469
8.4547
8.56455
8.56454
8.45463
9.07809
8.55763
9.18594
8.81379
9.59487
8.92648
9.71339
10.0739
10.7553
10.1889
10.8775
10.9274
11.8226
11.0544
11.9589
10.4962
9.83136
10.627
9.95379
11.533
10.6582
11.6796
10.7943
8.85225
8.2394
8.96671
8.34857
9.34619
8.57788
9.47247
8.69769
7.94634
7.94639
8.05291
8.05296
8.22493
8.22495
8.34162
8.34164
8.23954
8.8525
8.3487
8.96695
8.57795
9.34633
8.69774
9.47254
9.83177
10.4968
9.95418
10.6276
10.6584
11.5334
10.7945
11.6799
10.221
9.57465
10.36
9.70425
11.2212
10.3702
11.379
10.5158
8.61351
8.01202
8.73448
8.1273
9.08169
8.3276
9.21587
8.4546
7.72444
7.72448
7.83695
7.83699
7.98135
7.98138
8.10495
8.10497
8.01215
8.61376
8.12743
8.73473
8.32767
9.08185
8.45468
9.21603
9.57506
10.2216
9.70466
10.3606
10.3705
11.2217
10.516
11.3795
9.93131
9.30483
10.0773
9.44078
10.8902
10.0657
11.0571
10.2192
8.36241
7.77276
8.48945
7.89391
8.80227
8.06333
8.94376
8.19724
7.49091
7.49095
7.60918
7.60922
7.72422
7.72424
7.85454
7.85456
7.77288
8.36264
7.89403
8.48968
8.0634
8.80242
8.19731
8.94391
9.30522
9.93188
9.44118
10.0778
10.066
10.8906
10.2195
11.0576
9.6291
9.02348
9.7811
9.16504
10.5433
9.7468
10.7179
9.90735
8.09989
7.52221
8.23253
7.64893
8.50908
7.78572
8.65732
7.92622
7.24616
7.24619
7.36999
7.37002
7.45395
7.45397
7.59078
7.5908
7.52232
8.10011
7.64905
8.23275
7.78578
8.50921
7.92629
8.65746
9.02385
9.62965
9.16541
9.78165
9.74706
10.5437
9.90761
10.7183
9.31622
8.73179
9.47335
8.8784
10.1828
9.41496
10.364
9.58182
7.82666
7.26077
7.96458
7.3929
8.20293
7.49521
8.35758
7.64213
6.99045
6.99048
7.11974
7.11977
7.17082
7.17084
7.31407
7.31408
7.26088
7.82687
7.39301
7.96479
7.49526
8.20305
7.64219
8.3577
8.73214
9.31674
8.87876
9.47388
9.41521
10.1832
9.58207
10.3644
8.99408
8.43059
9.15572
8.58189
9.81
9.07105
9.99717
9.24389
7.54307
6.98851
7.68616
7.12607
7.88413
7.19178
8.04511
7.34519
6.72372
6.72375
6.85855
6.85858
6.87468
6.87469
7.02447
7.02449
6.98861
7.54327
7.12617
7.68636
7.19184
7.88425
7.34525
8.04522
8.43093
8.99458
8.58223
9.15622
9.07128
9.81038
9.24413
9.99756
8.66343
8.12011
8.82929
8.27609
9.42579
8.71512
9.61868
8.89405
7.2488
6.70483
7.39733
6.84823
7.5522
6.87472
7.71988
7.0351
6.4453
6.44533
6.58612
6.58615
6.56471
6.56473
6.72158
6.7216
6.70493
7.24898
6.84832
7.39752
6.87477
7.55231
7.03515
7.71999
8.12043
8.6639
8.27642
8.82978
8.71534
9.42615
8.89427
9.61904
8.32365
7.79912
8.49427
7.96064
9.02917
8.34546
9.22855
8.53164
6.94218
6.40803
7.09721
6.55829
7.20505
6.54194
7.38075
6.71055
6.15352
6.15354
6.30128
6.30131
6.23895
6.23897
6.40405
6.40406
6.40812
6.94235
6.55838
7.09739
6.54198
7.20515
6.7106
7.38085
7.79942
8.3241
7.96095
8.49474
8.34566
9.02951
8.53185
9.2289
7.97221
7.46328
8.14912
7.63312
8.61596
7.95604
8.82446
8.15335
6.61858
6.09444
6.783
6.25372
6.83678
6.18886
7.02418
6.36841
5.84553
5.84556
6.00181
6.00184
5.89385
5.89386
6.06915
6.06916
6.09453
6.61875
6.2538
6.78317
6.1889
6.83687
6.36845
7.02428
7.46357
7.97264
7.63342
8.14956
7.95623
8.61627
8.15355
8.82479
7.60773
7.09702
7.79062
7.28557
8.17906
7.52478
8.39999
7.74799
6.26532
5.75776
6.44703
5.92948
6.43063
5.80695
6.64027
6.00222
5.51876
5.51878
5.68454
5.68457
5.52539
5.5254
5.7127
5.71271
5.75784
6.26547
5.92956
6.44719
5.80698
6.43071
6.00226
6.64036
7.09729
7.60813
7.28585
7.79104
7.52495
8.17936
7.74817
8.4003
7.25892
6.61299
7.42812
6.88396
7.73811
6.93316
7.956
7.26793
5.85185
5.39564
6.06858
5.57915
5.94422
5.38994
6.20107
5.60229
5.17968
5.1797
5.34946
5.34948
5.13865
5.13865
5.33306
5.33307
5.39571
5.85199
5.57922
6.06872
5.38997
5.94429
5.60233
6.20115
6.61323
7.2593
6.88422
7.42851
6.93331
7.73838
7.26809
7.95629
10.1272
9.52423
9.48762
8.94096
10.2439
9.56037
9.48639
8.8784
8.58538
7.97773
7.98476
7.37693
8.47562
7.78413
7.78808
7.10651
7.68071
7.68086
7.08382
7.08395
7.44971
7.44984
6.78163
6.78173
7.9782
8.58622
7.37736
7.98551
7.78452
8.47634
7.10684
7.78871
9.5255
10.1288
8.94212
9.48913
9.56152
10.2454
8.87942
9.48778
11.0115
10.4076
10.6253
10.0194
11.2671
10.5708
10.8266
10.1318
9.47288
8.86676
9.07895
8.47025
9.47484
8.77408
9.03537
8.33591
8.56951
8.56968
8.17213
8.1723
8.43385
8.43399
7.99684
7.99698
8.86728
9.47379
8.47076
9.07984
8.77453
9.47564
8.33634
9.03615
10.4089
11.0132
10.0207
10.627
10.572
11.2688
10.133
10.8282
11.5364
10.9419
11.3075
10.7081
11.8516
11.1616
11.5986
10.9048
10.0272
9.43237
9.78319
9.18231
10.0815
9.38881
9.81598
9.11836
9.14014
9.14031
8.88728
8.88745
9.05177
9.05192
8.7792
8.77935
9.43289
10.0281
9.18283
9.7841
9.38926
10.0823
9.11881
9.81679
10.9432
11.5381
10.7095
11.3093
11.1629
11.8532
10.906
11.6003
11.8442
11.2608
11.71
11.1212
12.1896
11.5098
12.0423
11.3575
10.3682
9.78683
10.2182
9.63028
10.4509
9.77051
10.2885
9.60195
9.50089
9.50105
9.34121
9.34138
9.43908
9.43922
9.26766
9.26781
9.78734
10.3691
9.6308
10.2191
9.77096
10.4517
9.6024
10.2893
11.262
11.8458
11.1225
11.7117
11.511
12.1912
11.3587
12.044
12.0219
11.4488
11.9449
11.3669
12.3867
11.7168
12.3008
11.6261
10.5768
10.0083
10.4854
9.91073
10.6785
10.0105
10.5783
9.90441
9.72838
9.72854
9.62793
9.62809
9.68488
9.68502
9.57594
9.57609
10.0087
10.5777
9.91124
10.4863
10.011
10.6793
9.90485
10.5791
11.45
12.0235
11.3682
11.9465
11.7179
12.3883
11.6273
12.3023
12.1186
11.5545
12.0775
11.5093
12.4978
11.8367
12.4499
11.7847
10.7009
10.1438
10.6473
10.0848
10.8172
10.1606
10.7567
10.0947
9.86944
9.8696
9.80775
9.80791
9.84036
9.8405
9.77184
9.77198
10.1443
10.7017
10.0853
10.6481
10.1611
10.8179
10.0951
10.7574
11.5557
12.1201
11.5105
12.0791
11.8378
12.4993
11.7859
12.4514
12.1624
11.606
12.1452
11.5853
12.5532
11.8997
12.5304
11.8735
10.7687
10.2218
10.7406
10.1889
10.897
10.2507
10.8631
10.212
9.95234
9.95249
9.91703
9.91719
9.9353
9.93543
9.89424
9.89437
10.2223
10.7695
10.1893
10.7414
10.2511
10.8977
10.2124
10.8638
11.6072
12.1639
11.5865
12.1467
11.9008
12.5546
11.8746
12.5319
12.17
11.6203
12.1693
11.6165
12.5703
11.9234
12.565
11.9151
10.7974
10.2596
10.7871
10.245
10.9357
10.2987
10.9206
10.2792
9.99448
9.99462
9.97784
9.97799
9.98772
9.98785
9.96615
9.96628
10.26
10.7981
10.2455
10.7879
10.2991
10.9364
10.2796
10.9213
11.6214
12.1714
11.6177
12.1708
11.9244
12.5717
11.9161
12.5664
12.1521
11.6079
12.1632
11.6165
12.5601
11.9188
12.5674
11.9235
10.7978
10.2681
10.8006
10.2671
10.9445
10.316
10.9433
10.3108
10.0069
10.0071
10.004
10.0042
10.009
10.0091
10.0019
10.002
10.2685
10.7985
10.2675
10.8013
10.3163
10.9452
10.3111
10.9439
11.609
12.1535
11.6175
12.1646
11.9198
12.5615
11.9245
12.5688
12.1148
11.5754
12.1349
11.5933
12.5291
11.8925
12.5462
11.9075
10.7769
10.2546
10.7897
10.2639
10.9307
10.3099
10.9401
10.3156
9.9971
9.99723
10.0046
10.0048
10.0067
10.0068
10.0106
10.0107
10.255
10.7776
10.2643
10.7904
10.3103
10.9314
10.316
10.9408
11.5764
12.1161
11.5944
12.1363
11.8935
12.5304
11.9085
12.5475
12.0626
11.5272
12.0898
11.5526
12.4818
11.8493
12.5066
11.8723
10.7393
10.2239
10.76
10.2413
10.899
10.2855
10.9169
10.2999
9.96964
9.96977
9.98545
9.98558
9.9857
9.98582
9.99844
9.99855
10.2243
10.74
10.2417
10.7606
10.2858
10.8996
10.3002
10.9175
11.5282
12.0639
11.5536
12.0911
11.8503
12.4831
11.8733
12.5079
11.9984
11.4664
12.0313
11.4978
12.4213
11.7924
12.4524
11.8219
10.6884
10.1793
10.7154
10.2032
10.8528
10.2461
10.8775
10.2676
9.92811
9.92823
9.9506
9.95072
9.94961
9.94972
9.9695
9.96962
10.1796
10.689
10.2036
10.716
10.2464
10.8534
10.2679
10.8782
11.4673
11.9996
11.4987
12.0325
11.7933
12.4225
11.8228
12.4537
11.9243
11.3953
11.9619
11.4316
12.35
11.7241
12.3862
11.759
10.6264
10.1232
10.6587
10.1527
10.7947
10.1944
10.8251
10.2217
9.87494
9.87505
9.90299
9.90311
9.90101
9.90112
9.92688
9.92699
10.1236
10.6271
10.153
10.6593
10.1947
10.7952
10.2221
10.8257
11.3962
11.9255
11.4325
11.9631
11.725
12.3511
11.7598
12.3873
11.8416
11.3152
11.8834
11.3559
12.2694
11.6461
12.3102
11.6858
10.555
10.0573
10.5918
10.0915
10.7263
10.1321
10.7617
10.1646
9.8118
9.81191
9.84465
9.84477
9.8417
9.8418
9.87275
9.87285
10.0577
10.5556
10.0919
10.5924
10.1324
10.7268
10.1649
10.7622
11.3161
11.8428
11.3568
11.8846
11.6468
12.2704
11.6866
12.3114
11.751
11.227
11.7967
11.2716
12.1797
11.5587
12.225
11.603
10.475
9.98272
10.516
10.0212
10.6484
10.0603
10.6884
10.0974
9.73983
9.73995
9.77698
9.7771
9.77286
9.77297
9.80854
9.80864
9.9831
10.4756
10.0215
10.5166
10.0606
10.649
10.0977
10.689