/*--------------------------------*- C++ -*----------------------------------*\
  =========                 |
  \\      /  F ield         | OpenFOAM: The Open Source CFD Toolbox
   \\    /   O peration     | Website:  https://openfoam.org
    \\  /    A nd           | Version:  9
     \\/     M anipulation  |
\*---------------------------------------------------------------------------*/
FoamFile
{
    format      ascii;
    class       volScalarField;
    location    "4.7";
    object      k;
}
// * * * * * * * * * * * * * * * * * * * * * * * * * * * * * * * * * * * * * //

dimensions      [0 2 -2 0 0 0 0];

internalField   nonuniform List<scalar> 
36360
(
1.81658
1.74054
1.58678
1.55343
0.765427
0.741865
0.56853
0.630219
1.55985
1.45906
1.37931
1.2811
0.669524
0.629478
0.552433
0.508021
1.41392
1.41391
1.23737
1.23736
0.61186
0.611852
0.489722
0.489714
1.45902
1.5598
1.28106
1.37925
0.629455
0.669488
0.507998
0.552396
1.74048
1.81652
1.55336
1.5867
0.741818
0.765369
0.630168
0.56847
2.02053
1.9369
1.94119
1.85822
0.871549
0.833822
0.833658
0.797602
1.75293
1.65069
1.67394
1.5716
0.759026
0.719052
0.723135
0.683213
1.60483
1.60482
1.52579
1.52578
0.701421
0.701415
0.665595
0.665588
1.65066
1.75289
1.57157
1.67389
0.719033
0.758996
0.683192
0.723103
1.93686
2.02049
1.85817
1.94113
0.833782
0.871501
0.797559
0.833605
2.12248
2.03879
2.07808
1.99438
0.919164
0.880593
0.898392
0.860126
1.85679
1.75602
1.8114
1.70986
0.806328
0.766857
0.785596
0.745831
1.71082
1.71081
1.66427
1.66426
0.74944
0.749434
0.728282
0.728276
1.756
1.85676
1.70983
1.81136
0.766841
0.806302
0.745814
0.785568
2.03875
2.12245
1.99434
2.07804
0.880559
0.919123
0.860089
0.898347
2.18553
2.1022
2.15732
2.07378
0.948975
0.910227
0.935597
0.896879
1.92223
1.82293
1.89288
1.7929
0.836501
0.797602
0.822917
0.78375
1.77852
1.77852
1.74811
1.7481
0.780469
0.780464
0.766478
0.766473
1.82291
1.9222
1.79288
1.89285
0.797587
0.836478
0.783734
0.822892
2.10217
2.1855
2.07375
2.15729
0.910197
0.948938
0.896847
0.935557
2.22726
2.14438
2.20835
2.12525
0.968958
0.930302
0.95988
0.921156
1.96618
1.86811
1.94626
1.84762
0.857084
0.818615
0.847721
0.809049
1.82438
1.82437
1.80358
1.80357
0.801725
0.801721
0.792043
0.792039
1.8681
1.96616
1.8476
1.94624
0.818602
0.857063
0.809035
0.847699
2.14436
2.22724
2.12522
2.20832
0.930275
0.968925
0.921127
0.959844
2.25558
2.17312
2.24269
2.16003
0.982712
0.944223
0.976433
0.937853
1.99646
1.8994
1.98269
1.88516
0.871433
0.833338
0.864879
0.82661
1.8562
1.85619
1.84172
1.84171
0.81666
0.816656
0.809835
0.809831
1.89939
1.99644
1.88515
1.98267
0.833326
0.871414
0.826598
0.864859
2.1731
2.25557
2.16001
2.24267
0.944199
0.982681
0.937827
0.9764
2.27472
2.19261
2.26604
2.18376
0.992135
0.953855
0.987851
0.949456
2.0173
1.9211
2.00785
1.91126
0.881457
0.843689
0.876888
0.838968
1.87832
1.87832
1.86828
1.86827
0.827179
0.827175
0.82238
0.822376
1.92109
2.01728
1.91124
2.00783
0.843678
0.88144
0.838956
0.87687
2.19259
2.27471
2.18374
2.26602
0.953833
0.992111
0.949433
0.987823
2.28722
2.20537
2.28159
2.19963
0.998435
0.960351
0.99558
0.957402
2.03125
1.9358
2.02499
1.9292
0.888315
0.850834
0.885214
0.8476
1.89338
1.89338
1.88661
1.88661
0.834468
0.834465
0.831166
0.831162
1.93579
2.03124
1.92919
2.02498
0.850824
0.888299
0.847589
0.885198
2.20535
2.2872
2.19961
2.28158
0.960328
0.998399
0.957381
0.995559
2.29471
2.213
2.29143
2.20967
1.0024
0.964461
1.00065
0.962635
2.03998
1.94519
2.03617
1.94108
0.892761
0.855538
0.890791
0.853448
1.90309
1.90308
1.89882
1.89882
0.839304
0.839301
0.837151
0.837147
1.94518
2.03996
1.94107
2.03615
0.855528
0.892744
0.853438
0.890774
2.21298
2.29469
2.20965
2.29141
0.964435
1.00236
0.962608
1.0006
2.2982
2.2165
2.29686
2.21517
1.00452
0.966654
1.00364
0.965747
2.04454
1.95039
2.04271
1.94826
0.895293
0.858315
0.894232
0.857137
1.90858
1.90857
1.9063
1.9063
0.842209
0.842206
0.840968
0.840964
1.95038
2.04453
1.94825
2.0427
0.858306
0.895279
0.857127
0.894216
2.21649
2.29817
2.21514
2.29682
0.966632
1.00446
0.965724
1.0036
2.29828
2.21661
2.29853
2.21685
1.00503
0.967238
1.00493
0.967097
2.0457
1.95218
2.04549
1.95167
0.896257
0.859528
0.895942
0.859093
1.91065
1.91065
1.91
1.91
0.843549
0.843546
0.843051
0.843049
1.95218
2.0457
1.95166
2.04548
0.859521
0.896249
0.859085
0.895929
2.21649
2.29814
2.21677
2.29844
0.967228
1.00498
0.967072
1.00486
2.29575
2.21404
2.29721
2.21553
1.00432
0.9666
1.00478
0.967017
2.04415
1.95121
2.04521
1.952
0.895973
0.859463
0.896235
0.859625
1.90995
1.90994
1.91061
1.91061
0.843601
0.843598
0.843709
0.843706
1.95121
2.04418
1.95201
2.04526
0.859457
0.895971
0.85962
0.896237
2.21419
2.29592
2.2156
2.29725
0.966635
1.00438
0.96706
1.00482
2.29141
2.20951
2.29373
2.21196
1.00269
0.965001
1.00361
0.965903
2.04032
1.94785
2.04249
1.9498
0.8946
0.858288
0.895404
0.859006
1.9068
1.90679
1.90865
1.90865
0.842542
0.842537
0.843208
0.843204
1.94781
2.04025
1.94978
2.04246
0.858273
0.894565
0.858994
0.895381
2.2094
2.29131
2.21197
2.29379
0.964925
1.0026
0.965859
1.00355
2.28496
2.20282
2.28835
2.20631
1.00008
0.962392
1.00147
0.963776
2.03442
1.9424
2.0376
1.94537
0.892268
0.856148
0.893537
0.857327
1.90157
1.90156
1.90444
1.90443
0.840509
0.840505
0.841636
0.841632
1.94237
2.03433
1.94533
2.03752
0.856133
0.892235
0.857312
0.893502
2.20264
2.28476
2.20618
2.2882
0.962315
1.00001
0.963697
1.0014
2.27676
2.1944
2.28096
2.19873
0.996583
0.958922
0.998391
0.960721
2.02662
1.93506
2.03072
1.93895
0.889081
0.853133
0.890765
0.85474
1.89445
1.89444
1.89824
1.89823
0.837596
0.837593
0.839155
0.839151
1.93503
2.02655
1.93892
2.03064
0.853123
0.889058
0.854728
0.890738
2.19421
2.27655
2.19855
2.28076
0.958864
0.996538
0.960657
0.998345
2.26695
2.18424
2.27202
2.18948
0.992304
0.954619
0.99452
0.956838
2.0171
1.92597
2.02206
1.93073
0.885081
0.849304
0.88717
0.851313
1.88556
1.88556
1.89022
1.89021
0.833863
0.83386
0.835826
0.835823
1.92594
2.01703
1.9307
2.02199
0.849294
0.885055
0.851303
0.887147
2.1841
2.26674
2.18927
2.27174
0.954549
0.992246
0.956775
0.994472
2.2552
2.17226
2.26121
2.17837
0.987239
0.949534
0.989833
0.952142
2.00589
1.9152
2.01169
1.92079
0.880298
0.844696
0.882776
0.847092
1.875
1.87499
1.88049
1.88048
0.829342
0.829339
0.831697
0.831694
1.91517
2.00582
1.92076
2.01161
0.844685
0.88027
0.847082
0.88275
2.17213
2.25507
2.17824
2.26105
0.949466
0.98719
0.95207
0.989773
2.24204
2.15878
2.24869
2.16564
0.981404
0.943617
0.984387
0.946642
1.99302
1.90276
1.99965
1.90919
0.874722
0.839314
0.877599
0.842098
1.86277
1.86276
1.86909
1.86908
0.824041
0.824038
0.826786
0.826783
1.90274
1.99296
1.90916
1.99958
0.839302
0.874691
0.842086
0.877568
2.15866
2.24192
2.16552
2.24858
0.943548
0.981334
0.946568
0.984318
2.22686
2.1434
2.23466
2.15124
0.974737
0.936918
0.978163
0.940349
1.97846
1.88864
1.98594
1.89592
0.868347
0.833146
0.871629
0.836326
1.84887
1.84886
1.85603
1.85603
0.817946
0.817944
0.821092
0.821089
1.88863
1.97842
1.8959
1.98589
0.833139
0.868332
0.836317
0.871605
2.14331
2.2268
2.15112
2.23454
0.936883
0.974692
0.940291
0.9781
2.20994
2.12629
2.21852
2.135
0.967109
0.929276
0.971005
0.933171
1.96207
1.87276
1.97048
1.88092
0.861148
0.826159
0.864844
0.829753
1.83323
1.83323
1.84127
1.84127
0.811028
0.811027
0.814589
0.814588
1.87276
1.96207
1.88092
1.97047
0.826156
0.861141
0.829749
0.864836
2.12617
2.2098
2.13491
2.21846
0.929269
0.967128
0.933165
0.971011
2.19061
2.10706
2.20044
2.11675
0.958614
0.920752
0.962963
0.925096
1.94384
1.85506
1.95317
1.86414
0.853079
0.81832
0.857215
0.822345
1.81579
1.81579
1.82474
1.82474
0.803248
0.803247
0.807245
0.807245
1.85505
1.9438
1.86413
1.95314
0.818317
0.853068
0.822341
0.857204
2.10699
2.19062
2.1167
2.20036
0.920715
0.95861
0.925061
0.962946
2.16982
2.08628
2.18045
2.09692
0.949145
0.911274
0.953971
0.916101
1.92372
1.83547
1.93402
1.84551
0.844103
0.809587
0.848697
0.814064
1.79645
1.79645
1.80636
1.80636
0.794574
0.794574
0.799012
0.799012
1.83546
1.9237
1.8455
1.93399
0.809585
0.844096
0.814062
0.848689
2.08614
2.16971
2.09675
2.18035
0.911253
0.949143
0.916076
0.953967
2.14647
2.06327
2.1583
2.0749
0.93867
0.900802
0.944014
0.906142
1.90155
1.81385
1.91288
1.82492
0.834173
0.799899
0.839255
0.804861
1.77512
1.77512
1.78604
1.78604
0.785002
0.785002
0.789906
0.789906
1.81385
1.90154
1.82491
1.91286
0.799899
0.834175
0.804861
0.839253
2.06318
2.14638
2.07476
2.15818
0.90081
0.938702
0.906132
0.944043
2.12109
2.03813
2.13408
2.05098
0.927193
0.889274
0.933027
0.895143
1.87727
1.79015
1.88967
1.80227
0.823237
0.789222
0.828824
0.794682
1.7517
1.7517
1.76367
1.76367
0.774446
0.774443
0.779846
0.779845
1.79014
1.87724
1.80226
1.88965
0.789213
0.823214
0.794678
0.828817
2.03806
2.121
2.05089
2.13397
0.889222
0.927148
0.895129
0.933017
2.09284
2.01052
2.10718
2.02449
0.914537
0.876605
0.92097
0.88303
1.85078
1.76431
1.86428
1.7775
0.811259
0.777524
0.817368
0.783499
1.72616
1.72615
1.7392
1.73919
0.762874
0.76287
0.768786
0.768783
1.76427
1.8507
1.77747
1.86423
0.777509
0.811222
0.783486
0.817339
2.01038
2.0927
2.02447
2.10719
0.876519
0.914448
0.882973
0.920934
2.06224
1.98084
2.0777
1.99582
0.900766
0.862848
0.907776
0.869829
1.82209
1.73624
1.8367
1.75055
0.798226
0.764772
0.804869
0.771279
1.69841
1.6984
1.71256
1.71255
0.750251
0.750247
0.756694
0.75669
1.7362
1.82197
1.75051
1.8366
0.764755
0.79818
0.771263
0.804829
1.98062
2.06199
1.9957
2.07752
0.862735
0.90063
0.869733
0.907633
2.02925
1.94888
2.046
1.9651
0.885797
0.847903
0.893413
0.855515
1.79102
1.70587
1.80686
1.72135
0.784044
0.750914
0.791279
0.757981
1.66837
1.66836
1.68368
1.68367
0.736535
0.736531
0.743529
0.743525
1.70582
1.79087
1.7213
1.80671
0.750899
0.783997
0.757964
0.791228
1.94852
2.02879
1.96474
2.04559
0.84776
0.885627
0.855365
0.893253
1.99333
1.91429
2.01154
1.93179
0.869554
0.831744
0.877785
0.839918
1.75753
1.67313
1.77455
1.68979
0.768713
0.735923
0.776509
0.743557
1.63598
1.63598
1.65248
1.65247
0.721692
0.721689
0.729253
0.72925
1.6731
1.75747
1.68976
1.77445
0.735915
0.768694
0.743546
0.776476
1.91414
1.99313
1.93151
2.01119
0.831702
0.869495
0.839824
0.877673
1.95471
1.87719
1.97434
1.89603
0.852078
0.814373
0.860973
0.823205
1.72158
1.63793
1.73987
1.65584
0.752209
0.719764
0.760609
0.72799
1.60116
1.60116
1.61888
1.61888
0.705685
0.705684
0.713834
0.713832
1.63792
1.72156
1.65583
1.73983
0.71976
0.7522
0.727985
0.760597
1.87716
1.95465
1.89593
1.97421
0.814357
0.852055
0.823176
0.860934
1.91287
1.83717
1.93412
1.85746
0.833146
0.795576
0.84277
0.805121
1.68294
1.60018
1.70258
1.61938
0.73444
0.702389
0.743477
0.711227
1.56382
1.56382
1.5828
1.5828
0.688479
0.688477
0.69723
0.697229
1.60017
1.68293
1.61937
1.70257
0.702385
0.734434
0.711223
0.74347
1.83716
1.91286
1.85745
1.9341
0.795567
0.833134
0.80511
0.842755
1.86801
1.79438
1.89073
1.81603
0.812835
0.775433
0.823136
0.785641
1.64166
1.55984
1.66262
1.58033
0.715414
0.683787
0.725076
0.693239
1.52393
1.52392
1.54419
1.54419
0.670055
0.670054
0.679417
0.679416
1.55984
1.64166
1.58032
1.66261
0.683783
0.715408
0.693235
0.72507
1.79437
1.868
1.81603
1.89072
0.775424
0.812824
0.785632
0.823124
1.82033
1.74895
1.84444
1.77192
0.791227
0.754028
0.802171
0.764861
1.59779
1.51693
1.62004
1.53871
0.695151
0.663955
0.705431
0.674023
1.48146
1.48146
1.50302
1.50301
0.650402
0.650401
0.660381
0.66038
1.51692
1.59778
1.5387
1.62003
0.663951
0.695144
0.674019
0.705424
1.74895
1.82032
1.77191
1.84444
0.754019
0.791216
0.764852
0.802159
1.76994
1.70092
1.79541
1.72519
0.768345
0.731356
0.779926
0.742826
1.55129
1.47138
1.57486
1.49448
0.673638
0.642869
0.684547
0.653568
1.43635
1.43634
1.45924
1.45923
0.62949
0.629489
0.640103
0.640102
1.47137
1.55128
1.49448
1.57485
0.642865
0.673632
0.653564
0.68454
1.70091
1.76993
1.72518
1.7954
0.731347
0.768334
0.742817
0.779915
1.71684
1.65023
1.74367
1.67584
0.744177
0.707398
0.756404
0.719514
1.50208
1.42308
1.52702
1.44758
0.650841
0.620485
0.662398
0.63184
1.38847
1.38847
1.41276
1.41276
0.607271
0.607269
0.618546
0.618544
1.42308
1.50207
1.44757
1.52701
0.620481
0.650834
0.631836
0.662391
1.65022
1.71684
1.67583
1.74366
0.707389
0.744165
0.719505
0.756393
1.66097
1.59675
1.6892
1.62378
0.718667
0.682116
0.731577
0.694903
1.45
1.37184
1.47641
1.39785
0.62669
0.596721
0.638935
0.60878
1.33762
1.33762
1.36344
1.36343
0.583656
0.583655
0.595643
0.595641
1.37184
1.44999
1.39784
1.4764
0.596716
0.626683
0.608775
0.638929
1.59674
1.66096
1.62377
1.68919
0.682107
0.718656
0.694894
0.731566
1.60201
1.54014
1.63184
1.5688
0.691672
0.655409
0.705351
0.668927
1.39465
1.31727
1.42276
1.345
0.601047
0.571425
0.614063
0.584275
1.2834
1.28339
1.31096
1.31096
0.558493
0.558492
0.571278
0.571277
1.31726
1.39465
1.345
1.42275
0.571421
0.601041
0.584271
0.614056
1.54013
1.602
1.56879
1.63183
0.6554
0.691661
0.668918
0.70534
1.53935
1.4796
1.57114
1.51038
0.662911
0.627075
0.677517
0.641441
1.33523
1.25862
1.36553
1.28851
0.573611
0.54431
0.587579
0.558119
1.22517
1.22517
1.25483
1.25483
0.531523
0.531522
0.545252
0.545251
1.25861
1.33522
1.28851
1.36552
0.544306
0.573605
0.558114
0.587572
1.47959
1.53934
1.51037
1.57113
0.627066
0.6629
0.641432
0.677505
1.47224
1.41249
1.50628
1.44715
0.632132
0.596459
0.647748
0.61214
1.26947
1.19453
1.30338
1.22736
0.543553
0.514821
0.559001
0.529906
1.1621
1.1621
1.19428
1.19428
0.502391
0.50239
0.517244
0.517243
1.19452
1.26946
1.22736
1.30337
0.514817
0.543547
0.529902
0.558994
1.41248
1.47223
1.44714
1.50627
0.59645
0.632121
0.612131
0.647737
1.40405
1.32358
1.43776
1.37326
0.598627
0.557041
0.616086
0.57899
1.19118
1.12349
1.23245
1.15987
0.50837
0.48229
0.526845
0.49894
1.09424
1.09423
1.12865
1.12865
0.471056
0.471054
0.486955
0.486953
1.12349
1.19117
1.15986
1.23244
0.482286
0.508363
0.498936
0.526839
1.32357
1.40404
1.37325
1.43774
0.557033
0.598617
0.578981
0.616075
2.67996
2.57303
2.49195
2.40195
2.33316
2.23037
2.12731
2.04804
2.38983
2.27394
2.21589
2.10003
2.04034
1.92525
1.85904
1.74597
2.21819
2.21819
2.0451
2.04509
1.87136
1.87135
1.69366
1.69365
2.27392
2.38981
2.1
2.21586
1.92522
2.0403
1.74593
1.85899
2.57303
2.67998
2.40193
2.49195
2.23034
2.33313
2.04798
2.12725
2.91439
2.80628
2.81474
2.70612
2.56193
2.45564
2.46797
2.36167
2.62447
2.50953
2.5227
2.40687
2.26468
2.14915
2.16974
2.05377
2.45411
2.45411
2.35108
2.35107
2.09496
2.09495
1.99942
1.99941
2.50952
2.62447
2.40685
2.52269
2.14913
2.26465
2.05374
2.16971
2.8063
2.91443
2.70613
2.81477
2.45562
2.56192
2.36165
2.46795
3.05032
2.94408
2.99042
2.88326
2.68585
2.58081
2.63165
2.52597
2.76639
2.65396
2.70359
2.5899
2.39314
2.27962
2.33669
2.22214
2.59971
2.59971
2.53506
2.53505
2.22634
2.22633
2.16837
2.16836
2.65396
2.7664
2.5899
2.70359
2.27961
2.39313
2.22212
2.33667
2.94411
3.05038
2.88329
2.99046
2.5808
2.68585
2.52596
2.63164
3.13641
3.03188
3.09779
2.99247
2.76307
2.6593
2.72848
2.62412
2.85795
2.74787
2.81683
2.70565
2.47479
2.36326
2.43817
2.32571
2.69476
2.69476
2.65199
2.65199
2.31094
2.31094
2.27293
2.27292
2.74788
2.85797
2.70565
2.81684
2.36325
2.47478
2.32569
2.43816
3.03191
3.13647
2.9925
3.09785
2.6593
2.76308
2.62411
2.72849
3.19343
3.09029
3.16762
3.06385
2.81409
2.71139
2.79098
2.68779
2.91949
2.81138
2.89165
2.78262
2.52955
2.41969
2.50476
2.39413
2.75921
2.75921
2.73001
2.73001
2.36818
2.36818
2.34224
2.34223
2.81138
2.91951
2.78263
2.89166
2.41969
2.52955
2.39412
2.50475
3.09032
3.19349
3.06388
3.16768
2.71139
2.81411
2.68779
2.79099
3.23171
3.12966
3.21435
3.1118
2.84848
2.74662
2.83285
2.7306
2.96148
2.855
2.94246
2.83522
2.56703
2.45857
2.55002
2.44092
2.80362
2.80362
2.78347
2.78348
2.40774
2.40773
2.38976
2.38976
2.85501
2.96149
2.83523
2.94247
2.45856
2.56703
2.44091
2.55002
3.1297
3.23178
3.11184
3.21441
2.74663
2.8485
2.73061
2.83286
3.25707
3.15587
3.24563
3.14405
2.87145
2.77025
2.86105
2.75955
2.98989
2.8848
2.97709
2.87136
2.59258
2.4853
2.58104
2.47321
2.83409
2.83409
2.82033
2.82033
2.43503
2.43503
2.42268
2.42267
2.88481
2.98991
2.87137
2.97711
2.4853
2.59258
2.47321
2.58104
3.15591
3.25713
3.14409
3.24569
2.77026
2.87147
2.75956
2.86106
3.27301
3.17249
3.26592
3.16511
2.88613
2.78544
2.87956
2.77864
3.00841
2.90451
3.0002
2.89575
2.60943
2.50318
2.60192
2.49519
2.85437
2.85437
2.84533
2.84534
2.4534
2.4534
2.44518
2.44518
2.90452
3.00843
2.89575
3.00021
2.50318
2.60943
2.49519
2.60192
3.17253
3.27308
3.16515
3.26598
2.78545
2.88616
2.77865
2.87958
3.28183
3.18184
3.27808
3.17786
2.89453
2.79421
2.8909
2.79042
3.01942
2.91657
3.01472
2.91138
2.61968
2.51434
2.61526
2.5095
2.86693
2.86694
2.86151
2.86151
2.465
2.46499
2.45994
2.45994
2.91658
3.01944
2.91139
3.01474
2.51434
2.61968
2.50949
2.61526
3.18187
3.28189
3.17789
3.27813
2.79422
2.89455
2.79043
2.89092
3.28504
3.18545
3.28395
3.18418
2.89792
2.79789
2.89668
2.79653
3.02453
2.92262
3.02261
2.92027
2.62473
2.52022
2.62277
2.51787
2.87345
2.87345
2.87087
2.87088
2.47127
2.47127
2.46873
2.46873
2.92263
3.02455
2.92028
3.02263
2.52022
2.62473
2.51787
2.62277
3.18548
3.2851
3.18422
3.284
2.79791
2.89796
2.79654
2.8967
3.28374
3.18445
3.28478
3.18537
2.89729
2.79747
2.89794
2.79804
3.02489
2.92384
3.02523
2.92378
2.62555
2.52183
2.6256
2.52151
2.87508
2.87508
2.87482
2.87482
2.47326
2.47326
2.47275
2.47275
2.92385
3.02491
2.92379
3.02525
2.52183
2.62557
2.52151
2.6256
3.1845
3.28381
3.18541
3.28484
2.79747
2.8973
2.79806
2.89797
3.27862
3.17956
3.28153
3.18237
2.89325
2.79353
2.89559
2.79584
3.0213
2.92107
3.02354
2.92293
2.6229
2.51994
2.62462
2.52129
2.8727
2.8727
2.87437
2.87437
2.47172
2.47172
2.4729
2.4729
2.92108
3.02132
2.92294
3.02357
2.51994
2.62292
2.5213
2.62465
3.17961
3.2787
3.18242
3.2816
2.79361
2.89337
2.79588
2.89562
3.27032
3.17143
3.27469
3.17576
2.88633
2.78676
2.8899
2.79029
3.01435
2.91488
3.01819
2.91837
2.61728
2.51502
2.62039
2.51782
2.86687
2.86687
2.87019
2.87019
2.46713
2.46712
2.46978
2.46977
2.91488
3.01435
2.91838
3.0182
2.515
2.61725
2.51781
2.62039
3.17145
3.27034
3.17579
3.27474
2.78662
2.8862
2.79029
2.88997
3.25926
3.16041
3.26507
3.16621
2.87724
2.7776
2.882
2.78241
3.00448
2.90572
3.00975
2.91065
2.60915
2.50751
2.61351
2.51157
2.85806
2.85806
2.86282
2.86282
2.45992
2.45991
2.46384
2.46383
2.90572
3.00448
2.91066
3.00976
2.50749
2.60912
2.51156
2.61347
3.16043
3.2593
3.16622
3.26509
2.77763
2.87725
2.78233
2.88185
3.2455
3.14677
3.25247
3.15373
2.86585
2.7662
2.87163
2.77202
2.99193
2.89388
2.99849
2.90012
2.59866
2.49763
2.60415
2.50285
2.84655
2.84656
2.85263
2.85263
2.45034
2.45033
2.45541
2.45541
2.89389
2.99195
2.90012
2.9985
2.49762
2.59863
2.50283
2.60412
3.14679
3.24552
3.15375
3.2525
2.76604
2.86568
2.77197
2.87163
3.22946
3.13077
3.23769
3.13895
2.8525
2.75269
2.85937
2.75963
2.97701
2.8796
2.98475
2.88704
2.58606
2.48559
2.59261
2.49188
2.83259
2.83259
2.83988
2.83988
2.43857
2.43857
2.44472
2.44472
2.87961
2.97703
2.88705
2.98476
2.48558
2.58604
2.49187
2.59258
3.1308
3.22952
3.13898
3.23772
2.75272
2.85253
2.75955
2.8592
3.21143
3.11272
3.22055
3.12192
2.83703
2.73718
2.84484
2.74505
2.95981
2.863
2.96868
2.87159
2.57138
2.47147
2.57896
2.47879
2.81628
2.81629
2.82473
2.82474
2.42472
2.42472
2.4319
2.4319
2.86301
2.95984
2.87161
2.96871
2.47146
2.57136
2.47878
2.57893
3.11276
3.21147
3.12196
3.22061
2.73704
2.83688
2.74501
2.84488
3.19092
3.09224
3.2014
3.10267
2.81958
2.71958
2.8285
2.72856
2.94032
2.8441
2.95034
2.85384
2.55468
2.45531
2.56328
2.46364
2.79768
2.79768
2.80727
2.80728
2.40881
2.40881
2.41702
2.41702
2.84412
2.94035
2.85386
2.95036
2.4553
2.55467
2.46364
2.56326
3.09228
3.19099
3.10271
3.20146
2.71964
2.81963
2.7285
2.82836
3.16828
3.06962
3.17974
3.08113
2.79996
2.69997
2.80987
2.70992
2.91853
2.82289
2.92971
2.83379
2.53588
2.43706
2.54553
2.44645
2.77675
2.77676
2.78751
2.78752
2.39084
2.39083
2.40009
2.40009
2.8229
2.91854
2.8338
2.92972
2.43706
2.53587
2.44644
2.54551
3.06965
3.1683
3.08116
3.17978
2.69985
2.79983
2.7099
2.80993
3.1429
3.0444
3.15585
3.05723
2.77803
2.67803
2.78923
2.68919
2.89432
2.7993
2.90672
2.8114
2.51492
2.41667
2.52566
2.42714
2.75346
2.75346
2.76541
2.76542
2.37073
2.37073
2.38106
2.38106
2.79931
2.89434
2.81141
2.90674
2.41668
2.51493
2.42714
2.52566
3.04443
3.14297
3.05726
3.1559
2.67813
2.77811
2.68918
2.78911
3.11511
3.01681
3.12918
3.03083
2.75372
2.65393
2.76599
2.66615
2.86763
2.77325
2.88128
2.78659
2.4917
2.39407
2.50358
2.40565
2.72772
2.72772
2.74091
2.74091
2.34842
2.34842
2.35986
2.35986
2.77325
2.86765
2.7866
2.8813
2.39406
2.49169
2.40565
2.50358
3.01684
3.11512
3.03086
3.12922
2.6538
2.75359
2.66614
2.76609
3.0843
2.98639
3.10001
3.00185
2.72688
2.62732
2.74058
2.64084
2.83834
2.74463
2.85331
2.75927
2.46615
2.36915
2.47921
2.3819
2.69943
2.69943
2.7139
2.71391
2.32381
2.32381
2.33641
2.33641
2.74464
2.83836
2.75928
2.85332
2.36915
2.46616
2.3819
2.47921
2.98642
3.08436
3.00188
3.10004
2.62742
2.72695
2.64082
2.74043
3.05075
2.95336
3.06776
2.97014
2.69742
2.59826
2.71242
2.61307
2.80633
2.71333
2.82267
2.72932
2.43813
2.3418
2.45245
2.35579
2.66848
2.66849
2.6843
2.6843
2.29679
2.29679
2.31061
2.31061
2.71334
2.80635
2.72933
2.82269
2.34181
2.43814
2.35579
2.45246
2.95339
3.05079
2.97018
3.0678
2.59825
2.69739
2.61309
2.71248
3.01385
2.91721
3.03265
2.93556
2.66495
2.56647
2.68144
2.58259
2.77148
2.67925
2.78925
2.69665
2.40752
2.31193
2.42314
2.32719
2.63478
2.63478
2.65199
2.65199
2.26728
2.26727
2.28235
2.28235
2.67925
2.77148
2.69665
2.78926
2.31192
2.40751
2.32718
2.42313
2.91722
3.01389
2.93559
3.03269
2.5665
2.665
2.58262
2.68143
2.97403
2.87829
2.99419
2.89804
2.62971
2.5321
2.64751
2.54949
2.73371
2.64229
2.75296
2.66114
2.37429
2.27946
2.39122
2.29602
2.59821
2.59821
2.61686
2.61686
2.23518
2.23517
2.25156
2.25155
2.64228
2.7337
2.66114
2.75295
2.27944
2.37424
2.29601
2.39119
2.87827
2.974
2.89804
2.9942
2.53195
2.62955
2.54947
2.64757
2.9306
2.83603
2.9527
2.85748
2.59129
2.49472
2.61084
2.51368
2.6929
2.60234
2.71368
2.6227
2.33831
2.24429
2.35663
2.26222
2.55868
2.55868
2.57883
2.57883
2.2004
2.20039
2.21813
2.21812
2.60233
2.69288
2.62269
2.71366
2.24426
2.33825
2.26219
2.35658
2.83601
2.93061
2.85746
2.95269
2.49474
2.59129
2.51361
2.61066
2.88394
2.79077
2.90754
2.8137
2.54984
2.45461
2.57082
2.47495
2.64895
2.55929
2.67131
2.58121
2.29948
2.20632
2.31924
2.22566
2.51607
2.51607
2.53777
2.53777
2.16285
2.16284
2.18198
2.18197
2.55928
2.64893
2.5812
2.67129
2.20629
2.29941
2.22563
2.31917
2.79074
2.8839
2.81368
2.90752
2.45441
2.54963
2.47485
2.5708
2.83376
2.74211
2.85921
2.76678
2.50517
2.41147
2.5278
2.43332
2.60175
2.51302
2.62575
2.53656
2.25773
2.16546
2.27895
2.18626
2.47027
2.47027
2.49358
2.49358
2.12243
2.12242
2.143
2.143
2.51302
2.60174
2.53656
2.62574
2.16545
2.2577
2.18623
2.2789
2.74211
2.83377
2.76676
2.85918
2.41143
2.50506
2.43316
2.52756
2.77975
2.68988
2.80715
2.71637
2.45718
2.36523
2.4815
2.38867
2.55111
2.46341
2.57686
2.48864
2.21292
2.1216
2.23571
2.14392
2.42116
2.42116
2.44614
2.44614
2.07903
2.07903
2.10111
2.10111
2.46341
2.55112
2.48864
2.57686
2.1216
2.21292
2.14391
2.23569
2.68989
2.77977
2.71638
2.80717
2.36522
2.45719
2.38866
2.4815
2.72181
2.63398
2.75117
2.6623
2.40544
2.3155
2.43169
2.34071
2.49696
2.41036
2.52447
2.43732
2.16489
2.07463
2.1893
2.09851
2.36865
2.36865
2.39534
2.39534
2.03257
2.03257
2.05619
2.05619
2.41036
2.49696
2.43732
2.52447
2.07462
2.16488
2.0985
2.18929
2.63399
2.72183
2.66231
2.75119
2.3155
2.40544
2.3407
2.43169
2.66008
2.57447
2.69131
2.60459
2.35008
2.26243
2.3781
2.28929
2.43926
2.3538
2.46854
2.38252
2.11363
2.02449
2.13965
2.04995
2.31265
2.31265
2.34109
2.34109
1.98297
1.98297
2.00816
2.00816
2.35381
2.43926
2.38252
2.46854
2.02449
2.11363
2.04995
2.13964
2.57448
2.6601
2.6046
2.69134
2.26243
2.35009
2.28929
2.3781
2.59467
2.51142
2.62774
2.5433
2.29136
2.20615
2.32104
2.2346
2.378
2.29368
2.40907
2.3242
2.05917
1.97116
2.08679
1.99823
2.25308
2.25308
2.28332
2.28332
1.93019
1.93018
1.95698
1.95698
2.29369
2.378
2.3242
2.40907
1.97116
2.05916
1.99823
2.08678
2.51143
2.59469
2.54332
2.62776
2.20615
2.29137
2.23461
2.32105
2.52562
2.44478
2.56051
2.47847
2.22935
2.14665
2.26067
2.17672
2.31309
2.22987
2.346
2.26225
2.00145
1.91456
2.03071
1.94328
2.1898
2.1898
2.22192
2.22192
1.87411
1.87411
1.90257
1.90257
2.22988
2.31309
2.26225
2.346
1.91455
2.00145
1.94327
2.03071
2.44479
2.52564
2.47848
2.56053
2.14665
2.22936
2.17672
2.26068
2.45291
2.37446
2.48965
2.41001
2.16404
2.08387
2.19702
2.1156
2.24436
2.16217
2.27921
2.19653
1.94035
1.8545
1.97132
1.88497
2.12259
2.12259
2.15671
2.15671
1.81455
1.81455
1.84478
1.84478
2.16217
2.24437
2.19653
2.27921
1.85449
1.94034
1.88497
1.97132
2.37447
2.45293
2.41002
2.48966
2.08387
2.16404
2.1156
2.19703
2.37636
2.30021
2.41505
2.33777
2.0953
2.0176
2.13003
2.05111
2.17151
2.09021
2.20847
2.12675
1.87559
1.79069
1.90844
1.82309
2.05108
2.05108
2.0874
2.0874
1.7512
1.7512
1.78337
1.78337
2.09021
2.17151
2.12675
2.20847
1.79069
1.87558
1.82308
1.90843
2.30022
2.37638
2.33778
2.41506
2.0176
2.09531
2.05111
2.13003
2.29558
2.22154
2.33645
2.2614
2.02278
1.94739
2.05947
1.98295
2.09395
2.01342
2.13336
2.05246
1.80666
1.7226
1.84168
1.75722
1.97468
1.97468
2.01353
2.01353
1.68353
1.68353
1.71795
1.71794
2.01342
2.09395
2.05246
2.13336
1.7226
1.80665
1.75722
1.84168
2.22155
2.29559
2.26141
2.33647
1.94739
2.02278
1.98295
2.05947
2.20984
2.13744
2.2533
2.1802
1.94571
1.8722
1.9848
1.91044
2.0106
1.93083
2.0531
1.97293
1.73248
1.6493
1.77032
1.68668
1.89257
1.89257
1.9344
1.9344
1.61075
1.61075
1.64784
1.64784
1.93083
2.0106
1.97292
2.0531
1.6493
1.73247
1.68667
1.77031
2.13745
2.20985
2.1802
2.25332
1.8722
1.94571
1.91044
1.9848
2.11853
2.04507
2.16476
2.09256
1.86309
1.78895
1.90502
1.8319
1.91901
1.841
1.96608
1.88692
1.65047
1.56927
1.69272
1.61024
1.8039
1.8039
1.84908
1.84908
1.53195
1.53195
1.57214
1.57214
1.841
1.91901
1.88692
1.96607
1.56926
1.65047
1.61023
1.69271
2.04507
2.11854
2.09257
2.16477
1.78895
1.86309
1.8319
1.90502
2.0252
1.93026
2.0717
1.99271
1.77728
1.68189
1.82023
1.74087
1.81381
1.74306
1.86853
1.79295
1.5546
1.48131
1.60475
1.52621
1.70927
1.70927
1.75715
1.75715
1.44751
1.4475
1.49027
1.49027
1.74305
1.81381
1.79295
1.86853
1.4813
1.55459
1.52621
1.60475
1.93026
2.02521
1.99272
2.07171
1.68188
1.77728
1.74086
1.82023
3.16635
3.0653
3.00007
2.91078
2.94737
2.84261
2.77203
2.68098
2.90326
2.79698
2.74283
2.63403
2.67002
2.55825
2.50347
2.39015
2.74459
2.74459
2.58106
2.58106
2.50364
2.50363
2.33555
2.33555
2.797
2.90329
2.63403
2.74284
2.55825
2.67002
2.39014
2.50346
3.06536
3.16645
2.91083
3.00014
2.84264
2.94743
2.681
2.77206
3.39733
3.29744
3.2953
3.19434
3.18106
3.07657
3.07942
2.97407
3.13929
3.03582
3.03389
2.92895
2.90693
2.79722
2.80238
2.69143
2.98476
2.98477
2.87718
2.87719
2.74352
2.74352
2.63717
2.63717
3.03584
3.13934
2.92896
3.03393
2.79723
2.90695
2.69144
2.8024
3.29752
3.39745
3.19442
3.29541
3.07663
3.18114
2.97412
3.07948
3.54444
3.44691
3.47862
3.37997
3.32401
3.22171
3.26051
3.15715
3.29358
3.19316
3.22437
3.12247
3.05665
2.9498
2.98992
2.88166
3.14357
3.14358
3.07216
3.07217
2.89745
2.89746
2.82864
2.82864
3.19319
3.29363
3.1225
3.22442
2.94981
3.05669
2.88167
2.98994
3.447
3.54457
3.38005
3.47874
3.22177
3.3241
3.15721
3.26059
3.64129
3.54578
3.5976
3.50116
3.41633
3.31595
3.37481
3.27354
3.39661
3.29886
3.35009
3.2511
3.15494
3.05066
3.11069
3.0052
3.25058
3.25058
3.20219
3.2022
2.99955
2.99956
2.9535
2.95351
3.29889
3.39667
3.25113
3.35015
3.05067
3.15498
3.00521
3.11072
3.54587
3.64142
3.50125
3.59773
3.31602
3.41642
3.2736
3.37489
3.70634
3.61245
3.67688
3.58225
3.47784
3.37901
3.44999
3.35046
3.4667
3.37116
3.43495
3.33839
3.22134
3.11919
3.19129
3.08814
3.32395
3.32396
3.29067
3.29068
3.06912
3.06912
3.03759
3.03759
3.37119
3.46676
3.33842
3.43501
3.11921
3.22138
3.08816
3.19132
3.61254
3.70647
3.58234
3.677
3.37908
3.47793
3.35053
3.45008
3.75008
3.65748
3.73028
3.6371
3.51912
3.42152
3.50042
3.40226
3.51455
3.42084
3.49291
3.39834
3.26662
3.16623
3.24613
3.14492
3.37452
3.37453
3.35161
3.35162
3.11702
3.11703
3.0953
3.09531
3.42087
3.51461
3.39837
3.49296
3.16625
3.26666
3.14494
3.24616
3.65757
3.75021
3.63719
3.73041
3.42158
3.51921
3.40233
3.50051
3.77884
3.68725
3.76593
3.67388
3.54632
3.44968
3.53408
3.43701
3.54669
3.45452
3.53227
3.43938
3.29712
3.19822
3.28341
3.18382
3.40895
3.40896
3.39346
3.39347
3.14973
3.14974
3.13499
3.13499
3.45455
3.54675
3.43941
3.53233
3.19824
3.29715
3.18384
3.28344
3.68733
3.77896
3.67397
3.76605
3.44975
3.54642
3.43708
3.53417
3.7966
3.70581
3.78878
3.69764
3.56325
3.46737
3.55576
3.45955
3.56729
3.47643
3.55822
3.46675
3.3168
3.21918
3.3081
3.20989
3.43151
3.43151
3.42152
3.42153
3.17132
3.17132
3.16173
3.16174
3.47646
3.56735
3.46678
3.55828
3.2192
3.31684
3.20991
3.30814
3.7059
3.79672
3.69773
3.78891
3.46743
3.56334
3.45961
3.55585
3.80603
3.71588
3.80211
3.71168
3.57239
3.47711
3.56854
3.473
3.57911
3.48939
3.57415
3.4839
3.32828
3.23178
3.32342
3.2264
3.44503
3.44504
3.43927
3.43928
3.18446
3.18446
3.17882
3.17882
3.48942
3.57916
3.48392
3.5742
3.2318
3.32832
3.22642
3.32346
3.71596
3.80615
3.71177
3.80223
3.47717
3.57248
3.47307
3.56863
3.80891
3.71926
3.80809
3.71822
3.57542
3.4806
3.57446
3.47945
3.58405
3.49534
3.58234
3.49315
3.33333
3.23782
3.3315
3.23553
3.45147
3.45148
3.44905
3.44906
3.19098
3.19098
3.18846
3.18847
3.49537
3.5841
3.49318
3.58239
3.23784
3.33336
3.23555
3.33154
3.71934
3.80903
3.7183
3.80821
3.48066
3.5755
3.47951
3.57455
3.80656
3.71729
3.80823
3.71879
3.57355
3.47908
3.57492
3.48031
3.58347
3.49566
3.58437
3.49614
3.3332
3.23858
3.33383
3.2388
3.45223
3.45224
3.45251
3.45251
3.19218
3.19219
3.19219
3.19219
3.49568
3.58352
3.49617
3.58442
3.2386
3.33324
3.23882
3.33386
3.71737
3.80668
3.71887
3.80834
3.47915
3.57364
3.48037
3.57501
3.79982
3.71083
3.80359
3.71449
3.56756
3.47337
3.57091
3.47661
3.57829
3.49131
3.5814
3.49403
3.32877
3.23499
3.33147
3.2373
3.4483
3.44831
3.45083
3.45084
3.189
3.189
3.19111
3.19112
3.49134
3.57834
3.49406
3.58145
3.23501
3.32881
3.23732
3.33151
3.71091
3.79993
3.71457
3.8037
3.47343
3.56764
3.47668
3.571
3.78938
3.70061
3.79492
3.70607
3.5581
3.4641
3.56312
3.46905
3.56923
3.483
3.5742
3.48762
3.32069
3.22768
3.32514
3.23177
3.44036
3.44037
3.44481
3.44481
3.18206
3.18206
3.18597
3.18597
3.48303
3.56927