/*--------------------------------*- C++ -*----------------------------------*\
  =========                 |
  \\      /  F ield         | OpenFOAM: The Open Source CFD Toolbox
   \\    /   O peration     | Website:  https://openfoam.org
    \\  /    A nd           | Version:  9
     \\/     M anipulation  |
\*---------------------------------------------------------------------------*/
FoamFile
{
    format      ascii;
    class       volScalarField;
    location    "4.7";
    object      p;
}
// * * * * * * * * * * * * * * * * * * * * * * * * * * * * * * * * * * * * * //

dimensions      [0 2 -2 0 0 0 0];

internalField   nonuniform List<scalar> 
36360
(
20.242
19.9933
20.2329
20.0049
19.9912
20.1862
20.0145
20.1531
20.0807
20.0985
20.0869
20.1059
20.1114
20.0954
20.0992
20.0917
20.1005
20.1005
20.1082
20.1082
20.0937
20.0937
20.0913
20.0913
20.0985
20.0807
20.1059
20.0869
20.0954
20.1114
20.0917
20.0992
19.9933
20.242
20.005
20.2329
20.1862
19.9913
20.1531
20.0146
20.1155
20.0682
20.1613
20.0455
19.8934
20.2565
19.9395
20.2298
20.1119
20.1029
20.0984
20.0995
20.1468
20.104
20.1306
20.0997
20.0972
20.0972
20.0977
20.0977
20.0954
20.0954
20.0948
20.0948
20.1029
20.1119
20.0995
20.0984
20.104
20.1468
20.0997
20.1306
20.0682
20.1155
20.0455
20.1613
20.2565
19.8935
20.2298
19.9396
20.0652
20.0827
20.0866
20.0784
19.8354
20.2796
19.86
20.2716
20.1333
20.1136
20.1238
20.1082
20.1713
20.1151
20.1604
20.1094
20.1004
20.1004
20.0983
20.0983
20.0991
20.0991
20.0969
20.0969
20.1136
20.1333
20.1082
20.1238
20.1151
20.1713
20.1094
20.1604
20.0827
20.0652
20.0784
20.0866
20.2796
19.8354
20.2716
19.8601
20.0365
20.0834
20.0489
20.0839
19.8027
20.2848
19.8169
20.2834
20.1455
20.1237
20.1403
20.1189
20.1854
20.1259
20.1794
20.1207
20.1062
20.1062
20.1031
20.1031
20.1047
20.1047
20.1018
20.1018
20.1236
20.1455
20.1189
20.1403
20.1259
20.1854
20.1207
20.1795
20.0834
20.0365
20.0839
20.0489
20.2848
19.8027
20.2834
19.8169
20.0191
20.0803
20.0268
20.0821
19.7829
20.2841
19.7917
20.2848
20.1517
20.1317
20.1491
20.1279
20.1925
20.1346
20.1895
20.1306
20.1126
20.1126
20.1094
20.1094
20.111
20.111
20.1079
20.1079
20.1317
20.1517
20.1279
20.1491
20.1346
20.1925
20.1306
20.1895
20.0803
20.0191
20.0821
20.0268
20.2841
19.7829
20.2848
19.7917
20.0076
20.0765
20.0128
20.0784
19.7701
20.2818
19.7758
20.283
20.1547
20.1375
20.1535
20.1348
20.1961
20.1408
20.1946
20.138
20.1184
20.1184
20.1156
20.1156
20.1168
20.1168
20.114
20.114
20.1375
20.1547
20.1348
20.1535
20.1408
20.1961
20.138
20.1946
20.0765
20.0076
20.0784
20.0128
20.2817
19.7701
20.283
19.7758
19.9997
20.073
20.0033
20.0747
19.7613
20.2791
19.7654
20.2804
20.1559
20.1415
20.1555
20.1397
20.1979
20.145
20.1971
20.1431
20.1231
20.1231
20.1209
20.1209
20.1216
20.1216
20.1194
20.1194
20.1415
20.1559
20.1397
20.1555
20.145
20.1979
20.1431
20.1971
20.073
19.9997
20.0747
20.0033
20.2791
19.7611
20.2804
19.7654
19.9939
20.0699
19.9965
20.0714
19.7553
20.2765
19.7581
20.2777
20.1562
20.1441
20.1561
20.1429
20.1985
20.1478
20.1983
20.1465
20.1266
20.1266
20.125
20.1249
20.1253
20.1253
20.1236
20.1236
20.1441
20.1561
20.1429
20.1561
20.1477
20.1985
20.1465
20.1983
20.0699
19.9939
20.0714
19.9965
20.2764
19.7554
20.2778
19.758
19.9895
20.0673
19.9915
20.0686
19.7505
20.2743
19.7525
20.2754
20.1558
20.1457
20.1561
20.145
20.1986
20.1495
20.1987
20.1488
20.129
20.129
20.1279
20.1279
20.128
20.128
20.1268
20.1268
20.1457
20.1558
20.145
20.1561
20.1495
20.1985
20.1488
20.1986
20.0672
19.9894
20.0686
19.9915
20.2741
19.7507
20.2754
19.7525
19.9859
20.0649
19.9876
20.066
19.7482
20.2716
19.7493
20.2729
20.155
20.1464
20.1555
20.1461
20.198
20.1504
20.1983
20.1501
20.1304
20.1304
20.1298
20.1298
20.1297
20.1297
20.1289
20.1289
20.1464
20.155
20.1461
20.1555
20.1504
20.1981
20.15
20.1983
20.0649
19.986
20.066
19.9876
20.2719
19.7473
20.2729
19.7491
19.983
20.0627
19.9843
20.0638
19.7455
20.2695
19.7469
20.2705
20.1539
20.1464
20.1545
20.1465
20.1972
20.1506
20.1976
20.1506
20.1311
20.1311
20.1308
20.1308
20.1305
20.1305
20.1302
20.1302
20.1464
20.1539
20.1465
20.1545
20.1505
20.1971
20.1506
20.1977
20.0628
19.983
20.0638
19.9845
20.2693
19.7457
20.2707
19.7461
19.9804
20.0606
19.9816
20.0617
19.7435
20.2672
19.7442
20.2684
20.1524
20.1458
20.1532
20.1462
20.196
20.1502
20.1967
20.1505
20.131
20.131
20.1311
20.1311
20.1307
20.1306
20.1307
20.1306
20.1458
20.1524
20.1461
20.1532
20.1501
20.1959
20.1504
20.1965
20.0606
19.9803
20.0617
19.9816
20.2669
19.7441
20.268
19.745
19.9781
20.0584
19.9792
20.0595
19.7423
20.2647
19.743
20.2659
20.1507
20.1447
20.1516
20.1453
20.1943
20.1492
20.1952
20.1497
20.1302
20.1302
20.1306
20.1307
20.1301
20.1301
20.1305
20.1305
20.1447
20.1508
20.1453
20.1516
20.1492
20.1945
20.1498
20.1952
20.0586
19.978
20.0596
19.9791
20.265
19.7413
20.2659
19.7428
19.9758
20.0564
19.977
20.0575
19.7409
20.2621
19.7414
20.2635
20.1487
20.1431
20.1498
20.1439
20.1923
20.1476
20.1934
20.1485
20.1288
20.1288
20.1296
20.1296
20.129
20.129
20.1296
20.1296
20.1431
20.1487
20.144
20.1498
20.1477
20.1923
20.1485
20.1934
20.0563
19.9759
20.0575
19.9769
20.2619
19.741
20.2635
19.7411
19.9735
20.054
19.9746
20.0552
19.74
20.2591
19.7405
20.2606
20.1464
20.141
20.1476
20.1421
20.1898
20.1456
20.1911
20.1467
20.127
20.127
20.128
20.128
20.1272
20.1272
20.1282
20.1282
20.141
20.1465
20.1421
20.1476
20.1457
20.1899
20.1467
20.1911
20.0542
19.9733
20.0552
19.9746
20.2593
19.7393
20.2606
19.7403
19.9712
20.0516
19.9723
20.0528
19.7383
20.2563
19.7393
20.2577
20.1438
20.1385
20.1452
20.1398
20.1871
20.1431
20.1885
20.1444
20.1246
20.1246
20.1258
20.1258
20.125
20.125
20.1262
20.1262
20.1385
20.1438
20.1398
20.1452
20.1432
20.1872
20.1445
20.1886
20.0517
19.971
20.053
19.9721
20.2562
19.738
20.2578
19.7385
19.9688
20.0491
19.97
20.0503
19.7371
20.2527
19.7379
20.2545
20.1409
20.1356
20.1424
20.1371
20.1839
20.1402
20.1855
20.1417
20.1218
20.1217
20.1232
20.1232
20.1221
20.1221
20.1236
20.1236
20.1356
20.1409
20.1371
20.1424
20.1402
20.1839
20.1417
20.1856
20.049
19.9686
20.0504
19.9699
20.2527
19.7369
20.2544
19.7375
19.9659
20.0464
19.9673
20.0478
19.7356
20.2489
19.7363
20.2509
20.1378
20.1323
20.1394
20.134
20.1803
20.1367
20.1822
20.1385
20.1185
20.1185
20.1202
20.1202
20.1188
20.1188
20.1205
20.1205
20.1323
20.1378
20.134
20.1394
20.1367
20.1803
20.1385
20.1822
20.0463
19.9659
20.0477
19.9673
20.2488
19.7355
20.2509
19.736
19.9633
20.0437
19.9647
20.0451
19.7339
20.2449
19.7344
20.2471
20.1345
20.1287
20.1362
20.1305
20.1763
20.1328
20.1784
20.1349
20.1149
20.1149
20.1168
20.1167
20.115
20.115
20.117
20.1169
20.1286
20.1344
20.1305
20.1361
20.1328
20.1762
20.1348
20.1783
20.0436
19.9633
20.045
19.9646
20.2448
19.7336
20.2468
19.7347
19.9605
20.0405
19.9618
20.0422
19.7336
20.24
19.7339
20.2424
20.1308
20.1247
20.1327
20.1267
20.1717
20.1284
20.174
20.1307
20.111
20.111
20.113
20.113
20.1107
20.1107
20.1129
20.1129
20.1247
20.1308
20.1267
20.1326
20.1285
20.1718
20.1307
20.174
20.0406
19.9604
20.0422
19.9618
20.2402
19.7322
20.2425
19.7329
19.9578
20.0375
19.9593
20.0389
19.7319
20.2353
19.7329
20.2376
20.1272
20.1205
20.1289
20.1226
20.1668
20.1237
20.1693
20.1261
20.1068
20.1068
20.1089
20.1089
20.106
20.106
20.1084
20.1084
20.1205
20.1271
20.1226
20.129
20.1238
20.167
20.1262
20.1694
20.0374
19.9577
20.039
19.9591
20.2353
19.7309
20.2378
19.7314
19.9548
20.0345
19.9562
20.036
19.7295
20.2305
19.731
20.2328
20.1235
20.1163
20.1254
20.1184
20.1619
20.1187
20.1644
20.1212
20.1024
20.1024
20.1047
20.1047
20.101
20.101
20.1035
20.1035
20.1162
20.1235
20.1184
20.1254
20.1187
20.1619
20.1213
20.1645
20.0345
19.9548
20.0361
19.9562
20.2304
19.7291
20.2331
19.7297
19.952
20.0317
19.9533
20.0332
19.7273
20.2256
19.7281
20.2281
20.1199
20.1116
20.1217
20.1139
20.1567
20.1135
20.1593
20.1161
20.0979
20.0979
20.1002
20.1002
20.0958
20.0958
20.0984
20.0984
20.1116
20.1198
20.1139
20.1216
20.1134
20.1566
20.1161
20.1592
20.0315
19.952
20.0329
19.9535
20.2253
19.7276
20.2277
19.7288
19.9493
20.0288
19.9506
20.0302
19.7262
20.2202
19.7269
20.2228
20.1162
20.1072
20.118
20.1094
20.1512
20.108
20.154
20.1108
20.0934
20.0934
20.0957
20.0957
20.0904
20.0904
20.0931
20.0931
20.1071
20.1162
20.1094
20.118
20.108
20.1512
20.1107
20.154
20.0288
19.9493
20.0303
19.9505
20.2202
19.726
20.2229
19.7265
19.9473
20.0261
19.9483
20.0275
19.7254
20.2148
19.7255
20.2176
20.1129
20.1028
20.1145
20.105
20.1458
20.1026
20.1486
20.1053
20.0891
20.0891
20.0912
20.0912
20.0849
20.0849
20.0876
20.0876
20.1028
20.1128
20.1049
20.1145
20.1025
20.1458
20.1053
20.1485
20.0261
19.9472
20.0274
19.9482
20.2147
19.7255
20.2174
19.726
19.945
20.0242
19.946
20.0251
19.7244
20.2098
19.7249
20.2122
20.11
20.0989
20.1114
20.1008
20.1406
20.0972
20.1432
20.0999
20.085
20.085
20.087
20.087
20.0796
20.0796
20.0822
20.0822
20.0989
20.11
20.1008
20.1114
20.0972
20.1406
20.0998
20.1431
20.0243
19.9451
20.0251
19.946
20.2098
19.724
20.212
19.725
19.9439
20.0225
19.9444
20.0233
19.7241
20.205
19.7242
20.2073
20.1066
20.0952
20.1084
20.097
20.1354
20.092
20.138
20.0945
20.0814
20.0814
20.0831
20.0831
20.0745
20.0745
20.077
20.077
20.0952
20.1066
20.097
20.1084
20.092
20.1355
20.0946
20.1381
20.0227
19.9437
20.0235
19.9443
20.2052
19.7232
20.2077
19.7229
19.9432
20.0215
19.9434
20.022
19.7235
20.201
19.7237
20.2029
20.1038
20.0921
20.1051
20.0936
20.1307
20.0871
20.133
20.0895
20.0782
20.0782
20.0797
20.0797
20.0698
20.0698
20.0721
20.0721
20.092
20.1037
20.0936
20.1051
20.0871
20.1307
20.0895
20.133
20.0215
19.9433
20.022
19.9433
20.2008
19.7239
20.2028
19.7237
19.9435
20.0212
19.9432
20.0213
19.7251
20.1969
19.7243
20.1988
20.1017
20.0895
20.1026
20.0907
20.1263
20.0828
20.1284
20.0849
20.0757
20.0757
20.0768
20.0768
20.0656
20.0656
20.0676
20.0676
20.0895
20.1017
20.0907
20.1026
20.0828
20.1263
20.0849
20.1284
20.0212
19.9435
20.0212
19.9433
20.1969
19.7251
20.1987
19.7244
19.9447
20.0218
19.9439
20.0214
19.7274
20.1936
19.7261
20.1952
20.1004
20.0877
20.1009
20.0885
20.1225
20.079
20.1243
20.0808
20.0739
20.0739
20.0747
20.0747
20.0621
20.0621
20.0637
20.0637
20.0877
20.1004
20.0885
20.1009
20.079
20.1225
20.0808
20.1243
20.0218
19.9447
20.0214
19.9439
20.1936
19.7275
20.1952
19.7262
19.9469
20.0233
19.9456
20.0225
19.731
20.191
19.7291
20.1922
20.0999
20.0867
20.1
20.0871
20.1194
20.076
20.1209
20.0774
20.0731
20.0731
20.0734
20.0734
20.0594
20.0594
20.0606
20.0606
20.0867
20.0999
20.0871
20.1
20.076
20.1194
20.0774
20.1209
20.0233
19.9469
20.0225
19.9456
20.191
19.731
20.1922
19.7291
19.9503
20.0259
19.9485
20.0245
19.736
20.1892
19.7333
20.19
20.1002
20.0866
20.1
20.0866
20.1171
20.0739
20.1182
20.0749
20.0732
20.0732
20.073
20.073
20.0578
20.0578
20.0585
20.0585
20.0866
20.1002
20.0866
20.1
20.0739
20.1171
20.0749
20.1182
20.0259
19.9503
20.0245
19.9485
20.1892
19.736
20.19
19.7334
19.9551
20.0293
19.9525
20.0275
19.7426
20.1883
19.7391
20.1886
20.1014
20.0875
20.1007
20.0869
20.1156
20.0729
20.1163
20.0733
20.0745
20.0745
20.0737
20.0737
20.0573
20.0573
20.0574
20.0574
20.0875
20.1014
20.0869
20.1007
20.0729
20.1156
20.0733
20.1163
20.0293
19.9551
20.0275
19.9525
20.1883
19.7426
20.1886
19.7391
19.9612
20.0336
19.9579
20.0314
19.7509
20.1882
19.7465
20.1881
20.1034
20.0893
20.1023
20.0883
20.115
20.0729
20.1152
20.0727
20.0769
20.0769
20.0756
20.0756
20.0581
20.0581
20.0576
20.0576
20.0893
20.1034
20.0883
20.1023
20.0729
20.115
20.0727
20.1152
20.0336
19.9612
20.0314
19.9579
20.1882
19.7509
20.1881
19.7465
19.9689
20.0388
19.9648
20.0361
19.7613
20.1888
19.7558
20.1884
20.1061
20.0922
20.1047
20.0906
20.1151
20.0741
20.115
20.0733
20.0805
20.0805
20.0786
20.0786
20.0603
20.0603
20.0591
20.0591
20.0922
20.1061
20.0906
20.1047
20.0741
20.1151
20.0733
20.115
20.0388
19.9689
20.0361
19.9648
20.1888
19.7613
20.1884
19.7559
19.9781
20.0445
19.9733
20.0416
19.7742
20.1898
19.7674
20.1892
20.1094
20.096
20.1077
20.0939
20.1161
20.0765
20.1155
20.0751
20.0852
20.0852
20.0827
20.0827
20.064
20.064
20.062
20.062
20.096
20.1094
20.0939
20.1077
20.0765
20.1161
20.0751
20.1155
20.0445
19.9781
20.0416
19.9733
20.1898
19.7742
20.1892
19.7674
19.9888
20.0508
19.9833
20.0476
19.7902
20.1907
19.7817
20.1903
20.1131
20.1007
20.1112
20.0982
20.1175
20.0802
20.1167
20.0782
20.0911
20.0911
20.088
20.088
20.069
20.069
20.0663
20.0663
20.1007
20.1131
20.0982
20.1112
20.0802
20.1175
20.0782
20.1167
20.0508
19.9888
20.0476
19.9833
20.1907
19.7902
20.1903
19.7817
19.9984
20.0597
19.9941
20.0547
19.8105
20.19
19.7997
20.1906
20.1173
20.1064
20.1151
20.1034
20.1193
20.0852
20.1184
20.0825
20.0982
20.0982
20.0945
20.0945
20.0755
20.0755
20.0721
20.0721
20.1064
20.1173
20.1034
20.1151
20.0852
20.1193
20.0825
20.1184
20.0597
19.9984
20.0547
19.9941
20.19
19.8105
20.1906
19.7998
20.0066
20.0696
20.0006
20.0666
19.8361
20.1854
19.8225
20.1884
20.1233
20.1134
20.12
20.1097
20.1221
20.0918
20.1205
20.0883
20.1063
20.1063
20.1021
20.1021
20.0835
20.0835
20.0794
20.0794
20.1134
20.1233
20.1097
20.12
20.0918
20.1221
20.0883
20.1205
20.0696
20.0066
20.0666
20.0006
20.1854
19.8361
20.1884
19.8225
20.4309
19.9424
20.3323
19.9763
20.384
19.9284
20.3096
19.9646
19.9889
20.0604
20.0271
20.08
20.0181
20.0791
20.0451
20.0912
20.0938
20.0938
20.1019
20.1019
20.0989
20.0989
20.1036
20.1036
20.0604
19.989
20.08
20.0271
20.0791
20.0181
20.0912
20.0451
19.9424
20.4309
19.9763
20.3323
19.9284
20.3839
19.9646
20.3096
20.291
20.0366
20.3361
20.0137
20.2536
20.0122
20.2977
19.9906
20.0308
20.0642
20.0158
20.0621
20.0547
20.0831
20.0409
20.0806
20.0845
20.0845
20.0883
20.0883
20.0937
20.0937
20.0958
20.0958
20.0642
20.0308
20.0621
20.0158
20.0831
20.0547
20.0806
20.0409
20.0366
20.291
20.0137
20.3361
20.0122
20.2535
19.9906
20.2976
20.2533
20.0416
20.2687
20.0418
20.2117
20.0198
20.2293
20.0186
20.0479
20.0736
20.041
20.0688
20.0732
20.0936
20.0652
20.0881
20.0863
20.0863
20.0845
20.0845
20.096
20.096
20.0941
20.0941
20.0736
20.0479
20.0688
20.041
20.0936
20.0732
20.0881
20.0652
20.0416
20.2533
20.0418
20.2687
20.0198
20.2117
20.0186
20.2293
20.2333
20.0367
20.242
20.0395
20.1884
20.0165
20.1985
20.0186
20.055
20.0819
20.0523
20.078
20.0826
20.1032
20.0788
20.0987
20.0924
20.0924
20.0891
20.0891
20.1019
20.1019
20.0988
20.0988
20.0819
20.055
20.078
20.0523
20.1032
20.0826
20.0987
20.0788
20.0367
20.2333
20.0395
20.242
20.0165
20.1884
20.0186
20.1985
20.2211
20.031
20.2266
20.0338
20.1742
20.0116
20.1806
20.0139
20.0576
20.0881
20.0567
20.0852
20.0864
20.1105
20.0851
20.1071
20.099
20.099
20.0958
20.0958
20.1084
20.1084
20.1051
20.1051
20.0881
20.0576
20.0852
20.0567
20.1105
20.0864
20.1071
20.0851
20.031
20.2211
20.0338
20.2266
20.0116
20.1742
20.014
20.1805
20.2128
20.026
20.2166
20.0284
20.1648
20.007
20.1691
20.0092
20.0582
20.0924
20.0581
20.0904
20.0875
20.1156
20.0872
20.1133
20.1046
20.1046
20.102
20.102
20.1141
20.1141
20.1114
20.1114
20.0924
20.0582
20.0904
20.0581
20.1156
20.0875
20.1133
20.0872
20.026
20.2128
20.0284
20.2166
20.007
20.1648
20.0092
20.1691
20.2068
20.0216
20.2096
20.0237
20.1581
20.003
20.1612
20.0049
20.0579
20.0952
20.0581
20.0939
20.0876
20.1192
20.0877
20.1176
20.109
20.109
20.107
20.107
20.1188
20.1188
20.1166
20.1166
20.0952
20.0579
20.0939
20.0581
20.1192
20.0876
20.1176
20.0876
20.0216
20.2068
20.0237
20.2096
20.003
20.1581
20.0049
20.1612
20.2022
20.0179
20.2044
20.0197
20.153
19.9996
20.1554
20.0012
20.0572
20.097
20.0576
20.0962
20.0871
20.1214
20.0874
20.1204
20.1121
20.1121
20.1107
20.1107
20.1222
20.1222
20.1206
20.1206
20.097
20.0572
20.0962
20.0576
20.1214
20.0871
20.1204
20.0874
20.0179
20.2021
20.0197
20.2043
19.9996
20.1529
20.0012
20.1554
20.1985
20.0146
20.2003
20.0162
20.1492
19.9964
20.151
19.998
20.0561
20.0979
20.0567
20.0975
20.0862
20.1228
20.0867
20.1222
20.1141
20.1141
20.1132
20.1132
20.1244
20.1244
20.1234
20.1234
20.0979
20.0561
20.0975
20.0567
20.1228
20.0862
20.1222
20.0867
20.0147
20.1985
20.0162
20.2002
19.9965
20.1491
19.998
20.151
20.1954
20.0117
20.1969
20.0131
20.146
19.9936
20.1476
19.995
20.0548
20.0981
20.0555
20.0981
20.0851
20.1233
20.0857
20.1231
20.1152
20.1152
20.1147
20.1147
20.1257
20.1257
20.1252
20.1252
20.0981
20.0548
20.0981
20.0555
20.1233
20.0851
20.1231
20.0857
20.0118
20.1953
20.0131
20.1968
19.9937
20.146
19.9951
20.1475
20.1925
20.009
20.1939
20.0103
20.1434
19.991
20.1447
19.9923
20.0533
20.0977
20.0541
20.098
20.0837
20.1231
20.0844
20.1233
20.1154
20.1154
20.1154
20.1154
20.1262
20.1262
20.126
20.126
20.0977
20.0533
20.098
20.0541
20.1231
20.0837
20.1233
20.0844
20.009
20.1925
20.0104
20.1938
19.9912
20.1432
19.9924
20.1446
20.1898
20.0064
20.1911
20.0077
20.141
19.9885
20.1421
19.9897
20.0516
20.0969
20.0525
20.0974
20.0821
20.1225
20.0829
20.1229
20.115
20.115
20.1153
20.1153
20.1259
20.1259
20.1261
20.1261
20.0969
20.0516
20.0974
20.0525
20.1224
20.0821
20.1229
20.0829
20.0063
20.1899
20.0076
20.1912
19.9885
20.1409
19.9899
20.142
20.1874
20.0037
20.1886
20.005
20.1387
19.986
20.1399
19.9872
20.0497
20.0956
20.0507
20.0963
20.0802
20.1212
20.0812
20.1219
20.1141
20.1141
20.1146
20.1146
20.125
20.1251
20.1256
20.1256
20.0956
20.0497
20.0963
20.0507
20.1213
20.0802
20.1219
20.0812
20.0036
20.1874
20.005
20.1887
19.986
20.1388
19.9872
20.1398
20.1849
20.001
20.1861
20.0024
20.1363
19.9836
20.1375
19.9848
20.0476
20.0939
20.0487
20.0948
20.0782
20.1196
20.0792
20.1205
20.1126
20.1126
20.1134
20.1134
20.1236
20.1236
20.1244
20.1244
20.094
20.0476
20.0948
20.0487
20.1196
20.0781
20.1205
20.0792
20.0011
20.1847
20.0024
20.1861
19.9835
20.1363
19.9848
20.1375
20.1826
19.9981
20.1838
19.9995
20.134
19.9809
20.1352
19.9822
20.0453
20.0919
20.0464
20.093
20.0759
20.1176
20.0771
20.1186
20.1108
20.1108
20.1117
20.1117
20.1217
20.1217
20.1227
20.1227
20.0919
20.0452
20.093
20.0465
20.1176
20.0759
20.1186
20.0771
19.9981
20.1826
19.9995
20.1837
19.981
20.1339
19.9822
20.1352
20.1797
19.9956
20.1812
19.9968
20.1313
19.9785
20.1327
19.9797
20.043
20.0897
20.0441
20.0909
20.0735
20.1152
20.0747
20.1164
20.1086
20.1086
20.1097
20.1097
20.1194
20.1194
20.1206
20.1206
20.0897
20.0429
20.0909
20.0441
20.1152
20.0734
20.1164
20.0747
19.9956
20.1797
19.9968
20.1813
19.9784
20.1314
19.9797
20.1327
20.1771
19.9928
20.1784
19.9942
20.1287
19.9758
20.1301
19.9771
20.0404
20.0872
20.0417
20.0885
20.0708
20.1125
20.0722
20.1139
20.106
20.106
20.1073
20.1073
20.1167
20.1166
20.1181
20.1181
20.0872
20.0404
20.0885
20.0417
20.1125
20.0708
20.1139
20.0721
19.9927
20.1771
19.9941
20.1784
19.9758
20.1288
19.9771
20.1301
20.1741
19.9902
20.1757
19.9914
20.126
19.9732
20.1273
19.9745
20.0379
20.0846
20.0391
20.0859
20.068
20.1095
20.0694
20.111
20.1033
20.1033
20.1047
20.1047
20.1136
20.1136
20.1152
20.1152
20.0846
20.0378
20.0859
20.0391
20.1094
20.0679
20.111
20.0693
19.9902
20.1742
19.9914
20.1756
19.9729
20.1262
19.9743
20.1275
20.1716
19.9873
20.1729
19.9887
20.1233
19.9703
20.1248
19.9716
20.0352
20.0818
20.0365
20.0832
20.065
20.1063
20.0665
20.1079
20.1004
20.1004
20.1019
20.1019
20.1103
20.1103
20.112
20.112
20.0818
20.0351
20.0832
20.0365
20.1062
20.0649
20.1079
20.0664
19.9872
20.1717
19.9887
20.1729
19.9703
20.1234
19.9715
20.1249
20.1683
19.985
20.17
19.9861
20.12
19.9679
20.1217
19.9691
20.0328
20.0791
20.034
20.0804
20.0621
20.1028
20.0635
20.1046
20.0974
20.0974
20.0989
20.0989
20.1068
20.1068
20.1086
20.1086
20.079
20.0327
20.0804
20.0339
20.1028
20.0619
20.1045
20.0634
19.9849
20.1686
19.986
20.1701
19.9675
20.1205
19.9689
20.1219
20.1658
19.9825
20.167
19.9838
20.1174
19.9651
20.1187
19.9664
20.0303
20.0763
20.0315
20.0777
20.0589
20.0992
20.0605
20.1011
20.0945
20.0944
20.0959
20.0959
20.1032
20.1032
20.1051
20.105
20.0762
20.0302
20.0776
20.0314
20.0992
20.0588
20.101
20.0604
19.9824
20.1659
19.9836
20.1672
19.9649
20.1177
19.9661
20.1192
20.1631
19.9805
20.1644
19.9814
20.1143
19.9629
20.1158
19.9639
20.0281
20.0737
20.0292
20.075
20.0561
20.0956
20.0575
20.0974
20.0916
20.0916
20.093
20.093
20.0996
20.0996
20.1014
20.1014
20.0736
20.0281
20.0749
20.0291
20.0955
20.0559
20.0973
20.0573
19.9804
20.1631
19.9813
20.1646
19.9624
20.1148
19.9636
20.1163
20.1612
19.9783
20.1621
19.9793
20.112
19.9605
20.1131
19.9617
20.026
20.0712
20.027
20.0724
20.0531
20.0928
20.0546
20.0942
20.0889
20.0889
20.0902
20.0902
20.0961
20.0961
20.0979
20.0979
20.0711
20.026
20.0724
20.027
20.0928
20.0531
20.0942
20.0545
19.9783
20.1612
19.9794
20.1621
19.9605
20.1119
19.9614
20.1134
20.159
19.9771
20.1601
19.9776
20.1094
19.9587
20.1106
19.9595
20.0245
20.0693
20.0252
20.0702
20.0504
20.0897
20.0518
20.0912
20.0865
20.0865
20.0877
20.0876
20.0928
20.0928
20.0944
20.0944
20.0693
20.0245
20.0702
20.0252
20.0897
20.0503
20.0912
20.0517
19.9771
20.1591
19.9776
20.1602
19.9583
20.1099
19.9594
20.1108
20.1578
19.9762
20.1583
19.9766
20.1079
19.957
20.1087
19.9577
20.0234
20.0677
20.0239
20.0685
20.0477
20.0869
20.049
20.0883
20.0845
20.0845
20.0854
20.0854
20.0897
20.0897
20.0912
20.0912
20.0677
20.0234
20.0685
20.0239
20.0869
20.0477
20.0883
20.049
19.9762
20.1578
19.9766
20.1583
19.9571
20.1077
19.9576
20.1088
20.1569
19.9759
20.1574
19.9759
20.1063
19.9561
20.1071
19.9564
20.0232
20.0667
20.0231
20.0671
20.0449
20.0846
20.0463
20.0857
20.083
20.083
20.0837
20.0837
20.0871
20.0871
20.0884
20.0884
20.0667
20.0232
20.0671
20.0231
20.0846
20.0449
20.0857
20.0463
19.976
20.1569
19.976
20.1573
19.9562
20.1064
19.9566
20.1069
20.1569
19.9762
20.1568
19.976
20.1058
19.9558
20.106
19.9559
20.0231
20.0661
20.0231
20.0663
20.0451
20.0828
20.0446
20.0836
20.082
20.082
20.0824
20.0824
20.0849
20.0849
20.0859
20.0859
20.0661
20.0231
20.0663
20.0231
20.0828
20.0451
20.0836
20.0446
19.9763
20.1568
19.976
20.1568
19.9559
20.1056
19.9559
20.1061
20.1572
19.9775
20.157
19.9767
20.1055
19.9564
20.1055
19.956
20.0239
20.0662
20.0234
20.0661
20.0457
20.0816
20.0454
20.0822
20.0816
20.0816
20.0817
20.0817
20.0833
20.0833
20.084
20.084
20.0662
20.024
20.0661
20.0234
20.0816
20.0457
20.0822
20.0454
19.9775
20.1572
19.9767
20.1569
19.9563
20.1057
19.956
20.1056
20.1585
19.9797
20.1577
19.9784
20.1061
19.9578
20.1057
19.957
20.0256
20.067
20.0247
20.0665
20.0466
20.0811
20.0461
20.0813
20.082
20.082
20.0817
20.0817
20.0824
20.0824
20.0828
20.0828
20.067
20.0256
20.0665
20.0247
20.0811
20.0466
20.0813
20.046
19.9797
20.1585
19.9785
20.1577
19.9578
20.1061
19.957
20.1058
20.1605
19.9829
20.1594
19.9811
20.1075
19.96
20.1067
19.9588
20.0281
20.0687
20.0268
20.0678
20.0481
20.0814
20.0472
20.0812
20.0831
20.0831
20.0824
20.0824
20.0824
20.0824
20.0823
20.0823
20.0687
20.0281
20.0678
20.0268
20.0814
20.0481
20.0812
20.0472
19.9829
20.1605
19.9811
20.1594
19.96
20.1075
19.9588
20.1067
20.1632
19.988
20.1617
19.9852
20.1098
19.9625
20.1085
19.9612
20.0315
20.0711
20.0297
20.0698
20.0504
20.0825
20.0491
20.0819
20.0851
20.0851
20.084
20.084
20.0832
20.0832
20.0827
20.0827
20.0711
20.0315
20.0698
20.0297
20.0825
20.0504
20.0819
20.0491
19.988
20.1632
19.9852
20.1617
19.9626
20.1098
19.9612
20.1085
20.1666
19.9914
20.1648
19.9895
20.113
19.9678
20.1113
19.9651
20.0356
20.0744
20.0335
20.0727
20.0535
20.0845
20.0518
20.0834
20.088
20.088
20.0864
20.0864
20.085
20.085
20.084
20.084
20.0744
20.0356
20.0727
20.0335
20.0845
20.0535
20.0834
20.0518
19.9914
20.1666
19.9895
20.1648
19.9678
20.113
19.9651
20.1113
20.1707
19.9963
20.1686
19.9937
20.1171
19.9734
20.115
19.9705
20.0404
20.0784
20.0379
20.0763
20.0574
20.0872
20.0553
20.0857
20.0916
20.0916
20.0897
20.0897
20.0877
20.0877
20.0862
20.0862
20.0784
20.0404
20.0763
20.0379
20.0872
20.0574
20.0857
20.0553
19.9963
20.1707
19.9937
20.1686
19.9734
20.1171
19.9705
20.115
20.1754
20.0022
20.173
19.9991
20.1222
19.9798
20.1196
19.9765
20.0459
20.0831
20.0431
20.0807
20.0619
20.0908
20.0596
20.0889
20.096
20.096
20.0937
20.0937
20.0914
20.0914
20.0894
20.0894
20.0831
20.0459
20.0807
20.0431
20.0908
20.0619
20.0889
20.0596
20.0022
20.1754
19.9991
20.173
19.9798
20.1222
19.9765
20.1196
20.1802
20.0088
20.1778
20.0054
20.128
19.9869
20.1251
19.9832
20.052
20.0884
20.0489
20.0857
20.0672
20.0952
20.0645
20.0929
20.1011
20.1011
20.0985
20.0985
20.0959
20.0959
20.0936
20.0936
20.0884
20.052
20.0857
20.0489
20.0952
20.0672
20.0929
20.0645
20.0088
20.1802
20.0054
20.1778
19.9869
20.128
19.9832
20.1251
20.1845
20.0162
20.1825
20.0124
20.1342
19.995
20.1311
19.9908
20.0586
20.0942
20.0552
20.0912
20.0729
20.1002
20.07
20.0976
20.1068
20.1068
20.1039
20.1039
20.1013
20.1013
20.0985
20.0985
20.0942
20.0586
20.0912
20.0552
20.1002
20.0729
20.0976
20.07
20.0162
20.1845
20.0124
20.1825
19.995
20.1342
19.9908
20.1311
20.187
20.0251
20.1862
20.0204
20.14
20.0045
20.1373
19.9996
20.0656
20.1002
20.062
20.0972
20.079
20.1057
20.0759
20.1029
20.113
20.113
20.1098
20.1098
20.1075
20.1075
20.1043
20.1043
20.1002
20.0656
20.0972
20.062
20.1057
20.079
20.1029
20.0759
20.0251
20.187
20.0204
20.1862
20.0045
20.14
19.9996
20.1373
20.1811
20.0405
20.1861
20.0312
20.1405
20.0174
20.1417
20.0097
20.0732
20.1065
20.0693
20.1033
20.0854
20.1118
20.0821
20.1086
20.1199
20.1199
20.1164
20.1164
20.1146
20.1146
20.1109
20.1109
20.1065
20.0732
20.1033
20.0693
20.1118
20.0854
20.1086
20.0821
20.0405
20.1811
20.0312
20.1861
20.0174
20.1404
20.0097
20.1417
20.1987
20.0349
20.175
20.0513
20.1567
20.0156
20.1378
20.0265
20.0759
20.1137
20.0768
20.1099
20.09
20.1191
20.0889
20.1152
20.1274
20.1274
20.1236
20.1236
20.1224
20.1224
20.1184
20.1184
20.1137
20.0759
20.1099
20.0768
20.1191
20.09
20.1152
20.0889
20.0349
20.1987
20.0513
20.175
20.0156
20.1567
20.0265
20.1378
20.4483
19.9842
20.339
20.0057
20.4437
19.966
20.3376
19.9931
19.973
20.0365
20.0174
20.0656
19.9767
20.0461
20.0195
20.0713
20.0765
20.0765
20.0927
20.0927
20.0852
20.0852
20.0976
20.0976
20.0365
19.973
20.0656
20.0174
20.0461
19.9767
20.0713
20.0195
19.9842
20.4483
20.0057
20.339
19.966
20.4437
19.9931
20.3376
20.2838
20.0953
20.3346
20.0699
20.2912
20.07
20.3389
20.0451
20.0285
20.0418
20.0089
20.0395
20.0252
20.0503
20.0086
20.0482
20.0608
20.0608
20.0675
20.0675
20.0723
20.0723
20.0777
20.0777
20.0418
20.0285
20.0395
20.0089
20.0503
20.0252
20.0483
20.0086
20.0953
20.2838
20.0699
20.3346
20.07
20.2912
20.0451
20.3389
20.247
20.0997
20.2614
20.1004
20.2547
20.0743
20.2692
20.0751
20.0467
20.0506
20.0402
20.0461
20.0427
20.0593
20.0359
20.0548
20.061
20.061
20.0596
20.0596
20.0732
20.0732
20.0716
20.0716
20.0506
20.0467
20.0461
20.0402
20.0593
20.0427
20.0548
20.0359
20.0997
20.247
20.1004
20.2613
20.0743
20.2547
20.0751
20.2692
20.2292
20.0943
20.2369
20.0972
20.2362
20.0688
20.2442
20.0716
20.0522
20.0577
20.0503
20.0545
20.049
20.0668
20.0467
20.0633
20.0667
20.0667
20.0636
20.0636
20.0792
20.0792
20.076
20.076
20.0577
20.0522
20.0545
20.0503
20.0668
20.049
20.0633
20.0467
20.0943
20.2292
20.0972
20.2368
20.0688
20.2362
20.0716
20.2442
20.2185
20.0885
20.2233
20.0913
20.225
20.063
20.23
20.0658
20.0535
20.0627
20.0531
20.0605
20.0508
20.0721
20.0502
20.0697
20.0728
20.0728
20.0698
20.0698
20.0855
20.0855
20.0824
20.0824
20.0627
20.0535
20.0605
20.0531
20.0721
20.0508
20.0697
20.0502
20.0885
20.2184
20.0913
20.2233
20.063
20.225
20.0658
20.23
20.2111
20.0836
20.2145
20.0859
20.2173
20.058
20.2208
20.0604
20.0535
20.0659
20.0535
20.0645
20.051
20.0757
20.051
20.0741
20.0777
20.0777
20.0754
20.0754
20.0908
20.0908
20.0883
20.0883
20.0659
20.0535
20.0645
20.0535
20.0757
20.051
20.0741
20.051
20.0836
20.211
20.0859
20.2145
20.058
20.2173
20.0604
20.2208
20.2056
20.0794
20.2081
20.0814
20.2117
20.0538
20.2143
20.0558
20.0529
20.0679
20.0532
20.067
20.0504
20.0781
20.0508
20.077
20.0813
20.0813
20.0797
20.0797
20.0948
20.0948
20.093
20.093
20.0679
20.0529
20.067
20.0532
20.0781
20.0504
20.077
20.0508
20.0794
20.2056
20.0814
20.2081
20.0538
20.2116
20.0558
20.2143
20.2013
20.0758
20.2033
20.0775
20.2073
20.0501
20.2093
20.0518
20.052
20.0689
20.0525
20.0685
20.0495
20.0794
20.05
20.0789
20.0837
20.0837
20.0826
20.0826
20.0975
20.0976
20.0963
20.0963
20.069
20.052
20.0685
20.0525
20.0794
20.0495
20.0789
20.05
20.0758
20.2013
20.0775
20.2033
20.0501
20.2072
20.0519
20.2093
20.1978
20.0727
20.1995
20.0742
20.2037
20.0469
20.2054
20.0484
20.0508
20.0693
20.0514
20.0692
20.0483
20.0801
20.0489
20.0798
20.0851
20.0851
20.0845
20.0845
20.0992
20.0992
20.0985
20.0985
20.0693
20.0508
20.0692
20.0514
20.0801
20.0484
20.0798
20.049
20.0727
20.1977
20.0742
20.1995
20.0469
20.2036
20.0485
20.2054
20.1947
20.0698
20.1962
20.0712
20.2006
20.044
20.2021
20.0454
20.0494
20.0691
20.0501
20.0693
20.0469
20.08
20.0476
20.0801
20.0858
20.0858
20.0855
20.0855
20.1001
20.1001
20.0998
20.0998
20.0692
20.0495
20.0693
20.0502
20.0801
20.047
20.0801
20.0477
20.0698
20.1947
20.0712
20.1962
20.044
20.2005
20.0454
20.2021
20.1919
20.067
20.1933
20.0684
20.1977
20.0413
20.1992
20.0426
20.0478
20.0685
20.0486
20.0689
20.0453
20.0795
20.0461
20.0798
20.0857
20.0857
20.0858
20.0858
20.1002
20.1002
20.1002
20.1002
20.0685
20.0479
20.0689
20.0487
20.0795
20.0454
20.0799
20.0462
20.067
20.1919
20.0684
20.1933
20.0413
20.1977
20.0426
20.1991
20.1893
20.0644
20.1906
20.0657
20.195
20.0386
20.1964
20.0399
20.0461
20.0674
20.047
20.068
20.0436
20.0786
20.0445
20.0791
20.0851
20.0851
20.0855
20.0855
20.0997
20.0997
20.1
20.1
20.0674
20.0461
20.068
20.047
20.0786
20.0436
20.0791
20.0445
20.0644
20.1893
20.0657
20.1906
20.0386
20.195
20.0399
20.1964
20.1866
20.0618
20.188
20.063
20.1923
20.0361
20.1937
20.0373
20.0442
20.0661
20.0451
20.0668
20.0417
20.0772
20.0426
20.0779
20.0841
20.0841
20.0847
20.0847
20.0987
20.0987
20.0992
20.0992
20.066
20.0442
20.0668
20.0451
20.0772
20.0416
20.0779
20.0426
20.0618
20.1867
20.063
20.188
20.0359
20.1925
20.0373
20.1937
20.1842
20.0591
20.1854
20.0604
20.19
20.0332
20.1911
20.0347
20.0421
20.0644
20.0431
20.0652
20.0395
20.0755
20.0406
20.0764
20.0827
20.0827
20.0834
20.0834
20.0972
20.0972
20.098
20.098
20.0644
20.0421
20.0652
20.0431
20.0755
20.0395
20.0764
20.0406
20.0591
20.1841
20.0604
20.1854
20.0334
20.1898
20.0346
20.1912
20.1814
20.0566
20.1828
20.0578
20.1873
20.0307
20.1886
20.0319
20.0399
20.0625
20.041
20.0635
20.0373
20.0736
20.0384
20.0746
20.081
20.081
20.0819
20.0819
20.0955
20.0954
20.0964
20.0964
20.0625
20.0398
20.0634
20.0409
20.0736
20.0372
20.0746
20.0384
20.0565
20.1815
20.0578
20.1828
20.0304
20.1875
20.0319
20.1886