/*--------------------------------*- C++ -*----------------------------------*\
  =========                 |
  \\      /  F ield         | OpenFOAM: The Open Source CFD Toolbox
   \\    /   O peration     | Website:  https://openfoam.org
    \\  /    A nd           | Version:  9
     \\/     M anipulation  |
\*---------------------------------------------------------------------------*/
FoamFile
{
    format      ascii;
    class       surfaceScalarField;
    location    "4.7";
    object      phi;
}
// * * * * * * * * * * * * * * * * * * * * * * * * * * * * * * * * * * * * * //

dimensions      [0 3 -1 0 0 0 0];

internalField   nonuniform List<scalar> 
104044
(
8.62259e-06
-0.000141067
-2.46044e-05
0.0001288
2.82488e-05
-9.15695e-05
2.30536e-05
-2.95922e-06
0.00010138
-2.12827e-05
8.13861e-06
-3.73493e-05
3.3401e-05
2.70333e-05
-2.85949e-06
-2.13507e-05
-7.87048e-06
-0.000170484
0.00015375
-6.96554e-05
3.0154e-06
8.18231e-05
-5.64024e-06
2.19037e-06
-5.58442e-07
-9.75686e-05
-1.95278e-06
9.85258e-05
-1.40515e-06
-0.000100581
-2.1262e-06
-6.89593e-08
0.000100006
2.21179e-06
-5.88538e-07
-2.18961e-06
-1.4378e-06
-4.33495e-06
-7.94008e-08
2.86552e-06
5.84871e-07
-8.19378e-05
8.24155e-05
-9.34078e-05
7.13527e-08
9.17952e-05
3.02396e-07
1.63597e-08
2.84361e-12
-0.000101877
-1.56184e-06
0.000101193
2.17668e-06
-0.000101877
-1.56185e-06
6.89632e-08
0.000101193
2.1767e-06
3.43836e-12
-4.33503e-06
3.35641e-06
-4.33505e-06
7.94027e-08
3.35644e-06
2.75824e-12
-9.73881e-05
9.58976e-05
-9.73882e-05
-7.1338e-08
9.58977e-05
4.66932e-14
-1.63549e-08
5.58435e-07
-0.000100581
-2.12629e-06
0.000100006
2.2119e-06
-9.75685e-05
-1.95308e-06
2.9592e-06
9.85255e-05
-1.40476e-06
5.8852e-07
-4.33505e-06
2.86565e-06
-2.18995e-06
2.85945e-06
-1.43743e-06
-5.84814e-07
-9.34082e-05
9.17954e-05
-8.19383e-05
-3.01522e-06
8.24156e-05
-3.02357e-07
-2.19022e-06
-8.62222e-06
-9.1569e-05
2.30523e-05
0.00010138
-2.12818e-05
-0.000141068
-2.46033e-05
0.000128801
2.82479e-05
-8.13816e-06
2.7032e-05
-2.13499e-05
-3.73474e-05
3.33997e-05
7.86984e-06
-6.9655e-05
8.18223e-05
-0.000170484
0.00015375
5.63973e-06
1.5937e-06
-0.000122224
-2.43086e-05
0.000118422
2.65171e-05
-0.000105006
2.46506e-05
-1.60946e-06
0.000106404
-2.28458e-05
3.92555e-06
-2.41555e-05
2.68063e-05
2.43023e-05
-1.74777e-06
-2.22544e-05
-1.43911e-05
-0.000141113
0.000131196
-9.06785e-05
4.33573e-06
9.66023e-05
-1.15189e-05
3.92804e-06
2.96379e-07
-9.98402e-05
3.76652e-07
0.000101162
-3.60433e-06
-9.9978e-05
-8.01254e-07
2.19571e-07
0.000100348
5.08388e-07
-3.78887e-08
-2.88515e-07
-2.73576e-06
-1.2795e-06
7.17152e-08
1.19753e-06
1.36424e-06
-8.5056e-05
8.84041e-05
-9.13188e-05
3.12499e-07
9.15693e-05
9.99066e-07
1.95958e-07
8.15539e-12
-0.000100834
-8.02734e-07
0.000100763
1.09365e-06
-0.000100834
-8.02748e-07
-2.19537e-07
0.000100763
1.09365e-06
4.95194e-12
-1.02534e-06
1.45592e-06
-1.02536e-06
-7.1691e-08
1.45592e-06
4.71204e-12
-9.50682e-05
9.4578e-05
-9.50683e-05
-3.12474e-07
9.4578e-05
5.20656e-12
-1.9593e-07
-2.96339e-07
-9.99779e-05
-8.01303e-07
0.000100348
5.08459e-07
-9.98399e-05
3.76488e-07
1.60942e-06
0.000101162
-3.60407e-06
3.7908e-08
-1.27956e-06
1.19762e-06
-2.88779e-07
1.74775e-06
-2.73543e-06
-1.36415e-06
-9.13189e-05
9.15693e-05
-8.50557e-05
-4.33559e-06
8.84037e-05
-9.98986e-07
-3.92787e-06
-1.59364e-06
-0.000105005
2.46497e-05
0.000106404
-2.28451e-05
-0.000122225
-2.43078e-05
0.000118422
2.65164e-05
-3.92541e-06
2.43013e-05
-2.22537e-05
-2.41545e-05
2.68055e-05
1.43903e-05
-9.06776e-05
9.66014e-05
-0.000141114
0.000131197
1.15181e-05
-5.75262e-07
-0.000115786
-2.22207e-05
0.000113882
2.47002e-05
-0.000107058
2.34907e-05
-1.99895e-06
0.000107386
-2.23952e-05
2.71022e-07
-2.29664e-05
2.53313e-05
2.38036e-05
-1.75625e-06
-2.24299e-05
-1.72408e-05
-0.000124212
0.000119232
-0.000100115
4.19513e-06
0.00010217
-1.59825e-05
4.30847e-06
6.41337e-07
-0.000102292
2.71419e-07
0.000103227
-3.84627e-06
-0.000100909
-3.73987e-07
5.04902e-07
0.000101546
-1.25991e-07
5.02686e-07
4.07809e-07
-3.79722e-06
-4.89826e-07
3.69956e-07
6.07857e-08
1.85712e-06
-9.1494e-05
9.41034e-05
-9.2291e-05
5.1261e-07
9.32615e-05
1.62639e-06
4.14823e-07
2.15551e-11
-0.000100919
-3.93325e-07
0.000101249
5.67939e-07
-0.000100919
-3.93354e-07
-5.04824e-07
0.000101249
5.67933e-07
1.14495e-11
-5.81432e-07
7.95193e-07
-5.81448e-07
-3.6991e-07
7.95192e-07
-3.27413e-11
-9.44114e-05
9.45307e-05
-9.44113e-05
-5.12666e-07
9.45306e-05
-1.31658e-12
-4.14808e-07
-6.41254e-07
-0.000100909
-3.74043e-07
0.000101546
-1.2598e-07
-0.000102292
2.71103e-07
1.99885e-06
0.000103227
-3.84611e-06
-5.02643e-07
-4.89853e-07
6.08237e-08
4.07683e-07
1.75619e-06
-3.79701e-06
-1.85708e-06
-9.22909e-05
9.32613e-05
-9.14934e-05
-4.19504e-06
9.41025e-05
-1.62629e-06
-4.30837e-06
5.75267e-07
-0.000107058
2.34899e-05
0.000107386
-2.23946e-05
-0.000115786
-2.22201e-05
0.000113882
2.46996e-05
-2.70982e-07
2.38028e-05
-2.24293e-05
-2.29656e-05
2.53306e-05
1.72401e-05
-0.000100114
0.000102169
-0.000124213
0.000119233
1.59817e-05
-1.50048e-06
-0.000112522
-2.09105e-05
0.000111536
2.33974e-05
-0.000107559
2.27445e-05
-2.41111e-06
0.000107663
-2.19381e-05
-1.1212e-06
-2.1246e-05
2.37267e-05
2.28165e-05
-2.19278e-06
-2.19181e-05
-1.83285e-05
-0.000115722
0.00011314
-0.000103306
3.77246e-06
0.00010395
-1.77358e-05
3.94401e-06
6.81549e-07
-0.00010398
-2.08807e-08
0.000104621
-3.71237e-06
-0.000102193
-3.8665e-07
6.62505e-07
0.000102838
-2.38895e-07
6.85022e-07
1.16726e-07
-3.74761e-06
-3.54118e-07
5.93557e-07
-2.01771e-07
2.11821e-06
-9.61718e-05
9.78052e-05
-9.43166e-05
6.49369e-07
9.53988e-05
1.99234e-06
5.83167e-07
-4.21824e-11
-0.000101696
-1.17176e-07
0.00010222
2.55372e-07
-0.000101695
-1.17082e-07
-6.62377e-07
0.00010222
2.55379e-07
7.89223e-11
-2.33411e-07
3.8066e-07
-2.33499e-07
-5.93243e-07
3.80643e-07
8.71267e-11
-9.48806e-05
9.54127e-05
-9.48805e-05
-6.49419e-07
9.5413e-05
-1.6483e-10
-5.83593e-07
-6.81435e-07
-0.000102193
-3.86614e-07
0.000102838
-2.38909e-07
-0.00010398
-2.10599e-08
2.41099e-06
0.00010462
-3.71227e-06
-6.84093e-07
-3.54463e-07
-2.01896e-07
1.19563e-07
2.1918e-06
-3.74789e-06
-2.11821e-06
-9.43165e-05
9.53986e-05
-9.61716e-05
-3.77238e-06
9.78048e-05
-1.99326e-06
-3.94287e-06
1.50049e-06
-0.000107559
2.27438e-05
0.000107663
-2.19376e-05
-0.000112523
-2.091e-05
0.000111536
2.33968e-05
1.12098e-06
2.28154e-05
-2.19176e-05
-2.12455e-05
2.37261e-05
1.83279e-05
-0.000103306
0.00010395
-0.000115723
0.00011314
1.77355e-05
-1.91305e-06
-0.000110828
-2.00748e-05
0.000110329
2.2487e-05
-0.00010775
2.22818e-05
-2.70245e-06
0.000107843
-2.15857e-05
-1.7292e-06
-2.0239e-05
2.26762e-05
2.22557e-05
-2.54499e-06
-2.15267e-05
-1.86685e-05
-0.000111274
0.000109867
-0.00010429
3.40575e-06
0.000104498
-1.8373e-05
3.54233e-06
6.10826e-07
-0.000105162
-2.19621e-07
0.000105648
-3.57945e-06
-0.000103463
-4.6749e-07
7.14615e-07
0.000104075
-2.47927e-07
6.46815e-07
-1.26631e-07
-3.60677e-06
-4.24238e-07
6.9186e-07
-2.4616e-07
2.21042e-06
-9.90551e-05
0.000100031
-9.64549e-05
7.19877e-07
9.74779e-05
2.16576e-06
6.85409e-07
-5.70853e-11
-0.000102787
1.3569e-08
0.000103382
1.05552e-07
-0.000102787
1.36818e-08
-7.14529e-07
0.000103382
1.05557e-07
-1.19465e-09
-3.83856e-08
1.64704e-07
-4.27805e-08
-6.90954e-07
1.65116e-07
1.30876e-10
-9.60584e-05
9.67917e-05
-9.60579e-05
-7.19823e-07
9.67916e-05
1.35371e-09
-6.8638e-07
-6.10789e-07
-0.000103463
-4.67381e-07
0.000104075
-2.4794e-07
-0.000105162
-2.19661e-07
2.7024e-06
0.000105648
-3.57934e-06
-6.46587e-07
-4.23809e-07
-2.46056e-07
-1.26591e-07
2.54498e-06
-3.60665e-06
-2.21032e-06
-9.64544e-05
9.74775e-05
-9.90546e-05
-3.40574e-06
0.00010003
-2.16597e-06
-3.54243e-06
1.91311e-06
-0.00010775
2.22813e-05
0.000107843
-2.15853e-05
-0.000110828
-2.00741e-05
0.000110329
2.24864e-05
1.72926e-06
2.22552e-05
-2.15263e-05
-2.02383e-05
2.26756e-05
1.86679e-05
-0.00010429
0.000104498
-0.000111274
0.000109868
1.83723e-05
-2.10279e-06
-0.000109988
-1.94441e-05
0.00010978
2.17555e-05
-0.000107962
2.19127e-05
-2.88127e-06
0.000108106
-2.1279e-05
-2.00612e-06
-1.95323e-05
2.18789e-05
2.18609e-05
-2.77432e-06
-2.12109e-05
-1.86707e-05
-0.000108846
0.000108072
-0.000104627
3.11856e-06
0.000104751
-1.8511e-05
3.22032e-06
5.11661e-07
-0.000106092
-3.20473e-07
0.000106513
-3.49406e-06
-0.000104659
-5.14495e-07
7.03523e-07
0.000105228
-2.46806e-07
5.56218e-07
-2.80867e-07
-3.49309e-06
-4.91785e-07
7.07188e-07
-2.43011e-07
2.1133e-06
-0.000100822
0.000101507
-9.84108e-05
7.28971e-07
9.92807e-05
2.14811e-06
7.23411e-07
1.58817e-11
-0.000103979
6.90167e-08
0.000104582
3.17115e-08
-0.000103979
6.90351e-08
-7.03472e-07
0.000104582
3.16856e-08
1.26197e-11
4.76111e-08
6.27976e-08
4.76252e-08
-7.07138e-07
6.27791e-08
2.50068e-11
-9.75627e-05
9.83606e-05
-9.75625e-05
-7.28868e-07
9.83605e-05
4.10421e-11
-7.23317e-07
-5.11613e-07
-0.000104658
-5.14438e-07
0.000105228
-2.46837e-07
-0.000106091
-3.20522e-07
2.88126e-06
0.000106513
-3.49396e-06
-5.56196e-07
-4.91735e-07
-2.43032e-07
-2.80934e-07
2.77427e-06
-3.49297e-06
-2.11307e-06
-9.84104e-05
9.92802e-05
-0.000100822
-3.11831e-06
0.000101506
-2.14797e-06
-3.22027e-06
2.10281e-06
-0.000107962
2.19122e-05
0.000108106
-2.12786e-05
-0.000109989
-1.94437e-05
0.00010978
2.17549e-05
2.00617e-06
2.18604e-05
-2.12105e-05
-1.95317e-05
2.18783e-05
1.86699e-05
-0.000104627
0.000104751
-0.000108847
0.000108073
1.85103e-05
-2.18618e-06
-0.00010967
-1.88859e-05
0.000109653
2.10886e-05
-0.000108285
2.15474e-05
-2.98e-06
0.000108497
-2.09655e-05
-2.13292e-06
-1.8961e-05
2.12038e-05
2.15096e-05
-2.90879e-06
-2.09128e-05
-1.84913e-05
-0.000107531
0.000107137
-0.00010487
2.89784e-06
0.000105028
-1.84199e-05
2.97092e-06
4.19036e-07
-0.000106923
-3.53069e-07
0.000107334
-3.45644e-06
-0.000105778
-5.24085e-07
6.63813e-07
0.000106322
-2.65211e-07
4.59156e-07
-3.41985e-07
-3.43634e-06
-5.18346e-07
6.78211e-07
-2.50347e-07
1.98776e-06
-0.000102105
0.000102662
-0.000100082
7.02529e-07
0.000100843
2.03087e-06
7.11436e-07
-2.73243e-11
-0.000105178
8.70189e-08
0.000105774
-1.95031e-08
-0.000105177
8.70703e-08
-6.63885e-07
0.000105774
-1.9555e-08
-1.68491e-11
7.98376e-08
2.59536e-09
7.98652e-08
-6.7822e-07
2.55849e-09
-1.23746e-10
-9.9152e-05
9.99417e-05
-9.91518e-05
-7.02838e-07
9.99416e-05
-1.13736e-10
-7.11604e-07
-4.19133e-07
-0.000105777
-5.24012e-07
0.000106322
-2.65305e-07
-0.000106923
-3.5296e-07
2.9799e-06
0.000107334
-3.45645e-06
-4.59117e-07
-5.18299e-07
-2.50379e-07
-3.4199e-07
2.90888e-06
-3.43624e-06
-1.98834e-06
-0.000100081
0.000100843
-0.000102104
-2.89871e-06
0.000102662
-2.03089e-06
-2.97059e-06
2.18666e-06
-0.000108285
2.15502e-05
0.000108497
-2.09686e-05
-0.00010967
-1.88887e-05
0.000109654
2.10919e-05
2.13313e-06
2.1511e-05
-2.0914e-05
-1.89618e-05
2.12047e-05
1.84944e-05
-0.00010487
0.000105027
-0.000107534
0.000107139
1.84223e-05
-2.21613e-06
-0.000109705
-1.83713e-05
0.000109829
2.04633e-05
-0.000108745
2.11847e-05
-3.02541e-06
0.000109026
-2.06565e-05
-2.18413e-06
-1.84255e-05
2.0558e-05
2.11425e-05
-2.97709e-06
-2.05972e-05
-1.82297e-05
-0.0001069
0.000106758
-0.000105204
2.72554e-06
0.000105434
-1.81886e-05
2.77753e-06
3.42509e-07
-0.000107749
-3.42025e-07
0.000108176
-3.45276e-06
-0.000106857
-5.07075e-07
6.18085e-07
0.000107396
-3.07406e-07
3.74988e-07
-3.51202e-07
-3.41608e-06
-5.13618e-07
6.34454e-07
-2.80462e-07
1.86885e-06
-0.000103181
0.000103696
-0.00010156
6.62765e-07
0.000102259
1.90733e-06
6.7673e-07
1.08986e-10
-0.000106361
1.00218e-07
0.000106952
-7.37528e-08
-0.000106361
1.00359e-07
-6.17877e-07
0.000106952
-7.38638e-08
4.93085e-11
9.1724e-08
-4.42264e-08
9.18433e-08
-6.34416e-07
-4.43244e-08
1.09735e-10
-0.00010071
0.000101473
-0.00010071
-6.62308e-07
0.000101473
1.07039e-10
-6.76572e-07
-3.42388e-07
-0.000106857
-5.06713e-07
0.000107396
-3.07591e-07
-0.000107749
-3.42613e-07
3.02542e-06
0.000108176
-3.45199e-06
-3.75093e-07
-5.13343e-07
-2.80698e-07
-3.50708e-07
2.97668e-06
-3.41636e-06
-1.86768e-06
-0.00010156
0.000102259
-0.000103182
-2.72457e-06
0.000103696
-1.9076e-06
-2.77889e-06
2.21564e-06
-0.000108745
2.1179e-05
0.000109026
-2.06505e-05
-0.000109705
-1.8366e-05
0.00010983
2.04567e-05
2.18436e-06
2.11442e-05
-2.05997e-05
-1.8428e-05
2.05614e-05
1.82238e-05
-0.000105203
0.000105434
-0.0001069
0.000106758
1.81885e-05
-2.21561e-06
-0.000110004
-1.78971e-05
0.000110241
1.98764e-05
-0.000109343
2.0833e-05
-3.03358e-06
0.000109692
-2.03644e-05
-2.19598e-06
-1.79359e-05
1.99565e-05
2.07818e-05
-2.99987e-06
-2.02945e-05
-1.79292e-05
-0.000106716
0.000106748
-0.000105692
2.59155e-06
0.000106005
-1.78932e-05
2.62969e-06
2.81931e-07
-0.000108616
-3.02618e-07
0.000109075
-3.47103e-06
-0.000107933
-4.71831e-07
5.74583e-07
0.000108482
-3.69675e-07
3.0754e-07
-3.23931e-07
-3.42391e-06
-4.86588e-07
5.89438e-07
-3.32743e-07
1.76788e-06
-0.000104203
0.000104724
-0.000102935
6.22251e-07
0.000103609
1.79833e-06
6.35746e-07
1.44606e-10
-0.000107539
1.21664e-07
0.000108134
-1.42994e-07
-0.000107539
1.21822e-07
-5.74311e-07
0.000108134
-1.43114e-07
1.01908e-10
1.08452e-07
-1.05459e-07
1.08525e-07
-5.89233e-07
-1.05533e-07
2.63232e-10
-0.000102217
0.000102961
-0.000102217
-6.21359e-07
0.00010296
-2.31306e-11
-6.35613e-07
-2.81834e-07
-0.000107933
-4.71421e-07
0.000108482
-3.69809e-07
-0.000108616
-3.03477e-07
3.03361e-06
0.000109074
-3.46981e-06
-3.07454e-07
-4.86463e-07
-3.32742e-07
-3.25402e-07
3.00004e-06
-3.42252e-06
-1.76592e-06
-0.000102935
0.000103608
-0.000104203
-2.58869e-06
0.000104722
-1.79771e-06
-2.62971e-06
2.21631e-06
-0.000109343
2.08294e-05
0.00010969
-2.03596e-05
-0.000110006
-1.78891e-05
0.000110241
1.98694e-05
2.19567e-06
2.07788e-05
-2.0291e-05
-1.7931e-05
1.99509e-05
1.79323e-05
-0.000105694
0.000106002
-0.000106716
0.000106759
1.78895e-05
-2.19691e-06
-0.00011052
-1.74265e-05
0.000110851
1.92925e-05
-0.000110071
2.04722e-05
-3.01445e-06
0.000110482
-2.0065e-05
-2.18489e-06
-1.74729e-05
1.93784e-05
2.04331e-05
-2.99488e-06
-2.00024e-05
-1.76129e-05
-0.000106863
0.000107049
-0.000106348
2.47004e-06
0.000106737
-1.75882e-05
2.50196e-06
2.34442e-07
-0.000109549
-2.44197e-07
0.000110045
-3.50061e-06
-0.000109035
-4.24345e-07
5.3612e-07
0.000109603
-4.46241e-07
2.53957e-07
-2.73841e-07
-3.44958e-06
-4.44675e-07
5.48629e-07
-4.02553e-07
1.67869e-06
-0.000105249
0.000105796
-0.000104271
5.83201e-07
0.000104942
1.70317e-06
5.95809e-07
3.27397e-11
-0.000108729
1.52322e-07
0.000109338
-2.24807e-07
-0.000108729
1.52526e-07
-5.36144e-07
0.000109338
-2.24987e-07
7.57805e-11
1.34565e-07
-1.8086e-07
1.3477e-07
-5.48544e-07
-1.81018e-07
-3.98894e-10
-0.000103691
0.000104427
-0.000103691
-5.84025e-07
0.000104427
3.39836e-11
-5.95577e-07
-2.34735e-07
-0.000109034
-4.24165e-07
0.000109603
-4.46379e-07
-0.000109549
-2.47641e-07
3.01447e-06
0.000110045
-3.498e-06
-2.54194e-07
-4.44271e-07
-4.02689e-07
-2.75638e-07
2.99452e-06
-3.44773e-06
-1.67998e-06
-0.00010427
0.000104942
-0.000105247
-2.47651e-06
0.000105796
-1.70242e-06
-2.50236e-06
2.1959e-06
-0.000110069
2.04579e-05
0.000110483
-2.00534e-05
-0.00011052
-1.74135e-05
0.000110849
1.9281e-05
2.18546e-06
2.04263e-05
-1.99957e-05
-1.74638e-05
1.93703e-05
1.75882e-05
-0.000106342
0.000106735
-0.00010688
0.000107054
1.75841e-05
-2.16941e-06
-0.000111213
-1.69502e-05
0.00011162
1.87119e-05
-0.000110922
2.00927e-05
-2.97816e-06
0.000111397
-1.97586e-05
-2.16196e-06
-1.70124e-05
1.88127e-05
2.00784e-05
-2.96657e-06
-1.97141e-05
-1.72505e-05
-0.000107308
0.000107608
-0.000107149
2.37718e-06
0.000107614
-1.72705e-05
2.39634e-06
1.9862e-07
-0.00011056
-1.83208e-07
0.000111098
-3.53186e-06
-0.00011018
-3.7224e-07
5.04446e-07
0.000110777
-5.29873e-07
2.13379e-07
-2.13255e-07
-3.48161e-06
-3.94944e-07
5.14163e-07
-4.82706e-07
1.6097e-06
-0.000106353
0.000106938
-0.000105612
5.52093e-07
0.000106298
1.62605e-06
5.61242e-07
2.20792e-10
-0.00010995
1.8965e-07
0.000110578
-3.14126e-07
-0.00010995
1.90055e-07
-5.04178e-07
0.000110578
-3.14426e-07
7.97719e-11
1.6847e-07
-2.66219e-07
1.68699e-07
-5.14123e-07
-2.66404e-07
6.34657e-10
-0.000105157
0.000105898
-0.000105157
-5.50432e-07
0.000105898
-1.89582e-10
-5.61584e-07
-1.99197e-07
-0.000110181
-3.71093e-07
0.000110777
-5.30451e-07
-0.000110561
-1.84274e-07
2.97619e-06
0.000111101
-3.53082e-06
-2.13895e-07
-3.94695e-07
-4.82777e-07
-2.17611e-07
2.96574e-06
-3.47832e-06
-1.6071e-06
-0.000105613
0.000106298
-0.000106353
-2.37517e-06
0.000106937
-1.62664e-06
-2.40155e-06
2.16444e-06
-0.000110928
2.00823e-05
0.000111405
-1.97476e-05
-0.000111208
-1.69445e-05
0.000111615
1.87028e-05
2.1581e-06
2.00594e-05
-1.96972e-05
-1.69975e-05
1.87958e-05
1.72452e-05
-0.000107149
0.000107611
-0.000107301
0.000107602
1.7244e-05
-2.13468e-06
-0.000112042
-1.64743e-05
0.000112509
1.81422e-05
-0.000111906
1.97046e-05
-2.92899e-06
0.00011244
-1.94442e-05
-2.13409e-06
-1.65311e-05
1.82438e-05
1.96894e-05
-2.92287e-06
-1.94096e-05
-1.68898e-05
-0.000107984
0.000108399
-0.000108082
2.29486e-06
0.000108602
-1.69072e-05
2.31366e-06
1.71201e-07
-0.000111658
-1.18271e-07
0.000112235
-3.5597e-06
-0.000111382
-3.16852e-07
4.77826e-07
0.000112008
-6.15083e-07
1.82781e-07
-1.53953e-07
-3.51104e-06
-3.41987e-07
4.85654e-07
-5.66719e-07
1.55037e-06
-0.000107532
0.000108158
-0.000106988
5.24434e-07
0.000107697
1.56516e-06
5.33101e-07
1.573e-10
-0.000111212
2.31273e-07
0.000111864
-4.05558e-07
-0.000111212
2.31605e-07
-4.7754e-07
0.000111864
-4.05813e-07
3.10769e-10
2.07911e-07
-3.56436e-07
2.08484e-07
-4.85128e-07
-3.56892e-07
6.36597e-10
-0.000106638
0.000107393
-0.000106638
-5.2271e-07
0.000107393
9.87284e-10
-5.30386e-07
-1.70855e-07
-0.000111383
-3.15642e-07
0.000112008
-6.15955e-07
-0.000111658
-1.14147e-07
2.92965e-06
0.000112234
-3.56205e-06
-1.82404e-07
-3.40005e-07
-5.68216e-07
-1.49064e-07
2.9232e-06
-3.51378e-06
-1.5475e-06
-0.000106988
0.000107697
-0.000107535
-2.29109e-06
0.000108165
-1.56048e-06
-2.30815e-06
2.13573e-06
-0.000111907
1.97144e-05
0.000112435
-1.94486e-05
-0.000112043
-1.6483e-05
0.000112514
1.8148e-05
2.13019e-06
1.96988e-05
-1.94074e-05
-1.65442e-05
1.8246e-05
1.68964e-05
-0.000108091
0.000108618
-0.000107968
0.000108381
1.69105e-05
-2.09045e-06
-0.000113003
-1.60559e-05
0.000113537
1.76126e-05
-0.000112988
1.93531e-05
-2.87718e-06
0.00011356
-1.91379e-05
-2.08981e-06
-1.60913e-05
1.76865e-05
1.93236e-05
-2.8731e-06
-1.90888e-05
-1.65264e-05
-0.000108848
0.000109318
-0.000109151
2.22535e-06
0.000109753
-1.65398e-05
2.23456e-06
1.52331e-07
-0.000112827
-5.81076e-08
0.000113441
-3.58485e-06
-0.000112641
-2.59274e-07
4.55877e-07
0.000113294
-6.97363e-07
1.58995e-07
-8.6817e-08
-3.53722e-06
-2.85207e-07
4.61307e-07
-6.50627e-07
1.49483e-06
-0.0001088
0.000109473
-0.000108411
4.99331e-07
0.000109148
1.50584e-06
5.05988e-07
-3.83658e-10
-0.000112521
2.74313e-07
0.000113196
-4.93304e-07
-0.000112521
2.73814e-07
-4.56637e-07
0.000113197
-4.92943e-07
-1.77034e-10
2.50275e-07
-4.45873e-07
2.50047e-07
-4.61671e-07
-4.45683e-07
-6.9262e-10
-0.000108149
0.000108924
-0.000108149
-5.01466e-07
0.000108924
-1.96071e-10
-5.06622e-07
-1.53507e-07
-0.000112641
-2.60911e-07
0.000113295
-6.95975e-07
-0.000112827
-6.10855e-08
2.87503e-06
0.000113442
-3.58259e-06
-1.59584e-07
-2.86039e-07
-6.49723e-07
-8.94782e-08
2.87225e-06
-3.53492e-06
-1.49907e-06
-0.000108411
0.000109148
-0.000108803
-2.23079e-06
0.000109474
-1.50685e-06
-2.23499e-06
2.09724e-06
-0.000112982
1.93591e-05
0.000113552
-1.91514e-05
-0.00011301
-1.60598e-05
0.000113545
1.76224e-05
2.09622e-06
1.93191e-05
-1.90901e-05
-1.60841e-05
1.76836e-05
1.65325e-05
-0.000109161
0.000109757
-0.000108838
0.000109311
1.65409e-05
-2.0452e-06
-0.000114078
-1.5636e-05
0.000114648
1.71114e-05
-0.00011415
1.89849e-05
-2.81415e-06
0.000114758
-1.88237e-05
-2.04598e-06
-1.56761e-05
1.71814e-05
1.89649e-05
-2.81499e-06
-1.87867e-05
-1.6182e-05
-0.000109828
0.000110374
-0.000110358
2.16177e-06
0.000110999
-1.61861e-05
2.17314e-06
1.40493e-07
-0.000114069
-7.11187e-09
0.000114713
-3.59153e-06
-0.000113954
-2.06376e-07
4.37689e-07
0.000114629
-7.66295e-07
1.44707e-07
-3.30635e-08
-3.55439e-06
-2.29866e-07
4.41715e-07
-7.26657e-07
1.44649e-06
-0.000110156
0.000110864
-0.00010989
4.78952e-07
0.000110651
1.45639e-06
4.84086e-07
-2.49326e-13
-0.000113875
3.13353e-07
0.000114568
-5.68844e-07
-0.000113875
3.13151e-07
-4.37411e-07
0.000114568
-5.68751e-07
-1.62175e-10
2.91539e-07
-5.27825e-07
2.91232e-07
-4.41848e-07
-5.27624e-07
-1.56611e-10
-0.0001097
0.000110492
-0.0001097
-4.79211e-07
0.000110492
-3.50202e-10
-4.84827e-07
-1.3912e-07
-0.000113954
-2.06818e-07
0.000114629
-7.66307e-07
-0.000114069
-6.26264e-09
2.81607e-06
0.000114712
-3.59186e-06
-1.44369e-07
-2.30562e-07
-7.26204e-07
-3.26772e-08
2.81521e-06
-3.55451e-06
-1.44623e-06
-0.00010989
0.00011065
-0.000110156
-2.15896e-06
0.000110862
-1.45691e-06
-2.17113e-06
2.04141e-06
-0.000114146
1.89672e-05
0.000114762
-1.88087e-05
-0.000114081
-1.56183e-05
0.000114645
1.70955e-05
2.04915e-06
1.89593e-05
-1.87868e-05
-1.56663e-05
1.71794e-05
1.61678e-05
-0.000110358
0.000110998
-0.000109832
0.000110381
1.61871e-05
-2.00415e-06
-0.000115225
-1.52113e-05
0.000115829
1.66117e-05
-0.000115376
1.8589e-05
-2.75373e-06
0.000116004
-1.84674e-05
-2.00345e-06
-1.52478e-05
1.66739e-05
1.85794e-05
-2.75364e-06
-1.84468e-05
-1.58e-05
-0.00011095
0.000111539
-0.000111645
2.10387e-06
0.00011233
-1.5824e-05
2.10962e-06
1.30753e-07
-0.000115362
3.08949e-08
0.000116019
-3.57302e-06
-0.000115305
-1.63304e-07
4.21733e-07
0.000115992
-8.14182e-07
1.3387e-07
1.03224e-08
-3.54702e-06
-1.81973e-07
4.24725e-07
-7.84841e-07
1.40198e-06
-0.000111575
0.000112308
-0.000111413
4.61359e-07
0.00011219
1.40893e-06
4.65049e-07
-3.24586e-10
-0.000115259
3.43841e-07
0.000115962
-6.24047e-07
-0.000115259
3.4375e-07
-4.22508e-07
0.000115962
-6.23965e-07
-1.10379e-10
3.2635e-07
-5.93268e-07
3.26246e-07
-4.24882e-07
-5.93208e-07
-2.31221e-10
-0.000111284
0.000112089
-0.000111283
-4.62309e-07
0.000112089
-8.16995e-11
-4.65362e-07
-1.32139e-07
-0.000115305
-1.63297e-07
0.000115992
-8.14077e-07
-0.000115361
3.37795e-08
2.75017e-06
0.00011602
-3.57472e-06
-1.33725e-07
-1.82033e-07
-7.84975e-07
1.30891e-08
2.75298e-06
-3.54882e-06
-1.40454e-06
-0.000111412
0.000112191
-0.000111574
-2.10677e-06
0.00011231
-1.40966e-06
-2.10845e-06
2.00965e-06
-0.000115382
1.85921e-05
0.000116006
-1.84757e-05
-0.000115219
-1.52205e-05
0.000115826
1.66232e-05
2.00334e-06
1.85741e-05
-1.84445e-05
-1.52436e-05
1.66731e-05
1.57961e-05
-0.000111644
0.000112333
-0.000110958
0.000111533
1.58204e-05
-1.95779e-06
-0.000116421
-1.48161e-05
0.000117023
1.61715e-05
-0.000116635
1.81848e-05
-2.68431e-06
0.000117273
-1.80965e-05
-1.96239e-06
-1.48492e-05
1.62198e-05
1.81946e-05
-2.68921e-06
-1.80992e-05
-1.54227e-05
-0.000112153
0.000112759
-0.000113004
2.05839e-06
0.000113708
-1.54626e-05
2.05819e-06
1.26236e-07
-0.000116679
5.52814e-08
0.000117341
-3.52825e-06
-0.000116674
-1.3337e-07
4.08467e-07
0.000117359
-8.34605e-07
1.27068e-07
4.34608e-08
-3.51923e-06
-1.45067e-07
4.10398e-07
-8.20166e-07
1.36474e-06
-0.000113041
0.00011379
-0.000112965
4.46234e-07
0.000113751
1.36883e-06
4.48854e-07
-1.92702e-10
-0.000116657
3.61337e-07
0.000117355
-6.51185e-07
-0.000116657
3.61296e-07
-4.08769e-07
0.000117355
-6.5114e-07
-3.38825e-10
3.50817e-07
-6.35216e-07
3.5074e-07
-4.11127e-07
-6.35145e-07
-3.98131e-10
-0.000112889
0.000113697
-0.00011289
-4.47038e-07
0.000113697
-3.95575e-10
-4.50063e-07
-1.26508e-07
-0.000116674
-1.33263e-07
0.000117359
-8.34418e-07
-0.00011668
5.71918e-08
2.68294e-06
0.000117341
-3.52834e-06
-1.28227e-07
-1.45007e-07
-8.1998e-07
4.59565e-08
2.68621e-06
-3.52018e-06
-1.36494e-06
-0.000112967
0.000113752
-0.000113045
-2.05501e-06
0.000113792
-1.37103e-06
-2.05993e-06
1.96349e-06
-0.000116636
1.81782e-05
0.000117271
-1.80939e-05
-0.00011642
-1.48101e-05
0.000117026
1.61682e-05
1.96681e-06
1.81941e-05
-1.81046e-05
-1.48551e-05
1.62275e-05
1.54231e-05
-0.000113009
0.000113709
-0.000112137
0.00011275
1.54583e-05
-1.90969e-06
-0.000117612
-1.44419e-05
0.000118207
1.57561e-05
-0.000117906
1.77581e-05
-2.61586e-06
0.000118529
-1.76748e-05
-1.91308e-06
-1.44634e-05
1.57878e-05
1.77783e-05
-2.62301e-06
-1.77007e-05
-1.50407e-05
-0.000113374
0.000113973
-0.000114397
2.008e-06
0.000115107
-1.50781e-05
2.01102e-06
1.24179e-07
-0.000117993
6.14011e-08
0.000118637
-3.44486e-06
-0.000118031
-1.19501e-07
3.96993e-07
0.000118697
-8.19092e-07
1.23462e-07
5.79944e-08
-3.4564e-06
-1.23162e-07
3.98261e-07
-8.23647e-07
1.32673e-06
-0.000114527
0.00011527
-0.000114524
4.33036e-07
0.000115298
1.3316e-06
4.34969e-07
5.21146e-11
-0.000118039
3.61997e-07
0.000118716
-6.42564e-07
-0.000118039
3.61776e-07
-3.96774e-07
0.000118716
-6.42496e-07
-5.84027e-11
3.60342e-07
-6.45486e-07
3.60251e-07
-3.98311e-07
-6.45443e-07
-8.62965e-12
-0.000114493
0.000115288
-0.000114493
-4.33309e-07
0.000115288
-2.09036e-10
-4.35515e-07
-1.23727e-07
-0.000118031
-1.19875e-07
0.000118697
-8.19038e-07
-0.000117993
6.32979e-08
2.61606e-06
0.000118637
-3.44631e-06
-1.23527e-07
-1.23232e-07
-8.23524e-07
5.98292e-08
2.62163e-06
-3.4571e-06
-1.32758e-06
-0.000114525
0.0001153
-0.000114529
-2.00701e-06
0.000115272
-1.33228e-06
-2.00959e-06
1.91321e-06
-0.000117902
1.7762e-05
0.000118527
-1.76837e-05
-0.000117616
-1.44444e-05
0.000118208
1.57655e-05
1.91765e-06
1.77784e-05
-1.77057e-05
-1.44649e-05
1.57927e-05
1.5047e-05
-0.000114397
0.000115105
-0.000113365
0.000113968
1.50803e-05
-1.87306e-06
-0.000118774
-1.40985e-05
0.000119322
1.54231e-05
-0.000119132
1.73286e-05
-2.54371e-06
0.000119715
-1.72406e-05
-1.87227e-06
-1.4113e-05
1.5419e-05
1.73545e-05
-2.55074e-06
-1.72798e-05
-1.47061e-05
-0.000114572
0.000115179
-0.000115783
1.96085e-06
0.000116445
-1.47122e-05
1.9656e-06
1.2551e-07
-0.000119262
4.53584e-08
0.000119866
-3.31926e-06
-0.00011934
-1.26693e-07
3.86928e-07
0.000119965
-7.59863e-07
1.23724e-07
5.37481e-08
-3.35334e-06
-1.19246e-07
3.87702e-07
-7.87438e-07
1.29307e-06
-0.000115992
0.000116706
-0.000116053
4.21955e-07
0.000116797
1.29705e-06
4.23232e-07
3.07745e-10
-0.000119369
3.40747e-07
0.000120005
-5.89661e-07
-0.000119369
3.40378e-07
-3.86217e-07
0.000120005
-5.89465e-07
1.83583e-10
3.50676e-07
-6.15888e-07
3.5028e-07
-3.87223e-07
-6.15701e-07
3.48023e-10
-0.000116061
0.000116824
-0.000116062
-4.21522e-07
0.000116824
1.753e-10
-4.23296e-07
-1.24886e-07
-0.00011934
-1.27526e-07
0.000119966
-7.59137e-07
-0.000119262
4.48016e-08
2.54321e-06
0.000119868
-3.31827e-06
-1.23098e-07
-1.20204e-07
-7.86877e-07
5.38283e-08
2.55109e-06
-3.35348e-06
-1.29293e-06
-0.000116054
0.000116798
-0.000115993
-1.95997e-06
0.000116705
-1.29831e-06
-1.96601e-06
1.87178e-06
-0.000119134
1.733e-05
0.000119718
-1.72425e-05
-0.000118769
-1.41004e-05
0.00011932
1.54221e-05
1.87326e-06
1.73591e-05
-1.7288e-05
-1.41142e-05
1.5426e-05
1.47057e-05
-0.000115778
0.000116443
-0.000114574
0.000115179
1.47201e-05
-1.82213e-06
-0.000119837
-1.38071e-05
0.000120336
1.51301e-05
-0.000120266
1.68752e-05
-2.47039e-06
0.00012078
-1.674e-05
-1.82677e-06
-1.38115e-05
1.51237e-05
1.69352e-05
-2.48077e-06
-1.68325e-05
-1.43185e-05
-0.000115737
0.000116248
-0.000117085
1.92324e-06
0.000117718
-1.4369e-05
1.92621e-06
1.29068e-07
-0.00012044
8.85521e-10
0.000120978
-3.13888e-06
-0.000120555
-1.57945e-07
3.77514e-07
0.000121114
-6.4929e-07
1.25985e-07
2.54715e-08
-3.20531e-06
-1.38031e-07
3.78253e-07
-7.04587e-07
1.25929e-06
-0.000117392
0.000118057
-0.000117511
4.11624e-07
0.000118201
1.26512e-06
4.12996e-07
2.15516e-10
-0.000120604
2.9378e-07
0.000121173
-4.85208e-07
-0.000120604
2.93663e-07
-3.76904e-07
0.000121173
-4.85218e-07
3.23018e-10
3.17473e-07
-5.39077e-07
3.17264e-07
-3.77432e-07
-5.38983e-07
4.60734e-11
-0.000117554
0.000118259
-0.000117554
-4.11435e-07
0.000118259
3.93554e-10
-4.12049e-07
-1.28237e-07
-0.000120556
-1.57992e-07
0.000121114
-6.49319e-07
-0.00012044
2.30313e-09
2.47119e-06
0.000120978
-3.13977e-06
-1.25062e-07
-1.38293e-07
-7.04197e-07
2.59522e-08
2.48102e-06
-3.20477e-06
-1.25856e-06
-0.000117511
0.0001182
-0.000117388
-1.92037e-06
0.000118052
-1.26297e-06
-1.91954e-06
1.82099e-06
-0.000120268
1.6886e-05
0.000120783
-1.67504e-05
-0.000119834
-1.38167e-05
0.00012033
1.51412e-05
1.82683e-06
1.69363e-05
-1.68329e-05
-1.38091e-05
1.51216e-05
1.43323e-05
-0.000117077
0.00011771
-0.000115753
0.000116268
1.43829e-05
-1.78075e-06
-0.000120773
-1.34901e-05
0.000121167
1.48774e-05
-0.000121249
1.6357e-05
-2.40213e-06
0.000121678
-1.61638e-05
-1.78729e-06
-1.34929e-05
1.48423e-05
1.64425e-05
-2.40842e-06
-1.62913e-05
-1.39395e-05
-0.000116755
0.000117204
-0.000118282
1.87665e-06
0.000118823
-1.39995e-05
1.87908e-06
1.32406e-07
-0.000121471
-7.51864e-08
0.000121911
-2.89864e-06
-0.000121624
-2.16676e-07
3.68064e-07
0.000122087
-4.82147e-07
1.29553e-07
-3.57319e-08
-2.99562e-06
-1.82238e-07
3.68772e-07
-5.67193e-07
1.22114e-06
-0.000118672
0.000119252
-0.000118845
4.01238e-07
0.000119448
1.2284e-06
4.02233e-07
-8.43103e-11
-0.000121692
2.1682e-07
0.000122165
-3.22007e-07
-0.000121692
2.16686e-07
-3.68191e-07
0.000122166
-3.22002e-07
8.37409e-11
2.56596e-07
-4.07229e-07
2.56543e-07
-3.68493e-07
-4.07309e-07
-4.60625e-10
-0.000118918
0.000119537
-0.000118918
-4.02472e-07
0.000119537
-2.06688e-10
-4.02624e-07
-1.33046e-07
-0.000121625
-2.16716e-07
0.000122088
-4.81915e-07
-0.000121472
-7.27318e-08
2.39917e-06
0.000121912
-2.89948e-06
-1.2929e-07
-1.81928e-07
-5.67514e-07
-3.29689e-08
2.40792e-06
-2.99751e-06
-1.22322e-06
-0.000118844
0.000119448
-0.00011867
-1.87922e-06
0.000119254
-1.2284e-06
-1.87977e-06
1.77881e-06
-0.000121253
1.63849e-05
0.000121676
-1.61868e-05
-0.000120772
-1.35228e-05
0.000121172
1.49014e-05
1.78198e-06
1.64604e-05
-1.63049e-05
-1.35184e-05
1.48588e-05
1.39603e-05
-0.000118287
0.000118832
-0.000116754
0.000117191
1.40038e-05
-1.72832e-06
-0.000121485
-1.32512e-05
0.000121751
1.47135e-05
-0.000122058
1.58444e-05
-2.3331e-06
0.000122365
-1.55467e-05
-1.73094e-06
-1.32177e-05
1.46302e-05
1.59262e-05
-2.34315e-06
-1.56939e-05
-1.35806e-05
-0.000117604
0.000117933
-0.000119292
1.84172e-06
0.000119714
-1.36171e-05
1.83992e-06
1.41602e-07
-0.000122298
-2.03728e-07
0.000122621
-2.59402e-06
-0.000122489
-3.02522e-07
3.6013e-07
0.000122829
-2.55941e-07
1.35224e-07