/*--------------------------------*- C++ -*----------------------------------*\
  =========                 |
  \\      /  F ield         | OpenFOAM: The Open Source CFD Toolbox
   \\    /   O peration     | Website:  https://openfoam.org
    \\  /    A nd           | Version:  9
     \\/     M anipulation  |
\*---------------------------------------------------------------------------*/
FoamFile
{
    format      ascii;
    class       volVectorField;
    location    "4.7";
    object      U;
}
// * * * * * * * * * * * * * * * * * * * * * * * * * * * * * * * * * * * * * //

dimensions      [0 1 -1 0 0 0 0];

internalField   nonuniform List<vector> 
36360
(
(0.0479326 -0.242466 -0.851513)
(-0.0383248 -0.193954 0.00325133)
(0.0532665 -0.279498 -0.876922)
(-0.0386707 -0.16156 0.00302889)
(0.0488074 -0.299126 -0.968129)
(-0.050939 -0.153325 -0.00288781)
(0.0878289 -0.381913 -0.977456)
(-0.0622859 -0.0969689 -0.00204536)
(-0.00237324 -0.187976 -0.00212258)
(0.00343073 -0.190719 -0.000399518)
(-0.00260076 -0.182543 -0.00210103)
(0.00394535 -0.18953 -0.000442605)
(0.00808708 -0.157817 0.00218396)
(0.00459631 -0.176039 0.000428262)
(0.0104983 -0.156044 0.00148656)
(0.0122783 -0.184861 0.000189998)
(0.00319822 -0.19291 -4.11181e-05)
(0.00319824 -0.19291 4.11232e-05)
(0.00430913 -0.192171 -4.7313e-05)
(0.00430914 -0.192171 4.73174e-05)
(0.00261705 -0.183456 4.25316e-05)
(0.00261708 -0.183456 -4.25196e-05)
(0.0117597 -0.192944 9.74813e-06)
(0.0117597 -0.192945 -9.74521e-06)
(0.00343091 -0.190719 0.000399513)
(-0.00237247 -0.187976 0.00212255)
(0.00394549 -0.18953 0.00044259)
(-0.00260006 -0.182542 0.00210098)
(0.0045964 -0.17604 -0.000428207)
(0.00808733 -0.157817 -0.00218381)
(0.0122785 -0.184862 -0.000189972)
(0.0104988 -0.156045 -0.00148646)
(-0.0383229 -0.193953 -0.00325113)
(0.0479302 -0.242467 0.851523)
(-0.0386691 -0.161559 -0.00302865)
(0.0532634 -0.279499 0.876933)
(-0.0509361 -0.153324 0.00288753)
(0.0488054 -0.299128 0.968131)
(-0.0622829 -0.0969693 0.00204514)
(0.0878245 -0.381911 0.977458)
(0.0480495 -0.228615 -0.845829)
(-0.0414606 -0.201019 7.08994e-05)
(0.048153 -0.237328 -0.849395)
(-0.0405916 -0.196956 0.00126239)
(0.0475724 -0.257982 -0.970088)
(-0.0547549 -0.178339 -0.006086)
(0.0470069 -0.275316 -0.971369)
(-0.0542448 -0.164468 -0.00459182)
(-0.00620795 -0.191048 -0.000694354)
(0.00101074 -0.190249 0.000294536)
(-0.00478936 -0.18819 -0.00108518)
(0.00201198 -0.1897 1.33551e-05)
(0.00444083 -0.164719 0.00366333)
(0.00227517 -0.173538 0.00123424)
(0.00531007 -0.158441 0.0031281)
(0.0029825 -0.173061 0.000859915)
(0.00176693 -0.191425 0.000114291)
(0.00176694 -0.191425 -0.00011426)
(0.00229556 -0.191794 3.64402e-05)
(0.00229557 -0.191794 -3.64226e-05)
(0.00123478 -0.180006 0.000207122)
(0.00123481 -0.180006 -0.000207086)
(0.00149213 -0.180708 0.00011925)
(0.00149215 -0.180708 -0.000119225)
(0.00101083 -0.190249 -0.000294492)
(-0.00620743 -0.191048 0.000694351)
(0.00201212 -0.189699 -1.33332e-05)
(-0.00478872 -0.188189 0.00108518)
(0.00227521 -0.173538 -0.00123414)
(0.00444095 -0.164718 -0.00366317)
(0.00298254 -0.173061 -0.000859832)
(0.00531013 -0.158441 -0.00312793)
(-0.0414591 -0.201018 -7.08852e-05)
(0.0480478 -0.228616 0.845838)
(-0.04059 -0.196955 -0.00126232)
(0.0481509 -0.237329 0.849404)
(-0.0547529 -0.178337 0.00608559)
(0.0475707 -0.257984 0.97009)
(-0.0542426 -0.164466 0.00459146)
(0.0470048 -0.275318 0.971371)
(0.045912 -0.217952 -0.839465)
(-0.0410986 -0.203767 -0.00134987)
(0.0469725 -0.222214 -0.842093)
(-0.0413071 -0.202886 -0.000739921)
(0.0440754 -0.230895 -0.968063)
(-0.0529345 -0.192304 -0.00805737)
(0.0456387 -0.242202 -0.968945)
(-0.0537468 -0.187149 -0.00720986)
(-0.00645188 -0.195318 -0.00061521)
(0.000205559 -0.192321 0.000654515)
(-0.00651536 -0.193397 -0.000594068)
(0.000480678 -0.191165 0.000508608)
(0.00502136 -0.176508 0.00395253)
(0.00153018 -0.176274 0.00173647)
(0.00455734 -0.171206 0.00390007)
(0.00171096 -0.174654 0.00152804)
(0.00102919 -0.192 0.000264441)
(0.00102919 -0.192 -0.000264369)
(0.00136831 -0.191509 0.000196874)
(0.00136831 -0.191509 -0.00019683)
(0.000575295 -0.179414 0.000385262)
(0.000575338 -0.179414 -0.000385299)
(0.000906627 -0.179434 0.000300061)
(0.000906657 -0.179434 -0.00030003)
(0.000205609 -0.192321 -0.000654418)
(-0.00645148 -0.195318 0.000615199)
(0.000480734 -0.191165 -0.000508554)
(-0.00651495 -0.193396 0.000594057)
(0.00153016 -0.176273 -0.00173645)
(0.00502139 -0.176507 -0.00395247)
(0.00171096 -0.174654 -0.00152795)
(0.00455737 -0.171205 -0.00389994)
(-0.0410973 -0.203767 0.00134981)
(0.0459106 -0.217952 0.839473)
(-0.0413058 -0.202885 0.000739911)
(0.0469709 -0.222215 0.842102)
(-0.0529329 -0.192302 0.00805696)
(0.0440741 -0.230897 0.968065)
(-0.053745 -0.187147 0.00720942)
(0.0456371 -0.242204 0.968947)
(0.0445481 -0.212742 -0.834431)
(-0.0409289 -0.20446 -0.00214603)
(0.0450995 -0.214931 -0.836396)
(-0.0409598 -0.204213 -0.00180452)
(0.0422562 -0.21725 -0.96655)
(-0.0521327 -0.196926 -0.00917025)
(0.0429444 -0.222962 -0.967195)
(-0.0523579 -0.195268 -0.00869147)
(-0.00615048 -0.198206 -0.000794862)
(7.13264e-05 -0.194785 0.00077677)
(-0.00629491 -0.196898 -0.000692359)
(9.31122e-05 -0.193553 0.000737748)
(0.00583711 -0.18437 0.00381316)
(0.0017134 -0.180254 0.00193612)
(0.00551492 -0.180889 0.00390625)
(0.00157909 -0.178214 0.0018665)
(0.000556563 -0.193696 0.000345682)
(0.000556516 -0.193696 -0.000345671)
(0.000754279 -0.192759 0.000312977)
(0.000754308 -0.192759 -0.000312715)
(3.12686e-05 -0.180741 0.000509325)
(3.12403e-05 -0.180742 -0.000509226)
(0.000285253 -0.179868 0.000455344)
(0.00028533 -0.179868 -0.000455696)
(7.12874e-05 -0.194784 -0.000776614)
(-0.00615016 -0.198205 0.000794859)
(9.3269e-05 -0.193553 -0.000736822)
(-0.0062941 -0.196898 0.000692391)
(0.00171325 -0.180254 -0.00193618)
(0.0058371 -0.18437 -0.00381316)
(0.0015792 -0.178213 -0.0018675)
(0.00551575 -0.180888 -0.00390634)
(-0.0409278 -0.20446 0.00214596)
(0.0445468 -0.212743 0.834439)
(-0.0409584 -0.204212 0.00180366)
(0.0450981 -0.214932 0.836403)
(-0.0521312 -0.196925 0.00916988)
(0.042255 -0.217251 0.966551)
(-0.0523561 -0.195267 0.00869195)
(0.042943 -0.222964 0.967198)
(0.0438316 -0.21003 -0.830331)
(-0.0410227 -0.204799 -0.00259999)
(0.0441253 -0.21116 -0.831877)
(-0.04094 -0.204633 -0.00240223)
(0.0413707 -0.209989 -0.965393)
(-0.0519953 -0.198345 -0.00980832)
(0.0416909 -0.213072 -0.965876)
(-0.0519661 -0.197838 -0.00953052)
(-0.0059436 -0.200284 -0.00100907)
(0.000130244 -0.197168 0.000769662)
(-0.00603136 -0.199317 -0.000903153)
(9.34109e-05 -0.195992 0.000782994)
(0.00617325 -0.189179 0.00358569)
(0.00198291 -0.184257 0.00195501)
(0.00605692 -0.187082 0.00369994)
(0.00185797 -0.182284 0.00195968)
(0.00033818 -0.195854 0.000375587)
(0.000338103 -0.195854 -0.00037562)
(0.000422821 -0.194742 0.00036482)
(0.000422368 -0.194742 -0.000365878)
(-0.000268579 -0.183197 0.000566926)
(-0.000268643 -0.183196 -0.000566695)
(-0.000159109 -0.181874 0.000546438)
(-0.00015995 -0.181874 -0.000544936)
(0.000130161 -0.197168 -0.000769577)
(-0.00594337 -0.200284 0.00100907)
(9.31574e-05 -0.195992 -0.000782076)
(-0.0060312 -0.199316 0.000903303)
(0.00198271 -0.184256 -0.00195496)
(0.00617314 -0.189178 -0.00358566)
(0.00185754 -0.182284 -0.00196049)
(0.00605671 -0.187081 -0.00370017)
(-0.0410218 -0.204799 0.00260001)
(0.0438302 -0.21003 0.830338)
(-0.0409391 -0.204633 0.00240227)
(0.0441238 -0.211161 0.831884)
(-0.0519941 -0.198344 0.00980793)
(0.0413694 -0.209991 0.965394)
(-0.0519648 -0.197838 0.00953001)
(0.0416894 -0.213074 0.965877)
(0.0433946 -0.208734 -0.826838)
(-0.0412173 -0.205247 -0.00287088)
(0.0435759 -0.209246 -0.828088)
(-0.0411057 -0.204999 -0.00275127)
(0.0408778 -0.206016 -0.964479)
(-0.0520569 -0.198894 -0.0101952)
(0.0410407 -0.207705 -0.964848)
(-0.0519688 -0.198657 -0.0100237)
(-0.00584939 -0.201976 -0.00119219)
(0.000188488 -0.199396 0.000711649)
(-0.0058789 -0.201159 -0.00110493)
(0.000165491 -0.198303 0.000743902)
(0.00634815 -0.192231 0.00337922)
(0.00214 -0.187821 0.00190115)
(0.00627414 -0.190841 0.00347735)
(0.00207569 -0.186111 0.00193273)
(0.000256792 -0.198132 0.000375)
(0.000256746 -0.198132 -0.000374947)
(0.000287998 -0.196991 0.000377919)
(0.000287964 -0.196991 -0.000377869)
(-0.000336099 -0.186128 0.000574561)
(-0.000336101 -0.186128 -0.00057446)
(-0.00031727 -0.184634 0.000575006)
(-0.000317268 -0.184634 -0.000574883)
(0.000188398 -0.199396 -0.000711585)
(-0.00584918 -0.201976 0.00119223)
(0.000165443 -0.198303 -0.000743855)
(-0.00587866 -0.201159 0.00110492)
(0.0021399 -0.187821 -0.00190097)
(0.00634812 -0.19223 -0.00337895)
(0.00207556 -0.186111 -0.00193261)
(0.00627409 -0.19084 -0.00347725)
(-0.0412166 -0.205248 0.00287091)
(0.0433935 -0.208735 0.826844)
(-0.0411048 -0.204999 0.00275128)
(0.0435744 -0.209247 0.828095)
(-0.0520557 -0.198895 0.0101949)
(0.0408764 -0.206017 0.96448)
(-0.0519676 -0.198657 0.0100233)
(0.041039 -0.207706 0.964849)
(0.0430009 -0.208323 -0.823753)
(-0.0413755 -0.205925 -0.00303909)
(0.0431829 -0.208438 -0.82482)
(-0.0412897 -0.205555 -0.00296375)
(0.0405205 -0.203891 -0.961635)
(-0.0521365 -0.199383 -0.0104418)
(0.04064 -0.20477 -0.964027)
(-0.052049 -0.199121 -0.0103279)
(-0.00584414 -0.203539 -0.00133455)
(0.000194229 -0.201494 0.000641203)
(-0.00583559 -0.202763 -0.00126752)
(0.000199126 -0.200457 0.000676165)
(0.0064476 -0.194532 0.00321288)
(0.00221005 -0.190886 0.00182688)
(0.00640991 -0.19344 0.0032898)
(0.00218293 -0.189405 0.00186423)
(0.000209051 -0.200403 0.000359944)
(0.000208921 -0.200403 -0.000360024)
(0.000234205 -0.199271 0.000368083)
(0.000234128 -0.199271 -0.000368113)
(-0.000340429 -0.189142 0.000559681)
(-0.000340457 -0.189142 -0.000560012)
(-0.000344814 -0.18764 0.000568483)
(-0.000344824 -0.187639 -0.000568691)
(0.000193911 -0.201494 -0.000641311)
(-0.00584459 -0.203539 0.00133442)
(0.000198973 -0.200457 -0.00067615)
(-0.00583554 -0.202762 0.0012676)
(0.00220982 -0.190885 -0.00182741)
(0.00644753 -0.194531 -0.0032138)
(0.00218279 -0.189404 -0.00186435)
(0.00640984 -0.193439 -0.00328961)
(-0.0413875 -0.205925 0.00303933)
(0.0430142 -0.208325 0.823759)
(-0.0412948 -0.205555 0.00296395)
(0.0431883 -0.208439 0.824826)
(-0.0521343 -0.199382 0.0104466)
(0.0405202 -0.203895 0.961116)
(-0.0520478 -0.199122 0.0103298)
(0.0406394 -0.204773 0.964026)
(0.0426316 -0.20853 -0.820945)
(-0.041512 -0.206865 -0.00314672)
(0.0427854 -0.20836 -0.821869)
(-0.0414235 -0.206363 -0.00309781)
(0.0402256 -0.202942 -0.959702)
(-0.0521895 -0.200088 -0.0105962)
(0.0403173 -0.203298 -0.961204)
(-0.0521161 -0.199701 -0.0105244)
(-0.00590299 -0.20512 -0.00144093)
(0.000145285 -0.203536 0.000575804)
(-0.00586233 -0.204322 -0.00139103)
(0.000176666 -0.202518 0.000607305)
(0.00649146 -0.196528 0.00308219)
(0.00222789 -0.193629 0.00175394)
(0.00647893 -0.195549 0.0031419)
(0.00222462 -0.192286 0.00178916)
(0.000148369 -0.202644 0.000341464)
(0.00014811 -0.202644 -0.000341193)
(0.000181064 -0.201526 0.000350683)
(0.000180822 -0.201526 -0.000350586)
(-0.00032498 -0.192075 0.000538173)
(-0.00032513 -0.192075 -0.000537672)
(-0.000332056 -0.190621 0.000549248)
(-0.000332146 -0.190621 -0.00054904)
(0.000144798 -0.203535 -0.000575591)
(-0.00589995 -0.205119 0.00144107)
(0.000175981 -0.202517 -0.000607338)
(-0.00586348 -0.204321 0.00139073)
(0.0022272 -0.193629 -0.0017532)
(0.00649037 -0.19653 -0.0030811)
(0.00222419 -0.192287 -0.00178925)
(0.00647855 -0.19555 -0.003143)
(-0.0414886 -0.206865 0.00314643)
(0.0426039 -0.208531 0.820977)
(-0.0414336 -0.206362 0.00309774)
(0.0427974 -0.208361 0.821876)
(-0.0521896 -0.200086 0.0105929)
(0.0402217 -0.20294 0.959705)
(-0.0521135 -0.199698 0.0105268)
(0.0403158 -0.203301 0.960677)
(0.0423568 -0.209209 -0.818396)
(-0.0417063 -0.208066 -0.00321541)
(0.0424761 -0.208817 -0.819136)
(-0.0415981 -0.207433 -0.00318353)
(0.0399499 -0.202763 -0.95606)
(-0.0521924 -0.201093 -0.0107105)
(0.0400354 -0.202769 -0.956245)
(-0.0521421 -0.200551 -0.0106628)
(-0.00601004 -0.206795 -0.00151847)
(5.21933e-05 -0.205587 0.000520351)
(-0.00594949 -0.205943 -0.00148133)
(0.000103992 -0.204557 0.000546857)
(0.00650135 -0.198472 0.0029851)
(0.00221037 -0.196213 0.00169197)
(0.0065037 -0.197496 0.0030318)
(0.00222291 -0.194932 0.00172189)
(6.53285e-05 -0.204884 0.000323694)
(6.50593e-05 -0.204884 -0.000323298)
(0.000110126 -0.203762 0.0003322)
(0.000109986 -0.203762 -0.000331957)
(-0.000315785 -0.194917 0.000516834)
(-0.000315985 -0.194916 -0.000515861)
(-0.000318916 -0.193505 0.000527202)
(-0.000319025 -0.193505 -0.000526993)
(5.18998e-05 -0.205587 -0.00052009)
(-0.00600544 -0.206795 0.0015186)
(0.000104051 -0.204556 -0.000546682)
(-0.00594433 -0.205942 0.00148148)
(0.0022095 -0.196211 -0.0016904)
(0.00649956 -0.19847 -0.00298214)
(0.00222243 -0.194932 -0.00172156)
(0.0065027 -0.197497 -0.00303165)
(-0.0416849 -0.208065 0.00321617)
(0.0423285 -0.20921 0.818168)
(-0.0415819 -0.207433 0.00318339)
(0.0424515 -0.208818 0.819167)
(-0.0521952 -0.201092 0.0107022)
(0.0399488 -0.202774 0.957973)
(-0.0521428 -0.200553 0.0106627)
(0.0400306 -0.20277 0.955863)
(0.0421112 -0.210282 -0.814407)
(-0.0419042 -0.20951 -0.00325996)
(0.0422053 -0.209699 -0.816642)
(-0.0417798 -0.208759 -0.00323832)
(0.0396708 -0.203194 -0.962088)
(-0.0521424 -0.202413 -0.010746)
(0.0397792 -0.202903 -0.958705)
(-0.0521329 -0.201716 -0.0107288)
(-0.00614932 -0.208602 -0.00157392)
(-7.31656e-05 -0.207697 0.000474958)
(-0.00607443 -0.207681 -0.00154815)
(-7.25978e-06 -0.206633 0.000496075)
(0.00649168 -0.200482 0.00290009)
(0.00216975 -0.198746 0.00163661)
(0.00650063 -0.199464 0.00293897)
(0.00219227 -0.19748 0.0016623)
(-4.23984e-05 -0.207156 0.000308061)
(-4.28045e-05 -0.207156 -0.000308074)
(1.41955e-05 -0.206014 0.000315317)
(1.38275e-05 -0.206014 -0.000315138)
(-0.000317862 -0.197707 0.000496139)
(-0.000318233 -0.197707 -0.000497086)
(-0.000315137 -0.196316 0.00050594)
(-0.000315453 -0.196315 -0.000505722)
(-7.33463e-05 -0.207697 -0.000475202)
(-0.00613994 -0.208602 0.00157393)
(-7.55587e-06 -0.206632 -0.000496173)
(-0.00606744 -0.20768 0.00154779)
(0.00216824 -0.198745 -0.00163865)
(0.00649081 -0.200479 -0.00290624)
(0.00219081 -0.197479 -0.0016621)
(0.00649861 -0.19946 -0.00293922)
(-0.041867 -0.209505 0.00325802)
(0.0420527 -0.210283 0.815942)
(-0.0417505 -0.208753 0.00323875)
(0.0421627 -0.209702 0.816412)
(-0.0521288 -0.202405 0.0107697)
(0.0396371 -0.203214 0.955045)
(-0.0521336 -0.201709 0.0107331)
(0.0397707 -0.20293 0.957555)
(0.041827 -0.211678 -0.813598)
(-0.0420776 -0.211186 -0.00328475)
(0.0419718 -0.210941 -0.812688)
(-0.0419924 -0.210315 -0.00327326)
(0.0392802 -0.204154 -0.958024)
(-0.0519884 -0.204006 -0.0107882)
(0.0394494 -0.203615 -0.961785)
(-0.0520315 -0.203172 -0.0107652)
(-0.00629305 -0.210562 -0.00161201)
(-0.000216021 -0.209899 0.000439947)
(-0.00621951 -0.209562 -0.00159359)
(-0.000142691 -0.208785 0.000456325)
(0.00648029 -0.202614 0.00284279)
(0.002115 -0.201306 0.00159641)
(0.00648844 -0.20153 0.00286789)
(0.00214395 -0.200019 0.00161471)
(-0.000169227 -0.209493 0.000295911)
(-0.000169892 -0.209493 -0.00029545)
(-0.000103718 -0.208315 0.000301451)
(-0.000104115 -0.208315 -0.000301377)
(-0.000332606 -0.200495 0.000481365)
(-0.000333118 -0.200495 -0.000479381)
(-0.000323326 -0.199099 0.000488)
(-0.000323737 -0.199099 -0.000488346)
(-0.0002175 -0.2099 -0.00044023)
(-0.00628732 -0.210567 0.00160986)
(-0.000142665 -0.208785 -0.000456724)
(-0.00620765 -0.209563 0.00159265)
(0.00211345 -0.201306 -0.00159404)
(0.00647882 -0.202612 -0.00284015)
(0.0021426 -0.200019 -0.00161595)
(0.00648828 -0.201529 -0.00287276)
(-0.042016 -0.211203 0.00328467)
(0.0417531 -0.211665 0.808264)
(-0.0419317 -0.210325 0.00327106)
(0.0418849 -0.210934 0.811583)
(-0.052002 -0.204005 0.0107812)
(0.039283 -0.204139 0.958732)
(-0.0520179 -0.203169 0.0107847)
(0.0394118 -0.203616 0.955267)
(0.0415294 -0.21331 -0.811256)
(-0.0422298 -0.213114 -0.00329819)
(0.0416803 -0.21246 -0.811914)
(-0.0421611 -0.212122 -0.0032924)
(0.0388987 -0.205551 -0.957183)
(-0.0518156 -0.205838 -0.0108038)
(0.0389939 -0.204787 -0.956308)
(-0.0518074 -0.204893 -0.010805)
(-0.00643689 -0.212687 -0.00163669)
(-0.000369065 -0.212211 0.000412886)
(-0.00636224 -0.211606 -0.00162347)
(-0.000290757 -0.211041 0.000425922)
(0.00647074 -0.204894 0.00279713)
(0.00204817 -0.203941 0.00156351)
(0.00648226 -0.203734 0.00282017)
(0.0020837 -0.202612 0.00157992)
(-0.00030893 -0.211913 0.000286206)
(-0.000309527 -0.211914 -0.000285714)
(-0.000237858 -0.210692 0.000290823)
(-0.000238905 -0.210692 -0.000289965)
(-0.000360467 -0.203321 0.00046821)
(-0.000360789 -0.203321 -0.000466108)
(-0.000344737 -0.201901 0.000475076)
(-0.000345347 -0.201901 -0.000471781)
(-0.000371482 -0.212211 -0.000412372)
(-0.00644178 -0.212686 0.00163731)
(-0.000294649 -0.211042 -0.000425244)
(-0.00636714 -0.211609 0.00162367)
(0.00204702 -0.203942 -0.00156064)
(0.00646712 -0.204904 -0.00279262)
(0.00208157 -0.202612 -0.0015755)
(0.00647626 -0.203736 -0.00281356)
(-0.0422156 -0.21311 0.00329926)
(0.0415232 -0.213318 0.811295)
(-0.042121 -0.21213 0.00329217)
(0.0416476 -0.212454 0.809178)
(-0.0518709 -0.205858 0.0107851)
(0.0389656 -0.205518 0.96123)
(-0.0518865 -0.204901 0.0107786)
(0.0390825 -0.204762 0.96136)
(0.0411914 -0.215206 -0.808987)
(-0.0423106 -0.215208 -0.00330005)
(0.0413352 -0.214213 -0.80959)
(-0.0422517 -0.214145 -0.00329774)
(0.0386948 -0.207262 -0.9576)
(-0.0517805 -0.207945 -0.0107873)
(0.0387717 -0.206352 -0.958205)
(-0.0517655 -0.20685 -0.0107915)
(-0.00658106 -0.214944 -0.00165268)
(-0.000525974 -0.214629 0.000393321)
(-0.00650677 -0.213799 -0.00164527)
(-0.000447776 -0.213407 0.000401838)
(0.0064114 -0.207347 0.00276122)
(0.00196456 -0.206671 0.00153503)
(0.00645119 -0.206098 0.00277604)
(0.00200829 -0.205293 0.00154766)
(-0.000452763 -0.214423 0.00027804)
(-0.000451832 -0.214423 -0.000279235)
(-0.000380993 -0.213157 0.000281616)
(-0.000380473 -0.213157 -0.000282169)
(-0.000399485 -0.206211 0.000455258)
(-0.000398819 -0.206211 -0.000457818)
(-0.000378742 -0.204757 0.000461085)
(-0.000378456 -0.204757 -0.000461835)
(-0.000522152 -0.21463 -0.000394858)
(-0.00657556 -0.214944 0.0016499)
(-0.000445148 -0.213407 -0.000402576)
(-0.00649867 -0.213796 0.00164407)
(0.00196694 -0.206672 -0.0015387)
(0.00641588 -0.207351 -0.00276747)
(0.00200936 -0.205294 -0.00154861)
(0.00645408 -0.206108 -0.00277685)
(-0.0423563 -0.215196 0.00330483)
(0.0412237 -0.21522 0.80727)
(-0.0422376 -0.214136 0.00330166)
(0.0413101 -0.214224 0.809627)
(-0.0517553 -0.20796 0.0108162)
(0.0386605 -0.207226 0.953232)
(-0.0517562 -0.206874 0.0107988)
(0.0387564 -0.206341 0.957155)
(0.0409484 -0.217283 -0.801155)
(-0.0424426 -0.217455 -0.00329999)
(0.0410671 -0.216215 -0.804433)
(-0.0423804 -0.216316 -0.00329841)
(0.0384015 -0.209194 -0.960433)
(-0.0516363 -0.21028 -0.0107691)
(0.0384869 -0.208156 -0.957246)
(-0.0516431 -0.20909 -0.0107849)
(-0.00670723 -0.217334 -0.00165657)
(-0.000668934 -0.217146 0.000381127)
(-0.00664595 -0.216124 -0.0016539)
(-0.000599741 -0.215877 0.000386777)
(0.0063377 -0.20996 0.0027342)
(0.00187621 -0.209506 0.00151427)
(0.00637997 -0.208636 0.00274918)
(0.00192071 -0.208077 0.0015247)
(-0.000587999 -0.217013 0.000272908)
(-0.000587925 -0.217013 -0.000272657)
(-0.000522469 -0.21571 0.000275192)
(-0.000522065 -0.21571 -0.00027557)
(-0.00044324 -0.209175 0.000447022)
(-0.000442685 -0.209174 -0.000447422)
(-0.000420898 -0.207684 0.000451097)
(-0.000420301 -0.207684 -0.000452161)
(-0.000669827 -0.217147 -0.000379808)
(-0.0067145 -0.217334 0.00165966)
(-0.00059919 -0.215878 -0.000386652)
(-0.00665074 -0.216125 0.00165438)
(0.00187817 -0.209504 -0.00151372)
(0.00633994 -0.209957 -0.0027313)
(0.00192274 -0.208077 -0.00152514)
(0.00638241 -0.208636 -0.00274751)
(-0.0424403 -0.217454 0.00329641)
(0.0409523 -0.217287 0.803993)
(-0.042404 -0.216296 0.00329993)
(0.0410909 -0.216232 0.805544)
(-0.0515644 -0.210279 0.0107676)
(0.0383232 -0.209203 0.959309)
(-0.0515933 -0.209093 0.0107912)
(0.0384277 -0.208162 0.956626)
(0.0406327 -0.219496 -0.804601)
(-0.0424438 -0.219808 -0.00329127)
(0.0407545 -0.218372 -0.802231)
(-0.0424227 -0.218613 -0.00329447)
(0.038099 -0.211363 -0.960053)
(-0.0514454 -0.21277 -0.0107292)
(0.0381903 -0.210239 -0.960149)
(-0.0514795 -0.211501 -0.0107479)
(-0.00678967 -0.219807 -0.00165963)
(-0.000782899 -0.219727 0.000371048)
(-0.00674648 -0.218563 -0.00165754)
(-0.000728927 -0.218432 0.000375535)
(0.00626478 -0.212682 0.00271164)
(0.00179265 -0.212417 0.00149704)
(0.00630636 -0.211309 0.00272134)
(0.0018338 -0.210954 0.00150485)
(-0.000698906 -0.219656 0.000268094)
(-0.000698978 -0.219656 -0.000269116)
(-0.000647079 -0.21833 0.000270243)
(-0.000647167 -0.21833 -0.000270474)
(-0.000485807 -0.212199 0.000439782)
(-0.000485447 -0.212198 -0.000441143)
(-0.000464831 -0.210681 0.000443235)
(-0.000464391 -0.21068 -0.000443761)
(-0.000784035 -0.219727 -0.000372665)
(-0.0068009 -0.219807 0.00165619)
(-0.000730514 -0.218431 -0.00037547)
(-0.00675852 -0.218563 0.00165773)
(0.00179385 -0.212417 -0.00149896)
(0.00626479 -0.212682 -0.00271498)
(0.00183534 -0.210952 -0.00150498)
(0.00630689 -0.211305 -0.00272025)
(-0.0424817 -0.219816 0.00329593)
(0.0406744 -0.219492 0.801753)
(-0.0424464 -0.218631 0.00329447)
(0.0407868 -0.21835 0.802241)
(-0.0514173 -0.212771 0.0107499)
(0.038063 -0.211375 0.956023)
(-0.0514317 -0.211498 0.0107535)
(0.0381358 -0.210245 0.958998)
(0.0404368 -0.221781 -0.802521)
(-0.0424655 -0.222207 -0.00327814)
(0.0405218 -0.220623 -0.80288)
(-0.0424544 -0.221005 -0.00328455)
(0.0377628 -0.213671 -0.956256)
(-0.0511864 -0.215374 -0.0107035)
(0.0378831 -0.212492 -0.959759)
(-0.0512642 -0.21406 -0.0107136)
(-0.00683791 -0.222317 -0.0016531)
(-0.000856342 -0.22233 0.000366457)
(-0.00681881 -0.22106 -0.00165522)
(-0.000825689 -0.221029 0.000368359)
(0.00620887 -0.215486 0.00270287)
(0.00172489 -0.215377 0.00148611)
(0.00623968 -0.214076 0.00270504)
(0.00175652 -0.213893 0.00149068)
(-0.000771776 -0.222311 0.000265145)
(-0.000771973 -0.222311 -0.000265655)
(-0.000741158 -0.220985 0.000266268)
(-0.00074129 -0.220985 -0.00026731)
(-0.000519857 -0.215255 0.000434632)
(-0.000519596 -0.215255 -0.000435803)
(-0.000504161 -0.213725 0.000436807)
(-0.00050383 -0.213726 -0.000438525)
(-0.000857746 -0.222331 -0.000366893)
(-0.00684449 -0.222318 0.00165219)
(-0.000827028 -0.22103 -0.000369815)
(-0.00682892 -0.221061 0.00165224)
(0.00172547 -0.21538 -0.00148638)
(0.00620921 -0.215492 -0.00269981)
(0.00175744 -0.213895 -0.00149263)
(0.0062403 -0.214081 -0.00270735)
(-0.0424654 -0.222209 0.00328189)
(0.0404456 -0.221782 0.802524)
(-0.042486 -0.221004 0.0032888)
(0.0405594 -0.220621 0.799985)
(-0.0511439 -0.21538 0.0107117)
(0.0377171 -0.213661 0.955456)
(-0.0512235 -0.214064 0.0107352)
(0.0378343 -0.212461 0.955649)
(0.0401952 -0.224033 -0.798706)
(-0.0423176 -0.22462 -0.00326174)
(0.0402688 -0.2229 -0.800828)
(-0.0423671 -0.223418 -0.00326749)
(0.0374633 -0.215987 -0.954948)
(-0.0509002 -0.21803 -0.0106506)
(0.0375469 -0.214817 -0.955902)
(-0.0509807 -0.216696 -0.0106732)
(-0.00681643 -0.224802 -0.00164256)
(-0.000871791 -0.224896 0.000364552)
(-0.00683114 -0.223568 -0.00164794)
(-0.000871766 -0.223622 0.000364787)
(0.00616491 -0.218308 0.00268786)
(0.0016797 -0.218332 0.0014756)
(0.00618976 -0.2169 0.00269295)
(0.00169919 -0.21686 0.00147993)
(-0.000790168 -0.224921 0.000263119)
(-0.000789968 -0.224921 -0.000262886)
(-0.000788717 -0.223626 0.000263838)
(-0.000788783 -0.223626 -0.000263991)
(-0.000539031 -0.218293 0.000430836)
(-0.000538562 -0.218294 -0.000431095)
(-0.000531543 -0.21678 0.000432425)
(-0.000531255 -0.21678 -0.000433162)
(-0.000872037 -0.224896 -0.000364062)
(-0.00682647 -0.224802 0.00164336)
(-0.000872688 -0.223623 -0.000364899)
(-0.00683857 -0.223568 0.00164718)
(0.00168115 -0.218335 -0.00147565)
(0.00616549 -0.218312 -0.00268694)
(0.00169991 -0.216862 -0.00148015)
(0.00618991 -0.216903 -0.0026916)
(-0.0423797 -0.224612 0.00326332)
(0.0402692 -0.224042 0.800387)
(-0.0423957 -0.22341 0.00327043)
(0.0403081 -0.222908 0.800829)
(-0.0508536 -0.218029 0.0106566)
(0.0374201 -0.215983 0.954942)
(-0.0509416 -0.216698 0.0106814)
(0.0375112 -0.214784 0.955088)
(0.0401806 -0.226207 -0.798211)
(-0.0422181 -0.226914 -0.00324926)
(0.0401433 -0.225131 -0.796924)
(-0.0422501 -0.225785 -0.00325426)
(0.0371579 -0.218272 -0.958849)
(-0.0505147 -0.220628 -0.0105987)
(0.037245 -0.217115 -0.954556)
(-0.0506482 -0.219346 -0.010628)
(-0.00672865 -0.227182 -0.00162742)
(-0.000811561 -0.227349 0.000366363)
(-0.00677834 -0.226009 -0.00163295)
(-0.00085195 -0.226141 0.000365388)
(0.00615246 -0.22107 0.00267756)
(0.00167026 -0.221214 0.00146903)
(0.00616008 -0.219702 0.00268363)
(0.00167024 -0.219787 0.00147232)
(-0.000736518 -0.227414 0.000261966)
(-0.000735813 -0.227415 -0.000260922)
(-0.000773454 -0.226188 0.000262391)
(-0.000772773 -0.226188 -0.000261717)
(-0.000535206 -0.221248 0.000428685)
(-0.00053458 -0.221249 -0.000427803)
(-0.000540196 -0.219786 0.000429721)
(-0.000539491 -0.219787 -0.000429552)
(-0.000809299 -0.22735 -0.000365315)
(-0.00672902 -0.227183 0.00162758)
(-0.000850116 -0.226142 -0.000364525)
(-0.00678345 -0.22601 0.00163396)
(0.00167225 -0.221217 -0.00146806)
(0.00615575 -0.221071 -0.00267626)
(0.00167276 -0.21979 -0.00147243)
(0.00616343 -0.219705 -0.00268408)
(-0.042247 -0.226918 0.00324817)
(0.0402154 -0.2262 0.797894)
(-0.0423143 -0.225787 0.00325387)
(0.0402173 -0.225124 0.798631)
(-0.0504867 -0.22062 0.0105991)
(0.0371333 -0.218269 0.958846)
(-0.0506045 -0.219339 0.0106343)
(0.0372037 -0.217112 0.95455)
(0.040125 -0.228183 -0.789638)
(-0.0419108 -0.229012 -0.00322739)
(0.0401654 -0.227206 -0.793275)
(-0.0421023 -0.227996 -0.00323514)
(0.0369503 -0.220409 -0.953936)
(-0.0501559 -0.223075 -0.0105416)
(0.0369974 -0.219373 -0.954033)
(-0.0502843 -0.221862 -0.01058)
(-0.00652739 -0.229363 -0.00160583)
(-0.000653647 -0.229602 0.000370324)
(-0.00664298 -0.228303 -0.00161591)
(-0.000745495 -0.228507 0.000368127)
(0.00616208 -0.22369 0.00267529)
(0.00169892 -0.22394 0.00146423)
(0.00615829 -0.222402 0.00267961)
(0.00168019 -0.222602 0.00146749)
(-0.000592512 -0.229704 0.000260731)
(-0.00059236 -0.229704 -0.000259969)
(-0.000676782 -0.228591 0.000261276)
(-0.000676359 -0.228591 -0.000260124)
(-0.000503355 -0.224036 0.000426516)
(-0.000503253 -0.224035 -0.000426115)
(-0.000522798 -0.222668 0.000427932)
(-0.000522492 -0.222669 -0.000426451)
(-0.000653528 -0.229603 -0.000369212)
(-0.00653202 -0.229364 0.00160742)
(-0.000744225 -0.228508 -0.00036674)
(-0.00664337 -0.228305 0.00161695)
(0.00169823 -0.223938 -0.00146317)
(0.00615926 -0.223681 -0.00267206)
(0.00168059 -0.222603 -0.00146467)
(0.00615791 -0.222397 -0.00267198)
(-0.0419656 -0.229016 0.00322732)
(0.0401907 -0.228176 0.789635)
(-0.0421172 -0.227998 0.00323575)
(0.040188 -0.227204 0.792954)
(-0.0501471 -0.223061 0.0105463)
(0.0369545 -0.220444 0.955419)
(-0.0502638 -0.221852 0.0105687)
(0.0369863 -0.219392 0.958539)
(0.0401163 -0.22988 -0.793974)
(-0.0414266 -0.230796 -0.00320385)
(0.0400953 -0.22907 -0.791014)
(-0.0416754 -0.229945 -0.00321662)
(0.0366467 -0.222286 -0.958053)
(-0.049597 -0.225273 -0.0104355)
(0.0367292 -0.221369 -0.958139)
(-0.0498112 -0.224213 -0.0104856)
(-0.00620514 -0.231236 -0.00158808)
(-0.000382585 -0.23155 0.000374033)
(-0.00637724 -0.230346 -0.00159459)
(-0.000532502 -0.230621 0.000372098)
(0.00620356 -0.226048 0.00266208)
(0.00176662 -0.226399 0.00145641)
(0.00618858 -0.224909 0.0026666)
(0.00172897 -0.22521 0.00145979)
(-0.000340839 -0.231688 0.00025909)
(-0.00034074 -0.231689 -0.000259411)
(-0.00048109 -0.230741 0.000259762)
(-0.000481188 -0.230741 -0.000259482)
(-0.000440306 -0.226553 0.000423679)
(-0.000440218 -0.226552 -0.000425599)
(-0.000475485 -0.225335 0.000424945)
(-0.000475481 -0.225334 -0.000425618)
(-0.000382499 -0.23155 -0.000374761)
(-0.00621268 -0.231237 0.00158495)
(-0.000533755 -0.230621 -0.000371704)
(-0.00638708 -0.230347 0.00159467)
(0.00176549 -0.226398 -0.00145905)
(0.00620176 -0.226048 -0.00266585)
(0.00172757 -0.225208 -0.00146049)
(0.00618494 -0.224902 -0.00266759)
(-0.0415278 -0.230801 0.00320607)
(0.0402298 -0.229882 0.78738)
(-0.0417474 -0.229957 0.00321516)
(0.0401807 -0.229057 0.78775)
(-0.0496208 -0.225285 0.0104733)
(0.0366797 -0.222284 0.954537)
(-0.0498245 -0.22421 0.0105083)
(0.0367538 -0.221377 0.955046)
(0.0403038 -0.231097 -0.785162)
(-0.0408877 -0.232243 -0.00318027)
(0.0401889 -0.230547 -0.788853)
(-0.0411694 -0.231574 -0.00318666)
(0.0364511 -0.223802 -0.957638)
(-0.0490439 -0.227084 -0.010359)
(0.0364519 -0.22308 -0.957735)
(-0.0492304 -0.226235 -0.0103926)
(-0.00576176 -0.232705 -0.00156232)
(2.2005e-05 -0.233083 0.000384048)
(-0.00600151 -0.232025 -0.00157547)
(-0.000198783 -0.232374 0.000378199)
(0.00619708 -0.228017 0.00266149)
(0.00185568 -0.228471 0.00145345)
(0.00620098 -0.227089 0.00266045)
(0.00180867 -0.22749 0.00145398)
(3.60052e-05 -0.233256 0.000258616)
(3.62583e-05 -0.233256 -0.000258942)
(-0.000169086 -0.232531 0.000258377)
(-0.000168758 -0.232531 -0.000258982)
(-0.000352326 -0.22868 0.000422817)
(-0.00035206 -0.22868 -0.000425474)
(-0.000397804 -0.227673 0.000422779)
(-0.000397605 -0.227673 -0.000425693)
(2.25206e-05 -0.233083 -0.000383486)
(-0.00577178 -0.232706 0.00156447)
(-0.000197426 -0.232375 -0.000378765)
(-0.00600568 -0.232026 0.00157401)
(0.00185491 -0.228471 -0.00145579)
(0.00619767 -0.228016 -0.00266047)
(0.00180798 -0.22749 -0.00145739)
(0.0062024 -0.227091 -0.00266363)
(-0.0410192 -0.232237 0.00318269)
(0.0404557 -0.231103 0.788492)
(-0.0412787 -0.231556 0.00319172)
(0.0403104 -0.230569 0.788827)
(-0.048983 -0.227084 0.0103866)
(0.0364123 -0.223797 0.957613)
(-0.0491967 -0.226247 0.0104315)
(0.0364339 -0.223056 0.954153)
(0.0406 -0.23182 -0.786375)
(-0.0401666 -0.233105 -0.00316313)
(0.0404076 -0.231538 -0.786662)
(-0.0405242 -0.232743 -0.00317066)
(0.0363223 -0.224793 -0.952515)
(-0.0484118 -0.228383 -0.0102962)
(0.0363363 -0.224358 -0.957311)
(-0.0486801 -0.227804 -0.0103205)
(-0.00516689 -0.233658 -0.00153526)
(0.000570795 -0.234114 0.000396834)
(-0.00547897 -0.233254 -0.00154813)
(0.000281074 -0.233665 0.000389569)
(0.00625728 -0.229475 0.00266579)