/*--------------------------------*- C++ -*----------------------------------*\
  =========                 |
  \\      /  F ield         | OpenFOAM: The Open Source CFD Toolbox
   \\    /   O peration     | Website:  https://openfoam.org
    \\  /    A nd           | Version:  9
     \\/     M anipulation  |
\*---------------------------------------------------------------------------*/
FoamFile
{
    format      ascii;
    class       volScalarField;
    location    "1.1";
    object      k;
}
// * * * * * * * * * * * * * * * * * * * * * * * * * * * * * * * * * * * * * //

dimensions      [0 2 -2 0 0 0 0];

internalField   nonuniform List<scalar> 
36360
(
0.0427172
0.0336463
0.0136508
0.013028
0.00843365
0.00559871
0.00421765
0.00357256
0.00746975
0.00245354
0.00384584
0.00280803
0.00266381
0.00222144
0.00301571
0.00301085
0.00198465
0.00198462
0.00282623
0.00282625
0.00219681
0.0021968
0.00301267
0.00301267
0.00245283
0.00746771
0.00280815
0.00384566
0.00222141
0.00266348
0.00301085
0.00301575
0.0336451
0.0427236
0.0130276
0.0136516
0.00559848
0.00843452
0.00357253
0.0042177
0.0803591
0.0629739
0.0654173
0.0508965
0.0218906
0.0143853
0.0161481
0.0103378
0.0230205
0.00530737
0.0157395
0.00327728
0.00475181
0.00178515
0.00330446
0.0018346
0.00159591
0.00159466
0.00160547
0.00160529
0.00146823
0.00146814
0.00171247
0.00171245
0.00530016
0.0230105
0.0032748
0.0157334
0.00178419
0.00474886
0.00183441
0.00330337
0.0629755
0.0803823
0.0508962
0.0654318
0.0143848
0.0218978
0.0103372
0.0161519
0.0943474
0.0746861
0.0893595
0.0704769
0.0273849
0.0185382
0.0254414
0.0170244
0.0305903
0.00830738
0.02783
0.00715348
0.00665749
0.00195209
0.005941
0.00185982
0.00183261
0.00182921
0.00170255
0.00170033
0.0013356
0.00133535
0.00136822
0.00136805
0.00829144
0.030576
0.00714117
0.0278174
0.00194972
0.00665177
0.00185819
0.00593637
0.0746914
0.0943852
0.0704806
0.0893909
0.0185383
0.0273977
0.0170241
0.0254517
0.0980944
0.0778733
0.0969202
0.0768723
0.0287655
0.0196349
0.0283502
0.0193035
0.0326653
0.0091855
0.0320226
0.00891876
0.0071829
0.00203389
0.00702577
0.00200851
0.00194168
0.00193729
0.00190796
0.0019039
0.00132545
0.00132515
0.00132709
0.0013268
0.00916616
0.032649
0.00890058
0.032007
0.00203093
0.00717624
0.00200574
0.00701942
0.0778805
0.0981397
0.0768787
0.0969626
0.0196354
0.0287809
0.0193038
0.0283646
0.0987542
0.0784448
0.0986063
0.0783154
0.0289732
0.0198022
0.0289345
0.0197716
0.0330253
0.00932025
0.0329476
0.00929666
0.00726092
0.00204536
0.00724755
0.00204392
0.00195746
0.00195289
0.00195525
0.00195072
0.00132483
0.00132453
0.0013249
0.00132459
0.00930019
0.0330085
0.00927679
0.032931
0.0020423
0.00725408
0.00204089
0.00724076
0.0784526
0.0988018
0.0783229
0.0986531
0.0198029
0.0289893
0.0197722
0.0289503
0.0987745
0.0784708
0.0988057
0.0784936
0.0289698
0.0197982
0.0289836
0.0198107
0.0330457
0.00932362
0.0330588
0.00933099
0.0072623
0.00204472
0.00726684
0.00204588
0.00195709
0.00195252
0.00195836
0.00195378
0.00132427
0.00132397
0.00132466
0.00132435
0.0093035
0.0330289
0.00931086
0.033042
0.00204166
0.00725546
0.00204282
0.00725999
0.0784786
0.0988224
0.0785014
0.0988536
0.0197988
0.028986
0.0198113
0.0289998
0.0986927
0.078411
0.0987577
0.0784613
0.0289363
0.0197663
0.0289616
0.0197895
0.0330142
0.00930855
0.0330438
0.00932217
0.00725162
0.00204164
0.00726063
0.0020439
0.00195435
0.0019498
0.00195656
0.00195199
0.0013231
0.00132279
0.00132365
0.00132334
0.00928844
0.0329974
0.00930204
0.033027
0.00203859
0.00724478
0.00204084
0.00725379
0.0784188
0.0987407
0.0784692
0.0988057
0.019767
0.0289525
0.0197902
0.0289778
0.0985657
0.0783167
0.0986527
0.0783833
0.0288891
0.0197229
0.0289212
0.0197518
0.0329599
0.00928366
0.0330004
0.00930206
0.00723454
0.0020373
0.0072467
0.00204017
0.00195016
0.00194562
0.00195312
0.00194856
0.00132184
0.00132153
0.00132244
0.00132213
0.00926359
0.0329431
0.00928196
0.0329835
0.00203427
0.0072277
0.00203713
0.00723986
0.0783244
0.0986135
0.0783911
0.0987006
0.0197236
0.0289052
0.0197525
0.0289374
0.098407
0.0782012
0.0985099
0.0782785
0.028833
0.0196733
0.0288699
0.0197054
0.0328918
0.00925333
0.0329393
0.00927452
0.00721381
0.00203228
0.00722794
0.0020355
0.00194538
0.00194087
0.00194863
0.0019441
0.00132037
0.00132007
0.00132108
0.00132078
0.0092333
0.032875
0.00925446
0.0329224
0.00202926
0.00720698
0.00203247
0.00722111
0.0782088
0.0984547
0.0782862
0.0985577
0.0196739
0.0288491
0.019706
0.0288861
0.0982215
0.0780694
0.0983382
0.0781552
0.0287693
0.0196192
0.0288103
0.0196535
0.0328137
0.0092188
0.0328667
0.00924244
0.00719031
0.00202655
0.00720604
0.00203017
0.00193992
0.00193544
0.0019436
0.00193909
0.00131865
0.00131835
0.00131949
0.00131919
0.00919882
0.0327967
0.00922243
0.0328498
0.00202354
0.00718349
0.00202715
0.00719922
0.0780769
0.098269
0.0781628
0.0983858
0.0196198
0.0287853
0.0196541
0.0288264
0.0980089
0.0779213
0.0981391
0.0780154
0.0286976
0.0195592
0.0287427
0.0195969
0.0327258
0.00918051
0.0327841
0.00920629
0.00716403
0.00202022
0.00718131
0.00202415
0.00193406
0.0019296
0.00193793
0.00193345
0.00131668
0.00131638
0.00131765
0.00131734
0.00916057
0.0327089
0.00918632
0.0327671
0.00201722
0.0071572
0.00202114
0.00717448
0.0779287
0.0980561
0.0780229
0.0981865
0.0195597
0.0287135
0.0195974
0.0287587
0.09777
0.0777575
0.0979137
0.0778598
0.0286178
0.0194942
0.0286671
0.0195345
0.0326287
0.00913817
0.0326919
0.00916634
0.00713498
0.00201312
0.00715375
0.00201747
0.00192752
0.00192308
0.0019318
0.00192735
0.00131439
0.0013141
0.00131552
0.00131522
0.00911827
0.0326117
0.0091464
0.0326749
0.00201013
0.00712814
0.00201448
0.00714692
0.0777647
0.097817
0.0778671
0.0979609
0.0194947
0.0286337
0.019535
0.028683
0.0975032
0.0775765
0.0976611
0.0776876
0.0285293
0.0194227
0.0285831
0.0194664
0.0325215
0.00909177
0.03259
0.00912211
0.00710284
0.00200528
0.00712326
0.00201002
0.00192049
0.00191609
0.00192501
0.00192059
0.0013118
0.0013115
0.00131308
0.00131278
0.00907194
0.0325045
0.00910223
0.032573
0.00200232
0.00709601
0.00200704
0.00711642
0.0775837
0.09755
0.0776948
0.097708
0.0194231
0.0285451
0.0194669
0.0285989
0.0972071
0.0773772
0.0973799
0.0774977
0.0284314
0.0193438
0.0284899
0.0193913
0.0324035
0.00904084
0.0324775
0.00907358
0.00706737
0.00199659
0.00708949
0.00200177
0.00191283
0.00190847
0.00191771
0.00191332
0.00130884
0.00130855
0.00131031
0.00131001
0.00902109
0.0323864
0.00905377
0.0324605
0.00199365
0.00706055
0.00199881
0.00708266
0.0773843
0.0972537
0.0775048
0.0974266
0.0193442
0.0284471
0.0193917
0.0285057
0.096879
0.0771578
0.0970682
0.0772885
0.0283233
0.0192572
0.028387
0.0193086
0.0322739
0.00898505
0.0323538
0.00902027
0.00702843
0.00198699
0.00705232
0.00199263
0.00190446
0.00190014
0.00190969
0.00190534
0.00130549
0.0013052
0.00130716
0.00130686
0.0089654
0.0322568
0.00900056
0.0323368
0.00198407
0.00702164
0.00198969
0.00704551
0.0771647
0.0969254
0.0772955
0.0971147
0.0192576
0.0283389
0.019309
0.0284027
0.0965175
0.0769175
0.0967236
0.0770588
0.0282046
0.0191631
0.0282737
0.0192182
0.032132
0.0089242
0.0322182
0.00896199
0.00698589
0.00197642
0.0070116
0.00198255
0.00189536
0.00189109
0.00190096
0.00189666
0.00130171
0.00130142
0.00130359
0.0013033
0.00890466
0.032115
0.00894238
0.0322011
0.00197353
0.00697911
0.00197964
0.00700481
0.0769243
0.0965636
0.0770657
0.0967699
0.0191634
0.0282201
0.0192185
0.0282893
0.0961213
0.0766551
0.096345
0.0768076
0.0280748
0.0190612
0.0281495
0.0191203
0.0319774
0.00885807
0.03207
0.0088985
0.00693954
0.00196484
0.00696717
0.00197148
0.0018855
0.00188129
0.00189148
0.00188723
0.00129746
0.00129718
0.00129958
0.0012993
0.00883864
0.0319604
0.00887901
0.0320529
0.00196198
0.00693279
0.0019686
0.00696041
0.0766617
0.0961671
0.0768143
0.0963909
0.0190615
0.0280902
0.0191206
0.028165
0.0956891
0.07637
0.095931
0.076534
0.0279334
0.0189504
0.028014
0.0190141
0.0318096
0.00878643
0.0319089
0.00882962
0.00688919
0.00195219
0.00691883
0.00195937
0.00187487
0.00187071
0.00188122
0.00187703
0.00129272
0.00129245
0.00129509
0.00129481
0.00876713
0.0317925
0.00881025
0.0318918
0.00194936
0.00688246
0.00195651
0.00691209
0.0763764
0.0957345
0.0765405
0.0959766
0.0189506
0.0279487
0.0190143
0.0280293
0.0952198
0.0760611
0.0954803
0.076237
0.0277801
0.0188301
0.0278666
0.0188985
0.031628
0.00870909
0.0317342
0.00875511
0.00683471
0.00193843
0.00686642
0.00194616
0.00186345
0.00185935
0.00187019
0.00186605
0.00128745
0.00128718
0.00129009
0.00128981
0.00868993
0.0316109
0.00873588
0.0317171
0.00193563
0.00682801
0.00194334
0.0068597
0.0760674
0.0952649
0.0762434
0.0955256
0.0188303
0.0277952
0.0188987
0.0278818
0.0947137
0.0757287
0.0949927
0.0759163
0.0276145
0.0187004
0.0277072
0.0187735
0.0314325
0.00862594
0.0315456
0.00867485
0.00677604
0.00192352
0.00680983
0.00193182
0.00185123
0.00184719
0.00185835
0.00185428
0.00128162
0.00128135
0.00128454
0.00128427
0.00860694
0.0314154
0.00865576
0.0315285
0.00192076
0.00676937
0.00192903
0.00680314
0.0757348
0.0947584
0.0759225
0.0950376
0.0187005
0.0276295
0.0187736
0.0277223
0.0941695
0.075374
0.0944679
0.0755727
0.0274362
0.0185615
0.0275353
0.018639
0.0312227
0.00853682
0.031343
0.00858869
0.00671315
0.00190743
0.00674902
0.00191631
0.00183821
0.00183425
0.00184572
0.00184171
0.0012752
0.00127493
0.00127841
0.00127814
0.00851798
0.0312055
0.00856975
0.0313259
0.00190471
0.00670651
0.00191356
0.00674237
0.0753799
0.0942138
0.0755787
0.0945124
0.0185616
0.027451
0.0186391
0.0275502
0.0935851
0.0749946
0.0939037
0.0752062
0.0272451
0.0184144
0.0273506
0.0184958
0.0309974
0.00844162
0.0311256
0.00849648
0.00664607
0.00189015
0.00668399
0.00189961
0.00182442
0.00182052
0.00183229
0.00182835
0.00126816
0.0012679
0.00127168
0.00127142
0.00842294
0.0309803
0.00847771
0.0311085
0.00188747
0.00663947
0.00189691
0.00667738
0.0750003
0.093629
0.075212
0.0939478
0.0184144
0.0272598
0.0184959
0.0273654
0.092961
0.0745885
0.0932993
0.0748135
0.0270416
0.0182607
0.0271532
0.0183451
0.0307562
0.00834048
0.0308924
0.00839821
0.00657497
0.00187171
0.00661484
0.00188173
0.0018099
0.00180608
0.0018181
0.00181424
0.00126048
0.00126023
0.00126432
0.00126406
0.008322
0.030739
0.00837962
0.0308752
0.00186907
0.00656842
0.00187907
0.00660826
0.074594
0.0930044
0.0748191
0.093343
0.0182606
0.0270562
0.0183451
0.0271678
0.0922984
0.0741517
0.0926557
0.0743931
0.0268267
0.0181034
0.0269438
0.0181889
0.0304987
0.00823395
0.030643
0.00829421
0.00650013
0.00185213
0.00654179
0.0018627
0.00179475
0.00179101
0.00180323
0.00179945
0.00125216
0.00125191
0.00125632
0.00125607
0.00821566
0.0304815
0.00827582
0.0306258
0.00184954
0.00649362
0.00186009
0.00653526
0.074157
0.0923414
0.0743985
0.092699
0.0181032
0.026841
0.0181889
0.0269583
0.0916025
0.0736833
0.0919756
0.0739387
0.0266012
0.017944
0.0267234
0.0180311
0.0302276
0.00812284
0.0303781
0.00818521
0.00642174
0.00183148
0.00646513
0.00184257
0.00177905
0.0017754
0.00178777
0.00178407
0.00124318
0.00124293
0.00124766
0.00124742
0.00810477
0.0302104
0.00816702
0.0303609
0.00182894
0.00641528
0.00184
0.00645864
0.0736883
0.0916449
0.0739439
0.0920183
0.0179438
0.0266153
0.0180309
0.0267377
0.0908781
0.0731969
0.0912651
0.0734609
0.0263661
0.0177778
0.026493
0.0178683
0.0299457
0.00800781
0.0301014
0.00807199
0.00633999
0.00180981
0.00638498
0.00182138
0.00176289
0.00175932
0.00177181
0.00176819
0.00123354
0.0012333
0.00123835
0.00123811
0.00798997
0.0299285
0.00805402
0.0300842
0.00180732
0.00633358
0.00181886
0.00637854
0.0732017
0.09092
0.0734658
0.0913073
0.0177775
0.0263801
0.017868
0.0265071
0.0901289
0.0726942
0.0905277
0.072966
0.0261227
0.0176055
0.0262536
0.0176989
0.0296542
0.00788954
0.0298144
0.00795516
0.00625529
0.00178721
0.00630165
0.00179922
0.00174638
0.0017429
0.00175543
0.0017519
0.00122325
0.00122302
0.00122838
0.00122815
0.00787192
0.029637
0.00793742
0.0297972
0.00178478
0.00624893
0.00179675
0.00629526
0.0726987
0.0901702
0.0729707
0.0905694
0.0176052
0.0261365
0.0176986
0.0262675
0.0893597
0.0721779
0.0897678
0.072456
0.0258726
0.0174281
0.0260066
0.0175238
0.029355
0.00776888
0.0295188
0.00783548
0.00616816
0.0017638
0.00621562
0.00177618
0.00172964
0.00172624
0.00173876
0.00173532
0.00121233
0.00121211
0.00121777
0.00121754
0.00775151
0.0293378
0.00781798
0.0295016
0.00176141
0.00616186
0.00177376
0.00620929
0.0721821
0.0894004
0.0724604
0.0898088
0.0174277
0.0258862
0.0175234
0.0260203
0.0885763
0.0716518
0.0889907
0.0719343
0.0256178
0.0172468
0.0257538
0.0173443
0.0290504
0.0076468
0.0292165
0.0077139
0.00607922
0.00173969
0.00612746
0.00175238
0.00171279
0.00170949
0.00172192
0.00171857
0.00120081
0.00120059
0.00120655
0.00120632
0.00762968
0.0290332
0.00769664
0.0291993
0.00173736
0.00607297
0.00175002
0.00612118
0.0716557
0.0886165
0.0719384
0.0890312
0.0172463
0.0256311
0.0173438
0.0257673
0.0877851
0.0711199
0.0882026
0.0714047
0.0253602
0.017063
0.0254973
0.0171615
0.0287427
0.00752434
0.02891
0.0075914
0.00598913
0.00171503
0.00603781
0.00172796
0.00169598
0.00169276
0.00170505
0.00170178
0.00118873
0.00118851
0.00119473
0.00119452
0.00750746
0.0287255
0.00757439
0.0288928
0.00171276
0.00598294
0.00172566
0.00603159
0.0711236
0.0878247
0.0714085
0.0882425
0.0170624
0.0253733
0.017161
0.0255105
0.0869928
0.0705866
0.0874099
0.0708715
0.025102
0.0168783
0.0252391
0.016977
0.0284346
0.00740255
0.0286017
0.00746904
0.00589858
0.00168998
0.00594735
0.00170307
0.00167933
0.0016762
0.00168827
0.0016851
0.00117611
0.00117591
0.00118238
0.00118217
0.00738592
0.0284174
0.00745228
0.0285845
0.00168775
0.00589245
0.00170082
0.00594119
0.0705901
0.0870318
0.0708751
0.0874492
0.0168776
0.0251149
0.0169764
0.0252521
0.0862061
0.0700565
0.0866195
0.0703392
0.0248456
0.016694
0.0249815
0.0167923
0.0281287
0.00728251
0.0282943
0.0073479
0.0058083
0.00166468
0.0058568
0.00167785
0.00166298
0.00165994
0.00167173
0.00166864
0.00116303
0.00116283
0.00116952
0.00116931
0.00726614
0.0281115
0.00733139
0.0282771
0.00166251
0.00580223
0.00167566
0.0058507
0.0700597
0.0862445
0.0703425
0.0866582
0.0166933
0.0248583
0.0167916
0.0249943
0.0854317
0.0695341
0.0858381
0.0698123
0.0245932
0.0165118
0.0247268
0.0166088
0.0278278
0.00716529
0.0279904
0.00722904
0.00571902
0.00163929
0.00576688
0.00165247
0.00164705
0.00164409
0.00165555
0.00165255
0.00114954
0.00114934
0.00115622
0.00115602
0.00714917
0.0278106
0.00721279
0.0279733
0.00163717
0.00571302
0.00165033
0.00576084
0.0695369
0.0854695
0.0698153
0.0858762
0.016511
0.0246057
0.0166081
0.0247394
0.0846754
0.0690234
0.0850721
0.0692953
0.0243468
0.0163332
0.0244771
0.0164282
0.0275343
0.0070519
0.0276929
0.00711353
0.00563145
0.00161398
0.00567832
0.00162709
0.00163165
0.00162877
0.00163985
0.00163693
0.00113569
0.0011355
0.00114254
0.00114234
0.00703602
0.0275172
0.00709752
0.0276757
0.00161191
0.00562551
0.00162499
0.00567235
0.069026
0.0847126
0.069298
0.0851096
0.0163324
0.0243591
0.0164274
0.0244895
0.0839394
0.0685267
0.0843262
0.0687915
0.0241078
0.0161594
0.0242343
0.0162519
0.0272503
0.00694319
0.027404
0.0070023
0.00554622
0.00158889
0.00559181
0.00160185
0.0016169
0.00161409
0.00162475
0.0016219
0.00112156
0.00112138
0.00112854
0.00112835
0.00692755
0.0272332
0.00698653
0.0273868
0.00158687
0.00554034
0.00159981
0.0055859
0.068529
0.083976
0.068794
0.0843631
0.0161585
0.0241199
0.016251
0.0242465
0.0832053
0.0680328
0.0835962
0.0682996
0.0238733
0.0159892
0.0239985
0.0160803
0.0269719
0.00683897
0.027124
0.00689595
0.00546337
0.00156414
0.00550782
0.00157691
0.00160282
0.00160009
0.00161032
0.00160755
0.00110723
0.00110705
0.0011143
0.00111412
0.00682357
0.0269549
0.00688042
0.027107
0.00156216
0.00545755
0.00157491
0.00550197
0.0680349
0.0832412
0.0683018
0.0836325
0.0159882
0.0238851
0.0160794
0.0240105
0.0823643
0.067461
0.0828333
0.067786
0.0236176
0.0158066
0.0237597
0.015908
0.0266605
0.00673112
0.026839
0.00679211
0.00537837
0.00153942
0.00542514
0.00155227
0.00158898
0.00158632
0.00159648
0.00159378
0.00109274
0.00109256
0.00109988
0.0010997
0.006716
0.0266436
0.00677683
0.026822
0.0015375
0.00537263
0.00155031
0.00541936
0.0674628
0.0823993
0.067788
0.0828688
0.0158055
0.0236291
0.015907
0.0237714
0.0810465
0.06643
0.0818215
0.0670714
0.02323
0.0155213
0.0234606
0.0156952
0.0261068
0.00656398
0.0264548
0.00666811
0.00525856
0.00151141
0.00533079
0.00152678
0.00157123
0.00156868
0.00158174
0.00157912
0.00107804
0.00107787
0.00108532
0.00108514
0.00654938
0.0260902
0.00665319
0.026438
0.00150956
0.00525296
0.00152488
0.00532511
0.0664313
0.0810799
0.067073
0.0818558
0.0155201
0.0232411
0.0156941
0.023472
0.0789494
0.0629446
0.0800926
0.0653595
0.0224041
0.0146877
0.0229202
0.0152466
0.0244106
0.00609083
0.025531
0.00639905
0.0049384
0.00146002
0.00514847
0.00149175
0.00152732
0.00152505
0.00155566
0.00155322
0.00106198
0.00106182
0.0010704
0.00107024
0.00607747
0.0243946
0.00638493
0.0255146
0.00145833
0.00493313
0.00148996
0.00514299
0.0629445
0.0789808
0.0653603
0.0801251
0.0146863
0.0224143
0.0152453
0.0229309
0.0565111
0.0441298
0.0167448
0.0145692
0.0527481
0.0411466
0.0161269
0.013844
0.0106459
0.00291421
0.00406334
0.00274962
0.0096262
0.00278316
0.00398025
0.00277759
0.00199202
0.00199199
0.00282797
0.002828
0.00199974
0.00199969
0.00284622
0.00284625
0.00291294
0.0106417
0.00274977
0.0040629
0.00278185
0.0096228
0.00277784
0.00397991
0.0441282
0.0565235
0.0145678
0.0167473
0.041145
0.052758
0.0138428
0.0161287
0.107973
0.0853731
0.0873348
0.0684596
0.0994389
0.0784439
0.0808367
0.0632395
0.0356311
0.00955599
0.0244685
0.00504597
0.0315652
0.00809668
0.0217275
0.00443449
0.00200086
0.00199799
0.00172536
0.0017244
0.00185703
0.00185494
0.00167987
0.0016792
0.00954025
0.035616
0.00503972
0.0244578
0.0080843
0.0315521
0.00442983
0.0217185
0.085378
0.108012
0.0684607
0.0873604
0.0784472
0.0994718
0.0632399
0.0808577
0.128235
0.102405
0.120803
0.0961175
0.11736
0.0934651
0.11085
0.0879769
0.0474198
0.0155539
0.0430338
0.0132308
0.0417792
0.012996
0.0380159
0.0111139
0.00300744
0.00299765
0.00256039
0.00255358
0.0025515
0.00254434
0.00223281
0.0022278
0.0155237
0.0473998
0.0132067
0.0430159
0.0129712
0.0417613
0.0110943
0.038
0.102417
0.128298
0.0961263
0.120856
0.0934741
0.117413
0.0879834
0.110894
0.134235
0.107494
0.132274
0.105832
0.122482
0.0977996
0.120832
0.0964036
0.0509444
0.0174284
0.0498061
0.0168334
0.0447258
0.0144764
0.0437885
0.014014
0.00340401
0.00339123
0.0032773
0.00326555
0.00282559
0.00281628
0.00273954
0.00273097
0.0173922
0.0509221
0.0167993
0.0497847
0.0144467
0.0447058
0.0139861
0.0437693
0.10751
0.134311
0.105847
0.132344
0.0978114
0.122545
0.0964144
0.120891
0.135468
0.108539
0.135156
0.108275
0.123479
0.098647
0.123236
0.0984403
0.0516416
0.0177696
0.0514728
0.0176966
0.0452794
0.01473
0.0451508
0.0146791
0.00347239
0.00345895
0.00345999
0.0034467
0.00286986
0.00286012
0.00286243
0.00285278
0.0177319
0.0516186
0.0176594
0.0514501
0.0146991
0.0452587
0.0146486
0.0451303
0.108556
0.135548
0.108292
0.135235
0.0986597
0.123545
0.0984527
0.123302
0.13556
0.108627
0.135595
0.108652
0.123537
0.0987073
0.123573
0.0987317
0.0516979
0.017791
0.051717
0.0178041
0.0453189
0.0147432
0.0453356
0.0147538
0.00347537
0.00346186
0.00347863
0.00346512
0.00287101
0.00286123
0.00287347
0.00286369
0.017753
0.0516747
0.0177662
0.0516938
0.0147121
0.0452981
0.0147227
0.0453148
0.108644
0.13564
0.108669
0.135675
0.0987202
0.123604
0.0987445
0.12364
0.135449
0.108551
0.135545
0.108623
0.123434
0.0986369
0.123519
0.0987005
0.0516548
0.0177677
0.0517011
0.017793
0.0452784
0.014722
0.0453185
0.0147428
0.00346921
0.00345572
0.00347523
0.00346171
0.00286618
0.00285642
0.0028706
0.00286083
0.0177297
0.0516316
0.017755
0.0516779
0.0146909
0.0452575
0.0147117
0.0452976
0.108568
0.135529
0.10864
0.135625
0.0986497
0.123501
0.0987133
0.123587
0.135267
0.10842
0.135395
0.108517
0.12327
0.0985194
0.123384
0.0986047
0.0515754
0.0177259
0.0516375
0.0177592
0.0452077
0.0146861
0.0452617
0.0147138
0.0034589
0.00344544
0.00346684
0.00345335
0.00285826
0.00284853
0.00286417
0.00285442
0.0176879
0.0515521
0.0177212
0.0516142
0.014655
0.0451868
0.0146827
0.0452408
0.108437
0.135348
0.108534
0.135476
0.098532
0.123337
0.0986174
0.123451
0.135044
0.108259
0.135193
0.10837
0.123068
0.0983743
0.123201
0.0984732
0.0514764
0.0176742
0.051548
0.0177122
0.04512
0.0146422
0.0451825
0.0146739
0.00344652
0.00343311
0.00345541
0.00344196
0.00284893
0.00283925
0.0028555
0.00284578
0.0176362
0.051453
0.0176742
0.0515247
0.0146112
0.045099
0.0146428
0.0451615
0.108275
0.135124
0.108387
0.135273
0.0983869
0.123134
0.0984858
0.123267
0.13479
0.108075
0.134955
0.108198
0.122835
0.0982089
0.122984
0.0983186
0.0513639
0.0176157
0.0514428
0.0176574
0.0450198
0.0145925
0.045089
0.0146274
0.00343272
0.00341937
0.00344243
0.00342903
0.00283848
0.00282884
0.00284573
0.00283606
0.0175778
0.0513404
0.0176195
0.0514193
0.0145615
0.0449988
0.0145964
0.045068
0.108091
0.13487
0.108215
0.135035
0.0982213
0.122901
0.0983311
0.12305
0.134504
0.107869
0.134685
0.108004
0.122572
0.0980239
0.122736
0.0981435
0.0512386
0.0175512
0.0513244
0.0175963
0.044908
0.0145375
0.0449836
0.0145754
0.00341786
0.00340457
0.00342815
0.00341482
0.00282722
0.00281763
0.00283491
0.00282528
0.0175134
0.051215
0.0175584
0.051301
0.0145066
0.044887
0.0145445
0.0449625
0.107885
0.134583
0.10802
0.134764
0.0980362
0.122638
0.0981558
0.122802
0.134186
0.107642
0.134383
0.107788
0.122279
0.09782
0.122458
0.0979495
0.0511007
0.0174808
0.0511935
0.0175294
0.044785
0.0144772
0.0448667
0.0145182
0.00340174
0.00338852
0.00341281
0.00339955
0.0028149
0.00280536
0.00282326
0.00281368
0.017443
0.0510771
0.0174915
0.05117
0.0144463
0.0447639
0.0144873
0.0448456
0.107658
0.134266
0.107804
0.134463
0.0978321
0.122345
0.0979616
0.122524
0.133836
0.107392
0.13405
0.10755
0.121955
0.0975957
0.12215
0.0977355
0.0509499
0.0174042
0.0510496
0.0174563
0.0446501
0.0144113
0.044738
0.0144555
0.00338447
0.00337134
0.00339619
0.00338301
0.00280167
0.00279219
0.00281054
0.00280103
0.0173665
0.0509263
0.0174185
0.051026
0.0143805
0.0446289
0.0144247
0.0447169
0.107408
0.133915
0.107566
0.134129
0.0976077
0.12202
0.0977475
0.122215
0.133453
0.107123
0.133683
0.10729
0.121598
0.0973511
0.121809
0.0975012
0.0507862
0.017321
0.0508925
0.0173769
0.0445026
0.0143394
0.044597
0.0143869
0.00336579
0.00335276
0.00337839
0.0033653
0.00278725
0.00277785
0.00279685
0.0027874
0.0172835
0.0507626
0.0173392
0.050869
0.0143087
0.0444815
0.0143562
0.0445759
0.107139
0.133532
0.107306
0.133762
0.0973629
0.121663
0.097513
0.121875
0.133033
0.10683
0.133282
0.10701
0.121204
0.0970839
0.121435
0.0972457
0.0506082
0.0172309
0.0507221
0.0172905
0.0443414
0.0142609
0.044443
0.014312
0.00334577
0.00333284
0.00335912
0.00334613
0.00277174
0.00276242
0.00278192
0.00277254
0.0171935
0.0505846
0.017253
0.0506985
0.0142304
0.0443202
0.0142813
0.0444218
0.106845
0.133111
0.107025
0.133361
0.0970954
0.121269
0.0972573
0.1215
0.132574
0.106511
0.132843
0.106703
0.120771
0.0967912
0.121022
0.0969664
0.0504154
0.0171337
0.0505367
0.017197
0.0441652
0.0141757
0.0442745
0.0142303
0.00332441
0.00331158
0.00333853
0.00332563
0.00275508
0.00274585
0.00276588
0.00275659
0.0170963
0.0503917
0.0171596
0.050513
0.0141452
0.044144
0.0141997
0.0442533
0.106526
0.132652
0.106718
0.132921
0.0968026
0.120835
0.0969779
0.121086
0.132074
0.106169
0.132364
0.106373
0.120298
0.0964692
0.120569
0.0966591
0.0502068
0.0170285
0.0503364
0.0170961
0.0439731
0.0140832
0.0440904
0.0141414
0.00330148
0.00328877
0.00331645
0.00330367
0.00273711
0.00272797
0.00274857
0.00273936
0.0169914
0.0501831
0.0170588
0.0503127
0.0140528
0.0439518
0.014111
0.0440691
0.106184
0.132151
0.106388
0.132442
0.0964804
0.120362
0.0966704
0.120633
0.131528
0.105797
0.131841
0.106017
0.119784
0.0961204
0.120076
0.0963236
0.0499806
0.016915
0.0501192
0.0169868
0.043765
0.0139831
0.0438904
0.0140452
0.00327692
0.00326434
0.00329272
0.00328006
0.00271781
0.00270876
0.00272992
0.00272081
0.016878
0.0499568
0.0169497
0.0500955
0.013953
0.0437437
0.0140149
0.0438691
0.105811
0.131604
0.106032
0.131918
0.0961314
0.119848
0.0963347
0.12014
0.130935
0.105393
0.131272
0.105629
0.119227
0.0957438
0.119541
0.095961
0.0497359
0.0167928
0.0498838
0.0168689
0.0435399
0.0138752
0.0436739
0.0139412
0.0032508
0.00323835
0.00326736
0.00325482
0.00269717
0.00268823
0.00270993
0.00270092
0.0167559
0.0497121
0.016832
0.04986
0.0138452
0.0435186
0.0139111
0.0436526
0.105408
0.131011
0.105644
0.131348
0.0957546
0.11929
0.0959719
0.119604
0.130296
0.104959
0.130656
0.10521
0.118624
0.095338
0.118961
0.0955702
0.0494724
0.0166617
0.0496298
0.0167423
0.043297
0.0137593
0.0434401
0.0138292
0.00322297
0.00321067
0.00324036
0.00322797
0.00267521
0.00266638
0.0026886
0.0026797
0.016625
0.0494485
0.0167055
0.0496059
0.0137294
0.0432757
0.0137993
0.0434188
0.104973
0.130371
0.105225
0.130732
0.0953485
0.118687
0.0955809
0.119024
0.129609
0.104491
0.129993
0.104759
0.117975
0.0948978
0.118334
0.0951477
0.0491897
0.0165216
0.0493566
0.0166066
0.0430354
0.0136352
0.0431877
0.0137091
0.00319351
0.00318136
0.00321167
0.00319943
0.00265196
0.00264326
0.00266596
0.00265719
0.0164852
0.0491658
0.01657
0.0493328
0.0136055
0.043014
0.0136794
0.0431664
0.104505
0.129683
0.104773
0.130068
0.094908
0.118037
0.0951581
0.118397
0.128874
0.103991
0.129282
0.104275
0.117281
0.0944274
0.117663
0.0946915
0.048888
0.0163728
0.0490644
0.0164621
0.0427561
0.0135032
0.0429172
0.013581
0.00316247
0.00315048
0.00318137
0.00316929
0.00262747
0.0026189
0.00264206
0.00263341
0.0163365
0.0488641
0.0164257
0.0490405
0.0134738
0.0427347
0.0135515
0.0428958
0.104005
0.128948
0.104289
0.129356
0.0944374
0.117343
0.0947016
0.117725
0.128093
0.103461
0.128524
0.10376
0.116544
0.0939287
0.116948
0.0942071
0.0485678
0.0162153
0.0487534
0.0163088
0.0424595
0.0133635
0.0426292
0.0134451
0.00312992
0.00311811
0.00314952
0.00313761
0.00260181
0.00259337
0.00261694
0.00260842
0.0161792
0.0485438
0.0162726
0.0487294
0.0133343
0.042438
0.0134157
0.0426078
0.103474
0.128167
0.103774
0.128598
0.0939384
0.116605
0.0942169
0.117009
0.127268
0.1029
0.127721
0.103214
0.115765
0.0934013
0.116189
0.093694
0.0482296
0.0160495
0.0484241
0.016147
0.0421458
0.0132166
0.0423239
0.0133016
0.003096
0.00308437
0.00311622
0.00310448
0.00257509
0.0025668
0.00259069
0.00258232
0.0160137
0.0482055
0.0161111
0.0484
0.0131876
0.0421243
0.0132725
0.0423024
0.102913
0.12734
0.103227
0.127794
0.0934107
0.115825
0.0937035
0.11625
0.126401
0.102311
0.126874
0.102639
0.114947
0.0928474
0.11539
0.0931528
0.0478745
0.015876
0.0480772
0.0159772
0.0418167
0.013063
0.0420023
0.0131512
0.00306083
0.00304939
0.0030816
0.00307006
0.00254744
0.0025393
0.00256346
0.00255523
0.0158404
0.0478504
0.0159415
0.0480531
0.0130342
0.0417952
0.0131223
0.0419808
0.102324
0.126473
0.102652
0.126946
0.0928564
0.115006
0.093162
0.115449
0.125497
0.101697
0.125988
0.102037
0.114093
0.0922701
0.114553
0.0925869
0.0475038
0.0156953
0.0477141
0.0157999
0.0414736
0.0129034
0.041666
0.0129944
0.00302458
0.00301334
0.00304582
0.00303447
0.00251899
0.002511
0.00253534
0.00252727
0.0156601
0.0474796
0.0157645
0.04769
0.0128749
0.041452
0.0129658
0.0416444
0.101709
0.125567
0.10205
0.126059
0.0922787
0.114152
0.0925957
0.114612
0.124559
0.101059
0.125066
0.101411
0.11321
0.0916723
0.113684
0.0919989
0.0471193
0.0155085
0.0473362
0.015616
0.0411182
0.0127387
0.0413164
0.0128321
0.00298746
0.00297642
0.00300905
0.0029979
0.00248993
0.0024821
0.00250652
0.0024986
0.0154736
0.0470951
0.0155809
0.047312
0.0127105
0.0410966
0.0128037
0.0412948
0.101071
0.124629
0.101423
0.125137
0.0916806
0.113268
0.0920073
0.113743
0.123594
0.100403
0.124114
0.100763
0.112302
0.0910575
0.112788
0.091392
0.0467233
0.0153167
0.0469456
0.0154264
0.0407528
0.01257
0.0409556
0.0126651
0.00294974
0.00293891
0.00297153
0.00296059
0.00246049
0.00245282
0.00247719
0.00246943
0.0152821
0.046699
0.0153916
0.0469213
0.0125421
0.0407311
0.012637
0.040934
0.100414
0.123663
0.100775
0.124183
0.0910654
0.112359
0.0914001
0.112845
0.122609
0.0997312
0.123138
0.100098
0.111376
0.0904301
0.11187
0.0907703
0.0463184
0.0151213
0.0465447
0.0152325
0.0403799
0.0123986
0.0405861
0.0124948
0.00291174
0.00290112
0.00293357
0.00292284
0.00243091
0.00242341
0.0024476
0.00244001
0.015087
0.046294
0.015198
0.0465203
0.012371
0.0403582
0.012467
0.0405644
0.0997419
0.122677
0.100109
0.123206
0.0904376
0.111433
0.090778
0.111927
0.12161
0.0990498
0.122145
0.0994212
0.11044
0.0897946
0.110938
0.0901381
0.0459076
0.0149239
0.0461364
0.0150357
0.0400024
0.0122259
0.0402104
0.0123225
0.00287376
0.00286336
0.00289548
0.00288496
0.00240144
0.00239411
0.002418
0.00241058
0.0148898
0.0458832
0.0150015
0.046112
0.0121986
0.0399807
0.0122949
0.0401887
0.09906
0.121678
0.0994316
0.122212
0.0898018
0.110495
0.0901455
0.110994
0.120607
0.0983638
0.121143
0.0987366
0.1095
0.0891562
0.109999
0.0895005
0.0454943
0.0147259
0.0457238
0.0148377
0.0396233
0.0120534
0.0398317
0.0121495
0.00283612
0.00282593
0.00285757
0.00284726
0.00237233
0.00236516
0.00238863
0.00238137
0.0146922
0.0454698
0.0148038
0.0456994
0.0120263
0.0396016
0.0121223
0.0398099
0.0983736
0.120674
0.0987467
0.12121
0.089163
0.109555
0.0895074
0.110054
0.119608
0.0976787
0.120141
0.0980502
0.108566
0.08852
0.109061
0.0888624
0.0450818
0.0145293
0.0453104
0.0146401
0.0392459
0.0118824
0.0394529
0.0119775
0.00279915
0.00278917
0.00282015
0.00281006
0.00234382
0.00233682
0.00235974
0.00235265
0.0144959
0.0450573
0.0146065
0.0452859
0.0118557
0.0392241
0.0119506
0.0394312
0.097688
0.119673
0.0980598
0.120206
0.0885264
0.10862
0.088869
0.109115
0.118621
0.0970004
0.119146
0.0973677
0.107645
0.0878915
0.108132
0.0882293
0.0446738
0.0143356
0.0448996
0.0144446
0.0388734
0.0117147
0.0390775
0.0118078
0.00276317
0.0027534
0.00278358
0.00277369
0.00231616
0.00230931
0.00233158
0.00232465
0.0143026
0.0446492
0.0144113
0.0448751
0.0116883
0.0388517
0.0117812
0.0390557
0.0970093
0.118685
0.0973769
0.119211
0.0878976
0.107698
0.0882355
0.108185
0.117655
0.096334
0.118169
0.0966947
0.106744
0.0872755
0.10722
0.0876064
0.0442736
0.0141467
0.044495
0.0142529
0.038509
0.0115516
0.0387087
0.0116421
0.00272847