/*--------------------------------*- C++ -*----------------------------------*\
  =========                 |
  \\      /  F ield         | OpenFOAM: The Open Source CFD Toolbox
   \\    /   O peration     | Website:  https://openfoam.org
    \\  /    A nd           | Version:  9
     \\/     M anipulation  |
\*---------------------------------------------------------------------------*/
FoamFile
{
    format      ascii;
    class       volScalarField;
    location    "1.1";
    object      nut;
}
// * * * * * * * * * * * * * * * * * * * * * * * * * * * * * * * * * * * * * //

dimensions      [0 2 -1 0 0 0 0];

internalField   nonuniform List<scalar> 
36360
(
0.00121618
0.00100338
0.000474834
0.00044053
0.000271439
0.000221189
0.000191905
0.000176626
0.000356219
0.00017792
0.000205032
0.000158156
0.00015254
0.000139269
0.00016226
0.000162134
0.000147348
0.000147344
0.000159422
0.000159424
0.000138493
0.000138493
0.000162183
0.000162183
0.000177879
0.000356135
0.000158165
0.000205025
0.000139268
0.00015253
0.000162134
0.000162261
0.00100335
0.00121637
0.000440503
0.00047488
0.000221185
0.000271453
0.000176625
0.000191907
0.00216539
0.00180186
0.00179052
0.00147311
0.000437532
0.000354745
0.000375719
0.00030066
0.000960308
0.000344532
0.000686843
0.000228521
0.000203958
0.000124897
0.000169972
0.000126567
0.000164756
0.000164682
0.000147348
0.000147336
0.000113201
0.000113197
0.000122268
0.000122268
0.000344191
0.000959994
0.000228397
0.000686624
0.000124863
0.000203894
0.00012656
0.000169944
0.00180196
0.00216602
0.00147313
0.00179092
0.000354739
0.000437604
0.000300652
0.000375763
0.00251926
0.00212312
0.002392
0.00200687
0.000489481
0.000402814
0.000471745
0.000385975
0.00123758
0.000502736
0.00113692
0.000442361
0.000241571
0.000130704
0.000228149
0.000127529
0.000189028
0.000188866
0.000177059
0.000176952
0.000107955
0.000107945
0.000109268
0.000109261
0.000502009
0.00123718
0.000441791
0.00113656
0.000130624
0.000241467
0.000127472
0.00022806
0.00212336
0.00252026
0.00200704
0.00239283
0.000402816
0.000489595
0.000385972
0.000471841
0.00261758
0.00221319
0.00258621
0.00218449
0.000501725
0.00041461
0.000498068
0.000411076
0.0013138
0.000548527
0.00129
0.00053459
0.000250976
0.000133455
0.000248197
0.000132606
0.000196837
0.000196622
0.000194504
0.000194306
0.000107544
0.000107532
0.00010761
0.000107599
0.000547653
0.00131336
0.000533767
0.00128958
0.000133357
0.00025086
0.000132514
0.000248085
0.0022135
0.00261877
0.00218477
0.00258732
0.000414615
0.000501859
0.00041108
0.000498195
0.00263613
0.00223006
0.00263167
0.00222608
0.000503551
0.000416389
0.000503208
0.000416061
0.00132729
0.000555603
0.00132429
0.000554305
0.00025235
0.000133838
0.000252113
0.000133789
0.000197875
0.00019765
0.000197724
0.000197501
0.00010752
0.000107507
0.000107522
0.00010751
0.000554698
0.00132684
0.000553408
0.00132384
0.000133738
0.000252232
0.00013369
0.000251995
0.00223039
0.00263738
0.0022264
0.0026329
0.000416396
0.000503691
0.000416068
0.000503346
0.00263737
0.0022311
0.00263791
0.00223164
0.000503524
0.000416348
0.000503644
0.000416479
0.00132815
0.000555746
0.00132858
0.000556119
0.000252376
0.000133818
0.000252454
0.000133856
0.000197795
0.00019757
0.000197896
0.00019767
0.000107497
0.000107484
0.000107513
0.0001075
0.000554838
0.0013277
0.000555211
0.00132812
0.000133717
0.000252257
0.000133755
0.000252336
0.00223143
0.00263863
0.00223197
0.00263916
0.000416356
0.000503665
0.000416487
0.000503785
0.002636
0.00222972
0.00263728
0.00223097
0.000503235
0.000416014
0.000503453
0.000416259
0.00132711
0.000554961
0.00132812
0.000555654
0.000252191
0.000133717
0.000252347
0.000133791
0.00019757
0.000197346
0.000197738
0.000197513
0.000107449
0.000107436
0.000107472
0.000107459
0.000554054
0.00132666
0.000554745
0.00132766
0.000133617
0.000252072
0.00013369
0.000252229
0.00223005
0.00263726
0.0022313
0.00263854
0.000416022
0.000503376
0.000416266
0.000503594
0.00263369
0.00222751
0.00263541
0.00222913
0.000502824
0.000415558
0.000503103
0.000415862
0.00132532
0.000553696
0.00132668
0.000554625
0.000251894
0.000133574
0.000252105
0.000133669
0.000197251
0.000197028
0.00019747
0.000197246
0.000107398
0.000107385
0.000107422
0.00010741
0.00055279
0.00132486
0.000553718
0.00132622
0.000133474
0.000251776
0.000133568
0.000251987
0.00222784
0.00263495
0.00222946
0.00263667
0.000415565
0.000502965
0.00041587
0.000503244
0.00263079
0.00222485
0.00263281
0.0022267
0.000502337
0.000415036
0.000502658
0.000415374
0.00132311
0.00055219
0.00132468
0.000553242
0.000251533
0.000133409
0.000251779
0.000133515
0.000196908
0.000196686
0.000197138
0.000196916
0.000107338
0.000107325
0.000107367
0.000107354
0.000551285
0.00132265
0.000552336
0.00132422
0.000133309
0.000251415
0.000133415
0.000251661
0.00222517
0.00263204
0.00222703
0.00263407
0.000415043
0.000502477
0.000415381
0.000502799
0.0026274
0.00222183
0.00262967
0.00222387
0.000501782
0.000414465
0.000502139
0.000414827
0.00132058
0.000550488
0.00132232
0.000551656
0.000251124
0.00013322
0.000251398
0.000133339
0.000196516
0.000196296
0.000196779
0.000196557
0.000107268
0.000107255
0.000107302
0.00010729
0.000549584
0.00132012
0.000550751
0.00132186
0.000133121
0.000251005
0.00013324
0.000251279
0.00222215
0.00262865
0.00222419
0.00263092
0.000414471
0.000501922
0.000414834
0.000502279
0.00262352
0.00221846
0.00262604
0.00222069
0.000501156
0.000413832
0.00050155
0.00041423
0.00131775
0.000548615
0.00131965
0.000549879
0.000250664
0.000133011
0.000250966
0.000133141
0.000196105
0.000195885
0.000196374
0.000196154
0.000107187
0.000107175
0.000107227
0.000107214
0.000547712
0.00131729
0.000548975
0.00131919
0.000132911
0.000250545
0.000133041
0.000250848
0.00221878
0.00262477
0.00222101
0.00262729
0.000413838
0.000501296
0.000414236
0.000501689
0.00261918
0.00221475
0.00262194
0.00221716
0.00050046
0.000413144
0.00050089
0.00041357
0.00131463
0.000546545
0.00131669
0.000547925
0.000250156
0.000132776
0.000250485
0.00013292
0.000195641
0.000195423
0.000195943
0.000195724
0.000107094
0.000107082
0.00010714
0.000107128
0.000545643
0.00131416
0.000547022
0.00131622
0.000132677
0.000250036
0.000132821
0.000250365
0.00221507
0.00262042
0.00221747
0.00262318
0.000413149
0.000500599
0.000413576
0.000501029
0.00261434
0.00221067
0.00261735
0.00221326
0.000499686
0.000412386
0.000500156
0.00041285
0.00131119
0.000544285
0.00131342
0.000545766
0.000249592
0.000132516
0.00024995
0.000132673
0.00019515
0.000194933
0.000195464
0.000195247
0.000106988
0.000106976
0.000107041
0.000107028
0.000543385
0.00131073
0.000544865
0.00131295
0.000132417
0.000249472
0.000132574
0.000249831
0.00221098
0.00261557
0.00221358
0.00261859
0.000412391
0.000499824
0.000412855
0.000500295
0.00260897
0.00220617
0.00261226
0.00220898
0.000498828
0.000411549
0.000499341
0.000412053
0.00130741
0.000541807
0.00130982
0.000543406
0.000248968
0.000132227
0.000249357
0.0001324
0.000194614
0.0001944
0.000194954
0.000194739
0.000106867
0.000106855
0.000106927
0.000106915
0.00054091
0.00130694
0.000542507
0.00130935
0.000132129
0.000248849
0.000132301
0.000249238
0.00220648
0.00261021
0.00220929
0.0026135
0.000411553
0.000498966
0.000412058
0.000499479
0.00260305
0.00220122
0.00260662
0.00220426
0.00049788
0.000410627
0.000498439
0.000411174
0.00130326
0.000539094
0.00130586
0.000540812
0.000248282
0.000131908
0.000248703
0.000132096
0.000194027
0.000193815
0.000194392
0.000194179
0.00010673
0.000106718
0.000106798
0.000106786
0.0005382
0.00130279
0.000539917
0.00130539
0.00013181
0.000248162
0.000131998
0.000248583
0.00220153
0.00260427
0.00220457
0.00260785
0.000410631
0.000498017
0.000411179
0.000498577
0.00259652
0.00219582
0.0026004
0.00219909
0.000496836
0.000409623
0.000497444
0.000410211
0.00129873
0.000536134
0.00130152
0.000537979
0.000247529
0.000131555
0.000247984
0.00013176
0.000193388
0.000193179
0.00019378
0.000193569
0.000106575
0.000106563
0.000106652
0.00010664
0.000535244
0.00129825
0.000537086
0.00130105
0.000131458
0.00024741
0.000131662
0.000247865
0.00219612
0.00259774
0.0021994
0.00260163
0.000409627
0.000496973
0.000410215
0.000497581
0.00258936
0.00218991
0.00259357
0.00219344
0.000495692
0.000408534
0.000496351
0.000409166
0.00129378
0.000532914
0.00129678
0.00053489
0.000246707
0.000131167
0.000247198
0.00013139
0.000192695
0.000192488
0.000193114
0.000192905
0.000106401
0.000106389
0.000106488
0.000106476
0.000532028
0.0012933
0.000534001
0.0012963
0.000131071
0.000246587
0.000131293
0.000247078
0.00219021
0.00259058
0.00219374
0.00259479
0.000408537
0.000495829
0.00040917
0.000496488
0.00258155
0.00218349
0.00258609
0.00218729
0.000494444
0.000407345
0.000495155
0.000408028
0.00128839
0.000529421
0.00129162
0.000531533
0.00024581
0.000130743
0.000246339
0.000130984
0.000191945
0.000191741
0.000192391
0.000192186
0.000106206
0.000106194
0.000106303
0.000106292
0.000528538
0.00128791
0.000530649
0.00129114
0.000130648
0.000245691
0.000130888
0.000246219
0.00218378
0.00258276
0.00218758
0.00258731
0.000407348
0.000494579
0.000408031
0.000495291
0.00257307
0.00217651
0.00257795
0.00218059
0.000493085
0.000406052
0.000493852
0.000406787
0.00128255
0.000525642
0.00128601
0.000527897
0.000244837
0.000130279
0.000245404
0.00013054
0.000191139
0.000190938
0.000191613
0.00019141
0.000105989
0.000105977
0.000106097
0.000106086
0.000524765
0.00128207
0.000527017
0.00128553
0.000130185
0.000244717
0.000130445
0.000245284
0.0021768
0.00257427
0.00218088
0.00257916
0.000406054
0.00049322
0.00040679
0.000493987
0.0025639
0.00216898
0.00256913
0.00217334
0.000491614
0.000404651
0.000492438
0.000405441
0.00127624
0.000521571
0.00127993
0.000523971
0.000243784
0.000129775
0.000244391
0.000130056
0.000190276
0.000190079
0.000190777
0.000190577
0.000105748
0.000105737
0.000105868
0.000105857
0.000520699
0.00127576
0.000523096
0.00127945
0.000129682
0.000243664
0.000129962
0.000244271
0.00216926
0.00256509
0.00217363
0.00257032
0.000404653
0.000491748
0.000405443
0.000492573
0.00255403
0.00216086
0.00255961
0.00216552
0.000490026
0.000403147
0.000490909
0.000403987
0.00126944
0.000517202
0.00127338
0.000519749
0.00024265
0.000129229
0.000243297
0.000129531
0.000189357
0.000189163
0.000189884
0.000189688
0.000105482
0.000105471
0.000105615
0.000105604
0.000516335
0.00126896
0.000518879
0.0012729
0.000129137
0.00024253
0.000129438
0.000243178
0.00216114
0.00255521
0.0021658
0.0025608
0.000403148
0.000490159
0.000403989
0.000491043
0.00254342
0.00215217
0.00254938
0.00215712
0.000488317
0.000401546
0.000489261
0.000402433
0.00126214
0.000512532
0.00126633
0.000515227
0.000241434
0.00012864
0.000242122
0.000128963
0.000188384
0.000188193
0.000188936
0.000188744
0.00010519
0.000105179
0.000105336
0.000105325
0.000511671
0.00126165
0.000514363
0.00126585
0.000128549
0.000241315
0.000128871
0.000242003
0.00215244
0.00254459
0.00215739
0.00255056
0.000401547
0.000488449
0.000402434
0.000489394
0.00253205
0.00214285
0.0025384
0.00214812
0.000486492
0.000399867
0.000487494
0.00040079
0.00125431
0.000507567
0.00125877
0.000510405
0.000240139
0.000128009
0.000240866
0.000128353
0.00018736
0.000187174
0.000187936
0.000187747
0.000104871
0.00010486
0.00010503
0.00010502
0.000506713
0.00125382
0.000509547
0.00125828
0.000127918
0.00024002
0.000128261
0.000240747
0.00214311
0.00253322
0.00214839
0.00253957
0.000399867
0.000486623
0.00040079
0.000487625
0.00251992
0.00213281
0.00252665
0.00213847
0.000484555
0.00039814
0.000485612
0.000399081
0.00124594
0.00050233
0.00125067
0.000505298
0.000238768
0.000127335
0.000239533
0.000127699
0.000186292
0.000186109
0.000186887
0.000186702
0.000104523
0.000104512
0.000104697
0.000104686
0.000501483
0.00124545
0.000504447
0.00125018
0.000127246
0.000238649
0.000127609
0.000239413
0.00213307
0.00252108
0.00213873
0.00252781
0.000398139
0.000484685
0.00039908
0.000485742
0.00250713
0.00212198
0.00251417
0.002128
0.000482516
0.000396383
0.000483623
0.000397344
0.00123711
0.000496854
0.00124206
0.000499934
0.000237324
0.000126621
0.000238125
0.000127005
0.000185184
0.000185005
0.000185796
0.000185615
0.000104147
0.000104136
0.000104335
0.000104324
0.000496015
0.00123661
0.00049909
0.00124156
0.000126532
0.000237205
0.000126916
0.000238005
0.00212223
0.00250827
0.00212825
0.00251533
0.000396381
0.000482644
0.000397343
0.000483752
0.00249378
0.0021107
0.0025011
0.00211694
0.00048038
0.000394545
0.000481534
0.000395547
0.00122789
0.00049117
0.00123302
0.000494347
0.000235808
0.000125866
0.000236644
0.00012627
0.000184043
0.000183869
0.000184669
0.000184492
0.000103742
0.000103731
0.000103944
0.000103934
0.000490338
0.00122739
0.00049351
0.00123252
0.000125779
0.00023569
0.000126182
0.000236525
0.00211095
0.00249491
0.00211718
0.00250224
0.000394542
0.000480508
0.000395544
0.000481662
0.00247992
0.00209901
0.00248748
0.00210545
0.000478159
0.000392628
0.000479355
0.000393668
0.00121833
0.000485308
0.00122363
0.000488565
0.000234228
0.000125075
0.000235094
0.000125496
0.000182878
0.000182708
0.000183513
0.00018334
0.000103307
0.000103297
0.000103524
0.000103514
0.000484484
0.00121782
0.000487737
0.00122312
0.00012499
0.000234109
0.00012541
0.000234975
0.00209925
0.00248104
0.00210569
0.00248861
0.000392625
0.000478285
0.000393665
0.000479481
0.00246564
0.00208697
0.00247341
0.00209357
0.000475866
0.000390646
0.000477096
0.000391717
0.00120848
0.000479311
0.00121391
0.000482626
0.000232591
0.00012425
0.000233484
0.000124687
0.000181696
0.000181531
0.000182336
0.000182168
0.000102845
0.000102835
0.000103075
0.000103066
0.000478496
0.00120797
0.000481806
0.00121341
0.000124166
0.000232472
0.000124602
0.000233365
0.00208719
0.00246675
0.0020938
0.00247452
0.000390641
0.000475991
0.000391713
0.000477221
0.00245105
0.00207466
0.00245896
0.00208138
0.000473517
0.000388609
0.000474773
0.000389706
0.00119842
0.000473225
0.00120395
0.000476574
0.000230907
0.000123395
0.000231822
0.000123846
0.000180509
0.000180348
0.000181148
0.000180985
0.000102354
0.000102344
0.000102598
0.000102589
0.000472419
0.00119791
0.000475763
0.00120344
0.000123312
0.000230789
0.000123762
0.000231703
0.00207488
0.00245215
0.00208161
0.00246007
0.000388604
0.000473641
0.000389701
0.000474897
0.00243626
0.00206218
0.00244426
0.00206898
0.000471131
0.000386534
0.000472403
0.000387648
0.00118823
0.000467102
0.00119381
0.000470459
0.000229189
0.000122515
0.000230119
0.000122977
0.000179327
0.00017917
0.00017996
0.000179801
0.000101837
0.000101827
0.000102094
0.000102085
0.000466305
0.00118771
0.000469657
0.0011933
0.000122433
0.000229071
0.000122895
0.000230001
0.00206239
0.00243734
0.00206919
0.00244535
0.000386527
0.000471254
0.000387642
0.000472526
0.00242139
0.00204963
0.00242941
0.00205645
0.000468729
0.000384436
0.000470006
0.000385559
0.00117799
0.000460994
0.00118358
0.000464332
0.00022745
0.000121614
0.000228389
0.000122085
0.000178159
0.000178006
0.000178781
0.000178626
0.000101294
0.000101285
0.000101564
0.000101555
0.000460206
0.00117747
0.00046354
0.00118307
0.000121533
0.000227332
0.000122004
0.000228271
0.00204983
0.00242246
0.00205666
0.00243049
0.000384428
0.000468849
0.000385552
0.000470128
0.00240656
0.00203712
0.00241454
0.00204391
0.000466329
0.000382332
0.000467603
0.000383455
0.00116779
0.000454956
0.00117335
0.000458248
0.000225702
0.000120697
0.000226643
0.000121175
0.000177015
0.000176867
0.000177622
0.000177472
0.000100728
0.00010072
0.000101009
0.000101
0.000454178
0.00116727
0.000457465
0.00117283
0.000120618
0.000225585
0.000121095
0.000226525
0.00203732
0.00240761
0.00204411
0.00241561
0.000382324
0.000466449
0.000383448
0.000467723
0.00239189
0.00202476
0.00239978
0.00203146
0.000463955
0.000380241
0.000465214
0.000381356
0.00115772
0.000449043
0.00116321
0.000452262
0.000223961
0.00011977
0.000224896
0.000120253
0.000175905
0.000175761
0.000176492
0.000176346
0.000100141
0.000100133
0.000100433
0.000100424
0.000448275
0.0011572
0.000451488
0.00116269
0.000119692
0.000223843
0.000120174
0.000224779
0.00202495
0.00239293
0.00203165
0.00240083
0.000380232
0.000464073
0.000381347
0.000465332
0.00237749
0.00201265
0.00238525
0.00201922
0.000461626
0.000378179
0.00046286
0.000379277
0.00114788
0.000443307
0.00115324
0.000446427
0.000222239
0.000118839
0.000223162
0.000119323
0.000174839
0.000174698
0.000175403
0.00017526
9.95356e-05
9.95272e-05
9.98357e-05
9.98272e-05
0.000442548
0.00114736
0.000445663
0.00115272
0.000118763
0.000222122
0.000119245
0.000223045
0.00201283
0.00237852
0.0020194
0.00238628
0.000378169
0.000461743
0.000379268
0.000462977
0.00236334
0.00200081
0.00237099
0.00200725
0.000459356
0.000376162
0.000460559
0.000377236
0.00113832
0.000437793
0.00114354
0.000440794
0.00022055
0.00011791
0.000221455
0.000118391
0.000173822
0.000173685
0.000174358
0.00017422
9.89137e-05
9.89055e-05
9.92214e-05
9.92131e-05
0.000437043
0.00113779
0.000440039
0.00114301
0.000117834
0.000220434
0.000118315
0.000221338
0.00200098
0.00236436
0.00200743
0.00237202
0.000376151
0.000459471
0.000377226
0.000460675
0.00234875
0.00198879
0.0023568
0.00199545
0.000457116
0.000374175
0.000458314
0.00037524
0.00112885
0.000432485
0.00113409
0.000435391
0.000218896
0.000116985
0.000219785
0.000117463
0.00017286
0.000172726
0.000173368
0.000173233
9.82786e-05
9.82705e-05
9.85924e-05
9.85842e-05
0.000431744
0.00112832
0.000434645
0.00113356
0.000116911
0.00021878
0.000117388
0.000219669
0.00198896
0.00234975
0.00199562
0.00235781
0.000374163
0.00045723
0.000375229
0.000458428
0.00233018
0.0019738
0.002341
0.00198259
0.000454659
0.00037203
0.000456027
0.000373223
0.00111776
0.000426904
0.00112423
0.000430074
0.000217185
0.000116054
0.000218128
0.000116539
0.000171923
0.000171793
0.000172428
0.000172296
9.76326e-05
9.76247e-05
9.79515e-05
9.79435e-05
0.000426175
0.00111724
0.000429338
0.0011237
0.000115981
0.000217069
0.000116465
0.000218012
0.00197396
0.00233116
0.00198275
0.00234198
0.000372017
0.000454771
0.000373212
0.000456139
0.00229658
0.00194495
0.00231691
0.00196292
0.000450907
0.000368651
0.000453143
0.000370714
0.00109696
0.000417997
0.00111006
0.000423553
0.000214746
0.000114989
0.00021622
0.000115575
0.000170743
0.000170618
0.000171436
0.000171308
9.69726e-05
9.69649e-05
9.72999e-05
9.72921e-05
0.000417291
0.00109643
0.000422832
0.00110953
0.000114918
0.000214632
0.000115503
0.000216105
0.00194509
0.00229751
0.00196306
0.00231787
0.000368637
0.000451014
0.000370702
0.000453253
0.00222878
0.00186648
0.00226893
0.00191699
0.000442815
0.000358607
0.000447887
0.00036537
0.00104251
0.000394963
0.00107652
0.000409476
0.000208092
0.000113004
0.000212481
0.000114234
0.000168184
0.000168073
0.000169767
0.000169648
9.62458e-05
9.62387e-05
9.66279e-05
9.66204e-05
0.000394302
0.00104198
0.00040879
0.001076
0.000112938
0.000207981
0.000114165
0.000212368
0.00186658
0.00222966
0.00191711
0.00226984
0.00035859
0.000442916
0.000365355
0.000447992
0.00161391
0.00132267
0.000587061
0.000511937
0.00150067
0.00123039
0.000557313
0.000488148
0.000492019
0.000204149
0.000211108
0.00015406
0.000448182
0.000197762
0.000209242
0.000154726
0.000147979
0.000147978
0.000158921
0.000158924
0.000147876
0.000147873
0.00015934
0.000159343
0.000204113
0.000491849
0.000154062
0.000211093
0.000197691
0.000448046
0.000154743
0.00020923
0.00132264
0.00161428
0.000511871
0.000587172
0.00123035
0.00150096
0.000488091
0.000557396
0.00295901
0.00247561
0.00241524
0.00199823
0.002713
0.00226523
0.00222699
0.00183966
0.00143948
0.000568244
0.00103293
0.000326605
0.001285
0.000491798
0.000923927
0.000292038
0.000189424
0.000189279
0.000160243
0.000160165
0.000180363
0.000180281
0.000155705
0.000155642
0.000567514
0.00143903
0.000326287
0.00103256
0.000491222
0.0012846
0.000291807
0.000923613
0.00247583
0.00296013
0.00199831
0.00241597
0.00226539
0.00271392
0.00183971
0.00222758
0.00350826
0.00296815
0.00330404
0.00278427
0.00319316
0.00269539
0.00301653
0.00253647
0.00186503
0.000867223
0.00170667
0.000752593
0.00165575
0.000740354
0.00151918
0.000645796
0.000268214
0.000267694
0.00023825
0.000237892
0.000238032
0.00023766
0.00021644
0.000216171
0.000865937
0.00186449
0.000751537
0.00170616
0.000739276
0.00165525
0.000644923
0.00151873
0.00296862
0.00351004
0.00278463
0.00330552
0.00269575
0.00319462
0.00253675
0.00301775
0.00367792
0.00312057
0.00362162
0.00307018
0.00333618
0.00282386
0.00328937
0.00278197
0.0019936
0.000959088
0.00195175
0.000929889
0.00176374
0.00081431
0.00172911
0.000791178
0.000295092
0.000294411
0.000286528
0.000285903
0.000256849
0.000256362
0.00025099
0.000250543
0.000957572
0.00199302
0.000928457
0.00195118
0.000813032
0.0017632
0.000789972
0.00172859
0.00312117
0.00368006
0.00307073
0.00362362
0.00282433
0.00333794
0.0027824
0.00329101
0.00371463
0.00315307
0.00370497
0.00314462
0.00336564
0.00284996
0.00335813
0.0028434
0.00201968
0.000975945
0.0020132
0.000972246
0.00178454
0.000827093
0.00177957
0.000824447
0.000299709
0.000298993
0.000298837
0.000298129
0.000259867
0.000259356
0.000259322
0.000258816
0.000974366
0.00201907
0.000970687
0.0020126
0.000825767
0.00178399
0.000823134
0.00177902
0.0031537
0.0037169
0.00314525
0.00370719
0.00285046
0.0033675
0.00284389
0.00335995
0.00371837
0.00315629
0.00371892
0.00315681
0.00336824
0.00285219
0.00336885
0.00285276
0.00202197
0.000977092
0.00202259
0.000977663
0.00178621
0.000827811
0.00178672
0.000828287
0.000299903
0.000299182
0.000300105
0.000299384
0.00025993
0.000259416
0.000260086
0.000259572
0.000975506
0.00202135
0.000976077
0.00202198
0.000826478
0.00178565
0.000826954
0.00178616
0.00315694
0.00372065
0.00315746
0.0037212
0.00285269
0.00337012
0.00285326
0.00337072
0.0037164
0.00315455
0.00371849
0.00315643
0.0033664
0.00285052
0.00336823
0.00285219
0.00202068
0.000976044
0.00202223
0.000977211
0.00178491
0.00082681
0.00178626
0.000827802
0.000299497
0.000298776
0.000299884
0.000299163
0.000259609
0.000259097
0.000259896
0.000259382
0.000974454
0.00202007
0.000975621
0.00202162
0.000825475
0.00178435
0.000826467
0.0017857
0.0031552
0.00371868
0.00315708
0.00372078
0.00285103
0.00336828
0.00285269
0.00337011
0.00371283
0.00315143
0.0037156
0.00315389
0.00336321
0.00284769
0.00336563
0.00284986
0.00201816
0.000974112
0.00202021
0.000975658
0.00178262
0.000825104
0.00178442
0.000826423
0.00029881
0.000298091
0.000299331
0.00029861
0.000259083
0.000258572
0.000259472
0.000258959
0.000972521
0.00201754
0.000974066
0.00201959
0.000823769
0.00178206
0.000825088
0.00178386
0.00315207
0.00371511
0.00315454
0.00371788
0.00284819
0.00336509
0.00285036
0.00336751
0.00370844
0.00314759
0.00371163
0.00315039
0.00335929
0.00284424
0.00336209
0.00284671
0.00201504
0.000971755
0.00201737
0.000973501
0.00177982
0.000823047
0.00178186
0.000824536
0.000298006
0.000297289
0.000298579
0.00029786
0.00025848
0.000257971
0.000258903
0.000258392
0.000970163
0.00201442
0.000971908
0.00201675
0.000821712
0.00177925
0.000823201
0.0017813
0.00314823
0.00371071
0.00315103
0.00371391
0.00284474
0.00336116
0.00284721
0.00336396
0.00370348
0.00314328
0.00370697
0.00314635
0.00335483
0.00284034
0.00335791
0.00284306
0.00201153
0.000969118
0.00201407
0.000971018
0.00177664
0.000820736
0.00177889
0.000822369
0.000297118
0.000296404
0.000297742
0.000297026
0.000257809
0.000257303
0.000258275
0.000257767
0.000967526
0.00201091
0.000969425
0.00201344
0.000819403
0.00177607
0.000821035
0.00177832
0.00314391
0.00370575
0.00314698
0.00370925
0.00284083
0.00335669
0.00284355
0.00335978
0.00369798
0.00313851
0.00370176
0.00314183
0.00334983
0.00283602
0.00335319
0.00283896
0.00200766
0.000966236
0.00201039
0.000968273
0.00177312
0.000818201
0.00177556
0.00081996
0.000296173
0.000295463
0.000296827
0.000296114
0.000257098
0.000256594
0.000257584
0.000257079
0.000964645
0.00200703
0.000966681
0.00200977
0.000816869
0.00177255
0.000818626
0.00177498
0.00313914
0.00370024
0.00314245
0.00370403
0.00283651
0.00335168
0.00283945
0.00335505
0.00369191
0.00313328
0.00369599
0.00313684
0.0033443
0.00283127
0.00334793
0.00283443
0.00200341
0.000963096
0.00200635
0.000965282
0.00176925
0.000815426
0.00177188
0.000817326
0.000295149
0.000294443
0.000295853
0.000295144
0.000256319
0.000255818
0.00025685
0.000256347
0.000961506
0.00200278
0.000963691
0.00200572
0.000814095
0.00176868
0.000815993
0.00177131
0.0031339
0.00369417
0.00313746
0.00369825
0.00283175
0.00334614
0.00283492
0.00334978
0.00368526
0.00312755
0.00368963
0.00313137
0.0033382
0.00282606
0.00334213
0.00282947
0.00199877
0.000959688
0.00200193
0.000962027
0.00176502
0.000812405
0.00176784
0.000814444
0.00029406
0.000293358
0.0002948
0.000294095
0.000255492
0.000254995
0.000256049
0.000255549
0.000958101
0.00199814
0.000960437
0.0020013
0.000811075
0.00176444
0.000813113
0.00176726
0.00312817
0.00368751
0.00313199
0.00369189
0.00282654
0.00334004
0.00282995
0.00334397
0.00367802
0.00312134
0.0036827
0.00312541
0.00333152
0.00282038
0.00333575
0.00282403
0.00199373
0.000955988
0.0019971
0.000958495
0.00176039
0.000809108
0.00176342
0.000811299
0.000292882
0.000292185
0.000293679
0.000292978
0.000254592
0.000254099
0.000255196
0.0002547
0.000954403
0.00199309
0.000956908
0.00199647
0.00080778
0.00175981
0.00080997
0.00176284
0.00312195
0.00368026
0.00312602
0.00368494
0.00282085
0.00333336
0.00282451
0.00333759
0.0036701
0.00311457
0.00367514
0.00311894
0.0033242
0.00281417
0.00332876
0.00281809
0.00198824
0.000951979
0.00199184
0.000954649
0.00175533
0.000805524
0.00175858
0.000807867
0.000291624
0.000290932
0.000292464
0.000291769
0.000253632
0.000253142
0.000254266
0.000253774
0.000950397
0.0019876
0.000953065
0.00199121
0.000804199
0.00175475
0.000806541
0.001758
0.00311518
0.00367234
0.00311955
0.00367737
0.00281464
0.00332603
0.00281857
0.00333059
0.00366149
0.00310721
0.00366688
0.00311187
0.00331618
0.0028074
0.00332111
0.00281162
0.00198228
0.00094765
0.00198613
0.000950492
0.00174983
0.000801635
0.00175331
0.000804141
0.000290288
0.000289601
0.000291173
0.000290483
0.000252606
0.000252121
0.000253278
0.00025279
0.000946071
0.00198165
0.000948911
0.00198549
0.000800314
0.00174925
0.000802818
0.00175273
0.00310781
0.00366371
0.00311248
0.0036691
0.00280787
0.003318
0.00281209
0.00332293
0.00365214
0.00309927
0.00365791
0.00310423
0.00330743
0.00280002
0.00331272
0.00280455
0.00197583
0.00094297
0.00197994
0.000945998
0.00174384
0.000797417
0.00174758
0.000800091
0.000288855
0.000288175
0.000289794
0.00028911
0.0002515
0.000251021
0.000252212
0.000251729
0.000941394
0.00197519
0.000944421
0.0019793
0.000796099
0.00174326
0.000798771
0.00174699
0.00309986
0.00365435
0.00310483
0.00366013
0.00280048
0.00330923
0.00280501
0.00331454
0.00364197
0.00309065
0.00364816
0.00309597
0.00329791
0.00279199
0.0033036
0.00279685
0.00196884
0.000937917
0.00197323
0.000941139
0.00173734
0.000792851
0.00174134
0.0007957
0.000287322
0.000286648
0.000288313
0.000287635
0.000250314
0.000249839
0.000251065
0.000250587
0.000936344
0.0019682
0.000939564
0.00197258
0.000791538
0.00173676
0.000794385
0.00174075
0.00309124
0.00364417
0.00309656
0.00365037
0.00279244
0.00329971
0.0027973
0.0033054
0.00363095
0.00308132
0.00363757
0.003087
0.0032876
0.00278331
0.00329369
0.0027885
0.00196129
0.000932478
0.00196596
0.000935893
0.00173031
0.000787926
0.00173458
0.000790955
0.000285692
0.000285025
0.00028673
0.000286059
0.000249048
0.000248579
0.000249837
0.000249364
0.00093091
0.00196064
0.000934322
0.00196531
0.000786616
0.00172972
0.000789643
0.00173399
0.0030819
0.00363314
0.00308758
0.00363977
0.00278376
0.00328939
0.00278895
0.00329549
0.00361906
0.00307127
0.00362613
0.00307732
0.00327645
0.00277395
0.00328297
0.00277949
0.00195315
0.000926641
0.00195812
0.000930256
0.00172272
0.000782629
0.00172727
0.000785844
0.00028396
0.0002833
0.000285047
0.000284383
0.000247703
0.00024724
0.00024853
0.000248063
0.000925077
0.0019525
0.000928689
0.00195747
0.000781325
0.00172213
0.000784537
0.00172668
0.00307184
0.00362123
0.00307789
0.00362831
0.00277439
0.00327823
0.00277993
0.00328476
0.00360628
0.00306045
0.0036138
0.00306689
0.00326443
0.00276382
0.00327139
0.00276976
0.00194442
0.0009204
0.00194968
0.000924216
0.00171455
0.000776957
0.00171939
0.000780358
0.000282128
0.000281477
0.000283262
0.000282606
0.000246281
0.000245824
0.000247144
0.000246684
0.000918841
0.00194376
0.000922653
0.00194903
0.000775658
0.00171395
0.000779056
0.0017188
0.00306101
0.00360844
0.00306746
0.00361596
0.00276426
0.00326619
0.0027702
0.00327316
0.00359261
0.00304889
0.00360058
0.0030557
0.00325155
0.00275297
0.00325894
0.00275926
0.00193508
0.000913756
0.00194065
0.000917771
0.0017058
0.00077091
0.00171093
0.000774496
0.000280201
0.000279558
0.00028138
0.000280732
0.000244783
0.000244334
0.000245682
0.000245228
0.000912201
0.00193442
0.000916214
0.00193999
0.000769616
0.0017052
0.000773199
0.00171033
0.00304944
0.00359475
0.00305626
0.00360273
0.0027534
0.0032533
0.00275969
0.0032607
0.00357806
0.00303658
0.00358647
0.00304377
0.00323783
0.00274142
0.00324565
0.00274806
0.00192515
0.000906711
0.00193102
0.000910923
0.00169648
0.000764495
0.0017019
0.000768261
0.000278181
0.000277548
0.000279403
0.000278764
0.000243215
0.000242773
0.000244146
0.000243699
0.000905163
0.00192449
0.000909371
0.00193036
0.000763208
0.00169587
0.00076697
0.00170129
0.00303712
0.00358018
0.00304431
0.0035886
0.00274183
0.00323957
0.00274848
0.00324739
0.00356264
0.00302354
0.00357148
0.00303109
0.00322329
0.00272916
0.00323151
0.00273616
0.00191465
0.000899281
0.0019208
0.000903681
0.00168659
0.000757731
0.00169229
0.000761665
0.000276077
0.000275453
0.000277336
0.000276707
0.000241582
0.000241147
0.000242542
0.000242103
0.000897739
0.00191397
0.000902135
0.00192013
0.00075645
0.00168598
0.000760381
0.00169168
0.00302407
0.00356475
0.00303163
0.0035736
0.00272956
0.00322501
0.00273657
0.00323324
0.00354641
0.00300982
0.00355565
0.00301771
0.00320797
0.00271623
0.00321658
0.00272355
0.00190358
0.000891485
0.00191002
0.000896063
0.00167619
0.000750642
0.00168214
0.000754732
0.000273897
0.000273283
0.00027519
0.00027457
0.000239893
0.000239466
0.000240877
0.000240446
0.00088995
0.00190291
0.000894523
0.00190934
0.000749368
0.00167557
0.000753454