/*--------------------------------*- C++ -*----------------------------------*\
  =========                 |
  \\      /  F ield         | OpenFOAM: The Open Source CFD Toolbox
   \\    /   O peration     | Website:  https://openfoam.org
    \\  /    A nd           | Version:  9
     \\/     M anipulation  |
\*---------------------------------------------------------------------------*/
FoamFile
{
    format      ascii;
    class       volVectorField;
    location    "1.1";
    object      U;
}
// * * * * * * * * * * * * * * * * * * * * * * * * * * * * * * * * * * * * * //

dimensions      [0 1 -1 0 0 0 0];

internalField   nonuniform List<vector> 
36360
(
(0.000698813 -0.122289 -0.500027)
(-0.00101438 -0.0968497 9.38818e-05)
(-0.000666637 -0.124033 -0.501701)
(-0.00270275 -0.0899599 3.71532e-05)
(-0.00151492 -0.115433 -0.501434)
(0.0100079 -0.0999792 2.04304e-05)
(-0.000774881 -0.114981 -0.502152)
(0.011804 -0.107284 2.13551e-05)
(-0.00154174 -0.107404 -5.30802e-05)
(-0.00193326 -0.110466 -1.18787e-06)
(-0.00273011 -0.105371 -2.67862e-05)
(-0.00246153 -0.108353 -8.57846e-08)
(0.00486533 -0.110181 -1.07416e-05)
(0.00409598 -0.108781 -2.74436e-06)
(0.00658021 -0.113104 -2.17839e-05)
(0.00601041 -0.111337 -1.38788e-06)
(-0.00187472 -0.110975 9.51085e-07)
(-0.0018747 -0.110975 -9.51603e-07)
(-0.00236534 -0.1089 2.88208e-07)
(-0.00236533 -0.1089 -2.88412e-07)
(0.00410057 -0.108454 3.20901e-07)
(0.00410058 -0.108454 -3.22159e-07)
(0.00595305 -0.11105 1.70417e-07)
(0.00595304 -0.11105 -1.70773e-07)
(-0.00193322 -0.110465 1.18565e-06)
(-0.00154188 -0.107403 5.30693e-05)
(-0.00246144 -0.108352 8.50684e-08)
(-0.00273007 -0.10537 2.6783e-05)
(0.00409605 -0.10878 2.74162e-06)
(0.00486524 -0.110179 1.07368e-05)
(0.00601036 -0.111336 1.3869e-06)
(0.00658011 -0.113103 2.17826e-05)
(-0.00101475 -0.096848 -9.3891e-05)
(0.000698299 -0.122292 0.500027)
(-0.00270287 -0.0899583 -3.71557e-05)
(-0.000666961 -0.124036 0.501701)
(0.0100079 -0.0999792 -2.042e-05)
(-0.00151496 -0.115437 0.501434)
(0.011804 -0.107284 -2.1352e-05)
(-0.000774922 -0.114985 0.502152)
(0.00200131 -0.119015 -0.498903)
(-0.00204653 -0.103274 0.000129572)
(0.00152442 -0.120523 -0.499546)
(-0.000980414 -0.100613 0.000121795)
(-0.00120848 -0.116366 -0.500855)
(0.00336005 -0.0916595 1.44074e-06)
(-0.00154696 -0.116653 -0.501194)
(0.00704208 -0.0932242 1.21047e-05)
(0.000445672 -0.108891 -5.19813e-05)
(-0.000365944 -0.112022 -6.15665e-06)
(7.3841e-05 -0.108452 -5.63307e-05)
(-0.000829418 -0.111806 -3.4684e-06)
(0.00269156 -0.10558 2.51235e-05)
(0.00122719 -0.106584 -6.58341e-06)
(0.00392094 -0.107189 5.18861e-06)
(0.00260362 -0.106945 -4.77063e-06)
(-0.000432172 -0.112754 8.06072e-07)
(-0.000432191 -0.112754 -8.0711e-07)
(-0.000859448 -0.112449 1.0974e-06)
(-0.000859458 -0.112449 -1.09827e-06)
(0.0011639 -0.106282 -1.47419e-07)
(0.00116392 -0.106282 1.44756e-07)
(0.00259068 -0.106598 1.94972e-07)
(0.0025907 -0.106598 -1.97243e-07)
(-0.000366074 -0.112021 6.15024e-06)
(0.000445369 -0.108889 5.19532e-05)
(-0.000829464 -0.111805 3.46435e-06)
(7.35252e-05 -0.108451 5.63108e-05)
(0.00122722 -0.106583 6.57755e-06)
(0.00269142 -0.105579 -2.51365e-05)
(0.00260366 -0.106944 4.76615e-06)
(0.00392072 -0.107188 -5.19728e-06)
(-0.00204731 -0.103273 -0.000129595)
(0.00200146 -0.119018 0.498903)
(-0.000981007 -0.100611 -0.000121812)
(0.00152411 -0.120526 0.499546)
(0.00336113 -0.0916594 -1.41229e-06)
(-0.00120824 -0.116371 0.500856)
(0.00704279 -0.0932245 -1.2086e-05)
(-0.00154678 -0.116658 0.501194)
(0.00264106 -0.116654 -0.498243)
(-0.00375655 -0.105775 0.000114701)
(0.00234189 -0.117726 -0.498478)
(-0.0030976 -0.104822 0.000125552)
(-0.00025753 -0.115404 -0.501384)
(0.000145023 -0.0925839 -3.31135e-05)
(-0.000772018 -0.116006 -0.501218)
(0.00117238 -0.0916512 -1.45522e-05)
(0.000301387 -0.10897 -2.38483e-05)
(-8.87819e-05 -0.111942 -8.43528e-06)
(0.000383519 -0.109011 -4.04172e-05)
(-0.000192007 -0.112035 -7.96861e-06)
(0.00123325 -0.103638 7.30752e-05)
(0.00011713 -0.106306 -7.09869e-06)
(0.00172577 -0.104377 4.89224e-05)
(0.000404149 -0.106391 -7.3321e-06)
(-9.63274e-05 -0.112835 -3.26784e-07)
(-9.63256e-05 -0.112835 3.05588e-07)
(-0.000229576 -0.112847 2.63811e-07)
(-0.000229578 -0.112847 -2.62385e-07)
(-1.13855e-05 -0.106207 -7.53868e-07)
(-1.13724e-05 -0.106207 7.52682e-07)
(0.00029636 -0.10619 -4.59108e-07)
(0.000296382 -0.10619 4.5791e-07)
(-8.89019e-05 -0.111942 8.46271e-06)
(0.000301266 -0.108969 2.3855e-05)
(-0.000192111 -0.112035 7.96385e-06)
(0.000383285 -0.109009 4.03893e-05)
(0.000117197 -0.106304 7.09723e-06)
(0.00123352 -0.103637 -7.30883e-05)
(0.000404203 -0.10639 7.32713e-06)
(0.0017259 -0.104376 -4.89371e-05)
(-0.00375765 -0.105775 -0.000114733)
(0.00264165 -0.116657 0.498241)
(-0.00309857 -0.104821 -0.000125576)
(0.00234241 -0.117729 0.498477)
(0.000146041 -0.0925833 3.31703e-05)
(-0.000256595 -0.115408 0.501384)
(0.00117354 -0.0916509 1.45944e-05)
(-0.000770969 -0.116011 0.501219)
(0.00307574 -0.115067 -0.498014)
(-0.00420688 -0.107087 8.41856e-05)
(0.00288976 -0.115791 -0.498084)
(-0.00408509 -0.106496 0.00010011)
(0.000311061 -0.113676 -0.501341)
(-0.000413183 -0.0953071 -7.0236e-05)
(9.79437e-05 -0.114617 -0.501354)
(-0.000287342 -0.0939186 -5.20718e-05)
(0.000224007 -0.108818 1.17677e-05)
(4.73954e-05 -0.111658 -6.0217e-06)
(0.000244921 -0.108883 -5.76364e-06)
(-1.31681e-05 -0.111802 -7.70678e-06)
(0.00094943 -0.102936 0.000115427)
(8.87276e-05 -0.106211 -4.16872e-06)
(0.00102459 -0.103209 9.55329e-05)
(7.25516e-05 -0.106262 -5.99028e-06)
(3.39598e-05 -0.112704 -1.13979e-06)
(3.39915e-05 -0.112704 1.13557e-06)
(-1.33425e-05 -0.112779 -8.01975e-07)
(-1.33084e-05 -0.112779 8.04167e-07)
(-4.55218e-05 -0.106278 -1.2375e-06)
(-4.55186e-05 -0.106277 1.23248e-06)
(-5.95193e-05 -0.106256 -1.02796e-06)
(-5.95078e-05 -0.106256 1.02537e-06)
(4.73408e-05 -0.111658 6.00996e-06)
(0.000223772 -0.108817 -1.18094e-05)
(-1.31873e-05 -0.111802 7.69702e-06)
(0.000244707 -0.108882 5.72661e-06)
(8.8787e-05 -0.10621 4.15659e-06)
(0.000949719 -0.102935 -0.00011546)
(7.26197e-05 -0.106261 5.98022e-06)
(0.00102491 -0.103208 -9.55562e-05)
(-0.00420838 -0.107088 -8.42005e-05)
(0.00307639 -0.11507 0.498012)
(-0.00408643 -0.106495 -0.000100127)
(0.0028904 -0.115793 0.498082)
(-0.000412522 -0.0953066 7.03118e-05)
(0.000311928 -0.11368 0.501341)
(-0.000286503 -0.0939181 5.21393e-05)
(9.88456e-05 -0.114621 0.501353)
(0.00327444 -0.113855 -0.497926)
(-0.00418828 -0.107953 5.34594e-05)
(0.00320577 -0.114431 -0.497947)
(-0.0042263 -0.107572 6.83396e-05)
(0.000472222 -0.111649 -0.501325)
(-0.000335536 -0.0977112 -0.000102474)
(0.000434918 -0.112662 -0.501329)
(-0.000402819 -0.0965924 -8.71066e-05)
(0.000202949 -0.108779 4.11744e-05)
(0.000134944 -0.111385 -7.4526e-07)
(0.000211257 -0.108784 2.74914e-05)
(9.72101e-05 -0.111519 -3.57373e-06)
(0.000864712 -0.10261 0.000146829)
(0.000161508 -0.105957 9.16296e-07)
(0.000899067 -0.102744 0.000132478)
(0.000128418 -0.106104 -1.80667e-06)
(9.17981e-05 -0.112525 -1.38792e-06)
(9.18181e-05 -0.112525 1.37309e-06)
(6.5438e-05 -0.112618 -1.32092e-06)
(6.54635e-05 -0.112617 1.3126e-06)
(2.25042e-05 -0.106211 -1.38065e-06)
(2.25084e-05 -0.10621 1.36855e-06)
(-1.36544e-05 -0.106267 -1.35668e-06)
(-1.36512e-05 -0.106267 1.34849e-06)
(0.000134847 -0.111385 7.21792e-07)
(0.000202679 -0.108778 -4.12269e-05)
(9.71338e-05 -0.111518 3.55686e-06)
(0.000210992 -0.108783 -2.75387e-05)
(0.000161547 -0.105956 -9.37208e-07)
(0.000864899 -0.102609 -0.000146874)
(0.000128471 -0.106103 1.79062e-06)
(0.000899292 -0.102744 -0.000132517)
(-0.00418992 -0.107953 -5.34612e-05)
(0.00327512 -0.113857 0.497924)
(-0.0042279 -0.107572 -6.83478e-05)
(0.00320643 -0.114433 0.497945)
(-0.000334967 -0.0977111 0.000102567)
(0.000473112 -0.111651 0.501324)
(-0.000402213 -0.0965922 8.71914e-05)
(0.000435779 -0.112666 0.501328)
(0.00331939 -0.112831 -0.497867)
(-0.00405429 -0.10847 2.77225e-05)
(0.00331164 -0.113325 -0.49788)
(-0.0041297 -0.108249 3.99083e-05)
(0.000454079 -0.109776 -0.501313)
(-0.000197308 -0.0994394 -0.00012864)
(0.000480195 -0.110679 -0.501316)
(-0.000269979 -0.0986576 -0.000116296)
(0.000189738 -0.108789 6.23659e-05)
(0.000183154 -0.111108 5.44766e-06)
(0.000193753 -0.108785 5.27249e-05)
(0.000161843 -0.111249 2.28645e-06)
(0.000817944 -0.102456 0.000168637)
(0.000193619 -0.105607 6.91517e-06)
(0.000837687 -0.102517 0.000158766)
(0.000181286 -0.105789 3.85994e-06)
(0.000136799 -0.112311 -1.11256e-06)
(0.000136809 -0.112311 1.10277e-06)
(0.000114773 -0.112425 -1.31439e-06)
(0.000114817 -0.112425 1.30867e-06)
(5.87041e-05 -0.106023 -1.08774e-06)
(5.87051e-05 -0.106022 1.07803e-06)
(4.47573e-05 -0.106126 -1.29576e-06)
(4.47625e-05 -0.106126 1.28309e-06)
(0.000183051 -0.111108 -5.47001e-06)
(0.000189439 -0.108788 -6.24206e-05)
(0.000161769 -0.111249 -2.3386e-06)
(0.000193401 -0.108784 -5.27996e-05)
(0.000193646 -0.105606 -6.93468e-06)
(0.000818092 -0.102455 -0.000168682)
(0.00018132 -0.105788 -3.88482e-06)
(0.000837847 -0.102516 -0.000158817)
(-0.00405595 -0.108471 -2.77054e-05)
(0.00332007 -0.112832 0.497865)
(-0.00413138 -0.10825 -3.98926e-05)
(0.00331231 -0.113327 0.497878)
(-0.000196777 -0.0994396 0.000128752)
(0.000454956 -0.109778 0.501313)
(-0.00026944 -0.0986577 0.000116398)
(0.000481089 -0.110682 0.501315)
(0.00331517 -0.111926 -0.49781)
(-0.00389773 -0.108716 7.17452e-06)
(0.00332208 -0.112366 -0.497822)
(-0.00397857 -0.108624 1.68724e-05)
(0.000391923 -0.10818 -0.501301)
(-7.71652e-05 -0.100577 -0.000149366)
(0.000428977 -0.108943 -0.501304)
(-0.000138111 -0.100074 -0.000139617)
(0.000194877 -0.108766 7.6896e-05)
(0.000218084 -0.110805 1.17679e-05)
(0.000188862 -0.108784 7.02884e-05)
(0.000200813 -0.11096 8.60927e-06)
(0.000791432 -0.102384 0.00018342)
(0.000210112 -0.105225 1.30179e-05)
(0.000801572 -0.102415 0.000176754)
(0.000202343 -0.105419 9.98877e-06)
(0.000182735 -0.112041 -4.48515e-07)
(0.000182739 -0.112041 3.18502e-07)
(0.000159422 -0.112183 -7.96913e-07)
(0.000159428 -0.112183 7.82271e-07)
(8.00563e-05 -0.105765 -3.76322e-07)
(8.00468e-05 -0.105765 3.59856e-07)
(6.98672e-05 -0.105902 -7.73184e-07)
(6.98663e-05 -0.105902 7.65739e-07)
(0.000217974 -0.110805 -1.16493e-05)
(0.000194574 -0.108766 -7.67965e-05)
(0.000200703 -0.11096 -8.61354e-06)
(0.000188556 -0.108783 -7.03222e-05)
(0.000210104 -0.105224 -1.30169e-05)
(0.000791616 -0.102383 -0.000183435)
(0.000202366 -0.105418 -1.00018e-05)
(0.000801715 -0.102414 -0.000176789)
(-0.00389937 -0.108716 -7.22589e-06)
(0.00331583 -0.111927 0.497808)
(-0.00398023 -0.108624 -1.68475e-05)
(0.00332275 -0.112367 0.49782)
(-7.65957e-05 -0.100577 0.000149497)
(0.0003928 -0.108182 0.5013)
(-0.000137581 -0.100075 0.000139743)
(0.00042985 -0.108945 0.501303)
(0.00331097 -0.111098 -0.497752)
(-0.00374408 -0.108743 -8.95467e-06)
(0.00331463 -0.111504 -0.497765)
(-0.00382239 -0.108754 -1.33687e-06)
(0.000334075 -0.106827 -0.501289)
(1.64089e-05 -0.101255 -0.00016566)
(0.000366764 -0.107477 -0.501292)
(-3.13362e-05 -0.100966 -0.000158007)
(0.000220795 -0.108679 8.66215e-05)
(0.000252496 -0.110469 1.75313e-05)
(0.000204645 -0.108732 8.21935e-05)
(0.000234902 -0.110642 1.46719e-05)
(0.000781717 -0.102319 0.00019329)
(0.000224765 -0.10482 1.8733e-05)
(0.000783739 -0.102354 0.000188849)
(0.000217355 -0.105025 1.59352e-05)
(0.000232555 -0.111711 6.41117e-07)
(0.000232558 -0.111711 -6.51018e-07)
(0.000207061 -0.111884 1.12343e-07)
(0.000207064 -0.111884 -8.99783e-08)
(9.96934e-05 -0.105446 6.35553e-07)
(9.96919e-05 -0.105445 -6.45123e-07)
(8.99104e-05 -0.105613 1.0478e-07)
(8.99108e-05 -0.105613 -1.09952e-07)
(0.00025238 -0.110469 -1.75516e-05)
(0.0002205 -0.108679 -8.66729e-05)
(0.000234792 -0.110642 -1.47185e-05)
(0.000204345 -0.108732 -8.22717e-05)
(0.000224795 -0.104819 -1.87534e-05)
(0.000781873 -0.102319 -0.000193334)
(0.000217394 -0.105025 -1.59543e-05)
(0.000783883 -0.102354 -0.00018889)
(-0.00374567 -0.108744 8.99431e-06)
(0.00331162 -0.111099 0.49775)
(-0.003824 -0.108754 1.39921e-06)
(0.00331529 -0.111505 0.497763)
(1.69991e-05 -0.101255 0.000165798)
(0.000334937 -0.106828 0.501288)
(-3.07645e-05 -0.100967 0.000158144)
(0.000367642 -0.107478 0.501291)
(0.00332177 -0.110313 -0.497689)
(-0.00359742 -0.108596 -2.16598e-05)
(0.00331727 -0.110702 -0.497703)
(-0.00367221 -0.108689 -1.5685e-05)
(0.000289711 -0.105647 -0.501276)
(8.68237e-05 -0.101582 -0.000178417)
(0.000315851 -0.106219 -0.501279)
(5.01155e-05 -0.101456 -0.00017243)
(0.000264698 -0.108507 9.32056e-05)
(0.00028988 -0.110089 2.27362e-05)
(0.00024008 -0.108605 9.02315e-05)
(0.000270234 -0.110285 2.02159e-05)
(0.000785784 -0.102211 0.000199841)
(0.000240203 -0.104387 2.38697e-05)
(0.000781479 -0.102273 0.000196905)
(0.000232223 -0.104608 2.1381e-05)
(0.000287361 -0.111318 1.85243e-06)
(0.000287363 -0.111318 -1.86279e-06)
(0.000259244 -0.111523 1.2317e-06)
(0.000259247 -0.111523 -1.24182e-06)
(0.000120245 -0.105064 1.81673e-06)
(0.000120243 -0.105063 -1.82906e-06)
(0.000109764 -0.105263 1.21124e-06)
(0.000109762 -0.105262 -1.22248e-06)
(0.000289772 -0.110089 -2.27591e-05)
(0.000264404 -0.108507 -9.32603e-05)
(0.00027012 -0.110285 -2.02388e-05)
(0.000239785 -0.108605 -9.02851e-05)
(0.00024024 -0.104387 -2.38932e-05)
(0.000785951 -0.102211 -0.000199886)
(0.000232256 -0.104607 -2.14032e-05)
(0.000781639 -0.102273 -0.00019695)
(-0.00359897 -0.108597 2.17045e-05)
(0.00332241 -0.110314 0.497687)
(-0.00367378 -0.10869 1.57282e-05)
(0.00331792 -0.110703 0.497701)
(8.74407e-05 -0.101583 0.000178559)
(0.000290568 -0.105648 0.501276)
(5.07142e-05 -0.101457 0.00017257)
(0.000316706 -0.10622 0.501279)
(0.00334967 -0.109539 -0.497627)
(-0.00345821 -0.108302 -3.16504e-05)
(0.00333676 -0.109926 -0.497641)
(-0.00352907 -0.108466 -2.69487e-05)
(0.000257875 -0.104578 -0.501264)
(0.000136052 -0.101633 -0.000188294)
(0.000278493 -0.105101 -0.501267)
(0.000112591 -0.101637 -0.000183715)
(0.000320296 -0.108239 9.76404e-05)
(0.00033496 -0.109655 2.72749e-05)
(0.000290359 -0.108386 9.56392e-05)
(0.000311033 -0.109879 2.50869e-05)
(0.000799296 -0.102028 0.000204129)
(0.000257824 -0.103917 2.83604e-05)
(0.00079078 -0.10213 0.00020222)
(0.00024858 -0.104158 2.61959e-05)
(0.000348314 -0.110857 3.13981e-06)
(0.000348316 -0.110857 -3.15432e-06)
(0.000316992 -0.111096 2.49143e-06)
(0.000316999 -0.111096 -2.50526e-06)
(0.000142829 -0.104615 3.07294e-06)
(0.000142824 -0.104614 -3.08757e-06)
(0.000131261 -0.104848 2.44079e-06)
(0.000131258 -0.104848 -2.45468e-06)
(0.000334849 -0.109655 -2.73022e-05)
(0.000319989 -0.108239 -9.76947e-05)
(0.000310916 -0.109879 -2.51135e-05)
(0.000290056 -0.108386 -9.56927e-05)
(0.000257865 -0.103916 -2.83868e-05)
(0.000799462 -0.102028 -0.000204175)
(0.000248619 -0.104157 -2.6221e-05)
(0.000790947 -0.10213 -0.000202266)
(-0.00345976 -0.108302 3.17006e-05)
(0.00335029 -0.109539 0.497625)
(-0.00353062 -0.108467 2.69973e-05)
(0.00333739 -0.109927 0.497639)
(0.000136674 -0.101634 0.00018844)
(0.000258708 -0.104579 0.501264)
(0.000113208 -0.101637 0.000183859)
(0.000279342 -0.105102 0.501267)
(0.00339657 -0.108747 -0.497562)
(-0.00331896 -0.107874 -3.9519e-05)
(0.00337413 -0.109146 -0.497576)
(-0.00339083 -0.108104 -3.58141e-05)
(0.00023988 -0.103568 -0.501252)
(0.000178313 -0.101472 -0.00019619)
(0.000253228 -0.104068 -0.501255)
(0.000152626 -0.101584 -0.000192417)
(0.000387297 -0.107868 0.000100661)
(0.000390223 -0.109154 3.11699e-05)
(0.00035177 -0.108067 9.92834e-05)
(0.000361103 -0.109413 2.93008e-05)
(0.00082249 -0.10175 0.000206913)
(0.000278665 -0.103394 3.22224e-05)
(0.000809021 -0.101902 0.000205672)
(0.000267775 -0.103663 3.0367e-05)
(0.000416253 -0.110319 4.42001e-06)
(0.000416254 -0.110319 -4.44477e-06)
(0.000381358 -0.110598 3.78573e-06)
(0.000381361 -0.110598 -3.80261e-06)
(0.000167827 -0.104093 4.32608e-06)
(0.000167823 -0.104093 -4.34055e-06)
(0.000155023 -0.104363 3.70368e-06)
(0.000155018 -0.104363 -3.71898e-06)
(0.000390115 -0.109154 -3.12104e-05)
(0.000386982 -0.107867 -0.000100708)
(0.000360994 -0.109413 -2.93304e-05)
(0.000351458 -0.108067 -9.93372e-05)
(0.000278705 -0.103393 -3.2249e-05)
(0.000822654 -0.10175 -0.000206961)
(0.000267817 -0.103662 -3.03944e-05)
(0.000809186 -0.101902 -0.000205718)
(-0.00332049 -0.107875 3.95804e-05)
(0.00339716 -0.108748 0.49756)
(-0.00339237 -0.108104 3.5867e-05)
(0.00337473 -0.109147 0.497574)
(0.000178935 -0.101473 0.000196338)
(0.000240703 -0.103569 0.501252)
(0.000153243 -0.101584 0.000192564)
(0.000254055 -0.104069 0.501254)
(0.00345879 -0.107918 -0.497497)
(-0.00318438 -0.107328 -4.57769e-05)
(0.00342891 -0.108339 -0.497511)
(-0.00325412 -0.107616 -4.27919e-05)
(0.000231648 -0.102577 -0.50124)
(0.000208954 -0.10113 -0.000202312)
(0.000240546 -0.103072 -0.501242)
(0.000190058 -0.101322 -0.000199453)
(0.00046294 -0.107387 0.000102657)
(0.000456237 -0.108574 3.45816e-05)
(0.0004231 -0.107641 0.000101832)
(0.000421643 -0.108874 3.28487e-05)
(0.000851958 -0.101365 0.000208668)
(0.000303113 -0.102806 3.55181e-05)
(0.000835578 -0.101572 0.000207887)
(0.000290336 -0.103109 3.39457e-05)
(0.000491864 -0.109698 5.69384e-06)
(0.000491866 -0.109698 -5.64618e-06)
(0.000453036 -0.11002 5.03379e-06)
(0.000453042 -0.11002 -5.08131e-06)
(0.000195567 -0.103491 5.5318e-06)
(0.000195531 -0.103491 -5.54208e-06)
(0.000181345 -0.103803 4.93703e-06)
(0.000181372 -0.103802 -4.94155e-06)
(0.00045613 -0.108574 -3.44512e-05)
(0.00046263 -0.107387 -0.000102846)
(0.000421525 -0.108875 -3.29887e-05)
(0.000422778 -0.107641 -0.000101789)
(0.000303213 -0.102805 -3.55365e-05)
(0.000852161 -0.101365 -0.000208725)
(0.000290334 -0.103108 -3.39456e-05)
(0.00083573 -0.101572 -0.000207962)
(-0.0031859 -0.107328 4.57759e-05)
(0.00345937 -0.107918 0.497495)
(-0.00325564 -0.107616 4.2888e-05)
(0.00342949 -0.108339 0.497509)
(0.000209584 -0.101131 0.00020247)
(0.00023247 -0.102578 0.50124)
(0.000190676 -0.101323 0.000199594)
(0.000241369 -0.103073 0.501242)
(0.00353607 -0.107032 -0.49743)
(-0.00304562 -0.106665 -5.06867e-05)
(0.00349871 -0.107483 -0.497443)
(-0.00311824 -0.107011 -4.83526e-05)
(0.00023215 -0.101573 -0.501228)
(0.000235506 -0.100631 -0.000207254)
(0.000236573 -0.102078 -0.50123)
(0.000217668 -0.100899 -0.000204773)
(0.000548314 -0.106791 0.000104196)
(0.000533313 -0.107905 3.73385e-05)
(0.000503557 -0.107104 0.000103493)
(0.000493169 -0.108251 3.59893e-05)
(0.000887901 -0.100863 0.000209732)
(0.000331557 -0.102139 3.86485e-05)
(0.000868173 -0.101129 0.000209384)
(0.000316766 -0.102483 3.68251e-05)
(0.000576218 -0.108985 6.82091e-06)
(0.00057632 -0.108985 -6.8508e-06)
(0.000532914 -0.109354 6.26007e-06)
(0.000532852 -0.109354 -6.26502e-06)
(0.000226275 -0.1028 6.57742e-06)
(0.000226383 -0.1028 -6.77864e-06)
(0.000210574 -0.103157 6.07845e-06)
(0.000210502 -0.103157 -6.15967e-06)
(0.000533166 -0.107905 -3.73662e-05)
(0.000547865 -0.106791 -0.000104181)
(0.000493145 -0.108252 -3.59888e-05)
(0.000503301 -0.107104 -0.000103564)
(0.000331552 -0.102139 -3.80173e-05)
(0.000887961 -0.100864 -0.00020976)
(0.000316907 -0.102483 -3.71538e-05)
(0.000868419 -0.101129 -0.000209208)
(-0.00304718 -0.106666 5.07447e-05)
(0.00353661 -0.107032 0.497428)
(-0.00311976 -0.107011 4.84129e-05)
(0.00349927 -0.107483 0.497441)
(0.000236091 -0.100632 0.000207086)
(0.000232954 -0.101574 0.501227)
(0.000218291 -0.1009 0.000205083)
(0.000237393 -0.102079 0.50123)
(0.00362672 -0.106071 -0.497363)
(-0.00290115 -0.105888 -5.46329e-05)
(0.00358283 -0.106561 -0.497375)
(-0.00297663 -0.106292 -5.27425e-05)
(0.000241261 -0.100529 -0.501216)
(0.000266101 -0.0999861 -0.000211146)
(0.000241208 -0.101057 -0.501218)
(0.000245229 -0.100327 -0.000208819)
(0.0006424 -0.106075 0.000105212)
(0.000621794 -0.107133 3.98037e-05)
(0.000593275 -0.106449 0.000104688)
(0.000575886 -0.107532 3.85792e-05)
(0.000930266 -0.100239 0.000210427)
(0.000364352 -0.10138 4.13108e-05)
(0.000907212 -0.100567 0.000209986)
(0.000347254 -0.101772 3.90967e-05)
(0.000670576 -0.108168 7.88939e-06)
(0.000670748 -0.108168 -7.92926e-06)
(0.000622215 -0.10859 7.3897e-06)
(0.000622068 -0.10859 -7.38087e-06)
(0.000260574 -0.102011 7.44617e-06)
(0.000260736 -0.10201 -8.00518e-06)
(0.000243114 -0.102418 7.39431e-06)
(0.000242962 -0.102418 -7.03588e-06)
(0.000621718 -0.107133 -3.97583e-05)
(0.000641851 -0.106075 -0.000105194)
(0.000575777 -0.107533 -3.86473e-05)
(0.00059319 -0.106449 -0.000104784)
(0.000364425 -0.101379 -4.0162e-05)
(0.00093024 -0.10024 -0.000210131)
(0.00034731 -0.101772 -4.00668e-05)
(0.000907616 -0.100567 -0.00021016)
(-0.00290278 -0.105888 5.46659e-05)
(0.00362723 -0.106071 0.497361)
(-0.00297811 -0.106292 5.2836e-05)
(0.0035834 -0.106562 0.497373)
(0.000266596 -0.0999868 0.000210687)
(0.000242045 -0.10053 0.501216)
(0.000245868 -0.100327 0.000209494)
(0.000242036 -0.101058 0.501217)
(0.00373016 -0.10502 -0.497292)
(-0.0027479 -0.104984 -5.77664e-05)
(0.00367971 -0.105557 -0.497306)
(-0.00282863 -0.105452 -5.62452e-05)
(0.00025869 -0.0994243 -0.501204)
(0.000302707 -0.0991946 -0.000214123)
(0.00025436 -0.0999853 -0.501206)
(0.000279134 -0.0996089 -0.000212021)
(0.00074571 -0.105232 0.000105918)
(0.000722624 -0.106247 4.18893e-05)
(0.000691743 -0.10567 0.000105523)
(0.000670568 -0.106705 4.07976e-05)
(0.000979149 -0.0994867 0.000210764)
(0.000402578 -0.100515 4.34353e-05)
(0.000952753 -0.0998794 0.000210137)
(0.000382791 -0.100961 4.11465e-05)
(0.000776026 -0.10724 8.85285e-06)
(0.000776204 -0.10724 -8.91565e-06)
(0.000722031 -0.107719 8.42389e-06)
(0.000721857 -0.107719 -8.39427e-06)
(0.000298766 -0.101114 8.25667e-06)
(0.000298926 -0.101114 -9.10695e-06)
(0.000279347 -0.101577 8.56311e-06)
(0.000279175 -0.101576 -7.86498e-06)
(0.000722658 -0.106248 -4.18127e-05)
(0.000745106 -0.105232 -0.000105891)
(0.000670364 -0.106705 -4.09175e-05)
(0.000691781 -0.10567 -0.000105634)
(0.000402755 -0.100515 -4.20982e-05)
(0.000979079 -0.0994869 -0.000210135)
(0.000382748 -0.100961 -4.24509e-05)
(0.000953274 -0.0998798 -0.000210672)
(-0.00274955 -0.104984 5.77867e-05)
(0.00373065 -0.10502 0.49729)
(-0.00283009 -0.105452 5.63517e-05)
(0.00368029 -0.105557 0.497303)
(0.000303149 -0.0991952 0.000213488)
(0.000259469 -0.0994246 0.501203)
(0.000279756 -0.0996096 0.000212899)
(0.000255197 -0.0999857 0.501206)
(0.00384627 -0.103866 -0.497221)
(-0.00259132 -0.10395 -6.02548e-05)
(0.00378968 -0.104456 -0.497234)
(-0.00267038 -0.104483 -5.90291e-05)
(0.000285688 -0.0982389 -0.501192)
(0.000351598 -0.0982518 -0.00021638)
(0.000276199 -0.0988425 -0.501193)
(0.000320039 -0.0987421 -0.000214471)
(0.000858035 -0.104254 0.000106444)
(0.000836331 -0.105237 4.36541e-05)
(0.000799794 -0.10476 0.000106117)
(0.000777902 -0.105758 4.26949e-05)
(0.00103534 -0.0985975 0.000210801)
(0.000446708 -0.099534 4.51865e-05)
(0.00100504 -0.0990595 0.000210019)
(0.00042403 -0.10004 4.2929e-05)
(0.000893459 -0.106189 9.7232e-06)
(0.000893641 -0.106189 -9.80281e-06)
(0.000833373 -0.10673 9.35824e-06)
(0.000833214 -0.10673 -9.31216e-06)
(0.000341155 -0.100101 9.01528e-06)
(0.000341311 -0.100101 -1.00677e-05)
(0.000319594 -0.100623 9.5898e-06)
(0.000319436 -0.100623 -8.65636e-06)
(0.000836448 -0.105237 -4.35633e-05)
(0.000857391 -0.104254 -0.000106402)
(0.000777602 -0.105759 -4.28373e-05)
(0.000799902 -0.10476 -0.000106244)
(0.00044696 -0.0995339 -4.37357e-05)
(0.00103524 -0.0985978 -0.000209917)
(0.000423888 -0.10004 -4.43808e-05)
(0.00100564 -0.0990599 -0.000210851)
(-0.00259289 -0.10395 6.02688e-05)
(0.00384676 -0.103866 0.497219)
(-0.0026718 -0.104483 5.91424e-05)
(0.00379026 -0.104456 0.497232)
(0.000351966 -0.0982524 0.00021562)
(0.000286457 -0.0982391 0.501191)
(0.00032063 -0.0987428 0.000215492)
(0.000277038 -0.0988428 0.501193)
(0.00397398 -0.102594 -0.497149)
(-0.0024708 -0.102779 -6.22328e-05)
(0.00391122 -0.103245 -0.497162)
(-0.00253099 -0.103382 -6.12435e-05)
(0.000322811 -0.0969557 -0.50118)
(0.00042339 -0.0971665 -0.000218062)
(0.00030829 -0.0976102 -0.501181)
(0.000380708 -0.0977257 -0.000216321)
(0.000978705 -0.103133 0.000106749)
(0.000963082 -0.10409 4.51304e-05)
(0.0009159 -0.103712 0.000106523)
(0.000898209 -0.104681 4.43022e-05)
(0.00109932 -0.0975644 0.000210682)
(0.000496437 -0.0984259 4.66255e-05)
(0.0010653 -0.0980993 0.000209736)
(0.000471162 -0.0989967 4.443e-05)
(0.00102348 -0.105004 1.05055e-05)
(0.00102367 -0.105004 -1.05968e-05)
(0.000957036 -0.105614 1.01977e-05)
(0.0009569 -0.105614 -1.01385e-05)
(0.000387962 -0.0989601 9.70601e-06)
(0.000388115 -0.09896 -1.08985e-05)
(0.000364162 -0.0995472 1.04826e-05)
(0.000364021 -0.0995471 -9.38265e-06)
(0.000963266 -0.104091 -4.50334e-05)
(0.000978027 -0.103133 -0.000106695)
(0.000897839 -0.104682 -4.44547e-05)
(0.000916058 -0.103712 -0.000106666)
(0.000496753 -0.0984258 -4.51094e-05)
(0.00109918 -0.0975648 -0.00020961)
(0.00047095 -0.0989964 -4.59684e-05)
(0.00106594 -0.0980997 -0.000210786)
(-0.00247229 -0.102779 6.22433e-05)
(0.00397445 -0.102594 0.497146)
(-0.00253225 -0.103382 6.13609e-05)
(0.0039118 -0.103245 0.49716)
(0.000423703 -0.0971671 0.000217216)
(0.000323578 -0.0969558 0.50118)
(0.000381238 -0.0977263 0.000217445)
(0.000309126 -0.0976104 0.501181)
(0.00411599 -0.10119 -0.497075)
(-0.00234416 -0.101458 -6.38023e-05)
(0.00404595 -0.101909 -0.497088)
(-0.0024127 -0.102137 -6.30031e-05)
(0.000367892 -0.0955589 -0.501169)
(0.000503626 -0.0959462 -0.000219278)
(0.000349476 -0.0962722 -0.501169)
(0.000458961 -0.0965735 -0.000217688)
(0.00111105 -0.101859 0.000106939)
(0.00110309 -0.102797 4.63586e-05)
(0.0010422 -0.102516 0.000106737)
(0.00103161 -0.103462 4.56453e-05)
(0.00116878 -0.0963797 0.000210488)
(0.000550718 -0.0971794 4.78011e-05)
(0.00113225 -0.0969914 0.000209422)
(0.0005233 -0.0978208 4.56864e-05)
(0.00116645 -0.103674 1.12017e-05)
(0.00116665 -0.103674 -1.13006e-05)
(0.00109349 -0.104358 1.09462e-05)
(0.00109339 -0.104358 -1.08775e-05)
(0.000439302 -0.0976818 1.03307e-05)
(0.000439457 -0.0976817 -1.16169e-05)
(0.000413217 -0.0983389 1.12545e-05)
(0.000413098 -0.0983388 -1.00406e-05)
(0.00110333 -0.102797 -4.62601e-05)
(0.00111034 -0.101859 -0.000106876)
(0.00103119 -0.103463 -4.58007e-05)
(0.00104238 -0.102516 -0.00010689)
(0.000551084 -0.0971793 -4.62553e-05)
(0.00116863 -0.0963802 -0.000209282)
(0.000523044 -0.0978206 -4.72693e-05)
(0.00113293 -0.0969919 -0.00021063)
(-0.00234569 -0.101458 6.3811e-05)
(0.00411644 -0.10119 0.497072)
(-0.00241396 -0.102137 6.31233e-05)
(0.00404651 -0.101909 0.497086)
(0.000503942 -0.0959467 0.000218373)
(0.000368664 -0.095559 0.501168)
(0.000459481 -0.0965741 0.000218882)
(0.000350316 -0.0962723 0.501169)
(0.00427209 -0.099645 -0.496999)
(-0.00219502 -0.099984 -6.50451e-05)
(0.00419504 -0.100436 -0.497011)
(-0.00227472 -0.10074 -6.4399e-05)
(0.000419775 -0.0940349 -0.501157)
(0.000584722 -0.0945828 -0.00022011)
(0.00039784 -0.0948134 -0.501157)
(0.000539455 -0.0952828 -0.000218656)
(0.0012558 -0.100426 0.000107143)
(0.00125677 -0.101347 4.73817e-05)
(0.00118078 -0.101163 0.000106917)
(0.00117847 -0.102092 4.67665e-05)
(0.00124275 -0.095036 0.000210202)
(0.000609505 -0.0957841 4.8757e-05)
(0.00120401 -0.0957281 0.000209072)
(0.000579864 -0.0965011 4.67307e-05)
(0.0013225 -0.102191 1.18171e-05)
(0.00132271 -0.102191 -1.19207e-05)
(0.00124299 -0.102952 1.16071e-05)
(0.00124292 -0.102952 -1.15324e-05)
(0.000495215 -0.0962568 1.08905e-05)
(0.000495369 -0.0962568 -1.22378e-05)
(0.000466823 -0.0969883 1.19221e-05)
(0.00046673 -0.0969883 -1.06333e-05)
(0.00125703 -0.101348 -4.72844e-05)
(0.00125508 -0.100426 -0.000107073)
(0.00117801 -0.102093 -4.69212e-05)
(0.00118098 -0.101163 -0.000107076)
(0.000609909 -0.095784 -4.72038e-05)
(0.00124261 -0.0950364 -0.000208902)
(0.000579575 -0.0965009 -4.8329e-05)
(0.00120472 -0.0957285 -0.00021039)
(-0.00219658 -0.0999841 6.50529e-05)
(0.00427254 -0.0996449 0.496997)
(-0.002276 -0.10074 6.45204e-05)
(0.00419559 -0.100435 0.497009)
(0.000585042 -0.0945833 0.000219166)
(0.000420555 -0.0940349 0.501156)
(0.000539989 -0.0952834 0.000219896)
(0.000398687 -0.0948134 0.501157)
(0.00444087 -0.09795 -0.496923)
(-0.00203329 -0.0983646 -6.60202e-05)
(0.00435773 -0.0988164 -0.496935)
(-0.00211667 -0.0991907 -6.55021e-05)
(0.000477495 -0.0923714 -0.501145)
(0.000680844 -0.0930665 -0.000220618)
(0.000452775 -0.0932209 -0.501146)
(0.000624447 -0.0938442 -0.000219289)
(0.00141203 -0.0988287 0.000107433)
(0.00142391 -0.0997314 4.82422e-05)
(0.0013315 -0.0996482 0.00010715)
(0.00133899 -0.100561 4.77042e-05)
(0.00132083 -0.0935262 0.000209806)
(0.00067274 -0.0942304 4.9535e-05)
(0.00128014 -0.094302 0.000208656)
(0.000640934 -0.0950277 4.75932e-05)
(0.00149186 -0.100543 1.23603e-05)
(0.00149205 -0.100543 -1.24662e-05)
(0.00140566 -0.101388 1.21885e-05)
(0.0014056 -0.101388 -1.21104e-05)
(0.000555876 -0.094676 1.13878e-05)
(0.000556008 -0.094676 -1.27749e-05)
(0.000525083 -0.0954865 1.2499e-05)
(0.000524998 -0.0954865 -1.1162e-05)
(0.00142419 -0.0997319 -4.81471e-05)
(0.00141129 -0.0988288 -0.000107357)
(0.0013385 -0.100561 -4.78561e-05)
(0.0013317 -0.0996483 -0.000107315)
(0.000673172 -0.0942303 -4.79866e-05)
(0.00132069 -0.0935266 -0.000208441)
(0.000640623 -0.0950275 -4.91899e-05)
(0.00128086 -0.0943025 -0.000210051)
(-0.00203481 -0.0983645 6.60279e-05)
(0.00444131 -0.0979498 0.49692)
(-0.00211797 -0.0991908 6.56236e-05)
(0.00435826 -0.0988162 0.496933)
(0.000681093 -0.093067 0.00021965)
(0.000478286 -0.0923714 0.501144)
(0.000624964 -0.0938448 0.000220559)
(0.000453629 -0.0932209 0.501145)
(0.00461996 -0.096095 -0.496845)
(-0.00189673 -0.0966142 -6.67553e-05)
(0.00453174 -0.0970433 -0.496857)
(-0.00196111 -0.0975108 -6.63554e-05)
(0.000539469 -0.0905605 -0.501133)
(0.000837544 -0.0913839 -0.00022085)
(0.000512518 -0.0914845 -0.501134)
(0.000744975 -0.0922468 -0.000219634)
(0.00157813 -0.0970584 0.00010761)
(0.00160417 -0.0979406 4.90109e-05)
(0.00149272 -0.097966 0.000107485)
(0.00151276 -0.0988582 4.85125e-05)
(0.0014028 -0.0918463 0.00020928)
(0.000740349 -0.0925105 5.01774e-05)
(0.00136013 -0.0927075 0.000208143)
(0.000706385 -0.0933918 4.83069e-05)
(0.0016744 -0.0987214 1.28415e-05)
(0.00167456 -0.0987217 -1.29485e-05)
(0.00158166 -0.0996541 1.27012e-05)
(0.0015816 -0.0996543 -1.26213e-05)
(0.000621226 -0.0929312 1.18271e-05)
(0.000621338 -0.0929312 -1.32411e-05)
(0.000588106 -0.0938246 1.29988e-05)