/*--------------------------------*- C++ -*----------------------------------*\
  =========                 |
  \\      /  F ield         | OpenFOAM: The Open Source CFD Toolbox
   \\    /   O peration     | Website:  https://openfoam.org
    \\  /    A nd           | Version:  9
     \\/     M anipulation  |
\*---------------------------------------------------------------------------*/
FoamFile
{
    format      ascii;
    class       volScalarField;
    location    "3.7";
    object      p;
}
// * * * * * * * * * * * * * * * * * * * * * * * * * * * * * * * * * * * * * //

dimensions      [0 2 -2 0 0 0 0];

internalField   nonuniform List<scalar> 
36360
(
20.2323
20.0031
20.22
20.0141
20.0084
20.1749
20.0272
20.1451
20.0834
20.0986
20.0892
20.1051
20.1075
20.0948
20.0977
20.0921
20.1004
20.1004
20.1069
20.1069
20.0937
20.0937
20.092
20.092
20.0986
20.0834
20.1051
20.0892
20.0948
20.1075
20.0921
20.0977
20.0031
20.2323
20.0141
20.22
20.1749
20.0085
20.1451
20.0272
20.1193
20.0725
20.1612
20.0509
19.9186
20.2427
19.9621
20.2163
20.1096
20.1009
20.0981
20.0987
20.1383
20.101
20.1239
20.0979
20.0964
20.0964
20.0974
20.0974
20.0942
20.0942
20.0942
20.0942
20.1009
20.1096
20.0987
20.0981
20.101
20.1383
20.0979
20.1239
20.0725
20.1193
20.0509
20.1612
20.2427
19.9187
20.2163
19.9621
20.072
20.0872
20.0924
20.0826
19.8617
20.2677
19.8862
20.2586
20.1292
20.1097
20.1203
20.105
20.1614
20.11
20.1509
20.1052
20.098
20.098
20.0967
20.0967
20.0964
20.0964
20.095
20.095
20.1097
20.1292
20.105
20.1203
20.11
20.1614
20.1052
20.1509
20.0872
20.072
20.0826
20.0924
20.2677
19.8617
20.2586
19.8862
20.044
20.0885
20.0562
20.0887
19.8277
20.2751
19.8427
20.2727
20.1415
20.1187
20.1362
20.1144
20.1757
20.1195
20.1695
20.1149
20.1024
20.1024
20.1
20.1
20.1009
20.1009
20.0985
20.0985
20.1187
20.1415
20.1144
20.1362
20.1195
20.1757
20.1149
20.1695
20.0885
20.044
20.0887
20.0562
20.2751
19.8278
20.2726
19.8427
20.0263
20.0856
20.0342
20.0873
19.8061
20.2761
19.8158
20.276
20.1482
20.126
20.1454
20.1226
20.1837
20.1275
20.1803
20.1237
20.1078
20.1078
20.1051
20.1051
20.1061
20.1061
20.1035
20.1035
20.126
20.1482
20.1226
20.1454
20.1275
20.1837
20.1237
20.1803
20.0856
20.0263
20.0873
20.0342
20.2761
19.8061
20.276
19.8158
20.0144
20.0818
20.0198
20.0837
19.7914
20.2749
19.7981
20.2756
20.1515
20.1316
20.1501
20.129
20.1881
20.1336
20.1862
20.1308
20.1131
20.1131
20.1105
20.1105
20.1113
20.1113
20.1088
20.1088
20.1316
20.1515
20.129
20.1502
20.1336
20.1881
20.1308
20.1862
20.0818
20.0144
20.0837
20.0198
20.2749
19.7914
20.2756
19.7981
20.0059
20.078
20.0098
20.0799
19.7808
20.2731
19.7857
20.274
20.153
20.1357
20.1524
20.1338
20.1904
20.138
20.1894
20.136
20.1175
20.1175
20.1154
20.1154
20.1159
20.1159
20.1137
20.1137
20.1357
20.153
20.1338
20.1524
20.138
20.1905
20.136
20.1894
20.0781
20.006
20.0799
20.0098
20.2731
19.7808
20.274
19.7857
19.9996
20.0747
20.0025
20.0763
19.7731
20.2712
19.7765
20.2722
20.1535
20.1385
20.1533
20.1373
20.1917
20.1411
20.1912
20.1397
20.121
20.121
20.1194
20.1194
20.1195
20.1195
20.1178
20.1178
20.1385
20.1535
20.1373
20.1533
20.1411
20.1917
20.1397
20.1912
20.0747
19.9996
20.0763
20.0025
20.2712
19.7731
20.2721
19.7768
19.9946
20.0716
19.997
20.0731
19.7677
20.2691
19.7703
20.2701
20.1533
20.1403
20.1534
20.1395
20.1921
20.1431
20.1919
20.1422
20.1236
20.1236
20.1224
20.1224
20.1222
20.1222
20.121
20.121
20.1403
20.1533
20.1395
20.1535
20.1431
20.1921
20.1422
20.192
20.0716
19.9947
20.0731
19.997
20.2691
19.7677
20.2702
19.7702
19.9906
20.0689
19.9925
20.0702
19.7629
20.2673
19.7652
20.2682
20.1527
20.1413
20.1531
20.1409
20.1921
20.1443
20.1921
20.1438
20.1253
20.1253
20.1245
20.1245
20.1241
20.1241
20.1233
20.1233
20.1413
20.1528
20.1409
20.1531
20.1443
20.192
20.1438
20.1921
20.0689
19.9907
20.0703
19.9926
20.2672
19.7632
20.2682
19.7653
19.9873
20.0665
19.9889
20.0677
19.7582
20.2656
19.7606
20.2664
20.1519
20.1417
20.1524
20.1416
20.1917
20.1449
20.1919
20.1447
20.1262
20.1262
20.1258
20.1258
20.1253
20.1252
20.1248
20.1248
20.1417
20.1519
20.1416
20.1524
20.1449
20.1916
20.1447
20.1919
20.0665
19.9874
20.0677
19.9889
20.2655
19.759
20.2664
19.7609
19.9843
20.0641
19.9857
20.0653
19.7558
20.2634
19.7567
20.2646
20.1507
20.1415
20.1514
20.1417
20.1907
20.1448
20.1913
20.145
20.1264
20.1264
20.1264
20.1264
20.1257
20.1257
20.1256
20.1255
20.1415
20.1507
20.1416
20.1513
20.1448
20.1908
20.1449
20.1912
20.0641
19.9843
20.0653
19.9858
20.2635
19.7557
20.2645
19.7574
19.9817
20.0618
19.9829
20.063
19.7533
20.2614
19.7547
20.2624
20.1492
20.1407
20.15
20.1411
20.1895
20.1442
20.1901
20.1445
20.1261
20.1261
20.1263
20.1263
20.1254
20.1254
20.1256
20.1256
20.1407
20.1492
20.1411
20.15
20.1442
20.1895
20.1445
20.1901
20.0618
19.9816
20.063
19.983
20.2612
19.7532
20.2623
19.7546
19.9791
20.0596
19.9803
20.0607
19.7509
20.259
19.7522
20.2601
20.1474
20.1395
20.1483
20.1402
20.1879
20.1431
20.1887
20.1437
20.1251
20.1251
20.1257
20.1257
20.1246
20.1247
20.1251
20.1251
20.1395
20.1474
20.1402
20.1484
20.1431
20.188
20.1437
20.1889
20.0596
19.9791
20.0608
19.9804
20.2592
19.7502
20.2604
19.7512
19.9767
20.0572
19.9778
20.0584
19.7488
20.2564
19.7498
20.2577
20.1454
20.1378
20.1464
20.1387
20.1858
20.1414
20.1869
20.1423
20.1236
20.1236
20.1244
20.1244
20.1232
20.1232
20.124
20.124
20.1378
20.1453
20.1387
20.1464
20.1414
20.1858
20.1423
20.1869
20.0572
19.9767
20.0584
19.9778
20.2563
19.7492
20.2577
19.7498
19.9742
20.0548
19.9755
20.0561
19.7472
20.2534
19.7478
20.255
20.143
20.1357
20.1442
20.1368
20.1833
20.1393
20.1847
20.1404
20.1217
20.1217
20.1227
20.1227
20.1213
20.1213
20.1224
20.1223
20.1356
20.143
20.1368
20.1442
20.1393
20.1833
20.1404
20.1846
20.0547
19.9742
20.056
19.9755
20.2532
19.748
20.2549
19.7484
19.9717
20.0523
19.973
20.0536
19.7456
20.2502
19.7466
20.2518
20.1404
20.1332
20.1418
20.1345
20.1805
20.1367
20.1819
20.138
20.1193
20.1193
20.1205
20.1205
20.1189
20.1189
20.1201
20.1201
20.1331
20.1404
20.1344
20.1417
20.1366
20.1804
20.138
20.1819
20.0523
19.9718
20.0535
19.973
20.2502
19.7461
20.2518
19.7468
19.9691
20.0498
19.9704
20.0511
19.7437
20.2467
19.7445
20.2486
20.1377
20.1303
20.1391
20.1318
20.1772
20.1336
20.1789
20.1352
20.1165
20.1165
20.1179
20.1179
20.116
20.1159
20.1175
20.1175
20.1303
20.1378
20.1318
20.1391
20.1336
20.1772
20.1352
20.1788
20.0499
19.9691
20.051
19.9704
20.2467
19.7441
20.2482
19.7457
19.9665
20.047
19.9677
20.0484
19.7416
20.2432
19.7431
20.2447
20.1348
20.1272
20.1363
20.1288
20.1737
20.1302
20.1755
20.132
20.1134
20.1135
20.115
20.115
20.1126
20.1126
20.1143
20.1143
20.1273
20.1349
20.1288
20.1364
20.1303
20.1738
20.132
20.1756
20.0472
19.9665
20.0486
19.9678
20.2432
19.7413
20.2452
19.7422
19.9639
20.0442
19.9652
20.0456
19.7402
20.239
19.7407
20.2412
20.1316
20.1238
20.1332
20.1255
20.1698
20.1264
20.1718
20.1284
20.1101
20.1101
20.1118
20.1118
20.1088
20.1088
20.1108
20.1108
20.1239
20.1317
20.1256
20.1333
20.1264
20.1698
20.1284
20.1718
20.0444
19.9637
20.0458
19.9651
20.2391
19.7398
20.2411
19.7407
19.9611
20.0415
19.9625
20.0428
19.7388
20.2346
19.7392
20.237
20.1284
20.1201
20.13
20.122
20.1655
20.1222
20.1677
20.1244
20.1063
20.1063
20.1082
20.1082
20.1047
20.1047
20.1068
20.1068
20.1201
20.1284
20.1221
20.13
20.1222
20.1654
20.1244
20.1677
20.0414
19.9613
20.0429
19.9625
20.2345
19.7388
20.2369
19.7393
19.9585
20.0388
19.9597
20.0401
19.737
20.2301
19.7383
20.2321
20.1251
20.1161
20.1267
20.1181
20.1609
20.1178
20.1632
20.12
20.1025
20.1025
20.1044
20.1044
20.1003
20.1003
20.1025
20.1025
20.1161
20.1251
20.1181
20.1267
20.1177
20.1609
20.12
20.1632
20.0388
19.9586
20.0402
19.96
20.2301
19.7371
20.2325
19.7377
19.9562
20.0361
19.9574
20.0374
19.735
20.2257
19.736
20.2279
20.1218
20.1122
20.1235
20.1142
20.1563
20.1131
20.1587
20.1155
20.0986
20.0986
20.1005
20.1005
20.0957
20.0957
20.098
20.098
20.1122
20.1218
20.1141
20.1234
20.113
20.1562
20.1154
20.1585
20.0361
19.956
20.0375
19.9572
20.2252
19.7362
20.2277
19.7368
19.9538
20.0337
19.9549
20.035
19.735
20.2205
19.7349
20.2232
20.1187
20.1083
20.1203
20.1103
20.1514
20.1082
20.1539
20.1107
20.0947
20.0947
20.0966
20.0966
20.0909
20.0909
20.0933
20.0933
20.1084
20.1188
20.1103
20.1202
20.1083
20.1516
20.1107
20.1539
20.0337
19.9539
20.0348
19.955
20.221
19.7337
20.223
19.7351
19.9518
20.0316
19.9529
20.0326
19.7333
20.2161
19.7341
20.2184
20.116
20.1046
20.1173
20.1065
20.1468
20.1035
20.1491
20.1058
20.0909
20.0909
20.0928
20.0928
20.0861
20.0861
20.0885
20.0885
20.1047
20.116
20.1065
20.1174
20.1035
20.1468
20.1059
20.1492
20.0316
19.9516
20.0327
19.9526
20.2162
19.7332
20.2186
19.7333
19.9505
20.0297
19.951
20.0306
19.7327
20.2117
19.7331
20.2138
20.1131
20.1012
20.1146
20.1029
20.1421
20.0987
20.1444
20.1011
20.0874
20.0874
20.0891
20.0891
20.0814
20.0814
20.0837
20.0837
20.1012
20.1131
20.1029
20.1147
20.0987
20.1421
20.1011
20.1444
20.0298
19.9502
20.0307
19.9508
20.2116
19.733
20.2139
19.7331
19.9492
20.0285
19.9498
20.029
19.7327
20.2075
19.7327
20.2095
20.11
20.098
20.1115
20.0995
20.1375
20.0941
20.1397
20.0964
20.0842
20.0842
20.0858
20.0858
20.0769
20.0769
20.0791
20.0791
20.098
20.11
20.0995
20.1115
20.0941
20.1375
20.0964
20.1397
20.0284
19.9493
20.0291
19.9496
20.2075
19.7329
20.2095
19.7329
19.949
20.0278
19.9489
20.0281
19.7332
20.2037
19.7327
20.2057
20.1077
20.0953
20.1088
20.0966
20.1333
20.0899
20.1353
20.092
20.0815
20.0815
20.0828
20.0828
20.0728
20.0728
20.0748
20.0748
20.0953
20.1077
20.0966
20.1088
20.0899
20.1333
20.092
20.1353
20.0277
19.949
20.028
19.9491
20.2037
19.7333
20.2056
19.7329
19.9495
20.0277
19.9491
20.0277
19.7347
20.2003
19.7338
20.202
20.106
20.0932
20.1068
20.0942
20.1294
20.0861
20.1313
20.0879
20.0794
20.0794
20.0804
20.0804
20.0692
20.0692
20.0709
20.0709
20.0932
20.106
20.0942
20.1068
20.0861
20.1294
20.0879
20.1313
20.0278
19.9495
20.0277
19.9491
20.2003
19.7348
20.2019
19.7339
19.9508
20.0285
19.95
20.0281
19.7374
20.1974
19.7359
20.1988
20.105
20.0917
20.1054
20.0924
20.1262
20.0829
20.1277
20.0844
20.078
20.078
20.0786
20.0786
20.0662
20.0662
20.0676
20.0676
20.0917
20.105
20.0924
20.1054
20.0829
20.1262
20.0844
20.1277
20.0286
19.9509
20.0281
19.95
20.1974
19.7374
20.1988
19.736
19.9532
20.0302
19.9519
20.0293
19.7412
20.1952
19.7391
20.1962
20.1047
20.091
20.1048
20.0913
20.1235
20.0804
20.1247
20.0815
20.0775
20.0775
20.0777
20.0777
20.064
20.064
20.065
20.065
20.091
20.1047
20.0913
20.1048
20.0804
20.1235
20.0815
20.1247
20.0302
19.9532
20.0293
19.9519
20.1952
19.7412
20.1962
19.7391
19.9567
20.0327
19.9548
20.0314
19.7463
20.1937
19.7435
20.1944
20.1052
20.0911
20.1049
20.091
20.1215
20.0787
20.1224
20.0794
20.0778
20.0778
20.0775
20.0775
20.0628
20.0628
20.0633
20.0633
20.0911
20.1052
20.091
20.1049
20.0787
20.1215
20.0794
20.1224
20.0327
19.9567
20.0314
19.9548
20.1937
19.7463
20.1944
19.7436
19.9613
20.0361
19.9588
20.0343
19.7529
20.193
19.7494
20.1932
20.1063
20.092
20.1057
20.0914
20.1203
20.0779
20.1208
20.0781
20.0791
20.0791
20.0783
20.0784
20.0626
20.0626
20.0626
20.0626
20.092
20.1063
20.0914
20.1057
20.0779
20.1203
20.0781
20.1208
20.0361
19.9613
20.0343
19.9588
20.193
19.7529
20.1932
19.7494
19.9673
20.0403
19.9641
20.0381
19.7612
20.1929
19.7568
20.1929
20.1082
20.0938
20.1072
20.0928
20.1198
20.0781
20.1199
20.0778
20.0815
20.0815
20.0802
20.0802
20.0636
20.0636
20.063
20.063
20.0938
20.1082
20.0928
20.1072
20.0781
20.1198
20.0778
20.1199
20.0403
19.9673
20.0381
19.9641
20.1929
19.7612
20.1929
19.7568
19.9747
20.0451
19.9708
20.0426
19.7714
20.1935
19.766
20.1932
20.1107
20.0964
20.1094
20.095
20.12
20.0793
20.1198
20.0786
20.0849
20.0849
20.0831
20.0831
20.0658
20.0659
20.0646
20.0646
20.0964
20.1107
20.095
20.1094
20.0793
20.12
20.0786
20.1198
20.0451
19.9747
20.0426
19.9708
20.1935
19.7714
20.1932
19.766
19.9835
20.0505
19.9789
20.0478
19.7839
20.1944
19.7773
20.1939
20.1136
20.0999
20.1121
20.0981
20.1208
20.0817
20.1203
20.0804
20.0893
20.0893
20.087
20.087
20.0694
20.0694
20.0675
20.0675
20.0999
20.1136
20.0981
20.1121
20.0817
20.1208
20.0804
20.1203
20.0505
19.9835
20.0478
19.9789
20.1944
19.7839
20.1939
19.7774
19.9935
20.0564
19.9884
20.0534
19.7995
20.195
19.7913
20.1948
20.1169
20.1042
20.1152
20.102
20.1221
20.0852
20.1214
20.0833
20.0948
20.0948
20.0919
20.0919
20.0742
20.0742
20.0716
20.0716
20.1042
20.1169
20.102
20.1152
20.0852
20.1221
20.0833
20.1214
20.0564
19.9935
20.0534
19.9884
20.195
19.7995
20.1948
19.7913
20.0026
20.0642
19.9986
20.0597
19.8191
20.194
19.8087
20.1948
20.1205
20.1094
20.1186
20.1067
20.1236
20.0899
20.1228
20.0874
20.1013
20.1013
20.0979
20.0979
20.0804
20.0804
20.0771
20.0771
20.1094
20.1205
20.1067
20.1186
20.0899
20.1236
20.0874
20.1228
20.0642
20.0026
20.0597
19.9986
20.194
19.8191
20.1948
19.8087
20.01
20.0736
20.0045
20.0707
19.8438
20.1891
19.8307
20.1923
20.1259
20.1158
20.123
20.1124
20.126
20.096
20.1246
20.0927
20.1088
20.1088
20.1049
20.1049
20.0878
20.0878
20.0839
20.0839
20.1158
20.1259
20.1124
20.123
20.096
20.126
20.0927
20.1246
20.0736
20.01
20.0707
20.0045
20.1891
19.8438
20.1923
19.8307
20.3936
19.9544
20.3045
19.9863
20.3537
19.9441
20.2844
19.9777
20.0049
20.0682
20.0378
20.0841
20.0293
20.0834
20.0528
20.0932
20.0961
20.0961
20.102
20.102
20.0993
20.0993
20.1026
20.1026
20.0682
20.0049
20.0841
20.0379
20.0834
20.0293
20.0932
20.0528
19.9544
20.3935
19.9863
20.3044
19.9441
20.3537
19.9777
20.2843
20.2719
20.042
20.3117
20.0198
20.2405
20.0212
20.2797
20.0006
20.0395
20.0696
20.0269
20.0686
20.0602
20.0854
20.0484
20.0839
20.0871
20.0871
20.0911
20.0911
20.0941
20.0941
20.0964
20.0964
20.0696
20.0396
20.0687
20.0269
20.0854
20.0602
20.0839
20.0484
20.042
20.2719
20.0198
20.3117
20.0212
20.2405
20.0006
20.2796
20.2386
20.0477
20.2522
20.0475
20.2029
20.0289
20.2188
20.0277
20.0547
20.0768
20.0485
20.073
20.0768
20.0936
20.0695
20.0894
20.0875
20.0875
20.0864
20.0864
20.0949
20.0949
20.0939
20.0939
20.0768
20.0547
20.073
20.0485
20.0936
20.0768
20.0894
20.0695
20.0477
20.2386
20.0476
20.2521
20.029
20.2028
20.0277
20.2187
20.2211
20.0433
20.2287
20.0459
20.1815
20.0258
20.1908
20.0279
20.0611
20.0837
20.0586
20.0805
20.0856
20.1013
20.082
20.0976
20.0921
20.0921
20.0896
20.0896
20.0994
20.0994
20.0969
20.0969
20.0837
20.0611
20.0805
20.0586
20.1013
20.0856
20.0976
20.082
20.0433
20.221
20.0459
20.2286
20.0258
20.1815
20.0279
20.1908
20.2104
20.0376
20.2152
20.0405
20.1684
20.0206
20.1742
20.0232
20.0632
20.089
20.0625
20.0866
20.0892
20.1077
20.0879
20.1047
20.0975
20.0975
20.0948
20.0948
20.1048
20.1048
20.1021
20.1021
20.089
20.0632
20.0866
20.0625
20.1077
20.0892
20.1047
20.0879
20.0377
20.2104
20.0405
20.2151
20.0207
20.1684
20.0232
20.1742
20.2034
20.0324
20.2066
20.0349
20.1597
20.0157
20.1637
20.0181
20.0633
20.0928
20.0634
20.0911
20.0901
20.1125
20.0899
20.1103
20.1025
20.1025
20.1001
20.1001
20.11
20.11
20.1075
20.1075
20.0928
20.0633
20.0911
20.0634
20.1125
20.0901
20.1103
20.0899
20.0324
20.2033
20.0349
20.2066
20.0157
20.1597
20.0181
20.1637
20.1983
20.0277
20.2007
20.0299
20.1536
20.0111
20.1565
20.0133
20.0626
20.0953
20.063
20.0942
20.0899
20.116
20.0901
20.1144
20.1065
20.1065
20.1046
20.1046
20.1143
20.1143
20.1123
20.1123
20.0953
20.0626
20.0942
20.063
20.116
20.0899
20.1144
20.0901
20.0277
20.1983
20.0299
20.2006
20.0111
20.1536
20.0133
20.1565
20.1945
20.0236
20.1963
20.0256
20.149
20.0071
20.1512
20.009
20.0615
20.0969
20.0621
20.0962
20.0892
20.1184
20.0896
20.1173
20.1095
20.1095
20.1081
20.1081
20.1177
20.1177
20.1161
20.1161
20.097
20.0615
20.0963
20.0621
20.1184
20.0892
20.1173
20.0896
20.0237
20.1945
20.0256
20.1963
20.0071
20.1489
20.009
20.1511
20.1915
20.0201
20.1929
20.0218
20.1453
20.0036
20.147
20.0053
20.0602
20.0978
20.0609
20.0975
20.0882
20.1199
20.0887
20.1192
20.1115
20.1115
20.1106
20.1106
20.12
20.12
20.119
20.119
20.0978
20.0602
20.0975
20.0609
20.1199
20.0882
20.1192
20.0888
20.0201
20.1914
20.0218
20.1929
20.0036
20.1453
20.0053
20.147
20.189
20.0168
20.1902
20.0184
20.1424
20.0003
20.1438
20.0019
20.0586
20.098
20.0594
20.098
20.0869
20.1206
20.0876
20.1203
20.1127
20.1127
20.1122
20.1122
20.1216
20.1216
20.1209
20.1209
20.098
20.0587
20.098
20.0594
20.1206
20.087
20.1203
20.0876
20.0169
20.1889
20.0184
20.1902
20.0004
20.1424
20.0019
20.1438
20.1867
20.0139
20.1878
20.0153
20.14
19.9974
20.1412
19.9988
20.057
20.0978
20.0578
20.098
20.0855
20.1207
20.0863
20.1207
20.1132
20.1132
20.1131
20.1131
20.1223
20.1223
20.122
20.122
20.0978
20.057
20.098
20.0579
20.1207
20.0856
20.1207
20.0863
20.0139
20.1867
20.0153
20.1878
19.9975
20.1398
19.9989
20.1411
20.1846
20.011
20.1857
20.0124
20.1376
19.9946
20.1388
19.9959
20.0552
20.0971
20.0561
20.0975
20.0839
20.1203
20.0847
20.1206
20.1131
20.1131
20.1133
20.1133
20.1224
20.1224
20.1225
20.1225
20.0971
20.0552
20.0975
20.0561
20.1203
20.0839
20.1206
20.0848
20.0111
20.1846
20.0124
20.1857
19.9946
20.1377
19.996
20.1387
20.1826
20.0083
20.1836
20.0096
20.1354
19.992
20.1365
19.9933
20.0533
20.096
20.0542
20.0966
20.0822
20.1194
20.0831
20.1199
20.1125
20.1125
20.1129
20.1129
20.1219
20.1219
20.1223
20.1222
20.096
20.0533
20.0966
20.0543
20.1194
20.0821
20.1199
20.0831
20.0083
20.1826
20.0097
20.1836
19.9919
20.1355
19.9933
20.1366
20.1806
20.0056
20.1816
20.0069
20.1334
19.9893
20.1343
19.9907
20.0512
20.0946
20.0523
20.0953
20.0802
20.1181
20.0812
20.1188
20.1114
20.1114
20.112
20.112
20.1209
20.1209
20.1215
20.1215
20.0946
20.0512
20.0953
20.0523
20.1181
20.0801
20.1188
20.0812
20.0056
20.1806
20.0069
20.1817
19.9891
20.1337
19.9905
20.1347
20.1783
20.0031
20.1795
20.0043
20.1313
19.9867
20.1324
19.9879
20.0491
20.0929
20.0502
20.0938
20.078
20.1164
20.0791
20.1173
20.11
20.11
20.1108
20.1108
20.1194
20.1194
20.1202
20.1202
20.0929
20.0491
20.0937
20.0502
20.1164
20.078
20.1173
20.0791
20.003
20.1784
20.0043
20.1796
19.9866
20.1315
19.9878
20.1325
20.1761
20.0004
20.1772
20.0018
20.1292
19.9839
20.1303
19.9852
20.0468
20.0909
20.048
20.0919
20.0756
20.1144
20.0769
20.1154
20.1081
20.1081
20.1091
20.1091
20.1175
20.1175
20.1185
20.1185
20.0909
20.0469
20.0919
20.048
20.1143
20.0756
20.1154
20.0768
20.0005
20.1761
20.0018
20.1772
19.9838
20.1294
19.9851
20.1305
20.1739
19.9977
20.1751
19.999
20.1269
19.9813
20.1281
19.9826
20.0445
20.0888
20.0457
20.0899
20.0732
20.112
20.0745
20.1132
20.1061
20.1061
20.1071
20.1071
20.1153
20.1153
20.1164
20.1164
20.0887
20.0444
20.0898
20.0456
20.112
20.0732
20.1132
20.0744
19.9976
20.1741
19.999
20.1752
19.9813
20.127
19.9825
20.1283
20.172
19.9949
20.173
19.9963
20.1246
19.9785
20.1259
19.9798
20.042
20.0864
20.0433
20.0876
20.0706
20.1094
20.0719
20.1107
20.1038
20.1038
20.1049
20.105
20.1127
20.1127
20.114
20.114
20.0865
20.0421
20.0876
20.0433
20.1094
20.0706
20.1107
20.072
19.9951
20.1717
19.9964
20.1729
19.9787
20.1245
19.9801
20.1257
20.1693
19.9926
20.1707
19.9937
20.122
19.9761
20.1232
19.9774
20.0397
20.0841
20.0409
20.0852
20.068
20.1065
20.0693
20.108
20.1013
20.1013
20.1026
20.1026
20.1099
20.1099
20.1114
20.1114
20.084
20.0397
20.0853
20.0409
20.1066
20.068
20.108
20.0693
19.9924
20.1697
19.9937
20.1708
19.9761
20.1221
19.9773
20.1234
20.1672
19.9902
20.1683
19.9913
20.1197
19.9734
20.121
19.9747
20.0374
20.0816
20.0386
20.0828
20.0651
20.1034
20.0666
20.105
20.0988
20.0988
20.1001
20.1001
20.107
20.107
20.1085
20.1085
20.0816
20.0375
20.0829
20.0386
20.1034
20.0652
20.1051
20.0666
19.9903
20.1671
19.9913
20.1684
19.9735
20.1196
19.9748
20.1208
20.1647
19.9881
20.166
19.9891
20.1171
19.9712
20.1185
19.9722
20.0353
20.0793
20.0363
20.0804
20.0625
20.1006
20.0638
20.1019
20.0963
20.0963
20.0976
20.0976
20.1039
20.1039
20.1054
20.1054
20.0793
20.0353
20.0804
20.0364
20.1006
20.0625
20.1019
20.0639
19.9881
20.1648
19.9892
20.166
19.9714
20.1169
19.9724
20.1183
20.163
19.986
20.1639
19.987
20.115
19.9687
20.116
19.9699
20.0332
20.0769
20.0342
20.0781
20.0597
20.098
20.0611
20.0993
20.0938
20.0939
20.0951
20.0951
20.1008
20.1008
20.1023
20.1023
20.0769
20.0334
20.0781
20.0343
20.098
20.0598
20.0993
20.0612
19.9863
20.1626
19.9871
20.1637
19.9689
20.1148
19.9701
20.1159
20.1608
19.9847
20.1618
19.9853
20.1126
19.9669
20.1138
19.9678
20.0317
20.0751
20.0324
20.076
20.0572
20.0952
20.0585
20.0966
20.0916
20.0916
20.0927
20.0927
20.0978
20.0978
20.0993
20.0993
20.0751
20.0316
20.076
20.0324
20.0952
20.0572
20.0966
20.0585
19.9844
20.1612
19.9853
20.1619
19.967
20.1126
19.9679
20.1137
20.1598
19.9832
20.1603
19.9838
20.1109
19.9651
20.1118
19.9659
20.0303
20.0734
20.0309
20.0742
20.0546
20.0925
20.0559
20.0938
20.0896
20.0896
20.0906
20.0906
20.0949
20.0949
20.0963
20.0963
20.0735
20.0303
20.0742
20.0309
20.0925
20.0546
20.0938
20.0559
19.9834
20.1595
19.9839
20.1602
19.965
20.1111
19.9659
20.1118
20.1584
19.9828
20.159
19.983
20.1092
19.9641
20.11
19.9645
20.0296
20.0722
20.0298
20.0728
20.0521
20.0902
20.0534
20.0913
20.088
20.088
20.0887
20.0887
20.0924
20.0924
20.0936
20.0936
20.0722
20.0294
20.0728
20.0298
20.0902
20.052
20.0913
20.0533
19.9824
20.1591
19.9828
20.1593
19.9639
20.1095
19.9644
20.1103
20.1582
19.9825
20.1582
19.9825
20.1087
19.9631
20.1089
19.9634
20.0293
20.0713
20.0296
20.0717
20.0504
20.0882
20.0508
20.0891
20.0867
20.0867
20.0873
20.0873
20.0901
20.0901
20.0912
20.0912
20.0713
20.0293
20.0717
20.0295
20.0882
20.0504
20.0891
20.0507
19.9824
20.1582
19.9823
20.1587
19.9631
20.1086
19.9634
20.109
20.1581
19.983
20.1582
19.9826
20.1078
19.9633
20.1081
19.9631
20.0294
20.071
20.0293
20.0711
20.0512
20.0868
20.0509
20.0875
20.0859
20.0859
20.0863
20.0863
20.0883
20.0883
20.0891
20.0891
20.071
20.0294
20.0711
20.0292
20.0868
20.0512
20.0875
20.0509
19.9829
20.1583
19.9826
20.1582
19.9632
20.1079
19.9631
20.1082
20.1589
19.9842
20.1584
19.9833
20.108
19.9639
20.1078
19.9634
20.0304
20.0712
20.0298
20.071
20.0517
20.0859
20.0514
20.0863
20.0858
20.0858
20.0858
20.0858
20.087
20.087
20.0876
20.0876
20.0712
20.0304
20.071
20.0298
20.0859
20.0517
20.0863
20.0514
19.9843
20.1588
19.9833
20.1585
19.9638
20.1081
19.9633
20.108
20.1601
19.9865
20.1594
19.9852
20.1087
19.9654
20.1083
19.9645
20.0321
20.0721
20.0311
20.0716
20.0526
20.0856
20.0521
20.0857
20.0863
20.0863
20.0859
20.0859
20.0864
20.0864
20.0866
20.0866
20.0721
20.0321
20.0716
20.0311
20.0856
20.0526
20.0857
20.0521
19.9865
20.1601
19.9853
20.1594
19.9654
20.1087
19.9645
20.1083
20.1621
19.9897
20.161
19.9879
20.1101
19.9676
20.1093
19.9664
20.0345
20.0738
20.0332
20.0729
20.0542
20.086
20.0533
20.0857
20.0874
20.0874
20.0868
20.0868
20.0865
20.0865
20.0864
20.0864
20.0738
20.0345
20.0729
20.0332
20.086
20.0542
20.0857
20.0533
19.9897
20.1621
19.9879
20.161
19.9676
20.1101
19.9664
20.1093
20.1647
19.9945
20.1633
19.9919
20.1124
19.9701
20.1112
19.9687
20.0378
20.0761
20.036
20.0748
20.0564
20.0871
20.0552
20.0865
20.0894
20.0894
20.0883
20.0883
20.0874
20.0874
20.0869
20.0869
20.0761
20.0378
20.0748
20.0361
20.0871
20.0564
20.0865
20.0552
19.9945
20.1647
19.9919
20.1633
19.9701
20.1124
19.9688
20.1112
20.168
19.9976
20.1663
19.9959
20.1156
19.9751
20.1139
19.9725
20.0415
20.0792
20.0396
20.0775
20.0593
20.089
20.0578
20.088
20.092
20.092
20.0906
20.0906
20.0892
20.0892
20.0882
20.0882
20.0792
20.0415
20.0775
20.0396
20.089
20.0594
20.088
20.0578
19.9976
20.1679
19.9959
20.1663
19.9751
20.1156
19.9725
20.1139
20.1718
20.0022
20.1698
19.9998
20.1195
19.9804
20.1175
19.9777
20.046
20.0829
20.0437
20.081
20.063
20.0916
20.0611
20.0902
20.0954
20.0954
20.0936
20.0936
20.0917
20.0917
20.0904
20.0904
20.0829
20.046
20.081
20.0437
20.0916
20.063
20.0902
20.0611
20.0022
20.1718
19.9998
20.1698
19.9804
20.1195
19.9777
20.1175
20.176
20.0076
20.1739
20.0048
20.1243
19.9864
20.1219
19.9833
20.051
20.0872
20.0485
20.085
20.0672
20.0949
20.065
20.0932
20.0995
20.0995
20.0974
20.0974
20.0952
20.0952
20.0934
20.0934
20.0872
20.051
20.085
20.0485
20.0949
20.0672
20.0932
20.065
20.0076
20.176
20.0048
20.1739
19.9864
20.1243
19.9833
20.1219
20.1804
20.0137
20.1782
20.0106
20.1297
19.993
20.127
19.9896
20.0566
20.092
20.0538
20.0895
20.072
20.0989
20.0695
20.0968
20.1041
20.1041
20.1017
20.1017
20.0994
20.0994
20.0972
20.0972
20.092
20.0566
20.0895
20.0538
20.0989
20.072
20.0969
20.0695
20.0137
20.1804
20.0106
20.1782
19.993
20.1297
19.9896
20.127
20.1842
20.0205
20.1824
20.017
20.1354
20.0004
20.1326
19.9966
20.0626
20.0972
20.0595
20.0945
20.0772
20.1034
20.0745
20.1011
20.1092
20.1092
20.1066
20.1066
20.1043
20.1043
20.1018
20.1018
20.0972
20.0626
20.0945
20.0595
20.1034
20.0772
20.1011
20.0745
20.0205
20.1842
20.017
20.1824
20.0004
20.1354
19.9966
20.1326
20.1861
20.0287
20.1855
20.0243
20.1406
20.0089
20.1382
20.0044
20.069
20.1026
20.0657
20.0999
20.0826
20.1084
20.0799
20.1058
20.1149
20.1149
20.112
20.112
20.1099
20.1099
20.107
20.107
20.1026
20.069
20.0999
20.0657
20.1084
20.0826
20.1058
20.0799
20.0287
20.1861
20.0243
20.1855
20.0089
20.1406
20.0044
20.1382
20.1797
20.0433
20.1849
20.0343
20.1405
20.0219
20.142
20.0142
20.0758
20.1082
20.0723
20.1053
20.0884
20.1138
20.0854
20.111
20.1211
20.1211
20.1179
20.1179
20.1163
20.1163
20.113
20.113
20.1082
20.0758
20.1053
20.0723
20.1138
20.0884
20.111
20.0854
20.0433
20.1797
20.0343
20.1849
20.0219
20.1405
20.0143
20.142
20.1965
20.0373
20.1736
20.0536
20.1559
20.0193
20.1377
20.0305
20.078
20.1148
20.079
20.1113
20.0923
20.1204
20.0915
20.1169
20.1279
20.1279
20.1244
20.1244
20.1234
20.1234
20.1198
20.1198
20.1148
20.078
20.1113
20.079
20.1204
20.0923
20.1169
20.0915
20.0373
20.1965
20.0536
20.1735
20.0193
20.1559
20.0305
20.1377
20.4113
19.9877
20.3135
20.009
20.4058
19.9731
20.3106
19.9992
19.9883
20.0475
20.0272
20.0715
19.993
20.056
20.0301
20.0766
20.0828
20.0828
20.0952
20.0952
20.0896
20.0896
20.099
20.099
20.0475
19.9884
20.0716
20.0272
20.056
19.993
20.0766
20.0302
19.9877
20.4113
20.009
20.3134
19.9731
20.4057
19.9992
20.3106
20.2658
20.0931
20.3113
20.0674
20.2719
20.0707
20.3144
20.0463
20.0355
20.0501
20.0188
20.0489
20.0339
20.0577
20.0195
20.0567
20.068
20.068
20.0745
20.0745
20.0775
20.0775
20.0828
20.0828
20.0501
20.0355
20.0489
20.0188
20.0577
20.0339
20.0567
20.0195
20.093
20.2658
20.0674
20.3112
20.0707
20.2719
20.0463
20.3143
20.233
20.099
20.2457
20.099
20.2396
20.0763
20.2524
20.0765
20.0523
20.0569
20.0461
20.0534
20.0495
20.0646
20.0434
20.061
20.0666
20.0666
20.0661
20.0661
20.0768
20.0768
20.0761
20.0761
20.0569
20.0523
20.0534
20.0461
20.0646
20.0495
20.061
20.0434
20.099
20.2329
20.099
20.2456
20.0763
20.2396
20.0765
20.2523
20.2174
20.0947
20.224
20.0971
20.2236
20.0717
20.2304
20.0743
20.0574
20.0627
20.0556
20.06
20.0551
20.0707
20.0531
20.0679
20.0706
20.0706
20.0683
20.0683
20.0811
20.0811
20.0787
20.0787
20.0627
20.0574
20.0601
20.0557
20.0707
20.0551
20.0679
20.0531
20.0947
20.2174
20.0971
20.224
20.0717
20.2235
20.0743
20.2304
20.2082
20.0894
20.2123
20.092
20.214
20.0663
20.2182
20.069
20.0584
20.0668
20.0581
20.065
20.0565
20.0751
20.0561
20.0731
20.0755
20.0755
20.0731
20.0731
20.0863
20.0863
20.0838
20.0838
20.0668
20.0584
20.065
20.0582
20.0751
20.0565
20.0731
20.0561
20.0894
20.2082
20.092
20.2123
20.0663
20.2139
20.069
20.2182
20.2021
20.0848
20.2049
20.087
20.2075
20.0614
20.2105
20.0638
20.0581
20.0693
20.0583
20.0682
20.0562
20.0781
20.0565
20.0767
20.0796
20.0796
20.0777
20.0777
20.0909
20.0909
20.0887
20.0887
20.0693
20.0581
20.0682
20.0583
20.0781
20.0562
20.0767
20.0565
20.0848
20.2021
20.087
20.2049
20.0614
20.2075
20.0638
20.2105
20.1976
20.0807
20.1997
20.0827
20.2029
20.0571
20.2051
20.0591
20.0572
20.0708
20.0577
20.0702
20.0553
20.08
20.0558
20.0792
20.0827
20.0827
20.0813
20.0813
20.0944
20.0944
20.0928
20.0928
20.0709
20.0572
20.0702
20.0577
20.08
20.0553
20.0792
20.0558
20.0807
20.1976
20.0827
20.1997
20.0571
20.2029
20.0592
20.2051
20.1942
20.0772
20.1958
20.0789
20.1994
20.0534
20.2011
20.0551
20.0561
20.0716
20.0567
20.0713
20.0541
20.0811
20.0547
20.0807
20.0848
20.0848
20.0839
20.0839
20.097
20.097
20.0958
20.0958
20.0717
20.0561
20.0713
20.0567
20.0811
20.0541
20.0807
20.0547
20.0773
20.1941
20.0789
20.1958
20.0534
20.1994
20.0552
20.201
20.1914
20.0742
20.1927
20.0756
20.1965
20.0501
20.1979
20.0516
20.0547
20.0718
20.0554
20.0718
20.0526
20.0816
20.0533
20.0814
20.0861
20.0861
20.0856
20.0856
20.0986
20.0986
20.0979
20.0979
20.0719
20.0547
20.0718
20.0554
20.0816
20.0526
20.0815
20.0534
20.0742
20.1914
20.0756
20.1927
20.0501
20.1965
20.0517
20.1979
20.189
20.0713
20.1902
20.0727
20.1942
20.0471
20.1953
20.0485
20.0532
20.0716
20.0539
20.0718
20.051
20.0815
20.0518
20.0816
20.0867
20.0868
20.0865
20.0865
20.0995
20.0995
20.0992
20.0992
20.0716
20.0532
20.0718
20.054
20.0815
20.051
20.0816
20.0518
20.0713
20.189
20.0727
20.1901
20.0471
20.1941
20.0485
20.1953
20.1868
20.0687
20.1879
20.07
20.192
20.0443
20.1931
20.0456
20.0515
20.0709
20.0523
20.0713
20.0493
20.081
20.0501
20.0813
20.0868
20.0868
20.0868
20.0868
20.0998
20.0998
20.0997
20.0997
20.0709
20.0515
20.0713
20.0524
20.081
20.0493
20.0813
20.0502
20.0687
20.1868
20.07
20.1879
20.0443
20.192
20.0456
20.193
20.1848
20.0662
20.1859
20.0674
20.19
20.0416
20.191
20.0429
20.0497
20.0699
20.0506
20.0704
20.0474
20.0801
20.0484
20.0806
20.0863
20.0863
20.0866
20.0866
20.0995
20.0995
20.0997
20.0997
20.0699
20.0497
20.0705
20.0506
20.0802
20.0474
20.0806
20.0484
20.0662
20.1849
20.0674
20.1858
20.0416
20.19
20.0429
20.191
20.1829
20.0637
20.1839
20.0649
20.188
20.039
20.189
20.0403
20.0478
20.0686
20.0488
20.0693
20.0455
20.0789
20.0464
20.0796
20.0855
20.0855
20.086
20.086
20.0987
20.0987
20.0992
20.0992
20.0686
20.0478
20.0693
20.0488
20.0789
20.0455
20.0796
20.0465
20.0637
20.1829
20.0649
20.1839
20.039
20.188
20.0403
20.189
20.1809
20.0613
20.1819
20.0625
20.186
20.0364
20.187
20.0377
20.0458
20.0671
20.0468
20.0679
20.0434
20.0775
20.0444
20.0782
20.0843
20.0843
20.0849
20.0849
20.0976
20.0976
20.0982
20.0982
20.0671
20.0458
20.0679
20.0468
20.0775
20.0434
20.0782
20.0444
20.0613
20.1809
20.0625
20.1819
20.0364
20.186
20.0377
20.187
20.1789
20.0589
20.1799
20.0601
20.1838
20.0339
20.1849
20.0351
20.0437
20.0654
20.0447
20.0663
20.0413
20.0758
20.0423
20.0766
20.0829
20.0829
20.0836
20.0836
20.0961
20.0961
20.0969
20.0969
20.0654
20.0437
20.0663
20.0447
20.0758
20.0413
20.0766
20.0423
20.0589
20.1789
20.0601
20.1799
20.0339
20.1839