/*--------------------------------*- C++ -*----------------------------------*\
  =========                 |
  \\      /  F ield         | OpenFOAM: The Open Source CFD Toolbox
   \\    /   O peration     | Website:  https://openfoam.org
    \\  /    A nd           | Version:  9
     \\/     M anipulation  |
\*---------------------------------------------------------------------------*/
FoamFile
{
    format      ascii;
    class       surfaceScalarField;
    location    "1";
    object      phi;
}
// * * * * * * * * * * * * * * * * * * * * * * * * * * * * * * * * * * * * * //

dimensions      [0 3 -1 0 0 0 0];

internalField   nonuniform List<scalar> 
12376
(
5.39407e-10
0.000188899
1.69806e-07
-5.74782e-12
0.000188899
1.70367e-07
5.7856e-12
0.000188898
1.70255e-07
-5.39894e-10
0.000188899
1.70371e-07
0.000188899
1.69811e-07
-5.08399e-10
0.000188712
1.86972e-07
-4.17256e-11
0.000188712
1.86116e-07
4.16456e-11
0.000188712
1.85926e-07
5.07924e-10
0.000188712
1.8612e-07
0.000188712
1.86976e-07
-3.13039e-10
0.000188459
2.53581e-07
-2.70751e-11
0.000188459
2.53403e-07
2.68528e-11
0.000188459
2.53381e-07
3.12205e-10
0.000188459
2.53406e-07
0.000188459
2.53585e-07
-1.5211e-10
0.000188096
3.63658e-07
-4.66873e-11
0.000188095
3.63922e-07
4.52478e-11
0.000188095
3.63912e-07
1.51366e-10
0.000188095
3.63924e-07
0.000188096
3.6366e-07
-1.10747e-10
0.000187593
5.02864e-07
-8.7565e-11
0.000187592
5.03012e-07
8.71411e-11
0.000187592
5.02881e-07
1.10223e-10
0.000187592
5.03014e-07
0.000187593
5.02864e-07
-7.61752e-11
0.000186928
6.65162e-07
-9.85922e-11
0.000186926
6.65235e-07
9.78732e-11
0.000186926
6.65016e-07
7.58142e-11
0.000186926
6.65236e-07
0.000186928
6.65159e-07
-3.66073e-11
0.000186079
8.48762e-07
-1.04815e-10
0.000186078
8.48856e-07
1.03975e-10
0.000186078
8.48575e-07
3.64931e-11
0.000186078
8.48856e-07
0.000186079
8.48758e-07
5.61561e-12
0.000185027
1.05171e-06
-1.09035e-10
0.000185026
1.05185e-06
1.08133e-10
0.000185026
1.0515e-06
-5.61571e-12
0.000185026
1.05184e-06
0.000185027
1.05171e-06
5.25439e-11
0.000183755
1.27241e-06
-1.10974e-10
0.000183753
1.27259e-06
1.09848e-10
0.000183753
1.27219e-06
-5.19849e-11
0.000183753
1.27259e-06
0.000183755
1.2724e-06
1.04791e-10
0.000182246
1.50896e-06
-1.09481e-10
0.000182244
1.5092e-06
1.08503e-10
0.000182244
1.50872e-06
-1.03798e-10
0.000182244
1.5092e-06
0.000182246
1.50895e-06
1.6271e-10
0.000180485
1.76056e-06
-1.13232e-10
0.000180484
1.76087e-06
1.13865e-10
0.000180484
1.76032e-06
-1.61255e-10
0.000180484
1.76087e-06
0.000180485
1.76056e-06
2.27445e-10
0.000178458
2.02712e-06
-1.1709e-10
0.000178457
2.02752e-06
1.1803e-10
0.000178457
2.02688e-06
-2.25578e-10
0.000178457
2.02752e-06
0.000178458
2.02712e-06
2.99824e-10
0.00017615
2.30707e-06
-1.19623e-10
0.000176149
2.30756e-06
1.20958e-10
0.00017615
2.30683e-06
-2.97513e-10
0.000176149
2.30756e-06
0.00017615
2.30707e-06
3.80682e-10
0.000173548
2.60229e-06
-1.20852e-10
0.000173547
2.60289e-06
1.22867e-10
0.000173547
2.60206e-06
-3.77914e-10
0.000173547
2.60289e-06
0.000173548
2.60229e-06
4.70661e-10
0.000170638
2.90897e-06
-1.20511e-10
0.000170638
2.90968e-06
1.23338e-10
0.000170638
2.90875e-06
-4.67113e-10
0.000170638
2.90968e-06
0.000170638
2.90896e-06
5.69904e-10
0.00016741
3.22773e-06
-1.1876e-10
0.00016741
3.22859e-06
1.2221e-10
0.000167411
3.22755e-06
-5.65637e-10
0.00016741
3.22859e-06
0.00016741
3.22773e-06
6.78202e-10
0.000163853
3.55606e-06
-1.15696e-10
0.000163854
3.55707e-06
1.19096e-10
0.000163854
3.55592e-06
-6.73458e-10
0.000163854
3.55707e-06
0.000163853
3.55606e-06
7.94618e-10
0.000159962
3.89029e-06
-1.1128e-10
0.000159963
3.89148e-06
1.13824e-10
0.000159964
3.89022e-06
-7.89831e-10
0.000159963
3.89148e-06
0.000159962
3.89029e-06
9.18407e-10
0.000155732
4.22863e-06
-1.05399e-10
0.000155734
4.23003e-06
1.06519e-10
0.000155735
4.22865e-06
-9.13992e-10
0.000155734
4.23003e-06
0.000155732
4.22863e-06
1.0477e-09
0.000151167
4.56437e-06
-9.77755e-11
0.000151169
4.56599e-06
9.72695e-11
0.00015117
4.56451e-06
-1.04393e-09
0.000151169
4.56599e-06
0.000151167
4.56437e-06
1.18114e-09
0.000146271
4.89486e-06
-8.83138e-11
0.000146274
4.89673e-06
8.62992e-11
0.000146275
4.89514e-06
-1.17818e-09
0.000146274
4.89672e-06
0.000146271
4.89486e-06
1.31653e-09
0.000141056
5.21403e-06
-7.69533e-11
0.000141059
5.21615e-06
7.36686e-11
0.00014106
5.21447e-06
-1.31446e-09
0.000141059
5.21615e-06
0.000141056
5.21402e-06
1.45147e-09
0.000135538
5.51607e-06
-6.37559e-11
0.000135542
5.51848e-06
5.94105e-11
0.000135543
5.51671e-06
-1.45039e-09
0.000135542
5.51848e-06
0.000135538
5.51607e-06
1.58359e-09
0.000129741
5.79563e-06
-4.88303e-11
0.000129745
5.79833e-06
4.35308e-11
0.000129747
5.79648e-06
-1.58362e-09
0.000129745
5.79833e-06
0.000129741
5.79563e-06
1.71043e-09
0.000123692
6.04726e-06
-3.22975e-11
0.000123697
6.05026e-06
2.60456e-11
0.000123698
6.04835e-06
-1.71174e-09
0.000123697
6.05026e-06
0.000123692
6.04726e-06
1.82948e-09
0.000117424
6.26557e-06
-1.43046e-11
0.00011743
6.26886e-06
7.00945e-12
0.000117431
6.2669e-06
-1.83228e-09
0.00011743
6.26886e-06
0.000117424
6.26557e-06
1.93855e-09
0.000110976
6.44641e-06
5.0147e-12
0.000110982
6.45e-06
-1.34353e-11
0.000110983
6.44801e-06
-1.94296e-09
0.000110982
6.45e-06
0.000110976
6.44641e-06
2.03561e-09
0.000104388
6.58607e-06
2.56396e-11
0.000104394
6.58994e-06
-3.49633e-11
0.000104396
6.58793e-06
-2.04151e-09
0.000104394
6.58994e-06
0.000104388
6.58607e-06
2.11906e-09
9.77042e-05
6.68154e-06
4.76564e-11
9.771e-05
6.68565e-06
-5.70689e-11
9.7712e-05
6.68365e-06
-2.12596e-09
9.771e-05
6.68565e-06
9.77042e-05
6.68154e-06
2.18829e-09
9.09696e-05
6.7324e-06
7.10935e-11
9.09754e-05
6.73674e-06
-7.93672e-11
9.09773e-05
6.73475e-06
-2.19552e-09
9.09754e-05
6.73674e-06
9.09696e-05
6.7324e-06
2.24283e-09
8.42288e-05
6.73853e-06
9.56631e-11
8.42345e-05
6.74304e-06
-1.0182e-10
8.42364e-05
6.7411e-06
-2.2498e-09
8.42345e-05
6.74304e-06
8.42288e-05
6.73853e-06
2.28278e-09
7.75245e-05
6.70201e-06
1.20914e-10
7.753e-05
6.70666e-06
-1.24405e-10
7.75319e-05
6.70476e-06
-2.28926e-09
7.753e-05
6.70666e-06
7.75245e-05
6.70202e-06
2.30887e-09
7.08953e-05
6.62696e-06
1.46131e-10
7.09004e-05
6.63169e-06
-1.46956e-10
7.09024e-05
6.62985e-06
-2.31452e-09
7.09005e-05
6.63169e-06
7.08953e-05
6.62696e-06
2.3224e-09
6.43742e-05
6.51875e-06
1.70887e-10
6.43791e-05
6.52352e-06
-1.69321e-10
6.4381e-05
6.52174e-06
-2.32699e-09
6.43791e-05
6.52352e-06
6.43742e-05
6.51876e-06
2.3252e-09
5.79867e-05
6.38514e-06
1.94284e-10
5.79913e-05
6.38991e-06
-1.91499e-10
5.79932e-05
6.3882e-06
-2.32994e-09
5.79914e-05
6.38991e-06
5.79867e-05
6.38515e-06
2.31996e-09
5.17494e-05
6.23506e-06
2.16313e-10
5.17537e-05
6.23979e-06
-2.12546e-10
5.17555e-05
6.23814e-06
-2.32728e-09
5.17537e-05
6.23979e-06
5.17494e-05
6.23507e-06
2.30904e-09
4.56696e-05
6.07751e-06
2.3654e-10
4.56736e-05
6.08218e-06
-2.30527e-10
4.56754e-05
6.08059e-06
-2.32392e-09
4.56737e-05
6.08217e-06
4.56696e-05
6.07753e-06
2.29329e-09
3.97464e-05
5.92088e-06
2.5525e-10
3.97502e-05
5.92552e-06
-2.4363e-10
3.9752e-05
5.92399e-06
-2.32204e-09
3.97503e-05
5.92551e-06
3.97464e-05
5.92091e-06
2.26728e-09
5.77078e-06
3.39734e-05
2.72065e-10
5.7753e-06
3.39769e-05
-2.45023e-10
5.77381e-06
3.39787e-05
-2.32162e-09
5.77526e-06
3.39771e-05
5.77082e-06
3.39734e-05
5.35817e-10
0.000510678
4.14396e-07
-1.31684e-11
0.000510678
4.13901e-07
1.31304e-11
0.000510677
4.13715e-07
-5.36023e-10
0.000510678
4.13909e-07
0.000510678
4.1441e-07
-7.27219e-10
0.000510341
5.24502e-07
-2.67095e-11
0.00051034
5.23753e-07
2.63795e-11
0.000510339
5.23587e-07
7.27482e-10
0.00051034
5.23762e-07
0.000510341
5.24515e-07
-4.85367e-10
0.000509846
7.48472e-07
1.52548e-12
0.000509845
7.4813e-07
-1.64351e-12
0.000509844
7.48205e-07
4.85701e-10
0.000509845
7.48139e-07
0.000509846
7.48484e-07
-3.59309e-10
0.000509133
1.07765e-06
-2.57079e-11
0.00050913
1.07771e-06
2.58571e-11
0.00050913
1.07792e-06
3.60052e-10
0.00050913
1.07772e-06
0.000509133
1.07766e-06
-4.20516e-10
0.000508142
1.49379e-06
-4.45947e-11
0.000508139
1.49362e-06
4.51596e-11
0.000508139
1.4938e-06
4.21824e-10
0.000508139
1.49363e-06
0.000508142
1.49379e-06
-4.87761e-10
0.000506822
1.98559e-06
-4.69026e-11
0.000506819
1.98513e-06
4.77622e-11
0.000506819
1.98529e-06
4.89212e-10
0.000506819
1.98514e-06
0.000506822
1.98559e-06
-5.5474e-10
0.000505123
2.54856e-06
-4.56683e-11
0.00050512
2.5479e-06
4.68963e-11
0.000505119
2.54806e-06
5.56597e-10
0.000505119
2.5479e-06
0.000505123
2.54855e-06
-6.30503e-10
0.000502998
3.17725e-06
-4.41527e-11
0.000502994
3.17642e-06
4.5714e-11
0.000502994
3.17659e-06
6.32724e-10
0.000502994
3.17642e-06
0.000502998
3.17724e-06
-7.1185e-10
0.000500404
3.86703e-06
-4.18516e-11
0.0005004
3.86602e-06
4.34486e-11
0.0005004
3.8662e-06
7.14169e-10
0.0005004
3.86602e-06
0.000500404
3.86702e-06
-7.95342e-10
0.000497302
4.61216e-06
-3.84492e-11
0.000497298
4.61097e-06
3.99239e-11
0.000497297
4.61116e-06
7.97522e-10
0.000497298
4.61097e-06
0.000497302
4.61215e-06
-8.79479e-10
0.000493653
5.41037e-06
-3.35738e-11
0.000493649
5.40902e-06
3.48127e-11
0.000493648
5.40922e-06
8.81577e-10
0.000493649
5.40902e-06
0.000493653
5.41037e-06
-9.6327e-10
0.000489419
6.26188e-06
-2.73496e-11
0.000489415
6.26037e-06
2.83141e-11
0.000489415
6.26056e-06
9.65043e-10
0.000489415
6.26037e-06
0.000489419
6.26188e-06
-1.04433e-09
0.000484564
7.16264e-06
-1.95824e-11
0.00048456
7.16098e-06
2.03655e-11
0.00048456
7.16117e-06
1.0459e-09
0.00048456
7.16098e-06
0.000484564
7.16264e-06
-1.12239e-09
0.000479048
8.11977e-06
-1.02969e-11
0.000479044
8.11797e-06
1.10276e-11
0.000479044
8.11815e-06
1.1238e-09
0.000479044
8.11797e-06
0.000479048
8.11977e-06
-1.19415e-09
0.000472835
9.12286e-06
5.51466e-13
0.000472832
9.12094e-06
1.88122e-13
0.000472832
9.12109e-06
1.19554e-09
0.000472832
9.12094e-06
0.000472835
9.12286e-06
-1.25937e-09
0.000465889
1.01757e-05
1.28009e-11
0.000465885
1.01737e-05
-1.23783e-11
0.000465885
1.01738e-05
1.26057e-09
0.000465885
1.01737e-05
0.000465889
1.01757e-05
-1.3164e-09
0.000458174
1.12725e-05
2.63491e-11
0.000458171
1.12704e-05
-2.68169e-11
0.000458171
1.12705e-05
1.3171e-09
0.000458171
1.12704e-05
0.000458174
1.12725e-05
-1.3636e-09
0.000449662
1.24036e-05
4.11793e-11
0.000449659
1.24015e-05
-4.30154e-11
0.00044966
1.24015e-05
1.36353e-09
0.000449659
1.24015e-05
0.000449662
1.24036e-05
-1.40045e-09
0.000440326
1.35657e-05
5.74144e-11
0.000440324
1.35636e-05
-6.07414e-11
0.000440325
1.35636e-05
1.3994e-09
0.000440324
1.35636e-05
0.000440326
1.35657e-05
-1.42489e-09
0.000430152
1.47393e-05
7.49512e-11
0.000430151
1.47373e-05
-7.96045e-11
0.000430152
1.47372e-05
1.42284e-09
0.000430151
1.47373e-05
0.000430152
1.47393e-05
-1.43684e-09
0.00041913
1.59181e-05
9.36614e-11
0.00041913
1.59162e-05
-9.93366e-11
0.000419131
1.59161e-05
1.43387e-09
0.00041913
1.59162e-05
0.00041913
1.59181e-05
-1.43536e-09
0.000407262
1.70842e-05
1.13381e-10
0.000407262
1.70825e-05
-1.19786e-10
0.000407264
1.70823e-05
1.43153e-09
0.000407262
1.70825e-05
0.000407262
1.70842e-05
-1.42012e-09
0.000394559
1.82202e-05
1.33738e-10
0.000394561
1.82187e-05
-1.40769e-10
0.000394562
1.82185e-05
1.41542e-09
0.000394561
1.82187e-05
0.000394559
1.82202e-05
-1.39119e-09
0.000381047
1.93094e-05
1.54545e-10
0.000381049
1.93082e-05
-1.62142e-10
0.000381051
1.9308e-05
1.38553e-09
0.000381049
1.93082e-05
0.000381047
1.93094e-05
-1.34889e-09
0.000366761
2.03343e-05
1.75618e-10
0.000366764
2.03334e-05
-1.83741e-10
0.000366767
2.03332e-05
1.34213e-09
0.000366764
2.03334e-05
0.000366761
2.03343e-05
-1.29382e-09
0.000351751
2.12765e-05
1.9668e-10
0.000351756
2.12761e-05
-2.05403e-10
0.000351758
2.12758e-05
1.28588e-09
0.000351756
2.12761e-05
0.000351751
2.12765e-05
-1.22717e-09
0.000336078
2.21212e-05
2.17587e-10
0.000336083
2.21212e-05
-2.26912e-10
0.000336085
2.21209e-05
1.21811e-09
0.000336083
2.21212e-05
0.000336078
2.21212e-05
-1.15027e-09
0.000319811
2.28536e-05
2.38395e-10
0.000319817
2.28541e-05
-2.47848e-10
0.00031982
2.28538e-05
1.14053e-09
0.000319817
2.28541e-05
0.000319811
2.28536e-05
-1.06452e-09
0.000303034
2.34603e-05
2.59242e-10
0.00030304
2.34614e-05
-2.67757e-10
0.000303043
2.34611e-05
1.05489e-09
0.00030304
2.34613e-05
0.000303034
2.34603e-05
-9.71654e-10
0.000285831
2.39359e-05
2.80199e-10
0.000285838
2.39375e-05
-2.86549e-10
0.000285841
2.39372e-05
9.6295e-10
0.000285838
2.39375e-05
0.000285831
2.39359e-05
-8.73492e-10
0.000268296
2.42746e-05
3.00859e-10
0.000268304
2.42766e-05
-3.04614e-10
0.000268307
2.42764e-05
8.66126e-10
0.000268304
2.42766e-05
0.000268296
2.42746e-05
-7.72452e-10
0.000250522
2.44769e-05
3.21221e-10
0.00025053
2.44795e-05
-3.21899e-10
0.000250533
2.44793e-05
7.66462e-10
0.00025053
2.44795e-05
0.000250522
2.44769e-05
-6.70272e-10
0.0002326
2.45494e-05
3.40128e-10
0.000232608
2.45523e-05
-3.38948e-10
0.000232611
2.45522e-05
6.66251e-10
0.000232608
2.45523e-05
0.0002326
2.45494e-05
-5.69348e-10
0.000214618
2.45012e-05
3.58959e-10
0.000214626
2.45044e-05
-3.5421e-10
0.000214629
2.45043e-05
5.66027e-10
0.000214626
2.45044e-05
0.000214618
2.45012e-05
-4.70395e-10
0.000196656
2.43481e-05
3.74442e-10
0.000196664
2.43516e-05
-3.70231e-10
0.000196667
2.43515e-05
4.6788e-10
0.000196664
2.43516e-05
0.000196656
2.43481e-05
-3.75441e-10
0.000178782
2.41089e-05
3.92646e-10
0.00017879
2.41124e-05
-3.88577e-10
0.000178793
2.41123e-05
3.72573e-10
0.00017879
2.41124e-05
0.000178782
2.41089e-05
-2.81417e-10
0.000161059
2.38013e-05
4.26437e-10
0.000161067
2.38047e-05
-4.21189e-10
0.00016107
2.38046e-05
2.80742e-10
0.000161067
2.38047e-05
0.000161059
2.38012e-05
-1.81862e-10
0.000143537
2.34425e-05
4.549e-10
0.000143547
2.34456e-05
-4.47684e-10
0.00014355
2.34455e-05
1.81638e-10
0.000143547
2.34456e-05
0.000143537
2.34425e-05
-5.83778e-11
2.3036e-05
0.000126272
4.76352e-10
2.30384e-05
0.000126283
-4.72028e-10
2.30383e-05
0.000126286
5.85255e-11
2.30384e-05
0.000126283
2.30359e-05
0.000126272
5.77638e-10
0.000751271
6.60015e-07
-2.22275e-11
0.000751272
6.58775e-07
2.2264e-11
0.000751271
6.58429e-07
-5.77841e-10
0.000751272
6.58787e-07
0.000751271
6.60034e-07
-6.84135e-10
0.000750918
8.78856e-07
-2.57187e-11
0.000750917
8.78403e-07
2.57666e-11
0.000750916
8.78297e-07
6.84208e-10
0.000750917
8.78415e-07
0.000750917
8.78875e-07
-3.87645e-10
0.000750378
1.28798e-06
1.27901e-11
0.000750377
1.28768e-06
-1.23978e-11
0.000750377
1.28779e-06
3.88133e-10
0.000750377
1.2877e-06
0.000750378
1.288e-06
-1.94724e-10
0.00074959
1.86663e-06
-1.52981e-11
0.000749588
1.8665e-06
1.63672e-11
0.000749588
1.86676e-06
1.95548e-10
0.000749588
1.86651e-06
0.00074959
1.86664e-06
-2.12749e-10
0.000748486
2.5979e-06
-3.44853e-11
0.000748484
2.59757e-06
3.40546e-11
0.000748484
2.59784e-06
2.13114e-10
0.000748484
2.59758e-06
0.000748486
2.59791e-06
-2.17743e-10
0.000747002
3.46966e-06
-3.55156e-11
0.000747
3.46902e-06
3.5946e-11
0.000747
3.46927e-06
2.1852e-10
0.000747
3.46902e-06
0.000747002
3.46966e-06
-2.04199e-10
0.000745074
4.4769e-06
-3.30611e-11
0.000745071
4.47602e-06
3.46948e-11
0.000745071
4.47626e-06
2.05685e-10
0.000745071
4.47602e-06
0.000745074
4.4769e-06
-1.90164e-10
0.000742639
5.6118e-06
-3.11801e-11
0.000742637
5.61071e-06
3.31582e-11
0.000742637
5.61095e-06
1.92178e-10
0.000742637
5.6107e-06
0.000742639
5.61179e-06
-1.7367e-10
0.00073964
6.86697e-06
-2.80629e-11
0.000739637
6.86567e-06
3.14897e-11
0.000739637
6.8659e-06
1.76015e-10
0.000739637
6.86567e-06
0.000739639
6.86696e-06
-1.52233e-10
0.000736019
8.23237e-06
-2.60985e-11
0.000736017
8.23087e-06
2.7534e-11
0.000736017
8.23109e-06
1.54391e-10
0.000736017
8.23087e-06
0.000736019
8.23236e-06
-1.2464e-10
0.000731726
9.70394e-06
-2.09933e-11
0.000731724
9.70226e-06
2.377e-11
0.000731724
9.70245e-06
1.26672e-10
0.000731724
9.70226e-06
0.000731726
9.70394e-06
-9.08076e-11
0.000726706
1.12824e-05
-1.62627e-11
0.000726703
1.12806e-05
1.79668e-11
0.000726704
1.12807e-05
9.24526e-11
0.000726703
1.12806e-05
0.000726706
1.12824e-05
-4.92753e-11
0.000720907
1.29616e-05
-1.0267e-11
0.000720905
1.29595e-05
1.11887e-11
0.000720905
1.29596e-05
5.03797e-11
0.000720905
1.29595e-05
0.000720907
1.29616e-05
9.51228e-13
0.000714271
1.47558e-05
-4.77597e-12
0.000714269
1.47537e-05
5.40606e-12
0.000714269
1.47537e-05
-2.27321e-13
0.000714269
1.47537e-05
0.000714271
1.47558e-05
6.1362e-11
0.000706745
1.66488e-05
5.52263e-12
0.000706744
1.66465e-05
-5.56524e-12
0.000706744
1.66465e-05
-6.10022e-11
0.000706743
1.66465e-05
0.000706745
1.66488e-05
1.3251e-10
0.00069827
1.86502e-05
1.61629e-11
0.000698269
1.86479e-05
-1.70166e-11
0.00069827
1.86478e-05
-1.32544e-10
0.000698269
1.86479e-05
0.00069827
1.86502e-05
2.14977e-10
0.00068879
2.07526e-05
2.81783e-11
0.00068879
2.07502e-05
-3.02503e-11
0.000688791
2.075e-05
-2.1547e-10
0.00068879
2.07502e-05
0.00068879
2.07526e-05
3.08812e-10
0.000678251
2.29421e-05
4.1747e-11
0.000678252
2.29398e-05
-4.50489e-11
0.000678253
2.29394e-05
-3.09922e-10
0.000678252
2.29398e-05
0.000678251
2.29421e-05
4.1355e-10
0.0006666
2.52162e-05
5.59378e-11
0.000666602
2.5214e-05
-6.13392e-11
0.000666603
2.52135e-05
-4.15629e-10
0.000666602
2.5214e-05
0.0006666
2.52162e-05
5.28657e-10
0.000653796
2.75427e-05
7.15259e-11
0.000653799
2.75407e-05
-7.85895e-11
0.0006538
2.75401e-05
-5.31589e-10
0.000653799
2.75407e-05
0.000653796
2.75427e-05
6.53386e-10
0.0006398
2.99133e-05
8.91247e-11
0.000639804
2.99116e-05
-9.63893e-11
0.000639806
2.99108e-05
-6.56807e-10
0.000639804
2.99116e-05
0.0006398
2.99133e-05
7.85883e-10
0.000624586
3.22979e-05
1.07143e-10
0.00062459
3.22966e-05
-1.1502e-10
0.000624592
3.22958e-05
-7.89809e-10
0.00062459
3.22966e-05
0.000624586
3.22979e-05
9.2432e-10
0.000608138
3.46667e-05
1.26198e-10
0.000608144
3.46659e-05
-1.33961e-10
0.000608146
3.46649e-05
-9.28575e-10
0.000608144
3.46659e-05
0.000608138
3.46667e-05
1.06629e-09
0.000590456
3.69902e-05
1.45549e-10
0.000590463
3.699e-05
-1.53316e-10
0.000590466
3.69889e-05
-1.07095e-09
0.000590463
3.699e-05
0.000590456
3.69902e-05
1.20915e-09
0.000571553
3.92362e-05
1.63993e-10
0.000571561
3.92367e-05
-1.72992e-10
0.000571564
3.92355e-05
-1.21453e-09
0.000571561
3.92367e-05
0.000571553
3.92362e-05
1.35032e-09
0.000551459
4.13697e-05
1.82537e-10
0.000551467
4.1371e-05
-1.92673e-10
0.00055147
4.13697e-05
-1.35655e-09
0.000551467
4.1371e-05
0.000551459
4.13697e-05
1.48701e-09
0.000530218
4.33603e-05
2.01177e-10
0.000530227
4.33624e-05
-2.12057e-10
0.00053023
4.33611e-05
-1.49398e-09
0.000530227
4.33624e-05
0.000530218
4.33603e-05
1.61655e-09
0.000507893
4.51767e-05
2.20158e-10
0.000507903
4.51797e-05
-2.30927e-10
0.000507906
4.51783e-05
-1.62371e-09
0.000507903
4.51797e-05
0.000507893
4.51767e-05
1.73652e-09
0.000484564
4.67879e-05
2.39741e-10
0.000484574
4.67919e-05
-2.48998e-10
0.000484577
4.67905e-05
-1.74309e-09
0.000484574
4.67919e-05
0.000484564
4.67879e-05
1.8451e-09
0.000460321
4.81769e-05
2.57373e-10
0.000460331
4.81818e-05
-2.66745e-10
0.000460335
4.81803e-05
-1.85077e-09
0.000460331
4.81818e-05
0.000460321
4.81769e-05
1.94151e-09
0.00043527
4.93235e-05
2.79254e-10
0.00043528
4.93292e-05
-2.77782e-10
0.000435284
4.93279e-05
-1.94494e-09
0.00043528
4.93292e-05
0.00043527
4.93235e-05
2.02123e-09
0.000409526
5.02188e-05
2.84868e-10
0.000409536
5.02253e-05
-2.99793e-10
0.00040954
5.02239e-05
-2.02625e-09
0.000409536
5.02253e-05
0.000409526
5.02188e-05
2.09152e-09
0.00038321
5.08634e-05
3.16324e-10
0.00038322
5.08705e-05
-2.92628e-10
0.000383223
5.08692e-05
-2.08832e-09
0.00038322
5.08705e-05
0.00038321
5.08634e-05
2.13953e-09
0.000356448
5.12617e-05
3.03504e-10
0.000356457
5.12693e-05
-3.30891e-10
0.00035646
5.1268e-05
-2.14413e-09
0.000356457
5.12693e-05
0.000356448
5.12617e-05
2.18443e-09
0.000329363
5.14305e-05
3.48786e-10
0.000329372
5.14385e-05
-3.03229e-10
0.000329375
5.14373e-05
-2.17613e-09
0.000329372
5.14385e-05
0.000329363
5.14305e-05
2.20281e-09
0.000302078
5.13915e-05
3.14622e-10
0.000302086
5.13996e-05
-3.58616e-10
0.00030209
5.13985e-05
-2.20888e-09
0.000302086
5.13996e-05
0.000302078
5.13915e-05
2.22605e-09
0.000274712
5.11649e-05
3.74465e-10
0.00027472
5.1173e-05
-3.1431e-10
0.000274723
5.11718e-05
-2.21383e-09
0.00027472
5.1173e-05
0.000274713
5.11648e-05
2.21664e-09
0.00024738
5.0773e-05
3.22071e-10
0.000247387
5.0781e-05
-3.82423e-10
0.000247389
5.07799e-05
-2.22229e-09
0.000247387
5.0781e-05
0.00024738
5.0773e-05
2.20605e-09
5.02183e-05
0.000220195
3.92064e-10
5.02259e-05
0.000220201
-3.24531e-10
5.02247e-05
0.000220204
-2.18793e-09
5.02259e-05
0.000220201
5.02183e-05
0.000220195
5.34668e-10
0.000909119
8.82943e-07
-2.77739e-11
0.00090912
8.80957e-07
2.78894e-11
0.000909119
8.80438e-07
-5.34787e-10
0.00090912
8.8097e-07
0.000909119
8.82964e-07
-6.83106e-10
0.000908802
1.1969e-06
-3.07703e-11
0.000908801
1.19671e-06
3.10298e-11
0.0009088
1.19668e-06
6.83296e-10
0.000908801
1.19672e-06
0.000908801
1.19692e-06
-4.04358e-10
0.000908312
1.77828e-06
1.13567e-11
0.00090831
1.77811e-06
-1.07465e-11
0.00090831
1.7783e-06
4.04968e-10
0.00090831
1.77813e-06
0.000908312
1.7783e-06
-2.09215e-10
0.000907588
2.59056e-06
-1.67208e-11
0.000907586
2.59021e-06
1.80675e-11
0.000907586
2.59054e-06
2.10305e-10
0.000907586
2.59023e-06
0.000907588
2.59057e-06
-2.4945e-10
0.000906568
3.61838e-06
-4.02757e-11
0.000906566
3.61779e-06
3.97221e-11
0.000906565
3.61817e-06
2.4998e-10
0.000906566
3.6178e-06
0.000906568
3.61839e-06
-2.8104e-10
0.000905186
4.85195e-06
-4.43603e-11
0.000905183
4.85104e-06
4.5621e-11
0.000905183
4.85143e-06
2.82321e-10
0.000905183
4.85104e-06
0.000905186
4.85195e-06
-2.92929e-10
0.000903374
6.28856e-06
-4.62273e-11
0.000903372
6.28735e-06
4.66509e-11
0.000903372
6.28774e-06
2.94377e-10
0.000903372
6.28734e-06
0.000903374
6.28855e-06
-3.07486e-10
0.000901066
7.92025e-06
-4.62828e-11
0.000901064
7.91876e-06
5.05131e-11
0.000901063
7.91916e-06
3.10154e-10
0.000901063
7.91875e-06
0.000901066
7.92024e-06
-3.26217e-10
0.000898195
9.73839e-06
-5.20846e-11
0.000898192
9.73661e-06
4.99537e-11
0.000898192
9.73701e-06
3.27413e-10
0.000898192
9.7366e-06
0.000898195
9.73837e-06
-3.41685e-10
0.000894698
1.17293e-05
-4.76505e-11
0.000894696
1.17273e-05
5.71073e-11
0.000894695
1.17277e-05
3.4595e-10
0.000894696
1.17273e-05
0.000894698
1.17293e-05
-3.59668e-10
0.000890515
1.38875e-05
-5.48854e-11
0.000890512
1.38852e-05
5.27787e-11
0.000890512
1.38855e-05
3.60353e-10
0.000890512
1.38852e-05
0.000890515
1.38875e-05
-3.74592e-10
0.000885584
1.62143e-05
-5.37972e-11
0.000885581
1.62117e-05
5.54525e-11
0.000885581
1.62121e-05
3.75644e-10
0.000885581
1.62117e-05
0.000885584
1.62143e-05
-3.8751e-10
0.000879844
1.87019e-05
-5.43844e-11
0.000879841
1.86991e-05
5.46824e-11
0.000879841
1.86994e-05
3.88152e-10
0.000879841
1.86991e-05
0.000879844
1.87019e-05
-3.97592e-10
0.000873227
2.13734e-05
-5.18593e-11
0.000873224
2.13704e-05
5.17281e-11
0.000873224
2.13706e-05
3.97871e-10
0.000873224
2.13704e-05
0.000873227
2.13734e-05
-4.03191e-10
0.000865668
2.4208e-05
-4.80298e-11
0.000865665
2.42047e-05
4.75458e-11
0.000865666
2.42049e-05
4.03212e-10
0.000865665
2.42047e-05
0.000865668
2.4208e-05
-4.03886e-10
0.000857095
2.72237e-05
-4.27835e-11
0.000857093
2.72203e-05
4.18642e-11
0.000857093
2.72203e-05
4.03666e-10
0.000857093
2.72203e-05
0.000857095
2.72237e-05
-3.98604e-10
0.000847434
3.04142e-05
-3.60656e-11
0.000847432
3.04107e-05
3.45389e-11
0.000847432
3.04106e-05
3.98096e-10
0.000847432
3.04107e-05
0.000847433
3.04142e-05
-3.86371e-10
0.000836612
3.37644e-05
-2.77473e-11
0.00083661
3.37608e-05
2.56193e-11
0.000836611
3.37606e-05
3.85568e-10
0.00083661
3.37608e-05
0.000836612
3.37644e-05
-3.66785e-10
0.000824552
3.72759e-05
-1.76576e-11
0.000824552
3.72724e-05
1.51774e-11
0.000824552
3.7272e-05
3.65724e-10
0.000824552
3.72723e-05
0.000824552
3.72759e-05
-3.38886e-10
0.000811188
4.09069e-05
-5.8468e-12
0.000811189
4.09035e-05
3.21175e-12
0.00081119
4.0903e-05
3.37596e-10
0.000811188
4.09035e-05
0.000811188
4.09069e-05
-3.02631e-10
0.000796452
4.46503e-05
7.4118e-12
0.000796453
4.46472e-05
-1.03361e-11
0.000796454
4.46466e-05
3.01005e-10
0.000796453
4.46472e-05
0.000796452
4.46503e-05
-2.57783e-10
0.000780283
4.8467e-05
2.18887e-11
0.000780285
4.84642e-05
-2.55309e-11
0.000780286
4.84635e-05
2.55511e-10
0.000780285
4.84642e-05
0.000780283
4.8467e-05
-2.04465e-10
0.000762633
5.23166e-05
3.72415e-11
0.000762636
5.23144e-05
-4.21969e-11
0.000762638
5.23135e-05
2.01247e-10
0.000762636
5.23144e-05
0.000762633
5.23166e-05
-1.43216e-10
0.000743464
5.61589e-05
5.32723e-11
0.000743468
5.61573e-05
-6.00804e-11
0.00074347
5.61563e-05
1.38909e-10
0.000743468
5.61573e-05
0.000743464
5.61589e-05
-7.41295e-11
0.000722753
5.99476e-05
7.27341e-11
0.000722758
5.99469e-05
-7.91285e-11
0.00072276
5.99457e-05
6.93914e-11
0.000722758
5.99469e-05
0.000722753
5.99476e-05
1.44363e-12
0.000700492
6.36304e-05
1.06268e-10
0.000700498
6.36306e-05
-1.10771e-10
0.000700501
6.36294e-05
-6.69e-12
0.000700498
6.36306e-05
0.000700492
6.36304e-05
8.16161e-11
0.000676692
6.71602e-05
1.36143e-10
0.000676699
6.71615e-05
-1.43029e-10
0.000676702
6.71602e-05
-8.8175e-11
0.000676699
6.71615e-05
0.000676692
6.71602e-05
1.64999e-10
0.000651383
7.04857e-05
1.64647e-10
0.000651391
7.04881e-05
-1.72187e-10
0.000651394
7.04868e-05
-1.72021e-10
0.000651391
7.04881e-05
0.000651383
7.04857e-05
2.5006e-10
0.000624618
7.35534e-05
1.92665e-10
0.000624626
7.35569e-05
-1.99126e-10
0.000624629
7.35557e-05
-2.56631e-10
0.000624626
7.35569e-05
0.000624617
7.35534e-05
3.35062e-10
0.000596466
7.63284e-05
2.20385e-10
0.000596474
7.63331e-05
-2.24621e-10
0.000596478
7.63319e-05
-3.40662e-10
0.000596474
7.63331e-05
0.000596466
7.63284e-05
4.18132e-10
0.00056702
7.87684e-05
2.47164e-10
0.00056703
7.87744e-05
-2.49689e-10
0.000567033
7.87732e-05
-4.22551e-10
0.000567029
7.87744e-05
0.00056702
7.87684e-05
4.96801e-10
0.000536393
8.08458e-05
2.73332e-10
0.000536402
8.08528e-05
-2.73532e-10
0.000536406
8.08517e-05
-4.99771e-10
0.000536402
8.08528e-05
0.000536393
8.08458e-05
5.70767e-10
0.00050471
8.25454e-05
2.97976e-10
0.00050472
8.25534e-05
-2.97621e-10
0.000504723
8.25524e-05
-5.71276e-10
0.00050472
8.25534e-05
0.00050471
8.25454e-05
6.37119e-10
0.000472115
8.38563e-05
3.22244e-10
0.000472124
8.3865e-05
-3.19622e-10
0.000472128
8.38642e-05
-6.37696e-10
0.000472124
8.3865e-05
0.000472115
8.38563e-05
6.97059e-10
0.000438759
8.47858e-05
3.43725e-10
0.000438768
8.47951e-05
-3.42663e-10
0.000438771
8.47944e-05
-6.971e-10
0.000438768
8.47951e-05
0.000438759
8.47858e-05
7.47833e-10
0.000404801
8.53488e-05
3.65797e-10
0.000404809
8.53585e-05
-3.61782e-10
0.000404813
8.53578e-05
-7.48779e-10
0.000404809
8.53585e-05
0.000404801
8.53488e-05
7.92917e-10
0.000370406
8.55597e-05
3.84826e-10
0.000370413
8.55695e-05
-3.82165e-10
0.000370416
8.55688e-05
-7.91812e-10
0.000370413
8.55695e-05
0.000370406
8.55597e-05
8.30585e-10
0.000335737
8.54409e-05
4.02696e-10
0.000335744
8.54506e-05
-3.97248e-10
0.000335747
8.54499e-05
-8.30117e-10
0.000335744
8.54505e-05
0.000335737
8.54409e-05
8.72605e-10
8.49884e-05
0.000300966
4.12434e-10
8.49973e-05
0.000300973
-4.10416e-10
8.49966e-05
0.000300976
-8.68751e-10
8.49973e-05
0.000300973
8.49884e-05
0.000300966
4.77072e-10
0.00100083
1.07485e-06
-2.75573e-11
0.00100083
1.07223e-06
2.75602e-11
0.00100083
1.07155e-06
-4.771e-10
0.00100083
1.07225e-06
0.00100083
1.07487e-06
-6.14225e-10
0.00100057
1.46405e-06
-3.1128e-11
0.00100057
1.46403e-06
3.12958e-11
0.00100056
1.46405e-06
6.14589e-10
0.00100057
1.46405e-06
0.00100057
1.46407e-06
-3.56835e-10
0.00100016
2.18838e-06
1.00735e-11
0.00100015
2.18841e-06
-9.5335e-12
0.00100015
2.18867e-06
3.57707e-10
0.00100015
2.18842e-06
0.00100016
2.1884e-06
-1.60135e-10
0.000999549
3.19833e-06
-1.50973e-11
0.000999547
3.1979e-06
1.61943e-11
0.000999547
3.19827e-06
1.61453e-10
0.000999547
3.19791e-06
0.000999549
3.19835e-06
-1.96407e-10
0.000998688
4.47948e-06
-3.53515e-11
0.000998686
4.47873e-06
3.69711e-11
0.000998686
4.47918e-06
1.97961e-10
0.000998686
4.47874e-06
0.000998688
4.47949e-06
-2.29033e-10
0.000997514
6.02575e-06
-4.05155e-11
0.000997512
6.02468e-06
4.26672e-11
0.000997512
6.02517e-06
2.31053e-10
0.000997512
6.02468e-06
0.000997514
6.02574e-06
-2.40575e-10
0.000995964
7.83859e-06
-4.15329e-11
0.000995962
7.83718e-06
4.41553e-11
0.000995962
7.83769e-06
2.42858e-10
0.000995962
7.83717e-06
0.000995964
7.83858e-06
-2.55804e-10
0.000993973
9.91201e-06
-4.36367e-11
0.00099397
9.91025e-06
4.59588e-11
0.00099397
9.91078e-06
2.58225e-10
0.00099397
9.91024e-06
0.000993973
9.91199e-06
-2.75446e-10
0.000991474
1.22378e-05
-4.55602e-11
0.000991471
1.22357e-05
4.83825e-11
0.000991471
1.22362e-05
2.77602e-10
0.000991471
1.22357e-05
0.000991474
1.22378e-05
-2.95608e-10
0.000988403
1.48002e-05
-4.90515e-11
0.0009884
1.47978e-05
4.85958e-11
0.0009884
1.47983e-05
2.96921e-10
0.0009884
1.47978e-05
0.000988403
1.48002e-05
-3.16143e-10
0.000984698
1.75929e-05
-5.06418e-11
0.000984695
1.75901e-05
4.98101e-11
0.000984695
1.75906e-05
3.16319e-10
0.000984695
1.75901e-05
0.000984698
1.75929e-05
-3.36448e-10
0.000980294
2.06185e-05
-5.36054e-11
0.000980291
2.06154e-05
4.92865e-11
0.000980291
2.06159e-05
3.3555e-10
0.000980291
2.06154e-05
0.000980294
2.06185e-05
-3.54219e-10
0.000975128
2.38687e-05
-5.14768e-11
0.000975125
2.38653e-05
5.24196e-11
0.000975124
2.38657e-05
3.54626e-10
0.000975124
2.38653e-05
0.000975128
2.38687e-05
-3.71306e-10
0.000969126
2.73756e-05
-5.07927e-11
0.000969123
2.73719e-05
5.02864e-11
0.000969123
2.73722e-05
3.71e-10
0.000969123
2.73719e-05
0.000969126
2.73756e-05
-3.84886e-10
0.000962218
3.11164e-05
-4.65815e-11
0.000962215
3.11123e-05
4.61643e-11
0.000962215
3.11126e-05
3.84484e-10
0.000962215
3.11123e-05
0.000962218
3.11164e-05
-3.94759e-10
0.000954323
3.5119e-05
-4.07136e-11
0.00095432
3.51146e-05
4.03799e-11
0.00095432
3.51149e-05
3.94379e-10
0.00095432
3.51146e-05
0.000954323
3.5119e-05
-3.99749e-10
0.000945357
3.9381e-05
-3.30454e-11
0.000945354
3.93765e-05
3.27313e-11
0.000945354
3.93766e-05
3.99461e-10
0.000945354
3.93765e-05
0.000945356
3.9381e-05
-3.98679e-10
0.000935232
4.38894e-05
-2.34331e-11
0.00093523
4.38847e-05
2.31544e-11
0.00093523
4.38846e-05
3.98569e-10
0.00093523
4.38847e-05
0.000935232
4.38894e-05
-3.90928e-10
0.000923855
4.86532e-05
-1.15933e-11