/*--------------------------------*- C++ -*----------------------------------*\
  =========                 |
  \\      /  F ield         | OpenFOAM: The Open Source CFD Toolbox
   \\    /   O peration     | Website:  https://openfoam.org
    \\  /    A nd           | Version:  9
     \\/     M anipulation  |
\*---------------------------------------------------------------------------*/
FoamFile
{
    format      ascii;
    class       volVectorField;
    location    "1";
    object      U;
}
// * * * * * * * * * * * * * * * * * * * * * * * * * * * * * * * * * * * * * //

dimensions      [0 1 -1 0 0 0 0];

internalField   nonuniform List<vector> 
4545
(
(2.90738e-05 -0.0898059 -0.968152)
(2.90029e-05 -0.0898056 8.13413e-08)
(2.89646e-05 -0.0898054 5.79435e-12)
(2.90036e-05 -0.0898056 -8.14097e-08)
(2.90748e-05 -0.0898059 0.968152)
(2.75836e-05 -0.0896887 -0.961472)
(2.6997e-05 -0.0896867 -8.55691e-08)
(2.69056e-05 -0.0896862 -1.25133e-11)
(2.69975e-05 -0.0896867 8.54828e-08)
(2.75839e-05 -0.0896887 0.961472)
(3.54389e-05 -0.0895858 -0.960893)
(3.49005e-05 -0.0895863 -5.39615e-08)
(3.48446e-05 -0.0895863 -3.54659e-11)
(3.4901e-05 -0.0895863 5.37939e-08)
(3.54389e-05 -0.0895858 0.960893)
(5.17129e-05 -0.0894448 -0.960299)
(5.1079e-05 -0.0894452 -3.26705e-08)
(5.10016e-05 -0.0894452 -4.6025e-11)
(5.10794e-05 -0.0894452 3.2504e-08)
(5.17126e-05 -0.0894448 0.960299)
(7.26524e-05 -0.0892421 -0.9597)
(7.17029e-05 -0.0892423 -2.939e-08)
(7.15581e-05 -0.0892422 -5.54795e-11)
(7.17033e-05 -0.0892423 2.9248e-08)
(7.26517e-05 -0.0892421 0.9597)
(9.71827e-05 -0.0889674 -0.959086)
(9.58794e-05 -0.0889675 -2.58094e-08)
(9.56729e-05 -0.0889675 -8.79509e-11)
(9.58795e-05 -0.0889675 2.56607e-08)
(9.71816e-05 -0.0889674 0.959086)
(0.0001252 -0.0886104 -0.958461)
(0.000123517 -0.0886106 -2.09178e-08)
(0.000123251 -0.0886105 -6.82553e-11)
(0.000123517 -0.0886106 2.08299e-08)
(0.000125199 -0.0886104 0.958461)
(0.000156612 -0.0881615 -0.957825)
(0.000154503 -0.0881617 -1.53551e-08)
(0.00015417 -0.0881616 -4.93281e-12)
(0.000154503 -0.0881617 1.53501e-08)
(0.00015661 -0.0881615 0.957825)
(0.000191305 -0.0876118 -0.95718)
(0.000188724 -0.087612 -8.70831e-09)
(0.000188318 -0.087612 3.68595e-11)
(0.000188724 -0.087612 8.84501e-09)
(0.000191304 -0.0876118 0.95718)
(0.000229202 -0.0869534 -0.95652)
(0.000226103 -0.0869536 -7.47489e-10)
(0.000225616 -0.0869536 4.6569e-11)
(0.000226103 -0.0869536 9.7486e-10)
(0.0002292 -0.0869534 0.95652)
(0.00027026 -0.086179 -0.955848)
(0.000266599 -0.0861793 9.06906e-09)
(0.000266023 -0.0861794 1.18423e-10)
(0.000266599 -0.0861793 -8.6802e-09)
(0.000270258 -0.086179 0.955848)
(0.000314477 -0.0852816 -0.955167)
(0.000310211 -0.085282 2.07826e-08)
(0.000309536 -0.0852821 1.79199e-10)
(0.000310211 -0.085282 -2.02495e-08)
(0.000314476 -0.0852816 0.955167)
(0.000361838 -0.0842544 -0.954467)
(0.000356922 -0.0842549 3.47066e-08)
(0.000356141 -0.0842549 2.596e-10)
(0.000356922 -0.0842549 -3.40002e-08)
(0.000361837 -0.0842544 0.954467)
(0.000412287 -0.0830906 -0.953766)
(0.000406676 -0.0830911 5.1086e-08)
(0.00040578 -0.0830913 3.99722e-10)
(0.000406676 -0.0830911 -5.01405e-08)
(0.000412286 -0.0830906 0.953766)
(0.00046567 -0.0817837 -0.953042)
(0.000459321 -0.0817844 7.0288e-08)
(0.000458304 -0.0817845 5.71918e-10)
(0.000459322 -0.0817844 -6.90025e-08)
(0.000465669 -0.0817837 0.953042)
(0.000521694 -0.0803281 -0.952307)
(0.000514569 -0.0803289 9.24163e-08)
(0.000513421 -0.0803291 7.12125e-10)
(0.000514569 -0.0803289 -9.08286e-08)
(0.000521693 -0.0803281 0.952307)
(0.000579932 -0.0787185 -0.951559)
(0.000571997 -0.0787196 1.17567e-07)
(0.000570713 -0.0787198 7.15551e-10)
(0.000571997 -0.0787196 -1.15859e-07)
(0.000579932 -0.0787185 0.951559)
(0.000639785 -0.0769513 -0.950794)
(0.000631012 -0.0769525 1.45733e-07)
(0.000629585 -0.0769528 5.46302e-10)
(0.000631012 -0.0769525 -1.44165e-07)
(0.000639785 -0.0769513 0.950794)
(0.000700492 -0.0750239 -0.950019)
(0.000690861 -0.0750253 1.76861e-07)
(0.000689289 -0.0750257 2.45272e-10)
(0.000690861 -0.0750253 -1.75654e-07)
(0.000700492 -0.0750239 0.950019)
(0.000761126 -0.0729359 -0.949221)
(0.000750631 -0.0729374 2.10843e-07)
(0.000748909 -0.0729379 -1.13035e-10)
(0.00075063 -0.0729374 -2.10121e-07)
(0.000761125 -0.0729359 0.949221)
(0.000820615 -0.0706891 -0.948409)
(0.000809259 -0.0706908 2.47437e-07)
(0.000807389 -0.0706913 -4.59081e-10)
(0.000809259 -0.0706908 -2.47226e-07)
(0.000820614 -0.0706891 0.948409)
(0.000877774 -0.0682873 -0.947579)
(0.000865576 -0.0682892 2.863e-07)
(0.000863559 -0.0682898 -7.63412e-10)
(0.000865575 -0.0682892 -2.86585e-07)
(0.000877773 -0.0682873 0.947579)
(0.000931323 -0.0657373 -0.946728)
(0.000918315 -0.0657393 3.26964e-07)
(0.000916156 -0.06574 -1.03016e-09)
(0.000918315 -0.0657393 -3.27739e-07)
(0.000931323 -0.0657373 0.946728)
(0.000979941 -0.0630484 -0.945855)
(0.00096617 -0.0630505 3.68876e-07)
(0.000963876 -0.0630513 -1.28147e-09)
(0.00096617 -0.0630505 -3.70166e-07)
(0.000979941 -0.0630484 0.945855)
(0.00102231 -0.0602327 -0.94496)
(0.00100784 -0.0602349 4.11431e-07)
(0.00100542 -0.0602357 -1.542e-09)
(0.00100784 -0.0602349 -4.13296e-07)
(0.00102231 -0.0602327 0.94496)
(0.00105719 -0.0573046 -0.944038)
(0.00104209 -0.0573069 4.53974e-07)
(0.00103956 -0.0573077 -1.83533e-09)
(0.00104209 -0.0573069 -4.5651e-07)
(0.00105719 -0.0573046 0.944038)
(0.00108344 -0.0542811 -0.94309)
(0.0010678 -0.0542834 4.95833e-07)
(0.00106517 -0.0542843 -2.16083e-09)
(0.0010678 -0.0542834 -4.9912e-07)
(0.00108344 -0.0542811 0.94309)
(0.00110014 -0.051181 -0.942113)
(0.00108406 -0.0511833 5.36395e-07)
(0.00108134 -0.0511842 -2.44035e-09)
(0.00108406 -0.0511833 -5.4037e-07)
(0.00110014 -0.051181 0.942113)
(0.00110661 -0.0480246 -0.941101)
(0.00109018 -0.0480268 5.75173e-07)
(0.0010874 -0.0480277 -2.51296e-09)
(0.00109018 -0.0480268 -5.79518e-07)
(0.00110661 -0.0480246 0.941101)
(0.0011025 -0.0448332 -0.940057)
(0.00108583 -0.0448353 6.11796e-07)
(0.001083 -0.0448362 -2.25305e-09)
(0.00108583 -0.0448353 -6.16006e-07)
(0.0011025 -0.0448332 0.940057)
(0.00108784 -0.0416281 -0.938976)
(0.00107103 -0.0416301 6.45919e-07)
(0.00106817 -0.0416311 -1.71024e-09)
(0.00107103 -0.0416301 -6.49555e-07)
(0.00108784 -0.0416281 0.938976)
(0.00106317 -0.0384304 -0.937853)
(0.00104632 -0.0384323 6.77256e-07)
(0.00104345 -0.0384332 -9.8907e-10)
(0.00104632 -0.0384323 -6.80071e-07)
(0.00106318 -0.0384304 0.937853)
(0.00102957 -0.0352595 -0.936689)
(0.00101277 -0.0352612 7.0558e-07)
(0.0010099 -0.0352622 -2.38607e-10)
(0.00101277 -0.0352612 -7.07443e-07)
(0.00102957 -0.0352595 0.936689)
(0.000988779 -0.0321326 -0.935477)
(0.0009721 -0.0321342 7.3097e-07)
(0.000969244 -0.0321351 4.618e-10)
(0.0009721 -0.0321342 -7.31852e-07)
(0.000988781 -0.0321326 0.935477)
(0.00094326 -0.0290639 -0.934217)
(0.00092677 -0.0290654 7.53467e-07)
(0.00092394 -0.0290663 8.37478e-10)
(0.00092677 -0.0290654 -7.54048e-07)
(0.000943264 -0.0290639 0.934217)
(0.0008962 -0.0260634 -0.932906)
(0.00087995 -0.0260648 7.73687e-07)
(0.000877156 -0.0260657 1.15527e-09)
(0.00087995 -0.0260648 -7.74763e-07)
(0.000896207 -0.0260634 0.932906)
(0.000851281 -0.0231368 -0.93154)
(0.000835327 -0.0231381 7.92114e-07)
(0.000832573 -0.023139 1.88104e-09)
(0.000835324 -0.0231382 -7.94862e-07)
(0.000851292 -0.0231368 0.93154)
(0.000812028 -0.0202856 -0.930117)
(0.00079646 -0.0202869 8.08923e-07)
(0.000793761 -0.0202878 3.70747e-09)
(0.000796453 -0.0202869 -8.14337e-07)
(0.000812045 -0.0202855 0.930117)
(0.000780677 -0.0175069 -0.927308)
(0.000765619 -0.0175084 8.22175e-07)
(0.000762991 -0.0175093 8.8004e-09)
(0.000765604 -0.0175085 -8.30957e-07)
(0.000780699 -0.0175069 0.927308)
(0.000113509 -0.242687 -0.977299)
(0.000113537 -0.242686 7.96517e-08)
(0.000113489 -0.242686 -5.82433e-12)
(0.000113539 -0.242686 -7.9689e-08)
(0.000113513 -0.242687 0.977299)
(0.00013686 -0.242509 -0.968208)
(0.000136341 -0.242506 -1.17237e-07)
(0.000136252 -0.242506 -5.16145e-11)
(0.000136344 -0.242506 1.17226e-07)
(0.000136863 -0.242509 0.968208)
(0.000193231 -0.242312 -0.967624)
(0.000192908 -0.242313 -7.67241e-08)
(0.000192915 -0.242313 -1.8828e-11)
(0.000192911 -0.242313 7.67581e-08)
(0.000193233 -0.242312 0.967624)
(0.000282323 -0.242036 -0.967025)
(0.000282137 -0.242036 -6.23137e-08)
(0.00028218 -0.242036 2.42872e-11)
(0.000282139 -0.242036 6.24582e-08)
(0.000282325 -0.242036 0.967025)
(0.000397673 -0.241639 -0.966421)
(0.000397316 -0.241638 -7.67764e-08)
(0.000397316 -0.241638 9.37604e-11)
(0.000397318 -0.241638 7.70859e-08)
(0.000397673 -0.241639 0.966421)
(0.000536759 -0.241096 -0.965801)
(0.000536214 -0.241096 -9.00308e-08)
(0.000536183 -0.241096 1.45537e-10)
(0.000536214 -0.241096 9.04205e-08)
(0.000536758 -0.241096 0.965801)
(0.000699158 -0.240385 -0.965171)
(0.00069846 -0.240385 -1.03116e-07)
(0.000698414 -0.240385 2.1207e-10)
(0.00069846 -0.240385 1.03647e-07)
(0.000699156 -0.240385 0.965171)
(0.000884553 -0.239483 -0.964529)
(0.0008837 -0.239483 -1.18181e-07)
(0.000883641 -0.239482 2.75039e-10)
(0.000883699 -0.239482 1.18845e-07)
(0.00088455 -0.239483 0.964529)
(0.00109259 -0.238368 -0.963879)
(0.00109157 -0.238367 -1.34641e-07)
(0.0010915 -0.238367 2.86903e-10)
(0.00109157 -0.238367 1.35342e-07)
(0.00109259 -0.238368 0.963879)
(0.00132316 -0.237021 -0.963214)
(0.00132196 -0.23702 -1.51929e-07)
(0.00132187 -0.23702 2.70236e-10)
(0.00132196 -0.23702 1.52596e-07)
(0.00132316 -0.237021 0.963214)
(0.00157655 -0.235423 -0.962536)
(0.00157516 -0.235422 -1.69701e-07)
(0.00157506 -0.235422 2.3161e-10)
(0.00157516 -0.235422 1.70323e-07)
(0.00157655 -0.235423 0.962536)
(0.00185348 -0.233556 -0.961849)
(0.00185188 -0.233556 -1.87766e-07)
(0.00185176 -0.233556 1.83884e-10)
(0.00185188 -0.233556 1.88286e-07)
(0.00185348 -0.233556 0.961849)
(0.00215481 -0.231404 -0.961144)
(0.00215299 -0.231403 -2.05737e-07)
(0.00215284 -0.231403 1.52335e-10)
(0.00215299 -0.231403 2.06192e-07)
(0.0021548 -0.231404 0.961144)
(0.00248138 -0.228947 -0.960437)
(0.00247933 -0.228946 -2.23322e-07)
(0.00247915 -0.228946 1.44938e-10)
(0.00247933 -0.228946 2.23744e-07)
(0.00248138 -0.228947 0.960437)
(0.00283368 -0.226167 -0.959708)
(0.00283139 -0.226167 -2.40081e-07)
(0.00283118 -0.226167 1.49651e-10)
(0.00283139 -0.226167 2.40509e-07)
(0.00283368 -0.226167 0.959708)
(0.00321155 -0.223048 -0.958967)
(0.003209 -0.223048 -2.55732e-07)
(0.00320876 -0.223048 8.72205e-11)
(0.003209 -0.223048 2.56066e-07)
(0.00321155 -0.223048 0.958967)
(0.00361419 -0.219572 -0.958214)
(0.00361137 -0.219571 -2.69915e-07)
(0.00361109 -0.219571 -9.84873e-11)
(0.00361137 -0.219571 2.69964e-07)
(0.00361419 -0.219572 0.958214)
(0.00403983 -0.215723 -0.957443)
(0.00403675 -0.215723 -2.82238e-07)
(0.00403643 -0.215723 -3.94288e-10)
(0.00403675 -0.215723 2.81829e-07)
(0.00403983 -0.215723 0.957443)
(0.00448583 -0.211489 -0.956662)
(0.00448248 -0.211489 -2.92301e-07)
(0.00448213 -0.21149 -7.28597e-10)
(0.00448248 -0.211489 2.91343e-07)
(0.00448583 -0.211489 0.956662)
(0.00494851 -0.20686 -0.955859)
(0.00494491 -0.20686 -2.99704e-07)
(0.00494451 -0.206861 -1.0396e-09)
(0.00494491 -0.20686 2.98208e-07)
(0.00494851 -0.20686 0.955859)
(0.00542317 -0.201829 -0.955041)
(0.00541933 -0.20183 -3.04129e-07)
(0.0054189 -0.20183 -1.29319e-09)
(0.00541933 -0.20183 3.02162e-07)
(0.00542317 -0.201829 0.955041)
(0.00590427 -0.196395 -0.954205)
(0.00590021 -0.196395 -3.05278e-07)
(0.00589974 -0.196396 -1.48862e-09)
(0.00590021 -0.196395 3.02904e-07)
(0.00590427 -0.196395 0.954205)
(0.00638535 -0.19056 -0.953347)
(0.0063811 -0.19056 -3.02971e-07)
(0.00638059 -0.190561 -1.66671e-09)
(0.0063811 -0.19056 3.00196e-07)
(0.00638535 -0.19056 0.953347)
(0.0068593 -0.184333 -0.952467)
(0.00685489 -0.184334 -2.9705e-07)
(0.00685435 -0.184335 -1.83711e-09)
(0.00685489 -0.184334 2.93852e-07)
(0.0068593 -0.184333 0.952467)
(0.00731855 -0.177728 -0.951564)
(0.00731402 -0.17773 -2.87421e-07)
(0.00731346 -0.177731 -2.00341e-09)
(0.00731402 -0.17773 2.8376e-07)
(0.00731855 -0.177728 0.951564)
(0.00775533 -0.170767 -0.950634)
(0.00775073 -0.170768 -2.74106e-07)
(0.00775015 -0.170769 -2.19466e-09)
(0.00775073 -0.170768 2.69925e-07)
(0.00775533 -0.170767 0.950634)
(0.00816202 -0.163474 -0.949678)
(0.0081574 -0.163476 -2.57218e-07)
(0.0081568 -0.163477 -2.39288e-09)
(0.0081574 -0.163476 2.52514e-07)
(0.00816202 -0.163474 0.949678)
(0.0085315 -0.155881 -0.948691)
(0.00852689 -0.155884 -2.36904e-07)
(0.0085263 -0.155885 -2.4743e-09)
(0.00852689 -0.155884 2.31895e-07)
(0.0085315 -0.155881 0.948691)
(0.00885751 -0.148025 -0.94767)
(0.00885297 -0.148028 -2.13327e-07)
(0.00885238 -0.148029 -2.27327e-09)
(0.00885297 -0.148028 2.08496e-07)
(0.00885751 -0.148025 0.94767)
(0.00913509 -0.139946 -0.946614)
(0.00913066 -0.139949 -1.86743e-07)
(0.00913009 -0.13995 -1.72927e-09)
(0.00913066 -0.139949 1.82658e-07)
(0.00913509 -0.139946 0.946614)
(0.009361 -0.131686 -0.94552)
(0.00935671 -0.131689 -1.57635e-07)
(0.00935617 -0.13169 -1.04323e-09)
(0.00935671 -0.131689 1.54558e-07)
(0.009361 -0.131686 0.94552)
(0.00953406 -0.12329 -0.944384)
(0.00952994 -0.123293 -1.26563e-07)
(0.00952943 -0.123294 -1.92228e-10)
(0.00952994 -0.123293 1.24684e-07)
(0.00953406 -0.12329 0.944384)
(0.00965553 -0.114802 -0.943205)
(0.00965161 -0.114805 -9.42747e-08)
(0.00965114 -0.114806 3.41108e-10)
(0.00965161 -0.114805 9.34606e-08)
(0.00965553 -0.114802 0.943205)
(0.00972938 -0.106265 -0.941978)
(0.00972567 -0.106268 -6.10368e-08)
(0.00972523 -0.10627 1.39979e-09)
(0.00972567 -0.106268 6.14634e-08)
(0.00972938 -0.106265 0.941978)
(0.00976235 -0.0977195 -0.940701)
(0.00975885 -0.0977224 -2.8026e-08)
(0.00975845 -0.0977239 1.26608e-09)
(0.00975885 -0.0977224 2.85402e-08)
(0.00976235 -0.0977195 0.940701)
(0.00976357 -0.0892002 -0.939372)
(0.00976027 -0.0892033 5.29069e-09)
(0.00975989 -0.0892047 2.10609e-09)
(0.00976026 -0.0892033 -4.059e-09)
(0.00976357 -0.0892003 0.939372)
(0.00974342 -0.0807385 -0.937986)
(0.00974029 -0.0807417 3.8183e-08)
(0.00973993 -0.0807432 1.74346e-09)
(0.00974028 -0.0807417 -3.66494e-08)
(0.00974343 -0.0807385 0.937986)
(0.00971112 -0.0723603 -0.936542)
(0.00970811 -0.0723639 7.31547e-08)
(0.00970776 -0.0723653 2.13864e-09)
(0.0097081 -0.0723639 -7.1087e-08)
(0.00971113 -0.0723603 0.936542)
(0.00967067 -0.0640898 -0.933781)
(0.00966771 -0.064094 1.14852e-07)
(0.00966736 -0.0640955 7.92288e-10)
(0.00966769 -0.064094 -1.14012e-07)
(0.00967069 -0.0640898 0.933781)
(0.000218304 -0.356966 -0.979072)
(0.000218185 -0.356965 8.46352e-08)
(0.000218095 -0.356965 5.60548e-12)
(0.00021819 -0.356965 -8.46604e-08)
(0.000218312 -0.356966 0.979072)
(0.000291314 -0.356788 -0.968242)
(0.000291336 -0.356785 -1.10383e-07)
(0.000291306 -0.356784 7.48652e-12)
(0.000291341 -0.356785 1.10402e-07)
(0.000291321 -0.356788 0.968242)
(0.000430443 -0.356575 -0.967658)
(0.000430664 -0.356575 -5.943e-08)
(0.000430731 -0.356575 6.25723e-11)
(0.000430669 -0.356575 5.95699e-08)
(0.00043045 -0.356575 0.967658)
(0.00063384 -0.356271 -0.967059)
(0.00063434 -0.356272 -3.39922e-08)
(0.000634487 -0.356272 1.73991e-10)
(0.000634344 -0.356272 3.42995e-08)
(0.000633846 -0.356271 0.967059)
(0.000897128 -0.355831 -0.966455)
(0.000897745 -0.355831 -4.11865e-08)
(0.000897911 -0.35583 6.16447e-10)
(0.000897748 -0.355831 4.18632e-08)
(0.000897132 -0.355831 0.966455)
(0.00121873 -0.355224 -0.965835)
(0.00121945 -0.355224 -4.3201e-08)
(0.00121963 -0.355224 7.23006e-10)
(0.00121945 -0.355224 4.40548e-08)
(0.00121873 -0.355224 0.965835)
(0.00159885 -0.354422 -0.965205)
(0.00159975 -0.354422 -4.13931e-08)
(0.00159996 -0.354422 7.41504e-10)
(0.00159975 -0.354422 4.23897e-08)
(0.00159885 -0.354422 0.965205)
(0.00203751 -0.353394 -0.964563)
(0.00203862 -0.353394 -3.95078e-08)
(0.00203886 -0.353394 7.18439e-10)
(0.00203861 -0.353394 4.05789e-08)
(0.00203751 -0.353394 0.964563)
(0.00253436 -0.352111 -0.963913)
(0.00253569 -0.352111 -3.69372e-08)
(0.00253598 -0.352111 6.57946e-10)
(0.00253569 -0.352111 3.80139e-08)
(0.00253435 -0.352111 0.963913)
(0.00308945 -0.350546 -0.963249)
(0.00309103 -0.350546 -3.32579e-08)
(0.00309135 -0.350546 5.3354e-10)
(0.00309102 -0.350546 3.41845e-08)
(0.00308944 -0.350546 0.963249)
(0.0037038 -0.348675 -0.962571)
(0.00370563 -0.348675 -2.79037e-08)
(0.003706 -0.348675 4.41213e-10)
(0.00370563 -0.348675 2.87224e-08)
(0.00370379 -0.348675 0.962571)
(0.00437968 -0.34647 -0.961885)
(0.00438178 -0.346471 -2.10222e-08)
(0.00438218 -0.346471 2.31997e-10)
(0.00438177 -0.346471 2.1566e-08)
(0.00437968 -0.34647 0.961885)
(0.00512007 -0.343909 -0.961179)
(0.00512243 -0.343909 -1.20241e-08)
(0.00512288 -0.343909 1.27079e-10)
(0.00512243 -0.343909 1.23647e-08)
(0.00512007 -0.343909 0.961179)
(0.00592826 -0.340964 -0.960473)
(0.0059309 -0.340965 -6.425e-10)
(0.00593137 -0.340965 7.48064e-11)
(0.0059309 -0.340965 8.60023e-10)
(0.00592826 -0.340964 0.960473)
(0.00680712 -0.33761 -0.959744)
(0.00681002 -0.33761 1.34597e-08)
(0.00681052 -0.33761 -8.62192e-12)
(0.00681002 -0.33761 -1.3396e-08)
(0.00680712 -0.33761 0.959744)
(0.00775822 -0.333819 -0.959003)
(0.00776138 -0.33382 3.05215e-08)
(0.00776191 -0.33382 -1.76192e-10)
(0.00776138 -0.33382 -3.07045e-08)
(0.00775822 -0.333819 0.959003)
(0.00878196 -0.329564 -0.958251)
(0.00878537 -0.329565 5.09159e-08)
(0.00878593 -0.329565 -4.36149e-10)
(0.00878537 -0.329565 -5.14551e-08)
(0.00878196 -0.329564 0.958251)
(0.00987669 -0.324818 -0.95748)
(0.00988035 -0.32482 7.48843e-08)
(0.00988092 -0.32482 -7.09029e-10)
(0.00988035 -0.32482 -7.58301e-08)
(0.00987669 -0.324818 0.95748)
(0.0110387 -0.319557 -0.956701)
(0.0110426 -0.319559 1.02611e-07)
(0.0110432 -0.319559 -8.49308e-10)
(0.0110426 -0.319559 -1.03913e-07)
(0.0110387 -0.319557 0.956701)
(0.0122621 -0.313757 -0.955898)
(0.0122662 -0.313759 1.34029e-07)
(0.0122668 -0.31376 -9.34653e-10)
(0.0122662 -0.313759 -1.35615e-07)
(0.0122621 -0.313757 0.955898)
(0.0135381 -0.3074 -0.955081)
(0.0135424 -0.307402 1.68892e-07)
(0.013543 -0.307403 -1.07469e-09)
(0.0135424 -0.307402 -1.70741e-07)
(0.0135381 -0.3074 0.955081)
(0.0148561 -0.300468 -0.954247)
(0.0148606 -0.300471 2.07083e-07)
(0.0148612 -0.300472 -1.21896e-09)
(0.0148606 -0.300471 -2.09209e-07)
(0.0148561 -0.300468 0.954247)
(0.0162027 -0.292954 -0.953391)
(0.0162074 -0.292956 2.48082e-07)
(0.016208 -0.292957 -1.50518e-09)
(0.0162074 -0.292956 -2.5059e-07)
(0.0162027 -0.292953 0.953391)
(0.0175627 -0.284851 -0.952514)
(0.0175676 -0.284854 2.91511e-07)
(0.0175682 -0.284855 -1.87799e-09)
(0.0175676 -0.284854 -2.94508e-07)
(0.0175627 -0.284851 0.952514)
(0.018919 -0.276164 -0.951613)
(0.018924 -0.276167 3.36917e-07)
(0.0189246 -0.276168 -2.21947e-09)
(0.018924 -0.276167 -3.40457e-07)
(0.018919 -0.276163 0.951613)
(0.0202532 -0.266901 -0.950687)
(0.0202583 -0.266905 3.83635e-07)
(0.0202589 -0.266906 -2.54987e-09)
(0.0202583 -0.266905 -3.87743e-07)
(0.0202532 -0.266901 0.950687)
(0.0215463 -0.257081 -0.949733)
(0.0215516 -0.257085 4.30958e-07)
(0.0215522 -0.257087 -2.79198e-09)
(0.0215516 -0.257085 -4.35529e-07)
(0.0215463 -0.257081 0.949733)
(0.0227796 -0.24673 -0.948751)
(0.0227851 -0.246734 4.78242e-07)
(0.0227856 -0.246735 -2.81871e-09)
(0.0227851 -0.246734 -4.82925e-07)
(0.0227796 -0.24673 0.948751)
(0.0239353 -0.23588 -0.947734)
(0.0239408 -0.235884 5.24898e-07)
(0.0239414 -0.235886 -2.47144e-09)
(0.0239408 -0.235884 -5.29115e-07)
(0.0239353 -0.23588 0.947734)
(0.0249975 -0.224573 -0.946683)
(0.0250031 -0.224577 5.70338e-07)
(0.0250037 -0.224579 -1.7983e-09)
(0.0250031 -0.224577 -5.73673e-07)
(0.0249975 -0.224573 0.946683)
(0.0259533 -0.212855 -0.945593)
(0.025959 -0.212859 6.1368e-07)
(0.0259596 -0.212861 -1.52611e-09)
(0.025959 -0.212859 -6.16153e-07)
(0.0259533 -0.212855 0.945593)
(0.0267937 -0.20078 -0.944462)
(0.0267993 -0.200783 6.54558e-07)
(0.0268 -0.200785 3.21194e-10)
(0.0267993 -0.200783 -6.55651e-07)
(0.0267937 -0.20078 0.944462)
(0.0275141 -0.188403 -0.943288)
(0.0275197 -0.188406 6.92288e-07)
(0.0275204 -0.188408 -1.58523e-09)
(0.0275197 -0.188406 -6.92955e-07)
(0.0275141 -0.188403 0.943288)
(0.0281153 -0.175783 -0.942065)
(0.0281209 -0.175786 7.2725e-07)
(0.0281216 -0.175788 2.74046e-09)
(0.0281209 -0.175786 -7.2586e-07)
(0.0281153 -0.175783 0.942065)
(0.0286033 -0.16298 -0.940792)
(0.0286089 -0.162984 7.5781e-07)
(0.0286095 -0.162985 -2.07913e-09)
(0.0286089 -0.162984 -7.57408e-07)
(0.0286033 -0.16298 0.940792)
(0.0289885 -0.150054 -0.939467)
(0.028994 -0.150057 7.85914e-07)
(0.0289946 -0.150058 4.3374e-09)
(0.028994 -0.150057 -7.83427e-07)
(0.0289885 -0.150054 0.939467)
(0.0292834 -0.137061 -0.938084)
(0.0292887 -0.137063 8.09416e-07)
(0.0292893 -0.137065 -2.96737e-09)
(0.0292887 -0.137063 -8.0858e-07)
(0.0292834 -0.137061 0.938084)
(0.0294978 -0.124056 -0.936643)
(0.0295028 -0.124058 8.30077e-07)
(0.0295034 -0.12406 4.9251e-09)
(0.0295028 -0.124058 -8.26942e-07)
(0.0294978 -0.124056 0.936643)
(0.0296315 -0.111092 -0.933972)
(0.0296361 -0.111095 8.41383e-07)
(0.0296366 -0.111096 -5.21903e-09)
(0.0296361 -0.111095 -8.40739e-07)
(0.0296314 -0.111092 0.933972)
(0.000313996 -0.431941 -0.980238)
(0.000313468 -0.43194 7.72359e-08)
(0.000313286 -0.43194 1.77016e-11)
(0.000313473 -0.43194 -7.72364e-08)
(0.000314004 -0.431941 0.980238)
(0.000431324 -0.431782 -0.968262)
(0.000431403 -0.431779 -1.11015e-07)
(0.000431373 -0.431778 4.05955e-11)
(0.000431409 -0.431779 1.11085e-07)
(0.000431333 -0.431782 0.968262)
(0.000650077 -0.431587 -0.967677)
(0.000650292 -0.431587 -6.23101e-08)
(0.000650344 -0.431587 9.73469e-11)
(0.000650298 -0.431587 6.25041e-08)
(0.000650086 -0.431587 0.967677)
(0.00096395 -0.43131 -0.967076)
(0.000964273 -0.431311 -3.65689e-08)
(0.000964383 -0.431311 2.19178e-10)
(0.000964278 -0.431311 3.69644e-08)
(0.000963958 -0.43131 0.967076)
(0.00137073 -0.430905 -0.966471)
(0.00137107 -0.430905 -4.82935e-08)
(0.00137119 -0.430905 7.16932e-10)
(0.00137107 -0.430905 4.90978e-08)
(0.00137073 -0.430905 0.966471)
(0.00187152 -0.430343 -0.96585)
(0.00187183 -0.430342 -5.55445e-08)
(0.00187195 -0.430342 7.59774e-10)
(0.00187183 -0.430342 5.65199e-08)
(0.00187152 -0.430343 0.96585)
(0.00246876 -0.429593 -0.965219)
(0.00246903 -0.429593 -5.88114e-08)
(0.00246913 -0.429593 9.20141e-10)
(0.00246903 -0.429593 5.99801e-08)
(0.00246875 -0.429593 0.965219)
(0.00316398 -0.428623 -0.964576)
(0.00316421 -0.428623 -6.30062e-08)
(0.0031643 -0.428623 6.8063e-10)
(0.00316421 -0.428623 6.4154e-08)
(0.00316398 -0.428623 0.964576)
(0.00395767 -0.427402 -0.963924)
(0.00395783 -0.427402 -6.77002e-08)
(0.0039579 -0.427402 1.0972e-09)
(0.00395782 -0.427402 6.9011e-08)
(0.00395766 -0.427402 0.963924)
(0.00485043 -0.425898 -0.963258)
(0.00485049 -0.425898 -7.28056e-08)
(0.00485054 -0.425898 -9.7177e-11)
(0.00485049 -0.425898 7.34855e-08)
(0.00485042 -0.425898 0.963258)
(0.00584423 -0.424083 -0.962578)
(0.00584418 -0.424082 -7.70944e-08)
(0.0058442 -0.424082 7.81546e-10)
(0.00584418 -0.424082 7.80031e-08)
(0.00584423 -0.424082 0.962578)
(0.00694323 -0.421927 -0.96189)
(0.00694303 -0.421926 -8.1598e-08)
(0.006943 -0.421926 3.24486e-10)
(0.00694303 -0.421926 8.21218e-08)
(0.00694323 -0.421927 0.96189)
(0.00815309 -0.419401 -0.961183)
(0.00815271 -0.419401 -8.55064e-08)
(0.00815263 -0.419401 5.79664e-11)
(0.00815271 -0.419401 8.56883e-08)
(0.00815309 -0.419401 0.961183)
(0.00948056 -0.416476 -0.960474)
(0.00947994 -0.416476 -8.86715e-08)
(0.0094798 -0.416476 -2.60171e-11)
(0.00947994 -0.416476 8.87003e-08)
(0.00948056 -0.416476 0.960474)
(0.0109322 -0.41312 -0.959743)
(0.0109313 -0.41312 -9.08173e-08)
(0.0109311 -0.41312 -9.79324e-11)
(0.0109313 -0.41312 9.07236e-08)
(0.0109322 -0.41312 0.959743)
(0.0125132 -0.4093 -0.959)
(0.012512 -0.4093 -9.16926e-08)
(0.0125117 -0.4093 -1.89725e-10)
(0.012512 -0.4093 9.14577e-08)
(0.0125132 -0.4093 0.959)
(0.0142272 -0.40498 -0.958246)
(0.0142256 -0.404981 -9.1002e-08)
(0.0142252 -0.404981 -3.21389e-10)
(0.0142256 -0.404981 9.05744e-08)
(0.0142272 -0.40498 0.958246)
(0.0160751 -0.400127 -0.957473)
(0.0160731 -0.400128 -8.84356e-08)
(0.0160725 -0.400128 -4.56971e-10)
(0.0160731 -0.400128 8.78073e-08)
(0.0160751 -0.400127 0.957473)
(0.0180547 -0.394705 -0.956692)
(0.0180522 -0.394706 -8.37156e-08)
(0.0180515 -0.394706 -5.4316e-10)
(0.0180522 -0.394706 8.29417e-08)
(0.0180547 -0.394705 0.956692)
(0.0201603 -0.388679 -0.955888)
(0.0201573 -0.388679 -7.65686e-08)
(0.0201565 -0.38868 -5.887e-10)
(0.0201573 -0.388679 7.56934e-08)
(0.0201603 -0.388679 0.955888)
(0.0223823 -0.382016 -0.955069)
(0.0223787 -0.382017 -6.68633e-08)
(0.0223778 -0.382018 -6.66369e-10)
(0.0223787 -0.382017 6.58286e-08)
(0.0223823 -0.382016 0.955069)
(0.0247074 -0.374686 -0.954235)
(0.0247032 -0.374688 -5.44718e-08)
(0.0247021 -0.374688 -8.46522e-10)
(0.0247032 -0.374688 5.31004e-08)
(0.0247074 -0.374686 0.954235)
(0.0271179 -0.366664 -0.953379)
(0.0271132 -0.366666 -3.93573e-08)
(0.0271119 -0.366666 -1.17478e-09)
(0.0271132 -0.366666 3.7424e-08)
(0.0271179 -0.366664 0.953379)
(0.0295924 -0.357928 -0.952502)
(0.0295871 -0.35793 -2.15451e-08)
(0.0295857 -0.357931 -1.6463e-09)
(0.0295871 -0.35793 1.88635e-08)
(0.0295924 -0.357928 0.952502)
(0.0321058 -0.348463 -0.951603)
(0.0320999 -0.348465 -1.07516e-09)
(0.0320984 -0.348466 -2.41594e-09)
(0.0320999 -0.348465 -2.50254e-09)
(0.0321058 -0.348463 0.951603)
(0.0346299 -0.338262 -0.950679)
(0.0346235 -0.338264 2.21086e-08)
(0.0346218 -0.338265 -3.0974e-09)
(0.0346235 -0.338264 -2.65182e-08)
(0.0346299 -0.338262 0.950679)
(0.0371344 -0.327324 -0.949728)
(0.0371275 -0.327327 4.7658e-08)
(0.0371257 -0.327328 -3.18475e-09)
(0.0371275 -0.327327 -5.25159e-08)
(0.0371344 -0.327324 0.949728)
(0.0395875 -0.315661 -0.94875)
(0.0395801 -0.315664 7.54889e-08)
(0.0395783 -0.315665 -2.93107e-09)
(0.0395801 -0.315664 -8.0247e-08)
(0.0395875 -0.315661 0.94875)
(0.0419573 -0.30329 -0.947737)
(0.0419497 -0.303293 1.05347e-07)
(0.0419477 -0.303295 -2.2776e-09)
(0.0419497 -0.303293 -1.09368e-07)
(0.0419573 -0.30329 0.947737)
(0.0442135 -0.290242 -0.946692)
(0.0442055 -0.290245 1.36725e-07)
(0.0442035 -0.290246 -1.40913e-09)
(0.0442055 -0.290245 -1.39651e-07)
(0.0442135 -0.290242 0.946692)
(0.0463283 -0.276554 -0.945609)
(0.0463201 -0.276557 1.68811e-07)
(0.0463181 -0.276559 -8.07725e-10)
(0.0463201 -0.276557 -1.70839e-07)
(0.0463283 -0.276554 0.945609)
(0.0482784 -0.262276 -0.944485)
(0.0482701 -0.262279 2.0092e-07)
(0.0482681 -0.262281 -9.08632e-11)
(0.0482701 -0.262279 -2.01847e-07)
(0.0482784 -0.262276 0.944485)
(0.0500463 -0.247464 -0.943318)
(0.0500379 -0.247467 2.32482e-07)
(0.0500359 -0.247469 4.79558e-11)
(0.0500379 -0.247467 -2.3258e-07)
(0.0500462 -0.247464 0.943318)
(0.0516211 -0.232183 -0.942103)
(0.0516126 -0.232186 2.62977e-07)
(0.0516107 -0.232188 7.99261e-10)
(0.0516126 -0.232186 -2.62347e-07)
(0.0516211 -0.232183 0.942103)
(0.0529993 -0.216503 -0.940838)
(0.0529908 -0.216506 2.91751e-07)
(0.0529889 -0.216507 2.55082e-10)
(0.0529908 -0.216506 -2.91508e-07)
(0.0529993 -0.216503 0.940838)
(0.0541839 -0.200498 -0.93952)
(0.0541754 -0.200501 3.19094e-07)
(0.0541735 -0.200502 1.22337e-09)
(0.0541754 -0.200501 -3.18159e-07)
(0.0541839 -0.200498 0.93952)
(0.0551814 -0.184245 -0.938144)
(0.0551729 -0.184247 3.44516e-07)
(0.055171 -0.184249 6.51678e-10)
(0.0551729 -0.184247 -3.4352e-07)
(0.0551814 -0.184245 0.938144)
(0.0559956 -0.167822 -0.936709)
(0.0559871 -0.167824 3.6826e-07)
(0.0559852 -0.167826 1.67816e-09)
(0.0559871 -0.167824 -3.66434e-07)
(0.0559955 -0.167822 0.936709)
(0.0566167 -0.151307 -0.934121)
(0.0566083 -0.15131 3.92275e-07)
(0.0566064 -0.151311 4.97309e-10)
(0.0566083 -0.15131 -3.9053e-07)
(0.0566167 -0.151307 0.934121)
(0.000397714 -0.475481 -0.980915)
(0.000396947 -0.475481 6.84887e-08)
(0.000396701 -0.475481 4.40423e-13)
(0.000396952 -0.475481 -6.84924e-08)
(0.000397723 -0.475481 0.980915)
(0.000551476 -0.475346 -0.968272)
(0.000551739 -0.475344 -1.0036e-07)
(0.000551741 -0.475343 2.62449e-11)
(0.000551745 -0.475344 1.00443e-07)
(0.000551485 -0.475346 0.968272)
(0.000838968 -0.475182 -0.967684)
(0.000839445 -0.475182 -5.49776e-08)
(0.000839548 -0.475182 8.61469e-11)
(0.000839451 -0.475182 5.52021e-08)
(0.000838977 -0.475182 0.967684)
(0.00124957 -0.474951 -0.967081)
(0.0012501 -0.474951 -2.83637e-08)
(0.00125026 -0.474951 1.78547e-10)
(0.0012501 -0.474951 2.87555e-08)
(0.00124958 -0.47495 0.967081)
(0.00178285 -0.47461 -0.966473)
(0.00178346 -0.47461 -3.9488e-08)
(0.00178365 -0.47461 3.87993e-10)
(0.00178346 -0.47461 4.01323e-08)
(0.00178285 -0.47461 0.966473)
(0.00244337 -0.474134 -0.96585)
(0.00244404 -0.474134 -4.68186e-08)
(0.00244425 -0.474134 4.67661e-10)
(0.00244404 -0.474134 4.76262e-08)
(0.00244337 -0.474134 0.96585)
(0.0032368 -0.473496 -0.965215)
(0.00323752 -0.473496 -4.98693e-08)
(0.00323775 -0.473495 5.74029e-10)
(0.00323752 -0.473496 5.08352e-08)
(0.0032368 -0.473496 0.965215)
(0.00416731 -0.472663 -0.964569)
(0.00416808 -0.472663 -5.38887e-08)
(0.00416831 -0.472663 5.75748e-10)
(0.00416807 -0.472663 5.48883e-08)
(0.0041673 -0.472663 0.964569)
(0.00523708 -0.471605 -0.963914)
(0.00523788 -0.471605 -5.88011e-08)
(0.00523813 -0.471605 6.45904e-10)
(0.00523788 -0.471605 5.98319e-08)
(0.00523707 -0.471605 0.963914)
(0.00644792 -0.470291 -0.963245)
(0.00644876 -0.470291 -6.38257e-08)
(0.00644901 -0.470291 6.26618e-10)
(0.00644876 -0.470291 6.46915e-08)
(0.00644791 -0.470291 0.963245)
(0.00780317 -0.46869 -0.962561)
(0.00780403 -0.46869 -6.8897e-08)
(0.00780428 -0.46869 6.98748e-10)
(0.00780403 -0.46869 6.96283e-08)
(0.00780317 -0.46869 0.962561)
(0.00930917 -0.466774 -0.961869)
(0.00931004 -0.466773 -7.39802e-08)
(0.00931027 -0.466773 6.30415e-10)
(0.00931003 -0.466773 7.44406e-08)
(0.00930916 -0.466773 0.961869)
(0.0109747 -0.46451 -0.961157)
(0.0109756 -0.46451 -7.89468e-08)
(0.0109758 -0.46451 -1.51197e-10)
(0.0109756 -0.46451 7.88743e-08)
(0.0109747 -0.46451 0.961157)
(0.0128108 -0.461868 -0.960443)
(0.0128116 -0.461868 -8.32759e-08)
(0.0128118 -0.461868 -1.00404e-10)
(0.0128116 -0.461868 8.31153e-08)
(0.0128108 -0.461868 0.960443)
(0.0148287 -0.458813 -0.959708)
(0.0148295 -0.458813 -8.68407e-08)
(0.0148297 -0.458813 -8.44159e-11)
(0.0148295 -0.458813 8.66754e-08)
(0.0148287 -0.458813 0.959708)
(0.0170387 -0.455309 -0.958959)
(0.0170395 -0.455309 -8.9391e-08)
(0.0170396 -0.455309 -6.88687e-11)