/*--------------------------------*- C++ -*----------------------------------*\
  =========                 |
  \\      /  F ield         | OpenFOAM: The Open Source CFD Toolbox
   \\    /   O peration     | Website:  https://openfoam.org
    \\  /    A nd           | Version:  9
     \\/     M anipulation  |
\*---------------------------------------------------------------------------*/
FoamFile
{
    format      ascii;
    class       volScalarField;
    location    "0.15";
    object      epsilon;
}
// * * * * * * * * * * * * * * * * * * * * * * * * * * * * * * * * * * * * * //

dimensions      [0 2 -3 0 0 0 0];

internalField   nonuniform List<scalar> 
36360
(
0.0261327
0.0215947
0.0216974
0.018453
0.0074035
0.00551692
0.00727853
0.00579717
0.00501314
0.00459296
0.00546971
0.00517783
0.00517892
0.00516655
0.0055556
0.00554608
0.00458681
0.00458681
0.0051736
0.0051736
0.00516619
0.00516619
0.00554572
0.00554572
0.0045929
0.00501156
0.00517779
0.00546883
0.00516655
0.00517887
0.00554608
0.00555557
0.0215918
0.0261347
0.0184514
0.0216985
0.00551677
0.00740345
0.00579709
0.0072785
0.0265294
0.0219334
0.0265529
0.0219362
0.00740088
0.00548556
0.00740864
0.00548869
0.00497003
0.00453624
0.00497413
0.00453984
0.00514008
0.00512796
0.00514271
0.00513039
0.00452991
0.00452991
0.00453348
0.00453348
0.00512765
0.00512765
0.00513006
0.00513006
0.00453618
0.00496832
0.00453977
0.00497244
0.00512795
0.00514003
0.00513038
0.00514266
0.0219303
0.0265313
0.0219331
0.026555
0.00548539
0.0074007
0.00548853
0.00740858
0.026462
0.0218723
0.0265155
0.0219204
0.00738684
0.00548278
0.00739323
0.00548427
0.00496628
0.00453747
0.00496825
0.00453591
0.00513941
0.00512764
0.00513963
0.00512765
0.00453131
0.00453131
0.00452961
0.00452961
0.0051275
0.0051275
0.00512736
0.00512736
0.0045374
0.00496461
0.00453585
0.00496656
0.00512764
0.00513936
0.00512765
0.00513958
0.0218707
0.0264656
0.0219179
0.0265181
0.00548264
0.00738655
0.00548412
0.00739298
0.0263351
0.0217749
0.0264002
0.0218242
0.00737677
0.00547957
0.0073817
0.00548114
0.00496232
0.00453746
0.00496418
0.00453606
0.00513875
0.00512705
0.00513901
0.00512725
0.00453138
0.00453137
0.00452985
0.00452985
0.00512682
0.00512682
0.00512701
0.00512701
0.0045374
0.00496067
0.00453599
0.00496252
0.00512705
0.0051387
0.00512725
0.00513896
0.0217738
0.0263396
0.021823
0.0264045
0.00547944
0.00737648
0.00548101
0.00738139
0.0262098
0.021679
0.0262766
0.0217297
0.00736702
0.00547614
0.00737196
0.00547787
0.0049583
0.00453743
0.00496027
0.00453601
0.00513797
0.00512639
0.00513829
0.00512666
0.00453142
0.00453142
0.00452988
0.00452988
0.00512617
0.00512617
0.00512642
0.00512642
0.00453736
0.00495666
0.00453595
0.00495862
0.00512639
0.00513792
0.00512666
0.00513825
0.0216781
0.0262144
0.0217286
0.026281
0.00547602
0.00736668
0.00547774
0.00737166
0.0260798
0.0215833
0.026147
0.021632
0.00735745
0.00547248
0.0073622
0.00547427
0.00495426
0.0045374
0.00495616
0.00453596
0.00513703
0.00512556
0.00513743
0.00512591
0.00453147
0.00453146
0.0045299
0.0045299
0.00512535
0.00512535
0.00512569
0.00512569
0.00453733
0.00495265
0.00453589
0.00495454
0.00512556
0.00513699
0.00512591
0.00513739
0.0215835
0.0260856
0.0216318
0.0261521
0.00547238
0.00735727
0.00547416
0.00736193
0.0259518
0.0214918
0.0260191
0.0215393
0.00734803
0.0054687
0.00735282
0.00547057
0.00495035
0.00453737
0.00495221
0.00453591
0.00513592
0.00512455
0.00513641
0.00512499
0.00453151
0.00453151
0.00452993
0.00452993
0.00512434
0.00512434
0.00512477
0.00512477
0.00453731
0.00494876
0.00453584
0.0049506
0.00512454
0.00513588
0.00512498
0.00513637
0.0214921
0.0259579
0.0215394
0.0260248
0.0054686
0.00734793
0.00547047
0.00735267
0.0258249
0.0214047
0.0258907
0.0214494
0.00733885
0.00546479
0.00734343
0.00546671
0.00494661
0.00453735
0.00494835
0.00453586
0.00513461
0.00512333
0.0051352
0.00512387
0.00453156
0.00453156
0.00452995
0.00452995
0.00512312
0.00512312
0.00512365
0.00512365
0.00453728
0.00494498
0.0045358
0.00494674
0.00512333
0.00513457
0.00512387
0.00513516
0.0214038
0.0258297
0.0214492
0.0258965
0.00546467
0.0073388
0.0054666
0.00734333
0.0256974
0.0213204
0.0257639
0.0213638
0.00732985
0.00546072
0.00733439
0.00546272
0.00494298
0.00453733
0.00494466
0.00453582
0.00513307
0.00512188
0.00513377
0.00512254
0.00453161
0.00453161
0.00452998
0.00452998
0.00512167
0.00512167
0.00512232
0.00512232
0.00453727
0.00494134
0.00453576
0.00494303
0.00512188
0.00513302
0.00512253
0.00513373
0.0213191
0.0257016
0.0213627
0.0257684
0.00546059
0.00732978
0.00546259
0.00733433
0.0255697
0.0212399
0.0256363
0.0212814
0.00732091
0.00545649
0.00732541
0.00545857
0.00493952
0.00453732
0.00494111
0.00453578
0.00513127
0.00512019
0.0051321
0.00512097
0.00453166
0.00453166
0.00453001
0.00453001
0.00511997
0.00511997
0.00512074
0.00512074
0.00453725
0.00493786
0.00453572
0.00493946
0.00512018
0.00513123
0.00512096
0.00513206
0.0212376
0.025573
0.0212797
0.0256402
0.00545635
0.00732087
0.00545843
0.00732536
0.0254395
0.0211605
0.0255085
0.0212024
0.00731196
0.00545203
0.00731653
0.00545424
0.00493613
0.00453731
0.00493771
0.00453575
0.00512919
0.00511821
0.00513016
0.00511913
0.00453171
0.00453171
0.00453004
0.00453004
0.00511799
0.00511799
0.0051189
0.0051189
0.00453724
0.00493445
0.00453569
0.00493603
0.00511821
0.00512915
0.00511912
0.00513012
0.0211576
0.0254418
0.0211997
0.0255112
0.00545187
0.0073119
0.00545409
0.00731648
0.0253037
0.0210812
0.0253754
0.0211228
0.00730298
0.00544728
0.00730755
0.00544963
0.0049328
0.00453736
0.00493433
0.00453573
0.0051268
0.00511593
0.00512793
0.00511699
0.00453176
0.00453176
0.00453008
0.00453008
0.0051157
0.0051157
0.00511676
0.00511676
0.0045373
0.00493112
0.00453566
0.00493265
0.00511592
0.00512676
0.00511699
0.00512788
0.0210783
0.0253058
0.0211198
0.0253775
0.00544712
0.00730292
0.00544947
0.00730748
0.025164
0.0210038
0.0252376
0.0210445
0.00729396
0.00544226
0.00729854
0.00544474
0.00492956
0.00453736
0.00493103
0.00453572
0.00512407
0.00511329
0.00512536
0.00511453
0.00453182
0.00453182
0.00453012
0.00453012
0.00511306
0.00511306
0.0051143
0.0051143
0.0045373
0.00492789
0.00453565
0.00492936
0.00511329
0.00512402
0.00511453
0.00512532
0.0210009
0.0251661
0.0210415
0.0252397
0.0054421
0.0072939
0.00544459
0.00729848
0.0250206
0.0209285
0.0250962
0.0209682
0.00728493
0.00543693
0.00728952
0.00543957
0.00492644
0.00453737
0.00492785
0.0045357
0.00512096
0.00511029
0.00512244
0.00511171
0.00453188
0.00453188
0.00453016
0.00453016
0.00511005
0.00511005
0.00511148
0.00511148
0.0045373
0.00492477
0.00453564
0.00492618
0.00511028
0.00512091
0.00511171
0.0051224
0.0209256
0.0250227
0.0209652
0.0250984
0.00543677
0.00728487
0.00543941
0.00728946
0.024873
0.0208553
0.0249509
0.020894
0.00727589
0.00543126
0.00728049
0.00543407
0.00492343
0.00453738
0.00492478
0.00453569
0.00511744
0.00510686
0.00511913
0.00510849
0.00453195
0.00453194
0.00453021
0.00453021
0.00510663
0.00510663
0.00510827
0.00510827
0.00453731
0.00492176
0.00453563
0.00492311
0.00510686
0.00511739
0.00510849
0.00511908
0.0208524
0.0248751
0.0208911
0.024953
0.0054311
0.00727582
0.00543391
0.00728042
0.0247207
0.020784
0.0248011
0.0208219
0.00726682
0.00542521
0.00727144
0.00542821
0.00492052
0.00453739
0.00492182
0.00453569
0.00511347
0.005103
0.00511538
0.00510485
0.00453201
0.00453201
0.00453026
0.00453026
0.00510277
0.00510277
0.00510462
0.00510462
0.00453733
0.00491886
0.00453563
0.00492015
0.00510299
0.00511343
0.00510485
0.00511534
0.0207811
0.0247227
0.0208189
0.0248032
0.00542505
0.00726675
0.00542805
0.00727137
0.0245633
0.0207147
0.0246464
0.0207517
0.00725771
0.00541874
0.00726235
0.00542195
0.00491773
0.00453742
0.00491896
0.0045357
0.00510902
0.00509864
0.00511117
0.00510074
0.00453209
0.00453208
0.00453032
0.00453032
0.00509842
0.00509842
0.00510051
0.00510051
0.00453735
0.00491607
0.00453563
0.0049173
0.00509864
0.00510898
0.00510073
0.00511113
0.0207118
0.0245654
0.0207488
0.0246485
0.00541859
0.00725764
0.0054218
0.00726228
0.0244005
0.0206472
0.0244865
0.0206834
0.00724855
0.00541182
0.00725322
0.00541526
0.00491503
0.00453745
0.00491621
0.00453571
0.00510406
0.00509377
0.00510647
0.00509612
0.00453216
0.00453216
0.00453038
0.00453038
0.00509354
0.00509354
0.0050959
0.0050959
0.00453739
0.00491338
0.00453565
0.00491455
0.00509377
0.00510402
0.00509612
0.00510642
0.0206444
0.0244026
0.0206805
0.0244886
0.00541167
0.00724848
0.00541511
0.00725315
0.0242322
0.0205816
0.0243211
0.0206169
0.00723933
0.00540442
0.00724403
0.0054081
0.00491244
0.00453748
0.00491356
0.00453573
0.00509855
0.00508834
0.00510123
0.00509097
0.00453224
0.00453224
0.00453045
0.00453045
0.00508812
0.00508812
0.00509075
0.00509075
0.00453742
0.00491079
0.00453567
0.00491191
0.00508834
0.0050985
0.00509097
0.00510118
0.0205788
0.0242342
0.0206141
0.0243232
0.00540426
0.00723926
0.00540794
0.00724396
0.0240582
0.0205178
0.02415
0.0205524
0.00723005
0.00539649
0.00723478
0.00540043
0.00490995
0.00453752
0.00491101
0.00453576
0.00509245
0.00508233
0.00509542
0.00508525
0.00453233
0.00453233
0.00453053
0.00453053
0.00508211
0.00508211
0.00508503
0.00508503
0.00453746
0.0049083
0.0045357
0.00490936
0.00508233
0.00509241
0.00508525
0.00509538
0.020515
0.0240602
0.0205495
0.0241521
0.00539633
0.00722998
0.00540028
0.00723471
0.0238786
0.0204559
0.0239734
0.0204896
0.0072207
0.00538801
0.00722547
0.00539223
0.00490756
0.00453757
0.00490856
0.0045358
0.00508574
0.0050757
0.00508901
0.00507893
0.00453242
0.00453242
0.00453061
0.00453061
0.00507549
0.00507549
0.00507871
0.00507871
0.00453751
0.00490592
0.00453574
0.00490692
0.0050757
0.0050857
0.00507893
0.00508897
0.0204531
0.0238806
0.0204868
0.0239754
0.00538785
0.00722063
0.00539207
0.0072254
0.0236937
0.0203957
0.0237912
0.0204286
0.0072113
0.00537895
0.0072161
0.00538346
0.00490527
0.00453762
0.00490621
0.00453584
0.00507839
0.00506844
0.00508198
0.00507198
0.00453252
0.00453252
0.0045307
0.0045307
0.00506822
0.00506822
0.00507176
0.00507176
0.00453756
0.00490363
0.00453578
0.00490457
0.00506844
0.00507835
0.00507197
0.00508194
0.020393
0.0236957
0.0204259
0.0237932
0.0053788
0.00721123
0.0053833
0.00721603
0.0235038
0.0203374
0.0236038
0.0203695
0.00720185
0.0053693
0.00720667
0.0053741
0.00490307
0.00453768
0.00490396
0.0045359
0.00507039
0.00506051
0.0050743
0.00506437
0.00453261
0.00453261
0.00453079
0.00453079
0.0050603
0.0050603
0.00506416
0.00506416
0.00453762
0.00490144
0.00453584
0.00490233
0.00506051
0.00507035
0.00506437
0.00507426
0.0203347
0.0235058
0.0203668
0.0236059
0.00536915
0.00720178
0.00537395
0.0072066
0.0233096
0.020281
0.0234119
0.0203123
0.00719237
0.00535904
0.00719721
0.00536414
0.00490098
0.00453774
0.00490181
0.00453595
0.00506171
0.00505191
0.00506595
0.0050561
0.00453272
0.00453272
0.00453089
0.00453089
0.0050517
0.0050517
0.0050559
0.0050559
0.00453768
0.00489935
0.00453589
0.00490018
0.00505191
0.00506167
0.0050561
0.00506591
0.0202784
0.0233116
0.0203096
0.0234139
0.00535888
0.0071923
0.00536399
0.00719714
0.0231119
0.0202266
0.0232159
0.020257
0.00718289
0.00534816
0.00718773
0.00535356
0.00489898
0.00453781
0.00489976
0.00453602
0.00505236
0.00504263
0.00505693
0.00504716
0.00453282
0.00453282
0.00453099
0.00453099
0.00504242
0.00504242
0.00504695
0.00504695
0.00453775
0.00489736
0.00453596
0.00489813
0.00504263
0.00505232
0.00504715
0.00505689
0.0202239
0.0231139
0.0202543
0.0232179
0.00534801
0.00718282
0.00535341
0.00718766
0.0229116
0.0201741
0.0230169
0.0202036
0.00717343
0.00533667
0.00717826
0.00534237
0.00489708
0.00453787
0.0048978
0.00453609
0.00504233
0.00503267
0.00504723
0.00503752
0.00453291
0.00453291
0.0045311
0.0045311
0.00503246
0.00503246
0.00503732
0.00503732
0.00453781
0.00489546
0.00453603
0.00489617
0.00503266
0.00504229
0.00503752
0.00504719
0.0201715
0.0229136
0.020201
0.0230189
0.00533651
0.00717336
0.00534222
0.00717818
0.0227099
0.0201237
0.0228158
0.0201523
0.00716404
0.00532456
0.00716883
0.00533056
0.00489527
0.00453793
0.00489593
0.00453616
0.00503162
0.00502203
0.00503685
0.00502721
0.00453301
0.004533
0.0045312
0.0045312
0.00502183
0.00502183
0.00502701
0.00502701
0.00453787
0.00489365
0.0045361
0.00489431
0.00502203
0.00503158
0.00502721
0.00503681
0.0201211
0.0227118
0.0201497
0.0228178
0.00532441
0.00716396
0.00533041
0.00716875
0.022508
0.0200755
0.022614
0.0201032
0.00715473
0.00531187
0.00715948
0.00531816
0.00489357
0.00453799
0.00489416
0.00453623
0.00502027
0.00501073
0.00502581
0.00501624
0.0045331
0.00453309
0.0045313
0.0045313
0.00501054
0.00501054
0.00501604
0.00501604
0.00453793
0.00489196
0.00453617
0.00489255
0.00501073
0.00502022
0.00501623
0.00502576
0.0200729
0.02251
0.0201006
0.0226159
0.00531172
0.00715466
0.005318
0.0071594
0.022307
0.0200292
0.0224125
0.020056
0.00714557
0.00529861
0.00715024
0.00530517
0.00489201
0.00453803
0.00489248
0.00453629
0.00500828
0.00499881
0.00501412
0.00500461
0.00453317
0.00453317
0.0045314
0.0045314
0.00499861
0.00499861
0.00500441
0.00500441
0.00453797
0.0048904
0.00453623
0.00489087
0.00499881
0.00500823
0.00500461
0.00501408
0.0200267
0.022309
0.0200535
0.0224145
0.00529846
0.0071455
0.00530502
0.00715016
0.0221085
0.0199851
0.0222127
0.020011
0.0071366
0.00528482
0.00714117
0.00529163
0.00489055
0.00453807
0.0048909
0.00453635
0.00499569
0.00498628
0.00500181
0.00499237
0.00453324
0.00453324
0.00453148
0.00453148
0.00498608
0.00498608
0.00499217
0.00499217
0.00453801
0.00488895
0.00453629
0.0048893
0.00498628
0.00499565
0.00499236
0.00500177
0.0199826
0.0221105
0.0200085
0.0222146
0.00528467
0.00713652
0.00529148
0.00714109
0.0219141
0.0199434
0.0220162
0.0199682
0.00712787
0.00527054
0.00713231
0.00527758
0.00488919
0.0045381
0.00488942
0.0045364
0.00498254
0.00497319
0.00498893
0.00497954
0.00453329
0.00453329
0.00453156
0.00453156
0.004973
0.004973
0.00497935
0.00497935
0.00453804
0.00488759
0.00453634
0.00488782
0.00497319
0.0049825
0.00497954
0.00498889
0.0199409
0.0219161
0.0199657
0.0220181
0.00527039
0.00712779
0.00527743
0.00713223
0.0217253
0.019904
0.0218245
0.0199278
0.00711942
0.00525581
0.00712372
0.00526307
0.0048879
0.00453811
0.00488803
0.00453643
0.00496888
0.00495958
0.00497551
0.00496617
0.00453332
0.00453332
0.00453162
0.00453162
0.00495939
0.00495939
0.00496598
0.00496598
0.00453805
0.00488631
0.00453638
0.00488643
0.00495958
0.00496884
0.00496617
0.00497547
0.0199016
0.0217272
0.0199254
0.0218264
0.00525566
0.00711934
0.00526291
0.00712364
0.0215434
0.0198671
0.0216391
0.0198898
0.0071113
0.0052407
0.00711543
0.00524813
0.00488697
0.00453809
0.00488672
0.00453646
0.00495476
0.00494552
0.0049616
0.00495232
0.00453333
0.00453332
0.00453167
0.00453166
0.00494533
0.00494533
0.00495213
0.00495213
0.00453803
0.00488538
0.0045364
0.00488513
0.00494551
0.00495472
0.00495232
0.00496156
0.0198647
0.0215453
0.0198874
0.021641
0.00524055
0.00711122
0.00524798
0.00711535
0.0213698
0.0198327
0.0214613
0.0198543
0.00710356
0.00522525
0.00710749
0.00523283
0.00488582
0.00453805
0.00488551
0.00453646
0.00494024
0.00493104
0.00494726
0.00493803
0.00453331
0.00453331
0.00453169
0.00453169
0.00493085
0.00493085
0.00493784
0.00493784
0.00453799
0.00488423
0.0045364
0.00488392
0.00493104
0.0049402
0.00493803
0.00494722
0.0198303
0.0213718
0.0198519
0.0214632
0.0052251
0.00710348
0.00523268
0.00710741
0.0212059
0.0198007
0.0212925
0.0198212
0.00709624
0.00520954
0.00709996
0.00521723
0.0048847
0.00453798
0.00488435
0.00453643
0.00492538
0.00491622
0.00493255
0.00492336
0.00453326
0.00453326
0.00453168
0.00453168
0.00491604
0.00491604
0.00492317
0.00492317
0.00453793
0.00488312
0.00453637
0.00488276
0.00491622
0.00492534
0.00492336
0.00493251
0.0197984
0.0212078
0.0198189
0.0212944
0.00520938
0.00709616
0.00521708
0.00709988
0.0210525
0.0197713
0.0211339
0.0197907
0.00708938
0.00519361
0.00709287
0.0052014
0.00488364
0.00453788
0.00488325
0.00453639
0.00491024
0.00490113
0.00491752
0.00490838
0.00453318
0.00453317
0.00453165
0.00453165
0.00490094
0.00490094
0.00490819
0.00490819
0.00453782
0.00488206
0.00453633
0.00488167
0.00490112
0.0049102
0.00490838
0.00491748
0.019769
0.0210545
0.0197884
0.0211358
0.00519346
0.00708929
0.00520124
0.00709278
0.0209109
0.0197445
0.0209864
0.0197628
0.00708301
0.00517755
0.00708625
0.00518538
0.00488264
0.00453775
0.00488222
0.00453631
0.00489489
0.00488581
0.00490226
0.00489315
0.00453305
0.00453305
0.0045316
0.00453159
0.00488562
0.00488562
0.00489296
0.00489296
0.00453769
0.00488106
0.00453625
0.00488064
0.00488581
0.00489485
0.00489315
0.00490221
0.0197422
0.0209128
0.0197605
0.0209883
0.00517739
0.00708292
0.00518523
0.00708616
0.0207835
0.0197198
0.0208507
0.0197374
0.00707717
0.0051614
0.00708014
0.00516926
0.00488168
0.00453758
0.00488126
0.0045362
0.00487939
0.00487034
0.00488681
0.00487774
0.0045329
0.0045329
0.0045315
0.0045315
0.00487015
0.00487015
0.00487754
0.00487754
0.00453752
0.00488011
0.00453615
0.00487968
0.00487034
0.00487935
0.00487773
0.00488677
0.0197175
0.0207854
0.0197351
0.0208526
0.00516125
0.00707708
0.0051691
0.00708005
0.0207778
0.0196314
0.0207254
0.0197124
0.00707028
0.00514445
0.0070746
0.00515312
0.00487906
0.00453721
0.00488033
0.00453607
0.00486368
0.00485467
0.00487125
0.0048622
0.00453256
0.00453256
0.00453138
0.00453138
0.00485448
0.00485447
0.00486201
0.00486201
0.00453715
0.00487751
0.00453601
0.00487876
0.00485466
0.00486363
0.0048622
0.00487121
0.0196291
0.0207797
0.0197101
0.0207272
0.0051443
0.00707019
0.00515296
0.00707451
0.0265866
0.0220024
0.0220508
0.0186903
0.0265669
0.0219856
0.0220792
0.0186385
0.00502151
0.00458849
0.00547559
0.0051763
0.00502095
0.00458834
0.00547545
0.0051769
0.00458217
0.00458217
0.00517197
0.00517197
0.00458202
0.00458202
0.00517256
0.00517256
0.00458842
0.00501985
0.00517627
0.00547467
0.00458827
0.00501929
0.00517686
0.00547454
0.0219994
0.0265887
0.0186886
0.0220519
0.0219825
0.026569
0.0186369
0.0220804
0.0270044
0.022325
0.0270259
0.0223349
0.0269878
0.0222945
0.0270229
0.0223298
0.00497812
0.00453153
0.00498242
0.00453514
0.0049771
0.00453134
0.0049819
0.00453496
0.00452502
0.00452502
0.00452861
0.00452861
0.00452484
0.00452484
0.00452843
0.00452843
0.00453146
0.00497633
0.00453507
0.00498064
0.00453127
0.00497533
0.00453489
0.00498012
0.0223217
0.0270067
0.0223317
0.0270282
0.0222918
0.0269908
0.0223266
0.0270252
0.0269304
0.0222546
0.0269877
0.0223066
0.0268647
0.0222029
0.0269124
0.0222343
0.00497392
0.00453273
0.00497614
0.00453117
0.00497267
0.00453254
0.00497456
0.00453098
0.00452642
0.00452642
0.00452471
0.0045247
0.00452624
0.00452624
0.00452453
0.00452453
0.00453266
0.00497213
0.0045311
0.00497434
0.00453247
0.00497089
0.00453091
0.00497278
0.0222513
0.0269325
0.0223034
0.0269902
0.0221994
0.0268662
0.0222309
0.0269148
0.0268011
0.0221533
0.0268684
0.0222054
0.0267587
0.0221168
0.0268205
0.0221655
0.00496946
0.00453271
0.00497157
0.00453129
0.00496833
0.00453252
0.00497037
0.0045311
0.00452647
0.00452647
0.00452493
0.00452493
0.00452629
0.00452629
0.00452475
0.00452475
0.00453264
0.00496768
0.00453122
0.00496979
0.00453244
0.00496656
0.00453103
0.00496866
0.0221504
0.0268039
0.0222026
0.0268714
0.0221142
0.0267627
0.0221648
0.0268255
0.0266728
0.022055
0.02674
0.0221062
0.026636
0.0220227
0.0267024
0.0220735
0.00496531
0.00453266
0.00496729
0.00453123
0.00496412
0.00453247
0.00496618
0.00453104
0.0045265
0.0045265
0.00452494
0.00452494
0.00452632
0.00452632
0.00452476
0.00452476
0.00453259
0.00496353
0.00453116
0.0049655
0.0045324
0.00496234
0.00453096
0.00496437
0.022052
0.0266749
0.0221026
0.026742
0.0220195
0.0266385
0.0220692
0.0267037
0.0265395
0.0219566
0.0266081
0.0220062
0.0265047
0.0219258
0.0265733
0.0219758
0.00496116
0.00453262
0.00496311
0.00453116
0.0049599
0.00453242
0.00496189
0.00453097
0.00452654
0.00452654
0.00452495
0.00452495
0.00452635
0.00452635
0.00452477
0.00452477
0.00453255
0.00495944
0.00453109
0.00496137
0.00453235
0.00495808
0.0045309
0.00496006
0.0219556
0.0265446
0.0220046
0.0266118
0.0219213
0.026505
0.0219707
0.0265738
0.0264119
0.0218653
0.0264786
0.0219127
0.0263739
0.0218321
0.0264428
0.021881
0.0049572
0.00453258
0.00495907
0.00453109
0.00495584
0.00453238
0.00495777
0.0045309
0.00452657
0.00452657
0.00452496
0.00452496
0.00452638
0.00452638
0.00452478
0.00452478
0.00453251
0.00495542
0.00453103
0.0049573
0.00453231
0.00495408
0.00453083
0.00495599
0.0218622
0.0264141
0.02191
0.026482
0.0218292
0.0263765
0.0218777
0.0264446
0.0262819
0.0217759
0.0263495
0.0218216
0.0262424
0.0217416
0.0263107
0.0217881
0.0049533
0.00453254
0.00495511
0.00453103
0.00495192
0.00453234
0.00495374
0.00453084
0.0045266
0.0045266
0.00452498
0.00452497
0.00452641
0.00452641
0.00452479
0.00452479
0.00453247
0.00495156
0.00453097
0.00495337
0.00453227
0.00495016
0.00453077
0.00495198
0.0217737
0.0262857
0.0218197
0.0263531
0.0217385
0.0262447
0.021785
0.0263133
0.0261551
0.0216917
0.0262221
0.0217361
0.0261123
0.0216557
0.0261799
0.0216998
0.00494961
0.00453251
0.00495135
0.00453098
0.00494822
0.00453231
0.00494993
0.00453078
0.00452664
0.00452663
0.00452499
0.00452499
0.00452644
0.00452644
0.0045248
0.0045248
0.00453244
0.00494784
0.00453091
0.00494958
0.00453224
0.00494645
0.00453071
0.00494818
0.0216885
0.0261575
0.0217331
0.026225
0.0216524
0.0261146
0.021697
0.0261827
0.0260243
0.0216081
0.0260935
0.021652
0.0259802
0.0215715
0.0260498
0.0216153
0.00494598
0.00453247
0.00494768
0.00453092
0.00494461
0.00453227
0.00494628
0.00453072
0.00452667
0.00452667
0.004525
0.004525
0.00452648
0.00452648
0.00452481
0.00452481
0.00453241
0.0049442
0.00453086
0.00494588
0.00453221
0.00494283
0.00453066
0.0049445
0.0216046
0.026026
0.0216481
0.026095
0.0215675
0.0259816
0.0216116
0.0260515
0.0258913
0.0215267
0.0259615
0.0215695
0.0258455
0.0214892
0.0259165
0.0215323
0.00494247
0.00453245
0.0049441
0.00453087
0.00494113
0.00453225
0.00494274
0.00453067
0.0045267
0.0045267
0.00452502
0.00452502
0.00452651
0.00452651
0.00452483
0.00452483
0.00453239
0.00494071
0.00453081
0.00494233
0.00453218
0.00493937
0.0045306
0.00494096
0.0215236
0.0258936
0.0215662
0.0259636
0.0214859
0.0258475
0.0215287
0.0259181
0.0257542
0.0214463
0.0258267
0.0214886
0.0257067
0.0214081
0.02578
0.0214506
0.00493904
0.00453243
0.00494062
0.00453083
0.00493772
0.00453222
0.00493929
0.00453063
0.00452674
0.00452674
0.00452503
0.00452503
0.00452654
0.00452654
0.00452484
0.00452484
0.00453236
0.00493728
0.00453076
0.00493886
0.00453216
0.00493597
0.00453056
0.00493753
0.0214432
0.0257564
0.0214855
0.025829
0.0214049
0.0257089
0.0214475
0.0257822
0.0256132
0.0213678
0.0256877
0.0214091
0.025564
0.0213288
0.0256394
0.0213705
0.00493571
0.00453241
0.00493723
0.00453079
0.00493441
0.0045322
0.00493592
0.00453058
0.00452678
0.00452678
0.00452505
0.00452505
0.00452658
0.00452658
0.00452486
0.00452486
0.00453234
0.00493395
0.00453072
0.00493547
0.00453214
0.00493266
0.00453052
0.00493417
0.0213647
0.0256155
0.0214059
0.0256899
0.0213256
0.0255662
0.0213674
0.0256416
0.0254689
0.0212918
0.0255451
0.0213319
0.0254175
0.0212517
0.0254948
0.0212923
0.0049325
0.0045324
0.00493396
0.00453075
0.00493122
0.00453221
0.00493267
0.00453054
0.00452682
0.00452682
0.00452508
0.00452508
0.00452662
0.00452662
0.00452488
0.00452488
0.00453233
0.00493075
0.00453069
0.0049322
0.00453214
0.00492948
0.00453048
0.00493092
0.0212887
0.0254711
0.0213288
0.0255474
0.0212486
0.0254197
0.0212892
0.025497
0.0253207
0.0212182
0.0253991
0.0212572
0.0252671
0.0211771
0.0253465
0.0212166
0.00492942
0.00453246
0.00493081
0.00453073
0.00492815
0.00453223
0.00492953
0.00453052
0.00452687
0.00452686
0.0045251
0.0045251
0.00452666
0.00452666
0.0045249
0.0045249
0.00453239
0.00492768
0.00453066
0.00492906
0.00453217
0.00492641
0.00453045
0.00492779
0.0212151
0.0253229
0.0212541
0.0254013
0.021174
0.0252693
0.0212135
0.0253488
0.0251682
0.021147
0.0252489
0.0211849
0.0251123
0.0211049
0.0251941
0.0211433
0.00492647
0.00453245
0.00492779
0.00453072
0.00492521
0.00453223
0.00492652
0.0045305
0.00452691
0.00452691
0.00452514
0.00452513
0.00452671
0.00452671
0.00452493
0.00452493
0.00453238
0.00492472
0.00453065
0.00492604
0.00453217
0.00492347
0.00453043
0.00492478
0.0211439
0.0251704
0.0211818
0.0252511
0.0211019
0.0251145
0.0211402
0.0251963
0.0250111
0.0210782
0.0250943
0.021115
0.0249528
0.0210351
0.0250372
0.0210724
0.00492363
0.00453244
0.00492488
0.0045307
0.00492238
0.00453222
0.00492363
0.00453048
0.00452696
0.00452696
0.00452517
0.00452517
0.00452675
0.00452675
0.00452497
0.00452496
0.00453238
0.00492189
0.00453063
0.00492314
0.00453216
0.00492065
0.00453042
0.00492189
0.0210751
0.0250133
0.0211119
0.0250965
0.0210321
0.024955
0.0210694
0.0250394
0.024849
0.0210118
0.0249348
0.0210475
0.0247883
0.0209677
0.0248753
0.0210039
0.00492091
0.00453245
0.0049221
0.00453069
0.00491967
0.00453223
0.00492085
0.00453047
0.00452702
0.00452702
0.00452521
0.00452521
0.0045268
0.0045268
0.004525
0.004525
0.00453239
0.00491918
0.00453063
0.00492036
0.00453216
0.00491794
0.0045304
0.00491912
0.0210087
0.0248512
0.0210444
0.024937
0.0209646
0.0247905
0.0210009
0.0248775
0.0246815
0.0209474
0.0247702
0.0209822
0.0246185
0.0209025
0.0247083
0.0209377
0.00491831
0.00453247
0.00491944
0.00453069
0.00491708
0.00453224
0.0049182
0.00453047
0.00452708
0.00452707
0.00452527
0.00452526
0.00452685
0.00452685
0.00452505
0.00452505
0.0045324
0.00491658
0.00453063
0.0049177
0.00453218
0.00491536
0.0045304
0.00491647
0.0209444
0.0246837
0.0209792
0.0247724
0.0208995
0.0246207
0.0209347
0.0247105
0.0245087
0.0208852
0.0246002
0.0209191
0.0244433
0.0208397
0.024536
0.0208738
0.00491583
0.00453249
0.00491689
0.00453071
0.00491461
0.00453226
0.00491566
0.00453048
0.00452715
0.00452715
0.00452532
0.00452532
0.00452692
0.00452692
0.0045251
0.0045251
0.00453243
0.00491411
0.00453064
0.00491516
0.00453219
0.0049129
0.00453041
0.00491394
0.0208823
0.0245108
0.0209161
0.0246024
0.0208367
0.0244455
0.0208708
0.0245381
0.0243304
0.0208253
0.0244248
0.0208582
0.0242629
0.0207791
0.0243583
0.0208122
0.00491347
0.00453253
0.00491446
0.00453073
0.00491226
0.00453228
0.00491325
0.0045305
0.00452722
0.00452722
0.0045254
0.00452539
0.00452699
0.00452699
0.00452517
0.00452517
0.00453246
0.00491175
0.00453067
0.00491274
0.00453222
0.00491055
0.00453043
0.00491153
0.0208224
0.0243326
0.0208552
0.0244269
0.0207762
0.024265
0.0208093
0.0243605
0.0241469
0.0207676
0.024244
0.0207995
0.0240774
0.0207209
0.0241754
0.020753
0.00491123
0.00453258
0.00491216
0.00453077
0.00491004
0.00453233
0.00491095
0.00453053
0.00452732
0.00452731
0.00452548
0.00452548
0.00452708
0.00452707
0.00452524
0.00452524
0.00453251
0.00490952
0.00453071
0.00491043
0.00453226
0.00490833
0.00453047
0.00490924
0.0207647
0.0241491
0.0207965
0.0242462
0.020718
0.0240795
0.0207501
0.0241776
0.0239586
0.0207122
0.0240582
0.020743
0.0238871
0.020665
0.0239876
0.020696
0.00490912
0.00453264
0.00490997
0.00453083
0.00490793
0.00453238
0.00490877
0.00453058
0.00452742
0.00452741
0.00452558
0.00452557
0.00452717
0.00452717
0.00452533
0.00452533
0.00453257
0.0049074
0.00453077
0.00490825
0.00453232
0.00490622
0.00453051
0.00490707
0.0207093
0.0239607
0.0207401
0.0240603
0.0206621
0.0238893
0.0206931
0.0239897
0.0237659
0.0206589
0.0238677
0.0206888
0.0236928
0.0206114
0.0237953
0.0206414
0.00490712
0.00453271
0.0049079
0.0045309
0.00490594
0.00453244
0.00490672
0.00453064
0.00452753
0.00452753
0.00452569
0.00452568
0.00452728
0.00452727
0.00452544
0.00452543
0.00453265
0.00490541
0.00453084
0.00490619
0.00453238
0.00490424
0.00453058
0.00490501
0.0206561
0.0237681
0.0206859
0.0238699
0.0206086
0.0236949
0.0206385
0.0237975
0.0235697
0.020608
0.0236733
0.0206368
0.023495
0.0205602
0.0235993
0.0205891
0.00490525
0.0045328
0.00490596
0.00453099
0.00490407
0.00453253
0.00490478
0.00453072
0.00452766
0.00452766
0.00452581
0.00452581
0.00452739
0.00452739
0.00452556
0.00452555
0.00453274
0.00490354
0.00453093
0.00490425
0.00453247
0.00490238
0.00453066
0.00490308
0.0206051
0.0235719
0.020634
0.0236754
0.0205574
0.0234971
0.0205863
0.0236014
0.0233708
0.0205593
0.0234757
0.0205871
0.0232948
0.0205113
0.0234003
0.0205392
0.00490349
0.00453291
0.00490414
0.0045311
0.00490233
0.00453263
0.00490297
0.00453082
0.0045278
0.0045278
0.00452596
0.00452596
0.00452753
0.00452752
0.00452569
0.00452569
0.00453285
0.00490179
0.00453104
0.00490243
0.00453257
0.00490063
0.00453076
0.00490127
0.0205565
0.0233729
0.0205843
0.0234779
0.0205086
0.0232969
0.0205364
0.0234024
0.0231703
0.0205129
0.023276
0.0205397
0.0230932
0.0204649
0.0231994
0.0204917
0.00490187
0.00453303
0.00490244
0.00453123
0.00490072
0.00453274
0.00490128
0.00453094
0.00452796
0.00452796
0.00452612
0.00452612
0.00452768
0.00452767
0.00452584
0.00452584
0.00453297
0.00490017
0.00453116
0.00490073
0.00453268
0.00489903
0.00453088
0.00489958
0.0205101
0.0231724
0.0205369
0.0232782
0.0204622
0.0230953
0.020489
0.0232015
0.0229694
0.0204688
0.0230753
0.0204946
0.0228916
0.0204209
0.0229977
0.0204467
0.00490045
0.00453318
0.00490086
0.00453137
0.0048993
0.00453287
0.0048997
0.00453108
0.00452813
0.00452813
0.00452629
0.00452629
0.00452783
0.00452783
0.00452601
0.00452601
0.00453312
0.00489876
0.00453131
0.00489916
0.00453281
0.00489762
0.00453101
0.00489801
0.0204661
0.0229716
0.0204919
0.0230774
0.0204182
0.0228937
0.020444
0.0229998
0.0227695
0.0204271
0.0228749
0.0204519
0.0226908
0.0203791
0.0227965
0.0204039
0.00489919
0.00453333
0.00489941
0.00453154
0.00489803
0.00453302
0.00489826
0.00453123
0.00452832
0.00452831
0.00452649
0.00452648
0.00452801
0.00452801
0.00452619
0.00452619
0.00453327
0.0048975
0.00453147
0.00489772
0.00453296
0.00489635
0.00453117
0.00489658
0.0204244
0.0227716
0.0204492
0.022877
0.0203764
0.0226928
0.0204012
0.0227986
0.0225719
0.0203877
0.022676
0.0204115
0.0224924
0.0203396
0.0225969
0.0203634
0.00489828
0.0045335
0.0048981
0.00453171
0.00489709
0.00453318
0.00489694
0.0045314
0.00452851
0.0045285
0.00452669
0.00452669
0.00452819
0.00452819
0.00452638
0.00452638
0.00453344
0.00489659
0.00453165
0.00489641
0.00453312
0.00489542
0.00453134
0.00489526
0.0203851
0.022574
0.0204088
0.0226781
0.020337
0.0224945
0.0203608
0.0225989
0.0223781
0.0203507
0.0224803
0.0203735