/*--------------------------------*- C++ -*----------------------------------*\
  =========                 |
  \\      /  F ield         | OpenFOAM: The Open Source CFD Toolbox
   \\    /   O peration     | Website:  https://openfoam.org
    \\  /    A nd           | Version:  9
     \\/     M anipulation  |
\*---------------------------------------------------------------------------*/
FoamFile
{
    format      ascii;
    class       volScalarField;
    location    "0.15";
    object      nut;
}
// * * * * * * * * * * * * * * * * * * * * * * * * * * * * * * * * * * * * * //

dimensions      [0 2 -1 0 0 0 0];

internalField   nonuniform List<scalar> 
36360
(
0.000336344
0.000306508
0.000295546
0.000274984
0.000184507
0.000167095
0.000183416
0.00016992
0.000171705
0.000164822
0.000169293
0.000164237
0.000163513
0.000163378
0.000167473
0.000167374
0.000164618
0.000164618
0.0001641
0.0001641
0.000163374
0.000163374
0.000167371
0.000167371
0.000164821
0.000171708
0.000164236
0.000169293
0.000163377
0.000163512
0.000167374
0.000167473
0.000306498
0.000336354
0.00027498
0.00029555
0.000167093
0.000184506
0.000169919
0.000183416
0.000340726
0.000310181
0.000340636
0.000310038
0.000184489
0.000166769
0.000184555
0.000166802
0.000171955
0.000164871
0.000171957
0.000164872
0.000163088
0.000162954
0.000163117
0.000162981
0.000164659
0.000164659
0.000164661
0.000164661
0.000162951
0.000162951
0.000162977
0.000162977
0.00016487
0.000171958
0.000164872
0.000171961
0.000162954
0.000163087
0.000162981
0.000163116
0.000310171
0.000340736
0.000310027
0.000340647
0.000166768
0.000184488
0.0001668
0.000184554
0.000340261
0.000309796
0.000340579
0.000310087
0.000184371
0.000166741
0.000184425
0.000166756
0.000171903
0.000164808
0.000171932
0.00016487
0.00016308
0.000162951
0.000163083
0.000162951
0.000164639
0.000164639
0.00016466
0.00016466
0.000162949
0.000162949
0.000162947
0.000162947
0.000164807
0.000171907
0.000164869
0.000171936
0.000162951
0.00016308
0.000162951
0.000163082
0.000309794
0.00034028
0.00031008
0.000340593
0.000166739
0.000184368
0.000166755
0.000184423
0.000339517
0.000309206
0.000339892
0.000309502
0.000184287
0.000166708
0.000184328
0.000166724
0.00017185
0.000164807
0.000171878
0.000164859
0.000163073
0.000162944
0.000163076
0.000162946
0.000164638
0.000164638
0.000164656
0.000164656
0.000162942
0.000162942
0.000162944
0.000162944
0.000164806
0.000171854
0.000164859
0.000171882
0.000162944
0.000163073
0.000162946
0.000163076
0.000309206
0.00033954
0.000309502
0.000339915
0.000166706
0.000184284
0.000166723
0.000184325
0.000338789
0.000308626
0.000339172
0.000308931
0.000184205
0.000166672
0.000184246
0.00016669
0.000171798
0.000164801
0.000171826
0.000164857
0.000163065
0.000162937
0.000163068
0.00016294
0.000164638
0.000164638
0.000164656
0.000164656
0.000162935
0.000162935
0.000162937
0.000162937
0.000164801
0.000171801
0.000164856
0.00017183
0.000162937
0.000163064
0.00016294
0.000163068
0.000308628
0.000338813
0.000308931
0.000339195
0.000166671
0.000184202
0.000166689
0.000184244
0.000338038
0.000308045
0.000338422
0.000308339
0.000184124
0.000166635
0.000184164
0.000166653
0.000171745
0.0001648
0.000171773
0.000164854
0.000163055
0.000162928
0.000163059
0.000162932
0.000164638
0.000164638
0.000164656
0.000164656
0.000162926
0.000162926
0.000162929
0.000162929
0.000164799
0.000171749
0.000164854
0.000171777
0.000162928
0.000163054
0.000162932
0.000163059
0.000308052
0.000338068
0.000308344
0.000338449
0.000166634
0.000184123
0.000166652
0.000184162
0.000337297
0.000307487
0.000337682
0.000307775
0.000184045
0.000166596
0.000184086
0.000166615
0.000171694
0.000164796
0.000171721
0.000164852
0.000163043
0.000162917
0.000163048
0.000162922
0.000164638
0.000164638
0.000164656
0.000164656
0.000162915
0.000162915
0.00016292
0.00016292
0.000164795
0.000171698
0.000164851
0.000171726
0.000162917
0.000163042
0.000162922
0.000163048
0.000307495
0.000337329
0.000307782
0.000337712
0.000166595
0.000184045
0.000166614
0.000184084
0.000336563
0.000306952
0.00033694
0.000307225
0.000183968
0.000166555
0.000184007
0.000166575
0.000171645
0.000164793
0.000171671
0.00016485
0.000163029
0.000162904
0.000163035
0.00016291
0.000164638
0.000164638
0.000164656
0.000164656
0.000162902
0.000162902
0.000162908
0.000162908
0.000164793
0.000171649
0.000164849
0.000171675
0.000162904
0.000163028
0.00016291
0.000163035
0.000306954
0.000336588
0.00030723
0.00033697
0.000166554
0.000183968
0.000166574
0.000184006
0.000335826
0.000306433
0.000336206
0.000306698
0.000183892
0.000166513
0.000183931
0.000166534
0.000171597
0.00016479
0.000171623
0.000164848
0.000163012
0.000162889
0.00016302
0.000162896
0.000164637
0.000164637
0.000164656
0.000164656
0.000162886
0.000162886
0.000162893
0.000162893
0.000164789
0.000171601
0.000164847
0.000171627
0.000162889
0.000163012
0.000162896
0.000163019
0.000306432
0.000335848
0.000306699
0.00033623
0.000166512
0.000183892
0.000166533
0.00018393
0.000335089
0.000305933
0.000335469
0.000306189
0.000183817
0.00016647
0.000183855
0.000166491
0.000171552
0.000164788
0.000171576
0.000164846
0.000162993
0.00016287
0.000163002
0.000162879
0.000164637
0.000164637
0.000164656
0.000164656
0.000162868
0.000162868
0.000162876
0.000162876
0.000164787
0.000171555
0.000164845
0.00017158
0.00016287
0.000162992
0.000162879
0.000163001
0.000305927
0.000335105
0.000306186
0.000335489
0.000166468
0.000183817
0.00016649
0.000183855
0.000334337
0.000305439
0.00033473
0.000305697
0.000183742
0.000166423
0.00018378
0.000166446
0.000171507
0.000164785
0.000171531
0.000164844
0.000162971
0.000162849
0.000162981
0.000162859
0.000164636
0.000164636
0.000164656
0.000164656
0.000162847
0.000162847
0.000162856
0.000162856
0.000164784
0.00017151
0.000164843
0.000171535
0.000162849
0.00016297
0.000162859
0.00016298
0.000305429
0.000334349
0.000305688
0.000334744
0.000166422
0.000183741
0.000166445
0.00018378
0.000333555
0.000304943
0.000333962
0.0003052
0.000183666
0.000166374
0.000183704
0.000166399
0.000171463
0.000164829
0.000171487
0.000164842
0.000162945
0.000162825
0.000162957
0.000162836
0.000164636
0.000164636
0.000164656
0.000164656
0.000162822
0.000162822
0.000162834
0.000162834
0.000164828
0.000171466
0.000164841
0.00017149
0.000162825
0.000162944
0.000162836
0.000162956
0.000304933
0.000333566
0.00030519
0.000333973
0.000166373
0.000183665
0.000166397
0.000183704
0.000332751
0.000304456
0.00033317
0.000304709
0.000183589
0.000166322
0.000183628
0.000166348
0.00017142
0.000164828
0.000171443
0.000164847
0.000162915
0.000162796
0.000162929
0.00016281
0.000164635
0.000164635
0.000164656
0.000164656
0.000162794
0.000162794
0.000162807
0.000162807
0.000164827
0.000171423
0.000164846
0.000171446
0.000162796
0.000162915
0.00016281
0.000162929
0.000304446
0.000332762
0.000304698
0.00033318
0.000166321
0.000183589
0.000166347
0.000183628
0.000331927
0.000303979
0.000332356
0.000304227
0.000183513
0.000166267
0.000183552
0.000166295
0.000171378
0.000164826
0.000171401
0.000164845
0.000162882
0.000162764
0.000162898
0.000162779
0.000164634
0.000164634
0.000164656
0.000164656
0.000162761
0.000162761
0.000162777
0.000162777
0.000164826
0.000171381
0.000164845
0.000171404
0.000162764
0.000162882
0.000162779
0.000162897
0.000303969
0.000331937
0.000304217
0.000332367
0.000166266
0.000183512
0.000166293
0.000183551
0.000331078
0.000303512
0.000331521
0.000303755
0.000183436
0.000166209
0.000183475
0.000166238
0.000171338
0.000164825
0.00017136
0.000164844
0.000162844
0.000162727
0.000162862
0.000162745
0.000164634
0.000164634
0.000164656
0.000164656
0.000162725
0.000162725
0.000162742
0.000162742
0.000164824
0.000171341
0.000164843
0.000171363
0.000162727
0.000162844
0.000162745
0.000162862
0.000303502
0.000331089
0.000303745
0.000331531
0.000166207
0.000183436
0.000166236
0.000183475
0.000330204
0.000303054
0.00033066
0.000303293
0.000183359
0.000166146
0.000183398
0.000166177
0.000171298
0.000164823
0.00017132
0.000164843
0.000162802
0.000162685
0.000162822
0.000162705
0.000164633
0.000164633
0.000164657
0.000164657
0.000162683
0.000162683
0.000162703
0.000162703
0.000164823
0.000171301
0.000164842
0.000171323
0.000162685
0.000162801
0.000162705
0.000162822
0.000303043
0.000330214
0.000303283
0.00033067
0.000166144
0.000183359
0.000166175
0.000183398
0.0003293
0.000302605
0.000329771
0.00030284
0.000183282
0.000166079
0.000183321
0.000166112
0.00017126
0.000164822
0.000171281
0.000164842
0.000162754
0.000162639
0.000162777
0.000162661
0.000164632
0.000164632
0.000164657
0.000164657
0.000162636
0.000162636
0.000162659
0.000162659
0.000164822
0.000171263
0.000164841
0.000171284
0.000162638
0.000162753
0.000162661
0.000162776
0.000302594
0.00032931
0.00030283
0.000329782
0.000166077
0.000183281
0.000166111
0.000183321
0.000328365
0.000302164
0.000328853
0.000302395
0.000183204
0.000166007
0.000183243
0.000166043
0.000171223
0.00016482
0.000171244
0.000164841
0.0001627
0.000162586
0.000162726
0.000162611
0.000164631
0.000164631
0.000164657
0.000164657
0.000162583
0.000162583
0.000162609
0.000162609
0.00016482
0.000171226
0.00016484
0.000171247
0.000162586
0.0001627
0.000162611
0.000162726
0.000302154
0.000328376
0.000302385
0.000328863
0.000166006
0.000183203
0.000166041
0.000183243
0.000327398
0.000301731
0.000327903
0.000301959
0.000183125
0.00016593
0.000183165
0.000165969
0.000171188
0.000164819
0.000171208
0.00016484
0.000162641
0.000162527
0.00016267
0.000162556
0.00016463
0.00016463
0.000164658
0.000164658
0.000162525
0.000162525
0.000162553
0.000162553
0.000164818
0.00017119
0.000164839
0.000171211
0.000162527
0.00016264
0.000162556
0.000162669
0.000301721
0.000327409
0.000301949
0.000327913
0.000165929
0.000183124
0.000165967
0.000183164
0.000326398
0.000301307
0.00032692
0.000301531
0.000183046
0.000165848
0.000183086
0.000165889
0.000171153
0.000164817
0.000171173
0.000164839
0.000162575
0.000162463
0.000162607
0.000162494
0.00016463
0.000164629
0.000164658
0.000164658
0.00016246
0.00016246
0.000162492
0.000162492
0.000164816
0.000171156
0.000164838
0.000171175
0.000162462
0.000162574
0.000162494
0.000162606
0.000301297
0.000326408
0.000301521
0.00032693
0.000165846
0.000183045
0.000165887
0.000183086
0.000325364
0.000300891
0.000325903
0.000301112
0.000182966
0.00016576
0.000183006
0.000165804
0.00017112
0.000164815
0.000171139
0.000164838
0.000162503
0.000162391
0.000162538
0.000162426
0.000164629
0.000164629
0.000164659
0.000164659
0.000162388
0.000162388
0.000162423
0.000162423
0.000164815
0.000171122
0.000164838
0.000171142
0.000162391
0.000162502
0.000162426
0.000162537
0.000300881
0.000325375
0.000301102
0.000325913
0.000165758
0.000182965
0.000165802
0.000183006
0.000324299
0.000300484
0.000324854
0.0003007
0.000182885
0.000165666
0.000182926
0.000165712
0.000171087
0.000164813
0.000171106
0.000164838
0.000162423
0.000162312
0.000162462
0.000162351
0.000164629
0.000164629
0.000164659
0.000164659
0.00016231
0.00016231
0.000162348
0.000162348
0.000164813
0.00017109
0.000164837
0.000171109
0.000162312
0.000162423
0.00016235
0.000162461
0.000300473
0.000324309
0.00030069
0.000324864
0.000165664
0.000182884
0.000165711
0.000182926
0.000323203
0.000300084
0.000323773
0.000300297
0.000182804
0.000165565
0.000182845
0.000165615
0.000171056
0.000164812
0.000171075
0.000164837
0.000162337
0.000162226
0.000162379
0.000162268
0.000164629
0.000164629
0.00016466
0.00016466
0.000162224
0.000162224
0.000162266
0.000162266
0.000164811
0.000171059
0.000164836
0.000171077
0.000162226
0.000162336
0.000162268
0.000162378
0.000300074
0.000323213
0.000300287
0.000323783
0.000165563
0.000182803
0.000165613
0.000182845
0.000322079
0.000299694
0.000322664
0.000299903
0.000182723
0.000165458
0.000182764
0.000165511
0.000171026
0.000164811
0.000171044
0.000164837
0.000162243
0.000162133
0.000162289
0.000162179
0.000164629
0.000164629
0.000164661
0.000164661
0.000162131
0.000162131
0.000162176
0.000162176
0.00016481
0.000171029
0.000164836
0.000171047
0.000162133
0.000162242
0.000162179
0.000162288
0.000299684
0.000322089
0.000299893
0.000322674
0.000165456
0.000182722
0.000165509
0.000182764
0.000320932
0.000299314
0.000321529
0.000299519
0.000182641
0.000165344
0.000182683
0.000165401
0.000170997
0.00016481
0.000171015
0.000164837
0.000162141
0.000162032
0.000162191
0.000162082
0.000164631
0.000164631
0.000164663
0.000164663
0.00016203
0.00016203
0.000162079
0.000162079
0.00016481
0.000171
0.000164836
0.000171018
0.000162032
0.000162141
0.000162082
0.00016219
0.000299304
0.000320942
0.000299509
0.000321539
0.000165343
0.00018264
0.000165399
0.000182682
0.000319768
0.000298944
0.000320373
0.000299144
0.000182559
0.000165224
0.000182601
0.000165284
0.00017097
0.00016481
0.000170987
0.000164837
0.000162032
0.000161924
0.000162085
0.000161977
0.000164634
0.000164634
0.000164664
0.000164664
0.000161922
0.000161922
0.000161975
0.000161975
0.000164809
0.000170972
0.000164836
0.000170989
0.000161924
0.000162032
0.000161977
0.000162085
0.000298934
0.000319778
0.000299134
0.000320383
0.000165222
0.000182559
0.000165282
0.0001826
0.000318591
0.000298585
0.000319202
0.00029878
0.000182478
0.000165097
0.00018252
0.00016516
0.000170943
0.00016481
0.00017096
0.000164837
0.000161916
0.000161808
0.000161973
0.000161865
0.000164637
0.000164637
0.000164666
0.000164666
0.000161806
0.000161806
0.000161863
0.000161863
0.000164809
0.000170946
0.000164836
0.000170962
0.000161808
0.000161915
0.000161865
0.000161972
0.000298575
0.000318601
0.00029877
0.000319211
0.000165096
0.000182478
0.000165159
0.000182519
0.000317409
0.000298238
0.000318022
0.000298427
0.000182398
0.000164964
0.000182439
0.00016503
0.000170917
0.000164811
0.000170934
0.000164837
0.000161792
0.000161685
0.000161853
0.000161745
0.000164641
0.000164641
0.000164668
0.000164668
0.000161683
0.000161683
0.000161743
0.000161743
0.000164811
0.00017092
0.000164837
0.000170937
0.000161685
0.000161792
0.000161745
0.000161852
0.000298228
0.000317419
0.000298417
0.000318032
0.000164963
0.000182397
0.000165029
0.000182438
0.000316229
0.000297902
0.000316841
0.000298086
0.000182319
0.000164825
0.000182359
0.000164894
0.000170891
0.000164813
0.00017091
0.000164838
0.000161662
0.000161555
0.000161725
0.000161618
0.000164645
0.000164645
0.00016467
0.00016467
0.000161553
0.000161553
0.000161616
0.000161616
0.000164813
0.000170893
0.000164838
0.000170912
0.000161555
0.000161661
0.000161618
0.000161725
0.000297892
0.000316239
0.000298076
0.000316851
0.000164823
0.000182318
0.000164892
0.000182359
0.00031506
0.00029758
0.000315666
0.000297757
0.000182241
0.00016468
0.000182281
0.000164752
0.000170865
0.000164815
0.000170885
0.000164839
0.000161524
0.000161418
0.000161591
0.000161485
0.000164648
0.000164648
0.000164672
0.000164672
0.000161416
0.000161416
0.000161482
0.000161482
0.000164815
0.000170867
0.000164838
0.000170888
0.000161418
0.000161524
0.000161485
0.000161591
0.00029757
0.000315069
0.000297748
0.000315675
0.000164678
0.00018224
0.00016475
0.00018228
0.00031391
0.000297272
0.000314506
0.000297443
0.000182165
0.000164529
0.000182204
0.000164604
0.000170839
0.000164817
0.000170862
0.00016484
0.00016138
0.000161275
0.00016145
0.000161344
0.00016465
0.00016465
0.000164673
0.000164673
0.000161273
0.000161273
0.000161342
0.000161342
0.000164816
0.000170842
0.000164839
0.000170865
0.000161275
0.00016138
0.000161344
0.00016145
0.000297262
0.00031392
0.000297433
0.000314515
0.000164528
0.000182165
0.000164602
0.000182203
0.000312789
0.000296979
0.00031337
0.000297143
0.000182092
0.000164374
0.000182129
0.00016445
0.000170815
0.000164818
0.00017084
0.00016484
0.000161231
0.000161126
0.000161303
0.000161198
0.000164653
0.000164653
0.000164675
0.000164675
0.000161123
0.000161123
0.000161196
0.000161196
0.000164817
0.000170818
0.000164839
0.000170843
0.000161125
0.00016123
0.000161198
0.000161303
0.000296969
0.000312799
0.000297133
0.00031338
0.000164372
0.000182091
0.000164449
0.000182129
0.000311706
0.000296702
0.000312268
0.000296858
0.000182021
0.000164214
0.000182057
0.000164293
0.000170782
0.000164819
0.000170819
0.00016484
0.000161076
0.000160971
0.000161151
0.000161046
0.000164655
0.000164655
0.000164676
0.000164676
0.000160969
0.000160969
0.000161043
0.000161043
0.000164818
0.000170784
0.00016484
0.000170822
0.000160971
0.000161075
0.000161046
0.00016115
0.000296692
0.000311715
0.000296849
0.000312277
0.000164212
0.000182021
0.000164291
0.000182057
0.000310668
0.000296442
0.000311207
0.000296591
0.000181954
0.00016405
0.000181988
0.000164131
0.000170761
0.00016482
0.000170798
0.00016484
0.000160916
0.000160811
0.000160993
0.000160888
0.000164656
0.000164656
0.000164676
0.000164676
0.000160809
0.000160809
0.000160886
0.000160886
0.000164819
0.000170763
0.000164839
0.000170801
0.000160811
0.000160915
0.000160888
0.000160993
0.000296432
0.000310677
0.000296581
0.000311216
0.000164049
0.000181953
0.000164129
0.000181988
0.000309684
0.000296199
0.000310196
0.00029634
0.00018189
0.000163883
0.000181923
0.000163965
0.000170743
0.00016482
0.00017078
0.00016484
0.000160752
0.000160648
0.000160831
0.000160727
0.000164657
0.000164658
0.000164677
0.000164677
0.000160646
0.000160646
0.000160724
0.000160724
0.00016482
0.000170745
0.000164839
0.000170782
0.000160648
0.000160752
0.000160727
0.000160831
0.00029619
0.000309693
0.00029633
0.000310205
0.000163882
0.00018189
0.000163963
0.000181922
0.000308761
0.000295975
0.000309242
0.000296107
0.000181831
0.000163714
0.000181861
0.000163797
0.000170726
0.000164821
0.000170762
0.000164839
0.000160585
0.000160481
0.000160665
0.000160561
0.000164658
0.000164658
0.000164676
0.000164676
0.000160479
0.000160479
0.000160559
0.000160559
0.00016482
0.000170729
0.000164838
0.000170765
0.000160481
0.000160584
0.000160561
0.000160665
0.000295965
0.00030877
0.000296097
0.000309251
0.000163712
0.00018183
0.000163795
0.00018186
0.000307905
0.000295769
0.000308353
0.000295893
0.000181775
0.000163543
0.000181803
0.000163626
0.000170711
0.00016482
0.000170746
0.000164838
0.000160415
0.000160311
0.000160496
0.000160393
0.000164659
0.000164659
0.000164676
0.000164676
0.000160309
0.000160309
0.00016039
0.00016039
0.00016482
0.000170714
0.000164837
0.000170749
0.000160311
0.000160414
0.000160393
0.000160496
0.000295759
0.000307914
0.000295883
0.000308362
0.000163541
0.000181774
0.000163625
0.000181803
0.000307131
0.000295581
0.000307533
0.000295697
0.000181724
0.00016337
0.00018175
0.000163454
0.000170698
0.00016482
0.000170731
0.000164836
0.000160243
0.000160139
0.000160325
0.000160222
0.000164659
0.000164659
0.000164674
0.000164674
0.000160137
0.000160137
0.000160219
0.000160219
0.000164819
0.0001707
0.000164835
0.000170734
0.000160139
0.000160243
0.000160222
0.000160325
0.000295571
0.00030714
0.000295687
0.000307542
0.000163368
0.000181723
0.000163452
0.000181749
0.000306829
0.000294839
0.000306803
0.000295489
0.000181664
0.000163188
0.000181702
0.000163282
0.00017068
0.000164823
0.000170717
0.000164834
0.000160068
0.000159965
0.000160153
0.000160049
0.000164663
0.000164663
0.000164673
0.000164673
0.000159963
0.000159963
0.000160047
0.000160047
0.000164823
0.000170682
0.000164833
0.00017072
0.000159965
0.000160068
0.000160049
0.000160152
0.000294829
0.000306838
0.00029548
0.000306812
0.000163187
0.000181663
0.00016328
0.000181701
0.000342387
0.000312078
0.000299944
0.000278527
0.000342203
0.000311871
0.00030013
0.000278063
0.000171817
0.000164607
0.000169303
0.000164043
0.000171812
0.000164613
0.000169288
0.000164046
0.000164395
0.000164395
0.000163901
0.000163901
0.000164401
0.000164401
0.000163904
0.000163904
0.000164606
0.000171819
0.000164042
0.000169303
0.000164612
0.000171814
0.000164045
0.000169288
0.000312067
0.000342399
0.000278522
0.000299949
0.00031186
0.000342214
0.000278059
0.000300135
0.00034701
0.000315765
0.00034691
0.000315667
0.0003468
0.000315509
0.000346779
0.000315536
0.000172074
0.000164655
0.000172079
0.000164657
0.000172066
0.000164661
0.000172075
0.000164663
0.000164435
0.000164435
0.000164437
0.000164437
0.000164442
0.000164442
0.000164443
0.000164443
0.000164654
0.000172077
0.000164656
0.000172081
0.00016466
0.000172069
0.000164662
0.000172078
0.000315753
0.000347023
0.000315655
0.000346923
0.0003155
0.000346815
0.000315524
0.000346792
0.000346481
0.000315291
0.000346835
0.000315617
0.000346033
0.000314907
0.000346346
0.000315124
0.000172016
0.000164591
0.000172048
0.000164654
0.000172007
0.000164597
0.000172036
0.00016466
0.000164414
0.000164414
0.000164436
0.000164436
0.00016442
0.00016442
0.000164442
0.000164442
0.00016459
0.000172019
0.000164653
0.000172051
0.000164596
0.00017201
0.000164659
0.000172039
0.000315278
0.000346493
0.000315605
0.000346848
0.000314894
0.000346042
0.000315112
0.00034636
0.000345699
0.000314654
0.0003461
0.000314978
0.000345373
0.000314358
0.000345745
0.000314664
0.000171957
0.000164588
0.000171988
0.000164643
0.000171949
0.000164594
0.000171979
0.000164649
0.000164413
0.000164413
0.000164431
0.000164431
0.000164419
0.000164419
0.000164437
0.000164437
0.000164587
0.00017196
0.000164642
0.000171991
0.000164593
0.000171952
0.000164648
0.000171983
0.000314644
0.000345715
0.000314969
0.000346116
0.00031435
0.000345395
0.000314666
0.000345772
0.00034493
0.000314037
0.000345329
0.000314356
0.000344632
0.000313765
0.000345027
0.000314082
0.000171901
0.000164583
0.000171931
0.00016464
0.000171892
0.000164589
0.000171923
0.000164646
0.000164412
0.000164412
0.000164431
0.000164431
0.000164419
0.000164419
0.000164437
0.000164437
0.000164583
0.000171903
0.000164639
0.000171934
0.000164589
0.000171895
0.000164645
0.000171925
0.000314026
0.000344941
0.000314343
0.00034534
0.000313753
0.000344646
0.000314064
0.000345035
0.000344134
0.000313418
0.00034454
0.000313729
0.000343847
0.000313155
0.000344253
0.000313468
0.000171845
0.000164581
0.000171874
0.000164637
0.000171836
0.000164587
0.000171866
0.000164643
0.000164412
0.000164412
0.000164431
0.000164431
0.000164418
0.000164419
0.000164437
0.000164437
0.00016458
0.000171848
0.000164636
0.000171877
0.000164586
0.000171839
0.000164642
0.000171868
0.000313418
0.000344161
0.000313726
0.00034456
0.000313136
0.000343851
0.000313446
0.000344257
0.00034337
0.00031284
0.000343765
0.000313138
0.000343067
0.000312564
0.000343473
0.00031287
0.000171791
0.000164576
0.00017182
0.000164634
0.000171782
0.000164582
0.000171811
0.00016464
0.000164412
0.000164412
0.00016443
0.00016443
0.000164418
0.000164418
0.000164437
0.000164437
0.000164576
0.000171794
0.000164634
0.000171823
0.000164582
0.000171785
0.00016464
0.000171814
0.000312828
0.000343382
0.000313128
0.000343783
0.000312554
0.000343081
0.000312858
0.000343484
0.000342595
0.000312272
0.000342994
0.00031256
0.000342284
0.000311991
0.000342687
0.000312283
0.000171738
0.000164574
0.000171767
0.000164632
0.000171729
0.00016458
0.000171757
0.000164638
0.000164411
0.000164411
0.00016443
0.00016443
0.000164418
0.000164418
0.000164437
0.000164437
0.000164573
0.000171741
0.000164631
0.00017177
0.000164579
0.000171732
0.000164637
0.00017176
0.000312265
0.000342615
0.000312555
0.000343013
0.00031198
0.000342298
0.000312273
0.000342701
0.000341838
0.000311734
0.000342233
0.000312014
0.000341511
0.000311444
0.000341909
0.000311723
0.000171688
0.00016457
0.000171716
0.000164629
0.000171679
0.000164576
0.000171706
0.000164635
0.000164411
0.000164411
0.00016443
0.00016443
0.000164418
0.000164418
0.000164437
0.000164437
0.000164569
0.000171691
0.000164628
0.000171718
0.000164576
0.000171682
0.000164635
0.000171709
0.000311722
0.00034185
0.000312003
0.000342248
0.000311431
0.000341524
0.000311713
0.000341924
0.000341061
0.0003112
0.000341467
0.000311478
0.000340728
0.000310906
0.000341135
0.000311184
0.000171639
0.000164567
0.000171666
0.000164627
0.00017163
0.000164574
0.000171657
0.000164633
0.000164411
0.000164411
0.00016443
0.00016443
0.000164418
0.000164418
0.000164437
0.000164437
0.000164566
0.000171642
0.000164626
0.000171668
0.000164573
0.000171633
0.000164632
0.000171659
0.000311186
0.00034107
0.000311462
0.000341475
0.000310891
0.000340735
0.000311169
0.000341145
0.000340272
0.000310678
0.000340684
0.000310949
0.000339931
0.00031038
0.000340346
0.000310653
0.000171592
0.000164564
0.000171618
0.000164624
0.000171583
0.00016457
0.000171609
0.000164631
0.00016441
0.00016441
0.00016443
0.00016443
0.000164417
0.000164417
0.000164436
0.000164436
0.000164563
0.000171594
0.000164623
0.00017162
0.00016457
0.000171585
0.00016463
0.000171611
0.000310666
0.000340285
0.000310937
0.000340695
0.000310367
0.000339942
0.000310639
0.000340355
0.000339463
0.000310162
0.000339886
0.00031043
0.000339112
0.000309859
0.00033954
0.00031013
0.000171545
0.000164561
0.000171571
0.000164622
0.000171537
0.000164568
0.000171562
0.000164628
0.00016441
0.00016441
0.000164429
0.000164429
0.000164417
0.000164417
0.000164436
0.000164436
0.00016456
0.000171547
0.000164621
0.000171573
0.000164567
0.000171539
0.000164628
0.000171564
0.00031015
0.000339475
0.000310419
0.000339898
0.000309847
0.000339124
0.000310118
0.000339551
0.000338632
0.000309655
0.000339066
0.000309919
0.000338273
0.000309348
0.000338711
0.000309614
0.0001715
0.000164558
0.000171525
0.00016462
0.000171491
0.000164565
0.000171516
0.000164626
0.00016441
0.00016441
0.000164429
0.000164429
0.000164417
0.000164417
0.000164437
0.000164436
0.000164558
0.000171502
0.000164619
0.000171527
0.000164565
0.000171494
0.000164626
0.000171519
0.000309644
0.000338644
0.000309907
0.000339078
0.000309337
0.000338285
0.000309602
0.000338723
0.000337784
0.000309163
0.000338227
0.000309419
0.000337413
0.00030885
0.000337861
0.000309109
0.000171456
0.000164555
0.00017148
0.000164617
0.000171448
0.00016459
0.000171472
0.000164624
0.00016441
0.00016441
0.000164429
0.000164429
0.000164417
0.000164417
0.000164437
0.000164437
0.000164555
0.000171458
0.000164617
0.000171482
0.00016459
0.00017145
0.000164624
0.000171474
0.000309151
0.000337796
0.000309408
0.000338239
0.000308838
0.000337425
0.000309098
0.000337873
0.000336914
0.000308684
0.000337369
0.000308934
0.000336531
0.000308365
0.000336992
0.000308618
0.000171414
0.000164602
0.000171437
0.000164616
0.000171406
0.000164609
0.000171429
0.000164625
0.00016441
0.00016441
0.000164429
0.000164429
0.000164417
0.000164417
0.000164437
0.000164437
0.000164601
0.000171416
0.000164615
0.000171439
0.000164609
0.000171408
0.000164625
0.000171431
0.000308672
0.000336926
0.000308922
0.000337381
0.000308353
0.000336543
0.000308606
0.000337004
0.000336022
0.000308218
0.000336489
0.000308462
0.000335626
0.000307893
0.000336099
0.00030814
0.000171373
0.000164601
0.000171396
0.000164621
0.000171365
0.000164608
0.000171388
0.000164628
0.000164409
0.000164409
0.000164429
0.000164429
0.000164417
0.000164417
0.000164437
0.000164437
0.0001646
0.000171375
0.00016462
0.000171398
0.000164607
0.000171368
0.000164627
0.00017139
0.000308207
0.000336034
0.000308451
0.000336501
0.000307881
0.000335638
0.000308128
0.000336111
0.000335104
0.000307766
0.000335584
0.000308004
0.000334695
0.000307434
0.000335182
0.000307675
0.000171334
0.0001646
0.000171356
0.000164619
0.000171326
0.000164607
0.000171348
0.000164627
0.000164409
0.000164409
0.000164429
0.000164429
0.000164417
0.000164417
0.000164437
0.000164437
0.000164599
0.000171336
0.000164619
0.000171358
0.000164606
0.000171329
0.000164626
0.00017135
0.000307754
0.000335115
0.000307992
0.000335596
0.000307423
0.000334707
0.000307664
0.000335194
0.000334156
0.000307327
0.000334652
0.000307559
0.000333735
0.000306988
0.000334237
0.000307223
0.000171296
0.000164598
0.000171317
0.000164618
0.000171289
0.000164606
0.00017131
0.000164626
0.000164408
0.000164408
0.000164429
0.000164429
0.000164416
0.000164416
0.000164437
0.000164437
0.000164598
0.000171298
0.000164618
0.000171319
0.000164605
0.000171291
0.000164625
0.000171312
0.000307315
0.000334168
0.000307547
0.000334664
0.000306977
0.000333747
0.000307212
0.000334249
0.000333179
0.000306899
0.00033369
0.000307125
0.000332745
0.000306555
0.000333263
0.000306784
0.00017126
0.000164597
0.00017128
0.000164617
0.000171252
0.000164605
0.000171273
0.000164625
0.000164407
0.000164407
0.000164429
0.000164429
0.000164416
0.000164416
0.000164438
0.000164438
0.000164596
0.000171262
0.000164616
0.000171282
0.000164604
0.000171255
0.000164624
0.000171275
0.000306887
0.00033319
0.000307114
0.000333702
0.000306543
0.000332757
0.000306773
0.000333275
0.000332172
0.000306483
0.000332699
0.000306704
0.000331725
0.000306134
0.000332258
0.000306358
0.000171225
0.000164596
0.000171245
0.000164616
0.000171218
0.000164603
0.000171238
0.000164624
0.000164406
0.000164406
0.000164429
0.000164429
0.000164415
0.000164415
0.000164438
0.000164438
0.000164595
0.000171227
0.000164615
0.000171247
0.000164603
0.00017122
0.000164623
0.00017124
0.000306472
0.000332184
0.000306693
0.00033271
0.000306123
0.000331736
0.000306346
0.00033227
0.000331134
0.00030608
0.000331678
0.000306295
0.000330673
0.000305726
0.000331223
0.000305944
0.000171192
0.000164594
0.000171211
0.000164615
0.000171185
0.000164603
0.000171204
0.000164624
0.000164406
0.000164406
0.000164429
0.000164429
0.000164415
0.000164415
0.000164439
0.000164439
0.000164593
0.000171194
0.000164614
0.000171213
0.000164602
0.000171187
0.000164623
0.000171206
0.000306068
0.000331146
0.000306284
0.000331689
0.000305715
0.000330684
0.000305933
0.000331234
0.000330064
0.000305689
0.000330623
0.000305899
0.000329591
0.000305331
0.000330156
0.000305543
0.00017116
0.000164592
0.000171178
0.000164614
0.000171153
0.000164601
0.000171172
0.000164623
0.000164405
0.000164405
0.00016443
0.00016443
0.000164415
0.000164415
0.00016444
0.000164439
0.000164591
0.000171162
0.000164614
0.00017118
0.000164601
0.000171155
0.000164623
0.000171174
0.000305677
0.000330075
0.000305887
0.000330635
0.000305319
0.000329602
0.000305531
0.000330168
0.000328965
0.00030531
0.000329539
0.000305515
0.00032848
0.000304948
0.00032906
0.000305154
0.00017113
0.000164591
0.000171147
0.000164613
0.000171123
0.000164601
0.000171141
0.000164623
0.000164405
0.000164405
0.00016443
0.00016443
0.000164415
0.000164415
0.000164441
0.000164441
0.00016459
0.000171132
0.000164613
0.00017115