/*--------------------------------*- C++ -*----------------------------------*\
  =========                 |
  \\      /  F ield         | OpenFOAM: The Open Source CFD Toolbox
   \\    /   O peration     | Website:  https://openfoam.org
    \\  /    A nd           | Version:  9
     \\/     M anipulation  |
\*---------------------------------------------------------------------------*/
FoamFile
{
    format      ascii;
    class       volScalarField;
    location    "3.3";
    object      nut;
}
// * * * * * * * * * * * * * * * * * * * * * * * * * * * * * * * * * * * * * //

dimensions      [0 2 -1 0 0 0 0];

internalField   nonuniform List<scalar> 
36360
(
0.0162994
0.0161392
0.0144327
0.0144312
0.00190982
0.00185505
0.00149578
0.00160343
0.0153272
0.0150668
0.0135852
0.0133645
0.00167206
0.0015572
0.0013905
0.00125962
0.0150436
0.0150424
0.0133922
0.0133908
0.00150543
0.00150532
0.00120528
0.00120514
0.0150631
0.0153211
0.0133604
0.0135783
0.00155686
0.00167156
0.00125923
0.00138992
0.0161313
0.0162904
0.0144224
0.0144227
0.00185446
0.00190917
0.00160276
0.00149504
0.0184002
0.0183828
0.0174591
0.0173736
0.00218705
0.00210361
0.00208056
0.00199964
0.0176973
0.0174154
0.0166265
0.0163463
0.00193722
0.00183709
0.00182518
0.00171847
0.0173384
0.0173374
0.0162899
0.0162887
0.00179105
0.00179096
0.00166965
0.00166955
0.0174123
0.0176923
0.0163429
0.016621
0.00183684
0.00193685
0.00171818
0.00182475
0.0183764
0.0183929
0.0173665
0.0174513
0.00210317
0.00218657
0.00199913
0.00208001
0.0199561
0.0200062
0.019226
0.0192487
0.00233605
0.00225526
0.00226853
0.00218613
0.0193934
0.0191227
0.0186056
0.0183281
0.00210183
0.0020116
0.00202687
0.0019322
0.0190285
0.0190277
0.0182392
0.0182383
0.00197011
0.00197005
0.00188861
0.00188853
0.0191202
0.0193894
0.0183253
0.0186011
0.00201142
0.00210155
0.00193198
0.00202655
0.020001
0.0199501
0.0192429
0.0192196
0.00225493
0.00233569
0.00218574
0.00226811
0.0211669
0.0212583
0.0205979
0.02067
0.002443
0.00236568
0.00239336
0.0023143
0.0206894
0.0204318
0.0200811
0.019817
0.00222112
0.00213759
0.00216572
0.00207916
0.0203363
0.0203356
0.0197212
0.0197204
0.00209939
0.00209935
0.00203946
0.0020394
0.0204298
0.0206862
0.0198148
0.0200775
0.00213745
0.00222091
0.002079
0.00216548
0.0212541
0.021162
0.0206654
0.0205927
0.00236542
0.00244271
0.00231401
0.00239304
0.02212
0.0222446
0.0216704
0.0217791
0.00252423
0.00245009
0.00248618
0.0024105
0.0217083
0.0214613
0.0212276
0.0209755
0.00231198
0.0022332
0.00226944
0.00218848
0.0213684
0.0213679
0.0208811
0.0208805
0.00219737
0.00219734
0.00215156
0.00215152
0.0214597
0.0217058
0.0209738
0.0212248
0.00223309
0.00231181
0.00218836
0.00226925
0.0222412
0.022116
0.0217754
0.0216662
0.00244989
0.00252401
0.00241028
0.00248594
0.0228787
0.0230308
0.0225199
0.0226588
0.00258742
0.00251596
0.00255768
0.00248494
0.0225204
0.0222817
0.0221362
0.0218935
0.00238273
0.0023075
0.00234946
0.00227259
0.0221919
0.0221914
0.0218022
0.0218017
0.00227344
0.00227341
0.00223771
0.00223768
0.0222804
0.0225183
0.0218921
0.0221339
0.00230742
0.0023826
0.00227249
0.00234932
0.0230281
0.0228754
0.0226558
0.0225164
0.0025158
0.00258724
0.00248476
0.00255749
0.0234869
0.0236616
0.0231989
0.0233628
0.00263717
0.00256791
0.0026137
0.0025434
0.0231723
0.0229405
0.0228635
0.0226284
0.00243849
0.00236602
0.00241222
0.00233846
0.0228533
0.0228529
0.0225398
0.0225395
0.00233331
0.00233329
0.00230512
0.00230509
0.0229395
0.0231706
0.0226272
0.0228616
0.00236595
0.00243839
0.00233838
0.0024121
0.0236593
0.0234841
0.0233603
0.023196
0.00256778
0.00263703
0.00254326
0.00261355
0.0239759
0.0241689
0.0237441
0.0239284
0.00267652
0.00260904
0.00265795
0.00258961
0.023697
0.0234712
0.0234483
0.0232196
0.00248267
0.00241238
0.00246183
0.00239052
0.0233854
0.0233851
0.0231331
0.0231328
0.00238076
0.00238074
0.00235839
0.00235836
0.0234703
0.0236956
0.0232187
0.0234467
0.00241232
0.00248258
0.00239046
0.00246174
0.0241669
0.0239736
0.0239263
0.0237417
0.00260894
0.0026764
0.0025895
0.00265782
0.0243694
0.0245764
0.024183
0.0243832
0.00270756
0.00264156
0.00269291
0.0026262
0.024119
0.0238982
0.0239191
0.0236958
0.00251766
0.00244914
0.00250116
0.00243181
0.0238138
0.0238136
0.0236108
0.0236105
0.0024184
0.00241838
0.00240065
0.00240064
0.0238974
0.0241178
0.023695
0.0239177
0.0024491
0.00251759
0.00243176
0.00250108
0.0245747
0.0243673
0.0243814
0.0241808
0.00264147
0.00270744
0.0026261
0.00269279
0.0246834
0.0249018
0.0245352
0.0247479
0.00273186
0.00266711
0.00272038
0.00265505
0.0244567
0.0242403
0.024297
0.0240784
0.00254525
0.00247818
0.00253227
0.00246452
0.0241572
0.0241569
0.0239947
0.0239945
0.00244815
0.00244814
0.00243415
0.00243413
0.0242396
0.0244557
0.0240777
0.0242958
0.00247815
0.00254519
0.00246448
0.0025322
0.0249003
0.0246816
0.0247463
0.0245334
0.00266704
0.00273185
0.00265497
0.00272034
0.0249314
0.0251587
0.0248144
0.0250374
0.00275082
0.00268694
0.00274195
0.00267763
0.0247242
0.0245117
0.0245981
0.0243836
0.00256677
0.0025009
0.00255668
0.00249025
0.0244297
0.0244295
0.0243011
0.0243009
0.00247145
0.00247144
0.00246052
0.00246051
0.0245111
0.0247233
0.024383
0.0245971
0.00250086
0.00256671
0.00249021
0.00255662
0.0251573
0.0249296
0.025036
0.0248127
0.00268688
0.00275073
0.00267756
0.00274191
0.0251234
0.0253579
0.0250336
0.0252644
0.00276517
0.00270198
0.00275844
0.00269495
0.0249325
0.0247235
0.0248348
0.0246241
0.0025832
0.00251833
0.00257554
0.00251021
0.0246425
0.0246423
0.0245426
0.0245424
0.00248938
0.00248937
0.00248102
0.00248101
0.024723
0.0249316
0.0246235
0.0248338
0.0025183
0.00258315
0.00251017
0.00257549
0.0253566
0.0251216
0.0252631
0.0250319
0.00270192
0.00276504
0.00269489
0.00275834
0.0252678
0.0255078
0.0252005
0.025438
0.00277549
0.00271293
0.00277074
0.00270787
0.0250902
0.0248844
0.0250168
0.0248095
0.00259533
0.00253131
0.00258974
0.00252532
0.0248044
0.0248042
0.0247289
0.0247288
0.00250277
0.00250276
0.00249659
0.00249658
0.0248839
0.0250894
0.024809
0.025016
0.00253128
0.00259529
0.00252529
0.0025897
0.0255066
0.0252663
0.0254367
0.025199
0.00271288
0.00277543
0.00270782
0.00277066
0.025371
0.0256152
0.025324
0.0255659
0.00278242
0.00272035
0.00277931
0.00271699
0.0252042
0.0250013
0.0251519
0.0249476
0.00260376
0.00254045
0.00259996
0.00253632
0.0249222
0.024922
0.024868
0.0248679
0.00251227
0.00251226
0.00250797
0.00250796
0.0250008
0.0252034
0.0249471
0.0251511
0.00254042
0.00260372
0.00253629
0.00259992
0.025614
0.0253698
0.0255648
0.0253226
0.00272029
0.00278242
0.00271694
0.00277925
0.0254377
0.025685
0.0254082
0.0256539
0.0027864
0.00272464
0.00278473
0.00272282
0.0252797
0.0250794
0.0252461
0.0250445
0.00260892
0.00254623
0.00260671
0.00254373
0.0250013
0.0250011
0.0249659
0.0249657
0.00251835
0.00251834
0.0025157
0.00251569
0.0250789
0.0252789
0.025044
0.0252452
0.0025462
0.00260887
0.0025437
0.00260666
0.0256839
0.0254367
0.0256527
0.0254072
0.00272455
0.00278627
0.00272274
0.00278465
0.0254719
0.0257207
0.0254581
0.0257063
0.0027875
0.00272597
0.00278727
0.00272564
0.0253207
0.0251231
0.0253039
0.025105
0.00261113
0.00254901
0.00261037
0.00254797
0.0250461
0.025046
0.0250274
0.0250273
0.00252139
0.00252138
0.00252023
0.00252022
0.0251227
0.0253201
0.0251045
0.0253033
0.00254898
0.00261107
0.00254794
0.00261032
0.0257201
0.0254714
0.0257054
0.0254573
0.00272588
0.00278749
0.00272556
0.00278722
0.0254782
0.0257277
0.0254789
0.025728
0.00278603
0.0027247
0.00278706
0.00272561
0.0253312
0.0251359
0.0253294
0.0251324
0.00261068
0.00254907
0.00261117
0.00254933
0.0250599
0.0250598
0.025056
0.0250559
0.00252168
0.00252167
0.00252184
0.00252183
0.0251355
0.0253306
0.0251321
0.0253288
0.00254905
0.00261064
0.0025493
0.00261112
0.0257265
0.0254767
0.0257272
0.0254784
0.00272464
0.00278597
0.00272552
0.00278701
0.0254535
0.0257042
0.0254689
0.0257189
0.00278245
0.00272123
0.00278444
0.00272318
0.0253115
0.0251187
0.0253244
0.0251303
0.00260781
0.00254667
0.00260952
0.00254819
0.0250444
0.0250443
0.0250553
0.0250552
0.00251947
0.00251947
0.00252092
0.00252091
0.0251183
0.0253108
0.02513
0.0253238
0.00254665
0.00260779
0.00254817
0.0026095
0.0257031
0.025452
0.0257175
0.0254672
0.0027212
0.00278246
0.00272314
0.00278445
0.0254024
0.0256542
0.0254308
0.0256818
0.00277669
0.00271549
0.00277979
0.00271858
0.0252648
0.0250742
0.025291
0.0250995
0.00260269
0.00254193
0.00260551
0.00254457
0.0250011
0.025001
0.0250259
0.0250258
0.00251491
0.00251491
0.00251746
0.00251745
0.0250739
0.0252642
0.0250992
0.0252904
0.00254191
0.00260266
0.00254455
0.00260548
0.0256538
0.0254023
0.0256812
0.0254302
0.00271542
0.00277659
0.00271852
0.00277973
0.0253291
0.0255812
0.0253683
0.0256203
0.00276898
0.00270773
0.00277304
0.00271181
0.0251926
0.0250033
0.0252315
0.0250416
0.00259546
0.00253502
0.00259932
0.00253873
0.0249312
0.0249311
0.024969
0.0249689
0.00250817
0.00250816
0.0025118
0.0025118
0.0250029
0.0251919
0.0250412
0.0252309
0.002535
0.00259545
0.00253871
0.0025993
0.0255801
0.0253282
0.0256194
0.0253679
0.00270775
0.00276898
0.00271179
0.00277301
0.0252297
0.0254827
0.0252822
0.0255343
0.00275927
0.00269796
0.00276432
0.00270302
0.0250954
0.0249073
0.0251468
0.0249581
0.00258618
0.00252602
0.00259105
0.00253076
0.024836
0.0248359
0.0248864
0.0248863
0.00249931
0.0024993
0.00250399
0.00250398
0.0249069
0.0250946
0.0249577
0.025146
0.002526
0.00258615
0.00253075
0.00259104
0.0254815
0.0252293
0.0255332
0.0252814
0.00269791
0.00275927
0.00270301
0.00276425
0.0251078
0.0253614
0.0251713
0.0254245
0.00274768
0.00268625
0.00275367
0.00269231
0.0249736
0.0247866
0.0250372
0.0248497
0.00257491
0.00251497
0.00258078
0.00252074
0.024716
0.0247159
0.0247788
0.0247787
0.00248837
0.00248837
0.00249409
0.00249408
0.0247863
0.024973
0.0248493
0.0250364
0.00251494
0.00257485
0.00252071
0.00258073
0.0253593
0.0251052
0.0254224
0.0251699
0.00268611
0.00274758
0.00269216
0.0027536
0.0249603
0.0252151
0.0250372
0.0252909
0.00273421
0.00267251
0.00274114
0.00267956
0.0248275
0.0246414
0.0249032
0.0247167
0.00256162
0.00250188
0.0025685
0.00250867
0.0245715
0.0245715
0.0246465
0.0246464
0.00247539
0.00247538
0.00248213
0.00248212
0.0246412
0.0248272
0.0247165
0.0249029
0.00250185
0.00256159
0.00250864
0.00256846
0.0252149
0.0249592
0.02529
0.0250355
0.00267249
0.00273423
0.00267952
0.00274116
0.0247887
0.0250461
0.024877
0.025133
0.00271872
0.00265686
0.00272671
0.0026649
0.0246574
0.0244717
0.0247451
0.0245593
0.00254635
0.00248674
0.00255423
0.00249456
0.0244025
0.0244024
0.0244897
0.0244896
0.00246034
0.00246033
0.00246811
0.00246811
0.0244715
0.0246572
0.0245591
0.0247448
0.00248672
0.00254629
0.00249453
0.00255418
0.0250466
0.024789
0.0251331
0.0248767
0.00265676
0.00271873
0.00266483
0.0027267
0.0245939
0.0248539
0.0246939
0.0249524
0.00270125
0.00263903
0.00271018
0.00264814
0.0244634
0.0242775
0.0245632
0.0243774
0.00252899
0.00246953
0.00253791
0.00247839
0.0242087
0.0242086
0.0243083
0.0243082
0.00244319
0.00244318
0.00245202
0.00245201
0.0242773
0.024463
0.0243772
0.0245628
0.00246951
0.00252897
0.00247837
0.00253788
0.0248536
0.024593
0.0249525
0.0246938
0.00263903
0.00270115
0.00264811
0.00271013
0.0243731
0.0246367
0.0244864
0.0247478
0.00268165
0.00261919
0.00269163
0.00262932
0.0242429
0.0240582
0.0243562
0.0241707
0.00250953
0.00245019
0.00251952
0.00246012
0.0239898
0.0239898
0.024102
0.024102
0.00242391
0.00242391
0.00243381
0.00243381
0.0240581
0.0242427
0.0241705
0.0243559
0.00245017
0.0025095
0.0024601
0.00251949
0.0246367
0.0243733
0.0247479
0.0244863
0.00261914
0.00268167
0.0026293
0.00269164
0.0241287
0.0243962
0.0242538
0.0245191
0.00266008
0.00259727
0.0026711
0.00260841
0.0239977
0.0238137
0.024123
0.0239388
0.00248795
0.00242869
0.00249899
0.0024397
0.0237456
0.0237455
0.0238706
0.0238705
0.00240245
0.00240245
0.00241345
0.00241345
0.0238135
0.0239973
0.0239386
0.0241227
0.00242867
0.00248792
0.00243968
0.00249896
0.0243953
0.0241272
0.0245183
0.024253
0.00259724
0.00266004
0.00260838
0.00267106
0.0238587
0.0241308
0.0239964
0.0242661
0.0026363
0.00257317
0.00264844
0.00258546
0.0237273
0.0235432
0.0238654
0.0236814
0.00246418
0.00240495
0.00247633
0.0024171
0.0234752
0.0234751
0.0236134
0.0236133
0.00237873
0.00237873
0.00239088
0.00239087
0.0235429
0.0237267
0.0236811
0.0238649
0.00240493
0.00246415
0.00241708
0.00247631
0.02413
0.0238576
0.0242654
0.0239953
0.00257313
0.00263625
0.00258543
0.0026484
0.0235629
0.0238395
0.0237138
0.0239879
0.00261011
0.00254659
0.00262348
0.00256015
0.0234306
0.0232461
0.0235819
0.0233977
0.00243804
0.00237886
0.0024514
0.0023922
0.0231783
0.0231782
0.0233298
0.0233297
0.00235266
0.00235265
0.00236599
0.00236598
0.0232458
0.02343
0.0233973
0.0235813
0.00237884
0.00243801
0.00239218
0.00245137
0.0238386
0.0235616
0.023987
0.0237127
0.00254655
0.00261005
0.0025601
0.00262343
0.0232405
0.0235221
0.0234047
0.0236836
0.00258147
0.00251755
0.00259605
0.00253233
0.0231072
0.0229221
0.0232719
0.0230872
0.00240948
0.00235033
0.00242406
0.0023649
0.0228542
0.022854
0.0230193
0.0230192
0.00232414
0.00232413
0.0023387
0.00233869
0.0229217
0.0231065
0.0230868
0.0232713
0.00235031
0.00240945
0.00236487
0.00242402
0.0235211
0.0232391
0.0236826
0.0234035
0.0025175
0.00258141
0.00253228
0.002596
0.0228912
0.023178
0.0230689
0.023353
0.00255045
0.00248606
0.00256622
0.00250206
0.0227564
0.0225703
0.022935
0.0227494
0.00237847
0.0023193
0.00239427
0.00233513
0.0225021
0.022502
0.0226813
0.0226812
0.00229309
0.00229309
0.00230893
0.00230892
0.0225698
0.0227557
0.0227489
0.0229343
0.00231928
0.00237843
0.00233511
0.00239424
0.023177
0.0228897
0.023352
0.0230676
0.00248601
0.00255039
0.00250201
0.00256616
0.0225143
0.0228065
0.0227059
0.0229953
0.00251705
0.00245215
0.00253401
0.00246936
0.0223773
0.0221897
0.0225702
0.0223833
0.00234493
0.00228568
0.00236201
0.00230282
0.022121
0.0221209
0.0223149
0.0223148
0.00225941
0.0022594
0.00227658
0.00227658
0.0221892
0.0223766
0.0223829
0.0225695
0.00228566
0.00234489
0.00230279
0.00236197
0.0228054
0.0225128
0.0229943
0.0227046
0.0024521
0.00251699
0.00246932
0.00253396
0.0221082
0.0224054
0.0223147
0.0226093
0.00248119
0.00241569
0.0024994
0.0024342
0.0219682
0.0217786
0.0221763
0.0219877
0.00230874
0.00224931
0.00232716
0.00226784
0.0217093
0.0217092
0.0219188
0.0219186
0.00222293
0.00222292
0.00224153
0.00224152
0.0217782
0.0219674
0.0219873
0.0221756
0.00224928
0.0023087
0.00226782
0.00232713
0.0224043
0.0221068
0.0226082
0.0223134
0.00241563
0.00248113
0.00243415
0.00249934
0.0216708
0.0219723
0.0218933
0.0221926
0.00244272
0.00237652
0.00246226
0.00239641
0.0215266
0.0213349
0.0217513
0.0215607
0.00226969
0.00220996
0.00228958
0.00223002
0.0212647
0.0212646
0.021491
0.0214908
0.00218342
0.00218341
0.00220357
0.00220356
0.0213344
0.0215258
0.0215602
0.0217505
0.00220993
0.00226965
0.00222999
0.00228953
0.0219711
0.0216693
0.0221914
0.0218919
0.00237647
0.00244266
0.00239636
0.0024622
0.0211984
0.0215036
0.021439
0.0217422
0.00240139
0.00233441
0.0024224
0.00235581
0.0210495
0.0208552
0.0212924
0.0210995
0.00222749
0.00216731
0.002249
0.00218907
0.020784
0.0207838
0.0210288
0.0210286
0.00214052
0.00214051
0.00216241
0.0021624
0.0208547
0.0210487
0.021099
0.0212916
0.00216728
0.00222745
0.00218904
0.00224896
0.0215025
0.0211969
0.0217411
0.0214375
0.00233436
0.00240132
0.00235575
0.00242234
0.0206852
0.0209944
0.0209471
0.021254
0.00235672
0.00228897
0.00237948
0.0023121
0.0205323
0.020335
0.0207959
0.0206002
0.00218166
0.00212083
0.00220506
0.00214458
0.0202624
0.0202622
0.0205283
0.0205282
0.00209371
0.0020937
0.00211764
0.00211763
0.0203345
0.0205314
0.0205997
0.0207951
0.0021208
0.00218161
0.00214455
0.00220502
0.0209932
0.0206837
0.0212529
0.0209456
0.00228892
0.00235665
0.00231204
0.00237941
0.0201232
0.0204368
0.0204106
0.0207218
0.00230785
0.00223952
0.00233284
0.00226477
0.0199677
0.0197668
0.0202562
0.0200572
0.00213129
0.00206964
0.00215711
0.00209589
0.0196929
0.0196927
0.0199838
0.0199837
0.00204216
0.00204215
0.00206858
0.00206857
0.0197663
0.0199668
0.0200566
0.0202554
0.0020696
0.00213124
0.00209586
0.00215707
0.0204356
0.0201217
0.0207207
0.0204091
0.00223946
0.00230778
0.00226471
0.00233278
0.0195122
0.019817
0.019822
0.0201357
0.00225368
0.00218421
0.00228144
0.00221281
0.0193407
0.0191389
0.0196632
0.0194609
0.00207426
0.00201221
0.00210383
0.00204182
0.0190666
0.0190664
0.019387
0.0193868
0.00198479
0.00198478
0.00201426
0.00201425
0.0191384
0.0193398
0.0194604
0.0196624
0.00201218
0.00207422
0.00204179
0.00210378
0.0198158
0.0195107
0.0201345
0.0198206
0.00218415
0.00225361
0.00221275
0.00228138
0.0189252
0.0190791
0.0192072
0.0194709
0.00219152
0.00210923
0.00222439
0.00215154
0.0186195
0.0184412
0.0189935
0.0187983
0.00200484
0.00194674
0.00204165
0.00198051
0.0183806
0.0183804
0.0187302
0.01873
0.00192117
0.00192116
0.00195368
0.00195367
0.0184407
0.0186188
0.0187978
0.0189927
0.00194671
0.00200479
0.00198048
0.0020416
0.019078
0.0189237
0.0194697
0.0192058
0.00210917
0.00219146
0.00215148
0.00222433
0.0358248
0.0352845
0.0319759
0.0316649
0.0272752
0.0268334
0.0241146
0.0238847
0.0345057
0.0344055
0.0307867
0.0306476
0.0260652
0.0259664
0.0230263
0.0229112
0.0345374
0.0345327
0.0307812
0.0307766
0.0260939
0.0260909
0.023056
0.0230529
0.0343919
0.0344849
0.0306341
0.0307657
0.0259576
0.0260514
0.022902
0.0230119
0.0352586
0.0357953
0.0316385
0.0319462
0.0268159
0.0272555
0.0238664
0.0240944
0.0416946
0.0412214
0.0389532
0.0384297
0.0315462
0.031211
0.0295896
0.0291925
0.040581
0.0405177
0.0377194
0.0376395
0.0305962
0.0305188
0.0285024
0.0284143
0.0406307
0.0406264
0.0377623
0.0377578
0.0306093
0.0306066
0.0285217
0.0285189
0.0405053
0.0405621
0.0376265
0.0376996
0.030511
0.0305841
0.0284059
0.0284894
0.0411981
0.0416681
0.0384051
0.0389256
0.0311958
0.031529
0.0291762
0.0295718
0.0463949
0.0460078
0.0441554
0.0437292
0.0348198
0.0345729
0.0332727
0.0329863
0.0454745
0.0454333
0.0431473
0.0430958
0.0340667
0.034006
0.0324318
0.032363
0.0455299
0.0455262
0.0431993
0.0431953
0.0340738
0.0340715
0.03244
0.0324375
0.0454227
0.0454583
0.0430844
0.0431299
0.0339994
0.0340565
0.0323559
0.0324208
0.0459877
0.0463718
0.0437076
0.044131
0.0345599
0.0348051
0.0329723
0.0332573
0.0502796
0.0499538
0.0484267
0.0480723
0.037454
0.0372706
0.036205
0.0359916
0.0494951
0.0494691
0.047579
0.0475453
0.0368358
0.0367882
0.0355245
0.0354705
0.0495555
0.0495524
0.0476357
0.0476324
0.036845
0.0368431
0.0355316
0.0355295
0.0494602
0.0494814
0.0475356
0.0475642
0.0367828
0.0368274
0.0354646
0.0355153
0.0499368
0.0502599
0.0480538
0.0484057
0.0372598
0.0374416
0.0359799
0.036192
0.0534949
0.0532164
0.0519611
0.0516602
0.0395902
0.0394566
0.0385761
0.0384191
0.0528137
0.0528007
0.0512312
0.0512114
0.0390741
0.0390377
0.0380121
0.03797
0.0528818
0.0528792
0.0512944
0.0512916
0.0390893
0.0390878
0.0380235
0.0380218
0.0527932
0.0528023
0.0512033
0.0512188
0.0390332
0.0390672
0.0379651
0.0380045
0.053202
0.0534781
0.0516445
0.0519432
0.0394476
0.0395798
0.0384093
0.0385651
0.0561545
0.0559142
0.0548858
0.0546274
0.0413288
0.0412346
0.0405026
0.0403897
0.0555555
0.0555543
0.0542478
0.0542404
0.0408936
0.0408674
0.0400292
0.0399978
0.0556332
0.055631
0.0543199
0.0543175
0.0409169
0.0409156
0.040048
0.0400466
0.055548
0.0555459
0.0542336
0.0542374
0.0408637
0.0408878
0.0399938
0.0400229
0.055902
0.0561402
0.0546141
0.0548705
0.041227
0.0413199
0.0403815
0.0404933
0.058353
0.0581433
0.0573044
0.0570802
0.0427471
0.0426848
0.0420728
0.0419953
0.0578206
0.0578305
0.0567403
0.0567444
0.0423779
0.0423608
0.0416723
0.0416506
0.0579091
0.0579073
0.0568228
0.0568208
0.0424095
0.0424085
0.0416995
0.0416983
0.0578251
0.0578124
0.0567386
0.0567315
0.0423577
0.042373
0.0416472
0.041667
0.0581329
0.0583405
0.0570689
0.0572913
0.0426783
0.0427395
0.0419883
0.0420649
0.0601672
0.0599825
0.0593021
0.0591054
0.0439046
0.0438681
0.0433542
0.0433054
0.0596897
0.0597096
0.0587984
0.0588131
0.0435892
0.0435803
0.0430132
0.0430002
0.059789
0.0597874
0.0588919
0.0588902
0.0436291
0.0436282
0.0430489
0.0430479
0.0597051
0.0596826
0.0588083
0.0587908
0.0435776
0.043585
0.0429974
0.0430087
0.0599734
0.0601562
0.0590957
0.0592906
0.0438625
0.0438979
0.0432994
0.0433474
0.06166
0.0614958
0.0609487
0.0607746
0.0448477
0.044832
0.0443995
0.0443739
0.061228
0.0612571
0.0604949
0.0605194
0.0445763
0.0445747
0.0441072
0.044102
0.0613378
0.0613364
0.0605992
0.0605977
0.0446241
0.0446233
0.044151
0.0441501
0.0612531
0.0612218
0.0605151
0.0604883
0.0445724
0.0445726
0.0440995
0.0441033
0.0614877
0.0616502
0.060766
0.0609384
0.0448271
0.0448418
0.0443686
0.0443935
0.062882
0.0627347
0.0623007
0.0621452
0.0456117
0.0456131
0.0452493
0.0452425
0.0624884
0.0625256
0.0618886
0.0619216
0.0453769
0.045382
0.044997
0.0449988
0.0626077
0.0626065
0.0620029
0.0620016
0.0454324
0.0454317
0.0450486
0.0450478
0.062522
0.0624828
0.0619179
0.0618827
0.04538
0.0453736
0.0449966
0.0449936
0.0627274
0.0628731
0.0621375
0.0622914
0.0456086
0.0456063
0.0452378
0.0452439
0.0638742
0.063741
0.0634031
0.0632631
0.0462249
0.0462405
0.0459346
0.0459434
0.063513
0.0635574
0.0630264
0.063067
0.046021
0.0460322
0.0457161
0.0457242
0.0636412
0.0636401
0.0631499
0.0631488
0.0460836
0.046083
0.045775
0.0457744
0.0635541
0.0635078
0.0630636
0.063021
0.0460303
0.046018
0.0457223
0.0457129
0.0637343
0.0638658
0.0632561
0.0633946
0.0462364
0.0462199
0.0459392
0.0459297
0.0646698
0.0645484
0.0642933
0.0641663
0.0467101
0.0467374
0.0464815
0.0465031
0.0643361
0.0643871
0.0639464
0.0639941
0.0465322
0.046549
0.0462911
0.0463051
0.0644727
0.0644716
0.0640787
0.0640776
0.0466017
0.0466011
0.0463571
0.0463565
0.064384
0.0643313
0.0639909
0.0639415
0.0465472
0.0465294
0.0463033
0.0462883
0.0645421
0.0646619
0.0641597
0.0642853
0.0467336
0.0467053
0.0464992
0.0464769
0.0652963
0.0651847
0.065001
0.0648849
0.0470857
0.0471226
0.0469096
0.046942
0.0649858
0.0650428
0.0646796
0.0647336
0.0469297
0.0469515
0.0467433
0.0467627
0.0651301
0.0651291
0.0648199
0.0648189
0.0470055
0.0470049
0.0468159
0.0468153
0.0650399
0.0649812
0.0647306
0.064675
0.0469499
0.0469271
0.046761
0.0467406
0.0651787
0.0652887
0.0648787
0.0649934
0.047119
0.0470811
0.0469383
0.0469052
0.065775
0.0656718
0.065551
0.0654442
0.0473664
0.0474111
0.0472362
0.0472773
0.0654851
0.0655475
0.0652516
0.0653113
0.0472288
0.0472552
0.04709
0.0471141
0.0656366
0.0656356
0.0653994
0.0653984
0.0473105
0.0473099
0.0471687
0.0471681
0.0655448
0.0654807
0.0653085
0.0652472
0.0472536
0.0472263
0.0471125
0.0470874
0.0656661
0.0657677
0.0654382
0.0655437
0.0474077
0.0473621
0.0472737
0.047232
0.0661249
0.0660288
0.0659636
0.0658641
0.0475629
0.0476144
0.0474731
0.0475217
0.0658521
0.0659196
0.0656826
0.0657478
0.0474418
0.0474724
0.0473445
0.0473731
0.0660105
0.0660096
0.0658376
0.0658366
0.0475289
0.0475284
0.047429
0.0474285
0.065917
0.065848
0.0657452
0.0656784
0.0474709
0.0474395
0.0473716
0.0473421
0.0660234
0.0661181
0.0658585
0.0659567
0.0476113
0.0475591
0.0475184
0.0474694
0.0663629
0.0662721
0.0662557
0.0661621
0.0476877
0.047744
0.0476325
0.0476867
0.0661037
0.066175
0.0659901
0.0660596
0.0475784
0.0476124
0.0475179
0.0475509
0.0662669
0.0662661
0.0661508
0.0661499
0.0476702
0.0476697
0.0476082
0.0476077
0.0661726
0.0660999
0.0660571
0.0659862
0.0476111
0.0475764
0.0475496
0.0475158
0.0662671
0.0663566
0.0661569
0.0662492
0.0477416
0.0476846
0.0476838
0.047629
0.0664982
0.0664121
0.0664415
0.0663533
0.0477471
0.0478072
0.047725
0.0477835
0.0662517
0.066327
0.0661896
0.0662626
0.0476483
0.0476856
0.0476216
0.0476566
0.0664202
0.0664195
0.0663549
0.0663541
0.0477444
0.047744
0.0477145
0.0477141
0.0663246
0.066248
0.0662603
0.0661859
0.0476844
0.0476463
0.0476554
0.0476197
0.0664071
0.0664916
0.0663484
0.0664353
0.0478039
0.0477429
0.0477811
0.0477223
0.0665364
0.0664545
0.0665281
0.0664439
0.0477387
0.0478031
0.0477501
0.0478121
0.0663015
0.0663802
0.066287
0.0663638
0.047652
0.0476927
0.0476573
0.0476961
0.0664746
0.0664738
0.0664576
0.0664568
0.0477527
0.0477523
0.0477555
0.047755
0.0663778
0.0662977
0.0663615
0.0662833
0.0476914
0.0476499
0.0476948
0.0476551
0.0664495
0.06653
0.0664388
0.0665216
0.047801
0.0477357
0.047809
0.0477458
0.0664858
0.0664078
0.0665199
0.0664404
0.0476744
0.0477423
0.0477122
0.0477788
0.0662609
0.0663431
0.0662908
0.0663712
0.0475961
0.04764
0.0476305
0.0476729
0.0664388
0.066438
0.0664662
0.0664654
0.0477013
0.0477009
0.0477335
0.0477331
0.0663408
0.0662572
0.0663689
0.0662871
0.0476387
0.047594
0.0476716
0.0476285
0.0664028
0.0664791
0.0664353
0.0665135
0.0477386
0.04767
0.047776
0.0477097
0.0663494
0.0662752
0.066427
0.0663504
0.0475544
0.0476249
0.0476207
0.0476896
0.0661354
0.0662208
0.0662072
0.0662909
0.0474843
0.0475307
0.0475464
0.0475915
0.0663179
0.0663171
0.0663872
0.0663864
0.0475932
0.0475928
0.0476534
0.047653
0.0662184
0.0661314
0.0662885
0.0662034
0.0475293
0.0474819
0.0475902
0.0475441
0.0662699
0.0663427
0.0663451
0.0664203
0.0476223
0.0475511
0.0476863
0.0476163
0.0661362
0.0660649
0.0662507
0.0661785
0.0473833
0.0474561
0.0474741
0.0475463
0.0659292
0.0660176
0.0660409
0.0661278
0.0473186
0.0473674
0.0474074
0.047455
0.0661159
0.0661151
0.0662254
0.0662246
0.0474311
0.0474307
0.0475181
0.0475176
0.0660153
0.0659254
0.0661254
0.066037
0.0473661
0.0473163
0.0474536
0.047405
0.0660597
0.0661292
0.0661731
0.0662439
0.047452
0.0473783
0.0475428
0.047471
0.0658425
0.0657744
0.0659981
0.0659278
0.0471585
0.0472332
0.047277
0.0473502
0.0656446
0.065736
0.0657952
0.065885
0.0471003
0.0471515
0.0472152
0.0472652
0.0658357
0.065835
0.065984
0.0659832
0.0472165
0.0472161
0.0473295
0.0473291
0.0657339
0.0656412
0.0658828
0.0657917
0.0471505
0.0470987
0.047264
0.0472133
0.0657698
0.0658366
0.065923
0.0659919
0.0472318
0.0471561
0.0473475
0.0472728
0.0654761
0.0654108
0.0656667
0.0656005
0.0468846
0.0469616
0.0470267
0.0471029
0.0652842
0.0653781
0.0654726
0.0655651
0.046831
0.0468842
0.0469713
0.0470235
0.0654791
0.0654784
0.0656654
0.0656647
0.0469504
0.0469501
0.0470891
0.0470888
0.0653761
0.065281
0.0655631
0.0654693
0.0468832
0.0468293
0.0470225
0.0469697
0.0654063
0.0654699
0.065596
0.0656608
0.0469584
0.0468804
0.0471007
0.0470245
0.0650329
0.0649704
0.0652631
0.0651987
0.0465584
0.0466375
0.0467274
0.046805
0.0648485
0.0649448
0.0650745
0.0651695
0.0465107
0.0465659
0.0466765
0.0467307
0.0650469
0.0650463
0.065271
0.0652703
0.0466332
0.0466329
0.0467974
0.0467971
0.0649429
0.0648454
0.0651675
0.0650714
0.046565
0.0465094
0.0467298
0.046675
0.0649663
0.0650274
0.0651943
0.0652573
0.0466366
0.0465566
0.0468028
0.0467237
0.0645172
0.0644576
0.0647825
0.0647219
0.0461844
0.0462656
0.0463765
0.0464571
0.0643379
0.0644361
0.0646014
0.0646985
0.0461401
0.0461966
0.0463312
0.046387
0.0645392
0.0645386
0.0648011
0.0648004
0.0462648
0.0462644
0.0464547
0.0464543
0.0644342
0.0643347
0.0646966
0.0645982
0.0461956
0.0461383
0.046386
0.0463296
0.0644531
0.0645109
0.0647174
0.0647767
0.0462624
0.0461803
0.0464551
0.0463748
0.0639245
0.0638674
0.0642297
0.0641709
0.045757
0.0458402
0.0459769
0.0460587
0.0637509
0.0638509
0.0640528
0.0641518
0.0457167
0.0457752
0.0459344
0.0459917
0.063955
0.0639544
0.0642553
0.0642546
0.0458444
0.0458441
0.0460604
0.0460601
0.063849
0.0637478
0.0641498
0.0640496
0.0457743
0.0457153
0.0459908
0.0459328
0.0638631
0.0639186
0.0641663
0.0642236
0.0458388
0.0457544
0.046056
0.0459729
0.0632556
0.0632014
0.063598
0.0635427
0.0452794
0.0453648
0.0455236
0.0456081
0.0630863
0.0631878
0.0634271
0.0635278
0.045241
0.0453011
0.0454848
0.0455441
0.0632928
0.0632922
0.0636323
0.0636316
0.0453713
0.0453709
0.0456138
0.0456135
0.0631858
0.0630829
0.0635258
0.0634239
0.0453
0.0452393
0.0455431
0.0454833
0.0631967
0.0632491
0.0635381
0.0635921
0.0453617
0.0452755
0.0456061
0.0455213
0.0625077
0.0624558
0.0628904
0.0628372
0.0447488
0.0448356
0.04502
0.0451061
0.0623422
0.0624452
0.0627229
0.0628251
0.0447118
0.0447731
0.0449825
0.0450432
0.062551
0.0625502
0.0629305
0.0629298
0.0448442
0.0448438
0.0451138
0.0451134
0.062443
0.0623386
0.062823
0.0627195
0.0447719
0.0447099
0.0450421
0.0449806
0.0624509
0.062501
0.0628323
0.0628839
0.0448328
0.0447448
0.045103
0.045016
0.0616797
0.0616303
0.0621024
0.0620518
0.0441647
0.0442529
0.0444627
0.0445502
0.0615174
0.0616211
0.0619387
0.0620421
0.0441284
0.0441903
0.0444263
0.0444879
0.0617273
0.0617266
0.0621481
0.0621473
0.044262
0.0442616
0.0445593
0.0445589
0.0616187
0.0615136
0.0620398
0.061935
0.0441891
0.0441263
0.0444867
0.0444243
0.0616251
0.0616728
0.0620466
0.0620957
0.0442499
0.0441606
0.0445473
0.044459
0.0607696
0.0607221
0.0612339
0.0611854
0.043526
0.0436153
0.0438516
0.0439404
0.0606087
0.0607122
0.0610725
0.0611762
0.043489
0.043551
0.0438152
0.0438772
0.0608185
0.0608177
0.0612824
0.0612816
0.043623
0.0436225
0.043949
0.0439486
0.0607098
0.0606047
0.0611738
0.0610687
0.0435496
0.0434868
0.0438759
0.043813
0.0607167
0.0607625
0.0611801
0.061227
0.0436121
0.0435218
0.0439372
0.0438477
0.0597723
0.0597259
0.0602809
0.060234
0.0428302
0.0429198
0.0431847
0.0432742
0.0596109
0.0597135
0.0601201
0.0602231
0.0427909
0.0428522
0.0431469
0.0432086
0.0598194
0.0598185
0.0603291
0.0603283
0.0429242
0.0429237
0.0432805
0.0432801
0.059711
0.0596068
0.0602206
0.0601161
0.0428508
0.0427886
0.0432072
0.0431446
0.0597204
0.0597651
0.0602285
0.0602738
0.0429165
0.0428258
0.043271
0.0431806
0.0586815
0.0586358
0.0592378
0.0591918
0.0420738
0.0421633
0.0424591
0.0425487
0.0585174
0.0586182
0.0590754
0.059177
0.0420302
0.0420902
0.042418
0.0424787
0.0587233
0.0587224
0.0592825
0.0592816
0.0421619
0.0421614
0.0425506
0.0425501
0.0586156
0.0585133
0.0591745
0.0590713
0.0420888
0.0420278
0.0424773
0.0424157
0.0586302
0.0586742
0.0591862
0.0592306
0.04216
0.0420694
0.0425454
0.0424549
0.0574889
0.0574427
0.0580972
0.0580514
0.041252
0.0413404
0.0416707
0.0417598
0.0573196
0.0574177
0.0579309
0.0580304
0.0412018
0.0412599
0.0416243
0.0416833
0.0575217
0.0575208
0.0581348
0.0581339
0.0413311
0.0413306
0.0417548
0.0417543
0.057415
0.0573153
0.0580277
0.0579267
0.0412584
0.0411994
0.0416818
0.0416218
0.057437
0.0574815
0.0580457
0.05809
0.041337
0.0412475
0.0417564
0.0416665
0.0561846
0.0561365
0.0568502
0.0568032
0.0403587
0.0404446