/*--------------------------------*- C++ -*----------------------------------*\
  =========                 |
  \\      /  F ield         | OpenFOAM: The Open Source CFD Toolbox
   \\    /   O peration     | Website:  https://openfoam.org
    \\  /    A nd           | Version:  9
     \\/     M anipulation  |
\*---------------------------------------------------------------------------*/
FoamFile
{
    format      ascii;
    class       volScalarField;
    location    "3.3";
    object      p;
}
// * * * * * * * * * * * * * * * * * * * * * * * * * * * * * * * * * * * * * //

dimensions      [0 2 -2 0 0 0 0];

internalField   nonuniform List<scalar> 
36360
(
20.2154
20.0193
20.1979
20.0299
20.0331
20.1571
20.0459
20.1325
20.0875
20.0994
20.0928
20.1038
20.1027
20.0948
20.0961
20.0931
20.1007
20.1007
20.1049
20.1049
20.0943
20.0943
20.0934
20.0934
20.0994
20.0875
20.1038
20.0928
20.0948
20.1027
20.0931
20.096
20.0193
20.2153
20.0299
20.1979
20.157
20.0331
20.1325
20.046
20.1256
20.0776
20.1608
20.0588
19.9548
20.2208
19.9947
20.1948
20.107
20.0995
20.098
20.0987
20.1267
20.0981
20.1151
20.0965
20.0963
20.0963
20.098
20.098
20.0934
20.0934
20.0942
20.0942
20.0995
20.107
20.0987
20.098
20.098
20.1267
20.0965
20.1151
20.0776
20.1256
20.0588
20.1608
20.2208
19.9549
20.1947
19.9947
20.0833
20.0919
20.1019
20.0872
19.8982
20.2497
19.9233
20.2383
20.1235
20.1053
20.1157
20.102
20.1477
20.1043
20.1377
20.1008
20.0961
20.0961
20.0958
20.0958
20.0939
20.0939
20.0933
20.0933
20.1053
20.1235
20.102
20.1156
20.1043
20.1477
20.1008
20.1377
20.0919
20.0833
20.0872
20.1019
20.2497
19.8983
20.2383
19.9234
20.0563
20.0937
20.0683
20.0936
19.8613
20.2616
19.8779
20.257
20.1353
20.1125
20.13
20.1089
20.1629
20.1121
20.1561
20.1081
20.0986
20.0986
20.0971
20.0971
20.0967
20.0967
20.0951
20.0951
20.1125
20.1353
20.1089
20.13
20.112
20.1629
20.1081
20.1561
20.0937
20.0563
20.0936
20.0684
20.2615
19.8613
20.2569
19.878
20.0382
20.0912
20.0464
20.0927
19.8358
20.2661
19.8475
20.2644
20.1426
20.1192
20.1394
20.116
20.1727
20.1194
20.1683
20.1158
20.1027
20.1027
20.1005
20.1005
20.1009
20.1009
20.0987
20.0987
20.1192
20.1426
20.1159
20.1394
20.1194
20.1727
20.1158
20.1683
20.0912
20.0382
20.0927
20.0464
20.2661
19.8359
20.2644
19.8475
20.0253
20.0875
20.0312
20.0894
19.8175
20.2675
19.826
20.267
20.147
20.1247
20.1451
20.1221
20.1788
20.1256
20.1761
20.1227
20.1072
20.1072
20.105
20.105
20.1054
20.1054
20.1032
20.1032
20.1247
20.147
20.1221
20.1451
20.1256
20.1788
20.1227
20.1761
20.0875
20.0253
20.0894
20.0312
20.2675
19.8176
20.267
19.8261
20.0158
20.0836
20.0202
20.0856
19.8039
20.2675
19.8102
20.2676
20.1493
20.1292
20.1484
20.1271
20.1827
20.1305
20.181
20.1282
20.1115
20.1115
20.1094
20.1094
20.1098
20.1097
20.1076
20.1076
20.1292
20.1493
20.1271
20.1484
20.1305
20.1827
20.1282
20.181
20.0837
20.0158
20.0856
20.0202
20.2675
19.8039
20.2676
19.8103
20.0084
20.08
20.0119
20.0818
19.7935
20.2668
19.7983
20.2672
20.1505
20.1326
20.1501
20.131
20.1851
20.1342
20.184
20.1325
20.1151
20.1151
20.1134
20.1134
20.1135
20.1135
20.1117
20.1117
20.1326
20.1505
20.131
20.1501
20.1342
20.1851
20.1325
20.184
20.0801
20.0084
20.0818
20.0119
20.2668
19.7934
20.2672
19.7984
20.0026
20.0767
20.0053
20.0784
19.7853
20.2657
19.7891
20.2663
20.151
20.135
20.1508
20.1339
20.1865
20.1369
20.1859
20.1357
20.118
20.118
20.1167
20.1167
20.1165
20.1165
20.1151
20.1151
20.135
20.151
20.1339
20.1508
20.1369
20.1865
20.1357
20.1859
20.0768
20.0026
20.0784
20.0054
20.2658
19.7853
20.2664
19.7889
19.9978
20.0738
20
20.0752
19.7779
20.2648
19.7815
20.2652
20.1509
20.1366
20.151
20.1359
20.1873
20.1388
20.1869
20.1379
20.1202
20.1202
20.1192
20.1192
20.1188
20.1188
20.1178
20.1178
20.1365
20.1509
20.1358
20.151
20.1387
20.1871
20.1379
20.1869
20.0738
19.9978
20.0753
20.0001
20.2644
19.7793
20.2651
19.7822
19.9937
20.071
19.9956
20.0724
19.7735
20.263
19.7756
20.2638
20.1504
20.1374
20.1507
20.1371
20.1873
20.1398
20.1873
20.1394
20.1216
20.1216
20.121
20.121
20.1204
20.1204
20.1197
20.1197
20.1375
20.1504
20.1371
20.1507
20.1399
20.1873
20.1394
20.1873
20.0711
19.9938
20.0724
19.9957
20.2631
19.7735
20.2637
19.7764
19.9902
20.0685
19.9919
20.0697
19.7693
20.2613
19.7713
20.2622
20.1496
20.1377
20.15
20.1377
20.1869
20.1403
20.1871
20.1401
20.1224
20.1224
20.1221
20.1221
20.1212
20.1212
20.1209
20.1209
20.1378
20.1496
20.1377
20.1501
20.1403
20.1869
20.1402
20.1872
20.0685
19.9902
20.0698
19.9919
20.2615
19.7691
20.2622
19.7713
19.987
20.066
19.9885
20.0673
19.7655
20.2595
19.7671
20.2605
20.1484
20.1375
20.1491
20.1377
20.1861
20.1402
20.1866
20.1403
20.1225
20.1225
20.1225
20.1225
20.1215
20.1215
20.1214
20.1215
20.1375
20.1485
20.1377
20.1491
20.1402
20.1862
20.1403
20.1866
20.0661
19.9871
20.0673
19.9886
20.2597
19.7651
20.2606
19.767
19.9841
20.0637
19.9855
20.0649
19.7617
20.2576
19.7637
20.2585
20.147
20.1368
20.1478
20.1372
20.1849
20.1395
20.1855
20.1399
20.1221
20.1221
20.1223
20.1223
20.1211
20.1211
20.1214
20.1214
20.1367
20.147
20.1372
20.1478
20.1395
20.1848
20.1399
20.1855
20.0636
19.9841
20.0649
19.9856
20.2572
19.763
20.2585
19.7639
19.9813
20.0613
19.9827
20.0625
19.759
20.2552
19.7601
20.2565
20.1453
20.1356
20.1462
20.1362
20.1833
20.1383
20.1842
20.139
20.1211
20.1211
20.1216
20.1216
20.1202
20.1202
20.1207
20.1207
20.1356
20.1454
20.1362
20.1462
20.1384
20.1833
20.139
20.1841
20.0614
19.9814
20.0625
19.9828
20.2553
19.7591
20.2562
19.7612
19.9787
20.0589
19.98
20.0601
19.757
20.2524
19.758
20.2538
20.1433
20.1339
20.1444
20.1348
20.1811
20.1366
20.1822
20.1375
20.1197
20.1197
20.1204
20.1204
20.1187
20.1187
20.1195
20.1195
20.1339
20.1433
20.1348
20.1444
20.1366
20.1811
20.1376
20.1823
20.0589
19.9787
20.0602
19.98
20.2523
19.7577
20.2539
19.7582
19.976
20.0565
19.9773
20.0577
19.7548
20.2495
19.756
20.2509
20.1411
20.1319
20.1423
20.133
20.1786
20.1345
20.1799
20.1356
20.1178
20.1178
20.1188
20.1188
20.1167
20.1167
20.1178
20.1178
20.1319
20.1411
20.133
20.1422
20.1345
20.1786
20.1356
20.1799
20.0565
19.9762
20.0577
19.9775
20.2495
19.7555
20.2509
19.7566
19.9734
20.054
19.9747
20.0553
19.7526
20.2463
19.7537
20.2479
20.1387
20.1296
20.1399
20.1308
20.1758
20.1319
20.1773
20.1333
20.1155
20.1155
20.1167
20.1167
20.1143
20.1143
20.1156
20.1155
20.1295
20.1386
20.1308
20.1399
20.1319
20.1757
20.1332
20.1772
20.0539
19.9737
20.0552
19.975
20.2461
19.7539
20.2478
19.7547
19.9711
20.0514
19.9723
20.0527
19.7507
20.2428
19.7516
20.2446
20.136
20.1269
20.1374
20.1283
20.1726
20.129
20.1743
20.1305
20.1129
20.1129
20.1143
20.1143
20.1114
20.1114
20.1129
20.1129
20.1269
20.136
20.1283
20.1374
20.1289
20.1726
20.1305
20.1742
20.0515
19.9711
20.0527
19.9724
20.2428
19.7515
20.2446
19.7526
19.9682
20.049
19.9696
20.0502
19.7489
20.239
19.7498
20.2409
20.1333
20.1238
20.1347
20.1254
20.1691
20.1256
20.1709
20.1273
20.11
20.11
20.1115
20.1115
20.1082
20.1082
20.1099
20.1099
20.1238
20.1332
20.1254
20.1347
20.1256
20.169
20.1273
20.1708
20.0489
19.9685
20.0502
19.9698
20.239
19.7497
20.2408
19.7508
19.9658
20.0465
19.967
20.0478
19.7468
20.2352
19.7476
20.2373
20.1305
20.1205
20.1319
20.1222
20.1653
20.122
20.1673
20.1238
20.1068
20.1068
20.1084
20.1084
20.1047
20.1046
20.1065
20.1065
20.1205
20.1304
20.1221
20.1319
20.1219
20.1653
20.1238
20.1672
20.0465
19.9659
20.0478
19.9672
20.235
19.7478
20.2371
19.7487
19.9634
20.044
19.9645
20.0453
19.7457
20.2312
19.7464
20.2331
20.1275
20.1172
20.129
20.1189
20.1613
20.118
20.1633
20.12
20.1035
20.1035
20.1052
20.1052
20.1008
20.1008
20.1028
20.1028
20.1171
20.1275
20.1188
20.129
20.118
20.1612
20.12
20.1633
20.044
19.9636
20.0452
19.9648
20.231
19.7465
20.2331
19.7469
19.9614
20.0415
19.9624
20.0427
19.7453
20.2266
19.7454
20.229
20.1246
20.1137
20.1261
20.1154
20.157
20.1138
20.1592
20.1159
20.1001
20.1001
20.1018
20.1018
20.0967
20.0967
20.0988
20.0987
20.1137
20.1247
20.1154
20.1261
20.1138
20.157
20.1159
20.1591
20.0416
19.9613
20.0428
19.9624
20.2266
19.7458
20.2287
19.7463
19.9591
20.0396
19.9602
20.0405
19.7437
20.2227
19.7446
20.2246
20.1221
20.1104
20.1233
20.112
20.1529
20.1096
20.1549
20.1117
20.0967
20.0967
20.0984
20.0984
20.0925
20.0925
20.0946
20.0946
20.1104
20.1221
20.112
20.1234
20.1096
20.1528
20.1117
20.1549
20.0396
19.9592
20.0406
19.9601
20.2225
19.7443
20.2245
19.7451
19.9577
20.0375
19.9583
20.0386
19.7436
20.2183
19.7434
20.2205
20.1196
20.1072
20.1209
20.1088
20.1486
20.1054
20.1508
20.1075
20.0935
20.0935
20.0951
20.0951
20.0883
20.0883
20.0904
20.0904
20.1072
20.1197
20.1088
20.1209
20.1055
20.1488
20.1075
20.1508
20.0377
19.9576
20.0386
19.9583
20.2187
19.7425
20.2206
19.7434
19.9564
20.0361
19.957
20.0368
19.7425
20.2146
19.7429
20.2164
20.1167
20.1042
20.1182
20.1056
20.1445
20.1012
20.1466
20.1033
20.0904
20.0905
20.0919
20.0919
20.0842
20.0842
20.0863
20.0863
20.1042
20.1167
20.1057
20.1183
20.1012
20.1445
20.1033
20.1466
20.0363
19.9563
20.037
19.9568
20.2144
19.7428
20.2165
19.7426
19.9556
20.0352
19.9558
20.0357
19.7431
20.2107
19.7429
20.2126
20.1142
20.1015
20.1154
20.1028
20.1404
20.0972
20.1424
20.0992
20.0877
20.0877
20.089
20.089
20.0803
20.0803
20.0823
20.0822
20.1015
20.1141
20.1028
20.1154
20.0972
20.1404
20.0992
20.1424
20.0351
19.9558
20.0356
19.956
20.2107
19.7432
20.2125
19.743
19.9556
20.0347
19.9555
20.0349
19.7441
20.2073
19.7435
20.209
20.1122
20.0992
20.1131
20.1003
20.1366
20.0935
20.1384
20.0953
20.0855
20.0855
20.0865
20.0865
20.0768
20.0768
20.0785
20.0785
20.0992
20.1122
20.1003
20.1131
20.0935
20.1366
20.0953
20.1384
20.0348
19.9556
20.0349
19.9556
20.2073
19.7441
20.209
19.7436
19.9563
20.035
19.9558
20.0348
19.7459
20.2043
19.7449
20.2058
20.1108
20.0974
20.1114
20.0982
20.1333
20.0902
20.1349
20.0918
20.0837
20.0837
20.0845
20.0845
20.0737
20.0737
20.0751
20.0751
20.0974
20.1108
20.0982
20.1114
20.0902
20.1333
20.0918
20.1349
20.035
19.9563
20.0348
19.9558
20.2043
19.746
20.2058
19.7449
19.9578
20.0359
19.9569
20.0354
19.7488
20.2018
19.7472
20.203
20.11
20.0962
20.1103
20.0967
20.1304
20.0875
20.1317
20.0888
20.0826
20.0826
20.0831
20.0831
20.0711
20.0711
20.0723
20.0723
20.0962
20.11
20.0967
20.1103
20.0875
20.1304
20.0888
20.1318
20.036
19.9578
20.0354
19.9569
20.2018
19.7488
20.203
19.7473
19.9602
20.0377
19.9589
20.0367
19.7528
20.1998
19.7506
20.2007
20.1099
20.0957
20.1099
20.0959
20.128
20.0853
20.1291
20.0863
20.0823
20.0823
20.0824
20.0824
20.0694
20.0694
20.0702
20.0702
20.0957
20.1099
20.0959
20.1099
20.0853
20.128
20.0863
20.1291
20.0377
19.9602
20.0367
19.9589
20.1998
19.7528
20.2007
19.7507
19.9637
20.0402
19.9618
20.0388
19.758
20.1985
19.7552
20.1991
20.1104
20.0959
20.1101
20.0957
20.1263
20.0839
20.1271
20.0845
20.0828
20.0828
20.0824
20.0824
20.0684
20.0684
20.0688
20.0688
20.0959
20.1104
20.0957
20.1101
20.0839
20.1263
20.0845
20.1271
20.0402
19.9637
20.0388
19.9618
20.1985
19.758
20.1991
19.7552
19.9682
20.0434
19.9658
20.0417
19.7646
20.1979
19.7611
20.1981
20.1115
20.0968
20.1109
20.0962
20.1253
20.0834
20.1257
20.0835
20.0841
20.0841
20.0833
20.0833
20.0685
20.0685
20.0683
20.0683
20.0968
20.1115
20.0962
20.1109
20.0834
20.1253
20.0835
20.1257
20.0434
19.9682
20.0417
19.9658
20.1979
19.7646
20.1981
19.7611
19.974
20.0474
19.9709
20.0454
19.7728
20.1979
19.7685
20.1978
20.1133
20.0985
20.1123
20.0976
20.1248
20.0837
20.125
20.0834
20.0864
20.0864
20.0851
20.0851
20.0696
20.0696
20.0689
20.0689
20.0985
20.1133
20.0976
20.1123
20.0837
20.1248
20.0834
20.125
20.0474
19.974
20.0454
19.9709
20.1979
19.7728
20.1978
19.7685
19.9811
20.052
19.9774
20.0497
19.7828
20.1984
19.7776
20.1981
20.1155
20.101
20.1143
20.0997
20.125
20.085
20.1249
20.0842
20.0896
20.0896
20.0879
20.0879
20.0719
20.0719
20.0706
20.0706
20.101
20.1155
20.0997
20.1143
20.085
20.125
20.0842
20.1249
20.052
19.9811
20.0497
19.9774
20.1984
19.7828
20.1981
19.7776
19.9894
20.0571
19.9851
20.0545
19.795
20.1991
19.7886
20.1987
20.1181
20.1042
20.1168
20.1025
20.1258
20.0873
20.1254
20.086
20.0938
20.0938
20.0916
20.0916
20.0753
20.0753
20.0734
20.0734
20.1042
20.1181
20.1025
20.1168
20.0873
20.1258
20.086
20.1253
20.0571
19.9894
20.0545
19.9851
20.1991
19.795
20.1987
19.7886
19.9989
20.0626
19.9941
20.0598
19.81
20.1995
19.8021
20.1994
20.121
20.1081
20.1195
20.1061
20.1269
20.0906
20.1263
20.0888
20.0989
20.0989
20.0962
20.0962
20.0799
20.0799
20.0775
20.0775
20.1081
20.121
20.1061
20.1195
20.0906
20.1268
20.0888
20.1263
20.0626
19.9989
20.0598
19.9941
20.1995
19.81
20.1994
19.8021
20.0074
20.0699
20.0037
20.0658
19.829
20.1982
19.819
20.1991
20.1242
20.1128
20.1225
20.1104
20.1281
20.095
20.1275
20.0926
20.1049
20.1049
20.1017
20.1017
20.0857
20.0857
20.0827
20.0827
20.1128
20.1242
20.1104
20.1225
20.095
20.1281
20.0926
20.1274
20.0699
20.0074
20.0657
20.0037
20.1981
19.829
20.1991
19.819
20.0143
20.0784
20.009
20.076
19.8527
20.193
19.8401
20.1963
20.129
20.1187
20.1264
20.1156
20.1301
20.1006
20.129
20.0976
20.1118
20.1118
20.1082
20.1082
20.0927
20.0927
20.089
20.089
20.1187
20.129
20.1156
20.1264
20.1006
20.1301
20.0976
20.129
20.0784
20.0143
20.076
20.009
20.193
19.8527
20.1963
19.8401
20.3374
19.975
20.2611
20.0036
20.3066
19.97
20.2438
19.9998
20.029
20.0791
20.0543
20.0899
20.0472
20.0898
20.0651
20.0957
20.0986
20.0986
20.1015
20.1015
20.0997
20.0997
20.1009
20.1009
20.0791
20.029
20.0899
20.0543
20.0898
20.0473
20.0957
20.0651
19.975
20.3373
20.0036
20.261
19.97
20.3065
19.9998
20.2438
20.2474
20.0492
20.2775
20.0293
20.2238
20.0333
20.2537
20.0156
20.0513
20.0769
20.0428
20.0776
20.0674
20.0886
20.059
20.0887
20.091
20.091
20.0948
20.0948
20.0953
20.0953
20.0977
20.0977
20.0769
20.0513
20.0776
20.0429
20.0886
20.0674
20.0887
20.059
20.0492
20.2473
20.0293
20.2774
20.0334
20.2237
20.0156
20.2536
20.2229
20.0552
20.2328
20.0548
20.1942
20.0401
20.2068
20.0391
20.0623
20.0807
20.0577
20.0785
20.0803
20.0938
20.0744
20.0909
20.0893
20.0893
20.0894
20.0894
20.0944
20.0944
20.0943
20.0943
20.0807
20.0623
20.0785
20.0577
20.0938
20.0803
20.0909
20.0744
20.0552
20.2228
20.0548
20.2327
20.0401
20.1942
20.0391
20.2068
20.2101
20.0511
20.2156
20.0536
20.1768
20.0366
20.1844
20.0389
20.067
20.0853
20.0652
20.083
20.0877
20.0995
20.0846
20.0967
20.0915
20.0915
20.0901
20.0901
20.0968
20.0968
20.0953
20.0953
20.0853
20.067
20.083
20.0653
20.0995
20.0877
20.0967
20.0846
20.0511
20.21
20.0536
20.2155
20.0366
20.1768
20.0389
20.1844
20.2023
20.0453
20.2058
20.0482
20.1657
20.0307
20.1707
20.0337
20.0682
20.0893
20.0679
20.0874
20.0912
20.1046
20.0899
20.1021
20.0954
20.0954
20.0933
20.0933
20.1008
20.1008
20.0986
20.0986
20.0893
20.0682
20.0874
20.0679
20.1046
20.0912
20.1021
20.0899
20.0453
20.2023
20.0482
20.2057
20.0307
20.1657
20.0337
20.1707
20.1971
20.0397
20.1995
20.0424
20.1581
20.0251
20.1616
20.0278
20.0678
20.0923
20.0681
20.0909
20.092
20.1088
20.0918
20.1068
20.0993
20.0993
20.0973
20.0973
20.1051
20.1051
20.1029
20.1029
20.0923
20.0678
20.0909
20.0681
20.1088
20.092
20.1068
20.0918
20.0397
20.1971
20.0424
20.1995
20.0251
20.1581
20.0279
20.1616
20.1934
20.0346
20.1951
20.0371
20.1527
20.0198
20.1552
20.0224
20.0667
20.0945
20.0673
20.0935
20.0918
20.1122
20.092
20.1106
20.1029
20.1029
20.1012
20.1012
20.1092
20.1092
20.1072
20.1072
20.0945
20.0667
20.0935
20.0673
20.1122
20.0918
20.1106
20.092
20.0346
20.1934
20.0371
20.1951
20.0198
20.1527
20.0224
20.1552
20.1905
20.0301
20.1919
20.0323
20.1485
20.0152
20.1505
20.0174
20.0653
20.096
20.066
20.0953
20.091
20.1147
20.0914
20.1135
20.1059
20.1059
20.1045
20.1045
20.1126
20.1126
20.111
20.111
20.096
20.0653
20.0953
20.066
20.1147
20.091
20.1135
20.0915
20.0302
20.1905
20.0323
20.1919
20.0152
20.1485
20.0174
20.1505
20.1881
20.0262
20.1892
20.0281
20.145
20.0111
20.1467
20.013
20.0638
20.097
20.0646
20.0966
20.09
20.1166
20.0906
20.1157
20.1082
20.1082
20.1071
20.1071
20.1153
20.1153
20.114
20.114
20.097
20.0638
20.0966
20.0646
20.1166
20.09
20.1157
20.0906
20.0262
20.1881
20.0281
20.1893
20.0111
20.1451
20.013
20.1468
20.186
20.0227
20.187
20.0244
20.1423
20.0074
20.1436
20.0092
20.0622
20.0975
20.063
20.0973
20.0888
20.1177
20.0895
20.1172
20.1098
20.1098
20.1091
20.1091
20.1172
20.1172
20.1163
20.1163
20.0975
20.0622
20.0973
20.063
20.1177
20.0889
20.1172
20.0895
20.0227
20.186
20.0244
20.187
20.0075
20.1422
20.0092
20.1435
20.1842
20.0194
20.1851
20.021
20.1397
20.0041
20.141
20.0057
20.0605
20.0975
20.0613
20.0975
20.0875
20.1183
20.0882
20.1181
20.1107
20.1107
20.1103
20.1103
20.1185
20.1185
20.1179
20.1179
20.0975
20.0605
20.0975
20.0614
20.1183
20.0875
20.1181
20.0882
20.0194
20.1842
20.021
20.1851
20.0041
20.1397
20.0057
20.1409
20.1824
20.0164
20.1833
20.0179
20.1375
20.0009
20.1386
20.0025
20.0587
20.0971
20.0596
20.0973
20.0859
20.1183
20.0867
20.1184
20.1111
20.1111
20.111
20.111
20.1191
20.1191
20.1189
20.1189
20.0971
20.0587
20.0973
20.0596
20.1183
20.086
20.1184
20.0868
20.0164
20.1824
20.0179
20.1833
20.001
20.1375
20.0025
20.1385
20.1806
20.0135
20.1816
20.0149
20.1353
19.998
20.1365
19.9994
20.0569
20.0963
20.0578
20.0967
20.0843
20.1179
20.0851
20.1182
20.111
20.111
20.1111
20.1111
20.1192
20.1192
20.1192
20.1192
20.0963
20.0569
20.0968
20.0578
20.1179
20.0843
20.1182
20.0852
20.0136
20.1807
20.0149
20.1816
19.998
20.1355
19.9994
20.1365
20.1788
20.0108
20.1797
20.0121
20.1333
19.9952
20.1343
19.9966
20.0549
20.0953
20.0559
20.0959
20.0825
20.117
20.0835
20.1175
20.1104
20.1104
20.1108
20.1108
20.1187
20.1187
20.119
20.119
20.0953
20.055
20.0959
20.0559
20.117
20.0826
20.1175
20.0835
20.0109
20.1788
20.0122
20.1798
19.9954
20.1332
19.9967
20.1344
20.177
20.0082
20.1779
20.0094
20.1312
19.9925
20.1323
19.9938
20.053
20.094
20.054
20.0947
20.0806
20.1157
20.0816
20.1164
20.1094
20.1094
20.11
20.11
20.1177
20.1177
20.1182
20.1182
20.094
20.053
20.0947
20.054
20.1158
20.0806
20.1164
20.0816
20.0082
20.177
20.0095
20.1779
19.9926
20.1313
19.994
20.1322
20.1749
20.0056
20.176
20.0069
20.1289
19.99
20.1301
19.9913
20.0509
20.0924
20.0519
20.0932
20.0785
20.1141
20.0796
20.115
20.1081
20.1081
20.1088
20.1088
20.1163
20.1163
20.1171
20.1171
20.0924
20.051
20.0932
20.052
20.1141
20.0785
20.115
20.0796
20.0057
20.1749
20.0069
20.176
19.9899
20.1292
19.9912
20.1303
20.1729
20.0031
20.1739
20.0044
20.1269
19.9874
20.1278
19.9888
20.0488
20.0906
20.0499
20.0915
20.0763
20.1121
20.0774
20.1132
20.1065
20.1065
20.1074
20.1074
20.1146
20.1146
20.1155
20.1155
20.0906
20.0489
20.0916
20.05
20.1122
20.0763
20.1132
20.0774
20.0033
20.1728
20.0045
20.1738
19.9875
20.1269
19.9887
20.128
20.1708
20.0007
20.1719
20.0019
20.1248
19.9848
20.1259
19.986
20.0467
20.0887
20.0478
20.0897
20.0739
20.1099
20.0751
20.111
20.1047
20.1047
20.1056
20.1057
20.1125
20.1125
20.1136
20.1136
20.0887
20.0468
20.0897
20.0478
20.1099
20.0739
20.1111
20.0751
20.0008
20.1707
20.002
20.1718
19.9848
20.1248
19.9861
20.1259
20.169
19.9982
20.17
19.9994
20.1228
19.9822
20.1238
19.9835
20.0445
20.0867
20.0456
20.0877
20.0714
20.1074
20.0727
20.1086
20.1028
20.1028
20.1038
20.1038
20.1103
20.1103
20.1114
20.1114
20.0867
20.0446
20.0877
20.0457
20.1075
20.0716
20.1086
20.0728
19.9983
20.169
19.9995
20.1699
19.9825
20.1225
19.9836
20.1237
20.1669
19.9961
20.168
19.9971
20.1203
19.98
20.1216
19.981
20.0425
20.0847
20.0435
20.0857
20.0691
20.1053
20.0703
20.1064
20.1008
20.1008
20.1018
20.1018
20.1078
20.1078
20.109
20.109
20.0847
20.0426
20.0857
20.0436
20.1053
20.0691
20.1064
20.0703
19.9962
20.1669
19.9972
20.1679
19.9799
20.1205
19.9812
20.1215
20.1654
19.9939
20.1661
19.995
20.1184
19.9775
20.1194
19.9787
20.0405
20.0825
20.0415
20.0837
20.0666
20.1031
20.0678
20.1042
20.0986
20.0986
20.0996
20.0996
20.1052
20.1052
20.1065
20.1065
20.0826
20.0406
20.0837
20.0416
20.1031
20.0667
20.1042
20.0679
19.994
20.1653
19.9951
20.166
19.9778
20.1182
19.9789
20.1193
20.1632
19.9924
20.1643
19.9931
20.1161
19.9757
20.1172
19.9766
20.0389
20.0809
20.0397
20.0817
20.0642
20.1006
20.0654
20.1018
20.0966
20.0966
20.0975
20.0975
20.1026
20.1026
20.1039
20.1039
20.0809
20.039
20.0818
20.0398
20.1005
20.0642
20.1018
20.0654
19.9925
20.1632
19.9933
20.1642
19.9756
20.1164
19.9766
20.1174
20.1619
19.9909
20.1625
19.9916
20.1144
19.9738
20.1153
19.9747
20.0375
20.0793
20.0382
20.0801
20.0618
20.0981
20.063
20.0993
20.0947
20.0947
20.0956
20.0956
20.1
20.1
20.1013
20.1013
20.0793
20.0375
20.0801
20.0382
20.0981
20.0619
20.0993
20.063
19.9909
20.1621
19.9916
20.1626
19.974
20.1144
19.9747
20.1154
20.1604
19.9901
20.1612
19.9904
20.1126
19.9726
20.1135
19.9731
20.0365
20.0779
20.0369
20.0786
20.0595
20.0959
20.0607
20.097
20.093
20.093
20.0938
20.0938
20.0976
20.0976
20.0988
20.0988
20.0779
20.0365
20.0786
20.0369
20.0959
20.0594
20.097
20.0607
19.9901
20.1607
19.9904
20.1613
19.9723
20.113
19.9731
20.1137
20.1599
19.9895
20.1601
19.9897
20.1118
19.9714
20.1121
19.9719
20.0361
20.0769
20.0361
20.0774
20.057
20.0939
20.0582
20.0949
20.0917
20.0917
20.0923
20.0923
20.0955
20.0955
20.0965
20.0965
20.0769
20.036
20.0774
20.0361
20.0939
20.057
20.0949
20.0582
19.9894
20.1602
19.9897
20.1604
19.9714
20.1117
19.9718
20.1123
20.1592
19.9896
20.1596
19.9895
20.1109
19.9709
20.1113
19.971
20.0358
20.0763
20.036
20.0766
20.057
20.0923
20.0565
20.093
20.0907
20.0907
20.0911
20.0911
20.0936
20.0936
20.0945
20.0945
20.0763
20.0358
20.0766
20.036
20.0923
20.057
20.0931
20.0565
19.9895
20.1595
19.9893
20.1598
19.9708
20.1111
19.971
20.1114
20.1597
19.99
20.1594
19.9897
20.1106
19.9711
20.1107
19.9709
20.0361
20.0761
20.0359
20.0761
20.0574
20.0911
20.0573
20.0917
20.0901
20.0901
20.0904
20.0904
20.092
20.092
20.0927
20.0927
20.0761
20.0361
20.0761
20.0359
20.0912
20.0575
20.0917
20.0572
19.9901
20.1596
19.9897
20.1594
19.9711
20.1105
19.9709
20.1108
20.1602
19.9915
20.1599
19.9905
20.1106
19.9721
20.1105
19.9714
20.0371
20.0764
20.0365
20.0762
20.058
20.0905
20.0577
20.0907
20.0901
20.0901
20.09
20.0901
20.091
20.091
20.0915
20.0915
20.0764
20.0372
20.0762
20.0365
20.0905
20.058
20.0908
20.0577
19.9915
20.1602
19.9906
20.1598
19.9721
20.1106
19.9715
20.1105
20.1615
19.9937
20.1608
19.9925
20.1114
19.9736
20.1109
19.9727
20.0389
20.0774
20.0379
20.0769
20.059
20.0903
20.0585
20.0903
20.0907
20.0907
20.0903
20.0903
20.0906
20.0906
20.0907
20.0907
20.0774
20.0389
20.0769
20.0379
20.0903
20.059
20.0903
20.0585
19.9937
20.1615
19.9925
20.1608
19.9736
20.1114
19.9727
20.1109
20.1633
19.9968
20.1624
19.995
20.1129
19.9757
20.112
19.9746
20.0412
20.079
20.04
20.0781
20.0606
20.0908
20.0597
20.0905
20.0919
20.0919
20.0912
20.0912
20.0909
20.0909
20.0907
20.0907
20.079
20.0412
20.0781
20.04
20.0908
20.0606
20.0905
20.0597
19.9968
20.1633
19.9951
20.1623
19.9758
20.1129
19.9746
20.112
20.1658
20.0014
20.1645
19.9989
20.1151
19.9782
20.1139
19.9769
20.0443
20.0812
20.0427
20.08
20.0627
20.092
20.0616
20.0913
20.0937
20.0937
20.0927
20.0927
20.0918
20.0918
20.0913
20.0913
20.0812
20.0443
20.08
20.0427
20.092
20.0627
20.0913
20.0616
20.0014
20.1658
19.9989
20.1645
19.9782
20.1151
19.9769
20.1139
20.1688
20.0043
20.1672
20.0027
20.1181
19.983
20.1165
19.9805
20.0478
20.0841
20.046
20.0826
20.0655
20.0937
20.0641
20.0928
20.0962
20.0962
20.0949
20.0949
20.0935
20.0935
20.0926
20.0926
20.0841
20.0478
20.0826
20.046
20.0937
20.0655
20.0928
20.0641
20.0043
20.1687
20.0027
20.1672
19.983
20.118
19.9805
20.1165
20.1723
20.0085
20.1705
20.0063
20.1218
19.9881
20.1198
19.9854
20.052
20.0875
20.0498
20.0858
20.0689
20.0962
20.0672
20.0949
20.0993
20.0993
20.0977
20.0977
20.096
20.096
20.0946
20.0946
20.0875
20.052
20.0858
20.0498
20.0962
20.0689
20.0949
20.0672
20.0085
20.1722
20.0063
20.1704
19.9881
20.1218
19.9854
20.1198
20.1761
20.0135
20.1742
20.0109
20.1262
19.9936
20.1239
19.9908
20.0566
20.0915
20.0542
20.0895
20.0728
20.0993
20.0708
20.0976
20.103
20.103
20.1011
20.1011
20.0991
20.0991
20.0975
20.0975
20.0915
20.0566
20.0895
20.0542
20.0993
20.0728
20.0976
20.0708
20.0135
20.1761
20.0109
20.1741
19.9936
20.1262
19.9908
20.1239
20.18
20.0191
20.1781
20.0162
20.1312
19.9998
20.1287
19.9966
20.0617
20.0959
20.0591
20.0936
20.0772
20.1029
20.075
20.101
20.1073
20.1073
20.1051
20.1051
20.103
20.103
20.101
20.101
20.0959
20.0617
20.0936
20.0591
20.1029
20.0772
20.101
20.075
20.0191
20.1799
20.0162
20.178
19.9998
20.1312
19.9966
20.1286
20.1833
20.0254
20.1818
20.0221
20.1364
20.0066
20.1338
20.0031
20.0672
20.1006
20.0644
20.0982
20.0819
20.107
20.0795
20.1049
20.112
20.112
20.1096
20.1096
20.1076
20.1076
20.1052
20.1052
20.1006
20.0672
20.0982
20.0644
20.107
20.0819
20.1049
20.0795
20.0253
20.1833
20.0221
20.1817
20.0066
20.1364
20.0031
20.1338
20.1848
20.033
20.1844
20.0289
20.1411
20.0143
20.1389
20.0102
20.073
20.1055
20.0701
20.103
20.0869
20.1115
20.0844
20.1092
20.1171
20.1171
20.1145
20.1145
20.1127
20.1127
20.1101
20.1101
20.1055
20.073
20.103
20.0701
20.1115
20.0869
20.1092
20.0844
20.033
20.1847
20.0289
20.1844
20.0143
20.1411
20.0102
20.1389
20.1782
20.0468
20.1834
20.0383
20.1406
20.0263
20.1422
20.0192
20.0793
20.1106
20.0761
20.108
20.092
20.1164
20.0894
20.1139
20.1228
20.1228
20.1199
20.1199
20.1186
20.1186
20.1156
20.1156
20.1106
20.0793
20.108
20.0761
20.1164
20.092
20.1139
20.0894
20.0468
20.1782
20.0383
20.1834
20.0263
20.1406
20.0192
20.1422
20.1941
20.0407
20.172
20.0567
20.1552
20.0239
20.1377
20.0347
20.0811
20.1167
20.0822
20.1134
20.0955
20.1224
20.0949
20.1193
20.1292
20.1292
20.1259
20.1259
20.1251
20.1251
20.1218
20.1218
20.1167
20.0811
20.1134
20.0822
20.1224
20.0955
20.1193
20.0949
20.0407
20.194
20.0567
20.172
20.0239
20.1551
20.0347
20.1377
20.3577
19.9953
20.275
20.0158
20.3499
19.9861
20.2693
20.0102
20.0114
20.0626
20.0423
20.0799
20.0174
20.0695
20.0465
20.0841
20.0904
20.0904
20.0982
20.0982
20.0949
20.0949
20.1003
20.1003
20.0626
20.0114
20.0799
20.0423
20.0696
20.0174
20.0842
20.0465
19.9953
20.3576
20.0158
20.2749
19.9861
20.3497
20.0102
20.2692
20.2437
20.0896
20.2798
20.0641
20.2477
20.0714
20.2806
20.0486
20.0448
20.0608
20.0331
20.0616
20.0455
20.0673
20.0353
20.0682
20.077
20.077
20.0833
20.0833
20.0841
20.0841
20.0892
20.0892
20.0608
20.0448
20.0616
20.0332
20.0674
20.0455
20.0682
20.0353
20.0896
20.2437
20.0641
20.2798
20.0714
20.2476
20.0486
20.2805
20.2185
20.0979
20.2281
20.0967
20.2236
20.0787
20.233
20.0779
20.0583
20.0641
20.0531
20.0622
20.0572
20.0707
20.0525
20.0688
20.0732
20.0732
20.0741
20.0741
20.0813
20.0813
20.0819
20.0819
20.0641
20.0583
20.0622
20.0531
20.0708
20.0572
20.0688
20.0525
20.0979
20.2185
20.0967
20.228
20.0787
20.2236
20.0779
20.2329
20.2073
20.0952
20.212
20.097
20.2122
20.0753
20.217
20.0774
20.0624
20.0676
20.061
20.066
20.0612
20.0745
20.0598
20.0727
20.0746
20.0746
20.0735
20.0735
20.0831
20.0831
20.0819
20.0819
20.0676
20.0624
20.066
20.061
20.0745
20.0612
20.0727
20.0598
20.0952
20.2073
20.097
20.212
20.0754
20.2122
20.0774
20.217
20.2008
20.091
20.2037
20.0931
20.2055
20.0704
20.2085
20.0729
20.0628
20.0701
20.0629
20.069
20.0617
20.0774
20.0617
20.076
20.0775
20.0775
20.076
20.076
20.0863
20.0863
20.0847
20.0847
20.0701
20.0628
20.069
20.0629
20.0774
20.0617
20.076
20.0617
20.091
20.2008
20.0931
20.2037
20.0704
20.2055
20.0729
20.2085
20.1964
20.0868
20.1984
20.0888
20.201
20.0657
20.2031
20.068
20.0621
20.0718
20.0625
20.0711
20.0609
20.0795
20.0614
20.0785
20.0804
20.0804
20.079
20.079
20.0899
20.0899
20.0882
20.0882
20.0718
20.0621
20.0711
20.0625
20.0795
20.0609
20.0785
20.0614
20.0868
20.1964
20.0888
20.1984
20.0657
20.201
20.068
20.203
20.1931
20.0831
20.1947
20.0849
20.1977
20.0614
20.1992
20.0634
20.0609
20.0727
20.0615
20.0723
20.0596
20.0809
20.0603
20.0803
20.0828
20.0828
20.0817
20.0817
20.0929
20.0929
20.0914
20.0915
20.0727
20.0609
20.0723
20.0615
20.0809
20.0596
20.0803
20.0603
20.0831
20.1931
20.0849
20.1947
20.0614
20.1977
20.0635
20.1992
20.1906
20.0797
20.1918
20.0814
20.1951
20.0575
20.1964
20.0594
20.0595
20.0732
20.0602
20.073
20.058
20.0818
20.0588
20.0814
20.0847
20.0847
20.0838
20.0838
20.0953
20.0953
20.0942
20.0942
20.0732
20.0596
20.073
20.0602
20.0818
20.058
20.0814
20.0588
20.0798
20.1906
20.0814
20.1918
20.0576
20.1951
20.0594
20.1964
20.1884
20.0767
20.1894
20.0782
20.193
20.0541
20.194
20.0558
20.0581
20.0734
20.0588
20.0733
20.0564
20.0823
20.0572
20.0821
20.086
20.086
20.0854
20.0854
20.097
20.097
20.0962
20.0962
20.0734
20.0581
20.0734
20.0588
20.0823
20.0564
20.0821
20.0572
20.0768
20.1884
20.0782
20.1894
20.0542
20.193
20.0558
20.194
20.1865
20.074
20.1874
20.0753
20.1911
20.051
20.192
20.0525
20.0565
20.0732
20.0573
20.0733
20.0547
20.0823
20.0556
20.0823
20.0867
20.0867
20.0864
20.0864
20.0982
20.0982
20.0977
20.0977
20.0732
20.0565
20.0733
20.0573
20.0823
20.0547
20.0823
20.0556
20.074
20.1865
20.0753
20.1874
20.0511
20.1911
20.0526
20.192
20.1848
20.0714
20.1856
20.0727
20.1894
20.0482
20.1902
20.0496
20.0549
20.0726
20.0557
20.0729
20.053
20.082
20.0538
20.0822
20.087
20.087
20.0869
20.0869
20.0987
20.0987
20.0985
20.0985
20.0726
20.0549
20.0729
20.0557
20.082
20.053
20.0822
20.0538
20.0714
20.1848
20.0727
20.1856
20.0482
20.1894
20.0496
20.1902
20.1831
20.069
20.184
20.0702
20.1877
20.0455
20.1886
20.0468
20.0532
20.0718
20.054
20.0723
20.0511
20.0813
20.052
20.0817
20.0869
20.0869
20.087
20.087
20.0989
20.0989
20.0989
20.0989
20.0719
20.0532
20.0723
20.054
20.0814
20.0512
20.0817
20.0521
20.069
20.1831
20.0702
20.184
20.0455
20.1877
20.0468
20.1886
20.1815
20.0666
20.1823
20.0678
20.1861
20.0429
20.1869
20.0441
20.0514
20.0708
20.0523
20.0714
20.0493
20.0804
20.0502
20.0809
20.0864
20.0864
20.0867
20.0867
20.0985
20.0985
20.0987
20.0988
20.0708
20.0514
20.0714
20.0523
20.0805
20.0493
20.0809
20.0502
20.0667
20.1815
20.0678
20.1823
20.0429
20.1861
20.0442
20.1869
20.1798
20.0643
20.1807
20.0655
20.1844
20.0404
20.1852
20.0416
20.0495
20.0696
20.0504
20.0702
20.0473
20.0793
20.0483
20.0799
20.0856
20.0856
20.0861
20.0861
20.0978
20.0978
20.0982
20.0982
20.0696
20.0495
20.0702
20.0504
20.0793
20.0474
20.0799
20.0483
20.0644
20.1798
20.0655
20.1807
20.0404
20.1844
20.0416
20.1853
20.1781
20.0621
20.179
20.0632
20.1826
20.0379
20.1835
20.0391
20.0476
20.0682
20.0485
20.0689
20.0453
20.0779
20.0463
20.0786
20.0846
20.0846
20.0851
20.0851
20.0968
20.0968
20.0974
20.0974
20.0682
20.0476
20.0689
20.0486
20.0779
20.0454
20.0786
20.0464
20.0621
20.1781
20.0632
20.179
20.0379
20.1826
20.0391
20.1835