/*--------------------------------*- C++ -*----------------------------------*\
  =========                 |
  \\      /  F ield         | OpenFOAM: The Open Source CFD Toolbox
   \\    /   O peration     | Website:  https://openfoam.org
    \\  /    A nd           | Version:  9
     \\/     M anipulation  |
\*---------------------------------------------------------------------------*/
FoamFile
{
    format      ascii;
    class       surfaceScalarField;
    location    "0.8";
    object      phi;
}
// * * * * * * * * * * * * * * * * * * * * * * * * * * * * * * * * * * * * * //

dimensions      [0 3 -1 0 0 0 0];

internalField   nonuniform List<scalar> 
12376
(
4.60641e-10
0.000206376
1.48691e-07
-6.19212e-12
0.000206376
1.49171e-07
5.66762e-12
0.000206375
1.49081e-07
-4.62723e-10
0.000206376
1.49183e-07
0.000206376
1.4871e-07
-4.59561e-10
0.000206209
1.67602e-07
-3.91798e-11
0.000206209
1.66856e-07
3.79866e-11
0.000206208
1.667e-07
4.54531e-10
0.000206209
1.66868e-07
0.000206209
1.6762e-07
-2.96494e-10
0.000205977
2.32219e-07
-2.66754e-11
0.000205976
2.3206e-07
2.64995e-11
0.000205976
2.32052e-07
2.90661e-10
0.000205976
2.32071e-07
0.000205977
2.32236e-07
-1.58409e-10
0.000205638
3.39315e-07
-3.90797e-11
0.000205637
3.39545e-07
4.0633e-11
0.000205637
3.39551e-07
1.53352e-10
0.000205637
3.39552e-07
0.000205638
3.39327e-07
-1.23822e-10
0.000205161
4.77217e-07
-7.92833e-11
0.000205159
4.77337e-07
8.28745e-11
0.000205159
4.77231e-07
1.20404e-10
0.000205159
4.77341e-07
0.000205161
4.77222e-07
-9.18103e-11
0.000204521
6.39374e-07
-9.0002e-11
0.00020452
6.39423e-07
9.5401e-11
0.00020452
6.39231e-07
9.01355e-11
0.00020452
6.39423e-07
0.000204521
6.39374e-07
-5.28424e-11
0.000203699
8.22023e-07
-9.61263e-11
0.000203698
8.22093e-07
1.02909e-10
0.000203698
8.21841e-07
5.29398e-11
0.000203698
8.22092e-07
0.000203699
8.22021e-07
-1.10519e-11
0.000202678
1.02173e-06
-1.00246e-10
0.000202676
1.02185e-06
1.07855e-10
0.000202676
1.02154e-06
1.2855e-11
0.000202676
1.02185e-06
0.000202678
1.02173e-06
3.36225e-11
0.000201441
1.23667e-06
-1.02122e-10
0.000201439
1.23683e-06
1.101e-10
0.000201439
1.23646e-06
-3.05431e-11
0.000201439
1.23683e-06
0.000201441
1.23667e-06
8.24409e-11
0.000199975
1.46578e-06
-1.00814e-10
0.000199974
1.46599e-06
1.08888e-10
0.000199974
1.46556e-06
-7.85318e-11
0.000199974
1.46599e-06
0.000199975
1.46578e-06
1.36161e-10
0.000198265
1.70957e-06
-1.03026e-10
0.000198264
1.70984e-06
1.08737e-10
0.000198264
1.70934e-06
-1.3227e-10
0.000198264
1.70984e-06
0.000198265
1.70957e-06
1.96208e-10
0.000196296
1.96919e-06
-1.07083e-10
0.000196295
1.96953e-06
1.11314e-10
0.000196295
1.96895e-06
-1.92533e-10
0.000196295
1.96953e-06
0.000196296
1.96919e-06
2.6374e-10
0.000194052
2.24409e-06
-1.09949e-10
0.000194051
2.24451e-06
1.12488e-10
0.000194051
2.24384e-06
-2.60709e-10
0.000194051
2.24451e-06
0.000194052
2.24408e-06
3.39809e-10
0.000191515
2.53674e-06
-1.11765e-10
0.000191514
2.53726e-06
1.1264e-10
0.000191514
2.5365e-06
-3.37833e-10
0.000191514
2.53726e-06
0.000191515
2.53674e-06
4.24749e-10
0.00018867
2.84385e-06
-1.12148e-10
0.00018867
2.84448e-06
1.11771e-10
0.00018867
2.84363e-06
-4.24057e-10
0.00018867
2.84449e-06
0.00018867
2.84385e-06
5.19059e-10
0.000185503
3.1663e-06
-1.10837e-10
0.000185503
3.16706e-06
1.10098e-10
0.000185504
3.1661e-06
-5.19493e-10
0.000185503
3.16706e-06
0.000185503
3.1663e-06
6.23007e-10
0.000182001
3.50177e-06
-1.07531e-10
0.000182002
3.50269e-06
1.07666e-10
0.000182002
3.50162e-06
-6.23934e-10
0.000182002
3.50269e-06
0.000182001
3.50177e-06
7.36334e-10
0.000178153
3.84684e-06
-1.02051e-10
0.000178154
3.84793e-06
1.04257e-10
0.000178155
3.84675e-06
-7.36884e-10
0.000178154
3.84793e-06
0.000178153
3.84684e-06
8.5857e-10
0.000173953
4.19988e-06
-9.4516e-11
0.000173954
4.20116e-06
9.95599e-11
0.000173955
4.19988e-06
-8.58069e-10
0.000173954
4.20117e-06
0.000173953
4.19988e-06
9.87925e-10
0.000169397
4.55438e-06
-8.51128e-11
0.000169399
4.55588e-06
9.30551e-11
0.0001694
4.55449e-06
-9.86089e-10
0.000169399
4.55589e-06
0.000169397
4.55438e-06
1.12286e-09
0.000164488
4.90783e-06
-7.41516e-11
0.000164491
4.90958e-06
8.45565e-11
0.000164492
4.90808e-06
-1.11998e-09
0.000164491
4.90958e-06
0.000164488
4.90784e-06
1.26109e-09
0.000159233
5.25431e-06
-6.18087e-11
0.000159236
5.25632e-06
7.40547e-11
0.000159237
5.25472e-06
-1.25743e-09
0.000159236
5.25632e-06
0.000159233
5.25432e-06
1.40039e-09
0.000153643
5.58809e-06
-4.7962e-11
0.000153647
5.59039e-06
6.16032e-11
0.000153649
5.58869e-06
-1.39635e-09
0.000153647
5.59039e-06
0.000153643
5.5881e-06
1.53854e-09
0.000147738
5.90385e-06
-3.27871e-11
0.000147742
5.90644e-06
4.74763e-11
0.000147744
5.90466e-06
-1.53421e-09
0.000147742
5.90644e-06
0.000147738
5.90385e-06
1.67344e-09
0.00014154
6.19609e-06
-1.63386e-11
0.000141545
6.19899e-06
3.12454e-11
0.000141547
6.19713e-06
-1.66872e-09
0.000141545
6.19899e-06
0.00014154
6.19609e-06
1.80227e-09
0.000135079
6.45931e-06
9.41574e-13
0.000135084
6.46252e-06
1.31807e-11
0.000135086
6.4606e-06
-1.79784e-09
0.000135084
6.46252e-06
0.000135079
6.45931e-06
1.92274e-09
0.000128388
6.68917e-06
1.86649e-11
0.000128394
6.69269e-06
-6.65751e-12
0.000128396
6.69072e-06
-1.91879e-09
0.000128394
6.69269e-06
0.000128388
6.68917e-06
2.03237e-09
0.000121504
6.88166e-06
3.66473e-11
0.00012151
6.88548e-06
-2.81584e-11
0.000121512
6.88348e-06
-2.02949e-09
0.00012151
6.88547e-06
0.000121504
6.88166e-06
2.12898e-09
0.000114469
7.03334e-06
5.48288e-11
0.000114475
7.03743e-06
-5.05624e-11
0.000114477
7.03542e-06
-2.1277e-09
0.000114475
7.03743e-06
0.000114469
7.03334e-06
2.21128e-09
0.000107323
7.14332e-06
7.32674e-11
0.000107329
7.14765e-06
-7.35513e-11
0.000107331
7.14565e-06
-2.21202e-09
0.000107329
7.14765e-06
0.000107323
7.14332e-06
2.27842e-09
0.00010011
7.21075e-06
9.16547e-11
0.000100116
7.21529e-06
-9.65921e-11
0.000100118
7.2133e-06
-2.28132e-09
0.000100116
7.21529e-06
0.00010011
7.21075e-06
2.3306e-09
9.28713e-05
7.23683e-06
1.10552e-10
9.2877e-05
7.24155e-06
-1.18951e-10
9.28789e-05
7.23958e-06
-2.33495e-09
9.2877e-05
7.24155e-06
9.28713e-05
7.23684e-06
2.36825e-09
8.56443e-05
7.22461e-06
1.29523e-10
8.56498e-05
7.22945e-06
-1.40471e-10
8.56517e-05
7.22752e-06
-2.37374e-09
8.56498e-05
7.22945e-06
8.56443e-05
7.22461e-06
2.39308e-09
7.84638e-05
7.17809e-06
1.49324e-10
7.8469e-05
7.18301e-06
-1.6074e-10
7.84709e-05
7.18113e-06
-2.39868e-09
7.8469e-05
7.18301e-06
7.84638e-05
7.1781e-06
2.40642e-09
7.13579e-05
7.10354e-06
1.69486e-10
7.13627e-05
7.1085e-06
-1.79683e-10
7.13645e-05
7.10668e-06
-2.41201e-09
7.13627e-05
7.10851e-06
7.13579e-05
7.10355e-06
2.411e-09
6.4347e-05
7.00842e-06
1.90824e-10
6.43516e-05
7.01339e-06
-1.96528e-10
6.43533e-05
7.01162e-06
-2.41569e-09
6.43516e-05
7.01339e-06
6.4347e-05
7.00842e-06
2.40726e-09
5.74441e-05
6.90058e-06
2.11837e-10
5.74482e-05
6.90555e-06
-2.11669e-10
5.74499e-05
6.90383e-06
-2.41051e-09
5.74482e-05
6.90554e-06
5.74441e-05
6.90058e-06
2.39307e-09
5.06534e-05
6.78825e-06
2.31719e-10
5.06572e-05
6.79326e-06
-2.2498e-10
5.06588e-05
6.79159e-06
-2.39167e-09
5.06572e-05
6.79325e-06
5.06534e-05
6.78824e-06
2.36429e-09
6.67832e-06
4.39727e-05
2.4624e-10
6.68327e-06
4.3976e-05
-2.40562e-10
6.68166e-06
4.39776e-05
-2.35151e-09
6.68326e-06
4.3976e-05
6.67831e-06
4.39727e-05
4.54028e-10
0.000549009
3.6132e-07
-1.2119e-11
0.000549009
3.6089e-07
1.19415e-11
0.000549008
3.60754e-07
-4.55239e-10
0.000549009
3.60914e-07
0.000549009
3.6136e-07
-6.57115e-10
0.000548711
4.65965e-07
-2.45923e-11
0.00054871
4.65322e-07
2.47719e-11
0.000548709
4.65211e-07
6.54763e-10
0.00054871
4.65347e-07
0.000548711
4.66004e-07
-4.59953e-10
0.000548266
6.78052e-07
8.91884e-13
0.000548264
6.77754e-07
1.10454e-12
0.000548264
6.77863e-07
4.58705e-10
0.000548264
6.77777e-07
0.000548266
6.78087e-07
-3.60291e-10
0.000547611
9.94858e-07
-2.09961e-11
0.000547608
9.9488e-07
2.56296e-11
0.000547608
9.95121e-07
3.61149e-10
0.000547608
9.94895e-07
0.000547611
9.94881e-07
-4.28368e-10
0.000546685
1.40351e-06
-3.613e-11
0.000546682
1.4033e-06
4.34082e-11
0.000546682
1.40351e-06
4.31359e-10
0.000546682
1.4033e-06
0.000546685
1.40351e-06
-4.99696e-10
0.000545434
1.8911e-06
-3.72996e-11
0.00054543
1.8906e-06
4.63452e-11
0.00054543
1.8908e-06
5.04514e-10
0.00054543
1.89059e-06
0.000545434
1.89109e-06
-5.68867e-10
0.000543809
2.44726e-06
-3.57384e-11
0.000543805
2.44656e-06
4.57307e-11
0.000543805
2.44677e-06
5.74866e-10
0.000543805
2.44655e-06
0.000543809
2.44725e-06
-6.45768e-10
0.00054177
3.06176e-06
-3.41474e-11
0.000541766
3.06087e-06
4.40971e-11
0.000541765
3.0611e-06
6.52261e-10
0.000541766
3.06086e-06
0.00054177
3.06174e-06
-7.28557e-10
0.000539278
3.72872e-06
-3.1776e-11
0.000539274
3.72766e-06
4.08002e-11
0.000539274
3.72792e-06
7.34917e-10
0.000539274
3.72766e-06
0.000539278
3.72872e-06
-8.14394e-10
0.0005363
4.44463e-06
-2.81567e-11
0.000536296
4.44339e-06
3.57276e-11
0.000536296
4.44367e-06
8.2008e-10
0.000536296
4.44339e-06
0.0005363
4.44463e-06
-9.0198e-10
0.0005328
5.21105e-06
-2.30804e-11
0.000532795
5.20964e-06
2.89892e-11
0.000532795
5.20994e-06
9.0659e-10
0.000532795
5.20964e-06
0.0005328
5.21104e-06
-9.89993e-10
0.000528738
6.03207e-06
-1.64797e-11
0.000528734
6.03049e-06
2.04225e-11
0.000528733
6.03081e-06
9.93437e-10
0.000528734
6.03049e-06
0.000528738
6.03207e-06
-1.07634e-09
0.000524076
6.90701e-06
-8.26856e-12
0.000524072
6.90526e-06
1.03814e-11
0.000524071
6.90559e-06
1.07856e-09
0.000524072
6.90526e-06
0.000524076
6.907e-06
-1.16087e-09
0.000518769
7.84496e-06
1.60875e-12
0.000518765
7.84306e-06
-9.94307e-13
0.000518765
7.84339e-06
1.16194e-09
0.000518765
7.84306e-06
0.000518769
7.84496e-06
-1.24057e-09
0.000512777
8.83741e-06
1.32938e-11
0.000512773
8.83536e-06
-1.35532e-11
0.000512773
8.83568e-06
1.24082e-09
0.000512773
8.83536e-06
0.000512777
8.83741e-06
-1.31506e-09
0.000506055
9.88905e-06
2.70989e-11
0.000506051
9.88688e-06
-2.71422e-11
0.000506051
9.8872e-06
1.31517e-09
0.000506051
9.88688e-06
0.000506055
9.88906e-06
-1.38242e-09
0.000498563
1.09949e-05
4.29836e-11
0.00049856
1.09927e-05
-4.14888e-11
0.00049856
1.0993e-05
1.38323e-09
0.00049856
1.09927e-05
0.000498563
1.09949e-05
-1.44064e-09
0.000490265
1.21465e-05
6.08969e-11
0.000490262
1.21442e-05
-5.67634e-11
0.000490263
1.21445e-05
1.44298e-09
0.000490262
1.21442e-05
0.000490265
1.21465e-05
-1.48915e-09
0.000481125
1.33412e-05
8.04687e-11
0.000481123
1.33388e-05
-7.3347e-11
0.000481124
1.33391e-05
1.49335e-09
0.000481123
1.33388e-05
0.000481125
1.33412e-05
-1.526e-09
0.000471121
1.45606e-05
1.0117e-10
0.000471119
1.45582e-05
-9.14732e-11
0.00047112
1.45585e-05
1.53174e-09
0.000471119
1.45582e-05
0.000471121
1.45606e-05
-1.55137e-09
0.000460231
1.57991e-05
1.22557e-10
0.00046023
1.57969e-05
-1.11093e-10
0.000460231
1.5797e-05
1.55791e-09
0.00046023
1.57969e-05
0.000460231
1.57991e-05
-1.56409e-09
0.000448447
1.70399e-05
1.43971e-10
0.000448447
1.70378e-05
-1.32435e-10
0.000448448
1.70379e-05
1.57115e-09
0.000448447
1.70378e-05
0.000448447
1.70399e-05
-1.56384e-09
0.00043577
1.82663e-05
1.66871e-10
0.000435771
1.82644e-05
-1.53529e-10
0.000435773
1.82645e-05
1.57029e-09
0.000435771
1.82644e-05
0.00043577
1.82663e-05
-1.54966e-09
0.000422214
1.94622e-05
1.8874e-10
0.000422215
1.94606e-05
-1.76211e-10
0.000422217
1.94607e-05
1.5562e-09
0.000422215
1.94606e-05
0.000422214
1.94622e-05
-1.52192e-09
0.000407801
2.06106e-05
2.12212e-10
0.000407803
2.06093e-05
-1.98199e-10
0.000407805
2.06093e-05
1.52757e-09
0.000407803
2.06093e-05
0.000407801
2.06106e-05
-1.48111e-09
0.000392568
2.16931e-05
2.34163e-10
0.000392572
2.16922e-05
-2.21217e-10
0.000392574
2.16923e-05
1.48577e-09
0.000392572
2.16922e-05
0.000392568
2.16931e-05
-1.42765e-09
0.000376564
2.26946e-05
2.54777e-10
0.000376569
2.26942e-05
-2.45379e-10
0.000376571
2.26942e-05
1.43168e-09
0.000376569
2.26942e-05
0.000376564
2.26946e-05
-1.36409e-09
0.000359848
2.35998e-05
2.75708e-10
0.000359853
2.35998e-05
-2.6815e-10
0.000359855
2.35998e-05
1.36613e-09
0.000359853
2.35998e-05
0.000359848
2.35998e-05
-1.29092e-09
0.000342488
2.4394e-05
2.94346e-10
0.000342494
2.43946e-05
-2.91604e-10
0.000342497
2.43946e-05
1.29155e-09
0.000342494
2.43945e-05
0.000342488
2.4394e-05
-1.21084e-09
0.000324563
2.50702e-05
3.13622e-10
0.000324569
2.50713e-05
-3.12999e-10
0.000324572
2.50713e-05
1.20914e-09
0.000324569
2.50713e-05
0.000324563
2.50702e-05
-1.12511e-09
0.000306154
2.56203e-05
3.30455e-10
0.000306161
2.56218e-05
-3.34377e-10
0.000306164
2.56219e-05
1.12207e-09
0.000306161
2.56218e-05
0.000306154
2.56203e-05
-1.036e-09
0.00028735
2.60417e-05
3.48201e-10
0.000287358
2.60437e-05
-3.52603e-10
0.000287361
2.60438e-05
1.03141e-09
0.000287358
2.60437e-05
0.00028735
2.60417e-05
-9.44439e-10
0.000268239
2.63375e-05
3.63453e-10
0.000268246
2.63399e-05
-3.70595e-10
0.000268249
2.634e-05
9.40055e-10
0.000268246
2.63399e-05
0.000268239
2.63375e-05
-8.52473e-10
0.000248905
2.65122e-05
3.79824e-10
0.000248913
2.6515e-05
-3.85337e-10
0.000248916
2.65151e-05
8.48522e-10
0.000248913
2.6515e-05
0.000248905
2.65122e-05
-7.59728e-10
0.000229432
2.65773e-05
3.93446e-10
0.00022944
2.65803e-05
-4.00565e-10
0.000229443
2.65804e-05
7.58679e-10
0.00022944
2.65803e-05
0.000229432
2.65773e-05
-6.67454e-10
0.000209895
2.65467e-05
4.0855e-10
0.000209902
2.65498e-05
-4.13355e-10
0.000209905
2.65499e-05
6.675e-10
0.000209902
2.65498e-05
0.000209895
2.65467e-05
-5.74355e-10
0.000190362
2.64343e-05
4.20428e-10
0.00019037
2.64374e-05
-4.26798e-10
0.000190373
2.64375e-05
5.74456e-10
0.00019037
2.64374e-05
0.000190362
2.64343e-05
-4.74992e-10
0.000170894
2.62562e-05
4.34415e-10
0.000170903
2.6259e-05
-4.34331e-10
0.000170906
2.62591e-05
4.70732e-10
0.000170903
2.6259e-05
0.000170894
2.62562e-05
-3.53126e-10
2.60167e-05
0.000151556
4.59195e-10
2.60189e-05
0.000151566
-4.50106e-10
2.6019e-05
0.00015157
3.46299e-10
2.60189e-05
0.000151566
2.60167e-05
0.000151556
4.91096e-10
0.000788441
5.73986e-07
-1.98624e-11
0.000788441
5.72915e-07
1.98646e-11
0.00078844
5.72653e-07
-4.91953e-10
0.000788441
5.72945e-07
0.00078844
5.74035e-07
-6.1197e-10
0.000788131
7.75968e-07
-2.36082e-11
0.00078813
7.75584e-07
2.46958e-11
0.00078813
7.75538e-07
6.10686e-10
0.00078813
7.75615e-07
0.000788131
7.76017e-07
-3.60553e-10
0.000787653
1.15684e-06
1.06726e-11
0.000787651
1.15658e-06
-7.14191e-12
0.000787651
1.15673e-06
3.60823e-10
0.000787651
1.15661e-06
0.000787653
1.15689e-06
-1.95566e-10
0.00078694
1.70735e-06
-1.2139e-11
0.000786939
1.70719e-06
1.88287e-11
0.000786938
1.70747e-06
1.98435e-10
0.000786939
1.7072e-06
0.00078694
1.70738e-06
-2.17024e-10
0.000785925
2.41954e-06
-2.9689e-11
0.000785923
2.41915e-06
3.66927e-11
0.000785922
2.41946e-06
2.21562e-10
0.000785923
2.41916e-06
0.000785925
2.41954e-06
-2.23804e-10
0.000784537
3.27898e-06
-3.09234e-11
0.000784535
3.27829e-06
3.87639e-11
0.000784535
3.27859e-06
2.2974e-10
0.000784535
3.27828e-06
0.000784537
3.27896e-06
-2.11304e-10
0.000782714
4.2701e-06
-2.93375e-11
0.000782712
4.26917e-06
3.72655e-11
0.000782712
4.26947e-06
2.17848e-10
0.000782712
4.26915e-06
0.000782714
4.27007e-06
-1.98169e-10
0.000780401
5.37533e-06
-2.81963e-11
0.000780399
5.37419e-06
3.53804e-11
0.000780398
5.3745e-06
2.0456e-10
0.000780399
5.37417e-06
0.000780401
5.37531e-06
-1.84286e-10
0.000777546
6.58365e-06
-2.62766e-11
0.000777544
6.58229e-06
3.28815e-11
0.000777544
6.58262e-06
1.90054e-10
0.000777544
6.58228e-06
0.000777546
6.58363e-06
-1.67173e-10
0.000774103
7.88791e-06
-2.37706e-11
0.000774101
7.88635e-06
2.90113e-11
0.000774101
7.88668e-06
1.717e-10
0.000774101
7.88634e-06
0.000774103
7.88789e-06
-1.45663e-10
0.000770024
9.29056e-06
-2.06711e-11
0.000770021
9.28881e-06
2.35951e-11
0.000770021
9.28914e-06
1.48609e-10
0.000770021
9.28881e-06
0.000770024
9.29056e-06
-1.17849e-10
0.000765257
1.07995e-05
-1.49915e-11
0.000765254
1.07975e-05
1.83468e-11
0.000765254
1.07978e-05
1.20116e-10
0.000765254
1.07975e-05
0.000765257
1.07995e-05
-8.23016e-11
0.000759749
1.24148e-05
-7.49371e-12
0.000759747
1.24127e-05
1.04249e-11
0.000759747
1.24129e-05
8.37888e-11
0.000759747
1.24127e-05
0.000759749
1.24148e-05
-3.76647e-11
0.000753439
1.41549e-05
1.74278e-12
0.000753437
1.41526e-05
5.9466e-13
0.000753437
1.41529e-05
3.86707e-11
0.000753437
1.41526e-05
0.000753439
1.41549e-05
1.78241e-11
0.000746269
1.60072e-05
1.63428e-11
0.000746268
1.60048e-05
-1.35205e-11
0.000746268
1.6005e-05
-1.66831e-11
0.000746268
1.60048e-05
0.000746269
1.60072e-05
8.44245e-11
0.000738175
1.79831e-05
2.17856e-11
0.000738174
1.79806e-05
-1.91843e-11
0.000738175
1.79807e-05
-8.25155e-11
0.000738174
1.79806e-05
0.000738175
1.79831e-05
1.62947e-10
0.000729093
2.0077e-05
3.29825e-11
0.000729092
2.00744e-05
-2.99077e-11
0.000729093
2.00745e-05
-1.59863e-10
0.000729092
2.00744e-05
0.000729093
2.0077e-05
2.53465e-10
0.000718962
2.2277e-05
4.68281e-11
0.000718962
2.22744e-05
-4.31708e-11
0.000718963
2.22744e-05
-2.49089e-10
0.000718962
2.22744e-05
0.000718962
2.2277e-05
3.55599e-10
0.000707721
2.45821e-05
6.22225e-11
0.000707722
2.45796e-05
-5.82896e-11
0.000707723
2.45794e-05
-3.50207e-10
0.000707722
2.45796e-05
0.000707721
2.45821e-05
4.68293e-10
0.000695318
2.69625e-05
7.90548e-11
0.00069532
2.69601e-05
-7.46328e-11
0.000695322
2.69599e-05
-4.62567e-10
0.00069532
2.69601e-05
0.000695318
2.69625e-05
5.89763e-10
0.000681705
2.94115e-05
9.372e-11
0.000681708
2.94094e-05
-9.63288e-11
0.00068171
2.9409e-05
-5.85308e-10
0.000681708
2.94094e-05
0.000681705
2.94115e-05
7.22552e-10
0.000666843
3.19014e-05
1.2597e-10
0.000666847
3.18996e-05
-1.0237e-10
0.000666849
3.18991e-05
-7.13132e-10
0.000666847
3.18996e-05
0.000666843
3.19014e-05
8.5433e-10
0.000650704
3.44041e-05
1.26306e-10
0.00065071
3.44028e-05
-1.39619e-10
0.000650712
3.44022e-05
-8.53942e-10
0.00065071
3.44028e-05
0.000650704
3.44041e-05
9.99175e-10
0.000633273
3.68922e-05
1.67705e-10
0.00063328
3.68914e-05
-1.37637e-10
0.000633282
3.68907e-05
-9.90713e-10
0.00063328
3.68914e-05
0.000633273
3.68922e-05
1.137e-09
0.000614548
3.93347e-05
1.67837e-10
0.000614555
3.93346e-05
-1.78467e-10
0.000614558
3.93337e-05
-1.13938e-09
0.000614555
3.93345e-05
0.000614548
3.93347e-05
1.279e-09
0.000594542
4.16976e-05
1.87016e-10
0.000594551
4.16982e-05
-1.98579e-10
0.000594554
4.16973e-05
-1.28195e-09
0.00059455
4.16982e-05
0.000594542
4.16976e-05
1.42387e-09
0.000573285
4.39509e-05
2.28828e-10
0.000573294
4.39523e-05
-1.94964e-10
0.000573297
4.39514e-05
-1.41661e-09
0.000573294
4.39523e-05
0.000573285
4.39509e-05
1.55248e-09
0.00055082
4.60628e-05
2.22292e-10
0.00055083
4.60652e-05
-2.41321e-10
0.000550833
4.60642e-05
-1.55573e-09
0.00055083
4.60652e-05
0.00055082
4.60628e-05
1.68309e-09
0.000527212
4.80011e-05
2.6831e-10
0.000527221
4.80043e-05
-2.32049e-10
0.000527225
4.80033e-05
-1.67633e-09
0.000527221
4.80043e-05
0.000527212
4.80011e-05
1.79258e-09
0.000502534
4.97461e-05
2.55405e-10
0.000502544
4.97503e-05
-2.82029e-10
0.000502548
4.97492e-05
-1.79751e-09
0.000502544
4.97503e-05
0.000502534
4.97461e-05
1.90197e-09
0.000476878
5.12742e-05
3.05742e-10
0.000476888
5.12792e-05
-2.64041e-10
0.000476892
5.12782e-05
-1.8945e-09
0.000476888
5.12792e-05
0.000476878
5.12742e-05
1.98511e-09
0.000450346
5.25714e-05
2.82366e-10
0.000450357
5.25772e-05
-3.20122e-10
0.00045036
5.25762e-05
-1.99135e-09
0.000450356
5.25772e-05
0.000450346
5.25714e-05
2.06923e-09
0.00042305
5.36321e-05
3.40495e-10
0.00042306
5.36386e-05
-2.90046e-10
0.000423063
5.36376e-05
-2.0603e-09
0.00042306
5.36386e-05
0.00042305
5.36321e-05
2.12323e-09
0.000395107
5.44532e-05
3.03692e-10
0.000395116
5.44603e-05
-3.54292e-10
0.000395119
5.44594e-05
-2.13132e-09
0.000395116
5.44603e-05
0.000395107
5.44532e-05
2.18193e-09
0.000366638
5.50434e-05
3.71416e-10
0.000366647
5.50508e-05
-3.10357e-10
0.000366651
5.50499e-05
-2.17136e-09
0.000366647
5.50508e-05
0.000366638
5.50434e-05
2.2094e-09
0.000337767
5.54157e-05
3.20087e-10
0.000337776
5.54234e-05
-3.81422e-10
0.000337779
5.54225e-05
-2.21817e-09
0.000337776
5.54234e-05
0.000337767
5.54157e-05
2.24571e-09
0.000308616
5.55832e-05
3.94508e-10
0.000308624
5.5591e-05
-3.24176e-10
0.000308627
5.55901e-05
-2.23324e-09
0.000308624
5.5591e-05
0.000308616
5.55832e-05
2.24663e-09
0.000279306
5.55644e-05
3.36867e-10
0.000279313
5.55722e-05
-3.93703e-10
0.000279315
5.55712e-05
-2.25536e-09
0.000279313
5.55721e-05
0.000279306
5.55643e-05
2.23823e-09
5.53614e-05
0.000249959
3.76004e-10
5.53689e-05
0.000249965
-3.5349e-10
5.53679e-05
0.000249967
-2.2359e-09
5.53689e-05
0.000249965
5.53614e-05
0.000249959
4.59493e-10
0.000930242
7.67319e-07
-2.46664e-11
0.000930242
7.65636e-07
2.48165e-11
0.000930241
7.65224e-07
-4.60327e-10
0.000930242
7.65665e-07
0.000930241
7.67366e-07
-5.98647e-10
0.000929965
1.05325e-06
-2.82374e-11
0.000929964
1.0531e-06
2.99074e-11
0.000929963
1.05312e-06
5.97785e-10
0.000929964
1.05313e-06
0.000929965
1.05329e-06
-3.55713e-10
0.000929534
1.58812e-06
8.26078e-12
0.000929532
1.58798e-06
-3.81845e-12
0.000929532
1.5882e-06
3.56823e-10
0.000929532
1.58801e-06
0.000929534
1.58816e-06
-1.8534e-10
0.000928887
2.35398e-06
-1.57522e-11
0.000928886
2.35365e-06
2.3388e-11
0.000928886
2.35398e-06
1.89245e-10
0.000928886
2.35367e-06
0.000928887
2.35401e-06
-2.21168e-10
0.000927958
3.34905e-06
-3.41705e-11
0.000927956
3.34847e-06
4.26234e-11
0.000927956
3.34885e-06
2.26926e-10
0.000927956
3.34846e-06
0.000927958
3.34904e-06
-2.46875e-10
0.000926676
4.56135e-06
-3.83344e-11
0.000926674
4.56046e-06
4.84231e-11
0.000926674
4.56087e-06
2.54258e-10
0.000926674
4.56045e-06
0.000926676
4.56133e-06
-2.52804e-10
0.000924974
5.97297e-06
-3.99562e-11
0.000924971
5.97179e-06
5.00299e-11
0.000924971
5.97221e-06
2.6056e-10
0.000924971
5.97177e-06
0.000924973
5.97293e-06
-2.61723e-10
0.000922789
7.56032e-06
-4.28907e-11
0.000922786
7.55886e-06
5.17315e-11
0.000922786
7.5593e-06
2.68749e-10
0.000922786
7.55884e-06
0.000922789
7.56029e-06
-2.74311e-10
0.000920065
9.30728e-06
-4.61536e-11
0.000920063
9.30556e-06
5.29445e-11
0.000920063
9.306e-06
2.79777e-10
0.000920063
9.30554e-06
0.000920065
9.30726e-06
-2.87466e-10
0.000916751
1.12028e-05
-4.88375e-11
0.000916748
1.12008e-05
5.3546e-11
0.000916748
1.12012e-05
2.91073e-10
0.000916748
1.12008e-05
0.000916751
1.12027e-05
-3.00112e-10
0.000912792
1.32498e-05
-5.05971e-11
0.000912789
1.32475e-05
5.38001e-11
0.000912789
1.32479e-05
3.02154e-10
0.000912789
1.32475e-05
0.000912792
1.32497e-05
-3.11404e-10
0.000908132
1.54601e-05
-5.15771e-11
0.000908129
1.54575e-05
5.35659e-11
0.000908129
1.5458e-05
3.12476e-10
0.000908129
1.54575e-05
0.000908132
1.54601e-05
-3.20021e-10
0.000902711
1.78356e-05
-5.12015e-11
0.000902708
1.78328e-05
5.31809e-11
0.000902708
1.78332e-05
3.20864e-10
0.000902708
1.78328e-05
0.000902711
1.78356e-05
-3.26222e-10
0.000896461
2.04054e-05
-5.16277e-11
0.000896458
2.04024e-05
5.09893e-11
0.000896459
2.04027e-05
3.26773e-10
0.000896458
2.04024e-05
0.000896461
2.04054e-05
-3.27366e-10
0.000889314
2.31547e-05
-4.73313e-11
0.000889312
2.31514e-05
5.11046e-11
0.000889312
2.31517e-05
3.2987e-10
0.000889311
2.31514e-05
0.000889314
2.31547e-05
-3.24809e-10
0.000881193
2.6104e-05
-4.35601e-11
0.000881191
2.61006e-05
4.79268e-11
0.000881192
2.61008e-05
3.28631e-10
0.000881191
2.61006e-05
0.000881193
2.6104e-05
-3.16996e-10
0.000872021
2.92499e-05
-3.67395e-11
0.000872019
2.92463e-05
4.28111e-11
0.000872019
2.92464e-05
3.22201e-10
0.000872019
2.92463e-05
0.000872021
2.92499e-05
-3.03547e-10
0.000861718
3.25799e-05
-2.82919e-11
0.000861717
3.25763e-05
3.45462e-11
0.000861717
3.25763e-05
3.09481e-10
0.000861717
3.25763e-05
0.000861718
3.25799e-05
-2.84398e-10
0.000850203
3.60978e-05
-1.85305e-11
0.000850202
3.60941e-05
2.42858e-11
0.000850203
3.6094e-05
2.9029e-10
0.000850202
3.60941e-05
0.000850203
3.60978e-05
-2.5929e-10
0.000837401
3.97652e-05
-7.67598e-12
0.0008374
3.97616e-05
1.18838e-11
0.000837401
3.97614e-05
2.64067e-10
0.0008374
3.97616e-05
0.0008374
3.97652e-05
-2.28629e-10
0.000823235
4.35776e-05
4.40549e-12
0.000823235
4.35742e-05
-2.05819e-12
0.000823236
4.35738e-05
2.31666e-10
0.000823235
4.35742e-05
0.000823235
4.35776e-05
-1.91637e-10
0.000807637
4.74991e-05
1.76775e-11
0.000807638
4.74961e-05
-1.78123e-11
0.00080764
4.74956e-05
1.93033e-10
0.000807638
4.74961e-05
0.000807637
4.74991e-05
-1.48653e-10
0.000790548
5.14929e-05
3.38291e-11
0.000790551
5.14903e-05
-3.28721e-11
0.000790552
5.14897e-05
1.48549e-10
0.000790551
5.14903e-05
0.000790548
5.14929e-05
-9.84326e-11
0.000771919
5.55215e-05
5.07628e-11
0.000771922
5.55195e-05
-4.95451e-11
0.000771924
5.55188e-05
9.86021e-11
0.000771922
5.55195e-05
0.000771919
5.55215e-05
-4.22373e-11
0.000751713
5.95414e-05
7.62641e-11
0.000751717
5.95401e-05
-7.0886e-11
0.000751719
5.95394e-05
4.24093e-11
0.000751717
5.95401e-05
0.000751712
5.95414e-05
1.991e-11
0.000729908
6.35025e-05
1.08804e-10
0.000729913
6.35021e-05
-1.00576e-10
0.000729915
6.35013e-05
-1.78201e-11
0.000729913
6.35021e-05
0.000729908
6.35025e-05
8.62903e-11
0.000706499
6.7359e-05
1.39083e-10
0.000706505
6.73596e-05
-1.29939e-10
0.000706508
6.73587e-05
-8.17779e-11
0.000706505
6.73596e-05
0.000706499
6.7359e-05
1.5409e-10
0.000681502
7.10601e-05
1.69798e-10
0.000681509
7.10618e-05
-1.57916e-10
0.000681512
7.10609e-05
-1.48463e-10
0.000681509
7.10618e-05
0.000681502
7.10601e-05
2.23356e-10
0.000654952
7.45514e-05
1.98996e-10
0.000654959
7.45543e-05
-1.87461e-10
0.000654962
7.45534e-05
-2.16231e-10
0.000654959
7.45543e-05
0.000654951
7.45514e-05
2.91236e-10
0.000626902
7.77959e-05
2.28968e-10
0.00062691
7.77999e-05
-2.15951e-10
0.000626913
7.77991e-05
-2.83729e-10
0.000626909
7.77999e-05
0.000626901
7.77958e-05
3.57494e-10
0.000597428
8.07471e-05
2.57155e-10
0.000597437
8.07523e-05
-2.45752e-10
0.00059744
8.07516e-05
-3.49147e-10
0.000597437
8.07523e-05
0.000597428
8.07471e-05
4.19436e-10
0.000566628
8.33716e-05
2.85933e-10
0.000566636
8.33778e-05
-2.73569e-10
0.000566639
8.33772e-05
-4.11761e-10
0.000566636
8.33778e-05
0.000566628
8.33716e-05
4.77324e-10
0.000534613
8.56467e-05
3.11973e-10
0.000534621
8.56539e-05
-3.02544e-10
0.000534624
8.56534e-05
-4.69941e-10
0.000534621
8.56539e-05
0.000534613
8.56467e-05
5.28486e-10
0.000501514
8.75517e-05
3.38043e-10
0.000501522
8.75597e-05
-3.28682e-10
0.000501525
8.75593e-05
-5.22425e-10
0.000501522
8.75597e-05
0.000501514
8.75517e-05
5.74467e-10
0.000467473
8.90832e-05
3.60499e-10
0.000467481
8.90918e-05
-3.54935e-10
0.000467484
8.90915e-05
-5.68517e-10
0.000467481
8.90918e-05
0.000467473
8.90832e-05
6.13294e-10
0.000432644
9.02448e-05
3.82341e-10
0.000432651
9.02537e-05
-3.76846e-10
0.000432654
9.02535e-05
-6.09989e-10
0.000432651
9.02537e-05
0.000432644
9.02448e-05
6.46939e-10
0.000397186
9.10402e-05
3.99448e-10
0.000397193
9.10493e-05
-3.98123e-10
0.000397196
9.10491e-05
-6.44616e-10
0.000397193
9.10493e-05
0.000397186
9.10402e-05
6.77156e-10
0.000361264
9.14854e-05
4.16406e-10
0.000361271
9.14944e-05
-4.15611e-10
0.000361274
9.14942e-05
-6.76964e-10
0.000361271
9.14944e-05
0.000361264
9.14854e-05
7.11846e-10
9.15742e-05
0.000325051
4.26772e-10
9.15826e-05
0.000325058
-4.28143e-10
9.15823e-05
0.00032506
-7.12354e-10
9.15826e-05
0.000325058
9.15742e-05
0.000325051
4.13469e-10
0.00100278
9.34793e-07
-2.42245e-11
0.00100278
9.32603e-07
2.43823e-11
0.00100278
9.32046e-07
-4.14094e-10
0.00100278
9.32628e-07
0.00100278
9.34834e-07
-5.33328e-10
0.00100255
1.28719e-06
-2.78153e-11
0.00100255
1.28721e-06
2.98632e-11
0.00100255
1.28726e-06
5.32952e-10
0.00100255
1.28724e-06
0.00100255
1.28723e-06
-3.05215e-10
0.00100219
1.94929e-06
7.52503e-12
0.00100218
1.94935e-06
-2.59029e-12
0.00100218
1.94961e-06
3.07017e-10
0.00100218
1.94937e-06
0.00100219
1.94932e-06
-1.32279e-10
0.00100164
2.89688e-06
-1.42746e-11
0.00100164
2.89651e-06
2.2163e-11
0.00100164
2.89686e-06
1.3691e-10
0.00100164
2.89652e-06
0.00100164
2.89689e-06
-1.61799e-10
0.00100086
4.13407e-06
-3.05729e-11
0.00100086
4.13341e-06
4.0266e-11
0.00100086
4.13383e-06
1.6863e-10
0.00100086
4.1334e-06
0.00100086
4.13406e-06
-1.8589e-10
0.000999766
5.65326e-06
-3.57123e-11
0.000999764
5.6523e-06
4.57122e-11
0.000999764
5.65276e-06
1.93731e-10
0.000999764
5.65228e-06
0.000999766
5.65323e-06
-1.90345e-10
0.000998303
7.43649e-06
-3.79066e-11
0.000998301
7.4352e-06
4.69924e-11
0.000998301
7.43568e-06
1.97878e-10
0.000998301
7.43517e-06
0.000998303
7.43645e-06
-1.98533e-10
0.000996407
9.45605e-06
-4.12747e-11
0.000996405
9.45444e-06
4.86678e-11
0.000996405
9.45495e-06
2.04702e-10
0.000996405
9.45442e-06
0.000996407
9.45601e-06
-2.11421e-10
0.000994023
1.16918e-05
-4.44163e-11
0.000994021
1.16899e-05
4.99032e-11
0.00099402
1.16904e-05
2.15697e-10
0.00099402
1.16898e-05
0.000994023
1.16918e-05
-2.2547e-10
0.000991097
1.41292e-05
-4.65195e-11
0.000991094
1.41269e-05
5.06026e-11
0.000991094
1.41275e-05
2.2796e-10
0.000991094
1.41269e-05
0.000991097
1.41292e-05
-2.39337e-10
0.000987575
1.67719e-05
-4.75662e-11
0.000987572
1.67694e-05
5.11413e-11
0.000987572
1.67699e-05
2.40758e-10
0.000987572
1.67693e-05
0.000987575
1.67719e-05
-2.52137e-10
0.000983399
1.96359e-05
-4.76644e-11
0.000983396
1.9633e-05
5.15327e-11
0.000983396
1.96335e-05
2.53435e-10
0.000983396
1.9633e-05
0.000983399
1.96359e-05
-2.62636e-10
0.00097851
2.27255e-05
-4.69564e-11
0.000978507
2.27223e-05
5.14175e-11
0.000978507
2.27228e-05
2.64568e-10
0.000978507
2.27223e-05
0.00097851
2.27255e-05
-2.70721e-10
0.000972834
2.60812e-05
-4.56507e-11
0.000972831
2.60777e-05
5.05476e-11
0.000972831
2.60781e-05
2.7363e-10
0.000972831
2.60777e-05
0.000972834
2.60812e-05
-2.75312e-10
0.000966301
2.96881e-05
-4.49547e-11
0.000966298
2.96843e-05
4.77647e-11
0.000966298
2.96846e-05
2.79009e-10
0.000966298
2.96843e-05
0.000966301
2.96881e-05
-2.75399e-10
0.000958828
3.35775e-05
-3.99726e-11
0.000958825
3.35734e-05
4.65869e-11
0.000958825
3.35737e-05
2.81196e-10
0.000958825
3.35734e-05
0.000958828
3.35775e-05
-2.71899e-10
0.000950327
3.77506e-05
-3.73175e-11
0.000950325
3.77463e-05
4.21705e-11
0.000950325
3.77464e-05
2.77792e-10
0.000950325
3.77463e-05
0.000950327
3.77506e-05
-2.63285e-10
0.00094071
4.21975e-05
-3.02481e-11
0.000940708
4.2193e-05
3.41434e-11
0.000940708
4.2193e-05
2.68293e-10
0.000940708
4.2193e-05
0.00094071
4.21975e-05
-2.49595e-10