/*--------------------------------*- C++ -*----------------------------------*\
  =========                 |
  \\      /  F ield         | OpenFOAM: The Open Source CFD Toolbox
   \\    /   O peration     | Website:  https://openfoam.org
    \\  /    A nd           | Version:  9
     \\/     M anipulation  |
\*---------------------------------------------------------------------------*/
FoamFile
{
    format      ascii;
    class       volVectorField;
    location    "0.8";
    object      U;
}
// * * * * * * * * * * * * * * * * * * * * * * * * * * * * * * * * * * * * * //

dimensions      [0 1 -1 0 0 0 0];

internalField   nonuniform List<vector> 
4545
(
(2.56492e-05 -0.0980977 -0.968268)
(2.55792e-05 -0.0980973 6.92666e-08)
(2.5546e-05 -0.0980971 -8.04322e-11)
(2.55815e-05 -0.0980973 -6.96644e-08)
(2.56527e-05 -0.0980977 0.968268)
(2.51625e-05 -0.0979947 -0.961441)
(2.46339e-05 -0.0979929 -7.75779e-08)
(2.45531e-05 -0.0979925 -1.86632e-10)
(2.46359e-05 -0.0979929 7.66092e-08)
(2.51654e-05 -0.0979947 0.961441)
(3.3158e-05 -0.0979016 -0.96084)
(3.2651e-05 -0.0979019 -5.1274e-08)
(3.25991e-05 -0.0979019 -2.80675e-11)
(3.26527e-05 -0.0979019 5.0321e-08)
(3.31605e-05 -0.0979015 0.96084)
(4.92161e-05 -0.0977712 -0.960226)
(4.85991e-05 -0.0977716 -3.31115e-08)
(4.85261e-05 -0.0977716 2.74381e-10)
(4.86003e-05 -0.0977716 3.25678e-08)
(4.92177e-05 -0.0977712 0.960226)
(7.01938e-05 -0.0975806 -0.959606)
(6.926e-05 -0.0975807 -3.04827e-08)
(6.9121e-05 -0.0975807 6.35971e-10)
(6.92605e-05 -0.0975807 3.05548e-08)
(7.01943e-05 -0.0975806 0.959606)
(9.49778e-05 -0.0973181 -0.958971)
(9.36867e-05 -0.0973182 -2.70981e-08)
(9.34859e-05 -0.0973181 9.70588e-10)
(9.36868e-05 -0.0973182 2.77868e-08)
(9.49775e-05 -0.0973181 0.958971)
(0.00012318 -0.0969734 -0.958326)
(0.000121508 -0.0969735 -2.21558e-08)
(0.000121247 -0.0969734 1.22084e-09)
(0.000121508 -0.0969735 2.33934e-08)
(0.000123179 -0.0969733 0.958326)
(0.000154491 -0.0965376 -0.95767)
(0.000152397 -0.0965377 -1.6563e-08)
(0.00015207 -0.0965377 1.33482e-09)
(0.000152397 -0.0965377 1.82135e-08)
(0.00015449 -0.0965376 0.95767)
(0.000188765 -0.0960033 -0.957006)
(0.000186205 -0.0960034 -1.02208e-08)
(0.000185806 -0.0960034 1.31329e-09)
(0.000186205 -0.0960034 1.2084e-08)
(0.000188765 -0.0960033 0.957006)
(0.000226045 -0.0953635 -0.956327)
(0.000222976 -0.0953637 -2.78022e-09)
(0.000222499 -0.0953637 1.19158e-09)
(0.000222976 -0.0953637 4.68393e-09)
(0.000226044 -0.0953635 0.956327)
(0.000266485 -0.0946116 -0.955635)
(0.000262862 -0.0946118 6.04335e-09)
(0.000262298 -0.0946118 1.06751e-09)
(0.000262862 -0.0946118 -4.25274e-09)
(0.000266485 -0.0946116 0.955635)
(0.000310277 -0.0937402 -0.954936)
(0.000306053 -0.0937405 1.67702e-08)
(0.000305393 -0.0937405 8.0669e-10)
(0.000306053 -0.0937405 -1.5267e-08)
(0.000310277 -0.0937402 0.954936)
(0.000357563 -0.0927419 -0.954218)
(0.000352686 -0.0927423 2.9611e-08)
(0.000351922 -0.0927424 4.9389e-10)
(0.000352686 -0.0927423 -2.85311e-08)
(0.000357562 -0.0927419 0.954218)
(0.000408395 -0.0916089 -0.953499)
(0.000402817 -0.0916094 4.48297e-08)
(0.000401938 -0.0916095 1.73593e-10)
(0.000402817 -0.0916094 -4.42667e-08)
(0.000408394 -0.0916089 0.953499)
(0.0004627 -0.0903334 -0.952758)
(0.000456369 -0.090334 6.2745e-08)
(0.000455368 -0.0903342 -7.63269e-11)
(0.00045637 -0.090334 -6.26821e-08)
(0.000462699 -0.0903334 0.952758)
(0.000520235 -0.0889082 -0.952006)
(0.000513105 -0.088909 8.36197e-08)
(0.000511972 -0.0889092 -1.52542e-10)
(0.000513106 -0.088909 -8.38613e-08)
(0.000520235 -0.0889082 0.952006)
(0.000580618 -0.0873266 -0.951242)
(0.000572645 -0.0873276 1.07736e-07)
(0.000571373 -0.0873278 2.85806e-11)
(0.000572646 -0.0873276 -1.07901e-07)
(0.000580618 -0.0873266 0.951242)
(0.00064328 -0.085583 -0.950461)
(0.000634427 -0.0855842 1.35273e-07)
(0.000633008 -0.0855845 4.736e-10)
(0.000634428 -0.0855842 -1.34917e-07)
(0.000643281 -0.085583 0.950461)
(0.000707488 -0.0836733 -0.949671)
(0.000697725 -0.0836746 1.66217e-07)
(0.000696153 -0.083675 1.10458e-09)
(0.000697726 -0.0836746 -1.65003e-07)
(0.000707489 -0.0836733 0.949671)
(0.000772334 -0.081595 -0.948858)
(0.000761642 -0.0815965 2.00397e-07)
(0.000759913 -0.081597 1.77437e-09)
(0.000761643 -0.0815965 -1.98215e-07)
(0.000772335 -0.081595 0.948858)
(0.000836756 -0.0793481 -0.948032)
(0.000825128 -0.0793498 2.37462e-07)
(0.00082324 -0.0793503 2.37093e-09)
(0.000825128 -0.0793498 -2.34438e-07)
(0.000836758 -0.0793481 0.948032)
(0.00089957 -0.0769343 -0.947189)
(0.000887011 -0.0769361 2.7701e-07)
(0.000884964 -0.0769367 2.84617e-09)
(0.000887012 -0.0769361 -2.7332e-07)
(0.000899572 -0.0769343 0.947189)
(0.000959488 -0.0743582 -0.946325)
(0.000946017 -0.0743602 3.18669e-07)
(0.000943813 -0.0743609 3.23388e-09)
(0.000946018 -0.0743602 -3.14482e-07)
(0.00095949 -0.0743583 0.946325)
(0.00101517 -0.0716272 -0.94544)
(0.00100082 -0.0716294 3.61926e-07)
(0.000998462 -0.0716301 3.552e-09)
(0.00100082 -0.0716294 -3.57333e-07)
(0.00101517 -0.0716272 0.94544)
(0.00106526 -0.0687511 -0.944533)
(0.00105009 -0.0687533 4.06298e-07)
(0.00104759 -0.0687541 3.67668e-09)
(0.00105009 -0.0687533 -4.01463e-07)
(0.00106526 -0.0687511 0.944533)
(0.00110849 -0.0657424 -0.943601)
(0.00109255 -0.0657447 4.51003e-07)
(0.00108992 -0.0657455 3.55291e-09)
(0.00109255 -0.0657447 -4.46343e-07)
(0.00110849 -0.0657424 0.943601)
(0.0011437 -0.0626159 -0.942643)
(0.00112706 -0.0626182 4.95303e-07)
(0.0011243 -0.0626191 3.08122e-09)
(0.00112706 -0.0626182 -4.91213e-07)
(0.0011437 -0.0626159 0.942643)
(0.0011699 -0.0593885 -0.941657)
(0.00115266 -0.0593908 5.38432e-07)
(0.00114979 -0.0593917 2.22186e-09)
(0.00115266 -0.0593908 -5.35461e-07)
(0.0011699 -0.0593885 0.941657)
(0.00118637 -0.0560789 -0.940638)
(0.00116862 -0.0560812 5.79723e-07)
(0.00116566 -0.0560821 1.13904e-09)
(0.00116862 -0.0560812 -5.78242e-07)
(0.00118637 -0.0560789 0.940638)
(0.00119272 -0.0527068 -0.939586)
(0.00117455 -0.052709 6.18611e-07)
(0.00117152 -0.05271 -7.73178e-11)
(0.00117455 -0.052709 -6.18889e-07)
(0.00119272 -0.0527068 0.939586)
(0.00118892 -0.0492924 -0.938498)
(0.00117043 -0.0492945 6.54635e-07)
(0.00116734 -0.0492955 -1.37144e-09)
(0.00117043 -0.0492945 -6.56807e-07)
(0.00118892 -0.0492924 0.938498)
(0.00117538 -0.0458557 -0.93737)
(0.00115666 -0.0458578 6.87791e-07)
(0.00115353 -0.0458587 -2.37979e-09)
(0.00115666 -0.0458577 -6.91397e-07)
(0.00117538 -0.0458557 0.937371)
(0.001153 -0.0424159 -0.936201)
(0.00113415 -0.0424178 7.17841e-07)
(0.00113099 -0.0424188 -3.16392e-09)
(0.00113415 -0.0424178 -7.22582e-07)
(0.001153 -0.0424159 0.936201)
(0.00112327 -0.0389905 -0.934986)
(0.00110436 -0.0389922 7.45327e-07)
(0.00110118 -0.0389931 -3.365e-09)
(0.00110436 -0.0389922 -7.50332e-07)
(0.00112327 -0.0389905 0.934986)
(0.00108828 -0.0355942 -0.933723)
(0.0010694 -0.0355959 7.70291e-07)
(0.00106622 -0.0355968 -3.06592e-09)
(0.0010694 -0.0355959 -7.75028e-07)
(0.00108828 -0.0355942 0.933723)
(0.00105083 -0.032239 -0.93241)
(0.00103203 -0.0322405 7.93627e-07)
(0.00102887 -0.0322414 -1.74925e-09)
(0.00103203 -0.0322405 -7.96809e-07)
(0.00105084 -0.032239 0.93241)
(0.00101429 -0.0289327 -0.931042)
(0.000995652 -0.0289342 8.14934e-07)
(0.00099251 -0.028935 5.26247e-11)
(0.00099565 -0.0289342 -8.15892e-07)
(0.0010143 -0.0289327 0.931042)
(0.000982144 -0.0256796 -0.929618)
(0.000963779 -0.025681 8.33067e-07)
(0.000960681 -0.0256817 2.15035e-09)
(0.000963776 -0.025681 -8.30472e-07)
(0.000982144 -0.0256796 0.929618)
(0.000957004 -0.0224791 -0.926819)
(0.000939078 -0.0224806 8.45161e-07)
(0.000936041 -0.0224813 1.84806e-09)
(0.000939074 -0.0224806 -8.39178e-07)
(0.000957002 -0.0224791 0.926819)
(9.9284e-05 -0.26088 -0.977571)
(9.9311e-05 -0.260879 6.7346e-08)
(9.92753e-05 -0.260878 -2.72201e-11)
(9.93187e-05 -0.260879 -6.75577e-08)
(9.92964e-05 -0.26088 0.977571)
(0.000122336 -0.260725 -0.968181)
(0.000121895 -0.260722 -1.06007e-07)
(0.000121826 -0.260721 2.80931e-11)
(0.000121903 -0.260722 1.0567e-07)
(0.000122348 -0.260725 0.968181)
(0.000176376 -0.260549 -0.967575)
(0.00017611 -0.260549 -7.27951e-08)
(0.000176126 -0.260549 3.1849e-10)
(0.000176117 -0.260549 7.29157e-08)
(0.000176387 -0.260549 0.967575)
(0.000262623 -0.260298 -0.966954)
(0.000262477 -0.260299 -6.17057e-08)
(0.000262528 -0.260298 7.54133e-10)
(0.000262482 -0.260299 6.25987e-08)
(0.000262631 -0.260298 0.966954)
(0.000376303 -0.25993 -0.966329)
(0.000375999 -0.25993 -7.66669e-08)
(0.000376012 -0.25993 1.20796e-09)
(0.000376001 -0.25993 7.83684e-08)
(0.000376305 -0.25993 0.966329)
(0.000514491 -0.25942 -0.965688)
(0.000514012 -0.259419 -9.04136e-08)
(0.000513996 -0.259419 1.53153e-09)
(0.000514011 -0.259419 9.2756e-08)
(0.000514489 -0.25942 0.965688)
(0.000675229 -0.258742 -0.965038)
(0.00067461 -0.258742 -1.03826e-07)
(0.000674581 -0.258742 1.72565e-09)
(0.000674609 -0.258742 1.06582e-07)
(0.000675226 -0.258742 0.965038)
(0.000856944 -0.257877 -0.964376)
(0.000856184 -0.257877 -1.19091e-07)
(0.000856146 -0.257877 1.75269e-09)
(0.000856183 -0.257877 1.21981e-07)
(0.000856941 -0.257877 0.964376)
(0.00105898 -0.256806 -0.963706)
(0.00105807 -0.256806 -1.35815e-07)
(0.00105802 -0.256805 1.62122e-09)
(0.00105807 -0.256806 1.38572e-07)
(0.00105898 -0.256806 0.963706)
(0.00128181 -0.255513 -0.963022)
(0.00128074 -0.255512 -1.53513e-07)
(0.00128068 -0.255512 1.38741e-09)
(0.00128074 -0.255512 1.55936e-07)
(0.00128181 -0.255512 0.963022)
(0.0015268 -0.253979 -0.962325)
(0.00152554 -0.253978 -1.71921e-07)
(0.00152547 -0.253978 1.10457e-09)
(0.00152554 -0.253978 1.73882e-07)
(0.0015268 -0.253979 0.962325)
(0.00179575 -0.252189 -0.96162)
(0.00179431 -0.252188 -1.90759e-07)
(0.00179422 -0.252188 7.51674e-10)
(0.00179431 -0.252188 1.92163e-07)
(0.00179575 -0.252189 0.96162)
(0.00209051 -0.250123 -0.960896)
(0.00208885 -0.250123 -2.09725e-07)
(0.00208875 -0.250122 4.10973e-10)
(0.00208885 -0.250123 2.10564e-07)
(0.00209051 -0.250123 0.960896)
(0.00241263 -0.247762 -0.960172)
(0.00241075 -0.247762 -2.28547e-07)
(0.00241062 -0.247761 1.21862e-10)
(0.00241075 -0.247762 2.28881e-07)
(0.00241263 -0.247762 0.960172)
(0.00276319 -0.245085 -0.959425)
(0.00276108 -0.245085 -2.46839e-07)
(0.00276092 -0.245085 -5.24965e-11)
(0.00276108 -0.245085 2.46837e-07)
(0.00276319 -0.245085 0.959425)
(0.0031425 -0.242073 -0.958667)
(0.00314013 -0.242072 -2.64208e-07)
(0.00313995 -0.242072 -8.93421e-12)
(0.00314013 -0.242072 2.6422e-07)
(0.0031425 -0.242073 0.958667)
(0.00355019 -0.238704 -0.957898)
(0.00354756 -0.238703 -2.80229e-07)
(0.00354735 -0.238703 3.14657e-10)
(0.00354756 -0.238703 2.80714e-07)
(0.00355019 -0.238704 0.957898)
(0.00398499 -0.23496 -0.957111)
(0.0039821 -0.23496 -2.94449e-07)
(0.00398185 -0.23496 8.87629e-10)
(0.0039821 -0.23496 2.95835e-07)
(0.00398499 -0.23496 0.957111)
(0.00444471 -0.230824 -0.956315)
(0.00444156 -0.230824 -3.06562e-07)
(0.00444128 -0.230824 1.55962e-09)
(0.00444156 -0.230824 3.09037e-07)
(0.00444472 -0.230824 0.956315)
(0.00492622 -0.226283 -0.955497)
(0.0049228 -0.226283 -3.16301e-07)
(0.00492249 -0.226283 2.16646e-09)
(0.0049228 -0.226283 3.19742e-07)
(0.00492622 -0.226283 0.955497)
(0.00542531 -0.221325 -0.954665)
(0.00542165 -0.221325 -3.23489e-07)
(0.0054213 -0.221325 2.61214e-09)
(0.00542165 -0.221325 3.27583e-07)
(0.00542532 -0.221325 0.954665)
(0.00593698 -0.215943 -0.953816)
(0.00593307 -0.215944 -3.2791e-07)
(0.00593269 -0.215944 2.68124e-09)
(0.00593307 -0.215944 3.32223e-07)
(0.00593698 -0.215943 0.953816)
(0.00645525 -0.210136 -0.952946)
(0.00645113 -0.210137 -3.28988e-07)
(0.00645072 -0.210137 3.16295e-09)
(0.00645114 -0.210137 3.3367e-07)
(0.00645526 -0.210136 0.952946)
(0.00697347 -0.203906 -0.952054)
(0.00696917 -0.203907 -3.26873e-07)
(0.00696873 -0.203908 3.02964e-09)
(0.00696917 -0.203907 3.31476e-07)
(0.00697348 -0.203906 0.952054)
(0.00748445 -0.197263 -0.951141)
(0.00747998 -0.197264 -3.20819e-07)
(0.00747952 -0.197265 3.45633e-09)
(0.00747998 -0.197264 3.25661e-07)
(0.00748445 -0.197263 0.951141)
(0.0079807 -0.19022 -0.950201)
(0.00797612 -0.190221 -3.11516e-07)
(0.00797563 -0.190222 3.25699e-09)
(0.00797612 -0.190221 3.15938e-07)
(0.0079807 -0.19022 0.950201)
(0.00845477 -0.182798 -0.949235)
(0.0084501 -0.182799 -2.98818e-07)
(0.00844961 -0.1828 2.41172e-09)
(0.0084501 -0.182799 3.02258e-07)
(0.00845477 -0.182798 0.949235)
(0.00889956 -0.175022 -0.948241)
(0.00889485 -0.175023 -2.82771e-07)
(0.00889435 -0.175024 1.97816e-09)
(0.00889484 -0.175023 2.85282e-07)
(0.00889956 -0.175022 0.948241)
(0.00930863 -0.166922 -0.947213)
(0.00930392 -0.166924 -2.64044e-07)
(0.00930343 -0.166925 7.32128e-10)
(0.00930392 -0.166924 2.64944e-07)
(0.00930863 -0.166922 0.947213)
(0.00967667 -0.158534 -0.946151)
(0.00967198 -0.158537 -2.42394e-07)
(0.00967151 -0.158538 1.6958e-10)
(0.00967198 -0.158537 2.42102e-07)
(0.00967667 -0.158534 0.946151)
(0.00999974 -0.149897 -0.945052)
(0.00999513 -0.149899 -2.18895e-07)
(0.00999467 -0.1499 -1.08942e-09)
(0.00999513 -0.149899 2.16966e-07)
(0.00999974 -0.149897 0.945052)
(0.0102757 -0.14105 -0.943912)
(0.0102712 -0.141052 -1.93151e-07)
(0.0102707 -0.141053 -1.24712e-09)
(0.0102712 -0.141052 1.90611e-07)
(0.0102757 -0.14105 0.943912)
(0.0105044 -0.132035 -0.94273)
(0.0105 -0.132038 -1.66301e-07)
(0.0104996 -0.132039 -2.06391e-09)
(0.0105 -0.132038 1.62978e-07)
(0.0105044 -0.132035 0.94273)
(0.010688 -0.122895 -0.9415)
(0.0106838 -0.122898 -1.37856e-07)
(0.0106834 -0.122899 -1.62507e-09)
(0.0106838 -0.122898 1.35073e-07)
(0.010688 -0.122895 0.9415)
(0.0108312 -0.113669 -0.940222)
(0.010827 -0.113672 -1.08797e-07)
(0.0108267 -0.113673 -2.14044e-09)
(0.010827 -0.113672 1.06343e-07)
(0.0108312 -0.113669 0.940222)
(0.0109407 -0.104396 -0.938892)
(0.0109367 -0.104399 -7.82076e-08)
(0.0109364 -0.1044 -1.47345e-09)
(0.0109367 -0.104399 7.67484e-08)
(0.0109407 -0.104396 0.938892)
(0.0110251 -0.0951084 -0.937505)
(0.0110213 -0.0951113 -4.71066e-08)
(0.011021 -0.0951127 -1.99266e-09)
(0.0110213 -0.0951113 4.51453e-08)
(0.0110251 -0.0951084 0.937505)
(0.0110929 -0.0858373 -0.936062)
(0.0110891 -0.0858406 -1.20681e-08)
(0.0110888 -0.085842 2.68594e-11)
(0.0110891 -0.0858406 1.07436e-08)
(0.0110929 -0.0858373 0.936062)
(0.011149 -0.0766116 -0.933326)
(0.0111452 -0.0766155 2.8965e-08)
(0.0111449 -0.0766169 1.70389e-09)
(0.0111452 -0.0766155 -2.94701e-08)
(0.011149 -0.0766116 0.933326)
(0.00018987 -0.374606 -0.979336)
(0.000189801 -0.374605 7.18069e-08)
(0.000189737 -0.374605 3.45266e-13)
(0.000189813 -0.374605 -7.19372e-08)
(0.000189889 -0.374606 0.979336)
(0.000257623 -0.374452 -0.968214)
(0.000257711 -0.374449 -9.88333e-08)
(0.000257704 -0.374448 1.70104e-10)
(0.000257723 -0.374449 9.88038e-08)
(0.000257643 -0.374452 0.968214)
(0.000387803 -0.374264 -0.967608)
(0.000388115 -0.374264 -5.54716e-08)
(0.000388201 -0.374264 5.63239e-10)
(0.000388127 -0.374264 5.60778e-08)
(0.000387821 -0.374264 0.967608)
(0.000581941 -0.373993 -0.966987)
(0.000582543 -0.373993 -3.36143e-08)
(0.000582707 -0.373993 1.08877e-09)
(0.000582551 -0.373993 3.51672e-08)
(0.000581953 -0.373993 0.966987)
(0.000838625 -0.373592 -0.966362)
(0.000839384 -0.373592 -4.07307e-08)
(0.000839573 -0.373592 1.82513e-09)
(0.000839387 -0.373592 4.33046e-08)
(0.000838628 -0.373592 0.966362)
(0.00115542 -0.373029 -0.965722)
(0.00115634 -0.373029 -4.29012e-08)
(0.00115655 -0.373029 2.22094e-09)
(0.00115634 -0.373029 4.61212e-08)
(0.00115542 -0.373029 0.965722)
(0.00152899 -0.372274 -0.965072)
(0.00153012 -0.372274 -4.13394e-08)
(0.00153037 -0.372274 2.38242e-09)
(0.00153012 -0.372274 4.48452e-08)
(0.00152898 -0.372274 0.965072)
(0.00195601 -0.371299 -0.96441)
(0.00195739 -0.371299 -3.97737e-08)
(0.00195768 -0.371299 2.29395e-09)
(0.00195739 -0.371299 4.31868e-08)
(0.001956 -0.371299 0.96441)
(0.00243489 -0.370078 -0.96374)
(0.00243655 -0.370078 -3.78885e-08)
(0.00243689 -0.370078 1.94636e-09)
(0.00243655 -0.370078 4.0865e-08)
(0.00243488 -0.370078 0.96374)
(0.00296666 -0.368589 -0.963056)
(0.00296861 -0.368589 -3.50651e-08)
(0.00296901 -0.368589 1.57868e-09)
(0.00296861 -0.368589 3.74684e-08)
(0.00296666 -0.368589 0.963056)
(0.00355463 -0.36681 -0.962359)
(0.00355689 -0.36681 -3.0931e-08)
(0.00355734 -0.36681 1.29648e-09)
(0.00355689 -0.36681 3.27748e-08)
(0.00355463 -0.36681 0.962359)
(0.00420368 -0.364717 -0.961654)
(0.00420627 -0.364717 -2.51918e-08)
(0.00420677 -0.364717 8.37427e-10)
(0.00420627 -0.364717 2.64589e-08)
(0.00420368 -0.364717 0.961654)
(0.00491913 -0.362285 -0.960931)
(0.00492205 -0.362285 -1.73709e-08)
(0.0049226 -0.362285 5.70145e-10)
(0.00492205 -0.362285 1.82286e-08)
(0.00491913 -0.362284 0.960931)
(0.00570612 -0.359487 -0.960206)
(0.00570938 -0.359487 -7.07989e-09)
(0.00570998 -0.359487 4.6358e-10)
(0.00570938 -0.359487 7.7418e-09)
(0.00570612 -0.359487 0.960206)
(0.00656895 -0.356295 -0.95946)
(0.00657256 -0.356295 6.09423e-09)
(0.00657321 -0.356295 3.92869e-10)
(0.00657256 -0.356295 -5.47186e-09)
(0.00656895 -0.356295 0.95946)
(0.00751044 -0.352679 -0.958702)
(0.00751439 -0.35268 2.26794e-08)
(0.00751508 -0.35268 5.78281e-10)
(0.0075144 -0.35268 -2.17095e-08)
(0.00751044 -0.352679 0.958702)
(0.00853214 -0.34861 -0.957933)
(0.00853644 -0.348611 4.27226e-08)
(0.00853717 -0.348611 1.01044e-09)
(0.00853644 -0.348611 -4.10668e-08)
(0.00853214 -0.34861 0.957933)
(0.00963362 -0.344057 -0.957147)
(0.00963826 -0.344058 6.64798e-08)
(0.00963903 -0.344059 1.63503e-09)
(0.00963827 -0.344058 -6.39107e-08)
(0.00963362 -0.344057 0.957147)
(0.0108125 -0.338991 -0.956352)
(0.0108175 -0.338992 9.39492e-08)
(0.0108183 -0.338993 2.22901e-09)
(0.0108175 -0.338992 -9.05464e-08)
(0.0108125 -0.338991 0.956352)
(0.0120643 -0.333385 -0.955534)
(0.0120696 -0.333387 1.25001e-07)
(0.0120705 -0.333387 2.58123e-09)
(0.0120696 -0.333387 -1.21148e-07)
(0.0120643 -0.333385 0.955534)
(0.013382 -0.327215 -0.954703)
(0.0133876 -0.327217 1.59327e-07)
(0.0133885 -0.327218 2.79356e-09)
(0.0133876 -0.327217 -1.55525e-07)
(0.013382 -0.327215 0.954703)
(0.0147565 -0.32046 -0.953856)
(0.0147623 -0.320462 1.96674e-07)
(0.0147632 -0.320463 6.58447e-10)
(0.0147623 -0.320462 -1.93839e-07)
(0.0147565 -0.32046 0.953856)
(0.0161761 -0.313104 -0.952987)
(0.0161823 -0.313106 2.37765e-07)
(0.0161831 -0.313107 3.33013e-09)
(0.0161823 -0.313106 -2.34343e-07)
(0.0161761 -0.313104 0.952987)
(0.0176272 -0.305136 -0.952098)
(0.0176336 -0.305139 2.80735e-07)
(0.0176345 -0.30514 3.9063e-10)
(0.0176336 -0.305139 -2.7831e-07)
(0.0176272 -0.305136 0.952098)
(0.0190943 -0.296552 -0.951187)
(0.0191009 -0.296556 3.27167e-07)
(0.0191019 -0.296557 4.37211e-09)
(0.0191009 -0.296556 -3.23379e-07)
(0.0190943 -0.296552 0.951187)
(0.0205603 -0.287355 -0.950251)
(0.0205671 -0.287359 3.7431e-07)
(0.0205681 -0.28736 4.47528e-09)
(0.0205671 -0.287359 -3.70573e-07)
(0.0205603 -0.287355 0.950251)
(0.0220073 -0.277555 -0.949289)
(0.0220143 -0.277559 4.21946e-07)
(0.0220153 -0.27756 4.05359e-10)
(0.0220143 -0.277559 -4.1969e-07)
(0.0220073 -0.277555 0.949289)
(0.0234172 -0.267169 -0.948298)
(0.0234244 -0.267173 4.70904e-07)
(0.0234254 -0.267174 3.79078e-09)
(0.0234244 -0.267173 -4.67958e-07)
(0.0234172 -0.267169 0.948298)
(0.0247724 -0.256222 -0.947274)
(0.0247796 -0.256226 5.18346e-07)
(0.0247806 -0.256227 -2.5255e-10)
(0.0247796 -0.256226 -5.16804e-07)
(0.0247724 -0.256222 0.947274)
(0.0260564 -0.244747 -0.946218)
(0.0260637 -0.244751 5.65678e-07)
(0.0260647 -0.244753 3.59653e-09)
(0.0260637 -0.244751 -5.63416e-07)
(0.0260564 -0.244747 0.946218)
(0.0272551 -0.232785 -0.945124)
(0.0272625 -0.232789 6.10118e-07)
(0.0272635 -0.23279 -1.26958e-09)
(0.0272625 -0.232789 -6.09326e-07)
(0.0272551 -0.232785 0.945124)
(0.0283573 -0.22038 -0.943989)
(0.0283647 -0.220384 6.53519e-07)
(0.0283658 -0.220386 3.69654e-09)
(0.0283647 -0.220384 -6.5158e-07)
(0.0283573 -0.22038 0.943989)
(0.0293555 -0.207585 -0.942812)
(0.0293629 -0.207588 6.92868e-07)
(0.0293639 -0.20759 -2.24794e-09)
(0.0293629 -0.207588 -6.92552e-07)
(0.0293555 -0.207585 0.942812)
(0.0302462 -0.194453 -0.941587)
(0.0302535 -0.194456 7.30742e-07)
(0.0302546 -0.194458 4.11026e-09)
(0.0302535 -0.194456 -7.29002e-07)
(0.0302462 -0.194453 0.941587)
(0.0310306 -0.181042 -0.940313)
(0.0310378 -0.181045 7.63867e-07)
(0.0310388 -0.181047 -2.8242e-09)
(0.0310378 -0.181045 -7.63532e-07)
(0.0310306 -0.181042 0.940313)
(0.0317138 -0.16741 -0.938988)
(0.0317209 -0.167414 7.95603e-07)
(0.0317219 -0.167415 5.02491e-09)
(0.0317209 -0.167414 -7.93253e-07)
(0.0317138 -0.16741 0.938988)
(0.0323037 -0.153616 -0.937605)
(0.0323105 -0.153619 8.21797e-07)
(0.0323115 -0.153621 -3.45008e-09)
(0.0323105 -0.153619 -8.21372e-07)
(0.0323037 -0.153616 0.937605)
(0.0328073 -0.139717 -0.936165)
(0.0328138 -0.13972 8.45827e-07)
(0.0328147 -0.139721 4.69025e-09)
(0.0328138 -0.13972 -8.43906e-07)
(0.0328073 -0.139717 0.936165)
(0.0332246 -0.12577 -0.933524)
(0.0332307 -0.125773 8.59924e-07)
(0.0332315 -0.125774 -7.54049e-10)
(0.0332307 -0.125773 -8.59926e-07)
(0.0332246 -0.12577 0.933524)
(0.000272695 -0.44196 -0.980383)
(0.000272282 -0.441959 6.6254e-08)
(0.000272141 -0.441959 2.3025e-11)
(0.000272294 -0.441959 -6.63582e-08)
(0.000272715 -0.44196 0.980383)
(0.000379695 -0.441822 -0.968232)
(0.000379827 -0.441819 -9.74879e-08)
(0.00037982 -0.441819 2.61211e-10)
(0.00037984 -0.441819 9.76151e-08)
(0.000379716 -0.441822 0.968232)
(0.000581459 -0.441652 -0.967625)
(0.00058175 -0.441652 -5.50899e-08)
(0.000581821 -0.441652 7.08691e-10)
(0.000581762 -0.441652 5.59748e-08)
(0.000581477 -0.441652 0.967625)
(0.000877773 -0.441407 -0.967003)
(0.000878187 -0.441408 -3.25486e-08)
(0.000878312 -0.441408 1.24278e-09)
(0.000878194 -0.441408 3.44232e-08)
(0.000877785 -0.441407 0.967003)
(0.00127129 -0.441043 -0.966376)
(0.00127175 -0.441043 -4.30158e-08)
(0.00127189 -0.441042 1.89248e-09)
(0.00127175 -0.441043 4.58582e-08)
(0.00127129 -0.441043 0.966376)
(0.00176225 -0.440526 -0.965735)
(0.00176272 -0.440526 -4.91887e-08)
(0.00176285 -0.440526 2.08e-09)
(0.00176271 -0.440526 5.25112e-08)
(0.00176224 -0.440526 0.965735)
(0.00234745 -0.439825 -0.965083)
(0.00234792 -0.439825 -5.1629e-08)
(0.00234806 -0.439825 2.0541e-09)
(0.00234791 -0.439825 5.50144e-08)
(0.00234744 -0.439825 0.965083)
(0.00302248 -0.43891 -0.96442)
(0.00302294 -0.43891 -5.49061e-08)
(0.00302308 -0.438909 1.86319e-09)
(0.00302294 -0.43891 5.79997e-08)
(0.00302247 -0.43891 0.96442)
(0.00378485 -0.437751 -0.963749)
(0.00378529 -0.437751 -5.89054e-08)
(0.00378541 -0.437751 1.5779e-09)
(0.00378528 -0.437751 6.14596e-08)
(0.00378483 -0.437751 0.963749)
(0.0046359 -0.436325 -0.963063)
(0.0046363 -0.436325 -6.29434e-08)
(0.00463641 -0.436324 1.31435e-09)
(0.0046363 -0.436324 6.49149e-08)
(0.00463589 -0.436325 0.963063)
(0.00558084 -0.434605 -0.962364)
(0.00558119 -0.434605 -6.67708e-08)
(0.00558128 -0.434605 1.14696e-09)
(0.00558119 -0.434605 6.82972e-08)
(0.00558083 -0.434605 0.962364)
(0.00662792 -0.432566 -0.961657)
(0.00662819 -0.432566 -7.01782e-08)
(0.00662825 -0.432566 1.09178e-09)
(0.00662819 -0.432566 7.14732e-08)
(0.00662791 -0.432566 0.961657)
(0.00778663 -0.430181 -0.960931)
(0.00778679 -0.430181 -7.2913e-08)
(0.00778681 -0.430181 1.15764e-09)
(0.00778678 -0.430181 7.42337e-08)
(0.00778662 -0.430181 0.960931)
(0.00906676 -0.427419 -0.960204)
(0.00906678 -0.427419 -7.48094e-08)
(0.00906676 -0.427419 1.48352e-09)
(0.00906678 -0.427419 7.64015e-08)
(0.00906676 -0.427419 0.960204)
(0.0104773 -0.424248 -0.959456)
(0.0104772 -0.424248 -7.58253e-08)
(0.0104771 -0.424248 1.22755e-09)
(0.0104772 -0.424248 7.75565e-08)
(0.0104773 -0.424248 0.959456)
(0.0120254 -0.420633 -0.958695)
(0.012025 -0.420633 -7.56292e-08)
(0.0120248 -0.420634 1.2624e-09)
(0.012025 -0.420633 7.76757e-08)
(0.0120254 -0.420633 0.958695)
(0.0137164 -0.416538 -0.957924)
(0.0137157 -0.416538 -7.4067e-08)
(0.0137154 -0.416539 1.2781e-09)
(0.0137157 -0.416538 7.64343e-08)
(0.0137164 -0.416538 0.957924)
(0.015553 -0.411925 -0.957135)
(0.015552 -0.411925 -7.08724e-08)
(0.0155516 -0.411926 1.34305e-09)
(0.015552 -0.411925 7.34822e-08)
(0.015553 -0.411925 0.957135)
(0.0175352 -0.406756 -0.956338)
(0.0175338 -0.406756 -6.59713e-08)
(0.0175334 -0.406757 1.26038e-09)
(0.0175338 -0.406756 6.85143e-08)
(0.0175352 -0.406756 0.956338)
(0.0196597 -0.400993 -0.955519)
(0.0196579 -0.400994 -5.92999e-08)
(0.0196573 -0.400994 9.40062e-10)
(0.0196579 -0.400994 6.13009e-08)
(0.0196597 -0.400993 0.955519)
(0.0219192 -0.3946 -0.954686)
(0.0219169 -0.394601 -5.07854e-08)
(0.0219162 -0.394602 5.34879e-10)
(0.0219169 -0.394601 5.20081e-08)
(0.0219192 -0.3946 0.954686)
(0.0243033 -0.387543 -0.953837)
(0.0243006 -0.387544 -4.01681e-08)
(0.0242997 -0.387545 -3.13428e-11)
(0.0243006 -0.387544 4.04591e-08)
(0.0243033 -0.387543 0.953837)
(0.0267973 -0.379791 -0.952969)
(0.0267941 -0.379792 -2.70131e-08)
(0.0267931 -0.379793 2.26894e-10)
(0.026794 -0.379792 2.72155e-08)
(0.0267973 -0.379791 0.952969)
(0.0293827 -0.371317 -0.952079)
(0.0293789 -0.371319 -1.13867e-08)
(0.0293778 -0.37132 2.9446e-10)
(0.0293789 -0.371319 1.17219e-08)
(0.0293827 -0.371317 0.952079)
(0.0320372 -0.362102 -0.951169)
(0.0320329 -0.362104 7.07847e-09)
(0.0320317 -0.362105 1.28987e-09)
(0.0320329 -0.362104 -5.74643e-09)
(0.0320372 -0.362102 0.951169)
(0.0347356 -0.352131 -0.950235)
(0.0347307 -0.352133 2.75338e-08)
(0.0347294 -0.352134 1.80656e-09)
(0.0347307 -0.352133 -2.52045e-08)
(0.0347356 -0.352131 0.950235)
(0.0374496 -0.341397 -0.949275)
(0.0374443 -0.341399 5.00439e-08)
(0.0374428 -0.341401 1.88931e-09)
(0.0374443 -0.341399 -4.70035e-08)
(0.0374496 -0.341397 0.949275)
(0.0401495 -0.329903 -0.948288)
(0.0401438 -0.329905 7.44771e-08)
(0.0401422 -0.329907 2.69754e-09)
(0.0401438 -0.329905 -7.03154e-08)
(0.0401495 -0.329903 0.948288)
(0.0428046 -0.317659 -0.947269)
(0.0427984 -0.317662 1.00108e-07)
(0.0427968 -0.317664 2.61489e-09)
(0.0427984 -0.317662 -9.56015e-08)
(0.0428046 -0.317659 0.947269)
(0.0453844 -0.304689 -0.946217)
(0.045378 -0.304691 1.26825e-07)
(0.0453763 -0.304693 3.14059e-09)
(0.045378 -0.304691 -1.21652e-07)
(0.0453844 -0.304689 0.946217)
(0.0478605 -0.291021 -0.945129)
(0.0478537 -0.291024 1.53724e-07)
(0.047852 -0.291025 2.7124e-09)
(0.0478537 -0.291024 -1.48706e-07)
(0.0478605 -0.291021 0.945129)
(0.0502069 -0.276697 -0.944001)
(0.0502 -0.2767 1.80773e-07)
(0.0501982 -0.276702 3.12268e-09)
(0.0502 -0.2767 -1.75488e-07)
(0.0502069 -0.276697 0.944001)
(0.0524024 -0.261767 -0.942831)
(0.0523952 -0.26177 2.06915e-07)
(0.0523935 -0.261772 2.30814e-09)
(0.0523952 -0.26177 -2.02485e-07)
(0.0524024 -0.261767 0.942831)
(0.0544305 -0.246289 -0.941614)
(0.0544231 -0.246292 2.32229e-07)
(0.0544214 -0.246293 2.4442e-09)
(0.0544231 -0.246292 -2.28009e-07)
(0.0544305 -0.246289 0.941614)
(0.0562808 -0.230328 -0.940348)
(0.0562734 -0.230331 2.55855e-07)
(0.0562716 -0.230332 1.31202e-09)
(0.0562734 -0.230331 -2.52764e-07)
(0.0562808 -0.230328 0.940348)
(0.0579488 -0.213955 -0.93903)
(0.0579411 -0.213957 2.78138e-07)
(0.0579394 -0.213958 1.42887e-09)
(0.0579411 -0.213957 -2.75702e-07)
(0.0579487 -0.213955 0.93903)
(0.0594334 -0.197243 -0.937654)
(0.0594256 -0.197245 2.98192e-07)
(0.0594239 -0.197247 1.16945e-10)
(0.0594256 -0.197245 -2.97352e-07)
(0.0594334 -0.197243 0.937654)
(0.0607336 -0.180271 -0.93622)
(0.0607257 -0.180273 3.18124e-07)
(0.0607239 -0.180274 9.24679e-11)
(0.0607257 -0.180273 -3.17971e-07)
(0.0607336 -0.180271 0.93622)
(0.0618383 -0.163116 -0.933657)
(0.0618303 -0.163119 3.38615e-07)
(0.0618285 -0.16312 -6.28577e-10)
(0.0618303 -0.163119 -3.39408e-07)
(0.0618383 -0.163116 0.933657)
(0.000345629 -0.476395 -0.980918)
(0.000344992 -0.476394 5.93055e-08)
(0.000344793 -0.476394 2.42047e-11)
(0.000345003 -0.476394 -5.93765e-08)
(0.000345647 -0.476395 0.980918)
(0.000484804 -0.476277 -0.968239)
(0.000485052 -0.476274 -8.72651e-08)
(0.000485067 -0.476274 3.20297e-10)
(0.000485063 -0.476274 8.75269e-08)
(0.000484821 -0.476277 0.968239)
(0.000747775 -0.476133 -0.96763)
(0.000748219 -0.476133 -4.71986e-08)
(0.000748323 -0.476133 7.87232e-10)
(0.000748228 -0.476133 4.82717e-08)
(0.00074779 -0.476133 0.96763)
(0.00113282 -0.475928 -0.967005)
(0.00113331 -0.475929 -2.37233e-08)
(0.00113346 -0.475929 1.28387e-09)
(0.00113331 -0.475929 2.57564e-08)
(0.00113282 -0.475928 0.967005)
(0.00164659 -0.475622 -0.966376)
(0.00164715 -0.475622 -3.31268e-08)
(0.00164734 -0.475622 1.61938e-09)
(0.00164715 -0.475622 3.58731e-08)
(0.00164659 -0.475622 0.966376)
(0.00229312 -0.475184 -0.965733)
(0.00229374 -0.475184 -3.89303e-08)
(0.00229394 -0.475184 1.72459e-09)
(0.00229373 -0.475184 4.19745e-08)
(0.00229311 -0.475184 0.965733)
(0.00307056 -0.474585 -0.965078)
(0.00307123 -0.474585 -4.09124e-08)
(0.00307144 -0.474585 1.61403e-09)
(0.00307121 -0.474585 4.38196e-08)
(0.00307055 -0.474585 0.965078)
(0.00397428 -0.473795 -0.964411)
(0.00397498 -0.473795 -4.38394e-08)
(0.00397521 -0.473795 1.35608e-09)
(0.00397497 -0.473795 4.62757e-08)
(0.00397426 -0.473795 0.964411)
(0.00500128 -0.472786 -0.963737)
(0.00500202 -0.472786 -4.76721e-08)
(0.00500226 -0.472786 1.05857e-09)
(0.00500201 -0.472786 4.94942e-08)
(0.00500127 -0.472786 0.963737)
(0.00615335 -0.471532 -0.963048)
(0.00615412 -0.471532 -5.16413e-08)
(0.00615437 -0.471531 8.59431e-10)
(0.00615412 -0.471532 5.29544e-08)
(0.00615334 -0.471532 0.963048)
(0.00743761 -0.470008 -0.962345)
(0.00743841 -0.470008 -5.54472e-08)
(0.00743866 -0.470008 8.53087e-10)
(0.0074384 -0.470008 5.65645e-08)
(0.00743761 -0.470008 0.962345)
(0.00886577 -0.468188 -0.961634)
(0.00886658 -0.468188 -5.8878e-08)
(0.00886683 -0.468188 1.05446e-09)
(0.00886658 -0.468188 6.01785e-08)
(0.00886577 -0.468188 0.961634)
(0.0104519 -0.466044 -0.960903)
(0.0104527 -0.466044 -6.16973e-08)
(0.010453 -0.466044 1.40087e-09)
(0.0104527 -0.466044 6.34717e-08)
(0.0104519 -0.466044 0.960903)
(0.0122112 -0.463545 -0.960172)
(0.012212 -0.463545 -6.38032e-08)
(0.0122122 -0.463545 1.8033e-09)
(0.012212 -0.463545 6.618e-08)
(0.0122112 -0.463545 0.960172)
(0.0141583 -0.460657 -0.959418)
(0.0141591 -0.460657 -6.50889e-08)
(0.0141592 -0.460657 2.04289e-09)
(0.0141591 -0.460657 6.78753e-08)
(0.0141583 -0.460657 0.959418)
(0.0163059 -0.457342 -0.958652)
(0.0163067 -0.457342 -6.55718e-08)
(0.0163068 -0.457342 1.53948e-09)
(0.0163067 -0.457342 6.83007e-08)
(0.0163059 -0.457342 0.958652)