/*--------------------------------*- C++ -*----------------------------------*\
  =========                 |
  \\      /  F ield         | OpenFOAM: The Open Source CFD Toolbox
   \\    /   O peration     | Website:  https://openfoam.org
    \\  /    A nd           | Version:  9
     \\/     M anipulation  |
\*---------------------------------------------------------------------------*/
FoamFile
{
    format      ascii;
    class       volScalarField;
    location    "4.65";
    object      k;
}
// * * * * * * * * * * * * * * * * * * * * * * * * * * * * * * * * * * * * * //

dimensions      [0 2 -2 0 0 0 0];

internalField   nonuniform List<scalar> 
36360
(
0.214096
0.189465
0.145832
0.132389
0.068729
0.0612543
0.0319152
0.0353059
0.130701
0.0981277
0.0810545
0.0537493
0.0411563
0.0288039
0.0186251
0.0103055
0.0840142
0.0839835
0.0426583
0.0426366
0.0234722
0.0234633
0.00791736
0.00791469
0.098031
0.130533
0.0536734
0.0809089
0.0287728
0.0410967
0.010291
0.0185846
0.189236
0.213826
0.132176
0.145574
0.0611636
0.0686142
0.035233
0.0318315
0.311122
0.28195
0.266284
0.238313
0.116374
0.103386
0.0948737
0.083438
0.218799
0.182957
0.176367
0.141528
0.0810141
0.0675634
0.0618181
0.048637
0.166896
0.166857
0.126099
0.126064
0.0616212
0.0616064
0.0428759
0.0428636
0.18284
0.218608
0.141419
0.176185
0.0675177
0.0809355
0.0485974
0.0617478
0.281698
0.310831
0.238071
0.266003
0.103275
0.116237
0.0833359
0.0947467
0.38986
0.35958
0.352043
0.322205
0.153406
0.138831
0.135646
0.121735
0.295426
0.258724
0.258415
0.222034
0.115703
0.101947
0.0989217
0.0853015
0.242067
0.242024
0.20561
0.205569
0.0957611
0.0957433
0.0792243
0.0792078
0.258598
0.295221
0.221912
0.258216
0.101893
0.115613
0.0852512
0.0988365
0.359314
0.389554
0.321944
0.351744
0.138705
0.153253
0.121616
0.1355
0.457097
0.426338
0.42478
0.394212
0.18497
0.169522
0.169793
0.15472
0.361864
0.324866
0.329855
0.292964
0.145942
0.131988
0.131346
0.117479
0.307956
0.307912
0.276154
0.27611
0.125648
0.125628
0.111206
0.111187
0.324735
0.361654
0.292835
0.329647
0.131929
0.145844
0.117423
0.131251
0.426066
0.456786
0.393942
0.424471
0.169388
0.184807
0.15459
0.169634
0.514394
0.483448
0.48689
0.456013
0.21187
0.195921
0.198952
0.183217
0.418932
0.381873
0.3915
0.354452
0.172039
0.157964
0.159472
0.14545
0.364874
0.36483
0.337485
0.33744
0.151537
0.151516
0.13906
0.139039
0.381742
0.418722
0.354321
0.391289
0.157903
0.171938
0.14539
0.159373
0.483176
0.514083
0.455741
0.486578
0.195782
0.211702
0.18308
0.198785
0.562955
0.531975
0.539671
0.508696
0.234675
0.218446
0.223733
0.207623
0.467555
0.430552
0.444221
0.407182
0.194358
0.180214
0.183629
0.169515
0.41355
0.413506
0.390174
0.39013
0.173741
0.17372
0.16306
0.163039
0.430421
0.467347
0.407051
0.444012
0.180152
0.194255
0.169453
0.183527
0.531706
0.562647
0.508424
0.539361
0.218306
0.234504
0.207483
0.223563
0.603902
0.572967
0.584292
0.553328
0.253914
0.237529
0.244692
0.228372
0.508719
0.471828
0.488994
0.452044
0.213308
0.199135
0.204212
0.190049
0.454867
0.454824
0.43506
0.435016
0.192638
0.192617
0.183563
0.183542
0.4717
0.508514
0.451915
0.488788
0.199072
0.213206
0.189986
0.20411
0.572702
0.603599
0.553061
0.583986
0.237388
0.253742
0.228231
0.24452
0.638275
0.607424
0.621832
0.590936
0.270073
0.253605
0.262333
0.245899
0.543383
0.506631
0.526794
0.489973
0.229305
0.215127
0.221636
0.207458
0.489732
0.48969
0.473042
0.472999
0.208622
0.208602
0.200955
0.200934
0.506506
0.543182
0.489846
0.526592
0.215065
0.229203
0.207396
0.221533
0.607164
0.637978
0.590673
0.621531
0.253465
0.269902
0.245758
0.262162
0.666959
0.63621
0.653256
0.622455
0.283572
0.267064
0.277114
0.26062
0.572393
0.535791
0.558532
0.521856
0.242723
0.228553
0.236298
0.222123
0.51896
0.518918
0.504991
0.504949
0.222058
0.222037
0.215622
0.215601
0.535667
0.572195
0.521732
0.558333
0.228491
0.242621
0.222061
0.236196
0.635955
0.666667
0.622197
0.652961
0.266925
0.283401
0.26048
0.276942
0.690748
0.660105
0.679403
0.648707
0.294782
0.278262
0.289426
0.272908
0.596515
0.560064
0.58501
0.548485
0.253904
0.239754
0.248558
0.234397
0.543305
0.543264
0.53169
0.531649
0.233274
0.233253
0.227909
0.227888
0.559943
0.596321
0.548363
0.584814
0.239692
0.253803
0.234335
0.248456
0.659854
0.69046
0.648454
0.679112
0.278124
0.294613
0.272769
0.289255
0.710294
0.679759
0.700993
0.670405
0.304012
0.287494
0.299609
0.283087
0.616395
0.580093
0.606936
0.570562
0.263142
0.249016
0.258733
0.244595
0.563405
0.563365
0.553839
0.553798
0.242555
0.242535
0.238124
0.238103
0.579973
0.616204
0.570441
0.606743
0.248955
0.263042
0.244533
0.258632
0.679511
0.71001
0.670155
0.700707
0.287356
0.303842
0.282949
0.299439
0.726166
0.695734
0.71864
0.688157
0.311526
0.295021
0.307951
0.291438
0.632593
0.596437
0.624912
0.588685
0.270691
0.256596
0.267098
0.252987
0.579821
0.57978
0.572034
0.571993
0.250155
0.250135
0.246536
0.246516
0.596319
0.632404
0.588567
0.624722
0.256536
0.270591
0.252926
0.266998
0.69549
0.725885
0.687911
0.718357
0.294884
0.311357
0.291301
0.307782
0.738826
0.708496
0.732851
0.702471
0.317543
0.301059
0.314691
0.298195
0.645573
0.60956
0.639447
0.603365
0.276762
0.262705
0.273883
0.259807
0.593014
0.592975
0.586784
0.586744
0.256283
0.256262
0.253375
0.253355
0.609443
0.645387
0.603247
0.639259
0.262645
0.276663
0.259746
0.273783
0.708254
0.738548
0.702227
0.732571
0.300922
0.317375
0.298058
0.314523
0.748681
0.718449
0.744062
0.713782
0.322252
0.305793
0.320033
0.303559
0.65574
0.619867
0.650975
0.615034
0.281541
0.267525
0.279287
0.26525
0.603391
0.603352
0.598523
0.598484
0.261121
0.261101
0.258837
0.258817
0.619751
0.655555
0.614917
0.650789
0.267465
0.281443
0.26519
0.279188
0.71821
0.748405
0.713542
0.743785
0.305657
0.322085
0.303423
0.319865
0.756053
0.725921
0.75264
0.722458
0.325806
0.309375
0.324147
0.307701
0.663425
0.627691
0.659864
0.624062
0.285179
0.271207
0.283478
0.269484
0.611285
0.611246
0.607622
0.607582
0.264822
0.264802
0.263089
0.263069
0.627576
0.663242
0.623947
0.65968
0.271147
0.285081
0.269424
0.28338
0.725684
0.755779
0.72222
0.752365
0.30924
0.325639
0.307565
0.32398
0.761221
0.731193
0.758878
0.728798
0.328334
0.311936
0.327173
0.310757
0.668909
0.633314
0.666416
0.630754
0.287805
0.27388
0.286595
0.272647
0.61698
0.616941
0.614384
0.614345
0.267514
0.267494
0.266271
0.266251
0.6332
0.668727
0.630639
0.666234
0.273821
0.287707
0.272587
0.286497
0.730957
0.76095
0.728562
0.758605
0.311801
0.328168
0.310622
0.327006
0.764412
0.734495
0.763033
0.733059
0.329945
0.313581
0.329231
0.312848
0.672426
0.63697
0.670891
0.635367
0.289525
0.27565
0.288757
0.274857
0.620707
0.620669
0.619069
0.61903
0.269304
0.269284
0.2685
0.26848
0.636857
0.672245
0.635254
0.67071
0.275591
0.289428
0.274797
0.288659
0.734261
0.764143
0.732825
0.762762
0.313447
0.329779
0.312714
0.329065
0.765808
0.736013
0.765307
0.735449
0.330723
0.314396
0.330416
0.314069
0.674164
0.63885
0.673497
0.638114
0.290428
0.276605
0.290058
0.276209
0.622657
0.622619
0.621886
0.621847
0.270283
0.270263
0.269875
0.269855
0.638738
0.673985
0.638001
0.673317
0.276546
0.290331
0.27615
0.289961
0.735781
0.765541
0.735216
0.765038
0.314263
0.330558
0.313935
0.33025
0.765572
0.735911
0.76586
0.736132
0.330738
0.31445
0.3308
0.314494
0.674284
0.639113
0.674405
0.639166
0.290575
0.276807
0.290578
0.276784
0.622991
0.622953
0.623009
0.622972
0.270513
0.270493
0.270476
0.270456
0.639002
0.674106
0.639055
0.674227
0.276749
0.290479
0.276725
0.290482
0.735681
0.765307
0.735901
0.765594
0.314317
0.330573
0.314361
0.330635
0.763818
0.734316
0.764864
0.735281
0.330062
0.31382
0.330477
0.314212
0.672922
0.637909
0.673782
0.638692
0.290056
0.276351
0.290397
0.276659
0.621864
0.621827
0.622609
0.622571
0.270087
0.270067
0.270379
0.270359
0.637799
0.672745
0.638581
0.673605
0.276293
0.28996
0.276601
0.290301
0.734087
0.763555
0.735052
0.764599
0.313688
0.329898
0.314079
0.330313
0.760643
0.73132
0.762385
0.732969
0.328723
0.312528
0.329454
0.313234
0.670165
0.635313
0.671701
0.63677
0.288882
0.275243
0.28953
0.275858
0.619347
0.61931
0.620764
0.620727
0.269009
0.26899
0.269608
0.269589
0.635203
0.66999
0.63666
0.671526
0.275185
0.288787
0.2758
0.289435
0.731094
0.760382
0.732741
0.762122
0.312397
0.32856
0.313102
0.32929
0.756126
0.727011
0.758531
0.729309
0.326765
0.310622
0.327803
0.311632
0.666109
0.631425
0.668287
0.633519
0.28711
0.27354
0.288054
0.274449
0.615541
0.615504
0.617594
0.617557
0.267339
0.26732
0.268232
0.268212
0.631316
0.665936
0.63341
0.668113
0.273483
0.287015
0.274391
0.287959
0.726786
0.755867
0.729083
0.758271
0.310492
0.326604
0.311501
0.32764
0.75032
0.721445
0.753364
0.724365
0.324214
0.308128
0.325546
0.309429
0.660814
0.626306
0.663605
0.629009
0.284764
0.271269
0.285992
0.272459
0.610509
0.610472
0.613168
0.613132
0.265103
0.265084
0.266276
0.266256
0.626199
0.660642
0.628901
0.663432
0.271212
0.28467
0.272402
0.285898
0.721223
0.750063
0.724142
0.753106
0.307999
0.324054
0.3093
0.325385
0.743269
0.71467
0.746931
0.71819
0.32109
0.305065
0.322706
0.306649
0.654327
0.620006
0.657709
0.623295
0.281866
0.268451
0.283368
0.269912
0.6043
0.604264
0.607543
0.607506
0.262322
0.262303
0.263765
0.263746
0.6199
0.654156
0.623188
0.657538
0.268394
0.281773
0.269856
0.283275
0.71445
0.743015
0.717968
0.746675
0.304938
0.320932
0.30652
0.322547
0.73501
0.706724
0.739272
0.710825
0.317411
0.301452
0.319303
0.303309
0.646686
0.612564
0.650641
0.61642
0.278433
0.265103
0.280201
0.266828
0.596953
0.596918
0.600761
0.600725
0.259013
0.258994
0.260718
0.260699
0.612459
0.646518
0.616314
0.650472
0.265047
0.278342
0.266772
0.280109
0.706506
0.734759
0.710606
0.739019
0.301326
0.317254
0.303182
0.319145
0.725572
0.697636
0.730421
0.702305
0.313189
0.297301
0.315351
0.299426
0.637922
0.604007
0.642436
0.608418
0.274478
0.261237
0.276506
0.26322
0.588497
0.588462
0.592857
0.592821
0.255188
0.25517
0.25715
0.257131
0.603903
0.637755
0.608313
0.642268
0.261182
0.274387
0.263164
0.276415
0.697421
0.725324
0.702089
0.730171
0.297176
0.313034
0.2993
0.315195
0.714977
0.687429
0.720402
0.692656
0.308434
0.292621
0.310862
0.29501
0.628055
0.594357
0.633118
0.599312
0.270009
0.256863
0.272294
0.259099
0.578952
0.578917
0.583854
0.583819
0.250856
0.250838
0.253071
0.253053
0.594254
0.62789
0.599209
0.632952
0.256808
0.26992
0.259045
0.272204
0.687217
0.714732
0.692442
0.720155
0.292498
0.308281
0.294886
0.310708
0.703247
0.676122
0.709237
0.681897
0.303155
0.287423
0.305845
0.29007
0.617101
0.583628
0.622706
0.589121
0.265035
0.251986
0.267571
0.254473
0.568331
0.568296
0.57377
0.573735
0.246024
0.246006
0.248489
0.248471
0.583526
0.616939
0.589019
0.622543
0.251932
0.264946
0.25442
0.267483
0.675912
0.703006
0.681686
0.708994
0.287302
0.303005
0.289948
0.305693
0.690399
0.663725
0.696947
0.670044
0.297359
0.28171
0.300307
0.284615
0.60507
0.571827
0.611213
0.577856
0.259557
0.246609
0.262345
0.249347
0.556641
0.556607
0.562614
0.56258
0.240692
0.240674
0.243407
0.243389
0.571727
0.60491
0.577755
0.611052
0.246556
0.25947
0.249293
0.262258
0.663519
0.690161
0.669836
0.696706
0.281591
0.29721
0.284494
0.300157
0.676448
0.650249
0.683546
0.657106
0.291049
0.275484
0.294253
0.278646
0.591967
0.558959
0.598646
0.565522
0.253577
0.240734
0.256617
0.243721
0.543886
0.543853
0.550392
0.550358
0.234863
0.234846
0.237827
0.237809
0.55886
0.591809
0.565422
0.598487
0.240681
0.253492
0.243668
0.256531
0.650046
0.676214
0.656901
0.683309
0.275367
0.290903
0.278527
0.294106
0.661411
0.635702
0.66905
0.643094
0.284231
0.268755
0.287689
0.272166
0.577795
0.545022
0.585008
0.552119
0.247098
0.234359
0.250388
0.237596
0.530063
0.53003
0.537104
0.53707
0.228536
0.228519
0.23175
0.231732
0.544925
0.57764
0.552021
0.584852
0.234308
0.247014
0.237545
0.250303
0.635502
0.66118
0.642892
0.668817
0.268639
0.284088
0.272049
0.287545
0.645302
0.620088
0.653475
0.628014
0.27691
0.261529
0.28062
0.26519
0.562553
0.530011
0.570302
0.537647
0.240119
0.227483
0.243659
0.230972
0.515165
0.515132
0.522744
0.522711
0.221707
0.22169
0.225173
0.225155
0.529915
0.5624
0.53755
0.570148
0.227432
0.240036
0.230921
0.243576
0.619891
0.645074
0.627815
0.653246
0.261416
0.27677
0.265076
0.280479
0.628129
0.603407
0.636834
0.611867
0.269083
0.253799
0.273047
0.257713
0.546233
0.513914
0.554523
0.522095
0.232634
0.220099
0.236428
0.223843
0.499177
0.499144
0.507304
0.507271
0.214371
0.214355
0.218092
0.218075
0.513819
0.546082
0.521999
0.554371
0.22005
0.232553
0.223794
0.236346
0.603212
0.627905
0.611671
0.636608
0.253687
0.268945
0.257601
0.272908
0.609901
0.585655
0.619132
0.59465
0.260746
0.245564
0.264966
0.24973
0.528822
0.49671
0.537659
0.505447
0.224637
0.212199
0.228688
0.216203
0.482074
0.482042
0.490762
0.49073
0.206517
0.206501
0.210499
0.210482
0.496616
0.528673
0.505353
0.537509
0.212151
0.224557
0.216154
0.228608
0.585464
0.609681
0.594458
0.61891
0.245455
0.260612
0.24962
0.26483
0.59064
0.566841
0.600384
0.576366
0.251901
0.236829
0.256375
0.241245
0.510307
0.478365
0.519698
0.487679
0.21612
0.203768
0.220433
0.208041
0.463812
0.46378
0.473088
0.473056
0.198127
0.198111
0.20238
0.202364
0.478273
0.51016
0.487586
0.51955
0.203721
0.216043
0.207993
0.220355
0.566653
0.590424
0.576176
0.600166
0.236723
0.25177
0.241137
0.256242
0.570427
0.547004
0.58063
0.557032
0.242563
0.227618
0.247279
0.232268
0.490662
0.458803
0.500623
0.468739
0.207072
0.194774
0.211654
0.199334
0.444289
0.444258
0.454214
0.454183
0.189159
0.189144
0.193709
0.193693
0.458713
0.490519
0.468648
0.500478
0.194727
0.206997
0.199288
0.211577
0.546821
0.570216
0.556847
0.580416
0.227514
0.242436
0.232163
0.24715
0.549595
0.526254
0.560033
0.536722
0.23285
0.218002
0.237726
0.222841
0.46979
0.437826
0.480389
0.448509
0.197454
0.185135
0.20233
0.190034
0.423279
0.423249
0.433987
0.433957
0.179523
0.179508
0.184423
0.184408
0.437739
0.46965
0.44842
0.480248
0.185091
0.197381
0.189988
0.202256
0.526075
0.549389
0.53654
0.559824
0.217902
0.232727
0.222739
0.237601
0.529622
0.504489
0.539276
0.515539
0.223359
0.208058
0.227982
0.21307
0.447118
0.414901
0.458758
0.426657
0.187053
0.174649
0.192373
0.180009
0.400341
0.400313
0.412082
0.412053
0.169055
0.16904
0.174394
0.17438
0.414817
0.446983
0.426571
0.45862
0.174607
0.186983
0.179965
0.192302
0.504316
0.529422
0.515362
0.539074
0.207963
0.223241
0.212972
0.227861
0.518425
0.476892
0.521859
0.492462
0.215666
0.195514
0.219295
0.202588
0.420101
0.389038
0.43444
0.402385
0.1749
0.162999
0.181295
0.16897
0.375014
0.374986
0.387978
0.38795
0.157662
0.157649
0.163455
0.163441
0.388957
0.419973
0.402302
0.434309
0.162959
0.174834
0.168929
0.181228
0.476727
0.518232
0.492292
0.521663
0.195424
0.215554
0.202494
0.21918
0.36234
0.325739
0.280659
0.252751
0.296457
0.263781
0.219219
0.195973
0.252009
0.207285
0.184821
0.1451
0.194901
0.15438
0.133961
0.0988843
0.186594
0.186532
0.127385
0.127328
0.13608
0.136032
0.0837404
0.0837002
0.207098
0.251706
0.144924
0.184523
0.154234
0.194659
0.098755
0.133734
0.32535
0.361899
0.252355
0.280198
0.263463
0.296091
0.19566
0.218849
0.496373
0.455574
0.432992
0.393405
0.416624
0.379386
0.360321
0.324407
0.377908
0.329753
0.31677
0.269668
0.305997
0.261863
0.252286
0.20928
0.306968
0.306903
0.24757
0.247505
0.241413
0.24136
0.18954
0.189488
0.329562
0.377606
0.269478
0.316467
0.261703
0.305741
0.209126
0.252035
0.455195
0.49595
0.39302
0.432561
0.379059
0.416254
0.324083
0.359952
0.608758
0.567038
0.554756
0.513345
0.515835
0.477485
0.468201
0.43026
0.488968
0.440127
0.435307
0.386666
0.403249
0.358231
0.356274
0.311562
0.416799
0.416735
0.363524
0.363459
0.337157
0.337101
0.29072
0.290665
0.439938
0.488674
0.386476
0.435008
0.358066
0.402989
0.311399
0.356015
0.566671
0.608351
0.512971
0.554341
0.477154
0.515464
0.42993
0.467829
0.704577
0.662732
0.65857
0.616734
0.60037
0.561684
0.559769
0.521197
0.585152
0.536358
0.538859
0.489991
0.487494
0.442288
0.446931
0.401771
0.512932
0.51287
0.466582
0.466518
0.421008
0.420952
0.380562
0.380506
0.536176
0.584869
0.489806
0.53857
0.442125
0.487235
0.401606
0.446671
0.662382
0.70419
0.616375
0.658172
0.561358
0.600005
0.520868
0.5594
0.78593
0.744259
0.746919
0.705141
0.67224
0.633524
0.637761
0.599038
0.667467
0.619001
0.627946
0.579298
0.559702
0.51459
0.525017
0.479838
0.595659
0.595599
0.555901
0.555839
0.493285
0.49323
0.45853
0.458475
0.618827
0.667197
0.57912
0.62767
0.51443
0.55945
0.479676
0.524761
0.743926
0.785563
0.704799
0.746541
0.633206
0.671884
0.598716
0.6374
0.854656
0.813272
0.821731
0.780199
0.733037
0.694426
0.7039
0.665228
0.737345
0.689313
0.703849
0.655596
0.621097
0.576205
0.591654
0.546645
0.666134
0.666077
0.63233
0.632272
0.554962
0.554909
0.525364
0.52531
0.689147
0.737088
0.655426
0.703586
0.576049
0.620852
0.546486
0.591405
0.812957
0.854309
0.779875
0.821373
0.694118
0.732693
0.664915
0.70355
0.912451
0.871387
0.884792
0.843571
0.784228
0.74578
0.759722
0.721191
0.796312
0.748743
0.768088
0.72029
0.67298
0.628359
0.648135
0.603378
0.725756
0.725701
0.697206
0.69715
0.60722
0.607169
0.582185
0.582132
0.748585
0.796068
0.720128
0.767837
0.628208
0.672743
0.603224
0.647895
0.871088
0.912121
0.843263
0.884453
0.745483
0.783895
0.720888
0.759383
0.960841
0.920095
0.93771
0.89681
0.827141
0.788878
0.80662
0.768267
0.845822
0.798706
0.822156
0.774819
0.7166
0.672266
0.69574
0.651265
0.775917
0.775865
0.751931
0.751878
0.651247
0.651197
0.630185
0.630134
0.798555
0.845588
0.774664
0.821917
0.67212
0.716371
0.651116
0.695507
0.919809
0.960527
0.896517
0.937387
0.78859
0.826819
0.767974
0.806293
1.00111
0.960662
0.981886
0.941298
0.862898
0.824823
0.845823
0.807657
0.887131
0.840447
0.867418
0.820525
0.753046
0.708997
0.735645
0.691457
0.817852
0.817802
0.797834
0.797783
0.688104
0.688055
0.670502
0.670452
0.840302
0.886907
0.820377
0.867189
0.708855
0.752823
0.691313
0.735419
0.960389
1.0008
0.941018
0.981578
0.824543
0.862585
0.807373
0.845506
1.03438
0.994222
1.01853
0.978234
0.8925
0.854606
0.878391
0.840409
0.921371
0.875089
0.905064
0.858588
0.783301
0.739526
0.768883
0.724976
0.852679
0.85263
0.836086
0.836037
0.718756
0.718709
0.704145
0.704096
0.874949
0.921155
0.858445
0.904844
0.739388
0.783083
0.724835
0.768663
0.993959
1.0341
0.977965
1.01823
0.854334
0.892196
0.840133
0.878082
1.06161
1.02171
1.04867
1.00865
0.916771
0.879051
0.90523
0.867426
0.949484
0.903577
0.93613
0.890043
0.808185
0.764672
0.796356
0.752717
0.88134
0.881293
0.867721
0.867673
0.744022
0.743976
0.732009
0.731962
0.903441
0.949275
0.889905
0.935917
0.764537
0.807972
0.75258
0.796141
1.02146
1.06134
1.00839
1.04839
0.878785
0.916473
0.867157
0.904928
1.08361
1.04395
1.0732
1.03342
0.936425
0.898869
0.927114
0.889479
0.972292
0.926734
0.961499
0.915773
0.828416
0.785151
0.818834
0.77545
0.90466
0.904614
0.893619
0.893573
0.764617
0.764571
0.754858
0.754812
0.926601
0.972088
0.915639
0.961292
0.785018
0.828207
0.775315
0.818624
1.0437
1.08334
1.03317
1.07292
0.898608
0.936134
0.889215
0.926819
1.10103
1.0616
1.09283
1.05328
0.952047
0.914648
0.944682
0.907208
0.990471
0.945239
0.981913
0.936524
0.844584
0.801556
0.836964
0.793823
0.923319
0.923274
0.914529
0.914484
0.781133
0.781088
0.773345
0.7733
0.94511
0.990272
0.936394
0.981712
0.801425
0.844379
0.793691
0.836758
1.06135
1.10077
1.05304
1.09256
0.914392
0.95176
0.906949
0.944392
1.11446
1.07524
1.10819
1.06886
0.964147
0.926901
0.958485
0.921166
1.00461
0.959682
0.998005
0.952932
0.857202
0.814401
0.851299
0.808389
0.937908
0.937864
0.931086
0.931042
0.794085
0.794041
0.788021
0.787976
0.959556
1.00441
0.952804
0.997809
0.814272
0.857
0.808259
0.851096
1.07501
1.11421
1.06863
1.10793
0.926648
0.963865
0.920911
0.9582
1.12437
1.08535
1.11981
1.08069
0.973132
0.936037
0.968983
0.931814
1.01519
0.97055
1.01031
0.965533
0.866691
0.824109
0.862306
0.819618
0.948914
0.948871
0.943829
0.943786
0.803898
0.803854
0.799355
0.799312
0.970425
1.01499
0.965408
1.01012
0.823982
0.866492
0.81949
0.862106
1.08512
1.12411
1.08046
1.11955
0.935788
0.972854
0.931563
0.968702
1.13114
1.09233
1.1281
1.08919
0.979355
0.942413
0.976547
0.93953
1.02261
0.978251
1.01926
0.97477
0.873408
0.83104
0.870369
0.827897
0.95675
0.956707
0.953203
0.95316
0.810931
0.810888
0.807737
0.807694
0.978129
1.02242
0.974647
1.01907
0.830914
0.873212
0.82777
0.870171
1.0921
1.13089
1.08896
1.12785
0.942168
0.97908
0.939282
0.976269
1.13511
1.09651
1.13344
1.09473
0.983101
0.946319
0.9815
0.944639
1.02722
0.983128
1.02524
0.981022
0.877648
0.83549
0.875814
0.833554
0.961757
0.961715
0.959586
0.959544
0.815483
0.815441
0.813497
0.813454
0.983008
1.02703
0.9809
1.02505
0.835366
0.877453
0.833429
0.875619
1.09629
1.13487
1.09451
1.13319
0.946076
0.982829
0.944394
0.981226
1.13655
1.09816
1.13611
1.09762
0.984599
0.947989
0.984097
0.947401
1.02928
0.985462
1.02855
0.984595
0.879651
0.837704
0.878909
0.836858
0.96422
0.964178
0.963289
0.963248
0.8178
0.817758
0.816903
0.816861
0.985343
1.0291
0.984475
1.02836
0.837581
0.879459
0.836735
0.878715
1.09794
1.13631
1.0974
1.13587
0.947749
0.98433
0.947159
0.983826
1.13568
1.09753
1.13636
1.09809
0.98406
0.947637
0.984546
0.948029
1.02906
0.985496
1.02943
0.985748
0.87963
0.837892
0.879872
0.838033
0.96438
0.964339
0.964571
0.96453
0.81809
0.818048
0.818181
0.818139
0.985378
1.02888
0.98563
1.02925
0.83777
0.87944
0.837911
0.87968
1.09731
1.13544
1.09787
1.13612
0.947399
0.983794
0.94779
0.984278
1.13268
1.09477
1.13441
1.09638
0.981627
0.945412
0.98305
0.946732
1.02671
0.983416
1.02814
0.984712
0.877744
0.836226
0.87891
0.837285
0.96243
0.96239
0.963662
0.963622
0.81653
0.816489
0.817536
0.817495
0.9833
1.02653
0.984595
1.02796
0.836105
0.877556
0.837163
0.87872
1.09456
1.13245
1.09617
1.13418
0.945177
0.981364
0.946494
0.982784
1.1277
1.09005
1.1304
1.09263
0.977434
0.941449
0.97972
0.943619
1.0224
0.979369
1.02479
0.981627
0.87412
0.832822
0.876135
0.834728
0.958512
0.958473
0.960706
0.960666
0.813234
0.813193
0.815086
0.815045
0.979255
1.02223
0.981512
1.02461
0.832702
0.873934
0.834608
0.875947
1.08984
1.12747
1.09241
1.13017
0.941216
0.977173
0.943385
0.979458
1.12084
1.08349
1.12447
1.08698
0.971575
0.935848
0.974685
0.938828
1.01625
0.973486
1.01955
0.976649
0.86887
0.827798
0.871687
0.830503
0.95276
0.95272
0.955858
0.955818
0.80832
0.80828
0.81097
0.810929
0.973372
1.01608
0.976535
1.01937
0.827679
0.868685
0.830384
0.871501
1.08328
1.12061
1.08677
1.12424
0.935618
0.971317
0.938596
0.974425
1.11219
1.07517
1.11671
1.07952
0.964115
0.928681
0.96802
0.932437
1.00835
0.965858
1.01251
0.969883
0.862069
0.821234
0.865653
0.8247
0.945266
0.945228
0.949225
0.949186
0.801872
0.801832
0.805281
0.80524
0.965746
1.00818
0.96977
1.01234
0.821117
0.861886
0.824583
0.865469
1.07496
1.11196
1.07932
1.11648
0.928453
0.96386
0.932207
0.967763
1.10181
1.06515
1.10719
1.07034
0.955115
0.92001
0.959783
0.924511
0.998768
0.956559
1.00376
0.961412
0.853782
0.813194
0.858102
0.817391
0.936106
0.936068
0.94089
0.940851
0.793953
0.793913
0.79809
0.79805
0.956448
0.998599
0.9613
1.00359
0.813078
0.8536
0.817275
0.85792
1.06495
1.10159
1.07014
1.10697
0.919785
0.954863
0.924284
0.959529
1.08977
1.0535
1.09597
1.05951
0.944622
0.909885
0.950031
0.915107
0.987565
0.945646
0.993363
0.9513
0.844057
0.803726
0.849091
0.808632
0.925337
0.925299
0.930919
0.930881
0.784612
0.784572
0.789455
0.789415
0.945537
0.987398
0.95119
0.993194
0.803612
0.843878
0.808517
0.84891
1.0533
1.08955
1.0593
1.09575
0.909663
0.944373
0.914883
0.94978
1.0761
1.04026
1.08311
1.04706
0.932675
0.898344
0.938808
0.904271
0.974784
0.933161
0.981366
0.939597
0.832931
0.792869
0.838662
0.798466
0.912998
0.912961
0.919361
0.919323
0.773885
0.773846
0.779417
0.779378
0.933053
0.974618
0.939488
0.9812
0.792755
0.832754
0.798352
0.838484
1.04006
1.07589
1.04686
1.0829
0.898125
0.93243
0.904049
0.93856
1.06085
1.02546
1.06865
1.03304
0.919304
0.885416
0.926145
0.892033
0.960453
0.919133
0.967807
0.926338
0.820432
0.780646
0.826847
0.786923
0.899119
0.899082
0.906249
0.906212
0.761797
0.761759
0.768007
0.767968
0.919026
0.96029
0.92623
0.967643
0.780534
0.820258
0.786811
0.826671
1.02527
1.06063
1.03284
1.06843
0.885199
0.919061
0.891815
0.925901
1.04403
1.00913
1.05261
1.01747
0.904532
0.87112
0.912071
0.878419
0.944594
0.90358
0.95271
0.911545
0.806578
0.767075
0.813669
0.774025
0.883717
0.883681
0.891607
0.89157
0.748364
0.748326
0.755245
0.755207
0.903474
0.944433
0.911439
0.952548
0.766964
0.806405
0.773913
0.813495
1.00894
1.04382
1.01728
1.0524
0.870906
0.904292
0.878203
0.911829
1.02567
0.991289
1.03502
1.00038
0.888381
0.855474
0.896608
0.863447
0.927218
0.886511
0.936092
0.895234
0.79138
0.752164
0.799142
0.759783
0.866799
0.866763
0.875447
0.87541
0.733594
0.733557
0.741144
0.741106
0.886406
0.927059
0.895128
0.935931
0.752054
0.791209
0.759673
0.79897
0.9911
1.02546
1.00019
1.03481
0.855263
0.888145
0.863234
0.896369
1.00579
0.971937
1.0159
0.981782
0.870869
0.838489
0.879775
0.84713
0.908331
0.867926
0.91796
0.877407
0.774843
0.735915
0.783274
0.744204
0.848365
0.848329
0.857771
0.857735
0.717487
0.71745
0.725705
0.725668
0.867823
0.908173
0.877303
0.917802
0.735807
0.774675
0.744095
0.783104
0.97175
1.00559
0.981593
1.01569
0.838281
0.870637
0.84692
0.87954
0.984417
0.951091
0.995271
0.96168
0.852013
0.820172
0.861589
0.829479
0.887932
0.84782
0.898317
0.858063
0.756969
0.718325
0.766069
0.727286
0.828404
0.828369
0.838575
0.83854
0.700037
0.7
0.708928
0.708891
0.847717
0.887776
0.85796
0.89816
0.718218
0.756802
0.727178
0.765901
0.950906
0.984215
0.961493
0.995067
0.819967
0.851784
0.829272
0.861357
0.961547
0.928755
0.973147
0.940092
0.83183
0.800526
0.842068
0.810497
0.866013
0.826178
0.87716
0.837191
0.73775
0.699382
0.747523
0.709021
0.806901
0.806865
0.817846
0.81781
0.681229
0.681193
0.690801
0.690765
0.826076
0.865858
0.837089
0.877004
0.699276
0.737586
0.708914
0.747358
0.928571
0.961347
0.939907
0.972945
0.800323
0.831603
0.810293
0.841839
0.937198
0.904921
0.949536
0.917007
0.810328
0.779551
0.821225
0.790187
0.842559
0.802977
0.854476
0.814773
0.717176
0.679067
0.727629
0.689395
0.783826
0.783791
0.795561
0.795526
0.661042
0.661006
0.671308
0.671271
0.802876
0.842406
0.814672
0.854322
0.678962
0.717014
0.68929
0.727466
0.904739
0.937001
0.916823
0.949336
0.779351
0.810104
0.789985
0.820999
0.911394
0.879594
0.924456
0.892425
0.787524
0.757247
0.799069
0.768548
0.817553
0.778181
0.830248
0.790779
0.69523
0.657349
0.706371
0.668383
0.759136
0.759101
0.771685
0.77165
0.639438
0.639402
0.650418
0.650382
0.778081
0.8174
0.790679
0.830095
0.657246
0.695069
0.668279
0.70621
0.879414
0.911198
0.892243
0.924258
0.757049
0.787303
0.768348
0.798846
0.884197
0.852804
0.897943
0.866361
0.763462
0.733631
0.775628
0.745584
0.790974
0.751735
0.804458
0.765168
0.67189
0.63418
0.683731
0.645948
0.732754
0.732719
0.746162
0.746127
0.616352
0.616316
0.628083
0.628048
0.751635
0.790823
0.765068
0.804306
0.634078
0.671732
0.645845
0.683572
0.852625
0.884002
0.86618
0.897747
0.733435
0.763244
0.745387
0.775408
0.855794
0.82464
0.870105
0.838866
0.738287
0.708765
0.750979
0.721331
0.762793
0.72352
0.777084
0.737859
0.647125
0.609457
0.659685
0.622021
0.704522
0.704488
0.718883
0.718849
0.591647
0.591612
0.604212
0.604177
0.723421
0.762643
0.73776
0.776933
0.609356
0.646969
0.621919
0.659528
0.824462
0.855601
0.838687
0.86991
0.708573
0.738072
0.721136
0.750763
0.826811
0.795324
0.841281
0.81009
0.712497
0.682812
0.72539
0.695896
0.732885
0.693246
0.74807
0.70867
0.620811
0.582922
0.634176
0.59644
0.674092
0.674058
0.689614
0.689579
0.565026
0.564992
0.578602
0.578567
0.693148
0.732737
0.708572
0.747921
0.582823
0.620658
0.596341
0.634021
0.795147
0.82662
0.809913
0.841088
0.682623
0.712287
0.695705
0.725177
0.799658
0.764922
0.81266
0.780285
0.688109
0.655726
0.699832
0.669447
0.700543
0.660156
0.717117
0.677127
0.592279
0.55391
0.606914
0.568789
0.640783
0.64075
0.657851
0.657817
0.535912
0.535879
0.550824
0.550791
0.66006
0.700397
0.67703
0.71697
0.553814
0.592129
0.568692
0.606763
0.764749
0.799471
0.78011
0.812469
0.655542
0.687903
0.669261
0.699624
0.786073
0.728067
0.789582
0.748522
0.675483
0.622294
0.678892
0.640956
0.662662
0.622832
0.682655
0.642106
0.558664
0.521199
0.576432
0.538082
0.603773
0.60374
0.622768
0.622735
0.503644
0.503612
0.520187
0.520155
0.622738
0.66252
0.642012
0.682511
0.521106
0.55852
0.537988
0.576285
0.727898
0.785892
0.748351
0.789397
0.622117
0.675284
0.640775
0.678689
0.471225
0.430996
0.385982
0.353571
0.419676
0.380831
0.335674
0.305008
0.353255
0.304665
0.279839
0.235078
0.30454
0.257411
0.233531
0.19081
0.281618
0.281533
0.214413
0.214328
0.23528
0.235205
0.171362
0.171291
0.304415
0.352859
0.234825
0.279428
0.25719
0.304187
0.190593
0.233172
0.430498
0.470669
0.353042
0.385379
0.380383
0.419173
0.304539
0.335137
0.620828
0.577346
0.5491
0.506452
0.56291
0.520357
0.494662
0.453132
0.497011
0.445861
0.426583
0.376134
0.440827
0.390681
0.374343
0.325083
0.421158
0.421077
0.351943
0.35186
0.366652
0.366578
0.301663
0.301588
0.445627
0.496648
0.375891
0.426203
0.390465
0.440491
0.324864
0.373998
0.576898
0.620334
0.50598
0.548577
0.519939
0.562446
0.452699
0.49418
0.749959
0.706085
0.687726
0.643919
0.684839
0.641631
0.626172
0.583149
0.62623
0.574948
0.56368
0.512335
0.562158
0.511598
0.50349
0.452999
0.549983
0.549909
0.487421
0.487344
0.487159
0.487088
0.42868
0.428608
0.574733
0.625898
0.51211
0.563333
0.511393
0.561841
0.452788
0.503163
0.705679
0.749515
0.643492
0.687257
0.64124
0.684409
0.582745
0.625725
0.860713
0.817134
0.80751
0.763739
0.789044
0.745931
0.739006
0.695796
0.73852
0.68777
0.684469
0.633411
0.667353
0.617091
0.616727
0.566268
0.662953
0.662885
0.608492
0.60842
0.592678
0.592612
0.541812
0.541743
0.687572
0.738217
0.633204
0.684152
0.616899
0.667057
0.56607
0.61642
0.816767
0.860313
0.763353
0.807087
0.745569
0.788646
0.695419
0.738591
0.954796
0.911749
0.909686
0.866361
0.877498
0.834753
0.835087
0.792144
0.834576
0.784581
0.788474
0.738091
0.757321
0.707614
0.714137
0.664138
0.760065
0.760002
0.713415
0.71335
0.683399
0.683337
0.639812
0.639748
0.7844
0.834301
0.737902
0.788185
0.707434
0.757045
0.663952
0.713851
0.911417
0.954435
0.866012
0.909305
0.834418
0.87713
0.791794
0.834704
1.0342