/*--------------------------------*- C++ -*----------------------------------*\
  =========                 |
  \\      /  F ield         | OpenFOAM: The Open Source CFD Toolbox
   \\    /   O peration     | Website:  https://openfoam.org
    \\  /    A nd           | Version:  9
     \\/     M anipulation  |
\*---------------------------------------------------------------------------*/
FoamFile
{
    format      ascii;
    class       volScalarField;
    location    "4.65";
    object      nut;
}
// * * * * * * * * * * * * * * * * * * * * * * * * * * * * * * * * * * * * * //

dimensions      [0 2 -1 0 0 0 0];

internalField   nonuniform List<scalar> 
36360
(
0.00603407
0.00570685
0.00455226
0.00432675
0.00077547
0.000732136
0.000528758
0.000556098
0.00502199
0.00476133
0.00355304
0.00318489
0.00060036
0.000502537
0.000404207
0.000300933
0.00476542
0.004765
0.00314539
0.00314536
0.00045389
0.000453804
0.000263796
0.000263751
0.00475923
0.00501743
0.00318335
0.00354875
0.000502265
0.000599924
0.00030072
0.000403767
0.00570004
0.00602491
0.00432003
0.0045429
0.000731592
0.00077482
0.000555522
0.000528063
0.00806699
0.00784297
0.00712661
0.00684823
0.00100875
0.00095086
0.000910907
0.000854314
0.00730648
0.00710329
0.00624431
0.0060237
0.000841867
0.000768941
0.000735531
0.000652602
0.00707481
0.007074
0.00601217
0.0060115
0.00073442
0.000734333
0.000612844
0.000612756
0.00710059
0.00730153
0.00602124
0.00623953
0.000768681
0.000841458
0.000652336
0.000735111
0.00783587
0.00805765
0.00684128
0.00711747
0.000950346
0.00100815
0.00085379
0.000910296
0.00965917
0.0095028
0.00890528
0.00872
0.00115804
0.00110172
0.001089
0.00103172
0.00904976
0.00885905
0.00823151
0.00803602
0.00100589
0.000944288
0.000930161
0.000863859
0.0088075
0.00880656
0.00799399
0.0079931
0.000915233
0.000915148
0.000832572
0.000832486
0.0088561
0.00904463
0.00803317
0.00822645
0.000944037
0.00100549
0.000863604
0.00092976
0.0094955
0.00964954
0.00871278
0.00889578
0.00110122
0.00115746
0.00103121
0.00108842
0.0109352
0.0108196
0.0103308
0.0101967
0.00127152
0.00121732
0.00121828
0.001163
0.010413
0.0102286
0.00976967
0.00958202
0.00112958
0.00107429
0.00107166
0.00101359
0.0101653
0.0101643
0.00952333
0.00952236
0.0010482
0.00104812
0.000986193
0.000986109
0.0102256
0.0104078
0.00957902
0.00976451
0.00107405
0.0011292
0.00101334
0.00107127
0.0108122
0.0109255
0.0101894
0.0103211
0.00121684
0.00127096
0.00116251
0.00121771
0.0119609
0.0118738
0.011474
0.0113734
0.00136077
0.0013086
0.00131866
0.00126549
0.0114964
0.0113175
0.0109828
0.0108011
0.00122633
0.00117516
0.00118073
0.00112769
0.0112489
0.0112479
0.0107343
0.0107333
0.00115103
0.00115095
0.00110267
0.00110259
0.0113145
0.0114913
0.010798
0.0109777
0.00117493
0.00122597
0.00112746
0.00118036
0.0118665
0.0119512
0.0113661
0.0114643
0.00130814
0.00136023
0.00126502
0.00131811
0.0127906
0.0127259
0.0123957
0.0123204
0.00143208
0.00138172
0.00139832
0.00134708
0.0123676
0.0121936
0.0119532
0.0117766
0.00130339
0.00125512
0.00126693
0.00121732
0.0121229
0.012122
0.0117065
0.0117055
0.00123239
0.00123232
0.00119395
0.00119387
0.0121907
0.0123626
0.0117736
0.0119482
0.0012549
0.00130304
0.0012171
0.00126658
0.0127188
0.0127811
0.0123132
0.0123861
0.00138128
0.00143156
0.00134663
0.00139779
0.0134652
0.0134178
0.0131435
0.0130878
0.00148959
0.00144076
0.0014623
0.00141274
0.0130735
0.0129038
0.0127368
0.0125649
0.0013654
0.0013193
0.00133599
0.00128888
0.0128329
0.012832
0.0124938
0.0124929
0.00129763
0.00129756
0.00126672
0.00126665
0.0129009
0.0130686
0.012562
0.0127319
0.0013191
0.00136507
0.00128867
0.00133566
0.0134109
0.0134558
0.0130808
0.013134
0.00144034
0.00148908
0.00141231
0.00146179
0.0140159
0.0139822
0.0137527
0.0137124
0.00153622
0.00148869
0.00151406
0.00146591
0.0136486
0.0134826
0.0133736
0.0132056
0.00141563
0.00137121
0.00139178
0.00134657
0.0134122
0.0134113
0.0131349
0.013134
0.00135035
0.00135028
0.00132532
0.00132525
0.0134798
0.0136438
0.0132027
0.0133688
0.00137101
0.00141532
0.00134637
0.00139145
0.0139754
0.0140066
0.0137055
0.0137433
0.00148828
0.00153574
0.00146549
0.00151357
0.0144661
0.0144434
0.0142506
0.0142225
0.00157412
0.00152766
0.0015561
0.00150912
0.0141183
0.0139555
0.0138932
0.0137287
0.00145643
0.00141332
0.00143704
0.00139331
0.0138855
0.0138846
0.0136585
0.0136575
0.00139311
0.00139305
0.00137279
0.00137273
0.0139527
0.0141137
0.0137259
0.0138885
0.00141313
0.00145613
0.00139312
0.00143673
0.0144367
0.014457
0.0142157
0.0142414
0.00152726
0.00157365
0.00150872
0.00155562
0.0148342
0.0148202
0.0146577
0.0146395
0.00160492
0.00155933
0.00159028
0.00154427
0.0145022
0.0143422
0.0143179
0.0141564
0.00148958
0.00144751
0.00147382
0.00143126
0.0142727
0.0142718
0.0140866
0.0140857
0.00142784
0.00142777
0.00141133
0.00141127
0.0143395
0.0144976
0.0141537
0.0143133
0.00144733
0.00148928
0.00143107
0.00147352
0.0148136
0.0148251
0.0146328
0.0146486
0.00155895
0.00160446
0.00154388
0.00158981
0.015134
0.0151271
0.01499
0.0149797
0.00162983
0.00158497
0.001618
0.00157279
0.014815
0.0146574
0.0146646
0.0145057
0.00151642
0.00147519
0.00150367
0.00146204
0.0145884
0.0145875
0.0144364
0.0144355
0.00145595
0.00145588
0.00144259
0.00144253
0.0146547
0.0148105
0.014503
0.01466
0.00147501
0.00151613
0.00146186
0.00150337
0.0151206
0.015125
0.0149731
0.014981
0.0015846
0.00162938
0.0015724
0.00161754
0.0153766
0.0153755
0.01526
0.015256
0.00164984
0.00160558
0.00164035
0.0015958
0.0150683
0.0149127
0.0149463
0.0147897
0.001538
0.00149746
0.00152776
0.0014869
0.0148444
0.0148435
0.014721
0.0147201
0.00147856
0.0014785
0.00146784
0.00146778
0.0149101
0.0150638
0.0147871
0.0149419
0.00149728
0.00153772
0.00148672
0.00152748
0.015369
0.0153676
0.0152496
0.015251
0.00160521
0.0016494
0.00159543
0.00163991
0.0155705
0.0155742
0.0154773
0.0154786
0.00166569
0.00162192
0.0016582
0.00161419
0.015271
0.0151172
0.0151733
0.0150186
0.00155514
0.00151517
0.00154704
0.00150679
0.0150496
0.0150487
0.0149505
0.0149496
0.00149655
0.00149649
0.00148804
0.00148798
0.0151146
0.0152666
0.015016
0.0151689
0.001515
0.00155487
0.00150662
0.00154676
0.0155678
0.0155617
0.0154722
0.0154684
0.00162155
0.00166525
0.00161382
0.00165776
0.0157229
0.0157305
0.0156497
0.0156553
0.00167799
0.00163461
0.00167221
0.00162863
0.0154307
0.0152783
0.0153537
0.0152005
0.00156851
0.001529
0.00156222
0.00152249
0.0152114
0.0152105
0.0151331
0.0151323
0.0015106
0.00151055
0.00150399
0.00150393
0.0152757
0.0154263
0.0151979
0.0153493
0.00152883
0.00156823
0.00152231
0.00156194
0.0157241
0.015714
0.0156489
0.0156408
0.00163425
0.00167756
0.00162827
0.00167177
0.0158391
0.0158499
0.0157834
0.0157925
0.00168722
0.00164416
0.00168292
0.0016397
0.0155529
0.0154018
0.015494
0.0153422
0.0015786
0.00153948
0.00157389
0.00153458
0.0153356
0.0153348
0.0152755
0.0152747
0.00152127
0.00152121
0.00151628
0.00151623
0.0153993
0.0155485
0.0153396
0.0154896
0.00153931
0.00157833
0.00153441
0.00157362
0.0158436
0.0158303
0.0157861
0.0157745
0.0016438
0.00168678
0.00163934
0.00168248
0.0159236
0.0159371
0.0158832
0.0158952
0.00169375
0.00165094
0.00169075
0.00164782
0.0156423
0.0154924
0.0155992
0.0154487
0.00158585
0.00154704
0.00158252
0.00154356
0.015427
0.0154262
0.0153828
0.015382
0.00152898
0.00152892
0.00152542
0.00152536
0.0154899
0.015638
0.0154461
0.0155949
0.00154688
0.00158558
0.00154339
0.00158225
0.0159308
0.0159148
0.0158889
0.0158744
0.00165059
0.00169332
0.00164747
0.00169032
0.0159799
0.0159957
0.0159532
0.0159677
0.0016979
0.00165529
0.00169606
0.00165336
0.0157027
0.0155538
0.0156737
0.0155242
0.00159058
0.00155203
0.00158847
0.0015498
0.0154892
0.0154883
0.0154592
0.0154584
0.00153408
0.00153402
0.00153179
0.00153173
0.0155512
0.0156984
0.0155217
0.0156694
0.00155187
0.00159032
0.00154963
0.0015882
0.0159894
0.0159711
0.0159614
0.0159444
0.00165494
0.00169747
0.001653
0.00169563
0.0160109
0.0160286
0.0159965
0.0160131
0.0016999
0.00165744
0.00169911
0.00165658
0.015737
0.0155887
0.0157207
0.015572
0.00159306
0.00155472
0.00159205
0.00155361
0.0155244
0.0155236
0.0155075
0.0155067
0.00153687
0.00153681
0.0015357
0.00153565
0.0155862
0.0157327
0.0155695
0.0157164
0.00155455
0.00159279
0.00155344
0.00159178
0.0160223
0.0160021
0.0160068
0.0159876
0.00165709
0.00169947
0.00165623
0.00169868
0.0160184
0.0160377
0.0160154
0.0160339
0.00169994
0.00165758
0.0017001
0.0016577
0.0157471
0.0155994
0.0157428
0.0155947
0.00159346
0.00155529
0.00159347
0.00155522
0.0155355
0.0155346
0.0155305
0.0155297
0.00153752
0.00153746
0.00153741
0.00153736
0.0155969
0.0157428
0.0155922
0.0157385
0.00155512
0.0015932
0.00155506
0.00159321
0.0160315
0.0160096
0.0160276
0.0160066
0.00165723
0.00169952
0.00165735
0.00169967
0.0160045
0.0160255
0.0160121
0.0160322
0.0016982
0.00165592
0.00169927
0.00165696
0.0157353
0.0155883
0.0157418
0.0155944
0.00159204
0.00155401
0.00159298
0.00155487
0.0155247
0.0155238
0.0155306
0.0155297
0.00153631
0.00153625
0.00153714
0.00153708
0.0155858
0.015731
0.0155919
0.0157376
0.00155384
0.00159178
0.00155471
0.00159271
0.0160193
0.0159957
0.016026
0.0160033
0.00165557
0.00169778
0.00165661
0.00169885
0.0159705
0.0159929
0.015988
0.0160095
0.00169475
0.00165251
0.00169664
0.00165438
0.0157027
0.0155563
0.0157192
0.0155724
0.00158882
0.00155089
0.0015906
0.00155262
0.0154929
0.0154921
0.0155088
0.015508
0.00153324
0.00153319
0.00153495
0.00153489
0.0155538
0.0156985
0.0155699
0.015715
0.00155073
0.00158856
0.00155246
0.00159034
0.0159867
0.0159617
0.0160033
0.0159792
0.00165217
0.00169433
0.00165403
0.00169622
0.0159173
0.0159413
0.0159443
0.0159673
0.0016897
0.00164747
0.00169238
0.00165014
0.0156508
0.0155046
0.0156768
0.0155304
0.00158394
0.00154609
0.00158654
0.00154865
0.0154415
0.0154407
0.0154671
0.0154663
0.00152848
0.00152842
0.00153103
0.00153097
0.0155022
0.0156465
0.0155279
0.0156726
0.00154592
0.00158368
0.00154849
0.00158628
0.0159351
0.0159086
0.0159611
0.0159355
0.00164712
0.00168928
0.0016498
0.00169196
0.0158456
0.0158711
0.0158817
0.0159063
0.00168309
0.00164084
0.00168655
0.0016443
0.01558
0.0154341
0.0156154
0.0154692
0.00157746
0.00153966
0.00158085
0.00154303
0.0153711
0.0153702
0.0154061
0.0154053
0.00152207
0.00152202
0.00152544
0.00152538
0.0154316
0.0155758
0.0154668
0.0156112
0.0015395
0.0015772
0.00154287
0.00158059
0.0158649
0.0158369
0.0159001
0.015873
0.0016405
0.00168268
0.00164396
0.00168613
0.0157558
0.0157829
0.0158009
0.015827
0.00167497
0.00163267
0.00167918
0.0016369
0.0154908
0.015345
0.0155354
0.0153894
0.00156941
0.00153164
0.00157359
0.0015358
0.0152821
0.0152813
0.0153263
0.0153255
0.00151407
0.00151402
0.00151823
0.00151817
0.0153425
0.0154866
0.0153869
0.0155312
0.00153148
0.00156915
0.00153564
0.00157333
0.0157768
0.0157471
0.0158209
0.0157922
0.00163233
0.00167456
0.00163656
0.00167876
0.0156481
0.015677
0.0157021
0.01573
0.00166535
0.00162297
0.0016703
0.00162796
0.0153836
0.0152377
0.0154372
0.0152912
0.00155983
0.00152206
0.00156477
0.001527
0.0151749
0.0151741
0.0152282
0.0152274
0.00150449
0.00150444
0.00150944
0.00150938
0.0152353
0.0153795
0.0152887
0.015433
0.0015219
0.00155957
0.00152684
0.00156451
0.0156709
0.0156395
0.0157238
0.0156935
0.00162263
0.00166493
0.00162762
0.00166989
0.0155227
0.0155535
0.0155856
0.0156153
0.00165423
0.00161176
0.00165993
0.00161751
0.0152585
0.0151124
0.015321
0.0151748
0.00154871
0.00151093
0.00155442
0.00151665
0.0150495
0.0150487
0.0151119
0.0151111
0.00149335
0.00149329
0.00149908
0.00149902
0.0151099
0.0152544
0.0151724
0.0153168
0.00151077
0.00154846
0.00151649
0.00155416
0.0155474
0.0155142
0.0156092
0.015577
0.00161142
0.00165383
0.00161717
0.00165952
0.0153797
0.0154124
0.0154514
0.015483
0.00164163
0.00159903
0.00164808
0.00160554
0.0151154
0.0149689
0.0151869
0.0150405
0.00153605
0.00149823
0.00154254
0.00150473
0.0149061
0.0149053
0.0149775
0.0149767
0.00148062
0.00148057
0.00148714
0.00148709
0.0149665
0.0151113
0.015038
0.0151828
0.00149807
0.0015358
0.00150458
0.00154228
0.0154063
0.0153712
0.0154769
0.0154429
0.00159869
0.00164122
0.0016052
0.00164767
0.0152187
0.0152535
0.0152994
0.015333
0.00162752
0.00158476
0.00163473
0.00159204
0.0149542
0.0148072
0.0150348
0.0148879
0.00152184
0.00148394
0.0015291
0.00149124
0.0147442
0.0147434
0.0148249
0.0148241
0.00146629
0.00146624
0.00147362
0.00147357
0.0148048
0.0149501
0.0148855
0.0150307
0.00148378
0.00152159
0.00149109
0.00152885
0.0152475
0.0152103
0.015327
0.015291
0.00158443
0.00162712
0.00159171
0.00163432
0.0150396
0.0150764
0.0151295
0.0151651
0.00161189
0.00156894
0.00161986
0.001577
0.0147745
0.0146268
0.0148644
0.0147169
0.00150603
0.00146802
0.0015141
0.00147615
0.0145638
0.014563
0.0146538
0.014653
0.00145032
0.00145027
0.00145848
0.00145842
0.0146244
0.0147704
0.0147145
0.0148603
0.00146787
0.00150578
0.00147599
0.00151385
0.0150705
0.0150313
0.0151591
0.0151211
0.0015686
0.00161149
0.00157667
0.00161946
0.014842
0.0148807
0.0149412
0.0149788
0.0015947
0.0015515
0.00160345
0.00156038
0.0145758
0.0144274
0.0146753
0.0145271
0.00148859
0.00145043
0.00149748
0.0014594
0.0143642
0.0143634
0.0144638
0.014463
0.00143266
0.0014326
0.00144167
0.00144161
0.014425
0.0145717
0.0145247
0.0146712
0.00145028
0.00148834
0.00145925
0.00149723
0.0148747
0.0148337
0.0149728
0.0149328
0.00155117
0.0015943
0.00156005
0.00160305
0.0146252
0.0146657
0.014734
0.0147735
0.00157591
0.00153244
0.00158547
0.00154213
0.0143575
0.0142081
0.0144669
0.0143178
0.00146945
0.00143111
0.0014792
0.00144095
0.0141448
0.014144
0.0142545
0.0142537
0.00141323
0.00141318
0.00142313
0.00142308
0.0142058
0.0143535
0.0143154
0.0144628
0.00143095
0.0014692
0.0014408
0.00147895
0.0146598
0.014617
0.0147676
0.0147258
0.00153211
0.00157552
0.0015418
0.00158507
0.0143887
0.0144307
0.0145075
0.0145487
0.00155549
0.0015117
0.00156587
0.00152224
0.0141188
0.0139683
0.0142385
0.0140884
0.00144855
0.00140996
0.00145919
0.00142073
0.0139049
0.0139041
0.014025
0.0140242
0.00139196
0.00139191
0.0014028
0.00140274
0.013966
0.0141148
0.0140861
0.0142345
0.0014098
0.00144831
0.00142057
0.00145894
0.0144249
0.0143806
0.0145428
0.0144994
0.00151137
0.00155509
0.00152192
0.00156548
0.0141312
0.0141742
0.0142607
0.0143031
0.00153335
0.00148919
0.0015446
0.00150063
0.0138584
0.0137068
0.0139892
0.013838
0.0014258
0.0013869
0.00143738
0.00139864
0.0136433
0.0136425
0.0137744
0.0137736
0.00136875
0.00136869
0.00138057
0.00138052
0.0137044
0.0138544
0.0138356
0.0139852
0.00138674
0.00142555
0.00139848
0.00143713
0.0141684
0.0141231
0.0142973
0.0142526
0.00148887
0.00153295
0.00150031
0.00154421
0.0138511
0.0138948
0.0139922
0.0140354
0.00150941
0.00146484
0.00152157
0.00147721
0.0135749
0.013422
0.0137174
0.013565
0.00140109
0.00136179
0.00141366
0.00137457
0.0133584
0.0133576
0.0135014
0.0135006
0.00134345
0.00134339
0.00135633
0.00135628
0.0134196
0.0135709
0.0135626
0.0137134
0.00136163
0.00140084
0.00137441
0.00141342
0.013889
0.0138432
0.0140297
0.0139842
0.00146452
0.00150902
0.00147689
0.00152118
0.0135466
0.0135903
0.0137002
0.0137438
0.00148359
0.00143856
0.00149671
0.0014519
0.0132662
0.0131117
0.0134216
0.0132678
0.00137428
0.00133447
0.00138792
0.00134838
0.0130481
0.0130473
0.0132041
0.0132033
0.00131588
0.00131583
0.00132993
0.00132987
0.0131094
0.0132622
0.0132654
0.0134176
0.00133431
0.00137403
0.00134822
0.00138767
0.0135847
0.0135387
0.0137381
0.0136923
0.00143823
0.0014832
0.00145158
0.00149632
0.0132149
0.0132585
0.0133824
0.013426
0.00145584
0.00141031
0.00146992
0.00142464
0.0129296
0.012773
0.0130994
0.0129438
0.00134521
0.00130469
0.00136001
0.00131987
0.0127091
0.0127083
0.01288
0.0128792
0.00128577
0.00128571
0.00130113
0.00130108
0.0127707
0.0129257
0.0129415
0.0130955
0.00130453
0.00134497
0.00131972
0.00135976
0.0132529
0.0132072
0.0134204
0.0133747
0.00140999
0.00145546
0.00142432
0.00146953
0.012855
0.0128966
0.0130366
0.0130795
0.0014264
0.0013802
0.00144125
0.00139543
0.0125608
0.0124005
0.0127475
0.0125891
0.00131361
0.00127201
0.00132972
0.00128872
0.0123362
0.0123354
0.0125248
0.012524
0.0012526
0.00125255
0.00126957
0.00126952
0.0123983
0.012557
0.0125868
0.0127436
0.00127186
0.00131336
0.00128857
0.00132948
0.0128911
0.0128475
0.0130739
0.013029
0.00137989
0.00142602
0.00139512
0.00144087
0.0124799
0.012501
0.0126649
0.0127016
0.00139703
0.00134837
0.00141141
0.00136451
0.0121503
0.0119867
0.0123597
0.012197
0.00127855
0.00123547
0.0012966
0.00125428
0.0119236
0.0119229
0.0121326
0.0121319
0.00121554
0.00121549
0.00123458
0.00123453
0.0119845
0.0121466
0.0121948
0.0123559
0.00123532
0.00127831
0.00125413
0.00129636
0.0124956
0.0124726
0.0126962
0.0126575
0.00134806
0.00139666
0.00136419
0.00141104
0.0121855
0.0120333
0.0123103
0.0122819
0.00137276
0.0013071
0.00138426
0.00133052
0.0116791
0.0115328
0.0119209
0.0117607
0.00123633
0.00119356
0.00125872
0.00121522
0.01148
0.0114793
0.011701
0.0117003
0.00117388
0.00117383
0.00119525
0.0011952
0.0115307
0.0116756
0.0117585
0.0119173
0.00119342
0.0012361
0.00121508
0.00125849
0.0120283
0.0121785
0.0122767
0.0123032
0.0013068
0.00137241
0.00133022
0.0013839
0.0119768
0.0114829
0.00951839
0.00911664
0.00932059
0.00886311
0.00719219
0.00682941
0.0107068
0.0104427
0.00825787
0.00792976
0.00809035
0.00781256
0.00596472
0.00559583
0.0104729
0.0104708
0.00794354
0.00794203
0.00783712
0.00783592
0.0055874
0.00558672
0.0104355
0.0106938
0.0079238
0.00824602
0.00780797
0.00808141
0.00559222
0.00595667
0.0114648
0.0119539
0.00909953
0.0094962
0.00885033
0.00930405
0.00681739
0.00717615
0.0165758
0.0161422
0.0143206
0.0138486
0.0129274
0.0125429
0.0111968
0.0107665
0.0155247
0.0153605
0.0131559
0.0129493
0.0119487
0.0117857
0.0100901
0.00988221
0.0154042
0.0154012
0.0129894
0.0129868
0.0118233
0.0118214
0.0099188
0.00991721
0.0153513
0.0155094
0.012941
0.0131416
0.0117797
0.0119383
0.00987684
0.0100804
0.0161215
0.0165503
0.0138292
0.0142964
0.0125284
0.0129091
0.0107529
0.0111794
0.02073
0.0203614
0.0187148
0.018316
0.0160049
0.015695
0.0145265
0.0141824
0.0198477
0.0197271
0.0177564
0.0176181
0.0152113
0.0150902
0.0136504
0.013513
0.0197649
0.0197614
0.0176594
0.0176562
0.0151166
0.0151144
0.0135453
0.0135432
0.0197167
0.0198305
0.0176083
0.0177401
0.0150834
0.0151998
0.0135065
0.0136394
0.0203385
0.0207019
0.0182942
0.0186879
0.0156792
0.0159849
0.0141672
0.0145073
0.0243353
0.0240136
0.0225991
0.0222559
0.01859
0.0183334
0.0173539
0.0170724
0.0235642
0.023462
0.0217772
0.0216669
0.0179167
0.0178119
0.0166255
0.0165135
0.0234905
0.0234867
0.0216995
0.0216958
0.0178266
0.0178242
0.0165333
0.016531
0.0234507
0.0235459
0.021656
0.0217594
0.0178046
0.0179046
0.0165064
0.0166136
0.0239892
0.0243052
0.0222321
0.0225699
0.0183168
0.018569
0.0170561
0.0173333
0.027397
0.0271104
0.0259279
0.0256245
0.0207365
0.0205183
0.0197103
0.0194747
0.0267049
0.0266123
0.0251983
0.0251008
0.020146
0.0200497
0.0190819
0.0189813
0.0266334
0.0266295
0.0251249
0.025121
0.0200561
0.0200536
0.0189911
0.0189887
0.0266006
0.026686
0.0250893
0.0251796
0.0200422
0.0201337
0.018974
0.0190696
0.027085
0.0273656
0.0255995
0.0258971
0.0205013
0.0207148
0.0194579
0.0196889
0.0299707
0.0297118
0.0287366
0.0284644
0.0225127
0.0223223
0.0216637
0.0214601
0.0293389
0.0292529
0.0280759
0.0279862
0.0219818
0.0218911
0.0211045
0.0210108
0.0292689
0.0292649
0.0280041
0.0280002
0.0218922
0.0218897
0.0210139
0.0210114
0.029241
0.0293196
0.0279744
0.0280567
0.0218836
0.0219693
0.0210033
0.0210921
0.0296859
0.0299385
0.0284388
0.0287047
0.0223051
0.0224906
0.021443
0.0216418
0.0321255
0.0318887
0.0310924
0.0308449
0.0239803
0.0238116
0.0232782
0.0230991
0.0315409
0.0314601
0.0304848
0.030401
0.023495
0.023409
0.022771
0.0226823
0.0314729
0.0314688
0.0304148
0.0304108
0.0234069
0.0234044
0.0226814
0.0226789
0.0314482
0.0315214
0.030389
0.0304654
0.0234015
0.0234826
0.0226748
0.0227585
0.0318625
0.0320928
0.0308189
0.03106
0.0237944
0.0239581
0.0230819
0.0232561
0.0339258
0.033707
0.0330623
0.0328347
0.0251936
0.0250422
0.0246125
0.0244527
0.0333792
0.033303
0.032497
0.032418
0.0247443
0.0246622
0.0241457
0.0240613
0.0333136
0.0333096
0.0324293
0.0324253
0.0246582
0.0246557
0.0240579
0.0240554
0.033291
0.0333597
0.0324061
0.0324775
0.0246548
0.024732
0.0240538
0.0241333
0.0336807
0.0338929
0.0328084
0.0330294
0.0250251
0.0251714
0.0244356
0.0245903
0.0354269
0.0352223
0.0347065
0.034495
0.026196
0.0260586
0.0257155
0.0255712
0.0349107
0.0348384
0.0341753
0.0341006
0.0257757
0.0256969
0.0252808
0.0252001
0.0348479
0.0348439
0.0341103
0.0341063
0.0256917
0.0256892
0.0251951
0.0251927
0.0348265
0.0348912
0.0340887
0.0341558
0.0256895
0.0257634
0.0251927
0.0252685
0.0351959
0.0353937
0.0344686
0.0346734
0.0260415
0.0261737
0.0255541
0.0256932
0.0366753
0.0364821
0.0360761
0.0358772
0.0270231
0.0268973
0.0266262
0.0264946
0.0361838
0.0361151
0.0355721
0.0355012
0.0266264
0.0265506
0.0262177
0.0261401
0.0361238
0.0361198
0.0355099
0.0355059
0.0265447
0.0265422
0.0261342
0.0261318
0.0361031
0.0361642
0.0354892
0.0355525
0.0265433
0.0266142
0.0261327
0.0262054
0.0364557
0.0366419
0.0358508
0.0360427
0.0268803
0.0270009
0.0264775
0.0266039
0.0377084
0.0375246
0.0372124
0.0370239
0.027703
0.0275869
0.0273765
0.0272556
0.0372374
0.0371719
0.0367309
0.0366634
0.0273257
0.0272525
0.0269894
0.0269146
0.0371803
0.0371763
0.0366717
0.0366677
0.0272461
0.0272437
0.0269081
0.0269057
0.0371599
0.0372178
0.0366514
0.0367114
0.0272452
0.0273135
0.0269072
0.0269772
0.0374981
0.0376749
0.0369974
0.0371789
0.0275699
0.0276807
0.0272385
0.0273542
0.0385579
0.038382
0.0381501
0.0379702
0.0282583
0.0281503
0.0279915
0.0278795
0.038104
0.0380415
0.0376874
0.0376229
0.027897
0.0278261
0.0276221
0.0275497
0.0380499
0.0380459
0.037631
0.037627
0.0278197
0.0278172
0.027543
0.0275406
0.0380295
0.0380845
0.037611
0.0376679
0.0278189
0.0278849
0.0275424
0.0276099
0.0383554
0.0385243
0.0379437
0.0381164
0.0281333
0.028236
0.0278625
0.0279692
0.0392493
0.0390799
0.0389176
0.0387448
0.0287069
0.0286056
0.0284914
0.0283867
0.0388099
0.0387499
0.0384706
0.0384089
0.0283591
0.0282903
0.0281366
0.0280664
0.0387585
0.0387545
0.0384171
0.0384131
0.0282839
0.0282815
0.0280598
0.0280574
0.038738
0.0387903
0.038397
0.0384511
0.028283
0.028347
0.0280592
0.0281245
0.0390533
0.0392155
0.0387182
0.0388838
0.0285886
0.0286846
0.0283697
0.028469
0.039804
0.03964
0.0395381
0.0393713
0.0290639
0.0289681
0.0288925
0.0287938
0.0393767
0.0393192
0.0391044
0.0390453
0.0287273
0.0286604
0.02855
0.0284818
0.0393281
0.0393241
0.0390537
0.0390497
0.0286543
0.0286519
0.0284753
0.0284729
0.0393073
0.0393572
0.0390333
0.0390849
0.0286532
0.0287152
0.0284746
0.0285379
0.0396134
0.03977
0.0393447
0.0395042
0.0289511
0.0290415
0.0287768
0.0288701
0.0402392
0.0400799
0.0400311
0.0398694
0.029341
0.0292498
0.0292082
0.0291145
0.0398224
0.0397671
0.0396087
0.0395519
0.0290139
0.0289488
0.028876
0.0288096
0.0397765
0.0397724
0.0395607
0.0395567
0.028943
0.0289406
0.0288035
0.0288011
0.0397552
0.0398028
0.0395399
0.0395891
0.0289416
0.0290018
0.0288024
0.0288639
0.0400532
0.0402052
0.0398426
0.0399971
0.0292329
0.0293186
0.0290976
0.0291857
0.0405693
0.0404139
0.0404121
0.0402546
0.0295481
0.0294607
0.0294491
0.0293597
0.0401613
0.0401082
0.0399993
0.0399446
0.0292289
0.0291654
0.0291256
0.029061
0.040118
0.040114
0.0399539
0.0399499
0.0291601
0.0291577
0.0290552
0.0290528
0.0400962
0.0401418
0.0399327
0.0399797
0.0291582
0.0292168
0.0290538
0.0291135
0.0403871
0.0405352
0.0402278
0.0403779
0.0294437
0.0295256
0.0293427
0.0294266
0.040806
0.0406539
0.0406942
0.0405402
0.0296929
0.0296087
0.0296241
0.0295382
0.0404056
0.0403542
0.0402895
0.0402368
0.0293804
0.0293184
0.0293079
0.0292449
0.0403646
0.0403606
0.0402466
0.0402426
0.0293136
0.0293112
0.0292396
0.0292372
0.0403423
0.040386
0.0402249
0.0402699
0.0293113
0.0293684
0.0292377
0.0292959
0.0406271
0.0407718
0.0405134
0.0406599
0.0295917
0.0296704
0.0295212
0.0296016
0.0409577
0.0408085
0.0408875
0.0407368
0.0297814
0.0297
0.0297402
0.0296572
0.0405641
0.0405149
0.04049
0.0404391
0.0294749
0.0294143
0.0294302
0.0293685
0.0405259
0.0405219
0.0404494
0.0404454
0.0294098
0.0294075
0.0293637
0.0293613
0.0405029
0.0405445
0.0404272
0.0404704
0.0294071
0.0294629
0.0293614
0.0294182
0.0407817
0.0409234
0.0407099
0.0408531
0.0296831
0.0297589
0.0296403
0.0297177
0.0410343
0.0408874
0.0410004
0.040852
0.0298194
0.02974
0.0298024
0.0297218
0.0406458
0.0405976
0.0406087
0.0405596
0.0295171
0.0294575
0.0294979
0.0294377
0.0406089
0.0406049
0.0405706
0.0405666
0.0294535
0.0294511
0.0294334
0.029431
0.0405857
0.0406262
0.0405477
0.0405891
0.0294503
0.0295051
0.0294306
0.0294859
0.0408606
0.041
0.0408252
0.040966
0.0297231
0.0297968
0.0297049
0.0297798
0.0410398
0.040895
0.0410409
0.0408949
0.0298101
0.0297326
0.0298166
0.0297381
0.0406562
0.0406097
0.0406545
0.0406068
0.029512
0.0294538
0.0295163
0.0294571
0.0406217
0.0406177
0.0406183
0.0406143
0.0294503
0.029448
0.0294533
0.0294509
0.0405978
0.0406367
0.0405949
0.0406349
0.0294466
0.0295
0.02945
0.0295043
0.0408682
0.0410055
0.0408681
0.0410065
0.0297158
0.0297876
0.0297212
0.0297941
0.0409799
0.0408369
0.0410131
0.0408691
0.0297572
0.0296812
0.0297851
0.0297083
0.0406002
0.0405549
0.040631
0.0405846
0.0294621
0.029405
0.0294881
0.0294301
0.0405676
0.0405636
0.0405967
0.0405927
0.029402
0.0293996
0.0294267
0.0294243
0.0405431
0.0405807
0.0405727
0.0406114
0.0293978
0.0294501
0.0294229
0.0294761
0.0408101
0.0409456
0.0408423
0.0409788
0.0296644
0.0297347
0.0296914
0.0297626
0.0408582
0.0407167
0.040922
0.0407795
0.0296629
0.0295882
0.0297113
0.0296358
0.0404818
0.0404376
0.0405433
0.0404982
0.0293703
0.0293141
0.029417
0.02936
0.0404508
0.0404469
0.0405109
0.0405069
0.0293116
0.0293092
0.0293571
0.0293547
0.0404258
0.0404623
0.0404863
0.0405238
0.029307
0.0293583
0.0293529
0.029405
0.04069
0.040824
0.0407528
0.0408877
0.0295714
0.0296405
0.0296189
0.0296888
0.0406772
0.040537
0.0407704
0.0406293
0.0295289
0.0294552
0.029597
0.0295226
0.0403034
0.0402603
0.0403947
0.0403506
0.0292381
0.0291828
0.0293048
0.0292487
0.0402741
0.0402701
0.0403639
0.0403599
0.0291807
0.0291783
0.0292462
0.0292439
0.0402485
0.040284
0.0403388
0.0403752
0.0291757
0.0292263
0.0292416
0.0292929
0.0405104
0.0406432
0.0406027
0.0407362
0.0294385
0.0295066
0.0295058
0.0295746
0.0404387
0.0402996
0.0405605
0.0404206
0.0293562
0.0292833
0.0294435
0.0293701
0.040067
0.0400248
0.0401872
0.040144
0.0290668
0.0290121
0.029153
0.0290976
0.0400391
0.0400351
0.0401578
0.0401538
0.0290105
0.0290081
0.0290956
0.0290932
0.040013
0.0400477
0.0401322
0.0401678
0.029005
0.029055
0.0290905
0.0291411
0.0402732
0.0404048
0.0403941
0.0405264
0.0292667
0.029334
0.0293534
0.0294212
0.0401436
0.0400055
0.0402936
0.0401548
0.0291455
0.0290733
0.0292518
0.0291791
0.0397735
0.039732
0.0399221
0.0398798
0.0288569
0.0288028
0.0289623
0.0289076
0.0397468
0.0397428
0.0398941
0.0398901
0.0288015
0.0287992
0.0289059
0.0289036
0.0397202
0.0397543
0.039868
0.0399028
0.0287958
0.0288452
0.0289005
0.0289505
0.0399792
0.04011
0.0401284
0.0402598
0.0290567
0.0291234
0.0291625
0.0292296
0.0397924
0.039655
0.0399705
0.0398325
0.028897
0.0288253
0.0290222
0.0289501
0.0394231
0.0393822
0.0396002
0.0395585
0.0286088
0.028555
0.0287333
0.0286791
0.0393975
0.0393936
0.0395733
0.0395694
0.0285541
0.0285518
0.0286778
0.0286755
0.0393706
0.0394041
0.0395469
0.0395811
0.028548
0.0285971
0.028672
0.0287216
0.0396289
0.039759
0.0398063
0.0399369
0.0288089
0.0288752
0.0289336
0.0290002
0.0393846
0.0392477
0.0395911
0.0394538
0.0286107
0.0285392
0.0287549
0.0286832
0.0390156
0.0389751
0.0392214
0.0391802
0.0283221
0.0282686
0.028466
0.028412
0.0389908
0.0389869
0.0391955
0.0391916
0.028268
0.0282657
0.0284111
0.0284088
0.0389635
0.0389967
0.0391686
0.0392024
0.0282616
0.0283105
0.0284051
0.0284544
0.0392218
0.0393516
0.0394278
0.0395578
0.0285229
0.028589
0.0286668
0.0287331
0.0389194
0.0387827
0.0391548
0.0390178
0.028286
0.0282145
0.0284495
0.0283779
0.0385499
0.0385096
0.038785
0.0387442
0.0279964
0.0279429
0.02816
0.0281061
0.0385258
0.0385219
0.0387598
0.038756
0.0279426
0.0279403
0.0281055
0.0281032
0.0384982
0.0385311
0.0387327
0.0387662
0.027936
0.0279849
0.0280992
0.0281484
0.0387571
0.0388867
0.0389921
0.0391219
0.0281984
0.0282645
0.0283616
0.0284279
0.0383951
0.0382583
0.0386604
0.0385235
0.027922
0.0278502
0.0281054
0.0280336
0.0380243
0.0379841
0.0382897
0.038249
0.0276306
0.027577
0.0278144
0.0277605
0.0380007
0.0379968
0.0382651
0.0382612
0.0275769
0.0275747
0.0277601
0.0277578
0.0379728
0.0380057
0.0382376
0.038271
0.0275701
0.0276192
0.0277536
0.0278029
0.038233
0.0383628
0.038498
0.0386278
0.0278342
0.0279007
0.0280175
0.028084
0.0378094
0.0376722
0.0381058
0.0379686
0.0275173
0.0274448
0.0277213
0.027649
0.0374365
0.0373962
0.0377334
0.0376927
0.0272233
0.0271693
0.0274281
0.0273739
0.0374131
0.0374093
0.0377091
0.0377053
0.0271695
0.0271673
0.0273738
0.0273716
0.037385
0.037418
0.0376814
0.0377148
0.0271625
0.027212
0.0273671
0.0274167
0.0376471
0.0377776
0.0379434
0.0380736
0.0274289
0.0274963
0.027633
0.0277001
0.0371594
0.0370212
0.0374884
0.0373505
0.0270703
0.0269967
0.0272957
0.0272224
0.0367833
0.0367428
0.0371133
0.0370725
0.0267726
0.026718
0.0269994
0.0269448
0.0367599
0.0367562
0.0370893
0.0370855
0.0267185
0.0267162
0.0269449
0.0269427
0.0367316
0.0367651
0.0370613
0.037095
0.0267113
0.0267614
0.026938
0.0269881
0.0369965
0.037128
0.0373256
0.0374567
0.026981
0.0270496
0.0272066
0.0272748
0.0364411
0.0363015
0.036805
0.0366659
0.0265786
0.0265035
0.0268268
0.0267523
0.0360607
0.0360195
0.0364262
0.0363848
0.026276
0.0262207
0.0265262
0.0264709
0.036037
0.0360333
0.0364019
0.0363982
0.0262213
0.0262191
0.0264712
0.026469
0.0360085
0.0360427
0.0363738
0.0364081
0.026214
0.0262649
0.0264642
0.026515
0.0362771
0.0364102
0.0366413
0.0367738
0.026488
0.0265582
0.0267367
0.0268062
0.0356492
0.0355075
0.0360507
0.0359099
0.026039
0.0259617
0.0263117
0.0262353
0.0352632
0.0352211
0.035667
0.0356249
0.0257301
0.0256737
0.0260055
0.0259493
0.0352387
0.035235
0.0356421
0.0356384
0.0256746
0.0256723
0.0259498
0.0259476
0.0352102
0.0352454
0.0356139
0.0356491
0.0256671
0.0257191
0.0259426
0.0259945
0.0354835
0.0356188
0.0358857