/*--------------------------------*- C++ -*----------------------------------*\
  =========                 |
  \\      /  F ield         | OpenFOAM: The Open Source CFD Toolbox
   \\    /   O peration     | Website:  https://openfoam.org
    \\  /    A nd           | Version:  9
     \\/     M anipulation  |
\*---------------------------------------------------------------------------*/
FoamFile
{
    format      ascii;
    class       volScalarField;
    location    "4.65";
    object      p;
}
// * * * * * * * * * * * * * * * * * * * * * * * * * * * * * * * * * * * * * //

dimensions      [0 2 -2 0 0 0 0];

internalField   nonuniform List<scalar> 
36360
(
20.1287
20.079
20.1225
20.0834
20.0896
20.1099
20.0928
20.1034
20.0988
20.1004
20.0995
20.1006
20.0991
20.099
20.0982
20.0987
20.1004
20.1004
20.1006
20.1006
20.0991
20.0991
20.0988
20.0988
20.1004
20.0988
20.1006
20.0995
20.099
20.0991
20.0987
20.0982
20.0791
20.1287
20.0834
20.1225
20.1099
20.0897
20.1034
20.0928
20.1095
20.095
20.1179
20.0884
20.0635
20.135
20.0767
20.1233
20.1005
20.0993
20.0995
20.0999
20.1018
20.0983
20.1002
20.0987
20.0991
20.0991
20.0999
20.0999
20.098
20.098
20.0987
20.0987
20.0993
20.1005
20.0999
20.0995
20.0983
20.1018
20.0987
20.1002
20.095
20.1095
20.0884
20.1179
20.135
20.0635
20.1232
20.0768
20.0945
20.1054
20.1019
20.1006
20.0389
20.1555
20.0508
20.1459
20.1049
20.099
20.1024
20.099
20.107
20.0982
20.1041
20.0981
20.0977
20.0977
20.0984
20.0984
20.0969
20.0969
20.0974
20.0974
20.099
20.1049
20.099
20.1024
20.0983
20.1069
20.0981
20.1041
20.1053
20.0945
20.1006
20.1019
20.1553
20.039
20.1458
20.0509
20.0811
20.1124
20.0875
20.1093
20.0178
20.1706
20.0279
20.1636
20.1103
20.0998
20.1075
20.0993
20.1132
20.0991
20.1099
20.0986
20.0967
20.0967
20.0972
20.0972
20.0962
20.0963
20.0966
20.0965
20.0998
20.1102
20.0993
20.1075
20.0991
20.1129
20.0985
20.11
20.1124
20.081
20.1092
20.0875
20.1704
20.0178
20.1636
20.028
20.0697
20.1167
20.0751
20.1148
20.0002
20.1812
20.0086
20.1763
20.1155
20.1013
20.1129
20.1005
20.119
20.1006
20.1161
20.0998
20.0963
20.0963
20.0965
20.0965
20.096
20.096
20.0961
20.096
20.1013
20.1154
20.1004
20.1129
20.1006
20.119
20.0998
20.1161
20.1167
20.0697
20.1148
20.0751
20.1811
20.0003
20.1763
20.0086
20.0603
20.1191
20.0648
20.1181
19.9858
20.1886
19.9927
20.1852
20.1201
20.1031
20.1179
20.1022
20.1242
20.1024
20.1217
20.1015
20.0964
20.0964
20.0963
20.0963
20.0962
20.0962
20.096
20.096
20.1031
20.12
20.1022
20.1178
20.1024
20.1242
20.1014
20.1217
20.1191
20.0603
20.1181
20.0648
20.1885
19.9859
20.1852
19.9928
20.0525
20.1203
20.0562
20.1198
19.9741
20.1937
19.9797
20.1914
20.1238
20.105
20.122
20.1041
20.1285
20.1043
20.1265
20.1033
20.0969
20.0969
20.0966
20.0966
20.0967
20.0967
20.0964
20.0964
20.105
20.1238
20.1041
20.122
20.1042
20.1285
20.1033
20.1264
20.1203
20.0525
20.1198
20.0562
20.1936
19.9742
20.1913
19.9798
20.046
20.1206
20.0491
20.1205
19.9644
20.1972
19.969
20.1956
20.1268
20.1068
20.1254
20.1059
20.1319
20.106
20.1303
20.1052
20.0976
20.0976
20.0972
20.0972
20.0975
20.0975
20.0971
20.0971
20.1068
20.1268
20.1059
20.1254
20.106
20.1319
20.1052
20.1303
20.1206
20.0461
20.1205
20.0491
20.1971
19.9645
20.1956
19.9691
20.0406
20.1205
20.0432
20.1206
19.9564
20.1996
19.9602
20.1985
20.1291
20.1084
20.128
20.1076
20.1345
20.1076
20.1333
20.1069
20.0985
20.0984
20.098
20.098
20.0983
20.0983
20.0979
20.0979
20.1084
20.1291
20.1076
20.128
20.1076
20.1345
20.1068
20.1333
20.1205
20.0407
20.1206
20.0432
20.1995
19.9565
20.1984
19.9603
20.0361
20.12
20.0382
20.1203
19.9498
20.2011
19.953
20.2004
20.1309
20.1098
20.1301
20.1091
20.1366
20.109
20.1356
20.1083
20.0993
20.0993
20.0989
20.0989
20.0992
20.0992
20.0988
20.0988
20.1097
20.1308
20.1091
20.13
20.109
20.1365
20.1083
20.1356
20.1201
20.0361
20.1203
20.0383
20.2011
19.9499
20.2004
19.9531
20.0322
20.1193
20.0341
20.1197
19.9443
20.202
19.9469
20.2016
20.1322
20.1108
20.1315
20.1103
20.1381
20.1101
20.1374
20.1096
20.1002
20.1002
20.0998
20.0998
20.1
20.1
20.0996
20.0996
20.1108
20.1321
20.1103
20.1316
20.1101
20.1381
20.1095
20.1374
20.1193
20.0323
20.1196
20.0341
20.202
19.9444
20.2016
19.947
20.029
20.1185
20.0305
20.1189
19.9397
20.2025
19.9419
20.2023
20.1331
20.1117
20.1327
20.1113
20.1392
20.1109
20.1387
20.1105
20.1009
20.1009
20.1005
20.1005
20.1007
20.1007
20.1004
20.1004
20.1117
20.1331
20.1113
20.1327
20.1109
20.1391
20.1105
20.1386
20.1185
20.029
20.1189
20.0306
20.2025
19.9398
20.2023
19.942
20.0262
20.1177
20.0275
20.1181
19.9359
20.2027
19.9377
20.2026
20.1337
20.1123
20.1335
20.112
20.1399
20.1116
20.1396
20.1113
20.1014
20.1014
20.1012
20.1012
20.1013
20.1013
20.101
20.101
20.1123
20.1337
20.112
20.1334
20.1115
20.1398
20.1113
20.1395
20.1177
20.0262
20.1181
20.0276
20.2026
19.936
20.2026
19.9378
20.0238
20.1168
20.0249
20.1172
19.9326
20.2025
19.9342
20.2026
20.1341
20.1127
20.1339
20.1125
20.1403
20.112
20.1401
20.1118
20.1018
20.1018
20.1017
20.1017
20.1017
20.1016
20.1015
20.1015
20.1127
20.1341
20.1125
20.1339
20.1119
20.1402
20.1118
20.1401
20.1168
20.0238
20.1172
20.025
20.2025
19.9327
20.2026
19.9343
20.0217
20.1159
20.0227
20.1163
19.9299
20.2022
19.9312
20.2024
20.1342
20.1129
20.1342
20.1128
20.1404
20.1121
20.1404
20.1121
20.1021
20.102
20.102
20.102
20.1018
20.1018
20.1018
20.1018
20.1129
20.1342
20.1128
20.1341
20.1121
20.1404
20.1121
20.1403
20.1159
20.0217
20.1163
20.0227
20.2022
19.93
20.2024
19.9313
20.0198
20.115
20.0207
20.1154
19.9276
20.2016
19.9287
20.2019
20.1341
20.1129
20.1342
20.1129
20.1403
20.1121
20.1404
20.1122
20.1021
20.1021
20.1021
20.1021
20.1019
20.1019
20.1019
20.1019
20.1129
20.1341
20.1129
20.1342
20.1121
20.1403
20.1121
20.1403
20.115
20.0199
20.1154
20.0207
20.2016
19.9277
20.2019
19.9288
20.0182
20.1141
20.019
20.1145
19.9258
20.2009
19.9267
20.2013
20.1339
20.1127
20.134
20.1128
20.14
20.1119
20.1402
20.112
20.102
20.102
20.1021
20.1021
20.1017
20.1017
20.1018
20.1018
20.1127
20.1338
20.1128
20.134
20.1119
20.1399
20.112
20.1401
20.1141
20.0183
20.1145
20.019
20.2009
19.9258
20.2013
19.9268
20.0168
20.1132
20.0175
20.1136
19.9242
20.2001
19.9249
20.2005
20.1335
20.1124
20.1337
20.1126
20.1394
20.1115
20.1397
20.1117
20.1018
20.1018
20.1019
20.1019
20.1014
20.1014
20.1016
20.1016
20.1124
20.1335
20.1126
20.1337
20.1115
20.1394
20.1117
20.1397
20.1132
20.0169
20.1136
20.0175
20.2
19.9243
20.2005
19.925
20.0156
20.1123
20.0162
20.1127
19.9229
20.1991
19.9235
20.1996
20.1329
20.1119
20.1332
20.1122
20.1387
20.111
20.1391
20.1113
20.1014
20.1014
20.1016
20.1016
20.1009
20.1009
20.1012
20.1012
20.1119
20.1329
20.1122
20.1332
20.1109
20.1387
20.1112
20.1391
20.1123
20.0157
20.1127
20.0162
20.199
19.923
20.1995
19.9236
20.0146
20.1114
20.0151
20.1119
19.9219
20.1979
19.9224
20.1985
20.1321
20.1114
20.1326
20.1117
20.1378
20.1103
20.1383
20.1106
20.101
20.101
20.1012
20.1012
20.1003
20.1003
20.1006
20.1006
20.1113
20.1321
20.1116
20.1325
20.1102
20.1378
20.1106
20.1383
20.1114
20.0146
20.1119
20.0151
20.1979
19.922
20.1985
19.9225
20.0137
20.1106
20.0141
20.111
19.9212
20.1967
19.9215
20.1974
20.1311
20.1107
20.1316
20.111
20.1367
20.1094
20.1373
20.1099
20.1004
20.1004
20.1007
20.1007
20.0996
20.0996
20.0999
20.0999
20.1107
20.1311
20.111
20.1316
20.1094
20.1367
20.1098
20.1373
20.1106
20.0137
20.111
20.0142
20.1967
19.9213
20.1973
19.9216
20.013
20.1098
20.0133
20.1102
19.9207
20.1954
19.9209
20.1961
20.13
20.1099
20.1306
20.1103
20.1356
20.1085
20.1362
20.109
20.0998
20.0998
20.1001
20.1001
20.0988
20.0987
20.0992
20.0992
20.1099
20.13
20.1103
20.1305
20.1085
20.1355
20.109
20.1361
20.1098
20.013
20.1102
20.0134
20.1954
19.9208
20.1961
19.921
20.0125
20.1091
20.0127
20.1095
19.9205
20.194
19.9206
20.1947
20.129
20.1091
20.1295
20.1095
20.1343
20.1075
20.1349
20.108
20.0991
20.0991
20.0995
20.0995
20.0979
20.0979
20.0983
20.0983
20.1091
20.1289
20.1095
20.1295
20.1075
20.1343
20.108
20.1349
20.1091
20.0125
20.1095
20.0128
20.194
19.9206
20.1947
19.9206
20.0122
20.1084
20.0123
20.1087
19.9205
20.1926
19.9204
20.1933
20.1279
20.1083
20.1284
20.1087
20.1329
20.1064
20.1336
20.107
20.0984
20.0984
20.0988
20.0988
20.0969
20.0969
20.0974
20.0974
20.1083
20.1279
20.1087
20.1284
20.1064
20.1329
20.107
20.1336
20.1084
20.0122
20.1087
20.0123
20.1926
19.9206
20.1933
19.9205
20.012
20.1078
20.0121
20.1081
19.9208
20.1911
19.9206
20.1918
20.1268
20.1075
20.1274
20.1079
20.1315
20.1053
20.1322
20.1059
20.0978
20.0978
20.0981
20.0981
20.096
20.096
20.0965
20.0965
20.1075
20.1268
20.1079
20.1273
20.1053
20.1315
20.1059
20.1322
20.1078
20.0121
20.1081
20.0121
20.1911
19.9209
20.1918
19.9207
20.0121
20.1073
20.012
20.1075
19.9214
20.1895
19.921
20.1903
20.1258
20.1067
20.1263
20.1071
20.1301
20.1043
20.1308
20.1048
20.0972
20.0972
20.0975
20.0975
20.0951
20.0951
20.0955
20.0955
20.1067
20.1258
20.1071
20.1263
20.1043
20.1301
20.1048
20.1308
20.1073
20.0122
20.1075
20.0121
20.1895
19.9215
20.1903
19.9211
20.0125
20.1068
20.0123
20.107
19.9223
20.188
19.9218
20.1888
20.1248
20.1061
20.1253
20.1064
20.1287
20.1033
20.1294
20.1038
20.0967
20.0967
20.097
20.097
20.0943
20.0943
20.0947
20.0947
20.106
20.1248
20.1064
20.1252
20.1032
20.1286
20.1037
20.1294
20.1068
20.0125
20.107
20.0123
20.188
19.9224
20.1887
19.9219
20.0131
20.1065
20.0128
20.1067
19.9235
20.1864
19.9229
20.1872
20.1238
20.1055
20.1243
20.1058
20.1273
20.1023
20.128
20.1028
20.0964
20.0964
20.0965
20.0965
20.0936
20.0936
20.0939
20.0939
20.1055
20.1238
20.1057
20.1243
20.1023
20.1272
20.1028
20.1279
20.1065
20.0132
20.1067
20.0128
20.1864
19.9236
20.1872
19.923
20.0141
20.1063
20.0135
20.1064
19.9252
20.1849
19.9243
20.1856
20.123
20.105
20.1234
20.1052
20.1259
20.1015
20.1266
20.1019
20.0962
20.0962
20.0963
20.0963
20.093
20.093
20.0933
20.0933
20.105
20.123
20.1052
20.1234
20.1015
20.1259
20.1019
20.1266
20.1063
20.0141
20.1064
20.0136
20.1848
19.9253
20.1856
19.9244
20.0153
20.1062
20.0146
20.1063
19.9273
20.1833
19.9262
20.1841
20.1223
20.1047
20.1226
20.1049
20.1247
20.1008
20.1253
20.1011
20.0962
20.0962
20.0962
20.0962
20.0927
20.0926
20.0928
20.0928
20.1047
20.1223
20.1049
20.1226
20.1008
20.1246
20.1011
20.1253
20.1062
20.0154
20.1063
20.0147
20.1833
19.9274
20.1841
19.9263
20.0169
20.1063
20.0161
20.1062
19.9299
20.1819
19.9285
20.1826
20.1217
20.1046
20.1219
20.1047
20.1235
20.1004
20.1241
20.1006
20.0964
20.0964
20.0963
20.0963
20.0925
20.0925
20.0926
20.0926
20.1046
20.1216
20.1047
20.1219
20.1004
20.1235
20.1006
20.124
20.1063
20.017
20.1062
20.0161
20.1818
19.93
20.1826
19.9286
20.0189
20.1063
20.0179
20.1064
19.9329
20.1804
19.9313
20.1811
20.1213
20.1048
20.1213
20.1046
20.1225
20.1001
20.123
20.1002
20.0969
20.0969
20.0966
20.0966
20.0927
20.0927
20.0926
20.0926
20.1047
20.121
20.1047
20.1214
20.1001
20.1225
20.1002
20.123
20.1066
20.019
20.1063
20.0179
20.1804
19.933
20.1811
19.9314
20.0213
20.1065
20.0201
20.1067
19.9366
20.1789
19.9347
20.1796
20.1209
20.1051
20.1208
20.1048
20.1216
20.1002
20.122
20.1001
20.0977
20.0977
20.0973
20.0973
20.0931
20.0931
20.0929
20.0929
20.105
20.1206
20.1049
20.1211
20.1002
20.1216
20.1001
20.122
20.1068
20.0214
20.1064
20.02
20.1789
19.9367
20.1796
19.9348
20.0241
20.1069
20.0227
20.1069
19.9408
20.1773
19.9386
20.1781
20.1205
20.1056
20.1205
20.1053
20.1209
20.1005
20.1212
20.1003
20.0987
20.0987
20.0981
20.0981
20.0939
20.0939
20.0935
20.0935
20.1056
20.1204
20.1053
20.1208
20.1005
20.1209
20.1003
20.1212
20.1071
20.0242
20.1066
20.0227
20.1773
19.9409
20.1781
19.9387
20.0274
20.1073
20.0257
20.1069
19.9458
20.1756
19.9432
20.1765
20.1203
20.1064
20.1207
20.106
20.1205
20.1011
20.1207
20.1008
20.0999
20.0999
20.0993
20.0993
20.0949
20.0949
20.0944
20.0944
20.1064
20.1203
20.106
20.1206
20.1011
20.1204
20.1008
20.1207
20.1073
20.0275
20.1069
20.0257
20.1756
19.9459
20.1765
19.9433
20.0312
20.1074
20.0292
20.1071
19.9516
20.1737
19.9486
20.1747
20.1205
20.1074
20.1207
20.1069
20.1202
20.1021
20.1203
20.1016
20.1014
20.1014
20.1007
20.1007
20.0963
20.0963
20.0956
20.0956
20.1074
20.1205
20.1069
20.1207
20.1021
20.1202
20.1016
20.1203
20.1075
20.0312
20.1071
20.0292
20.1737
19.9517
20.1747
19.9487
20.0352
20.1076
20.0331
20.1074
19.9585
20.1713
19.9549
20.1726
20.1208
20.1087
20.1208
20.1081
20.1202
20.1034
20.1202
20.1027
20.1031
20.1031
20.1022
20.1022
20.098
20.098
20.0971
20.0971
20.1087
20.1208
20.1081
20.1207
20.1034
20.1202
20.1027
20.1202
20.1076
20.0353
20.1074
20.0332
20.1712
19.9586
20.1725
19.955
20.0386
20.1088
20.0372
20.1078
19.9668
20.1678
19.9624
20.1697
20.1212
20.1103
20.121
20.1095
20.1203
20.105
20.1202
20.1041
20.1051
20.1051
20.1041
20.1041
20.0999
20.0999
20.0989
20.0989
20.1103
20.1212
20.1095
20.121
20.105
20.1203
20.1041
20.1202
20.1088
20.0386
20.1078
20.0372
20.1678
19.9669
20.1697
19.9625
20.0413
20.1101
20.0385
20.111
19.9767
20.1628
19.9715
20.1656
20.1225
20.1122
20.1218
20.1112
20.1211
20.107
20.1206
20.1059
20.1072
20.1072
20.1061
20.1061
20.1021
20.1021
20.101
20.101
20.1122
20.1225
20.1112
20.1218
20.107
20.1211
20.1059
20.1206
20.1101
20.0414
20.111
20.0386
20.1628
19.9767
20.1655
19.9716
20.1651
20.0524
20.1427
20.0665
20.1516
20.0599
20.1335
20.0719
20.0893
20.0994
20.094
20.0999
20.0937
20.0996
20.0962
20.0995
20.1002
20.1002
20.1001
20.1001
20.0998
20.0998
20.0995
20.0995
20.0994
20.0893
20.0999
20.094
20.0996
20.0937
20.0995
20.0962
20.0524
20.1649
20.0666
20.1426
20.0599
20.1515
20.0719
20.1334
20.1503
20.0709
20.1551
20.0646
20.1385
20.0743
20.1436
20.0691
20.0877
20.097
20.0885
20.0984
20.0931
20.0984
20.0934
20.0992
20.0992
20.0992
20.0998
20.0998
20.0991
20.0991
20.0997
20.0997
20.097
20.0877
20.0984
20.0885
20.0984
20.0931
20.0992
20.0934
20.0709
20.1502
20.0646
20.155
20.0743
20.1385
20.0691
20.1435
20.145
20.0761
20.1474
20.0743
20.1306
20.0799
20.1345
20.0776
20.089
20.0959
20.0882
20.0963
20.0952
20.0978
20.0939
20.098
20.0977
20.0977
20.0984
20.0984
20.0978
20.0978
20.0984
20.0984
20.0959
20.089
20.0963
20.0882
20.0978
20.0952
20.098
20.0939
20.0761
20.1449
20.0743
20.1473
20.0799
20.1306
20.0776
20.1344
20.1411
20.0773
20.1429
20.077
20.1236
20.0823
20.127
20.0814
20.0912
20.0961
20.0901
20.0959
20.0988
20.0983
20.0969
20.098
20.0965
20.0965
20.097
20.097
20.0968
20.0968
20.0972
20.0972
20.0961
20.0912
20.0959
20.0901
20.0983
20.0988
20.098
20.0969
20.0773
20.141
20.077
20.1429
20.0823
20.1236
20.0814
20.127
20.138
20.0768
20.1395
20.0772
20.1177
20.0828
20.1206
20.0827
20.0932
20.097
20.0923
20.0965
20.1022
20.0995
20.1006
20.0988
20.0961
20.0961
20.0962
20.0962
20.0964
20.0964
20.0965
20.0965
20.097
20.0932
20.0965
20.0922
20.0995
20.1022
20.0988
20.1005
20.0768
20.1379
20.0772
20.1394
20.0828
20.1177
20.0827
20.1205
20.1353
20.0756
20.1366
20.0763
20.1127
20.0824
20.1151
20.0827
20.0948
20.0982
20.0941
20.0976
20.1049
20.101
20.1036
20.1002
20.0962
20.0962
20.0961
20.0961
20.0966
20.0966
20.0965
20.0965
20.0982
20.0948
20.0976
20.0941
20.1009
20.1049
20.1002
20.1036
20.0756
20.1352
20.0763
20.1365
20.0825
20.1127
20.0827
20.1151
20.133
20.074
20.1341
20.0748
20.1085
20.0815
20.1105
20.082
20.0959
20.0994
20.0954
20.0988
20.107
20.1026
20.106
20.1018
20.0969
20.0969
20.0965
20.0965
20.0972
20.0972
20.0969
20.0969
20.0994
20.0959
20.0988
20.0954
20.1025
20.107
20.1017
20.106
20.074
20.133
20.0748
20.1341
20.0815
20.1085
20.082
20.1105
20.131
20.0723
20.132
20.0731
20.105
20.0802
20.1067
20.0809
20.0965
20.1006
20.0962
20.1
20.1085
20.1041
20.1078
20.1033
20.0977
20.0977
20.0973
20.0973
20.0981
20.0981
20.0976
20.0976
20.1006
20.0965
20.1
20.0962
20.1041
20.1085
20.1033
20.1078
20.0723
20.131
20.0731
20.1319
20.0802
20.105
20.0809
20.1067
20.1293
20.0705
20.1301
20.0714
20.1019
20.0788
20.1034
20.0795
20.0969
20.1017
20.0968
20.1012
20.1096
20.1055
20.1091
20.1048
20.0986
20.0986
20.0981
20.0981
20.099
20.099
20.0985
20.0985
20.1017
20.0969
20.1012
20.0968
20.1055
20.1096
20.1048
20.1091
20.0705
20.1292
20.0714
20.1301
20.0788
20.1019
20.0795
20.1034
20.1277
20.0689
20.1284
20.0697
20.0993
20.0773
20.1006
20.078
20.097
20.1027
20.097
20.1022
20.1104
20.1067
20.11
20.1061
20.0995
20.0995
20.0991
20.0991
20.0999
20.0999
20.0995
20.0994
20.1027
20.097
20.1022
20.097
20.1067
20.1103
20.1061
20.11
20.0689
20.1276
20.0697
20.1284
20.0773
20.0993
20.078
20.1006
20.1263
20.0674
20.127
20.0682
20.0971
20.0759
20.0982
20.0766
20.0969
20.1035
20.097
20.1032
20.1108
20.1077
20.1106
20.1072
20.1004
20.1004
20.1
20.1
20.1008
20.1008
20.1004
20.1003
20.1035
20.0969
20.1032
20.097
20.1077
20.1108
20.1072
20.1106
20.0674
20.1262
20.0682
20.1269
20.0759
20.0971
20.0766
20.0982
20.125
20.066
20.1256
20.0667
20.0951
20.0745
20.0961
20.0752
20.0967
20.1042
20.0968
20.1039
20.111
20.1085
20.1109
20.1081
20.1011
20.1011
20.1008
20.1008
20.1015
20.1015
20.1012
20.1012
20.1042
20.0967
20.1039
20.0968
20.1085
20.111
20.1081
20.1109
20.066
20.1249
20.0667
20.1255
20.0745
20.0951
20.0752
20.0961
20.1238
20.0647
20.1243
20.0653
20.0934
20.0732
20.0942
20.0738
20.0963
20.1046
20.0965
20.1044
20.111
20.1091
20.111
20.1088
20.1017
20.1017
20.1014
20.1014
20.1021
20.1021
20.1018
20.1018
20.1046
20.0963
20.1044
20.0965
20.1091
20.111
20.1088
20.111
20.0647
20.1237
20.0653
20.1243
20.0732
20.0933
20.0738
20.0942
20.1226
20.0635
20.1232
20.064
20.0918
20.072
20.0926
20.0726
20.096
20.1049
20.0962
20.1048
20.1108
20.1095
20.1109
20.1093
20.1022
20.1022
20.102
20.102
20.1026
20.1026
20.1024
20.1024
20.1049
20.096
20.1048
20.0962
20.1095
20.1108
20.1093
20.1109
20.0635
20.1226
20.0641
20.1231
20.072
20.0918
20.0726
20.0925
20.1216
20.0623
20.1221
20.0629
20.0904
20.0708
20.0911
20.0714
20.0955
20.1051
20.0957
20.105
20.1105
20.1097
20.1107
20.1096
20.1025
20.1025
20.1023
20.1023
20.1029
20.1029
20.1028
20.1027
20.1051
20.0955
20.105
20.0957
20.1097
20.1105
20.1096
20.1107
20.0623
20.1216
20.0629
20.1221
20.0708
20.0904
20.0714
20.0911
20.1206
20.0613
20.1211
20.0618
20.0891
20.0697
20.0897
20.0703
20.095
20.1052
20.0953
20.1052
20.1101
20.1098
20.1104
20.1097
20.1026
20.1026
20.1026
20.1026
20.103
20.103
20.103
20.1029
20.1052
20.095
20.1051
20.0953
20.1097
20.1101
20.1097
20.1104
20.0613
20.1206
20.0618
20.1211
20.0697
20.0891
20.0703
20.0897
20.1197
20.0604
20.1202
20.0608
20.088
20.0687
20.0885
20.0692
20.0945
20.1052
20.0948
20.1052
20.1096
20.1097
20.1099
20.1097
20.1027
20.1027
20.1027
20.1027
20.1029
20.1029
20.103
20.103
20.1051
20.0945
20.1052
20.0948
20.1097
20.1096
20.1097
20.1099
20.0604
20.1197
20.0608
20.1201
20.0688
20.0879
20.0692
20.0885
20.1189
20.0595
20.1193
20.0599
20.0869
20.0678
20.0874
20.0683
20.094
20.1049
20.0943
20.105
20.109
20.1095
20.1093
20.1096
20.1026
20.1026
20.1026
20.1026
20.1028
20.1028
20.1029
20.1029
20.1049
20.094
20.105
20.0943
20.1095
20.1089
20.1096
20.1093
20.0595
20.1188
20.0599
20.1192
20.0678
20.0869
20.0683
20.0874
20.1181
20.0587
20.1185
20.0591
20.086
20.067
20.0864
20.0674
20.0935
20.1046
20.0938
20.1048
20.1083
20.1091
20.1086
20.1093
20.1024
20.1024
20.1025
20.1025
20.1025
20.1025
20.1027
20.1027
20.1046
20.0935
20.1048
20.0938
20.1091
20.1083
20.1093
20.1086
20.0588
20.118
20.0591
20.1184
20.067
20.0859
20.0674
20.0864
20.1174
20.0581
20.1177
20.0584
20.0851
20.0662
20.0855
20.0666
20.0931
20.1043
20.0933
20.1045
20.1079
20.1087
20.1081
20.1089
20.1021
20.1021
20.1023
20.1023
20.1021
20.1021
20.1023
20.1023
20.1043
20.0931
20.1045
20.0933
20.1087
20.1079
20.1089
20.1081
20.0581
20.1173
20.0584
20.1177
20.0662
20.0851
20.0666
20.0855
20.1167
20.0575
20.117
20.0578
20.0843
20.0656
20.0847
20.0659
20.0927
20.1039
20.0929
20.1041
20.1076
20.1082
20.1078
20.1085
20.1018
20.1018
20.102
20.102
20.1017
20.1017
20.1019
20.1019
20.1039
20.0927
20.1041
20.0929
20.1082
20.1076
20.1085
20.1078
20.0575
20.1166
20.0578
20.117
20.0656
20.0843
20.0659
20.0847
20.1161
20.057
20.1164
20.0572
20.0837
20.065
20.084
20.0653
20.0923
20.1035
20.0925
20.1037
20.1072
20.1077
20.1074
20.1079
20.1015
20.1015
20.1017
20.1017
20.1012
20.1012
20.1015
20.1015
20.1035
20.0923
20.1037
20.0925
20.1077
20.1072
20.1079
20.1073
20.0571
20.1161
20.0573
20.1163
20.065
20.0837
20.0653
20.084
20.1156
20.0567
20.1159
20.0569
20.0831
20.0645
20.0834
20.0647
20.0919
20.1031
20.0921
20.1033
20.1068
20.1071
20.107
20.1074
20.1012
20.1012
20.1013
20.1013
20.1008
20.1008
20.101
20.101
20.1031
20.0919
20.1033
20.0921
20.1071
20.1068
20.1074
20.107
20.0567
20.1156
20.0569
20.1158
20.0645
20.0831
20.0648
20.0834
20.1153
20.0565
20.1155
20.0566
20.0828
20.0642
20.0829
20.0643
20.0917
20.1028
20.0918
20.103
20.1064
20.1066
20.1066
20.1068
20.1009
20.1009
20.101
20.101
20.1003
20.1003
20.1005
20.1005
20.1028
20.0917
20.103
20.0918
20.1066
20.1064
20.1068
20.1066
20.0566
20.1152
20.0566
20.1154
20.0642
20.0827
20.0644
20.0829
20.1151
20.0565
20.1152
20.0565
20.0825
20.064
20.0826
20.0641
20.0916
20.1026
20.0916
20.1027
20.106
20.1061
20.1062
20.1063
20.1007
20.1007
20.1008
20.1008
20.0999
20.0999
20.1001
20.1001
20.1026
20.0916
20.1027
20.0916
20.1061
20.106
20.1063
20.1062
20.0565
20.115
20.0565
20.1151
20.064
20.0825
20.0641
20.0826
20.115
20.0566
20.115
20.0566
20.0825
20.0639
20.0825
20.0639
20.0915
20.1024
20.0915
20.1025
20.1057
20.1057
20.1058
20.1059
20.1006
20.1006
20.1006
20.1006
20.0996
20.0996
20.0997
20.0997
20.1024
20.0915
20.1025
20.0915
20.1056
20.1057
20.1058
20.1058
20.0567
20.1149
20.0566
20.115
20.064
20.0824
20.064
20.0825
20.115
20.0569
20.115
20.0567
20.0826
20.064
20.0825
20.064
20.0916
20.1023
20.0915
20.1023
20.1054
20.1053
20.1056
20.1055
20.1006
20.1006
20.1006
20.1006
20.0994
20.0994
20.0995
20.0995
20.1023
20.0916
20.1023
20.0915
20.1053
20.1054
20.1055
20.1055
20.0569
20.115
20.0568
20.1149
20.064
20.0826
20.064
20.0825
20.1153
20.0576
20.1151
20.0572
20.0829
20.0643
20.0827
20.0641
20.0918
20.1024
20.0917
20.1023
20.1053
20.1051
20.1053
20.1052
20.1007
20.1007
20.1006
20.1006
20.0993
20.0993
20.0993
20.0993
20.1024
20.0918
20.1023
20.0917
20.1051
20.1053
20.1052
20.1053
20.0576
20.1152
20.0572
20.1151
20.0643
20.0829
20.0641
20.0827
20.1156
20.0585
20.1154
20.058
20.0834
20.0646
20.0831
20.0644
20.0921
20.1026
20.0919
20.1025
20.1052
20.105
20.1052
20.105
20.101
20.101
20.1009
20.1008
20.0994
20.0994
20.0994
20.0994
20.1026
20.0921
20.1025
20.0919
20.105
20.1052
20.105
20.1052
20.0585
20.1156
20.058
20.1154
20.0647
20.0834
20.0645
20.0831
20.1161
20.0597
20.1158
20.059
20.0842
20.0651
20.0838
20.0649
20.0926
20.1029
20.0923
20.1027
20.1053
20.1051
20.1052
20.105
20.1015
20.1015
20.1012
20.1012
20.0997
20.0997
20.0996
20.0996
20.1029
20.0926
20.1027
20.0923
20.1051
20.1052
20.105
20.1052
20.0597
20.1161
20.059
20.1158
20.0651
20.0842
20.0649
20.0838
20.1168
20.0608
20.1164
20.0605
20.0852
20.0658
20.0847
20.0652
20.0931
20.1034
20.0928
20.1032
20.1054
20.1054
20.1053
20.1052
20.1022
20.1022
20.1018
20.1018
20.1002
20.1002
20.1
20.1
20.1034
20.0931
20.1032
20.0928
20.1053
20.1054
20.1052
20.1053
20.0608
20.1167
20.0605
20.1164
20.0658
20.0852
20.0653
20.0847
20.1176
20.0615
20.1172
20.0611
20.0864
20.067
20.0858
20.0664
20.0939
20.1041
20.0935
20.1038
20.1057
20.1058
20.1055
20.1055
20.103
20.103
20.1026
20.1026
20.1009
20.1009
20.1006
20.1006
20.1041
20.0939
20.1038
20.0935
20.1058
20.1057
20.1055
20.1055
20.0615
20.1176
20.0611
20.1171
20.0671
20.0864
20.0664
20.0858
20.1185
20.0625
20.1181
20.062
20.0878
20.0683
20.0871
20.0677
20.0947
20.105
20.0943
20.1045
20.1061
20.1064
20.1059
20.1061
20.104
20.104
20.1035
20.1035
20.1019
20.1019
20.1014
20.1014
20.105
20.0947
20.1045
20.0943
20.1064
20.1061
20.1061
20.1059
20.0625
20.1185
20.062
20.118
20.0683
20.0878
20.0677
20.0871
20.1194
20.0637
20.119
20.0631
20.0895
20.0695
20.0886
20.0689
20.0957
20.106
20.0952
20.1055
20.1066
20.1072
20.1063
20.1068
20.1052
20.1052
20.1046
20.1046
20.103
20.103
20.1024
20.1024
20.106
20.0957
20.1055
20.0952
20.1072
20.1066
20.1068
20.1063
20.0638
20.1194
20.0631
20.1189
20.0696
20.0895
20.0689
20.0886
20.1202
20.0652
20.1199
20.0644
20.0912
20.0709
20.0903
20.0702
20.0968
20.1071
20.0962
20.1065
20.1072
20.1082
20.1069
20.1077
20.1066
20.1066
20.1059
20.1059
20.1043
20.1043
20.1036
20.1036
20.1071
20.0968
20.1065
20.0962
20.1082
20.1072
20.1077
20.1069
20.0652
20.1202
20.0644
20.1198
20.071
20.0912
20.0702
20.0903
20.1206
20.067
20.1205
20.066
20.0929
20.0725
20.0921
20.0717
20.098
20.1084
20.0974
20.1077
20.108
20.1093
20.1076
20.1087
20.1081
20.1081
20.1073
20.1073
20.1058
20.1058
20.105
20.105
20.1084
20.098
20.1077
20.0974
20.1093
20.108
20.1087
20.1076
20.067
20.1205
20.066
20.1204
20.0725
20.0929
20.0717
20.0921
20.12
20.0695
20.1205
20.0681
20.0943
20.0745
20.0937
20.0734
20.0993
20.1097
20.0987
20.109
20.1089
20.1106
20.1085
20.11
20.1097
20.1097
20.1089
20.1089
20.1074
20.1074
20.1066
20.1066
20.1097
20.0994
20.109
20.0987
20.1106
20.1089
20.11
20.1085
20.0695
20.12
20.0681
20.1204
20.0745
20.0943
20.0735
20.0937
20.1154
20.0754
20.1188
20.0715
20.0931
20.0786
20.0945
20.0759
20.1008
20.1113
20.1
20.1105
20.1099
20.1122
20.1093
20.1114
20.1114
20.1114
20.1105
20.1105
20.1092
20.1092
20.1083
20.1083
20.1113
20.1008
20.1105
20.1
20.1122
20.1099
20.1114
20.1093
20.0754
20.1153
20.0715
20.1188
20.0786
20.0931
20.0759
20.0945
20.1275
20.0647
20.1109
20.0805
20.1022
20.0722
20.0905
20.0825
20.1021
20.1135
20.102
20.1123
20.1113
20.1142
20.1108
20.1131
20.1131
20.1131
20.1122
20.1122
20.1111
20.1111
20.1102
20.1102
20.1135
20.1021
20.1123
20.102
20.1142
20.1113
20.1131
20.1108
20.0647
20.1275
20.0805
20.1109
20.0722
20.1021
20.0825
20.0905
20.1829
20.0444
20.1557
20.0593
20.1749
20.0474
20.1498
20.0623
20.0809
20.0974
20.0888
20.0992
20.0847
20.0985
20.0912
20.0996
20.1002
20.1002
20.1004
20.1004
20.1002
20.1002
20.1002
20.1002
20.0974
20.0809
20.0992
20.0888
20.0985
20.0848
20.0996
20.0912
20.0444
20.1827
20.0594
20.1556
20.0475
20.1748
20.0624
20.1497
20.1591
20.075
20.1666
20.0645
20.156
20.0721
20.162
20.0637
20.0801
20.0926
20.0807
20.095
20.0833
20.0948
20.0841
20.0967
20.0984
20.0984
20.0996
20.0996
20.0989
20.0989
20.0998
20.0998
20.0927
20.0801
20.095
20.0807
20.0948
20.0833
20.0967
20.0841
20.075
20.159
20.0645
20.1665
20.0721
20.156
20.0637
20.1619
20.1528
20.0836
20.1553
20.0805
20.1507
20.0789
20.1529
20.0765
20.0815
20.0906
20.0806
20.0914
20.0843
20.0931
20.0836
20.0937
20.0959
20.096
20.0972
20.0972
20.0971
20.0971
20.098
20.098
20.0906
20.0815
20.0914
20.0806
20.0931
20.0843
20.0937
20.0836
20.0835
20.1527
20.0805
20.1552
20.0789
20.1506
20.0765
20.1528
20.1496
20.0862
20.151
20.0853
20.1476
20.0807
20.149
20.0801
20.0832
20.0901
20.0824
20.0902
20.086
20.0929
20.0852
20.0929
20.0942
20.0942
20.095
20.095
20.0957
20.0957
20.0963
20.0963
20.0901
20.0832
20.0903
20.0824
20.0929
20.086
20.0929
20.0852
20.0862
20.1495
20.0853
20.1509
20.0807
20.1475
20.0801
20.1489
20.1475
20.0866
20.1484
20.0866
20.1453
20.0805
20.1464
20.0807
20.0843
20.0903
20.0838
20.0901
20.0873
20.0933
20.0867
20.0931
20.0934
20.0934
20.0937
20.0937
20.095
20.095
20.0952
20.0952
20.0903
20.0843
20.0901
20.0838
20.0933
20.0873
20.0931
20.0867
20.0866
20.1474
20.0865
20.1484
20.0805
20.1453
20.0807
20.1463
20.1459
20.0861
20.1466
20.0864
20.1435
20.0795
20.1444
20.0801
20.0849
20.0907
20.0847
20.0904
20.0882
20.0942
20.0878
20.0937
20.0933
20.0933
20.0933
20.0933
20.0951
20.0951
20.095
20.095
20.0907
20.0849
20.0904
20.0847
20.0942
20.0882
20.0937
20.0878
20.0861
20.1458
20.0864
20.1466
20.0795
20.1434
20.0801
20.1443
20.1445
20.0852
20.1452
20.0857
20.1419
20.0782
20.1427
20.0789
20.0852
20.0912
20.0851
20.091
20.0886
20.0951
20.0884
20.0946
20.0937
20.0937
20.0935
20.0935
20.0956
20.0956
20.0953
20.0953
20.0912
20.0852
20.091
20.0851
20.0951
20.0886
20.0946
20.0884
20.0852
20.1444
20.0857
20.1451
20.0782
20.1419
20.0789
20.1426
20.1432
20.0842
20.1438
20.0847
20.1405
20.0768
20.1412
20.0775
20.0852
20.0918
20.0852
20.0915
20.0888
20.096
20.0888
20.0955
20.0943
20.0943
20.094
20.094
20.0963
20.0963
20.0959
20.0959
20.0918
20.0852
20.0915
20.0852
20.0959
20.0888
20.0955
20.0888
20.0842
20.1432
20.0847
20.1438
20.0768
20.1404
20.0775
20.1411
20.1421
20.083
20.1427
20.0836
20.1392
20.0753
20.1398
20.076
20.0851
20.0923
20.0852
20.0921
20.0888
20.0967
20.0888
20.0964
20.0951
20.0951
20.0947
20.0947
20.0972
20.0972
20.0968
20.0968
20.0923
20.0851
20.0921
20.0852
20.0967
20.0888
20.0964
20.0888
20.083
20.1421
20.0836
20.1426
20.0753
20.1392
20.076
20.1398
20.1411
20.0819
20.1416
20.0824
20.138
20.0739
20.1386
20.0746
20.0848
20.0928
20.085
20.0926
20.0886
20.0974
20.0887
20.0971
20.0958
20.0958
20.0955
20.0955
20.0981
20.0981
20.0976
20.0976
20.0928
20.0848
20.0926
20.085
20.0974
20.0886
20.0971
20.0887
20.0819
20.141
20.0824
20.1415
20.0739
20.138
20.0746
20.1386
20.1401
20.0807
20.1406
20.0813
20.1369
20.0725
20.1375
20.0732
20.0845
20.0931
20.0846
20.093
20.0883
20.0979
20.0885
20.0977
20.0965
20.0965
20.0962
20.0962
20.0989
20.0988
20.0985
20.0985
20.0931
20.0845
20.093
20.0847
20.0979
20.0883
20.0977
20.0885
20.0807
20.14
20.0813
20.1405
20.0725
20.1369
20.0732
20.1374
20.1392
20.0797
20.1396
20.0802
20.1359
20.0712
20.1364
20.0719
20.0841
20.0934
20.0843
20.0933
20.088
20.0984
20.0882
20.0982
20.0972
20.0972
20.0969
20.0969
20.0995
20.0995
20.0992
20.0992
20.0934
20.0841
20.0933
20.0843
20.0984
20.088
20.0982
20.0882
20.0797
20.1391
20.0802
20.1396
20.0712
20.1359
20.0719
20.1364
20.1383
20.0786
20.1387
20.0791
20.135
20.07
20.1354
20.0706
20.0837
20.0935
20.0839
20.0935
20.0876
20.0986
20.0878
20.0985
20.0976
20.0976
20.0974
20.0974
20.1001
20.1001
20.0998
20.0998
20.0935
20.0837
20.0935
20.0839
20.0986
20.0876
20.0985
20.0878
20.0786
20.1382
20.0791
20.1387
20.07
20.1349
20.0706
20.1354
20.1375
20.0777
20.1379
20.0782
20.134
20.0689
20.1345
20.0695
20.0832
20.0936
20.0835
20.0936
20.0872
20.0988
20.0874
20.0987
20.098
20.098
20.0978
20.0978
20.1005
20.1005
20.1003
20.1003
20.0936
20.0832
20.0936
20.0835
20.0988
20.0872
20.0987
20.0874
20.0777
20.1374
20.0782
20.1378
20.0689
20.134
20.0695
20.1344
20.1367
20.0768
20.1371
20.0772
20.1332
20.0679
20.1336
20.0684
20.0828
20.0936
20.083
20.0936
20.0867
20.0988
20.0869
20.0988
20.0983
20.0983
20.0982
20.0982
20.1008
20.1008
20.1007
20.1007
20.0936
20.0828
20.0936
20.083
20.0988
20.0867
20.0988
20.0869
20.0768
20.1366
20.0772
20.137
20.0679
20.1331