/*--------------------------------*- C++ -*----------------------------------*\
  =========                 |
  \\      /  F ield         | OpenFOAM: The Open Source CFD Toolbox
   \\    /   O peration     | Website:  https://openfoam.org
    \\  /    A nd           | Version:  9
     \\/     M anipulation  |
\*---------------------------------------------------------------------------*/
FoamFile
{
    format      ascii;
    class       surfaceScalarField;
    location    "3.5";
    object      phi;
}
// * * * * * * * * * * * * * * * * * * * * * * * * * * * * * * * * * * * * * //

dimensions      [0 3 -1 0 0 0 0];

internalField   nonuniform List<scalar> 
12376
(
-9.08917e-05
0.00129596
0.000363159
1.65531e-05
0.000588165
-0.000260316
-1.65543e-05
0.000574462
-2.53471e-05
9.08908e-05
0.000588152
-0.000260316
0.00129595
0.000363159
-0.000107235
0.00113758
0.000265617
1.60669e-05
0.000682159
-0.000217297
-1.60698e-05
0.00061518
-8.58109e-06
0.000107233
0.000682146
-0.000217297
0.00113756
0.000265618
-0.00014437
0.00102817
0.000253777
1.55986e-05
0.000746228
-0.000224038
-1.55996e-05
0.000668987
-2.26085e-05
0.000144367
0.000746219
-0.00022404
0.00102815
0.000253777
-0.000174926
0.000956482
0.000246619
1.00155e-05
0.000783598
-0.000222311
-1.00065e-05
0.000719603
-3.05933e-05
0.000174927
0.000783605
-0.000222319
0.000956462
0.000246616
-0.000191776
0.000912937
0.000235321
3.84797e-06
0.00080571
-0.000217736
-3.81099e-06
0.000759233
-3.19711e-05
0.000191784
0.000805773
-0.000217763
0.000912927
0.000235319
-0.000199498
0.000887363
0.000225071
-9.42032e-07
0.000820288
-0.000213134
1.02323e-06
0.000788611
-3.13442e-05
0.000199724
0.000820309
-0.000213236
0.000887551
0.000225099
-0.000201998
0.000873249
0.000216113
-4.30517e-06
0.000831178
-0.000208584
4.18513e-06
0.000810336
-3.02148e-05
0.000202217
0.000831276
-0.000209
0.000873241
0.000216526
-0.000201413
0.000866297
0.000208365
-6.28631e-06
0.000840396
-0.000204344
6.38907e-06
0.000826956
-2.92961e-05
0.000201751
0.000840475
-0.000204561
0.000866456
0.000208536
-0.00019927
0.000864526
0.00020104
-7.62998e-06
0.000848872
-0.000200117
7.57405e-06
0.000840444
-2.86922e-05
0.000199553
0.000848986
-0.000200491
0.000864557
0.000201452
-0.000195514
0.000866008
0.000194033
-8.40625e-06
0.0008575
-0.000195735
8.02582e-06
0.000852364
-2.83515e-05
0.000195894
0.000857775
-0.000196657
0.000865297
0.000195154
-0.000191683
0.000869607
0.000188083
-8.42431e-06
0.000866488
-0.000192246
8.70281e-06
0.000863498
-2.82615e-05
0.000192649
0.000866585
-0.000192756
0.000869345
0.000188601
-0.000187752
0.000875518
0.000181842
-8.50194e-06
0.0008758
-0.000188562
9.05028e-06
0.000874309
-2.83627e-05
0.000188817
0.000875621
-0.000188802
0.00087602
0.000182141
-0.000182815
0.000882734
0.000175599
-8.59376e-06
0.000886015
-0.000184436
8.70915e-06
0.000885489
-2.84824e-05
0.000183358
0.000885786
-0.000184814
0.000883143
0.000176236
-0.000178811
0.000891129
0.000170415
-8.41544e-06
0.000896863
-0.000181243
8.47661e-06
0.000897174
-2.8578e-05
0.000178715
0.000896801
-0.000181253
0.000891143
0.000170714
-0.000174581
0.000900747
0.000164963
-8.27543e-06
0.000908147
-0.000177589
8.36819e-06
0.000909152
-2.86203e-05
0.000174386
0.000908292
-0.000177508
0.000900373
0.000165156
-0.000169571
0.00091053
0.00015979
-8.18179e-06
0.000920369
-0.000173611
7.95042e-06
0.000921652
-2.86327e-05
0.000170438
0.000920304
-0.000174499
0.000910095
0.000160716
-0.000166086
0.000921404
0.000155212
-7.96442e-06
0.000932403
-0.000170156
7.92207e-06
0.000934222
-2.8456e-05
0.000167098
0.000932116
-0.000170988
0.000921287
0.000155907
-0.000162192
0.000932349
0.000151247
-7.5212e-06
0.000944301
-0.000166568
7.77454e-06
0.000946801
-2.78749e-05
0.000162557
0.00094407
-0.000166736
0.000932605
0.000151239
-0.000157267
0.000942452
0.000147164
-7.34591e-06
0.000956326
-0.000161946
7.14194e-06
0.000959295
-2.69805e-05
0.000157459
0.000956342
-0.000162588
0.000942438
0.000147626
-0.00015297
0.00095254
0.000142882
-7.24176e-06
0.000967382
-0.000156783
7.07702e-06
0.000970697
-2.57213e-05
0.000153301
0.000967497
-0.000157379
0.000952466
0.000143274
-0.000148724
0.000961602
0.000139662
-6.9986e-06
0.000977296
-0.00015164
6.71761e-06
0.000980966
-2.3984e-05
0.00014919
0.000977437
-0.000152412
0.000961314
0.000140343
-0.000144151
0.000968286
0.000137468
-6.59941e-06
0.000985955
-0.000146209
6.0685e-06
0.000990097
-2.17989e-05
0.000144772
0.000986214
-0.000147479
0.000967357
0.000138729
-0.000140087
0.00097211
0.000136263
-5.86359e-06
0.000992492
-0.000140761
6.20031e-06
0.000997121
-1.90873e-05
0.000140878
0.00099257
-0.000141034
0.000971949
0.000136286
-0.000136241
0.000973454
0.000134896
-5.55042e-06
0.000996051
-0.000134249
6.10669e-06
0.00100124
-1.5777e-05
0.000137259
0.000995731
-0.000134314
0.000974531
0.000134677
-0.000131441
0.000970827
0.000134067
-5.41072e-06
0.000996815
-0.000126795
5.52175e-06
0.00100221
-1.19055e-05
0.000131931
0.000996257
-0.000126935
0.000972198
0.000134264
-0.000128518
0.000964992
0.000134353
-5.11027e-06
0.000992997
-0.00011959
5.25701e-06
0.00099947
-7.62361e-06
0.000127468
0.000992922
-0.000118875
0.000965619
0.000134046
-0.000124994
0.00095413
0.000135856
-4.57333e-06
0.000984573
-0.000111996
4.87017e-06
0.000992838
-2.81117e-06
0.000123591
0.000984953
-0.000110751
0.000954344
0.000134866
-0.000120201
0.000937105
0.000137225
-4.2196e-06
0.000971581
-0.00010299
4.06149e-06
0.000981595
2.96169e-06
0.000119953
0.000971825
-0.000102764
0.000937387
0.00013691
-0.000116283
0.000914768
0.000138621
-3.88094e-06
0.000952663
-9.34833e-05
3.36443e-06
0.000964044
1.0306e-05
0.000116305
0.000952884
-9.39995e-05
0.000914505
0.000139188
-0.000111488
0.000884642
0.000141614
-3.03676e-06
0.000928321
-8.41094e-05
2.88393e-06
0.000940423
1.77001e-05
0.000111421
0.000928517
-8.41701e-05
0.000884253
0.000141673
-0.000108012
0.000847459
0.000145195
-2.29791e-06
0.000897457
-7.48489e-05
2.32014e-06
0.000910741
2.50646e-05
0.00010853
0.000897327
-7.50196e-05
0.000847668
0.000145116
-0.000104954
0.000803429
0.000148984
-1.78518e-06
0.000859481
-6.51931e-05
1.59648e-06
0.000874841
3.25192e-05
0.000105077
0.00085941
-6.55631e-05
0.000803191
0.000149554
-0.000100713
0.00075074
0.000153402
-1.04512e-06
0.000815141
-5.53267e-05
1.01112e-06
0.000832645
4.01397e-05
0.000100714
0.000815102
-5.5395e-05
0.000750321
0.000153585
-9.69382e-05
0.000689834
0.000157845
-2.6864e-07
0.000764067
-4.55952e-05
4.45095e-07
0.000784095
4.78361e-05
9.70683e-05
0.000763917
-4.54384e-05
0.000689716
0.000157674
-9.30597e-05
0.000621051
0.000161843
3.41033e-07
0.000706408
-3.57417e-05
-2.92508e-07
0.000729201
5.55289e-05
9.29824e-05
0.000706368
-3.5726e-05
0.00062084
0.000161858
-8.87168e-05
0.000544304
0.000165464
9.67844e-07
0.00064298
-2.62558e-05
-9.58654e-07
0.000668052
6.30755e-05
8.874e-05
0.000642927
-2.62569e-05
0.000544136
0.000165444
-8.43318e-05
0.000460312
0.000168325
1.54974e-06
0.000574545
-1.74465e-05
-1.54151e-06
0.000600789
7.0354e-05
8.43455e-05
0.000574494
-1.74539e-05
0.000460183
0.000168299
-7.98772e-05
0.000370611
0.000169578
1.98253e-06
0.000502082
-9.39659e-06
-1.97554e-06
0.000527209
7.75385e-05
7.98854e-05
0.000502038
-9.40448e-06
0.000370516
0.000169553
-7.51774e-05
0.000166906
0.000278883
2.10757e-06
-4.4825e-07
0.000425246
-2.10236e-06
8.5059e-05
0.000446361
7.51825e-05
-4.57033e-07
0.000425211
0.000166886
0.000278813
0.000107133
0.00114472
0.000304342
-1.75346e-05
0.00072111
-0.000188049
1.75338e-05
0.000753983
-7.62032e-05
-0.000107133
0.000721097
-0.000188048
0.0011447
0.000304345
0.000119052
0.0010254
0.00026588
-1.4256e-05
0.000812176
-0.000175055
1.42539e-05
0.000782534
-6.56417e-05
-0.000119053
0.000812164
-0.000175056
0.00102538
0.000265881
6.6406e-05
0.000962185
0.000250589
-1.13384e-05
0.000844569
-0.000178686
1.13365e-05
0.000811631
-7.43806e-05
-6.64082e-05
0.000844558
-0.000178689
0.000962164
0.000250587
4.00179e-05
0.000930771
0.000238016
-1.45309e-05
0.000857461
-0.000180654
1.45327e-05
0.000833249
-8.12748e-05
-4.002e-05
0.000857454
-0.000180663
0.000930753
0.000238007
2.72334e-05
0.000912458
0.0002264
-1.79588e-05
0.000865053
-0.000180136
1.79702e-05
0.000848864
-8.35151e-05
-2.72326e-05
0.000865054
-0.00018016
0.000912457
0.000226382
1.97893e-05
0.000902058
0.000215682
-2.04581e-05
0.000870786
-0.000178621
2.04809e-05
0.000860468
-8.38868e-05
-1.97734e-05
0.000870784
-0.000178711
0.000902059
0.000215725
1.52221e-05
0.00089706
0.000205889
-2.22329e-05
0.000876096
-0.000176438
2.22493e-05
0.0008695
-8.3729e-05
-1.5185e-05
0.000876111
-0.000176892
0.000897064
0.000206336
1.24121e-05
0.000895769
0.000197243
-2.3083e-05
0.00088153
-0.000174283
2.31198e-05
0.000877348
-8.33471e-05
-1.23735e-05
0.000881538
-0.000174495
0.000895759
0.000197467
1.06461e-05
0.000897068
0.000189095
-2.34002e-05
0.000887375
-0.000171915
2.34303e-05
0.000884766
-8.29414e-05
-1.05988e-05
0.00088739
-0.000172315
0.00089706
0.000189551
9.49831e-06
0.000900389
0.000181214
-2.33614e-05
0.000893817
-0.000169317
2.33767e-05
0.000892245
-8.25688e-05
-9.45257e-06
0.000893881
-0.000170318
0.000900414
0.000182347
8.69044e-06
0.000905259
0.000174522
-2.30807e-05
0.000900913
-0.000167572
2.31605e-05
0.000900007
-8.22639e-05
-8.64723e-06
0.000900944
-0.000168012
0.000905261
0.000175107
8.14156e-06
0.000911287
0.000167672
-2.27006e-05
0.000908611
-0.000165417
2.28023e-05
0.000908147
-8.20058e-05
-8.10373e-06
0.000908577
-0.000165529
0.000911276
0.000168022
7.7601e-06
0.00091838
0.000160746
-2.22501e-05
0.000916951
-0.000162766
2.22977e-05
0.000916789
-8.1672e-05
-7.7246e-06
0.000916916
-0.00016313
0.000918327
0.00016146
7.39299e-06
0.000926221
0.000155182
-2.17646e-05
0.000925839
-0.000160973
2.1792e-05
0.000925903
-8.12491e-05
-7.39381e-06
0.000925822
-0.000160973
0.000926196
0.000155452
7.09955e-06
0.000934584
0.0001495
-2.12365e-05
0.000935093
-0.000158508
2.12677e-05
0.000935336
-8.05565e-05
-7.10108e-06
0.000935088
-0.000158405
0.000934674
0.000149577
6.88975e-06
0.000943398
0.000144086
-2.06963e-05
0.000944604
-0.000155536
2.07227e-05
0.000944956
-7.96723e-05
-6.79974e-06
0.000944587
-0.000156476
0.000943412
0.000145178
6.62558e-06
0.000952148
0.000139837
-2.01578e-05
0.000954047
-0.000152815
2.02003e-05
0.000954501
-7.83583e-05
-6.51941e-06
0.000954004
-0.000153685
0.000952046
0.000140753
6.37243e-06
0.000960579
0.000136443
-1.95975e-05
0.000963207
-0.000149757
1.96538e-05
0.000963768
-7.63935e-05
-6.32832e-06
0.000963151
-0.000149901
0.000960508
0.00013645
6.2144e-06
0.000968534
0.000132995
-1.90452e-05
0.000971818
-0.000145297
1.90708e-05
0.000972472
-7.38003e-05
-6.18087e-06
0.000971803
-0.000145988
0.000968516
0.000133438
6.03667e-06
0.000975432
0.000129947
-1.85087e-05
0.000979396
-0.000139816
1.85209e-05
0.000980139
-7.04179e-05
-6.00921e-06
0.000979399
-0.000140445
0.000975474
0.000130306
5.83097e-06
0.00098092
0.000128343
-1.79869e-05
0.000985609
-0.000134034
1.79693e-05
0.000986463
-6.62644e-05
-5.78856e-06
0.00098564
-0.000134895
0.000980972
0.000129056
5.60156e-06
0.000984589
0.000128198
-1.74468e-05
0.000990124
-0.000127676
1.74156e-05
0.000991101
-6.12992e-05
-5.55819e-06
0.000990227
-0.000129092
0.000984592
0.00012955
5.34982e-06
0.000985818
0.000129684
-1.68786e-05
0.000992455
-0.000120863
1.69196e-05
0.00099352
-5.53038e-05
-5.36063e-06
0.000992507
-0.000121033
0.000985862
0.000129656
5.14767e-06
0.000984157
0.00013141
-1.63424e-05
0.000992025
-0.000112329
1.63949e-05
0.000993205
-4.81999e-05
-5.17017e-06
0.000991989
-0.000112231
0.000984175
0.000131194
5.01456e-06
0.000979359
0.00013385
-1.58183e-05
0.000988415
-0.000102352
1.58078e-05
0.000989713
-4.00398e-05
-5.04222e-06
0.000988372
-0.000102468
0.000979309
0.000134088
4.79082e-06
0.0009706
0.000138322
-1.52867e-05
0.000981074
-9.21719e-05
1.52393e-05
0.000982457
-3.08929e-05
-4.89248e-06
0.000981099
-9.14711e-05
0.000970635
0.000137827
4.5875e-06
0.000957478
0.000144391
-1.47712e-05
0.000969728
-8.12915e-05
1.47453e-05
0.000970974
-2.08446e-05
-4.70491e-06
0.000969754
-7.99554e-05
0.000957718
0.000143078
4.4796e-06
0.000939839
0.000150384
-1.44319e-05
0.000954083
-6.84331e-05
1.43947e-05
0.000955176
-1.00671e-05
-4.49262e-06
0.000954095
-6.82181e-05
0.000939971
0.000150165
4.39163e-06
0.000917161
0.000156908
-1.42656e-05
0.000933791
-5.4534e-05
1.42075e-05
0.000935894
1.11466e-06
-4.34619e-06
0.000933862
-5.5212e-05
0.000917111
0.000157702
4.34675e-06
0.000889312
0.000165117
-1.37305e-05
0.000908666
-4.09073e-05
1.37219e-05
0.00091122
1.49224e-05
-4.30561e-06
0.000908696
-4.09771e-05
0.000889338
0.00016514
4.26848e-06
0.00085586
0.000174378
-1.31983e-05
0.000878467
-2.71827e-05
1.32122e-05
0.000881624
2.82504e-05
-4.20987e-06
0.00087843
-2.73313e-05
0.000855758
0.000174486
4.24733e-06
0.000816713
0.000183884
-1.26706e-05
0.000843135
-1.29432e-05
1.26633e-05
0.000847084
4.17254e-05
-4.20541e-06
0.000843141
-1.34054e-05
0.00081664
0.000184467
4.32707e-06
0.000772116
0.000193673
-1.20977e-05
0.000802897
1.33632e-06
1.21067e-05
0.000807713
5.5306e-05
-4.29582e-06
0.0008029
1.24925e-06
0.0007721
0.000193829
4.45737e-06
0.000722102
0.000203401
-1.1508e-05
0.000757965
1.5302e-05
1.15309e-05
0.000763748
6.87627e-05
-4.44385e-06
0.000757941
1.54954e-05
0.000722088
0.000203242
4.67806e-06
0.000667076
0.000212191
-1.09213e-05
0.000708682
2.91415e-05
1.09356e-05
0.000715533
8.18872e-05
-4.67067e-06
0.000708664
2.91572e-05
0.000667077
0.000212199
4.97157e-06
0.000607628
0.000219941
-1.03353e-05
0.000655516
4.22175e-05
1.03446e-05
0.000663515
9.44128e-05
-4.9639e-06
0.000655501
4.22148e-05
0.00060762
0.000219937
5.27071e-06
0.000544566
0.000226116
-9.76392e-06
0.000598924
5.41795e-05
9.77082e-06
0.000608217
0.000106118
-5.26474e-06
0.00059891
5.41726e-05
0.000544552
0.000226102
5.59204e-06
0.000478789
0.000229763
-9.24557e-06
0.000539412
6.49537e-05
9.25067e-06
0.000550275
0.000116984
-5.58798e-06
0.000539399
6.49453e-05
0.000478772
0.000229746
6.13061e-06
0.000229379
0.000410185
-8.82005e-06
7.5033e-05
0.000478881
8.82391e-06
0.000127037
0.000490653
-6.1281e-06
7.50244e-05
0.00047887
0.000229362
0.000410168
0.000129062
0.00106471
0.000203005
3.97317e-07
0.000761206
-0.000103634
-3.98062e-07
0.000806669
-7.39961e-05
-0.000129062
0.000761194
-0.000103633
0.00106469
0.000203009
0.000161244
0.00098372
0.000185629
8.08383e-06
0.000838191
-9.88801e-05
-8.08623e-06
0.000826634
-6.94364e-05
-0.000161245
0.000838177
-9.88803e-05
0.000983697
0.000185632
0.000115441
0.000944534
0.000174334
1.07186e-05
0.000866293
-0.000102066
-1.0722e-05
0.00084917
-7.54764e-05
-0.000115444
0.000866277
-0.000102067
0.000944505
0.000174335
9.35849e-05
0.000925412
0.000163552
7.74093e-06
0.000876952
-0.000105469
-7.74382e-06
0.000864749
-8.13686e-05
-9.35907e-05
0.000876935
-0.000105474
0.00092537
0.000163551
8.33634e-05
0.000915088
0.00015336
4.79128e-06
0.000883007
-0.000107618
-4.79005e-06
0.000875237
-8.44217e-05
-8.33791e-05
0.000882993
-0.000107629
0.000915011
0.000153361
7.6982e-05
0.000909831
0.000143958
2.71742e-06
0.000887613
-0.000108962
-2.7005e-06
0.000882838
-8.60703e-05
-7.7043e-05
0.000887618
-0.000108994
0.000909695
0.000143998
7.24008e-05
0.000907837
0.000135481
1.43059e-06
0.000891955
-0.000109811
-1.34861e-06
0.000889023
-8.71347e-05
-7.2643e-05
0.000891916
-0.000109896
0.000907765
0.000135622
6.90502e-05
0.000908222
0.000127808
5.88638e-07
0.000896496
-0.000110363
-5.49645e-07
0.000894722
-8.79082e-05
-6.91769e-05
0.000896482
-0.000110434
0.000908093
0.000127963
6.62741e-05
0.000910333
0.000120711
9.20408e-08
0.000901494
-0.000110731
-1.31928e-08
0.00090045
-8.85639e-05
-6.65464e-05
0.000901521
-0.00011082
0.000910156
0.000120942
6.38158e-05
0.000913707
0.000114024
-1.79552e-07
0.000907114
-0.000110941
3.61917e-07
0.000906477
-8.91368e-05
-6.43946e-05
0.000907057
-0.000111097
0.000913719
0.000114389
6.20585e-05
0.000918351
0.00010782
-4.56912e-07
0.000913202
-0.000111144
5.37931e-07
0.000912882
-8.96646e-05
-6.23337e-05
0.000913158
-0.000111242
0.000918352
0.00010814
6.02583e-05
0.000923851
0.000101914
-6.03866e-07
0.000919849
-0.000111202
6.28507e-07
0.000919749
-9.01047e-05
-6.03642e-05
0.000919872
-0.00011125
0.000923784
0.000102227
5.83716e-05
0.000929908
9.63173e-05
-6.47774e-07
0.0009271
-0.000110998
7.01694e-07
0.000927068
-9.03409e-05
-5.85497e-05
0.000927063
-0.00011107
0.000929998
9.66958e-05
5.70191e-05
0.000936699
9.13718e-05
-7.60134e-07
0.000934612
-0.000110705
7.56383e-07
0.000934698
-9.03952e-05
-5.70498e-05
0.000934619
-0.000110722
0.000936759
9.16415e-05
5.5544e-05
0.000943819
8.68355e-05
-7.99799e-07
0.000942372
-0.000109924
7.96254e-07
0.000942563
-9.00179e-05
-5.55888e-05
0.000942534
-0.000109935
0.000943695
8.70518e-05
5.40224e-05
0.000950948
8.29352e-05
-7.53687e-07
0.000950266
-0.000108654
9.25142e-07
0.000950413
-8.92007e-05
-5.45073e-05
0.000950312
-0.000108822
0.000951057
8.33093e-05
5.28454e-05
0.000958037
7.99025e-05
-8.0725e-07
0.000957931
-0.000106828
9.62822e-07
0.000958026
-8.77414e-05
-5.32634e-05
0.000957868
-0.000107015
0.000958326
8.02209e-05
5.17656e-05
0.000964937
7.77769e-05
-9.07228e-07
0.000965058
-0.000104211
9.51213e-07
0.000965211
-8.54367e-05
-5.19014e-05
0.000965122
-0.000104302
0.000965006
7.78679e-05
5.03028e-05
0.000971065
7.65642e-05
-8.85391e-07
0.00097155
-0.000100601
1.01958e-06
0.000971711
-8.22055e-05
-5.06997e-05
0.000971574
-0.000100721
0.000971125
7.66188e-05
4.86849e-05
0.000975928
7.63988e-05
-8.57285e-07
0.000977141
-9.58648e-05
9.89247e-07
0.000977301
-7.78549e-05
-4.91196e-05
0.000977218
-9.5981e-05
0.000975869
7.64436e-05
4.73583e-05
0.000979307
7.76058e-05
-8.68209e-07
0.000981376
-9.00427e-05
1.03247e-06
0.000981517
-7.23812e-05
-4.79022e-05
0.000981463
-9.0205e-05
0.000979267
7.77552e-05
4.62213e-05
0.000980944
8.03393e-05
-8.88962e-07
0.000983841
-8.30307e-05
1.12481e-06
0.000983877
-6.56724e-05
-4.69382e-05
0.000983672
-8.32383e-05
0.000981316
8.05634e-05
4.52936e-05
0.000980717
8.46174e-05
-1.00652e-06
0.000983997
-7.47191e-05
1.04588e-06
0.000984096
-5.75759e-05
-4.54868e-05
0.000983932
-7.47603e-05
0.000980881
8.46042e-05
4.41092e-05
0.000977788
9.02288e-05
-1.03859e-06
0.000981725
-6.49098e-05
1.01268e-06
0.000981881
-4.80355e-05
-4.41226e-05
0.000981718
-6.48814e-05
0.000977789
9.01631e-05
4.27618e-05
0.000971591
9.72858e-05
-1.00284e-06
0.00097679
-5.36522e-05
9.88193e-07
0.000976917
-3.70678e-05
-4.28072e-05
0.000976657
-5.36116e-05
0.000971783
9.72869e-05
4.1813e-05
0.000962121
0.000105979
-1.06136e-06
0.000968607
-4.11142e-05
8.94561e-07
0.000968806
-2.47373e-05
-4.14585e-05
0.000968513
-4.09738e-05
0.000962278
0.000105875
4.09538e-05
0.000949369
0.00011619
-1.07207e-06
0.000956667
-2.73266e-05
8.34788e-07
0.000957134
-1.10799e-05
-4.03859e-05
0.000956898
-2.71202e-05
0.000949019
0.000115951
3.97288e-05
0.000932508
0.000127516
-8.87138e-07
0.000941019
-1.21685e-05
8.36157e-07
0.000941419
3.92465e-06
-3.95921e-05
0.000941233
-1.21249e-05
0.000932128
0.000127463
3.84539e-05
0.000911089
0.000139873
-7.75061e-07
0.000921473
4.24111e-06
8.66134e-07
0.00092157
1.9323e-05
-3.8662e-05
0.000921384
4.16526e-06
0.000911152
0.000140017
3.73978e-05
0.000885495
0.000153313
-8.9817e-07
0.000898206
2.06553e-05
9.39383e-07
0.000898586
3.60684e-05
-3.74862e-05
0.000898215
2.0618e-05
0.000885439
0.000153367
3.6678e-05
0.00085572
0.000167475
-9.80482e-07
0.000870799
3.78832e-05
1.02404e-06
0.000871552
5.32804e-05
-3.6766e-05
0.000870832
3.78411e-05
0.000855612
0.000167547
3.59855e-05
0.000821655
0.000181964
-9.73868e-07
0.000839453
5.5362e-05
1.05465e-06
0.000840542
7.07061e-05
-3.61769e-05
0.000839359
5.52993e-05
0.000821797
0.000182105
3.53482e-05
0.000783544
0.000196435
-9.46443e-07
0.000804348
7.27365e-05
9.79039e-07
0.000805848
8.80745e-05
-3.54221e-05
0.000804283
7.27264e-05
0.000783693
0.000196511
3.48195e-05
0.000741703
0.000210423
-9.12298e-07
0.000765739
8.96424e-05
8.92497e-07
0.000767774
0.000105032
-3.47604e-05
0.000765767
8.9665e-05
0.000741734
0.000210441
3.42242e-05
0.000696267
0.000223404
-8.12364e-07
0.000724193
0.000105724
8.10485e-07
0.000726812
0.000121227
-3.42056e-05
0.000724208
0.000105732
0.000696308
0.000223419
3.36283e-05
0.00064769
0.00023489
-6.78194e-07
0.000680176
0.00012054
6.81368e-07
0.000683571
0.000136294
-3.36232e-05
0.000680187
0.000120541
0.000647725
0.000234896
3.30152e-05
0.000596521
0.00024427
-4.97742e-07
0.000634189
0.00013368
5.00824e-07
0.000638792
0.000149899
-3.30123e-05
0.000634195
0.000133677
0.000596547
0.000244268
3.25863e-05
0.000542933
0.000250765
-3.10686e-07
0.000587162
0.000144878
3.13438e-07
0.000593342
0.000161809
-3.25847e-05
0.000587166
0.000144873
0.000542951
0.000250757
3.28786e-05
0.000253221
0.000486213
-4.38262e-07
0.000154123
0.000541389
4.40514e-07
0.000171789
0.000547711
-3.28777e-05
0.000154117
0.000541391
0.000253211
0.000486224
0.000103311
0.00103952
0.000134273
1.01093e-05
0.000775702
-5.8451e-05
-1.01102e-05
0.000818324
-5.53625e-05
-0.000103312
0.00077569
-5.84497e-05
0.0010395
0.000134278
0.000132571
0.000969269
0.000123307
1.85138e-05
0.000846768
-5.5889e-05
-1.8516e-05
0.000839452
-5.35346e-05
-0.000132573
0.000846755
-5.58878e-05
0.000969246
0.000123312
8.99362e-05
0.000938719
0.000114948
1.91415e-05
0.00087372
-5.82227e-05
-1.91456e-05
0.000861376
-5.91128e-05
-8.99396e-05
0.000873703
-5.82214e-05
0.000938689
0.000114953
7.07652e-05
0.000925038
0.000106468
1.60914e-05
0.000884748
-6.18241e-05
-1.60965e-05
0.000876388
-6.41926e-05
-7.07711e-05
0.000884727
-6.18229e-05
0.000924994
0.000106475
6.22236e-05
0.00091817
9.80047e-05
1.32632e-05
0.000891198
-6.51079e-05
-1.32678e-05
0.00088614
-6.76426e-05
-6.22358e-05
0.000891173
-6.51072e-05
0.000918103
9.8017e-05
5.71087e-05
0.000915038
8.99803e-05
1.13407e-05
0.000895993
-6.79883e-05
-1.13425e-05
0.000893005
-7.02525e-05
-5.7139e-05
0.000895964
-6.79892e-05
0.000914948
9.00134e-05
5.36219e-05
0.000914287
8.2611e-05
1.0085e-05
0.000900259
-7.05405e-05
-1.00786e-05
0.000898498
-7.24639e-05
-5.36914e-05
0.000900223
-7.05422e-05
0.0009142
8.26787e-05
5.10568e-05
0.000915218
7.58197e-05
9.23425e-06
0.000904538
-7.28197e-05
-9.23099e-06
0.000903497
-7.44419e-05
-5.11267e-05
0.000904503
-7.28188e-05
0.000915119
7.59169e-05
4.90061e-05
0.00091742
6.95027e-05
8.63034e-06
0.000909091
-7.49075e-05
-8.62582e-06
0.000908478
-7.62893e-05
-4.91055e-05
0.000909064
-7.49014e-05
0.000917319
6.96359e-05
4.72452e-05
0.000920631
6.35677e-05
8.17441e-06
0.000914037
-7.68164e-05
-8.16022e-06
0.000913686
-7.80096e-05
-4.73934e-05
0.000914007
-7.68075e-05
0.000920576
6.3739e-05
4.57451e-05
0.00092471
5.79957e-05
7.79838e-06
0.000919396
-7.85561e-05
-7.79151e-06
0.000919214
-7.96035e-05
-4.58594e-05
0.000919374
-7.85413e-05
0.000924673
5.81831e-05
4.43664e-05
0.00092946
5.27973e-05
7.48196e-06
0.000925172
-8.0094e-05
-7.47881e-06
0.000925096
-8.10256e-05
-4.44558e-05
0.000925171
-8.00694e-05
0.000929442
5.3002e-05
4.30404e-05
0.000934724
4.8013e-05
7.20206e-06
0.000931316
-8.13044e-05
-7.19454e-06
0.000931295
-8.2143e-05
-4.31375e-05
0.000931322
-8.12782e-05
0.00093477
4.82303e-05
4.18685e-05
0.000940421
4.38062e-05
6.94635e-06
0.000937704
-8.21707e-05
-6.94524e-06
0.000937725
-8.29341e-05
-4.19361e-05
0.000937732
-8.21415e-05
0.000940479
4.39958e-05
4.07032e-05
0.000946342
4.02109e-05
6.70889e-06
0.00094422
-8.24462e-05
-6.70784e-06
0.000944272
-8.31486e-05
-4.07697e-05
0.000944282
-8.24233e-05
0.000946384
4.03778e-05
3.95854e-05
0.000952275
3.74173e-05
6.49708e-06
0.000950709
-8.2055e-05
-6.47545e-06
0.000950754
-8.27105e-05
-3.9722e-05
0.000950762
-8.20554e-05
0.000952387
3.75838e-05
3.85459e-05
0.000958047
3.55846e-05
6.28343e-06
0.00095696
-8.08161e-05
-6.26286e-06
0.000956981
-8.14217e-05
-3.86778e-05
0.000956994
-8.08322e-05
0.000958215
3.5715e-05
3.75315e-05
0.000963434
3.48576e-05
6.06681e-06
0.000962747
-7.85334e-05
-6.06224e-06
0.000962753
-7.90802e-05
-3.76088e-05
0.000962787
-7.85491e-05
0.000963556
3.4918e-05
3.64925e-05
0.000968108
3.53979e-05
5.86798e-06
0.000967846
-7.50759e-05
-5.86067e-06
0.000967837
-7.55603e-05
-3.65821e-05
0.000967879
-7.5091e-05
0.000968182
3.54108e-05
3.5436e-05
0.000971733
3.73371e-05
5.66816e-06
0.000971991
-7.02426e-05
-5.66402e-06
0.000971973
-7.06591e-05
-3.55319e-05
0.000972026
-7.02602e-05
0.000971754
3.73392e-05
3.44498e-05
0.000974025
4.08642e-05
5.47523e-06
0.000974871
-6.39479e-05
-5.46881e-06
0.000974837
-6.43007e-05
-3.45709e-05
0.000974895
-6.39717e-05
0.000974053
4.08856e-05
3.35309e-05
0.00097472
4.61138e-05
5.28917e-06
0.000976153
-5.60712e-05
-5.27777e-06
0.000976087
-5.63558e-05
-3.36651e-05
0.000976137
-5.60933e-05
0.000974815
4.61365e-05
3.26602e-05
0.000973536
5.31412e-05
5.09701e-06
0.000975511
-4.65139e-05
-5.108e-06
0.000975434
-4.67185e-05
-3.27103e-05
0.000975499
-4.65199e-05
0.000973581
5.31274e-05
3.17714e-05
0.000970046
6.19468e-05
4.9183e-06
0.000972679
-3.52244e-05
-4.93821e-06
0.0009726
-3.53449e-05
-3.17758e-05
0.000972671
-3.52156e-05
0.000970046
6.19232e-05
3.08869e-05
0.000963897
7.25477e-05
4.75281e-06
0.000967379
-2.22183e-05
-4.77208e-06
0.000967305
-2.2248e-05
-3.08744e-05
0.000967359
-2.21978e-05
0.000963922
7.25362e-05
3.00747e-05
0.000954887
8.49149e-05
4.58462e-06
0.000959313
-7.5586e-06
-4.61795e-06
0.00095926
-7.48921e-06
-3.00059e-05
0.000959304
-7.53084e-06
0.000954894
8.48967e-05
2.93024e-05
0.000942835
9.89396e-05
4.42108e-06
0.000948228
8.63976e-06
-4.45683e-06
0.000948253
8.80414e-06
-2.92047e-05
0.000948263
8.66851e-06
0.000942735
9.89049e-05
2.84955e-05
0.000927448
0.000114407
4.2933e-06
0.000934031
2.6231e-05
-4.30474e-06
0.000934294
2.64824e-05
-2.84636e-05
0.000934057
2.62399e-05
0.000927335
0.0001144
2.77165e-05
0.000908525
0.000131078
4.25701e-06
0.000916757
4.49745e-05
-4.25132e-06
0.00091686
4.5265e-05
-2.77433e-05
0.000916749
4.49656e-05
0.000908498
0.00013111
2.71311e-05
0.000885992
0.000148715
4.1177e-06
0.000895913
6.45131e-05
-4.10946e-06
0.000896205
6.49505e-05
-2.71528e-05
0.000895906
6.4504e-05
0.000885965
0.000148747
2.66019e-05
0.0008599
0.000166965
4.00962e-06
0.000871791
8.45972e-05
-4.00031e-06
0.000872313
8.51822e-05
-2.66282e-05
0.000871786
8.45892e-05
0.00085988
0.000167004
2.61229e-05
0.000830318
0.000185423
3.93541e-06
0.000844505
0.000104835
-3.92387e-06
0.000845301
0.000105577
-2.61592e-05
0.00084449
0.000104831
0.000830353
0.000185473
2.57092e-05
0.0007974
0.000203644
3.88484e-06
0.000814258
0.000124808
-3.87865e-06
0.000815403
0.000125736
-2.57266e-05
0.000814253
0.000124811
0.000797452
0.000203685
2.53643e-05
0.000761347
0.000221112
3.85883e-06
0.000781344
0.000144062
-3.859e-06
0.000782936
0.000145217
-2.53639e-05
0.000781355
0.000144068
0.000761389
0.00022114
2.50781e-05
0.000722367
0.000237305
3.86757e-06
0.000746145
0.000162133
-3.86706e-06
0.00074832
0.000163579
-2.50779e-05
0.00074616
0.000162138
0.000722407
0.000237323
2.48471e-05
0.000680739
0.000251671
3.91724e-06
0.000709069
0.000178546
-3.91635e-06
0.000712066
0.000180382
-2.48472e-05
0.000709083
0.000178548
0.000680776
0.000251681
2.46374e-05
0.000636773
0.000263598
4.02663e-06
0.000670523
0.000192838
-4.02565e-06
0.000674808
0.000195208
-2.46374e-05
0.000670535
0.000192838
0.000636804
0.000263601
2.46678e-05
0.000590445
0.000272425
4.17441e-06
0.000631247
0.000204647
-4.17334e-06
0.000637219
0.000207746
-2.46677e-05
0.000631258
0.000204645
0.000590469
0.000272425
2.55518e-05
0.000277331
0.000540782
4.06342e-06
0.000213741
0.000593117
-4.06238e-06
0.000217695
0.000599439
-2.55516e-05
0.000213739
0.000593125
0.000277328
0.000540801
8.44233e-05
0.00103188
8.95043e-05
1.17685e-05
0.000784334
-3.50933e-05
-1.17694e-05
0.00082058
-3.81662e-05
-8.44239e-05
0.000784323
-3.50913e-05
0.00103186
8.95099e-05
0.000108717
0.000964914
8.15526e-05
1.9182e-05
0.000851867
-3.38875e-05
-1.91846e-05
0.000843491
-3.80783e-05
-0.000108719
0.000851855
-3.38853e-05
0.000964893
8.15584e-05
6.77133e-05
0.00093729
7.48584e-05
1.98753e-05
0.000877601
-3.61186e-05
-1.98801e-05
0.000866383
-4.225e-05
-6.77167e-05
0.000877586
-3.61155e-05
0.000937264
7.48658e-05
4.99402e-05
0.000925825
6.79941e-05
1.64723e-05
0.000888823
-3.95784e-05
-1.64786e-05
0.000881688
-4.65463e-05
-4.99456e-05
0.000888804
-3.95739e-05
0.000925788
6.80046e-05
4.23673e-05
0.000920523
6.09391e-05
1.36205e-05
0.000895626
-4.31638e-05
-1.36281e-05
0.000891518
-5.02238e-05
-4.23759e-05
0.000895601
-4.31571e-05
0.000920474
6.09558e-05
3.80794e-05
0.000918379
5.40451e-05
1.17528e-05
0.000900637
-4.66722e-05
-1.17614e-05
0.000898315
-5.3535e-05
-3.80945e-05
0.000900607
-4.66617e-05
0.000918318
5.40749e-05
3.53197e-05
0.000918143
4.75263e-05
1.05469e-05
0.000904915
-5.00466e-05
-1.05562e-05
0.000903597
-5.66436e-05
-3.53436e-05
0.000904883
-5.00309e-05
0.000918077
4.75754e-05
3.33808e-05
0.000919202
4.13798e-05
9.74003e-06
0.000909001
-5.32641e-05
-9.74952e-06
0.000908242
-5.95976e-05
-3.34112e-05
0.000908967
-5.32414e-05
0.000919134
4.14487e-05
3.18989e-05
0.000921234
3.55722e-05
9.1647e-06
0.000913166
-5.63388e-05
-9.17568e-06
0.000912729
-6.24351e-05
-3.19369e-05
0.000913135
-5.63088e-05
0.00092117
3.56629e-05
3.06744e-05
0.000924051
3.00757e-05
8.72275e-06
0.000917546
-5.92452e-05
-8.73397e-06
0.000917304
-6.51289e-05
-3.07196e-05
0.000917523
-5.9209e-05
0.000924002
3.01872e-05
2.96259e-05
0.000927517
2.4904e-05
8.36329e-06
0.000922204
-6.19509e-05
-8.37169e-06
0.000922083
-6.76467e-05
-2.96705e-05
0.000922189
-6.19086e-05
0.000927485
2.50297e-05
2.86978e-05
0.000931504
2.01121e-05
8.05489e-06
0.00092715
-6.4397e-05
-8.06111e-06
0.0009271
-6.99267e-05
-2.87399e-05
0.000927147
-6.43494e-05
0.000931497
2.02498e-05
2.78293e-05
0.000935905
1.57833e-05
7.77524e-06
0.00093234
-6.64411e-05
-7.78038e-06
0.000932332
-7.18201e-05
-2.78712e-05
0.000932352
-6.63921e-05
0.000935932
1.5925e-05
2.7037e-05
0.000940609
1.20654e-05
7.52636e-06
0.000937702
-6.80215e-05
-7.53223e-06
0.000937722
-7.32652e-05
-2.70744e-05
0.000937727
-6.79749e-05
0.000940658
1.21954e-05
2.62684e-05
0.00094547
9.0809e-06
7.28838e-06
0.000943127
-6.88921e-05
-7.2954e-06
0.000943166
-7.40088e-05
-2.63052e-05
0.000943166
-6.88521e-05
0.000945534
9.1957e-06
2.55443e-05
0.000950328
7.01544e-06
7.06615e-06
0.000948486
-6.89356e-05
-7.07311e-06
0.00094853