/*--------------------------------*- C++ -*----------------------------------*\
  =========                 |
  \\      /  F ield         | OpenFOAM: The Open Source CFD Toolbox
   \\    /   O peration     | Website:  https://openfoam.org
    \\  /    A nd           | Version:  9
     \\/     M anipulation  |
\*---------------------------------------------------------------------------*/
FoamFile
{
    format      ascii;
    class       volScalarField;
    location    "4.95";
    object      epsilon;
}
// * * * * * * * * * * * * * * * * * * * * * * * * * * * * * * * * * * * * * //

dimensions      [0 2 -3 0 0 0 0];

internalField   nonuniform List<scalar> 
36360
(
1.03159
0.882547
0.723377
0.6407
1.17235
1.02803
0.550668
0.618155
0.57804
0.420878
0.390119
0.266526
0.713342
0.545454
0.368632
0.254217
0.354906
0.354681
0.216992
0.216802
0.478477
0.478145
0.214574
0.214374
0.420189
0.576888
0.265926
0.389064
0.544376
0.711316
0.253516
0.367155
0.881073
1.03016
0.639286
0.72198
1.02482
1.16816
0.615532
0.547775
1.4808
1.28763
1.27323
1.09545
2.00016
1.74453
1.61399
1.3935
0.928791
0.737441
0.757432
0.579484
1.34205
1.12011
1.02836
0.82918
0.654155
0.653919
0.503088
0.502852
1.02502
1.02458
0.745898
0.745501
0.736735
0.927656
0.578773
0.756271
1.11876
1.33967
0.827929
1.0261
1.28623
1.47949
1.094
1.27184
1.74095
1.99558
1.39005
1.6095
1.85522
1.64208
1.67389
1.46966
2.72453
2.41851
2.36829
2.08564
1.25398
1.04458
1.09464
0.893262
1.96091
1.70537
1.65347
1.4133
0.952249
0.952023
0.804907
0.804675
1.59298
1.59251
1.30877
1.30832
1.04392
1.25292
0.892573
1.09354
1.70393
1.95842
1.41188
1.65101
1.64081
1.85406
1.46832
1.67266
2.41486
2.7199
2.08201
2.36366
2.18725
1.96025
2.0264
1.80581
3.39289
3.04978
3.06594
2.73992
1.55208
1.33038
1.40686
1.19081
2.5496
2.26909
2.25993
1.99111
1.23204
1.23183
1.09521
1.09499
2.14419
2.14371
1.87201
1.87152
1.32976
1.55111
1.19017
1.40585
2.26761
2.54709
1.98964
2.25742
1.9591
2.18624
1.8046
2.02532
3.04614
3.38829
2.73627
3.06132
2.48003
2.24268
2.33862
2.10609
3.99597
3.62552
3.70254
3.34473
1.81973
1.58896
1.69002
1.46347
3.09123
2.79133
2.82662
2.53583
1.48627
1.48607
1.36279
1.36258
2.65705
2.65656
2.40592
2.40543
1.58839
1.81884
1.46287
1.68909
2.78987
3.08875
2.53436
2.82411
2.24164
2.47915
2.105
2.33768
3.62194
3.99146
3.34111
3.69798
2.73531
2.49004
2.61236
2.37081
4.53008
4.13924
4.27116
3.88978
2.05593
1.81833
1.94193
1.70751
3.57768
3.26267
3.34116
3.03324
1.71235
1.71216
1.60306
1.60287
3.12117
3.12069
2.89515
2.89467
1.81779
2.0551
1.70695
1.94107
3.26122
3.57524
3.03179
3.3387
2.48909
2.73453
2.36981
2.61153
4.13574
4.52567
3.88624
4.2667
2.95566
2.70423
2.84982
2.60129
4.99671
4.59043
4.77115
4.37205
2.26162
2.01884
2.16269
1.92233
4.00714
3.68036
3.79909
3.47788
1.91035
1.91018
1.81501
1.81483
3.53318
3.53271
3.33334
3.33287
2.01834
2.26085
1.92181
2.16189
3.67895
4.00475
3.47646
3.79668
2.70335
2.95497
2.60037
2.84909
4.58702
4.9924
4.3686
4.76679
3.14423
2.88797
3.05389
2.79991
5.40011
4.98198
5.20556
4.79295
2.43883
2.19211
2.35386
2.10898
4.38137
4.04529
4.20059
3.8689
2.08177
2.08161
1.9995
1.99933
3.89393
3.89347
3.7195
3.71904
2.19163
2.4381
2.10849
2.35311
4.04391
4.37904
3.8675
4.19823
2.88715
3.14361
2.79907
3.05324
4.97864
5.39589
4.78957
5.20129
3.30405
3.04399
3.2277
2.96944
5.74523
5.31792
5.57915
5.15612
2.58989
2.34019
2.51769
2.26938
4.70364
4.36022
4.54836
4.20841
2.22847
2.22832
2.1583
2.15814
4.20566
4.20521
4.05535
4.0549
2.33974
2.5892
2.26892
2.51698
4.35886
4.70135
4.20704
4.54605
3.04322
3.30349
2.96865
3.22711
5.31465
5.74109
5.15281
5.57497
3.43825
3.17519
3.37435
3.11271
6.03761
5.60323
5.89723
5.46614
2.71737
2.46546
2.65665
2.40577
4.97815
4.62901
4.84621
4.49977
2.35272
2.35257
2.2935
2.29335
4.47201
4.47157
4.34392
4.34347
2.46503
2.71672
2.40533
2.65598
4.62767
4.9759
4.49842
4.84395
3.17446
3.43774
3.11197
3.37381
5.60002
6.03354
5.4629
5.89312
3.54958
3.28417
3.49678
3.23247
6.28238
5.84257
6.16516
5.72786
2.82366
2.57015
2.77325
2.52048
5.2091
4.85559
5.09841
4.74695
2.45668
2.45654
2.40734
2.4072
4.69673
4.69629
4.58897
4.58853
2.56974
2.82303
2.52006
2.77261
4.85428
5.20689
4.74563
5.09618
3.28348
3.54911
3.23177
3.49628
5.83941
6.27837
5.72467
6.16112
3.6406
3.37338
3.59767
3.3313
6.48449
6.04056
6.38804
5.946
2.91102
2.65643
2.86981
2.61572
5.40071
5.04395
5.3092
4.95395
2.54247
2.54233
2.50197
2.50183
4.88371
4.88328
4.79435
4.79392
2.65603
2.91041
2.61531
2.8692
5.04266
5.39854
4.95265
5.30701
3.37272
3.64016
3.33063
3.59722
6.03745
6.48054
5.94286
6.38405
3.71347
3.4449
3.67935
3.41141
6.6482
6.20123
6.57042
6.12483
2.98141
2.72617
2.94845
2.6935
5.55675
5.19766
5.48256
5.12455
2.61191
2.61178
2.57937
2.57923
5.03647
5.03605
4.9638
4.96337
2.72578
2.98082
2.6931
2.94786
5.19639
5.5546
5.12327
5.4804
3.44427
3.71305
3.41077
3.67892
6.19816
6.64429
6.12174
6.56649
3.77014
3.50066
3.7439
3.47484
6.77745
6.32836
6.71644
6.26829
3.03663
2.7811
3.01106
2.75564
5.68073
5.32011
5.62216
5.26223
2.66673
2.6666
2.64131
2.64118
5.15833
5.15791
5.10072
5.1003
2.78072
3.03606
2.75525
3.01048
5.31885
5.67861
5.26097
5.62003
3.50005
3.76976
3.47422
3.7435
6.32532
6.77359
6.26524
6.71256
3.81222
3.54218
3.7931
3.5233
6.87551
6.42507
6.82974
6.37986
3.07819
2.82272
3.05928
2.80375
5.77565
5.41425
5.73127
5.37019
2.70837
2.70824
2.68937
2.68925
5.25214
5.25173
5.20823
5.20781
2.82235
3.07764
2.80337
3.05872
5.41301
5.77356
5.36894
5.72917
3.54159
3.81185
3.5227
3.79272
6.42207
6.87169
6.37684
6.82589
3.84106
3.57085
3.82841
3.55825
6.94524
6.49418
6.91331
6.46244
3.10741
2.85229
3.09453
2.8392
5.84416
5.48266
5.81268
5.45118
2.73808
2.73796
2.72491
2.72478
5.32043
5.32003
5.28899
5.28858
2.85193
3.10687
2.83883
3.09398
5.48144
5.8421
5.44995
5.8106
3.57028
3.84072
3.55767
3.82805
6.49121
6.94147
6.45946
6.9095
3.85778
3.58774
3.85109
3.58092
6.98902
6.53797
6.96981
6.51865
3.12537
2.87089
3.11799
2.86317
5.88852
5.52751
5.86887
5.50756
2.75695
2.75683
2.74908
2.74896
5.36538
5.36498
5.34536
5.34495
2.87054
3.12485
2.86281
3.11747
5.52631
5.8865
5.50634
5.86682
3.58723
3.8575
3.58037
3.85076
6.53507
6.98532
6.51571
6.96605
3.86318
3.59368
3.8621
3.59228
7.00876
6.55827
7.00138
6.55053
3.13295
2.87942
3.13067
2.87664
5.9106
5.55067
5.90189
5.54136
2.76587
2.76575
2.76287
2.76276
5.38887
5.38848
5.37937
5.37897
2.87909
3.13247
2.8763
3.13018
5.54949
5.90862
5.54016
5.89988
3.59325
3.86299
3.5918
3.86186
6.55548
7.00517
6.54767
6.99773
3.85821
3.58971
3.86207
3.59302
7.00618
6.55679
7.00948
6.55948
3.13107
2.87876
3.13335
2.88042
5.91196
5.55355
5.91335
5.55423
2.76572
2.76561
2.76711
2.76699
5.39233
5.39194
5.39269
5.3923
2.87844
3.13061
2.8801
3.13289
5.55238
5.91
5.55305
5.91139
3.58931
3.85809
3.59264
3.86195
6.55405
7.00267
6.55675
7.00595
3.84395
3.57669
3.85242
3.58453
6.98321
6.53554
6.99688
6.54833
3.12044
2.86959
3.1271
2.87551
5.89455
5.53819
5.90549
5.54813
2.75724
2.75712
2.76281
2.76269
5.37794
5.37755
5.3874
5.38701
2.86926
3.11995
2.87518
3.12662
5.53702
5.89257
5.54696
5.90352
3.57614
3.8436
3.58404
3.85219
6.53265
6.97955
6.54551
6.99331
3.82042
3.55493
3.83341
3.56699
6.94059
6.49503
6.96378
6.51704
3.10159
2.8524
3.11225
2.86223
5.85883
5.50494
5.8785
5.52335
2.74082
2.74071
2.75025
2.75014
5.34583
5.34545
5.36364
5.36326
2.85208
3.10113
2.8619
3.11179
5.5038
5.85692
5.52219
5.87656
3.55457
3.82033
3.56656
3.83321
6.49239
6.93717
6.51431
6.96024
3.7892
3.52565
3.80604
3.54151
6.88031
6.43736
6.91225
6.46794
3.0752
2.82776
3.0896
2.84127
5.80628
5.45522
5.83428
5.48177
2.71702
2.7169
2.73009
2.72998
5.29742
5.29704
5.3233
5.32292
2.82743
3.0747
2.84094
3.08912
5.45407
5.80434
5.48062
5.83234
3.52511
3.78887
3.54102
3.80581
6.43453
6.87673
6.46515
6.90873
3.74951
3.48836
3.77056
3.50817
6.80219
6.36225
6.84302
6.40147
3.04136
2.79595
3.05946
2.81301
5.73748
5.38969
5.77353
5.42407
2.68616
2.68605
2.70273
2.70262
5.2334
5.23303
5.26701
5.26663
2.79562
3.04088
2.81268
3.05897
5.38856
5.73558
5.42293
5.77161
3.48785
3.74922
3.50766
3.77027
6.35951
6.79869
6.3987
6.83947
3.7015
3.44324
3.72674
3.46697
6.70667
6.27025
6.75617
6.31789
3.0003
2.75723
3.02199
2.77771
5.65297
5.30896
5.69683
5.35088
2.64854
2.64843
2.66846
2.66835
5.15439
5.15402
5.19542
5.19505
2.75691
2.99983
2.77739
3.02151
5.30785
5.65111
5.34976
5.69494
3.44276
3.70123
3.46647
3.72646
6.26757
6.70324
6.31518
6.7527
3.64554
3.3907
3.67469
3.41809
6.59445
6.1621
6.6522
6.21773
2.95233
2.71189
2.97743
2.73565
5.55337
5.21362
5.6047
5.26277
2.60441
2.60431
2.62755
2.62744
5.06098
5.06062
5.10914
5.10878
2.71158
2.95186
2.73533
2.97696
5.21253
5.55154
5.26168
5.60285
3.39022
3.64528
3.41761
3.67443
6.15946
6.59107
6.21507
6.64879
3.58203
3.33109
3.61492
3.36197
6.46627
6.0385
6.53193
6.10178
2.89774
2.66019
2.92611
2.68709
5.43931
5.10425
5.4978
5.16036
2.55405
2.55394
2.58027
2.58016
4.95373
4.95338
5.00875
5.0084
2.65988
2.89729
2.68678
2.92566
5.10319
5.43751
5.15928
5.49598
3.33062
3.58177
3.3615
3.61466
6.03592
6.46296
6.09917
6.52858
3.51127
3.26469
3.54774
3.29893
6.32279
5.90009
6.39603
5.97071
2.83681
2.60238
2.86832
2.63231
5.31136
4.98142
5.37673
5.0442
2.49768
2.49758
2.52688
2.52677
4.83319
4.83285
4.89481
4.89446
2.60208
2.83636
2.63201
2.86787
4.98037
5.3096
5.04314
5.37495
3.26423
3.51102
3.29847
3.54749
5.89755
6.31954
5.96815
6.39275
3.43356
3.19178
3.47347
3.22924
6.16464
5.74749
6.24515
5.82514
2.76977
2.53869
2.8043
2.57153
5.17007
4.84563
5.24205
4.91483
2.43553
2.43543
2.46759
2.46748
4.69988
4.69954
4.76782
4.76748
2.53839
2.76933
2.57123
2.80386
4.84461
5.16834
4.9138
5.24031
3.19133
3.43331
3.22879
3.47322
5.745
6.16146
5.82262
6.24193
3.34922
3.11264
3.3924
3.15318
5.99244
5.58128
6.07991
5.66568
2.69685
2.46932
2.73429
2.50497
5.01597
4.6974
5.09431
4.77277
2.36779
2.36769
2.40261
2.40251
4.55427
4.55393
4.62831
4.62797
2.46903
2.69642
2.50467
2.73386
4.69639
5.01428
4.77176
5.0926
3.1122
3.34897
3.15273
3.39216
5.57884
5.98932
5.66322
6.07675
3.25858
3.02754
3.30486
3.07102
5.8068
5.402
5.90092
5.49287
2.61829
2.39448
2.65852
2.43283
4.84957
4.53721
4.934
4.61851
2.29467
2.29457
2.33215
2.33205
4.39686
4.39653
4.47675
4.47642
2.39419
2.61786
2.43254
2.65809
4.53623
4.84791
4.61751
4.93233
3.0271
3.25833
3.07058
3.30462
5.39961
5.80375
5.49046
5.89783
3.16197
2.93675
3.21119
2.98305
5.60841
5.2104
5.70882
5.3073
2.5343
2.31437
2.57721
2.35533
4.67142
4.36558
4.76166
4.45254
2.21633
2.21623
2.2564
2.2563
4.22814
4.22782
4.31363
4.31331
2.31408
2.53388
2.35504
2.57679
4.36462
4.6698
4.45157
4.76002
2.93632
3.16172
2.98261
3.21095
5.20808
5.60543
5.30495
5.70581
3.0598
2.84057
3.11175
2.88951
5.39794
5.00729
5.50434
5.10993
2.44512
2.22918
2.49059
2.27265
4.48207
4.18299
4.57786
4.27538
2.13297
2.13287
2.17552
2.17542
4.0486
4.04829
4.13946
4.13914
2.2289
2.44471
2.27237
2.49018
4.18205
4.48049
4.27443
4.57626
2.84014
3.05955
2.88908
3.1115
5.00502
5.39504
5.10764
5.5014
2.95247
2.73935
3.00694
2.79076
5.17596
4.79303
5.28806
4.90119
2.35099
2.1391
2.3989
2.18499
4.28198
3.9899
4.3831
4.0875
2.04475
2.04466
2.08971
2.08961
3.85869
3.85839
3.95469
3.95438
2.13883
2.35058
2.18471
2.39849
3.98899
4.28044
4.08657
4.38153
2.73892
2.95221
2.79033
3.00669
4.79082
5.17314
4.89895
5.2852
2.84045
2.63342
2.8972
2.68713
4.94304
4.56831
5.06055
4.68162
2.25214
2.0443
2.30238
2.09252
4.07163
3.78673
4.17783
3.88933
1.9518
1.95171
1.9991
1.99901
3.6588
3.6585
3.75975
3.75945
2.04403
2.25174
2.09225
2.30197
3.78584
4.07013
3.88843
4.17631
2.633
2.84019
2.68671
2.89694
4.56616
4.9403
4.67945
5.05776
2.72441
2.52328
2.78306
2.57902
4.69986
4.33393
4.82241
4.45197
2.14885
1.94491
2.20126
1.99541
3.85153
3.5738
3.96256
3.68127
1.85418
1.85409
1.90381
1.90372
3.44915
3.44886
3.55498
3.55469
1.94464
2.14845
1.99514
2.20086
3.57294
3.85008
3.68039
3.96108
2.52286
2.72414
2.57859
2.78279
4.33185
4.69721
4.44986
4.81971
2.60558
2.40973
2.66539
2.46704
4.44764
4.09119
4.5745
4.21321
2.04138
1.84086
2.09584
1.89371
3.62212
3.35107
3.73777
3.46349
1.75167
1.75158
1.8038
1.8037
3.22948
3.2292
3.34041
3.34013
1.84059
2.04098
1.89344
2.09544
3.35023
3.62071
3.46264
3.73634
2.40932
2.60531
2.46662
2.66512
4.08918
4.44508
4.21116
4.57189
2.48716
2.29416
2.54614
2.35226
4.19025
3.84281
4.31887
3.96721
1.92968
1.73145
1.98632
1.78713
3.38324
3.11741
3.50375
3.23557
1.64337
1.64328
1.69856
1.69847
2.99844
2.99818
3.11534
3.11507
1.73119
1.92929
1.78687
1.98593
3.11661
3.3819
3.23475
3.50238
2.29374
2.48688
2.35184
2.54586
3.84088
4.18779
3.96524
4.31636
2.37955
2.17668
2.43082
2.23612
3.94365
3.59133
4.0632
3.71743
1.81097
1.61398
1.87186
1.67423
3.13074
2.86895
3.25918
2.99526
1.527
1.52692
1.58661
1.58652
2.75309
2.75285
2.87759
2.87734
1.61372
1.81059
1.67397
1.87148
2.8682
3.12946
2.99448
3.25787
2.17626
2.37926
2.23571
2.43054
3.58949
3.94131
3.71554
4.0608
2.33306
2.02667
2.34167
2.11274
3.74711
3.28404
3.83949
3.4557
1.6701
1.48196
1.74541
1.55048
2.84355
2.5993
2.99367
2.73679
1.39894
1.39885
1.46485
1.46476
2.49192
2.49169
2.62409
2.62385
1.48171
1.66972
1.55023
1.74502
2.59861
2.84237
2.73606
2.99243
2.02625
2.33275
2.11232
2.34137
3.28235
3.7449
3.45393
3.8372
1.31458
1.14827
1.09319
0.958486
1.17129
1.00987
0.925966
0.804475
0.842222
0.663386
0.678073
0.519384
0.703776
0.53299
0.534542
0.389454
0.581841
0.581638
0.448669
0.448448
0.457562
0.457344
0.327198
0.326982
0.662816
0.841433
0.518745
0.677131
0.532355
0.702818
0.388809
0.533521
1.14759
1.31426
0.957545
1.09252
1.00886
1.17054
0.803309
0.924974
1.65659
1.47302
1.49892
1.32046
1.5451
1.35792
1.37244
1.19391
1.14481
0.947682
0.999035
0.808284
1.01754
0.821521
0.865674
0.679116
0.855892
0.855744
0.720241
0.720065
0.732669
0.732481
0.595432
0.595227
0.947283
1.14431
0.807801
0.9984
0.820986
1.01677
0.678526
0.864808
1.47272
1.6567
1.31999
1.49884
1.35719
1.54468
1.19304
1.37187
1.93077
1.74286
1.79983
1.61348
1.84994
1.65257
1.70359
1.51055
1.40939
1.20634
1.28175
1.08094
1.29774
1.0906
1.16177
0.959322
1.11082
1.11071
0.986865
0.986742
0.995626
0.995471
0.866931
0.86676
1.20608
1.40911
1.08061
1.28137
1.09017
1.29714
0.958839
1.16109
1.74284
1.93117
1.61333
1.8001
1.65205
1.84977
1.50993
1.7033
2.16347
1.97425
2.05187
1.86311
2.11285
1.90987
1.98625
1.78575
1.64006
1.43489
1.52902
1.32465
1.54697
1.33341
1.42642
1.21571
1.33778
1.33771
1.22818
1.22809
1.23489
1.23477
1.11876
1.11862
1.43473
1.63994
1.32445
1.52883
1.33306
1.5465
1.21532
1.42589
1.97441
2.16406
1.86319
2.05238
1.90953
2.11286
1.78532
1.98618
2.36233
2.17289
2.267
2.07761
2.34061
2.13397
2.23108
2.02611
1.83958
1.63378
1.74379
1.5382
1.76597
1.54825
1.66042
1.44459
1.536
1.53596
1.44068
1.44063
1.44743
1.44732
1.3448
1.34469
1.6337
1.83957
1.53808
1.74373
1.54796
1.7656
1.44427
1.66001
2.17319
2.36306
2.07784
2.26767
2.13375
2.34077
2.02584
2.23117
2.53166
2.34246
2.45063
2.26128
2.53666
2.32745
2.44258
2.23456
2.01065
1.80494
1.92872
1.72292
1.95612
1.73561
1.86476
1.64552
1.70694
1.70692
1.62499
1.62496
1.63322
1.63313
1.54385
1.54375
1.80491
2.01072
1.72287
1.92876
1.73537
1.95584
1.64526
1.86444
2.34285
2.53249
2.26162
2.45141
2.32734
2.53693
2.2344
2.4428
2.67484
2.48614
2.60647
2.41751
2.70409
2.49301
2.62395
2.41375
2.15612
1.9509
2.08664
1.88116
2.11955
1.89717
2.04127
1.81974
1.85294
1.85293
1.78316
1.78314
1.79372
1.79364
1.71677
1.71669
1.95091
2.15625
1.88115
2.08674
1.89697
2.11933
1.81952
2.04102
2.4866
2.67574
2.41794
2.60734
2.49298
2.70443
2.41368
2.62426
2.79508
2.60699
2.73781
2.54942
2.84594
2.63348
2.77822
2.56641
2.27887
2.07437
2.2204
2.01554
2.25877
2.03517
2.19228
1.96923
1.97661
1.97661
1.91767
1.91766
1.93103
1.93096
1.8654
1.86533
2.07441
2.27905
2.01557
2.22056
2.03501
2.25859
1.96905
2.19208
2.60749
2.79604
2.54991
2.73874
2.6335
2.84635
2.5664
2.7786
2.89507
2.70764
2.8476
2.65985
2.96499
2.75155
2.90832
2.69535
2.38148
2.17785
2.33277
2.12871
2.37622
2.15191
2.32031
2.09632
2.08039
2.08041
2.03109
2.0311
2.04732
2.04727
1.99193
1.99187
2.17791
2.3817
2.12876
2.33297
2.15177
2.37609
2.09616
2.32016
2.70819
2.89607
2.66038
2.84858
2.75162
2.96546
2.69539
2.90876
2.97735
2.7906
2.93845
2.75137
3.06396
2.84983
3.01703
2.80323
2.46642
2.26374
2.42627
2.22312
2.47435
2.24969
2.42782
2.2033
2.16666
2.16668
2.12584
2.12586
2.14487
2.14482
2.09858
2.09853
2.26383
2.46666
2.22319
2.42649
2.24957
2.47425
2.20317
2.4277
2.79117
2.97837
2.75194
2.93946
2.84994
3.06446
2.80331
3.01751
3.04399
2.85796
3.01265
2.82627
3.14511
2.93056
3.1068
2.89245
2.53577
2.33412
2.50316
2.301
2.55531
2.33059
2.5171
2.29239
2.23746
2.23749
2.20413
2.20415
2.22569
2.22565
2.18752
2.18747
2.33422
2.53604
2.30109
2.50341
2.33049
2.55524
2.29228
2.51702
2.85856
3.04505
2.82686
3.01369
2.93069
3.14564
2.89257
3.10732
3.09691
2.9116
3.07223
2.88657
3.21054
2.99577
3.17987
2.96519
2.59142
2.39085
2.56545
2.36434
2.62107
2.39654
2.59024
2.3656
2.29466
2.29468
2.26792
2.26795
2.29168
2.29164
2.26071
2.26067
2.39096
2.5917
2.36445
2.56572
2.39645
2.62102
2.36551
2.59018
2.91223
3.09798
2.88718
3.07329
2.99593
3.2111
2.96534
3.18042
3.13764
2.95309
3.11886
2.93394
3.26198
3.04718
3.23809
3.02329
2.63493
2.43549
2.61484
2.41484
2.67331
2.44917
2.64904
2.42469
2.3398
2.33983
2.3189
2.31893
2.34446
2.34442
2.3199
2.31986
2.43561
2.63523
2.41496
2.61513
2.44909
2.67327
2.42461
2.649
2.95373
3.13872
2.93457
3.11993
3.04737
3.26256
3.02346
3.23866
3.16759
2.98383
3.15403
2.96989
3.30101
3.08636
3.28314
3.06841
2.66771
2.46943
2.65283
2.45398
2.71353
2.48994
2.6951
2.47123
2.37427
2.37431
2.35855
2.35858
2.38547
2.38544
2.36663
2.3666
2.46956
2.66802
2.4541
2.65313
2.48987
2.71351
2.47115
2.69507
2.98448
3.16868
2.97054
3.15513
3.08656
3.30161
3.0686
3.28373
3.18782
3.00491
3.179
2.99568
3.32884
3.11451
3.31643
3.10193
2.69088
2.49382
2.68067
2.48302
2.74297
2.5201
2.72979
2.50656
2.39923
2.39926
2.38814
2.38817
2.41595
2.41592
2.40224
2.40221
2.49396
2.6912
2.48315
2.68099
2.52004
2.74296
2.50649
2.72977
3.00558
3.18893
2.99634
3.18011
3.11472
3.32945
3.10214
3.31704
3.19932
3.01734
3.19477
3.01233
3.34656
3.13273
3.33909
3.125
2.70543
2.50965
2.69942
2.50301
2.76269
2.5407
2.75425
2.53181
2.41564
2.41568
2.40871
2.40874
2.43694
2.43692
2.42785
2.42783
2.50979
2.70576
2.50315
2.69975
2.54064
2.76269
2.53175
2.75424
3.01801
3.20044
3.01299
3.19588
3.13296
3.3472
3.12522
3.33972
3.20284
3.02187
3.2022
3.02072
3.35504
3.14189
3.35211
3.1386
2.71216
2.51771
2.70998
2.51486
2.77358
2.55262
2.76946
2.54797
2.42433
2.42437
2.42117
2.42121
2.44934
2.44931
2.44445
2.44442
2.51786
2.7125
2.515
2.71031
2.55257
2.7736
2.54792
2.76947
3.02255
3.20397
3.0214
3.20332
3.14214
3.3557
3.13884
3.35275
3.19904
3.01919
3.20198
3.02156
3.35496
3.1427
3.35622
3.1435
2.71177
2.51871
2.71305
2.51931
2.77636
2.55659
2.77622
2.55584
2.42599
2.42603
2.42626
2.4263
2.45387
2.45385
2.45283
2.4528
2.51886
2.71212
2.51946
2.7134
2.55656
2.7764
2.5558
2.77624
3.01989
3.20019
3.02225
3.20312
3.14298
3.35566
3.14377
3.3569
3.1884
3.00983
3.19469
3.01548
3.34695
3.13583
3.3521
3.1404
2.70482
2.51327
2.70932
2.51702
2.77177
2.55337
2.77522
2.55611
2.42127
2.42132
2.42466
2.4247
2.45128
2.45126
2.45368
2.45367
2.51343
2.70518
2.51718
2.70967
2.55334
2.77181
2.55608
2.77526
3.01054
3.18955
3.01618
3.19584
3.13612
3.34766
3.1407
3.35282
3.17146
2.99433
3.18083
3.00298
3.33148
3.1218
3.34026
3.12983
2.69183
2.50184
2.69929
2.50853
2.76027
2.54339
2.76711
2.54947
2.41059
2.41063
2.4169
2.41695
2.44201
2.44199
2.44773
2.44771
2.50199
2.69217
2.50868
2.69964
2.54336
2.76031
2.54943
2.76714
2.99503
3.1726
3.00368
3.18197
3.12208
3.33216
3.13011
3.34093
3.14874
2.97318
3.16095
2.98461
3.30954
3.10146
3.3215
3.11262
2.67324
2.48487
2.68345
2.49428
2.74248
2.52718
2.75241
2.53632
2.39439
2.39444
2.40341
2.40346
2.42657
2.42655
2.43532
2.4353
2.48502
2.67359
2.49443
2.6838
2.52715
2.74252
2.53628
2.75245
2.97387
3.14987
2.9853
3.16209
3.10173
3.31023
3.11291
3.32221
3.12049
2.94668
3.13544
2.96074
3.28128
3.07501
3.29637
3.08918
2.64938
2.46269
2.66219
2.47467
2.71875
2.50513
2.7316
2.51715
2.37303
2.37307
2.3846
2.38464
2.40532
2.4053
2.41693
2.41691
2.46284
2.64972
2.47482
2.66254
2.5051
2.71877
2.51711
2.73164
2.94736
3.12161
2.96143
3.13656
3.07527
3.28193
3.08943
3.29702
3.08688
2.915
3.1045
2.93164
3.24683
3.04265
3.26501
3.05976
2.62048
2.43555
2.63579
2.44998
2.68927
2.47748
2.70498
2.49227
2.34675
2.34679
2.36074
2.36079
2.37855
2.37853
2.39289
2.39287
2.4357
2.62082
2.45013
2.63613
2.47744
2.6893
2.49223
2.70501
2.91567
3.08799
2.93231
3.10561
3.0429
3.24748
3.06002
3.26566
3.04795
2.87823
3.06822
2.8974
3.20604
3.00429
3.2274
3.02439
2.58668
2.40363
2.60442
2.42043
2.65417
2.44441
2.67267
2.46188
2.31574
2.31579
2.33207
2.33212
2.34646
2.34644
2.36343
2.36341
2.40378
2.58701
2.42058
2.60475
2.44438
2.6542
2.46185
2.6727
2.8789
3.04904
2.89807
3.06932
3.00455
3.20669
3.02464
3.22804
3.00388
2.83659
3.02669
2.85817
3.15918
2.96023
3.18353
2.98314
2.54818
2.36714
2.56824
2.38619
2.61369
2.40616
2.63485
2.42619
2.28022
2.28026
2.29878
2.29883
2.30927
2.30925
2.32876
2.32874
2.36729
2.54851
2.38634
2.56857
2.40613
2.61373
2.42616
2.63488
2.83726
3.00497
2.85883
3.02777
2.96049
3.15982
2.9834
3.18417
2.95495
2.79032
2.98015
2.81418
3.10656
2.91076
3.13375
2.93634
2.5052
2.32627
2.52747
2.34748
2.56808
2.36294
2.59177
2.38543
2.24038
2.24042
2.26108
2.26112
2.2672
2.26718
2.2891
2.28908
2.32642
2.50553
2.34763
2.5278
2.36291
2.56812
2.3854
2.59181
2.79098
2.95602
2.81484
2.98123
2.91102
3.10719
2.9366
3.13439
2.9014
2.73965
2.92888
2.76568
3.04847
2.85614
3.07836
2.88427
2.45796
2.28122
2.48233
2.30449
2.51756
2.31496
2.54368
2.3398
2.19639
2.19644
2.21914
2.21918
2.22043
2.22042
2.24466
2.24464
2.28136
2.45828
2.30464
2.48266
2.31493
2.51759
2.33977
2.54371
2.7403
2.90245
2.76633
2.92994
2.85639
3.04909
2.88452
3.07899
2.84346
2.68478
2.8731
2.71288
2.98515
2.79659
3.01762
2.82715
2.40663
2.23216
2.43301
2.25741
2.46232
2.2624
2.49076
2.2895
2.14844
2.14848
2.17314
2.17318
2.16916
2.16914
2.19561
2.19559
2.2323
2.40695
2.25756
2.43334
2.26237
2.46235
2.28947
2.4908
2.68542
2.8445
2.71352
2.87414
2.79683
2.98576
2.8274
3.01824
2.78143
2.62597
2.81308
2.656
2.9169
2.73234
2.9518
2.76521
2.35141
2.17927
2.37971
2.20641
2.40257
2.20545
2.43324
2.23472
2.09669
2.09672
2.12326
2.1233
2.11355
2.11353
2.14214
2.14213
2.1794
2.35173
2.20655
2.38003
2.20542
2.4026
2.23469
2.43327
2.62659
2.78244
2.65663
2.8141
2.73258
2.91749
2.76546
2.9524
2.71558
2.56344
2.74909
2.5953
2.84399
2.66366
2.88117
2.69871
2.29253
2.12272
2.32263
2.15167
2.33852
2.14429
2.37131
2.17564
2.04129
2.04133
2.06966
2.0697
2.05376
2.05375
2.08442
2.0844
2.12286
2.29283
2.1518
2.32294
2.14425
2.33854
2.17561
2.37134
2.56405
2.71656
2.59591
2.75009
2.6639
2.84457
2.69895
2.88176
2.64626
2.4975
2.68146
2.53101
2.76676
2.5908
2.80606
2.62792
2.23018
2.06272
2.26198
2.09336
2.27036
2.07908
2.30518
2.11242
1.98243
1.98247
2.01251
2.01255
1.98997
1.98995
2.0226
2.02259
2.06285
2.23048
2.0935
2.26228
2.07905
2.27038
2.11239
2.3052
2.49809
2.64722
2.53161
2.68244
2.59102
2.76732
2.62814
2.80662
2.57383
2.42846
2.61053
2.46348
2.6856
2.51402
2.72681
2.55304
2.16463
1.99944
2.198
2.03169
2.19834
2.01002
2.23505
2.04526
1.92028
1.92031
1.95197
1.95201
1.92233
1.92231
1.95686
1.95684
1.99957
2.16491
2.03182
2.19829
2.00998
2.19835
2.04522
2.23507
2.42903
2.57476
2.46407
2.61148
2.51423
2.68613
2.55326
2.72736
2.49875
2.35667
2.53671
2.39301
2.60092
2.43371
2.64383
2.47445
2.09614
1.93311
2.13093
1.96686
2.12268
1.93729
2.16117
1.97433
1.855
1.85503
1.88823
1.88827
1.85102
1.851
1.88736
1.88734
1.93323
2.09641
1.96698
2.13121
1.93725
2.12269
1.9743
2.16118
2.35722
2.49965
2.39357
2.53763
2.43391
2.60143
2.47465
2.64435
2.42162
2.28261
2.46052
2.32001
2.51324
2.35026
2.55757
2.3925
2.02504
1.86395
2.06108
1.89908
2.04368
1.8611
2.0838
1.89984
1.78678
1.78681
1.82146
1.82149
1.77618
1.77615
1.81426
1.81424
1.86405
2.02529
1.89919
2.06135
1.86106
2.04368
1.8998
2.08381
2.28314
2.42249
2.32056
2.4614
2.35044
2.51373
2.3927
2.55806
2.34336
2.20701
2.38267
2.24507
2.42335
2.26426
2.46865
2.30768
1.95176
1.79217
1.98883
1.82857
1.96168
1.78161
2.00325
1.82198
1.71575
1.71577
1.75182
1.75184
1.69788
1.69786
1.73768
1.73766
1.79227
1.952
1.82867
1.98908
1.78156
1.96167
1.82193
2.00324
2.20752
2.34419
2.24559
2.38352
2.26443
2.42381
2.30786
2.46912
2.26564
2.13104
2.30438
2.16909
2.33272
2.17669
2.37813
2.22073
1.87683
1.71786
1.91466
1.75553
1.87708
1.69882
1.91989
1.74085
1.64176
1.64178
1.67935
1.67937
1.61595
1.61593
1.65762
1.65759
1.71795
1.87705
1.75563
1.91489
1.69876
1.87706
1.7408
1.91987
2.13151
2.26643
2.16958
2.30519
2.17684
2.33314
2.22089
2.37857
2.19247
2.05672
2.22816
2.09363
2.24489
2.08926
2.2882
2.13297
1.8005
1.64042
1.83904
1.67981
1.78997
1.61206
1.83407
1.65623
1.56391
1.56393
1.60361
1.60363
1.52947
1.52944
1.57359
1.57357
1.64049
1.8007
1.67989
1.83925
1.612
1.78994
1.65618
1.83405
2.05717
2.19322
2.09409
2.22893
2.08938
2.24528
2.13311
2.2886
2.13668
1.98583
2.16086
2.02105
2.17178
2.00286
2.20505
2.04625
1.72059
1.55717
1.76157
1.60001
1.6978
1.51856
1.74514
1.56666
1.47972
1.47973
1.52302
1.52304
1.43596
1.43593
1.48401
1.48399
1.55723
1.72076
1.60008
1.76175
1.51849
1.69775
1.5666
1.7451
1.98624
2.13738
2.02148
2.16159
2.00296
2.17212
2.04636
2.20541
2.15492
1.89581
2.12929
1.94882
2.17139
1.892
2.15468
1.95662
1.6237
1.46183
1.6761
1.51162
1.58616
1.41176
1.64638
1.46747
1.38545
1.38546
1.43419
1.4342
1.33158
1.33155
1.38551
1.38548
1.46187
1.62383
1.51167
1.67626
1.41168
1.58608
1.4674
1.64631
1.89616
2.15559
1.9492
2.12997
1.89205
2.1717
1.95669
2.15501
1.5595
1.39266
1.36039
1.218
1.44458
1.27712
1.23657
1.0963
1.09277
0.909355
0.932753
0.762267
0.973447
0.791005
0.811646
0.645215
0.822969
0.822818
0.683342
0.68315
0.706162
0.705982
0.56932
0.569108
0.908961
1.09233
0.761745
0.932078
0.790518
0.972832
0.644622
0.810826
1.39253
1.55986
1.21754
1.36033
1.27672
1.44462
1.0956
1.23621
1.87355
1.69758
1.72892
1.55458
1.76932
1.58958
1.61978
1.44302
1.38794
1.19488
1.2462
1.05572
1.27133
1.07566
1.12816
0.936624
1.10262
1.10256
0.965274
0.965166
0.983063
0.982956
0.84667
0.846528
1.19473
1.38788
1.05545
1.24597
1.07539
1.27106
0.936251
1.12773
1.69792
1.87439
1.55472
1.72957
1.58964
1.76983
1.44287
1.62009
2.12154
1.94678
2.00379
1.82801
2.02711
1.84642
1.90441
1.72371
1.64111
1.44839
1.51975
1.32632
1.52857
1.33069
1.40495
1.20755
1.35555
1.35554
1.23345
1.23342
1.23619
1.23613
1.11364
1.11357
1.44841
1.64131
1.32626
1.51983
1.33058
1.52855
1.20737
1.40482
1.94741
2.12267
1.82852
2.0048
1.84676
2.02792
1.72392
1.90509
2.32697
2.1554
2.22906
2.05582
2.24289
2.06365
2.13976
1.95967
1.85658
1.66682
1.75351
1.56214
1.74971
1.5527
1.64364
1.44601
1.57495
1.57498
1.46969
1.46971
1.45811
1.45809
1.35135
1.35131
1.66695
1.85694
1.56222
1.7538
1.5527
1.74985
1.44596
1.64371
2.15621
2.32827
2.05655
2.23029
2.06418
2.24389
1.96012
2.14067
2.49865
2.33058
2.41678
2.247
2.42508
2.24791
2.33799
2.15978
2.03885
1.85265
1.95183
1.76385
1.93861
1.74346
1.84819
1.65207
1.76221
1.76226
1.67267
1.67272
1.64941
1.64942
1.55771
1.55771
1.85286
2.03932
1.76402
1.95225
1.74354
1.93887
1.65212
1.8484
2.3315
2.50006
2.24787
2.41815
2.24856
2.4262
2.16037
2.33906
2.64203
2.47726
2.57372
2.40736
2.57865
2.4036
2.50532
2.32924
2.19212
2.00945
2.11908
1.93469
2.09888
1.90586
2.02233
1.82825
1.92051
1.92058
1.845
1.84507
1.81259
1.81262
1.73458
1.7346
2.00971
2.19266
1.93492
2.11958
1.90599
2.09922
1.82835
2.02263
2.47825
2.64351
2.40832
2.57516
2.40433
2.57985
2.32994
2.50649
2.76122
2.59942
2.70454
2.54132
2.70743
2.53436
2.64606
2.47204
2.3202
2.14083
2.2593
2.07834
2.23392
2.04305
2.16958
1.97765
2.05334
2.05342
1.99014
1.99022
1.95064
1.95068
1.88482
1.88486
2.14112
2.32079
2.07861
2.25987
2.04321
2.23431
1.9778
2.16994
2.60045
2.76273
2.54234
2.70604
2.53515
2.7087
2.47281
2.6473
2.85959
2.70042
2.81295
2.65252
2.81466
2.64339
2.7637
2.59157
2.4265
2.25015
2.3761
2.1983
2.3469
2.15809
2.29321
2.10341
2.16402
2.16411
2.1115
2.11159
2.06656
2.06661
2.01144
2.01149
2.25047
2.42712
2.1986
2.3767
2.15829
2.34733
2.10359
2.29363
2.70149
2.86113
2.65358
2.81448
2.64423
2.81596
2.59239
2.76499
2.93987
2.78306
2.90194
2.74401
2.90301
2.73339
2.86117
2.69076
2.51389
2.3403
2.47261
2.29769
2.44054
2.25371
2.39619
2.20841
2.25542
2.25552
2.2122
2.2123
2.16303
2.16309
2.11731
2.11737
2.34063
2.51453
2.29801
2.47324
2.25393
2.441
2.20862
2.39664
2.78415
2.94143
2.74509
2.90349
2.73426
2.90434
2.69161
2.86248
3.00454
2.84982
2.97415
2.81843
2.97494
2.80684
2.94103
2.77221
2.58493
2.41386
2.55153
2.37925
2.51733
2.33239
2.48113
2.29527
2.33014
2.33025
2.29496
2.29507
2.24254
2.24261
2.20502
2.20508
2.41421
2.58558
2.37959
2.55218
2.33262
2.51782
2.2955
2.4816
2.85092
3.00611
2.81953
2.97571
2.80773
2.97629
2.77309
2.94237
3.05557
2.90274
3.03175
2.87802
3.03244
2.86576
3.00549
2.83814
2.64173
2.47299
2.61519
2.44534
2.57939
2.39624
2.5503
2.36629
2.39035
2.39046
2.36217
2.36228
2.30719
2.30727
2.27685
2.27692
2.47334
2.6424
2.44568
2.61586
2.39648
2.57989
2.36653
2.5508
2.90385
3.05714
2.87913
3.03332
2.86667
3.03381
2.83904
3.00686
3.0947
2.94359
3.07665
2.92471
3.07734
2.91198
3.05651
2.89052
2.68614
2.51955
2.66559
2.49797
2.62855
2.44711
2.60571
2.42344
2.43792
2.43803
2.41585
2.41596
2.35885
2.35892
2.33479
2.33487
2.51991
2.68682
2.49833
2.66627
2.44736
2.62907
2.42369
2.60622
2.94471
3.09628
2.92583
3.07823
2.9129
3.07872
2.89143
3.05788
3.12334
2.97382
3.11036
2.96007
3.11108
2.94699
3.09564
2.93095
2.71967
2.5551
2.70438
2.53884
2.66635
2.48656
2.649
2.46841
2.47441
2.47453
2.4577
2.45781
2.39906
2.39914
2.38054
2.38062
2.55546
2.72036
2.5392
2.70507
2.48682
2.66688
2.46867
2.64952
2.97494
3.12492
2.9612
3.11194
2.94792
3.11247
2.93187
3.09703
3.14274
2.99471
3.13424
2.98549
3.13498
2.97211
3.12431
2.96086
2.74364
2.58096
2.73299
2.56939
2.69412
2.51593
2.68164
2.50267
2.50118
2.5013
2.48917
2.48929
2.42917
2.42925
2.41555
2.41563
2.58133
2.74434
2.56976
2.73368
2.5162
2.69466
2.50293
2.68217
2.99584
3.14433
2.98662
3.13582
2.97305
3.13638
2.96179
3.12571
3.15386
3.00725
3.14939
3.00209
3.15002
2.98835
3.14367
2.98142
2.7591
2.59824
2.75258
2.59084
2.71296
2.53633
2.70482
2.52743