/*--------------------------------*- C++ -*----------------------------------*\
  =========                 |
  \\      /  F ield         | OpenFOAM: The Open Source CFD Toolbox
   \\    /   O peration     | Website:  https://openfoam.org
    \\  /    A nd           | Version:  9
     \\/     M anipulation  |
\*---------------------------------------------------------------------------*/
FoamFile
{
    format      ascii;
    class       volScalarField;
    location    "4.95";
    object      k;
}
// * * * * * * * * * * * * * * * * * * * * * * * * * * * * * * * * * * * * * //

dimensions      [0 2 -2 0 0 0 0];

internalField   nonuniform List<scalar> 
36360
(
0.31696
0.289418
0.246926
0.230153
0.114103
0.10454
0.0689755
0.0744999
0.227174
0.192192
0.173177
0.141966
0.081955
0.0685446
0.0528027
0.0412306
0.176647
0.176574
0.128567
0.128499
0.0628187
0.0627897
0.0368306
0.0368077
0.191975
0.226817
0.141755
0.17282
0.0684543
0.0817997
0.0411549
0.0526616
0.28895
0.31642
0.229671
0.246362
0.104322
0.113831
0.0742891
0.0687337
0.413417
0.383058
0.369023
0.33913
0.162867
0.148682
0.14118
0.128017
0.318386
0.281254
0.274883
0.238312
0.124843
0.110679
0.104558
0.0905903
0.264376
0.264309
0.221829
0.221758
0.104327
0.104298
0.0844237
0.0843937
0.281054
0.318064
0.238102
0.274543
0.11059
0.124696
0.0904991
0.104405
0.382642
0.412941
0.338688
0.368515
0.148479
0.162618
0.127805
0.140918
0.491416
0.460658
0.453972
0.423378
0.200103
0.184829
0.182267
0.167466
0.395847
0.358466
0.358572
0.321237
0.160721
0.146443
0.143461
0.129217
0.341331
0.34127
0.304182
0.304118
0.139939
0.139911
0.122769
0.12274
0.358288
0.395562
0.321049
0.358269
0.14636
0.160585
0.129131
0.143319
0.46029
0.490996
0.422987
0.453525
0.184643
0.199876
0.167272
0.18203
0.557805
0.526914
0.52592
0.495072
0.231598
0.215714
0.216478
0.200852
0.462257
0.424966
0.430328
0.392976
0.19144
0.177134
0.176659
0.162363
0.407808
0.407754
0.375814
0.375757
0.170576
0.17055
0.155825
0.155798
0.424806
0.462002
0.392807
0.430059
0.177057
0.191315
0.162283
0.176528
0.526585
0.557428
0.494724
0.525523
0.215542
0.231389
0.200673
0.21626
0.614206
0.583327
0.587149
0.556252
0.258274
0.242059
0.245476
0.2294
0.518906
0.481795
0.491713
0.454507
0.217659
0.203348
0.20506
0.190749
0.464698
0.464648
0.437373
0.437322
0.196776
0.196752
0.18418
0.184155
0.48165
0.518675
0.454355
0.49147
0.203277
0.217542
0.190675
0.204939
0.583029
0.613864
0.555938
0.58679
0.2419
0.258079
0.229234
0.245274
0.661907
0.631117
0.639042
0.608202
0.280793
0.264405
0.269994
0.253677
0.566966
0.530062
0.54392
0.506913
0.239922
0.225628
0.229233
0.214928
0.513058
0.513013
0.48986
0.489813
0.219059
0.219036
0.208356
0.208333
0.529929
0.566754
0.506774
0.543699
0.225562
0.239813
0.214859
0.22912
0.630842
0.661593
0.607916
0.638715
0.264256
0.280611
0.253523
0.269806
0.702099
0.67143
0.68285
0.652118
0.299751
0.283278
0.290664
0.274225
0.607562
0.570866
0.588116
0.551318
0.258748
0.244487
0.249717
0.23544
0.553966
0.553924
0.534367
0.534324
0.237927
0.237906
0.228872
0.228851
0.570743
0.607366
0.551191
0.587912
0.244425
0.258646
0.235375
0.249611
0.671175
0.701806
0.651854
0.682547
0.283138
0.299579
0.27408
0.290487
0.735848
0.705311
0.719698
0.689096
0.315669
0.29916
0.308043
0.291547
0.641725
0.605229
0.625376
0.588784
0.274611
0.260386
0.267007
0.252764
0.588427
0.588388
0.571934
0.571893
0.253852
0.253832
0.246216
0.246195
0.605113
0.64154
0.588664
0.625186
0.260327
0.274514
0.252703
0.266907
0.705071
0.735573
0.688849
0.719415
0.299026
0.315504
0.29141
0.307875
0.764041
0.733635
0.750567
0.720096
0.328974
0.312457
0.322605
0.306088
0.670323
0.634017
0.656656
0.620259
0.287912
0.273725
0.281542
0.267337
0.61731
0.617272
0.603505
0.603467
0.26722
0.267201
0.260817
0.260797
0.633907
0.670148
0.620146
0.656476
0.273669
0.287819
0.267279
0.281447
0.733408
0.76378
0.719863
0.750298
0.312329
0.328816
0.305958
0.322444
0.78746
0.757176
0.776285
0.745942
0.340039
0.323531
0.334749
0.318234
0.694126
0.657998
0.68277
0.646556
0.299003
0.284858
0.293699
0.279533
0.641381
0.641345
0.629895
0.629859
0.278382
0.278364
0.273042
0.273023
0.657893
0.693958
0.646449
0.682599
0.284803
0.298914
0.279477
0.293607
0.756959
0.78721
0.74572
0.77603
0.323407
0.339886
0.318108
0.334594
0.806739
0.776567
0.79756
0.767334
0.349165
0.332676
0.34481
0.328309
0.713767
0.677808
0.704419
0.668379
0.308178
0.294076
0.303798
0.289674
0.661276
0.661241
0.651804
0.65177
0.287628
0.28761
0.283213
0.283195
0.677708
0.713606
0.668276
0.704254
0.294023
0.308091
0.289621
0.30371
0.776358
0.806499
0.767121
0.797314
0.332556
0.349017
0.328187
0.344659
0.822428
0.792357
0.814984
0.784864
0.356612
0.340148
0.353068
0.33659
0.729796
0.693997
0.722193
0.686317
0.315687
0.30163
0.312112
0.298033
0.677544
0.677511
0.669825
0.669791
0.295209
0.295192
0.291598
0.291581
0.693899
0.72964
0.686218
0.722034
0.301579
0.315603
0.297981
0.312026
0.792155
0.822195
0.784659
0.814747
0.340031
0.356467
0.336471
0.352921
0.834968
0.804989
0.829047
0.799023
0.362587
0.346151
0.359754
0.343303
0.742657
0.707011
0.736586
0.700867
0.321737
0.307725
0.318868
0.304834
0.690635
0.690603
0.684453
0.68442
0.301332
0.301315
0.298427
0.29841
0.706917
0.742505
0.700771
0.736432
0.307675
0.321654
0.304783
0.318784
0.804792
0.834741
0.798823
0.828816
0.346037
0.362445
0.343187
0.359611
0.844741
0.814847
0.84016
0.810225
0.36727
0.350864
0.365063
0.348641
0.752734
0.717236
0.748012
0.712443
0.326503
0.312538
0.324256
0.310268
0.700934
0.700903
0.696104
0.696073
0.306171
0.306154
0.303888
0.303871
0.717144
0.752586
0.71235
0.747862
0.312489
0.326422
0.310218
0.324174
0.814655
0.844519
0.81003
0.839935
0.350752
0.36713
0.348528
0.364923
0.852046
0.822235
0.848666
0.818814
0.370803
0.354429
0.369156
0.352765
0.760338
0.724985
0.756819
0.721396
0.330129
0.316213
0.328436
0.314496
0.708756
0.708725
0.70513
0.705099
0.309871
0.309854
0.308142
0.308125
0.724894
0.760194
0.721304
0.756672
0.316165
0.330049
0.314447
0.328356
0.822047
0.851829
0.818624
0.848446
0.354319
0.370666
0.352653
0.369017
0.857138
0.827409
0.854837
0.825067
0.373305
0.356965
0.37216
0.355801
0.765728
0.730517
0.763286
0.728006
0.332734
0.31887
0.331538
0.317649
0.714362
0.714331
0.711814
0.711784
0.31255
0.312534
0.311318
0.311301
0.730429
0.765586
0.727917
0.763143
0.318822
0.332655
0.317601
0.331459
0.827225
0.856925
0.824881
0.854622
0.356856
0.37317
0.355692
0.372024
0.860216
0.830575
0.858901
0.829216
0.374871
0.358567
0.374184
0.357861
0.769114
0.734049
0.767651
0.732515
0.334414
0.320606
0.33367
0.319834
0.717968
0.717938
0.716396
0.716366
0.314307
0.314291
0.313525
0.313509
0.733962
0.768976
0.732427
0.767511
0.320559
0.334338
0.319787
0.333593
0.830399
0.860011
0.829034
0.858691
0.358461
0.374739
0.357753
0.37405
0.86143
0.831887
0.861035
0.831442
0.375576
0.359308
0.375313
0.359026
0.770663
0.735751
0.770101
0.735113
0.335249
0.3215
0.33492
0.321141
0.71975
0.719721
0.719071
0.719042
0.315223
0.315208
0.314853
0.314837
0.735667
0.77053
0.735028
0.769966
0.321454
0.335174
0.321094
0.334844
0.831722
0.861237
0.831269
0.860835
0.359206
0.375448
0.358921
0.375182
0.860928
0.831509
0.861357
0.831873
0.375484
0.359254
0.375602
0.359352
0.770531
0.735775
0.770784
0.735954
0.3353
0.321611
0.335353
0.321637
0.719852
0.719824
0.719995
0.719966
0.315357
0.315342
0.315372
0.315356
0.735692
0.7704
0.735871
0.770653
0.321565
0.335226
0.321592
0.335279
0.831348
0.860745
0.831714
0.861172
0.359154
0.375359
0.359253
0.375476
0.858858
0.829574
0.860066
0.830715
0.374662
0.358477
0.375151
0.358944
0.768838
0.734241
0.769869
0.735196
0.334641
0.321017
0.335055
0.321401
0.718397
0.718369
0.719315
0.719286
0.314796
0.314781
0.315165
0.31515
0.734158
0.768705
0.735113
0.769736
0.320972
0.334566
0.321356
0.334981
0.829397
0.858651
0.830543
0.85987
0.358371
0.374532
0.358841
0.375024
0.855268
0.826153
0.857222
0.828017
0.373136
0.356994
0.373967
0.3578
0.765669
0.731234
0.767422
0.732908
0.333288
0.319731
0.334034
0.320443
0.715469
0.715442
0.717105
0.717077
0.313541
0.313527
0.314238
0.314223
0.731152
0.765542
0.732826
0.767293
0.319687
0.333216
0.320399
0.33396
0.825999
0.85509
0.827855
0.85703
0.356897
0.373013
0.3577
0.37384
0.850329
0.821393
0.852956
0.82393
0.370973
0.354877
0.37212
0.356001
0.76112
0.726842
0.763557
0.729202
0.331292
0.317803
0.332356
0.318833
0.711157
0.711129
0.713477
0.713449
0.311646
0.311631
0.31266
0.312645
0.72676
0.760988
0.72912
0.763426
0.317758
0.331218
0.318788
0.332283
0.821221
0.850128
0.823762
0.852764
0.354773
0.370844
0.355898
0.371993
0.843974
0.815255
0.847305
0.818473
0.368159
0.352111
0.369631
0.353557
0.755223
0.721112
0.75833
0.724136
0.32867
0.315253
0.330045
0.316592
0.70551
0.705482
0.708492
0.708465
0.30913
0.309115
0.310452
0.310437
0.721031
0.755093
0.724055
0.758199
0.315209
0.328597
0.316548
0.329972
0.815086
0.84378
0.818305
0.847109
0.352011
0.368033
0.353455
0.369503
0.836223
0.807759
0.840256
0.811658
0.364704
0.348709
0.366497
0.350473
0.748006
0.714079
0.75177
0.717751
0.325434
0.312097
0.327115
0.313737
0.698566
0.698539
0.702193
0.702165
0.30601
0.305996
0.307632
0.307618
0.713999
0.747878
0.717671
0.751641
0.312053
0.325363
0.313694
0.327043
0.807593
0.83603
0.81149
0.840062
0.34861
0.36458
0.350373
0.366371
0.827109
0.798951
0.831817
0.8035
0.360625
0.344688
0.362727
0.346759
0.739503
0.705775
0.743906
0.710079
0.321601
0.308349
0.323579
0.310284
0.690359
0.690332
0.694614
0.694587
0.302302
0.302288
0.304217
0.304203
0.705696
0.739376
0.709999
0.743779
0.308306
0.32153
0.310241
0.323508
0.798787
0.826918
0.803335
0.831625
0.34459
0.360502
0.34666
0.362603
0.816674
0.788867
0.822039
0.79405
0.355936
0.340063
0.358342
0.342435
0.729747
0.696231
0.734773
0.701151
0.317182
0.304022
0.319452
0.306245
0.680917
0.68089
0.685786
0.685759
0.298017
0.298002
0.300219
0.300205
0.696153
0.729622
0.701073
0.734647
0.30398
0.317112
0.306203
0.319381
0.788705
0.816486
0.793887
0.821849
0.339966
0.355815
0.342337
0.358219
0.804947
0.777534
0.810955
0.78334
0.350652
0.334847
0.353354
0.337513
0.718761
0.685468
0.7244
0.690996
0.312188
0.299125
0.314745
0.301633
0.670261
0.670235
0.675735
0.675708
0.293163
0.293149
0.295649
0.295634
0.685391
0.718637
0.690918
0.724275
0.299083
0.312119
0.301591
0.314675
0.777374
0.804761
0.783178
0.810768
0.334751
0.350532
0.337417
0.353233
0.79195
0.764974
0.79859
0.771391
0.34478
0.329048
0.347775
0.332005
0.706565
0.673503
0.712807
0.67963
0.306628
0.293664
0.309467
0.296453
0.658407
0.658381
0.664478
0.664452
0.287747
0.287733
0.290513
0.290499
0.673426
0.706442
0.679553
0.712684
0.293623
0.306559
0.296412
0.309398
0.764815
0.791766
0.771231
0.798405
0.328953
0.344661
0.33191
0.347656
0.777704
0.7512
0.784966
0.758222
0.338329
0.322674
0.341613
0.325918
0.69317
0.660346
0.70001
0.667068
0.300504
0.287645
0.303625
0.290713
0.645364
0.645338
0.652029
0.652003
0.281773
0.281759
0.284818
0.284804
0.660271
0.693049
0.666992
0.699889
0.287604
0.300437
0.290672
0.303557
0.751043
0.777522
0.758064
0.784783
0.32258
0.338212
0.325824
0.341495
0.762228
0.736226
0.770103
0.743847
0.331306
0.315726
0.334876
0.319257
0.678585
0.646004
0.68602
0.653319
0.293821
0.281068
0.297222
0.284415
0.631138
0.631113
0.638395
0.638369
0.275242
0.275229
0.278566
0.278553
0.645929
0.678464
0.653243
0.685899
0.281027
0.293754
0.284374
0.297154
0.736071
0.762048
0.743691
0.769922
0.315634
0.33119
0.319164
0.334759
0.745542
0.720063
0.75402
0.728278
0.323716
0.308216
0.327568
0.312026
0.662814
0.630478
0.670841
0.638385
0.286581
0.273935
0.29026
0.27756
0.615728
0.615703
0.623577
0.623552
0.268156
0.268143
0.271758
0.271745
0.630403
0.662695
0.63831
0.670722
0.273895
0.286515
0.27752
0.290193
0.719909
0.745364
0.728123
0.753841
0.308125
0.323602
0.311934
0.327453
0.727665
0.702718
0.736738
0.711524
0.315566
0.300154
0.319699
0.304242
0.645859
0.613763
0.65448
0.622265
0.278784
0.266243
0.282742
0.270149
0.599128
0.599103
0.607573
0.607548
0.260511
0.260497
0.264393
0.26438
0.613689
0.645741
0.622191
0.654361
0.266203
0.278718
0.270109
0.282676
0.702566
0.727489
0.71137
0.73656
0.300063
0.315453
0.304151
0.319585
0.708609
0.684191
0.71827
0.693588
0.306855
0.29153
0.311269
0.295899
0.627711
0.595845
0.636929
0.604951
0.270424
0.257986
0.274665
0.262176
0.581321
0.581296
0.590373
0.590348
0.2523
0.252286
0.256467
0.256453
0.595772
0.627593
0.604877
0.636812
0.257946
0.270359
0.262136
0.2746
0.68404
0.708434
0.693436
0.718094
0.29144
0.306743
0.295809
0.311157
0.688383
0.664479
0.698628
0.674469
0.297579
0.282345
0.302276
0.286995
0.608355
0.576701
0.618179
0.586424
0.261495
0.249152
0.266021
0.253632
0.562279
0.562254
0.571953
0.571928
0.24351
0.243497
0.247968
0.247955
0.576628
0.608238
0.586351
0.618063
0.249113
0.26143
0.253593
0.265957
0.664329
0.68821
0.674318
0.698453
0.282257
0.297469
0.286906
0.302165
0.667014
0.643589
0.677825
0.654167
0.287737
0.272604
0.292718
0.277531
0.587773
0.556288
0.598214
0.566653
0.251984
0.239723
0.256803
0.244505
0.541944
0.54192
0.552275
0.55225
0.234117
0.234104
0.238882
0.238869
0.556215
0.587657
0.56658
0.598097
0.239684
0.251921
0.244466
0.25674
0.64344
0.666841
0.654017
0.677652
0.272517
0.287629
0.277444
0.292608
0.644588
0.621562
0.655908
0.6327
0.277349
0.262328
0.282598
0.267518
0.56593
0.534512
0.577008
0.545576
0.241877
0.229657
0.246998
0.234765
0.520195
0.520171
0.531255
0.53123
0.224069
0.224056
0.229171
0.229158
0.53444
0.565815
0.545503
0.576892
0.229619
0.241814
0.234726
0.246935
0.621414
0.644418
0.632551
0.655737
0.262242
0.277243
0.267431
0.28249
0.621474
0.598514
0.633057
0.610142
0.266543
0.2516
0.27197
0.257001
0.542711
0.511139
0.554505
0.523046
0.231122
0.218854
0.236578
0.224349
0.496761
0.496737
0.508711
0.508686
0.213251
0.213239
0.218758
0.218746
0.511068
0.542598
0.522975
0.554391
0.218817
0.231061
0.224312
0.236516
0.598368
0.621305
0.609996
0.632887
0.251516
0.266439
0.256916
0.271864
0.599292
0.574365
0.610022
0.586617
0.25598
0.2405
0.261128
0.246098
0.517492
0.485558
0.530437
0.498683
0.219475
0.207066
0.225438
0.213099
0.471114
0.471091
0.484253
0.484229
0.201455
0.201442
0.207483
0.20747
0.485489
0.517381
0.498613
0.530325
0.20703
0.219416
0.213063
0.225377
0.574222
0.599127
0.586472
0.609855
0.240419
0.255879
0.246014
0.261025
0.586652
0.544138
0.590622
0.561096
0.247403
0.226579
0.251453
0.234407
0.487536
0.456624
0.503416
0.471571
0.20584
0.19388
0.213022
0.200657
0.442659
0.442636
0.457249
0.457226
0.188504
0.188493
0.195112
0.1951
0.456556
0.487428
0.471502
0.503306
0.193845
0.205783
0.200622
0.212963
0.543999
0.586489
0.560955
0.590458
0.226501
0.247306
0.234327
0.251353
0.524544
0.485142
0.447875
0.415687
0.432942
0.397075
0.358049
0.33031
0.409158
0.362081
0.343074
0.299117
0.325069
0.281932
0.262754
0.223294
0.339812
0.339701
0.278719
0.278603
0.262003
0.261907
0.205481
0.205384
0.361754
0.408642
0.298773
0.342523
0.281646
0.324612
0.223002
0.262277
0.484496
0.523823
0.414984
0.447078
0.396492
0.432284
0.329689
0.357335
0.651609
0.609838
0.591373
0.550069
0.549443
0.510912
0.494833
0.456848
0.531967
0.483045
0.472412
0.423913
0.436532
0.391239
0.382882
0.338135
0.459604
0.459508
0.400793
0.400689
0.369974
0.369888
0.317256
0.317164
0.482766
0.531532
0.423609
0.471937
0.390987
0.436135
0.337865
0.382454
0.609299
0.651012
0.549478
0.590717
0.510411
0.548882
0.456307
0.494226
0.759143
0.717285
0.707374
0.665485
0.646004
0.607189
0.599614
0.560875
0.63999
0.591179
0.587813
0.538862
0.532954
0.48753
0.486476
0.441029
0.567669
0.567588
0.515332
0.515243
0.466074
0.466
0.419614
0.419535
0.590943
0.639623
0.538605
0.587414
0.487312
0.532612
0.440795
0.486107
0.716833
0.758644
0.664992
0.706828
0.606758
0.645522
0.560411
0.599094
0.851328
0.809763
0.807013
0.765282
0.72837
0.689632
0.688802
0.650004
0.733465
0.685153
0.688479
0.639901
0.615971
0.570804
0.576044
0.530729
0.661822
0.661752
0.616466
0.616391
0.549409
0.549344
0.509289
0.50922
0.684951
0.733152
0.639682
0.688141
0.570613
0.615671
0.530526
0.575724
0.809377
0.850904
0.764865
0.806553
0.689255
0.727949
0.649602
0.688352
0.929875
0.8887
0.892177
0.850806
0.798416
0.759874
0.764808
0.726162
0.813451
0.76572
0.775048
0.727027
0.686874
0.642062
0.652839
0.607846
0.742634
0.742573
0.703815
0.70375
0.620807
0.620749
0.586516
0.586455
0.765543
0.813178
0.726838
0.774755
0.641893
0.686608
0.607666
0.652557
0.888365
0.929506
0.850447
0.891781
0.75954
0.798042
0.725808
0.764412
0.996397
0.955624
0.964506
0.923538
0.857689
0.819383
0.829276
0.790853
0.881373
0.834218
0.848811
0.801374
0.747042
0.702606
0.718196
0.673575
0.811389
0.811334
0.778417
0.77836
0.681514
0.681461
0.652401
0.652346
0.834061
0.88113
0.801207
0.848554
0.702453
0.746801
0.673414
0.717943
0.955327
0.996071
0.923222
0.964159
0.819081
0.857352
0.790536
0.828921
1.05245
1.01206
1.02561
0.985036
0.907631
0.869565
0.883715
0.845532
0.938728
0.892115
0.911269
0.864394
0.797848
0.75378
0.77352
0.729273
0.869534
0.869485
0.841691
0.84164
0.732853
0.732805
0.708265
0.708215
0.891973
0.938508
0.864245
0.911039
0.753639
0.797628
0.729127
0.77329
1.01179
1.05216
0.984754
1.0253
0.869289
0.907322
0.845243
0.883392
1.09948
1.05943
1.07699
1.03678
0.949546
0.911707
0.929494
0.891546
0.986931
0.940819
0.963883
0.917529
0.840569
0.796846
0.820136
0.776246
0.91847
0.918425
0.895067
0.89502
0.77608
0.776035
0.755401
0.755355
0.940688
0.98673
0.917393
0.963673
0.796716
0.840364
0.776111
0.819924
1.05919
1.09921
1.03652
1.07671
0.911451
0.949259
0.89128
0.929196
1.13868
1.09895
1.11996
1.08008
0.984522
0.946895
0.967812
0.930084
1.0272
0.981548
1.00798
0.962103
0.87629
0.832891
0.85923
0.815676
0.959414
0.959373
0.939865
0.939822
0.812276
0.812234
0.794987
0.794944
0.981427
1.02702
0.961978
1.00778
0.832768
0.876098
0.815549
0.859032
1.09873
1.13843
1.07984
1.1197
0.946654
0.984253
0.929835
0.967533
1.17115
1.1317
1.15567
1.11609
1.01353
0.976094
0.999696
0.962169
1.06063
1.01539
1.0447
0.999267
0.905979
0.862879
0.891826
0.848582
0.993459
0.993419
0.977235
0.977194
0.842405
0.842365
0.828039
0.827998
1.01528
1.06046
0.99915
1.04452
0.862762
0.905797
0.848463
0.891639
1.13149
1.17092
1.11587
1.15543
0.975866
1.01327
0.961935
0.999433
1.19777
1.15857
1.18511
1.14579
1.03736
1.0001
1.02602
0.988676
1.08812
1.04327
1.07506
1.03002
0.930432
0.88761
0.918804
0.875848
1.02151
1.02147
1.00818
1.00814
0.867268
0.86723
0.855443
0.855404
1.04316
1.08795
1.02991
1.07489
0.887499
0.930258
0.875735
0.918626
1.15837
1.19755
1.14559
1.18489
0.999879
1.03712
0.988453
1.02577
1.21931
1.18033
1.20911
1.17003
1.05669
1.01959
1.04753
1.01035
1.11045
1.06595
1.09988
1.05521
0.950339
0.907777
0.940908
0.89822
1.04436
1.04433
1.03354
1.0335
0.887559
0.887523
0.877942
0.877905
1.06584
1.11029
1.0551
1.09972
0.90767
0.950172
0.898112
0.940737
1.18014
1.2191
1.16983
1.20889
1.01938
1.05646
1.01013
1.04729
1.23639
1.19762
1.22834
1.18948
1.07208
1.03512
1.06483
1.0278
1.12826
1.08408
1.11987
1.07554
0.966264
0.923945
0.958758
0.916323
1.06265
1.06262
1.05404
1.054
0.903845
0.90381
0.896165
0.896129
1.08398
1.1281
1.07544
1.11972
0.923842
0.966103
0.916218
0.958594
1.19744
1.23619
1.18929
1.22813
1.03492
1.07186
1.02759
1.06459
1.24955
1.21098
1.2434
1.20474
1.08401
1.04719
1.07843
1.04154
1.14209
1.09822
1.13563
1.09162
0.978691
0.936602
0.97288
0.93068
1.07694
1.07691
1.07026
1.07023
0.916613
0.916579
0.910637
0.910602
1.09813
1.14195
1.09152
1.13548
0.936502
0.978534
0.930579
0.972721
1.2108
1.24936
1.20456
1.2432
1.04699
1.08379
1.04134
1.07821
1.25922
1.22083
1.25477
1.21629
1.09285
1.05616
1.08877
1.05201
1.1524
1.10882
1.14766
1.10394
0.98801
0.946142
0.983709
0.941735
1.08768
1.08765
1.08273
1.0827
0.926261
0.926227
0.921801
0.921767
1.10873
1.15226
1.10384
1.14751
0.946045
0.987857
0.941636
0.983555
1.22066
1.25903
1.21612
1.25458
1.05596
1.09264
1.05182
1.08856
1.26576
1.22756
1.26284
1.22454
1.09892
1.06236
1.09619
1.05956
1.15956
1.11626
1.15635
1.11291
0.994549
0.952896
0.991601
0.949845
1.09525
1.09522
1.09184
1.09181
0.93312
0.933087
0.930016
0.929983
1.11617
1.15943
1.11282
1.15621
0.952801
0.9944
0.949748
0.99145
1.22739
1.26558
1.22438
1.26265
1.06217
1.09872
1.05938
1.09598
1.26947
1.23145
1.26793
1.22982
1.10248
1.06605
1.10098
1.06449
1.16388
1.12084
1.16205
1.11889
0.998577
0.957137
0.996855
0.955312
1.09997
1.09993
1.09795
1.09792
0.937464
0.937432
0.935588
0.935555
1.12075
1.16374
1.1188
1.16192
0.957044
0.998432
0.955218
0.996708
1.23129
1.2693
1.22966
1.26775
1.06587
1.10228
1.0643
1.10078
1.27059
1.23276
1.27032
1.23239
1.10373
1.06745
1.10336
1.06701
1.16559
1.12282
1.16504
1.12214
1.00031
0.959083
0.999711
0.958381
1.10208
1.10205
1.10133
1.1013
0.939517
0.939485
0.938761
0.93873
1.12274
1.16546
1.12206
1.16491
0.958993
1.00017
0.958289
0.999568
1.2326
1.27042
1.23224
1.27014
1.06727
1.10353
1.06683
1.10316
1.26931
1.23169
1.27021
1.23249
1.10285
1.06673
1.10352
1.06732
1.16494
1.12243
1.16554
1.12291
0.999938
0.958932
1.00036
0.959251
1.10181
1.10179
1.10223
1.1022
0.939471
0.93944
0.939738
0.939708
1.12235
1.16481
1.12282
1.16541
0.958842
0.999799
0.959162
1.00022
1.23154
1.26914
1.23233
1.27004
1.06656
1.10266
1.06715
1.10333
1.26579
1.2284
1.26779
1.23029
1.09995
1.06403
1.10161
1.06559
1.16206
1.11982
1.16376
1.12139
0.997602
0.956822
0.998999
0.958112
1.09933
1.09931
1.10084
1.10081
0.937472
0.937442
0.938708
0.938677
1.11974
1.16194
1.12131
1.16363
0.956734
0.997464
0.958023
0.99886
1.22825
1.26563
1.23014
1.26763
1.06386
1.09976
1.06542
1.10141
1.2602
1.22306
1.26323
1.22596
1.09525
1.05955
1.0978
1.06199
1.15712
1.11514
1.15984
1.11773
0.993445
0.952884
0.995739
0.955071
1.09478
1.09476
1.09731
1.09728
0.933641
0.933611
0.935775
0.935745
1.11506
1.157
1.11765
1.15971
0.952797
0.993309
0.954984
0.995602
1.22291
1.26004
1.22581
1.26306
1.05937
1.09506
1.06182
1.09761
1.25262
1.21575
1.25663
1.21962
1.08879
1.05332
1.09221
1.05662
1.15022
1.1085
1.1539
1.11206
0.987555
0.947214
0.990706
0.950257
1.08828
1.08825
1.09177
1.09174
0.92808
0.92805
0.931069
0.931039
1.10842
1.1501
1.11198
1.15378
0.947127
0.987419
0.95017
0.99057
1.21561
1.25247
1.21947
1.25647
1.05315
1.0886
1.05645
1.09202
1.24312
1.20655
1.24809
1.21136
1.08063
1.04543
1.0849
1.04956
1.14143
1.09999
1.14605
1.10447
0.979995
0.939879
0.983976
0.943749
1.07989
1.07986
1.08431
1.08429
0.920857
0.920827
0.92467
0.92464
1.09991
1.14131
1.10439
1.14593
0.939794
0.979861
0.943662
0.983841
1.20641
1.24297
1.21122
1.24793
1.04526
1.08044
1.04939
1.08471
1.23173
1.1955
1.23764
1.20123
1.07075
1.03585
1.07588
1.04082
1.13081
1.08964
1.13634
1.09504
0.970797
0.930925
0.975592
0.935599
1.06969
1.06966
1.07501
1.07498
0.912022
0.911993
0.916635
0.916606
1.08957
1.13069
1.09496
1.13622
0.93084
0.970665
0.935514
0.975459
1.19536
1.23157
1.20109
1.23748
1.03569
1.07057
1.04066
1.07569
1.21848
1.18264
1.22531
1.18927
1.0592
1.02466
1.06516
1.03044
1.1184
1.07753
1.12482
1.08381
0.960006
0.920393
0.965593
0.925851
1.05772
1.05769
1.06392
1.06389
0.901617
0.901588
0.907011
0.906982
1.07745
1.11829
1.08373
1.12471
0.92031
0.959875
0.925767
0.965461
1.1825
1.21833
1.18913
1.22515
1.0245
1.05902
1.03027
1.06498
1.20343
1.16802
1.21116
1.17553
1.04602
1.01189
1.05279
1.01845
1.10425
1.06368
1.11154
1.07082
0.947661
0.908321
0.95402
0.914545
1.04402
1.04399
1.05108
1.05106
0.889678
0.88965
0.895835
0.895807
1.06361
1.10414
1.07074
1.11142
0.908239
0.947532
0.914462
0.95389
1.16788
1.20329
1.17539
1.211
1.01173
1.04584
1.01829
1.05261
1.18663
1.15168
1.19523
1.16004
1.03126
0.997578
1.03882
1.00491
1.08839
1.04813
1.09653
1.05612
0.933792
0.894736
0.94091
0.901714
1.02862
1.0286
1.03653
1.03651
0.876232
0.876204
0.88314
0.883112
1.04806
1.08828
1.05604
1.09642
0.894655
0.933664
0.901632
0.940782
1.15154
1.18648
1.15991
1.19508
0.99742
1.03108
1.00475
1.03864
1.16809
1.13364
1.17755
1.14285
1.01494
0.981748
1.02327
0.989832
1.07085
1.03091
1.07983
1.03973
0.918421
0.879658
0.926288
0.88738
1.01155
1.01152
1.0203
1.02027
0.861297
0.861269
0.868947
0.868919
1.03083
1.07073
1.03965
1.07971
0.879577
0.918294
0.887299
0.926161
1.13351
1.16794
1.14272
1.1774
0.981592
1.01477
0.989675
1.0231
1.14785
1.11393
1.15816
1.12398
0.99709
0.96442
1.00619
0.973252
1.05163
1.01201
1.06144
1.02166
0.901561
0.863098
0.910172
0.87156
0.992808
0.992783
1.00239
1.00236
0.844882
0.844854
0.853272
0.853244
1.01193
1.05152
1.02159
1.06133
0.863018
0.901436
0.87148
0.910046
1.1138
1.1477
1.12384
1.15801
0.964265
0.996916
0.973095
1.00601
1.12593
1.09256
1.13707
1.10343
0.977726
0.94561
0.987575
0.95518
1.03075
0.991442
1.04139
1.00193
0.883223
0.845061
0.892572
0.854261
0.9724
0.972374
0.982812
0.982786
0.826991
0.826964
0.836119
0.836091
0.991368
1.03063
1.00186
1.04128
0.844981
0.883099
0.854181
0.892447
1.09243
1.12579
1.1033
1.13693
0.945456
0.977554
0.955026
0.987402
1.10235
1.06954
1.11432
1.08124
0.956873
0.925326
0.967464
0.935633
1.0082
0.969208
1.01968
0.980533
0.863409
0.825544
0.873496
0.835485
0.950318
0.950292
0.961568
0.961543
0.80762
0.807592
0.817489
0.817461
0.969134
1.00809
0.980459
1.01957
0.825465
0.863285
0.835406
0.873372
1.06941
1.10221
1.0811
1.11418
0.925174
0.956702
0.935479
0.967292
1.07713
1.04489
1.08992
1.0574
0.934551
0.903576
0.945875
0.914616
0.983995
0.94529
0.996305
0.957459
0.842113
0.804538
0.852942
0.815226
0.926545
0.926519
0.938643
0.938618
0.786754
0.786727
0.797372
0.797345
0.945217
0.983883
0.957386
0.996194
0.804459
0.841991
0.815147
0.852819
1.04476
1.07699
1.05727
1.08978
0.903424
0.934381
0.914463
0.945704
1.05028
1.01859
1.06389
1.03192
0.910772
0.88036
0.922824
0.892133
0.958102
0.919664
0.971256
0.932691
0.819325
0.782022
0.830903
0.793468
0.90105
0.901024
0.914014
0.913989
0.76437
0.764343
0.775752
0.775725
0.919591
0.957991
0.932618
0.971145
0.781943
0.819203
0.793389
0.83078
1.01845
1.05014
1.03179
1.06374
0.880209
0.910603
0.891982
0.922654
1.02183
0.990643
1.03623
1.0048
0.885556
0.855678
0.898323
0.868185
0.930505
0.892288
0.944514
0.906196
0.795025
0.75796
0.807361
0.770184
0.873782
0.873757
0.887641
0.887615
0.740424
0.740397
0.752593
0.752566
0.892215
0.930393
0.906123
0.944403
0.757881
0.794903
0.770106
0.807239
0.990512
1.02169
1.00467
1.03609
0.855528
0.885387
0.868034
0.898154
0.991844
0.961088
1.007
0.976045
0.858949
0.829546
0.872402
0.842774
0.901178
0.863096
0.916056
0.877924
0.769185
0.732293
0.782295
0.74533
0.844653
0.844628
0.859458
0.859432
0.714837
0.71481
0.72784
0.727813
0.863022
0.901066
0.87785
0.915944
0.732214
0.769063
0.745251
0.782173
0.960956
0.991702
0.975913
1.00686
0.829396
0.858781
0.842624
0.872234
0.960518
0.930013
0.976305
0.945712
0.831106
0.802028
0.845145
0.815936
0.870081
0.83195
0.885852
0.847779
0.741763
0.704897
0.755672
0.71882
0.813478
0.813452
0.829338
0.829312
0.687448
0.687421
0.701381
0.701354
0.831876
0.869969
0.847706
0.88574
0.704819
0.741642
0.718742
0.75555
0.92988
0.960375
0.945579
0.976161
0.801879
0.830939
0.815786
0.844978
0.928514
0.89765
0.944502
0.913954
0.802567
0.773301
0.816839
0.787785
0.837073
0.798522
0.853833
0.815554
0.712619
0.675478
0.727422
0.690469
0.779862
0.779836
0.797011
0.796985
0.657911
0.657885
0.672979
0.672952
0.798448
0.83696
0.81548
0.85372
0.675401
0.712498
0.690391
0.727301
0.897517
0.92837
0.913821
0.944357
0.773152
0.8024
0.787636
0.816672
0.898367
0.864092
0.912846
0.881044
0.775492
0.74334
0.78853
0.758509
0.801403
0.761979
0.819674
0.780721
0.681033
0.643289
0.697228
0.659802
0.743035
0.743009
0.761911
0.761885
0.625557
0.625531
0.642138
0.642111
0.761905
0.80129
0.780647
0.819562
0.643213
0.680913
0.659724
0.697108
0.863958
0.898223
0.880911
0.912701
0.743193
0.775328
0.758361
0.788365
0.88222
0.823908
0.886915
0.846067
0.760844
0.70684
0.765108
0.727088
0.759824
0.720755
0.781728
0.742049
0.643978
0.606952
0.663533
0.625718
0.702033
0.702007
0.723093
0.723067
0.589582
0.589556
0.608047
0.608021
0.720681
0.759712
0.741975
0.781616
0.606877
0.64386
0.625642
0.663415
0.823776
0.88208
0.845934
0.886771
0.706695
0.760683
0.726942
0.764945
0.673749
0.631889
0.596376
0.560923
0.603528
0.562464
0.52625
0.491904
0.553794
0.503906
0.48465
0.436742
0.484885
0.435894
0.416811
0.370332
0.479755
0.479627
0.413904
0.413767
0.412387
0.412266
0.348408
0.348279
0.503537
0.553223
0.436343
0.484025
0.43554
0.484334
0.369955
0.416214
0.631188
0.672977
0.560143
0.595504
0.561782
0.602772
0.491152
0.525404
0.810915
0.767328
0.744959
0.701589
0.736827
0.693736
0.673122
0.630369
0.688313
0.637357
0.62238
0.571547
0.614789
0.564352
0.551417
0.501248
0.612466
0.612361
0.546811
0.546695
0.53989
0.539788
0.477025
0.476913
0.637056
0.687851
0.571212
0.621864
0.564057
0.614334
0.500924
0.550915
0.766766
0.810301
0.70096
0.74427
0.693179
0.736215
0.629752
0.672442
0.930925
0.887655
0.872877
0.829385
0.851686
0.808724
0.796258
0.753161
0.809923
0.759555
0.750939
0.700203
0.730743
0.680669
0.674617
0.624282
0.73485
0.734765
0.675359
0.675265
0.656272
0.656187
0.599801
0.599709
0.75931
0.809549
0.699932
0.750523
0.680426
0.730368
0.624014
0.674204
0.887204
0.930434
0.828882
0.872328
0.808267
0.851186
0.752657
0.795705
1.0351
0.992463
0.98492
0.941955
0.950759
0.908278
0.903088
0.860351
0.916361
0.866909
0.865042
0.815121
0.831646
0.782297
0.783043
0.733317
0.842599
0.842529
0.790604
0.790527
0.758194
0.758123
0.709055
0.708978
0.866706
0.916053
0.814899
0.864704
0.782092
0.831332
0.733094
0.782701
0.992095
1.0347
0.941548
0.984477
0.907898
0.950343
0.859934
0.902632
1.12435
1.08241
1.08147
1.03919
1.03539
0.993469
0.994755
0.952555
1.00792
0.95942
0.963922
0.914954
0.918199
0.869634
0.876626
0.827673
0.935545
0.935486
0.890862
0.890797
0.845878
0.845817
0.803743
0.803677
0.95925
1.00766
0.914768
0.963641
0.869458
0.917931
0.827484
0.876337
1.08211
1.12402
1.03886
1.08111
0.993144
1.03504
0.952204
0.994371
1.20014
1.15887
1.16379
1.1222
1.10715
1.06578
1.07274
1.0311
1.08586
1.03826
1.04848
1.00045
0.991776
0.943965
0.956498
0.908319
1.01481
1.01476
0.976786
0.976731
0.920553
0.9205
0.884738
0.884681
1.03812
1.08564
1.00029
1.04825
0.943811
0.991542
0.908156
0.956247
1.15861
1.19986
1.12192
1.16348
1.06549
1.10684
1.0308
1.07241
1.26406
1.2234
1.23345
1.1925
1.16764
1.12677
1.13867
1.09756