/*--------------------------------*- C++ -*----------------------------------*\
  =========                 |
  \\      /  F ield         | OpenFOAM: The Open Source CFD Toolbox
   \\    /   O peration     | Website:  https://openfoam.org
    \\  /    A nd           | Version:  9
     \\/     M anipulation  |
\*---------------------------------------------------------------------------*/
FoamFile
{
    format      ascii;
    class       volScalarField;
    location    "4.95";
    object      nut;
}
// * * * * * * * * * * * * * * * * * * * * * * * * * * * * * * * * * * * * * //

dimensions      [0 2 -1 0 0 0 0];

internalField   nonuniform List<scalar> 
36360
(
0.00876486
0.00854189
0.00758599
0.0074408
0.000999492
0.00095676
0.000777576
0.000808084
0.00803526
0.0078987
0.00691875
0.00680567
0.000847414
0.00077523
0.00068071
0.000601837
0.00791298
0.00791153
0.00685582
0.00685453
0.000742266
0.000742094
0.000568962
0.000568785
0.00789378
0.00802609
0.0068008
0.00690893
0.00077472
0.000846611
0.000601284
0.0006798
0.00852857
0.00874713
0.00742607
0.00756598
0.00095576
0.000998299
0.00080694
0.000776212
0.0103877
0.0102561
0.00962592
0.00944893
0.00119355
0.00114047
0.00111145
0.00105844
0.0098227
0.00965409
0.00897831
0.00882049
0.00104521
0.000984263
0.000956775
0.000890752
0.00961626
0.00961484
0.00880307
0.0088016
0.000955667
0.000955531
0.000859987
0.000859834
0.00964962
0.0098149
0.00881576
0.00896985
0.000983866
0.00104459
0.000890303
0.000956075
0.010245
0.010373
0.00943682
0.0096099
0.00113969
0.00119264
0.00105757
0.00111042
0.0117151
0.0116307
0.0110808
0.010977
0.00132269
0.00127127
0.00126248
0.0012102
0.0112462
0.0110712
0.0105712
0.0103972
0.00118558
0.00113177
0.00112025
0.00106328
0.0110114
0.0110101
0.0103458
0.0103444
0.0011064
0.00110629
0.00103646
0.00103634
0.0110673
0.0112395
0.010393
0.010564
0.00113145
0.00118507
0.00106293
0.00111969
0.0116211
0.0117024
0.0109667
0.0110672
0.00127063
0.00132194
0.0012095
0.00126166
0.0128029
0.0127471
0.0122845
0.0122154
0.0014228
0.00137319
0.00137565
0.00132512
0.0123907
0.0122173
0.0118465
0.0116716
0.00129371
0.0012445
0.00124286
0.00119158
0.0121487
0.0121476
0.0116062
0.011605
0.00122127
0.00122118
0.00116738
0.00116728
0.0122138
0.0123848
0.0116679
0.0118402
0.00124423
0.00129329
0.00119129
0.0012424
0.0127386
0.0127915
0.0122064
0.0122725
0.00137264
0.00142216
0.00132453
0.00137495
0.0136903
0.0136553
0.0132672
0.0132223
0.00150238
0.0014545
0.00146474
0.00141601
0.0133172
0.0131478
0.0128757
0.012704
0.00137932
0.00133325
0.00133886
0.00129136
0.0130764
0.0130753
0.0126334
0.0126323
0.00131156
0.00131148
0.00126895
0.00126887
0.0131447
0.0133119
0.0127007
0.0128701
0.00133302
0.00137895
0.00129111
0.00133847
0.0136476
0.01368
0.0132143
0.0132564
0.00145402
0.00150182
0.0014155
0.00146414
0.0144155
0.0143965
0.0140692
0.0140424
0.00156643
0.00152007
0.00153605
0.00148895
0.0140718
0.0139066
0.0137113
0.013544
0.00144804
0.00140429
0.00141546
0.00137063
0.0138352
0.0138342
0.0134722
0.0134712
0.00138371
0.00138364
0.00134954
0.00134946
0.0139038
0.0140669
0.013541
0.0137063
0.00140408
0.00144771
0.00137041
0.00141511
0.0143895
0.0144059
0.0140351
0.0140592
0.00151964
0.00156592
0.0014885
0.00153551
0.0150101
0.0150038
0.0147257
0.0147132
0.00161838
0.00157331
0.00159369
0.001548
0.0146894
0.0145281
0.0143938
0.0142305
0.00150371
0.00146172
0.00147727
0.00143445
0.0144576
0.0144567
0.0141594
0.0141585
0.00144199
0.00144193
0.00141433
0.00141426
0.0145255
0.0146849
0.0142277
0.0143891
0.00146153
0.00150341
0.00143426
0.00147695
0.0149973
0.0150011
0.0147064
0.0147164
0.00157293
0.00161791
0.00154759
0.0015932
0.015499
0.0155028
0.0152648
0.0152636
0.00166074
0.00161676
0.00164058
0.00159608
0.015197
0.015039
0.0149536
0.0147939
0.00154906
0.00150844
0.00152749
0.00148622
0.0149691
0.0149682
0.0147236
0.0147227
0.00148941
0.00148935
0.00146686
0.0014668
0.0150365
0.0151928
0.0147913
0.0149492
0.00150827
0.00154879
0.00148605
0.0015272
0.0154967
0.0154905
0.0152573
0.015256
0.0016164
0.00166031
0.00159571
0.00164014
0.0159012
0.0159133
0.0157083
0.0157163
0.00169534
0.00165227
0.00167887
0.00163536
0.0156146
0.0154594
0.0154141
0.0152574
0.00158609
0.00154655
0.00156847
0.00152842
0.0153901
0.0153893
0.0151877
0.0151869
0.00152808
0.00152802
0.00150968
0.00150962
0.015457
0.0156105
0.015255
0.0154099
0.00154639
0.00158583
0.00152825
0.0015682
0.0159074
0.015893
0.0157103
0.0156999
0.00165193
0.00169494
0.00163501
0.00167845
0.0162316
0.0162505
0.0160729
0.0160885
0.00172359
0.00168126
0.00171015
0.00166745
0.0159577
0.015805
0.0157927
0.0156387
0.00161632
0.00157765
0.00160193
0.00156285
0.0157363
0.0157356
0.0155697
0.0155689
0.00155963
0.00155958
0.00154462
0.00154456
0.0158027
0.0159538
0.0156364
0.0157888
0.0015775
0.00161608
0.0015627
0.00160168
0.0162449
0.0162237
0.0160827
0.0160649
0.00168094
0.00172321
0.00166713
0.00170975
0.0165018
0.0165263
0.016372
0.0163937
0.00174655
0.00170483
0.00173563
0.00169362
0.0162384
0.0160878
0.0161033
0.0159516
0.0016409
0.00160295
0.00162921
0.00159092
0.0160198
0.0160191
0.0158832
0.0158825
0.00158529
0.00158524
0.00157309
0.00157304
0.0160856
0.0162347
0.0159494
0.0160995
0.0016028
0.00164067
0.00159077
0.00162898
0.0165209
0.0164942
0.0163881
0.0163642
0.00170453
0.00174618
0.00169331
0.00173525
0.0167211
0.0167502
0.0166157
0.0166425
0.00176505
0.00172385
0.00175627
0.00171482
0.0164665
0.0163177
0.0163567
0.0162069
0.00166075
0.00162338
0.00165133
0.00161368
0.0162503
0.0162496
0.0161392
0.0161385
0.00160603
0.00160598
0.00159618
0.00159614
0.0163156
0.0164629
0.0162048
0.016353
0.00162325
0.00166053
0.00161354
0.00165111
0.0167449
0.0167137
0.0166371
0.0166082
0.00172356
0.0017647
0.00171452
0.00175591
0.0168967
0.0169295
0.0168124
0.0168433
0.00177977
0.00173899
0.00177281
0.00173182
0.0166494
0.0165022
0.0165613
0.0164133
0.00167658
0.00163969
0.00166909
0.00163197
0.0164354
0.0164347
0.0163461
0.0163455
0.00162258
0.00162253
0.00161474
0.0016147
0.0165002
0.0166458
0.0164112
0.0165577
0.00163955
0.00167636
0.00163184
0.00166887
0.0169244
0.0168894
0.016838
0.016805
0.0017387
0.00177942
0.00173153
0.00177245
0.0170346
0.0170704
0.0169685
0.0170027
0.00179121
0.00175077
0.00178583
0.00174522
0.0167932
0.0166476
0.016724
0.0165776
0.00168894
0.00165245
0.00168312
0.00164644
0.0165813
0.0165806
0.0165109
0.0165103
0.00163554
0.0016355
0.00162944
0.00162939
0.0166455
0.0167898
0.0165755
0.0167205
0.00165232
0.00168873
0.00164631
0.00168291
0.0170654
0.0170274
0.0169976
0.0169612
0.00175049
0.00179087
0.00174494
0.00178548
0.0171392
0.0171776
0.0170892
0.0171263
0.0017998
0.00175963
0.0017958
0.0017555
0.0169029
0.0167584
0.0168503
0.0167052
0.00169828
0.00166212
0.00169392
0.00165761
0.0166928
0.0166921
0.0166391
0.0166384
0.00164538
0.00164534
0.00164079
0.00164075
0.0167564
0.0168995
0.0167032
0.0168468
0.001662
0.00169807
0.00165748
0.00169372
0.0171726
0.0171321
0.0171212
0.0170821
0.00175936
0.00179947
0.00175523
0.00179546
0.0172144
0.0172549
0.0171787
0.0172181
0.00180585
0.00176591
0.00180309
0.00176304
0.0169822
0.0168388
0.0169443
0.0168003
0.00170496
0.00166908
0.0017019
0.00166589
0.0167738
0.0167732
0.0167349
0.0167343
0.00165247
0.00165243
0.00164921
0.00164917
0.0168368
0.0169788
0.0167983
0.0169409
0.00166896
0.00170476
0.00166576
0.00170169
0.01725
0.0172074
0.0172131
0.0171717
0.00176564
0.00180553
0.00176276
0.00180276
0.0172631
0.0173053
0.0172403
0.0172815
0.00180963
0.00176986
0.00180798
0.00176812
0.0170342
0.0168918
0.0170096
0.0168666
0.00170925
0.00167361
0.00170735
0.0016716
0.0168276
0.016827
0.016802
0.0168014
0.0016571
0.00165706
0.00165504
0.001655
0.0168899
0.0170309
0.0168647
0.0170063
0.00167349
0.00170906
0.00167148
0.00170715
0.0173004
0.0172562
0.0172767
0.0172334
0.0017696
0.00180931
0.00176786
0.00180765
0.0172877
0.0173313
0.0172767
0.0173195
0.00181133
0.00177169
0.0018107
0.001771
0.0170616
0.01692
0.017049
0.016907
0.00171138
0.00167594
0.00171054
0.00167501
0.0168568
0.0168561
0.0168432
0.0168426
0.00165951
0.00165947
0.00165854
0.0016585
0.016918
0.0170583
0.016905
0.0170457
0.00167582
0.00171119
0.00167489
0.00171035
0.0173265
0.0172808
0.0173146
0.0172697
0.00177144
0.00181102
0.00177074
0.00181038
0.0172898
0.0173348
0.0172898
0.0173339
0.0018111
0.00177155
0.00181139
0.0017718
0.0170659
0.0169249
0.0170647
0.0169234
0.00171151
0.00167623
0.00171164
0.0016763
0.0168624
0.0168618
0.0168607
0.01686
0.00165986
0.00165982
0.0016599
0.00165986
0.016923
0.0170626
0.0169215
0.0170614
0.00167611
0.00171132
0.00167618
0.00171145
0.01733
0.017283
0.0173291
0.0172829
0.00177131
0.0018108
0.00177155
0.00181109
0.0172706
0.017317
0.0172811
0.0173266
0.00180912
0.00176963
0.0018103
0.00177079
0.0170489
0.0169083
0.0170582
0.0169174
0.00170982
0.00167468
0.00171088
0.00167568
0.016846
0.0168454
0.016855
0.0168544
0.00165838
0.00165834
0.00165935
0.00165931
0.0169064
0.0170457
0.0169155
0.017055
0.00167456
0.00170963
0.00167556
0.00171069
0.0173122
0.0172639
0.0173219
0.0172743
0.00176937
0.0018088
0.00177053
0.00180999
0.017232
0.0172795
0.0172521
0.0172989
0.00180543
0.00176597
0.00180744
0.00176796
0.0170114
0.0168712
0.0170309
0.0168903
0.00170636
0.00167132
0.00170827
0.00167318
0.0168091
0.0168085
0.0168281
0.0168275
0.00165507
0.00165503
0.00165691
0.00165687
0.0168693
0.0170083
0.0168884
0.0170277
0.0016712
0.00170618
0.00167306
0.00170808
0.0172749
0.0172252
0.0172942
0.0172454
0.00176573
0.00180513
0.00176772
0.00180713
0.0171739
0.0172229
0.0172037
0.0172518
0.00180019
0.00176072
0.00180297
0.00176351
0.0169541
0.0168144
0.0169833
0.0168433
0.00170124
0.00166627
0.00170397
0.00166897
0.0167525
0.0167519
0.0167813
0.0167807
0.00165006
0.00165002
0.00165274
0.0016527
0.0168125
0.016951
0.0168414
0.0169802
0.00166615
0.00170105
0.00166885
0.00170378
0.0172183
0.0171673
0.0172472
0.017197
0.00176047
0.00179988
0.00176326
0.00180266
0.0170973
0.0171478
0.0171362
0.0171858
0.00179335
0.00175385
0.00179693
0.00175745
0.0168782
0.0167386
0.0169166
0.0167769
0.0016945
0.00165957
0.00169804
0.00166309
0.0166769
0.0166763
0.0167151
0.0167145
0.00164339
0.00164335
0.0016469
0.00164686
0.0167368
0.016875
0.0167751
0.0169135
0.00165946
0.00169431
0.00166298
0.00169785
0.0171432
0.0170907
0.0171812
0.0171296
0.0017536
0.00179304
0.00175719
0.00179662
0.0170023
0.0170545
0.0170505
0.0171017
0.00178491
0.00174536
0.00178929
0.00174976
0.0167837
0.0166442
0.0168314
0.0166918
0.00168614
0.00165124
0.00169048
0.00165558
0.0165825
0.016582
0.0166301
0.0166295
0.00163508
0.00163504
0.0016394
0.00163936
0.0166423
0.0167806
0.01669
0.0168283
0.00165113
0.00168595
0.00165546
0.0016903
0.0170499
0.0169957
0.017097
0.0170439
0.00174511
0.00178461
0.00174952
0.00178899
0.0168891
0.0169431
0.0169464
0.0169993
0.0017749
0.00173526
0.00178007
0.00174047
0.0166709
0.0165312
0.0167277
0.016588
0.00167618
0.0016413
0.00168132
0.00164644
0.0164696
0.016469
0.0165264
0.0165258
0.00162514
0.0016251
0.00163028
0.00163024
0.0165294
0.0166678
0.0165862
0.0167246
0.00164119
0.00167599
0.00164633
0.00168114
0.0169385
0.0168825
0.0169947
0.0169398
0.00173502
0.0017746
0.00174022
0.00177977
0.0167576
0.0168137
0.016824
0.0168789
0.00176333
0.00172359
0.00176928
0.00172958
0.0165397
0.0163997
0.0166057
0.0164658
0.00166462
0.00162975
0.00167057
0.00163569
0.0163381
0.0163375
0.0164042
0.0164036
0.00161358
0.00161354
0.00161953
0.00161949
0.0163979
0.0165366
0.016464
0.0166026
0.00162963
0.00166444
0.00163558
0.00167038
0.0168092
0.0167511
0.0168744
0.0168174
0.00172334
0.00176303
0.00172934
0.00176898
0.0166078
0.0166663
0.0166834
0.0167406
0.00175019
0.00171032
0.00175692
0.00171711
0.0163901
0.0162497
0.0164654
0.0163251
0.00165147
0.00161657
0.00165822
0.00162333
0.016188
0.0161874
0.0162634
0.0162628
0.00160039
0.00160035
0.00160716
0.00160712
0.0162479
0.016387
0.0163233
0.0164623
0.00161646
0.00165129
0.00162322
0.00165803
0.0166618
0.0166013
0.016736
0.0166769
0.00171007
0.00174989
0.00171687
0.00175662
0.0164397
0.0165007
0.0165244
0.0165841
0.00173548
0.00169544
0.001743
0.00170304
0.0162219
0.016081
0.0163065
0.0161658
0.0016367
0.00160175
0.00164426
0.00160933
0.0160191
0.0160185
0.0161039
0.0161033
0.00158554
0.0015855
0.00159314
0.0015931
0.0160792
0.0162189
0.016164
0.0163035
0.00160164
0.00163651
0.00160922
0.00164407
0.0164962
0.0164332
0.0165795
0.016518
0.0016952
0.00173518
0.0017028
0.0017427
0.0162528
0.0163164
0.016347
0.0164092
0.00171917
0.00167894
0.00172749
0.00168736
0.0160348
0.0158931
0.016129
0.0159875
0.00162027
0.00158525
0.00162866
0.00159368
0.015831
0.0158304
0.0159255
0.0159249
0.001569
0.00156896
0.00157745
0.00157741
0.0158913
0.0160318
0.0159858
0.0161259
0.00158514
0.00162009
0.00159357
0.00162848
0.0163119
0.0162463
0.0164047
0.0163405
0.0016787
0.00171887
0.00168712
0.00172719
0.0160466
0.0161129
0.0161505
0.0162154
0.00170123
0.00166077
0.00171037
0.00167003
0.0158283
0.0156856
0.0159322
0.0157899
0.00160216
0.00156702
0.0016114
0.00157633
0.0156233
0.0156227
0.0157276
0.0157271
0.00155071
0.00155067
0.00156004
0.00156001
0.0156839
0.0158252
0.0157882
0.0159292
0.00156691
0.00160198
0.00157621
0.00161122
0.0161085
0.0160403
0.0162109
0.0161441
0.00166053
0.00170093
0.00166979
0.00171007
0.0158208
0.0158897
0.0159346
0.0160021
0.00168163
0.0016409
0.00169161
0.00165101
0.0156016
0.0154579
0.0157156
0.0155724
0.0015823
0.00154702
0.00159242
0.00155722
0.0153952
0.0153946
0.0155098
0.0155093
0.00153062
0.00153058
0.00154087
0.00154083
0.0154561
0.0155985
0.0155706
0.0157126
0.0015469
0.00158212
0.00155711
0.00159224
0.0158853
0.0158145
0.0159976
0.0159283
0.00164066
0.00168134
0.00165077
0.00169131
0.0155745
0.0156458
0.0156987
0.0157687
0.00166033
0.0016193
0.00167117
0.00163029
0.0153539
0.0152089
0.0154786
0.0153342
0.00156063
0.00152515
0.00157167
0.00153629
0.015146
0.0151454
0.0152713
0.0152707
0.00150865
0.00150861
0.00151985
0.00151981
0.0152071
0.0153508
0.0153324
0.0154756
0.00152503
0.00156045
0.00153618
0.00157148
0.0156414
0.0155682
0.0157643
0.0156924
0.00161906
0.00166004
0.00163005
0.00167087
0.0153063
0.0153798
0.0154416
0.015514
0.00163726
0.00159587
0.00164899
0.00160779
0.0150838
0.0149375
0.0152199
0.0150742
0.00153706
0.00150131
0.00154906
0.00151345
0.0148742
0.0148737
0.015011
0.0150104
0.00148469
0.00148465
0.0014969
0.00149686
0.0149357
0.0150808
0.0150724
0.0152169
0.0015012
0.00153687
0.00151334
0.00154887
0.0153754
0.0153001
0.0155096
0.0154354
0.00159563
0.00163696
0.00160754
0.00164869
0.0150147
0.0150899
0.015162
0.0152363
0.00161232
0.00157053
0.001625
0.00158341
0.0147898
0.014642
0.0149381
0.014791
0.00151147
0.00147539
0.00152449
0.0014886
0.0145784
0.0145778
0.0147275
0.0147269
0.0014586
0.00145856
0.00147189
0.00147185
0.0146402
0.0147867
0.0147892
0.0149351
0.00147528
0.00151128
0.00148848
0.00152431
0.0150855
0.0150085
0.0152318
0.0151557
0.00157029
0.00161203
0.00158317
0.0016247
0.0146974
0.0147739
0.0148579
0.0149336
0.00158544
0.00154321
0.0015991
0.00155709
0.0144696
0.01432
0.0146313
0.0144826
0.00148373
0.00144721
0.00149785
0.00146157
0.0142561
0.0142555
0.0144188
0.0144182
0.0014302
0.00143016
0.00144468
0.00144464
0.0143182
0.0144666
0.0144808
0.0146283
0.00144709
0.00148355
0.00146145
0.00149767
0.0147695
0.0146912
0.0149292
0.0148517
0.00154296
0.00158514
0.00155684
0.0015988
0.0143517
0.0144292
0.0145267
0.0146037
0.00155656
0.00151384
0.00157122
0.00152875
0.0141203
0.0139681
0.0142971
0.0141462
0.00145368
0.00141651
0.00146898
0.00143217
0.0139034
0.0139029
0.0140819
0.0140813
0.00139918
0.00139914
0.00141502
0.00141498
0.0139663
0.0141173
0.0141444
0.0142941
0.00141639
0.00145349
0.00143205
0.0014688
0.0144248
0.0143456
0.0145993
0.0145206
0.0015136
0.00155626
0.0015285
0.00157092
0.013976
0.014053
0.014166
0.0142436
0.00152594
0.00148257
0.00154139
0.0014984
0.0137371
0.0135804
0.0139317
0.0137774
0.001421
0.0013828
0.00143767
0.00140005
0.0135146
0.013514
0.0137121
0.0137115
0.00136499
0.00136495
0.0013825
0.00138246
0.0135787
0.0137342
0.0137756
0.0139287
0.00138268
0.00142081
0.00139993
0.00143748
0.0140487
0.0139701
0.0142393
0.0141599
0.00148233
0.00152564
0.00149815
0.00154109
0.0135839
0.0136403
0.0137778
0.0138502
0.0014954
0.0014495
0.00151036
0.00146627
0.0133088
0.013147
0.0135281
0.0133683
0.00138474
0.00134505
0.00140342
0.0013645
0.0130814
0.0130809
0.013302
0.0133014
0.00132671
0.00132667
0.00134641
0.00134637
0.0131454
0.0133059
0.0133666
0.0135252
0.00134493
0.00138455
0.00136438
0.00140323
0.0136361
0.0135781
0.0138459
0.0137719
0.00144926
0.00149511
0.00146603
0.00151006
0.0132763
0.0131485
0.0134071
0.0134113
0.00147014
0.00140693
0.00148212
0.00143103
0.0128089
0.0126626
0.0130677
0.0129083
0.00134104
0.00130152
0.00136423
0.00132407
0.0126062
0.0126057
0.0128456
0.0128451
0.00128337
0.00128333
0.00130566
0.00130562
0.0126609
0.0128062
0.0129067
0.0130649
0.00130141
0.00134086
0.00132396
0.00136404
0.0131446
0.0132708
0.0134072
0.0134014
0.00140669
0.00146985
0.00143078
0.00148183
0.0188374
0.0184475
0.0165143
0.0162251
0.0144025
0.0140514
0.0124604
0.012206
0.0178895
0.0177864
0.0156222
0.0155037
0.0135132
0.0134218
0.0116241
0.0115223
0.0178614
0.0178559
0.0155829
0.0155777
0.0135022
0.0134987
0.0116138
0.0116105
0.0177695
0.0178611
0.0154871
0.0155937
0.0134106
0.0134936
0.0115113
0.0116041
0.0184093
0.0187902
0.0161862
0.0164657
0.0140242
0.014368
0.0121778
0.0124241
0.0230675
0.0227229
0.0209984
0.020623
0.0175845
0.0173006
0.0160571
0.0157332
0.0222475
0.0221593
0.020105
0.0200093
0.0168549
0.016769
0.0152412
0.0151523
0.0222122
0.0222067
0.0200726
0.0200671
0.0168142
0.0168108
0.0152135
0.01521
0.022143
0.0222207
0.0199925
0.0200773
0.0167584
0.016837
0.0151413
0.0152223
0.0226873
0.0230238
0.0205861
0.020953
0.017276
0.0175534
0.0157073
0.0160244
0.0268632
0.0265682
0.0250212
0.0247033
0.0203027
0.0200785
0.0189941
0.018743
0.0261552
0.0260741
0.0242615
0.0241767
0.0196986
0.0196146
0.0183334
0.0182479
0.0261091
0.0261039
0.0242191
0.0242138
0.0196361
0.0196329
0.0182793
0.0182759
0.0260589
0.0261304
0.0241609
0.0242358
0.0196049
0.0196824
0.0182377
0.0183164
0.0265352
0.0268224
0.024669
0.024979
0.0200562
0.0202744
0.0187196
0.0189645
0.0301499
0.0298921
0.0285662
0.0282909
0.0225985
0.0224117
0.0214979
0.0212939
0.0295216
0.0294443
0.0279003
0.0278206
0.0220741
0.0219913
0.0209366
0.0208526
0.0294674
0.0294626
0.0278484
0.0278435
0.0219991
0.0219961
0.0208659
0.0208628
0.0294301
0.0294986
0.0278059
0.0278765
0.0219824
0.0220592
0.0208433
0.0209211
0.0298612
0.0301116
0.0282589
0.0285267
0.0223912
0.0225722
0.0212725
0.0214706
0.032942
0.0327125
0.0316005
0.0313574
0.0245116
0.0243522
0.0235956
0.0234232
0.0323733
0.032299
0.031003
0.0309265
0.0240444
0.0239638
0.0231013
0.023019
0.0323148
0.0323103
0.0309452
0.0309406
0.023964
0.0239612
0.0230221
0.0230192
0.0322857
0.0323517
0.0309128
0.0309807
0.0239556
0.0240307
0.0230104
0.023087
0.0326835
0.0329057
0.0313274
0.0315631
0.0243332
0.024487
0.0234035
0.0235702
0.0352941
0.0350869
0.0341646
0.0339467
0.0261
0.0259618
0.0253391
0.0251908
0.0347717
0.0347007
0.0336197
0.0335465
0.0256765
0.0255985
0.0248946
0.0248148
0.0347122
0.0347079
0.0335595
0.0335552
0.0255945
0.0255919
0.0248123
0.0248097
0.0346882
0.0347513
0.0335336
0.0335987
0.0255908
0.0256637
0.0248069
0.0248814
0.0350593
0.0352594
0.0339183
0.034129
0.025944
0.0260767
0.0251724
0.0253152
0.0372692
0.0370792
0.0363208
0.0361225
0.0274183
0.0272974
0.0267862
0.0266569
0.0367832
0.0367155
0.0358169
0.0357471
0.0270296
0.0269542
0.0263806
0.0263036
0.0367243
0.0367203
0.0357568
0.0357527
0.0269478
0.0269453
0.0262979
0.0262955
0.0367036
0.0367637
0.0357349
0.035797
0.0269469
0.0270174
0.0262961
0.0263682
0.0370528
0.0372359
0.0360955
0.0362868
0.0272805
0.0273961
0.0266395
0.0267635
0.0389244
0.0387482
0.0381294
0.0379464
0.0285134
0.0284068
0.0279879
0.0278743
0.0384678
0.0384033
0.0376582
0.0375916
0.0281526
0.0280796
0.0276133
0.0275388
0.0384107
0.0384068
0.0375994
0.0375955
0.0280716
0.0280693
0.0275313
0.0275289
0.0383919
0.0384491
0.03758
0.0376391
0.0280727
0.028141
0.0275317
0.0276015
0.0387227
0.0388921
0.0379204
0.0380965
0.0283906
0.028492
0.0278578
0.0279661
0.0403078
0.0401429
0.0396431
0.0394727
0.0294218
0.029327
0.0289855
0.028885
0.0398756
0.0398142
0.0391987
0.0391354
0.0290839
0.0290132
0.0286362
0.0285641
0.0398208
0.0398171
0.039142
0.0391383
0.0290043
0.0290021
0.0285554
0.0285532
0.0398032
0.0398575
0.0391242
0.0391804
0.0290065
0.0290727
0.0285573
0.0286249
0.0401182
0.0402763
0.0394476
0.0396112
0.0293114
0.0294012
0.0288691
0.0289645
0.041461
0.0413055
0.0409068
0.0407467
0.030174
0.0300889
0.0298125
0.0297226
0.0410491
0.0409907
0.0404847
0.0404244
0.029855
0.0297865
0.029484
0.0294141
0.0409969
0.0409933
0.0404305
0.0404269
0.0297772
0.029775
0.0294048
0.0294027
0.04098
0.0410316
0.0404136
0.0404669
0.0297801
0.0298442
0.0294076
0.0294731
0.0412815
0.0414302
0.0407223
0.0408756
0.0300737
0.0301539
0.0297072
0.0297921
0.0424175
0.04227
0.0419578
0.0418063
0.0307939
0.0307168
0.0304959
0.0304148
0.0420228
0.0419671
0.0415544
0.041497
0.0304907
0.0304242
0.0301847
0.030117
0.0419733
0.0419698
0.0415029
0.0414994
0.0304147
0.0304127
0.0301073
0.0301052
0.0419567
0.0420057
0.0414864
0.0415371
0.030418
0.0304802
0.0301106
0.0301741
0.0422464
0.0423873
0.0417825
0.0419273
0.030702
0.0307743
0.0303998
0.030476
0.0432056
0.0430646
0.0428271
0.0426827
0.0313013
0.0312308
0.0310574
0.0309836
0.0428254
0.0427722
0.0424394
0.0423846
0.0310113
0.0309468
0.0307607
0.0306949
0.0427786
0.0427751
0.0423907
0.0423872
0.0309373
0.0309353
0.0306852
0.0306832
0.042762
0.0428085
0.0423743
0.0424224
0.0309407
0.0310011
0.0306888
0.0307503
0.0430415
0.0431759
0.0426594
0.042797
0.0312164
0.031282
0.030969
0.0310379
0.0438478
0.0437125
0.0435396
0.0434014
0.0317117
0.0316467
0.0315145
0.0314467
0.0434799
0.043429
0.0431653
0.043113
0.0314329
0.0313702
0.03123
0.0311661
0.0434357
0.0434323
0.0431193
0.0431159
0.0313609
0.0313589
0.0311565
0.0311545
0.043419
0.0434633
0.0431029
0.0431486
0.0313642
0.0314229
0.0311601
0.0312198
0.0436897
0.0438184
0.0433784
0.04351
0.0316324
0.0316926
0.0314324
0.0314953
0.0443629
0.0442324
0.0441162
0.0439832
0.0320379
0.0319774
0.0318814
0.0318186
0.0440055
0.0439569
0.0437532
0.0437032
0.0317686
0.0317076
0.0316071
0.031545
0.0439639
0.0439606
0.0437098
0.0437065
0.0316986
0.0316967
0.0315357
0.0315338
0.043947
0.0439892
0.0436932
0.0437368
0.0317017
0.0317587
0.0315391
0.0315972
0.0442099
0.0443339
0.0439605
0.0440869
0.0319634
0.0320191
0.0318044
0.0318624
0.0447662
0.0446398
0.0445737
0.0444452
0.0322903
0.0322336
0.0321696
0.0321109
0.0444179
0.0443712
0.0442205
0.0441726
0.032029
0.0319696
0.0319041
0.0318436
0.0443788
0.0443755
0.0441797
0.0441764
0.031961
0.0319591
0.0318347
0.0318327
0.0443614
0.0444017
0.0441627
0.0442043
0.0319638
0.0320193
0.0318378
0.0318943
0.0446175
0.0447374
0.0444227
0.0445447
0.0322197
0.0322717
0.032097
0.0321508
0.0450702
0.0449472
0.0449259
0.0448011
0.0324772
0.0324236
0.0323883
0.0323331
0.0447296
0.0446848
0.0445811
0.0445351
0.0322227
0.0321648
0.0321302
0.0320713
0.0446929
0.0446897
0.0445427
0.0445395
0.0321567
0.0321548
0.0320628
0.0320609
0.0446751
0.0447136
0.0445254
0.0445651
0.0321591
0.0322131
0.0320655
0.0321205
0.0449251
0.0450416
0.0447789
0.0448971
0.0324099
0.0324587
0.0323193
0.0323697
0.0452851
0.0451651
0.0451842
0.0450626
0.0326054
0.0325544
0.032545
0.0324927
0.0449512
0.0449081
0.0448466
0.0448024
0.0323567
0.0323002
0.0322932
0.0322358
0.0449168
0.0449135
0.0448106
0.0448074
0.0322926
0.0322907
0.0322278
0.0322259
0.0448985
0.0449353
0.0447928
0.0448307
0.0322945
0.0323471
0.0322301
0.0322836
0.0451431
0.0452567
0.0450405
0.0451556
0.0325408
0.0325869
0.032479
0.0325266
0.0454182
0.0453008
0.0453575
0.0452387
0.0326799
0.0326313
0.032646
0.032596
0.0450904
0.0450492
0.0450263
0.0449838
0.0324365
0.0323813
0.0323995
0.0323434
0.0450586
0.0450554
0.0449926
0.0449894
0.0323743
0.0323724
0.032336
0.0323341
0.0450396
0.0450746
0.0449742
0.0450105
0.0323756
0.0324269
0.0323377
0.0323899
0.0452789
0.0453899
0.0452167
0.045329
0.0326176
0.0326615
0.0325824
0.0326275
0.0454784
0.045363
0.0454534
0.0453367
0.0327059
0.032659
0.0326955
0.0326475
0.0451554
0.0451152
0.0451272
0.0450861
0.0324662
0.0324119
0.0324535
0.0323987
0.0451249
0.0451217
0.0450954
0.0450922
0.0324053
0.0324035
0.032392
0.0323901
0.0451057
0.0451396
0.0450766
0.0451114
0.0324062
0.0324567
0.0323931
0.0324439
0.0453413
0.0454501
0.0453148
0.045425
0.0326454
0.0326875
0.0326339
0.0326771
0.0454683
0.0453548
0.0454778
0.0453632
0.032685
0.0326397
0.0326977
0.0326516
0.0451496
0.0451108
0.0451565
0.0451168
0.0324492
0.0323961
0.0324598
0.032406
0.045121
0.0451179
0.0451267
0.0451235
0.03239
0.0323882
0.0323996
0.0323978
0.0451014
0.045134
0.0451074
0.0451408
0.0323905
0.0324399
0.0324004
0.0324504
0.0453332
0.0454404
0.0453415
0.0454496
0.0326265
0.032667
0.0326381
0.0326795
0.0453928
0.0452809
0.0454346
0.0453217
0.0326213
0.0325773
0.0326552
0.0326106
0.0450777
0.0450401
0.0451173
0.0450788
0.0323882
0.032336
0.0324206
0.0323676
0.0450509
0.0450478
0.0450891
0.045086
0.0323303
0.0323285
0.0323616
0.0323598
0.0450308
0.0450622
0.0450694
0.0451017
0.0323304
0.0323789
0.0323621
0.0324112
0.0452594
0.0453649
0.0453002
0.0454066
0.032564
0.0326032
0.0325972
0.0326373
0.0452544
0.045144
0.0453273
0.045216
0.0325154
0.0324726
0.0325703
0.0325268
0.0449427
0.0449063
0.0450135
0.0449762
0.0322847
0.0322336
0.0323381
0.0322862
0.0449176
0.0449145
0.0449871
0.044984
0.0322285
0.0322267
0.0322807
0.0322788
0.044897
0.0449273
0.0449669
0.0449981
0.0322281
0.0322755
0.0322807
0.0323288
0.0451227
0.0452268
0.0451946
0.0452995
0.0324596
0.0324977
0.0325135
0.0325523
0.0450558
0.0449466
0.0451585
0.0450486
0.0323696
0.0323279
0.0324442
0.0324018
0.0447469
0.0447116
0.0448478
0.0448117
0.0321408
0.0320906
0.0322141
0.0321633
0.0447235
0.0447204
0.0448232
0.0448201
0.032086
0.0320842
0.0321583
0.0321565
0.0447024
0.0447316
0.0448025
0.0448325
0.0320852
0.0321316
0.0321579
0.032205
0.0449255
0.0450284
0.0450274
0.045131
0.0323148
0.032352
0.0323888
0.0324266
0.0447985
0.0446905
0.0449305
0.0448217
0.0321848
0.0321439
0.0322789
0.0322374
0.0444919
0.0444575
0.0446223
0.0445872
0.0319573
0.0319079
0.0320504
0.0320004
0.0444699
0.0444668
0.0445992
0.0445961
0.0319037
0.0319019
0.0319958
0.031994
0.0444483
0.0444767
0.044578
0.0446071
0.0319025
0.0319483
0.031995
0.0320413
0.0446695
0.0447713
0.0448007
0.044903
0.0321309
0.0321672
0.0322244
0.0322613
0.0444833
0.0443762
0.0446442
0.0445365
0.0319612
0.031921
0.0320747
0.032034
0.0441784
0.0441447
0.044338
0.0443037
0.0317348
0.0316858
0.0318474
0.031798
0.0441575
0.0441545
0.0443162
0.0443131
0.031682
0.0316802
0.0317938
0.031792
0.0441356
0.0441633
0.0442946
0.0443229
0.0316805
0.0317258
0.0317926
0.0318384
0.0443553
0.0444562
0.0445155
0.0446169
0.0319081
0.0319438
0.0320211
0.0320572
0.04411
0.0440037
0.0443
0.0441932
0.031699
0.0316594
0.0318318
0.0317918
0.0438063
0.0437731
0.0439953
0.0439616
0.0314731
0.0314245
0.0316053
0.0315563
0.0437863
0.0437833
0.0439745
0.0439714
0.031421
0.0314192
0.0315525
0.0315507
0.0437641
0.0437914
0.0439525
0.0439803
0.0314192
0.0314641
0.031551
0.0315963
0.043983
0.0440832
0.0441724
0.044273
0.0316466
0.0316817
0.0317789
0.0318144
0.0436782
0.0435724
0.0438976
0.0437914
0.0313978
0.0313586
0.0315502
0.0315107
0.043375
0.0433422
0.0435938
0.0435605
0.0311719
0.0311236
0.031324
0.0312753
0.0433556
0.0433526
0.0435737
0.0435707
0.0311203
0.0311185
0.0312717
0.03127
0.0433332
0.0433602
0.0435515
0.0435789
0.0311183
0.031163
0.03127
0.031315
0.0435518
0.0436515
0.0437708
0.0438707
0.0313459
0.0313806
0.0314979
0.0315329
0.0431864
0.0430811
0.043436
0.0433303
0.0310569
0.0310181
0.0312293
0.0311901
0.0428833
0.0428504
0.0431325
0.0430994
0.0308306
0.0307823
0.0310029
0.0309543
0.0428641
0.0428611
0.0431128
0.0431098
0.0307791
0.0307774
0.0309509
0.0309492
0.0428415
0.0428685
0.0430904
0.0431177
0.030777
0.0308217
0.030949
0.030994
0.0430607
0.04316
0.0433098
0.0434094
0.0310054
0.0310399
0.0311774
0.0312121
0.0426329
0.0425277
0.0429137
0.0428083
0.0306754
0.0306366
0.0308683
0.0308293
0.0423289
0.0422959
0.0426098
0.0425766
0.0304479
0.0303994
0.0306411
0.0305924
0.0423097
0.0423067
0.0425902
0.0425872
0.0303964
0.0303947
0.0305892
0.0305875
0.042287
0.0423143
0.0425677
0.0425951
0.0303942
0.0304391
0.0305872
0.0306322
0.0425074
0.0426067
0.042788
0.0428873
0.030624
0.0306585
0.0308167
0.0308513
0.0420148
0.0419094
0.0423284
0.0422229
0.0302516
0.0302125
0.0304659
0.0304268
0.0417092
0.0416757
0.0420233
0.0419897
0.0300222
0.0299734
0.0302372
0.0301882
0.0416895
0.0416866
0.0420033
0.0420004
0.0299705
0.0299687
0.0301851
0.0301834
0.0416669
0.0416946
0.0419809
0.0420086
0.0299682
0.0300135
0.030183
0.0302284
0.0418893
0.0419888
0.0422028
0.0423022
0.0302001
0.0302349
0.0304143
0.030449
0.0413286
0.0412226
0.0416768
0.0415709
0.0297837
0.0297439
0.0300203
0.0299807
0.0410203
0.0409861
0.0413695
0.0413354
0.0295515
0.0295021
0.0297893
0.0297399
0.0409998
0.0409969
0.041349
0.041346
0.0294992
0.0294974
0.0297369
0.0297351
0.0409773
0.0410058
0.0413266
0.041355
0.0294969
0.0295428
0.0297347
0.0297805
0.0412026
0.0413029
0.0415509
0.0416509
0.0297316
0.0297671
0.0299683
0.0300036
0.0405695
0.0404624
0.0409549
0.0408482
0.0292689
0.0292282
0.0295294
0.0294891
0.0402573
0.040222
0.0406443
0.0406093
0.0290328
0.0289825
0.029295
0.0292449
0.0402356
0.0402327
0.0406228
0.0406198
0.0289796
0.0289779
0.0292419
0.0292402
0.0402133
0.0402429
0.0406005
0.0406299
0.0289773
0.0290242
0.0292397
0.0292863
0.0404426
0.0405441
0.0408284
0.0409293
0.0292159
0.0292525
0.0294768
0.0295129
0.0397312
0.0396223
0.0401571
0.040049
0.0287035
0.0286612
0.0289899
0.0289483
0.0394136
0.0393771
0.0398419
0.0398057
0.0284623
0.0284109
0.028751
0.0286999
0.0393909
0.039388
0.0398192
0.0398163
0.0284079
0.0284062
0.0286968
0.0286951
0.0393685
0.0393994
0.0397971
0.0398277
0.0284058
0.0284537
0.0286948
0.0287424
0.0396028
0.0397061
0.0400294
0.0401318
0.028649
0.0286872
0.0289361
0.0289735
0.0388056