/*--------------------------------*- C++ -*----------------------------------*\
  =========                 |
  \\      /  F ield         | OpenFOAM: The Open Source CFD Toolbox
   \\    /   O peration     | Website:  https://openfoam.org
    \\  /    A nd           | Version:  9
     \\/     M anipulation  |
\*---------------------------------------------------------------------------*/
FoamFile
{
    format      ascii;
    class       volScalarField;
    location    "4.95";
    object      p;
}
// * * * * * * * * * * * * * * * * * * * * * * * * * * * * * * * * * * * * * //

dimensions      [0 2 -2 0 0 0 0];

internalField   nonuniform List<scalar> 
36360
(
20.1392
20.0696
20.135
20.0729
20.0818
20.1175
20.0869
20.1085
20.0979
20.1001
20.0987
20.1011
20.0994
20.0985
20.0978
20.098
20.1001
20.1001
20.1011
20.1011
20.0984
20.0984
20.0981
20.0981
20.1001
20.0979
20.1011
20.0987
20.0985
20.0994
20.098
20.0978
20.0696
20.1391
20.0729
20.1349
20.1175
20.0818
20.1084
20.0869
20.1075
20.0955
20.1202
20.0857
20.0476
20.149
20.0639
20.1353
20.102
20.099
20.0998
20.0994
20.1044
20.0981
20.1017
20.0983
20.0982
20.0982
20.0991
20.0991
20.0972
20.0972
20.0979
20.0979
20.099
20.102
20.0994
20.0998
20.0981
20.1044
20.0983
20.1017
20.0955
20.1075
20.0857
20.1201
20.1489
20.0478
20.1353
20.064
20.0879
20.108
20.0972
20.1026
20.02
20.1702
20.033
20.1605
20.1083
20.0994
20.105
20.099
20.1116
20.0987
20.1077
20.0983
20.097
20.097
20.0975
20.0975
20.0962
20.0963
20.0967
20.0967
20.0994
20.1083
20.099
20.1051
20.0987
20.1114
20.0982
20.1079
20.108
20.0879
20.1026
20.0972
20.17
20.02
20.1605
20.0332
20.0724
20.115
20.0797
20.112
19.9979
20.184
20.0082
20.1778
20.1148
20.101
20.1116
20.1001
20.1188
20.1003
20.1151
20.0994
20.0963
20.0963
20.0966
20.0966
20.0959
20.0959
20.096
20.096
20.101
20.1147
20.1001
20.1116
20.1003
20.1187
20.0994
20.1152
20.115
20.0725
20.112
20.0797
20.1839
19.998
20.1778
20.0084
20.0603
20.1185
20.066
20.1171
19.9805
20.1929
19.9887
20.189
20.1204
20.1032
20.1177
20.102
20.1251
20.1024
20.1221
20.1013
20.0963
20.0963
20.0963
20.0963
20.0961
20.0961
20.0959
20.0959
20.1032
20.1204
20.102
20.1177
20.1024
20.1251
20.1013
20.122
20.1185
20.0604
20.1171
20.0661
20.1929
19.9807
20.1889
19.9888
20.0508
20.1201
20.0553
20.1195
19.9668
20.1987
19.9733
20.1961
20.125
20.1055
20.1228
20.1043
20.1303
20.1046
20.1278
20.1035
20.0969
20.0969
20.0966
20.0966
20.0967
20.0967
20.0963
20.0963
20.1054
20.125
20.1043
20.1228
20.1046
20.1303
20.1035
20.1278
20.1201
20.0508
20.1195
20.0553
20.1987
19.9669
20.1961
19.9734
20.0431
20.1205
20.0467
20.1204
19.9557
20.2025
19.9609
20.2008
20.1285
20.1076
20.1269
20.1066
20.1343
20.1068
20.1324
20.1057
20.0978
20.0978
20.0973
20.0973
20.0977
20.0977
20.0972
20.0972
20.1076
20.1285
20.1065
20.1269
20.1068
20.1343
20.1057
20.1324
20.1205
20.0432
20.1204
20.0468
20.2025
19.9558
20.2008
19.961
20.0369
20.1202
20.0398
20.1205
19.9467
20.2049
19.951
20.2038
20.1313
20.1095
20.13
20.1086
20.1374
20.1087
20.136
20.1078
20.0989
20.0989
20.0983
20.0983
20.0988
20.0988
20.0982
20.0982
20.1095
20.1312
20.1086
20.13
20.1087
20.1374
20.1078
20.136
20.1202
20.0369
20.1204
20.0399
20.2049
19.9468
20.2038
19.9511
20.0317
20.1196
20.0342
20.1199
19.9393
20.2064
19.9429
20.2057
20.1333
20.1111
20.1324
20.1104
20.1398
20.1104
20.1387
20.1096
20.1
20.1
20.0995
20.0995
20.0999
20.0999
20.0993
20.0993
20.1111
20.1333
20.1104
20.1323
20.1104
20.1398
20.1096
20.1387
20.1196
20.0318
20.1199
20.0342
20.2064
19.9394
20.2057
19.943
20.0274
20.1187
20.0295
20.1191
19.9333
20.2073
19.9362
20.2069
20.1348
20.1125
20.1341
20.1118
20.1415
20.1117
20.1407
20.1111
20.1011
20.1011
20.1006
20.1006
20.101
20.101
20.1005
20.1005
20.1125
20.1348
20.1118
20.1341
20.1117
20.1415
20.1111
20.1407
20.1187
20.0275
20.1191
20.0295
20.2073
19.9334
20.2069
19.9363
20.0238
20.1177
20.0255
20.1182
19.9282
20.2077
19.9306
20.2076
20.1358
20.1135
20.1354
20.113
20.1428
20.1128
20.1422
20.1123
20.102
20.102
20.1016
20.1016
20.1019
20.1019
20.1015
20.1014
20.1135
20.1358
20.113
20.1354
20.1128
20.1427
20.1123
20.1422
20.1177
20.0239
20.1182
20.0256
20.2077
19.9283
20.2075
19.9307
20.0207
20.1167
20.0222
20.1172
19.924
20.2078
19.926
20.2078
20.1365
20.1143
20.1362
20.1139
20.1436
20.1136
20.1432
20.1132
20.1027
20.1027
20.1024
20.1024
20.1026
20.1026
20.1023
20.1023
20.1143
20.1365
20.1139
20.1362
20.1136
20.1436
20.1132
20.1432
20.1167
20.0208
20.1172
20.0222
20.2078
19.9241
20.2078
19.9261
20.018
20.1156
20.0193
20.1162
19.9204
20.2076
19.9221
20.2078
20.1369
20.1148
20.1367
20.1146
20.1441
20.1141
20.1439
20.1139
20.1033
20.1033
20.103
20.103
20.1031
20.1031
20.1029
20.1029
20.1148
20.1368
20.1146
20.1367
20.1141
20.144
20.1139
20.1438
20.1156
20.0181
20.1162
20.0194
20.2076
19.9205
20.2077
19.9222
20.0157
20.1146
20.0168
20.1151
19.9174
20.2072
19.9189
20.2075
20.137
20.1151
20.1369
20.115
20.1442
20.1144
20.1442
20.1143
20.1036
20.1036
20.1035
20.1035
20.1034
20.1034
20.1033
20.1033
20.115
20.1369
20.1149
20.1369
20.1144
20.1442
20.1143
20.1442
20.1146
20.0158
20.1151
20.0169
20.2072
19.9175
20.2074
19.9189
20.0137
20.1135
20.0147
20.1141
19.9149
20.2067
19.9161
20.207
20.1368
20.1151
20.1369
20.1151
20.1441
20.1144
20.1442
20.1144
20.1037
20.1037
20.1037
20.1037
20.1035
20.1035
20.1035
20.1035
20.1151
20.1368
20.1151
20.1369
20.1144
20.1441
20.1144
20.1442
20.1135
20.0137
20.1141
20.0147
20.2066
19.915
20.2069
19.9162
20.0119
20.1125
20.0127
20.113
19.9127
20.2059
19.9138
20.2063
20.1365
20.1149
20.1367
20.115
20.1438
20.1142
20.144
20.1143
20.1036
20.1036
20.1037
20.1037
20.1034
20.1034
20.1035
20.1035
20.1149
20.1365
20.115
20.1367
20.1142
20.1438
20.1143
20.144
20.1125
20.0119
20.113
20.0128
20.2059
19.9128
20.2063
19.9138
20.0103
20.1114
20.0111
20.112
19.9109
20.2049
19.9118
20.2054
20.136
20.1145
20.1363
20.1147
20.1432
20.1138
20.1435
20.114
20.1033
20.1033
20.1035
20.1035
20.1031
20.1031
20.1033
20.1033
20.1145
20.136
20.1147
20.1363
20.1138
20.1432
20.114
20.1435
20.1114
20.0103
20.112
20.0111
20.2049
19.911
20.2054
19.9119
20.0088
20.1104
20.0095
20.1109
19.9094
20.2038
19.9101
20.2044
20.1354
20.1139
20.1357
20.1142
20.1425
20.1132
20.1429
20.1135
20.1028
20.1028
20.1031
20.1031
20.1025
20.1025
20.1028
20.1028
20.1139
20.1354
20.1142
20.1357
20.1132
20.1425
20.1135
20.1429
20.1104
20.0089
20.1109
20.0096
20.2038
19.9095
20.2044
19.9102
20.0076
20.1093
20.0082
20.1099
19.9082
20.2026
19.9088
20.2032
20.1347
20.1132
20.135
20.1136
20.1416
20.1124
20.1421
20.1128
20.1023
20.1022
20.1026
20.1026
20.1018
20.1018
20.1022
20.1022
20.1132
20.1346
20.1136
20.135
20.1124
20.1415
20.1128
20.142
20.1093
20.0076
20.1099
20.0082
20.2026
19.9082
20.2032
19.9088
20.0065
20.1084
20.007
20.1088
19.9071
20.2013
19.9076
20.202
20.1339
20.1124
20.1343
20.1128
20.1405
20.1114
20.1411
20.1119
20.1015
20.1015
20.1019
20.1019
20.1009
20.1009
20.1014
20.1014
20.1124
20.1337
20.1128
20.1342
20.1114
20.1404
20.1119
20.141
20.1083
20.0064
20.1088
20.007
20.2012
19.9071
20.2019
19.9076
20.0055
20.1073
20.006
20.1078
19.9063
20.1998
19.9067
20.2006
20.1327
20.1115
20.1333
20.1119
20.1392
20.1103
20.1399
20.1109
20.1007
20.1007
20.1011
20.1011
20.0999
20.0999
20.1004
20.1004
20.1114
20.1327
20.1119
20.1333
20.1103
20.1392
20.1109
20.1398
20.1073
20.0055
20.1078
20.006
20.1998
19.9064
20.2005
19.9067
20.0047
20.1064
20.0051
20.1068
19.9057
20.1983
19.906
20.1991
20.1314
20.1104
20.1321
20.1109
20.1377
20.1091
20.1385
20.1097
20.0998
20.0998
20.1002
20.1002
20.0988
20.0988
20.0994
20.0994
20.1104
20.1314
20.1109
20.132
20.1091
20.1377
20.1097
20.1384
20.1064
20.0047
20.1068
20.0051
20.1983
19.9058
20.199
19.906
20.004
20.1054
20.0043
20.1059
19.9053
20.1967
19.9055
20.1975
20.13
20.1094
20.1307
20.1099
20.1362
20.1078
20.137
20.1084
20.0988
20.0988
20.0993
20.0993
20.0976
20.0976
20.0982
20.0982
20.1094
20.13
20.1099
20.1307
20.1078
20.1361
20.1084
20.1369
20.1054
20.0041
20.1059
20.0044
20.1967
19.9054
20.1975
19.9055
20.0036
20.1046
20.0038
20.105
19.9052
20.195
19.9052
20.1959
20.1287
20.1083
20.1293
20.1088
20.1345
20.1064
20.1353
20.1071
20.0979
20.0979
20.0984
20.0984
20.0963
20.0963
20.097
20.097
20.1083
20.1286
20.1088
20.1293
20.1064
20.1345
20.1071
20.1353
20.1046
20.0036
20.105
20.0038
20.195
19.9053
20.1958
19.9053
20.0033
20.1039
20.0034
20.1042
19.9054
20.1933
19.9052
20.1942
20.1273
20.1072
20.128
20.1077
20.1328
20.105
20.1337
20.1057
20.097
20.097
20.0974
20.0974
20.0951
20.0951
20.0957
20.0957
20.1072
20.1273
20.1077
20.128
20.105
20.1328
20.1057
20.1337
20.1039
20.0034
20.1042
20.0035
20.1933
19.9054
20.1942
19.9053
20.0033
20.1032
20.0033
20.1035
19.9058
20.1916
19.9056
20.1924
20.1261
20.1062
20.1267
20.1067
20.1311
20.1036
20.132
20.1043
20.0961
20.0961
20.0965
20.0965
20.0938
20.0938
20.0945
20.0945
20.1062
20.1261
20.1067
20.1267
20.1036
20.1311
20.1043
20.1319
20.1032
20.0034
20.1035
20.0033
20.1915
19.9059
20.1924
19.9056
20.0036
20.1027
20.0034
20.1029
19.9066
20.1898
19.9062
20.1907
20.1249
20.1053
20.1255
20.1057
20.1294
20.1023
20.1303
20.1029
20.0954
20.0954
20.0957
20.0957
20.0927
20.0927
20.0933
20.0933
20.1053
20.1248
20.1057
20.1254
20.1023
20.1294
20.1029
20.1302
20.1027
20.0036
20.1029
20.0035
20.1898
19.9067
20.1907
19.9063
20.0042
20.1023
20.0039
20.1025
19.9078
20.1881
19.9072
20.1889
20.1238
20.1045
20.1243
20.1049
20.1277
20.1011
20.1286
20.1017
20.0948
20.0948
20.0951
20.0951
20.0917
20.0917
20.0922
20.0922
20.1045
20.1237
20.1049
20.1243
20.1011
20.1277
20.1017
20.1286
20.1023
20.0042
20.1025
20.0039
20.1881
19.9079
20.1889
19.9073
20.0051
20.1021
20.0046
20.1022
19.9094
20.1864
19.9086
20.1872
20.1228
20.1039
20.1232
20.1042
20.1262
20.1
20.1269
20.1005
20.0944
20.0944
20.0946
20.0946
20.0909
20.0909
20.0913
20.0913
20.1039
20.1228
20.1042
20.1232
20.1
20.1262
20.1005
20.1269
20.1021
20.0052
20.1022
20.0046
20.1864
19.9095
20.1872
19.9087
20.0064
20.102
20.0057
20.102
19.9115
20.1848
19.9104
20.1856
20.1219
20.1034
20.1223
20.1036
20.1247
20.0991
20.1254
20.0995
20.0943
20.0943
20.0943
20.0943
20.0903
20.0903
20.0905
20.0905
20.1034
20.1219
20.1036
20.1223
20.0991
20.1247
20.0995
20.1254
20.102
20.0065
20.102
20.0058
20.1848
19.9116
20.1856
19.9105
20.0081
20.1021
20.0072
20.102
19.9142
20.1832
19.9128
20.184
20.1212
20.1032
20.1216
20.1033
20.1234
20.0984
20.124
20.0987
20.0944
20.0944
20.0943
20.0943
20.09
20.09
20.0901
20.0901
20.1032
20.1212
20.1033
20.1215
20.0984
20.1233
20.0987
20.124
20.1021
20.0082
20.102
20.0073
20.1832
19.9142
20.184
19.9129
20.0103
20.1023
20.0091
20.1022
19.9174
20.1817
19.9157
20.1825
20.1207
20.1033
20.1209
20.1032
20.1222
20.0981
20.1227
20.0982
20.0949
20.0949
20.0946
20.0946
20.09
20.09
20.0899
20.0899
20.1033
20.1206
20.1032
20.1209
20.098
20.1222
20.0982
20.1227
20.1023
20.0103
20.1022
20.0092
20.1817
19.9174
20.1824
19.9158
20.0129
20.1026
20.0115
20.1025
19.9212
20.1802
19.9192
20.181
20.1203
20.1036
20.1204
20.1034
20.1212
20.098
20.1217
20.098
20.0956
20.0956
20.0952
20.0952
20.0903
20.0903
20.0901
20.0901
20.1036
20.1203
20.1034
20.1204
20.098
20.1212
20.098
20.1216
20.1026
20.0129
20.1025
20.0116
20.1802
19.9213
20.1809
19.9193
20.0161
20.103
20.0144
20.1028
19.9258
20.1787
19.9234
20.1795
20.1201
20.1042
20.1202
20.1039
20.1204
20.0983
20.1208
20.0981
20.0967
20.0967
20.0961
20.0961
20.0911
20.0911
20.0907
20.0907
20.1042
20.1201
20.1039
20.1201
20.0983
20.1204
20.0981
20.1208
20.1031
20.0161
20.1029
20.0144
20.1787
19.9258
20.1795
19.9235
20.0198
20.1035
20.0178
20.1033
19.9311
20.1771
19.9284
20.1779
20.1201
20.1051
20.1201
20.1046
20.1199
20.0989
20.1202
20.0986
20.0981
20.0981
20.0974
20.0974
20.0922
20.0922
20.0916
20.0916
20.1051
20.1201
20.1046
20.1201
20.0989
20.1199
20.0986
20.1201
20.1035
20.0198
20.1033
20.0179
20.1771
19.9312
20.1779
19.9284
20.024
20.1038
20.0218
20.1037
19.9375
20.1753
19.9342
20.1762
20.1203
20.1063
20.1202
20.1057
20.1197
20.1
20.1198
20.0994
20.0998
20.0998
20.0989
20.0989
20.0938
20.0938
20.0929
20.0929
20.1063
20.1203
20.1057
20.1201
20.1
20.1197
20.0994
20.1198
20.1038
20.024
20.1037
20.0218
20.1753
19.9376
20.1762
19.9343
20.0287
20.1044
20.0263
20.1041
19.9451
20.1729
19.9411
20.1742
20.1206
20.1078
20.1204
20.107
20.1197
20.1014
20.1197
20.1007
20.1018
20.1018
20.1007
20.1007
20.0957
20.0957
20.0947
20.0947
20.1078
20.1206
20.107
20.1204
20.1014
20.1197
20.1007
20.1196
20.1044
20.0287
20.1041
20.0263
20.1729
19.9451
20.1742
19.9412
20.0325
20.1059
20.031
20.1048
19.9544
20.1695
19.9495
20.1714
20.1212
20.1096
20.1208
20.1086
20.1199
20.1033
20.1198
20.1023
20.104
20.104
20.1029
20.1029
20.0979
20.0979
20.0967
20.0967
20.1096
20.1211
20.1086
20.1208
20.1033
20.1199
20.1023
20.1197
20.1059
20.0326
20.1048
20.031
20.1695
19.9544
20.1714
19.9495
20.0357
20.1076
20.0326
20.1085
19.9654
20.1643
19.9596
20.1672
20.1226
20.1118
20.1218
20.1107
20.1208
20.1057
20.1203
20.1044
20.1066
20.1066
20.1053
20.1053
20.1006
20.1006
20.0992
20.0992
20.1118
20.1226
20.1107
20.1218
20.1057
20.1208
20.1044
20.1203
20.1076
20.0357
20.1085
20.0326
20.1643
19.9654
20.1672
19.9597
20.1941
20.0332
20.1656
20.0502
20.1748
20.0423
20.1529
20.0563
20.0802
20.098
20.0876
20.0993
20.0882
20.0991
20.0923
20.0994
20.1002
20.1002
20.1004
20.1004
20.0998
20.0998
20.0997
20.0997
20.098
20.0803
20.0993
20.0877
20.0991
20.0882
20.0994
20.0923
20.0333
20.1939
20.0503
20.1654
20.0423
20.1746
20.0564
20.1528
20.162
20.066
20.1726
20.0555
20.1463
20.0692
20.1565
20.0601
20.0831
20.0948
20.0819
20.0964
20.0904
20.0975
20.0896
20.0984
20.0984
20.0984
20.0995
20.0995
20.0984
20.0984
20.0993
20.0993
20.0948
20.0831
20.0964
20.082
20.0975
20.0904
20.0984
20.0896
20.0661
20.1619
20.0555
20.1725
20.0692
20.1462
20.0602
20.1564
20.1516
20.0732
20.156
20.0709
20.1332
20.0771
20.1392
20.0742
20.0868
20.0946
20.0849
20.0944
20.0952
20.0976
20.0925
20.0973
20.0966
20.0966
20.0975
20.0975
20.097
20.097
20.0977
20.0977
20.0946
20.0868
20.0944
20.0849
20.0976
20.0952
20.0973
20.0925
20.0732
20.1515
20.0709
20.1559
20.0771
20.1332
20.0742
20.1391
20.1452
20.0743
20.1481
20.0741
20.1237
20.0796
20.1281
20.0788
20.0902
20.0958
20.0886
20.0951
20.1001
20.0988
20.0978
20.0981
20.0958
20.0958
20.0961
20.0961
20.0964
20.0964
20.0966
20.0966
20.0958
20.0902
20.0951
20.0886
20.0988
20.1001
20.0981
20.0978
20.0743
20.1452
20.0741
20.148
20.0796
20.1237
20.0788
20.1281
20.1408
20.0734
20.1429
20.0739
20.1166
20.0799
20.1199
20.0799
20.0926
20.0973
20.0915
20.0965
20.1038
20.1006
20.1021
20.0997
20.0959
20.0959
20.0957
20.0957
20.0965
20.0965
20.0963
20.0963
20.0973
20.0926
20.0965
20.0915
20.1006
20.1038
20.0997
20.1021
20.0734
20.1408
20.074
20.1428
20.0799
20.1166
20.08
20.1199
20.1374
20.0717
20.139
20.0726
20.111
20.0791
20.1137
20.0796
20.0942
20.0988
20.0935
20.0981
20.1065
20.1025
20.1052
20.1016
20.0966
20.0966
20.0962
20.0962
20.0972
20.0972
20.0968
20.0968
20.0988
20.0941
20.0981
20.0935
20.1025
20.1065
20.1016
20.1052
20.0717
20.1374
20.0726
20.139
20.0791
20.111
20.0796
20.1136
20.1347
20.0698
20.136
20.0708
20.1065
20.0777
20.1087
20.0785
20.0951
20.1004
20.0947
20.0996
20.1084
20.1044
20.1075
20.1035
20.0976
20.0976
20.0971
20.0971
20.0982
20.0982
20.0977
20.0977
20.1003
20.0951
20.0996
20.0947
20.1044
20.1084
20.1035
20.1075
20.0698
20.1347
20.0708
20.136
20.0777
20.1065
20.0785
20.1087
20.1324
20.0678
20.1335
20.0688
20.1029
20.0761
20.1046
20.0769
20.0956
20.1017
20.0954
20.1011
20.1097
20.1061
20.1091
20.1053
20.0988
20.0988
20.0982
20.0982
20.0994
20.0994
20.0988
20.0988
20.1017
20.0956
20.101
20.0954
20.106
20.1097
20.1052
20.1091
20.0678
20.1324
20.0688
20.1335
20.0761
20.1029
20.0769
20.1046
20.1305
20.0659
20.1314
20.0668
20.0998
20.0744
20.1013
20.0752
20.0957
20.1029
20.0957
20.1023
20.1105
20.1075
20.1102
20.1068
20.0999
20.0999
20.0994
20.0993
20.1005
20.1005
20.1
20.0999
20.1029
20.0957
20.1023
20.0957
20.1074
20.1105
20.1068
20.1102
20.066
20.1305
20.0669
20.1314
20.0744
20.0998
20.0753
20.1013
20.1288
20.0642
20.1296
20.0651
20.0972
20.0727
20.0985
20.0736
20.0956
20.1038
20.0956
20.1034
20.111
20.1086
20.1108
20.1081
20.101
20.101
20.1005
20.1005
20.1016
20.1016
20.1011
20.1011
20.1038
20.0956
20.1034
20.0956
20.1086
20.111
20.1081
20.1108
20.0642
20.1288
20.0651
20.1296
20.0728
20.0972
20.0736
20.0984
20.1273
20.0626
20.128
20.0634
20.095
20.0712
20.096
20.0719
20.0953
20.1045
20.0954
20.1042
20.1112
20.1095
20.1112
20.1091
20.1019
20.1019
20.1014
20.1014
20.1025
20.1025
20.1021
20.1021
20.1045
20.0953
20.1042
20.0954
20.1095
20.1112
20.1091
20.1112
20.0626
20.1272
20.0634
20.128
20.0712
20.0949
20.072
20.096
20.1259
20.0611
20.1266
20.0618
20.093
20.0696
20.0939
20.0704
20.0949
20.105
20.0951
20.1048
20.1112
20.1102
20.1113
20.1099
20.1026
20.1026
20.1023
20.1023
20.1033
20.1033
20.1029
20.1029
20.105
20.0949
20.1048
20.0951
20.1102
20.1112
20.1099
20.1113
20.0611
20.1259
20.0618
20.1265
20.0697
20.093
20.0704
20.0939
20.1246
20.0597
20.1253
20.0604
20.0912
20.0682
20.0921
20.0689
20.0944
20.1053
20.0946
20.1052
20.1111
20.1107
20.1112
20.1105
20.1031
20.1031
20.1029
20.1029
20.1038
20.1038
20.1036
20.1036
20.1053
20.0944
20.1052
20.0946
20.1107
20.1111
20.1105
20.1112
20.0597
20.1246
20.0604
20.1252
20.0682
20.0912
20.0689
20.0921
20.1235
20.0583
20.124
20.059
20.0897
20.0669
20.0904
20.0675
20.0939
20.1055
20.0941
20.1054
20.1107
20.1109
20.1109
20.1108
20.1035
20.1035
20.1033
20.1033
20.1041
20.1041
20.104
20.104
20.1055
20.0939
20.1054
20.0941
20.1109
20.1107
20.1108
20.1109
20.0584
20.1234
20.059
20.124
20.0669
20.0897
20.0676
20.0904
20.1223
20.0571
20.1229
20.0577
20.0882
20.0656
20.0889
20.0662
20.0933
20.1055
20.0936
20.1055
20.1103
20.111
20.1105
20.111
20.1036
20.1036
20.1036
20.1036
20.1043
20.1043
20.1042
20.1042
20.1055
20.0933
20.1055
20.0936
20.111
20.1103
20.111
20.1105
20.0571
20.1223
20.0577
20.1229
20.0656
20.0882
20.0662
20.0889
20.1213
20.056
20.1218
20.0565
20.0869
20.0644
20.0876
20.065
20.0926
20.1053
20.0929
20.1054
20.1097
20.1109
20.11
20.111
20.1036
20.1036
20.1036
20.1036
20.1043
20.1043
20.1043
20.1043
20.1053
20.0926
20.1054
20.0929
20.1109
20.1097
20.111
20.11
20.056
20.1213
20.0565
20.1218
20.0644
20.0869
20.065
20.0876
20.1203
20.0549
20.1208
20.0554
20.0857
20.0633
20.0863
20.0638
20.092
20.1051
20.0923
20.1052
20.109
20.1106
20.1094
20.1108
20.1035
20.1035
20.1036
20.1036
20.1041
20.1041
20.1042
20.1042
20.1051
20.092
20.1052
20.0923
20.1106
20.109
20.1108
20.1094
20.0549
20.1203
20.0554
20.1208
20.0633
20.0857
20.0639
20.0863
20.1194
20.0539
20.1198
20.0544
20.0846
20.0623
20.0852
20.0628
20.0913
20.1047
20.0916
20.1049
20.1083
20.1102
20.1087
20.1104
20.1032
20.1032
20.1033
20.1033
20.1037
20.1037
20.1039
20.1039
20.1047
20.0913
20.1049
20.0916
20.1102
20.1083
20.1104
20.1087
20.054
20.1193
20.0544
20.1198
20.0623
20.0846
20.0628
20.0851
20.1185
20.0531
20.1189
20.0535
20.0836
20.0613
20.0841
20.0618
20.0906
20.1043
20.0909
20.1045
20.1073
20.1097
20.1078
20.11
20.1028
20.1028
20.103
20.103
20.1032
20.1032
20.1035
20.1035
20.1043
20.0906
20.1045
20.0909
20.1097
20.1074
20.11
20.1078
20.0531
20.1185
20.0535
20.1189
20.0613
20.0836
20.0618
20.0841
20.1177
20.0523
20.1181
20.0527
20.0826
20.0604
20.0831
20.0608
20.0899
20.1037
20.0902
20.104
20.1062
20.109
20.1068
20.1094
20.1023
20.1023
20.1026
20.1026
20.1026
20.1026
20.1029
20.1029
20.1037
20.0899
20.104
20.0903
20.1091
20.1065
20.1094
20.1069
20.0523
20.1177
20.0527
20.118
20.0604
20.0827
20.0608
20.0831
20.1169
20.0516
20.1173
20.0519
20.0818
20.0596
20.0822
20.06
20.0893
20.1032
20.0896
20.1035
20.1056
20.1084
20.1059
20.1087
20.1018
20.1018
20.1021
20.1021
20.1019
20.1019
20.1023
20.1023
20.1032
20.0893
20.1035
20.0896
20.1084
20.1056
20.1087
20.1059
20.0516
20.1169
20.052
20.1173
20.0596
20.0818
20.06
20.0822
20.1163
20.051
20.1166
20.0513
20.081
20.0589
20.0814
20.0592
20.0888
20.1026
20.0891
20.1029
20.1052
20.1076
20.1054
20.108
20.1013
20.1013
20.1015
20.1015
20.1012
20.1012
20.1016
20.1016
20.1026
20.0888
20.1029
20.0891
20.1076
20.1052
20.108
20.1054
20.051
20.1163
20.0513
20.1166
20.0589
20.0811
20.0592
20.0814
20.1158
20.0506
20.116
20.0508
20.0804
20.0583
20.0807
20.0586
20.0884
20.102
20.0886
20.1023
20.1047
20.1068
20.1049
20.1072
20.1007
20.1007
20.101
20.101
20.1005
20.1005
20.1008
20.1008
20.102
20.0884
20.1023
20.0886
20.1068
20.1047
20.1072
20.1049
20.0506
20.1157
20.0508
20.116
20.0583
20.0804
20.0586
20.0807
20.1154
20.0503
20.1156
20.0504
20.0799
20.0578
20.0802
20.058
20.088
20.1015
20.0882
20.1018
20.1042
20.1061
20.1045
20.1064
20.1003
20.1003
20.1005
20.1005
20.0998
20.0998
20.1001
20.1001
20.1015
20.088
20.1018
20.0882
20.1061
20.1042
20.1064
20.1045
20.0503
20.1153
20.0504
20.1155
20.0578
20.0799
20.0581
20.0801
20.1151
20.0502
20.1152
20.0502
20.0796
20.0575
20.0798
20.0577
20.0878
20.1011
20.0879
20.1013
20.1038
20.1054
20.104
20.1057
20.0999
20.0999
20.1001
20.1001
20.0992
20.0992
20.0995
20.0995
20.1011
20.0878
20.1013
20.0879
20.1054
20.1038
20.1057
20.104
20.0502
20.1151
20.0502
20.1152
20.0576
20.0796
20.0577
20.0798
20.115
20.0503
20.1151
20.0502
20.0795
20.0574
20.0796
20.0574
20.0877
20.1008
20.0877
20.101
20.1034
20.1048
20.1036
20.105
20.0996
20.0996
20.0997
20.0997
20.0987
20.0987
20.0989
20.0989
20.1008
20.0877
20.101
20.0877
20.1048
20.1034
20.105
20.1036
20.0503
20.115
20.0502
20.115
20.0574
20.0795
20.0575
20.0796
20.1151
20.0505
20.1151
20.0504
20.0796
20.0575
20.0796
20.0574
20.0877
20.1007
20.0877
20.1007
20.103
20.1043
20.1032
20.1045
20.0995
20.0995
20.0995
20.0995
20.0983
20.0983
20.0984
20.0984
20.1007
20.0877
20.1007
20.0877
20.1043
20.103
20.1045
20.1032
20.0505
20.1151
20.0504
20.115
20.0575
20.0796
20.0574
20.0795
20.1154
20.0512
20.1152
20.0507
20.08
20.0577
20.0798
20.0575
20.0879
20.1007
20.0878
20.1007
20.1028
20.1039
20.1029
20.1041
20.0995
20.0995
20.0995
20.0995
20.0981
20.0981
20.0981
20.0981
20.1007
20.0879
20.1007
20.0878
20.1039
20.1028
20.1041
20.1029
20.0512
20.1154
20.0508
20.1152
20.0577
20.08
20.0576
20.0798
20.1159
20.0522
20.1156
20.0516
20.0806
20.0581
20.0802
20.0579
20.0883
20.1009
20.0881
20.1007
20.1027
20.1038
20.1028
20.1038
20.0998
20.0998
20.0996
20.0996
20.0981
20.0981
20.098
20.098
20.1009
20.0883
20.1007
20.0881
20.1038
20.1027
20.1038
20.1028
20.0522
20.1159
20.0517
20.1156
20.0581
20.0806
20.0579
20.0802
20.1166
20.0535
20.1162
20.0528
20.0815
20.0586
20.081
20.0583
20.0888
20.1012
20.0885
20.101
20.1028
20.1038
20.1028
20.1037
20.1003
20.1003
20.1
20.1
20.0983
20.0983
20.0981
20.0981
20.1012
20.0888
20.101
20.0885
20.1038
20.1028
20.1037
20.1028
20.0535
20.1165
20.0528
20.1162
20.0586
20.0815
20.0584
20.081
20.1174
20.0547
20.117
20.0544
20.0826
20.0594
20.082
20.0588
20.0895
20.1018
20.0891
20.1015
20.103
20.104
20.1029
20.1039
20.1009
20.1009
20.1006
20.1006
20.0988
20.0988
20.0985
20.0985
20.1018
20.0895
20.1015
20.0891
20.104
20.103
20.1039
20.1029
20.0548
20.1174
20.0544
20.1169
20.0594
20.0826
20.0588
20.082
20.1185
20.0556
20.118
20.0551
20.0841
20.0608
20.0833
20.0601
20.0903
20.1025
20.0899
20.1021
20.1034
20.1045
20.1032
20.1042
20.1019
20.1019
20.1014
20.1014
20.0995
20.0995
20.0991
20.0991
20.1025
20.0904
20.1021
20.0899
20.1045
20.1034
20.1042
20.1032
20.0556
20.1185
20.0551
20.1179
20.0608
20.084
20.0601
20.0833
20.1197
20.0568
20.1191
20.0561
20.0858
20.0622
20.0849
20.0615
20.0913
20.1035
20.0908
20.103
20.1039
20.1052
20.1036
20.1048
20.103
20.103
20.1024
20.1024
20.1005
20.1005
20.1
20.1
20.1035
20.0913
20.103
20.0908
20.1052
20.1039
20.1048
20.1036
20.0568
20.1197
20.0562
20.1191
20.0623
20.0858
20.0615
20.0849
20.121
20.0582
20.1204
20.0575
20.0878
20.0638
20.0867
20.063
20.0925
20.1047
20.0919
20.1041
20.1045
20.1061
20.1042
20.1056
20.1044
20.1044
20.1037
20.1037
20.1018
20.1018
20.1011
20.1011
20.1047
20.0925
20.1041
20.0919
20.1061
20.1045
20.1056
20.1042
20.0583
20.121
20.0575
20.1203
20.0638
20.0877
20.063
20.0867
20.1221
20.0599
20.1216
20.059
20.0899
20.0654
20.0888
20.0646
20.0938
20.106
20.0931
20.1053
20.1053
20.1072
20.1049
20.1066
20.1059
20.1059
20.1051
20.1051
20.1033
20.1033
20.1025
20.1025
20.106
20.0938
20.1053
20.0931
20.1072
20.1053
20.1066
20.1049
20.0599
20.1221
20.0591
20.1216
20.0654
20.0899
20.0646
20.0888
20.1229
20.0619
20.1226
20.0609
20.0921
20.0673
20.091
20.0663
20.0952
20.1074
20.0945
20.1067
20.1063
20.1085
20.1058
20.1079
20.1076
20.1076
20.1068
20.1068
20.105
20.105
20.1041
20.1041
20.1074
20.0952
20.1067
20.0945
20.1085
20.1063
20.1079
20.1058
20.0619
20.1228
20.0609
20.1225
20.0673
20.0921
20.0663
20.091
20.1226
20.0647
20.1229
20.0632
20.0939
20.0694
20.0931
20.0683
20.0968
20.109
20.096
20.1082
20.1073
20.1101
20.1068
20.1093
20.1095
20.1095
20.1086
20.1086
20.1069
20.1069
20.1059
20.1059
20.109
20.0968
20.1082
20.096
20.1101
20.1073
20.1093
20.1068
20.0647
20.1225
20.0632
20.1229
20.0694
20.0939
20.0683
20.093
20.1176
20.0714
20.1213
20.067
20.0928
20.0741
20.0942
20.071
20.0985
20.1108
20.0976
20.1099
20.1085
20.1118
20.1078
20.1109
20.1115
20.1115
20.1105
20.1105
20.109
20.109
20.1079
20.1079
20.1108
20.0985
20.1099
20.0976
20.1118
20.1085
20.1109
20.1078
20.0714
20.1176
20.067
20.1213
20.0741
20.0927
20.071
20.0942
20.1316
20.0593
20.1127
20.077
20.1031
20.067
20.0899
20.0785
20.0998
20.1133
20.0999
20.1119
20.1101
20.1142
20.1096
20.113
20.1135
20.1135
20.1125
20.1125
20.1112
20.1112
20.1101
20.1101
20.1133
20.0998
20.1119
20.0999
20.1142
20.1101
20.113
20.1096
20.0593
20.1316
20.077
20.1127
20.067
20.1031
20.0785
20.0899
20.2158
20.028
20.181
20.0449
20.2065
20.0295
20.1743
20.0468
20.0683
20.0932
20.0796
20.0972
20.0733
20.0958
20.0831
20.0984
20.1001
20.1001
20.1007
20.1007
20.1002
20.1002
20.1006
20.1006
20.0932
20.0683
20.0972
20.0796
20.0958
20.0734
20.0984
20.0831
20.0281
20.2155
20.045
20.1809
20.0295
20.2063
20.0469
20.1741
20.1708
20.0752
20.1852
20.0601
20.1682
20.0697
20.1806
20.0568
20.0737
20.0883
20.0718
20.0905
20.0773
20.0914
20.0759
20.0934
20.0965
20.0965
20.0987
20.0987
20.0978
20.0978
20.0993
20.0993
20.0884
20.0738
20.0905
20.0719
20.0914
20.0773
20.0934
20.0759
20.0752
20.1707
20.0601
20.1851
20.0697
20.1681
20.0569
20.1804
20.1594
20.0848
20.1638
20.0818
20.1578
20.078
20.162
20.0754
20.0783
20.0875
20.0761
20.0876
20.0812
20.0907
20.0793
20.0908
20.0936
20.0936
20.0949
20.0949
20.0954
20.0955
20.0965
20.0965
20.0875
20.0783
20.0876
20.0761
20.0907
20.0812
20.0908
20.0793
20.0848
20.1593
20.0818
20.1637
20.078
20.1577
20.0754
20.1619
20.1542
20.0865
20.1564
20.0861
20.1525
20.0792
20.1548
20.079
20.0812
20.088
20.08
20.0877
20.0841
20.0914
20.0828
20.091
20.0922
20.0922
20.0927
20.0927
20.0944
20.0944
20.0948
20.0948
20.088
20.0812
20.0877
20.08
20.0914
20.0841
20.091
20.0828
20.0865
20.1541
20.0861
20.1563
20.0792
20.1524
20.079
20.1547
20.1512
20.0861
20.1525
20.0864
20.1491
20.0784
20.1507
20.079
20.0826
20.0888
20.082
20.0884
20.0857
20.0926
20.085
20.092
20.0921
20.0921
20.092
20.092
20.0943
20.0943
20.0943
20.0943
20.0888
20.0826
20.0884
20.082
20.0926
20.0857
20.092
20.085
20.0861
20.1511
20.0864
20.1525
20.0784
20.1491
20.079
20.1506
20.149
20.0849
20.15
20.0856
20.1467
20.0769
20.1478
20.0777
20.0832
20.0896
20.083
20.0892
20.0866
20.0939
20.0862
20.0933
20.0926
20.0926
20.0923
20.0923
20.0949
20.0949
20.0946
20.0946
20.0896
20.0832
20.0892
20.083
20.0939
20.0866
20.0933
20.0862
20.0849
20.149
20.0855
20.15
20.0769
20.1466
20.0777
20.1478
20.1473
20.0836
20.1481
20.0843
20.1447
20.0752
20.1456
20.0761
20.0833
20.0904
20.0833
20.09
20.0869
20.095
20.0868
20.0944
20.0935
20.0935
20.093
20.093
20.0959
20.0959
20.0954
20.0954
20.0904
20.0833
20.09
20.0833
20.095
20.0869
20.0944
20.0868
20.0836
20.1472
20.0843
20.1481
20.0752
20.1446
20.0761
20.1456
20.1458
20.0822
20.1465
20.0829
20.143
20.0735
20.1438
20.0744
20.0832
20.0911
20.0833
20.0907
20.087
20.0959
20.087
20.0955
20.0944
20.0944
20.0939
20.0939
20.097
20.097
20.0965
20.0965
20.0911
20.0832
20.0907
20.0833
20.0959
20.087
20.0955
20.087
20.0822
20.1457
20.0829
20.1464
20.0735
20.1429
20.0744
20.1437
20.1445
20.0808
20.1451
20.0815
20.1415
20.0718
20.1422
20.0727
20.0829
20.0916
20.0831
20.0913
20.0868
20.0967
20.0869
20.0964
20.0954
20.0954
20.0949
20.0949
20.0981
20.0981
20.0975
20.0975
20.0916
20.0829
20.0913
20.0831
20.0967
20.0868
20.0964
20.0869
20.0808
20.1444
20.0815
20.1451
20.0719
20.1414
20.0727
20.1422
20.1433
20.0795
20.1439
20.0801
20.1401
20.0703
20.1408
20.0711
20.0825
20.092
20.0827
20.0918
20.0864
20.0974
20.0866
20.0971
20.0962
20.0962
20.0958
20.0958
20.099
20.099
20.0986
20.0986
20.092
20.0825
20.0918
20.0827
20.0974
20.0864
20.0971
20.0866
20.0795
20.1432
20.0801
20.1438
20.0703
20.1401
20.0711
20.1407
20.1422
20.0782
20.1427
20.0788
20.1389
20.0688
20.1395
20.0695
20.082
20.0923
20.0823
20.0921
20.086
20.0978
20.0862
20.0976
20.0969
20.0969
20.0966
20.0966
20.0998
20.0998
20.0995
20.0995
20.0923
20.082
20.0921
20.0823
20.0978
20.086
20.0976
20.0862
20.0782
20.1421
20.0788
20.1427
20.0688
20.1389
20.0695
20.1395
20.1412
20.077
20.1417
20.0776
20.1378
20.0674
20.1383
20.0681
20.0815
20.0924
20.0818
20.0924
20.0855
20.0981
20.0858
20.098
20.0974
20.0974
20.0972
20.0972
20.1005
20.1005
20.1002
20.1002
20.0924
20.0815
20.0924
20.0818
20.0981
20.0855
20.098
20.0858
20.077
20.1411
20.0776
20.1416
20.0674
20.1378
20.0681
20.1383
20.1402
20.0759
20.1407
20.0764
20.1367
20.0661
20.1373
20.0668
20.0809
20.0925
20.0812
20.0925
20.085
20.0983
20.0852
20.0982
20.0978
20.0978
20.0977
20.0977
20.101
20.101
20.1008
20.1008
20.0925
20.0809
20.0925
20.0812
20.0983
20.085
20.0982
20.0852
20.0759
20.1402
20.0764
20.1406
20.0661
20.1367
20.0668
20.1372
20.1393
20.0748
20.1398
20.0753
20.1358
20.0649
20.1362
20.0655
20.0804
20.0924
20.0806
20.0924
20.0844
20.0983
20.0847
20.0983
20.0981
20.0981
20.098
20.098
20.1013
20.1013
20.1012
20.1012
20.0924
20.0804
20.0924
20.0807
20.0983
20.0844
20.0983
20.0847
20.0748
20.1393
20.0753
20.1397
20.0649
20.1357
20.0655
20.1362
20.1385
20.0738
20.1389
20.0743
20.1348
20.0638
20.1353
20.0643
20.0798
20.0922
20.0801
20.0923
20.0838
20.0981
20.0841
20.0982
20.0982
20.0982
20.0981
20.0981
20.1014
20.1014
20.1014
20.1014
20.0922
20.0798
20.0923
20.0801
20.0981
20.0838
20.0982
20.0841
20.0738
20.1384
20.0743
20.1388