/*--------------------------------*- C++ -*----------------------------------*\
  =========                 |
  \\      /  F ield         | OpenFOAM: The Open Source CFD Toolbox
   \\    /   O peration     | Website:  https://openfoam.org
    \\  /    A nd           | Version:  9
     \\/     M anipulation  |
\*---------------------------------------------------------------------------*/
FoamFile
{
    format      ascii;
    class       surfaceScalarField;
    location    "4.95";
    object      phi;
}
// * * * * * * * * * * * * * * * * * * * * * * * * * * * * * * * * * * * * * //

dimensions      [0 3 -1 0 0 0 0];

internalField   nonuniform List<scalar> 
104044
(
1.42806e-06
-7.15728e-05
-4.96729e-06
6.82372e-05
6.87488e-06
-4.55395e-05
3.77802e-06
-5.78312e-07
4.84816e-05
-4.71374e-06
1.28466e-06
-9.58708e-06
9.21362e-06
5.84425e-06
-5.33e-07
-5.54471e-06
-7.54697e-07
-9.06286e-05
8.6416e-05
-2.91337e-05
3.90778e-07
3.17663e-05
-4.5647e-07
2.26281e-07
-4.56786e-08
-4.93649e-05
-2.44508e-06
4.91786e-05
2.09876e-06
-5.13797e-05
-1.79034e-06
1.16814e-09
5.10213e-05
2.10184e-06
-4.76638e-08
-2.37154e-06
1.55076e-06
-2.28129e-06
-1.12138e-09
2.00001e-06
1.87491e-08
-4.40846e-05
4.20116e-05
-5.11375e-05
2.08812e-09
4.93638e-05
-4.18099e-09
-3.20669e-09
-8.05084e-12
-5.23486e-05
-1.53179e-06
5.201e-05
1.87167e-06
-5.23491e-05
-1.53186e-06
-1.18615e-09
5.20104e-05
1.8717e-06
6.77428e-12
-2.11554e-06
1.89924e-06
-2.11538e-06
1.12453e-09
1.89916e-06
-1.47885e-11
-5.34161e-05
5.18864e-05
-5.34178e-05
-2.11024e-09
5.1888e-05
-1.05517e-11
3.17144e-09
4.56193e-08
-5.13806e-05
-1.79058e-06
5.10224e-05
2.102e-06
-4.93653e-05
-2.44608e-06
5.77737e-07
4.91788e-05
2.10053e-06
4.75786e-08
-2.28098e-06
1.99996e-06
-2.37224e-06
5.32296e-07
1.55232e-06
-1.86795e-08
-5.11431e-05
4.93691e-05
-4.40943e-05
-3.90037e-07
4.20196e-05
4.19135e-09
-2.25712e-07
-1.426e-06
-4.5536e-05
3.76859e-06
4.84759e-05
-4.70479e-06
-7.15686e-05
-4.96085e-06
6.82373e-05
6.86611e-06
-1.28221e-06
5.83398e-06
-5.53684e-06
-9.57264e-06
9.20085e-06
7.5274e-07
-2.91368e-05
3.17626e-05
-9.06199e-05
8.64118e-05
4.55049e-07
2.40745e-07
-6.58362e-05
-6.34827e-06
6.40584e-05
7.88537e-06
-5.00965e-05
6.37438e-06
-1.29543e-07
5.10306e-05
-6.93828e-06
6.89574e-07
-5.6278e-06
7.33921e-06
5.31572e-06
-2.81043e-07
-5.95994e-06
-2.09763e-06
-8.22657e-05
7.8015e-05
-3.49084e-05
9.22719e-07
3.82624e-05
-1.47749e-06
6.96097e-07
6.09811e-08
-4.91645e-05
-8.3339e-07
4.93243e-05
4.83e-07
-5.06862e-05
-1.024e-06
1.23318e-08
5.04318e-05
1.32701e-06
7.73453e-09
-1.51843e-06
1.24376e-06
-1.36695e-06
8.554e-09
1.70128e-06
1.30827e-07
-4.11188e-05
4.10773e-05
-4.80589e-05
1.78086e-08
4.7148e-05
7.03935e-08
8.30747e-09
-4.04684e-12
-5.16544e-05
-9.11204e-07
5.13197e-05
1.25822e-06
-5.16548e-05
-9.11256e-07
-1.23507e-08
5.13201e-05
1.25832e-06
-1.82515e-11
-1.17886e-06
1.54302e-06
-1.17896e-06
-8.57505e-09
1.54311e-06
5.3971e-11
-5.07159e-05
4.98224e-05
-5.07174e-05
-1.77777e-08
4.98239e-05
-1.78971e-11
-8.33492e-09
-6.07617e-08
-5.06872e-05
-1.02445e-06
5.04325e-05
1.32756e-06
-4.91641e-05
-8.35159e-07
1.29546e-07
4.93231e-05
4.85775e-07
-7.67988e-09
-1.36736e-06
1.70169e-06
-1.52009e-06
2.80905e-07
1.24619e-06
-1.31008e-07
-4.80637e-05
4.71525e-05
-4.11243e-05
-9.21629e-07
4.10797e-05
-7.02645e-08
-6.95056e-07
-2.41126e-07
-5.00903e-05
6.36718e-06
5.10248e-05
-6.931e-06
-6.58376e-05
-6.34183e-06
6.40603e-05
7.87799e-06
-6.89183e-07
5.30743e-06
-5.95172e-06
-5.62147e-06
7.33202e-06
2.09414e-06
-3.49005e-05
3.82519e-05
-8.22649e-05
7.80172e-05
1.47452e-06
-3.91576e-07
-6.26005e-05
-6.18364e-06
6.13854e-05
7.79025e-06
-5.16734e-05
6.52895e-06
-6.17952e-09
5.21496e-05
-7.39051e-06
-1.05632e-07
-6.27142e-06
7.83493e-06
6.50331e-06
-6.0849e-08
-7.19084e-06
-3.04544e-06
-7.43299e-05
7.11917e-05
-4.11087e-05
1.18697e-06
4.34052e-05
-2.58627e-06
1.07079e-06
2.24534e-07
-4.95912e-05
-2.63997e-07
4.98813e-05
-2.56725e-07
-5.02897e-05
-4.97078e-07
3.97933e-08
5.02427e-05
7.28844e-07
1.4982e-07
-4.49512e-07
-2.80529e-08
-7.22234e-07
2.48796e-08
9.89306e-07
2.31228e-07
-4.15072e-05
4.21989e-05
-4.65846e-05
4.31832e-08
4.62755e-05
1.91408e-07
3.25685e-08
-1.07153e-10
-5.10549e-05
-5.53695e-07
5.08688e-05
7.79688e-07
-5.10551e-05
-5.54402e-07
-3.95153e-08
5.0869e-05
7.79905e-07
1.34482e-10
-7.00001e-07
9.89525e-07
-6.99879e-07
-2.46154e-08
9.89616e-07
-1.67859e-09
-4.91542e-05
4.86454e-05
-4.91548e-05
-4.85184e-08
4.86472e-05
7.52278e-10
-2.99654e-08
-2.23693e-07
-5.02899e-05
-4.97942e-07
5.02426e-05
7.29497e-07
-4.95898e-05
-2.63874e-07
6.00849e-09
4.98791e-05
-2.55074e-07
-1.49939e-07
-7.22031e-07
9.89899e-07
-4.51797e-07
6.09578e-08
-2.57696e-08
-2.37258e-07
-4.6587e-05
4.62778e-05
-4.15094e-05
-1.18835e-06
4.21966e-05
-1.86557e-07
-1.06802e-06
3.90403e-07
-5.16682e-05
6.5247e-06
5.21446e-05
-7.38547e-06
-6.26029e-05
-6.1785e-06
6.13877e-05
7.78404e-06
1.04916e-07
6.49734e-06
-7.18474e-06
-6.26581e-06
7.82816e-06
3.04082e-06
-4.10981e-05
4.33936e-05
-7.43345e-05
7.11968e-05
2.58312e-06
-8.08279e-07
-6.0389e-05
-5.87706e-06
5.95588e-05
7.51556e-06
-5.25098e-05
6.39787e-06
3.85662e-09
5.27886e-05
-7.48883e-06
-6.16e-07
-5.95447e-06
7.56691e-06
6.38875e-06
8.33435e-09
-7.37329e-06
-3.69619e-06
-6.86046e-05
6.64237e-05
-4.51827e-05
1.29498e-06
4.65894e-05
-3.36741e-06
1.24389e-06
3.39176e-07
-5.01862e-05
-1.60439e-07
5.04978e-05
-4.86519e-07
-5.0274e-05
-1.99359e-07
7.15846e-08
5.03654e-05
3.75575e-07
2.83796e-07
-1.81584e-07
-3.98825e-07
-3.21281e-07
5.46739e-08
5.1905e-07
3.06265e-07
-4.29888e-05
4.3817e-05
-4.61637e-05
7.47777e-08
4.61958e-05
2.72495e-07
6.3045e-08
-2.28663e-11
-5.07615e-05
-3.28903e-07
5.07206e-05
4.41341e-07
-5.07615e-05
-3.29154e-07
-7.15099e-08
5.07206e-05
4.4155e-07
2.60996e-11
-4.26974e-07
5.88976e-07
-4.26609e-07
-5.50374e-08
5.89177e-07
-1.93424e-10
-4.82797e-05
4.80258e-05
-4.82801e-05
-7.57431e-08
4.80265e-05
1.73733e-09
-5.77878e-08
-3.38808e-07
-5.02737e-05
-1.99892e-07
5.03648e-05
3.76095e-07
-5.01841e-05
-1.6089e-07
-4.03318e-09
5.04955e-05
-4.85328e-07
-2.83653e-07
-3.22184e-07
5.19679e-07
-1.8313e-07
-8.26263e-09
-3.973e-07
-3.06772e-07
-4.61655e-05
4.61967e-05
-4.29873e-05
-1.29448e-06
4.38141e-05
-2.67681e-07
-1.24146e-06
8.07072e-07
-5.25056e-05
6.39442e-06
5.27849e-05
-7.48485e-06
-6.03915e-05
-5.87325e-06
5.95612e-05
7.51058e-06
6.14946e-07
6.38461e-06
-7.3688e-06
-5.95027e-06
7.56148e-06
3.69247e-06
-4.51726e-05
4.658e-05
-6.86107e-05
6.643e-05
3.36419e-06
-1.07906e-06
-5.88743e-05
-5.65539e-06
5.83035e-05
7.30524e-06
-5.30106e-05
6.323e-06
-3.46318e-08
5.31935e-05
-7.55034e-06
-9.48646e-07
-5.69326e-06
7.32642e-06
6.28511e-06
-1.19252e-08
-7.44388e-06
-4.1329e-06
-6.46279e-05
6.31054e-05
-4.76762e-05
1.31903e-06
4.85472e-05
-3.89742e-06
1.30089e-06
4.13447e-07
-5.08001e-05
-1.98514e-07
5.10929e-05
-5.42295e-07
-5.04988e-05
-5.12718e-08
1.02887e-07
5.06648e-05
1.959e-07
3.77301e-07
-1.69652e-07
-5.21861e-07
-1.10123e-07
8.66466e-08
2.67333e-07
3.58862e-07
-4.46164e-05
4.5378e-05
-4.63295e-05
1.01471e-07
4.65356e-05
3.31881e-07
8.80764e-08
4.28356e-11
-5.07361e-05
-1.72661e-07
5.07981e-05
2.13503e-07
-5.0736e-05
-1.72814e-07
-1.02721e-07
5.07979e-05
2.13645e-07
1.84342e-11
-2.414e-07
3.12539e-07
-2.4157e-07
-8.65249e-08
3.12715e-07
2.65351e-11
-4.78725e-05
4.78012e-05
-4.78729e-05
-1.01357e-07
4.78015e-05
3.44526e-12
-8.797e-08
-4.13085e-07
-5.0498e-05
-5.16446e-08
5.06638e-05
1.96192e-07
-5.07978e-05
-1.98671e-07
3.43649e-08
5.10906e-05
-5.41549e-07
-3.76923e-07
-1.10576e-07
2.67728e-07
-1.69942e-07
1.17052e-08
-5.20935e-07
-3.58567e-07
-4.63297e-05
4.65353e-05
-4.46129e-05
-1.31858e-06
4.53743e-05
-3.316e-07
-1.30037e-06
1.07789e-06
-5.30074e-05
6.32013e-06
5.31907e-05
-7.54699e-06
-5.88766e-05
-5.65225e-06
5.83057e-05
7.30105e-06
9.47457e-07
6.28203e-06
-7.4403e-06
-5.68982e-06
7.32189e-06
4.1295e-06
-4.76678e-05
4.85398e-05
-6.4634e-05
6.31113e-05
3.89389e-06
-1.25572e-06
-5.78313e-05
-5.50533e-06
5.74383e-05
7.15408e-06
-5.33503e-05
6.29158e-06
-8.7679e-08
5.34875e-05
-7.59675e-06
-1.16491e-06
-5.51207e-06
7.14918e-06
6.23643e-06
-5.98553e-08
-7.49828e-06
-4.42371e-06
-6.18432e-05
6.07616e-05
-4.92322e-05
1.30453e-06
4.97955e-05
-4.24989e-06
1.30159e-06
4.55058e-07
-5.13692e-05
-2.67331e-07
5.16335e-05
-5.39673e-07
-5.08532e-05
1.70709e-08
1.30474e-07
5.10562e-05
1.04488e-07
4.32964e-07
-2.31204e-07
-5.37994e-07
-1.35315e-08
1.16295e-07
1.41824e-07
3.9289e-07
-4.60742e-05
4.67185e-05
-4.67849e-05
1.22372e-07
4.70725e-05
3.74204e-07
1.11393e-07
5.9882e-11
-5.08964e-05
-6.42826e-08
5.10251e-05
6.5917e-08
-5.08961e-05
-6.4384e-08
-1.30284e-07
5.10248e-05
6.59805e-08
8.47163e-11
-1.12046e-07
1.30014e-07
-1.12205e-07
-1.16e-07
1.30111e-07
4.54127e-11
-4.78006e-05
4.78586e-05
-4.78007e-05
-1.22227e-07
4.78586e-05
-6.30356e-12
-1.11416e-07
-4.54742e-07
-5.0852e-05
1.67884e-08
5.10551e-05
1.04606e-07
-5.1367e-05
-2.67309e-07
8.7348e-08
5.16314e-05
-5.39172e-07
-4.32724e-07
-1.34193e-08
1.41979e-07
-2.31296e-07
5.95317e-08
-5.37403e-07
-3.92605e-07
-4.67842e-05
4.70714e-05
-4.60703e-05
-1.30423e-06
4.67146e-05
-3.73803e-07
-1.30119e-06
1.25465e-06
-5.33479e-05
6.28901e-06
5.34853e-05
-7.59377e-06
-5.78334e-05
-5.50263e-06
5.74402e-05
7.15044e-06
1.1638e-06
6.23374e-06
-7.49517e-06
-5.50918e-06
7.1453e-06
4.42063e-06
-4.92257e-05
4.97899e-05
-6.18488e-05
6.07668e-05
4.24669e-06
-1.36979e-06
-5.71128e-05
-5.39271e-06
5.68439e-05
7.03137e-06
-5.36132e-05
6.26973e-06
-1.40787e-07
5.37298e-05
-7.61534e-06
-1.30539e-06
-5.38418e-06
7.01508e-06
6.21116e-06
-1.13437e-07
-7.52886e-06
-4.61098e-06
-5.98586e-05
5.90768e-05
-5.0249e-05
1.27258e-06
5.06352e-05
-4.48114e-06
1.27651e-06
4.73959e-07
-5.1882e-05
-3.27853e-07
5.21202e-05
-5.25013e-07
-5.12647e-05
4.69688e-08
1.52796e-07
5.14817e-05
5.71061e-08
4.62018e-07
-2.97351e-07
-5.2666e-07
3.6517e-08
1.40727e-07
7.62911e-08
4.12397e-07
-4.72977e-05
4.783e-05
-4.73798e-05
1.37189e-07
4.77019e-05
3.99973e-07
1.29222e-07
6.34074e-11
-5.11744e-05
8.7857e-09
5.13437e-05
-2.53338e-08
-5.11741e-05
8.72465e-09
-1.52602e-07
5.13433e-05
-2.53227e-08
5.90201e-11
-2.5286e-08
1.66888e-08
-2.53689e-08
-1.4054e-07
1.67195e-08
6.20828e-11
-4.79625e-05
4.81084e-05
-4.79623e-05
-1.3703e-07
4.81082e-05
5.70515e-11
-1.29064e-07
-4.73697e-07
-5.12635e-05
4.69076e-08
5.14806e-05
5.70862e-08
-5.18801e-05
-3.27743e-07
1.40418e-07
5.21183e-05
-5.24644e-07
-4.6173e-07
3.6392e-08
7.63312e-08
-2.97274e-07
1.13092e-07
-5.2624e-07
-4.12145e-07
-4.73784e-05
4.77005e-05
-4.72939e-05
-1.27239e-06
4.78265e-05
-3.99707e-07
-1.27628e-06
1.36884e-06
-5.36114e-05
6.26735e-06
5.37282e-05
-7.61261e-06
-5.71146e-05
-5.3903e-06
5.68456e-05
7.02814e-06
1.3044e-06
6.20871e-06
-7.52604e-06
-5.38164e-06
7.01168e-06
4.60817e-06
-5.0244e-05
5.06308e-05
-5.98634e-05
5.90813e-05
4.47823e-06
-1.44222e-06
-5.6622e-05
-5.30098e-06
5.64417e-05
6.92348e-06
-5.38439e-05
6.24567e-06
-1.82598e-07
5.39525e-05
-7.61386e-06
-1.39654e-06
-5.2879e-06
6.90634e-06
6.19382e-06
-1.63868e-07
-7.54059e-06
-4.72784e-06
-5.84199e-05
5.78467e-05
-5.09565e-05
1.23434e-06
5.124e-05
-4.63097e-06
1.24159e-06
4.78571e-07
-5.23446e-05
-3.68796e-07
5.25633e-05
-5.11039e-07
-5.17005e-05
5.30642e-08
1.7076e-07
5.19237e-05
3.15098e-08
4.72723e-07
-3.4877e-07
-5.12296e-07
5.1036e-08
1.606e-07
4.23104e-08
4.21994e-07
-4.83088e-05
4.87523e-05
-4.80261e-05
1.46238e-07
4.83549e-05
4.14102e-07
1.40971e-07
9.51762e-11
-5.15271e-05
5.95512e-08
5.17237e-05
-8.54913e-08
-5.15268e-05
5.95142e-08
-1.70484e-07
5.17234e-05
-8.55288e-08
7.00306e-11
3.62e-08
-5.91133e-08
3.61519e-08
-1.60397e-07
-5.91266e-08
7.56325e-11
-4.82855e-05
4.84912e-05
-4.82852e-05
-1.46066e-07
4.84908e-05
6.58924e-11
-1.40814e-07
-4.78159e-07
-5.16994e-05
5.30628e-08
5.19227e-05
3.13904e-08
-5.23431e-05
-3.68817e-07
1.82913e-07
5.25616e-05
-5.10846e-07
-4.72483e-07
5.10218e-08
4.22444e-08
-3.4866e-07
1.63442e-07
-5.11975e-07
-4.21763e-07
-4.80245e-05
4.83533e-05
-4.83054e-05
-1.2343e-06
4.87491e-05
-4.1387e-07
-1.24146e-06
1.44155e-06
-5.38424e-05
6.24359e-06
5.39514e-05
-7.61122e-06
-5.66235e-05
-5.29873e-06
5.64432e-05
6.92059e-06
1.39565e-06
6.19155e-06
-7.53798e-06
-5.2856e-06
6.90329e-06
4.72527e-06
-5.09526e-05
5.12366e-05
-5.8424e-05
5.78505e-05
4.62831e-06
-1.48543e-06
-5.62945e-05
-5.21451e-06
5.61791e-05
6.81538e-06
-5.40603e-05
6.20634e-06
-2.08841e-07
5.41663e-05
-7.58896e-06
-1.45206e-06
-5.19953e-06
6.7988e-06
6.16061e-06
-1.94598e-07
-7.52591e-06
-4.79112e-06
-5.73644e-05
5.6941e-05
-5.14813e-05
1.19414e-06
5.17024e-05
-4.71716e-06
1.20207e-06
4.74341e-07
-5.27736e-05
-3.89445e-07
5.29791e-05
-4.99231e-07
-5.21455e-05
4.83722e-08
1.86976e-07
5.23683e-05
1.61993e-08
4.72371e-07
-3.77729e-07
-4.99512e-07
5.10494e-08
1.76711e-07
2.28794e-08
4.24587e-07
-4.91569e-05
4.9537e-05
-4.86783e-05
1.50554e-07
4.90007e-05
4.19742e-07
1.47391e-07
7.09738e-11
-5.19268e-05
9.40848e-08
5.21394e-05
-1.19736e-07
-5.19265e-05
9.4068e-08
-1.86765e-07
5.21391e-05
-1.19792e-07
5.90037e-11
7.74316e-08
-1.03909e-07
7.74113e-08
-1.76548e-07
-1.03952e-07
6.77232e-11
-4.8716e-05
4.89606e-05
-4.87156e-05
-1.50409e-07
4.89601e-05
6.37512e-11
-1.4725e-07
-4.74131e-07
-5.21445e-05
4.84626e-08
5.23673e-05
1.6053e-08
-5.27722e-05
-3.89386e-07
2.08659e-07
5.29778e-05
-4.98974e-07
-4.72257e-07
5.11193e-08
2.27703e-08
-3.77616e-07
1.93998e-07
-4.99191e-07
-4.24374e-07
-4.86767e-05
4.89991e-05
-4.91539e-05
-1.19406e-06
4.95342e-05
-4.19531e-07
-1.20195e-06
1.4847e-06
-5.40592e-05
6.20429e-06
5.41655e-05
-7.58656e-06
-5.62958e-05
-5.21246e-06
5.61803e-05
6.81267e-06
1.45119e-06
6.15847e-06
-7.52349e-06
-5.19742e-06
6.79599e-06
4.78877e-06
-5.14784e-05
5.16998e-05
-5.73678e-05
5.69441e-05
4.71473e-06
-1.50958e-06
-5.60873e-05
-5.13185e-06
5.60205e-05
6.70829e-06
-5.42743e-05
6.15998e-06
-2.30488e-07
5.43821e-05
-7.54683e-06
-1.48524e-06
-5.11927e-06
6.69621e-06
6.12179e-06
-2.18089e-07
-7.49694e-06
-4.81827e-06
-5.65848e-05
5.62712e-05
-5.18978e-05
1.15537e-06
5.20841e-05
-4.76306e-06
1.16338e-06
4.64594e-07
-5.31775e-05
-4.00159e-07
5.33724e-05
-4.89817e-07
-5.25876e-05
4.02146e-08
1.96904e-07
5.28077e-05
7.36379e-09
4.65481e-07
-3.92865e-07
-4.89125e-07
4.33851e-08
1.91736e-07
1.09842e-08
4.22558e-07
-4.98875e-05
5.02201e-05
-4.93141e-05
1.51733e-07
4.96252e-05
4.20037e-07
1.5002e-07
6.81178e-11
-5.23548e-05
1.16064e-07
5.25748e-05
-1.39194e-07
-5.23545e-05
1.16065e-07
-1.96711e-07
5.25745e-05
-1.39265e-07
6.89282e-11
1.05821e-07
-1.29599e-07
1.05815e-07
-1.91549e-07
-1.29661e-07
6.6897e-11
-4.92163e-05
4.94841e-05
-4.92159e-05
-1.51597e-07
4.94836e-05
6.70481e-11
-1.49881e-07
-4.64432e-07
-5.25868e-05
4.03326e-08
5.28069e-05
7.23348e-09
-5.31763e-05
-4.001e-07
2.30231e-07
5.33713e-05
-4.89564e-07
-4.65304e-07
4.34938e-08
1.08057e-08
-3.92803e-07
2.17823e-07
-4.88869e-07
-4.22363e-07
-4.93126e-05
4.96237e-05
-4.98849e-05
-1.15531e-06
5.02177e-05
-4.19836e-07
-1.16331e-06
1.50891e-06
-5.42736e-05
6.15802e-06
5.43814e-05
-7.54457e-06
-5.60885e-05
-5.12991e-06
5.60216e-05
6.70576e-06
1.48453e-06
6.1198e-06
-7.49463e-06
-5.11727e-06
6.6936e-06
4.81609e-06
-5.18955e-05
5.20821e-05
-5.65877e-05
5.62739e-05
4.76081e-06
-1.51987e-06
-5.59702e-05
-5.04878e-06
5.59395e-05
6.59939e-06
-5.44924e-05
6.10276e-06
-2.47812e-07
5.46027e-05
-7.48507e-06
-1.50112e-06
-5.03516e-06
6.58652e-06
6.06809e-06
-2.37227e-07
-7.44235e-06
-4.81717e-06
-5.60092e-05
5.57776e-05
-5.22536e-05
1.11864e-06
5.24205e-05
-4.77315e-06
1.12549e-06
4.51653e-07
-5.35615e-05
-4.03729e-07
5.37479e-05
-4.82129e-07
-5.30234e-05
3.32868e-08
1.98848e-07
5.32386e-05
4.38654e-09
4.538e-07
-3.99461e-07
-4.80701e-07
3.61371e-08
1.96414e-07
5.5547e-09
4.1734e-07
-5.053e-05
5.08276e-05
-4.99274e-05
1.50847e-07
5.02272e-05
4.16114e-07
1.5e-07
6.48516e-11
-5.27935e-05
1.26624e-07
5.30143e-05
-1.48652e-07
-5.27933e-05
1.26635e-07
-1.98669e-07
5.30141e-05
-1.48729e-07
6.59819e-11
1.21135e-07
-1.43528e-07
1.21142e-07
-1.9623e-07
-1.43603e-07
6.39163e-11
-4.97551e-05
5.00325e-05
-4.97547e-05
-1.5072e-07
5.00321e-05
6.49415e-11
-1.4987e-07
-4.51515e-07
-5.30227e-05
3.34096e-08
5.32379e-05
4.24789e-09
-5.35605e-05
-4.03686e-07
2.4756e-07
5.3747e-05
-4.81874e-07
-4.53652e-07
3.62572e-08
5.41776e-09
-3.99411e-07
2.36975e-07
-4.80451e-07
-4.17161e-07
-4.9926e-05
5.02258e-05
-5.05278e-05
-1.11859e-06
5.08256e-05
-4.15929e-07
-1.12544e-06
1.51926e-06
-5.44919e-05
6.10087e-06
5.46022e-05
-7.4829e-06
-5.59713e-05
-5.04695e-06
5.59405e-05
6.59701e-06
1.50048e-06
6.06619e-06
-7.44016e-06
-5.03328e-06
6.58408e-06
4.81512e-06
-5.22518e-05
5.2419e-05
-5.60116e-05
5.57798e-05
4.77106e-06
-1.52014e-06
-5.59199e-05
-4.96509e-06
5.59152e-05
6.48989e-06
-5.47151e-05
6.03444e-06
-2.61228e-07
5.48267e-05
-7.40492e-06
-1.50653e-06
-4.95474e-06
6.48086e-06
6.00841e-06
-2.52487e-07
-7.37489e-06
-4.79463e-06
-5.55854e-05
5.54149e-05
-5.25757e-05
1.08422e-06
5.27313e-05
-4.76255e-06
1.09067e-06
4.37245e-07
-5.39291e-05
-4.03158e-07
5.41074e-05
-4.73645e-07
-5.34486e-05
2.60903e-08
1.97594e-07
5.3657e-05
5.17256e-09
4.40258e-07
-4.00672e-07
-4.73266e-07
2.92996e-08
1.96569e-07
4.33576e-09
4.10168e-07
-5.11076e-05
5.13785e-05
-5.0518e-05
1.48635e-07
5.08057e-05
4.10007e-07
1.48448e-07
6.07166e-11
-5.32318e-05
1.30193e-07
5.34492e-05
-1.50026e-07
-5.32316e-05
1.30208e-07
-1.97429e-07
5.34489e-05
-1.50101e-07
6.22403e-11
1.27867e-07
-1.48819e-07
1.27881e-07
-1.96399e-07
-1.48895e-07
6.01203e-11
-5.03088e-05
5.05876e-05
-5.03084e-05
-1.48518e-07
5.05871e-05
6.14663e-11
-1.48327e-07
-4.37124e-07
-5.3448e-05
2.62133e-08
5.36564e-05
5.04614e-09
-5.39283e-05
-4.03136e-07
2.60983e-07
5.41067e-05
-4.73378e-07
-4.4013e-07
2.94215e-08
4.2029e-09
-4.0064e-07
2.52241e-07
-4.73008e-07
-4.10001e-07
-5.05168e-05
5.08045e-05
-5.11057e-05
-1.08418e-06
5.13768e-05
-4.09836e-07
-1.09063e-06
1.51958e-06
-5.47148e-05
6.03262e-06
5.48264e-05
-7.40284e-06
-5.59208e-05
-4.96334e-06
5.59161e-05
6.48763e-06
1.50595e-06
6.00657e-06
-7.37279e-06
-4.95295e-06
6.47855e-06
4.79271e-06
-5.25744e-05
5.27301e-05
-5.55874e-05
5.54168e-05
4.76058e-06
-1.51299e-06
-5.59168e-05
-4.88123e-06
5.59292e-05
6.3818e-06
-5.49394e-05
5.95496e-06
-2.7116e-07
5.50497e-05
-7.30707e-06
-1.50223e-06
-4.86951e-06
6.37017e-06
5.9327e-06
-2.63884e-07
-7.28372e-06
-4.75555e-06
-5.52751e-05
5.51494e-05
-5.2877e-05
1.05207e-06
5.30243e-05
-4.72966e-06
1.05731e-06
4.22576e-07
-5.42802e-05
-4.01139e-07
5.44493e-05
-4.61713e-07
-5.38595e-05
1.71865e-08
1.94421e-07
5.40586e-05
1.1799e-08
4.2555e-07
-3.98973e-07
-4.63265e-07
2.15902e-08
1.94251e-07
7.2469e-09
4.01929e-07
-5.16347e-05
5.18837e-05
-5.10836e-05
1.45595e-07
5.13572e-05
4.02126e-07
1.45741e-07
5.69007e-11
-5.36611e-05
1.28371e-07
5.38709e-05
-1.43771e-07
-5.36609e-05
1.28388e-07
-1.94275e-07
5.38707e-05
-1.43837e-07
5.76581e-11
1.28584e-07
-1.46348e-07
1.28598e-07
-1.94093e-07
-1.46418e-07
5.56589e-11
-5.08618e-05
5.11357e-05
-5.08614e-05
-1.45486e-07
5.11354e-05
5.74883e-11
-1.45629e-07
-4.22464e-07
-5.38589e-05
1.7322e-08
5.40581e-05
1.16468e-08
-5.42796e-05
-4.01138e-07
2.70924e-07
5.44487e-05
-4.61429e-07
-4.25437e-07
2.17129e-08
7.13388e-09
-3.98963e-07
2.63647e-07
-4.62992e-07
-4.01773e-07
-5.10825e-05
5.13561e-05
-5.16331e-05
-1.05203e-06
5.18822e-05
-4.01966e-07
-1.05727e-06
1.51247e-06
-5.49391e-05
5.95319e-06
5.50494e-05
-7.30506e-06
-5.59176e-05
-4.87955e-06
5.593e-05
6.37965e-06
1.5017e-06
5.93092e-06
-7.2817e-06
-4.8678e-06
6.36798e-06
4.75373e-06
-5.28759e-05
5.30234e-05
-5.52768e-05
5.5151e-05
4.72781e-06
-1.50089e-06
-5.59434e-05
-4.80101e-06
5.59644e-05
6.28086e-06
-5.51592e-05
5.8672e-06
-2.78166e-07
5.52641e-05
-7.19481e-06
-1.49219e-06
-4.78714e-06
6.26516e-06
5.8487e-06
-2.72155e-07
-7.1783e-06
-4.70549e-06
-5.50465e-05
5.4951e-05
-5.31623e-05
1.02244e-06
5.33016e-05
-4.68421e-06
1.02654e-06
4.08742e-07
-5.46118e-05
-4.0015e-07
5.4769e-05
-4.43905e-07
-5.42502e-05
5.65132e-09
1.89726e-07
5.44362e-05
2.73308e-08
4.11271e-07
-3.97094e-07
-4.48836e-07
1.08626e-08
1.90265e-07
1.85974e-08
3.93335e-07
-5.21195e-05
5.23484e-05
-5.16193e-05
1.42166e-07
5.18761e-05
3.93682e-07
1.42454e-07
5.28388e-11
-5.40731e-05
1.21293e-07
5.42707e-05
-1.29196e-07
-5.40729e-05
1.21312e-07
-1.89594e-07
5.42705e-05
-1.29256e-07
5.46548e-11
1.24208e-07
-1.36195e-07
1.24228e-07
-1.9013e-07
-1.36258e-07
5.08087e-11
-5.14023e-05
5.16658e-05
-5.1402e-05
-1.42064e-07
5.16654e-05
5.25506e-11
-1.42349e-07
-4.0864e-07
-5.42497e-05
5.74929e-09
5.44358e-05
2.72222e-08
-5.46113e-05
-4.00168e-07
2.77938e-07
5.47685e-05
-4.43607e-07
-4.11164e-07
1.09583e-08
1.84749e-08
-3.97103e-07
2.71926e-07
-4.48548e-07
-3.93188e-07
-5.16183e-05
5.18751e-05
-5.21181e-05
-1.0224e-06
5.23471e-05
-3.93533e-07
-1.0265e-06
1.5004e-06
-5.5159e-05
5.86548e-06
5.52639e-05
-7.19286e-06
-5.59441e-05
-4.79939e-06
5.59651e-05
6.2788e-06
1.4917e-06
5.84697e-06
-7.17634e-06
-4.78549e-06
6.26306e-06
4.70375e-06
-5.31614e-05
5.33007e-05
-5.50479e-05
5.49523e-05
4.68245e-06
-1.4833e-06
-5.59827e-05
-4.71924e-06
5.60035e-05
6.18179e-06
-5.53659e-05
5.76333e-06
-2.82328e-07
5.546e-05
-7.05848e-06
-1.47735e-06
-4.70679e-06
6.16583e-06
5.75389e-06
-2.7763e-07
-7.05536e-06
-4.64147e-06
-5.48716e-05
5.47939e-05
-5.34302e-05
9.93865e-07
5.35582e-05
-4.62746e-06
9.97755e-07
3.95458e-07
-5.49177e-05
-4.02023e-07
5.50585e-05
-4.16633e-07
-5.46122e-05
-9.55989e-09
1.84171e-07
5.4781e-05
5.20299e-08
3.97859e-07
-3.97282e-07
-4.26883e-07
-1.24879e-09
1.85036e-07
3.80968e-08
3.84164e-07
-5.25641e-05
5.27717e-05
-5.21207e-05
1.38508e-07
5.23568e-05
3.84848e-07
1.38928e-07
4.84474e-11
-5.44582e-05
1.08337e-07
5.46382e-05
-1.04258e-07
-5.4458e-05
1.08353e-07
-1.84046e-07
5.46381e-05
-1.04312e-07
4.99907e-11
1.14378e-07
-1.16909e-07
1.14396e-07
-1.84908e-07
-1.16966e-07
4.68347e-11
-5.1919e-05
5.21658e-05
-5.19187e-05
-1.38413e-07
5.21655e-05
4.82386e-11
-1.38831e-07
-3.95365e-07
-5.46118e-05
-9.46919e-09
5.47806e-05
5.19473e-08
-5.49172e-05
-4.02069e-07
2.82107e-07
5.50581e-05
-4.16315e-07
-3.97762e-07
-1.1562e-09
3.80023e-08
-3.97312e-07
2.77409e-07
-4.26579e-07
-3.84026e-07
-5.21198e-05
5.2356e-05
-5.25628e-05
-9.93829e-07
5.27706e-05
-3.84707e-07
-9.97718e-07
1.48285e-06
-5.53657e-05
5.76164e-06
5.54599e-05
-7.05659e-06
-5.59834e-05
-4.71763e-06
5.60041e-05
6.17977e-06
1.47689e-06
5.7522e-06
-7.05346e-06
-4.70518e-06
6.1638e-06
4.63982e-06
-5.34294e-05
5.35574e-05
-5.48729e-05
5.47951e-05
4.62579e-06
-1.46306e-06
-5.60172e-05
-4.64417e-06
5.60286e-05
6.09581e-06
-5.5548e-05
5.65067e-06
-2.84365e-07
5.56247e-05
-6.90611e-06
-1.45883e-06
-4.63014e-06
6.07523e-06
5.64814e-06
-2.80718e-07
-6.91417e-06
-4.57124e-06
-5.47255e-05
5.46525e-05
-5.36739e-05
9.67376e-07
5.37859e-05
-4.56175e-06
9.70736e-07
3.83527e-07
-5.51885e-05
-4.08931e-07
5.53074e-05
-3.77838e-07
-5.49369e-05
-2.75253e-08
1.78071e-07
5.50814e-05
8.84758e-08
3.85425e-07
-4.01492e-07
-3.94606e-07
-1.78014e-08
1.7931e-07
6.80643e-08
3.75093e-07
-5.29651e-05
5.31484e-05
-5.25796e-05
1.34956e-07
5.27922e-05
3.75886e-07
1.35368e-07
4.63552e-11
-5.48055e-05
8.84811e-08
5.49617e-05
-6.66468e-08
-5.48053e-05
8.84919e-08
-1.77951e-07
5.49615e-05
-6.66934e-08
4.66795e-11
9.83277e-08
-8.63251e-08
9.83416e-08
-1.79191e-07
-8.63751e-08
4.4449e-11
-5.23995e-05
5.26228e-05
-5.23992e-05
-1.34864e-07
5.26226e-05
4.49646e-11
-1.35275e-07
-3.83435e-07
-5.49365e-05
-2.74719e-08
5.50811e-05
8.84229e-08
-5.51881e-05
-4.09043e-07
2.84173e-07
5.53071e-05
-3.77489e-07
-3.85336e-07
-1.77403e-08
6.79981e-08
-4.01564e-07
2.80503e-07
-3.94276e-07
-3.74962e-07
-5.25787e-05
5.27914e-05
-5.29639e-05
-9.67351e-07
5.31473e-05
-3.75754e-07
-9.70705e-07
1.46264e-06
-5.55479e-05
5.64888e-06
5.56248e-05
-6.90423e-06
-5.60177e-05
-4.64239e-06
5.6029e-05
6.09379e-06
1.4584e-06
5.64645e-06
-6.91231e-06
-4.62849e-06
6.07322e-06
4.56965e-06
-5.3673e-05
5.37849e-05
-5.47268e-05
5.4654e-05
4.56015e-06
-1.44025e-06
-5.60285e-05
-4.57506e-06
5.60208e-05
6.02305e-06
-5.56914e-05
5.52597e-06
-2.84573e-07
5.57428e-05
-6.73306e-06
-1.43744e-06
-4.55904e-06
5.99658e-06
5.53114e-06
-2.81764e-07
-6.75352e-06
-4.49439e-06
-5.45823e-05
5.45017e-05
-5.38829e-05
9.42345e-07
5.39722e-05
-4.48886e-06
9.4527e-07
3.72651e-07
-5.54121e-05
-4.22204e-07
5.55019e-05
-3.24777e-07
-5.52101e-05
-5.24267e-08
1.72181e-07
5.53236e-05
1.39361e-07
3.74158e-07
-4.11256e-07
-3.49461e-07
-3.87532e-08
1.73274e-07
1.1093e-07
3.66131e-07
-5.33155e-05
5.34695e-05
-5.29884e-05
1.31487e-07
5.31707e-05
3.66938e-07
1.31905e-07
4.12677e-11
-5.51018e-05
5.96263e-08
5.52246e-05
-1.02707e-08
-5.51017e-05
5.96408e-08
-1.72071e-07
5.52245e-05
-1.03272e-08
4.41073e-11
7.45119e-08
-4.14034e-08
7.4522e-08
-1.73158e-07
-4.1448e-08
4.18893e-11
-5.28292e-05
5.30203e-05
-5.28289e-05
-1.31398e-07
5.302e-05
4.29311e-11
-1.31814e-07
-3.72571e-07
-5.52098e-05
-5.23633e-08
5.53233e-05
1.39303e-07
-5.54119e-05
-4.22279e-07
2.84375e-07
5.55017e-05
-3.2446e-07
-3.7407e-07
-3.8705e-08
1.10885e-07
-4.114e-07
2.81582e-07
-3.49107e-07
-3.66003e-07
-5.29876e-05
5.31699e-05
-5.33143e-05
-9.4234e-07
5.34684e-05
-3.6681e-07
-9.45252e-07
1.43986e-06
-5.56917e-05
5.52469e-06
5.57431e-05
-6.73153e-06
-5.60286e-05
-4.57389e-06
5.60208e-05
6.0215e-06
1.43704e-06
5.52925e-06
-6.75168e-06
-4.55714e-06
5.9946e-06
4.49299e-06
-5.38815e-05
5.39709e-05
-5.45842e-05
5.45033e-05
4.48735e-06
-1.41535e-06
-5.59971e-05
-4.51282e-06
5.59594e-05
5.96584e-06
-5.57796e-05
5.38797e-06
-2.83022e-07
5.57967e-05
-6.53745e-06
-1.41386e-06
-4.4948e-06
5.93233e-06
5.40215e-06
-2.81164e-07
-6.57161e-06
-4.41239e-06
-5.4417e-05
5.43165e-05
-5.40431e-05
9.18548e-07
5.41001e-05
-4.41009e-06
9.21139e-07
3.62844e-07
-5.55739e-05
-4.43364e-07
5.56265e-05
-2.55088e-07
-5.54179e-05
-8.56014e-08
1.65344e-07
5.54928e-05
2.08191e-07
3.63906e-07
-4.28029e-07
-2.89013e-07
-6.73204e-08
1.67176e-07
1.69788e-07
3.57408e-07
-5.36045e-05
5.37222e-05
-5.3333e-05
1.28023e-07
5.34768e-05
3.58178e-07
1.28479e-07
4.3887e-11
-5.53284e-05
2.49136e-08
5.54135e-05
5.53159e-08
-5.53283e-05
2.49389e-08
-1.65233e-07
5.54134e-05
5.52642e-08
4.13861e-11
4.30033e-08
2.03021e-08
4.3019e-08
-1.67071e-07
2.02612e-08
4.47654e-11
-5.31917e-05
5.33446e-05
-5.31915e-05
-1.27929e-07
5.33444e-05
4.12642e-11
-1.28391e-07
-3.62749e-07
-5.54176e-05
-8.54933e-08
5.54925e-05
2.08095e-07
-5.55737e-05
-4.43351e-07
2.82898e-07
5.56263e-05
-2.54849e-07
-3.63827e-07
-6.72468e-08
1.6972e-07
-4.28112e-07
2.80981e-07
-2.88712e-07
-3.57272e-07
-5.33323e-05
5.34761e-05
-5.36034e-05
-9.18563e-07
5.37213e-05
-3.5805e-07
-9.21143e-07
1.41504e-06
-5.578e-05
5.387e-06
5.57971e-05
-6.53619e-06
-5.59969e-05
-4.51208e-06
5.59593e-05
5.96471e-06
1.41347e-06
5.40072e-06
-6.57015e-06
-4.49356e-06
5.93094e-06
4.41108e-06
-5.40417e-05
5.4099e-05
-5.44185e-05
5.43175e-05
4.40877e-06
-1.38915e-06
-5.58985e-05
-4.45529e-06
5.5818e-05
5.92487e-06
-5.57967e-05
5.23264e-06
-2.80399e-07
5.57711e-05
-6.31585e-06
-1.38796e-06
-4.43233e-06
5.88128e-06
5.25408e-06
-2.78818e-07
-6.36318e-06
-4.32494e-06
-5.42092e-05
5.40789e-05
-5.41313e-05
8.9586e-07
5.41432e-05
-4.325e-06
8.97853e-07
3.53978e-07
-5.56575e-05
-4.7302e-07
5.56643e-05
-1.68078e-07
-5.55445e-05
-1.28752e-07
1.58132e-07
5.55716e-05
2.97534e-07
3.54586e-07
-4.53313e-07
-2.1118e-07
-1.04786e-07
1.60081e-07
2.47547e-07
3.48837e-07
-5.38172e-05
5.38912e-05
-5.35966e-05
1.24586e-07
5.36921e-05
3.49537e-07
1.25018e-07
5.67402e-11
-5.54744e-05
-2.17692e-08
5.55106e-05
1.43699e-07
-5.54743e-05
-2.17505e-08
-1.58002e-07
5.55105e-05
1.43646e-07
4.56754e-11
3.45846e-09
9.5629e-08
3.49443e-09
-1.5997e-07
9.55716e-08
7.96414e-11
-5.3473e-05
5.35758e-05
-5.34728e-05
-1.24439e-07
5.35756e-05
5.41192e-11
-1.2491e-07
-3.53895e-07
-5.55443e-05
-1.28623e-07
5.55714e-05
2.97428e-07
-5.56572e-05
-4.72888e-07
2.80307e-07
5.56639e-05
-1.67981e-07
-3.54493e-07
-1.04636e-07
2.47427e-07
-4.53119e-07
2.78709e-07
-2.1104e-07
-3.48663e-07
-5.3596e-05
5.36916e-05
-5.38167e-05
-8.95822e-07
5.38909e-05
-3.49392e-07
-8.97864e-07
1.38879e-06
-5.57963e-05
5.23247e-06
5.57702e-05
-6.31492e-06
-5.58991e-05
-4.45548e-06
5.58192e-05
5.92417e-06
1.38769e-06
5.25415e-06
-6.36233e-06
-4.43279e-06
5.88068e-06
4.32377e-06
-5.41315e-05
5.41444e-05
-5.42086e-05
5.40769e-05
4.32381e-06
-1.36143e-06
-5.57115e-05
-4.41698e-06
5.55807e-05
5.90922e-06
-5.57207e-05
5.07107e-06
-2.77686e-07
5.56379e-05
-6.07202e-06
-1.36158e-06
-4.38559e-06
5.85368e-06
5.09839e-06
-2.75835e-07
-6.13372e-06
-4.23503e-06
-5.39313e-05
5.37494e-05
-5.41272e-05
8.74576e-07
5.40886e-05
-4.23807e-06
8.76334e-07
3.46929e-07
-5.56453e-05
-5.08501e-07
5.56029e-05
-7.37503e-08
-5.55708e-05
-1.82667e-07
1.51005e-07
5.55401e-05
4.09271e-07
3.46463e-07
-4.85686e-07
-1.17661e-07
-1.53029e-07
1.52907e-07
3.47345e-07
3.40422e-07
-5.39407e-05
5.39663e-05
-5.37585e-05
1.21301e-07
5.3795e-05
3.41209e-07
1.21704e-07
2.14851e-10
-5.55176e-05
-8.01898e-08
5.54932e-05
2.55376e-07
-5.55175e-05
-8.02162e-08
-1.50339e-07
5.5493e-05
2.55263e-07
9.27059e-11
-4.8943e-08
1.94738e-07
-4.8939e-08
-1.52712e-07
1.94683e-07
1.69026e-10
-5.36484e-05
5.36894e-05
-5.36482e-05
-1.20907e-07
5.36891e-05
1.13658e-10
-1.21473e-07
-3.45345e-07
-5.55708e-05
-1.82804e-07
5.55398e-05
4.088e-07
-5.5646e-05
-5.09696e-07
2.75066e-07
5.5602e-05
-6.67472e-08
-3.46354e-07
-1.53009e-07
3.47232e-07
-4.85922e-07
2.75612e-07
-1.18144e-07
-3.39938e-07
-5.37581e-05
5.37943e-05
-5.39403e-05
-8.74643e-07
5.39653e-05
-3.4096e-07
-8.76235e-07
1.36003e-06
-5.57207e-05
5.06765e-06
5.56386e-05
-6.07057e-06
-5.5712e-05
-4.41377e-06
5.55793e-05
5.90649e-06
1.36076e-06
5.09664e-06
-6.13224e-06
-4.38397e-06
5.85188e-06
4.23423e-06
-5.41278e-05
5.40866e-05
-5.39299e-05
5.37504e-05
4.23701e-06
-1.33247e-06
-5.54129e-05
-4.38232e-06
5.52111e-05
5.91657e-06
-5.55296e-05
4.88872e-06
-2.70392e-07
5.53834e-05
-5.80456e-06
-1.33319e-06
-4.34785e-06
5.84887e-06
4.9265e-06
-2.71024e-07
-5.88034e-06
-4.14265e-06
-5.35488e-05
5.33092e-05
-5.40119e-05
8.55087e-07
5.39029e-05
-4.14728e-06
8.55897e-07
3.36531e-07
-5.55295e-05
-5.67248e-07
5.54219e-05
6.79109e-08
-5.54768e-05
-2.48385e-07
1.45119e-07
5.53759e-05
5.40712e-07
3.38309e-07
-5.30284e-07
-5.62678e-09
-2.12156e-07
1.46057e-07
4.67773e-07
3.3114e-07
-5.39595e-05
5.39162e-05
-5.3797e-05
1.17761e-07
5.3762e-05