/*--------------------------------*- C++ -*----------------------------------*\
  =========                 |
  \\      /  F ield         | OpenFOAM: The Open Source CFD Toolbox
   \\    /   O peration     | Website:  https://openfoam.org
    \\  /    A nd           | Version:  9
     \\/     M anipulation  |
\*---------------------------------------------------------------------------*/
FoamFile
{
    format      ascii;
    class       volScalarField;
    location    "0.55";
    object      nut;
}
// * * * * * * * * * * * * * * * * * * * * * * * * * * * * * * * * * * * * * //

dimensions      [0 2 -1 0 0 0 0];

internalField   nonuniform List<scalar> 
36360
(
0.000809982
0.000666626
0.000420038
0.000385
0.000231267
0.00018474
0.000190069
0.000172461
0.00022934
0.000159274
0.000186395
0.000158718
0.000146509
0.000142192
0.00016255
0.000161762
0.000152656
0.000152654
0.0001574
0.0001574
0.000141918
0.000141918
0.000161705
0.000161705
0.00015925
0.000229229
0.000158717
0.000186371
0.000142191
0.000146501
0.000161762
0.00016255
0.000666468
0.000810156
0.000384995
0.000420051
0.000184723
0.000231282
0.00017246
0.000190069
0.00108116
0.000866456
0.00100581
0.000809995
0.00026468
0.000205102
0.00025613
0.000199317
0.000297661
0.000168831
0.000277852
0.000166071
0.000140978
0.000132415
0.000141864
0.000134541
0.000157907
0.0001579
0.000156149
0.000156143
0.000131899
0.000131899
0.000134096
0.000134096
0.000168761
0.000297275
0.000166017
0.000277564
0.000132411
0.000140949
0.000134538
0.000141842
0.000866086
0.00108158
0.000809701
0.00100613
0.000205049
0.000264723
0.000199275
0.000256164
0.00110968
0.000888644
0.00110486
0.000884696
0.000266486
0.000207656
0.000266382
0.000206995
0.000305234
0.000169583
0.000303957
0.000169567
0.000140886
0.000131884
0.000140882
0.000131947
0.000158322
0.000158314
0.000158285
0.000158277
0.00013135
0.00013135
0.000131412
0.000131412
0.000169505
0.000304796
0.000169491
0.000303534
0.00013188
0.000140854
0.000131943
0.00014085
0.000888223
0.00111015
0.000884296
0.00110532
0.000207596
0.000266534
0.000206938
0.000266429
0.00110985
0.000889248
0.00111065
0.000889761
0.000266354
0.000207882
0.000266492
0.000207907
0.000305363
0.00016959
0.000305558
0.000169601
0.000140874
0.000131852
0.000140889
0.000131863
0.00015831
0.000158301
0.000158315
0.000158306
0.00013132
0.000131319
0.000131329
0.000131329
0.000169512
0.000304926
0.000169522
0.000305119
0.000131848
0.000140841
0.000131859
0.000140856
0.000888833
0.00111033
0.000889343
0.00111112
0.000207824
0.000266403
0.000207848
0.000266541
0.00110879
0.000888743
0.00110976
0.000889394
0.000266139
0.000207781
0.0002663
0.000207889
0.000305106
0.000169513
0.000305367
0.000169607
0.000140833
0.000131841
0.000140858
0.000131834
0.000158291
0.000158283
0.000158303
0.000158294
0.000131315
0.000131314
0.000131302
0.000131302
0.000169435
0.000304671
0.00016953
0.00030493
0.000131838
0.0001408
0.00013183
0.000140826
0.000888332
0.00110927
0.000888981
0.00111024
0.000207723
0.000266188
0.000207832
0.00026635
0.00110748
0.000887886
0.00110856
0.000888652
0.000265885
0.000207569
0.000266066
0.000207723
0.000304747
0.000169489
0.000305053
0.000169495
0.000140778
0.000131805
0.00014081
0.000131823
0.000158279
0.000158271
0.000158282
0.000158273
0.00013128
0.00013128
0.000131297
0.000131296
0.000169411
0.000304313
0.000169417
0.000304618
0.000131801
0.000140745
0.000131819
0.000140778
0.000887476
0.00110796
0.000888242
0.00110904
0.000207512
0.000265935
0.000207665
0.000266116
0.00110597
0.000886872
0.00110714
0.000887704
0.000265609
0.000207324
0.000265802
0.000207491
0.000304319
0.000169406
0.000304656
0.000169506
0.000140715
0.000131772
0.000140751
0.000131785
0.000158261
0.000158253
0.000158273
0.000158265
0.00013125
0.00013125
0.000131259
0.000131259
0.000169328
0.000303887
0.000169428
0.000304222
0.000131768
0.000140683
0.000131781
0.000140718
0.000886464
0.00110645
0.000887295
0.00110762
0.000207267
0.00026566
0.000207434
0.000265852
0.0011043
0.000885768
0.00110556
0.000886647
0.000265314
0.000207058
0.000265518
0.000207237
0.000303861
0.000169374
0.00030421
0.000169384
0.000140645
0.000131736
0.000140684
0.00013175
0.000158247
0.000158239
0.000158251
0.000158242
0.000131216
0.000131216
0.00013123
0.000131229
0.000169297
0.00030343
0.000169307
0.000303778
0.000131732
0.000140613
0.000131746
0.000140652
0.000885361
0.00110479
0.000886239
0.00110604
0.000207001
0.000265365
0.000207181
0.000265569
0.0011025
0.000884585
0.00110383
0.000885507
0.000265001
0.000206777
0.000265216
0.000206964
0.000303375
0.000169287
0.000303741
0.000169389
0.000140569
0.000131693
0.000140612
0.000131712
0.000158226
0.000158218
0.00015824
0.000158231
0.000131176
0.000131176
0.000131192
0.000131192
0.00016921
0.000302945
0.000169312
0.000303311
0.000131689
0.000140537
0.000131708
0.00014058
0.000884178
0.00110298
0.0008851
0.00110432
0.00020672
0.000265051
0.000206908
0.000265267
0.00110054
0.000883326
0.00110198
0.000884292
0.000264667
0.000206482
0.000264895
0.000206677
0.000302868
0.000169248
0.000303245
0.000169262
0.000140486
0.000131644
0.000140532
0.000131665
0.000158208
0.000158199
0.000158214
0.000158205
0.00013113
0.00013113
0.000131149
0.000131148
0.000169172
0.000302438
0.000169185
0.000302814
0.000131641
0.000140454
0.000131661
0.0001405
0.000882916
0.00110102
0.000883884
0.00110246
0.000206425
0.000264717
0.00020662
0.000264945
0.00109842
0.000881979
0.00109997
0.000882998
0.00026431
0.000206174
0.000264553
0.000206376
0.000302331
0.000169156
0.000302727
0.000169261
0.000140396
0.000131588
0.000140446
0.000131613
0.000158183
0.000158174
0.000158198
0.00015819
0.000131075
0.000131075
0.000131098
0.000131098
0.00016908
0.000301899
0.000169185
0.000302296
0.000131584
0.000140363
0.000131609
0.000140414
0.000881567
0.00109889
0.000882587
0.00110044
0.000206116
0.000264359
0.000206318
0.000264602
0.00109609
0.000880533
0.00109778
0.000881612
0.000263925
0.000205856
0.000264186
0.000206063
0.00030176
0.000169117
0.000302174
0.000169127
0.000140296
0.000131523
0.00014035
0.000131551
0.000158161
0.000158153
0.000158168
0.00015816
0.000131012
0.000131012
0.000131039
0.000131039
0.000169041
0.00030133
0.000169051
0.000301743
0.000131519
0.000140264
0.000131547
0.000140318
0.00088012
0.00109656
0.000881199
0.00109825
0.000205798
0.000263973
0.000206005
0.000264233
0.00109354
0.000878954
0.00109537
0.000880112
0.000263508
0.000205532
0.000263787
0.000205739
0.000301148
0.000169077
0.000301587
0.000169119
0.000140186
0.000131449
0.000140246
0.000131482
0.000158139
0.00015813
0.000158149
0.000158141
0.00013094
0.000130939
0.000130971
0.000130971
0.000169001
0.000300719
0.000169043
0.000301157
0.000131445
0.000140154
0.000131478
0.000140214
0.000878542
0.00109401
0.0008797
0.00109584
0.000205474
0.000263555
0.000205681
0.000263834
0.00109076
0.000877207
0.00109272
0.000878464
0.000263058
0.000205222
0.000263354
0.00020542
0.000300492
0.000169004
0.000300956
0.000169051
0.000140066
0.000131364
0.000140131
0.000131402
0.000158109
0.000158101
0.000158122
0.000158114
0.000130857
0.000130856
0.000130893
0.000130893
0.000168929
0.000300065
0.000168976
0.000300527
0.00013136
0.000140034
0.000131398
0.000140099
0.000876796
0.00109122
0.000878052
0.00109318
0.000205164
0.000263105
0.000205362
0.000263402
0.00108774
0.000875297
0.00108982
0.000876638
0.000262573
0.000204909
0.000262888
0.000205113
0.000299797
0.000168922
0.000300283
0.000168974
0.000139932
0.000131267
0.000140004
0.000131311
0.000158075
0.000158067
0.00015809
0.000158082
0.000130762
0.000130762
0.000130804
0.000130804
0.000168847
0.000299371
0.000168899
0.000299856
0.000131263
0.000139901
0.000131307
0.000139972
0.000874887
0.0010882
0.000876227
0.00109029
0.000204851
0.00026262
0.000205056
0.000262936
0.00108447
0.000873244
0.00108668
0.000874667
0.000262051
0.000204572
0.000262386
0.00020479
0.000299061
0.000168833
0.00029957
0.000168889
0.000139785
0.000131158
0.000139864
0.000131208
0.000158037
0.000158029
0.000158055
0.000158046
0.000130655
0.000130655
0.000130704
0.000130703
0.000168759
0.000298637
0.000168814
0.000299146
0.000131154
0.000139753
0.000131204
0.000139832
0.000872835
0.00108493
0.000874257
0.00108714
0.000204515
0.000262098
0.000204733
0.000262433
0.00108093
0.00087104
0.00108328
0.000872555
0.000261489
0.000204211
0.000261845
0.000204442
0.000298281
0.000168737
0.000298817
0.000168796
0.000139622
0.000131035
0.000139709
0.000131092
0.000157996
0.000157988
0.000158015
0.000158007
0.000130534
0.000130534
0.00013059
0.000130589
0.000168663
0.000297861
0.000168722
0.000298395
0.000131031
0.000139591
0.000131088
0.000139678
0.000870633
0.00108139
0.000872147
0.00108374
0.000204154
0.000261536
0.000204385
0.000261892
0.00107711
0.00086868
0.00107961
0.000870293
0.000260886
0.000203823
0.000261264
0.000204069
0.000297457
0.000168635
0.000298021
0.000168698
0.000139444
0.000130897
0.000139539
0.000130961
0.000157951
0.000157942
0.000157971
0.000157963
0.000130399
0.000130398
0.000130461
0.000130461
0.000168562
0.000297039
0.000168624
0.000297601
0.000130893
0.000139413
0.000130958
0.000139507
0.000868274
0.00107757
0.000869886
0.00108006
0.000203767
0.000260932
0.000204012
0.00026131
0.001073
0.000866158
0.00107565
0.000867864
0.000260239
0.000203408
0.000260639
0.000203669
0.000296587
0.000168527
0.00029718
0.000168593
0.000139248
0.000130743
0.000139351
0.000130816
0.000157901
0.000157893
0.000157924
0.000157916
0.000130248
0.000130247
0.000130318
0.000130318
0.000168454
0.000296172
0.000168519
0.000296763
0.00013074
0.000139217
0.000130812
0.00013932
0.000865753
0.00107345
0.000867459
0.0010761
0.000203352
0.000260285
0.000203613
0.000260685
0.0010686
0.000863472
0.00107139
0.000865268
0.000259549
0.000202964
0.000259971
0.00020324
0.00029567
0.000168412
0.000296293
0.000168482
0.000139033
0.000130573
0.000139146
0.000130654
0.000157848
0.00015784
0.000157873
0.000157865
0.00013008
0.000130079
0.000130159
0.000130158
0.000168339
0.000295257
0.000168409
0.000295879
0.000130569
0.000139003
0.00013065
0.000139116
0.000863069
0.00106905
0.000864864
0.00107184
0.000202908
0.000259594
0.000203184
0.000260017
0.0010639
0.000860621
0.00106684
0.000862503
0.000258814
0.000202491
0.000259259
0.000202783
0.000294707
0.00016829
0.000295359
0.000168364
0.0001388
0.000130385
0.000138923
0.000130474
0.000157791
0.000157783
0.000157817
0.000157809
0.000129894
0.000129894
0.000129982
0.000129982
0.000168219
0.000294297
0.000168292
0.000294947
0.000130381
0.00013877
0.000130471
0.000138892
0.000860219
0.00106434
0.000862101
0.00106729
0.000202435
0.000258859
0.000202727
0.000259304
0.0010589
0.000857607
0.00106199
0.000859572
0.000258036
0.000201988
0.000258503
0.000202295
0.000293699
0.000168163
0.000294376
0.000168239
0.000138547
0.000130178
0.000138679
0.000130277
0.00015773
0.000157722
0.000157758
0.00015775
0.00012969
0.00012969
0.000129787
0.000129787
0.000168091
0.000293293
0.000168168
0.000293967
0.000130174
0.000138516
0.000130273
0.000138649
0.000857208
0.00105935
0.000859172
0.00106244
0.000201933
0.00025808
0.00020224
0.000258548
0.00105363
0.000854438
0.00105686
0.00085648
0.000257216
0.000201457
0.000257704
0.000201779
0.000292648
0.000168029
0.000293347
0.000168108
0.000138273
0.000129952
0.000138416
0.00013006
0.000157665
0.000157657
0.000157695
0.000157687
0.000129467
0.000129467
0.000129573
0.000129573
0.000167958
0.000292246
0.000168037
0.000292942
0.000129948
0.000138243
0.000130057
0.000138385
0.00085404
0.00105407
0.000856082
0.0010573
0.000201402
0.00025726
0.000201724
0.000257748
0.00104809
0.000851122
0.00105145
0.000853236
0.000256356
0.000200896
0.000256863
0.000201233
0.000291557
0.000167889
0.000292276
0.000167971
0.000137978
0.000129706
0.000138131
0.000129824
0.000157597
0.000157589
0.000157629
0.000157621
0.000129224
0.000129224
0.00012934
0.00012934
0.000167819
0.000291159
0.000167901
0.000291874
0.000129703
0.000137948
0.000129821
0.000138101
0.000850727
0.00104853
0.000852839
0.00105189
0.000200842
0.000256399
0.000201178
0.000256907
0.00104231
0.000847673
0.00104579
0.000849851
0.00025546
0.000200309
0.000255985
0.000200659
0.000290431
0.000167743
0.000291166
0.000167829
0.000137662
0.00012944
0.000137826
0.000129568
0.000157525
0.000157518
0.000157559
0.000157551
0.000128961
0.000128961
0.000129087
0.000129086
0.000167674
0.000290036
0.000167759
0.000290769
0.000129437
0.000137633
0.000129565
0.000137796
0.00084728
0.00104274
0.000849457
0.00104622
0.000200255
0.000255503
0.000200605
0.000256029
0.00103632
0.00084411
0.00103989
0.000846341
0.000254534
0.000199696
0.000255074
0.000200059
0.000289274
0.000167593
0.000290023
0.000167681
0.000137326
0.000129154
0.000137499
0.000129292
0.000157451
0.000157444
0.000157486
0.000157478
0.000128677
0.000128677
0.000128813
0.000128813
0.000167525
0.000288883
0.000167612
0.00028963
0.00012915
0.000137297
0.000129288
0.00013747
0.000843719
0.00103674
0.000845949
0.00104032
0.000199643
0.000254576
0.000200005
0.000255116
0.00103015
0.000840454
0.00103381
0.000842726
0.000253582
0.000199061
0.000254134
0.000199434
0.000288095
0.00016744
0.000288854
0.000167529
0.000136968
0.000128847
0.000137152
0.000128995
0.000157375
0.000157368
0.000157411
0.000157403
0.000128374
0.000128373
0.000128519
0.000128519
0.000167372
0.000287707
0.00016746
0.000288464
0.000128843
0.00013694
0.000128991
0.000137123
0.000840066
0.00103057
0.000842337
0.00103423
0.000199008
0.000253624
0.000199381
0.000254176
0.00102386
0.000836732
0.00102757
0.000839031
0.000252611
0.000198405
0.000253171
0.000198788
0.0002869
0.000167283
0.000287665
0.000167373
0.000136591
0.00012852
0.000136785
0.000128677
0.000157297
0.00015729
0.000157333
0.000157326
0.00012805
0.000128049
0.000128205
0.000128205
0.000167216
0.000286517
0.000167306
0.000287279
0.000128516
0.000136563
0.000128674
0.000136756
0.000836346
0.00102428
0.000838644
0.00102799
0.000198353
0.000252653
0.000198735
0.000253213
0.00101748
0.00083297
0.00102122
0.000835282
0.00025163
0.000197733
0.000252194
0.000198124
0.000285698
0.000167124
0.000286464
0.000167215
0.000136195
0.000128173
0.000136398
0.00012834
0.000157217
0.00015721
0.000157254
0.000157247
0.000127706
0.000127706
0.000127871
0.000127871
0.000167057
0.000285319
0.000167148
0.000286083
0.00012817
0.000136167
0.000128337
0.000136369
0.000832588
0.0010179
0.000834898
0.00102164
0.000197681
0.000251671
0.000198071
0.000252235
0.00101108
0.000829201
0.00101483
0.00083151
0.000250645
0.000197049
0.000251209
0.000197445
0.000284497
0.000166963
0.000285261
0.000167055
0.000135781
0.000127808
0.000135992
0.000127984
0.000157136
0.000157129
0.000157174
0.000157166
0.000127344
0.000127344
0.000127518
0.000127517
0.000166898
0.000284123
0.000166989
0.000284883
0.000127804
0.000135753
0.00012798
0.000135964
0.000828821
0.00101149
0.000831128
0.00101524
0.000196997
0.000250685
0.000197393
0.00025125
0.00100471
0.000825456
0.00100843
0.000827745
0.000249666
0.000196356
0.000250226
0.000196755
0.000283309
0.000166802
0.000284064
0.000166894
0.000135351
0.000127425
0.000135569
0.000127609
0.000157054
0.000157046
0.000157092
0.000157084
0.000126964
0.000126964
0.000127146
0.000127146
0.000166737
0.000282938
0.000166829
0.000283691
0.000127421
0.000135323
0.000127606
0.000135542
0.000825078
0.00100511
0.000827366
0.00100883
0.000196305
0.000249706
0.000196704
0.000250266
0.000998427
0.000821768
0.00100209
0.000824021
0.000248701
0.000195659
0.000249252
0.000196059
0.000282142
0.000166642
0.000282883
0.000166733
0.000134906
0.000127025
0.000135131
0.000127218
0.000156971
0.000156963
0.000157009
0.000157002
0.000126567
0.000126567
0.000126757
0.000126757
0.000166578
0.000281775
0.000166668
0.000282514
0.000127022
0.000134878
0.000127214
0.000135104
0.000821393
0.000998826
0.000823645
0.00100249
0.000195609
0.00024874
0.000196009
0.000249292
0.000992294
0.000818176
0.000995869
0.000820372
0.000247759
0.000194963
0.000248298
0.000195362
0.000281005
0.000166482
0.00028173
0.000166573
0.000134448
0.000126611
0.000134679
0.00012681
0.000156887
0.00015688
0.000156926
0.000156918
0.000126155
0.000126155
0.000126353
0.000126352
0.000166419
0.000280643
0.000166509
0.000281365
0.000126607
0.00013442
0.000126807
0.000134652
0.000817804
0.000992689
0.000819999
0.000996266
0.000194913
0.000247798
0.000195312
0.000248337
0.00098637
0.000814712
0.000989832
0.000816838
0.00024685
0.000194273
0.000247371
0.000194668
0.000279909
0.000166326
0.00028061
0.000166414
0.000133979
0.000126183
0.000134215
0.000126388
0.000156804
0.000156797
0.000156842
0.000156835
0.00012573
0.00012573
0.000125933
0.000125933
0.000166263
0.00027955
0.000166351
0.000280249
0.000126179
0.000133952
0.000126385
0.000134188
0.000814343
0.00098676
0.000816467
0.000990225
0.000194223
0.000246888
0.000194618
0.000247409
0.0009807
0.000811401
0.000984026
0.000813443
0.00024598
0.000193593
0.000246479
0.000193982
0.000278864
0.000166174
0.000279536
0.00016626
0.000133501
0.000125743
0.000133741
0.000125954
0.00015672
0.000156713
0.00015676
0.000156752
0.000125293
0.000125293
0.000125502
0.000125502
0.000166112
0.000278509
0.000166197
0.000279179
0.00012574
0.000133474
0.000125951
0.000133714
0.000811034
0.000981086
0.000813075
0.000984414
0.000193544
0.000246017
0.000193933
0.000246517
0.000975329
0.000808273
0.000978497
0.000810216
0.000245157
0.000192927
0.000245632
0.000193308
0.000277877
0.000166026
0.000278517
0.000166109
0.000133017
0.000125294
0.00013326
0.000125509
0.000156636
0.000156629
0.000156678
0.000156671
0.000124846
0.000124846
0.000125059
0.000125059
0.000165965
0.000277525
0.000166047
0.000278163
0.000125291
0.000132991
0.000125506
0.000133233
0.000807909
0.000975712
0.000809851
0.000978881
0.000192879
0.000245194
0.000193259
0.000245669
0.000970291
0.000805356
0.000973287
0.00080719
0.000244388
0.000192282
0.000244834
0.000192652
0.000276955
0.000165884
0.00027756
0.000165964
0.000132529
0.000124837
0.000132773
0.000125055
0.000156555
0.000156548
0.000156597
0.00015659
0.000124391
0.000124391
0.000124608
0.000124608
0.000165823
0.000276607
0.000165903
0.000277209
0.000124834
0.000132503
0.000125052
0.000132747
0.000804994
0.00097067
0.000806826
0.000973668
0.000192234
0.000244424
0.000192603
0.000244871
0.000965075
0.000802066
0.000968366
0.000804305
0.000243664
0.000191636
0.000244093
0.000192015
0.000276016
0.000165747
0.000276654
0.000165824
0.000132037
0.000124374
0.000132283
0.000124595
0.000156475
0.000156468
0.000156519
0.000156512
0.000123931
0.00012393
0.00012415
0.000124149
0.000165686
0.000275671
0.000165763
0.000276307
0.000124371
0.000132011
0.000124592
0.000132257
0.000801707
0.000965448
0.000803944
0.000968743
0.000191588
0.000243701
0.000191967
0.000244129
0.00094679
0.000784531
0.000960675
0.000798041
0.000242211
0.000189885
0.000243277
0.000191184
0.000271892
0.000165465
0.000275021
0.000165653
0.000131414
0.000123887
0.000131773
0.000124131
0.00015643
0.000156424
0.000156441
0.000156434
0.000123449
0.000123449
0.000123688
0.000123688
0.000165407
0.000271562
0.000165593
0.000274681
0.000123883
0.000131389
0.000124128
0.000131747
0.000784185
0.00094714
0.000797686
0.000961041
0.000189838
0.000242245
0.000191137
0.000243312
0.000939676
0.00076749
0.000458275
0.000409702
0.000921746
0.000750906
0.00045837
0.000401759
0.000251725
0.000160817
0.000191541
0.000158582
0.000247974
0.000160558
0.000190236
0.000158591
0.00015255
0.000152546
0.00015708
0.00015708
0.00015254
0.000152537
0.000157162
0.000157163
0.000160784
0.000251554
0.000158581
0.000191509
0.000160526
0.000247816
0.00015859
0.000190205
0.000767258
0.000939937
0.000409688
0.000458296
0.00075069
0.000921985
0.000401745
0.000458388
0.00128948
0.0010266
0.0011898
0.000953511
0.00125193
0.000999009
0.00115862
0.000929465
0.000349312
0.000173468
0.000321031
0.000169788
0.000341265
0.000172903
0.000314366
0.000169334
0.000158859
0.000158848
0.000156758
0.00015675
0.000158849
0.000158839
0.00015675
0.000156742
0.00017336
0.000348726
0.000169707
0.000320595
0.000172803
0.000340723
0.000169258
0.000313962
0.00102608
0.00129011
0.000953094
0.00119029
0.000998524
0.0012525
0.000929082
0.00115906
0.00133048
0.00105597
0.00132273
0.00105058
0.00128967
0.00102668
0.00128257
0.00102156
0.000360116
0.00017453
0.000358312
0.000174463
0.000351291
0.00017393
0.000349616
0.000173873
0.00015938
0.000159368
0.00015933
0.000159318
0.000159366
0.000159354
0.000159317
0.000159305
0.00017441
0.000359453
0.000174347
0.000357666
0.000173818
0.000350672
0.000173765
0.00034902
0.00105538
0.00133118
0.00105
0.00132341
0.00102613
0.0012903
0.00102102
0.00128318
0.00133209
0.00105708
0.00133297
0.00105776
0.00129112
0.0010278
0.00129191
0.00102838
0.000360378
0.000174559
0.000360698
0.000174574
0.000351572
0.000173948
0.00035186
0.000173962
0.000159384
0.000159372
0.000159384
0.000159372
0.00015937
0.000159358
0.00015937
0.000159358
0.000174439
0.000359713
0.000174454
0.000360031
0.000173835
0.000350954
0.000173849
0.000351239
0.0010565
0.0013328
0.00105717
0.00133368
0.00102725
0.00129176
0.00102783
0.00129256
0.00133139
0.00105661
0.00133255
0.00105746
0.00129036
0.00102735
0.00129146
0.00102813
0.0003601
0.000174488
0.000360486
0.000174581
0.000351346
0.000173881
0.00035169
0.000173969
0.000159375
0.000159363
0.000159384
0.000159372
0.000159361
0.000159349
0.00015937
0.000159358
0.000174368
0.000359435
0.000174461
0.00035982
0.00017377
0.000350731
0.000173858
0.000351073
0.00105602
0.0013321
0.00105688
0.00133326
0.00102681
0.00129101
0.00102759
0.00129211
0.00132987
0.00105553
0.00133129
0.00105658
0.0012889
0.00102635
0.00129023
0.00102731
0.000359593
0.00017445
0.000360044
0.000174472
0.000350879
0.000173846
0.000351296
0.000173864
0.000159372
0.00015936
0.000159372
0.00015936
0.000159358
0.000159346
0.000159358
0.000159346
0.00017433
0.000358928
0.000174351
0.000359378
0.000173734
0.000350265
0.000173752
0.000350682
0.00105494
0.00133058
0.00105599
0.001332
0.00102581
0.00128955
0.00102677
0.00129088
0.00132806
0.00105425
0.0013296
0.00105537
0.00128713
0.00102515
0.00128859
0.00102619
0.000359017
0.000174362
0.000359494
0.000174468
0.000350328
0.000173761
0.000350779
0.000173865
0.000159365
0.000159352
0.000159373
0.000159361
0.00015935
0.000159338
0.000159358
0.000159347
0.000174243
0.000358353
0.000174348
0.000358829
0.000173649
0.000349716
0.000173753
0.000350165
0.00105366
0.00132876
0.00105478
0.0013303
0.00102461
0.00128778
0.00102565
0.00128924
0.00132606
0.00105289
0.00132768
0.00105405
0.00128518
0.00102384
0.00128672
0.00102493
0.00035842
0.000174322
0.000358905
0.000174345
0.000349746
0.000173723
0.000350209
0.000173743
0.000159362
0.00015935
0.000159361
0.000159349
0.000159347
0.000159335
0.000159346
0.000159335
0.000174204
0.000357757
0.000174226
0.00035824
0.000173612
0.000349136
0.000173632
0.000349597
0.00105229
0.00132676
0.00105346
0.00132839
0.0010233
0.00128583
0.0010244
0.00128737
0.00132391
0.00105145
0.00132561
0.00105265
0.00128308
0.00102243
0.0012847
0.00102358
0.000357803
0.000174236
0.0003583
0.00017434
0.000349143
0.000173638
0.000349618
0.000173741
0.000159354
0.000159342
0.000159362
0.00015935
0.000159339
0.000159327
0.000159347
0.000159336
0.000174118
0.000357141
0.000174221
0.000357636
0.000173527
0.000348534
0.00017363
0.000349008
0.00105086
0.00132462
0.00105206
0.00132632
0.0010219
0.00128373
0.00102304
0.00128535
0.00132162
0.00104994
0.0013234
0.00105118
0.00128083
0.00102095
0.00128254
0.00102214
0.000357171
0.000174194
0.000357674
0.000174218
0.000348524
0.000173598
0.000349006
0.000173619
0.000159351
0.000159339
0.000159351
0.000159339
0.000159336
0.000159324
0.000159335
0.000159324
0.000174076
0.00035651
0.000174099
0.000357013
0.000173487
0.000347915
0.000173508
0.000348397
0.00104935
0.00132232
0.00105059
0.0013241
0.00102041
0.00128147
0.0010216
0.00128318
0.00131916
0.00104834
0.00132103
0.00104963
0.0012784
0.00101938
0.00128021
0.00102062
0.000356517
0.000174109
0.000357035
0.000174212
0.000347879
0.000173514
0.000348379
0.000173616
0.000159344
0.000159332
0.000159352
0.00015934
0.000159328
0.000159317
0.000159336
0.000159324
0.000173992
0.000355858
0.000174094
0.000356375
0.000173403
0.00034727
0.000173505
0.000347769
0.00104775
0.00131986
0.00104904
0.00132173
0.00101884
0.00127904
0.00102008
0.00128086
0.00131651
0.00104664
0.00131849
0.00104799
0.00127577
0.00101768
0.00127772
0.001019
0.000355841
0.000174064
0.00035637
0.00017409
0.000347208
0.000173471
0.000347721
0.000173493
0.000159342
0.00015933
0.000159341
0.000159329
0.000159325
0.000159313
0.000159324
0.000159313
0.000173947
0.000355184
0.000173972
0.000355712
0.000173361
0.000346601
0.000173382
0.000347113
0.00104605
0.00131721
0.0010474
0.00131919
0.00101714
0.00127641
0.00101845
0.00127836
0.00131366
0.00104484
0.00131578
0.00104625
0.00127292
0.00101586
0.00127502
0.00101724
0.000355136
0.000173979
0.000355684
0.000174081
0.000346506
0.000173389
0.000347039
0.000173488
0.000159335
0.000159323
0.000159342
0.00015933
0.000159318
0.000159307
0.000159325
0.000159314
0.000173862
0.000354482
0.000173964
0.000355028
0.000173279
0.000345902
0.000173378
0.000346433
0.00104425
0.00131435
0.00104566
0.00131648
0.00101532
0.00127356
0.0010167
0.00127565
0.00131058
0.00104293
0.00131286
0.0010444
0.00126985
0.00101392
0.0012721
0.00101537
0.000354407
0.000173935
0.000354967
0.000173959
0.000345777
0.000173351
0.000346324
0.000173368
0.000159333
0.000159321
0.000159332
0.00015932
0.000159316
0.000159305
0.000159315
0.000159303
0.000173818
0.000353756
0.000173842
0.000354314
0.000173243
0.000345175
0.000173259
0.00034572
0.00104234
0.00131127
0.00104381
0.00131355
0.00101338
0.00127048
0.00101483
0.00127274
0.00130726
0.0010409
0.0013097
0.00104244
0.00126654
0.00101186
0.00126895
0.00101339
0.000353652
0.000173906
0.000354227
0.000173939
0.000345017
0.000173325
0.000345582
0.00017336
0.000159334
0.000159322
0.000159333
0.000159321
0.000159318
0.000159306
0.000159317
0.000159306
0.000173791
0.000353003
0.000173823
0.000353577
0.000173217
0.000344417
0.000173252
0.000344981
0.00104031
0.00130796
0.00104186
0.0013104
0.00101132
0.00126717
0.00101285
0.00126959
0.0013037
0.00103875
0.00130632
0.00104036
0.00126297
0.00100967
0.00126552
0.00101127
0.000352868
0.000173862
0.00035346
0.000173904
0.000344224
0.000173268
0.000344808
0.000173314
0.000159335
0.000159323
0.000159334
0.000159323
0.000159315
0.000159304
0.000159316
0.000159305
0.000173747
0.000352222
0.000173788
0.000352812
0.00017316
0.000343627
0.000173206
0.000344209
0.00103816
0.00130439
0.00103978
0.00130701
0.00100913
0.0012636
0.00101073
0.00126615
0.00129989
0.00103646
0.00130264
0.00103815
0.00125914
0.00100734
0.00126183
0.00100901
0.000352054
0.000173801
0.000352663
0.000173849
0.000343396
0.000173201
0.000344
0.000173251
0.000159333
0.000159321
0.000159334
0.000159322
0.000159311
0.000159299
0.000159312
0.000159301
0.000173686
0.00035141
0.000173734
0.000352018
0.000173095
0.000342802
0.000173143
0.000343404
0.00103588
0.00130058
0.00103757
0.00130333
0.0010068
0.00125976
0.00100848
0.00126246
0.0012958
0.00103404
0.00129869
0.00103581
0.00125503
0.00100486
0.00125786
0.00100662
0.000351207
0.000173734
0.000351835
0.000173784
0.000342532
0.000173132
0.000343157
0.000173182
0.00015933
0.000159318
0.000159331
0.000159319
0.000159306
0.000159295
0.000159308
0.000159296
0.00017362
0.000350567
0.00017367
0.000351192
0.000173026
0.000341941
0.000173076
0.000342563
0.00103346
0.00129648
0.00103523
0.00129938
0.00100433
0.00125565
0.00100608
0.00125849
0.00129143
0.00103148
0.00129447
0.00103332
0.00125061
0.00100223
0.0012536
0.00100407
0.000350327
0.000173667
0.000350973
0.000173717
0.00034163
0.000173062
0.000342276
0.000173113
0.000159327
0.000159316
0.000159328
0.000159316
0.000159302
0.000159291
0.000159303
0.000159292
0.000173554
0.00034969
0.000173604
0.000350334
0.000172956
0.000341042
0.000173007
0.000341686
0.0010309
0.00129211
0.00103274
0.00129515
0.0010017
0.00125123
0.00100354
0.00125422
0.00128676
0.00102877
0.00128995
0.00103069
0.0012459
0.000999448
0.00124904
0.00100138
0.000349413
0.000173599
0.000350079
0.00017365
0.000340689
0.00017299
0.000341358
0.000173042
0.000159326
0.000159314
0.000159326
0.000159314
0.000159298
0.000159287
0.000159299
0.000159288
0.000173487
0.00034878
0.000173537
0.000349443
0.000172885
0.000340105
0.000172936
0.000340771
0.00102819
0.00128744
0.00103011
0.00129063
0.000998918
0.00124652
0.00100085
0.00124966
0.0012818
0.00102591
0.00128513
0.00102791
0.00124089
0.000996504
0.00124418
0.00099853
0.000348466
0.000173531
0.00034915
0.000173582
0.000339709
0.000172918
0.000340401
0.00017297
0.000159324
0.000159313
0.000159324
0.000159313
0.000159294
0.000159283
0.000159295
0.000159284
0.000173419
0.000347836
0.000173469
0.000348518
0.000172813
0.000339129
0.000172865
0.000339818
0.00102534
0.00128247
0.00102734
0.00128581
0.000995976
0.0012415
0.000998001
0.0012448
0.00127656
0.00102292
0.00128003
0.001025
0.00123557
0.000993406
0.00123902
0.000995523
0.000347485
0.000173462
0.000348189
0.000173514
0.000338692
0.000172844
0.000339406
0.000172897
0.000159324
0.000159313
0.000159324
0.000159312
0.000159291
0.00015928
0.000159292
0.000159281
0.00017335
0.000346859
0.000173402
0.00034756
0.00017274
0.000338115
0.000172793
0.000338826
0.00102234
0.00127723
0.00102442
0.0012807
0.000992879
0.00123618
0.000994996
0.00123963
0.00127104
0.00101978
0.00127465
0.00102194
0.00122997
0.000990162
0.00123356
0.00099236
0.000346476
0.000173393
0.000347196
0.000173445
0.000337638
0.000172769
0.000338373
0.000172823
0.000159325
0.000159314
0.000159324
0.000159312
0.000159289
0.000159278
0.00015929
0.000159279
0.000173282
0.000345854
0.000173333
0.000346571
0.000172666
0.000337066
0.000172719
0.000337798
0.00101921
0.0012717
0.00102137
0.00127532
0.000989638
0.00123057
0.000991835
0.00123416
0.00126525
0.00101651
0.001269
0.00101875
0.0012241
0.000986778
0.00122782
0.000989051
0.000345439
0.000173324
0.000346175
0.000173375
0.000336552
0.000172695
0.000337306
0.000172748
0.000159327
0.000159316
0.000159325
0.000159314
0.000159288
0.000159277
0.000159288
0.000159277
0.000173214
0.000344821