/*--------------------------------*- C++ -*----------------------------------*\
  =========                 |
  \\      /  F ield         | OpenFOAM: The Open Source CFD Toolbox
   \\    /   O peration     | Website:  https://openfoam.org
    \\  /    A nd           | Version:  9
     \\/     M anipulation  |
\*---------------------------------------------------------------------------*/
FoamFile
{
    format      ascii;
    class       surfaceScalarField;
    location    "0.3";
    object      phi;
}
// * * * * * * * * * * * * * * * * * * * * * * * * * * * * * * * * * * * * * //

dimensions      [0 3 -1 0 0 0 0];

internalField   nonuniform List<scalar> 
104044
(
9.19657e-07
-0.000135321
-2.7083e-07
0.000133593
1.07942e-06
-0.000111124
-1.89813e-06
-3.35232e-07
0.000114734
-4.57279e-07
3.62866e-07
3.21167e-07
-4.93277e-08
-3.11729e-06
-1.52124e-07
2.46603e-07
2.08483e-07
-0.000127985
0.000127506
-0.000117082
-8.09896e-08
0.000115473
2.53241e-07
-1.20266e-07
-1.60883e-08
-0.00012397
-7.06138e-07
0.000124035
3.22723e-07
-0.000124338
-4.41587e-07
-1.90114e-09
0.000124694
7.11259e-08
-2.34613e-09
-1.4653e-06
2.21776e-07
-1.36816e-06
-4.9157e-10
1.13417e-07
-1.37657e-08
-0.000123187
0.000122414
-0.000122502
-2.31055e-09
0.000122049
-9.30936e-09
-1.02767e-09
3.2314e-12
-0.00012418
-4.29018e-07
0.000124554
5.23391e-08
-0.00012418
-4.29019e-07
1.90807e-09
0.000124554
5.23381e-08
1.0579e-12
-1.36358e-06
1.05374e-07
-1.36357e-06
4.92788e-10
1.05373e-07
2.95634e-12
-0.000122303
0.000121872
-0.000122303
2.31602e-09
0.000121872
8.83495e-13
1.02887e-09
1.60821e-08
-0.000124338
-4.41579e-07
0.000124694
7.11107e-08
-0.000123971
-7.06111e-07
3.35174e-07
0.000124035
3.22689e-07
2.33862e-09
-1.36816e-06
1.13412e-07
-1.46526e-06
1.52063e-07
2.21724e-07
1.3766e-08
-0.000122502
0.000122049
-0.000123187
8.09945e-08
0.000122414
9.30186e-09
1.20222e-07
-9.19545e-07
-0.000111124
-1.89839e-06
0.000114735
-4.57232e-07
-0.000135323
-2.7219e-07
0.000133595
1.0803e-06
-3.62811e-07
-3.11656e-06
2.45481e-07
3.23313e-07
-5.14806e-08
-2.08493e-07
-0.000117083
0.000115474
-0.000127988
0.000127507
-2.53204e-07
9.47518e-07
-0.000131605
-5.71468e-07
0.000129866
1.36298e-06
-0.000117702
8.48405e-07
-2.35898e-07
0.000119683
-1.64506e-06
1.07765e-06
-2.76236e-07
1.18602e-06
-4.81506e-07
-3.34051e-07
-1.0751e-06
-2.08874e-07
-0.000127216
0.000126854
-0.000114964
1.68405e-07
0.000115435
1.35444e-08
4.10545e-08
-3.94625e-08
-0.000123867
-5.53987e-07
0.000123687
5.37317e-07
-0.0001247
-2.33482e-08
-5.69598e-09
0.000124621
6.83977e-08
-3.07804e-08
-6.01528e-07
4.66206e-07
-1.18406e-07
-4.06825e-09
8.57286e-08
-2.18396e-08
-0.000121874
0.00012151
-0.000121913
-4.74552e-09
0.000121873
-2.0901e-08
-3.59142e-09
8.39737e-12
-0.00012459
7.82325e-09
0.000124549
2.74584e-08
-0.00012459
7.82502e-09
5.7332e-09
0.000124549
2.74551e-08
6.41269e-12
-8.91553e-08
4.98892e-08
-8.91522e-08
4.08385e-09
4.98848e-08
8.15475e-12
-0.000121779
0.000121782
-0.000121779
4.76788e-09
0.000121782
7.07753e-12
3.60814e-09
3.94835e-08
-0.0001247
-2.33412e-08
0.000124621
6.83668e-08
-0.000123867
-5.5386e-07
2.3583e-07
0.000123687
5.37137e-07
3.07863e-08
-1.18385e-07
8.57008e-08
-6.01425e-07
3.34007e-07
4.66124e-07
2.18647e-08
-0.000121913
0.000121873
-0.000121874
-1.68436e-07
0.000121511
2.09204e-08
-4.10396e-08
-9.47516e-07
-0.000117702
8.49127e-07
0.000119682
-1.64574e-06
-0.000131604
-5.71697e-07
0.000129865
1.36243e-06
-1.07759e-06
-4.81598e-07
-1.07419e-06
-2.79817e-07
1.19339e-06
2.08886e-07
-0.000114965
0.000115436
-0.000127214
0.000126851
-1.35641e-08
5.16671e-07
-0.000128524
-1.38814e-06
0.000127555
1.84134e-06
-0.000120926
2.00906e-06
-3.35283e-08
0.000121759
-2.29168e-06
7.17491e-07
-9.67333e-07
1.59192e-06
1.64124e-06
-1.23894e-07
-2.04331e-06
-6.26903e-07
-0.000126312
0.000125551
-0.000116373
3.65228e-07
0.00011739
-4.25977e-07
2.77169e-07
-4.60878e-08
-0.000123508
-5.4536e-07
0.000123403
6.6299e-07
-0.000124488
-4.40669e-08
-7.27373e-09
0.000124331
1.62197e-07
-3.249e-08
-5.32324e-07
6.20296e-07
-1.73296e-08
-7.04434e-09
1.24793e-07
-1.47152e-08
-0.000121275
0.00012111
-0.000121841
-7.88033e-09
0.00012179
-1.99631e-08
-5.53152e-09
-1.98854e-11
-0.000124452
-4.06143e-09
0.000124349
9.97838e-08
-0.000124452
-4.05989e-09
7.2529e-09
0.000124349
9.97643e-08
-7.80298e-11
1.83828e-08
7.10038e-08
1.8406e-08
6.80895e-09
7.10282e-08
1.26014e-11
-0.000121795
0.000121783
-0.000121795
7.90095e-09
0.000121783
9.65686e-12
5.57688e-09
4.61573e-08
-0.000124489
-4.40669e-08
0.000124332
1.62058e-07
-0.000123508
-5.45332e-07
3.35413e-08
0.000123403
6.63049e-07
3.24157e-08
-1.73722e-08
1.2474e-07
-5.32314e-07
1.23857e-07
6.20155e-07
1.47488e-08
-0.000121841
0.00012179
-0.000121276
-3.65093e-07
0.00012111
1.99806e-08
-2.77163e-07
-5.16846e-07
-0.000120927
2.00797e-06
0.00012176
-2.29039e-06
-0.000128524
-1.38639e-06
0.000127556
1.8373e-06
-7.17487e-07
1.64106e-06
-2.04465e-06
-9.66758e-07
1.59077e-06
6.25918e-07
-0.000116374
0.000117391
-0.00012631
0.00012555
4.26001e-07
2.12995e-07
-0.00012683
-1.64551e-06
0.000126239
2.0235e-06
-0.000122336
2.0655e-06
6.27579e-08
0.000122762
-2.34153e-06
3.42807e-07
-1.56468e-06
1.94644e-06
2.06414e-06
3.24203e-08
-2.33056e-06
-9.06479e-07
-0.000124762
0.000124023
-0.00011826
4.59649e-07
0.000118959
-7.75926e-07
4.18779e-07
-1.69253e-08
-0.000123345
-5.49908e-07
0.000123292
6.82274e-07
-0.000124199
-1.19769e-07
-7.84676e-09
0.000124079
2.31125e-07
-3.22217e-08
-5.46007e-07
6.6842e-07
-8.74936e-08
-6.94082e-09
1.94386e-07
1.94739e-09
-0.00012099
0.000120897
-0.000121706
-1.0466e-08
0.000121599
-6.94397e-09
-1.06402e-08
-7.41558e-12
-0.000124252
-6.78835e-08
0.000124156
1.55313e-07
-0.000124252
-6.78949e-08
7.94951e-09
0.000124157
1.55173e-07
2.9129e-11
-3.57409e-08
1.26298e-07
-3.57626e-08
6.98899e-09
1.26347e-07
1.90461e-11
-0.000121736
0.000121658
-0.000121737
1.04725e-08
0.000121658
1.91275e-11
1.06522e-08
1.71489e-08
-0.000124199
-1.19811e-07
0.000124079
2.31007e-07
-0.000123345
-5.49625e-07
-6.26772e-08
0.000123292
6.82246e-07
3.20521e-08
-8.75357e-08
1.94648e-07
-5.45912e-07
-3.24894e-08
6.68162e-07
-2.03183e-09
-0.000121706
0.000121599
-0.00012099
-4.59334e-07
0.000120898
6.8824e-09
-4.18747e-07
-2.12551e-07
-0.000122336
2.06486e-06
0.000122762
-2.3408e-06
-0.00012683
-1.64578e-06
0.00012624
2.02374e-06
-3.43298e-07
2.06362e-06
-2.32896e-06
-1.56018e-06
1.94299e-06
9.07176e-07
-0.00011826
0.000118959
-0.000124765
0.000124027
7.75984e-07
2.93214e-08
-0.000125746
-1.63754e-06
0.000125312
2.04211e-06
-0.000123025
1.93491e-06
1.62588e-07
0.000123193
-2.2355e-06
1.08761e-07
-1.63658e-06
2.02095e-06
1.98502e-06
1.37586e-07
-2.27709e-06
-1.06843e-06
-0.000123376
0.000122807
-0.000119475
4.98839e-07
0.000119843
-9.89568e-07
4.7926e-07
2.59657e-09
-0.000123279
-5.31897e-07
0.000123259
7.11723e-07
-0.000123959
-1.51714e-07
-9.58403e-09
0.000123833
2.89635e-07
-6.49766e-09
-5.32152e-07
6.89394e-07
-1.35625e-07
-1.07193e-08
2.59491e-07
1.9717e-08
-0.000120833
0.000120781
-0.000121483
-7.02417e-09
0.000121358
1.11202e-08
-8.6214e-09
2.09676e-11
-0.000124053
-1.03413e-07
0.000123938
2.08666e-07
-0.000124053
-1.03411e-07
9.65671e-09
0.000123938
2.08635e-07
3.46455e-11
-8.66484e-08
1.79641e-07
-8.66637e-08
1.08127e-08
1.79638e-07
4.32541e-11
-0.000121563
0.000121452
-0.000121563
7.1144e-09
0.000121452
3.60792e-11
8.66697e-09
-2.4605e-09
-0.000123959
-1.51703e-07
0.000123834
2.89548e-07
-0.000123279
-5.31667e-07
-1.62424e-07
0.00012326
7.11266e-07
6.63356e-09
-1.35658e-07
2.59487e-07
-5.31843e-07
-1.37527e-07
6.89088e-07
-1.9647e-08
-0.000121483
0.000121358
-0.000120834
-4.98846e-07
0.000120781
-1.11363e-08
-4.78938e-07
-3.01502e-08
-0.000123024
1.93637e-06
0.000123192
-2.23643e-06
-0.000125747
-1.64079e-06
0.000125314
2.04429e-06
-1.08803e-07
1.98351e-06
-2.27495e-06
-1.63542e-06
2.01884e-06
1.06869e-06
-0.000119473
0.000119842
-0.000123381
0.000122809
9.89812e-07
-8.23424e-08
-0.000124929
-1.59763e-06
0.000124575
2.03382e-06
-0.00012328
1.80767e-06
1.76266e-07
0.000123306
-2.09152e-06
-3.31706e-08
-1.59898e-06
2.01509e-06
1.85007e-06
1.71462e-07
-2.14252e-06
-1.15674e-06
-0.000122317
0.000121876
-0.000120084
5.07472e-07
0.000120227
-1.10855e-06
5.00928e-07
1.68714e-08
-0.000123226
-5.37088e-07
0.000123175
7.4763e-07
-0.000123702
-1.78986e-07
-5.52615e-09
0.000123562
3.41997e-07
1.0333e-08
-5.27546e-07
7.21865e-07
-1.64039e-07
-7.15623e-09
3.12793e-07
3.32707e-08
-0.000120727
0.000120664
-0.000121227
-5.09548e-09
0.000121086
2.68523e-08
-6.05007e-09
-3.31916e-12
-0.000123812
-1.33262e-07
0.000123672
2.6787e-07
-0.000123812
-1.33231e-07
5.54775e-09
0.000123672
2.6782e-07
1.57711e-11
-1.17063e-07
2.35313e-07
-1.17045e-07
7.24779e-09
2.3526e-07
1.83196e-11
-0.000121329
0.000121191
-0.000121329
5.18681e-09
0.000121191
3.23077e-11
6.1617e-09
-1.66987e-08
-0.000123702
-1.78888e-07
0.000123562
3.41804e-07
-0.000123227
-5.37122e-07
-1.75494e-07
0.000123175
7.47253e-07
-1.00881e-08
-1.63963e-07
3.12611e-07
-5.27277e-07
-1.70766e-07
7.21108e-07
-3.2977e-08
-0.000121227
0.000121086
-0.000120728
-5.06859e-07
0.000120665
-2.65941e-08
-5.00615e-07
8.07933e-08
-0.000123282
1.80487e-06
0.000123308
-2.08731e-06
-0.000124931
-1.59528e-06
0.000124576
2.0308e-06
3.17025e-08
1.85108e-06
-2.14281e-06
-1.60335e-06
2.01832e-06
1.15566e-06
-0.000120084
0.000120227
-0.000122314
0.000121874
1.10821e-06
-1.50033e-07
-0.000124248
-1.56944e-06
0.000123932
2.03471e-06
-0.00012328
1.70209e-06
1.70508e-07
0.000123205
-1.94759e-06
-1.19058e-07
-1.56648e-06
2.01307e-06
1.73398e-06
1.73049e-07
-2.00039e-06
-1.19788e-06
-0.000121481
0.000121109
-0.000120289
4.9922e-07
0.000120294
-1.17147e-06
5.00235e-07
2.48624e-08
-0.000123104
-5.5212e-07
0.00012301
7.91458e-07
-0.000123413
-2.06858e-07
-3.47031e-09
0.000123251
3.97006e-07
2.19575e-08
-5.38531e-07
7.60709e-07
-1.9057e-07
-4.42128e-09
3.65334e-07
4.23647e-08
-0.000120588
0.000120493
-0.000120938
-3.07095e-09
0.000120776
3.79279e-08
-4.02734e-09
-1.97164e-11
-0.000123519
-1.64399e-07
0.00012335
3.30299e-07
-0.000123519
-1.644e-07
3.4219e-09
0.00012335
3.30311e-07
-7.20734e-12
-1.47265e-07
2.95986e-07
-1.47246e-07
4.40269e-09
2.95965e-07
-2.81094e-11
-0.00012104
0.000120872
-0.00012104
3.01018e-09
0.000120872
-7.20564e-12
4.03472e-09
-2.49004e-08
-0.000123413
-2.06838e-07
0.000123251
3.97023e-07
-0.000123104
-5.5179e-07
-1.7001e-07
0.00012301
7.91075e-07
-2.19936e-08
-1.905e-07
3.65263e-07
-5.38529e-07
-1.72846e-07
7.60701e-07
-4.238e-08
-0.000120938
0.000120776
-0.000120588
-4.98751e-07
0.000120493
-3.78354e-08
-4.99876e-07
1.48693e-07
-0.000123279
1.7024e-06
0.000123204
-1.94623e-06
-0.000124249
-1.57022e-06
0.000123932
2.03496e-06
1.17868e-07
1.73417e-06
-1.9958e-06
-1.56307e-06
2.00819e-06
1.19793e-06
-0.00012029
0.000120296
-0.000121482
0.000121109
1.17052e-06
-1.90541e-07
-0.000123629
-1.55068e-06
0.000123326
2.04454e-06
-0.00012309
1.60273e-06
1.56792e-07
0.000122944
-1.80438e-06
-1.71228e-07
-1.54015e-06
2.01455e-06
1.63587e-06
1.62644e-07
-1.85464e-06
-1.21676e-06
-0.000120765
0.000120431
-0.000120247
4.85013e-07
0.000120148
-1.19596e-06
4.8699e-07
2.77403e-08
-0.000122894
-5.75106e-07
0.000122753
8.44917e-07
-0.000123078
-2.38271e-07
-1.62745e-09
0.000122887
4.58324e-07
2.63104e-08
-5.57114e-07
8.09271e-07
-2.20018e-07
-2.48755e-09
4.22653e-07
4.76368e-08
-0.000120378
0.00012024
-0.000120603
-1.25374e-09
0.000120414
4.49397e-08
-2.12669e-09
7.82557e-12
-0.000123167
-1.97451e-07
0.000122966
3.96714e-07
-0.000123167
-1.97459e-07
1.628e-09
0.000122966
3.96726e-07
-9.13137e-12
-1.78841e-07
3.5929e-07
-1.78854e-07
2.47475e-09
3.59305e-07
1.27185e-11
-0.000120691
0.000120492
-0.000120691
1.26194e-09
0.000120492
-2.36597e-11
2.06145e-09
-2.78393e-08
-0.000123078
-2.38255e-07
0.000122887
4.58327e-07
-0.000122894
-5.74651e-07
-1.57382e-07
0.000122753
8.44457e-07
-2.62546e-08
-2.20035e-07
4.2266e-07
-5.56862e-07
-1.62006e-07
8.0866e-07
-4.76567e-08
-0.000120603
0.000120414
-0.000120377
-4.84735e-07
0.00012024
-4.50159e-08
-4.86727e-07
1.91003e-07
-0.000123092
1.6002e-06
0.000122945
-1.80193e-06
-0.00012363
-1.54927e-06
0.000123327
2.04307e-06
1.7023e-07
1.63476e-06
-1.85508e-06
-1.5415e-06
2.01467e-06
1.21626e-06
-0.000120248
0.000120147
-0.000120764
0.000120431
1.19618e-06
-2.16749e-07
-0.000123027
-1.54493e-06
0.000122718
2.07066e-06
-0.000122771
1.51375e-06
1.41922e-07
0.000122567
-1.66815e-06
-2.02767e-07
-1.53107e-06
2.03287e-06
1.54213e-06
1.47809e-07
-1.71955e-06
-1.22015e-06
-0.000120108
0.000119784
-0.000120009
4.68301e-07
0.000119835
-1.20853e-06
4.72329e-07
2.91329e-08
-0.00012259
-6.02708e-07
0.000122401
9.05038e-07
-0.000122682
-2.72698e-07
-1.02743e-10
0.000122457
5.26776e-07
2.83231e-08
-5.82546e-07
8.65167e-07
-2.52497e-07
-7.95624e-10
4.86599e-07
5.01508e-08
-0.000120081
0.000119896
-0.00012021
2.51074e-10
0.000119988
4.87226e-08
-4.30813e-10
2.72959e-11
-0.00012275
-2.33511e-07
0.000122514
4.69337e-07
-0.00012275
-2.33511e-07
1.44777e-10
0.000122514
4.69336e-07
2.97588e-11
-2.12901e-07
4.27837e-07
-2.12907e-07
8.45911e-10
4.27842e-07
2.24572e-11
-0.000120279
0.000120046
-0.000120279
-2.24055e-10
0.000120046
2.63906e-11
4.67482e-10
-2.91572e-08
-0.000122682
-2.72714e-07
0.000122457
5.26798e-07
-0.000122591
-6.02441e-07
-1.42422e-07
0.000122401
9.05016e-07
-2.83775e-08
-2.52497e-07
4.86623e-07
-5.82204e-07
-1.48691e-07
8.65197e-07
-5.02301e-08
-0.000120211
0.000119988
-0.000120081
-4.68273e-07
0.000119897
-4.87558e-08
-4.71999e-07
2.17352e-07
-0.00012277
1.51213e-06
0.000122565
-1.66701e-06
-0.000123027
-1.54344e-06
0.000122719
2.06845e-06
2.03845e-07
1.53848e-06
-1.71579e-06
-1.52623e-06
2.02978e-06
1.21851e-06
-0.000120007
0.000119833
-0.000120111
0.000119786
1.20651e-06
-2.33643e-07
-0.000122405
-1.54662e-06
0.000122077
2.10796e-06
-0.000122338
1.42504e-06
1.28121e-07
0.000122082
-1.53137e-06
-2.24258e-07
-1.5268e-06
2.06415e-06
1.45607e-06
1.33817e-07
-1.58542e-06
-1.21129e-06
-0.000119461
0.000119126
-0.000119632
4.50351e-07
0.000119395
-1.20424e-06
4.54842e-07
2.92569e-08
-0.000122189
-6.33812e-07
0.000121949
9.72249e-07
-0.000122216
-3.10604e-07
9.11208e-10
0.000121951
6.03141e-07
2.90461e-08
-6.11592e-07
9.28455e-07
-2.88277e-07
4.51253e-10
5.58313e-07
5.05033e-08
-0.00011969
0.000119456
-0.000119749
1.2991e-09
0.000119487
5.00722e-08
8.26017e-10
-3.76565e-11
-0.000122262
-2.72917e-07
0.000121987
5.48678e-07
-0.000122262
-2.72903e-07
-9.90212e-10
0.000121987
5.48662e-07
-8.05291e-12
-2.50243e-07
5.03037e-07
-2.50234e-07
-4.77011e-10
5.03028e-07
1.37659e-11
-0.000119796
0.000119525
-0.000119796
-1.26079e-09
0.000119525
2.25545e-11
-7.75244e-10
-2.93547e-08
-0.000122216
-3.10614e-07
0.000121952
6.03178e-07
-0.000122189
-6.34095e-07
-1.27886e-07
0.000121949
9.72553e-07
-2.91012e-08
-2.88265e-07
5.58313e-07
-6.11346e-07
-1.33769e-07
9.2814e-07
-5.04526e-08
-0.000119749
0.000119487
-0.00011969
-4.50364e-07
0.000119456
-5.00051e-08
-4.5465e-07
2.33331e-07
-0.000122337
1.42441e-06
0.000122082
-1.53021e-06
-0.000122406
-1.54568e-06
0.000122079
2.10672e-06
2.24077e-07
1.45566e-06
-1.58593e-06
-1.5283e-06
2.06554e-06
1.21006e-06
-0.00011963
0.000119394
-0.000119462
0.000119126
1.20354e-06
-2.43228e-07
-0.00012174
-1.55672e-06
0.000121384
2.15569e-06
-0.000121808
1.33513e-06
1.14166e-07
0.0001215
-1.38427e-06
-2.36422e-07
-1.53257e-06
2.10616e-06
1.36382e-06
1.19437e-07
-1.44556e-06
-1.19657e-06
-0.000118786
0.000118426
-0.000119129
4.3258e-07
0.000118835
-1.19261e-06
4.36987e-07
2.85661e-08
-0.000121686
-6.69606e-07
0.000121393
1.04792e-06
-0.000121668
-3.52741e-07
1.59576e-09
0.00012136
6.88463e-07
2.86434e-08
-6.45004e-07
9.99053e-07
-3.27905e-07
1.27216e-09
6.3836e-07
4.93743e-08
-0.000119198
0.000118912
-0.000119207
1.88398e-09
0.000118902
4.9572e-08
1.62906e-09
1.15331e-11
-0.000121694
-3.16325e-07
0.000121376
6.3607e-07
-0.000121694
-3.16313e-07
-1.52415e-09
0.000121376
6.36033e-07
-2.64851e-11
-2.91231e-07
5.85551e-07
-2.91221e-07
-1.3122e-09
5.85529e-07
4.80427e-12
-0.000119235
0.000118921
-0.000119235
-1.85188e-09
0.000118921
1.13573e-11
-1.5965e-09
-2.83644e-08
-0.000121669
-3.52791e-07
0.00012136
6.88448e-07
-0.000121686
-6.70116e-07
-1.13835e-07
0.000121393
1.04842e-06
-2.86932e-08
-3.27947e-07
6.38419e-07
-6.45511e-07
-1.19534e-07
9.99826e-07
-4.94045e-08
-0.000119208
0.000118902
-0.000119198
-4.33362e-07
0.000118912
-4.95878e-08
-4.37425e-07
2.42168e-07
-0.000121806
1.33571e-06
0.000121497
-1.38254e-06
-0.000121742
-1.55338e-06
0.000121386
2.15175e-06
2.36173e-07
1.36359e-06
-1.44377e-06
-1.52863e-06
2.10156e-06
1.19575e-06
-0.000119129
0.000118835
-0.000118789
0.000118431
1.19146e-06
-2.47717e-07
-0.000121015
-1.56937e-06
0.000120621
2.21113e-06
-0.000121168
1.23931e-06
1.03151e-07
0.000120807
-1.22842e-06
-2.43698e-07
-1.54367e-06
2.15703e-06
1.27556e-06
1.06804e-07
-1.29424e-06
-1.17768e-06
-0.000118058
0.000117667
-0.000118515
4.15829e-07
0.00011816
-1.17625e-06
4.20134e-07
2.7139e-08
-0.000121076
-7.09917e-07
0.000120728
1.13406e-06
-0.00012103
-3.99189e-07
1.79139e-09
0.000120672
7.82661e-07
2.76756e-08
-6.82699e-07
1.07909e-06
-3.71807e-07
1.74063e-09
7.27371e-07
4.74572e-08
-0.000118601
0.000118259
-0.000118576
2.10604e-09
0.000118222
4.8043e-08
2.01506e-09
-1.9373e-11
-0.000121038
-3.63907e-07
0.000120672
7.31851e-07
-0.000121038
-3.63869e-07
-1.82809e-09
0.000120672
7.3182e-07
1.12869e-11
-3.36309e-07
6.76304e-07
-3.3629e-07
-1.67623e-09
6.76266e-07
-2.59666e-11
-0.000118586
0.000118225
-0.000118586
-2.09497e-09
0.000118225
-9.34376e-12
-1.99799e-09
-2.71729e-08
-0.00012103
-3.99086e-07
0.000120672
7.82568e-07
-0.000121076
-7.10061e-07
-1.03268e-07
0.000120729
1.13397e-06
-2.74919e-08
-3.71794e-07
7.27293e-07
-6.83004e-07
-1.06806e-07
1.07906e-06
-4.72539e-08
-0.000118576
0.000118223
-0.000118602
-4.15877e-07
0.00011826
-4.79935e-08
-4.20798e-07
2.47735e-07
-0.000121167
1.23764e-06
0.000120807
-1.22783e-06
-0.000121015
-1.56858e-06
0.00012062
2.21124e-06
2.43106e-07
1.27611e-06
-1.2961e-06
-1.54613e-06
2.15968e-06
1.17516e-06
-0.000118516
0.000118162
-0.00011806
0.000117667
1.17499e-06
-2.51168e-07
-0.00012021
-1.59036e-06
0.00011977
2.28172e-06
-0.000120423
1.14286e-06
9.66246e-08
0.000120002
-1.07014e-06
-2.47339e-07
-1.56201e-06
2.22008e-06
1.17906e-06
9.88253e-08
-1.14153e-06
-1.15688e-06
-0.00011726
0.000116827
-0.00011778
3.99715e-07
0.000117366
-1.15581e-06
4.03601e-07
2.55219e-08
-0.000120355
-7.5456e-07
0.000119949
1.23178e-06
-0.000120291
-4.50512e-07
1.75342e-09
0.000119878
8.87033e-07
2.60907e-08
-7.24276e-07
1.1695e-06
-4.20025e-07
1.77316e-09
8.25291e-07
4.48624e-08
-0.000117893
0.000117493
-0.000117846
2.04856e-09
0.000117438
4.57798e-08
2.08916e-09
-5.91131e-12
-0.000120283
-4.16349e-07
0.000119864
8.37476e-07
-0.000120283
-4.1632e-07
-1.74493e-09
0.000119864
8.37444e-07
-2.58443e-11
-3.85649e-07
7.75639e-07
-3.85609e-07
-1.83017e-09
7.75609e-07
-2.29861e-11
-0.000117841
0.000117427
-0.000117841
-2.05043e-09
0.000117427
-3.27646e-11
-2.09116e-09
-2.53586e-08
-0.000120291
-4.50425e-07
0.000119878
8.86872e-07
-0.000120356
-7.54696e-07
-9.53299e-08
0.000119949
1.23129e-06
-2.60968e-08
-4.19906e-07
8.25154e-07
-7.24487e-07
-9.77971e-08
1.16913e-06
-4.4705e-08
-0.000117846
0.000117438
-0.000117893
-3.994e-07
0.000117493
-4.55744e-08
-4.03299e-07
2.49697e-07
-0.000120423
1.14001e-06
0.000120005
-1.06702e-06
-0.00012021
-1.58895e-06
0.00011977
2.27869e-06
2.46002e-07
1.17461e-06
-1.13531e-06
-1.55725e-06
2.21343e-06
1.15434e-06
-0.000117781
0.000117367
-0.000117262
0.000116827
1.15243e-06
-2.49339e-07
-0.000119311
-1.61808e-06
0.000118817
2.36107e-06
-0.000119556
1.04977e-06
8.88129e-08
0.000119074
-9.0576e-07
-2.48302e-07
-1.58292e-06
2.28997e-06
1.08334e-06
9.19269e-08
-9.77648e-07
-1.13373e-06
-0.000116378
0.000115894
-0.000116927
3.84584e-07
0.000116459
-1.13418e-06
3.87918e-07
2.3042e-08
-0.000119516
-8.04651e-07
0.000119047
1.33966e-06
-0.000119441
-5.06333e-07
1.31462e-09
0.000118968
1.00045e-06
2.4141e-08
-7.71253e-07
1.27191e-06
-4.73046e-07
1.57032e-09
9.33128e-07
4.15266e-08
-0.000117067
0.000116606
-0.000117006
1.63665e-09
0.00011654
4.28158e-08
1.86406e-09
-4.64764e-12
-0.000119421
-4.73254e-07
0.000118943
9.52114e-07
-0.000119421
-4.7324e-07
-1.33541e-09
0.000118943
9.5211e-07
1.5726e-12
-4.39771e-07
8.8467e-07
-4.39753e-07
-1.55616e-09
8.84651e-07
1.41834e-12
-0.000116989
0.000116517
-0.000116989
-1.62285e-09
0.000116517
-1.18798e-11
-1.86307e-09
-2.3139e-08
-0.000119441
-5.06293e-07
0.000118968
1.00046e-06
-0.000119516
-8.04603e-07
-8.95618e-08
0.000119047
1.33993e-06
-2.4083e-08
-4.72984e-07
9.33034e-07
-7.71076e-07
-9.20392e-08
1.27169e-06
-4.15041e-08
-0.000117006
0.00011654
-0.000117068
-3.84707e-07
0.000116606
-4.27568e-08
-3.88006e-07
2.51018e-07
-0.00011956
1.04759e-06
0.000119078
-9.0604e-07
-0.000119309
-1.6172e-06
0.000118815
2.3623e-06
2.48773e-07
1.08297e-06
-9.78063e-07
-1.58486e-06
2.29431e-06
1.13198e-06
-0.00011693
0.000116461
-0.000116375
0.00011589
1.13272e-06
-2.47987e-07
-0.0001183
-1.6545e-06
0.000117745
2.45737e-06
-0.000118569
9.51656e-07
8.22712e-08
0.000118026
-7.39226e-07
-2.45998e-07
-1.6177e-06
2.38084e-06
9.91388e-07
8.44762e-08
-8.16247e-07
-1.11057e-06
-0.000115387
0.000114843
-0.000115966
3.71402e-07
0.000115435
-1.1105e-06
3.74002e-07
2.04953e-08
-0.000118551
-8.60244e-07
0.000118016
1.45697e-06
-0.000118469
-5.6728e-07
6.42739e-10
0.000117932
1.12428e-06
2.15257e-08
-8.23226e-07
1.3827e-06
-5.30722e-07
9.8852e-10
1.05027e-06
3.79624e-08
-0.000116117
0.00011559
-0.000116047
9.5536e-10
0.000115517
3.93547e-08
1.30953e-09
-1.07535e-11
-0.00011844
-5.35257e-07
0.000117898
1.07706e-06
-0.00011844
-5.35254e-07
-6.81545e-10
0.000117898
1.07706e-06
-1.0057e-11
-4.98504e-07
1.003e-06
-4.98496e-07
-1.03681e-09
1.00301e-06
1.9147e-12
-0.00011602
0.000115486
-0.00011602
-9.63343e-10
0.000115486
5.50749e-12
-1.30447e-09
-2.0617e-08
-0.000118469
-5.67285e-07
0.000117932
1.12433e-06
-0.000118551
-8.60584e-07
-8.29795e-08
0.000118016
1.45792e-06
-2.16835e-08
-5.30709e-07
1.05033e-06
-8.23445e-07
-8.51111e-08
1.38338e-06
-3.80205e-08
-0.000116047
0.000115517
-0.000116117
-3.71714e-07
0.000115591
-3.9368e-08
-3.74054e-07
2.49058e-07
-0.00011857
9.51628e-07
0.000118024
-7.3828e-07
-0.000118297
-1.6524e-06
0.000117745
2.45409e-06
2.47289e-07
9.90565e-07
-8.1515e-07
-1.6147e-06
2.37976e-06
1.11073e-06
-0.000115968
0.000115437
-0.000115384
0.000114843
1.10926e-06
-2.46954e-07
-0.000117167
-1.69464e-06
0.000116548
2.5603e-06
-0.000117454
8.5204e-07
7.72815e-08
0.000116842
-5.63907e-07
-2.44835e-07
-1.65522e-06
2.47836e-06
8.93372e-07
7.87249e-08
-6.45283e-07
-1.08895e-06
-0.000114276
0.000113671
-0.000114878
3.59426e-07
0.000114282
-1.08891e-06
3.61589e-07
1.80867e-08
-0.000117452
-9.21559e-07
0.000116847
1.58559e-06
-0.000117366
-6.33072e-07
-1.83337e-10
0.00011676
1.25809e-06
1.90644e-08
-8.8136e-07
1.50469e-06
-5.9358e-07
2.39287e-10
1.17804e-06
3.4392e-08
-0.000115035
0.000114438
-0.000114959
1.26463e-10
0.00011436
3.58039e-08
5.48409e-10
-1.49507e-11
-0.000117329
-6.0207e-07
0.000116719
1.21175e-06
-0.000117329
-6.02067e-07
1.52654e-10
0.000116719
1.21175e-06
-9.35055e-12
-5.62381e-07
1.13175e-06
-5.6238e-07
-2.65194e-10
1.13175e-06
-1.65535e-13
-0.000114924
0.000114322
-0.000114924
-1.26348e-10
0.000114322
2.77708e-12
-5.50798e-10
-1.8088e-08
-0.000117367
-6.33063e-07
0.00011676
1.25806e-06
-0.000117452
-9.2143e-07
-7.73404e-08
0.000116848
1.5856e-06
-1.91186e-08
-5.93578e-07
1.17805e-06
-8.81571e-07
-7.92613e-08
1.50517e-06
-3.43892e-08
-0.000114959
0.00011436
-0.000115035
-3.59274e-07
0.000114438
-3.5829e-08
-3.61775e-07
2.46807e-07
-0.000117455
8.50504e-07
0.000116842
-5.62227e-07
-0.000117166
-1.69301e-06
0.000116549
2.55747e-06
2.45205e-07
8.90928e-07
-6.45913e-07
-1.65344e-06
2.47696e-06
1.08786e-06
-0.000114877
0.000114281
-0.000114278
0.000113673
1.08867e-06
-2.45554e-07
-0.000115901
-1.74137e-06
0.000115211
2.67663e-06
-0.000116201
7.44809e-07
7.36877e-08
0.000115517
-3.79915e-07
-2.43769e-07
-1.69953e-06
2.59051e-06
7.92272e-07
7.46809e-08
-4.70207e-07
-1.06643e-06
-0.000113038
0.000112363
-0.000113657
3.48469e-07
0.000112987
-1.06704e-06
3.50465e-07
1.5866e-08
-0.000116212
-9.88175e-07
0.000115533
1.72538e-06
-0.000116122
-7.04124e-07
-1.10248e-09
0.000115441
1.40262e-06
1.68105e-08
-9.44723e-07
1.63767e-06
-6.61461e-07
-6.20005e-10
1.31613e-06
3.08598e-08
-0.000113812
0.000113141
-0.000113731
-8.33736e-10
0.000113059
3.23144e-08
-3.32771e-10
-2.9949e-11
-0.000116079
-6.74161e-07
0.000115395
1.35717e-06
-0.000116079
-6.74154e-07
1.03963e-09
0.000115395
1.35716e-06
-2.11329e-11
-6.31275e-07
1.27067e-06
-6.31271e-07
5.76187e-10
1.27067e-06
-1.21879e-11
-0.00011369
0.000113015
-0.00011369
8.10622e-10
0.000113015
-5.2583e-12
3.25852e-10
-1.58663e-08
-0.000116123
-7.04098e-07
0.000115441
1.40254e-06
-0.000116212
-9.88058e-07
-7.33445e-08
0.000115533
1.72501e-06
-1.68143e-08
-6.61448e-07
1.31609e-06
-9.44608e-07
-7.45376e-08
1.6376e-06
-3.08422e-08
-0.000113731
0.000113059
-0.000113812
-3.48109e-07
0.000113141
-3.23037e-08
-3.50125e-07
2.4533e-07
-0.000116202
7.41912e-07
0.000115519
-3.7809e-07
-0.000115903
-1.73983e-06
0.000115214
2.67412e-06
2.43908e-07
7.90571e-07
-4.68285e-07
-1.69716e-06
2.58682e-06
1.06447e-06
-0.000113656
0.000112985
-0.000113041
0.000112366
1.06577e-06
-2.44692e-07
-0.000114493
-1.79155e-06
0.000113728
2.80155e-06
-0.000114806
6.3401e-07
7.0818e-08
0.000114054
-1.9742e-07
-2.42901e-07
-1.74351e-06
2.7044e-06
6.82354e-07
7.13849e-08
-2.85514e-07
-1.04387e-06
-0.000111665
0.000110917
-0.000112285
3.37625e-07
0.000111537
-1.0449e-06
3.39521e-07
1.38631e-08
-0.000114821
-1.05952e-06
0.000114062
1.87543e-06
-0.000114727
-7.79825e-07
-2.09315e-09
0.000113966
1.55673e-06
1.4552e-08
-1.01319e-06
1.78131e-06
-7.34013e-07
-1.60976e-09
1.46373e-06
2.73095e-08
-0.000112439
0.000111689
-0.000112355
-1.86728e-09
0.000111604
2.8774e-08
-1.33961e-09
-2.56602e-11
-0.00011468
-7.50852e-07
0.000113916
1.51189e-06
-0.00011468
-7.50853e-07
2.06915e-09
0.000113916
1.51189e-06
-4.85519e-11
-7.04845e-07
1.4191e-06
-7.04841e-07
1.49536e-09
1.41909e-06
-3.88302e-11
-0.000112309
0.000111557
-0.000112309
1.78317e-09
0.000111557
-2.44032e-11
1.28407e-09
-1.35745e-08
-0.000114727
-7.79826e-07
0.000113966
1.55662e-06
-0.000114821
-1.05919e-06
-7.04037e-08
0.000114063
1.8748e-06
-1.4674e-08
-7.33976e-07
1.46363e-06
-1.01299e-06
-7.09688e-08
1.78062e-06
-2.74151e-08
-0.000112355
0.000111604
-0.000112438
-3.37562e-07
0.000111689
-2.88001e-08
-3.39365e-07
2.43942e-07
-0.000114809
6.34433e-07
0.000114056
-1.96001e-07
-0.000114494
-1.79154e-06
0.000113729
2.80085e-06
2.42029e-07
6.8059e-07
-2.83061e-07
-1.74585e-06
2.70803e-06
1.04295e-06
-0.000112283
0.000111537
-0.000111663
0.000110915
1.04312e-06
-2.44885e-07
-0.00011293
-1.8504e-06
0.000112082
2.94272e-06
-0.000113282
5.21413e-07
7.10973e-08
0.000112471
-2.58565e-08
-2.41742e-07
-1.80026e-06
2.8401e-06
5.71294e-07
6.93743e-08
-1.10507e-07
-1.02152e-06
-0.000110139
0.00010931
-0.000110757
3.27574e-07
0.000109929
-1.02248e-06
3.29323e-07
1.23322e-08
-0.00011327
-1.13516e-06
0.000112426
2.03726e-06
-0.000113171
-8.60512e-07
-3.06825e-09
0.000112326
1.72121e-06
1.21924e-08
-1.08634e-06
1.93616e-06
-8.1179e-07
-2.77444e-09
1.62195e-06
2.39832e-08
-0.000110907
0.000110075
-0.00011082
-2.91387e-09
0.000109986
2.54109e-08
-2.37353e-09
1.65819e-11
-0.00011312
-8.32364e-07
0.000112272
1.6764e-06
-0.00011312
-8.32374e-07
3.17251e-09
0.000112273
1.67641e-06
-1.27093e-10
-7.83465e-07
1.57769e-06
-7.83447e-07
2.38935e-09
1.57772e-06
-4.49947e-11
-0.000110771
0.000109936
-0.000110771
2.82896e-09
0.000109936
-5.61179e-11
2.26256e-09
-1.17419e-08
-0.000113172
-8.60538e-07
0.000112326
1.72108e-06
-0.00011327
-1.13486e-06
-7.0715e-08
0.000112427
2.03673e-06
-1.31344e-08
-8.11667e-07
1.62197e-06
-1.08605e-06
-6.93984e-08
1.93535e-06
-2.40498e-08
-0.00011082
0.000109986
-0.000110907
-3.27254e-07
0.000110075
-2.5445e-08
-3.29122e-07
2.45377e-07
-0.000113283
5.20344e-07
0.000112471
-2.45638e-08
-0.000112931
-1.85024e-06
0.000112084
2.94204e-06
2.41502e-07
5.71865e-07
-1.09352e-07
-1.80011e-06
2.83957e-06
1.02142e-06
-0.000110757
0.000109929
-0.000110137
0.000109308
1.02214e-06
-2.4393e-07
-0.000111202
-1.91348e-06
0.00011027
3.08994e-06
-0.000111611
4.04015e-07
6.86707e-08
0.00011068
2.14499e-07
-2.43437e-07
-1.85932e-06
2.98289e-06
4.59158e-07
7.06973e-08
8.63874e-08
-1.00108e-06
-0.000108452
0.00010754
-0.000109067
3.17499e-07
0.000108153
-1.00133e-06
3.19366e-07
9.85972e-09
-0.000111548
-1.21494e-06
0.000110616
2.20615e-06
-0.000111445
-9.45699e-07
-4.21568e-09
0.000110511
1.89428e-06
1.10545e-08
-1.1628e-06
2.10051e-06
-8.93653e-07
-3.63532e-09
1.78892e-06
2.07886e-08
-0.00010921
0.000108291
-0.000109118
-4.01502e-09
0.000108197
2.21449e-08
-3.43341e-09
-5.46605e-11
-0.00011139
-9.18061e-07
0.000110455
1.84934e-06
-0.000111391
-9.18063e-07
4.09928e-09
0.000110455
1.84936e-06
-3.56085e-11
-8.66074e-07
1.74446e-06
-8.66078e-07
3.55343e-09
1.74447e-06
-6.61761e-11
-0.000109066
0.000108144
-0.000109066
3.8801e-09
0.000108144
-5.67282e-11
3.31971e-09
-1.00062e-08
-0.000111445
-9.45662e-07
0.000110511
1.89424e-06
-0.000111549
-1.21479e-06
-6.84502e-08
0.000110616
2.20579e-06
-1.12168e-08
-8.93614e-07
1.78886e-06
-1.16263e-06
-7.04997e-08
2.10007e-06
-2.09093e-08
-0.000109118
0.000108198
-0.00010921
-3.17605e-07
0.000108292
-2.22201e-08
-3.19247e-07
2.42795e-07
-0.000111611
4.04024e-07
0.00011068
2.15093e-07
-0.000111203
-1.9117e-06
0.000110269
3.08872e-06
2.43179e-07
4.57972e-07
8.82845e-08
-1.85709e-06
2.98125e-06
9.99807e-07
-0.000109067
0.000108154
-0.000108452
0.00010754
1.00057e-06
-2.3641e-07
-0.000109301
-1.98277e-06
0.000108276
3.24447e-06
-0.000109712
2.83208e-07
6.24013e-08
0.000108688
4.4243e-07
-2.37527e-07
-1.92586e-06
3.13204e-06
3.38561e-07
6.49035e-08
3.26782e-07
-9.78408e-07
-0.000106594
0.00010559
-0.000107202
3.07962e-07
0.000106199
-9.79931e-07
3.09642e-07
7.27812e-09
-0.000109647
-1.29921e-06
0.000108621
2.37987e-06
-0.00010954
-1.03464e-06
-5.92928e-09
0.000108513
2.07495e-06
8.49413e-09
-1.24428e-06
2.26959e-06
-9.7999e-07
-4.90907e-09
1.96413e-06
1.78683e-08
-0.000107338
0.000106329
-0.000107241
-5.01973e-09
0.000106229
1.91393e-08