/*--------------------------------*- C++ -*----------------------------------*\
  =========                 |
  \\      /  F ield         | OpenFOAM: The Open Source CFD Toolbox
   \\    /   O peration     | Website:  https://openfoam.org
    \\  /    A nd           | Version:  9
     \\/     M anipulation  |
\*---------------------------------------------------------------------------*/
FoamFile
{
    format      ascii;
    class       volScalarField;
    location    "2.05";
    object      k;
}
// * * * * * * * * * * * * * * * * * * * * * * * * * * * * * * * * * * * * * //

dimensions      [0 2 -2 0 0 0 0];

internalField   nonuniform List<scalar> 
36360
(
0.0706917
0.0569944
0.0280824
0.0250809
0.0151494
0.0112856
0.0052585
0.00460774
0.0192813
0.00475903
0.00575649
0.00288175
0.00413665
0.00229612
0.00304947
0.00297832
0.00209467
0.00209407
0.00277277
0.00277284
0.00217056
0.00217053
0.00298587
0.00298587
0.00475703
0.0192818
0.0028814
0.00575613
0.00229582
0.00413639
0.00297832
0.00304935
0.0570073
0.0707192
0.025085
0.0280953
0.0112885
0.0151563
0.00460811
0.00525957
0.124658
0.102594
0.102112
0.0829548
0.0394188
0.0295158
0.028971
0.0213151
0.0520213
0.0229169
0.0370413
0.0121385
0.0142849
0.00487735
0.0082477
0.00281885
0.00728822
0.00728545
0.00305766
0.00305566
0.00188965
0.00188912
0.00171297
0.00171281
0.022917
0.0520337
0.0121348
0.0370474
0.0048761
0.0142876
0.00281806
0.00824815
0.102624
0.124706
0.0829762
0.10215
0.029526
0.0394365
0.0213215
0.0289838
0.153172
0.128309
0.141041
0.117257
0.0523891
0.040529
0.0469374
0.0358143
0.073282
0.040663
0.0639251
0.0324544
0.0232032
0.0115569
0.0192898
0.00833956
0.0241237
0.024128
0.0157939
0.0157939
0.00526104
0.00526065
0.00296339
0.00296255
0.0406771
0.0733106
0.032461
0.0639451
0.0115593
0.023212
0.00833951
0.0192954
0.128358
0.153243
0.117296
0.141099
0.0405472
0.0524166
0.0358282
0.0469598
0.169002
0.142956
0.162236
0.136668
0.0593298
0.0466771
0.05639
0.0440564
0.0861759
0.052759
0.080579
0.0474259
0.0284948
0.0164209
0.0262155
0.0142733
0.0367129
0.0367231
0.0311614
0.031169
0.010041
0.0100434
0.00784227
0.00784332
0.0527872
0.0862229
0.0474474
0.0806169
0.016429
0.0285107
0.0142786
0.0262279
0.143028
0.169099
0.136728
0.16232
0.0467041
0.0593684
0.0440789
0.0564229
0.177657
0.151048
0.174018
0.147642
0.0630233
0.0499947
0.0614827
0.0486092
0.0934872
0.0598297
0.0904009
0.0568393
0.0314202
0.0192335
0.0301951
0.0180535
0.0440162
0.0440304
0.0409397
0.0409521
0.0129949
0.0129992
0.0117538
0.0117573
0.059869
0.0935504
0.0568734
0.0904565
0.0192463
0.0314425
0.0180642
0.0302144
0.151141
0.177778
0.147724
0.174128
0.05003
0.0630723
0.0486405
0.0615267
0.182046
0.155159
0.180261
0.153489
0.0648496
0.0516355
0.064114
0.0509764
0.0972216
0.0634414
0.0957075
0.0619819
0.032874
0.0206214
0.0322908
0.0200689
0.0476969
0.0477137
0.0462167
0.0462324
0.0144406
0.0144462
0.0138694
0.0138744
0.0634885
0.0972966
0.0620255
0.0957772
0.0206373
0.0329008
0.0200835
0.0323156
0.155267
0.182187
0.15359
0.180393
0.0516769
0.0649065
0.0510151
0.0641673
0.184005
0.156989
0.183255
0.15629
0.0656428
0.0523404
0.0653433
0.0520765
0.0988803
0.0650318
0.0982502
0.0644312
0.0334995
0.0212019
0.0332655
0.0209883
0.0492951
0.0493136
0.0486955
0.0487133
0.01503
0.0150362
0.0148163
0.0148222
0.0650835
0.0989626
0.064481
0.0983294
0.0212196
0.033529
0.0210052
0.0332939
0.157107
0.184158
0.156403
0.183403
0.0523857
0.0657047
0.0521201
0.0654031
0.184693
0.157633
0.18447
0.157424
0.0659133
0.0525738
0.0658283
0.052503
0.0994666
0.065594
0.0992782
0.0654139
0.0337126
0.0213915
0.0336465
0.021335
0.0498523
0.0498716
0.0496761
0.049695
0.0152146
0.0152211
0.015162
0.0151684
0.0656481
0.0995526
0.065467
0.0993627
0.0214099
0.0337434
0.0213532
0.0336768
0.157756
0.184853
0.157545
0.184627
0.0526211
0.0659778
0.0525495
0.0658917
0.184772
0.157716
0.184792
0.15773
0.0659423
0.0525924
0.0659506
0.0526035
0.0995568
0.0656935
0.0995639
0.0656945
0.0337422
0.0214162
0.0337459
0.0214208
0.0499526
0.0499722
0.0499534
0.0499729
0.0152362
0.0152427
0.0152424
0.0152489
0.0657484
0.0996441
0.0657492
0.0996509
0.0214349
0.0337735
0.0214395
0.0337771
0.157841
0.184934
0.157855
0.184954
0.0526403
0.0660078
0.0526513
0.0660158
0.184595
0.157576
0.184718
0.157677
0.0658772
0.0525286
0.0659242
0.0525737
0.0994573
0.0656241
0.0995351
0.0656849
0.0337056
0.021386
0.0337347
0.0214108
0.0498927
0.0499124
0.0499483
0.0499679
0.0152063
0.0152128
0.015231
0.0152375
0.0656792
0.099545
0.06574
0.0996227
0.0214047
0.0337369
0.0214295
0.033766
0.157701
0.184758
0.157802
0.184881
0.0525768
0.0659429
0.0526218
0.0659898
0.184283
0.157319
0.184465
0.157471
0.0657609
0.0524214
0.0658304
0.0524857
0.0992596
0.0654662
0.0993822
0.0655694
0.0336316
0.0213239
0.0336786
0.0213651
0.0497503
0.0497699
0.049846
0.0498657
0.0151464
0.0151529
0.0151869
0.0151934
0.0655212
0.0993471
0.0656245
0.0994698
0.0213426
0.0336628
0.0213838
0.0337099
0.157445
0.184446
0.157597
0.184628
0.0524694
0.0658266
0.0525338
0.0658962
0.183893
0.157001
0.18411
0.15718
0.0656171
0.0522916
0.0656992
0.0523662
0.0990123
0.0652635
0.0991566
0.0653863
0.033539
0.0212461
0.0335943
0.0212943
0.0495647
0.0495842
0.0496799
0.0496995
0.0150711
0.0150775
0.0151189
0.0151254
0.0653182
0.0990993
0.0654412
0.0992439
0.0212646
0.0335701
0.0213129
0.0336255
0.157126
0.184056
0.157305
0.184273
0.0523394
0.0656825
0.0524141
0.0657648
0.183446
0.156639
0.18369
0.156838
0.0654526
0.0521449
0.0655445
0.0522274
0.0987306
0.0650306
0.0988908
0.0651674
0.0334327
0.0211568
0.0334945
0.0212104
0.0493508
0.0493702
0.0494791
0.0494986
0.0149852
0.0149916
0.015038
0.0150445
0.065085
0.0988172
0.065222
0.0989777
0.0211752
0.0334636
0.0212289
0.0335255
0.156763
0.183607
0.156963
0.183852
0.0521924
0.0655176
0.0522751
0.0656097
0.182947
0.156239
0.183216
0.156457
0.0652696
0.0519834
0.0653706
0.0520732
0.0984198
0.0647722
0.0985943
0.0649214
0.0333143
0.0210574
0.0333821
0.021116
0.0491127
0.049132
0.0492529
0.0492722
0.0148898
0.0148961
0.0149473
0.0149537
0.0648263
0.0985059
0.0649757
0.0986806
0.0210757
0.033345
0.0211343
0.0334129
0.156363
0.183108
0.156581
0.183377
0.0520306
0.0653343
0.0521206
0.0654355
0.182397
0.155801
0.182691
0.156038
0.065068
0.0518063
0.0651783
0.0519039
0.0980801
0.0644886
0.098269
0.0646503
0.0331838
0.0209479
0.0332577
0.0210115
0.0488507
0.0488699
0.0490028
0.049022
0.0147847
0.014791
0.0148471
0.0148534
0.0645423
0.0981655
0.0647042
0.0983548
0.020966
0.0332142
0.0210297
0.0332882
0.155924
0.182556
0.156161
0.182852
0.0518532
0.0651323
0.051951
0.0652429
0.181794
0.155325
0.182115
0.155581
0.0648472
0.0516131
0.0649672
0.0517189
0.0977107
0.0641794
0.0979145
0.0643539
0.0330409
0.0208279
0.033121
0.0208968
0.0485642
0.0485832
0.0487285
0.0487476
0.0146696
0.0146759
0.014737
0.0147433
0.0642326
0.0977954
0.0644074
0.0979996
0.0208458
0.033071
0.0209148
0.0331513
0.155447
0.181953
0.155703
0.182274
0.0516597
0.0649111
0.0517656
0.0650313
0.181137
0.154808
0.181485
0.155085
0.0646066
0.0514032
0.0647366
0.0515174
0.0973103
0.0638432
0.0975296
0.0640312
0.032885
0.0206968
0.0329716
0.0207713
0.0482519
0.0482708
0.0484291
0.0484481
0.0145441
0.0145502
0.0146167
0.0146229
0.063896
0.0973943
0.0640843
0.097614
0.0207146
0.0329149
0.0207891
0.0330017
0.154929
0.181294
0.155206
0.181643
0.0514494
0.06467
0.0515638
0.0648002
0.180423
0.154249
0.1808
0.154547
0.064345
0.0511755
0.0644856
0.0512987
0.0968771
0.0634788
0.0971129
0.063681
0.0327155
0.0205543
0.032809
0.0206345
0.0479127
0.0479314
0.0481034
0.0481222
0.0144074
0.0144134
0.0144856
0.0144917
0.0635311
0.0969603
0.0637336
0.0971966
0.0205718
0.0327451
0.0206522
0.0328387
0.154369
0.180579
0.154667
0.180957
0.0512212
0.0644079
0.0513447
0.0645488
0.17965
0.153646
0.180056
0.153966
0.0640616
0.0509288
0.0642131
0.0510615
0.0964096
0.063085
0.0966626
0.0633019
0.0325318
0.0203997
0.0326324
0.0204859
0.0475454
0.0475639
0.0477501
0.0477687
0.0142592
0.0142651
0.0143432
0.0143492
0.0631368
0.096492
0.0633539
0.0967454
0.0204169
0.032561
0.0205033
0.0326618
0.153764
0.179805
0.154085
0.180212
0.0509741
0.0641239
0.051107
0.0642757
0.178816
0.152997
0.179253
0.153339
0.0637557
0.0506622
0.0639185
0.0508049
0.0959067
0.0626609
0.0961774
0.0628929
0.0323333
0.0202326
0.0324413
0.0203251
0.0471491
0.0471675
0.0473683
0.0473868
0.014099
0.0141048
0.014189
0.0141949
0.0627121
0.0959882
0.0629444
0.0962594
0.0202496
0.0323621
0.0203423
0.0324703
0.153114
0.178969
0.153457
0.179407
0.0507071
0.0638175
0.05085
0.0639806
0.17792
0.152301
0.178388
0.152667
0.0634269
0.0503752
0.0636011
0.0505281
0.0953676
0.0622058
0.0956563
0.0624532
0.0321196
0.0200528
0.0322352
0.0201516
0.0467233
0.0467415
0.0469572
0.0469754
0.0139265
0.0139323
0.0140226
0.0140284
0.0622564
0.0954482
0.0625041
0.0957374
0.0200695
0.0321481
0.0201685
0.0322639
0.152417
0.178072
0.152783
0.17854
0.0504196
0.063488
0.0505728
0.0636626
0.176962
0.151558
0.17746
0.151947
0.0630749
0.0500675
0.0632607
0.0502308
0.0947921
0.0617195
0.0950988
0.0619823
0.0318908
0.0198601
0.0320139
0.0199653
0.0462677
0.0462856
0.0465163
0.0465343
0.0137417
0.0137474
0.0138439
0.0138497
0.0617694
0.0948716
0.0620326
0.0951789
0.0198766
0.0319189
0.019982
0.0320422
0.151672
0.177112
0.152062
0.177612
0.0501114
0.0631354
0.0502749
0.0633215
0.175942
0.150768
0.176471
0.15118
0.0627002
0.0497405
0.0628972
0.0499129
0.0941803
0.0612021
0.0945049
0.0614802
0.031647
0.0196547
0.0317774
0.0197662
0.0457823
0.0457999
0.0460456
0.0460634
0.0135445
0.0135501
0.0136529
0.0136585
0.0612513
0.0942587
0.0615298
0.0945839
0.0196708
0.0316746
0.0197825
0.0318053
0.150881
0.17609
0.151294
0.176621
0.0497838
0.06276
0.0499565
0.0629574
0.174862
0.149932
0.175421
0.150367
0.0623032
0.0493956
0.0625112
0.0495771
0.0935329
0.0606541
0.093875
0.0609473
0.0313884
0.0194365
0.0315262
0.0195543
0.0452675
0.045285
0.0455452
0.0455628
0.0133351
0.0133405
0.0134495
0.013455
0.0607026
0.0936102
0.0609962
0.093953
0.0194524
0.0314156
0.0195703
0.0315536
0.150044
0.175009
0.15048
0.175568
0.0494382
0.0623623
0.0496201
0.0625707
0.173725
0.149053
0.174311
0.149509
0.0618849
0.0490317
0.0621033
0.0492225
0.0928514
0.0600768
0.0932101
0.0603842
0.0311154
0.0192062
0.0312603
0.0193299
0.0447245
0.0447417
0.045016
0.0450333
0.013114
0.0131192
0.013234
0.0132394
0.0601245
0.0929275
0.0604324
0.0932869
0.0192217
0.0311421
0.0193456
0.0312872
0.149163
0.17387
0.14962
0.174457
0.0490737
0.0619432
0.0492649
0.0621621
0.172536
0.148133
0.173148
0.148609
0.0614468
0.0486503
0.0616749
0.0488495
0.0921381
0.059472
0.0925122
0.0597927
0.0308289
0.0189643
0.0309803
0.0190936
0.044155
0.0441719
0.0444593
0.0444763
0.0128817
0.0128868
0.0130071
0.0130123
0.0595189
0.092213
0.0598401
0.0925878
0.0189794
0.0308551
0.0191089
0.0310068
0.148241
0.172679
0.148718
0.173292
0.0486917
0.0615043
0.0488913
0.0617328
0.171299
0.147176
0.171934
0.14767
0.0609909
0.0482532
0.0612276
0.04846
0.091396
0.0588423
0.091784
0.0591749
0.03053
0.0187119
0.0306874
0.0188463
0.0435612
0.0435778
0.0438771
0.0438939
0.0126393
0.0126443
0.0127696
0.0127747
0.0588884
0.0914696
0.0592214
0.0918582
0.0187267
0.0305557
0.0188612
0.0307134
0.147283
0.17144
0.147777
0.172076
0.048294
0.0610476
0.0485011
0.0612847
0.170023
0.146187
0.170676
0.146696
0.0605196
0.0478417
0.0607636
0.0480556
0.0906288
0.0581908
0.0910285
0.0585337
0.03022
0.0184502
0.0303827
0.018589
0.0429463
0.0429626
0.0432722
0.0432886
0.0123881
0.0123929
0.0125225
0.0125274
0.058236
0.090701
0.0585793
0.0911015
0.0184646
0.0302452
0.0186035
0.0304082
0.146292
0.170162
0.146802
0.170816
0.0478818
0.0605755
0.048096
0.0608199
0.168714
0.145174
0.169383
0.145694
0.0600357
0.0474177
0.0602855
0.0476372
0.089841
0.0575214
0.0902502
0.0578725
0.0299008
0.0181807
0.0300677
0.0183231
0.0423135
0.0423295
0.0426476
0.0426638
0.0121294
0.0121341
0.0122673
0.012272
0.0575656
0.0899118
0.0579172
0.0903218
0.0181947
0.0299254
0.0183373
0.0300927
0.145277
0.168851
0.145798
0.16952
0.047457
0.0600907
0.0476769
0.060341
0.167379
0.14414
0.16806
0.144669
0.059542
0.0469853
0.0597963
0.0472087
0.0890369
0.0568376
0.0894537
0.0571953
0.0295742
0.017905
0.0297446
0.0180502
0.0416666
0.0416823
0.0420072
0.042023
0.011865
0.0118694
0.0120054
0.01201
0.056881
0.0891064
0.0572391
0.0895238
0.0179186
0.0295983
0.018064
0.029769
0.144241
0.167514
0.144772
0.168195
0.0470239
0.059596
0.0472476
0.0598509
0.166025
0.143088
0.166714
0.143626
0.0590406
0.046546
0.0592985
0.0467726
0.0882192
0.0561426
0.0886423
0.0565054
0.0292417
0.0176245
0.0294148
0.0177719
0.0410088
0.0410241
0.0413543
0.0413698
0.0115963
0.0116006
0.0117386
0.011743
0.0561849
0.0882872
0.0565482
0.0887111
0.0176376
0.0292651
0.0177852
0.0294386
0.143187
0.166157
0.143726
0.166847
0.0465839
0.0590937
0.0468108
0.0593521
0.164651
0.142018
0.16535
0.142565
0.0585319
0.0461002
0.0587935
0.0463301
0.0873873
0.0554366
0.0878177
0.0558049
0.0289034
0.01734
0.0290794
0.0174892
0.0403411
0.0403561
0.0406914
0.0407066
0.0113247
0.0113288
0.0114682
0.0114724
0.0554779
0.0874537
0.0558467
0.087885
0.0173527
0.0289263
0.0175022
0.0291026
0.142115
0.16478
0.142664
0.165481
0.0461373
0.0585841
0.0463676
0.0588462
0.163246
0.140919
0.163963
0.141483
0.058012
0.0456451
0.0582801
0.0458802
0.0865324
0.0547133
0.086976
0.0550914
0.0285574
0.0170505
0.0287377
0.0172024
0.0396587
0.0396733
0.0400173
0.0400321
0.0110499
0.0110538
0.0111951
0.0111991
0.0547535
0.0865972
0.0551322
0.0870416
0.0170627
0.0285797
0.0172149
0.0287603
0.141014
0.163373
0.141579
0.164092
0.0456813
0.0580632
0.0459168
0.0583318
0.161777
0.139758
0.162533
0.140358
0.0574679
0.0451704
0.0577504
0.0454171
0.0856286
0.0539523
0.0861011
0.0543528
0.0281956
0.0167507
0.0283852
0.0169087
0.038944
0.0389582
0.0393219
0.0393364
0.0107681
0.0107718
0.0109175
0.0109213
0.0539914
0.0856917
0.0543925
0.0861651
0.0167625
0.0282172
0.0169208
0.0284071
0.139851
0.161901
0.140453
0.162658
0.0452057
0.057518
0.0454529
0.057801
0.16017
0.138469
0.161006
0.139144
0.0568718
0.0446537
0.0571848
0.0449246
0.0846212
0.0531076
0.0851544
0.0535576
0.0278
0.0164269
0.0280094
0.0165993
0.0381542
0.0381679
0.0385769
0.0385909
0.0104676
0.0104711
0.0106284
0.010632
0.0531453
0.0846822
0.053596
0.0852165
0.0164381
0.0278209
0.0166108
0.0280307
0.138559
0.160291
0.139236
0.161129
0.0446878
0.0569205
0.0449594
0.0572342
0.1583
0.136936
0.159287
0.13775
0.0561722
0.0440586
0.0565452
0.044376
0.083412
0.05209
0.0840615
0.0526408
0.0273358
0.0160495
0.0275853
0.0162537
0.0372025
0.0372156
0.0377203
0.0377337
0.0101213
0.0101245
0.0103096
0.0103129
0.052126
0.0834704
0.0526777
0.0841213
0.0160601
0.0273556
0.0162646
0.0276057
0.137023
0.158417
0.137839
0.159406
0.0440914
0.0562192
0.0444094
0.0565931
0.155966
0.134968
0.157214
0.136034
0.0552832
0.0433021
0.0557638
0.0437126
0.0818158
0.0507338
0.0826911
0.0514811
0.0267348
0.0155606
0.0270642
0.01583
0.0359346
0.0359468
0.0366342
0.0366469
0.0096761
0.00967895
0.00992218
0.00992524
0.0507675
0.0818711
0.051516
0.0827481
0.0155702
0.0267535
0.0158401
0.0270835
0.135051
0.156078
0.136119
0.157329
0.0433333
0.0553282
0.0437446
0.05581
0.152971
0.132024
0.154555
0.133691
0.0541038
0.042258
0.0547379
0.042836
0.0793783
0.0487315
0.0807621
0.0498511
0.0258498
0.0148537
0.026348
0.0152486
0.0341267
0.0341379
0.0351254
0.0351372
0.00904985
0.00905223
0.0093974
0.00940004
0.0487623
0.0794294
0.0498835
0.0808154
0.0148622
0.0258669
0.0152578
0.026366
0.132102
0.153077
0.133772
0.154664
0.0422875
0.0541467
0.0428665
0.0547819
0.150627
0.125179
0.151482
0.129646
0.0525762
0.0400291
0.0534256
0.0414665
0.0748004
0.0456795
0.0775055
0.0473592
0.0242976
0.0137945
0.0252022
0.0143778
0.031641
0.031651
0.0329739
0.0329845
0.00818435
0.00818609
0.00865156
0.00865365
0.0457068
0.0748462
0.0473884
0.0775542
0.0138015
0.0243126
0.0143857
0.0252184
0.12525
0.150731
0.129721
0.151587
0.0400557
0.052617
0.0414949
0.0534674
0.104639
0.0845409
0.0472736
0.0388178
0.0923365
0.0743933
0.0398787
0.0330341
0.0355905
0.0100867
0.0093922
0.00354128
0.029033
0.00761365
0.00769299
0.00321256
0.00308742
0.00308587
0.00266136
0.00266134
0.00261153
0.00261006
0.00273563
0.00273586
0.0100831
0.0355961
0.00354021
0.00939275
0.00761053
0.0290359
0.00321185
0.00769291
0.0845681
0.104691
0.0388305
0.0473058
0.0744137
0.0923773
0.0330425
0.039902
0.179103
0.148939
0.147376
0.120922
0.159207
0.131776
0.130981
0.10701
0.0850071
0.0441285
0.0624811
0.0265941
0.0722173
0.0353381
0.0526572
0.0205144
0.0211159
0.0211149
0.00806595
0.00806143
0.0146228
0.01462
0.00549665
0.00549295
0.0441368
0.0850349
0.0265918
0.062497
0.035342
0.0722377
0.0205109
0.0526682
0.148995
0.179187
0.120963
0.147444
0.131819
0.159275
0.107041
0.131035
0.221237
0.187323
0.203025
0.170577
0.195897
0.165011
0.180153
0.150613
0.117962
0.0735055
0.103291
0.0599957
0.100267
0.0597452
0.0878594
0.0485336
0.0508072
0.0508186
0.0370087
0.0370149
0.0390733
0.0390814
0.0276006
0.0276039
0.0735384
0.118019
0.0600164
0.103333
0.0597691
0.100311
0.0485473
0.0878908
0.187413
0.22136
0.170648
0.203127
0.165082
0.195996
0.150669
0.180236
0.245685
0.210172
0.235135
0.200263
0.216737
0.184383
0.207788
0.176023
0.13866
0.093306
0.1296
0.0845645
0.117563
0.0761402
0.110023
0.0689136
0.0710093
0.0710286
0.062106
0.0621217
0.0559212
0.0559363
0.048505
0.0485169
0.0933607
0.138749
0.0846088
0.129674
0.0761824
0.117632
0.0689471
0.11008
0.210299
0.245852
0.200372
0.23528
0.184485
0.216872
0.176109
0.207904
0.259471
0.223225
0.253626
0.217678
0.228306
0.195274
0.223421
0.190666
0.150766
0.105093
0.145605
0.100062
0.127532
0.0858056
0.123301
0.0816966
0.0829601
0.0829855
0.0778691
0.0778917
0.0657855
0.0658057
0.061603
0.0616208
0.105166
0.150881
0.100126
0.145708
0.0858626
0.127623
0.0817467
0.123382
0.223386
0.259679
0.217823
0.253814
0.195404
0.228475
0.190782
0.223574
0.266667
0.230083
0.263713
0.227264
0.234258
0.200907
0.231826
0.198604
0.157183
0.111353
0.154546
0.108785
0.132731
0.0908534
0.130607
0.0887955
0.0892676
0.0892973
0.0866856
0.0867134
0.0708928
0.0709166
0.0688171
0.0688394
0.111438
0.157318
0.108864
0.154673
0.090921
0.132839
0.0888583
0.130707
0.230271
0.266907
0.227441
0.263939
0.201058
0.234453
0.198745
0.232009
0.269984
0.233262
0.268697
0.232027
0.236955
0.20347
0.235916
0.202481
0.160173
0.114263
0.159013
0.113138
0.135105
0.0931467
0.134192
0.0922684
0.0921835
0.0922161
0.0910585
0.0910898
0.0731934
0.0732195
0.0723157
0.0723409
0.114357
0.160322
0.113227
0.159156
0.0932209
0.135222
0.0923397
0.134305
0.233468
0.270245
0.232225
0.268949
0.203635
0.237167
0.20264
0.23612
0.271206
0.234456
0.270796
0.234051
0.237921
0.204404
0.237603
0.204093
0.161316
0.11538
0.160927
0.115
0.135983
0.0939962
0.13569
0.093714
0.0932995
0.0933335
0.0929203
0.0929538
0.0740407
0.074068
0.0737606
0.0737874
0.115478
0.161472
0.115096
0.16108
0.0940738
0.136106
0.0937902
0.135811
0.234671
0.271479
0.234262
0.271064
0.204577
0.238143
0.204263
0.237821
0.271394
0.234675
0.271405
0.234666
0.238047
0.204553
0.238067
0.204558
0.161563
0.115642
0.161537
0.115605
0.13615
0.0941738
0.136143
0.0941594
0.0935702
0.0936049
0.0935285
0.093563
0.0742242
0.0742519
0.0742064
0.074234
0.115742
0.161722
0.115704
0.161694
0.0942527
0.136276
0.0942378
0.136268
0.234894
0.271672
0.234884
0.271681
0.204728
0.238272
0.204733
0.238291
0.271147
0.234495
0.271326
0.234637
0.237818
0.204382
0.237978
0.20451
0.161451
0.115566
0.161555
0.115649
0.13604
0.0940968
0.136135
0.0941718
0.0935083
0.0935431
0.0935843
0.0936191
0.0741589
0.0741867
0.0742271
0.0742549
0.115666
0.16161
0.115749
0.161714
0.094176
0.136166
0.0942509
0.13626
0.234715
0.271427
0.234857
0.271605
0.204559
0.238044
0.204686
0.238204
0.270676
0.23411
0.270951
0.23434
0.237406
0.204048
0.237645
0.204246
0.161159
0.11533
0.161344
0.115487
0.135787
0.0938926
0.135945
0.094027
0.0932976
0.0933324
0.0934419
0.0934767
0.0739756
0.0740034
0.0740997
0.0741275
0.11543
0.161319
0.115587
0.161503
0.0939717
0.135913
0.0941062
0.136071
0.23433
0.270955
0.23456
0.271231
0.204224
0.237632
0.204423
0.237871
0.270086
0.233622
0.270414
0.233897
0.236894
0.203629
0.237178
0.203865
0.16078
0.115014
0.161003
0.115206
0.135463
0.0936247
0.135652
0.0937869
0.0930077
0.0930424
0.0931873
0.0932221
0.0737303
0.073758
0.073882
0.0739098
0.115113
0.160938
0.115306
0.161162
0.0937035
0.135589
0.0938658
0.135778
0.233841
0.270364
0.234117
0.270692
0.203805
0.237119
0.204041
0.237404
0.269413
0.233066
0.269779
0.233372
0.236309
0.203152
0.236627
0.203414
0.160344
0.114648
0.160592
0.114863
0.135093
0.0933163
0.135304
0.093497
0.0926715
0.092706
0.0928721
0.0929067
0.0734469
0.0734745
0.0736161
0.0736437
0.114747
0.160502
0.114962
0.16075
0.0933947
0.135218
0.0935756
0.135429
0.233284
0.26969
0.233591
0.270056
0.203326
0.236534
0.203589
0.236852
0.26867
0.232453
0.26907
0.232787
0.235663
0.202626
0.236011
0.202912
0.159863
0.114243
0.160133
0.114476
0.134684
0.0929745
0.134913
0.0931713
0.0922982
0.0923325
0.0925166
0.092551
0.0731321
0.0731595
0.0733165
0.073344
0.114342
0.160019
0.114575
0.16029
0.0930524
0.134808
0.0932495
0.135038
0.23267
0.268946
0.233004
0.269346
0.2028
0.235886
0.203086
0.236234
0.267857
0.231785
0.268292
0.232146
0.234953
0.202051
0.235333
0.202361
0.159337
0.1138
0.15963
0.114052
0.134237
0.0926002
0.134485
0.0928131
0.0918896
0.0919238
0.0921254
0.0921597
0.0727869
0.0728141
0.0729863
0.0730137
0.113898
0.159493
0.11415
0.159786
0.0926776
0.13436
0.0928908
0.134609
0.232001
0.268131
0.232362
0.268566
0.202224
0.235175
0.202534
0.235555
0.266973
0.231062
0.267443
0.23145
0.23418
0.201428
0.234591
0.201762
0.158768
0.113319
0.159082
0.11359
0.133752
0.0921929
0.134019
0.0924223
0.0914452
0.091479
0.0916988
0.0917328
0.0724104
0.0724375
0.0726254
0.0726526
0.113416
0.158923
0.113688
0.159237
0.0922697
0.133874
0.0924994
0.134142
0.231275
0.267245
0.231665
0.267716
0.201599
0.2344
0.201934
0.234812
0.266014
0.230279
0.266522
0.230697
0.233339
0.200752
0.233784
0.201113
0.158152
0.112798
0.158489
0.113089
0.133226
0.0917509
0.133514
0.0919977
0.0909631
0.0909967
0.0912355
0.0912693
0.0720013
0.0720282
0.0722327
0.0722596
0.112894
0.158305
0.113186
0.158643
0.0918271
0.133347
0.0920742
0.133635
0.230491
0.266284
0.23091
0.266793
0.200922
0.233557
0.201283
0.234003
0.264976
0.229434
0.265524
0.229883
0.232428
0.200023
0.232908
0.200411
0.157486
0.112235
0.157848
0.112547
0.132658
0.0912726
0.132967
0.0915376
0.0904414
0.0904748
0.0907337
0.0907672
0.071558
0.0715846
0.0718065
0.0718332
0.11233
0.157638
0.112643
0.158001
0.0913481
0.132778
0.0916134
0.133088
0.229644
0.265244
0.230095
0.265793
0.200192
0.232645
0.20058
0.233126
0.263856
0.228524
0.264444
0.229005
0.231443
0.199237
0.23196
0.199653
0.156769
0.111627
0.157157
0.111961
0.132045
0.0907563
0.132376
0.0910402
0.0898785
0.0899116
0.0901913
0.0902245
0.0710789
0.0711052
0.0713452
0.0713717
0.111722
0.15692
0.112056
0.157308
0.0908311
0.132164
0.0911154
0.132496
0.228732
0.264122
0.229215
0.264711
0.199404
0.231658
0.199821
0.232176
0.262652
0.227548
0.263283
0.228062
0.230384
0.198394
0.230938
0.198838
0.155999
0.110974
0.156413
0.111331
0.131387
0.0902009
0.131741
0.0905042
0.0892727
0.0893055
0.0896068
0.0896398
0.0705628
0.0705889
0.0708475
0.0708738
0.111068
0.156148
0.111425
0.156563
0.0902749
0.131505
0.0905787
0.131859
0.227754
0.262916
0.22827
0.263547
0.198559
0.230597
0.199005
0.231152
0.261362
0.226504
0.262036
0.227053
0.229248
0.197492
0.22984
0.197965
0.155175
0.110274
0.155616
0.110654
0.130682
0.0896053
0.131059
0.0899286
0.088623
0.0886555
0.0889789
0.0890116
0.0700088
0.0700347
0.0703123
0.0703383
0.110367
0.155323
0.110748
0.155765
0.0896786
0.130799
0.0900023
0.131176
0.226709
0.261623
0.227258
0.262298
0.197655
0.229459
0.19813
0.230052
0.259985
0.22539
0.260701
0.225974
0.228034
0.19653
0.228665
0.197033
0.154296
0.109527
0.154764
0.10993
0.12993
0.0889693
0.130331
0.0893126
0.0879288
0.087961
0.0883067
0.088339
0.0694166
0.0694421
0.069739
0.0697647
0.109619
0.154442
0.110023
0.154911
0.0890417
0.130045
0.0893854
0.130446
0.225593
0.260243
0.226177
0.260961
0.196692
0.228243
0.197196
0.228875
0.258524
0.22421
0.259281
0.224825
0.226742
0.195509
0.227412
0.196042
0.153363
0.108733
0.153857
0.109159
0.129131
0.088293
0.129555
0.0886562
0.0871902
0.087222
0.0875899
0.0876219
0.0687861
0.0688114
0.0691274
0.0691528
0.108824
0.153507
0.109251
0.154003
0.0883645
0.129245
0.0887281
0.129669
0.22441
0.258779
0.225026
0.259538
0.195669
0.226949
0.196203
0.22762
0.256979
0.222969
0.257778
0.223614
0.225377
0.194425
0.226083
0.194989
0.152378
0.107893
0.152898
0.108342
0.128286
0.0875768
0.128732
0.0879595
0.0864076
0.086439
0.0868289
0.0868605
0.0681178
0.0681427
0.0684777
0.0685028
0.107983
0.15252
0.108432
0.153042
0.0876473
0.128398
0.0880305
0.128845
0.223167
0.257232
0.223813
0.258032
0.194583
0.225581
0.195148
0.226288
0.255352
0.221662
0.256192
0.22234
0.223941
0.193286
0.224681
0.193876
0.15134
0.107007
0.151886
0.107479
0.127395
0.0868221
0.127864
0.0872236
0.0855818
0.0856128
0.0860241
0.0860553
0.0674128
0.0674374
0.0677905
0.0678153
0.107096
0.151481
0.107568
0.152028
0.0868915
0.127506
0.0872936
0.127975
0.221857
0.255601
0.222536
0.256442
0.193442
0.224142
0.194033
0.224884
0.253649
0.220293
0.254525
0.221001
0.222438
0.192095
0.223211
0.19271
0.150253
0.106078
0.150823
0.106571
0.126463
0.0860311
0.126952
0.0864501
0.084715
0.0847455
0.0851772
0.0852079
0.066673
0.0666973
0.0670676
0.067092
0.106166
0.150391
0.106658
0.150963
0.0860994
0.126572
0.086519
0.127061
0.220485
0.253895
0.221194
0.254773
0.192249
0.222637
0.192865
0.223411
0.251876
0.218867
0.252786
0.219602
0.220876
0.190857
0.221677
0.191495
0.14912
0.10511
0.149712
0.105621
0.125493
0.0852068
0.126
0.0856418
0.0838101
0.0838402
0.0842906
0.0843209
0.0659014
0.0659252
0.0663112
0.0663353
0.105195
0.149256
0.105708
0.14985
0.0852741
0.1256
0.0857096
0.126108
0.219057
0.252119
0.219793
0.25303
0.191008
0.221072
0.191647
0.221875
0.250043
0.217391
0.250981
0.21815
0.219261
0.189577
0.220087
0.190235
0.147947
0.104105
0.148558
0.104634
0.124489
0.084353
0.125012
0.084802
0.0828711
0.0829008
0.0833678
0.0833976
0.0651013
0.0651247
0.0655246
0.0655482
0.10419
0.148081
0.104719
0.148693
0.0844191
0.124595
0.0848687
0.125118
0.217578
0.250282
0.218338
0.251222
0.189726
0.219454
0.190385
0.220282
0.248158
0.215871
0.249121
0.216651
0.217601
0.188256
0.218448
0.188934
0.146737
0.10307
0.147366
0.103613
0.123455
0.0834738
0.123992
0.0839345
0.0819026
0.0819318
0.082413
0.0824425
0.0642769
0.0642999
0.0647115
0.0647347
0.103153
0.146869
0.103696
0.147499
0.0835387
0.123559
0.0840001
0.124097
0.216054
0.248393
0.216836
0.249358
0.188402
0.217791
0.189081
0.218639
0.246232
0.214314
0.247213
0.215111
0.215908
0.186906
0.21677
0.187596
0.145499
0.102009
0.146141
0.102564
0.122398
0.0825742
0.122945
0.0830443
0.0809093
0.080938
0.0814312
0.0814601
0.0634327
0.0634554
0.0638764
0.0638992
0.10209
0.145628
0.102646
0.146271
0.0826379
0.122499
0.0831086
0.123048
0.214494
0.246464
0.215293
0.247447
0.18705
0.216094
0.187741
0.216958
0.244271
0.212726
0.245269
0.213538
0.214187
0.185532
0.215062
0.186234
0.144234
0.100925
0.144889
0.101491
0.121321
0.0816575
0.121878
0.0821356
0.0798943
0.0799224
0.0804265
0.0804549
0.0625721
0.0625943
0.0630234
0.0630458
0.101005
0.144361
0.101571
0.145017
0.0817199
0.12142
0.0821987
0.121978
0.212903
0.244499
0.213716
0.245499
0.185673
0.214371
0.186376
0.215247
0.242273
0.211101
0.24329
0.211932
0.212438
0.184132
0.213328
0.184847
0.142939
0.0998153
0.14361
0.100394
0.120221
0.0807226
0.12079
0.0812101
0.078855
0.0788826
0.0793998
0.0794277
0.0616947
0.0617164
0.0621545
0.0621765
0.0998936
0.143064
0.100474
0.143736
0.0807836
0.120319
0.0812718
0.120888
0.211275
0.242497
0.212108
0.243516
0.18427
0.212619
0.184987
0.21351
0.240216
0.209419
0.241267
0.210283
0.210645
0.182687
0.21156
0.183428
0.141595
0.0986626
0.142293
0.0992662
0.119086
0.0797577
0.119675
0.0802623
0.0777761
0.0778031
0.0783436
0.0783709
0.0607904
0.0608117
0.0612655
0.0612871
0.0987392
0.141716
0.0993437
0.142417
0.0798173
0.119181
0.0803227
0.119771
0.209589
0.240436
0.210454
0.241488
0.182822
0.210822
0.183565
0.211738
0.238045
0.207623
0.239162
0.208553
0.208761
0.181155
0.209729
0.181947
0.14015
0.0974222
0.140907
0.0980772
0.117875
0.0787301
0.118509
0.0792717
0.0766151
0.0766414
0.0772308
0.0772575
0.0598292
0.0598499
0.0603381
0.0603591
0.0974968
0.140269
0.0981528
0.141027
0.0787881
0.117968
0.0793306
0.118602
0.207789
0.238259
0.208721
0.239379
0.181287
0.208934
0.182081
0.209904
0.235644
0.205606
0.236894
0.206664
0.206692
0.179445
0.207768
0.18034
0.138506
0.0960006
0.139379
0.0967614
0.116511
0.0775685
0.117234
0.0781888
0.0752811
0.0753066
0.0759981
0.0760241
0.0587427
0.0587627
0.0593255
0.0593459
0.0960728
0.138621
0.0968348
0.139496
0.0776245
0.116601
0.0782459
0.117325
0.205766
0.235852
0.206827
0.237105
0.179573
0.20686
0.18047
0.207938
0.232822
0.203176
0.234312
0.20447
0.204274
0.177399
0.20555
0.178487
0.136482
0.0942266
0.137574
0.0951905
0.114848
0.0761376
0.115744
0.0769142
0.0736078
0.0736322
0.0745204
0.0745454
0.0574002
0.0574194
0.0581318
0.0581515
0.0942958
0.136592
0.0952613
0.137686
0.0761912
0.114933
0.0769691
0.115831
0.20333
0.233023
0.204627
0.234517
0.177523
0.204436
0.178613
0.205715
0.229304
0.200009
0.231179
0.201724
0.201257
0.174738
0.202868
0.17618
0.133755
0.0918119
0.135251
0.0931406
0.112615
0.0741986
0.113841
0.0752671
0.0713324
0.0713556
0.072584
0.0726079
0.0555836
0.0556017
0.0565847
0.0566034
0.0918773
0.13386
0.0932081
0.135358
0.0742492
0.112696
0.0753193
0.113925
0.200157
0.229497
0.201875
0.231376
0.174855
0.201413
0.176301
0.203027
0.224959
0.195371
0.227217
0.19797
0.197448
0.170777
0.199447
0.17301
0.129661
0.0883033
0.131962
0.0902454
0.109219
0.0713502
0.111137
0.0729343
0.0681332
0.0681548
0.0698838
0.0699063
0.0530066
0.0530234
0.0544226
0.0544401
0.0883642
0.129759
0.0903087
0.132063
0.0713969
0.109294
0.0729831
0.111216
0.195511
0.225144
0.198114
0.227405
0.170888
0.197597
0.173125
0.199599
0.222399
0.185492
0.223007
0.191804
0.194804
0.16203
0.19563