/*--------------------------------*- C++ -*----------------------------------*\
  =========                 |
  \\      /  F ield         | OpenFOAM: The Open Source CFD Toolbox
   \\    /   O peration     | Website:  https://openfoam.org
    \\  /    A nd           | Version:  9
     \\/     M anipulation  |
\*---------------------------------------------------------------------------*/
FoamFile
{
    format      ascii;
    class       volVectorField;
    location    "2.05";
    object      U;
}
// * * * * * * * * * * * * * * * * * * * * * * * * * * * * * * * * * * * * * //

dimensions      [0 1 -1 0 0 0 0];

internalField   nonuniform List<vector> 
36360
(
(0.00175078 -0.122347 -0.498707)
(-0.000332898 -0.0911691 0.000152274)
(0.00126325 -0.125477 -0.500992)
(-0.0017142 -0.0828157 7.35351e-05)
(0.000506467 -0.128916 -0.501128)
(0.00860771 -0.0819409 1.08e-05)
(0.00259916 -0.132071 -0.502037)
(0.00975714 -0.0892024 1.45311e-05)
(0.000491246 -0.099716 -9.25954e-05)
(-0.00233202 -0.104222 -5.2345e-06)
(-0.00196935 -0.097652 -4.99654e-05)
(-0.00315512 -0.102256 -2.37596e-06)
(0.00619282 -0.10526 -5.65476e-07)
(0.00443827 -0.106713 -5.66277e-06)
(0.0073913 -0.109799 -1.67737e-05)
(0.00658021 -0.109171 -4.329e-06)
(-0.00270386 -0.105529 -1.43046e-08)
(-0.0027039 -0.105528 1.23628e-08)
(-0.00302578 -0.103531 1.79233e-08)
(-0.00302568 -0.103531 -1.85982e-08)
(0.00460136 -0.105238 -1.844e-06)
(0.00460141 -0.105236 1.84155e-06)
(0.0065786 -0.107807 -4.30868e-07)
(0.00657853 -0.107806 4.29781e-07)
(-0.00233238 -0.104219 5.23199e-06)
(0.000491913 -0.0997103 9.25943e-05)
(-0.00315522 -0.102254 2.37638e-06)
(-0.00196899 -0.0976465 4.99674e-05)
(0.0044383 -0.10671 5.6584e-06)
(0.00619343 -0.105252 5.4359e-07)
(0.00658018 -0.109167 4.32809e-06)
(0.00739147 -0.109792 1.67686e-05)
(-0.000333473 -0.0911651 -0.000152316)
(0.00175107 -0.122354 0.498706)
(-0.00171405 -0.0828099 -7.35653e-05)
(0.00126422 -0.125485 0.500992)
(0.00860825 -0.0819285 -1.07693e-05)
(0.000507655 -0.128934 0.501128)
(0.00975759 -0.0891912 -1.45187e-05)
(0.0026015 -0.132091 0.502037)
(0.00424663 -0.119071 -0.496931)
(-0.00320748 -0.096858 0.000163359)
(0.00336935 -0.120968 -0.497865)
(-0.00144371 -0.0943965 0.000168284)
(0.00113946 -0.12577 -0.501099)
(0.000905493 -0.0765783 -4.57052e-05)
(0.00059306 -0.127704 -0.501312)
(0.00450294 -0.0766019 -1.2503e-05)
(0.00201064 -0.101357 -7.36832e-05)
(0.000694231 -0.10515 -1.17489e-05)
(0.00206406 -0.100729 -8.81865e-05)
(-0.000273265 -0.105002 -7.99261e-06)
(0.00445672 -0.0962039 7.84404e-05)
(0.00248773 -0.103402 -9.40098e-06)
(0.00586365 -0.0998315 3.43444e-05)
(0.00320806 -0.10485 -7.66908e-06)
(-0.000726216 -0.107122 -2.51395e-06)
(-0.000726522 -0.107121 2.51282e-06)
(-0.00177415 -0.106814 -1.13924e-06)
(-0.00177454 -0.106813 1.13684e-06)
(0.00181703 -0.103438 -3.65491e-06)
(0.00181696 -0.103437 3.65422e-06)
(0.00323338 -0.103736 -3.05381e-06)
(0.00323348 -0.103735 3.05135e-06)
(0.000694356 -0.105146 1.17347e-05)
(0.00201079 -0.101352 7.3651e-05)
(-0.000273437 -0.104999 7.98467e-06)
(0.0020645 -0.100724 8.81722e-05)
(0.00248777 -0.103399 9.38739e-06)
(0.00445727 -0.0961952 -7.85199e-05)
(0.00320807 -0.104847 7.6602e-06)
(0.0058645 -0.0998233 -3.4393e-05)
(-0.00320963 -0.0968549 -0.000163346)
(0.00424762 -0.119078 0.496929)
(-0.00144532 -0.0943933 -0.000168301)
(0.00337006 -0.120975 0.497863)
(0.000904003 -0.0765678 4.58185e-05)
(0.00114093 -0.125787 0.501099)
(0.0045024 -0.0765905 1.25699e-05)
(0.000594354 -0.127721 0.501312)
(0.00491035 -0.115719 -0.495696)
(-0.00536006 -0.0993387 0.000123233)
(0.00468809 -0.117269 -0.496213)
(-0.00449567 -0.0982765 0.000146986)
(0.00195236 -0.121095 -0.500847)
(-0.00223347 -0.079729 -0.000129522)
(0.00163295 -0.123433 -0.50095)
(-0.00113182 -0.077691 -8.61038e-05)
(0.0010342 -0.101477 -2.01802e-05)
(0.000792644 -0.104939 -1.3105e-05)
(0.00153739 -0.101503 -4.91138e-05)
(0.000891794 -0.105104 -1.39014e-05)
(0.00214117 -0.0920148 0.000176563)
(0.00117763 -0.100304 -6.77808e-06)
(0.00305336 -0.0935602 0.000127918)
(0.00181467 -0.101637 -9.13675e-06)
(0.000177384 -0.106805 -5.45172e-06)
(0.000177376 -0.106803 5.48015e-06)
(-3.92555e-05 -0.107054 -3.97758e-06)
(-3.9255e-05 -0.107053 3.97958e-06)
(0.000542245 -0.102493 -5.37539e-06)
(0.000542206 -0.102493 5.39189e-06)
(0.000915654 -0.103001 -4.4362e-06)
(0.000915468 -0.103 4.44079e-06)
(0.00079291 -0.104936 1.31546e-05)
(0.00103409 -0.101472 2.01322e-05)
(0.000892016 -0.1051 1.38894e-05)
(0.00153719 -0.101498 4.90743e-05)
(0.00117791 -0.100301 6.76862e-06)
(0.00214133 -0.0920065 -0.000176702)
(0.00181488 -0.101634 9.12182e-06)
(0.00305362 -0.0935516 -0.000128028)
(-0.00536258 -0.099336 -0.000123186)
(0.00491204 -0.115725 0.495693)
(-0.0044981 -0.0982736 -0.000146949)
(0.00468938 -0.117276 0.49621)
(-0.00223561 -0.0797208 0.000129738)
(0.00195432 -0.121111 0.500846)
(-0.00113369 -0.0776817 8.62684e-05)
(0.00163462 -0.123449 0.500949)
(0.00512114 -0.113209 -0.494947)
(-0.00616935 -0.101012 6.48947e-05)
(0.00503876 -0.114376 -0.495255)
(-0.0058876 -0.100233 9.51054e-05)
(0.00225031 -0.116696 -0.500705)
(-0.00305211 -0.084507 -0.00021559)
(0.00214312 -0.118831 -0.500763)
(-0.00280446 -0.0821106 -0.000173228)
(0.000367749 -0.101466 3.61994e-05)
(0.00046142 -0.104413 -2.94231e-06)
(0.000635782 -0.101436 8.99565e-06)
(0.000606663 -0.104666 -9.24841e-06)
(0.00121651 -0.0910224 0.000261106)
(0.00051998 -0.098882 3.90713e-06)
(0.00157557 -0.0912617 0.00022141)
(0.000757111 -0.0994369 -2.31174e-06)
(0.000140823 -0.106193 -6.72211e-06)
(0.000140958 -0.106192 6.71657e-06)
(0.00018043 -0.106493 -6.40215e-06)
(0.000180551 -0.106492 6.40904e-06)
(0.000139977 -0.101915 -6.49208e-06)
(0.000140126 -0.101915 6.48776e-06)
(0.00029596 -0.102124 -6.13949e-06)
(0.000296091 -0.102123 6.14574e-06)
(0.000461643 -0.10441 2.9022e-06)
(0.000367505 -0.101462 -3.62769e-05)
(0.000606886 -0.104663 9.2347e-06)
(0.000635541 -0.101432 -9.05484e-06)
(0.000520249 -0.0988784 -3.9529e-06)
(0.00121651 -0.091015 -0.00026132)
(0.00075737 -0.0994335 2.28394e-06)
(0.00157569 -0.0912538 -0.000221586)
(-0.00617219 -0.10101 -6.47733e-05)
(0.00512358 -0.113214 0.494942)
(-0.00589029 -0.100231 -9.50109e-05)
(0.00504082 -0.114382 0.495252)
(-0.00305476 -0.0845005 0.000215908)
(0.0022529 -0.11671 0.500704)
(-0.00280687 -0.0821033 0.000173497)
(0.0021454 -0.118846 0.500763)
(0.00522764 -0.111288 -0.49447)
(-0.00630064 -0.102266 4.57211e-06)
(0.00518365 -0.112187 -0.494658)
(-0.0062884 -0.101687 3.43304e-05)
(0.00232975 -0.112899 -0.500616)
(-0.00311157 -0.0887424 -0.00029259)
(0.002309 -0.114717 -0.500652)
(-0.00313131 -0.086742 -0.000255573)
(0.0001273 -0.101734 8.17198e-05)
(0.000329748 -0.104039 1.30822e-05)
(0.000208221 -0.101574 6.05448e-05)
(0.000373183 -0.104203 4.74538e-06)
(0.000858587 -0.091397 0.000323747)
(0.000343219 -0.0982092 1.9488e-05)
(0.000992474 -0.0911162 0.00029516)
(0.000400187 -0.0984997 1.13573e-05)
(0.00014291 -0.105691 -5.71415e-06)
(0.000143031 -0.10569 5.69289e-06)
(0.000125778 -0.105925 -6.4795e-06)
(0.000125912 -0.105923 6.46547e-06)
(7.56818e-05 -0.101664 -5.65827e-06)
(7.58055e-05 -0.101663 5.6382e-06)
(8.1583e-05 -0.101783 -6.32257e-06)
(8.17073e-05 -0.101782 6.30935e-06)
(0.000329967 -0.104035 -1.31514e-05)
(0.000127079 -0.10173 -8.18157e-05)
(0.000373409 -0.1042 -4.80164e-06)
(0.000207991 -0.10157 -6.06338e-05)
(0.000343462 -0.0982053 -1.95643e-05)
(0.000858534 -0.0913905 -0.00032402)
(0.000400479 -0.0984959 -1.142e-05)
(0.000992435 -0.0911093 -0.000295406)
(-0.00630387 -0.102264 -4.40535e-06)
(0.00523066 -0.111293 0.494465)
(-0.00629142 -0.101685 -3.41863e-05)
(0.0051864 -0.112193 0.494654)
(-0.00311485 -0.0887374 0.000293005)
(0.00233282 -0.112911 0.500615)
(-0.00313429 -0.0867363 0.00025594)
(0.00231185 -0.11473 0.500651)
(0.00527905 -0.109769 -0.494162)
(-0.00617167 -0.103143 -4.99434e-05)
(0.00526137 -0.110488 -0.494274)
(-0.00625369 -0.102751 -2.36567e-05)
(0.00230861 -0.109711 -0.500556)
(-0.00295004 -0.0919393 -0.000356729)
(0.00232979 -0.111232 -0.500578)
(-0.00304616 -0.0904757 -0.000326315)
(9.47367e-05 -0.102104 0.000114667)
(0.000317151 -0.103809 2.98639e-05)
(9.58013e-05 -0.101918 9.96778e-05)
(0.000315103 -0.103912 2.15715e-05)
(0.000752738 -0.0922095 0.000366328)
(0.000299989 -0.0977622 3.61061e-05)
(0.000784187 -0.0917825 0.000347263)
(0.000314808 -0.0979716 2.78491e-05)
(0.0002223 -0.105294 -3.03667e-06)
(0.000222381 -0.105293 3.00483e-06)
(0.000179101 -0.105484 -4.53082e-06)
(0.000179203 -0.105483 4.50416e-06)
(0.000125767 -0.101349 -3.15807e-06)
(0.000125852 -0.101348 3.12715e-06)
(9.65389e-05 -0.101525 -4.57206e-06)
(9.66472e-05 -0.101524 4.54637e-06)
(0.000317332 -0.103805 -2.99542e-05)
(9.45251e-05 -0.102101 -0.000114774)
(0.000315303 -0.103908 -2.1652e-05)
(9.5583e-05 -0.101915 -9.97797e-05)
(0.000300119 -0.0977582 -3.62054e-05)
(0.000752727 -0.0922041 -0.000366645)
(0.000314992 -0.0979676 -2.79376e-05)
(0.000784135 -0.0917766 -0.00034756)
(-0.00617532 -0.103141 5.01575e-05)
(0.00528247 -0.109772 0.494156)
(-0.00625713 -0.10275 2.3847e-05)
(0.00526461 -0.110492 0.494268)
(-0.00295381 -0.0919358 0.000357232)
(0.00231201 -0.109721 0.500554)
(-0.0030497 -0.0904714 0.000326775)
(0.00233305 -0.111244 0.500577)
(0.00528343 -0.108513 -0.49395)
(-0.00597904 -0.103667 -9.58681e-05)
(0.00528789 -0.109114 -0.494018)
(-0.00607841 -0.103446 -7.40268e-05)
(0.00223603 -0.107065 -0.500512)
(-0.00274536 -0.0941405 -0.000408013)
(0.00227859 -0.108325 -0.500528)
(-0.00284964 -0.0931542 -0.000383889)
(0.000129672 -0.102426 0.000136734)
(0.000335794 -0.103629 4.50339e-05)
(0.000107643 -0.102277 0.0001269)
(0.000325622 -0.103717 3.77276e-05)
(0.000765859 -0.0930537 0.000393366)
(0.000278285 -0.0973916 5.14696e-05)
(0.000748476 -0.0926407 0.000381485)
(0.00028905 -0.0975704 4.40313e-05)
(0.000301025 -0.104936 6.0175e-07)
(0.000301082 -0.104935 -6.44936e-07)
(0.000263961 -0.105113 -1.30408e-06)
(0.00026403 -0.105112 1.2669e-06)
(0.000171796 -0.100903 3.20217e-07)
(0.000171846 -0.100902 -3.62299e-07)
(0.000151513 -0.101139 -1.49884e-06)
(0.000151577 -0.101138 1.46305e-06)
(0.000335917 -0.103626 -4.51376e-05)
(0.000129455 -0.102423 -0.000136843)
(0.000325775 -0.103714 -3.78259e-05)
(0.000107439 -0.102274 -0.00012701)
(0.000278275 -0.0973878 -5.15814e-05)
(0.00076608 -0.0930493 -0.000393704)
(0.00028912 -0.0975665 -4.4139e-05)
(0.000748566 -0.0926358 -0.000381816)
(-0.00598302 -0.103666 9.61295e-05)
(0.00528711 -0.108516 0.493943)
(-0.00608225 -0.103445 7.42648e-05)
(0.00529145 -0.109117 0.494012)
(-0.00274948 -0.0941383 0.000408591)
(0.00223962 -0.107074 0.500511)
(-0.00285362 -0.0931514 0.000384431)
(0.00228211 -0.108334 0.500526)
(0.00525997 -0.107433 -0.493792)
(-0.00579298 -0.103892 -0.000132985)
(0.00527536 -0.107955 -0.493838)
(-0.00588519 -0.103813 -0.000115447)
(0.00214583 -0.104883 -0.500478)
(-0.00256303 -0.0955388 -0.000448262)
(0.00219337 -0.105922 -0.50049)
(-0.00265267 -0.0949267 -0.000429317)
(0.000189857 -0.102625 0.000150361)
(0.000352569 -0.103446 5.77357e-05)
(0.00015662 -0.102545 0.000144417)
(0.0003446 -0.103538 5.16855e-05)
(0.000841902 -0.0937792 0.000409611)
(0.00024363 -0.097072 6.47856e-05)
(0.000796749 -0.0934374 0.000402511)
(0.000263791 -0.0972255 5.83424e-05)
(0.000358255 -0.104572 4.64991e-06)
(0.00035833 -0.104571 -4.74132e-06)
(0.000332218 -0.104756 2.63001e-06)
(0.000332274 -0.104755 -2.68596e-06)
(0.000199931 -0.100371 3.89704e-06)
(0.000199996 -0.10037 -4.4107e-06)
(0.000187693 -0.100644 2.20435e-06)
(0.00018774 -0.100643 -2.28971e-06)
(0.000352765 -0.103443 -5.78215e-05)
(0.000189509 -0.102623 -0.000150449)
(0.000344689 -0.103536 -5.17874e-05)
(0.000156388 -0.102542 -0.000144519)
(0.000243525 -0.0970691 -6.44702e-05)
(0.000842326 -0.0937752 -0.000409497)
(0.000263648 -0.0972218 -5.84214e-05)
(0.000797164 -0.0934336 -0.00040281)
(-0.00579718 -0.103891 0.000133257)
(0.00526378 -0.107436 0.493784)
(-0.00588929 -0.103812 0.000115726)
(0.00527912 -0.107958 0.493831)
(-0.00256729 -0.0955376 0.00044854)
(0.00214948 -0.104889 0.500477)
(-0.00265688 -0.0949251 0.00042991)
(0.00219702 -0.105929 0.500488)
(0.00523067 -0.10647 -0.493655)
(-0.00562857 -0.103883 -0.000162567)
(0.00524667 -0.10694 -0.493691)
(-0.00571 -0.103913 -0.000148584)
(0.00205875 -0.103074 -0.500448)
(-0.00241057 -0.0963386 -0.000479556)
(0.00210269 -0.103937 -0.500457)
(-0.00248635 -0.0960026 -0.000464054)
(0.00026502 -0.102676 0.000158135)
(0.0003728 -0.103236 6.81948e-05)
(0.000225133 -0.102667 0.000154696)
(0.000361614 -0.103347 6.31035e-05)
(0.000932596 -0.0943199 0.000418792)
(0.000212103 -0.0967923 7.59452e-05)
(0.000887484 -0.0940739 0.000413585)
(0.000225942 -0.09693 6.94081e-05)
(0.000400574 -0.104184 8.3584e-06)
(0.000400694 -0.104183 -8.53124e-06)
(0.000380715 -0.104382 6.66167e-06)
(0.000380659 -0.104381 -6.59281e-06)
(0.00021771 -0.0997958 7.05381e-06)
(0.000217806 -0.0997948 -8.49957e-06)
(0.000210073 -0.100087 6.69837e-06)
(0.000210017 -0.100086 -5.31297e-06)
(0.000373246 -0.103234 -6.81665e-05)
(0.00026437 -0.102674 -0.000158085)
(0.000361191 -0.103345 -6.34129e-05)
(0.000225413 -0.102665 -0.000155045)
(0.000212284 -0.0967893 -7.46176e-05)
(0.000932697 -0.0943173 -0.000417585)
(0.000225287 -0.0969266 -7.11219e-05)
(0.000888493 -0.094071 -0.000415646)
(-0.00563297 -0.103882 0.000162849)
(0.00523447 -0.106472 0.493647)
(-0.00571404 -0.103913 0.000148949)
(0.00525064 -0.106942 0.493683)
(-0.00241488 -0.0963386 0.000479222)
(0.00206238 -0.10308 0.500446)
(-0.00249048 -0.0960021 0.000465754)
(0.00210649 -0.103943 0.500457)
(0.00521282 -0.105577 -0.493528)
(-0.00548605 -0.103686 -0.000185705)
(0.00522156 -0.106018 -0.493562)
(-0.00555667 -0.103805 -0.000174808)
(0.00198939 -0.101544 -0.500421)
(-0.00228421 -0.0967011 -0.00050297)
(0.00202407 -0.10228 -0.500429)
(-0.00234712 -0.0965668 -0.000491422)
(0.000347713 -0.102598 0.000161482)
(0.000406205 -0.102967 7.63962e-05)
(0.000304718 -0.102653 0.000160167)
(0.000387828 -0.10311 7.24319e-05)
(0.00100876 -0.0946711 0.000422023)
(0.000196731 -0.0965154 8.37185e-05)
(0.000970933 -0.0945193 0.000419945)
(0.000202597 -0.0966555 7.92315e-05)
(0.000437767 -0.103757 1.1745e-05)
(0.000437786 -0.103757 -1.1703e-05)
(0.000419277 -0.103976 1.01609e-05)
(0.000419236 -0.103975 -1.01256e-05)
(0.000228258 -0.0991974 1.07927e-05)
(0.000228238 -0.0991965 -1.12007e-05)
(0.000223256 -0.0994986 9.80766e-06)
(0.000223215 -0.0994978 -9.08345e-06)
(0.000406341 -0.102965 -7.62782e-05)
(0.000347414 -0.102597 -0.000161814)
(0.000387605 -0.103108 -7.26241e-05)
(0.000304783 -0.102651 -0.000160396)
(0.000196735 -0.0965129 -8.34512e-05)
(0.00100915 -0.0946691 -0.000421994)
(0.000202176 -0.0966532 -8.01733e-05)
(0.000971655 -0.0945165 -0.000421172)
(-0.00549036 -0.103685 0.000186014)
(0.00521669 -0.105578 0.49352)
(-0.00556085 -0.103805 0.000175201)
(0.00522547 -0.106019 0.493554)
(-0.0022883 -0.0967015 0.000503394)
(0.00199307 -0.101549 0.500419)
(-0.00235116 -0.0965669 0.000492711)
(0.00202778 -0.102284 0.500428)
(0.00521238 -0.104714 -0.493404)
(-0.0053579 -0.103336 -0.000203628)
(0.00521181 -0.105144 -0.493433)
(-0.00542197 -0.103529 -0.000195152)
(0.00193874 -0.100208 -0.500395)
(-0.00217975 -0.0967367 -0.000521345)
(0.00196379 -0.100856 -0.500402)
(-0.00223144 -0.0967544 -0.000512345)
(0.00043656 -0.102392 0.000162562)
(0.000454734 -0.102628 8.24555e-05)
(0.000390809 -0.102511 0.000162399)
(0.000428498 -0.102807 7.94302e-05)
(0.00107888 -0.0948377 0.000422993)
(0.000195894 -0.0962103 9.04143e-05)
(0.00104367 -0.0947769 0.000422324)
(0.000194488 -0.096368 8.66357e-05)
(0.000477213 -0.103282 1.4434e-05)
(0.000477332 -0.103282 -1.45634e-05)
(0.00045687 -0.103527 1.31028e-05)
(0.000456811 -0.103526 -1.32506e-05)
(0.000237376 -0.0985785 1.32886e-05)
(0.000237521 -0.0985781 -1.41748e-05)
(0.000232653 -0.0988909 1.26017e-05)
(0.000232686 -0.09889 -1.22655e-05)
(0.000454904 -0.102626 -8.24546e-05)
(0.000436068 -0.10239 -0.000162619)
(0.000428407 -0.102805 -7.9823e-05)
(0.000390778 -0.10251 -0.000162312)
(0.000195844 -0.0962085 -8.92248e-05)
(0.00107909 -0.0948359 -0.000422677)
(0.000194087 -0.0963658 -8.7261e-05)
(0.00104427 -0.0947754 -0.000423087)
(-0.00536229 -0.103336 0.000203987)
(0.00521618 -0.104715 0.493396)
(-0.0054262 -0.103528 0.000195627)
(0.00521569 -0.105145 0.493425)
(-0.00218382 -0.0967374 0.00052133)
(0.00194233 -0.100211 0.500393)
(-0.00223545 -0.0967551 0.000513426)
(0.00196745 -0.10086 0.500401)
(0.00523258 -0.10385 -0.493279)
(-0.00523833 -0.102855 -0.000217525)
(0.00522149 -0.104284 -0.493309)
(-0.0052993 -0.103111 -0.000210936)
(0.00190654 -0.0989919 -0.500369)
(-0.00209498 -0.0965271 -0.00053551)
(0.0019224 -0.0995887 -0.500376)
(-0.00213874 -0.09666 -0.000527806)
(0.000530162 -0.102057 0.000162007)
(0.000517766 -0.102205 8.68722e-05)
(0.000481699 -0.10224 0.000162299)
(0.000484591 -0.102428 8.46833e-05)
(0.00114421 -0.0948248 0.000422047)
(0.000208015 -0.0958525 9.54022e-05)
(0.00111218 -0.0948515 0.000421814)
(0.000200681 -0.0960396 9.11979e-05)
(0.000525426 -0.102747 1.6653e-05)
(0.000525671 -0.102746 -1.6822e-05)
(0.000500147 -0.103023 1.5679e-05)
(0.000499826 -0.103022 -1.56819e-05)
(0.000248833 -0.0979285 1.52879e-05)
(0.000249105 -0.0979281 -1.66193e-05)
(0.000242872 -0.0982581 1.54362e-05)
(0.000242608 -0.0982573 -1.43852e-05)
(0.000517953 -0.102204 -8.68512e-05)
(0.000529482 -0.102056 -0.000161985)
(0.000484455 -0.102426 -8.50103e-05)
(0.000482047 -0.102239 -0.000162549)
(0.000207967 -0.095851 -9.32534e-05)
(0.00114426 -0.0948238 -0.000421525)
(0.000200341 -0.0960379 -9.33499e-05)
(0.00111316 -0.0948506 -0.000423072)
(-0.00524278 -0.102855 0.000217868)
(0.00523631 -0.10385 0.49327)
(-0.0053034 -0.103111 0.000211432)
(0.00522539 -0.104284 0.493301)
(-0.00209904 -0.096528 0.000535002)
(0.00191007 -0.0989944 0.500367)
(-0.00214257 -0.096661 0.00052968)
(0.00192606 -0.0995915 0.500375)
(0.00527283 -0.102957 -0.493151)
(-0.0051226 -0.102254 -0.000228279)
(0.00525184 -0.103409 -0.49318)
(-0.00518178 -0.102569 -0.000223133)
(0.00188997 -0.0978392 -0.500345)
(-0.00202195 -0.096121 -0.000546144)
(0.00189823 -0.0984108 -0.50035)
(-0.00205975 -0.0963462 -0.000539807)
(0.000630978 -0.101594 0.000160549)
(0.000594396 -0.101688 8.99287e-05)
(0.000578441 -0.101842 0.000161201)
(0.000554515 -0.101959 8.83458e-05)
(0.00120859 -0.0946379 0.000420161)
(0.000230434 -0.0954178 9.86919e-05)
(0.0011759 -0.0947524 0.000420345)
(0.000218259 -0.095646 9.46754e-05)
(0.000585848 -0.102138 1.84036e-05)
(0.000586148 -0.102138 -1.85818e-05)
(0.000554428 -0.102452 1.76671e-05)
(0.000553991 -0.102452 -1.76746e-05)
(0.000264894 -0.097234 1.69954e-05)
(0.000265215 -0.0972336 -1.84074e-05)
(0.000256646 -0.0975876 1.74975e-05)
(0.000256261 -0.0975871 -1.62801e-05)
(0.000594553 -0.101687 -8.98915e-05)
(0.000630292 -0.101593 -0.000160534)
(0.000554417 -0.101958 -8.87155e-05)
(0.000578951 -0.10184 -0.000161467)
(0.000230354 -0.0954166 -9.61973e-05)
(0.00120862 -0.0946375 -0.000419709)
(0.000217956 -0.0956448 -9.74086e-05)
(0.00117702 -0.0947519 -0.000421601)
(-0.0051271 -0.102253 0.000228621)
(0.0052765 -0.102957 0.493143)
(-0.00518588 -0.102569 0.000223664)
(0.00525569 -0.103409 0.493172)
(-0.00202597 -0.0961221 0.000545486)
(0.00189347 -0.0978412 0.500342)
(-0.00206348 -0.0963473 0.000541976)
(0.00190186 -0.098413 0.50035)
(0.00533201 -0.102014 -0.493024)
(-0.00500602 -0.101536 -0.000236601)
(0.0053016 -0.102493 -0.493051)
(-0.00506661 -0.10191 -0.000232588)
(0.00188643 -0.0967034 -0.500321)
(-0.00195703 -0.0955518 -0.000554025)
(0.0018883 -0.0972716 -0.500326)
(-0.00199126 -0.0958555 -0.00054895)
(0.000738567 -0.101002 0.000158648)
(0.000683821 -0.101066 9.19049e-05)
(0.000682885 -0.101315 0.000159491)
(0.000637525 -0.101391 9.08169e-05)
(0.00126902 -0.0942842 0.000417551)
(0.000260495 -0.0948876 0.000100547)
(0.00123791 -0.094482 0.000418156)
(0.00024458 -0.0951657 9.70898e-05)
(0.000659258 -0.101443 1.97447e-05)
(0.0006595 -0.101443 -1.99076e-05)
(0.000621306 -0.101802 1.91935e-05)
(0.000620807 -0.101802 -1.92207e-05)
(0.00028607 -0.0964797 1.84699e-05)
(0.000286325 -0.0964792 -1.96281e-05)
(0.000275282 -0.0968652 1.90141e-05)
(0.000274833 -0.0968648 -1.78342e-05)
(0.000683946 -0.101065 -9.18973e-05)
(0.000738 -0.101002 -0.00015866)
(0.000637505 -0.10139 -9.12133e-05)
(0.000683475 -0.101314 -0.00015975)
(0.000260388 -0.0948869 -9.84337e-05)
(0.00126917 -0.0942845 -0.000417307)
(0.000244342 -0.0951648 -0.000100067)
(0.0012391 -0.0944817 -0.000419287)
(-0.00501051 -0.101536 0.000236967)
(0.00533563 -0.102013 0.493016)
(-0.00507073 -0.101909 0.000233138)
(0.0053054 -0.102493 0.493043)
(-0.00196097 -0.0955531 0.000553601)
(0.0018899 -0.0967049 0.500318)
(-0.00199493 -0.0958566 0.000551216)
(0.0018919 -0.0972733 0.500325)
(0.00540922 -0.100999 -0.492891)
(-0.00488242 -0.100701 -0.000243023)
(0.00536988 -0.101516 -0.49292)
(-0.00494697 -0.101134 -0.000239944)
(0.00189302 -0.0955486 -0.500296)
(-0.00189553 -0.0948373 -0.000559607)
(0.00189003 -0.0961303 -0.500302)
(-0.00192832 -0.0952123 -0.000556222)
(0.000852576 -0.100279 0.000156558)
(0.0007857 -0.100329 9.30193e-05)
(0.000793874 -0.100657 0.000157532)
(0.000733221 -0.100712 9.24265e-05)
(0.0013277 -0.0937683 0.000414588)
(0.000297359 -0.0942486 0.000100947)
(0.00129762 -0.0940467 0.000415662)
(0.00027817 -0.0945825 9.93257e-05)
(0.000746629 -0.100649 2.07301e-05)
(0.000746644 -0.100649 -2.08613e-05)
(0.000701397 -0.101059 2.03191e-05)
(0.000701089 -0.101059 -2.03829e-05)
(0.000312881 -0.0956487 1.97833e-05)
(0.0003129 -0.0956483 -2.02629e-05)
(0.000299034 -0.0960744 1.98699e-05)
(0.000298754 -0.0960744 -1.92669e-05)
(0.000785811 -0.100328 -9.31421e-05)
(0.000852369 -0.100278 -0.000156645)
(0.00073324 -0.100711 -9.27154e-05)
(0.000794164 -0.100656 -0.000157714)
(0.000297247 -0.0942481 -0.000100414)
(0.0013282 -0.0937688 -0.00041473)
(0.000277971 -0.094582 -0.000100974)
(0.00129856 -0.0940464 -0.000416441)
(-0.00488681 -0.100701 0.000243455)
(0.00541283 -0.100998 0.492882)
(-0.00495121 -0.101133 0.000240454)
(0.00537357 -0.101516 0.492912)
(-0.00189932 -0.0948387 0.00056001)
(0.00189649 -0.0955498 0.500294)
(-0.00193202 -0.0952134 0.000557804)
(0.00189356 -0.0961315 0.5003)
(0.00550411 -0.099895 -0.492757)
(-0.0047484 -0.0997438 -0.000247998)
(0.00545598 -0.100459 -0.492785)
(-0.00481831 -0.100238 -0.00024564)
(0.00190882 -0.0943459 -0.500272)
(-0.00183529 -0.0939847 -0.000563861)
(0.00190128 -0.0949549 -0.500277)
(-0.00186749 -0.0944282 -0.000561694)
(0.000974358 -0.0994195 0.000154494)
(0.000899908 -0.0994674 9.35648e-05)
(0.000911882 -0.0998664 0.000155493)
(0.000841218 -0.0999143 9.33252e-05)
(0.00138563 -0.0930936 0.00041164)
(0.000340112 -0.0934884 0.000101194)
(0.00135607 -0.0934509 0.000412992)
(0.000318049 -0.0938844 0.000100764)
(0.000848603 -0.0997433 2.14047e-05)
(0.000848546 -0.0997428 -2.15218e-05)
(0.000795852 -0.100211 2.11103e-05)
(0.000795727 -0.10021 -2.12133e-05)
(0.000345852 -0.0947253 2.0603e-05)
(0.000345784 -0.0947251 -2.07814e-05)
(0.000328741 -0.0951993 2.0415e-05)
(0.000328615 -0.0951992 -2.03596e-05)
(0.000900003 -0.0994667 -9.37338e-05)
(0.000974287 -0.0994189 -0.000154603)
(0.00084128 -0.0999134 -9.35239e-05)
(0.000911909 -0.0998657 -0.00015562)
(0.000339991 -0.0934882 -0.000101268)
(0.00138628 -0.0930941 -0.000411956)
(0.000317895 -0.0938842 -0.00010126)
(0.0013568 -0.0934512 -0.000413458)
(-0.00475275 -0.0997435 0.000248457)
(0.00550769 -0.0998945 0.492748)
(-0.00482265 -0.100238 0.000246113)
(0.00545959 -0.100458 0.492777)
(-0.00183897 -0.093986 0.000564598)
(0.00191228 -0.0943467 0.500271)
(-0.00187119 -0.0944295 0.000562668)
(0.00190477 -0.0949558 0.500276)
(0.00561589 -0.0986861 -0.49262)
(-0.00460347 -0.0986565 -0.000251823)
(0.00555937 -0.0993045 -0.492649)
(-0.00467867 -0.0992167 -0.000250018)
(0.00193272 -0.0930706 -0.500249)
(-0.00177547 -0.092996 -0.000566997)
(0.00192112 -0.0937186 -0.500254)
(-0.00180735 -0.0935073 -0.00056553)
(0.00110503 -0.0984189 0.000152537)
(0.00102675 -0.0984716 9.36706e-05)
(0.00103807 -0.0989372 0.000153486)
(0.000961685 -0.0989868 9.3658e-05)
(0.0014438 -0.092261 0.000408772)
(0.000388338 -0.0925959 0.000101221)
(0.00141411 -0.0926971 0.000410175)
(0.000363583 -0.0930593 0.000101202)
(0.000965555 -0.0987129 2.18289e-05)
(0.000965508 -0.0987125 -2.1946e-05)
(0.000905241 -0.0992442 2.16441e-05)
(0.000905176 -0.0992438 -2.17583e-05)
(0.000385173 -0.0936945 2.1058e-05)
(0.000385105 -0.0936944 -2.11824e-05)
(0.000364863 -0.0942241 2.08876e-05)
(0.000364781 -0.094224 -2.09776e-05)
(0.00102685 -0.098471 -9.38457e-05)
(0.00110498 -0.0984185 -0.000152646)
(0.000961775 -0.0989861 -9.38375e-05)
(0.00103804 -0.0989366 -0.000153599)
(0.000388224 -0.092596 -0.000101395)
(0.00144449 -0.0922617 -0.00040912)
(0.000363457 -0.0930594 -0.000101434)
(0.0014148 -0.0926977 -0.000410548)
(-0.00460782 -0.0986562 0.000252289)
(0.00561942 -0.0986855 0.492612)
(-0.00468301 -0.0992164 0.000250485)
(0.00556293 -0.0993039 0.49264)
(-0.00177907 -0.0929973 0.000567792)
(0.00193617 -0.0930712 0.500247)
(-0.001811 -0.0935086 0.000566359)
(0.00192458 -0.0937193 0.500252)
(0.00574465 -0.0973576 -0.492481)
(-0.00444507 -0.0974327 -0.000254718)
(0.00567951 -0.0980375 -0.49251)
(-0.0045277 -0.0980622 -0.000253355)
(0.00196386 -0.0917021 -0.500225)
(-0.00171512 -0.091871 -0.000569134)
(0.00194866 -0.0923991 -0.50023)
(-0.0017473 -0.0924508 -0.000568169)
(0.00124629 -0.0972707 0.000150727)
(0.0011667 -0.0973319 9.34342e-05)
(0.0011738 -0.0978637 0.000151601)
(0.00109503 -0.0979202 9.35833e-05)
(0.00150281 -0.0912699 0.000405974)
(0.000441706 -0.091561 0.00010093)
(0.0014727 -0.0917855 0.000407357)
(0.000414442 -0.0920969 0.000101106)
(0.00109779 -0.0975461 2.20582e-05)
(0.00109775 -0.0975458 -2.21767e-05)
(0.00102981 -0.0981471 2.19639e-05)
(0.00102977 -0.0981468 -2.20813e-05)
(0.000430849 -0.0925416 2.12941e-05)
(0.00043079 -0.0925417 -2.14127e-05)
(0.00040739 -0.093134 2.12019e-05)
(0.000407326 -0.0931341 -2.13145e-05)
(0.00116681 -0.0973314 -9.36092e-05)
(0.00124623 -0.0972704 -0.000150834)
(0.00109513 -0.0979197 -9.37596e-05)
(0.00117374 -0.0978632 -0.00015171)
(0.000441606 -0.0915614 -0.000101116)
(0.00150352 -0.0912708 -0.000406324)
(0.000414333 -0.0920971 -0.000101301)
(0.0014734 -0.0917863 -0.000407712)
(-0.00444947 -0.0974324 0.000255186)
(0.00574814 -0.0973569 0.492473)
(-0.00453207 -0.0980619 0.000253822)
(0.00568302 -0.0980369 0.492501)
(-0.00171865 -0.0918724 0.000569937)
(0.00196729 -0.0917025 0.500224)
(-0.00175087 -0.0924521 0.000568978)
(0.0019521 -0.0923996 0.500228)
(0.00589058 -0.0958959 -0.492338)
(-0.00426925 -0.0960641 -0.00025685)
(0.00581681 -0.096644 -0.492365)
(-0.00436082 -0.0967669 -0.000255849)
(0.00200124 -0.0902227 -0.500201)
(-0.00165311 -0.0906057 -0.000570421)
(0.00198273 -0.0909773 -0.500206)
(-0.0016861 -0.0912563 -0.000569865)
(0.00139965 -0.0959679 0.000149084)
(0.00132006 -0.0960389 9.29405e-05)
(0.00132102 -0.096639 0.000149873)
(0.00124169 -0.096705 9.32091e-05)
(0.00156309 -0.0901178 0.000403247)
(0.000499966 -0.0903746 0.000100368)
(0.00153232 -0.0907142 0.000404596)
(0.000470301 -0.0909873 0.000100676)
(0.00124537 -0.0962316 2.2135e-05)
(0.00124533 -0.0962314 -2.22544e-05)
(0.00116973 -0.0969079 2.21121e-05)
(0.00116969 -0.0969076 -2.22309e-05)
(0.000482798 -0.0912535 2.13722e-05)
(0.000482744 -0.0912537 -2.14908e-05)
(0.000456241 -0.0919151 2.13513e-05)
(0.000456185 -0.0919153 -2.14673e-05)
(0.00132017 -0.0960385 -9.31141e-05)
(0.00139958 -0.0959677 -0.000149188)
(0.0012418 -0.0967046 -9.33838e-05)
(0.00132096 -0.0966387 -0.000149979)
(0.000499879 -0.0903752 -0.000100555)
(0.00156381 -0.0901189 -0.000403593)
(0.000470207 -0.0909878 -0.000100867)
(0.00153303 -0.0907152 -0.000404946)
(-0.0042737 -0.0960639 0.000257318)
(0.00589401 -0.0958952 0.492329)
(-0.00436524 -0.0967666 0.000256317)
(0.00582027 -0.0966433 0.492357)
(-0.00165657 -0.090607 0.000571223)
(0.00200467 -0.0902229 0.5002)
(-0.0016896 -0.0912577 0.00057067)
(0.00198616 -0.0909776 0.500204)
(0.00605315 -0.0942885 -0.492193)
(-0.0040741 -0.0945423 -0.000258347)
(0.00597115 -0.0951111 -0.492221)
(-0.00417565 -0.0953231 -0.000257649)
(0.00204501 -0.0886159 -0.500178)
(-0.00158622 -0.0891919 -0.000570987)
(0.00202331 -0.0894361 -0.500182)
(-0.00162212 -0.089918 -0.000570777)
(0.00156545 -0.0945028 0.000147602)
(0.00148676 -0.0945833 9.22547e-05)
(0.00148062 -0.0952561 0.000148313)
(0.00140174 -0.0953318 9.26124e-05)
(0.00162528 -0.0888007 0.000400584)
(0.000562971 -0.0890279 9.95969e-05)
(0.00159352 -0.0894802 0.000401901)
(0.000530972 -0.0897218 0.000100001)
(0.00140822 -0.0947584 2.20934e-05)
(0.00140819 -0.0947582 -2.22132e-05)
(0.00132497 -0.0955153 2.21259e-05)
(0.00132494 -0.0955152 -2.22454e-05)
(0.000540926 -0.0898174 2.13271e-05)
(0.000540873 -0.0898178 -2.14485e-05)
(0.000511324 -0.0905545 2.13653e-05)
(0.00051127 -0.0905548 -2.14805e-05)
(0.00148688 -0.094583 -9.24264e-05)
(0.00156538 -0.0945026 -0.000147704)
(0.00140186 -0.0953315 -9.27857e-05)
(0.00148055 -0.0952559 -0.000148417)
(0.000562897 -0.0890287 -9.97775e-05)
(0.00162602 -0.088802 -0.000400923)
(0.000530892 -0.0897225 -0.000100192)
(0.00159425 -0.0894813 -0.000402248)
(-0.00407861 -0.0945421 0.000258814)
(0.00605655 -0.0942878 0.492184)
(-0.00418013 -0.0953228 0.000258118)
(0.00597456 -0.0951104 0.492212)
(-0.00158964 -0.0891933 0.000571784)
(0.00204842 -0.0886159 0.500176)
(-0.00162556 -0.0899194 0.000571581)
(0.00202674 -0.0894362 0.500181)
(0.00623191 -0.0925228 -0.492044)
(-0.00385662 -0.0928548 -0.000259303)
(0.00614172 -0.0934259 -0.492072)
(-0.00396975 -0.0937198 -0.000258865)
(0.00209404 -0.0868679 -0.500154)
(-0.00151553 -0.0876192 -0.000570932)
(0.00206969 -0.0877602 -0.500158)
(-0.00155253 -0.088426 -0.000571013)
(0.00174424 -0.0928669 0.000146272)
(0.0016668 -0.0929562 9.14215e-05)
(0.00165278 -0.0937065 0.000146905)
(0.00157511 -0.0937915 9.18474e-05)
(0.00168921 -0.0873146 0.000397978)
(0.00063067 -0.0875133 9.86671e-05)
(0.00165667 -0.088079 0.00039926)
(0.000596343 -0.088292 9.91317e-05)
(0.00158611 -0.0931163 2.19594e-05)
(0.00158607 -0.0931162 -2.20793e-05)
(0.0014954 -0.0939588 2.20357e-05)
(0.00149536 -0.0939587 -2.21546e-05)
(0.000605078 -0.0882223 2.11797e-05)