/*--------------------------------*- C++ -*----------------------------------*\
  =========                 |
  \\      /  F ield         | OpenFOAM: The Open Source CFD Toolbox
   \\    /   O peration     | Website:  https://openfoam.org
    \\  /    A nd           | Version:  9
     \\/     M anipulation  |
\*---------------------------------------------------------------------------*/
FoamFile
{
    format      ascii;
    class       volScalarField;
    location    "1.25";
    object      epsilon;
}
// * * * * * * * * * * * * * * * * * * * * * * * * * * * * * * * * * * * * * //

dimensions      [0 2 -3 0 0 0 0];

internalField   nonuniform List<scalar> 
36360
(
0.145562
0.110153
0.0370845
0.0365432
0.0260241
0.0145721
0.00851187
0.00668961
0.0162226
0.00330482
0.00672184
0.00442847
0.00451848
0.00320373
0.00498489
0.00501808
0.00240653
0.00240648
0.00449592
0.00449595
0.00314079
0.00314078
0.00503046
0.00503045
0.00330345
0.0162176
0.00442868
0.00672107
0.00320364
0.00451754
0.00501811
0.00498502
0.11015
0.145586
0.0365411
0.0370868
0.0145715
0.0260291
0.00668939
0.00851212
0.298472
0.222706
0.235529
0.174813
0.121988
0.0681655
0.0741768
0.0395889
0.0619574
0.0107707
0.0393082
0.00533387
0.0144689
0.0026919
0.00712364
0.00245822
0.00168091
0.00167868
0.00159306
0.00159266
0.00165379
0.00165357
0.0021325
0.00213248
0.0107558
0.0619369
0.00532876
0.0392945
0.00268969
0.0144592
0.00245761
0.00712048
0.22272
0.298564
0.174817
0.235585
0.0681715
0.122051
0.0395892
0.074205
0.363828
0.274133
0.339148
0.254558
0.18053
0.106337
0.157637
0.0909869
0.0889901
0.0208059
0.0784161
0.0166294
0.0280891
0.00415566
0.0223313
0.00335993
0.00275835
0.00274915
0.00213304
0.00212753
0.00142501
0.00142412
0.00146826
0.00146772
0.0207709
0.0889624
0.0166032
0.0783913
0.00414638
0.0280674
0.00335421
0.0223146
0.274169
0.363987
0.254584
0.339275
0.10636
0.180662
0.0910014
0.157736
0.385397
0.291402
0.377961
0.285434
0.200813
0.120161
0.193859
0.115419
0.0985006
0.0247093
0.0952125
0.0233628
0.0334705
0.00500589
0.0316238
0.00470578
0.00342483
0.00341122
0.00318833
0.00317638
0.00143434
0.00143302
0.00142683
0.00142566
0.0246641
0.0984697
0.0233215
0.0951829
0.0049923
0.0334438
0.0046938
0.0315989
0.291453
0.385597
0.285478
0.378144
0.120197
0.200988
0.11545
0.194016
0.390671
0.295681
0.389129
0.294425
0.205587
0.123388
0.204234
0.122491
0.100854
0.0256296
0.100172
0.0253769
0.0347132
0.0052026
0.0343747
0.00515222
0.00358235
0.00356745
0.00354162
0.0035271
0.00144185
0.0014404
0.00143989
0.00143847
0.0255811
0.100822
0.0253295
0.10014
0.00518782
0.0346851
0.00513779
0.034347
0.295737
0.390888
0.294479
0.38934
0.123428
0.205779
0.122529
0.204419
0.391338
0.29627
0.391317
0.296227
0.206147
0.123725
0.206135
0.123744
0.101181
0.0257338
0.101162
0.0257403
0.0348532
0.0052195
0.0348563
0.00522222
0.00359562
0.00358055
0.00359877
0.00358371
0.00144189
0.00144044
0.00144237
0.00144092
0.0256847
0.101148
0.0256913
0.10113
0.00520457
0.0348248
0.0052073
0.034828
0.296327
0.39156
0.296285
0.391538
0.123767
0.206342
0.123785
0.206329
0.391072
0.296118
0.391309
0.296275
0.205949
0.123538
0.206125
0.123692
0.101134
0.0257166
0.101207
0.0257469
0.0348189
0.0052105
0.0348606
0.00521921
0.0035908
0.00357572
0.00359718
0.00358209
0.0014396
0.00143815
0.00144095
0.00143949
0.0256674
0.101101
0.0256977
0.101174
0.00519558
0.0347905
0.00520427
0.0348323
0.296175
0.391294
0.296333
0.391532
0.123579
0.206144
0.123734
0.20632
0.390491
0.295743
0.390876
0.296004
0.205527
0.123192
0.205812
0.123422
0.100969
0.025654
0.101094
0.0257034
0.0347207
0.00519077
0.0347921
0.00520481
0.00357795
0.00356292
0.00358782
0.00357275
0.00143666
0.00143522
0.00143833
0.00143688
0.0256048
0.100936
0.0256541
0.101061
0.0051759
0.0346922
0.0051899
0.0347637
0.2958
0.390713
0.296061
0.391099
0.123232
0.205722
0.123463
0.206007
0.389721
0.295243
0.390199
0.295566
0.204989
0.122774
0.205339
0.123043
0.100739
0.0255664
0.100897
0.0256284
0.0345887
0.00516548
0.0346785
0.0051826
0.0035608
0.00354584
0.0035728
0.00355779
0.00143319
0.00143175
0.00143513
0.00143369
0.0255173
0.100706
0.0255792
0.100864
0.00515067
0.0345603
0.00516775
0.0346501
0.2953
0.389942
0.295622
0.390421
0.122815
0.205183
0.123083
0.205534
0.388803
0.294658
0.389353
0.295023
0.204365
0.122309
0.204759
0.122602
0.100467
0.0254632
0.100647
0.0255338
0.034435
0.00513633
0.0345373
0.00515574
0.00354097
0.00352609
0.00355454
0.0035396
0.00142917
0.00142774
0.00143141
0.00142998
0.0254141
0.100434
0.0254847
0.100614
0.0051216
0.0344066
0.00514096
0.0345089
0.294714
0.389023
0.295079
0.389574
0.122349
0.204558
0.122642
0.204953
0.387742
0.293993
0.388363
0.294397
0.203656
0.121797
0.204093
0.122116
0.100159
0.0253461
0.100358
0.0254246
0.0342612
0.0051037
0.0343753
0.00512504
0.00351884
0.00350403
0.00353375
0.00351889
0.00142459
0.00142318
0.00142711
0.00142569
0.0252971
0.100125
0.0253756
0.100325
0.00508905
0.0342327
0.00511034
0.0343468
0.294048
0.387961
0.294453
0.388583
0.121837
0.203849
0.122156
0.204286
0.386544
0.293251
0.387234
0.293694
0.202865
0.121237
0.203343
0.121578
0.0998153
0.0252157
0.100032
0.0253018
0.0340681
0.00506745
0.0341922
0.00509081
0.00349437
0.00347966
0.0035107
0.00349593
0.0014194
0.00141799
0.00142226
0.00142084
0.0251668
0.0997817
0.0252529
0.0999985
0.00505289
0.0340395
0.00507619
0.0341637
0.293306
0.386762
0.293749
0.387453
0.121276
0.203056
0.121617
0.203535
0.385202
0.29243
0.385964
0.292912
0.201986
0.120626
0.202508
0.120993
0.099436
0.0250718
0.0996706
0.025165
0.0338544
0.00502739
0.0339891
0.00505272
0.00346753
0.00345293
0.00348513
0.00347046
0.00141354
0.00141215
0.00141673
0.00141533
0.025023
0.0994022
0.0251162
0.099637
0.00501292
0.0338258
0.00503819
0.0339605
0.292484
0.385419
0.292966
0.386181
0.120664
0.202176
0.121032
0.202699
0.383716
0.291528
0.38455
0.292051
0.201017
0.119956
0.201584
0.120354
0.0990196
0.0249135
0.0992729
0.0250141
0.0336186
0.00498327
0.0337644
0.00501068
0.00343823
0.00342375
0.00345712
0.00344257
0.00140697
0.0014056
0.00141053
0.00140914
0.0248649
0.0989858
0.0249654
0.0992391
0.00496893
0.03359
0.00499626
0.0337359
0.291582
0.383931
0.292105
0.384766
0.119994
0.201205
0.120392
0.201774
0.382071
0.290536
0.382986
0.291105
0.199948
0.11922
0.200566
0.119651
0.0985629
0.0247398
0.0988368
0.0248482
0.0333592
0.00493483
0.0335169
0.0049644
0.00340622
0.00339189
0.00342647
0.00341205
0.00139961
0.00139826
0.00140356
0.0014022
0.0246914
0.0985289
0.0247997
0.0988029
0.00492064
0.0333307
0.00495012
0.0334884
0.290589
0.382285
0.291158
0.383201
0.119257
0.200135
0.119689
0.200754
0.38026
0.289449
0.381259
0.290065
0.198775
0.118412
0.199445
0.118879
0.0980638
0.0245501
0.098359
0.0246666
0.0330752
0.0048819
0.0332452
0.0049137
0.00337144
0.00335726
0.00339307
0.0033788
0.00139141
0.00139008
0.00139579
0.00139444
0.0245019
0.0980297
0.0246183
0.0983249
0.00486786
0.0330468
0.00489957
0.0332167
0.289501
0.380473
0.290118
0.381472
0.118449
0.198961
0.118916
0.199632
0.378273
0.288262
0.379361
0.288929
0.197492
0.117533
0.198217
0.118035
0.0975197
0.0243434
0.0978376
0.0244684
0.0327659
0.0048243
0.0329485
0.00485841
0.00333378
0.00331976
0.00335683
0.00334271
0.00138231
0.001381
0.00138714
0.00138581
0.0242955
0.0974855
0.0244203
0.0978035
0.00481042
0.0327375
0.00484443
0.0329201
0.288313
0.378484
0.28898
0.379573
0.117569
0.197677
0.118071
0.198402
0.376104
0.286969
0.377283
0.28769
0.196097
0.116585
0.196878
0.117121
0.0969283
0.0241193
0.0972699
0.024253
0.0324303
0.00476185
0.032626
0.00479834
0.00329317
0.00327934
0.00331766
0.00330372
0.00137226
0.00137097
0.00137756
0.00137626
0.0240716
0.0968939
0.0242051
0.0972356
0.00474816
0.032402
0.00478455
0.0325976
0.287019
0.376314
0.28774
0.377494
0.116621
0.196279
0.117157
0.197062
0.373749
0.285567
0.37502
0.286341
0.194584
0.115562
0.195423
0.116136
0.0962886
0.0238771
0.0966541
0.0240197
0.0320673
0.00469444
0.0322765
0.00473336
0.00324958
0.00323594
0.00327552
0.00326176
0.00136121
0.00135994
0.00136701
0.00136573
0.0238297
0.096254
0.0239721
0.0966197
0.00468095
0.032039
0.00471976
0.0322483
0.285617
0.373956
0.286391
0.375229
0.115596
0.194764
0.116171
0.195605
0.371206
0.284058
0.372571
0.284886
0.192953
0.114458
0.193851
0.115072
0.0956003
0.0236168
0.0959901
0.0237684
0.0316765
0.00462202
0.0318994
0.00466338
0.00320302
0.00318959
0.00323039
0.00321683
0.00134911
0.00134787
0.00135543
0.00135417
0.0235697
0.0955656
0.0237211
0.0959555
0.00460874
0.0316483
0.00464997
0.0318712
0.284107
0.371412
0.284935
0.372778
0.114492
0.193132
0.115106
0.194031
0.368478
0.28244
0.369935
0.283322
0.191204
0.113272
0.19216
0.113927
0.0948631
0.0233383
0.095277
0.0234989
0.0312578
0.0045446
0.0314944
0.00458837
0.00315352
0.00314031
0.00318229
0.00316895
0.00133594
0.00133473
0.00134279
0.00134156
0.0232915
0.0948282
0.0234519
0.0952422
0.00453155
0.0312297
0.00457519
0.0314663
0.282487
0.368682
0.283369
0.37014
0.113305
0.19138
0.11396
0.192338
0.36557
0.280721
0.367116
0.28165
0.189337
0.112005
0.190352
0.112699
0.0940784
0.0230416
0.0945156
0.0232111
0.0308116
0.00446226
0.0310615
0.00450838
0.00310113
0.00308816
0.00313126
0.00311816
0.00132167
0.00132048
0.00132906
0.00132786
0.0229952
0.0940433
0.0231645
0.0944806
0.00444945
0.0307836
0.00449544
0.0310335
0.280767
0.365771
0.281697
0.367318
0.112037
0.189511
0.112732
0.190527
0.362478
0.27891
0.364117
0.279886
0.187353
0.110664
0.188425
0.111393
0.093246
0.0227268
0.0937071
0.0229052
0.0303388
0.00437516
0.0306016
0.00442353
0.003046
0.00303328
0.00307741
0.00306455
0.00130628
0.00130513
0.00131422
0.00131305
0.0226807
0.0932107
0.0228589
0.0936719
0.00436261
0.030311
0.00441084
0.0305737
0.278955
0.362676
0.279931
0.364316
0.110695
0.187524
0.111424
0.188598
0.359204
0.276993
0.360931
0.278023
0.185255
0.109257
0.186383
0.110017
0.0923637
0.022394
0.0928495
0.0225811
0.0298408
0.00428364
0.0301156
0.00433408
0.00298835
0.00297589
0.00302091
0.00300831
0.0012898
0.00128868
0.00129827
0.00129713
0.0223483
0.0923282
0.0225352
0.0928142
0.00427136
0.0298131
0.00432165
0.0300879
0.277037
0.3594
0.278067
0.361129
0.109287
0.185424
0.110047
0.186553
0.35576
0.274971
0.35757
0.276052
0.183053
0.1078
0.184231
0.108582
0.0914315
0.0220442
0.091942
0.0222394
0.0293197
0.00418814
0.0296054
0.00424039
0.00292853
0.00291636
0.00296204
0.00294971
0.00127224
0.00127115
0.00128124
0.00128013
0.021999
0.0913959
0.022194
0.0919065
0.00417615
0.0292922
0.00422824
0.0295778
0.275013
0.355953
0.276095
0.357765
0.107829
0.18322
0.108611
0.184398
0.352162
0.272835
0.354046
0.273975
0.180761
0.106317
0.18198
0.107107
0.09045
0.0216797
0.0909846
0.0218817
0.028779
0.00408929
0.0290736
0.00414302
0.00286704
0.00285516
0.00290123
0.00288919
0.00125364
0.00125259
0.00126314
0.00126207
0.0216349
0.0904142
0.0218367
0.0909489
0.00407759
0.0287516
0.00413116
0.0290462
0.272876
0.352353
0.274017
0.354238
0.106344
0.180924
0.107135
0.182145
0.348443
0.270584
0.350382
0.271777
0.178396
0.104831
0.179648
0.105622
0.0894302
0.0213042
0.0899813
0.0215109
0.0282221
0.00398774
0.0285241
0.00404262
0.00280441
0.00279282
0.00283902
0.00282727
0.00123407
0.00123305
0.00124404
0.001243
0.0212599
0.0893941
0.0214664
0.0899454
0.00397634
0.0281949
0.00403106
0.0284968
0.270624
0.348631
0.271817
0.350571
0.104858
0.178556
0.105649
0.17981
0.344636
0.268277
0.346615
0.269492
0.175974
0.103313
0.177252
0.104121
0.0883859
0.0209208
0.0889479
0.0211309
0.0276522
0.00388419
0.0279598
0.00393986
0.00274113
0.00272984
0.00277591
0.00276446
0.0012136
0.00121261
0.001224
0.00122299
0.020877
0.0883497
0.0210868
0.0889118
0.00387311
0.0276252
0.00392861
0.0279327
0.268316
0.344821
0.269531
0.346802
0.103338
0.176131
0.104147
0.177411
0.340766
0.265933
0.342773
0.267164
0.173512
0.101768
0.174806
0.102587
0.0873238
0.0205324
0.0878935
0.0207443
0.0270732
0.00377941
0.0273844
0.00383547
0.00267771
0.00266673
0.0027124
0.00270125
0.00119231
0.00119136
0.00120309
0.00120213
0.0204892
0.0872874
0.0207008
0.0878572
0.00376864
0.0270464
0.00382453
0.0273575
0.26597
0.340948
0.267202
0.342956
0.101792
0.173667
0.102612
0.174963
0.336864
0.263565
0.338882
0.264805
0.171031
0.100206
0.172331
0.101031
0.0862517
0.0201422
0.0868249
0.0203543
0.0264897
0.00367419
0.0268021
0.00373025
0.00261471
0.00260404
0.00264903
0.00263819
0.00117031
0.0011694
0.00118142
0.00118049
0.0200995
0.0862151
0.0203114
0.0867885
0.00366374
0.0264631
0.00371963
0.0267754
0.2636
0.337043
0.264841
0.339062
0.100229
0.171182
0.101055
0.172484
0.332962
0.261192
0.334975
0.262431
0.16855
0.0986413
0.169846
0.0994655
0.0851782
0.0197535
0.0857506
0.0199642
0.0259063
0.00356935
0.0262176
0.00362499
0.00255265
0.00254228
0.00258633
0.0025758
0.00114771
0.00114683
0.0011591
0.0011582
0.0197113
0.0851415
0.0199218
0.085714
0.00355921
0.0258799
0.00361469
0.0261911
0.261225
0.333137
0.262466
0.335152
0.0986631
0.168698
0.0994879
0.169996
0.329092
0.258832
0.331084
0.260062
0.166091
0.0970856
0.167373
0.0979027
0.0841123
0.0193696
0.0846793
0.0195772
0.0253278
0.00346568
0.0256356
0.00352052
0.00249205
0.00248197
0.00252485
0.00251461
0.00112463
0.00112379
0.00113624
0.00113538
0.0193281
0.0840755
0.0195354
0.0846426
0.00345585
0.0253017
0.00351053
0.0256094
0.258864
0.329264
0.260095
0.331258
0.0971062
0.166237
0.0979239
0.16752
0.325286
0.256504
0.327242
0.257715
0.163675
0.0955518
0.164932
0.0963556
0.0830628
0.0189941
0.0836202
0.0191968
0.024759
0.00336395
0.025061
0.00341761
0.00243339
0.0024236
0.00246507
0.00245513
0.00110121
0.0011004
0.00111296
0.00111213
0.0189531
0.0830259
0.0191556
0.0835833
0.00335443
0.0247331
0.00340793
0.025035
0.256535
0.325455
0.257747
0.327413
0.0955714
0.163817
0.0963758
0.165076
0.321569
0.254224
0.323477
0.255409
0.161317
0.0940506
0.162542
0.0948362
0.0820372
0.0186297
0.0825815
0.0188263
0.024204
0.00326485
0.0244982
0.00331701
0.00237709
0.00236759
0.00240746
0.0023978
0.00107757
0.00107679
0.0010894
0.00108861
0.0185893
0.0820001
0.0187856
0.0825445
0.00325563
0.0241784
0.00330762
0.0244725
0.254253
0.321735
0.25544
0.323645
0.0940691
0.161456
0.0948554
0.162683
0.317937
0.251988
0.319806
0.253153
0.159013
0.092583
0.160213
0.0933522
0.0810358
0.018278
0.0815685
0.018468
0.023665
0.00316892
0.0239508
0.00321934
0.00232345
0.00231421
0.00235239
0.002343
0.00105383
0.00105309
0.00106569
0.00106493
0.0182382
0.0809986
0.0184279
0.0815314
0.00315997
0.0236397
0.00321024
0.0239254
0.252016
0.3181
0.253182
0.319971
0.0926006
0.15915
0.0933703
0.160351
0.314271
0.249717
0.316186
0.250919
0.156677
0.0911045
0.157914
0.0918901
0.0800239
0.017932
0.0805705
0.018121
0.0231331
0.00307577
0.0234176
0.00312486
0.00227203
0.00226306
0.00229993
0.00229082
0.00103012
0.0010294
0.00104195
0.00104122
0.0178927
0.0799868
0.0180814
0.0805334
0.0030671
0.023108
0.00311605
0.0233924
0.249743
0.314431
0.250947
0.316348
0.091121
0.15681
0.0919072
0.158049
0.310082
0.247043
0.312359
0.248526
0.153921
0.089389
0.155449
0.0903421
0.0788219
0.0175438
0.0795036
0.017765
0.0225473
0.00298036
0.0228727
0.00303178
0.00221854
0.00220986
0.00224849
0.00223964
0.00100637
0.00100568
0.00101824
0.00101754
0.0175053
0.0787849
0.017726
0.0794665
0.002972
0.0225226
0.00302325
0.0228479
0.247068
0.310236
0.248552
0.312516
0.0894041
0.154049
0.090358
0.15558
0.30409
0.242428
0.30747
0.245241
0.149626
0.0866013
0.15212
0.0882652
0.0766862
0.0168977
0.0780003
0.0172953
0.0216403
0.00285562
0.0221843
0.00292777
0.00214053
0.00213233
0.00218777
0.00217928
0.000981641
0.000980991
0.000994248
0.000993575
0.0168608
0.0766496
0.0172574
0.0779635
0.00284773
0.0216164
0.0029196
0.02216
0.24245
0.304237
0.245265
0.307621
0.0866143
0.149747
0.0882795
0.152245
0.297564
0.225714
0.300469
0.237608
0.141529
0.079356
0.146406
0.0840904
0.0701656
0.0151882
0.074507
0.0162837
0.0194389
0.00260001
0.0208336
0.0027577
0.00195368
0.00194655
0.00207188
0.00206409
0.000951039
0.000950465
0.000967872
0.000967252
0.0151546
0.07013
0.0162481
0.0744709
0.00259309
0.0194166
0.00275018
0.0208103
0.225728
0.297705
0.237627
0.300612
0.0793647
0.14164
0.0841018
0.146523
0.197487
0.147829
0.0486564
0.0414032
0.182563
0.136484
0.0459451
0.0385681
0.0253989
0.0044304
0.00759388
0.00430779
0.0222217
0.00404642
0.00723083
0.00439656
0.00240811
0.00240818
0.00451651
0.00451655
0.00244089
0.00244091
0.00457045
0.00457049
0.00442731
0.025388
0.00430806
0.00759196
0.00404388
0.0222131
0.00439691
0.00722928
0.147827
0.197536
0.0413971
0.0486666
0.136481
0.182602
0.0385631
0.0459517
0.399049
0.3018
0.316699
0.23747
0.366228
0.276087
0.29145
0.217943
0.100514
0.0226731
0.0653405
0.0100497
0.0873035
0.0182378
0.0566022
0.00828379
0.00285776
0.00285076
0.0019221
0.00191995
0.00236615
0.00236142
0.0017848
0.00178338
0.0226395
0.100485
0.0100361
0.0653166
0.0182119
0.0872779
0.00827381
0.0565822
0.301832
0.399198
0.237483
0.316797
0.276111
0.366352
0.217952
0.29153
0.48557
0.371556
0.452515
0.344651
0.443877
0.338294
0.414392
0.314476
0.142198
0.0423032
0.125748
0.0341954
0.123227
0.034175
0.109149
0.0276168
0.00712299
0.00709644
0.00502726
0.00500995
0.00526633
0.00524716
0.00380763
0.00379543
0.0422402
0.142166
0.034145
0.125717
0.0341231
0.123196
0.0275761
0.10912
0.371626
0.485811
0.344703
0.452713
0.338348
0.444081
0.314516
0.414558
0.515766
0.396391
0.505079
0.387576
0.470306
0.359868
0.46105
0.352288
0.157697
0.0501588
0.152186
0.0473701
0.136221
0.0404057
0.131652
0.0382203
0.00943322
0.00939576
0.00859214
0.0085589
0.00684198
0.00681455
0.00627561
0.00625135
0.050081
0.157664
0.0472982
0.152153
0.0403409
0.136189
0.0381606
0.13162
0.396485
0.516065
0.38766
0.505354
0.359943
0.47056
0.352354
0.461283
0.523882
0.403136
0.521389
0.401054
0.477148
0.365525
0.475085
0.363809
0.161903
0.0522315
0.16062
0.0516202
0.139614
0.0419786
0.138599
0.0415262
0.0100472
0.0100062
0.00987437
0.00983448
0.0072407
0.00721065
0.00713181
0.00710259
0.0521481
0.161869
0.0515388
0.160587
0.0419091
0.139581
0.0414584
0.138566
0.403241
0.524208
0.401155
0.521705
0.365607
0.477423
0.363888
0.475352
0.525144
0.404267
0.525008
0.404105
0.478128
0.366414
0.478051
0.366305
0.162605
0.0525399
0.162514
0.0525206
0.140142
0.0421893
0.140087
0.0421862
0.0101215
0.0100798
0.0101262
0.0100845
0.00728322
0.00725272
0.00728836
0.00725791
0.0524549
0.162571
0.0524361
0.16248
0.0421186
0.140108
0.0421159
0.140053
0.404374
0.525477
0.404212
0.525338
0.366498
0.47841
0.366389
0.478331
0.52482
0.404105
0.52514
0.404312
0.477812
0.366254
0.478105
0.366439
0.16255
0.0525221
0.162662
0.052576
0.140085
0.042171
0.140182
0.0422152
0.0101158
0.0100739
0.0101336
0.0100917
0.00727688
0.00724633
0.00728987
0.00725931
0.0524369
0.162515
0.0524909
0.162628
0.0421002
0.140051
0.0421445
0.140148
0.404212
0.525153
0.404419
0.525473
0.366338
0.478095
0.366524
0.478387
0.524023
0.403599
0.524553
0.403957
0.477089
0.365803
0.477566
0.366119
0.162304
0.0524156
0.162495
0.0525049
0.13987
0.0420812
0.140034
0.0421546
0.0100822
0.0100404
0.0101107
0.0100689
0.00725174
0.00722124
0.00727225
0.0072417
0.0523303
0.16227
0.0524197
0.162461
0.0420104
0.139836
0.0420838
0.14
0.403706
0.524356
0.404064
0.524886
0.365887
0.47737
0.366203
0.477848
0.522977
0.402912
0.523624
0.403357
0.476139
0.365192
0.476724
0.365585
0.161959
0.0522636
0.162198
0.0523748
0.139571
0.0419548
0.139777
0.0420461
0.0100351
0.00999334
0.0100699
0.0100281
0.00721721
0.00718679
0.00724218
0.00721169
0.0521783
0.161925
0.0522895
0.162164
0.0418839
0.139536
0.0419752
0.139742
0.403018
0.523309
0.403463
0.523957
0.365275
0.47642
0.365669
0.477005
0.521755
0.40211
0.522488
0.402611
0.475023
0.364476
0.47569
0.364921
0.161555
0.0520844
0.161825
0.0522099
0.139218
0.0418053
0.139452
0.041909
0.00998019
0.00993858
0.0100192
0.00997749
0.00717711
0.00714681
0.00720517
0.00717479
0.0519991
0.16152
0.0521247
0.16179
0.0417346
0.139183
0.0418382
0.139418
0.402215
0.522086
0.402716
0.52282
0.364558
0.475302
0.365004
0.47597
0.520369
0.401204
0.521182
0.401756
0.473747
0.363663
0.474492
0.364156
0.1611
0.0518827
0.161397
0.0520207
0.13882
0.0416365
0.139078
0.041751
0.00991922
0.00987777
0.00996164
0.00992007
0.0071324
0.00710223
0.0071631
0.00713284
0.0517975
0.161064
0.0519355
0.161362
0.0415658
0.138785
0.0416803
0.139043
0.401308
0.520698
0.40186
0.521512
0.363745
0.474026
0.364238
0.474771
0.518821
0.400198
0.519717
0.400802
0.472317
0.362759
0.47314
0.363298
0.160596
0.0516596
0.160918
0.0518097
0.138378
0.0414491
0.138658
0.0415742
0.00985244
0.00981116
0.00989827
0.00985688
0.00708326
0.00705324
0.00711661
0.00708649
0.0515746
0.16056
0.0517246
0.160883
0.0413786
0.138343
0.0415035
0.138623
0.400301
0.519149
0.400905
0.520046
0.36284
0.472594
0.363379
0.473418
0.517101
0.399083
0.518082
0.399739
0.470725
0.361761
0.471628
0.362346
0.16004
0.0514145
0.160388
0.0515769
0.137891
0.0412429
0.138194
0.0413784
0.00977975
0.00973868
0.00982903
0.00978784
0.00702961
0.00699976
0.0070656
0.00703564
0.0513296
0.160004
0.0514919
0.160353
0.0411725
0.137855
0.0413079
0.138159
0.399185
0.517427
0.399842
0.518409
0.361841
0.471
0.362426
0.471904
0.515207
0.39786
0.516275
0.39857
0.468969
0.360669
0.469954
0.3613
0.159433
0.0511473
0.159807
0.0513217
0.137359
0.0410174
0.137684
0.0411631
0.00970096
0.00966013
0.00975384
0.00971286
0.00697122
0.00694156
0.00701002
0.00698023
0.0510626
0.159397
0.0512368
0.159771
0.0409471
0.137323
0.0410927
0.137649
0.397961
0.515531
0.398672
0.5166
0.360748
0.469243
0.36138
0.470228
0.513128
0.396527
0.51429
0.397291
0.467035
0.359474
0.468111
0.360157
0.158773
0.0508568
0.159173
0.0510433
0.136778
0.0407712
0.137128
0.0409274
0.00961571
0.00957514
0.00967234
0.0096316
0.00690782
0.00687838
0.0069493
0.00691972
0.0507722
0.158736
0.0509586
0.159137
0.0407011
0.136742
0.0408572
0.137092
0.396627
0.513451
0.397391
0.514613
0.359552
0.467307
0.360236
0.468383
0.510849
0.395086
0.512113
0.395907
0.464913
0.358176
0.466084
0.358912
0.158055
0.0505415
0.158485
0.0507405
0.136145
0.0405031
0.136521
0.0406704
0.00952387
0.00948358
0.00958409
0.00954363
0.00683925
0.00681004
0.00688336
0.006854
0.0504571
0.158019
0.0506561
0.158449
0.0404333
0.136109
0.0406005
0.136485
0.395185
0.511169
0.396006
0.512434
0.358253
0.465183
0.358989
0.466355
0.508366
0.393515
0.50973
0.3944
0.462588
0.356764
0.463863
0.357558
0.157278
0.0502004
0.157737
0.0504123
0.135457
0.0402115
0.135862
0.0403907
0.00942515
0.00938516
0.00948887
0.00944869
0.00676511
0.00673616
0.00681199
0.00678288
0.0501163
0.157241
0.0503281
0.1577
0.0401419
0.13542
0.0403209
0.135825
0.393612
0.508683
0.394499
0.510049
0.35684
0.462856
0.357635
0.464132
0.505674
0.391835
0.507145
0.392771
0.460049
0.355213
0.46143
0.35608
0.156442
0.0498327
0.156931
0.050058
0.134706
0.0398951
0.135142
0.0400866
0.00931908
0.00927941
0.00938644
0.00934658
0.00668522
0.00665655
0.00673491
0.00670607
0.0497488
0.156405
0.0499741
0.156894
0.0398257
0.134669
0.0400171
0.135106
0.391931
0.505989
0.392867
0.507461
0.355288
0.460315
0.356155
0.461697
0.502745
0.390029
0.504335
0.391033
0.457304
0.353525
0.458786
0.354455
0.15554
0.0494359
0.156062
0.0496757
0.133894
0.0395535
0.13436
0.0397574
0.00920558
0.00916627
0.0092765
0.00923698
0.00659952
0.00657114
0.00665203
0.00662348
0.0493523
0.155502
0.049592
0.156025
0.0394843
0.133857
0.0396882
0.134323
0.390124
0.503058
0.391128
0.504649
0.353599
0.457567
0.354529
0.459051
0.499583
0.388078
0.501289
0.389154
0.454346
0.351717
0.455936
0.352708
0.154568
0.0490092
0.155125
0.0492639
0.133022
0.0391863
0.133518
0.039403
0.00908422
0.00904529
0.00915904
0.00911988
0.00650796
0.0064799
0.00656331
0.00653507
0.0489259
0.15453
0.0491805
0.155087
0.0391175
0.132985
0.039334
0.133481
0.388171
0.499893
0.389248
0.5016
0.351789
0.454608
0.352781
0.456198
0.496186
0.385982
0.498009
0.387129
0.451168
0.349782
0.452868
0.350836
0.153525
0.0485521
0.154117
0.0488217
0.132087
0.0387928
0.132615
0.0390226
0.00895503
0.0089165
0.00903357
0.00899481
0.00641054
0.00638283
0.0064687
0.00644079
0.0484691
0.153486
0.0487386
0.154079
0.0387243
0.13205
0.0389539
0.132578
0.386073
0.496493
0.387221
0.498317
0.349853
0.451426
0.350908
0.453128
0.492555
0.38374
0.494494
0.38496
0.447763
0.347709
0.449576
0.348834
0.152411
0.0480646
0.153038
0.0483491
0.131086
0.0383725
0.131647
0.0386154
0.00881829
0.0087802
0.0089004
0.00886207
0.00630743
0.00628008
0.00636828
0.00634072
0.047982
0.152372
0.0482664
0.153
0.0383043
0.131048
0.0385471
0.131609
0.383829
0.492858
0.385051
0.494798
0.347778
0.448019
0.348904
0.449833
0.488698
0.381354
0.490748
0.382644
0.444148
0.345486
0.446062
0.346683
0.151227
0.0475478
0.151888
0.0478465
0.13002
0.0379267
0.130611
0.0381819
0.00867438
0.00863677
0.00875985
0.00872197
0.006199
0.00617205
0.00626233
0.00623515
0.0474656
0.151187
0.0477642
0.151849
0.0378589
0.129981
0.0381139
0.130573
0.381442
0.488998
0.382733
0.491049
0.345553
0.444401
0.346751
0.446316
0.484627
0.378835
0.486781
0.38019
0.440337
0.343148
0.442348
0.344399
0.149978
0.047003
0.150671
0.0473153
0.128896
0.0374569
0.129516
0.0377237
0.0085238
0.00848669
0.00861234
0.00857494
0.00608568
0.00605915
0.00615125
0.00612449
0.0469212
0.149938
0.0472333
0.150631
0.0373895
0.128857
0.0376561
0.129477
0.378921
0.484923
0.380277
0.487079
0.343214
0.440587
0.344467
0.442599
0.480354
0.376191
0.482606
0.377606
0.436339
0.340698
0.438441
0.342005
0.148666
0.0464319
0.149389
0.0467567
0.127716
0.0369645
0.128363
0.0372421
0.00836722
0.00833063
0.00845846
0.00842158
0.00596805
0.00594196
0.00603554
0.0060092
0.0463506
0.148626
0.0466751
0.149349
0.0368976
0.127676
0.0371749
0.128324
0.376274
0.480647
0.377691
0.4829
0.340762
0.436585
0.34207
0.438689
0.475902
0.373432
0.47824
0.374903
0.432172
0.338141
0.434354
0.3395
0.147298
0.0458371
0.148048
0.046173
0.126484
0.036452
0.127156
0.036739
0.00820543
0.0081694
0.00829895
0.00826261
0.00584684
0.00582121
0.00591586
0.00588997
0.0457562
0.147257
0.0460919
0.148008
0.0363856
0.126445
0.0366723
0.127117
0.373513
0.47619
0.374985
0.47853
0.338204
0.432415
0.339563
0.434599
0.471295
0.370575
0.473706
0.372092
0.427865
0.335494
0.430113
0.336895
0.145881
0.0452216
0.146655
0.0455671
0.125209
0.0359228
0.125901
0.0362174
0.00803938
0.00800391
0.00813467
0.00809889
0.0057229
0.00569775
0.00579301
0.00576759
0.0451412
0.14584
0.0454865
0.146613
0.0358568
0.125169
0.0361512
0.125861
0.370654
0.471579
0.372172
0.473992
0.335555
0.428104
0.336957
0.430354
0.466564
0.367636
0.469032
0.369191
0.423446
0.332775
0.425745
0.334208
0.144424
0.0445891
0.145216
0.0449421
0.1239
0.0353802
0.124607
0.0356806
0.00787021
0.00783534
0.00796666
0.00793146
0.00559701
0.00557234
0.00566781
0.00564288
0.0445092
0.144382
0.0448621
0.145174
0.0353147
0.12386
0.035615
0.124567
0.367713
0.466844
0.369269
0.469314
0.332834
0.423681
0.334268
0.425983
0.461742
0.364634
0.46425
0.366217
0.418947
0.330003
0.421281
0.33146
0.142935
0.0439441
0.14374
0.0443024
0.122565
0.0348281
0.123284
0.0351324
0.00769929
0.00766503
0.0077962
0.0077616
0.00547023
0.00544607
0.00554115
0.00551672
0.0438648
0.142892
0.0442228
0.143698
0.0347632
0.122524
0.0350673
0.123243
0.364708
0.462017
0.366293
0.464528
0.33006
0.419179
0.331518
0.421515
0.456865
0.36159
0.459395
0.36319
0.414405
0.327198
0.416756
0.328668
0.141425
0.0432913
0.142239
0.0436524
0.121214
0.034271
0.121939
0.0345769
0.00752801
0.00749436
0.00762466
0.00759068
0.00534369
0.00532004
0.00541418
0.00539024
0.0432126
0.141382
0.0435735
0.142197
0.0342067
0.121173
0.0345123
0.121898
0.361662
0.457136
0.363264
0.459668
0.327253
0.414633
0.328724
0.416986
0.451973
0.358527
0.454504
0.360133
0.409855
0.324382
0.412204
0.325854
0.139907
0.0426362
0.140723
0.0429974
0.119859
0.0337134
0.120584
0.0340186
0.00735781
0.0073248
0.00745349
0.00742013
0.00521848
0.00519533
0.00528798
0.00526455
0.0425581
0.139864
0.042919
0.14068
0.0336496
0.119817
0.0339546
0.120543
0.358597
0.452239
0.360204
0.454773
0.324435
0.41008
0.325908
0.41243
0.447106
0.355469
0.449619
0.357069
0.405337
0.321576
0.407665
0.32304
0.138393
0.0419841
0.139205
0.0423427
0.118509
0.0331601
0.11923
0.0334622
0.00719019
0.0071578
0.00728414
0.00725141
0.00509568
0.00507304
0.00516365
0.00514074
0.0419066
0.138349
0.0422649
0.139161
0.0330969
0.118468
0.0333988
0.119188
0.355537
0.447368
0.357138
0.449883
0.321627
0.405557
0.323092
0.407887
0.442306
0.352441
0.44478
0.354022
0.400887
0.318803
0.403175
0.320247
0.136894
0.0413407
0.137696
0.0416938
0.117177
0.0326158
0.117887
0.0329125
0.00702658
0.00699481
0.00711809
0.00708599
0.00497636
0.00495422
0.00504229
0.00501987
0.0412638
0.136849
0.0416166
0.137652
0.0325533
0.117135
0.0328496
0.117845
0.352506
0.442563
0.354089
0.44504
0.318852
0.401103
0.320297
0.403393
0.437602
0.349458
0.440025
0.351015
0.396534
0.316078
0.39877
0.317495
0.13542
0.0407105
0.136208
0.0410561
0.11587
0.0320848
0.116566
0.032374
0.00686826
0.00683711
0.00695674
0.00692526
0.00486144
0.00483979
0.00492488
0.00490297
0.0406343
0.135375
0.0409796
0.136164
0.0320228
0.115828
0.0323118
0.116524
0.349521
0.437855
0.351079
0.44028
0.316125
0.396747
0.317544
0.398985
0.43298
0.346504
0.435369
0.348053
0.392271
0.313392
0.394468
0.314794
0.133961
0.0400925
0.134745
0.0404326
0.114584
0.0315674
0.115272
0.0318499
0.00671565
0.0066851
0.00680112
0.00677025
0.00475138
0.00473021
0.00481224
0.0047908
0.0400169
0.133915
0.0403567
0.1347
0.031506
0.114542
0.0317883
0.115229
0.346565
0.433228
0.348115
0.43562
0.313437
0.39248
0.314841
0.394679
0.428235
0.34341
0.430732
0.345067
0.387936
0.310615
0.390207
0.312093
0.132422
0.0394547
0.133268
0.0398124
0.113252
0.0310441
0.113979
0.0313344
0.00656414
0.00653423
0.00665011
0.00661985
0.00464398
0.00462329
0.004704
0.00468304
0.0393799
0.132376
0.0397371
0.133223
0.0309834
0.11321
0.0312734
0.113936
0.343468
0.428478
0.345126
0.430978
0.310658
0.38814
0.312138
0.390413
0.422619
0.339504
0.425699
0.341708
0.382893
0.307197
0.385645
0.309113
0.130403
0.0386415
0.131574
0.0391208
0.111566
0.0304078
0.112537
0.0307785
0.00638565
0.00635659
0.0064914
0.00646185
0.00452361
0.00450354
0.00459369
0.00457326
0.038568
0.130357
0.0390466
0.131528
0.0303482
0.111523
0.0307184
0.112494