/*--------------------------------*- C++ -*----------------------------------*\
  =========                 |
  \\      /  F ield         | OpenFOAM: The Open Source CFD Toolbox
   \\    /   O peration     | Website:  https://openfoam.org
    \\  /    A nd           | Version:  9
     \\/     M anipulation  |
\*---------------------------------------------------------------------------*/
FoamFile
{
    format      ascii;
    class       surfaceScalarField;
    location    "1.25";
    object      phi;
}
// * * * * * * * * * * * * * * * * * * * * * * * * * * * * * * * * * * * * * //

dimensions      [0 3 -1 0 0 0 0];

internalField   nonuniform List<scalar> 
104044
(
2.67062e-07
-6.46006e-05
3.62513e-07
6.36862e-05
2.84857e-07
-4.78654e-05
-3.22725e-06
-9.40322e-08
5.03261e-05
1.12758e-06
1.17936e-07
5.49136e-07
-2.91241e-07
-2.95292e-06
-4.82833e-08
1.04675e-06
4.0323e-08
-6.15763e-05
6.18985e-05
-5.17831e-05
-8.83303e-09
4.8605e-05
6.87139e-08
-3.40096e-08
-4.8546e-09
-5.50149e-05
-1.14057e-06
5.54733e-05
5.93e-07
-5.69132e-05
-6.49586e-07
1.33668e-09
5.7417e-05
1.39528e-07
-1.12241e-09
-1.18594e-06
3.10024e-07
-1.05882e-06
3.57598e-10
1.76128e-07
-7.68238e-09
-5.76526e-05
5.65109e-05
-5.68813e-05
-1.79308e-10
5.62242e-05
-3.13705e-09
1.74756e-10
9.3063e-13
-5.73636e-05
-7.05324e-07
5.78887e-05
1.81541e-07
-5.73635e-05
-7.05346e-07
-1.33787e-09
5.78886e-05
1.81557e-07
3.31128e-13
-1.0842e-06
2.00462e-07
-1.0842e-06
-3.5795e-10
2.00469e-07
5.30644e-13
-5.67132e-05
5.60077e-05
-5.6713e-05
1.77279e-10
5.60075e-05
2.27281e-13
-1.75328e-10
4.85114e-09
-5.69128e-05
-6.49654e-07
5.74167e-05
1.39569e-07
-5.5014e-05
-1.14051e-06
9.40095e-08
5.54723e-05
5.92978e-07
1.12111e-09
-1.05884e-06
1.76158e-07
-1.18592e-06
4.82749e-08
3.10031e-07
7.67927e-09
-5.68806e-05
5.62234e-05
-5.76515e-05
8.81565e-09
5.65098e-05
3.13534e-09
3.40057e-08
-2.6707e-07
-4.78641e-05
-3.22725e-06
5.0325e-05
1.12744e-06
-6.46027e-05
3.62827e-07
6.36883e-05
2.8458e-07
-1.1794e-07
-2.95303e-06
1.04688e-06
5.49272e-07
-2.91378e-07
-4.02981e-08
-5.17823e-05
4.86042e-05
-6.15798e-05
6.19023e-05
-6.87087e-08
3.14994e-07
-6.27804e-05
-3.52574e-07
6.1925e-05
8.92943e-07
-5.23114e-05
-4.28756e-07
-8.33808e-08
5.34598e-05
-3.21253e-07
3.12384e-07
-8.31063e-08
6.76514e-07
-2.14534e-06
-9.43503e-08
5.6676e-07
-7.58087e-08
-6.1827e-05
6.15502e-05
-4.64169e-05
7.6887e-08
4.58355e-05
-1.16151e-08
3.11349e-08
-1.32888e-08
-5.58951e-05
-1.24868e-06
5.61041e-05
9.69592e-07
-5.78171e-05
-3.57952e-07
1.28199e-10
5.79643e-05
1.97293e-07
-9.17225e-09
-1.49089e-06
9.83906e-07
-5.99087e-07
1.19225e-09
1.88677e-07
-1.16941e-08
-5.50604e-05
5.39003e-05
-5.56169e-05
-2.17553e-09
5.52495e-05
-9.25573e-09
-1.11058e-09
2.17633e-12
-5.83744e-05
-2.9721e-07
5.86208e-05
5.09789e-08
-5.83743e-05
-2.97243e-07
-1.30816e-10
5.86207e-05
5.09893e-08
1.57626e-12
-6.21707e-07
1.37151e-07
-6.21741e-07
-1.19411e-09
1.37178e-07
7.66836e-13
-5.53848e-05
5.50855e-05
-5.53846e-05
2.17301e-09
5.50852e-05
7.01586e-13
1.10702e-09
1.32798e-08
-5.78167e-05
-3.5789e-07
5.7964e-05
1.97206e-07
-5.58941e-05
-1.24861e-06
8.33404e-08
5.61031e-05
9.69575e-07
9.1665e-09
-5.9911e-07
1.88665e-07
-1.49078e-06
9.43172e-08
9.83857e-07
1.16844e-08
-5.56162e-05
5.52488e-05
-5.50595e-05
-7.69403e-08
5.38995e-05
9.24912e-09
-3.11709e-08
-3.15009e-07
-5.23106e-05
-4.28657e-07
5.34592e-05
-3.21595e-07
-6.27825e-05
-3.52672e-07
6.1927e-05
8.93136e-07
-3.12397e-07
-2.14532e-06
5.66448e-07
-8.30366e-08
6.76444e-07
7.58858e-08
-4.6416e-05
4.58345e-05
-6.18309e-05
6.15541e-05
1.16632e-08
2.30486e-07
-6.12231e-05
-7.83495e-07
6.06372e-05
1.13888e-06
-5.41336e-05
1.18149e-06
-3.00056e-08
5.46354e-05
-1.42277e-06
2.79443e-07
-5.98177e-07
1.02065e-06
6.44079e-07
-5.9301e-08
-9.79132e-07
-2.35844e-07
-6.11051e-05
6.05574e-05
-4.62013e-05
1.73318e-07
4.69736e-05
-1.53004e-07
1.25278e-07
-1.22482e-08
-5.61347e-05
-5.84567e-07
5.61055e-05
5.96088e-07
-5.79386e-05
-5.14341e-08
-2.71969e-09
5.78562e-05
1.24321e-07
-1.2836e-08
-8.40234e-07
7.63101e-07
-1.3788e-07
-1.42421e-09
1.52189e-07
-1.07538e-08
-5.31974e-05
5.27969e-05
-5.51023e-05
-3.39428e-09
5.50435e-05
-1.20302e-08
-2.76925e-09
1.68471e-12
-5.86859e-05
3.82362e-08
5.86714e-05
-2.63827e-08
-5.86859e-05
3.82049e-08
2.71586e-09
5.86714e-05
-2.63821e-08
2.35178e-12
-5.12516e-08
-1.53519e-08
-5.12754e-08
1.42101e-09
-1.53578e-08
4.08383e-13
-5.50314e-05
5.50663e-05
-5.50312e-05
3.38991e-09
5.5066e-05
4.76469e-13
2.76559e-09
1.22381e-08
-5.79383e-05
-5.14006e-08
5.78559e-05
1.24281e-07
-5.61338e-05
-5.84666e-07
2.99539e-08
5.61046e-05
5.96157e-07
1.28258e-08
-1.37814e-07
1.52108e-07
-8.40279e-07
5.92553e-08
7.6314e-07
1.07354e-08
-5.51017e-05
5.5043e-05
-5.31966e-05
-1.73405e-07
5.2796e-05
1.20164e-08
-1.25348e-07
-2.30493e-07
-5.41332e-05
1.18178e-06
5.46351e-05
-1.42329e-06
-6.1225e-05
-7.83975e-07
6.0639e-05
1.13947e-06
-2.79456e-07
6.44247e-07
-9.79553e-07
-5.98549e-07
1.02109e-06
2.35989e-07
-4.62003e-05
4.69727e-05
-6.11087e-05
6.05607e-05
1.53113e-07
1.12709e-07
-6.01521e-05
-1.01499e-06
5.97307e-05
1.32364e-06
-5.50332e-05
1.49461e-06
2.32698e-08
5.53723e-05
-1.74424e-06
1.69733e-07
-9.12526e-07
1.22796e-06
1.40838e-06
2.99864e-10
-1.63678e-06
-3.78274e-07
-5.99532e-05
5.93165e-05
-4.78622e-05
2.46148e-07
4.87324e-05
-3.08341e-07
2.11399e-07
-7.58547e-09
-5.60808e-05
-3.77977e-07
5.60647e-05
4.24924e-07
-5.77629e-05
-6.06832e-08
-6.28454e-09
5.76781e-05
1.44157e-07
-1.55599e-08
-4.38959e-07
4.79524e-07
-4.17521e-08
-3.31641e-09
1.22769e-07
-3.42926e-09
-5.2577e-05
5.24486e-05
-5.50002e-05
-7.12726e-09
5.49432e-05
-7.6368e-09
-6.04214e-09
1.58633e-13
-5.8636e-05
1.95066e-08
5.85928e-05
1.73518e-08
-5.8636e-05
1.9468e-08
6.28124e-09
5.85929e-05
1.73606e-08
1.9026e-12
4.06509e-08
-8.57579e-09
4.06126e-08
3.31389e-09
-8.56319e-09
-2.8285e-13
-5.51009e-05
5.51133e-05
-5.51006e-05
7.11569e-09
5.51129e-05
2.66672e-13
6.03572e-09
7.56232e-09
-5.77627e-05
-6.0701e-08
5.76779e-05
1.44173e-07
-5.608e-05
-3.78073e-07
-2.33109e-08
5.60639e-05
4.24986e-07
1.55312e-08
-4.17548e-08
1.22766e-07
-4.3907e-07
-3.56791e-10
4.79595e-07
3.40133e-09
-5.49996e-05
5.49427e-05
-5.25761e-05
-2.46261e-07
5.24477e-05
7.61404e-09
-2.11499e-07
-1.12689e-07
-5.50331e-05
1.49511e-06
5.53723e-05
-1.74495e-06
-6.01537e-05
-1.01551e-06
5.97322e-05
1.32435e-06
-1.69728e-07
1.40878e-06
-1.63739e-06
-9.13037e-07
1.22862e-06
3.78486e-07
-4.78615e-05
4.87318e-05
-5.99562e-05
5.93192e-05
3.08519e-07
1.06939e-08
-5.93653e-05
-1.09591e-06
5.90327e-05
1.41777e-06
-5.56364e-05
1.43169e-06
9.13796e-08
5.58494e-05
-1.72529e-06
5.80146e-08
-1.06381e-06
1.37126e-06
1.46746e-06
6.60625e-08
-1.73965e-06
-4.82316e-07
-5.86835e-05
5.80699e-05
-4.95008e-05
2.8927e-07
5.01609e-05
-4.30762e-07
2.68373e-07
3.55622e-09
-5.60759e-05
-3.13596e-07
5.60964e-05
3.80943e-07
-5.76004e-05
-1.12145e-07
-6.82194e-09
5.75262e-05
1.96709e-07
-2.15769e-09
-3.34596e-07
3.91538e-07
-8.67052e-08
-7.10611e-09
1.69373e-07
7.11276e-09
-5.23807e-05
5.23493e-05
-5.48652e-05
-6.41325e-09
5.47666e-05
1.64214e-09
-7.09504e-09
-1.48388e-12
-5.85429e-05
-2.46455e-08
5.84883e-05
7.24197e-08
-5.8543e-05
-2.46635e-08
6.80082e-09
5.84885e-05
7.24372e-08
2.01317e-12
-2.0158e-09
4.47895e-08
-2.03996e-09
7.08787e-09
4.48214e-08
-2.36577e-12
-5.51042e-05
5.50731e-05
-5.51038e-05
6.38792e-09
5.50728e-05
-1.06233e-12
7.07708e-09
-3.59079e-09
-5.76002e-05
-1.12166e-07
5.75261e-05
1.96727e-07
-5.60753e-05
-3.1363e-07
-9.14766e-08
5.60958e-05
3.8097e-07
2.12429e-09
-8.67265e-08
1.69384e-07
-3.34652e-07
-6.61567e-08
3.91564e-07
-7.15153e-09
-5.48647e-05
5.47661e-05
-5.23798e-05
-2.89399e-07
5.23484e-05
-1.67575e-09
-2.68494e-07
-1.06356e-08
-5.56366e-05
1.43227e-06
5.58495e-05
-1.72609e-06
-5.93665e-05
-1.09643e-06
5.90338e-05
1.41851e-06
-5.79744e-08
1.46801e-06
-1.74042e-06
-1.06432e-06
1.37197e-06
4.82583e-07
-4.95003e-05
5.01606e-05
-5.86859e-05
5.8072e-05
4.31001e-07
-6.48842e-08
-5.87336e-05
-1.08333e-06
5.84536e-05
1.4282e-06
-5.60099e-05
1.31209e-06
1.18988e-07
5.61291e-05
-1.61511e-06
-3.00298e-08
-1.08828e-06
1.4174e-06
1.36136e-06
1.06645e-07
-1.65858e-06
-5.52118e-07
-5.74973e-05
5.69661e-05
-5.07076e-05
3.1021e-07
5.11574e-05
-5.15682e-07
2.989e-07
1.47536e-08
-5.61183e-05
-2.83314e-07
5.6137e-05
3.68846e-07
-5.74535e-05
-1.36723e-07
-4.73049e-09
5.738e-05
2.29755e-07
9.17023e-09
-2.92546e-07
3.68136e-07
-1.26495e-07
-5.46535e-09
2.13829e-07
1.79091e-08
-5.23431e-05
5.23521e-05
-5.46578e-05
-4.79057e-09
5.45438e-05
1.24801e-08
-5.24753e-09
-3.93482e-12
-5.843e-05
-5.68128e-08
5.83634e-05
1.18675e-07
-5.84301e-05
-5.68151e-08
4.71486e-09
5.83636e-05
1.18677e-07
-2.60322e-12
-4.31487e-08
9.60293e-08
-4.31561e-08
5.43565e-09
9.60418e-08
-4.16467e-12
-5.50247e-05
5.49631e-05
-5.50244e-05
4.77421e-09
5.49628e-05
-3.16647e-12
5.23342e-09
-1.47972e-08
-5.74534e-05
-1.36734e-07
5.73798e-05
2.29775e-07
-5.61178e-05
-2.83322e-07
-1.19091e-07
5.61365e-05
3.68854e-07
-9.21118e-09
-1.26512e-07
2.13852e-07
-2.92564e-07
-1.06745e-07
3.68147e-07
-1.79564e-08
-5.46573e-05
5.45433e-05
-5.23424e-05
-3.10345e-07
5.23515e-05
-1.25231e-08
-2.99032e-07
6.49775e-08
-5.60101e-05
1.31267e-06
5.61293e-05
-1.61592e-06
-5.87346e-05
-1.08384e-06
5.84545e-05
1.42893e-06
3.01059e-08
1.36195e-06
-1.65939e-06
-1.0888e-06
1.41813e-06
5.52423e-07
-5.07076e-05
5.11575e-05
-5.74992e-05
5.69678e-05
5.15966e-07
-1.16923e-07
-5.81962e-05
-1.03927e-06
5.79505e-05
1.40187e-06
-5.62075e-05
1.19775e-06
1.30939e-07
5.62539e-05
-1.49198e-06
-9.24769e-08
-1.05341e-06
1.4033e-06
1.24201e-06
1.25065e-07
-1.53802e-06
-5.96144e-07
-5.64835e-05
5.60404e-05
-5.15169e-05
3.1698e-07
5.18015e-05
-5.70835e-07
3.11673e-07
2.12874e-08
-5.61496e-05
-2.68373e-07
5.61536e-05
3.73967e-07
-5.7305e-05
-1.46295e-07
-3.13105e-09
5.72259e-05
2.49773e-07
1.80398e-08
-2.70628e-07
3.65095e-07
-1.40648e-07
-3.97264e-09
2.3769e-07
2.74276e-08
-5.23705e-05
5.23917e-05
-5.44299e-05
-3.21818e-09
5.43142e-05
2.26406e-08
-4.04e-09
-5.88488e-12
-5.82896e-05
-7.73174e-08
5.82073e-05
1.56534e-07
-5.82898e-05
-7.73128e-08
3.11155e-09
5.82074e-05
1.56525e-07
-4.95747e-12
-6.68496e-08
1.36704e-07
-6.6848e-08
3.95506e-09
1.36699e-07
-6.05475e-12
-5.48922e-05
5.48117e-05
-5.48919e-05
3.19788e-09
5.48114e-05
-5.06448e-12
4.02187e-09
-2.13235e-08
-5.73048e-05
-1.46306e-07
5.72258e-05
2.49792e-07
-5.61492e-05
-2.68367e-07
-1.31044e-07
5.61533e-05
3.73975e-07
-1.8073e-08
-1.40658e-07
2.37707e-07
-2.70624e-07
-1.25168e-07
3.651e-07
-2.74815e-08
-5.44294e-05
5.43137e-05
-5.23699e-05
-3.17114e-07
5.23912e-05
-2.26909e-08
-3.11807e-07
1.17043e-07
-5.62078e-05
1.19831e-06
5.62542e-05
-1.49277e-06
-5.8197e-05
-1.03976e-06
5.79512e-05
1.40257e-06
9.25837e-08
1.24258e-06
-1.53882e-06
-1.05391e-06
1.404e-06
5.96473e-07
-5.15171e-05
5.18018e-05
-5.6485e-05
5.60417e-05
5.71149e-07
-1.51885e-07
-5.77199e-05
-9.95235e-07
5.74953e-05
1.37175e-06
-5.62697e-05
1.09886e-06
1.34392e-07
5.62603e-05
-1.37579e-06
-1.34808e-07
-1.00818e-06
1.3736e-06
1.13673e-06
1.3209e-07
-1.4194e-06
-6.22575e-07
-5.56374e-05
5.52647e-05
-5.20191e-05
3.15718e-07
5.21797e-05
-6.05172e-07
3.13976e-07
2.65827e-08
-5.61471e-05
-2.6626e-07
5.61286e-05
3.92621e-07
-5.71437e-05
-1.52984e-07
-1.02677e-09
5.70561e-05
2.68228e-07
2.38263e-08
-2.62693e-07
3.77442e-07
-1.48131e-07
-2.10156e-09
2.56233e-07
3.51547e-08
-5.24118e-05
5.24261e-05
-5.41995e-05
-1.16585e-09
5.40828e-05
3.12137e-08
-2.21198e-09
-7.81961e-12
-5.8118e-05
-9.61743e-08
5.80199e-05
1.93267e-07
-5.81182e-05
-9.61701e-08
1.00266e-09
5.80201e-05
1.93262e-07
-6.78117e-12
-8.59304e-08
1.73084e-07
-8.59264e-08
2.08004e-09
1.73078e-07
-8.01169e-12
-5.47236e-05
5.46262e-05
-5.47233e-05
1.14095e-09
5.46259e-05
-6.96178e-12
2.18972e-09
-2.66238e-08
-5.71436e-05
-1.52991e-07
5.7056e-05
2.68233e-07
-5.61468e-05
-2.66263e-07
-1.34492e-07
5.61283e-05
3.92639e-07
-2.38647e-08
-1.48141e-07
2.56246e-07
-2.62691e-07
-1.32192e-07
3.77456e-07
-3.52135e-08
-5.4199e-05
5.40824e-05
-5.24114e-05
-3.15845e-07
5.24257e-05
-3.12695e-08
-3.14106e-07
1.52021e-07
-5.62699e-05
1.09938e-06
5.62606e-05
-1.37654e-06
-5.77205e-05
-9.95707e-07
5.74958e-05
1.37243e-06
1.34936e-07
1.13727e-06
-1.42017e-06
-1.00866e-06
1.37428e-06
6.22916e-07
-5.20195e-05
5.21801e-05
-5.56386e-05
5.52658e-05
6.05505e-07
-1.7501e-07
-5.72804e-05
-9.60127e-07
5.70666e-05
1.34898e-06
-5.62271e-05
1.01426e-06
1.33346e-07
5.61733e-05
-1.26887e-06
-1.62987e-07
-9.68691e-07
1.34658e-06
1.04597e-06
1.32926e-07
-1.30863e-06
-6.36612e-07
-5.49205e-05
5.4597e-05
-5.22912e-05
3.09612e-07
5.23593e-05
-6.24509e-07
3.0991e-07
3.08752e-08
-5.60972e-05
-2.74796e-07
5.60518e-05
4.22695e-07
-5.69641e-05
-1.60311e-07
1.28685e-09
5.68648e-05
2.89158e-07
2.85618e-08
-2.6643e-07
4.0218e-07
-1.54705e-07
1.19471e-10
2.75172e-07
4.10357e-08
-5.24316e-05
5.24254e-05
-5.39661e-05
1.09336e-09
5.38457e-05
3.79367e-08
-4.41528e-11
-9.43361e-12
-5.79147e-05
-1.15117e-07
5.78e-05
2.31128e-07
-5.79149e-05
-1.15113e-07
-1.31521e-09
5.78002e-05
2.31124e-07
-8.60354e-12
-1.04507e-07
2.09837e-07
-1.04503e-07
-1.45592e-10
2.09832e-07
-9.54639e-12
-5.45217e-05
5.44077e-05
-5.45214e-05
-1.1226e-09
5.44074e-05
-8.71706e-12
1.70709e-11
-3.09203e-08
-5.6964e-05
-1.60318e-07
5.68647e-05
2.89163e-07
-5.6097e-05
-2.74807e-07
-1.33441e-07
5.60516e-05
4.22726e-07
-2.86046e-08
-1.54712e-07
2.75176e-07
-2.66438e-07
-1.33022e-07
4.02206e-07
-4.11012e-08
-5.39657e-05
5.38454e-05
-5.24313e-05
-3.09745e-07
5.24252e-05
-3.80004e-08
-3.10046e-07
1.75157e-07
-5.62273e-05
1.01476e-06
5.61736e-05
-1.26959e-06
-5.72808e-05
-9.60577e-07
5.70669e-05
1.34964e-06
1.63128e-07
1.04648e-06
-1.30936e-06
-9.69145e-07
1.34724e-06
6.36957e-07
-5.22917e-05
5.23597e-05
-5.49215e-05
5.45979e-05
6.24849e-07
-1.90124e-07
-5.68578e-05
-9.3513e-07
5.66461e-05
1.33694e-06
-5.61002e-05
9.41949e-07
1.30027e-07
5.60094e-05
-1.17129e-06
-1.81643e-07
-9.39771e-07
1.33013e-06
9.69022e-07
1.30625e-07
-1.2082e-06
-6.42412e-07
-5.42916e-05
5.39989e-05
-5.23908e-05
3.0202e-07
5.23883e-05
-6.34384e-07
3.03114e-07
3.43065e-08
-5.59928e-05
-2.90037e-07
5.59189e-05
4.59696e-07
-5.67593e-05
-1.70519e-07
3.58939e-09
5.66446e-05
3.15901e-07
3.23778e-08
-2.78703e-07
4.35932e-07
-1.63363e-07
2.42597e-09
2.98818e-07
4.54221e-08
-5.24068e-05
5.23734e-05
-5.37232e-05
3.34165e-09
5.35947e-05
4.29818e-08
2.20543e-09
-1.04316e-11
-5.76776e-05
-1.3502e-07
5.75448e-05
2.71452e-07
-5.76778e-05
-1.35017e-07
-3.62096e-09
5.7545e-05
2.71451e-07
-9.93135e-12
-1.23729e-07
2.48543e-07
-1.23726e-07
-2.45569e-09
2.4854e-07
-1.05338e-11
-5.42862e-05
5.41545e-05
-5.42859e-05
-3.37321e-09
5.41543e-05
-1.0113e-11
-2.23566e-09
-3.43546e-08
-5.67593e-05
-1.70523e-07
5.66446e-05
3.15902e-07
-5.59926e-05
-2.90052e-07
-1.30118e-07
5.59187e-05
4.59733e-07
-3.2424e-08
-1.63368e-07
2.98822e-07
-2.78714e-07
-1.30718e-07
4.35964e-07
-4.54854e-08
-5.37228e-05
5.35944e-05
-5.24066e-05
-3.02134e-07
5.23732e-05
-4.30438e-08
-3.03228e-07
1.90277e-07
-5.61005e-05
9.42422e-07
5.60096e-05
-1.17199e-06
-5.68582e-05
-9.3556e-07
5.66464e-05
1.33757e-06
1.81792e-07
9.69502e-07
-1.20891e-06
-9.40207e-07
1.33077e-06
6.4276e-07
-5.23913e-05
5.23888e-05
-5.42924e-05
5.39996e-05
6.34729e-07
-1.99662e-07
-5.64357e-05
-9.19083e-07
5.62191e-05
1.33541e-06
-5.59008e-05
8.78938e-07
1.25663e-07
5.57759e-05
-1.07934e-06
-1.93516e-07
-9.18739e-07
1.32265e-06
9.03166e-07
1.26641e-07
-1.11475e-06
-6.42772e-07
-5.37168e-05
5.34405e-05
-5.23601e-05
2.94451e-07
5.23018e-05
-6.36681e-07
2.94734e-07
3.70166e-08
-5.58309e-05
-3.10246e-07
5.57273e-05
5.02467e-07
-5.65222e-05
-1.84268e-07
5.74722e-09
5.63887e-05
3.49079e-07
3.53907e-08
-2.95887e-07
4.75104e-07
-1.75098e-07
4.64583e-09
3.28281e-07
4.85476e-08
-5.23256e-05
5.22612e-05
-5.34619e-05
5.44969e-09
5.33207e-05
4.66591e-08
4.37749e-09
-1.04231e-11
-5.74035e-05
-1.56376e-07
5.72506e-05
3.15099e-07
-5.74038e-05
-1.56374e-07
-5.77912e-09
5.72508e-05
3.15101e-07
-1.03081e-11
-1.44055e-07
2.89939e-07
-1.44053e-07
-4.67879e-09
2.89944e-07
-9.82314e-12
-5.40148e-05
5.38639e-05
-5.40146e-05
-5.47925e-09
5.38637e-05
-1.03131e-11
-4.4089e-09
-3.70652e-08
-5.65222e-05
-1.84267e-07
5.63887e-05
3.49074e-07
-5.58308e-05
-3.10268e-07
-1.25748e-07
5.57272e-05
5.02508e-07
-3.54389e-08
-1.75099e-07
3.28276e-07
-2.95906e-07
-1.26729e-07
4.75142e-07
-4.86102e-08
-5.34616e-05
5.33205e-05
-5.23255e-05
-2.94569e-07
5.22612e-05
-4.6722e-08
-2.94854e-07
1.99817e-07
-5.5901e-05
8.79403e-07
5.57761e-05
-1.08003e-06
-5.6436e-05
-9.19491e-07
5.62193e-05
1.33601e-06
1.93668e-07
9.03635e-07
-1.11544e-06
-9.19153e-07
1.32326e-06
6.43121e-07
-5.23606e-05
5.23023e-05
-5.37175e-05
5.34411e-05
6.37026e-07
-2.05382e-07
-5.60008e-05
-9.10575e-07
5.57733e-05
1.34342e-06
-5.56358e-05
8.20393e-07
1.21018e-07
5.54795e-05
-9.90518e-07
-2.0098e-07
-9.07337e-07
1.32664e-06
8.42386e-07
1.22179e-07
-1.02541e-06
-6.39322e-07
-5.31686e-05
5.28973e-05
-5.22205e-05
2.87403e-07
5.21141e-05
-6.35388e-07
2.88304e-07
3.91318e-08
-5.56097e-05
-3.34355e-07
5.54758e-05
5.50169e-07
-5.62457e-05
-2.0125e-07
7.68278e-09
5.60896e-05
3.88841e-07
3.77748e-08
-3.18399e-07
5.2039e-07
-1.9051e-07
6.68199e-09
3.64565e-07
4.94942e-08
-5.21819e-05
5.20854e-05
-5.31731e-05
7.18546e-09
5.30142e-05
4.92451e-08
6.36603e-09
-2.51269e-11
-5.70883e-05
-1.79456e-07
5.69131e-05
3.62355e-07
-5.70886e-05
-1.79472e-07
-7.71443e-09
5.69134e-05
3.62355e-07
-1.07485e-11
-1.66108e-07
3.35058e-07
-1.66105e-07
-6.71124e-09
3.35058e-07
-1.02259e-10
-5.37042e-05
5.3532e-05
-5.3704e-05
-7.5013e-09
5.35319e-05
-1.12333e-11
-6.37476e-09
-3.91304e-08
-5.62457e-05
-2.01344e-07
5.60896e-05
3.88839e-07
-5.56096e-05
-3.34281e-07
-1.21114e-07
5.54757e-05
5.50207e-07
-3.78193e-08
-1.90498e-07
3.64558e-07
-3.18432e-07
-1.2226e-07
5.20433e-07
-5.03424e-08
-5.31727e-05
5.30142e-05
-5.2182e-05
-2.87779e-07
5.20851e-05
-4.91367e-08
-2.88396e-07
2.05527e-07
-5.5636e-05
8.20881e-07
5.54796e-05
-9.912e-07
-5.60009e-05
-9.10954e-07
5.57734e-05
1.344e-06
2.01134e-07
8.42847e-07
-1.02609e-06
-9.07729e-07
1.32722e-06
6.39591e-07
-5.2221e-05
5.21145e-05
-5.31691e-05
5.28977e-05
6.35734e-07
-2.08414e-07
-5.55416e-05
-9.07963e-07
5.52981e-05
1.35986e-06
-5.53084e-05
7.66575e-07
1.16466e-07
5.5121e-05
-9.04114e-07
-2.051e-07
-9.01368e-07
1.33817e-06
7.8706e-07
1.17551e-07
-9.3857e-07
-6.33136e-07
-5.2626e-05
5.23512e-05
-5.19897e-05
2.80097e-07
5.18431e-05
-6.30089e-07
2.81391e-07
4.07828e-08
-5.53276e-05
-3.60793e-07
5.5162e-05
6.02024e-07
-5.59228e-05
-2.21835e-07
9.12132e-09
5.57409e-05
4.35323e-07
3.94732e-08
-3.4321e-07
5.69491e-07
-2.09014e-07
8.14507e-09
4.07128e-07
4.89921e-08
-5.19734e-05
5.18437e-05
-5.2847e-05
7.99263e-09
5.26662e-05
5.02548e-08
8.36391e-09
1.2732e-10
-5.67276e-05
-2.04356e-07
5.65276e-05
4.13424e-07
-5.6728e-05
-2.04491e-07
-8.56379e-09
5.65278e-05
4.13368e-07
-6.6333e-11
-1.89862e-07
3.8356e-07
-1.8981e-07
-8.40811e-09
3.83566e-07
-3.20249e-10
-5.33504e-05
5.31543e-05
-5.33501e-05
-9.18358e-09
5.31544e-05
1.36263e-10
-7.85017e-09
-4.05585e-08
-5.59227e-05
-2.21934e-07
5.57412e-05
4.35423e-07
-5.53275e-05
-3.60532e-07
-1.1656e-07
5.5162e-05
6.02085e-07
-3.96718e-08
-2.08854e-07
4.07087e-07
-3.43431e-07
-1.17614e-07
5.69542e-07
-5.11873e-08
-5.28464e-05
5.26665e-05
-5.19739e-05
-2.80871e-07
5.18431e-05
-4.88588e-08
-2.81068e-07
2.08549e-07
-5.53085e-05
7.671e-07
5.51211e-05
-9.04782e-07
-5.55417e-05
-9.0831e-07
5.52982e-05
1.36041e-06
2.05268e-07
7.8745e-07
-9.39222e-07
-9.01768e-07
1.33874e-06
6.33289e-07
-5.19903e-05
5.18433e-05
-5.26265e-05
5.23515e-05
6.30552e-07
-2.09683e-07
-5.50482e-05
-9.11152e-07
5.47843e-05
1.38479e-06
-5.49193e-05
7.1439e-07
1.12263e-07
5.4701e-05
-8.18086e-07
-2.07089e-07
-9.01463e-07
1.35842e-06
7.34703e-07
1.13197e-07
-8.53241e-07
-6.25372e-07
-5.20726e-05
5.17868e-05
-5.16803e-05
2.73018e-07
5.14963e-05
-6.22871e-07
2.74581e-07
4.17981e-08
-5.49819e-05
-3.89272e-07
5.47834e-05
6.58234e-07
-5.55474e-05
-2.4621e-07
9.69059e-09
5.53371e-05
4.88661e-07
4.07227e-08
-3.70239e-07
6.22893e-07
-2.31331e-07
9.0168e-09
4.56538e-07
4.83377e-08
-5.16971e-05
5.15325e-05
-5.24761e-05
8.36293e-09
5.22698e-05
5.08934e-08
9.7011e-09
-5.10516e-11
-5.6316e-05
-2.31473e-07
5.60882e-05
4.6903e-07
-5.63163e-05
-2.3164e-07
-9.64809e-09
5.60885e-05
4.6902e-07
-5.15253e-11
-2.15592e-07
4.36182e-07
-2.15426e-07
-9.33788e-09
4.36176e-07
-5.49561e-10
-5.2948e-05
5.27255e-05
-5.29475e-05
-1.04557e-08
5.27258e-05
4.05129e-10
-8.09306e-09
-4.16921e-08
-5.55475e-05
-2.46412e-07
5.53372e-05
4.88684e-07
-5.49819e-05
-3.88917e-07
-1.12392e-07
5.47833e-05
6.58262e-07
-4.09738e-08
-2.31159e-07
4.56504e-07
-3.7062e-07
-1.13234e-07
6.22963e-07
-5.16336e-08
-5.24754e-05
5.22702e-05
-5.16981e-05
-2.74124e-07
5.15317e-05
-4.81985e-08
-2.73856e-07
2.09797e-07
-5.49194e-05
7.14942e-07
5.4701e-05
-8.18745e-07
-5.50483e-05
-9.11476e-07
5.47843e-05
1.38532e-06
2.07272e-07
7.35032e-07
-8.53865e-07
-9.01868e-07
1.35897e-06
6.25425e-07
-5.1681e-05
5.14964e-05
-5.20731e-05
5.1787e-05
6.23441e-07
-2.09461e-07
-5.45122e-05
-9.18091e-07
5.42239e-05
1.41588e-06
-5.44687e-05
6.60821e-07
1.08367e-07
5.42191e-05
-7.29019e-07
-2.07552e-07
-9.06497e-07
1.38613e-06
6.82564e-07
1.09211e-07
-7.67009e-07
-6.15807e-07
-5.14945e-05
5.11922e-05
-5.12969e-05
2.65949e-07
5.10759e-05
-6.14172e-07
2.67836e-07
4.24457e-08
-5.45698e-05
-4.19066e-07
5.43367e-05
7.18039e-07
-5.51138e-05
-2.73729e-07
1.03723e-08
5.4872e-05
5.47575e-07
4.15778e-08
-3.99048e-07
6.8028e-07
-2.57134e-07
9.90664e-09
5.12149e-07
4.76288e-08
-5.13502e-05
5.11495e-05
-5.20529e-05
8.85681e-09
5.1818e-05
5.11201e-08
1.08771e-08
-7.18033e-11
-5.58481e-05
-2.60887e-07
5.55901e-05
5.29395e-07
-5.58484e-05
-2.61099e-07
-1.03726e-08
5.55904e-05
5.29386e-07
2.22259e-11
-2.43595e-07
4.93568e-07
-2.43385e-07
-9.96587e-09
4.93531e-07
-6.90581e-10
-5.24922e-05
5.22408e-05
-5.24915e-05
-1.15546e-08
5.22413e-05
5.80908e-10
-8.53517e-09
-4.23274e-08
-5.51138e-05
-2.73952e-07
5.48721e-05
5.47598e-07
-5.45698e-05
-4.18639e-07
-1.08503e-07
5.43366e-05
7.18061e-07
-4.17955e-08
-2.56915e-07
5.12144e-07
-3.99524e-07
-1.09233e-07
6.80367e-07
-5.16677e-08
-5.20523e-05
5.18184e-05
-5.13515e-05
-2.67256e-07
5.11484e-05
-4.75271e-08
-2.66849e-07
2.09565e-07
-5.44688e-05
6.61389e-07
5.42191e-05
-7.29683e-07
-5.45122e-05
-9.18399e-07
5.42238e-05
1.41639e-06
2.0774e-07
6.82856e-07
-7.67618e-07
-9.06901e-07
1.38668e-06
6.15801e-07
-5.12976e-05
5.10759e-05
-5.14949e-05
5.11923e-05
6.14801e-07
-2.08284e-07
-5.39254e-05
-9.29446e-07
5.36086e-05
1.45456e-06
-5.3953e-05
6.05478e-07
1.04784e-07
5.36671e-05
-6.32602e-07
-2.06862e-07
-9.15672e-07
1.42102e-06
6.2877e-07
1.05547e-07
-6.75122e-07
-6.05577e-07
-5.0881e-05
5.05571e-05
-5.08391e-05
2.59214e-07
5.05797e-05
-6.04422e-07
2.61221e-07
4.2801e-08
-5.40877e-05
-4.50725e-07
5.38179e-05
7.82506e-07
-5.4616e-05
-3.04455e-07
1.09578e-08
5.43399e-05
6.12403e-07
4.20617e-08
-4.2947e-07
7.42012e-07
-2.86053e-07
1.05438e-08
5.73542e-07
4.68992e-08
-5.09302e-05
5.06918e-05
-5.15711e-05
9.40199e-09
5.13041e-05
5.10291e-08
1.18761e-08
-7.88261e-11
-5.53186e-05
-2.9302e-07
5.50273e-05
5.95319e-07
-5.53188e-05
-2.93259e-07
-1.09585e-08
5.50276e-05
5.9531e-07
2.76825e-11
-2.74149e-07
5.56186e-07
-2.73903e-07
-1.06064e-08
5.56145e-07
-7.70775e-10
-5.19779e-05
5.1695e-05
-5.19771e-05
-1.24729e-08
5.16956e-05
6.83922e-10
-9.06612e-09
-4.26737e-08
-5.46161e-05
-3.04693e-07
5.43401e-05
6.12429e-07
-5.40878e-05
-4.50252e-07
-1.04926e-07
5.38177e-05
7.82527e-07
-4.22937e-08
-2.85819e-07
5.73539e-07
-4.30005e-07
-1.05558e-07
7.42104e-07
-5.14455e-08
-5.15704e-05
5.13046e-05
-5.09317e-05
-2.60647e-07
5.06906e-05
-4.68257e-08
-2.60069e-07
2.08382e-07
-5.39531e-05
6.06056e-07
5.3667e-05
-6.33259e-07
-5.39254e-05
-9.2974e-07
5.36085e-05
1.45506e-06
2.07052e-07
6.29042e-07
-6.75736e-07
-9.1607e-07
1.42154e-06
6.05534e-07
-5.08398e-05
5.05797e-05
-5.08813e-05
5.05571e-05
6.05084e-07
-2.06436e-07
-5.32803e-05
-9.44844e-07
5.2932e-05
1.49959e-06
-5.33651e-05
5.47661e-07
1.01565e-07
5.3043e-05
-5.33587e-07
-2.05323e-07
-9.28847e-07
1.46244e-06
5.72764e-07
1.02174e-07
-5.78232e-07
-5.94709e-07
-5.02222e-05
4.98721e-05
-5.03038e-05
2.52695e-07
5.00041e-05
-5.93934e-07
2.54764e-07
4.28825e-08
-5.35317e-05
-4.84465e-07
5.32237e-05
8.51131e-07
-5.40486e-05
-3.38245e-07
1.14284e-08
5.37354e-05
6.82892e-07
4.22698e-08
-4.61817e-07
8.07896e-07
-3.18026e-07
1.10675e-08
6.40545e-07
4.61262e-08
-5.0434e-05
5.01561e-05
-5.10241e-05
9.92966e-09
5.07221e-05
5.06989e-08
1.26936e-08
-8.30776e-11
-5.47215e-05
-3.27728e-07
5.43941e-05
6.66578e-07
-5.47217e-05
-3.27976e-07
-1.14349e-08
5.43944e-05
6.6657e-07
3.09661e-11
-3.07282e-07
6.24133e-07
-3.07017e-07
-1.11288e-08
6.24088e-07
-8.05243e-10
-5.13997e-05
5.10827e-05
-5.13989e-05
-1.31628e-08
5.10833e-05
7.39433e-10
-9.60532e-09
-4.27523e-08
-5.40487e-05
-3.38501e-07
5.37356e-05
6.82921e-07
-5.35318e-05
-4.83966e-07
-1.01709e-07
5.32236e-05
8.51152e-07
-4.25078e-08
-3.17778e-07
6.40543e-07
-4.62386e-07
-1.02179e-07
8.07993e-07
-5.1006e-08
-5.10233e-05
5.07227e-05
-5.04357e-05
-2.54201e-07
5.01549e-05
-4.60792e-08
-2.5351e-07
2.06529e-07
-5.33652e-05
5.4824e-07
5.30429e-05
-5.34226e-07
-5.32803e-05
-9.45126e-07
5.29318e-05
1.50008e-06
2.05514e-07
5.73026e-07
-5.7883e-07
-9.29235e-07
1.46295e-06
5.94642e-07
-5.03046e-05
5.0004e-05
-5.02225e-05
4.9872e-05
5.94609e-07
-2.04078e-07
-5.25709e-05
-9.63939e-07
5.21875e-05
1.55147e-06
-5.27048e-05
4.91371e-07
9.86258e-08
5.23441e-05
-4.33366e-07
-2.03246e-07
-9.45941e-07
1.51026e-06
5.149e-07
9.91618e-08
-4.79135e-07
-5.83435e-07
-4.95091e-05
4.91286e-05
-4.96876e-05
2.46435e-07
4.93491e-05
-5.82945e-07
2.48461e-07
4.2721e-08
-5.28987e-05
-5.20052e-07
5.25499e-05
9.24714e-07
-5.34059e-05
-3.75042e-07
1.17799e-08
5.30528e-05
7.59145e-07
4.22263e-08
-4.96219e-07
8.78179e-07
-3.53039e-07
1.14952e-08
7.13224e-07
4.5402e-08
-4.98582e-05
4.95392e-05
-5.04061e-05
1.0316e-08
5.00661e-05
5.01528e-08
1.30759e-08
-8.36149e-11
-5.40512e-05
-3.64855e-07
5.36849e-05
7.42967e-07
-5.40514e-05
-3.6507e-07
-1.18261e-08
5.36852e-05
7.4296e-07
3.17547e-11
-3.42859e-07
6.97281e-07
-3.42607e-07
-1.15338e-08
6.97236e-07
-7.25785e-10
-5.07522e-05
5.03984e-05
-5.07514e-05
-1.32683e-08
5.03989e-05
7.10188e-10
-1.00625e-08
-4.25945e-08
-5.34061e-05
-3.75352e-07
5.3053e-05
7.59179e-07
-5.28988e-05
-5.19561e-07
-9.87693e-08
5.25498e-05
9.24733e-07
-4.24647e-08
-3.5276e-07
7.13224e-07
-4.96795e-07
-9.91657e-08
8.78274e-07
-5.03528e-08
-5.04052e-05
5.00669e-05
-4.98599e-05
-2.4793e-07
4.95379e-05
-4.53461e-08
-2.47175e-07
2.0417e-07
-5.27049e-05
4.91906e-07
5.2344e-05
-4.33973e-07
-5.25708e-05
-9.64214e-07
5.21873e-05
1.55193e-06
2.03434e-07
5.15137e-07
-4.79708e-07
-9.46317e-07
1.51076e-06
5.8337e-07
-4.96884e-05
4.9349e-05
-4.95093e-05
4.91285e-05
5.83614e-07
-2.01241e-07
-5.17897e-05
-9.86428e-07
5.13677e-05
1.60973e-06
-5.19655e-05
4.37477e-07
9.58163e-08
5.15628e-05
-3.31849e-07
-2.00593e-07
-9.66165e-07
1.56452e-06
4.61401e-07
9.62747e-08
-3.79674e-07
-5.71912e-07
-4.87339e-05
4.83194e-05
-4.89967e-05
2.40456e-07
4.86218e-05
-5.71497e-07
2.42321e-07
4.23361e-08
-5.21832e-05
-5.57641e-07
5.17912e-05
1.00309e-06
-5.26825e-05
-4.14507e-07
1.20491e-08
5.22869e-05
8.40455e-07
4.19468e-08
-5.32276e-07
9.53341e-07
-3.90791e-07
1.18247e-08
7.91159e-07
4.46038e-08
-4.91998e-05
4.8838e-05
-4.97116e-05
1.0617e-08
4.93311e-05
4.94261e-08
1.31312e-08
-8.13959e-11
-5.33023e-05
-4.04256e-07
5.28946e-05
8.24094e-07
-5.33025e-05
-4.04446e-07
-1.2117e-08
5.28949e-05
8.24089e-07
2.88391e-11
-3.80621e-07
7.75072e-07
-3.80402e-07
-1.18399e-08
7.75031e-07
-6.60989e-10
-5.00303e-05
4.96373e-05
-5.00295e-05
-1.33094e-08
4.96378e-05
6.40188e-10
-1.04059e-08
-4.22145e-08
-5.26827e-05
-4.14849e-07
5.22871e-05
8.40491e-07
-5.21833e-05
-5.57159e-07
-9.5958e-08
5.17911e-05
1.00311e-06
-4.21834e-08
-3.90473e-07
7.91159e-07
-5.32843e-07
-9.62798e-08
9.53431e-07
-4.95738e-08
-4.97106e-05
4.93321e-05
-4.92016e-05
-2.41929e-07
4.88368e-05
-4.45781e-08
-2.41046e-07
2.0133e-07
-5.19656e-05
4.38003e-07
5.15627e-05
-3.32446e-07
-5.17896e-05
-9.86696e-07
5.13674e-05
1.61018e-06
2.00776e-07
4.61619e-07
-3.80231e-07
-9.66527e-07
1.56499e-06
5.7185e-07
-4.89974e-05
4.86216e-05
-4.87341e-05
4.83192e-05
5.72148e-07
-1.98222e-07
-5.09303e-05
-1.01232e-06
5.04674e-05
1.6735e-06
-5.11419e-05
3.81349e-07
9.33068e-08
5.06959e-05
-2.26852e-07
-1.97717e-07
-9.90329e-07
1.62535e-06
4.06953e-07
9.36499e-08
-2.77424e-07
-5.60353e-07
-4.78893e-05
4.74373e-05
-4.82319e-05
2.34764e-07
4.78182e-05
-5.60209e-07
2.36583e-07
4.17485e-08
-5.13809e-05
-5.97363e-07
5.09443e-05
1.08553e-06
-5.18734e-05
-4.56311e-07
1.22471e-08
5.1433e-05
9.26147e-07
4.14768e-08
-5.70736e-07
1.03326e-06
-4.31196e-07
1.20723e-08
8.74099e-07
4.37585e-08
-4.84553e-05
4.80489e-05
-4.89354e-05
1.08373e-08
4.8512e-05
4.86197e-08
1.31487e-08
-7.81247e-11
-5.24695e-05
-4.45987e-07
5.20177e-05
9.10096e-07
-5.24697e-05
-4.46158e-07
-1.23273e-08
5.2018e-05
9.10094e-07
2.49984e-11
-4.20868e-07
8.58024e-07
-4.20677e-07
-1.20749e-08
8.57988e-07
-6.05438e-10
-4.9229e-05
4.87944e-05
-4.92283e-05
-1.33056e-08
4.87949e-05
5.83092e-10
-1.06671e-08
-4.16325e-08
-5.18735e-05
-4.5667e-07
5.14333e-05
9.26185e-07
-5.1381e-05
-5.96895e-07
-9.34453e-08
5.09442e-05
1.08555e-06
-4.17095e-08
-4.30854e-07
8.74097e-07
-5.71288e-07
-9.36564e-08
1.03334e-06
-4.87083e-08
-4.89343e-05
4.8513e-05
-4.8457e-05
-2.36204e-07
4.80476e-05
-4.37735e-08
-2.35331e-07
1.98309e-07
-5.1142e-05
3.81865e-07
5.06958e-05
-2.27435e-07
-5.09302e-05
-1.01258e-06
5.04671e-05
1.67395e-06
1.97895e-07
4.07174e-07
-2.77974e-07
-9.90677e-07
1.62581e-06
5.60297e-07
-4.82326e-05
4.7818e-05
-4.78894e-05
4.74371e-05
5.6084e-07
-1.95146e-07
-4.99886e-05
-1.04097e-06
4.94829e-05
1.74185e-06
-5.02318e-05
3.23071e-07
9.11436e-08
4.97428e-05
-1.20349e-07
-1.94681e-07
-1.0173e-06
1.69076e-06
3.50279e-07
9.13259e-08
-1.72191e-07
-5.48713e-07
-4.69687e-05
4.64765e-05
-4.73887e-05
2.29256e-07
4.69338e-05
-5.48718e-07
2.31003e-07
4.09782e-08
-5.04892e-05
-6.38855e-07
5.00067e-05
1.17144e-06
-5.09743e-05
-5.00053e-07
1.23806e-08
5.04873e-05
1.01568e-06
4.08054e-08
-6.11021e-07
1.11665e-06
-4.73593e-07
1.22426e-08
9.60867e-07
4.28727e-08
-4.76212e-05
4.71687e-05