/*--------------------------------*- C++ -*----------------------------------*\
  =========                 |
  \\      /  F ield         | OpenFOAM: The Open Source CFD Toolbox
   \\    /   O peration     | Website:  https://openfoam.org
    \\  /    A nd           | Version:  9
     \\/     M anipulation  |
\*---------------------------------------------------------------------------*/
FoamFile
{
    format      ascii;
    class       volVectorField;
    location    "1.25";
    object      U;
}
// * * * * * * * * * * * * * * * * * * * * * * * * * * * * * * * * * * * * * //

dimensions      [0 1 -1 0 0 0 0];

internalField   nonuniform List<vector> 
36360
(
(0.000589462 -0.121578 -0.499876)
(-0.000713833 -0.0941132 0.000101673)
(-0.000796688 -0.123476 -0.501637)
(-0.00241623 -0.0869963 4.09226e-05)
(-0.00138435 -0.116611 -0.501409)
(0.0101895 -0.0957875 1.84968e-05)
(-0.00065548 -0.116098 -0.502148)
(0.0120313 -0.103759 2.06245e-05)
(-0.00142773 -0.104927 -5.81456e-05)
(-0.00213471 -0.108564 -2.06804e-06)
(-0.00284256 -0.102962 -2.90402e-05)
(-0.00265391 -0.106468 -4.49451e-07)
(0.00511808 -0.108818 -8.73221e-06)
(0.00424764 -0.107555 -3.64922e-06)
(0.00679397 -0.111841 -2.15881e-05)
(0.00618408 -0.110083 -1.7404e-06)
(-0.00203169 -0.10937 7.85697e-07)
(-0.00203165 -0.10937 -7.8535e-07)
(-0.00251566 -0.107319 2.10272e-07)
(-0.00251563 -0.107318 -2.10124e-07)
(0.00430773 -0.107195 -1.05002e-07)
(0.00430775 -0.107195 1.04434e-07)
(0.00612686 -0.109805 1.02804e-07)
(0.00612685 -0.109805 -1.02873e-07)
(-0.00213462 -0.108563 2.06531e-06)
(-0.00142789 -0.104925 5.81303e-05)
(-0.0026538 -0.106467 4.48484e-07)
(-0.00284252 -0.10296 2.90345e-05)
(0.00424775 -0.107554 3.64557e-06)
(0.00511802 -0.108816 8.71953e-06)
(0.00618404 -0.110082 1.73906e-06)
(0.00679386 -0.111839 2.15852e-05)
(-0.000714171 -0.0941107 -0.000101691)
(0.000588766 -0.121582 0.499875)
(-0.00241619 -0.0869939 -4.09295e-05)
(-0.000797084 -0.12348 0.501637)
(0.01019 -0.0957858 -1.84924e-05)
(-0.00138444 -0.116618 0.501409)
(0.0120317 -0.103758 -2.06234e-05)
(-0.000655448 -0.116105 0.502148)
(0.00238136 -0.118205 -0.498569)
(-0.00213172 -0.100819 0.000138762)
(0.00170158 -0.11982 -0.499298)
(-0.000870099 -0.0980364 0.000130703)
(-0.000862705 -0.117172 -0.501032)
(0.00319345 -0.0872793 -5.2927e-06)
(-0.00125387 -0.117798 -0.501158)
(0.00710252 -0.088802 8.28296e-06)
(0.00082387 -0.106472 -5.80008e-05)
(-0.000336285 -0.110097 -7.89791e-06)
(0.000421208 -0.105945 -6.2135e-05)
(-0.000937358 -0.10986 -4.78993e-06)
(0.00327747 -0.103285 3.31781e-05)
(0.00152011 -0.105195 -8.43668e-06)
(0.00443445 -0.105478 9.71295e-06)
(0.00288263 -0.105713 -6.21444e-06)
(-0.000553581 -0.111289 7.81736e-08)
(-0.000553602 -0.111289 -7.71348e-08)
(-0.00102379 -0.110883 7.15782e-07)
(-0.00102378 -0.110882 -7.15088e-07)
(0.00151115 -0.104795 -1.42743e-06)
(0.00151124 -0.104795 1.42519e-06)
(0.00295908 -0.105258 -6.65258e-07)
(0.00295915 -0.105257 6.63963e-07)
(-0.00033651 -0.110096 7.89094e-06)
(0.000823683 -0.10647 5.79712e-05)
(-0.00093745 -0.109859 4.78537e-06)
(0.000420959 -0.105943 6.21117e-05)
(0.0015201 -0.105194 8.42766e-06)
(0.00327742 -0.103283 -3.32121e-05)
(0.00288276 -0.105712 6.20834e-06)
(0.00443433 -0.105476 -9.73561e-06)
(-0.00213271 -0.100817 -0.000138796)
(0.00238141 -0.118209 0.498568)
(-0.000870804 -0.0980344 -0.00013073)
(0.00170118 -0.119824 0.499297)
(0.00319418 -0.0872774 5.31078e-06)
(-0.00086232 -0.117179 0.501031)
(0.00710325 -0.0888004 -8.27281e-06)
(-0.00125374 -0.117805 0.501158)
(0.00304377 -0.115634 -0.497773)
(-0.00410036 -0.103462 0.000122446)
(0.00278042 -0.116802 -0.498068)
(-0.00333241 -0.102432 0.000134486)
(0.000131693 -0.115485 -0.50135)
(-0.000304426 -0.0885278 -4.77175e-05)
(-0.000299158 -0.116363 -0.501398)
(0.000847879 -0.0873828 -2.49497e-05)
(0.000476864 -0.106642 -2.73163e-05)
(-3.91892e-05 -0.110004 -1.07871e-05)
(0.000674148 -0.10666 -4.5511e-05)
(-0.000125615 -0.110118 -1.01027e-05)
(0.00151346 -0.100611 8.99199e-05)
(0.000220084 -0.104623 -9.15061e-06)
(0.00216483 -0.101616 6.12607e-05)
(0.000601545 -0.104824 -9.40516e-06)
(-0.000170231 -0.111496 -1.81462e-06)
(-0.000170213 -0.111496 1.81492e-06)
(-0.000317105 -0.111471 -8.6978e-07)
(-0.00031714 -0.111471 8.70693e-07)
(5.4248e-05 -0.104589 -2.57679e-06)
(5.4314e-05 -0.104588 2.57361e-06)
(0.000492464 -0.1046 -2.05077e-06)
(0.000492562 -0.104599 2.04797e-06)
(-3.92813e-05 -0.110003 1.0775e-05)
(0.000476828 -0.10664 2.72743e-05)
(-0.000125795 -0.110118 1.00928e-05)
(0.000674066 -0.106659 4.54751e-05)
(0.000220045 -0.104622 9.13568e-06)
(0.00151381 -0.100609 -8.99791e-05)
(0.000601476 -0.104823 9.39333e-06)
(0.00216504 -0.101614 -6.13072e-05)
(-0.00410175 -0.103462 -0.000122482)
(0.00304451 -0.115637 0.497772)
(-0.00333359 -0.102431 -0.000134523)
(0.00278091 -0.116806 0.498067)
(-0.000304033 -0.088526 4.77582e-05)
(0.000132848 -0.115492 0.50135)
(0.00084848 -0.087381 2.49783e-05)
(-0.000298168 -0.11637 0.501398)
(0.00344657 -0.113832 -0.497473)
(-0.004664 -0.104938 8.75202e-05)
(0.00326886 -0.114659 -0.497569)
(-0.00450524 -0.104266 0.00010594)
(0.000656786 -0.113291 -0.501317)
(-0.000976027 -0.0918005 -9.32747e-05)
(0.000452336 -0.11444 -0.501322)
(-0.000814181 -0.0901326 -7.09119e-05)
(0.000274518 -0.106542 1.26709e-05)
(8.11909e-05 -0.109665 -7.83103e-06)
(0.000342962 -0.106582 -7.12613e-06)
(2.2123e-05 -0.109834 -9.9198e-06)
(0.00105246 -0.0997609 0.000140501)
(0.00012574 -0.104447 -5.47316e-06)
(0.00119213 -0.100064 0.000116694)
(0.000124651 -0.104527 -7.76889e-06)
(-1.41927e-05 -0.11137 -3.10135e-06)
(-1.41342e-05 -0.11137 3.10005e-06)
(-7.54648e-05 -0.111446 -2.58423e-06)
(-7.54108e-05 -0.111446 2.58357e-06)
(-5.00336e-05 -0.104708 -3.33629e-06)
(-4.9991e-05 -0.104708 3.33114e-06)
(-5.35466e-05 -0.104658 -3.00602e-06)
(-5.34931e-05 -0.104658 3.00215e-06)
(8.11734e-05 -0.109665 7.81509e-06)
(0.000274452 -0.10654 -1.27258e-05)
(2.2089e-05 -0.109833 9.90486e-06)
(0.000342924 -0.10658 7.07868e-06)
(0.000125802 -0.104446 5.45096e-06)
(0.00105286 -0.0997591 -0.000140584)
(0.00012468 -0.104526 7.75049e-06)
(0.00119255 -0.100063 -0.000116766)
(-0.0046658 -0.104938 -8.75481e-05)
(0.00344748 -0.113835 0.497471)
(-0.00450685 -0.104266 -0.000105972)
(0.00326972 -0.114663 0.497567)
(-0.000976013 -0.0917992 9.33413e-05)
(0.000657994 -0.113296 0.501317)
(-0.000813989 -0.090131 7.09657e-05)
(0.000453539 -0.114446 0.501322)
(0.00365537 -0.112459 -0.497366)
(-0.00464525 -0.105936 5.08194e-05)
(0.00357921 -0.113108 -0.49739)
(-0.00469038 -0.105494 6.87619e-05)
(0.000830653 -0.110916 -0.501322)
(-0.00089022 -0.0946976 -0.000133291)
(0.000784976 -0.112097 -0.501314)
(-0.000968622 -0.0933477 -0.000114167)
(0.000220113 -0.106568 4.64612e-05)
(0.000182021 -0.109369 -1.21428e-06)
(0.000238633 -0.106538 3.06628e-05)
(0.000136637 -0.109511 -4.77543e-06)
(0.000910975 -0.0994984 0.000178061)
(0.000194021 -0.104153 9.84734e-07)
(0.0009649 -0.0995888 0.000160915)
(0.000158574 -0.104323 -2.46932e-06)
(6.86155e-05 -0.111181 -3.4905e-06)
(6.86554e-05 -0.111181 3.4801e-06)
(3.05669e-05 -0.11128 -3.40749e-06)
(3.06354e-05 -0.11128 3.4023e-06)
(1.12362e-05 -0.104678 -3.54228e-06)
(1.12545e-05 -0.104677 3.53071e-06)
(-2.44575e-05 -0.104714 -3.51528e-06)
(-2.44395e-05 -0.104713 3.5065e-06)
(0.000181975 -0.109369 1.18483e-06)
(0.000219978 -0.106566 -4.65309e-05)
(0.000136602 -0.10951 4.74484e-06)
(0.00023851 -0.106536 -3.07259e-05)
(0.000194093 -0.104152 -1.01709e-06)
(0.000911247 -0.0994968 -0.000178164)
(0.000158645 -0.104322 2.44123e-06)
(0.000965223 -0.0995871 -0.000161009)
(-0.00464727 -0.105936 -5.08297e-05)
(0.00365632 -0.112462 0.497364)
(-0.00469233 -0.105494 -6.8778e-05)
(0.00358013 -0.11311 0.497388)
(-0.000890314 -0.094697 0.000133382)
(0.000831878 -0.110921 0.501321)
(-0.00096868 -0.0933467 0.000114246)
(0.000786184 -0.112101 0.501314)
(0.00370515 -0.111322 -0.497317)
(-0.00448574 -0.106545 1.91993e-05)
(0.00369705 -0.111868 -0.497321)
(-0.00457423 -0.106284 3.42446e-05)
(0.000815583 -0.10874 -0.501335)
(-0.000714567 -0.0967847 -0.000165938)
(0.000843316 -0.109789 -0.501325)
(-0.000808663 -0.0958409 -0.000150522)
(0.000199588 -0.106649 7.10393e-05)
(0.000233013 -0.109094 6.52229e-06)
(0.000205936 -0.106609 5.98654e-05)
(0.000212768 -0.109231 2.60042e-06)
(0.000845704 -0.0994657 0.000203852)
(0.000232138 -0.103744 8.51264e-06)
(0.000872493 -0.0994629 0.000192232)
(0.000218193 -0.103956 4.69596e-06)
(0.000129184 -0.110956 -3.07486e-06)
(0.000129186 -0.110957 3.0582e-06)
(0.000101087 -0.111074 -3.37093e-06)
(0.000101107 -0.111074 3.35807e-06)
(6.11667e-05 -0.104491 -3.11064e-06)
(6.11719e-05 -0.104491 3.09324e-06)
(4.28372e-05 -0.104596 -3.40742e-06)
(4.2844e-05 -0.104596 3.39303e-06)
(0.000232953 -0.109094 -6.56076e-06)
(0.00019942 -0.106648 -7.11213e-05)
(0.000212718 -0.109231 -2.63517e-06)
(0.000205777 -0.106608 -5.9943e-05)
(0.000232208 -0.103743 -8.55392e-06)
(0.000845915 -0.0994643 -0.000203969)
(0.000218271 -0.103955 -4.73298e-06)
(0.000872732 -0.0994614 -0.000192343)
(-0.0044878 -0.106546 -1.91922e-05)
(0.00370611 -0.111324 0.497315)
(-0.00457629 -0.106284 -3.4246e-05)
(0.003698 -0.11187 0.497319)
(-0.000714696 -0.0967847 0.000166049)
(0.000816813 -0.108743 0.501335)
(-0.000808782 -0.0958406 0.000150623)
(0.000844554 -0.109793 0.501324)
(0.00369018 -0.110339 -0.497275)
(-0.00430936 -0.106847 -6.21212e-06)
(0.00370321 -0.110816 -0.497278)
(-0.00439873 -0.106729 5.74303e-06)
(0.000743339 -0.106897 -0.50135)
(-0.0005577 -0.0981626 -0.000191766)
(0.000786372 -0.107776 -0.501339)
(-0.000637112 -0.097552 -0.000179625)
(0.000202419 -0.106694 8.75918e-05)
(0.000260908 -0.108807 1.4217e-05)
(0.000196801 -0.106679 8.01714e-05)
(0.000247578 -0.108953 1.04277e-05)
(0.000808794 -0.0995298 0.000220918)
(0.000246552 -0.103309 1.60244e-05)
(0.000823151 -0.0994921 0.000213283)
(0.000240413 -0.103527 1.23168e-05)
(0.000179604 -0.110675 -2.07901e-06)
(0.000179584 -0.110675 2.05635e-06)
(0.000154738 -0.110823 -2.63666e-06)
(0.000154727 -0.110823 2.6168e-06)
(8.57937e-05 -0.104221 -2.13453e-06)
(8.57939e-05 -0.104221 2.11109e-06)
(7.44012e-05 -0.104365 -2.67847e-06)
(7.4404e-05 -0.104365 2.65807e-06)
(0.000260844 -0.108807 -1.42634e-05)
(0.000202243 -0.106694 -8.76819e-05)
(0.000247513 -0.108953 -1.04701e-05)
(0.000196624 -0.106678 -8.02576e-05)
(0.000246625 -0.103308 -1.60734e-05)
(0.000808971 -0.0995288 -0.000221043)
(0.000240483 -0.103526 -1.23621e-05)
(0.000823334 -0.0994909 -0.000213405)
(-0.0043114 -0.106847 6.23537e-06)
(0.00369112 -0.110341 0.497272)
(-0.0044008 -0.10673 -5.72745e-06)
(0.00370414 -0.110817 0.497275)
(-0.000557786 -0.098163 0.000191894)
(0.00074455 -0.1069 0.501349)
(-0.000637233 -0.0975522 0.000179745)
(0.00078759 -0.107779 0.501339)
(0.00366876 -0.109456 -0.497232)
(-0.00414276 -0.106911 -2.61618e-05)
(0.00368044 -0.109887 -0.497235)
(-0.00422611 -0.106905 -1.67893e-05)
(0.000670737 -0.105357 -0.501363)
(-0.000431916 -0.0989974 -0.000211978)
(0.000710289 -0.106093 -0.501353)
(-0.000495309 -0.0986391 -0.00020249)
(0.000226318 -0.106669 9.83562e-05)
(0.000285824 -0.108494 2.12431e-05)
(0.000210689 -0.106692 9.35308e-05)
(0.000272972 -0.108654 1.78305e-05)
(0.00079566 -0.0996017 0.000231959)
(0.000255735 -0.10287 2.29434e-05)
(0.000798412 -0.0995692 0.000227046)
(0.00025122 -0.10309 1.95775e-05)
(0.000231135 -0.110334 -7.0024e-07)
(0.000231119 -0.110335 6.70891e-07)
(0.00020493 -0.110512 -1.42555e-06)
(0.000204914 -0.110512 1.39963e-06)
(0.000106762 -0.103885 -7.93502e-07)
(0.000106762 -0.103884 7.63305e-07)
(9.64347e-05 -0.104061 -1.49866e-06)
(9.64351e-05 -0.104061 1.47195e-06)
(0.000285735 -0.108494 -2.12965e-05)
(0.000226162 -0.106668 -9.84495e-05)
(0.000272898 -0.108654 -1.78804e-05)
(0.000210525 -0.106691 -9.3623e-05)
(0.000255809 -0.10287 -2.29999e-05)
(0.000795845 -0.099601 -0.000232088)
(0.000251296 -0.103089 -1.96302e-05)
(0.000798592 -0.0995683 -0.000227174)
(-0.00414477 -0.106911 2.61979e-05)
(0.00366967 -0.109457 0.49723)
(-0.00422814 -0.106906 1.68192e-05)
(0.00368136 -0.109888 0.497233)
(-0.000431947 -0.0989982 0.00021212)
(0.000671927 -0.105359 0.501363)
(-0.000495371 -0.0986397 0.000202624)
(0.000711494 -0.106095 0.501353)
(0.00366335 -0.108632 -0.497186)
(-0.00398995 -0.106787 -4.17589e-05)
(0.0036662 -0.109038 -0.497189)
(-0.00406658 -0.10687 -3.44354e-05)
(0.000613987 -0.104043 -0.501376)
(-0.000335734 -0.0994261 -0.000227727)
(0.000645879 -0.104676 -0.501366)
(-0.000385001 -0.0992556 -0.000220347)
(0.000271559 -0.106548 0.000105351)
(0.000314648 -0.108142 2.73863e-05)
(0.000246136 -0.106621 0.000102254)
(0.000298986 -0.108323 2.44307e-05)
(0.000801536 -0.0996203 0.000238642)
(0.000264913 -0.102424 2.90321e-05)
(0.000796008 -0.0996203 0.000235725)
(0.000259955 -0.102649 2.61038e-05)
(0.000286283 -0.109933 8.79066e-07)
(0.000286268 -0.109933 -9.1464e-07)
(0.000258125 -0.110141 7.50424e-08)
(0.00025811 -0.110142 -1.07676e-07)
(0.000127897 -0.103486 7.44697e-07)
(0.000127896 -0.103485 -7.81149e-07)
(0.000117176 -0.103693 -3.78616e-08)
(0.000117176 -0.103693 4.29524e-09)
(0.000314552 -0.108142 -2.74459e-05)
(0.000271417 -0.106548 -0.000105446)
(0.000298893 -0.108323 -2.44873e-05)
(0.000245992 -0.106621 -0.000102349)
(0.000264991 -0.102423 -2.90962e-05)
(0.000801739 -0.0996198 -0.00023879)
(0.000260031 -0.102648 -2.61652e-05)
(0.000796202 -0.0996197 -0.000235874)
(-0.00399193 -0.106788 4.18047e-05)
(0.00366423 -0.108633 0.497184)
(-0.00406858 -0.106871 3.44768e-05)
(0.00366709 -0.109039 0.497187)
(-0.000335724 -0.099427 0.00022788)
(0.000615152 -0.104045 0.501376)
(-0.000385021 -0.0992564 0.000220496)
(0.000647053 -0.104678 0.501366)
(0.00367791 -0.107832 -0.497139)
(-0.00384899 -0.106511 -5.39577e-05)
(0.00367106 -0.108231 -0.497144)
(-0.00391987 -0.106667 -4.82218e-05)
(0.000573348 -0.102878 -0.501389)
(-0.000262767 -0.0995451 -0.000239851)
(0.000598115 -0.103446 -0.501379)
(-0.000301148 -0.0995216 -0.000234225)
(0.000330519 -0.106323 0.000109764)
(0.000353222 -0.107739 3.26315e-05)
(0.000298812 -0.106449 0.000107807)
(0.000332382 -0.107948 3.01151e-05)
(0.000820932 -0.0995468 0.000243246)
(0.000276938 -0.101955 3.42536e-05)
(0.00080918 -0.0995971 0.000241183)
(0.000270355 -0.102194 3.17415e-05)
(0.000346675 -0.109466 2.51465e-06)
(0.000346662 -0.109466 -2.555e-06)
(0.000315687 -0.109708 1.69648e-06)
(0.000315672 -0.109708 -1.73458e-06)
(0.000150818 -0.103022 2.3377e-06)
(0.000150817 -0.103021 -2.37822e-06)
(0.000139087 -0.103262 1.53956e-06)
(0.000139086 -0.103262 -1.57832e-06)
(0.000353114 -0.107739 -3.26956e-05)
(0.000330378 -0.106323 -0.00010986)
(0.000332281 -0.107947 -3.0177e-05)
(0.000298666 -0.106449 -0.000107903)
(0.000277013 -0.101955 -3.43203e-05)
(0.000821148 -0.0995465 -0.000243377)
(0.000270432 -0.102193 -3.18064e-05)
(0.000809383 -0.0995967 -0.000241311)
(-0.00385097 -0.106511 5.40106e-05)
(0.00367877 -0.107833 0.497137)
(-0.00392184 -0.106667 4.82713e-05)
(0.00367193 -0.108231 0.497141)
(-0.00026273 -0.099546 0.000240009)
(0.000574493 -0.102879 0.501389)
(-0.000301126 -0.0995225 0.00023438)
(0.000599274 -0.103447 0.501379)
(0.00371308 -0.107026 -0.49709)
(-0.00371356 -0.1061 -6.35257e-05)
(0.00369525 -0.107432 -0.497094)
(-0.00378371 -0.106322 -5.90235e-05)
(0.000547127 -0.101803 -0.501401)
(-0.000212734 -0.099438 -0.000249488)
(0.000563781 -0.102333 -0.501391)
(-0.000242959 -0.0995202 -0.000244853)
(0.000401823 -0.105988 0.000112509)
(0.00040347 -0.107271 3.70561e-05)
(0.000363386 -0.106169 0.000111288)
(0.000376572 -0.107514 3.49389e-05)
(0.00084951 -0.0993639 0.000245768)
(0.000293294 -0.101447 3.86859e-05)
(0.000832538 -0.0994705 0.00024468)
(0.000284417 -0.101707 3.65651e-05)
(0.000413925 -0.108926 4.11218e-06)
(0.000413913 -0.108927 -4.15408e-06)
(0.000379377 -0.109205 3.32262e-06)
(0.00037937 -0.109206 -3.36464e-06)
(0.000176103 -0.102488 3.89467e-06)
(0.0001761 -0.102488 -3.93419e-06)
(0.000163184 -0.102764 3.12648e-06)
(0.000163183 -0.102764 -3.16759e-06)
(0.000403347 -0.107271 -3.71214e-05)
(0.000401687 -0.105987 -0.000112603)
(0.000376452 -0.107514 -3.5005e-05)
(0.000363248 -0.106169 -0.000111384)
(0.000293363 -0.101447 -3.87519e-05)
(0.00084976 -0.0993637 -0.000245897)
(0.00028449 -0.101707 -3.66326e-05)
(0.000832768 -0.0994703 -0.000244811)
(-0.00371554 -0.1061 6.3586e-05)
(0.0037139 -0.107027 0.497088)
(-0.0037857 -0.106322 5.90801e-05)
(0.00369609 -0.107432 0.497092)
(-0.000212698 -0.0994389 0.000249654)
(0.000548255 -0.101804 0.5014)
(-0.000242927 -0.0995211 0.000245014)
(0.000564918 -0.102334 0.50139)
(0.0037668 -0.106191 -0.497039)
(-0.00357905 -0.105567 -7.10577e-05)
(0.00374044 -0.106613 -0.497044)
(-0.00364787 -0.105848 -6.75048e-05)
(0.00053345 -0.100767 -0.501412)
(-0.000171258 -0.0991247 -0.000257142)
(0.000544766 -0.101282 -0.501403)
(-0.000194834 -0.099302 -0.000253513)
(0.000483897 -0.105539 0.000114218)
(0.000465567 -0.106725 4.07658e-05)
(0.00044083 -0.105777 0.000113461)
(0.000432884 -0.107009 3.89888e-05)
(0.000886147 -0.0990607 0.000247323)
(0.000313877 -0.100882 4.25524e-05)
(0.000866002 -0.0992274 0.000246572)
(0.000303011 -0.101173 4.06227e-05)
(0.000488473 -0.108307 5.60028e-06)
(0.000488475 -0.108307 -5.66293e-06)
(0.00045023 -0.108627 4.87586e-06)
(0.000450216 -0.108627 -4.91763e-06)
(0.000203756 -0.101878 5.1834e-06)
(0.000203771 -0.101878 -5.54771e-06)
(0.000189624 -0.102194 4.63853e-06)
(0.00018962 -0.102193 -4.66715e-06)
(0.000465538 -0.106725 -4.07935e-05)
(0.000483658 -0.105539 -0.00011428)
(0.000432748 -0.107009 -3.90502e-05)
(0.000440702 -0.105777 -0.000113548)
(0.000314037 -0.100882 -4.22695e-05)
(0.000886337 -0.0990605 -0.000247085)
(0.000303069 -0.101173 -4.06905e-05)
(0.000866278 -0.0992274 -0.000246701)
(-0.00358107 -0.105567 7.11063e-05)
(0.00376757 -0.106191 0.497037)
(-0.00364986 -0.105848 6.75696e-05)
(0.00374124 -0.106614 0.497042)
(-0.000171246 -0.0991256 0.000257064)
(0.000534556 -0.100768 0.501412)
(-0.000194806 -0.099303 0.000253697)
(0.000545887 -0.101283 0.501402)
(0.00383652 -0.105304 -0.496985)
(-0.00344574 -0.104915 -7.6953e-05)
(0.00380194 -0.105755 -0.49699)
(-0.00351481 -0.105256 -7.41816e-05)
(0.000529499 -0.0997337 -0.501423)
(-0.000139914 -0.0986484 -0.000263119)
(0.000535704 -0.100252 -0.501413)
(-0.000160001 -0.0989058 -0.000259884)
(0.000574606 -0.104973 0.000115358)
(0.000540276 -0.106088 4.37332e-05)
(0.00052702 -0.105271 0.000114697)
(0.000501221 -0.106418 4.23515e-05)
(0.000927701 -0.0986333 0.000248146)
(0.000339041 -0.100243 4.59045e-05)
(0.000905174 -0.0988627 0.0002472)
(0.000325835 -0.100573 4.36922e-05)
(0.000571096 -0.107599 6.90074e-06)
(0.000571158 -0.107599 -7.11771e-06)
(0.000528771 -0.107964 6.34251e-06)
(0.000528713 -0.107965 -6.32312e-06)
(0.000234126 -0.101184 6.26554e-06)
(0.000234257 -0.101184 -7.11244e-06)
(0.000218689 -0.101543 6.30911e-06)
(0.000218639 -0.101542 -5.77491e-06)
(0.000540355 -0.106088 -4.3936e-05)
(0.0005742 -0.104973 -0.00011515)
(0.000500909 -0.106418 -4.24025e-05)
(0.000527072 -0.105271 -0.000114928)
(0.000339211 -0.100242 -4.49979e-05)
(0.00092773 -0.0986332 -0.000247507)
(0.00032575 -0.100572 -4.43298e-05)
(0.000905652 -0.0988629 -0.000247978)
(-0.00344779 -0.104916 7.70601e-05)
(0.00383726 -0.105304 0.496983)
(-0.00351673 -0.105256 7.42449e-05)
(0.00380274 -0.105755 0.496987)
(-0.000139937 -0.0986491 0.000262656)
(0.000530584 -0.0997344 0.501422)
(-0.000159915 -0.0989067 0.000260471)
(0.000536835 -0.100253 0.501413)
(0.00392238 -0.104348 -0.496931)
(-0.00330577 -0.104147 -8.16719e-05)
(0.00387972 -0.104835 -0.496934)
(-0.003379 -0.104546 -7.94267e-05)
(0.00053453 -0.0986728 -0.501434)
(-0.000112724 -0.0980255 -0.000267754)
(0.00053622 -0.0992082 -0.501424)
(-0.00013114 -0.0983546 -0.000264773)
(0.000674576 -0.104286 0.000115867)
(0.000628046 -0.105348 4.63749e-05)
(0.000622211 -0.104645 0.000115453)
(0.000582612 -0.105731 4.50941e-05)
(0.000972602 -0.0980757 0.000248367)
(0.000369358 -0.0995145 4.87057e-05)
(0.000948394 -0.0983709 0.000247451)
(0.000353618 -0.0998907 4.60678e-05)
(0.000663113 -0.106791 8.18352e-06)
(0.000663253 -0.106792 -8.31529e-06)
(0.000615954 -0.107208 7.65912e-06)
(0.000615767 -0.107208 -7.63161e-06)
(0.000267714 -0.100395 7.31804e-06)
(0.000267876 -0.100395 -8.45046e-06)
(0.000250643 -0.100802 7.74642e-06)
(0.000250475 -0.100802 -6.86642e-06)
(0.000628155 -0.105348 -4.6331e-05)
(0.000674037 -0.104285 -0.000115851)
(0.00058229 -0.105732 -4.52113e-05)
(0.000622438 -0.104645 -0.000115722)
(0.000369635 -0.0995142 -4.71851e-05)
(0.000972546 -0.0980759 -0.000247567)
(0.000353521 -0.0998903 -4.74701e-05)
(0.000949048 -0.0983713 -0.000248437)
(-0.00330787 -0.104148 8.16806e-05)
(0.00392309 -0.104348 0.496928)
(-0.00338086 -0.104546 7.95186e-05)
(0.00388052 -0.104836 0.496932)
(-0.000112779 -0.0980262 0.000266955)
(0.0005356 -0.0986734 0.501433)
(-0.000131 -0.0983555 0.000265757)
(0.000537362 -0.0992089 0.501424)
(0.0040225 -0.103307 -0.496871)
(-0.0031562 -0.103262 -8.53593e-05)
(0.00397289 -0.103839 -0.496877)
(-0.00323427 -0.10372 -8.35542e-05)
(0.000547433 -0.0975596 -0.501443)
(-8.28789e-05 -0.0972626 -0.000271282)
(0.000545096 -0.0981238 -0.501434)
(-0.000103642 -0.0976615 -0.000268552)
(0.000783185 -0.103471 0.000116242)
(0.00072812 -0.104495 4.84745e-05)
(0.000726552 -0.103894 0.00011596)
(0.000676649 -0.104936 4.73261e-05)
(0.00102088 -0.0973828 0.000248247)
(0.000405056 -0.0986839 5.0936e-05)
(0.00099482 -0.0977463 0.000247343)
(0.000386682 -0.0991129 4.80761e-05)
(0.000766154 -0.105874 9.27875e-06)
(0.000766345 -0.105875 -9.42732e-06)
(0.00071341 -0.106347 8.82738e-06)
(0.000713144 -0.106347 -8.8093e-06)
(0.000305169 -0.0995024 8.26964e-06)
(0.000305384 -0.0995021 -9.61411e-06)
(0.000286155 -0.0999625 8.99441e-06)
(0.000285939 -0.0999622 -7.87016e-06)
(0.000728255 -0.104495 -4.83943e-05)
(0.000782563 -0.10347 -0.000116218)
(0.000676309 -0.104937 -4.75579e-05)
(0.000726897 -0.103894 -0.000116168)
(0.00040536 -0.0986837 -4.90259e-05)
(0.00102075 -0.097383 -0.000247318)
(0.000386538 -0.0991126 -4.99682e-05)
(0.000995582 -0.0977467 -0.000248472)
(-0.00315831 -0.103262 8.53541e-05)
(0.00402319 -0.103307 0.496869)
(-0.00323608 -0.10372 8.3684e-05)
(0.00397369 -0.103839 0.496874)
(-8.29846e-05 -0.0972633 0.000270265)
(0.000548492 -0.09756 0.501442)
(-0.000103491 -0.0976623 0.000269804)
(0.000546244 -0.0981243 0.501434)
(0.00413584 -0.102166 -0.496811)
(-0.00299497 -0.102249 -8.82634e-05)
(0.00407944 -0.10275 -0.496816)
(-0.00307947 -0.102773 -8.68147e-05)
(0.000568323 -0.0963743 -0.501453)
(-4.67751e-05 -0.096357 -0.000273937)
(0.000561867 -0.0969769 -0.501443)
(-7.0197e-05 -0.0968279 -0.000271438)
(0.000900485 -0.10252 0.00011641)
(0.000840546 -0.103518 5.02022e-05)
(0.000839268 -0.103013 0.000116215)
(0.000782873 -0.104022 4.92054e-05)
(0.00107317 -0.0965496 0.000247883)
(0.00044627 -0.0977388 5.27171e-05)
(0.00104501 -0.0969839 0.00024698)
(0.000425141 -0.0982266 4.97543e-05)
(0.000881159 -0.104837 1.02403e-05)
(0.000881382 -0.104838 -1.04014e-05)
(0.000822401 -0.105371 9.86616e-06)
(0.000822087 -0.105372 -9.84077e-06)
(0.000346842 -0.098496 9.11572e-06)
(0.00034709 -0.0984958 -1.06118e-05)
(0.000325737 -0.0990142 1.0069e-05)
(0.000325482 -0.0990139 -8.7725e-06)
(0.000840704 -0.103518 -5.01053e-05)
(0.000899803 -0.10252 -0.000116378)
(0.000782512 -0.104023 -4.94634e-05)
(0.000839693 -0.103013 -0.000116435)
(0.000446597 -0.0977386 -5.05555e-05)
(0.00107299 -0.0965499 -0.000246855)
(0.000424979 -0.0982263 -5.19626e-05)
(0.00104584 -0.0969844 -0.000248219)
(-0.00299711 -0.102249 8.82491e-05)
(0.00413652 -0.102166 0.496808)
(-0.00308127 -0.102773 8.69576e-05)
(0.00408024 -0.10275 0.496814)
(-4.68993e-05 -0.0963577 0.000272772)
(0.000569374 -0.0963746 0.501451)
(-7.00505e-05 -0.0968287 0.000272871)
(0.000563014 -0.0969773 0.501443)
(0.00426281 -0.100912 -0.496748)
(-0.00281855 -0.101098 -9.0547e-05)
(0.0041996 -0.101554 -0.496754)
(-0.00291007 -0.101691 -8.93825e-05)
(0.00059785 -0.0950984 -0.501461)
(-4.04858e-06 -0.0953021 -0.000275896)
(0.000586666 -0.0957485 -0.501451)
(-3.17821e-05 -0.0958488 -0.000273603)
(0.00102747 -0.101428 0.000116506)
(0.000965803 -0.102405 5.16249e-05)
(0.00096148 -0.101992 0.000116324)
(0.000901698 -0.102979 5.0759e-05)
(0.00113089 -0.09557 0.000247331)
(0.000493354 -0.0966669 5.41237e-05)
(0.00109967 -0.0960784 0.000246431)
(0.000469273 -0.0972195 5.11397e-05)
(0.0010086 -0.103669 1.10758e-05)
(0.00100883 -0.10367 -1.12454e-05)
(0.000943623 -0.10427 1.07713e-05)
(0.000943279 -0.10427 -1.0741e-05)
(0.00039284 -0.0973658 9.85673e-06)
(0.000393104 -0.0973655 -1.14571e-05)
(0.000369599 -0.0979472 1.09858e-05)
(0.00036932 -0.0979469 -9.56659e-06)
(0.000965987 -0.102405 -5.15186e-05)
(0.00102675 -0.101428 -0.000116469)
(0.000901319 -0.102979 -5.10337e-05)
(0.000961954 -0.101992 -0.00011655)
(0.000493707 -0.0966668 -5.18094e-05)
(0.00113067 -0.0955704 -0.000246225)
(0.000469094 -0.0972193 -5.35497e-05)
(0.00110056 -0.0960788 -0.000247754)
(-0.00282067 -0.101098 9.05262e-05)
(0.00426347 -0.100911 0.496746)
(-0.00291188 -0.101691 8.95338e-05)
(0.00420038 -0.101553 0.496751)
(-4.22189e-06 -0.0953028 0.000274629)
(0.000598887 -0.0950986 0.50146)
(-3.16376e-05 -0.0958495 0.000275158)
(0.000587808 -0.0957488 0.501451)
(0.00440058 -0.0995313 -0.496683)
(-0.00266025 -0.0998071 -9.23373e-05)
(0.00433229 -0.100238 -0.496689)
(-0.00273396 -0.100471 -9.14026e-05)
(0.000638382 -0.0937154 -0.501469)
(5.97094e-05 -0.0940948 -0.000277266)
(0.000621339 -0.094421 -0.501459)
(1.96572e-05 -0.0947167 -0.000275197)
(0.00116166 -0.100188 0.000116526)
(0.00110449 -0.101147 5.27754e-05)
(0.0010924 -0.100827 0.000116396)
(0.00103365 -0.101795 5.20397e-05)
(0.00119665 -0.0944375 0.000246696)
(0.000546374 -0.0954575 5.51317e-05)
(0.00116123 -0.0950231 0.000245704)
(0.000519435 -0.0960802 5.23037e-05)
(0.00114868 -0.10236 1.17931e-05)
(0.00114888 -0.10236 -1.1977e-05)
(0.00107736 -0.103033 1.15531e-05)
(0.00107702 -0.103033 -1.15192e-05)
(0.000443171 -0.0961014 1.0488e-05)
(0.000443406 -0.0961011 -1.21829e-05)
(0.000417749 -0.0967511 1.17602e-05)
(0.000417478 -0.0967509 -1.02488e-05)
(0.00110474 -0.101147 -5.26764e-05)
(0.00116095 -0.100188 -0.000116486)
(0.00103323 -0.101795 -5.23205e-05)
(0.00109291 -0.100827 -0.000116628)
(0.000546792 -0.0954574 -5.28963e-05)
(0.00119641 -0.094438 -0.000245431)
(0.000519219 -0.0960799 -5.47433e-05)
(0.00116213 -0.0950235 -0.00024715)
(-0.00266212 -0.0998071 9.23175e-05)
(0.00440125 -0.099531 0.496681)
(-0.00273561 -0.100471 9.15558e-05)
(0.00433307 -0.100238 0.496687)
(5.9443e-05 -0.0940954 0.000275985)
(0.000639405 -0.0937155 0.501468)
(1.97239e-05 -0.0947173 0.000276805)
(0.000622463 -0.0944212 0.501459)
(0.00455121 -0.0980111 -0.496615)
(-0.00252485 -0.0983637 -9.37371e-05)
(0.00447572 -0.0987893 -0.49662)
(-0.00259589 -0.0991052 -9.29888e-05)
(0.000688362 -0.0922111 -0.501475)
(0.000142447 -0.0927483 -0.000278187)
(0.000666831 -0.0929791 -0.501466)
(9.55078e-05 -0.0934387 -0.000276323)
(0.00130589 -0.0987878 0.000116412)
(0.00125684 -0.0997329 5.36847e-05)
(0.00123093 -0.0995081 0.00011633)
(0.00117929 -0.10046 5.30693e-05)
(0.00126901 -0.0931467 0.000246039)
(0.000604842 -0.0941003 5.59044e-05)
(0.00123077 -0.0938122 0.00024492)
(0.000575302 -0.0947981 5.32634e-05)
(0.00130179 -0.100898 1.24125e-05)
(0.00130197 -0.100899 -1.2606e-05)
(0.00122385 -0.101648 1.22256e-05)
(0.00122354 -0.101649 -1.21913e-05)
(0.000497985 -0.0946933 1.10426e-05)
(0.0004982 -0.094693 -1.27877e-05)
(0.000470274 -0.095416 1.24159e-05)
(0.000470037 -0.0954158 -1.08498e-05)
(0.00125713 -0.0997333 -5.35962e-05)
(0.00130519 -0.0987879 -0.000116371)
(0.00117882 -0.10046 -5.33485e-05)
(0.00123145 -0.0995081 -0.000116568)
(0.000605302 -0.0941002 -5.37483e-05)
(0.00126878 -0.0931471 -0.000244672)
(0.000575039 -0.0947979 -5.56348e-05)
(0.00123166 -0.0938127 -0.000246496)
(-0.00252672 -0.0983636 9.37178e-05)
(0.00455186 -0.0980108 0.496612)
(-0.0025974 -0.0991051 9.31394e-05)
(0.0044765 -0.098789 0.496618)
(0.000142165 -0.0927488 0.000276901)
(0.000689384 -0.0922112 0.501474)
(9.55062e-05 -0.0934393 0.000277939)
(0.000667944 -0.0929792 0.501466)
(0.00471652 -0.09634 -0.496545)
(-0.00236876 -0.0967582 -9.48203e-05)
(0.00463364 -0.0971947 -0.496551)
(-0.00245163 -0.0975813 -9.42243e-05)
(0.000745544 -0.0905716 -0.501482)
(0.000226888 -0.091259 -0.000278731)
(0.000720447 -0.0914088 -0.501473)
(0.000180486 -0.092022 -0.000277051)
(0.00146278 -0.0972215 0.00011631)
(0.00142229 -0.0981538 5.43988e-05)
(0.00138146 -0.0980257 0.000116207)
(0.00133831 -0.0989643 5.3884e-05)
(0.00134566 -0.0916904 0.000245352)
(0.000668288 -0.0925855 5.64745e-05)
(0.00130543 -0.0924395 0.000244172)
(0.000636372 -0.0933632 5.40089e-05)
(0.00146839 -0.0992747 1.29459e-05)
(0.00146856 -0.0992752 -1.31454e-05)
(0.0013837 -0.100107 1.28038e-05)
(0.00138342 -0.100107 -1.27714e-05)
(0.000557469 -0.0931322 1.15232e-05)
(0.00055767 -0.093132 -1.32893e-05)
(0.000527387 -0.0939325 1.29622e-05)
(0.000527181 -0.0939323 -1.13724e-05)
(0.00142261 -0.0981542 -5.43221e-05)
(0.00146207 -0.0972215 -0.000116269)
(0.0013378 -0.0989646 -5.41586e-05)
(0.00138196 -0.0980257 -0.000116449)
(0.000668777 -0.0925855 -5.44008e-05)
(0.00134543 -0.0916909 -0.000243924)
(0.000636076 -0.0933631 -5.63056e-05)
(0.00130633 -0.09244 -0.00024583)
(-0.00237068 -0.0967582 9.48021e-05)
(0.00471716 -0.0963397 0.496542)
(-0.0024532 -0.0975813 9.43714e-05)
(0.00463438 -0.0971944 0.496549)
(0.000226638 -0.0912595 0.000277452)
(0.00074657 -0.0905715 0.501481)
(0.000180495 -0.0920225 0.000278662)
(0.00072156 -0.0914088 0.501473)
(0.00489541 -0.0945104 -0.496472)
(-0.00219038 -0.0949887 -9.56429e-05)
(0.00480589 -0.0954453 -0.496478)
(-0.00228348 -0.0958936 -9.51742e-05)
(0.000809261 -0.088785 -0.501487)
(0.000313114 -0.0896185 -0.000278951)
(0.000780772 -0.0896971 -0.501478)
(0.000264573 -0.0904581 -0.000277442)
(0.0016318 -0.0954841 0.000116298)
(0.00160037 -0.096402 5.49515e-05)
(0.00154467 -0.0963743 0.000116141)
(0.00151018 -0.0972997 5.45227e-05)
(0.00142647 -0.0900625 0.000244599)
(0.000736365 -0.0909052 5.68739e-05)
(0.00138417 -0.0908981 0.00024341)
(0.00070221 -0.0917666 5.45702e-05)
(0.00164814 -0.0974803 1.34025e-05)
(0.0016483 -0.0974807 -1.3605e-05)
(0.00155693 -0.0983992 1.32979e-05)