/*--------------------------------*- C++ -*----------------------------------*\
  =========                 |
  \\      /  F ield         | OpenFOAM: The Open Source CFD Toolbox
   \\    /   O peration     | Website:  https://openfoam.org
    \\  /    A nd           | Version:  9
     \\/     M anipulation  |
\*---------------------------------------------------------------------------*/
FoamFile
{
    format      ascii;
    class       volScalarField;
    location    "0.6";
    object      k;
}
// * * * * * * * * * * * * * * * * * * * * * * * * * * * * * * * * * * * * * //

dimensions      [0 2 -2 0 0 0 0];

internalField   nonuniform List<scalar> 
36360
(
0.0769806
0.0731825
0.012715
0.0147338
0.0106768
0.00829956
0.00429284
0.00379901
0.0101005
0.00297227
0.00375232
0.00316519
0.00353631
0.00308363
0.00340039
0.00349486
0.00263788
0.00263789
0.00326211
0.00326211
0.00308819
0.00308819
0.00350257
0.00350257
0.00297221
0.0100997
0.00316521
0.0037523
0.00308364
0.00353626
0.00349485
0.00340039
0.073178
0.0769733
0.0147333
0.0127144
0.008299
0.0106762
0.003799
0.00429283
0.284765
0.224651
0.199112
0.159267
0.0706994
0.0486185
0.0359765
0.0257195
0.0766259
0.0124807
0.0372972
0.00483416
0.012685
0.00316678
0.00566626
0.0028815
0.00238937
0.00238927
0.00224455
0.00224452
0.00252518
0.00252518
0.00274129
0.00274129
0.0124785
0.0766196
0.00483364
0.0372937
0.00316667
0.0126836
0.00288146
0.00566583
0.224645
0.284763
0.159261
0.199105
0.0486154
0.0706972
0.0257176
0.0359746
0.367647
0.29193
0.337373
0.266758
0.106183
0.0748154
0.0932694
0.0649573
0.121407
0.0317317
0.104262
0.0236719
0.0259455
0.00493231
0.0207038
0.00402735
0.00392985
0.00392894
0.00302553
0.00302524
0.00241584
0.00241581
0.00243412
0.00243411
0.031725
0.121399
0.0236689
0.104257
0.00493168
0.0259434
0.00402714
0.0207026
0.291932
0.367667
0.266759
0.337387
0.0748155
0.106188
0.0649572
0.0932712
0.392243
0.312867
0.383993
0.305803
0.116135
0.0826267
0.112922
0.0800936
0.135855
0.0388643
0.130996
0.0364783
0.0302571
0.00579615
0.0288545
0.00550632
0.00487745
0.00487544
0.00454993
0.0045489
0.00242514
0.00242507
0.00241977
0.00241974
0.0388531
0.135844
0.0364717
0.130988
0.00579478
0.0302535
0.0055057
0.0288527
0.312871
0.392271
0.305806
0.384011
0.0826271
0.116143
0.0800938
0.112927
0.397184
0.317072
0.395914
0.316003
0.117836
0.083901
0.11746
0.0836488
0.138717
0.0401577
0.138004
0.0398684
0.0309777
0.00593852
0.0308262
0.00591125
0.00504352
0.00504057
0.00501121
0.00500913
0.00242769
0.00242756
0.00242764
0.00242755
0.0401433
0.138705
0.0398587
0.137999
0.00593624
0.030972
0.00590966
0.0308228
0.317079
0.397227
0.316015
0.395947
0.0839011
0.117847
0.0836517
0.117471
0.396736
0.316637
0.397227
0.317087
0.117585
0.083606
0.117815
0.0838492
0.138476
0.039998
0.138748
0.0401546
0.0308523
0.00590573
0.0309663
0.00593422
0.00500962
0.0050063
0.00503936
0.00503656
0.00242418
0.00242403
0.00242656
0.00242644
0.0399789
0.138442
0.0401405
0.138734
0.00590284
0.0308421
0.00593195
0.0309601
0.316572
0.396707
0.317077
0.39725
0.0835906
0.117581
0.0838466
0.117823
0.394699
0.314858
0.39577
0.315785
0.116809
0.0829094
0.117205
0.0832618
0.13738
0.0394555
0.137943
0.0397257
0.0305046
0.00582686
0.0306779
0.00586549
0.00492435
0.00492149
0.0049657
0.00496248
0.00241883
0.00241873
0.00242152
0.00242136
0.0394344
0.137317
0.0397041
0.137889
0.00582452
0.0304929
0.00586214
0.0306633
0.314681
0.394518
0.315646
0.395646
0.0828731
0.116779
0.0832289
0.117179
0.392575
0.31308
0.393633
0.313951
0.11608
0.0822781
0.116438
0.0825847
0.136337
0.0389584
0.136849
0.039202
0.0301911
0.00575666
0.0303431
0.00579078
0.00484954
0.00484997
0.00488609
0.0048855
0.00241357
0.0024136
0.0024162
0.0024162
0.0389636
0.136323
0.0391956
0.136805
0.00575784
0.0301984
0.00579091
0.0303413
0.313004
0.392489
0.31381
0.393469
0.0822729
0.116081
0.0825556
0.116411
0.390731
0.311581
0.391646
0.31232
0.115453
0.0817452
0.115758
0.0820053
0.135436
0.0385079
0.135877
0.0387305
0.0299101
0.00569167
0.0300489
0.00572391
0.00478099
0.00478084
0.00481491
0.00481596
0.00240817
0.00240813
0.00241091
0.00241092
0.0385118
0.135448
0.0387412
0.135884
0.00569173
0.0299136
0.00572508
0.0300564
0.311646
0.390815
0.312304
0.391619
0.0817451
0.115461
0.0820036
0.115762
0.38883
0.310074
0.389769
0.310806
0.11478
0.0811757
0.115115
0.0814535
0.134509
0.0380549
0.13497
0.0382824
0.0296231
0.00562723
0.029766
0.00565942
0.0047142
0.00471356
0.00474771
0.00474773
0.00240243
0.00240235
0.00240534
0.0024053
0.0380654
0.13457
0.0382932
0.135013
0.0056267
0.0296335
0.00565956
0.0297757
0.310228
0.389035
0.310923
0.389916
0.081224
0.114846
0.0814863
0.115154
0.387152
0.308769
0.38796
0.309398
0.114168
0.0806681
0.114466
0.0809139
0.133653
0.0376061
0.134073
0.0378299
0.0293411
0.0055611
0.0294804
0.00559428
0.00464671
0.00464663
0.00468062
0.00468073
0.00239612
0.00239611
0.00239935
0.00239931
0.0376145
0.133696
0.0378439
0.13414
0.00556154
0.0293506
0.00559448
0.0294925
0.308869
0.387296
0.309548
0.388162
0.0807043
0.114221
0.0809632
0.114532
0.385284
0.307354
0.3862
0.308028
0.113528
0.0801394
0.113856
0.0804096
0.132766
0.0371532
0.133215
0.0373825
0.0290567
0.00549473
0.0292008
0.00552799
0.00457959
0.00458105
0.00461327
0.00461444
0.0023893
0.00238938
0.00239277
0.00239283
0.0371714
0.132829
0.0373963
0.13326
0.00549704
0.0290741
0.00552965
0.0292131
0.307457
0.385484
0.308144
0.386364
0.0801906
0.113597
0.080444
0.113902
0.383594
0.306075
0.384422
0.306706
0.112897
0.0796257
0.113204
0.0798734
0.131899
0.0367058
0.132327
0.0369286
0.0287767
0.00542917
0.0289149
0.00546188
0.00451393
0.00451362
0.00454674
0.00454835
0.00238195
0.00238192
0.0023857
0.00238577
0.0367102
0.131931
0.036949
0.132398
0.00542885
0.0287796
0.00546392
0.0289317
0.30599
0.383499
0.306692
0.384471
0.0796434
0.112932
0.079927
0.113276
0.381663
0.304625
0.382612
0.305319
0.112248
0.0790952
0.112573
0.0793615
0.131026
0.0362611
0.131462
0.0364848
0.0284924
0.00536324
0.0286356
0.00539621
0.00444969
0.00444704
0.00448178
0.00448054
0.00237396
0.00237388
0.00237803
0.00237798
0.0362412
0.130989
0.0364775
0.131463
0.00536099
0.0284807
0.00539485
0.0286291
0.304572
0.381625
0.305302
0.382575
0.0790703
0.112231
0.0793534
0.112575
0.379559
0.303066
0.380616
0.303843
0.111555
0.0785321
0.11191
0.0788178
0.130099
0.0358103
0.130571
0.0360377
0.0282044
0.00529811
0.028349
0.00533076
0.00438682
0.0043829
0.00441837
0.00441551
0.00236536
0.0023652
0.00236975
0.00236964
0.035784
0.130076
0.0360157
0.130526
0.00529429
0.0281873
0.00532793
0.0283343
0.303082
0.379579
0.303773
0.380549
0.0785131
0.111538
0.0787845
0.111876
0.377359
0.301501
0.378422
0.302236
0.110826
0.0779483
0.11119
0.0782387
0.129162
0.0353478
0.12963
0.0355814
0.0279031
0.00522984
0.0280551
0.00526444
0.00432267
0.004319
0.00435514
0.00435171
0.00235585
0.00235572
0.00236072
0.00236059
0.0353265
0.129159
0.0355606
0.129628
0.00522677
0.0278932
0.00526132
0.0280435
0.301578
0.377506
0.302349
0.378574
0.0779504
0.110844
0.0782377
0.111195
0.375318
0.300049
0.376329
0.300765
0.11011
0.0773712
0.110463
0.0776548
0.128238
0.0348799
0.128698
0.0351154
0.0275986
0.00516043
0.0277508
0.00519516
0.00425821
0.00425478
0.00429055
0.00428757
0.00234547
0.00234535
0.00235077
0.00235066
0.0348555
0.128195
0.0350972
0.128692
0.00515746
0.0275859
0.00519256
0.0277419
0.3
0.3753
0.30081
0.376425
0.0773511
0.110101
0.0776562
0.110479
0.372835
0.298275
0.374115
0.299166
0.109299
0.0767097
0.109714
0.0770449
0.127201
0.034392
0.127728
0.0346383
0.0272763
0.00508933
0.0274386
0.00512501
0.00419348
0.00419075
0.00422597
0.0042232
0.00233417
0.00233407
0.00233994
0.00233983
0.0343745
0.127191
0.0346177
0.127693
0.00508701
0.0272686
0.00512247
0.027427
0.298309
0.372949
0.299142
0.374107
0.0767135
0.109313
0.0770261
0.1097
0.370511
0.296664
0.371677
0.297474
0.108507
0.0760745
0.108894
0.0763838
0.126204
0.0339117
0.126694
0.0341505
0.0269582
0.00501797
0.0271156
0.00505365
0.0041299
0.00412802
0.00416168
0.00416002
0.00232188
0.00232183
0.00232815
0.0023281
0.0338994
0.126201
0.0341414
0.126699
0.00501663
0.0269539
0.00505246
0.0271136
0.296627
0.370477
0.297392
0.371634
0.0760825
0.10853
0.0763983
0.108921
0.368172
0.295103
0.369302
0.295843
0.107733
0.0754524
0.108117
0.0757611
0.125241
0.0334383
0.12572
0.0336755
0.0266422
0.00494633
0.0268002
0.00498223
0.0040675
0.00406549
0.00409873
0.00409729
0.00230857
0.00230852
0.00231536
0.00231532
0.0334199
0.125201
0.0336629
0.1257
0.00494487
0.0266337
0.00498115
0.0267944
0.295015
0.368099
0.295793
0.369265
0.0754377
0.107727
0.0757563
0.108124
0.365848
0.293596
0.36696
0.294297
0.106947
0.0748214
0.107339
0.0751342
0.124278
0.0329671
0.124757
0.0332032
0.0263246
0.00487401
0.0264831
0.0049102
0.00400605
0.00400421
0.0040368
0.00403527
0.00229415
0.00229413
0.0023015
0.00230148
0.0329492
0.124238
0.0331869
0.124719
0.00487307
0.026318
0.00490929
0.0264757
0.293429
0.365726
0.29423
0.366935
0.0748085
0.10694
0.0751176
0.107327
0.363528
0.29209
0.364678
0.292824
0.106146
0.0741893
0.106545
0.0745013
0.123311
0.0324926
0.123794
0.0327318
0.0260041
0.00480081
0.0261651
0.00483769
0.00394497
0.00394331
0.00397573
0.00397447
0.00227859
0.00227858
0.00228652
0.00228653
0.0324762
0.123271
0.0327179
0.12376
0.00480013
0.0259987
0.00483724
0.0261603
0.291888
0.363331
0.29264
0.3645
0.0741757
0.10614
0.07449
0.106538
0.360937
0.290368
0.362272
0.291254
0.105273
0.0734922
0.105725
0.0738531
0.122248
0.0319844
0.122799
0.0322461
0.0256577
0.00472344
0.025836
0.00476295
0.00388131
0.00387964
0.00391384
0.00391268
0.00226174
0.00226171
0.00227034
0.00227034
0.0319702
0.12222
0.0322339
0.122766
0.00472259
0.0256538
0.0047626
0.0258328
0.290268
0.360801
0.291046
0.362023
0.0734871
0.105273
0.0738426
0.105717
0.357912
0.288312
0.359463
0.289362
0.104265
0.0726868
0.104783
0.0730997
0.12102
0.0314199
0.121653
0.03171
0.0252692
0.00463935
0.0254686
0.00468229
0.00381286
0.00381103
0.00384783
0.0038465
0.00224348
0.00224342
0.00225279
0.00225276
0.0314063
0.121001
0.0316992
0.121636
0.0046381
0.0252647
0.00468152
0.0254656
0.288307
0.357931
0.289332
0.359425
0.0726853
0.104273
0.0730983
0.104788
0.354575
0.286032
0.356259
0.287177
0.103159
0.0718062
0.10372
0.0722518
0.11967
0.0308108
0.120357
0.0311206
0.0248478
0.00454975
0.0250618
0.00459515
0.00374075
0.00373894
0.00377727
0.00377586
0.00222382
0.00222376
0.00223382
0.00223378
0.0307974
0.119653
0.03111
0.120343
0.00454843
0.0248431
0.00459414
0.0250582
0.28603
0.354605
0.287177
0.356284
0.0718049
0.103168
0.0722514
0.103727
0.351054
0.283624
0.352819
0.284825
0.101993
0.0708795
0.102581
0.0713457
0.118246
0.0301749
0.118966
0.0304963
0.0244059
0.00445666
0.024629
0.00450361
0.00366689
0.00366519
0.00370409
0.00370276
0.00220282
0.00220277
0.00221348
0.00221344
0.0301621
0.11823
0.0304862
0.118953
0.00445545
0.0244014
0.00450265
0.0246255
0.283623
0.351086
0.284827
0.352846
0.0708786
0.102002
0.0713456
0.102589
0.34741
0.281132
0.349232
0.282371
0.100786
0.0699207
0.101392
0.0704017
0.116774
0.0295232
0.117515
0.0298515
0.0239503
0.00436131
0.0241796
0.00440927
0.00359249
0.00359087
0.00362984
0.00362859
0.00218054
0.00218049
0.00219184
0.0021918
0.0295107
0.116758
0.0298418
0.117503
0.00436015
0.023946
0.00440838
0.0241763
0.281132
0.347443
0.282374
0.34926
0.06992
0.100795
0.0704019
0.101401
0.343677
0.278578
0.34554
0.279846
0.0995487
0.0689383
0.100169
0.0694302
0.115269
0.0288626
0.116025
0.0291944
0.0234858
0.00426465
0.023719
0.00431314
0.00351841
0.00351686
0.00355549
0.0035543
0.00215705
0.002157
0.00216894
0.00216891
0.0288504
0.115253
0.0291851
0.116014
0.00426353
0.0234816
0.0043123
0.0237158
0.278578
0.34371
0.279849
0.345568
0.0689376
0.0995583
0.0694305
0.100177
0.339882
0.275983
0.341772
0.277268
0.0982909
0.0679396
0.0989205
0.0684387
0.113743
0.028199
0.114508
0.0285317
0.0230162
0.0041675
0.0232515
0.00421615
0.00344539
0.00344389
0.00348185
0.00348071
0.00213241
0.00213236
0.00214487
0.00214483
0.028187
0.113727
0.0285224
0.114497
0.00416641
0.0230121
0.00421532
0.0232483
0.275983
0.339915
0.277271
0.3418
0.0679388
0.0983003
0.0684389
0.0989289
0.336048
0.27337
0.337956
0.274662
0.0970205
0.066932
0.0976554
0.0674345
0.112206
0.0275376
0.112976
0.0278686
0.0225452
0.00407049
0.0227808
0.00411897
0.00337397
0.00337253
0.00340956
0.00340846
0.0021067
0.00210665
0.00211968
0.00211965
0.0275257
0.11219
0.0278594
0.112964
0.00406944
0.0225411
0.00411819
0.0227776
0.273369
0.33608
0.274665
0.337984
0.0669312
0.0970299
0.0674347
0.0976637
0.332194
0.270746
0.334108
0.272043
0.0957464
0.0659244
0.096382
0.0664259
0.110665
0.0268827
0.111436
0.0272098
0.0220762
0.00397424
0.0223103
0.00402227
0.00330461
0.00330322
0.00333912
0.00333806
0.00208001
0.00207997
0.00209347
0.00209344
0.0268709
0.110649
0.0272008
0.111424
0.00397322
0.022072
0.0040215
0.0223072
0.270745
0.332226
0.272045
0.334136
0.0659235
0.0957557
0.0664259
0.0963902
0.328348
0.26812
0.330255
0.269416
0.0944774
0.0649243
0.0951094
0.0654211
0.10913
0.0262384
0.109897
0.0265597
0.0216119
0.00387919
0.0218433
0.00392657
0.00323764
0.00323629
0.00327092
0.00326989
0.00205245
0.00205241
0.00206634
0.00206631
0.0262268
0.109114
0.0265508
0.109884
0.0038782
0.0216078
0.00392582
0.0218402
0.268119
0.32838
0.269418
0.330283
0.0649233
0.0944866
0.0654211
0.0951175
0.324536
0.265512
0.326423
0.266797
0.0932219
0.063939
0.0938461
0.0644275
0.107611
0.0256087
0.108368
0.0259223
0.0211552
0.00378577
0.0213825
0.00383228
0.00317331
0.00317202
0.00320522
0.00320424
0.00202413
0.00202409
0.00203838
0.00203835
0.0255973
0.107594
0.0259134
0.108356
0.0037848
0.0211511
0.00383155
0.0213793
0.26551
0.324567
0.266798
0.32645
0.0639379
0.093231
0.0644274
0.0938542
0.320776
0.262933
0.322635
0.264202
0.0919878
0.0629756
0.0926004
0.0634523
0.106115
0.0249977
0.10686
0.0253014
0.020709
0.00369445
0.0209307
0.00373985
0.00311193
0.00311069
0.00314233
0.00314138
0.00199518
0.00199514
0.00200973
0.0020097
0.0249865
0.106099
0.0252927
0.106847
0.00369351
0.0207049
0.00373914
0.0209275
0.262931
0.320808
0.264203
0.322662
0.0629745
0.0919968
0.0634521
0.0926084
0.317079
0.260391
0.318907
0.261641
0.0907808
0.0620407
0.0913794
0.0625025
0.104651
0.0244092
0.105379
0.0247012
0.0202758
0.00360568
0.0204907
0.00364975
0.00305377
0.00305257
0.00308253
0.00308161
0.00196572
0.00196568
0.0019805
0.00198047
0.0243981
0.104634
0.0246926
0.105367
0.00360477
0.0202717
0.00364906
0.0204875
0.260389
0.317111
0.261642
0.318934
0.0620396
0.0907898
0.0625022
0.0913874
0.313387
0.25785
0.315229
0.259111
0.0895932
0.0611338
0.0901852
0.0615827
0.103208
0.023844
0.103929
0.0241247
0.0198563
0.00351975
0.0200645
0.00356239
0.00299892
0.00299776
0.00302603
0.00302514
0.0019359
0.00193586
0.00195085
0.00195082
0.023833
0.103191
0.0241162
0.103917
0.00351886
0.0198523
0.00356171
0.0200614
0.257848
0.313418
0.259111
0.315256
0.0611326
0.0896022
0.0615824
0.0901931
0.309312
0.255025
0.311437
0.256499
0.0883386
0.0602099
0.0889861
0.0606798
0.101658
0.0232778
0.102467
0.0235661
0.0194368
0.00343585
0.0196491
0.00347776
0.0029463
0.00294518
0.00297262
0.00297177
0.00190584
0.00190581
0.00192089
0.00192087
0.023267
0.101641
0.0235577
0.102454
0.00343499
0.0194328
0.0034771
0.019646
0.255022
0.309342
0.256499
0.311464
0.0602087
0.0883474
0.0606795
0.088994
0.303281
0.250419
0.306706
0.253133
0.086587
0.0589845
0.0875774
0.0596732
0.0992412
0.0225247
0.100665
0.0229531
0.0189074
0.00334447
0.0192026
0.00339267
0.00288574
0.00288469
0.0029187
0.00291787
0.00187549
0.00187546
0.00189072
0.0018907
0.0225143
0.0992248
0.0229449
0.100652
0.00334366
0.0189035
0.00339204
0.0191995
0.250416
0.303312
0.253133
0.306732
0.0589834
0.0865957
0.0596728
0.0875852
0.290974
0.23611
0.298395
0.245757
0.0827348
0.0556466
0.0851451
0.0578842
0.0925467
0.0206849
0.0968657
0.0218526
0.0176548
0.00318388
0.0184594
0.0032819
0.00275891
0.00275795
0.00283838
0.00283757
0.00184349
0.00184347
0.00185993
0.00185991
0.0206742
0.0925271
0.0218443
0.0968524
0.00318311
0.0176507
0.00328125
0.0184561
0.236105
0.291008
0.245756
0.298423
0.0556449
0.0827445
0.0578834
0.0851531
0.107524
0.094671
0.015564
0.01662
0.0995495
0.0874177
0.0148853
0.0153987
0.0147225
0.00326592
0.00386537
0.00310227
0.0130356
0.00318731
0.00380804
0.00311316
0.00261079
0.00261082
0.00326344
0.00326344
0.00262542
0.00262544
0.00327175
0.00327175
0.0032658
0.0147204
0.00310227
0.0038653
0.00318721
0.0130338
0.00311319
0.00380798
0.0946614
0.10751
0.0166189
0.0155625
0.0874094
0.099538
0.0153976
0.0148842
0.383811
0.302378
0.270257
0.213322
0.353357
0.278088
0.249419
0.196995
0.119978
0.0252906
0.060448
0.00802142
0.105845
0.0207686
0.0528683
0.00687293
0.00312694
0.00312644
0.00235266
0.00235256
0.00282737
0.0028271
0.00230498
0.00230491
0.0252844
0.119967
0.00801993
0.0604413
0.0207648
0.105838
0.00687185
0.0528633
0.302372
0.383816
0.213313
0.27025
0.278083
0.353358
0.196988
0.249411
0.498854
0.397565
0.455669
0.361247
0.45664
0.363127
0.418248
0.330958
0.187728
0.0626807
0.161469
0.0473191
0.165255
0.0516476
0.142415
0.0389809
0.0089326
0.00892741
0.0057382
0.00573659
0.00689222
0.00689014
0.0046468
0.0046462
0.0626606
0.187709
0.0473089
0.161457
0.0516374
0.165244
0.0389764
0.14241
0.397566
0.498888
0.361246
0.455686
0.36313
0.456663
0.33096
0.418259
0.536169
0.429462
0.523252
0.418372
0.489056
0.390777
0.477961
0.381267
0.211001
0.076668
0.202935
0.0718479
0.18505
0.0629695
0.178269
0.0591164
0.0123911
0.0123822
0.0111561
0.01115
0.00926948
0.00926536
0.00843254
0.00843043
0.0766413
0.21098
0.0718279
0.202919
0.0629544
0.185039
0.0591071
0.178262
0.429473
0.536229
0.41838
0.523292
0.390788
0.489096
0.381276
0.477985
0.544499
0.436605
0.542235
0.434673
0.495986
0.396705
0.494144
0.395141
0.216125
0.0795593
0.21477
0.0788442
0.189209
0.0651809
0.18814
0.0646564
0.0130948
0.0130864
0.0129375
0.0129307
0.0097231
0.00971839
0.00962713
0.0096239
0.0795359
0.21611
0.0788252
0.21476
0.0651665
0.189201
0.0646466
0.188138
0.436625
0.544581
0.434695
0.5423
0.396722
0.496042
0.395161
0.494187
0.543896
0.43607
0.54467
0.436729
0.495354
0.396131
0.49605
0.39674
0.215877
0.0793618
0.216259
0.0796046
0.188922
0.0649736
0.189276
0.0651933
0.0130092
0.0130018
0.0130933
0.0130862
0.00965277
0.00964828
0.0097176
0.00971362
0.0793357
0.215844
0.0795845
0.216244
0.0649569
0.1889
0.0651814
0.18927
0.436034
0.543917
0.436734
0.544725
0.396081
0.495337
0.39675
0.496097
0.540582
0.43329
0.54233
0.434738
0.492415
0.393637
0.493945
0.394921
0.21414
0.0783496
0.215043
0.0788609
0.187424
0.0641393
0.188193
0.0645552
0.0127173
0.0127075
0.0128601
0.0128534
0.00944839
0.00944383
0.00954741
0.00954354
0.0783122
0.214078
0.0788323
0.214994
0.0641198
0.187385
0.0645363
0.188146
0.433184
0.540533
0.434654
0.542274
0.393562
0.492315
0.394812
0.493829
0.537433
0.430723
0.538947
0.43195
0.489523
0.39132
0.490875
0.392381
0.212518
0.0774192
0.213306
0.0778757
0.18602
0.0633748
0.186697
0.0637479
0.0124575
0.012453
0.0125853
0.0125798
0.00926805
0.00927054
0.00935628
0.00935648
0.0774038
0.212494
0.0778543
0.213267
0.0633964
0.186082
0.0637535
0.186719
0.430599
0.537321
0.431797
0.538829
0.391477
0.489748
0.392484
0.490979
0.534923
0.428677
0.536088
0.429637
0.48739
0.389569
0.48843
0.390431
0.211131
0.0765852
0.211807
0.0769949
0.184837
0.0626919
0.185405
0.0630244
0.0122239
0.0122193
0.0123387
0.0123374
0.00910499
0.00910716
0.00918477
0.00918992
0.0765751
0.211133
0.0769917
0.211804
0.0627138
0.184913
0.0630591
0.185498
0.428679
0.534978
0.429603
0.536063
0.389723
0.487579
0.39058
0.488626
0.532218
0.426465
0.533617
0.42758
0.485077
0.387743
0.48619
0.388607
0.209776
0.0757841
0.210463
0.0761903
0.183668
0.0620304
0.184254
0.062364
0.012002
0.0119974
0.0121142
0.0121111
0.0089496
0.00894997
0.00902762
0.00902969
0.0757709
0.209761
0.0761828
0.210458
0.0620446
0.183733
0.0623836
0.184326
0.426467
0.532222
0.427541
0.533601
0.387926
0.48535
0.388802
0.486427
0.529674
0.424521
0.530793
0.425369
0.482911
0.386035
0.483963
0.386857
0.208427
0.0749684
0.209087
0.0753768
0.182514
0.0613609
0.18308
0.061694
0.0117782
0.011775
0.0118908
0.0118894
0.0087928
0.00879332
0.00887131
0.00887346
0.0749573
0.208391
0.0753747
0.209085
0.0613684
0.182533
0.0617142
0.183142
0.424502
0.529751
0.425499
0.530976
0.386004
0.48292
0.386944
0.484126
0.527206
0.422501
0.528568
0.423591
0.480564
0.384172
0.48179
0.38513
0.20709
0.0741626
0.207766
0.0745687
0.181335
0.0606886
0.181924
0.0610255
0.011559
0.0115606
0.0116692
0.01167
0.00863751
0.00864131
0.00871517
0.00871837
0.0741739
0.207101
0.0745714
0.207751
0.0607134
0.181394
0.0610421
0.181949
0.422518
0.52729
0.423535
0.528543
0.38426
0.480707
0.3851
0.481752
0.524633
0.420508
0.525908
0.421509
0.478275
0.382396
0.47943
0.383303
0.205765
0.0733692
0.206437
0.0737686
0.18019
0.0600245
0.180771
0.0603577
0.0113444
0.0113454
0.011452
0.0114569
0.00848542
0.00848801
0.00856137
0.00856693
0.0733783
0.205789
0.0737925
0.206467
0.0600473
0.180251
0.0603921
0.180845
0.420474
0.524593
0.421457
0.525902
0.382377
0.478256
0.38331
0.479485
0.521911
0.418425
0.523267
0.419438
0.475766
0.380501
0.476924
0.381361
0.204459
0.0725993
0.205113
0.0729855
0.179026
0.0593749
0.179595
0.0596978
0.01114
0.0111328
0.0112418
0.0112411
0.00833935
0.00833618
0.00841184
0.00841293
0.0725694
0.204433
0.0729813
0.205124
0.0593662
0.179037
0.05971
0.179641
0.418526
0.522121
0.419531
0.523356
0.380533
0.475805
0.381406
0.476956
0.519132
0.416326
0.520487
0.417351
0.473129
0.378568
0.474387
0.379453
0.203067
0.0718098
0.20377
0.0722105
0.177825
0.0587148
0.17842
0.0590462
0.0109392
0.0109275
0.0110407
0.0110329
0.00819565
0.00818925
0.0082677
0.00826423
0.0717747
0.203063
0.0721819
0.20376
0.0586956
0.177839
0.0590366
0.178438
0.416323
0.519191
0.417353
0.520591
0.378656
0.473297
0.37956
0.474523
0.516393
0.414237
0.517781
0.415284
0.470794
0.376855
0.471963
0.377716
0.201722
0.0710196
0.202401
0.0714191
0.176641
0.0580481
0.177233
0.0583832
0.0107381
0.0107252
0.0108398
0.0108292
0.00805098
0.00804376
0.00812387
0.00811802
0.0709826
0.201697
0.0713883
0.202384
0.058031
0.176684
0.058369
0.17727
0.414201
0.51641
0.415268
0.517805
0.37692
0.470931
0.377797
0.472116
0.513334
0.411909
0.514902
0.413095
0.468335
0.375037
0.469611
0.37598
0.200305
0.0702145
0.201027
0.0706227
0.175464
0.0573771
0.176063
0.0577156
0.0105364
0.0105255
0.0106382
0.0106283
0.00790586
0.00789887
0.00797871
0.00797305
0.0701807
0.200291
0.0705944
0.201021
0.0573473
0.175423
0.0576987
0.176071
0.411932
0.513376
0.413101
0.514937
0.37495
0.468262
0.37594
0.469592
0.510032
0.409524
0.511608
0.41063
0.465393
0.372901
0.466855
0.373945
0.198858
0.0694005
0.199576
0.06981
0.174166
0.0566803
0.174817
0.0570303
0.0103367
0.0103266
0.0104369
0.0104289
0.00776038
0.00775437
0.00783318
0.00782793
0.0693677
0.198855
0.0697841
0.199583
0.0566553
0.174159
0.0570063
0.174791
0.409702
0.510307
0.410795
0.5118
0.372899
0.465422
0.37388
0.466796
0.507001
0.407342
0.508501
0.408419
0.462452
0.370796
0.463928
0.371839
0.197435
0.0685995
0.198151
0.0690013
0.172895
0.0559939
0.173526
0.0563355
0.0101432
0.0101327
0.0102401
0.010232
0.00761851
0.0076137
0.00768918
0.00768541
0.0685674
0.197449
0.0689778
0.198169
0.0559729
0.172895
0.0563205
0.173538
0.407461
0.507249
0.408608
0.508808
0.370851
0.462541
0.371869
0.463977
0.503816
0.405052
0.505447
0.406208
0.459541
0.368787
0.460937
0.369741
0.196019
0.0678145
0.196734
0.0682088
0.171642
0.0553184
0.172264
0.0556555
0.00995641
0.00994444
0.0100499
0.0100406
0.00748054
0.00747469
0.00754927
0.00754541
0.0677713
0.196009
0.0681765
0.196737
0.0552849
0.171601
0.0556327
0.172246
0.405102
0.50395
0.406265
0.505583
0.368776
0.459583
0.369782
0.461019
0.50064
0.402815
0.502215
0.403924
0.456568
0.366732
0.458045
0.367734
0.19463
0.0670491
0.195322
0.0674319
0.170393
0.0546529
0.171012
0.0549844
0.00977638
0.00976437
0.00986644
0.00985623
0.00734652
0.0073403
0.0074133
0.00740847
0.0670047
0.19462
0.0673934
0.195317
0.0546201
0.170365
0.0549556
0.170981
0.402889
0.500784
0.403959
0.502308
0.366755
0.456634
0.367731
0.45807
0.49733
0.400516
0.498987
0.401646
0.453538
0.36468
0.455026
0.365675
0.193248
0.0662867
0.193945
0.0666732
0.169147
0.053986
0.169767
0.0543215
0.00959945
0.00958853
0.009689
0.00967954
0.00721384
0.00720792
0.00728059
0.00727584
0.0662491
0.193266
0.0666383
0.193952
0.0539564
0.16913
0.0542959
0.169753
0.40069
0.497589
0.401749
0.499148
0.364757
0.453644
0.365709
0.455082
0.493965
0.398261
0.495587
0.399331
0.450412
0.362583
0.451926
0.363582
0.191801
0.0654755
0.192533
0.0658928
0.167826
0.053274
0.168494
0.0536388
0.00941367
0.00940365
0.00950934
0.00950087
0.00707481
0.0070693
0.00714591
0.0071415
0.0654429
0.191828
0.0658651
0.192574
0.0532479
0.167811
0.0536165
0.168489
0.398479
0.494293
0.399555
0.495896
0.362668
0.450578
0.363713
0.452105
0.490384
0.395767
0.492232
0.397051
0.446971
0.360178
0.448758
0.361428
0.190183
0.0645668
0.191023
0.0650379
0.166317
0.0524762
0.1671
0.0528871
0.00920944
0.00920011
0.0093148
0.00930718
0.00692337
0.00691833
0.00700087
0.00699692
0.0645342
0.190175
0.0650132
0.191048
0.0524533
0.166297
0.0528683
0.167089
0.395865
0.490588
0.39724
0.492521
0.360199
0.447046
0.361476
0.448862
0.486183
0.392789
0.488345
0.394319
0.442978
0.357371
0.444998
0.358784
0.188324
0.0635582
0.189285
0.0640759
0.164616
0.0516024
0.165483
0.0520471
0.00898984
0.00898095
0.00910183
0.00909466
0.00676222
0.00675758
0.00684386
0.00684031
0.0635244
0.188293
0.0640488
0.189268
0.051581
0.164594
0.0520304
0.165468
0.392798
0.486263
0.394359
0.488456
0.357375
0.443025
0.358797
0.445045
0.481567
0.389508
0.483895
0.391155
0.438709
0.354371
0.440845
0.355864
0.186312
0.0624893
0.187334
0.0630321
0.162806
0.0506835
0.163719
0.0511476
0.00876298
0.00875448
0.00887774
0.00887095
0.00659649
0.00659212
0.00667991
0.00667667
0.0624562
0.18628
0.0630052
0.187311
0.0506631
0.162786
0.0511321
0.163705
0.38951
0.481633
0.391164
0.483954
0.354374
0.438754
0.355872
0.440881
0.476756
0.386092
0.479168
0.387797
0.434279
0.351262
0.436487
0.352804
0.184222
0.0613871
0.185278
0.0619444
0.160932
0.0497377
0.161874
0.0502137
0.00853358
0.00852535
0.00864917
0.00864266
0.00642921
0.00642502
0.0065131
0.00651005
0.0613545
0.18419
0.0619181
0.185255
0.0497178
0.160912
0.0501988
0.16186
0.386094
0.476822
0.387805
0.479224
0.351265
0.434324
0.352812
0.436525
0.471816
0.382586
0.474288
0.384333
0.429732
0.348074
0.431995
0.349652
0.18208
0.0602646
0.18316
0.0608307
0.159011
0.0487754
0.159975
0.0492585
0.00830447
0.00829646
0.00841956
0.00841326
0.0062625
0.00625843
0.00634586
0.00634292
0.0602324
0.182048
0.0608047
0.183136
0.0487557
0.158991
0.0492439
0.159961
0.382587
0.471882
0.38434
0.474345
0.348077
0.429777
0.34966
0.432033
0.466782
0.379012
0.469296
0.38079
0.425097
0.344825
0.4274
0.346432
0.179901
0.0591316
0.180998
0.0597017
0.157058
0.0478051
0.158036
0.0482911
0.00807793
0.00807013
0.00819145
0.00818531
0.00609811
0.00609414
0.0061801
0.00617724
0.0590996
0.179869
0.0596759
0.180974
0.0477855
0.157037
0.0482766
0.158022
0.379014
0.466847
0.380797
0.469353
0.344828
0.425142
0.34644
0.427437
0.461688
0.37539
0.464227
0.37719
0.420409
0.341522
0.422733
0.343155
0.177701
0.0579968
0.178807
0.0585667
0.155085
0.046835
0.15607
0.0473199
0.00785577
0.00784817
0.00796687
0.00796089
0.00593739
0.00593352
0.00601739
0.0060146
0.057965
0.17767
0.058541
0.178783
0.0468155
0.155064
0.0473054
0.156057
0.375391
0.461753
0.377196
0.464284
0.341524
0.420454
0.343162
0.422771
0.456568
0.371745
0.459116
0.373552
0.415706
0.338203
0.418035
0.339837
0.175495
0.0568678
0.176602
0.0574338
0.15311
0.0458718
0.154095
0.0463525
0.00763939
0.00763198
0.00774742
0.00774158
0.0057814
0.00577764
0.00585891
0.00585619
0.0568362
0.175463
0.0574083
0.176578
0.0458524
0.153089
0.046338
0.154081
0.371746
0.456632
0.373558
0.459172
0.338205
0.415751
0.339844
0.418072
0.451452
0.3681
0.453995
0.369905
0.411011
0.334892
0.413333
0.336521
0.173295
0.0557511
0.174398
0.0563101
0.151143
0.044921
0.152123
0.0453948
0.00742988
0.00742266
0.00753431
0.00752863
0.00563092
0.00562726
0.00570559
0.00570293
0.0557197
0.173263
0.0562847
0.174373
0.0449017
0.151122
0.0453803
0.152109
0.3681
0.451516
0.36991
0.45405
0.334893
0.411056
0.336527
0.41337
0.446371
0.364474
0.448892
0.366267
0.406352
0.331602
0.408652
0.333219
0.171114
0.0546533
0.172206
0.0552019
0.149194
0.0439881
0.150164
0.0444523
0.00722822
0.00722119
0.00732858
0.00732304
0.00548665
0.00548308
0.00555812
0.00555552
0.0546221
0.171082
0.0551766
0.172181
0.043969
0.149173
0.0444378
0.150149
0.364473
0.446435
0.366272
0.448947
0.331603
0.406396
0.333225
0.408689
0.441353
0.360883
0.44384
0.362656
0.401754
0.328349
0.404021
0.329945
0.168963
0.0535806
0.170038
0.0541159
0.147275
0.043079
0.148229
0.0435306
0.00703536
0.00702851
0.00713118
0.00712577
0.00534928
0.0053458
0.0054172
0.00541466
0.0535496
0.168931
0.0540907
0.170013
0.0430599
0.147254
0.0435161
0.148214
0.360882
0.441416
0.362661
0.443895
0.328349
0.401798
0.329951
0.404058
0.436406
0.357333
0.438859
0.359087
0.397229
0.325139
0.39946
0.326714
0.166848
0.052538
0.167906
0.0530579
0.145392
0.0421982
0.146327
0.0426352
0.00685206
0.00684538
0.00694301
0.00693773
0.00521942
0.00521602
0.00528352
0.00528105
0.0525072
0.166815
0.0530328
0.16788
0.0421792
0.14537
0.0426208
0.146312
0.357331
0.436469
0.359091
0.438914
0.325139
0.397273
0.32672
0.399497
0.431405
0.353725
0.43392
0.355535
0.392685
0.321902
0.394952
0.323511
0.16472
0.0515152
0.165798
0.0520288
0.143514
0.0413415
0.144457
0.0417685
0.00667766
0.00667116
0.00676444
0.0067593
0.00509688
0.00509357
0.00515746
0.00515503
0.0514847
0.164687
0.0520039
0.165773
0.0413227
0.143492
0.0417541
0.144441
0.353723
0.431467
0.355538
0.433974
0.321902
0.392729
0.323516
0.394989
0.425629
0.349464
0.428695
0.351741
0.387544
0.318173
0.390244
0.320141
0.162235
0.0504023
0.163576
0.0509894
0.141391
0.040439
0.142519
0.0409077
0.00650118
0.00649487
0.00659199
0.00658697
0.00497602
0.0049728
0.00503735
0.00503498
0.0503721
0.162203
0.0509646
0.16355
0.0404203
0.141369
0.0408934
0.142504
0.349462
0.425689