/*--------------------------------*- C++ -*----------------------------------*\
  =========                 |
  \\      /  F ield         | OpenFOAM: The Open Source CFD Toolbox
   \\    /   O peration     | Website:  https://openfoam.org
    \\  /    A nd           | Version:  9
     \\/     M anipulation  |
\*---------------------------------------------------------------------------*/
FoamFile
{
    format      ascii;
    class       volScalarField;
    location    "1.8";
    object      epsilon;
}
// * * * * * * * * * * * * * * * * * * * * * * * * * * * * * * * * * * * * * //

dimensions      [0 2 -3 0 0 0 0];

internalField   nonuniform List<scalar> 
36360
(
1.10328
0.986835
0.130526
0.183792
0.122414
0.127937
0.00999065
0.00999892
0.172015
0.0174888
0.0144081
0.00543785
0.0160941
0.00566796
0.00621331
0.00607017
0.00408881
0.00408888
0.00550006
0.00550004
0.00492149
0.00492146
0.00623123
0.00623124
0.0174896
0.172018
0.00543787
0.0144085
0.00566803
0.0160948
0.00607016
0.00621333
0.986848
1.1033
0.183797
0.13053
0.127942
0.122418
0.0099991
0.00999074
3.16462
2.49102
2.28892
1.82395
1.70886
1.26608
0.74425
0.612856
0.973193
0.336267
0.566492
0.116811
0.439588
0.0826478
0.119216
0.0142379
0.1016
0.101602
0.0161377
0.0161388
0.0160556
0.016057
0.00504428
0.0050444
0.336265
0.973178
0.116813
0.566493
0.0826537
0.439596
0.0142389
0.119221
2.491
3.16461
1.82395
2.28892
1.26608
1.70885
0.612865
0.74426
4.3306
3.44804
3.817
3.0163
3.2541
2.43975
2.54688
1.87919
1.6648
0.843631
1.33646
0.5852
1.22095
0.605865
0.822749
0.301105
0.522669
0.522663
0.295556
0.295556
0.363391
0.363394
0.106575
0.10658
0.843607
1.66475
0.58519
1.33644
0.605866
1.22093
0.301115
0.822746
3.44798
4.33055
3.01627
3.81697
2.43968
3.254
1.87916
2.54683
5.11509
4.13557
4.75321
3.81465
4.43296
3.44197
3.87316
2.95776
2.23577
1.33546
1.9633
1.09622
2.00103
1.27464
1.61642
0.939465
0.97628
0.976263
0.753519
0.753508
0.987516
0.987505
0.672086
0.672083
1.33541
2.23567
1.09618
1.96323
1.27459
2.00093
0.939446
1.61636
4.13547
5.11499
3.81457
4.75313
3.44177
4.4327
2.95763
3.87299
5.70303
4.66846
5.42791
4.41767
5.40913
4.31055
4.94299
3.89259
2.70686
1.76098
2.48299
1.55739
2.71395
1.9076
2.36805
1.59915
1.37795
1.37792
1.18506
1.18504
1.58559
1.58556
1.29388
1.29386
1.76089
2.70672
1.55732
2.48288
1.9075
2.71374
1.59908
2.36789
4.6683
5.70289
4.41754
5.42777
4.31019
5.40867
3.89231
4.94264
6.15456
5.08429
5.94354
4.88909
6.21043
5.04105
5.83033
4.69287
3.08734
2.11245
2.90776
1.94587
3.33035
2.46268
3.03508
2.19602
1.71353
1.71349
1.55412
1.55408
2.1124
2.11234
1.859
1.85895
2.11233
3.08715
1.94577
2.9076
2.46251
3.33002
2.19588
3.03481
5.08409
6.15437
4.88891
5.94336
5.04051
6.20976
4.69243
5.82978
6.49269
5.40235
6.33554
5.25395
6.85013
5.63187
6.54929
5.35327
3.38565
2.39252
3.24607
2.26107
3.83846
2.92522
3.59801
2.70581
1.98312
1.98307
1.85637
1.85632
2.55356
2.55348
2.34403
2.34396
2.39237
3.38542
2.26094
3.24586
2.92497
3.83801
2.70559
3.59762
5.40212
6.49249
5.25373
6.33532
5.63117
6.84925
5.35265
6.54853
6.73899
5.63722
6.62551
5.52873
7.34056
6.0894
7.11237
5.87597
3.61105
2.60715
3.50671
2.50752
4.23804
3.29241
4.05123
3.1204
2.19119
2.19113
2.09446
2.09441
2.90543
2.90533
2.74041
2.74032
2.60698
3.61078
2.50736
3.50647
3.29209
4.23749
3.12012
4.05072
5.63696
6.73877
5.52848
6.62527
6.08854
7.3395
5.87519
7.11142
6.90958
5.80215
6.83205
5.72697
7.69928
6.42718
7.53451
6.27166
3.77362
2.76431
3.69941
2.69237
4.53708
3.56958
4.39919
3.44155
2.34462
2.34456
2.27427
2.27421
3.17221
3.17209
3.04885
3.04874
2.76412
3.77334
2.69219
3.69914
3.56921
4.53643
3.4412
4.39859
5.80188
6.90937
5.72671
6.8318
6.42619
7.69806
6.27073
7.53338
7.01847
5.90955
6.97021
5.8617
7.94597
6.66162
7.83476
6.55564
3.88364
2.87276
3.83448
2.8241
4.74782
3.76675
4.65241
3.6773
2.45141
2.45134
2.40338
2.40331
3.36284
3.3627
3.27625
3.27612
2.87256
3.88334
2.8239
3.83419
3.76634
4.7471
3.67691
4.65173
5.90927
7.01826
5.86142
6.96996
6.66053
7.94462
6.5546
7.8335
7.07798
5.97066
7.05298
5.94464
8.10027
6.8101
8.03285
6.74493
3.95086
2.94121
3.92194
2.91149
4.88425
3.89607
4.82421
3.83897
2.51972
2.51965
2.48994
2.48987
3.48861
3.48847
3.43296
3.43282
2.941
3.95055
2.91129
3.92164
3.89563
4.88348
3.83853
4.82346
5.97039
7.07779
5.94437
7.05274
6.80893
8.09884
6.7438
8.03148
7.09838
5.99509
7.09182
5.98634
8.18033
6.88915
8.14788
6.8567
3.98404
2.97772
3.97114
2.96304
4.96033
3.97008
4.92877
3.93909
2.55726
2.55718
2.54196
2.54189
3.56143
3.56127
3.53079
3.53064
2.97751
3.98373
2.96283
3.97083
3.96962
4.95953
3.93863
4.92797
5.99483
7.09822
5.98608
7.0916
6.88793
8.17884
6.8555
8.14644
7.08904
5.99143
7.09626
5.99564
8.20155
6.9131
8.19667
6.90662
3.99075
2.98936
3.99024
2.98633
4.98875
4.0005
4.97959
3.98995
2.5708
2.57074
2.56673
2.56666
3.59252
3.59237
3.58143
3.58127
2.98917
3.99052
2.98613
3.98996
4.00004
4.98798
3.98948
4.97878
5.9913
7.08901
5.99541
7.09609
6.91197
8.20016
6.9054
8.19522
7.05516
5.96502
7.07462
5.9806
8.18088
6.89752
8.19671
6.91003
3.97758
2.98266
3.98661
2.98807
4.98259
3.99872
4.98893
4.00233
2.56674
2.56671
2.57062
2.57056
3.59249
3.59236
3.59511
3.59497
2.98263
3.97781
2.98793
3.98651
3.99835
4.98211
4.0019
4.98823
5.96612
7.05643
5.98074
7.07475
6.89733
8.18041
6.90908
8.19552
6.99989
5.91915
7.02923
5.94361
8.12138
6.84591
8.15417
6.87443
3.9477
2.96096
3.96428
2.97339
4.94667
3.97094
4.96728
3.98754
2.5485
2.54852
2.55915
2.55915
3.56822
3.56811
3.58309
3.58298
2.96119
3.94893
2.9735
3.96499
3.97072
4.94683
3.98726
4.96715
5.92337
7.00483
5.946
7.03188
6.84814
8.12355
6.8754
8.15492
6.93124
5.86139
6.96648
5.89106
8.03874
6.77311
8.08203
6.81132
3.90729
2.92955
3.92855
2.94631
4.8922
3.92596
4.92118
3.95006
2.52096
2.521
2.53576
2.53579
3.52733
3.52723
3.5493
3.5492
2.92991
3.90917
2.94661
3.93012
3.92578
4.89259
3.94986
4.92144
5.86827
6.93973
5.89653
6.97297
6.77666
8.04255
6.8141
8.08497
6.85747
5.7991
6.89384
5.82994
7.94204
6.68753
7.99088
6.73078
3.86099
2.89218
3.88459
2.9115
4.82577
3.8699
4.8599
3.8989
2.48756
2.4876
2.50493
2.50497
3.47578
3.47568
3.5025
3.5024
2.89253
3.86288
2.91188
3.88658
3.86971
4.82616
3.89871
4.86035
5.80598
6.86642
5.83713
6.90304
6.69107
7.94623
6.73461
7.99525
6.78086
5.73377
6.8193
5.76654
7.83749
6.59394
7.89028
6.64122
3.81138
2.8512
3.83662
2.87216
4.75195
3.80677
4.78949
3.83895
2.4505
2.45053
2.46951
2.46954
3.41737
3.41728
3.44716
3.44707
2.85153
3.81315
2.87249
3.83839
3.80663
4.75237
3.83877
4.78984
5.74068
6.78954
5.77318
6.82767
6.59735
7.84136
6.64453
7.89415
6.69979
5.66466
6.74008
5.69904
7.72523
6.49354
7.78149
6.54378
3.75866
2.80754
3.78526
2.82971
4.67275
3.73882
4.7127
3.77318
2.41093
2.41099
2.43108
2.43112
3.35435
3.35429
3.38623
3.38616
2.80794
3.76053
2.83009
3.78711
3.73878
4.67334
3.77308
4.71319
5.67181
6.70853
5.706
6.74879
6.4971
7.72935
6.54731
7.78557
6.61451
5.59257
6.65708
5.62837
7.60825
6.38874
7.66681
6.44117
3.70402
2.76206
3.73159
2.7851
4.58992
3.66751
4.6316
3.70344
2.36958
2.36966
2.39056
2.39063
3.28809
3.28807
3.32148
3.32144
2.76253
3.70603
2.78554
3.73354
3.66756
4.59069
3.70345
4.63228
5.60103
6.62496
5.6362
6.66641
6.39254
7.61261
6.44484
7.67105
6.52841
5.52052
6.57024
5.55563
7.4862
6.27959
7.54715
6.33399
3.6474
2.71493
3.67586
2.73875
4.50385
3.59349
4.54706
3.63071
2.32675
2.32683
2.34844
2.34852
3.2193
3.21927
3.2539
3.25387
2.7154
3.64931
2.73925
3.6779
3.59353
4.50463
3.63077
4.54787
5.52702
6.53735
5.56377
6.58094
6.2833
7.49056
6.33789
7.5517
6.43944
5.44491
6.48444
5.483
7.36082
6.16741
7.42344
6.2234
3.58931
2.66649
3.61857
2.69096
4.41533
3.51722
4.45975
3.55553
2.28265
2.28269
2.30496
2.30502
3.14836
3.14828
3.184
3.18395
2.66681
3.5909
2.69138
3.62034
3.51711
4.41576
3.55551
4.46038
5.45103
6.44687
5.4888
6.49179
6.17043
7.36434
6.22681
7.42747
6.34573
5.36692
6.39163
5.40499
7.23147
6.05201
7.29579
6.10926
3.52959
2.61674
3.5595
2.64184
4.32431
3.43883
4.36992
3.47819
2.23736
2.23734
2.26024
2.26025
3.07545
3.07532
3.11206
3.11195
2.61684
3.53063
2.64207
3.56095
3.43852
4.32424
3.47798
4.37014
5.37216
6.35271
5.41129
6.39951
6.05374
7.23371
6.11199
7.29904
6.25372
5.29043
6.29874
5.32796
7.10004
5.93468
7.16542
5.99295
3.46914
2.56596
3.49946
2.59156
4.23128
3.35852
4.27786
3.39882
2.19103
2.19095
2.21441
2.21437
3.00072
3.00056
3.03822
3.03808
2.56582
3.46931
2.59154
3.50009
3.35807
4.23069
3.39842
4.27752
5.29226
6.25676
5.3318
6.3042
5.93458
7.10016
5.99386
7.16671
6.15854
5.21108
6.20593
5.2504
6.96536
5.81441
7.03277
5.87454
3.40717
2.514
3.43836
2.54022
4.13608
3.27627
4.18385
3.31758
2.14361
2.14353
2.16756
2.16748
2.92414
2.92398
2.9626
2.96243
2.51376
3.40686
2.54002
3.43822
3.27578
4.13524
3.31709
4.18308
5.21089
6.15878
5.25114
6.20736
5.81321
6.96402
5.87369
7.03197
6.05808
5.12767
6.10842
5.16936
6.82521
5.68927
6.8956
5.75204
3.34296
2.46041
3.3754
2.48753
4.03779
3.19161
4.08725
3.2342
2.09481
2.09474
2.1195
2.11942
2.84539
2.84524
2.88499
2.88483
2.46019
3.34264
2.48729
3.37506
3.19116
4.03701
3.23372
4.08642
5.12737
6.05788
5.16904
6.10819
5.68812
6.8238
5.75082
6.89416
5.95222
5.04006
6.00516
5.08382
6.67883
5.55883
6.75232
5.62423
3.27593
2.40479
3.30979
2.43294
3.93583
3.10411
3.98715
3.14815
2.04429
2.04423
2.06987
2.0698
2.76413
2.764
2.80502
2.80488
2.4046
3.27567
2.43274
3.3095
3.10371
3.93515
3.14772
3.98642
5.03985
5.95211
5.08357
6.00497
5.55782
6.67759
5.62316
6.75102
5.84195
4.94894
5.89698
4.99437
6.5269
5.42362
6.60308
5.49135
3.20629
2.3471
3.24141
2.37627
3.83032
3.01368
3.88339
3.05919
1.99197
1.99191
2.01844
2.01838
2.68022
2.6801
2.72245
2.72232
2.34694
3.20607
2.3761
3.24118
3.01332
3.8297
3.05881
3.88274
4.94878
5.8419
4.99419
5.89686
5.4227
6.52577
5.49039
6.60192
5.72812
4.85489
5.78486
4.90173
6.36999
5.28399
6.44863
5.35392
3.1343
2.28743
3.17058
2.31758
3.72136
2.92032
3.77616
2.96731
1.93784
1.93779
1.96521
1.96516
2.59359
2.59348
2.63719
2.63707
2.28729
3.1341
2.31744
3.17037
2.91998
3.72079
2.96696
3.77556
4.85476
5.7281
4.90159
5.78478
5.28315
6.36894
5.35304
6.44756
5.61114
4.75815
5.66943
4.80633
6.20821
5.13993
6.28932
5.21212
3.06003
2.22576
3.09745
2.25692
3.60887
2.82387
3.66547
2.87244
1.88184
1.88179
1.91016
1.91011
2.50405
2.50395
2.54914
2.54903
2.22562
3.05984
2.25679
3.09726
2.82355
3.60833
2.87211
3.66491
4.75804
5.61113
4.80621
5.66937
5.13913
6.20723
5.2113
6.28832
5.4911
4.65871
5.55093
4.70826
6.04121
4.99097
6.12501
5.06571
2.98332
2.16188
3.02199
2.19418
3.49244
2.72394
3.55108
2.77432
1.82375
1.8237
1.85315
1.8531
2.41124
2.41114
2.45803
2.45793
2.16175
2.98315
2.19405
3.02182
2.72364
3.49193
2.77401
3.55056
4.65861
5.49111
4.70815
5.55089
4.99022
6.04028
5.06493
6.12407
5.36781
4.55623
5.42932
4.60737
5.86823
4.83657
5.95515
4.91408
2.90381
2.0954
2.94395
2.12906
3.37141
2.61989
3.43246
2.67243
1.76317
1.76313
1.79387
1.79383
2.31451
2.31442
2.36336
2.36327
2.09528
2.90365
2.12894
2.94378
2.61961
3.37094
2.67214
3.43196
4.55613
5.36781
4.60728
5.42929
4.83586
5.86736
4.91335
5.95426
5.24077
4.45005
5.30425
4.50314
5.68803
4.67586
5.7788
4.75678
2.82083
2.02566
2.8628
2.06105
3.24474
2.5107
3.30879
2.56597
1.69946
1.69942
1.73183
1.73178
2.2129
2.21281
2.26434
2.26425
2.02554
2.82068
2.06093
2.86265
2.51044
3.24429
2.5657
3.30832
4.44997
5.24078
4.50305
5.30422
4.6752
5.68721
4.75609
5.77797
5.1089
4.33917
5.17499
4.39479
5.49827
4.50648
5.59419
4.59207
2.73327
1.95161
2.7777
1.98931
3.11067
2.39488
3.17867
2.45368
1.63162
1.63158
1.66619
1.66615
2.105
2.10493
2.15979
2.15971
1.95151
2.73313
1.9892
2.77756
2.39464
3.11026
2.45343
3.17824
4.33909
5.10892
4.39471
5.17497
4.50587
5.49752
4.59143
5.59342
4.9701
4.22159
5.04003
4.2809
5.29536
4.32552
5.39843
4.41734
2.63934
1.87166
2.68725
1.91256
2.96681
2.27039
3.04007
2.33382
1.55817
1.55814
1.59577
1.59573
1.989
1.98893
2.04811
2.04803
1.87157
2.63922
1.91246
2.68712
2.27017
2.96644
2.33359
3.03968
4.22153
4.97012
4.28083
5.04001
4.32497
5.29468
4.41675
5.39772
4.8199
4.09333
4.89631
4.15867
5.07327
4.12861
5.18692
4.22909
2.53577
1.78321
2.58904
1.82876
2.80961
2.13446
2.89008
2.20401
1.47691
1.47688
1.51874
1.51871
1.86255
1.86249
1.9272
1.92713
1.78313
2.53566
1.82868
2.58893
2.13427
2.8093
2.20381
2.88974
4.09328
4.81994
4.15862
4.89632
4.12813
5.07268
4.22857
5.18629
4.64832
3.94524
4.73727
4.02224
4.82107
3.90835
4.9516
4.02177
2.41575
1.6817
2.47848
1.73453
2.63326
1.98332
2.72428
2.06103
1.38456
1.38454
1.43241
1.43239
1.72306
1.72301
1.79454
1.79449
1.68164
2.41567
1.73446
2.4784
1.98316
2.633
2.06086
2.72399
3.94522
4.64839
4.02222
4.73729
3.90797
4.82058
4.02133
4.95107
4.43175
3.74838
4.54738
3.85606
4.51887
3.64707
4.67754
3.7847
2.26173
1.5588
2.3449
1.62365
2.42583
1.81219
2.53454
1.90049
1.27722
1.2772
1.33299
1.33297
1.56918
1.56914
1.64781
1.64776
1.55877
2.26169
1.6236
2.34484
1.81208
2.42565
1.90036
2.53432
3.74841
4.43187
3.85607
4.54744
3.6468
4.51854
3.78437
4.67714
4.12572
3.36444
4.29393
3.6011
4.11812
3.24636
4.33875
3.47965
2.02658
1.40485
2.15873
1.48579
2.16045
1.62022
2.30257
1.71816
1.15579
1.15578
1.21763
1.21762
1.40668
1.40666
1.48802
1.48799
1.40484
2.02658
1.48577
2.15872
1.62016
2.16035
1.71808
2.30243
3.36453
4.12592
3.60117
4.29406
3.24622
4.11796
3.47945
4.33851
2.02031
1.63478
0.33004
0.399432
1.64074
1.3609
0.232444
0.266351
0.438736
0.0790343
0.0419061
0.00811606
0.306521
0.0429379
0.0240325
0.006371
0.0117851
0.0117861
0.00522012
0.00522015
0.00666643
0.00666672
0.00524023
0.00524022
0.0790392
0.438744
0.00811639
0.0419103
0.0429407
0.306529
0.00637114
0.0240339
1.63479
2.02034
0.399465
0.330053
1.36092
1.64077
0.266362
0.232453
4.40289
3.47855
3.41992
2.68505
3.92253
3.08472
2.9828
2.34149
1.65169
0.752061
1.08359
0.359483
1.36671
0.563404
0.86556
0.241527
0.377785
0.377782
0.10408
0.104083
0.237414
0.237415
0.0522277
0.0522304
0.752039
1.65164
0.359484
1.08358
0.563394
1.36669
0.241532
0.865558
3.47851
4.40288
2.68503
3.41992
3.08469
3.92252
2.34148
2.9828
5.64152
4.56009
5.10712
4.08219
5.11282
4.10142
4.59709
3.65056
2.55468
1.50073
2.13695
1.13959
2.16827
1.19785
1.79575
0.888174
1.05338
1.05336
0.721135
0.721125
0.798273
0.798261
0.518111
0.518106
1.50067
2.55459
1.13956
2.13689
1.19781
2.1682
0.888153
1.79571
4.56003
5.64151
4.08213
5.1071
4.10136
5.11278
3.65052
4.59705
6.39898
5.26957
6.05978
4.94712
5.86196
4.78458
5.52282
4.47129
3.23119
2.12524
2.91609
1.82932
2.7839
1.7481
2.49488
1.48513
1.64609
1.64606
1.36292
1.36289
1.31334
1.31331
1.06507
1.06506
2.12516
3.23108
1.82925
2.916
1.74803
2.7838
1.48508
2.4948
5.26951
6.39901
4.94705
6.05976
4.7845
5.86191
4.47122
5.52276
6.90514
5.76695
6.6752
5.53863
6.38495
5.28108
6.1446
5.05093
3.74444
2.62393
3.5054
2.38944
3.26491
2.20038
3.03916
1.98625
2.13109
2.13106
1.90197
1.90194
1.747
1.74697
1.54083
1.5408
2.62384
3.74434
2.38936
3.5053
2.20029
3.26479
1.98617
3.03905
5.76694
6.90525
5.5386
6.67524
5.281
6.38492
5.05084
6.14453
7.25198
6.12092
7.09384
5.95824
6.75901
5.64746
6.58637
5.4775
4.13069
3.01168
3.95149
2.8306
3.63687
2.56037
3.46309
2.39126
2.51414
2.51411
2.33466
2.33463
2.09696
2.09692
1.93209
1.93206
3.0116
4.13062
2.83051
3.95139
2.56026
3.63673
2.39116
3.46296
6.121
7.25221
5.95827
7.09397
5.64739
6.75901
5.47742
6.58633
7.4885
6.37027
7.38103
6.25619
7.02736
5.91509
6.90396
5.7915
4.41588
3.30539
4.28444
3.1693
3.91828
2.83853
3.78773
2.70895
2.80785
2.80782
2.67138
2.67135
2.37022
2.37018
2.24263
2.24259
3.30533
4.41584
3.16922
4.28438
2.83842
3.91814
2.70884
3.78759
6.37044
7.48887
6.2563
7.38129
5.91506
7.02743
5.79145
6.90396
7.64383
6.5401
7.57398
6.46314
7.21288
6.10419
7.12835
6.01767
4.62014
3.52099
4.52692
3.42208
4.12439
3.04631
4.02972
2.95049
3.02583
3.02581
2.92555
2.92553
2.57622
2.57618
2.48102
2.48098
3.52095
4.62016
3.42202
4.52691
3.04619
4.12426
2.95038
4.02958
6.54038
7.64435
6.46335
7.57438
6.1042
7.21302
6.01765
7.1284
7.73795
6.6486
7.69658
6.60032
7.33333
6.23052
7.27934
6.17357
4.75989
3.67281
4.69711
3.60414
4.26863
3.19499
4.20333
3.12736
3.18121
3.18119
3.1107
3.11068
2.7251
2.72505
2.65721
2.65717
3.67279
4.75997
3.60411
4.69715
3.19487
4.26852
3.12724
4.2032
6.64898
7.73861
6.60064
7.69712
6.23058
7.33354
6.17359
7.27946
7.78533
6.70955
7.76586
6.68359
7.40261
6.30697
7.37273
6.27355
4.84856
3.77335
4.80984
3.72892
4.36281
3.29517
4.3212
3.25056
3.2858
3.2858
3.23934
3.23933
2.82671
2.82667
2.78129
2.78125
3.77336
4.84869
3.72891
4.80994
3.29506
4.36271
3.25045
4.32109
6.71003
7.78613
6.68401
7.76653
6.30708
7.4029
6.27362
7.37292
7.79699
6.73388
7.79422
6.72507
7.432
6.34429
7.42082
6.32924
4.89722
3.83328
4.87729
3.80795
4.41716
3.3564
4.3943
3.33016
3.34996
3.34996
3.32254
3.32254
2.89017
2.89013
2.86277
2.86273
3.83332
4.89741
3.80797
4.87743
3.3563
4.41709
3.33006
4.39421
6.73445
7.79791
6.72557
7.79501
6.34444
7.43236
6.32936
7.42108
7.78167
6.73014
7.79167
6.73444
7.4304
6.35097
7.43372
6.35033
4.91486
3.86154
4.90947
3.85106
4.44028
3.38695
4.43208
3.37512
3.38247
3.38247
3.3699
3.3699
2.9235
2.92346
2.91025
2.91021
3.86159
4.91509
3.8511
4.90967
3.38687
4.44022
3.37502
4.43201
6.73079
7.78269
6.73503
7.79257
6.35117
7.43083
6.3505
7.43404
7.74541
6.70496
7.76498
6.71928
7.40526
6.33471
7.41968
6.34485
4.90892
3.86547
4.91443
3.86632
4.43952
3.39381
4.44239
3.39305
3.39056
3.39058
3.38941
3.38942
2.93351
2.93348
2.93116
2.93113
3.86556
4.90922
3.86639
4.91467
3.39376
4.43954
3.39297
4.44236
6.7057
7.74655
6.71995
7.76598
6.33502
7.40582
6.34508
7.42008
7.69198
6.66233
7.71996
6.68509
7.36061
6.29949
7.38443
6.31865
4.88436
3.85095
4.89881
3.86058
4.42019
3.38297
4.43199
3.39056
3.38045
3.38049
3.38785
3.38787
2.92625
2.92625
2.93191
2.93189
3.85109
4.88476
3.86069
4.89913
3.38301
4.42044
3.39053
4.43208
6.66326
7.69335
6.68588
7.72111
6.30026
7.36174
6.31909
7.38506
7.62312
6.60451
7.65888
6.63479
7.29931
6.24851
7.3311
6.27515
4.84471
3.82164
4.86632
3.8381
4.38583
3.3578
4.40459
3.37196
3.35577
3.35582
3.36988
3.36992
2.90515
2.90518
2.91724
2.91726
3.82183
4.84522
3.83826
4.86677
3.35798
4.38646
3.37208
4.40503
6.60558
7.62478
6.63581
7.66036
6.25012
7.30163
6.27633
7.33272
7.5413
6.53465
7.58299
6.57036
7.22491
6.18514
7.26332
6.21791
4.79401
3.78197
4.82055
3.80306
4.34078
3.32288
4.36444
3.34143
3.32109
3.32114
3.33968
3.33973
2.87472
2.87476
2.89099
2.89102
3.78219
4.79456
3.80326
4.82106
3.32311
4.34163
3.34163
4.36518
6.53569
7.54297
6.57134
7.5845
6.18756
7.22844
6.21981
7.26591
7.45412
6.46015
7.49695
6.49689
7.14298
6.11598
7.18316
6.14991
4.73761
3.73625
4.76629
3.75986
4.28977
3.28211
4.31563
3.3031
3.28025
3.2803
3.3015
3.30155
2.8385
2.83854
2.85728
2.85732
3.73644
4.73801
3.76008
4.76682
3.28234
4.29059
3.30335
4.31651
6.46039
7.45523
6.49777
7.49855
6.11741
7.1455
6.15198
7.18658
7.37013
6.38705
7.41152
6.42334
7.06471
6.04841
7.10342
6.08214
4.67949
3.68737
4.70897
3.7124
4.23699
3.23824
4.26373
3.26064
3.23579
3.23582
3.25865
3.25869
2.79883
2.79886
2.81915
2.81919
3.68742
4.6793
3.71249
4.70897
3.23841
4.23759
3.26083
4.2644
6.38497
7.36759
6.42203
7.41065
6.05026
7.0673
6.0836
7.1055
7.28046
6.3097
7.32468
6.34779
6.97856
5.97502
7.02123
6.01106
4.61817
3.63575
4.64912
3.66205
4.18085
3.1917
4.20909
3.21532
3.18869
3.18875
3.21277
3.21281
2.75667
2.75672
2.77813
2.77817
3.63595
4.61859
3.66217
4.64926
3.19196
4.18167
3.21553
4.2098
6.31043
7.28191
6.34742
7.32383
5.97759
6.98222
6.01333
7.0243
7.19201
6.23238
7.23611
6.27115
6.89533
5.90359
6.93645
5.93923
4.55558
3.58231
4.58732
3.60952
4.12365
3.1435
4.15256
3.16794
3.13964
3.13971
3.16466
3.16472
2.71273
2.7128
2.73504
2.7351
3.58249
4.55582
3.60969
4.58755
3.14379
4.12448
3.16821
4.15336
6.23153
7.19085
6.27041
7.236
5.90591
6.89895
5.94157
6.93994
7.0956
6.14949
7.14312
6.19023
6.80467
5.82662
6.8492
5.86422
4.49006
3.52682
4.52304
3.55499
4.0636
3.09341
4.09376
3.11874
3.08881
3.08888
3.11468
3.11475
2.66718
2.66726
2.69026
2.69034
3.52709
4.49066
3.55523
4.52358
3.09375
4.06457
3.11907
4.09469
6.15109
7.09788
6.19123
7.14394
5.82819
6.80725
5.86636
6.85269
7.00034
6.06736
7.04765
6.10823
6.71499
5.74986
6.75969
5.78825
4.42351
3.46986
4.45717
3.49877
4.00265
3.04202
4.03338
3.068
3.03646
3.03651
3.06306
3.06313
2.62029
2.62033
2.64402
2.64408
3.47003
4.42378
3.49898
4.45753
3.04226
4.00342
3.0683
4.03425
6.06743
7.00058
6.10878
7.04882
5.75198
6.71782
5.78998
6.76196
6.90015
5.9818
6.9497
6.02409
6.61743
5.66785
6.66579
5.70818
4.35452
3.41124
4.38926
3.44093
3.93932
2.98911
3.97109
3.01581
2.98268
2.98271
3.00997
3.01001
2.5721
2.5721
2.59646
2.59648
3.41138
4.35495
3.44108
4.3896
2.98921
3.93984
3.01598
3.97176
5.98281
6.90157
6.02462
6.95028
5.66985
6.62039
5.71035
6.66879
6.80033
5.89589
6.84993
5.93875
6.52374
5.58875
6.56962
5.62785
4.28466
3.35145
4.3199
3.38172
3.87564
2.93521
3.90761
2.96239
2.9277
2.9277
2.95557
2.95558
2.52284
2.5228
2.54772
2.54769
3.35152
4.285
3.38181
4.32022
2.93515
3.87576
2.96241
3.90793
5.89665
6.80132
5.93948
6.85111
5.58959
6.52532
5.62928
6.57189
6.69568
5.80713
6.74692
5.85049
6.42542
5.5065
6.4734
5.54645
4.21313
3.29031
4.24904
3.32124
3.81029
2.88006
3.84303
2.90787
2.87147
2.87148
2.89997
2.89998
2.47244
2.47239
2.4979
2.49785
3.29041
4.2136
3.32132
4.24948
2.87995
3.81021
2.90778
3.84301
5.80883
6.69801
5.85194
6.7486
5.50599
6.42505
5.54656
6.47406
6.59166
5.71831
6.64346
5.76267
6.32606
5.42293
6.37571
5.46471
4.14022
3.22761
4.17709
3.25942
3.7433
2.82334
3.77714
2.85204
2.81369
2.8137
2.84303
2.84304
2.42059
2.42055
2.44684
2.44679
3.22767
4.14049
3.25949
4.17744
2.82325
3.74325
2.85194
3.77706
5.71903
6.59287
5.7638
6.64526
5.42308
6.32631
5.46453
6.3754
6.48087
5.62393
6.53642
5.6712
6.21958
5.33372
6.27289
5.37831
4.06395
3.16245
4.10261
3.19556
3.67305
2.76435
3.70857
2.79423
2.75381
2.75382
2.78425
2.78425
2.36684
2.36681
2.39407
2.39403
3.16251
4.06419
3.19561
4.10284
2.76428
3.67302
2.79415
3.70852
5.62455
6.48181
5.67182
6.53734
5.33394
6.22001
5.3785
6.27322
6.36462
5.52521
6.42261
5.57449
6.10801
5.24053
6.16359
5.28694
3.98442
3.09469
4.02464
3.12907
3.59984
2.70305
3.63677
2.73406
2.69163
2.69165
2.72321
2.72323
2.31107
2.31104
2.3393
2.33927
3.09477
3.98468
3.12914
4.02488
2.703
3.59985
2.734
3.63676
5.52585
6.36557
5.5751
6.4235
5.24078
6.10847
5.28717
6.16397
6.24466
5.42335
6.30436
5.47409
5.9929
5.14439
6.05013
5.1922
3.90214
3.0245
3.94368
3.06007
3.52415
2.63959
3.56228
2.67166
2.62719
2.62721
2.65989
2.65991
2.25331
2.25329
2.28253
2.28251
3.0246
3.90242
3.06016
3.94394
2.63955
3.52417
2.67162
3.56229
5.42401
6.24562
5.47472
6.30526
5.14465
5.99337
5.19244
6.05054
6.12194
5.31897
6.18295
5.37092
5.87493
5.04575
5.93354
5.09478
3.81739
2.95196
3.86014
2.9887
3.44614
2.574
3.48542
2.60714
2.56048
2.5605
2.59432
2.59434
2.19352
2.1935
2.22376
2.22375
2.95206
3.81768
2.9888
3.86042
2.57397
3.44617
2.60711
3.48545
5.31962
6.12288
5.37156
6.18385
5.04602
5.8754
5.09504
5.93396
5.99693
5.2123
6.05905
5.26539
5.7544
4.9448
5.81428
4.99498
3.73017
2.87693
3.77418
2.91494
3.36576
2.50612
3.40625
2.54044
2.4913
2.49132
2.5264
2.52642
2.13152
2.13151
2.1629
2.16289
2.87704
3.73046
2.91504
3.77445
2.5061
3.3658
2.54041
3.40628
5.21293
5.99784
5.26602
6.05992
4.94506
5.75486
4.99523
5.81469
5.86985
5.10338
5.93301
5.15759
5.63134
4.84134
5.69251
4.89284
3.64023
2.79903
3.68564
2.83853
3.2827
2.43559
3.32459
2.47129
2.41922
2.41924
2.45583
2.45585
2.0669
2.06689
2.09966
2.09964
2.79913
3.6405
2.83863
3.6859
2.43557
3.28274
2.47127
3.32462
5.10399
5.87073
5.1582
5.93386
4.8416
5.63178
4.89309
5.6929
5.74042
4.99196
5.80484
5.04753
5.5056
4.73486
5.56817
4.78794
3.54694
2.71752
3.59413
2.75894
3.19634
2.36171
3.23998
2.39919
2.34347
2.3435
2.38203
2.38205
1.99898
1.99896
2.03349
2.03347
2.71762
3.5472
2.75904
3.59439
2.36169
3.19638
2.39917
3.24001
4.99255
5.74126
5.04812
5.80565
4.73511
5.50602
4.78819
5.56856
5.60775
4.87679
5.67396
4.93443
5.37622
4.62452
5.4408
4.6797
3.44901
2.63111
3.49872
2.67518
3.10555
2.28337
3.15158
2.32326
2.26278
2.2628
2.304
2.30402
1.92664
1.92663
1.96352
1.96351
2.6312
3.44927
2.67527
3.49897
2.28335
3.10559
2.32324
3.15162
4.87735
5.60854
4.93499
5.67473
4.62476
5.37663
4.67994
5.44117
5.4696
4.75558
5.53897
4.81665
5.24111
4.50821
5.30894
4.56675
3.34409
2.53755
3.3977
2.58555
3.00829
2.19866
3.0579
2.24203
2.17501
2.17503
2.2201
2.22012
1.84812
1.8481
1.88836
1.88835
2.53764
3.34434
2.58563
3.39793
2.19865
3.00833
2.24201
3.05794
4.75611
5.47034
4.81719
5.5397
4.50844
5.24149
4.56698
5.30929
5.32026
4.62287
5.39628
4.69069
5.09525
4.3812
5.16938
4.44595
3.22736
2.43282
3.2877
2.48706
2.9005
2.10426
2.95608
2.15302
2.07666
2.07668
2.12758
2.1276
1.76054
1.76053
1.80575
1.80574
2.43291
3.2276
2.48714
3.28793
2.10426
2.90055
2.15301
2.95612
4.62338
5.32096
4.6912
5.39697
4.38142
5.09562
4.44617
5.16972
5.14614
4.4653
5.23705
4.5481
4.9265
4.23172
5.01436
4.30999
3.08827
2.30947
3.16169
2.37423
2.77313
1.99394
2.84016
2.0517
1.96215
1.96217
2.02197
2.02199
1.65933
1.65933
1.71204
1.71204
2.30957
3.08851
2.37432
3.16192
1.99395
2.7732
2.05169
2.84021
4.46579
5.14681
4.54858
5.2377
4.23194
4.92686
4.31021
5.01468
4.91765
4.24495
5.04059
4.36684
4.70619
4.02389
4.82478
4.13887
2.9019
2.15478
3.00354
2.2371
2.6034
1.85638
2.69594
1.92952
1.82485
1.82488
1.89674
1.89677
1.53876
1.53877
1.60179
1.60179
2.15489
2.90215
2.2372
3.00377
1.85641
2.60349
1.92953
2.69601
4.24544
4.9183
4.36732
5.04122
4.02414
4.70657
4.1391
4.82512
4.59395
3.81411
4.77046
4.07705
4.38611
3.60739
4.56254
3.8637
2.6152
1.95821
2.77523
2.06137
2.33769
1.6802
2.48703
1.77299
1.66689
1.66692
1.7474
1.74743
1.39981
1.39982
1.47072
1.47073
1.95834
2.61547
2.06148
2.77548
1.68024
2.33781
1.77302
2.48713
3.81462
4.59466
4.07754
4.77111
3.60768
4.38655
3.86396
4.56291
2.48883
1.97956
0.488233
0.606422
2.29269
1.83281
0.414039
0.514246
0.632637
0.144876
0.0786715
0.0115024
0.546253
0.1132
0.0606403
0.00967652
0.0277154
0.0277181
0.0056704
0.00567054
0.0189808
0.0189825
0.00544012
0.00544018
0.144883
0.632643
0.0115034
0.0786787
0.113207
0.546264
0.00967705
0.060646
1.97957
2.48887
0.606459
0.488263
1.83283
2.29273
0.514281
0.414057
4.94932
3.94193
3.9233
3.09232
4.72261
3.7475
3.71398
2.92103
2.01719
1.02475
1.36667
0.535814
1.86029
0.90359
1.24467
0.45637
0.60516
0.605151
0.205873
0.205875
0.501276
0.501271
0.156398
0.156402
1.02472
2.01712
0.535809
1.36664
0.903563
1.86024
0.456372
1.24465
3.94188
4.94933
3.09229
3.92331
3.74746
4.7226
2.92102
3.71398
6.26431
5.12263
5.69525
4.59882
6.00348
4.8842
5.45031
4.38119
3.0668
1.94061
2.58016
1.50067
2.8452
1.74539
2.38937
1.34076
1.44899
1.44896
1.03626
1.03624
1.27031
1.27028
0.893788
0.893774
1.94053
3.0667
1.50062
2.58008
1.74532
2.84511
1.34072
2.3893
5.12258
6.26435
4.59876
5.69525
4.88414
6.00347
4.38114
5.45028
7.06068
5.89425
6.70688
5.54556
6.78002
5.62586
6.43413
5.29014
3.84867
2.69094
3.48628
2.33736
3.57844
2.43783
3.2381
2.11097
2.17406
2.17403
1.8296
1.82957
1.93435
1.93432
1.61833
1.61831
2.69086
3.84859
2.33728
3.48618
2.43775
3.57834
2.1109
3.23801
5.89428
7.06084
5.54554
6.70694
5.62584
6.78008
5.29009
6.43412
7.57263
6.4198
7.34294
6.18084
7.28611
6.13592
7.05794
5.90316
4.42852
3.27687
4.16038
3.00309
4.12633
2.9826
3.87228
2.72744
2.7546
2.75458
2.48195
2.48192
2.46991
2.46988
2.21781
2.21778
3.27682
4.42851
3.00302
4.16032
2.98253
4.12626
2.72736
3.8722
6.41997
7.57298
6.18092
7.34315
6.13599
7.2863
5.90317
7.05802
7.9063
6.7801
7.75635
6.61628
7.62254
6.4906
7.47042
6.32861
4.85334
3.72203
4.65771
3.51544
4.53182
3.40015
4.34451
3.20586
3.20335
3.20334
2.99429
2.99427
2.88729
2.88727
2.69237
2.69234
3.72203
4.85343
3.5154
4.65773
3.4001
4.53182
3.20579
4.34446
6.78045
7.90689
6.61652
7.75676
6.4908
7.6229
6.32873
7.47064
8.12036
7.02336
8.02474
6.91338
7.8438
6.73416
7.7442
6.62346
5.15861
4.05191
5.01897
3.89997
4.82636
3.71228
4.69117
3.56812
3.54058
3.54059
3.38474
3.38474
3.20349
3.20347
3.057
3.05698
4.05197
5.15883
3.89999
5.01911
3.71227
4.82644
3.56808
4.6912
7.02393
8.12121
6.91382
8.02541
6.73451
7.84436
6.62371
7.7446
8.25067
7.18126
8.19335
7.1107
7.98299
6.89545
7.9211
6.82289
5.3715
4.28917
5.27511
4.18094
5.03402
3.93866
4.93963
3.8351
3.78637
3.7864
3.67388
3.6739
3.43566
3.43566
3.32912
3.32911
4.2893
5.37185
4.18103
5.27537
3.93869
5.03419
3.8351
4.93974
7.18204
8.25179
7.11135
8.19427
6.89596
7.98375
6.82329
7.92169
8.3207
7.27582
8.29112
7.23462
8.06203
6.99477
8.02794
6.95103
5.51304
4.453
5.45005
4.37936
5.17374
4.09625
5.11125
4.02517
3.95865
3.9587
3.88088
3.88092
3.59954
3.59956
3.52534
3.52535
4.4532
5.51352
4.37952
5.45045
4.09633
5.174
4.02522
5.11144
7.27679
8.32206
7.23547
8.29229
6.99543
8.06299
6.95159
8.02872
8.34639
7.32277
8.33741
7.30377
8.09615
7.04693
8.083
7.02523
5.59951
4.55915
5.56232
4.51263
5.26047
4.19929
5.22285
4.1539
4.07265
4.07272
4.02234
4.0224
3.70877
3.70879
3.66036
3.66038
4.55942
5.60011
4.51285
5.56284
4.19942
5.26082
4.154
5.22314
7.32393
8.34798
7.3048
8.33882
7.04773
8.09728
7.02593
8.08396
8.33955
7.334
8.34557
7.33164
8.09666
7.06329
8.09909
7.0583
5.64371
4.62042
5.62628
4.59494
5.30618
4.25959
5.28777
4.23426
4.14101
4.1411
4.11212
4.1122
3.77489
3.77493
3.74673
3.74676
4.62075
5.64441
4.59522
5.6269
4.25976
5.30661
4.2344
5.28813
7.33531
8.34132
7.33284
8.34718
7.0642
8.09795
7.05913
8.10021
8.30806
7.31829
8.32578
7.32867
8.0719
7.05251
8.08637
7.0603
5.65548
4.64705
5.65327
4.6378
5.32031
4.28674
5.31672
4.27694
4.17399
4.1741
4.16167
4.16177
3.80747
3.80752
3.79503
3.79507
4.64743
5.65627
4.63814
5.65399
4.28694
5.3208
4.27712
5.31715
7.31974
8.30999
7.33001
8.32757
7.05355
8.07332
7.06124
8.08764
8.25797
7.28205
8.28419
7.3018
8.02766
7.02095
8.05097
7.03829
5.64278
4.64729
5.65194
4.65028
5.3105
4.28855
5.318
4.29052
4.17986
4.17998
4.18019
4.1803
3.81426
3.81433
3.81386
3.81392
4.64772
5.64365
4.65067
5.65274
4.2888
5.31106
4.29073
5.3185
7.2836
8.26003
7.30326
8.28611
7.02208
8.0292
7.03933
8.05235
8.19247
7.22912
8.22627
7.25695
7.96741
6.97252
7.9986
6.99805
5.61067
4.62716
5.62903
4.63983
5.28173
4.27093
5.29827
4.28215
4.16521
4.16535
4.17526
4.17538
3.80167
3.80175
3.81043
3.8105
4.62762
5.61159
4.64026
5.6299
4.27121
5.28234
4.2824
5.29882
7.23075
8.19462
7.2585
8.2283
6.97373
7.96905
6.99918
8.00009
8.11252