/*--------------------------------*- C++ -*----------------------------------*\
  =========                 |
  \\      /  F ield         | OpenFOAM: The Open Source CFD Toolbox
   \\    /   O peration     | Website:  https://openfoam.org
    \\  /    A nd           | Version:  9
     \\/     M anipulation  |
\*---------------------------------------------------------------------------*/
FoamFile
{
    format      ascii;
    class       volScalarField;
    location    "1.8";
    object      p;
}
// * * * * * * * * * * * * * * * * * * * * * * * * * * * * * * * * * * * * * //

dimensions      [0 2 -2 0 0 0 0];

internalField   nonuniform List<scalar> 
36360
(
20.1313
20.0789
20.1111
20.0926
20.0977
20.1018
20.1045
20.0939
20.0997
20.101
20.1004
20.1009
20.0997
20.0997
20.0982
20.0991
20.1009
20.1009
20.1009
20.1009
20.0998
20.0998
20.0991
20.0991
20.101
20.0997
20.1009
20.1004
20.0997
20.0997
20.0991
20.0982
20.0789
20.1313
20.0926
20.1111
20.1018
20.0977
20.0939
20.1045
20.1405
20.0823
20.1424
20.0765
20.0749
20.1269
20.088
20.1126
20.1001
20.1014
20.0996
20.101
20.1017
20.0997
20.1008
20.0999
20.1014
20.1014
20.101
20.101
20.0998
20.0998
20.1001
20.1001
20.1014
20.1001
20.101
20.0996
20.0997
20.1017
20.0999
20.1008
20.0823
20.1405
20.0765
20.1424
20.1269
20.075
20.1126
20.088
20.1234
20.0965
20.1325
20.0898
20.0416
20.1583
20.0586
20.1432
20.1035
20.1015
20.1012
20.1016
20.1074
20.0993
20.1039
20.0994
20.1017
20.1017
20.1018
20.1018
20.0991
20.0991
20.0995
20.0995
20.1015
20.1035
20.1016
20.1012
20.0993
20.1074
20.0994
20.1039
20.0965
20.1234
20.0898
20.1325
20.1583
20.0416
20.1432
20.0586
20.1066
20.1056
20.1147
20.1017
20.0107
20.1823
20.0254
20.1714
20.1105
20.1019
20.1068
20.1015
20.1167
20.1001
20.1118
20.0995
20.1003
20.1003
20.101
20.101
20.0984
20.0984
20.0988
20.0988
20.1019
20.1105
20.1015
20.1068
20.1001
20.1167
20.0995
20.1118
20.1056
20.1066
20.1017
20.1147
20.1823
20.0107
20.1714
20.0254
20.0928
20.1102
20.0993
20.1083
19.9858
20.1986
19.9975
20.1913
20.1176
20.1039
20.1141
20.1028
20.1261
20.1023
20.1215
20.1011
20.0995
20.0995
20.0998
20.0998
20.0982
20.0982
20.0982
20.0982
20.1039
20.1176
20.1028
20.1141
20.1023
20.1261
20.1011
20.1215
20.1102
20.0928
20.1083
20.0993
20.1986
19.9858
20.1913
19.9976
20.0818
20.1122
20.087
20.1115
19.9662
20.2094
19.9754
20.2046
20.1239
20.1068
20.1209
20.1053
20.1344
20.1053
20.1305
20.1038
20.0997
20.0997
20.0995
20.0995
20.0986
20.0986
20.0983
20.0983
20.1068
20.1239
20.1053
20.1209
20.1053
20.1344
20.1038
20.1305
20.1122
20.0818
20.1115
20.087
20.2093
19.9662
20.2045
19.9754
20.073
20.1127
20.0771
20.1125
19.951
20.2163
19.9581
20.2132
20.1291
20.1098
20.1267
20.1083
20.141
20.1085
20.1379
20.1069
20.1007
20.1007
20.1001
20.1001
20.0998
20.0998
20.0991
20.0991
20.1098
20.1291
20.1083
20.1267
20.1085
20.1409
20.1069
20.1379
20.1127
20.073
20.1125
20.0771
20.2163
19.951
20.2132
19.9581
20.066
20.1125
20.0693
20.1126
19.9392
20.2208
19.9447
20.2188
20.1331
20.1127
20.1312
20.1113
20.146
20.1116
20.1436
20.1101
20.1023
20.1023
20.1015
20.1015
20.1014
20.1014
20.1005
20.1005
20.1127
20.1331
20.1113
20.1312
20.1116
20.146
20.1101
20.1436
20.1125
20.066
20.1126
20.0693
20.2208
19.9392
20.2188
19.9447
20.0604
20.1119
20.0631
20.1122
19.9302
20.2236
19.9344
20.2224
20.1361
20.1153
20.1347
20.114
20.1498
20.1143
20.148
20.113
20.1042
20.1042
20.1032
20.1032
20.1032
20.1032
20.1023
20.1023
20.1153
20.1361
20.114
20.1347
20.1143
20.1497
20.113
20.148
20.1119
20.0604
20.1122
20.0631
20.2236
19.9302
20.2224
19.9344
20.0559
20.1113
20.058
20.1116
19.9233
20.2253
19.9265
20.2246
20.1384
20.1176
20.1373
20.1165
20.1525
20.1167
20.1512
20.1155
20.1061
20.1061
20.1051
20.1051
20.1051
20.1051
20.1042
20.1042
20.1176
20.1384
20.1165
20.1373
20.1167
20.1525
20.1155
20.1512
20.1113
20.0559
20.1117
20.0581
20.2253
19.9233
20.2246
19.9265
20.0523
20.1107
20.054
20.111
19.9181
20.2261
19.9205
20.2258
20.1401
20.1196
20.1393
20.1186
20.1545
20.1187
20.1536
20.1177
20.1079
20.1079
20.107
20.107
20.1069
20.1069
20.106
20.106
20.1196
20.1401
20.1186
20.1393
20.1187
20.1545
20.1177
20.1536
20.1107
20.0523
20.111
20.054
20.2261
19.9182
20.2258
19.9206
20.0494
20.1102
20.0508
20.1105
19.9144
20.2264
19.9161
20.2263
20.1414
20.1212
20.1408
20.1204
20.1559
20.1203
20.1553
20.1195
20.1096
20.1096
20.1088
20.1088
20.1085
20.1085
20.1077
20.1077
20.1212
20.1414
20.1204
20.1408
20.1203
20.1559
20.1195
20.1553
20.1102
20.0494
20.1105
20.0508
20.2264
19.9144
20.2263
19.9161
20.0471
20.1098
20.0482
20.11
19.9117
20.2263
19.9129
20.2264
20.1424
20.1226
20.142
20.122
20.1569
20.1217
20.1565
20.121
20.1111
20.1111
20.1104
20.1104
20.11
20.11
20.1093
20.1093
20.1226
20.1424
20.1219
20.142
20.1217
20.1569
20.121
20.1565
20.1098
20.0471
20.11
20.0482
20.2263
19.9117
20.2264
19.9129
20.0453
20.1095
20.0462
20.1096
19.9099
20.2258
19.9107
20.2261
20.1432
20.1237
20.1428
20.1232
20.1576
20.1228
20.1573
20.1223
20.1124
20.1124
20.1118
20.1118
20.1112
20.1112
20.1106
20.1106
20.1237
20.1432
20.1232
20.1429
20.1228
20.1576
20.1223
20.1573
20.1095
20.0454
20.1096
20.0462
20.2259
19.9099
20.2261
19.9107
20.0439
20.1093
20.0446
20.1094
19.9089
20.2252
19.9093
20.2256
20.1438
20.1247
20.1435
20.1242
20.1579
20.1236
20.1578
20.1232
20.1136
20.1136
20.113
20.113
20.1123
20.1123
20.1117
20.1118
20.1247
20.1438
20.1242
20.1436
20.1236
20.1579
20.1232
20.1578
20.1093
20.044
20.1094
20.0446
20.2253
19.9088
20.2256
19.9093
20.0429
20.1092
20.0434
20.1093
19.9084
20.2245
19.9086
20.2249
20.1442
20.1255
20.144
20.1251
20.1581
20.1243
20.158
20.124
20.1146
20.1146
20.1141
20.1141
20.1131
20.1131
20.1127
20.1127
20.1254
20.1442
20.1251
20.144
20.1243
20.1581
20.124
20.158
20.1092
20.043
20.1092
20.0434
20.2246
19.9083
20.225
19.9085
20.0422
20.1092
20.0425
20.1092
19.9085
20.2237
19.9084
20.2241
20.1443
20.1261
20.1443
20.1258
20.158
20.1248
20.158
20.1245
20.1154
20.1154
20.115
20.115
20.1138
20.1138
20.1135
20.1135
20.1261
20.1444
20.1258
20.1443
20.1248
20.158
20.1245
20.1581
20.1092
20.0423
20.1092
20.0426
20.2239
19.9082
20.2242
19.9082
20.0418
20.1093
20.042
20.1092
19.9088
20.2229
19.9086
20.2233
20.1444
20.1265
20.1444
20.1263
20.1578
20.1251
20.1579
20.125
20.1161
20.1161
20.1158
20.1158
20.1144
20.1144
20.1141
20.1141
20.1266
20.1444
20.1263
20.1444
20.1251
20.1578
20.125
20.1579
20.1093
20.0419
20.1092
20.042
20.2231
19.9086
20.2235
19.9084
20.0416
20.1094
20.0417
20.1093
19.9093
20.2221
19.9091
20.2225
20.1444
20.1269
20.1444
20.1268
20.1575
20.1254
20.1577
20.1253
20.1167
20.1167
20.1164
20.1164
20.1149
20.1149
20.1146
20.1147
20.1269
20.1444
20.1268
20.1444
20.1254
20.1576
20.1253
20.1577
20.1094
20.0417
20.1093
20.0417
20.2223
19.9092
20.2227
19.9088
20.0418
20.1096
20.0417
20.1095
19.9103
20.2213
19.9098
20.2217
20.1444
20.1272
20.1444
20.1271
20.1572
20.1255
20.1574
20.1254
20.1172
20.1172
20.117
20.117
20.1152
20.1152
20.115
20.1151
20.1273
20.1444
20.1271
20.1444
20.1255
20.1573
20.1255
20.1574
20.1096
20.0417
20.1095
20.0417
20.2215
19.91
20.2219
19.9096
20.0419
20.1099
20.0418
20.1097
19.9113
20.2206
19.9107
20.221
20.1444
20.1275
20.1444
20.1274
20.1569
20.1256
20.1571
20.1256
20.1177
20.1177
20.1175
20.1175
20.1155
20.1155
20.1154
20.1154
20.1275
20.1445
20.1274
20.1444
20.1256
20.157
20.1256
20.1571
20.1099
20.0419
20.1097
20.0418
20.2208
19.9111
20.2211
19.9105
20.0422
20.1104
20.042
20.1102
19.9124
20.2199
19.9118
20.2203
20.1445
20.1278
20.1445
20.1277
20.1566
20.1257
20.1568
20.1256
20.1181
20.1181
20.1179
20.1179
20.1157
20.1157
20.1156
20.1156
20.1278
20.1445
20.1277
20.1445
20.1257
20.1566
20.1256
20.1568
20.1103
20.0423
20.1101
20.042
20.22
19.9124
20.2204
19.9117
20.0429
20.1107
20.0425
20.1106
19.9139
20.2192
19.9132
20.2195
20.1445
20.128
20.1445
20.1279
20.1563
20.1257
20.1564
20.1257
20.1185
20.1185
20.1183
20.1183
20.1159
20.1159
20.1158
20.1158
20.128
20.1446
20.1279
20.1445
20.1257
20.1563
20.1257
20.1565
20.1108
20.0429
20.1105
20.0426
20.2193
19.9139
20.2197
19.9131
20.0435
20.1114
20.0432
20.1111
19.9155
20.2186
19.9147
20.2189
20.1447
20.1283
20.1446
20.1282
20.156
20.1257
20.1561
20.1257
20.1189
20.1189
20.1187
20.1187
20.1161
20.1161
20.116
20.116
20.1283
20.1447
20.1282
20.1446
20.1257
20.156
20.1257
20.1561
20.1114
20.0436
20.1111
20.0432
20.2187
19.9155
20.219
19.9147
20.0445
20.1121
20.0439
20.1117
19.9174
20.2181
19.9164
20.2183
20.1449
20.1286
20.1448
20.1284
20.1557
20.1257
20.1558
20.1257
20.1193
20.1193
20.1191
20.1191
20.1162
20.1162
20.1162
20.1162
20.1286
20.1449
20.1284
20.1448
20.1257
20.1557
20.1257
20.1558
20.112
20.0445
20.1117
20.044
20.2181
19.9174
20.2184
19.9164
20.0455
20.1128
20.045
20.1124
19.9195
20.2175
19.9184
20.2178
20.1451
20.1289
20.145
20.1287
20.1554
20.1258
20.1555
20.1258
20.1197
20.1197
20.1195
20.1195
20.1165
20.1165
20.1163
20.1163
20.1289
20.1451
20.1287
20.145
20.1258
20.1554
20.1258
20.1555
20.1128
20.0456
20.1124
20.045
20.2175
19.9195
20.2178
19.9184
20.0468
20.1137
20.0461
20.1133
19.9218
20.217
19.9206
20.2173
20.1453
20.1293
20.1452
20.1291
20.1551
20.1259
20.1553
20.1258
20.1203
20.1203
20.12
20.12
20.1167
20.1167
20.1166
20.1166
20.1293
20.1453
20.1291
20.1452
20.1259
20.1551
20.1258
20.1553
20.1137
20.0468
20.1133
20.0461
20.217
19.9218
20.2173
19.9206
20.0482
20.1147
20.0475
20.1142
19.9243
20.2165
19.923
20.2168
20.1456
20.1297
20.1455
20.1295
20.1549
20.126
20.155
20.126
20.1209
20.1209
20.1206
20.1206
20.1171
20.1171
20.1169
20.1169
20.1297
20.1456
20.1295
20.1455
20.126
20.1549
20.126
20.155
20.1147
20.0483
20.1142
20.0475
20.2165
19.9244
20.2168
19.9231
20.0499
20.1158
20.0491
20.1152
19.9272
20.2161
19.9257
20.2163
20.146
20.1302
20.1458
20.13
20.1547
20.1263
20.1548
20.1261
20.1216
20.1216
20.1212
20.1212
20.1175
20.1175
20.1173
20.1173
20.1302
20.146
20.13
20.1458
20.1263
20.1547
20.1261
20.1548
20.1158
20.0499
20.1152
20.0491
20.2161
19.9272
20.2163
19.9258
20.0518
20.1169
20.0508
20.1163
19.9303
20.2156
19.9287
20.2159
20.1464
20.1308
20.1462
20.1305
20.1546
20.1266
20.1546
20.1264
20.1224
20.1224
20.122
20.122
20.1181
20.1181
20.1178
20.1178
20.1308
20.1464
20.1305
20.1462
20.1266
20.1546
20.1264
20.1546
20.1169
20.0518
20.1164
20.0509
20.2156
19.9304
20.2158
19.9287
20.054
20.1182
20.0529
20.1175
19.9338
20.2152
19.932
20.2154
20.1469
20.1315
20.1467
20.1312
20.1545
20.127
20.1545
20.1268
20.1233
20.1233
20.1228
20.1228
20.1188
20.1188
20.1184
20.1184
20.1315
20.1469
20.1312
20.1467
20.127
20.1545
20.1268
20.1545
20.1182
20.054
20.1176
20.0529
20.2152
19.9338
20.2154
19.9321
20.0564
20.1195
20.0552
20.1188
19.9376
20.2148
19.9357
20.215
20.1474
20.1323
20.1472
20.1319
20.1544
20.1275
20.1544
20.1273
20.1244
20.1244
20.1239
20.1239
20.1197
20.1197
20.1192
20.1192
20.1323
20.1474
20.1319
20.1472
20.1275
20.1544
20.1273
20.1544
20.1195
20.0564
20.1188
20.0552
20.2148
19.9377
20.215
19.9357
20.059
20.1209
20.0577
20.1202
19.9419
20.2143
19.9397
20.2146
20.1479
20.1332
20.1476
20.1328
20.1543
20.1282
20.1543
20.1279
20.1257
20.1257
20.125
20.125
20.1207
20.1207
20.1202
20.1202
20.1332
20.1479
20.1328
20.1476
20.1282
20.1543
20.1279
20.1543
20.1209
20.059
20.1202
20.0577
20.2143
19.9419
20.2145
19.9397
20.0619
20.1223
20.0604
20.1216
19.9466
20.2137
19.9442
20.214
20.1484
20.1342
20.1481
20.1337
20.1542
20.129
20.1543
20.1286
20.1271
20.1271
20.1264
20.1264
20.122
20.122
20.1213
20.1213
20.1342
20.1484
20.1337
20.1481
20.129
20.1542
20.1286
20.1543
20.1223
20.0619
20.1216
20.0604
20.2137
19.9466
20.214
19.9442
20.065
20.1237
20.0634
20.123
19.9518
20.213
19.9491
20.2134
20.1489
20.1353
20.1486
20.1348
20.1542
20.13
20.1542
20.1295
20.1286
20.1286
20.1278
20.1278
20.1234
20.1234
20.1227
20.1227
20.1353
20.1489
20.1348
20.1486
20.13
20.1542
20.1295
20.1542
20.1237
20.065
20.123
20.0634
20.213
19.9519
20.2134
19.9492
20.0683
20.1252
20.0667
20.1245
19.9578
20.212
19.9547
20.2126
20.1494
20.1365
20.1492
20.1359
20.1542
20.1311
20.1542
20.1306
20.1303
20.1303
20.1295
20.1295
20.1251
20.1251
20.1242
20.1242
20.1365
20.1494
20.1359
20.1492
20.1311
20.1541
20.1306
20.1542
20.1252
20.0684
20.1245
20.0667
20.212
19.9578
20.2126
19.9547
20.0717
20.1269
20.07
20.126
19.9646
20.2105
19.9611
20.2113
20.1499
20.1378
20.1497
20.1372
20.154
20.1324
20.1541
20.1318
20.1322
20.1322
20.1312
20.1312
20.1269
20.1269
20.126
20.126
20.1378
20.1499
20.1372
20.1497
20.1324
20.154
20.1318
20.1541
20.1269
20.0717
20.126
20.07
20.2105
19.9646
20.2113
19.9611
20.0739
20.1295
20.0731
20.1279
19.9728
20.208
19.9685
20.2094
20.1504
20.1392
20.1501
20.1385
20.1538
20.1338
20.1539
20.1331
20.1342
20.1342
20.1332
20.1332
20.1289
20.1289
20.1279
20.1279
20.1392
20.1504
20.1385
20.1501
20.1338
20.1538
20.1331
20.1539
20.1295
20.0739
20.1279
20.0731
20.208
19.9729
20.2094
19.9686
20.0757
20.132
20.0738
20.1319
19.983
20.2035
19.9776
20.2061
20.1513
20.141
20.1509
20.1401
20.1535
20.1355
20.1536
20.1346
20.1365
20.1365
20.1353
20.1353
20.1311
20.1311
20.13
20.13
20.141
20.1513
20.1401
20.1508
20.1355
20.1535
20.1346
20.1536
20.132
20.0757
20.1319
20.0738
20.2035
19.983
20.2061
19.9776
20.1583
20.057
20.1208
20.0801
20.1486
20.0617
20.1152
20.084
20.0958
20.1007
20.1
20.1006
20.097
20.1004
20.0991
20.0998
20.1009
20.1009
20.1005
20.1005
20.1005
20.1005
20.0998
20.0998
20.1007
20.0958
20.1006
20.1
20.1004
20.097
20.0998
20.0991
20.057
20.1583
20.0801
20.1208
20.0617
20.1486
20.084
20.1152
20.1809
20.0613
20.1782
20.0552
20.1736
20.06
20.1695
20.0564
20.0861
20.0991
20.09
20.1002
20.0903
20.1001
20.0933
20.1007
20.1014
20.1014
20.1011
20.1011
20.1013
20.1013
20.1011
20.1011
20.0991
20.0861
20.1002
20.09
20.1001
20.0903
20.1007
20.0933
20.0613
20.1809
20.0552
20.1782
20.06
20.1736
20.0564
20.1695
20.1759
20.0732
20.1788
20.0681
20.1675
20.0697
20.1714
20.0653
20.0852
20.0967
20.0849
20.0977
20.0899
20.0991
20.0893
20.0995
20.101
20.101
20.1014
20.1014
20.1011
20.1011
20.1012
20.1012
20.0967
20.0852
20.0977
20.0849
20.0991
20.0899
20.0995
20.0893
20.0732
20.1759
20.0681
20.1788
20.0697
20.1675
20.0653
20.1714
20.1707
20.0782
20.1731
20.0765
20.1598
20.0742
20.1635
20.0726
20.0874
20.0963
20.0862
20.0963
20.0933
20.0994
20.0913
20.0991
20.0998
20.0998
20.1004
20.1004
20.1002
20.1002
20.1007
20.1007
20.0963
20.0874
20.0963
20.0862
20.0994
20.0933
20.0991
20.0913
20.0782
20.1707
20.0765
20.1731
20.0742
20.1598
20.0726
20.1635
20.1669
20.079
20.1686
20.079
20.1534
20.0748
20.1564
20.0748
20.09
20.0973
20.0888
20.0966
20.098
20.1008
20.0957
20.1
20.099
20.099
20.0993
20.0993
20.0996
20.0996
20.0998
20.0998
20.0973
20.09
20.0966
20.0888
20.1008
20.098
20.0999
20.0957
20.079
20.1669
20.079
20.1686
20.0748
20.1534
20.0748
20.1565
20.1639
20.0781
20.1653
20.0787
20.1484
20.0737
20.1508
20.0744
20.0921
20.099
20.0911
20.0981
20.1018
20.103
20.1
20.1018
20.0992
20.0992
20.099
20.099
20.0999
20.0999
20.0996
20.0996
20.099
20.0921
20.0981
20.0911
20.103
20.1018
20.1018
20.1
20.0781
20.1639
20.0787
20.1653
20.0737
20.1484
20.0744
20.1508
20.1615
20.0764
20.1627
20.0773
20.1443
20.0719
20.1462
20.0728
20.0936
20.101
20.0929
20.1
20.1046
20.1055
20.1033
20.1042
20.1003
20.1003
20.0997
20.0997
20.101
20.101
20.1004
20.1004
20.101
20.0936
20.1
20.0929
20.1055
20.1046
20.1042
20.1033
20.0765
20.1615
20.0773
20.1627
20.0719
20.1443
20.0728
20.1462
20.1594
20.0748
20.1604
20.0756
20.1408
20.0701
20.1425
20.0709
20.0947
20.103
20.0942
20.102
20.1067
20.1079
20.1058
20.1067
20.1019
20.1019
20.101
20.101
20.1027
20.1027
20.1018
20.1018
20.103
20.0948
20.102
20.0942
20.1079
20.1067
20.1067
20.1058
20.0748
20.1594
20.0756
20.1604
20.0701
20.1408
20.0709
20.1425
20.1574
20.0732
20.1584
20.074
20.1379
20.0685
20.1393
20.0693
20.0956
20.105
20.0952
20.104
20.1081
20.1103
20.1074
20.1091
20.1038
20.1038
20.1028
20.1028
20.1046
20.1046
20.1036
20.1036
20.105
20.0956
20.104
20.0952
20.1103
20.1081
20.1091
20.1075
20.0732
20.1574
20.074
20.1584
20.0685
20.1379
20.0693
20.1393
20.1556
20.0719
20.1565
20.0725
20.1353
20.0672
20.1365
20.0678
20.0963
20.1068
20.096
20.1059
20.1092
20.1124
20.1087
20.1114
20.1057
20.1057
20.1048
20.1048
20.1066
20.1066
20.1056
20.1056
20.1068
20.0963
20.1059
20.096
20.1124
20.1092
20.1113
20.1087
20.0719
20.1556
20.0726
20.1565
20.0672
20.1353
20.0678
20.1365
20.1539
20.0709
20.1547
20.0714
20.133
20.0661
20.1341
20.0666
20.097
20.1085
20.0967
20.1077
20.11
20.1143
20.1096
20.1134
20.1076
20.1076
20.1067
20.1067
20.1085
20.1085
20.1076
20.1076
20.1085
20.097
20.1077
20.0967
20.1143
20.11
20.1134
20.1096
20.0709
20.1539
20.0714
20.1547
20.0661
20.133
20.0666
20.1341
20.1523
20.0701
20.153
20.0704
20.1311
20.0653
20.132
20.0657
20.0976
20.11
20.0973
20.1093
20.1107
20.1159
20.1104
20.1151
20.1094
20.1094
20.1085
20.1085
20.1103
20.1103
20.1094
20.1094
20.11
20.0976
20.1093
20.0973
20.1159
20.1107
20.1151
20.1104
20.0701
20.1522
20.0705
20.153
20.0653
20.1311
20.0657
20.132
20.1508
20.0695
20.1515
20.0698
20.1293
20.0648
20.1302
20.065
20.0983
20.1114
20.098
20.1107
20.1112
20.1174
20.111
20.1167
20.111
20.111
20.1102
20.1102
20.1118
20.1118
20.1111
20.1111
20.1114
20.0983
20.1107
20.098
20.1174
20.1112
20.1167
20.111
20.0695
20.1508
20.0698
20.1515
20.0648
20.1293
20.065
20.1302
20.1494
20.0692
20.1501
20.0693
20.1279
20.0644
20.1286
20.0645
20.0989
20.1126
20.0986
20.112
20.1116
20.1186
20.1114
20.118
20.1125
20.1125
20.1118
20.1118
20.1133
20.1133
20.1126
20.1126
20.1126
20.0989
20.112
20.0986
20.1186
20.1116
20.118
20.1114
20.0692
20.1494
20.0693
20.1501
20.0644
20.1279
20.0646
20.1286
20.1483
20.069
20.1488
20.0691
20.1266
20.0642
20.1272
20.0643
20.0995
20.1137
20.0992
20.1132
20.1119
20.1197
20.1117
20.1192
20.1138
20.1138
20.1132
20.1132
20.1145
20.1145
20.1139
20.1139
20.1137
20.0995
20.1132
20.0992
20.1198
20.1119
20.1192
20.1117
20.069
20.1483
20.0691
20.1488
20.0643
20.1266
20.0643
20.1272
20.1472
20.069
20.1477
20.069
20.1256
20.0642
20.1261
20.0642
20.1002
20.1147
20.0998
20.1142
20.1122
20.1207
20.112
20.1202
20.1149
20.1149
20.1144
20.1144
20.1155
20.1155
20.115
20.115
20.1147
20.1001
20.1142
20.0998
20.1207
20.1123
20.1202
20.1121
20.0689
20.1474
20.0689
20.1478
20.0642
20.1256
20.0642
20.1261
20.1464
20.0691
20.1468
20.069
20.1247
20.0644
20.1251
20.0643
20.1008
20.1156
20.1005
20.1152
20.1128
20.1215
20.1125
20.1211
20.1159
20.1159
20.1154
20.1154
20.1165
20.1165
20.116
20.116
20.1156
20.1008
20.1152
20.1005
20.1215
20.1128
20.1211
20.1125
20.0689
20.1465
20.0689
20.1469
20.0643
20.1248
20.0642
20.1253
20.1456
20.0694
20.146
20.0692
20.1241
20.0646
20.1244
20.0645
20.1016
20.1164
20.1012
20.116
20.1134
20.1222
20.1131
20.1218
20.1168
20.1168
20.1164
20.1164
20.1173
20.1173
20.1169
20.1169
20.1164
20.1015
20.116
20.1011
20.1222
20.1134
20.1218
20.1132
20.0693
20.1458
20.069
20.1462
20.0646
20.1241
20.0645
20.1245
20.1451
20.0698
20.1453
20.0696
20.1238
20.0649
20.1239
20.0647
20.1022
20.1171
20.102
20.1168
20.114
20.1227
20.1136
20.1225
20.1176
20.1176
20.1172
20.1172
20.118
20.118
20.1176
20.1176
20.1171
20.1022
20.1168
20.102
20.1228
20.1141
20.1225
20.1137
20.0696
20.1454
20.0695
20.1455
20.0649
20.1237
20.0647
20.1239
20.1448
20.0703
20.1449
20.0701
20.1234
20.0655
20.1236
20.0652
20.1027
20.1178
20.1025
20.1175
20.1149
20.1233
20.1145
20.123
20.1184
20.1184
20.118
20.118
20.1186
20.1186
20.1183
20.1183
20.1178
20.1026
20.1175
20.1024
20.1233
20.1149
20.123
20.1145
20.0701
20.145
20.0698
20.1452
20.0654
20.1235
20.0651
20.1236
20.1448
20.0707
20.1448
20.0705
20.1233
20.066
20.1233
20.0657
20.1033
20.1185
20.103
20.1181
20.1157
20.1238
20.1153
20.1235
20.1191
20.1191
20.1187
20.1187
20.1192
20.1192
20.1189
20.1189
20.1184
20.1032
20.1181
20.1029
20.1238
20.1157
20.1235
20.1153
20.0707
20.1449
20.0704
20.1449
20.066
20.1234
20.0657
20.1234
20.1448
20.0715
20.1448
20.0711
20.1234
20.0667
20.1233
20.0664
20.1039
20.1191
20.1036
20.1188
20.1164
20.1242
20.1161
20.124
20.1198
20.1198
20.1194
20.1194
20.1198
20.1198
20.1195
20.1195
20.1191
20.1039
20.1188
20.1035
20.1242
20.1164
20.124
20.1161
20.0714
20.1448
20.071
20.1449
20.0667
20.1235
20.0664
20.1234
20.1449
20.0724
20.1448
20.0719
20.1238
20.0674
20.1236
20.067
20.1047
20.1198
20.1043
20.1195
20.1171
20.1247
20.1168
20.1245
20.1204
20.1204
20.1201
20.1201
20.1203
20.1203
20.1201
20.1201
20.1198
20.1047
20.1195
20.1043
20.1247
20.1171
20.1245
20.1168
20.0722
20.1452
20.0718
20.145
20.0674
20.1237
20.067
20.1236
20.1453
20.0733
20.145
20.0728
20.124
20.0684
20.1239
20.0679
20.1056
20.1205
20.1051
20.1202
20.1179
20.1253
20.1175
20.125
20.1211
20.1211
20.1208
20.1208
20.1209
20.1209
20.1206
20.1206
20.1205
20.1055
20.1202
20.1051
20.1252
20.1179
20.125
20.1175
20.0733
20.1453
20.0727
20.1453
20.0684
20.1241
20.0679
20.1239
20.146
20.0742
20.1456
20.0736
20.1247
20.0694
20.1243
20.0688
20.1064
20.1213
20.106
20.1209
20.1187
20.1258
20.1183
20.1255
20.1219
20.1219
20.1215
20.1215
20.1215
20.1215
20.1212
20.1212
20.1213
20.1065
20.1209
20.106
20.1258
20.1187
20.1255
20.1183
20.0743
20.1458
20.0737
20.1455
20.0694
20.1246
20.0688
20.1244
20.1464
20.0755
20.1462
20.0748
20.1253
20.0705
20.1249
20.0699
20.1075
20.1221
20.1069
20.1217
20.1195
20.1264
20.1191
20.1261
20.1226
20.1226
20.1222
20.1222
20.1221
20.1221
20.1218
20.1218
20.1221
20.1075
20.1217
20.107
20.1264
20.1195
20.1261
20.1191
20.0755
20.1464
20.0748
20.1461
20.0705
20.1253
20.0699
20.1249
20.1472
20.0769
20.1468
20.0762
20.1262
20.0717
20.1257
20.0711
20.1086
20.123
20.108
20.1225
20.1204
20.1271
20.1199
20.1267
20.1235
20.1235
20.1231
20.1231
20.1228
20.1228
20.1225
20.1225
20.123
20.1086
20.1225
20.108
20.1271
20.1204
20.1267
20.1199
20.0769
20.1472
20.0762
20.1468
20.0717
20.1262
20.0711
20.1257
20.1481
20.0784
20.1477
20.0776
20.1272
20.073
20.1267
20.0723
20.1097
20.1239
20.1091
20.1234
20.1213
20.1278
20.1208
20.1274
20.1244
20.1244
20.1239
20.1239
20.1236
20.1236
20.1232
20.1232
20.1239
20.1097
20.1234
20.1091
20.1278
20.1213
20.1274
20.1209
20.0784
20.1481
20.0776
20.1476
20.073
20.1272
20.0724
20.1267
20.1492
20.0801
20.1486
20.0792
20.1284
20.0744
20.1278
20.0737
20.111
20.1249
20.1103
20.1244
20.1223
20.1286
20.1218
20.1282
20.1254
20.1254
20.1249
20.1249
20.1245
20.1245
20.1241
20.1241
20.1249
20.111
20.1244
20.1103
20.1286
20.1223
20.1282
20.1218
20.0801
20.1492
20.0792
20.1486
20.0744
20.1284
20.0737
20.1278
20.1504
20.0819
20.1498
20.0809
20.1297
20.0758
20.129
20.0751
20.1123
20.126
20.1116
20.1254
20.1234
20.1295
20.1228
20.129
20.1265
20.1265
20.1259
20.1259
20.1255
20.1255
20.125
20.125
20.126
20.1123
20.1254
20.1116
20.1295
20.1234
20.129
20.1228
20.0819
20.1504
20.081
20.1497
20.0758
20.1297
20.0751
20.129
20.1516
20.084
20.151
20.0829
20.1313
20.0771
20.1305
20.0765
20.1136
20.1271
20.1129
20.1265
20.1245
20.1304
20.1239
20.1299
20.1277
20.1277
20.1271
20.1271
20.1266
20.1266
20.126
20.126
20.1271
20.1136
20.1265
20.113
20.1304
20.1245
20.1299
20.1239
20.084
20.1516
20.0829
20.151
20.0772
20.1313
20.0765
20.1305
20.153
20.0861
20.1523
20.0852
20.133
20.0786
20.1321
20.0777
20.1151
20.1284
20.1143
20.1277
20.1256
20.1315
20.1251
20.1309
20.129
20.129
20.1283
20.1283
20.1278
20.1278
20.1272
20.1272
20.1284
20.1151
20.1277
20.1144
20.1315
20.1256
20.1309
20.1251
20.0861
20.153
20.0852
20.1523
20.0787
20.133
20.0777
20.1321
20.1545
20.0873
20.1538
20.0867
20.1348
20.081
20.1339
20.0798
20.1165
20.1297
20.1158
20.129
20.1268
20.1326
20.1262
20.132
20.1304
20.1304
20.1297
20.1297
20.1292
20.1292
20.1285
20.1285
20.1297
20.1165
20.129
20.1158
20.1326
20.1268
20.132
20.1262
20.0873
20.1545
20.0867
20.1538
20.081
20.1348
20.0798
20.1339
20.1559
20.0888
20.1552
20.088
20.1366
20.0832
20.1357
20.0821
20.1181
20.1312
20.1173
20.1304
20.128
20.1338
20.1274
20.1332
20.132
20.132
20.1312
20.1312
20.1307
20.1307
20.1299
20.1299
20.1312
20.1181
20.1304
20.1173
20.1338
20.128
20.1332
20.1274
20.0888
20.1559
20.088
20.1552
20.0832
20.1366
20.0821
20.1357
20.1572
20.0906
20.1566
20.0897
20.1385
20.0855
20.1375
20.0843
20.1197
20.1327
20.1189
20.1319
20.1293
20.1352
20.1287
20.1345
20.1336
20.1336
20.1328
20.1328
20.1323
20.1323
20.1314
20.1314
20.1327
20.1197
20.1319
20.1189
20.1352
20.1293
20.1345
20.1287
20.0906
20.1572
20.0897
20.1566
20.0855
20.1384
20.0843
20.1375
20.1579
20.0928
20.1576
20.0916
20.1401
20.0879
20.1393
20.0866
20.1215
20.1343
20.1206
20.1335
20.1307
20.1365
20.13
20.1358
20.1354
20.1354
20.1345
20.1345
20.134
20.134
20.1331
20.1331
20.1343
20.1215
20.1335
20.1206
20.1365
20.1307
20.1358
20.13
20.0929
20.1579
20.0917
20.1576
20.0879
20.1401
20.0866
20.1393
20.1575
20.0961
20.1579
20.0943
20.141
20.0909
20.1407
20.0893
20.1234
20.1359
20.1225
20.1351
20.132
20.1379
20.1313
20.1372
20.1373
20.1373
20.1363
20.1363
20.1358
20.1358
20.1349
20.1349
20.1359
20.1234
20.1351
20.1225
20.1379
20.132
20.1372
20.1313
20.0961
20.1575
20.0943
20.1579
20.0909
20.141
20.0893
20.1407
20.1535
20.1026
20.1563
20.0986
20.1393
20.0963
20.1408
20.093
20.1255
20.1375
20.1244
20.1367
20.1334
20.1395
20.1327
20.1387
20.1394
20.1394
20.1383
20.1383
20.1379
20.1379
20.1368
20.1368
20.1375
20.1255
20.1367
20.1244
20.1395
20.1334
20.1387
20.1327
20.1026
20.1535
20.0986
20.1563
20.0963
20.1393
20.0931
20.1408
20.1586
20.0999
20.1503
20.1072
20.144
20.0951
20.1373
20.1002
20.1261
20.1397
20.1265
20.1385
20.1341
20.1415
20.1341
20.1404
20.1417
20.1417
20.1405
20.1405
20.1401
20.1401
20.139
20.139
20.1397
20.1261
20.1385
20.1265
20.1415
20.1341
20.1404
20.1341
20.0999
20.1586
20.1072
20.1503
20.0951
20.144
20.1002
20.1373
20.1687
20.0509
20.1278
20.0729
20.1644
20.0525
20.1241
20.0747
20.0927
20.1003
20.0988
20.1006
20.0938
20.1004
20.0989
20.1002
20.1007
20.1007
20.1004
20.1004
20.1007
20.1007
20.1001
20.1001
20.1003
20.0927
20.1006
20.0988
20.1004
20.0938
20.1002
20.0989
20.0509
20.1687
20.0729
20.1278
20.0526
20.1644
20.0747
20.1241
20.1848
20.0669
20.1855
20.056
20.1838
20.0638
20.183
20.055
20.0804
20.0961
20.0851
20.0988
20.0825
20.0975
20.087
20.0996
20.1011
20.1011
20.101
20.101
20.1014
20.1014
20.1013
20.1013
20.0961
20.0804
20.0988
20.0851
20.0975
20.0825
20.0996
20.087
20.0669
20.1848
20.056
20.1855
20.0638
20.1838
20.055
20.183
20.1774
20.0845
20.1811
20.077
20.1777
20.079
20.1809
20.0725
20.079
20.0919
20.0788
20.0936
20.0809
20.094
20.0808
20.0954
20.0993
20.0993
20.1005
20.1005
20.1003
20.1003
20.1011
20.1011
20.0919
20.079
20.0936
20.0788
20.094
20.0809
20.0954
20.0808
20.0845
20.1774
20.077
20.1811
20.079
20.1777
20.0725
20.1809
20.1717
20.0927
20.1743
20.0895
20.1725
20.0857
20.1749
20.0831
20.0814
20.0903
20.0801
20.0908
20.0831
20.0929
20.0818
20.0932
20.0968
20.0968
20.098
20.098
20.0985
20.0985
20.0994
20.0994
20.0903
20.0814
20.0908
20.0801
20.0929
20.0831
20.0932
20.0818
20.0927
20.1717
20.0895
20.1743
20.0857
20.1725
20.0831
20.1749
20.168
20.0959
20.1697
20.0947
20.169
20.0878
20.1706
20.0871
20.0838
20.0903
20.0827
20.0902
20.0854
20.0932
20.0843
20.0929
20.0953
20.0953
20.0959
20.0959
20.0974
20.0974
20.0978
20.0978
20.0903
20.0838
20.0902
20.0827
20.0933
20.0854
20.0929
20.0843
20.0959
20.168
20.0947
20.1697
20.0878
20.169
20.0871
20.1706
20.1654
20.0967
20.1666
20.0965
20.1664
20.0878
20.1676
20.0879
20.0856
20.0911
20.0848
20.0907
20.0871
20.0943
20.0863
20.0937
20.095
20.095
20.095
20.095
20.0974
20.0974
20.0973
20.0973
20.0911
20.0856
20.0907
20.0848
20.0943
20.0871
20.0937
20.0864
20.0967
20.1654
20.0965
20.1666
20.0878
20.1664
20.0879
20.1676
20.1632
20.0965
20.1643
20.0967
20.1643
20.087
20.1653
20.0874
20.0868
20.0922
20.0863
20.0916
20.0883
20.0957
20.0878
20.095
20.0956
20.0956
20.0952
20.0952
20.0983
20.0983
20.0978
20.0978
20.0922
20.0868
20.0916
20.0863
20.0957
20.0883
20.095
20.0878
20.0965
20.1632
20.0967
20.1643
20.087
20.1643
20.0875
20.1653
20.1613
20.0959
20.1623
20.0962
20.1624
20.0859
20.1633
20.0865
20.0877
20.0934
20.0873
20.0928
20.0892
20.0972
20.0888
20.0965
20.0968
20.0968
20.0962
20.0962
20.0997
20.0997
20.0989
20.0989
20.0934
20.0877
20.0928
20.0873
20.0972
20.0892
20.0965
20.0888
20.0959
20.1613
20.0962
20.1623
20.0859
20.1624
20.0865
20.1633
20.1596
20.0952
20.1604
20.0956
20.1607
20.0848
20.1615
20.0854
20.0884
20.0948
20.088
20.0941
20.0898
20.0988
20.0895
20.098
20.0984
20.0984
20.0976
20.0976
20.1015
20.1015
20.1006
20.1006
20.0948
20.0884
20.0941
20.088
20.0988
20.0898
20.098
20.0895
20.0952
20.1596
20.0956
20.1604
20.0848
20.1606
20.0854
20.1615
20.1579
20.0945
20.1587
20.0948
20.159
20.0838
20.1598
20.0843
20.089
20.0961
20.0887
20.0954
20.0904
20.1004
20.0901
20.0996
20.1002
20.1002
20.0993
20.0993
20.1033
20.1033
20.1024
20.1024
20.0961
20.089
20.0954
20.0887
20.1004
20.0904
20.0996
20.0901
20.0945
20.1579
20.0948
20.1587
20.0838
20.159
20.0843
20.1598
20.1564
20.0938
20.1571
20.0941
20.1574
20.083
20.1582
20.0834
20.0895
20.0975
20.0892
20.0968
20.091
20.1018
20.0907
20.1011
20.1019
20.1019
20.101
20.101
20.1052
20.1052
20.1043
20.1043
20.0975
20.0896
20.0968
20.0893
20.1018
20.091
20.1011
20.0907
20.0938
20.1564
20.0941
20.1571
20.083
20.1574
20.0834
20.1582
20.1549
20.0933
20.1556
20.0935
20.1559
20.0823
20.1566
20.0826
20.0902
20.0988
20.0898
20.0981
20.0916
20.1032
20.0913
20.1025
20.1036
20.1036
20.1027
20.1027
20.1069
20.1069
20.1061
20.1061
20.0988
20.0902
20.0981
20.0899
20.1032
20.0916
20.1025
20.0913
20.0933
20.1549
20.0936
20.1556
20.0823
20.1559
20.0827
20.1566
20.1536
20.0929
20.1542
20.0931
20.1545
20.0819
20.1552
20.0821
20.0908
20.1
20.0905
20.0994
20.0922
20.1045
20.0919
20.1039
20.1051
20.1051
20.1044
20.1044
20.1085
20.1085
20.1077
20.1077
20.1
20.0908
20.0994
20.0905
20.1045
20.0922
20.1039
20.0919
20.0929
20.1536
20.0931
20.1542
20.0819
20.1545
20.0821
20.1552
20.1524
20.0926
20.153
20.0927
20.1533
20.0815
20.1539
20.0817
20.0914
20.1012
20.0911
20.1006
20.0928
20.1057
20.0925
20.1051
20.1066
20.1066
20.1059
20.1059
20.11
20.11
20.1093
20.1093
20.1012
20.0914
20.1006
20.0911
20.1057
20.0928
20.1051
20.0925
20.0926
20.1524
20.0927
20.153
20.0815
20.1533
20.0817
20.1539
20.1514
20.0924
20.1519
20.0925
20.1522
20.0813
20.1527
20.0814
20.092
20.1023
20.0917
20.1017
20.0934
20.1068
20.0931
20.1063
20.108
20.108
20.1073
20.1073
20.1113
20.1113
20.1107
20.1107
20.1023
20.092
20.1017
20.0917
20.1068
20.0934
20.1063
20.0931
20.0924
20.1514
20.0925
20.1519
20.0813
20.1523
20.0814
20.1527