/*--------------------------------*- C++ -*----------------------------------*\
  =========                 |
  \\      /  F ield         | OpenFOAM: The Open Source CFD Toolbox
   \\    /   O peration     | Website:  https://openfoam.org
    \\  /    A nd           | Version:  9
     \\/     M anipulation  |
\*---------------------------------------------------------------------------*/
FoamFile
{
    format      ascii;
    class       surfaceScalarField;
    location    "1.8";
    object      phi;
}
// * * * * * * * * * * * * * * * * * * * * * * * * * * * * * * * * * * * * * //

dimensions      [0 3 -1 0 0 0 0];

internalField   nonuniform List<scalar> 
104044
(
2.14008e-06
-0.0001467
-7.55101e-07
0.000142916
2.39887e-06
-8.11634e-05
-5.15084e-06
-8.55134e-07
9.12607e-05
-1.95126e-06
7.71323e-07
5.5921e-06
-4.33456e-06
-1.0286e-05
-3.25357e-07
3.35842e-06
-1.67235e-07
-0.000160507
0.000159919
-7.99686e-05
8.79196e-08
7.45626e-05
4.43421e-07
-1.81947e-07
-4.99969e-08
-9.83603e-05
-5.56472e-06
9.94808e-05
3.63908e-06
-0.000104841
-1.19376e-06
2.40264e-09
0.000105363
6.19224e-07
-2.0931e-08
-3.56681e-06
2.33604e-06
-1.68601e-06
4.57831e-10
3.6578e-07
-1.19108e-10
-0.000109152
0.000103675
-0.000114096
-7.46487e-09
0.000112909
-3.3781e-08
-1.73277e-09
-8.41793e-13
-0.000107184
-8.10226e-07
0.000107994
2.09506e-09
-0.000107184
-8.10187e-07
-2.40741e-09
0.000107994
2.04395e-09
-6.58852e-13
-1.7218e-06
3.42957e-07
-1.72179e-06
-4.60392e-10
3.42943e-07
-3.01531e-13
-0.000114275
0.000113458
-0.000114275
7.46527e-09
0.000113458
-2.60334e-12
1.72596e-09
4.9995e-08
-0.000104841
-1.19372e-06
0.000105363
6.1915e-07
-9.83603e-05
-5.56464e-06
8.55142e-07
9.94808e-05
3.639e-06
2.09309e-08
-1.68598e-06
3.65731e-07
-3.5668e-06
3.25355e-07
2.33603e-06
1.20849e-10
-0.000114096
0.000112909
-0.000109152
-8.79427e-08
0.000103675
3.37655e-08
1.81933e-07
-2.14015e-06
-8.11629e-05
-5.15051e-06
9.12601e-05
-1.95141e-06
-0.000146698
-7.55537e-07
0.000142914
2.39929e-06
-7.71334e-07
-1.02858e-05
3.35791e-06
5.59176e-06
-4.33404e-06
1.67193e-07
-7.99677e-05
7.45621e-05
-0.000160505
0.000159917
-4.43421e-07
2.27377e-06
-0.000138566
-7.54335e-06
0.000134309
9.52646e-06
-9.80136e-05
7.30699e-06
-6.96279e-07
0.00010238
-8.70356e-06
2.6114e-06
-4.86665e-06
6.60522e-06
2.86797e-06
-9.2032e-07
-6.08916e-06
-2.11024e-06
-0.000156053
0.00015062
-7.59466e-05
1.03204e-06
8.01113e-05
-1.00081e-06
4.83192e-07
-5.36734e-08
-0.000101702
-5.29375e-06
0.00010318
3.17365e-06
-0.00010604
-3.73036e-06
1.86274e-09
0.000106724
2.99058e-06
-5.66094e-08
-7.00745e-06
3.92228e-06
-2.59559e-06
2.32571e-09
1.85951e-06
8.08332e-08
-9.71157e-05
9.27731e-05
-0.000110358
-5.70538e-09
0.000106714
3.53232e-08
-8.3332e-09
-1.45384e-14
-0.000108729
-1.41453e-06
0.000108994
1.15167e-06
-0.000108729
-1.41456e-06
-1.85984e-09
0.000108994
1.15172e-06
-1.5069e-12
-5.46508e-07
-1.86479e-07
-5.46521e-07
-2.32817e-09
-1.86488e-07
1.51528e-12
-0.000112903
0.000111483
-0.000112903
5.71055e-09
0.000111483
1.07331e-12
8.33431e-09
5.3683e-08
-0.00010604
-3.73029e-06
0.000106724
2.99057e-06
-0.000101702
-5.29366e-06
6.96263e-07
0.00010318
3.17368e-06
5.66145e-08
-2.59557e-06
1.85948e-06
-7.00732e-06
9.20314e-07
3.92224e-06
-8.08239e-08
-0.000110358
0.000106714
-9.71157e-05
-1.03209e-06
9.27733e-05
-3.53171e-08
-4.83209e-07
-2.27388e-06
-9.80129e-05
7.30693e-06
0.000102379
-8.70331e-06
-0.000138564
-7.54344e-06
0.000134307
9.52649e-06
-2.61148e-06
2.86803e-06
-6.08907e-06
-4.86688e-06
6.60543e-06
2.11008e-06
-7.59462e-05
8.01109e-05
-0.000156051
0.000150617
1.00072e-06
1.01496e-06
-0.000130751
-1.01628e-05
0.000127766
1.21322e-05
-0.000105056
1.08943e-05
-2.65976e-07
0.000106727
-1.12836e-05
1.62042e-06
-9.16442e-06
1.11024e-05
9.54865e-06
-4.33131e-07
-1.01711e-05
-4.63653e-06
-0.000144817
0.000139291
-8.47341e-05
2.02391e-06
8.8968e-05
-3.36147e-06
1.56436e-06
7.83944e-08
-0.000103946
-2.10365e-06
0.000104458
1.2477e-06
-0.000106911
-2.67604e-06
-8.16282e-09
0.000106714
2.95999e-06
-1.53984e-08
-3.29727e-06
2.1132e-06
-3.40768e-06
-5.1539e-09
3.21028e-06
3.23653e-07
-9.08606e-05
9.04572e-05
-0.000103489
5.06187e-09
0.000101132
1.79564e-07
-3.35902e-09
4.58062e-12
-0.000108927
-2.44491e-06
0.000108583
2.78159e-06
-0.000108927
-2.4449e-06
8.17627e-09
0.000108583
2.78159e-06
2.33788e-12
-2.37285e-06
2.43439e-06
-2.37284e-06
5.1634e-09
2.43439e-06
3.89811e-12
-0.000109106
0.000106667
-0.000109106
-5.04912e-09
0.000106667
2.58189e-12
3.36855e-09
-7.83784e-08
-0.000106911
-2.67603e-06
0.000106714
2.96004e-06
-0.000103946
-2.10373e-06
2.65929e-07
0.000104457
1.24792e-06
1.54106e-08
-3.40763e-06
3.2103e-06
-3.29729e-06
4.331e-07
2.11335e-06
-3.23629e-07
-0.000103489
0.000101132
-9.08608e-05
-2.02391e-06
9.04574e-05
-1.79548e-07
-1.56436e-06
-1.01512e-06
-0.000105055
1.08939e-05
0.000106726
-1.1283e-05
-0.000130748
-1.01626e-05
0.000127764
1.21319e-05
-1.62055e-06
9.54832e-06
-1.01707e-05
-9.16449e-06
1.11024e-05
4.6362e-06
-8.47337e-05
8.89675e-05
-0.000144814
0.000139288
3.36123e-06
3.89683e-08
-0.000125269
-1.08628e-05
0.000123124
1.29683e-05
-0.000107776
1.19975e-05
-1.80689e-07
0.000108454
-1.24566e-05
4.75874e-07
-1.0503e-05
1.25244e-05
1.14548e-05
-1.86608e-07
-1.18415e-05
-6.66556e-06
-0.000134462
0.000130265
-9.24321e-05
2.55199e-06
9.52121e-05
-5.67387e-06
2.31688e-06
3.92518e-07
-0.000104881
-1.01541e-06
0.000105324
-1.6311e-09
-0.000106431
-1.43351e-06
5.57979e-08
0.00010619
2.01121e-06
2.34311e-07
-1.39687e-06
5.53118e-07
-1.9619e-06
1.71771e-08
2.46211e-06
5.50115e-07
-9.09394e-05
9.19258e-05
-9.9579e-05
6.59485e-08
9.86296e-05
4.37879e-07
2.853e-08
4.94531e-12
-0.000108058
-1.55358e-06
0.00010753
2.138e-06
-0.000108058
-1.55358e-06
-5.57934e-08
0.00010753
2.13801e-06
5.51547e-12
-1.97543e-06
2.51687e-06
-1.97542e-06
-1.71605e-08
2.51688e-06
4.11773e-12
-0.00010472
0.000103232
-0.00010472
-6.59315e-08
0.000103232
4.25119e-12
-2.85154e-08
-3.92508e-07
-0.000106431
-1.43355e-06
0.00010619
2.01128e-06
-0.00010488
-1.01552e-06
1.80544e-07
0.000105324
-1.31996e-09
-2.34293e-07
-1.96192e-06
2.46218e-06
-1.397e-06
1.86544e-07
5.53435e-07
-5.50091e-07
-9.95791e-05
9.86297e-05
-9.09394e-05
-2.55197e-06
9.19257e-05
-4.37862e-07
-2.31687e-06
-3.91769e-08
-0.000107775
1.19969e-05
0.000108453
-1.24558e-05
-0.000125267
-1.08623e-05
0.000123122
1.29676e-05
-4.76055e-07
1.14543e-05
-1.18407e-05
-1.05027e-05
1.2524e-05
6.66501e-06
-9.24314e-05
9.52113e-05
-0.000134458
0.000130261
5.67344e-06
-6.16802e-07
-0.000121311
-1.11073e-05
0.000119749
1.32866e-05
-0.000108909
1.25334e-05
-3.32745e-07
0.000109211
-1.3119e-05
-3.20136e-07
-1.08937e-05
1.30271e-05
1.21778e-05
-2.51898e-07
-1.27011e-05
-8.08987e-06
-0.000126742
0.000123725
-9.73626e-05
2.75519e-06
9.90509e-05
-7.37122e-06
2.65611e-06
6.09958e-07
-0.000105692
-8.04783e-07
0.000106036
-4.81413e-07
-0.000106038
-7.76659e-07
1.28367e-07
0.000105973
1.32347e-06
5.08316e-07
-8.45852e-07
-2.82439e-07
-1.03356e-06
8.97382e-08
1.60373e-06
7.35476e-07
-9.30938e-05
9.43088e-05
-9.81284e-05
1.55512e-07
9.79317e-05
6.42263e-07
1.0996e-07
5.66002e-12
-0.000107086
-9.61543e-07
0.000106741
1.43452e-06
-0.000107085
-9.61523e-07
-1.28373e-07
0.000106741
1.43453e-06
4.39686e-12
-1.20131e-06
1.73523e-06
-1.20131e-06
-8.97301e-08
1.73524e-06
8.45864e-11
-0.000102141
0.000101335
-0.000102141
-1.55274e-07
0.000101335
4.76454e-12
-1.09957e-07
-6.09944e-07
-0.000106038
-7.76732e-07
0.000105973
1.32355e-06
-0.000105692
-8.04895e-07
3.32597e-07
0.000106035
-4.81098e-07
-5.08307e-07
-1.03361e-06
1.60382e-06
-8.45957e-07
2.5176e-07
-2.82155e-07
-7.35323e-07
-9.81283e-05
9.79317e-05
-9.30936e-05
-2.75511e-06
9.43085e-05
-6.42232e-07
-2.65608e-06
6.16561e-07
-0.000108908
1.25326e-05
0.00010921
-1.3118e-05
-0.000121309
-1.11064e-05
0.000119746
1.32855e-05
3.19912e-07
1.2177e-05
-1.27002e-05
-1.08932e-05
1.30264e-05
8.08913e-06
-9.73617e-05
9.905e-05
-0.000126739
0.000123721
7.37058e-06
-1.04606e-06
-0.000118417
-1.12387e-05
0.000117257
1.34451e-05
-0.000109406
1.28414e-05
-5.09827e-07
0.000109527
-1.34987e-05
-8.45694e-07
-1.10642e-05
1.32415e-05
1.25779e-05
-4.14703e-07
-1.32042e-05
-9.04725e-06
-0.000121193
0.000119001
-0.000100338
2.78947e-06
0.000101343
-8.5321e-06
2.75856e-06
7.39258e-07
-0.000106353
-8.43074e-07
0.000106642
-6.95179e-07
-0.000105981
-4.89232e-07
2.05019e-07
0.000106043
9.61632e-07
6.77671e-07
-8.0281e-07
-6.06167e-07
-5.95126e-07
1.65277e-07
1.09968e-06
8.69688e-07
-9.54635e-05
9.65402e-05
-9.79513e-05
2.18163e-07
9.81136e-05
8.01006e-07
1.8626e-07
1.15704e-11
-0.0001065
-6.24079e-07
0.000106344
9.85588e-07
-0.0001065
-6.24084e-07
-2.04983e-07
0.000106343
9.85592e-07
7.67641e-12
-7.63141e-07
1.16926e-06
-7.63156e-07
-1.65248e-07
1.16927e-06
9.87516e-12
-0.000100758
0.000100352
-0.000100758
-2.18128e-07
0.000100352
-4.23379e-12
-1.86308e-07
-7.39238e-07
-0.00010598
-4.89252e-07
0.000106042
9.61703e-07
-0.000106352
-8.43171e-07
5.09633e-07
0.000106641
-6.94829e-07
-6.77655e-07
-5.9515e-07
1.09976e-06
-8.02914e-07
4.1453e-07
-6.05833e-07
-8.69624e-07
-9.79512e-05
9.81134e-05
-9.54632e-05
-2.78944e-06
9.65398e-05
-8.00981e-07
-2.75853e-06
1.04578e-06
-0.000109405
1.28403e-05
0.000109526
-1.34975e-05
-0.000118415
-1.12376e-05
0.000117254
1.34437e-05
8.45433e-07
1.25769e-05
-1.32032e-05
-1.10634e-05
1.32404e-05
9.04628e-06
-0.000100337
0.000101342
-0.000121189
0.000118998
8.53124e-06
-1.32767e-06
-0.000116251
-1.1314e-05
0.000115359
1.35337e-05
-0.000109596
1.30035e-05
-6.86179e-07
0.000109622
-1.3671e-05
-1.18976e-06
-1.11686e-05
1.33642e-05
1.28097e-05
-5.94223e-07
-1.34742e-05
-9.66829e-06
-0.000117135
0.000115489
-0.000102103
2.74612e-06
0.000102692
-9.30249e-06
2.74722e-06
8.00718e-07
-0.000106898
-9.42185e-07
0.000107122
-7.69365e-07
-0.000106139
-3.90429e-07
2.77175e-07
0.000106256
7.97291e-07
7.6935e-07
-8.82809e-07
-7.36696e-07
-4.19656e-07
2.39412e-07
8.53368e-07
9.54982e-07
-9.74956e-05
9.83445e-05
-9.8361e-05
2.66372e-07
9.86591e-05
9.09058e-07
2.42039e-07
1.67359e-11
-0.000106256
-4.24067e-07
0.00010622
7.37362e-07
-0.000106256
-4.24072e-07
-2.77122e-07
0.00010622
7.37359e-07
1.4032e-11
-5.06473e-07
8.32925e-07
-5.06479e-07
-2.39368e-07
8.32927e-07
1.47395e-11
-0.000100087
9.99296e-05
-0.000100087
-2.6633e-07
9.99295e-05
1.25061e-11
-2.42003e-07
-8.00696e-07
-0.000106138
-3.90436e-07
0.000106255
7.97358e-07
-0.000106897
-9.4229e-07
6.85949e-07
0.000107122
-7.68978e-07
-7.69329e-07
-4.19672e-07
8.53439e-07
-8.82915e-07
5.9401e-07
-7.36327e-07
-9.54897e-07
-9.83607e-05
9.86589e-05
-9.74951e-05
-2.74607e-06
9.8344e-05
-9.08984e-07
-2.74717e-06
1.32736e-06
-0.000109595
1.30023e-05
0.000109621
-1.36697e-05
-0.000116249
-1.13126e-05
0.000115356
1.35321e-05
1.18946e-06
1.28086e-05
-1.3473e-05
-1.11676e-05
1.33628e-05
9.66714e-06
-0.000102102
0.000102691
-0.000117132
0.000115486
9.30144e-06
-1.51594e-06
-0.000114569
-1.13372e-05
0.000113855
1.35669e-05
-0.000109617
1.30557e-05
-8.35603e-07
0.000109582
-1.37011e-05
-1.41702e-06
-1.1215e-05
1.34221e-05
1.29086e-05
-7.57089e-07
-1.35632e-05
-1.00531e-05
-0.000114063
0.000112779
-0.000103128
2.67098e-06
0.000103459
-9.78862e-06
2.68429e-06
8.17467e-07
-0.00010731
-1.03884e-06
0.000107462
-7.66026e-07
-0.000106377
-3.91403e-07
3.52572e-07
0.000106491
7.42365e-07
8.05299e-07
-9.82142e-07
-7.6818e-07
-3.78187e-07
3.09745e-07
7.52288e-07
1.00144e-06
-9.90738e-05
9.97045e-05
-9.89725e-05
2.97609e-07
9.9285e-05
9.72827e-07
2.81241e-07
2.1331e-11
-0.000106222
-3.02028e-07
0.000106254
6.22257e-07
-0.000106222
-3.02034e-07
-3.52501e-07
0.000106254
6.22247e-07
1.93554e-11
-3.52569e-07
6.60468e-07
-3.52578e-07
-3.0968e-07
6.60463e-07
1.76889e-11
-9.98582e-05
9.98538e-05
-9.98582e-05
-2.97561e-07
9.98537e-05
1.62576e-11
-2.81197e-07
-8.17448e-07
-0.000106377
-3.91393e-07
0.00010649
7.42427e-07
-0.000107309
-1.03895e-06
8.35344e-07
0.000107461
-7.65618e-07
-8.05278e-07
-3.78189e-07
7.52356e-07
-9.82261e-07
7.56844e-07
-7.6778e-07
-1.00134e-06
-9.89722e-05
9.92846e-05
-9.90732e-05
-2.67093e-06
9.97039e-05
-9.72733e-07
-2.68424e-06
1.5156e-06
-0.000109616
1.30543e-05
0.000109581
-1.36996e-05
-0.000114567
-1.13357e-05
0.000113853
1.3565e-05
1.4167e-06
1.29072e-05
-1.35618e-05
-1.12138e-05
1.34205e-05
1.00518e-05
-0.000103126
0.000103458
-0.00011406
0.000112776
9.7874e-06
-1.64192e-06
-0.000113209
-1.13052e-05
0.000112612
1.35434e-05
-0.000109527
1.30142e-05
-9.52635e-07
0.000109445
-1.36219e-05
-1.56906e-06
-1.1205e-05
1.34204e-05
1.29073e-05
-8.88442e-07
-1.35325e-05
-1.02654e-05
-0.000111648
0.000110608
-0.000103692
2.58385e-06
0.000103856
-1.00736e-05
2.60136e-06
8.04818e-07
-0.000107579
-1.12466e-06
0.000107662
-7.15867e-07
-0.000106595
-4.30766e-07
3.92118e-07
0.000106686
7.52587e-07
8.05437e-07
-1.07398e-06
-7.36601e-07
-4.05348e-07
3.72784e-07
7.34187e-07
1.01837e-06
-0.000100229
0.00010067
-9.95778e-05
3.14624e-07
9.98508e-05
1.00268e-06
3.04514e-07
2.30106e-11
-0.000106299
-2.42486e-07
0.000106349
5.855e-07
-0.000106299
-2.42487e-07
-3.92049e-07
0.000106348
5.85486e-07
2.18141e-11
-2.62314e-07
5.90138e-07
-2.6232e-07
-3.72716e-07
5.90128e-07
1.96951e-11
-9.9896e-05
9.99681e-05
-9.98959e-05
-3.14571e-07
9.9968e-05
1.85884e-11
-3.04464e-07
-8.04804e-07
-0.000106594
-4.3075e-07
0.000106685
7.52645e-07
-0.000107578
-1.12478e-06
9.52353e-07
0.000107661
-7.1543e-07
-8.05421e-07
-4.05337e-07
7.34248e-07
-1.0741e-06
8.88172e-07
-7.36182e-07
-1.01826e-06
-9.95774e-05
9.98503e-05
-0.000100228
-2.58379e-06
0.000100669
-1.00257e-06
-2.60131e-06
1.64156e-06
-0.000109526
1.30127e-05
0.000109444
-1.36204e-05
-0.000113207
-1.13035e-05
0.00011261
1.35412e-05
1.56871e-06
1.29059e-05
-1.3531e-05
-1.12036e-05
1.34185e-05
1.0264e-05
-0.00010369
0.000103855
-0.000111644
0.000110605
1.00722e-05
-1.72435e-06
-0.000112059
-1.1221e-05
0.000111538
1.34669e-05
-0.000109346
1.2886e-05
-1.0393e-06
0.000109222
-1.3447e-05
-1.67052e-06
-1.11483e-05
1.33722e-05
1.28237e-05
-9.8892e-07
-1.34059e-05
-1.03483e-05
-0.000109676
0.000108803
-0.000103951
2.49285e-06
0.000103996
-1.02166e-05
2.51287e-06
7.76145e-07
-0.000107713
-1.19266e-06
0.000107733
-6.42109e-07
-0.000106758
-4.80157e-07
4.06149e-07
0.00010681
7.98371e-07
7.83675e-07
-1.15e-06
-6.74108e-07
-4.50231e-07
3.97193e-07
7.64444e-07
1.01462e-06
-0.000101025
0.00010131
-0.000100093
3.20926e-07
0.000100307
1.0083e-06
3.15696e-07
2.52936e-11
-0.000106394
-2.28678e-07
0.00010643
5.98375e-07
-0.000106393
-2.28677e-07
-4.0608e-07
0.00010643
5.98362e-07
2.37838e-11
-2.29015e-07
5.81078e-07
-2.29018e-07
-3.97125e-07
5.81066e-07
2.10953e-11
-0.000100055
0.000100147
-0.000100055
-3.2087e-07
0.000100147
2.03153e-11
-3.15642e-07
-7.76141e-07
-0.000106757
-4.80143e-07
0.000106809
7.9844e-07
-0.000107712
-1.1928e-06
1.039e-06
0.000107732
-6.41637e-07
-7.83666e-07
-4.50218e-07
7.64508e-07
-1.15014e-06
9.8863e-07
-6.73658e-07
-1.0145e-06
-0.000100093
0.000100306
-0.000101024
-2.49279e-06
0.000101309
-1.00819e-06
-2.51281e-06
1.724e-06
-0.000109345
1.28844e-05
0.000109221
-1.34453e-05
-0.000112057
-1.12191e-05
0.000111536
1.34646e-05
1.67016e-06
1.28221e-05
-1.34043e-05
-1.11468e-05
1.33701e-05
1.03468e-05
-0.000103949
0.000103994
-0.000109673
0.000108801
1.02151e-05
-1.77748e-06
-0.000111042
-1.11039e-05
0.000110565
1.33585e-05
-0.000109081
1.26979e-05
-1.1007e-06
0.000108915
-1.32087e-05
-1.73662e-06
-1.10493e-05
1.32817e-05
1.2667e-05
-1.06178e-06
-1.32012e-05
-1.03434e-05
-0.000108008
0.000107247
-0.000103985
2.40406e-06
0.000103935
-1.02535e-05
2.42402e-06
7.4097e-07
-0.000107723
-1.24683e-06
0.000107681
-5.53066e-07
-0.000106838
-5.34286e-07
4.06654e-07
0.000106841
8.65674e-07
7.51414e-07
-1.21036e-06
-5.92896e-07
-5.02152e-07
4.03515e-07
8.21902e-07
9.98575e-07
-0.000101526
0.000101685
-0.000100484
3.19922e-07
0.000100629
9.97876e-07
3.18012e-07
2.74619e-11
-0.000106452
-2.4284e-07
0.000106456
6.45283e-07
-0.000106452
-2.42843e-07
-4.06586e-07
0.000106456
6.45279e-07
2.61841e-11
-2.30894e-07
6.12506e-07
-2.30896e-07
-4.03447e-07
6.12497e-07
2.01581e-11
-0.000100234
0.000100311
-0.000100234
-3.19869e-07
0.000100311
2.09598e-11
-3.17958e-07
-7.40983e-07
-0.000106837
-5.34294e-07
0.00010684
8.6578e-07
-0.000107722
-1.24704e-06
1.10039e-06
0.00010768
-5.52533e-07
-7.51418e-07
-5.02148e-07
8.21985e-07
-1.21053e-06
1.06147e-06
-5.92402e-07
-9.98469e-07
-0.000100484
0.000100628
-0.000101525
-2.40401e-06
0.000101683
-9.97766e-07
-2.42396e-06
1.77717e-06
-0.00010908
1.26962e-05
0.000108914
-1.3207e-05
-0.00011104
-1.11017e-05
0.000110563
1.33559e-05
1.73628e-06
1.26653e-05
-1.31996e-05
-1.10476e-05
1.32794e-05
1.03419e-05
-0.000103984
0.000103934
-0.000108005
0.000107246
1.0252e-05
-1.80832e-06
-0.000110101
-1.0954e-05
0.000109646
1.3217e-05
-0.000108732
1.24561e-05
-1.14064e-06
0.000108522
-1.29138e-05
-1.77765e-06
-1.09178e-05
1.31593e-05
1.24545e-05
-1.11156e-06
-1.29378e-05
-1.02673e-05
-0.000106542
0.000105855
-0.00010384
2.31734e-06
0.000103711
-1.02128e-05
2.33742e-06
7.037e-07
-0.000107611
-1.28947e-06
0.000107508
-4.52309e-07
-0.000106817
-5.89612e-07
3.9907e-07
0.000106765
9.46531e-07
7.15207e-07
-1.25794e-06
-4.98638e-07
-5.56683e-07
3.9956e-07
8.95997e-07
9.74942e-07
-0.000101786
0.000101839
-0.000100736
3.13992e-07
0.000100807
9.77891e-07
3.14356e-07
2.23735e-11
-0.000106439
-2.74371e-07
0.000106398
7.14377e-07
-0.000106439
-2.74399e-07
-3.99015e-07
0.000106398
7.14407e-07
2.59447e-11
-2.54481e-07
6.71079e-07
-2.54496e-07
-3.99497e-07
6.7109e-07
1.36049e-11
-0.000100371
0.000100411
-0.000100371
-3.13955e-07
0.00010041
1.75012e-11
-3.14309e-07
-7.03746e-07
-0.000106816
-5.89714e-07
0.000106764
9.46754e-07
-0.00010761
-1.28991e-06
1.14033e-06
0.000107507
-4.51615e-07
-7.15233e-07
-5.56727e-07
8.96147e-07
-1.25823e-06
1.11124e-06
-4.98049e-07
-9.74867e-07
-0.000100735
0.000100806
-0.000101785
-2.31731e-06
0.000101837
-9.77798e-07
-2.33737e-06
1.80811e-06
-0.000108731
1.24541e-05
0.000108522
-1.2912e-05
-0.0001101
-1.0951e-05
0.000109645
1.32137e-05
1.77737e-06
1.24526e-05
-1.29361e-05
-1.09156e-05
1.31565e-05
1.0266e-05
-0.000103838
0.000103709
-0.000106541
0.000105856
1.02114e-05
-1.82502e-06
-0.000109195
-1.07942e-05
0.000108745
1.30692e-05
-0.000108294
1.2189e-05
-1.1648e-06
0.000108036
-1.25914e-05
-1.80003e-06
-1.07586e-05
1.30097e-05
1.21963e-05
-1.14224e-06
-1.26257e-05
-1.01501e-05
-0.000105208
0.000104564
-0.000103544
2.23444e-06
0.000103348
-1.01112e-05
2.25234e-06
6.68355e-07
-0.000107378
-1.32592e-06
0.000107214
-3.43418e-07
-0.000106684
-6.45766e-07
3.87411e-07
0.000106572
1.03865e-06
6.78732e-07
-1.29659e-06
-3.94321e-07
-6.11554e-07
3.89504e-07
9.81496e-07
9.47133e-07
-0.000101843
0.000101804
-0.000100841
3.05072e-07
0.000100837
9.52037e-07
3.06877e-07
1.01018e-11
-0.000106332
-3.17327e-07
0.000106237
7.99871e-07
-0.000106331
-3.17402e-07
-3.87394e-07
0.000106236
7.99965e-07
1.63506e-11
-2.92076e-07
7.47991e-07
-2.9213e-07
-3.89465e-07
7.48052e-07
5.89018e-12
-0.000100425
0.000100413
-0.000100425
-3.05072e-07
0.000100413
8.39813e-12
-3.06856e-07
-6.68485e-07
-0.000106683
-6.46091e-07
0.000106572
1.03912e-06
-0.000107377
-1.32713e-06
1.16456e-06
0.000107214
-3.42363e-07
-6.78813e-07
-6.11752e-07
9.8183e-07
-1.29734e-06
1.14195e-06
-3.93474e-07
-9.47147e-07
-0.000100839
0.000100835
-0.00010184
-2.23451e-06
0.0001018
-9.5198e-07
-2.25228e-06
1.82501e-06
-0.000108294
1.21858e-05
0.000108037
-1.25896e-05
-0.000109194
-1.07892e-05
0.000108744
1.30648e-05
1.79992e-06
1.21937e-05
-1.26239e-05
-1.0755e-05
1.3006e-05
1.01495e-05
-0.00010354
0.000103342
-0.000105211
0.000104572
1.01101e-05
-1.82738e-06
-0.000108292
-1.06085e-05
0.000107831
1.28971e-05
-0.000107758
1.18851e-05
-1.17603e-06
0.00010745
-1.22284e-05
-1.80841e-06
-1.05921e-05
1.28529e-05
1.1916e-05
-1.15959e-06
-1.22866e-05
-9.98826e-06
-0.000103944
0.000103323
-0.000103119
2.15806e-06
0.000102858
-9.97172e-06
2.17369e-06
6.35392e-07
-0.000107023
-1.35977e-06
0.000106799
-2.27339e-07
-0.00010643
-7.02454e-07
3.73072e-07
0.000106255
1.13988e-06
6.44748e-07
-1.33036e-06
-2.82942e-07
-6.66967e-07
3.76438e-07
1.07726e-06
9.18117e-07
-0.000101725
0.000101605
-0.000100796
2.95121e-07
0.000100717
9.23062e-07
2.96945e-07
-1.30221e-11
-0.000106113
-3.69885e-07
0.000105957
8.98714e-07
-0.000106112
-3.69941e-07
-3.73125e-07
0.000105957
8.98809e-07
-3.67337e-13
-3.38871e-07
8.39216e-07
-3.38962e-07
-3.76448e-07
8.3933e-07
-6.30165e-12
-0.000100371
0.000100296
-0.000100371
-2.95175e-07
0.000100296
9.35536e-13
-2.96972e-07
-6.35587e-07
-0.00010643
-7.02808e-07
0.000106254
1.1404e-06
-0.000107023
-1.36154e-06
1.17638e-06
0.000106799
-2.26258e-07
-6.44937e-07
-6.67396e-07
1.07783e-06
-1.33222e-06
1.15945e-06
-2.81731e-07
-9.18325e-07
-0.000100794
0.000100715
-0.000101719
-2.15879e-06
0.000101598
-9.23181e-07
-2.17406e-06
1.82687e-06
-0.000107761
1.1884e-05
0.000107455
-1.22285e-05
-0.000108289
-1.06055e-05
0.000107827
1.2895e-05
1.80842e-06
1.19115e-05
-1.22848e-05
-1.05856e-05
1.28484e-05
9.98979e-06
-0.000103107
0.000102842
-0.000103958
0.000103342
9.97199e-06
-1.82364e-06
-0.000107359
-1.04089e-05
0.00010687
1.27209e-05
-0.000107123
1.15566e-05
-1.17581e-06
0.000106765
-1.18464e-05
-1.80735e-06
-1.03957e-05
1.26757e-05
1.15981e-05
-1.16468e-06
-1.19136e-05
-9.80413e-06
-0.000102725
0.00010212
-0.000102559
2.08505e-06
0.000102227
-9.79733e-06
2.09918e-06
6.05787e-07
-0.000106551
-1.39853e-06
0.000106268
-9.94228e-08
-0.00010605
-7.60267e-07
3.58515e-07
0.000105809
1.24884e-06
6.13983e-07
-1.36415e-06
-1.66976e-07
-7.23967e-07
3.61833e-07
1.18129e-06
8.87766e-07
-0.000101446
0.000101245
-0.0001006
2.84606e-07
0.000100442
8.93917e-07
2.86963e-07
1.34063e-11
-0.00010577
-4.28379e-07
0.000105548
1.00928e-06
-0.00010577
-4.28345e-07
-3.58553e-07
0.000105548
1.00929e-06
-2.09728e-11
-3.94454e-07
9.42977e-07
-3.94449e-07
-3.6199e-07
9.43066e-07
3.36613e-11
-0.000100189
0.000100045
-0.000100189
-2.84608e-07
0.000100045
-3.47725e-12
-2.8704e-07
-6.06e-07
-0.000106049
-7.60248e-07
0.000105808
1.24905e-06
-0.000106552
-1.39924e-06
1.17714e-06
0.000106268
-9.95778e-08
-6.14608e-07
-7.24065e-07
1.18189e-06
-1.36516e-06
1.16591e-06
-1.68062e-07
-8.88137e-07
-0.000100598
0.000100441
-0.000101439
-2.08724e-06
0.000101239
-8.94265e-07
-2.10047e-06
1.82161e-06
-0.000107129
1.15676e-05
0.000106769
-1.18522e-05
-0.000107354
-1.0419e-05
0.000106867
1.27273e-05
1.80624e-06
1.16012e-05
-1.19156e-05
-1.0398e-05
1.26769e-05
9.80954e-06
-0.000102543
0.000102213
-0.000102745
0.000102135
9.80057e-06
-1.81071e-06
-0.000106368
-1.02079e-05
0.000105847
1.25395e-05
-0.000106383
1.12141e-05
-1.16362e-06
0.000105965
-1.14432e-05
-1.79966e-06
-1.02e-05
1.25018e-05
1.12691e-05
-1.15858e-06
-1.15285e-05
-9.59961e-06
-0.000101526
0.000100918
-0.000101861
2.0169e-06
0.000101458
-9.60559e-06
2.02952e-06
5.76462e-07
-0.000105952
-1.44512e-06
0.000105599
5.88392e-08
-0.000105535
-8.19277e-07
3.44237e-07
0.000105221
1.36473e-06
5.8469e-07
-1.40777e-06
-2.01438e-08
-7.81722e-07
3.47688e-07
1.29266e-06
8.55988e-07
-0.000101003
0.000100719
-0.000100247
2.73779e-07
0.00010001
8.63187e-07
2.76405e-07
7.05929e-11
-0.000105293
-4.91865e-07
0.000104998
1.13032e-06
-0.000105292
-4.91891e-07
-3.44116e-07
0.000104998
1.13034e-06
5.44467e-11
-4.5505e-07
1.05791e-06
-4.55054e-07
-3.4762e-07
1.05793e-06
7.38846e-11
-9.98665e-05
9.96483e-05
-9.98662e-05
-2.73707e-07
9.96481e-05
6.73287e-11
-2.76342e-07
-5.76574e-07
-0.000105534
-8.194e-07
0.000105221
1.36497e-06
-0.000105952
-1.44623e-06
1.1658e-06
0.000105598
5.78645e-08
-5.84927e-07
-7.8182e-07
1.29291e-06
-1.40912e-06
1.15998e-06
-2.05895e-08
-8.56394e-07
-0.000100246
0.00010001
-0.000100999
-2.02047e-06
0.000100717
-8.6357e-07
-2.03253e-06
1.80774e-06
-0.000106388
1.12322e-05
0.000105968
-1.14542e-05
-0.000106365
-1.02234e-05
0.000105845
1.25513e-05
1.79695e-06
1.1281e-05
-1.15361e-05
-1.02109e-05
1.25102e-05
9.60789e-06
-0.000101849
0.000101453
-0.000101537
0.000100922
9.61284e-06
-1.79086e-06
-0.000105306
-1.00249e-05
0.000104742
1.238e-05
-0.000105522
1.08788e-05
-1.14228e-06
0.000105033
-1.10392e-05
-1.78334e-06
-1.00065e-05
1.23307e-05
1.09305e-05
-1.14282e-06
-1.11275e-05
-9.38839e-06
-0.000100313
9.96764e-05
-0.00010102
1.9566e-06
0.000100554
-9.40196e-06
1.96641e-06
5.46904e-07
-0.000105222
-1.50525e-06
0.000104789
2.48586e-07
-0.000104874
-8.80294e-07
3.30695e-07
0.000104483
1.48751e-06
5.57012e-07
-1.45878e-06
1.35709e-07
-8.41621e-07
3.33749e-07
1.41181e-06
8.2404e-07
-0.000100395
0.000100022
-9.97349e-05
2.63103e-07
9.94156e-05
8.31907e-07
2.65773e-07
1.06207e-11
-0.000104669
-5.59341e-07
0.000104297
1.26173e-06
-0.000104669
-5.59424e-07
-3.30781e-07
0.000104297
1.26187e-06
3.71048e-11
-5.20145e-07
1.18325e-06
-5.20197e-07
-3.33703e-07
1.18331e-06
9.03571e-12
-9.93939e-05
9.90976e-05
-9.93937e-05
-2.63161e-07
9.90975e-05
4.40081e-11
-2.65757e-07
-5.47319e-07
-0.000104874
-8.8075e-07
0.000104483
1.48819e-06
-0.000105221
-1.50802e-06
1.14414e-06
0.000104789
2.48927e-07
-5.57089e-07
-8.41845e-07
1.41214e-06
-1.46028e-06
1.14529e-06
1.35018e-07
-8.2459e-07
-9.97345e-05
9.94151e-05
-0.000100394
-1.96015e-06
0.000100021
-8.32369e-07
-1.96998e-06
1.78981e-06
-0.000105522
1.08939e-05
0.000105034
-1.10517e-05
-0.000105305
-1.00368e-05
0.00010474
1.23917e-05
1.78132e-06
1.09483e-05
-1.11391e-05
-1.00219e-05
1.23429e-05
9.39961e-06
-0.00010102
0.000100554
-0.000100311
9.96742e-05
9.41136e-06
-1.76594e-06
-0.00010415
-9.84841e-06
0.000103526
1.22384e-05
-0.000104519
1.05337e-05
-1.11403e-06
0.000103961
-1.06276e-05
-1.76068e-06
-9.83036e-06
1.21829e-05
1.05961e-05
-1.1164e-06
-1.07261e-05
-9.16826e-06
-9.90318e-05
9.83517e-05
-0.000100056
1.90012e-06
9.95211e-05
-9.18581e-06
1.90863e-06
5.18397e-07
-0.000104323
-1.56843e-06
0.000103811
4.48668e-07
-0.000104056
-9.43856e-07
3.1777e-07
0.000103583
1.61759e-06
5.26566e-07
-1.52228e-06
3.45252e-07
-9.02441e-07
3.20788e-07
1.53545e-06
7.92619e-07
-9.96083e-05
9.91474e-05
-9.90578e-05
2.52781e-07
9.86538e-05
7.99975e-07
2.55294e-07
-3.20265e-12
-0.000103889
-6.31687e-07
0.000103435
1.40325e-06
-0.000103889
-6.31799e-07
-3.17926e-07
0.000103435
1.40351e-06
1.17529e-12
-5.88886e-07
1.31783e-06
-5.88996e-07
-3.20934e-07
1.31806e-06
-1.98375e-11
-9.8764e-05
9.83852e-05
-9.87639e-05
-2.52908e-07
9.83849e-05
-6.80589e-12
-2.55397e-07
-5.19152e-07
-0.000104056
-9.44455e-07
0.000103583
1.61878e-06
-0.000104323
-1.57142e-06
1.11498e-06
0.00010381
4.49974e-07
-5.27218e-07
-9.03041e-07
1.53652e-06
-1.52559e-06
1.1176e-06
3.46666e-07
-7.93268e-07
-9.90573e-05
9.86532e-05
-9.96075e-05
-1.90381e-06
9.91466e-05
-8.00582e-07
-1.91215e-06
1.76458e-06
-0.00010452
1.05501e-05
0.000103961
-1.06405e-05
-0.000104148
-9.8608e-06
0.000103525
1.22487e-05
1.75987e-06
1.06096e-05
-1.07379e-05
-9.84085e-06
1.21926e-05
9.18022e-06
-0.000100054
9.95203e-05
-9.90308e-05
9.83502e-05
9.19742e-06
-1.73694e-06
-0.000102872
-9.68573e-06
0.000102182
1.21123e-05
-0.00010337
1.01887e-05
-1.08211e-06
0.000102728
-1.02015e-05
-1.73563e-06
-9.66071e-06
1.20507e-05
1.02533e-05
-1.08688e-06
-1.03111e-05
-8.95039e-06
-9.76624e-05
9.69271e-05
-9.89476e-05
1.84767e-06
9.83383e-05
-8.97145e-06
1.85541e-06
4.95015e-07
-0.000103262
-1.6292e-06
0.000102665
6.48757e-07
-0.000103072
-1.01326e-06
3.05091e-07
0.000102512
1.76333e-06
5.01162e-07
-1.58582e-06
5.46415e-07
-9.68843e-07
3.08316e-07
1.6723e-06
7.63696e-07
-9.86466e-05
9.81013e-05
-9.82099e-05
2.43058e-07
9.77172e-05
7.70389e-07
2.4546e-07
-4.0556e-11
-0.000102943
-7.10787e-07
0.000102401
1.55792e-06
-0.000102943
-7.10896e-07
-3.05261e-07
0.000102401
1.55814e-06
-2.49032e-11
-6.64065e-07
1.46483e-06
-6.64176e-07
-3.08475e-07
1.46505e-06
-2.5161e-11
-9.79666e-05
9.74989e-05
-9.79663e-05
-2.43214e-07
9.74986e-05
-2.66641e-11
-2.45601e-07
-4.95309e-07
-0.000103072
-1.01385e-06
0.000102512
1.76414e-06
-0.000103262
-1.63226e-06
1.0849e-06
0.000102665
6.49027e-07
-5.01659e-07
-9.69418e-07
1.67323e-06
-1.58867e-06
1.0888e-06
5.46798e-07
-7.64424e-07
-9.82092e-05
9.77166e-05
-9.86458e-05
-1.85127e-06
9.81004e-05
-7.71046e-07
-1.85895e-06
1.73634e-06
-0.000103372
1.02008e-05
0.000102733
-1.02133e-05
-0.000102871
-9.69363e-06
0.000102179
1.21214e-05
1.73338e-06
1.02686e-05
-1.03237e-05
-9.67355e-06
1.2061e-05
8.96013e-06
-9.89475e-05
9.83369e-05
-9.76591e-05
9.69256e-05
8.9825e-06
-1.69951e-06
-0.000101453
-9.52947e-06
0.000100679
1.20036e-05
-0.000102061
9.83224e-06
-1.05276e-06
0.000101345
-9.76329e-06
-1.70076e-06
-9.50256e-06
1.19324e-05
9.90579e-06
-1.05638e-06
-9.88279e-06
-8.72543e-06
-9.61741e-05
9.537e-05
-9.76907e-05
1.79701e-06
9.70005e-05
-8.74955e-06
1.80378e-06
4.74384e-07
-0.000102034
-1.68999e-06
0.000101349
8.47511e-07
-0.000101913
-1.08857e-06
2.92593e-07
0.000101259
1.92367e-06
4.79336e-07
-1.64276e-06
7.38461e-07
-1.03973e-06
2.95604e-07
1.82324e-06
7.36749e-07
-9.75199e-05
9.68901e-05
-9.7184e-05
2.33873e-07
9.65983e-05
7.42494e-07
2.36021e-07
-2.17951e-11
-0.000101818
-7.96579e-07
0.000101181
1.72574e-06
-0.000101818
-7.96653e-07
-2.92795e-07
0.000101181
1.72597e-06
-3.35249e-11
-7.45461e-07
1.62393e-06
-7.45561e-07
-2.95805e-07
1.62418e-06
-1.87759e-11
-9.69895e-05
9.64268e-05
-9.69892e-05
-2.34047e-07
9.64266e-05
-1.88944e-11
-2.36186e-07
-4.75292e-07
-0.000101912
-1.08904e-06
0.000101259
1.92474e-06
-0.000102033
-1.69246e-06
1.05315e-06
0.000101349
8.48282e-07
-4.79997e-07
-1.04029e-06
1.82422e-06
-1.64564e-06
1.05767e-06
7.39321e-07
-7.37662e-07
-9.71834e-05
9.6598e-05
-9.75192e-05
-1.80125e-06
9.68903e-05
-7.43335e-07
-1.80777e-06
1.70554e-06
-0.000102064
9.85105e-06
0.000101341
-9.78075e-06
-0.000101451
-9.54237e-06
0.000100679
1.20193e-05
1.70385e-06
9.9214e-06
-9.89859e-06
-9.51431e-06
1.19466e-05
8.73781e-06
-9.76896e-05
9.70016e-05
-9.61723e-05
9.53677e-05
8.76092e-06
-1.67427e-06
-9.98653e-05
-9.38536e-06
9.90064e-05
1.19185e-05
-0.000100592
9.47895e-06
-1.01832e-06
9.97734e-05
-9.31622e-06
-1.66814e-06
-9.35358e-06
1.1835e-05
9.55147e-06
-1.02476e-06
-9.44192e-06
-8.50583e-06
-9.45462e-05
9.36667e-05
-9.62666e-05
1.75058e-06
9.54891e-05
-8.52975e-06
1.75566e-06
4.57794e-07
-0.000100627
-1.76139e-06
9.98464e-05
1.0654e-06
-0.000100564
-1.17125e-06
2.81221e-07
9.98123e-05
2.09995e-06
4.60942e-07
-1.70913e-06
9.46144e-07
-1.11822e-06
2.83789e-07
1.99021e-06
7.12168e-07
-9.62196e-05