/*--------------------------------*- C++ -*----------------------------------*\
  =========                 |
  \\      /  F ield         | OpenFOAM: The Open Source CFD Toolbox
   \\    /   O peration     | Website:  https://openfoam.org
    \\  /    A nd           | Version:  9
     \\/     M anipulation  |
\*---------------------------------------------------------------------------*/
FoamFile
{
    format      ascii;
    class       volScalarField;
    location    "3.4";
    object      k;
}
// * * * * * * * * * * * * * * * * * * * * * * * * * * * * * * * * * * * * * //

dimensions      [0 2 -2 0 0 0 0];

internalField   nonuniform List<scalar> 
36360
(
0.110692
0.092709
0.0588998
0.0521527
0.0298253
0.0245353
0.00892642
0.0096521
0.0454419
0.0191721
0.0181178
0.0054623
0.010573
0.00434096
0.00440034
0.00302311
0.00782908
0.00783352
0.00308702
0.00308788
0.00261248
0.00261334
0.00291862
0.00291852
0.0191808
0.0454448
0.00546511
0.0181241
0.00434313
0.0105761
0.00302344
0.00440128
0.092707
0.110685
0.0521561
0.0588991
0.0245363
0.0298254
0.00965394
0.00892683
0.173617
0.148376
0.146444
0.123605
0.0594162
0.0480185
0.0467606
0.037347
0.0916077
0.0591493
0.0698993
0.0390344
0.0297408
0.0178009
0.020573
0.00940792
0.0443414
0.0443413
0.0241543
0.0241579
0.0118482
0.0118497
0.00501434
0.00501598
0.059146
0.091597
0.0390374
0.0698962
0.0178025
0.0297394
0.00941171
0.0205745
0.148358
0.173592
0.123595
0.146429
0.0480129
0.0594078
0.0373452
0.0467569
0.215884
0.188463
0.196189
0.16962
0.0783157
0.0651737
0.0695826
0.0571154
0.128976
0.0954015
0.111178
0.0780255
0.0455353
0.0334766
0.0380099
0.0259721
0.0804514
0.0804468
0.0631732
0.0631707
0.028059
0.0280582
0.0203897
0.0203899
0.0953863
0.128949
0.0780162
0.111159
0.0334728
0.0455265
0.0259709
0.0380049
0.188423
0.215836
0.169591
0.196153
0.0651588
0.0782962
0.0571053
0.0695688
0.249243
0.220763
0.233427
0.205405
0.0930475
0.0790563
0.0860624
0.0724383
0.159982
0.125791
0.145189
0.111284
0.0587
0.0465078
0.0524056
0.0402944
0.110576
0.110568
0.0962064
0.0961998
0.0411169
0.0411143
0.0349185
0.0349167
0.125765
0.159937
0.111263
0.145153
0.046499
0.0586835
0.0402881
0.052393
0.220702
0.249171
0.205354
0.233367
0.0790313
0.093016
0.0724184
0.0860369
0.276396
0.247254
0.263508
0.234664
0.105077
0.090548
0.0993578
0.0850724
0.185653
0.150993
0.173436
0.138995
0.0696805
0.0572954
0.0644432
0.0521562
0.135519
0.135507
0.123645
0.123635
0.0518177
0.0518134
0.0467259
0.0467224
0.150957
0.185593
0.138964
0.173383
0.057282
0.0696567
0.0521451
0.064423
0.247172
0.276302
0.234593
0.263425
0.0905132
0.105034
0.0850424
0.0993203
0.298332
0.268747
0.28796
0.258575
0.114844
0.0999428
0.11022
0.095487
0.206598
0.171594
0.196677
0.161831
0.0786947
0.0661301
0.0744169
0.0619382
0.155914
0.155899
0.146246
0.146232
0.0605587
0.0605531
0.056412
0.056407
0.171548
0.206523
0.16179
0.196609
0.0661125
0.0786641
0.0619227
0.0743896
0.268648
0.298219
0.258485
0.287856
0.099899
0.11479
0.0954476
0.110171
0.31573
0.285852
0.307548
0.277801
0.122613
0.107458
0.118955
0.103915
0.223338
0.188095
0.215455
0.180321
0.0859291
0.0732201
0.0825165
0.0698753
0.172269
0.172251
0.164561
0.164544
0.0675718
0.0675649
0.0642629
0.0642566
0.188042
0.22325
0.180271
0.215373
0.0731988
0.0858925
0.0698558
0.0824829
0.285738
0.315599
0.277694
0.307425
0.107406
0.122549
0.103867
0.118896
0.329216
0.299151
0.322915
0.292933
0.128645
0.11332
0.125823
0.110574
0.2364
0.200999
0.23029
0.194961
0.0915881
0.0787697
0.0889367
0.076169
0.185075
0.185055
0.17908
0.179061
0.0730631
0.0730551
0.0704891
0.0704816
0.200939
0.236301
0.194904
0.230197
0.0787451
0.0915462
0.0761459
0.0888974
0.299023
0.32907
0.292811
0.322775
0.113261
0.128573
0.110519
0.125755
0.339371
0.309194
0.334664
0.304535
0.133192
0.117754
0.131081
0.115693
0.246298
0.210802
0.241706
0.206252
0.0958807
0.0829842
0.0938854
0.0810245
0.194816
0.194794
0.190293
0.190272
0.0772358
0.0772268
0.0752949
0.0752864
0.210736
0.246191
0.206189
0.241603
0.0829568
0.0958343
0.0809984
0.0938411
0.309054
0.339211
0.3044
0.33451
0.117689
0.133113
0.115631
0.131005
0.34675
0.316517
0.343365
0.313154
0.136499
0.120989
0.134978
0.119499
0.253547
0.217999
0.250218
0.214692
0.099023
0.0860738
0.0975761
0.0846503
0.201979
0.201956
0.198686
0.198663
0.0802971
0.0802874
0.0788861
0.0788767
0.217928
0.253432
0.214623
0.250106
0.0860441
0.0989728
0.0846217
0.0975277
0.316367
0.34658
0.313009
0.343199
0.120919
0.136413
0.119432
0.134895
0.351857
0.32161
0.349547
0.319303
0.13879
0.123238
0.13775
0.122215
0.258618
0.223055
0.256321
0.220762
0.101218
0.0882376
0.10022
0.0872525
0.207021
0.206996
0.204734
0.204709
0.0824437
0.0824333
0.0814658
0.0814557
0.22298
0.258497
0.220689
0.256202
0.088206
0.101165
0.0872218
0.100168
0.321452
0.351679
0.319149
0.349372
0.123164
0.138699
0.122143
0.137661
0.355147
0.324918
0.353694
0.323452
0.14027
0.124698
0.139612
0.124047
0.261945
0.226393
0.26047
0.22491
0.102655
0.0896602
0.102014
0.0890239
0.210362
0.210336
0.208876
0.20885
0.0838581
0.0838473
0.0832247
0.083214
0.226315
0.261819
0.224833
0.260346
0.0896272
0.1026
0.0889916
0.101959
0.324755
0.354962
0.323291
0.353511
0.124621
0.140176
0.123971
0.139519
0.357006
0.326824
0.356223
0.326015
0.141116
0.12554
0.140754
0.125178
0.263903
0.228383
0.263069
0.227531
0.103498
0.090503
0.103135
0.0901377
0.212367
0.21234
0.211507
0.21148
0.0846999
0.0846887
0.0843341
0.084323
0.228303
0.263774
0.227452
0.262941
0.090469
0.103441
0.0901042
0.103078
0.326656
0.356816
0.325849
0.356034
0.125461
0.141019
0.1251
0.140658
0.357759
0.327648
0.357493
0.327344
0.141472
0.125907
0.141339
0.125767
0.264808
0.229339
0.264465
0.22897
0.103887
0.0909024
0.103735
0.0907435
0.213347
0.21332
0.212965
0.212937
0.0851042
0.0850928
0.0849418
0.0849305
0.229258
0.264676
0.228889
0.264335
0.0908677
0.103828
0.0907091
0.103677
0.327478
0.357566
0.327175
0.3573
0.125826
0.141373
0.125687
0.141241
0.35768
0.327658
0.357793
0.327727
0.141464
0.125916
0.141494
0.125938
0.264917
0.229512
0.264942
0.229506
0.103932
0.090966
0.103937
0.0909631
0.213552
0.213524
0.21353
0.213502
0.0851765
0.0851649
0.0851693
0.0851578
0.229429
0.264784
0.229424
0.264809
0.0909309
0.103873
0.0909282
0.103879
0.327487
0.357485
0.327556
0.357598
0.125835
0.141365
0.125856
0.141395
0.356962
0.327056
0.357383
0.327419
0.141179
0.12566
0.141347
0.125813
0.26444
0.229115
0.264745
0.22938
0.103729
0.0907924
0.103857
0.0909058
0.213194
0.213167
0.213439
0.213411
0.0850167
0.0850051
0.0851229
0.0851114
0.229033
0.264307
0.229298
0.264612
0.0907572
0.10367
0.0908707
0.103798
0.326884
0.356767
0.327247
0.357188
0.125578
0.141079
0.125731
0.141247
0.35576
0.325985
0.356404
0.326561
0.140685
0.1252
0.140946
0.125443
0.263508
0.228272
0.264018
0.228737
0.103331
0.0904286
0.103543
0.0906225
0.212395
0.212368
0.212837
0.21281
0.0846689
0.0846573
0.0848542
0.0848427
0.22819
0.263375
0.228654
0.263885
0.0903934
0.103272
0.0905874
0.103484
0.325813
0.355565
0.326389
0.356208
0.125118
0.140586
0.125361
0.140846
0.354184
0.32456
0.355004
0.325303
0.140033
0.124588
0.140369
0.124902
0.262239
0.227103
0.262907
0.22772
0.102791
0.0899282
0.10307
0.0901862
0.211275
0.211248
0.211868
0.21184
0.0841873
0.0841758
0.0844354
0.0844238
0.227021
0.262107
0.227638
0.262774
0.0898933
0.102733
0.0901512
0.103011
0.324389
0.35399
0.325131
0.354809
0.124506
0.139934
0.12482
0.140269
0.352308
0.322855
0.35327
0.32373
0.139255
0.123854
0.139651
0.124226
0.260706
0.225679
0.261499
0.226417
0.10214
0.0893209
0.102471
0.0896295
0.209905
0.209878
0.210615
0.210588
0.0836009
0.0835895
0.0838985
0.083887
0.225598
0.260575
0.226335
0.261367
0.0892863
0.102082
0.0895947
0.102413
0.322686
0.352116
0.32356
0.353077
0.123774
0.139157
0.124145
0.139552
0.35018
0.320918
0.351264
0.321905
0.138372
0.123021
0.138818
0.123441
0.258955
0.224047
0.259852
0.224884
0.101396
0.0886261
0.101772
0.0889766
0.208331
0.208304
0.209139
0.209111
0.0829289
0.0829176
0.0832675
0.0832562
0.223966
0.258826
0.224803
0.259722
0.0885919
0.101339
0.0889422
0.101714
0.320751
0.349991
0.321736
0.351073
0.122941
0.138275
0.123361
0.13872
0.347829
0.318778
0.349022
0.319864
0.137396
0.122099
0.137888
0.122562
0.257017
0.222236
0.258005
0.22316
0.100573
0.0878555
0.100988
0.0882429
0.206583
0.206556
0.207475
0.207448
0.082183
0.0821719
0.0825576
0.0825464
0.222156
0.256889
0.22308
0.257876
0.0878218
0.100517
0.088209
0.100931
0.318613
0.347642
0.319697
0.348833
0.122021
0.137301
0.122483
0.137791
0.345271
0.316452
0.346566
0.317629
0.136335
0.121097
0.136869
0.1216
0.254908
0.220263
0.25598
0.221267
0.0996773
0.087016
0.100128
0.0874374
0.204677
0.20465
0.205646
0.20562
0.0813699
0.081359
0.0817776
0.0817666
0.220185
0.254782
0.221188
0.255853
0.0869828
0.0996216
0.087404
0.100071
0.31629
0.345087
0.317466
0.34638
0.12102
0.136241
0.121522
0.136773
0.342515
0.31395
0.343909
0.315215
0.135192
0.120017
0.135766
0.120559
0.252638
0.218138
0.25379
0.219217
0.098712
0.0861109
0.0991968
0.086565
0.202622
0.202596
0.203665
0.203639
0.080493
0.0804822
0.0809325
0.0809217
0.218061
0.252514
0.21914
0.253665
0.0860783
0.0986573
0.0865321
0.0991416
0.313791
0.342334
0.315054
0.343726
0.119941
0.135099
0.120482
0.135672
0.339564
0.311275
0.341055
0.312626
0.133968
0.118862
0.134583
0.119441
0.250209
0.215863
0.25144
0.217017
0.0976786
0.0851415
0.0981976
0.0856278
0.200422
0.200397
0.201538
0.201512
0.0795534
0.0795428
0.0800244
0.0800137
0.215787
0.250087
0.216941
0.251318
0.0851094
0.0976249
0.0855955
0.0981434
0.311118
0.339387
0.312468
0.340875
0.118787
0.133877
0.119366
0.134491
0.336418
0.308426
0.338007
0.309864
0.132663
0.117629
0.133319
0.118248
0.247621
0.213438
0.248932
0.214667
0.0965768
0.0841073
0.0971303
0.0846263
0.198076
0.198051
0.199265
0.19924
0.0785508
0.0785404
0.0790535
0.0790431
0.213364
0.247502
0.214593
0.248812
0.0840759
0.0965241
0.0845946
0.0970771
0.308272
0.336244
0.309709
0.337831
0.117556
0.132574
0.118174
0.133228
0.333074
0.305399
0.334763
0.306927
0.131276
0.11632
0.131973
0.116977
0.24487
0.210858
0.246264
0.212166
0.095405
0.0830068
0.0959939
0.0835594
0.19558
0.195556
0.196845
0.196821
0.0774834
0.0774733
0.078019
0.0780088
0.210786
0.244753
0.212093
0.246145
0.0829761
0.0953535
0.0835284
0.0959418
0.305249
0.332904
0.306775
0.33459
0.116248
0.131189
0.116905
0.131885
0.329527
0.302188
0.331319
0.30381
0.129805
0.114929
0.130545
0.115627
0.241948
0.208116
0.243429
0.209507
0.0941599
0.0818366
0.0947862
0.0824248
0.192926
0.192902
0.194272
0.194247
0.0763482
0.0763384
0.0769184
0.0769084
0.208045
0.241834
0.209435
0.243313
0.0818066
0.0941096
0.0823944
0.0947352
0.302041
0.329361
0.303661
0.33115
0.114859
0.12972
0.115557
0.130459
0.325765
0.298781
0.327666
0.300503
0.128244
0.113451
0.129029
0.114194
0.238843
0.2052
0.240417
0.206679
0.0928364
0.0805918
0.0935028
0.0812182
0.190101
0.190078
0.191534
0.191511
0.0751403
0.0751307
0.0757478
0.075738
0.205131
0.238732
0.206609
0.240304
0.0805626
0.0927873
0.0811886
0.0934531
0.298638
0.325604
0.300357
0.327501
0.113383
0.128161
0.114125
0.128945
0.321776
0.295161
0.323793
0.296992
0.126587
0.11188
0.127421
0.112671
0.235538
0.202091
0.237215
0.203669
0.0914273
0.0792651
0.0921377
0.0799337
0.187088
0.187065
0.188618
0.188595
0.0738523
0.073843
0.0745011
0.0744916
0.202023
0.235429
0.203601
0.237105
0.0792367
0.0913796
0.0799049
0.0920894
0.295022
0.321618
0.29685
0.323632
0.111814
0.126506
0.112604
0.12734
0.317538
0.291305
0.319682
0.293257
0.124824
0.110211
0.125713
0.111052
0.232008
0.198764
0.233801
0.200455
0.0899231
0.0778463
0.0906827
0.0785627
0.183861
0.183839
0.185502
0.185479
0.0724741
0.0724651
0.0731697
0.0731605
0.198698
0.231903
0.200388
0.233694
0.0778189
0.0898769
0.0785348
0.0906358
0.29117
0.317385
0.29312
0.319526
0.110147
0.124746
0.110987
0.125634
0.313021
0.28718
0.315309
0.289271
0.122942
0.108426
0.123894
0.109328
0.228219
0.195185
0.230146
0.197007
0.0883087
0.0763209
0.0891259
0.0770929
0.180386
0.180365
0.182156
0.182134
0.0709914
0.0709827
0.0717415
0.0717326
0.195121
0.228117
0.196943
0.230043
0.0762944
0.0882641
0.0770659
0.0890805
0.287049
0.312873
0.289138
0.315158
0.108364
0.122867
0.109265
0.123817
0.308184
0.282741
0.310638
0.284996
0.120921
0.106505
0.121945
0.107478
0.224125
0.191308
0.226211
0.193285
0.0865647
0.0746697
0.0874495
0.0755074
0.176618
0.176598
0.178541
0.17852
0.0693854
0.0693771
0.0702
0.0701914
0.191247
0.224027
0.193223
0.226111
0.0746443
0.0865218
0.0754814
0.0874058
0.282615
0.308042
0.284867
0.310493
0.106445
0.120849
0.107417
0.121871
0.302975
0.277934
0.305623
0.280381
0.118736
0.104424
0.119846
0.10548
0.219672
0.187078
0.221946
0.18924
0.0846668
0.072869
0.0856321
0.0737851
0.172501
0.172481
0.174606
0.174586
0.0676326
0.0676246
0.0685241
0.0685159
0.18702
0.219578
0.189181
0.22185
0.0728448
0.0846258
0.0737602
0.0855902
0.277813
0.302839
0.280257
0.305483
0.104367
0.118667
0.105422
0.119774
0.297324
0.272689
0.300203
0.275365
0.116354
0.102153
0.117567
0.103309
0.214788
0.182424
0.217286
0.184808
0.082585
0.070889
0.0836466
0.071899
0.167963
0.167945
0.170288
0.170269
0.0657032
0.0656957
0.0666873
0.0666795
0.182369
0.214698
0.184751
0.217195
0.070866
0.0825462
0.0718754
0.0836067
0.272574
0.297194
0.275247
0.300069
0.102099
0.116288
0.103253
0.117499
0.291148
0.266923
0.294301
0.26987
0.113735
0.099658
0.115072
0.100931
0.209388
0.177258
0.212157
0.17991
0.0802824
0.0686923
0.0814598
0.0698161
0.162917
0.162899
0.165509
0.165491
0.0635602
0.0635532
0.0646566
0.0646493
0.177206
0.209304
0.179856
0.21207
0.0686708
0.080246
0.0697938
0.0814221
0.266815
0.291025
0.269758
0.294174
0.0996072
0.113673
0.100878
0.115008
0.284355
0.260541
0.287827
0.263809
0.11083
0.0968987
0.112316
0.0983085
0.203365
0.171463
0.206461
0.174447
0.0777127
0.0662309
0.0790304
0.0674943
0.157242
0.157226
0.160166
0.160149
0.0611553
0.0611488
0.0623898
0.062383
0.171415
0.203287
0.174397
0.20638
0.066211
0.077679
0.0674736
0.0789953
0.260439
0.284241
0.263704
0.287708
0.0968515
0.110772
0.0982595
0.112256
0.276914
0.253427
0.280703
0.257078
0.10761
0.0938438
0.109255
0.0954054
0.196543
0.164858
0.200069
0.168277
0.0748082
0.0634347
0.0763048
0.0648766
0.150769
0.150754
0.154117
0.154102
0.0584236
0.0584178
0.059831
0.0598249
0.164814
0.196471
0.16823
0.199994
0.0634169
0.0747776
0.0648577
0.0762726
0.253334
0.276808
0.256981
0.280593
0.0938007
0.107558
0.0953602
0.109199
0.269255
0.245185
0.27302
0.249505
0.104206
0.0904138
0.1059
0.0921866
0.188432
0.157102
0.192708
0.161153
0.071404
0.0601888
0.0731846
0.0618738
0.14327
0.143257
0.147161
0.147147
0.0552901
0.0552851
0.056907
0.0569016
0.157063
0.188367
0.161112
0.19264
0.0601732
0.0713772
0.0618571
0.0731559
0.245101
0.26916
0.249416
0.27292
0.0903755
0.104159
0.0921459
0.10585
0.265299
0.231945
0.266245
0.239965
0.101133
0.0851555
0.102651
0.0883
0.17731
0.147723
0.183433
0.152626
0.0669496
0.056373
0.0693636
0.0583473
0.134652
0.134641
0.139083
0.139071
0.0517653
0.0517611
0.0535622
0.0535577
0.147689
0.177254
0.152589
0.183373
0.0563599
0.0669269
0.058333
0.0693388
0.231873
0.265215
0.239887
0.266155
0.0851231
0.101092
0.0882644
0.102606
0.172604
0.145345
0.106
0.0894047
0.147888
0.123872
0.0865848
0.0732451
0.0838662
0.0462812
0.0408436
0.0145524
0.0673178
0.0337368
0.0303294
0.00928168
0.0269927
0.0269979
0.0059676
0.00597081
0.0166898
0.0166952
0.0043207
0.00432208
0.0462852
0.0838617
0.014564
0.0408478
0.0337447
0.0673177
0.00928708
0.0303356
0.145332
0.172585
0.0894014
0.105989
0.123865
0.147876
0.0732461
0.0865799
0.2625
0.227329
0.222353
0.189949
0.226924
0.195077
0.192124
0.162979
0.155953
0.111967
0.121926
0.0799141
0.12843
0.088269
0.0997139
0.0614336
0.0912135
0.0912092
0.0597409
0.0597404
0.0695232
0.069521
0.0430325
0.0430344
0.111952
0.155924
0.0799085
0.12191
0.0882598
0.12841
0.0614327
0.0997048
0.227288
0.262452
0.189923
0.22232
0.195047
0.226887
0.162962
0.192101
0.327505
0.289522
0.296989
0.260131
0.282293
0.247784
0.256394
0.222944
0.214905
0.169115
0.186781
0.141708
0.177927
0.136196
0.154337
0.113219
0.147684
0.147673
0.120576
0.120569
0.117017
0.117009
0.0942447
0.0942396
0.169082
0.214851
0.141684
0.18674
0.136172
0.177885
0.113202
0.154307
0.28945
0.327424
0.260075
0.296925
0.247727
0.282227
0.222901
0.256343
0.379437
0.340091
0.354809
0.316042
0.326249
0.290434
0.305407
0.270153
0.264001
0.217273
0.240571
0.194255
0.219078
0.176514
0.199439
0.15725
0.195368
0.195351
0.17257
0.172556
0.156951
0.156938
0.137873
0.137863
0.217224
0.263923
0.194214
0.240504
0.176476
0.219014
0.157219
0.199386
0.339991
0.379325
0.315955
0.354712
0.290351
0.326154
0.270083
0.305326
0.421605
0.381496
0.401616
0.361838
0.361947
0.325364
0.345021
0.308776
0.304639
0.257323
0.28531
0.238256
0.253151
0.210019
0.23694
0.194067
0.235071
0.23505
0.216163
0.216144
0.190139
0.190121
0.174335
0.17432
0.25726
0.304538
0.2382
0.28522
0.209967
0.253068
0.194022
0.236867
0.38137
0.421466
0.361725
0.40149
0.325257
0.361826
0.308681
0.344912
0.455545
0.414992
0.439511
0.399152
0.390706
0.353647
0.377115
0.340268
0.337744
0.290064
0.322071
0.274552
0.280929
0.237411
0.267775
0.224431
0.267575
0.26755
0.25217
0.252146
0.217297
0.217276
0.204424
0.204405
0.289989
0.337625
0.274483
0.321962
0.237349
0.280829
0.224374
0.267683
0.414845
0.455383
0.399015
0.439359
0.353519
0.390563
0.34015
0.376982
0.482407
0.441602
0.46978
0.429084
0.413483
0.376128
0.402774
0.36555
0.364183
0.316292
0.351737
0.303938
0.303121
0.259354
0.292673
0.249017
0.293651
0.293621
0.281364
0.281337
0.23908
0.239055
0.228815
0.228793
0.316207
0.364049
0.303858
0.351611
0.259282
0.303006
0.24895
0.292565
0.441435
0.482225
0.428927
0.469606
0.375981
0.41332
0.365413
0.402619
0.503217
0.46228
0.493495
0.452614
0.431129
0.393596
0.422884
0.38543
0.384824
0.336826
0.375171
0.327218
0.320442
0.276525
0.312341
0.26849
0.314094
0.314062
0.304524
0.304494
0.256146
0.256119
0.248157
0.248132
0.336732
0.384677
0.327128
0.37503
0.276444
0.320314
0.268414
0.312219
0.462098
0.503019
0.452439
0.493303
0.393434
0.430949
0.385275
0.422711
0.518902
0.477914
0.511631
0.470662
0.444418
0.406791
0.438257
0.40067
0.400504
0.35247
0.393229
0.345207
0.333584
0.289588
0.327487
0.283524
0.32969
0.329656
0.322447
0.322414
0.269147
0.269117
0.26311
0.263081
0.352368
0.400346
0.345109
0.393076
0.2895
0.333445
0.28344
0.327353
0.477719
0.51869
0.470473
0.511424
0.406617
0.444224
0.400502
0.438068
0.530333
0.489348
0.525087
0.484097
0.454087
0.416425
0.44965
0.412001
0.412035
0.364013
0.406738
0.358706
0.343228
0.299204
0.338798
0.294784
0.341218
0.341181
0.335916
0.33588
0.278732
0.278701
0.274324
0.274294
0.363905
0.411868
0.358601
0.406575
0.299111
0.343081
0.294693
0.338655
0.489143
0.53011
0.483896
0.524868
0.416239
0.453881
0.41182
0.449448
0.538281
0.49734
0.534684
0.493719
0.460792
0.42314
0.457758
0.420098
0.420158
0.372182
0.416476
0.368476
0.35
0.305985
0.346931
0.302909
0.349394
0.349355
0.345682
0.345644
0.285506
0.285473
0.282432
0.282399
0.37207
0.419983
0.368365
0.416305
0.305887
0.349845
0.302814
0.34678
0.497126
0.538049
0.493509
0.534454
0.422946
0.460577
0.419907
0.457546
0.543439
0.502573
0.541159
0.500254
0.465124
0.427516
0.463209
0.425577
0.425544
0.377641
0.423154
0.375213
0.354467
0.310491
0.352485
0.308488
0.354876
0.354836
0.352435
0.352396
0.290022
0.289988
0.288012
0.287979
0.377524
0.425364
0.375099
0.422976
0.31039
0.354307
0.308388
0.352327
0.502352
0.543201
0.500036
0.540922
0.427316
0.464902
0.425379
0.462989
0.546394
0.505627
0.545147
0.504329
0.467586
0.430052
0.466548
0.428975
0.428772
0.38096
0.427394
0.379536
0.35712
0.313206
0.355989
0.312043
0.358232
0.358191
0.356788
0.356748
0.292762
0.292726
0.291585
0.29155
0.380841
0.428588
0.379418
0.427212
0.313102
0.356956
0.31194
0.355826
0.505403
0.546151
0.504106
0.544904
0.429846
0.467358
0.428772
0.466321
0.54764
0.506997
0.547192
0.506487
0.468599
0.431165
0.468238
0.430753
0.43033
0.382625
0.429733
0.381974
0.358375
0.314541
0.357896
0.314022
0.359945
0.359903
0.359269
0.359227
0.294132
0.294097
0.293594
0.293558
0.382505
0.430143
0.381854
0.429547
0.314436
0.358208
0.313917
0.357731
0.50677
0.547395
0.50626
0.546946
0.430957
0.468369
0.430546
0.468008
0.547587
0.507085
0.547739
0.507168
0.468518
0.431202
0.46866
0.431285
0.430617
0.383032
0.43061
0.382966
0.358569
0.314829
0.358581
0.314796
0.360407
0.360365
0.360313
0.360272
0.294465
0.294428
0.294409
0.294373
0.382911
0.430429
0.382845
0.430423
0.314723
0.358401
0.31469
0.358414
0.506856
0.54734
0.506939
0.547491
0.430992
0.468286
0.431076
0.468427
0.546543
0.506208
0.547166
0.506748
0.467599
0.430429
0.468141
0.430898
0.429959
0.382509
0.430398
0.382879
0.357977
0.314349
0.358363
0.314678
0.359947
0.359905
0.360284
0.360242
0.294037
0.294
0.294338
0.294302
0.382387
0.429771
0.382757
0.43021
0.314242
0.357808
0.314571
0.358194
0.505978
0.546296
0.506519
0.546917
0.430219
0.467367
0.430688
0.467907
0.544735
0.504585
0.545711
0.505468
0.466039
0.429033
0.466876
0.429788
0.428567
0.381261
0.429342
0.381964
0.356776
0.313269
0.357438
0.313871
0.358769
0.358727
0.359436
0.359394
0.293015
0.292979
0.293587
0.29355
0.381139
0.428379
0.381842
0.429154
0.313162
0.356607
0.313764
0.35727
0.504356
0.54449
0.505239
0.545463
0.428823
0.465807
0.429577
0.466643
0.542342
0.502397
0.543594
0.503545
0.463986
0.427166
0.465056
0.428142
0.426626
0.379476
0.427658
0.38043
0.35512
0.311747
0.355996
0.312555
0.35706
0.357018
0.357975
0.357933
0.291558
0.291522
0.292333
0.292297
0.379355
0.426439
0.380309
0.42747
0.311641
0.354953
0.312449
0.355828
0.50217
0.542098
0.503317
0.543347
0.426958
0.463756
0.427932
0.464823
0.53948
0.499763
0.540953
0.501122
0.461539
0.424926
0.462795
0.426078
0.424255
0.377273
0.42549
0.378424
0.353109
0.309881
0.354153
0.310852
0.354939
0.354897
0.356048
0.356007
0.289763
0.289727
0.290697
0.290661
0.377153
0.42407
0.378304
0.425303
0.309776
0.352944
0.310746
0.353986
0.499538
0.539239
0.500895
0.540708
0.42472
0.461311
0.42587
0.462565
0.536229
0.496762
0.53789
0.498297
0.458762
0.422379
0.460178
0.423679
0.421534
0.374732
0.422936
0.376044
0.350808
0.307735
0.35199
0.308839
0.352485
0.352444
0.353753
0.353712
0.287693
0.287657
0.288758
0.288723
0.374613
0.421351
0.375925
0.422752
0.307631
0.350644
0.308735
0.351825
0.49654
0.535991
0.498073
0.537648
0.422175
0.458537
0.423473
0.459949
0.532637
0.493445
0.534464
0.495133
0.455696
0.419565
0.457252
0.420994
0.418514
0.371902
0.420061
0.373354
0.348257
0.305351
0.34956
0.306571
0.349749
0.349709
0.351153
0.351113
0.28539
0.285355
0.286568
0.286533
0.371785
0.418333
0.373236
0.419879
0.305248
0.348095
0.306467
0.349397
0.493226
0.532403
0.494912
0.534225
0.419364
0.455474
0.420791
0.457027
0.528734
0.48984
0.530714
0.491669
0.452362
0.416508
0.45405
0.418057
0.415224
0.368815
0.416903
0.370393
0.345479
0.302751
0.346893
0.304076
0.346761
0.346722
0.348289
0.348249
0.282877
0.282842
0.284158
0.284123
0.368699
0.415046
0.370276
0.416723
0.30265
0.34532
0.303974
0.346733
0.489624
0.528503
0.491452
0.530479
0.41631
0.452144
0.417857
0.453829
0.524534
0.485963
0.526661
0.487927
0.448774
0.41322
0.450589
0.414883
0.41168
0.365486
0.413485
0.367183
0.342489
0.29995
0.344009
0.301375
0.343538
0.343499
0.345182
0.345143
0.280167
0.280133
0.281546
0.281512
0.365372
0.411505
0.367069
0.413308
0.29985
0.342332
0.301274
0.343851
0.485751
0.524307
0.487713
0.52643
0.413025
0.44856
0.414686
0.450371
0.520043
0.48182
0.522315
0.483917
0.444937
0.409706
0.446876
0.411482
0.407889
0.361921
0.409817
0.363736
0.33929
0.296951
0.340914
0.298474
0.340084
0.340046
0.341843
0.341804
0.277266
0.277232
0.27874
0.278707
0.361809
0.407717
0.363623
0.409644
0.296852
0.339136
0.298376
0.340758
0.481611
0.519821
0.483706
0.522089
0.409515
0.444726
0.411289
0.446662
0.515261
0.47741
0.51768
0.479641
0.440849
0.405966
0.442913
0.407855
0.403849
0.358119
0.405902
0.360053
0.335881
0.293753
0.337611
0.295377
0.336399
0.336362
0.338275
0.338236
0.274171
0.274138
0.275743
0.27571
0.358009
0.40368
0.359943
0.405732
0.293657
0.33573
0.295279
0.337458
0.477206
0.515043
0.479435
0.517457
0.405778
0.440642
0.407666
0.442704
0.510182
0.472726
0.51275
0.475095
0.436505
0.401993
0.438699
0.404
0.399552
0.354071
0.401735
0.35613
0.332258
0.29035
0.334096
0.292078
0.332474
0.332437
0.334471
0.334433
0.270877
0.270845
0.272549
0.272517
0.353963
0.399386
0.356021
0.401568
0.290256
0.332109
0.291982
0.333946
0.472526
0.509969
0.474893
0.512532
0.401809
0.436304
0.403814
0.438493
0.504794
0.467753
0.507519
0.470269
0.431899
0.397777
0.434226
0.399907
0.394983
0.349762
0.397304
0.351953
0.328407
0.286731
0.33036
0.288569
0.328293
0.328257
0.33042
0.330383
0.267371
0.267339
0.269151
0.269119
0.349657
0.394821
0.351847
0.39714
0.286639
0.328262
0.288475
0.330214
0.467558
0.504586
0.470071
0.507306
0.397598
0.431702
0.399725
0.434025
0.49908
0.462473
0.50197
0.465146
0.427015
0.393304
0.429483
0.395565
0.39012
0.345169
0.392592
0.347506
0.324313
0.282878
0.32639
0.284835
0.323833
0.323798
0.326103
0.326067
0.263636
0.263605
0.265533
0.265502
0.345066
0.389962
0.347402
0.392432
0.282788
0.324171
0.284744
0.326247
0.462282
0.498877
0.464953
0.501762
0.393129
0.426823
0.395387
0.429287
0.493014
0.456854
0.496083
0.4597
0.421833
0.38855
0.424453
0.390955
0.384932
0.34026
0.387571
0.342759
0.31995
0.278765
0.322166
0.280856
0.319062
0.319027
0.321492
0.321457
0.259645
0.259615
0.261674
0.261644
0.34016
0.384778
0.342658
0.387415
0.278677
0.319812
0.280767
0.322026
0.456669
0.492816
0.459512
0.495881
0.38838
0.421646
0.390782
0.424262
0.486561
0.450867
0.48983
0.453902
0.416324
0.383481
0.419111
0.386049
0.379379
0.334991
0.382206
0.337677
0.315284
0.274357
0.317656
0.2766
0.313934
0.313901
0.316549
0.316515
0.255364
0.255335
0.257543
0.257514
0.334893
0.37923
0.337578
0.382055
0.274271
0.315151
0.276514
0.317521
0.450687
0.48637
0.453719
0.489633
0.383316
0.416143
0.385881
0.418926
0.479669
0.444451
0.483164
0.447709
0.41045
0.378054
0.413426
0.380807
0.373403
0.329303
0.37645
0.332207
0.310269
0.269606
0.312823
0.272027
0.308391
0.308359
0.311222
0.311189
0.250743
0.250715
0.253099
0.253071
0.329209
0.373258
0.332111
0.376303
0.269523
0.31014
0.271943
0.312691
0.444276
0.479483
0.447532
0.482974
0.377894
0.410275
0.380644
0.413247
0.472272
0.437533
0.476029
0.441051
0.404154
0.372211
0.407349
0.37518
0.366929
0.323123
0.370235
0.326283
0.304844
0.26445
0.307611
0.267083
0.302358
0.302327
0.305444
0.305412
0.245722
0.245695
0.248287
0.248259
0.323031
0.366788
0.32619
0.370092
0.264371
0.304719
0.267002
0.307484
0.437365
0.472093
0.44088
0.475845
0.372057
0.403985
0.375023
0.407175
0.464292
0.43003
0.468352
0.433853
0.397367
0.36588
0.400817
0.369103
0.359867
0.316356
0.363479
0.319822
0.298934
0.258814
0.301954
0.261698
0.295741
0.295711
0.299132
0.299101
0.240224
0.240198
0.243038
0.243012
0.316268
0.359733
0.319732
0.363342
0.258738
0.298814
0.26162
0.301831
0.429868
0.46412
0.433687
0.468174
0.365732
0.397205
0.368952
0.40065
0.455633
0.42184
0.460045
0.42602
0.390005
0.358972
0.393754
0.362496
0.352111
0.308892
0.356085
0.312721
0.292445
0.252602
0.295767
0.255786
0.288426
0.288397
0.292181
0.292152
0.234151
0.234127
0.237266
0.23724
0.308808
0.351982
0.312635
0.355953
0.252529
0.292331
0.255712
0.29565
0.421685
0.455469
0.425861
0.459875
0.35883
0.389851
0.362351
0.393595
0.44619
0.412848
0.451007
0.417444
0.381971
0.351383
0.386069
0.355261
0.343529
0.30059
0.347933
0.304857
0.285266
0.245695
0.288949
0.249244
0.28027
0.280243
0.284466
0.284437
0.227385
0.227361
0.230863
0.230839
0.30051
0.343406
0.304776
0.347807
0.245627
0.285158
0.249173
0.288837
0.412701
0.446034
0.417293
0.450845
0.351249
0.381825
0.355123
0.385917
0.435885
0.402936
0.441138
0.408006
0.373176
0.342997
0.377663
0.347288
0.333962
0.291268
0.338881
0.296072
0.277254
0.237938
0.281374
0.241935
0.271083
0.271057
0.275821
0.275795
0.219763
0.219741
0.223692
0.223669
0.291193
0.333847
0.295995
0.338762
0.237873
0.277153
0.241868
0.281269
0.402799
0.435739
0.407864
0.440985
0.342871
0.373039
0.347158
0.37752
0.424809
0.391992
0.430412
0.397594
0.363645
0.333683
0.36848
0.338459
0.323163
0.280649
0.328741
0.286146
0.268182
0.229087
0.272871
0.233669
0.260596
0.260572
0.266024
0.266
0.211058
0.211037
0.215562
0.215541
0.28058
0.323056
0.286074
0.32863
0.229028
0.268089
0.233607
0.272774
0.391864
0.424673
0.397461
0.430269
0.333568
0.363519
0.338338
0.368347
0.414003
0.379609
0.419192
0.386042
0.354097
0.322982
0.358737
0.328572
0.310468
0.268229
0.317133
0.274709
0.257436
0.218707
0.263091
0.224126
0.248444
0.248423
0.254753
0.25473
0.200965
0.200948
0.206203
0.206184
0.268167
0.310372
0.274644
0.317032
0.218654
0.257352
0.22407
0.263002
0.379493
0.413879
0.38592
0.41906
0.322878
0.353982
0.328462
0.358615
0.410687
0.361029
0.410361
0.372094
0.350244
0.306424
0.350606
0.316341
0.293656
0.253328
0.30282
0.261109
0.243009
0.206223
0.250895
0.21274
0.234424
0.234405
0.241653
0.241632
0.189348
0.189332
0.195329
0.195312
0.253274
0.293571
0.261051
0.302729
0.206177
0.242936
0.21269
0.250817
0.360926
0.410575
0.371984
0.410242
0.306332
0.350142
0.316243
0.350496
0.204025
0.173473
0.131385
0.111299
0.190476
0.161228
0.120407
0.101648
0.107032
0.0657019
0.0564637
0.0250554
0.0967547
0.0568201
0.0493953
0.0201528
0.0454699
0.0454729
0.0108501
0.0108555
0.0368233
0.0368275
0.0083139
0.00831865
0.0656999
0.107018
0.0250665
0.0564627
0.0568214
0.0967455
0.020165
0.0493973
0.173446
0.20399
0.111285
0.131362
0.161208
0.190448
0.10164
0.12039
0.308303
0.270058
0.260816
0.225275
0.288404
0.251344
0.244182
0.209869
0.194577
0.147342
0.152861
0.107547
0.177424
0.131385
0.13916
0.0950764
0.124895
0.124887
0.0858561
0.0858523
0.109552
0.109545
0.0739158
0.0739137
0.147315
0.194531
0.107532
0.152831
0.131365
0.177386
0.0950662
0.139138
0.269997
0.308233
0.225232
0.260764
0.251293
0.288344
0.209835
0.24414
0.387422
0.34638
0.350033
0.310109
0.361132
0.321245
0.32687
0.288115
0.267901
0.218762
0.2328
0.18443
0.244186
0.19626
0.212284
0.165117
0.195416
0.1954
0.161473
0.16146
0.17361
0.173597
0.142823
0.142813
0.218714
0.267825
0.184393
0.232739
0.196219
0.24412