/*--------------------------------*- C++ -*----------------------------------*\
  =========                 |
  \\      /  F ield         | OpenFOAM: The Open Source CFD Toolbox
   \\    /   O peration     | Website:  https://openfoam.org
    \\  /    A nd           | Version:  9
     \\/     M anipulation  |
\*---------------------------------------------------------------------------*/
FoamFile
{
    format      ascii;
    class       volScalarField;
    location    "3.4";
    object      nut;
}
// * * * * * * * * * * * * * * * * * * * * * * * * * * * * * * * * * * * * * //

dimensions      [0 2 -1 0 0 0 0];

internalField   nonuniform List<scalar> 
36360
(
0.00308506
0.00272375
0.00183101
0.00165173
0.000510457
0.00046299
0.000279258
0.000290443
0.00184911
0.00113979
0.000868449
0.000315614
0.000303998
0.000194789
0.000196066
0.00016248
0.000621675
0.000622158
0.000193467
0.000193548
0.000151105
0.00015113
0.000159622
0.000159619
0.00114061
0.00184946
0.000315863
0.000868903
0.000194838
0.000304042
0.000162489
0.000196087
0.00272376
0.00308471
0.0016519
0.00183086
0.000462999
0.000510458
0.00029047
0.000279264
0.00454188
0.00415867
0.00391238
0.00351931
0.000720413
0.000647665
0.000639109
0.000571188
0.00335154
0.00285705
0.00265732
0.00203847
0.000509767
0.000394472
0.000423994
0.000286815
0.002704
0.00270414
0.00174816
0.00174854
0.000321938
0.000321959
0.000209457
0.000209491
0.00285719
0.00335138
0.00203892
0.00265744
0.000394489
0.000509755
0.000286873
0.000424009
0.00415815
0.00454095
0.00351908
0.00391176
0.000647627
0.000720361
0.000571175
0.000639083
0.00553101
0.00519017
0.00506883
0.00470631
0.000827107
0.000754555
0.000779618
0.000706359
0.00448931
0.00413317
0.00395659
0.00354678
0.000630768
0.000540904
0.00057629
0.000476449
0.004047
0.00404697
0.00344144
0.00344147
0.000495255
0.000495247
0.00042222
0.000422222
0.00413292
0.00448864
0.00354671
0.00395617
0.000540873
0.000630707
0.000476439
0.000576252
0.00518905
0.00552938
0.00470549
0.00506755
0.000754469
0.000827004
0.000706297
0.000779541
0.00630968
0.00600726
0.00594173
0.0056209
0.000901579
0.000831069
0.000867064
0.000795511
0.00537731
0.00508065
0.00495931
0.00463821
0.000716185
0.000637542
0.000676689
0.000593427
0.00500765
0.00500752
0.00456083
0.00456074
0.000599489
0.00059947
0.000552464
0.00055245
0.00508011
0.0053762
0.00463781
0.00495841
0.000637482
0.000716084
0.000593381
0.000676607
0.00600556
0.00630734
0.00561949
0.00593974
0.000830938
0.000901426
0.000795401
0.000866935
0.00693618
0.00666233
0.00663918
0.00635242
0.000958122
0.000889454
0.000931665
0.000862126
0.00607822
0.00581179
0.00574778
0.00546831
0.000780325
0.000707643
0.000750415
0.000675153
0.005742
0.00574178
0.00539732
0.00539714
0.000672997
0.00067297
0.000639072
0.000639049
0.00581101
0.00607672
0.00546765
0.00574647
0.00070756
0.000780191
0.000675081
0.000750297
0.00666011
0.00693316
0.00635045
0.00663648
0.000889282
0.000957924
0.000861974
0.000931489
0.00743692
0.0071829
0.00720046
0.00693725
0.00100169
0.000934489
0.000981304
0.000913405
0.00663001
0.00638182
0.00637011
0.00611361
0.000829291
0.000760267
0.000806423
0.000735766
0.00631321
0.00631292
0.00604437
0.00604412
0.000727567
0.000727533
0.000702206
0.000702175
0.00638084
0.00662818
0.00611273
0.00636844
0.000760166
0.000829129
0.000735673
0.000806275
0.00718021
0.00743331
0.00693478
0.00719712
0.000934284
0.00100146
0.000913216
0.000981086
0.00783112
0.00759189
0.0076455
0.00739933
0.00103505
0.000969018
0.00101948
0.000952893
0.00706076
0.00682483
0.00685817
0.00661651
0.000866599
0.00080001
0.000849203
0.000781511
0.00675716
0.00675681
0.00654824
0.00654792
0.000768565
0.000768525
0.000749499
0.000749462
0.00682367
0.00705863
0.00661543
0.00685619
0.000799893
0.000866415
0.000781402
0.00084903
0.00758879
0.00782696
0.00739643
0.00764158
0.000968784
0.00103478
0.000952673
0.00101922
0.00813643
0.00790836
0.00799314
0.00775981
0.00106023
0.000995125
0.00104853
0.000982983
0.00739263
0.00716544
0.00723693
0.00700553
0.000894708
0.0008298
0.000881649
0.000815974
0.0070988
0.0070984
0.00693824
0.00693786
0.000799209
0.000799165
0.000784992
0.00078495
0.00716412
0.00739025
0.00700429
0.00723467
0.000829671
0.000894503
0.00081585
0.000881454
0.0079049
0.0081318
0.00775652
0.00798871
0.000994866
0.00105994
0.000982735
0.00104824
0.00836787
0.00814814
0.00825968
0.00803601
0.00107884
0.00101443
0.00107024
0.00100551
0.00764334
0.00742264
0.00752608
0.00730217
0.000915463
0.000851736
0.000905874
0.000841606
0.00735715
0.0073567
0.00723597
0.00723555
0.000821739
0.000821691
0.000811336
0.00081129
0.00742119
0.00764073
0.00730079
0.00752359
0.000851595
0.000915241
0.00084147
0.00090566
0.00814437
0.00836282
0.00803239
0.00825481
0.00101415
0.00107851
0.00100524
0.00106993
0.00853869
0.00832513
0.0084592
0.00824271
0.00109217
0.0010283
0.00108606
0.00102194
0.00782812
0.00761229
0.00774199
0.0075237
0.000930369
0.000867472
0.000923534
0.000860257
0.00754796
0.00754748
0.00745865
0.00745819
0.000837891
0.00083784
0.000830484
0.000830434
0.00761074
0.00782533
0.0075222
0.0077393
0.000867322
0.000930133
0.000860111
0.000923305
0.0083211
0.00853329
0.0082388
0.00845394
0.001028
0.00109183
0.00102165
0.00108573
0.00866028
0.00845122
0.00860401
0.0083928
0.00110132
0.00103784
0.00109718
0.00103351
0.0079597
0.00774755
0.00789863
0.00768455
0.000940648
0.000878331
0.000935986
0.000873403
0.00768435
0.00768384
0.00762065
0.00762015
0.000849039
0.000848986
0.000843978
0.000843925
0.00774591
0.00795676
0.00768295
0.00789576
0.000878174
0.000940401
0.00087325
0.000935744
0.00844698
0.00865459
0.00838865
0.00859843
0.00103752
0.00110096
0.00103321
0.00109682
0.00874256
0.00853672
0.00870477
0.00849736
0.0011072
0.00104399
0.00110459
0.00104125
0.00804895
0.00783959
0.00800773
0.00779685
0.000947322
0.000885403
0.000944348
0.000882246
0.00777742
0.00777689
0.00773402
0.0077335
0.000856312
0.000856256
0.000853061
0.000853007
0.00783787
0.00804589
0.00779517
0.00800473
0.00088524
0.000947065
0.000882086
0.000944096
0.0085323
0.00873664
0.00849301
0.00869891
0.00104366
0.00110683
0.00104093
0.00110422
0.00879387
0.00859029
0.00877056
0.00856584
0.00111055
0.00104752
0.00110912
0.001046
0.00810501
0.0078977
0.00807928
0.00787079
0.000951221
0.000889572
0.000949539
0.000887766
0.00783646
0.0078359
0.00780894
0.0078084
0.000860616
0.000860559
0.000858747
0.000858691
0.00789593
0.00810186
0.00786904
0.00807617
0.000889404
0.000950958
0.000887601
0.000949279
0.00858574
0.00878777
0.00856135
0.0087645
0.00104719
0.00111016
0.00104568
0.00110874
0.00882122
0.00861923
0.00880905
0.00860622
0.00111196
0.00104906
0.00111143
0.00104847
0.00813548
0.00792964
0.00812165
0.00791489
0.000953016
0.000891546
0.000952313
0.00089076
0.00786917
0.00786861
0.00785389
0.00785333
0.000862681
0.000862623
0.000861851
0.000861794
0.00792783
0.00813226
0.00791311
0.00811847
0.000891376
0.000952749
0.000890591
0.000952048
0.00861459
0.008815
0.00860162
0.00880284
0.00104873
0.00111157
0.00104814
0.00111105
0.0088297
0.00862873
0.00882599
0.00862467
0.00111194
0.00104911
0.00111205
0.0010492
0.00814585
0.00794103
0.00814154
0.00793614
0.000953232
0.000891867
0.000953255
0.00089185
0.00788124
0.00788067
0.00787588
0.00787531
0.000863058
0.000862999
0.000863017
0.000862959
0.0079392
0.00814259
0.00793432
0.0081383
0.000891696
0.000952962
0.000891679
0.000952986
0.00862404
0.00882341
0.00861999
0.00881969
0.00104877
0.00111155
0.00104886
0.00111166
0.00882459
0.00862455
0.00882765
0.00862714
0.00111082
0.00104805
0.00111148
0.00104869
0.00814217
0.00793811
0.00814446
0.00793987
0.000952309
0.000891024
0.000952893
0.000891578
0.00787884
0.00787826
0.00788019
0.00787961
0.000862256
0.000862197
0.000862791
0.000862732
0.00793627
0.00813889
0.00793804
0.00814119
0.000890852
0.000952037
0.000891405
0.000952622
0.00861982
0.00881825
0.00862243
0.00882129
0.00104771
0.00111043
0.00104835
0.00111109
0.00880871
0.0086093
0.00881664
0.00861681
0.00110888
0.00104614
0.00110991
0.00104715
0.00812692
0.00792329
0.00813427
0.0079302
0.000950486
0.000889243
0.000951458
0.000890194
0.00786443
0.00786385
0.00787096
0.00787038
0.000860496
0.000860437
0.000861435
0.000861376
0.00792144
0.00812363
0.00792835
0.00813099
0.00088907
0.000950215
0.000890021
0.000951186
0.00860457
0.00880236
0.00861208
0.00881025
0.00104579
0.00110849
0.00104681
0.00110952
0.00878474
0.00858588
0.00879645
0.00859721
0.00110631
0.00104358
0.00110764
0.00104489
0.00810324
0.00789986
0.00811453
0.00791078
0.000948003
0.000886782
0.000949285
0.000888052
0.00784132
0.00784074
0.00785191
0.00785133
0.000858048
0.000857989
0.00085931
0.000859251
0.00789801
0.00809996
0.00790893
0.00811124
0.00088661
0.000947733
0.00088788
0.000949015
0.00858116
0.0087784
0.00859248
0.00879007
0.00104324
0.00110592
0.00104455
0.00110724
0.00875437
0.00855606
0.0087691
0.0085704
0.00110324
0.0010405
0.0011048
0.00104206
0.00807298
0.00786968
0.00808736
0.00788377
0.000944996
0.000883785
0.000946527
0.000885309
0.0078114
0.00781082
0.00782518
0.0078246
0.000855057
0.000854998
0.000856576
0.000856518
0.00786784
0.00806971
0.00788192
0.00808409
0.000883613
0.000944727
0.000885137
0.000946257
0.00855137
0.00874807
0.00856569
0.00876274
0.00104016
0.00110285
0.00104172
0.00110441
0.00871876
0.00852104
0.008736
0.00853787
0.00109973
0.001037
0.0011015
0.00103876
0.00803736
0.00783403
0.00805429
0.00785072
0.000941551
0.000880341
0.000943293
0.00088208
0.00777594
0.00777537
0.00779236
0.00779179
0.000851614
0.000851556
0.00085335
0.000853292
0.00783221
0.00803412
0.00784889
0.00805104
0.000880171
0.000941284
0.000881909
0.000943025
0.00851639
0.00871251
0.00853319
0.00872968
0.00103666
0.00109935
0.00103843
0.00110112
0.00867862
0.00848158
0.00869806
0.00850055
0.00109585
0.0010331
0.00109781
0.00103506
0.00799718
0.00779372
0.00801632
0.00781266
0.000937721
0.000876505
0.000939651
0.000878436
0.00773578
0.00773522
0.00775447
0.0077539
0.000847775
0.000847718
0.000849705
0.000849648
0.00779191
0.00799397
0.00781085
0.0080131
0.000876337
0.000937457
0.000878267
0.000939386
0.00847696
0.00867244
0.00849592
0.0086918
0.00103277
0.00109547
0.00103473
0.00109742
0.00863437
0.0084381
0.00865583
0.00845904
0.0010916
0.00102885
0.00109374
0.00103099
0.00795289
0.00774922
0.00797404
0.00777021
0.000933533
0.000872306
0.00093564
0.000874416
0.0076914
0.00769084
0.00771215
0.00771159
0.00084357
0.000843514
0.000845681
0.000845624
0.00774743
0.00794971
0.00776842
0.00797085
0.00087214
0.000933272
0.000874249
0.000935378
0.00843354
0.00862826
0.00845445
0.00864964
0.00102852
0.00109123
0.00103066
0.00109336
0.00858623
0.00839083
0.00860962
0.00841366
0.00108701
0.00102425
0.00108932
0.00102656
0.00790471
0.00770075
0.0079278
0.00772371
0.000929
0.000867756
0.00093128
0.000870042
0.00764302
0.00764247
0.00766576
0.0076652
0.000839011
0.000838955
0.000841299
0.000841243
0.00769899
0.00790157
0.00772194
0.00792464
0.000867592
0.000928742
0.000869877
0.00093102
0.00838633
0.00858019
0.00840913
0.00860351
0.00102393
0.00108664
0.00102624
0.00108895
0.00853423
0.00833982
0.00855956
0.00836453
0.00108208
0.00101931
0.00108456
0.00102179
0.00785269
0.00764838
0.00787771
0.0076733
0.000924122
0.000862856
0.000926575
0.000865318
0.00759071
0.00759017
0.00761542
0.00761487
0.000834098
0.000834043
0.000836564
0.000836509
0.00764664
0.0078496
0.00767155
0.0078746
0.000862694
0.000923868
0.000865155
0.000926319
0.00833538
0.00852828
0.00836006
0.00855352
0.00101899
0.00108171
0.00102147
0.00108419
0.00847831
0.00828499
0.00850562
0.00831164
0.0010768
0.00101401
0.00107945
0.00101667
0.00779676
0.00759202
0.00782376
0.00761896
0.000918893
0.000857597
0.000921523
0.000860241
0.00753439
0.00753385
0.00756113
0.00756059
0.000828823
0.000828769
0.000831472
0.000831417
0.0075903
0.00779371
0.00761723
0.00782069
0.000857437
0.000918642
0.000860079
0.000921271
0.00828062
0.00847245
0.00830723
0.00849967
0.00101369
0.00107643
0.00101635
0.00107909
0.0084183
0.00822618
0.00844769
0.00825486
0.00107115
0.00100834
0.00107399
0.00101119
0.00773671
0.00753145
0.00776581
0.00756054
0.000913298
0.000851965
0.000916114
0.000854798
0.00747385
0.00747332
0.00750274
0.00750221
0.00082317
0.000823117
0.000826012
0.000825958
0.00752976
0.00773371
0.00755884
0.00776279
0.000851807
0.000913051
0.000854639
0.000915865
0.00822187
0.00841254
0.00825052
0.00844185
0.00100803
0.00107079
0.00101088
0.00107363
0.00835393
0.00816305
0.00838556
0.00819395
0.00106512
0.00100229
0.00106816
0.00100533
0.00767222
0.00746635
0.00770361
0.00749777
0.000907315
0.000845935
0.000910329
0.000848971
0.00740874
0.00740822
0.00743998
0.00743946
0.000817115
0.000817062
0.000820162
0.000820109
0.00746469
0.00766927
0.0074961
0.00770064
0.00084578
0.000907072
0.000848815
0.000910084
0.00815882
0.00834827
0.00818968
0.00837982
0.00100199
0.00106477
0.00100503
0.0010678
0.00828476
0.00809514
0.00831886
0.00812851
0.00105869
0.000995821
0.00106194
0.00099908
0.0076028
0.00739621
0.00763673
0.00743024
0.000900911
0.000839473
0.000904141
0.000842731
0.00733858
0.00733807
0.00737243
0.00737192
0.000810621
0.000810569
0.000813894
0.000813841
0.00739458
0.00759991
0.0074286
0.00763382
0.000839321
0.000900673
0.000842577
0.000903901
0.008091
0.00827922
0.00812433
0.00831323
0.000995523
0.00105835
0.000998778
0.00106159
0.00821026
0.00802187
0.00824712
0.00805803
0.00105183
0.000988896
0.00105529
0.000992388
0.00752782
0.00732038
0.00756464
0.00735737
0.000894042
0.00083253
0.000897512
0.000836036
0.0072627
0.00726221
0.00729953
0.00729903
0.00080364
0.000803589
0.000807164
0.000807112
0.00731879
0.00752499
0.00735576
0.00756178
0.000832381
0.000893809
0.000835885
0.000897276
0.00801782
0.00820485
0.00805393
0.00824161
0.000988604
0.00105149
0.000992093
0.00105495
0.00812974
0.00794257
0.00816973
0.00798187
0.00104447
0.000981485
0.00104819
0.000985226
0.00744648
0.00723801
0.00748662
0.00727841
0.000886651
0.00082504
0.000890391
0.00082883
0.00718024
0.00717975
0.00722051
0.00722002
0.0007961
0.000796051
0.000799914
0.000799864
0.00723645
0.00744372
0.00727684
0.00748383
0.000824894
0.000886423
0.000828683
0.000890161
0.00793862
0.00812447
0.00797786
0.00816435
0.000981199
0.00104415
0.000984938
0.00104786
0.00804217
0.00785608
0.00808586
0.00789916
0.00103656
0.000973497
0.00104057
0.000977541
0.00735762
0.0071479
0.00740172
0.00719237
0.000878649
0.000816909
0.000882708
0.000821034
0.00709001
0.00708954
0.00713436
0.00713388
0.000787908
0.00078786
0.000792063
0.000792014
0.00714639
0.00735494
0.00719084
0.007399
0.000816767
0.000878427
0.00082089
0.000882483
0.00785223
0.00803705
0.00789526
0.00808063
0.000973219
0.00103624
0.00097726
0.00104024
0.00794625
0.00776096
0.00799432
0.00780857
0.001028
0.000964825
0.00103234
0.000969227
0.00725978
0.0070486
0.00730859
0.0070979
0.000869921
0.000808017
0.00087436
0.000812541
0.00699056
0.0069901
0.00703975
0.00703929
0.000778938
0.000778891
0.000783501
0.000783453
0.00704713
0.00725717
0.00709641
0.00730595
0.000807879
0.000869705
0.000812401
0.000874141
0.00775724
0.00794129
0.00780479
0.00798924
0.000964556
0.00102769
0.000968953
0.00103203
0.00784034
0.00765554
0.00789366
0.00770857
0.00101865
0.000955343
0.00102341
0.000960168
0.00715117
0.00693827
0.00720565
0.00699337
0.000860322
0.000798206
0.000865218
0.000803212
0.00688005
0.00687961
0.00693506
0.00693462
0.000769028
0.000768983
0.000774084
0.000774038
0.00693686
0.00714866
0.00699193
0.00720309
0.000798073
0.000860114
0.000803076
0.000865006
0.00765195
0.00783557
0.00770491
0.00788876
0.000955082
0.00101836
0.000959903
0.0010231
0.00772238
0.00753771
0.00778205
0.00759727
0.00100837
0.000944888
0.00101362
0.000950223
0.00702962
0.00681467
0.00709091
0.00687676
0.000849669
0.000787277
0.000855118
0.000792871
0.00675624
0.00675583
0.00681826
0.00681784
0.00075797
0.000757927
0.00076363
0.000763586
0.00681332
0.00702722
0.00687538
0.00708846
0.000787149
0.000849469
0.00079274
0.000854914
0.00753427
0.00771781
0.00759375
0.00777734
0.000944639
0.00100809
0.000949968
0.00101333
0.00758969
0.00740485
0.00765714
0.00747233
0.000996947
0.000933265
0.0010028
0.000939212
0.00689243
0.006675
0.00696196
0.00674557
0.000837729
0.000774973
0.000843856
0.000781292
0.00661633
0.00661594
0.00668684
0.00668644
0.000745497
0.000745456
0.000751904
0.000751862
0.00667374
0.00689015
0.00674426
0.00695962
0.000774851
0.000837539
0.000781167
0.000843661
0.00740159
0.00758534
0.00746897
0.00765265
0.000933027
0.000996675
0.000938968
0.00100252
0.00743887
0.00725365
0.00751588
0.0073308
0.000984122
0.000920242
0.000990705
0.000926919
0.00673613
0.00651571
0.00681575
0.00659664
0.000824201
0.00076095
0.000831166
0.00076818
0.0064568
0.00645644
0.00653766
0.00653729
0.000731247
0.000731208
0.000738596
0.000738556
0.00651453
0.006734
0.00659542
0.00681354
0.000760836
0.000824022
0.000768062
0.000830981
0.00725059
0.00743478
0.00732763
0.00751163
0.000920018
0.000983866
0.000926688
0.000990439
0.00726643
0.00708019
0.00735465
0.00716906
0.000969709
0.000905607
0.000977096
0.000913117
0.00655599
0.00633229
0.0066483
0.00642596
0.00080864
0.000744703
0.000816695
0.000753125
0.00627365
0.00627333
0.00636688
0.00636654
0.000714718
0.000714683
0.000723281
0.000723244
0.00633123
0.00655404
0.00642484
0.00664626
0.000744598
0.000808475
0.000753015
0.000816523
0.00707737
0.00726264
0.00716612
0.00735068
0.000905399
0.000969471
0.000912901
0.000976848
0.00707438
0.0068777
0.00717111
0.00698245
0.000954235
0.00088889
0.000961966
0.000897569
0.00634446
0.00612066
0.0064537
0.00622876
0.000790015
0.000725388
0.000799811
0.000735478
0.00606483
0.00606455
0.00617082
0.00617053
0.000695277
0.000695245
0.000705375
0.000705342
0.00611974
0.00634275
0.00622777
0.00645187
0.000725295
0.000789866
0.000735378
0.000799653
0.00687519
0.00707096
0.00697978
0.00716748
0.000888702
0.000954019
0.00089737
0.000961737
0.00690481
0.00661224
0.0069807
0.00675754
0.000940051
0.000862645
0.00094708
0.000878432
0.00609606
0.00588945
0.00622289
0.00600428
0.000764966
0.000702007
0.00077864
0.0007142
0.00584112
0.0058409
0.00595165
0.00595141
0.000672738
0.000672711
0.000684321
0.000684292
0.00588868
0.00609461
0.00600344
0.00622131
0.000701925
0.000764836
0.000714112
0.0007785
0.00661011
0.00690186
0.00675522
0.00697748
0.000862481
0.000939861
0.000878255
0.000946876
0.00500082
0.00445875
0.00324096
0.00285714
0.00423466
0.00374968
0.00264966
0.00233305
0.00335688
0.0024807
0.00180961
0.000896727
0.00271172
0.00187676
0.00138013
0.000550337
0.00196723
0.00196792
0.000387819
0.000388141
0.0012598
0.00126044
0.000283519
0.000283634
0.00248142
0.00335712
0.000897977
0.00181019
0.00187766
0.00271207
0.000550854
0.00138068
0.00445841
0.00499984
0.00285717
0.00324037
0.00374955
0.00423401
0.00233318
0.00264931
0.00762319
0.00703415
0.00640578
0.00581954
0.00641024
0.00587577
0.00542374
0.00489182
0.00602246
0.00541605
0.00474566
0.00400908
0.00491038
0.00431658
0.00386848
0.00314206
0.00524089
0.00524094
0.00373627
0.00373651
0.00413721
0.00413733
0.00285437
0.00285473
0.00541586
0.00602164
0.00400933
0.0047454
0.00431661
0.00490992
0.00314247
0.00386846
0.00703264
0.00762092
0.00581868
0.00640422
0.00587476
0.00640861
0.00489129
0.00542264
0.00973619
0.00917646
0.00872312
0.00814635
0.00806366
0.00756047
0.00727796
0.00675679
0.00828975
0.00785927
0.00720038
0.00669488
0.00671845
0.00630491
0.00585595
0.00536636
0.00778326
0.00778302
0.0065804
0.0065803
0.00622997
0.00622986
0.00525286
0.00525285
0.00785827
0.00828773
0.00669428
0.00719897
0.00630432
0.00671711
0.00536606
0.00585505
0.00917348
0.00973222
0.00814412
0.00872002
0.00755837
0.00806074
0.00675525
0.0072757
0.0115354
0.0110097
0.0106709
0.0101287
0.00943723
0.0089682
0.00877996
0.00829484
0.0102149
0.00988001
0.00929204
0.00891615
0.00821665
0.00789635
0.00750239
0.00714266
0.00984466
0.00984414
0.00886437
0.00886398
0.00785843
0.00785812
0.00709017
0.00708995
0.00987824
0.0102116
0.00891477
0.00928941
0.00789521
0.00821443
0.00714179
0.0075006
0.0110052
0.0115296
0.010125
0.0106659
0.00896496
0.00943293
0.00829216
0.00877633
0.0130561
0.0125591
0.0123286
0.011818
0.0105787
0.0101383
0.010035
0.00958071
0.0118281
0.0115481
0.0110577
0.0107534
0.00944891
0.00918069
0.00886281
0.00857165
0.0115317
0.0115309
0.0107289
0.0107282
0.0091588
0.00915831
0.00854299
0.0085426
0.0115456
0.0118237
0.0107513
0.0110538
0.00917904
0.00944587
0.00857025
0.00886017
0.0125531
0.0130485
0.0118127
0.0123219
0.0101339
0.0105731
0.00957692
0.01003
0.014316
0.013842
0.0137162
0.0132313
0.0115113
0.0110942
0.0110685
0.0106404
0.0131565
0.012911
0.0125246
0.0122634
0.0104493
0.0102135
0.00997489
0.00972432
0.0129046
0.0129036
0.0122524
0.0122515
0.0101999
0.0101992
0.00970693
0.00970637
0.0129078
0.013151
0.0122605
0.0125197
0.0102113
0.0104455
0.00972243
0.00997147
0.0138346
0.0143068
0.0132245
0.0137076
0.0110889
0.0115045
0.0106355
0.0110622
0.0153383
0.0148823
0.014854
0.0143895
0.0122602
0.0118612
0.0119061
0.0114986
0.01423
0.0140075
0.0137216
0.0134883
0.0112486
0.0110345
0.0108709
0.0106466
0.0140072
0.014006
0.013485
0.0134839
0.0110259
0.0110251
0.0106355
0.0106348
0.0140037
0.0142235
0.0134848
0.0137156
0.0110319
0.0112441
0.0106443
0.0108668
0.0148735
0.0153275
0.0143813
0.0148439
0.011855
0.0122521
0.0114928
0.0118986
0.0161497
0.0157077
0.0157673
0.0153186
0.0128494
0.0124646
0.012572
0.0121805
0.01508
0.0148737
0.0146792
0.0144651
0.0118756
0.0116767
0.0115804
0.0113742
0.0148774
0.014876
0.0144667
0.0144653
0.0116716
0.0116707
0.0113672
0.0113664
0.0148692
0.0150726
0.0144609
0.0146723
0.0116738
0.0118706
0.0113714
0.0115757
0.0156978
0.0161375
0.0153092
0.0157556
0.0124575
0.0128404
0.0121739
0.0125634
0.016778
0.0163467
0.0164835
0.0160471
0.0133021
0.012928
0.01309
0.0127109
0.0157372
0.0155426
0.0154289
0.0152284
0.0123566
0.0121687
0.0121311
0.0119378
0.0155494
0.0155477
0.0152334
0.0152319
0.0121663
0.0121653
0.0119338
0.0119329
0.0155377
0.015729
0.0152237
0.015421
0.0121655
0.012351
0.0119347
0.0121258
0.0163358
0.0167645
0.0160366
0.0164705
0.0129202
0.0132921
0.0127034
0.0130805
0.017251
0.0168279
0.0170306
0.0166036
0.0136404
0.0132743
0.0134828
0.0131129
0.016232
0.016046
0.016001
0.0158106
0.0127158
0.0125361
0.0125482
0.0123643
0.016055
0.0160533
0.0158182
0.0158165
0.0125359
0.0125348
0.0123627
0.0123616
0.0160407
0.0162231
0.0158054
0.0159925
0.0125326
0.0127098
0.0123609
0.0125423
0.0168161
0.0172364
0.0165922
0.0170164
0.013266
0.0136297
0.0131048
0.0134724
0.0175949
0.017178
0.0174358
0.0170159
0.0138843
0.0135243
0.0137714
0.0134085
0.016592
0.0164125
0.016425
0.0162419
0.0129752
0.0128016
0.0128548
0.0126779
0.0164234
0.0164215
0.0162516
0.0162498
0.0128031
0.0128019
0.0126783
0.0126771
0.0164068
0.0165826
0.0162364
0.0164158
0.0127978
0.0129688
0.0126743
0.0128485
0.0171654
0.0175794
0.0170037
0.0174206
0.0135154
0.013873
0.0133999
0.0137603
0.0178339
0.0174216
0.0177243
0.0173098
0.0140521
0.0136965
0.0139751
0.0136173
0.0168429
0.0166681
0.0167273
0.0165498
0.0131541
0.012985
0.0130715
0.0128999
0.0166805
0.0166786
0.0165611
0.0165592
0.012988
0.0129868
0.0129019
0.0129007
0.0166621
0.016833
0.016544
0.0167176
0.0129811
0.0131474
0.0128961
0.0130649
0.0174084
0.0178178
0.0172969
0.0177084
0.0136872
0.0140403
0.0136082
0.0139634
0.0179893
0.0175803
0.017919
0.0175083
0.0141596
0.013807
0.0141108
0.0137567
0.0170068
0.0168355
0.016932
0.0167586
0.0132693
0.0131036
0.0132166
0.0130488
0.0168492
0.0168471
0.0167713
0.0167693
0.0131078
0.0131065
0.0130522
0.0130509
0.0168293
0.0169966
0.0167525
0.0169219
0.0130995
0.0132624
0.0130448
0.0132097
0.0175667
0.0179727
0.0174949
0.0179025
0.0137974
0.0141474
0.0137473
0.0140987
0.0180786
0.0176722
0.0180396
0.0176317
0.0142196
0.0138694
0.0141932
0.0138416
0.0171027
0.016934
0.0170597
0.0168893
0.0133351
0.0131717
0.0133054
0.0131404
0.0169487
0.0169466
0.0169031
0.016901
0.013177
0.0131757
0.0131449
0.0131436
0.0169277
0.0170923
0.016883
0.0170494
0.0131676
0.013328
0.0131363
0.0132984
0.0176583
0.0180616
0.0176179
0.0180226
0.0138596
0.0142071
0.0138319
0.0141807
0.0181181
0.0177131
0.0181016
0.0176959
0.0142436
0.0138945
0.0142333
0.0138838
0.0171456
0.0169788
0.0171275
0.0169595
0.0133621
0.0132004
0.0133507
0.0131879
0.0169942
0.0169921
0.0169742
0.0169721
0.0132066
0.0132052
0.0131933
0.013192
0.0169723
0.017135
0.0169531
0.0171169
0.0131962
0.0133549
0.0131837
0.0133435
0.017699
0.0181008
0.0176819
0.0180843
0.0138847
0.014231
0.0138739
0.0142207
0.0181196
0.0177162
0.0181213
0.0177171
0.0142405
0.0138927
0.0142434
0.013895
0.0171507
0.0169851
0.0171503
0.0169834
0.0133619
0.0132013
0.0133632
0.0132016
0.0170011
0.0169989
0.0169987
0.0169966
0.013208
0.0132067
0.0132077
0.0132063
0.0169785
0.0171399
0.0169769
0.0171397
0.0131971
0.0133546
0.0131974
0.013356
0.017702
0.0181023
0.0177029
0.0181038
0.0138827
0.0142278
0.013885
0.0142306
0.0180921
0.0176896
0.018107
0.0177039
0.0142166
0.0138694
0.0142289
0.0138813
0.0171252
0.0169603
0.0171385
0.0169727
0.0133394
0.0131795
0.0133506
0.0131899
0.0169767
0.0169745
0.0169885
0.0169864
0.0131866
0.0131853
0.0131965
0.0131951
0.0169537
0.0171144
0.0169662
0.0171278
0.0131752
0.0133321
0.0131856
0.0133433
0.0176754
0.0180747
0.0176897
0.0180895
0.0138595
0.0142038
0.0138714
0.0142161
0.018043
0.0176413
0.018068
0.0176657
0.0141771
0.0138305
0.0141967
0.0138497
0.0170774
0.016913
0.0171011
0.0169359
0.0133008
0.0131412
0.0133195
0.0131593
0.0169297
0.0169275
0.0169521
0.0169499
0.0131487
0.0131473
0.0131663
0.0131649
0.0169064
0.0170667
0.0169293
0.0170904
0.013137
0.0132935
0.013155
0.0133122
0.0176271
0.0180256
0.0176515
0.0180505
0.0138205
0.0141644
0.0138397
0.0141839
0.0179772
0.0175762
0.01801
0.0176085
0.0141256
0.0137794
0.0141509
0.0138043
0.0170126
0.0168483
0.0170443
0.0168794
0.0132497
0.0130903
0.0132743
0.0131143
0.0168652
0.0168631
0.0168958
0.0168936
0.013098
0.0130967
0.0131216
0.0131202
0.0168418
0.0170019
0.0168728
0.0170336
0.0130861
0.0132425
0.0131101
0.013267
0.017562
0.01796
0.0175943
0.0179926
0.0137695
0.014113
0.0137944
0.0141381
0.0178982
0.0174977
0.0179373
0.0175364
0.0140644
0.0137185
0.0140943
0.0137481
0.0169343
0.01677
0.0169724
0.0168075
0.0131887
0.0130293
0.013218
0.0130581
0.016787
0.0167848
0.0168241
0.0168219
0.0130371
0.0130358
0.0130655
0.0130641
0.0167635
0.0169236
0.016801
0.0169617
0.013025
0.0131815
0.0130538
0.0132108
0.0174837
0.0178811
0.0175223
0.01792
0.0137087
0.0140519
0.0137382
0.0140816
0.0178081
0.0174082
0.0178526
0.0174522
0.013995
0.0136495
0.0140289
0.013683
0.0168446
0.0166802
0.0168882
0.0167232
0.0131193
0.0129597
0.0131527
0.0129926
0.0166972
0.0166951
0.0167399
0.0167377
0.0129677
0.0129663
0.0130002
0.0129988
0.0166738
0.0168341
0.0167168
0.0168776
0.0129555
0.0131122
0.0129884
0.0131455
0.0173943
0.0177912
0.0174382
0.0178354
0.0136398
0.0139827
0.0136733
0.0140163
0.0177082
0.017309
0.0177575
0.0173577
0.0139184
0.0135732
0.0139558
0.0136103
0.0167451
0.0165804
0.0167935
0.0166283
0.0130426
0.0128827
0.0130795
0.0129192
0.0165974
0.0165953
0.016645
0.0166429
0.0128907
0.0128894
0.0129269
0.0129255
0.016574
0.0167347
0.0166219
0.0167831
0.0128785
0.0130356
0.0129151
0.0130725
0.0172952
0.0176915
0.0173439
0.0177405
0.0135636
0.0139062
0.0136006
0.0139434
0.0175993
0.0172006
0.0176531
0.0172539
0.0138349
0.0134901
0.0138757
0.0135306
0.0166364
0.0164713
0.0166894
0.0165239
0.0129589
0.0127986
0.0129993
0.0128387
0.0164883
0.0164862
0.0165405
0.0165384
0.0128066
0.0128053
0.0128463
0.012845
0.016465
0.0166262
0.0165175
0.0166791
0.0127945
0.012952
0.0128346
0.0129923
0.0171871
0.0175828
0.0172403
0.0176363
0.0134806
0.0138229
0.013521
0.0138635
0.0174815
0.0170834
0.0175397
0.0171412
0.0137448
0.0134003
0.013789
0.0134442
0.0165187
0.0163531
0.0165762
0.0164102
0.0128685
0.0127077
0.0129123
0.0127512
0.01637
0.0163679
0.0164268
0.0164247
0.0127157
0.0127144
0.0127589
0.0127576
0.0163469
0.0165086
0.016404
0.016566
0.0127037
0.0128616
0.0127472
0.0129054
0.0170701
0.0174653
0.0171277
0.0175232
0.013391
0.0137329
0.0134348
0.0137769
0.0173546
0.0169572
0.0174174
0.0170195
0.0136479
0.0133038
0.0136955
0.0133511
0.0163918
0.0162256
0.016454
0.0162875
0.0127711
0.0126097
0.0128184
0.0126568
0.0162423
0.0162403
0.0163039
0.0163019
0.0126176
0.0126164
0.0126644
0.0126631
0.0162195
0.0163819
0.0162813
0.016444
0.0126058
0.0127644
0.0126528
0.0128116
0.016944
0.0173386
0.0170063
0.0174012
0.0132946
0.0136362
0.0133418
0.0136836
0.017218
0.0168213
0.0172858
0.0168885
0.0135437
0.0132
0.013595
0.013251
0.0162552
0.0160881
0.0163223
0.0161551
0.0126664
0.0125043
0.0127175
0.0125552
0.0161047
0.0161027
0.0161714
0.0161694
0.0125121
0.0125109
0.0125627
0.0125615
0.0160821
0.0162454
0.0161491
0.0163125
0.0125004
0.0126598
0.0125513
0.0127108
0.0168084
0.0172024
0.0168755
0.0172698
0.013191
0.0135323
0.0132419
0.0135834
0.017071
0.0166748
0.0171442
0.0167475
0.0134318
0.0130884
0.0134871
0.0131434
0.0161077
0.0159398
0.0161805
0.0160124
0.0125537
0.0123907
0.0126089
0.0124459
0.0159561
0.0159541
0.0160284
0.0160265
0.0123984
0.0123972
0.0124533
0.012452
0.0159339
0.0160981
0.0160065
0.0161708
0.0123869
0.0125472
0.012442
0.0126024
0.0166622
0.0170556
0.0167348
0.0171285
0.0130796
0.0134206
0.0131345
0.0134757
0.0169121
0.0165164
0.0169914
0.0165953
0.0133112
0.0129681
0.013371
0.0130276
0.0159482
0.0157791
0.0160272
0.0158581
0.0124321
0.012268
0.0124919
0.0123279
0.015795
0.0157931
0.0158739
0.0158719
0.0122755
0.0122742
0.0123351
0.0123339
0.0157733
0.0159387
0.0158523
0.0160177
0.0122643
0.0124257
0.0123241
0.0124855
0.0165041
0.0168971
0.0165828
0.0169761
0.0129594
0.0133002
0.0130189
0.0133598
0.0167396
0.0163443
0.016826
0.0164304
0.0131807
0.0128377
0.0132456
0.0129025
0.0157746
0.0156041
0.0158609
0.0156906
0.0123001
0.0121348
0.0123653
0.0122002
0.0156196
0.0156178
0.015706
0.0157041
0.0121419
0.0121408
0.0122071
0.0122059
0.0155985
0.0157653
0.0156849
0.0158516
0.0121312
0.0122939
0.0121965
0.012359
0.0163323
0.016725
0.0164182
0.016811
0.0128293
0.01317
0.0128939
0.0132347
0.0165513
0.0161563
0.016646
0.0162507
0.0130389
0.0126959
0.0131097
0.0127667
0.0155846