/*--------------------------------*- C++ -*----------------------------------*\
  =========                 |
  \\      /  F ield         | OpenFOAM: The Open Source CFD Toolbox
   \\    /   O peration     | Website:  https://openfoam.org
    \\  /    A nd           | Version:  9
     \\/     M anipulation  |
\*---------------------------------------------------------------------------*/
FoamFile
{
    format      ascii;
    class       volVectorField;
    location    "3.4";
    object      U;
}
// * * * * * * * * * * * * * * * * * * * * * * * * * * * * * * * * * * * * * //

dimensions      [0 1 -1 0 0 0 0];

internalField   nonuniform List<vector> 
36360
(
(0.00430319 -0.125008 -0.496862)
(-0.00104022 -0.0902728 0.000219523)
(0.00467729 -0.129651 -0.499637)
(-0.0024751 -0.0827141 0.000136282)
(0.00370957 -0.144757 -0.500659)
(0.00433874 -0.0689647 -9.87952e-06)
(0.00892866 -0.155748 -0.501773)
(0.00332158 -0.0700108 -3.29464e-06)
(0.00296288 -0.0958253 -0.000143856)
(0.000870474 -0.0998041 -7.11974e-06)
(0.000906035 -0.0942655 -9.63817e-05)
(-0.00110877 -0.0982103 -4.41855e-06)
(0.00638332 -0.0950506 2.15876e-05)
(0.00446702 -0.104763 -4.14643e-06)
(0.00690429 -0.102033 -2.12171e-06)
(0.00620679 -0.108917 -7.22873e-06)
(-0.00132307 -0.101698 1.9749e-07)
(-0.00132133 -0.1017 -1.98346e-07)
(-0.00276004 -0.0996256 -2.03644e-07)
(-0.00275881 -0.0996272 2.02357e-07)
(0.00406325 -0.105668 -2.19144e-07)
(0.00406271 -0.10567 2.20424e-07)
(0.00640558 -0.108379 -1.97535e-06)
(0.00640504 -0.108381 1.97759e-06)
(0.00087165 -0.0998078 7.1259e-06)
(0.00296276 -0.0958296 0.000143881)
(-0.00110706 -0.098214 4.41988e-06)
(0.000906354 -0.0942704 9.64039e-05)
(0.00446632 -0.104766 4.15369e-06)
(0.00638202 -0.0950562 -2.15693e-05)
(0.00620601 -0.108921 7.22993e-06)
(0.00690337 -0.102038 2.12433e-06)
(-0.00103976 -0.0902746 -0.000219523)
(0.00430318 -0.125 0.496862)
(-0.00247499 -0.0827169 -0.000136278)
(0.00467724 -0.129642 0.499637)
(0.00433785 -0.0689712 9.83725e-06)
(0.00370888 -0.144739 0.500659)
(0.00331992 -0.0700157 3.2802e-06)
(0.00892794 -0.155731 0.501773)
(0.00655137 -0.121599 -0.494709)
(-0.00512307 -0.0935214 0.000150925)
(0.00584724 -0.124234 -0.495845)
(-0.00310092 -0.0915425 0.000189782)
(0.00347487 -0.138118 -0.500669)
(-0.00228066 -0.0676398 -0.000152658)
(0.003095 -0.141562 -0.500903)
(0.0010874 -0.06589 -7.38955e-05)
(0.00229606 -0.0959824 -6.30108e-05)
(0.00212499 -0.0998507 -8.48816e-06)
(0.00302027 -0.095837 -0.000105703)
(0.00208716 -0.100034 -7.75112e-06)
(0.00366641 -0.0859631 0.000180956)
(0.00279858 -0.0978252 1.15428e-06)
(0.0053567 -0.0888422 9.74577e-05)
(0.00379852 -0.100632 -2.34668e-06)
(0.00155107 -0.101785 -1.88023e-06)
(0.00155108 -0.101786 1.88485e-06)
(0.000873602 -0.10209 1.03414e-07)
(0.000874044 -0.102091 -1.01593e-07)
(0.00228646 -0.101504 -1.79289e-06)
(0.00228619 -0.101505 1.79665e-06)
(0.00278314 -0.103494 -4.68869e-07)
(0.00278295 -0.103495 4.71704e-07)
(0.00212481 -0.0998536 8.50311e-06)
(0.0022961 -0.0959855 6.30305e-05)
(0.00208729 -0.100036 7.76266e-06)
(0.00302009 -0.0958405 0.000105726)
(0.0027978 -0.097829 -1.13887e-06)
(0.0036659 -0.0859701 -0.000180903)
(0.00379769 -0.100635 2.35955e-06)
(0.00535553 -0.0888488 -9.74246e-05)
(-0.0051216 -0.0935218 -0.000150971)
(0.00655071 -0.121591 0.494711)
(-0.00309993 -0.0915433 -0.000189805)
(0.00584684 -0.124225 0.495846)
(-0.00227961 -0.0676456 0.00015253)
(0.0034738 -0.138102 0.500669)
(0.00108762 -0.0658966 7.38149e-05)
(0.00309409 -0.141545 0.500904)
(0.00714423 -0.117143 -0.492852)
(-0.007248 -0.0957518 4.84618e-05)
(0.00689962 -0.119185 -0.493711)
(-0.00642845 -0.0947735 0.000102771)
(0.0041279 -0.13063 -0.500316)
(-0.00500234 -0.0733295 -0.000329665)
(0.00382358 -0.134238 -0.500476)
(-0.00406557 -0.0702748 -0.000239384)
(0.000924811 -0.0956559 2.67641e-05)
(0.00141452 -0.0988405 1.04604e-05)
(0.00152385 -0.0958035 -1.73372e-05)
(0.00180835 -0.0993919 -1.97746e-06)
(0.00188206 -0.0829759 0.000345793)
(0.0013008 -0.0937896 2.43307e-05)
(0.00255274 -0.083949 0.000265726)
(0.00188744 -0.0954779 1.04443e-05)
(0.0012401 -0.10072 -2.09461e-06)
(0.00124012 -0.100721 2.10236e-06)
(0.00151414 -0.1013 -2.82837e-06)
(0.00151407 -0.1013 2.82753e-06)
(0.00109082 -0.0979241 -1.55995e-06)
(0.00109071 -0.0979255 1.56641e-06)
(0.00164108 -0.0994592 -2.21983e-06)
(0.00164085 -0.0994605 2.22327e-06)
(0.00141443 -0.0988429 -1.04937e-05)
(0.000925012 -0.0956583 -2.67641e-05)
(0.00180817 -0.0993944 1.98673e-06)
(0.00152406 -0.0958061 1.73567e-05)
(0.00130059 -0.0937941 -2.43058e-05)
(0.001882 -0.0829827 -0.000345697)
(0.00188697 -0.0954822 -1.04245e-05)
(0.00255256 -0.083956 -0.000265652)
(-0.00724606 -0.0957515 -4.85356e-05)
(0.00714282 -0.117135 0.492855)
(-0.00642672 -0.0947736 -0.00010284)
(0.00689855 -0.119177 0.493713)
(-0.00500047 -0.0733337 0.000329428)
(0.00412625 -0.130614 0.500317)
(-0.00406409 -0.0702799 0.000239202)
(0.00382217 -0.134222 0.500477)
(0.00751927 -0.113847 -0.491307)
(-0.00809995 -0.0973056 -6.66024e-05)
(0.00734292 -0.11538 -0.492016)
(-0.00776181 -0.0965847 -8.8883e-06)
(0.00450579 -0.124271 -0.500032)
(-0.00585676 -0.0792037 -0.000508467)
(0.00434659 -0.127312 -0.500163)
(-0.00551438 -0.0763767 -0.00042011)
(0.000235054 -0.0957767 0.000100257)
(0.000845694 -0.0980341 4.5359e-05)
(0.000505079 -0.095651 6.62425e-05)
(0.00108989 -0.0983782 2.69307e-05)
(0.00119219 -0.0829794 0.000482444)
(0.000699299 -0.0918612 6.12523e-05)
(0.00144674 -0.0827416 0.000418327)
(0.000939253 -0.092643 4.16892e-05)
(0.000775478 -0.0996973 2.95005e-06)
(0.000775462 -0.0996981 -2.91573e-06)
(0.000975189 -0.100168 -1.23617e-07)
(0.000975095 -0.100169 1.33582e-07)
(0.000586001 -0.0960289 3.08147e-06)
(0.000585964 -0.0960303 -3.0467e-06)
(0.000769773 -0.0968391 2.42879e-07)
(0.000769694 -0.0968406 -2.19059e-07)
(0.000845731 -0.0980361 -4.52897e-05)
(0.000235455 -0.0957785 -0.000100206)
(0.00108986 -0.0983804 -2.684e-05)
(0.000505534 -0.0956531 -6.61817e-05)
(0.000699304 -0.0918655 -6.11806e-05)
(0.00119213 -0.0829855 -0.00048228)
(0.000939189 -0.0926475 -4.16324e-05)
(0.00144672 -0.082748 -0.000418189)
(-0.00809756 -0.0973048 6.6458e-05)
(0.00751719 -0.11384 0.491311)
(-0.00775959 -0.0965842 8.75287e-06)
(0.00734113 -0.115373 0.492019)
(-0.00585431 -0.0792065 0.00050812)
(0.00450367 -0.124257 0.500032)
(-0.00551219 -0.0763802 0.000419819)
(0.00434461 -0.127297 0.500164)
(0.00780818 -0.11135 -0.489999)
(-0.00849804 -0.0984841 -0.000177804)
(0.00767073 -0.112517 -0.490593)
(-0.00832971 -0.0979362 -0.000123244)
(0.00470509 -0.119041 -0.499789)
(-0.00624712 -0.0839759 -0.000673445)
(0.00461004 -0.121521 -0.499901)
(-0.00608077 -0.0817421 -0.000593204)
(-2.86826e-05 -0.0962546 0.000151515)
(0.00053939 -0.0976713 8.44958e-05)
(7.20995e-05 -0.0959865 0.000128601)
(0.000668997 -0.0978048 6.47967e-05)
(0.000976851 -0.0841918 0.000585582)
(0.000394687 -0.0910176 0.000102971)
(0.0010523 -0.0834972 0.000538018)
(0.000527229 -0.0913409 8.19643e-05)
(0.000535967 -0.0990267 1.15186e-05)
(0.000535994 -0.0990274 -1.14729e-05)
(0.000635118 -0.0993201 6.91257e-06)
(0.000635127 -0.0993209 -6.87236e-06)
(0.000408406 -0.0948834 1.10996e-05)
(0.000408411 -0.0948848 -1.10633e-05)
(0.000477289 -0.0953948 6.78186e-06)
(0.000477277 -0.0953962 -6.73962e-06)
(0.000539457 -0.097673 -8.44055e-05)
(-2.82676e-05 -0.096256 -0.00015146)
(0.000669061 -0.0978067 -6.47219e-05)
(7.25513e-05 -0.0959881 -0.000128552)
(0.000394776 -0.0910216 -0.000102837)
(0.000976834 -0.084197 -0.000585344)
(0.000527267 -0.0913451 -8.18756e-05)
(0.00105223 -0.0835029 -0.000537828)
(-0.00849531 -0.0984831 0.000177598)
(0.00780553 -0.111344 0.490005)
(-0.00832715 -0.0979353 0.000123071)
(0.00766829 -0.112511 0.490597)
(-0.00624433 -0.0839776 0.00067296)
(0.00470253 -0.119028 0.499789)
(-0.00607814 -0.0817443 0.000592797)
(0.00460757 -0.121507 0.499902)
(0.00804426 -0.109404 -0.488892)
(-0.0087211 -0.0993442 -0.00027813)
(0.00792931 -0.11032 -0.489383)
(-0.00862164 -0.098951 -0.000229471)
(0.00483422 -0.114801 -0.499579)
(-0.00644799 -0.0875707 -0.00081819)
(0.0047681 -0.116811 -0.499674)
(-0.00635437 -0.08591 -0.000748437)
(-0.000102285 -0.096876 0.000183604)
(0.00038459 -0.0976091 0.000121953)
(-7.94238e-05 -0.09656 0.000169628)
(0.000447739 -0.0976129 0.000103605)
(0.000969496 -0.085833 0.000659316)
(0.000203609 -0.0907673 0.000143249)
(0.000950378 -0.0849888 0.000625652)
(0.000288513 -0.0908386 0.000123468)
(0.000406967 -0.0986353 2.20237e-05)
(0.000407028 -0.0986358 -2.17141e-05)
(0.000463276 -0.0988032 1.66012e-05)
(0.000463301 -0.0988038 -1.6519e-05)
(0.000322209 -0.0941132 2.09123e-05)
(0.00032231 -0.0941148 -2.08548e-05)
(0.000360214 -0.0944626 1.59399e-05)
(0.000360222 -0.0944639 -1.57593e-05)
(0.000384543 -0.0976105 -0.000121069)
(-0.000102171 -0.0968767 -0.000183442)
(0.000447757 -0.0976145 -0.000103513)
(-7.89589e-05 -0.0965614 -0.000169518)
(0.00020379 -0.0907708 -0.000142707)
(0.000969409 -0.0858368 -0.000659013)
(0.000288594 -0.0908425 -0.000123389)
(0.000950275 -0.0849936 -0.000625501)
(-0.00871815 -0.0993429 0.00027711)
(0.00804106 -0.109398 0.488898)
(-0.00861875 -0.09895 0.00022921)
(0.00792629 -0.110315 0.489389)
(-0.00644486 -0.0875714 0.000817363)
(0.00483138 -0.114789 0.49958)
(-0.00635147 -0.0859113 0.000747953)
(0.00476523 -0.116798 0.499675)
(0.00824285 -0.107841 -0.487954)
(-0.00886103 -0.0999352 -0.000364633)
(0.00814519 -0.108583 -0.488358)
(-0.00879763 -0.0996693 -0.000322402)
(0.00492652 -0.111347 -0.4994)
(-0.00657522 -0.0901818 -0.000941133)
(0.00487485 -0.112988 -0.499479)
(-0.00650962 -0.0889837 -0.000881605)
(-7.4874e-05 -0.0974719 0.000201572)
(0.0003215 -0.0977012 0.000153934)
(-9.98455e-05 -0.0971815 0.000193897)
(0.00034444 -0.0976425 0.000137915)
(0.00106658 -0.087495 0.000709823)
(8.65572e-05 -0.090841 0.000178839)
(0.00101532 -0.0866761 0.000687019)
(0.000137943 -0.0907743 0.000160244)
(0.00032835 -0.0984216 3.26698e-05)
(0.000328626 -0.0984221 -3.22011e-05)
(0.000363248 -0.0985113 2.72169e-05)
(0.000362998 -0.0985119 -2.72117e-05)
(0.00025856 -0.0935785 3.11207e-05)
(0.000258938 -0.0935795 -3.0936e-05)
(0.000289213 -0.0938216 2.62638e-05)
(0.000288967 -0.0938226 -2.5718e-05)
(0.00032123 -0.0977023 -0.000152776)
(-7.51333e-05 -0.0974727 -0.000201366)
(0.000344708 -0.0976438 -0.000138351)
(-9.86547e-05 -0.0971824 -0.000193999)
(8.65763e-05 -0.0908442 -0.000176826)
(0.00106614 -0.0874988 -0.000709726)
(0.000138228 -0.0907779 -0.000162096)
(0.00101513 -0.0866802 -0.000686857)
(-0.00885789 -0.099934 0.00036343)
(0.00823916 -0.107836 0.487961)
(-0.00879415 -0.0996682 0.000322579)
(0.00814182 -0.108578 0.488366)
(-0.0065719 -0.0901824 0.000939594)
(0.00492336 -0.111336 0.4994)
(-0.00650634 -0.0889845 0.000881923)
(0.00487172 -0.112977 0.499481)
(0.00840863 -0.106543 -0.487163)
(-0.00895473 -0.100314 -0.000437466)
(0.00832714 -0.107165 -0.487496)
(-0.00891093 -0.100148 -0.000402472)
(0.00499667 -0.108497 -0.499247)
(-0.00666859 -0.0920398 -0.00104243)
(0.00495486 -0.109857 -0.499314)
(-0.00661708 -0.0911913 -0.000993941)
(1.60925e-05 -0.0979896 0.000209868)
(0.000313636 -0.0978562 0.00017931)
(-3.24244e-05 -0.0977429 0.000206659)
(0.000312304 -0.0977752 0.000167199)
(0.00118603 -0.0889883 0.000743359)
(1.97484e-05 -0.0910809 0.000206258)
(0.00112448 -0.0882692 0.000728484)
(4.78141e-05 -0.0909475 0.000192732)
(0.000280777 -0.0983123 4.21557e-05)
(0.000280836 -0.0983127 -4.2046e-05)
(0.000301475 -0.0983578 3.75183e-05)
(0.000301429 -0.0983582 -3.73323e-05)
(0.000207443 -0.0932085 4.049e-05)
(0.000207508 -0.0932095 -4.03675e-05)
(0.000231655 -0.0933757 3.60379e-05)
(0.000231637 -0.093377 -3.57035e-05)
(0.000313683 -0.097857 -0.000179155)
(1.64675e-05 -0.09799 -0.000209821)
(0.000312373 -0.097776 -0.000167003)
(-3.19632e-05 -0.097743 -0.000206584)
(1.99743e-05 -0.0910835 -0.000206078)
(0.00118578 -0.088991 -0.000743063)
(4.80597e-05 -0.09095 -0.000192944)
(0.00112422 -0.0882718 -0.00072811)
(-0.00895093 -0.100313 0.000437115)
(0.0084048 -0.106538 0.487171)
(-0.00890734 -0.100146 0.000402116)
(0.00832329 -0.10716 0.487504)
(-0.00666493 -0.0920397 0.00104168)
(0.00499334 -0.108487 0.499248)
(-0.00661359 -0.0911913 0.000993415)
(0.00495141 -0.109846 0.499315)
(0.0085452 -0.105428 -0.486491)
(-0.00901292 -0.100522 -0.00049809)
(0.00847748 -0.105967 -0.486763)
(-0.00898603 -0.100438 -0.000469282)
(0.00504775 -0.106105 -0.499117)
(-0.00673058 -0.0933325 -0.00112537)
(0.00501423 -0.107251 -0.499172)
(-0.00669418 -0.092747 -0.00108607)
(0.000111173 -0.0983939 0.000211996)
(0.000337821 -0.098012 0.000198745)
(6.58545e-05 -0.0982081 0.000211539)
(0.000323017 -0.0979369 0.000189818)
(0.00133203 -0.0902302 0.000764308)
(-9.05606e-06 -0.0913798 0.000228051)
(0.00125873 -0.0896424 0.000755126)
(1.7109e-06 -0.0912273 0.000217928)
(0.000256752 -0.0982523 5.03324e-05)
(0.000256813 -0.0982526 -5.02283e-05)
(0.000266061 -0.0982789 4.64431e-05)
(0.000266121 -0.0982792 -4.63421e-05)
(0.00016658 -0.0929537 4.85497e-05)
(0.000166658 -0.0929546 -4.84435e-05)
(0.000185942 -0.0930689 4.47011e-05)
(0.000186014 -0.0930699 -4.45941e-05)
(0.000337831 -0.0980125 -0.000198586)
(0.000111437 -0.0983939 -0.000211965)
(0.000323037 -0.0979376 -0.000189662)
(6.61061e-05 -0.0982083 -0.000211503)
(-8.82235e-06 -0.0913819 -0.000227869)
(0.00133185 -0.0902321 -0.000764005)
(1.94685e-06 -0.0912296 -0.000217754)
(0.00125861 -0.0896446 -0.000754826)
(-0.00900884 -0.100521 0.000497694)
(0.0085411 -0.105424 0.4865)
(-0.00898212 -0.100437 0.000468904)
(0.00847337 -0.105963 0.486771)
(-0.00672668 -0.0933321 0.00112453)
(0.00504423 -0.106096 0.499118)
(-0.00669043 -0.0927467 0.00108526)
(0.00501056 -0.107242 0.499174)
(0.00865809 -0.104434 -0.485922)
(-0.0090389 -0.10058 -0.000547647)
(0.00860154 -0.104919 -0.486146)
(-0.00902792 -0.100569 -0.000524174)
(0.00508396 -0.10406 -0.499007)
(-0.00676346 -0.0941937 -0.00119214)
(0.00505709 -0.105045 -0.499053)
(-0.00674123 -0.0938101 -0.00116059)
(0.000206246 -0.0986625 0.000210294)
(0.000382734 -0.0981282 0.000212725)
(0.000158705 -0.0985444 0.000211512)
(0.00035825 -0.0980766 0.000206311)
(0.00146639 -0.0912048 0.000776351)
(-1.26595e-05 -0.0916707 0.00024406)
(0.00140331 -0.0907495 0.00077124)
(-1.31461e-05 -0.0915288 0.000236713)
(0.000253988 -0.0982025 5.6832e-05)
(0.000254042 -0.0982027 -5.67173e-05)
(0.000252867 -0.098228 5.37847e-05)
(0.000252926 -0.0982282 -5.36753e-05)
(0.000134232 -0.0927711 5.50768e-05)
(0.000134311 -0.0927718 -5.49614e-05)
(0.000149246 -0.0928554 5.20093e-05)
(0.00014933 -0.0928562 -5.1899e-05)
(0.000382727 -0.0981285 -0.000212557)
(0.00020657 -0.0986623 -0.000210269)
(0.00035825 -0.098077 -0.000206148)
(0.000158995 -0.0985443 -0.000211484)
(-1.24396e-05 -0.0916722 -0.000243866)
(0.00146606 -0.0912061 -0.000776036)
(-1.29193e-05 -0.0915306 -0.000236526)
(0.00140304 -0.0907511 -0.000770931)
(-0.00903456 -0.100579 0.000547218)
(0.00865375 -0.10443 0.485932)
(-0.00902372 -0.100567 0.000523762)
(0.00859716 -0.104915 0.486155)
(-0.00675935 -0.094193 0.00119123)
(0.00508027 -0.104052 0.499009)
(-0.00673726 -0.0938096 0.0011597)
(0.00505322 -0.105037 0.499055)
(0.00875191 -0.103517 -0.485436)
(-0.00903622 -0.100507 -0.000588527)
(0.00870408 -0.103969 -0.485615)
(-0.0090387 -0.10056 -0.000568962)
(0.00510654 -0.102274 -0.498914)
(-0.00677296 -0.0947159 -0.00124527)
(0.00508557 -0.103139 -0.498951)
(-0.00676025 -0.0944922 -0.00122023)
(0.000306099 -0.0988023 0.000206393)
(0.000442698 -0.098181 0.000222399)
(0.000256345 -0.0987483 0.000208543)
(0.000411288 -0.0981636 0.000218026)
(0.0015815 -0.0919279 0.000782117)
(2.21938e-07 -0.0919101 0.000255258)
(0.00152749 -0.0915961 0.000779864)
(-7.63707e-06 -0.0917983 0.000250191)
(0.000270871 -0.0981325 6.17556e-05)
(0.000270915 -0.0981326 -6.16312e-05)
(0.000260154 -0.0981717 5.94743e-05)
(0.000260202 -0.0981718 -5.93546e-05)
(0.000115126 -0.0926236 6.00762e-05)
(0.000115195 -0.0926241 -5.99509e-05)
(0.000123087 -0.0926944 5.77567e-05)
(0.00012316 -0.0926951 -5.76362e-05)
(0.000442676 -0.0981811 -0.000222223)
(0.000306481 -0.0988019 -0.000206374)
(0.000411272 -0.0981638 -0.000217854)
(0.000256693 -0.098748 -0.00020852)
(4.20483e-07 -0.0919112 -0.000255053)
(0.00158108 -0.0919286 -0.000781793)
(-7.42898e-06 -0.0917996 -0.000249991)
(0.00152711 -0.0915971 -0.000779544)
(-0.00903165 -0.100506 0.000588073)
(0.00874738 -0.103514 0.485447)
(-0.00903426 -0.100558 0.000568519)
(0.00869949 -0.103965 0.485625)
(-0.00676869 -0.0947149 0.0012443)
(0.00510272 -0.102267 0.498915)
(-0.0067561 -0.0944914 0.00121928)
(0.00508155 -0.103131 0.498953)
(0.00883174 -0.102642 -0.485016)
(-0.00900912 -0.100315 -0.000621573)
(0.00879029 -0.103076 -0.485164)
(-0.00902363 -0.100425 -0.000605893)
(0.00511911 -0.100681 -0.498834)
(-0.0067607 -0.0949662 -0.00128706)
(0.00510247 -0.101457 -0.498865)
(-0.0067591 -0.0948711 -0.00126742)
(0.000410386 -0.0988137 0.000201331)
(0.00051418 -0.0981531 0.000228648)
(0.000358402 -0.0988238 0.000203963)
(0.000477332 -0.0981778 0.000225877)
(0.00168192 -0.0924179 0.000783527)
(2.39768e-05 -0.0920698 0.000262625)
(0.0016349 -0.0922004 0.000783251)
(1.12057e-05 -0.0920007 0.000259357)
(0.000305386 -0.0980176 6.52969e-05)
(0.00030542 -0.0980176 -6.51643e-05)
(0.00028608 -0.0980818 6.36776e-05)
(0.000286119 -0.0980819 -6.35489e-05)
(0.000107371 -0.0924794 6.37239e-05)
(0.000107436 -0.0924798 -6.35901e-05)
(0.00011002 -0.0925524 6.20542e-05)
(0.000110086 -0.0925529 -6.19246e-05)
(0.000514146 -0.098153 -0.000228465)
(0.000410827 -0.0988131 -0.000201316)
(0.000477303 -0.0981779 -0.000225698)
(0.000358809 -0.0988233 -0.000203946)
(2.41555e-05 -0.0920705 -0.000262413)
(0.00168144 -0.0924181 -0.000783195)
(1.13921e-05 -0.0920016 -0.000259148)
(0.00163444 -0.0922009 -0.000782923)
(-0.00900436 -0.100313 0.000621098)
(0.00882707 -0.102639 0.485027)
(-0.00901897 -0.100424 0.000605429)
(0.00878552 -0.103073 0.485175)
(-0.00675628 -0.0949649 0.00128605)
(0.00511518 -0.100675 0.498836)
(-0.00675479 -0.0948699 0.00126643)
(0.00509831 -0.10145 0.498867)
(0.00890254 -0.10178 -0.484646)
(-0.00896069 -0.100008 -0.000648145)
(0.00886478 -0.102211 -0.484764)
(-0.00898486 -0.100175 -0.000635551)
(0.00512477 -0.0992236 -0.498765)
(-0.0067266 -0.094993 -0.00131782)
(0.00511025 -0.0999385 -0.49879)
(-0.00673393 -0.0950036 -0.00130331)
(0.000514119 -0.0986975 0.000195758)
(0.000593813 -0.0980322 0.000232257)
(0.000464386 -0.0987714 0.000198583)
(0.000553538 -0.0981048 0.00023072)
(0.00177035 -0.0926907 0.000781944)
(5.64042e-05 -0.0921307 0.000266958)
(0.00172905 -0.0925794 0.000783022)
(3.91803e-05 -0.0921132 0.000265141)
(0.000355718 -0.0978387 6.76911e-05)
(0.000355741 -0.0978387 -6.7551e-05)
(0.000328724 -0.0979371 6.66164e-05)
(0.000328753 -0.0979371 -6.648e-05)
(0.000109512 -0.0923097 6.62354e-05)
(0.000109579 -0.09231 -6.60945e-05)
(0.000107223 -0.0923988 6.51065e-05)
(0.000107288 -0.0923991 -6.4969e-05)
(0.000593735 -0.0980319 -0.000232069)
(0.000514426 -0.0986967 -0.000195747)
(0.000553491 -0.0981047 -0.000230536)
(0.000464815 -0.0987708 -0.00019857)
(5.65809e-05 -0.092131 -0.000266737)
(0.00176984 -0.0926904 -0.000781608)
(3.93548e-05 -0.0921137 -0.000264926)
(0.00172855 -0.0925794 -0.000782688)
(-0.0089558 -0.100006 0.000647652)
(0.00889777 -0.101777 0.484657)
(-0.00898004 -0.100174 0.000635067)
(0.00885989 -0.102208 0.484776)
(-0.00672207 -0.0949914 0.00131677)
(0.00512078 -0.0992177 0.498767)
(-0.00672948 -0.0950021 0.00130227)
(0.005106 -0.0999323 0.498792)
(0.00897115 -0.100905 -0.484319)
(-0.008894 -0.0995871 -0.000669295)
(0.0089339 -0.101346 -0.484413)
(-0.00892778 -0.0998116 -0.000659273)
(0.00513023 -0.0978568 -0.498705)
(-0.00668093 -0.0948277 -0.00134422)
(0.00511501 -0.098531 -0.498725)
(-0.00669535 -0.0949361 -0.001332)
(0.000604991 -0.0984543 0.000190132)
(0.000679734 -0.0978075 0.00023386)
(0.000559918 -0.0985916 0.000192934)
(0.000635669 -0.0979334 0.000233245)
(0.00185171 -0.0927727 0.00077834)
(9.53423e-05 -0.0920835 0.000269185)
(0.00181294 -0.0927542 0.000780335)
(7.45657e-05 -0.0921214 0.000268236)
(0.000421551 -0.0975787 6.9153e-05)
(0.000421568 -0.0975786 -6.90077e-05)
(0.000386641 -0.0977198 6.85122e-05)
(0.00038666 -0.0977197 -6.83698e-05)
(0.000121656 -0.0920898 6.78379e-05)
(0.000121725 -0.0920899 -6.76917e-05)
(0.000114275 -0.092207 6.71337e-05)
(0.000114343 -0.0922072 -6.699e-05)
(0.000679646 -0.0978071 -0.000233669)
(0.000605327 -0.0984534 -0.000190124)
(0.00063558 -0.0979331 -0.000233056)
(0.000560222 -0.0985908 -0.000192925)
(9.55155e-05 -0.0920834 -0.000268963)
(0.00185119 -0.092772 -0.000777999)
(7.47352e-05 -0.0921215 -0.000268014)
(0.00181242 -0.0927537 -0.000779997)
(-0.00888901 -0.0995857 0.000668788)
(0.00896631 -0.100902 0.484331)
(-0.00892286 -0.0998101 0.000658773)
(0.00892892 -0.101343 0.484426)
(-0.0066763 -0.0948257 0.00134315)
(0.0051262 -0.0978515 0.498707)
(-0.0066908 -0.0949343 0.00133095)
(0.0051107 -0.0985254 0.498727)
(0.00904206 -0.0999959 -0.484013)
(-0.00880733 -0.0990504 -0.000685924)
(0.00900268 -0.100456 -0.484096)
(-0.00885073 -0.0993337 -0.000678078)
(0.00513391 -0.0965426 -0.49865)
(-0.0066169 -0.0944845 -0.00136266)
(0.00511843 -0.0971959 -0.498668)
(-0.00663793 -0.0946767 -0.00135412)
(0.000703483 -0.0980832 0.000184697)
(0.00077593 -0.0974692 0.000234021)
(0.000653747 -0.098285 0.000187392)
(0.000726644 -0.097653 0.000234068)
(0.00192732 -0.0926789 0.000773502)
(0.00014029 -0.0919152 0.0002698)
(0.00189117 -0.0927477 0.00077601)
(0.000117497 -0.0920143 0.000269693)
(0.000503187 -0.0972222 6.99293e-05)
(0.000503198 -0.0972221 -6.97804e-05)
(0.000460408 -0.0974133 6.96065e-05)
(0.000460421 -0.0974132 -6.94597e-05)
(0.00014414 -0.0917966 6.87369e-05)
(0.000144209 -0.0917966 -6.85868e-05)
(0.00013154 -0.0919531 6.8364e-05)
(0.000131609 -0.0919531 -6.82157e-05)
(0.00077583 -0.0974687 -0.000233829)
(0.000703853 -0.0980822 -0.000184691)
(0.000726548 -0.0976525 -0.000233876)
(0.000654101 -0.0982841 -0.000187384)
(0.000140441 -0.0919148 -0.000269574)
(0.00192677 -0.0926778 -0.000773161)
(0.000117657 -0.0920142 -0.000269468)
(0.00189062 -0.0927468 -0.000775668)
(-0.00880228 -0.0990488 0.000685404)
(0.00903718 -0.0999935 0.484026)
(-0.00884573 -0.0993322 0.000677565)
(0.00899765 -0.100454 0.484109)
(-0.00661225 -0.0944823 0.00136156)
(0.00512984 -0.0965379 0.498653)
(-0.00663332 -0.0946746 0.00135303)
(0.0051141 -0.0971909 0.49867)
(0.00911929 -0.0990271 -0.483731)
(-0.00870157 -0.098393 -0.000698704)
(0.0090764 -0.0995198 -0.483802)
(-0.00875474 -0.0987371 -0.00069268)
(0.00513945 -0.0952411 -0.498602)
(-0.00654227 -0.0939805 -0.00137588)
(0.00512319 -0.0958919 -0.498616)
(-0.00656932 -0.0942519 -0.00136982)
(0.0008118 -0.097578 0.000179561)
(0.000883464 -0.0970066 0.000233134)
(0.000757027 -0.0978477 0.00018208)
(0.000828353 -0.097254 0.000233662)
(0.0019981 -0.0924126 0.000767887)
(0.000188974 -0.0916171 0.000269123)
(0.00196488 -0.0925665 0.000770745)
(0.000164298 -0.0917824 0.000269588)
(0.000600967 -0.0967538 7.02033e-05)
(0.000600972 -0.0967536 -7.00521e-05)
(0.00055005 -0.0970029 7.01103e-05)
(0.000550056 -0.0970027 -6.99606e-05)
(0.000176924 -0.0914108 6.90957e-05)
(0.00017699 -0.0914107 -6.89433e-05)
(0.000159403 -0.0916158 6.8973e-05)
(0.000159472 -0.0916157 -6.88216e-05)
(0.000883355 -0.0970059 -0.000232941)
(0.000812175 -0.0975768 -0.000179558)
(0.000828245 -0.0972534 -0.000233469)
(0.0007574 -0.0978466 -0.000182074)
(0.000189107 -0.0916165 -0.000268896)
(0.00199751 -0.0924111 -0.000767546)
(0.000164438 -0.0917819 -0.000269361)
(0.0019643 -0.0925652 -0.000770404)
(-0.00869649 -0.0983913 0.000698177)
(0.00911438 -0.0990249 0.483744)
(-0.00874969 -0.0987355 0.000692157)
(0.00907134 -0.0995175 0.483814)
(-0.0065376 -0.093978 0.00137477)
(0.00513537 -0.095237 0.498604)
(-0.0065647 -0.0942495 0.00136872)
(0.00511882 -0.0958875 0.498619)
(0.0092077 -0.0979791 -0.483464)
(-0.00857634 -0.0976062 -0.000708264)
(0.00915878 -0.0985143 -0.483525)
(-0.00863914 -0.098016 -0.000703786)
(0.0051499 -0.0939192 -0.498557)
(-0.00645684 -0.0933211 -0.00138479)
(0.00513091 -0.0945846 -0.498569)
(-0.0064886 -0.0936697 -0.00138079)
(0.000932257 -0.0969317 0.000174862)
(0.00100356 -0.0964086 0.000231485)
(0.00087119 -0.0972728 0.000177161)
(0.000941969 -0.096725 0.000232364)
(0.00206569 -0.0919777 0.000761868)
(0.000242202 -0.0911797 0.000267546)
(0.00203368 -0.0922157 0.000764891)
(0.000215183 -0.0914159 0.000268422)
(0.00071555 -0.0961583 7.0093e-05)
(0.000715551 -0.096158 -6.99411e-05)
(0.000656116 -0.0964726 7.01826e-05)
(0.000656119 -0.0964723 -7.00311e-05)
(0.000217371 -0.090914 6.90546e-05)
(0.000217432 -0.0909137 -6.89012e-05)
(0.000196274 -0.0911769 6.91171e-05)
(0.000196337 -0.0911767 -6.89641e-05)
(0.00100345 -0.0964078 -0.000231292)
(0.000932621 -0.0969304 -0.000174861)
(0.00094186 -0.0967243 -0.000232171)
(0.000871555 -0.0972716 -0.000177158)
(0.000242323 -0.0911788 -0.000267318)
(0.00206508 -0.0919759 -0.00076153)
(0.000215308 -0.0914151 -0.000268195)
(0.00203307 -0.0922141 -0.000764551)
(-0.00857125 -0.0976045 0.00070773)
(0.0092028 -0.0979771 0.483477)
(-0.00863407 -0.0980144 0.000703256)
(0.0091537 -0.0985122 0.483538)
(-0.00645219 -0.0933184 0.00138367)
(0.00514583 -0.0939156 0.498559)
(-0.00648399 -0.0936671 0.00137968)
(0.00512654 -0.0945807 0.498571)
(0.00931033 -0.0968299 -0.483205)
(-0.00843137 -0.0966807 -0.000715069)
(0.00925397 -0.0974183 -0.48326)
(-0.00850411 -0.0971614 -0.000711909)
(0.00516638 -0.0925448 -0.498514)
(-0.00636133 -0.0925075 -0.00139012)
(0.00514406 -0.0932402 -0.498525)
(-0.006398 -0.0929334 -0.00138783)
(0.00106605 -0.0961355 0.000170623)
(0.00113838 -0.0956638 0.000229291)
(0.000998128 -0.0965528 0.000172687)
(0.00106913 -0.0960552 0.000230419)
(0.00213281 -0.0913738 0.000755693)
(0.000300341 -0.0905926 0.000265327)
(0.00210069 -0.0916966 0.000758769)
(0.000270721 -0.090905 0.000266498)
(0.000848006 -0.0954213 6.96793e-05)
(0.000848002 -0.095421 -6.95275e-05)
(0.000779458 -0.0958083 6.99103e-05)
(0.000779456 -0.095808 -6.97583e-05)
(0.000265163 -0.090287 6.87067e-05)
(0.00026522 -0.0902867 -6.85534e-05)
(0.00024024 -0.0906173 6.89129e-05)
(0.000240299 -0.090617 -6.87595e-05)
(0.00113826 -0.0956629 -0.000229099)
(0.00106641 -0.096134 -0.000170622)
(0.00106902 -0.0960544 -0.000230226)
(0.000998485 -0.0965515 -0.000172686)
(0.00030045 -0.0905915 -0.000265101)
(0.00213217 -0.0913717 -0.000755357)
(0.000270835 -0.090904 -0.000266271)
(0.00210005 -0.0916946 -0.000758432)
(-0.0084263 -0.096679 0.000714531)
(0.00930542 -0.096828 0.483218)
(-0.00849905 -0.0971597 0.000711373)
(0.0092489 -0.0974164 0.483274)
(-0.0063567 -0.0925047 0.001389)
(0.00516232 -0.0925416 0.498517)
(-0.0063934 -0.0929306 0.00138671)
(0.0051397 -0.0932367 0.498528)
(0.00943 -0.0955583 -0.482949)
(-0.00826603 -0.0956053 -0.000719517)
(0.0093647 -0.0962105 -0.482998)
(-0.00834903 -0.0961624 -0.000717482)
(0.00519012 -0.0910884 -0.498474)
(-0.00625553 -0.0915367 -0.00139244)
(0.0051636 -0.0918284 -0.498483)
(-0.006297 -0.0920418 -0.00139159)
(0.0012148 -0.0951787 0.000166857)
(0.00128994 -0.0947589 0.000226707)
(0.0011392 -0.0956777 0.000168683)
(0.00121209 -0.095232 0.000228012)
(0.00220165 -0.0905972 0.000749513)
(0.000364287 -0.0898444 0.000262643)
(0.00216847 -0.091007 0.000752577)
(0.000331651 -0.0902389 0.000264029)
(0.000999712 -0.0945275 6.90323e-05)
(0.000999702 -0.0945271 -6.88814e-05)
(0.000921362 -0.0949948 6.9372e-05)
(0.000921354 -0.0949945 -6.92205e-05)
(0.000321111 -0.0895118 6.81194e-05)
(0.000321164 -0.0895114 -6.79671e-05)
(0.000292017 -0.0899185 6.84382e-05)
(0.000292072 -0.0899181 -6.82853e-05)
(0.00128981 -0.0947579 -0.000226516)
(0.00121515 -0.0951772 -0.000166858)
(0.00121197 -0.0952311 -0.00022782)
(0.00113955 -0.0956763 -0.000168684)
(0.000364385 -0.089843 -0.000262419)
(0.00220099 -0.0905948 -0.00074918)
(0.000331754 -0.0902376 -0.000263804)
(0.00216781 -0.0910047 -0.000752242)
(-0.008261 -0.0956035 0.000718977)
(0.00942511 -0.0955566 0.482963)
(-0.008344 -0.0961607 0.000716943)
(0.00935965 -0.0962088 0.483011)
(-0.00625095 -0.0915337 0.00139132)
(0.00518608 -0.0910856 0.498476)
(-0.00629244 -0.0920388 0.00139047)
(0.00515926 -0.0918253 0.498486)
(0.00956947 -0.0941432 -0.482698)
(-0.00807921 -0.0943664 -0.000721935)
(0.00949412 -0.0948698 -0.482744)
(-0.00817316 -0.095007 -0.000720877)
(0.00522284 -0.0895208 -0.498436)
(-0.00613944 -0.0904024 -0.00139219)
(0.00519187 -0.0903199 -0.498444)
(-0.00618623 -0.0909902 -0.00139258)
(0.00138007 -0.0940491 0.00016355)
(0.00145998 -0.0936795 0.000223836)
(0.00129597 -0.0946361 0.00016515)
(0.00137267 -0.0942417 0.000225275)
(0.00227333 -0.0896417 0.00074341)
(0.000434735 -0.0889221 0.00025961)
(0.00223855 -0.0901418 0.00074643)
(0.000398735 -0.0894053 0.000261159)
(0.00117208 -0.0934605 6.82014e-05)
(0.00117207 -0.0934601 -6.80522e-05)
(0.00108322 -0.0940165 6.86282e-05)
(0.0010832 -0.0940161 -6.84781e-05)
(0.000385786 -0.0885701 6.73405e-05)
(0.000385836 -0.0885696 -6.71901e-05)
(0.000352239 -0.0890623 6.77502e-05)
(0.00035229 -0.0890619 -6.75988e-05)
(0.00145984 -0.0936785 -0.000223648)
(0.00138041 -0.0940475 -0.000163551)
(0.00137254 -0.0942407 -0.000225085)
(0.00129631 -0.0946346 -0.000165151)
(0.00043482 -0.0889205 -0.000259388)
(0.00227265 -0.0896391 -0.000743081)
(0.000398825 -0.0894038 -0.000260936)
(0.00223788 -0.0901393 -0.000746099)
(-0.00807423 -0.0943646 0.000721395)
(0.00956462 -0.0941417 0.482712)
(-0.00816818 -0.0950052 0.000720338)
(0.00948909 -0.0948682 0.482758)
(-0.00613491 -0.0903993 0.00139108)
(0.00521883 -0.0895184 0.498438)
(-0.00618172 -0.0909871 0.00139146)
(0.00518755 -0.0903173 0.498446)
(0.00973053 -0.0925636 -0.482448)
(-0.00786939 -0.09295 -0.000722574)
(0.00964417 -0.093375 -0.48249)
(-0.00797505 -0.0936812 -0.000722373)
(0.00526504 -0.0878143 -0.498398)
(-0.00601204 -0.089096 -0.0013897)
(0.00522907 -0.0886862 -0.498406)
(-0.00606445 -0.0897711 -0.00139117)
(0.00156353 -0.0927336 0.000160667)
(0.00165005 -0.0924112 0.000220743)
(0.00147011 -0.0934152 0.000162059)
(0.00155253 -0.0930697 0.000222286)
(0.00234888 -0.0884995 0.00073741)
(0.00051234 -0.087812 0.000256296)
(0.00231203 -0.0890941 0.000740377)
(0.000472663 -0.0883909 0.000257979)
(0.00136643 -0.0922041 6.72184e-05)