/*--------------------------------*- C++ -*----------------------------------*\
  =========                 |
  \\      /  F ield         | OpenFOAM: The Open Source CFD Toolbox
   \\    /   O peration     | Website:  https://openfoam.org
    \\  /    A nd           | Version:  9
     \\/     M anipulation  |
\*---------------------------------------------------------------------------*/
FoamFile
{
    format      ascii;
    class       surfaceScalarField;
    location    "0.9";
    object      phi;
}
// * * * * * * * * * * * * * * * * * * * * * * * * * * * * * * * * * * * * * //

dimensions      [0 3 -1 0 0 0 0];

internalField   nonuniform List<scalar> 
12376
(
4.98515e-10
0.000196778
1.59281e-07
-6.6267e-12
0.000196778
1.59799e-07
4.90308e-12
0.000196777
1.59697e-07
-5.0102e-10
0.000196778
1.59806e-07
0.000196778
1.59292e-07
-4.8465e-10
0.000196601
1.77518e-07
-4.19014e-11
0.000196601
1.76718e-07
3.82246e-11
0.000196601
1.76544e-07
4.80281e-10
0.000196601
1.76724e-07
0.000196601
1.77526e-07
-3.03936e-10
0.000196358
2.43112e-07
-2.80972e-11
0.000196358
2.42942e-07
2.54691e-11
0.000196358
2.42927e-07
2.99931e-10
0.000196358
2.42948e-07
0.000196358
2.43119e-07
-1.54603e-10
0.000196007
3.51226e-07
-4.34442e-11
0.000196006
3.51472e-07
4.16031e-11
0.000196006
3.51471e-07
1.50917e-10
0.000196006
3.51477e-07
0.000196007
3.51231e-07
-1.16736e-10
0.000195518
4.89076e-07
-8.37544e-11
0.000195517
4.8921e-07
8.41319e-11
0.000195517
4.89092e-07
1.14505e-10
0.000195517
4.89212e-07
0.000195518
4.89078e-07
-8.37857e-11
0.000194868
6.50787e-07
-9.40912e-11
0.000194866
6.50848e-07
9.59063e-11
0.000194866
6.50644e-07
8.28177e-11
0.000194866
6.50848e-07
0.000194868
6.50786e-07
-4.48882e-11
0.000194034
8.33828e-07
-1.00119e-10
0.000194032
8.3391e-07
1.02863e-10
0.000194032
8.33644e-07
4.48791e-11
0.000194032
8.33908e-07
0.000194034
8.33825e-07
-3.20019e-12
0.000192998
1.03545e-06
-1.0427e-10
0.000192997
1.03558e-06
1.07752e-10
0.000192997
1.03525e-06
3.88494e-12
0.000192997
1.03557e-06
0.000192998
1.03545e-06
4.19788e-11
0.000191745
1.25372e-06
-1.06029e-10
0.000191743
1.25389e-06
1.10258e-10
0.000191743
1.2535e-06
-4.09615e-11
0.000191743
1.25389e-06
0.000191745
1.25371e-06
9.19468e-11
0.000190258
1.48692e-06
-1.04342e-10
0.000190256
1.48714e-06
1.09442e-10
0.000190256
1.48669e-06
-9.07735e-11
0.000190256
1.48714e-06
0.000190258
1.48692e-06
1.4727e-10
0.000188523
1.73479e-06
-1.07149e-10
0.000188521
1.73508e-06
1.11296e-10
0.000188521
1.73455e-06
-1.46298e-10
0.000188521
1.73508e-06
0.000188523
1.73479e-06
2.0887e-10
0.000186525
1.99783e-06
-1.11253e-10
0.000186524
1.9982e-06
1.15001e-10
0.000186524
1.99759e-06
-2.08176e-10
0.000186524
1.9982e-06
0.000186525
1.99783e-06
2.78266e-10
0.000184249
2.27502e-06
-1.13853e-10
0.000184248
2.27548e-06
1.17438e-10
0.000184249
2.27478e-06
-2.77665e-10
0.000184248
2.27548e-06
0.000184249
2.27502e-06
3.56551e-10
0.00018168
2.56859e-06
-1.15259e-10
0.00018168
2.56915e-06
1.18762e-10
0.00018168
2.56835e-06
-3.55931e-10
0.00018168
2.56915e-06
0.00018168
2.56859e-06
4.43919e-10
0.000178805
2.87501e-06
-1.15356e-10
0.000178805
2.87569e-06
1.18687e-10
0.000178805
2.87479e-06
-4.43377e-10
0.000178805
2.87569e-06
0.000178805
2.87501e-06
5.40669e-10
0.000175609
3.19507e-06
-1.14239e-10
0.000175609
3.19588e-06
1.17153e-10
0.00017561
3.19488e-06
-5.40338e-10
0.000175609
3.19588e-06
0.000175609
3.19507e-06
6.46536e-10
0.000172082
3.52636e-06
-1.11758e-10
0.000172083
3.52733e-06
1.13999e-10
0.000172083
3.52622e-06
-6.46627e-10
0.000172083
3.52733e-06
0.000172082
3.52636e-06
7.60838e-10
0.000168216
3.86532e-06
-1.07635e-10
0.000168217
3.86646e-06
1.09339e-10
0.000168218
3.86524e-06
-7.61426e-10
0.000168217
3.86646e-06
0.000168216
3.86532e-06
8.83096e-10
0.000164005
4.21023e-06
-1.01614e-10
0.000164007
4.21157e-06
1.03329e-10
0.000164008
4.21024e-06
-8.83915e-10
0.000164007
4.21157e-06
0.000164005
4.21023e-06
1.01173e-09
0.00015945
4.55447e-06
-9.34458e-11
0.000159452
4.55603e-06
9.58438e-11
0.000159453
4.55459e-06
-1.01237e-09
0.000159452
4.55603e-06
0.00015945
4.55447e-06
1.14554e-09
0.000154553
4.89544e-06
-8.31556e-11
0.000154556
4.89724e-06
8.68633e-11
0.000154557
4.8957e-06
-1.14563e-09
0.000154556
4.89724e-06
0.000154553
4.89544e-06
1.2824e-09
0.000149325
5.22712e-06
-7.09786e-11
0.000149328
5.22918e-06
7.59507e-11
0.000149329
5.22754e-06
-1.2818e-09
0.000149328
5.22918e-06
0.000149325
5.22712e-06
1.41977e-09
0.000143779
5.54374e-06
-5.71644e-11
0.000143783
5.54609e-06
6.30971e-11
0.000143785
5.54435e-06
-1.41874e-09
0.000143783
5.54609e-06
0.000143779
5.54374e-06
1.55508e-09
0.000137938
5.83995e-06
-4.19878e-11
0.000137942
5.84259e-06
4.81083e-11
0.000137944
5.84078e-06
-1.554e-09
0.000137942
5.84259e-06
0.000137938
5.83995e-06
1.68559e-09
0.000131826
6.11027e-06
-2.55879e-11
0.000131831
6.11322e-06
3.13026e-11
0.000131833
6.11134e-06
-1.68509e-09
0.000131831
6.11322e-06
0.000131826
6.11028e-06
1.80871e-09
0.000125475
6.34926e-06
-7.89889e-12
0.00012548
6.35251e-06
1.29624e-11
0.000125482
6.35057e-06
-1.80902e-09
0.00012548
6.35251e-06
0.000125475
6.34927e-06
1.92239e-09
0.00011892
6.55269e-06
1.1101e-11
0.000118926
6.55624e-06
-6.531e-12
0.000118928
6.55426e-06
-1.92339e-09
0.000118926
6.55624e-06
0.00011892
6.55269e-06
2.02478e-09
0.000112202
6.71669e-06
3.17744e-11
0.000112207
6.72053e-06
-2.64286e-11
0.000112209
6.71853e-06
-2.02595e-09
0.000112207
6.72053e-06
0.000112202
6.7167e-06
2.11446e-09
0.000105361
6.83808e-06
5.39938e-11
0.000105367
6.84217e-06
-4.67334e-11
0.000105369
6.84017e-06
-2.11478e-09
0.000105367
6.84217e-06
0.000105361
6.83808e-06
2.19063e-09
9.84431e-05
6.91622e-06
7.74018e-11
9.8449e-05
6.92055e-06
-6.75026e-11
9.84509e-05
6.91855e-06
-2.18952e-09
9.8449e-05
6.92055e-06
9.84431e-05
6.91622e-06
2.2525e-09
9.14902e-05
6.95067e-06
1.01678e-10
9.1496e-05
6.95519e-06
-8.87001e-11
9.14979e-05
6.95322e-06
-2.24951e-09
9.1496e-05
6.95519e-06
9.14902e-05
6.95067e-06
2.30007e-09
8.45448e-05
6.94311e-06
1.2588e-10
8.45504e-05
6.94779e-06
-1.1074e-10
8.45524e-05
6.94585e-06
-2.29544e-09
8.45504e-05
6.94779e-06
8.45448e-05
6.94312e-06
2.33382e-09
7.76453e-05
6.89718e-06
1.49909e-10
7.76507e-05
6.90196e-06
-1.33128e-10
7.76526e-05
6.90008e-06
-2.32779e-09
7.76507e-05
6.90197e-06
7.76453e-05
6.89719e-06
2.35456e-09
7.08254e-05
6.81764e-06
1.72657e-10
7.08304e-05
6.82248e-06
-1.56189e-10
7.08323e-05
6.82065e-06
-2.34856e-09
7.08304e-05
6.82248e-06
7.08254e-05
6.81765e-06
2.36402e-09
6.41115e-05
6.71157e-06
1.94521e-10
6.41162e-05
6.71643e-06
-1.78556e-10
6.41181e-05
6.71466e-06
-2.35904e-09
6.41162e-05
6.71643e-06
6.41115e-05
6.71158e-06
2.3647e-09
5.75219e-05
6.58727e-06
2.14858e-10
5.75264e-05
6.5921e-06
-1.99869e-10
5.75282e-05
6.59039e-06
-2.36276e-09
5.75264e-05
6.59211e-06
5.75219e-05
6.58728e-06
2.35887e-09
5.10663e-05
6.45327e-06
2.34965e-10
5.10705e-05
6.45807e-06
-2.17843e-10
5.10723e-05
6.45641e-06
-2.36252e-09
5.10705e-05
6.45807e-06
5.10663e-05
6.45328e-06
2.34461e-09
4.4746e-05
6.31798e-06
2.5314e-10
4.47499e-05
6.32277e-06
-2.30519e-10
4.47516e-05
6.32117e-06
-2.36028e-09
4.47499e-05
6.32277e-06
4.4746e-05
6.318e-06
2.31825e-09
6.18765e-06
3.85561e-05
2.68545e-10
6.19234e-06
3.85596e-05
-2.33521e-10
6.19078e-06
3.85614e-05
-2.35253e-09
6.19233e-06
3.85597e-05
6.18767e-06
3.85561e-05
4.93925e-10
0.000528273
3.8788e-07
-1.28432e-11
0.000528274
3.87414e-07
1.20383e-11
0.000528272
3.87252e-07
-4.94837e-10
0.000528274
3.87428e-07
0.000528273
3.87903e-07
-6.92044e-10
0.000527956
4.95653e-07
-2.59952e-11
0.000527955
4.94956e-07
2.48666e-11
0.000527954
4.94818e-07
6.90979e-10
0.000527955
4.9497e-07
0.000527956
4.95674e-07
-4.71329e-10
0.000527486
7.13496e-07
8.20913e-13
0.000527484
7.13174e-07
-5.09902e-13
0.000527484
7.13265e-07
4.71459e-10
0.000527484
7.13187e-07
0.000527486
7.13516e-07
-3.58168e-10
0.000526803
1.03509e-06
-2.3232e-11
0.0005268
1.03513e-06
2.57875e-11
0.0005268
1.03535e-06
3.59384e-10
0.0005268
1.03514e-06
0.000526802
1.0351e-06
-4.22791e-10
0.000525847
1.4454e-06
-3.97914e-11
0.000525844
1.44521e-06
4.43062e-11
0.000525844
1.44541e-06
4.25408e-10
0.000525844
1.44522e-06
0.000525847
1.4454e-06
-4.92399e-10
0.000524564
1.9335e-06
-4.13713e-11
0.000524561
1.93303e-06
4.67709e-11
0.000524561
1.93321e-06
4.95726e-10
0.000524561
1.93303e-06
0.000524564
1.9335e-06
-5.61343e-10
0.000522906
2.49273e-06
-4.00942e-11
0.000522903
2.49205e-06
4.5514e-11
0.000522902
2.49223e-06
5.64506e-10
0.000522903
2.49205e-06
0.000522906
2.49272e-06
-6.38345e-10
0.000520827
3.11514e-06
-3.8749e-11
0.000520823
3.11428e-06
4.36258e-11
0.000520823
3.11449e-06
6.41113e-10
0.000520823
3.11428e-06
0.000520827
3.11513e-06
-7.20818e-10
0.000518287
3.79487e-06
-3.64831e-11
0.000518283
3.79383e-06
4.07011e-11
0.000518282
3.79405e-06
7.23107e-10
0.000518283
3.79383e-06
0.000518287
3.79486e-06
-8.05723e-10
0.000515248
4.52659e-06
-3.27991e-11
0.000515244
4.52538e-06
3.64325e-11
0.000515243
4.52562e-06
8.07485e-10
0.000515244
4.52538e-06
0.000515248
4.52659e-06
-8.91738e-10
0.000511674
5.30957e-06
-2.77179e-11
0.00051167
5.30819e-06
3.08732e-11
0.000511669
5.30844e-06
8.93055e-10
0.00051167
5.30819e-06
0.000511674
5.30957e-06
-9.7754e-10
0.000507527
6.14585e-06
-2.11273e-11
0.000507523
6.14431e-06
2.37954e-11
0.000507522
6.14456e-06
9.78679e-10
0.000507523
6.14431e-06
0.000507527
6.14585e-06
-1.06102e-09
0.00050277
7.03317e-06
-1.29149e-11
0.000502766
7.03147e-06
1.52457e-11
0.000502765
7.03172e-06
1.06208e-09
0.000502766
7.03147e-06
0.00050277
7.03317e-06
-1.14195e-09
0.00049736
7.97978e-06
-3.16877e-12
0.000497356
7.97793e-06
5.26739e-12
0.000497356
7.97818e-06
1.14292e-09
0.000497356
7.97792e-06
0.00049736
7.97978e-06
-1.21736e-09
0.00049126
8.97635e-06
8.05822e-12
0.000491256
8.97436e-06
-6.1387e-12
0.000491256
8.9746e-06
1.21813e-09
0.000491256
8.97436e-06
0.00049126
8.97634e-06
-1.28692e-09
0.000484429
1.00272e-05
2.06798e-11
0.000484425
1.00251e-05
-1.89547e-11
0.000484425
1.00253e-05
1.2874e-09
0.000484425
1.00251e-05
0.000484429
1.00272e-05
-1.349e-09
0.000476829
1.1127e-05
3.47556e-11
0.000476826
1.11248e-05
-3.3316e-11
0.000476827
1.1125e-05
1.34916e-09
0.000476826
1.11248e-05
0.000476829
1.1127e-05
-1.40185e-09
0.00046843
1.22666e-05
5.03542e-11
0.000468427
1.22644e-05
-4.89785e-11
0.000468427
1.22646e-05
1.40184e-09
0.000468427
1.22644e-05
0.00046843
1.22666e-05
-1.44471e-09
0.000459198
1.3443e-05
6.76008e-11
0.000459196
1.34408e-05
-6.57539e-11
0.000459197
1.34409e-05
1.44483e-09
0.000459196
1.34408e-05
0.000459198
1.3443e-05
-1.47519e-09
0.000449117
1.46374e-05
8.63341e-11
0.000449116
1.46352e-05
-8.35211e-11
0.000449116
1.46353e-05
1.47592e-09
0.000449116
1.46352e-05
0.000449117
1.46374e-05
-1.49321e-09
0.00043817
1.58436e-05
1.06649e-10
0.00043817
1.58415e-05
-1.02191e-10
0.000438171
1.58415e-05
1.49455e-09
0.00043817
1.58415e-05
0.00043817
1.58436e-05
-1.49744e-09
0.000426355
1.70442e-05
1.27526e-10
0.000426355
1.70423e-05
-1.22191e-10
0.000426356
1.70423e-05
1.49966e-09
0.000426355
1.70423e-05
0.000426355
1.70442e-05
-1.48797e-09
0.000413678
1.82221e-05
1.49385e-10
0.000413679
1.82204e-05
-1.42878e-10
0.000413681
1.82204e-05
1.49026e-09
0.000413679
1.82204e-05
0.000413678
1.82221e-05
-1.46439e-09
0.000400158
1.93611e-05
1.7087e-10
0.00040016
1.93596e-05
-1.64693e-10
0.000400162
1.93596e-05
1.46688e-09
0.00040016
1.93597e-05
0.000400158
1.93611e-05
-1.42786e-09
0.000385826
2.04436e-05
1.92772e-10
0.000385829
2.04425e-05
-1.86662e-10
0.000385831
2.04424e-05
1.42958e-09
0.000385829
2.04425e-05
0.000385826
2.04436e-05
-1.37833e-09
0.000370725
2.14515e-05
2.14198e-10
0.00037073
2.14508e-05
-2.08954e-10
0.000370732
2.14507e-05
1.37954e-09
0.00037073
2.14508e-05
0.000370725
2.14515e-05
-1.31713e-09
0.00035491
2.23696e-05
2.35342e-10
0.000354915
2.23694e-05
-2.30768e-10
0.000354917
2.23692e-05
1.31826e-09
0.000354915
2.23694e-05
0.00035491
2.23696e-05
-1.24525e-09
0.000338445
2.3183e-05
2.57234e-10
0.000338451
2.31833e-05
-2.51332e-10
0.000338453
2.31831e-05
1.24658e-09
0.000338451
2.31833e-05
0.000338445
2.3183e-05
-1.16372e-09
0.000321406
2.38778e-05
2.78895e-10
0.000321413
2.38786e-05
-2.71173e-10
0.000321415
2.38784e-05
1.16661e-09
0.000321413
2.38786e-05
0.000321406
2.38778e-05
-1.07508e-09
0.000303876
2.44477e-05
3.00645e-10
0.000303883
2.4449e-05
-2.89793e-10
0.000303886
2.44489e-05
1.07912e-09
0.000303883
2.44491e-05
0.000303876
2.44477e-05
-9.80682e-10
0.000285942
2.48859e-05
3.21271e-10
0.000285949
2.48878e-05
-3.08304e-10
0.000285952
2.48876e-05
9.86793e-10
0.000285949
2.48878e-05
0.000285942
2.48859e-05
-8.8333e-10
0.000267694
2.51917e-05
3.41366e-10
0.000267702
2.51939e-05
-3.25719e-10
0.000267705
2.51939e-05
8.9026e-10
0.000267702
2.5194e-05
0.000267694
2.51917e-05
-7.84333e-10
0.000249222
2.53697e-05
3.59391e-10
0.00024923
2.53723e-05
-3.43337e-10
0.000249233
2.53723e-05
7.92714e-10
0.00024923
2.53723e-05
0.000249222
2.53697e-05
-6.86419e-10
0.000230614
2.5427e-05
3.76591e-10
0.000230622
2.54301e-05
-3.59876e-10
0.000230625
2.543e-05
6.94092e-10
0.000230622
2.54301e-05
0.000230614
2.5427e-05
-5.89724e-10
0.000211948
2.53776e-05
3.91222e-10
0.000211956
2.53809e-05
-3.76514e-10
0.000211959
2.53808e-05
5.98181e-10
0.000211956
2.53809e-05
0.000211948
2.53776e-05
-4.95966e-10
0.000193298
2.52379e-05
4.05636e-10
0.000193306
2.52412e-05
-3.9126e-10
0.000193309
2.52412e-05
5.02975e-10
0.000193306
2.52412e-05
0.000193298
2.52379e-05
-4.02884e-10
0.000174728
2.50239e-05
4.19887e-10
0.000174737
2.50271e-05
-4.05675e-10
0.00017474
2.50271e-05
4.10181e-10
0.000174737
2.50271e-05
0.000174728
2.50238e-05
-3.04033e-10
0.000156294
2.47524e-05
4.52433e-10
0.000156303
2.47553e-05
-4.33224e-10
0.000156306
2.47553e-05
3.08441e-10
0.000156303
2.47553e-05
0.000156294
2.47523e-05
-1.81621e-10
2.44273e-05
0.000138055
4.78191e-10
2.44296e-05
0.000138065
-4.57935e-10
2.44295e-05
0.000138069
1.84971e-10
2.44296e-05
0.000138065
2.44272e-05
0.000138055
5.33156e-10
0.000768913
6.16906e-07
-2.1158e-11
0.000768914
6.15747e-07
2.06662e-11
0.000768913
6.15442e-07
-5.33883e-10
0.000768914
6.15766e-07
0.000768913
6.16936e-07
-6.48014e-10
0.000768581
8.27882e-07
-2.49208e-11
0.000768581
8.27462e-07
2.48322e-11
0.00076858
8.27386e-07
6.47557e-10
0.000768581
8.27482e-07
0.000768581
8.27912e-07
-3.73531e-10
0.000768073
1.22251e-06
1.14558e-11
0.000768071
1.22223e-06
-9.68615e-12
0.000768071
1.22235e-06
3.74392e-10
0.000768071
1.22225e-06
0.000768073
1.22254e-06
-1.94693e-10
0.000767323
1.78459e-06
-1.37376e-11
0.000767322
1.78444e-06
1.76781e-11
0.000767322
1.78471e-06
1.96894e-10
0.000767322
1.78445e-06
0.000767323
1.78461e-06
-2.15058e-10
0.000766267
2.50244e-06
-3.1098e-11
0.000766265
2.50208e-06
3.68895e-11
0.000766264
2.50237e-06
2.18021e-10
0.000766265
2.50209e-06
0.000766267
2.50245e-06
-2.22145e-10
0.000764836
3.36485e-06
-3.26284e-11
0.000764833
3.36419e-06
3.79228e-11
0.000764833
3.36446e-06
2.25268e-10
0.000764833
3.36419e-06
0.000764835
3.36485e-06
-2.10357e-10
0.000762965
4.36307e-06
-3.12676e-11
0.000762963
4.36216e-06
3.54319e-11
0.000762963
4.36244e-06
2.1313e-10
0.000762963
4.36215e-06
0.000762965
4.36305e-06
-1.9722e-10
0.000760596
5.48444e-06
-2.92194e-11
0.000760594
5.48332e-06
3.37011e-11
0.000760594
5.4836e-06
2.00023e-10
0.000760594
5.48331e-06
0.000760596
5.48443e-06
-1.82394e-10
0.000757673
6.7187e-06
-2.74345e-11
0.00075767
6.71737e-06
3.08308e-11
0.00075767
6.71765e-06
1.84679e-10
0.00075767
6.71736e-06
0.000757673
6.71869e-06
-1.63342e-10
0.000754143
8.05599e-06
-2.52381e-11
0.000754141
8.05446e-06
2.65968e-11
0.000754141
8.05474e-06
1.64699e-10
0.000754141
8.05445e-06
0.000754143
8.05598e-06
-1.39189e-10
0.000749958
9.49469e-06
-2.23555e-11
0.000749956
9.49296e-06
2.12482e-11
0.000749956
9.49322e-06
1.39454e-10
0.000749956
9.49296e-06
0.000749958
9.49468e-06
-1.08328e-10
0.000745066
1.10388e-05
-1.63868e-11
0.000745063
1.10369e-05
1.54401e-11
0.000745063
1.10372e-05
1.08355e-10
0.000745063
1.10369e-05
0.000745066
1.10388e-05
-6.9549e-11
0.000739413
1.26855e-05
-8.9541e-12
0.000739411
1.26834e-05
9.3116e-12
0.000739412
1.26836e-05
6.99268e-11
0.000739411
1.26834e-05
0.000739413
1.26855e-05
-2.19632e-11
0.000732942
1.44514e-05
-1.75355e-13
0.00073294
1.44492e-05
1.539e-12
0.00073294
1.44493e-05
2.26875e-11
0.00073294
1.44492e-05
0.000732942
1.44514e-05
3.54643e-11
0.000725596
1.63223e-05
8.33647e-12
0.000725595
1.63199e-05
-7.62656e-12
0.000725595
1.632e-05
-3.49839e-11
0.000725595
1.63199e-05
0.000725596
1.63223e-05
1.03308e-10
0.000717314
1.83089e-05
1.7462e-11
0.000717313
1.83065e-05
-1.93068e-11
0.000717314
1.83065e-05
-1.03885e-10
0.000717313
1.83065e-05
0.000717314
1.83089e-05
1.82595e-10
0.000708036
2.04049e-05
2.87425e-11
0.000708036
2.04024e-05
-3.16134e-11
0.000708037
2.04023e-05
-1.83677e-10
0.000708036
2.04024e-05
0.000708036
2.04049e-05
2.73466e-10
0.000697705
2.25973e-05
4.18181e-11
0.000697706
2.25949e-05
-4.52277e-11
0.000697707
2.25947e-05
-2.74689e-10
0.000697706
2.25949e-05
0.000697705
2.25973e-05
3.7592e-10
0.000686263
2.48843e-05
5.62165e-11
0.000686265
2.4882e-05
-6.00298e-11
0.000686266
2.48817e-05
-3.76846e-10
0.000686265
2.4882e-05
0.000686263
2.48843e-05
4.90679e-10
0.000673665
2.7235e-05
7.75224e-11
0.000673668
2.72328e-05
-7.18268e-11
0.000673669
2.72323e-05
-4.88277e-10
0.000673668
2.72328e-05
0.000673665
2.7235e-05
6.12728e-10
0.000659867
2.96416e-05
8.97689e-11
0.00065987
2.96396e-05
-9.3548e-11
0.000659872
2.96391e-05
-6.12268e-10
0.00065987
2.96396e-05
0.000659867
2.96416e-05
7.47517e-10
0.000644835
3.20752e-05
1.1914e-10
0.000644839
3.20737e-05
-1.02221e-10
0.000644841
3.2073e-05
-7.40886e-10
0.000644839
3.20737e-05
0.000644835
3.20752e-05
8.82811e-10
0.000628549
3.45069e-05
1.27492e-10
0.000628555
3.45058e-05
-1.31724e-10
0.000628557
3.4505e-05
-8.81743e-10
0.000628555
3.45058e-05
0.000628549
3.45069e-05
1.02803e-09
0.000611001
3.69081e-05
1.58146e-10
0.000611007
3.69076e-05
-1.42235e-10
0.00061101
3.69067e-05
-1.02186e-09
0.000611007
3.69076e-05
0.000611001
3.69081e-05
1.16879e-09
0.000592196
3.92472e-05
1.68095e-10
0.000592204
3.92474e-05
-1.71979e-10
0.000592206
3.92464e-05
-1.16869e-09
0.000592204
3.92474e-05
0.000592196
3.92472e-05
1.31133e-09
0.000572157
4.14897e-05
1.87628e-10
0.000572165
4.14907e-05
-1.92294e-10
0.000572168
4.14896e-05
-1.31182e-09
0.000572165
4.14907e-05
0.000572157
4.14897e-05
1.45269e-09
0.000550919
4.36054e-05
2.16963e-10
0.000550928
4.36072e-05
-2.03462e-10
0.000550932
4.36061e-05
-1.44819e-09
0.000550928
4.36072e-05
0.000550919
4.36054e-05
1.58245e-09
0.000528538
4.55629e-05
2.25346e-10
0.000528547
4.55656e-05
-2.31456e-10
0.000528551
4.55644e-05
-1.58273e-09
0.000528547
4.55656e-05
0.000528538
4.55629e-05
1.70903e-09
0.000505083
4.73305e-05
2.57429e-10
0.000505093
4.73341e-05
-2.36417e-10
0.000505097
4.73329e-05
-1.7022e-09
0.000505093
4.73341e-05
0.000505083
4.73305e-05
1.81832e-09
0.000480639
4.88901e-05
2.61088e-10
0.000480649
4.88946e-05
-2.68315e-10
0.000480653
4.88933e-05
-1.81762e-09
0.000480649
4.88946e-05
0.000480639
4.88901e-05
1.92259e-09
0.000455303
5.02198e-05
2.96875e-10
0.000455314
5.02252e-05
-2.63389e-10
0.000455317
5.0224e-05
-1.91194e-09
0.000455314
5.02252e-05
0.000455303
5.02198e-05
2.0032e-09
0.000429185
5.13084e-05
2.88672e-10
0.000429195
5.13145e-05
-3.03603e-10
0.000429198
5.13133e-05
-2.00278e-09
0.000429195
5.13145e-05
0.000429185
5.13084e-05
2.08158e-09
0.000402399
5.21535e-05
3.33095e-10
0.000402409
5.21603e-05
-2.84866e-10
0.000402412
5.21592e-05
-2.06764e-09
0.000402409
5.21603e-05
0.000402399
5.21535e-05
2.1308e-09
0.000375068
5.27561e-05
3.08009e-10
0.000375077
5.27634e-05
-3.3676e-10
0.00037508
5.27623e-05
-2.13366e-09
0.000375077
5.27634e-05
0.000375068
5.27561e-05
2.18377e-09
0.000347314
5.3129e-05
3.63715e-10
0.000347323
5.31367e-05
-3.03256e-10
0.000347326
5.31356e-05
-2.16871e-09
0.000347323
5.31367e-05
0.000347314
5.3129e-05
2.20517e-09
0.00031926
5.32898e-05
3.21322e-10
0.000319269
5.32977e-05
-3.65727e-10
0.000319272
5.32967e-05
-2.21105e-09
0.000319268
5.32977e-05
0.00031926
5.32898e-05
2.23626e-09
0.000291026
5.32554e-05
3.87275e-10
0.000291034
5.32634e-05
-3.17788e-10
0.000291037
5.32623e-05
-2.21986e-09
0.000291034
5.32634e-05
0.000291026
5.32554e-05
2.22998e-09
0.00026273
5.30463e-05
3.27896e-10
0.000262737
5.30542e-05
-3.90115e-10
0.00026274
5.30531e-05
-2.23744e-09
0.000262737
5.30542e-05
0.00026273
5.30463e-05
2.2239e-09
5.26646e-05
0.000234491
3.84289e-10
5.26721e-05
0.000234497
-3.36859e-10
5.2671e-05
0.000234499
-2.20711e-09
5.26721e-05
0.000234497
5.26646e-05
0.000234491
4.95596e-10
0.000919788
8.24821e-07
-2.63055e-11
0.000919789
8.22985e-07
2.60894e-11
0.000919788
8.2252e-07
-4.96334e-10
0.000919789
8.23004e-07
0.000919788
8.24853e-07
-6.40795e-10
0.000919491
1.12543e-06
-2.96885e-11
0.000919491
1.12526e-06
3.0335e-11
0.00091949
1.12525e-06
6.40597e-10
0.00091949
1.12528e-06
0.000919491
1.12546e-06
-3.79692e-10
0.000919031
1.68294e-06
9.63158e-12
0.00091903
1.68279e-06
-7.0706e-12
0.000919029
1.68299e-06
3.80836e-10
0.00091903
1.68281e-06
0.000919031
1.68297e-06
-1.9742e-10
0.000918348
2.46827e-06
-1.63203e-11
0.000918346
2.46793e-06
2.08187e-11
0.000918346
2.46826e-06
1.9985e-10
0.000918346
2.46794e-06
0.000918348
2.46829e-06
-2.35924e-10
0.000917377
3.4737e-06
-3.56613e-11
0.000917375
3.47311e-06
4.27832e-11
0.000917374
3.4735e-06
2.39545e-10
0.000917375
3.47312e-06
0.000917377
3.47371e-06
-2.65813e-10
0.00091605
4.69135e-06
-4.00207e-11
0.000916048
4.69045e-06
4.82234e-11
0.000916048
4.69085e-06
2.7025e-10
0.000916048
4.69044e-06
0.00091605
4.69134e-06
-2.75697e-10
0.0009143
6.11339e-06
-4.16408e-11
0.000914298
6.11219e-06
4.91316e-11
0.000914298
6.1126e-06
2.79896e-10
0.000914298
6.11218e-06
0.0009143
6.11337e-06
-2.8808e-10
0.000912061
7.72442e-06
-4.45007e-11
0.000912058
7.72294e-06
5.02149e-11
0.000912058
7.72337e-06
2.91534e-10
0.000912058
7.72293e-06
0.000912061
7.7244e-06
-3.03053e-10
0.000909269
9.51064e-06
-4.75622e-11
0.000909266
9.50888e-06
5.12611e-11
0.000909266
9.50931e-06
3.05597e-10
0.000909266
9.50887e-06
0.000909269
9.51062e-06
-3.17734e-10
0.000905868
1.14578e-05
-4.98413e-11
0.000905865
1.14557e-05
5.21441e-11
0.000905865
1.14562e-05
3.19487e-10
0.000905865
1.14557e-05
0.000905868
1.14577e-05
-3.32285e-10
0.0009018
1.35631e-05
-5.25186e-11
0.000901797
1.35608e-05
5.19347e-11
0.000901797
1.35612e-05
3.32745e-10
0.000901797
1.35608e-05
0.0009018
1.35631e-05
-3.45357e-10
0.000897006
1.58328e-05
-5.20948e-11
0.000897003
1.58302e-05
5.36269e-11
0.000897003
1.58306e-05
3.46117e-10
0.000897003
1.58302e-05
0.000897006
1.58327e-05
-3.57684e-10
0.000891428
1.82639e-05
-5.4361e-11
0.000891425
1.82611e-05
5.16636e-11
0.000891425
1.82614e-05
3.56973e-10
0.000891425
1.82611e-05
0.000891428
1.82639e-05
-3.66721e-10
0.000884997
2.0883e-05
-5.15693e-11
0.000884994
2.088e-05
5.12807e-11
0.000884994
2.08803e-05
3.66688e-10
0.000884994
2.088e-05
0.000884997
2.0883e-05
-3.71503e-10
0.000877647
2.36728e-05
-4.83019e-11
0.000877644
2.36696e-05
5.00651e-11
0.000877644
2.36698e-05
3.72429e-10
0.000877644
2.36696e-05
0.000877647
2.36728e-05
-3.72046e-10
0.000869303
2.66529e-05
-4.29407e-11
0.000869301
2.66494e-05
4.50878e-11
0.000869301
2.66495e-05
3.7331e-10
0.000869301
2.66494e-05
0.000869303
2.66528e-05
-3.67015e-10
0.00085989
2.98184e-05
-3.58069e-11
0.000859888
2.98149e-05
3.89545e-11
0.000859889
2.98149e-05
3.68844e-10
0.000859888
2.98149e-05
0.00085989
2.98184e-05
-3.55499e-10
0.000849332
3.31558e-05
-2.68698e-11
0.000849331
3.31522e-05
3.14482e-11
0.000849331
3.31521e-05
3.58117e-10
0.00084933
3.31522e-05
0.000849332
3.31558e-05
-3.37112e-10
0.000837549
3.66676e-05
-1.62378e-11
0.000837548
3.6664e-05
2.22994e-11
0.000837549
3.66638e-05
3.40626e-10
0.000837548
3.6664e-05
0.000837549
3.66676e-05
-3.11e-10
0.00082447
4.03139e-05
-4.19954e-12
0.00082447
4.03104e-05
1.12193e-11
0.000824471
4.031e-05
3.15449e-10
0.00082447
4.03104e-05
0.00082447
4.03139e-05
-2.77258e-10
0.000810024
4.40886e-05
9.42587e-12
0.000810024
4.40853e-05
-1.80983e-12
0.000810026
4.40848e-05
2.8196e-10
0.000810024
4.40853e-05
0.000810024
4.40886e-05
-2.35415e-10
0.000794145
4.79543e-05
2.37176e-11
0.000794146
4.79513e-05
-1.71582e-11
0.000794148
4.79507e-05
2.40377e-10
0.000794146
4.79513e-05
0.000794145
4.79543e-05
-1.86057e-10
0.00077678
5.18722e-05
3.9449e-11
0.000776782
5.18697e-05
-3.40127e-11
0.000776784
5.1869e-05
1.90134e-10
0.000776782
5.18697e-05
0.00077678
5.18722e-05
-1.28947e-10
0.000757885
5.58034e-05
5.55602e-11
0.000757888
5.58016e-05
-5.25625e-11
0.00075789
5.58008e-05
1.32585e-10
0.000757888
5.58016e-05
0.000757884
5.58034e-05
-6.55454e-11
0.000737429
5.97032e-05
7.59681e-11
0.000737433
5.97022e-05
-7.16281e-11
0.000737435
5.97012e-05
6.82807e-11
0.000737433
5.97022e-05
0.000737429
5.97032e-05
4.17915e-12
0.000715398
6.35203e-05
1.08993e-10
0.000715404
6.35202e-05
-1.04604e-10
0.000715406
6.35191e-05
-1.56921e-12
0.000715404
6.35202e-05
0.000715398
6.35203e-05
7.82279e-11
0.000691795
6.72082e-05
1.39008e-10
0.000691802
6.72091e-05
-1.36755e-10
0.000691804
6.7208e-05
-7.56421e-11
0.000691802
6.72091e-05
0.000691795
6.72082e-05
1.55082e-10
0.000666642
7.0716e-05
1.68876e-10
0.000666649
7.0718e-05
-1.66781e-10
0.000666652
7.07169e-05
-1.52451e-10
0.000666649
7.0718e-05
0.000666642
7.0716e-05
2.33433e-10
0.000639983
7.39898e-05
1.98322e-10
0.00063999
7.3993e-05
-1.96193e-10
0.000639994
7.3992e-05
-2.29992e-10
0.00063999
7.3993e-05
0.000639983
7.39898e-05
3.10995e-10
0.000611879
7.69938e-05
2.27528e-10
0.000611887
7.69982e-05
-2.24671e-10
0.00061189
7.69972e-05
-3.07418e-10
0.000611887
7.69982e-05
0.000611878
7.69938e-05
3.86495e-10
0.000582414
7.96839e-05
2.55677e-10
0.000582423
7.96895e-05
-2.52984e-10
0.000582426
7.96885e-05
-3.82024e-10
0.000582423
7.96895e-05
0.000582414
7.96839e-05
4.57732e-10
0.000551692
8.20295e-05
2.83387e-10
0.000551701
8.20361e-05
-2.7992e-10
0.000551705
8.20353e-05
-4.53551e-10
0.000551701
8.20361e-05
0.000551692
8.20295e-05
5.24197e-10
0.000519833
8.4012e-05
3.09409e-10
0.000519842
8.40196e-05
-3.06655e-10
0.000519846
8.40188e-05
-5.19805e-10
0.000519842
8.40196e-05
0.000519833
8.4012e-05
5.83581e-10
0.000486973
8.56157e-05
3.34399e-10
0.000486982
8.5624e-05
-3.31595e-10
0.000486985
8.56234e-05
-5.80643e-10
0.000486982
8.5624e-05
0.000486973
8.56157e-05
6.36646e-10
0.000453259
8.68427e-05
3.56846e-10
0.000453267
8.68517e-05
-3.55564e-10
0.00045327
8.68511e-05
-6.33694e-10
0.000453267
8.68517e-05
0.000453259
8.68427e-05
6.81997e-10
0.000418846
8.77025e-05
3.778e-10
0.000418854
8.77118e-05
-3.77033e-10
0.000418857
8.77113e-05
-6.81131e-10
0.000418853
8.77118e-05
0.000418845
8.77025e-05
7.20958e-10
0.000383896
8.82041e-05
3.95549e-10
0.000383904
8.82136e-05
-3.97306e-10
0.000383907
8.82131e-05
-7.20565e-10
0.000383904
8.82136e-05
0.000383896
8.82041e-05
7.551e-10
0.000348575
8.83668e-05
4.12014e-10
0.000348582
8.83761e-05
-4.14236e-10
0.000348585
8.83756e-05
-7.56143e-10
0.000348582
8.83761e-05
0.000348575
8.83667e-05
7.94278e-10
8.81848e-05
0.000313054
4.22157e-10
8.81935e-05
0.000313061
-4.2618e-10
8.81929e-05
0.000313064
-7.92555e-10
8.81934e-05
0.000313061
8.81848e-05
0.000313054
4.43907e-10
0.00100257
1.00424e-06
-2.59305e-11
0.00100258
1.00184e-06
2.59375e-11
0.00100257
1.00123e-06
-4.44413e-10
0.00100258
1.00186e-06
0.00100257
1.00427e-06
-5.73332e-10
0.00100232
1.37573e-06
-2.95392e-11
0.00100232
1.37573e-06
3.08228e-11
0.00100232
1.37576e-06
5.73547e-10
0.00100232
1.37575e-06
0.00100232
1.37576e-06
-3.30419e-10
0.00100194
2.06797e-06
8.73529e-12
0.00100194
2.06801e-06
-5.58184e-12
0.00100194
2.06828e-06
3.31924e-10
0.00100194
2.06803e-06
0.00100194
2.068e-06
-1.46166e-10
0.00100137
3.04163e-06
-1.47321e-11
0.00100137
3.04122e-06
1.95769e-11
0.00100136
3.04158e-06
1.48835e-10
0.00100137
3.04123e-06
0.00100137
3.04165e-06
-1.79635e-10
0.00100055
4.29243e-06
-3.18549e-11
0.00100055
4.29172e-06
3.9511e-11
0.00100055
4.29216e-06
1.83572e-10
0.00100055
4.29172e-06
0.00100055
4.29243e-06
-2.08997e-10
0.000999422
5.81744e-06
-3.71086e-11
0.00099942
5.81642e-06
4.45056e-11
0.00099942
5.8169e-06
2.13163e-10
0.00099942
5.81641e-06
0.000999422
5.81743e-06
-2.17578e-10
0.000997924
7.61192e-06
-3.87932e-11
0.000997922
7.61057e-06
4.50522e-11
0.000997922
7.61108e-06
2.21365e-10
0.000997922
7.61055e-06
0.000997924
7.6119e-06
-2.29204e-10
0.000995989
9.65982e-06
-4.14239e-11
0.000995986
9.65813e-06
4.62023e-11
0.000995986
9.65866e-06
2.32304e-10
0.000995986
9.65812e-06
0.000995989
9.6598e-06
-2.44696e-10
0.000993555
1.19452e-05
-4.41884e-11
0.000993552
1.19432e-05
4.73133e-11
0.000993552
1.19437e-05
2.4701e-10
0.000993552
1.19432e-05
0.000993554
1.19452e-05
-2.60903e-10
0.000990562
1.44504e-05
-4.65396e-11
0.000990559
1.44481e-05
4.79974e-11
0.000990559
1.44486e-05
2.62381e-10
0.000990559
1.44481e-05
0.000990562
1.44504e-05
-2.77325e-10
0.000986953
1.71721e-05
-4.83104e-11
0.00098695
1.71694e-05
4.85411e-11
0.00098695
1.71699e-05
2.77978e-10
0.00098695
1.71694e-05
0.000986953
1.71721e-05
-2.93777e-10
0.000982668
2.01187e-05
-4.99439e-11
0.000982665
2.01157e-05
4.87944e-11
0.000982665
2.01162e-05
2.93708e-10
0.000982665
2.01157e-05
0.000982668
2.01187e-05
-3.09484e-10
0.000977644
2.32884e-05
-5.21094e-11
0.00097764
2.32851e-05
4.81107e-11
0.00097764
2.32855e-05
3.08207e-10
0.00097764
2.3285e-05
0.000977643
2.32884e-05
-3.22304e-10
0.000971809
2.67179e-05
-4.91877e-11
0.000971806
2.67142e-05
4.9761e-11
0.000971806
2.67146e-05
3.22671e-10
0.000971806
2.67142e-05
0.000971809
2.67179e-05
-3.32698e-10
0.000965093
3.0389e-05
-4.74108e-11
0.00096509
3.0385e-05
4.83185e-11
0.00096509
3.03854e-05
3.33422e-10
0.00096509
3.0385e-05
0.000965093
3.0389e-05
-3.38711e-10
0.000957415
3.43319e-05
-4.26877e-11
0.000957412
3.43276e-05
4.66337e-11
0.000957412
3.43279e-05
3.41023e-10
0.000957412
3.43276e-05
0.000957414
3.43319e-05
-3.40371e-10
0.000948687
3.85462e-05
-3.51922e-11
0.000948685
3.85417e-05
4.03067e-11
0.000948685
3.85419e-05
3.43625e-10
0.000948685
3.85417e-05
0.000948687
3.85462e-05
-3.36253e-10
0.000938823
4.30206e-05
-2.56273e-11
0.000938821
4.30159e-05
3.2134e-11
0.000938821
4.3016e-05
3.40581e-10
0.00093882
4.30159e-05
0.000938823
4.30206e-05
-3.25929e-10
0.000927725