/*--------------------------------*- C++ -*----------------------------------*\
  =========                 |
  \\      /  F ield         | OpenFOAM: The Open Source CFD Toolbox
   \\    /   O peration     | Website:  https://openfoam.org
    \\  /    A nd           | Version:  9
     \\/     M anipulation  |
\*---------------------------------------------------------------------------*/
FoamFile
{
    format      ascii;
    class       volVectorField;
    location    "0.9";
    object      U;
}
// * * * * * * * * * * * * * * * * * * * * * * * * * * * * * * * * * * * * * //

dimensions      [0 1 -1 0 0 0 0];

internalField   nonuniform List<vector> 
4545
(
(2.73697e-05 -0.0935437 -0.968205)
(2.72986e-05 -0.0935434 7.49732e-08)
(2.72627e-05 -0.0935431 -2.64316e-10)
(2.72998e-05 -0.0935434 -7.56194e-08)
(2.73715e-05 -0.0935437 0.968205)
(2.64222e-05 -0.0934336 -0.961458)
(2.58647e-05 -0.0934317 -8.19042e-08)
(2.57786e-05 -0.0934312 -5.75058e-10)
(2.58658e-05 -0.0934317 8.06499e-08)
(2.64234e-05 -0.0934336 0.961458)
(3.43536e-05 -0.0933354 -0.96087)
(3.38313e-05 -0.0933358 -5.2681e-08)
(3.37774e-05 -0.0933358 -4.19253e-10)
(3.38321e-05 -0.0933358 5.16267e-08)
(3.43543e-05 -0.0933354 0.96087)
(5.0448e-05 -0.0931997 -0.960267)
(4.98243e-05 -0.0932001 -3.28474e-08)
(4.97494e-05 -0.0932001 -8.09439e-11)
(4.98249e-05 -0.0932001 3.21702e-08)
(5.04484e-05 -0.0931997 0.960267)
(7.12946e-05 -0.0930033 -0.959659)
(7.03562e-05 -0.0930035 -2.98108e-08)
(7.0215e-05 -0.0930034 3.38538e-10)
(7.03564e-05 -0.0930035 2.97812e-08)
(7.12944e-05 -0.0930033 0.959659)
(9.58678e-05 -0.0927353 -0.959036)
(9.45747e-05 -0.0927354 -2.62382e-08)
(9.4372e-05 -0.0927354 6.89946e-10)
(9.45746e-05 -0.0927354 2.67652e-08)
(9.58672e-05 -0.0927353 0.959036)
(0.000123961 -0.0923853 -0.958402)
(0.000122288 -0.0923854 -2.12862e-08)
(0.000122025 -0.0923853 8.9171e-10)
(0.000122287 -0.0923854 2.21763e-08)
(0.00012396 -0.0923852 0.958402)
(0.000155364 -0.0919436 -0.957757)
(0.000153267 -0.0919437 -1.57094e-08)
(0.000152938 -0.0919437 9.70612e-10)
(0.000153267 -0.0919437 1.67999e-08)
(0.000155364 -0.0919436 0.957757)
(0.000189913 -0.0914021 -0.957104)
(0.000187346 -0.0914023 -9.27382e-09)
(0.000186944 -0.0914022 9.78109e-10)
(0.000187346 -0.0914022 1.04336e-08)
(0.000189913 -0.0914021 0.957104)
(0.000227553 -0.0907533 -0.956435)
(0.000224472 -0.0907535 -1.63041e-09)
(0.000223992 -0.0907535 9.11741e-10)
(0.000224472 -0.0907535 2.7559e-09)
(0.000227553 -0.0907533 0.956435)
(0.000268321 -0.0899903 -0.955755)
(0.000264683 -0.0899906 7.33697e-09)
(0.000264114 -0.0899906 7.75202e-10)
(0.000264683 -0.0899906 -6.3811e-09)
(0.000268321 -0.0899903 0.955755)
(0.000312306 -0.089106 -0.955065)
(0.000308066 -0.0891064 1.83749e-08)
(0.0003074 -0.0891064 7.14596e-10)
(0.000308066 -0.0891064 -1.75289e-08)
(0.000312307 -0.089106 0.955065)
(0.000359576 -0.0880934 -0.954358)
(0.000354686 -0.0880939 3.16604e-08)
(0.000353915 -0.088094 6.97342e-10)
(0.000354686 -0.0880939 -3.08469e-08)
(0.000359576 -0.0880934 0.954358)
(0.000410136 -0.0869454 -0.953649)
(0.000404549 -0.0869459 4.74376e-08)
(0.000403664 -0.086946 6.94778e-10)
(0.000404549 -0.0869459 -4.66207e-08)
(0.000410136 -0.0869454 0.953649)
(0.000463876 -0.0856547 -0.952917)
(0.000457546 -0.0856554 6.5952e-08)
(0.000456539 -0.0856555 6.73996e-10)
(0.000457547 -0.0856554 -6.51691e-08)
(0.000463876 -0.0856547 0.952917)
(0.000520532 -0.0842151 -0.952175)
(0.000513417 -0.084216 8.73512e-08)
(0.00051228 -0.0842162 6.01255e-10)
(0.000513417 -0.084216 -8.6682e-08)
(0.000520532 -0.0842151 0.952175)
(0.000579699 -0.0826206 -0.95142)
(0.00057176 -0.0826216 1.1177e-07)
(0.000570485 -0.0826219 4.71652e-10)
(0.000571761 -0.0826216 -1.11317e-07)
(0.0005797 -0.0826206 0.95142)
(0.000640792 -0.0808666 -0.950648)
(0.000631996 -0.0808678 1.39305e-07)
(0.000630577 -0.0808681 3.65903e-10)
(0.000631996 -0.0808678 -1.39064e-07)
(0.000640792 -0.0808666 0.950648)
(0.000703059 -0.0789498 -0.949867)
(0.000693384 -0.0789511 1.70002e-07)
(0.000691816 -0.0789515 3.75711e-10)
(0.000693384 -0.0789511 -1.69805e-07)
(0.00070306 -0.0789498 0.949867)
(0.000765581 -0.0768687 -0.949062)
(0.000755013 -0.0768702 2.03823e-07)
(0.000753292 -0.0768707 5.35724e-10)
(0.000755013 -0.0768702 -2.03429e-07)
(0.000765582 -0.0768687 0.949062)
(0.000827287 -0.0746244 -0.948244)
(0.000815824 -0.0746261 2.40547e-07)
(0.000813951 -0.0746266 8.44859e-10)
(0.000815824 -0.0746261 -2.39722e-07)
(0.000827288 -0.0746244 0.948244)
(0.00088699 -0.0722197 -0.947409)
(0.000874645 -0.0722215 2.79804e-07)
(0.000872619 -0.0722221 1.15558e-09)
(0.000874645 -0.0722215 -2.78509e-07)
(0.00088699 -0.0722197 0.947409)
(0.000943401 -0.0696603 -0.946552)
(0.0009302 -0.0696623 3.21055e-07)
(0.000928026 -0.0696629 1.40646e-09)
(0.000930201 -0.0696623 -3.19405e-07)
(0.000943401 -0.0696603 0.946552)
(0.000995185 -0.0669546 -0.945674)
(0.000981171 -0.0669568 3.63676e-07)
(0.000978854 -0.0669575 1.48e-09)
(0.000981172 -0.0669568 -3.61937e-07)
(0.000995186 -0.0669546 0.945674)
(0.00104101 -0.0641137 -0.944773)
(0.00102624 -0.0641159 4.06995e-07)
(0.00102379 -0.0641167 1.4095e-09)
(0.00102624 -0.0641159 -4.05464e-07)
(0.00104102 -0.0641137 0.944773)
(0.00107962 -0.0611511 -0.943847)
(0.00106416 -0.0611534 4.50391e-07)
(0.00106158 -0.0611543 1.2739e-09)
(0.00106416 -0.0611534 -4.49195e-07)
(0.00107962 -0.0611511 0.943847)
(0.00110986 -0.0580829 -0.942895)
(0.00109379 -0.0580852 4.93273e-07)
(0.0010911 -0.058086 1.17271e-09)
(0.00109379 -0.0580852 -4.92356e-07)
(0.00110986 -0.0580829 0.942895)
(0.00113077 -0.0549268 -0.941914)
(0.00111419 -0.0549291 5.35183e-07)
(0.00111141 -0.05493 1.39919e-09)
(0.00111419 -0.0549291 -5.34088e-07)
(0.00113077 -0.0549268 0.941914)
(0.00114168 -0.0517024 -0.9409)
(0.00112467 -0.0517047 5.75645e-07)
(0.00112181 -0.0517056 1.93838e-09)
(0.00112467 -0.0517047 -5.73791e-07)
(0.00114168 -0.0517024 0.9409)
(0.0011422 -0.0484304 -0.939853)
(0.00112487 -0.0484326 6.14145e-07)
(0.00112195 -0.0484335 2.69571e-09)
(0.00112487 -0.0484326 -6.11149e-07)
(0.0011422 -0.0484304 0.939853)
(0.00113235 -0.0451315 -0.938769)
(0.0011148 -0.0451336 6.5026e-07)
(0.00111184 -0.0451345 3.60483e-09)
(0.0011148 -0.0451336 -6.45829e-07)
(0.00113235 -0.0451315 0.938769)
(0.00111261 -0.0418263 -0.937644)
(0.00109494 -0.0418282 6.83535e-07)
(0.00109195 -0.0418292 4.28954e-09)
(0.00109494 -0.0418282 -6.7794e-07)
(0.00111261 -0.0418263 0.937644)
(0.00108399 -0.038534 -0.936478)
(0.00106628 -0.0385358 7.13842e-07)
(0.00106328 -0.0385367 4.84949e-09)
(0.00106628 -0.0385358 -7.07258e-07)
(0.00108399 -0.038534 0.936478)
(0.00104811 -0.0352719 -0.935265)
(0.00103045 -0.0352736 7.40915e-07)
(0.00102745 -0.0352746 4.85445e-09)
(0.00103045 -0.0352736 -7.34302e-07)
(0.00104812 -0.035272 0.935265)
(0.0010073 -0.0320546 -0.934004)
(0.000989747 -0.0320562 7.65144e-07)
(0.000986762 -0.0320571 4.80024e-09)
(0.000989749 -0.0320562 -7.58853e-07)
(0.0010073 -0.0320546 0.934004)
(0.000964574 -0.0288927 -0.932693)
(0.000947188 -0.0288942 7.86884e-07)
(0.000944228 -0.0288951 4.59657e-09)
(0.00094719 -0.0288942 -7.81695e-07)
(0.000964578 -0.0288927 0.932693)
(0.000923513 -0.025793 -0.931325)
(0.000906355 -0.0257945 8.07119e-07)
(0.000903431 -0.0257953 5.35595e-09)
(0.000906358 -0.0257945 -8.02898e-07)
(0.000923519 -0.025793 0.931325)
(0.000887674 -0.0227581 -0.929902)
(0.000870845 -0.0227595 8.24528e-07)
(0.000867967 -0.0227603 7.21742e-09)
(0.000870847 -0.0227595 -8.22282e-07)
(0.000887682 -0.0227581 0.929902)
(0.000859516 -0.0197861 -0.927098)
(0.000843156 -0.0197876 8.37522e-07)
(0.000840341 -0.0197884 1.13983e-08)
(0.000843154 -0.0197876 -8.37217e-07)
(0.000859525 -0.0197861 0.927098)
(0.00010642 -0.251038 -0.977424)
(0.000106446 -0.251037 7.33163e-08)
(0.000106403 -0.251036 -1.23438e-10)
(0.00010645 -0.251037 -7.35786e-08)
(0.000106427 -0.251038 0.977424)
(0.000129749 -0.250871 -0.968196)
(0.000129269 -0.250868 -1.11657e-07)
(0.000129189 -0.250868 -1.7652e-10)
(0.000129273 -0.250868 1.11315e-07)
(0.000129755 -0.250871 0.968196)
(0.000184928 -0.250685 -0.967602)
(0.000184632 -0.250685 -7.46104e-08)
(0.000184643 -0.250685 4.96157e-11)
(0.000184636 -0.250685 7.46806e-08)
(0.000184934 -0.250685 0.967602)
(0.000272243 -0.250422 -0.966994)
(0.000272075 -0.250422 -6.17262e-08)
(0.000272122 -0.250422 4.15923e-10)
(0.000272078 -0.250422 6.23389e-08)
(0.000272247 -0.250422 0.966994)
(0.000386219 -0.25004 -0.96638)
(0.000385887 -0.250039 -7.63545e-08)
(0.000385894 -0.250039 7.49315e-10)
(0.000385888 -0.250039 7.75356e-08)
(0.00038622 -0.25004 0.96638)
(0.000524445 -0.249514 -0.965752)
(0.000523931 -0.249514 -8.98749e-08)
(0.000523908 -0.249514 9.14214e-10)
(0.000523931 -0.249514 9.13491e-08)
(0.000524444 -0.249514 0.965752)
(0.000685933 -0.248822 -0.965112)
(0.000685271 -0.248822 -1.03287e-07)
(0.000685234 -0.248821 9.35971e-10)
(0.00068527 -0.248821 1.04766e-07)
(0.000685931 -0.248822 0.965112)
(0.00086971 -0.24794 -0.964462)
(0.0008689 -0.247939 -1.18602e-07)
(0.000868851 -0.247939 8.59083e-10)
(0.000868899 -0.247939 1.19946e-07)
(0.000869708 -0.24794 0.964462)
(0.0010751 -0.246848 -0.963803)
(0.00107413 -0.246848 -1.35278e-07)
(0.00107407 -0.246848 7.57771e-10)
(0.00107413 -0.246848 1.36445e-07)
(0.0010751 -0.246848 0.963803)
(0.00130211 -0.245529 -0.963129)
(0.00130097 -0.245528 -1.52784e-07)
(0.0013009 -0.245528 6.65853e-10)
(0.00130097 -0.245528 1.53771e-07)
(0.00130211 -0.245529 0.963129)
(0.00155145 -0.243963 -0.962443)
(0.00155012 -0.243963 -1.70885e-07)
(0.00155003 -0.243963 5.89833e-10)
(0.00155012 -0.243963 1.71719e-07)
(0.00155145 -0.243963 0.962443)
(0.00182435 -0.242136 -0.961749)
(0.00182282 -0.242135 -1.89285e-07)
(0.00182271 -0.242135 5.0867e-10)
(0.00182282 -0.242135 1.90009e-07)
(0.00182435 -0.242136 0.961749)
(0.00212218 -0.240027 -0.961035)
(0.00212043 -0.240026 -2.07667e-07)
(0.00212031 -0.240026 4.53381e-10)
(0.00212043 -0.240026 2.08325e-07)
(0.00212218 -0.240027 0.961035)
(0.00244618 -0.237618 -0.960321)
(0.00244421 -0.237618 -2.25764e-07)
(0.00244405 -0.237618 4.1622e-10)
(0.00244421 -0.237618 2.26372e-07)
(0.00244618 -0.237618 0.960321)
(0.00279717 -0.234891 -0.959584)
(0.00279495 -0.23489 -2.4323e-07)
(0.00279477 -0.23489 3.88403e-10)
(0.00279495 -0.23489 2.43774e-07)
(0.00279717 -0.234891 0.959584)
(0.00317521 -0.231827 -0.958835)
(0.00317274 -0.231826 -2.59759e-07)
(0.00317253 -0.231826 3.56041e-10)
(0.00317274 -0.231826 2.60214e-07)
(0.00317521 -0.231827 0.958835)
(0.00357975 -0.228406 -0.958076)
(0.00357702 -0.228405 -2.74968e-07)
(0.00357677 -0.228405 3.03047e-10)
(0.00357702 -0.228405 2.75304e-07)
(0.00357975 -0.228406 0.958076)
(0.00400924 -0.224612 -0.957298)
(0.00400624 -0.224611 -2.88433e-07)
(0.00400596 -0.224612 2.9542e-10)
(0.00400624 -0.224611 2.88725e-07)
(0.00400924 -0.224612 0.957298)
(0.00446126 -0.22043 -0.95651)
(0.00445799 -0.22043 -2.99706e-07)
(0.00445767 -0.22043 4.04444e-10)
(0.00445799 -0.22043 3.00136e-07)
(0.00446126 -0.22043 0.95651)
(0.00493235 -0.215848 -0.9557)
(0.00492883 -0.215848 -3.08331e-07)
(0.00492847 -0.215848 6.28445e-10)
(0.00492883 -0.215848 3.09122e-07)
(0.00493235 -0.215848 0.9557)
(0.00541807 -0.210857 -0.954876)
(0.00541429 -0.210857 -3.13938e-07)
(0.0054139 -0.210858 1.016e-09)
(0.00541429 -0.210857 3.15258e-07)
(0.00541807 -0.210857 0.954876)
(0.00591309 -0.205454 -0.954035)
(0.00590908 -0.205454 -3.16332e-07)
(0.00590865 -0.205455 1.24005e-09)
(0.00590908 -0.205454 3.18087e-07)
(0.00591309 -0.205454 0.954035)
(0.00641118 -0.199638 -0.953172)
(0.00640697 -0.199639 -3.15252e-07)
(0.0064065 -0.19964 1.5425e-09)
(0.00640697 -0.199639 3.17335e-07)
(0.00641118 -0.199638 0.953172)
(0.00690542 -0.193416 -0.952287)
(0.00690104 -0.193417 -3.10698e-07)
(0.00690055 -0.193418 1.49372e-09)
(0.00690104 -0.193417 3.1279e-07)
(0.00690543 -0.193416 0.952287)
(0.00738843 -0.1868 -0.951379)
(0.00738391 -0.186801 -3.02551e-07)
(0.00738339 -0.186802 1.50698e-09)
(0.00738391 -0.186801 3.0448e-07)
(0.00738843 -0.1868 0.951379)
(0.00785256 -0.179807 -0.950446)
(0.00784795 -0.179808 -2.90833e-07)
(0.00784741 -0.179809 1.31949e-09)
(0.00784795 -0.179808 2.92455e-07)
(0.00785257 -0.179807 0.950446)
(0.00829027 -0.17246 -0.949485)
(0.0082856 -0.172461 -2.75611e-07)
(0.00828505 -0.172463 1.17364e-09)
(0.0082856 -0.172461 2.77074e-07)
(0.00829028 -0.17246 0.949485)
(0.00869445 -0.164787 -0.948496)
(0.00868976 -0.164789 -2.56687e-07)
(0.00868921 -0.16479 1.54471e-09)
(0.00868976 -0.164789 2.58575e-07)
(0.00869445 -0.164787 0.948496)
(0.00905876 -0.156823 -0.947471)
(0.00905411 -0.156825 -2.3441e-07)
(0.00905356 -0.156826 2.06167e-09)
(0.00905411 -0.156825 2.37237e-07)
(0.00905877 -0.156823 0.947471)
(0.0093781 -0.148604 -0.946414)
(0.00937351 -0.148607 -2.09175e-07)
(0.00937298 -0.148608 2.95519e-09)
(0.00937352 -0.148607 2.13224e-07)
(0.0093781 -0.148604 0.946414)
(0.00964891 -0.140172 -0.945318)
(0.00964443 -0.140175 -1.81564e-07)
(0.00964393 -0.140176 3.60179e-09)
(0.00964444 -0.140175 1.86854e-07)
(0.00964892 -0.140172 0.945318)
(0.00986959 -0.13157 -0.94418)
(0.00986524 -0.131572 -1.52086e-07)
(0.00986476 -0.131574 4.4331e-09)
(0.00986525 -0.131572 1.58471e-07)
(0.00986959 -0.13157 0.94418)
(0.0100408 -0.122839 -0.943)
(0.0100366 -0.122842 -1.21477e-07)
(0.0100361 -0.122843 4.6394e-09)
(0.0100366 -0.122842 1.28524e-07)
(0.0100408 -0.122839 0.943)
(0.0101656 -0.114023 -0.941772)
(0.0101616 -0.114026 -9.01469e-08)
(0.0101612 -0.114027 4.927e-09)
(0.0101616 -0.114026 9.73225e-08)
(0.0101656 -0.114023 0.941772)
(0.0102499 -0.105161 -0.940495)
(0.010246 -0.105164 -5.86495e-08)
(0.0102456 -0.105165 4.42237e-09)
(0.010246 -0.105164 6.55996e-08)
(0.0102499 -0.105161 0.940495)
(0.0103017 -0.0962903 -0.939166)
(0.010298 -0.0962932 -2.68171e-08)
(0.0102976 -0.0962947 4.40867e-09)
(0.010298 -0.0962932 3.33626e-08)
(0.0103017 -0.0962904 0.939166)
(0.0103307 -0.0874428 -0.93778)
(0.0103272 -0.0874459 5.22177e-09)
(0.0103268 -0.0874473 3.61676e-09)
(0.0103272 -0.0874459 6.64356e-10)
(0.0103307 -0.0874428 0.93778)
(0.0103459 -0.0786463 -0.936336)
(0.0103424 -0.0786498 4.01398e-08)
(0.0103421 -0.0786513 4.43139e-09)
(0.0103424 -0.0786498 -3.431e-08)
(0.0103459 -0.0786463 0.936336)
(0.0103517 -0.0699274 -0.933587)
(0.0103483 -0.0699314 8.13865e-08)
(0.0103479 -0.0699329 5.43562e-09)
(0.0103483 -0.0699314 -7.48669e-08)
(0.0103517 -0.0699274 0.933587)
(0.000204087 -0.365338 -0.979198)
(0.000203992 -0.365337 7.80191e-08)
(0.000203914 -0.365337 -7.54031e-11)
(0.000203999 -0.365337 -7.82053e-08)
(0.000204099 -0.365338 0.979198)
(0.000274673 -0.365172 -0.96823)
(0.000274728 -0.365169 -1.04642e-07)
(0.00027471 -0.365168 -1.38582e-11)
(0.000274736 -0.365169 1.04557e-07)
(0.000274685 -0.365172 0.96823)
(0.000409222 -0.364971 -0.967637)
(0.000409487 -0.364972 -5.74048e-08)
(0.000409563 -0.364972 2.82302e-10)
(0.000409495 -0.364972 5.78236e-08)
(0.000409233 -0.364971 0.967637)
(0.000607177 -0.364684 -0.967028)
(0.000607725 -0.364685 -3.37333e-08)
(0.000607881 -0.364685 6.41331e-10)
(0.000607731 -0.364685 3.47306e-08)
(0.000607185 -0.364684 0.967028)
(0.000865898 -0.364265 -0.966414)
(0.000866583 -0.364264 -4.0948e-08)
(0.00086676 -0.364264 1.14061e-09)
(0.000866586 -0.364264 4.25774e-08)
(0.000865902 -0.364264 0.966414)
(0.00118406 -0.363682 -0.965786)
(0.00118488 -0.363682 -4.32722e-08)
(0.00118508 -0.363682 1.3227e-09)
(0.00118488 -0.363682 4.51205e-08)
(0.00118406 -0.363682 0.965786)
(0.00156061 -0.362906 -0.965147)
(0.00156162 -0.362906 -4.18344e-08)
(0.00156185 -0.362906 1.27137e-09)
(0.00156162 -0.362906 4.35817e-08)
(0.00156061 -0.362906 0.965147)
(0.00199391 -0.361907 -0.964496)
(0.00199514 -0.361907 -4.0292e-08)
(0.00199542 -0.361906 9.19762e-10)
(0.00199514 -0.361907 4.17024e-08)
(0.0019939 -0.361907 0.964496)
(0.00248262 -0.360657 -0.963837)
(0.00248411 -0.360657 -3.81833e-08)
(0.00248443 -0.360657 6.90204e-10)
(0.00248411 -0.360657 3.92814e-08)
(0.00248262 -0.360657 0.963837)
(0.00302686 -0.359131 -0.963164)
(0.00302862 -0.359131 -3.48292e-08)
(0.00302898 -0.359131 6.62739e-10)
(0.00302862 -0.359131 3.5739e-08)
(0.00302686 -0.359131 0.963164)
(0.00362851 -0.357307 -0.962478)
(0.00363055 -0.357307 -3.00428e-08)
(0.00363096 -0.357307 7.77862e-10)
(0.00363055 -0.357307 3.08699e-08)
(0.00362851 -0.357307 0.962478)
(0.00429104 -0.355158 -0.961784)
(0.00429337 -0.355159 -2.36535e-08)
(0.00429383 -0.355159 7.12366e-10)
(0.00429337 -0.355159 2.43708e-08)
(0.00429104 -0.355158 0.961784)
(0.00501864 -0.352662 -0.96107)
(0.00502128 -0.352662 -1.51892e-08)
(0.00502177 -0.352662 4.93387e-10)
(0.00502128 -0.352662 1.57556e-08)
(0.00501864 -0.352662 0.96107)
(0.00581563 -0.349791 -0.960356)
(0.00581856 -0.349792 -4.36478e-09)
(0.00581909 -0.349792 2.7045e-10)
(0.00581856 -0.349792 4.77803e-09)
(0.00581562 -0.349791 0.960356)
(0.00668565 -0.346519 -0.959619)
(0.00668888 -0.34652 9.22469e-09)
(0.00668946 -0.34652 2.91004e-10)
(0.00668888 -0.346519 -8.83704e-09)
(0.00668565 -0.346519 0.959619)
(0.00763097 -0.342817 -0.958871)
(0.0076345 -0.342818 2.58746e-08)
(0.0076351 -0.342818 6.95307e-10)
(0.0076345 -0.342818 -2.52975e-08)
(0.00763097 -0.342817 0.958871)
(0.00865257 -0.338656 -0.958112)
(0.00865639 -0.338657 4.5918e-08)
(0.00865703 -0.338657 1.0551e-09)
(0.00865639 -0.338657 -4.50893e-08)
(0.00865257 -0.338656 0.958112)
(0.0097494 -0.334008 -0.957334)
(0.00975351 -0.33401 6.95529e-08)
(0.00975417 -0.33401 1.46626e-09)
(0.00975351 -0.33401 -6.83478e-08)
(0.0097494 -0.334008 0.957334)
(0.0109184 -0.328847 -0.956548)
(0.0109228 -0.328848 9.68468e-08)
(0.0109235 -0.328849 1.86466e-09)
(0.0109228 -0.328848 -9.51835e-08)
(0.0109184 -0.328847 0.956548)
(0.0121543 -0.323146 -0.955739)
(0.0121589 -0.323148 1.27756e-07)
(0.0121596 -0.323148 1.38535e-09)
(0.0121589 -0.323148 -1.25838e-07)
(0.0121543 -0.323146 0.955739)
(0.0134491 -0.316885 -0.954916)
(0.013454 -0.316887 1.6265e-07)
(0.0134547 -0.316888 2.54066e-09)
(0.013454 -0.316887 -1.60005e-07)
(0.0134491 -0.316885 0.954916)
(0.014793 -0.310045 -0.954076)
(0.0147981 -0.310047 2.00396e-07)
(0.0147988 -0.310048 8.423e-10)
(0.0147981 -0.310047 -1.98022e-07)
(0.014793 -0.310045 0.954076)
(0.0161734 -0.302612 -0.953215)
(0.0161787 -0.302615 2.42016e-07)
(0.0161795 -0.302616 2.74085e-09)
(0.0161787 -0.302615 -2.39023e-07)
(0.0161734 -0.302612 0.953215)
(0.0175758 -0.294581 -0.952332)
(0.0175813 -0.294584 2.85361e-07)
(0.017582 -0.294585 8.6828e-10)
(0.0175813 -0.294584 -2.8301e-07)
(0.0175758 -0.294581 0.952332)
(0.0189838 -0.28595 -0.951427)
(0.0189895 -0.285953 3.31618e-07)
(0.0189902 -0.285954 2.62702e-09)
(0.0189895 -0.285953 -3.28966e-07)
(0.0189838 -0.28595 0.951427)
(0.0203797 -0.276725 -0.950497)
(0.0203855 -0.276728 3.78742e-07)
(0.0203863 -0.27673 2.40224e-09)
(0.0203855 -0.276728 -3.76461e-07)
(0.0203797 -0.276725 0.950497)
(0.021745 -0.26692 -0.94954)
(0.021751 -0.266924 4.26254e-07)
(0.0217517 -0.266925 4.14776e-10)
(0.021751 -0.266924 -4.24692e-07)
(0.021745 -0.26692 0.94954)
(0.0230613 -0.256557 -0.948554)
(0.0230675 -0.256561 4.74778e-07)
(0.0230682 -0.256562 2.45005e-09)
(0.0230675 -0.256561 -4.72401e-07)
(0.0230613 -0.256557 0.948554)
(0.0243109 -0.245665 -0.947534)
(0.0243171 -0.245669 5.22326e-07)
(0.0243179 -0.245671 7.33097e-10)
(0.0243171 -0.245669 -5.19781e-07)
(0.0243109 -0.245665 0.947534)
(0.0254777 -0.234282 -0.946481)
(0.025484 -0.234286 5.69117e-07)
(0.0254848 -0.234287 3.80187e-09)
(0.025484 -0.234286 -5.65124e-07)
(0.0254777 -0.234282 0.946481)
(0.0265482 -0.22245 -0.94539)
(0.0265546 -0.222454 6.13349e-07)
(0.0265554 -0.222455 1.10188e-09)
(0.0265546 -0.222454 -6.09307e-07)
(0.0265482 -0.22245 0.94539)
(0.0275125 -0.210218 -0.944258)
(0.0275188 -0.210222 6.55842e-07)
(0.0275196 -0.210224 5.60268e-09)
(0.0275188 -0.210222 -6.5012e-07)
(0.0275125 -0.210218 0.944258)
(0.0283645 -0.197641 -0.943082)
(0.0283708 -0.197645 6.9428e-07)
(0.0283716 -0.197647 9.23431e-10)
(0.0283708 -0.197645 -6.8935e-07)
(0.0283645 -0.197641 0.943082)
(0.0291032 -0.184776 -0.941859)
(0.0291094 -0.184779 7.30641e-07)
(0.0291102 -0.184781 6.95996e-09)
(0.0291094 -0.184779 -7.24522e-07)
(0.0291032 -0.184776 0.941859)
(0.0297322 -0.17168 -0.940587)
(0.0297383 -0.171683 7.621e-07)
(0.0297391 -0.171684 -7.94157e-11)
(0.0297383 -0.171683 -7.57679e-07)
(0.0297322 -0.17168 0.940587)
(0.0302595 -0.158412 -0.939262)
(0.0302656 -0.158415 7.92124e-07)
(0.0302663 -0.158416 7.64876e-09)
(0.0302656 -0.158415 -7.8627e-07)
(0.0302595 -0.158412 0.939262)
(0.0306956 -0.145029 -0.937879)
(0.0307014 -0.145032 8.16597e-07)
(0.0307021 -0.145034 -1.58967e-09)
(0.0307014 -0.145032 -8.13086e-07)
(0.0306956 -0.145029 0.937879)
(0.031049 -0.13159 -0.936438)
(0.0310546 -0.131592 8.39011e-07)
(0.0310552 -0.131594 7.17451e-09)
(0.0310546 -0.131592 -8.34203e-07)
(0.031049 -0.13159 0.936438)
(0.0313195 -0.118146 -0.933782)
(0.0313247 -0.118149 8.51649e-07)
(0.0313253 -0.11815 -2.94622e-09)
(0.0313247 -0.118149 -8.49164e-07)
(0.0313195 -0.118146 0.933782)
(0.000293264 -0.437002 -0.980312)
(0.000292794 -0.437001 7.15056e-08)
(0.000292633 -0.437001 -3.31337e-11)
(0.000292803 -0.437001 -7.16513e-08)
(0.000293277 -0.437001 0.980312)
(0.000405682 -0.436853 -0.968249)
(0.00040579 -0.43685 -1.04268e-07)
(0.000405772 -0.43685 1.01103e-10)
(0.000405799 -0.43685 1.04338e-07)
(0.000405695 -0.436853 0.968249)
(0.000615743 -0.436671 -0.967655)
(0.000615999 -0.436671 -5.86739e-08)
(0.000616061 -0.436671 4.08558e-10)
(0.000616007 -0.436671 5.92638e-08)
(0.000615756 -0.436671 0.967655)
(0.000919512 -0.43641 -0.967044)
(0.000919884 -0.436411 -3.45955e-08)
(0.000920002 -0.436411 7.32155e-10)
(0.000919891 -0.436411 3.57208e-08)
(0.000919522 -0.43641 0.967044)
(0.0013175 -0.436027 -0.96643)
(0.00131791 -0.436027 -4.58191e-08)
(0.00131804 -0.436027 1.07352e-09)
(0.00131791 -0.436027 4.749e-08)
(0.0013175 -0.436027 0.96643)
(0.00181146 -0.435489 -0.9658)
(0.00181186 -0.435489 -5.27397e-08)
(0.00181199 -0.435489 1.0416e-09)
(0.00181186 -0.435489 5.4528e-08)
(0.00181146 -0.435489 0.9658)
(0.00240193 -0.434767 -0.965159)
(0.00240231 -0.434767 -5.58118e-08)
(0.00240243 -0.434767 9.46978e-10)
(0.0024023 -0.434767 5.74796e-08)
(0.00240192 -0.434767 0.965159)
(0.00308761 -0.433828 -0.964507)
(0.00308797 -0.433828 -5.96402e-08)
(0.00308809 -0.433828 8.25464e-10)
(0.00308797 -0.433828 6.10705e-08)
(0.00308761 -0.433828 0.964507)
(0.003867 -0.432641 -0.963847)
(0.00386731 -0.432641 -6.39904e-08)
(0.00386741 -0.432641 7.1376e-10)
(0.00386731 -0.432641 6.51585e-08)
(0.00386699 -0.432641 0.963847)
(0.00474034 -0.431178 -0.963172)
(0.00474059 -0.431178 -6.82611e-08)
(0.00474068 -0.431178 6.07245e-10)
(0.00474059 -0.431178 6.91878e-08)
(0.00474033 -0.431178 0.963172)
(0.00571071 -0.429412 -0.962484)
(0.00571087 -0.429412 -7.23432e-08)
(0.00571093 -0.429412 7.18766e-10)
(0.00571087 -0.429412 7.31475e-08)
(0.0057107 -0.429412 0.962484)
(0.00678408 -0.427316 -0.961788)
(0.00678413 -0.427316 -7.63375e-08)
(0.00678415 -0.427316 4.65484e-10)
(0.00678413 -0.427316 7.6947e-08)
(0.00678407 -0.427316 0.961788)
(0.00796807 -0.424862 -0.961072)
(0.00796798 -0.424862 -7.97346e-08)
(0.00796796 -0.424862 8.1922e-10)
(0.00796798 -0.424862 8.04164e-08)
(0.00796807 -0.424862 0.961072)
(0.00927111 -0.42202 -0.960356)
(0.00927083 -0.42202 -8.25276e-08)
(0.00927075 -0.42202 6.35111e-10)
(0.00927083 -0.42202 8.31562e-08)
(0.00927111 -0.42202 0.960356)
(0.0107011 -0.418757 -0.959617)
(0.0107006 -0.418757 -8.44986e-08)
(0.0107005 -0.418757 3.56784e-10)
(0.0107006 -0.418757 8.50415e-08)
(0.0107011 -0.418757 0.959617)
(0.0122644 -0.415041 -0.958866)
(0.0122636 -0.415041 -8.51926e-08)
(0.0122634 -0.415041 4.43148e-10)
(0.0122636 -0.415041 8.58951e-08)
(0.0122644 -0.415041 0.958866)
(0.0139655 -0.410836 -0.958105)
(0.0139644 -0.410836 -8.43374e-08)
(0.013964 -0.410836 6.62582e-10)
(0.0139644 -0.410836 8.53827e-08)
(0.0139655 -0.410836 0.958105)
(0.0158062 -0.406104 -0.957325)
(0.0158047 -0.406105 -8.1657e-08)
(0.0158042 -0.406105 9.83159e-10)
(0.0158047 -0.406105 8.3199e-08)
(0.0158062 -0.406104 0.957325)
(0.0177854 -0.400811 -0.956537)
(0.0177834 -0.400811 -7.6945e-08)
(0.0177829 -0.400812 1.32747e-09)
(0.0177834 -0.400811 7.90374e-08)
(0.0177854 -0.400811 0.956537)
(0.0198985 -0.394918 -0.955726)
(0.0198961 -0.394919 -7.00076e-08)
(0.0198954 -0.394919 1.5683e-09)
(0.0198961 -0.394919 7.25638e-08)
(0.0198985 -0.394918 0.955726)
(0.0221371 -0.388393 -0.954901)
(0.0221342 -0.388394 -6.06569e-08)
(0.0221333 -0.388394 1.73546e-09)
(0.0221342 -0.388394 6.34575e-08)
(0.0221371 -0.388393 0.954901)
(0.0244892 -0.381201 -0.954061)
(0.0244857 -0.381203 -4.88788e-08)
(0.0244848 -0.381203 1.52453e-09)
(0.0244857 -0.381203 5.15498e-08)
(0.0244892 -0.381201 0.954061)
(0.0269386 -0.373316 -0.953199)
(0.0269346 -0.373318 -3.44958e-08)
(0.0269335 -0.373319 1.28877e-09)
(0.0269346 -0.373318 3.67453e-08)
(0.0269386 -0.373316 0.953199)
(0.0294652 -0.364713 -0.952317)
(0.0294607 -0.364715 -1.75617e-08)
(0.0294594 -0.364716 7.24899e-10)
(0.0294607 -0.364715 1.91614e-08)
(0.0294652 -0.364713 0.952317)
(0.0320455 -0.355375 -0.951413)
(0.0320404 -0.355377 1.90057e-09)
(0.032039 -0.355378 3.04958e-10)
(0.0320404 -0.355377 -9.24927e-10)
(0.0320455 -0.355375 0.951413)
(0.0346525 -0.34529 -0.950485)
(0.0346469 -0.345292 2.37711e-08)
(0.0346453 -0.345293 -2.76874e-10)
(0.0346469 -0.345292 -2.33952e-08)
(0.0346525 -0.34529 0.950485)
(0.037257 -0.334455 -0.949531)
(0.0372509 -0.334458 4.7858e-08)
(0.0372493 -0.334459 -5.30913e-10)
(0.0372509 -0.334458 -4.77292e-08)
(0.037257 -0.334455 0.949531)
(0.0398283 -0.322877 -0.948549)
(0.0398218 -0.322879 7.42571e-08)
(0.03982 -0.322881 -2.64206e-10)
(0.0398218 -0.322879 -7.38368e-08)
(0.0398283 -0.322877 0.948549)
(0.0423351 -0.310569 -0.947534)
(0.0423282 -0.310572 1.02395e-07)
(0.0423264 -0.310574 -7.10058e-11)
(0.0423282 -0.310572 -1.01553e-07)
(0.0423351 -0.310569 0.947534)
(0.044747 -0.297559 -0.946486)
(0.0447398 -0.297562 1.31663e-07)
(0.0447379 -0.297563 2.47548e-10)
(0.0447398 -0.297562 -1.30447e-07)
(0.044747 -0.297559 0.946486)
(0.0470361 -0.283879 -0.945401)
(0.0470285 -0.283882 1.61403e-07)
(0.0470267 -0.283884 2.34888e-10)
(0.0470285 -0.283882 -1.59934e-07)
(0.0470361 -0.283879 0.945401)
(0.0491778 -0.269575 -0.944276)
(0.0491701 -0.269578 1.91153e-07)
(0.0491682 -0.26958 5.14632e-10)
(0.04917 -0.269578 -1.8946e-07)
(0.0491778 -0.269575 0.944276)
(0.0511527 -0.2547 -0.943108)
(0.0511449 -0.254703 2.20255e-07)
(0.051143 -0.254705 3.17259e-10)
(0.0511449 -0.254703 -2.18676e-07)
(0.0511527 -0.2547 0.943108)
(0.0529476 -0.239315 -0.941892)
(0.0529396 -0.239318 2.48172e-07)
(0.0529378 -0.23932 3.36353e-10)
(0.0529396 -0.239318 -2.46975e-07)
(0.0529476 -0.239315 0.941892)
(0.0545555 -0.223488 -0.940627)
(0.0545475 -0.22349 2.745e-07)
(0.0545456 -0.223492 -1.96167e-10)
(0.0545475 -0.22349 -2.73814e-07)
(0.0545555 -0.223488 0.940627)
(0.0559759 -0.20729 -0.93931)
(0.0559677 -0.207292 2.99017e-07)
(0.0559659 -0.207294 -4.39907e-10)
(0.0559677 -0.207292 -2.99193e-07)
(0.0559759 -0.20729 0.93931)
(0.0572117 -0.190798 -0.937934)
(0.0572034 -0.1908 3.21448e-07)
(0.0572016 -0.190801 -1.37916e-09)
(0.0572034 -0.1908 -3.22705e-07)
(0.0572117 -0.190798 0.937934)
(0.0582642 -0.174088 -0.9365)
(0.0582559 -0.174091 3.42983e-07)
(0.058254 -0.174092 -1.61043e-09)
(0.0582559 -0.174091 -3.44924e-07)
(0.0582642 -0.174088 0.9365)
(0.059123 -0.157241 -0.933924)
(0.0591147 -0.157243 3.65564e-07)
(0.0591128 -0.157245 -2.26917e-09)
(0.0591146 -0.157243 -3.67276e-07)
(0.059123 -0.157241 0.933924)
(0.000371485 -0.476303 -0.980923)
(0.000370785 -0.476302 6.36832e-08)
(0.000370563 -0.476302 1.0826e-12)
(0.000370793 -0.476302 -6.37592e-08)
(0.000371497 -0.476303 0.980923)
(0.000518228 -0.476177 -0.968258)
(0.000518486 -0.476174 -9.37541e-08)
(0.000518495 -0.476173 2.00768e-10)
(0.000518494 -0.476174 9.39883e-08)
(0.00051824 -0.476176 0.968258)
(0.000793131 -0.476022 -0.967661)
(0.000793595 -0.476023 -5.10023e-08)
(0.000793699 -0.476023 5.03066e-10)
(0.000793602 -0.476023 5.17439e-08)
(0.000793142 -0.476022 0.967661)
(0.00118905 -0.475805 -0.967048)
(0.00118957 -0.475805 -2.60444e-08)
(0.00118972 -0.475805 7.88512e-10)
(0.00118957 -0.475805 2.72648e-08)
(0.00118906 -0.475805 0.967048)
(0.00170939 -0.475483 -0.966431)
(0.00170999 -0.475483 -3.63831e-08)
(0.00171018 -0.475483 9.7288e-10)
(0.00170999 -0.475483 3.80055e-08)
(0.0017094 -0.475483 0.966431)
(0.00235991 -0.475029 -0.965799)
(0.00236057 -0.475029 -4.31098e-08)
(0.00236078 -0.475029 1.04567e-09)
(0.00236057 -0.475029 4.48566e-08)
(0.00235991 -0.475029 0.965799)
(0.00314392 -0.474414 -0.965155)
(0.00314462 -0.474414 -4.57159e-08)
(0.00314485 -0.474414 1.02716e-09)
(0.00314462 -0.474414 4.7393e-08)
(0.00314391 -0.474414 0.965155)
(0.00406152 -0.473607 -0.9645)
(0.00406227 -0.473606 -4.91356e-08)
(0.00406251 -0.473606 9.59804e-10)
(0.00406227 -0.473606 5.06382e-08)
(0.00406151 -0.473606 0.9645)
(0.00511169 -0.472577 -0.963837)
(0.00511248 -0.472577 -5.33437e-08)
(0.00511273 -0.472576 8.44606e-10)
(0.00511248 -0.472577 5.46013e-08)
(0.00511168 -0.472577 0.963837)
(0.00629521 -0.471296 -0.963158)
(0.00629604 -0.471296 -5.76849e-08)
(0.0062963 -0.471296 7.1761e-10)
(0.00629604 -0.471296 5.86717e-08)
(0.00629521 -0.471296 0.963158)
(0.00761651 -0.469736 -0.962466)
(0.00761736 -0.469736 -6.20272e-08)
(0.00761762 -0.469736 6.56667e-10)
(0.00761736 -0.469736 6.28053e-08)
(0.0076165 -0.469736 0.962466)
(0.00908423 -0.46787 -0.961766)
(0.0090851 -0.46787 -6.63081e-08)
(0.00908535 -0.46787 7.13146e-10)
(0.0090851 -0.46787 6.70082e-08)
(0.00908423 -0.46787 0.961766)
(0.0107098 -0.465668 -0.961046)
(0.0107107 -0.465668 -7.02668e-08)
(0.0107109 -0.465668 1.09301e-09)
(0.0107107 -0.465668 7.1113e-08)
(0.0107098 -0.465668 0.961046)
(0.0125066 -0.463099 -0.960324)
(0.0125074 -0.463099 -7.38865e-08)
(0.0125076 -0.463099 7.23594e-10)
(0.0125074 -0.463099 7.46825e-08)
(0.0125065 -0.463099 0.960324)
(0.0144877 -0.46013 -0.95958)
(0.0144885 -0.46013 -7.65115e-08)
(0.0144887 -0.46013 8.97266e-10)
(0.0144885 -0.460129 7.75543e-08)
(0.0144877 -0.46013 0.95958)
(0.0166649 -0.456723 -0.958824)
(0.0166657 -0.456723 -7.82999e-08)
(0.0166658 -0.456723 8.14385e-10)
(0.0166657 -0.456723 7.95885e-08)
(0.0166649 -0.456723 0.958824)