/*--------------------------------*- C++ -*----------------------------------*\
  =========                 |
  \\      /  F ield         | OpenFOAM: The Open Source CFD Toolbox
   \\    /   O peration     | Website:  https://openfoam.org
    \\  /    A nd           | Version:  9
     \\/     M anipulation  |
\*---------------------------------------------------------------------------*/
FoamFile
{
    format      ascii;
    class       surfaceScalarField;
    location    "0.5";
    object      phi;
}
// * * * * * * * * * * * * * * * * * * * * * * * * * * * * * * * * * * * * * //

dimensions      [0 3 -1 0 0 0 0];

internalField   nonuniform List<scalar> 
104044
(
-1.05539e-11
-1.27344e-05
-8.38271e-10
1.27325e-05
2.81211e-09
-1.27345e-05
-8.28495e-10
-5.63282e-13
1.27325e-05
2.79885e-09
1.14255e-11
-1.3238e-09
3.45976e-09
-1.33813e-09
6.60814e-13
3.47268e-09
-7.38917e-12
-4.48602e-06
4.48519e-06
-4.48604e-06
-7.82731e-13
4.48521e-06
1.07277e-11
7.92943e-13
-1.57565e-13
-1.27345e-05
-8.2637e-10
1.27325e-05
2.79617e-09
-1.27345e-05
-8.26377e-10
-1.5388e-13
1.27326e-05
2.7962e-09
-1.44649e-13
-1.34057e-09
3.47863e-09
-1.34141e-09
-7.33538e-14
3.48082e-09
-2.22979e-13
-4.48605e-06
4.48522e-06
-4.48606e-06
-1.35548e-13
4.48523e-06
-8.06494e-14
-5.076e-14
3.02574e-14
-1.27346e-05
-8.26644e-10
1.27326e-05
2.79696e-09
-1.27346e-05
-8.27052e-10
2.02182e-13
1.27326e-05
2.79819e-09
4.86199e-14
-1.34196e-09
3.48225e-09
-1.34256e-09
1.66704e-13
3.48375e-09
4.97828e-14
-4.48607e-06
4.48524e-06
-4.48607e-06
2.19922e-13
4.48524e-06
5.80143e-14
1.62537e-13
1.86899e-13
-1.27346e-05
-8.2757e-10
1.27326e-05
2.79977e-09
-1.27345e-05
-8.28216e-10
5.73956e-13
1.27325e-05
2.80173e-09
2.16495e-13
-1.34317e-09
3.48519e-09
-1.3433e-09
-6.24688e-13
3.48543e-09
2.67487e-13
-4.48606e-06
4.48523e-06
-4.48605e-06
8.17008e-13
4.48522e-06
1.68914e-13
-7.42328e-13
1.06499e-11
-1.27345e-05
-8.30839e-10
1.27325e-05
2.80583e-09
-1.27344e-05
-8.40871e-10
1.27325e-05
2.81991e-09
-1.14336e-11
-1.34158e-09
3.48123e-09
-1.32758e-09
3.46927e-09
7.45011e-12
-4.48605e-06
4.48521e-06
-4.48603e-06
4.48519e-06
-1.07516e-11
-2.66062e-12
-1.27305e-05
-7.1035e-10
1.27283e-05
2.94077e-09
-1.27305e-05
-7.11333e-10
-1.02497e-12
1.27283e-05
2.94027e-09
-3.67425e-12
-6.69701e-10
2.61579e-09
-6.7063e-10
-2.23894e-13
2.61407e-09
-1.61348e-12
-4.48452e-06
4.48381e-06
-4.48454e-06
-1.36021e-12
4.48382e-06
-2.8598e-12
-4.88217e-13
-7.04998e-13
-1.27306e-05
-7.10621e-10
1.27284e-05
2.9402e-09
-1.27306e-05
-7.10641e-10
-4.84774e-13
1.27284e-05
2.94001e-09
-2.19526e-13
-6.71379e-10
2.61494e-09
-6.72152e-10
-2.4661e-13
2.61576e-09
-8.12938e-13
-4.48455e-06
4.48384e-06
-4.48456e-06
-4.57376e-13
4.48385e-06
-2.59317e-13
-2.29151e-13
4.48829e-14
-1.27307e-05
-7.10694e-10
1.27284e-05
2.94014e-09
-1.27307e-05
-7.10879e-10
5.6846e-13
1.27284e-05
2.94078e-09
3.6563e-14
-6.72505e-10
2.61647e-09
-6.72786e-10
3.06989e-13
2.61739e-09
5.62842e-14
-4.48457e-06
4.48386e-06
-4.48457e-06
5.61877e-13
4.48386e-06
5.29679e-14
3.33181e-13
7.60297e-13
-1.27306e-05
-7.11174e-10
1.27284e-05
2.94185e-09
-1.27306e-05
-7.11454e-10
1.05567e-12
1.27284e-05
2.94306e-09
2.53608e-13
-6.72969e-10
2.61843e-09
-6.72662e-10
2.39442e-13
2.61909e-09
8.98298e-13
-4.48456e-06
4.48385e-06
-4.48455e-06
1.42954e-12
4.48384e-06
3.53167e-13
5.32561e-13
2.7061e-12
-1.27306e-05
-7.12387e-10
1.27283e-05
2.94384e-09
-1.27305e-05
-7.11502e-10
1.27283e-05
2.94475e-09
3.704e-12
-6.7224e-10
2.61927e-09
-6.71466e-10
2.62157e-09
1.65472e-12
-4.48454e-06
4.48383e-06
-4.48452e-06
4.48381e-06
2.86585e-12
-2.7833e-12
-1.27256e-05
-1.08465e-09
1.27222e-05
4.46386e-09
-1.27256e-05
-1.08548e-09
-1.6599e-12
1.27222e-05
4.4624e-09
-2.75878e-12
-8.51795e-10
3.54824e-09
-8.52233e-10
-1.38848e-12
3.54698e-09
-1.14106e-12
-4.48296e-06
4.48188e-06
-4.48297e-06
-2.33811e-12
4.48189e-06
-1.40179e-12
-1.96629e-12
-1.60818e-12
-1.27257e-05
-1.08374e-09
1.27223e-05
4.46193e-09
-1.27257e-05
-1.08339e-09
-9.42324e-13
1.27223e-05
4.46088e-09
-1.14127e-12
-8.50811e-10
3.54651e-09
-8.5058e-10
-6.85888e-13
3.54579e-09
-1.7572e-12
-4.48299e-06
4.4819e-06
-4.483e-06
-9.25577e-13
4.48191e-06
-1.31429e-12
-6.73165e-13
6.78041e-14
-1.27257e-05
-1.08321e-09
1.27224e-05
4.46039e-09
-1.27257e-05
-1.08326e-09
1.07265e-12
1.27224e-05
4.46059e-09
5.64029e-14
-8.50512e-10
3.54556e-09
-8.50616e-10
7.93533e-13
3.54594e-09
6.99554e-14
-4.48301e-06
4.48192e-06
-4.48301e-06
1.06009e-12
4.48192e-06
6.18212e-14
7.91571e-13
1.72036e-12
-1.27257e-05
-1.08354e-09
1.27223e-05
4.46146e-09
-1.27257e-05
-1.08397e-09
1.73441e-12
1.27223e-05
4.46284e-09
1.23555e-12
-8.5088e-10
3.54689e-09
-8.51277e-10
1.45333e-12
3.54823e-09
1.87795e-12
-4.483e-06
4.48191e-06
-4.48299e-06
2.43375e-12
4.4819e-06
1.42078e-12
2.05527e-12
2.80042e-12
-1.27256e-05
-1.08577e-09
1.27222e-05
4.46355e-09
-1.27256e-05
-1.08497e-09
1.27222e-05
4.46512e-09
2.79125e-12
-8.52829e-10
3.54913e-09
-8.52448e-10
3.55063e-09
1.17877e-12
-4.48297e-06
4.48189e-06
-4.48296e-06
4.48188e-06
1.44996e-12
-3.18115e-12
-1.27181e-05
-1.64529e-09
1.27131e-05
6.62798e-09
-1.27181e-05
-1.64695e-09
-2.06291e-12
1.27132e-05
6.62609e-09
-2.86098e-12
-1.33895e-09
5.44139e-09
-1.34019e-09
-1.86392e-12
5.43978e-09
-7.6975e-13
-4.48054e-06
4.4789e-06
-4.48055e-06
-2.94491e-12
4.4789e-06
-8.77224e-13
-2.62204e-12
-2.33099e-12
-1.27182e-05
-1.64455e-09
1.27132e-05
6.62561e-09
-1.27182e-05
-1.64397e-09
-1.41749e-12
1.27133e-05
6.62407e-09
-1.97501e-12
-1.33815e-09
5.43929e-09
-1.33767e-09
-1.17451e-12
5.43799e-09
-2.49714e-12
-4.48056e-06
4.47892e-06
-4.48057e-06
-1.39165e-12
4.47893e-06
-2.1255e-12
-1.15419e-12
7.9934e-14
-1.27183e-05
-1.64362e-09
1.27133e-05
6.62322e-09
-1.27183e-05
-1.64362e-09
1.57242e-12
1.27133e-05
6.62324e-09
7.51311e-14
-1.33739e-09
5.4373e-09
-1.33741e-09
1.31872e-12
5.43739e-09
7.8755e-14
-4.48058e-06
4.47894e-06
-4.48058e-06
1.54344e-12
4.47894e-06
7.47513e-14
1.29706e-12
2.46781e-12
-1.27182e-05
-1.64398e-09
1.27133e-05
6.62415e-09
-1.27182e-05
-1.64456e-09
2.15522e-12
1.27132e-05
6.62573e-09
2.09811e-12
-1.33772e-09
5.43824e-09
-1.33823e-09
1.95046e-12
5.43969e-09
2.63454e-12
-4.48058e-06
4.47893e-06
-4.48056e-06
3.05655e-12
4.47892e-06
2.25155e-12
2.72744e-12
3.18774e-12
-1.27181e-05
-1.64696e-09
1.27132e-05
6.62626e-09
-1.27181e-05
-1.64532e-09
1.27131e-05
6.62815e-09
2.91049e-12
-1.3403e-09
5.44029e-09
-1.33908e-09
5.44194e-09
8.1269e-13
-4.48055e-06
4.47891e-06
-4.48054e-06
4.4789e-06
9.65187e-13
-3.89018e-12
-1.27073e-05
-2.28138e-09
1.27005e-05
9.10219e-09
-1.27073e-05
-2.28385e-09
-2.40056e-12
1.27005e-05
9.09985e-09
-3.43071e-12
-1.93622e-09
7.75444e-09
-1.93827e-09
-2.21081e-12
7.7524e-09
-5.94983e-13
-4.47696e-06
4.47468e-06
-4.47697e-06
-3.5542e-12
4.47469e-06
-6.12563e-13
-3.21381e-12
-2.94185e-12
-1.27074e-05
-2.28078e-09
1.27006e-05
9.09945e-09
-1.27074e-05
-2.28006e-09
-1.85471e-12
1.27006e-05
9.09756e-09
-2.62416e-12
-1.93557e-09
7.75196e-09
-1.93492e-09
-1.62729e-12
7.75025e-09
-3.14918e-12
-4.47698e-06
4.4747e-06
-4.47699e-06
-1.81552e-12
4.47471e-06
-2.80696e-12
-1.59538e-12
7.18027e-14
-1.27075e-05
-2.27959e-09
1.27006e-05
9.09648e-09
-1.27075e-05
-2.27959e-09
1.99207e-12
1.27006e-05
9.09647e-09
7.48272e-14
-1.93451e-09
7.74929e-09
-1.9345e-09
1.77026e-12
7.74929e-09
7.03621e-14
-4.477e-06
4.47472e-06
-4.477e-06
1.94928e-12
4.47472e-06
7.34604e-14
1.73469e-12
3.06346e-12
-1.27074e-05
-2.28004e-09
1.27006e-05
9.09754e-09
-1.27074e-05
-2.28075e-09
2.48947e-12
1.27006e-05
9.09941e-09
2.74752e-12
-1.93491e-09
7.75025e-09
-1.93555e-09
2.30332e-12
7.75196e-09
3.26877e-12
-4.47699e-06
4.47471e-06
-4.47698e-06
3.65262e-12
4.4747e-06
2.9287e-12
3.31786e-12
3.90427e-12
-1.27074e-05
-2.28382e-09
1.27005e-05
9.0998e-09
-1.27073e-05
-2.28135e-09
1.27005e-05
9.10214e-09
3.48505e-12
-1.93824e-09
7.7524e-09
-1.9362e-09
7.75444e-09
6.41123e-13
-4.47697e-06
4.47469e-06
-4.47696e-06
4.47468e-06
7.1757e-13
-4.84622e-12
-1.26928e-05
-2.99118e-09
1.26839e-05
1.18741e-08
-1.26928e-05
-2.99446e-09
-2.77639e-12
1.26839e-05
1.18712e-08
-4.26578e-12
-2.59944e-09
1.03415e-08
-2.60227e-09
-2.55845e-12
1.03389e-08
-5.6679e-13
-4.47208e-06
4.46909e-06
-4.47209e-06
-4.21921e-12
4.4691e-06
-5.39733e-13
-3.83871e-12
-3.50042e-12
-1.26928e-05
-2.99065e-09
1.2684e-05
1.18709e-08
-1.26929e-05
-2.98982e-09
-2.24658e-12
1.2684e-05
1.18687e-08
-3.19451e-12
-2.59888e-09
1.03386e-08
-2.59811e-09
-2.03553e-12
1.03366e-08
-3.76159e-12
-4.4721e-06
4.46911e-06
-4.47211e-06
-2.19618e-12
4.46912e-06
-3.42296e-12
-1.99049e-12
6.53331e-14
-1.26929e-05
-2.98927e-09
1.2684e-05
1.18674e-08
-1.26929e-05
-2.98927e-09
2.37505e-12
1.2684e-05
1.18674e-08
6.43458e-14
-2.59761e-09
1.03354e-08
-2.5976e-09
2.16115e-12
1.03354e-08
6.42787e-14
-4.47212e-06
4.46913e-06
-4.47212e-06
2.32079e-12
4.46913e-06
6.28564e-14
2.11302e-12
3.61117e-12
-1.26929e-05
-2.98981e-09
1.2684e-05
1.18687e-08
-1.26928e-05
-2.99064e-09
2.8494e-12
1.2684e-05
1.18708e-08
3.30294e-12
-2.5981e-09
1.03365e-08
-2.59886e-09
2.6371e-12
1.03385e-08
3.87259e-12
-4.47211e-06
4.46912e-06
-4.4721e-06
4.30758e-12
4.46911e-06
3.53203e-12
3.92977e-12
4.86289e-12
-1.26928e-05
-2.99445e-09
1.26839e-05
1.18711e-08
-1.26928e-05
-2.99117e-09
1.26839e-05
1.18741e-08
4.31675e-12
-2.60225e-09
1.03389e-08
-2.59941e-09
1.03414e-08
5.99264e-13
-4.47209e-06
4.4691e-06
-4.47208e-06
4.46909e-06
6.12932e-13
-5.95865e-12
-1.2674e-05
-3.7984e-09
1.26628e-05
1.50205e-08
-1.2674e-05
-3.80255e-09
-3.17515e-12
1.26628e-05
1.50169e-08
-5.30762e-12
-3.34639e-09
1.32566e-08
-3.35004e-09
-2.94215e-12
1.32535e-08
-5.36638e-13
-4.46574e-06
4.46195e-06
-4.46575e-06
-4.92845e-12
4.46195e-06
-5.2654e-13
-4.52161e-12
-4.03967e-12
-1.2674e-05
-3.79791e-09
1.26628e-05
1.50167e-08
-1.26741e-05
-3.79699e-09
-2.61192e-12
1.26629e-05
1.50143e-08
-3.73057e-12
-3.34587e-09
1.32532e-08
-3.345e-09
-2.4046e-12
1.32509e-08
-4.37031e-12
-4.46576e-06
4.46197e-06
-4.46577e-06
-2.55457e-12
4.46198e-06
-4.02285e-12
-2.35159e-12
7.43453e-14
-1.26741e-05
-3.79637e-09
1.26629e-05
1.50128e-08
-1.26741e-05
-3.79637e-09
2.75506e-12
1.26629e-05
1.50128e-08
6.88722e-14
-3.34442e-09
1.32496e-08
-3.34442e-09
2.53762e-12
1.32496e-08
7.19382e-14
-4.46578e-06
4.46198e-06
-4.46578e-06
2.69237e-12
4.46198e-06
6.68456e-14
2.47969e-12
4.16396e-12
-1.26741e-05
-3.79698e-09
1.26629e-05
1.50143e-08
-1.26741e-05
-3.79791e-09
3.25305e-12
1.26628e-05
1.50167e-08
3.84555e-12
-3.34499e-09
1.32509e-08
-3.34586e-09
3.01947e-12
1.32532e-08
4.49406e-12
-4.46578e-06
4.46198e-06
-4.46576e-06
5.02578e-12
4.46197e-06
4.13782e-12
4.61779e-12
5.9439e-12
-1.2674e-05
-3.80255e-09
1.26628e-05
1.50169e-08
-1.2674e-05
-3.79838e-09
1.26628e-05
1.50205e-08
5.34137e-12
-3.35003e-09
1.32534e-08
-3.34637e-09
1.32566e-08
5.59802e-13
-4.46575e-06
4.46196e-06
-4.46575e-06
4.46195e-06
5.95076e-13
-7.07327e-12
-1.26504e-05
-4.73234e-09
1.26365e-05
1.86481e-08
-1.26504e-05
-4.73753e-09
-3.57701e-12
1.26365e-05
1.86438e-08
-6.40575e-12
-4.20687e-09
1.66049e-08
-4.21145e-09
-3.33614e-12
1.6601e-08
-3.65403e-13
-4.45774e-06
4.45301e-06
-4.45775e-06
-5.63462e-12
4.45302e-06
-4.1849e-13
-5.22379e-12
-4.59353e-12
-1.26504e-05
-4.73199e-09
1.26365e-05
1.86437e-08
-1.26505e-05
-4.73096e-09
-2.98142e-12
1.26366e-05
1.86409e-08
-4.27126e-12
-4.20642e-09
1.66009e-08
-4.20545e-09
-2.76837e-12
1.65983e-08
-4.98877e-12
-4.45776e-06
4.45303e-06
-4.45777e-06
-2.9137e-12
4.45304e-06
-4.63122e-12
-2.70684e-12
8.05235e-14
-1.26505e-05
-4.73028e-09
1.26366e-05
1.86393e-08
-1.26505e-05
-4.73028e-09
3.1369e-12
1.26366e-05
1.86394e-08
7.60816e-14
-4.20482e-09
1.65968e-08
-4.20482e-09
2.91584e-12
1.65968e-08
7.94866e-14
-4.45778e-06
4.45304e-06
-4.45778e-06
3.06624e-12
4.45304e-06
7.42194e-14
2.84983e-12
4.72469e-12
-1.26505e-05
-4.73096e-09
1.26366e-05
1.8641e-08
-1.26504e-05
-4.732e-09
3.66059e-12
1.26365e-05
1.86437e-08
4.39972e-12
-4.20546e-09
1.65983e-08
-4.20643e-09
3.42633e-12
1.66009e-08
5.12428e-12
-4.45777e-06
4.45304e-06
-4.45776e-06
5.74427e-12
4.45303e-06
4.76084e-12
5.33649e-12
7.08169e-12
-1.26504e-05
-4.73756e-09
1.26365e-05
1.86438e-08
-1.26504e-05
-4.73236e-09
1.26365e-05
1.86482e-08
6.44375e-12
-4.21146e-09
1.66011e-08
-4.20686e-09
1.66049e-08
4.04423e-13
-4.45775e-06
4.45302e-06
-4.45774e-06
4.45301e-06
5.09238e-13
-8.33406e-12
-1.26212e-05
-5.81487e-09
1.26042e-05
2.28369e-08
-1.26212e-05
-5.82127e-09
-3.97704e-12
1.26042e-05
2.28318e-08
-7.55244e-12
-5.20139e-09
2.046e-08
-5.20707e-09
-3.73039e-12
2.04554e-08
-1.24993e-13
-4.44781e-06
4.44199e-06
-4.44781e-06
-6.36463e-12
4.442e-06
-2.02901e-13
-5.92632e-12
-5.14294e-12
-1.26213e-05
-5.8147e-09
1.26043e-05
2.28319e-08
-1.26213e-05
-5.81356e-09
-3.34605e-12
1.26043e-05
2.28288e-08
-4.81584e-12
-5.2011e-09
2.04554e-08
-5.20002e-09
-3.13012e-12
2.04525e-08
-5.61696e-12
-4.44782e-06
4.44201e-06
-4.44783e-06
-3.27143e-12
4.44202e-06
-5.24407e-12
-3.05964e-12
9.35257e-14
-1.26213e-05
-5.81282e-09
1.26043e-05
2.2827e-08
-1.26213e-05
-5.81282e-09
3.52588e-12
1.26043e-05
2.2827e-08
8.66196e-14
-5.19932e-09
2.04508e-08
-5.19932e-09
3.29622e-12
2.04509e-08
9.1702e-14
-4.44784e-06
4.44202e-06
-4.44784e-06
3.44731e-12
4.44202e-06
8.40123e-14
3.22218e-12
5.29625e-12
-1.26213e-05
-5.81357e-09
1.26043e-05
2.28288e-08
-1.26213e-05
-5.81471e-09
4.07672e-12
1.26043e-05
2.28319e-08
4.95858e-12
-5.20003e-09
2.04525e-08
-5.20111e-09
3.83197e-12
2.04554e-08
5.77459e-12
-4.44783e-06
4.44202e-06
-4.44783e-06
6.49437e-12
4.44201e-06
5.39128e-12
6.05484e-12
8.33458e-12
-1.26212e-05
-5.82129e-09
1.26042e-05
2.28319e-08
-1.26212e-05
-5.81488e-09
1.26042e-05
2.2837e-08
7.61249e-12
-5.2071e-09
2.04555e-08
-5.2014e-09
2.04601e-08
1.71626e-13
-4.44782e-06
4.442e-06
-4.44781e-06
4.44199e-06
3.07646e-13
-9.77224e-12
-1.25856e-05
-7.07471e-09
1.2565e-05
2.76952e-08
-1.25857e-05
-7.08251e-09
-4.39913e-12
1.2565e-05
2.76892e-08
-8.89263e-12
-6.36114e-09
2.49397e-08
-6.36811e-09
-4.13973e-12
2.49343e-08
1.67451e-13
-4.43563e-06
4.42856e-06
-4.43564e-06
-7.14364e-12
4.42856e-06
7.14899e-14
-6.6792e-12
-5.71261e-12
-1.25857e-05
-7.0748e-09
1.25651e-05
2.76894e-08
-1.25857e-05
-7.07355e-09
-3.72469e-12
1.25651e-05
2.7686e-08
-5.37184e-12
-6.36105e-09
2.49344e-08
-6.35987e-09
-3.49841e-12
2.49312e-08
-6.27548e-12
-4.43565e-06
4.42857e-06
-4.43566e-06
-3.64272e-12
4.42858e-06
-5.88533e-12
-3.42176e-12
1.05081e-13
-1.25857e-05
-7.07275e-09
1.25651e-05
2.76841e-08
-1.25857e-05
-7.07276e-09
3.92705e-12
1.25651e-05
2.76841e-08
9.88921e-14
-6.35911e-09
2.49294e-08
-6.35911e-09
3.68845e-12
2.49294e-08
1.03484e-13
-4.43566e-06
4.42859e-06
-4.43566e-06
3.84126e-12
4.42859e-06
9.69117e-14
3.60742e-12
5.88594e-12
-1.25857e-05
-7.07356e-09
1.25651e-05
2.76861e-08
-1.25857e-05
-7.07481e-09
4.50956e-12
1.25651e-05
2.76895e-08
5.53546e-12
-6.35988e-09
2.49313e-08
-6.36107e-09
4.25487e-12
2.49345e-08
6.45468e-12
-4.43566e-06
4.42858e-06
-4.43565e-06
7.29168e-12
4.42857e-06
6.05377e-12
6.83003e-12
9.75648e-12
-1.25857e-05
-7.08254e-09
1.2565e-05
2.76893e-08
-1.25856e-05
-7.07473e-09
1.2565e-05
2.76953e-08
8.94769e-12
-6.36814e-09
2.49344e-08
-6.36115e-09
2.49398e-08
-1.19711e-13
-4.43564e-06
4.42856e-06
-4.43563e-06
4.42856e-06
6.0977e-14
-1.13296e-11
-1.25426e-05
-8.53444e-09
1.25179e-05
3.33064e-08
-1.25426e-05
-8.54385e-09
-4.84729e-12
1.25179e-05
3.32994e-08
-1.03651e-11
-7.70226e-09
3.01022e-08
-7.71069e-09
-4.57171e-12
3.00959e-08
5.53697e-13
-4.42086e-06
4.41232e-06
-4.42086e-06
-7.96179e-12
4.41233e-06
4.01203e-13
-7.4668e-12
-6.31358e-12
-1.25427e-05
-8.53487e-09
1.25179e-05
3.32998e-08
-1.25427e-05
-8.53352e-09
-4.12968e-12
1.25179e-05
3.32961e-08
-5.95118e-12
-7.70245e-09
3.00962e-08
-7.70117e-09
-3.88538e-12
3.00927e-08
-6.96827e-12
-4.42087e-06
4.41233e-06
-4.42088e-06
-4.03671e-12
4.41234e-06
-6.55208e-12
-3.79911e-12
1.05048e-13
-1.25427e-05
-8.53267e-09
1.2518e-05
3.32939e-08
-1.25427e-05
-8.53267e-09
4.3293e-12
1.2518e-05
3.32939e-08
1.05866e-13
-7.70035e-09
3.00907e-08
-7.70036e-09
4.0872e-12
3.00907e-08
1.0357e-13
-4.42088e-06
4.41234e-06
-4.42088e-06
4.23503e-12
4.41234e-06
1.04318e-13
3.99796e-12
6.47744e-12
-1.25427e-05
-8.53353e-09
1.25179e-05
3.32961e-08
-1.25427e-05
-8.53489e-09
4.94476e-12
1.25179e-05
3.32998e-08
6.12033e-12
-7.70118e-09
3.00927e-08
-7.70247e-09
4.68271e-12
3.00963e-08
7.14247e-12
-4.42088e-06
4.41234e-06
-4.42087e-06
8.10173e-12
4.41233e-06
6.72996e-12
7.62124e-12
1.13519e-11
-1.25427e-05
-8.54389e-09
1.25179e-05
3.32994e-08
-1.25426e-05
-8.53447e-09
1.25179e-05
3.33065e-08
1.04275e-11
-7.71073e-09
3.0096e-08
-7.70229e-09
3.01023e-08
-5.04366e-13
-4.42086e-06
4.41233e-06
-4.42086e-06
4.41232e-06
-2.80011e-13
-1.31204e-11
-1.24911e-05
-1.02193e-08
1.24615e-05
3.97639e-08
-1.24911e-05
-1.02305e-08
-5.28529e-12
1.24615e-05
3.97558e-08
-1.20424e-11
-9.25964e-09
3.60795e-08
-9.26977e-09
-5.00975e-12
3.60722e-08
1.04157e-12
-4.40306e-06
4.39284e-06
-4.40307e-06
-8.80088e-12
4.39284e-06
8.13491e-13
-8.29339e-12
-6.90586e-12
-1.24911e-05
-1.02201e-08
1.24616e-05
3.97564e-08
-1.24911e-05
-1.02187e-08
-4.53582e-12
1.24616e-05
3.97523e-08
-6.5441e-12
-9.2602e-09
3.60727e-08
-9.2588e-09
-4.29051e-12
3.60688e-08
-7.67093e-12
-4.40307e-06
4.39285e-06
-4.40308e-06
-4.43564e-12
4.39286e-06
-7.24634e-12
-4.19429e-12
1.00836e-13
-1.24912e-05
-1.02177e-08
1.24616e-05
3.975e-08
-1.24912e-05
-1.02178e-08
4.72746e-12
1.24616e-05
3.975e-08
1.02226e-13
-9.25793e-09
3.60666e-08
-9.25793e-09
4.48524e-12
3.60666e-08
9.959e-14
-4.40308e-06
4.39286e-06
-4.40308e-06
4.62387e-12
4.39286e-06
1.01347e-13
4.3873e-12
7.06391e-12
-1.24911e-05
-1.02187e-08
1.24616e-05
3.97524e-08
-1.24911e-05
-1.02201e-08
5.37913e-12
1.24616e-05
3.97564e-08
6.7067e-12
-9.25881e-09
3.60688e-08
-9.26021e-09
5.11557e-12
3.60727e-08
7.83461e-12
-4.40308e-06
4.39286e-06
-4.40307e-06
8.93074e-12
4.39285e-06
7.41734e-12
8.4381e-12
1.31313e-11
-1.24911e-05
-1.02306e-08
1.24615e-05
3.97559e-08
-1.24911e-05
-1.02193e-08
1.24615e-05
3.9764e-08
1.21007e-11
-9.26981e-09
3.60723e-08
-9.25966e-09
3.60796e-08
-9.95382e-13
-4.40307e-06
4.39285e-06
-4.40306e-06
4.39284e-06
-7.15338e-13
-1.5051e-11
-1.24297e-05
-1.21528e-08
1.23947e-05
4.71548e-08
-1.24297e-05
-1.21662e-08
-5.73265e-12
1.23947e-05
4.71455e-08
-1.38804e-11
-1.10447e-08
4.29106e-08
-1.10567e-08
-5.44324e-12
4.29023e-08
1.68538e-12
-4.38179e-06
4.36964e-06
-4.3818e-06
-9.63844e-12
4.36964e-06
1.37e-12
-9.11289e-12
-7.50457e-12
-1.24297e-05
-1.21542e-08
1.23947e-05
4.71463e-08
-1.24297e-05
-1.21526e-08
-4.94471e-12
1.23948e-05
4.71418e-08
-7.12612e-12
-1.10457e-08
4.29029e-08
-1.10442e-08
-4.68911e-12
4.28987e-08
-8.38209e-12
-4.3818e-06
4.36965e-06
-4.38181e-06
-4.83951e-12
4.36965e-06
-7.93724e-12
-4.58705e-12
9.65489e-14
-1.24298e-05
-1.21516e-08
1.23948e-05
4.71393e-08
-1.24298e-05
-1.21516e-08
5.13126e-12
1.23948e-05
4.71393e-08
9.88915e-14
-1.10432e-08
4.28963e-08
-1.10432e-08
4.87794e-12
4.28963e-08
9.22785e-14
-4.38181e-06
4.36966e-06
-4.38181e-06
5.01907e-12
4.36966e-06
9.62221e-14
4.77052e-12
7.65998e-12
-1.24297e-05
-1.21526e-08
1.23948e-05
4.71419e-08
-1.24297e-05
-1.21542e-08
5.82688e-12
1.23947e-05
4.71464e-08
7.28599e-12
-1.10442e-08
4.28987e-08
-1.10457e-08
5.54835e-12
4.2903e-08
8.53986e-12
-4.38181e-06
4.36965e-06
-4.38181e-06
9.76387e-12
4.36965e-06
8.10159e-12
9.25389e-12
1.50675e-11
-1.24297e-05
-1.21662e-08
1.23947e-05
4.71456e-08
-1.24297e-05
-1.21528e-08
1.23947e-05
4.71549e-08
1.39338e-11
-1.10568e-08
4.29023e-08
-1.10447e-08
4.29107e-08
-1.63898e-12
-4.3818e-06
4.36965e-06
-4.3818e-06
4.36964e-06
-1.27619e-12
-1.72087e-11
-1.23571e-05
-1.43647e-08
1.23159e-05
5.55895e-08
-1.23571e-05
-1.43805e-08
-6.20732e-12
1.23159e-05
5.55789e-08
-1.58858e-11
-1.30915e-08
5.07237e-08
-1.31057e-08
-5.8955e-12
5.07141e-08
2.44818e-12
-4.35655e-06
4.34218e-06
-4.35655e-06
-1.05483e-11
4.34218e-06
2.07521e-12
-9.9686e-12
-8.15055e-12
-1.23571e-05
-1.43668e-08
1.23159e-05
5.55798e-08
-1.23571e-05
-1.4365e-08
-5.38853e-12
1.23159e-05
5.5575e-08
-7.73576e-12
-1.3093e-08
5.07149e-08
-1.30914e-08
-5.10797e-12
5.07104e-08
-9.16047e-12
-4.35655e-06
4.34219e-06
-4.35656e-06
-5.27832e-12
4.34219e-06
-8.66787e-12
-5.00167e-12
1.00052e-13
-1.23571e-05
-1.4364e-08
1.23159e-05
5.55722e-08
-1.23571e-05
-1.4364e-08
5.57709e-12
1.23159e-05
5.55722e-08
9.10398e-14
-1.30904e-08
5.07078e-08
-1.30904e-08
5.28893e-12
5.07078e-08
9.6209e-14
-4.35656e-06
4.34219e-06
-4.35656e-06
5.45996e-12
4.34219e-06
9.16735e-14
5.17667e-12
8.30818e-12
-1.23571e-05
-1.4365e-08
1.23159e-05
5.55751e-08
-1.23571e-05
-1.43668e-08
6.30611e-12
1.23159e-05
5.55799e-08
7.8917e-12
-1.30914e-08
5.07104e-08
-1.30931e-08
6.00149e-12
5.07151e-08
9.32065e-12
-4.35656e-06
4.34219e-06
-4.35656e-06
1.06799e-11
4.34219e-06
8.82703e-12
1.01105e-11
1.72208e-11
-1.23571e-05
-1.43806e-08
1.23159e-05
5.5579e-08
-1.23571e-05
-1.43647e-08
1.23159e-05
5.55896e-08
1.59497e-11
-1.31058e-08
5.07142e-08
-1.30915e-08
5.07238e-08
-2.39858e-12
-4.35655e-06
4.34218e-06
-4.35655e-06
4.34218e-06
-1.9701e-12
-1.95916e-11
-1.22717e-05
-1.68593e-08
1.22235e-05
6.50798e-08
-1.22717e-05
-1.68778e-08
-6.73111e-12
1.22235e-05
6.50678e-08
-1.81256e-11
-1.54196e-08
5.95899e-08
-1.54364e-08
-6.39439e-12
5.9579e-08
3.31588e-12
-4.32676e-06
4.30989e-06
-4.32676e-06
-1.1518e-11
4.3099e-06
2.88879e-12
-1.09093e-11
-8.84492e-12
-1.22717e-05
-1.68622e-08
1.22235e-05
6.5069e-08
-1.22718e-05
-1.68602e-08
-5.86237e-12
1.22236e-05
6.50637e-08
-8.40593e-12
-1.54218e-08
5.95801e-08
-1.542e-08
-5.56534e-12
5.95751e-08
-9.99383e-12
-4.32676e-06
4.3099e-06
-4.32677e-06
-5.74414e-12
4.3099e-06
-9.47333e-12
-5.45246e-12
1.05598e-13
-1.22718e-05
-1.68591e-08
1.22236e-05
6.50607e-08
-1.22718e-05
-1.68591e-08
6.06823e-12
1.22236e-05
6.50607e-08
9.94168e-14
-1.5419e-08
5.95722e-08
-1.5419e-08
5.75826e-12
5.95722e-08
1.07255e-13
-4.32677e-06
4.3099e-06
-4.32677e-06
5.94695e-12
4.3099e-06
9.90369e-14
5.64084e-12
9.01594e-12
-1.22718e-05
-1.68602e-08
1.22236e-05
6.50638e-08
-1.22717e-05
-1.68622e-08
6.83319e-12
1.22235e-05
6.50691e-08
8.56737e-12
-1.542e-08
5.95751e-08
-1.54219e-08
6.49807e-12
5.95802e-08
1.01741e-11
-4.32677e-06
4.3099e-06
-4.32676e-06
1.16688e-11
4.3099e-06
9.64155e-12
1.10564e-11
1.96018e-11
-1.22717e-05
-1.68779e-08
1.22235e-05
6.5068e-08
-1.22717e-05
-1.68594e-08
1.22235e-05
6.508e-08
1.81885e-11
-1.54364e-08
5.95792e-08
-1.54196e-08
5.95901e-08
-3.26668e-12
-4.32676e-06
4.3099e-06
-4.32676e-06
4.3099e-06
-2.77696e-12
-2.22287e-11
-1.2172e-05
-1.96722e-08
1.21159e-05
7.57603e-08
-1.2172e-05
-1.96938e-08
-7.26984e-12
1.21159e-05
7.57467e-08
-2.06132e-11
-1.80482e-08
6.95793e-08
-1.80678e-08
-6.92328e-12
6.95669e-08
4.33256e-12
-4.29184e-06
4.27217e-06
-4.29185e-06
-1.25041e-11
4.27217e-06
3.8278e-12
-1.18852e-11
-9.54441e-12
-1.2172e-05
-1.9676e-08
1.2116e-05
7.5748e-08
-1.2172e-05
-1.96739e-08
-6.3413e-12
1.2116e-05
7.57423e-08
-9.10039e-12
-1.80513e-08
6.95682e-08
-1.80493e-08
-6.03772e-12
6.95627e-08
-1.08421e-11
-4.29185e-06
4.27217e-06
-4.29185e-06
-6.21882e-12
4.27217e-06
-1.03106e-11
-5.91855e-12
1.14765e-13
-1.2172e-05
-1.96727e-08
1.2116e-05
7.5739e-08
-1.2172e-05
-1.96727e-08
6.56248e-12
1.2116e-05
7.5739e-08
1.133e-13
-1.80481e-08
6.95596e-08
-1.80481e-08
6.25369e-12
6.95597e-08
1.1225e-13
-4.29185e-06
4.27217e-06
-4.29185e-06
6.43598e-12
4.27217e-06
1.12117e-13
6.13025e-12
9.72989e-12
-1.2172e-05
-1.96739e-08
1.2116e-05
7.57424e-08
-1.2172e-05
-1.9676e-08
7.37911e-12
1.2116e-05
7.57482e-08
9.28119e-12
-1.80493e-08
6.95628e-08
-1.80513e-08
7.04077e-12
6.95683e-08
1.10381e-11
-4.29185e-06
4.27217e-06
-4.29185e-06
1.26717e-11
4.27217e-06
1.05001e-11
1.20535e-11
2.22305e-11
-1.2172e-05
-1.96939e-08
1.21159e-05
7.57469e-08
-1.2172e-05
-1.96723e-08
1.21159e-05
7.57605e-08
2.06829e-11
-1.80679e-08
6.95671e-08
-1.80482e-08
6.95795e-08
-4.27451e-12
-4.29185e-06
4.27217e-06
-4.29184e-06
4.27217e-06
-3.68994e-12
-2.50206e-11
-1.20562e-05
-2.28133e-08
1.19914e-05
8.7665e-08
-1.20562e-05
-2.28382e-08
-7.80642e-12
1.19914e-05
8.76496e-08
-2.3306e-11
-2.09949e-08
8.07559e-08
-2.10176e-08
-7.45439e-12
8.0742e-08
5.53949e-12
-4.25117e-06
4.22835e-06
-4.25117e-06
-1.35038e-11
4.22835e-06
4.92153e-12
-1.28642e-11
-1.02648e-11
-1.20562e-05
-2.28181e-08
1.19914e-05
8.76512e-08
-1.20562e-05
-2.28158e-08
-6.8429e-12
1.19914e-05
8.76449e-08
-9.79908e-12
-2.09989e-08
8.07434e-08
-2.09967e-08
-6.5218e-12
8.07375e-08
-1.17212e-11
-4.25117e-06
4.22835e-06
-4.25117e-06
-6.71596e-12
4.22835e-06
-1.11619e-11
-6.39917e-12
1.1333e-13
-1.20562e-05
-2.28145e-08
1.19914e-05
8.76413e-08
-1.20562e-05
-2.28146e-08
7.06292e-12
1.19914e-05
8.76414e-08
1.11235e-13
-2.09955e-08
8.07341e-08
-2.09955e-08
6.73766e-12
8.07341e-08
1.13271e-13
-4.25117e-06
4.22835e-06
-4.25117e-06
6.93043e-12
4.22835e-06
1.11109e-13
6.61021e-12
1.04447e-11
-1.20562e-05
-2.28158e-08
1.19914e-05
8.7645e-08
-1.20562e-05
-2.28182e-08
7.90816e-12
1.19914e-05
8.76514e-08
9.97823e-12
-2.09968e-08
8.07376e-08
-2.0999e-08
7.56479e-12
8.07436e-08
1.19095e-11
-4.25117e-06
4.22835e-06
-4.25117e-06
1.36577e-11
4.22835e-06
1.13511e-11
1.30321e-11
2.50325e-11
-1.20562e-05
-2.28383e-08
1.19914e-05
8.76498e-08
-1.20562e-05
-2.28134e-08
1.19914e-05
8.76652e-08
2.33744e-11
-2.10177e-08
8.07422e-08
-2.0995e-08
8.07562e-08
-5.4964e-12
-4.25117e-06
4.22835e-06
-4.25117e-06
4.22835e-06
-4.79825e-12
-2.807e-11
-1.19225e-05
-2.62929e-08
1.1848e-05
1.00831e-07
-1.19225e-05
-2.63216e-08
-8.37802e-12
1.1848e-05
1.00814e-07
-2.61634e-11
-2.42726e-08
9.31664e-08
-2.42988e-08
-8.0013e-12
9.31507e-08
6.92145e-12
-4.20407e-06
4.17777e-06
-4.20407e-06
-1.45283e-11
4.17777e-06
6.22852e-12
-1.38609e-11
-1.10142e-11
-1.19225e-05
-2.6299e-08
1.1848e-05
1.00816e-07
-1.19225e-05
-2.62964e-08
-7.35844e-12
1.1848e-05
1.00809e-07
-1.05309e-11
-2.42777e-08
9.31524e-08
-2.42753e-08
-7.03121e-12
9.31459e-08
-1.26307e-11
-4.20407e-06
4.17777e-06
-4.20407e-06
-7.22136e-12
4.17777e-06
-1.20491e-11
-6.89923e-12
1.32403e-13
-1.19225e-05
-2.6295e-08
1.1848e-05
1.00805e-07
-1.19225e-05
-2.62951e-08
7.61248e-12
1.1848e-05
1.00805e-07
1.1796e-13
-2.4274e-08
9.31422e-08
-2.4274e-08
7.25374e-12
9.31422e-08
1.33542e-13
-4.20407e-06
4.17776e-06
-4.20407e-06
7.47521e-12
4.17776e-06
1.17527e-13
7.12067e-12
1.12285e-11
-1.19225e-05
-2.62964e-08
1.1848e-05
1.00809e-07
-1.19225e-05
-2.6299e-08
8.51e-12
1.1848e-05
1.00816e-07
1.07138e-11
-2.42753e-08
9.3146e-08
-2.42778e-08
8.11176e-12
9.31526e-08
1.28535e-11
-4.20407e-06
4.17777e-06
-4.20407e-06
1.47002e-11
4.17777e-06
1.22446e-11
1.40316e-11
2.80377e-11
-1.19225e-05
-2.63216e-08
1.1848e-05
1.00814e-07
-1.19225e-05
-2.62931e-08
1.1848e-05
1.00831e-07
2.62373e-11
-2.42989e-08
9.31509e-08
-2.42727e-08
9.31667e-08
-6.88342e-12
-4.20407e-06
4.17777e-06
-4.20407e-06
4.17777e-06
-6.08788e-12
-3.14075e-11
-1.17691e-05
-3.01077e-08
1.1684e-05
1.15243e-07
-1.17691e-05
-3.01403e-08
-8.98905e-12
1.1684e-05
1.15224e-07
-2.92195e-11
-2.78774e-08
1.06793e-07
-2.79074e-08
-8.56542e-12
1.06775e-07
8.41086e-12
-4.14988e-06
4.11977e-06
-4.14989e-06
-1.55978e-11
4.11977e-06
7.75499e-12
-1.48667e-11
-1.17742e-11
-1.17691e-05
-3.0115e-08
1.1684e-05
1.15226e-07
-1.17691e-05
-3.01122e-08
-7.85575e-12
1.1684e-05
1.15218e-07
-1.12666e-11
-2.78837e-08
1.06777e-07
-2.7881e-08
-7.53033e-12
1.0677e-07
-1.3563e-11
-4.14988e-06
4.11977e-06
-4.14988e-06
-7.71395e-12
4.11976e-06
-1.29509e-11
-7.39152e-12
1.95533e-13
-1.17691e-05
-3.01107e-08
1.1684e-05
1.15214e-07
-1.17691e-05
-3.01107e-08
8.23549e-12
1.1684e-05
1.15214e-07
1.50754e-13
-2.78796e-08
1.06766e-07
-2.78797e-08
7.82739e-12
1.06766e-07
1.99007e-13
-4.14988e-06
4.11976e-06
-4.14988e-06
8.0989e-12
4.11976e-06
1.55837e-13
7.69356e-12
1.21091e-11
-1.17691e-05
-3.01122e-08
1.1684e-05
1.15218e-07
-1.17691e-05
-3.01151e-08
9.21812e-12
1.1684e-05
1.15226e-07
1.15331e-11
-2.78811e-08
1.0677e-07
-2.78838e-08
8.76692e-12
1.06777e-07
1.39028e-11
-4.14988e-06
4.11976e-06
-4.14989e-06
1.58432e-11
4.11977e-06
1.32261e-11
1.51158e-11
3.12813e-11
-1.17691e-05
-3.01404e-08
1.1684e-05
1.15224e-07
-1.17691e-05
-3.01078e-08
1.1684e-05
1.15243e-07
2.9348e-11
-2.79074e-08
1.06776e-07
-2.78776e-08
1.06793e-07
-8.38485e-12
-4.14989e-06
4.11977e-06
-4.14989e-06
4.11977e-06
-7.47005e-12
-3.49973e-11
-1.15942e-05
-3.42609e-08
1.14975e-05
1.30914e-07
-1.15941e-05
-3.42978e-08
-9.71182e-12
1.14975e-05
1.30892e-07
-3.25539e-11
-3.18297e-08
1.21713e-07
-3.18637e-08
-9.22525e-12
1.21694e-07
9.98674e-12
-4.08793e-06
4.05366e-06
-4.08793e-06
-1.67909e-11
4.05366e-06
9.38593e-12
-1.59721e-11
-1.26113e-11
-1.15941e-05
-3.42697e-08
1.14975e-05
1.30894e-07
-1.15941e-05
-3.42665e-08
-8.38904e-12
1.14975e-05
1.30886e-07
-1.20564e-11
-3.18372e-08
1.21696e-07
-3.18343e-08
-8.02963e-12
1.21688e-07
-1.4576e-11
-4.08793e-06
4.05366e-06
-4.08792e-06
-8.23622e-12
4.05365e-06
-1.39103e-11
-7.88166e-12
2.72903e-13
-1.15941e-05
-3.4265e-08
1.14975e-05
1.30882e-07
-1.15941e-05
-3.4265e-08
8.90726e-12
1.14975e-05
1.30882e-07
2.45959e-13
-3.18328e-08
1.21684e-07
-3.18328e-08
8.50014e-12
1.21684e-07
2.75861e-13
-4.08792e-06
4.05364e-06
-4.08792e-06
8.76381e-12
4.05364e-06
2.49449e-13
8.36325e-12
1.30531e-11
-1.15941e-05
-3.42666e-08
1.14975e-05
1.30886e-07
-1.15941e-05
-3.42697e-08
9.99225e-12
1.14975e-05
1.30895e-07
1.24748e-11
-3.18343e-08
1.21688e-07
-3.18373e-08
9.5396e-12
1.21696e-07
1.50282e-11
-4.08792e-06
4.05365e-06
-4.08793e-06
1.70923e-11
4.05366e-06
1.43409e-11
1.63446e-11
3.48017e-11
-1.15941e-05
-3.42979e-08
1.14975e-05
1.30893e-07
-1.15942e-05
-3.42612e-08
1.14975e-05
1.30914e-07
3.27495e-11
-3.18637e-08
1.21694e-07
-3.18299e-08
1.21714e-07
-9.96471e-12
-4.08793e-06
4.05366e-06
-4.08793e-06
4.05366e-06
-8.91765e-12
-3.83793e-11
-1.13959e-05
-3.87374e-08
1.12868e-05
1.47785e-07
-1.13958e-05
-3.87789e-08
-1.03326e-11
1.12868e-05
1.47761e-07
-3.61655e-11
-3.61033e-08
1.37826e-07
-3.61417e-08
-9.908e-12
1.37804e-07
1.19209e-11
-4.01754e-06
3.97879e-06
-4.01755e-06
-1.79698e-11
3.9788e-06
1.10149e-11
-1.71578e-11
-1.3433e-11
-1.13958e-05
-3.87476e-08
1.12868e-05
1.47763e-07
-1.13958e-05
-3.87442e-08
-9.00414e-12
1.12868e-05
1.47754e-07
-1.28697e-11
-3.61123e-08
1.37807e-07
-3.6109e-08
-8.57194e-12
1.37798e-07
-1.56219e-11
-4.01754e-06
3.97879e-06
-4.01753e-06
-8.86427e-12
3.97878e-06
-1.4921e-11
-8.42862e-12
1.67231e-13