/*--------------------------------*- C++ -*----------------------------------*\
  =========                 |
  \\      /  F ield         | OpenFOAM: The Open Source CFD Toolbox
   \\    /   O peration     | Website:  https://openfoam.org
    \\  /    A nd           | Version:  9
     \\/     M anipulation  |
\*---------------------------------------------------------------------------*/
FoamFile
{
    format      ascii;
    class       volVectorField;
    location    "0.5";
    object      U;
}
// * * * * * * * * * * * * * * * * * * * * * * * * * * * * * * * * * * * * * //

dimensions      [0 1 -1 0 0 0 0];

internalField   nonuniform List<vector> 
36360
(
(2.39418e-06 -0.0241933 -0.936522)
(2.37218e-06 -0.0241933 -6.45804e-09)
(3.4005e-06 -0.0241994 -0.945369)
(3.42174e-06 -0.0241994 7.02277e-09)
(3.86223e-07 -0.0085225 -0.924085)
(3.69271e-07 -0.00852245 -4.75026e-09)
(8.44701e-07 -0.00852586 -0.93249)
(8.48946e-07 -0.00852588 6.69619e-09)
(2.36785e-06 -0.0241933 -4.48174e-10)
(2.36784e-06 -0.0241934 -1.88306e-10)
(3.42863e-06 -0.0241995 3.03251e-10)
(3.431e-06 -0.0241996 -1.19896e-10)
(3.66041e-07 -0.00852246 -6.21594e-10)
(3.65792e-07 -0.00852248 -2.32141e-10)
(8.50102e-07 -0.00852591 4.18478e-10)
(8.50481e-07 -0.00852593 -6.83642e-11)
(2.36857e-06 -0.0241935 -5.33798e-11)
(2.36971e-06 -0.0241935 1.18882e-10)
(3.43245e-06 -0.0241996 -7.56795e-12)
(3.43399e-06 -0.0241996 1.12485e-10)
(3.65908e-07 -0.00852249 -4.19934e-11)
(3.66121e-07 -0.0085225 1.42975e-10)
(8.50776e-07 -0.00852595 1.19862e-11)
(8.51169e-07 -0.00852595 1.13725e-10)
(2.37114e-06 -0.0241934 2.1398e-10)
(2.37298e-06 -0.0241934 4.49779e-10)
(3.43546e-06 -0.0241996 2.12332e-10)
(3.43557e-06 -0.0241995 -2.39817e-10)
(3.66414e-07 -0.00852248 3.00041e-10)
(3.67001e-07 -0.00852247 6.65188e-10)
(8.51623e-07 -0.00852594 1.79995e-10)
(8.51878e-07 -0.00852592 -3.36885e-10)
(2.37864e-06 -0.0241933 6.52002e-09)
(2.40134e-06 -0.0241934 0.936522)
(3.4305e-06 -0.0241994 -7.00627e-09)
(3.41017e-06 -0.0241994 0.945369)
(3.70496e-07 -0.00852246 4.80577e-09)
(3.8756e-07 -0.00852251 0.924085)
(8.51194e-07 -0.0085259 -6.68037e-09)
(8.47161e-07 -0.00852588 0.93249)
(2.22827e-06 -0.0241861 -0.935802)
(2.22609e-06 -0.0241861 -2.32849e-09)
(2.06243e-06 -0.0241899 -0.935987)
(2.05979e-06 -0.0241899 -2.31108e-09)
(1.94214e-07 -0.00851998 -0.923383)
(1.87736e-07 -0.00852 -1.70856e-09)
(2.20643e-07 -0.00852119 -0.923563)
(2.14666e-07 -0.00852123 -1.98723e-09)
(2.22541e-06 -0.0241862 -1.22325e-09)
(2.22539e-06 -0.0241863 -7.19456e-10)
(2.06141e-06 -0.02419 -2.62603e-10)
(2.06296e-06 -0.0241901 -2.40826e-10)
(1.86032e-07 -0.00852003 -1.24865e-09)
(1.85877e-07 -0.00852005 -7.4102e-10)
(2.14574e-07 -0.00852126 -4.8065e-10)
(2.15204e-07 -0.00852128 -2.99423e-10)
(2.22553e-06 -0.0241864 -2.21957e-10)
(2.22608e-06 -0.0241864 3.23107e-10)
(2.06382e-06 -0.0241902 -8.99979e-11)
(2.06464e-06 -0.0241902 1.75097e-10)
(1.85882e-07 -0.00852006 -2.13359e-10)
(1.8596e-07 -0.00852007 3.35061e-10)
(2.15475e-07 -0.0085213 -8.13002e-11)
(2.15605e-07 -0.0085213 1.98222e-10)
(2.22697e-06 -0.0241863 8.02564e-10)
(2.22787e-06 -0.0241862 1.27823e-09)
(2.06534e-06 -0.0241901 3.05301e-10)
(2.06514e-06 -0.02419 2.96139e-10)
(1.86099e-07 -0.00852005 8.42951e-10)
(1.86385e-07 -0.00852003 1.32534e-09)
(2.15585e-07 -0.00852128 3.94926e-10)
(2.15178e-07 -0.00852126 5.46001e-10)
(2.22917e-06 -0.0241861 2.37467e-09)
(2.23167e-06 -0.0241861 0.935802)
(2.06444e-06 -0.02419 2.33803e-09)
(2.06753e-06 -0.0241899 0.935987)
(1.88194e-07 -0.00852001 1.76588e-09)
(1.94686e-07 -0.00851998 0.923383)
(2.15418e-07 -0.00852123 2.01739e-09)
(2.21416e-07 -0.0085212 0.923563)
(3.45474e-06 -0.0241758 -0.935062)
(3.44991e-06 -0.0241758 -2.84213e-09)
(2.72731e-06 -0.0241815 -0.93526)
(2.72318e-06 -0.0241815 -2.67241e-09)
(3.10641e-07 -0.00851672 -0.922662)
(3.00086e-07 -0.00851674 -1.83933e-09)
(2.33052e-07 -0.00851853 -0.922856)
(2.24442e-07 -0.00851855 -1.83863e-09)
(3.44771e-06 -0.0241759 -2.0371e-09)
(3.44668e-06 -0.024176 -1.36341e-09)
(2.72133e-06 -0.0241816 -1.68868e-09)
(2.72065e-06 -0.0241817 -1.04446e-09)
(2.967e-07 -0.00851676 -2.07568e-09)
(2.96089e-07 -0.00851679 -1.41755e-09)
(2.21709e-07 -0.00851857 -1.71313e-09)
(2.21267e-07 -0.0085186 -1.08814e-09)
(3.44617e-06 -0.024176 -4.49032e-10)
(3.44633e-06 -0.024176 5.96865e-10)
(2.72043e-06 -0.0241817 -3.29891e-10)
(2.72075e-06 -0.0241817 4.5376e-10)
(2.95919e-07 -0.0085168 -4.52234e-10)
(2.95935e-07 -0.0085168 6.06709e-10)
(2.21187e-07 -0.00851861 -3.31732e-10)
(2.21226e-07 -0.00851861 4.68617e-10)
(3.44715e-06 -0.024176 1.4983e-09)
(3.44843e-06 -0.0241759 2.1477e-09)
(2.72158e-06 -0.0241817 1.15729e-09)
(2.72277e-06 -0.0241816 1.78307e-09)
(2.96131e-07 -0.00851679 1.55943e-09)
(2.96767e-07 -0.00851676 2.19239e-09)
(2.2138e-07 -0.0085186 1.21434e-09)
(2.21887e-07 -0.00851857 1.82022e-09)
(3.45082e-06 -0.0241758 2.89999e-09)
(3.45575e-06 -0.0241758 0.935062)
(2.72499e-06 -0.0241815 2.73401e-09)
(2.72931e-06 -0.0241815 0.93526)
(3.00188e-07 -0.00851674 1.91233e-09)
(3.10769e-07 -0.00851672 0.922662)
(2.24687e-07 -0.00851855 1.91559e-09)
(2.33314e-07 -0.00851853 0.922856)
(5.302e-06 -0.0241601 -0.934293)
(5.2954e-06 -0.0241602 -3.42261e-09)
(4.33009e-06 -0.0241687 -0.93449)
(4.32448e-06 -0.0241688 -3.07456e-09)
(5.15977e-07 -0.00851161 -0.921913)
(5.00323e-07 -0.00851163 -1.92971e-09)
(4.08353e-07 -0.00851443 -0.922105)
(3.95422e-07 -0.00851445 -1.84336e-09)
(5.29243e-06 -0.0241603 -2.70609e-09)
(5.2908e-06 -0.0241603 -1.97809e-09)
(4.32189e-06 -0.0241688 -2.37811e-09)
(4.32053e-06 -0.0241689 -1.68007e-09)
(4.95372e-07 -0.00851165 -2.76562e-09)
(4.94369e-07 -0.00851168 -2.04777e-09)
(3.91286e-07 -0.00851447 -2.42675e-09)
(3.90471e-07 -0.0085145 -1.74113e-09)
(5.28984e-06 -0.0241604 -6.88063e-10)
(5.28986e-06 -0.0241604 8.66471e-10)
(4.31976e-06 -0.024169 -5.69533e-10)
(4.31983e-06 -0.024169 7.36899e-10)
(4.94025e-07 -0.00851169 -6.91508e-10)
(4.94021e-07 -0.00851169 8.69374e-10)
(3.90207e-07 -0.00851451 -5.7336e-10)
(3.90209e-07 -0.00851451 7.42094e-10)
(5.29084e-06 -0.0241603 2.14195e-09)
(5.29249e-06 -0.0241603 2.84308e-09)
(4.32071e-06 -0.0241689 1.83105e-09)
(4.32217e-06 -0.0241688 2.50481e-09)
(4.94353e-07 -0.00851168 2.21024e-09)
(4.95341e-07 -0.00851165 2.89923e-09)
(3.90475e-07 -0.0085145 1.89341e-09)
(3.91289e-07 -0.00851448 2.5522e-09)
(5.2955e-06 -0.0241602 3.48554e-09)
(5.30215e-06 -0.0241601 0.934293)
(4.32485e-06 -0.0241688 3.1612e-09)
(4.33054e-06 -0.0241687 0.93449)
(5.00288e-07 -0.00851163 2.01326e-09)
(5.15987e-07 -0.00851161 0.921913)
(3.95437e-07 -0.00851445 1.95234e-09)
(4.08414e-07 -0.00851443 0.922105)
(7.47402e-06 -0.0241379 -0.933496)
(7.46521e-06 -0.024138 -4.22543e-09)
(6.3514e-06 -0.0241499 -0.933707)
(6.34379e-06 -0.0241499 -3.77214e-09)
(7.50977e-07 -0.00850422 -0.921136)
(7.29176e-07 -0.00850424 -2.15648e-09)
(6.30264e-07 -0.00850822 -0.921343)
(6.11663e-07 -0.00850823 -2.00058e-09)
(7.4615e-06 -0.0241381 -3.369e-09)
(7.45946e-06 -0.0241381 -2.56112e-09)
(6.34046e-06 -0.02415 -3.03605e-09)
(6.33862e-06 -0.0241501 -2.2764e-09)
(7.22448e-07 -0.00850426 -3.45825e-09)
(7.211e-07 -0.00850429 -2.64889e-09)
(6.05845e-07 -0.00850826 -3.11216e-09)
(6.04666e-07 -0.00850828 -2.35448e-09)
(7.4582e-06 -0.0241382 -9.30167e-10)
(7.45819e-06 -0.0241382 1.09301e-09)
(6.3375e-06 -0.0241501 -8.11785e-10)
(6.33749e-06 -0.0241501 9.81235e-10)
(7.20625e-07 -0.0085043 -9.31578e-10)
(7.20619e-07 -0.0085043 1.09252e-09)
(6.04252e-07 -0.0085083 -8.14175e-10)
(6.04246e-07 -0.0085083 9.82419e-10)
(7.45943e-06 -0.0241381 2.71133e-09)
(7.46145e-06 -0.0241381 3.49727e-09)
(6.33859e-06 -0.0241501 2.42971e-09)
(6.34043e-06 -0.02415 3.16973e-09)
(7.21079e-07 -0.00850429 2.79651e-09)
(7.22408e-07 -0.00850427 3.5816e-09)
(6.04642e-07 -0.00850828 2.50568e-09)
(6.05798e-07 -0.00850826 3.23705e-09)
(7.46518e-06 -0.024138 4.29098e-09)
(7.474e-06 -0.0241379 0.933496)
(6.34377e-06 -0.0241499 3.86762e-09)
(6.35142e-06 -0.0241499 0.933707)
(7.29117e-07 -0.00850424 2.23919e-09)
(7.5096e-07 -0.00850423 0.921136)
(6.11589e-07 -0.00850824 2.12127e-09)
(6.30259e-07 -0.00850822 0.921343)
(9.97652e-06 -0.0241084 -0.932676)
(9.96501e-06 -0.0241084 -5.24437e-09)
(8.67889e-06 -0.0241241 -0.932887)
(8.66882e-06 -0.0241242 -4.6878e-09)
(1.01793e-06 -0.0084943 -0.920337)
(9.88925e-07 -0.00849432 -2.51547e-09)
(8.79576e-07 -0.0084996 -0.920543)
(8.54311e-07 -0.00849961 -2.30704e-09)
(9.96045e-06 -0.0241085 -4.06614e-09)
(9.95807e-06 -0.0241086 -3.12573e-09)
(8.6647e-06 -0.0241242 -3.71188e-09)
(8.66249e-06 -0.0241243 -2.84569e-09)
(9.80198e-07 -0.00849434 -4.19241e-09)
(9.78514e-07 -0.00849436 -3.23813e-09)
(8.46618e-07 -0.00849964 -3.81797e-09)
(8.45104e-07 -0.00849966 -2.94342e-09)
(9.95657e-06 -0.0241086 -1.15721e-09)
(9.95656e-06 -0.0241086 1.31385e-09)
(8.6611e-06 -0.0241244 -1.0461e-09)
(8.66109e-06 -0.0241244 1.20136e-09)
(9.77936e-07 -0.00849438 -1.15851e-09)
(9.77936e-07 -0.00849438 1.31184e-09)
(8.44576e-07 -0.00849967 -1.04698e-09)
(8.44573e-07 -0.00849967 1.19996e-09)
(9.95804e-06 -0.0241086 3.26872e-09)
(9.96041e-06 -0.0241085 4.18297e-09)
(8.66246e-06 -0.0241243 2.98673e-09)
(8.66465e-06 -0.0241242 3.83223e-09)
(9.78512e-07 -0.00849436 3.37932e-09)
(9.80193e-07 -0.00849434 4.31015e-09)
(8.45093e-07 -0.00849966 3.08363e-09)
(8.46594e-07 -0.00849964 3.93652e-09)
(9.96497e-06 -0.0241084 5.30514e-09)
(9.97648e-06 -0.0241084 0.932676)
(8.66877e-06 -0.0241242 4.77485e-09)
(8.67885e-06 -0.0241241 0.932887)
(9.88934e-07 -0.00849432 2.58758e-09)
(1.01793e-06 -0.00849431 0.920337)
(8.5428e-07 -0.00849961 2.40659e-09)
(8.79565e-07 -0.0084996 0.920543)
(1.29082e-05 -0.0240706 -0.931817)
(1.28934e-05 -0.0240706 -6.42251e-09)
(1.13823e-05 -0.0240906 -0.932034)
(1.13693e-05 -0.0240906 -5.79943e-09)
(1.33157e-06 -0.00848153 -0.919501)
(1.29421e-06 -0.00848154 -2.9088e-09)
(1.168e-06 -0.00848829 -0.919712)
(1.135e-06 -0.00848831 -2.69522e-09)
(1.28879e-05 -0.0240707 -4.79915e-09)
(1.28852e-05 -0.0240707 -3.69273e-09)
(1.13643e-05 -0.0240907 -4.42626e-09)
(1.13618e-05 -0.0240908 -3.40669e-09)
(1.28316e-06 -0.00848156 -4.97734e-09)
(1.2811e-06 -0.00848158 -3.84162e-09)
(1.12516e-06 -0.00848833 -4.57823e-09)
(1.12329e-06 -0.00848835 -3.53679e-09)
(1.28835e-05 -0.0240708 -1.37516e-09)
(1.28835e-05 -0.0240708 1.54789e-09)
(1.13601e-05 -0.0240908 -1.26621e-09)
(1.13601e-05 -0.0240908 1.42803e-09)
(1.28041e-06 -0.0084816 -1.37898e-09)
(1.28042e-06 -0.0084816 1.54784e-09)
(1.12266e-06 -0.00848837 -1.26895e-09)
(1.12267e-06 -0.00848837 1.42683e-09)
(1.28852e-05 -0.0240708 3.85173e-09)
(1.28879e-05 -0.0240707 4.92733e-09)
(1.13617e-05 -0.0240908 3.55519e-09)
(1.13643e-05 -0.0240907 4.55012e-09)
(1.2811e-06 -0.00848158 3.99798e-09)
(1.28316e-06 -0.00848156 5.1075e-09)
(1.1233e-06 -0.00848835 3.68315e-09)
(1.12516e-06 -0.00848833 4.70322e-09)
(1.28934e-05 -0.0240706 6.46656e-09)
(1.29081e-05 -0.0240706 0.931817)
(1.13693e-05 -0.0240906 5.87592e-09)
(1.13823e-05 -0.0240906 0.932034)
(1.29423e-06 -0.00848154 2.98041e-09)
(1.3316e-06 -0.00848153 0.919501)
(1.13502e-06 -0.00848831 2.79594e-09)
(1.16802e-06 -0.0084883 0.919712)
(1.63829e-05 -0.0240232 -0.930937)
(1.63644e-05 -0.0240233 -7.638e-09)
(1.45711e-05 -0.0240482 -0.931171)
(1.45546e-05 -0.0240482 -6.98926e-09)
(1.70636e-06 -0.00846547 -0.918643)
(1.65914e-06 -0.00846548 -3.21967e-09)
(1.51046e-06 -0.00847394 -0.918871)
(1.4684e-06 -0.00847395 -3.04073e-09)
(1.63578e-05 -0.0240234 -5.5565e-09)
(1.63548e-05 -0.0240234 -4.28666e-09)
(1.45486e-05 -0.0240483 -5.16857e-09)
(1.45457e-05 -0.0240484 -3.98504e-09)
(1.6454e-06 -0.0084655 -5.79293e-09)
(1.64291e-06 -0.00846552 -4.47138e-09)
(1.45606e-06 -0.00847397 -5.37672e-09)
(1.45379e-06 -0.00847399 -4.15196e-09)
(1.63528e-05 -0.0240235 -1.59911e-09)
(1.63528e-05 -0.0240235 1.7996e-09)
(1.45439e-05 -0.0240484 -1.4857e-09)
(1.45439e-05 -0.0240484 1.67162e-09)
(1.64212e-06 -0.00846553 -1.6039e-09)
(1.64212e-06 -0.00846553 1.80161e-09)
(1.45305e-06 -0.008474 -1.49039e-09)
(1.45306e-06 -0.008474 1.67243e-09)
(1.63548e-05 -0.0240234 4.46913e-09)
(1.63579e-05 -0.0240234 5.70225e-09)
(1.45457e-05 -0.0240484 4.15636e-09)
(1.45486e-05 -0.0240483 5.31331e-09)
(1.64291e-06 -0.00846552 4.65451e-09)
(1.64541e-06 -0.0084655 5.94731e-09)
(1.45379e-06 -0.00847399 4.32181e-09)
(1.45606e-06 -0.00847397 5.52542e-09)
(1.63645e-05 -0.0240233 7.7049e-09)
(1.63829e-05 -0.0240233 0.930937)
(1.45547e-05 -0.0240482 7.07901e-09)
(1.45711e-05 -0.0240482 0.931171)
(1.65918e-06 -0.00846548 3.31373e-09)
(1.70638e-06 -0.00846547 0.918643)
(1.46843e-06 -0.00847395 3.16934e-09)
(1.51049e-06 -0.00847394 0.918871)
(2.05163e-05 -0.023965 -0.930012)
(2.04935e-05 -0.0239651 -9.00371e-09)
(1.83606e-05 -0.0239956 -0.930252)
(1.83401e-05 -0.0239956 -8.25681e-09)
(2.15594e-06 -0.00844561 -0.917741)
(2.09711e-06 -0.00844562 -3.50896e-09)
(1.92091e-06 -0.00845605 -0.917975)
(1.86813e-06 -0.00845606 -3.32802e-09)
(2.04857e-05 -0.0239651 -6.34545e-09)
(2.04823e-05 -0.0239652 -4.90383e-09)
(1.83329e-05 -0.0239957 -5.93769e-09)
(1.83297e-05 -0.0239958 -4.5882e-09)
(2.08023e-06 -0.00844564 -6.66177e-09)
(2.07723e-06 -0.00844566 -5.13563e-09)
(1.85289e-06 -0.00845608 -6.21168e-09)
(1.85015e-06 -0.0084561 -4.79502e-09)
(2.04801e-05 -0.0239652 -1.83083e-09)
(2.04801e-05 -0.0239652 2.06282e-09)
(1.83276e-05 -0.0239958 -1.71155e-09)
(1.83276e-05 -0.0239958 1.9307e-09)
(2.07633e-06 -0.00844567 -1.83888e-09)
(2.07633e-06 -0.00844567 2.0688e-09)
(1.8493e-06 -0.00845611 -1.71824e-09)
(1.84931e-06 -0.00845611 1.93384e-09)
(2.04823e-05 -0.0239652 5.11523e-09)
(2.04858e-05 -0.0239651 6.52054e-09)
(1.83297e-05 -0.0239958 4.78879e-09)
(1.8333e-05 -0.0239957 6.10636e-09)
(2.07724e-06 -0.00844566 5.34796e-09)
(2.08023e-06 -0.00844564 6.84067e-09)
(1.85016e-06 -0.0084561 4.99639e-09)
(1.85289e-06 -0.00845608 6.38921e-09)
(2.04936e-05 -0.0239651 9.0804e-09)
(2.05164e-05 -0.023965 0.930012)
(1.83402e-05 -0.0239956 8.37268e-09)
(1.83607e-05 -0.0239956 0.930252)
(2.09713e-06 -0.00844563 3.61945e-09)
(2.15595e-06 -0.00844561 0.917741)
(1.86816e-06 -0.00845606 3.48103e-09)
(1.92091e-06 -0.00845605 0.917975)
(2.54327e-05 -0.0238941 -0.929064)
(2.54048e-05 -0.0238942 -1.05596e-08)
(2.28695e-05 -0.0239313 -0.929323)
(2.28443e-05 -0.0239313 -9.71526e-09)
(2.69478e-06 -0.00842133 -0.916818)
(2.62223e-06 -0.00842134 -3.79732e-09)
(2.41323e-06 -0.00843406 -0.91707)
(2.34785e-06 -0.00843407 -3.61124e-09)
(2.53956e-05 -0.0238942 -7.19374e-09)
(2.53918e-05 -0.0238943 -5.56538e-09)
(2.28359e-05 -0.0239314 -6.75569e-09)
(2.28322e-05 -0.0239314 -5.22734e-09)
(2.60171e-06 -0.00842136 -7.6069e-09)
(2.59814e-06 -0.00842137 -5.85287e-09)
(2.32921e-06 -0.00843409 -7.12195e-09)
(2.32594e-06 -0.00843411 -5.48704e-09)
(2.53894e-05 -0.0238943 -2.08092e-09)
(2.53894e-05 -0.0238943 2.34062e-09)
(2.283e-05 -0.0239315 -1.95321e-09)
(2.283e-05 -0.0239315 2.19865e-09)
(2.59711e-06 -0.00842138 -2.09259e-09)
(2.59712e-06 -0.00842138 2.35285e-09)
(2.32497e-06 -0.00843412 -1.96308e-09)
(2.32498e-06 -0.00843412 2.20802e-09)
(2.53919e-05 -0.0238943 5.80146e-09)
(2.53957e-05 -0.0238942 7.39437e-09)
(2.28323e-05 -0.0239314 5.45184e-09)
(2.28359e-05 -0.0239314 6.95418e-09)
(2.59816e-06 -0.00842138 6.09136e-09)
(2.60172e-06 -0.00842136 7.80526e-09)
(2.32595e-06 -0.00843411 5.71278e-09)
(2.32922e-06 -0.00843409 7.31795e-09)
(2.54049e-05 -0.0238942 1.06384e-08)
(2.54329e-05 -0.0238941 0.929064)
(2.28444e-05 -0.0239313 9.84598e-09)
(2.28697e-05 -0.0239313 0.929323)
(2.62227e-06 -0.00842134 3.9167e-09)
(2.69484e-06 -0.00842133 0.916818)
(2.34787e-06 -0.00843408 3.79264e-09)
(2.41326e-06 -0.00843406 0.91707)
(3.12617e-05 -0.0238086 -0.928081)
(3.12278e-05 -0.0238087 -1.22758e-08)
(2.82255e-05 -0.0238533 -0.928336)
(2.81948e-05 -0.0238534 -1.13461e-08)
(3.33812e-06 -0.00839192 -0.91586)
(3.24935e-06 -0.00839193 -4.04878e-09)
(3.0023e-06 -0.00840731 -0.916108)
(2.92199e-06 -0.00840732 -3.88492e-09)
(3.1217e-05 -0.0238087 -8.10673e-09)
(3.12128e-05 -0.0238088 -6.27995e-09)
(2.81849e-05 -0.0238534 -7.63847e-09)
(2.81809e-05 -0.0238535 -5.91588e-09)
(3.22459e-06 -0.00839195 -8.625e-09)
(3.22038e-06 -0.00839196 -6.62781e-09)
(2.89943e-06 -0.00840734 -8.10299e-09)
(2.89556e-06 -0.00840735 -6.23262e-09)
(3.12102e-05 -0.0238088 -2.35815e-09)
(3.12102e-05 -0.0238088 2.6269e-09)
(2.81784e-05 -0.0238535 -2.21562e-09)
(2.81784e-05 -0.0238535 2.48366e-09)
(3.21923e-06 -0.00839197 -2.37429e-09)
(3.21924e-06 -0.00839197 2.64374e-09)
(2.89447e-06 -0.00840736 -2.22954e-09)
(2.89448e-06 -0.00840736 2.49786e-09)
(3.12129e-05 -0.0238088 6.52002e-09)
(3.12171e-05 -0.0238087 8.29902e-09)
(2.81809e-05 -0.0238535 6.15761e-09)
(2.81849e-05 -0.0238534 7.84404e-09)
(3.2204e-06 -0.00839196 6.87261e-09)
(3.22462e-06 -0.00839195 8.82409e-09)
(2.89558e-06 -0.00840735 6.47788e-09)
(2.89946e-06 -0.00840734 8.31068e-09)
(3.12279e-05 -0.0238087 1.23733e-08)
(3.12618e-05 -0.0238087 0.928081)
(2.81949e-05 -0.0238534 1.14832e-08)
(2.82257e-05 -0.0238533 0.928336)
(3.24941e-06 -0.00839194 4.1687e-09)
(3.33815e-06 -0.00839192 0.91586)
(2.92204e-06 -0.00840733 4.06329e-09)
(3.00235e-06 -0.00840731 0.916108)
(3.81447e-05 -0.0237063 -0.927061)
(3.81038e-05 -0.0237063 -1.42127e-08)
(3.45636e-05 -0.0237597 -0.92734)
(3.45264e-05 -0.0237597 -1.31818e-08)
(4.10239e-06 -0.00835657 -0.914866)
(3.99465e-06 -0.00835658 -4.2472e-09)
(3.70399e-06 -0.00837504 -0.915137)
(3.60612e-06 -0.00837505 -4.12457e-09)
(3.80913e-05 -0.0237064 -9.03835e-09)
(3.80867e-05 -0.0237064 -7.0203e-09)
(3.45148e-05 -0.0237598 -8.56222e-09)
(3.45104e-05 -0.0237599 -6.64534e-09)
(3.96497e-06 -0.0083566 -9.69968e-09)
(3.96001e-06 -0.00835661 -7.44307e-09)
(3.579e-06 -0.00837506 -9.14956e-09)
(3.57444e-06 -0.00837508 -7.02894e-09)
(3.80838e-05 -0.0237065 -2.65237e-09)
(3.80838e-05 -0.0237065 2.91355e-09)
(3.45077e-05 -0.0237599 -2.50342e-09)
(3.45077e-05 -0.0237599 2.76853e-09)
(3.95871e-06 -0.00835662 -2.67601e-09)
(3.95872e-06 -0.00835662 2.9361e-09)
(3.57321e-06 -0.00837508 -2.52302e-09)
(3.57322e-06 -0.00837509 2.78849e-09)
(3.80867e-05 -0.0237064 7.25499e-09)
(3.80914e-05 -0.0237064 9.22463e-09)
(3.45105e-05 -0.0237599 6.8841e-09)
(3.45149e-05 -0.0237598 8.76164e-09)
(3.96003e-06 -0.00835661 7.67887e-09)
(3.96499e-06 -0.0083566 9.89049e-09)
(3.57445e-06 -0.00837508 7.27204e-09)
(3.57903e-06 -0.00837507 9.35478e-09)
(3.81039e-05 -0.0237063 1.42987e-08)
(3.81448e-05 -0.0237063 0.927061)
(3.45265e-05 -0.0237597 1.33129e-08)
(3.45637e-05 -0.0237597 0.92734)
(3.99471e-06 -0.00835659 4.3619e-09)
(4.10242e-06 -0.00835658 0.914866)
(3.60619e-06 -0.00837505 4.28652e-09)
(3.70402e-06 -0.00837504 0.915137)
(4.62262e-05 -0.0235847 -0.926002)
(4.61772e-05 -0.0235847 -1.6316e-08)
(4.20273e-05 -0.0236481 -0.926277)
(4.19826e-05 -0.0236481 -1.51949e-08)
(5.00458e-06 -0.0083144 -0.913834)
(4.87472e-06 -0.00831441 -4.34224e-09)
(4.53495e-06 -0.00833639 -0.914103)
(4.41658e-06 -0.00833641 -4.26972e-09)
(4.61627e-05 -0.0235848 -9.99441e-09)
(4.61577e-05 -0.0235848 -7.78946e-09)
(4.19691e-05 -0.0236481 -9.49769e-09)
(4.19643e-05 -0.0236482 -7.39567e-09)
(4.83939e-06 -0.00831442 -1.08258e-08)
(4.83356e-06 -0.00831443 -8.29776e-09)
(4.38419e-06 -0.00833642 -1.02417e-08)
(4.37881e-06 -0.00833643 -7.85805e-09)
(4.61545e-05 -0.0235848 -2.95654e-09)
(4.61545e-05 -0.0235848 3.22043e-09)
(4.19613e-05 -0.0236482 -2.8009e-09)
(4.19613e-05 -0.0236482 3.06406e-09)
(4.83209e-06 -0.00831444 -2.98954e-09)
(4.8321e-06 -0.00831444 3.24788e-09)
(4.37743e-06 -0.00833643 -2.82865e-09)
(4.37743e-06 -0.00833643 3.08859e-09)
(4.61577e-05 -0.0235848 8.02571e-09)
(4.61628e-05 -0.0235848 1.01796e-08)
(4.19643e-05 -0.0236482 7.63375e-09)
(4.19692e-05 -0.0236481 9.69721e-09)
(4.83357e-06 -0.00831443 8.53353e-09)
(4.83941e-06 -0.00831442 1.10194e-08)
(4.37882e-06 -0.00833643 8.09778e-09)
(4.38421e-06 -0.00833642 1.04481e-08)
(4.61773e-05 -0.0235847 1.64054e-08)
(4.62263e-05 -0.0235847 0.926002)
(4.19827e-05 -0.0236481 1.53237e-08)
(4.20274e-05 -0.0236481 0.926277)
(4.87478e-06 -0.00831441 4.45999e-09)
(5.0046e-06 -0.0083144 0.913834)
(4.41664e-06 -0.00833641 4.43202e-09)
(4.53497e-06 -0.0083364 0.914103)
(5.56609e-05 -0.0234411 -0.924923)
(5.56026e-05 -0.0234411 -1.86807e-08)
(5.07658e-05 -0.0235158 -0.925195)
(5.07124e-05 -0.0235158 -1.74114e-08)
(6.06284e-06 -0.0082644 -0.912783)
(5.90738e-06 -0.00826441 -4.38817e-09)
(5.51282e-06 -0.00829044 -0.913047)
(5.37064e-06 -0.00829045 -4.32943e-09)
(5.55859e-05 -0.0234411 -1.10319e-08)
(5.55803e-05 -0.0234411 -8.63607e-09)
(5.06968e-05 -0.0235158 -1.04856e-08)
(5.06915e-05 -0.0235159 -8.19667e-09)
(5.86555e-06 -0.00826442 -1.20705e-08)
(5.85871e-06 -0.00826443 -9.24655e-09)
(5.33217e-06 -0.00829046 -1.14192e-08)
(5.32585e-06 -0.00829047 -8.7541e-09)
(5.55769e-05 -0.0234412 -3.29123e-09)
(5.55769e-05 -0.0234412 3.55943e-09)
(5.06882e-05 -0.0235159 -3.11929e-09)
(5.06882e-05 -0.0235159 3.38204e-09)
(5.85706e-06 -0.00826443 -3.33583e-09)
(5.85707e-06 -0.00826443 3.59836e-09)
(5.3243e-06 -0.00829047 -3.1581e-09)
(5.32431e-06 -0.00829047 3.41445e-09)
(5.55804e-05 -0.0234411 8.87717e-09)
(5.5586e-05 -0.0234411 1.12279e-08)
(5.06916e-05 -0.0235159 8.43449e-09)
(5.06969e-05 -0.0235159 1.06885e-08)
(5.85872e-06 -0.00826443 9.48634e-09)
(5.86556e-06 -0.00826442 1.22688e-08)
(5.32586e-06 -0.00829047 8.99215e-09)
(5.33219e-06 -0.00829046 1.16276e-08)
(5.56028e-05 -0.0234411 1.87748e-08)
(5.56611e-05 -0.0234411 0.924923)
(5.07125e-05 -0.0235158 1.75525e-08)
(5.07659e-05 -0.0235158 0.925195)
(5.90744e-06 -0.00826442 4.51178e-09)
(6.06289e-06 -0.00826441 0.912783)
(5.37069e-06 -0.00829045 4.50379e-09)
(5.51285e-06 -0.00829044 0.913047)
(6.6603e-05 -0.0232725 -0.923773)
(6.65341e-05 -0.0232725 -2.13607e-08)
(6.0936e-05 -0.02336 -0.92407)
(6.08727e-05 -0.02336 -1.99316e-08)
(7.29495e-06 -0.00820551 -0.911662)
(7.11003e-06 -0.00820552 -4.39576e-09)
(6.65581e-06 -0.00823613 -0.911952)
(6.48614e-06 -0.00823614 -4.35678e-09)
(6.65149e-05 -0.0232725 -1.21859e-08)
(6.65088e-05 -0.0232725 -9.56849e-09)
(6.08548e-05 -0.0233601 -1.15919e-08)
(6.08489e-05 -0.0233601 -9.09242e-09)
(7.06078e-06 -0.00820553 -1.34452e-08)
(7.05279e-06 -0.00820553 -1.02916e-08)
(6.44071e-06 -0.00823615 -1.2739e-08)
(6.43332e-06 -0.00823615 -9.75801e-09)
(6.6505e-05 -0.0232725 -3.65113e-09)
(6.65051e-05 -0.0232725 3.95002e-09)
(6.08453e-05 -0.0233601 -3.46915e-09)
(6.08454e-05 -0.0233601 3.74754e-09)
(7.05093e-06 -0.00820554 -3.70728e-09)
(7.05095e-06 -0.00820554 4.00491e-09)
(6.43157e-06 -0.00823616 -3.51909e-09)
(6.43158e-06 -0.00823616 3.79521e-09)
(6.65089e-05 -0.0232725 9.83757e-09)
(6.65151e-05 -0.0232725 1.24033e-08)
(6.0849e-05 -0.0233601 9.34414e-09)
(6.08549e-05 -0.0233601 1.18024e-08)
(7.05281e-06 -0.00820553 1.05632e-08)
(7.0608e-06 -0.00820553 1.36686e-08)
(6.43334e-06 -0.00823615 1.00113e-08)
(6.44073e-06 -0.00823615 1.29546e-08)
(6.65344e-05 -0.0232725 2.14608e-08)
(6.66033e-05 -0.0232725 0.923773)
(6.08729e-05 -0.02336 2.00732e-08)
(6.09362e-05 -0.02336 0.92407)
(7.11011e-06 -0.00820553 4.52994e-09)
(7.29501e-06 -0.00820552 0.911662)
(6.4862e-06 -0.00823614 4.53905e-09)
(6.65586e-06 -0.00823613 0.911952)
(7.9204e-05 -0.0230758 -0.922599)
(7.91231e-05 -0.0230758 -2.43204e-08)
(7.26883e-05 -0.0231778 -0.922903)
(7.26137e-05 -0.0231778 -2.27517e-08)
(8.7186e-06 -0.00813659 -0.910517)
(8.50006e-06 -0.0081366 -4.30042e-09)
(7.98136e-06 -0.00817237 -0.910814)
(7.78018e-06 -0.00817238 -4.31144e-09)
(7.91011e-05 -0.0230758 -1.33697e-08)
(7.90943e-05 -0.0230758 -1.05397e-08)
(7.25931e-05 -0.0231778 -1.27665e-08)
(7.25867e-05 -0.0231779 -1.00453e-08)
(8.44241e-06 -0.0081366 -1.48941e-08)
(8.43311e-06 -0.0081366 -1.139e-08)
(7.72686e-06 -0.00817239 -1.4155e-08)
(7.71824e-06 -0.00817239 -1.08305e-08)
(7.90903e-05 -0.0230758 -4.02973e-09)
(7.90903e-05 -0.0230758 4.35596e-09)
(7.25828e-05 -0.0231779 -3.83451e-09)
(7.25828e-05 -0.0231779 4.15351e-09)
(8.43102e-06 -0.0081366 -4.09987e-09)
(8.43103e-06 -0.0081366 4.42626e-09)
(7.71627e-06 -0.00817239 -3.89801e-09)
(7.71628e-06 -0.00817239 4.21539e-09)
(7.90945e-05 -0.0230758 1.08336e-08)
(7.91013e-05 -0.0230758 1.36192e-08)
(7.25868e-05 -0.0231779 1.03339e-08)
(7.25933e-05 -0.0231778 1.30123e-08)
(8.43314e-06 -0.0081366 1.16898e-08)
(8.44244e-06 -0.0081366 1.51429e-08)
(7.71826e-06 -0.00817239 1.11216e-08)
(7.72689e-06 -0.00817239 1.44014e-08)
(7.91234e-05 -0.0230758 2.44348e-08)
(7.92044e-05 -0.0230758 0.922599)
(7.2614e-05 -0.0231778 2.29171e-08)
(7.26886e-05 -0.0231778 0.922903)
(8.50015e-06 -0.0081366 4.45373e-09)
(8.7187e-06 -0.00813659 0.910517)
(7.78026e-06 -0.00817239 4.52882e-09)
(7.98143e-06 -0.00817238 0.910814)
(9.36113e-05 -0.0228477 -0.921384)
(9.35169e-05 -0.0228477 -2.75151e-08)
(8.6175e-05 -0.0229658 -0.921699)
(8.60876e-05 -0.0229658 -2.58288e-08)
(1.03508e-05 -0.00805641 -0.909334)
(1.00941e-05 -0.00805642 -4.06216e-09)
(9.50714e-06 -0.00809798 -0.90964)
(9.27012e-06 -0.00809799 -4.14911e-09)
(9.34917e-05 -0.0228477 -1.46051e-08)
(9.34843e-05 -0.0228477 -1.15678e-08)
(8.6064e-05 -0.0229659 -1.39713e-08)
(8.6057e-05 -0.0229659 -1.10415e-08)
(1.0027e-05 -0.00805642 -1.643e-08)
(1.00162e-05 -0.00805642 -1.25647e-08)
(9.2079e-06 -0.00809799 -1.56439e-08)
(9.19789e-06 -0.00809799 -1.19645e-08)
(9.34798e-05 -0.0228477 -4.44424e-09)
(9.34799e-05 -0.0228477 4.77031e-09)
(8.60527e-05 -0.0229659 -4.23335e-09)
(8.60527e-05 -0.0229659 4.55571e-09)
(1.00139e-05 -0.00805642 -4.53037e-09)
(1.00139e-05 -0.00805642 4.8561e-09)
(9.19567e-06 -0.00809799 -4.31133e-09)
(9.19569e-06 -0.00809799 4.63382e-09)
(9.34844e-05 -0.0228477 1.18614e-08)
(9.34919e-05 -0.0228477 1.48319e-08)
(8.60571e-05 -0.0229659 1.13327e-08)
(8.60642e-05 -0.0229659 1.4214e-08)
(1.00163e-05 -0.00805642 1.28596e-08)
(1.00271e-05 -0.00805642 1.66673e-08)
(9.19792e-06 -0.00809799 1.22588e-08)
(9.20794e-06 -0.00809799 1.58893e-08)
(9.35172e-05 -0.0228477 2.76151e-08)
(9.36117e-05 -0.0228477 0.921384)
(8.60879e-05 -0.0229658 2.59899e-08)
(8.61754e-05 -0.0229658 0.921699)
(1.00942e-05 -0.00805643 4.19686e-09)
(1.03509e-05 -0.00805642 0.909334)
(9.27024e-06 -0.00809799 4.35514e-09)
(9.50725e-06 -0.00809798 0.90964)
(0.000109958 -0.0225847 -0.920125)
(0.000109848 -0.0225847 -3.10209e-08)
(0.000101537 -0.0227208 -0.920453)
(0.000101435 -0.0227207 -2.91378e-08)
(1.22065e-05 -0.00796372 -0.908106)
(1.1907e-05 -0.00796373 -3.69062e-09)
(1.12492e-05 -0.0080117 -0.908426)
(1.09718e-05 -0.00801171 -3.81743e-09)
(0.00010982 -0.0225847 -1.58907e-08)
(0.000109812 -0.0225847 -1.2656e-08)
(0.000101408 -0.0227207 -1.5226e-08)
(0.0001014 -0.0227208 -1.21083e-08)
(1.18293e-05 -0.00796372 -1.80565e-08)
(1.18169e-05 -0.00796372 -1.3798e-08)
(1.08995e-05 -0.00801171 -1.72189e-08)
(1.0888e-05 -0.0080117 -1.31723e-08)
(0.000109807 -0.0225847 -4.85673e-09)
(0.000109807 -0.0225847 5.25906e-09)
(0.000101395 -0.0227208 -4.65653e-09)
(0.000101396 -0.0227208 4.99615e-09)
(1.18142e-05 -0.00796371 -4.95805e-09)
(1.18143e-05 -0.00796371 5.36227e-09)
(1.08855e-05 -0.0080117 -4.7481e-09)
(1.08855e-05 -0.0080117 5.09224e-09)
(0.000109812 -0.0225847 1.30203e-08)
(0.00010982 -0.0225847 1.6159e-08)
(0.0001014 -0.0227208 1.24121e-08)
(0.000101408 -0.0227208 1.54712e-08)
(1.18169e-05 -0.00796372 1.41699e-08)
(1.18294e-05 -0.00796372 1.83636e-08)
(1.0888e-05 -0.0080117 1.34876e-08)
(1.08996e-05 -0.00801171 1.74887e-08)
(0.000109849 -0.0225847 3.1095e-08)
(0.000109959 -0.0225847 0.920125)
(0.000101435 -0.0227207 2.93036e-08)
(0.000101537 -0.0227208 0.920453)
(1.19071e-05 -0.00796373 3.85419e-09)
(1.22066e-05 -0.00796372 0.908106)
(1.09719e-05 -0.00801171 4.05351e-09)
(1.12494e-05 -0.0080117 0.908426)
(0.000128353 -0.0222835 -0.918813)
(0.000128226 -0.0222835 -3.49577e-08)
(0.000118896 -0.0224391 -0.919144)
(0.000118778 -0.0224391 -3.27456e-08)
(1.42976e-05 -0.00785724 -0.906827)
(1.39505e-05 -0.00785725 -3.26359e-09)
(1.32212e-05 -0.00791227 -0.90715)
(1.28985e-05 -0.00791228 -3.30832e-09)
(0.000128194 -0.0222835 -1.72852e-08)
(0.000128185 -0.0222835 -1.37767e-08)
(0.000118747 -0.0224391 -1.65292e-08)
(0.000118739 -0.0224391 -1.32028e-08)
(1.38611e-05 -0.00785724 -1.98166e-08)
(1.38468e-05 -0.00785723 -1.5091e-08)
(1.28151e-05 -0.00791227 -1.88852e-08)
(1.28018e-05 -0.00791227 -1.44282e-08)
(0.00012818 -0.0222835 -5.23101e-09)
(0.00012818 -0.0222835 5.8739e-09)
(0.000118734 -0.0224391 -5.05106e-09)
(0.000118734 -0.0224391 5.54287e-09)
(1.38438e-05 -0.00785722 -5.34923e-09)
(1.38438e-05 -0.00785722 5.99998e-09)
(1.27989e-05 -0.00791226 -5.15915e-09)
(1.2799e-05 -0.00791226 5.65943e-09)
(0.000128185 -0.0222835 1.43561e-08)
(0.000128194 -0.0222835 1.77303e-08)
(0.000118739 -0.0224391 1.36575e-08)
(0.000118747 -0.0224391 1.69118e-08)
(1.38468e-05 -0.00785723 1.5693e-08)
(1.38611e-05 -0.00785724 2.03238e-08)
(1.28018e-05 -0.00791227 1.49003e-08)
(1.28151e-05 -0.00791227 1.93217e-08)
(0.000128227 -0.0222835 3.50335e-08)
(0.000128354 -0.0222835 0.918813)
(0.000118778 -0.0224391 3.30221e-08)
(0.000118896 -0.0224391 0.919144)
(1.39505e-05 -0.00785725 3.5071e-09)
(1.42979e-05 -0.00785724 0.906827)
(1.28985e-05 -0.00791228 3.75464e-09)
(1.32214e-05 -0.00791227 0.90715)
(0.000148883 -0.0219404 -0.91746)
(0.000148738 -0.0219404 -3.93197e-08)
(0.000138349 -0.0221173 -0.917809)
(0.000138214 -0.0221173 -3.67884e-08)
(1.66336e-05 -0.00773567 -0.905509)
(1.62338e-05 -0.00773568 -2.83019e-09)
(1.54338e-05 -0.00779841 -0.905849)
(1.50609e-05 -0.00779842 -2.76731e-09)
(0.000148701 -0.0219403 -1.88643e-08)
(0.000148691 -0.0219403 -1.50282e-08)
(0.000138179 -0.0221173 -1.79971e-08)
(0.00013817 -0.0221173 -1.43757e-08)
(1.61316e-05 -0.00773567 -2.17831e-08)
(1.61152e-05 -0.00773566 -1.65126e-08)
(1.49653e-05 -0.00779841 -2.07283e-08)
(1.495e-05 -0.0077984 -1.57682e-08)
(0.000148685 -0.0219403 -5.6414e-09)
(0.000148685 -0.0219403 6.54075e-09)
(0.000138164 -0.0221173 -5.4133e-09)
(0.000138164 -0.0221173 6.23134e-09)
(1.61119e-05 -0.00773565 -5.77958e-09)
(1.61119e-05 -0.00773565 6.68687e-09)
(1.49468e-05 -0.00779839 -5.53686e-09)
(1.49468e-05 -0.00779839 6.36965e-09)
(0.000148691 -0.0219403 1.58208e-08)
(0.000148701 -0.0219404 1.94641e-08)
(0.00013817 -0.0221173 1.51105e-08)
(0.000138179 -0.0221173 1.86532e-08)
(1.61153e-05 -0.00773566 1.73484e-08)
(1.61316e-05 -0.00773567 2.2464e-08)