/*--------------------------------*- C++ -*----------------------------------*\
  =========                 |
  \\      /  F ield         | OpenFOAM: The Open Source CFD Toolbox
   \\    /   O peration     | Website:  https://openfoam.org
    \\  /    A nd           | Version:  9
     \\/     M anipulation  |
\*---------------------------------------------------------------------------*/
FoamFile
{
    format      ascii;
    class       volVectorField;
    location    "1.45";
    object      U;
}
// * * * * * * * * * * * * * * * * * * * * * * * * * * * * * * * * * * * * * //

dimensions      [0 1 -1 0 0 0 0];

internalField   nonuniform List<vector> 
36360
(
(0.000613156 -0.121905 -0.499584)
(-0.00042217 -0.092659 0.000113576)
(-0.000612353 -0.124169 -0.501498)
(-0.00210517 -0.0851412 4.78504e-05)
(-0.00112535 -0.119832 -0.501091)
(0.0101316 -0.0918245 1.60746e-05)
(-0.000276795 -0.119663 -0.502119)
(0.0119574 -0.100258 1.86417e-05)
(-0.00110514 -0.10326 -6.59595e-05)
(-0.00235939 -0.107423 -3.82896e-06)
(-0.00285513 -0.101352 -3.27948e-05)
(-0.00286486 -0.105356 -1.19296e-06)
(0.00542868 -0.108253 -6.60395e-06)
(0.0043461 -0.107337 -5.24352e-06)
(0.00703246 -0.111518 -2.07358e-05)
(0.00634932 -0.10982 -2.4999e-06)
(-0.00221788 -0.108469 9.94425e-08)
(-0.00221781 -0.108469 -9.79197e-08)
(-0.00267569 -0.106443 -3.46463e-08)
(-0.00267565 -0.106443 3.50689e-08)
(0.004469 -0.10675 -1.08325e-06)
(0.00446902 -0.106749 1.08334e-06)
(0.00628995 -0.109364 -1.46995e-07)
(0.00628994 -0.109364 1.47137e-07)
(-0.00235932 -0.107422 3.82892e-06)
(-0.00110527 -0.103258 6.59489e-05)
(-0.00286476 -0.105355 1.19293e-06)
(-0.00285513 -0.10135 3.27896e-05)
(0.00434615 -0.107336 5.24231e-06)
(0.00542864 -0.10825 6.59732e-06)
(0.00634928 -0.109819 2.49923e-06)
(0.00703235 -0.111515 2.07357e-05)
(-0.000422416 -0.0926559 -0.000113592)
(0.00061248 -0.12191 0.499583)
(-0.00210489 -0.0851379 -4.78586e-05)
(-0.000612707 -0.124174 0.501498)
(0.0101325 -0.0918203 -1.60566e-05)
(-0.00112537 -0.119841 0.50109)
(0.0119583 -0.100255 -1.86358e-05)
(-0.000276589 -0.119671 0.502119)
(0.00285459 -0.118551 -0.498047)
(-0.00231747 -0.0994306 0.000147344)
(0.00199315 -0.120264 -0.498885)
(-0.000862475 -0.0966294 0.000141216)
(-0.000366766 -0.119775 -0.500862)
(0.0027791 -0.0836631 -1.58151e-05)
(-0.000818765 -0.120635 -0.500791)
(0.00678104 -0.0848834 2.43501e-06)
(0.0012878 -0.104877 -6.51884e-05)
(-0.000159224 -0.108783 -1.09872e-05)
(0.000933097 -0.104266 -6.99495e-05)
(-0.000978885 -0.108578 -7.25784e-06)
(0.00389903 -0.101546 4.34281e-05)
(0.00184177 -0.104868 -1.12252e-05)
(0.00496809 -0.104413 1.5193e-05)
(0.00306308 -0.105582 -8.47482e-06)
(-0.00071205 -0.110439 -1.81047e-06)
(-0.000712156 -0.110439 1.8052e-06)
(-0.00124222 -0.10996 -5.49567e-07)
(-0.00124221 -0.10996 5.51626e-07)
(0.0018427 -0.104275 -3.65741e-06)
(0.00184287 -0.104275 3.6582e-06)
(0.00325997 -0.104835 -2.39544e-06)
(0.0032601 -0.104834 2.39597e-06)
(-0.000159521 -0.108782 1.09611e-05)
(0.00128775 -0.104875 6.52131e-05)
(-0.000979102 -0.108577 7.25714e-06)
(0.000933007 -0.104263 6.99401e-05)
(0.00184162 -0.104866 1.12216e-05)
(0.00389918 -0.101543 -4.34431e-05)
(0.00306322 -0.10558 8.4734e-06)
(0.00496815 -0.10441 -1.5205e-05)
(-0.00231859 -0.0994289 -0.00014734)
(0.00285482 -0.118556 0.498046)
(-0.000863196 -0.0966273 -0.000141231)
(0.00199289 -0.120269 0.498884)
(0.00277936 -0.0836591 1.58799e-05)
(-0.000366184 -0.119784 0.500862)
(0.00678163 -0.0848793 -2.39759e-06)
(-0.000818499 -0.120644 0.500791)
(0.00358279 -0.115728 -0.497056)
(-0.00447777 -0.102114 0.000126762)
(0.00333586 -0.117008 -0.497444)
(-0.00361519 -0.101031 0.000141159)
(0.000662567 -0.117119 -0.501124)
(-0.000865376 -0.085377 -6.88987e-05)
(0.000277048 -0.118406 -0.501204)
(0.000368529 -0.0839794 -4.05724e-05)
(0.000696722 -0.105115 -3.04702e-05)
(0.000141427 -0.108653 -1.46715e-05)
(0.00103173 -0.105106 -5.07673e-05)
(0.000103533 -0.10879 -1.37506e-05)
(0.00181901 -0.0980492 0.000110741)
(0.00046013 -0.103671 -1.23007e-05)
(0.0026425 -0.0993535 7.67829e-05)
(0.000940771 -0.104151 -1.25022e-05)
(-0.000246095 -0.110712 -4.57441e-06)
(-0.000246239 -0.110712 4.60777e-06)
(-0.000402533 -0.110683 -3.242e-06)
(-0.000402726 -0.110683 3.29218e-06)
(0.000117859 -0.10393 -5.41973e-06)
(0.000117888 -0.10393 5.43957e-06)
(0.00069459 -0.103982 -4.61231e-06)
(0.000694704 -0.103981 4.62876e-06)
(0.00014138 -0.108652 1.47271e-05)
(0.000696797 -0.105112 3.04711e-05)
(0.000103227 -0.108789 1.37341e-05)
(0.00103182 -0.105104 5.07509e-05)
(0.000459905 -0.103671 1.23121e-05)
(0.00181939 -0.0980464 -0.000110778)
(0.000940436 -0.10415 1.25048e-05)
(0.00264279 -0.0993507 -7.68106e-05)
(-0.00447925 -0.102112 -0.00012677)
(0.00358386 -0.115732 0.497053)
(-0.00361649 -0.10103 -0.000141117)
(0.00333659 -0.117012 0.497442)
(-0.000865708 -0.0853738 6.90103e-05)
(0.000663941 -0.117128 0.501123)
(0.000368432 -0.0839758 4.06652e-05)
(0.000278125 -0.118415 0.501204)
(0.00392052 -0.113696 -0.496594)
(-0.00516381 -0.103723 8.58813e-05)
(0.00377059 -0.114636 -0.496762)
(-0.00495798 -0.102981 0.00010748)
(0.00110597 -0.114288 -0.501033)
(-0.00164739 -0.0892326 -0.000125656)
(0.00092946 -0.115721 -0.501066)
(-0.0014411 -0.0872673 -9.77412e-05)
(0.000316902 -0.105061 1.36813e-05)
(0.000164249 -0.108267 -1.11194e-05)
(0.000455179 -0.105075 -8.17618e-06)
(0.000143249 -0.108457 -1.36852e-05)
(0.00114383 -0.0970571 0.000170624)
(0.000209794 -0.103235 -7.85821e-06)
(0.00136714 -0.0973771 0.000142454)
(0.000263814 -0.103409 -1.06816e-05)
(-8.63448e-05 -0.110501 -6.25049e-06)
(-8.63227e-05 -0.110501 6.25638e-06)
(-0.000156523 -0.110621 -5.59203e-06)
(-0.000156509 -0.110622 5.6145e-06)
(-7.95779e-05 -0.104133 -6.53385e-06)
(-7.95579e-05 -0.104132 6.53546e-06)
(-6.34926e-05 -0.104027 -6.08167e-06)
(-6.34925e-05 -0.104026 6.09172e-06)
(0.000164302 -0.108266 1.11078e-05)
(0.000316825 -0.105059 -1.3723e-05)
(0.000143264 -0.108455 1.36748e-05)
(0.000455126 -0.105073 8.14893e-06)
(0.000209812 -0.103234 7.84524e-06)
(0.00114416 -0.0970542 -0.000170704)
(0.000263733 -0.103408 1.06778e-05)
(0.00136751 -0.0973742 -0.000142514)
(-0.00516566 -0.103723 -8.58685e-05)
(0.00392193 -0.113699 0.496591)
(-0.00495967 -0.102981 -0.000107466)
(0.00377186 -0.114639 0.49676)
(-0.00164809 -0.0892303 0.000125804)
(0.00110757 -0.114295 0.501033)
(-0.00144163 -0.0872645 9.78723e-05)
(0.000930989 -0.115728 0.501065)
(0.00411669 -0.112142 -0.496376)
(-0.00516367 -0.104854 4.19087e-05)
(0.00404073 -0.112873 -0.496447)
(-0.00520925 -0.104348 6.35697e-05)
(0.00126851 -0.11149 -0.500991)
(-0.00157162 -0.0926672 -0.000176033)
(0.00122138 -0.112865 -0.501005)
(-0.00165264 -0.0910613 -0.000151895)
(0.000211302 -0.105165 5.11745e-05)
(0.000239375 -0.107956 -2.87695e-06)
(0.000244583 -0.105093 3.35901e-05)
(0.000200996 -0.108101 -7.2961e-06)
(0.000926131 -0.0969341 0.000214922)
(0.00024134 -0.102853 1.97475e-07)
(0.00100579 -0.0969392 0.000194747)
(0.00021576 -0.103058 -4.11748e-06)
(3.7613e-05 -0.110255 -6.56506e-06)
(3.76408e-05 -0.110256 6.55771e-06)
(-2.29252e-05 -0.110379 -6.56389e-06)
(-2.28961e-05 -0.110379 6.56146e-06)
(-8.15578e-06 -0.10417 -6.68614e-06)
(-8.13948e-06 -0.10417 6.67771e-06)
(-4.62296e-05 -0.104181 -6.73636e-06)
(-4.62086e-05 -0.10418 6.73209e-06)
(0.000239421 -0.107954 2.85119e-06)
(0.000211128 -0.105164 -5.12324e-05)
(0.000201053 -0.1081 7.27667e-06)
(0.000244452 -0.105092 -3.36402e-05)
(0.00024143 -0.102852 -2.24284e-07)
(0.000926298 -0.0969313 -0.000215029)
(0.000215829 -0.103057 4.09691e-06)
(0.00100602 -0.0969363 -0.000194842)
(-0.00516577 -0.104854 -4.18748e-05)
(0.00411821 -0.112145 0.496373)
(-0.00521125 -0.104348 -6.35472e-05)
(0.0040422 -0.112876 0.496444)
(-0.00157245 -0.0926659 0.00017622)
(0.00127018 -0.111495 0.50099)
(-0.00165342 -0.0910595 0.000152063)
(0.00122303 -0.112872 0.501004)
(0.00417314 -0.11088 -0.496253)
(-0.0049796 -0.105566 2.87164e-06)
(0.00416196 -0.111482 -0.496288)
(-0.00508158 -0.105258 2.15723e-05)
(0.001256 -0.108975 -0.500966)
(-0.00136428 -0.0951564 -0.000217498)
(0.0012809 -0.110186 -0.500973)
(-0.00147517 -0.0940297 -0.000197889)
(0.000187958 -0.105331 7.86229e-05)
(0.000286935 -0.107696 6.6154e-06)
(0.000193875 -0.10525 6.61497e-05)
(0.000267864 -0.107823 1.82753e-06)
(0.000843017 -0.0971063 0.000244908)
(0.000276899 -0.102384 9.47039e-06)
(0.000875905 -0.0969996 0.000231482)
(0.000263328 -0.102625 4.79553e-06)
(0.00013784 -0.109987 -5.85703e-06)
(0.000137838 -0.109988 5.84372e-06)
(9.30564e-05 -0.110125 -6.31154e-06)
(9.30734e-05 -0.110125 6.30074e-06)
(6.38205e-05 -0.103988 -5.96775e-06)
(6.38406e-05 -0.103987 5.95347e-06)
(3.22014e-05 -0.104104 -6.42077e-06)
(3.22272e-05 -0.104104 6.40919e-06)
(0.00028696 -0.107695 -6.65148e-06)
(0.000187734 -0.10533 -7.86928e-05)
(0.000267901 -0.107821 -1.85858e-06)
(0.000193669 -0.105248 -6.62142e-05)
(0.000277003 -0.102383 -9.50733e-06)
(0.000843095 -0.0971039 -0.000245031)
(0.000263428 -0.102624 -4.82763e-06)
(0.000876027 -0.096997 -0.000231599)
(-0.00498179 -0.105566 -2.8114e-06)
(0.00417469 -0.110882 0.49625)
(-0.00508375 -0.105258 -2.15256e-05)
(0.0041635 -0.111484 0.496285)
(-0.00136515 -0.0951559 0.000217719)
(0.00125769 -0.10898 0.500965)
(-0.00147603 -0.0940288 0.000198093)
(0.0012826 -0.110191 0.500973)
(0.00415394 -0.109807 -0.496159)
(-0.00477843 -0.105938 -2.91653e-05)
(0.00417166 -0.110323 -0.496182)
(-0.00488006 -0.10579 -1.40263e-05)
(0.0011749 -0.106856 -0.500945)
(-0.00116743 -0.096805 -0.000250467)
(0.00122365 -0.107865 -0.500951)
(-0.00126632 -0.0960733 -0.000234965)
(0.00019435 -0.105456 9.68855e-05)
(0.000306584 -0.107441 1.58201e-05)
(0.000187408 -0.105403 8.87544e-05)
(0.00029822 -0.10757 1.13189e-05)
(0.000804054 -0.0973718 0.000264132)
(0.000284889 -0.101902 1.85021e-05)
(0.000818178 -0.0972353 0.00025564)
(0.000282889 -0.102141 1.4077e-05)
(0.0002034 -0.109674 -4.46954e-06)
(0.000203373 -0.109674 4.45114e-06)
(0.000173125 -0.109838 -5.22536e-06)
(0.000173108 -0.109838 5.20924e-06)
(9.94092e-05 -0.103674 -4.62356e-06)
(9.94169e-05 -0.103673 4.60463e-06)
(8.40694e-05 -0.103843 -5.35308e-06)
(8.40832e-05 -0.103843 5.33634e-06)
(0.000306587 -0.10744 -1.58633e-05)
(0.000194109 -0.105455 -9.69617e-05)
(0.000298232 -0.107569 -1.13586e-05)
(0.000187172 -0.105401 -8.88278e-05)
(0.000284985 -0.101901 -1.85468e-05)
(0.0008041 -0.0973698 -0.000264263)
(0.000282988 -0.10214 -1.4118e-05)
(0.000818229 -0.0972332 -0.000255768)
(-0.00478064 -0.105938 2.92502e-05)
(0.00415549 -0.109808 0.496156)
(-0.00488227 -0.10579 1.40991e-05)
(0.00417322 -0.110325 0.496179)
(-0.00116827 -0.0968052 0.000250716)
(0.00117658 -0.106859 0.500945)
(-0.00126718 -0.0960731 0.0002352)
(0.00122535 -0.107869 0.500951)
(0.00411981 -0.108863 -0.496072)
(-0.00459693 -0.106045 -5.45264e-05)
(0.00413893 -0.109322 -0.496094)
(-0.0046867 -0.10602 -4.26088e-05)
(0.00108828 -0.105103 -0.500926)
(-0.00101006 -0.0978183 -0.000276336)
(0.00113407 -0.105937 -0.500932)
(-0.00108745 -0.0973797 -0.000264191)
(0.000222484 -0.105496 0.000108204)
(0.000322163 -0.107166 2.39638e-05)
(0.00020484 -0.105488 0.000103271)
(0.000313958 -0.107307 2.00467e-05)
(0.000797496 -0.0976239 0.000275869)
(0.000283559 -0.101441 2.6575e-05)
(0.000796093 -0.0975047 0.000270761)
(0.000284364 -0.101669 2.26802e-05)
(0.000257461 -0.109304 -2.7316e-06)
(0.000257432 -0.109304 2.70873e-06)
(0.000230782 -0.109495 -3.62813e-06)
(0.000230749 -0.109496 3.60747e-06)
(0.000123965 -0.10328 -2.94729e-06)
(0.000123969 -0.103279 2.92403e-06)
(0.000112287 -0.103485 -3.81182e-06)
(0.000112292 -0.103484 3.7907e-06)
(0.000322148 -0.107165 -2.40131e-05)
(0.000222277 -0.105495 -0.000108283)
(0.000313956 -0.107306 -2.00932e-05)
(0.000204605 -0.105487 -0.000103349)
(0.000283644 -0.101441 -2.66265e-05)
(0.000797589 -0.0976223 -0.000276003)
(0.000284457 -0.101668 -2.27284e-05)
(0.00079615 -0.097503 -0.000270895)
(-0.00459913 -0.106046 5.46316e-05)
(0.00412134 -0.108864 0.496068)
(-0.0046889 -0.10602 4.27045e-05)
(0.00414047 -0.109324 0.49609)
(-0.00101087 -0.0978189 0.000276606)
(0.00108993 -0.105105 0.500925)
(-0.00108828 -0.0973801 0.000264451)
(0.00113574 -0.105941 0.500931)
(0.00409772 -0.107997 -0.495984)
(-0.00443834 -0.105952 -7.44201e-05)
(0.00410911 -0.108422 -0.496005)
(-0.00451746 -0.106021 -6.50669e-05)
(0.00101705 -0.103633 -0.500907)
(-0.000892032 -0.0983615 -0.000296535)
(0.00105447 -0.104338 -0.500912)
(-0.000950814 -0.0981412 -0.00028706)
(0.000272395 -0.105431 0.000114886)
(0.000343817 -0.106851 3.08087e-05)
(0.00024359 -0.105478 0.000111983)
(0.000331505 -0.107014 2.75502e-05)
(0.000817659 -0.0978011 0.000282613)
(0.000282434 -0.100995 3.34133e-05)
(0.000804032 -0.0977245 0.000279737)
(0.000282357 -0.101218 3.01559e-05)
(0.000310939 -0.108879 -8.73466e-07)
(0.000310913 -0.108879 8.45754e-07)
(0.000283969 -0.109098 -1.80591e-06)
(0.000283942 -0.109098 1.78066e-06)
(0.000145925 -0.102824 -1.15469e-06)
(0.000145928 -0.102823 1.12654e-06)
(0.000135008 -0.103059 -2.05431e-06)
(0.000135012 -0.103059 2.02866e-06)
(0.000343774 -0.10685 -3.08632e-05)
(0.000272206 -0.105431 -0.000114966)
(0.000331471 -0.107013 -2.76023e-05)
(0.000243396 -0.105477 -0.000112063)
(0.000282508 -0.100995 -3.34697e-05)
(0.000817807 -0.0978 -0.000282748)
(0.000282436 -0.101217 -3.021e-05)
(0.000804153 -0.0977232 -0.000279872)
(-0.00444052 -0.105952 7.45405e-05)
(0.00409921 -0.107998 0.49598)
(-0.00451965 -0.106022 6.51804e-05)
(0.00411063 -0.108423 0.496001)
(-0.000892819 -0.0983623 0.00029682)
(0.00101867 -0.103635 0.500906)
(-0.000951622 -0.0981419 0.000287338)
(0.00105611 -0.10434 0.500912)
(0.00409729 -0.107172 -0.495896)
(-0.00429662 -0.105695 -9.00278e-05)
(0.00409769 -0.107581 -0.495917)
(-0.00436815 -0.105842 -8.26883e-05)
(0.000966548 -0.10236 -0.500888)
(-0.000803289 -0.0985541 -0.000312297)
(0.000994055 -0.102977 -0.500893)
(-0.000849372 -0.0984962 -0.000304902)
(0.000337017 -0.105254 0.000118502)
(0.000377199 -0.106483 3.63519e-05)
(0.000302763 -0.105357 0.00011699)
(0.000358739 -0.106675 3.37367e-05)
(0.000853545 -0.097866 0.000285992)
(0.000285797 -0.100544 3.89732e-05)
(0.000833621 -0.0978497 0.000284687)
(0.000283316 -0.100772 3.63492e-05)
(0.000367658 -0.108395 9.45597e-07)
(0.000367634 -0.108395 -9.793e-07)
(0.000338668 -0.108644 4.7936e-08)
(0.000338644 -0.108644 -7.84912e-08)
(0.00016823 -0.102308 6.0185e-07)
(0.00016823 -0.102308 -6.35994e-07)
(0.000156919 -0.102574 -2.64755e-07)
(0.000156921 -0.102573 2.33714e-07)
(0.000377143 -0.106483 -3.64117e-05)
(0.000336837 -0.105254 -0.000118583)
(0.00035869 -0.106674 -3.37937e-05)
(0.000302578 -0.105356 -0.00011707)
(0.000285865 -0.100543 -3.90356e-05)
(0.000853749 -0.0978652 -0.00028613)
(0.000283388 -0.100771 -3.64082e-05)
(0.000833791 -0.0978487 -0.000284823)
(-0.00429879 -0.105695 9.01581e-05)
(0.00409875 -0.107172 0.495892)
(-0.00437032 -0.105842 8.28142e-05)
(0.00409917 -0.107582 0.495914)
(-0.000804041 -0.0985549 0.000312593)
(0.00096814 -0.102361 0.500887)
(-0.000850144 -0.098497 0.000305193)
(0.000995666 -0.102979 0.500893)
(0.00411824 -0.106352 -0.495806)
(-0.00416567 -0.105301 -0.000102301)
(0.00410766 -0.106763 -0.495826)
(-0.0042331 -0.105514 -9.65185e-05)
(0.000931841 -0.101211 -0.500869)
(-0.000739897 -0.0984871 -0.000324527)
(0.00095144 -0.101773 -0.500874)
(-0.000772625 -0.098545 -0.000318742)
(0.000411729 -0.104959 0.000120147)
(0.000424186 -0.106047 4.07094e-05)
(0.000372044 -0.105122 0.000119509)
(0.000398716 -0.106275 3.86646e-05)
(0.00089648 -0.0978021 0.000287453)
(0.000294825 -0.100065 4.33561e-05)
(0.000871922 -0.097852 0.000286828)
(0.000289353 -0.100309 4.13019e-05)
(0.000430629 -0.107846 2.63501e-06)
(0.000430608 -0.107846 -2.67044e-06)
(0.000398189 -0.108128 1.80968e-06)
(0.000398166 -0.108129 -1.84648e-06)
(0.000192604 -0.101731 2.23876e-06)
(0.000192599 -0.10173 -2.25658e-06)
(0.0001801 -0.102028 1.43564e-06)
(0.000180097 -0.102027 -1.47155e-06)
(0.000424107 -0.106047 -4.07787e-05)
(0.000411552 -0.104959 -0.000120235)
(0.000398651 -0.106274 -3.87281e-05)
(0.000371861 -0.105121 -0.000119592)
(0.000294875 -0.100064 -4.34506e-05)
(0.00089672 -0.0978016 -0.000287621)
(0.000289414 -0.100309 -4.13704e-05)
(0.000872142 -0.0978514 -0.000286971)
(-0.00416783 -0.105301 0.000102439)
(0.00411966 -0.106353 0.495802)
(-0.00423527 -0.105514 9.66521e-05)
(0.0041091 -0.106763 0.495822)
(-0.000740615 -0.0984879 0.000324838)
(0.000933413 -0.101212 0.500869)
(-0.000773363 -0.0985459 0.000319041)
(0.000953025 -0.101775 0.500873)
(0.00416127 -0.105512 -0.495714)
(-0.00403532 -0.104783 -0.000112021)
(0.00414018 -0.105936 -0.495736)
(-0.00410261 -0.105056 -0.000107426)
(0.000913162 -0.100126 -0.500851)
(-0.000684839 -0.0982042 -0.000334476)
(0.000925483 -0.100663 -0.500856)
(-0.000714427 -0.0983674 -0.000329666)
(0.000496317 -0.104545 0.000120612)
(0.000484629 -0.10553 4.41034e-05)
(0.000452292 -0.104767 0.00012047)
(0.000452691 -0.1058 4.24986e-05)
(0.000946298 -0.0975967 0.000287909)
(0.000309128 -0.0995336 4.70278e-05)
(0.000920343 -0.0977164 0.000287598)
(0.000301249 -0.099807 4.50734e-05)
(0.000501439 -0.107221 4.13128e-06)
(0.000501433 -0.107222 -4.19373e-06)
(0.00046499 -0.107543 3.42397e-06)
(0.000464959 -0.107544 -3.43801e-06)
(0.000219029 -0.101084 3.43476e-06)
(0.000219064 -0.101083 -3.96205e-06)
(0.000205602 -0.101417 3.08899e-06)
(0.000205591 -0.101416 -2.89901e-06)
(0.000484749 -0.10553 -4.41004e-05)
(0.000495993 -0.104545 -0.000120635)
(0.000452549 -0.105799 -4.25777e-05)
(0.000452191 -0.104767 -0.000120574)
(0.000309316 -0.0995333 -4.65693e-05)
(0.000946441 -0.0975962 -0.000287484)
(0.000301228 -0.0998064 -4.53736e-05)
(0.00092068 -0.0977162 -0.000287982)
(-0.00403756 -0.104783 0.000112144)
(0.00416264 -0.105512 0.49571)
(-0.00410476 -0.105057 0.000107575)
(0.0041416 -0.105936 0.495732)
(-0.000685578 -0.098205 0.000334417)
(0.000914702 -0.100127 0.50085)
(-0.000715121 -0.0983684 0.000330145)
(0.000927057 -0.100664 0.500855)
(0.00422252 -0.104628 -0.49562)
(-0.00390424 -0.104148 -0.000119741)
(0.00419237 -0.105076 -0.495641)
(-0.00397253 -0.10448 -0.000116061)
(0.000905091 -0.0990624 -0.500833)
(-0.000642146 -0.0977509 -0.000342204)
(0.000911959 -0.0995937 -0.500837)
(-0.000666979 -0.0979978 -0.000338046)
(0.000588616 -0.104008 0.000120286)
(0.000558639 -0.104919 4.66341e-05)
(0.000540461 -0.104292 0.000120443)
(0.000519996 -0.105237 4.53886e-05)
(0.000997238 -0.09725 0.000287339)
(0.000329151 -0.0989308 4.97587e-05)
(0.000970449 -0.0974411 0.000286943)
(0.000318454 -0.0992424 4.7771e-05)
(0.000581094 -0.106513 5.42736e-06)
(0.000581137 -0.106514 -5.538e-06)
(0.000540136 -0.106878 4.85568e-06)
(0.000540097 -0.106879 -4.83632e-06)
(0.00024793 -0.100359 4.51054e-06)
(0.000247984 -0.100359 -5.41709e-06)
(0.000233189 -0.100732 4.68424e-06)
(0.000233159 -0.100731 -4.02127e-06)
(0.000558834 -0.104919 -4.6611e-05)
(0.000588153 -0.104008 -0.000120251)
(0.000519675 -0.105237 -4.55192e-05)
(0.000540508 -0.104292 -0.00012059)
(0.000329437 -0.0989305 -4.89143e-05)
(0.000997294 -0.0972498 -0.000286496)
(0.000318282 -0.0992418 -4.85645e-05)
(0.000970968 -0.097441 -0.000287847)
(-0.00390653 -0.104148 0.000119863)
(0.00422384 -0.104628 0.495617)
(-0.00397464 -0.10448 0.000116241)
(0.00419377 -0.105077 0.495637)
(-0.000642887 -0.0977518 0.000341865)
(0.00090661 -0.0990633 0.500832)
(-0.000667607 -0.0979988 0.000338893)
(0.000913536 -0.0995947 0.500836)
(0.00430087 -0.10368 -0.495527)
(-0.0037704 -0.103396 -0.000125928)
(0.00426221 -0.104163 -0.495546)
(-0.00384023 -0.103787 -0.000122959)
(0.000907307 -0.097985 -0.500815)
(-0.000603924 -0.0971455 -0.000348246)
(0.000909032 -0.0985272 -0.500819)
(-0.000626942 -0.0974663 -0.000344655)
(0.000689243 -0.103346 0.000119438)
(0.000646596 -0.104203 4.84979e-05)
(0.000636758 -0.103693 0.000119785)
(0.00060106 -0.104575 4.75486e-05)
(0.00104856 -0.0967604 0.00028614)
(0.000355256 -0.0982399 5.17101e-05)
(0.00102166 -0.0970231 0.0002857)
(0.000341644 -0.0985974 4.97886e-05)
(0.000670669 -0.10571 6.55783e-06)
(0.000670722 -0.10571 -6.68959e-06)
(0.000624655 -0.106123 6.09366e-06)
(0.00062458 -0.106124 -6.05397e-06)
(0.000279988 -0.0995466 5.47929e-06)
(0.000280055 -0.0995462 -6.61362e-06)
(0.000263624 -0.0999647 6.00128e-06)
(0.000263574 -0.0999642 -5.0499e-06)
(0.00064687 -0.104203 -4.84524e-05)
(0.000688707 -0.103346 -0.000119379)
(0.000600672 -0.104575 -4.77086e-05)
(0.000636907 -0.103693 -0.00011996)
(0.000355599 -0.0982396 -5.06344e-05)
(0.00104857 -0.0967604 -0.000285049)
(0.000341381 -0.098597 -5.08862e-05)
(0.00102229 -0.0970232 -0.000286921)
(-0.00377271 -0.103396 0.000126036)
(0.00430215 -0.10368 0.495523)
(-0.00384232 -0.103787 0.00012316)
(0.0042636 -0.104163 0.495542)
(-0.00060463 -0.0971464 0.000347734)
(0.000908811 -0.0979858 0.500814)
(-0.000627497 -0.0974672 0.000345732)
(0.000910608 -0.0985281 0.500818)
(0.00439595 -0.102651 -0.495428)
(-0.00362857 -0.102523 -0.000130861)
(0.0043489 -0.103176 -0.495448)
(-0.00370333 -0.102975 -0.000128465)
(0.000917872 -0.0968655 -0.500797)
(-0.00056839 -0.0964005 -0.000352952)
(0.000915565 -0.0974319 -0.500801)
(-0.000590086 -0.0967901 -0.000349858)
(0.000799477 -0.102555 0.000118267)
(0.000748225 -0.103372 4.98273e-05)
(0.000742003 -0.102967 0.000118787)
(0.000696003 -0.103802 4.90718e-05)
(0.00110085 -0.0961259 0.000284561)
(0.000386851 -0.0974464 5.30329e-05)
(0.00107328 -0.0964613 0.000284107)
(0.000370702 -0.0978567 5.12346e-05)
(0.000771315 -0.104801 7.56398e-06)
(0.000771376 -0.104801 -7.64643e-06)
(0.000719665 -0.105269 7.1626e-06)
(0.000719578 -0.105269 -7.11219e-06)
(0.000315907 -0.0986362 6.32799e-06)
(0.000315966 -0.0986359 -7.57753e-06)
(0.000297523 -0.0991045 7.07816e-06)
(0.000297486 -0.0991041 -5.96353e-06)
(0.000748549 -0.103371 -4.96473e-05)
(0.000798899 -0.102555 -0.000118343)
(0.000695576 -0.103802 -4.92749e-05)
(0.000742203 -0.102967 -0.000118948)
(0.000387265 -0.0974462 -5.18359e-05)
(0.00110086 -0.096126 -0.000283346)
(0.000370363 -0.0978564 -5.25054e-05)
(0.00107398 -0.0964615 -0.000285503)
(-0.00363091 -0.102523 0.000130939)
(0.00439721 -0.102651 0.495424)
(-0.00370543 -0.102975 0.000128678)
(0.00435027 -0.103176 0.495445)
(-0.000569065 -0.0964013 0.000352345)
(0.000919371 -0.0968661 0.500796)
(-0.000590584 -0.0967909 0.000351069)
(0.000917138 -0.0974326 0.5008)
(0.00450693 -0.101526 -0.495328)
(-0.00347424 -0.101527 -0.000134867)
(0.00445209 -0.102101 -0.495349)
(-0.00355542 -0.102041 -0.00013285)
(0.000936171 -0.0956806 -0.500779)
(-0.000532649 -0.0955193 -0.00035666)
(0.000929942 -0.0962824 -0.500782)
(-0.000555201 -0.095977 -0.000353928)
(0.000919765 -0.101628 0.000117041)
(0.000862923 -0.102417 5.07549e-05)
(0.000857293 -0.102109 0.000117735)
(0.000804266 -0.10291 5.00124e-05)
(0.00115503 -0.0953432 0.000282731)
(0.000424183 -0.0965389 5.39898e-05)
(0.00112654 -0.0957532 0.000282362)
(0.000405048 -0.0970075 5.21701e-05)
(0.000883734 -0.103774 8.36589e-06)
(0.000883852 -0.103775 -8.37992e-06)
(0.000826158 -0.104302 8.00628e-06)
(0.000826046 -0.104303 -8.04914e-06)
(0.000355863 -0.0976165 7.01067e-06)
(0.000355942 -0.0976162 -8.30507e-06)
(0.000335469 -0.0981411 7.92417e-06)
(0.000335467 -0.0981407 -6.74557e-06)
(0.000863225 -0.102417 -5.04374e-05)
(0.000919144 -0.101628 -0.000117273)
(0.000803851 -0.10291 -5.03915e-05)
(0.00085753 -0.102109 -0.000117694)
(0.000424626 -0.0965388 -5.25225e-05)
(0.00115503 -0.0953434 -0.000281581)
(0.000404614 -0.0970074 -5.36284e-05)
(0.00112731 -0.0957535 -0.000283774)
(-0.00347662 -0.101527 0.000134915)
(0.00450818 -0.101525 0.495324)
(-0.00355753 -0.102041 0.000133107)
(0.00445344 -0.102101 0.495345)
(-0.000533334 -0.09552 0.000355941)
(0.000937662 -0.095681 0.500778)
(-0.000555674 -0.0959778 0.000355243)
(0.000931512 -0.096283 0.500782)
(0.00463225 -0.100289 -0.495227)
(-0.00330561 -0.1004 -0.000138142)
(0.00457029 -0.100922 -0.495247)
(-0.0033943 -0.100981 -0.000136463)
(0.000961884 -0.0944104 -0.500762)
(-0.000490632 -0.0944976 -0.000359533)
(0.000951924 -0.0950571 -0.500764)
(-0.000516382 -0.0950265 -0.000357112)
(0.00104985 -0.100558 0.000115941)
(0.000990243 -0.101328 5.12854e-05)
(0.000982413 -0.101111 0.000116652)
(0.000925247 -0.10189 5.06795e-05)
(0.00121066 -0.0944093 0.000280818)
(0.000468353 -0.0955054 5.45358e-05)
(0.00118147 -0.0948952 0.000280555)
(0.000445818 -0.0960386 5.26953e-05)
(0.00100876 -0.102619 8.90321e-06)
(0.0010089 -0.102619 -8.96636e-06)
(0.00094485 -0.103213 8.6229e-06)
(0.00094468 -0.103213 -8.71917e-06)
(0.000400216 -0.0964758 7.51033e-06)
(0.000400339 -0.0964755 -8.83533e-06)
(0.000377602 -0.0970622 8.54499e-06)
(0.000377562 -0.0970618 -7.33316e-06)
(0.000990522 -0.101328 -5.10411e-05)
(0.00104921 -0.100557 -0.000116074)
(0.000924872 -0.10189 -5.11491e-05)
(0.000982692 -0.101111 -0.000116512)
(0.000468738 -0.0955054 -5.29146e-05)
(0.00121063 -0.0944096 -0.000279724)
(0.000445389 -0.0960386 -5.43805e-05)
(0.00118226 -0.0948955 -0.000281894)
(-0.00330801 -0.1004 0.000138207)
(0.00463349 -0.100289 0.495223)
(-0.00339641 -0.100981 0.00013675)
(0.00457163 -0.100922 0.495244)
(-0.000491334 -0.0944984 0.000358758)
(0.000963367 -0.0944108 0.50076)
(-0.000516868 -0.0950273 0.000358518)
(0.000953488 -0.0950576 0.500764)
(0.00477238 -0.098927 -0.495124)
(-0.00311744 -0.0991273 -0.000140805)
(0.00470283 -0.0996242 -0.495144)
(-0.0032167 -0.099782 -0.000139446)
(0.00099467 -0.0930383 -0.500744)
(-0.000445595 -0.0933273 -0.000361713)
(0.000980998 -0.093738 -0.500746)
(-0.000472537 -0.0939316 -0.00035959)
(0.00119145 -0.0993373 0.000114876)
(0.00113047 -0.100093 5.15104e-05)
(0.001118 -0.0999664 0.000115388)
(0.00105899 -0.100729 5.11854e-05)
(0.00126835 -0.0933209 0.000278842)
(0.000519199 -0.0943339 5.47329e-05)
(0.00123793 -0.0938846 0.000278662)
(0.000493261 -0.0949376 5.29579e-05)
(0.00114694 -0.101323 9.27936e-06)
(0.00114708 -0.101324 -9.39788e-06)
(0.00107645 -0.101988 9.15657e-06)
(0.00107624 -0.101989 -9.14377e-06)
(0.000449239 -0.0952034 7.87025e-06)
(0.00044941 -0.0952031 -9.191e-06)
(0.00042436 -0.0958569 8.98863e-06)
(0.000424241 -0.0958566 -7.75466e-06)
(0.00113072 -0.100093 -5.1381e-05)
(0.00119081 -0.0993372 -0.000114871)
(0.00105865 -0.100729 -5.14807e-05)
(0.0011183 -0.0999662 -0.000115464)
(0.000519511 -0.094334 -5.30468e-05)
(0.0012683 -0.0933213 -0.000277806)
(0.000492948 -0.0949376 -5.47388e-05)
(0.00123874 -0.093885 -0.000279946)
(-0.00311987 -0.0991272 0.000140892)
(0.0047736 -0.0989267 0.49512)
(-0.00321884 -0.0997819 0.000139695)
(0.00470415 -0.099624 0.49514)
(-0.000446304 -0.0933281 0.000360923)
(0.000996144 -0.0930386 0.500742)
(-0.000473015 -0.0939324 0.000361027)
(0.000982557 -0.0937384 0.500746)
(0.0049258 -0.0974291 -0.495018)
(-0.00291551 -0.0977063 -0.000142977)
(0.00485008 -0.0981955 -0.495037)
(-0.00301844 -0.0984357 -0.000141862)
(0.00103689 -0.0915485 -0.500726)
(-0.000389554 -0.0919977 -0.00036332)
(0.00101779 -0.0923089 -0.500728)
(-0.00042395 -0.0926831 -0.000361468)
(0.00134389 -0.097962 0.000113819)
(0.00128324 -0.0987035 5.15454e-05)
(0.00126563 -0.0986693 0.000114261)
(0.00120557 -0.0994181 5.13779e-05)
(0.00133169 -0.0920726 0.000276825)
(0.00057679 -0.0930139 5.46405e-05)
(0.00129784 -0.0927171 0.000276731)
(0.000547438 -0.093693 5.2971e-05)
(0.00129848 -0.099877 9.55396e-06)
(0.00129862 -0.0998776 -9.6786e-06)
(0.00122133 -0.100619 9.50804e-06)
(0.00122109 -0.10062 -9.47383e-06)
(0.000502954 -0.0937897 8.11281e-06)
(0.000503132 -0.0937893 -9.39836e-06)
(0.000475781 -0.094515 9.26642e-06)
(0.000475619 -0.0945147 -8.05394e-06)
(0.00128348 -0.0987036 -5.14463e-05)
(0.0013433 -0.0979618 -0.00011379)
(0.00120525 -0.0994181 -5.16136e-05)
(0.00126594 -0.0986692 -0.000114397)
(0.00057707 -0.093014 -5.29482e-05)
(0.00133162 -0.092073 -0.00027586)
(0.000547174 -0.0936932 -5.4784e-05)
(0.00129864 -0.0927175 -0.000277944)
(-0.00291773 -0.0977062 0.00014307)
(0.00492704 -0.0974288 0.495014)
(-0.00302056 -0.0984356 0.000142102)
(0.00485139 -0.0981952 0.495033)
(-0.000390347 -0.0919985 0.000362541)
(0.00103833 -0.0915487 0.500724)
(-0.00042447 -0.0926838 0.000362908)
(0.00101933 -0.0923092 0.500728)
(0.00508805 -0.0957832 -0.49491)
(-0.00275541 -0.0961289 -0.000144746)
(0.00500773 -0.0966254 -0.49493)
(-0.00283367 -0.0969377 -0.000143827)
(0.00109159 -0.0899271 -0.500708)
(-0.000307946 -0.0905137 -0.000364448)
(0.00106633 -0.0907549 -0.50071)
(-0.000355589 -0.0912736 -0.000362849)
(0.00150217 -0.0964226 0.000112681)
(0.0014485 -0.0971494 5.13741e-05)
(0.00142086 -0.0972134 0.000113167)
(0.00136449 -0.0979474 5.13296e-05)
(0.00140379 -0.0906591 0.000274834)
(0.000640732 -0.0915356 5.43107e-05)
(0.00136574 -0.0913866 0.000274792)
(0.000608328 -0.092295 5.27722e-05)
(0.00146344 -0.0982704 9.72365e-06)
(0.00146357 -0.098271 -9.84615e-06)
(0.00137961 -0.099094 9.72909e-06)
(0.00137936 -0.0990946 -9.6957e-06)
(0.000561325 -0.0922248 8.25479e-06)
(0.000561501 -0.0922245 -9.48264e-06)
(0.000531852 -0.0930269 9.40883e-06)
(0.000531672 -0.0930265 -8.24423e-06)
(0.00144873 -0.0971495 -5.12907e-05)
(0.00150161 -0.0964225 -0.000112651)
(0.0013642 -0.0979475 -5.15457e-05)
(0.00142121 -0.0972133 -0.000113311)
(0.000640986 -0.0915357 -5.26598e-05)
(0.00140372 -0.0906596 -0.00027395)
(0.000608091 -0.0922952 -5.45656e-05)
(0.0013665 -0.0913871 -0.000275925)
(-0.00275744 -0.0961288 0.000144843)
(0.00508929 -0.0957828 0.494906)
(-0.00283547 -0.0969376 0.000144063)
(0.00500906 -0.096625 0.494926)
(-0.00030882 -0.0905144 0.000363704)
(0.00109301 -0.0899273 0.500707)
(-0.000356227 -0.0912743 0.000364264)
(0.00106783 -0.0907551 0.50071)
(0.00526445 -0.0939761 -0.4948)
(-0.0025928 -0.0943838 -0.00014617)
(0.00517662 -0.0949001 -0.49482)
(-0.00267922 -0.0952777 -0.000145422)
(0.00115468 -0.0881617 -0.50069)
(-0.000213702 -0.0888847 -0.000365163)
(0.00112565 -0.0890631 -0.500692)
(-0.000264812 -0.0897178 -0.000363811)
(0.00167209 -0.0947095 0.000111548)
(0.0016267 -0.0954223 5.10336e-05)
(0.00158452 -0.095588 0.000112013)
(0.00153623 -0.0963077 5.10814e-05)
(0.00148079 -0.0890758 0.000272901)
(0.000710192 -0.0898905 5.37909e-05)
(0.00144086 -0.089889 0.000272922)
(0.000675093 -0.0907343 5.24036e-05)
(0.00164148 -0.0964942 9.80684e-06)
(0.0016416 -0.0964948 -9.92449e-06)
(0.00155119 -0.0974036 9.84878e-06)
(0.00155093 -0.0974043 -9.82008e-06)