/*--------------------------------*- C++ -*----------------------------------*\
  =========                 |
  \\      /  F ield         | OpenFOAM: The Open Source CFD Toolbox
   \\    /   O peration     | Website:  https://openfoam.org
    \\  /    A nd           | Version:  9
     \\/     M anipulation  |
\*---------------------------------------------------------------------------*/
FoamFile
{
    format      ascii;
    class       volScalarField;
    location    "3.6";
    object      epsilon;
}
// * * * * * * * * * * * * * * * * * * * * * * * * * * * * * * * * * * * * * //

dimensions      [0 2 -3 0 0 0 0];

internalField   nonuniform List<scalar> 
36360
(
9.15387
8.12453
7.00126
6.49655
13.2111
12.3603
7.55626
8.99316
6.17435
5.15198
4.78589
3.89473
9.95522
8.66997
6.77312
5.61984
4.71082
4.71058
3.51712
3.51688
8.1267
8.12602
5.17295
5.17239
5.1513
6.17334
3.89405
4.78485
8.66794
9.95185
5.61812
6.77014
8.12347
9.15284
6.49537
7.00002
12.3556
13.2055
8.98884
7.55191
11.3113
10.0417
10.457
9.25125
17.3612
15.8622
15.7556
14.3838
7.88196
6.75317
7.1537
6.05899
13.1358
11.714
11.7672
10.3973
6.26341
6.26321
5.58518
5.58496
11.1007
11.1001
9.81059
9.80991
6.75262
7.88119
6.05837
7.1528
11.7121
13.1327
10.3953
11.7639
10.0409
11.3106
9.25034
10.4561
15.8579
17.356
14.3792
15.7503
12.4557
11.1422
11.9454
10.6481
19.6511
18.0498
18.6057
17.0458
8.93686
7.78219
8.45882
7.31321
15.2166
13.7427
14.2579
12.8047
7.28029
7.28015
6.81555
6.81539
13.1035
13.1029
12.1754
12.1748
7.78179
8.93632
7.31275
8.45816
13.741
15.2139
12.8029
14.255
11.1418
12.4554
10.6475
11.9449
18.0461
19.6468
17.0418
18.6011
13.2432
11.9126
12.8791
11.5556
21.3378
19.6878
20.5486
18.9186
9.69629
8.53477
9.3434
8.18427
16.792
15.2917
16.0515
14.5629
8.02941
8.02931
7.68015
7.68003
14.6416
14.6411
13.9174
13.9169
8.5345
9.69593
8.18394
9.34295
15.2904
16.7898
14.5615
16.0491
11.9123
13.2431
11.5553
12.8788
19.6848
21.3342
18.9152
20.5447
13.8362
12.4964
13.5578
12.2222
22.6583
20.9842
22.0341
20.37
10.2803
9.11846
10.0059
8.8439
18.046
16.5297
17.4519
15.9429
8.6125
8.61243
8.33806
8.33797
15.8737
15.8733
15.2895
15.289
9.11828
10.2801
8.84367
10.0056
16.5286
18.0442
15.9417
17.4499
12.4964
13.8364
12.222
13.5578
20.9817
22.6553
20.3672
22.0309
14.2996
12.9541
14.0805
12.7377
23.7186
22.0326
23.2151
21.5339
10.7428
9.58343
10.5244
9.36376
19.0647
17.5385
18.5804
17.0588
9.07825
9.07821
8.8581
8.85805
16.8792
16.8789
16.4009
16.4006
9.58332
10.7427
9.36361
10.5242
17.5377
19.0632
17.0578
18.5788
12.9542
14.2998
12.7377
14.0806
22.0305
23.7162
21.5317
23.2124
14.6664
13.3174
14.4927
13.1453
24.5782
22.8863
24.1696
22.4798
11.1131
9.95783
10.938
9.78074
19.8982
18.3668
19.5017
17.9727
9.45431
9.45428
9.27633
9.2763
17.7059
17.7057
17.3124
17.3121
9.95777
11.1131
9.78066
10.938
18.3661
19.897
17.9719
19.5004
13.3175
14.6668
13.1454
14.4929
22.8846
24.5762
22.478
24.1674
14.956
13.6052
14.8188
13.4689
25.2729
23.5802
24.943
23.25
11.4096
10.2593
11.2696
10.1169
20.5793
19.0458
20.2555
18.723
9.75799
9.75798
9.61444
9.61442
18.3848
18.3846
18.062
18.0618
10.2593
11.4097
10.1168
11.2696
19.0452
20.5783
18.7223
20.2545
13.6054
14.9564
13.469
14.8192
23.5787
25.2714
23.2484
24.9412
15.1829
13.8311
15.0751
13.7241
25.8321
24.1399
25.5658
23.8737
11.645
10.5002
11.5341
10.3867
21.1318
19.5987
20.8697
19.3365
10.0014
10.0014
9.8867
9.88669
18.9384
18.9383
18.6758
18.6756
10.5002
11.6451
10.3867
11.5342
19.5982
21.1309
19.3359
20.8688
13.8313
15.1833
13.7243
15.0755
24.1387
25.8306
23.8724
25.5643
15.3571
14.0045
15.2753
13.923
26.2759
24.5845
26.0668
24.3742
11.8286
10.6898
11.7427
10.601
21.5737
20.0429
21.3651
19.8332
10.1937
10.1937
10.1036
10.1036
19.3842
19.3841
19.1737
19.1735
10.6898
11.8287
10.601
11.7427
20.0425
21.573
19.8327
21.3644
14.0048
15.3576
13.9232
15.2756
24.5835
26.2744
24.3731
26.0655
15.4861
14.1329
15.4257
14.073
26.6191
24.929
26.4576
24.7668
11.9676
10.835
11.9031
10.7676
21.9193
20.3924
21.7572
20.2285
10.3419
10.3419
10.273
10.273
19.736
19.7359
19.5709
19.5708
10.835
11.9677
10.7676
11.9032
20.392
21.9187
20.2281
21.7566
14.1332
15.4866
14.0732
15.426
24.9283
26.618
24.766
26.4562
15.5747
14.2215
15.534
14.181
26.8718
25.1848
26.7546
25.0659
12.0674
10.9414
12.0219
10.8928
22.1798
20.6582
22.0591
20.5349
10.4514
10.4514
10.4012
10.4012
20.0048
20.0047
19.88
19.8799
10.9414
12.0675
10.8928
12.022
20.6579
22.1793
20.5346
22.0586
14.2218
15.5751
14.1813
15.5346
25.1843
26.8712
25.0654
26.7543
15.6275
14.275
15.6043
14.2515
27.0463
25.3621
26.9671
25.2813
12.1326
11.0135
12.1039
10.9815
22.3646
20.8496
22.2807
20.7625
10.5267
10.5267
10.4931
10.4931
20.1997
20.1996
20.1108
20.1107
11.0135
12.1326
10.9815
12.104
20.8493
22.3642
20.7622
22.2802
14.2752
15.6278
14.2516
15.6043
25.3615
27.0459
25.2806
26.966
15.6475
14.2958
15.6405
14.2885
27.1485
25.4674
27.1051
25.4221
12.1662
11.0546
12.1531
11.0377
22.4809
20.9737
22.4306
20.9195
10.5712
10.5713
10.5527
10.5527
20.3279
20.3278
20.2716
20.2715
11.0546
12.1663
11.0378
12.1531
20.9735
22.4805
20.9192
22.4301
14.296
15.6476
14.2887
15.641
25.4667
27.1477
25.4215
27.1047
15.6355
14.285
15.645
14.2938
27.1819
25.5038
27.1731
25.4933
12.1704
11.0671
12.1719
11.0643
22.5335
21.0362
22.5146
21.0122
10.5877
10.5877
10.5829
10.5829
20.3949
20.3949
20.3686
20.3685
11.0671
12.1704
11.0643
12.1719
21.0359
22.533
21.0119
22.5142
14.2851
15.6357
14.2939
15.6451
25.5032
27.1814
25.4927
27.1724
15.5911
14.245
15.6154
14.2671
27.1537
25.4793
27.1739
25.4974
12.1478
11.0539
12.1621
11.0636
22.5283
21.0419
22.5369
21.0454
10.5786
10.5785
10.5861
10.5861
20.4055
20.4053
20.4069
20.4068
11.0538
12.1475
11.0635
12.162
21.0415
22.5275
21.0451
22.5363
14.2445
15.5907
14.2669
15.6154
25.4777
27.1518
25.4965
27.1733
15.5276
14.1842
15.561
14.2167
27.0682
25.3998
27.1166
25.445
12.1016
11.0168
12.1275
11.0383
22.4691
20.9956
22.5052
21.0257
10.5456
10.5456
10.5651
10.565
20.365
20.3649
20.3923
20.3922
11.0167
12.1016
11.0382
12.1273
20.9952
22.4686
21.0253
22.5044
14.1838
15.5275
14.2163
15.5608
25.3994
27.0673
25.4434
27.114
15.4351
14.0969
15.4832
14.1419
26.9284
25.2658
27.0034
25.3375
12.0329
10.9577
12.0697
10.9899
22.3596
20.8995
22.4199
20.9532
10.4908
10.4908
10.5209
10.5209
20.2744
20.2743
20.3254
20.3253
10.9577
12.0329
10.9899
12.0697
20.8992
22.3591
20.9529
22.4194
14.0977
15.4363
14.1419
15.4833
25.2653
26.9285
25.3372
27.004
15.328
13.9944
15.3827
14.0474
26.7419
25.0862
26.8399
25.1808
11.9445
10.8784
11.9911
10.9206
22.2041
20.7577
22.2872
20.8341
10.4156
10.4156
10.4558
10.4558
20.138
20.1378
20.2117
20.2116
10.8784
11.9443
10.9206
11.9911
20.7573
22.2036
20.8338
22.2868
13.9921
15.3269
14.0471
15.3835
25.0855
26.7414
25.1802
26.8393
15.1926
13.8651
15.263
13.9318
26.5043
24.8548
26.6283
24.9753
11.835
10.7792
11.8922
10.8313
22.0022
20.571
22.1085
20.6697
10.3208
10.3208
10.3706
10.3706
19.9567
19.9566
20.0526
20.0525
10.7791
11.8347
10.8313
11.892
20.5705
22.0014
20.6693
22.1079
13.8631
15.1896
13.929
15.2601
24.8534
26.5022
24.9744
26.6279
15.0345
13.7161
15.1148
13.7921
26.2148
24.575
26.3647
24.7194
11.7057
10.6608
11.7726
10.7224
21.7551
20.34
21.8839
20.4608
10.2072
10.2071
10.2664
10.2663
19.7331
19.7329
19.8502
19.85
10.6605
11.705
10.7222
11.7722
20.3394
21.7537
20.4602
21.8827
13.7148
15.0333
13.7909
15.1128
24.5722
26.2128
24.7171
26.361
14.8553
13.5462
14.9468
13.6328
25.8797
24.2487
26.0516
24.4166
11.557
10.5235
11.6337
10.5945
21.4636
20.0658
21.6145
20.2081
10.0751
10.075
10.1435
10.1434
19.4668
19.4666
19.6051
19.6049
10.5232
11.5561
10.5942
11.6327
20.0652
21.4622
20.2074
21.613
13.5438
14.8519
13.6303
14.944
24.2448
25.8757
24.4126
26.0496
14.6509
13.3553
14.7544
13.4518
25.4949
23.874
25.6924
24.0655
11.3888
10.3676
11.4751
10.4479
21.1284
19.7493
21.301
19.9126
9.92478
9.92479
10.0023
10.0022
19.1587
19.1586
19.3178
19.3177
10.3676
11.3889
10.4478
11.4748
19.749
21.1277
19.9122
21.3
13.3566
14.6523
13.4511
14.7527
23.8728
25.493
24.0633
25.6886
14.4297
13.1465
14.5426
13.2533
25.0623
23.4537
25.2838
23.6688
11.202
10.1935
11.2979
10.2829
20.7502
19.391
20.9444
19.5752
9.75651
9.75654
9.84294
9.84297
18.8093
18.8092
18.989
18.989
10.1936
11.2021
10.283
11.2979
19.3908
20.7499
19.575
20.944
13.1467
14.429
13.2539
14.5439
23.4529
25.0624
23.6681
25.2842
14.1784
12.9138
14.3055
13.0309
24.5818
22.9849
24.8269
23.2234
10.9958
10.0011
11.1011
10.0996
20.329
18.9911
20.5445
19.196
9.57036
9.5704
9.66571
9.66575
18.4189
18.4189
18.6191
18.619
10.0012
10.996
10.0997
11.1013
18.991
20.3286
19.1959
20.5441
12.9165
14.1833
13.0339
14.308
22.9837
24.5797
23.2224
24.8256
13.9101
12.6641
14.0463
12.7911
24.0515
22.4707
24.3203
22.7323
10.7711
9.79075
10.8857
9.89823
19.865
18.5502
20.1021
18.7756
9.36653
9.3666
9.4707
9.47075
17.9881
17.9881
18.2084
18.2084
9.79101
10.7716
9.89839
10.8858
18.5502
19.8651
18.7755
20.1019
12.6652
13.9104
12.7907
14.047
22.4711
24.0521
22.7316
24.32
13.6197
12.3957
13.7657
12.5308
23.4775
21.9121
23.7695
22.1953
10.5282
9.56257
10.6517
9.67889
19.3588
18.0687
19.6166
18.3143
9.14518
9.14529
9.25808
9.25818
17.5174
17.5175
17.7576
17.7576
9.56295
10.529
9.67924
10.6526
18.0689
19.3594
18.3144
19.6171
12.3978
13.6228
12.5338
13.769
21.9137
23.4788
22.1966
23.7698
13.3066
12.1069
13.4651
12.2528
22.8558
21.3101
23.1716
21.6153
10.2669
9.3167
10.3998
9.44189
18.8122
17.5477
19.0903
17.813
8.90642
8.9065
9.02803
9.02813
17.0075
17.0075
17.2672
17.2673
9.31697
10.2675
9.44224
10.4006
17.5477
18.8125
17.8131
19.0908
12.1082
13.3084
12.2547
13.4678
21.3108
22.8568
21.6167
23.173
12.9666
11.7949
13.1393
11.953
22.1847
20.6604
22.5258
20.9902
9.98606
9.05277
10.1289
9.18704
18.2242
16.9872
18.5232
17.2722
8.65017
8.65021
8.78053
8.78059
16.4589
16.4589
16.7379
16.7379
9.05291
9.98633
9.18724
10.1293
16.9871
18.2241
17.2722
18.5232
11.7954
12.9673
11.9538
13.1404
20.6603
22.1846
20.9904
22.5261
12.6003
11.4603
12.7856
11.6294
21.4648
19.9642
21.8297
20.3167
9.68569
8.7709
9.83815
8.91407
17.5954
16.3881
17.9145
16.6922
8.37661
8.37663
8.51557
8.5156
15.8726
15.8726
16.1703
16.1702
8.77097
9.68583
8.91417
9.83835
16.388
17.5952
16.6921
17.9144
11.4606
12.6007
11.6297
12.7861
19.9639
21.4644
20.3164
21.8294
12.2116
11.106
12.4077
11.2847
20.701
19.226
21.0872
19.599
9.36718
8.47183
9.52855
8.6235
16.9283
15.7523
17.2663
16.0746
8.08627
8.08629
8.23355
8.23357
15.2501
15.2501
15.5657
15.5656
8.47187
9.36728
8.62355
9.52867
15.7522
16.9281
16.0744
17.266
11.1062
12.212
11.2849
12.408
19.2257
20.7005
19.5987
21.0868
11.8033
10.7337
12.0089
10.9212
19.8979
18.4506
20.3034
18.8419
9.03168
8.15627
9.20143
8.3161
16.2256
15.0816
16.5811
15.4211
7.77969
7.7797
7.93503
7.93504
14.593
14.593
14.9257
14.9257
8.15631
9.03176
8.31614
9.20152
15.0815
16.2253
15.421
16.5808
10.7339
11.8036
10.9214
12.0092
18.4503
19.8974
18.8415
20.3029
11.3774
10.3449
11.5916
10.5405
19.0581
17.6398
19.4817
18.0486
8.67993
7.82466
8.85775
7.99249
15.4888
14.3775
15.8611
14.7336
7.45714
7.45714
7.62045
7.62046
13.9026
13.9026
14.2519
14.2518
7.82469
8.68
7.99253
8.85783
14.3773
15.4885
14.7334
15.8609
10.3451
11.3777
10.5407
11.5919
17.6394
19.0575
18.0482
19.4811
10.9352
9.94033
11.1575
10.1438
18.1832
16.795
18.6242
17.2206
8.31209
7.47689
8.49798
7.65285
14.7189
13.6406
15.1077
14.013
7.11843
7.11844
7.28987
7.28988
13.1796
13.1795
13.5451
13.545
7.47692
8.31215
7.65288
8.49805
13.6404
14.7186
14.0128
15.1075
9.94049
10.9355
10.144
11.1578
16.7946
18.1826
17.2202
18.6237
10.4771
9.51964
10.7074
9.73132
17.2732
15.9171
17.732
16.3593
7.92743
7.11212
8.1219
7.29676
13.916
12.8707
14.3215
13.2597
6.76266
6.76267
6.94281
6.94282
12.4235
12.4234
12.8056
12.8056
7.11214
7.92749
7.29678
8.12196
12.8705
13.9157
13.2596
14.3212
9.51979
10.4774
9.73147
10.7077
15.9167
17.2727
16.3589
17.7314
10.0016
9.08061
10.241
9.30194
16.3249
15.0049
16.8035
15.4646
7.52349
6.72803
7.72808
6.92274
13.0779
12.0656
13.5014
12.4727
6.38771
6.38771
6.57781
6.57781
11.6323
11.6322
12.0324
12.0323
6.72805
7.52354
6.92275
7.72813
12.0655
13.0777
12.4725
13.5012
9.08075
10.0018
9.30208
10.2413
15.0045
16.3243
15.4642
16.803
9.50268
8.61606
9.75494
8.85165
15.3299
14.0538
15.8333
14.534
7.09362
6.31968
7.31246
6.52737
12.1976
11.2195
12.6437
11.6482
5.9898
5.9898
6.19195
6.19195
10.8014
10.8014
11.2221
11.2221
6.3197
7.09367
6.52739
7.3125
11.2193
12.1973
11.648
12.6434
8.61619
9.5029
8.85178
9.75514
14.0534
15.3294
14.5336
15.8328
8.9674
8.09875
9.23991
8.36699
14.2798
13.0421
14.811
13.5583
6.61875
5.8776
6.8639
6.10364
11.2521
10.3198
11.7355
10.7773
5.56448
5.56448
5.78074
5.78074
9.92512
9.92507
10.3691
10.369
5.87762
6.6188
6.10365
6.86395
10.3196
11.2518
10.7771
11.7353
8.09888
8.96762
8.36712
9.24011
13.0418
14.2794
13.5579
14.8105
8.39325
7.37385
8.68358
7.78731
13.1466
11.7604
13.7362
12.471
6.04708
5.39309
6.34977
5.6403
10.1721
9.35498
10.7352
9.84481
5.11583
5.11584
5.34187
5.34188
9.01015
9.0101
9.47053
9.47048
5.39311
6.04713
5.64032
6.34982
9.35485
10.1719
9.84467
10.735
7.37398
8.39349
7.78744
8.68378
11.76
13.1462
12.4707
13.7358
8.78698
7.92241
7.78546
7.05964
8.78266
7.82512
7.4506
6.71875
6.48035
5.60577
5.66115
4.83442
6.16908
5.21685
5.17426
4.30611
5.19665
5.1967
4.45469
4.45469
4.78574
4.78567
3.91983
3.91972
5.606
6.48095
4.83449
5.66145
5.21668
6.16898
4.30583
5.17394
7.92374
8.78896
7.06056
7.78682
7.82546
8.78337
6.71876
7.45075
10.0511
9.1435
9.51881
8.61952
10.351
9.29519
9.70584
8.67579
7.6594
6.75048
7.14068
6.23954
7.53511
6.51476
6.94214
5.94186
6.32166
6.32179
5.81588
5.81598
6.04923
6.04921
5.48702
5.48697
6.75092
7.66031
6.23989
7.14145
6.51477
7.53529
5.94178
6.94218
9.1452
10.0535
8.62106
9.52097
9.2959
10.3521
8.67632
9.70669
10.768
9.86773
10.4526
9.54695
11.2129
10.1472
10.8323
9.76845
8.40594
7.50551
8.07168
7.16493
8.38489
7.35827
8.00318
6.97666
7.07897
7.07913
6.73608
6.73623
6.88821
6.88824
6.50727
6.50728
7.50603
8.40696
7.16541
8.07264
7.35839
8.38524
6.97672
8.00344
9.86951
10.7704
9.54868
10.4549
10.1481
11.2142
9.76923
10.8334
11.2267
10.342
11.0191
10.1266
11.7797
10.7186
11.5206
10.4567
8.91402
8.03139
8.68206
7.79037
8.97478
7.95625
8.70339
7.68026
7.61233
7.61249
7.36739
7.36755
7.489
7.48905
7.21126
7.21129
8.03193
8.91505
7.79089
8.68307
7.95643
8.97522
7.68041
8.70378
10.3437
11.2291
10.1283
11.0215
10.7196
11.781
10.4576
11.5219
11.5447
10.6758
11.3983
10.5218
12.1882
11.1348
11.9982
10.941
9.28132
8.41723
9.11157
8.23849
9.41325
8.40601
9.20893
8.19609
8.00633
8.0065
7.82358
7.82374
7.94335
7.94342
7.7311
7.73116
8.41777
9.28232
8.23902
9.11257
8.40623
9.41373
8.1963
9.20938
10.6775
11.5469
10.5235
11.4005
11.1357
12.1896
10.9419
11.9994
11.7746
10.9201
11.6677
10.8065
12.4957
11.45
12.3514
11.302
9.55613
8.70935
9.42835
8.57329
9.7506
8.75503
9.59244
8.59126
8.30619
8.30636
8.16639
8.16655
8.29733
8.2974
8.13112
8.13119
8.70986
9.55708
8.57381
9.42931
8.75528
9.7511
8.59149
9.59292
10.9216
11.7766
10.8081
11.6698
11.451
12.4971
11.303
12.3526
11.943
11.1012
11.8646
11.0168
12.7308
11.6924
12.6202
11.5784
9.76459
8.93357
9.66756
8.82902
10.0138
9.02956
9.89024
8.90056
8.53754
8.53769
8.42955
8.42971
8.57675
8.57683
8.44536
8.44543
8.93405
9.76548
8.82951
9.66846
9.02981
10.0143
8.90081
9.89073
11.1026
11.945
11.0183
11.8665
11.6933
12.7321
11.5793
12.6214
12.0651
11.2343
12.0083
11.1724
12.9098
11.8781
12.8255
11.7907
9.92225
9.10551
9.84905
9.02552
10.2191
9.24556
10.1228
9.1442
8.71599
8.71614
8.63286
8.63301
8.79749
8.79757
8.69383
8.6939
9.10597
9.92308
9.02599
9.8499
9.24581
10.2196
9.14445
10.1233
11.2356
12.0669
11.1737
12.0101
11.879
12.911
11.7916
12.8267
12.1504
11.3292
12.111
11.2854
13.0436
12.018
12.9807
11.9524
10.0393
9.23552
9.98533
9.17541
10.3772
9.41386
10.3034
9.33521
8.85195
8.85209
8.78898
8.78912
8.97034
8.97042
8.88948
8.88956
9.23595
10.0401
9.17585
9.98613
9.41411
10.3777
9.33546
10.3039
11.3305
12.152
11.2866
12.1126
12.0188
13.0448
11.9532
12.9818
12.2052
11.3926
12.1804
11.3638
13.1398
12.1196
13.095
12.0723
10.1227
9.33084
10.0848
9.28731
10.4959
9.54224
10.441
9.48273
8.95275
8.95288
8.90657
8.9067
9.10308
9.10315
9.04144
9.04152
9.33124
10.1235
9.28772
10.0856
9.54248
10.4964
9.48297
10.4415
11.3937
12.2068
11.365
12.182
12.1203
13.1409
12.0731
13.0961
12.2345
11.4293
12.222
11.4133
13.2038
12.1885
13.1745
12.157
10.1778
9.39681
10.1535
9.36736
10.581
9.63654
10.5423
9.59342
9.02378
9.0239
8.99189
8.99201
9.20156
9.20163
9.1564
9.15647
9.39718
10.1784
9.36775
10.1542
9.63676
10.5814
9.59365
10.5427
11.4303
12.2359
11.4144
12.2234
12.1892
13.2049
12.1577
13.1755
12.2412
11.4426
12.2397
11.438
13.2396
12.2287
13.2241
12.2111
10.2082
9.43741
10.1959
9.42021
10.6368
9.70121
10.6122
9.67241
9.06914
9.06925
9.04963
9.04974
9.27029
9.27035
9.23951
9.23957
9.43775
10.2088
9.42056
10.1965
9.70141
10.6371
9.67262
10.6126
11.4436
12.2425
11.439
12.241
12.2294
13.2406
12.2118
13.225
12.2282
11.4356
12.2362
11.4409
13.2504
12.2437
13.247
12.2384
10.217
9.45575
10.2151
9.44933
10.6666
9.73975
10.6547
9.72362
9.09196
9.09206
9.08336
9.08347
9.31281
9.31286
9.29473
9.29479
9.45607
10.2175
9.44966
10.2157
9.73994
10.667
9.72381
10.655
11.4365
12.2294
11.4418
12.2374
12.2443
13.2513
12.239
13.2478
12.1966
11.4096
12.2139
11.4242
13.238
12.2353
13.2462
12.2415
10.2061
9.4541
10.2139
9.45741
10.673
9.75474
10.6726
9.75012
9.09461
9.0947
9.09583
9.09593
9.33178
9.33184
9.32519
9.32525
9.4544
10.2067
9.45772
10.2145
9.75491
10.6733
9.7503
10.6729
11.4104
12.1978
11.4251
12.215
12.2358
13.2388
12.2421
13.2469
12.1474
11.3657
12.1734
11.3892
13.2028
12.2044
13.2225
12.2219
10.1771
9.43412
10.1938
9.44643
10.6575
9.74822
10.6679
9.75408
9.0789
9.07899
9.08913
9.08922
9.32935
9.3294
9.33317
9.33322
9.43438
10.1776
9.44671
10.1943
9.74836
10.6578
9.75425
10.6682
11.3665
12.1484
11.39
12.1745
12.2049
13.2035
12.2225
13.2232
12.0815
11.3054
12.1157
11.3369
13.1467
12.153
13.1761
12.1804
10.1313
9.39725
10.1562
9.41782
10.6218
9.72176
10.642
9.7374
9.04628
9.04634
9.06475
9.06483
9.30717
9.30719
9.32069
9.32073
9.39744
10.1316
9.41805
10.1566
9.72178
10.6218
9.7375
10.6422
11.3058
12.0822
11.3376
12.1166
12.1528
13.1467
12.1806
13.1766
11.9996
11.2288
12.042
11.2686
13.0704
12.0821
13.1095
12.1186
10.0697
9.34476
10.1024
9.37299
10.5675
9.67705
10.5967
9.70163
8.99809
8.99815
9.02419
9.02424
9.26688
9.2669
9.28928
9.28929
9.34495
10.07
9.37316
10.1027
9.67712
10.5675
9.70164
10.5966
11.2293
12.0003
11.269
12.0425
12.0814
13.0696
12.118
13.109
11.9026
11.1382
11.9513
11.1841
12.9774
11.9951
13.0249
12.0395
9.9939
9.27802
10.0334
9.31318
10.4969
9.61586
10.534
9.64846
8.93562
8.93569
8.96869
8.96875
9.21004
9.21008
9.24051
9.24054
9.27823
9.99428
9.31338
10.0337
9.61598
10.4972
9.64856
10.5342
11.1389
11.9036
11.1847
11.9522
11.9963
12.979
12.0398
13.0248
11.794
11.0356
11.8493
11.0878
12.8729
11.8958
12.9258
11.9465
9.90547
9.19822
9.95124
9.23983
10.4116
9.53945
10.456
9.57959
8.85992
8.85999
8.89952
8.89958
9.13782
9.13786
9.17589
9.17593
9.19841
9.90584
9.24003
9.95161
9.53957
10.4118
9.57972
10.4563
11.0361
11.7948
11.0884
11.8502
11.8954
12.8724
11.947
12.9271
11.6736
10.9216
11.7344
10.9795
12.7495
11.7791
12.8128
11.8386
9.80452
9.10574
9.85655
9.15366
10.311
9.44811
10.3631
9.49568
8.77151
8.77156
8.81742
8.81747
9.05078
9.05079
9.0962
9.09623
9.10588
9.80478
9.15383
9.85688
9.44816
10.3111
9.49577
10.3633
10.922
11.6744
10.98
11.7352
11.78
12.7504
11.8388
12.8121
11.5387
10.7937
11.6075
10.8586
12.6113
11.6484
12.6811
11.7148
9.69088
9.00075
9.74927
9.0549
10.1955
9.34215
10.255
9.39699
8.67067
8.67069
8.72275
8.72279
8.94929
8.94929
9.0019
9.0019
9.00084
9.69104
9.05501
9.74946
9.34211
10.1953
9.39698
10.255
10.7939
11.5391
10.859
11.608
11.6475
12.6104
11.7149
12.6819
11.391
10.6539
11.4656
10.7248
12.4549
11.5011
12.5346
11.5759
9.56473
8.88343
9.62935
8.94372
10.0652
9.22183
10.1321
9.28382
8.55761
8.55766
8.61577
8.6158
8.83366
8.83366
8.8933
8.89329
8.88355
9.56493
8.94381
9.62951
9.22182
10.0651
9.28377
10.1319
10.6543
11.3916
10.725
11.4659
11.5014
12.4551
11.5754
12.5333
11.2284
10.5004
11.311
10.5782
12.2835
11.3399
12.3699
11.4216
9.42618
8.754
9.49698
8.82032
9.92042
9.08741
9.99452
9.15642
8.43258
8.43264
8.4967
8.49676
8.70413
8.70417
8.77069
8.77071
8.75422
9.42656
8.82049
9.49728
9.08754
9.92061
9.15648
9.99459
10.501
11.2292
10.5787
11.3117
11.3398
12.2836
11.4218
12.3708
11.0529
10.3353
11.1415
10.4189
12.0937
11.1622
12.1904
11.2523
9.27542
8.61259
9.35234
8.68489
9.76117
8.93903
9.84254
9.01501
8.29568
8.29576
8.36572
8.3658
8.56085
8.56092
8.63427
8.63433
8.61285
9.27589
8.68514
9.35278
8.93922
9.76152
9.01518
9.84283
10.3361
11.054
10.4196
11.1424
11.1634
12.095
11.2527
12.1904
10.8625
10.1564
10.9592
10.247
11.8882
10.9706
11.9918
11.0676
9.1123
8.45918
9.19542
8.53748
9.58753
8.77672
9.67611
8.85966
8.14695
8.14705
8.2229
8.22299
8.4039
8.40397
8.48415
8.48422
8.45947
9.11282
8.53776
9.19591
8.77694
9.5879
8.85987
9.67648
10.1572
10.8636
10.2478
10.9603
10.9709
11.8892
11.0686
11.9939
10.6581
9.96543
10.7612
10.0619
11.6638
10.7622
11.7777
10.8676
8.93696
8.29388
9.02615
8.37811
9.39944
8.60059
9.49518
8.69042
7.9865
7.9866
8.0683
8.06839
8.23339
8.23348
8.32039
8.32048
8.29421
8.93754
8.37841
9.02669
8.6009
9.40002
8.69067
9.49561
9.96636
10.6595
10.0628
10.7623
10.7636
11.6654
10.8681
11.7778
10.4402
9.76185
10.5503
9.86459
11.4252
10.5409
11.5453
10.6526
8.74969
8.11683
8.84481
8.20692
9.1976
8.41088
9.30021
8.50748
7.8144
7.81451
7.90201
7.90212
8.04944
8.04956
8.14316
8.14326
8.11718
8.75033
8.20726
8.84544
8.41125
9.1983
8.50783
9.30089
9.76285
10.4416
9.86559
10.5517
10.5417
11.4267
10.6541
11.5478
10.2091
9.54623
10.3256
9.65506
11.1689
10.3043
11.2981
10.4234
8.55035
7.92797
8.65156
8.02398
8.98174
8.20756
9.09133
8.31097
7.63064
7.63074
7.72408
7.7242
7.85207
7.85217
7.9525
7.95261
7.9283
8.55095
8.02433
8.65219
8.20787
8.98235
8.31133
9.09201
9.54719
10.2104
9.65606
10.3269
10.3055
11.1704
10.4244
11.2991
9.96282
9.31674
10.0874
9.43272
10.8959
10.0524
11.034
10.1798
8.33844
7.72716
8.44599
7.82916
8.75125
7.99035
8.86835
8.10076
7.43519
7.43528
7.53448
7.53457
7.64118
7.64125
7.74838
7.74846
7.72744
8.33895
7.82946
8.44654
7.99058
8.75167
8.10102
8.86886
9.31755
9.96395
9.43361
10.0886
10.0531
10.897
10.1808
11.0354
9.70143
9.07391
9.83328
9.19641
10.603
9.78305
10.751
9.91904
8.11417
7.51458
8.22781
7.6224
8.50577
7.75928
8.63027
7.87656
7.22825
7.22833
7.33324
7.33332
7.41688
7.41694
7.53074
7.5308
7.51483
8.11462
7.62266
8.22829
7.75945
8.50609
7.87675
8.63064
9.07464
9.70245
9.19717
9.83432
9.78361
10.6038
9.91966
10.7519
9.42734
8.81933
9.56527
8.94751
10.2933
9.49897
10.4492
9.64206
7.87846
7.29081
7.9977
7.40414
8.24646
7.51498
8.37772
7.63878
7.01024
7.01031
7.1207
7.12077
7.17964
7.17969
7.2999
7.29995
7.29104
7.87888
7.40438
7.99813
7.51513
8.24675
7.63894
8.37803
8.82001
9.4283
8.94821
9.56623
9.49946
10.294
9.64259
10.45
9.1424
8.55444
9.28558
8.68764
9.96969
9.20181
10.1323
9.35127
7.63223
7.05643
7.75663
7.175
7.97438
7.2581
8.11192
7.38812
6.78161
6.78168
6.89732
6.89739
6.92992
6.92997
7.05637
7.05642
7.05665
7.63263
7.17522
7.75704
7.25824
7.97465
7.38826
8.1122
8.5551
9.14333
8.6883
9.2865
9.20228
9.97038
9.35176
10.133
8.84817
8.28027
8.99583
8.41802
9.63406
8.89297
9.80259
9.04817
7.37607
6.81179
7.50539
6.93547
7.69024
6.98901
7.83376
7.12511
6.54259
6.54266
6.66349
6.66356
6.66796
6.668
6.80052
6.80057
6.812
7.37646
6.93568
7.50578
6.98915
7.6905
7.12525
7.83402
8.28091
8.84907
8.41866
8.99672
8.89343
9.63472
9.04864
9.80323
8.54576
7.99744
8.69743
8.13948
9.2875
8.57302
9.46141
8.73376
7.11019
6.55685
7.24438
6.68571
7.39418
6.70763
7.54368
6.84993
6.29301
6.29308
6.41924
6.4193
6.39355
6.39359
6.5324
6.53244
6.55705
7.11057
6.68592
7.24476
6.70776
7.39443
6.85006
7.54393
7.99807
8.54664
8.14011
8.69829
8.57346
9.28814
8.7342
9.46202
8.2355
7.70585
8.39113
7.85236
8.93032
8.24169
9.10959
8.40824
6.83404
6.29087
6.9735
6.4254
7.08551
6.41308
7.24148
6.56213
6.03209
6.03215
6.16414
6.1642
6.10577
6.10581
6.25147
6.25151
6.29107
6.83441
6.4256
6.97387
6.4132
7.08575
6.56226
7.24172
7.70646
8.23635
7.85297
8.39197
8.24211
8.93093
8.40867
9.11019
7.9162
7.40384
8.07664
7.55591
8.56089
7.89679
8.74669
8.07059
6.54567
6.01195
6.69161
6.15328
6.76184
6.10311
6.92577
6.26027
5.758
5.75806
5.89693
5.89699
5.80253
5.80257
5.95631
5.95635
6.01214
6.54603
6.15348
6.69197
6.10323
6.76207
6.26039
6.926
7.40443
7.91702
7.5565
8.07745
7.8972
8.56147
8.071
8.74726
7.58426
7.08632
7.75165
7.24716
8.1738
7.53152
8.36946
7.7169
6.24002
5.71618
6.39554
5.86658
6.41689
5.77299
6.59266
5.94103
5.46778
5.46784
5.61519
5.61525
5.48024
5.48027
5.64408
5.64411
5.71637
6.24037
5.86677
6.39589
5.7731
6.4171
5.94114
6.59288
7.08689
7.58506
7.24773
7.75244
7.53191
8.17436
7.7173
8.37001
7.23606
6.73658
7.41147
6.91718
7.75923
7.12245
7.96975
7.33487
5.90407
5.39724
6.07722
5.5601
6.0336
5.41427
6.23183
5.59786
5.1588
5.15886
5.31569
5.31575
5.13513
5.13516
5.31064
5.31068
5.39742
5.90441
5.56028
6.07756
5.41438
6.03381
5.59797
6.23205
6.73713
7.23683
6.91774
7.41223
7.12283
7.75978
7.33525
7.97029
6.89494
6.26713
7.06169
6.53087
7.32913
6.55174
7.54363
6.87581
5.50811
5.0534
5.71592
5.22764
5.57088
5.02161
5.81554
5.22153
4.83835
4.8384
4.99867
4.99873
4.77277
4.7728
4.95481
4.95484
5.05357
5.50842
5.22781
5.71624
5.02171
5.57108
5.22163
5.81574
6.26765
6.8957
6.53141
7.06244
6.5521
7.32968
6.87618
7.54415
8.98144
8.26292
8.25182
7.61368
8.87426
8.09084
8.04333
7.36086
7.10649
6.37235
6.45027
5.72743
6.81031
6.0107
6.09039
5.31576
6.01808
6.01835
5.38416
5.38435
5.62925
5.62942
4.95263
4.95273
6.3732
7.10807
5.72807
6.45151
6.01126
6.81144
5.31612
6.09118
8.26547
8.98472
7.6158
8.25452
8.09285
8.87691
7.36243
8.04533
9.94005
9.21967
9.52822
8.80263
9.95337
9.15369
9.49306
8.69283
8.07463
7.34272
7.64401
6.90637
7.86563
7.05431
7.39781
6.5859
6.98717
6.98751
6.54904
6.54934
6.66425
6.66448
6.19681
6.19702
7.34376
8.07648
6.90733
7.64574
7.05507
7.86706
6.58657
7.3991
9.2225
9.94361
8.80535
9.53164
9.15603
9.95638
8.69502
9.49585
10.5013
9.8021
10.2548
9.54448
10.5781
9.79489
10.3035
9.51105
8.69951
7.99106
8.42013
7.69911
8.54237
7.74895
8.23956
7.43585
7.64567
7.64601
7.3481
7.34844
7.36599
7.36625
7.04853
7.04878
7.99211
8.70136
7.70015
8.42197
7.74976
8.54385
7.43664
8.241
9.80486
10.5047
9.54726
10.2583
9.79723
10.5811
9.51338
10.3064
10.8494
10.1737
10.6941
10.0069
10.9708
10.2085
10.7944
10.0218
9.11587
8.43393
8.92766
8.23274
8.99732
8.2274
8.7907
8.00913
8.10075
8.10108
7.89351
7.89385
7.85491
7.85516
7.63135
7.63161
8.43494
9.11761
8.23377
8.92944
8.2282
8.99875
8.00992
8.79213
10.1763
10.8527
10.0096
10.6974
10.2107
10.9736
10.0241
10.7972
11.0755
10.4213
10.9735
10.309
11.2337
10.4911
11.1138
10.3618
9.40406
8.74676
9.27267
8.60357
9.31859
8.57129
9.1711
8.41291
8.42511
8.42542
8.27634
8.27666
8.20915
8.20939
8.04573
8.04598
8.7477
9.40567
8.60453
9.27433
8.57205
9.31994
8.41368
9.17246
10.4236
11.0784
10.3114
10.9765
10.4932
11.2363
10.3639
11.1164
11.2254
10.59
11.1574
10.5131
11.4159
10.6908
11.3321
10.5988
9.60842
8.97295
9.51488
8.86902
9.5525
8.82558
9.44452
8.70788
8.66159
8.66187
8.55272
8.55301
8.47285
8.47308
8.35061
8.35085
8.9738
9.60989
8.86991
9.5164
8.82628
9.55374
8.7086
9.44579
10.5921
11.2281
10.5153
11.1602
10.6927
11.4183
10.6007
11.3345
11.324
10.7047
11.2795
10.6525
11.5429
10.8329
11.4845
10.7674
9.75415
9.13781
9.68757
9.06213
9.72471
9.01586
9.6452
8.92774
8.83553
8.83579
8.7555
8.75576
8.67156
8.67177
8.57939
8.57961
9.13859
9.75548
9.06294
9.68895
9.01652
9.72586
8.92842
9.64638
10.7066
11.3264
10.6546
11.282
10.8346
11.5451
10.7692
11.4867
11.3852
10.7797
11.358
10.746
11.629
10.9321
11.5896
10.8866
9.85631
9.25676
9.81001
9.20249
9.85046
9.15765
9.79267
9.09223
8.96248
8.96271
8.90437
8.90462
8.82085
8.82105
8.75182
8.75202
9.25748
9.85752
9.20323
9.81128
9.15825
9.85151
9.09285
9.79375
10.7815
11.3874
10.7478
11.3603
10.9337
11.6311
10.8882
11.5917
11.4177
10.8242
11.404
10.8048
11.6833
10.9976
11.6589
10.968
9.92455
9.33982
9.89422
9.30247
9.93954
9.26105
9.89907
9.21377
9.05262
9.05283
9.01186
9.01209
8.93098
8.93116
8.88047
8.88066
9.34048
9.92566
9.30314
9.89538
9.26161
9.94051
9.21435
9.90007
10.8258
11.4197
10.8065
11.406
10.9991
11.6852
10.9695
11.6608
11.427
10.8439
11.4244
10.8363
11.7116
11.0357
11.6996
11.0192
9.96535
9.39381
9.94808
9.37027
9.99866
9.33304
9.97248
9.30074
9.11291
9.11311
9.08634
9.08655
9.00904
9.00921
8.97381
8.97399
9.39441
9.96636
9.37089
9.94913
9.33356
9.99955
9.30127
9.9734
10.8453
11.4289
10.8379
11.4263
11.037
11.7133
11.0206
11.7013
11.4173
10.843
11.4238
10.8453
11.7181
11.0508
11.7166
11.0453
9.98331
9.42359
9.97697
9.41163
10.0327
9.37869
10.0185
9.35901
9.14836
9.14854
9.13367
9.13386
9.0602
9.06036
9.03786
9.03802
9.42414
9.98425
9.4122
9.97794
9.37916
10.0335
9.3595
10.0194
10.8444
11.419
10.8467
11.4255
11.052
11.7196
11.0466
11.7182
11.3908
10.8245
11.4054
10.8354
11.7056
11.0458
11.7134
11.0501
9.98173
9.43269
9.9848
9.43068
10.045
9.4017
10.0413
9.39293
9.16262
9.16278
9.15812
9.15829
9.08828
9.08842
9.07705
9.0772
9.4332
9.9826
9.43121
9.9857
9.40214
10.0458
9.39338
10.0421
10.8257
11.3924
10.8367
11.407
11.047
11.7071
11.0512
11.7149
11.3498
10.7904
11.3713
10.8088
11.6765
11.0234
11.6922
11.0361
9.96311
9.42386
9.97443
9.43051
10.0384
9.40493
10.0439
9.40573
9.15849
9.15865
9.16284
9.163
9.09618
9.09631
9.09472
9.09486
9.42433
9.96392
9.431
9.97527
9.40534
10.0391
9.40615
10.0446
10.7916
11.3513
10.81
11.3729
11.0245
11.6778
11.0372
11.6936
11.2952
10.7421
11.3235
10.7675
11.6318
10.9848
11.6553
11.0055
9.92909
9.39889
9.94795
9.41341
10.0147
9.39045
10.0286
9.39991
9.1379
9.13805
9.15029
9.15044
9.08613
9.08626
9.09342
9.09355
9.39934
9.92985
9.41387
9.94873
9.39083
10.0153
9.40031
10.0293
10.7432
11.2966
10.7686
11.325
10.9858
11.6331
11.0065
11.6566
11.2278
10.6806
11.2625
10.7125
11.5723
10.9312
11.6031
10.9592
9.881
9.35932
9.90674
9.38097
9.97513
9.35974
9.99676
9.37712
9.10245
9.10259
9.12209
9.12224
9.05965
9.05977
9.07496
9.07508
9.35973
9.88171
9.3814
9.90747
9.3601
9.97575
9.37748
9.9974
10.6817
11.2292
10.7136
11.2638
10.9321
11.5735