/*--------------------------------*- C++ -*----------------------------------*\
  =========                 |
  \\      /  F ield         | OpenFOAM: The Open Source CFD Toolbox
   \\    /   O peration     | Website:  https://openfoam.org
    \\  /    A nd           | Version:  9
     \\/     M anipulation  |
\*---------------------------------------------------------------------------*/
FoamFile
{
    format      ascii;
    class       volScalarField;
    location    "3.6";
    object      nut;
}
// * * * * * * * * * * * * * * * * * * * * * * * * * * * * * * * * * * * * * //

dimensions      [0 2 -1 0 0 0 0];

internalField   nonuniform List<scalar> 
36360
(
0.0199866
0.0200142
0.018554
0.0186856
0.00223989
0.00219089
0.00186011
0.00197109
0.0193649
0.0191026
0.018023
0.0177909
0.00203891
0.00194745
0.00179396
0.00168616
0.0190286
0.0190279
0.017745
0.0177443
0.00190606
0.001906
0.00164041
0.00164035
0.0191005
0.0193616
0.0177886
0.0180194
0.0019473
0.00203868
0.00168599
0.0017937
0.0200097
0.0199814
0.0186807
0.0185483
0.00219061
0.00223958
0.00197077
0.00185975
0.0214945
0.0216413
0.0208244
0.0209234
0.00245264
0.00238012
0.00237488
0.00230405
0.0210831
0.0208149
0.0203207
0.0200494
0.00223547
0.00215198
0.00215532
0.00206851
0.0207166
0.0207161
0.0199595
0.0199589
0.00211388
0.00211384
0.00202899
0.00202895
0.0208131
0.0210803
0.0200475
0.0203177
0.00215187
0.0022353
0.00206838
0.00215512
0.0216376
0.0214902
0.0209194
0.0208199
0.0023799
0.00245241
0.00230381
0.00237462
0.022577
0.0227502
0.0220744
0.0222387
0.00255558
0.00248435
0.00250965
0.00243764
0.0222368
0.0219855
0.0217077
0.0214477
0.0023472
0.00226903
0.00229709
0.00221647
0.0218857
0.0218852
0.0213469
0.0213464
0.0022334
0.00223337
0.00217966
0.00217963
0.0219841
0.0222345
0.0214462
0.0217051
0.00226895
0.00234707
0.00221637
0.00229694
0.0227471
0.0225732
0.0222353
0.0220705
0.00248419
0.00255539
0.00243745
0.00250944
0.0233897
0.0235781
0.0230104
0.023191
0.00262632
0.00255694
0.00259371
0.00252338
0.0230882
0.0228509
0.0226905
0.022447
0.00242511
0.00235079
0.00238914
0.00231306
0.0227566
0.0227562
0.0223496
0.0223492
0.00231707
0.00231705
0.00227845
0.00227842
0.0228498
0.0230863
0.0224457
0.0226884
0.00235073
0.00242501
0.00231298
0.00238902
0.0235755
0.0233866
0.0231881
0.0230071
0.00255681
0.00262617
0.00252323
0.00259355
0.0240177
0.0242214
0.0237222
0.0239181
0.00267911
0.00261155
0.00265442
0.00258597
0.0237494
0.023521
0.0234377
0.0232054
0.00248368
0.00241221
0.00245629
0.0023835
0.0234321
0.0234317
0.0231139
0.0231135
0.00237993
0.00237992
0.00235055
0.00235053
0.02352
0.0237478
0.0232043
0.023436
0.00241216
0.0024836
0.00238344
0.0024562
0.0242192
0.024015
0.0239157
0.0237194
0.00261145
0.00267899
0.00258585
0.00265429
0.0245146
0.0247326
0.0242796
0.0244905
0.00272001
0.00265407
0.00270074
0.00263402
0.0242755
0.0240534
0.0240263
0.0238013
0.00252928
0.00246001
0.00250781
0.00243752
0.0239682
0.023968
0.0237144
0.0237141
0.00242885
0.00242883
0.00240583
0.00240582
0.0240526
0.0242741
0.0238004
0.0240249
0.00245997
0.00252921
0.00243747
0.00250774
0.0247307
0.0245123
0.0244885
0.0242772
0.00265399
0.00271992
0.00263393
0.00270064
0.0249132
0.0251435
0.0247242
0.0249485
0.00275228
0.0026877
0.00273704
0.0026718
0.0246993
0.0244822
0.0244981
0.0242787
0.00256538
0.0024979
0.00254833
0.00248002
0.0243992
0.0243989
0.0241948
0.0241946
0.00246762
0.0024676
0.00244931
0.0024493
0.0244815
0.0246982
0.024278
0.0244969
0.00249786
0.00256533
0.00247998
0.00254828
0.025142
0.0249113
0.0249468
0.0247222
0.00268763
0.0027522
0.00267172
0.00273695
0.0252352
0.0254752
0.0250823
0.0253177
0.0027778
0.00271441
0.00276573
0.00270177
0.0250421
0.024829
0.0248793
0.0246643
0.00259413
0.00252811
0.00258054
0.00251384
0.0247473
0.0247471
0.024582
0.0245818
0.00249855
0.00249854
0.00248394
0.00248393
0.0248284
0.0250411
0.0246637
0.0248783
0.00252808
0.00259409
0.00251381
0.0025805
0.0254738
0.0252334
0.0253162
0.0250806
0.00271436
0.00277773
0.00270171
0.00276568
0.0254938
0.0257419
0.0253714
0.0256154
0.00279799
0.00273558
0.00278841
0.00272555
0.0253186
0.0251089
0.0251874
0.0249761
0.00261698
0.00255217
0.0026062
0.00254082
0.0250282
0.025028
0.0248949
0.0248947
0.00252322
0.00252321
0.00251158
0.00251157
0.0251084
0.0253177
0.0249756
0.0251865
0.00255215
0.00261695
0.00254079
0.00260616
0.0257407
0.0254923
0.0256141
0.0253699
0.00273553
0.00279794
0.00272551
0.00278836
0.0256994
0.0259541
0.0256022
0.0258537
0.00281376
0.00275216
0.00280638
0.00274434
0.0255395
0.025333
0.025435
0.025227
0.00263498
0.00257118
0.00262652
0.00256224
0.025253
0.0252528
0.0251466
0.0251465
0.00254273
0.00254273
0.00253355
0.00253355
0.0253326
0.0255388
0.0252265
0.0254343
0.00257116
0.00263495
0.00256222
0.00262649
0.025953
0.0256982
0.0258526
0.0256009
0.00275212
0.00281376
0.0027443
0.00280633
0.0258605
0.0261201
0.0257849
0.026042
0.00282588
0.00276486
0.00282019
0.0027589
0.0257131
0.0255094
0.0256314
0.0254264
0.00264887
0.00258593
0.00264237
0.00257904
0.02543
0.0254299
0.0253467
0.0253465
0.00255791
0.00255791
0.00255081
0.00255081
0.0255091
0.0257125
0.025426
0.0256308
0.00258592
0.00264885
0.00257902
0.00264235
0.0261192
0.0258593
0.026041
0.0257837
0.00276483
0.0028259
0.00275886
0.00282017
0.0259828
0.0262459
0.0259258
0.0261872
0.00283482
0.00277421
0.00283068
0.00276987
0.0258457
0.0256446
0.0257838
0.0255815
0.00265924
0.00259703
0.00265444
0.0025919
0.0255658
0.0255657
0.0255024
0.0255023
0.00256938
0.00256938
0.00256407
0.00256407
0.0256444
0.0258453
0.0255812
0.0257834
0.00259702
0.00265922
0.00259188
0.00265443
0.0262452
0.0259817
0.0261864
0.0259247
0.00277418
0.0028348
0.00276985
0.0028307
0.0260708
0.0263367
0.0260306
0.026295
0.00284083
0.00278063
0.00283814
0.00277771
0.0259424
0.0257437
0.025898
0.0256981
0.00266654
0.00260496
0.00266323
0.00260136
0.0256653
0.0256652
0.0256195
0.0256194
0.00257763
0.00257762
0.00257388
0.00257387
0.0257434
0.025942
0.0256978
0.0258975
0.00260495
0.00266652
0.00260135
0.00266321
0.0263361
0.0260698
0.0262943
0.0260297
0.00278061
0.00284077
0.00277768
0.00283805
0.0261283
0.0263959
0.0261028
0.0263695
0.00284436
0.00278442
0.00284281
0.0027828
0.026007
0.0258105
0.0259782
0.0257806
0.0026711
0.00261006
0.00266913
0.00260784
0.0257326
0.0257325
0.0257025
0.0257024
0.00258301
0.00258301
0.00258065
0.00258065
0.0258102
0.0260066
0.0257803
0.0259778
0.00261005
0.00267108
0.00260783
0.00266911
0.0263954
0.0261274
0.026369
0.0261019
0.0027844
0.00284429
0.00278278
0.00284281
0.0261586
0.0264267
0.0261464
0.0264143
0.00284554
0.00278571
0.00284525
0.00278535
0.0260425
0.0258481
0.0260279
0.0258325
0.00267314
0.0026126
0.00267241
0.00261163
0.0257707
0.0257707
0.0257548
0.0257548
0.0025858
0.0025858
0.00258471
0.00258471
0.0258479
0.0260421
0.0258322
0.0260275
0.00261259
0.00267312
0.00261162
0.00267239
0.0264261
0.0261574
0.0264137
0.0261454
0.00278569
0.00284552
0.00278533
0.00284517
0.0261639
0.0264324
0.0261648
0.0264328
0.0028444
0.00278478
0.00284519
0.00278546
0.0260519
0.0258592
0.0260501
0.0258563
0.0026729
0.00261281
0.00267325
0.00261297
0.0257824
0.0257823
0.0257793
0.0257792
0.00258621
0.00258621
0.00258629
0.00258628
0.0258589
0.0260513
0.025856
0.0260496
0.00261279
0.00267286
0.00261295
0.00267323
0.0264316
0.0261631
0.0264321
0.0261637
0.00278473
0.0028444
0.00278543
0.00284517
0.026144
0.0264121
0.0261565
0.0264249
0.00284147
0.00278188
0.00284315
0.00278353
0.0260348
0.0258443
0.0260461
0.0258546
0.00267053
0.00261086
0.00267197
0.00261212
0.0257686
0.0257685
0.0257784
0.0257783
0.00258447
0.00258447
0.00258564
0.00258563
0.0258439
0.0260342
0.0258542
0.0260454
0.00261084
0.00267051
0.0026121
0.00267194
0.0264108
0.0261423
0.026424
0.026156
0.00278185
0.00284137
0.00278347
0.00284308
0.0260999
0.0263678
0.0261245
0.0263922
0.00283654
0.00277695
0.00283913
0.00277958
0.0259937
0.0258054
0.0260169
0.0258275
0.00266616
0.00260685
0.00266856
0.00260909
0.025731
0.0257309
0.0257525
0.0257524
0.00258061
0.00258061
0.00258278
0.00258278
0.0258051
0.0259932
0.0258272
0.0260164
0.00260683
0.00266614
0.00260908
0.00266855
0.0263674
0.0260989
0.0263912
0.0261227
0.00277693
0.00283652
0.00277956
0.00283916
0.0260355
0.026303
0.02607
0.0263378
0.00283001
0.00277035
0.00283345
0.00277383
0.0259298
0.0257434
0.0259644
0.025777
0.00265995
0.00260092
0.00266327
0.00260411
0.0256706
0.0256706
0.0257034
0.0257033
0.00257479
0.00257478
0.00257794
0.00257793
0.025743
0.025929
0.0257767
0.0259637
0.0026009
0.00265993
0.0026041
0.00266325
0.0263006
0.0260331
0.0263365
0.0260689
0.00277029
0.00283
0.00277379
0.0028334
0.0259478
0.0262146
0.0259944
0.0262612
0.00282149
0.00276178
0.00282596
0.00276625
0.025843
0.0256587
0.025889
0.0257037
0.00265185
0.00259308
0.00265612
0.00259723
0.0255875
0.0255874
0.0256318
0.0256317
0.00256703
0.00256702
0.00257114
0.00257113
0.0256583
0.0258423
0.0257033
0.0258882
0.00259306
0.00265181
0.00259722
0.00265609
0.0262126
0.0259451
0.0262585
0.0259912
0.0027617
0.00282147
0.00276618
0.00282592
0.0258392
0.0261052
0.0258957
0.0261622
0.00281126
0.00275137
0.00281653
0.00275675
0.0257337
0.0255504
0.0257909
0.0256072
0.00264187
0.00258333
0.00264708
0.00258844
0.0254802
0.0254801
0.0255366
0.0255365
0.00255739
0.00255738
0.00256244
0.00256244
0.02555
0.0257331
0.0256069
0.0257903
0.0025833
0.00264181
0.00258842
0.00264703
0.0261044
0.0258379
0.0261611
0.0258944
0.00275127
0.00281111
0.00275666
0.00281646
0.0257071
0.0259732
0.025776
0.0260415
0.00279921
0.00273913
0.00280547
0.00274544
0.0256019
0.0254193
0.0256705
0.0254875
0.00263002
0.00257166
0.00263617
0.00257773
0.0253497
0.0253496
0.0254177
0.0254175
0.00254583
0.00254582
0.00255185
0.00255184
0.0254188
0.025601
0.025487
0.0256696
0.00257164
0.00262995
0.0025777
0.0026361
0.0259724
0.0257063
0.0260407
0.0257746
0.00273897
0.00279908
0.00274529
0.0028053
0.0255518
0.025819
0.025632
0.0258985
0.00278522
0.00272492
0.00279235
0.00273219
0.0254469
0.025265
0.025527
0.0253448
0.00261624
0.00255806
0.00262335
0.0025651
0.0251959
0.0251957
0.0252755
0.0252754
0.00253232
0.00253231
0.00253931
0.00253931
0.0252644
0.0254463
0.0253443
0.0255263
0.00255805
0.00261622
0.00256508
0.00262331
0.0258187
0.0255511
0.0258975
0.0256311
0.0027249
0.00278512
0.00273212
0.00279226
0.0253745
0.0256427
0.025466
0.0257335
0.00276944
0.00270885
0.00277757
0.00271711
0.0252686
0.0250869
0.0253605
0.0251787
0.00260054
0.00254249
0.00260863
0.00255052
0.0250183
0.0250182
0.0251099
0.0251097
0.00251683
0.00251682
0.00252482
0.00252482
0.0250863
0.0252677
0.0251781
0.0253596
0.00254249
0.00260052
0.00255051
0.00260861
0.0256417
0.0253724
0.0257327
0.0254645
0.00270881
0.00276943
0.00271708
0.00277753
0.0251707
0.0254422
0.0252754
0.0255447
0.00275146
0.00269066
0.00276067
0.00269993
0.0250666
0.0248847
0.0251703
0.0249886
0.00258281
0.00252489
0.00259191
0.00253394
0.0248166
0.0248164
0.0249203
0.0249201
0.00249929
0.00249929
0.00250831
0.00250831
0.0248843
0.0250661
0.0249881
0.0251697
0.00252489
0.0025828
0.00253394
0.0025919
0.025443
0.0251726
0.0255454
0.0252758
0.00269065
0.00275158
0.00269994
0.0027607
0.0249447
0.0252189
0.0250611
0.0253335
0.00273167
0.00267045
0.00274176
0.00268077
0.0248395
0.0246578
0.0249562
0.0247742
0.00256301
0.0025052
0.00257317
0.00251531
0.02459
0.0245899
0.0247062
0.024706
0.00247965
0.00247965
0.00248973
0.00248973
0.0246573
0.0248387
0.0247737
0.0249554
0.0025052
0.00256301
0.0025153
0.00257316
0.0252179
0.0249429
0.0253323
0.0250602
0.00267046
0.00273162
0.00268073
0.00274175
0.0246928
0.0249716
0.0248214
0.0250978
0.00270975
0.00264815
0.00272093
0.0026595
0.0245865
0.0244056
0.0247159
0.0245347
0.00254105
0.00248333
0.00255228
0.00249453
0.0243381
0.024338
0.024467
0.0244669
0.00245783
0.00245783
0.00246901
0.00246901
0.0244051
0.0245856
0.0245342
0.024715
0.00248334
0.00254108
0.00249454
0.0025523
0.0249705
0.0246916
0.0250974
0.0248209
0.00264821
0.0027098
0.00265956
0.00272096
0.024415
0.0246987
0.0245569
0.0248378
0.00268561
0.00262367
0.00269792
0.00263614
0.0243083
0.0241274
0.0244504
0.0242696
0.00251691
0.00245923
0.00252925
0.00247156
0.0240601
0.02406
0.0242022
0.0242021
0.00243374
0.00243374
0.00244607
0.00244607
0.024127
0.0243076
0.0242691
0.0244495
0.00245923
0.00251692
0.00247157
0.00252927
0.0246975
0.0244136
0.0248366
0.0245554
0.00262369
0.00268564
0.00263619
0.00269797
0.0241116
0.0244003
0.0242663
0.0245523
0.00265906
0.00259672
0.00267261
0.00261047
0.0240041
0.0238226
0.0241593
0.0239782
0.00249041
0.00243276
0.00250395
0.00244629
0.0237553
0.0237552
0.0239109
0.0239108
0.00240729
0.00240729
0.00242081
0.00242081
0.0238223
0.0240036
0.0239779
0.0241587
0.00243276
0.0024904
0.00244629
0.00250395
0.0243996
0.0241107
0.0245514
0.0242652
0.00259672
0.00265905
0.00261048
0.00267262
0.0237814
0.0240755
0.0239498
0.0242409
0.00262997
0.00256722
0.00264479
0.00258225
0.0236727
0.0234903
0.0238416
0.0236597
0.00246143
0.00240382
0.00247622
0.0024186
0.0234228
0.0234228
0.0235923
0.0235923
0.00237836
0.00237835
0.00239313
0.00239313
0.0234901
0.0236723
0.0236595
0.0238412
0.00240381
0.00246142
0.00241859
0.00247621
0.0240749
0.0237806
0.0242402
0.023949
0.00256721
0.00262996
0.00258223
0.00264478
0.0234235
0.0237233
0.0236057
0.0239025
0.0025984
0.00253518
0.00261446
0.00255147
0.0233134
0.0231298
0.0234964
0.0233135
0.00242992
0.00237232
0.00244598
0.00238839
0.023062
0.0230619
0.0232458
0.0232457
0.00234685
0.00234685
0.00236293
0.00236292
0.0231296
0.023313
0.0233132
0.023496
0.00237231
0.00242991
0.00238838
0.00244597
0.0237228
0.0234227
0.0239019
0.023605
0.00253517
0.00259838
0.00255146
0.00261444
0.0230373
0.0233432
0.0232338
0.0235365
0.00256435
0.00250063
0.00258166
0.00251818
0.0229253
0.02274
0.0231229
0.0229384
0.00239582
0.00233816
0.00241319
0.00235558
0.0226716
0.0226715
0.0228703
0.0228703
0.00231265
0.00231265
0.00233009
0.00233009
0.0227397
0.0229249
0.0229382
0.0231225
0.00233816
0.00239581
0.00235557
0.00241318
0.0233426
0.0230365
0.0235359
0.023233
0.00250062
0.00256433
0.00251817
0.00258163
0.0226212
0.022933
0.0228329
0.0231416
0.00252775
0.00246345
0.00254634
0.00248233
0.0225066
0.0223191
0.0227197
0.0225333
0.00235899
0.00230119
0.00237774
0.00232004
0.0222499
0.0222498
0.0224646
0.0224645
0.00227559
0.00227559
0.00229448
0.00229448
0.0223189
0.0225061
0.0225331
0.0227193
0.00230118
0.00235898
0.00232003
0.00237773
0.0229324
0.0226204
0.023141
0.0228321
0.00246343
0.00252773
0.00248232
0.00254632
0.022173
0.0224901
0.0224011
0.0227154
0.00248846
0.00242347
0.00250842
0.00244378
0.0220548
0.021865
0.0222848
0.0220962
0.00231924
0.00226119
0.00233948
0.00228158
0.0217948
0.0217947
0.0220265
0.0220264
0.00223543
0.00223543
0.00225591
0.00225591
0.0218648
0.0220544
0.0220959
0.0222843
0.00226118
0.00231923
0.00228157
0.00233947
0.0224895
0.0221722
0.0227148
0.0224003
0.00242345
0.00248844
0.00244376
0.0025084
0.0216892
0.0220113
0.0219356
0.0222551
0.00244624
0.00238049
0.00246771
0.00240233
0.0215671
0.0213745
0.0218155
0.0216243
0.00227628
0.00221782
0.00229817
0.00223995
0.021303
0.0213029
0.0215535
0.0215534
0.00219184
0.00219184
0.00221409
0.00221409
0.0213742
0.0215666
0.0216241
0.0218151
0.00221781
0.00227626
0.00223994
0.00229816
0.0220107
0.0216883
0.0222545
0.0219348
0.00238047
0.00244621
0.00240231
0.00246768
0.0211641
0.0214913
0.021432
0.0217565
0.00240062
0.00233412
0.00242386
0.00235771
0.0210388
0.0208428
0.0213081
0.0211139
0.00222963
0.00217058
0.00225345
0.00219472
0.0207697
0.0207696
0.0210417
0.0210416
0.00214429
0.00214429
0.0021686
0.0021686
0.0208426
0.0210384
0.0211137
0.0213077
0.00217057
0.00222962
0.00219471
0.00225343
0.0214907
0.0211633
0.0217558
0.0214312
0.0023341
0.00240059
0.00235769
0.00242383
0.0205899
0.0209227
0.0208834
0.0212133
0.00235082
0.00228372
0.00237628
0.00230944
0.0204628
0.0202627
0.0207572
0.0205592
0.00217844
0.00211861
0.00220468
0.00214526
0.020188
0.0201879
0.0204852
0.0204852
0.00209198
0.00209197
0.00211879
0.00211878
0.0202624
0.0204624
0.020559
0.0207568
0.0021186
0.00217842
0.00214525
0.00220466
0.0209221
0.0205891
0.0212127
0.0208826
0.0022837
0.0023508
0.00230942
0.00237625
0.019967
0.0202916
0.0202827
0.020616
0.00229587
0.00222755
0.00232399
0.00225656
0.0198237
0.0196221
0.0201525
0.0199507
0.00212063
0.0020604
0.00215058
0.0020904
0.0195484
0.0195484
0.0198758
0.0198757
0.0020338
0.0020338
0.00206368
0.00206368
0.0196218
0.0198233
0.0199504
0.0201521
0.00206039
0.00212062
0.00209039
0.00215056
0.020291
0.0199662
0.0206154
0.0202819
0.00222753
0.00229585
0.00225654
0.00232396
0.0193711
0.0195414
0.019657
0.0199397
0.00223346
0.00215205
0.00226636
0.00219455
0.0190879
0.0189089
0.0194699
0.0192743
0.0020505
0.00199408
0.00208766
0.00202829
0.0188469
0.0188468
0.0192048
0.0192047
0.00196929
0.00196928
0.00200227
0.00200226
0.0189087
0.0190875
0.0192741
0.0194695
0.00199407
0.00205048
0.00202828
0.00208764
0.0195408
0.0193704
0.0199391
0.0196562
0.00215203
0.00223344
0.00219453
0.00226634
0.0474812
0.0471295
0.0441144
0.0439761
0.0353052
0.0350754
0.0326853
0.0326318
0.0466007
0.0465655
0.0433651
0.0432924
0.0345624
0.0345108
0.032043
0.031977
0.0466664
0.0466632
0.0433879
0.0433848
0.0345903
0.0345884
0.0320652
0.0320632
0.0465565
0.0465869
0.0432833
0.043351
0.0345053
0.0345537
0.0319712
0.032034
0.047112
0.0474608
0.0439581
0.0440937
0.0350641
0.0352922
0.0326201
0.0326721
0.0520561
0.0517464
0.0499837
0.0496405
0.0384964
0.0383426
0.0370706
0.0368728
0.0513045
0.0512946
0.0491551
0.0491348
0.0379256
0.0378896
0.0364103
0.0363669
0.05139
0.0513871
0.0492338
0.0492308
0.0379526
0.0379509
0.0364372
0.0364354
0.0512865
0.051292
0.0491263
0.049142
0.0378847
0.037918
0.0363617
0.0364022
0.0517307
0.0520377
0.0496239
0.0499645
0.0383327
0.038485
0.0368623
0.0370589
0.0554349
0.0551793
0.053847
0.0535669
0.0407894
0.0406891
0.0397175
0.0395944
0.0548013
0.0548053
0.0531601
0.0531575
0.0403339
0.0403103
0.0392121
0.0391826
0.054894
0.0548916
0.0532488
0.0532462
0.0403654
0.040364
0.0392405
0.039239
0.0547983
0.0547905
0.0531499
0.0531485
0.0403062
0.0403273
0.0391781
0.0392051
0.0551656
0.0554186
0.0535522
0.0538299
0.0406806
0.0407794
0.0395852
0.0397073
0.0581227
0.0579051
0.0568483
0.056613
0.0425751
0.0425104
0.0417331
0.0416518
0.0575717
0.0575859
0.0562589
0.0562679
0.0421961
0.042182
0.0413186
0.0412999
0.0576711
0.057669
0.0563543
0.056352
0.0422343
0.0422331
0.0413531
0.0413518
0.05758
0.0575624
0.0562615
0.0562489
0.0421785
0.0421906
0.0412961
0.0413126
0.0578933
0.0581085
0.0566002
0.0568333
0.0425031
0.0425664
0.0416439
0.0417242
0.0603107
0.0601223
0.059269
0.0590668
0.0440015
0.0439652
0.0433254
0.0432756
0.0598231
0.0598463
0.0587514
0.05877
0.0436823
0.0436758
0.0429779
0.0429677
0.0599299
0.0599282
0.0588539
0.058852
0.0437271
0.0437261
0.0430192
0.0430181
0.0598412
0.0598152
0.0587645
0.0587429
0.0436728
0.0436776
0.0429644
0.0429729
0.0601121
0.0602983
0.0590558
0.059256
0.0439589
0.043994
0.0432689
0.0433177
0.062111
0.0619462
0.061252
0.061076
0.0451577
0.0451449
0.044608
0.044584
0.0616749
0.0617063
0.0607914
0.0608185
0.0448875
0.0448877
0.0443145
0.0443113
0.0617896
0.0617881
0.0609017
0.0609001
0.0449388
0.0449379
0.0443624
0.0443614
0.0617019
0.0616682
0.0608138
0.0607841
0.0448851
0.0448835
0.0443086
0.0443102
0.0619375
0.0621003
0.0610665
0.0612407
0.0451396
0.0451512
0.0445782
0.0446014
0.0636001
0.0634548
0.062889
0.0627343
0.0461025
0.0461091
0.0456526
0.04565
0.063207
0.0632456
0.0624753
0.0625101
0.0458729
0.0458791
0.0454037
0.0454069
0.0633293
0.063328
0.0625934
0.062592
0.0459304
0.0459296
0.045458
0.0454572
0.0632418
0.0632011
0.0625061
0.062469
0.0458769
0.0458695
0.0454046
0.0454
0.0634471
0.0635907
0.0627262
0.0628791
0.0461044
0.0460968
0.045645
0.0456469
0.0648325
0.0647033
0.0642439
0.064107
0.0468764
0.0468988
0.0465077
0.0465227
0.0644754
0.0645207
0.0638696
0.0639114
0.0466805
0.0466921
0.0462959
0.0463048
0.0646051
0.064604
0.0639953
0.0639941
0.0467437
0.0467431
0.0463561
0.0463554
0.0645174
0.0644703
0.063908
0.0638642
0.0466902
0.0466775
0.0463028
0.0462927
0.0646966
0.0648242
0.0640998
0.0642352
0.0468948
0.0468713
0.0465183
0.0465027
0.065849
0.0657333
0.0653641
0.0652419
0.0475079
0.0475436
0.0472076
0.0472369
0.0655224
0.0655739
0.0650229
0.0650712
0.0473407
0.0473573
0.0470267
0.0470407
0.0656594
0.0656584
0.065156
0.065155
0.0474095
0.0474089
0.0470925
0.0470919
0.0655711
0.065518
0.0650681
0.0650181
0.0473557
0.0473381
0.047039
0.0470239
0.0657274
0.0658416
0.0652356
0.0653564
0.0475401
0.0475034
0.0472331
0.0472031
0.0666813
0.0665769
0.0662851
0.0661752
0.0480189
0.0480659
0.0477763
0.047818
0.0663808
0.066438
0.0659722
0.0660264
0.0478764
0.0478976
0.0476222
0.0476411
0.0665248
0.0665239
0.0661124
0.0661115
0.0479505
0.04795
0.0476935
0.047693
0.0664355
0.0663769
0.0660237
0.065968
0.0478962
0.0478741
0.0476395
0.0476197
0.0665716
0.0666747
0.0661697
0.0662782
0.0480627
0.048015
0.0478146
0.0477724
0.0673545
0.0672597
0.0670351
0.0669357
0.0484269
0.0484831
0.0482341
0.0482859
0.0670766
0.0671391
0.0667464
0.0668062
0.0483053
0.0483309
0.0481025
0.0481259
0.0672271
0.0672263
0.0668934
0.0668926
0.0483846
0.0483842
0.0481792
0.0481788
0.0671369
0.0670731
0.0668038
0.0667427
0.0483297
0.0483033
0.0481246
0.0481004
0.067255
0.0673486
0.0669307
0.0670289
0.0484803
0.0484233
0.0482829
0.0482306
0.0678892
0.0678022
0.0676368
0.0675461
0.0487454
0.0488092
0.0485958
0.048656
0.0676304
0.0676979
0.0673689
0.0674339
0.0486416
0.0486713
0.0484836
0.0485112
0.0677872
0.0677865
0.0675224
0.0675217
0.048726
0.0487256
0.0485654
0.048565
0.0676959
0.0676273
0.0674318
0.0673657
0.0486702
0.0486399
0.0485101
0.0484818
0.0677981
0.0678838
0.0675417
0.0676312
0.0488068
0.0487422
0.0486534
0.0485926
0.0683011
0.068221
0.068108
0.0680248
0.0489852
0.0490554
0.0488737
0.0489409
0.0680595
0.0681315
0.0678585
0.0679282
0.0488968
0.0489301
0.0487781
0.0488096
0.0682221
0.0682215
0.0680181
0.0680174
0.0489857
0.0489854
0.0488647
0.0488644
0.0681297
0.0680567
0.0679263
0.0678555
0.0489291
0.0488952
0.0488086
0.0487765
0.0682171
0.0682962
0.0680208
0.0681029
0.0490532
0.0489823
0.0489386
0.0488709
0.0686048
0.0685302
0.0684646
0.0683873
0.0491547
0.0492302
0.0490772
0.0491503
0.0683774
0.0684536
0.0682305
0.0683047
0.0490798
0.0491166
0.0489961
0.0490312
0.0685458
0.0685452
0.0683959
0.0683953
0.0491731
0.0491728
0.0490873
0.049087
0.0684519
0.0683748
0.068303
0.0682277
0.0491156
0.0490784
0.0490303
0.0489946
0.0685266
0.0686
0.0683836
0.0684598
0.0492281
0.0491519
0.0491482
0.0490745
0.0688127
0.0687424
0.068719
0.0686465
0.049263
0.0493423
0.0492151
0.0492926
0.0685969
0.0686763
0.0684978
0.0685756
0.0491981
0.0492376
0.0491457
0.0491845
0.0687693
0.0687687
0.068668
0.0686674
0.0492951
0.0492948
0.0492416
0.0492413
0.0686747
0.0685944
0.068574
0.0684952
0.0492367
0.0491966
0.0491836
0.0491443
0.068739
0.0688082
0.0686429
0.0687144
0.0493402
0.0492602
0.0492906
0.0492125
0.0689317
0.0688653
0.0688819
0.0688138
0.0493144
0.0493969
0.0492956
0.0493766
0.0687268
0.0688096
0.0686724
0.0687533
0.0492589
0.0493012
0.0492357
0.0492761
0.0689037
0.0689032
0.0688466
0.068846
0.0493594
0.0493591
0.0493335
0.0493332
0.0688081
0.0687245
0.0687518
0.0686699
0.0493003
0.0492575
0.0492752
0.0492342
0.0688623
0.0689276
0.0688105
0.0688776
0.0493951
0.0493121
0.0493745
0.0492929
0.0689666
0.0689031
0.0689587
0.0688937
0.049309
0.0493944
0.0493175
0.0494016
0.068771
0.0688565
0.0687583
0.0688423
0.049262
0.0493071
0.0492668
0.0493103
0.0689516
0.0689511
0.0689368
0.0689364
0.0493663
0.049366
0.049369
0.0493687
0.0688551
0.0687686
0.0688409
0.068756
0.0493062
0.0492604
0.0493095
0.0492653
0.0688998
0.0689621
0.0688906
0.0689547
0.0493911
0.0493048
0.0493993
0.0493152
0.0689216
0.0688614
0.0689522
0.0688907
0.0492502
0.0493383
0.0492856
0.049372
0.0687348
0.0688233
0.0687618
0.0688487
0.0492121
0.0492601
0.0492431
0.0492896
0.0689195
0.068919
0.0689443
0.0689438
0.0493206
0.0493203
0.0493493
0.049349
0.0688218
0.0687324
0.0688473
0.0687594
0.0492593
0.0492107
0.0492887
0.0492415
0.0688581
0.0689173
0.0688874
0.0689478
0.049337
0.0492483
0.0493697
0.0492817
0.0687993
0.0687418
0.0688692
0.06881
0.0491441
0.0492339
0.0492022
0.0492916
0.0686216
0.0687133
0.0686867
0.0687767
0.0491116
0.0491625
0.0491676
0.049217
0.0688109
0.0688104
0.0688735
0.068873
0.0492243
0.049224
0.0492781
0.0492778
0.0687118
0.0686188
0.0687752
0.0686841
0.0491615
0.0491098
0.0492161
0.049166
0.0687378
0.068794
0.0688062
0.0688645
0.0492304
0.0491395
0.0492892
0.0492
0.0686064
0.0685513
0.0687101
0.0686543
0.0489885
0.04908
0.0490718
0.0491622
0.0684352
0.0685299
0.0685365
0.0686297
0.0489624
0.0490161
0.0490425
0.0490948
0.0686287
0.0686282
0.0687279
0.0687273
0.0490791
0.0490788
0.0491573
0.049157
0.0685283
0.0684327
0.0686281
0.0685338
0.0490151
0.0489609
0.0490939
0.0490408
0.0685478
0.0686017
0.0686505
0.0687051
0.0490787
0.0489863
0.0491596
0.0490675
0.0683411
0.068288
0.0684821
0.0684275
0.0487887
0.048881
0.0488934
0.0489857
0.0681773
0.0682746
0.0683142
0.0684102
0.0487656
0.0488211
0.0488695
0.0489242
0.0683746
0.068374
0.0685096
0.068509
0.0488853
0.0488849
0.0489877
0.0489874
0.068273
0.0681746
0.0684086
0.0683117
0.0488201
0.0487641
0.0489232
0.048868
0.0682845
0.0683363
0.068424
0.0684775
0.0488781
0.048785
0.0489837
0.0488918
0.0680075
0.0679567
0.0681815
0.06813
0.0485388
0.0486326
0.0486695
0.0487621
0.0678488
0.0679483
0.068021
0.0681194
0.048521
0.0485783
0.0486488
0.0487052
0.0680494
0.0680488
0.0682198
0.0682193
0.0486434
0.048643
0.0487698
0.0487694
0.0679467
0.0678462
0.0681177
0.0680184
0.0485772
0.0485195
0.0487042
0.0486473
0.0679532
0.0680031
0.0681265
0.068177
0.0486318
0.0485376
0.0487602
0.0486664
0.0676016
0.0675527
0.067813
0.0677625
0.0482436
0.0483385
0.0483962
0.048491
0.0674494
0.0675511
0.0676571
0.0677577
0.0482284
0.0482873
0.0483803
0.0484384
0.0676531
0.0676525
0.0678592
0.0678586
0.0483533
0.0483529
0.0485039
0.0485035
0.0675493
0.0674465
0.067756
0.0676544
0.048286
0.0482265
0.0484372
0.0483786
0.0675488
0.0675964
0.0677589
0.0678083
0.0483352
0.0482396
0.0484889
0.0483947
0.0671265
0.06708
0.0673714
0.0673242
0.0478978
0.0479943
0.0480766
0.0481719
0.0669788
0.0670823
0.0672222
0.0673248
0.0478872
0.0479475
0.0480635
0.048123
0.0671853
0.0671847
0.0674273
0.0674266
0.0480144
0.048014
0.0481895
0.048189
0.0670805
0.0669759
0.067323
0.0672192
0.0479463
0.0478852
0.0481218
0.0480614
0.0670761
0.0671215
0.0673201
0.0673662
0.0479925
0.0478952
0.048169
0.0480722
0.0665778
0.0665333
0.0668609
0.0668149
0.0475049
0.0476031
0.0477065
0.0478043
0.0664356
0.0665409
0.0667155
0.0668199
0.047497
0.0475583
0.0476979
0.0477587
0.0666447
0.0666441
0.0669232
0.0669226
0.047626
0.0476256
0.047826
0.0478255
0.0665391
0.0664327
0.0668181
0.0667126
0.0475571
0.0474951
0.0477575
0.047696
0.0665294
0.0665727
0.066811
0.0668559
0.0476001
0.0475017
0.0478021
0.047705
0.0659564
0.0659146
0.0662749
0.0662321
0.04706
0.0471598
0.0472888
0.0473873
0.0658183
0.065925
0.0661355
0.0662414
0.0470555
0.0471182
0.0472823
0.0473442
0.0660296
0.0660289
0.0663456
0.066345
0.0471867
0.0471863
0.0474123
0.0474119
0.0659231
0.0658153
0.0662396
0.0661325
0.0471169
0.0470535
0.047343
0.0472804
0.0659106
0.0659512
0.0662281
0.0662698
0.0471577
0.0470569
0.0473845
0.0472848
0.0652583
0.0652186
0.0656164
0.0655754
0.0465646
0.0466664
0.0468179
0.046919
0.0651243
0.0652323
0.0654802
0.0655875
0.0465617
0.0466259
0.0468148
0.0468782
0.0653377
0.065337
0.0656924
0.0656918
0.0466952
0.0466948
0.0469471
0.0469467
0.0652304
0.0651211
0.0655856
0.0654771
0.0466245
0.0465593
0.0468768
0.0468125
0.0652143
0.0652526
0.0655711
0.065611
0.0466625
0.0465602
0.0469162
0.0468153
0.0644817
0.0644446
0.0648788
0.0648406
0.0460155
0.046119
0.0462963
0.0463987
0.0643513
0.0644604
0.064747
0.0648555
0.0460145
0.0460799
0.0462945
0.0463592
0.0645665
0.0645659
0.0649612
0.0649606
0.0461501
0.0461497
0.046429
0.0464285
0.0644586
0.0643483
0.0648536
0.0647438
0.0460787
0.0460125
0.0463579
0.0462921
0.0644405
0.0644764
0.0648362
0.0648732
0.0461163
0.0460117
0.0463951
0.0462915
0.0636245
0.0635896
0.0640623
0.0640263
0.0454137
0.0455187
0.0457206
0.045825
0.063497
0.0636067
0.0639336
0.0640431
0.045413
0.0454788
0.0457202
0.0457859
0.0637132
0.0637127
0.0641494
0.0641488
0.0455496
0.0455492
0.0458564
0.045856
0.0636051
0.0634943
0.0640414
0.0639308
0.0454779
0.0454114
0.0457848
0.0457184
0.063586
0.0636197
0.0640225
0.0640574
0.0455164
0.0454108
0.0458226
0.0457177
0.0626842
0.0626513
0.063164
0.0631302
0.0447567
0.0448626
0.0450917
0.0451972
0.0625581
0.0626676
0.0630376
0.0631473
0.0447551
0.0448207
0.0450908
0.0451566
0.0627741
0.0627736
0.0632538
0.0632532
0.0448916
0.0448914
0.0452275
0.0452272
0.0626661
0.0625557
0.0631457
0.063035
0.0448199
0.0447537
0.0451557
0.0450893
0.0626479
0.0626797
0.0631267
0.0631594
0.0448606
0.044754
0.045195
0.0450891
0.061656
0.0616242
0.0621805
0.0621482
0.0440416
0.044148
0.044406
0.0445123
0.0615293
0.0616376
0.0620545
0.0621635
0.0440377
0.0441025
0.0444036
0.0444689
0.0617436
0.0617431
0.0622697
0.0622692
0.0441733
0.044173
0.0445398
0.0445395
0.0616362
0.061527
0.062162
0.0620521
0.0441017
0.0440364
0.0444681
0.0444023
0.0616209
0.0616516
0.0621449
0.0621761
0.0441461
0.044039
0.0445103
0.0444036
0.0605329
0.0605018
0.0611058
0.0610745
0.0432651
0.0433717
0.0436608
0.0437674
0.0604035
0.0605097
0.0609782
0.0610855
0.0432571
0.0433203
0.0436552
0.0437193
0.0606146
0.0606141
0.061191
0.0611905
0.0433906
0.0433903
0.0437898
0.0437895
0.0605082
0.0604011
0.0610841
0.0609759
0.0433195
0.0432558
0.0437185
0.0436539
0.0604985
0.0605284
0.0610712
0.0611015
0.0433698
0.0432625
0.0437655
0.0436583
0.059306
0.0592746
0.059932
0.059901
0.042422
0.0425278
0.0428517
0.042958
0.0591714
0.0592746
0.0598006
0.0599053
0.0424077
0.0424686
0.042841
0.0429031
0.0593782
0.0593777
0.0600096
0.0600091
0.0425382
0.0425379
0.042973
0.0429727
0.0592732
0.059169
0.0599038
0.0597982
0.0424678
0.0424063
0.0429022
0.0428396
0.0592713
0.0593015
0.0598976
0.0599277
0.0425259
0.0424194
0.0429561
0.0428493
0.0579648
0.0579318
0.0586494
0.0586174
0.041506
0.0416097
0.041973