/*--------------------------------*- C++ -*----------------------------------*\
  =========                 |
  \\      /  F ield         | OpenFOAM: The Open Source CFD Toolbox
   \\    /   O peration     | Website:  https://openfoam.org
    \\  /    A nd           | Version:  9
     \\/     M anipulation  |
\*---------------------------------------------------------------------------*/
FoamFile
{
    format      ascii;
    class       volScalarField;
    location    "3.6";
    object      p;
}
// * * * * * * * * * * * * * * * * * * * * * * * * * * * * * * * * * * * * * //

dimensions      [0 2 -2 0 0 0 0];

internalField   nonuniform List<scalar> 
36360
(
20.2295
20.0058
20.2164
20.0166
20.0128
20.1718
20.0305
20.1429
20.0842
20.0985
20.0899
20.1048
20.1065
20.0947
20.0973
20.0922
20.1003
20.1003
20.1065
20.1065
20.0937
20.0937
20.0922
20.0922
20.0985
20.0842
20.1048
20.0899
20.0947
20.1065
20.0922
20.0973
20.0058
20.2295
20.0167
20.2163
20.1718
20.0129
20.1429
20.0305
20.1204
20.0735
20.1612
20.0523
19.9251
20.239
19.9679
20.2126
20.1092
20.1005
20.0981
20.0986
20.1361
20.1004
20.1222
20.0975
20.0962
20.0962
20.0974
20.0974
20.0939
20.0939
20.0941
20.0941
20.1005
20.1091
20.0986
20.0981
20.1004
20.1361
20.0975
20.1222
20.0735
20.1204
20.0523
20.1612
20.2389
19.9252
20.2126
19.968
20.0739
20.0882
20.094
20.0836
19.8683
20.2645
19.8929
20.255
20.1281
20.1088
20.1194
20.1043
20.1588
20.1089
20.1485
20.1043
20.0975
20.0975
20.0964
20.0964
20.0959
20.0959
20.0945
20.0945
20.1088
20.1281
20.1043
20.1194
20.1089
20.1588
20.1043
20.1484
20.0882
20.0739
20.0836
20.094
20.2645
19.8684
20.255
19.893
20.046
20.0896
20.0583
20.0898
19.834
20.2726
19.8492
20.2698
20.1404
20.1175
20.1351
20.1133
20.1733
20.118
20.167
20.1135
20.1016
20.1016
20.0993
20.0993
20.1
20.1
20.0977
20.0977
20.1175
20.1404
20.1133
20.1351
20.118
20.1733
20.1135
20.167
20.0896
20.0461
20.0898
20.0583
20.2726
19.834
20.2698
19.8492
20.0284
20.0868
20.0363
20.0884
19.8117
20.2741
19.8218
20.2738
20.1472
20.1247
20.1443
20.1213
20.1816
20.1259
20.178
20.1221
20.1068
20.1068
20.1041
20.1041
20.105
20.105
20.1025
20.1025
20.1247
20.1472
20.1213
20.1443
20.1259
20.1816
20.1221
20.178
20.0868
20.0284
20.0884
20.0363
20.2741
19.8118
20.2738
19.8218
20.0163
20.083
20.0218
20.0849
19.7964
20.2734
19.8034
20.2739
20.1507
20.1303
20.1493
20.1276
20.1863
20.132
20.1843
20.1291
20.1119
20.1119
20.1094
20.1094
20.1101
20.1101
20.1076
20.1076
20.1303
20.1507
20.1276
20.1493
20.132
20.1863
20.1291
20.1843
20.083
20.0163
20.0849
20.0218
20.2734
19.7965
20.2739
19.8035
20.0077
20.0792
20.0117
20.0811
19.7854
20.2719
19.7905
20.2727
20.1523
20.1344
20.1517
20.1325
20.1889
20.1365
20.1878
20.1344
20.1163
20.1163
20.1142
20.1142
20.1146
20.1146
20.1125
20.1125
20.1344
20.1523
20.1325
20.1517
20.1365
20.1889
20.1344
20.1877
20.0792
20.0077
20.0811
20.0117
20.2719
19.7855
20.2727
19.7905
20.0012
20.0757
20.0042
20.0774
19.7772
20.2702
19.7809
20.2711
20.1529
20.1373
20.1527
20.136
20.1903
20.1397
20.1897
20.1382
20.1198
20.1198
20.1182
20.1182
20.1183
20.1183
20.1166
20.1166
20.1373
20.1529
20.136
20.1527
20.1397
20.1903
20.1382
20.1897
20.0758
20.0012
20.0774
20.0042
20.2703
19.777
20.271
19.7811
19.9961
20.0727
19.9985
20.0742
19.7706
20.2685
19.7738
20.2693
20.1529
20.1392
20.1529
20.1384
20.191
20.1418
20.1907
20.1409
20.1225
20.1225
20.1213
20.1213
20.1211
20.1211
20.1198
20.1198
20.1392
20.1529
20.1384
20.153
20.1418
20.1909
20.1409
20.1907
20.0727
19.9961
20.0742
19.9985
20.2684
19.7709
20.2693
19.7738
19.992
20.0699
19.9939
20.0713
19.7651
20.2668
19.7679
20.2676
20.1524
20.1404
20.1527
20.1399
20.1911
20.1432
20.1911
20.1426
20.1243
20.1243
20.1235
20.1235
20.1231
20.1231
20.1222
20.1222
20.1404
20.1524
20.1399
20.1527
20.1432
20.1911
20.1426
20.1911
20.07
19.992
20.0713
19.9939
20.2667
19.7656
20.2676
19.7681
19.9885
20.0674
19.9901
20.0687
19.7609
20.2651
19.7627
20.266
20.1516
20.1409
20.1521
20.1407
20.1908
20.1439
20.1911
20.1437
20.1253
20.1253
20.1249
20.1249
20.1243
20.1243
20.1238
20.1238
20.1408
20.1516
20.1407
20.1521
20.1438
20.1907
20.1436
20.191
20.0674
19.9885
20.0687
19.9902
20.2649
19.7619
20.2659
19.7634
19.9854
20.065
19.9869
20.0662
19.7591
20.2628
19.7599
20.2639
20.1504
20.1407
20.1511
20.1408
20.1898
20.1438
20.1904
20.1439
20.1256
20.1256
20.1255
20.1255
20.1247
20.1247
20.1246
20.1246
20.1407
20.1504
20.1408
20.151
20.1438
20.1898
20.1439
20.1903
20.065
19.9854
20.0662
19.9869
20.2628
19.7592
20.2638
19.7606
19.9827
20.0627
19.984
20.0638
19.756
20.2609
19.7577
20.2617
20.149
20.14
20.1497
20.1404
20.1887
20.1433
20.1893
20.1436
20.1253
20.1253
20.1255
20.1255
20.1246
20.1246
20.1247
20.1247
20.1401
20.1491
20.1404
20.1498
20.1434
20.1889
20.1436
20.1894
20.0628
19.9827
20.0639
19.984
20.2611
19.7553
20.2619
19.7572
19.9801
20.0604
19.9814
20.0616
19.7535
20.2586
19.7542
20.26
20.1473
20.1389
20.1482
20.1395
20.1872
20.1423
20.1881
20.1429
20.1245
20.1245
20.125
20.125
20.1239
20.1239
20.1243
20.1244
20.1389
20.1474
20.1396
20.1483
20.1423
20.1872
20.1429
20.1881
20.0605
19.9801
20.0616
19.9814
20.2587
19.7532
20.2599
19.7541
19.9776
20.058
19.9788
20.0592
19.7519
20.2559
19.7529
20.2572
20.1453
20.1373
20.1463
20.1381
20.1852
20.1407
20.1862
20.1415
20.1231
20.1231
20.1238
20.1238
20.1226
20.1226
20.1233
20.1233
20.1373
20.1453
20.1382
20.1464
20.1407
20.1851
20.1416
20.1862
20.058
19.9776
20.0593
19.9788
20.2558
19.752
20.2573
19.7525
19.9752
20.0557
19.9764
20.0569
19.7491
20.2534
19.7505
20.2546
20.1431
20.1353
20.1442
20.1364
20.1829
20.1388
20.1841
20.1398
20.1213
20.1213
20.1222
20.1222
20.1208
20.1208
20.1217
20.1217
20.1353
20.1431
20.1364
20.1442
20.1388
20.1829
20.1398
20.184
20.0557
19.9751
20.0569
19.9764
20.2532
19.7494
20.2545
19.7508
19.9726
20.0531
19.9739
20.0544
19.7477
20.25
19.7487
20.2516
20.1406
20.1329
20.1419
20.1342
20.1801
20.1362
20.1815
20.1375
20.119
20.119
20.1202
20.1202
20.1184
20.1185
20.1197
20.1197
20.1329
20.1407
20.1342
20.1419
20.1363
20.1802
20.1376
20.1816
20.0532
19.9727
20.0545
19.9738
20.2503
19.7471
20.2518
19.7482
19.9699
20.0507
19.9713
20.052
19.7456
20.2466
19.7462
20.2486
20.138
20.1302
20.1394
20.1316
20.177
20.1333
20.1787
20.1349
20.1163
20.1163
20.1177
20.1177
20.1156
20.1156
20.1171
20.1171
20.1302
20.1379
20.1316
20.1393
20.1333
20.177
20.1348
20.1786
20.0506
19.9702
20.0519
19.9714
20.2467
19.7457
20.2484
19.7466
19.9674
20.0479
19.9686
20.0493
19.7444
20.2428
19.745
20.2448
20.135
20.1271
20.1365
20.1287
20.1734
20.1299
20.1752
20.1317
20.1133
20.1133
20.1149
20.1149
20.1123
20.1123
20.1141
20.1141
20.1271
20.135
20.1287
20.1365
20.1299
20.1734
20.1317
20.1752
20.0478
19.9675
20.0492
19.9688
20.2427
19.7445
20.2448
19.7451
19.9649
20.0452
19.9661
20.0465
19.7419
20.2392
19.7435
20.2409
20.132
20.1239
20.1335
20.1255
20.1697
20.1263
20.1715
20.1281
20.11
20.11
20.1117
20.1117
20.1087
20.1086
20.1105
20.1105
20.1239
20.1319
20.1255
20.1335
20.1262
20.1695
20.1281
20.1715
20.0452
19.9649
20.0466
19.9662
20.2388
19.7426
20.2409
19.7434
19.9621
20.0424
19.9635
20.0438
19.741
20.2346
19.7412
20.2371
20.1288
20.1201
20.1304
20.1221
20.1654
20.1221
20.1676
20.1243
20.1064
20.1064
20.1083
20.1083
20.1047
20.1047
20.1067
20.1067
20.1202
20.1288
20.1221
20.1304
20.1222
20.1655
20.1242
20.1675
20.0425
19.9621
20.0438
19.9635
20.2349
19.7403
20.2367
19.7418
19.9594
20.0399
19.9607
20.0411
19.7391
20.2303
19.7405
20.2322
20.1256
20.1163
20.1272
20.1182
20.161
20.1178
20.1631
20.1199
20.1027
20.1027
20.1046
20.1046
20.1004
20.1004
20.1025
20.1026
20.1163
20.1256
20.1183
20.1272
20.1178
20.161
20.12
20.1633
20.0398
19.9595
20.0412
19.9607
20.2302
19.7391
20.2325
19.7397
19.9573
20.0371
19.9584
20.0385
19.7377
20.2257
19.7379
20.2282
20.1224
20.1125
20.124
20.1144
20.1564
20.1132
20.1587
20.1155
20.0989
20.0989
20.1008
20.1008
20.0959
20.0959
20.0981
20.0981
20.1125
20.1224
20.1144
20.124
20.1132
20.1564
20.1155
20.1587
20.0372
19.9572
20.0385
19.9584
20.2259
19.7373
20.2281
19.738
19.9549
20.0348
19.956
20.036
19.7366
20.221
19.7373
20.2233
20.1194
20.1087
20.1209
20.1106
20.1517
20.1085
20.154
20.1108
20.0951
20.0951
20.097
20.097
20.0912
20.0912
20.0935
20.0935
20.1088
20.1194
20.1106
20.1209
20.1085
20.1518
20.1109
20.1541
20.0349
19.9548
20.0361
19.9559
20.2211
19.7366
20.2235
19.7368
19.9531
20.0329
19.954
20.0338
19.7344
20.2169
19.7356
20.2188
20.1167
20.1052
20.118
20.1069
20.1472
20.1039
20.1494
20.1062
20.0914
20.0914
20.0932
20.0932
20.0865
20.0865
20.0889
20.0889
20.1051
20.1167
20.1069
20.118
20.1038
20.1471
20.1062
20.1494
20.0327
19.953
20.0338
19.9538
20.2164
19.7359
20.2188
19.7362
19.9516
20.0309
19.9522
20.0319
19.7349
20.2121
19.7346
20.2144
20.1138
20.1018
20.1154
20.1034
20.1425
20.0992
20.1449
20.1015
20.088
20.088
20.0897
20.0897
20.0819
20.082
20.0842
20.0842
20.1018
20.1138
20.1034
20.1153
20.0992
20.1426
20.1015
20.1448
20.031
19.9516
20.0318
19.9524
20.2124
19.7344
20.2144
19.7351
19.9505
20.0299
19.9509
20.0304
19.7348
20.2081
19.7348
20.2101
20.1109
20.0987
20.1122
20.1002
20.138
20.0947
20.1402
20.0969
20.0849
20.0849
20.0864
20.0864
20.0776
20.0776
20.0797
20.0797
20.0987
20.1109
20.1002
20.1123
20.0948
20.1381
20.097
20.1403
20.0298
19.9504
20.0304
19.9508
20.2082
19.7347
20.2102
19.7346
19.9503
20.0291
19.9502
20.0294
19.7353
20.2044
19.7349
20.2063
20.1086
20.0961
20.1097
20.0974
20.1339
20.0906
20.1359
20.0926
20.0823
20.0823
20.0836
20.0836
20.0736
20.0736
20.0755
20.0755
20.0961
20.1086
20.0974
20.1097
20.0906
20.1339
20.0926
20.136
20.0291
19.9503
20.0294
19.9503
20.2044
19.7354
20.2063
19.7349
19.9508
20.0292
19.9504
20.0291
19.7369
20.2011
19.736
20.2027
20.1069
20.0941
20.1077
20.095
20.1302
20.0869
20.132
20.0887
20.0803
20.0803
20.0812
20.0812
20.0701
20.0701
20.0718
20.0718
20.0941
20.107
20.095
20.1077
20.0869
20.1302
20.0887
20.132
20.0292
19.9508
20.0291
19.9505
20.2011
19.7369
20.2027
19.736
19.9522
20.03
19.9514
20.0295
19.7396
20.1983
19.7381
20.1996
20.106
20.0926
20.1064
20.0933
20.127
20.0838
20.1285
20.0853
20.079
20.079
20.0795
20.0795
20.0672
20.0672
20.0685
20.0685
20.0927
20.106
20.0933
20.1064
20.0838
20.127
20.0853
20.1285
20.03
19.9522
20.0295
19.9514
20.1983
19.7396
20.1996
19.7381
19.9546
20.0317
19.9533
20.0308
19.7434
20.1962
19.7413
20.1971
20.1058
20.092
20.1058
20.0922
20.1244
20.0814
20.1256
20.0825
20.0784
20.0784
20.0786
20.0786
20.0651
20.0651
20.066
20.066
20.092
20.1058
20.0922
20.1058
20.0814
20.1244
20.0825
20.1256
20.0317
19.9546
20.0308
19.9533
20.1962
19.7434
20.1972
19.7413
19.958
20.0342
19.9562
20.0328
19.7485
20.1947
19.7458
20.1953
20.1062
20.0921
20.1059
20.0919
20.1225
20.0797
20.1234
20.0804
20.0788
20.0788
20.0785
20.0785
20.0639
20.0639
20.0644
20.0644
20.0921
20.1062
20.0919
20.1059
20.0797
20.1225
20.0804
20.1234
20.0342
19.9581
20.0329
19.9562
20.1947
19.7485
20.1953
19.7458
19.9627
20.0375
19.9602
20.0358
19.7551
20.194
19.7516
20.1943
20.1074
20.093
20.1067
20.0924
20.1213
20.079
20.1218
20.0792
20.0802
20.0802
20.0794
20.0794
20.0638
20.0638
20.0637
20.0637
20.093
20.1074
20.0924
20.1067
20.079
20.1213
20.0792
20.1218
20.0376
19.9627
20.0358
19.9602
20.194
19.7551
20.1943
19.7516
19.9686
20.0417
19.9655
20.0395
19.7634
20.194
19.759
20.1939
20.1092
20.0948
20.1083
20.0938
20.1208
20.0792
20.1209
20.079
20.0825
20.0825
20.0812
20.0812
20.0648
20.0648
20.0641
20.0641
20.0948
20.1093
20.0938
20.1083
20.0792
20.1208
20.079
20.121
20.0417
19.9686
20.0395
19.9655
20.194
19.7634
20.1939
19.759
19.976
20.0465
19.9721
20.044
19.7736
20.1945
19.7682
20.1942
20.1117
20.0974
20.1104
20.096
20.121
20.0805
20.1208
20.0797
20.0859
20.0859
20.0841
20.0841
20.0671
20.0671
20.0658
20.0658
20.0974
20.1117
20.096
20.1104
20.0805
20.121
20.0797
20.1208
20.0465
19.976
20.044
19.9721
20.1945
19.7736
20.1942
19.7682
19.9847
20.0518
19.9801
20.0491
19.786
20.1954
19.7795
20.195
20.1145
20.1008
20.1131
20.099
20.1218
20.0828
20.1214
20.0815
20.0902
20.0902
20.0879
20.0879
20.0706
20.0706
20.0687
20.0687
20.1008
20.1146
20.099
20.1131
20.0828
20.1218
20.0815
20.1214
20.0518
19.9847
20.0491
19.9801
20.1954
19.7861
20.195
19.7795
19.9946
20.0577
19.9895
20.0547
19.8015
20.196
19.7933
20.1958
20.1177
20.105
20.1161
20.1028
20.1231
20.0863
20.1224
20.0844
20.0956
20.0956
20.0928
20.0928
20.0754
20.0754
20.0728
20.0728
20.105
20.1177
20.1028
20.1161
20.0863
20.1231
20.0844
20.1224
20.0577
19.9946
20.0547
19.9895
20.196
19.8015
20.1958
19.7934
20.0035
20.0653
19.9996
20.061
19.821
20.1949
19.8107
20.1957
20.1213
20.1101
20.1194
20.1074
20.1245
20.0909
20.1238
20.0884
20.102
20.102
20.0987
20.0987
20.0814
20.0814
20.0782
20.0782
20.1101
20.1213
20.1074
20.1194
20.0909
20.1245
20.0884
20.1238
20.0653
20.0035
20.061
19.9996
20.1949
19.821
20.1957
19.8107
20.0109
20.0745
20.0054
20.0717
19.8455
20.1899
19.8325
20.1931
20.1265
20.1164
20.1237
20.1131
20.1268
20.0969
20.1255
20.0937
20.1094
20.1094
20.1056
20.1056
20.0888
20.0888
20.085
20.085
20.1164
20.1265
20.1131
20.1237
20.0969
20.1268
20.0937
20.1255
20.0745
20.0108
20.0717
20.0053
20.1899
19.8455
20.1931
19.8325
20.3837
19.9579
20.297
19.9891
20.3456
19.9485
20.2775
19.9813
20.0091
20.0702
20.0407
20.0852
20.0323
20.0845
20.0548
20.0937
20.0967
20.0967
20.102
20.102
20.0994
20.0994
20.1023
20.1023
20.0702
20.0091
20.0852
20.0407
20.0845
20.0324
20.0937
20.0549
19.9579
20.3836
19.9892
20.2969
19.9485
20.3455
19.9813
20.2774
20.2672
20.0433
20.3055
20.0215
20.2373
20.0235
20.275
20.0033
20.0418
20.071
20.0298
20.0703
20.0616
20.086
20.0503
20.0847
20.0878
20.0878
20.0918
20.0918
20.0942
20.0942
20.0966
20.0966
20.071
20.0418
20.0703
20.0298
20.086
20.0616
20.0847
20.0503
20.0433
20.2671
20.0215
20.3054
20.0235
20.2373
20.0033
20.275
20.2353
20.0492
20.2483
20.049
20.2009
20.0312
20.2163
20.0299
20.0563
20.0776
20.0503
20.0739
20.0776
20.0937
20.0705
20.0898
20.0878
20.0878
20.0869
20.087
20.0947
20.0947
20.0938
20.0938
20.0776
20.0563
20.074
20.0504
20.0937
20.0776
20.0898
20.0705
20.0492
20.2353
20.049
20.2482
20.0312
20.2009
20.0299
20.2163
20.2185
20.0449
20.2257
20.0474
20.1802
20.028
20.1892
20.0301
20.0624
20.0841
20.0601
20.081
20.0861
20.101
20.0826
20.0975
20.092
20.092
20.0897
20.0897
20.0988
20.0988
20.0965
20.0965
20.0841
20.0624
20.081
20.0601
20.101
20.0862
20.0975
20.0826
20.0449
20.2185
20.0474
20.2257
20.028
20.1802
20.0301
20.1892
20.2084
20.0392
20.2129
20.042
20.1675
20.0227
20.1731
20.0254
20.0643
20.0892
20.0637
20.0868
20.0898
20.1071
20.0885
20.1042
20.0971
20.0971
20.0945
20.0945
20.104
20.104
20.1014
20.1014
20.0892
20.0643
20.0868
20.0637
20.1071
20.0898
20.1042
20.0885
20.0392
20.2084
20.042
20.2129
20.0227
20.1675
20.0254
20.1731
20.2017
20.0338
20.2047
20.0364
20.159
20.0176
20.1629
20.0201
20.0643
20.0928
20.0645
20.0911
20.0906
20.1118
20.0904
20.1096
20.1019
20.1019
20.0996
20.0996
20.109
20.109
20.1066
20.1066
20.0928
20.0644
20.0912
20.0645
20.1118
20.0906
20.1096
20.0904
20.0339
20.2017
20.0364
20.2047
20.0176
20.159
20.0201
20.1629
20.1969
20.0291
20.1991
20.0314
20.1531
20.0129
20.1558
20.0152
20.0635
20.0953
20.064
20.0942
20.0904
20.1153
20.0906
20.1137
20.1058
20.1058
20.104
20.104
20.1133
20.1133
20.1113
20.1113
20.0953
20.0636
20.0942
20.064
20.1153
20.0904
20.1137
20.0906
20.0291
20.1969
20.0314
20.1991
20.0129
20.1531
20.0152
20.1558
20.1933
20.025
20.195
20.027
20.1485
20.0088
20.1507
20.0108
20.0624
20.0968
20.063
20.0962
20.0897
20.1177
20.0901
20.1166
20.1088
20.1088
20.1074
20.1074
20.1167
20.1167
20.1151
20.1151
20.0968
20.0624
20.0962
20.063
20.1177
20.0896
20.1166
20.0901
20.025
20.1933
20.027
20.195
20.0088
20.1486
20.0108
20.1507
20.1905
20.0213
20.1918
20.0231
20.145
20.0051
20.1466
20.0069
20.061
20.0977
20.0617
20.0974
20.0886
20.1192
20.0892
20.1186
20.1109
20.1109
20.11
20.11
20.1191
20.1191
20.118
20.118
20.0977
20.061
20.0974
20.0617
20.1193
20.0887
20.1186
20.0892
20.0213
20.1905
20.0231
20.1918
20.0052
20.1449
20.0069
20.1467
20.1881
20.018
20.1893
20.0196
20.1422
20.0018
20.1436
20.0034
20.0594
20.098
20.0602
20.0979
20.0874
20.1201
20.088
20.1197
20.1122
20.1122
20.1116
20.1116
20.1207
20.1207
20.12
20.12
20.098
20.0594
20.0979
20.0602
20.1201
20.0874
20.1198
20.088
20.018
20.1881
20.0196
20.1893
20.0018
20.1422
20.0034
20.1436
20.1861
20.015
20.1871
20.0164
20.1399
19.9987
20.141
20.0002
20.0577
20.0978
20.0586
20.0979
20.0859
20.1203
20.0867
20.1202
20.1128
20.1128
20.1126
20.1126
20.1216
20.1216
20.1213
20.1213
20.0978
20.0578
20.0979
20.0586
20.1203
20.086
20.1202
20.0867
20.015
20.186
20.0165
20.1871
19.9988
20.1397
20.0002
20.141
20.184
20.0121
20.1851
20.0135
20.1374
19.9959
20.1387
19.9972
20.0559
20.0971
20.0568
20.0975
20.0844
20.1199
20.0852
20.1202
20.1128
20.1128
20.1129
20.1129
20.1218
20.1218
20.1218
20.1218
20.0971
20.056
20.0975
20.0569
20.1199
20.0844
20.1202
20.0852
20.0121
20.184
20.0135
20.185
19.996
20.1374
19.9973
20.1385
20.1821
20.0094
20.1831
20.0107
20.1353
19.9932
20.1364
19.9945
20.054
20.0961
20.055
20.0966
20.0826
20.1191
20.0835
20.1196
20.1122
20.1123
20.1126
20.1126
20.1214
20.1214
20.1216
20.1217
20.0961
20.0541
20.0967
20.055
20.1191
20.0826
20.1196
20.0835
20.0094
20.1821
20.0107
20.1831
19.9932
20.1354
19.9946
20.1363
20.1801
20.0067
20.1811
20.008
20.1333
19.9905
20.1344
19.9919
20.052
20.0947
20.053
20.0955
20.0807
20.1179
20.0817
20.1186
20.1113
20.1113
20.1118
20.1118
20.1205
20.1205
20.121
20.121
20.0948
20.052
20.0955
20.0531
20.1179
20.0807
20.1186
20.0817
20.0067
20.1801
20.008
20.1811
19.9906
20.1332
19.9919
20.1343
20.1779
20.0041
20.1791
20.0054
20.1312
19.9878
20.1323
19.9892
20.0499
20.0931
20.051
20.094
20.0786
20.1163
20.0796
20.1171
20.1099
20.1099
20.1106
20.1106
20.1191
20.1191
20.1198
20.1198
20.0931
20.0499
20.094
20.051
20.1163
20.0786
20.1172
20.0797
20.0041
20.1779
20.0054
20.1791
19.988
20.1311
19.9892
20.1322
20.1758
20.0016
20.1769
20.0028
20.1291
19.9852
20.1301
19.9866
20.0477
20.0912
20.0489
20.0922
20.0763
20.1143
20.0775
20.1154
20.1082
20.1082
20.1091
20.1091
20.1173
20.1173
20.1182
20.1182
20.0913
20.0477
20.0922
20.0489
20.1143
20.0763
20.1154
20.0775
20.0015
20.1758
20.0028
20.1768
19.9851
20.1292
19.9866
20.1301
20.1737
19.9989
20.1747
20.0002
20.127
19.9825
20.1281
19.9839
20.0454
20.0892
20.0466
20.0902
20.0738
20.1121
20.0751
20.1132
20.1062
20.1062
20.1072
20.1072
20.1152
20.1152
20.1163
20.1163
20.0892
20.0454
20.0902
20.0466
20.1121
20.0739
20.1133
20.0751
19.9989
20.1736
20.0002
20.1747
19.9825
20.127
19.9837
20.1282
20.1718
19.9961
20.1728
19.9975
20.1247
19.98
20.1259
19.9812
20.043
20.0869
20.0442
20.0881
20.0713
20.1095
20.0726
20.1108
20.104
20.104
20.1051
20.1051
20.1127
20.1127
20.114
20.114
20.0869
20.043
20.0881
20.0442
20.1095
20.0712
20.1108
20.0726
19.9962
20.1717
19.9975
20.1727
19.9798
20.1249
19.9811
20.126
20.1693
19.9938
20.1706
19.9949
20.1223
19.9773
20.1235
19.9786
20.0408
20.0846
20.0419
20.0858
20.0686
20.1067
20.07
20.1082
20.1017
20.1017
20.1029
20.1029
20.11
20.11
20.1114
20.1114
20.0846
20.0408
20.0858
20.0419
20.1067
20.0687
20.1081
20.07
19.9939
20.1691
19.995
20.1704
19.9773
20.1223
19.9785
20.1236
20.1672
19.9914
20.1683
19.9925
20.1198
19.9748
20.121
19.9761
20.0384
20.0822
20.0396
20.0834
20.066
20.1037
20.0673
20.1052
20.0992
20.0992
20.1005
20.1005
20.1071
20.1071
20.1086
20.1086
20.0822
20.0385
20.0834
20.0396
20.1036
20.0659
20.1052
20.0673
19.9914
20.1673
19.9926
20.1683
19.9747
20.1199
19.976
20.1212
20.1648
19.9894
20.166
19.9903
20.1174
19.9724
20.1187
19.9736
20.0364
20.08
20.0374
20.0811
20.0633
20.1011
20.0646
20.1023
20.0969
20.0969
20.098
20.098
20.1042
20.1042
20.1057
20.1057
20.08
20.0364
20.0811
20.0374
20.1011
20.0634
20.1023
20.0646
19.9894
20.1647
19.9904
20.166
19.9725
20.1174
19.9737
20.1185
20.1632
19.9872
20.164
19.9883
20.115
19.9703
20.1161
19.9713
20.0344
20.0778
20.0354
20.0789
20.0608
20.0985
20.062
20.0999
20.0944
20.0944
20.0956
20.0956
20.1012
20.1012
20.1027
20.1027
20.0778
20.0344
20.0789
20.0354
20.0985
20.0606
20.0998
20.062
19.9873
20.1632
19.9883
20.164
19.9701
20.1153
19.9712
20.1164
20.161
19.986
20.162
19.9866
20.1131
19.9682
20.1141
19.9692
20.0329
20.076
20.0336
20.0769
20.0581
20.0958
20.0594
20.0971
20.0922
20.0922
20.0933
20.0933
20.0982
20.0982
20.0997
20.0997
20.076
20.0329
20.0769
20.0336
20.0958
20.0582
20.0971
20.0594
19.9859
20.1611
19.9866
20.1621
19.9684
20.1129
19.9691
20.1141
20.16
19.9846
20.1605
19.9852
20.1111
19.9668
20.1121
19.9674
20.0315
20.0744
20.0321
20.0751
20.0557
20.0932
20.0569
20.0945
20.0903
20.0903
20.0912
20.0912
20.0955
20.0955
20.0968
20.0968
20.0743
20.0315
20.0751
20.0321
20.0932
20.0556
20.0945
20.0569
19.9845
20.1603
19.9851
20.1607
19.9665
20.1115
19.9674
20.1122
20.1587
19.9842
20.1593
19.9844
20.11
19.9654
20.1105
19.966
20.0309
20.0732
20.0311
20.0737
20.053
20.0909
20.0544
20.092
20.0887
20.0887
20.0895
20.0895
20.093
20.093
20.0942
20.0942
20.0732
20.0309
20.0737
20.0311
20.0909
20.053
20.092
20.0543
19.9842
20.1587
19.9842
20.1595
19.9656
20.1097
19.966
20.1105
20.1585
19.9839
20.1586
19.984
20.1089
19.9648
20.1094
19.965
20.0307
20.0724
20.0311
20.0728
20.0519
20.0891
20.0518
20.0899
20.0875
20.0875
20.0881
20.0881
20.0908
20.0908
20.0919
20.0919
20.0723
20.0307
20.0728
20.0311
20.0891
20.0518
20.0899
20.0518
19.9839
20.1587
19.984
20.1585
19.9646
20.1092
19.965
20.1094
20.1585
19.9844
20.1585
19.984
20.1086
19.9647
20.1086
19.9647
20.0308
20.072
20.0306
20.0721
20.0524
20.0877
20.0522
20.0883
20.0868
20.0868
20.0871
20.0871
20.089
20.089
20.0899
20.0899
20.072
20.0308
20.0721
20.0306
20.0877
20.0525
20.0883
20.0522
19.9843
20.1585
19.9839
20.1587
19.9647
20.1085
19.9646
20.1088
20.1592
19.9857
20.1588
19.9847
20.1086
19.9655
20.1086
19.9649
20.0317
20.0723
20.0311
20.0721
20.053
20.0868
20.0526
20.0872
20.0867
20.0867
20.0867
20.0867
20.0878
20.0878
20.0884
20.0884
20.0723
20.0317
20.0721
20.0311
20.0868
20.0529
20.0872
20.0527
19.9857
20.1593
19.9847
20.1588
19.9654
20.1087
19.9649
20.1085
20.1605
19.9879
20.1598
19.9867
20.1093
19.967
20.1088
19.9662
20.0334
20.0732
20.0325
20.0727
20.0539
20.0866
20.0534
20.0866
20.0872
20.0872
20.0868
20.0868
20.0873
20.0873
20.0875
20.0875
20.0732
20.0334
20.0727
20.0325
20.0866
20.0539
20.0866
20.0534
19.9879
20.1605
19.9867
20.1598
19.967
20.1093
19.9661
20.1089
20.1624
19.9911
20.1614
19.9894
20.1108
19.9692
20.1099
19.968
20.0359
20.0748
20.0346
20.0739
20.0554
20.087
20.0546
20.0867
20.0884
20.0884
20.0877
20.0877
20.0874
20.0874
20.0872
20.0872
20.0748
20.0359
20.0739
20.0346
20.087
20.0555
20.0867
20.0546
19.9911
20.1624
19.9894
20.1614
19.9692
20.1107
19.968
20.1099
20.1651
19.9959
20.1637
19.9933
20.113
19.9717
20.1118
19.9704
20.0391
20.0771
20.0374
20.0759
20.0577
20.0881
20.0565
20.0875
20.0903
20.0903
20.0892
20.0892
20.0883
20.0883
20.0878
20.0878
20.0771
20.0391
20.0759
20.0374
20.0881
20.0577
20.0875
20.0565
19.9959
20.165
19.9933
20.1637
19.9717
20.113
19.9704
20.1118
20.1682
19.999
20.1666
19.9972
20.1161
19.9767
20.1145
19.9741
20.0428
20.0802
20.0408
20.0786
20.0606
20.09
20.059
20.089
20.0929
20.0929
20.0915
20.0915
20.0901
20.0901
20.0891
20.0891
20.0802
20.0428
20.0786
20.0409
20.09
20.0606
20.089
20.0591
19.999
20.1682
19.9972
20.1666
19.9767
20.1161
19.9741
20.1145
20.172
20.0035
20.1701
20.0011
20.1201
19.9819
20.118
19.9792
20.0472
20.0839
20.0449
20.0819
20.0642
20.0926
20.0623
20.0912
20.0962
20.0962
20.0945
20.0945
20.0926
20.0926
20.0912
20.0912
20.0839
20.0472
20.0819
20.0449
20.0926
20.0642
20.0912
20.0623
20.0035
20.172
20.0011
20.1701
19.982
20.1201
19.9792
20.118
20.1762
20.0088
20.1741
20.006
20.1248
19.9878
20.1223
19.9848
20.0522
20.0881
20.0496
20.0859
20.0684
20.0958
20.0662
20.0941
20.1002
20.1002
20.0982
20.0982
20.096
20.096
20.0942
20.0942
20.0881
20.0522
20.0859
20.0496
20.0958
20.0684
20.0941
20.0662
20.0088
20.1762
20.006
20.1741
19.9878
20.1248
19.9848
20.1223
20.1804
20.0148
20.1783
20.0117
20.1301
19.9943
20.1274
19.991
20.0576
20.0928
20.0548
20.0904
20.073
20.0997
20.0706
20.0977
20.1048
20.1048
20.1024
20.1024
20.1001
20.1001
20.098
20.098
20.0928
20.0576
20.0904
20.0548
20.0997
20.073
20.0977
20.0706
20.0148
20.1804
20.0117
20.1783
19.9943
20.1301
19.991
20.1274
20.1841
20.0215
20.1824
20.018
20.1357
20.0016
20.1329
19.9978
20.0635
20.0979
20.0605
20.0953
20.0781
20.1042
20.0755
20.1019
20.1098
20.1098
20.1072
20.1072
20.105
20.105
20.1025
20.1025
20.0979
20.0635
20.0953
20.0605
20.1042
20.0781
20.1019
20.0755
20.0215
20.1841
20.018
20.1824
20.0016
20.1357
19.9978
20.1329
20.186
20.0295
20.1854
20.0252
20.1408
20.0099
20.1384
20.0055
20.0698
20.1032
20.0666
20.1005
20.0835
20.109
20.0808
20.1065
20.1153
20.1153
20.1125
20.1125
20.1105
20.1105
20.1077
20.1077
20.1032
20.0698
20.1005
20.0666
20.109
20.0835
20.1065
20.0808
20.0295
20.186
20.0252
20.1854
20.0099
20.1408
20.0055
20.1384
20.1795
20.044
20.1847
20.0351
20.1406
20.0227
20.1421
20.0151
20.0765
20.1087
20.073
20.1059
20.0891
20.1143
20.0862
20.1116
20.1214
20.1214
20.1183
20.1183
20.1168
20.1168
20.1136
20.1136
20.1087
20.0765
20.1059
20.073
20.1143
20.0891
20.1116
20.0862
20.044
20.1795
20.0351
20.1847
20.0227
20.1406
20.0151
20.1421
20.1961
20.0379
20.1734
20.0542
20.1558
20.0202
20.1378
20.0314
20.0786
20.1152
20.0796
20.1117
20.0929
20.1208
20.0921
20.1174
20.1282
20.1282
20.1247
20.1247
20.1237
20.1237
20.1202
20.1202
20.1152
20.0786
20.1117
20.0796
20.1208
20.0929
20.1174
20.0921
20.0379
20.1961
20.0542
20.1733
20.0202
20.1558
20.0314
20.1378
20.4016
19.9889
20.3066
20.01
20.3958
19.9752
20.3034
20.0009
19.9924
20.0503
20.0298
20.0731
19.9973
20.0585
20.033
20.078
20.0843
20.0843
20.0958
20.0958
20.0907
20.0907
20.0993
20.0993
20.0503
19.9925
20.0731
20.0299
20.0585
19.9973
20.078
20.033
19.9889
20.4016
20.01
20.3066
19.9752
20.3957
20.0009
20.3033
20.2614
20.0925
20.3054
20.0668
20.2672
20.0709
20.3081
20.0467
20.0373
20.0522
20.0214
20.0513
20.0361
20.0595
20.0224
20.0589
20.0697
20.0697
20.0762
20.0762
20.0788
20.0788
20.0841
20.0841
20.0522
20.0373
20.0513
20.0214
20.0595
20.0361
20.0589
20.0224
20.0925
20.2614
20.0668
20.3053
20.0709
20.2671
20.0467
20.308
20.2298
20.0989
20.242
20.0986
20.2362
20.0768
20.2484
20.0768
20.0536
20.0584
20.0476
20.0551
20.0511
20.0658
20.0452
20.0625
20.0679
20.0679
20.0677
20.0677
20.0777
20.0777
20.0772
20.0772
20.0584
20.0536
20.0551
20.0476
20.0659
20.0511
20.0625
20.0452
20.0989
20.2298
20.0986
20.2419
20.0768
20.2361
20.0768
20.2483
20.215
20.0948
20.2213
20.0971
20.2209
20.0725
20.2274
20.0749
20.0585
20.0638
20.0568
20.0613
20.0564
20.0715
20.0546
20.0689
20.0715
20.0715
20.0694
20.0694
20.0815
20.0815
20.0793
20.0793
20.0638
20.0585
20.0613
20.0569
20.0715
20.0565
20.0689
20.0546
20.0948
20.215
20.0972
20.2213
20.0725
20.2209
20.0749
20.2274
20.2063
20.0897
20.2102
20.0922
20.2118
20.0671
20.2159
20.0698
20.0594
20.0676
20.0592
20.0659
20.0577
20.0757
20.0573
20.0738
20.076
20.076
20.0738
20.0738
20.0864
20.0864
20.084
20.084
20.0676
20.0594
20.0659
20.0592
20.0757
20.0577
20.0738
20.0574
20.0897
20.2063
20.0922
20.2102
20.0671
20.2118
20.0698
20.2159
20.2005
20.0851
20.2032
20.0873
20.2058
20.0622
20.2086
20.0646
20.059
20.07
20.0593
20.0689
20.0573
20.0785
20.0576
20.0772
20.0799
20.0799
20.0781
20.0781
20.0908
20.0908
20.0887
20.0887
20.07
20.059
20.069
20.0593
20.0785
20.0573
20.0772
20.0576
20.0851
20.2005
20.0873
20.2032
20.0622
20.2058
20.0646
20.2085
20.1963
20.0811
20.1983
20.083
20.2015
20.0579
20.2035
20.06
20.0581
20.0714
20.0586
20.0708
20.0563
20.0803
20.0568
20.0795
20.0829
20.0829
20.0815
20.0815
20.0942
20.0942
20.0926
20.0926
20.0714
20.0581
20.0708
20.0586
20.0803
20.0563
20.0795
20.0569
20.0812
20.1963
20.0831
20.1983
20.0579
20.2015
20.06
20.2035
20.1931
20.0777
20.1946
20.0793
20.1982
20.0542
20.1997
20.056
20.0569
20.0721
20.0575
20.0718
20.055
20.0814
20.0556
20.0809
20.0849
20.0849
20.084
20.084
20.0967
20.0967
20.0956
20.0956
20.0721
20.0569
20.0718
20.0575
20.0814
20.055
20.0809
20.0557
20.0777
20.1931
20.0794
20.1946
20.0542
20.1982
20.056
20.1997
20.1905
20.0746
20.1918
20.0761
20.1955
20.0509
20.1968
20.0525
20.0555
20.0723
20.0562
20.0722
20.0535
20.0818
20.0542
20.0817
20.0862
20.0862
20.0857
20.0857
20.0984
20.0984
20.0976
20.0977
20.0723
20.0555
20.0722
20.0562
20.0818
20.0535
20.0817
20.0542
20.0746
20.1905
20.0761
20.1918
20.0509
20.1955
20.0525
20.1968
20.1883
20.0718
20.1894
20.0732
20.1933
20.0479
20.1944
20.0493
20.0539
20.072
20.0547
20.0722
20.0518
20.0818
20.0527
20.0819
20.0868
20.0868
20.0866
20.0866
20.0993
20.0993
20.0989
20.0989
20.072
20.0539
20.0722
20.0547
20.0818
20.0518
20.0819
20.0527
20.0718
20.1883
20.0732
20.1894
20.0479
20.1933
20.0493
20.1944
20.1863
20.0692
20.1873
20.0705
20.1913
20.045
20.1923
20.0464
20.0522
20.0713
20.0531
20.0717
20.0501
20.0813
20.051
20.0816
20.0869
20.0869
20.0869
20.0869
20.0996
20.0996
20.0995
20.0995
20.0713
20.0523
20.0717
20.0531
20.0813
20.0501
20.0816
20.051
20.0692
20.1863
20.0705
20.1873
20.0451
20.1913
20.0464
20.1923
20.1844
20.0667
20.1853
20.0679
20.1894
20.0424
20.1904
20.0437
20.0505
20.0704
20.0514
20.0709
20.0482
20.0804
20.0492
20.0809
20.0865
20.0865
20.0868
20.0868
20.0994
20.0994
20.0996
20.0996
20.0704
20.0505
20.0709
20.0514
20.0805
20.0482
20.0809
20.0492
20.0667
20.1844
20.0679
20.1853
20.0424
20.1894
20.0437
20.1903
20.1825
20.0643
20.1835
20.0655
20.1875
20.0398
20.1885
20.041
20.0486
20.0691
20.0495
20.0698
20.0463
20.0793
20.0473
20.0799
20.0857
20.0857
20.0862
20.0862
20.0987
20.0987
20.0991
20.0991
20.0691
20.0486
20.0698
20.0495
20.0793
20.0463
20.0799
20.0473
20.0643
20.1825
20.0655
20.1835
20.0398
20.1875
20.041
20.1885
20.1806
20.0619
20.1816
20.0631
20.1856
20.0372
20.1866
20.0385
20.0466
20.0677
20.0476
20.0684
20.0442
20.0779
20.0453
20.0786
20.0846
20.0846
20.0852
20.0852
20.0977
20.0977
20.0983
20.0983
20.0677
20.0466
20.0684
20.0476
20.0779
20.0442
20.0786
20.0453
20.0619
20.1806
20.0631
20.1816
20.0372
20.1856
20.0385
20.1866
20.1787
20.0595
20.1797
20.0607
20.1836
20.0347
20.1846
20.0359
20.0445
20.066
20.0455
20.0669
20.0421
20.0762
20.0432
20.0771
20.0833
20.0833
20.084
20.084
20.0963
20.0963
20.097
20.0971
20.066
20.0445
20.0669
20.0455
20.0762
20.0421
20.0771
20.0432
20.0595
20.1787
20.0607
20.1797