/*--------------------------------*- C++ -*----------------------------------*\
  =========                 |
  \\      /  F ield         | OpenFOAM: The Open Source CFD Toolbox
   \\    /   O peration     | Website:  https://openfoam.org
    \\  /    A nd           | Version:  9
     \\/     M anipulation  |
\*---------------------------------------------------------------------------*/
FoamFile
{
    format      ascii;
    class       surfaceScalarField;
    location    "3.6";
    object      phi;
}
// * * * * * * * * * * * * * * * * * * * * * * * * * * * * * * * * * * * * * //

dimensions      [0 3 -1 0 0 0 0];

internalField   nonuniform List<scalar> 
104044
(
7.99783e-06
-0.000143968
-2.23732e-05
0.000132303
2.60409e-05
-9.27041e-05
2.04658e-05
-2.75018e-06
0.000102226
-1.92394e-05
7.34542e-06
-3.39949e-05
3.06097e-05
2.4487e-05
-2.64373e-06
-1.96367e-05
-6.44928e-06
-0.000174876
0.000158952
-7.0026e-05
2.6488e-06
8.13937e-05
-4.60143e-06
1.8648e-06
-5.00536e-07
-9.91423e-05
-2.56554e-06
9.9835e-05
-3.76835e-07
-0.000102357
-2.63656e-06
-6.26305e-08
0.000101669
2.88604e-06
-4.97539e-07
-2.8471e-06
-6.03158e-07
-4.58568e-06
-6.05045e-08
3.26773e-06
4.70818e-07
-8.44064e-05
8.40189e-05
-9.66503e-05
4.24604e-08
9.44421e-05
2.08354e-07
-2.38982e-10
6.18876e-13
-0.000103745
-2.01252e-06
0.000102999
2.69595e-06
-0.000103745
-2.01256e-06
6.26336e-08
0.000102999
2.69599e-06
1.05262e-11
-4.46023e-06
3.57964e-06
-4.46029e-06
6.05047e-08
3.57974e-06
6.92376e-12
-0.000100763
9.87929e-05
-0.000100763
-4.2408e-08
9.87928e-05
-4.45652e-12
2.44251e-10
5.00474e-07
-0.000102356
-2.63674e-06
0.000101668
2.88632e-06
-9.91409e-05
-2.56629e-06
2.74991e-06
9.98333e-05
-3.75613e-07
4.97432e-07
-4.58598e-06
3.2682e-06
-2.84813e-06
2.64348e-06
-6.01876e-07
-4.706e-07
-9.66502e-05
9.44417e-05
-8.44062e-05
-2.64823e-06
8.40175e-05
-2.08262e-07
-1.86434e-06
-7.9969e-06
-9.27015e-05
2.04618e-05
0.000102223
-1.92362e-05
-0.000143968
-2.23689e-05
0.000132303
2.60364e-05
-7.34425e-06
2.44826e-05
-1.96335e-05
-3.3989e-05
3.06046e-05
6.44728e-06
-7.00228e-05
8.13891e-05
-0.000174873
0.000158952
4.59991e-06
1.62596e-06
-0.000125642
-2.26274e-05
0.000121615
2.50277e-05
-0.000105936
2.26492e-05
-1.3107e-06
0.000107382
-2.11593e-05
3.80046e-06
-2.22384e-05
2.5099e-05
2.20445e-05
-1.56433e-06
-2.03897e-05
-1.24975e-05
-0.000146471
0.000136342
-9.00839e-05
4.08266e-06
9.61529e-05
-9.75809e-06
3.59626e-06
2.93392e-07
-0.000100936
-1.42396e-07
0.000102086
-2.61133e-06
-0.000101434
-1.17995e-06
1.48674e-07
0.000101568
1.19108e-06
-1.72406e-08
-1.00245e-06
-1.64586e-06
-1.75863e-06
4.99288e-08
1.92642e-06
1.14942e-06
-8.57896e-05
8.85805e-05
-9.33686e-05
2.47329e-07
9.30907e-05
8.23056e-07
1.3793e-07
-3.3059e-12
-0.000102469
-1.17522e-06
0.00010217
1.62275e-06
-0.000102469
-1.17523e-06
-1.48643e-07
0.00010217
1.62275e-06
-7.21209e-12
-1.43889e-06
2.01896e-06
-1.43891e-06
-4.99226e-08
2.01897e-06
-4.65931e-12
-9.74919e-05
9.65641e-05
-9.74918e-05
-2.4728e-07
9.65638e-05
-4.50334e-12
-1.37897e-07
-2.93339e-07
-0.000101433
-1.18005e-06
0.000101567
1.19124e-06
-0.000100934
-1.42897e-07
1.31042e-06
0.000102084
-2.6105e-06
1.72572e-08
-1.75878e-06
1.92664e-06
-1.00307e-06
1.56414e-06
-1.64483e-06
-1.14917e-06
-9.33679e-05
9.30897e-05
-8.57873e-05
-4.08225e-06
8.85775e-05
-8.22861e-07
-3.59576e-06
-1.62607e-06
-0.000105933
2.26464e-05
0.00010738
-2.11571e-05
-0.000125642
-2.26239e-05
0.000121616
2.50242e-05
-3.8003e-06
2.20412e-05
-2.0387e-05
-2.2235e-05
2.50953e-05
1.24949e-05
-9.00788e-05
9.61481e-05
-0.000146472
0.000136343
9.75568e-06
-4.83943e-07
-0.000118731
-2.08588e-05
0.00011657
2.35036e-05
-0.000108042
2.17958e-05
-1.6278e-06
0.000108338
-2.09485e-05
3.5055e-07
-2.14987e-05
2.40327e-05
2.19982e-05
-1.41454e-06
-2.08926e-05
-1.54454e-05
-0.000128969
0.000123556
-9.98732e-05
4.11403e-06
0.00010211
-1.41266e-05
4.15126e-06
6.98844e-07
-0.000103062
-6.47604e-08
0.000103865
-3.0651e-06
-0.000101895
-5.74375e-07
4.25728e-07
0.000102337
4.05662e-07
5.15603e-07
3.00645e-08
-2.93638e-06
-7.83563e-07
2.82718e-07
6.89461e-07
1.60615e-06
-9.13704e-05
9.38135e-05
-9.33612e-05
4.26642e-07
9.39663e-05
1.39138e-06
3.3732e-07
5.01061e-12
-0.000102093
-6.77094e-07
0.000102207
9.89269e-07
-0.000102093
-6.77102e-07
-4.2567e-07
0.000102206
9.89247e-07
9.77174e-13
-9.08836e-07
1.26824e-06
-9.08847e-07
-2.82672e-07
1.26823e-06
4.171e-12
-9.59925e-05
9.57421e-05
-9.59922e-05
-4.26573e-07
9.57417e-05
3.18488e-12
-3.3725e-07
-6.98811e-07
-0.000101894
-5.74372e-07
0.000102335
4.05717e-07
-0.00010306
-6.49121e-08
1.62742e-06
0.000103863
-3.0646e-06
-5.15553e-07
-7.83619e-07
6.89569e-07
2.97948e-08
1.41421e-06
-2.93574e-06
-1.60587e-06
-9.33599e-05
9.39649e-05
-9.13671e-05
-4.11383e-06
9.38102e-05
-1.39111e-06
-4.15096e-06
4.83692e-07
-0.00010804
2.17938e-05
0.000108337
-2.09468e-05
-0.000118732
-2.08562e-05
0.000116571
2.35008e-05
-3.50769e-07
2.19957e-05
-2.08906e-05
-2.14962e-05
2.40298e-05
1.54429e-05
-9.98687e-05
0.000102106
-0.000128971
0.000123558
1.41241e-05
-1.42715e-06
-0.000114967
-1.97056e-05
0.000113752
2.23484e-05
-0.000108459
2.12566e-05
-2.04004e-06
0.000108496
-2.06811e-05
-1.03652e-06
-1.99838e-05
2.26231e-05
2.12502e-05
-1.82173e-06
-2.05853e-05
-1.6742e-05
-0.000119632
0.000116668
-0.000103381
3.7847e-06
0.000104111
-1.60596e-05
3.91927e-06
7.98954e-07
-0.000104531
-3.50236e-07
0.00010509
-3.04751e-06
-0.000102823
-4.40952e-07
6.10901e-07
0.000103334
1.18272e-07
7.74195e-07
-2.23355e-07
-3.03878e-06
-4.69255e-07
5.28571e-07
2.27962e-07
1.85118e-06
-9.57753e-05
9.73586e-05
-9.47374e-05
5.5634e-07
9.55913e-05
1.73416e-06
4.93786e-07
6.45345e-12
-0.000102457
-3.14902e-07
0.000102806
5.76285e-07
-0.000102456
-3.14892e-07
-6.10854e-07
0.000102806
5.76241e-07
6.68027e-12
-4.67899e-07
7.46708e-07
-4.67902e-07
-5.28514e-07
7.46677e-07
4.55949e-12
-9.5768e-05
9.60094e-05
-9.57675e-05
-5.56279e-07
9.60089e-05
5.31267e-12
-4.9372e-07
-7.98992e-07
-0.000102822
-4.40847e-07
0.000103333
1.1822e-07
-0.00010453
-3.50297e-07
2.03964e-06
0.000105089
-3.04721e-06
-7.742e-07
-4.69202e-07
2.27968e-07
-2.2348e-07
1.82134e-06
-3.03838e-06
-1.85093e-06
-9.47358e-05
9.55896e-05
-9.5772e-05
-3.78465e-06
9.73554e-05
-1.7339e-06
-3.91916e-06
1.42689e-06
-0.000108457
2.1255e-05
0.000108495
-2.06798e-05
-0.000114968
-1.97035e-05
0.000113752
2.23462e-05
1.03625e-06
2.12483e-05
-2.05837e-05
-1.99819e-05
2.26208e-05
1.67399e-05
-0.000103377
0.000104108
-0.000119634
0.00011667
1.60574e-05
-1.86499e-06
-0.000112834
-1.89993e-05
0.000112139
2.15594e-05
-0.000108509
2.09632e-05
-2.35777e-06
0.000108523
-2.0484e-05
-1.66968e-06
-1.91126e-05
2.16997e-05
2.08716e-05
-2.18983e-06
-2.03647e-05
-1.7285e-05
-0.000114461
0.000112747
-0.0001045
3.45343e-06
0.000104725
-1.69059e-05
3.57642e-06
7.21224e-07
-0.000105563
-5.03109e-07
0.000105982
-2.99412e-06
-0.000103839
-4.69317e-07
6.81114e-07
0.000104334
1.46844e-08
7.6556e-07
-4.39229e-07
-2.98932e-06
-4.40953e-07
6.5125e-07
5.013e-08
1.94183e-06
-9.86029e-05
9.96114e-05
-9.64501e-05
6.28121e-07
9.72945e-05
1.89286e-06
5.93136e-07
2.56192e-12
-0.000103213
-1.1517e-07
0.000103664
3.45652e-07
-0.000103213
-1.15135e-07
-6.81095e-07
0.000103663
3.45588e-07
4.568e-12
-1.9523e-07
4.39468e-07
-1.95208e-07
-6.51216e-07
4.39414e-07
1.14548e-12
-9.64073e-05
9.69202e-05
-9.64068e-05
-6.28077e-07
9.69197e-05
2.47999e-12
-5.93084e-07
-7.21346e-07
-0.000103838
-4.69147e-07
0.000104333
1.45822e-08
-0.000105562
-5.03131e-07
2.35738e-06
0.00010598
-2.99392e-06
-7.65638e-07
-4.40812e-07
5.0057e-08
-4.39277e-07
2.18944e-06
-2.98907e-06
-1.94164e-06
-9.64484e-05
9.72928e-05
-9.85999e-05
-3.45347e-06
9.96086e-05
-1.89264e-06
-3.57642e-06
1.86476e-06
-0.000108508
2.09619e-05
0.000108522
-2.0483e-05
-0.000112835
-1.89976e-05
0.00011214
2.15576e-05
1.66943e-06
2.08701e-05
-2.03635e-05
-1.9111e-05
2.16978e-05
1.72833e-05
-0.000104498
0.000104723
-0.000114463
0.000112749
1.69041e-05
-2.07381e-06
-0.000111619
-1.84875e-05
0.000111239
2.09405e-05
-0.000108559
2.07451e-05
-2.56663e-06
0.000108618
-2.03116e-05
-1.96882e-06
-1.85286e-05
2.10179e-05
2.06337e-05
-2.44845e-06
-2.01903e-05
-1.74625e-05
-0.00011145
0.000110425
-0.000104849
3.18401e-06
0.000104948
-1.72316e-05
3.27767e-06
6.21671e-07
-0.000106359
-5.7108e-07
0.00010671
-2.96848e-06
-0.000104813
-5.08645e-07
6.88029e-07
0.000105289
-3.37374e-08
6.60378e-07
-5.40983e-07
-2.94498e-06
-4.89466e-07
6.82173e-07
-1.08117e-08
1.92938e-06
-0.000100421
0.000101105
-9.80927e-05
6.5309e-07
9.88603e-05
1.92671e-06
6.39057e-07
2.91214e-11
-0.000104135
-2.25166e-08
0.000104627
2.18151e-07
-0.000104135
-2.24604e-08
-6.87986e-07
0.000104627
2.18073e-07
8.86078e-12
-5.94363e-08
2.7046e-07
-5.93982e-08
-6.82149e-07
2.70391e-07
3.77836e-11
-9.74999e-05
9.81304e-05
-9.74993e-05
-6.52992e-07
9.81299e-05
8.51801e-12
-6.39008e-07
-6.21768e-07
-0.000104812
-5.0848e-07
0.000105288
-3.38782e-08
-0.000106358
-5.71053e-07
2.56621e-06
0.000106709
-2.96835e-06
-6.60457e-07
-4.8931e-07
-1.09332e-08
-5.40981e-07
2.44806e-06
-2.94482e-06
-1.92926e-06
-9.8091e-05
9.88588e-05
-0.000100419
-3.18419e-06
0.000101103
-1.92656e-06
-3.27776e-06
2.07354e-06
-0.000108558
2.0744e-05
0.000108617
-2.03107e-05
-0.000111619
-1.84861e-05
0.00011124
2.0939e-05
1.96858e-06
2.06325e-05
-2.01893e-05
-1.85273e-05
2.10163e-05
1.74608e-05
-0.000104847
0.000104946
-0.000111452
0.000110426
1.723e-05
-2.17047e-06
-0.00011097
-1.8053e-05
0.000110799
2.03944e-05
-0.00010871
2.05187e-05
-2.69506e-06
0.000108832
-2.01156e-05
-2.11134e-06
-1.80779e-05
2.04583e-05
2.04261e-05
-2.61206e-06
-2.00175e-05
-1.74449e-05
-0.000109651
0.000109043
-0.000105029
2.97066e-06
0.000105132
-1.73037e-05
3.0417e-06
5.30483e-07
-0.000107048
-5.81551e-07
0.000107383
-2.97924e-06
-0.000105753
-5.1892e-07
6.64878e-07
0.000106217
-7.88831e-08
5.69657e-07
-5.78521e-07
-2.9413e-06
-5.11868e-07
6.72531e-07
-5.58227e-08
1.85886e-06
-0.000101688
0.000102218
-9.95825e-05
6.45856e-07
0.000100277
1.88041e-06
6.46316e-07
9.55752e-11
-0.000105121
2.48205e-08
0.000105625
1.36513e-07
-0.000105121
2.48822e-08
-6.64659e-07
0.000105624
1.36398e-07
6.05426e-11
6.20096e-09
1.7228e-07
6.26402e-09
-6.72431e-07
1.72192e-07
6.16734e-11
-9.87828e-05
9.94534e-05
-9.87824e-05
-6.45698e-07
9.9453e-05
8.74322e-11
-6.46122e-07
-5.30549e-07
-0.000105753
-5.18743e-07
0.000106216
-7.88037e-08
-0.000107047
-5.81419e-07
2.69467e-06
0.000107383
-2.9792e-06
-5.69734e-07
-5.1168e-07
-5.59952e-08
-5.78461e-07
2.61161e-06
-2.94121e-06
-1.85868e-06
-9.95813e-05
0.000100275
-0.000101686
-2.97081e-06
0.000102217
-1.88025e-06
-3.04192e-06
2.16986e-06
-0.00010871
2.05189e-05
0.000108832
-2.01158e-05
-0.000110971
-1.80537e-05
0.0001108
2.03943e-05
2.11092e-06
2.0425e-05
-2.00167e-05
-1.80771e-05
2.04572e-05
1.74433e-05
-0.000105028
0.000105133
-0.000109651
0.000109041
1.73017e-05
-2.20909e-06
-0.000110703
-1.76397e-05
0.000110681
1.9871e-05
-0.000108989
2.02665e-05
-2.76973e-06
0.000109175
-1.98923e-05
-2.17342e-06
-1.76603e-05
1.99299e-05
2.01862e-05
-2.70931e-06
-1.98069e-05
-1.73089e-05
-0.000108598
0.000108267
-0.000105249
2.80086e-06
0.000105405
-1.72156e-05
2.85407e-06
4.50918e-07
-0.000107721
-5.5908e-07
0.000108067
-3.00756e-06
-0.000106672
-5.12468e-07
6.27809e-07
0.000107131
-1.23048e-07
4.84358e-07
-5.69382e-07
-2.96221e-06
-5.1303e-07
6.40537e-07
-9.84081e-08
1.77212e-06
-0.000102704
0.000103173
-0.000100934
6.21186e-07
0.000101572
1.79889e-06
6.28809e-07
-1.35931e-11
-0.000106124
5.13844e-08
0.000106629
7.1013e-08
-0.000106124
5.14377e-08
-6.27816e-07
0.000106629
7.0927e-08
7.92296e-11
3.94984e-08
1.01775e-07
3.96111e-08
-6.40366e-07
1.01665e-07
-2.64941e-10
-0.000100122
0.000100795
-0.000100121
-6.21742e-07
0.000100794
9.01346e-12
-6.28629e-07
-4.51025e-07
-0.000106671
-5.12396e-07
0.00010713
-1.23084e-07
-0.00010772
-5.59044e-07
2.76935e-06
0.000108067
-3.00748e-06
-4.84218e-07
-5.12772e-07
-9.86034e-08
-5.69022e-07
2.70925e-06
-2.9622e-06
-1.77296e-06
-0.000100932
0.000101571
-0.000102702
-2.80253e-06
0.000103172
-1.79824e-06
-2.85228e-06
2.20873e-06
-0.000108988
2.02714e-05
0.000109174
-1.98975e-05
-0.000110703
-1.76454e-05
0.000110681
1.98762e-05
2.17296e-06
2.0188e-05
-1.98079e-05
-1.76607e-05
1.99303e-05
1.73104e-05
-0.000105246
0.000105405
-0.000108602
0.000108267
1.72218e-05
-2.21544e-06
-0.000110714
-1.72497e-05
0.000110805
1.93737e-05
-0.000109395
1.99988e-05
-2.80573e-06
0.000109643
-1.96562e-05
-2.19207e-06
-1.7247e-05
1.94062e-05
1.99107e-05
-2.76127e-06
-1.95617e-05
-1.71123e-05
-0.000108049
0.000107912
-0.000105586
2.66297e-06
0.00010581
-1.7029e-05
2.70105e-06
3.84903e-07
-0.000108424
-5.1599e-07
0.000108793
-3.04417e-06
-0.000107587
-4.90193e-07
5.88191e-07
0.000108051
-1.77326e-07
4.12122e-07
-5.37328e-07
-2.99276e-06
-4.98416e-07
6.01403e-07
-1.47166e-07
1.68895e-06
-0.000103625
0.000104083
-0.000102186
5.91031e-07
0.000102793
1.71186e-06
5.99864e-07
1.82255e-11
-0.000107131
7.19358e-08
0.000107641
5.73274e-09
-0.000107131
7.20095e-08
-5.88197e-07
0.000107641
5.67335e-09
-4.93207e-11
6.05246e-08
3.92782e-08
6.05735e-08
-6.01461e-07
3.92024e-08
2.05402e-10
-0.000101455
0.000102118
-0.000101455
-5.90512e-07
0.000102118
-2.95596e-10
-6.00424e-07
-3.85097e-07
-0.000107586
-4.89974e-07
0.000108051
-1.77456e-07
-0.000108423
-5.15841e-07
2.80505e-06
0.000108793
-3.04421e-06
-4.12176e-07
-4.98297e-07
-1.47225e-07
-5.37294e-07
2.76124e-06
-2.99254e-06
-1.68835e-06
-0.000102185
0.000102792
-0.000103623
-2.66315e-06
0.000104082
-1.71212e-06
-2.70036e-06
2.21468e-06
-0.000109394
1.99937e-05
0.000109642
-1.96519e-05
-0.000110713
-1.72478e-05
0.000110805
1.93704e-05
2.19191e-06
1.99139e-05
-1.95639e-05
-1.72484e-05
1.94081e-05
1.71025e-05
-0.000105581
0.000105809
-0.000108055
0.00010791
1.70371e-05
-2.20183e-06
-0.000110936
-1.68648e-05
0.000111119
1.88837e-05
-0.00010992
1.97036e-05
-2.81297e-06
0.000110224
-1.93964e-05
-2.18819e-06
-1.68751e-05
1.89326e-05
1.96452e-05
-2.78231e-06
-1.93283e-05
-1.68617e-05
-0.000107866
0.000107863
-0.000106051
2.54734e-06
0.000106345
-1.68291e-05
2.57478e-06
3.31608e-07
-0.000109176
-4.62336e-07
0.000109574
-3.0803e-06
-0.000108516
-4.57833e-07
5.52009e-07
0.000108992
-2.38276e-07
3.53095e-07
-4.8566e-07
-3.03207e-06
-4.70041e-07
5.63563e-07
-2.05357e-07
1.61432e-06
-0.000104539
0.000105009
-0.000103387
5.6076e-07
0.000103983
1.63369e-06
5.69743e-07
-4.3262e-11
-0.000108148
9.22246e-08
0.000108664
-5.57775e-08
-0.000108148
9.22676e-08
-5.52105e-07
0.000108663
-5.58065e-08
-3.55715e-11
8.0989e-08
-2.40715e-08
8.10036e-08
-5.63687e-07
-2.40878e-08
4.10165e-11
-0.000102769
0.000103422
-0.000102768
-5.60702e-07
0.000103421
1.1679e-10
-5.69617e-07
-3.31736e-07
-0.000108516
-4.57769e-07
0.000108991
-2.38265e-07
-0.000109176
-4.62438e-07
2.81289e-06
0.000109573
-3.0799e-06
-3.53429e-07
-4.70017e-07
-2.05356e-07
-4.85745e-07
2.78158e-06
-3.03196e-06
-1.61405e-06
-0.000103387
0.000103982
-0.000104538
-2.54557e-06
0.000105008
-1.63398e-06
-2.57619e-06
2.20161e-06
-0.00010992
1.97051e-05
0.000110223
-1.93965e-05
-0.000110936
-1.68623e-05
0.000111118
1.88825e-05
2.18765e-06
1.96436e-05
-1.93275e-05
-1.68755e-05
1.89322e-05
1.68725e-05
-0.000106053
0.00010634
-0.000107858
0.000107868
1.68233e-05
-2.17808e-06
-0.00011133
-1.64944e-05
0.000111583
1.84191e-05
-0.000110553
1.94104e-05
-2.80105e-06
0.000110904
-1.91389e-05
-2.16961e-06
-1.65019e-05
1.84603e-05
1.93554e-05
-2.77969e-06
-1.90742e-05
-1.66097e-05
-0.000107939
0.000108054
-0.000106651
2.45062e-06
0.000107001
-1.65776e-05
2.4724e-06
2.89918e-07
-0.000109986
-4.05471e-07
0.000110412
-3.11223e-06
-0.000109471
-4.21133e-07
5.20628e-07
0.000109962
-3.00496e-07
3.066e-07
-4.3249e-07
-3.06557e-06
-4.361e-07
5.30232e-07
-2.66492e-07
1.55197e-06
-0.000105482
0.000105975
-0.000104572
5.34277e-07
0.000105169
1.56715e-06
5.41961e-07
1.18203e-10
-0.000109179
1.15275e-07
0.000109704
-1.19799e-07
-0.000109178
1.15479e-07
-5.20418e-07
0.000109703
-1.19946e-07
4.132e-11
1.02162e-07
-8.69117e-08
1.02289e-07
-5.3016e-07
-8.69964e-08
5.29073e-10
-0.000104065
0.000104714
-0.000104065
-5.32959e-07
0.000104714
2.80635e-10
-5.413e-07
-2.89742e-07
-0.00010947
-4.20504e-07
0.000109961
-3.01008e-07
-0.000109985
-4.0437e-07
2.80091e-06
0.000110412
-3.1129e-06
-3.06628e-07
-4.35762e-07
-2.66668e-07
-4.32557e-07
2.77933e-06
-3.06527e-06
-1.54987e-06
-0.000104571
0.000105168
-0.00010548
-2.44696e-06
0.000105973
-1.56602e-06
-2.47139e-06
2.17677e-06
-0.000110552
1.9403e-05
0.000110904
-1.91301e-05
-0.000111331
-1.6487e-05
0.000111584
1.84105e-05
2.16825e-06
1.93491e-05
-1.90675e-05
-1.64981e-05
1.84535e-05
1.66071e-05
-0.000106649
0.000106998
-0.000107939
0.000108059
1.65691e-05
-2.14312e-06
-0.000111859
-1.60992e-05
0.00011217
1.79311e-05
-0.000111277
1.90705e-05
-2.77366e-06
0.000111668
-1.88311e-05
-2.14014e-06
-1.61274e-05
1.79918e-05
1.90445e-05
-2.76002e-06
-1.87972e-05
-1.63124e-05
-0.000108231
0.000108444
-0.000107362
2.35691e-06
0.000107763
-1.63042e-05
2.37881e-06
2.56452e-07
-0.000110851
-3.49815e-07
0.000111304
-3.13258e-06
-0.000110456
-3.82068e-07
4.92888e-07
0.000110961
-3.59726e-07
2.6967e-07
-3.75658e-07
-3.09298e-06
-3.97884e-07
5.011e-07
-3.27516e-07
1.49173e-06
-0.000106472
0.000106987
-0.000105761
5.08156e-07
0.000106363
1.50648e-06
5.15926e-07
-1.17264e-10
-0.000110228
1.39689e-07
0.000110762
-1.80867e-07
-0.000110228
1.39683e-07
-4.93158e-07
0.000110762
-1.80881e-07
6.08118e-11
1.26218e-07
-1.49596e-07
1.26379e-07
-5.01033e-07
-1.49727e-07
-8.73106e-11
-0.000105356
0.000106004
-0.000105356
-5.0836e-07
0.000106004
4.36951e-10
-5.14867e-07
-2.56673e-07
-0.000110455
-3.8208e-07
0.000110961
-3.59898e-07
-0.000110851
-3.49445e-07
2.77357e-06
0.000111303
-3.13311e-06
-2.69613e-07
-3.9732e-07
-3.28129e-07
-3.73777e-07
2.75969e-06
-3.09457e-06
-1.49214e-06
-0.000105761
0.000106362
-0.000106471
-2.35702e-06
0.000106987
-1.50526e-06
-2.37712e-06
2.1434e-06
-0.000111277
1.90674e-05
0.000111668
-1.88281e-05
-0.000111859
-1.60949e-05
0.00011217
1.79277e-05
2.13931e-06
1.90393e-05
-1.8792e-05
-1.61237e-05
1.79878e-05
1.63105e-05
-0.000107362
0.000107762
-0.000108233
0.000108449
1.62979e-05
-2.10663e-06
-0.000112495
-1.57334e-05
0.00011285
1.74852e-05
-0.000112076
1.8738e-05
-2.73672e-06
0.000112499
-1.85313e-05
-2.10346e-06
-1.57423e-05
1.75212e-05
1.87042e-05
-2.72678e-06
-1.84887e-05
-1.60016e-05
-0.000108701
0.00010897
-0.000108173
2.28628e-06
0.000108623
-1.59998e-05
2.29506e-06
2.31285e-07
-0.000111766
-2.9981e-07
0.00011224
-3.1418e-06
-0.000111469
-3.4578e-07
4.70017e-07
0.000111986
-4.10893e-07
2.40591e-07
-3.22505e-07
-3.10727e-06
-3.60049e-07
4.75813e-07
-3.82703e-07
1.44448e-06
-0.000107508
0.00010805
-0.000106963
4.8731e-07
0.000107574
1.45226e-06
4.9216e-07
-2.99461e-10
-0.000111295
1.62477e-07
0.000111837
-2.34198e-07
-0.000111295
1.62294e-07
-4.70595e-07
0.000111837
-2.34078e-07
-2.37693e-10
1.49771e-07
-2.06694e-07
1.49617e-07
-4.76319e-07
-2.0659e-07
-5.66162e-10
-0.000106646
0.000107297
-0.000106646
-4.88754e-07
0.000107297
-3.25361e-10
-4.93077e-07
-2.31709e-07
-0.000111468
-3.46293e-07
0.000111987
-4.10639e-07
-0.000111766
-3.00034e-07
2.73672e-06
0.00011224
-3.14208e-06
-2.41095e-07
-3.60596e-07
-3.82406e-07
-3.23838e-07
2.72652e-06
-3.10671e-06
-1.44668e-06
-0.000106963
0.000107574
-0.000107507
-2.28944e-06
0.00010805
-1.45393e-06
-2.29834e-06
2.10794e-06
-0.000112076
1.87399e-05
0.0001125
-1.85348e-05
-0.000112495
-1.57351e-05
0.000112851
1.74879e-05
2.10425e-06
1.87001e-05
-1.84863e-05
-1.57392e-05
1.75176e-05
1.59989e-05
-0.000108174
0.000108625
-0.0001087
0.000108963
1.59897e-05
-2.06554e-06
-0.000113213
-1.53647e-05
0.000113602
1.70422e-05
-0.000112934
1.83794e-05
-2.68959e-06
0.000113375
-1.81962e-05
-2.06468e-06
-1.5384e-05
1.70849e-05
1.83627e-05
-2.68436e-06
-1.81776e-05
-1.56788e-05
-0.000109257
0.000109571
-0.000109082
2.21585e-06
0.000109567
-1.56715e-05
2.23198e-06
2.11553e-07
-0.000112719
-2.56731e-07
0.000113204
-3.12933e-06
-0.000112504
-3.13725e-07
4.50072e-07
0.000113027
-4.47767e-07
2.18883e-07
-2.76892e-07
-3.1061e-06
-3.26018e-07
4.54871e-07
-4.27033e-07
1.3992e-06
-0.000108596
0.000109156
-0.000108184
4.69021e-07
0.0001088
1.40884e-06
4.73492e-07
-2.06201e-10
-0.000112375
1.80885e-07
0.000112919
-2.74139e-07
-0.000112375
1.80741e-07
-4.50569e-07
0.000112919
-2.74021e-07
-2.37501e-10
1.70577e-07
-2.53674e-07
1.70459e-07
-4.55301e-07
-2.53577e-07
-2.33903e-11
-0.000107941
0.000108591
-0.000107941
-4.69416e-07
0.000108591
-2.84225e-10
-4.74087e-07
-2.12082e-07
-0.000112503
-3.14232e-07
0.000113027
-4.47522e-07
-0.000112719
-2.57241e-07
2.68925e-06
0.000113204
-3.12951e-06
-2.19015e-07
-3.26296e-07
-4.26905e-07
-2.76131e-07
2.68488e-06
-3.10688e-06
-1.40077e-06
-0.000108183
0.0001088
-0.000108594
-2.21875e-06
0.000109155
-1.40919e-06
-2.22972e-06
2.06694e-06
-0.000112933
1.83754e-05
0.000113374
-1.81943e-05
-0.000113212
-1.53614e-05
0.000113601
1.70399e-05
2.06648e-06
1.83637e-05
-1.81784e-05
-1.53797e-05
1.70844e-05
1.56699e-05
-0.000109077
0.000109564
-0.000109266
0.000109575
1.56825e-05
-2.02316e-06
-0.00011399
-1.50001e-05
0.000114387
1.66271e-05
-0.000113815
1.8013e-05
-2.63798e-06
0.000114263
-1.78466e-05
-2.02331e-06
-1.50225e-05
1.66569e-05
1.80086e-05
-2.63517e-06
-1.78369e-05
-1.53681e-05
-0.00010992
0.000110288
-0.000110046
2.15133e-06
0.000110539
-1.5371e-05
2.15851e-06
1.96679e-07
-0.000113688
-2.27123e-07
0.000114174
-3.09292e-06
-0.000113544
-2.9152e-07
4.33054e-07
0.000114063
-4.63632e-07
2.01502e-07
-2.38098e-07
-3.08283e-06
-2.98083e-07
4.36417e-07
-4.54111e-07
1.35962e-06
-0.000109712
0.000110277
-0.00010941
4.53044e-07
0.000110025
1.36412e-06
4.55879e-07
-5.85667e-11
-0.000113454
1.90485e-07
0.000113991
-2.93777e-07
-0.000113455
1.90577e-07
-4.33168e-07
0.000113991
-2.93866e-07
-1.70917e-10
1.85077e-07
-2.84035e-07
1.85005e-07
-4.36847e-07
-2.83994e-07
8.39046e-11
-0.000109232
0.000109875
-0.000109232
-4.52731e-07
0.000109876
-4.25142e-11
-4.56249e-07
-1.96773e-07
-0.000113544
-2.91068e-07
0.000114063
-4.64096e-07
-0.000113689
-2.25516e-07
2.63769e-06
0.000114175
-3.09432e-06
-2.02073e-07
-2.98335e-07
-4.54129e-07
-2.38153e-07
2.63449e-06
-3.08343e-06
-1.35888e-06
-0.000109411
0.000110027
-0.000109714
-2.14986e-06
0.000110279
-1.3658e-06
-2.16255e-06
2.02351e-06
-0.000113815
1.80049e-05
0.000114264
-1.78393e-05
-0.00011399
-1.49946e-05
0.000114387
1.66215e-05
2.0241e-06
1.80029e-05
-1.78337e-05
-1.50202e-05
1.66549e-05
1.53599e-05
-0.000110048
0.000110543
-0.00010991
0.000110275
1.53558e-05
-1.97958e-06
-0.000114769
-1.46332e-05
0.000115155
1.62268e-05
-0.000114716
1.75984e-05
-2.57987e-06
0.000115168
-1.74494e-05
-1.98062e-06
-1.46504e-05
1.62489e-05
1.76118e-05
-2.58096e-06
-1.74645e-05
-1.50013e-05
-0.000110666
0.000111034
-0.00011102
2.10001e-06
0.000111517
-1.50286e-05
2.10252e-06
1.86836e-07
-0.000114655
-2.1661e-07
0.000115129
-3.02432e-06
-0.00011457
-2.80951e-07
4.18188e-07
0.000115073
-4.52714e-07
1.89432e-07
-2.20151e-07
-3.03119e-06
-2.82169e-07
4.20861e-07
-4.5707e-07
1.32414e-06
-0.000110831
0.00011139
-0.00011063
4.39531e-07
0.000111233
1.32827e-06
4.41606e-07
-1.1444e-10
-0.000114514
1.87693e-07
0.000115031
-2.8663e-07
-0.000114514
1.87497e-07
-4.18278e-07
0.000115031
-2.86469e-07
-1.56998e-11
1.88735e-07
-2.90937e-07
1.88806e-07
-4.20833e-07
-2.90987e-07
-1.84563e-11
-0.000110506
0.000111133
-0.000110506
-4.39523e-07
0.000111133
1.45715e-10
-4.41123e-07
-1.86713e-07
-0.000114571
-2.81453e-07
0.000115073
-4.52057e-07
-0.000114656
-2.17838e-07
2.58041e-06
0.000115129
-3.02294e-06
-1.89366e-07
-2.81799e-07
-4.5731e-07
-2.18806e-07
2.58054e-06
-3.03212e-06
-1.3233e-06
-0.000110631
0.000111233
-0.000110835
-2.09577e-06
0.000111389
-1.32739e-06
-2.10177e-06
1.98039e-06
-0.000114718
1.75992e-05
0.000115169
-1.74495e-05
-0.00011477
-1.46253e-05
0.000115154
1.62213e-05
1.9805e-06
1.76072e-05
-1.74617e-05
-1.46484e-05
1.62459e-05
1.50182e-05
-0.00011103
0.000111516
-0.000110645
0.000111038
1.50184e-05
-1.93412e-06
-0.000115527
-1.43079e-05
0.000115901
1.58679e-05
-0.000115599
1.72065e-05
-2.5224e-06
0.00011601
-1.70292e-05
-1.93702e-06
-1.43133e-05
1.58781e-05
1.72215e-05
-2.52433e-06
-1.7066e-05
-1.4677e-05
-0.000111417
0.000111786
-0.000111994
2.04321e-06
0.00011248
-1.46964e-05
2.04808e-06
1.80615e-07
-0.000115588
-2.24264e-07
0.00011603
-2.92037e-06
-0.000115556
-2.83867e-07
4.05125e-07
0.000116024
-4.09092e-07
1.81375e-07
-2.1673e-07
-2.9482e-06
-2.77688e-07
4.06983e-07
-4.31212e-07
1.28352e-06
-0.000111931
0.000112467
-0.000111818
4.25833e-07
0.000112392
1.29002e-06
4.2768e-07
-2.23826e-10
-0.000115528
1.70099e-07
0.00011601
-2.4687e-07
-0.000115528
1.69961e-07
-4.05571e-07
0.00011601
-2.46838e-07
-3.06635e-10
1.79139e-07
-2.68606e-07
1.7877e-07
-4.07533e-07
-2.68354e-07
-4.99384e-10
-0.00011174
0.000112337
-0.00011174
-4.27047e-07
0.000112337
-6.18194e-10
-4.29357e-07
-1.81176e-07
-0.000115556
-2.8427e-07
0.000116025
-4.08944e-07
-0.000115588
-2.24588e-07
2.52169e-06
0.000116031
-2.92048e-06
-1.81894e-07
-2.78931e-07
-4.30135e-07
-2.19981e-07
2.52473e-06
-2.94572e-06
-1.28529e-06
-0.000111817
0.000112391
-0.000111927
-2.04768e-06
0.000112465
-1.29235e-06
-2.05e-06
1.93378e-06
-0.000115596
1.72166e-05
0.000116005
-1.70376e-05
-0.000115528
-1.43238e-05
0.000115909
1.58765e-05
1.94001e-06
1.72335e-05
-1.70757e-05
-1.4316e-05
1.58818e-05
1.46699e-05
-0.000111983
0.000112482
-0.000111439
0.000111785
1.47164e-05
-1.89122e-06
-0.000116244
-1.39998e-05
0.000116568
1.5567e-05
-0.000116407
1.67777e-05
-2.45886e-06
0.000116776
-1.65794e-05
-1.8916e-06
-1.39982e-05
1.55469e-05
1.68091e-05
-2.46339e-06
-1.66336e-05
-1.43459e-05
-0.000112141
0.000112487
-0.000112934
1.99436e-06
0.000113371
-1.43532e-05
2.00245e-06
1.78717e-07
-0.00011645
-2.56296e-07
0.000116843
-2.77462e-06
-0.000116466
-3.04086e-07
3.94103e-07
0.000116882
-3.27356e-07
1.77895e-07
-2.38685e-07
-2.82276e-06
-2.89401e-07
3.95292e-07
-3.69131e-07
1.24686e-06
-0.000112976
0.000113467
-0.00011294
4.1516e-07
0.000113468
1.25446e-06
4.16767e-07
2.79071e-10
-0.000116463
1.33481e-07
0.000116891
-1.67813e-07
-0.000116463
1.33612e-07
-3.93382e-07
0.000116891
-1.68064e-07
1.09022e-10
1.52603e-07
-2.10415e-07
1.52731e-07
-3.94934e-07
-2.10629e-07
7.9902e-11
-0.000112906
0.000113454
-0.000112906
-4.1499e-07
0.000113455
8.3113e-11
-4.16319e-07
-1.77456e-07
-0.000116466
-3.03732e-07
0.000116882
-3.2818e-07
-0.00011645
-2.54965e-07
2.46011e-06
0.000116844
-2.7761e-06
-1.7712e-07
-2.88809e-07
-3.69949e-07
-2.35765e-07
2.46403e-06
-2.82515e-06
-1.24739e-06
-0.00011294
0.000113468
-0.000112975
-1.99652e-06
0.000113469
-1.25331e-06
-1.99914e-06
1.88781e-06
-0.000116402
1.67727e-05
0.000116775
-1.65732e-05
-0.000116249
-1.39944e-05
0.00011657
1.55618e-05
1.88898e-06
1.68091e-05
-1.66312e-05
-1.3997e-05
1.55461e-05
1.43338e-05
-0.000112932
0.000113375
-0.000112147
0.000112487
1.43592e-05
-1.84926e-06
-0.000116856
-1.37276e-05
0.000117118
1.53143e-05
-0.000117107
1.634e-05
-2.39983e-06
0.000117396
-1.60787e-05
-1.85243e-06
-1.37186e-05
1.52831e-05
1.63948e-05
-2.40372e-06
-1.61746e-05
-1.39988e-05
-0.000112808
0.000113079
-0.000113775
1.94873e-06
0.000114167
-1.40394e-05
1.9518e-06
1.76883e-07
-0.000117202
-3.0905e-07
0.000117522
-2.58682e-06
-0.00011726
-3.42706e-07
3.83711e-07
0.000117601
-2.05559e-07
1.7604e-07
-2.78104e-07
-2.66081e-06
-3.17967e-07
3.84718e-07
-2.69049e-07
1.20779e-06
-0.000113925
0.000114357
-0.00011396
4.0482e-07
0.00011442
1.21566e-06
4.05829e-07
1.67297e-10
-0.00011728
7.41308e-08
0.000117634
-4.36869e-08
-0.000117281
7.42329e-08
-3.83355e-07
0.000117634
-4.38667e-08
2.5038e-10
1.05915e-07
-1.10741e-07
1.06033e-07
-3.84113e-07
-1.10967e-07
1.1233e-10
-0.000113966
0.000114445
-0.000113966
-4.04675e-07
0.000114445
1.89912e-11
-4.05789e-07
-1.76455e-07
-0.00011726
-3.42292e-07
0.000117602
-2.06078e-07
-0.000117203
-3.07138e-07
2.39938e-06
0.000117522
-2.58762e-06
-1.75065e-07
-3.17687e-07
-2.69672e-07
-2.77622e-07
2.40457e-06
-2.66123e-06
-1.20759e-06
-0.000113961
0.000114421
-0.000113928
-1.94643e-06
0.00011436
-1.21578e-06
-1.95274e-06
1.84139e-06
-0.00011711
1.63453e-05
0.000117402
-1.60799e-05
-0.000116857
-1.37331e-05
0.000117114
1.53171e-05
1.84625e-06
1.63886e-05
-1.61655e-05
-1.3716e-05
1.52754e-05
1.40124e-05
-0.000113785
0.000114171
-0.000112797
0.000113076
1.40261e-05
-1.80453e-06
-0.00011732
-1.34714e-05
0.000117473
1.5123e-05
-0.00011765
1.58594e-05
-2.33687e-06
0.000117856
-1.55327e-05
-1.80804e-06
-1.34454e-05
1.50516e-05
1.59257e-05
-2.34253e-06
-1.56447e-05
-1.36455e-05
-0.000113315
0.000113489
-0.000114503
1.91386e-06
0.000114803
-1.36813e-05
1.9093e-06
1.77332e-07
-0.000117798
-3.93894e-07
0.000118022
-2.34442e-06
-0.000117896
-4.03832e-07
3.75978e-07
0.000118149
-4.83308e-08
1.7519e-07
-3.46125e-07
-2.44769e-06
-3.66366e-07
3.7521e-07
-1.28198e-07
1.17533e-06
-0.000114742
0.000115087
-0.000114835
3.96902e-07
0.00011521
1.178e-06
3.96302e-07
2.30967e-10
-0.000117941
-1.87866e-08
0.000118202
1.33185e-07
-0.000117941
-1.87211e-08
-3.75469e-07
0.000118202
1.3313e-07
1.3366e-10
3.02343e-08
3.75539e-08
3.03309e-08
-3.74983e-07
3.74352e-08
3.8286e-10
-0.000114872
0.000115249
-0.000114872
-3.95797e-07
0.00011525
1.6715e-11
-3.96393e-07
-1.77221e-07
-0.000117896
-4.0323e-07
0.00011815
-4.83505e-08
-0.000117798
-3.91943e-07
2.33488e-06
0.000118022
-2.34372e-06
-1.75402e-07
-3.65901e-07
-1.28426e-07
-3.43788e-07
2.34017e-06
-2.44812e-06
-1.17223e-06
-0.000114837
0.00011521
-0.000114747
-1.90616e-06
0.000115089
-1.17837e-06
-1.90916e-06
1.79929e-06
-0.000117657
1.58594e-05
0.000117857
-1.55241e-05
-0.000117316
-1.34715e-05
0.000117475
1.51116e-05
1.80049e-06
1.59372e-05
-1.56518e-05
-1.34603e-05
1.50588e-05
1.36555e-05
-0.000114506
0.000114804
-0.000113309
0.000113493
1.36933e-05
-1.76217e-06
-0.000117559
-1.32398e-05
0.000117591
1.49707e-05
-0.000118004
1.53518e-05
-2.27164e-06
0.000118078
-1.49165e-05
-1.76579e-06
-1.32056e-05
1.48852e-05
1.54396e-05
-2.27903e-06
-1.5075e-05
-1.33089e-05
-0.000113624
0.000113694
-0.000115028
1.86672e-06
0.000115204
-1.33408e-05
1.87318e-06
1.85392e-07
-0.000118188
-5.05674e-07
0.000118285
-2.04789e-06
-0.00011834
-5.12939e-07
3.64175e-07
0.000118454
2.19682e-07
1.78697e-07
-4.44094e-07
-2.18028e-06