/*--------------------------------*- C++ -*----------------------------------*\
  =========                 |
  \\      /  F ield         | OpenFOAM: The Open Source CFD Toolbox
   \\    /   O peration     | Website:  https://openfoam.org
    \\  /    A nd           | Version:  9
     \\/     M anipulation  |
\*---------------------------------------------------------------------------*/
FoamFile
{
    format      ascii;
    class       volScalarField;
    location    "2.95";
    object      nut;
}
// * * * * * * * * * * * * * * * * * * * * * * * * * * * * * * * * * * * * * //

dimensions      [0 2 -1 0 0 0 0];

internalField   nonuniform List<scalar> 
36360
(
0.00272457
0.00237399
0.00151028
0.0013474
0.000464295
0.00041855
0.000255002
0.000250339
0.00150715
0.000738787
0.000583118
0.00024943
0.000259801
0.000170019
0.000180748
0.000159251
0.000310486
0.000310855
0.000161841
0.000161882
0.000138272
0.000138283
0.000161008
0.000161007
0.000739697
0.00150777
0.000249581
0.000583888
0.00017006
0.000259863
0.000159257
0.000180784
0.00237439
0.00272465
0.00134786
0.00151045
0.000418605
0.000464335
0.00025039
0.000255024
0.00408782
0.00368908
0.003515
0.00311908
0.000676106
0.000600839
0.000596218
0.00052684
0.00283549
0.00223207
0.00223332
0.00152498
0.000456947
0.000327437
0.000374664
0.000233204
0.00198217
0.00198253
0.000984161
0.000984925
0.00023693
0.000236987
0.000158444
0.000158485
0.00223275
0.00283596
0.00152596
0.00223394
0.000327528
0.000456999
0.000233293
0.000374734
0.00368924
0.00408763
0.00311938
0.00351496
0.000600865
0.000676116
0.000526879
0.000596241
0.00492567
0.00455466
0.00454298
0.00415626
0.000773088
0.000697107
0.000731156
0.000654793
0.00379293
0.00335816
0.00334963
0.00284477
0.000566382
0.000465374
0.00051809
0.000405105
0.00323534
0.00323548
0.00268014
0.00268037
0.000409761
0.000409782
0.000336323
0.00033636
0.00335843
0.00379305
0.00284522
0.00334993
0.000465411
0.000566403
0.000405163
0.000518127
0.00455446
0.00492507
0.00415625
0.0045426
0.000697106
0.00077307
0.000654805
0.000731153
0.00553982
0.00519758
0.00525412
0.00489836
0.000834914
0.00076055
0.00080684
0.00073164
0.00450371
0.00414747
0.00417427
0.00378597
0.000638374
0.000550982
0.000605705
0.000512787
0.0040557
0.00405575
0.00368318
0.00368327
0.000507105
0.000507112
0.000464566
0.000464579
0.0041475
0.00450349
0.00378612
0.00417422
0.000550992
0.000638368
0.000512809
0.000605712
0.00519698
0.00553872
0.00489796
0.00525327
0.000760519
0.000834866
0.000731625
0.000806807
0.00600176
0.00568119
0.00578725
0.00545652
0.000878442
0.000805531
0.000858493
0.000784895
0.00503043
0.00471368
0.00478656
0.00445291
0.000688637
0.000607955
0.000665673
0.000582164
0.00463245
0.00463243
0.00436749
0.0043675
0.00056867
0.00056867
0.000541025
0.000541028
0.0047135
0.00502989
0.00445283
0.00478618
0.000607946
0.000688604
0.000582163
0.000665653
0.00568018
0.00600015
0.00545571
0.00578589
0.000805471
0.00087836
0.00078485
0.000858428
0.00634398
0.00603913
0.00618564
0.00587361
0.000909359
0.000837553
0.00089522
0.000822902
0.00541601
0.00512182
0.00523812
0.00493392
0.000723998
0.000647025
0.000707865
0.000629288
0.00504545
0.00504536
0.00485536
0.00485531
0.000610014
0.000610007
0.00059131
0.000591307
0.00512146
0.00541519
0.00493365
0.00523743
0.000646999
0.000723942
0.000629269
0.000707821
0.00603773
0.00634188
0.00587239
0.00618377
0.000837465
0.000909247
0.000822828
0.000895122
0.00659151
0.00629721
0.00647763
0.00617865
0.000930898
0.000859874
0.000921116
0.000849735
0.00569187
0.0054118
0.00556533
0.0052788
0.00074847
0.000673691
0.000737375
0.000661634
0.00533848
0.00533834
0.00520396
0.00520385
0.000637954
0.000637942
0.000625343
0.000625334
0.00541129
0.00569078
0.00527837
0.00556438
0.000673651
0.000748394
0.000661601
0.000737309
0.00629545
0.00658895
0.00617706
0.00647528
0.000859762
0.000930758
0.000849634
0.000920989
0.00676447
0.00647689
0.00668565
0.00639502
0.000945384
0.000874889
0.000938876
0.00086814
0.00588286
0.00561214
0.00579589
0.00552079
0.000764868
0.000691418
0.000757507
0.000683473
0.00554119
0.00554102
0.00544857
0.00544841
0.000656434
0.000656419
0.000648157
0.000648144
0.00561151
0.00588156
0.00552022
0.00579469
0.000691368
0.000764776
0.000683427
0.000757423
0.00647484
0.00676154
0.00639311
0.00668288
0.000874756
0.000945221
0.000868017
0.000938723
0.00687949
0.00659622
0.00682761
0.00654238
0.00095462
0.000884469
0.000950534
0.000880226
0.00600924
0.00574486
0.0059522
0.00568478
0.000775326
0.00070268
0.000770699
0.000697699
0.00567594
0.00567574
0.00561474
0.00561455
0.000668147
0.000668128
0.000662967
0.00066295
0.00574412
0.00600778
0.00568409
0.00595082
0.000702621
0.000775221
0.000697645
0.0007706
0.00659394
0.00687625
0.0065402
0.0068245
0.000884321
0.000954439
0.000880086
0.00095036
0.00695126
0.00667062
0.00691929
0.00663746
0.000960065
0.000890129
0.000957713
0.00088768
0.00608792
0.0058278
0.00605277
0.00579054
0.000781532
0.000709362
0.000778845
0.000706466
0.00576057
0.00576035
0.00572236
0.00572215
0.000675094
0.000675073
0.00067208
0.000672061
0.005827
0.00608634
0.00578977
0.00605125
0.000709297
0.000781418
0.000706404
0.000778735
0.00666817
0.00694779
0.00663508
0.00691591
0.00088997
0.00095987
0.000887526
0.000957524
0.00699183
0.00671271
0.00697408
0.00669425
0.000962856
0.000893047
0.000961706
0.00089184
0.00613247
0.00587515
0.00611285
0.00585407
0.000784787
0.000712889
0.000783434
0.000711417
0.00580926
0.00580901
0.00578739
0.00578716
0.000678772
0.000678751
0.000677232
0.000677211
0.00587429
0.00613081
0.00585324
0.00611123
0.000712821
0.000784668
0.00071135
0.000783317
0.00671014
0.00698821
0.00669173
0.00697051
0.000892881
0.000962653
0.000891676
0.000961506
0.00701071
0.00673249
0.00700277
0.00672407
0.000963835
0.0008941
0.000963509
0.000893737
0.00615347
0.00589791
0.00614444
0.00588789
0.000786056
0.000714313
0.000785597
0.000713783
0.00583306
0.00583281
0.00582239
0.00582214
0.000680282
0.00068026
0.000679712
0.00067969
0.00589702
0.00615175
0.00588702
0.00614275
0.000714242
0.000785933
0.000713714
0.000785475
0.00672985
0.007007
0.00672146
0.00699908
0.000893929
0.000963627
0.000893568
0.000963302
0.00701477
0.00673694
0.00701312
0.00673512
0.000963679
0.000893976
0.000963838
0.000894116
0.00615832
0.00590379
0.00615652
0.0059015
0.000786059
0.00071439
0.000786145
0.000714447
0.00583969
0.00583943
0.00583698
0.00583672
0.000680399
0.000680376
0.00068044
0.000680418
0.00590289
0.00615658
0.00590061
0.00615479
0.000714319
0.000785935
0.000714376
0.000786022
0.00673426
0.007011
0.00673246
0.00700936
0.000893804
0.00096347
0.000893944
0.000963629
0.00700916
0.00673175
0.00701221
0.00673461
0.000962718
0.000893039
0.000963251
0.000893562
0.00615329
0.00589943
0.00615607
0.00590178
0.000785225
0.000713605
0.000785711
0.000714074
0.00583592
0.00583566
0.00583787
0.00583762
0.000679641
0.000679618
0.0006801
0.000680078
0.00589852
0.00615153
0.00590088
0.00615432
0.000713534
0.000785101
0.000714003
0.000785587
0.00672906
0.00700538
0.00673192
0.00700841
0.000892866
0.000962508
0.000893389
0.00096304
0.00699718
0.00672005
0.00700305
0.00672571
0.000961258
0.00089159
0.000962014
0.000892337
0.00614135
0.00588773
0.00614701
0.00589306
0.000783854
0.000712255
0.000784567
0.000712956
0.0058246
0.00582434
0.00582958
0.00582932
0.0006783
0.000678278
0.000678993
0.000678971
0.00588683
0.00613961
0.00589216
0.00614526
0.000712185
0.000783731
0.000712885
0.000784443
0.00671736
0.0069934
0.00672302
0.00699924
0.000891418
0.000961049
0.000892165
0.000961804
0.00698089
0.00670409
0.00698872
0.00671169
0.000959448
0.00088979
0.000960365
0.000890699
0.00612504
0.00587146
0.00613268
0.00587887
0.000782124
0.000710536
0.000783002
0.000711406
0.00580858
0.00580832
0.00581569
0.00581543
0.000676584
0.000676562
0.00067745
0.000677428
0.00587056
0.0061233
0.00587797
0.00613094
0.000710466
0.000782002
0.000711336
0.000782879
0.00670142
0.00697713
0.00670901
0.00698493
0.000889619
0.00095924
0.000890528
0.000960156
0.00696144
0.00668506
0.00697075
0.00669408
0.000957366
0.000887718
0.000958413
0.000888757
0.00610556
0.00585189
0.00611467
0.00586082
0.000780122
0.000708538
0.000781129
0.00070954
0.00578918
0.00578893
0.00579786
0.0057976
0.000674585
0.000674564
0.000675585
0.000675563
0.005851
0.00610384
0.00585994
0.00611295
0.00070847
0.000780001
0.000709471
0.000781008
0.00668241
0.00695771
0.00669142
0.00696698
0.00088755
0.000957161
0.000888587
0.000958206
0.00693943
0.00666355
0.00694997
0.00667376
0.000955052
0.000885416
0.000956213
0.000886567
0.00608358
0.00582971
0.00609389
0.00583988
0.00077789
0.000706306
0.000779009
0.000707422
0.00576711
0.00576686
0.00577706
0.0057768
0.000672349
0.000672328
0.000673464
0.000673443
0.00582883
0.00608188
0.00583901
0.00609218
0.000706239
0.000777771
0.000707354
0.000778889
0.00666094
0.00693574
0.00667113
0.00694624
0.00088525
0.00095485
0.0008864
0.000956008
0.00691516
0.00663989
0.0069268
0.00665115
0.000952519
0.000882897
0.000953788
0.000884155
0.00605939
0.00580524
0.00607077
0.00581653
0.000775445
0.000703858
0.000776669
0.000705081
0.00574271
0.00574246
0.00575379
0.00575354
0.000669894
0.000669874
0.000671118
0.000671097
0.00580438
0.00605771
0.00581567
0.00606909
0.000703792
0.000775328
0.000705014
0.000776551
0.00663731
0.0069115
0.00664855
0.00692311
0.000882733
0.00095232
0.00088399
0.000953587
0.00688872
0.00661418
0.00690144
0.00662646
0.000949773
0.000880165
0.000951149
0.000881531
0.00603311
0.00577863
0.00604553
0.00579099
0.000772791
0.000701197
0.00077412
0.000702527
0.00571612
0.00571588
0.00572828
0.00572804
0.000667224
0.000667204
0.000668556
0.000668536
0.00577778
0.00603145
0.00579013
0.00604387
0.000701132
0.000772676
0.000702462
0.000774004
0.00661163
0.00688511
0.00662389
0.00689779
0.000880004
0.000949576
0.000881368
0.000950951
0.00686015
0.00658644
0.00687393
0.00659973
0.00094681
0.000877219
0.000948295
0.000878693
0.00600476
0.00574989
0.00601822
0.00576331
0.000769926
0.000698321
0.000771361
0.000699759
0.00568738
0.00568714
0.00570061
0.00570037
0.000664337
0.000664317
0.000665778
0.000665758
0.00574906
0.00600314
0.00576247
0.00601658
0.000698258
0.000769814
0.000699696
0.000771248
0.00658393
0.00685659
0.0065972
0.00687033
0.000877061
0.000946617
0.000878533
0.0009481
0.00682943
0.00655667
0.0068443
0.00657098
0.000943626
0.000874054
0.000945223
0.000875638
0.00597434
0.00571901
0.00598884
0.0057335
0.000766846
0.000695226
0.00076839
0.000696775
0.00565647
0.00565623
0.00567079
0.00567056
0.000661227
0.000661208
0.00066278
0.000662761
0.0057182
0.00597274
0.00573268
0.00598723
0.000695165
0.000766736
0.000696713
0.000768279
0.00655419
0.00682593
0.00656849
0.00684075
0.0008739
0.000943437
0.000875482
0.000945031
0.00679655
0.00652483
0.0068125
0.00654019
0.000940219
0.000870666
0.000941928
0.000872362
0.00594181
0.00568597
0.00595737
0.00570155
0.000763547
0.000691908
0.000765202
0.00069357
0.00562337
0.00562315
0.00563879
0.00563856
0.00065789
0.000657872
0.000659558
0.000659539
0.00568517
0.00594024
0.00570074
0.00595579
0.000691848
0.00076344
0.000693509
0.000765093
0.0065224
0.0067931
0.00653773
0.006809
0.000870514
0.000940033
0.000872209
0.00094174
0.00676148
0.00649092
0.00677853
0.00650732
0.000936587
0.000867052
0.000938409
0.000868862
0.00590715
0.00565074
0.00592378
0.00566742
0.000760027
0.000688363
0.000761793
0.000690138
0.00558807
0.00558785
0.0056046
0.00560437
0.000654323
0.000654305
0.000656107
0.000656089
0.00564996
0.00590561
0.00566663
0.00592223
0.000688305
0.000759922
0.00069008
0.000761687
0.00648854
0.00675809
0.00650491
0.00677509
0.000866904
0.000936405
0.000868712
0.000938224
0.00672423
0.00645493
0.00674238
0.00647238
0.00093273
0.000863213
0.000934665
0.000865136
0.00587035
0.00561331
0.00588805
0.00563109
0.000756284
0.000684589
0.000758161
0.00068648
0.00555056
0.00555034
0.0055682
0.00556798
0.000650524
0.000650507
0.000652424
0.000652407
0.00561255
0.00586884
0.00563032
0.00588654
0.000684533
0.000756183
0.000686423
0.000758059
0.00645259
0.0067209
0.00647001
0.00673899
0.000863068
0.000932552
0.000864989
0.000934484
0.00668479
0.00641683
0.00670403
0.00643534
0.000928651
0.000859146
0.000930697
0.000861183
0.00583138
0.00557366
0.00585018
0.00559256
0.000752319
0.000680588
0.000754308
0.000682593
0.00551081
0.0055106
0.00552957
0.00552936
0.000646493
0.000646477
0.00064851
0.000648493
0.00557292
0.00582991
0.00559181
0.0058487
0.000680534
0.00075222
0.000682538
0.000754208
0.00641454
0.00668152
0.00643303
0.00670071
0.000859005
0.000928478
0.000861041
0.000930521
0.00664313
0.00637659
0.00666349
0.00639618
0.000924353
0.000854854
0.000926509
0.000857004
0.00579022
0.00553175
0.00581013
0.00555179
0.000748132
0.000676358
0.000750232
0.000678477
0.00546879
0.00546858
0.0054887
0.00548849
0.00064223
0.000642214
0.000644364
0.000644348
0.00553102
0.00578879
0.00555106
0.00580868
0.000676306
0.000748037
0.000678425
0.000750135
0.00637435
0.00663993
0.00639392
0.00666024
0.000854717
0.000924184
0.000856865
0.000926337
0.00659922
0.0063342
0.00662072
0.00635487
0.000919839
0.000850349
0.000922103
0.000852603
0.00574679
0.00548748
0.00576785
0.00550872
0.000743724
0.000671897
0.000745936
0.000674133
0.00542438
0.00542419
0.00544551
0.00544531
0.00063773
0.000637715
0.000639984
0.000639969
0.00548678
0.0057454
0.00550802
0.00576644
0.000671847
0.000743632
0.000674083
0.000745842
0.00633201
0.00659609
0.00635266
0.00661754
0.000850216
0.000919674
0.000852468
0.000921935
0.00655287
0.00628944
0.00657564
0.00631136
0.000915101
0.000845625
0.000917479
0.000847994
0.00570087
0.00544059
0.00572323
0.0054632
0.000739082
0.00066719
0.000741414
0.000669553
0.00537734
0.00537715
0.00539984
0.00539965
0.00063298
0.000632966
0.000635362
0.000635347
0.00543991
0.00569952
0.00546252
0.00572187
0.000667142
0.000738994
0.000669504
0.000741324
0.00628731
0.00654981
0.0063092
0.00657253
0.000845497
0.000914942
0.000847864
0.000917316
0.00650368
0.00624184
0.00652793
0.00626525
0.00091012
0.000840647
0.000912623
0.000843148
0.00565199
0.00539063
0.00567591
0.00541486
0.000734178
0.000662209
0.000736646
0.000664714
0.00532718
0.005327
0.00535132
0.00535113
0.000627949
0.000627935
0.000630477
0.000630463
0.00538998
0.00565068
0.0054142
0.00567458
0.000662164
0.000734093
0.000664668
0.000736559
0.00623978
0.0065007
0.00626315
0.0065249
0.000840523
0.000909966
0.000843021
0.000912466
0.00645109
0.0061908
0.00647714
0.00621603
0.000904859
0.000835375
0.000907508
0.000838029
0.0055995
0.0053369
0.00562533
0.00536313
0.000728967
0.000656902
0.000731596
0.000659578
0.00527321
0.00527303
0.00529938
0.0052992
0.000622584
0.000622571
0.000625288
0.000625275
0.00533627
0.00559823
0.0053625
0.00562405
0.00065686
0.000728886
0.000659535
0.000731513
0.0061888
0.0064482
0.006214
0.00647419
0.000835256
0.00090471
0.000837907
0.000907356
0.00639424
0.00613542
0.00642256
0.00616297
0.000899256
0.000829747
0.000902086
0.000832589
0.00554242
0.00527837
0.0055707
0.00530717
0.000723373
0.000651189
0.000726205
0.000654082
0.00521437
0.00521421
0.00524314
0.00524297
0.0006168
0.000616788
0.000619727
0.000619715
0.00527777
0.00554121
0.00530656
0.00556947
0.000651149
0.000723296
0.000654041
0.000726126
0.00613349
0.00639146
0.00616101
0.00641971
0.000829633
0.000899113
0.000832473
0.00090194
0.00633191
0.00607442
0.00636317
0.00610498
0.000893217
0.000823665
0.00089628
0.00082675
0.00547941
0.00521362
0.00551087
0.00524575
0.000717285
0.000644946
0.000720381
0.000648122
0.00514923
0.00514908
0.00518138
0.00518122
0.000610468
0.000610458
0.000613689
0.000613678
0.00521306
0.00547826
0.00524517
0.00550969
0.00064491
0.000717213
0.000648084
0.000720307
0.00607258
0.00632924
0.0061031
0.00636042
0.000823557
0.000893081
0.000826639
0.00089614
0.00626239
0.00600605
0.00629751
0.00604057
0.000886603
0.000816983
0.000889975
0.00082039
0.00540863
0.00514077
0.00544425
0.00517724
0.000710546
0.000638003
0.000713991
0.000641555
0.00507589
0.00507575
0.00511242
0.00511228
0.000603409
0.0006034
0.00060702
0.000607011
0.00514025
0.00540756
0.0051767
0.00544315
0.00063797
0.000710479
0.00064152
0.000713922
0.00600431
0.00625984
0.00603879
0.00629487
0.000816881
0.000886475
0.000820285
0.000889842
0.00618343
0.00592806
0.0062236
0.00596771
0.000879227
0.000809526
0.000883007
0.000813343
0.00532777
0.00505737
0.00536879
0.00509948
0.000702949
0.000630127
0.000706853
0.000634179
0.00499188
0.00499176
0.00503412
0.00503399
0.000595379
0.000595371
0.000599512
0.000599503
0.0050569
0.00532678
0.00509899
0.00536775
0.000630099
0.000702889
0.000634148
0.00070679
0.00592644
0.00618103
0.00596603
0.00622111
0.000809432
0.000879107
0.000813246
0.000882883
0.00609209
0.00583756
0.00613887
0.00588392
0.000870835
0.000801076
0.000875159
0.000805422
0.00523372
0.00496021
0.00528181
0.00500969
0.000694209
0.000621
0.000698728
0.000625725
0.00489409
0.00489399
0.00494368
0.00494357
0.000586044
0.000586038
0.000590878
0.000590871
0.00495981
0.00523284
0.00500925
0.00528087
0.000620977
0.000694157
0.0006257
0.000698672
0.00583608
0.00608986
0.00588236
0.00613654
0.000800992
0.000870726
0.000805333
0.000875044
0.00598459
0.00573038
0.00603998
0.00578573
0.00086115
0.000791359
0.000866151
0.000796378
0.00512204
0.00484526
0.00517964
0.00490421
0.000683881
0.000610144
0.000689269
0.000615809
0.0047791
0.00477903
0.00483772
0.00483763
0.000574949
0.000574946
0.000580729
0.000580724
0.00484495
0.00512128
0.00490385
0.00517882
0.000610128
0.000683838
0.000615789
0.000689221
0.00572906
0.00598257
0.00578432
0.00603784
0.000791287
0.000861053
0.0007963
0.000866048
0.00586011
0.00559904
0.00592338
0.0056679
0.000850336
0.000779774
0.000855794
0.000785872
0.00498567
0.00470944
0.00505674
0.00477892
0.000670936
0.000596789
0.000677836
0.000603824
0.00464606
0.00464602
0.0047134
0.00471335
0.000561569
0.000561569
0.000568551
0.00056855
0.00470922
0.00498507
0.00477866
0.00505606
0.000596782
0.000670906
0.000603812
0.0006778
0.00559793
0.00585833
0.00566668
0.00592145
0.000779715
0.000850255
0.000785806
0.000855705
0.00574716
0.00541288
0.00579771
0.00551687
0.00083982
0.000759115
0.000845181
0.000771981
0.00482205
0.00456373
0.00490513
0.00463474
0.000652153
0.000580098
0.000662609
0.000588845
0.00450699
0.00450698
0.00457444
0.00457441
0.000545903
0.000545906
0.000553938
0.00055394
0.00456359
0.00482161
0.00463457
0.00490462
0.000580099
0.000652136
0.000588841
0.000662585
0.00541202
0.0057457
0.00551589
0.00579606
0.000759073
0.000839759
0.000771931
0.000845109
0.00427949
0.00375851
0.00261793
0.00227184
0.00367576
0.00321003
0.00216368
0.00187744
0.00265534
0.00171419
0.00128613
0.000477403
0.00217616
0.00128491
0.000976138
0.000341162
0.000980685
0.000981722
0.000252193
0.000252428
0.000625249
0.000626043
0.000192111
0.00019224
0.00171587
0.00265641
0.000478127
0.00128724
0.00128634
0.00217708
0.000341624
0.00097708
0.0037591
0.00427954
0.00227256
0.00261813
0.00321056
0.00367585
0.00187807
0.00216389
0.00659858
0.00599667
0.0055508
0.00496626
0.0056406
0.005095
0.00477385
0.0042447
0.00491376
0.00415788
0.00384603
0.00296036
0.00406897
0.00333523
0.00318676
0.00232719
0.0038596
0.00386002
0.00250489
0.00250565
0.00302664
0.00302707
0.00182229
0.00182308
0.00415866
0.00491428
0.00296157
0.00384687
0.00333602
0.00406952
0.00232833
0.00318754
0.0059967
0.00659803
0.00496662
0.00555059
0.00509514
0.00564024
0.00424507
0.00477374
0.00830292
0.00771348
0.00750262
0.00690309
0.00699729
0.00646588
0.00636665
0.0058244
0.00673652
0.00618206
0.00587347
0.00523141
0.00554151
0.00501121
0.0048489
0.00423027
0.00603546
0.0060356
0.0050268
0.00502705
0.00486958
0.00486976
0.00402739
0.00402767
0.00618222
0.00673629
0.00523187
0.00587363
0.0050115
0.00554151
0.00423079
0.00484919
0.00771267
0.0083014
0.00690273
0.00750161
0.00646541
0.00699621
0.00582426
0.00636595
0.00965161
0.00908675
0.00901511
0.00843801
0.00804139
0.00753533
0.00755114
0.00703257
0.00819462
0.00775361
0.00750711
0.00701746
0.00669376
0.00627558
0.00615319
0.00568749
0.00766889
0.00766883
0.0069077
0.00690774
0.00619411
0.00619414
0.00558247
0.00558256
0.00775323
0.00819358
0.00701735
0.00750649
0.00627546
0.00669316
0.00568757
0.0061529
0.00908493
0.00964889
0.00843671
0.00901299
0.00753411
0.00803941
0.00703173
0.00754961
0.0107154
0.0101715
0.0102158
0.00966206
0.00885227
0.00836688
0.00847243
0.00797763
0.00933746
0.00896086
0.00880172
0.00839694
0.00758139
0.00722475
0.00716691
0.00678359
0.00890564
0.00890541
0.00832916
0.00832901
0.00716976
0.00716966
0.00671746
0.00671742
0.00895995
0.00933558
0.00839629
0.00880026
0.00722425
0.00758019
0.00678328
0.00716602
0.0101686
0.0107114
0.00965971
0.0102124
0.00836488
0.00884933
0.00797602
0.00846995
0.0115326
0.0110046
0.0111517
0.0106163
0.00946854
0.00899793
0.00918201
0.00870458
0.0102097
0.0098719
0.00980358
0.00944839
0.00824971
0.0079295
0.00793948
0.00760299
0.00983272
0.00983231
0.00940203
0.00940171
0.00788851
0.00788829
0.00755577
0.0075556
0.00987048
0.010207
0.00944722
0.0098013
0.00792865
0.00824794
0.00760232
0.00793799
0.0110007
0.0115274
0.0106129
0.011147
0.00899517
0.00946466
0.00870219
0.00917857
0.0121392
0.0116227
0.011859
0.0113372
0.00992103
0.00946125
0.00971258
0.00924768
0.0108544
0.0105412
0.0105566
0.0102322
0.00873815
0.00844096
0.0085131
0.00820537
0.0105117
0.0105112
0.0101981
0.0101976
0.00840842
0.0084081
0.00816884
0.00816857
0.0105394
0.010851
0.0102305
0.0105536
0.0084398
0.00873588
0.00820436
0.00851107
0.0116179
0.0121328
0.0113328
0.0118531
0.00945782
0.0099163
0.00924457
0.00970823
0.0125718
0.0120636
0.0123739
0.0118619
0.0102403
0.00978839
0.0100945
0.00963897
0.0113132
0.0110163
0.0111032
0.0107986
0.00908227
0.00880019
0.00892504
0.00863588
0.0109931
0.0109924
0.0107723
0.0107717
0.00877327
0.00877286
0.00860616
0.00860579
0.011014
0.0113092
0.0107966
0.0110995
0.00879877
0.00907956
0.00863458
0.00892254
0.0120579
0.0125645
0.0118566
0.012367
0.00978438
0.0102348
0.00963523
0.0100893
0.012866
0.0123635
0.0127329
0.0122277
0.0104553
0.0100087
0.0103581
0.00990913
0.0116252
0.011339
0.0114838
0.0111924
0.00931382
0.00904175
0.00920903
0.00893214
0.0113201
0.0113193
0.0111713
0.0111706
0.00901874
0.00901826
0.00890708
0.00890664
0.0113364
0.0116207
0.01119
0.0114795
0.00904012
0.00931076
0.00893062
0.00920614
0.0123571
0.0128579
0.0122217
0.0127251
0.0100042
0.0104492
0.00990487
0.0103523
0.0130547
0.012556
0.0129705
0.01247
0.0105915
0.0101485
0.0105307
0.0100861
0.0118256
0.0115464
0.0117358
0.0114531
0.00946075
0.00919522
0.00939497
0.00912618
0.0115305
0.0115296
0.0114355
0.0114347
0.00917497
0.00917445
0.00910439
0.00910389
0.0115436
0.0118207
0.0114504
0.0117311
0.00919344
0.00945744
0.00912447
0.00939179
0.0125491
0.013046
0.0124634
0.012962
0.0101436
0.010585
0.0100814
0.0105244
0.0131659
0.0126697
0.0131172
0.0126198
0.0106705
0.0102296
0.0106359
0.010194
0.0119443
0.0116696
0.0118919
0.0116148
0.00954635
0.00928497
0.00950857
0.00924498
0.0116557
0.0116548
0.0115996
0.0115987
0.00926662
0.00926606
0.00922548
0.00922494
0.0116667
0.0119392
0.0116119
0.0118869
0.00928308
0.00954286
0.00924315
0.00950516
0.0126626
0.0131568
0.0126128
0.0131082
0.0102245
0.0106637
0.010189
0.0106292
0.0132222
0.0127279
0.0131987
0.0127033
0.010709
0.0102697
0.0106929
0.0102527
0.0120057
0.0117337
0.0119793
0.0117057
0.00958919
0.00933033
0.00957071
0.00931037
0.0117211
0.0117202
0.0116921
0.0116912
0.00931327
0.00931269
0.00929243
0.00929186
0.0117307
0.0120004
0.0117027
0.011974
0.00932837
0.00958559
0.00930845
0.00956716
0.0127205
0.0132128
0.012696
0.0131893
0.0102645
0.0107021
0.0102475
0.010686
0.0132417
0.0127482
0.013234
0.0127401
0.0107207
0.0102819
0.010716
0.010277
0.0120274
0.011757
0.0120189
0.0117477
0.00960263
0.00934515
0.00959735
0.0093392
0.0117453
0.0117443
0.0117352
0.0117343
0.00932889
0.00932829
0.00932239
0.0093218
0.0117539
0.012022
0.0117446
0.0120135
0.00934316
0.00959898
0.00933722
0.00959372
0.0127407
0.0132322
0.0127326
0.0132245
0.0102766
0.0107136
0.0102717
0.0107089
0.0132367
0.0127441
0.0132405
0.0127475
0.0107144
0.0102763
0.0107182
0.0102799
0.0120247
0.0117552
0.0120274
0.0117571
0.00959802
0.0093414
0.00960105
0.00934379
0.0117439
0.0117429
0.0117452
0.0117442
0.00932564
0.00932504
0.00932756
0.00932696
0.0117521
0.0120193
0.011754
0.0120219
0.00933939
0.00959433
0.00934179
0.00959738
0.0127366
0.0132271
0.01274
0.0132309
0.010271
0.0107073
0.0102746
0.0107111
0.0132156
0.0127236
0.0132264
0.0127341
0.0106964
0.0102587
0.0107053
0.0102674
0.0120048
0.0117356
0.0120147
0.0117449
0.00958076
0.00932439
0.0095891
0.00933223
0.0117244
0.0117234
0.0117333
0.0117323
0.00930886
0.00930826
0.00931629
0.00931569
0.0117324
0.0119993
0.0117418
0.0120092
0.00932238
0.00957708
0.00933023
0.00958542
0.0127161
0.013206
0.0127265
0.0132168
0.0102534
0.0106893
0.0102621
0.0106982
0.013184
0.0126926
0.0131996
0.0127078
0.0106707
0.0102335
0.0106831
0.0102457
0.011974
0.0117048
0.0119888
0.0117191
0.00955558
0.00929919
0.0095675
0.00931073
0.0116937
0.0116927
0.0117077
0.0117067
0.00928374
0.00928315
0.00929493
0.00929434
0.0117017
0.0119686
0.011716
0.0119834
0.00929719
0.00955192
0.00930873
0.00956383
0.0126851
0.0131744
0.0127003
0.0131899
0.0102282
0.0106636
0.0102403
0.010676
0.013145
0.0126543
0.013164
0.0126729
0.0106395
0.0102027
0.0106545
0.0102174
0.0119358
0.0116664
0.011954
0.0116843
0.00952482
0.00926823
0.00953931
0.00928242
0.0116552
0.0116543
0.0116727
0.0116718
0.00925277
0.00925218
0.00926666
0.00926607
0.0116633
0.0119304
0.0116812
0.0119486
0.00926625
0.00952119
0.00928044
0.00953567
0.0126469
0.0131356
0.0126654
0.0131544
0.0101975
0.0106326
0.0102122
0.0106475
0.0131005
0.0126104
0.0131221
0.0126316
0.0106042
0.0101678
0.0106212
0.0101845
0.0118919
0.0116222
0.0119128
0.0116428
0.00948975
0.00923284
0.00950628
0.00924914
0.0116109
0.0116099
0.0116312
0.0116302
0.00921731
0.00921673
0.00923333
0.00923274
0.0116191
0.0118866
0.0116397
0.0119074
0.00923089
0.00948616
0.00924717
0.00950268
0.012603
0.0130911
0.0126242
0.0131126
0.0101626
0.0105972
0.0101793
0.0106142
0.0130513
0.0125618
0.0130752
0.0125853
0.0105651
0.0101292
0.0105839
0.0101477
0.0118433
0.0115732
0.0118665
0.0115961
0.00945102
0.00919371
0.00946934
0.00921182
0.0115616
0.0115607
0.0115843
0.0115833
0.00917805
0.00917748
0.00919591
0.00919533
0.0115701
0.011838
0.011593
0.0118612
0.00919178
0.00944747
0.00920989
0.00946578
0.0125546
0.013042
0.012578
0.0130658
0.0101241
0.0105583
0.0101426
0.010577
0.0129977
0.012509
0.0130238
0.0125346
0.0105227
0.0100873
0.0105432
0.0101075
0.0117903
0.0115197
0.0118157
0.0115448
0.00940888
0.00915109
0.00942889
0.00917093
0.0115079
0.011507
0.0115328
0.0115318
0.00913527
0.00913471
0.00915488
0.00915431
0.0115167
0.0117851
0.0115418
0.0118104
0.00914919
0.00940539
0.00916902
0.00942538
0.0125018
0.0129885
0.0125273
0.0130145
0.0100823
0.0105159
0.0101024
0.0105363
0.0129399
0.012452
0.0129681
0.0124797
0.0104769
0.0100421
0.0104991
0.0100639
0.0117332
0.011462
0.0117606
0.0114892
0.00936342
0.00910508
0.0093851
0.00912662
0.0114499
0.011449
0.0114769
0.011476
0.00908907
0.00908851
0.00911039
0.00910983
0.011459
0.011728
0.0114862
0.0117554
0.00910321
0.00935998
0.00912474
0.00938164
0.0124449
0.0129309
0.0124725
0.0129589
0.0100371
0.0104702
0.0100589
0.0104923
0.012878
0.0123909
0.0129083
0.0124206
0.0104278
0.00999366
0.0104516
0.0100171
0.0116718
0.0114
0.0117014
0.0114294
0.00931464
0.00905567
0.00933799
0.00907892
0.0113876
0.0113867
0.0114168
0.0114159
0.00903944
0.00903889
0.00906248
0.00906193
0.0113971
0.0116668
0.0114264
0.0116963
0.00905383
0.00931125
0.00907707
0.00933458
0.0123839
0.0128691
0.0124136
0.0128992
0.00998875
0.0104212
0.0100122
0.010445
0.0128118
0.0123256
0.0128442
0.0123575
0.0103753
0.00994186
0.0104008
0.00996699
0.0116063
0.0113337
0.0116379
0.0113652
0.00926249
0.00900283
0.00928753
0.00902781
0.011321
0.0113201
0.0113523
0.0113514
0.00898635
0.00898581
0.00901113
0.00901059
0.0113308
0.0116013
0.0113623
0.0116329
0.00900102
0.00925916
0.00902599
0.00928418
0.0123187
0.012803
0.0123505
0.0128353
0.00993704
0.0103688
0.00996213
0.0103943
0.0127413
0.0122561
0.0127759
0.0122901
0.0103193
0.00988672
0.0103466
0.00991353
0.0115364
0.011263
0.0115703
0.0112968
0.00920693
0.00894651
0.00923369
0.00897325
0.0112499
0.011249
0.0112835
0.0112826
0.00892975
0.00892922
0.0089563
0.00895577
0.0112602
0.0115315
0.0112939
0.0115653
0.00894474
0.00920367
0.00897146
0.0092304
0.0122493
0.0127327
0.0122833
0.0127671
0.00988198
0.010313
0.00990875
0.0103402
0.0126665
0.0121823
0.0127032
0.0122184
0.01026
0.00982818
0.010289
0.00985671
0.0114622
0.0111879
0.0114983
0.0112239
0.00914794
0.00888668
0.00917644
0.00891519
0.0111744
0.0111735
0.0112102
0.0112094
0.0088696
0.00886909
0.00889795
0.00889743
0.0111852
0.0114574
0.0112211
0.0114934
0.00888494
0.00914473
0.00891344
0.00917321
0.0121757
0.012658
0.0122118
0.0126946
0.00982353
0.0102538
0.00985202
0.0102827
0.0125872
0.0121041
0.0126262
0.0121425
0.0101972
0.00976619
0.0102279
0.00979647
0.0113836
0.0111082
0.0114219
0.0111466
0.00908543
0.00882325
0.00911571
0.00885358
0.0110942
0.0110934
0.0111325
0.0111316
0.00880584
0.00880533
0.00883602
0.00883551
0.0111055
0.0113789
0.0111438
0.0114171
0.00882155
0.0090823
0.00885187
0.00911255
0.0120976
0.0125789
0.0121359
0.0126178
0.00976164
0.010191
0.00979187
0.0102217
0.0125033
0.0120212
0.0125447
0.012062
0.0101307
0.00970064
0.0101633
0.00973273
0.0113002
0.0110238
0.0113409
0.0110646
0.00901931
0.00875611
0.00905142
0.00878834
0.0110093
0.0110085
0.01105
0.0110491
0.00873832
0.00873783
0.00877042
0.00876992
0.0110212
0.0112956
0.0110619
0.0113363
0.00875446
0.00901624
0.00878666
0.00904833
0.0120149
0.0124952
0.0120556
0.0125364
0.00969619
0.0101248
0.00972823
0.0101572
0.0124145
0.0119335
0.0124584
0.0119767
0.0100606
0.00963139
0.0100951
0.00966536
0.0112118
0.0109342
0.0112551
0.0109776
0.00894936
0.00868502
0.00898344
0.00871928
0.0109191
0.0109182
0.0109625
0.0109616
0.00866679
0.00866631
0.00870096
0.00870047
0.0109316
0.0112073
0.010975
0.0112506
0.00868341
0.00894637
0.00871765
0.00898042