/*--------------------------------*- C++ -*----------------------------------*\
  =========                 |
  \\      /  F ield         | OpenFOAM: The Open Source CFD Toolbox
   \\    /   O peration     | Website:  https://openfoam.org
    \\  /    A nd           | Version:  9
     \\/     M anipulation  |
\*---------------------------------------------------------------------------*/
FoamFile
{
    format      ascii;
    class       surfaceScalarField;
    location    "0.7";
    object      phi;
}
// * * * * * * * * * * * * * * * * * * * * * * * * * * * * * * * * * * * * * //

dimensions      [0 3 -1 0 0 0 0];

internalField   nonuniform List<scalar> 
12376
(
4.30479e-10
0.000218401
1.38042e-07
-4.18344e-12
0.000218401
1.38491e-07
6.54325e-12
0.0002184
1.38416e-07
-4.26937e-10
0.000218401
1.38512e-07
0.000218401
1.38076e-07
-4.20644e-10
0.000218244
1.5729e-07
-3.32009e-11
0.000218244
1.56595e-07
3.70271e-11
0.000218243
1.56456e-07
4.27739e-10
0.000218244
1.56614e-07
0.000218244
1.57318e-07
-2.7073e-10
0.000218022
2.21579e-07
-2.1378e-11
0.000218022
2.21425e-07
2.4921e-11
0.000218022
2.21424e-07
2.78266e-10
0.000218022
2.2144e-07
0.000218022
2.21599e-07
-1.40852e-10
0.000217693
3.29417e-07
-3.31398e-11
0.000217692
3.29626e-07
3.51451e-11
0.000217692
3.29637e-07
1.47603e-10
0.000217692
3.29632e-07
0.000217693
3.29424e-07
-1.07871e-10
0.000217224
4.69111e-07
-7.40216e-11
0.000217223
4.69213e-07
7.4997e-11
0.000217223
4.69113e-07
1.13137e-10
0.000217223
4.69213e-07
0.000217224
4.69105e-07
-7.80479e-11
0.000216592
6.32417e-07
-8.70941e-11
0.00021659
6.32452e-07
8.64963e-11
0.00021659
6.32269e-07
8.10958e-11
0.00021659
6.32448e-07
0.000216592
6.32405e-07
-4.30481e-11
0.000215778
8.14255e-07
-9.49163e-11
0.000215776
8.14314e-07
9.32632e-11
0.000215776
8.14073e-07
4.38453e-11
0.000215776
8.14311e-07
0.000215778
8.14244e-07
-6.95223e-12
0.000214766
1.0111e-06
-1.00084e-10
0.000214765
1.0112e-06
9.79747e-11
0.000214765
1.01091e-06
5.83961e-12
0.000214765
1.0112e-06
0.000214766
1.01109e-06
3.12866e-11
0.000213545
1.22189e-06
-1.02557e-10
0.000213543
1.22204e-06
1.00646e-10
0.000213543
1.22168e-06
-3.37308e-11
0.000213543
1.22204e-06
0.000213545
1.22188e-06
7.38805e-11
0.000212098
1.44659e-06
-1.01641e-10
0.000212096
1.44679e-06
1.00519e-10
0.000212096
1.44638e-06
-7.68219e-11
0.000212096
1.44679e-06
0.000212098
1.44659e-06
1.22771e-10
0.000210411
1.68655e-06
-1.0225e-10
0.00021041
1.6868e-06
1.02005e-10
0.00021041
1.68633e-06
-1.24711e-10
0.00021041
1.6868e-06
0.000210411
1.68654e-06
1.78951e-10
0.000208468
1.94346e-06
-1.04828e-10
0.000208466
1.94378e-06
1.06697e-10
0.000208466
1.94323e-06
-1.79757e-10
0.000208466
1.94379e-06
0.000208468
1.94346e-06
2.44187e-10
0.00020625
2.21711e-06
-1.05933e-10
0.000206249
2.21751e-06
1.10061e-10
0.000206249
2.21688e-06
-2.43279e-10
0.000206249
2.21751e-06
0.00020625
2.21711e-06
3.19664e-10
0.00020374
2.51012e-06
-1.05853e-10
0.000203739
2.51062e-06
1.12e-10
0.000203739
2.50989e-06
-3.16685e-10
0.000203739
2.51062e-06
0.00020374
2.51012e-06
4.05795e-10
0.00020092
2.81935e-06
-1.04407e-10
0.00020092
2.81995e-06
1.12136e-10
0.00020092
2.81913e-06
-4.00561e-10
0.00020092
2.81995e-06
0.00020092
2.81935e-06
5.02837e-10
0.000197774
3.14576e-06
-1.01616e-10
0.000197774
3.14648e-06
1.10332e-10
0.000197774
3.14556e-06
-4.95346e-10
0.000197774
3.14648e-06
0.000197774
3.14575e-06
6.10454e-10
0.000194286
3.48718e-06
-9.74984e-11
0.000194286
3.48805e-06
1.06419e-10
0.000194287
3.48702e-06
-6.01049e-10
0.000194286
3.48805e-06
0.000194286
3.48717e-06
7.27574e-10
0.000190445
3.84032e-06
-9.21969e-11
0.000190446
3.84136e-06
1.00346e-10
0.000190446
3.84022e-06
-7.17024e-10
0.000190446
3.84136e-06
0.000190445
3.84031e-06
8.53064e-10
0.00018624
4.2037e-06
-8.58832e-11
0.000186242
4.20494e-06
9.2178e-11
0.000186243
4.20369e-06
-8.42517e-10
0.000186242
4.20494e-06
0.00018624
4.2037e-06
9.84777e-10
0.000181668
4.57097e-06
-7.85198e-11
0.00018167
4.57242e-06
8.19749e-11
0.000181671
4.57106e-06
-9.75539e-10
0.00018167
4.57242e-06
0.000181668
4.57096e-06
1.1213e-09
0.000176727
4.93975e-06
-7.00309e-11
0.00017673
4.94144e-06
7.00515e-11
0.000176731
4.93997e-06
-1.11447e-09
0.00017673
4.94144e-06
0.000176727
4.93974e-06
1.26073e-09
0.000171422
5.30421e-06
-6.01565e-11
0.000171425
5.30617e-06
5.67652e-11
0.000171426
5.30459e-06
-1.25689e-09
0.000171425
5.30617e-06
0.000171422
5.30421e-06
1.40121e-09
0.000165762
5.65873e-06
-4.85897e-11
0.000165766
5.66097e-06
4.25288e-11
0.000165767
5.6593e-06
-1.40027e-09
0.000165766
5.66098e-06
0.000165762
5.65873e-06
1.54096e-09
0.000159762
5.99801e-06
-3.51204e-11
0.000159766
6.00055e-06
2.76568e-11
0.000159768
5.99879e-06
-1.54213e-09
0.000159766
6.00055e-06
0.000159762
5.99801e-06
1.67794e-09
0.000153444
6.31655e-06
-1.95365e-11
0.000153449
6.3194e-06
1.23374e-11
0.00015345
6.31756e-06
-1.68006e-09
0.000153449
6.31941e-06
0.000153444
6.31655e-06
1.80976e-09
0.000146833
6.60876e-06
-2.15943e-12
0.000146839
6.61193e-06
-3.61397e-12
0.00014684
6.61002e-06
-1.81188e-09
0.000146839
6.61193e-06
0.000146833
6.60876e-06
1.93404e-09
0.000139961
6.87018e-06
1.65553e-11
0.000139967
6.87367e-06
-2.04173e-11
0.000139969
6.87171e-06
-1.93558e-09
0.000139967
6.87367e-06
0.000139961
6.87018e-06
2.04848e-09
0.000132863
7.09659e-06
3.62366e-11
0.000132868
7.10039e-06
-3.81948e-11
0.00013287
7.09839e-06
-2.04932e-09
0.000132868
7.10039e-06
0.000132863
7.0966e-06
2.15077e-09
0.000125576
7.28425e-06
5.62243e-11
0.000125582
7.28834e-06
-5.70498e-11
0.000125584
7.28632e-06
-2.15132e-09
0.000125582
7.28834e-06
0.000125576
7.28426e-06
2.23956e-09
0.000118142
7.43192e-06
7.62362e-11
0.000118148
7.43626e-06
-7.67536e-11
0.00011815
7.43424e-06
-2.24039e-09
0.000118148
7.43627e-06
0.000118142
7.43192e-06
2.3139e-09
0.000110601
7.53824e-06
9.59439e-11
0.000110607
7.54281e-06
-9.70364e-11
0.000110609
7.54079e-06
-2.31545e-09
0.000110607
7.54282e-06
0.000110601
7.53824e-06
2.37364e-09
0.000102995
7.60384e-06
1.15511e-10
0.000103001
7.6086e-06
-1.17227e-10
0.000103003
7.60659e-06
-2.37598e-09
0.000103001
7.6086e-06
0.000102995
7.60384e-06
2.41955e-09
9.53617e-05
7.63104e-06
1.34826e-10
9.53674e-05
7.63595e-06
-1.36972e-10
9.53693e-05
7.63397e-06
-2.42236e-09
9.53674e-05
7.63595e-06
9.53617e-05
7.63104e-06
2.45263e-09
8.77363e-05
7.62298e-06
1.54022e-10
8.77417e-05
7.62799e-06
-1.55693e-10
8.77436e-05
7.62604e-06
-2.45518e-09
8.77417e-05
7.62799e-06
8.77363e-05
7.62298e-06
2.47455e-09
8.01489e-05
7.58495e-06
1.7261e-10
8.0154e-05
7.59002e-06
-1.73319e-10
8.01558e-05
7.58812e-06
-2.47601e-09
8.0154e-05
7.59003e-06
8.01489e-05
7.58495e-06
2.48756e-09
7.2623e-05
7.52338e-06
1.90224e-10
7.26278e-05
7.52848e-06
-1.8979e-10
7.26296e-05
7.52662e-06
-2.48676e-09
7.26278e-05
7.52848e-06
7.2623e-05
7.52338e-06
2.49325e-09
6.51753e-05
7.44522e-06
2.06075e-10
6.51798e-05
7.45034e-06
-2.05989e-10
6.51815e-05
7.44852e-06
-2.48879e-09
6.51798e-05
7.45034e-06
6.51753e-05
7.44522e-06
2.48889e-09
5.78145e-05
7.35831e-06
2.20038e-10
5.78186e-05
7.3635e-06
-2.22969e-10
5.78202e-05
7.36173e-06
-2.47885e-09
5.78186e-05
7.36349e-06
5.78145e-05
7.35831e-06
2.46719e-09
7.27014e-06
5.05419e-05
2.31925e-10
7.27528e-06
5.05455e-05
-2.39798e-10
7.27355e-06
5.05472e-05
-2.4503e-09
7.27527e-06
5.05455e-05
7.27013e-06
5.05419e-05
4.21405e-10
0.000573829
3.34806e-07
-1.0357e-11
0.000573829
3.34419e-07
1.18581e-11
0.000573828
3.34313e-07
-4.19084e-10
0.000573829
3.34461e-07
0.000573829
3.34874e-07
-6.1179e-10
0.000573551
4.35808e-07
-2.11025e-11
0.00057355
4.35218e-07
2.30279e-11
0.000573549
4.35137e-07
6.15594e-10
0.00057355
4.3526e-07
0.000573551
4.35874e-07
-4.36342e-10
0.000573129
6.44208e-07
2.88545e-12
0.000573127
6.43936e-07
-1.94149e-12
0.000573127
6.44065e-07
4.39317e-10
0.000573127
6.43971e-07
0.000573129
6.44261e-07
-3.49518e-10
0.000572498
9.61322e-07
-1.85367e-11
0.000572495
9.61323e-07
1.7737e-11
0.000572495
9.61576e-07
3.50937e-10
0.000572495
9.6134e-07
0.000572497
9.61347e-07
-4.21248e-10
0.000571594
1.37348e-06
-3.52053e-11
0.000571591
1.37324e-06
3.19798e-11
0.00057159
1.37347e-06
4.20636e-10
0.000571591
1.37324e-06
0.000571593
1.37348e-06
-4.96286e-10
0.000570364
1.86288e-06
-3.85467e-11
0.00057036
1.86235e-06
3.3365e-11
0.00057036
1.86257e-06
4.93837e-10
0.00057036
1.86234e-06
0.000570363
1.86286e-06
-5.69252e-10
0.000568763
2.41497e-06
-3.84686e-11
0.00056876
2.41423e-06
3.23726e-11
0.000568759
2.41447e-06
5.65674e-10
0.00056876
2.41422e-06
0.000568763
2.41495e-06
-6.49927e-10
0.000566756
3.01874e-06
-3.7094e-11
0.000566752
3.01782e-06
3.14952e-11
0.000566752
3.01809e-06
6.4623e-10
0.000566752
3.01782e-06
0.000566756
3.01872e-06
-7.36375e-10
0.000564309
3.67029e-06
-3.3745e-11
0.000564305
3.6692e-06
2.99964e-11
0.000564304
3.6695e-06
7.33573e-10
0.000564305
3.6692e-06
0.000564309
3.67028e-06
-8.25567e-10
0.000561387
4.36907e-06
-2.83726e-11
0.000561383
4.36781e-06
2.73583e-11
0.000561382
4.36814e-06
8.24422e-10
0.000561383
4.36781e-06
0.000561387
4.36906e-06
-9.1619e-10
0.000557955
5.11924e-06
-2.12707e-11
0.000557951
5.11782e-06
2.31084e-11
0.00055795
5.11817e-06
9.17196e-10
0.000557951
5.11782e-06
0.000557955
5.11924e-06
-1.00719e-09
0.000553973
5.92669e-06
-1.23521e-11
0.000553969
5.9251e-06
1.71502e-11
0.000553968
5.92547e-06
1.01054e-09
0.000553968
5.9251e-06
0.000553973
5.92669e-06
-1.09664e-09
0.000549399
6.79185e-06
-1.92809e-12
0.000549395
6.79008e-06
9.26998e-12
0.000549395
6.79047e-06
1.10221e-09
0.000549395
6.79008e-06
0.000549399
6.79184e-06
-1.18454e-09
0.000544186
7.72433e-06
9.99714e-12
0.000544182
7.7224e-06
-7.79191e-13
0.000544182
7.7228e-06
1.19197e-09
0.000544182
7.7224e-06
0.000544186
7.72433e-06
-1.26791e-09
0.000538291
8.7162e-06
2.34225e-11
0.000538286
8.71411e-06
-1.31818e-11
0.000538286
8.71451e-06
1.27666e-09
0.000538286
8.71411e-06
0.000538291
8.7162e-06
-1.34656e-09
0.000531665
9.77247e-06
3.84231e-11
0.000531661
9.77023e-06
-2.81101e-11
0.000531661
9.77064e-06
1.35604e-09
0.000531661
9.77023e-06
0.000531665
9.77247e-06
-1.41895e-09
0.000524265
1.08887e-05
5.47628e-11
0.000524262
1.08863e-05
-4.55367e-11
0.000524262
1.08867e-05
1.4283e-09
0.000524261
1.08863e-05
0.000524265
1.08887e-05
-1.4836e-09
0.00051605
1.20568e-05
7.21009e-11
0.000516047
1.20544e-05
-6.51365e-11
0.000516047
1.20548e-05
1.49173e-09
0.000516047
1.20544e-05
0.00051605
1.20568e-05
-1.54023e-09
0.000506981
1.32749e-05
9.03417e-11
0.000506978
1.32724e-05
-8.66526e-11
0.000506978
1.32728e-05
1.54602e-09
0.000506978
1.32724e-05
0.00050698
1.32749e-05
-1.58674e-09
0.000497028
1.45252e-05
1.09436e-10
0.000497026
1.45227e-05
-1.09644e-10
0.000497026
1.45231e-05
1.5893e-09
0.000497026
1.45227e-05
0.000497028
1.45252e-05
-1.62283e-09
0.000486166
1.58027e-05
1.29533e-10
0.000486165
1.58003e-05
-1.33595e-10
0.000486166
1.58006e-05
1.62181e-09
0.000486165
1.58003e-05
0.000486166
1.58027e-05
-1.6469e-09
0.000474381
1.70911e-05
1.50711e-10
0.000474381
1.70888e-05
-1.5792e-10
0.000474382
1.70891e-05
1.64269e-09
0.000474381
1.70888e-05
0.000474381
1.70911e-05
-1.65785e-09
0.000461667
1.83743e-05
1.73095e-10
0.000461667
1.83722e-05
-1.81976e-10
0.000461669
1.83725e-05
1.65135e-09
0.000461667
1.83722e-05
0.000461667
1.83743e-05
-1.65472e-09
0.00044803
1.96367e-05
1.95991e-10
0.000448031
1.96348e-05
-2.06105e-10
0.000448033
1.96351e-05
1.64794e-09
0.000448031
1.96348e-05
0.00044803
1.96367e-05
-1.63808e-09
0.000433487
2.08613e-05
2.21216e-10
0.000433489
2.08597e-05
-2.28498e-10
0.000433491
2.086e-05
1.63147e-09
0.000433489
2.08597e-05
0.000433487
2.08613e-05
-1.60775e-09
0.000418067
2.20299e-05
2.4613e-10
0.00041807
2.20287e-05
-2.51037e-10
0.000418072
2.20289e-05
1.60253e-09
0.00041807
2.20287e-05
0.000418067
2.20299e-05
-1.56478e-09
0.000401812
2.31271e-05
2.69939e-10
0.000401816
2.31263e-05
-2.74112e-10
0.000401818
2.31265e-05
1.56167e-09
0.000401816
2.31263e-05
0.000401812
2.31271e-05
-1.51141e-09
0.000384773
2.41372e-05
2.94443e-10
0.000384778
2.41368e-05
-2.95885e-10
0.00038478
2.41371e-05
1.50886e-09
0.000384778
2.41368e-05
0.000384773
2.41372e-05
-1.44795e-09
0.000367014
2.50446e-05
3.16277e-10
0.000367019
2.50448e-05
-3.18447e-10
0.000367022
2.50451e-05
1.4465e-09
0.000367019
2.50448e-05
0.000367014
2.50447e-05
-1.37757e-09
0.000348606
2.58415e-05
3.38175e-10
0.000348612
2.58421e-05
-3.39295e-10
0.000348614
2.58424e-05
1.37532e-09
0.000348612
2.58421e-05
0.000348606
2.58415e-05
-1.3004e-09
0.000329628
2.65179e-05
3.57127e-10
0.000329634
2.6519e-05
-3.60331e-10
0.000329637
2.65193e-05
1.29846e-09
0.000329634
2.6519e-05
0.000329628
2.65179e-05
-1.21937e-09
0.000310163
2.70696e-05
3.76472e-10
0.00031017
2.70712e-05
-3.78618e-10
0.000310172
2.70715e-05
1.21647e-09
0.00031017
2.70712e-05
0.000310163
2.70696e-05
-1.13427e-09
0.000290298
2.74973e-05
3.93179e-10
0.000290305
2.74993e-05
-3.96493e-10
0.000290308
2.74996e-05
1.13258e-09
0.000290305
2.74993e-05
0.000290298
2.74973e-05
-1.04795e-09
0.000270119
2.78031e-05
4.10729e-10
0.000270126
2.78054e-05
-4.11052e-10
0.000270129
2.78057e-05
1.04647e-09
0.000270126
2.78054e-05
0.000270119
2.78031e-05
-9.59586e-10
0.000249709
2.79953e-05
4.25652e-10
0.000249717
2.79979e-05
-4.25282e-10
0.00024972
2.79982e-05
9.60536e-10
0.000249717
2.79979e-05
0.000249709
2.79953e-05
-8.72006e-10
0.000229149
2.80851e-05
4.41087e-10
0.000229156
2.80878e-05
-4.36251e-10
0.000229159
2.80881e-05
8.73201e-10
0.000229156
2.80879e-05
0.000229149
2.80851e-05
-7.83431e-10
0.000208511
2.80839e-05
4.52712e-10
0.000208518
2.80867e-05
-4.4692e-10
0.000208521
2.80869e-05
7.85286e-10
0.000208518
2.80866e-05
0.000208511
2.80839e-05
-6.86183e-10
0.000187863
2.80066e-05
4.60048e-10
0.000187872
2.8009e-05
-4.55322e-10
0.000187875
2.80092e-05
6.87568e-10
0.000187872
2.8009e-05
0.000187863
2.80066e-05
-5.61682e-10
2.78579e-05
0.000167276
4.61678e-10
2.78598e-05
0.000167286
-4.60067e-10
2.786e-05
0.000167289
5.62923e-10
2.78598e-05
0.000167286
2.78579e-05
0.000167276
4.56298e-10
0.00080993
5.3148e-07
-1.79699e-11
0.000809931
5.30503e-07
1.88634e-11
0.000809929
5.30284e-07
-4.54366e-10
0.00080993
5.30552e-07
0.00080993
5.31559e-07
-5.6672e-10
0.000809643
7.23872e-07
-2.13279e-11
0.000809642
7.23523e-07
2.22466e-11
0.000809641
7.23507e-07
5.69673e-10
0.000809642
7.23572e-07
0.000809642
7.23949e-07
-3.35979e-10
0.000809192
1.09471e-06
9.95861e-12
0.000809191
1.09447e-06
-1.04972e-11
0.00080919
1.09464e-06
3.37715e-10
0.000809191
1.09451e-06
0.000809192
1.09477e-06
-1.83995e-10
0.000808511
1.64284e-06
-1.32863e-11
0.000808509
1.64266e-06
1.04266e-11
0.000808509
1.64296e-06
1.83783e-10
0.000808509
1.64268e-06
0.000808511
1.64287e-06
-2.05829e-10
0.000807526
2.35918e-06
-3.15017e-11
0.000807524
2.35877e-06
2.67874e-11
0.000807523
2.35908e-06
2.04149e-10
0.000807523
2.35876e-06
0.000807525
2.35917e-06
-2.1351e-10
0.000806168
3.22059e-06
-3.41086e-11
0.000806166
3.21988e-06
2.86298e-11
0.000806166
3.22019e-06
2.10395e-10
0.000806166
3.21986e-06
0.000806168
3.22056e-06
-2.02761e-10
0.00080438
4.20326e-06
-3.32283e-11
0.000804378
4.20231e-06
2.81297e-11
0.000804377
4.20264e-06
1.99146e-10
0.000804377
4.20229e-06
0.00080438
4.20323e-06
-1.91893e-10
0.000802112
5.28716e-06
-3.19176e-11
0.000802109
5.286e-06
2.79774e-11
0.000802109
5.28635e-06
1.88736e-10
0.000802109
5.28599e-06
0.000802112
5.28713e-06
-1.8041e-10
0.000799318
6.46404e-06
-2.94691e-11
0.000799316
6.46268e-06
2.73728e-11
0.000799315
6.46305e-06
1.78598e-10
0.000799315
6.46267e-06
0.000799318
6.46403e-06
-1.65269e-10
0.000795955
7.73191e-06
-2.59116e-11
0.000795953
7.73036e-06
2.56968e-11
0.000795953
7.73074e-06
1.65388e-10
0.000795953
7.73035e-06
0.000795955
7.7319e-06
-1.44786e-10
0.000791977
9.09804e-06
-2.01297e-11
0.000791974
9.09629e-06
2.399e-11
0.000791974
9.09667e-06
1.47753e-10
0.000791974
9.09629e-06
0.000791977
9.09804e-06
-1.18251e-10
0.00078733
1.05737e-05
-1.36415e-11
0.000787327
1.05718e-05
2.05074e-11
0.000787327
1.05721e-05
1.23738e-10
0.000787327
1.05718e-05
0.00078733
1.05737e-05
-8.38577e-11
0.00078196
1.21613e-05
-4.8908e-12
0.000781958
1.21592e-05
1.39386e-11
0.000781958
1.21595e-05
9.13682e-11
0.000781958
1.21592e-05
0.00078196
1.21613e-05
-4.09034e-11
0.000775805
1.38803e-05
4.95311e-12
0.000775803
1.38779e-05
5.13471e-12
0.000775803
1.38783e-05
4.95338e-11
0.000775803
1.38779e-05
0.000775804
1.38802e-05
1.23367e-11
0.000768802
1.57189e-05
1.8852e-11
0.0007688
1.57165e-05
-9.05008e-12
0.000768801
1.57167e-05
-3.34351e-12
0.0007688
1.57165e-05
0.000768802
1.57189e-05
7.63034e-11
0.000760885
1.76894e-05
3.0127e-11
0.000760884
1.76868e-05
-2.12888e-11
0.000760884
1.7687e-05
-6.7839e-11
0.000760884
1.76868e-05
0.000760885
1.76894e-05
1.52149e-10
0.000751986
1.97868e-05
3.56906e-11
0.000751986
1.97841e-05
-2.83537e-11
0.000751987
1.97843e-05
-1.44654e-10
0.000751986
1.97841e-05
0.000751986
1.97868e-05
2.4023e-10
0.000742043
2.20004e-05
4.83958e-11
0.000742043
2.19977e-05
-4.29481e-11
0.000742044
2.19978e-05
-2.34487e-10
0.000742043
2.19977e-05
0.000742043
2.20004e-05
3.39821e-10
0.000730987
2.433e-05
6.25329e-11
0.000730988
2.43273e-05
-5.97535e-11
0.000730989
2.43273e-05
-3.36741e-10
0.000730988
2.43273e-05
0.000730987
2.433e-05
4.50125e-10
0.000718765
2.67472e-05
7.7386e-11
0.000718767
2.67447e-05
-7.86984e-11
0.000718768
2.67446e-05
-4.50355e-10
0.000718767
2.67447e-05
0.000718764
2.67472e-05
5.7029e-10
0.00070532
2.92465e-05
9.27209e-11
0.000705323
2.92442e-05
-9.97931e-11
0.000705325
2.9244e-05
-5.74139e-10
0.000705323
2.92442e-05
0.00070532
2.92465e-05
6.99742e-10
0.000690609
3.18014e-05
1.10807e-10
0.000690613
3.17993e-05
-1.19961e-10
0.000690615
3.1799e-05
-7.06102e-10
0.000690613
3.17993e-05
0.000690609
3.18014e-05
8.35598e-10
0.000674598
3.4385e-05
1.22909e-10
0.000674603
3.43834e-05
-1.49748e-10
0.000674605
3.4383e-05
-8.45996e-10
0.000674603
3.43834e-05
0.000674598
3.4385e-05
9.83696e-10
0.000657263
3.69708e-05
1.66317e-10
0.000657269
3.69697e-05
-1.4892e-10
0.000657271
3.69692e-05
-9.84106e-10
0.000657268
3.69697e-05
0.000657262
3.69708e-05
1.12451e-09
0.000638594
3.95287e-05
1.6478e-10
0.000638601
3.95282e-05
-1.91026e-10
0.000638604
3.95276e-05
-1.13454e-09
0.000638601
3.95282e-05
0.000638594
3.95287e-05
1.27046e-09
0.000618597
4.2025e-05
1.83678e-10
0.000618605
4.20253e-05
-2.14669e-10
0.000618608
4.20246e-05
-1.28041e-09
0.000618605
4.20253e-05
0.000618597
4.20251e-05
1.42096e-09
0.000597293
4.443e-05
2.34596e-10
0.000597302
4.4431e-05
-2.05259e-10
0.000597305
4.44303e-05
-1.41692e-09
0.000597302
4.4431e-05
0.000597293
4.443e-05
1.55158e-09
0.000574717
4.67114e-05
2.19668e-10
0.000574727
4.67133e-05
-2.59645e-10
0.00057473
4.67125e-05
-1.5611e-09
0.000574727
4.67133e-05
0.000574717
4.67114e-05
1.6886e-09
0.000550925
4.88358e-05
2.78045e-10
0.000550934
4.88386e-05
-2.4362e-10
0.000550938
4.88378e-05
-1.68375e-09
0.000550934
4.88386e-05
0.000550924
4.88358e-05
1.7994e-09
0.000525982
5.07823e-05
2.53762e-10
0.000525992
5.0786e-05
-3.02525e-10
0.000525996
5.07852e-05
-1.81082e-09
0.000525992
5.0786e-05
0.000525982
5.07823e-05
1.91523e-09
0.000499973
5.25248e-05
3.1861e-10
0.000499983
5.25293e-05
-2.77621e-10
0.000499987
5.25285e-05
-1.90991e-09
0.000499983
5.25293e-05
0.000499973
5.25248e-05
1.99993e-09
0.000472994
5.40464e-05
2.83126e-10
0.000473004
5.40517e-05
-3.41257e-10
0.000473008
5.40509e-05
-2.01249e-09
0.000473004
5.40517e-05
0.000472994
5.40464e-05
2.09122e-09
0.000445152
5.53379e-05
3.56751e-10
0.000445162
5.5344e-05
-3.03457e-10
0.000445165
5.53432e-05
-2.08264e-09
0.000445162
5.5344e-05
0.000445152
5.53379e-05
2.14824e-09
0.000416561
5.63919e-05
3.09874e-10
0.00041657
5.63985e-05
-3.73271e-10
0.000416574
5.63978e-05
-2.15859e-09
0.00041657
5.63985e-05
0.000416561
5.63919e-05
2.21477e-09
0.000387342
5.72122e-05
3.90928e-10
0.000387351
5.72193e-05
-3.20798e-10
0.000387354
5.72186e-05
-2.19999e-09
0.000387351
5.72193e-05
0.000387342
5.72122e-05
2.24605e-09
0.000357617
5.78073e-05
3.39535e-10
0.000357626
5.78147e-05
-3.90221e-10
0.000357629
5.78139e-05
-2.25191e-09
0.000357626
5.78147e-05
0.000357617
5.78073e-05
2.28059e-09
0.000327513
5.81858e-05
3.75134e-10
0.000327521
5.81933e-05
-3.63028e-10
0.000327524
5.81926e-05
-2.27562e-09
0.000327521
5.81933e-05
0.000327513
5.81858e-05
2.295e-09
0.000297153
5.83641e-05
3.86024e-10
0.00029716
5.83716e-05
-3.6408e-10
0.000297163
5.83708e-05
-2.28733e-09
0.00029716
5.83716e-05
0.000297153
5.83641e-05
2.2791e-09
5.83447e-05
0.000266664
3.79127e-10
5.8352e-05
0.00026667
-3.76637e-10
5.83512e-05
0.000266673
-2.27566e-09
5.8352e-05
0.00026667
5.83447e-05
0.000266664
4.30198e-10
0.000939893
7.10798e-07
-2.2756e-11
0.000939894
7.09269e-07
2.32089e-11
0.000939893
7.08909e-07
-4.28512e-10
0.000939894
7.09313e-07
0.000939893
7.10869e-07
-5.49011e-10
0.000939636
9.81503e-07
-2.64304e-11
0.000939635
9.81379e-07
2.67596e-11
0.000939635
9.81416e-07
5.514e-10
0.000939635
9.81421e-07
0.000939636
9.81569e-07
-3.22508e-10
0.000939232
1.49933e-06
5.81081e-12
0.00093923
1.49923e-06
-7.24838e-12
0.00093923
1.49945e-06
3.23343e-10
0.00093923
1.49926e-06
0.000939232
1.49938e-06
-1.64344e-10
0.000938615
2.25959e-06
-1.95298e-11
0.000938614
2.25927e-06
1.55118e-11
0.000938613
2.2596e-06
1.62873e-10
0.000938613
2.25928e-06
0.000938615
2.2596e-06
-1.97984e-10
0.000937715
3.25971e-06
-3.81559e-11
0.000937713
3.25914e-06
3.16141e-11
0.000937713
3.25952e-06
1.94708e-10
0.000937713
3.25913e-06
0.000937715
3.25969e-06
-2.21786e-10
0.00093646
4.47527e-06
-4.47486e-11
0.000936458
4.4744e-06
3.65483e-11
0.000936458
4.4748e-06
2.169e-10
0.000936458
4.47437e-06
0.00093646
4.47522e-06
-2.26362e-10
0.000934788
5.87538e-06
-4.7445e-11
0.000934786
5.87423e-06
3.9341e-11
0.000934786
5.87465e-06
2.21123e-10
0.000934786
5.8742e-06
0.000934788
5.87534e-06
-2.33266e-10
0.000932644
7.43145e-06
-4.97266e-11
0.000932642
7.43004e-06
4.37022e-11
0.000932642
7.43048e-06
2.29173e-10
0.000932642
7.43002e-06
0.000932644
7.43142e-06
-2.42706e-10
0.000929978
9.13036e-06
-5.07514e-11
0.000929976
9.12869e-06
4.83817e-11
0.000929975
9.12915e-06
2.41034e-10
0.000929976
9.12868e-06
0.000929978
9.13034e-06
-2.51663e-10
0.000926742
1.09681e-05
-5.05415e-11
0.00092674
1.09662e-05
5.23213e-11
0.000926739
1.09667e-05
2.53047e-10
0.000926739
1.09662e-05
0.000926742
1.09681e-05
-2.59565e-10
0.000922886
1.29548e-05
-4.97874e-11
0.000922883
1.29526e-05
5.4993e-11
0.000922883
1.29531e-05
2.63914e-10
0.000922883
1.29526e-05
0.000922886
1.29548e-05
-2.6617e-10
0.000918352
1.51076e-05
-4.88436e-11
0.000918349
1.51051e-05
5.62389e-11
0.000918349
1.51056e-05
2.72755e-10
0.000918349
1.51051e-05
0.000918352
1.51075e-05
-2.70676e-10
0.000913082
1.74317e-05
-4.7928e-11
0.000913079
1.7429e-05
5.59956e-11
0.000913079
1.74295e-05
2.78428e-10
0.000913079
1.7429e-05
0.000913082
1.74317e-05
-2.72967e-10
0.000907005
1.99579e-05
-4.68311e-11
0.000907002
1.9955e-05
5.44139e-11
0.000907002
1.99554e-05
2.80862e-10
0.000907002
1.9955e-05
0.000907005
1.99579e-05
-2.71847e-10
0.000900051
2.2673e-05
-4.51127e-11
0.000900048
2.26698e-05
5.16871e-11
0.000900049
2.26701e-05
2.79144e-10
0.000900048
2.26698e-05
0.000900051
2.2673e-05
-2.67432e-10
0.000892142
2.5598e-05
-4.23969e-11
0.00089214
2.55946e-05
4.8093e-11
0.000892141
2.55949e-05
2.73781e-10
0.00089214
2.55946e-05
0.000892142
2.5598e-05
-2.5912e-10
0.000883199
2.87306e-05
-3.84932e-11
0.000883197
2.87271e-05
4.39959e-11
0.000883197
2.87273e-05
2.6432e-10
0.000883197
2.87271e-05
0.000883199
2.87306e-05
-2.46397e-10
0.00087314
3.20597e-05
-3.38544e-11
0.000873138
3.20561e-05
3.84777e-11
0.000873139
3.20561e-05
2.49729e-10
0.000873138
3.20561e-05
0.00087314
3.20597e-05
-2.29077e-10
0.00086188
3.55901e-05
-2.89571e-11
0.000861879
3.55864e-05
2.83636e-11
0.00086188
3.55864e-05
2.29227e-10
0.000861879
3.55864e-05
0.00086188
3.55901e-05
-2.05247e-10
0.000849342
3.92855e-05
-1.89251e-11
0.000849342
3.92819e-05
1.67713e-11
0.000849343
3.92818e-05
2.03192e-10
0.000849342
3.92819e-05
0.000849342
3.92855e-05
-1.75185e-10
0.000835446
4.31428e-05
-6.93838e-12
0.000835446
4.31394e-05
3.93439e-12
0.000835447
4.31391e-05
1.71642e-10
0.000835446
4.31394e-05
0.000835446
4.31428e-05
-1.38543e-10
0.000820119
4.7128e-05
7.12191e-12
0.00082012
4.71249e-05
-1.00838e-11
0.000820122
4.71245e-05
1.34461e-10
0.00082012
4.71249e-05
0.000820119
4.7128e-05
-9.5426e-11
0.000803298
5.12058e-05
2.31623e-11
0.000803301
5.12031e-05
-2.51509e-11
0.000803302
5.12027e-05
9.16684e-11
0.000803301
5.12031e-05
0.000803298
5.12058e-05
-4.59056e-11
0.000784929
5.53405e-05
4.24436e-11
0.000784932
5.53384e-05
-4.20392e-11
0.000784934
5.53378e-05
4.38845e-11
0.000784932
5.53384e-05
0.000784929
5.53405e-05
8.10117e-12
0.000764968
5.94899e-05
7.28174e-11
0.000764972
5.94884e-05
-6.85509e-11
0.000764974
5.94878e-05
-9.58677e-12
0.000764972
5.94884e-05
0.000764968
5.94899e-05
6.5864e-11
0.000743388
6.36048e-05
1.01336e-10
0.000743393
6.36042e-05
-9.7543e-11
0.000743395
6.36035e-05
-6.69474e-11
0.000743393
6.36042e-05
0.000743388
6.36048e-05
1.25845e-10
0.000720178
6.764e-05
1.28862e-10
0.000720183
6.76403e-05
-1.27314e-10
0.000720186
6.76396e-05
-1.26535e-10
0.000720183
6.76403e-05
0.000720178
6.764e-05
1.85727e-10
0.000695344
7.15446e-05
1.57898e-10
0.000695351
7.1546e-05
-1.566e-10
0.000695354
7.15453e-05
-1.87679e-10
0.000695351
7.1546e-05
0.000695344
7.15446e-05
2.45829e-10
0.000668916
7.52634e-05
1.86385e-10
0.000668923
7.52659e-05
-1.87118e-10
0.000668926
7.52653e-05
-2.47622e-10
0.000668923
7.52659e-05
0.000668916
7.52634e-05
3.03812e-10
0.00064094
7.87579e-05
2.16914e-10
0.000640948
7.87615e-05
-2.16593e-10
0.000640951
7.87609e-05
-3.06274e-10
0.000640948
7.87615e-05
0.00064094
7.87579e-05
3.60193e-10
0.000611486
8.19792e-05
2.46786e-10
0.000611494
8.1984e-05
-2.46632e-10
0.000611497
8.19835e-05
-3.61039e-10
0.000611493
8.1984e-05
0.000611486
8.19793e-05
4.12508e-10
0.000580641
8.48904e-05
2.78249e-10
0.000580649
8.48962e-05
-2.7469e-10
0.000580652
8.48958e-05
-4.12378e-10
0.000580649
8.48962e-05
0.000580641
8.48904e-05
4.61509e-10
0.000548514
8.74646e-05
3.07829e-10
0.000548522
8.74712e-05
-3.02768e-10
0.000548525
8.7471e-05
-4.58061e-10
0.000548522
8.74713e-05
0.000548514
8.74646e-05
5.04556e-10
0.00051523
8.96756e-05
3.37562e-10
0.000515238
8.96831e-05
-3.28246e-10
0.000515241
8.96829e-05
-4.99456e-10
0.000515238
8.96831e-05
0.00051523
8.96756e-05
5.42938e-10
0.000480927
9.15144e-05
3.63614e-10
0.000480935
9.15225e-05
-3.53507e-10
0.000480938
9.15224e-05
-5.34991e-10
0.000480935
9.15225e-05
0.000480927
9.15144e-05
5.74488e-10
0.000445755
9.29785e-05
3.88258e-10
0.000445762
9.2987e-05
-3.75722e-10
0.000445765
9.2987e-05
-5.66927e-10
0.000445762
9.2987e-05
0.000445755
9.29785e-05
6.00652e-10
0.000409874
9.40663e-05
4.08586e-10
0.000409881
9.40749e-05
-3.96892e-10
0.000409884
9.4075e-05
-5.93142e-10
0.000409881
9.40749e-05
0.000409874
9.40663e-05
6.23315e-10
0.000373447
9.47907e-05
4.25607e-10
0.000373454
9.47993e-05
-4.14446e-10
0.000373456
9.47993e-05
-6.1646e-10
0.000373454
9.47993e-05
0.000373447
9.47906e-05
6.51499e-10
9.51457e-05
0.000336645
4.37359e-10
9.51538e-05
0.000336652
-4.25181e-10
9.51537e-05
0.000336654
-6.45018e-10
9.51537e-05
0.000336652
9.51457e-05
0.000336645
3.88623e-10
0.00100083
8.6696e-07
-2.23034e-11
0.00100083
8.64969e-07
2.25005e-11
0.00100083
8.64468e-07
-3.87194e-10
0.00100083
8.65003e-07
0.00100083
8.67015e-07
-4.88278e-10
0.00100061
1.19996e-06
-2.61107e-11
0.00100061
1.2e-06
2.59873e-11
0.00100061
1.20006e-06
4.90058e-10
0.00100061
1.20003e-06
0.00100061
1.20001e-06
-2.74258e-10
0.00100027
1.83965e-06
4.51847e-12
0.00100027
1.83973e-06
-6.73552e-12
0.00100027
1.83999e-06
2.74131e-10
0.00100027
1.83975e-06
0.00100027
1.83967e-06
-1.14449e-10
0.000999747
2.77998e-06
-1.85096e-11
0.000999746
2.77966e-06
1.3063e-11
0.000999746
2.77998e-06
1.12203e-10
0.000999746
2.77966e-06
0.000999747
2.77998e-06
-1.43083e-10
0.000998982
4.02505e-06
-3.76293e-11
0.000998981
4.02444e-06
3.00445e-11
0.00099898
4.02483e-06
1.38353e-10
0.00099898
4.02442e-06
0.000998982
4.02502e-06
-1.65256e-10
0.000997906
5.55123e-06
-4.45591e-11
0.000997904
5.55033e-06
3.65802e-11
0.000997904
5.55076e-06
1.59467e-10
0.000997904
5.5503e-06
0.000997906
5.55118e-06
-1.68137e-10
0.000996459
7.32287e-06
-4.83744e-11
0.000996457
7.32166e-06
4.19816e-11
0.000996457
7.32211e-06
1.62749e-10
0.000996457
7.32163e-06
0.000996459
7.32282e-06
-1.73459e-10
0.000994586
9.30436e-06
-5.43918e-11
0.000994584
9.30285e-06
5.1122e-11
0.000994584
9.30331e-06
1.69895e-10
0.000994584
9.30282e-06
0.000994586
9.30431e-06
-1.81795e-10
0.000992239
1.14783e-05
-5.59685e-11
0.000992236
1.14765e-05
5.6251e-11
0.000992236
1.1477e-05
1.81021e-10
0.000992236
1.14765e-05
0.000992238
1.14783e-05
-1.89904e-10
0.000989368
1.38389e-05
-5.36759e-11
0.000989365
1.38368e-05
5.70606e-11
0.000989365
1.38373e-05
1.92309e-10
0.000989365
1.38368e-05
0.000989368
1.38389e-05
-1.97378e-10
0.000985924
1.63991e-05
-5.07747e-11
0.000985921
1.63967e-05
5.67369e-11
0.000985921
1.63972e-05
2.0263e-10
0.000985921
1.63967e-05
0.000985924
1.63991e-05
-2.04221e-10
0.00098185
1.91819e-05
-4.85234e-11
0.000981847
1.91792e-05
5.59588e-11
0.000981847
1.91797e-05
2.11316e-10
0.000981847
1.91792e-05
0.00098185
1.91819e-05
-2.09881e-10
0.000977085
2.21966e-05
-4.68233e-11
0.000977082
2.21936e-05
5.41845e-11
0.000977082
2.2194e-05
2.17497e-10
0.000977082
2.21936e-05
0.000977085
2.21966e-05
-2.14296e-10
0.000971558
2.54854e-05
-4.53655e-11
0.000971555
2.54821e-05
5.13666e-11
0.000971555
2.54825e-05
2.21265e-10
0.000971555
2.54821e-05
0.000971558
2.54854e-05
-2.16219e-10
0.000965195
2.90358e-05
-4.35835e-11
0.000965192
2.90321e-05
4.76686e-11
0.000965192
2.90325e-05
2.21824e-10
0.000965192
2.90321e-05
0.000965195
2.90358e-05
-2.15315e-10
0.000957914
3.28794e-05
-4.0956e-11
0.000957911
3.28755e-05
4.33906e-11
0.000957911
3.28758e-05
2.19352e-10
0.000957911
3.28755e-05
0.000957914
3.28794e-05
-2.10599e-10
0.000949626
3.70187e-05
-3.72135e-11
0.000949624
3.70145e-05
3.86294e-11
0.000949624
3.70147e-05
2.13036e-10
0.000949623
3.70145e-05
0.000949626
3.70187e-05
-2.0133e-10
0.000940241
4.14451e-05
-3.38615e-11
0.000940239
4.14407e-05
3.1982e-11
0.000940239
4.14408e-05
2.01536e-10
0.000940239
4.14407e-05
0.000940241
4.14451e-05
-1.85905e-10
0.00092966
4.61711e-05