/*--------------------------------*- C++ -*----------------------------------*\
  =========                 |
  \\      /  F ield         | OpenFOAM: The Open Source CFD Toolbox
   \\    /   O peration     | Website:  https://openfoam.org
    \\  /    A nd           | Version:  9
     \\/     M anipulation  |
\*---------------------------------------------------------------------------*/
FoamFile
{
    format      ascii;
    class       volVectorField;
    location    "0.7";
    object      U;
}
// * * * * * * * * * * * * * * * * * * * * * * * * * * * * * * * * * * * * * //

dimensions      [0 1 -1 0 0 0 0];

internalField   nonuniform List<vector> 
4545
(
(2.39076e-05 -0.103805 -0.968348)
(2.38408e-05 -0.103804 6.4977e-08)
(2.38108e-05 -0.103804 3.61876e-10)
(2.3845e-05 -0.103804 -6.40751e-08)
(2.39142e-05 -0.103805 0.968348)
(2.38018e-05 -0.103709 -0.96142)
(2.33008e-05 -0.103707 -7.05922e-08)
(2.3225e-05 -0.103707 5.98432e-10)
(2.33042e-05 -0.103707 7.22937e-08)
(2.38067e-05 -0.103709 0.96142)
(3.19504e-05 -0.103621 -0.960804)
(3.14548e-05 -0.103621 -4.63432e-08)
(3.1404e-05 -0.103621 5.65211e-10)
(3.14571e-05 -0.103621 4.81035e-08)
(3.19534e-05 -0.103621 0.960804)
(4.82538e-05 -0.103495 -0.960174)
(4.76359e-05 -0.103496 -2.94055e-08)
(4.75627e-05 -0.103496 3.77981e-10)
(4.76367e-05 -0.103496 3.08757e-08)
(4.82541e-05 -0.103495 0.960174)
(6.96414e-05 -0.103309 -0.95954)
(6.87017e-05 -0.103309 -2.72607e-08)
(6.85622e-05 -0.103309 -1.8156e-11)
(6.87013e-05 -0.103309 2.81114e-08)
(6.96395e-05 -0.103309 0.95954)
(9.47483e-05 -0.10305 -0.95889)
(9.34483e-05 -0.10305 -2.4569e-08)
(9.32464e-05 -0.10305 -3.72247e-10)
(9.34475e-05 -0.10305 2.47097e-08)
(9.47455e-05 -0.10305 0.95889)
(0.000122996 -0.102708 -0.958231)
(0.000121316 -0.102709 -2.05663e-08)
(0.000121053 -0.102708 -5.90992e-10)
(0.000121315 -0.102709 2.01122e-08)
(0.000122994 -0.102708 0.958231)
(0.000154074 -0.102277 -0.957561)
(0.000151975 -0.102277 -1.60578e-08)
(0.000151648 -0.102277 -6.03339e-10)
(0.000151975 -0.102277 1.52597e-08)
(0.000154073 -0.102277 0.957561)
(0.000187962 -0.101748 -0.956883)
(0.000185401 -0.101749 -1.07851e-08)
(0.000185002 -0.101749 -4.13136e-10)
(0.000185401 -0.101749 9.9355e-09)
(0.000187961 -0.101748 0.956883)
(0.000224858 -0.101117 -0.956191)
(0.000221792 -0.101117 -4.32671e-09)
(0.000221316 -0.101117 -1.40714e-10)
(0.000221792 -0.101117 3.65014e-09)
(0.000224857 -0.101117 0.956191)
(0.000265049 -0.100375 -0.955487)
(0.000261431 -0.100375 3.70021e-09)
(0.000260869 -0.100375 -4.5748e-11)
(0.000261431 -0.100375 -4.10656e-09)
(0.000265048 -0.100375 0.955487)
(0.000308815 -0.0995153 -0.954774)
(0.000304593 -0.0995156 1.39294e-08)
(0.000303935 -0.0995156 3.56314e-10)
(0.000304593 -0.0995155 -1.37259e-08)
(0.000308814 -0.0995152 0.954774)
(0.000356351 -0.0985297 -0.954044)
(0.000351472 -0.09853 2.66114e-08)
(0.000350709 -0.0985301 8.0306e-10)
(0.000351473 -0.09853 -2.56327e-08)
(0.00035635 -0.0985296 0.954044)
(0.000407748 -0.0974096 -0.953313)
(0.000402157 -0.0974101 4.20305e-08)
(0.000401279 -0.0974102 1.21914e-09)
(0.000402158 -0.0974101 -4.02241e-08)
(0.000407747 -0.0974096 0.953313)
(0.000462957 -0.0961464 -0.952559)
(0.0004566 -0.096147 6.04987e-08)
(0.000455596 -0.0961472 1.56383e-09)
(0.0004566 -0.096147 -5.78822e-08)
(0.000462957 -0.0961464 0.952559)
(0.000521765 -0.0947321 -0.951795)
(0.000514587 -0.0947329 8.21945e-08)
(0.000513449 -0.0947331 1.79885e-09)
(0.000514587 -0.0947329 -7.88588e-08)
(0.000521764 -0.0947321 0.951795)
(0.000583813 -0.0931591 -0.95102)
(0.000575765 -0.0931601 1.07221e-07)
(0.000574484 -0.0931603 1.87776e-09)
(0.000575765 -0.0931601 -1.03375e-07)
(0.000583811 -0.0931591 0.95102)
(0.000648561 -0.0914208 -0.950228)
(0.000639599 -0.0914219 1.35519e-07)
(0.000638167 -0.0914222 1.74994e-09)
(0.000639599 -0.0914219 -1.31517e-07)
(0.000648559 -0.0914208 0.950228)
(0.000715302 -0.089512 -0.949426)
(0.00070539 -0.0895133 1.66909e-07)
(0.0007038 -0.0895137 1.37854e-09)
(0.00070539 -0.0895133 -1.63234e-07)
(0.0007153 -0.089512 0.949426)
(0.000783152 -0.0874292 -0.948603)
(0.000772263 -0.0874307 2.01171e-07)
(0.000770509 -0.0874311 7.719e-10)
(0.000772263 -0.0874307 -1.98348e-07)
(0.00078315 -0.0874292 0.948603)
(0.000851067 -0.0851711 -0.947767)
(0.000839185 -0.0851727 2.38047e-07)
(0.000837264 -0.0851732 4.69229e-12)
(0.000839185 -0.0851727 -2.36496e-07)
(0.000851065 -0.0851711 0.947767)
(0.000917875 -0.0827382 -0.946914)
(0.000904998 -0.08274 2.77311e-07)
(0.000902908 -0.0827406 -7.88179e-10)
(0.000904998 -0.08274 -2.77212e-07)
(0.000917874 -0.0827382 0.946914)
(0.000982292 -0.0801338 -0.946041)
(0.000968431 -0.0801358 3.18714e-07)
(0.000966173 -0.0801365 -1.43684e-09)
(0.000968431 -0.0801358 -3.19929e-07)
(0.000982292 -0.0801339 0.946041)
(0.00104297 -0.0773641 -0.945147)
(0.00102815 -0.0773662 3.61944e-07)
(0.00102573 -0.0773669 -1.80479e-09)
(0.00102815 -0.0773662 -3.64028e-07)
(0.00104297 -0.0773641 0.945147)
(0.00109857 -0.0744373 -0.944232)
(0.00108283 -0.0744396 4.06613e-07)
(0.00108025 -0.0744403 -1.77562e-09)
(0.00108283 -0.0744396 -4.08908e-07)
(0.00109857 -0.0744373 0.944232)
(0.00114777 -0.0713648 -0.943292)
(0.00113116 -0.0713672 4.52096e-07)
(0.00112843 -0.071368 -1.45248e-09)
(0.00113117 -0.0713672 -4.54079e-07)
(0.00114777 -0.0713648 0.943292)
(0.00118939 -0.0681602 -0.942327)
(0.00117199 -0.0681626 4.97645e-07)
(0.00116912 -0.0681634 -9.91024e-10)
(0.00117199 -0.0681626 -4.99028e-07)
(0.00118939 -0.0681602 0.942327)
(0.00122243 -0.0648391 -0.941334)
(0.00120431 -0.0648415 5.42518e-07)
(0.00120131 -0.0648424 -5.12517e-10)
(0.00120431 -0.0648415 -5.43249e-07)
(0.00122243 -0.0648391 0.941334)
(0.00124611 -0.0614192 -0.940309)
(0.00122736 -0.0614215 5.85879e-07)
(0.00122426 -0.0614224 -2.204e-10)
(0.00122737 -0.0614215 -5.86244e-07)
(0.00124612 -0.0614192 0.940309)
(0.00126 -0.0579192 -0.939253)
(0.00124071 -0.0579215 6.27076e-07)
(0.00123751 -0.0579224 -1.40908e-10)
(0.00124072 -0.0579215 -6.27442e-07)
(0.00126001 -0.0579192 0.939253)
(0.001264 -0.0543586 -0.93816)
(0.00124426 -0.0543609 6.65622e-07)
(0.00124098 -0.0543618 -3.03451e-10)
(0.00124426 -0.0543609 -6.66356e-07)
(0.001264 -0.0543586 0.93816)
(0.00125841 -0.0507572 -0.937028)
(0.00123833 -0.0507593 7.01321e-07)
(0.00123498 -0.0507602 -4.86035e-10)
(0.00123833 -0.0507593 -7.02464e-07)
(0.00125842 -0.0507572 0.937028)
(0.00124402 -0.0471337 -0.935855)
(0.00122367 -0.0471357 7.34114e-07)
(0.00122028 -0.0471366 -6.20295e-10)
(0.00122367 -0.0471357 -7.35539e-07)
(0.00124402 -0.0471337 0.935855)
(0.00122211 -0.043506 -0.934637)
(0.00120158 -0.0435078 7.64162e-07)
(0.00119815 -0.0435088 -4.92748e-10)
(0.00120158 -0.0435079 -7.65403e-07)
(0.00122211 -0.043506 0.934637)
(0.00119452 -0.0398895 -0.933372)
(0.0011739 -0.0398913 7.91596e-07)
(0.00117045 -0.0398922 -2.13089e-10)
(0.0011739 -0.0398913 -7.92244e-07)
(0.00119452 -0.0398896 0.933372)
(0.00116374 -0.0362973 -0.932057)
(0.0011431 -0.036299 8.16788e-07)
(0.00113965 -0.0362999 1.33024e-10)
(0.0011431 -0.036299 -8.16411e-07)
(0.00116374 -0.0362973 0.932057)
(0.00113283 -0.032739 -0.930687)
(0.00111226 -0.0327406 8.39873e-07)
(0.00110881 -0.0327414 2.6741e-11)
(0.00111226 -0.0327406 -8.3846e-07)
(0.00113283 -0.032739 0.930687)
(0.0011051 -0.0292208 -0.929263)
(0.00108472 -0.0292223 8.59738e-07)
(0.00108131 -0.0292231 -9.35072e-10)
(0.00108472 -0.0292223 -8.57488e-07)
(0.0011051 -0.0292208 0.929263)
(0.00108325 -0.0257441 -0.92647)
(0.00106326 -0.0257456 8.73799e-07)
(0.0010599 -0.0257464 -2.56246e-09)
(0.00106326 -0.0257456 -8.70897e-07)
(0.00108324 -0.0257441 0.92647)
(9.21084e-05 -0.272662 -0.977746)
(9.21418e-05 -0.272661 6.26435e-08)
(9.21145e-05 -0.272661 2.30185e-10)
(9.21556e-05 -0.272661 -6.20596e-08)
(9.21307e-05 -0.272662 0.977746)
(0.000114683 -0.272519 -0.968161)
(0.000114283 -0.272516 -9.84146e-08)
(0.000114224 -0.272515 3.01139e-10)
(0.000114296 -0.272516 9.93071e-08)
(0.000114703 -0.272519 0.968161)
(0.000168074 -0.272354 -0.967539)
(0.00016784 -0.272354 -6.8733e-08)
(0.000167862 -0.272354 1.5059e-10)
(0.000167851 -0.272354 6.93552e-08)
(0.00016809 -0.272354 0.967539)
(0.000254567 -0.272114 -0.966904)
(0.000254444 -0.272114 -5.95627e-08)
(0.000254499 -0.272114 -1.30153e-10)
(0.000254449 -0.272114 5.96621e-08)
(0.000254574 -0.272114 0.966904)
(0.000369289 -0.271757 -0.966264)
(0.000369016 -0.271757 -7.53389e-08)
(0.000369034 -0.271757 -5.35331e-10)
(0.000369015 -0.271757 7.47025e-08)
(0.000369287 -0.271757 0.966264)
(0.00050803 -0.271256 -0.965609)
(0.000507591 -0.271256 -9.00509e-08)
(0.000507582 -0.271255 -8.7731e-10)
(0.000507588 -0.271256 8.87613e-08)
(0.000508023 -0.271256 0.965609)
(0.000667746 -0.270589 -0.964944)
(0.000667176 -0.270589 -1.04364e-07)
(0.000667157 -0.270588 -1.05276e-09)
(0.000667174 -0.270588 1.02697e-07)
(0.000667738 -0.270589 0.964944)
(0.000846677 -0.269737 -0.964268)
(0.00084598 -0.269736 -1.20339e-07)
(0.000845953 -0.269736 -9.86257e-10)
(0.000845979 -0.269736 1.18705e-07)
(0.000846673 -0.269737 0.964268)
(0.00104471 -0.268684 -0.963585)
(0.00104387 -0.268683 -1.37565e-07)
(0.00104384 -0.268683 -6.73459e-10)
(0.00104387 -0.268683 1.36391e-07)
(0.00104471 -0.268684 0.963585)
(0.00126312 -0.267414 -0.962887)
(0.00126213 -0.267413 -1.55588e-07)
(0.00126209 -0.267413 -1.85876e-10)
(0.00126213 -0.267413 1.55193e-07)
(0.00126312 -0.267414 0.962887)
(0.00150398 -0.26591 -0.962177)
(0.00150283 -0.265909 -1.74223e-07)
(0.00150278 -0.265909 3.43513e-10)
(0.00150283 -0.265909 1.74754e-07)
(0.00150398 -0.26591 0.962177)
(0.00176965 -0.264155 -0.961459)
(0.00176831 -0.264155 -1.9323e-07)
(0.00176825 -0.264154 9.14748e-10)
(0.00176832 -0.264155 1.9478e-07)
(0.00176965 -0.264155 0.961459)
(0.00206229 -0.26213 -0.960723)
(0.00206076 -0.262129 -2.12415e-07)
(0.00206068 -0.262129 1.4281e-09)
(0.00206076 -0.262129 2.14922e-07)
(0.00206229 -0.26213 0.960723)
(0.00238373 -0.259812 -0.959986)
(0.00238198 -0.259812 -2.3155e-07)
(0.00238188 -0.259811 1.8282e-09)
(0.00238198 -0.259812 2.34843e-07)
(0.00238373 -0.259812 0.959986)
(0.00273526 -0.257181 -0.959227)
(0.00273328 -0.25718 -2.50288e-07)
(0.00273316 -0.25718 2.07214e-09)
(0.00273328 -0.25718 2.54122e-07)
(0.00273525 -0.257181 0.959227)
(0.0031174 -0.254215 -0.958457)
(0.00311518 -0.254214 -2.68332e-07)
(0.00311503 -0.254214 2.12847e-09)
(0.00311518 -0.254214 2.72407e-07)
(0.00311739 -0.254215 0.958457)
(0.00353006 -0.250891 -0.957676)
(0.00352759 -0.25089 -2.85394e-07)
(0.00352741 -0.25089 1.94212e-09)
(0.00352759 -0.25089 2.89292e-07)
(0.00353005 -0.250891 0.957676)
(0.00397224 -0.247189 -0.956878)
(0.00396951 -0.247188 -3.01213e-07)
(0.00396931 -0.247189 1.49551e-09)
(0.00396951 -0.247188 3.04444e-07)
(0.00397224 -0.247189 0.956878)
(0.00444211 -0.24309 -0.956072)
(0.00443911 -0.24309 -3.1552e-07)
(0.00443888 -0.24309 8.07901e-10)
(0.00443911 -0.24309 3.17588e-07)
(0.0044421 -0.24309 0.956072)
(0.00493683 -0.238578 -0.955243)
(0.00493358 -0.238578 -3.27943e-07)
(0.00493331 -0.238579 -4.62677e-11)
(0.00493358 -0.238578 3.28465e-07)
(0.00493682 -0.238578 0.955243)
(0.00545258 -0.23364 -0.954401)
(0.00544908 -0.23364 -3.38085e-07)
(0.00544878 -0.233641 -9.25441e-10)
(0.00544908 -0.23364 3.36929e-07)
(0.00545258 -0.23364 0.954401)
(0.00598469 -0.228266 -0.953542)
(0.00598095 -0.228266 -3.45475e-07)
(0.00598062 -0.228266 -1.67546e-09)
(0.00598095 -0.228266 3.42829e-07)
(0.00598469 -0.228266 0.953542)
(0.00652753 -0.22245 -0.952663)
(0.00652357 -0.222451 -3.49667e-07)
(0.00652322 -0.222451 -2.10543e-09)
(0.00652357 -0.222451 3.4603e-07)
(0.00652753 -0.22245 0.952663)
(0.00707473 -0.216194 -0.951763)
(0.00707057 -0.216194 -3.50375e-07)
(0.00707019 -0.216195 -2.44564e-09)
(0.00707057 -0.216194 3.463e-07)
(0.00707473 -0.216194 0.951763)
(0.00761935 -0.209501 -0.950841)
(0.00761502 -0.209502 -3.47082e-07)
(0.00761462 -0.209503 -1.79618e-09)
(0.00761502 -0.209502 3.43665e-07)
(0.00761936 -0.209501 0.950841)
(0.0081541 -0.202384 -0.949895)
(0.00814962 -0.202385 -3.40177e-07)
(0.00814922 -0.202386 -1.2343e-09)
(0.00814963 -0.202385 3.37637e-07)
(0.0081541 -0.202384 0.949895)
(0.0086716 -0.194858 -0.948923)
(0.00866702 -0.19486 -3.2991e-07)
(0.0086666 -0.194861 -1.07103e-09)
(0.00866702 -0.19486 3.28044e-07)
(0.0086716 -0.194858 0.948923)
(0.00916474 -0.186947 -0.947922)
(0.00916009 -0.186949 -3.16202e-07)
(0.00915967 -0.18695 -3.77372e-10)
(0.00916009 -0.186949 3.15159e-07)
(0.00916474 -0.186947 0.947922)
(0.00962696 -0.178677 -0.946888)
(0.00962227 -0.178679 -2.99867e-07)
(0.00962186 -0.17868 -5.79407e-10)
(0.00962227 -0.178679 2.98904e-07)
(0.00962696 -0.178677 0.946888)
(0.0100526 -0.170081 -0.945822)
(0.0100479 -0.170083 -2.80845e-07)
(0.0100475 -0.170084 -3.04895e-10)
(0.0100479 -0.170083 2.79932e-07)
(0.0100526 -0.170081 0.945822)
(0.0104373 -0.161194 -0.944719)
(0.0104327 -0.161196 -2.59891e-07)
(0.0104323 -0.161197 -8.90031e-10)
(0.0104327 -0.161196 2.58464e-07)
(0.0104373 -0.161194 0.944719)
(0.0107783 -0.152055 -0.943576)
(0.0107737 -0.152057 -2.36789e-07)
(0.0107733 -0.152058 -6.08021e-10)
(0.0107737 -0.152057 2.35366e-07)
(0.0107783 -0.152055 0.943576)
(0.0110744 -0.142705 -0.942391)
(0.0110699 -0.142707 -2.12249e-07)
(0.0110695 -0.142709 -9.57622e-10)
(0.0110699 -0.142707 2.10806e-07)
(0.0110744 -0.142705 0.942391)
(0.0113267 -0.133185 -0.941159)
(0.0113223 -0.133188 -1.86029e-07)
(0.0113219 -0.133189 -9.50518e-11)
(0.0113223 -0.133188 1.85501e-07)
(0.0113267 -0.133185 0.941159)
(0.0115384 -0.123536 -0.939879)
(0.011534 -0.123539 -1.58854e-07)
(0.0115338 -0.12354 1.1116e-10)
(0.011534 -0.123539 1.59249e-07)
(0.0115384 -0.123536 0.939879)
(0.0117148 -0.113797 -0.938548)
(0.0117105 -0.113799 -1.30595e-07)
(0.0117103 -0.113801 1.48321e-09)
(0.0117105 -0.113799 1.32442e-07)
(0.0117148 -0.113797 0.938548)
(0.011863 -0.104004 -0.937161)
(0.0118588 -0.104006 -1.02029e-07)
(0.0118586 -0.104008 1.81196e-09)
(0.0118588 -0.104006 1.04418e-07)
(0.011863 -0.104004 0.937161)
(0.0119906 -0.0941892 -0.935717)
(0.0119865 -0.0941925 -7.08816e-08)
(0.0119862 -0.0941939 1.50805e-09)
(0.0119865 -0.0941925 7.2829e-08)
(0.0119906 -0.0941892 0.935717)
(0.0121028 -0.084386 -0.932997)
(0.0120986 -0.0843899 -3.14894e-08)
(0.0120983 -0.0843913 5.24348e-10)
(0.0120986 -0.0843899 3.24153e-08)
(0.0121027 -0.084386 0.932997)
(0.000175716 -0.384806 -0.979487)
(0.000175675 -0.384805 6.67931e-08)
(0.000175626 -0.384805 1.37023e-10)
(0.000175695 -0.384805 -6.63616e-08)
(0.000175748 -0.384806 0.979487)
(0.000240396 -0.384664 -0.968194)
(0.000240514 -0.384661 -9.14418e-08)
(0.00024052 -0.38466 1.43694e-10)
(0.000240535 -0.384661 9.20447e-08)
(0.000240428 -0.384663 0.968194)
(0.000367386 -0.384488 -0.967573)
(0.000367748 -0.384488 -5.16887e-08)
(0.000367846 -0.384488 -8.5917e-11)
(0.000367766 -0.384488 5.18781e-08)
(0.000367414 -0.384488 0.967573)
(0.0005607 -0.384232 -0.966937)
(0.000561361 -0.384232 -3.19291e-08)
(0.000561534 -0.384232 -4.6543e-10)
(0.00056137 -0.384232 3.14294e-08)
(0.000560714 -0.384231 0.966937)
(0.00081856 -0.383845 -0.966297)
(0.000819399 -0.383845 -3.95894e-08)
(0.000819598 -0.383845 -1.18716e-09)
(0.000819398 -0.383845 3.81251e-08)
(0.000818558 -0.383845 0.966297)
(0.00113562 -0.383296 -0.965642)
(0.00113664 -0.383296 -4.23945e-08)
(0.00113687 -0.383296 -1.61412e-09)
(0.00113664 -0.383296 4.02561e-08)
(0.00113561 -0.383296 0.965642)
(0.00150578 -0.382556 -0.964977)
(0.00150704 -0.382556 -4.14137e-08)
(0.00150731 -0.382556 -1.74938e-09)
(0.00150703 -0.382556 3.90439e-08)
(0.00150576 -0.382556 0.964977)
(0.00192486 -0.381599 -0.964302)
(0.0019264 -0.381599 -4.01474e-08)
(0.00192672 -0.381599 -1.48562e-09)
(0.00192639 -0.381599 3.8109e-08)
(0.00192485 -0.381599 0.964302)
(0.00239222 -0.380403 -0.963618)
(0.00239405 -0.380403 -3.83042e-08)
(0.00239442 -0.380403 -8.56141e-10)
(0.00239405 -0.380403 3.71244e-08)
(0.00239221 -0.380403 0.963618)
(0.0029106 -0.378947 -0.962921)
(0.00291276 -0.378947 -3.53341e-08)
(0.00291319 -0.378947 -7.82121e-13)
(0.00291276 -0.378947 3.53549e-08)
(0.0029106 -0.378947 0.962921)
(0.00348503 -0.377211 -0.96221)
(0.00348753 -0.377211 -3.10283e-08)
(0.00348802 -0.377211 6.84923e-10)
(0.00348753 -0.377211 3.22647e-08)
(0.00348503 -0.377211 0.96221)
(0.00412168 -0.37517 -0.961493)
(0.00412454 -0.37517 -2.50106e-08)
(0.00412508 -0.37517 1.33063e-09)
(0.00412454 -0.37517 2.73811e-08)
(0.00412168 -0.37517 0.961493)
(0.00482672 -0.3728 -0.960756)
(0.00482996 -0.3728 -1.71655e-08)
(0.00483056 -0.3728 1.7599e-09)
(0.00482996 -0.3728 2.03775e-08)
(0.00482672 -0.3728 0.960756)
(0.00560591 -0.370072 -0.960019)
(0.00560954 -0.370072 -7.0817e-09)
(0.0056102 -0.370072 2.0007e-09)
(0.00560954 -0.370072 1.07839e-08)
(0.00560591 -0.370072 0.960019)
(0.00646406 -0.366956 -0.959261)
(0.00646809 -0.366957 5.65757e-09)
(0.00646881 -0.366957 1.98126e-09)
(0.00646809 -0.366957 -1.86745e-09)
(0.00646406 -0.366956 0.959261)
(0.0074045 -0.363423 -0.958491)
(0.00740895 -0.363423 2.15529e-08)
(0.00740972 -0.363424 1.8364e-09)
(0.00740895 -0.363423 -1.798e-08)
(0.0074045 -0.363423 0.958491)
(0.0084294 -0.35944 -0.95771)
(0.00843425 -0.35944 4.08523e-08)
(0.00843508 -0.359441 1.36681e-09)
(0.00843425 -0.35944 -3.7917e-08)
(0.00842939 -0.359439 0.95771)
(0.00953901 -0.354975 -0.956912)
(0.00954428 -0.354976 6.36591e-08)
(0.00954516 -0.354976 6.98897e-10)
(0.00954428 -0.354976 -6.17344e-08)
(0.00953901 -0.354975 0.956912)
(0.0107318 -0.349998 -0.956106)
(0.0107375 -0.349999 9.00758e-08)
(0.0107384 -0.35 -1.74325e-11)
(0.0107375 -0.349999 -8.94228e-08)
(0.0107318 -0.349998 0.956106)
(0.0120041 -0.344479 -0.955278)
(0.0120102 -0.344481 1.20224e-07)
(0.0120112 -0.344482 -6.49382e-10)
(0.0120102 -0.344481 -1.20924e-07)
(0.0120041 -0.344479 0.955278)
(0.0133499 -0.338393 -0.954437)
(0.0133564 -0.338395 1.54132e-07)
(0.0133574 -0.338396 -9.90685e-10)
(0.0133564 -0.338395 -1.55995e-07)
(0.0133499 -0.338393 0.954437)
(0.014761 -0.331714 -0.95358)
(0.0147679 -0.331717 1.91767e-07)
(0.0147689 -0.331718 -1.1837e-09)
(0.0147679 -0.331717 -1.9442e-07)
(0.0147611 -0.331714 0.95358)
(0.016227 -0.324425 -0.952703)
(0.0162342 -0.324428 2.32903e-07)
(0.0162353 -0.324429 -3.72101e-10)
(0.0162342 -0.324428 -2.35725e-07)
(0.016227 -0.324425 0.952703)
(0.017735 -0.316512 -0.951805)
(0.0177425 -0.316514 2.76679e-07)
(0.0177436 -0.316516 -3.3969e-09)
(0.0177425 -0.316514 -2.80174e-07)
(0.017735 -0.316512 0.951805)
(0.0192704 -0.307965 -0.950886)
(0.0192782 -0.307968 3.24596e-07)
(0.0192793 -0.30797 9.95873e-10)
(0.0192782 -0.307968 -3.26059e-07)
(0.0192704 -0.307965 0.950886)
(0.0208169 -0.298785 -0.949942)
(0.020825 -0.298789 3.73625e-07)
(0.0208261 -0.29879 1.87901e-09)
(0.020825 -0.298789 -3.74235e-07)
(0.0208169 -0.298785 0.949942)
(0.0223571 -0.288977 -0.948974)
(0.0223655 -0.288981 4.22686e-07)
(0.0223667 -0.288982 -2.64192e-09)
(0.0223655 -0.288981 -4.24295e-07)
(0.0223571 -0.288977 0.948974)
(0.0238734 -0.278554 -0.947978)
(0.0238819 -0.278558 4.73751e-07)
(0.0238832 -0.27856 2.07751e-09)
(0.0238819 -0.278558 -4.7415e-07)
(0.0238734 -0.278554 0.947978)
(0.0253479 -0.267539 -0.946948)
(0.0253566 -0.267542 5.22408e-07)
(0.0253579 -0.267544 -3.19459e-09)
(0.0253566 -0.267542 -5.24315e-07)
(0.0253479 -0.267538 0.946948)
(0.0267639 -0.255959 -0.945887)
(0.0267728 -0.255962 5.7171e-07)
(0.026774 -0.255964 2.2002e-09)
(0.0267728 -0.255962 -5.72601e-07)
(0.0267639 -0.255959 0.945887)
(0.0281065 -0.24385 -0.944789)
(0.0281154 -0.243854 6.17355e-07)
(0.0281167 -0.243856 -3.91041e-09)
(0.0281154 -0.243854 -6.19797e-07)
(0.0281065 -0.24385 0.944789)
(0.0293629 -0.231257 -0.943651)
(0.0293719 -0.231261 6.62904e-07)
(0.0293732 -0.231262 2.91918e-09)
(0.0293719 -0.23126 -6.63524e-07)
(0.0293629 -0.231257 0.943651)
(0.0305238 -0.218226 -0.942471)
(0.0305327 -0.21823 7.03885e-07)
(0.0305341 -0.218231 -3.8397e-09)
(0.0305328 -0.21823 -7.0526e-07)
(0.0305238 -0.218226 0.942471)
(0.0315833 -0.204811 -0.941245)
(0.0315922 -0.204815 7.44278e-07)
(0.0315935 -0.204816 4.72274e-09)
(0.0315922 -0.204815 -7.42589e-07)
(0.0315833 -0.204811 0.941245)
(0.0325395 -0.191068 -0.93997)
(0.0325482 -0.191072 7.79549e-07)
(0.0325495 -0.191073 -2.80804e-09)
(0.0325482 -0.191072 -7.7794e-07)
(0.0325395 -0.191068 0.93997)
(0.0333943 -0.177056 -0.938643)
(0.0334029 -0.177059 8.13652e-07)
(0.0334041 -0.17706 6.89963e-09)
(0.0334029 -0.177059 -8.0854e-07)
(0.0333943 -0.177056 0.938643)
(0.0341525 -0.162832 -0.93726)
(0.0341609 -0.162835 8.42541e-07)
(0.0341621 -0.162837 3.54801e-09)
(0.0341609 -0.162835 -8.37447e-07)
(0.0341525 -0.162832 0.93726)
(0.0348194 -0.148458 -0.93582)
(0.0348274 -0.148461 8.66007e-07)
(0.0348285 -0.148462 2.02476e-09)
(0.0348274 -0.148461 -8.61549e-07)
(0.0348194 -0.148458 0.93582)
(0.035395 -0.13399 -0.933197)
(0.0354025 -0.133993 8.80942e-07)
(0.0354035 -0.133994 3.38241e-09)
(0.0354024 -0.133993 -8.76446e-07)
(0.035395 -0.13399 0.933197)
(0.000252416 -0.446538 -0.980446)
(0.000252055 -0.446538 6.20819e-08)
(0.000251935 -0.446537 6.94573e-11)
(0.000252075 -0.446537 -6.17555e-08)
(0.000252448 -0.446538 0.980446)
(0.000353768 -0.44641 -0.96821)
(0.000353916 -0.446408 -8.94883e-08)
(0.000353921 -0.446407 5.14964e-11)
(0.000353936 -0.446408 8.99113e-08)
(0.000353799 -0.44641 0.96821)
(0.000549178 -0.446252 -0.967588)
(0.000549497 -0.446252 -5.02153e-08)
(0.000549576 -0.446252 -2.29338e-10)
(0.000549513 -0.446252 5.01184e-08)
(0.000549203 -0.446252 0.967588)
(0.000842979 -0.446021 -0.96695)
(0.000843421 -0.446021 -2.97667e-08)
(0.000843548 -0.446021 -6.53953e-10)
(0.000843428 -0.446021 2.88748e-08)
(0.000842988 -0.446021 0.96695)
(0.00123761 -0.44567 -0.966309)
(0.00123811 -0.44567 -4.03264e-08)
(0.00123825 -0.44567 -1.27027e-09)
(0.0012381 -0.44567 3.85157e-08)
(0.0012376 -0.44567 0.966309)
(0.00172877 -0.445167 -0.965654)
(0.00172929 -0.445167 -4.65138e-08)
(0.00172943 -0.445167 -1.51938e-09)
(0.00172928 -0.445167 4.41721e-08)
(0.00172876 -0.445167 0.965654)
(0.00230844 -0.444479 -0.964987)
(0.00230896 -0.444479 -4.88112e-08)
(0.0023091 -0.444479 -1.44243e-09)
(0.00230895 -0.444479 4.64694e-08)
(0.00230842 -0.444479 0.964987)
(0.00297016 -0.44358 -0.96431)
(0.00297069 -0.44358 -5.15339e-08)
(0.00297084 -0.44358 -1.05817e-09)
(0.00297068 -0.44358 4.9759e-08)
(0.00297015 -0.44358 0.96431)
(0.00371244 -0.442444 -0.963625)
(0.00371296 -0.442444 -5.45553e-08)
(0.0037131 -0.442444 -4.44314e-10)
(0.00371296 -0.442444 5.38124e-08)
(0.00371243 -0.442444 0.963625)
(0.00453918 -0.441049 -0.962926)
(0.00453969 -0.441049 -5.73311e-08)
(0.00453982 -0.441049 2.91273e-10)
(0.00453969 -0.441049 5.78746e-08)
(0.00453918 -0.441049 0.962926)
(0.00545833 -0.439372 -0.962213)
(0.0054588 -0.439372 -5.98232e-08)
(0.00545892 -0.439372 9.91324e-10)
(0.0054588 -0.439372 6.16226e-08)
(0.00545833 -0.439372 0.962213)
(0.00648026 -0.437388 -0.961494)
(0.00648068 -0.437388 -6.20071e-08)
(0.00648077 -0.437388 1.55578e-09)
(0.00648068 -0.437388 6.4811e-08)
(0.00648025 -0.437388 0.961494)
(0.00761591 -0.435068 -0.960755)
(0.00761626 -0.435068 -6.37837e-08)
(0.00761632 -0.435068 1.88792e-09)
(0.00761625 -0.435068 6.71705e-08)
(0.00761591 -0.435068 0.960755)
(0.00887605 -0.432383 -0.960015)
(0.00887629 -0.432383 -6.50375e-08)
(0.00887631 -0.432383 1.94777e-09)
(0.00887629 -0.432383 6.85419e-08)
(0.00887605 -0.432383 0.960015)
(0.0102704 -0.429299 -0.959254)
(0.0102705 -0.429299 -6.55399e-08)
(0.0102705 -0.429299 1.72997e-09)
(0.0102705 -0.429299 6.87377e-08)
(0.0102704 -0.429299 0.959254)
(0.0118068 -0.425781 -0.958482)
(0.0118067 -0.425781 -6.5133e-08)
(0.0118066 -0.425781 1.27707e-09)
(0.0118067 -0.425781 6.77126e-08)
(0.0118068 -0.425781 0.958482)
(0.0134914 -0.421791 -0.957699)
(0.0134911 -0.421791 -6.36126e-08)
(0.0134909 -0.421791 6.43534e-10)
(0.0134911 -0.421791 6.53442e-08)
(0.0134914 -0.421791 0.957699)
(0.015328 -0.41729 -0.956898)
(0.0153274 -0.417291 -6.07623e-08)
(0.0153271 -0.417291 9.77115e-11)
(0.0153274 -0.417291 6.15714e-08)
(0.015328 -0.41729 0.956898)
(0.0173176 -0.41224 -0.95609)
(0.0173167 -0.41224 -5.62115e-08)
(0.0173163 -0.412241 -1.29962e-10)
(0.0173167 -0.41224 5.6114e-08)
(0.0173176 -0.41224 0.95609)
(0.0194582 -0.4066 -0.95526)
(0.0194569 -0.406601 -4.98108e-08)
(0.0194564 -0.406602 -4.8118e-10)
(0.0194569 -0.406601 4.88734e-08)
(0.0194582 -0.4066 0.95526)
(0.0217441 -0.400335 -0.954417)
(0.0217423 -0.400336 -4.12641e-08)
(0.0217417 -0.400336 -6.84518e-10)
(0.0217423 -0.400336 3.97769e-08)
(0.0217441 -0.400335 0.954417)
(0.0241663 -0.393407 -0.953558)
(0.0241641 -0.393408 -3.03542e-08)
(0.0241634 -0.393409 -6.88389e-10)
(0.0241641 -0.393408 2.87228e-08)
(0.0241663 -0.393407 0.953558)
(0.0267117 -0.385783 -0.95268)
(0.026709 -0.385785 -1.69979e-08)
(0.0267082 -0.385785 -4.71431e-10)
(0.0267091 -0.385785 1.56409e-08)
(0.0267117 -0.385783 0.95268)
(0.0293634 -0.377436 -0.951782)
(0.0293603 -0.377437 -1.32805e-09)
(0.0293593 -0.377438 -4.5862e-10)
(0.0293603 -0.377437 3.83595e-10)
(0.0293634 -0.377436 0.951782)
(0.0321008 -0.368341 -0.950864)
(0.0320972 -0.368343 1.65947e-08)
(0.0320961 -0.368344 1.84675e-10)
(0.0320972 -0.368343 -1.67743e-08)
(0.0321008 -0.368341 0.950864)
(0.0348999 -0.358482 -0.949922)
(0.0348958 -0.358485 3.62671e-08)
(0.0348946 -0.358486 2.43924e-10)
(0.0348958 -0.358485 -3.62942e-08)
(0.0348999 -0.358482 0.949922)
(0.0377338 -0.34785 -0.948955)
(0.0377293 -0.347852 5.72846e-08)
(0.0377279 -0.347854 -3.87244e-10)
(0.0377293 -0.347852 -5.78479e-08)
(0.0377338 -0.34785 0.948955)
(0.0405735 -0.336443 -0.947962)
(0.0405685 -0.336445 7.97411e-08)
(0.0405671 -0.336446 -4.25327e-10)
(0.0405685 -0.336445 -8.06744e-08)
(0.0405735 -0.336443 0.947962)
(0.0433887 -0.324268 -0.946937)
(0.0433833 -0.324271 1.03001e-07)
(0.0433818 -0.324272 -1.09222e-09)
(0.0433833 -0.324271 -1.04569e-07)
(0.0433887 -0.324268 0.946937)
(0.0461488 -0.311345 -0.94588)
(0.0461431 -0.311348 1.27259e-07)
(0.0461416 -0.311349 -7.8727e-10)
(0.0461431 -0.311348 -1.28713e-07)
(0.0461488 -0.311345 0.94588)
(0.0488246 -0.2977 -0.944788)
(0.0488186 -0.297703 1.51794e-07)
(0.048817 -0.297705 -8.90435e-10)
(0.0488186 -0.297703 -1.52919e-07)
(0.0488246 -0.2977 0.944788)
(0.0513887 -0.283372 -0.943657)
(0.0513824 -0.283374 1.767e-07)
(0.0513808 -0.283376 2.29319e-10)
(0.0513824 -0.283374 -1.76435e-07)
(0.0513887 -0.283372 0.943657)
(0.0538172 -0.268406 -0.942484)
(0.0538107 -0.268408 2.01041e-07)
(0.0538091 -0.26841 7.65224e-10)
(0.0538107 -0.268408 -1.99285e-07)
(0.0538172 -0.268406 0.942484)
(0.0560908 -0.252858 -0.941265)
(0.0560841 -0.25286 2.24777e-07)
(0.0560825 -0.252862 2.33723e-09)
(0.0560841 -0.25286 -2.20945e-07)
(0.0560908 -0.252858 0.941265)
(0.058195 -0.236791 -0.939997)
(0.0581881 -0.236793 2.46918e-07)
(0.0581865 -0.236795 2.75733e-09)
(0.0581881 -0.236793 -2.41785e-07)
(0.058195 -0.236791 0.939997)
(0.0601208 -0.220274 -0.938678)
(0.0601137 -0.220277 2.67562e-07)
(0.0601121 -0.220278 3.82218e-09)
(0.0601137 -0.220277 -2.61435e-07)
(0.0601208 -0.220274 0.938678)
(0.0618634 -0.203381 -0.937302)
(0.0618561 -0.203383 2.86005e-07)
(0.0618544 -0.203385 3.70713e-09)
(0.0618561 -0.203383 -2.79963e-07)
(0.0618634 -0.203381 0.937302)
(0.0634186 -0.186189 -0.935869)
(0.0634111 -0.186191 3.03153e-07)
(0.0634094 -0.186192 3.65706e-09)
(0.0634111 -0.186191 -2.97321e-07)
(0.0634186 -0.186189 0.935869)
(0.0647755 -0.168775 -0.933318)
(0.0647679 -0.168777 3.21575e-07)
(0.0647662 -0.168778 4.12395e-09)
(0.0647679 -0.168777 -3.15354e-07)
(0.0647755 -0.168775 0.933318)
(0.00032032 -0.475461 -0.980895)
(0.000319739 -0.475461 5.58131e-08)
(0.000319561 -0.475461 3.02209e-11)
(0.000319754 -0.475461 -5.5565e-08)
(0.000320345 -0.475461 0.980895)
(0.000451763 -0.475351 -0.968215)
(0.000451994 -0.475349 -7.99948e-08)
(0.000452014 -0.475348 -1.92943e-11)
(0.000452009 -0.475349 8.02522e-08)
(0.000451786 -0.475351 0.968215)
(0.000705614 -0.475217 -0.967591)
(0.00070603 -0.475217 -4.27693e-08)
(0.000706132 -0.475217 -3.53683e-10)
(0.00070604 -0.475217 4.23956e-08)
(0.00070563 -0.475217 0.967591)
(0.00108686 -0.475023 -0.966951)
(0.00108731 -0.475023 -2.15543e-08)
(0.00108745 -0.475023 -9.12707e-10)
(0.00108731 -0.475023 2.02782e-08)
(0.00108686 -0.475023 0.966951)
(0.00160237 -0.474727 -0.966308)
(0.00160288 -0.474727 -3.0992e-08)
(0.00160305 -0.474727 -1.12142e-09)
(0.00160287 -0.474727 2.90903e-08)
(0.00160236 -0.474727 0.966308)
(0.00225007 -0.474297 -0.96565)
(0.00225062 -0.474297 -3.66467e-08)
(0.0022508 -0.474297 -1.22949e-09)
(0.0022506 -0.474297 3.44429e-08)
(0.00225005 -0.474297 0.96565)
(0.00302112 -0.473705 -0.964981)
(0.0030217 -0.473705 -3.83302e-08)
(0.0030219 -0.473705 -1.0617e-09)
(0.00302169 -0.473705 3.63435e-08)
(0.0030211 -0.473705 0.964981)
(0.00390742 -0.472923 -0.964301)
(0.00390802 -0.472923 -4.04628e-08)
(0.00390824 -0.472923 -6.2146e-10)
(0.00390801 -0.472923 3.92173e-08)
(0.0039074 -0.472923 0.964301)
(0.00490672 -0.471927 -0.963612)
(0.00490736 -0.471927 -4.30124e-08)
(0.00490758 -0.471927 1.64369e-12)
(0.00490735 -0.471927 4.28758e-08)
(0.00490671 -0.471927 0.963612)
(0.00602405 -0.470695 -0.96291)
(0.00602471 -0.470695 -4.54389e-08)
(0.00602494 -0.470694 6.40365e-10)
(0.0060247 -0.470694 4.65172e-08)
(0.00602404 -0.470695 0.96291)
(0.00727021 -0.469202 -0.962193)
(0.00727089 -0.469202 -4.77084e-08)
(0.00727112 -0.469202 1.1356e-09)
(0.00727088 -0.469202 4.98201e-08)
(0.0072702 -0.469202 0.962193)
(0.0086599 -0.467425 -0.96147)
(0.00866059 -0.467425 -4.98728e-08)
(0.00866083 -0.467425 1.40848e-09)
(0.00866059 -0.467425 5.2626e-08)
(0.0086599 -0.467425 0.96147)
(0.0102092 -0.465335 -0.960726)
(0.0102099 -0.465335 -5.18311e-08)
(0.0102102 -0.465335 1.44195e-09)
(0.0102099 -0.465335 5.47458e-08)
(0.0102092 -0.465335 0.960726)
(0.0119347 -0.462901 -0.959982)
(0.0119354 -0.4629 -5.34614e-08)
(0.0119356 -0.4629 1.27569e-09)
(0.0119354 -0.4629 5.61112e-08)
(0.0119347 -0.4629 0.959982)
(0.0138519 -0.460088 -0.959216)
(0.0138525 -0.460088 -5.44721e-08)
(0.0138527 -0.460088 9.75255e-10)
(0.0138525 -0.460088 5.65747e-08)
(0.0138519 -0.460088 0.959216)
(0.0159743 -0.456859 -0.958437)
(0.0159749 -0.45686 -5.46306e-08)
(0.015975 -0.45686 6.16905e-10)
(0.0159749 -0.456859 5.60756e-08)
(0.0159743 -0.456859 0.958437)
(0.018314 -0.453175 -0.957649)
(0.0183145 -0.453175 -5.3586e-08)