/*--------------------------------*- C++ -*----------------------------------*\
  =========                 |
  \\      /  F ield         | OpenFOAM: The Open Source CFD Toolbox
   \\    /   O peration     | Website:  https://openfoam.org
    \\  /    A nd           | Version:  9
     \\/     M anipulation  |
\*---------------------------------------------------------------------------*/
FoamFile
{
    format      ascii;
    class       volScalarField;
    location    "0.9";
    object      nut;
}
// * * * * * * * * * * * * * * * * * * * * * * * * * * * * * * * * * * * * * //

dimensions      [0 2 -1 0 0 0 0];

internalField   nonuniform List<scalar> 
36360
(
0.00108122
0.000890149
0.000440199
0.000414227
0.000260571
0.000208643
0.00019105
0.000175195
0.000303369
0.000166047
0.000200728
0.000159521
0.000148639
0.000139242
0.000162712
0.000162157
0.000146994
0.000146992
0.000158946
0.000158947
0.000138581
0.000138581
0.000162137
0.000162137
0.000166014
0.000303297
0.000159525
0.000200714
0.000139242
0.000148632
0.000162157
0.000162713
0.000890093
0.00108137
0.000414216
0.000440226
0.000208637
0.000260583
0.000175195
0.000191051
0.00181519
0.0014835
0.00154129
0.00125455
0.000384329
0.000303624
0.000340732
0.000267874
0.000687972
0.000235357
0.000526203
0.000190945
0.000169384
0.000121911
0.000155864
0.00012666
0.000155619
0.000155589
0.000148375
0.000148365
0.000117264
0.000117263
0.00012411
0.000124109
0.000235134
0.000687548
0.000190869
0.000525954
0.000121893
0.000169319
0.000126654
0.000155837
0.0014834
0.00181571
0.00125447
0.00154163
0.000303594
0.000384389
0.000267855
0.00034077
0.00202811
0.00166643
0.00196055
0.00160814
0.000413887
0.000330422
0.000404984
0.000321938
0.000822224
0.000273573
0.000779505
0.000260633
0.000182745
0.000120723
0.000178392
0.000120803
0.00016189
0.000161844
0.000160105
0.000160065
0.000114015
0.000114012
0.00011475
0.000114748
0.000273173
0.000821606
0.000260298
0.000778961
0.000120692
0.000182646
0.000120777
0.000178305
0.00166633
0.00202888
0.00160804
0.00196122
0.000330384
0.000413972
0.000321903
0.00040506
0.00206554
0.00169909
0.00205637
0.00169101
0.000418245
0.000334922
0.000417284
0.000333849
0.000845219
0.000280412
0.000839725
0.000278843
0.000185033
0.000120808
0.000184504
0.00012078
0.000162536
0.000162486
0.000162427
0.000162379
0.000113794
0.000113791
0.000113832
0.000113829
0.00027997
0.000844547
0.000278412
0.000839067
0.000120774
0.000184927
0.000120747
0.0001844
0.00169898
0.00206639
0.0016909
0.0020572
0.000334883
0.000418338
0.00033381
0.000417375
0.0020682
0.00170156
0.00206862
0.00170191
0.000418385
0.000335188
0.000418488
0.000335248
0.000846769
0.000280709
0.000847067
0.00028083
0.000185153
0.000120789
0.000185188
0.000120803
0.000162523
0.000162473
0.000162552
0.000162502
0.000113773
0.000113771
0.00011377
0.000113767
0.000280265
0.000846092
0.000280385
0.00084639
0.000120756
0.000185047
0.00012077
0.000185082
0.00170145
0.00206907
0.00170179
0.00206949
0.000335149
0.00041848
0.00033521
0.000418583
0.00206715
0.00170079
0.00206833
0.00170179
0.00041815
0.000334974
0.000418345
0.000335161
0.00084631
0.000280439
0.000847009
0.000280706
0.00018506
0.000120751
0.000185153
0.000120778
0.000162453
0.000162403
0.000162511
0.000162461
0.000113746
0.000113743
0.000113762
0.000113759
0.000279995
0.000845634
0.000280261
0.000846331
0.000120717
0.000184954
0.000120744
0.000185047
0.00170068
0.00206802
0.00170169
0.00206919
0.000334936
0.000418245
0.000335123
0.00041844
0.00206531
0.00169919
0.0020668
0.0017005
0.000417802
0.00033461
0.000418048
0.000334862
0.00084517
0.000279991
0.000846124
0.00028033
0.00018488
0.000120686
0.000185011
0.000120721
0.000162377
0.000162327
0.000162437
0.000162387
0.000113704
0.000113701
0.000113721
0.000113718
0.000279549
0.000844495
0.000279886
0.000845447
0.000120653
0.000184774
0.000120688
0.000184905
0.00169908
0.00206618
0.00170039
0.00206767
0.000334572
0.000417897
0.000334824
0.000418143
0.00206301
0.00169722
0.00206474
0.0016987
0.000417391
0.000334179
0.00041767
0.000334463
0.00084371
0.000279415
0.000844808
0.000279813
0.000184654
0.000120614
0.000184807
0.000120653
0.000162285
0.000162236
0.000162351
0.000162302
0.000113663
0.00011366
0.000113681
0.000113678
0.000278975
0.000843035
0.000279372
0.000844132
0.000120581
0.000184548
0.00012062
0.000184701
0.00169711
0.00206388
0.00169859
0.00206561
0.000334141
0.000417486
0.000334425
0.000417765
0.00206034
0.00169498
0.00206229
0.00169661
0.000416927
0.000333704
0.000417235
0.000334009
0.000842043
0.000278815
0.000843248
0.000279227
0.000184398
0.000120535
0.000184566
0.000120578
0.000162203
0.000162154
0.000162268
0.000162219
0.000113613
0.00011361
0.000113635
0.000113632
0.000278376
0.000841369
0.000278787
0.000842573
0.000120502
0.000184292
0.000120545
0.000184461
0.00169487
0.0020612
0.0016965
0.00206316
0.000333666
0.000417022
0.000333971
0.00041733
0.00205733
0.00169252
0.00205947
0.00169428
0.00041641
0.000333187
0.000416746
0.000333519
0.000840196
0.000278124
0.000841502
0.000278581
0.000184113
0.000120442
0.000184297
0.000120492
0.000162097
0.000162048
0.000162172
0.000162123
0.000113555
0.000113552
0.000113581
0.000113578
0.000277686
0.000839521
0.000278143
0.000840827
0.000120409
0.000184007
0.000120459
0.000184191
0.0016924
0.00205819
0.00169417
0.00206033
0.000333149
0.000416504
0.000333481
0.000416841
0.00205397
0.0016898
0.00205629
0.00169171
0.000415836
0.00033262
0.000416203
0.000332976
0.000838168
0.000277414
0.000839578
0.000277886
0.000183799
0.000120341
0.000183998
0.000120396
0.000162
0.000161951
0.000162073
0.000162024
0.000113488
0.000113485
0.000113518
0.000113515
0.000276977
0.000837492
0.000277449
0.000838902
0.000120308
0.000183694
0.000120363
0.000183893
0.00168968
0.00205482
0.00169159
0.00205715
0.000332581
0.00041593
0.000332938
0.000416297
0.00205023
0.00168681
0.00205276
0.00168887
0.000415202
0.000332001
0.000415601
0.000332386
0.000835945
0.000276606
0.000837469
0.000277127
0.000183454
0.000120225
0.00018367
0.000120286
0.000161876
0.000161827
0.000161959
0.00016191
0.000113409
0.000113406
0.000113445
0.000113442
0.000276171
0.000835268
0.00027669
0.000836792
0.000120192
0.000183349
0.000120253
0.000183565
0.0016867
0.00205108
0.00168876
0.00205361
0.000331961
0.000415295
0.000332347
0.000415695
0.00204608
0.00168353
0.00204882
0.00168575
0.000414499
0.000331322
0.000414935
0.000331738
0.000833508
0.000275768
0.000835149
0.00027631
0.000183076
0.000120096
0.000183309
0.000120164
0.000161759
0.000161711
0.000161841
0.000161793
0.000113319
0.000113316
0.000113361
0.000113358
0.000275335
0.000832832
0.000275875
0.000834472
0.000120063
0.00018297
0.000120131
0.000183204
0.00168341
0.00204693
0.00168563
0.00204968
0.000331282
0.000414592
0.000331698
0.000415028
0.00204149
0.00167993
0.00204446
0.00168232
0.000413724
0.000330586
0.000414197
0.000331031
0.00083084
0.000274842
0.000832604
0.000275431
0.000182661
0.000119951
0.000182913
0.000120027
0.000161626
0.000161577
0.000161717
0.000161669
0.000113216
0.000113213
0.000113264
0.000113262
0.000274412
0.000830165
0.000274999
0.000831928
0.000119918
0.000182556
0.000119995
0.000182808
0.00167981
0.00204233
0.00168219
0.00204531
0.000330546
0.000413816
0.000330991
0.000414289
0.00203643
0.00167598
0.00203964
0.00167855
0.00041287
0.000329786
0.000413384
0.000330265
0.000827925
0.000273835
0.00082982
0.000274466
0.000182208
0.000119788
0.00018248
0.000119873
0.000161477
0.000161429
0.000161575
0.000161527
0.000113098
0.000113095
0.000113154
0.000113151
0.000273407
0.000827251
0.000274036
0.000829145
0.000119756
0.000182103
0.000119841
0.000182375
0.00167586
0.00203727
0.00167843
0.00204049
0.000329746
0.000412962
0.000330226
0.000413476
0.00203088
0.00167167
0.00203434
0.00167443
0.000411935
0.000328912
0.000412491
0.000329429
0.000824747
0.000272741
0.00082678
0.000273417
0.000181714
0.000119606
0.000182007
0.000119701
0.000161313
0.000161266
0.00016142
0.000161372
0.000112965
0.000112962
0.000113029
0.000113026
0.000272316
0.000824075
0.000272991
0.000826106
0.000119574
0.000181609
0.000119669
0.000181902
0.00167155
0.00203171
0.0016743
0.00203518
0.000328872
0.000412026
0.00032939
0.000412583
0.00202481
0.00166697
0.00202854
0.00166993
0.000410912
0.000327965
0.000411513
0.00032852
0.000821291
0.000271555
0.000823469
0.000272279
0.000181177
0.000119405
0.000181493
0.00011951
0.000161134
0.000161087
0.000161248
0.000161202
0.000112815
0.000112812
0.000112887
0.000112884
0.000271134
0.00082062
0.000271856
0.000822797
0.000119373
0.000181073
0.000119478
0.000181388
0.00166685
0.00202564
0.0016698
0.00202938
0.000327925
0.000411003
0.00032848
0.000411604
0.00201822
0.00166188
0.00202222
0.00166504
0.000409798
0.000326944
0.000410446
0.000327536
0.00081754
0.000270276
0.000819872
0.000271048
0.000180597
0.000119181
0.000180935
0.000119297
0.00016094
0.000160894
0.000161061
0.000161015
0.000112646
0.000112644
0.000112728
0.000112725
0.000269859
0.000816871
0.000270628
0.000819201
0.00011915
0.000180494
0.000119266
0.000180831
0.00166175
0.00201904
0.00166491
0.00202305
0.000326904
0.000409888
0.000327496
0.000410537
0.00201104
0.00165637
0.00201535
0.00165974
0.000408586
0.000325856
0.000409284
0.000326481
0.000813472
0.000268902
0.000815969
0.000269722
0.000179972
0.000118935
0.000180333
0.000119063
0.000160731
0.000160685
0.00016086
0.000160813
0.000112458
0.000112456
0.00011255
0.000112547
0.000268488
0.000812804
0.000269306
0.000815299
0.000118904
0.000179869
0.000119031
0.000180229
0.00165624
0.00201187
0.00165961
0.00201617
0.000325816
0.000408676
0.00032644
0.000409374
0.00200325
0.00165038
0.00200787
0.00165401
0.000407276
0.000324715
0.000408024
0.000325364
0.000809065
0.00026743
0.000811737
0.000268299
0.000179301
0.000118664
0.000179685
0.000118804
0.000160507
0.000160462
0.000160643
0.000160597
0.000112249
0.000112246
0.000112351
0.000112348
0.000267021
0.000808399
0.000267887
0.000811069
0.000118633
0.000179199
0.000118773
0.000179582
0.00165025
0.00200407
0.00165388
0.00200869
0.000324675
0.000407365
0.000325323
0.000408113
0.00199484
0.00164382
0.00199977
0.00164776
0.000405868
0.000323548
0.000406665
0.000324205
0.000804308
0.000265865
0.000807157
0.00026678
0.000178584
0.000118367
0.000178991
0.00011852
0.000160268
0.000160223
0.000160411
0.000160365
0.000112018
0.000112015
0.000112131
0.000112128
0.00026546
0.000803645
0.000266373
0.000806491
0.000118337
0.000178482
0.00011849
0.000178889
0.00164369
0.00199565
0.00164762
0.00200059
0.000323507
0.000405956
0.000324165
0.000406754
0.00198584
0.00163667
0.00199106
0.00164087
0.000404361
0.000322353
0.000405208
0.000323031
0.000799235
0.000264212
0.000802238
0.00026517
0.000177818
0.000118044
0.00017825
0.00011821
0.000160013
0.000159969
0.000160163
0.000160118
0.000111763
0.00011176
0.000111888
0.000111885
0.000263812
0.000798574
0.000264767
0.000801574
0.000118014
0.000177717
0.00011818
0.000178148
0.00163653
0.00198665
0.00164074
0.00199187
0.000322312
0.000404449
0.00032299
0.000405297
0.00197629
0.0016291
0.00198179
0.00163351
0.000402758
0.000321081
0.000403654
0.000321798
0.000793869
0.000262474
0.000797018
0.000263473
0.000177001
0.000117693
0.000177458
0.000117873
0.000159744
0.0001597
0.000159899
0.000159855
0.000111484
0.000111481
0.000111621
0.000111618
0.000262079
0.00079321
0.000263075
0.000796357
0.000117664
0.0001769
0.000117843
0.000177357
0.00162896
0.00197709
0.00163338
0.00198259
0.00032104
0.000402846
0.000321757
0.000403741
0.00196621
0.00162112
0.00197197
0.00162574
0.000401062
0.000319735
0.000402004
0.000320489
0.000788222
0.000260659
0.000791511
0.000261695
0.000176135
0.000117315
0.000176616
0.000117508
0.00015946
0.000159417
0.000159622
0.000159578
0.000111179
0.000111177
0.000111329
0.000111326
0.00026027
0.000787566
0.000261302
0.000790852
0.000117285
0.000176035
0.000117479
0.000176516
0.00162098
0.00196699
0.0016256
0.00197276
0.000319693
0.000401149
0.000320448
0.000402091
0.00195562
0.00161275
0.00196163
0.00161756
0.000399278
0.000318316
0.000400263
0.000319107
0.000782313
0.000258775
0.00078573
0.000259843
0.000175221
0.000116908
0.000175726
0.000117115
0.000159162
0.00015912
0.00015933
0.000159287
0.000110849
0.000110846
0.000111011
0.000111009
0.000258391
0.00078166
0.000259455
0.000785075
0.000116879
0.000175122
0.000117086
0.000175626
0.00161261
0.0019564
0.00161742
0.00196241
0.000318275
0.000399364
0.000319065
0.00040035
0.00194458
0.00160402
0.00195081
0.00160901
0.000397414
0.000316832
0.000398439
0.000317655
0.000776167
0.00025683
0.000779699
0.000257925
0.000174262
0.000116473
0.000174789
0.000116694
0.000158852
0.000158811
0.000159025
0.000158983
0.000110493
0.00011049
0.000110668
0.000110665
0.000256452
0.000775518
0.000257544
0.000779047
0.000116444
0.000174164
0.000116665
0.00017469
0.00160387
0.00194535
0.00160886
0.00195158
0.00031679
0.000397499
0.000317613
0.000398524
0.00193314
0.00159499
0.00193956
0.00160012
0.000395481
0.000315289
0.000396539
0.00031614
0.000769823
0.000254838
0.000773449
0.000255954
0.000173263
0.00011601
0.000173809
0.000116245
0.00015853
0.00015849
0.000158707
0.000158666
0.00011011
0.000110107
0.000110298
0.000110296
0.000254466
0.000769176
0.000255578
0.0007728
0.000115982
0.000173165
0.000116217
0.00017371
0.00159484
0.0019339
0.00159997
0.00194032
0.000315247
0.000395565
0.000316098
0.000396623
0.00192139
0.0015857
0.00192795
0.00159095
0.000393491
0.000313696
0.000394576
0.00031457
0.000763323
0.000252813
0.000767021
0.000253942
0.000172228
0.00011552
0.000172791
0.000115768
0.000158199
0.000158159
0.000158378
0.000158338
0.000109701
0.000109699
0.000109902
0.0001099
0.000252447
0.00076268
0.000253573
0.000766375
0.000115493
0.000172131
0.00011574
0.000172693
0.00158555
0.00192215
0.0015908
0.00192871
0.000313654
0.000393574
0.000314529
0.000394659
0.00190942
0.00157624
0.00191608
0.00158157
0.00039146
0.000312064
0.000392564
0.000312957
0.000756718
0.000250772
0.000760461
0.000251906
0.000171164
0.000115005
0.00017174
0.000115266
0.000157862
0.000157823
0.000158042
0.000158003
0.000109267
0.000109265
0.000109481
0.000109478
0.000250412
0.000756079
0.000251542
0.00075982
0.000114978
0.000171067
0.000115238
0.000171643
0.00157609
0.00191016
0.00158141
0.00191683
0.000312022
0.000391542
0.000312915
0.000392646
0.00189732
0.00156668
0.00190403
0.00157205
0.000389404
0.000310405
0.000390518
0.00031131
0.000750062
0.000248731
0.000753823
0.000249861
0.000170076
0.000114466
0.000170663
0.000114738
0.000157523
0.000157485
0.000157703
0.000157664
0.000108809
0.000108806
0.000109034
0.000109032
0.000248377
0.000749427
0.000249503
0.000753185
0.000114439
0.000169981
0.000114711
0.000170567
0.00156652
0.00189805
0.00157189
0.00190477
0.000310363
0.000389485
0.000311268
0.0003906
0.00188519
0.00155711
0.0018919
0.00156247
0.00038734
0.000308732
0.000388456
0.000309643
0.000743413
0.000246707
0.000747162
0.000247824
0.000168973
0.000113905
0.000169566
0.000114187
0.000157184
0.000157147
0.000157361
0.000157323
0.000108327
0.000108325
0.000108564
0.000108561
0.000246359
0.000742781
0.000247473
0.000746528
0.000113878
0.000168878
0.000114161
0.000169471
0.00155694
0.00188592
0.00156231
0.00189263
0.00030869
0.000387421
0.0003096
0.000388537
0.00187315
0.00154759
0.0018798
0.00155291
0.000385288
0.000307059
0.000386396
0.000307968
0.00073683
0.000244717
0.000740537
0.000245814
0.000167861
0.000113324
0.000168457
0.000113616
0.000156848
0.000156811
0.000157022
0.000156985
0.000107823
0.000107821
0.000108071
0.000108068
0.000244375
0.000736202
0.000245469
0.000739907
0.000113298
0.000167767
0.00011359
0.000168363
0.00154743
0.00187387
0.00155274
0.00188052
0.000307017
0.000385368
0.000307926
0.000386476
0.0018613
0.00153824
0.00186784
0.00154346
0.000383267
0.0003054
0.000384358
0.0003063
0.000730374
0.000242778
0.000734009
0.000243846
0.000166749
0.000112726
0.000167344
0.000113026
0.000156518
0.000156482
0.000156686
0.00015665
0.0001073
0.000107298
0.000107557
0.000107555
0.000242442
0.000729749
0.000243507
0.000733382
0.0001127
0.000166656
0.000113
0.00016725
0.00153807
0.00186201
0.0015433
0.00186855
0.000305358
0.000383346
0.000306258
0.000384437
0.00184974
0.00152912
0.00185612
0.00153421
0.000381295
0.00030377
0.000382359
0.000304654
0.000724104
0.000240906
0.000727637
0.000241937
0.000165645
0.000112113
0.000166234
0.000112419
0.000156193
0.000156158
0.00015636
0.000156324
0.000106759
0.000106756
0.000107024
0.000107022
0.000240576
0.000723484
0.000241604
0.000727014
0.000112088
0.000165553
0.000112394
0.000166142
0.00152895
0.00185043
0.00153404
0.00185682
0.000303727
0.000381373
0.000304611
0.000382437
0.00183854
0.00152032
0.00184473
0.00152524
0.000379389
0.000302181
0.000380418
0.000303043
0.000718077
0.000239116
0.000721481
0.000240103
0.000164556
0.000111488
0.000165137
0.0001118
0.000155878
0.000155843
0.000156039
0.000156004
0.000106202
0.0001062
0.000106474
0.000106472
0.000238792
0.000717461
0.000239775
0.000720862
0.000111464
0.000164465
0.000111775
0.000165045
0.00152015
0.00183923
0.00152507
0.00184542
0.000302138
0.000379466
0.000303
0.000380495
0.00182765
0.00151185
0.00183371
0.00151661
0.000377558
0.000300646
0.00037855
0.00030148
0.00071233
0.000237421
0.000715592
0.000238358
0.000163491
0.000110855
0.000164059
0.000111171
0.000155576
0.000155542
0.000155731
0.000155697
0.000105632
0.00010563
0.000105911
0.000105908
0.000237102
0.000711717
0.000238036
0.000714977
0.000110831
0.0001634
0.000111147
0.000163968
0.00151167
0.00182833
0.00151644
0.0018344
0.000300603
0.000377634
0.000301437
0.000378626
0.00181583
0.00150288
0.0018227
0.00150814
0.000375747
0.000299133
0.000376747
0.000299969
0.000706578
0.000235794
0.00070994
0.000236708
0.000162445
0.000110217
0.000163006
0.000110535
0.000155288
0.000155254
0.000155437
0.000155403
0.000105051
0.000105049
0.000105335
0.000105333
0.000235481
0.000705971
0.000236391
0.000709329
0.000110193
0.000162355
0.000110511
0.000162915
0.00150271
0.0018165
0.00150797
0.00182337
0.00029909
0.000375821
0.000299926
0.000376823
0.00179578
0.00148684
0.0018084
0.00149727
0.000373394
0.000297124
0.000374809
0.000298357
0.000697478
0.000233703
0.000703416
0.000235004
0.000161239
0.000109562
0.000161934
0.000109892
0.000154993
0.00015496
0.000155151
0.000155118
0.000104462
0.00010446
0.00010475
0.000104748
0.000233398
0.000696884
0.000234693
0.000702813
0.000109538
0.00016115
0.000109868
0.000161845
0.00148667
0.00179642
0.0014971
0.00180906
0.000297081
0.000373467
0.000298313
0.000374883
0.00174369
0.00143125
0.00177689
0.00146893
0.000367687
0.000290447
0.000371471
0.000295104
0.000667391
0.000227638
0.000687405
0.000231618
0.000158131
0.000108718
0.000160226
0.000109195
0.000154504
0.000154473
0.000154792
0.00015476
0.000103845
0.000103843
0.00010416
0.000104158
0.000227355
0.000666825
0.000231321
0.000686822
0.000108695
0.000158046
0.000109172
0.000160139
0.00143107
0.00174428
0.00146875
0.00177751
0.000290404
0.000367755
0.000295061
0.000371542
0.00137645
0.00112411
0.000509817
0.000457047
0.00130428
0.00106491
0.000498823
0.000442617
0.000387804
0.00018
0.000205841
0.000157885
0.000364036
0.000176126
0.000205069
0.000158415
0.000147241
0.000147236
0.000158656
0.000158658
0.000147123
0.000147119
0.000158914
0.000158916
0.000179939
0.000387658
0.000157896
0.000205831
0.000176074
0.000363914
0.000158424
0.000205059
0.00112401
0.00137673
0.000457013
0.000509873
0.00106483
0.00130451
0.000442585
0.000498867
0.00239584
0.00196383
0.00200778
0.00163822
0.00223185
0.00182872
0.00188171
0.00153507
0.000989864
0.000319411
0.000743077
0.000231748
0.000903729
0.000294934
0.000683151
0.000219902
0.000164231
0.000164163
0.000151679
0.000151656
0.000162245
0.000162192
0.000150904
0.000150885
0.000318935
0.000989172
0.000231557
0.000742631
0.000294545
0.000903136
0.00021975
0.000682776
0.00196371
0.00239675
0.0016381
0.00200837
0.00182861
0.00223261
0.00153496
0.0018822
0.00271725
0.00223695
0.00261103
0.00214667
0.00251573
0.00206996
0.00242307
0.00199118
0.00120079
0.000403656
0.00113173
0.000375375
0.00108831
0.00036401
0.00102859
0.000340993
0.000175264
0.000175154
0.000171717
0.000171642
0.000171907
0.000171821
0.000169187
0.000169123
0.000402821
0.00119981
0.000374674
0.00113087
0.000363327
0.00108746
0.000340421
0.00102784
0.00223685
0.00271859
0.00214657
0.0026122
0.00206985
0.00251686
0.00199107
0.00242404
0.00278284
0.00229216
0.00276535
0.0022776
0.0025711
0.00211671
0.0025567
0.00210463
0.00124136
0.000419768
0.001231
0.000415808
0.00112234
0.000376759
0.00111383
0.000373696
0.000176924
0.000176805
0.000176567
0.000176451
0.000173304
0.000173212
0.000173043
0.000172953
0.000418839
0.00124029
0.000414904
0.00122996
0.000376
0.00112141
0.000372958
0.00111293
0.00229206
0.00278433
0.0022775
0.0027668
0.0021166
0.00257234
0.00210452
0.0025579
0.00278965
0.00229777
0.00278974
0.00229789
0.00257622
0.00212104
0.00257654
0.00212127
0.00124502
0.00042088
0.00124531
0.000421118
0.00112513
0.000377546
0.00112544
0.000377752
0.000177006
0.000176886
0.000177035
0.000176915
0.000173358
0.000173265
0.000173381
0.000173288
0.000419942
0.00124394
0.000420179
0.00124422
0.000376782
0.0011242
0.000376987
0.00112451
0.00229767
0.00279118
0.00229779
0.00279126
0.00212093
0.00257748
0.00212116
0.00257781
0.002789
0.0022972
0.0027906
0.00229858
0.00257543
0.00212034
0.0025769
0.0021216
0.00124463
0.000420612
0.00124568
0.000421103
0.00112468
0.000377276
0.00112561
0.000377688
0.000176951
0.000176831
0.000177015
0.000176895
0.000173302
0.000173209
0.000173359
0.000173266
0.000419672
0.00124355
0.000420163
0.00124459
0.000376512
0.00112375
0.000376923
0.00112468
0.0022971
0.00279053
0.00229848
0.00279213
0.00212023
0.0025767
0.00212149
0.00257817
0.00278651
0.0022951
0.00278875
0.00229701
0.00257312
0.00211839
0.00257511
0.00212009
0.00124306
0.000419851
0.00124452
0.000420506
0.00112325
0.000376619
0.00112453
0.000377164
0.000176865
0.000176746
0.00017694
0.00017682
0.000173227
0.000173134
0.000173292
0.0001732
0.000418912
0.00124197
0.000419565
0.00124344
0.000375857
0.00112231
0.0003764
0.0011236
0.002295
0.00278804
0.00229691
0.00279027
0.00211828
0.00257439
0.00211998
0.00257638
0.00278332
0.00229242
0.00278585
0.00229458
0.0025702
0.00211593
0.00257246
0.00211786
0.00124103
0.000418875
0.00124269
0.00041962
0.0011214
0.000375771
0.00112286
0.000376398
0.00017675
0.000176631
0.000176839
0.00017672
0.000173126
0.000173034
0.000173203
0.000173111
0.000417937
0.00123994
0.00041868
0.0012416
0.00037501
0.00112046
0.000375636
0.00112193
0.00229231
0.00278483
0.00229447
0.00278738
0.00211582
0.00257146
0.00211775
0.00257373
0.00277966
0.00228938
0.00278244
0.00229172
0.00256684
0.00211315
0.00256936
0.00211525
0.00123873
0.000417822
0.00124052
0.000418599
0.00111931
0.000374865
0.00112089
0.000375517
0.000176645
0.000176526
0.00017673
0.000176611
0.000173036
0.000172944
0.00017311
0.000173018
0.000416887
0.00123764
0.000417661
0.00123942
0.000374106
0.00111837
0.000374757
0.00111996
0.00228927
0.00278118
0.00229161
0.00278396
0.00211304
0.0025681
0.00211514
0.00257062
0.00277561
0.00228604
0.00277864
0.00228855
0.00256311
0.00211009
0.00256586
0.00211234
0.00123622
0.000416669
0.00123812
0.000417502
0.00111702
0.000373861
0.00111871
0.000374567
0.000176518
0.0001764
0.000176613
0.000176494
0.000172924
0.000172833
0.000173007
0.000172916
0.000415736
0.00123513
0.000416566
0.00123703
0.000373104
0.00111608
0.000373809
0.00111778
0.00228593
0.00277712
0.00228844
0.00278015
0.00210998
0.00256437
0.00211223
0.00256712
0.00277118
0.0022824
0.00277445
0.00228508
0.00255901
0.00210675
0.00256196
0.00210917
0.0012335
0.000415468
0.00123552
0.000416327
0.00111453
0.000372816
0.00111634
0.000373547
0.000176403
0.000176286
0.000176494
0.000176376
0.000172824
0.000172734
0.000172903
0.000172813
0.000414537
0.00123241
0.000415394
0.00123443
0.000372062
0.00111359
0.00037279
0.0011154
0.00228228
0.00277269
0.00228497
0.00277595
0.00210663
0.00256026
0.00210905
0.00256322
0.00276636
0.00227845
0.00276985
0.00228131
0.00255451
0.00210311
0.00255768
0.00210571
0.00123057
0.000414159
0.00123271
0.000415081
0.00111183
0.000371665
0.00111376
0.000372456
0.000176266
0.000176149
0.000176367
0.00017625
0.000172702
0.000172612
0.000172791
0.000172701
0.000413232
0.00122948
0.000414151
0.00123162
0.000370912
0.00111089
0.000371701
0.00111282
0.00227834
0.00276786
0.0022812
0.00277135
0.00210299
0.00255575
0.00210559
0.00255893
0.0027611
0.00227418
0.00276482
0.00227724
0.00254956
0.00209915
0.00255297
0.00210194
0.00122741
0.000412787
0.00122969
0.000413745
0.00110889
0.000370456
0.00111096
0.000371281
0.000176139
0.000176023
0.000176236
0.00017612
0.00017259
0.000172501
0.000172676
0.000172586
0.000411864
0.00122632
0.000412819
0.0012286
0.000369707
0.00110795
0.000370529
0.00111002
0.00227406
0.0027626
0.00227713
0.00276632
0.00209902
0.0025508
0.00210181
0.00255422
0.00275539
0.00226955
0.00275935
0.00227281
0.00254411
0.00209481
0.00254778
0.0020978
0.00122399
0.000411292
0.00122641
0.000412321
0.00110568
0.000369127
0.00110791
0.000370019
0.00017599
0.000175875
0.000176097
0.000175982
0.000172457
0.000172369
0.000172552
0.000172463
0.000410373
0.0012229
0.000411398
0.00122533
0.000368382
0.00110475
0.000369271
0.00110697
0.00226943
0.00275688
0.0022727
0.00276084
0.00209468
0.00254535
0.00209768
0.00254902
0.00274915
0.00226454
0.00275339
0.00226802
0.00253815
0.00209005
0.00254209
0.00209326
0.00122029
0.000409717
0.00122288
0.000410792
0.0011022
0.000367725
0.00110458
0.000368657
0.000175849
0.000175735
0.000175953
0.000175838
0.000172331
0.000172243
0.000172424
0.000172335
0.000408803
0.0012192
0.000409874
0.00122179
0.000366984
0.00110127
0.000367913
0.00110365
0.00226442
0.00275063
0.0022679
0.00275487
0.00208993
0.00253939
0.00209313
0.00254332
0.00274234
0.00225911
0.00274687
0.0022628
0.00253166
0.00208489
0.00253587
0.00208831
0.00121628
0.000408036
0.00121905
0.000409175
0.00109843
0.000366214
0.00110097
0.000367207
0.000175704
0.000175591
0.000175811
0.000175698
0.000172196
0.000172109
0.000172295
0.000172207
0.000407127
0.0012152
0.000408261
0.00121797
0.000365477
0.0010975
0.000366467
0.00110003
0.00225898
0.00274382
0.00226268
0.00274835
0.00208476
0.00253288
0.00208818
0.0025371
0.00273498
0.00225323
0.00273979
0.00225716
0.00252458
0.00207929
0.00252909
0.00208293
0.00121197
0.000406234
0.00121491
0.000407437
0.00109434
0.000364583
0.00109704
0.000365637
0.000175547
0.000175435
0.000175661
0.000175548
0.000172048
0.000171962
0.000172153
0.000172066
0.000405329
0.00121089
0.000406528
0.00121383
0.000363851
0.00109341
0.000364902
0.00109611
0.0022531
0.00273644
0.00225703
0.00274127
0.00207915
0.0025258
0.0020828
0.00253032
0.00272698
0.00224686
0.00273212
0.00225104
0.00251687
0.00207319
0.00252171
0.0020771
0.00120733
0.000404309
0.00121044
0.000405574
0.00108991
0.000362836
0.00109279
0.00036395
0.000175379
0.000175268
0.000175498
0.000175386
0.00017189
0.000171804
0.000171999
0.000171913
0.00040341
0.00120625
0.000404672
0.00120936
0.000362109
0.00108899
0.000363219
0.00109186
0.00224673
0.00272844
0.00225091
0.00273359
0.00207306
0.00251808
0.00207697
0.00252292
0.00271835
0.00223998
0.00272381
0.00224442
0.00250852
0.00206656
0.00251368
0.00207073
0.00120235
0.000402261
0.00120563
0.000403591
0.00108515
0.000360973
0.0010882
0.000362147
0.000175202
0.000175092
0.000175326
0.000175215
0.000171722
0.000171637
0.000171836
0.000171751
0.000401369
0.00120127
0.000402693
0.00120455
0.000360251
0.00108422
0.000361421
0.00108727
0.00223985
0.0027198
0.00224429
0.00272527
0.00206642
0.00250973
0.0020706
0.00251489
0.00270907
0.0022326
0.00271486
0.0022373
0.00249954
0.00205944
0.00250502
0.00206386
0.00119702
0.000400091
0.00120048
0.000401483
0.00108003
0.000358993
0.00108326
0.000360227
0.000175018
0.000174909
0.000175145
0.000175036
0.000171546
0.000171462
0.000171665
0.00017158
0.000399205
0.00119594
0.000400592
0.00119941
0.000358277
0.00107911
0.000359506
0.00108234
0.00223247
0.00271051
0.00223716
0.00271631
0.0020593
0.00250074
0.00206372
0.00250623
0.00269913
0.0022247
0.00270525
0.00222966
0.00248991
0.0020518
0.00249572
0.00205648
0.00119133
0.000397797
0.00119498
0.000399252
0.00107457
0.000356896
0.00107798
0.000358189
0.000174827
0.000174719
0.000174957
0.000174849
0.000171362
0.000171279
0.000171485
0.000171401
0.000396917
0.00119026
0.000398368
0.0011939
0.000356186
0.00107364
0.000357474
0.00107705
0.00222456
0.00270056
0.00222952
0.00270669
0.00205166
0.0024911
0.00205634
0.00249691
0.00268852
0.00221629
0.00269497
0.0022215
0.00247963
0.00204365
0.00248576
0.00204859
0.00118529
0.000395379
0.00118912
0.000396898
0.00106875
0.000354683
0.00107234
0.000356034
0.000174628
0.000174522
0.000174762
0.000174655
0.000171171
0.000171089
0.000171297
0.000171214
0.000394507
0.00118422
0.00039602
0.00118805
0.00035398
0.00106783
0.000355326
0.00107142
0.00221614
0.00268994
0.00222136
0.0026964
0.0020435
0.00248081
0.00204844
0.00248695
0.00267725
0.00220736
0.00268403
0.00221283
0.00246871
0.002035
0.00247516
0.00204019
0.0011789
0.000392843
0.0011829
0.00039442
0.0010626
0.00035236
0.00106635
0.000353765
0.000174424
0.000174319
0.000174561
0.000174455
0.000170973
0.000170892
0.000171102
0.000171021
0.000391978
0.00117783
0.000393551
0.00118183
0.000351664
0.00106168
0.000353064
0.00106544
0.00220721
0.00267866
0.00221268
0.00268545
0.00203485
0.00246988
0.00204004
0.00247633
0.00266535
0.00219793
0.00267245
0.00220365
0.00245718
0.00202588
0.00246393
0.0020313
0.00117216
0.000390193
0.00117634
0.000391826
0.00105612
0.000349934
0.00106004
0.000351389
0.000174214
0.000174111
0.000174354
0.00017425
0.00017077
0.00017069
0.000170902
0.000170821
0.000389337
0.0011711
0.000390964
0.00117527
0.000349245
0.0010552
0.000350695
0.00105912
0.00219777
0.00266675
0.0022035
0.00267385
0.00202573
0.00245833
0.00203115
0.00246509
0.00265285
0.00218802
0.00266024
0.00219397
0.00244507
0.0020163
0.0024521
0.00202195
0.0011651
0.000387439
0.00116944
0.000389124
0.00104933
0.000347413
0.0010534
0.000348915
0.000174001
0.000173899
0.000174142
0.000174039
0.000170564