/*--------------------------------*- C++ -*----------------------------------*\
  =========                 |
  \\      /  F ield         | OpenFOAM: The Open Source CFD Toolbox
   \\    /   O peration     | Website:  https://openfoam.org
    \\  /    A nd           | Version:  9
     \\/     M anipulation  |
\*---------------------------------------------------------------------------*/
FoamFile
{
    format      ascii;
    class       volScalarField;
    location    "2.2";
    object      k;
}
// * * * * * * * * * * * * * * * * * * * * * * * * * * * * * * * * * * * * * //

dimensions      [0 2 -2 0 0 0 0];

internalField   nonuniform List<scalar> 
36360
(
0.0754046
0.0611363
0.0311822
0.0277973
0.016692
0.0126949
0.00554946
0.00492265
0.0221305
0.0056503
0.00641442
0.00298857
0.00460814
0.00239239
0.00311195
0.00296773
0.00225565
0.00225536
0.00274073
0.00274083
0.00216902
0.002169
0.00298245
0.00298245
0.0056517
0.0221402
0.00298855
0.00641664
0.00239226
0.00460917
0.00296774
0.00311199
0.0611553
0.0754261
0.0278081
0.0311945
0.0127001
0.0166985
0.00492374
0.00555061
0.130167
0.107637
0.10732
0.0876513
0.0417034
0.0315674
0.0310379
0.0231283
0.056069
0.0260526
0.0405782
0.0145752
0.0158449
0.00579164
0.00945604
0.00318393
0.00970267
0.0097047
0.00381946
0.00381946
0.00215617
0.00215601
0.00176346
0.00176331
0.0260634
0.0560913
0.0145802
0.040594
0.00579257
0.0158512
0.00318401
0.00945938
0.10767
0.130202
0.087677
0.107348
0.0315798
0.0417181
0.0231373
0.0310489
0.159621
0.134373
0.146934
0.12273
0.0550916
0.0430222
0.0494024
0.0380591
0.0786218
0.0457719
0.0685478
0.0365415
0.025345
0.0135156
0.0211252
0.009788
0.0296772
0.0296858
0.0200966
0.0201023
0.00720432
0.00720581
0.0039037
0.00390405
0.0457963
0.0786598
0.036559
0.0685775
0.013522
0.0253583
0.00979138
0.0211348
0.134422
0.159673
0.12277
0.146977
0.0430422
0.0551141
0.0380751
0.0494207
0.176874
0.150484
0.169346
0.143419
0.0626436
0.049791
0.0593753
0.04684
0.0931457
0.0598217
0.0867068
0.0535254
0.031336
0.0193244
0.0286951
0.0167166
0.044289
0.0443023
0.0377622
0.0377733
0.0132858
0.0132901
0.0104995
0.0105025
0.059859
0.0932012
0.0535564
0.0867536
0.0193371
0.0313572
0.0167264
0.0287123
0.150552
0.176947
0.143478
0.169408
0.0498199
0.0626755
0.0468644
0.0594023
0.187046
0.160093
0.182647
0.15593
0.0669941
0.053758
0.065124
0.0520488
0.102033
0.0685855
0.0981729
0.0647768
0.0349393
0.0229225
0.0333828
0.0213693
0.0532829
0.0533
0.0493889
0.0494041
0.0171241
0.0171304
0.0154752
0.0154806
0.0686337
0.102105
0.0648198
0.0982368
0.0229405
0.0349678
0.0213848
0.0334078
0.16018
0.187138
0.156008
0.182729
0.0537955
0.0670352
0.0520822
0.0651606
0.192713
0.165462
0.190314
0.16319
0.0693706
0.0559328
0.0683715
0.055019
0.107029
0.0735033
0.104918
0.0714287
0.0369262
0.0248889
0.0360926
0.0240688
0.0582721
0.0582922
0.0561733
0.056192
0.0191825
0.0191901
0.0183295
0.0183365
0.0735603
0.107114
0.0714817
0.104996
0.0249107
0.0369605
0.0240889
0.0361242
0.165564
0.192821
0.163285
0.190415
0.0559773
0.0694192
0.0550603
0.0684166
0.195568
0.168165
0.1944
0.16706
0.0705432
0.0570013
0.0700674
0.0565688
0.109543
0.0759654
0.108519
0.074964
0.0379025
0.0258365
0.0375086
0.0254575
0.0607486
0.0607709
0.0597435
0.0597648
0.0201553
0.0201638
0.0197689
0.019777
0.0760285
0.109636
0.0750244
0.108608
0.0258609
0.0379407
0.0254808
0.037545
0.168279
0.195688
0.167169
0.194515
0.0570507
0.0705971
0.056616
0.0701188
0.196789
0.169323
0.19632
0.168878
0.0710335
0.0574424
0.0708468
0.0572756
0.11062
0.0770226
0.110207
0.0766168
0.0383094
0.0262231
0.0381557
0.0260787
0.0618068
0.0618303
0.0614006
0.0614236
0.0205444
0.0205534
0.0204004
0.0204092
0.0770894
0.11072
0.0766821
0.110304
0.026249
0.0383498
0.026104
0.0381952
0.169443
0.196916
0.168995
0.196444
0.0574947
0.0710905
0.0573266
0.0709024
0.197131
0.169659
0.197029
0.169555
0.0711669
0.0575575
0.0711287
0.0575258
0.110947
0.0773559
0.110844
0.0772476
0.0384267
0.0263333
0.0383914
0.0263005
0.0621443
0.0621684
0.0620328
0.0620567
0.0206531
0.0206623
0.020621
0.0206301
0.0774245
0.111049
0.0773155
0.110945
0.0263599
0.0384682
0.0263268
0.0384325
0.169783
0.197263
0.169677
0.197159
0.0576112
0.0712256
0.0575789
0.0711866
0.197054
0.169609
0.197119
0.169657
0.07114
0.057528
0.0711632
0.0575515
0.110927
0.0773613
0.110959
0.077379
0.0384179
0.0263279
0.038429
0.0263365
0.0621601
0.0621845
0.062172
0.0621963
0.020648
0.0206573
0.020656
0.0206653
0.0774306
0.11103
0.0774481
0.111061
0.0263547
0.0384597
0.0263632
0.0384708
0.169734
0.197187
0.169781
0.197251
0.0575822
0.0711992
0.0576054
0.071222
0.196761
0.169369
0.196919
0.169499
0.0710292
0.0574249
0.0710887
0.05748
0.110743
0.0772168
0.110847
0.0773015
0.0383465
0.0262672
0.0383868
0.0263025
0.0620334
0.0620578
0.0621091
0.0621335
0.0205896
0.0205989
0.0206238
0.0206332
0.0772863
0.110846
0.077371
0.11095
0.026294
0.0383884
0.0263293
0.0384288
0.169494
0.196894
0.169624
0.197052
0.0574792
0.0710885
0.0575343
0.0711479
0.196355
0.169032
0.196563
0.169204
0.0708775
0.0572867
0.0709551
0.0573572
0.110476
0.0769958
0.110615
0.0771111
0.0382449
0.0261797
0.0382979
0.0262261
0.0618324
0.0618568
0.0619371
0.0619615
0.0205056
0.0205149
0.0205504
0.0205597
0.0770651
0.110579
0.0771805
0.110718
0.0262064
0.0382867
0.0262528
0.0383398
0.169157
0.196488
0.169329
0.196696
0.0573408
0.0709367
0.0574114
0.0710142
0.195873
0.168635
0.196116
0.168834
0.0706981
0.0571253
0.0707883
0.0572062
0.11016
0.0767301
0.110321
0.0768656
0.0381238
0.0260754
0.0381857
0.0261294
0.0615891
0.0616134
0.061713
0.0617373
0.0204056
0.0204149
0.0204576
0.0204669
0.0767991
0.110263
0.0769348
0.110424
0.026102
0.0381654
0.0261561
0.0382274
0.16876
0.196005
0.168959
0.196248
0.0571791
0.0707571
0.0572602
0.0708473
0.195331
0.168192
0.195603
0.168413
0.0704969
0.0569456
0.0705976
0.0570354
0.109807
0.0764311
0.109985
0.0765825
0.0379876
0.025958
0.0380568
0.0260183
0.0613141
0.0613382
0.0614531
0.0614773
0.0202932
0.0203024
0.0203511
0.0203604
0.0764998
0.109909
0.0766514
0.110088
0.0259844
0.0380289
0.0260448
0.0380982
0.168316
0.195463
0.168537
0.195735
0.0569992
0.0705555
0.0570891
0.0706563
0.194732
0.167705
0.195033
0.167948
0.0702746
0.0567481
0.0703859
0.0568468
0.109419
0.076102
0.109615
0.0762683
0.0378371
0.0258283
0.0379133
0.0258946
0.0610102
0.0610343
0.0611635
0.0611876
0.020169
0.0201782
0.0202328
0.0202419
0.0761702
0.109521
0.0763368
0.109717
0.0258545
0.0378782
0.0259209
0.0379546
0.167828
0.194863
0.168071
0.195164
0.0568014
0.0703328
0.0569002
0.0704442
0.194076
0.167175
0.194405
0.16744
0.0700313
0.0565327
0.0701531
0.0566405
0.108998
0.0757428
0.10921
0.0759242
0.0376723
0.0256861
0.0377557
0.0257587
0.0606777
0.0607016
0.0608454
0.0608693
0.020033
0.020042
0.0201026
0.0201117
0.0758105
0.109099
0.0759923
0.109312
0.0257122
0.0377131
0.0257848
0.0377967
0.167297
0.194206
0.167562
0.194535
0.0565856
0.0700892
0.0566935
0.0702111
0.193361
0.1666
0.19372
0.166888
0.0697662
0.0562986
0.069899
0.0564158
0.108541
0.0753525
0.108772
0.0755497
0.0374928
0.025531
0.0375836
0.0256101
0.0603156
0.0603393
0.0604983
0.060522
0.0198844
0.0198934
0.0199604
0.0199694
0.0754197
0.108641
0.0756172
0.108872
0.0255568
0.0375332
0.025636
0.0376242
0.166722
0.19349
0.167009
0.193849
0.0563511
0.0698237
0.0564684
0.0699567
0.192585
0.165979
0.192975
0.16629
0.0694783
0.0560449
0.0696227
0.056172
0.108047
0.0749296
0.108297
0.0751433
0.0372977
0.0253623
0.0373964
0.0254482
0.0599225
0.059946
0.0601208
0.0601444
0.0197228
0.0197317
0.0198053
0.0198143
0.0749964
0.108147
0.0752104
0.108396
0.0253879
0.0373378
0.0254739
0.0374367
0.166099
0.192713
0.166411
0.193103
0.0560969
0.0695354
0.0562242
0.0696799
0.191744
0.165309
0.192167
0.165644
0.0691666
0.0557704
0.069323
0.055908
0.107515
0.0744728
0.107784
0.0747037
0.0370864
0.0251795
0.0371933
0.0252724
0.059497
0.0595203
0.0597117
0.0597351
0.0195475
0.0195563
0.0196369
0.0196457
0.074539
0.107613
0.0747702
0.107882
0.0252048
0.0371262
0.0252979
0.0372332
0.165428
0.191871
0.165764
0.192294
0.055822
0.0692231
0.0559598
0.0693797
0.190838
0.164588
0.191294
0.164949
0.0688304
0.0554744
0.0689991
0.0556229
0.106942
0.0739809
0.107231
0.0742295
0.0368584
0.0249819
0.0369736
0.0250822
0.0590381
0.0590612
0.0592696
0.0592929
0.019358
0.0193667
0.0194545
0.0194632
0.0740466
0.107039
0.0742955
0.107329
0.0250069
0.0368977
0.0251074
0.0370132
0.164706
0.190964
0.165068
0.19142
0.0555255
0.0688865
0.0556742
0.0690554
0.189865
0.163816
0.190354
0.164203
0.0684691
0.0551559
0.0686504
0.0553156
0.106328
0.0734531
0.106638
0.0737198
0.0366131
0.0247692
0.036737
0.0248771
0.058545
0.0585679
0.0587937
0.0588167
0.0191538
0.0191625
0.0192576
0.0192663
0.0735181
0.106424
0.0737851
0.106735
0.024794
0.036652
0.024902
0.0367761
0.163933
0.18999
0.164321
0.19048
0.0552065
0.0685246
0.0553665
0.0687062
0.188825
0.162991
0.189348
0.163404
0.0680825
0.0548146
0.0682765
0.0549858
0.105672
0.0728889
0.106003
0.0731738
0.0363503
0.0245413
0.0364829
0.0246568
0.0580173
0.05804
0.0582834
0.0583062
0.0189349
0.0189434
0.019046
0.0190546
0.0729532
0.105768
0.0732385
0.106099
0.0245657
0.0363887
0.0246814
0.0365216
0.163107
0.188948
0.163521
0.189472
0.0548647
0.0681375
0.0550361
0.0683317
0.187718
0.162115
0.188274
0.162554
0.0676708
0.0544505
0.0678774
0.0546331
0.104975
0.0722886
0.105327
0.0725916
0.0360702
0.0242981
0.0362115
0.0244212
0.0574553
0.0574777
0.0577385
0.0577611
0.0187011
0.0187095
0.0188196
0.0188281
0.0723522
0.10507
0.0726556
0.105422
0.0243223
0.0361082
0.0244455
0.0362497
0.162229
0.18784
0.162669
0.188396
0.0545
0.0677252
0.0546829
0.067932
0.186545
0.161188
0.187134
0.161652
0.0672349
0.0540659
0.0674535
0.0542582
0.104238
0.0716529
0.104609
0.0719735
0.0357734
0.02404
0.0359229
0.0241705
0.0568594
0.0568816
0.0571595
0.0571818
0.0184527
0.018461
0.0185784
0.0185868
0.0717158
0.104331
0.0720368
0.104703
0.0240638
0.0358108
0.0241945
0.0359606
0.161301
0.186666
0.161766
0.187255
0.0541148
0.0672886
0.0543074
0.0675074
0.18531
0.160212
0.18593
0.1607
0.0667756
0.053662
0.0670057
0.0538642
0.103462
0.070983
0.103853
0.0713206
0.0354601
0.0237673
0.0356178
0.023905
0.0562308
0.0562527
0.0565472
0.0565692
0.0181899
0.0181981
0.0183228
0.018331
0.071045
0.103554
0.071383
0.103945
0.0237907
0.035497
0.0239286
0.035655
0.160324
0.18543
0.160813
0.186049
0.0537102
0.0668286
0.0539128
0.067059
0.184018
0.159191
0.184665
0.159702
0.0662945
0.0532382
0.0665353
0.0534502
0.102649
0.0702806
0.103058
0.0706341
0.0351313
0.0234808
0.0352966
0.0236252
0.0555712
0.0555928
0.0559028
0.0559246
0.0179136
0.0179217
0.0180531
0.0180612
0.0703418
0.10274
0.0706958
0.103149
0.0235038
0.0351676
0.0236485
0.0353332
0.159301
0.184136
0.159813
0.184784
0.0532857
0.0663468
0.0534981
0.0665879
0.182674
0.158128
0.183347
0.158659
0.0657936
0.0527967
0.0660441
0.0530173
0.101802
0.0695487
0.102228
0.0699167
0.0347882
0.0231815
0.0349605
0.0233321
0.0548831
0.0549044
0.0552287
0.0552501
0.0176248
0.0176327
0.0177703
0.0177783
0.069609
0.101892
0.0699775
0.102318
0.0232041
0.0348239
0.023355
0.0349965
0.158237
0.18279
0.158769
0.183463
0.0528435
0.0658452
0.0530645
0.0660959
0.181284
0.157029
0.181979
0.157578
0.0652755
0.0523398
0.0655343
0.0525679
0.100927
0.0687906
0.101366
0.0691713
0.0344324
0.0228708
0.0346108
0.023027
0.0541698
0.0541908
0.0545276
0.0545487
0.0173247
0.0173324
0.0174757
0.0174835
0.0688501
0.101015
0.0692312
0.101455
0.022893
0.0344675
0.0230494
0.0346463
0.157137
0.181399
0.157686
0.182094
0.0523859
0.0653263
0.0526143
0.0655854
0.179857
0.155899
0.18057
0.156463
0.0647429
0.0518692
0.0650086
0.052104
0.100026
0.0680101
0.100477
0.0684016
0.0340654
0.0225503
0.0342492
0.0227112
0.0534348
0.0534555
0.053803
0.0538239
0.017015
0.0170225
0.0171705
0.0171782
0.0680686
0.100112
0.0684605
0.100565
0.0225721
0.0340999
0.0227332
0.034284
0.156005
0.17997
0.156569
0.180683
0.0519145
0.0647928
0.0521498
0.0650589
0.1784
0.154745
0.179127
0.15532
0.0641985
0.0513865
0.0644698
0.0516269
0.0991037
0.0672109
0.0995654
0.0676114
0.0336892
0.0222217
0.0338774
0.0223864
0.0526818
0.0527021
0.0530587
0.0530792
0.0166972
0.0167046
0.0168566
0.0168641
0.0672684
0.0991891
0.0676694
0.0996516
0.022243
0.033723
0.0224079
0.0339115
0.154848
0.178511
0.155425
0.179238
0.051431
0.0642476
0.0516718
0.0645193
0.176916
0.153567
0.177656
0.154154
0.0636441
0.0508951
0.0639204
0.0511398
0.0981629
0.066395
0.0986342
0.0668038
0.0333052
0.0218862
0.0334972
0.0220542
0.0519127
0.0519327
0.0522976
0.0523178
0.0163728
0.0163801
0.0165354
0.0165427
0.0664515
0.0982467
0.0668608
0.0987188
0.0219071
0.0333383
0.0220753
0.0335307
0.153669
0.177025
0.154257
0.177766
0.0509388
0.0636924
0.0511839
0.063969
0.175402
0.152362
0.176158
0.152964
0.0630789
0.0503938
0.063361
0.0506439
0.0971993
0.0655598
0.097683
0.0659791
0.0329126
0.0215438
0.0331092
0.0217154
0.0511256
0.0511452
0.0515202
0.05154
0.0160421
0.0160492
0.0162079
0.016215
0.0656151
0.0972815
0.066035
0.097766
0.0215641
0.032945
0.021736
0.033142
0.152462
0.175509
0.153065
0.176266
0.0504366
0.0631263
0.0506871
0.0634088
0.173842
0.151112
0.174625
0.151739
0.0624965
0.0498769
0.0627885
0.0501359
0.0961988
0.0646931
0.0967037
0.0651305
0.0325072
0.0211913
0.0327111
0.0213686
0.0503092
0.0503284
0.0507208
0.0507402
0.0157025
0.0157094
0.0158733
0.0158803
0.0647472
0.0962791
0.0651853
0.096785
0.0212111
0.0325388
0.0213887
0.0327431
0.15121
0.173947
0.151838
0.17473
0.0499188
0.0625428
0.0501783
0.0628353
0.172195
0.14978
0.173029
0.150455
0.0618806
0.0493308
0.0621922
0.0496068
0.0951279
0.0637652
0.0956738
0.0642385
0.0320777
0.0208195
0.0322956
0.0210082
0.0494353
0.049454
0.0498807
0.0498997
0.0153459
0.0153526
0.0155268
0.0155335
0.0638179
0.0952062
0.064292
0.0957532
0.0208388
0.0321084
0.0210277
0.0323268
0.149875
0.172297
0.150552
0.173132
0.0493717
0.0619258
0.0496482
0.062238
0.170381
0.148292
0.171311
0.149057
0.0611991
0.0487295
0.0615489
0.0490374
0.0939226
0.062717
0.0945462
0.0632602
0.031601
0.0204085
0.0318463
0.0206202
0.0484461
0.0484643
0.0489588
0.0489772
0.0149533
0.0149597
0.0151554
0.0151619
0.0627681
0.0939985
0.0633122
0.0946234
0.0204271
0.0316307
0.0206391
0.0318766
0.148384
0.17048
0.149151
0.171411
0.048769
0.061243
0.0490776
0.0615934
0.168266
0.146525
0.169367
0.147449
0.0603962
0.0480287
0.0608154
0.0483932
0.092472
0.0614444
0.0932359
0.0621164
0.0310362
0.0199209
0.0313322
0.0201769
0.0472399
0.0472574
0.0478772
0.047895
0.014488
0.0144941
0.0147324
0.0147387
0.0614936
0.0925451
0.0621666
0.0933105
0.0199385
0.0310647
0.0201951
0.0313614
0.146614
0.168361
0.14754
0.169464
0.0480668
0.0604385
0.0484321
0.0608585
0.165665
0.14428
0.167033
0.145475
0.0593891
0.0471602
0.0599222
0.0476191
0.0905842
0.0597743
0.0915986
0.0606722
0.0303118
0.0192916
0.0306994
0.0196288
0.0456578
0.0456744
0.0465064
0.0465234
0.0138886
0.0138943
0.0142095
0.0142154
0.0598211
0.0906539
0.0607203
0.0916701
0.0193082
0.0303388
0.019646
0.0307272
0.144365
0.165756
0.145562
0.167126
0.0471966
0.0594296
0.0476563
0.0599636
0.162507
0.141098
0.164131
0.142858
0.0581116
0.0460044
0.05878
0.0466292
0.0878483
0.0574361
0.0893644
0.0587075
0.0292858
0.0184177
0.0298494
0.0188922
0.0435177
0.0435334
0.0446636
0.0446798
0.0130754
0.0130807
0.0135126
0.013518
0.0574801
0.0879142
0.058753
0.0894323
0.018433
0.029311
0.0189083
0.0298756
0.141179
0.162595
0.142942
0.16422
0.0460389
0.0581503
0.0466646
0.0588194
0.160567
0.134141
0.161087
0.138644
0.0566324
0.0436627
0.0574213
0.0451552
0.0831164
0.0542267
0.085853
0.055926
0.0276163
0.0172192
0.0285644
0.0178544
0.0409091
0.0409236
0.0422349
0.0422499
0.012046
0.0120506
0.0125774
0.0125823
0.0542673
0.0831773
0.0559684
0.0859167
0.0172329
0.0276392
0.017869
0.0285886
0.134218
0.160655
0.138724
0.161174
0.0436946
0.05667
0.0451887
0.0574592
0.112516
0.0914463
0.0535146
0.0439472
0.0988533
0.0800974
0.0448009
0.0371388
0.0408788
0.0126191
0.0111376
0.00396299
0.0332706
0.00935491
0.008922
0.00347994
0.00364925
0.0036498
0.00267724
0.00267718
0.00300823
0.00300825
0.00267846
0.00267856
0.0126265
0.0409017
0.0039636
0.0111458
0.00935914
0.0332874
0.00348016
0.0089271
0.0914814
0.112555
0.0439727
0.0535431
0.080125
0.0988843
0.0371574
0.0448219
0.188148
0.157236
0.155879
0.128574
0.166693
0.138614
0.138045
0.113346
0.0920373
0.0502845
0.068656
0.0314213
0.0778863
0.04008
0.0576588
0.0242654
0.0275672
0.0275763
0.0110695
0.0110735
0.0192925
0.0192983
0.0074019
0.00740348
0.0503107
0.0920794
0.0314377
0.0686875
0.040099
0.0779192
0.0242763
0.0576831
0.157291
0.188207
0.128618
0.155927
0.138658
0.166741
0.113382
0.138084
0.231954
0.197439
0.212776
0.179665
0.204699
0.173284
0.188184
0.158065
0.127219
0.0825939
0.111342
0.0676069
0.107711
0.0669764
0.0943288
0.0544958
0.0603836
0.0604006
0.0450816
0.045095
0.0467758
0.046789
0.0339208
0.0339307
0.0826401
0.127286
0.0676434
0.111396
0.0670127
0.107765
0.0545237
0.0943717
0.19752
0.232041
0.179731
0.212847
0.17335
0.20477
0.158119
0.188243
0.258753
0.222694
0.24696
0.211526
0.227461
0.194626
0.217488
0.185228
0.15052
0.105231
0.140128
0.0950756
0.127161
0.0858075
0.118514
0.0773703
0.0833961
0.0834193
0.0730943
0.0731145
0.0660841
0.0661029
0.0574565
0.0574726
0.105296
0.150613
0.095131
0.140208
0.0858597
0.127237
0.0774147
0.118579
0.222805
0.258871
0.211622
0.247062
0.194718
0.227559
0.185307
0.217572
0.274972
0.238179
0.267911
0.231423
0.24105
0.207534
0.235154
0.201922
0.165116
0.119576
0.158729
0.113294
0.139206
0.0976425
0.133953
0.0924769
0.097876
0.0979047
0.0915456
0.0915716
0.078107
0.0781306
0.0728717
0.072893
0.119656
0.165233
0.113367
0.158834
0.0977086
0.139303
0.0925363
0.13404
0.238317
0.27512
0.231548
0.268044
0.20765
0.241173
0.202026
0.235265
0.284223
0.247068
0.280281
0.243276
0.248708
0.214849
0.245456
0.211741
0.173567
0.127888
0.169961
0.124342
0.146089
0.104406
0.143164
0.101535
0.106224
0.106257
0.102668
0.102699
0.0849278
0.0849553
0.0820372
0.0820629
0.127981
0.173703
0.12443
0.170088
0.104483
0.146202
0.101607
0.143269
0.24723
0.284396
0.243427
0.280442
0.214984
0.248852
0.211867
0.24559
0.289012
0.251692
0.287037
0.249783
0.252615
0.218596
0.251011
0.217056
0.177986
0.13223
0.176162
0.130439
0.149627
0.107874
0.148175
0.106453
0.110571
0.110608
0.108779
0.108814
0.0884074
0.0884377
0.0869824
0.0870115
0.132333
0.178136
0.130537
0.176306
0.10796
0.149752
0.106534
0.148295
0.25187
0.289202
0.249954
0.287219
0.218746
0.252775
0.217199
0.251163
0.291136
0.253766
0.290309
0.252956
0.254314
0.22024
0.253658
0.219602
0.17999
0.134206
0.179206
0.133431
0.151194
0.109413
0.150586
0.108815
0.112549
0.112587
0.111772
0.11181
0.0899479
0.0899799
0.0893488
0.0893801
0.134314
0.180148
0.133537
0.17936
0.109503
0.151327
0.108903
0.150716
0.253955
0.291338
0.253139
0.290506
0.220398
0.254483
0.219757
0.253822
0.291795
0.254443
0.291584
0.254218
0.254812
0.220749
0.254659
0.220585
0.18068
0.134906
0.180445
0.134663
0.151707
0.109931
0.151537
0.109756
0.113257
0.113297
0.113008
0.113048
0.0904732
0.0905061
0.0902933
0.0903259
0.135017
0.180843
0.134773
0.180606
0.110024
0.151843
0.109848
0.151672
0.254637
0.292003
0.25441
0.291789
0.220912
0.254986
0.220746
0.25483
0.291728
0.254432
0.291808
0.254482
0.254725
0.22071
0.254805
0.220763
0.180728
0.134989
0.18075
0.134993
0.151716
0.10997
0.151745
0.109984
0.113357
0.113397
0.113353
0.113393
0.0905264
0.0905597
0.0905328
0.090566
0.135102
0.180893
0.135106
0.180915
0.110064
0.151854
0.110078
0.151883
0.254628
0.291939
0.254678
0.292017
0.220874
0.254901
0.220927
0.25498
0.291301
0.25409
0.291538
0.254284
0.254345
0.220404
0.254552
0.220573
0.180479
0.134796
0.18063
0.134919
0.151491
0.109794
0.151622
0.109901
0.11319
0.11323
0.113299
0.113339
0.0903721
0.0904054
0.0904684
0.0905017
0.134909
0.180645
0.135032
0.180795
0.109888
0.151629
0.109995
0.151761
0.254287
0.291512
0.254481
0.291749
0.220569
0.254521
0.220739
0.254728
0.290687
0.253577
0.291003
0.253842
0.253811
0.219963
0.254085
0.220189
0.180076
0.134459
0.180288
0.134638
0.151145
0.109505
0.151326
0.109657
0.112882
0.112922
0.113045
0.113085
0.0901089
0.0901422
0.0902471
0.0902804
0.134572
0.180242
0.134751
0.180454
0.109599
0.151283
0.109751
0.151464
0.253774
0.290898
0.254039
0.291214
0.220128
0.253988
0.220354
0.254261
0.289958
0.252965
0.290326
0.253274
0.253181
0.219438
0.253498
0.219702
0.179588
0.134044
0.179838
0.134257
0.15073
0.109155
0.150942
0.109334
0.1125
0.11254
0.112696
0.112736
0.0897867
0.0898199
0.0899513
0.0899846
0.134157
0.179753
0.13437
0.180004
0.109248
0.150867
0.109428
0.151079
0.253161
0.290168
0.25347
0.290536
0.219603
0.253356
0.219867
0.253674
0.289142
0.252281
0.289552
0.252624
0.252475
0.218854
0.252828
0.219146
0.179039
0.133575
0.179318
0.133814
0.150265
0.10876
0.1505
0.10896
0.112066
0.112106
0.112287
0.112327
0.0894221
0.0894551
0.0896068
0.0896399
0.133687
0.179204
0.133926
0.179483
0.108853
0.150402
0.109054
0.150638
0.252476
0.289352
0.25282
0.289761
0.219017
0.252649
0.21931
0.253003
0.288246
0.251531
0.288696
0.251907
0.251697
0.218212
0.252087
0.218533
0.178437
0.13306
0.178742
0.133321
0.149754
0.108325
0.150012
0.108545
0.111589
0.111629
0.111831
0.111871
0.0890202
0.089053
0.0892234
0.0892563
0.133171
0.178601
0.133433
0.178906
0.108417
0.14989
0.108638
0.150149
0.251725
0.288454
0.252101
0.288904
0.218375
0.251871
0.218696
0.252261
0.287271
0.250718
0.28776
0.251125
0.25085
0.217515
0.251275
0.217864
0.177783
0.132499
0.178114
0.132783
0.149199
0.107851
0.14948
0.108091
0.111069
0.111109
0.111333
0.111372
0.0885816
0.0886142
0.0888032
0.088836
0.13261
0.177946
0.132895
0.178277
0.107943
0.149334
0.108183
0.149615
0.250911
0.287478
0.251319
0.287967
0.217677
0.251023
0.218026
0.251447
0.286214
0.24984
0.286745
0.25028
0.24993
0.216762
0.250391
0.217139
0.177076
0.131891
0.177434
0.1322
0.148598
0.107338
0.148902
0.107598
0.110505
0.110544
0.110791
0.11083
0.0881051
0.0881376
0.088346
0.0883785
0.132001
0.177237
0.13231
0.177596
0.107429
0.148733
0.107689
0.149037
0.250031
0.286419
0.250473
0.28695
0.216922
0.250101
0.2173
0.250563
0.285071
0.248892
0.285645
0.249368
0.248933
0.215948
0.249433
0.216356
0.176312
0.131235
0.176699
0.131568
0.147949
0.106782
0.148278
0.107063
0.109896
0.109934
0.110205
0.110244
0.087589
0.0876212
0.08785
0.0878823
0.131344
0.176472
0.131678
0.17686
0.106873
0.148082
0.107154
0.148411
0.249082
0.285275
0.249559
0.285849
0.216107
0.249103
0.216516
0.249604
0.283837
0.247871
0.284457
0.248383
0.247856
0.215071
0.248397
0.215511
0.17549
0.130527
0.175906
0.130886
0.14725
0.106182
0.147603
0.106486
0.109238
0.109276
0.109571
0.10961
0.0870316
0.0870635
0.0873134
0.0873455
0.130636
0.175649
0.130995
0.176066
0.106272
0.147382
0.106576
0.147736
0.24806
0.28404
0.248573
0.28466
0.215229
0.248025
0.215669
0.248566
0.282513
0.246777
0.283179
0.247326
0.246698
0.214131
0.24728
0.214602
0.174608
0.129767
0.175054
0.130153
0.146498
0.105537
0.146878
0.105864
0.10853
0.108569
0.108889
0.108927
0.0864313
0.086463
0.0867348
0.0867666
0.129875
0.174765
0.130261
0.175213
0.105627
0.146629
0.105954
0.14701
0.246964
0.282714
0.247515
0.28338
0.214287
0.246866
0.21476
0.247448
0.281093
0.245607
0.281807
0.246194
0.245457
0.213124
0.24608
0.213629
0.173663
0.128953
0.174141
0.129365
0.145693
0.104846
0.1461
0.105196
0.107772
0.10781
0.108156
0.108194
0.0857871
0.0858185
0.0861127
0.0861443
0.129059
0.173819
0.129473
0.174298
0.104934
0.145823
0.105285
0.146231
0.245792
0.281292
0.246381
0.282006
0.213279
0.245623
0.213785
0.246247
0.279578
0.24436
0.28034
0.244986
0.24413
0.212051
0.244797
0.212589
0.172656
0.128083
0.173165
0.128523
0.144834
0.104108
0.145268
0.104481
0.106961
0.106999
0.107372
0.107409
0.0850984
0.0851295
0.0854463
0.0854776
0.128189
0.17281
0.12863
0.173321
0.104195
0.144963
0.104569
0.145398
0.244544
0.279775
0.245171
0.280538
0.212205
0.244295
0.212744
0.244961
0.277969
0.243035
0.278777
0.2437
0.24272
0.210913
0.243428
0.211483
0.171585
0.127158
0.172126
0.127626
0.143922
0.103322
0.144383
0.103719
0.106099
0.106136
0.106535
0.106573
0.0843652
0.084396
0.0847354
0.0847664
0.127263
0.171738
0.127732
0.17228
0.103409
0.144049
0.103806
0.144511
0.243217
0.278164
0.243883
0.278973
0.211065
0.242883
0.211636
0.243592
0.276269
0.241637
0.277122
0.242337
0.241228
0.209709
0.241977
0.210313
0.170454
0.12618
0.171025
0.126675
0.142957
0.102491
0.143444
0.102911
0.105186
0.105223
0.105647
0.105684
0.0835884
0.0836188
0.0839804
0.084011
0.126283
0.170606
0.126779
0.171178
0.102576
0.143083
0.102997
0.143571
0.241817
0.276462
0.242518
0.277316
0.209859
0.241388
0.210464
0.242138
0.274481
0.240173
0.275378
0.240908
0.239658
0.208439
0.240445
0.209075
0.169265
0.125149
0.169866
0.12567
0.141941
0.101614
0.142454
0.102057
0.104222
0.104259
0.104709
0.104746
0.082769
0.0827991
0.0831822
0.0832125
0.125252
0.169415
0.125773
0.170016
0.101699
0.142065
0.102142
0.142579
0.240351
0.274672
0.241086
0.27557
0.208587
0.239817
0.209224
0.240604
0.272607
0.238639
0.273547
0.239408
0.238015
0.20711
0.238838
0.207775
0.168019
0.124068
0.168648
0.124614
0.140877
0.100696
0.141413
0.101159
0.103211
0.103247
0.103721
0.103758
0.0819091
0.0819388
0.0823423
0.0823722
0.124169
0.168167
0.124716
0.168797
0.100779
0.140999
0.101243
0.141536
0.238815
0.272796
0.239585
0.273736
0.207257
0.238172
0.207923
0.238996
0.270656
0.23704
0.271633
0.237841
0.236307
0.205729
0.237162
0.20642
0.16672
0.12294
0.167375
0.123509
0.139768
0.0997378
0.140326
0.10022
0.102156
0.102191
0.102688
0.102723
0.0810117
0.0810411
0.0814632
0.0814928
0.12304
0.166866
0.123609
0.167521
0.0998203
0.139889
0.100303
0.140448
0.237213
0.270842
0.238015
0.27182
0.205874
0.236462
0.206565
0.237317
0.268637
0.235384
0.269647
0.236212
0.23454
0.2043
0.235423
0.205014
0.165374
0.12177
0.166051
0.122359
0.138621
0.098745
0.139197
0.0992443
0.101059
0.101095
0.101611
0.101647
0.0800807
0.0801097
0.0805486
0.0805778
0.121868
0.165517
0.122458
0.166196
0.0988262
0.13874
0.0993262
0.139318
0.235555
0.268821
0.236384
0.269832
0.204443
0.234692
0.205157
0.235576
0.266559
0.233677
0.267598
0.23453
0.232722
0.20283
0.23363
0.203564
0.163985
0.120562
0.164683
0.12117
0.137439
0.0977214
0.138032
0.0982356
0.0999274
0.099962
0.100497
0.100531
0.0791203
0.0791488
0.0796025
0.0796312
0.120659
0.164127
0.121268
0.164826
0.0978015
0.137556
0.0983163
0.138151
0.233846
0.26674
0.2347
0.26778
0.20297
0.232873
0.203705
0.233781
0.26443
0.231924
0.265493
0.2328
0.230862
0.201319
0.23179
0.202073
0.162558
0.119321
0.163275
0.119945
0.136225
0.0966709
0.136834
0.0971982
0.0987631
0.0987972
0.0993481
0.0993825
0.0781343
0.0781624
0.0786289
0.0786572
0.119416
0.162697
0.120041
0.163416
0.0967497
0.136341
0.0972777
0.136951
0.23209
0.264608
0.232967
0.265672
0.201457
0.23101
0.202212
0.231939
0.262254
0.230127
0.263341
0.231025
0.228965
0.199773
0.229911
0.200544
0.161094
0.118045
0.16183
0.118687
0.134983
0.0955952
0.135606
0.0961352
0.0975668
0.0976004
0.0981683
0.0982021
0.0771242
0.0771518
0.077631
0.0776588
0.118139
0.161231
0.118782
0.161968
0.0956726
0.135097
0.0962134
0.135721
0.230291
0.262429
0.23119
0.263517
0.199909
0.22911
0.200681
0.230058
0.260022
0.228277
0.261139
0.229204
0.227026
0.198188
0.227995
0.198981
0.159582
0.116728
0.160344
0.117392
0.133707
0.0944886
0.134349
0.0950455
0.0963297
0.0963627
0.0969536
0.0969869
0.0760848
0.0761119
0.0766076
0.076635
0.11682
0.159717
0.117486
0.16048
0.0945647
0.133818
0.0951223
0.134461
0.228437
0.260193
0.229365
0.261312
0.198321
0.227169
0.199115
0.228139
0.257702
0.22634
0.258869
0.227316
0.22502
0.196538
0.226027
0.197368
0.157993
0.115339
0.158799
0.116044
0.132373
0.093331
0.133048
0.0939173
0.0950244
0.0950567
0.0956875
0.0957202
0.074997
0.0750236
0.0755477
0.0755745
0.115429
0.158125
0.116136
0.158933
0.0934055
0.132482
0.0939926
0.133158
0.226497
0.257871
0.227475
0.259039
0.196669
0.22516
0.1975
0.226168
0.255227
0.22425
0.256484
0.225314
0.222891
0.194768
0.22397
0.195667
0.156263
0.113818
0.15715
0.1146
0.130933
0.0920762
0.131669
0.0927191
0.0935912
0.0936228
0.0943284
0.0943604
0.0738161
0.073842
0.0744211
0.0744473
0.113906
0.156392
0.114689
0.157281
0.0921488
0.131039
0.0927927
0.131777
0.224403
0.255391
0.225469
0.256649
0.194895
0.223027
0.195796
0.224107
0.252471
0.221884
0.253887
0.223105
0.220535
0.192779
0.221744
0.193803
0.154275
0.112054
0.15531
0.112975
0.129292
0.0906364
0.130144
0.0913861
0.0919196
0.0919503
0.0927937
0.0928249
0.0724558
0.072481
0.0731646
0.0731901
0.112139
0.1544
0.113062
0.155437
0.0907069
0.129395
0.0914577
0.130249
0.222032
0.25263
0.223256
0.254048
0.192902
0.220667
0.193929
0.221877
0.249244
0.21905
0.250923
0.220534
0.217785
0.190405
0.219215
0.191647
0.151841
0.109862
0.153128
0.111025
0.127296
0.0888621
0.12835
0.0898024
0.0898302
0.0898598
0.0909403
0.0909705
0.0707704
0.0707947
0.0716643
0.071689
0.109945
0.151962
0.11111
0.153251
0.08893
0.127395
0.0898717
0.128452
0.219194
0.249398
0.22068
0.251079
0.190524
0.217913
0.191768
0.219345
0.245332
0.215467
0.247377
0.217369
0.214431
0.18739
0.216189
0.188993
0.148663
0.10697
0.150369
0.108523
0.124683
0.0865176
0.126088
0.0877786
0.0870763
0.0871048
0.0885518
0.0885808
0.0685466
0.0685698
0.0697395
0.0697633
0.107049
0.148779
0.108604
0.150487
0.0865825
0.124778
0.0878451
0.126185
0.215605
0.245481
0.21751
0.247528
0.187504
0.214553
0.18911
0.216314
0.240845
0.21054
0.243098
0.213237
0.210464
0.183157
0.212482
0.18549
0.14418
0.10303
0.14664
0.105151
0.120933
0.0832754
0.123002
0.0850292
0.0834501
0.0834771
0.0853742
0.0854019
0.0655784
0.0656004
0.0671596
0.0671822
0.103106
0.144291
0.105229
0.146753
0.0833369
0.121024
0.0850925
0.123094
0.210672
0.240989
0.213372
0.243243
0.183266
0.210583
0.185602
0.212602
0.239155
0.200632
0.239105
0.206928
0.208469
0.17433
0.208786
0.179968
0.136999
0.0979133
0.141067
0.100588
0.114738
0.0789738
0.118271
0.081231
0.0792046
0.0792299
0.0813496
0.0813758
0.062054
0.0620744
0.0638363
0.0638576
0.0979839
0.137103
0.100661
0.141175
0.0790309
0.114822
0.0812905
0.118359
0.200758
0.239302
0.207058
0.239248
0.174434
0.208588
0.180075
0.208903
0.125915
0.102716
0.0622661
0.0506894
0.120807
0.0983728
0.0589379