/*--------------------------------*- C++ -*----------------------------------*\
  =========                 |
  \\      /  F ield         | OpenFOAM: The Open Source CFD Toolbox
   \\    /   O peration     | Website:  https://openfoam.org
    \\  /    A nd           | Version:  9
     \\/     M anipulation  |
\*---------------------------------------------------------------------------*/
FoamFile
{
    format      ascii;
    class       volScalarField;
    location    "1.95";
    object      epsilon;
}
// * * * * * * * * * * * * * * * * * * * * * * * * * * * * * * * * * * * * * //

dimensions      [0 2 -3 0 0 0 0];

internalField   nonuniform List<scalar> 
36360
(
0.21265
0.163338
0.069602
0.0630412
0.0512454
0.0322267
0.0110318
0.00895205
0.0344955
0.0058932
0.00976271
0.00432119
0.00730946
0.00325417
0.00504412
0.00495981
0.00233092
0.00233049
0.00442196
0.00442199
0.00308285
0.00308281
0.00497402
0.004974
0.00589009
0.0344919
0.00432076
0.00976107
0.00325363
0.00730815
0.00495978
0.00504378
0.163365
0.212726
0.063045
0.0696305
0.0322356
0.051277
0.00895251
0.0110345
0.409841
0.315716
0.325899
0.249185
0.2242
0.143497
0.139415
0.0867539
0.114853
0.0346186
0.0767977
0.0157385
0.0464135
0.00869563
0.0197583
0.00409416
0.00670669
0.00670149
0.00285806
0.002856
0.00224315
0.00224198
0.00214006
0.00213992
0.0346126
0.114875
0.0157311
0.076805
0.00869095
0.046422
0.00409234
0.0197575
0.315798
0.409997
0.249239
0.326016
0.143564
0.224347
0.0867875
0.139503
0.516435
0.403091
0.471313
0.365757
0.345654
0.232761
0.292843
0.193092
0.170608
0.0676147
0.146069
0.0522584
0.0976307
0.0317735
0.0737779
0.0194328
0.0267089
0.0267087
0.0158169
0.0158113
0.00817562
0.008172
0.00373565
0.00373305
0.0676278
0.170666
0.0522601
0.146107
0.0317754
0.0976761
0.0194277
0.0738023
0.403233
0.516674
0.365867
0.471509
0.232907
0.345922
0.193197
0.293049
0.573311
0.45081
0.549419
0.430682
0.414864
0.286279
0.385458
0.263365
0.203464
0.0901603
0.189414
0.080263
0.131925
0.0532073
0.116984
0.0434377
0.0447346
0.0447446
0.0366123
0.0366174
0.0215454
0.0215485
0.0148524
0.0148514
0.0901991
0.203563
0.080289
0.189493
0.0532347
0.13202
0.0434516
0.117054
0.451016
0.573638
0.430856
0.549702
0.28651
0.415258
0.263553
0.385789
0.602258
0.475348
0.590391
0.465269
0.451204
0.314839
0.436228
0.303054
0.220965
0.102924
0.213742
0.0976143
0.150992
0.0663129
0.143082
0.0608222
0.0554974
0.0555151
0.050998
0.0510123
0.031531
0.0315421
0.0272513
0.0272587
0.102984
0.2211
0.0976648
0.21386
0.066365
0.151131
0.0608629
0.1432
0.47561
0.602663
0.465505
0.590759
0.315145
0.451709
0.303325
0.436681
0.615571
0.486685
0.610349
0.482235
0.468216
0.328197
0.46153
0.322969
0.229166
0.108989
0.225949
0.106616
0.160008
0.0725622
0.156481
0.070137
0.0606346
0.060657
0.0586339
0.0586544
0.0364741
0.0364903
0.0345614
0.0345755
0.109063
0.229326
0.106684
0.226098
0.07263
0.160176
0.0701982
0.156636
0.486987
0.616032
0.48252
0.610785
0.328557
0.468801
0.323305
0.46208
0.620704
0.491089
0.618874
0.489512
0.474957
0.333404
0.472531
0.331556
0.232392
0.111364
0.231239
0.110522
0.163544
0.0749351
0.162288
0.0741133
0.0626147
0.0626395
0.0619224
0.0619463
0.0383106
0.0383293
0.03769
0.0377077
0.111446
0.232566
0.110601
0.231407
0.0750106
0.163729
0.0741859
0.162466
0.491414
0.621197
0.489828
0.619354
0.333793
0.475586
0.331933
0.473142
0.621919
0.492202
0.621681
0.491955
0.47684
0.334776
0.47637
0.334468
0.233275
0.112027
0.233062
0.111865
0.164542
0.0755599
0.164294
0.0754207
0.0631556
0.0631813
0.063029
0.0630544
0.0387563
0.0387757
0.0386734
0.0386926
0.112112
0.233455
0.111949
0.233239
0.0756383
0.164733
0.0754982
0.164483
0.492538
0.622427
0.492287
0.622184
0.335179
0.477491
0.334865
0.477012
0.62152
0.491979
0.62187
0.492209
0.47674
0.33462
0.476954
0.33483
0.233217
0.112029
0.233337
0.112097
0.164546
0.0755495
0.164638
0.0756185
0.0631629
0.0631888
0.0632182
0.063244
0.0387379
0.0387574
0.0387983
0.0388178
0.112114
0.233398
0.112182
0.233518
0.0756283
0.164738
0.0756973
0.16483
0.492318
0.622033
0.492547
0.622381
0.335026
0.477395
0.335235
0.477608
0.620378
0.491178
0.621062
0.491672
0.475842
0.333857
0.476446
0.334365
0.232783
0.111788
0.233075
0.111963
0.164181
0.0753221
0.164445
0.075491
0.0629906
0.0630164
0.0631221
0.063148
0.0385626
0.038582
0.0386946
0.0387141
0.111873
0.232964
0.112048
0.233256
0.0754007
0.164373
0.0755698
0.164638
0.491516
0.620891
0.49201
0.621576
0.334263
0.476498
0.334771
0.477103
0.618845
0.490088
0.619699
0.490704
0.47453
0.332792
0.475307
0.333424
0.232161
0.111413
0.232533
0.11165
0.163611
0.0749637
0.163969
0.0751985
0.0627138
0.0627394
0.0628968
0.0629225
0.0382901
0.0383093
0.0384732
0.0384925
0.111498
0.232341
0.111735
0.232713
0.0750416
0.163802
0.0752769
0.16416
0.490425
0.619357
0.491042
0.620212
0.333195
0.475184
0.333829
0.475963
0.61705
0.488817
0.618028
0.489518
0.472967
0.331547
0.473861
0.332264
0.231428
0.110967
0.23185
0.111236
0.162929
0.0745363
0.163338
0.074803
0.0623812
0.0624066
0.0625896
0.0626151
0.0379663
0.0379852
0.0381747
0.0381938
0.111051
0.231607
0.111321
0.23203
0.0746133
0.163118
0.0748807
0.163529
0.489152
0.617559
0.489854
0.618539
0.331948
0.473617
0.332666
0.474514
0.615028
0.487395
0.616115
0.488168
0.471199
0.330158
0.472191
0.330943
0.230608
0.110463
0.231072
0.11076
0.162156
0.0740532
0.162609
0.0743466
0.0620059
0.0620311
0.0622347
0.06226
0.0376026
0.0376212
0.03783
0.0378488
0.110546
0.230785
0.110843
0.23125
0.0741293
0.162343
0.0744233
0.162798
0.487728
0.615533
0.488502
0.616623
0.330556
0.471845
0.331343
0.47284
0.612792
0.485836
0.613985
0.486677
0.469241
0.328634
0.470328
0.329487
0.229707
0.109908
0.230211
0.11023
0.161299
0.0735184
0.161794
0.0738373
0.0615912
0.061616
0.0618394
0.0618644
0.0372015
0.0372197
0.0374473
0.0374657
0.10999
0.229883
0.110313
0.230388
0.0735935
0.161485
0.073913
0.161981
0.486166
0.613295
0.487008
0.61449
0.32903
0.469883
0.329884
0.470973
0.610331
0.484129
0.611639
0.485045
0.467086
0.326968
0.468273
0.327892
0.228723
0.1093
0.229269
0.109649
0.160357
0.0729306
0.160894
0.0732759
0.0611362
0.0611607
0.0614045
0.0614292
0.0367621
0.0367799
0.0370269
0.0370449
0.109382
0.228898
0.109731
0.229445
0.0730045
0.16054
0.0733506
0.161079
0.484457
0.61083
0.485374
0.61214
0.32736
0.467724
0.328286
0.468913
0.607641
0.482275
0.609064
0.483264
0.46473
0.325153
0.466017
0.326152
0.227654
0.108638
0.228243
0.109014
0.159326
0.072288
0.159907
0.0726606
0.0606397
0.0606638
0.0609287
0.0609531
0.0362829
0.0363003
0.0365675
0.0365851
0.108719
0.227826
0.109095
0.228416
0.0723607
0.159507
0.0727341
0.16009
0.4826
0.608136
0.48359
0.609561
0.325541
0.465362
0.326542
0.466652
0.604712
0.480266
0.606255
0.481333
0.462163
0.323184
0.463557
0.324261
0.226495
0.10792
0.227129
0.108323
0.158203
0.0715883
0.158831
0.0719894
0.0600998
0.0601236
0.0604105
0.0604346
0.0357625
0.0357794
0.0360675
0.0360846
0.107999
0.226665
0.108403
0.2273
0.0716597
0.158382
0.0720616
0.159011
0.480588
0.605203
0.481656
0.606748
0.323568
0.46279
0.324647
0.464186
0.601533
0.478094
0.603202
0.479243
0.459377
0.321049
0.460881
0.32221
0.225242
0.107142
0.225923
0.107576
0.156983
0.0708292
0.15766
0.0712599
0.0595149
0.0595383
0.0598481
0.0598718
0.0351993
0.0352157
0.0355254
0.0355421
0.10722
0.225411
0.107654
0.226093
0.0708992
0.15716
0.0713308
0.157838
0.478412
0.60202
0.479563
0.603691
0.321429
0.459998
0.322592
0.461505
0.598093
0.475752
0.599892
0.476986
0.456362
0.318739
0.457981
0.319987
0.223891
0.106303
0.224621
0.106767
0.155664
0.0700087
0.15639
0.0704699
0.0588833
0.0589063
0.0592397
0.0592629
0.0345923
0.0346082
0.0349399
0.0349561
0.10638
0.224058
0.106845
0.224789
0.0700772
0.155838
0.0705393
0.156566
0.476067
0.598575
0.477302
0.600377
0.319114
0.456977
0.320365
0.458599
0.59439
0.473236
0.596322
0.474557
0.453115
0.316246
0.45485
0.317586
0.22244
0.105402
0.223221
0.105897
0.154242
0.0691257
0.155019
0.0696178
0.0582041
0.0582266
0.0585842
0.0586069
0.0339408
0.0339561
0.0343101
0.0343258
0.105478
0.222604
0.105973
0.223386
0.0691925
0.154413
0.0696856
0.155192
0.473547
0.594866
0.47487
0.596801
0.316617
0.453722
0.317959
0.455461
0.590416
0.470543
0.592483
0.471952
0.449631
0.313569
0.451484
0.315001
0.220887
0.104437
0.221719
0.104964
0.152716
0.0681796
0.153545
0.0687028
0.0574767
0.0574986
0.0578806
0.0579028
0.0332449
0.0332596
0.0336359
0.0336509
0.104511
0.221049
0.105039
0.221881
0.0682446
0.152884
0.0687688
0.153715
0.47085
0.590887
0.472262
0.592957
0.313934
0.450231
0.315369
0.452088
0.586171
0.467672
0.588374
0.469171
0.44591
0.310708
0.44788
0.312229
0.219231
0.103408
0.220114
0.103967
0.151086
0.0671707
0.151966
0.0677246
0.056701
0.0567224
0.0571286
0.0571504
0.0325052
0.0325192
0.0329173
0.0329318
0.103481
0.21939
0.10404
0.220274
0.0672339
0.151251
0.0677889
0.152133
0.467975
0.586637
0.469476
0.588842
0.311068
0.446503
0.312592
0.448477
0.581659
0.46462
0.583993
0.466208
0.441959
0.307688
0.444043
0.309286
0.217472
0.102316
0.218406
0.102906
0.149356
0.0661001
0.150286
0.0666842
0.0558776
0.0558985
0.0563286
0.0563498
0.031723
0.0317363
0.0321556
0.0321693
0.102387
0.217628
0.102978
0.218563
0.0661614
0.149518
0.0667465
0.150449
0.464918
0.582118
0.466509
0.584456
0.308042
0.442543
0.309644
0.444632
0.576892
0.461396
0.579351
0.463068
0.437784
0.304499
0.439978
0.306183
0.215615
0.101163
0.216596
0.101783
0.147527
0.06497
0.148505
0.0655829
0.0550082
0.0550285
0.0554816
0.0555022
0.0309005
0.0309132
0.0313522
0.0313653
0.101232
0.215768
0.101852
0.216751
0.0650291
0.147685
0.0656432
0.148665
0.46169
0.577345
0.463364
0.579808
0.304847
0.43836
0.306534
0.440558
0.571888
0.458012
0.574462
0.459762
0.433399
0.301148
0.435695
0.30291
0.213664
0.0999527
0.214691
0.1006
0.145604
0.063784
0.146628
0.0644236
0.0540956
0.0541153
0.0545898
0.0546098
0.0300413
0.0300532
0.0305102
0.0305225
0.10002
0.213814
0.100668
0.214843
0.063841
0.145758
0.0644818
0.146784
0.458301
0.572335
0.460054
0.574913
0.301489
0.433966
0.303255
0.436267
0.566668
0.454481
0.569347
0.456303
0.428823
0.29765
0.431212
0.299482
0.211628
0.0986892
0.212696
0.0993616
0.143595
0.0625473
0.14466
0.0632109
0.0531434
0.0531624
0.0536564
0.0536758
0.0291496
0.0291607
0.0296333
0.0296449
0.0987545
0.211774
0.0994279
0.212845
0.062602
0.143745
0.0632669
0.144812
0.454765
0.567108
0.456589
0.569791
0.297985
0.429381
0.299821
0.431774
0.56126
0.450817
0.564029
0.452702
0.424079
0.294019
0.426548
0.295916
0.209515
0.097379
0.21062
0.0980735
0.141508
0.0612661
0.14261
0.0619504
0.0521563
0.0521746
0.0526857
0.0527044
0.0282308
0.0282411
0.0287266
0.0287373
0.0974422
0.209658
0.0981378
0.210765
0.0613186
0.141654
0.0620041
0.142758
0.451096
0.561693
0.452984
0.564465
0.294348
0.424627
0.296248
0.4271
0.5557
0.447054
0.55854
0.448982
0.419195
0.290266
0.421729
0.29222
0.207339
0.0960297
0.208473
0.0967422
0.139355
0.0599483
0.140487
0.0606492
0.0511401
0.0511577
0.0516828
0.0517008
0.0272911
0.0273006
0.0277957
0.0278056
0.0960909
0.207479
0.0968045
0.208615
0.0599984
0.139497
0.0607005
0.140631
0.447327
0.556126
0.449258
0.55897
0.290587
0.419733
0.292546
0.422272
0.550016
0.443213
0.552913
0.44518
0.414201
0.28643
0.416785
0.28842
0.205114
0.0946497
0.206271
0.0953761
0.137151
0.0586023
0.138306
0.0593155
0.0501014
0.0501182
0.050654
0.0506713
0.0263374
0.0263461
0.0268473
0.0268564
0.0947088
0.205251
0.0954364
0.20641
0.05865
0.137289
0.0593644
0.138446
0.443481
0.550434
0.445451
0.553336
0.286744
0.414729
0.288738
0.417318
0.544244
0.439302
0.54718
0.441301
0.409128
0.282535
0.411747
0.284551
0.20285
0.093247
0.204025
0.0939832
0.134908
0.0572369
0.136081
0.0579579
0.0490468
0.0490629
0.049606
0.0496225
0.0253771
0.025385
0.0258885
0.0258968
0.093304
0.202983
0.0940414
0.204159
0.0572821
0.135041
0.0580044
0.136216
0.439564
0.544655
0.441566
0.547594
0.282843
0.409645
0.284863
0.41227
0.538421
0.435343
0.541378
0.437363
0.404003
0.278602
0.406644
0.280634
0.200557
0.0918294
0.201744
0.0925717
0.132638
0.0558608
0.133822
0.0565853
0.0479832
0.0479986
0.0485456
0.0485614
0.0244178
0.0244248
0.0249269
0.0249343
0.0918843
0.200687
0.0926278
0.201876
0.0559035
0.132768
0.0566294
0.133954
0.4356
0.538824
0.437622
0.541785
0.278902
0.404511
0.280938
0.407157
0.532568
0.431348
0.535539
0.433385
0.398838
0.274643
0.401499
0.276686
0.198242
0.0904015
0.19944
0.0911484
0.130349
0.0544807
0.131542
0.0552058
0.0469157
0.0469303
0.0474792
0.0474942
0.023466
0.0234722
0.0239697
0.0239763
0.0904542
0.198368
0.0912022
0.199568
0.054521
0.130474
0.0552475
0.131669
0.431599
0.532964
0.433639
0.535938
0.274936
0.399335
0.276983
0.402001
0.526673
0.4273
0.529669
0.429368
0.393605
0.270649
0.396307
0.272713
0.195891
0.088958
0.197111
0.0897138
0.128031
0.0530971
0.12924
0.0538239
0.0458437
0.0458575
0.0464096
0.0464238
0.0225253
0.0225307
0.0230225
0.0230284
0.0890086
0.196014
0.0897655
0.197235
0.053135
0.128152
0.053863
0.129363
0.427545
0.527061
0.429616
0.53006
0.270933
0.394091
0.273002
0.396798
0.520656
0.423111
0.523728
0.425265
0.388198
0.266546
0.391005
0.268673
0.193454
0.0874726
0.194725
0.088254
0.125646
0.0516943
0.126895
0.0524334
0.0447521
0.0447651
0.0453306
0.045344
0.0215892
0.0215938
0.022085
0.02209
0.0875208
0.193572
0.0883035
0.194845
0.0517297
0.125763
0.0524701
0.127014
0.423351
0.521035
0.425507
0.524111
0.266821
0.388672
0.268954
0.391486
0.514325
0.418611
0.517587
0.420948
0.382363
0.262207
0.385428
0.264491
0.190818
0.0858766
0.192207
0.0867251
0.123091
0.0502198
0.124444
0.0510039
0.0435925
0.0436046
0.0442135
0.0442261
0.0206291
0.0206329
0.0211417
0.0211459
0.0859223
0.190931
0.0867722
0.192323
0.0502525
0.123202
0.051038
0.124558
0.418844
0.514693
0.421184
0.51796
0.262473
0.382823
0.264761
0.385896
0.507287
0.413497
0.510966
0.416189
0.375582
0.257185
0.379204
0.25987
0.187761
0.0840173
0.189398
0.0850235
0.12014
0.0485466
0.121728
0.0494515
0.0422497
0.0422607
0.0429819
0.0429935
0.0195689
0.0195717
0.0201441
0.0201474
0.0840599
0.18787
0.0850677
0.189509
0.0485762
0.120245
0.0494828
0.121836
0.41372
0.507643
0.416417
0.511329
0.257439
0.376025
0.260131
0.379656
0.498863
0.407156
0.503338
0.410574
0.366962
0.250802
0.37164
0.254278
0.183802
0.0815682
0.185979
0.0829263
0.11634
0.0464101
0.118429
0.0475903
0.040486
0.0404956
0.0414678
0.0414782
0.0182498
0.0182515
0.0189794
0.0189817
0.0816067
0.183904
0.082967
0.186084
0.0464357
0.116437
0.0476181
0.11853
0.407369
0.499204
0.410792
0.503687
0.251043
0.367384
0.254526
0.372073
0.488418
0.397419
0.493893
0.403046
0.355385
0.241831
0.361644
0.246786
0.177496
0.077765
0.181155
0.0799407
0.1107
0.043309
0.113888
0.0450501
0.0378685
0.0378761
0.0393432
0.0393519
0.0164159
0.016416
0.0174361
0.0174371
0.0777981
0.177589
0.0799768
0.181252
0.0433293
0.110787
0.0450734
0.11398
0.397618
0.488744
0.403252
0.494227
0.242056
0.355784
0.24702
0.362055
0.48326
0.369756
0.483845
0.388708
0.340071
0.222872
0.348628
0.235067
0.163315
0.071037
0.172118
0.0748963
0.100732
0.0386101
0.106546
0.0412034
0.0339198
0.0339249
0.0360897
0.0360962
0.0139065
0.0139048
0.0152563
0.0152555
0.0710629
0.163394
0.0749261
0.172205
0.0386237
0.100805
0.0412206
0.106627
0.369933
0.483583
0.388899
0.484167
0.22307
0.340447
0.235282
0.349015
0.311857
0.238524
0.120273
0.0960639
0.276628
0.21138
0.101132
0.0816315
0.0671273
0.0126508
0.0154547
0.00495029
0.053945
0.00948568
0.0127673
0.00468544
0.00311936
0.00311694
0.00435152
0.00435185
0.00272187
0.00272049
0.00449268
0.00449287
0.0126429
0.0671289
0.00494889
0.0154526
0.00947975
0.0539432
0.00468455
0.0127651
0.238584
0.312001
0.0960838
0.120353
0.211424
0.276741
0.0816427
0.101188
0.560209
0.43804
0.456049
0.352563
0.504254
0.392421
0.408935
0.314995
0.189042
0.0714811
0.133051
0.0384535
0.160111
0.0561444
0.111355
0.0286826
0.0216917
0.0216828
0.0073554
0.00734798
0.0142813
0.0142725
0.0050201
0.005015
0.0714823
0.189092
0.0384415
0.133076
0.0561414
0.160147
0.0286715
0.111371
0.438175
0.560449
0.35266
0.456242
0.39253
0.504453
0.315071
0.409092
0.691151
0.549056
0.635881
0.501744
0.623492
0.492436
0.573244
0.449889
0.26833
0.125963
0.233643
0.101027
0.228876
0.101091
0.198857
0.0805334
0.0645995
0.0646103
0.0439099
0.043911
0.0474303
0.0474356
0.0311301
0.0311278
0.126006
0.268441
0.101048
0.233721
0.101119
0.22896
0.0805444
0.198916
0.549273
0.69149
0.501919
0.636169
0.492614
0.62378
0.450032
0.573486
0.76068
0.60959
0.731463
0.58401
0.686429
0.546577
0.660032
0.523754
0.31482
0.161821
0.294893
0.146147
0.26882
0.130599
0.251751
0.117717
0.0959787
0.0960055
0.082098
0.0821173
0.0725621
0.0725807
0.0614178
0.0614302
0.161907
0.314995
0.146213
0.295037
0.130662
0.268956
0.117763
0.251862
0.609891
0.761125
0.584269
0.731855
0.546828
0.68681
0.523969
0.660366
0.79628
0.641084
0.781625
0.628073
0.718403
0.574468
0.705277
0.562985
0.339991
0.182177
0.329522
0.173652
0.290184
0.147207
0.281335
0.14028
0.114254
0.114293
0.10658
0.106613
0.0871696
0.0871979
0.0810583
0.0810822
0.182298
0.340221
0.173757
0.329727
0.147298
0.290365
0.140358
0.281496
0.64146
0.79682
0.628414
0.78212
0.574783
0.718869
0.563271
0.705703
0.812917
0.65598
0.806345
0.650075
0.733184
0.587486
0.727369
0.58235
0.352178
0.192197
0.347334
0.188212
0.300361
0.155243
0.29634
0.152069
0.123291
0.123337
0.119702
0.119745
0.0942617
0.0942963
0.0914679
0.0914998
0.192342
0.352447
0.188346
0.347586
0.155353
0.300575
0.15217
0.296539
0.65641
0.813526
0.650481
0.806923
0.587847
0.733711
0.582691
0.727869
0.819454
0.661956
0.817101
0.659781
0.738906
0.592618
0.736861
0.590765
0.357205
0.196366
0.355366
0.194842
0.30447
0.158502
0.302981
0.157325
0.12704
0.12709
0.125675
0.125724
0.0971162
0.097154
0.0960926
0.0961292
0.196523
0.357496
0.194994
0.355648
0.158621
0.304701
0.15744
0.303205
0.662417
0.820105
0.660229
0.817735
0.593005
0.73947
0.591141
0.737409
0.821021
0.663552
0.820703
0.663164
0.740229
0.593937
0.739979
0.593633
0.358713
0.197669
0.358303
0.197303
0.305651
0.159474
0.305345
0.159214
0.12822
0.128272
0.127888
0.12794
0.0979674
0.0980067
0.0977422
0.097781
0.197832
0.359014
0.197464
0.3586
0.159598
0.30589
0.159337
0.305581
0.664029
0.821693
0.663634
0.821367
0.594338
0.74081
0.594029
0.740553
0.820445
0.663264
0.820937
0.663579
0.739694
0.59366
0.740139
0.593942
0.358712
0.197764
0.358866
0.197849
0.305612
0.159514
0.305754
0.159594
0.128339
0.128392
0.128401
0.128454
0.0980235
0.098063
0.0980848
0.0981244
0.197929
0.359017
0.198013
0.35917
0.159639
0.305854
0.159718
0.305994
0.663745
0.821123
0.664058
0.821613
0.594064
0.74028
0.594345
0.740723
0.81888
0.662154
0.819799
0.662829
0.738296
0.59268
0.739117
0.593274
0.358106
0.197413
0.358518
0.197676
0.305081
0.15921
0.305438
0.159433
0.128088
0.128141
0.12829
0.128343
0.0978068
0.0978463
0.0979762
0.0980158
0.197578
0.35841
0.197841
0.358822
0.159335
0.305323
0.159558
0.30568
0.662635
0.81956
0.66331
0.820478
0.593084
0.738882
0.593679
0.739704
0.816814
0.66064
0.817949
0.661485
0.736452
0.591354
0.737466
0.592094
0.357201
0.196835
0.35774
0.197201
0.304306
0.158727
0.304767
0.159031
0.127646
0.127699
0.127939
0.127992
0.0974428
0.0974822
0.0976827
0.0977222
0.196999
0.357504
0.197365
0.358044
0.158851
0.304546
0.159156
0.305008
0.66112
0.817491
0.661966
0.818627
0.591756
0.737036
0.592498
0.738051
0.814423
0.658882
0.815711
0.65984
0.734313
0.589813
0.735466
0.590654
0.35613
0.196138
0.356744
0.196556
0.303391
0.158148
0.303915
0.158495
0.127105
0.127158
0.127442
0.127494
0.097002
0.0970411
0.0972762
0.0973154
0.196301
0.356432
0.19672
0.357047
0.158271
0.303629
0.158619
0.304155
0.659359
0.815096
0.660319
0.816386
0.590213
0.734894
0.591055
0.736049
0.811754
0.656928
0.813175
0.657978
0.731918
0.588096
0.733194
0.58902
0.354934
0.195354
0.355607
0.195814
0.302367
0.157497
0.302943
0.157878
0.126496
0.126549
0.126865
0.126917
0.096505
0.0965438
0.0968058
0.0968447
0.195516
0.355233
0.195976
0.355908
0.157619
0.302604
0.158001
0.303181
0.657402
0.812424
0.658454
0.813846
0.588494
0.732496
0.589419
0.733774
0.80883
0.654798
0.810377
0.655935
0.729285
0.586219
0.730679
0.587222
0.353626
0.194495
0.354354
0.194992
0.301246
0.156781
0.30187
0.157195
0.125826
0.125878
0.126225
0.126277
0.0959573
0.0959957
0.0962831
0.0963217
0.194656
0.353923
0.195153
0.354653
0.156903
0.301481
0.157316
0.302106
0.655268
0.809495
0.656407
0.811044
0.586614
0.729859
0.587619
0.731255
0.805631
0.652477
0.807318
0.653711
0.726397
0.58417
0.727921
0.58526
0.352201
0.193558
0.352989
0.194094
0.300022
0.156
0.300698
0.156446
0.125095
0.125146
0.125524
0.125576
0.0953582
0.0953962
0.0957097
0.0957479
0.193718
0.352496
0.194254
0.353284
0.15612
0.300255
0.156567
0.300932
0.652944
0.80629
0.654179
0.80798
0.584561
0.726967
0.585653
0.728493
0.80215
0.649966
0.803979
0.651296
0.723249
0.581948
0.724904
0.583125
0.350658
0.192542
0.351505
0.193117
0.298694
0.15515
0.299422
0.15563
0.124301
0.124351
0.124761
0.124813
0.0947058
0.0947434
0.095084
0.0951218
0.192699
0.35095
0.193276
0.351799
0.155268
0.298925
0.15575
0.299654
0.650429
0.802805
0.65176
0.804636
0.582337
0.723815
0.583515
0.725472
0.798375
0.64725
0.800352
0.648683
0.719831
0.579548
0.721622
0.580815
0.348989
0.191442
0.3499
0.192059
0.297258
0.154229
0.29804
0.154745
0.12344
0.12349
0.123934
0.123985
0.0939981
0.0940352
0.094404
0.0944414
0.191598
0.349278
0.192216
0.35019
0.154346
0.297486
0.154863
0.29827
0.647708
0.799024
0.649143
0.801004
0.579933
0.720391
0.581201
0.722185
0.794291
0.644322
0.796424
0.645862
0.716128
0.576959
0.718062
0.578321
0.34719
0.190254
0.348166
0.190916
0.295708
0.153234
0.296548
0.153787
0.12251
0.12256
0.123039
0.123089
0.0932323
0.093269
0.0936673
0.0937042
0.190409
0.347476
0.191071
0.348454
0.15335
0.295933
0.153904
0.296775
0.644776
0.794935
0.646318
0.79707
0.577339
0.716683
0.578703
0.718621
0.789887
0.641172
0.792178
0.642821
0.712128
0.574172
0.71421
0.575631
0.345254
0.188976
0.346298
0.189683
0.294039
0.152162
0.294938
0.152754
0.121508
0.121557
0.122073
0.122122
0.0924066
0.0924427
0.0928714
0.0929078
0.189129
0.345536
0.189836
0.346582
0.152276
0.294262
0.152869
0.295163
0.641621
0.790524
0.643272
0.792818
0.574549
0.712678
0.57601
0.714763
0.785156
0.637808
0.787614
0.639565
0.70783
0.571192
0.710063
0.572749
0.343181
0.187605
0.344294
0.188359
0.292251
0.151012
0.29321
0.151643
0.120433
0.120481
0.121034
0.121083
0.0915193
0.0915548
0.0920148
0.0920506
0.187756
0.34346
0.18851
0.344575
0.151124
0.292471
0.151756
0.293432
0.638252
0.785786
0.640011
0.788247
0.571564
0.708375
0.573123
0.71061
0.78009
0.63421
0.782714
0.636085
0.703226
0.56801
0.705611
0.569667
0.340965
0.186139
0.342149
0.18694
0.29034
0.149781
0.29136
0.150452
0.119282
0.119329
0.119921
0.119969
0.0905694
0.0906044
0.0910959
0.0911312
0.186287
0.34124
0.187089
0.342427
0.149892
0.290557
0.150564
0.291579
0.634648
0.780712
0.636526
0.78334
0.568377
0.703764
0.570036
0.706153
0.774697
0.630377
0.777481
0.632368
0.698309
0.564627
0.700852
0.566385
0.338606
0.184579
0.339861
0.185426
0.288305
0.148471
0.289387
0.149181
0.118056
0.118102
0.118731
0.118779
0.0895568
0.089591
0.0901143
0.0901489
0.184724
0.338877
0.185573
0.340134
0.148579
0.288519
0.149291
0.289603
0.630809
0.775312
0.632803
0.778101
0.564989
0.698841
0.56675
0.701387
0.768988
0.626353
0.771932
0.628433
0.693086
0.561017
0.695778
0.562891
0.336116
0.182926
0.337435
0.183819
0.286143
0.147079
0.287289
0.14783
0.116755
0.116801
0.117468
0.117514
0.0884817
0.0885153
0.08907
0.0891039
0.183069
0.336383
0.183963
0.337705
0.147186
0.286353
0.147937
0.287501
0.626778
0.769595
0.628862
0.772543
0.561375
0.693611
0.563251
0.696306
0.762953
0.622115
0.766058
0.624307
0.68758
0.557203
0.690411
0.559173
0.333489
0.181181
0.334877
0.182119
0.28386
0.14561
0.285064
0.146398
0.11538
0.115425
0.116129
0.116175
0.0873457
0.0873786
0.0879637
0.087997
0.181322
0.333752
0.182261
0.335142
0.145714
0.284066
0.146504
0.285273
0.622534
0.763552
0.62473
0.766661
0.557555
0.688098
0.559528
0.690933
0.756613
0.617657
0.759866
0.619956
0.681805
0.553209
0.684768
0.555267
0.330727
0.179347
0.332181
0.180328
0.281464
0.144066
0.282723
0.144891
0.113934
0.113979
0.114718
0.114763
0.0861519
0.086184
0.0867979
0.0868305
0.179484
0.330986
0.180468
0.332442
0.144169
0.281667
0.144994
0.282928
0.61807
0.757203
0.620372
0.760461
0.553555
0.682316
0.555616
0.685283
0.749996
0.613002
0.753384
0.615397
0.675781
0.549047
0.678865
0.551186
0.327843
0.177429
0.329356
0.178451
0.278964
0.142455
0.280274
0.143312
0.112422
0.112466
0.113238
0.113282
0.0849043
0.0849356
0.0855762
0.0856079
0.177564
0.328096
0.178587
0.329612
0.142555
0.279163
0.143413
0.280475
0.613408
0.750578
0.615806
0.75397
0.549387
0.676284
0.55153
0.679372
0.743134
0.60817
0.74664
0.61065
0.669533
0.544734
0.672725
0.546946
0.324846
0.175436
0.326414
0.176494
0.276369
0.140781
0.277725
0.141668
0.11085
0.110892
0.111694
0.111737
0.0836083
0.0836388
0.0843032
0.0843341
0.175568
0.325094
0.176628
0.326665
0.140879
0.276564
0.141767
0.277922
0.608569
0.743707
0.611052
0.747217
0.545068
0.670028
0.547284
0.673225
0.73606
0.603179
0.739666
0.605735
0.663093
0.54027
0.666375
0.542559
0.321749
0.173377
0.323365
0.174466
0.273687
0.139053
0.275085
0.139966
0.109225
0.109266
0.110094
0.110135
0.0822706
0.0823002
0.0829849
0.083015
0.173506
0.321993
0.174596
0.323611
0.139148
0.273878
0.140062
0.275278
0.60357
0.736624
0.60613
0.740234
0.540598
0.66358
0.54289
0.666866
0.728823
0.598058
0.732504
0.600673
0.656513
0.535686
0.659858
0.538025
0.318573
0.171264
0.320225
0.172378
0.270938
0.137282
0.272366
0.138214
0.107557
0.107597
0.108445
0.108486
0.0808996
0.0809283
0.0816289
0.0816581
0.17139
0.318811
0.172505
0.320466
0.137374
0.271124
0.138308
0.272554
0.598441
0.729376
0.601061
0.733062
0.536008
0.656991
0.53835
0.660341
0.721468
0.592842
0.725201
0.5955
0.649833
0.531032
0.653223
0.533403
0.315335
0.16911
0.317015
0.170242
0.26814
0.135479
0.26959
0.136425
0.105856
0.105895
0.106759
0.106799
0.0795041
0.0795319
0.0802441
0.0802724
0.169233
0.315568
0.170367
0.31725
0.135569
0.268322
0.136517
0.269774
0.593218
0.722011
0.59588
0.725749
0.531347
0.650303
0.533721
0.653697
0.714035
0.587556
0.717802
0.590246
0.643091
0.526322
0.646507
0.528718
0.31205
0.166925
0.313752
0.168071
0.265306
0.133654
0.266772
0.13461
0.104131
0.104169
0.105045
0.105083
0.0780919
0.0781188
0.0788388
0.0788662
0.167044
0.312278
0.168192
0.313982
0.133741
0.265484
0.134699
0.266952
0.587923
0.714568
0.590618
0.71834
0.52663
0.643552
0.52903
0.646973
0.70655
0.582209
0.710341
0.584929
0.636309
0.521566
0.639743
0.523984
0.308723
0.164712
0.310446
0.165872
0.26244
0.131811
0.263922
0.132775
0.102386
0.102423
0.103309
0.103347
0.0766677
0.0766937
0.0774199
0.0774464
0.164828
0.308945
0.16599
0.31067
0.131895
0.262613
0.132861
0.264098
0.582569
0.707072
0.585293
0.710869
0.521867
0.636761
0.52429
0.6402
0.699
0.57678
0.702828
0.579547
0.629478
0.516745
0.632941
0.519201
0.30533
0.162456
0.30709
0.163641
0.259526
0.129938
0.261036
0.130919
0.100609
0.100644
0.10155
0.101587
0.0752263
0.0752513
0.0759883
0.0760138
0.162568
0.305546
0.163755
0.307309
0.13002
0.259694
0.131002
0.261207
0.577131
0.699512
0.579902
0.703346
0.517039
0.629921
0.519499
0.633388
0.691291
0.571173
0.695217
0.574046
0.622516
0.511776
0.62606
0.514321
0.301792
0.160096
0.303639
0.161343
0.256498
0.127995
0.258077
0.129019
0.0987523
0.0987869
0.099742
0.0997773
0.073737
0.0737609
0.0745286
0.0745531
0.160204
0.302001
0.161454
0.303852
0.128073
0.256662
0.129099
0.258242
0.571515
0.69179
0.574393
0.695723
0.512063
0.622948
0.514612
0.626498
0.683181
0.565165
0.687349
0.568277
0.61521
0.506465
0.618963
0.509214
0.297921
0.157488
0.299966
0.158884
0.253209
0.125873
0.254944
0.127005
0.0966963
0.0967293
0.0978066
0.0978405
0.0721149
0.0721377
0.0729877
0.0730111
0.157592
0.298123
0.15899
0.300172
0.125948
0.253366
0.127082
0.255104
0.565496
0.683666
0.568614
0.687841
0.506743
0.61563
0.509497
0.61939
0.674204
0.558313
0.678878
0.561919
0.607132
0.500426
0.61134
0.503603
0.293341
0.154333
0.295804
0.156052
0.249347
0.123342
0.25142
0.124717
0.0941862
0.0942174
0.0955655
0.0955977
0.0701728
0.0701941
0.071237
0.0712591
0.154432
0.293534
0.156154
0.296002
0.123412
0.249498
0.12479
0.251574
0.558632
0.674674
0.562245
0.679356
0.500693
0.607539
0.503876
0.611754
0.663679
0.549748
0.669215
0.554365
0.597589
0.492867
0.602629
0.496947
0.287266
0.150032
0.290617
0.152426
0.244253
0.119924
0.247063
0.121826
0.0907474
0.0907762
0.0926665
0.0926965
0.0675441
0.0675635
0.069011
0.0690314
0.150124
0.287449
0.152522
0.290806
0.119989
0.244394
0.121894
0.247209
0.550053
0.664132
0.554677
0.669677
0.493123
0.597981
0.497209
0.603028
0.651854
0.536761
0.657759
0.54421
0.586339
0.481203
0.592093
0.487933
0.277523
0.143318
0.28316
0.147141
0.236018
0.114553
0.240799
0.117622
0.0856094
0.0856349
0.088488
0.0885153
0.0635994
0.0636162
0.0658172
0.0658354
0.143401
0.277691
0.147228
0.283336
0.114611
0.236147
0.117684
0.240935
0.537049
0.652292
0.544506
0.658204
0.481444
0.586716
0.488181
0.592477
0.653637
0.500832
0.648628
0.525368
0.584926
0.448268
0.582425
0.470775
0.256571
0.132035
0.26938
0.138391
0.217806
0.105268
0.229016
0.110539
0.0781565
0.0781779
0.0821903
0.0822139
0.0577566
0.05777
0.0609389
0.0609541
0.132106
0.256719
0.138468
0.26954
0.105316
0.217919
0.110593
0.229138
0.501096
0.654088
0.525647
0.649067
0.448486
0.585309
0.471007
0.582801
0.342784
0.262333
0.137349
0.107923
0.331697
0.253613
0.131361
0.103205
0.0792539
0.0159731
0.0179095
0.00529378
0.0747189
0.014677
0.0169134
0.00517509
0.00365507
0.00365153
0.00430466
0.00430508
0.00345659
0.00345352
0.00436151
0.00436191
0.0159633
0.0792618
0.00529183
0.0179082
0.0146679
0.074724
0.00517339
0.0169117
0.262416
0.342972
0.107956
0.137461
0.253685
0.331866
0.103232
0.131459
0.612707
0.48144
0.498646
0.386906
0.593022
0.465081
0.482984
0.374177
0.217979
0.0879292
0.153944
0.0485209
0.207001
0.081582
0.146137
0.0446813
0.0309055
0.0308983
0.0103577
0.0103481
0.027205
0.0271969
0.00914118
0.00913234
0.0879389
0.218051
0.0485097
0.153982
0.0815877
0.207063
0.0446695
0.146169
0.481617
0.613011
0.387036
0.498894
0.465239
0.593297