/*--------------------------------*- C++ -*----------------------------------*\
  =========                 |
  \\      /  F ield         | OpenFOAM: The Open Source CFD Toolbox
   \\    /   O peration     | Website:  https://openfoam.org
    \\  /    A nd           | Version:  9
     \\/     M anipulation  |
\*---------------------------------------------------------------------------*/
FoamFile
{
    format      ascii;
    class       volScalarField;
    location    "1.95";
    object      k;
}
// * * * * * * * * * * * * * * * * * * * * * * * * * * * * * * * * * * * * * //

dimensions      [0 2 -2 0 0 0 0];

internalField   nonuniform List<scalar> 
36360
(
0.0675021
0.0542129
0.0260985
0.023311
0.0141508
0.0103877
0.00508194
0.00442141
0.0174346
0.00425952
0.00536809
0.00282758
0.00386301
0.00225175
0.00301581
0.00298195
0.0020241
0.00202363
0.0027859
0.00278595
0.00217182
0.00217181
0.00298765
0.00298764
0.00425739
0.0174331
0.00282725
0.00536734
0.00225151
0.00386255
0.00298194
0.00301568
0.0542228
0.0675269
0.023313
0.0261091
0.0103896
0.0141566
0.00442156
0.00508277
0.120863
0.0991353
0.0985394
0.0797534
0.0378479
0.0281102
0.0275746
0.0200994
0.0492877
0.0208903
0.0346917
0.0106259
0.0132472
0.00433827
0.00749726
0.0026249
0.0060361
0.00603255
0.00269354
0.00269174
0.00175761
0.001757
0.00170273
0.00170265
0.0208879
0.0492968
0.0106211
0.0346952
0.00433671
0.0132489
0.00262412
0.00749705
0.0991616
0.120909
0.0797715
0.0985751
0.028119
0.0378644
0.0201046
0.0275863
0.148728
0.124153
0.136965
0.11349
0.0505092
0.038806
0.0452237
0.0342612
0.0696868
0.0373334
0.0607967
0.0298123
0.0217469
0.010292
0.0180424
0.00741565
0.0205081
0.0205098
0.013135
0.0131326
0.00416608
0.00416486
0.00247071
0.00246956
0.0373425
0.0697101
0.0298149
0.0608124
0.0102924
0.0217537
0.00741438
0.0180464
0.124197
0.148796
0.113525
0.137021
0.0388221
0.0505352
0.0342736
0.0452449
0.163639
0.137859
0.157354
0.132059
0.0570452
0.0445477
0.0543161
0.0421372
0.0815247
0.048083
0.0764644
0.043405
0.0265809
0.0145141
0.0245336
0.0126777
0.0315835
0.0315912
0.02674
0.0267451
0.00794911
0.00794986
0.00620303
0.00620276
0.0481049
0.081564
0.0434208
0.0764958
0.0145191
0.0265936
0.0126805
0.0245433
0.137924
0.16373
0.132113
0.157433
0.0445716
0.0570813
0.0421573
0.0543472
0.171361
0.14502
0.168176
0.142064
0.0603309
0.0474645
0.0589878
0.0462719
0.0878555
0.0540402
0.0852366
0.05157
0.0290851
0.01681
0.0280596
0.0158683
0.0377244
0.037736
0.0351882
0.035198
0.0102469
0.0102493
0.0092971
0.00929877
0.0540719
0.0879084
0.0515973
0.0852832
0.0168188
0.0291029
0.0158754
0.0280751
0.145102
0.171474
0.142137
0.168279
0.0474953
0.0603759
0.0462995
0.0590286
0.175013
0.148407
0.173567
0.147068
0.0618392
0.0487989
0.0612485
0.0482787
0.0908593
0.0568644
0.0896755
0.0557571
0.0302326
0.0178511
0.0297862
0.0174507
0.0405901
0.0406039
0.0394747
0.0394876
0.0112922
0.0112955
0.0108936
0.0108966
0.0569024
0.0909215
0.0557924
0.0897336
0.0178622
0.0302538
0.0174609
0.029806
0.148501
0.175142
0.147156
0.173689
0.0488345
0.0618906
0.0483122
0.0612971
0.176497
0.149777
0.175955
0.149278
0.062432
0.0493143
0.062219
0.0491316
0.0920697
0.0579866
0.0916321
0.0575851
0.0306771
0.0182387
0.0305195
0.0181049
0.0417038
0.0417189
0.0413106
0.0413252
0.0116686
0.0116724
0.011542
0.0115456
0.058028
0.0921371
0.0576252
0.0916974
0.018251
0.0307001
0.0181168
0.0305418
0.149878
0.176636
0.149376
0.176089
0.0493527
0.0624872
0.0491689
0.0622726
0.176931
0.150178
0.176814
0.150071
0.0625974
0.0494499
0.062556
0.0494194
0.0924279
0.0583173
0.0923325
0.0582306
0.030802
0.0183403
0.030771
0.0183176
0.0420228
0.0420384
0.0419427
0.0419581
0.0117592
0.0117631
0.0117423
0.0117462
0.0583601
0.0924975
0.0582729
0.0924013
0.018353
0.0308258
0.0183302
0.0307945
0.150283
0.177074
0.150174
0.176956
0.0494896
0.0626543
0.0494585
0.0626123
0.176908
0.150168
0.176961
0.150212
0.0625887
0.0494347
0.0626074
0.0494553
0.0924339
0.0583352
0.0924668
0.0583606
0.0308027
0.0183387
0.0308141
0.0183498
0.0420395
0.0420552
0.0420657
0.0420814
0.0117555
0.0117595
0.0117677
0.0117717
0.0583784
0.0925042
0.0584037
0.092537
0.0183515
0.0308266
0.0183626
0.0308381
0.150274
0.177053
0.150317
0.177105
0.0494746
0.0626461
0.0494952
0.0626647
0.176698
0.149997
0.176836
0.150112
0.0625102
0.0493596
0.0625631
0.0494095
0.092309
0.0582433
0.092398
0.0583138
0.0307572
0.0183019
0.0307901
0.0183292
0.0419568
0.0419725
0.0420225
0.0420382
0.0117201
0.011724
0.0117468
0.0117507
0.0582865
0.0923793
0.058357
0.0924684
0.0183147
0.0307812
0.018342
0.0308141
0.150103
0.176843
0.150218
0.176981
0.0493996
0.0625677
0.0494495
0.0626206
0.176387
0.149743
0.176568
0.149893
0.0623952
0.0492545
0.0624634
0.0493169
0.0921157
0.0580905
0.0922347
0.0581897
0.0306859
0.0182438
0.0307306
0.0182819
0.0418175
0.0418331
0.041911
0.0419267
0.0116649
0.0116688
0.011702
0.0117059
0.0581336
0.0921858
0.0582328
0.092305
0.0182565
0.0307098
0.0182946
0.0307545
0.149849
0.176531
0.149999
0.176712
0.0492944
0.0624526
0.0493568
0.0625209
0.176013
0.149441
0.176223
0.149613
0.0622582
0.0491316
0.0623366
0.0492024
0.0918855
0.0579053
0.0920212
0.0580191
0.0306005
0.0181744
0.0306518
0.0182178
0.0416475
0.0416631
0.0417551
0.0417707
0.011599
0.0116029
0.0116414
0.0116453
0.0579481
0.0919552
0.058062
0.0920912
0.018187
0.0306243
0.0182304
0.0306756
0.149546
0.176157
0.149718
0.176367
0.0491713
0.0623153
0.0492422
0.0623939
0.175588
0.149102
0.175822
0.149292
0.0621029
0.0489943
0.0621901
0.049072
0.091627
0.0576957
0.0917762
0.0578211
0.0305037
0.0180958
0.0305605
0.0181436
0.0414549
0.0414704
0.0415733
0.0415888
0.0115249
0.0115287
0.0115713
0.0115751
0.0577382
0.0916963
0.0578637
0.0918457
0.0181082
0.0305272
0.0181561
0.0305841
0.149207
0.175731
0.149397
0.175966
0.0490337
0.0621598
0.0491115
0.0622471
0.175115
0.148729
0.175373
0.148936
0.0619308
0.0488435
0.0620264
0.0489279
0.0913429
0.0574641
0.0915048
0.0576003
0.0303962
0.0180086
0.0304583
0.0180606
0.0412415
0.0412568
0.0413702
0.0413856
0.0114428
0.0114466
0.0114932
0.0114969
0.0575062
0.0914117
0.0576427
0.0915739
0.0180209
0.0304195
0.018073
0.0304817
0.148833
0.175258
0.14904
0.175516
0.0488826
0.0619873
0.0489672
0.0620831
0.174594
0.148321
0.174877
0.148545
0.061741
0.0486782
0.0618455
0.0487699
0.0910323
0.05721
0.0912075
0.0573575
0.0302776
0.0179125
0.0303453
0.017969
0.0410068
0.041022
0.0411462
0.0411615
0.0113526
0.0113563
0.011407
0.0114107
0.0572518
0.0911005
0.0573995
0.0912761
0.0179246
0.0303008
0.0179812
0.0303685
0.148424
0.174736
0.148648
0.175019
0.0487171
0.0617972
0.048809
0.0619019
0.174023
0.147876
0.17433
0.148118
0.0615332
0.0484979
0.0616468
0.0485972
0.0906944
0.0569327
0.0908834
0.0570919
0.0301477
0.0178071
0.0302211
0.0178683
0.0407501
0.0407651
0.0409005
0.0409157
0.0112538
0.0112574
0.0113125
0.0113162
0.0569741
0.0907621
0.0571335
0.0909513
0.0178191
0.0301706
0.0178803
0.0302441
0.147979
0.174164
0.148221
0.174472
0.0485365
0.061589
0.0486359
0.0617028
0.1734
0.147394
0.173734
0.147655
0.0613064
0.0483019
0.0614296
0.0484091
0.0903279
0.0566312
0.0905313
0.0568026
0.0300059
0.0176921
0.0300852
0.0177581
0.0404701
0.040485
0.0406322
0.0406472
0.011146
0.0111495
0.0112092
0.0112128
0.0566722
0.090395
0.0568437
0.0905987
0.0177038
0.0300286
0.01777
0.0301081
0.147495
0.173539
0.147757
0.173874
0.0483402
0.0613619
0.0484476
0.0614853
0.172722
0.146871
0.173083
0.147153
0.0610598
0.048089
0.061193
0.0482048
0.0899312
0.0563042
0.0901498
0.0564884
0.0298515
0.0175668
0.0299372
0.0176379
0.0401659
0.0401807
0.0403402
0.0403551
0.0110287
0.0110322
0.0110967
0.0111002
0.0563447
0.0899975
0.0565291
0.0902166
0.0175784
0.029874
0.0176496
0.0299598
0.146972
0.172861
0.147254
0.173223
0.0481269
0.0611148
0.0482429
0.0612483
0.171988
0.146306
0.172377
0.146609
0.0607924
0.047858
0.060936
0.0479829
0.0895028
0.0559508
0.0897373
0.0561482
0.029684
0.0174309
0.0297763
0.0175073
0.0398365
0.039851
0.0400234
0.0400381
0.0109016
0.010905
0.0109745
0.0109779
0.0559908
0.0895684
0.0561884
0.0898033
0.0174423
0.0297062
0.0175188
0.0297986
0.146406
0.172125
0.146709
0.172515
0.0478956
0.0608469
0.0480207
0.0609908
0.171196
0.145699
0.171614
0.146023
0.0605036
0.0476082
0.060658
0.0477425
0.0890419
0.0555701
0.0892927
0.0557811
0.029503
0.017284
0.029602
0.0173659
0.039481
0.0394954
0.0396809
0.0396954
0.0107644
0.0107676
0.0108423
0.0108456
0.0556096
0.0891067
0.0558209
0.0893579
0.0172952
0.0295248
0.0173772
0.029624
0.145797
0.171332
0.146122
0.171751
0.0476454
0.0605577
0.0477799
0.0607123
0.170344
0.145047
0.170792
0.145393
0.0601931
0.047339
0.0603583
0.0474831
0.0885476
0.0551616
0.088815
0.0553864
0.029308
0.017126
0.029414
0.0172135
0.039099
0.0391132
0.0393121
0.0393264
0.0106168
0.01062
0.0106999
0.0107031
0.0552005
0.0886116
0.0554256
0.0888795
0.0171369
0.0293296
0.0172245
0.0294357
0.145145
0.170479
0.145491
0.170928
0.0473758
0.0602466
0.0475201
0.0604122
0.169433
0.144351
0.169911
0.144719
0.0598605
0.0470507
0.0600367
0.0472041
0.0880198
0.054725
0.0883039
0.0549638
0.0290992
0.0169566
0.0292121
0.0170497
0.0386902
0.0387041
0.0389166
0.0389307
0.0104589
0.0104619
0.010547
0.0105501
0.0547633
0.0880829
0.0550024
0.0883675
0.0169673
0.0291204
0.0170605
0.0292334
0.144448
0.169567
0.144816
0.170045
0.047087
0.0599136
0.0472407
0.0600901
0.168463
0.143611
0.16897
0.144001
0.0595064
0.0467453
0.0596933
0.046907
0.0874585
0.0542606
0.0877592
0.0545131
0.0288767
0.016776
0.0289963
0.0168747
0.0382546
0.0382684
0.0384943
0.0385082
0.0102905
0.0102934
0.0103838
0.0103867
0.0542982
0.0875208
0.0545511
0.087822
0.0167864
0.0288975
0.0168852
0.0290174
0.143706
0.168595
0.144097
0.169103
0.0467812
0.0595589
0.0469432
0.0597461
0.167436
0.142828
0.167971
0.143239
0.0591311
0.0464218
0.0593285
0.0465927
0.0868645
0.0537687
0.0871813
0.0540347
0.0286404
0.0165843
0.0287668
0.0166884
0.0377928
0.0378063
0.0380454
0.038059
0.010112
0.0101147
0.0102102
0.010213
0.0538056
0.0869257
0.054072
0.0872431
0.0165944
0.0286609
0.0166986
0.0287875
0.142922
0.167566
0.143334
0.168103
0.0464572
0.0591829
0.0466284
0.0593806
0.166355
0.142003
0.166917
0.142435
0.0587356
0.0460805
0.0589428
0.0462601
0.0862392
0.0532506
0.0865713
0.0535294
0.028391
0.0163819
0.0285239
0.0164912
0.0373058
0.037319
0.0375707
0.037584
0.00992373
0.00992636
0.0100267
0.0100294
0.0532869
0.0862994
0.053566
0.086632
0.0163916
0.028411
0.0165011
0.0285441
0.142096
0.166484
0.142528
0.167046
0.0461154
0.0587868
0.0462953
0.0589944
0.165224
0.141141
0.16581
0.141591
0.0583214
0.045723
0.0585378
0.0459105
0.0855848
0.0527083
0.085931
0.0529988
0.0281292
0.0161694
0.0282681
0.0162836
0.0367953
0.0368082
0.0370715
0.0370846
0.00972649
0.00972897
0.00983373
0.0098363
0.0527437
0.085644
0.0530347
0.0859908
0.0161789
0.0281488
0.0162932
0.0282879
0.141233
0.165351
0.141683
0.165938
0.0457574
0.0583719
0.0459451
0.0585887
0.164049
0.140245
0.164656
0.140711
0.0578904
0.0453504
0.0581149
0.0455453
0.0849042
0.0521439
0.085263
0.0524449
0.0278559
0.0159479
0.0280004
0.0160664
0.0362633
0.0362759
0.0365498
0.0365626
0.00952113
0.00952346
0.00963221
0.00963463
0.0521785
0.0849622
0.05248
0.0853216
0.015957
0.0278751
0.0160757
0.0280198
0.140335
0.164174
0.140802
0.164783
0.0453842
0.0579403
0.0455794
0.0581651
0.162837
0.13932
0.163461
0.139799
0.0574451
0.0449637
0.0576764
0.0451653
0.084201
0.0515605
0.0845704
0.0518705
0.0275727
0.0157184
0.0277219
0.0158407
0.0357128
0.0357251
0.036008
0.0360205
0.00930878
0.00931095
0.0094231
0.00942536
0.0515944
0.0842579
0.0519048
0.0846279
0.0157272
0.0275915
0.0158496
0.0277409
0.139408
0.16296
0.139888
0.163586
0.0449969
0.0574942
0.0451988
0.0577259
0.161594
0.138372
0.162233
0.138862
0.0569879
0.0445667
0.0572247
0.0447729
0.0834797
0.0509617
0.0838576
0.0512788
0.0272812
0.0154823
0.0274342
0.0156076
0.0351469
0.0351589
0.0354492
0.0354614
0.00909076
0.00909277
0.00920764
0.00920973
0.0509947
0.0835354
0.0513122
0.0839139
0.0154907
0.0272995
0.0156162
0.0274528
0.138459
0.161715
0.13895
0.162355
0.0445993
0.0570364
0.0448058
0.0572735
0.160327
0.137405
0.160977
0.137904
0.0565217
0.0441618
0.0567626
0.0443716
0.0827438
0.0503508
0.0831283
0.0506733
0.026983
0.0152409
0.0271391
0.0153686
0.0345691
0.0345807
0.0348767
0.0348886
0.00886855
0.00887039
0.00898722
0.00898915
0.0503829
0.0827982
0.0507059
0.0831834
0.0152489
0.0270008
0.0153768
0.0271572
0.13749
0.160447
0.13799
0.161098
0.0441938
0.0565694
0.044404
0.0568107
0.159044
0.136423
0.159701
0.136929
0.0560487
0.0437509
0.0562927
0.0439634
0.0819965
0.0497311
0.0823862
0.0500575
0.0266795
0.0149957
0.026838
0.015125
0.0339828
0.0339941
0.0342941
0.0343056
0.00864373
0.0086454
0.00876339
0.00876515
0.0497623
0.0820497
0.0500892
0.0824401
0.0150033
0.0266969
0.0151329
0.0268557
0.136506
0.159162
0.137013
0.15982
0.0437823
0.0560956
0.0439952
0.05634
0.157745
0.135426
0.15841
0.13594
0.05557
0.0433355
0.0558169
0.0435502
0.0812386
0.0491041
0.0816337
0.049434
0.0263716
0.0147477
0.0265323
0.0148782
0.0333903
0.0334013
0.0337044
0.0337156
0.00841776
0.00841926
0.00853772
0.00853931
0.0491344
0.0812905
0.0494648
0.0816863
0.014755
0.0263885
0.0148857
0.0265494
0.135509
0.157861
0.136023
0.158527
0.0433663
0.0556161
0.0435813
0.0558634
0.156423
0.134407
0.157102
0.134934
0.0550828
0.0429142
0.0553346
0.0431322
0.0804636
0.0484662
0.0808686
0.0488022
0.0260581
0.0144969
0.0262218
0.0146289
0.0327904
0.032801
0.0331086
0.0331194
0.00819136
0.00819268
0.00831141
0.00831283
0.0484955
0.0805142
0.0488321
0.08092
0.0145039
0.0260745
0.014636
0.0262385
0.134488
0.156537
0.135015
0.157217
0.0429444
0.0551282
0.0431627
0.0553803
0.155048
0.133335
0.155759
0.133894
0.0545771
0.0424794
0.05484
0.0427051
0.0796498
0.0478029
0.080078
0.0481543
0.0257335
0.0142405
0.0259037
0.0143759
0.032172
0.0321822
0.0325015
0.032512
0.00796294
0.00796408
0.00808431
0.00808555
0.0478313
0.079699
0.0481832
0.080128
0.014247
0.0257493
0.0143826
0.0259199
0.133414
0.15516
0.133973
0.155872
0.0425087
0.0546216
0.0427349
0.0548849
0.153556
0.132147
0.154336
0.132773
0.0540287
0.0420171
0.0543172
0.0422607
0.0787513
0.0470782
0.0792294
0.0474665
0.0253834
0.0139684
0.025569
0.0141134
0.0315031
0.0315128
0.0318636
0.0318736
0.00772514
0.00772609
0.00785254
0.0078536
0.0471054
0.0787989
0.0474943
0.0792779
0.0139745
0.0253986
0.0141197
0.0255846
0.132224
0.153664
0.132851
0.154446
0.0420455
0.0540721
0.0422895
0.0543611
0.151825
0.130747
0.152743
0.131494
0.053388
0.0414787
0.0537307
0.041767
0.0776804
0.0462142
0.0782593
0.0466853
0.0249759
0.0136563
0.0251955
0.0138255
0.03071
0.0307192
0.0311451
0.0311546
0.00745819
0.00745892
0.00760359
0.00760445
0.0462399
0.077726
0.0467118
0.0783059
0.0136619
0.0249904
0.0138314
0.0252105
0.13082
0.151931
0.13157
0.152851
0.0415061
0.05343
0.0417949
0.0537734
0.149652
0.128945
0.150823
0.129926
0.0525678
0.0407894
0.0530137
0.0411655
0.0762577
0.0450546
0.0770439
0.0456996
0.0244464
0.0132526
0.0247381
0.0134763
0.0296489
0.0296573
0.030241
0.0302498
0.00711919
0.00711963
0.00730766
0.00730827
0.0450784
0.0763006
0.0457244
0.0770883
0.0132575
0.02446
0.0134816
0.0247522
0.129016
0.149753
0.129999
0.150926
0.0408155
0.0526082
0.0411923
0.0530549
0.146807
0.126196
0.148327
0.12777
0.0514563
0.0398108
0.0520587
0.0403528
0.0740335
0.043295
0.0753087
0.0442899
0.0236497
0.0126554
0.0241016
0.0129924
0.0280929
0.0281003
0.0289633
0.0289713
0.00663398
0.00663403
0.006906
0.00690627
0.0433162
0.074073
0.0443126
0.07535
0.0126594
0.0236621
0.0129969
0.0241146
0.126262
0.146904
0.127839
0.148426
0.0398356
0.0514948
0.0403783
0.0520981
0.14445
0.119607
0.145356
0.123928
0.0499675
0.0377021
0.050802
0.0390651
0.0697136
0.0405116
0.072286
0.0420581
0.022208
0.0117228
0.0230544
0.0122419
0.025876
0.025882
0.0270771
0.0270838
0.00593967
0.0059392
0.00631787
0.00631768
0.0405295
0.0697484
0.0420778
0.0723233
0.0117256
0.0222186
0.0122453
0.0230659
0.119668
0.144544
0.123991
0.145451
0.0377244
0.0500043
0.0390889
0.0508397
0.0993132
0.0799012
0.0432101
0.0354747
0.0879186
0.070552
0.0366844
0.0303585
0.0321204
0.00861433
0.00835867
0.00330698
0.0262569
0.00660003
0.00696683
0.0030786
0.00277669
0.0027748
0.00268994
0.00269015
0.0023879
0.00238664
0.00277731
0.00277748
0.00860952
0.0321218
0.00330593
0.00835792
0.00659629
0.0262566
0.00307793
0.00696593
0.0799231
0.0993608
0.0354831
0.0432376
0.0705681
0.0879558
0.0303635
0.036704
0.172922
0.143303
0.141571
0.11573
0.154062
0.127098
0.126138
0.102689
0.0803147
0.0402154
0.0583601
0.0234967
0.0684018
0.0322972
0.0493085
0.0181069
0.0172846
0.0172802
0.00643516
0.00642971
0.0119319
0.0119266
0.00452847
0.00452451
0.0402177
0.080336
0.0234906
0.0583708
0.0322968
0.0684172
0.0181008
0.0493156
0.143352
0.173003
0.115765
0.141636
0.127137
0.154127
0.102716
0.126189
0.213946
0.180483
0.19636
0.164402
0.189863
0.159372
0.174623
0.145508
0.111792
0.0675357
0.0979138
0.0550643
0.0952712
0.0549929
0.0835018
0.044661
0.044464
0.0444722
0.0318224
0.0318252
0.0339847
0.0339899
0.0235823
0.0235827
0.0675608
0.11184
0.0550779
0.0979479
0.0550102
0.0953075
0.044669
0.083527
0.180563
0.214063
0.164466
0.196458
0.159436
0.189957
0.145559
0.174702
0.236892
0.201788
0.227121
0.192672
0.209467
0.177478
0.201161
0.169771
0.13079
0.085382
0.122585
0.0775919
0.111164
0.0697095
0.104334
0.0633002
0.0626504
0.0626667
0.0547168
0.0547294
0.0490424
0.0490546
0.042479
0.042488
0.0854277
0.130866
0.0776278
0.122648
0.069744
0.111223
0.0633265
0.104381
0.201902
0.23705
0.19277
0.227259
0.177569
0.209595
0.169849
0.201273
0.249182
0.213342
0.244065
0.208521
0.219794
0.187126
0.215514
0.18312
0.141337
0.0955106
0.136923
0.0912641
0.119837
0.0779613
0.116226
0.0745184
0.0729245
0.0729464
0.0686268
0.0686462
0.0574573
0.0574744
0.0539563
0.0539712
0.0955723
0.141437
0.0913185
0.137011
0.078009
0.119915
0.0745601
0.116295
0.213486
0.249377
0.208651
0.244242
0.187242
0.219952
0.183224
0.215658
0.255187
0.219022
0.252784
0.216747
0.224759
0.191786
0.222783
0.18993
0.146564
0.100538
0.144472
0.098531
0.124055
0.0819777
0.122378
0.0803862
0.0779849
0.0780106
0.0759715
0.0759955
0.0615105
0.0615307
0.0599119
0.0599308
0.100611
0.14668
0.0985987
0.144581
0.0820342
0.124145
0.0804388
0.122463
0.219188
0.255409
0.216904
0.252994
0.191919
0.224939
0.190056
0.222953
0.257717
0.221431
0.256779
0.220535
0.22681
0.193721
0.226056
0.193008
0.148791
0.102669
0.147965
0.101883
0.125809
0.0836348
0.125165
0.083031
0.0801104
0.0801383
0.0793301
0.0793571
0.0631604
0.0631823
0.0625638
0.0625851
0.102748
0.148916
0.101959
0.148087
0.0836961
0.125908
0.0830903
0.125261
0.22161
0.257956
0.220709
0.257011
0.193864
0.227004
0.193147
0.226243
0.258505
0.222204
0.25828
0.221977
0.227425
0.194317
0.227256
0.194148
0.149523
0.103372
0.149306
0.103164
0.126362
0.0841568
0.126205
0.0840091
0.0808075
0.0808363
0.080603
0.0806314
0.0636735
0.0636962
0.0635309
0.0635534
0.103454
0.149654
0.103245
0.149434
0.0842203
0.126464
0.0840718
0.126305
0.222389
0.258752
0.22216
0.258523
0.194465
0.227625
0.194294
0.227453
0.258511
0.222248
0.258586
0.2223
0.227406
0.194329
0.227476
0.19438
0.149602
0.103465
0.149634
0.103489
0.126403
0.0842086
0.126437
0.0842358
0.080905
0.0809342
0.0809272
0.0809563
0.0637277
0.0637506
0.0637542
0.0637771
0.103548
0.149734
0.103571
0.149766
0.0842727
0.126506
0.0842998
0.12654
0.222436
0.258761
0.222487
0.258835
0.194479
0.227608
0.19453
0.227677
0.258199
0.222007
0.258408
0.222176
0.227128
0.194113
0.227311
0.194261
0.149434
0.10334
0.149563
0.103445
0.126251
0.0840944
0.126364
0.0841858
0.0807958
0.080825
0.0808926
0.0809218
0.063627
0.0636499
0.0637113
0.0637342
0.103422
0.149567
0.103528
0.149696
0.0841585
0.126354
0.08425
0.126467
0.222195
0.25845
0.222364
0.258658
0.194263
0.22733
0.194411
0.227513
0.257727
0.221622
0.258004
0.221852
0.226717
0.19378
0.226956
0.193977
0.149143
0.103104
0.149327
0.10326
0.126001
0.083893
0.126157
0.0840249
0.0805826
0.0806117
0.0807282
0.0807574
0.0634445
0.0634674
0.0635679
0.0635908
0.103186
0.149275
0.103343
0.149459
0.0839569
0.126104
0.084089
0.12626
0.22181
0.257978
0.22204
0.258254
0.19393
0.226919
0.194127
0.227158
0.257164
0.221161
0.257482
0.221425
0.226227
0.193383
0.226502
0.19361
0.148789
0.102812
0.149001
0.102993
0.125699
0.0836465
0.125878
0.0837985
0.0803152
0.0803442
0.0804853
0.0805144
0.0632191
0.0632418
0.0633619
0.0633847
0.102894
0.14892
0.103075
0.149132
0.0837101
0.125801
0.0838623
0.125981
0.221348
0.257413
0.221613
0.257731
0.193532
0.226428
0.193759
0.226703
0.25653
0.220643
0.256881
0.220934
0.225674
0.192938
0.225979
0.193187
0.14839
0.102481
0.148623
0.10268
0.125359
0.083368
0.125556
0.0835351
0.0800122
0.080041
0.080199
0.0802279
0.0629637
0.0629863
0.0631206
0.0631433
0.102563
0.14852
0.102762
0.148753
0.0834312
0.125461
0.0835985
0.125659
0.220829
0.256778
0.22112
0.257129
0.193086
0.225874
0.193336
0.226179
0.255833
0.220076
0.256215
0.220391
0.225064
0.192449
0.225397
0.19272
0.147952
0.102117
0.148204
0.102333
0.124986
0.0830609
0.1252
0.0832421
0.079678
0.0797067
0.0798801
0.0799089
0.0626816
0.0627041
0.0628517
0.0628743
0.102198
0.148081
0.102414
0.148334
0.0831237
0.125087
0.0833051
0.125301
0.220261
0.25608
0.220576
0.256462
0.192596
0.225263
0.192867
0.225597
0.255071
0.219457
0.255486
0.219798
0.224395
0.191915
0.224758
0.192208
0.147474
0.10172
0.147746
0.101952
0.124578
0.0827249
0.124809
0.0829206
0.0793127
0.0793412
0.0795303
0.0795589
0.0623725
0.0623948
0.0625561
0.0625785
0.101801
0.147603
0.102033
0.147875
0.0827872
0.124678
0.0829831
0.12491
0.219641
0.255316
0.219983
0.255732
0.192061
0.224593
0.192355
0.224957
0.254241
0.218787
0.25469
0.219154
0.223665
0.191334
0.224059
0.191651
0.146955
0.101289
0.147248
0.101538
0.124135
0.0823591
0.124384
0.0825697
0.0789152
0.0789435
0.079149
0.0791774
0.0620353
0.0620574
0.0622331
0.0622553
0.101368
0.147083
0.101618
0.147376
0.0824209
0.124234
0.0826318
0.124484
0.218969
0.254485
0.219337
0.254935
0.191479
0.223862
0.191797
0.224256
0.253341
0.218061
0.253825
0.218456
0.222872
0.190706
0.223298
0.191047
0.146394
0.100821
0.146708
0.101088
0.123654
0.081962
0.123922
0.0821884
0.0784838
0.0785119
0.0787347
0.0787628
0.0616688
0.0616907
0.0618813
0.0619034
0.1009
0.146521
0.101168
0.146835
0.0820233
0.123753
0.0822499
0.124021
0.218242
0.253582
0.218638
0.254068
0.19085
0.223067
0.191191
0.223494
0.252366
0.217278
0.252888
0.217702
0.222012
0.190027
0.222471
0.190393
0.145787
0.100315
0.146124
0.100602
0.123135
0.0815321
0.123422
0.081775
0.0780168
0.0780446
0.0782856
0.0783135
0.0612713
0.061293
0.0614994
0.0615212
0.100393
0.145913
0.100681
0.14625
0.0815927
0.123233
0.0818359
0.12352
0.217457
0.252606
0.217882
0.253129
0.19017
0.222205
0.190537
0.222666
0.251313
0.216433
0.251874
0.216887
0.221081
0.189294
0.221576
0.189687
0.145134
0.0997689
0.145494
0.100076
0.122575
0.0810678
0.122882
0.0813278
0.0775125
0.0775401
0.0777999
0.0778276
0.0608416
0.0608631
0.0610858
0.0611074
0.0998466
0.145258
0.100154
0.145619
0.0811278
0.122671
0.0813882
0.12298
0.216611
0.251551
0.217066
0.252113
0.189436
0.221273
0.189829
0.221769
0.250181
0.215528
0.250782
0.216013
0.22008
0.188509
0.22061
0.188928
0.144432
0.099182
0.144816
0.0995094
0.121973
0.0805683
0.122301
0.080846
0.0769697
0.076997
0.0772764
0.0773038
0.0603786
0.0603999
0.0606395
0.0606609
0.0992589
0.144555
0.0995867
0.14494
0.0806276
0.122068
0.0809057
0.122397
0.215704
0.250417
0.21619
0.251019
0.188649
0.22027
0.189069
0.220801
0.248967
0.214558
0.249609
0.215076
0.219005
0.187668
0.219572
0.188115
0.14368
0.0985529
0.144089
0.0989014
0.121328
0.0800327
0.121678
0.0803283
0.0763874
0.0764144
0.0767138
0.0767409
0.0598816
0.0599026
0.0601594
0.0601806
0.0986289
0.143802
0.0989778
0.144212
0.0800912
0.121422
0.0803873
0.121773
0.214733
0.249201
0.215251
0.249844
0.187806
0.219194
0.188254
0.219762
0.247672
0.213524
0.248354
0.214073
0.217857
0.186771
0.218461
0.187246
0.142878
0.0978814
0.143312
0.0982509
0.120639
0.0794606
0.121011
0.0797744
0.0757652
0.0757918
0.0761114
0.0761382
0.0593502
0.0593709
0.0596451
0.059666
0.0979564
0.142998
0.0983264
0.143433
0.0795184
0.120733
0.0798326
0.121105
0.213696
0.247903
0.214246
0.248586
0.186908
0.218043
0.187384
0.218648
0.246298
0.212432
0.247019
0.213009
0.216634
0.185816
0.217274
0.186321
0.142028
0.0971679
0.142485
0.0975582
0.119908
0.0788521
0.120301
0.0791839
0.075103
0.0751293
0.075469
0.0754955
0.0587843
0.0588048
0.0590963
0.0591169
0.097242
0.142146
0.0976328
0.142605
0.078909
0.12
0.0792413
0.120394
0.212602
0.246527
0.21318
0.247249
0.185951
0.216819
0.186457
0.21746
0.244843
0.211279
0.245605
0.211887
0.215343
0.184804
0.216017
0.185336
0.141129
0.0964124
0.141611
0.0968235
0.119133
0.0782076
0.119547
0.0785571
0.074401
0.0744269
0.0747867
0.0748128
0.0581844
0.0582045
0.0585131
0.0585334
0.0964854
0.141246
0.096897
0.141729
0.0782636
0.119224
0.0786136
0.119639
0.211447
0.245069
0.212057
0.245832
0.184938
0.215525
0.185471
0.216201
0.24331
0.210064
0.24411
0.210703
0.213984
0.183741
0.214691
0.184298
0.140181
0.0956157
0.140687
0.0960469
0.118318
0.0775285
0.118752
0.077895
0.0736601
0.0736857
0.0740648
0.0740906
0.0575515
0.0575713
0.0578963
0.0579163
0.0956876
0.140297
0.0961194
0.140804
0.0775836
0.118407
0.0779506
0.118842
0.21023
0.243534
0.21087
0.244335
0.183873
0.214164
0.184431
0.214872
0.241706
0.208792
0.24254
0.209458
0.212562
0.18263
0.2133
0.18321
0.139189
0.0947804
0.139717
0.0952304
0.117464
0.076817
0.117917
0.0771992
0.0728825
0.0729076
0.0733051
0.0733304
0.0568876
0.056907
0.0572474
0.0572671
0.0948511
0.139302
0.0953017
0.139831
0.0768711
0.117552
0.0772538
0.118006
0.208955
0.241927
0.209623
0.242763
0.18276
0.21274
0.183341
0.213479
0.240037
0.207467
0.240903
0.208159
0.211083
0.181475
0.211849
0.182076
0.138154
0.0939093
0.138703
0.0943765
0.116576
0.0760758
0.117045
0.0764722
0.0720708
0.0720956
0.0725098
0.0725347
0.0561951
0.0562142
0.0565687
0.056588
0.0939788
0.138266
0.0944466
0.138815
0.0761288
0.116662
0.0765259
0.117133
0.207628
0.240255
0.208321
0.241122
0.181603
0.211259
0.182205
0.212025
0.238311
0.206095
0.239204
0.206809
0.209554
0.180277
0.210343
0.1809
0.137083
0.0930064
0.137649
0.0934887
0.115656
0.0753081
0.116141
0.0757171
0.0712288
0.0712531
0.0716822
0.0717067
0.0554775
0.0554961
0.055863
0.0558819
0.0930746
0.137193
0.0935576
0.13776
0.07536
0.115741
0.0757696
0.116226
0.206253
0.238525
0.206969
0.23942
0.180402
0.209727
0.181027
0.210518
0.236537
0.204682
0.237452
0.205415
0.207985
0.179043
0.208793
0.179682
0.13598
0.0920765
0.136561
0.0925714
0.114709
0.0745184
0.115206
0.0749376
0.070361
0.0703848
0.0708265
0.0708505
0.0547386
0.0547569
0.055134
0.0551525
0.0921434
0.136088
0.092639
0.136669
0.0745693
0.114793
0.074989
0.11529
0.204838
0.236749
0.205573
0.237665
0.179167
0.208155
0.179807
0.208964
0.234727
0.203238
0.235659
0.203986
0.206386
0.177786
0.207207
0.178435
0.134852
0.0911249
0.135444
0.0916299
0.113743
0.0737117
0.114249
0.0741386
0.0694721
0.0694955
0.0699473
0.0699709
0.0539831
0.054001
0.0543861
0.0544042
0.0911905
0.134958
0.0916961
0.135551
0.0737614
0.113825
0.074189
0.114331
0.203392
0.234935
0.204141
0.235869
0.177907
0.206554
0.178558
0.207377
0.232888
0.201768
0.233833
0.202528
0.204764
0.176508
0.205596
0.177167
0.133702
0.0901554
0.134305
0.0906687
0.11276
0.0728914
0.113274
0.0733245
0.0685662
0.0685891
0.0690492
0.0690724
0.0532146
0.0532321
0.0536234
0.0536411
0.0902195
0.133806
0.0907336
0.13441
0.07294
0.11284
0.0733737
0.113355
0.201919
0.233093
0.20268
0.23404
0.176627
0.204929
0.177288
0.205762
0.23102
0.20027
0.23198
0.201045
0.203119
0.175209
0.203963
0.175879
0.132531
0.0891678
0.133145
0.0896903
0.111761
0.0720585
0.112284
0.0724979
0.067644
0.0676664
0.0681352
0.0681578
0.0524351
0.0524521
0.0528493
0.0528665
0.0892305
0.132632
0.0897538
0.133247
0.0721059
0.11184
0.0725459
0.112363
0.200418
0.231221
0.201194
0.232183
0.175326
0.203282
0.175997
0.204127
0.229109
0.198728
0.230094
0.199528
0.201442
0.173877
0.202305
0.174566
0.131323
0.0881514
0.131958
0.0886904
0.110736
0.0712062
0.111273
0.0716567
0.0666966
0.0667184
0.0672022
0.0672243
0.0516396
0.0516562
0.0520628
0.0520796
0.0882126
0.131422
0.0887524
0.132058
0.0712523
0.110812
0.0717035
0.111351
0.198873
0.229306
0.199674
0.230293
0.173991
0.201601
0.174682
0.202465
0.227106
0.197096
0.228145
0.197949
0.199692
0.172474
0.200598
0.173205
0.130039
0.0870718
0.130719
0.0876486
0.109654
0.0703099
0.110225
0.0707868
0.0656928
0.065714
0.0662323
0.0662538
0.0508073
0.0508234
0.0512528
0.0512692
0.0871313
0.130135
0.087709
0.130817
0.0703546
0.109728
0.0708323
0.1103
0.197237
0.227299
0.198092
0.228341
0.172586
0.199848
0.173319
0.200756
0.224905
0.195275
0.226061
0.196239
0.197784
0.17092
0.198784
0.17174
0.128589
0.0858493
0.129367
0.086511
0.108445
0.0693104
0.109091
0.0698491
0.0645571
0.0645776
0.0651754
0.0651963
0.0498833
0.0498987
0.0503842
0.0504
0.0859067
0.128683
0.0865695
0.129462
0.0693535
0.108516
0.0698931
0.109164
0.195412
0.225094
0.196378
0.226252
0.171029
0.197936
0.171851
0.198937
0.222318
0.193078
0.223697
0.194259
0.195557
0.169062
0.196742
0.170059
0.126803
0.0843256
0.127777
0.0851635
0.106973
0.0680852
0.107773
0.068757
0.0631374
0.063157
0.0639222
0.0639423
0.0487511
0.0487658
0.0493753
0.0493904
0.0843805
0.126893
0.0852197
0.127868
0.0681262
0.107042
0.0687991
0.107843
0.19321
0.2225
0.194394
0.223882
0.169167
0.195704
0.170166
0.196891
0.219054
0.190177
0.220811
0.191764
0.192752
0.166619
0.194263
0.167956
0.124361
0.0822184
0.125715
0.0833925
0.104974
0.0664035
0.106083
0.0673409
0.0611756
0.0611939
0.0622699
0.0622889
0.0472003
0.047214
0.0480661
0.0480803
0.08227
0.124446
0.0834458
0.125803
0.0664418
0.105039
0.0673806
0.10615
0.190303
0.219229
0.191893
0.22099
0.16672
0.192893
0.168059
0.194407
0.214923
0.185822
0.217097
0.188287
0.189129
0.162899
0.191052
0.165017
0.120597
0.0790673
0.122734
0.0808316
0.101855
0.0638608
0.103634
0.0652909
0.0583353
0.0583521
0.0599088
0.0599265
0.0449344
0.0449468
0.046195
0.0462081
0.0791147
0.120676
0.0808812
0.122816
0.0638956
0.101915
0.0653277
0.103697
0.185941
0.215091
0.18841
0.217269