/*--------------------------------*- C++ -*----------------------------------*\
  =========                 |
  \\      /  F ield         | OpenFOAM: The Open Source CFD Toolbox
   \\    /   O peration     | Website:  https://openfoam.org
    \\  /    A nd           | Version:  9
     \\/     M anipulation  |
\*---------------------------------------------------------------------------*/
FoamFile
{
    format      ascii;
    class       surfaceScalarField;
    location    "1.95";
    object      phi;
}
// * * * * * * * * * * * * * * * * * * * * * * * * * * * * * * * * * * * * * //

dimensions      [0 3 -1 0 0 0 0];

internalField   nonuniform List<scalar> 
104044
(
3.89274e-07
-6.53974e-05
-3.98196e-07
6.43595e-05
1.04682e-06
-4.59435e-05
-3.03777e-06
-1.40741e-07
4.85964e-05
9.14884e-07
1.93307e-07
-8.05255e-07
1.13534e-06
-2.68244e-06
-7.58002e-08
6.76892e-07
1.5312e-08
-6.75692e-05
6.71557e-05
-4.52781e-05
4.15882e-09
4.22515e-05
4.94694e-08
-2.40433e-08
-8.65775e-09
-5.24313e-05
-1.96455e-06
5.29363e-05
1.32747e-06
-5.48715e-05
-6.07756e-07
-4.49042e-11
5.52819e-05
1.88682e-07
-3.72958e-09
-1.56655e-06
7.05527e-07
-1.02305e-06
-4.30848e-11
1.99515e-07
-8.70648e-09
-5.64049e-05
5.44532e-05
-5.64652e-05
-2.53013e-09
5.58513e-05
-5.22302e-09
-6.19571e-10
-8.54031e-13
-5.55574e-05
-6.05737e-07
5.60369e-05
1.2619e-07
-5.55571e-05
-6.05759e-07
4.2477e-11
5.60366e-05
1.26225e-07
-6.82935e-13
-1.07269e-06
2.20724e-07
-1.0727e-06
4.25723e-11
2.20735e-07
-1.4688e-12
-5.57662e-05
5.51579e-05
-5.57657e-05
2.52912e-09
5.51574e-05
-3.62737e-13
6.18107e-10
8.65215e-09
-5.48702e-05
-6.07665e-07
5.52806e-05
1.88688e-07
-5.24286e-05
-1.96489e-06
1.40741e-07
5.29336e-05
1.32778e-06
3.7294e-09
-1.02303e-06
1.9954e-07
-1.56666e-06
7.57998e-08
7.05704e-07
8.68749e-09
-5.64637e-05
5.58499e-05
-5.64016e-05
-4.32496e-09
5.44497e-05
5.22131e-09
2.40436e-08
-3.89336e-07
-4.59409e-05
-3.03786e-06
4.85945e-05
9.1437e-07
-6.54012e-05
-3.98418e-07
6.43632e-05
1.04711e-06
-1.93349e-07
-2.6828e-06
6.76828e-07
-8.05953e-07
1.13616e-06
-1.52444e-08
-4.52728e-05
4.22459e-05
-6.7578e-05
6.71643e-05
-4.94463e-08
3.76471e-07
-6.32583e-05
-1.27039e-06
6.22282e-05
1.92399e-06
-5.04914e-05
4.51897e-07
-1.06277e-07
5.14851e-05
-9.62819e-07
4.05071e-07
-8.71606e-07
1.56777e-06
-1.31975e-06
-1.30549e-07
-3.96887e-08
-1.98463e-07
-6.63606e-05
6.52886e-05
-4.07878e-05
1.43086e-07
4.08981e-05
-7.64567e-08
6.75451e-08
-1.53875e-08
-5.3438e-05
-1.94501e-06
5.36658e-05
1.62636e-06
-5.55272e-05
-8.95711e-07
-3.49046e-09
5.55996e-05
8.11403e-07
-1.14714e-08
-2.36124e-06
1.74041e-06
-8.2976e-07
-1.85433e-09
5.7488e-07
-1.01545e-08
-5.21677e-05
5.03759e-05
-5.502e-05
-8.03204e-09
5.41222e-05
-8.10948e-09
-6.58042e-09
9.29407e-13
-5.64697e-05
-3.19532e-07
5.66481e-05
1.3769e-07
-5.64693e-05
-3.19415e-07
3.48875e-09
5.66477e-05
1.37592e-07
-9.43242e-13
-4.76984e-07
4.23101e-08
-4.76928e-07
1.8505e-09
4.22848e-08
1.60321e-13
-5.46743e-05
5.43468e-05
-5.46739e-05
8.03458e-09
5.43464e-05
-2.38807e-12
6.57991e-09
1.53685e-08
-5.55257e-05
-8.95701e-07
5.55981e-05
8.11501e-07
-5.34355e-05
-1.94522e-06
1.06248e-07
5.36634e-05
1.62644e-06
1.1457e-08
-8.29671e-07
5.74905e-07
-2.36161e-06
1.30533e-07
1.74063e-06
1.01356e-08
-5.50187e-05
5.41209e-05
-5.21638e-05
-1.43171e-07
5.03719e-05
8.09465e-09
-6.7592e-08
-3.76432e-07
-5.04897e-05
4.5278e-07
5.14836e-05
-9.63986e-07
-6.32618e-05
-1.27096e-06
6.22315e-05
1.92475e-06
-4.05086e-07
-1.31919e-06
-4.04122e-08
-8.72005e-07
1.56833e-06
1.98728e-07
-4.07825e-05
4.08934e-05
-6.63689e-05
6.52967e-05
7.66133e-08
2.29588e-07
-6.13465e-05
-1.66422e-06
6.05821e-05
2.19902e-06
-5.21645e-05
1.93203e-06
-2.38421e-08
5.27011e-05
-2.21527e-06
3.07307e-07
-1.51733e-06
2.09177e-06
1.376e-06
-6.57344e-08
-1.68234e-06
-4.69848e-07
-6.41031e-05
6.29087e-05
-4.17228e-05
2.93029e-07
4.2892e-05
-3.31796e-07
2.19522e-07
-1.11098e-08
-5.36922e-05
-9.1769e-07
5.36678e-05
9.29393e-07
-5.55639e-05
-5.32011e-07
-1.1027e-08
5.54545e-05
6.41313e-07
-1.45083e-08
-1.34514e-06
1.26749e-06
-7.43469e-07
-5.20303e-09
7.69883e-07
-4.20264e-09
-4.92591e-05
4.86386e-05
-5.33798e-05
-1.18295e-08
5.28554e-05
-8.79294e-09
-9.82176e-09
-1.43441e-11
-5.65983e-05
-1.32238e-07
5.64628e-05
2.56761e-07
-5.65978e-05
-1.32182e-07
1.11034e-08
5.64622e-05
2.56675e-07
7.08161e-12
-2.03555e-07
2.48119e-07
-2.03455e-07
5.18789e-09
2.48136e-07
9.6169e-12
-5.41334e-05
5.39893e-05
-5.41331e-05
1.18427e-08
5.39891e-05
4.63966e-12
9.82576e-09
1.11375e-08
-5.55623e-05
-5.32129e-07
5.54529e-05
6.41509e-07
-5.369e-05
-9.17708e-07
2.37647e-08
5.36656e-05
9.29426e-07
1.43859e-08
-7.43525e-07
7.70061e-07
-1.34519e-06
6.56746e-08
1.26734e-06
4.17876e-09
-5.33784e-05
5.28539e-05
-4.92551e-05
-2.93188e-07
4.86348e-05
8.7736e-09
-2.19645e-07
-2.29459e-07
-5.21632e-05
1.93317e-06
5.26999e-05
-2.21672e-06
-6.13497e-05
-1.6651e-06
6.05851e-05
2.20023e-06
-3.07211e-07
1.37705e-06
-1.68372e-06
-1.51803e-06
2.09271e-06
4.70341e-07
-4.17186e-05
4.28883e-05
-6.41108e-05
6.29161e-05
3.32172e-07
6.54781e-08
-5.99313e-05
-1.76168e-06
5.93619e-05
2.26555e-06
-5.31523e-05
2.32822e-06
6.07105e-08
5.35428e-05
-2.71399e-06
1.44323e-07
-1.71297e-06
2.21946e-06
2.19161e-06
1.48117e-08
-2.51322e-06
-7.03243e-07
-6.17835e-05
6.07251e-05
-4.41466e-05
3.99972e-07
4.53717e-05
-5.87741e-07
3.49174e-07
3.10739e-09
-5.36621e-05
-4.40032e-07
5.36968e-05
4.6294e-07
-5.53236e-05
-2.53312e-07
-1.38382e-08
5.52067e-05
3.87171e-07
-8.0343e-09
-6.17488e-07
6.46046e-07
-3.53481e-07
-1.35064e-08
4.89897e-07
1.2919e-08
-4.83669e-05
4.8314e-05
-5.25179e-05
-1.2237e-08
5.22898e-05
3.34635e-09
-1.26752e-08
2.06285e-12
-5.63121e-05
-2.77727e-08
5.61677e-05
1.58291e-07
-5.63115e-05
-2.78222e-08
1.38244e-08
5.61671e-05
1.5837e-07
8.5655e-12
-6.73294e-08
2.04535e-07
-6.73514e-08
1.35125e-08
2.04603e-07
1.66982e-12
-5.39093e-05
5.38693e-05
-5.39091e-05
1.22156e-08
5.38691e-05
6.22651e-12
1.26713e-08
-3.15918e-09
-5.5322e-05
-2.53438e-07
5.52051e-05
3.8732e-07
-5.366e-05
-4.39964e-07
-6.08286e-08
5.36949e-05
4.62786e-07
7.97564e-09
-3.53599e-07
4.9005e-07
-6.17468e-07
-1.48688e-08
6.45908e-07
-1.29791e-08
-5.25164e-05
5.22882e-05
-4.83633e-05
-4.00187e-07
4.83105e-05
-3.38824e-09
-3.49361e-07
-6.5251e-08
-5.31512e-05
2.32951e-06
5.35418e-05
-2.71571e-06
-5.99341e-05
-1.76286e-06
5.93645e-05
2.26717e-06
-1.44135e-07
2.19283e-06
-2.5148e-06
-1.714e-06
2.22087e-06
7.03948e-07
-4.41434e-05
4.53688e-05
-6.17904e-05
6.07315e-05
5.88337e-07
-7.48544e-08
-5.88695e-05
-1.77384e-06
5.84295e-05
2.28873e-06
-5.38725e-05
2.30677e-06
1.19194e-07
5.41537e-05
-2.78201e-06
-8.40346e-09
-1.75803e-06
2.25887e-06
2.32217e-06
9.58337e-08
-2.75611e-06
-8.75999e-07
-5.97563e-05
5.88584e-05
-4.64736e-05
4.60223e-07
4.74442e-05
-7.89234e-07
4.30949e-07
2.04126e-08
-5.37648e-05
-2.69054e-07
5.38516e-05
2.81079e-07
-5.51126e-05
-1.80186e-07
-9.44027e-09
5.50371e-05
2.85524e-07
1.22762e-08
-3.26465e-07
3.41933e-07
-1.99465e-07
-1.18443e-08
3.17639e-07
3.40918e-08
-4.83953e-05
4.85523e-05
-5.21237e-05
-9.41313e-09
5.1987e-05
2.31962e-08
-1.02243e-08
-3.038e-12
-5.60431e-05
-3.61154e-08
5.59313e-05
1.38457e-07
-5.60425e-05
-3.61701e-08
9.42382e-09
5.59307e-05
1.3853e-07
-1.36696e-12
-2.20957e-08
1.34835e-07
-2.21478e-08
1.18139e-08
1.34914e-07
-2.55565e-12
-5.3837e-05
5.37915e-05
-5.38367e-05
9.39689e-09
5.37911e-05
-3.51933e-13
1.02148e-08
-2.04691e-08
-5.51111e-05
-1.80304e-07
5.50356e-05
2.85652e-07
-5.37631e-05
-2.68978e-07
-1.19255e-07
5.385e-05
2.80884e-07
-1.23156e-08
-1.99597e-07
3.17776e-07
-3.26392e-07
-9.59038e-08
3.41764e-07
-3.41789e-08
-5.21221e-05
5.19853e-05
-4.83921e-05
-4.60476e-07
4.85494e-05
-2.32698e-08
-4.31183e-07
7.51452e-08
-5.38716e-05
2.30827e-06
5.41529e-05
-2.78397e-06
-5.88718e-05
-1.77523e-06
5.84316e-05
2.29064e-06
8.66064e-09
2.32356e-06
-2.75793e-06
-1.75931e-06
2.26064e-06
8.76883e-07
-4.64711e-05
4.7442e-05
-5.97622e-05
5.88639e-05
7.90025e-07
-1.83518e-07
-5.80398e-05
-1.74361e-06
5.76832e-05
2.28366e-06
-5.43803e-05
2.16635e-06
1.44045e-07
5.45599e-05
-2.67353e-06
-1.31772e-07
-1.74616e-06
2.26761e-06
2.22103e-06
1.32926e-07
-2.71229e-06
-9.94054e-07
-5.80439e-05
5.72944e-05
-4.82617e-05
4.86255e-07
4.89478e-05
-9.31632e-07
4.7185e-07
3.61904e-08
-5.3943e-05
-2.27266e-07
5.40314e-05
2.46712e-07
-5.49767e-05
-1.72267e-07
-5.77088e-09
5.49237e-05
2.67211e-07
2.81095e-08
-2.36136e-07
2.49539e-07
-1.71411e-07
-7.732e-09
2.67657e-07
5.38177e-08
-4.87442e-05
4.89493e-05
-5.18673e-05
-5.97992e-09
5.17549e-05
4.38936e-08
-7.83645e-09
-6.38636e-12
-5.58299e-05
-8.72803e-08
5.57332e-05
1.782e-07
-5.58293e-05
-8.73196e-08
5.74216e-09
5.57326e-05
1.78248e-07
-4.6053e-12
-6.02078e-08
1.53925e-07
-6.02564e-08
7.70957e-09
1.53985e-07
-6.1861e-12
-5.37234e-05
5.36302e-05
-5.37231e-05
5.95159e-09
5.36298e-05
-4.21746e-12
7.81456e-09
-3.62753e-08
-5.49752e-05
-1.72345e-07
5.49223e-05
2.67308e-07
-5.39415e-05
-2.27189e-07
-1.44091e-07
5.403e-05
2.46483e-07
-2.81786e-08
-1.71507e-07
2.67767e-07
-2.36057e-07
-1.32978e-07
2.49326e-07
-5.39264e-08
-5.18656e-05
5.17532e-05
-4.87414e-05
-4.86525e-07
4.89469e-05
-4.3991e-08
-4.72112e-07
1.8387e-07
-5.43796e-05
2.16801e-06
5.45593e-05
-2.67568e-06
-5.80417e-05
-1.74511e-06
5.76849e-05
2.28574e-06
1.3209e-07
2.22261e-06
-2.71434e-06
-1.74759e-06
2.2696e-06
9.95077e-07
-4.82599e-05
4.89464e-05
-5.80488e-05
5.72988e-05
9.32581e-07
-2.62453e-07
-5.73607e-05
-1.68716e-06
5.70596e-05
2.25078e-06
-5.46917e-05
2.01076e-06
1.51982e-07
5.47834e-05
-2.51696e-06
-2.24034e-07
-1.70094e-06
2.24748e-06
2.06691e-06
1.48059e-07
-2.57078e-06
-1.06893e-06
-5.66188e-05
5.60006e-05
-4.9504e-05
4.93303e-07
4.99526e-05
-1.02539e-06
4.85268e-07
5.10765e-08
-5.41085e-05
-2.31945e-07
5.41727e-05
2.687e-07
-5.48741e-05
-1.71797e-07
-9.05821e-10
5.48231e-05
2.74728e-07
4.3275e-08
-2.23595e-07
2.51262e-07
-1.70553e-07
-3.39886e-09
2.66906e-07
6.97338e-08
-4.91493e-05
4.9341e-05
-5.16497e-05
-1.27803e-09
5.15489e-05
6.16631e-08
-3.68797e-09
-1.01781e-11
-5.56396e-05
-1.26572e-07
5.5544e-05
2.21249e-07
-5.56389e-05
-1.26598e-07
8.62691e-10
5.55434e-05
2.21283e-07
-8.04974e-12
-1.08252e-07
1.9852e-07
-1.08282e-07
3.3639e-09
1.98559e-07
-1.0285e-11
-5.35182e-05
5.33904e-05
-5.35178e-05
1.23453e-09
5.339e-05
-7.82931e-12
3.65332e-09
-5.12017e-08
-5.48726e-05
-1.71837e-07
5.48217e-05
2.74804e-07
-5.41072e-05
-2.31904e-07
-1.52016e-07
5.41715e-05
2.68461e-07
-4.33764e-08
-1.70611e-07
2.66988e-07
-2.23528e-07
-1.48098e-07
2.51027e-07
-6.98637e-08
-5.1648e-05
5.15472e-05
-4.91471e-05
-4.93655e-07
4.9339e-05
-6.17801e-08
-4.85537e-07
2.62864e-07
-5.46911e-05
2.01251e-06
5.4783e-05
-2.51923e-06
-5.73622e-05
-1.68871e-06
5.70608e-05
2.25295e-06
2.24413e-07
2.06861e-06
-2.57298e-06
-1.70246e-06
2.24959e-06
1.07006e-06
-4.9503e-05
4.99518e-05
-5.66228e-05
5.60042e-05
1.02645e-06
-3.17181e-07
-5.67819e-05
-1.62276e-06
5.65179e-05
2.20394e-06
-5.48369e-05
1.87438e-06
1.50095e-07
5.48583e-05
-2.36304e-06
-2.89574e-07
-1.63997e-06
2.20725e-06
1.92193e-06
1.50429e-07
-2.41544e-06
-1.11316e-06
-5.54441e-05
5.49345e-05
-5.03014e-05
4.93234e-07
5.05694e-05
-1.08353e-06
4.89585e-07
6.67931e-08
-5.42206e-05
-2.56247e-07
5.42522e-05
3.0798e-07
-5.47696e-05
-1.66912e-07
4.41935e-09
5.4711e-05
2.87901e-07
5.78986e-08
-2.39445e-07
2.84019e-07
-1.68319e-07
1.71673e-09
2.78009e-07
8.13421e-08
-4.95158e-05
4.96714e-05
-5.14547e-05
3.82538e-09
5.13653e-05
7.5332e-08
1.25352e-09
-1.0408e-11
-5.54468e-05
-1.49731e-07
5.5345e-05
2.55896e-07
-5.54462e-05
-1.49747e-07
-4.4792e-09
5.53445e-05
2.55924e-07
-1.23455e-11
-1.38344e-07
2.37302e-07
-1.38366e-07
-1.76869e-09
2.37331e-07
7.05564e-12
-5.32533e-05
5.31074e-05
-5.32529e-05
-3.85937e-09
5.3107e-05
-1.13235e-11
-1.30552e-09
-6.70554e-08
-5.47683e-05
-1.66875e-07
5.47098e-05
2.87971e-07
-5.42196e-05
-2.56294e-07
-1.50116e-07
5.42512e-05
3.07741e-07
-5.80588e-08
-1.68332e-07
2.78076e-07
-2.39436e-07
-1.50458e-07
2.83782e-07
-8.16199e-08
-5.14531e-05
5.1364e-05
-4.9514e-05
-4.93586e-07
4.96697e-05
-7.5482e-08
-4.89942e-07
3.17648e-07
-5.48365e-05
1.87614e-06
5.4858e-05
-2.36534e-06
-5.67829e-05
-1.62432e-06
5.65187e-05
2.20614e-06
2.90009e-07
1.92368e-06
-2.41772e-06
-1.6415e-06
2.20942e-06
1.11436e-06
-5.03008e-05
5.0569e-05
-5.54473e-05
5.49374e-05
1.08467e-06
-3.53302e-07
-5.62695e-05
-1.56087e-06
5.6029e-05
2.15467e-06
-5.4851e-05
1.75801e-06
1.42549e-07
5.48188e-05
-2.22169e-06
-3.33831e-07
-1.57532e-06
2.15754e-06
1.79639e-06
1.45458e-07
-2.26834e-06
-1.13553e-06
-5.44744e-05
5.4049e-05
-5.07651e-05
4.85219e-07
5.09024e-05
-1.11513e-06
4.85513e-07
9.04279e-08
-5.42607e-05
-2.92806e-07
5.42518e-05
3.539e-07
-5.46519e-05
-1.59036e-07
9.44254e-09
5.45851e-05
3.06818e-07
8.13445e-08
-2.70826e-07
3.26408e-07
-1.60852e-07
7.00651e-09
2.943e-07
8.42615e-08
-4.98019e-05
4.99101e-05
-5.12821e-05
7.93927e-09
5.11994e-05
8.41909e-08
6.49797e-09
-5.8899e-11
-5.52402e-05
-1.64111e-07
5.51293e-05
2.84479e-07
-5.52397e-05
-1.64221e-07
-9.57909e-09
5.51289e-05
2.84522e-07
5.05644e-12
-1.56103e-07
2.67907e-07
-1.56089e-07
-7.05119e-09
2.67953e-07
-4.38514e-10
-5.29576e-05
5.28019e-05
-5.29571e-05
-9.31181e-09
5.28018e-05
1.74554e-10
-5.97949e-09
-9.04305e-08
-5.46507e-05
-1.59429e-07
5.45841e-05
3.06898e-07
-5.42598e-05
-2.92388e-07
-1.42615e-07
5.42507e-05
3.53663e-07
-8.17257e-08
-1.60586e-07
2.94309e-07
-2.71113e-07
-1.45431e-07
3.26183e-07
-8.77758e-08
-5.12801e-05
5.11991e-05
-4.98012e-05
-4.86716e-07
4.99078e-05
-8.27068e-08
-4.85348e-07
3.53755e-07
-5.48508e-05
1.75991e-06
5.48185e-05
-2.22403e-06
-5.62702e-05
-1.56232e-06
5.60295e-05
2.15681e-06
3.34336e-07
1.79808e-06
-2.27062e-06
-1.57687e-06
2.15971e-06
1.1364e-06
-5.07653e-05
5.09021e-05
-5.4477e-05
5.4051e-05
1.11648e-06
-3.75823e-07
-5.5798e-05
-1.50911e-06
5.55693e-05
2.11362e-06
-5.4764e-05
1.65945e-06
1.36365e-07
5.46879e-05
-2.09559e-06
-3.62425e-07
-1.5201e-06
2.11354e-06
1.69237e-06
1.3751e-07
-2.13747e-06
-1.14335e-06
-5.36587e-05
5.32929e-05
-5.09883e-05
4.74235e-07
5.10301e-05
-1.12975e-06
4.76713e-07
1.00767e-07
-5.42259e-05
-3.28224e-07
5.41837e-05
4.0593e-07
-5.45107e-05
-1.58887e-07
1.36041e-08
5.44263e-05
3.3043e-07
9.51302e-08
-3.07065e-07
3.75359e-07
-1.56733e-07
1.15999e-08
3.14651e-07
8.66271e-08
-4.99912e-05
5.00506e-05
-5.11197e-05
1.21418e-08
5.10353e-05
8.84991e-08
1.14238e-08
-4.56789e-11
-5.50139e-05
-1.75011e-07
5.48912e-05
3.11395e-07
-5.50135e-05
-1.75091e-07
-1.37699e-08
5.48909e-05
3.11415e-07
5.11579e-11
-1.68133e-07
2.95087e-07
-1.68032e-07
-1.15834e-08
2.95095e-07
-3.52025e-10
-5.26447e-05
5.24821e-05
-5.26442e-05
-1.32924e-08
5.2482e-05
5.16555e-10
-9.91037e-09
-1.0079e-07
-5.45096e-05
-1.59197e-07
5.44253e-05
3.30495e-07
-5.42251e-05
-3.27892e-07
-1.3645e-07
5.41829e-05
4.05746e-07
-9.56307e-08
-1.5612e-07
3.14645e-07
-3.07731e-07
-1.37511e-07
3.75224e-07
-8.9698e-08
-5.11177e-05
5.10349e-05
-4.99911e-05
-4.75525e-07
5.00491e-05
-8.45615e-08
-4.75666e-07
3.76321e-07
-5.47638e-05
1.66124e-06
5.46877e-05
-2.09787e-06
-5.57985e-05
-1.51054e-06
5.55696e-05
2.11574e-06
3.62993e-07
1.69385e-06
-2.13969e-06
-1.52168e-06
2.1157e-06
1.14431e-06
-5.09889e-05
5.10303e-05
-5.36608e-05
5.32945e-05
1.1314e-06
-3.89004e-07
-5.53454e-05
-1.46844e-06
5.51195e-05
2.08339e-06
-5.45936e-05
1.57269e-06
1.30604e-07
5.44808e-05
-1.97954e-06
-3.79532e-07
-1.47387e-06
2.07725e-06
1.59961e-06
1.32326e-07
-2.01714e-06
-1.14119e-06
-5.29509e-05
5.26236e-05
-5.10338e-05
4.61699e-07
5.10036e-05
-1.13183e-06
4.64117e-07
1.06427e-07
-5.41254e-05
-3.61372e-07
5.40499e-05
4.61054e-07
-5.4333e-05
-1.66865e-07
1.53023e-08
5.42287e-05
3.62361e-07
1.03042e-07
-3.41101e-07
4.28725e-07
-1.60593e-07
1.50719e-08
3.41821e-07
8.80278e-08
-5.00849e-05
5.00972e-05
-5.09488e-05
1.56516e-08
5.08543e-05
8.86703e-08
1.45943e-08
-3.5412e-10
-5.47627e-05
-1.86227e-07
5.46248e-05
3.39761e-07
-5.47622e-05
-1.86181e-07
-1.64691e-08
5.46246e-05
3.39844e-07
1.69142e-10
-1.7866e-07
3.22038e-07
-1.78681e-07
-1.44511e-08
3.21978e-07
-1.71831e-10
-5.23179e-05
5.21475e-05
-5.23176e-05
-1.63051e-08
5.21475e-05
1.77316e-10
-1.40897e-08
-1.06835e-07
-5.43324e-05
-1.67162e-07
5.42277e-05
3.62254e-07
-5.41248e-05
-3.61288e-07
-1.30766e-07
5.40491e-05
4.60869e-07
-1.03182e-07
-1.60253e-07
3.41921e-07
-3.4137e-07
-1.32306e-07
4.28604e-07
-8.98575e-08
-5.09475e-05
5.08539e-05
-5.00846e-05
-4.62528e-07
5.0096e-05
-8.69641e-08
-4.63887e-07
3.89505e-07
-5.45934e-05
1.57433e-06
5.44806e-05
-1.98176e-06
-5.53457e-05
-1.46986e-06
5.51196e-05
2.08545e-06
3.80097e-07
1.60117e-06
-2.01934e-06
-1.47534e-06
2.07933e-06
1.14229e-06
-5.10343e-05
5.10039e-05
-5.29524e-05
5.26248e-05
1.13322e-06
-3.95806e-07
-5.48942e-05
-1.43824e-06
5.46635e-05
2.06481e-06
-5.43522e-05
1.49448e-06
1.24566e-07
5.42069e-05
-1.86955e-06
-3.89261e-07
-1.43929e-06
2.05379e-06
1.51949e-06
1.26444e-07
-1.90655e-06
-1.13273e-06
-5.23109e-05
5.20054e-05
-5.0945e-05
4.48108e-07
5.08587e-05
-1.12657e-06
4.5148e-07
1.09572e-07
-5.39584e-05
-3.9353e-07
5.38492e-05
5.17693e-07
-5.41137e-05
-1.82072e-07
1.73056e-08
5.39856e-05
4.02466e-07
1.07248e-07
-3.73477e-07
4.84205e-07
-1.72235e-07
1.67136e-08
3.77719e-07
8.67476e-08
-5.00857e-05
5.00535e-05
-5.07543e-05
1.58398e-08
5.06431e-05
8.95226e-08
1.73165e-08
-9.95564e-11
-5.448e-05
-1.99057e-07
5.43241e-05
3.72295e-07
-5.44795e-05
-1.99289e-07
-1.7405e-08
5.43238e-05
3.72285e-07
1.21067e-10
-1.90601e-07
3.52071e-07
-1.90474e-07
-1.63142e-08
3.51998e-07
-7.53172e-10
-5.19737e-05
5.17913e-05
-5.19731e-05
-1.86514e-08
5.17917e-05
4.76284e-10
-1.559e-08
-1.09573e-07
-5.4113e-05
-1.82281e-07
5.39849e-05
4.02517e-07
-5.39579e-05
-3.93085e-07
-1.24664e-07
5.38485e-05
5.17531e-07
-1.07494e-07
-1.71934e-07
3.7779e-07
-3.73928e-07
-1.26417e-07
4.84112e-07
-9.08988e-08
-5.07531e-05
5.06431e-05
-5.00862e-05
-4.49698e-07
5.00519e-05
-8.67194e-08
-4.50861e-07
3.9631e-07
-5.43521e-05
1.49622e-06
5.42066e-05
-1.87173e-06
-5.48944e-05
-1.43955e-06
5.46634e-05
2.06679e-06
3.89846e-07
1.52094e-06
-1.90868e-06
-1.44073e-06
2.05582e-06
1.1336e-06
-5.09459e-05
5.08588e-05
-5.23122e-05
5.20062e-05
1.12807e-06
-3.98255e-07
-5.44301e-05
-1.41678e-06
5.41881e-05
2.05711e-06
-5.40471e-05
1.42218e-06
1.18665e-07
5.38707e-05
-1.76272e-06
-3.93474e-07
-1.41328e-06
2.04009e-06
1.44458e-06
1.20436e-07
-1.79867e-06
-1.11977e-06
-5.17073e-05
5.14102e-05
-5.07495e-05
4.35011e-07
5.06169e-05
-1.11516e-06
4.38628e-07
1.10564e-07
-5.37244e-05
-4.25499e-07
5.35819e-05
5.76171e-07
-5.3846e-05
-2.02736e-07
1.84625e-08
5.36914e-05
4.49481e-07
1.08967e-07
-4.04805e-07
5.41041e-07
-1.90175e-07
1.77139e-08
4.21017e-07
8.54083e-08
-4.99974e-05
4.99215e-05
-5.05236e-05
1.64761e-08
5.03898e-05
8.99361e-08
1.93297e-08
-8.61332e-11
-5.41598e-05
-2.15164e-07
5.39827e-05
4.10864e-07
-5.41595e-05
-2.15483e-07
-1.84124e-08
5.39824e-05
4.10846e-07
3.82976e-11
-2.04949e-07
3.86936e-07
-2.04639e-07
-1.78251e-08
3.86881e-07
-1.00761e-09
-5.16048e-05
5.14071e-05
-5.1604e-05
-2.03494e-08
5.14078e-05
8.5804e-10
-1.60084e-08
-1.10513e-07
-5.38453e-05
-2.02928e-07
5.36908e-05
4.49542e-07
-5.37241e-05
-4.24952e-07
-1.18771e-07
5.35813e-05
5.76019e-07
-1.09369e-07
-1.89884e-07
4.2104e-07
-4.05482e-07
-1.20395e-07
5.40971e-07
-9.06237e-08
-5.05225e-05
5.03898e-05
-4.99986e-05
-4.36887e-07
4.99199e-05
-8.53279e-08
-4.37446e-07
3.9875e-07
-5.4047e-05
1.42391e-06
5.38704e-05
-1.76486e-06
-5.44302e-05
-1.41804e-06
5.41879e-05
2.05903e-06
3.94078e-07
1.44592e-06
-1.80074e-06
-1.41469e-06
2.04206e-06
1.12054e-06
-5.07505e-05
5.06169e-05
-5.17083e-05
5.14108e-05
1.1168e-06
-3.97889e-07
-5.39407e-05
-1.40329e-06
5.36817e-05
2.06017e-06
-5.36803e-05
1.3543e-06
1.13247e-07
5.3473e-05
-1.65812e-06
-3.94283e-07
-1.39578e-06
2.03747e-06
1.37511e-06
1.14802e-07
-1.69385e-06
-1.1043e-06
-5.11151e-05
5.08162e-05
-5.04652e-05
4.22638e-07
5.02926e-05
-1.10068e-06
4.26068e-07
1.10198e-07
-5.34235e-05
-4.57132e-07
5.32464e-05
6.37226e-07
-5.35242e-05
-2.27548e-07
1.92032e-08
5.33403e-05
5.02443e-07
1.09172e-07
-4.35918e-07
5.99954e-07
-2.12697e-07
1.85716e-08
4.70462e-07
8.39257e-08
-4.98225e-05
4.97041e-05
-5.02455e-05
1.71239e-08
5.00847e-05
8.91565e-08
2.07261e-08
-9.30635e-11
-5.37955e-05
-2.34991e-07
5.35936e-05
4.56262e-07
-5.37952e-05
-2.35347e-07
-1.91311e-08
5.35934e-05
4.56238e-07
3.8919e-11
-2.22741e-07
4.284e-07
-2.22364e-07
-1.87361e-08
4.28339e-07
-1.12523e-09
-5.12041e-05
5.09873e-05
-5.12032e-05
-2.1521e-08
5.09882e-05
1.01798e-09
-1.66889e-08
-1.10143e-07
-5.35236e-05
-2.27711e-07
5.33398e-05
5.02504e-07
-5.34232e-05
-4.56571e-07
-1.13353e-07
5.32459e-05
6.37096e-07
-1.09579e-07
-2.12443e-07
4.70488e-07
-4.36666e-07
-1.14747e-07
5.99913e-07
-8.95193e-08
-5.02446e-05
5.00849e-05
-4.9824e-05
-4.2459e-07
4.97025e-05
-8.39366e-08
-4.24719e-07
3.98378e-07
-5.36802e-05
1.356e-06
5.34727e-05
-1.66022e-06
-5.39406e-05
-1.4045e-06
5.36814e-05
2.06203e-06
3.9489e-07
1.37641e-06
-1.69589e-06
-1.39715e-06
2.03938e-06
1.10504e-06
-5.04663e-05
5.02927e-05
-5.1116e-05
5.08166e-05
1.10234e-06
-3.95152e-07
-5.34151e-05
-1.39486e-06
5.31345e-05
2.0706e-06
-5.32518e-05
1.28691e-06
1.08244e-07
5.30129e-05
-1.55132e-06
-3.92654e-07
-1.38501e-06
2.04422e-06
1.30836e-06
1.09643e-07
-1.58948e-06
-1.08601e-06
-5.0515e-05
5.02062e-05
-5.01031e-05
4.10531e-07
4.98935e-05
-1.08387e-06
4.14e-07
1.08818e-07
-5.30535e-05
-4.88649e-07
5.28411e-05
7.00421e-07
-5.31429e-05
-2.55719e-07
1.96186e-08
5.29273e-05
5.6052e-07
1.08267e-07
-4.67185e-07
6.61497e-07
-2.38965e-07
1.91252e-08
5.25462e-07
8.21431e-08
-4.95631e-05
4.94029e-05
-4.99119e-05
1.75803e-08
4.97208e-05
8.77946e-08
2.16612e-08
-1.00015e-10
-5.33803e-05
-2.58326e-07
5.31503e-05
5.08016e-07
-5.338e-05
-2.58696e-07
-1.9547e-08
5.31502e-05
5.07988e-07
3.86605e-11
-2.44151e-07
4.76509e-07
-2.43743e-07
-1.93022e-08
4.76441e-07
-1.18441e-09
-5.07637e-05
5.05242e-05
-5.07628e-05
-2.22594e-08
5.05252e-05
1.09273e-09
-1.7246e-08
-1.08767e-07
-5.31424e-05
-2.55868e-07
5.29269e-05
5.60586e-07
-5.30533e-05
-4.88088e-07
-1.0835e-07
5.28406e-05
7.00301e-07
-1.08664e-07
-2.38744e-07
5.25495e-07
-4.67954e-07
-1.0958e-07
6.61471e-07
-8.79118e-08
-4.99113e-05
4.9721e-05
-4.95648e-05
-4.12506e-07
4.94013e-05
-8.23125e-08
-4.12591e-07
3.95633e-07
-5.32518e-05
1.28857e-06
5.30126e-05
-1.55338e-06
-5.3415e-05
-1.39604e-06
5.31342e-05
2.07241e-06
3.93256e-07
1.30962e-06
-1.59148e-06
-1.38634e-06
2.04607e-06
1.08672e-06
-5.01042e-05
4.98935e-05
-5.05157e-05
5.02064e-05
1.08551e-06
-3.91154e-07
-5.28443e-05
-1.39255e-06
5.25377e-05
2.09032e-06
-5.27594e-05
1.22055e-06
1.03812e-07
5.2487e-05
-1.44304e-06
-3.89341e-07
-1.38004e-06
2.05962e-06
1.24242e-06
1.04994e-07
-1.48334e-06
-1.06684e-06
-4.98916e-05
4.95659e-05
-4.96679e-05
3.99341e-07
4.94222e-05
-1.06551e-06
4.0248e-07
1.06857e-07
-5.26126e-05
-5.20723e-07
5.23636e-05
7.66706e-07
-5.26973e-05
-2.87212e-07
1.97787e-08
5.24473e-05
6.24197e-07
1.06621e-07
-4.98776e-07
7.25694e-07
-2.68567e-07
1.94168e-08
5.85857e-07
8.06309e-08
-4.92206e-05
4.90186e-05
-4.95161e-05
1.8032e-08
4.92915e-05
8.59845e-08
2.20826e-08
-9.24968e-11
-5.29076e-05
-2.85375e-07
5.26463e-05
5.66617e-07
-5.29074e-05
-2.85664e-07
-1.97502e-08
5.26461e-05
5.66582e-07
3.37544e-11
-2.6916e-07
5.31252e-07
-2.68747e-07
-1.95941e-08
5.31178e-07
-9.74561e-10
-5.0276e-05
5.00097e-05
-5.02752e-05
-2.19306e-08
5.00105e-05
1.08118e-09
-1.76764e-08
-1.06846e-07
-5.26968e-05
-2.87358e-07
5.2447e-05
6.24268e-07
-5.26124e-05
-5.20284e-07
-1.039e-07
5.23631e-05
7.66604e-07
-1.07003e-07
-2.68381e-07
5.859e-07
-4.99531e-07
-1.0493e-07
7.25676e-07
-8.55525e-08
-4.95156e-05
4.92919e-05
-4.92223e-05
-4.01024e-07
4.90175e-05
-8.06168e-08
-4.01105e-07
3.91637e-07
-5.27594e-05
1.22213e-06
5.24867e-05
-1.44502e-06
-5.28441e-05
-1.39371e-06
5.25373e-05
2.09208e-06
3.89932e-07
1.24364e-06
-1.48528e-06
-1.38132e-06
2.06142e-06
1.06761e-06
-4.96689e-05
4.94224e-05
-4.98922e-05
4.95661e-05
1.06712e-06
-3.86186e-07
-5.22196e-05
-1.39514e-06
5.1883e-05
2.11794e-06
-5.21997e-05
1.15439e-06
9.98831e-08
5.18921e-05
-1.33286e-06
-3.84878e-07
-1.38022e-06
2.08311e-06
1.17682e-06
1.0084e-07
-1.37526e-06
-1.04684e-06
-4.92319e-05
4.88836e-05
-4.91615e-05
3.88802e-07
4.88803e-05
-1.0462e-06
3.91339e-07
1.04494e-07
-5.2098e-05
-5.5355e-07
5.18107e-05
8.36246e-07
-5.2182e-05
-3.21639e-07
1.97386e-08
5.18953e-05
6.93155e-07
1.04516e-07
-5.3104e-07
7.92907e-07
-3.01237e-07
1.9519e-08
6.5155e-07
7.92524e-08
-4.87956e-05
4.85516e-05
-4.90523e-05
1.84134e-08
4.87915e-05
8.33181e-08
2.1294e-08
-7.2804e-11
-5.23708e-05
-3.16006e-07
5.20748e-05
6.31802e-07
-5.23706e-05
-3.16189e-07
-1.97509e-08
5.20747e-05
6.31764e-07
1.76227e-11
-2.9762e-07
5.92555e-07
-2.97324e-07
-1.96401e-08
5.92487e-07
-6.64759e-10
-4.97326e-05
4.94357e-05
-4.97321e-05
-2.1109e-08
4.94363e-05
7.39414e-10
-1.81508e-08
-1.04535e-07
-5.21817e-05
-3.2176e-07
5.1895e-05
6.93227e-07
-5.20978e-05
-5.53278e-07
-9.99468e-08
5.18104e-05
8.3616e-07
-1.04829e-07
-3.0108e-07
6.51601e-07
-5.31613e-07
-1.00797e-07
7.9288e-07
-8.28226e-08
-4.9052e-05
4.87919e-05
-4.87969e-05
-3.90055e-07
4.85509e-05
-7.93221e-08
-3.90404e-07
3.86675e-07
-5.21996e-05
1.15589e-06
5.18919e-05
-1.3348e-06
-5.22194e-05
-1.39628e-06
5.18827e-05
2.11965e-06
3.85441e-07
1.17807e-06
-1.37716e-06
-1.38145e-06
2.08485e-06
1.0477e-06
-4.91625e-05
4.88806e-05
-4.92323e-05
4.88837e-05
1.04765e-06
-3.80549e-07
-5.15334e-05
-1.40223e-06
5.11632e-05
2.15306e-06
-5.1569e-05
1.08727e-06
9.63974e-08
5.12241e-05
-1.21933e-06
-3.79617e-07
-1.38506e-06
2.11426e-06
1.11089e-06
9.71609e-08
-1.26459e-06
-1.02635e-06
-4.85248e-05
4.81489e-05
-4.85841e-05
3.78689e-07
4.82664e-05
-1.02623e-06
3.80805e-07
1.01902e-07
-5.15064e-05
-5.87603e-07
5.1179e-05
9.09504e-07
-5.15922e-05
-3.58718e-07
1.95515e-08
5.1266e-05
7.67228e-07
1.02092e-07
-5.6427e-07
8.63615e-07
-3.36658e-07
1.94323e-08
7.22402e-07
7.75414e-08
-4.82873e-05
4.80009e-05
-4.8515e-05
1.8469e-08
4.82153e-05
8.07376e-08
2.05762e-08
-6.18669e-11
-5.17636e-05
-3.50091e-07
5.14299e-05
7.03384e-07
-5.17634e-05
-3.50218e-07
-1.95838e-08
5.14298e-05
7.03346e-07
5.62775e-12
-3.29616e-07
6.6031e-07
-3.29403e-07
-1.95231e-08
6.6025e-07
-4.9748e-10
-4.91261e-05
4.8795e-05
-4.91258e-05
-2.05051e-08
4.87956e-05
5.01066e-10
-1.83808e-08
-1.01968e-07
-5.15919e-05
-3.58827e-07
5.12658e-05
7.67301e-07
-5.15063e-05
-5.8742e-07
-9.64469e-08
5.11788e-05
9.09428e-07
-1.02357e-07
-3.36529e-07
7.22459e-07
-5.64712e-07
-9.71322e-08
8.6358e-07
-8.03763e-08
-4.85148e-05
4.82159e-05
-4.82886e-05
-3.79707e-07
4.80005e-05
-7.78107e-08
-3.80189e-07
3.81035e-07
-5.15689e-05
1.0887e-06
5.12239e-05
-1.22122e-06
-5.15331e-05
-1.40335e-06
5.11628e-05
2.15472e-06
3.80158e-07
1.11214e-06
-1.26645e-06
-1.38624e-06
2.11595e-06
1.02725e-06
-4.8585e-05
4.82667e-05
-4.85251e-05
4.81489e-05
1.02756e-06
-3.74361e-07
-5.07787e-05
-1.41308e-06
5.03714e-05
2.19468e-06
-5.08634e-05
1.01804e-06
9.3279e-08
5.04794e-05
-1.10169e-06
-3.73647e-07
-1.39356e-06
2.15171e-06
1.04316e-06
9.38671e-08
-1.14992e-06
-1.00535e-06
-4.77608e-05
4.73531e-05
-4.79334e-05
3.68861e-07
4.75772e-05
-1.00544e-06
3.70716e-07
9.91631e-08
-5.08343e-05
-6.22962e-07
5.0465e-05
9.86398e-07
-5.09228e-05
-3.98131e-07
1.92457e-08
5.05549e-05
8.46012e-07
9.94319e-08
-5.9854e-07
9.37714e-07
-3.74467e-07
1.91934e-08
7.97908e-07
7.54723e-08
-4.76946e-05
4.7365e-05
-4.78992e-05
1.81951e-08
4.75584e-05
7.84577e-08
2.00752e-08
-5.98948e-11
-5.10799e-05
-3.87316e-07
5.07057e-05
7.80859e-07
-5.10798e-05
-3.87432e-07
-1.92858e-08
5.07056e-05
7.80823e-07
9.96001e-13
-3.64833e-07
7.33967e-07
-3.64657e-07
-1.92698e-08
7.33912e-07
-4.58581e-10
-4.84498e-05
4.80812e-05
-4.84496e-05
-2.00979e-08
4.80818e-05
4.04602e-10
-1.82618e-08
-9.92285e-08
-5.09226e-05
-3.9825e-07
5.05547e-05
8.46087e-07
-5.08342e-05
-6.22791e-07
-9.33245e-08
5.04647e-05
9.86325e-07
-9.96765e-08
-3.74347e-07
7.97968e-07
-5.98931e-07
-9.38427e-08
9.37679e-07
-7.82501e-08
-4.78992e-05
4.75591e-05
-4.76958e-05
-3.69842e-07
4.73646e-05
-7.59127e-08
-3.70216e-07
3.74837e-07
-5.08633e-05
1.01944e-06
5.04792e-05
-1.10352e-06
-5.07783e-05
-1.41417e-06
5.0371e-05
2.1963e-06
3.74172e-07
1.04439e-06
-1.15174e-06
-1.39471e-06
2.15335e-06
1.00624e-06
-4.79342e-05
4.75776e-05
-4.7761e-05
4.7353e-05
1.00671e-06
-3.6785e-07
-4.99485e-05
-1.42767e-06
4.95007e-05
2.24325e-06
-5.00779e-05
9.46142e-07
9.04907e-08
4.96508e-05
-9.7739e-07
-3.67429e-07
-1.40652e-06
2.19691e-06
9.73476e-07
9.09726e-08
-1.03043e-06
-9.84272e-07
-4.69313e-05
4.64879e-05
-4.72046e-05
3.59383e-07
4.68071e-05
-9.84809e-07
3.61304e-07
9.6367e-08
-5.00775e-05
-6.59785e-07
4.96639e-05
1.06748e-06
-5.0169e-05
-4.3976e-07
1.88522e-08
4.97568e-05
9.29459e-07
9.67029e-08
-6.34408e-07
1.01616e-06
-4.14719e-07
1.88549e-08
8.78448e-07
7.3121e-08
-4.70154e-05
4.66419e-05
-4.72004e-05
1.76651e-08
4.68161e-05
7.65425e-08
1.97608e-08
-6.52029e-11
-5.03141e-05
-4.27518e-07
4.98966e-05
8.63988e-07
-5.0314e-05
-4.27656e-07
-1.88955e-08
4.98965e-05
8.63956e-07
2.6737e-12
-4.03291e-07
8.13705e-07
-4.03113e-07
-1.8924e-08
8.13651e-07
-5.15107e-10
-4.76972e-05
4.72879e-05
-4.7697e-05
-1.98463e-08
4.72886e-05
4.20053e-10
-1.78576e-08
-9.6412e-08
-5.01688e-05
-4.39918e-07
4.97567e-05
9.29537e-07
-5.00774e-05
-6.59564e-07
-9.05411e-08
4.96637e-05
1.0674e-06
-9.69486e-08
-4.14582e-07
8.78508e-07
-6.34819e-07
-9.09447e-08
1.01612e-06
-7.64503e-08
-4.72004e-05
4.6817e-05
-4.70168e-05
-3.60496e-07
4.66413e-05
-7.37347e-08
-3.60737e-07
3.68311e-07
-5.00778e-05
9.47531e-07
4.96507e-05
-9.79215e-07
-4.99481e-05
-1.42873e-06
4.95003e-05
2.24482e-06
3.67944e-07
9.74685e-07
-1.03222e-06
-1.40763e-06
2.19851e-06
9.85096e-07
-4.72054e-05
4.68074e-05
-4.69314e-05
4.64878e-05
9.86063e-07
-3.61116e-07
-4.90363e-05
-1.44552e-06
4.85455e-05
2.29746e-06
-4.92056e-05
8.71706e-07
8.80139e-08
4.87336e-05
-8.4877e-07
-3.60834e-07
-1.42247e-06
2.24777e-06
9.0104e-07
8.83698e-08
-9.05053e-07
-9.6313e-07
-4.60293e-05
4.55469e-05
-4.6392e-05
3.50208e-07
4.59504e-05
-9.63804e-07
3.52269e-07
9.35303e-08
-4.92317e-05
-6.98167e-07
4.87722e-05
1.15215e-06
-4.93261e-05
-4.83456e-07
1.83897e-08
4.88676e-05
1.01707e-06
9.38852e-08
-6.71517e-07
1.09821e-06
-4.57021e-07
1.8433e-08
9.63162e-07
7.05379e-08
-4.62477e-05
4.58292e-05
-4.64145e-05
1.69553e-08