/*--------------------------------*- C++ -*----------------------------------*\
  =========                 |
  \\      /  F ield         | OpenFOAM: The Open Source CFD Toolbox
   \\    /   O peration     | Website:  https://openfoam.org
    \\  /    A nd           | Version:  9
     \\/     M anipulation  |
\*---------------------------------------------------------------------------*/
FoamFile
{
    format      ascii;
    class       volVectorField;
    location    "1.95";
    object      U;
}
// * * * * * * * * * * * * * * * * * * * * * * * * * * * * * * * * * * * * * //

dimensions      [0 1 -1 0 0 0 0];

internalField   nonuniform List<vector> 
36360
(
(0.00150461 -0.122271 -0.498852)
(-0.000310943 -0.0912511 0.000146033)
(0.000914472 -0.125293 -0.501082)
(-0.0017371 -0.0829456 6.90466e-05)
(0.000157662 -0.12754 -0.501167)
(0.00896154 -0.0833374 1.15387e-05)
(0.00200776 -0.130014 -0.502053)
(0.0102432 -0.0909451 1.54019e-05)
(0.000214327 -0.100151 -8.78683e-05)
(-0.00244343 -0.104689 -5.11723e-06)
(-0.00218975 -0.0981265 -4.67624e-05)
(-0.00315152 -0.102705 -2.21728e-06)
(0.00609649 -0.105879 -1.40506e-06)
(0.00444382 -0.106789 -5.72586e-06)
(0.00736904 -0.110168 -1.73235e-05)
(0.00656602 -0.109227 -4.02461e-06)
(-0.00263632 -0.105949 -2.69717e-08)
(-0.00263632 -0.105948 2.437e-08)
(-0.00297104 -0.103948 -2.56196e-08)
(-0.00297095 -0.103947 2.47075e-08)
(0.00460544 -0.105401 -1.77432e-06)
(0.0046055 -0.1054 1.77072e-06)
(0.00654224 -0.107986 -3.64239e-07)
(0.00654219 -0.107985 3.62907e-07)
(-0.00244379 -0.104687 5.11251e-06)
(0.000214817 -0.100146 8.78654e-05)
(-0.00315157 -0.102703 2.21687e-06)
(-0.00218955 -0.0981215 4.6762e-05)
(0.00444388 -0.106786 5.71576e-06)
(0.00609704 -0.105873 1.392e-06)
(0.00656601 -0.109224 4.02256e-06)
(0.00736918 -0.110162 1.73204e-05)
(-0.000311497 -0.0912469 -0.000146069)
(0.00150466 -0.122277 0.498851)
(-0.00173684 -0.0829399 -6.90719e-05)
(0.000915117 -0.125301 0.501081)
(0.00896236 -0.0833264 -1.15039e-05)
(0.000158524 -0.127556 0.501167)
(0.0102441 -0.0909358 -1.53902e-05)
(0.00200957 -0.130031 0.502053)
(0.00402469 -0.119005 -0.497097)
(-0.00305252 -0.0972054 0.000161786)
(0.00311728 -0.120863 -0.498024)
(-0.0013112 -0.0946614 0.000164508)
(0.000900293 -0.124938 -0.501113)
(0.00120758 -0.077498 -4.04352e-05)
(0.000348519 -0.126651 -0.501327)
(0.00487146 -0.0776835 -9.92639e-06)
(0.00194917 -0.101839 -7.30004e-05)
(0.000561938 -0.105651 -1.17602e-05)
(0.00192647 -0.101188 -8.52564e-05)
(-0.000450552 -0.10551 -7.99764e-06)
(0.00447287 -0.0970511 7.24558e-05)
(0.00240674 -0.103704 -9.91669e-06)
(0.0057921 -0.100666 3.10685e-05)
(0.00318644 -0.105006 -7.98446e-06)
(-0.000801234 -0.10762 -2.52877e-06)
(-0.00080163 -0.107619 2.52928e-06)
(-0.00173308 -0.107269 -1.11315e-06)
(-0.00173338 -0.107268 1.10957e-06)
(0.00188032 -0.103478 -3.8317e-06)
(0.00188033 -0.103478 3.83173e-06)
(0.00329462 -0.103825 -3.12422e-06)
(0.00329472 -0.103824 3.12056e-06)
(0.000561949 -0.105648 1.17472e-05)
(0.00194932 -0.101834 7.29718e-05)
(-0.000450861 -0.105507 7.98668e-06)
(0.00192685 -0.101183 8.52383e-05)
(0.0024067 -0.103701 9.90514e-06)
(0.00447345 -0.0970436 -7.2523e-05)
(0.00318645 -0.105003 7.97402e-06)
(0.00579292 -0.100659 -3.11095e-05)
(-0.0030545 -0.0972025 -0.00016178)
(0.00402555 -0.119011 0.497095)
(-0.00131259 -0.0946583 -0.000164527)
(0.00311783 -0.12087 0.498023)
(0.0012063 -0.0774885 4.05385e-05)
(0.000901626 -0.124954 0.501113)
(0.00487113 -0.0776732 9.98823e-06)
(0.000349557 -0.126667 0.501327)
(0.00472513 -0.11572 -0.495889)
(-0.00522482 -0.0997171 0.00012557)
(0.00449689 -0.117231 -0.49639)
(-0.00434823 -0.0986457 0.000147478)
(0.00177533 -0.120509 -0.500884)
(-0.00203207 -0.080418 -0.000118962)
(0.00144369 -0.122706 -0.500984)
(-0.00089788 -0.0784738 -7.81205e-05)
(0.00101167 -0.101994 -2.28996e-05)
(0.000703172 -0.105479 -1.36548e-05)
(0.00150697 -0.102006 -5.03371e-05)
(0.000788291 -0.10562 -1.40595e-05)
(0.00213611 -0.092832 0.000165705)
(0.0011109 -0.100813 -7.99767e-06)
(0.00306401 -0.0943927 0.000119358)
(0.00173648 -0.102059 -9.94281e-06)
(5.3242e-05 -0.107418 -5.35687e-06)
(5.3158e-05 -0.107417 5.39435e-06)
(-0.000160308 -0.10763 -3.94798e-06)
(-0.000160404 -0.107629 3.9492e-06)
(0.000421705 -0.102709 -5.42692e-06)
(0.000421509 -0.102709 5.4499e-06)
(0.000878662 -0.103082 -4.56746e-06)
(0.000878448 -0.103082 4.57452e-06)
(0.000703396 -0.105476 1.37217e-05)
(0.00101164 -0.10199 2.28642e-05)
(0.00078846 -0.105617 1.40571e-05)
(0.0015068 -0.102002 5.03095e-05)
(0.00111112 -0.10081 7.99734e-06)
(0.00213633 -0.0928247 -0.000165822)
(0.00173657 -0.102056 9.93375e-06)
(0.00306434 -0.0943852 -0.000119449)
(-0.00522716 -0.0997147 -0.000125538)
(0.00472671 -0.115726 0.495886)
(-0.0043505 -0.0986431 -0.000147456)
(0.00449806 -0.117237 0.496388)
(-0.00203393 -0.0804105 0.000119161)
(0.00177719 -0.120523 0.500883)
(-0.000899497 -0.0784653 7.82708e-05)
(0.00144524 -0.122721 0.500984)
(0.00494217 -0.113275 -0.495181)
(-0.00603402 -0.101397 7.03715e-05)
(0.00485625 -0.114412 -0.495468)
(-0.00575687 -0.100615 9.90772e-05)
(0.00208139 -0.116318 -0.500749)
(-0.00285876 -0.0850954 -0.000200074)
(0.00197046 -0.118359 -0.500804)
(-0.00261251 -0.0827402 -0.000160156)
(0.00036282 -0.101986 3.16639e-05)
(0.00040741 -0.104991 -4.78047e-06)
(0.000621114 -0.101958 5.20783e-06)
(0.000533537 -0.105227 -1.03865e-05)
(0.00121696 -0.0918042 0.000246465)
(0.000478437 -0.0995175 1.4914e-06)
(0.00156555 -0.0920659 0.000208532)
(0.000701255 -0.100017 -4.08108e-06)
(5.61339e-05 -0.106843 -6.73003e-06)
(5.62339e-05 -0.106842 6.73089e-06)
(7.20465e-05 -0.107126 -6.33532e-06)
(7.21216e-05 -0.107125 6.35201e-06)
(5.21356e-05 -0.102374 -6.56749e-06)
(5.22167e-05 -0.102373 6.56883e-06)
(0.000180789 -0.102475 -6.16889e-06)
(0.000180798 -0.102475 6.18151e-06)
(0.000407618 -0.104988 4.74857e-06)
(0.000362626 -0.101983 -3.17333e-05)
(0.000533737 -0.105224 1.03804e-05)
(0.00062093 -0.101955 -5.2587e-06)
(0.000478683 -0.0995146 -1.528e-06)
(0.00121699 -0.0917975 -0.000246652)
(0.000701481 -0.100015 4.06214e-06)
(0.00156572 -0.0920588 -0.000208684)
(-0.00603669 -0.101395 -7.02672e-05)
(0.00494445 -0.113281 0.495177)
(-0.00575939 -0.100613 -9.89956e-05)
(0.00485819 -0.114418 0.495465)
(-0.00286104 -0.0850896 0.000200363)
(0.00208382 -0.11633 0.500748)
(-0.00261461 -0.0827337 0.000160403)
(0.0019726 -0.118372 0.500803)
(0.00505675 -0.111406 -0.49475)
(-0.0061424 -0.10265 1.2719e-05)
(0.00500951 -0.112282 -0.494917)
(-0.00614264 -0.102074 4.11836e-05)
(0.00216854 -0.112659 -0.500667)
(-0.00288858 -0.0892578 -0.000272544)
(0.00214526 -0.114416 -0.500699)
(-0.00292381 -0.0872946 -0.000237725)
(0.000137867 -0.102237 7.62819e-05)
(0.000309371 -0.104636 9.8729e-06)
(0.00021221 -0.102087 5.54702e-05)
(0.00033772 -0.104793 2.21196e-06)
(0.000872731 -0.0921024 0.000306278)
(0.000328346 -0.0988953 1.57014e-05)
(0.00100047 -0.0918642 0.000278997)
(0.000372106 -0.0991699 8.25519e-06)
(0.000100989 -0.106369 -6.00946e-06)
(0.000101091 -0.106368 5.99335e-06)
(6.46266e-05 -0.106591 -6.60576e-06)
(6.47332e-05 -0.10659 6.59759e-06)
(3.25378e-05 -0.10225 -5.98921e-06)
(3.26328e-05 -0.102249 5.97409e-06)
(2.1845e-05 -0.102316 -6.50381e-06)
(2.19317e-05 -0.102316 6.49571e-06)
(0.000309572 -0.104633 -9.93418e-06)
(0.000137678 -0.102234 -7.63728e-05)
(0.00033793 -0.10479 -2.26082e-06)
(0.00021202 -0.102084 -5.55531e-05)
(0.000328578 -0.0988921 -1.57672e-05)
(0.000872719 -0.0920966 -0.000306522)
(0.000372374 -0.0991668 -8.30804e-06)
(0.00100048 -0.0918579 -0.000279215)
(-0.00614545 -0.102648 -1.25745e-05)
(0.00505954 -0.11141 0.494745)
(-0.00614549 -0.102072 -4.10588e-05)
(0.00501207 -0.112286 0.494912)
(-0.00289146 -0.0892534 0.000272917)
(0.00217137 -0.11267 0.500666)
(-0.00292641 -0.0872895 0.000238057)
(0.00214791 -0.114427 0.500698)
(0.00510815 -0.109922 -0.494478)
(-0.00599308 -0.103512 -3.94045e-05)
(0.00509172 -0.110625 -0.494573)
(-0.00608437 -0.103129 -1.42832e-05)
(0.00214679 -0.109561 -0.500614)
(-0.00270541 -0.0923755 -0.000332759)
(0.00216948 -0.111042 -0.500633)
(-0.00281108 -0.090952 -0.000304226)
(0.000109134 -0.102583 0.00010877)
(0.000313435 -0.104405 2.54317e-05)
(0.000109428 -0.10241 9.39781e-05)
(0.000305313 -0.10451 1.7724e-05)
(0.000769041 -0.0928208 0.000346862)
(0.000301818 -0.0984415 3.1034e-05)
(0.000801479 -0.0924412 0.000328699)
(0.000310023 -0.0986591 2.34007e-05)
(0.000204878 -0.105984 -3.7488e-06)
(0.000204949 -0.105982 3.72142e-06)
(0.000151752 -0.10617 -5.0224e-06)
(0.00015184 -0.106169 5.00041e-06)
(0.000104959 -0.101991 -3.88254e-06)
(0.000105029 -0.10199 3.85615e-06)
(6.65642e-05 -0.102146 -5.08778e-06)
(6.66516e-05 -0.102145 5.06683e-06)
(0.000313595 -0.104402 -2.55141e-05)
(0.00010894 -0.10258 -0.000108876)
(0.000305492 -0.104507 -1.77961e-05)
(0.00010924 -0.102407 -9.40766e-05)
(0.000301957 -0.0984382 -3.11228e-05)
(0.000769027 -0.0928159 -0.000347149)
(0.000310207 -0.0986559 -2.34781e-05)
(0.000801452 -0.0924358 -0.000328966)
(-0.00599648 -0.103511 3.95907e-05)
(0.00511128 -0.109926 0.494472)
(-0.0060876 -0.103128 1.44485e-05)
(0.0050947 -0.110629 0.494568)
(-0.00270868 -0.0923724 0.000333207)
(0.00214989 -0.10957 0.500613)
(-0.00281418 -0.0909483 0.000304638)
(0.00217247 -0.111052 0.500632)
(0.00510639 -0.108692 -0.494293)
(-0.00578916 -0.104016 -8.32047e-05)
(0.00511439 -0.109281 -0.49435)
(-0.00589325 -0.103806 -6.23897e-05)
(0.00206956 -0.106983 -0.500575)
(-0.00248978 -0.094502 -0.000380798)
(0.00211485 -0.10821 -0.500588)
(-0.00259867 -0.0935513 -0.000358209)
(0.000142003 -0.102876 0.000130576)
(0.000335737 -0.104215 3.96425e-05)
(0.000121364 -0.102741 0.000120855)
(0.000324791 -0.104309 3.27791e-05)
(0.000768041 -0.093578 0.000372609)
(0.000287007 -0.0980408 4.53038e-05)
(0.000759332 -0.0932068 0.000361302)
(0.000294826 -0.0982361 3.8382e-05)
(0.000292191 -0.105626 -6.06336e-07)
(0.000292242 -0.105625 5.64321e-07)
(0.0002522 -0.105804 -2.25597e-06)
(0.000252261 -0.105803 2.22217e-06)
(0.00015869 -0.101567 -8.52463e-07)
(0.000158732 -0.101566 8.10074e-07)
(0.000135687 -0.101795 -2.44633e-06)
(0.000135739 -0.101794 2.41303e-06)
(0.000335851 -0.104212 -3.97462e-05)
(0.000141791 -0.102873 -0.000130698)
(0.000324927 -0.104306 -3.28717e-05)
(0.000121155 -0.102738 -0.000120969)
(0.000287067 -0.0980376 -4.54185e-05)
(0.000768163 -0.093574 -0.000372928)
(0.000294927 -0.0982328 -3.84824e-05)
(0.000759362 -0.0932023 -0.000361606)
(-0.00579283 -0.104015 8.343e-05)
(0.00510971 -0.108694 0.494287)
(-0.00589681 -0.103805 6.25962e-05)
(0.00511763 -0.109284 0.494344)
(-0.0024933 -0.0945003 0.000381308)
(0.0020728 -0.10699 0.500574)
(-0.00260208 -0.0935489 0.000358689)
(0.00211803 -0.108218 0.500587)
(0.00507713 -0.107631 -0.494152)
(-0.00559864 -0.104222 -0.000118433)
(0.00509512 -0.108145 -0.494192)
(-0.00569247 -0.104152 -0.00010184)
(0.00197627 -0.104856 -0.500544)
(-0.0023048 -0.0958408 -0.00041825)
(0.00202555 -0.105868 -0.500554)
(-0.00239522 -0.0952567 -0.000400723)
(0.000197315 -0.103058 0.000144027)
(0.000352942 -0.10401 5.15951e-05)
(0.000166729 -0.102982 0.000138183)
(0.000344828 -0.104116 4.59274e-05)
(0.000817752 -0.0942387 0.000387803)
(0.000264741 -0.0976815 5.74825e-05)
(0.000787049 -0.0939257 0.000381286)
(0.000277189 -0.0978559 5.1691e-05)
(0.000351432 -0.105255 2.97508e-06)
(0.000351468 -0.105253 -3.03241e-06)
(0.000324711 -0.105443 1.15065e-06)
(0.000324756 -0.105442 -1.20239e-06)
(0.000190503 -0.101046 2.5862e-06)
(0.000190533 -0.101045 -2.59984e-06)
(0.000176576 -0.101315 8.38294e-07)
(0.000176613 -0.101314 -8.88672e-07)
(0.00035298 -0.104008 -5.17368e-05)
(0.000197123 -0.103056 -0.000144185)
(0.000344911 -0.104114 -4.60452e-05)
(0.000166521 -0.10298 -0.000138318)
(0.000264642 -0.0976787 -5.7693e-05)
(0.000818135 -0.0942354 -0.000388227)
(0.000277193 -0.0978529 -5.18274e-05)
(0.000787277 -0.0939221 -0.000381628)
(-0.00560243 -0.104221 0.000118691)
(0.00508056 -0.107633 0.494145)
(-0.00569623 -0.104151 0.000102081)
(0.00509851 -0.108147 0.494185)
(-0.00230839 -0.09584 0.000418825)
(0.00197957 -0.104862 0.500543)
(-0.0023988 -0.0952555 0.000401256)
(0.00202881 -0.105875 0.500553)
(0.00504485 -0.106684 -0.494026)
(-0.00543291 -0.104195 -0.000146149)
(0.00506098 -0.107146 -0.494058)
(-0.00551414 -0.104234 -0.000133076)
(0.00188901 -0.103096 -0.500516)
(-0.00215567 -0.0965941 -0.000447654)
(0.00193129 -0.103936 -0.500525)
(-0.0022272 -0.0962793 -0.000433412)
(0.000267157 -0.103095 0.000151659)
(0.000371435 -0.103779 6.13087e-05)
(0.000230185 -0.103096 0.000148345)
(0.000361245 -0.103899 5.66202e-05)
(0.000902525 -0.0947363 0.000396867)
(0.000232488 -0.0973605 6.81994e-05)
(0.000857943 -0.0945103 0.000392315)
(0.000248086 -0.0975179 6.24502e-05)
(0.000395384 -0.104854 6.45437e-06)
(0.000395515 -0.104853 -6.64794e-06)
(0.000374398 -0.105058 4.83003e-06)
(0.000374422 -0.105057 -4.85306e-06)
(0.000210626 -0.100474 5.20122e-06)
(0.000210739 -0.100473 -6.6769e-06)
(0.000201839 -0.100764 4.56871e-06)
(0.000201845 -0.100763 -4.02256e-06)
(0.000371888 -0.103777 -6.12878e-05)
(0.000266505 -0.103093 -0.000151603)
(0.000361043 -0.103897 -5.68239e-05)
(0.000230169 -0.103094 -0.00014855)
(0.000232675 -0.0973584 -6.68557e-05)
(0.000902656 -0.0947334 -0.000395611)
(0.00024769 -0.0975148 -6.32383e-05)
(0.000858667 -0.094508 -0.000393346)
(-0.00543694 -0.104194 0.000146401)
(0.00504821 -0.106685 0.494019)
(-0.00551794 -0.104233 0.00013339)
(0.00506446 -0.107147 0.494052)
(-0.00215937 -0.096594 0.000447224)
(0.00189222 -0.103101 0.500514)
(-0.00223077 -0.0962791 0.000434454)
(0.00193461 -0.103942 0.500524)
(0.00502617 -0.1058 -0.493906)
(-0.00529012 -0.103987 -0.000167851)
(0.00503508 -0.106236 -0.493937)
(-0.00536118 -0.104111 -0.000157599)
(0.00181966 -0.101604 -0.50049)
(-0.00203665 -0.0969267 -0.000469789)
(0.00185415 -0.102321 -0.500497)
(-0.00209696 -0.0968054 -0.000458332)
(0.000346203 -0.102997 0.000155184)
(0.0004025 -0.103495 6.89679e-05)
(0.000304432 -0.103062 0.000153608)
(0.00038539 -0.103646 6.52063e-05)
(0.000981394 -0.0950491 0.000400437)
(0.000213339 -0.0970515 7.58788e-05)
(0.000942479 -0.0949159 0.000397365)
(0.000220822 -0.0972069 7.06793e-05)
(0.000435914 -0.104414 9.5205e-06)
(0.000436001 -0.104413 -9.71144e-06)
(0.000415613 -0.10464 8.17728e-06)
(0.000415521 -0.104639 -8.10434e-06)
(0.000223796 -0.0998735 8.31187e-06)
(0.000223874 -0.0998729 -9.5502e-06)
(0.000217458 -0.100177 8.32029e-06)
(0.000217375 -0.100176 -6.65685e-06)
(0.000402873 -0.103493 -6.90077e-05)
(0.000345677 -0.102996 -0.000155167)
(0.000384867 -0.103644 -6.55567e-05)
(0.000304843 -0.10306 -0.00015397)
(0.00021348 -0.0970491 -7.48332e-05)
(0.000981523 -0.0950476 -0.000399491)
(0.000220119 -0.0972047 -7.26929e-05)
(0.000943509 -0.0949136 -0.000399703)
(-0.00529412 -0.103986 0.000168141)
(0.00502955 -0.105801 0.493899)
(-0.00536484 -0.104111 0.000157996)
(0.00503861 -0.106237 0.49393)
(-0.00204017 -0.0969274 0.00046956)
(0.00182286 -0.101608 0.500488)
(-0.00210028 -0.0968057 0.000460227)
(0.00185749 -0.102325 0.500497)
(0.0050272 -0.104945 -0.493787)
(-0.00516237 -0.103628 -0.000184753)
(0.00502594 -0.105371 -0.493815)
(-0.00522633 -0.103825 -0.000176748)
(0.00177091 -0.100298 -0.500465)
(-0.00193744 -0.0969434 -0.000486581)
(0.00179548 -0.100932 -0.500472)
(-0.00198595 -0.0969685 -0.000478164)
(0.000432428 -0.102774 0.000155979)
(0.000449375 -0.10314 7.4946e-05)
(0.000387825 -0.102901 0.000155919)
(0.000424048 -0.103327 7.19305e-05)
(0.00105023 -0.0951821 0.000400967)
(0.000210281 -0.0967179 8.15122e-05)
(0.0010159 -0.0951377 0.000400144)
(0.000210163 -0.0968895 7.8102e-05)
(0.000479862 -0.103923 1.22648e-05)
(0.000479889 -0.103922 -1.21867e-05)
(0.000457211 -0.104175 1.0929e-05)
(0.000457169 -0.104175 -1.10353e-05)
(0.000236432 -0.0992458 1.11888e-05)
(0.000236409 -0.0992456 -1.18084e-05)
(0.000229858 -0.0995631 1.05533e-05)
(0.000229897 -0.0995627 -9.99356e-06)
(0.000449578 -0.103138 -7.4704e-05)
(0.000432119 -0.102773 -0.000156437)
(0.000423864 -0.103325 -7.231e-05)
(0.000387901 -0.1029 -0.000155921)
(0.000210419 -0.0967163 -8.10405e-05)
(0.00105057 -0.0951807 -0.00040073)
(0.000209714 -0.0968879 -7.89541e-05)
(0.00101655 -0.0951359 -0.000401194)
(-0.00516628 -0.103627 0.000184995)
(0.00503057 -0.104945 0.49378)
(-0.00523013 -0.103824 0.000177166)
(0.00502938 -0.105372 0.493808)
(-0.00194079 -0.0969442 0.000486777)
(0.0017741 -0.1003 0.500463)
(-0.00198928 -0.0969692 0.000479319)
(0.00179872 -0.100935 0.500471)
(0.00504979 -0.104084 -0.493667)
(-0.00504211 -0.103138 -0.000197815)
(0.00503755 -0.104517 -0.493697)
(-0.00510359 -0.103398 -0.000191597)
(0.00174082 -0.0991035 -0.50044)
(-0.00185532 -0.0967209 -0.000500049)
(0.0017559 -0.0996902 -0.500447)
(-0.00189784 -0.0968596 -0.000492881)
(0.000524634 -0.102425 0.00015577)
(0.000512306 -0.102701 7.91078e-05)
(0.000476788 -0.102616 0.000156061)
(0.000478978 -0.102931 7.69282e-05)
(0.00111386 -0.095142 0.000400376)
(0.000221074 -0.0963334 8.65738e-05)
(0.00108221 -0.0951817 0.000399911)
(0.000214271 -0.0965336 8.28209e-05)
(0.000531237 -0.10337 1.42645e-05)
(0.000531434 -0.103369 -1.44306e-05)
(0.00050449 -0.103655 1.33197e-05)
(0.000504286 -0.103654 -1.33591e-05)
(0.000250591 -0.0985813 1.29106e-05)
(0.000250835 -0.0985812 -1.4303e-05)
(0.000243272 -0.098919 1.30698e-05)
(0.000243174 -0.0989185 -1.21608e-05)
(0.000512582 -0.1027 -7.90494e-05)
(0.000523998 -0.102424 -0.000155768)
(0.000478799 -0.10293 -7.73191e-05)
(0.000477057 -0.102614 -0.000156173)
(0.000221146 -0.0963322 -8.46613e-05)
(0.00111388 -0.0951409 -0.000399591)
(0.000213861 -0.0965321 -8.44455e-05)
(0.00108305 -0.095181 -0.000401151)
(-0.00504615 -0.103138 0.000198111)
(0.00505305 -0.104084 0.49366)
(-0.00510732 -0.103398 0.000192043)
(0.00504097 -0.104517 0.49369)
(-0.00185873 -0.0967218 0.000499522)
(0.00174392 -0.0991055 0.500438)
(-0.00190104 -0.0968606 0.000494433)
(0.00175912 -0.0996927 0.500446)
(0.00509275 -0.103193 -0.493545)
(-0.00492396 -0.102529 -0.000207988)
(0.00507047 -0.103644 -0.493572)
(-0.00498486 -0.102848 -0.000203113)
(0.00172581 -0.0979659 -0.500416)
(-0.00178531 -0.0963056 -0.000510183)
(0.00173362 -0.0985306 -0.500422)
(-0.00182186 -0.0965352 -0.000504061)
(0.000623174 -0.101949 0.000154524)
(0.000589288 -0.102168 8.21095e-05)
(0.000572062 -0.102203 0.000155063)
(0.000549398 -0.102447 8.05309e-05)
(0.00117644 -0.0949316 0.000398756)
(0.000242621 -0.0958742 8.99195e-05)
(0.00114476 -0.0950568 0.000398504)
(0.000230951 -0.0961146 8.59861e-05)
(0.000594061 -0.102742 1.59364e-05)
(0.000594339 -0.102741 -1.61218e-05)
(0.000561415 -0.103066 1.52511e-05)
(0.000561045 -0.103065 -1.52267e-05)
(0.000268619 -0.0978666 1.4462e-05)
(0.000268939 -0.0978666 -1.60941e-05)
(0.000259398 -0.098231 1.52072e-05)
(0.000259113 -0.0982307 -1.37912e-05)
(0.000589561 -0.102167 -8.2035e-05)
(0.000622435 -0.101948 -0.000154479)
(0.000549173 -0.102446 -8.08923e-05)
(0.000572574 -0.102202 -0.000155334)
(0.000242686 -0.0958733 -8.74159e-05)
(0.00117638 -0.0949311 -0.000397877)
(0.00023055 -0.0961135 -8.85937e-05)
(0.00114583 -0.0950564 -0.000400042)
(-0.00492805 -0.102529 0.000208278)
(0.00509595 -0.103193 0.493538)
(-0.00498853 -0.102848 0.000203593)
(0.00507386 -0.103644 0.493565)
(-0.00178869 -0.0963066 0.000509361)
(0.00172887 -0.0979675 0.500414)
(-0.00182493 -0.0965362 0.000506163)
(0.00173682 -0.0985325 0.500421)
(0.00515475 -0.102248 -0.493423)
(-0.0048047 -0.101804 -0.000215901)
(0.00512305 -0.102728 -0.493448)
(-0.00486657 -0.102181 -0.00021207)
(0.00172331 -0.0968401 -0.500393)
(-0.0017232 -0.0957277 -0.000517834)
(0.00172496 -0.0974038 -0.500398)
(-0.00175624 -0.0960357 -0.000512684)
(0.000729348 -0.101345 0.000152838)
(0.000678813 -0.101529 8.41126e-05)
(0.00067396 -0.101663 0.000153545)
(0.000632623 -0.101862 8.29844e-05)
(0.00123525 -0.0945591 0.000396458)
(0.000271879 -0.095321 9.20656e-05)
(0.00120479 -0.0947656 0.000396466)
(0.000256533 -0.0956105 8.83067e-05)
(0.000669799 -0.102027 1.72312e-05)
(0.000670116 -0.102027 -1.74192e-05)
(0.000630658 -0.102396 1.67324e-05)
(0.000630212 -0.102395 -1.67089e-05)
(0.000291531 -0.097088 1.57273e-05)
(0.000291882 -0.097088 -1.74092e-05)
(0.000279861 -0.0974862 1.67313e-05)
(0.00027949 -0.097486 -1.5214e-05)
(0.000679067 -0.101528 -8.40278e-05)
(0.000728608 -0.101344 -0.000152792)
(0.000632432 -0.101861 -8.33655e-05)
(0.000674585 -0.101663 -0.000153819)
(0.000271922 -0.0953204 -8.93227e-05)
(0.00123517 -0.094559 -0.000395631)
(0.000256167 -0.0956097 -9.12779e-05)
(0.00120596 -0.0947654 -0.000397974)
(-0.00480884 -0.101803 0.000216192)
(0.00515788 -0.102247 0.493415)
(-0.00487026 -0.102181 0.000212572)
(0.00512639 -0.102728 0.493441)
(-0.00172653 -0.0957288 0.00051691)
(0.00172634 -0.0968413 0.500391)
(-0.00175925 -0.0960367 0.00051497)
(0.00172814 -0.0974053 0.500397)
(0.00523468 -0.10123 -0.493294)
(-0.00467883 -0.10096 -0.000222066)
(0.00519407 -0.101749 -0.493322)
(-0.00474475 -0.101397 -0.000219048)
(0.00173073 -0.0956915 -0.500369)
(-0.00166471 -0.0950049 -0.000523605)
(0.00172758 -0.0962704 -0.500374)
(-0.00169627 -0.0953839 -0.000519258)
(0.000843748 -0.100609 0.000150977)
(0.000780925 -0.100776 8.53516e-05)
(0.000784351 -0.100994 0.000151753)
(0.000728442 -0.101167 8.45704e-05)
(0.00129274 -0.0940268 0.000393901)
(0.000307733 -0.0946591 9.33725e-05)
(0.00126282 -0.0943128 0.000394066)
(0.000289179 -0.0950045 8.98285e-05)
(0.000759204 -0.101212 1.81983e-05)
(0.000759539 -0.101212 -1.83908e-05)
(0.000713208 -0.101633 1.78545e-05)
(0.000712718 -0.101632 -1.78381e-05)
(0.000319869 -0.0962306 1.66802e-05)
(0.000320238 -0.0962307 -1.83913e-05)
(0.0003055 -0.0966699 1.78643e-05)
(0.000305084 -0.0966699 -1.63247e-05)
(0.000781177 -0.100775 -8.5263e-05)
(0.000842996 -0.100608 -0.000150936)
(0.000728291 -0.101166 -8.49628e-05)
(0.000785025 -0.100993 -0.000152018)
(0.000307774 -0.0946587 -9.05013e-05)
(0.00129267 -0.0940269 -0.000393116)
(0.000288845 -0.0950041 -9.29709e-05)
(0.00126405 -0.0943129 -0.000395515)
(-0.004683 -0.10096 0.000222356)
(0.00523777 -0.101229 0.493286)
(-0.00474847 -0.101396 0.000219562)
(0.00519735 -0.101748 0.493315)
(-0.001668 -0.095006 0.000522624)
(0.00173374 -0.0956924 0.500367)
(-0.00169922 -0.0953849 0.000521624)
(0.00173073 -0.0962715 0.500374)
(0.00533199 -0.100121 -0.493165)
(-0.00454296 -0.0999932 -0.000226851)
(0.00528275 -0.100688 -0.493192)
(-0.00461395 -0.100492 -0.000224485)
(0.00174718 -0.094492 -0.500346)
(-0.00160817 -0.0941443 -0.00052776)
(0.00173955 -0.0950997 -0.500351)
(-0.00163877 -0.0945917 -0.000524225)
(0.00096627 -0.0997371 0.000149088)
(0.000895701 -0.0998969 8.59897e-05)
(0.00090278 -0.10019 0.000149874)
(0.000836851 -0.100352 8.54957e-05)
(0.00134979 -0.0933367 0.000391189)
(0.000349754 -0.093876 9.37904e-05)
(0.00132002 -0.0937016 0.000391487)
(0.000328148 -0.0942834 9.07379e-05)
(0.000862736 -0.100285 1.88998e-05)
(0.000862988 -0.100285 -1.90844e-05)
(0.000809638 -0.100764 1.86746e-05)
(0.000809128 -0.100763 -1.86722e-05)
(0.000353876 -0.0952793 1.75016e-05)
(0.00035416 -0.0952793 -1.89964e-05)
(0.000336691 -0.0957675 1.86646e-05)
(0.000336256 -0.0957677 -1.71764e-05)
(0.000895959 -0.0998962 -8.59452e-05)
(0.000965642 -0.0997366 -0.000149076)
(0.000836744 -0.100352 -8.58925e-05)
(0.000903456 -0.10019 -0.000150132)
(0.000349807 -0.0938759 -9.14107e-05)
(0.00134985 -0.0933373 -0.000390547)
(0.000327856 -0.0942832 -9.38861e-05)
(0.00132127 -0.0937017 -0.000392875)
(-0.00454707 -0.0999929 0.000227163)
(0.00533506 -0.100121 0.493157)
(-0.00461768 -0.100492 0.000225002)
(0.00528598 -0.100687 0.493185)
(-0.00161136 -0.0941454 0.000527037)
(0.00175019 -0.0944927 0.500344)
(-0.00164166 -0.0945927 0.000526582)
(0.00174268 -0.0951004 0.50035)
(0.00544607 -0.0989069 -0.493033)
(-0.00439656 -0.098897 -0.000230548)
(0.0053884 -0.0995281 -0.493061)
(-0.00447309 -0.0994617 -0.000228721)
(0.00177156 -0.0932181 -0.500323)
(-0.00155259 -0.093149 -0.000530659)
(0.00175998 -0.0938656 -0.500327)
(-0.0015827 -0.0936635 -0.000528099)
(0.0010979 -0.0987237 0.000147276)
(0.0010233 -0.0988838 8.61744e-05)
(0.00102984 -0.0992484 0.000148053)
(0.000958006 -0.0994077 8.59515e-05)
(0.00140724 -0.0924898 0.000388428)
(0.000397493 -0.0929611 9.35934e-05)
(0.00137739 -0.0929331 0.00038895)
(0.000373121 -0.0934357 9.15484e-05)
(0.000980956 -0.0992334 1.93783e-05)
(0.0009811 -0.0992331 -1.95424e-05)
(0.000920332 -0.0997756 1.92387e-05)
(0.000919942 -0.0997752 -1.9262e-05)
(0.000393755 -0.0942187 1.8157e-05)
(0.000393927 -0.0942188 -1.92803e-05)
(0.000373514 -0.0947633 1.9055e-05)
(0.000373185 -0.0947636 -1.79484e-05)
(0.00102353 -0.0988831 -8.61908e-05)
(0.00109744 -0.0987232 -0.000147297)
(0.000957933 -0.099407 -8.6279e-05)
(0.00103032 -0.0992479 -0.000148264)
(0.000397535 -0.0929612 -9.19728e-05)
(0.00140748 -0.0924905 -0.000388013)
(0.000372868 -0.0934358 -9.38636e-05)
(0.00137849 -0.0929334 -0.000390099)
(-0.00440065 -0.0988967 0.00023089)
(0.00544911 -0.0989063 0.493026)
(-0.00447688 -0.0994613 0.00022921)
(0.00539156 -0.0995275 0.493053)
(-0.00155566 -0.0931501 0.000530344)
(0.00177457 -0.0932185 0.500321)
(-0.00158558 -0.0936645 0.000530021)
(0.00176308 -0.0938662 0.500327)
(0.00557736 -0.0975721 -0.492899)
(-0.00423471 -0.097664 -0.00023338)
(0.00551105 -0.0982552 -0.492927)
(-0.00431942 -0.0982981 -0.000231984)
(0.00180281 -0.0918493 -0.5003)
(-0.00149683 -0.0920179 -0.000532695)
(0.00178783 -0.0925467 -0.500304)
(-0.001527 -0.0926007 -0.000530859)
(0.00124059 -0.0975623 0.000145597)
(0.00116398 -0.0977264 8.60397e-05)
(0.00116697 -0.0981618 0.000146332)
(0.0010921 -0.0983236 8.60118e-05)
(0.0014655 -0.0914845 0.000385757)
(0.000450373 -0.0919041 9.32147e-05)
(0.00143537 -0.0920072 0.000386409)
(0.000423482 -0.092451 9.18381e-05)
(0.00111425 -0.0980447 1.96657e-05)
(0.00111434 -0.0980444 -1.98196e-05)
(0.00104599 -0.0986567 1.95987e-05)
(0.00104569 -0.0986564 -1.96424e-05)
(0.000439681 -0.0930348 1.85336e-05)
(0.000439797 -0.093035 -1.94596e-05)
(0.000416354 -0.0936428 1.92748e-05)
(0.000416106 -0.0936431 -1.84664e-05)
(0.0011642 -0.0977259 -8.60887e-05)
(0.00124021 -0.0975619 -0.000145635)
(0.00109206 -0.098323 -8.62907e-05)
(0.0011673 -0.0981614 -0.000146512)
(0.000450414 -0.0919044 -9.20029e-05)
(0.00146584 -0.0914852 -0.000385458)
(0.000423267 -0.0924512 -9.35546e-05)
(0.00143636 -0.0920077 -0.000387371)
(-0.00423882 -0.0976638 0.000233738)
(0.00558037 -0.0975714 0.492892)
(-0.0043233 -0.0982978 0.000232452)
(0.00551415 -0.0982546 0.492919)
(-0.00149981 -0.092019 0.000532597)
(0.00180582 -0.0918496 0.500298)
(-0.00152984 -0.0926018 0.000532459)
(0.0017909 -0.092547 0.500303)
(0.0057254 -0.0961039 -0.492761)
(-0.0040549 -0.0962871 -0.000235505)
(0.00565077 -0.0968552 -0.492787)
(-0.00414868 -0.0969939 -0.000234453)
(0.00184039 -0.0903684 -0.500277)
(-0.00143816 -0.0907458 -0.000534035)
(0.00182201 -0.0911238 -0.500281)
(-0.00147019 -0.0914 -0.000532645)
(0.0013951 -0.0962461 0.000144072)
(0.0013178 -0.0964157 8.56705e-05)
(0.00131564 -0.0969239 0.000144739)
(0.00123938 -0.0970907 8.57693e-05)
(0.00152525 -0.090318 0.000383205)
(0.000508132 -0.0906958 9.27443e-05)
(0.00149435 -0.0909216 0.000383846)
(0.000478846 -0.0913194 9.16329e-05)
(0.00126266 -0.0967081 1.97985e-05)
(0.00126274 -0.0967079 -1.99535e-05)
(0.00118683 -0.0973954 1.97985e-05)
(0.00118657 -0.0973951 -1.98497e-05)
(0.000491663 -0.091715 1.86593e-05)
(0.000491771 -0.0917154 -1.9585e-05)
(0.000465311 -0.0923925 1.94232e-05)
(0.000465098 -0.0923929 -1.87155e-05)
(0.00131804 -0.0964153 -8.57236e-05)
(0.00139472 -0.0962458 -0.000144109)
(0.00123934 -0.0970902 -8.6029e-05)
(0.00131592 -0.0969235 -0.000144906)
(0.000508196 -0.0906964 -9.15858e-05)
(0.00152561 -0.0903188 -0.000382884)
(0.000478646 -0.0913199 -9.31238e-05)
(0.00149531 -0.0909224 -0.000384754)
(-0.00405905 -0.0962868 0.000235866)
(0.00572837 -0.0961031 0.492753)
(-0.00415262 -0.0969936 0.000234913)
(0.00565383 -0.0968545 0.49278)
(-0.00144109 -0.0907469 0.000533953)
(0.00184339 -0.0903686 0.500275)
(-0.00147298 -0.0914011 0.000534129)
(0.00182507 -0.091124 0.50028)
(0.00588944 -0.0944889 -0.492621)
(-0.00385489 -0.0947546 -0.000237042)
(0.00580685 -0.0953154 -0.492648)
(-0.00395912 -0.0955412 -0.000236268)
(0.00188418 -0.0887595 -0.500254)
(-0.00137362 -0.0893227 -0.00053479)
(0.00186283 -0.0895808 -0.500258)
(-0.00140826 -0.0900538 -0.000533604)
(0.00156151 -0.0947669 0.000142689)
(0.00148474 -0.0949421 8.51236e-05)
(0.00147601 -0.0955274 0.00014328)
(0.00139978 -0.0956997 8.52987e-05)
(0.00158684 -0.0889863 0.000380773)
(0.000570665 -0.0893275 9.22137e-05)
(0.00155507 -0.0896729 0.000381263)
(0.000539049 -0.0900322 9.10264e-05)
(0.0014261 -0.0952128 1.98072e-05)
(0.00142621 -0.0952126 -1.9974e-05)
(0.00134278 -0.0959807 1.98721e-05)
(0.00134252 -0.0959805 -1.99175e-05)
(0.000549653 -0.0902473 1.85702e-05)
(0.00054979 -0.0902477 -1.96809e-05)
(0.00052035 -0.0910003 1.95326e-05)
(0.000520134 -0.0910006 -1.87311e-05)
(0.00148503 -0.0949418 -8.51575e-05)
(0.00156107 -0.0947667 -0.000142711)
(0.00139972 -0.0956993 -8.55643e-05)
(0.00147631 -0.0955271 -0.000143452)
(0.00057078 -0.0893283 -9.08102e-05)
(0.00158715 -0.0889872 -0.000380288)
(0.000538834 -0.0900328 -9.26184e-05)
(0.00155607 -0.0896739 -0.000382257)
(-0.00385912 -0.0947544 0.000237393)
(0.00589238 -0.0944882 0.492613)
(-0.00396311 -0.0955409 0.000236732)
(0.00580987 -0.0953147 0.49264)
(-0.00137651 -0.0893238 0.000534543)
(0.00188717 -0.0887595 0.500252)
(-0.00141101 -0.0900549 0.000535162)
(0.00186587 -0.0895808 0.500257)
(0.0060697 -0.0927155 -0.492478)
(-0.00363042 -0.0930554 -0.000238079)
(0.00597888 -0.0936224 -0.492505)
(-0.00374761 -0.0939261 -0.000237531)
(0.00193319 -0.0870094 -0.500231)
(-0.00130692 -0.087738 -0.000535037)
(0.00190903 -0.0879028 -0.500234)
(-0.00134238 -0.0885511 -0.00053385)
(0.00174116 -0.0931169 0.000141467)
(0.00166493 -0.0932974 8.44345e-05)
(0.00164881 -0.0939635 0.000141954)
(0.00157344 -0.0941415 8.46491e-05)
(0.00165025 -0.0874857 0.000378464)
(0.000638078 -0.0877916 9.16339e-05)
(0.00161741 -0.0882572 0.000378656)
(0.000604075 -0.0885811 9.00921e-05)
(0.00160426 -0.093549 1.97153e-05)
(0.00160443 -0.0935488 -1.99039e-05)
(0.0015137 -0.0944023 1.98456e-05)
(0.0015134 -0.0944021 -1.98725e-05)