/*--------------------------------*- C++ -*----------------------------------*\
  =========                 |
  \\      /  F ield         | OpenFOAM: The Open Source CFD Toolbox
   \\    /   O peration     | Website:  https://openfoam.org
    \\  /    A nd           | Version:  9
     \\/     M anipulation  |
\*---------------------------------------------------------------------------*/
FoamFile
{
    format      ascii;
    class       volScalarField;
    location    "1";
    object      epsilon;
}
// * * * * * * * * * * * * * * * * * * * * * * * * * * * * * * * * * * * * * //

dimensions      [0 2 -3 0 0 0 0];

internalField   nonuniform List<scalar> 
36360
(
0.128396
0.0959769
0.0351694
0.0339285
0.0221902
0.0116866
0.0082742
0.00641821
0.0128269
0.00291664
0.00638118
0.00451587
0.00401257
0.00318535
0.005073
0.00503766
0.00240967
0.00240965
0.00451735
0.00451735
0.00313664
0.00313663
0.0050385
0.00503849
0.00291578
0.0128225
0.00451596
0.00638091
0.0031853
0.00401188
0.00503766
0.00507307
0.0959716
0.128414
0.0339294
0.0351697
0.0116856
0.0221934
0.00641816
0.00827434
0.246245
0.18017
0.200519
0.146523
0.0825941
0.0423746
0.0545789
0.0271944
0.0413437
0.00553118
0.028043
0.00365056
0.00756125
0.00216558
0.00505814
0.00238337
0.00131353
0.00131251
0.0015759
0.00157566
0.00179216
0.00179204
0.00219645
0.00219641
0.00552002
0.0413127
0.00364691
0.0280266
0.00216429
0.00755277
0.00238299
0.00505548
0.180157
0.246319
0.146512
0.200564
0.0423665
0.0826356
0.02719
0.0545985
0.28478
0.209559
0.271945
0.199676
0.109688
0.0584352
0.100378
0.0526782
0.054172
0.00816491
0.0497512
0.00720638
0.0109101
0.00220606
0.00966747
0.00216895
0.00129835
0.00129585
0.00128021
0.00127828
0.00159814
0.00159792
0.001644
0.00164382
0.00814153
0.0541225
0.00718791
0.0497091
0.00220327
0.0108924
0.00216671
0.00965349
0.209546
0.284898
0.199664
0.272044
0.0584238
0.109765
0.0526679
0.10044
0.292799
0.215858
0.290608
0.214112
0.115462
0.0621605
0.113919
0.0611408
0.0569946
0.00878168
0.0562206
0.0086162
0.0117212
0.0022474
0.0115023
0.00223572
0.00132406
0.00132104
0.00131598
0.0013131
0.00158343
0.00158317
0.00158604
0.00158579
0.00875444
0.0569388
0.00859012
0.0561669
0.00224411
0.0117008
0.00223256
0.0114827
0.215845
0.292934
0.214099
0.290737
0.0621488
0.115552
0.0611291
0.114005
0.293633
0.216604
0.293598
0.216536
0.115994
0.0625422
0.115993
0.0625326
0.0573249
0.0088397
0.057301
0.00884177
0.0118
0.00225028
0.0118003
0.00225089
0.00132693
0.00132387
0.00132704
0.00132397
0.00158225
0.00158199
0.00158222
0.00158196
0.00881195
0.057268
0.00881408
0.0572444
0.00224694
0.0117792
0.00224756
0.0117796
0.216592
0.293771
0.216524
0.293736
0.0625306
0.116086
0.062521
0.116086
0.293472
0.216546
0.293652
0.216655
0.115879
0.0624712
0.116002
0.062554
0.0573179
0.00883717
0.0573608
0.00884774
0.0117929
0.00224824
0.0118078
0.00225001
0.00132661
0.00132354
0.00132725
0.00132418
0.00158112
0.00158086
0.00158183
0.00158157
0.0088094
0.0572611
0.00881995
0.0573039
0.0022449
0.0117721
0.00224667
0.011787
0.216534
0.293611
0.216643
0.293791
0.0624597
0.115972
0.0625425
0.116095
0.293084
0.216323
0.293364
0.2165
0.11563
0.0622908
0.11581
0.0624193
0.0572364
0.00881775
0.0573082
0.00883453
0.0117608
0.00224375
0.0117859
0.00224657
0.00132518
0.00132212
0.00132625
0.00132318
0.00157922
0.00157896
0.00158003
0.00157977
0.00879005
0.0571796
0.00880678
0.0572513
0.00224043
0.0117401
0.00224324
0.0117651
0.216311
0.293224
0.216488
0.293503
0.0622793
0.115723
0.0624078
0.115903
0.292557
0.216009
0.292908
0.21623
0.115316
0.0620666
0.115531
0.0622173
0.0571147
0.00878933
0.0572055
0.00881039
0.0117164
0.00223835
0.0117475
0.00224163
0.00132314
0.0013201
0.00132449
0.00132144
0.00157728
0.00157702
0.00157814
0.00157788
0.00876171
0.0570578
0.00878271
0.0571487
0.00223504
0.0116958
0.00223832
0.0117269
0.215997
0.292695
0.216218
0.293047
0.0620551
0.115409
0.0622058
0.115624
0.291916
0.215631
0.292327
0.215886
0.114955
0.0618157
0.115198
0.0619809
0.0569668
0.00875575
0.0570714
0.00877944
0.0116648
0.00223232
0.0116999
0.00223593
0.00132088
0.00131786
0.00132233
0.0013193
0.001575
0.00157475
0.00157604
0.00157578
0.00872823
0.05691
0.00875185
0.0570146
0.00222903
0.0116443
0.00223263
0.0116794
0.215618
0.292055
0.215874
0.292465
0.0618042
0.115047
0.0619695
0.11529
0.291173
0.215201
0.291637
0.215485
0.114549
0.0615448
0.114818
0.0617215
0.0567986
0.00871768
0.0569146
0.00874398
0.0116072
0.00222539
0.0116458
0.00222947
0.00131828
0.00131528
0.00131993
0.00131691
0.00157232
0.00157207
0.00157356
0.00157331
0.00869026
0.0567419
0.00871649
0.0568579
0.00222212
0.0115867
0.0022262
0.0116253
0.215188
0.29131
0.215472
0.291775
0.0615331
0.114641
0.0617099
0.11491
0.290324
0.214718
0.290841
0.215029
0.114098
0.061246
0.114391
0.0614376
0.0566105
0.00867592
0.0567378
0.00870433
0.0115434
0.0022178
0.0115854
0.00222222
0.00131555
0.00131256
0.00131727
0.00131427
0.00156924
0.00156899
0.00157069
0.00157043
0.00864859
0.0565537
0.00867694
0.056681
0.00221455
0.011523
0.00221896
0.0115649
0.214704
0.290461
0.215016
0.290978
0.0612341
0.114189
0.0614258
0.114482
0.289371
0.214182
0.289942
0.214522
0.113599
0.060922
0.113916
0.061128
0.0564027
0.00862968
0.0565413
0.00866073
0.0114733
0.00220919
0.0115188
0.00221415
0.00131247
0.00130951
0.00131438
0.0013114
0.00156566
0.00156541
0.00156736
0.0015671
0.00860246
0.0563459
0.00863342
0.0564845
0.00220596
0.011453
0.0022109
0.0114983
0.214169
0.289507
0.214508
0.290078
0.0609099
0.113689
0.061116
0.114007
0.288303
0.213588
0.288932
0.213957
0.113046
0.0605656
0.113391
0.0607884
0.0561729
0.00857926
0.0563234
0.00861263
0.0113962
0.00219973
0.0114454
0.00220513
0.00130922
0.00130628
0.00131122
0.00130826
0.00156157
0.00156133
0.00156352
0.00156327
0.00855219
0.0561162
0.00858545
0.0562666
0.00219653
0.0113759
0.00220191
0.0114251
0.213574
0.288438
0.213944
0.289067
0.0605533
0.113135
0.0607763
0.113481
0.287113
0.212932
0.287804
0.213332
0.112436
0.0601755
0.11281
0.0604152
0.0559202
0.00852401
0.0560825
0.00855995
0.0113117
0.00218917
0.0113647
0.00219514
0.00130566
0.00130275
0.00130783
0.0013049
0.00155691
0.00155666
0.00155915
0.0015589
0.00849711
0.0558637
0.00853293
0.0560259
0.002186
0.0112916
0.00219195
0.0113445
0.212917
0.287247
0.213318
0.287938
0.0601632
0.112525
0.0604029
0.112899
0.285794
0.212208
0.286551
0.212643
0.111765
0.0597529
0.11217
0.0600087
0.055643
0.00846368
0.0558179
0.00850224
0.0112196
0.00217746
0.0112765
0.00218401
0.00130179
0.0012989
0.00130412
0.00130121
0.00155161
0.00155136
0.00155417
0.00155392
0.00843698
0.0555866
0.00847541
0.0557615
0.00217432
0.0111996
0.00218085
0.0112564
0.212193
0.285928
0.212629
0.286685
0.0597405
0.111854
0.0599964
0.112259
0.284343
0.211415
0.285166
0.211885
0.111032
0.0592959
0.111469
0.0595697
0.0553404
0.0083981
0.0555282
0.00843936
0.0111195
0.00216452
0.0111805
0.00217169
0.00129758
0.00129473
0.00130008
0.00129721
0.00154562
0.00154538
0.00154853
0.00154829
0.00837161
0.0552842
0.00841273
0.0554719
0.00216142
0.0110996
0.00216856
0.0111605
0.2114
0.284475
0.21187
0.285299
0.0592835
0.111119
0.0595574
0.111557
0.282753
0.210552
0.283646
0.211057
0.110233
0.0587994
0.110703
0.0590932
0.0550117
0.00832706
0.0552127
0.00837109
0.011011
0.00215029
0.0110762
0.00215812
0.00129304
0.00129022
0.00129571
0.00129287
0.00153889
0.00153865
0.00154217
0.00154193
0.0083008
0.0549558
0.00834469
0.0551567
0.00214723
0.0109913
0.00215503
0.0110564
0.210537
0.282885
0.211042
0.283778
0.0587869
0.110319
0.0590808
0.11079
0.281023
0.209616
0.281986
0.210158
0.109366
0.0582624
0.10987
0.0585764
0.0546561
0.00825035
0.0548707
0.00829724
0.0108939
0.00213471
0.0109634
0.00214321
0.00128814
0.00128537
0.00129098
0.00128819
0.00153137
0.00153113
0.00153505
0.00153481
0.00822435
0.0546004
0.00827108
0.0548148
0.00213168
0.0108745
0.00214016
0.0109438
0.209601
0.281153
0.210143
0.282117
0.0582498
0.109451
0.0585638
0.109956
0.279149
0.208609
0.280184
0.209185
0.108428
0.057685
0.108968
0.0580188
0.0542731
0.00816775
0.0545013
0.0082176
0.0107682
0.00211769
0.010842
0.00212691
0.00128288
0.00128015
0.00128591
0.00128315
0.001523
0.00152277
0.0015271
0.00152687
0.00814201
0.0542176
0.0081917
0.0544457
0.00211471
0.0107489
0.00212391
0.0108226
0.208594
0.279278
0.209169
0.280313
0.0576723
0.108513
0.0580062
0.109053
0.277123
0.207537
0.278235
0.208146
0.107418
0.0570702
0.107994
0.0574219
0.0538607
0.00807899
0.0541041
0.00813194
0.0106338
0.0020992
0.0107118
0.00210916
0.00127725
0.00127456
0.00128046
0.00127774
0.00151374
0.00151351
0.00151829
0.00151806
0.00805354
0.0538055
0.00810632
0.0540487
0.00209627
0.0106147
0.0021062
0.0106926
0.207521
0.27725
0.20813
0.278364
0.0570574
0.107502
0.0574092
0.108078
0.274936
0.206381
0.276128
0.207034
0.106335
0.0564239
0.106947
0.0567898
0.0534155
0.00798391
0.0536755
0.00803998
0.0104908
0.00207921
0.010573
0.00208991
0.00127126
0.00126862
0.00127464
0.00127197
0.00150354
0.00150331
0.00150856
0.00150834
0.00795878
0.0533605
0.00801466
0.0536204
0.00207633
0.010472
0.002087
0.010554
0.206365
0.275063
0.207018
0.276255
0.0564111
0.106418
0.0567771
0.10703
0.272594
0.205131
0.273863
0.205832
0.105182
0.0557572
0.105828
0.0561308
0.0529357
0.00788273
0.0532131
0.00794174
0.0103398
0.0020577
0.0104258
0.00206914
0.00126491
0.00126232
0.00126846
0.00126584
0.00149236
0.00149215
0.00149787
0.00149765
0.00785793
0.052881
0.00791674
0.0531582
0.00205487
0.0103212
0.00206628
0.0104071
0.205114
0.272719
0.205816
0.273989
0.0557442
0.105264
0.0561179
0.10591
0.270106
0.203769
0.271446
0.204528
0.103964
0.055085
0.104641
0.0554587
0.0524237
0.00777619
0.0527163
0.0078377
0.0101809
0.00203467
0.0102707
0.00204685
0.00125825
0.00125571
0.00126194
0.00125937
0.00148019
0.00147997
0.0014862
0.00148598
0.00775175
0.0523694
0.00781305
0.0526618
0.0020319
0.0101627
0.00204405
0.0102523
0.203752
0.27023
0.204511
0.27157
0.0550719
0.104044
0.0554457
0.104722
0.26749
0.202329
0.268892
0.20312
0.102684
0.0543899
0.103391
0.0547784
0.0518862
0.00766498
0.0521908
0.00772868
0.0100144
0.00201014
0.0101079
0.00202305
0.00125129
0.0012488
0.00125511
0.0012526
0.00146699
0.00146678
0.00147351
0.0014733
0.00764093
0.0518323
0.0077044
0.0521366
0.00200744
0.00999644
0.00202031
0.0100897
0.202312
0.267611
0.203103
0.269014
0.0543768
0.102763
0.0547654
0.103471
0.264754
0.200827
0.266213
0.201649
0.101348
0.0536636
0.102082
0.054067
0.0513256
0.00754961
0.0516412
0.00761523
0.00984077
0.00198418
0.00993758
0.00199778
0.00124405
0.00124163
0.001248
0.00124554
0.00145277
0.00145257
0.0014598
0.00145959
0.00752594
0.051272
0.00759134
0.0515875
0.00198153
0.00982308
0.00199511
0.00991972
0.200809
0.264873
0.201631
0.266334
0.0536504
0.101426
0.0540539
0.10216
0.261912
0.199267
0.263422
0.200116
0.0999627
0.0529094
0.10072
0.0533259
0.0507441
0.00743068
0.0510695
0.00749789
0.00966081
0.00195684
0.0097605
0.0019711
0.00123658
0.00123421
0.00124063
0.00123823
0.00143753
0.00143733
0.00144506
0.00144486
0.00740743
0.050691
0.0074744
0.0510162
0.00195426
0.00964343
0.00196849
0.00974295
0.199249
0.26203
0.200098
0.26354
0.0528961
0.100039
0.0533127
0.100796
0.258983
0.197658
0.260533
0.19853
0.0985367
0.0521318
0.099312
0.0525589
0.0501454
0.00730902
0.0504787
0.00737738
0.00947564
0.00192822
0.00957764
0.00194309
0.0012289
0.00122659
0.00123304
0.0012307
0.00142129
0.0014211
0.00142931
0.00142912
0.00728618
0.0500927
0.00735431
0.0504257
0.00192571
0.00945858
0.00194054
0.00956039
0.197639
0.259099
0.198511
0.26065
0.0521184
0.098611
0.0525456
0.0993872
0.255988
0.19601
0.257567
0.196899
0.0970809
0.0513361
0.097869
0.0517711
0.0495337
0.00718555
0.0498726
0.00725457
0.00928652
0.00189846
0.00939016
0.00191387
0.00122107
0.00121882
0.00122527
0.00122298
0.00140409
0.0014039
0.00141258
0.00141239
0.00716314
0.0494815
0.00723193
0.0498201
0.00189602
0.00926979
0.00191139
0.00937324
0.195991
0.256102
0.19688
0.257682
0.0513226
0.0971536
0.0517576
0.0979426
0.252951
0.194337
0.254547
0.195237
0.095607
0.0505284
0.0964019
0.0509681
0.0489139
0.00706129
0.0492559
0.00713046
0.00909485
0.0018677
0.00919941
0.00188357
0.00121312
0.00121093
0.00121736
0.00121514
0.00138598
0.0013858
0.00139492
0.00139473
0.00703932
0.0488621
0.00710825
0.0492039
0.00186532
0.00907844
0.00188115
0.00918282
0.194318
0.253063
0.195217
0.254661
0.0505148
0.0956782
0.0509546
0.0964739
0.249897
0.192652
0.251498
0.193555
0.0941275
0.049715
0.0949228
0.0501562
0.048291
0.00693729
0.0486335
0.00700608
0.00890206
0.0018361
0.00900681
0.00185235
0.00120513
0.001203
0.00120937
0.00120721
0.00136702
0.00136684
0.00137637
0.00137619
0.00691575
0.0482397
0.0069843
0.048582
0.00183379
0.00888599
0.00185
0.00899056
0.192632
0.250008
0.193536
0.251609
0.0497014
0.0941972
0.0501427
0.0949933
0.246855
0.190969
0.248446
0.191869
0.0926555
0.0489028
0.0934447
0.0493421
0.0476704
0.00681463
0.0480108
0.00688249
0.00870966
0.00180383
0.00881386
0.00182037
0.00119713
0.00119505
0.00120136
0.00119925
0.00134729
0.00134712
0.00135701
0.00135683
0.00679352
0.0476196
0.00686115
0.0479597
0.00180159
0.00869392
0.00181809
0.00879794
0.190949
0.246963
0.191849
0.248555
0.0488891
0.0927236
0.0493285
0.0935136
0.243849
0.189302
0.245418
0.190191
0.091204
0.0480984
0.0919805
0.0485324
0.0470575
0.00669435
0.047393
0.00676077
0.00851913
0.00177109
0.00862203
0.00178783
0.00118917
0.00118716
0.00119336
0.00119132
0.00132688
0.00132671
0.00133692
0.00133675
0.00667368
0.0470072
0.00673985
0.0473424
0.00176891
0.00850373
0.00178561
0.00860644
0.189282
0.243955
0.190171
0.245525
0.0480847
0.0912706
0.0485187
0.0920479
0.240907
0.187666
0.24244
0.188538
0.0897858
0.0473087
0.0905433
0.047734
0.0464577
0.00657751
0.0467856
0.00664196
0.00833196
0.00173806
0.00843282
0.0017549
0.00118132
0.00117935
0.00118544
0.00118345
0.00130589
0.00130573
0.00131621
0.00131604
0.00655725
0.0464079
0.00662147
0.0467356
0.00173595
0.00831689
0.00175275
0.00841757
0.187645
0.241011
0.188517
0.242545
0.047295
0.089851
0.0477203
0.0906093
0.238052
0.186075
0.239537
0.186921
0.0884128
0.0465401
0.0891456
0.0469536
0.0458762
0.00646506
0.046194
0.00652708
0.00814952
0.00170493
0.00824767
0.00172178
0.00117361
0.00117169
0.00117763
0.00117569
0.00128442
0.00128427
0.00129497
0.00129481
0.0064452
0.0458269
0.006507
0.0461444
0.00170288
0.00813476
0.00171969
0.00823275
0.186053
0.238154
0.1869
0.239641
0.0465263
0.0884765
0.0469398
0.0892101
0.235302
0.184539
0.236733
0.185356
0.0870941
0.0457983
0.0877981
0.0461972
0.0453176
0.00635787
0.0456231
0.00641704
0.00797306
0.0016719
0.0080679
0.00168865
0.0011661
0.00116423
0.00117001
0.00116812
0.0012626
0.00126245
0.00127331
0.00127315
0.00633839
0.0452688
0.00639735
0.045574
0.00166991
0.00795861
0.00168663
0.00805329
0.184518
0.235403
0.185334
0.236834
0.0457845
0.0871564
0.0461834
0.0878611
0.232652
0.18306
0.234038
0.18385
0.0858276
0.0450848
0.0865069
0.0454696
0.0447832
0.00625645
0.0450767
0.00631262
0.00780339
0.00163913
0.00789465
0.00165572
0.00115882
0.001157
0.0011626
0.00116076
0.00124053
0.00124038
0.00125134
0.00125119
0.00623734
0.0447348
0.00629331
0.0450281
0.00163719
0.00778924
0.00165375
0.00788035
0.183038
0.232751
0.183828
0.234137
0.045071
0.0858885
0.0454558
0.0865686
0.229929
0.18153
0.231396
0.182376
0.0845302
0.0443625
0.0852471
0.0447624
0.0442391
0.00615742
0.0445475
0.00621344
0.00763663
0.00160665
0.00772763
0.00162311
0.00115169
0.00114992
0.00115541
0.00115362
0.00121833
0.00121818
0.00122919
0.00122905
0.00613871
0.0441914
0.0061945
0.0444994
0.00160477
0.0076228
0.0016212
0.00771363
0.181508
0.230025
0.182354
0.231493
0.0443487
0.0845895
0.0447486
0.0853073
0.226241
0.179035
0.228375
0.180607
0.082703
0.0433213
0.0837969
0.0439596
0.0433784
0.00602123
0.0439258
0.00610655
0.00742667
0.0015727
0.00755168
0.00159041
0.00114332
0.00114162
0.00114806
0.00114632
0.00119603
0.0011959
0.00120696
0.00120681
0.00600315
0.0433319
0.00608807
0.0438785
0.00157089
0.00741331
0.00158856
0.00753804
0.179013
0.226333
0.180584
0.228469
0.0433077
0.0827596
0.0439459
0.0838551
0.221252
0.168308
0.223787
0.176181
0.0785394
0.0401121
0.0812141
0.042294
0.0401727
0.00558152
0.0424063
0.00587972
0.00687178
0.00152146
0.00723999
0.0015519
0.00112167
0.00112013
0.00113599
0.00113434
0.00117266
0.00117253
0.00118468
0.00118455
0.00556528
0.04013
0.00586226
0.0423612
0.00151982
0.00685966
0.00155015
0.00722707
0.168284
0.221338
0.176158
0.223877
0.0400985
0.0785905
0.0422804
0.0812684
0.165821
0.122735
0.0413058
0.0358597
0.156872
0.115691
0.0410256
0.0341646
0.0180609
0.00339008
0.00681274
0.00448213
0.0164952
0.00325536
0.00663877
0.0045359
0.00241036
0.0024103
0.00453668
0.0045367
0.00242794
0.00242789
0.00457755
0.00457757
0.00338791
0.0180515
0.00448245
0.00681212
0.00325368
0.0164877
0.00453615
0.00663827
0.122725
0.165855
0.0358591
0.0413085
0.115683
0.156899
0.0341641
0.0410272
0.321869
0.238169
0.261201
0.192499
0.299748
0.221336
0.244531
0.179809
0.0649476
0.010071
0.0436933
0.00547978
0.0577492
0.0086044
0.0390854
0.004902
0.00154752
0.00154456
0.00161622
0.00161565
0.00145981
0.00145758
0.00160275
0.00160231
0.0100457
0.064896
0.00547083
0.0436625
0.00858444
0.0577053
0.00489507
0.0390599
0.238158
0.32199
0.192486
0.261278
0.221324
0.299849
0.179797
0.244595
0.375052
0.279182
0.356784
0.264992
0.347268
0.257894
0.331116
0.2454
0.0856951
0.0158865
0.0783875
0.0137347
0.0756389
0.0132765
0.0694079
0.0115671
0.00184696
0.00183961
0.00168957
0.0016844
0.00164014
0.00163468
0.00153972
0.00153584
0.0158358
0.0856177
0.0136943
0.0783205
0.0132361
0.075572
0.0115349
0.0693502
0.279176
0.375238
0.264984
0.356942
0.257885
0.347425
0.24539
0.33125
0.387579
0.288964
0.383916
0.2861
0.358007
0.266272
0.354933
0.263862
0.0907331
0.0173831
0.0892769
0.0169586
0.0798119
0.0144302
0.0786276
0.0141092
0.00197114
0.00196215
0.00193509
0.0019266
0.00172412
0.00171751
0.00169989
0.00169364
0.0173236
0.0906462
0.0169019
0.0891932
0.0143831
0.0797367
0.0140641
0.0785552
0.288961
0.387793
0.286096
0.38412
0.266264
0.358187
0.263854
0.355105
0.389344
0.290382
0.389096
0.290168
0.359389
0.267409
0.359232
0.267257
0.0914318
0.0175644
0.0913441
0.0175549
0.0803512
0.0145582
0.0802948
0.0145556
0.00198507
0.00197584
0.00198533
0.00197612
0.00173294
0.00172619
0.00173332
0.00172658
0.0175033
0.0913428
0.0174942
0.0912557
0.0145099
0.0802744
0.0145075
0.0802185
0.29038
0.389565
0.290166
0.389315
0.267402
0.359575
0.26725
0.359416
0.389223
0.290363
0.38945
0.290506
0.359243
0.267374
0.359453
0.267502
0.0914341
0.0175656
0.0915055
0.0175879
0.080346
0.0145574
0.0804071
0.0145753
0.00198499
0.00197574
0.00198717
0.00197791
0.00173258
0.00172582
0.0017342
0.00172743
0.0175045
0.0913449
0.0175267
0.0914163
0.014509
0.0802691
0.0145269
0.0803303
0.290361
0.389444
0.290504
0.389671
0.267367
0.359429
0.267495
0.35964
0.388728
0.290077
0.389104
0.290319
0.35878
0.267115
0.359123
0.267329
0.0913107
0.017528
0.0914266
0.0175639
0.0802365
0.014526
0.0803363
0.0145547
0.00198109
0.00197186
0.00198458
0.00197533
0.00172953
0.0017228
0.00173211
0.00172535
0.0174669
0.0912213
0.0175028
0.0913374
0.0144777
0.0801596
0.0145064
0.0802594
0.290074
0.388949
0.290316
0.389325
0.267108
0.358966
0.267323
0.359309
0.38803
0.289653
0.388505
0.28996
0.358135
0.266734
0.358568
0.267007
0.0911259
0.0174737
0.0912698
0.017517
0.0800735
0.0144805
0.080198
0.0145157
0.00197544
0.00196625
0.0019797
0.00197048
0.00172514
0.00171844
0.00172833
0.0017216
0.0174127
0.0910364
0.0174558
0.0911804
0.0144324
0.0799966
0.0144674
0.0801211
0.28965
0.38825
0.289957
0.388726
0.266727
0.35832
0.267
0.358754
0.387191
0.28914
0.38774
0.289493
0.357357
0.266274
0.357859
0.266588
0.0909034
0.0174093
0.0910664
0.0174574
0.0798778
0.0144274
0.0800192
0.0144664
0.00196906
0.00195991
0.00197365
0.00196446
0.00172025
0.00171358
0.00172366
0.00171696
0.0173484
0.0908139
0.0173964
0.0909769
0.0143794
0.0798009
0.0144182
0.0799422
0.289136
0.38741
0.28949
0.387959
0.266266
0.357541
0.266581
0.358044
0.386231
0.288555
0.386843
0.288947
0.356462
0.265749
0.357025
0.266099
0.0906524
0.0173375
0.0908311
0.0173897
0.0796569
0.0143679
0.0798122
0.0144104
0.00196203
0.00195293
0.00196699
0.00195786
0.00171481
0.00170818
0.00171854
0.00171188
0.0172768
0.0905629
0.0173289
0.0907416
0.0143201
0.07958
0.0143625
0.0797353
0.288551
0.38645
0.288944
0.387062
0.265741
0.356646
0.266091
0.35721
0.38515
0.287899
0.385824
0.288329
0.355451
0.265164
0.356073
0.265546
0.0903742
0.0172592
0.090568
0.017315
0.0794121
0.0143028
0.0795808
0.0143485
0.00195458
0.00194554
0.00195976
0.00195068
0.00170904
0.00170245
0.00171295
0.00170633
0.0171987
0.0902848
0.0172544
0.0904785
0.0142551
0.0793352
0.0143007
0.0795039
0.287894
0.385368
0.288325
0.386042
0.265155
0.355634
0.265537
0.356257
0.383951
0.287175
0.384686
0.287642
0.354324
0.264518
0.355006
0.264932
0.0900703
0.0171742
0.0902786
0.017234
0.0791436
0.0142315
0.0793258
0.0142809
0.00194651
0.00193753
0.00195208
0.00194306
0.00170271
0.00169616
0.00170697
0.00170039
0.017114
0.089981
0.0171735
0.0901892
0.014184
0.0790667
0.0142332
0.0792489
0.287171
0.384167
0.287637
0.384903
0.264509
0.354506
0.264923
0.355189
0.382626
0.286391
0.383425
0.286886
0.353069
0.263809
0.353816
0.264255
0.0897405
0.0170824
0.0899634
0.0171461
0.0788493
0.0141539
0.0790462
0.0142069
0.00193796
0.00192906
0.00194379
0.00193484
0.00169599
0.00168949
0.00170046
0.00169392
0.0170225
0.0896514
0.017086
0.0898741
0.0141066
0.0787726
0.0141595
0.0789694
0.286386
0.382841
0.286882
0.38364
0.2638
0.35325
0.264246
0.353998
0.381162
0.285539
0.38203
0.286072
0.351678
0.263034
0.352494
0.263514
0.089382
0.016983
0.0896213
0.0170512
0.0785269
0.0140689
0.0787395
0.0141263
0.0019287
0.00191988
0.00193497
0.00192609
0.00168862
0.00168218
0.00169346
0.00168698
0.0169234
0.089293
0.0169914
0.0895322
0.0140219
0.0784503
0.0140791
0.0786628
0.285533
0.381376
0.286067
0.382245
0.263024
0.351858
0.263505
0.352675
0.379557
0.284614
0.380495
0.28518
0.350134
0.262173
0.351028
0.262699
0.088994
0.0168758
0.0892491
0.0169484
0.0781721
0.0139765
0.0784019
0.0140381
0.00191888
0.00191013
0.00192545
0.00191665
0.00168078
0.0016744
0.00168586
0.00167945
0.0168165
0.0889053
0.0168889
0.0891602
0.0139298
0.0780957
0.0139912
0.0783254
0.284608
0.379769
0.285174
0.380709
0.262163
0.350313
0.262689
0.351208
0.377801
0.283628
0.378819
0.284229
0.348445
0.26122
0.34941
0.26179
0.0885751
0.0167601
0.0888469
0.0168377
0.0777851
0.0138765
0.0780308
0.0139422
0.00190841
0.00189976
0.00191537
0.00190665
0.00167237
0.00166606
0.00167777
0.00167142
0.0167012
0.0884865
0.0167786
0.0887582
0.0138301
0.0777089
0.0138955
0.0779545
0.283621
0.378012
0.284223
0.379031
0.261209
0.348622
0.26178
0.349588
0.375874
0.282547
0.376977
0.283196
0.346603
0.260187
0.347646
0.260797
0.0881202
0.0166355
0.0884104
0.0167181
0.077366
0.0137684
0.0776281
0.0138382
0.00189722
0.00188866
0.00190457
0.00189594
0.00166332
0.00165708
0.00166904
0.00166276
0.016577
0.0880319
0.0166593
0.088322
0.0137223
0.07729
0.0137919
0.077552
0.28254
0.376083
0.283189
0.377187
0.260177
0.34678
0.260786
0.347824
0.373773
0.281371
0.374963
0.282067
0.344596
0.259071
0.345723
0.259723
0.0876277
0.0165015
0.0879369
0.0165889
0.076912
0.0136518
0.0771919
0.0137259
0.00188532
0.00187685
0.00189301
0.00188448
0.00165364
0.00164748
0.00165967
0.00165346
0.0164435
0.0875396
0.0165306
0.0878487
0.013606
0.0768362
0.0136799
0.077116
0.281363
0.373981
0.28206
0.375172
0.25906
0.344771
0.259712
0.345899
0.371494
0.280095
0.372773
0.280841
0.34241
0.257857
0.343626
0.258559
0.0870959
0.016358
0.0874246
0.0164502
0.0764194
0.0135263
0.0767189
0.0136048
0.00187271
0.00186435
0.00188078
0.00187235
0.00164334
0.00163726
0.00164967
0.00164354
0.0163004
0.0870081
0.0163923
0.0873367
0.013481
0.0763439
0.0135593
0.0766432
0.280087
0.3717
0.280833
0.37298
0.257845
0.342584
0.258548
0.343801
0.369037
0.278718
0.370404
0.279514
0.340054
0.256533
0.341354
0.25729
0.0865248
0.0162049
0.086873
0.0163018
0.0758887
0.0133924
0.0762067
0.0134751
0.00185933
0.00185109
0.00186776
0.00185944
0.00163246
0.00162648
0.00163907
0.00163303
0.0161478
0.0864373
0.0162444
0.0867854
0.0133475
0.0758135
0.0134299
0.0761313
0.27871
0.369241
0.279506
0.37061
0.256521
0.340226
0.257278
0.341526
0.3664
0.277243
0.367856
0.278087
0.337531
0.255119
0.338914
0.255918
0.0859148
0.0160423
0.0862822
0.0161439
0.0753223
0.01325
0.075658
0.0133368
0.00184523
0.00183711
0.001854
0.00184581
0.00162102
0.00161513
0.0016279
0.00162195
0.0159857
0.0858276
0.016087
0.0861949
0.0132055
0.0752474
0.0132921
0.0755829
0.277234
0.366602
0.278079
0.368059
0.255106
0.337701
0.255906
0.339085
0.363585
0.275671
0.365129
0.276563
0.334838
0.253615
0.336305
0.25446
0.085266
0.0158702
0.0856525
0.0159764
0.0747196
0.0130993
0.0750732
0.0131902
0.00183045
0.00182245
0.00183955
0.00183147
0.00160902
0.00160323
0.00161617
0.00161032
0.0158142
0.0851792
0.0159201
0.0855655
0.0130554
0.074645
0.0131459
0.0749985
0.275661
0.363785
0.276554
0.36533
0.253602
0.335006
0.254447
0.336474
0.360599
0.274005
0.362227
0.274943
0.331983
0.252022
0.333529
0.25291
0.0845797
0.0156891
0.0849845
0.0157996
0.074082
0.0129408
0.0744525
0.0130354
0.00181502
0.00180716
0.00182442
0.00181647
0.00159649
0.0015908
0.00160389
0.00159814
0.0156337
0.0844933
0.0157439
0.0848979
0.0128974
0.0740079
0.0129917
0.0743782
0.273994
0.360796
0.274932
0.362426
0.252008
0.332149
0.252897
0.333696
0.357451
0.272249
0.359158
0.27323
0.328974
0.250346
0.330595
0.251274
0.0838575
0.0154995
0.0842796
0.0156141
0.073412
0.012775
0.0737982
0.0128731
0.00179902
0.0017913
0.00180868
0.00180087
0.00158349
0.00157792
0.0015911
0.00158545
0.0154448
0.0837715
0.015559
0.0841934
0.0127321
0.0733382
0.0128299
0.0737242
0.272238
0.357645
0.273219
0.359354
0.250332
0.329137
0.25126
0.33076
0.354153
0.270409
0.355932
0.271431
0.325824
0.248593
0.327513
0.249558
0.0831017
0.015302
0.0835399
0.0154203
0.0727118
0.0126026
0.0731124
0.0127038
0.00178252
0.00177494
0.00179239
0.00178473
0.00157011
0.00156464
0.00157788
0.00157235
0.015248
0.0830162
0.0153658
0.0834541
0.0125603
0.0726384
0.0126611
0.0730388
0.270397
0.354345
0.271419
0.356125
0.248578
0.325985
0.249543
0.327675
0.35072
0.268493
0.352563
0.269551
0.32255
0.246771
0.324298
0.247769
0.0823152
0.0150975
0.0827679
0.015219
0.0719844
0.0124244
0.0723978
0.0125282
0.00176557
0.00175815
0.00177563
0.00176812
0.0015564
0.00155105
0.0015643
0.00155888
0.0150441
0.0822302
0.0151652
0.0826826
0.0123827
0.0719115
0.0124862
0.0723247
0.26848
0.350909
0.269539
0.352754
0.246755
0.322708
0.247754
0.324458
0.347174
0.266511
0.34907
0.2676
0.319171
0.24489
0.320967
0.245915
0.0815022
0.014887
0.0819671
0.0150111
0.071234
0.0122415
0.0716579
0.0123474
0.00174829
0.00174102
0.00175847
0.00175111
0.00154245
0.00153723
0.00155044
0.00154514
0.0148344
0.0814177
0.0149581
0.0818823
0.0122005
0.0711616
0.0123059
0.0715853
0.266498
0.34736
0.267587
0.349258
0.244874
0.319327
0.245899
0.321125
0.343539
0.264477
0.345475
0.265589
0.315713
0.242963
0.317545
0.244009
0.0806681
0.014672
0.0811423
0.014798
0.0704656
0.0120553
0.0708974
0.0121624
0.00173082
0.0017237
0.00174105
0.00173384
0.0015284
0.00152329
0.0015364
0.00153122
0.0146202
0.0805841
0.0147457
0.081058
0.0120148
0.0703937
0.0121216
0.0708252
0.264462
0.343723
0.265575
0.34566
0.242946
0.315867
0.243992
0.3177
0.339844
0.262403
0.341805
0.263532
0.312202
0.241004
0.314056
0.242063
0.0798191
0.0144544
0.0802994
0.0145813
0.0696852
0.0118672
0.0701218
0.0119749
0.0017133
0.00170634
0.00172351
0.00171646
0.00151434
0.00150935
0.0015223
0.00151725
0.0144033
0.0797356
0.0145297
0.0802156
0.0118274
0.0696138
0.0119347
0.0700502
0.262388
0.340024
0.263517
0.341987
0.240987
0.312353
0.242046
0.314209
0.336117
0.260308
0.338089
0.261444
0.308667
0.239028
0.310528
0.240093
0.0789617
0.0142358
0.0794448
0.0143627
0.0688989
0.0116787
0.0693372
0.0117862
0.00169588
0.00168908
0.00170599
0.00169909
0.00150039
0.00149552
0.00150826
0.00150333
0.0141855
0.0788787
0.0143119
0.0793616
0.0116396
0.068828
0.0117467
0.0692661
0.260291
0.336294
0.261429
0.338268
0.23901
0.308816
0.240075
0.310678
0.33239
0.258205
0.334357
0.259342
0.305138
0.23705
0.306991
0.238113
0.0781027
0.0140179
0.0785851
0.014144
0.0681132
0.0114916
0.0685499
0.011598
0.00167869
0.00167204
0.00168863
0.00168189
0.00148667
0.00148192
0.00149439
0.00148957
0.0139684
0.0780203
0.014094
0.0785025
0.0114531
0.0680428
0.0115592
0.0684793
0.258188
0.332565
0.259326
0.334533
0.237031
0.305284
0.238094
0.307139
0.328695
0.256114
0.330641
0.257242
0.301646
0.235087
0.303476
0.23614
0.0772494
0.0138028
0.0777275
0.013927
0.0673346
0.0113073
0.0677664
0.0114119
0.00166189
0.00165539
0.00167158
0.001665
0.00147328
0.00146865
0.00148079
0.0014761
0.013754
0.0771676
0.0138778
0.0776454
0.0112695
0.0672648
0.0113737
0.0676963
0.256096
0.328867
0.257225
0.330814
0.235068
0.30179
0.23612
0.303621
0.325066
0.254051
0.326974
0.255162
0.298221
0.233156
0.300013
0.23419
0.0764092
0.0135922
0.0768793
0.0137136
0.06657
0.0111275
0.0669935
0.0112295
0.0016456
0.00163926
0.00165499
0.00164856
0.00146033
0.00145581
0.00146759
0.001463
0.0135442
0.076328
0.0136652
0.0767978
0.0110903
0.0665007
0.0111919
0.066924
0.254033
0.325235
0.255144
0.327144
0.233136
0.298363
0.23417
0.300155
0.321534
0.252034
0.323388
0.25312
0.294893
0.231271
0.296632
0.232279
0.0755894
0.013388
0.0760478
0.0135058
0.0658259
0.0109538
0.0662379
0.0110523
0.00162997
0.00162377
0.00163898
0.0016327
0.00144792
0.00144351
0.00145487
0.0014504
0.0133407
0.0755087
0.0134581
0.0759669
0.0109172
0.0657572
0.0110154
0.0661689
0.252015
0.3217
0.253101
0.323555
0.231251
0.295032
0.232258
0.296772
0.318124
0.250077
0.319914
0.251131
0.291686
0.229447
0.293361
0.230423
0.074796
0.0131918
0.0752401
0.0133052
0.065108
0.0107874
0.0655059
0.010882
0.00161511
0.00160904
0.00162369
0.00161755
0.00143613
0.00143182
0.00144274
0.00143837
0.0131453
0.0747159
0.0132582
0.0751598
0.0107515
0.0650398
0.0108457
0.0654374
0.250058
0.318287
0.251111
0.320078
0.229426
0.291822
0.230402
0.293499
0.314816
0.248162
0.316564
0.249201