/*--------------------------------*- C++ -*----------------------------------*\
  =========                 |
  \\      /  F ield         | OpenFOAM: The Open Source CFD Toolbox
   \\    /   O peration     | Website:  https://openfoam.org
    \\  /    A nd           | Version:  9
     \\/     M anipulation  |
\*---------------------------------------------------------------------------*/
FoamFile
{
    format      ascii;
    class       volScalarField;
    location    "1";
    object      k;
}
// * * * * * * * * * * * * * * * * * * * * * * * * * * * * * * * * * * * * * //

dimensions      [0 2 -2 0 0 0 0];

internalField   nonuniform List<scalar> 
36360
(
0.0404713
0.0317664
0.0133139
0.0126625
0.00809818
0.00528175
0.00419456
0.00354121
0.00684029
0.00235643
0.00379807
0.00282541
0.00258939
0.00221972
0.00302712
0.00301308
0.00198358
0.00198356
0.0028275
0.00282751
0.00219702
0.00219702
0.00301342
0.00301342
0.00235583
0.00683831
0.0028255
0.00379792
0.00221969
0.00258909
0.00301308
0.00302714
0.0317648
0.0404771
0.0126624
0.0133145
0.00528146
0.00809897
0.00354119
0.0041946
0.0739363
0.0574335
0.0609967
0.0471665
0.0194584
0.0124719
0.01476
0.00927745
0.0194678
0.00416974
0.013735
0.00289853
0.00395364
0.00171642
0.00302256
0.00182944
0.00151866
0.00151783
0.00160688
0.00160669
0.00151251
0.00151245
0.00173237
0.00173235
0.00416339
0.019456
0.00289638
0.0137283
0.00171574
0.00395068
0.00182925
0.0030215
0.0574323
0.0739576
0.0471646
0.06101
0.0124704
0.0194649
0.00927646
0.0147636
0.0849874
0.0665109
0.0812631
0.0634287
0.0235142
0.0154551
0.0221623
0.0144214
0.0248902
0.00578501
0.0230257
0.00520114
0.00505083
0.0017382
0.00465885
0.00171848
0.0015662
0.00156428
0.00153692
0.00153551
0.00140114
0.00140101
0.00142786
0.00142775
0.00577204
0.0248724
0.00519079
0.0230104
0.00173673
0.00504538
0.0017173
0.00465436
0.0665113
0.0850208
0.0634284
0.0812914
0.0154532
0.0235252
0.0144195
0.0221714
0.0873923
0.0685264
0.0867166
0.0679563
0.024334
0.0161065
0.0241162
0.0159294
0.0260902
0.00616046
0.0257582
0.00605952
0.00529887
0.00176002
0.00523248
0.00175386
0.00159302
0.00159075
0.00158557
0.0015834
0.00139251
0.00139236
0.00139404
0.0013939
0.00614543
0.0260703
0.00604511
0.025739
0.0017583
0.00529271
0.00175221
0.00522653
0.0685274
0.0874307
0.0679571
0.0867532
0.0161045
0.0243467
0.0159274
0.0241282
0.0876738
0.0687786
0.0876472
0.0687496
0.0244091
0.0161726
0.024409
0.0161709
0.0262328
0.00619617
0.0262207
0.00619673
0.00532272
0.00176154
0.00532279
0.00176186
0.00159538
0.00159307
0.00159552
0.00159322
0.00139182
0.00139167
0.0013918
0.00139165
0.00618086
0.0262125
0.00618145
0.0262005
0.00175979
0.00531648
0.00176011
0.00531656
0.0687798
0.0877134
0.0687508
0.0876864
0.0161707
0.0244221
0.0161689
0.0244219
0.0876458
0.0687658
0.0876857
0.0687951
0.0243931
0.0161604
0.0244102
0.0161747
0.0262308
0.00619392
0.0262472
0.00620013
0.0053206
0.00176047
0.00532507
0.0017614
0.00159479
0.00159249
0.00159549
0.00159318
0.00139115
0.001391
0.00139157
0.00139142
0.0061786
0.0262105
0.0061848
0.0262269
0.00175873
0.00531437
0.00175965
0.00531882
0.0687671
0.0876855
0.0687964
0.0877254
0.0161585
0.0244062
0.0161727
0.0244233
0.0875566
0.068703
0.0876212
0.0687514
0.0243581
0.0161293
0.0243834
0.0161515
0.0261979
0.00618189
0.0262258
0.00619181
0.00531094
0.00175813
0.00531848
0.00175961
0.00159332
0.00159102
0.00159439
0.00159209
0.00139004
0.00138989
0.00139051
0.00139036
0.0061666
0.0261776
0.0061765
0.0262055
0.00175639
0.00530472
0.00175786
0.00531225
0.0687042
0.0875963
0.0687527
0.0876609
0.0161274
0.0243712
0.0161495
0.0243965
0.0874345
0.0686159
0.0875158
0.0686762
0.0243141
0.0160906
0.0243442
0.0161166
0.0261496
0.00616466
0.0261849
0.00617715
0.00529758
0.0017553
0.00530695
0.00175702
0.00159134
0.00158905
0.00159267
0.00159038
0.0013889
0.00138875
0.00138941
0.00138925
0.00614942
0.0261292
0.00616187
0.0261646
0.00175357
0.00529138
0.00175529
0.00530073
0.0686171
0.087474
0.0686775
0.0875554
0.0160886
0.0243271
0.0161147
0.0243572
0.0872867
0.0685128
0.087382
0.0685818
0.0242633
0.0160472
0.0242974
0.0160758
0.0260916
0.00614476
0.0261321
0.00615864
0.00528202
0.00175214
0.00529261
0.00175403
0.00158925
0.00158697
0.00159064
0.00158836
0.00138756
0.00138741
0.00138817
0.00138802
0.00612956
0.0260713
0.00614341
0.0261118
0.00175042
0.00527583
0.00175231
0.00528641
0.0685139
0.0873261
0.0685829
0.0874215
0.0160453
0.0242763
0.0160738
0.0243104
0.0871158
0.0683963
0.0872236
0.0684727
0.0242062
0.0160003
0.024244
0.0160309
0.0260261
0.00612225
0.0260709
0.00613768
0.00526461
0.00174851
0.00527627
0.00175065
0.0015868
0.00158454
0.00158839
0.00158612
0.00138599
0.00138584
0.00138672
0.00138657
0.0061071
0.0260058
0.0061225
0.0260506
0.0017468
0.00525842
0.00174893
0.00527008
0.0683973
0.087155
0.0684738
0.087263
0.0159983
0.0242192
0.0160289
0.024257
0.0869214
0.0682661
0.0870411
0.06835
0.0241426
0.0159485
0.0241838
0.0159817
0.0259532
0.00609778
0.0260022
0.00611433
0.0052453
0.00174453
0.00525801
0.00174685
0.00158428
0.00158203
0.00158591
0.00158365
0.00138418
0.00138403
0.00138503
0.00138488
0.00608266
0.0259328
0.00609919
0.0259818
0.00174282
0.00523911
0.00174514
0.00525182
0.068267
0.0869605
0.068351
0.0870802
0.0159465
0.0241555
0.0159797
0.0241967
0.0867036
0.0681223
0.0868353
0.0682136
0.0240721
0.0158922
0.024117
0.015928
0.0258727
0.00607062
0.025926
0.00608878
0.00522404
0.00174
0.00523783
0.00174261
0.0015814
0.00157916
0.00158322
0.00158098
0.00138207
0.00138192
0.00138307
0.00138292
0.00605556
0.0258523
0.00607368
0.0259057
0.0017383
0.00521786
0.0017409
0.00523164
0.0681231
0.0867425
0.0682145
0.0868742
0.0158901
0.0240849
0.0159259
0.0241298
0.0864601
0.0679632
0.0866047
0.0680624
0.023994
0.0158302
0.0240428
0.015869
0.0257838
0.00604117
0.0258419
0.00606065
0.0052006
0.00173502
0.00521556
0.00173787
0.00157839
0.00157618
0.00158028
0.00157805
0.00137966
0.00137951
0.00138081
0.00138066
0.00602618
0.0257635
0.0060456
0.0258215
0.00173334
0.00519443
0.00173617
0.00520938
0.0679638
0.0864987
0.0680631
0.0866435
0.0158281
0.0240067
0.0158669
0.0240555
0.0861892
0.0677877
0.0863475
0.067895
0.0239076
0.0157622
0.0239606
0.015804
0.0256862
0.0060089
0.0257489
0.00602991
0.00517486
0.00172946
0.005191
0.00173261
0.00157509
0.0015729
0.00157715
0.00157494
0.00137691
0.00137676
0.00137823
0.00137809
0.00599399
0.0256659
0.00601495
0.0257285
0.00172778
0.00516872
0.00173092
0.00518484
0.0677883
0.0862277
0.0678957
0.0863861
0.0157601
0.0239202
0.0158019
0.0239732
0.085889
0.0675945
0.0860621
0.0677108
0.0238125
0.0156883
0.0238699
0.015733
0.0255791
0.00597367
0.0256467
0.00599621
0.00514672
0.00172327
0.0051641
0.00172673
0.00157148
0.00156931
0.00157369
0.0015715
0.00137378
0.00137364
0.00137529
0.00137515
0.00595886
0.0255588
0.00598133
0.0256264
0.00172161
0.00514061
0.00172506
0.00515797
0.067595
0.0859273
0.0677114
0.0861005
0.0156862
0.023825
0.0157309
0.0238825
0.0855586
0.067383
0.0857468
0.0675084
0.0237082
0.0156082
0.0237703
0.0156562
0.0254622
0.00593535
0.0255347
0.00595948
0.00511604
0.00171643
0.00513473
0.00172023
0.00156755
0.0015654
0.00156993
0.00156776
0.00137024
0.0013701
0.00137196
0.00137182
0.00592063
0.025442
0.0059447
0.0255145
0.00171479
0.00510996
0.00171857
0.00512863
0.0673834
0.0855966
0.0675089
0.0857849
0.0156061
0.0237207
0.0156541
0.0237828
0.0851968
0.0671525
0.0854006
0.0672873
0.0235943
0.015521
0.0236613
0.0155726
0.0253351
0.00589379
0.0254128
0.00591956
0.0050827
0.00170889
0.00510274
0.00171304
0.00156329
0.00156116
0.00156583
0.00156369
0.00136626
0.00136612
0.0013682
0.00136806
0.00587918
0.0253149
0.00590489
0.0253925
0.00170726
0.00507665
0.0017114
0.00509667
0.0671527
0.0852345
0.0672877
0.0854386
0.0155188
0.0236067
0.0155705
0.0236737
0.0848025
0.0669021
0.0850225
0.0670469
0.0234705
0.0154264
0.0235425
0.0154817
0.0251973
0.00584885
0.0252803
0.00587633
0.0050466
0.00170061
0.00506804
0.00170513
0.00155868
0.00155659
0.00156139
0.00155928
0.0013618
0.00136166
0.00136398
0.00136384
0.00583437
0.0251771
0.00586177
0.0252601
0.001699
0.0050406
0.00170351
0.005062
0.0669023
0.08484
0.0670471
0.0850601
0.0154242
0.0234828
0.0154795
0.0235548
0.084375
0.0666319
0.0846114
0.0667862
0.0233362
0.0153243
0.0234135
0.0153833
0.0250484
0.00580041
0.025137
0.00582965
0.00500768
0.00169155
0.00503053
0.00169646
0.00155374
0.00155167
0.00155662
0.00155453
0.00135683
0.0013567
0.00135927
0.00135913
0.00578605
0.0250283
0.00581522
0.0251168
0.00168996
0.00500171
0.00169486
0.00502454
0.066632
0.0844123
0.0667863
0.0846488
0.0153221
0.0233484
0.0153811
0.0234257
0.0839126
0.0663427
0.0841668
0.0665066
0.0231911
0.0152152
0.0232738
0.0152777
0.0248879
0.00574833
0.0249824
0.00577939
0.0049659
0.00168168
0.00499017
0.00168699
0.00154843
0.0015464
0.00155149
0.00154943
0.00135132
0.00135119
0.00135404
0.0013539
0.00573412
0.0248678
0.0057651
0.0249623
0.00168011
0.00495998
0.00168541
0.00498422
0.0663426
0.0839495
0.0665065
0.0842038
0.015213
0.0232031
0.0152754
0.0232859
0.0834129
0.0660308
0.0836855
0.0662063
0.023035
0.0151001
0.0231232
0.0151653
0.0247145
0.00569254
0.0248155
0.00572544
0.00492128
0.00167097
0.00494695
0.0016767
0.00154278
0.00154078
0.001546
0.00154398
0.00134524
0.00134511
0.00134824
0.00134811
0.00567848
0.0246945
0.00571128
0.0247954
0.00166942
0.00491541
0.00167514
0.00494105
0.0660306
0.0834495
0.0662061
0.0837222
0.0150979
0.0230469
0.0151631
0.0231352
0.0828762
0.0656934
0.083167
0.0658819
0.0228682
0.0149809
0.0229617
0.0150478
0.0245277
0.00563314
0.0246354
0.00566778
0.00487391
0.0016594
0.00490092
0.00166556
0.00153679
0.00153483
0.00154017
0.00153818
0.00133857
0.00133844
0.00134186
0.00134173
0.00561924
0.0245077
0.00565378
0.0246153
0.00165788
0.00486809
0.00166402
0.00489507
0.065693
0.0829125
0.0658816
0.0832034
0.0149786
0.02288
0.0150455
0.0229735
0.0823045
0.0653254
0.0826121
0.0655297
0.0226913
0.0148603
0.0227897
0.0149274
0.024328
0.00557049
0.0244417
0.00560666
0.00482386
0.00164698
0.00485218
0.00165356
0.00153049
0.00152856
0.00153401
0.00153206
0.00133127
0.00133115
0.00133488
0.00133475
0.00555677
0.024308
0.00559283
0.0244218
0.00164549
0.00481809
0.00165205
0.00484639
0.0653248
0.0823403
0.0655292
0.0826481
0.0148579
0.022703
0.0149251
0.0228015
0.0817017
0.064935
0.0820241
0.0651485
0.0225048
0.014735
0.0226079
0.014805
0.0241178
0.00550498
0.0242365
0.0055425
0.00477109
0.00163371
0.00480074
0.0016407
0.00152389
0.00152201
0.00152754
0.00152563
0.00132335
0.00132322
0.00132727
0.00132714
0.00549144
0.024098
0.00552885
0.0242166
0.00163224
0.00476538
0.00163922
0.004795
0.0649343
0.0817371
0.0651479
0.0820598
0.0147326
0.0225163
0.0148027
0.0226195
0.0810698
0.064527
0.0814062
0.064749
0.0223091
0.0146035
0.0224167
0.0146766
0.0238981
0.00543687
0.0240214
0.00547559
0.00471576
0.00161959
0.00474664
0.00162699
0.00151703
0.00151519
0.0015208
0.00151893
0.00131478
0.00131465
0.00131901
0.00131889
0.00542352
0.0238784
0.00546214
0.0240016
0.00161815
0.00471011
0.00162554
0.00474096
0.0645261
0.0811048
0.0647482
0.0814414
0.0146011
0.0223205
0.0146742
0.0224281
0.0804119
0.0641023
0.0807606
0.0643322
0.0221054
0.0144664
0.0222168
0.0145422
0.0236697
0.00536651
0.023797
0.00540625
0.00465807
0.00160466
0.00469007
0.00161246
0.00150994
0.00150813
0.00151381
0.00151198
0.00130556
0.00130544
0.00131012
0.00131
0.00535336
0.02365
0.00539299
0.0237773
0.00160325
0.00465248
0.00161103
0.00468445
0.0641012
0.0804464
0.0643312
0.0807954
0.014464
0.0221166
0.0145398
0.0222281
0.0797317
0.0636632
0.0800907
0.0638997
0.0218947
0.0143243
0.0220093
0.0144024
0.0234339
0.00529436
0.0235646
0.00533488
0.00459833
0.00158896
0.00463128
0.00159713
0.00150264
0.00150088
0.00150659
0.00150481
0.00129571
0.00129559
0.00130058
0.00130046
0.00528142
0.0234143
0.00532182
0.023545
0.00158758
0.00459281
0.00159573
0.00462572
0.0636619
0.0797658
0.0638985
0.080125
0.0143218
0.0219057
0.0144
0.0220204
0.0790341
0.0632127
0.0794009
0.0634542
0.0216785
0.0141782
0.0217956
0.0142581
0.0231923
0.00522097
0.0233255
0.00526197
0.00453692
0.00157255
0.00457062
0.00158105
0.00149521
0.00149349
0.00149921
0.00149746
0.00128523
0.00128511
0.00129041
0.00129029
0.00520825
0.0231728
0.00524913
0.023306
0.0015712
0.00453147
0.00157969
0.00456513
0.0632112
0.0790677
0.0634528
0.0794347
0.0141757
0.0216893
0.0142557
0.0218066
0.0783246
0.0627541
0.0786963
0.0629989
0.0214586
0.014029
0.0215773
0.0141103
0.0229468
0.00514693
0.0230816
0.00518812
0.00447425
0.0015555
0.00450849
0.0015643
0.00148767
0.00148599
0.0014917
0.00149
0.00127414
0.00127403
0.00127962
0.00127951
0.00513442
0.0229275
0.00517548
0.0230622
0.00155417
0.00446887
0.00156297
0.00450307
0.0627524
0.0783576
0.0629973
0.0787296
0.0140266
0.0214692
0.0141078
0.021588
0.0776088
0.0622911
0.0779825
0.0625373
0.0212366
0.0138781
0.021356
0.0139601
0.0226995
0.00507287
0.0228348
0.00511391
0.00441077
0.00153788
0.00444531
0.00154695
0.00148008
0.00147845
0.00148412
0.00148246
0.00126249
0.00126238
0.00126825
0.00126813
0.00506057
0.0226802
0.0051015
0.0228155
0.00153659
0.00440547
0.00154564
0.00443997
0.0622892
0.0776414
0.0625355
0.0780153
0.0138756
0.0212471
0.0139576
0.0213666
0.076893
0.0618276
0.0772656
0.0620733
0.0210147
0.0137265
0.0211338
0.0138086
0.0224524
0.00499941
0.0225872
0.00504
0.00434696
0.00151979
0.00438157
0.00152908
0.00147251
0.00147092
0.00147652
0.0014749
0.00125031
0.0012502
0.00125632
0.00125621
0.00498733
0.0224333
0.0050278
0.022568
0.00151853
0.00434173
0.0015278
0.0043763
0.0618255
0.0769251
0.0620713
0.0772979
0.013724
0.021025
0.013806
0.0211442
0.0761835
0.0613676
0.0765519
0.0616107
0.0207947
0.0135756
0.0209125
0.0136571
0.0222077
0.00492721
0.0223408
0.00496702
0.00428331
0.00150133
0.00431774
0.00151078
0.001465
0.00146345
0.00146895
0.00146738
0.00123764
0.00123754
0.00124389
0.00124378
0.00491534
0.0221887
0.00495504
0.0223217
0.0015001
0.00427815
0.00150953
0.00431254
0.0613653
0.0762151
0.0616086
0.0765837
0.013573
0.0208048
0.0136545
0.0209227
0.0754865
0.0609151
0.0758475
0.0611537
0.0205786
0.0134266
0.0206941
0.0135069
0.0219677
0.00485689
0.022098
0.00489561
0.00422032
0.00148259
0.00425431
0.00149215
0.00145759
0.00145608
0.00146148
0.00145994
0.00122455
0.00122445
0.001231
0.0012309
0.00484524
0.0219488
0.00488384
0.0220791
0.00148138
0.00421523
0.00149093
0.00424919
0.0609127
0.0755176
0.0611514
0.0758788
0.013424
0.0205885
0.0135043
0.0207041
0.0748075
0.0604741
0.0751585
0.0607062
0.0203682
0.0132807
0.0204806
0.0133593
0.0217344
0.00478905
0.0218609
0.00482639
0.00415846
0.00146367
0.00419179
0.0014733
0.00145035
0.00144888
0.00145414
0.00145264
0.00121109
0.00121099
0.00121771
0.00121761
0.0047776
0.0217156
0.00481483
0.0218421
0.00146249
0.00415344
0.00147211
0.00418674
0.0604714
0.0748382
0.0607037
0.0751894
0.0132781
0.020378
0.0133567
0.0204904
0.0741507
0.0600476
0.0744901
0.0602718
0.0201652
0.0131392
0.0202737
0.0132154
0.0215097
0.00472423
0.0216316
0.00475993
0.00409819
0.00144468
0.00413063
0.00145433
0.00144331
0.00144187
0.00144698
0.00144552
0.00119733
0.00119723
0.00120409
0.00120399
0.00471297
0.021491
0.00474856
0.0216128
0.00144353
0.00409324
0.00145317
0.00412565
0.0600448
0.0741808
0.0602691
0.0745204
0.0131366
0.0201748
0.0132128
0.0202834
0.0735097
0.0596333
0.0738432
0.0598524
0.0199692
0.0130024
0.0200744
0.0130763
0.0212938
0.00466273
0.0214115
0.00469671
0.00403982
0.00142573
0.00407126
0.00143534
0.00143652
0.00143512
0.00144005
0.00143863
0.00118333
0.00118323
0.0011902
0.0011901
0.00465166
0.0212752
0.00468554
0.0213928
0.00142461
0.00403494
0.0014342
0.00406635
0.0596303
0.0735394
0.0598495
0.073873
0.0129998
0.0199787
0.0130736
0.020084
0.0728174
0.0591849
0.0731933
0.0594334
0.0197674
0.0128631
0.019879
0.0129403
0.0210691
0.00460224
0.0211962
0.00463642
0.00398203
0.00140682
0.00401361
0.00141642
0.00142991
0.00142855
0.00143338
0.00143199
0.00116916
0.00116907
0.0011761
0.00117601
0.00459138
0.0210507
0.00462544
0.0211777
0.00140572
0.00397723
0.0014153
0.00400877
0.0591817
0.0728464
0.0594303
0.0732226
0.0128605
0.0197767
0.0129377
0.0198884
0.0717634
0.0583997
0.0723836
0.0588908
0.0194813
0.0126609
0.0196528
0.012785
0.0206962
0.0045174
0.0209325
0.00457053
0.00390863
0.00138691
0.00395241
0.00139731
0.00142228
0.00142096
0.0014266
0.00142525
0.00115485
0.00115476
0.00116187
0.00116178
0.00450688
0.0206783
0.0045598
0.0209143
0.00138584
0.00390394
0.00139623
0.00394765
0.0583963
0.0717911
0.0588876
0.0724121
0.0126583
0.0194902
0.0127824
0.0196619
0.0698837
0.0554789
0.0709448
0.0575298
0.0188216
0.0120273
0.0192466
0.0124598
0.0194308
0.00425711
0.0202856
0.00443088
0.00371119
0.00135656
0.00384276
0.00137463
0.00140406
0.00140286
0.00141587
0.00141459
0.00113974
0.00113966
0.00114752
0.00114744
0.00424752
0.0194139
0.00442069
0.0202681
0.00135558
0.00370683
0.00137359
0.00383819
0.0554746
0.0699096
0.0575262
0.0709716
0.0120246
0.0188298
0.0124571
0.0192552
0.0524576
0.0408176
0.0157543
0.0138226
0.0494265
0.0383934
0.0154258
0.0132364
0.00935717
0.00268899
0.00396807
0.00278694
0.00860165
0.00259142
0.00390651
0.00281277
0.00198753
0.00198748
0.00283026
0.0028303
0.00199353
0.00199348
0.00284599
0.00284602
0.00268759
0.00935311
0.00278719
0.00396778
0.00259031
0.00859837
0.00281297
0.00390628
0.0408151
0.0524684
0.0138218
0.015756
0.0383911
0.0494353
0.0132358
0.015427
0.0980134
0.0767395
0.0801984
0.0624078
0.0909
0.07105
0.0747959
0.0581136
0.029628
0.00693264
0.0207448
0.0040675
0.0265243
0.00604843
0.0186718
0.00369853
0.00173241
0.00173045
0.00165898
0.00165841
0.00166442
0.00166279
0.00164103
0.00164065
0.00691881
0.0296094
0.00406239
0.0207328
0.00603739
0.0265083
0.00369453
0.0186618
0.0767405
0.0980491
0.0624063
0.0802215
0.07105
0.0909299
0.0581119
0.0748151
0.114054
0.0899263
0.108461
0.0853057
0.10511
0.0827122
0.10021
0.0786741
0.0381969
0.0103371
0.0351796
0.00908792
0.0339578
0.00881801
0.0313692
0.00781247
0.00203981
0.0020345
0.00189633
0.00189238
0.001871
0.00186702
0.00176828
0.00176537
0.0103106
0.0381705
0.00906649
0.0351563
0.00879655
0.0339346
0.00779516
0.0313489
0.0899317
0.114109
0.0853092
0.108508
0.0827154
0.105157
0.0786759
0.10025
0.118007
0.0931918
0.116825
0.0922186
0.108472
0.0854885
0.107486
0.0846755
0.0402951
0.0112017
0.0396826
0.010956
0.0357069
0.00949418
0.0352056
0.0093057
0.00214478
0.00213831
0.00211492
0.00210881
0.00194404
0.00193924
0.00192353
0.00191897
0.0111708
0.0402656
0.0109266
0.0396542
0.00946928
0.035681
0.00928188
0.0351807
0.093199
0.11807
0.0922252
0.116885
0.0854931
0.108525
0.0846796
0.107537
0.118609
0.093689
0.118503
0.0936026
0.108945
0.0858842
0.108872
0.0858225
0.0405945
0.0113076
0.0405516
0.0113007
0.0359396
0.00957041
0.0359111
0.00956751
0.00215635
0.00214972
0.00215636
0.00214975
0.00195152
0.00194661
0.0019517
0.00194679
0.011276
0.0405643
0.0112692
0.0405217
0.00954495
0.0359132
0.00954214
0.0358849
0.0936967
0.118674
0.0936102
0.118568
0.085889
0.108999
0.0858273
0.108926
0.118599
0.0936928
0.11865
0.0937307
0.108924
0.0858803
0.108972
0.0859149
0.0405989
0.0113089
0.0406242
0.0113206
0.03594
0.00956989
0.0359623
0.00957955
0.00215614
0.0021495
0.00215786
0.00215121
0.00195109
0.00194617
0.00195241
0.00194749
0.0112771
0.0405687
0.0112888
0.0405941
0.00954439
0.0359136
0.00955405
0.0359358
0.0937004
0.118664
0.0937384
0.118716
0.0858852
0.108979
0.0859198
0.109027
0.11848
0.0936113
0.11857
0.093678
0.108814
0.0858056
0.108896
0.0858653
0.0405516
0.0112878
0.0405941
0.0113071
0.0358974
0.00955185
0.0359347
0.00956776
0.00215295
0.00214632
0.00215572
0.00214908
0.00194855
0.00194364
0.00195064
0.00194573
0.0112561
0.0405213
0.0112754
0.040564
0.00952638
0.0358709
0.00954227
0.0359083
0.0936189
0.118545
0.0936857
0.118635
0.0858104
0.108869
0.0858702
0.108951
0.118311
0.093492
0.118425
0.0935764
0.10866
0.085698
0.108763
0.0857733
0.0404812
0.0112572
0.0405343
0.0112809
0.0358345
0.00952583
0.0358813
0.00954545
0.00214835
0.00214175
0.00215178
0.00214515
0.00194491
0.00194003
0.00194754
0.00194264
0.0112256
0.0404509
0.0112491
0.0405041
0.0095004
0.035808
0.00951999
0.0358548
0.0934995
0.118377
0.0935839
0.11849
0.0857027
0.108714
0.0857781
0.108818
0.11811
0.0933501
0.118241
0.093446
0.108475
0.08557
0.108594
0.085656
0.0403976
0.0112217
0.0404575
0.0112478
0.0357599
0.00949583
0.0358128
0.00951747
0.00214328
0.0021367
0.00214692
0.00214032
0.00194095
0.00193609
0.00194372
0.00193885
0.01119
0.0403672
0.0112161
0.0404272
0.00947046
0.0357334
0.00949206
0.0357863
0.0933573
0.118175
0.0934534
0.118306
0.0855746
0.10853
0.0856607
0.108649
0.117882
0.0931899
0.118027
0.0932958
0.108264
0.0854254
0.108398
0.0855206
0.0403039
0.0111822
0.0403693
0.0112105
0.0356762
0.0094624
0.0357341
0.00948601
0.00213766
0.00213111
0.00214162
0.00213506
0.00193652
0.00193169
0.00193958
0.00193474
0.0111506
0.0402735
0.0111789
0.040339
0.0094371
0.0356497
0.00946067
0.0357076
0.0931971
0.117947
0.0933031
0.118092
0.0854299
0.108319
0.0855252
0.108452
0.117627
0.0930116
0.117786
0.0931273
0.108027
0.085265
0.108174
0.0853687
0.0402006
0.0111394
0.0402713
0.0111696
0.0355838
0.00942607
0.0356466
0.00945132
0.00213179
0.00212529
0.00213588
0.00212935
0.00193191
0.0019271
0.00193507
0.00193024
0.011108
0.0401702
0.011138
0.040241
0.00940082
0.0355572
0.00942603
0.0356201
0.0930186
0.117691
0.0931345
0.117851
0.0852694
0.108081
0.0853732
0.108228
0.117345
0.0928157
0.117518
0.092941
0.107764
0.0850886
0.107925
0.085201
0.0400879
0.011093
0.040164
0.0111253
0.0354826
0.00938631
0.0355504
0.00941362
0.00212539
0.00211892
0.00212982
0.00212332
0.0019268
0.00192203
0.00193027
0.00192547
0.0110617
0.0400575
0.0110939
0.0401336
0.00936114
0.035456
0.0093884
0.0355239
0.0928226
0.117409
0.092948
0.117582
0.0850928
0.107818
0.0852053
0.107979
0.117034
0.092603
0.117222
0.0927367
0.107473
0.0848953
0.107648
0.0850166
0.0399656
0.011043
0.0400471
0.0110774
0.0353719
0.00934322
0.0354451
0.00937246
0.00211868
0.00211227
0.00212327
0.00211682
0.00192145
0.00191671
0.00192505
0.00192028
0.0110118
0.0399352
0.0110461
0.0400167
0.00931815
0.0353453
0.00934732
0.0354186
0.0926097
0.117098
0.0927436
0.117286
0.0848994
0.107526
0.0850207
0.107701
0.116692
0.0923718
0.116896
0.0925158
0.107151
0.084684
0.107341
0.0848145
0.0398326
0.0109889
0.0399201
0.0110257
0.0352507
0.0092961
0.0353298
0.00932774
0.00211138
0.00210501
0.00211634
0.00210994
0.00191556
0.00191086
0.00191948
0.00191475
0.0109578
0.0398022
0.0109945
0.0398898
0.00927115
0.0352241
0.00930271
0.0353032
0.0923784
0.116756
0.0925225
0.116959
0.0846879
0.107204
0.0848185
0.107394
0.116318
0.0921208
0.116537
0.0922738
0.106794
0.0844508
0.107001
0.0845927
0.0396885
0.0109305
0.039782
0.0109698
0.0351178
0.00924502
0.0352033
0.00927895
0.00210368
0.00209737
0.00210886
0.00210251
0.00190934
0.00190468
0.00191343
0.00190874
0.0108996
0.0396582
0.0109387
0.0397517
0.00922019
0.0350912
0.00925404
0.0351768
0.0921272
0.116381
0.0922803
0.116601
0.0844546
0.106847
0.0845966
0.107054
0.11591
0.091852
0.116147
0.0920146
0.106404
0.0841939
0.106627
0.0843472
0.0395328
0.0108677
0.0396328
0.0109096
0.034973
0.00918973
0.0350645
0.00922603
0.00209552
0.00208927
0.00210099
0.00209469
0.00190269
0.00189807
0.00190703
0.00190239
0.0108369
0.0395025
0.0108787
0.0396025
0.00916504
0.0349465
0.00920125
0.035038
0.0918582
0.115973
0.092021
0.11621
0.0841976
0.106456
0.084351
0.10668
0.115463
0.0915583
0.115719
0.0917333
0.105978
0.0839153
0.10622
0.0840792
0.0393639
0.0108
0.0394708
0.0108447
0.034816
0.00912998
0.0349137
0.00916858
0.00208678
0.00208059
0.00209258
0.00208635
0.00189552
0.00189095
0.00190012
0.00189553
0.0107693
0.0393336
0.0108139
0.0394405
0.00910544
0.0347895
0.00914395
0.0348872
0.0915644
0.115525
0.0917395
0.115781
0.0839187
0.106031
0.0840828
0.106272
0.114975
0.091239
0.115251
0.0914266
0.105515
0.0836135
0.105775
0.083789
0.0391812
0.0107271
0.0392949
0.0107746
0.034646
0.00906552
0.0347502
0.00910651
0.00207747
0.00207135
0.00208356
0.00207739
0.00188784
0.00188333
0.0018927
0.00188815
0.0106967
0.0391509
0.010744
0.0392647
0.00904115
0.0346195
0.00908203
0.0347238
0.0912448
0.115038
0.0914326
0.115313
0.0836168
0.105567
0.0837924
0.105828
0.114447
0.090893
0.114743
0.0910936
0.10501
0.083286
0.105291
0.0834744
0.0389838
0.0106492
0.0391047
0.0106992
0.0344616
0.00899621
0.034573
0.00903962
0.00206762
0.00206156
0.00207399
0.00206789
0.00187968
0.00187522
0.00188477
0.00188028
0.0106189
0.0389536
0.0106689
0.0390745
0.00897201
0.0344352
0.00901531
0.0345466
0.0908986
0.114509
0.0910994
0.114805
0.0832891
0.105062
0.0834777
0.105343
0.113877
0.0905198
0.114193
0.0907337
0.104466
0.0829291
0.104766
0.083132
0.0387719
0.0105659
0.0389
0.0106186
0.0342628
0.00892211
0.0343812
0.00896787
0.00205716
0.00205119
0.00206382
0.00205779
0.00187106
0.00186666
0.00187637
0.00187194
0.0105359
0.0387417
0.0105884
0.0388698
0.0088981
0.0342364
0.00894375
0.0343549
0.0905252
0.113938
0.0907393
0.114255
0.082932
0.104517
0.0831351
0.104817
0.113265
0.0901198
0.113602
0.0903467
0.103881
0.0825472
0.104201
0.0827618
0.0385452
0.0104775
0.0386805
0.0105327
0.0340502
0.00884325
0.0341754
0.00889136
0.00204616
0.00204026
0.00205308
0.00204713
0.00186198
0.00185764
0.00186751
0.00186314
0.0104477
0.0385151
0.0105028
0.0386503
0.00881944
0.0340238
0.00886743
0.0341491
0.0901249
0.113326
0.090352
0.113663
0.0825499
0.103932
0.0827647
0.104252
0.112611
0.0896929
0.112968
0.0899328
0.103257
0.08214
0.103596
0.0823672
0.0383039
0.0103838
0.0384463
0.0104415
0.0338235
0.00875968
0.0339556
0.00881009
0.00203462
0.0020288
0.0020418
0.00203593
0.00185245
0.00184818
0.0018582
0.00185389
0.0103542
0.0382737
0.0104118
0.0384162
0.0087361
0.0337972
0.00878637
0.0339293
0.0896978
0.112671
0.0899379
0.113029
0.0821425
0.103307
0.0823698
0.103647
0.111917
0.0892399
0.112293
0.0894924
0.102594
0.0817076
0.102952
0.0819469
0.0380481
0.010285
0.0381974
0.0103452
0.0335832
0.00867161
0.0337219
0.00872418
0.00202257
0.00201685
0.00202999
0.00202421
0.0018425
0.0018383
0.00184845
0.00184421
0.0102557
0.0380181
0.0103158
0.0381674
0.00864826
0.033557
0.00870069
0.0336956
0.0892445
0.111976
0.0894971
0.112353
0.0817099
0.102643
0.0819494
0.103002
0.111183
0.0887619
0.111578
0.0890263
0.101893
0.0812517
0.102269
0.0815022
0.0377785
0.0101814
0.0379345
0.0102439
0.0333301
0.00857934
0.0334749
0.0086339
0.00201008
0.00200444
0.00201769
0.002012
0.00183218
0.00182805
0.00183829
0.00183412
0.0101524
0.0377485
0.0102148
0.0379045
0.00855624
0.0333039
0.00861066
0.0334487
0.0887661
0.111242
0.0890308
0.111638
0.0812537
0.101942
0.0815043
0.102319
0.110412
0.08826
0.110825
0.0885356
0.101158
0.0807739
0.101551
0.0810347
0.0374958
0.0100734
0.037658
0.010138
0.033065
0.00848322
0.0332155
0.00853958
0.00199718
0.00199164
0.00200497
0.00199938
0.00182154
0.00181749
0.00182779
0.00182369
0.0100447
0.0374659
0.0101091
0.037628
0.00846037
0.0330389
0.00851659
0.0331894
0.088264
0.110471
0.0885398
0.110884
0.0807756
0.101207
0.0810366
0.1016
0.109609
0.0877364
0.110037
0.0880222
0.100393
0.080276
0.100799
0.0805462
0.0372011
0.00996128
0.0373688
0.0100277
0.032789
0.00838364
0.0329446
0.00844159
0.00198392
0.00197849
0.00199187
0.00198637
0.00181063
0.00180666
0.00181699
0.00181297
0.00993288
0.0371712
0.00999917
0.037339
0.00836107
0.032763
0.00841886
0.0329186
0.08774
0.109666
0.088026
0.110095
0.0802775
0.100441
0.0805479
0.100848
0.108776
0.0871935
0.109218
0.0874881
0.0996001
0.0797609
0.100019
0.0800389
0.0368956
0.00984564
0.0370683
0.00991366
0.0325035
0.00828118
0.0326634
0.0083404
0.0019704
0.00196506
0.00197845
0.00197305
0.00179953
0.00179563
0.00180596
0.00180202
0.00981757
0.0368658
0.00988541
0.0370385
0.00825889
0.0324776
0.00831795
0.0326375
0.0871968
0.108833
0.0874916
0.109275
0.079762
0.0996474
0.0800403
0.100067
0.10792
0.0866348
0.108373
0.0869363
0.0987864
0.0792317
0.099215
0.0795159
0.0365815
0.00972732
0.0367579
0.00979645
0.0322104
0.0081766
0.0323736
0.00823668
0.0019567
0.00195148
0.0019648
0.00195951
0.00178832
0.00178451
0.00179477
0.00179091
0.00969957
0.0365518
0.00976852
0.0367282
0.00815461
0.0321845
0.00821452
0.0323478
0.0866378
0.107976
0.0869395
0.108429
0.0792325
0.0988331
0.079517
0.099262
0.107047
0.0860643
0.107507
0.0863708
0.0979577
0.0786923
0.0983925
0.0789807
0.036261
0.00960722
0.03644
0.009677
0.0319119
0.00807073
0.0320773
0.00813125
0.00194297
0.00193784
0.00195105
0.00194586
0.00177709
0.00177336
0.00178352
0.00177975
0.0095798
0.0362313
0.0096494
0.0364104
0.00804902
0.0318861
0.00810938
0.0320515
0.0860669
0.107103
0.0863736
0.107562
0.0786929
0.0980038
0.0789815
0.0984389
0.106164
0.0854861
0.106627
0.0857954
0.0971206
0.0781467
0.0975583
0.0784373
0.0359364
0.00948627
0.0361169
0.00955622
0.0316103
0.0079644
0.0317767
0.00802493
0.00192928
0.00192426
0.0019373
0.00193222
0.00176594
0.00176229
0.0017723
0.00176861
0.0094592
0.0359068
0.00952897
0.0360873
0.007943
0.0315846
0.00800336
0.0317511
0.0854884
0.106218
0.0857979
0.106682
0.0781471
0.097166
0.0784378
0.097604
0.105278
0.0849048
0.105741
0.0852145
0.096282
0.0775995
0.096719
0.0778899
0.0356104
0.00936548
0.035791
0.00943509
0.0313081
0.00785853
0.0314743
0.00791861
0.00191577
0.00191086
0.00192366
0.00191868
0.00175494
0.00175138
0.0017612
0.00175758
0.00933876
0.0355809
0.00940818
0.0357615
0.00783743
0.0312826
0.00789734
0.0314487
0.0849067
0.105331
0.0852167
0.105795
0.0775995
0.0963267
0.0778902
0.096764
0.104396
0.0843252
0.104855
0.084633
0.0954491
0.0770551
0.0958819
0.0773431
0.0352858
0.00924589
0.035465
0.00931462
0.0310079
0.00775404
0.0311725
0.0078132
0.00190254
0.00189773
0.00191025
0.00190537
0.0017442
0.00174071
0.0017503
0.00174676
0.00921951
0.0352564
0.00928806
0.0354356
0.00773325
0.0309825
0.00779224
0.031147
0.0843268
0.104449
0.0846348
0.104908
0.0770548
0.0954932
0.077343
0.0959262
0.103526
0.0837524
0.103978
0.0840557
0.0946295
0.0765182
0.0950543
0.0768015
0.0349654
0.00912856
0.0351418
0.0091959
0.0307124
0.00765187
0.0308741
0.00770964
0.00188972
0.00188501
0.00189718
0.00189241
0.00173379
0.00173038
0.00173969
0.00173624
0.00910253
0.0349361