/*--------------------------------*- C++ -*----------------------------------*\
  =========                 |
  \\      /  F ield         | OpenFOAM: The Open Source CFD Toolbox
   \\    /   O peration     | Website:  https://openfoam.org
    \\  /    A nd           | Version:  9
     \\/     M anipulation  |
\*---------------------------------------------------------------------------*/
FoamFile
{
    format      ascii;
    class       volScalarField;
    location    "1";
    object      nut;
}
// * * * * * * * * * * * * * * * * * * * * * * * * * * * * * * * * * * * * * //

dimensions      [0 2 -1 0 0 0 0];

internalField   nonuniform List<scalar> 
36360
(
0.00114812
0.000946261
0.000453617
0.000425319
0.000265985
0.000214838
0.000191376
0.000175846
0.0003283
0.000171344
0.000203454
0.000159098
0.000150388
0.000139213
0.000162568
0.000162194
0.000146955
0.000146953
0.000159281
0.000159282
0.000138499
0.000138499
0.000162204
0.000162204
0.000171308
0.000328223
0.000159105
0.000203447
0.000139212
0.00015038
0.000162194
0.000162569
0.000946223
0.00114828
0.000425302
0.000453652
0.000214832
0.000265998
0.000175845
0.000191378
0.00199797
0.00164775
0.00166993
0.00136648
0.000412577
0.000330373
0.000359246
0.000284853
0.000825022
0.000282906
0.000605445
0.000207128
0.000186055
0.000122438
0.000162556
0.000126383
0.000158024
0.000157975
0.000147462
0.00014745
0.000114885
0.000114883
0.000122971
0.00012297
0.000282615
0.000824647
0.000207027
0.000605214
0.000122413
0.000185986
0.000126376
0.000162527
0.00164779
0.00199853
0.00136647
0.00167029
0.000330352
0.000412646
0.000284838
0.000359289
0.00228266
0.00189986
0.00218549
0.00181337
0.000453673
0.000367887
0.000440388
0.000355325
0.00102926
0.000368892
0.000959104
0.000337848
0.000210446
0.000123261
0.000202063
0.000122541
0.000170037
0.000169947
0.000166059
0.000166004
0.000110558
0.000110553
0.000111612
0.000111608
0.000368295
0.00102872
0.00033737
0.000958635
0.000123208
0.000210333
0.000122499
0.000201966
0.0019
0.00228351
0.00181347
0.00218622
0.000367864
0.000453779
0.000355303
0.000440478
0.00234758
0.0019579
0.00232884
0.00194116
0.000461564
0.000375603
0.000459476
0.000373517
0.00107489
0.000388948
0.00106213
0.000383534
0.000215594
0.00012405
0.000214226
0.000123828
0.000172496
0.000172397
0.000171934
0.000171841
0.000110215
0.000110209
0.000110276
0.00011027
0.000388256
0.0010743
0.00038287
0.00106156
0.000123989
0.000215469
0.000123769
0.000214104
0.00195807
0.00234855
0.00194132
0.00232977
0.00037558
0.000461684
0.000373494
0.000459591
0.00235601
0.00196554
0.00235486
0.0019645
0.000462288
0.000376384
0.000462282
0.00037636
0.00108041
0.000390888
0.00107986
0.000390866
0.000216087
0.000124106
0.000216086
0.000124116
0.000172631
0.000172531
0.00017265
0.00017255
0.000110187
0.000110181
0.000110187
0.000110181
0.000390183
0.00107981
0.000390163
0.00107927
0.000124044
0.000215961
0.000124055
0.00021596
0.00196573
0.00235703
0.00196468
0.00235586
0.000376361
0.000462411
0.000376338
0.000462405
0.0023558
0.00196533
0.0023565
0.00196603
0.000462138
0.000376243
0.000462298
0.000376407
0.00108037
0.000390716
0.00108092
0.000391032
0.000216045
0.000124068
0.000216134
0.000124101
0.000172547
0.000172447
0.000172615
0.000172515
0.000110161
0.000110155
0.000110178
0.000110172
0.000390011
0.00107977
0.000390327
0.00108032
0.000124006
0.000215919
0.000124039
0.000216008
0.00196552
0.00235681
0.00196621
0.00235752
0.000376221
0.000462261
0.000376385
0.000462422
0.00235412
0.00196377
0.00235534
0.00196494
0.000461807
0.000375881
0.000462045
0.000376138
0.0010792
0.000390056
0.00108015
0.000390566
0.000215849
0.000123985
0.000216001
0.000124037
0.000172415
0.000172315
0.000172507
0.000172408
0.000110117
0.000110111
0.000110136
0.00011013
0.000389352
0.0010786
0.000389862
0.00107955
0.000123924
0.000215723
0.000123976
0.000215875
0.00196395
0.00235513
0.00196512
0.00235636
0.000375859
0.00046193
0.000376116
0.000462169
0.00235179
0.00196165
0.00235333
0.00196308
0.00046139
0.00037543
0.000461674
0.000375733
0.00107751
0.000389139
0.00107871
0.000389783
0.000215577
0.000123885
0.000215767
0.000123946
0.000172251
0.000172152
0.000172364
0.000172265
0.000110072
0.000110066
0.000110092
0.000110086
0.000388438
0.00107691
0.00038908
0.00107811
0.000123824
0.000215451
0.000123884
0.000215641
0.00196183
0.0023528
0.00196327
0.00235435
0.000375408
0.000461513
0.000375711
0.000461798
0.00234899
0.00195918
0.00235081
0.00196081
0.000460908
0.000374924
0.000461231
0.000375257
0.00107553
0.000388113
0.00107689
0.000388817
0.00021526
0.000123773
0.000215476
0.00012384
0.000172092
0.000171994
0.000172204
0.000172105
0.000110019
0.000110013
0.000110043
0.000110037
0.000387414
0.00107493
0.000388116
0.00107629
0.000123712
0.000215134
0.000123779
0.00021535
0.00195936
0.00235
0.00196099
0.00235182
0.000374902
0.000461032
0.000375235
0.000461355
0.00234577
0.00195643
0.00234784
0.00195822
0.000460366
0.000374377
0.000460724
0.000374734
0.00107331
0.000386958
0.0010748
0.000387741
0.000214905
0.000123644
0.000215143
0.00012372
0.000171901
0.000171803
0.000172031
0.000171933
0.000109956
0.00010995
0.000109985
0.000109979
0.00038626
0.0010727
0.000387043
0.0010742
0.000123583
0.000214779
0.000123659
0.000215017
0.0019566
0.00234678
0.0019584
0.00234885
0.000374354
0.000460489
0.000374711
0.000460848
0.00234214
0.00195337
0.00234442
0.00195534
0.000459762
0.000373771
0.000460153
0.000374159
0.00107084
0.000385718
0.00107248
0.00038655
0.00021451
0.000123502
0.00021477
0.000123585
0.000171712
0.000171615
0.00017184
0.000171742
0.000109884
0.000109878
0.000109918
0.000109912
0.000385021
0.00107024
0.000385852
0.00107188
0.000123442
0.000214384
0.000123524
0.000214644
0.00195355
0.00234314
0.00195551
0.00234542
0.000373747
0.000459884
0.000374136
0.000460275
0.0023381
0.00195002
0.00234059
0.00195215
0.000459091
0.000373111
0.000459517
0.00037353
0.00106813
0.000384339
0.00106991
0.000385256
0.000214075
0.000123341
0.000214357
0.000123434
0.000171488
0.000171391
0.000171635
0.000171538
0.0001098
0.000109794
0.00010984
0.000109834
0.000383644
0.00106753
0.000384559
0.00106931
0.000123281
0.000213949
0.000123373
0.000214231
0.00195018
0.00233909
0.00195233
0.00234158
0.000373087
0.000459212
0.000373507
0.000459639
0.00233359
0.00194632
0.00233631
0.00194863
0.000458345
0.000372383
0.00045881
0.000372838
0.00106515
0.000382856
0.00106709
0.000383835
0.000213594
0.000123164
0.000213901
0.000123265
0.000171261
0.000171165
0.00017141
0.000171313
0.000109704
0.000109699
0.00010975
0.000109744
0.000382163
0.00106454
0.000383141
0.00106649
0.000123104
0.000213468
0.000123205
0.000213774
0.00194648
0.00233459
0.0019488
0.0023373
0.000372359
0.000458466
0.000372814
0.000458931
0.0023286
0.00194225
0.00233156
0.00194474
0.00045752
0.000371583
0.000458026
0.000372074
0.00106187
0.000381232
0.00106398
0.000382291
0.000213064
0.000122965
0.000213396
0.000123078
0.000171011
0.000170916
0.000171173
0.000171078
0.000109595
0.000109589
0.000109648
0.000109642
0.000380543
0.00106127
0.000381599
0.00106337
0.000122905
0.000212938
0.000123018
0.00021327
0.00194241
0.00232959
0.00194491
0.00233255
0.000371558
0.000457641
0.00037205
0.000458147
0.00232308
0.00193778
0.0023263
0.00194047
0.00045661
0.000370711
0.000457159
0.000371238
0.00105829
0.00037946
0.00106055
0.000380595
0.000212484
0.000122744
0.000212842
0.000122868
0.000170734
0.00017064
0.000170909
0.000170814
0.00010947
0.000109464
0.00010953
0.000109525
0.000378775
0.00105768
0.000379907
0.00105994
0.000122685
0.000212358
0.000122808
0.000212716
0.00193794
0.00232406
0.00194063
0.00232728
0.000370687
0.00045673
0.000371214
0.00045728
0.00231701
0.00193289
0.0023205
0.00193579
0.00045561
0.000369765
0.000456205
0.000370332
0.00105437
0.000377532
0.0010568
0.000378747
0.000211849
0.000122499
0.000212236
0.000122635
0.000170432
0.000170339
0.00017062
0.000170526
0.000109329
0.000109323
0.000109397
0.000109392
0.000376851
0.00105376
0.000378064
0.00105619
0.00012244
0.000211723
0.000122576
0.00021211
0.00193304
0.00231799
0.00193595
0.00232148
0.00036974
0.000455729
0.000370307
0.000456325
0.00231037
0.00192756
0.00231413
0.00193067
0.000454515
0.000368731
0.000455158
0.000369343
0.0010501
0.000375439
0.00105271
0.000376738
0.000211157
0.000122229
0.000211573
0.000122378
0.000170102
0.00017001
0.000170304
0.000170212
0.00010917
0.000109164
0.000109247
0.000109242
0.000374763
0.00104949
0.000376059
0.0010521
0.00012217
0.000211032
0.000122319
0.000211448
0.00192771
0.00231134
0.00193083
0.00231511
0.000368706
0.000454634
0.000369318
0.000455278
0.00230313
0.00192175
0.00230719
0.0019251
0.000453321
0.000367606
0.000454015
0.000368264
0.00104547
0.000373174
0.00104826
0.00037456
0.000210405
0.000121931
0.000210852
0.000122094
0.000169745
0.000169654
0.00016996
0.000169868
0.000108991
0.000108985
0.000109079
0.000109073
0.000372502
0.00104486
0.000373885
0.00104765
0.000121873
0.00021028
0.000122035
0.000210727
0.0019219
0.0023041
0.00192526
0.00230816
0.00036758
0.000453439
0.000368238
0.000454133
0.00229528
0.00191546
0.00229963
0.00191905
0.000452023
0.000366388
0.00045277
0.000367092
0.00104044
0.000370729
0.00104342
0.000372205
0.000209591
0.000121604
0.000210069
0.000121782
0.00016936
0.00016927
0.000169589
0.000169498
0.000108792
0.000108786
0.00010889
0.000108884
0.000370063
0.00103983
0.000371535
0.00104282
0.000121547
0.000209467
0.000121724
0.000209945
0.00191561
0.00229624
0.0019192
0.0023006
0.000366362
0.000452141
0.000367066
0.000452888
0.00228678
0.00190868
0.00229146
0.00191251
0.000450616
0.000365082
0.000451418
0.000365829
0.00103501
0.000368103
0.0010382
0.000369669
0.000208714
0.000121247
0.000209224
0.00012144
0.000168947
0.000168859
0.000169189
0.0001691
0.00010857
0.000108565
0.000108679
0.000108674
0.000367442
0.0010344
0.000369005
0.00103759
0.000121191
0.00020859
0.000121383
0.0002091
0.00190882
0.00228774
0.00191265
0.00229242
0.000365056
0.000450733
0.000365803
0.000451535
0.0022776
0.00190137
0.00228261
0.00190546
0.000449098
0.000363699
0.000449956
0.000364482
0.00102915
0.000365291
0.00103255
0.000366948
0.000207774
0.000120859
0.000208315
0.000121067
0.000168507
0.00016842
0.000168762
0.000168674
0.000108326
0.00010832
0.000108446
0.000108441
0.000364636
0.00102854
0.00036629
0.00103194
0.000120803
0.00020765
0.000121011
0.000208191
0.0019015
0.00227855
0.0019056
0.00228356
0.000363672
0.000449214
0.000364456
0.000450072
0.0022677
0.00189346
0.00227306
0.00189785
0.00044747
0.000362259
0.000448382
0.000363066
0.00102284
0.000362298
0.00102646
0.000364043
0.00020677
0.000120439
0.000207343
0.000120663
0.00016804
0.000167955
0.000168307
0.000168221
0.000108056
0.000108051
0.000108189
0.000108184
0.00036165
0.00102223
0.000363391
0.00102585
0.000120383
0.000206647
0.000120607
0.000207219
0.00189359
0.00226865
0.00189798
0.00227401
0.000362232
0.000447586
0.00036304
0.000448498
0.00225712
0.00188481
0.0022628
0.00188959
0.000445737
0.000360796
0.000446701
0.00036161
0.00101608
0.000359139
0.00101991
0.000360962
0.000205704
0.000119985
0.000206308
0.000120226
0.000167547
0.000167463
0.000167826
0.000167741
0.000107761
0.000107756
0.000107907
0.000107901
0.000358498
0.00101547
0.000360318
0.0010193
0.00011993
0.000205582
0.00012017
0.000206185
0.00188494
0.00225806
0.00188971
0.00226374
0.000360768
0.000445851
0.000361582
0.000446816
0.00224594
0.00187561
0.0022519
0.00188061
0.000443902
0.000359272
0.000444916
0.000360124
0.00100894
0.00035583
0.00101295
0.000357724
0.000204575
0.000119499
0.00020521
0.000119755
0.00016703
0.000166948
0.00016732
0.000167237
0.000107439
0.000107434
0.000107598
0.000107593
0.000355196
0.00100833
0.000357087
0.00101234
0.000119445
0.000204453
0.000119701
0.000205088
0.00187573
0.00224686
0.00188073
0.00225283
0.000359244
0.000444015
0.000360097
0.00044503
0.00223419
0.00186597
0.00224042
0.00187117
0.000441969
0.000357666
0.000443031
0.000358559
0.00100147
0.000352383
0.00100564
0.000354341
0.000203384
0.000118979
0.000204049
0.000119252
0.000166492
0.000166412
0.000166791
0.000166709
0.00010709
0.000107085
0.000107263
0.000107258
0.000351758
0.00100085
0.000353712
0.00100503
0.000118926
0.000203262
0.000119199
0.000203927
0.00186608
0.0022351
0.00187129
0.00224134
0.000357638
0.000442081
0.000358531
0.000443144
0.00222192
0.0018559
0.00222839
0.0018613
0.000439947
0.000355983
0.000441053
0.000356913
0.00099367
0.000348817
0.00099799
0.00035083
0.000202134
0.000118428
0.000202828
0.000118716
0.000165935
0.000165856
0.000166241
0.000166162
0.000106714
0.000106709
0.0001069
0.000106895
0.0003482
0.000993058
0.000350208
0.00099738
0.000118375
0.000202014
0.000118663
0.000202707
0.00185601
0.00222283
0.00186141
0.0022293
0.000355954
0.000440058
0.000356885
0.000441165
0.0022092
0.00184547
0.00221587
0.00185104
0.000437846
0.00035423
0.00043899
0.000355194
0.000985597
0.000345152
0.000990043
0.000347208
0.000200833
0.000117845
0.000201551
0.000118149
0.000165363
0.000165286
0.000165675
0.000165597
0.000106309
0.000106305
0.00010651
0.000106505
0.000344544
0.000984986
0.000346594
0.000989433
0.000117793
0.000200713
0.000118097
0.000201431
0.00184556
0.00221009
0.00185114
0.00221677
0.000354201
0.000437956
0.000355165
0.0004391
0.0021961
0.00183473
0.00220294
0.00184043
0.00043568
0.000352419
0.000436854
0.00035341
0.000977303
0.000341417
0.000981846
0.000343501
0.000199486
0.000117233
0.000200226
0.000117551
0.00016478
0.000164705
0.000165096
0.00016502
0.000105878
0.000105873
0.000106092
0.000106087
0.000340818
0.000976692
0.000342896
0.000981236
0.000117182
0.000199366
0.000117499
0.000200106
0.00183482
0.00219699
0.00184053
0.00220383
0.000352389
0.000435789
0.000353381
0.000436963
0.00218274
0.00182377
0.00218969
0.00182956
0.000433465
0.000350561
0.000434661
0.000351574
0.00096885
0.000337641
0.000973457
0.000339738
0.000198101
0.000116593
0.000198858
0.000116924
0.000164191
0.000164118
0.000164507
0.000164433
0.00010542
0.000105415
0.000105647
0.000105642
0.000337051
0.000968239
0.000339142
0.000972847
0.000116543
0.000197983
0.000116874
0.000198739
0.00182385
0.00218362
0.00182965
0.00219057
0.00035053
0.000433573
0.000351543
0.000434769
0.00216921
0.00181268
0.00217622
0.00181851
0.000431219
0.00034867
0.000432428
0.000349697
0.000960305
0.000333856
0.000964942
0.00033595
0.000196689
0.000115929
0.000197459
0.000116272
0.0001636
0.000163528
0.000163915
0.000163842
0.000104936
0.000104932
0.000105175
0.000105171
0.000333275
0.000959695
0.000335363
0.000964333
0.00011588
0.000196571
0.000116222
0.00019734
0.00181275
0.00217008
0.00181859
0.00217708
0.000348639
0.000431325
0.000349666
0.000432535
0.00215563
0.00180154
0.00216263
0.00180737
0.00042896
0.00034676
0.000430173
0.000347794
0.000951743
0.000330094
0.000956372
0.000332168
0.00019526
0.000115243
0.000196036
0.000115596
0.000163012
0.000162942
0.000163323
0.000163252
0.000104428
0.000104424
0.000104679
0.000104675
0.000329522
0.000951133
0.000331591
0.000955763
0.000115195
0.000195143
0.000115547
0.000195919
0.00180161
0.00215649
0.00180745
0.00216349
0.000346729
0.000429065
0.000347763
0.000430278
0.00214212
0.00179046
0.00214906
0.00179624
0.000426709
0.000344849
0.000427915
0.000345881
0.00094324
0.000326389
0.000947823
0.000328427
0.000193823
0.000114539
0.000194601
0.0001149
0.000162432
0.000162364
0.000162737
0.000162668
0.000103897
0.000103893
0.000104159
0.000104155
0.000325826
0.000942631
0.000327858
0.000947214
0.000114492
0.000193707
0.000114852
0.000194485
0.00179052
0.00214296
0.00179631
0.00214991
0.000344817
0.000426813
0.00034585
0.000428019
0.00212879
0.00177953
0.00213561
0.00178521
0.000424487
0.000342951
0.000425675
0.000343974
0.000934874
0.000322773
0.000939371
0.000324758
0.000192391
0.00011382
0.000193165
0.000114187
0.000161864
0.000161797
0.000162161
0.000162094
0.000103345
0.000103341
0.000103617
0.000103613
0.000322219
0.000934265
0.000324199
0.000938763
0.000113773
0.000192276
0.000114141
0.000193049
0.00177959
0.00212962
0.00178528
0.00213644
0.000342918
0.000424589
0.000343942
0.000425778
0.00211574
0.00176886
0.00212239
0.00177439
0.000422313
0.000341083
0.000423474
0.000342089
0.000926721
0.000319277
0.000931094
0.000321195
0.000190974
0.000113089
0.000191739
0.000113462
0.000161311
0.000161247
0.000161601
0.000161535
0.000102775
0.000102771
0.000103056
0.000103052
0.000318732
0.000926113
0.000320644
0.000930487
0.000113043
0.00019086
0.000113416
0.000191624
0.00176891
0.00211656
0.00177445
0.00212322
0.00034105
0.000422414
0.000342056
0.000423576
0.00210303
0.00175851
0.0021095
0.00176386
0.000420203
0.000339261
0.00042133
0.000340242
0.00091885
0.000315931
0.000923068
0.000317767
0.000189584
0.000112351
0.000190333
0.000112727
0.000160778
0.000160715
0.000161057
0.000160993
0.000102189
0.000102184
0.000102477
0.000102473
0.000315394
0.000918243
0.000317225
0.000922462
0.000112307
0.00018947
0.000112682
0.000190219
0.00175855
0.00210385
0.00176391
0.00211032
0.000339228
0.000420303
0.000340209
0.000421431
0.00209038
0.00174834
0.0020969
0.00175365
0.000418156
0.000337489
0.000419255
0.000338446
0.000911244
0.000312748
0.00091534
0.000314499
0.000188228
0.00011161
0.000188959
0.000111987
0.00016027
0.000160208
0.000160536
0.000160473
0.000101589
0.000101584
0.000101883
0.000101879
0.000312219
0.000910639
0.000313966
0.000914735
0.000111566
0.000188114
0.000111942
0.000188845
0.00174837
0.00209118
0.00175369
0.0020977
0.000337456
0.000418255
0.000338412
0.000419354
0.00207548
0.00173666
0.00208367
0.00174315
0.000416036
0.000335675
0.000417209
0.000336681
0.000903084
0.000309587
0.000907684
0.00031137
0.000186874
0.000110866
0.000187615
0.000111244
0.000159781
0.000159721
0.000160039
0.000159978
0.000100978
0.000100974
0.000101278
0.000101274
0.000309066
0.000902482
0.000310845
0.000907081
0.000110822
0.000186762
0.0001112
0.000187502
0.00173669
0.00207627
0.00174319
0.00208446
0.000335641
0.000416133
0.000336647
0.000417307
0.00204869
0.00171445
0.00206479
0.00172824
0.000413008
0.00033302
0.000414824
0.000334651
0.000888693
0.000305025
0.000897774
0.000307879
0.000185139
0.000110076
0.000186176
0.00011049
0.000159236
0.000159178
0.000159544
0.000159484
0.000100357
0.000100353
0.000100662
0.000100658
0.00030452
0.000888102
0.000307365
0.000897178
0.000110033
0.000185028
0.000110447
0.000186064
0.00171447
0.00204944
0.00172827
0.00206556
0.000332986
0.000413102
0.000334617
0.00041492
0.00198658
0.00164586
0.00202417
0.00169071
0.000405946
0.000324568
0.000410506
0.000330358
0.000845848
0.000292226
0.000873351
0.000300515
0.000180385
0.000108857
0.000183565
0.000109585
0.00015818
0.000158126
0.000158825
0.000158769
9.96973e-05
9.96936e-05
0.000100038
0.000100034
0.000291761
0.000845275
0.000300025
0.000872771
0.000108818
0.000180279
0.000109543
0.000183457
0.00164584
0.00198728
0.00169072
0.0020249
0.000324532
0.000406034
0.000330323
0.000410597
0.00149355
0.00122172
0.000540792
0.000479531
0.00140158
0.00114671
0.000522014
0.000461539
0.000436307
0.000191961
0.000208008
0.00015596
0.000403691
0.00018566
0.000206887
0.000156981
0.000147499
0.000147494
0.000158913
0.000158915
0.000147316
0.000147312
0.000159249
0.000159251
0.000191883
0.000436155
0.000155977
0.000207997
0.000185597
0.000403567
0.000156994
0.000206878
0.00122166
0.00149386
0.000479484
0.000540871
0.00114666
0.00140183
0.000461498
0.000522074
0.00268617
0.00222533
0.00221615
0.00182092
0.00248093
0.00205267
0.00205904
0.00169039
0.00121642
0.000429504
0.000886434
0.000271729
0.00109644
0.000382655
0.000802786
0.000251147
0.000174544
0.000174485
0.000153259
0.000153207
0.000170793
0.00017072
0.00015122
0.000151191
0.000428867
0.00121586
0.000271489
0.000886035
0.000382146
0.00109595
0.000250958
0.000802449
0.00222549
0.00268712
0.00182096
0.00221677
0.00205278
0.00248172
0.0016904
0.00205955
0.00312156
0.00260693
0.00296746
0.00247153
0.00286332
0.00238748
0.00272953
0.00227003
0.0015323
0.000605357
0.00142095
0.000541193
0.00137207
0.000527109
0.00127597
0.000474893
0.000202751
0.000202503
0.000191555
0.000191344
0.000192092
0.000191915
0.000182769
0.000182628
0.000604183
0.00153156
0.000540234
0.00142028
0.000526147
0.00137141
0.00047411
0.00127538
0.00260729
0.00312302
0.0024718
0.00296869
0.00238775
0.00286453
0.00227023
0.00273056
0.0032337
0.00270492
0.00319946
0.00267523
0.00295793
0.00247021
0.00292957
0.00244558
0.00161057
0.000649653
0.00158746
0.00063703
0.00143773
0.000562192
0.0014187
0.000552382
0.000210034
0.000209727
0.000208032
0.000207743
0.000197281
0.000197062
0.000195893
0.000195686
0.000648297
0.00160976
0.000635733
0.00158668
0.00056108
0.001437
0.000551318
0.001418
0.00270537
0.00323538
0.00267565
0.00320105
0.00247054
0.00295933
0.00244589
0.0029309
0.00325194
0.0027205
0.00324822
0.00271749
0.00297228
0.00248252
0.00296962
0.00248036
0.0016221
0.000655166
0.00162023
0.00065472
0.00144676
0.000566235
0.00144548
0.000565992
0.000210817
0.000210501
0.000210792
0.000210477
0.00019779
0.000197565
0.000197782
0.000197559
0.000653777
0.00162128
0.000653337
0.00161941
0.000565101
0.00144602
0.00056486
0.00144474
0.00272097
0.00325368
0.00271796
0.00324994
0.00248287
0.00297373
0.0024807
0.00297105
0.0032524
0.0027209
0.00325334
0.00272177
0.00297238
0.00248262
0.00297326
0.00248343
0.00162241
0.000655264
0.00162318
0.00065579
0.00144689
0.000566205
0.00144758
0.000566652
0.000210785
0.000210468
0.000210889
0.000210572
0.000197744
0.00019752
0.000197828
0.000197603
0.00065387
0.00162158
0.000654397
0.00162235
0.000565068
0.00144614
0.000565514
0.00144683
0.00272137
0.00325415
0.00272224
0.00325508
0.00248296
0.00297383
0.00248378
0.00297472
0.00325002
0.00271885
0.00325181
0.00272046
0.00297019
0.00248071
0.00297181
0.00248217
0.00162083
0.000654225
0.00162217
0.000655126
0.00144543
0.000565292
0.00144664
0.000566055
0.000210575
0.00021026
0.000210746
0.000210429
0.000197576
0.000197352
0.000197708
0.000197483
0.000652831
0.00162
0.000653733
0.00162134
0.000564155
0.00144468
0.000564918
0.00144589
0.00271932
0.00325176
0.00272093
0.00325355
0.00248105
0.00297164
0.00248251
0.00297326
0.0032466
0.0027159
0.00324887
0.00271792
0.00296711
0.00247802
0.00296914
0.00247984
0.00161848
0.000652713
0.00162017
0.000653834
0.0014433
0.000563979
0.00144482
0.000564934
0.000210276
0.000209962
0.000210493
0.000210178
0.00019734
0.000197117
0.000197509
0.000197286
0.00065132
0.00161765
0.000652441
0.00161934
0.000562844
0.00144255
0.000563798
0.00144408
0.00271636
0.00324834
0.00271838
0.00325061
0.00247836
0.00296855
0.00248019
0.00297059
0.0032426
0.00271246
0.00324516
0.00271473
0.00296347
0.00247489
0.00296581
0.00247695
0.00161575
0.00065099
0.00161764
0.000652222
0.00144082
0.000562496
0.00144253
0.000563542
0.000209961
0.000209649
0.000210186
0.000209872
0.000197097
0.000196876
0.000197269
0.000197047
0.000649598
0.00161491
0.00065083
0.00161681
0.000561363
0.00144007
0.000562408
0.00144178
0.00271292
0.00324433
0.00271519
0.0032469
0.00247523
0.00296492
0.00247729
0.00296726
0.00323811
0.00270864
0.00324096
0.00271112
0.00295937
0.00247141
0.00296199
0.00247366
0.00161271
0.000649096
0.00161477
0.000650428
0.00143806
0.000560856
0.00143992
0.000561995
0.000209611
0.0002093
0.000209859
0.000209546
0.000196821
0.000196601
0.000197015
0.000196794
0.000647707
0.00161187
0.000649038
0.00161394
0.000559724
0.00143731
0.000560863
0.00143918
0.0027091
0.00323984
0.00271157
0.00324269
0.00247174
0.00296081
0.002474
0.00296343
0.00323314
0.00270444
0.00323626
0.00270712
0.00295482
0.00246757
0.00295768
0.00247002
0.0016094
0.000647064
0.00161161
0.000648472
0.00143503
0.00055909
0.00143705
0.0005603
0.000209256
0.000208947
0.000209504
0.000209194
0.000196545
0.000196326
0.000196738
0.000196518
0.000645677
0.00160856
0.000647084
0.00161077
0.000557961
0.00143428
0.000559169
0.00143629
0.00270489
0.00323487
0.00270757
0.00323799
0.0024679
0.00295625
0.00247036
0.00295911
0.0032277
0.00269984
0.00323107
0.00270275
0.0029498
0.00246337
0.00295289
0.00246603
0.00160579
0.00064486
0.00160817
0.000646372
0.00143172
0.000557161
0.0014339
0.000558471
0.000208864
0.000208557
0.000209137
0.000208828
0.000196234
0.000196017
0.00019645
0.000196231
0.000643476
0.00160494
0.000644987
0.00160733
0.000556034
0.00143096
0.000557342
0.00143314
0.00270029
0.00322942
0.0027032
0.00323279
0.0024637
0.00295123
0.00246636
0.00295433
0.00322176
0.00269484
0.00322537
0.00269797
0.00294429
0.00245878
0.00294763
0.00246165
0.00160186
0.000642495
0.00160442
0.000644099
0.00142811
0.000555085
0.00143046
0.000556479
0.000208463
0.000208158
0.000208739
0.000208433
0.00019592
0.000195704
0.000196137
0.00019592
0.000641116
0.00160102
0.000642717
0.00160358
0.000553961
0.00142735
0.000555353
0.0014297
0.00269528
0.00322347
0.00269841
0.00322708
0.0024591
0.00294571
0.00246198
0.00294906
0.00321526
0.00268941
0.00321915
0.00269277
0.00293824
0.00245377
0.00294184
0.00245685
0.0015976
0.000639933
0.00160035
0.000641655
0.00142416
0.000552819
0.0014267
0.000554328
0.000208022
0.00020772
0.000208324
0.000208021
0.000195569
0.000195355
0.00019581
0.000195595
0.000638558
0.00159676
0.000640278
0.00159951
0.0005517
0.0014234
0.000553206
0.00142594
0.00268984
0.00321697
0.00269321
0.00322085
0.00245409
0.00293966
0.00245717
0.00294326
0.00320819
0.0026835
0.00321234
0.00268708
0.00293158
0.00244829
0.00293548
0.0024516
0.00159298
0.000637179
0.00159592
0.00063901
0.00141986
0.000550374
0.0014226
0.000551989
0.000207565
0.000207266
0.000207876
0.000207575
0.000195208
0.000194996
0.000195455
0.000195242
0.00063581
0.00159214
0.000637637
0.00159508
0.000549259
0.0014191
0.000550872
0.00142184
0.00268393
0.00320989
0.00268751
0.00321404
0.0024486
0.00293299
0.00245192
0.00293689
0.00320052
0.00267714
0.00320497
0.00268095
0.0029243
0.00244229
0.0029285
0.00244586
0.00158799
0.00063422
0.00159114
0.000636176
0.00141518
0.000547732
0.00141812
0.000549467
0.000207087
0.000206791
0.000207414
0.000207116
0.000194825
0.000194616
0.000195087
0.000194875
0.000632856
0.00158714
0.000634809
0.0015903
0.000546622
0.00141442
0.000548355
0.00141736
0.00267756
0.00320221
0.00268137
0.00320666
0.0024426
0.00292571
0.00244617
0.0029299
0.00319215
0.00267022
0.00319693
0.0026743
0.00291638
0.00243578
0.00292089
0.00243959
0.00158257
0.000631031
0.00158595
0.000633123
0.0014101
0.000544877
0.00141324
0.000546723
0.000206575
0.000206282
0.000206924
0.000206629
0.000194412
0.000194204
0.000194688
0.000194479
0.000629673
0.00158172
0.000631762
0.00158511
0.000543773
0.00140934
0.000545616
0.00141248
0.00267064
0.00319383
0.00267472
0.00319862
0.00243608
0.00291778
0.0024399
0.00292229
0.00318306
0.00266271
0.00318819
0.00266707
0.00290777
0.00242872
0.00291261
0.0024328
0.00157672
0.000627605
0.00158032
0.000629833
0.0014046
0.0005418
0.00140795
0.000543758
0.000206029
0.00020574
0.000206396
0.000206104
0.00019397
0.000193765
0.00019426
0.000194053
0.000626252
0.00157587
0.000628477
0.00157947
0.000540702
0.00140384
0.000542656
0.00140719
0.00266312
0.00318473
0.00266749
0.00318986
0.00242902
0.00290916
0.0024331
0.00291401
0.00317322
0.0026546
0.0031787
0.00265924
0.00289842
0.00242107
0.00290362
0.00242543
0.00157041
0.000623941
0.00157423
0.000626289
0.00139865
0.000538495
0.00140222
0.000540566
0.000205453
0.000205167
0.000205835
0.000205547
0.000193501
0.000193299
0.000193804
0.0001936
0.000622595
0.00156956
0.00062494
0.00157338
0.000537403
0.00139789
0.00053947
0.00140146
0.002655
0.00317488
0.00265965
0.00318037
0.00242136
0.0028998
0.00242573
0.002905
0.00316261
0.00264585
0.00316846
0.0026508
0.0028883
0.00241276
0.00289386
0.00241744
0.00156363
0.00062003
0.00156767
0.000622499
0.00139223
0.000534959
0.00139602
0.000537144
0.000204845
0.000204563
0.000205242
0.000204957
0.000193007
0.000192807
0.000193322
0.000193121
0.000618691
0.00156278
0.000621157
0.00156682
0.000533874
0.00139147
0.000536055
0.00139526
0.00264624
0.00316426
0.0026512
0.00317011
0.00241304
0.00288967
0.00241774
0.00289524
0.00315123
0.00263646
0.00315744
0.00264171
0.00287743
0.00240383
0.00288336
0.00240881
0.00155638
0.000615871
0.00156065
0.000618461
0.00138534
0.000531192
0.00138936
0.00053349
0.000204207
0.000203929
0.000204618
0.000204338
0.000192488
0.000192291
0.000192815
0.000192616
0.00061454
0.00155552
0.000617127
0.00155979
0.000530114
0.00138458
0.000532408
0.0013886
0.00263685
0.00315287
0.00264211
0.00315909
0.00240411
0.0028788
0.00240909
0.00288472
0.00313906
0.00262644
0.00314565
0.00263199
0.00286581
0.00239429
0.00287209
0.00239956
0.00154864
0.000611463
0.00155314
0.000614174
0.00137799
0.000527195
0.00138223
0.000529605
0.000203541
0.000203267
0.000203966
0.000203689
0.000191944
0.00019175
0.000192283
0.000192087
0.000610141
0.00154778
0.000612848
0.00155228
0.000526125
0.00137722
0.00052853
0.00138147
0.00262682
0.00314069
0.00263238
0.00314728
0.00239456
0.00286716
0.00239984
0.00287345
0.00312613
0.00261579
0.00313307
0.00262164
0.00285343
0.00238412
0.00286007
0.00238969
0.00154043
0.000606812
0.00154515
0.000609639
0.00137017
0.000522976
0.00137463
0.000525492
0.000202848
0.000202578
0.000203285
0.000203013
0.000191378
0.000191188
0.000191727
0.000191535
0.000605499
0.00153957
0.000608321
0.0015443
0.000521915
0.0013694
0.000524426
0.00137386
0.00261616
0.00312774
0.00262201
0.00313469
0.00238439
0.00285477
0.00238996
0.00286141
0.00311244
0.00260453
0.00311974
0.00261066
0.00284035
0.00237338
0.00284732
0.00237921
0.00153176
0.000601927
0.0015367
0.000604865
0.00136191
0.00051855
0.00136658
0.000521164
0.00020213
0.000201865
0.000202578
0.00020231
0.000190793
0.000190606
0.000191151
0.000190961
0.000600624
0.0015309
0.000603557
0.00153584
0.000517497
0.00136114
0.000520107
0.00136581
0.00260489
0.00311404
0.00261102
0.00312134
0.00237363
0.00284168
0.00237947
0.00284865
0.00309805
0.00259268
0.00310567
0.00259908
0.00282659
0.00236208
0.00283387
0.00236817
0.00152264
0.000596825
0.00152779
0.000599865
0.00135324
0.000513929
0.00135811
0.000516635
0.000201392
0.000201132
0.000201849
0.000201586
0.000190191
0.000190007
0.000190556
0.00019037
0.000595532
0.00152178
0.000598566
0.00152693
0.000512886
0.00135247
0.000515586