/*--------------------------------*- C++ -*----------------------------------*\
  =========                 |
  \\      /  F ield         | OpenFOAM: The Open Source CFD Toolbox
   \\    /   O peration     | Website:  https://openfoam.org
    \\  /    A nd           | Version:  9
     \\/     M anipulation  |
\*---------------------------------------------------------------------------*/
FoamFile
{
    format      ascii;
    class       surfaceScalarField;
    location    "1";
    object      phi;
}
// * * * * * * * * * * * * * * * * * * * * * * * * * * * * * * * * * * * * * //

dimensions      [0 3 -1 0 0 0 0];

internalField   nonuniform List<scalar> 
104044
(
2.33392e-07
-6.48114e-05
3.49456e-07
6.39554e-05
2.73151e-07
-5.01625e-05
-2.87797e-06
-8.19144e-08
5.24401e-05
9.15676e-07
1.02807e-07
4.67864e-07
-2.60228e-07
-2.64273e-06
-4.28413e-08
7.93675e-07
5.36507e-08
-6.02811e-05
6.05769e-05
-5.47932e-05
-1.60464e-08
5.19849e-05
7.11654e-08
-3.47523e-08
-2.76825e-09
-5.68479e-05
-9.5855e-07
5.73388e-05
3.88471e-07
-5.8216e-05
-6.59127e-07
1.43625e-09
5.873e-05
1.40945e-07
-3.43529e-10
-1.14071e-06
2.26769e-07
-1.064e-06
5.64804e-10
1.66138e-07
-3.6299e-09
-5.84416e-05
5.74707e-05
-5.76194e-05
6.55192e-10
5.6956e-05
-2.3321e-09
2.5166e-10
1.88853e-12
-5.83923e-05
-6.65354e-07
5.8907e-05
1.52058e-07
-5.83921e-05
-6.65356e-07
-1.4288e-09
5.89068e-05
1.52059e-07
6.93686e-13
-1.06905e-06
1.72956e-07
-1.06905e-06
-5.62778e-10
1.72956e-07
2.55065e-12
-5.74468e-05
5.67821e-05
-5.74465e-05
-6.50515e-10
5.67818e-05
6.67036e-13
-2.50217e-10
2.76861e-09
-5.82154e-05
-6.59147e-07
5.87294e-05
1.40969e-07
-5.6847e-05
-9.58488e-07
8.18973e-08
5.73379e-05
3.88425e-07
3.43799e-10
-1.06401e-06
1.66151e-07
-1.1407e-06
4.28371e-08
2.26764e-07
3.63147e-09
-5.76187e-05
5.69553e-05
-5.84405e-05
1.60451e-08
5.74696e-05
2.33194e-09
3.47518e-08
-2.33389e-07
-5.01615e-05
-2.87774e-06
5.2439e-05
9.15544e-07
-6.48123e-05
3.49608e-07
6.39563e-05
2.72997e-07
-1.02805e-07
-2.64259e-06
7.93579e-07
4.68006e-07
-2.6038e-07
-5.36302e-08
-5.47932e-05
5.19852e-05
-6.02826e-05
6.05786e-05
-7.1159e-08
2.72179e-07
-6.30821e-05
-4.475e-08
6.23467e-05
5.07976e-07
-5.42372e-05
-5.11482e-07
-6.88643e-08
5.5306e-05
-2.16287e-07
2.72034e-07
1.69093e-07
4.32159e-07
-1.95376e-06
-8.0593e-08
5.09217e-07
-3.36421e-08
-6.07321e-05
6.0721e-05
-5.00303e-05
5.14719e-08
4.94337e-05
1.39028e-08
1.47384e-08
-9.93243e-09
-5.77161e-05
-7.62631e-07
5.78557e-05
5.64061e-07
-5.91053e-05
-2.02639e-07
1.39255e-09
5.92301e-05
6.65328e-08
-6.28262e-09
-1.05095e-06
5.99379e-07
-5.05027e-07
1.65396e-09
1.21772e-07
-9.31352e-09
-5.64421e-05
5.57403e-05
-5.64426e-05
4.61335e-10
5.62302e-05
-7.66186e-09
7.02564e-10
2.05472e-12
-5.93079e-05
-1.76387e-07
5.94641e-05
2.15712e-08
-5.93077e-05
-1.7639e-07
-1.38771e-09
5.94639e-05
2.15664e-08
2.36126e-12
-4.96983e-07
9.77846e-08
-4.96984e-07
-1.6483e-09
9.77823e-08
6.00879e-12
-5.62858e-05
5.61099e-05
-5.62855e-05
-4.50672e-10
5.61096e-05
3.9647e-12
-6.95503e-10
9.92534e-09
-5.91047e-05
-2.02632e-07
5.92296e-05
6.64988e-08
-5.77151e-05
-7.62508e-07
6.88031e-08
5.78548e-05
5.63969e-07
6.28217e-09
-5.05062e-07
1.21766e-07
-1.0508e-06
8.05586e-08
5.99267e-07
9.3216e-09
-5.64418e-05
5.62294e-05
-5.64412e-05
-5.14548e-08
5.57395e-05
7.66294e-09
-1.47391e-08
-2.72237e-07
-5.42362e-05
-5.11637e-07
5.53053e-05
-2.16388e-07
-6.3083e-05
-4.50035e-08
6.23476e-05
5.08193e-07
-2.72033e-07
-1.95374e-06
5.09077e-07
1.69133e-07
4.32164e-07
3.37606e-08
-5.00306e-05
4.94337e-05
-6.07339e-05
6.07226e-05
-1.38641e-08
1.98201e-07
-6.17322e-05
-4.51452e-07
6.12441e-05
7.41333e-07
-5.58997e-05
8.26052e-07
-2.21235e-08
5.63233e-05
-1.02936e-06
2.40072e-07
-2.32953e-07
6.07439e-07
4.0786e-07
-4.73292e-08
-7.14118e-07
-1.50122e-07
-6.05783e-05
6.0277e-05
-4.96628e-05
1.24516e-07
5.02142e-05
-9.03151e-08
8.84916e-08
-1.32407e-08
-5.7848e-05
-3.64262e-07
5.78018e-05
4.01644e-07
-5.92112e-05
4.96344e-09
3.20635e-10
5.91472e-05
4.5452e-08
-9.87112e-09
-4.88435e-07
4.58665e-07
-2.79535e-08
8.3381e-10
3.61008e-08
-9.14092e-09
-5.53501e-05
5.51195e-05
-5.61922e-05
-9.87111e-12
5.6188e-05
-9.81559e-09
2.38549e-10
5.1133e-12
-5.94749e-05
3.23092e-08
5.94403e-05
2.57844e-09
-5.94747e-05
3.23003e-08
-3.16372e-10
5.94401e-05
2.58658e-09
2.28293e-12
2.27137e-10
-1.01695e-08
2.22187e-10
-8.30212e-10
-1.01691e-08
4.51394e-12
-5.61103e-05
5.61426e-05
-5.61101e-05
1.38592e-11
5.61424e-05
5.28179e-12
-2.3161e-10
1.3246e-08
-5.92108e-05
4.94431e-09
5.91468e-05
4.54389e-08
-5.78472e-05
-3.6425e-07
2.20631e-08
5.7801e-05
4.01615e-07
9.85789e-09
-2.79591e-08
3.6075e-08
-4.88397e-07
4.72745e-08
4.58614e-07
9.1326e-09
-5.61914e-05
5.61872e-05
-5.53494e-05
-1.24524e-07
5.51188e-05
9.81513e-09
-8.84928e-08
-1.98192e-07
-5.58992e-05
8.26011e-07
5.6323e-05
-1.02957e-06
-6.1733e-05
-4.51746e-07
6.12448e-05
7.4171e-07
-2.40072e-07
4.07727e-07
-7.14257e-07
-2.33238e-07
6.07767e-07
1.50205e-07
-4.96626e-05
5.02138e-05
-6.05798e-05
6.02782e-05
9.03846e-08
1.03064e-07
-6.08531e-05
-7.1525e-07
6.05171e-05
9.48241e-07
-5.66463e-05
1.04536e-06
2.15169e-08
5.69146e-05
-1.23212e-06
1.48135e-07
-6.0978e-07
8.52588e-07
9.89663e-07
3.25254e-09
-1.16773e-06
-2.52119e-07
-5.98697e-05
5.94066e-05
-5.08484e-05
1.78865e-07
5.14628e-05
-2.0245e-07
1.52957e-07
-7.0338e-09
-5.77577e-05
-3.01933e-07
5.77184e-05
3.69787e-07
-5.90788e-05
-3.56462e-08
-3.346e-10
5.90107e-05
9.69827e-08
-1.24511e-08
-3.1307e-07
3.72876e-07
-1.16992e-08
-7.31141e-11
6.77857e-08
-4.48505e-09
-5.49666e-05
5.4848e-05
-5.61694e-05
-3.73882e-10
5.61296e-05
-7.15136e-09
-2.27712e-10
1.84303e-12
-5.94004e-05
-3.57383e-09
5.93574e-05
4.62802e-08
-5.94002e-05
-3.58017e-09
3.3499e-10
5.93572e-05
4.62794e-08
1.89296e-11
1.48822e-08
2.49144e-08
1.48689e-08
9.42234e-11
2.49448e-08
6.19725e-12
-5.61573e-05
5.61533e-05
-5.6157e-05
3.80278e-10
5.61531e-05
5.8989e-12
2.31312e-10
7.04379e-09
-5.90784e-05
-3.56444e-08
5.90104e-05
9.69294e-08
-5.7757e-05
-3.01904e-07
-2.15663e-08
5.77177e-05
3.69797e-07
1.23702e-08
-1.17212e-08
6.78805e-08
-3.13047e-07
-3.30564e-09
3.72736e-07
4.48e-09
-5.61686e-05
5.61289e-05
-5.49658e-05
-1.7887e-07
5.48473e-05
7.13432e-09
-1.52965e-07
-1.03035e-07
-5.66461e-05
1.04552e-06
5.69145e-05
-1.23245e-06
-6.08538e-05
-7.15505e-07
6.05176e-05
9.48641e-07
-1.48104e-07
9.8974e-07
-1.16805e-06
-6.10051e-07
8.52967e-07
2.52238e-07
-5.08481e-05
5.14625e-05
-5.98707e-05
5.94075e-05
2.02551e-07
2.58749e-08
-6.02243e-05
-7.87991e-07
5.99535e-05
1.03289e-06
-5.71177e-05
1.00098e-06
7.84753e-08
5.72784e-05
-1.21429e-06
6.10005e-08
-7.64773e-07
9.96565e-07
1.02674e-06
5.69658e-08
-1.22582e-06
-3.25768e-07
-5.89313e-05
5.8469e-05
-5.20043e-05
2.11773e-07
5.24678e-05
-2.89476e-07
1.95734e-07
2.87947e-10
-5.77008e-05
-2.78768e-07
5.76898e-05
3.6794e-07
-5.89446e-05
-7.75835e-08
-4.20962e-10
5.8876e-05
1.46885e-07
-3.4875e-09
-2.86259e-07
3.64273e-07
-5.99157e-08
-4.13814e-10
1.23017e-07
2.38733e-09
-5.47586e-05
5.46893e-05
-5.60688e-05
-2.83656e-10
5.59939e-05
-1.19132e-09
-3.13699e-10
9.79435e-12
-5.93124e-05
-3.87195e-08
5.9263e-05
8.76159e-08
-5.93122e-05
-3.87254e-08
4.40263e-10
5.92629e-05
8.7618e-08
8.81483e-12
-2.28855e-08
6.74647e-08
-2.28926e-08
4.24796e-10
6.74718e-08
9.9514e-12
-5.61301e-05
5.60911e-05
-5.61298e-05
2.95315e-10
5.60908e-05
8.4136e-12
3.19862e-10
-2.86336e-10
-5.89442e-05
-7.75673e-08
5.88757e-05
1.46861e-07
-5.77002e-05
-2.78712e-07
-7.85515e-08
5.76893e-05
3.67916e-07
3.4819e-09
-5.99066e-08
1.23005e-07
-2.86209e-07
-5.70559e-08
3.64237e-07
-2.38942e-09
-5.60681e-05
5.59932e-05
-5.4758e-05
-2.11771e-07
5.46887e-05
1.18741e-09
-1.95735e-07
-2.58123e-08
-5.71176e-05
1.00119e-06
5.72783e-05
-1.21466e-06
-6.02247e-05
-7.8826e-07
5.99539e-05
1.03332e-06
-6.09514e-08
1.02694e-06
-1.22619e-06
-7.6503e-07
9.96969e-07
3.25918e-07
-5.20041e-05
5.24676e-05
-5.89321e-05
5.84697e-05
2.89611e-07
-2.92013e-08
-5.97061e-05
-7.79166e-07
5.947e-05
1.04441e-06
-5.73973e-05
9.19662e-07
1.01797e-07
5.74831e-05
-1.13645e-06
-4.11009e-09
-7.83766e-07
1.03531e-06
9.53948e-07
9.12435e-08
-1.16819e-06
-3.75337e-07
-5.80348e-05
5.7631e-05
-5.28524e-05
2.2907e-07
5.31677e-05
-3.49565e-07
2.19729e-07
7.95389e-09
-5.768e-05
-2.62327e-07
5.76674e-05
3.68763e-07
-5.88045e-05
-9.74001e-08
2.51207e-10
5.87283e-05
1.81327e-07
4.1169e-09
-2.66243e-07
3.63217e-07
-8.78872e-08
-1.17855e-10
1.63572e-07
9.74323e-09
-5.46367e-05
5.45937e-05
-5.59121e-05
3.30361e-10
5.58241e-05
6.02825e-09
-4.15663e-11
1.12374e-11
-5.92081e-05
-5.86254e-08
5.91457e-05
1.21304e-07
-5.9208e-05
-5.86279e-08
-2.37356e-10
5.91455e-05
1.21308e-07
1.06496e-11
-4.90561e-08
1.03835e-07
-4.90593e-08
1.31095e-10
1.03838e-07
1.11919e-11
-5.6042e-05
5.59837e-05
-5.60417e-05
-3.17161e-10
5.59834e-05
1.06709e-11
5.41858e-11
-7.95389e-09
-5.88042e-05
-9.73785e-08
5.8728e-05
1.81299e-07
-5.76794e-05
-2.62259e-07
-1.01864e-07
5.76669e-05
3.68722e-07
-4.11662e-09
-8.78686e-08
1.63547e-07
-2.66181e-07
-9.13135e-08
3.63184e-07
-9.74465e-09
-5.59114e-05
5.58235e-05
-5.46362e-05
-2.2906e-07
5.45932e-05
-6.02978e-09
-2.19723e-07
2.92861e-08
-5.73972e-05
9.19884e-07
5.7483e-05
-1.13683e-06
-5.97064e-05
-7.79421e-07
5.94703e-05
1.04482e-06
4.18423e-09
9.54163e-07
-1.16856e-06
-7.84033e-07
1.03572e-06
3.75508e-07
-5.28523e-05
5.31676e-05
-5.80354e-05
5.76315e-05
3.49725e-07
-6.71764e-08
-5.92493e-05
-7.51708e-07
5.90347e-05
1.03351e-06
-5.7536e-05
8.38942e-07
1.13072e-07
5.75622e-05
-1.0454e-06
-4.94397e-08
-7.60646e-07
1.03082e-06
8.71468e-07
1.0737e-07
-1.0812e-06
-4.07191e-07
-5.72594e-05
5.69149e-05
-5.34189e-05
2.36364e-07
5.36142e-05
-3.89038e-07
2.3126e-07
1.49694e-08
-5.76497e-05
-2.55093e-07
5.76243e-05
3.78614e-07
-5.86487e-05
-1.11501e-07
1.3293e-09
5.85638e-05
2.09998e-07
1.14583e-08
-2.54407e-07
3.68002e-07
-1.03592e-07
7.35145e-10
1.93922e-07
1.65514e-08
-5.45575e-05
5.45222e-05
-5.57328e-05
1.3951e-09
5.56365e-05
1.31148e-08
8.08564e-10
1.53644e-11
-5.90767e-05
-7.57156e-08
5.89993e-05
1.54417e-07
-5.90765e-05
-7.57186e-08
-1.31142e-09
5.89992e-05
1.54418e-07
1.15475e-11
-6.64925e-08
1.36211e-07
-6.64953e-08
-7.21488e-10
1.36215e-07
1.21397e-11
-5.5918e-05
5.58436e-05
-5.59177e-05
-1.38203e-09
5.58434e-05
1.12493e-11
-7.95595e-10
-1.49921e-08
-5.86484e-05
-1.11483e-07
5.85636e-05
2.0997e-07
-5.76492e-05
-2.55026e-07
-1.13129e-07
5.76238e-05
3.78576e-07
-1.14604e-08
-1.03569e-07
1.93892e-07
-2.54337e-07
-1.07432e-07
3.67958e-07
-1.65581e-08
-5.57322e-05
5.56359e-05
-5.4557e-05
-2.36347e-07
5.45218e-05
-1.3117e-08
-2.31246e-07
6.72782e-08
-5.7536e-05
8.39142e-07
5.75622e-05
-1.04576e-06
-5.92495e-05
-7.51961e-07
5.90348e-05
1.03391e-06
4.95315e-08
8.71683e-07
-1.08157e-06
-7.60897e-07
1.03122e-06
4.07375e-07
-5.34188e-05
5.36142e-05
-5.72598e-05
5.69152e-05
3.89214e-07
-9.3197e-08
-5.88302e-05
-7.27188e-07
5.86275e-05
1.02312e-06
-5.75623e-05
7.67181e-07
1.17853e-07
5.75404e-05
-9.56322e-07
-8.05942e-08
-7.34249e-07
1.01931e-06
7.962e-07
1.14961e-07
-9.9184e-07
-4.26889e-07
-5.65948e-05
5.62945e-05
-5.37609e-05
2.37776e-07
5.38635e-05
-4.14199e-07
2.35299e-07
1.87881e-08
-5.75906e-05
-2.56561e-07
5.75469e-05
3.99363e-07
-5.84744e-05
-1.25113e-07
2.68246e-09
5.8378e-05
2.37657e-07
1.70339e-08
-2.51951e-07
3.83504e-07
-1.17011e-07
2.01602e-09
2.21449e-07
2.24239e-08
-5.44861e-05
5.44449e-05
-5.55369e-05
2.75433e-09
5.54314e-05
1.94128e-08
2.0293e-09
-8.44907e-13
-5.89149e-05
-9.30963e-08
5.88214e-05
1.89245e-07
-5.89147e-05
-9.30976e-08
-2.69987e-09
5.88213e-05
1.89246e-07
4.70504e-11
-8.3503e-08
1.69917e-07
-8.35132e-08
-1.89488e-09
1.69909e-07
1.17736e-11
-5.57621e-05
5.56718e-05
-5.57619e-05
-2.73987e-09
5.56716e-05
1.65754e-11
-2.01068e-09
-1.89036e-08
-5.84742e-05
-1.25084e-07
5.83778e-05
2.37651e-07
-5.75903e-05
-2.56509e-07
-1.17933e-07
5.75465e-05
3.99306e-07
-1.67816e-08
-1.17029e-07
2.2139e-07
-2.51849e-07
-1.14923e-07
3.83503e-07
-2.2418e-08
-5.55363e-05
5.54309e-05
-5.44858e-05
-2.3775e-07
5.44446e-05
-1.94415e-08
-2.35273e-07
9.32982e-08
-5.75623e-05
7.67357e-07
5.75404e-05
-9.56656e-07
-5.88303e-05
-7.27435e-07
5.86275e-05
1.02351e-06
8.07273e-08
7.96399e-07
-9.92164e-07
-7.34499e-07
1.01972e-06
4.27079e-07
-5.3761e-05
5.38635e-05
-5.65951e-05
5.62948e-05
4.1439e-07
-1.10834e-07
-5.84308e-05
-7.0923e-07
5.82318e-05
1.01903e-06
-5.74973e-05
7.03023e-07
1.18995e-07
5.74353e-05
-8.70868e-07
-1.01832e-07
-7.13088e-07
1.01162e-06
7.28836e-07
1.17568e-07
-9.0512e-07
-4.37898e-07
-5.60104e-05
5.5739e-05
-5.39287e-05
2.35673e-07
5.39581e-05
-4.28936e-07
2.34666e-07
2.19154e-08
-5.74929e-05
-2.64675e-07
5.74267e-05
4.27941e-07
-5.8276e-05
-1.39439e-07
4.23263e-09
5.81658e-05
2.67373e-07
2.02562e-08
-2.56895e-07
4.08209e-07
-1.30719e-07
3.42348e-09
2.49507e-07
2.72215e-08
-5.4398e-05
5.43418e-05
-5.53219e-05
4.27093e-09
5.52055e-05
2.4703e-08
3.46691e-09
1.43068e-11
-5.87205e-05
-1.11477e-07
5.86097e-05
2.26483e-07
-5.87204e-05
-1.11481e-07
-4.22345e-09
5.86096e-05
2.26486e-07
1.37293e-11
-1.01097e-07
2.05417e-07
-1.01099e-07
-3.40331e-09
2.05419e-07
1.30857e-11
-5.55742e-05
5.54669e-05
-5.5574e-05
-4.24742e-09
5.54667e-05
1.34391e-11
-3.44835e-09
-2.19203e-08
-5.82758e-05
-1.39422e-07
5.81656e-05
2.67362e-07
-5.74926e-05
-2.64611e-07
-1.19031e-07
5.74264e-05
4.27896e-07
-2.02417e-08
-1.30704e-07
2.49493e-07
-2.56833e-07
-1.17608e-07
4.08166e-07
-2.72187e-08
-5.53215e-05
5.5205e-05
-5.43977e-05
-2.35634e-07
5.43415e-05
-2.47001e-08
-2.34632e-07
1.10952e-07
-5.74972e-05
7.03185e-07
5.74352e-05
-8.71175e-07
-5.84308e-05
-7.09474e-07
5.82318e-05
1.01942e-06
1.01944e-07
7.29004e-07
-9.05437e-07
-7.13333e-07
1.01201e-06
4.38095e-07
-5.39288e-05
5.39582e-05
-5.60106e-05
5.57392e-05
4.29129e-07
-1.227e-07
-5.80352e-05
-6.98394e-07
5.7833e-05
1.02328e-06
-5.73551e-05
6.47933e-07
1.18119e-07
5.72567e-05
-7.90384e-07
-1.16238e-07
-6.99248e-07
1.01213e-06
6.69785e-07
1.17638e-07
-8.23488e-07
-4.42827e-07
-5.54765e-05
5.5221e-05
-5.39596e-05
2.31663e-07
5.3933e-05
-4.36738e-07
2.31601e-07
2.43324e-08
-5.7349e-05
-2.77562e-07
5.72578e-05
4.6256e-07
-5.80488e-05
-1.55699e-07
5.15001e-09
5.79222e-05
3.01459e-07
2.30981e-08
-2.67513e-07
4.39776e-07
-1.45843e-07
4.91562e-09
2.81023e-07
3.11014e-08
-5.42769e-05
5.41999e-05
-5.50837e-05
5.6813e-09
5.49534e-05
2.89577e-08
4.83959e-09
-1.221e-10
-5.84907e-05
-1.31433e-07
5.83604e-05
2.66925e-07
-5.84905e-05
-1.31365e-07
-5.64902e-09
5.83604e-05
2.66979e-07
8.10698e-11
-1.20081e-07
2.43962e-07
-1.20113e-07
-4.65318e-09
2.43954e-07
1.11194e-10
-5.53517e-05
5.52258e-05
-5.53516e-05
-5.31997e-09
5.52256e-05
-8.00782e-12
-4.94628e-09
-2.4572e-08
-5.80487e-05
-1.55783e-07
5.7922e-05
3.014e-07
-5.73488e-05
-2.77552e-07
-1.18204e-07
5.72575e-05
4.62474e-07
-2.29621e-08
-1.45803e-07
2.81024e-07
-2.67431e-07
-1.17639e-07
4.39743e-07
-3.09805e-08
-5.50833e-05
5.49531e-05
-5.42766e-05
-2.31605e-07
5.41997e-05
-2.89823e-08
-2.31553e-07
1.22805e-07
-5.73551e-05
6.48077e-07
5.72567e-05
-7.90686e-07
-5.80351e-05
-6.98625e-07
5.78329e-05
1.02365e-06
1.16365e-07
6.69944e-07
-8.23784e-07
-6.99484e-07
1.01251e-06
4.43028e-07
-5.39597e-05
5.39331e-05
-5.54766e-05
5.5221e-05
4.36937e-07
-1.30516e-07
-5.76302e-05
-6.94526e-07
5.74191e-05
1.03619e-06
-5.71428e-05
5.94676e-07
1.16312e-07
5.70132e-05
-7.11833e-07
-1.25754e-07
-6.9194e-07
1.02046e-06
6.1645e-07
1.16163e-07
-7.44444e-07
-4.44284e-07
-5.49687e-05
5.47184e-05
-5.38827e-05
2.26934e-07
5.38062e-05
-4.39659e-07
2.27125e-07
2.65082e-08
-5.71543e-05
-2.94839e-07
5.70362e-05
5.02786e-07
-5.77876e-05
-1.74476e-07
6.45513e-09
5.76416e-05
3.40466e-07
2.53571e-08
-2.82583e-07
4.76852e-07
-1.6317e-07
6.06658e-09
3.17088e-07
3.40111e-08
-5.41122e-05
5.40102e-05
-5.48167e-05
6.57522e-09
5.46696e-05
3.22703e-08
5.8679e-09
8.59728e-12
-5.82213e-05
-1.53031e-07
5.80697e-05
3.11038e-07
-5.82212e-05
-1.53029e-07
-6.49551e-09
5.80696e-05
3.11055e-07
1.01195e-10
-1.40564e-07
2.8569e-07
-1.40612e-07
-5.72343e-09
2.85679e-07
2.52676e-11
-5.50912e-05
5.49447e-05
-5.5091e-05
-6.50751e-09
5.49446e-05
-4.18293e-11
-6.07804e-09
-2.65171e-08
-5.77875e-05
-1.74469e-07
5.76415e-05
3.40449e-07
-5.71541e-05
-2.94769e-07
-1.16332e-07
5.7036e-05
5.02725e-07
-2.52123e-08
-1.631e-07
3.171e-07
-2.82488e-07
-1.1616e-07
4.76811e-07
-3.39896e-08
-5.48163e-05
5.46693e-05
-5.4112e-05
-2.26878e-07
5.40101e-05
-3.23246e-08
-2.27074e-07
1.30641e-07
-5.71428e-05
5.94823e-07
5.70131e-05
-7.12117e-07
-5.76301e-05
-6.94746e-07
5.7419e-05
1.03654e-06
1.25883e-07
6.16602e-07
-7.4473e-07
-6.92164e-07
1.02082e-06
4.44485e-07
-5.38828e-05
5.38062e-05
-5.49687e-05
5.47185e-05
4.39858e-07
-1.35487e-07
-5.72048e-05
-6.95739e-07
5.69796e-05
1.05636e-06
-5.68684e-05
5.46102e-07
1.14023e-07
5.67083e-05
-6.35525e-07
-1.32021e-07
-6.90911e-07
1.03726e-06
5.6698e-07
1.14099e-07
-6.68364e-07
-4.42558e-07
-5.4467e-05
5.42139e-05
-5.37114e-05
2.2172e-07
5.35932e-05
-4.39514e-07
2.22226e-07
2.81818e-08
-5.69052e-05
-3.15104e-07
5.67584e-05
5.47703e-07
-5.74864e-05
-1.95686e-07
7.48386e-09
5.73181e-05
3.84669e-07
2.71347e-08
-3.0125e-07
5.192e-07
-1.82962e-07
6.93021e-09
3.58413e-07
3.62703e-08
-5.38963e-05
5.37667e-05
-5.45146e-05
7.52365e-09
5.43476e-05
3.48816e-08
6.97855e-09
2.08695e-11
-5.79082e-05
-1.76635e-07
5.77331e-05
3.59206e-07
-5.79081e-05
-1.76642e-07
-7.45613e-09
5.7733e-05
3.5922e-07
1.87968e-11
-1.63014e-07
3.31422e-07
-1.63021e-07
-6.902e-09
3.31435e-07
2.12694e-11
-5.47886e-05
5.46195e-05
-5.47885e-05
-7.4944e-09
5.46194e-05
1.87781e-11
-6.96006e-09
-2.8164e-08
-5.74863e-05
-1.95677e-07
5.7318e-05
3.84657e-07
-5.6905e-05
-3.15029e-07
-1.14032e-07
5.67583e-05
5.47634e-07
-2.71209e-08
-1.82951e-07
3.584e-07
-3.01178e-07
-1.14113e-07
5.19136e-07
-3.62471e-08
-5.45143e-05
5.43473e-05
-5.38962e-05
-2.21652e-07
5.37666e-05
-3.48664e-08
-2.22164e-07
1.35614e-07
-5.68683e-05
5.46245e-07
5.67083e-05
-6.35801e-07
-5.72046e-05
-6.95951e-07
5.69795e-05
1.05671e-06
1.32145e-07
5.67122e-07
-6.68642e-07
-6.91129e-07
1.03761e-06
4.42759e-07
-5.37115e-05
5.35933e-05
-5.4467e-05
5.42139e-05
4.39713e-07
-1.38438e-07
-5.67493e-05
-7.01562e-07
5.65056e-05
1.08364e-06
-5.65342e-05
4.97569e-07
1.116e-07
5.63433e-05
-5.56768e-07
-1.35809e-07
-6.94105e-07
1.06027e-06
5.18946e-07
1.11701e-07
-5.92294e-07
-4.38831e-07
-5.39563e-05
5.36936e-05
-5.34587e-05
2.16299e-07
5.33012e-05
-4.36548e-07
2.16904e-07
2.95354e-08
-5.65984e-05
-3.38481e-07
5.64212e-05
5.97697e-07
-5.71393e-05
-2.19225e-07
8.40402e-09
5.69455e-05
4.3413e-07
2.86046e-08
-3.22726e-07
5.65909e-07
-2.05109e-07
7.87514e-09
4.04667e-07
3.70313e-08
-5.3624e-05
5.34648e-05
-5.41714e-05
8.18159e-09
5.39811e-05
3.68324e-08
7.91376e-09
1.49132e-11
-5.75472e-05
-2.02401e-07
5.73461e-05
4.11842e-07
-5.75471e-05
-2.02454e-07
-8.35864e-09
5.73461e-05
4.11861e-07
2.20105e-11
-1.8738e-07
3.81149e-07
-1.8739e-07
-7.84084e-09
3.81165e-07
-1.00492e-10
-5.444e-05
5.42459e-05
-5.44399e-05
-8.61863e-09
5.42459e-05
1.70081e-11
-7.85104e-09
-2.94689e-08
-5.71392e-05
-2.1926e-07
5.69455e-05
4.34123e-07
-5.65982e-05
-3.38311e-07
-1.11611e-07
5.6421e-05
5.97617e-07
-2.85766e-08
-2.05104e-07
4.04656e-07
-3.22645e-07
-1.11705e-07
5.65837e-07
-3.77077e-08
-5.41711e-05
5.39809e-05
-5.3624e-05
-2.16442e-07
5.34645e-05
-3.67395e-08
-2.16837e-07
1.38559e-07
-5.65341e-05
4.97736e-07
5.63432e-05
-5.57049e-07
-5.67491e-05
-7.01756e-07
5.65055e-05
1.08398e-06
1.35935e-07
5.19092e-07
-5.92567e-07
-6.94311e-07
1.0606e-06
4.38968e-07
-5.34588e-05
5.33012e-05
-5.39563e-05
5.36935e-05
4.3674e-07
-1.39911e-07
-5.62548e-05
-7.12003e-07
5.59885e-05
1.11821e-06
-5.61368e-05
4.4786e-07
1.09154e-07
5.59126e-05
-4.72734e-07
-1.37905e-07
-7.01917e-07
1.09069e-06
4.70328e-07
1.09271e-07
-5.10946e-07
-4.3382e-07
-5.34236e-05
5.31455e-05
-5.31277e-05
2.10949e-07
5.29308e-05
-4.31981e-07
2.11849e-07
3.06174e-08
-5.623e-05
-3.64929e-07
5.60206e-05
6.52924e-07
-5.67399e-05
-2.45378e-07
9.22834e-09
5.65176e-05
4.89113e-07
2.97313e-08
-3.47237e-07
6.17963e-07
-2.29655e-07
8.72866e-09
4.5624e-07
3.68441e-08
-5.32916e-05
5.31008e-05
-5.37801e-05
8.75957e-09
5.35628e-05
3.78152e-08
9.14236e-09
4.76896e-12
-5.71333e-05
-2.30651e-07
5.69036e-05
4.6957e-07
-5.71332e-05
-2.30741e-07
-9.19612e-09
5.69036e-05
4.69596e-07
3.7749e-11
-2.14108e-07
4.35649e-07
-2.14052e-07
-8.70842e-09
4.35662e-07
-2.33817e-10
-5.40407e-05
5.38191e-05
-5.40404e-05
-9.7094e-09
5.38192e-05
2.26834e-10
-8.33872e-09
-3.04946e-08
-5.67399e-05
-2.4551e-07
5.65176e-05
4.89115e-07
-5.62299e-05
-3.64639e-07
-1.09172e-07
5.60204e-05
6.52836e-07
-2.97873e-08
-2.29565e-07
4.56231e-07
-3.47316e-07
-1.09258e-07
6.179e-07
-3.85655e-08
-5.37796e-05
5.35629e-05
-5.3292e-05
-2.1141e-07
5.31002e-05
-3.65353e-08
-2.11385e-07
1.40021e-07
-5.61367e-05
4.48058e-07
5.59125e-05
-4.73003e-07
-5.62546e-05
-7.12181e-07
5.59883e-05
1.11854e-06
1.38046e-07
4.70413e-07
-5.11205e-07
-7.0214e-07
1.09103e-06
4.33867e-07
-5.31279e-05
5.29307e-05
-5.34236e-05
5.31453e-05
4.32289e-07
-1.40208e-07
-5.57135e-05
-7.26009e-07
5.54211e-05
1.15859e-06
-5.56738e-05
3.97045e-07
1.06718e-07
5.54169e-05
-3.87071e-07
-1.38729e-07
-7.13986e-07
1.12767e-06
4.20095e-07
1.06853e-07
-4.26888e-07
-4.27384e-07
-5.28577e-05
5.25591e-05
-5.27178e-05
2.05572e-07
5.24819e-05
-4.26202e-07
2.06805e-07
3.14191e-08
-5.57966e-05
-3.9375e-07
5.55529e-05
7.12714e-07
-5.62824e-05
-2.7421e-07
9.96305e-09
5.60287e-05
5.49335e-07
3.06152e-08
-3.74565e-07
6.74811e-07
-2.56964e-07
9.51746e-09
5.13268e-07
3.66447e-08
-5.28945e-05
5.26697e-05
-5.33343e-05
9.37911e-09
5.30873e-05
3.84999e-08
1.00828e-08
-6.1984e-13
-5.66611e-05
-2.61243e-07
5.64002e-05
5.32111e-07
-5.66611e-05
-2.61345e-07
-9.94724e-09
5.64002e-05
5.32144e-07
5.0999e-11
-2.43256e-07
4.9518e-07
-2.43178e-07
-9.47747e-09
4.95194e-07
-2.97022e-10
-5.35856e-05
5.3334e-05
-5.35853e-05
-1.05537e-08
5.33342e-05
3.14641e-10
-8.94797e-09
-3.1258e-08
-5.62823e-05
-2.74427e-07
5.60287e-05
5.49344e-07
-5.57965e-05
-3.9338e-07
-1.06739e-07
5.55527e-05
7.12619e-07
-3.07139e-08
-2.56786e-07
5.13259e-07
-3.74739e-07
-1.06827e-07
6.74752e-07
-3.9103e-08
-5.33335e-05
5.30877e-05
-5.28952e-05
-2.06256e-07
5.2669e-05
-3.63556e-08
-2.0607e-07
1.40311e-07
-5.56738e-05
3.97256e-07
5.54168e-05
-3.87324e-07
-5.57134e-05
-7.26174e-07
5.5421e-05
1.15891e-06
1.38877e-07
4.20142e-07
-4.27126e-07
-7.14215e-07
1.128e-06
4.27368e-07
-5.27182e-05
5.24818e-05
-5.28577e-05
5.25589e-05
4.26579e-07
-1.39708e-07
-5.51181e-05
-7.44182e-07
5.47955e-05
1.20654e-06
-5.51434e-05
3.50665e-07
1.04352e-07
5.48495e-05
-3.00738e-07
-1.38633e-07
-7.29968e-07
1.1716e-06
3.72118e-07
1.04518e-07
-3.41826e-07
-4.20465e-07
-5.22487e-05
5.19249e-05
-5.22326e-05
2.00573e-07
5.19622e-05
-4.19573e-07
2.01871e-07
3.20051e-08
-5.52934e-05
-4.25237e-07
5.50126e-05
7.78371e-07
-5.5761e-05
-3.06011e-07
1.06251e-08
5.54729e-05
6.15401e-07
3.1277e-08
-4.04413e-07
7.37114e-07
-2.87121e-07
1.02269e-08
5.75917e-07
3.64312e-08
-5.24282e-05
5.21671e-05
-5.28283e-05
9.97704e-09
5.25487e-05
3.89319e-08
1.08438e-08
-3.48387e-12
-5.61254e-05
-2.94498e-07
5.58304e-05
6.00146e-07
-5.61254e-05
-2.94607e-07
-1.06209e-08
5.58304e-05
6.00182e-07
5.78271e-11
-2.74915e-07
5.59915e-07
-2.74834e-07
-1.01682e-08
5.5993e-07
-3.22849e-10
-5.30696e-05
5.27854e-05
-5.30693e-05
-1.12515e-08
5.27856e-05
3.64323e-10
-9.55441e-09
-3.18184e-08
-5.57609e-05
-3.06294e-07
5.5473e-05
6.15417e-07
-5.52934e-05
-4.24813e-07
-1.04373e-07
5.50125e-05
7.78271e-07
-3.14015e-08
-2.86872e-07
5.75906e-07
-4.04651e-07
-1.0448e-07
7.37056e-07
-3.94296e-08
-5.28274e-05
5.25493e-05
-5.24291e-05
-2.01416e-07
5.21663e-05
-3.61559e-08
-2.0094e-07
1.39806e-07
-5.51434e-05
3.50883e-07
5.48494e-05
-3.0098e-07
-5.5118e-05
-7.44338e-07
5.47953e-05
1.20685e-06
1.38787e-07
3.72125e-07
-3.42047e-07
-7.30199e-07
1.17193e-06
4.20406e-07
-5.2233e-05
5.19621e-05
-5.22487e-05
5.19248e-05
4.19996e-07
-1.38646e-07
-5.44608e-05
-7.66067e-07
5.41049e-05
1.2607e-06
-5.45385e-05
3.02901e-07
1.02115e-07
5.42063e-05
-2.11449e-07
-1.37814e-07
-7.49765e-07
1.22221e-06
3.25937e-07
1.02219e-07
-2.55044e-07
-4.13164e-07
-5.15877e-05
5.12348e-05
-5.16784e-05
1.95935e-07
5.13722e-05
-4.12492e-07
1.97251e-07
3.23949e-08
-5.47154e-05
-4.59398e-07
5.43956e-05
8.48916e-07
-5.51697e-05
-3.40435e-07
1.12134e-08
5.48444e-05
6.86986e-07
3.17389e-08
-4.36905e-07
8.04636e-07
-3.20004e-07
1.08573e-08
6.44094e-07
3.61755e-08
-5.18883e-05
5.15887e-05
-5.22564e-05
1.05292e-08
5.19416e-05
3.91655e-08
1.14783e-08
-4.90741e-12
-5.55204e-05
-3.30327e-07
5.51884e-05
6.73496e-07
-5.55204e-05
-3.3043e-07
-1.12163e-08
5.51885e-05
6.73531e-07
5.97539e-11
-3.09126e-07
6.2993e-07
-3.09048e-07
-1.07843e-08
6.29945e-07
-3.44984e-10
-5.24873e-05
5.21679e-05
-5.2487e-05
-1.18371e-08
5.21681e-05
3.87983e-10
-1.01233e-08
-3.21919e-08
-5.51697e-05
-3.40768e-07
5.48444e-05
6.87006e-07
-5.47154e-05
-4.58938e-07
-1.02135e-07
5.43955e-05
8.48813e-07
-3.1878e-08
-3.19703e-07
6.44081e-07
-4.37184e-07
-1.02172e-07
8.04579e-07
-3.95765e-08
-5.22554e-05
5.19423e-05
-5.18893e-05
-1.96887e-07
5.15877e-05
-3.59237e-08
-1.96181e-07
1.38739e-07
-5.45385e-05
3.03126e-07
5.42062e-05
-2.1168e-07
-5.44607e-05
-7.66217e-07
5.41047e-05
1.261e-06
1.37971e-07
3.25926e-07
-2.55252e-07
-7.49995e-07
1.22254e-06
4.13076e-07
-5.16789e-05
5.1372e-05
-5.15877e-05
5.12346e-05
4.12946e-07
-1.37299e-07
-5.37359e-05
-7.91242e-07
5.33439e-05
1.32052e-06
-5.38573e-05
2.52643e-07
1.00151e-07
5.34869e-05
-1.1975e-07
-1.36595e-07
-7.73051e-07
1.27865e-06
2.77374e-07
1.00132e-07
-1.65063e-07
-4.05548e-07
-5.08668e-05
5.04811e-05
-5.10516e-05
1.91597e-07
5.07071e-05
-4.0509e-07
1.92895e-07
3.26118e-08
-5.40588e-05
-4.95994e-07
5.36983e-05
9.24107e-07
-5.45028e-05
-3.77812e-07
1.17374e-08
5.41374e-05
7.64105e-07
3.20276e-08
-4.71978e-07
8.76835e-07
-3.55563e-07
1.14141e-08
7.17731e-07
3.60586e-08
-5.12704e-05
5.09299e-05
-5.16133e-05
1.10724e-08
5.12604e-05
3.9229e-08
1.20164e-08
-2.51724e-12
-5.48405e-05
-3.68652e-07
5.44689e-05
7.52009e-07
-5.48405e-05
-3.68744e-07
-1.17397e-08
5.44689e-05
7.52045e-07
6.18465e-11
-3.45856e-07
7.05163e-07
-3.45778e-07
-1.13301e-08
7.05177e-07
-3.24125e-10
-5.18336e-05
5.14764e-05
-5.18334e-05
-1.22692e-08
5.14766e-05
3.98809e-10
-1.06394e-08
-3.24064e-08
-5.45028e-05
-3.78153e-07
5.41375e-05
7.64125e-07
-5.40589e-05
-4.9554e-07
-1.00164e-07
5.36982e-05
9.24001e-07
-3.21769e-08
-3.55217e-07
7.17715e-07
-4.72286e-07
-1.00078e-07
8.76778e-07
-3.93785e-08
-5.16122e-05
5.12611e-05
-5.12715e-05
-1.9253e-07
5.09291e-05
-3.56615e-08
-1.91722e-07
1.37391e-07
-5.38573e-05
2.52865e-07
5.34868e-05
-1.19966e-07
-5.37357e-05
-7.91388e-07
5.33437e-05
1.32082e-06
1.36755e-07
2.77348e-07
-1.6526e-07
-7.7328e-07
1.27897e-06
4.0546e-07
-5.10521e-05
5.0707e-05
-5.08669e-05
5.04809e-05
4.05565e-07
-1.35795e-07
-5.2938e-05
-8.18765e-07
5.25073e-05
1.3853e-06
-5.31022e-05
1.99218e-07
9.85034e-08
5.27012e-05
-3.25367e-08
-1.35144e-07
-7.98964e-07
1.33998e-06
2.26019e-07
9.83048e-08
-7.47132e-08
-3.97509e-07
-5.00795e-05
4.96582e-05
-5.03474e-05
1.87623e-07
4.99615e-05
-3.97316e-07
1.88433e-07
3.26409e-08
-5.33204e-05
-5.34311e-07
5.2917e-05
1.00349e-06
-5.37549e-05
-4.17777e-07
1.22109e-08
5.33468e-05
8.46333e-07
3.21879e-08
-5.09168e-07
9.53187e-07
-3.93718e-07
1.18928e-08
7.96505e-07
3.65329e-08
-5.05708e-05
5.01875e-05
-5.08929e-05
1.18112e-08
5.04999e-05
3.84151e-08
1.22064e-08
1.88077e-11
-5.40805e-05
-4.09291e-07
5.36667e-05
8.3528e-07
-5.40805e-05
-4.09332e-07
-1.21855e-08
5.36667e-05
8.35309e-07
5.21513e-11
-3.84822e-07
7.85043e-07
-3.84776e-07
-1.18172e-08
7.85063e-07
-1.17704e-10
-5.11035e-05
5.07061e-05
-5.11033e-05
-1.22953e-08
5.07062e-05
2.75439e-10
-1.12728e-08
-3.25306e-08
-5.37549e-05
-4.17935e-07
5.33469e-05
8.46344e-07
-5.33204e-05
-5.34067e-07
-9.8477e-08
5.2917e-05
1.00339e-06
-3.22786e-08
-3.93468e-07
7.96493e-07
-5.09358e-07
-9.82559e-08
9.53119e-07
-3.81087e-08
-5.08922e-05
5.05001e-05
-5.05715e-05
-1.87985e-07
5.01873e-05
-3.5837e-08
-1.87571e-07
1.35886e-07
-5.31022e-05
1.99355e-07
5.27011e-05
-3.26468e-08
-5.29379e-05
-8.18937e-07
5.25071e-05
1.38559e-06
1.35292e-07
2.26026e-07
-7.49043e-08
-7.99177e-07
1.34029e-06
3.97576e-07
-5.03477e-05
4.99615e-05
-5.00794e-05
4.96581e-05
3.97699e-07
-1.33871e-07
-5.20614e-05
-8.4832e-07
5.15885e-05
1.45505e-06
-5.22881e-05
1.42575e-07
9.6747e-08
5.18369e-05
7.79885e-08
-1.33627e-07
-8.27323e-07
1.40683e-06
1.71217e-07
9.67926e-08
1.14475e-08
-3.89323e-07
-4.92204e-05
4.87614e-05
-4.95592e-05
1.83632e-07
4.91288e-05
-3.8949e-07
1.84044e-07
3.26663e-08
-5.24955e-05
-5.7398e-07
5.20465e-05
1.08707e-06
-5.29206e-05
-4.60008e-07
1.26192e-08
5.24674e-05
9.33288e-07
3.22823e-08
-5.48072e-07
1.03412e-06
-4.34365e-07
1.23117e-08
8.80469e-07
3.67489e-08
-4.97863e-05
4.93592e-05
-5.00904e-05
1.23772e-08
4.96548e-05
3.71922e-08
1.22688e-08
2.94029e-11
-5.32351e-05
-4.52239e-07
5.27765e-05
9.23433e-07
-5.32351e-05
-4.52254e-07
-1.25792e-08
5.27765e-05
9.2346e-07
3.75089e-11
-4.26278e-07
8.70145e-07
-4.26271e-07
-1.22569e-08
8.70168e-07
-6.76296e-12
-5.0292e-05
4.98522e-05
-5.0292e-05
-1.24507e-08
4.98522e-05
9.80496e-11
-1.19581e-08
-3.26162e-08
-5.29207e-05
-4.60049e-07
5.24675e-05
9.33297e-07
-5.24955e-05
-5.73861e-07
-9.6724e-08
5.20465e-05
1.08699e-06
-3.22847e-08
-4.34288e-07
8.8047e-07
-5.48076e-07
-9.67561e-08
1.03404e-06
-3.71259e-08
-5.00901e-05
4.96548e-05
-4.97866e-05
-1.8364e-07
4.93593e-05
-3.63014e-08
-1.83703e-07
1.33991e-07
-5.22881e-05
1.42676e-07
5.18369e-05
7.77568e-08
-5.20612e-05
-8.48499e-07
5.15884e-05
1.45535e-06
1.33755e-07
1.71282e-07
1.12438e-08
-8.27514e-07
1.40713e-06
3.89479e-07
-4.95593e-05
4.91289e-05
-4.92203e-05
4.87613e-05
3.89732e-07
-1.31189e-07
-5.10993e-05
-8.80481e-07
5.05815e-05
1.52945e-06
-5.13643e-05
8.57873e-08
9.43651e-08
5.08631e-05
1.89827e-07
-1.31234e-07
-8.57711e-07
1.47819e-06
1.14571e-07
9.46128e-08
1.3226e-07
-3.81051e-07
-4.8285e-05
4.77856e-05
-4.86821e-05
1.79606e-07
4.82072e-05
-3.8137e-07
1.79858e-07
3.27081e-08
-5.15783e-05
-6.1572e-07
5.10813e-05
1.17436e-06
-5.19955e-05
-5.04275e-07
1.29669e-08
5.14951e-05
1.02449e-06
3.23666e-08
-5.88375e-07
1.11879e-06
-4.7713e-07
1.2675e-08
9.687e-07
3.65238e-08
-4.89142e-05
4.84416e-05
-4.92016e-05
1.27444e-08
4.87211e-05
3.64734e-08
1.24974e-08
3.28283e-11
-5.22994e-05