/*--------------------------------*- C++ -*----------------------------------*\
  =========                 |
  \\      /  F ield         | OpenFOAM: The Open Source CFD Toolbox
   \\    /   O peration     | Website:  https://openfoam.org
    \\  /    A nd           | Version:  9
     \\/     M anipulation  |
\*---------------------------------------------------------------------------*/
FoamFile
{
    format      ascii;
    class       volVectorField;
    location    "1";
    object      U;
}
// * * * * * * * * * * * * * * * * * * * * * * * * * * * * * * * * * * * * * //

dimensions      [0 1 -1 0 0 0 0];

internalField   nonuniform List<vector> 
36360
(
(0.000798637 -0.122042 -0.500169)
(-0.00124527 -0.0982823 8.90053e-05)
(-0.000471833 -0.12375 -0.501747)
(-0.00289375 -0.0915101 3.52291e-05)
(-0.00159193 -0.114104 -0.501191)
(0.00977793 -0.102117 2.20971e-05)
(-0.000772195 -0.113796 -0.502167)
(0.0115474 -0.108885 2.14568e-05)
(-0.00155923 -0.108443 -4.97885e-05)
(-0.00179358 -0.111035 -7.93517e-07)
(-0.00261349 -0.106363 -2.53818e-05)
(-0.00232186 -0.108914 6.71762e-08)
(0.00466743 -0.110375 -1.20279e-05)
(0.00393075 -0.108933 -2.21701e-06)
(0.00641875 -0.113258 -2.17225e-05)
(0.00586769 -0.111494 -1.22229e-06)
(-0.00175698 -0.11134 8.34489e-07)
(-0.00175697 -0.11134 -8.29701e-07)
(-0.00224967 -0.109249 2.69446e-07)
(-0.00224966 -0.109249 -2.67844e-07)
(0.00390666 -0.108593 3.86175e-07)
(0.00390666 -0.108593 -3.80709e-07)
(0.0058106 -0.11117 1.4827e-07)
(0.00581059 -0.11117 -1.46586e-07)
(-0.00179356 -0.111033 7.96121e-07)
(-0.00155934 -0.108442 4.97786e-05)
(-0.0023218 -0.108913 -6.62263e-08)
(-0.00261345 -0.106362 2.53795e-05)
(0.00393079 -0.108932 2.21993e-06)
(0.00466733 -0.110373 1.20273e-05)
(0.00586765 -0.111493 1.22305e-06)
(0.00641867 -0.113255 2.17219e-05)
(-0.00124569 -0.0982804 -8.90135e-05)
(0.000798261 -0.122044 0.500169)
(-0.00289397 -0.0915083 -3.52308e-05)
(-0.000472126 -0.123752 0.501747)
(0.0097778 -0.102117 -2.20858e-05)
(-0.00159193 -0.114107 0.501191)
(0.0115471 -0.108884 -2.14536e-05)
(-0.000772295 -0.113799 0.502167)
(0.00175669 -0.118873 -0.499252)
(-0.00203969 -0.104409 0.000121829)
(0.00141576 -0.120321 -0.499793)
(-0.0011044 -0.101892 0.00011477)
(-0.00148603 -0.115374 -0.501454)
(0.00340541 -0.0941597 5.59648e-06)
(-0.00171188 -0.115239 -0.50144)
(0.0068606 -0.095652 1.49689e-05)
(0.000215242 -0.109878 -4.72758e-05)
(-0.00034315 -0.112538 -5.12457e-06)
(-0.000118361 -0.109514 -5.21401e-05)
(-0.000739156 -0.112363 -2.77805e-06)
(0.00228164 -0.106394 2.01984e-05)
(0.00100396 -0.106908 -5.30537e-06)
(0.00353007 -0.107621 2.38506e-06)
(0.00233619 -0.107157 -3.83334e-06)
(-0.000354404 -0.112974 8.36332e-07)
(-0.000354419 -0.112974 -8.30198e-07)
(-0.000747642 -0.112755 9.93209e-07)
(-0.000747652 -0.112755 -9.86528e-07)
(0.000915307 -0.106641 2.79533e-07)
(0.000915315 -0.10664 -2.66953e-07)
(0.0022847 -0.106839 4.23232e-07)
(0.0022847 -0.106838 -4.14749e-07)
(-0.000343234 -0.112537 5.12321e-06)
(0.000214907 -0.109876 4.72349e-05)
(-0.000739203 -0.112362 2.78118e-06)
(-0.000118687 -0.109512 5.21192e-05)
(0.00100398 -0.106907 5.3166e-06)
(0.00228154 -0.106392 -2.01705e-05)
(0.00233619 -0.107156 3.84128e-06)
(0.00352986 -0.107619 -2.37991e-06)
(-0.00204048 -0.104407 -0.000121901)
(0.00175683 -0.118875 0.499251)
(-0.00110503 -0.10189 -0.00011479)
(0.00141558 -0.120322 0.499793)
(0.00340683 -0.0941599 -5.50236e-06)
(-0.00148559 -0.115377 0.501454)
(0.00686143 -0.0956527 -1.49443e-05)
(-0.00171174 -0.115242 0.50144)
(0.00238392 -0.116687 -0.49875)
(-0.00349345 -0.106749 0.000107567)
(0.00207961 -0.117669 -0.498915)
(-0.00293919 -0.105872 0.000117764)
(-0.000498042 -0.114762 -0.501574)
(0.000442537 -0.0948899 -2.40086e-05)
(-0.00102404 -0.115167 -0.501391)
(0.00136935 -0.0941052 -8.11897e-06)
(0.000185037 -0.109889 -2.05806e-05)
(-8.24305e-05 -0.112437 -6.87255e-06)
(0.000211686 -0.109947 -3.60457e-05)
(-0.000186622 -0.112527 -6.59901e-06)
(0.00104733 -0.104918 6.22052e-05)
(6.84211e-05 -0.106764 -5.59397e-06)
(0.00143199 -0.105488 4.11266e-05)
(0.00028419 -0.106809 -5.85447e-06)
(-5.35667e-05 -0.112963 1.99346e-07)
(-5.35468e-05 -0.112963 -1.90167e-07)
(-0.000173218 -0.113001 5.11417e-07)
(-0.000173214 -0.113001 -5.06026e-07)
(-4.68439e-05 -0.106651 -3.95096e-09)
(-4.68375e-05 -0.10665 1.05525e-08)
(0.000173045 -0.106618 1.48267e-07)
(0.000173054 -0.106618 -1.39082e-07)
(-8.24444e-05 -0.112436 6.86188e-06)
(0.000184766 -0.109887 2.05304e-05)
(-0.000186671 -0.112526 6.60087e-06)
(0.000211401 -0.109945 3.60119e-05)
(6.84892e-05 -0.106763 5.59132e-06)
(0.00104754 -0.104917 -6.22241e-05)
(0.000284248 -0.106807 5.85843e-06)
(0.00143212 -0.105487 -4.11304e-05)
(-0.00349462 -0.106748 -0.000107598)
(0.00238434 -0.116688 0.498749)
(-0.00294014 -0.105871 -0.000117798)
(0.00207998 -0.11767 0.498914)
(0.00044404 -0.0948893 2.40458e-05)
(-0.000497248 -0.114764 0.501574)
(0.00137092 -0.094105 8.15797e-06)
(-0.0010232 -0.11517 0.501392)
(0.00282494 -0.11526 -0.498619)
(-0.00386579 -0.107923 8.03093e-05)
(0.00264273 -0.115908 -0.498648)
(-0.00376636 -0.107396 9.43505e-05)
(8.05119e-05 -0.113319 -0.501577)
(-3.6411e-05 -0.0972102 -5.54895e-05)
(-0.00012762 -0.114126 -0.501568)
(6.67986e-05 -0.0960261 -4.01395e-05)
(0.000180826 -0.109706 1.1779e-05)
(4.30532e-05 -0.112185 -4.59987e-06)
(0.000177459 -0.109786 -4.03633e-06)
(-9.88918e-06 -0.112315 -6.13258e-06)
(0.000866207 -0.104321 9.89593e-05)
(7.01243e-05 -0.106694 -3.02912e-06)
(0.00090702 -0.104568 8.17127e-05)
(4.70871e-05 -0.106737 -4.60189e-06)
(5.46416e-05 -0.112822 -2.08145e-07)
(5.46593e-05 -0.112822 2.09505e-07)
(1.68068e-05 -0.112901 -3.3634e-08)
(1.68535e-05 -0.112901 7.0774e-08)
(-4.32465e-05 -0.1067 -2.30338e-07)
(-4.32476e-05 -0.106699 2.39665e-07)
(-6.47787e-05 -0.106688 -1.38852e-07)
(-6.47716e-05 -0.106688 1.47351e-07)
(4.29803e-05 -0.112185 4.60635e-06)
(0.000180559 -0.109705 -1.18094e-05)
(-9.81164e-06 -0.112314 6.08224e-06)
(0.000177082 -0.109784 3.93984e-06)
(7.01558e-05 -0.106693 3.02996e-06)
(0.000866405 -0.104319 -9.89779e-05)
(4.71416e-05 -0.106735 4.59351e-06)
(0.000907241 -0.104566 -8.17425e-05)
(-0.00386731 -0.107923 -8.03278e-05)
(0.00282536 -0.115261 0.498618)
(-0.00376777 -0.107396 -9.43641e-05)
(0.00264316 -0.115909 0.498647)
(-3.52477e-05 -0.0972095 5.55486e-05)
(8.1196e-05 -0.113321 0.501577)
(6.81392e-05 -0.0960255 4.01835e-05)
(-0.000126882 -0.114129 0.501568)
(0.00300915 -0.114162 -0.498586)
(-0.00385294 -0.108691 5.39739e-05)
(0.0029491 -0.114685 -0.498585)
(-0.00388511 -0.108354 6.66367e-05)
(0.000222248 -0.111535 -0.501599)
(2.89401e-05 -0.0992579 -8.25463e-05)
(0.000195171 -0.112428 -0.501584)
(-2.89645e-05 -0.0983051 -6.96719e-05)
(0.000178085 -0.109625 3.78564e-05)
(0.000114414 -0.11193 -3.72344e-08)
(0.000179621 -0.109652 2.57601e-05)
(8.38525e-05 -0.112056 -2.48409e-06)
(0.0008126 -0.10398 0.000126223)
(0.000138733 -0.106462 1.33817e-06)
(0.000835773 -0.10413 0.000113737)
(0.000111071 -0.106592 -1.00445e-06)
(0.000101672 -0.112648 -2.16069e-07)
(0.000101688 -0.112647 2.32899e-07)
(7.99247e-05 -0.112737 -2.58971e-07)
(7.99471e-05 -0.112736 2.74611e-07)
(2.78344e-05 -0.106614 -1.75539e-07)
(2.78371e-05 -0.106613 1.92648e-07)
(-3.91063e-06 -0.106677 -2.42792e-07)
(-3.9081e-06 -0.106677 2.57187e-07)
(0.000114344 -0.111929 4.54265e-08)
(0.000177782 -0.109624 -3.78936e-05)
(8.38e-05 -0.112055 2.4875e-06)
(0.000179306 -0.109651 -2.58009e-05)
(0.000138742 -0.10646 -1.33209e-06)
(0.000812713 -0.103978 -0.000126239)
(0.000111092 -0.106591 1.00855e-06)
(0.000835913 -0.104129 -0.000113754)
(-0.00385456 -0.108691 -5.3972e-05)
(0.00300962 -0.114162 0.498584)
(-0.00388671 -0.108354 -6.66425e-05)
(0.00294954 -0.114686 0.498583)
(3.00351e-05 -0.0992574 8.26278e-05)
(0.000222966 -0.111537 0.501598)
(-2.78352e-05 -0.0983047 6.97431e-05)
(0.000195873 -0.11243 0.501584)
(0.00305409 -0.113217 -0.498569)
(-0.00373758 -0.109145 3.23502e-05)
(0.00304566 -0.113676 -0.498563)
(-0.00380463 -0.108951 4.256e-05)
(0.000202574 -0.109884 -0.501621)
(0.000138986 -0.100728 -0.000104422)
(0.000229169 -0.110681 -0.501607)
(7.95405e-05 -0.100063 -9.4102e-05)
(0.00017353 -0.109585 5.66265e-05)
(0.000158977 -0.111659 5.32885e-06)
(0.000173452 -0.109606 4.80671e-05)
(0.000138093 -0.111798 2.59843e-06)
(0.000779036 -0.103772 0.000145403)
(0.00016621 -0.106151 6.53433e-06)
(0.000793004 -0.103863 0.000136676)
(0.00015503 -0.106313 3.88471e-06)
(0.000142527 -0.112439 1.68693e-07)
(0.000142539 -0.112438 -1.4832e-07)
(0.000121901 -0.11255 -7.11087e-08)
(0.000121914 -0.112549 9.04825e-08)
(5.781e-05 -0.106427 2.19849e-07)
(5.78107e-05 -0.106426 -2.00083e-07)
(4.57309e-05 -0.106529 -2.16132e-08)
(4.57321e-05 -0.106529 4.05052e-08)
(0.000158894 -0.111658 -5.31987e-06)
(0.0001732 -0.109584 -5.66643e-05)
(0.000138017 -0.111797 -2.58966e-06)
(0.000173134 -0.109605 -4.81047e-05)
(0.000166212 -0.10615 -6.5267e-06)
(0.000779126 -0.103771 -0.000145418)
(0.000155036 -0.106312 -3.87751e-06)
(0.000793105 -0.103862 -0.000136691)
(-0.00373921 -0.109144 -3.23327e-05)
(0.00305454 -0.113218 0.498567)
(-0.00380627 -0.108951 -4.25495e-05)
(0.00304612 -0.113676 0.498561)
(0.000140024 -0.100727 0.000104519)
(0.000203276 -0.109885 0.501621)
(8.0608e-05 -0.100063 9.41921e-05)
(0.000229905 -0.110682 0.501607)
(0.00306026 -0.112371 -0.49855)
(-0.00359586 -0.10935 1.51785e-05)
(0.00306238 -0.112784 -0.498545)
(-0.00367061 -0.109276 2.32645e-05)
(0.000150031 -0.108466 -0.501643)
(0.000231853 -0.101689 -0.00012175)
(0.000183477 -0.109146 -0.501629)
(0.000183232 -0.101265 -0.000113598)
(0.000183258 -0.109516 6.97203e-05)
(0.000197258 -0.111355 1.0798e-05)
(0.000175287 -0.109557 6.37583e-05)
(0.000178222 -0.111511 8.08142e-06)
(0.000761971 -0.10363 0.000158703)
(0.000183249 -0.105803 1.18761e-05)
(0.000767843 -0.103697 0.000152661)
(0.000175142 -0.105981 9.21702e-06)
(0.000186781 -0.112175 8.88789e-07)
(0.000186791 -0.112175 -8.59303e-07)
(0.000164034 -0.112314 4.92861e-07)
(0.000164047 -0.112314 -4.7173e-07)
(7.75429e-05 -0.106176 9.29456e-07)
(7.75432e-05 -0.106175 -9.07948e-07)
(6.79706e-05 -0.106309 5.40888e-07)
(6.79715e-05 -0.106309 -5.20823e-07)
(0.000197175 -0.111354 -1.08012e-05)
(0.000182923 -0.109515 -6.97734e-05)
(0.000178134 -0.11151 -8.07374e-06)
(0.000174947 -0.109556 -6.37979e-05)
(0.000183255 -0.105802 -1.18719e-05)
(0.000762074 -0.103629 -0.000158724)
(0.000175142 -0.10598 -9.20991e-06)
(0.000767933 -0.103696 -0.000152678)
(-0.00359745 -0.10935 -1.51488e-05)
(0.00306071 -0.112371 0.498548)
(-0.00367224 -0.109276 -2.32417e-05)
(0.00306282 -0.112784 0.498543)
(0.000232913 -0.101689 0.000121855)
(0.000150746 -0.108467 0.501642)
(0.000184266 -0.101265 0.0001137)
(0.000184187 -0.109147 0.501629)
(0.00306869 -0.111587 -0.49853)
(-0.00345293 -0.109354 1.61594e-06)
(0.00306715 -0.111973 -0.498526)
(-0.00352718 -0.109375 8.04056e-06)
(0.000102586 -0.107246 -0.501664)
(0.000302307 -0.10225 -0.00013537)
(0.000132055 -0.107835 -0.50165)
(0.000264682 -0.102014 -0.000128971)
(0.000211029 -0.109387 7.89062e-05)
(0.000236121 -0.111013 1.60367e-05)
(0.000194095 -0.10946 7.46418e-05)
(0.000216215 -0.111189 1.33994e-05)
(0.000757715 -0.103489 0.000167914)
(0.000199658 -0.105422 1.69928e-05)
(0.000757764 -0.103562 0.000163719)
(0.00019124 -0.105617 1.44714e-05)
(0.000235634 -0.111853 1.81267e-06)
(0.000235642 -0.111852 -1.82116e-06)
(0.000210615 -0.112021 1.38932e-06)
(0.000210624 -0.112021 -1.2511e-06)
(9.62494e-05 -0.105865 1.86462e-06)
(9.62474e-05 -0.105864 -1.84274e-06)
(8.68927e-05 -0.106028 1.37914e-06)
(8.68993e-05 -0.106028 -1.34694e-06)
(0.000236047 -0.111013 -1.59905e-05)
(0.000210679 -0.109386 -7.89049e-05)
(0.000216136 -0.111189 -1.35146e-05)
(0.000193756 -0.109459 -7.48149e-05)
(0.000199654 -0.105421 -1.69791e-05)
(0.000757844 -0.103488 -0.000167922)
(0.000191277 -0.105616 -1.44782e-05)
(0.000757844 -0.103561 -0.000163755)
(-0.00345449 -0.109354 -1.60363e-06)
(0.00306914 -0.111587 0.498529)
(-0.00352875 -0.109375 -7.92743e-06)
(0.00306761 -0.111973 0.498524)
(0.000303379 -0.10225 0.000135487)
(0.000103291 -0.107247 0.501663)
(0.000265737 -0.102014 0.000129083)
(0.000132783 -0.107835 0.50165)
(0.00309057 -0.110833 -0.498507)
(-0.00331271 -0.109192 -9.00728e-06)
(0.00308201 -0.111208 -0.498503)
(-0.00338526 -0.109292 -4.00497e-06)
(6.64038e-05 -0.106164 -0.501683)
(0.000355232 -0.1025 -0.000146027)
(9.06275e-05 -0.106691 -0.501671)
(0.0003258 -0.10241 -0.000141024)
(0.000254107 -0.10918 8.53368e-05)
(0.000278401 -0.110624 2.07805e-05)
(0.000230013 -0.109294 8.23844e-05)
(0.000256391 -0.110825 1.8463e-05)
(0.000763711 -0.103307 0.000174293)
(0.000217649 -0.105004 2.16853e-05)
(0.00075891 -0.103405 0.000171392)
(0.000208376 -0.105218 1.93975e-05)
(0.000289713 -0.111467 2.92598e-06)
(0.000289725 -0.111467 -2.89893e-06)
(0.000261939 -0.111668 2.36575e-06)
(0.000261948 -0.111668 -2.33683e-06)
(0.000116145 -0.105492 2.94714e-06)
(0.000116145 -0.105491 -2.91746e-06)
(0.000105967 -0.105686 2.39416e-06)
(0.000105965 -0.105686 -2.36677e-06)
(0.000278332 -0.110623 -2.07693e-05)
(0.000253743 -0.109179 -8.53592e-05)
(0.000256321 -0.110824 -1.8449e-05)
(0.000229657 -0.109293 -8.24142e-05)
(0.000217657 -0.105003 -2.16672e-05)
(0.000763839 -0.103307 -0.000174297)
(0.000208384 -0.105217 -1.93828e-05)
(0.000759034 -0.103404 -0.000171397)
(-0.00331422 -0.109192 9.06155e-06)
(0.00309102 -0.110833 0.498506)
(-0.00338679 -0.109292 4.05269e-06)
(0.00308247 -0.111208 0.498502)
(0.000356311 -0.102501 0.000146156)
(6.71192e-05 -0.106165 0.501683)
(0.000326875 -0.10241 0.000141149)
(9.13404e-05 -0.106691 0.50167)
(0.00312759 -0.110079 -0.498482)
(-0.00317855 -0.108888 -1.73962e-05)
(0.00311141 -0.110457 -0.49848)
(-0.00324817 -0.109057 -1.34108e-05)
(4.16041e-05 -0.105166 -0.501703)
(0.000389408 -0.102508 -0.00015411)
(6.03825e-05 -0.105657 -0.50169)
(0.000371258 -0.102526 -0.000150302)
(0.000307914 -0.108883 8.98747e-05)
(0.00032804 -0.110177 2.51413e-05)
(0.000278598 -0.109043 8.78312e-05)
(0.000301959 -0.110408 2.29295e-05)
(0.000778321 -0.103058 0.000178787)
(0.000237992 -0.104538 2.58334e-05)
(0.000769145 -0.103192 0.000176695)
(0.000227436 -0.104778 2.38601e-05)
(0.00035001 -0.111012 4.10724e-06)
(0.000350003 -0.111012 -4.06204e-06)
(0.000319008 -0.111249 3.5093e-06)
(0.000319035 -0.111249 -3.46947e-06)
(0.00013825 -0.105052 4.06751e-06)
(0.000138182 -0.105051 -4.08973e-06)
(0.000126889 -0.105281 3.51707e-06)
(0.000126912 -0.10528 -3.48423e-06)
(0.000328018 -0.110177 -2.49278e-05)
(0.000307552 -0.108882 -8.99821e-05)
(0.000301878 -0.110408 -2.29998e-05)
(0.000278222 -0.109043 -8.78221e-05)
(0.000238092 -0.104538 -2.59268e-05)
(0.000778498 -0.103057 -0.000178655)
(0.000227424 -0.104777 -2.38202e-05)
(0.000769259 -0.103192 -0.000176719)
(-0.00318004 -0.108888 1.73804e-05)
(0.00312802 -0.110079 0.49848)
(-0.00324967 -0.109057 1.35057e-05)
(0.00311185 -0.110457 0.498478)
(0.000390483 -0.102508 0.000154299)
(4.22983e-05 -0.105166 0.501702)
(0.000372329 -0.102526 0.000150435)
(6.1097e-05 -0.105657 0.50169)
(0.00318094 -0.109302 -0.498454)
(-0.003046 -0.108455 -2.3903e-05)
(0.00315709 -0.109694 -0.498452)
(-0.0031147 -0.108686 -2.08043e-05)
(2.90271e-05 -0.104207 -0.501721)
(0.000423856 -0.102309 -0.000160812)
(4.22144e-05 -0.104683 -0.501709)
(0.000402745 -0.102433 -0.000157725)
(0.000371818 -0.108488 9.32684e-05)
(0.000386706 -0.109663 2.88182e-05)
(0.000337836 -0.108698 9.17474e-05)
(0.000356096 -0.109929 2.6938e-05)
(0.000801864 -0.102721 0.000181862)
(0.000261387 -0.104016 2.96184e-05)
(0.000788589 -0.102901 0.000180388)
(0.000249334 -0.104285 2.78486e-05)
(0.000417466 -0.110481 5.29372e-06)
(0.000417486 -0.110481 -5.25282e-06)
(0.000382759 -0.110757 4.69576e-06)
(0.0003828 -0.110757 -4.6648e-06)
(0.000162814 -0.104538 5.27326e-06)
(0.000162808 -0.104537 -5.22885e-06)
(0.000150167 -0.104805 4.69673e-06)
(0.000150207 -0.104804 -4.63429e-06)
(0.000386638 -0.109663 -2.87775e-05)
(0.000371414 -0.108487 -9.32872e-05)
(0.000355996 -0.109929 -2.70141e-05)
(0.000337431 -0.108697 -9.16986e-05)
(0.000261405 -0.104015 -2.95978e-05)
(0.000801992 -0.102721 -0.00018184)
(0.000249293 -0.104284 -2.77567e-05)
(0.000788691 -0.102901 -0.000180447)
(-0.00304746 -0.108455 2.39701e-05)
(0.00318135 -0.109302 0.498452)
(-0.00311618 -0.108686 2.09079e-05)
(0.00315751 -0.109694 0.49845)
(0.000424914 -0.10231 0.000160961)
(2.9723e-05 -0.104207 0.501721)
(0.000403804 -0.102433 0.000157848)
(4.29165e-05 -0.104683 0.501708)
(0.00324801 -0.108481 -0.498425)
(-0.00291448 -0.107905 -2.90272e-05)
(0.00321733 -0.108898 -0.498423)
(-0.00298386 -0.108194 -2.66167e-05)
(2.48828e-05 -0.103252 -0.501739)
(0.000448886 -0.101946 -0.00016582)
(3.40187e-05 -0.10373 -0.501727)
(0.000430732 -0.102148 -0.000163477)
(0.000444192 -0.107988 9.57969e-05)
(0.000454894 -0.10907 3.21325e-05)
(0.000405857 -0.108251 9.46105e-05)
(0.0004194 -0.109377 3.05247e-05)
(0.00083175 -0.102285 0.000184092)
(0.000288059 -0.103423 3.29101e-05)
(0.000815222 -0.102516 0.000183064)
(0.000274236 -0.103729 3.13186e-05)
(0.000493175 -0.109864 6.46472e-06)
(0.000493201 -0.109864 -6.41168e-06)
(0.000454222 -0.110184 5.88527e-06)
(0.000454247 -0.110184 -5.83747e-06)
(0.000190328 -0.103942 6.42195e-06)
(0.000190331 -0.103941 -6.36941e-06)
(0.000176192 -0.10425 5.85284e-06)
(0.000176194 -0.10425 -5.80494e-06)
(0.000454825 -0.10907 -3.20937e-05)
(0.000443766 -0.107987 -9.57968e-05)
(0.00041933 -0.109377 -3.04909e-05)
(0.000405443 -0.108251 -9.46167e-05)
(0.000288077 -0.103423 -3.28694e-05)
(0.000831878 -0.102285 -0.00018406)
(0.000274251 -0.103728 -3.12842e-05)
(0.000815351 -0.102516 -0.000183044)
(-0.00291593 -0.107905 2.91061e-05)
(0.0032484 -0.108481 0.498423)
(-0.00298532 -0.108194 2.669e-05)
(0.00321774 -0.108897 0.498422)
(0.000449933 -0.101946 0.000165982)
(2.55816e-05 -0.103252 0.501739)
(0.000431787 -0.102148 0.000163631)
(3.47282e-05 -0.10373 0.501726)
(0.0033279 -0.107599 -0.498393)
(-0.00277949 -0.107242 -3.30362e-05)
(0.00329091 -0.108048 -0.498391)
(-0.00285076 -0.107588 -3.11473e-05)
(2.92386e-05 -0.102273 -0.501756)
(0.000477944 -0.101429 -0.000169782)
(3.40305e-05 -0.102766 -0.501744)
(0.000456628 -0.101706 -0.000167876)
(0.000525201 -0.107376 9.7788e-05)
(0.000532921 -0.108387 3.50701e-05)
(0.00048257 -0.107696 9.68421e-05)
(0.000492545 -0.10874 3.36426e-05)
(0.00086896 -0.10174 0.000185796)
(0.000318091 -0.10275 3.59823e-05)
(0.000848613 -0.102027 0.000184973)
(0.000302665 -0.103098 3.44127e-05)
(0.000578105 -0.109154 7.5724e-06)
(0.000578181 -0.109154 -7.52432e-06)
(0.000534428 -0.109521 7.02959e-06)
(0.000534458 -0.109521 -6.97237e-06)
(0.000221107 -0.103256 7.40158e-06)
(0.000221155 -0.103256 -7.56613e-06)
(0.000205306 -0.103611 6.97173e-06)
(0.000205311 -0.103611 -6.92261e-06)
(0.000532899 -0.108387 -3.49973e-05)
(0.000524662 -0.107376 -9.77619e-05)
(0.00049248 -0.10874 -3.35955e-05)
(0.000482126 -0.107696 -9.68319e-05)
(0.000318153 -0.102749 -3.55697e-05)
(0.000869002 -0.10174 -0.00018557)
(0.000302687 -0.103097 -3.43447e-05)
(0.000848736 -0.102027 -0.000184915)
(-0.00278095 -0.107241 3.31108e-05)
(0.00332828 -0.107599 0.498391)
(-0.00285221 -0.107588 3.12314e-05)
(0.0032913 -0.108048 0.498389)
(0.000478945 -0.101429 0.000169735)
(2.99274e-05 -0.102273 0.501756)
(0.00045766 -0.101706 0.000168038)
(3.47354e-05 -0.102766 0.501744)
(0.00342035 -0.106639 -0.498361)
(-0.00263871 -0.106456 -3.61599e-05)
(0.00337686 -0.107129 -0.498358)
(-0.00271357 -0.106864 -3.46736e-05)
(4.22219e-05 -0.101247 -0.501773)
(0.000514761 -0.100763 -0.00017286)
(4.26163e-05 -0.101767 -0.501761)
(0.000489598 -0.101115 -0.000171051)
(0.000614859 -0.106647 9.93502e-05)
(0.000621637 -0.107602 3.76632e-05)
(0.0005677 -0.107027 9.85702e-05)
(0.000575776 -0.108008 3.6359e-05)
(0.000913547 -0.101079 0.000187124)
(0.000351906 -0.101981 3.874e-05)
(0.000889499 -0.101425 0.00018613)
(0.000334495 -0.102378 3.67942e-05)
(0.000673362 -0.108341 8.60674e-06)
(0.000673485 -0.108341 -8.58039e-06)
(0.000624444 -0.108761 8.12171e-06)
(0.000624408 -0.108761 -8.03693e-06)
(0.000255555 -0.102472 8.24069e-06)
(0.000255641 -0.102472 -8.78e-06)
(0.000237927 -0.102877 8.24917e-06)
(0.000237868 -0.102877 -7.76373e-06)
(0.000621719 -0.107602 -3.75496e-05)
(0.000614179 -0.106646 -9.92918e-05)
(0.000575626 -0.108008 -3.63607e-05)
(0.000567413 -0.107026 -9.86003e-05)
(0.000352066 -0.101981 -3.78717e-05)
(0.000913472 -0.101079 -0.000186527)
(0.000334433 -0.102377 -3.73696e-05)
(0.000889782 -0.101425 -0.000186474)
(-0.00264018 -0.106455 3.62217e-05)
(0.0034207 -0.106638 0.498359)
(-0.00271494 -0.106864 3.47772e-05)
(0.00337726 -0.107129 0.498356)
(0.000515714 -0.100763 0.000172515)
(4.29021e-05 -0.101247 0.501772)
(0.000490662 -0.101115 0.000171597)
(4.33415e-05 -0.101767 0.50176)
(0.00352531 -0.105586 -0.498324)
(-0.00249946 -0.105545 -3.85755e-05)
(0.00347566 -0.106125 -0.498323)
(-0.00257001 -0.106016 -3.74111e-05)
(6.41423e-05 -0.100153 -0.501789)
(0.000565483 -0.0999476 -0.000175148)
(5.98952e-05 -0.100709 -0.501777)
(0.000531602 -0.100374 -0.000173464)
(0.000713238 -0.105791 0.000100644)
(0.000722415 -0.106703 3.99479e-05)
(0.00066177 -0.106235 9.99551e-05)
(0.000670514 -0.107167 3.8763e-05)
(0.000965603 -0.100293 0.000188067)
(0.000390528 -0.101106 4.10976e-05)
(0.000937604 -0.100702 0.000186908)
(0.000370724 -0.101558 3.89889e-05)
(0.000779893 -0.107415 9.57514e-06)
(0.000780039 -0.107415 -9.56467e-06)
(0.000725275 -0.107893 9.14605e-06)
(0.000725217 -0.107893 -9.0352e-06)
(0.00029399 -0.101579 9.0597e-06)
(0.000294092 -0.101579 -9.88074e-06)
(0.000274362 -0.10204 9.4086e-06)
(0.00027428 -0.10204 -8.59269e-06)
(0.000722592 -0.106703 -3.98058e-05)
(0.000712459 -0.105791 -0.000100555)
(0.00067027 -0.107167 -3.87902e-05)
(0.000661576 -0.106235 -0.000100011)
(0.000390775 -0.101106 -3.99445e-05)
(0.000965444 -0.100293 -0.000187146)
(0.000370571 -0.101557 -3.99111e-05)
(0.000937987 -0.100702 -0.000187598)
(-0.00250088 -0.105545 3.86315e-05)
(0.00352565 -0.105586 0.498322)
(-0.00257131 -0.106016 3.75289e-05)
(0.00347607 -0.106124 0.498321)
(0.000566375 -0.0999478 0.000174598)
(6.48159e-05 -0.100153 0.501788)
(0.000532672 -0.100374 0.000174257)
(6.06319e-05 -0.100709 0.501777)
(0.00364247 -0.104427 -0.498287)
(-0.00239352 -0.104503 -4.04324e-05)
(0.00358634 -0.105021 -0.498286)
(-0.00244804 -0.105041 -3.95233e-05)
(9.52706e-05 -0.0989728 -0.501804)
(0.000637239 -0.0989935 -0.000176814)
(8.64695e-05 -0.0995744 -0.501792)
(0.000593584 -0.0994868 -0.000175247)
(0.000820693 -0.104801 0.000101667)
(0.00083611 -0.105681 4.19531e-05)
(0.000764281 -0.105313 0.000101093)
(0.000777747 -0.106208 4.08864e-05)
(0.00102502 -0.0993733 0.000188786)
(0.000434521 -0.100115 4.31322e-05)
(0.000993474 -0.0998502 0.000187423)
(0.000412057 -0.100626 4.09521e-05)
(0.000898415 -0.106366 1.04741e-05)
(0.000898574 -0.106366 -1.04745e-05)
(0.000837726 -0.106907 1.00984e-05)
(0.000837667 -0.106907 -9.96419e-06)
(0.000336658 -0.100569 9.84555e-06)
(0.000336768 -0.100569 -1.08757e-05)
(0.000314891 -0.10109 1.04601e-05)
(0.000314805 -0.101089 -9.39171e-06)
(0.000836362 -0.105681 -4.17909e-05)
(0.000819835 -0.104801 -0.000101551)
(0.000777419 -0.106208 -4.0927e-05)
(0.000764151 -0.105313 -0.000101169)
(0.000434837 -0.100114 -4.17918e-05)
(0.0010248 -0.0993732 -0.000187604)
(0.000411822 -0.100626 -4.20932e-05)
(0.000993927 -0.0998504 -0.000188394)
(-0.0023949 -0.104503 4.04858e-05)
(0.0036428 -0.104427 0.498285)
(-0.0024492 -0.105041 3.96528e-05)
(0.00358677 -0.105021 0.498284)
(0.000638085 -0.0989937 0.000176118)
(9.59448e-05 -0.0989727 0.501803)
(0.000594632 -0.099487 0.00017622)
(8.72153e-05 -0.0995743 0.501792)
(0.00377348 -0.103147 -0.498248)
(-0.00227989 -0.103318 -4.18475e-05)
(0.00371027 -0.103803 -0.498247)
(-0.00234265 -0.103928 -4.11404e-05)
(0.000133954 -0.0976901 -0.501819)
(0.000715511 -0.0979073 -0.000177982)
(0.000121435 -0.0983449 -0.501807)
(0.000670367 -0.0984673 -0.000176522)
(0.000939821 -0.103666 0.000102532)
(0.000963338 -0.104523 4.37128e-05)
(0.000877356 -0.104252 0.000101995)
(0.000898238 -0.105119 4.27527e-05)
(0.0010899 -0.0983115 0.000189388)
(0.000484059 -0.0989954 4.48977e-05)
(0.00105576 -0.0988606 0.00018786)
(0.000458928 -0.0995718 4.27e-05)
(0.00102951 -0.105182 1.13022e-05)
(0.00102966 -0.105182 -1.13092e-05)
(0.000962479 -0.105791 1.0976e-05)
(0.000962419 -0.105791 -1.08221e-05)
(0.000383767 -0.0994296 1.05898e-05)
(0.000383869 -0.0994295 -1.1773e-05)
(0.000359762 -0.100016 1.141e-05)
(0.000359673 -0.100016 -1.0153e-05)
(0.000963649 -0.104523 -4.3537e-05)
(0.000938899 -0.103666 -0.000102396)
(0.00089784 -0.105119 -4.27987e-05)
(0.000877263 -0.104251 -0.000102084)
(0.000484431 -0.0989952 -4.34333e-05)
(0.00108964 -0.0983116 -0.000188007)
(0.000458626 -0.0995714 -4.39812e-05)
(0.00105627 -0.0988607 -0.00018905)
(-0.00228129 -0.103318 4.18998e-05)
(0.00377379 -0.103147 0.498246)
(-0.00234379 -0.103928 4.12796e-05)
(0.00371069 -0.103803 0.498245)
(0.000716347 -0.0979075 0.000177178)
(0.000134635 -0.0976899 0.501818)
(0.000671419 -0.0984675 0.000177626)
(0.000122193 -0.0983448 0.501807)
(0.00391831 -0.101736 -0.498207)
(-0.0021458 -0.101988 -4.29103e-05)
(0.00384814 -0.102459 -0.498206)
(-0.00221846 -0.102671 -4.23667e-05)
(0.000179097 -0.0962901 -0.501833)
(0.00079561 -0.0966807 -0.000178694)
(0.000163357 -0.0970053 -0.501821)
(0.000748889 -0.097312 -0.000177377)
(0.00107136 -0.10238 0.00010338)
(0.00110411 -0.103218 4.5264e-05)
(0.00100268 -0.103042 0.000102824)
(0.00103231 -0.103889 4.43978e-05)
(0.00115931 -0.0970994 0.000189811)
(0.000538204 -0.0977381 4.6381e-05)
(0.00112294 -0.0977247 0.000188224)
(0.000510943 -0.0983848 4.42439e-05)
(0.00117351 -0.103853 1.20669e-05)
(0.00117366 -0.103853 -1.20715e-05)
(0.0011 -0.104536 1.17814e-05)
(0.00109994 -0.104536 -1.16098e-05)
(0.000435424 -0.0981524 1.13372e-05)
(0.000435514 -0.0981523 -1.25319e-05)
(0.000409135 -0.098809 1.22723e-05)
(0.000409043 -0.0988089 -1.08618e-05)
(0.00110444 -0.103219 -4.50826e-05)
(0.00107041 -0.10238 -0.000103228)
(0.00103186 -0.103889 -4.44461e-05)
(0.00100261 -0.103042 -0.000102924)
(0.000538596 -0.0977377 -4.49347e-05)
(0.00115906 -0.0970997 -0.000188371)
(0.000510591 -0.0983845 -4.5629e-05)
(0.00112349 -0.0977249 -0.000189591)
(-0.00214721 -0.101988 4.29692e-05)
(0.00391861 -0.101736 0.498205)
(-0.0022196 -0.102671 4.25143e-05)
(0.00384855 -0.102458 0.498204)
(0.000796445 -0.0966809 0.000177901)
(0.000179788 -0.09629 0.501832)
(0.000749959 -0.0973122 0.000178587)
(0.000164128 -0.0970051 0.501821)
(0.00407585 -0.100185 -0.498163)
(-0.00200361 -0.100525 -4.36795e-05)
(0.00399943 -0.100978 -0.498163)
(-0.00207726 -0.101271 -4.32899e-05)
(0.000229178 -0.0947612 -0.501846)
(0.000895419 -0.0953042 -0.00017882)
(0.000211052 -0.0955422 -0.501834)
(0.000834905 -0.0960119 -0.000178075)
(0.0012147 -0.100938 0.000104268)
(0.00125859 -0.101758 4.66214e-05)
(0.00114041 -0.101679 0.000103715)
(0.00117985 -0.102508 4.58805e-05)
(0.00123271 -0.0957302 0.000189702)
(0.000596724 -0.096332 4.73223e-05)
(0.00119456 -0.096435 0.000188765)
(0.000567181 -0.0970542 4.58799e-05)
(0.0013307 -0.10237 1.27973e-05)
(0.00133078 -0.10237 -1.27438e-05)
(0.0012505 -0.103131 1.25038e-05)
(0.00125048 -0.103132 -1.23506e-05)
(0.000491767 -0.0967278 1.23804e-05)
(0.000491801 -0.0967277 -1.28633e-05)
(0.000463068 -0.0974592 1.28045e-05)
(0.000463008 -0.0974592 -1.176e-05)
(0.00125871 -0.101758 -4.64974e-05)
(0.00121397 -0.100938 -0.000104162)
(0.0011795 -0.102508 -4.58862e-05)
(0.00114019 -0.101679 -0.000103773)
(0.000596926 -0.0963315 -4.66493e-05)
(0.00123268 -0.0957307 -0.000189021)
(0.000566932 -0.0970541 -4.68224e-05)
(0.001195 -0.0964349 -0.000189738)
(-0.00200492 -0.100525 4.37689e-05)
(0.00407617 -0.100185 0.498161)
(-0.00207844 -0.101271 4.3429e-05)
(0.00399981 -0.100978 0.49816)
(0.000896276 -0.0953046 0.000178563)
(0.000229912 -0.0947611 0.501845)
(0.000835919 -0.096012 0.000178997)
(0.000211825 -0.095542 0.501834)
(0.00424529 -0.0984805 -0.498118)
(-0.00189005 -0.098932 -4.42123e-05)
(0.00416273 -0.0993527 -0.498118)
(-0.00194446 -0.0997519 -4.39589e-05)
(0.000283711 -0.0930938 -0.501858)
(0.00105343 -0.0937651 -0.00017878)
(0.000263149 -0.093945 -0.501847)
(0.000960413 -0.0945557 -0.000178576)
(0.00136938 -0.0993282 0.000105006)
(0.00142652 -0.100131 4.79052e-05)
(0.00128953 -0.100155 0.000104698)
(0.00134089 -0.100965 4.72443e-05)
(0.00131029 -0.0941988 0.00018962)
(0.000659618 -0.0947676 4.82971e-05)
(0.00127011 -0.0949852 0.000189323)
(0.000627693 -0.09557 4.74897e-05)
(0.0015013 -0.100722 1.34567e-05)
(0.00150135 -0.100722 -1.33716e-05)
(0.00141437 -0.101567 1.31558e-05)
(0.0014144 -0.101567 -1.30435e-05)
(0.000552956 -0.0951464 1.32261e-05)
(0.000552961 -0.0951464 -1.32681e-05)
(0.000521796 -0.0959573 1.31363e-05)
(0.000521776 -0.0959573 -1.27417e-05)
(0.00142651 -0.100131 -4.78171e-05)
(0.00136879 -0.0993283 -0.000104961)
(0.00134074 -0.100965 -4.71898e-05)
(0.00128909 -0.100155 -0.000104688)
(0.000659696 -0.0947673 -4.80827e-05)
(0.00131041 -0.0941991 -0.000189414)
(0.000627638 -0.0955699 -4.77271e-05)
(0.00127036 -0.0949852 -0.000189589)
(-0.00189124 -0.098932 4.43143e-05)
(0.00424562 -0.0984803 0.498116)
(-0.00194564 -0.0997517 4.40771e-05)
(0.00416308 -0.0993524 0.498116)
(0.00105425 -0.0937654 0.00017886)
(0.000284468 -0.0930937 0.501857)
(0.000961284 -0.0945559 0.000178998)
(0.00026392 -0.0939449 0.501846)
(0.00442874 -0.0966103 -0.498071)
(-0.00177779 -0.0971297 -4.45535e-05)
(0.00433893 -0.0975662 -0.498071)
(-0.00183972 -0.0980545 -4.43958e-05)
(0.000344104 -0.091279 -0.501869)
(0.00123003 -0.092057 -0.000178639)
(0.000320405 -0.0922052 -0.501859)
(0.00113661 -0.092932 -0.000178683)
(0.00153738 -0.0975405 0.000105219)
(0.00160767 -0.0983288 4.9102e-05)
(0.00145083 -0.0984568 0.000105124)
(0.00151541 -0.0992518 4.85156e-05)
(0.00139261 -0.0924993 0.000189623)
(0.000727023 -0.0930371 4.93274e-05)
(0.00135026 -0.0933705 0.000189561)
(0.000692762 -0.0939236 4.87628e-05)
(0.00168491 -0.0989003 1.40526e-05)
(0.00168497 -0.0989004 -1.3955e-05)
(0.00159154 -0.0998333 1.3765e-05)
(0.00159159 -0.0998334 -1.36655e-05)
(0.000618799 -0.0934002 1.38561e-05)
(0.000618809 -0.0934001 -1.37777e-05)
(0.000585333 -0.0942944 1.36122e-05)