/*--------------------------------*- C++ -*----------------------------------*\
  =========                 |
  \\      /  F ield         | OpenFOAM: The Open Source CFD Toolbox
   \\    /   O peration     | Website:  https://openfoam.org
    \\  /    A nd           | Version:  9
     \\/     M anipulation  |
\*---------------------------------------------------------------------------*/
FoamFile
{
    format      ascii;
    class       volScalarField;
    location    "4.4";
    object      p;
}
// * * * * * * * * * * * * * * * * * * * * * * * * * * * * * * * * * * * * * //

dimensions      [0 2 -2 0 0 0 0];

internalField   nonuniform List<scalar> 
36360
(
20.1237
20.0833
20.1173
20.0876
20.0933
20.1064
20.0954
20.1013
20.0992
20.1003
20.0997
20.1004
20.0991
20.0993
20.0985
20.0989
20.1004
20.1004
20.1005
20.1005
20.0994
20.0994
20.0991
20.0991
20.1003
20.0992
20.1004
20.0997
20.0993
20.0991
20.0989
20.0985
20.0833
20.1237
20.0876
20.1173
20.1063
20.0933
20.1013
20.0954
20.11
20.0951
20.1165
20.0899
20.072
20.1273
20.0831
20.117
20.0999
20.0995
20.0994
20.1
20.1007
20.0985
20.0997
20.099
20.0995
20.0995
20.1001
20.1001
20.0985
20.0985
20.0991
20.0991
20.0995
20.0999
20.1
20.0994
20.0985
20.1007
20.099
20.0997
20.0951
20.11
20.0899
20.1165
20.1272
20.072
20.117
20.0831
20.0976
20.1041
20.1038
20.0998
20.0504
20.1461
20.061
20.1371
20.1031
20.0989
20.1012
20.0991
20.1045
20.0982
20.1023
20.0982
20.0982
20.0982
20.0988
20.0988
20.0974
20.0974
20.0979
20.0979
20.0989
20.1031
20.0991
20.1012
20.0982
20.1045
20.0982
20.1023
20.1041
20.0976
20.0998
20.1038
20.1461
20.0504
20.1371
20.061
20.0859
20.1109
20.0916
20.1078
20.0309
20.161
20.0403
20.154
20.1076
20.0992
20.1053
20.0989
20.1097
20.0986
20.107
20.0983
20.0971
20.0971
20.0976
20.0976
20.0966
20.0966
20.097
20.097
20.0992
20.1076
20.0989
20.1053
20.0986
20.1096
20.0983
20.107
20.1109
20.0859
20.1078
20.0916
20.1609
20.031
20.154
20.0404
20.0756
20.1154
20.0805
20.1134
20.0143
20.172
20.0222
20.1668
20.1122
20.1002
20.1099
20.0996
20.115
20.0996
20.1123
20.099
20.0965
20.0965
20.0968
20.0968
20.0962
20.0962
20.0964
20.0963
20.1002
20.1122
20.0997
20.1099
20.0996
20.115
20.0991
20.1124
20.1154
20.0756
20.1134
20.0806
20.1719
20.0144
20.1669
20.0224
20.0668
20.1182
20.071
20.117
20.0004
20.1799
20.007
20.1763
20.1165
20.1017
20.1144
20.1009
20.1198
20.101
20.1175
20.1003
20.0963
20.0963
20.0964
20.0964
20.0961
20.0961
20.0961
20.0961
20.1017
20.1165
20.1009
20.1144
20.101
20.1198
20.1003
20.1175
20.1182
20.0668
20.117
20.071
20.1799
20.0005
20.1762
20.0071
20.0593
20.1198
20.0629
20.1191
19.9888
20.1856
19.9944
20.183
20.1202
20.1033
20.1184
20.1025
20.124
20.1026
20.122
20.1018
20.0965
20.0965
20.0964
20.0964
20.0963
20.0963
20.0962
20.0962
20.1033
20.1202
20.1025
20.1184
20.1026
20.1239
20.1018
20.122
20.1198
20.0594
20.1191
20.0629
20.1856
19.9889
20.183
19.9944
20.0531
20.1205
20.0561
20.1203
19.9792
20.1897
19.9838
20.1878
20.1232
20.1048
20.1218
20.1041
20.1274
20.1041
20.1258
20.1034
20.0969
20.0969
20.0967
20.0967
20.0968
20.0968
20.0965
20.0965
20.1048
20.1232
20.1041
20.1217
20.1041
20.1273
20.1033
20.1257
20.1205
20.0531
20.1202
20.0561
20.1896
19.9793
20.1878
19.9839
20.0478
20.1207
20.0503
20.1207
19.9713
20.1925
19.9751
20.1912
20.1256
20.1063
20.1244
20.1056
20.1301
20.1056
20.1288
20.1049
20.0975
20.0975
20.0972
20.0972
20.0974
20.0974
20.0971
20.0971
20.1063
20.1255
20.1056
20.1244
20.1055
20.13
20.1048
20.1288
20.1207
20.0479
20.1207
20.0504
20.1925
19.9714
20.1912
19.9752
20.0434
20.1206
20.0455
20.1207
19.9646
20.1945
19.9678
20.1936
20.1274
20.1076
20.1265
20.107
20.1321
20.1068
20.1312
20.1062
20.0982
20.0982
20.0978
20.0978
20.0981
20.0981
20.0977
20.0977
20.1076
20.1274
20.1069
20.1265
20.1068
20.1321
20.1062
20.1311
20.1206
20.0434
20.1207
20.0455
20.1944
19.9647
20.1935
19.9679
20.0396
20.1202
20.0414
20.1204
19.9591
20.1957
19.9618
20.1952
20.1288
20.1086
20.1281
20.1081
20.1337
20.1079
20.133
20.1074
20.0989
20.0989
20.0985
20.0985
20.0987
20.0987
20.0984
20.0984
20.1086
20.1288
20.1081
20.1281
20.1079
20.1337
20.1074
20.133
20.1202
20.0396
20.1204
20.0414
20.1957
19.9592
20.1951
19.9618
20.0364
20.1196
20.0379
20.1199
19.9545
20.1965
19.9567
20.1962
20.1298
20.1095
20.1293
20.1091
20.1349
20.1087
20.1344
20.1083
20.0995
20.0995
20.0992
20.0992
20.0993
20.0993
20.0991
20.099
20.1095
20.1298
20.1091
20.1293
20.1087
20.1349
20.1083
20.1343
20.1196
20.0364
20.1199
20.0379
20.1965
19.9546
20.1962
19.9568
20.0336
20.1189
20.0349
20.1194
19.9506
20.1969
19.9525
20.1968
20.1306
20.1101
20.1302
20.1098
20.1357
20.1094
20.1353
20.1091
20.1
20.1
20.0998
20.0997
20.0998
20.0998
20.0996
20.0996
20.1101
20.1304
20.1098
20.1302
20.1094
20.1357
20.1091
20.1353
20.1191
20.0337
20.1193
20.0349
20.1969
19.9508
20.1967
19.9526
20.0312
20.1181
20.0324
20.1188
19.9474
20.197
19.949
20.197
20.1312
20.1106
20.1307
20.1103
20.1362
20.1098
20.136
20.1096
20.1004
20.1004
20.1002
20.1002
20.1002
20.1002
20.1
20.1
20.1105
20.1309
20.1104
20.1309
20.1098
20.1362
20.1096
20.136
20.1185
20.0313
20.1185
20.0324
20.197
19.9476
20.1969
19.9491
20.0291
20.1174
20.0302
20.1181
19.9448
20.1968
19.9461
20.197
20.1314
20.1109
20.1311
20.1107
20.1365
20.1101
20.1364
20.11
20.1007
20.1007
20.1006
20.1006
20.1005
20.1005
20.1004
20.1004
20.1108
20.1312
20.1108
20.1313
20.1101
20.1364
20.11
20.1364
20.1177
20.0293
20.1178
20.0301
20.1968
19.9449
20.1969
19.9461
20.0274
20.1167
20.0283
20.1173
19.9425
20.1964
19.9436
20.1967
20.1314
20.111
20.1313
20.1109
20.1365
20.1101
20.1365
20.1101
20.1009
20.1009
20.1008
20.1008
20.1006
20.1006
20.1005
20.1005
20.111
20.1313
20.111
20.1314
20.1101
20.1365
20.1101
20.1365
20.117
20.0275
20.117
20.0283
20.1965
19.9427
20.1966
19.9437
20.0259
20.1161
20.0266
20.1164
19.9407
20.1959
19.9416
20.1962
20.1312
20.1109
20.1313
20.111
20.1363
20.1101
20.1364
20.1101
20.1009
20.1009
20.1009
20.1009
20.1005
20.1005
20.1006
20.1006
20.1109
20.1312
20.111
20.1313
20.1101
20.1363
20.1101
20.1364
20.1161
20.026
20.1164
20.0267
20.1959
19.9409
20.1962
19.9417
20.0246
20.1153
20.0252
20.1157
19.9393
20.1952
19.94
20.1956
20.1309
20.1108
20.1311
20.1109
20.1359
20.1098
20.1361
20.11
20.1008
20.1008
20.1009
20.1009
20.1003
20.1003
20.1004
20.1004
20.1108
20.1308
20.1109
20.1311
20.1098
20.1359
20.11
20.1361
20.1153
20.0247
20.1157
20.0253
20.1952
19.9394
20.1955
19.9401
20.0235
20.1146
20.024
20.115
19.9382
20.1944
19.9387
20.1948
20.1303
20.1105
20.1306
20.1106
20.1353
20.1095
20.1356
20.1097
20.1006
20.1006
20.1007
20.1007
20.1001
20.1001
20.1002
20.1002
20.1105
20.1303
20.1106
20.1306
20.1094
20.1353
20.1096
20.1356
20.1146
20.0236
20.115
20.0241
20.1944
19.9383
20.1948
19.9388
20.0226
20.114
20.023
20.1143
19.9373
20.1935
19.9377
20.194
20.1296
20.1101
20.13
20.1103
20.1346
20.109
20.135
20.1092
20.1004
20.1003
20.1005
20.1005
20.0997
20.0997
20.0999
20.0999
20.1101
20.1296
20.1103
20.1299
20.1089
20.1346
20.1092
20.1349
20.114
20.0227
20.1143
20.0231
20.1934
19.9374
20.1939
19.9378
20.0219
20.1133
20.0222
20.1136
19.9367
20.1924
19.937
20.193
20.1289
20.1096
20.1293
20.1099
20.1337
20.1084
20.1342
20.1087
20.1
20.1
20.1002
20.1002
20.0992
20.0992
20.0994
20.0994
20.1096
20.1289
20.1098
20.1292
20.1083
20.1337
20.1087
20.1341
20.1133
20.0219
20.1136
20.0223
20.1924
19.9368
20.1929
19.9371
20.0213
20.1126
20.0216
20.113
19.9363
20.1913
19.9365
20.1919
20.1281
20.1091
20.1285
20.1093
20.1328
20.1077
20.1333
20.108
20.0996
20.0996
20.0998
20.0998
20.0986
20.0986
20.0989
20.0989
20.1091
20.1281
20.1093
20.1285
20.1077
20.1328
20.108
20.1332
20.1126
20.0213
20.113
20.0216
20.1913
19.9364
20.1919
19.9366
20.0209
20.112
20.0211
20.1124
19.9362
20.1901
19.9362
20.1907
20.1273
20.1085
20.1277
20.1088
20.1317
20.1069
20.1323
20.1073
20.0992
20.0991
20.0994
20.0994
20.098
20.098
20.0983
20.0983
20.1085
20.1272
20.1088
20.1277
20.1069
20.1317
20.1073
20.1323
20.1121
20.0209
20.1123
20.0211
20.1901
19.9363
20.1907
19.9363
20.0207
20.1115
20.0208
20.1118
19.9364
20.1889
19.9363
20.1895
20.1265
20.1079
20.1268
20.1082
20.1306
20.1061
20.1312
20.1065
20.0987
20.0987
20.0989
20.0989
20.0973
20.0973
20.0976
20.0976
20.1079
20.1263
20.1082
20.1268
20.1061
20.1306
20.1065
20.1312
20.1116
20.0208
20.1118
20.0208
20.1888
19.9365
20.1895
19.9364
20.0206
20.1109
20.0207
20.1113
19.9368
20.1875
19.9366
20.1882
20.1257
20.1073
20.1259
20.1076
20.1295
20.1053
20.1301
20.1057
20.0983
20.0983
20.0985
20.0985
20.0966
20.0966
20.097
20.097
20.1073
20.1254
20.1076
20.1261
20.1053
20.1295
20.1057
20.1301
20.1112
20.0208
20.1112
20.0207
20.1875
19.9369
20.1882
19.9366
20.0208
20.1104
20.0208
20.111
19.9375
20.1862
19.9371
20.1869
20.1249
20.1068
20.1249
20.107
20.1283
20.1045
20.1289
20.1049
20.0979
20.0979
20.0981
20.0981
20.096
20.096
20.0963
20.0963
20.1067
20.1245
20.1071
20.1253
20.1045
20.1283
20.1049
20.1289
20.1108
20.021
20.1106
20.0207
20.1862
19.9376
20.1868
19.9372
20.0213
20.1101
20.0211
20.1106
19.9385
20.1848
19.938
20.1855
20.124
20.1063
20.1241
20.1065
20.1272
20.1037
20.1277
20.1041
20.0977
20.0976
20.0978
20.0978
20.0955
20.0955
20.0957
20.0957
20.1062
20.1237
20.1065
20.1244
20.1037
20.1271
20.1041
20.1277
20.1104
20.0214
20.1103
20.0211
20.1848
19.9386
20.1855
19.938
20.022
20.1099
20.0217
20.1102
19.9398
20.1834
19.9391
20.1841
20.1232
20.1059
20.1234
20.106
20.126
20.103
20.1266
20.1034
20.0975
20.0975
20.0976
20.0976
20.095
20.095
20.0952
20.0952
20.1059
20.123
20.1061
20.1236
20.103
20.126
20.1034
20.1265
20.1101
20.0221
20.11
20.0216
20.1834
19.9399
20.1841
19.9392
20.0229
20.1097
20.0225
20.11
19.9415
20.182
19.9406
20.1827
20.1225
20.1056
20.1227
20.1057
20.1249
20.1024
20.1254
20.1027
20.0975
20.0975
20.0975
20.0975
20.0947
20.0947
20.0948
20.0948
20.1056
20.1223
20.1057
20.1228
20.1024
20.1248
20.1027
20.1254
20.1099
20.023
20.1098
20.0225
20.1819
19.9416
20.1826
19.9407
20.0242
20.1097
20.0235
20.1098
19.9436
20.1805
19.9425
20.1813
20.1219
20.1054
20.122
20.1055
20.1238
20.102
20.1243
20.1022
20.0976
20.0976
20.0975
20.0975
20.0945
20.0945
20.0946
20.0946
20.1054
20.1217
20.1055
20.1222
20.102
20.1238
20.1022
20.1243
20.1098
20.0242
20.1097
20.0236
20.1805
19.9437
20.1812
19.9426
20.0257
20.1097
20.0249
20.1097
19.9461
20.1791
19.9448
20.1798
20.1213
20.1054
20.1215
20.1054
20.1228
20.1017
20.1233
20.1018
20.098
20.0979
20.0978
20.0978
20.0946
20.0946
20.0945
20.0945
20.1054
20.1212
20.1054
20.1215
20.1017
20.1228
20.1018
20.1233
20.1097
20.0258
20.1097
20.025
20.1791
19.9462
20.1798
19.9449
20.0276
20.1098
20.0266
20.1097
19.949
20.1777
19.9475
20.1784
20.1208
20.1056
20.121
20.1055
20.122
20.1016
20.1224
20.1016
20.0985
20.0985
20.0982
20.0982
20.0948
20.0948
20.0947
20.0947
20.1056
20.1208
20.1055
20.121
20.1016
20.1219
20.1016
20.1224
20.1098
20.0276
20.1097
20.0266
20.1776
19.9491
20.1784
19.9476
20.0297
20.1099
20.0286
20.1098
19.9525
20.1762
19.9507
20.1769
20.1205
20.1059
20.1206
20.1057
20.1212
20.1017
20.1216
20.1016
20.0992
20.0992
20.0988
20.0988
20.0953
20.0953
20.0951
20.0951
20.1059
20.1205
20.1057
20.1206
20.1017
20.1212
20.1016
20.1216
20.1099
20.0298
20.1098
20.0286
20.1761
19.9525
20.1769
19.9508
20.0323
20.11
20.031
20.11
19.9564
20.1746
19.9544
20.1754
20.1203
20.1065
20.1204
20.1062
20.1206
20.1021
20.1209
20.1019
20.1002
20.1002
20.0997
20.0997
20.0961
20.0961
20.0957
20.0957
20.1065
20.1203
20.1062
20.1203
20.1021
20.1206
20.1019
20.1209
20.11
20.0323
20.11
20.031
20.1746
19.9565
20.1754
19.9544
20.0351
20.1101
20.0337
20.1101
19.961
20.1729
19.9586
20.1737
20.1202
20.1072
20.1202
20.1068
20.1202
20.1027
20.1204
20.1024
20.1013
20.1013
20.1007
20.1007
20.0971
20.0971
20.0966
20.0966
20.1072
20.1202
20.1068
20.1202
20.1027
20.1202
20.1024
20.1204
20.1101
20.0352
20.1101
20.0337
20.1728
19.961
20.1737
19.9587
20.0384
20.1102
20.0367
20.1102
19.9662
20.1709
19.9635
20.1719
20.1203
20.1081
20.1202
20.1076
20.12
20.1036
20.1201
20.1031
20.1026
20.1026
20.1019
20.1019
20.0983
20.0983
20.0977
20.0977
20.1081
20.1202
20.1076
20.1202
20.1036
20.12
20.1031
20.1201
20.1102
20.0384
20.1102
20.0367
20.1709
19.9663
20.1719
19.9636
20.0419
20.1104
20.0401
20.1102
19.9724
20.1684
19.9692
20.1697
20.1204
20.1092
20.1204
20.1087
20.12
20.1047
20.12
20.1041
20.1041
20.1041
20.1033
20.1033
20.0998
20.0998
20.099
20.099
20.1092
20.1204
20.1087
20.1204
20.1047
20.12
20.1041
20.12
20.1104
20.0419
20.1102
20.0401
20.1684
19.9724
20.1697
19.9692
20.0446
20.1113
20.0435
20.1105
19.9798
20.1651
19.9759
20.1669
20.1208
20.1106
20.1206
20.1099
20.1201
20.1061
20.12
20.1054
20.1057
20.1057
20.1049
20.1049
20.1014
20.1014
20.1006
20.1006
20.1106
20.1208
20.1099
20.1206
20.1061
20.1201
20.1054
20.12
20.1113
20.0447
20.1105
20.0435
20.1651
19.9798
20.1669
19.976
20.047
20.1123
20.0446
20.1132
19.9885
20.1604
19.9839
20.163
20.1218
20.1122
20.1212
20.1114
20.1207
20.1078
20.1203
20.1069
20.1075
20.1075
20.1066
20.1066
20.1033
20.1033
20.1023
20.1023
20.1122
20.1218
20.1113
20.1212
20.1078
20.1207
20.1069
20.1203
20.1122
20.0471
20.1132
20.0446
20.1603
19.9885
20.1629
19.984
20.1509
20.0624
20.132
20.0748
20.1408
20.0683
20.1252
20.0788
20.0932
20.0998
20.0966
20.1
20.0958
20.0997
20.0976
20.0995
20.1001
20.1001
20.1001
20.1001
20.0998
20.0998
20.0994
20.0994
20.0998
20.0932
20.1
20.0966
20.0997
20.0958
20.0995
20.0976
20.0624
20.1508
20.0748
20.132
20.0683
20.1408
20.0788
20.1251
20.1432
20.0742
20.1457
20.0699
20.1337
20.0775
20.1368
20.0739
20.0905
20.0981
20.0917
20.0991
20.0945
20.0989
20.0951
20.0995
20.0995
20.0995
20.0999
20.0999
20.0994
20.0994
20.0998
20.0998
20.0981
20.0905
20.0991
20.0917
20.0989
20.0945
20.0995
20.0951
20.0742
20.1432
20.0699
20.1457
20.0775
20.1337
20.0739
20.1367
20.1398
20.0786
20.1415
20.0769
20.128
20.0822
20.1309
20.0802
20.0908
20.0968
20.0903
20.0973
20.0956
20.0981
20.0948
20.0984
20.0983
20.0983
20.0989
20.0989
20.0983
20.0983
20.0988
20.0988
20.0968
20.0908
20.0973
20.0903
20.0981
20.0956
20.0984
20.0948
20.0786
20.1398
20.0769
20.1414
20.0822
20.1279
20.0802
20.1309
20.137
20.08
20.1383
20.0795
20.1223
20.0846
20.1251
20.0836
20.0923
20.0966
20.0914
20.0966
20.0983
20.0982
20.0968
20.098
20.0971
20.0971
20.0976
20.0976
20.0972
20.0972
20.0977
20.0977
20.0966
20.0923
20.0966
20.0914
20.0982
20.0983
20.098
20.0968
20.08
20.1369
20.0796
20.1383
20.0846
20.1223
20.0836
20.1251
20.1345
20.0798
20.1357
20.08
20.1173
20.0854
20.1197
20.0851
20.094
20.0971
20.0932
20.0967
20.1013
20.0989
20.0998
20.0985
20.0964
20.0964
20.0967
20.0967
20.0966
20.0966
20.0969
20.0969
20.0971
20.094
20.0967
20.0932
20.0989
20.1013
20.0985
20.0998
20.0798
20.1345
20.08
20.1357
20.0854
20.1173
20.0851
20.1197
20.1323
20.0789
20.1334
20.0794
20.1129
20.0853
20.115
20.0854
20.0956
20.0979
20.0948
20.0975
20.104
20.1001
20.1027
20.0995
20.0963
20.0963
20.0963
20.0963
20.0965
20.0965
20.0965
20.0965
20.0979
20.0956
20.0975
20.0948
20.1001
20.104
20.0995
20.1027
20.0789
20.1323
20.0794
20.1334
20.0853
20.1128
20.0854
20.115
20.1304
20.0775
20.1313
20.0782
20.109
20.0846
20.1109
20.085
20.0967
20.099
20.0962
20.0984
20.1061
20.1014
20.1051
20.1007
20.0966
20.0966
20.0964
20.0964
20.0968
20.0968
20.0966
20.0966
20.0989
20.0967
20.0984
20.0962
20.1014
20.106
20.1007
20.1051
20.0775
20.1304
20.0782
20.1313
20.0846
20.109
20.085
20.1109
20.1287
20.076
20.1295
20.0768
20.1058
20.0836
20.1073
20.0841
20.0975
20.1
20.0971
20.0995
20.1077
20.1028
20.1069
20.1021
20.0971
20.0971
20.0968
20.0968
20.0973
20.0973
20.097
20.097
20.1
20.0975
20.0995
20.0971
20.1027
20.1077
20.1021
20.1069
20.0761
20.1286
20.0768
20.1295
20.0836
20.1057
20.0841
20.1073
20.1271
20.0745
20.1279
20.0753
20.1029
20.0824
20.1043
20.083
20.098
20.101
20.0978
20.1005
20.1089
20.104
20.1083
20.1034
20.0978
20.0978
20.0975
20.0975
20.0981
20.0981
20.0977
20.0977
20.101
20.098
20.1005
20.0978
20.104
20.1089
20.1034
20.1083
20.0745
20.1271
20.0753
20.1278
20.0824
20.1029
20.083
20.1043
20.1257
20.0731
20.1264
20.0738
20.1004
20.0812
20.1016
20.0818
20.0983
20.1019
20.0982
20.1015
20.1097
20.1052
20.1093
20.1046
20.0986
20.0986
20.0982
20.0982
20.0988
20.0988
20.0984
20.0984
20.1019
20.0983
20.1015
20.0982
20.1051
20.1097
20.1046
20.1093
20.0731
20.1256
20.0738
20.1263
20.0812
20.1004
20.0818
20.1016
20.1244
20.0717
20.125
20.0724
20.0983
20.0799
20.0993
20.0806
20.0983
20.1027
20.0983
20.1024
20.1102
20.1061
20.11
20.1057
20.0994
20.0994
20.099
20.099
20.0995
20.0995
20.0992
20.0992
20.1027
20.0983
20.1023
20.0983
20.1061
20.1102
20.1057
20.11
20.0717
20.1243
20.0724
20.125
20.08
20.0983
20.0806
20.0993
20.1232
20.0705
20.1238
20.0711
20.0964
20.0788
20.0973
20.0794
20.0982
20.1034
20.0982
20.1031
20.1106
20.1069
20.1104
20.1066
20.1
20.1
20.0997
20.0997
20.1002
20.1002
20.0999
20.0999
20.1034
20.0982
20.1031
20.0982
20.1069
20.1105
20.1065
20.1104
20.0705
20.1231
20.0711
20.1237
20.0788
20.0964
20.0794
20.0973
20.1221
20.0693
20.1226
20.0699
20.0947
20.0776
20.0955
20.0782
20.098
20.104
20.0981
20.1037
20.1107
20.1076
20.1106
20.1073
20.1006
20.1006
20.1003
20.1003
20.1008
20.1008
20.1005
20.1005
20.104
20.098
20.1037
20.0981
20.1076
20.1107
20.1073
20.1106
20.0693
20.122
20.0699
20.1226
20.0776
20.0947
20.0782
20.0955
20.121
20.0682
20.1215
20.0687
20.0932
20.0765
20.0939
20.0771
20.0978
20.1044
20.0979
20.1042
20.1107
20.1081
20.1107
20.1078
20.1011
20.1011
20.1009
20.1008
20.1013
20.1012
20.101
20.101
20.1044
20.0978
20.1042
20.0979
20.108
20.1106
20.1078
20.1107
20.0682
20.121
20.0687
20.1215
20.0766
20.0932
20.0771
20.0939
20.12
20.0672
20.1205
20.0677
20.0918
20.0756
20.0925
20.0761
20.0975
20.1047
20.0976
20.1046
20.1105
20.1084
20.1105
20.1082
20.1014
20.1014
20.1013
20.1013
20.1016
20.1016
20.1014
20.1014
20.1047
20.0975
20.1046
20.0976
20.1084
20.1104
20.1082
20.1106
20.0672
20.12
20.0677
20.1205
20.0756
20.0918
20.0761
20.0925
20.1191
20.0663
20.1196
20.0668
20.0906
20.0747
20.0912
20.0751
20.0972
20.1048
20.0973
20.1048
20.1103
20.1086
20.1102
20.1085
20.1017
20.1017
20.1016
20.1016
20.1018
20.1018
20.1017
20.1017
20.1048
20.0971
20.1048
20.0973
20.1085
20.11
20.1085
20.1104
20.0663
20.1191
20.0668
20.1195
20.0747
20.0906
20.0751
20.0912
20.1183
20.0655
20.1187
20.0659
20.0896
20.0738
20.0901
20.0742
20.0968
20.1048
20.097
20.1048
20.1098
20.1086
20.11
20.1086
20.1018
20.1018
20.1018
20.1018
20.1019
20.1019
20.1018
20.1018
20.1048
20.0968
20.1048
20.097
20.1086
20.1098
20.1086
20.11
20.0656
20.1182
20.0659
20.1187
20.0738
20.0895
20.0742
20.0901
20.1175
20.0648
20.1179
20.0652
20.0886
20.0731
20.0891
20.0734
20.0965
20.1048
20.0966
20.1048
20.1096
20.1085
20.1097
20.1085
20.1019
20.1019
20.1019
20.1018
20.1018
20.1018
20.1019
20.1019
20.1048
20.0965
20.1048
20.0966
20.1085
20.1096
20.1085
20.1097
20.0648
20.1174
20.0652
20.1178
20.0731
20.0886
20.0734
20.089
20.1167
20.0642
20.1171
20.0645
20.0877
20.0724
20.0881
20.0727
20.0962
20.1046
20.0963
20.1047
20.1094
20.1083
20.1095
20.1084
20.1018
20.1018
20.1018
20.1018
20.1017
20.1017
20.1018
20.1018
20.1046
20.0962
20.1047
20.0963
20.1083
20.1094
20.1084
20.1095
20.0642
20.1167
20.0645
20.1171
20.0724
20.0877
20.0727
20.0881
20.1161
20.0636
20.1164
20.0639
20.0869
20.0718
20.0873
20.072
20.0959
20.1044
20.096
20.1045
20.1091
20.108
20.1093
20.1082
20.1017
20.1017
20.1018
20.1018
20.1015
20.1015
20.1016
20.1016
20.1044
20.0959
20.1045
20.096
20.108
20.1091
20.1082
20.1093
20.0637
20.116
20.0639
20.1163
20.0718
20.0869
20.0721
20.0873
20.1155
20.0632
20.1158
20.0634
20.0862
20.0712
20.0866
20.0715
20.0955
20.1042
20.0958
20.1043
20.1088
20.1077
20.1089
20.1079
20.1016
20.1016
20.1016
20.1016
20.1013
20.1013
20.1014
20.1014
20.1042
20.0956
20.1043
20.0958
20.1077
20.1088
20.1079
20.1089
20.0632
20.1154
20.0634
20.1157
20.0712
20.0862
20.0715
20.0865
20.115
20.0629
20.1152
20.063
20.0857
20.0708
20.0859
20.071
20.0953
20.104
20.0954
20.1041
20.1085
20.1073
20.1087
20.1075
20.1014
20.1014
20.1015
20.1015
20.101
20.101
20.1012
20.1011
20.104
20.0953
20.1041
20.0954
20.1073
20.1085
20.1075
20.1087
20.0629
20.1149
20.063
20.1152
20.0708
20.0857
20.071
20.0859
20.1146
20.0627
20.1148
20.0628
20.0852
20.0705
20.0854
20.0706
20.0951
20.1038
20.0952
20.1039
20.1082
20.107
20.1084
20.1072
20.1013
20.1013
20.1013
20.1013
20.1007
20.1007
20.1009
20.1009
20.1038
20.0951
20.1039
20.0952
20.107
20.1082
20.1072
20.1083
20.0627
20.1145
20.0628
20.1147
20.0705
20.0852
20.0706
20.0854
20.1143
20.0626
20.1144
20.0626
20.0849
20.0702
20.0851
20.0703
20.0949
20.1036
20.095
20.1037
20.1079
20.1066
20.108
20.1068
20.1011
20.1011
20.1012
20.1012
20.1005
20.1005
20.1006
20.1006
20.1036
20.0949
20.1037
20.095
20.1066
20.1079
20.1068
20.108
20.0626
20.1142
20.0626
20.1143
20.0703
20.0849
20.0704
20.0851
20.1141
20.0626
20.1141
20.0626
20.0848
20.0701
20.0848
20.0702
20.0948
20.1035
20.0949
20.1035
20.1076
20.1063
20.1077
20.1064
20.1011
20.1011
20.1011
20.1011
20.1003
20.1002
20.1004
20.1004
20.1034
20.0948
20.1035
20.0949
20.1063
20.1076
20.1064
20.1077
20.0626
20.114
20.0626
20.1141
20.0701
20.0848
20.0702
20.0848
20.114
20.0628
20.114
20.0627
20.0848
20.0701
20.0848
20.0701
20.0948
20.1034
20.0948
20.1034
20.1073
20.106
20.1074
20.1061
20.1011
20.1011
20.1011
20.1011
20.1001
20.1001
20.1002
20.1002
20.1034
20.0948
20.1034
20.0948
20.106
20.1073
20.1061
20.1075
20.0628
20.1139
20.0627
20.1139
20.0702
20.0848
20.0701
20.0847
20.114
20.063
20.114
20.0629
20.0849
20.0702
20.0848
20.0702
20.0949
20.1034
20.0949
20.1034
20.1072
20.1058
20.1072
20.1059
20.1012
20.1012
20.1011
20.1011
20.1001
20.1
20.1001
20.1001
20.1034
20.0949
20.1034
20.0949
20.1058
20.1071
20.1059
20.1072
20.063
20.114
20.0629
20.1139
20.0703
20.0849
20.0702
20.0848
20.1142
20.0637
20.1141
20.0634
20.0852
20.0705
20.0851
20.0704
20.0951
20.1035
20.095
20.1034
20.107
20.1057
20.1071
20.1057
20.1014
20.1014
20.1013
20.1013
20.1001
20.1001
20.1001
20.1001
20.1035
20.0951
20.1034
20.095
20.1057
20.107
20.1057
20.1071
20.0638
20.1141
20.0634
20.114
20.0705
20.0852
20.0704
20.085
20.1145
20.0646
20.1143
20.0641
20.0857
20.0708
20.0855
20.0707
20.0954
20.1037
20.0952
20.1036
20.107
20.1057
20.107
20.1057
20.1017
20.1017
20.1015
20.1015
20.1003
20.1003
20.1002
20.1002
20.1037
20.0954
20.1036
20.0952
20.1057
20.107
20.1057
20.107
20.0646
20.1144
20.0642
20.1143
20.0708
20.0857
20.0707
20.0854
20.1149
20.0657
20.1147
20.0651
20.0864
20.0712
20.086
20.071
20.0958
20.1041
20.0956
20.1039
20.107
20.1058
20.107
20.1057
20.1022
20.1022
20.102
20.102
20.1007
20.1007
20.1005
20.1005
20.1041
20.0958
20.1039
20.0956
20.1058
20.107
20.1057
20.107
20.0657
20.1148
20.0651
20.1146
20.0712
20.0864
20.071
20.086
20.1154
20.0666
20.1151
20.0663
20.0873
20.0719
20.0868
20.0714
20.0963
20.1045
20.096
20.1043
20.1071
20.1061
20.1071
20.1059
20.1029
20.1029
20.1025
20.1025
20.1012
20.1012
20.1009
20.1009
20.1045
20.0963
20.1043
20.096
20.1061
20.1071
20.1059
20.1071
20.0666
20.1154
20.0664
20.1151
20.0719
20.0873
20.0714
20.0868
20.1161
20.0672
20.1157
20.0668
20.0883
20.0729
20.0878
20.0724
20.0969
20.1052
20.0966
20.1048
20.1074
20.1065
20.1072
20.1063
20.1036
20.1036
20.1032
20.1032
20.1019
20.1019
20.1015
20.1015
20.1052
20.0969
20.1048
20.0966
20.1065
20.1074
20.1063
20.1072
20.0672
20.116
20.0669
20.1157
20.0729
20.0883
20.0724
20.0878
20.1167
20.0681
20.1164
20.0676
20.0895
20.074
20.0889
20.0734
20.0976
20.1059
20.0972
20.1055
20.1077
20.1071
20.1075
20.1068
20.1046
20.1046
20.1041
20.1041
20.1027
20.1027
20.1023
20.1023
20.1059
20.0976
20.1055
20.0972
20.1071
20.1077
20.1068
20.1075
20.0681
20.1167
20.0676
20.1163
20.074
20.0895
20.0735
20.0889
20.1174
20.0691
20.1171
20.0686
20.0909
20.0751
20.0902
20.0745
20.0984
20.1068
20.098
20.1063
20.1081
20.1078
20.1079
20.1074
20.1057
20.1056
20.1051
20.1051
20.1038
20.1038
20.1032
20.1032
20.1068
20.0984
20.1063
20.098
20.1078
20.1081
20.1074
20.1079
20.0691
20.1173
20.0686
20.117
20.0751
20.0908
20.0745
20.0902
20.1179
20.0704
20.1176
20.0697
20.0923
20.0763
20.0916
20.0756
20.0994
20.1078
20.0989
20.1073
20.1087
20.1087
20.1084
20.1082
20.1068
20.1068
20.1062
20.1062
20.1049
20.1049
20.1043
20.1043
20.1078
20.0994
20.1073
20.0989
20.1087
20.1087
20.1082
20.1084
20.0704
20.1178
20.0697
20.1176
20.0763
20.0922
20.0757
20.0915
20.1179
20.072
20.118
20.0711
20.0936
20.0776
20.0929
20.0769
20.1005
20.1089
20.0999
20.1083
20.1093
20.1097
20.109
20.1092
20.1081
20.1081
20.1075
20.1075
20.1062
20.1062
20.1056
20.1056
20.1089
20.1005
20.1083
20.0999
20.1097
20.1093
20.1092
20.109
20.072
20.1179
20.0711
20.1179
20.0776
20.0935
20.0769
20.0929
20.1171
20.0742
20.1177
20.073
20.0945
20.0793
20.0941
20.0784
20.1017
20.1101
20.1011
20.1095
20.1101
20.1108
20.1097
20.1102
20.1095
20.1095
20.1088
20.1088
20.1076
20.1076
20.1069
20.1069
20.1101
20.1017
20.1095
20.1011
20.1108
20.11
20.1102
20.1097
20.0742
20.1171
20.073
20.1176
20.0793
20.0945
20.0784
20.0941
20.1128
20.0796
20.1159
20.0761
20.0932
20.083
20.0945
20.0806
20.103
20.1115
20.1022
20.1107
20.1109
20.1121
20.1104
20.1114
20.1109
20.1109
20.1102
20.1102
20.1091
20.1091
20.1084
20.1084
20.1114
20.103
20.1107
20.1022
20.1121
20.1109
20.1114
20.1104
20.0796
20.1128
20.0761
20.1159
20.083
20.0932
20.0806
20.0945
20.1229
20.0705
20.1088
20.0841
20.1009
20.0775
20.0909
20.0864
20.1042
20.1133
20.104
20.1123
20.1121
20.1138
20.1117
20.1129
20.1124
20.1124
20.1117
20.1117
20.1107
20.1107
20.1099
20.1099
20.1133
20.1042
20.1123
20.104
20.1138
20.1121
20.1129
20.1117
20.0705
20.1229
20.0841
20.1088
20.0775
20.1009
20.0864
20.0909
20.1646
20.055
20.1418
20.0686
20.1584
20.0579
20.1373
20.0712
20.0875
20.0988
20.0932
20.0998
20.0901
20.0993
20.0948
20.0999
20.1001
20.1001
20.1002
20.1002
20.1001
20.1001
20.1001
20.1001
20.0988
20.0875
20.0998
20.0933
20.0993
20.0901
20.0999
20.0948
20.055
20.1645
20.0686
20.1417
20.0579
20.1584
20.0712
20.1372
20.1514
20.0757
20.1555
20.0681
20.1484
20.0742
20.1515
20.0682
20.0842
20.0951
20.0858
20.0971
20.0869
20.0966
20.0884
20.0982
20.0992
20.0992
20.0998
20.0999
20.0994
20.0994
20.0999
20.0999
20.0951
20.0842
20.0971
20.0858
20.0966
20.0869
20.0982
20.0884
20.0757
20.1513
20.0681
20.1555
20.0742
20.1483
20.0682
20.1515
20.1475
20.0833
20.1491
20.0803
20.1451
20.08
20.1466
20.0778
20.0841
20.0927
20.0838
20.0937
20.0867
20.0947
20.0865
20.0955
20.0973
20.0973
20.0983
20.0983
20.098
20.098
20.0987
20.0987
20.0927
20.0841
20.0937
20.0838
20.0947
20.0867
20.0955
20.0865
20.0832
20.1474
20.0803
20.1491
20.08
20.1451
20.0778
20.1465
20.1451
20.0863
20.1462
20.0851
20.1429
20.0821
20.1439
20.0814
20.085
20.0918
20.0845
20.0921
20.0877
20.0941
20.0872
20.0942
20.0956
20.0956
20.0964
20.0964
20.0966
20.0966
20.0972
20.0972
20.0918
20.085
20.0921
20.0845
20.0941
20.0877
20.0942
20.0872
20.0862
20.1451
20.0851
20.1461
20.0821
20.1429
20.0814
20.1439
20.1435
20.0872
20.1443
20.0869
20.1412
20.0823
20.142
20.0824
20.086
20.0916
20.0855
20.0916
20.0888
20.0942
20.0883
20.094
20.0945
20.0945
20.0949
20.0949
20.0957
20.0957
20.0961
20.0961
20.0916
20.086
20.0916
20.0855
20.0942
20.0889
20.094
20.0883
20.0872
20.1435
20.0869
20.1442
20.0823
20.1412
20.0824
20.142
20.1422
20.0871
20.1428
20.0872
20.1398
20.0817
20.1405
20.0821
20.0866
20.0918
20.0863
20.0917
20.0897
20.0947
20.0893
20.0944
20.0941
20.0941
20.0942
20.0942
20.0954
20.0954
20.0955
20.0955
20.0918
20.0866
20.0917
20.0864
20.0947
20.0897
20.0944
20.0893
20.0871
20.1422
20.0872
20.1428
20.0817
20.1397
20.0821
20.1404
20.1411
20.0865
20.1416
20.0869
20.1385
20.0807
20.1391
20.0813
20.087
20.0922
20.0868
20.092
20.0902
20.0955
20.09
20.0951
20.0942
20.0942
20.0941
20.0941
20.0956
20.0956
20.0955
20.0955
20.0922
20.087
20.092
20.0868
20.0955
20.0902
20.0951
20.09
20.0865
20.141
20.0869
20.1416
20.0807
20.1384
20.0813
20.1391
20.14
20.0857
20.1405
20.0861
20.1373
20.0795
20.1379
20.0801
20.0871
20.0927
20.0871
20.0925
20.0905
20.0962
20.0904
20.0959
20.0946
20.0946
20.0944
20.0943
20.0961
20.0961
20.0958
20.0958
20.0927
20.0871
20.0925
20.0871
20.0962
20.0905
20.0959
20.0904
20.0857
20.14
20.0861
20.1405
20.0795
20.1372
20.0801
20.1378
20.139
20.0848
20.1395
20.0852
20.1362
20.0782
20.1367
20.0788
20.0871
20.0932
20.0871
20.093
20.0906
20.097
20.0906
20.0966
20.0951
20.0951
20.0948
20.0948
20.0968
20.0968
20.0964
20.0964
20.0932
20.0871
20.093
20.0871
20.097
20.0906
20.0966
20.0906
20.0848
20.139
20.0852
20.1395
20.0782
20.1361
20.0788
20.1367
20.1381
20.0838
20.1386
20.0843
20.1352
20.0769
20.1357
20.0776
20.0869
20.0936
20.087
20.0934
20.0906
20.0976
20.0906
20.0973
20.0958
20.0958
20.0955
20.0955
20.0975
20.0975
20.0971
20.0971
20.0936
20.0869
20.0934
20.087
20.0976
20.0906
20.0973
20.0906
20.0838
20.1381
20.0843
20.1385
20.0769
20.1351
20.0776
20.1356
20.1372
20.0828
20.1377
20.0833
20.1342
20.0757
20.1347
20.0763
20.0867
20.094
20.0868
20.0938
20.0904
20.0982
20.0905
20.0979
20.0964
20.0964
20.0961
20.0961
20.0982
20.0982
20.0979
20.0979
20.094
20.0867
20.0938
20.0868
20.0982
20.0904
20.0979
20.0905
20.0828
20.1372
20.0833
20.1376
20.0757
20.1341
20.0763
20.1346
20.1364
20.0819
20.1368
20.0823
20.1332
20.0746
20.1337
20.0752
20.0865
20.0943
20.0866
20.0942
20.0902
20.0986
20.0903
20.0984
20.097
20.097
20.0967
20.0967
20.0989
20.0989
20.0985
20.0985
20.0943
20.0865
20.0942
20.0866
20.0986
20.0902
20.0984
20.0903
20.0819
20.1364
20.0823
20.1368
20.0746
20.1332
20.0752
20.1337
20.1356
20.081
20.136
20.0814
20.1323
20.0735
20.1328
20.0741
20.0862
20.0945
20.0863
20.0944
20.09
20.099
20.0901
20.0988
20.0975
20.0975
20.0973
20.0973
20.0994
20.0994
20.0992
20.0992
20.0945
20.0862
20.0944
20.0863
20.099
20.09
20.0988
20.0901
20.081
20.1355
20.0814
20.1359
20.0735
20.1323
20.0741
20.1327
20.1348
20.0801
20.1352
20.0806
20.1315
20.0726
20.1319
20.073
20.0859
20.0947
20.086
20.0946
20.0897
20.0992
20.0898
20.0991
20.098
20.098
20.0978
20.0978
20.0999
20.0999
20.0997
20.0997
20.0947
20.0859
20.0946
20.086
20.0992
20.0897
20.0991
20.0898
20.0801
20.1348
20.0806
20.1352
20.0726
20.1314
20.073
20.1319
20.1341
20.0794
20.1345
20.0797
20.1307
20.0717
20.1311
20.0721
20.0856
20.0948
20.0857
20.0948
20.0893
20.0993
20.0895
20.0993
20.0983
20.0983
20.0981
20.0981
20.1003
20.1002
20.1001
20.1001
20.0948
20.0856
20.0948
20.0857
20.0993
20.0893
20.0993
20.0895
20.0794
20.134
20.0797
20.1344