/*--------------------------------*- C++ -*----------------------------------*\
  =========                 |
  \\      /  F ield         | OpenFOAM: The Open Source CFD Toolbox
   \\    /   O peration     | Website:  https://openfoam.org
    \\  /    A nd           | Version:  9
     \\/     M anipulation  |
\*---------------------------------------------------------------------------*/
FoamFile
{
    format      ascii;
    class       volVectorField;
    location    "4.4";
    object      U;
}
// * * * * * * * * * * * * * * * * * * * * * * * * * * * * * * * * * * * * * //

dimensions      [0 1 -1 0 0 0 0];

internalField   nonuniform List<vector> 
36360
(
(0.00639784 -0.129303 -0.493907)
(-0.00362813 -0.0907711 0.00030028)
(0.00745175 -0.136497 -0.497405)
(-0.00507349 -0.0824151 0.000216739)
(0.00555508 -0.159846 -0.500062)
(0.000620887 -0.0611897 -7.20382e-05)
(0.0135274 -0.176424 -0.501327)
(-0.00230577 -0.0555217 -3.80069e-05)
(0.00365459 -0.0942133 -0.000209206)
(0.00306571 -0.0981949 -1.46422e-05)
(0.00206239 -0.0930859 -0.000158863)
(0.00152547 -0.0974601 -9.10553e-06)
(0.00600414 -0.0870188 8.80292e-05)
(0.00452853 -0.101047 -4.27158e-06)
(0.00652276 -0.0945706 2.93421e-05)
(0.00572261 -0.107386 -7.9449e-06)
(0.00255087 -0.100248 -6.00589e-07)
(0.00255067 -0.100249 6.07361e-07)
(0.000967587 -0.0994581 -1.91057e-07)
(0.000967437 -0.0994593 1.94256e-07)
(0.00413285 -0.105631 -1.4928e-06)
(0.00413249 -0.105633 1.49615e-06)
(0.00555135 -0.111186 -2.03251e-06)
(0.00555105 -0.111188 2.03019e-06)
(0.00306519 -0.0981974 1.4641e-05)
(0.00365475 -0.0942154 0.000209124)
(0.00152475 -0.0974629 9.10077e-06)
(0.00206198 -0.0930886 0.000158772)
(0.00452793 -0.101054 4.28174e-06)
(0.00600422 -0.0870314 -8.78918e-05)
(0.005722 -0.107391 7.94139e-06)
(0.00652267 -0.0945833 -2.92731e-05)
(-0.00362245 -0.0907669 -0.000300057)
(0.0063925 -0.129295 0.493915)
(-0.0050688 -0.0824137 -0.000216516)
(0.0074439 -0.136482 0.497411)
(0.000628372 -0.0611973 7.18529e-05)
(0.00555063 -0.159821 0.500064)
(-0.0022979 -0.0555393 3.78892e-05)
(0.0135161 -0.176385 0.501328)
(0.00945495 -0.125041 -0.490707)
(-0.0082042 -0.0936288 0.000122549)
(0.00833987 -0.128588 -0.492369)
(-0.00609354 -0.0913369 0.000207349)
(0.00660533 -0.150848 -0.499979)
(-0.00679891 -0.064715 -0.000356309)
(0.00550652 -0.156212 -0.500302)
(-0.00355068 -0.0600993 -0.000206388)
(0.001784 -0.0936703 -5.3169e-05)
(0.00250353 -0.0971987 5.00929e-06)
(0.00292902 -0.0935725 -0.000123876)
(0.00311034 -0.0976877 -8.51424e-06)
(0.00305429 -0.0798444 0.000357465)
(0.00242272 -0.0934306 2.71668e-05)
(0.00448299 -0.08166 0.000224409)
(0.0035711 -0.0961208 7.68185e-06)
(0.00237419 -0.0992615 -5.11624e-07)
(0.00237421 -0.0992623 5.26797e-07)
(0.00284183 -0.0998036 -1.15807e-06)
(0.00284178 -0.0998045 1.16842e-06)
(0.00225408 -0.0985109 4.47499e-07)
(0.00225409 -0.0985128 -4.33896e-07)
(0.00335 -0.101146 -1.01076e-06)
(0.00334987 -0.101148 1.01879e-06)
(0.00250378 -0.0972009 -4.96427e-06)
(0.00178557 -0.0936717 5.3222e-05)
(0.00311032 -0.0976902 8.53428e-06)
(0.0029302 -0.0935746 0.000123882)
(0.00242291 -0.0934369 -2.71053e-05)
(0.00305517 -0.0798536 -0.000357147)
(0.00357111 -0.0961274 -7.64801e-06)
(0.00448373 -0.0816713 -0.000224164)
(-0.008198 -0.093624 -0.000122613)
(0.00944841 -0.125034 0.490717)
(-0.00608724 -0.0913325 -0.000207298)
(0.008334 -0.128579 0.492378)
(-0.0067918 -0.0647143 0.000355791)
(0.0065986 -0.150829 0.49998)
(-0.003543 -0.0601035 0.000206031)
(0.00550058 -0.156188 0.500303)
(0.0103452 -0.119394 -0.487823)
(-0.010079 -0.0962264 -6.60025e-05)
(0.0100054 -0.121925 -0.489203)
(-0.00936466 -0.0950928 3.12357e-05)
(0.00732802 -0.139761 -0.499431)
(-0.00894679 -0.0736848 -0.000672294)
(0.00706006 -0.145018 -0.499689)
(-0.00826127 -0.0693512 -0.000513509)
(0.000370956 -0.0937818 6.29846e-05)
(0.00138548 -0.0960731 5.91679e-05)
(0.000941316 -0.0936384 9.38146e-06)
(0.00187949 -0.0965543 2.89225e-05)
(0.00164109 -0.0788719 0.000594998)
(0.00114088 -0.0898169 8.82481e-05)
(0.00216747 -0.0788676 0.000482877)
(0.00163862 -0.0912413 5.48989e-05)
(0.00137045 -0.0978593 8.62103e-06)
(0.00137051 -0.09786 -8.57326e-06)
(0.001812 -0.0985087 2.9441e-06)
(0.00181206 -0.0985094 -2.91893e-06)
(0.0010487 -0.0948366 9.37573e-06)
(0.00104871 -0.0948384 -9.30332e-06)
(0.00147783 -0.0963525 3.95698e-06)
(0.00147786 -0.0963543 -3.93563e-06)
(0.00138578 -0.0960745 -5.904e-05)
(0.000372244 -0.0937816 -6.29711e-05)
(0.00187982 -0.0965562 -2.88502e-05)
(0.000942812 -0.093639 -9.31412e-06)
(0.00114122 -0.0898222 -8.81945e-05)
(0.00164173 -0.0788771 -0.000594692)
(0.00163889 -0.091247 -5.4816e-05)
(0.00216824 -0.0788748 -0.00048252)
(-0.0100734 -0.0962212 6.57295e-05)
(0.0103387 -0.119389 0.487834)
(-0.00935877 -0.0950877 -3.14011e-05)
(0.00999884 -0.121919 0.489213)
(-0.00894092 -0.0736792 0.000671493)
(0.00732185 -0.139749 0.499433)
(-0.00825491 -0.0693474 0.000512839)
(0.00705339 -0.145003 0.499691)
(0.010793 -0.115436 -0.485312)
(-0.0109285 -0.0979418 -0.00025933)
(0.0105894 -0.117257 -0.486472)
(-0.0105612 -0.0971611 -0.000164442)
(0.0075814 -0.130966 -0.498959)
(-0.00957127 -0.0809259 -0.000976943)
(0.00747281 -0.135095 -0.499181)
(-0.00931608 -0.0775708 -0.000827464)
(-0.000265491 -0.0945265 0.000139805)
(0.000753673 -0.0956482 0.000125224)
(1.30027e-06 -0.0941004 0.000106375)
(0.00102254 -0.095779 9.2404e-05)
(0.00123798 -0.0804625 0.000774073)
(0.000548394 -0.08844 0.000162955)
(0.00133765 -0.0794647 0.000691363)
(0.000800533 -0.0889361 0.000124392)
(0.000813602 -0.0969958 2.46358e-05)
(0.000813982 -0.0969962 -2.47284e-05)
(0.00105109 -0.0973546 1.6017e-05)
(0.00105114 -0.0973551 -1.59553e-05)
(0.000637241 -0.0929318 2.39029e-05)
(0.000637568 -0.0929336 -2.51108e-05)
(0.000800462 -0.0937441 1.66701e-05)
(0.000800481 -0.0937454 -1.59632e-05)
(0.000754243 -0.0956488 -0.000124905)
(-0.000264634 -0.0945252 -0.000139632)
(0.00102267 -0.09578 -9.24412e-05)
(2.81393e-06 -0.0940997 -0.00010635)
(0.000549016 -0.0884433 -0.000160911)
(0.00123756 -0.0804641 -0.000772728)
(0.000800725 -0.0889404 -0.000124942)
(0.00133844 -0.0794687 -0.000691765)
(-0.0109232 -0.0979368 0.000258829)
(0.0107865 -0.115432 0.485324)
(-0.0105556 -0.0971561 0.000164152)
(0.0105829 -0.117253 0.486484)
(-0.00956622 -0.0809187 0.000974867)
(0.00757577 -0.130959 0.498961)
(-0.00931059 -0.0775645 0.000826992)
(0.00746692 -0.135085 0.499184)
(0.0111239 -0.11256 -0.483171)
(-0.0114604 -0.0991318 -0.000435423)
(0.0109627 -0.113886 -0.484149)
(-0.011216 -0.0985891 -0.000349886)
(0.00770752 -0.124191 -0.498546)
(-0.0099028 -0.0861328 -0.0012474)
(0.00763733 -0.127351 -0.498739)
(-0.00973996 -0.0837592 -0.00111576)
(-0.00051763 -0.095471 0.000180624)
(0.000426846 -0.0957377 0.000187046)
(-0.000428772 -0.0949863 0.000163958)
(0.000562375 -0.095643 0.000156757)
(0.00131183 -0.0828832 0.000896745)
(0.000206368 -0.0882079 0.000233587)
(0.00125463 -0.0816316 0.000841198)
(0.000357389 -0.0882187 0.00019683)
(0.00049213 -0.0966432 4.40989e-05)
(0.000492402 -0.0966435 -4.4079e-05)
(0.000634157 -0.0967656 3.41864e-05)
(0.000633807 -0.096766 -3.42624e-05)
(0.00042233 -0.0918929 4.27527e-05)
(0.000422606 -0.0918936 -4.29752e-05)
(0.000518754 -0.0923292 3.37721e-05)
(0.000518396 -0.0923306 -3.32187e-05)
(0.000427108 -0.0957378 -0.000186874)
(-0.000516657 -0.0954695 -0.000180637)
(0.000563003 -0.0956434 -0.000157025)
(-0.000426769 -0.0949848 -0.000164129)
(0.000206819 -0.0882107 -0.000232715)
(0.00131139 -0.0828842 -0.000896474)
(0.000358116 -0.0882221 -0.00020012)
(0.00125507 -0.0816324 -0.00084103)
(-0.011455 -0.0991275 0.00043486)
(0.0111176 -0.112557 0.483185)
(-0.0112102 -0.0985845 0.000349572)
(0.0109565 -0.113883 0.484163)
(-0.00989784 -0.0861263 0.00124583)
(0.00770233 -0.124186 0.498549)
(-0.00973468 -0.0837521 0.00111621)
(0.00763202 -0.127345 0.498743)
(0.011404 -0.110447 -0.481337)
(-0.011866 -0.0999773 -0.000588186)
(0.011265 -0.111425 -0.482162)
(-0.0116706 -0.0995884 -0.000514862)
(0.00781378 -0.119026 -0.498186)
(-0.0101821 -0.0897542 -0.00147871)
(0.00774758 -0.121436 -0.498353)
(-0.0100318 -0.0881077 -0.00136784)
(-0.00054934 -0.096445 0.000195946)
(0.000271489 -0.0961305 0.000239273)
(-0.000550559 -0.095962 0.000190867)
(0.000333767 -0.0959071 0.000214571)
(0.00148693 -0.0853682 0.000977646)
(-9.57802e-06 -0.0886098 0.000294249)
(0.00139491 -0.0841427 0.000941649)
(8.65803e-05 -0.0883511 0.000265273)
(0.000279832 -0.0966488 6.33388e-05)
(0.00027994 -0.0966488 -6.32098e-05)
(0.000376865 -0.0966099 5.39168e-05)
(0.000376985 -0.09661 -5.38208e-05)
(0.00026784 -0.0914085 6.12947e-05)
(0.000267984 -0.0914093 -6.11656e-05)
(0.000340238 -0.091592 5.22536e-05)
(0.00034038 -0.0915931 -5.21632e-05)
(0.00027167 -0.09613 -0.000239068)
(-0.000548461 -0.096443 -0.000195938)
(0.00033402 -0.0959069 -0.00021439)
(-0.000549594 -0.0959602 -0.000190857)
(-9.09252e-06 -0.0886112 -0.000293989)
(0.00148641 -0.0853671 -0.000977238)
(8.70855e-05 -0.088353 -0.000265039)
(0.00139448 -0.084142 -0.000941238)
(-0.0118605 -0.0999735 0.000587606)
(0.0113978 -0.110445 0.481351)
(-0.0116651 -0.0995843 0.000514303)
(0.0112586 -0.111422 0.482176)
(-0.0101772 -0.0897479 0.0014774)
(0.00780883 -0.119023 0.498188)
(-0.0100269 -0.0881011 0.00136657)
(0.00774244 -0.121432 0.498355)
(0.0116504 -0.108877 -0.479749)
(-0.012197 -0.100599 -0.000716557)
(0.0115268 -0.109606 -0.48045)
(-0.012037 -0.10031 -0.000655289)
(0.00791682 -0.115072 -0.49787)
(-0.0104445 -0.0922766 -0.00167222)
(0.00785064 -0.116921 -0.498015)
(-0.0103023 -0.0911269 -0.00157992)
(-0.000495633 -0.0973521 0.000194841)
(0.000208816 -0.0966777 0.000279671)
(-0.000526276 -0.0969095 0.000196968)
(0.000232497 -0.0963909 0.000260918)
(0.00167897 -0.0876141 0.00102844)
(-0.000141542 -0.0893402 0.000342459)
(0.0015861 -0.0865281 0.0010061)
(-8.40735e-05 -0.088947 0.000319951)
(0.000129544 -0.0968887 8.01273e-05)
(0.000129609 -0.0968885 -7.9985e-05)
(0.000198268 -0.0967456 7.21215e-05)
(0.000198357 -0.0967455 -7.19748e-05)
(0.000147407 -0.0913255 7.75867e-05)
(0.000147531 -0.091326 -7.74007e-05)
(0.000204377 -0.0913234 6.97815e-05)
(0.000204514 -0.0913241 -6.96294e-05)
(0.000208875 -0.096677 -0.000279445)
(-0.000494869 -0.09735 -0.000194839)
(0.000232617 -0.0963903 -0.0002607)
(-0.000525459 -0.0969074 -0.000196969)
(-0.000141132 -0.0893407 -0.000342174)
(0.0016783 -0.0876121 -0.00102806)
(-8.36083e-05 -0.0889479 -0.000319677)
(0.0015855 -0.0865265 -0.00100569)
(-0.0121914 -0.100595 0.000715937)
(0.0116442 -0.108875 0.479764)
(-0.0120314 -0.100307 0.000654686)
(0.0115206 -0.109604 0.480464)
(-0.0104396 -0.0922709 0.00167083)
(0.00791203 -0.11507 0.497873)
(-0.0102973 -0.0911209 0.00157858)
(0.00784571 -0.116918 0.498018)
(0.0118668 -0.10769 -0.478367)
(-0.0124697 -0.101069 -0.000822728)
(0.011758 -0.108243 -0.478968)
(-0.0123369 -0.100849 -0.000772171)
(0.00801782 -0.112008 -0.497595)
(-0.010685 -0.0940548 -0.00183206)
(0.00795297 -0.113445 -0.49772)
(-0.0105546 -0.0932409 -0.00175598)
(-0.000421739 -0.0981629 0.000184442)
(0.000192786 -0.0972903 0.000309015)
(-0.000458251 -0.09777 0.000190485)
(0.000197412 -0.0969803 0.000295558)
(0.00185082 -0.0895434 0.00105879)
(-0.000196722 -0.0902239 0.000378462)
(0.00177021 -0.088618 0.00104565)
(-0.000176766 -0.0897689 0.00036188)
(2.49202e-05 -0.0972766 9.33545e-05)
(2.49441e-05 -0.0972764 -9.31716e-05)
(7.24144e-05 -0.0970686 8.71593e-05)
(7.24619e-05 -0.0970684 -8.69874e-05)
(5.89842e-05 -0.0915266 9.09225e-05)
(5.90809e-05 -0.0915268 -9.07333e-05)
(9.86183e-05 -0.0913948 8.46466e-05)
(9.87331e-05 -0.0913951 -8.44658e-05)
(0.000192752 -0.0972894 -0.000308781)
(-0.000421036 -0.0981608 -0.00018448)
(0.000197434 -0.0969795 -0.000295327)
(-0.000457518 -0.0977678 -0.00019051)
(-0.000196532 -0.0902236 -0.000378169)
(0.00185006 -0.089541 -0.00105841)
(-0.000176472 -0.089769 -0.00036159)
(0.00176949 -0.0886157 -0.00104526)
(-0.012464 -0.101066 0.000822073)
(0.0118606 -0.107689 0.478382)
(-0.0123312 -0.100846 0.00077153)
(0.0117518 -0.108242 0.478983)
(-0.01068 -0.0940498 0.00183063)
(0.00801313 -0.112006 0.497598)
(-0.0105496 -0.0932355 0.00175457)
(0.00794816 -0.113444 0.497723)
(0.0120543 -0.106779 -0.477146)
(-0.0126948 -0.101436 -0.000909787)
(0.0119593 -0.107206 -0.477663)
(-0.0125846 -0.101263 -0.000868366)
(0.00811142 -0.1096 -0.497353)
(-0.0108971 -0.0953288 -0.00196316)
(0.00804972 -0.110734 -0.497461)
(-0.0107804 -0.0947428 -0.00190083)
(-0.000347851 -0.0988739 0.000169196)
(0.000202032 -0.0979101 0.000329074)
(-0.000383147 -0.0985303 0.000177244)
(0.0001952 -0.0976013 0.000320098)
(0.00199267 -0.0911661 0.00107568)
(-0.000210644 -0.091163 0.000404066)
(0.00192757 -0.0903903 0.00106854)
(-0.000205552 -0.090691 0.000392408)
(-3.96543e-05 -0.0977399 0.000103141)
(-3.96646e-05 -0.0977396 -0.000102943)
(-1.2558e-05 -0.0975021 9.86893e-05)
(-1.2553e-05 -0.0975018 -9.84981e-05)
(6.41147e-06 -0.091927 0.000100976)
(6.49926e-06 -0.091927 -0.000100772)
(3.116e-05 -0.0917064 9.63386e-05)
(3.12475e-05 -0.0917065 -9.61415e-05)
(0.00020192 -0.097909 -0.000328838)
(-0.00034718 -0.0988719 -0.000169258)
(0.000195122 -0.0976003 -0.000319862)
(-0.000382462 -0.0985283 -0.000177295)
(-0.000210508 -0.0911623 -0.000403768)
(0.00199185 -0.0911635 -0.00107533)
(-0.000205398 -0.0906905 -0.000392112)
(0.00192677 -0.0903877 -0.00106817)
(-0.0126891 -0.101433 0.00090911)
(0.0120482 -0.106778 0.477162)
(-0.0125789 -0.101261 0.000867699)
(0.0119532 -0.107205 0.477678)
(-0.010892 -0.0953243 0.00196169)
(0.00810679 -0.109599 0.497355)
(-0.0107753 -0.094738 0.00189938)
(0.00804499 -0.110733 0.497464)
(0.012216 -0.106066 -0.476066)
(-0.0128802 -0.101727 -0.000980892)
(0.0121339 -0.106402 -0.476516)
(-0.012789 -0.101589 -0.000947061)
(0.0081958 -0.107677 -0.49714)
(-0.0110801 -0.09626 -0.00207028)
(0.00813914 -0.108587 -0.497234)
(-0.0109779 -0.0958291 -0.00201939)
(-0.000277581 -0.0994931 0.00015201)
(0.000227526 -0.0985129 0.000341729)
(-0.000311346 -0.0991944 0.000160718)
(0.00021354 -0.0982148 0.000336115)
(0.00210638 -0.092521 0.00108386)
(-0.000208306 -0.0920868 0.000421447)
(0.00205449 -0.0918739 0.00108062)
(-0.000212033 -0.0916291 0.000413639)
(-6.72402e-05 -0.0982448 0.000109759)
(-6.72783e-05 -0.0982445 -0.000109551)
(-5.64269e-05 -0.0979888 0.000106773)
(-5.64508e-05 -0.0979885 -0.000106569)
(-4.80128e-05 -0.0924521 0.000108097)
(-4.79329e-05 -0.0924519 -0.000107882)
(-2.26797e-05 -0.092177 0.000104857)
(-2.25951e-05 -0.0921769 -0.000104647)
(0.000227368 -0.0985118 -0.000341494)
(-0.000276918 -0.0994911 -0.000152089)
(0.000213402 -0.0982137 -0.000335879)
(-0.00031068 -0.0991925 -0.000160788)
(-0.000208216 -0.0920857 -0.000421148)
(0.00210553 -0.0925184 -0.00108353)
(-0.000211916 -0.0916283 -0.000413341)
(0.00205365 -0.0918713 -0.00108027)
(-0.0128744 -0.101724 0.000980204)
(0.0122099 -0.106065 0.476082)
(-0.0127832 -0.101587 0.000946378)
(0.0121277 -0.106401 0.476532)
(-0.011075 -0.096256 0.00206878)
(0.00819121 -0.107676 0.497143)
(-0.0109729 -0.0958249 0.0020179)
(0.00813446 -0.108586 0.497237)
(0.0123549 -0.105493 -0.475098)
(-0.0130291 -0.10196 -0.00103882)
(0.0122831 -0.105765 -0.475485)
(-0.0129558 -0.10185 -0.00101123)
(0.00826852 -0.106115 -0.496953)
(-0.0112328 -0.0969549 -0.0021575)
(0.00821649 -0.106858 -0.497034)
(-0.0111449 -0.0966316 -0.00211607)
(-0.000209238 -0.100025 0.000134793)
(0.000262772 -0.0990776 0.000349229)
(-0.000241993 -0.0997696 0.000143343)
(0.000244363 -0.0988007 0.000345968)
(0.00219728 -0.0936464 0.00108631)
(-0.0001871 -0.092959 0.000432652)
(0.00215651 -0.0931095 0.00108564)
(-0.000199754 -0.0925303 0.000427691)
(-7.43326e-05 -0.098757 0.000113981)
(-7.43896e-05 -0.0987566 -0.000113771)
(-7.29105e-05 -0.0985018 0.00011213)
(-7.29579e-05 -0.0985015 -0.000111919)
(-8.18108e-05 -0.0930474 0.00011294)
(-8.17399e-05 -0.0930471 -0.000112717)
(-6.74609e-05 -0.0927434 0.000110751)
(-6.73843e-05 -0.0927432 -0.000110532)
(0.00026258 -0.0990765 -0.000348996)
(-0.000208582 -0.100024 -0.000134882)
(0.000244188 -0.0987996 -0.000345734)
(-0.000241332 -0.0997678 -0.000143429)
(-0.000187082 -0.0929578 -0.000432351)
(0.00219639 -0.0936439 -0.00108599)
(-0.000199693 -0.0925292 -0.000427391)
(0.00215564 -0.0931069 -0.00108531)
(-0.0130233 -0.101958 0.00103813)
(0.0123488 -0.105492 0.475115)
(-0.0129501 -0.101848 0.00101054)
(0.012277 -0.105764 0.475501)
(-0.0112277 -0.0969513 0.00215598)
(0.00826393 -0.106113 0.496955)
(-0.0111398 -0.0966279 0.00211456)
(0.00821183 -0.106856 0.497036)
(0.0124759 -0.105016 -0.474224)
(-0.0131423 -0.102142 -0.00108603)
(0.0124127 -0.105245 -0.474566)
(-0.0130868 -0.102057 -0.00106353)
(0.00833046 -0.104817 -0.496786)
(-0.0113546 -0.0974813 -0.00222819)
(0.00828385 -0.105438 -0.496857)
(-0.0112823 -0.0972359 -0.00219464)
(-0.000141462 -0.100474 0.000118354)
(0.000306632 -0.0995887 0.0003532)
(-0.000174387 -0.10026 0.000126419)
(0.000284009 -0.0993409 0.000351514)
(0.00226822 -0.0945775 0.00108524)
(-0.000148457 -0.0937621 0.000439476)
(0.00223713 -0.0941339 0.00108614)
(-0.000168317 -0.0933692 0.000436514)
(-6.41996e-05 -0.0992486 0.000116501)
(-6.42701e-05 -0.0992482 -0.000116317)
(-7.12832e-05 -0.0990069 0.000115434)
(-7.13464e-05 -0.0990066 -0.000115225)
(-9.5723e-05 -0.0936666 0.000115992)
(-9.56591e-05 -0.0936662 -0.000115788)
(-9.08095e-05 -0.0933561 0.000114627)
(-9.07428e-05 -0.0933558 -0.00011441)
(0.000306407 -0.0995876 -0.000353002)
(-0.000140813 -0.100472 -0.000118396)
(0.000283802 -0.0993398 -0.000351284)
(-0.000173732 -0.100258 -0.000126509)
(-0.00014849 -0.0937607 -0.000439185)
(0.00226732 -0.0945751 -0.00108491)
(-0.000168325 -0.0933679 -0.000436215)
(0.00223623 -0.0941314 -0.00108581)
(-0.0131364 -0.102141 0.0010854)
(0.0124698 -0.105015 0.47424)
(-0.013081 -0.102055 0.00106285)
(0.0124066 -0.105244 0.474583)
(-0.0113494 -0.0974781 0.00222667)
(0.00832589 -0.104816 0.496789)
(-0.0112772 -0.0972325 0.00219312)
(0.0082792 -0.105436 0.49686)
(0.0125838 -0.104598 -0.473424)
(-0.01322 -0.102273 -0.0011258)
(0.0125261 -0.104802 -0.473722)
(-0.013182 -0.102215 -0.00110588)
(0.00838239 -0.103712 -0.496637)
(-0.0114392 -0.0978764 -0.0022854)
(0.00833932 -0.104245 -0.496698)
(-0.011386 -0.0976938 -0.00225818)
(-7.02508e-05 -0.100841 0.000101892)
(0.000358416 -0.100033 0.00035581)
(-0.000105375 -0.100666 0.000110838)
(0.000331355 -0.0998193 0.000354105)
(0.0023155 -0.0953432 0.00108159)
(-0.000108345 -0.0944855 0.000443271)
(0.00229779 -0.0949786 0.0010837)
(-0.000127676 -0.0941339 0.000441639)
(-3.22067e-05 -0.0996932 0.000117987)
(-3.22869e-05 -0.0996928 -0.00011728)
(-5.18239e-05 -0.0994774 0.00011723)
(-5.19031e-05 -0.0994771 -0.000117123)
(-0.000103692 -0.094273 0.000117867)
(-0.000103575 -0.0942725 -0.000117517)
(-9.93442e-05 -0.0939726 0.000117023)
(-9.92736e-05 -0.0939722 -0.000116836)
(0.000358185 -0.100032 -0.000354017)
(-6.95338e-05 -0.100838 -0.000104308)
(0.000331121 -0.0998185 -0.000354321)
(-0.000104725 -0.100665 -0.000110416)
(-0.000108264 -0.0944841 -0.000442884)
(0.00231538 -0.0953408 -0.00108163)
(-0.000127738 -0.0941326 -0.000441385)
(0.00229681 -0.0949763 -0.00108335)
(-0.0132141 -0.102272 0.00112272)
(0.0125777 -0.104597 0.473444)
(-0.0131762 -0.102213 0.00110574)
(0.01252 -0.104801 0.473739)
(-0.0114348 -0.0978735 0.00228349)
(0.00837759 -0.103711 0.49664)
(-0.0113808 -0.0976905 0.00225667)
(0.00833471 -0.104243 0.496701)
(0.012685 -0.104204 -0.472696)
(-0.0132623 -0.102342 -0.00115821)
(0.0126299 -0.1044 -0.472956)
(-0.013242 -0.102316 -0.00113905)
(0.0084278 -0.102738 -0.496503)
(-0.0114901 -0.098155 -0.00233106)
(0.00838679 -0.103212 -0.496557)
(-0.0114522 -0.0980295 -0.00230898)
(8.89697e-06 -0.101127 8.69338e-05)
(0.000421184 -0.100405 0.000356736)
(-3.07416e-05 -0.100994 9.78011e-05)
(0.000388734 -0.100229 0.000353916)
(0.00234321 -0.0959701 0.00107661)
(-7.0118e-05 -0.0951198 0.000444889)
(0.002334 -0.0956724 0.00107965)
(-8.85716e-05 -0.0948138 0.000444128)
(2.12763e-05 -0.100081 0.000118525)
(2.12096e-05 -0.10008 -0.000117237)
(-7.39673e-06 -0.0998952 0.00011753)
(-7.46443e-06 -0.0998949 -0.000118088)
(-0.000102458 -0.0948394 0.000118775)
(-0.000102301 -0.094839 -0.000118301)
(-0.000104805 -0.0945625 0.000118216)
(-0.000104755 -0.094562 -0.000118204)
(0.000420985 -0.100404 -0.000353284)
(9.74828e-06 -0.101125 -9.19549e-05)
(0.00038848 -0.100228 -0.000356172)
(-3.01456e-05 -0.100993 -9.4432e-05)
(-6.98975e-05 -0.0951183 -0.000444406)
(0.00234376 -0.0959679 -0.00107701)
(-8.88087e-05 -0.0948124 -0.000444021)
(0.00233229 -0.0956702 -0.00107893)
(-0.0132563 -0.102341 0.00115257)
(0.0126789 -0.104203 0.472719)
(-0.0132361 -0.102314 0.00114193)
(0.0126238 -0.104399 0.47297)
(-0.0114864 -0.0981523 0.00232879)
(0.00842276 -0.102736 0.496507)
(-0.0114461 -0.0980265 0.00230787)
(0.00838244 -0.103211 0.496559)
(0.0127832 -0.103804 -0.472013)
(-0.0132701 -0.10234 -0.00118128)
(0.012729 -0.104007 -0.472248)
(-0.0132668 -0.10235 -0.00116609)
(0.00846615 -0.101843 -0.496382)
(-0.0115123 -0.098325 -0.00236654)
(0.00842814 -0.102283 -0.49643)
(-0.0114881 -0.098253 -0.00234932)
(0.000101866 -0.101323 7.56718e-05)
(0.00049691 -0.10069 0.000355465)
(5.46913e-05 -0.101237 8.53261e-05)
(0.000457422 -0.100559 0.000353352)
(0.00236005 -0.0964711 0.00107125)
(-3.09243e-05 -0.0956559 0.00044487)
(0.00235635 -0.0962355 0.00107447)
(-5.03042e-05 -0.0954004 0.000444856)
(9.02782e-05 -0.100389 0.000118119)
(9.02238e-05 -0.100389 -0.000117205)
(5.38826e-05 -0.100246 0.00011745)
(5.38209e-05 -0.100246 -0.000118137)
(-8.99589e-05 -0.0953398 0.000118875)
(-8.9823e-05 -0.0953393 -0.000118531)
(-9.65925e-05 -0.0950986 0.000118689)
(-9.65476e-05 -0.0950981 -0.000118695)
(0.000496734 -0.100689 -0.000352942)
(0.000102813 -0.101322 -7.9493e-05)
(0.000457145 -0.100558 -0.000355944)
(5.52263e-05 -0.101235 -8.12368e-05)
(-3.07886e-05 -0.0956544 -0.000444462)
(0.00236021 -0.0964689 -0.00107142)
(-5.0578e-05 -0.0953989 -0.000444766)
(0.00235451 -0.0962333 -0.0010737)
(-0.013264 -0.102338 0.00117693)
(0.0127771 -0.103803 0.472034)
(-0.0132609 -0.102349 0.00116929)
(0.0127228 -0.104006 0.472261)
(-0.0115083 -0.0983225 0.00236455)
(0.00846125 -0.101841 0.496386)
(-0.0114817 -0.0982504 0.00234828)
(0.00842386 -0.102281 0.496432)
(0.0128849 -0.10337 -0.471381)
(-0.0132419 -0.102255 -0.00120109)
(0.0128283 -0.103593 -0.471589)
(-0.0132567 -0.102308 -0.00118879)
(0.00850036 -0.100981 -0.496272)
(-0.0115057 -0.0983858 -0.0023912)
(0.00846366 -0.101411 -0.496314)
(-0.0114984 -0.0983691 -0.0023806)
(0.000210004 -0.101422 6.55135e-05)
(0.000590598 -0.100873 0.000353006)
(0.000156252 -0.101386 7.44054e-05)
(0.000542271 -0.100795 0.000352689)
(0.00237058 -0.0968504 0.00106542)
(1.25067e-05 -0.096079 0.000443651)
(0.00236751 -0.0966757 0.00106882)
(-9.42273e-06 -0.0958822 0.000444357)
(0.000175981 -0.100598 0.000117161)
(0.000175999 -0.100598 -0.000116762)
(0.000130857 -0.100507 0.000117062)
(0.000130788 -0.100506 -0.000117577)
(-7.40478e-05 -0.0957465 0.000118503)
(-7.3938e-05 -0.0957459 -0.000118489)
(-8.35315e-05 -0.0955567 0.000118656)
(-8.34799e-05 -0.0955561 -0.000118642)
(0.00059079 -0.100872 -0.000352453)
(0.000211929 -0.101421 -6.95446e-05)
(0.000541878 -0.100794 -0.000354274)
(0.00015634 -0.101384 -7.02241e-05)
(1.25707e-05 -0.0960774 -0.000443634)
(0.00237012 -0.0968483 -0.00106578)
(-9.65916e-06 -0.0958806 -0.000444189)
(0.00236602 -0.0966734 -0.00106803)
(-0.0132354 -0.102252 0.00119852)
(0.0128791 -0.103368 0.471404)
(-0.0132508 -0.102307 0.00119134)
(0.0128221 -0.103592 0.471602)
(-0.0115018 -0.0983831 0.00238926)
(0.00849539 -0.100978 0.496276)
(-0.0114919 -0.0983665 0.00237945)
(0.0084594 -0.101409 0.496316)
(0.0129959 -0.102868 -0.470792)
(-0.0131809 -0.102065 -0.00121458)
(0.0129336 -0.103128 -0.470971)
(-0.0132117 -0.102173 -0.00120763)
(0.00853498 -0.100103 -0.496172)
(-0.0114794 -0.0983384 -0.00241115)
(0.00849692 -0.100545 -0.496208)
(-0.0114785 -0.0983776 -0.00240022)
(0.000322124 -0.101411 5.91723e-05)
(0.000699447 -0.100936 0.000350455)
(0.000267706 -0.101432 6.31953e-05)
(0.000643382 -0.100921 0.000351446)
(0.00240641 -0.0971009 0.00105989)
(6.45477e-05 -0.0963725 0.000441732)
(0.00238654 -0.0969926 0.00106273)
(3.75163e-05 -0.0962426 0.000442771)
(0.000282725 -0.100688 0.000116091)
(0.00028264 -0.100688 -0.000115958)
(0.000226514 -0.10066 0.000116501)
(0.000226476 -0.100659 -0.000116502)
(-4.47243e-05 -0.0960332 0.000117972)
(-4.46808e-05 -0.0960327 -0.00011788)
(-6.10239e-05 -0.0959056 0.000118242)
(-6.09661e-05 -0.095905 -0.000118251)
(0.000699212 -0.100935 -0.000350303)
(0.000322763 -0.10141 -5.94303e-05)
(0.000643269 -0.10092 -0.000351878)
(0.000268572 -0.101431 -6.32229e-05)
(6.45112e-05 -0.096371 -0.000441547)
(0.00240589 -0.0970989 -0.00105968)
(3.74603e-05 -0.0962411 -0.000442717)
(0.00238577 -0.0969906 -0.00106261)
(-0.0131749 -0.102063 0.0012138)
(0.0129898 -0.102867 0.470811)
(-0.0132055 -0.102173 0.0012073)
(0.0129276 -0.103128 0.47099)
(-0.0114743 -0.0983362 0.00240957)
(0.00853038 -0.100101 0.496176)
(-0.0114733 -0.0983755 0.00239862)
(0.00849226 -0.100544 0.496212)
(0.0131211 -0.102269 -0.470235)
(-0.0130874 -0.101749 -0.00122377)
(0.0130516 -0.102582 -0.470394)
(-0.0131345 -0.101924 -0.00121963)
(0.00857393 -0.0991791 -0.496081)
(-0.0114265 -0.0981504 -0.00242568)
(0.00853402 -0.0996492 -0.496112)
(-0.0114387 -0.0982624 -0.00241956)
(0.000428585 -0.101267 5.27807e-05)
(0.000825306 -0.100856 0.000346773)
(0.00037849 -0.101358 5.58325e-05)
(0.000760484 -0.100915 0.000348795)
(0.00249558 -0.0972002 0.00105415)
(0.000130726 -0.0965168 0.000438858)
(0.00244269 -0.0971716 0.00105696)
(9.57567e-05 -0.0964644 0.0004404)
(0.000414874 -0.100634 0.000114965)
(0.000414757 -0.100634 -0.000114789)
(0.00034544 -0.10068 0.00011553)
(0.000345334 -0.10068 -0.000115371)
(-3.98689e-07 -0.0961784 0.000117167)
(-3.89746e-07 -0.0961778 -0.000116993)
(-2.46128e-05 -0.0961245 0.000117604)
(-2.45877e-05 -0.096124 -0.000117458)
(0.000824989 -0.100855 -0.000346566)
(0.000429001 -0.101266 -5.29344e-05)
(0.000760199 -0.100915 -0.000348623)
(0.000379028 -0.101357 -5.59929e-05)
(0.000130702 -0.0965152 -0.000438597)
(0.00249532 -0.097198 -0.00105389)
(9.57277e-05 -0.0964628 -0.000440164)
(0.00244229 -0.0971695 -0.00105672)
(-0.0130814 -0.101748 0.00122306)
(0.013115 -0.102268 0.470254)
(-0.0131285 -0.101923 0.00121893)
(0.0130455 -0.102581 0.470413)
(-0.0114213 -0.0981481 0.0024241)
(0.00856932 -0.0991772 0.496084)
(-0.0114335 -0.09826 0.00241795)
(0.00852934 -0.0996473 0.496115)
(0.0132671 -0.101538 -0.469706)
(-0.0129545 -0.101278 -0.00122853)
(0.0131859 -0.101922 -0.469843)
(-0.0130228 -0.101535 -0.00122632)
(0.00861651 -0.0981637 -0.495996)
(-0.0113415 -0.0978108 -0.00243238)
(0.0085733 -0.0986857 -0.496023)
(-0.011368 -0.0980005 -0.00242963)
(0.00054599 -0.100941 4.797e-05)
(0.000975742 -0.100603 0.000342026)
(0.00048406 -0.101128 5.02402e-05)
(0.000896846 -0.100753 0.000344331)
(0.00261174 -0.0971119 0.0010486)
(0.000209313 -0.0964874 0.000435158)
(0.00255706 -0.0971803 0.00105131)
(0.000169419 -0.0965245 0.000437025)
(0.000576965 -0.100409 0.000113647)
(0.000576847 -0.100408 -0.000113461)
(0.000491893 -0.100544 0.000114301)
(0.000491775 -0.100544 -0.000114118)
(6.02045e-05 -0.0961585 0.000116056)
(6.02152e-05 -0.0961579 -0.000115864)
(2.89322e-05 -0.0961894 0.000116613)
(2.89387e-05 -0.0961888 -0.000116426)
(0.000975426 -0.100602 -0.000341808)
(0.000546428 -0.100939 -4.81116e-05)
(0.000896525 -0.100752 -0.000344115)
(0.000484469 -0.101126 -5.03855e-05)
(0.000209274 -0.0964857 -0.00043488)
(0.00261135 -0.0971096 -0.00104832)
(0.000169388 -0.0965228 -0.000436752)
(0.00255674 -0.097178 -0.00105104)
(-0.0129485 -0.101277 0.00122784)
(0.013261 -0.101537 0.469725)
(-0.0130168 -0.101534 0.00122562)
(0.0131797 -0.101921 0.469862)
(-0.0113363 -0.0978085 0.00243081)
(0.00861189 -0.0981617 0.495999)
(-0.0113629 -0.0979982 0.00242806)
(0.00856861 -0.0986838 0.496026)
(0.0134401 -0.10064 -0.469206)
(-0.0127728 -0.100623 -0.00123025)
(0.0133447 -0.101112 -0.469327)
(-0.0128661 -0.100975 -0.0012295)
(0.00866752 -0.0970098 -0.495918)
(-0.0112278 -0.0972956 -0.00243387)
(0.00861971 -0.0976065 -0.495941)
(-0.0112691 -0.097577 -0.00243365)
(0.000704143 -0.100416 4.45404e-05)
(0.00116085 -0.100149 0.000337301)
(0.000620559 -0.100704 4.61398e-05)
(0.00106391 -0.100402 0.00033958)
(0.00272573 -0.0968186 0.00104318)
(0.000299055 -0.0962555 0.000431176)
(0.00267053 -0.0969919 0.00104583)
(0.000253212 -0.0963979 0.00043323)
(0.000774078 -0.099983 0.000112199)
(0.000773962 -0.0999826 -0.000112013)
(0.000671024 -0.100222 0.000112906)
(0.000670907 -0.100222 -0.000112719)
(0.000136054 -0.095939 0.000114911)
(0.000136071 -0.0959384 -0.000114717)
(9.65207e-05 -0.0960751 0.000115514)
(9.65354e-05 -0.0960745 -0.00011532)
(0.00116054 -0.100148 -0.000337082)
(0.000704617 -0.100414 -4.46775e-05)
(0.0010636 -0.100401 -0.000339361)
(0.000621026 -0.100703 -4.62786e-05)
(0.000299007 -0.0962538 -0.000430896)
(0.00272526 -0.0968162 -0.00104289)
(0.000253168 -0.0963962 -0.00043295)
(0.0026701 -0.0969896 -0.00104555)
(-0.0127667 -0.100622 0.00122957)
(0.0134339 -0.100638 0.469225)
(-0.0128601 -0.100974 0.00122881)
(0.0133385 -0.101111 0.469347)
(-0.0112226 -0.0972932 0.00243231)
(0.00866289 -0.0970078 0.495921)
(-0.0112639 -0.0975747 0.00243208)
(0.00861503 -0.0976045 0.495944)
(0.0136452 -0.0995348 -0.46873)
(-0.0125403 -0.0997518 -0.00122917)
(0.0135331 -0.100115 -0.468834)
(-0.0126589 -0.100216 -0.00122978)
(0.00872959 -0.0956716 -0.495846)
(-0.0110835 -0.0965717 -0.00243064)
(0.00867568 -0.0963663 -0.495866)
(-0.0111399 -0.0969613 -0.00243272)
(0.000899499 -0.0996657 4.23239e-05)
(0.00138392 -0.0994652 0.000332597)
(0.0008003 -0.100071 4.33409e-05)
(0.00126789 -0.0998376 0.000334871)
(0.00284498 -0.0962963 0.00103783)
(0.00040143 -0.0957907 0.000426822)
(0.00278702 -0.0965868 0.00104046)
(0.000348708 -0.0960537 0.000429018)
(0.00101005 -0.0993253 0.000110676)
(0.00100993 -0.0993249 -0.000110492)
(0.000886962 -0.0996851 0.00011142)
(0.000886847 -0.0996847 -0.000111236)
(0.000228222 -0.0954851 0.000113582)
(0.000228241 -0.0954845 -0.000113392)
(0.000179864 -0.0957433 0.000114258)
(0.000179882 -0.0957427 -0.000114065)
(0.00138362 -0.0994643 -0.00033238)