/*--------------------------------*- C++ -*----------------------------------*\
  =========                 |
  \\      /  F ield         | OpenFOAM: The Open Source CFD Toolbox
   \\    /   O peration     | Website:  https://openfoam.org
    \\  /    A nd           | Version:  9
     \\/     M anipulation  |
\*---------------------------------------------------------------------------*/
FoamFile
{
    format      ascii;
    class       volScalarField;
    location    "4.2";
    object      epsilon;
}
// * * * * * * * * * * * * * * * * * * * * * * * * * * * * * * * * * * * * * //

dimensions      [0 2 -3 0 0 0 0];

internalField   nonuniform List<scalar> 
36360
(
0.481739
0.389979
0.260434
0.225962
0.278733
0.222154
0.0605683
0.0731158
0.170606
0.0752487
0.0742415
0.0211324
0.0917066
0.0313619
0.0186786
0.00780543
0.0398964
0.0398779
0.00949129
0.00948797
0.0168062
0.0168041
0.00531041
0.00531039
0.0751763
0.170458
0.0211087
0.0741563
0.0313418
0.0916155
0.00780366
0.0186614
0.389758
0.481516
0.225802
0.260261
0.221942
0.278441
0.0730263
0.0604743
0.792048
0.649352
0.650861
0.527572
0.715862
0.563146
0.504576
0.389715
0.363235
0.224112
0.267287
0.145483
0.336058
0.216615
0.203971
0.107506
0.16799
0.167946
0.0979697
0.0979375
0.169342
0.169306
0.0704413
0.0704265
0.22397
0.362986
0.145375
0.267086
0.216483
0.335776
0.107435
0.203792
0.64902
0.79173
0.527294
0.650588
0.562649
0.7152
0.389366
0.504099
1.04133
0.873679
0.920789
0.763971
1.12532
0.921079
0.92119
0.740407
0.553057
0.390771
0.458675
0.306681
0.631742
0.476862
0.479884
0.341634
0.322874
0.322809
0.244041
0.243985
0.412999
0.412918
0.285674
0.285616
0.39057
0.552722
0.306508
0.45838
0.476599
0.631242
0.341437
0.479494
0.873254
1.04094
0.763589
0.920428
0.920275
1.12427
0.739756
0.920334
1.26474
1.08086
1.1558
0.979352
1.52708
1.28422
1.32762
1.1029
0.736502
0.558264
0.645949
0.475065
0.946372
0.762899
0.788041
0.61817
0.482197
0.482115
0.402762
0.402687
0.685193
0.68507
0.547068
0.546965
0.558018
0.736102
0.474839
0.645578
0.76251
0.945666
0.617843
0.787435
1.08037
1.26431
0.97889
1.15538
1.28313
1.52567
1.10195
1.32638
1.46639
1.2706
1.36838
1.17812
1.90942
1.63618
1.72133
1.46237
0.908538
0.718416
0.824311
0.639719
1.25899
1.05217
1.10386
0.908123
0.636293
0.636199
0.560406
0.560318
0.963096
0.962936
0.82444
0.824298
0.718138
0.908095
0.639455
0.823888
1.05167
1.2581
0.907677
1.10307
1.27007
1.46595
1.1776
1.36793
1.63484
1.9077
1.46115
1.71975
1.64562
1.44081
1.55891
1.35832
2.26109
1.96403
2.08938
1.80349
1.06524
0.866089
0.989069
0.79413
1.555
1.32929
1.40958
1.19281
0.779391
0.77929
0.709561
0.709464
1.23106
1.23087
1.09891
1.09873
0.865792
1.06478
0.793841
0.988613
1.3287
1.55397
1.19227
1.40862
1.44027
1.64519
1.35778
1.55847
1.9625
2.25914
1.80206
2.08753
1.80218
1.59045
1.72681
1.51832
2.57583
2.26016
2.42308
2.11613
1.20453
0.998461
1.13725
0.934412
1.82551
1.58466
1.69363
1.45994
0.908278
0.908173
0.845854
0.845751
1.47912
1.47891
1.35785
1.35764
0.998153
1.20405
0.934109
1.13678
1.584
1.82438
1.45932
1.69255
1.5899
1.80177
1.51777
1.72638
2.25849
2.57368
2.11452
2.42101
1.93671
1.71962
1.87225
1.65768
2.85141
2.52124
2.71831
2.39493
1.32579
1.11444
1.26755
1.05866
2.06611
1.81318
1.94951
1.70228
1.0216
1.02149
0.967061
0.966955
1.70184
1.70161
1.59368
1.59345
1.11413
1.32531
1.05835
1.26707
1.81247
2.06489
1.7016
1.94833
1.71908
1.93633
1.65714
1.87185
2.51946
2.84912
2.3932
2.71607
2.05032
1.82903
1.99617
1.77684
3.088
2.74663
2.97423
2.63809
1.42932
1.21397
1.37988
1.16639
2.2752
2.0127
2.17439
1.91641
1.11911
1.11901
1.07247
1.07236
1.89678
1.89654
1.80264
1.8024
1.21366
1.42884
1.16608
1.3794
2.01195
2.27391
1.91568
2.17314
1.82851
2.04997
1.77631
1.9958
2.74475
3.0856
2.63625
2.97186
2.14467
1.9202
2.09995
1.87696
3.2875
2.93749
3.19198
2.84599
1.51613
1.29781
1.47492
1.25797
2.45323
2.18323
2.3678
2.10133
1.20143
1.20133
1.1623
1.16219
2.06372
2.06347
1.98351
1.98325
1.29749
1.51566
1.25766
1.47444
2.18245
2.4519
2.10056
2.36649
1.91969
2.14436
1.87644
2.09961
2.93555
3.28502
2.84407
3.18951
2.22152
1.99469
2.18533
1.95959
3.45246
3.09586
3.37383
3.02028
1.5875
1.36701
1.55385
1.33436
2.60168
2.32589
2.53079
2.25771
1.26953
1.26942
1.23738
1.23727
2.20363
2.20337
2.13673
2.13647
1.3667
1.58703
1.33404
1.55338
2.32509
2.60031
2.25692
2.52943
1.9942
2.22124
1.95909
2.18503
3.09387
3.44991
3.0183
3.37128
2.28269
2.05419
2.25414
2.0264
3.586
3.22446
3.52268
3.16341
1.64489
1.42291
1.61806
1.39676
2.72279
2.44264
2.66526
2.38714
1.32464
1.32454
1.29885
1.29874
2.31829
2.31802
2.26376
2.2635
1.4226
1.64443
1.39645
1.6176
2.44182
2.72139
2.38633
2.66388
2.05371
2.28244
2.02592
2.25387
3.22243
3.58339
3.16139
3.52008
2.3299
2.1003
2.30812
2.07901
3.69118
3.32608
3.64163
3.27814
1.68975
1.46682
1.66902
1.4465
2.81898
2.53566
2.77358
2.49173
1.36805
1.36795
1.34795
1.34785
2.4098
2.40953
2.36656
2.36629
1.46651
1.68929
1.4462
1.66856
2.53484
2.81757
2.4909
2.77218
2.09985
2.32968
2.07855
2.30789
3.32403
3.68855
3.2761
3.63898
2.36481
2.13462
2.349
2.11906
3.77118
3.40364
3.73383
3.36737
1.72351
1.5001
1.70817
1.48495
2.89285
2.60736
2.85829
2.57378
1.40105
1.40095
1.38601
1.38591
2.48047
2.48019
2.44735
2.44708
1.4998
1.72307
1.48465
1.70772
2.60653
2.89142
2.57295
2.85687
2.13418
2.36462
2.11861
2.34879
3.40157
3.76852
3.3653
3.73116
2.38889
2.15854
2.37834
2.14802
3.82883
3.45981
3.80232
3.43391
1.74749
1.52399
1.7369
1.5134
2.94682
2.66004
2.92191
2.63569
1.42486
1.42476
1.41429
1.41418
2.53252
2.53224
2.50844
2.50816
1.52369
1.74706
1.5131
1.73646
2.6592
2.94539
2.63485
2.92048
2.15812
2.38872
2.14759
2.37816
3.45773
3.82615
3.43182
3.79962
2.40347
2.17336
2.39752
2.16725
3.8668
3.49711
3.84981
3.48034
1.7629
1.53964
1.75646
1.53304
2.9832
2.69587
2.96681
2.67968
1.4406
1.4405
1.43393
1.43383
2.56808
2.5678
2.55198
2.5517
1.53935
1.76248
1.53275
1.75603
2.69503
2.98177
2.67884
2.96538
2.17295
2.40333
2.16683
2.39736
3.49503
3.86412
3.47825
3.8471
2.40972
2.18021
2.40781
2.17796
3.88744
3.51779
3.87884
3.50906
1.77081
1.54809
1.76801
1.54498
3.0041
2.71687
2.9952
2.70786
1.44927
1.44917
1.44603
1.44593
2.5891
2.58883
2.58004
2.57976
1.5478
1.77039
1.54469
1.76758
2.71603
3.00267
2.70701
2.99376
2.17981
2.4096
2.17756
2.40768
3.51571
3.88476
3.50698
3.87613
2.4087
2.18009
2.41028
2.1812
3.8926
3.52362
3.89158
3.52218
1.77213
1.5502
1.77252
1.55017
3.01124
2.72472
3.00906
2.72211
1.45174
1.45164
1.45152
1.45142
2.59727
2.597
2.59446
2.59418
1.54991
1.77172
1.54989
1.7721
2.72389
3.00982
2.72127
3.00764
2.17971
2.40859
2.1808
2.41016
3.52155
3.88993
3.5201
3.88888
2.40125
2.17391
2.40601
2.178
3.88484
3.51705
3.89024
3.52172
1.76784
1.54696
1.77095
1.54951
3.00679
2.72138
3.01021
2.72412
1.44897
1.44887
1.45126
1.45116
2.59442
2.59415
2.59686
2.59658
1.54668
1.76744
1.54923
1.77055
2.72055
3.00538
2.72329
3.0088
2.17353
2.40117
2.17762
2.40591
3.51501
3.88219
3.51965
3.88756
2.388
2.16221
2.39557
2.16896
3.8647
3.49861
3.87585
3.50883
1.75834
1.53872
1.76398
1.5437
2.99134
2.70754
3.00002
2.71539
1.44131
1.44121
1.44598
1.44589
2.58132
2.58105
2.58879
2.58852
1.53845
1.75795
1.54343
1.76358
2.70672
2.98995
2.71457
2.99862
2.16184
2.38793
2.16859
2.39548
3.49659
3.86208
3.50679
3.87319
2.36959
2.14564
2.37967
2.15477
3.83386
3.46994
3.85024
3.48517
1.74434
1.52618
1.75217
1.53326
2.96647
2.68469
2.97977
2.69694
1.42944
1.42935
1.43617
1.43607
2.55939
2.55913
2.57116
2.57089
1.52591
1.74395
1.53299
1.75178
2.68389
2.9651
2.69613
2.97838
2.14529
2.36952
2.15441
2.3796
3.46794
3.83127
3.48315
3.84761
2.34646
2.12468
2.35885
2.13596
3.79325
3.43193
3.81441
3.45172
1.72625
1.50976
1.73608
1.51873
2.93302
2.65365
2.95051
2.6699
1.41379
1.4137
1.42236
1.42227
2.52945
2.52919
2.54513
2.54486
1.5095
1.72587
1.51847
1.7357
2.65286
2.93166
2.6691
2.94914
2.12434
2.34641
2.13561
2.35879
3.42996
3.7907
3.44974
3.81182
2.31898
2.09966
2.33351
2.11293
3.74365
3.38536
3.76923
3.40936
1.70443
1.4898
1.71609
1.5005
2.89171
2.61513
2.91305
2.63504
1.39468
1.39459
1.40495
1.40486
2.49219
2.49194
2.51146
2.5112
1.48954
1.70406
1.50024
1.71572
2.61435
2.89038
2.63426
2.91171
2.09933
2.31893
2.11259
2.33346
3.38343
3.74115
3.4074
3.76668
2.28742
2.07088
2.30396
2.086
3.68568
3.3308
3.71538
3.35873
1.67915
1.46655
1.69251
1.47887
2.84311
2.56966
2.86804
2.59299
1.37238
1.37229
1.38422
1.38413
2.44815
2.4479
2.47075
2.4705
1.4663
1.67879
1.47862
1.69215
2.56889
2.84181
2.59222
2.86673
2.07056
2.28738
2.08567
2.30392
3.32892
3.68323
3.35682
3.71289
2.252
2.03853
2.27045
2.05541
3.61979
3.26873
3.65341
3.30038
1.65061
1.44022
1.66558
1.45406
2.78765
2.51766
2.81598
2.54422
1.34708
1.34699
1.36039
1.36031
2.39773
2.39749
2.42348
2.42323
1.43998
1.65026
1.45381
1.66522
2.51692
2.78639
2.54347
2.81469
2.03822
2.25197
2.05509
2.27041
3.26688
3.6174
3.29851
3.65097
2.21287
2.00276
2.23315
2.02133
3.54633
3.19945
3.58371
3.23467
1.61894
1.41094
1.63545
1.42624
2.72565
2.45944
2.75722
2.48909
1.3189
1.31882
1.33364
1.33355
2.34124
2.341
2.37
2.36976
1.4107
1.61859
1.426
1.6351
2.45872
2.72441
2.48835
2.75597
2.00246
2.21284
2.02102
2.23312
3.19766
3.544
3.23285
3.58133
2.17014
1.96369
2.19221
1.9839
3.46556
3.12324
3.50657
3.16191
1.58424
1.37879
1.60225
1.39551
2.65731
2.39521
2.69203
2.42784
1.28794
1.28786
1.30405
1.30397
2.27887
2.27864
2.31056
2.31032
1.37856
1.5839
1.39527
1.60192
2.3945
2.65611
2.42713
2.69081
1.9634
2.17012
1.9836
2.19218
3.1215
3.4633
3.16014
3.50426
2.12393
1.9214
2.14773
1.9432
3.37767
3.04027
3.42223
3.08231
1.54657
1.34383
1.56606
1.36195
2.5828
2.3251
2.6206
2.36067
1.25424
1.25416
1.27172
1.27163
2.21078
2.21055
2.24532
2.24509
1.34361
1.54625
1.36172
1.56573
2.32442
2.58164
2.35998
2.61942
1.92111
2.1239
1.94291
2.1477
3.03859
3.37548
3.0806
3.41999
2.07431
1.87593
2.09979
1.89931
3.28279
2.95066
3.33084
2.99603
1.50597
1.30609
1.52692
1.32559
2.50221
2.24922
2.54305
2.28768
1.21783
1.21775
1.23665
1.23657
2.13705
2.13683
2.17441
2.17418
1.30587
1.50565
1.32536
1.5266
2.24856
2.50109
2.28701
2.54191
1.87565
2.07428
1.89903
2.09976
2.94902
3.28068
2.99436
3.32867
2.02134
1.82733
2.04848
1.85226
3.18102
2.85445
3.23252
2.90311
1.46245
1.26556
1.48485
1.28644
2.4156
2.16762
2.45946
2.20894
1.17869
1.17861
1.19887
1.19879
2.05774
2.05753
2.09789
2.09767
1.26534
1.46214
1.28623
1.48454
2.16698
2.41452
2.20829
2.45835
1.82705
2.02131
1.85199
2.04845
2.85287
3.17898
2.90151
3.23042
1.96509
1.77559
1.99386
1.80209
3.07245
2.75184
3.12735
2.80367
1.416
1.22223
1.43986
1.24451
2.32303
2.08034
2.36987
2.1245
1.13682
1.13674
1.15836
1.15828
1.9729
1.9727
2.01582
2.01561
1.22202
1.4157
1.24429
1.43955
2.07973
2.32199
2.12388
2.3688
1.77532
1.96505
1.80182
1.99382
2.75033
3.0705
2.80212
3.12533
1.90561
1.72075
1.93597
1.74878
2.95716
2.64294
3.01543
2.69796
1.36661
1.17607
1.39193
1.19976
2.22453
1.98741
2.27434
2.03441
1.09217
1.0921
1.11509
1.11502
1.88256
1.88236
1.92824
1.92804
1.17586
1.36632
1.19955
1.39163
1.98682
2.22353
2.0338
2.27332
1.72049
1.90556
1.74852
1.93593
2.64149
2.95528
2.69647
3.01349
1.84297
1.66283
1.8749
1.69239
2.8351
2.52765
2.89677
2.58587
1.31427
1.12705
1.34106
1.15217
2.12008
1.88884
2.17288
1.93866
1.04472
1.04465
1.06904
1.06897
1.78673
1.78654
1.83516
1.83497
1.12685
1.31398
1.15196
1.34077
1.88828
2.11912
1.93809
2.17189
1.66257
1.84292
1.69213
1.87485
2.52625
2.8333
2.58445
2.89491
1.77726
1.60186
1.8107
1.63293
2.70625
2.40601
2.77133
2.46741
1.25895
1.07513
1.28721
1.10169
2.00968
1.78462
2.06546
1.83728
0.994407
0.994339
1.02016
1.02009
1.68542
1.68524
1.7366
1.73642
1.07494
1.25866
1.10149
1.28693
1.78409
2.00877
1.83673
2.06452
1.60161
1.77719
1.63267
1.81064
2.40468
2.70453
2.46604
2.76956
1.70864
1.53794
1.74349
1.57046
2.5706
2.27816
2.63909
2.34265
1.20065
1.02025
1.23039
1.04829
1.89337
1.67474
1.95212
1.73025
0.941137
0.941071
0.968371
0.968304
1.57857
1.57841
1.63255
1.63237
1.02006
1.20038
1.0481
1.23012
1.67423
1.89251
1.72972
1.95123
1.53769
1.70857
1.5702
1.74342
2.27691
2.56899
2.34136
2.63741
1.63763
1.47134
1.67356
1.50513
2.42842
2.14452
2.50012
2.21184
1.13938
0.962226
1.1706
0.991858
1.77115
1.55903
1.83286
1.6175
0.884675
0.884612
0.913537
0.913472
1.46597
1.46582
1.52288
1.52272
0.962045
1.13911
0.991673
1.17033
1.55856
1.77034
1.61701
1.83203
1.47109
1.63755
1.50488
1.67348
2.14334
2.4269
2.21062
2.49854
1.56591
1.40264
1.60183
1.43738
2.28131
2.00615
2.35509
2.07566
1.07486
0.900519
1.10777
0.932097
1.64273
1.43688
1.70764
1.49871
0.824423
0.824363
0.855279
0.855217
1.34699
1.34685
1.40722
1.40707
0.900346
1.07461
0.93192
1.10751
1.43645
1.64199
1.49826
1.70687
1.4024
1.56583
1.43714
1.60174
2.00506
2.2799
2.07452
2.35362
1.49999
1.33102
1.5315
1.36767
2.13752
1.86379
2.20767
1.93551
1.00481
0.833307
1.04107
0.867987
1.50562
1.30649
1.57553
1.37277
0.759053
0.758996
0.792672
0.792613
1.22058
1.22045
1.28465
1.28452
0.833143
1.00457
0.867818
1.04082
1.30611
1.50496
1.37237
1.57482
1.33078
1.49989
1.36743
1.53141
1.86281
2.13625
1.93447
2.20632
1.47527
1.23083
1.47756
1.2902
2.01856
1.68387
2.07522
1.78544
0.917633
0.75646
0.964974
0.796544
1.34817
1.16573
1.43059
1.23722
0.686756
0.686703
0.72402
0.723964
1.08749
1.08738
1.15447
1.15435
0.756307
0.917404
0.796385
0.964737
1.1654
1.3476
1.23686
1.42998
1.2306
1.47518
1.28997
1.47746
1.68304
2.01747
1.78453
2.07403
0.72516
0.591734
0.481637
0.39667
0.620746
0.502542
0.386744
0.319231
0.318567
0.179958
0.179377
0.0808471
0.249738
0.128388
0.128115
0.0486484
0.123164
0.123114
0.044506
0.0444765
0.0806129
0.0805772
0.0217819
0.0217681
0.179799
0.318298
0.0807364
0.179155
0.128271
0.249526
0.0485806
0.12796
0.591406
0.724875
0.396354
0.481329
0.502264
0.620492
0.318988
0.386497
1.05174
0.881544
0.906786
0.749423
0.934101
0.774442
0.794265
0.649711
0.561478
0.385137
0.445518
0.283346
0.466666
0.304595
0.362032
0.215676
0.308044
0.307976
0.214149
0.214088
0.235934
0.235876
0.155314
0.155266
0.384937
0.561175
0.28316
0.445225
0.30442
0.466386
0.215525
0.361781
0.881227
1.05151
0.749094
0.906524
0.77412
0.93384
0.649406
0.794002
1.28799
1.10517
1.17681
0.998884
1.16778
0.991365
1.05657
0.88721
0.769914
0.578141
0.669318
0.483788
0.66089
0.479925
0.566124
0.393192
0.491869
0.491798
0.401329
0.401258
0.400836
0.400766
0.318602
0.318537
0.577937
0.769627
0.483582
0.669019
0.47972
0.660579
0.392999
0.565824
1.10491
1.28787
0.998592
1.17663
0.991037
1.16755
0.886881
1.05632
1.48015
1.29223
1.38853
1.20261
1.36543
1.17973
1.27033
1.08868
0.95181
0.75267
0.86407
0.667978
0.837038
0.645011
0.751298
0.56416
0.661576
0.661508
0.578933
0.578863
0.559563
0.559488
0.481541
0.481468
0.752485
0.951569
0.667781
0.863803
0.644795
0.836724
0.563947
0.750983
1.29206
1.48016
1.2024
1.38848
1.17943
1.36527
1.08836
1.27013
1.64118
1.45127
1.56419
1.37504
1.53635
1.34488
1.45405
1.26516
1.10973
0.906969
1.03377
0.832504
0.994782
0.795647
0.918355
0.722412
0.813218
0.813159
0.739888
0.739825
0.706018
0.705942
0.634667
0.634591
0.906814
1.10955
0.832333
1.03356
0.795434
0.994485
0.722196
0.918048
1.45121
1.64134
1.37492
1.56428
1.34463
1.53627
1.26488
1.45393
1.77676
1.5863
1.71199
1.52169
1.68378
1.48851
1.61294
1.4194
1.24545
1.04101
1.18039
0.976622
1.13371
0.92982
1.06672
0.864982
0.945805
0.945756
0.882032
0.881978
0.837348
0.837276
0.773799
0.773725
1.04089
1.24533
0.976483
1.18024
0.929618
1.13344
0.864774
1.06644
1.58634
1.77706
1.52168
1.71222
1.48831
1.6838
1.41917
1.61291
1.89033
1.70007
1.8362
1.6458
1.80976
1.61187
1.74946
1.55275
1.36075
1.15574
1.30569
1.10088
1.25408
1.04697
1.19632
0.990671
1.05977
1.05974
1.00522
1.00518
0.952536
0.952468
0.89713
0.89706
1.15566
1.3607
1.10078
1.3056
1.04678
1.25384
0.990477
1.19607
1.70021
1.89077
1.64589
1.83657
1.61173
1.80987
1.55258
1.74952
1.9847
1.79497
1.93989
1.74988
1.91598
1.71637
1.86537
1.66652
1.45757
1.25261
1.41153
1.2065
1.35677
1.1475
1.30774
1.09944
1.15631
1.15629
1.11032
1.11029
1.05172
1.05166
1.00427
1.00421
1.25256
1.45757
1.20643
1.41151
1.14733
1.35657
1.09926
1.30752
1.7952
1.98526
1.75006
1.94038
1.71629
1.91618
1.66641
1.86553
2.06205
1.87305
2.0255
1.83613
2.00422
1.80356
1.96237
1.76218
1.53774
1.33323
1.49981
1.29505
1.44299
1.23232
1.40205
1.192
1.23687
1.23686
1.1987
1.19868
1.13563
1.13557
1.09571
1.09565
1.3332
1.5378
1.29501
1.49984
1.23217
1.44282
1.19184
1.40186
1.87335
2.06271
1.83639
2.02611
1.80354
2.00451
1.76213
1.96261
2.12443
1.93627
2.09514
1.90656
2.0764
1.87513
2.04237
1.84137
1.60313
1.39931
1.57238
1.3682
1.51422
1.30271
1.4806
1.26945
1.30308
1.30308
1.27189
1.27188
1.20543
1.20538
1.17243
1.17237
1.39931
1.60323
1.36819
1.57246
1.30258
1.51408
1.26931
1.48044
1.93665
2.12519
1.90691
2.09585
1.87516
2.07676
1.84137
2.0427
2.17363
1.9864
2.15072
1.96303
2.13423
1.9327
2.10717
1.90574
1.65545
1.45249
1.63103
1.42764
1.57194
1.36003
1.54489
1.33314
1.35652
1.35652
1.33153
1.33153
1.26241
1.26236
1.23567
1.23562
1.45252
1.6556
1.42766
1.63116
1.35991
1.57183
1.33302
1.54477
1.98684
2.17447
1.96344
2.15152
1.93277
2.13466
1.90579
2.10756
2.21131
2.02507
2.19398
2.00725
2.17939
1.97788
2.15849
1.95695
1.69632
1.49433
1.67745
1.47498
1.61765
1.40568
1.59644
1.38447
1.3987
1.39871
1.37917
1.37918
1.30792
1.30788
1.28676
1.28672
1.49438
1.6965
1.47502
1.67762
1.40558
1.61756
1.38436
1.59635
2.02556
2.21222
2.00772
2.19486
1.978
2.17987
1.95704
2.15894
2.23892
2.05372
2.22646
2.04074
2.21337
2.01213
2.19788
1.99649
1.72716
1.52624
1.71315
1.5117
1.65275
1.441
1.63669
1.42481
1.43102
1.43104
1.41627
1.41628
1.34325
1.34322
1.32704
1.327
1.52631
1.72738
1.51176
1.71335
1.44091
1.65269
1.42471
1.63661
2.05426
2.2399
2.04126
2.2274
2.01228
2.2139
1.99662
2.19839
2.25779
2.07367
2.24955
2.0649
2.23758
2.03682
2.22682
2.0258
1.74931
1.54951
1.7395
1.53914
1.67855
1.46726
1.667
1.45546
1.45476
1.45478
1.44416
1.44417
1.36965
1.36961
1.35776
1.35773
1.54959
1.74955
1.53922
1.73973
1.46718
1.67851
1.45537
1.66694
2.07425
2.25881
2.06546
2.25055
2.037
2.23816
2.02597
2.22738
2.26899
2.08602
2.26446
2.08093
2.25321
2.05312
2.24661
2.04617
1.76387
1.56526
1.75773
1.55853
1.69622
1.48557
1.68861
1.47762
1.47102
1.47105
1.46403
1.46406
1.38821
1.38818
1.38012
1.38009
1.56536
1.76414
1.55862
1.75799
1.4855
1.69619
1.47754
1.68857
2.08664
2.27006
2.08153
2.26551
2.05333
2.25384
2.04636
2.24722
2.27353
2.09179
2.27223
2.08988
2.26137
2.06213
2.25839
2.05871
1.77187
1.5745
1.7689
1.57092
1.7068
1.49697
1.70261
1.49236
1.48081
1.48084
1.47695
1.47698
1.39995
1.39992
1.39516
1.39513
1.57461
1.77215
1.57102
1.76918
1.4969
1.70679
1.49229
1.70259
2.09244
2.27465
2.09051
2.27332
2.06236
2.26202
2.05893
2.25903
2.27231
2.09185
2.27378
2.09269
2.26297
2.06476
2.26317
2.06443
1.77416
1.57808
1.77395
1.57723
1.7112
1.50234
1.71
1.50065
1.48498
1.48501
1.48384
1.48387
1.40575
1.40572
1.40384
1.40381
1.5782
1.77446
1.57735
1.77424
1.50228
1.7112
1.50059
1.71
2.09252
2.27345
2.09335
2.2749
2.06501
2.26366
2.06467
2.26384
2.266
2.08693
2.26995
2.09019
2.25892
2.0619
2.26185
2.06421
1.77153
1.57679
1.77368
1.57827
1.71025
1.50248
1.71162
1.5033
1.48431
1.48434
1.48548
1.48551
1.40639
1.40636
1.40696
1.40693
1.57692
1.77185
1.5784
1.77399
1.50243
1.71026
1.50325
1.71163
2.08762
2.26717
2.09087
2.2711
2.06217
2.25962
2.06447
2.26254
2.25517
2.07759
2.26132
2.08299
2.24975
2.05412
2.25517
2.05883
1.76452
1.57119
1.76881
1.57478
1.70459
1.49807
1.70827
1.50111
1.47937
1.4794
1.48263
1.48266
1.40255
1.40253
1.40529
1.40527
1.57132
1.76485
1.57491
1.76914
1.49802
1.70461
1.50106
1.70828
2.07829
2.25635
2.08369
2.26249
2.0544
2.25047
2.0591
2.25588
2.24032
2.06434
2.24843
2.07165
2.23605
2.04198
2.24368
2.04881
1.75367
1.5618
1.75983
1.56723
1.69474
1.48957
1.70045
1.4946
1.47066
1.4707
1.47575
1.47579
1.39469
1.39467
1.39939
1.39937
1.56193
1.754
1.56737
1.76016
1.48954
1.69477
1.49456
1.70048
2.06505
2.24151
2.07235
2.24961
2.04227
2.23678
2.0491
2.2444
2.22184
2.04759
2.23172
2.0566
2.21826
2.02596
2.22788
2.03468
1.73938
1.54903
1.74721
1.55611
1.68117
1.47749
1.68869
1.48426
1.45862
1.45866
1.46533
1.46537
1.3833
1.38328
1.38972
1.3897
1.54917
1.73972
1.55624
1.74755
1.47745
1.6812
1.48423
1.68872
2.0483
2.22303
2.05731
2.23291
2.02625
2.21899
2.03497
2.22861
2.20003
2.02765
2.21154
2.03822
2.19674
2.00641
2.20819
2.01685
1.72199
1.53323
1.73134
1.54179
1.66425
1.46217
1.67341
1.47052
1.44359
1.44363
1.45176
1.4518
1.36874
1.36872
1.3767
1.37668
1.53338
1.72233
1.54193
1.73168
1.46214
1.66429
1.47049
1.67345
2.02836
2.20122
2.03893
2.21273
2.00671
2.19748
2.01715
2.20893
2.17515
2.00478
2.18816
2.01678
2.17177
1.98362
2.18492
1.99565
1.70176
1.51466
1.7125
1.52457
1.64426
1.4439
1.65492
1.45369
1.42582
1.42586
1.43532
1.43536
1.35128
1.35127
1.36066
1.36064
1.51481
1.7021
1.52472
1.71284
1.44387
1.6443
1.45366
1.65497
2.0055
2.17633
2.0175
2.18935
1.98392
2.17251
1.99596
2.18566
2.14738
1.97918
2.16181
1.99253
2.14357
1.9578
2.15831
1.97133
1.67889
1.49351
1.69092
1.50469
1.62142
1.42289
1.63348
1.43403
1.4055
1.40554
1.41626
1.4163
1.33115
1.33113
1.34184
1.34183
1.49366
1.67923
1.50483
1.69126
1.42286
1.62146
1.434
1.63353
1.97989
2.14855
1.99324
2.16299
1.95811
2.1443
1.97163
2.15904
2.11687
1.951
2.13266
1.96562
2.1123
1.92913
2.12855
1.94406
1.65351
1.46993
1.66678
1.4823
1.59588
1.3993
1.60927
1.41171
1.3828
1.38283
1.39473
1.39477
1.30849
1.30847
1.32043
1.32041
1.47008
1.65385
1.48245
1.66712
1.39927
1.59593
1.41168
1.60932
1.9517
2.11803
1.96632
2.13382
1.92943
2.11302
1.94436
2.12927
2.08376
1.92036
2.10083
1.93619
2.07809
1.89773
2.09579
1.914
1.62576
1.44403
1.6402
1.45755
1.56777
1.37324
1.58243
1.38687
1.3578
1.35783
1.37086
1.3709
1.28342
1.2834
1.29654
1.29653
1.44417
1.62609
1.45769
1.64053
1.37322
1.56782
1.38684
1.58248
1.92104
2.08489
1.93688
2.10197
1.89803
2.0788
1.9143
2.0965
2.04814
1.88734
2.06645
1.90434
2.04104
1.86368
2.06014
1.88127
1.59569
1.41587
1.61127
1.4305
1.53716
1.34478
1.55305
1.3596
1.33057
1.33061
1.34473
1.34477
1.25599
1.25598
1.27028
1.27027
1.416
1.59601
1.43064
1.6116
1.34476
1.53721
1.35957
1.5531
1.88801
2.04925
1.90502
2.06757
1.86397
2.04174
1.88156
2.06084
2.01012
1.85202
2.02961
1.87016
2.00126
1.82706
2.02171
1.84592
1.56337
1.38549
1.58006
1.40122
1.50411
1.31398
1.52121
1.32996
1.30115
1.30119
1.3164
1.31644
1.22627
1.22625
1.2417
1.24169
1.38563
1.56368
1.40136
1.58038
1.31395
1.50415
1.32993
1.52126
1.85267
2.01119
1.87082
2.0307
1.82735
2.00193
1.84621
2.02239
1.96978
1.81447
1.99041
1.83371
1.95883
1.78794
1.98059
1.80803
1.52883
1.35293
1.54662
1.36974
1.46865
1.28084
1.48695
1.29797
1.26956
1.2696
1.28589
1.28593
1.19425
1.19423
1.21082
1.2108
1.35305
1.52913
1.36987
1.54693
1.28081
1.46869
1.29795
1.48699
1.8151
1.97082
1.83435
1.99146
1.78821
1.95947
1.80831
1.98125
1.92722
1.77474
1.94894
1.79506
1.91382
1.74637
1.93685
1.76767
1.4921
1.31818
1.51098
1.33608
1.4308
1.24537
1.45028
1.26366
1.2358
1.23583
1.25321
1.25324
1.15994
1.15992
1.17765
1.17763
1.3183
1.49239
1.3362
1.51127
1.24534
1.43084
1.26363
1.45032
1.77535
1.92822
1.79568
1.94996
1.74663
1.91444
1.76794
1.93748
1.88255
1.73293
1.9053
1.75426
1.86633
1.70236
1.89057
1.72487
1.4532
1.28124
1.47315
1.30023
1.39056
1.20756
1.41123
1.22701
1.19984
1.19987
1.21834
1.21837
1.12331
1.12329
1.14217
1.14215
1.28136
1.45348
1.30035
1.47344
1.20753
1.3906
1.22699
1.41127
1.73351
1.88351
1.75486
1.90628
1.70261
1.86692
1.72513
1.89118
1.83587
1.68908
1.8596
1.71142
1.81645
1.65598
1.84187
1.67966
1.41216
1.24212
1.43317
1.26219
1.34795
1.16738
1.3698
1.18802
1.16169
1.16171
1.18128
1.18131
1.08433
1.08432
1.10436
1.10435
1.24222
1.41242
1.2623
1.43344
1.16735
1.34797
1.18799
1.36983
1.68964
1.83678
1.71199
1.86054
1.65621
1.81701
1.67989
1.84244
1.78735
1.6433
1.81197
1.66658
1.76429
1.60729
1.79083
1.6321
1.369
1.20079
1.39106
1.22195
1.30295
1.12482
1.32598
1.14664
1.12129
1.12132
1.142
1.14203
1.04297
1.04295
1.06419
1.06418
1.20088
1.36924
1.22206
1.39131
1.12478
1.30297
1.14661
1.326
1.64382
1.78821
1.66712
1.81286
1.6075
1.76482
1.63232
1.79137
1.73724
1.59574
1.76261
1.61987
1.71003
1.55638
1.73758
1.58228
1.32378
1.15726
1.34685
1.17952
1.25558
1.0798
1.27979
1.10285
1.07865
1.07867
1.10047
1.1005
0.999133
0.999113
1.02159
1.02157
1.15735
1.324
1.17961
1.34708
1.07976
1.25559
1.10281
1.2798
1.59623
1.73805
1.62038
1.76345
1.55657
1.71051
1.58248
1.73808
1.686
1.54674
1.71185
1.57153
1.65397
1.50345
1.68235
1.53032
1.27664
1.11152
1.30064
1.13488
1.20587
1.03228
1.23123
1.05658
1.03364
1.03366
1.05666
1.05668
0.952738
0.952717
0.976482
0.976461
1.11159
1.27684
1.13496
1.30085
1.03224
1.20587
1.05653
1.23123
1.5472
1.68676
1.57201
1.71264
1.50362
1.65441
1.53049
1.68282
1.63466
1.49695
1.66036
1.52202
1.59689
1.44897
1.62562
1.47652
1.22773
1.0634
1.25259
1.08798
1.15389
0.982115
1.18036
1.00776
0.985996
0.98601
1.01038
1.0104
0.903522
0.9035
0.928718
0.928696
1.06346
1.2279
1.08805
1.25278
0.982065
1.15387
1.00771
1.18035
1.49737
1.63537
1.52245
1.66109
1.44911
1.5973
1.47667
1.62605
1.5861
1.44763
1.60982
1.47226
1.54105
1.39379
1.56869
1.42155
1.17695
1.01222
1.2028
1.03847
1.09944
0.928645
1.12722
0.956069
0.934839
0.934848
0.961138
0.961149
0.85073
0.850706
0.877847
0.877824
1.01226
1.1771
1.03852
1.20296
0.928589
1.09941
0.956016
1.1272
1.44799
1.58674
1.47265
1.61049
1.39391
1.54141
1.42168
1.56908
1.55062
1.39939
1.56544
1.42365
1.49498
1.33769
1.51574
1.36625
1.12196
0.955579
1.15053
0.985024
1.04007
0.869663
1.07093
0.90027
0.87814
0.878142
0.907539
0.907545
0.792596
0.79257
0.822668
0.822642
0.955606
1.12207
0.98506
1.15066
0.869599
1.04002
0.90021
1.0709
1.3997
1.55119
1.42399
1.56604
1.33778
1.49529
1.36634
1.51607
1.57835
1.3295
1.55
1.3726
1.5046
1.25664
1.48651
1.30582
1.05031
0.888273
1.0899
0.923763
0.963473
0.80032
1.00558
0.83677
0.813153
0.813149
0.846951
0.84695
0.7267
0.726672
0.76088
0.760853
0.888278
1.05038
0.92378
1.08999
0.800249
0.963406
0.836703
1.00552
1.32975
1.57886
1.37288
1.55054
1.25668
1.50486
1.30588
1.48679
0.877495
0.727165
0.625193
0.519769
0.808414
0.664985
0.559404
0.462419
0.432451
0.27384
0.271789
0.149142
0.378932
0.228616
0.227273
0.11499
0.205945
0.205869
0.100391
0.100333
0.165404
0.16534
0.0716594
0.0716149
0.27361
0.432088
0.148948
0.271444
0.228419
0.378612
0.114836
0.226987
0.72676
0.877174
0.519327
0.624788
0.664613
0.808106
0.462035
0.559043
1.2267
1.0463
1.07111
0.900379
1.14736
0.970869
0.99677
0.831357
0.7157
0.525133
0.580822
0.401668
0.644049
0.45899
0.517823
0.345483
0.439051
0.43897
0.322418
0.322337
0.376477
0.376401
0.270346
0.270273
0.524905
0.715379
0.401431
0.580471
0.458772
0.643733
0.345269
0.517496
1.04601
1.22655
0.900023
1.07086
0.970563
1.14717
0.831009
0.996512
1.4773
1.28972
1.36025
1.17492
1.39045
1.2044
1.27665
1.09399
0.952913
0.752164
0.839477
0.642376
0.867561
0.669942
0.760329
0.567517
0.659183
0.659115
0.552046
0.55197
0.579446
0.579375
0.480215
0.48014
0.751981
0.952689
0.642167
0.8392
0.669746
0.867303
0.567307
0.760037
1.28959
1.47737
1.17471
1.36021
1.20421
1.39042
1.09373
1.27653
1.6743
1.48645
1.5813
1.39311
1.58382
1.39549
1.49219
1.30449
1.15242
0.949285
1.05713
0.854602
1.05816
0.855987
0.966767
0.766258
0.853817
0.853769
0.760027
0.759968
0.761951
0.761893
0.673631
0.673566
0.949168
1.15232
0.85445
1.05696
0.855834
1.05799
0.766082
0.96655
1.4865
1.6746
1.39308
1.58148
1.39544
1.58398
1.30437
1.49225
1.83347
1.6478
1.75806
1.57115
1.74235
1.55451
1.66696
1.47868
1.31957
1.11729
1.23988
1.03693
1.22015
1.01693
1.14263
0.939664
1.02133
1.02131
0.941062
0.941025
0.921454
0.921413
0.844732
0.844682
1.11724
1.31958
1.03685
1.23984
1.01683
1.22007
0.939538
1.14251
1.64804
1.83398
1.5713
1.75847
1.5546
1.7427
1.47871
1.66722
1.96318
1.78049
1.90169
1.71749
1.87335
1.68705
1.81104
1.62391
1.45877
1.2587
1.39255
1.19129
1.35686
1.15421
1.29161
1.08855
1.16318
1.16318
1.09548
1.09547
1.05836
1.05833
0.992801
0.992768
1.25872
1.4589
1.19128
1.39263
1.15417
1.35688
1.08848
1.29158
1.78088
1.96388
1.71781
1.90231
1.68729
1.87388
1.62408
1.81148
2.0688
1.88922
2.01881
1.8377
1.98139
1.79702
1.9301
1.74476
1.5739
1.37651
1.51929
1.32055
1.47126
1.26993
1.41683
1.2148
1.28186
1.28188
1.22544
1.22545
1.17424
1.17424
1.11899
1.11897
1.37659
1.57413
1.3206
1.51947
1.26993
1.47136
1.21478
1.41689
1.88975
2.06968
1.83817
2.01961
1.79737
1.98207
1.74505
1.9307
2.15431
1.97768
2.11396
1.93591
2.0699
1.8875
2.02802
1.84465
1.66831
1.47371
1.62369
1.42771
1.56606
1.36638
1.52113
1.32062
1.3801
1.38013
1.33357
1.3336
1.27115
1.27115
1.22514
1.22513
1.47385
1.66864
1.42782
1.62397
1.36643
1.56624
1.32064
1.52127
1.97834
2.15534
1.9365
2.11492
1.88797
2.07072
1.84506
2.02877
2.22267
2.04879
2.19056
2.01537
2.14149
1.96102
2.10777
1.92637
1.74485
1.55295
1.70884
1.51563
1.64366
1.44575
1.60706
1.40827
1.46042
1.46047
1.42256
1.4226
1.35111
1.35113
1.31333
1.31334
1.55313
1.74524
1.51579
1.7092
1.44584
1.64391
1.40834
1.60727
2.04955
2.22383
2.01608
2.19166
1.96158
2.14243
1.92688
2.10865
2.27643
2.10506
2.25136
2.07879
2.19846
2.01983
2.17181
1.99229
1.80601
1.61668
1.77741
1.58684
1.70627
1.51014
1.67692
1.47991
1.52521
1.52528
1.49485
1.49491
1.41616
1.4162
1.38561
1.38563
1.6169
1.80647
1.58704
1.77785
1.51026
1.70657
1.48002
1.6772
2.10591
2.2777
2.07959
2.25258
2.02048
2.19951
1.99289
2.1728
2.31762
2.14855
2.2986
2.12842
2.24273
2.06584
2.2222
2.04447
1.85393
1.667
1.83171
1.64362
1.7558
1.56143
1.73277
1.53754
1.57656
1.57664
1.55268
1.55275
1.46815
1.4682
1.44392
1.44395
1.66725
1.85445
1.64386
1.83221
1.56158
1.75616
1.53768
1.7331
2.14948
2.31899
2.12931
2.29991
2.06656
2.24387
2.04515
2.22329
2.34804
2.18107
2.33422
2.16624
2.276
2.10076
2.26079
2.08476
1.89047
1.70578
1.87374
1.68797
1.79401
1.60134
1.77645
1.58295
1.61632
1.61641
1.59803
1.59811
1.50878
1.50883
1.49004
1.49008
1.70606
1.89104
1.68824
1.87429
1.60152
1.79441
1.58312
1.77683
2.18206
2.34949
2.1672
2.33563
2.10154
2.27722
2.0855
2.26197
2.36915
2.20412
2.35981
2.19384
2.2997
2.12605
2.28911
2.11469
1.91722
1.73461
1.90521
1.72159
1.82239
1.63138
1.80957
1.61776
1.64609
1.64619
1.63262
1.63271
1.53954
1.53959
1.52556
1.52561
1.73492
1.91783
1.72189
1.90579
1.63158
1.82282
1.61795
1.80999
2.20517
2.37066
2.19487
2.36129
2.12688
2.30099
2.11549
2.29036
2.38228
2.21907
2.37678