/*--------------------------------*- C++ -*----------------------------------*\
  =========                 |
  \\      /  F ield         | OpenFOAM: The Open Source CFD Toolbox
   \\    /   O peration     | Website:  https://openfoam.org
    \\  /    A nd           | Version:  9
     \\/     M anipulation  |
\*---------------------------------------------------------------------------*/
FoamFile
{
    format      ascii;
    class       volScalarField;
    location    "4.2";
    object      nut;
}
// * * * * * * * * * * * * * * * * * * * * * * * * * * * * * * * * * * * * * //

dimensions      [0 2 -1 0 0 0 0];

internalField   nonuniform List<scalar> 
36360
(
0.00417418
0.00380782
0.00276093
0.00254399
0.000618472
0.000573464
0.000371961
0.000396048
0.00297614
0.00246497
0.00167903
0.000969054
0.000427151
0.000298862
0.000251317
0.000187837
0.00230422
0.0023044
0.000517085
0.000517129
0.000242855
0.000242845
0.00016515
0.00016515
0.00246472
0.00297494
0.000968876
0.00167825
0.000298798
0.000427009
0.000187823
0.000251239
0.00380583
0.00417135
0.00254241
0.0027585
0.00057328
0.000618255
0.000395886
0.000371768
0.00602376
0.00570522
0.00518082
0.00482267
0.000846884
0.000781851
0.000753696
0.000691576
0.00503369
0.00473141
0.00407217
0.00369803
0.000658378
0.000568868
0.000557472
0.000450512
0.00468201
0.00468181
0.00363328
0.00363322
0.000524144
0.000524106
0.000391455
0.000391428
0.00473052
0.0050318
0.0036974
0.00407061
0.000568752
0.000658193
0.000450412
0.000557308
0.00570241
0.00602
0.00482027
0.00517754
0.000781621
0.000846622
0.000691368
0.000753458
0.00745989
0.00721369
0.00677409
0.00649604
0.000984718
0.000921193
0.000921154
0.000856526
0.00665408
0.00641642
0.00588754
0.00562582
0.000812512
0.000739905
0.000741372
0.000662099
0.00636528
0.00636492
0.00557738
0.0055771
0.000705338
0.000705292
0.000623844
0.000623801
0.00641516
0.00665169
0.00562473
0.00588538
0.000739769
0.000812298
0.000661972
0.00074117
0.0072102
0.00745522
0.00649287
0.00676986
0.000920925
0.000984412
0.000856274
0.000920868
0.00865112
0.00845227
0.00808281
0.00786231
0.00109022
0.00102912
0.00104051
0.00097821
0.00795946
0.00774659
0.00734008
0.00711707
0.000929668
0.000865316
0.000874636
0.000806738
0.00768815
0.00768768
0.00706204
0.00706162
0.000834925
0.000834875
0.00077459
0.000774542
0.00774507
0.00795672
0.00711567
0.0073375
0.000865169
0.000929436
0.000806595
0.000874412
0.00844829
0.00864575
0.00785855
0.00807774
0.00102883
0.00108988
0.000977928
0.00104019
0.00963427
0.00946935
0.00916555
0.00898487
0.00117452
0.00111566
0.00113462
0.00107466
0.00901828
0.00881839
0.00851496
0.00830921
0.00102245
0.00096316
0.000978608
0.000917048
0.0087546
0.00875407
0.00824764
0.00824714
0.000935218
0.000935166
0.00088801
0.000887959
0.00881671
0.0090153
0.0083076
0.00851209
0.000963008
0.00102221
0.000916898
0.000978371
0.00946504
0.00962841
0.0089807
0.00915988
0.00111535
0.00117417
0.00107437
0.00113427
0.0104424
0.0103029
0.0100571
0.00990564
0.00124261
0.00118568
0.00121032
0.00115246
0.00988017
0.00968879
0.00946984
0.00927435
0.00109699
0.0010412
0.00106168
0.00100428
0.00962198
0.00962141
0.00920867
0.00920811
0.00101493
0.00101488
0.000977244
0.000977192
0.009687
0.00987706
0.00927261
0.00946679
0.00104104
0.00109675
0.00100413
0.00106144
0.0102984
0.0104362
0.00990121
0.010051
0.00118538
0.00124225
0.00115215
0.00120996
0.0111048
0.010985
0.0107889
0.0106597
0.00129778
0.00124251
0.0012716
0.00121553
0.0105827
0.0103977
0.0102478
0.0100596
0.00115723
0.00110399
0.00112867
0.00107424
0.0103295
0.0103289
0.00999188
0.0099913
0.00107895
0.0010789
0.00104863
0.00104858
0.0103958
0.0105795
0.0100578
0.0102447
0.00110384
0.00115699
0.00107409
0.00112843
0.0109804
0.0110983
0.0106551
0.0107825
0.0012422
0.00129742
0.00121522
0.00127124
0.0116467
0.0115426
0.0113881
0.0112765
0.00134251
0.00128862
0.00132128
0.00126673
0.0111555
0.0109755
0.0108821
0.0106996
0.00120598
0.00115468
0.00118285
0.00113065
0.010907
0.0109064
0.0106311
0.0106305
0.00113058
0.00113053
0.00110611
0.00110606
0.0109736
0.0111522
0.0106977
0.0108789
0.00115453
0.00120574
0.0011305
0.00118262
0.0115379
0.0116401
0.0112718
0.0113815
0.00128831
0.00134215
0.00126642
0.00132092
0.0120888
0.0119978
0.0118777
0.0117804
0.00137866
0.00132593
0.00136152
0.00130822
0.0116217
0.0114457
0.011399
0.0112209
0.00124536
0.00119556
0.00122669
0.00117619
0.0113773
0.0113766
0.0111523
0.0111517
0.00117219
0.00117214
0.00115247
0.00115242
0.0114438
0.0116184
0.011219
0.0113957
0.00119541
0.00124512
0.00117604
0.00122645
0.011993
0.012082
0.0117756
0.0118709
0.00132562
0.0013783
0.00130792
0.00136116
0.0124476
0.0123672
0.0122762
0.0121907
0.00140774
0.00135596
0.00139397
0.00134173
0.0119997
0.0118268
0.011819
0.0116444
0.00127703
0.00122841
0.00126203
0.00121286
0.0117587
0.0117581
0.011576
0.0115754
0.00120561
0.00120556
0.00118979
0.00118974
0.0118249
0.0119964
0.0116425
0.0118157
0.00122827
0.0012768
0.00121271
0.0012618
0.0123623
0.0124407
0.0121859
0.0122693
0.00135566
0.00140739
0.00134143
0.00139361
0.0127364
0.0126646
0.0125984
0.0125224
0.00143091
0.00137991
0.00141996
0.00136858
0.0123038
0.0121336
0.0121583
0.0119866
0.00130229
0.00125461
0.00129035
0.00124223
0.012066
0.0120654
0.0119187
0.0119181
0.00123226
0.00123221
0.00121966
0.00121962
0.0121317
0.0123005
0.0119847
0.012155
0.00125447
0.00130206
0.00124208
0.00129012
0.0126597
0.0127295
0.0125175
0.0125915
0.00137961
0.00143056
0.00136828
0.0014196
0.0129665
0.0129015
0.0128566
0.0127883
0.00144913
0.00139876
0.00144055
0.00138987
0.0125462
0.0123781
0.0124302
0.0122609
0.00132219
0.00127526
0.00131281
0.00126553
0.0123111
0.0123105
0.0121935
0.0121928
0.00125328
0.00125323
0.00124337
0.00124332
0.0123762
0.0125429
0.012259
0.0124269
0.00127512
0.00132197
0.00126539
0.00131258
0.0128966
0.0129594
0.0127833
0.0128495
0.00139847
0.00144878
0.00138958
0.00144019
0.0131467
0.0130873
0.0130607
0.0129985
0.00146318
0.00141331
0.00145659
0.00140648
0.0127364
0.0125701
0.0126453
0.012478
0.00133759
0.00129126
0.00133037
0.00128375
0.0125036
0.012503
0.0124111
0.0124105
0.00126956
0.00126951
0.00126192
0.00126187
0.0125682
0.012733
0.0124761
0.012642
0.00129112
0.00133737
0.00128361
0.00133014
0.0130824
0.0131396
0.0129935
0.0130535
0.00141302
0.00146283
0.00140619
0.00145624
0.0132845
0.0132296
0.0132188
0.0131616
0.00147368
0.00142422
0.00146879
0.00141914
0.0128822
0.0127174
0.0128124
0.0126467
0.00134918
0.00130332
0.00134378
0.0012977
0.0126514
0.0126508
0.0125803
0.0125797
0.00128186
0.00128181
0.00127613
0.00127608
0.0127155
0.0128789
0.0126447
0.012809
0.00130318
0.00134896
0.00129756
0.00134356
0.0132247
0.0132773
0.0131566
0.0132115
0.00142393
0.00147333
0.00141885
0.00146844
0.013386
0.0133348
0.0133377
0.0132846
0.00148116
0.00143202
0.00147773
0.00142844
0.0129901
0.0128267
0.0129385
0.0127742
0.00135753
0.00131205
0.00135369
0.00130803
0.0127611
0.0127605
0.0127083
0.0127076
0.00129077
0.00129073
0.00128666
0.00128662
0.0128247
0.0129868
0.0127722
0.0129351
0.00131191
0.00135731
0.00130789
0.00135347
0.0133298
0.0133788
0.0132796
0.0133304
0.00143174
0.00148082
0.00142815
0.00147738
0.0134562
0.0134079
0.0134229
0.0133731
0.00148605
0.00143716
0.00148387
0.00143486
0.0130654
0.0129031
0.0130294
0.0128663
0.0013631
0.00131793
0.0013606
0.00131528
0.012838
0.0128373
0.0128009
0.0128003
0.0012968
0.00129675
0.00129408
0.00129403
0.0129011
0.013062
0.0128644
0.0130261
0.00131779
0.00136289
0.00131514
0.00136038
0.0134029
0.0134489
0.0133681
0.0134156
0.00143688
0.00148571
0.00143457
0.00148352
0.0134992
0.0134534
0.013479
0.0134319
0.0014887
0.00144
0.0014876
0.0014388
0.0131123
0.0129511
0.0130899
0.012928
0.00136629
0.00132135
0.00136493
0.00131988
0.0128864
0.0128858
0.012863
0.0128624
0.00130034
0.00130029
0.00129881
0.00129877
0.0129492
0.013109
0.0129261
0.0130866
0.00132121
0.00136607
0.00131974
0.00136472
0.0134484
0.0134919
0.0134269
0.0134717
0.00143972
0.00148836
0.00143852
0.00148725
0.0135179
0.0134742
0.0135097
0.0134648
0.00148937
0.00144081
0.00148924
0.0014406
0.0131346
0.0129744
0.0131242
0.0129632
0.00136738
0.00132263
0.00136705
0.0013222
0.0129101
0.0129095
0.0128986
0.012898
0.00130171
0.00130167
0.00130124
0.00130119
0.0129725
0.0131312
0.0129613
0.0131209
0.0013225
0.00136717
0.00132207
0.00136683
0.0134692
0.0135107
0.0134598
0.0135024
0.00144052
0.00148903
0.00144032
0.00148889
0.0135164
0.0134743
0.0135181
0.013475
0.00148839
0.00143992
0.00148907
0.00144055
0.0131352
0.0129755
0.0131353
0.012975
0.00136672
0.0013221
0.00136723
0.00132254
0.0129116
0.0129109
0.0129108
0.0129101
0.00130124
0.0013012
0.00130165
0.0013016
0.0129736
0.0131319
0.0129731
0.0131319
0.00132196
0.0013665
0.0013224
0.00136702
0.0134694
0.0135091
0.01347
0.0135107
0.00143964
0.00148805
0.00144027
0.00148873
0.0134955
0.0134549
0.0135062
0.0134648
0.00148582
0.00143741
0.00148724
0.0014388
0.0131162
0.012957
0.0131257
0.0129661
0.00136438
0.00131986
0.0013657
0.00132113
0.0128934
0.0128928
0.0129022
0.0129015
0.00129906
0.00129902
0.00130031
0.00130026
0.0129551
0.0131129
0.0129641
0.0131223
0.00131973
0.00136417
0.001321
0.00136548
0.01345
0.0134882
0.0134598
0.0134989
0.00143713
0.00148548
0.00143852
0.0014869
0.0134573
0.0134182
0.0134765
0.0134365
0.00148186
0.00143347
0.00148397
0.00143557
0.0130795
0.0129208
0.0130976
0.0129385
0.0013606
0.00131615
0.00136262
0.00131814
0.0128574
0.0128568
0.0128749
0.0128743
0.00129538
0.00129533
0.00129736
0.00129731
0.0129189
0.0130762
0.0129366
0.0130943
0.00131602
0.00136039
0.00131801
0.00136241
0.0134133
0.0134501
0.0134316
0.0134692
0.0014332
0.00148153
0.00143529
0.00148363
0.0134033
0.0133654
0.0134303
0.0133916
0.00147662
0.00142823
0.00147936
0.00143096
0.0130264
0.012868
0.0130526
0.0128938
0.00135547
0.00131106
0.00135815
0.00131373
0.0128049
0.0128043
0.0128305
0.0128298
0.00129031
0.00129027
0.00129297
0.00129293
0.0128661
0.0130231
0.0128919
0.0130493
0.00131093
0.00135526
0.0013136
0.00135795
0.0133605
0.0133961
0.0133867
0.013423
0.00142795
0.00147629
0.00143069
0.00147902
0.0133341
0.0132975
0.0133686
0.0133312
0.00147016
0.00142174
0.0014735
0.00142509
0.0129579
0.0127997
0.0129917
0.0128332
0.00134908
0.00130469
0.00135239
0.00130799
0.0127368
0.0127362
0.01277
0.0127694
0.00128395
0.00128391
0.00128725
0.00128721
0.0127978
0.0129547
0.0128313
0.0129884
0.00130456
0.00134887
0.00130786
0.00135218
0.0132927
0.013327
0.0133263
0.0133613
0.00142147
0.00146983
0.00142482
0.00147316
0.0132505
0.0132152
0.0132921
0.013256
0.00146253
0.00141406
0.00146645
0.001418
0.0128747
0.0127165
0.0129157
0.0127573
0.00134148
0.00129709
0.00134539
0.001301
0.0126538
0.0126532
0.0126944
0.0126938
0.00127635
0.00127631
0.00128026
0.00128022
0.0127147
0.0128715
0.0127555
0.0129125
0.00129696
0.00134128
0.00130087
0.00134519
0.0132104
0.0132434
0.0132511
0.0132849
0.0014138
0.00146221
0.00141774
0.00146612
0.0131527
0.0131187
0.0132014
0.0131665
0.00145376
0.00140523
0.00145825
0.00140975
0.012777
0.0126187
0.0128252
0.0126668
0.0013327
0.00128828
0.0013372
0.0012928
0.0125562
0.0125556
0.0126041
0.0126035
0.00126753
0.00126749
0.00127205
0.00127201
0.0126169
0.0127738
0.012665
0.0128221
0.00128816
0.0013325
0.00129267
0.001337
0.013114
0.0131457
0.0131618
0.0131943
0.00140496
0.00145344
0.00140948
0.00145793
0.0130408
0.0130081
0.0130966
0.013063
0.00144386
0.00139523
0.00144892
0.00140033
0.0126649
0.0125065
0.0127204
0.0125618
0.00132275
0.00127828
0.00132784
0.00128339
0.012444
0.0124434
0.0124992
0.0124986
0.0012575
0.00125745
0.00126262
0.00126258
0.0125047
0.0126618
0.01256
0.0127172
0.00127815
0.00132255
0.00128326
0.00132764
0.0130035
0.013034
0.0130583
0.0130896
0.00139497
0.00144355
0.00140007
0.0014486
0.0129148
0.0128834
0.0129776
0.0129454
0.00143281
0.00138406
0.00143844
0.00138975
0.0125383
0.0123795
0.0126011
0.0124423
0.0013116
0.00126705
0.00131729
0.00127278
0.0123171
0.0123165
0.0123797
0.0123791
0.00124623
0.00124619
0.00125198
0.00125194
0.0123777
0.0125352
0.0124405
0.012598
0.00126693
0.0013114
0.00127265
0.00131709
0.0128788
0.012908
0.0129408
0.0129707
0.0013838
0.0014325
0.00138949
0.00143813
0.0127742
0.0127441
0.0128444
0.0128135
0.00142059
0.00137169
0.00142681
0.00137798
0.0123968
0.0122375
0.0124671
0.0123079
0.00129922
0.00125456
0.00130553
0.00126093
0.0121752
0.0121746
0.0122453
0.0122448
0.00123369
0.00123365
0.00124008
0.00124004
0.0122358
0.0123938
0.0123061
0.0124641
0.00125444
0.00129903
0.00126081
0.00130534
0.0127395
0.0127676
0.0128089
0.0128376
0.00137144
0.00142029
0.00137773
0.0014265
0.0126186
0.0125895
0.0126964
0.0126667
0.00140716
0.00135807
0.00141399
0.001365
0.0122398
0.0120799
0.012318
0.0121581
0.00128556
0.00124076
0.00129252
0.0012478
0.0120175
0.0120169
0.0120956
0.0120951
0.00121982
0.00121978
0.00122689
0.00122685
0.0120781
0.0122368
0.0121564
0.012315
0.00124064
0.00128537
0.00124767
0.00129233
0.0125851
0.0126121
0.0126622
0.0126897
0.00135782
0.00140686
0.00136475
0.00141369
0.0124472
0.012419
0.012533
0.0125043
0.00139246
0.00134314
0.00139994
0.00135074
0.0120664
0.0119057
0.0121529
0.0119924
0.00127055
0.00122557
0.0012782
0.00123331
0.0118434
0.0118429
0.0119299
0.0119293
0.00120454
0.0012045
0.00121232
0.00121228
0.011904
0.0120635
0.0119907
0.01215
0.00122545
0.00127036
0.00123319
0.00127801
0.0124147
0.0124408
0.0124999
0.0125265
0.0013429
0.00139216
0.00135049
0.00139964
0.0122593
0.0122317
0.0123535
0.0123255
0.00137643
0.00132685
0.00138458
0.00133513
0.0118758
0.0117141
0.0119711
0.0118097
0.00125411
0.00120889
0.00126248
0.00121739
0.0116519
0.0116513
0.0117473
0.0117467
0.00118775
0.00118771
0.0011963
0.00119626
0.0117125
0.0118729
0.011808
0.0119682
0.00120877
0.00125392
0.00121727
0.00126229
0.0122274
0.0122531
0.0123211
0.0123471
0.00132661
0.00137614
0.00133488
0.00138428
0.0120536
0.0120262
0.0121569
0.0121293
0.00135898
0.0013091
0.00136786
0.00131813
0.0116666
0.0115039
0.0117714
0.011609
0.00123612
0.00119061
0.00124528
0.00119993
0.0114417
0.0114411
0.0115466
0.0115461
0.00116933
0.00116929
0.00117871
0.00117867
0.0115022
0.0116638
0.0116073
0.0117685
0.0011905
0.00123593
0.00119981
0.00124509
0.012022
0.0120475
0.0121251
0.0121507
0.00130886
0.0013587
0.00131789
0.00136756
0.0118287
0.0118009
0.0119419
0.0119142
0.00134001
0.00128978
0.00134966
0.00129961
0.0114371
0.0112733
0.0115523
0.0113888
0.00121646
0.00117059
0.00122647
0.0011808
0.0112113
0.0112107
0.0113266
0.011326
0.00114914
0.0011491
0.00115943
0.00115939
0.0112717
0.0114344
0.0113872
0.0115495
0.00117047
0.00121627
0.00118068
0.00122629
0.0117968
0.0118228
0.0119101
0.0119358
0.00128954
0.00133973
0.00129937
0.00134938
0.0115826
0.0115537
0.0117067
0.0116783
0.00131939
0.00126874
0.00132989
0.00127944
0.0111855
0.0110203
0.0113121
0.0111474
0.00119496
0.00114865
0.00120592
0.00115984
0.0109586
0.0109581
0.0110853
0.0110848
0.00112699
0.00112696
0.00113829
0.00113825
0.0110188
0.0111828
0.0111458
0.0113094
0.00114853
0.00119478
0.00115972
0.00120574
0.0115497
0.0115768
0.0116742
0.0117008
0.0012685
0.00131911
0.00127921
0.0013296
0.0113127
0.0112822
0.0114491
0.0114193
0.00129696
0.00124585
0.00130838
0.0012575
0.0109091
0.0107425
0.0110485
0.0108824
0.00117144
0.00112457
0.00118344
0.00113686
0.010681
0.0106805
0.0108206
0.0108201
0.00110266
0.00110262
0.00111508
0.00111504
0.0107409
0.0109064
0.0108808
0.0110458
0.00112446
0.00117126
0.00113675
0.00118326
0.0112783
0.0113071
0.0114154
0.0114434
0.00124562
0.00129669
0.00125727
0.0013081
0.0110161
0.0109835
0.0111663
0.0111347
0.00127258
0.00122099
0.00128499
0.00123364
0.0106047
0.0104361
0.0107586
0.0105909
0.00114567
0.00109805
0.00115883
0.00111161
0.0103749
0.0103745
0.0105294
0.0105289
0.00107579
0.00107575
0.00108953
0.00108949
0.0104346
0.0106021
0.0105894
0.010756
0.00109794
0.0011455
0.0011115
0.00115865
0.0109797
0.0110107
0.0111308
0.0111608
0.00122076
0.00127232
0.00123341
0.00128472
0.0106903
0.0106539
0.0108553
0.0108211
0.00124634
0.00119413
0.00125964
0.00120777
0.0102674
0.010096
0.0104386
0.0102685
0.00111728
0.00106859
0.00113181
0.0010837
0.0100352
0.0100348
0.0102073
0.0102068
0.00104586
0.00104582
0.00106122
0.00106118
0.0100946
0.010265
0.010267
0.0104361
0.00106848
0.00111711
0.00108359
0.00113164
0.0106504
0.0106852
0.0108174
0.01085
0.00119392
0.00124609
0.00120755
0.00125938
0.0103443
0.0102885
0.0105164
0.0104746
0.00121958
0.00116519
0.00123278
0.00117995
0.0098882
0.00971518
0.0100821
0.00990891
0.00108529
0.00103523
0.00110183
0.00105245
0.00965694
0.00965653
0.00984872
0.00984829
0.00101206
0.00101203
0.00102947
0.00102943
0.00971392
0.00988598
0.00990757
0.0100797
0.00103513
0.00108513
0.00105235
0.00110167
0.0102852
0.0103396
0.0104712
0.0105114
0.00116498
0.00121934
0.00117974
0.00123253
0.0100534
0.0098501
0.010182
0.0100838
0.00119652
0.00112642
0.00120761
0.00114863
0.00945265
0.00929705
0.00967574
0.00950686
0.00104606
0.000996636
0.00106695
0.00101661
0.0092489
0.00924854
0.00945232
0.00945194
0.000973857
0.000973824
0.000993451
0.000993418
0.00929593
0.0094507
0.00950567
0.00967365
0.000996542
0.00104591
0.00101651
0.0010668
0.00984723
0.0100492
0.0100807
0.0101775
0.00112623
0.0011963
0.00114843
0.00120738
0.00745973
0.00690741
0.00530401
0.00486493
0.00604245
0.00554101
0.00415512
0.00378362
0.00591084
0.00535104
0.00379037
0.00306895
0.00457298
0.00399626
0.00276167
0.00199607
0.00521918
0.00521894
0.0028034
0.00280357
0.00384656
0.00384657
0.0015258
0.00152597
0.00534954
0.00590745
0.0030682
0.00378785
0.00399538
0.00457069
0.00199582
0.00276009
0.00690237
0.00745304
0.0048608
0.00529819
0.00553748
0.0060376
0.00378082
0.004151
0.0112344
0.0107102
0.00939987
0.00884835
0.00905378
0.00857912
0.00761949
0.00711561
0.00990079
0.00957109
0.0079467
0.00752039
0.00779729
0.00747021
0.00623922
0.00580855
0.00955329
0.00955246
0.00746135
0.0074608
0.00744863
0.00744814
0.00574321
0.00574293
0.00956819
0.00989548
0.00751819
0.00794238
0.00746833
0.00779362
0.00580715
0.00623625
0.0107028
0.0112251
0.00884219
0.00939191
0.00857387
0.00904693
0.00711123
0.00761367
0.0146608
0.0141971
0.0129876
0.0124943
0.0116558
0.0112448
0.0103967
0.00995363
0.0135254
0.0133057
0.0117609
0.0114962
0.0106042
0.0103884
0.00924987
0.00898942
0.0133207
0.0133194
0.0114997
0.0114987
0.0103958
0.010395
0.00898744
0.00898677
0.0133014
0.0135181
0.0114926
0.0117546
0.0103856
0.0105992
0.00898708
0.00924554
0.0141874
0.0146487
0.0124856
0.0129768
0.0112379
0.0116469
0.0099475
0.0103887
0.0177306
0.0173175
0.0162413
0.0158042
0.0139225
0.0135661
0.0128289
0.0124468
0.0167351
0.0165677
0.0151815
0.0149919
0.0130169
0.0128517
0.0118564
0.0116701
0.0165899
0.0165882
0.0150118
0.0150102
0.0128631
0.012862
0.0116806
0.0116796
0.0165624
0.0167262
0.0149871
0.0151734
0.0128482
0.0130109
0.0116669
0.0118509
0.0173056
0.017716
0.0157934
0.0162277
0.0135578
0.0139118
0.0124392
0.012819
0.0204157
0.0200422
0.0191197
0.0187274
0.0158656
0.0155518
0.0149317
0.0145978
0.0195205
0.0193808
0.0181777
0.0180256
0.0150641
0.014925
0.0140819
0.0139312
0.0194028
0.0194007
0.0180478
0.0180459
0.0149345
0.0149332
0.0139416
0.0139404
0.0193746
0.0195103
0.0180198
0.0181681
0.014921
0.0150573
0.0139274
0.0140754
0.0200287
0.0203991
0.0187147
0.0191038
0.0155424
0.0158535
0.0145889
0.0149201
0.0227233
0.0223807
0.0216129
0.0212557
0.0175081
0.0172279
0.0167205
0.0164243
0.0219025
0.0217795
0.020757
0.0206261
0.0167839
0.0166605
0.0159598
0.015829
0.0217994
0.0217971
0.0206468
0.0206446
0.0166672
0.0166658
0.0158368
0.0158354
0.0217726
0.0218913
0.0206195
0.0207463
0.0166561
0.0167765
0.0158248
0.0159527
0.0223659
0.022705
0.0212414
0.0215952
0.0172178
0.0174949
0.0164144
0.0167077
0.0246826
0.0243642
0.023742
0.023412
0.0188834
0.0186303
0.0182247
0.0179586
0.0239184
0.0238066
0.0229507
0.0228332
0.0182187
0.0181058
0.0175316
0.0174135
0.0238245
0.0238221
0.0228518
0.0228494
0.0181102
0.0181087
0.0174188
0.0174173
0.0237992
0.0239065
0.0228261
0.0229391
0.0181011
0.0182109
0.017409
0.017524
0.0243484
0.024663
0.0233966
0.0237228
0.0186195
0.0188694
0.0179481
0.0182109
0.0263303
0.0260318
0.0255406
0.0252324
0.0200288
0.0197966
0.0194803
0.0192382
0.0256112
0.0255075
0.0247995
0.0246914
0.0194097
0.0193043
0.0188395
0.0187302
0.0255239
0.0255213
0.0247083
0.0247057
0.0193072
0.0193056
0.0187335
0.0187319
0.0254998
0.0255987
0.0246839
0.0247872
0.0192995
0.0194015
0.0187254
0.0188315
0.0260152
0.0263097
0.0252161
0.0255202
0.0197853
0.0200141
0.0192272
0.0194657
0.0277044
0.0274221
0.0270466
0.0267563
0.0209762
0.0207601
0.0205229
0.0202991
0.0270215
0.0269242
0.0263459
0.0262451
0.0203925
0.020293
0.019922
0.0198193
0.0269396
0.026937
0.0262606
0.0262579
0.0202948
0.0202932
0.0198213
0.0198197
0.0269162
0.0270086
0.0262372
0.0263331
0.020288
0.0203842
0.0198144
0.0199138
0.0274049
0.027683
0.0267394
0.0270253
0.0207485
0.0209609
0.0202876
0.0205078
0.0288417
0.0285726
0.0282978
0.0280222
0.0217541
0.0215511
0.0213821
0.0211727
0.0281882
0.0280961
0.0276297
0.0275346
0.0211988
0.021104
0.0208128
0.0207153
0.0281109
0.0281081
0.0275493
0.0275466
0.0211052
0.0211035
0.0207165
0.0207149
0.0280879
0.0281748
0.0275265
0.0276165
0.0210989
0.0211903
0.0207103
0.0208044
0.0285549
0.0288196
0.0280047
0.0282757
0.0215393
0.0217384
0.021161
0.0213664
0.0297741
0.0295158
0.0293288
0.0290651
0.0223873
0.0221949
0.0220846
0.021887
0.0291444
0.0290567
0.0286871
0.0285967
0.0218549
0.0217639
0.0215408
0.0214476
0.0290712
0.0290684
0.028611
0.0286082
0.0217648
0.0217631
0.0214483
0.0214466
0.0290483
0.0291308
0.0285884
0.0286736
0.0217587
0.0218462
0.0214424
0.0215322
0.0294976
0.0297514
0.0290471
0.029306
0.0221828
0.0223712
0.021875
0.0220685
0.03053
0.0302805
0.0301696
0.0299156
0.022897
0.0227132
0.0226535
0.0224655
0.0299199
0.0298359
0.0295494
0.0294631
0.0223832
0.0222956
0.0221304
0.0220407
0.0298504
0.0298475
0.0294773
0.0294744
0.0222964
0.0222947
0.0220413
0.0220395
0.0298274
0.029906
0.0294546
0.0295356
0.0222903
0.0223744
0.0220354
0.0221216
0.030262
0.0305068
0.0298972
0.0301462
0.0227009
0.0228806
0.0224532
0.0226371
0.0311334
0.0308913
0.0308463
0.0306004
0.023301
0.0231243
0.0231083
0.022928
0.0305395
0.0304588
0.030244
0.0301611
0.0228025
0.0227176
0.0226019
0.0225152
0.0304735
0.0304705
0.0301754
0.0301724
0.0227186
0.0227168
0.0225159
0.0225141
0.0304501
0.0305254
0.0301525
0.03023
0.0227123
0.0227935
0.0225099
0.022593
0.0308725
0.0311098
0.0305817
0.0308225
0.0231118
0.0232844
0.0229156
0.0230915
0.0316056
0.0313694
0.0313815
0.0311423
0.0236146
0.0234435
0.0234652
0.0232913
0.031025
0.0309472
0.0307939
0.0307141
0.0231284
0.0230459
0.0229725
0.0228885
0.0309621
0.0309592
0.0307286
0.0307257
0.0230472
0.0230454
0.0228893
0.0228875
0.0309384
0.0310108
0.0307054
0.0307797
0.0230405
0.0231193
0.0228831
0.0229635
0.0313504
0.0315816
0.0311233
0.0313574
0.0234309
0.0235977
0.0232787
0.0234482
0.0319641
0.031733
0.0317948
0.0315611
0.0238501
0.0236837
0.0237382
0.0235694
0.0313947
0.0313193
0.0312193
0.0311422
0.023374
0.0232938
0.0232567
0.023175
0.0313347
0.0313317
0.0311571
0.0311541
0.0232954
0.0232936
0.0231761
0.0231743
0.0313104
0.0313802
0.0311334
0.031205
0.0232883
0.0233649
0.0231695
0.0232477
0.0317137
0.0319398
0.0315418
0.0317703
0.023671
0.023833
0.0235567
0.023721
0.0322243
0.0319972
0.0321023
0.0318731
0.0240183
0.0238556
0.0239388
0.0237742
0.0316639
0.0315908
0.0315369
0.0314621
0.0235504
0.0234721
0.0234664
0.0233867
0.0316067
0.0316037
0.0314774
0.0314744
0.0234741
0.0234723
0.0233883
0.0233864
0.0315818
0.0316493
0.0314532
0.0315224
0.0234666
0.0235412
0.0233812
0.0234573
0.0319778
0.0321998
0.0318537
0.0320776
0.0238428
0.0240011
0.0237614
0.0239214
0.032398
0.0321745
0.0323181
0.0320926
0.024128
0.0239684
0.0240768
0.0239154
0.0318457
0.0317746
0.0317609
0.0316882
0.0236666
0.02359
0.0236116
0.0235337
0.0317912
0.0317881
0.0317041
0.0317011
0.0235926
0.0235908
0.0235357
0.0235339
0.0317656
0.0318311
0.0316792
0.0317463
0.0235845
0.0236574
0.0235282
0.0236024
0.032155
0.0323734
0.032073
0.0322932
0.0239555
0.0241107
0.0239026
0.0240592
0.0324969
0.0322759
0.0324527
0.0322304
0.0241856
0.0240283
0.0241594
0.024001
0.03195
0.0318809
0.0319028
0.0318324
0.0237295
0.0236547
0.0237006
0.0236244
0.0318981
0.031895
0.031849
0.0318459
0.023658
0.0236561
0.023627
0.0236252
0.0318718
0.0319354
0.0318234
0.0318882
0.0236492
0.0237203
0.0236189
0.0236914
0.0322563
0.0324722
0.0322108
0.0324277
0.0240154
0.0241682
0.0239881
0.0241418
0.0325303
0.0323117
0.0325183
0.0322984
0.0241992
0.024044
0.0241948
0.0240384
0.0319889
0.0319214
0.0319735
0.0319043
0.0237475
0.0236738
0.0237402
0.0236653
0.0319391
0.0319361
0.0319213
0.0319182
0.0236775
0.0236757
0.0236684
0.0236665
0.0319123
0.0319743
0.0318953
0.0319588
0.0236683
0.0237383
0.0236598
0.023731
0.0322921
0.0325056
0.0322787
0.0324932
0.0240311
0.0241818
0.0240255
0.0241771
0.032504
0.0322873
0.0325207
0.0323028
0.0241718
0.0240181
0.0241869
0.0240323
0.0319667
0.0319005
0.0319806
0.0319132
0.0237233
0.0236508
0.0237362
0.0236626
0.0319189
0.0319159
0.0319309
0.0319279
0.023655
0.0236532
0.0236663
0.0236645
0.0318915
0.0319521
0.0319042
0.031966
0.0236453
0.0237141
0.0236571
0.023727
0.0322678
0.0324794
0.0322832
0.0324956
0.0240053
0.0241544
0.0240194
0.0241692
0.0324244
0.0322093
0.0324671
0.032251
0.0241079
0.0239554
0.0241408
0.0239876
0.0318905
0.0318255
0.0319308
0.0318647
0.0236618
0.0235903
0.0236929
0.0236204
0.0318445
0.0318415
0.031883
0.0318799
0.023595
0.0235932
0.0236246
0.0236228
0.0318165
0.0318759
0.0318556
0.0319162
0.0235848
0.0236527
0.0236149
0.0236838
0.0321898
0.0323999
0.0322314
0.0324421
0.0239427
0.0240906
0.0239747
0.0241232
0.0322958
0.032082
0.0323626
0.0321478
0.0240103
0.0238588
0.0240597
0.0239076
0.0317646
0.0317007
0.0318292
0.0317642
0.023566
0.0234953
0.0236139
0.0235423
0.0317203
0.0317172
0.0317832
0.0317801
0.0235005
0.0234987
0.023547
0.0235452
0.0316917
0.0317501
0.0317552
0.0318147
0.0234898
0.0235569
0.0235369
0.0236048
0.0320626
0.0322715
0.0321284
0.0323377
0.0238461
0.0239931
0.0238948
0.0240422
0.0321214
0.0319086
0.0322108
0.0319972
0.0238811
0.0237305
0.0239461
0.0237949
0.0315922
0.0315292
0.0316798
0.0316157
0.023438
0.0233679
0.0235018
0.0234309
0.0315493
0.0315463
0.0316353
0.0316322
0.0233736
0.0233718
0.0234361
0.0234343
0.0315203
0.0315778
0.0316068
0.0316653
0.0233625
0.023429
0.0234255
0.0234927
0.0318895
0.0320973
0.0319779
0.0321861
0.0237179
0.0238641
0.0237822
0.0239288
0.0319033
0.0316913
0.0320143
0.0318017
0.0237218
0.0235717
0.0238018
0.0236512
0.0313755
0.0313132
0.031485
0.0314218
0.0232792
0.0232096
0.0233582
0.0232879
0.0313339
0.0313309
0.0314419
0.0314389
0.0232157
0.023214
0.0232936
0.0232918
0.0313044
0.0313613
0.031413
0.0314707
0.0232042
0.0232702
0.0232825
0.0233493
0.0316724
0.0318795
0.0317826
0.03199
0.0235593
0.023705
0.0236386
0.0237846
0.0316427
0.0314313
0.0317749
0.031563
0.0235331
0.0233834
0.0236278
0.0234776
0.0311156
0.0310539
0.0312467
0.0311841
0.0230903
0.023021
0.0231844
0.0231144
0.0310751
0.0310721
0.0312047
0.0312017
0.0230276
0.0230258
0.0231205
0.0231187
0.0310452
0.0311016
0.0311753
0.0312325
0.0230157
0.0230815
0.0231091
0.0231755
0.0314126
0.0316192
0.0315441
0.0317508
0.0233711
0.0235166
0.0234652
0.0236108
0.0313397
0.0311287
0.0314932
0.0312817
0.0233152
0.0231656
0.0234245
0.0232746
0.0308128
0.0307514
0.0309654
0.0309033
0.0228717
0.0228024
0.0229807
0.0229109
0.0307731
0.0307702
0.0309244
0.0309214
0.0228093
0.0228076
0.0229173
0.0229156
0.0307428
0.030799
0.0308946
0.0309514
0.0227972
0.022863
0.0229056
0.0229719
0.0311103
0.0313166
0.0312631
0.0314695
0.0231535
0.0232989
0.0232624
0.0234078
0.030994
0.030783
0.031169
0.0309578
0.0230677
0.022918
0.0231919
0.023042
0.0304665
0.0304053
0.030641
0.0305791
0.0226227
0.0225533
0.022747
0.0226772
0.0304273
0.0304244
0.0306006
0.0305977
0.0225605
0.0225588
0.0226839
0.0226822
0.0303968
0.0304529
0.0305706
0.0306273
0.0225482
0.0226142
0.022672
0.0227383
0.030765
0.0309713
0.0309395
0.0311457
0.0229061
0.0230517
0.02303
0.0231755
0.0306041
0.030393
0.0308014
0.0305902
0.0227899
0.0226398
0.0229294
0.0227793
0.0300753
0.030014
0.0302726
0.0302107
0.0223426
0.0222729
0.0224827
0.0224126
0.0300364
0.0300335
0.0302326
0.0302297
0.0222803
0.0222786
0.0224197
0.0224179
0.0300056
0.0300619
0.0302023
0.030259
0.0222678
0.0223342
0.0224075
0.0224742
0.0303753
0.030582
0.0305722
0.0307787
0.0226281
0.0227742
0.0227675
0.0229133
0.0301682
0.0299565
0.0303889
0.0301773
0.0224804
0.0223295
0.022636
0.0224854
0.0296371
0.0295754
0.0298582
0.0297961
0.02203
0.0219596
0.0221866
0.022116
0.0295981
0.0295953
0.0298183
0.0298155
0.0219673
0.0219656
0.0221233
0.0221216
0.0295672
0.0296239
0.0297878
0.0298449
0.0219546
0.0220217
0.022111
0.0221782
0.0299391
0.0301466
0.0301597
0.0303667
0.022318
0.022465
0.0224737
0.0226202
0.0296835
0.0294706
0.0299291
0.0297165
0.0221374
0.0219853
0.0223101
0.0221585
0.0291489
0.0290866
0.0293955
0.0293329
0.0216828
0.0216116
0.021857
0.0217857
0.0291096
0.0291069
0.0293554
0.0293527
0.0216194
0.0216178
0.0217932
0.0217915
0.0290786
0.029136
0.0293248
0.0293825
0.0216067
0.0216747
0.0217808
0.0218488
0.0294536
0.0296624
0.0296993
0.0299073
0.0219741
0.0221224
0.0221471
0.0222946
0.0291466
0.0289321
0.0294188
0.0292049
0.0217588
0.0216051
0.0219497
0.0217966
0.0286073
0.028544
0.0288812
0.0288179
0.0212988
0.0212264
0.0214918
0.0214195
0.0285673
0.0285646
0.0288406
0.0288379
0.0212345
0.0212329
0.0214272
0.0214256
0.0285362
0.0285947
0.0288099
0.0288685
0.0212216
0.0212909
0.0214147
0.0214838
0.0289155
0.0291261
0.0291881
0.0293977
0.0215941
0.0217443
0.0217855
0.0219346
0.0285533
0.0283365
0.0288544
0.0286386
0.0213419
0.0211859
0.0215524
0.0213974
0.0280077
0.0279431
0.0283113
0.0282469
0.020875
0.0208012
0.0210885
0.0210148
0.0279665
0.0279639
0.0282698
0.0282672
0.0208093
0.0208078
0.0210226
0.0210211
0.0279354
0.0279954
0.0282391
0.0282989
0.0207965
0.0208673
0.0210101
0.0210806
0.0283204
0.0285334
0.0286223
0.0288339
0.0211752
0.0213277
0.0213866
0.0215378
0.0278981
0.0276782
0.028231
0.0280125
0.0208829
0.0207238
0.0211151
0.0209574
0.0273444
0.027278
0.0276808
0.0276148