/*--------------------------------*- C++ -*----------------------------------*\
  =========                 |
  \\      /  F ield         | OpenFOAM: The Open Source CFD Toolbox
   \\    /   O peration     | Website:  https://openfoam.org
    \\  /    A nd           | Version:  9
     \\/     M anipulation  |
\*---------------------------------------------------------------------------*/
FoamFile
{
    format      ascii;
    class       volScalarField;
    location    "4.2";
    object      p;
}
// * * * * * * * * * * * * * * * * * * * * * * * * * * * * * * * * * * * * * //

dimensions      [0 2 -2 0 0 0 0];

internalField   nonuniform List<scalar> 
36360
(
20.1215
20.0851
20.1151
20.0893
20.0951
20.1047
20.0966
20.1004
20.0993
20.1003
20.0998
20.1004
20.0991
20.0994
20.0986
20.0991
20.1003
20.1003
20.1004
20.1004
20.0995
20.0995
20.0992
20.0992
20.1003
20.0993
20.1004
20.0998
20.0994
20.0991
20.0991
20.0986
20.0851
20.1215
20.0893
20.1151
20.1046
20.095
20.1004
20.0966
20.1102
20.0951
20.1157
20.0906
20.0766
20.123
20.0864
20.1138
20.0997
20.0996
20.0994
20.1001
20.1002
20.0987
20.0995
20.0992
20.0997
20.0997
20.1001
20.1001
20.0987
20.0987
20.0992
20.0992
20.0996
20.0997
20.1001
20.0994
20.0987
20.1002
20.0992
20.0995
20.0951
20.1102
20.0906
20.1157
20.123
20.0767
20.1138
20.0864
20.0993
20.1035
20.1048
20.0995
20.0572
20.1404
20.0668
20.132
20.1021
20.0989
20.1006
20.0991
20.1033
20.0982
20.1015
20.0984
20.0985
20.0985
20.0991
20.0991
20.0977
20.0977
20.0982
20.0982
20.0989
20.1021
20.0991
20.1006
20.0982
20.1033
20.0984
20.1015
20.1035
20.0993
20.0995
20.1048
20.1403
20.0573
20.132
20.0669
20.0887
20.11
20.0939
20.107
20.0394
20.1545
20.0481
20.1479
20.106
20.099
20.104
20.0988
20.1077
20.0984
20.1054
20.0982
20.0974
20.0974
20.0979
20.0979
20.0969
20.0969
20.0973
20.0973
20.099
20.106
20.0988
20.104
20.0984
20.1077
20.0982
20.1054
20.11
20.0887
20.107
20.0939
20.1545
20.0395
20.1479
20.0481
20.0793
20.1146
20.0838
20.1125
20.024
20.1653
20.0314
20.1603
20.1102
20.0997
20.1081
20.0993
20.1125
20.0992
20.11
20.0987
20.0967
20.0967
20.0971
20.097
20.0963
20.0964
20.0967
20.0966
20.0997
20.1101
20.0992
20.1081
20.0991
20.1123
20.0987
20.1101
20.1145
20.0793
20.1125
20.0838
20.1652
20.024
20.1603
20.0315
20.0711
20.1175
20.0751
20.1162
20.0109
20.1733
20.0172
20.1696
20.1141
20.1008
20.1122
20.1002
20.1168
20.1003
20.1147
20.0997
20.0964
20.0964
20.0965
20.0965
20.0962
20.0962
20.0963
20.0962
20.1008
20.1141
20.1002
20.1122
20.1002
20.1168
20.0997
20.1147
20.1175
20.0711
20.1162
20.0751
20.1733
20.0109
20.1696
20.0172
20.0642
20.1193
20.0675
20.1185
19.9999
20.1791
20.0051
20.1764
20.1176
20.1022
20.1159
20.1015
20.1207
20.1015
20.1189
20.1009
20.0964
20.0964
20.0964
20.0964
20.0962
20.0962
20.0961
20.0961
20.1022
20.1176
20.1015
20.1159
20.1015
20.1207
20.1009
20.1188
20.1193
20.0642
20.1185
20.0675
20.1791
19.9999
20.1764
20.0052
20.0583
20.1202
20.0611
20.1198
19.9907
20.1833
19.9951
20.1814
20.1205
20.1036
20.1191
20.1029
20.1239
20.1029
20.1224
20.1022
20.0966
20.0966
20.0965
20.0965
20.0965
20.0965
20.0963
20.0963
20.1035
20.1204
20.1029
20.1191
20.1029
20.1239
20.1022
20.1224
20.1202
20.0583
20.1198
20.0611
20.1833
19.9908
20.1814
19.9951
20.0533
20.1207
20.0557
20.1205
19.983
20.1863
19.9867
20.185
20.1228
20.1048
20.1217
20.1042
20.1266
20.1041
20.1253
20.1035
20.097
20.097
20.0968
20.0968
20.0969
20.0969
20.0967
20.0967
20.1048
20.1228
20.1042
20.1217
20.1041
20.1265
20.1035
20.1253
20.1206
20.0533
20.1205
20.0557
20.1863
19.9831
20.1849
19.9868
20.049
20.1207
20.051
20.1207
19.9767
20.1885
19.9797
20.1875
20.1246
20.106
20.1238
20.1054
20.1286
20.1053
20.1277
20.1047
20.0976
20.0975
20.0973
20.0973
20.0974
20.0974
20.0972
20.0972
20.106
20.1246
20.1054
20.1237
20.1053
20.1286
20.1047
20.1276
20.1207
20.049
20.1207
20.0511
20.1884
19.9767
20.1875
19.9798
20.0454
20.1205
20.0471
20.1206
19.9714
20.1899
19.9739
20.1893
20.126
20.107
20.1254
20.1065
20.1302
20.1063
20.1294
20.1058
20.0981
20.0981
20.0978
20.0978
20.098
20.098
20.0977
20.0977
20.107
20.126
20.1065
20.1253
20.1062
20.1302
20.1058
20.1294
20.1205
20.0454
20.1206
20.0472
20.1899
19.9714
20.1892
19.974
20.0423
20.1201
20.0438
20.1203
19.9669
20.1908
19.9691
20.1904
20.1271
20.1078
20.1266
20.1074
20.1313
20.1071
20.1308
20.1067
20.0986
20.0986
20.0984
20.0984
20.0985
20.0985
20.0982
20.0982
20.1078
20.1271
20.1074
20.1266
20.107
20.1313
20.1067
20.1308
20.1201
20.0424
20.1203
20.0438
20.1908
19.967
20.1904
19.9691
20.0397
20.1197
20.041
20.1199
19.9633
20.1914
19.965
20.1911
20.1278
20.1084
20.1275
20.1081
20.1322
20.1077
20.1318
20.1074
20.0991
20.0991
20.0989
20.0989
20.0989
20.0989
20.0987
20.0987
20.1084
20.1278
20.1081
20.1275
20.1077
20.1321
20.1074
20.1318
20.1197
20.0397
20.1199
20.041
20.1913
19.9633
20.1911
19.9651
20.0375
20.1191
20.0385
20.1194
19.9602
20.1916
19.9617
20.1915
20.1283
20.1089
20.1281
20.1087
20.1327
20.1081
20.1325
20.1079
20.0995
20.0995
20.0993
20.0993
20.0993
20.0993
20.0991
20.0991
20.1089
20.1283
20.1087
20.1281
20.1081
20.1327
20.1079
20.1324
20.1191
20.0375
20.1194
20.0386
20.1915
19.9603
20.1915
19.9618
20.0356
20.1186
20.0365
20.1189
19.9577
20.1915
19.9589
20.1916
20.1286
20.1092
20.1285
20.1091
20.133
20.1084
20.1329
20.1083
20.0998
20.0998
20.0997
20.0997
20.0995
20.0995
20.0994
20.0994
20.1092
20.1286
20.1091
20.1285
20.1084
20.1329
20.1083
20.1328
20.1186
20.0356
20.1189
20.0365
20.1915
19.9578
20.1915
19.959
20.0339
20.118
20.0347
20.1183
19.9557
20.1913
19.9566
20.1914
20.1286
20.1094
20.1286
20.1093
20.133
20.1086
20.133
20.1085
20.1
20.1
20.0999
20.0999
20.0997
20.0997
20.0996
20.0996
20.1094
20.1286
20.1093
20.1286
20.1085
20.133
20.1085
20.133
20.118
20.0339
20.1183
20.0347
20.1912
19.9557
20.1914
19.9567
20.0325
20.1174
20.0332
20.1177
19.954
20.1908
19.9548
20.1911
20.1285
20.1094
20.1286
20.1094
20.1329
20.1086
20.133
20.1086
20.1001
20.1001
20.1001
20.1001
20.0997
20.0997
20.0997
20.0997
20.1094
20.1284
20.1094
20.1285
20.1085
20.1328
20.1086
20.1329
20.1174
20.0325
20.1177
20.0332
20.1908
19.9541
20.191
19.9549
20.0313
20.1168
20.0319
20.1171
19.9527
20.1903
19.9533
20.1906
20.1282
20.1094
20.1283
20.1094
20.1326
20.1084
20.1327
20.1085
20.1001
20.1001
20.1001
20.1001
20.0996
20.0996
20.0997
20.0997
20.1093
20.1281
20.1094
20.1283
20.1084
20.1325
20.1085
20.1327
20.1168
20.0314
20.1171
20.0319
20.1902
19.9528
20.1905
19.9534
20.0303
20.1162
20.0308
20.1166
19.9517
20.1896
19.9522
20.1899
20.1278
20.1092
20.1279
20.1093
20.1321
20.1082
20.1323
20.1083
20.1
20.1
20.1001
20.1001
20.0995
20.0995
20.0996
20.0996
20.1092
20.1277
20.1093
20.128
20.1082
20.1321
20.1083
20.1323
20.1163
20.0304
20.1165
20.0308
20.1895
19.9518
20.1899
19.9522
20.0295
20.1156
20.0299
20.116
19.951
20.1887
19.9513
20.1892
20.1273
20.1089
20.1275
20.109
20.1315
20.1078
20.1318
20.108
20.0999
20.0999
20.1
20.1
20.0992
20.0992
20.0993
20.0993
20.1089
20.1272
20.1091
20.1275
20.1078
20.1315
20.108
20.1318
20.1157
20.0296
20.1159
20.0299
20.1887
19.951
20.1891
19.9514
20.0289
20.1151
20.0292
20.1154
19.9505
20.1878
19.9507
20.1883
20.1267
20.1086
20.127
20.1087
20.1308
20.1074
20.1312
20.1076
20.0997
20.0997
20.0998
20.0998
20.0989
20.0989
20.099
20.099
20.1086
20.1267
20.1087
20.127
20.1074
20.1308
20.1076
20.1312
20.1151
20.0289
20.1154
20.0292
20.1878
19.9506
20.1883
19.9508
20.0285
20.1146
20.0287
20.1149
19.9503
20.1869
19.9504
20.1874
20.1261
20.1082
20.1264
20.1084
20.1301
20.1068
20.1305
20.1071
20.0994
20.0994
20.0995
20.0995
20.0985
20.0985
20.0987
20.0987
20.1082
20.126
20.1084
20.1264
20.1068
20.13
20.1071
20.1304
20.1146
20.0285
20.1148
20.0287
20.1868
19.9503
20.1873
19.9504
20.0282
20.1141
20.0283
20.1144
19.9503
20.1858
19.9502
20.1863
20.1254
20.1078
20.1257
20.108
20.1292
20.1063
20.1296
20.1066
20.0991
20.0991
20.0993
20.0993
20.098
20.098
20.0982
20.0982
20.1078
20.1254
20.108
20.1257
20.1063
20.1292
20.1066
20.1296
20.1141
20.0282
20.1144
20.0283
20.1858
19.9503
20.1863
19.9503
20.028
20.1137
20.0281
20.1139
19.9505
20.1847
19.9504
20.1852
20.1247
20.1073
20.1251
20.1076
20.1283
20.1057
20.1288
20.106
20.0988
20.0988
20.099
20.099
20.0975
20.0975
20.0978
20.0978
20.1073
20.1247
20.1076
20.1251
20.1057
20.1283
20.106
20.1288
20.1136
20.0281
20.1139
20.0281
20.1846
19.9506
20.1852
19.9504
20.0281
20.1132
20.028
20.1134
19.951
20.1835
19.9507
20.1841
20.124
20.1069
20.1244
20.1071
20.1274
20.105
20.1278
20.1054
20.0986
20.0986
20.0987
20.0987
20.0971
20.0971
20.0973
20.0973
20.1069
20.124
20.1071
20.1244
20.105
20.1274
20.1053
20.1278
20.1132
20.0281
20.1134
20.0281
20.1834
19.9511
20.184
19.9508
20.0284
20.1129
20.0282
20.1131
19.9518
20.1823
19.9514
20.1829
20.1234
20.1065
20.1237
20.1067
20.1264
20.1044
20.1269
20.1047
20.0984
20.0984
20.0985
20.0985
20.0967
20.0967
20.0969
20.0969
20.1065
20.1233
20.1067
20.1237
20.1044
20.1264
20.1047
20.1269
20.1129
20.0284
20.113
20.0282
20.1822
19.9518
20.1828
19.9514
20.0288
20.1126
20.0286
20.1127
19.9528
20.181
19.9522
20.1816
20.1227
20.1062
20.123
20.1063
20.1254
20.1039
20.1259
20.1041
20.0982
20.0982
20.0983
20.0983
20.0963
20.0963
20.0965
20.0965
20.1062
20.1227
20.1063
20.123
20.1039
20.1254
20.1041
20.1259
20.1126
20.0288
20.1127
20.0286
20.181
19.9529
20.1816
19.9523
20.0295
20.1123
20.0291
20.1124
19.9541
20.1797
19.9534
20.1804
20.1221
20.1059
20.1224
20.106
20.1245
20.1033
20.1249
20.1036
20.0982
20.0982
20.0982
20.0982
20.096
20.096
20.0961
20.0961
20.1059
20.1221
20.106
20.1224
20.1033
20.1244
20.1036
20.1249
20.1123
20.0295
20.1124
20.0292
20.1797
19.9542
20.1803
19.9535
20.0304
20.1121
20.0299
20.1122
19.9558
20.1784
19.9549
20.1791
20.1215
20.1057
20.1218
20.1058
20.1235
20.1029
20.124
20.1031
20.0983
20.0983
20.0982
20.0982
20.0959
20.0959
20.0959
20.0959
20.1057
20.1215
20.1058
20.1218
20.1029
20.1235
20.1031
20.124
20.1121
20.0305
20.1122
20.03
20.1784
19.9558
20.179
19.955
20.0316
20.112
20.031
20.1121
19.9577
20.1771
19.9567
20.1777
20.121
20.1056
20.1212
20.1057
20.1226
20.1026
20.1231
20.1028
20.0985
20.0985
20.0984
20.0984
20.0958
20.0958
20.0958
20.0958
20.1056
20.121
20.1057
20.1212
20.1026
20.1226
20.1027
20.1231
20.112
20.0316
20.112
20.031
20.177
19.9578
20.1777
19.9568
20.033
20.1119
20.0323
20.112
19.9601
20.1757
19.9589
20.1764
20.1205
20.1057
20.1207
20.1057
20.1218
20.1024
20.1222
20.1025
20.0989
20.0989
20.0987
20.0987
20.096
20.096
20.0959
20.0959
20.1057
20.1205
20.1057
20.1207
20.1024
20.1218
20.1025
20.1222
20.1119
20.0331
20.112
20.0323
20.1757
19.9602
20.1763
19.9589
20.0347
20.1119
20.0338
20.1119
19.9628
20.1743
19.9614
20.175
20.1201
20.1059
20.1203
20.1058
20.1211
20.1024
20.1214
20.1024
20.0994
20.0994
20.0991
20.0991
20.0963
20.0963
20.0961
20.0961
20.1059
20.1201
20.1058
20.1203
20.1024
20.1211
20.1024
20.1214
20.1119
20.0347
20.1119
20.0339
20.1743
19.9629
20.175
19.9615
20.0367
20.1119
20.0357
20.1119
19.966
20.1728
19.9644
20.1736
20.1198
20.1062
20.12
20.1061
20.1204
20.1026
20.1207
20.1025
20.1001
20.1001
20.0997
20.0997
20.0968
20.0968
20.0965
20.0965
20.1062
20.1198
20.106
20.12
20.1026
20.1204
20.1025
20.1207
20.1119
20.0367
20.1119
20.0357
20.1728
19.9661
20.1735
19.9644
20.039
20.112
20.0378
20.112
19.9696
20.1713
19.9678
20.1721
20.1196
20.1068
20.1197
20.1065
20.1199
20.103
20.1202
20.1028
20.101
20.101
20.1005
20.1005
20.0975
20.0975
20.0971
20.0971
20.1068
20.1196
20.1065
20.1197
20.103
20.1199
20.1028
20.1202
20.112
20.039
20.112
20.0378
20.1712
19.9697
20.172
19.9678
20.0415
20.112
20.0402
20.112
19.9738
20.1695
19.9716
20.1704
20.1196
20.1074
20.1196
20.1071
20.1196
20.1036
20.1197
20.1033
20.102
20.102
20.1015
20.1015
20.0984
20.0984
20.0979
20.0979
20.1074
20.1195
20.1071
20.1196
20.1036
20.1196
20.1033
20.1197
20.112
20.0416
20.112
20.0402
20.1695
19.9738
20.1704
19.9717
20.0444
20.112
20.0429
20.112
19.9785
20.1676
19.9761
20.1686
20.1196
20.1083
20.1196
20.1078
20.1194
20.1044
20.1195
20.104
20.1032
20.1032
20.1026
20.1026
20.0995
20.0995
20.099
20.099
20.1083
20.1196
20.1078
20.1196
20.1044
20.1194
20.104
20.1195
20.112
20.0444
20.112
20.0429
20.1676
19.9786
20.1686
19.9761
20.0474
20.112
20.0459
20.112
19.984
20.1652
19.9812
20.1665
20.1198
20.1093
20.1197
20.1088
20.1193
20.1054
20.1194
20.1049
20.1045
20.1045
20.1038
20.1038
20.1008
20.1008
20.1001
20.1001
20.1093
20.1197
20.1087
20.1197
20.1054
20.1193
20.1049
20.1193
20.112
20.0474
20.112
20.0459
20.1652
19.9841
20.1665
19.9812
20.0497
20.1128
20.0488
20.1121
19.9906
20.162
19.9872
20.1638
20.12
20.1104
20.1199
20.1098
20.1195
20.1066
20.1194
20.106
20.1059
20.1059
20.1051
20.1051
20.1022
20.1022
20.1015
20.1015
20.1104
20.12
20.1098
20.1199
20.1066
20.1195
20.106
20.1194
20.1128
20.0497
20.1121
20.0488
20.162
19.9907
20.1637
19.9872
20.0517
20.1136
20.0496
20.1145
19.9983
20.1576
19.9943
20.16
20.1209
20.1118
20.1204
20.1111
20.12
20.1081
20.1197
20.1073
20.1074
20.1074
20.1066
20.1066
20.1039
20.1039
20.103
20.103
20.1118
20.1209
20.1111
20.1204
20.1081
20.12
20.1073
20.1197
20.1136
20.0517
20.1145
20.0496
20.1576
19.9983
20.16
19.9944
20.1441
20.0673
20.1272
20.0787
20.1359
20.0721
20.1216
20.0818
20.0948
20.0999
20.0976
20.1001
20.0967
20.0997
20.0981
20.0995
20.1001
20.1001
20.1001
20.1001
20.0998
20.0998
20.0994
20.0994
20.0999
20.0948
20.1001
20.0976
20.0997
20.0967
20.0995
20.0981
20.0673
20.1441
20.0787
20.1272
20.0721
20.1359
20.0818
20.1216
20.1391
20.0763
20.1409
20.0728
20.131
20.0794
20.1333
20.0763
20.092
20.0986
20.0933
20.0994
20.0953
20.0991
20.0959
20.0996
20.0996
20.0996
20.1
20.1
20.0995
20.0995
20.0998
20.0998
20.0986
20.092
20.0994
20.0933
20.0991
20.0953
20.0996
20.096
20.0763
20.1391
20.0728
20.1409
20.0794
20.131
20.0763
20.1333
20.1364
20.0804
20.1377
20.0787
20.1261
20.0838
20.1286
20.0818
20.0919
20.0973
20.0916
20.0978
20.096
20.0983
20.0954
20.0986
20.0986
20.0986
20.0992
20.0992
20.0985
20.0985
20.099
20.099
20.0973
20.0919
20.0978
20.0917
20.0983
20.096
20.0986
20.0954
20.0804
20.1363
20.0787
20.1377
20.0838
20.1261
20.0818
20.1286
20.1338
20.082
20.135
20.0814
20.1211
20.0863
20.1235
20.0852
20.0931
20.0969
20.0924
20.097
20.0981
20.0982
20.0969
20.0981
20.0975
20.0975
20.098
20.098
20.0975
20.0975
20.098
20.098
20.0969
20.0931
20.097
20.0925
20.0982
20.0981
20.0981
20.0969
20.082
20.1338
20.0814
20.135
20.0863
20.1211
20.0852
20.1235
20.1316
20.0821
20.1327
20.0822
20.1165
20.0873
20.1187
20.0869
20.0948
20.0972
20.0939
20.097
20.1009
20.0987
20.0995
20.0984
20.0967
20.0967
20.0971
20.0971
20.0968
20.0968
20.0971
20.0971
20.0972
20.0947
20.097
20.0939
20.0987
20.1009
20.0984
20.0995
20.0821
20.1316
20.0822
20.1326
20.0873
20.1165
20.0869
20.1187
20.1297
20.0814
20.1306
20.0818
20.1125
20.0874
20.1144
20.0874
20.0962
20.0979
20.0955
20.0975
20.1034
20.0996
20.1022
20.0991
20.0964
20.0964
20.0965
20.0965
20.0966
20.0966
20.0966
20.0966
20.0979
20.0962
20.0975
20.0955
20.0996
20.1034
20.0991
20.1022
20.0814
20.1296
20.0818
20.1306
20.0874
20.1125
20.0874
20.1144
20.1279
20.0803
20.1288
20.0809
20.109
20.087
20.1107
20.0873
20.0974
20.0988
20.0968
20.0983
20.1054
20.1007
20.1045
20.1002
20.0965
20.0965
20.0964
20.0964
20.0966
20.0966
20.0966
20.0966
20.0988
20.0974
20.0983
20.0968
20.1007
20.1054
20.1001
20.1044
20.0803
20.1279
20.0809
20.1287
20.087
20.109
20.0873
20.1107
20.1264
20.079
20.1271
20.0797
20.1059
20.0862
20.1074
20.0866
20.0982
20.0997
20.0978
20.0992
20.107
20.1019
20.1063
20.1013
20.0969
20.0969
20.0967
20.0967
20.097
20.097
20.0968
20.0968
20.0997
20.0982
20.0992
20.0978
20.1019
20.107
20.1013
20.1063
20.079
20.1263
20.0797
20.1271
20.0862
20.1059
20.0866
20.1074
20.1249
20.0777
20.1256
20.0784
20.1033
20.0852
20.1046
20.0857
20.0988
20.1006
20.0985
20.1002
20.1082
20.103
20.1077
20.1025
20.0974
20.0974
20.0971
20.0971
20.0975
20.0975
20.0972
20.0972
20.1006
20.0988
20.1002
20.0985
20.103
20.1082
20.1025
20.1077
20.0777
20.1249
20.0784
20.1256
20.0852
20.1033
20.0857
20.1045
20.1236
20.0764
20.1243
20.077
20.1009
20.0842
20.1021
20.0847
20.0992
20.1015
20.099
20.1011
20.1091
20.1041
20.1087
20.1036
20.0981
20.0981
20.0977
20.0977
20.0981
20.0981
20.0978
20.0978
20.1015
20.0992
20.1011
20.099
20.1041
20.1091
20.1036
20.1087
20.0764
20.1236
20.077
20.1242
20.0842
20.1009
20.0847
20.1021
20.1224
20.0752
20.123
20.0758
20.0989
20.0832
20.0999
20.0837
20.0993
20.1022
20.0993
20.1019
20.1097
20.105
20.1095
20.1046
20.0987
20.0987
20.0984
20.0984
20.0988
20.0988
20.0985
20.0985
20.1022
20.0993
20.1019
20.0993
20.105
20.1097
20.1046
20.1095
20.0752
20.1223
20.0758
20.1229
20.0832
20.0989
20.0837
20.0999
20.1212
20.0741
20.1218
20.0747
20.0971
20.0821
20.098
20.0826
20.0994
20.1029
20.0994
20.1026
20.1101
20.1058
20.1099
20.1054
20.0993
20.0993
20.099
20.099
20.0994
20.0994
20.0991
20.0991
20.1029
20.0994
20.1026
20.0994
20.1058
20.1101
20.1054
20.1099
20.0741
20.1212
20.0747
20.1218
20.0822
20.0971
20.0827
20.098
20.1202
20.0731
20.1207
20.0736
20.0955
20.0812
20.0963
20.0817
20.0993
20.1035
20.0993
20.1032
20.1103
20.1064
20.1102
20.1061
20.0999
20.0999
20.0996
20.0996
20.0999
20.0999
20.0996
20.0996
20.1035
20.0993
20.1032
20.0994
20.1064
20.1103
20.1061
20.1102
20.0731
20.1201
20.0736
20.1207
20.0812
20.0955
20.0817
20.0963
20.1192
20.0722
20.1197
20.0726
20.0941
20.0803
20.0948
20.0807
20.0992
20.1039
20.0992
20.1037
20.1103
20.1069
20.1103
20.1067
20.1003
20.1003
20.1001
20.1001
20.1003
20.1003
20.1001
20.1001
20.1039
20.0992
20.1037
20.0992
20.1069
20.1103
20.1067
20.1103
20.0722
20.1191
20.0726
20.1196
20.0803
20.094
20.0807
20.0947
20.1182
20.0713
20.1187
20.0718
20.0928
20.0795
20.0934
20.0799
20.099
20.1042
20.0991
20.104
20.1103
20.1072
20.1103
20.1071
20.1007
20.1007
20.1005
20.1005
20.1007
20.1007
20.1005
20.1005
20.1042
20.099
20.104
20.0991
20.1072
20.1103
20.1071
20.1103
20.0714
20.1182
20.0718
20.1187
20.0795
20.0928
20.0799
20.0934
20.1173
20.0706
20.1178
20.071
20.0916
20.0787
20.0922
20.0791
20.0988
20.1044
20.0989
20.1043
20.1102
20.1074
20.1102
20.1074
20.101
20.101
20.1008
20.1008
20.1009
20.1009
20.1008
20.1008
20.1044
20.0988
20.1043
20.0989
20.1074
20.1102
20.1074
20.1102
20.0706
20.1173
20.071
20.1177
20.0787
20.0916
20.0791
20.0922
20.1165
20.0699
20.1169
20.0702
20.0906
20.078
20.0911
20.0784
20.0986
20.1045
20.0987
20.1044
20.1102
20.1075
20.1102
20.1075
20.1012
20.1012
20.1011
20.1011
20.101
20.101
20.101
20.101
20.1045
20.0986
20.1044
20.0987
20.1075
20.1102
20.1075
20.1102
20.0699
20.1165
20.0702
20.1169
20.078
20.0906
20.0784
20.0911
20.1157
20.0693
20.1161
20.0696
20.0897
20.0774
20.0901
20.0777
20.0984
20.1045
20.0985
20.1045
20.1101
20.1075
20.1102
20.1076
20.1013
20.1013
20.1012
20.1012
20.1011
20.1011
20.1011
20.1011
20.1045
20.0984
20.1045
20.0985
20.1075
20.1101
20.1075
20.1102
20.0693
20.1157
20.0696
20.1161
20.0774
20.0896
20.0777
20.0901
20.115
20.0688
20.1154
20.0691
20.0888
20.0768
20.0892
20.0771
20.0982
20.1045
20.0983
20.1045
20.1099
20.1075
20.11
20.1075
20.1013
20.1013
20.1013
20.1013
20.1011
20.1011
20.1011
20.1011
20.1045
20.0982
20.1045
20.0983
20.1075
20.1099
20.1075
20.11
20.0688
20.115
20.0691
20.1153
20.0769
20.0888
20.0771
20.0892
20.1144
20.0684
20.1147
20.0686
20.0881
20.0764
20.0885
20.0766
20.098
20.1044
20.0981
20.1044
20.1097
20.1073
20.1098
20.1074
20.1013
20.1013
20.1013
20.1013
20.101
20.101
20.1011
20.101
20.1044
20.098
20.1044
20.0981
20.1073
20.1097
20.1074
20.1098
20.0684
20.1144
20.0686
20.1147
20.0764
20.0881
20.0766
20.0884
20.1139
20.0681
20.1141
20.0682
20.0875
20.0759
20.0878
20.0761
20.0977
20.1043
20.0979
20.1044
20.1095
20.1071
20.1096
20.1072
20.1013
20.1013
20.1013
20.1013
20.1009
20.1009
20.101
20.101
20.1043
20.0978
20.1044
20.0979
20.1071
20.1095
20.1072
20.1096
20.0681
20.1138
20.0682
20.1141
20.076
20.0875
20.0762
20.0878
20.1134
20.0678
20.1136
20.068
20.087
20.0756
20.0873
20.0758
20.0976
20.1042
20.0977
20.1042
20.1092
20.1069
20.1094
20.107
20.1012
20.1012
20.1012
20.1012
20.1007
20.1007
20.1008
20.1008
20.1042
20.0976
20.1042
20.0977
20.1069
20.1092
20.107
20.1094
20.0679
20.1133
20.068
20.1136
20.0756
20.087
20.0758
20.0872
20.113
20.0677
20.1132
20.0678
20.0866
20.0754
20.0868
20.0755
20.0974
20.1041
20.0975
20.1041
20.109
20.1066
20.1091
20.1068
20.1012
20.1012
20.1012
20.1012
20.1006
20.1006
20.1007
20.1007
20.1041
20.0974
20.1041
20.0975
20.1066
20.109
20.1068
20.1091
20.0677
20.113
20.0678
20.1131
20.0754
20.0866
20.0755
20.0868
20.1127
20.0677
20.1128
20.0677
20.0864
20.0752
20.0865
20.0753
20.0973
20.104
20.0974
20.104
20.1088
20.1064
20.1089
20.1065
20.1012
20.1012
20.1012
20.1012
20.1005
20.1005
20.1005
20.1005
20.104
20.0973
20.104
20.0974
20.1064
20.1087
20.1065
20.1089
20.0677
20.1127
20.0677
20.1128
20.0752
20.0864
20.0753
20.0865
20.1125
20.0678
20.1126
20.0677
20.0863
20.0752
20.0863
20.0752
20.0973
20.1039
20.0973
20.1039
20.1085
20.1062
20.1086
20.1063
20.1012
20.1012
20.1012
20.1012
20.1004
20.1004
20.1004
20.1004
20.1039
20.0973
20.1039
20.0973
20.1062
20.1085
20.1063
20.1086
20.0678
20.1125
20.0677
20.1126
20.0752
20.0862
20.0752
20.0863
20.1125
20.0679
20.1125
20.0679
20.0863
20.0752
20.0863
20.0752
20.0973
20.1039
20.0973
20.1039
20.1083
20.106
20.1084
20.1061
20.1012
20.1012
20.1012
20.1012
20.1003
20.1003
20.1003
20.1003
20.1039
20.0973
20.1039
20.0973
20.106
20.1083
20.1061
20.1084
20.068
20.1124
20.0679
20.1124
20.0752
20.0863
20.0752
20.0862
20.1125
20.0682
20.1125
20.068
20.0864
20.0753
20.0863
20.0752
20.0974
20.104
20.0974
20.1039
20.1082
20.1059
20.1083
20.1059
20.1014
20.1014
20.1013
20.1013
20.1004
20.1004
20.1003
20.1003
20.104
20.0974
20.1039
20.0974
20.1059
20.1082
20.1059
20.1083
20.0683
20.1124
20.068
20.1124
20.0753
20.0864
20.0752
20.0863
20.1126
20.0689
20.1125
20.0686
20.0867
20.0755
20.0866
20.0754
20.0976
20.1041
20.0975
20.104
20.1081
20.1059
20.1081
20.1059
20.1017
20.1017
20.1015
20.1015
20.1005
20.1005
20.1004
20.1004
20.1041
20.0976
20.104
20.0975
20.1058
20.1081
20.1059
20.1081
20.0689
20.1126
20.0686
20.1125
20.0755
20.0867
20.0754
20.0865
20.1129
20.0697
20.1127
20.0693
20.0872
20.0758
20.0869
20.0757
20.0979
20.1043
20.0977
20.1042
20.1081
20.1059
20.1081
20.1059
20.102
20.102
20.1018
20.1018
20.1008
20.1008
20.1006
20.1006
20.1043
20.0979
20.1042
20.0977
20.1059
20.1081
20.1059
20.1081
20.0697
20.1128
20.0693
20.1127
20.0758
20.0872
20.0757
20.0869
20.1132
20.0706
20.113
20.0701
20.0878
20.0761
20.0875
20.076
20.0982
20.1047
20.098
20.1045
20.1081
20.1061
20.1081
20.106
20.1025
20.1025
20.1022
20.1022
20.1011
20.1011
20.1009
20.1009
20.1046
20.0982
20.1045
20.098
20.1061
20.1081
20.106
20.1081
20.0707
20.1132
20.0701
20.113
20.0761
20.0878
20.076
20.0875
20.1136
20.0714
20.1134
20.0712
20.0886
20.0767
20.0882
20.0763
20.0986
20.1051
20.0984
20.1049
20.1082
20.1063
20.1081
20.1062
20.1031
20.1031
20.1028
20.1028
20.1017
20.1017
20.1014
20.1014
20.1051
20.0986
20.1049
20.0984
20.1063
20.1082
20.1062
20.1081
20.0714
20.1136
20.0712
20.1134
20.0767
20.0886
20.0763
20.0882
20.1142
20.0719
20.1139
20.0716
20.0895
20.0776
20.0891
20.0772
20.0991
20.1057
20.0988
20.1054
20.1084
20.1067
20.1083
20.1065
20.1038
20.1038
20.1035
20.1035
20.1023
20.1023
20.102
20.102
20.1057
20.0991
20.1054
20.0988
20.1067
20.1084
20.1065
20.1083
20.0719
20.1142
20.0716
20.1139
20.0776
20.0895
20.0772
20.089
20.1148
20.0726
20.1145
20.0722
20.0906
20.0785
20.09
20.078
20.0997
20.1063
20.0994
20.106
20.1086
20.1073
20.1085
20.107
20.1047
20.1047
20.1042
20.1042
20.1031
20.1031
20.1027
20.1027
20.1063
20.0997
20.106
20.0994
20.1073
20.1086
20.107
20.1085
20.0726
20.1147
20.0722
20.1144
20.0785
20.0906
20.0781
20.09
20.1153
20.0735
20.115
20.073
20.0917
20.0794
20.0911
20.0789
20.1004
20.1071
20.1
20.1067
20.109
20.1079
20.1088
20.1076
20.1056
20.1056
20.1052
20.1052
20.104
20.104
20.1036
20.1036
20.1071
20.1004
20.1067
20.1
20.1079
20.109
20.1076
20.1088
20.0735
20.1152
20.073
20.115
20.0794
20.0917
20.079
20.0911
20.1156
20.0746
20.1155
20.074
20.0929
20.0804
20.0923
20.0799
20.1012
20.108
20.1008
20.1075
20.1094
20.1087
20.1092
20.1083
20.1067
20.1067
20.1062
20.1062
20.1051
20.1051
20.1045
20.1045
20.108
20.1012
20.1075
20.1008
20.1087
20.1094
20.1083
20.1092
20.0746
20.1156
20.074
20.1154
20.0804
20.0929
20.0799
20.0923
20.1156
20.076
20.1157
20.0752
20.094
20.0816
20.0935
20.081
20.1022
20.109
20.1017
20.1085
20.11
20.1096
20.1097
20.1091
20.1078
20.1078
20.1073
20.1073
20.1062
20.1062
20.1056
20.1056
20.109
20.1022
20.1085
20.1017
20.1096
20.11
20.1091
20.1097
20.076
20.1155
20.0752
20.1156
20.0816
20.094
20.081
20.0934
20.1147
20.078
20.1153
20.0769
20.0947
20.0831
20.0944
20.0823
20.1032
20.11
20.1027
20.1095
20.1106
20.1106
20.1103
20.1101
20.109
20.109
20.1084
20.1084
20.1074
20.1074
20.1068
20.1068
20.11
20.1032
20.1095
20.1027
20.1106
20.1106
20.1101
20.1103
20.078
20.1147
20.0769
20.1153
20.0831
20.0947
20.0823
20.0944
20.1107
20.0828
20.1135
20.0797
20.0934
20.0864
20.0946
20.0842
20.1044
20.1113
20.1038
20.1106
20.1114
20.1117
20.111
20.1111
20.1103
20.1103
20.1097
20.1097
20.1088
20.1088
20.1081
20.1081
20.1113
20.1044
20.1106
20.1038
20.1117
20.1114
20.1111
20.111
20.0829
20.1107
20.0797
20.1135
20.0864
20.0934
20.0842
20.0946
20.119
20.0753
20.107
20.0869
20.0997
20.0818
20.0912
20.0895
20.1057
20.1129
20.1054
20.112
20.1126
20.1133
20.1121
20.1125
20.1115
20.1115
20.1109
20.1109
20.1101
20.1101
20.1094
20.1094
20.1129
20.1057
20.112
20.1054
20.1132
20.1126
20.1125
20.1121
20.0753
20.119
20.0869
20.107
20.0818
20.0997
20.0895
20.0912
20.1551
20.0609
20.1348
20.0735
20.1502
20.0634
20.1313
20.0756
20.0906
20.0993
20.0953
20.0999
20.0925
20.0996
20.0963
20.0999
20.1001
20.1001
20.1001
20.1001
20.1
20.1
20.1
20.1
20.0993
20.0906
20.0999
20.0953
20.0996
20.0925
20.0999
20.0963
20.0609
20.1551
20.0736
20.1348
20.0634
20.1502
20.0757
20.1313
20.1466
20.0766
20.1493
20.0705
20.1438
20.0758
20.1459
20.0709
20.0867
20.0963
20.0885
20.0981
20.089
20.0975
20.0906
20.0988
20.0995
20.0995
20.0999
20.0999
20.0996
20.0996
20.0999
20.0999
20.0963
20.0867
20.0981
20.0885
20.0975
20.089
20.0988
20.0906
20.0766
20.1466
20.0705
20.1493
20.0758
20.1438
20.0709
20.1458
20.1436
20.0835
20.145
20.0807
20.1413
20.0811
20.1425
20.0789
20.0859
20.094
20.0859
20.095
20.0883
20.0956
20.0883
20.0964
20.098
20.098
20.0988
20.0988
20.0984
20.0984
20.0991
20.0991
20.094
20.0859
20.095
20.0859
20.0956
20.0883
20.0964
20.0883
20.0835
20.1436
20.0807
20.1449
20.0811
20.1412
20.0789
20.1424
20.1416
20.0866
20.1425
20.0854
20.1393
20.0833
20.1402
20.0825
20.0865
20.093
20.0861
20.0934
20.0891
20.0949
20.0886
20.0951
20.0964
20.0964
20.0972
20.0972
20.0971
20.0971
20.0978
20.0978
20.093
20.0865
20.0934
20.0861
20.0949
20.0891
20.0951
20.0886
20.0866
20.1416
20.0854
20.1425
20.0833
20.1393
20.0825
20.1402
20.1402
20.0878
20.1409
20.0874
20.1378
20.0838
20.1385
20.0837
20.0874
20.0926
20.087
20.0927
20.0901
20.0949
20.0896
20.0948
20.0953
20.0953
20.0958
20.0958
20.0962
20.0962
20.0966
20.0966
20.0926
20.0874
20.0927
20.087
20.0949
20.0901
20.0948
20.0896
20.0878
20.1402
20.0874
20.1408
20.0838
20.1378
20.0837
20.1385
20.139
20.0879
20.1396
20.0879
20.1365
20.0835
20.1372
20.0837
20.088
20.0927
20.0877
20.0926
20.0909
20.0953
20.0905
20.095
20.0948
20.0948
20.095
20.095
20.0958
20.0958
20.0959
20.0959
20.0927
20.088
20.0926
20.0877
20.0953
20.0909
20.095
20.0906
20.0879
20.139
20.0879
20.1396
20.0835
20.1365
20.0837
20.1371
20.138
20.0876
20.1385
20.0878
20.1354
20.0827
20.136
20.0831
20.0884
20.0931
20.0883
20.0929
20.0915
20.0959
20.0913
20.0955
20.0947
20.0947
20.0947
20.0947
20.0958
20.0958
20.0957
20.0957
20.0931
20.0884
20.0929
20.0883
20.0959
20.0915
20.0955
20.0913
20.0875
20.138
20.0878
20.1385
20.0827
20.1354
20.0831
20.1359
20.1371
20.0869
20.1375
20.0872
20.1343
20.0816
20.1349
20.0822
20.0886
20.0935
20.0886
20.0933
20.0919
20.0966
20.0917
20.0963
20.0949
20.0949
20.0948
20.0948
20.0961
20.0961
20.0959
20.0959
20.0935
20.0886
20.0933
20.0886
20.0966
20.0919
20.0963
20.0917
20.0869
20.137
20.0872
20.1375
20.0816
20.1343
20.0822
20.1348
20.1362
20.0861
20.1366
20.0865
20.1333
20.0805
20.1338
20.0811
20.0887
20.094
20.0887
20.0938
20.0921
20.0973
20.092
20.097
20.0953
20.0953
20.0951
20.0951
20.0966
20.0966
20.0963
20.0963
20.094
20.0887
20.0938
20.0887
20.0973
20.0921
20.097
20.092
20.0861
20.1361
20.0865
20.1366
20.0805
20.1333
20.0811
20.1338
20.1353
20.0853
20.1357
20.0857
20.1324
20.0794
20.1328
20.08
20.0887
20.0944
20.0887
20.0942
20.0921
20.0979
20.0921
20.0976
20.0959
20.0959
20.0956
20.0956
20.0972
20.0972
20.0969
20.0969
20.0944
20.0887
20.0942
20.0887
20.0979
20.0921
20.0976
20.0921
20.0853
20.1353
20.0857
20.1357
20.0794
20.1323
20.08
20.1328
20.1345
20.0844
20.1349
20.0848
20.1314
20.0783
20.1319
20.0789
20.0886
20.0948
20.0886
20.0946
20.0921
20.0985
20.0921
20.0982
20.0964
20.0964
20.0962
20.0961
20.0978
20.0978
20.0975
20.0975
20.0948
20.0886
20.0946
20.0886
20.0985
20.0921
20.0982
20.0921
20.0844
20.1344
20.0848
20.1348
20.0784
20.1314
20.0789
20.1319
20.1337
20.0836
20.1341
20.084
20.1305
20.0773
20.131
20.0778
20.0884
20.0951
20.0885
20.095
20.092
20.0989
20.0921
20.0987
20.097
20.097
20.0967
20.0967
20.0984
20.0984
20.0981
20.0981
20.0951
20.0884
20.095
20.0885
20.0989
20.092
20.0987
20.0921
20.0836
20.1336
20.084
20.134
20.0774
20.1305
20.0778
20.1309
20.1329
20.0828
20.1333
20.0832
20.1297
20.0764
20.1301
20.0769
20.0882
20.0954
20.0883
20.0953
20.0918
20.0993
20.0919
20.0991
20.0975
20.0975
20.0972
20.0972
20.099
20.099
20.0987
20.0987
20.0954
20.0882
20.0953
20.0883
20.0993
20.0918
20.0991
20.0919
20.0828
20.1328
20.0832
20.1332
20.0764
20.1296
20.0769
20.1301
20.1321
20.0821
20.1325
20.0825
20.1289
20.0756
20.1293
20.076
20.088
20.0956
20.0881
20.0955
20.0917
20.0996
20.0917
20.0995
20.0979
20.0979
20.0977
20.0977
20.0994
20.0994
20.0992
20.0992
20.0956
20.088
20.0955
20.0881
20.0996
20.0917
20.0995
20.0918
20.0821
20.1321
20.0825
20.1325
20.0756
20.1288
20.076
20.1292
20.1314
20.0814
20.1318
20.0818
20.1281
20.0748
20.1285
20.0752
20.0878
20.0958
20.0879
20.0957
20.0915
20.0999
20.0916
20.0998
20.0983
20.0983
20.0981
20.0981
20.0998
20.0998
20.0996
20.0996
20.0958
20.0878
20.0957
20.0879
20.0999
20.0915
20.0998
20.0916
20.0814
20.1314
20.0818
20.1317
20.0748
20.128
20.0752