/*--------------------------------*- C++ -*----------------------------------*\
  =========                 |
  \\      /  F ield         | OpenFOAM: The Open Source CFD Toolbox
   \\    /   O peration     | Website:  https://openfoam.org
    \\  /    A nd           | Version:  9
     \\/     M anipulation  |
\*---------------------------------------------------------------------------*/
FoamFile
{
    format      ascii;
    class       volScalarField;
    location    "1.8";
    object      epsilon;
}
// * * * * * * * * * * * * * * * * * * * * * * * * * * * * * * * * * * * * * //

dimensions      [0 2 -3 0 0 0 0];

internalField   nonuniform List<scalar> 
36360
(
0.196747
0.150538
0.0607721
0.0554277
0.0436938
0.0266286
0.010256
0.00822674
0.0289724
0.00504741
0.0088026
0.00425671
0.00636564
0.00317406
0.00494829
0.00496386
0.00230453
0.00230445
0.0044339
0.00443388
0.00309567
0.00309568
0.00498025
0.00498023
0.00504484
0.0289661
0.00425642
0.00880063
0.00317379
0.00636417
0.0049638
0.004948
0.150553
0.196809
0.0554253
0.0607918
0.0266324
0.0437161
0.00822659
0.0102578
0.388507
0.2978
0.306808
0.233341
0.202765
0.127093
0.123722
0.0751993
0.103967
0.0288437
0.0682643
0.0126391
0.0384588
0.00664807
0.0158698
0.00358656
0.00486171
0.00485616
0.00243954
0.00243782
0.00191535
0.00191429
0.00214915
0.00214907
0.0288324
0.103978
0.0126313
0.0682634
0.00664325
0.0384598
0.00358508
0.0158668
0.297866
0.388648
0.23338
0.30691
0.127144
0.202892
0.0752213
0.123794
0.490078
0.380565
0.447599
0.345635
0.315013
0.20839
0.266715
0.172649
0.155423
0.0577113
0.133072
0.0445585
0.0826426
0.0235604
0.0622059
0.0143794
0.0191332
0.0191257
0.0111108
0.0111015
0.00469547
0.00469048
0.00260154
0.00259912
0.0577092
0.155461
0.0445504
0.133096
0.0235512
0.0826673
0.0143698
0.0622169
0.380685
0.4903
0.345728
0.44778
0.208507
0.315253
0.172732
0.266899
0.541223
0.423131
0.520222
0.405599
0.375287
0.254121
0.350299
0.235048
0.183757
0.0756736
0.171959
0.0680303
0.110335
0.0385049
0.0986232
0.031906
0.0320028
0.0320015
0.0263243
0.0263199
0.0111937
0.0111877
0.00796407
0.00795801
0.0756864
0.183824
0.0680356
0.172012
0.038505
0.11039
0.0319006
0.0986634
0.423304
0.541522
0.405746
0.520484
0.254304
0.375634
0.235198
0.350594
0.564996
0.443073
0.555574
0.435162
0.403961
0.276082
0.392569
0.267366
0.19738
0.0847165
0.191964
0.0811066
0.124023
0.046526
0.118581
0.0433224
0.0389469
0.0389503
0.0361631
0.0361644
0.0157127
0.0157084
0.0138506
0.0138454
0.0847415
0.19747
0.0811262
0.192044
0.0465363
0.124104
0.0433281
0.11865
0.443287
0.565357
0.435357
0.555907
0.276317
0.404393
0.267577
0.392962
0.574635
0.451181
0.571046
0.448161
0.415708
0.285005
0.411337
0.281713
0.202963
0.0884288
0.200889
0.0870609
0.129593
0.0497522
0.127543
0.0485869
0.0417826
0.0417882
0.0407521
0.0407568
0.0176263
0.0176232
0.0169413
0.0169377
0.0884606
0.203067
0.0870901
0.200987
0.0497683
0.129689
0.0486008
0.127633
0.45142
0.575036
0.44839
0.57143
0.285272
0.416193
0.281966
0.411799
0.57768
0.453773
0.576724
0.452951
0.41955
0.287826
0.41832
0.286954
0.204779
0.0896181
0.204203
0.0892484
0.131378
0.0507202
0.130821
0.0504373
0.0426514
0.0426578
0.0423939
0.0424001
0.0181695
0.0181668
0.0180242
0.0180214
0.0896527
0.204889
0.0892821
0.204311
0.0507384
0.13148
0.0504548
0.130921
0.454025
0.578101
0.453198
0.577137
0.288108
0.420061
0.287231
0.418821
0.577974
0.454089
0.578071
0.454136
0.420143
0.288179
0.420158
0.288236
0.20506
0.0898133
0.205068
0.0898145
0.131672
0.0508528
0.131671
0.0508668
0.0427792
0.0427858
0.0427898
0.0427964
0.0182261
0.0182235
0.0182442
0.0182415
0.0898485
0.205172
0.0898496
0.205179
0.0508713
0.131776
0.0508853
0.131775
0.454346
0.578401
0.454391
0.578497
0.288466
0.420662
0.288521
0.420675
0.57727
0.453621
0.577749
0.453956
0.419701
0.287754
0.420064
0.288077
0.204843
0.0897109
0.205022
0.0898072
0.131524
0.0507634
0.131664
0.0508458
0.0427084
0.0427149
0.0427787
0.0427853
0.018166
0.0181633
0.0182202
0.0182176
0.089746
0.204955
0.0898424
0.205134
0.0507818
0.131628
0.0508644
0.131768
0.453878
0.5777
0.454213
0.578178
0.288042
0.420222
0.288364
0.420585
0.576092
0.452791
0.576779
0.453285
0.418747
0.28697
0.419348
0.287463
0.204394
0.0894702
0.204679
0.0896337
0.131154
0.0505608
0.131405
0.0507018
0.0425441
0.0425505
0.0426608
0.0426672
0.0180434
0.0180406
0.0181301
0.0181273
0.089505
0.204506
0.0896688
0.204792
0.0505789
0.131258
0.0507202
0.131509
0.453047
0.576521
0.453542
0.577208
0.287256
0.419267
0.28775
0.41987
0.574635
0.45177
0.575446
0.452346
0.417542
0.286013
0.418254
0.286579
0.203832
0.0891583
0.204166
0.0893548
0.130675
0.0502985
0.130975
0.0504702
0.0423287
0.0423349
0.0424711
0.0424775
0.0178864
0.0178835
0.0179917
0.0179888
0.0891927
0.203943
0.0893895
0.204278
0.0503162
0.130777
0.0504882
0.131079
0.452025
0.575061
0.452602
0.575873
0.286298
0.41806
0.286866
0.418774
0.572963
0.450611
0.573879
0.451255
0.416151
0.284927
0.416953
0.285558
0.203191
0.0887983
0.203563
0.0890178
0.130119
0.0499968
0.130457
0.0501877
0.0420806
0.0420866
0.042239
0.0422452
0.0177074
0.0177043
0.0178246
0.0178216
0.0888322
0.203301
0.089052
0.203674
0.0500139
0.130221
0.0502052
0.130559
0.450864
0.573387
0.451509
0.574305
0.285211
0.416667
0.285843
0.417471
0.571089
0.449323
0.572104
0.450029
0.414591
0.283727
0.415476
0.284413
0.202479
0.088396
0.202886
0.088636
0.129496
0.0496589
0.129866
0.0498675
0.0418035
0.0418093
0.0419761
0.041982
0.0175086
0.0175053
0.0176355
0.0176323
0.0884293
0.202588
0.0886697
0.202996
0.0496755
0.129596
0.0498844
0.129968
0.449575
0.571511
0.450282
0.572527
0.284008
0.415104
0.284696
0.415991
0.569018
0.447911
0.570131
0.448679
0.412865
0.28241
0.413833
0.283155
0.201699
0.0879529
0.20214
0.0882133
0.128805
0.0492854
0.129209
0.0495117
0.041498
0.0415036
0.0416847
0.0416904
0.0172901
0.0172867
0.0174266
0.0174233
0.0879856
0.201807
0.0882463
0.202249
0.0493014
0.128905
0.0495281
0.129309
0.448162
0.569437
0.44893
0.570552
0.282689
0.413375
0.283435
0.414345
0.566735
0.446366
0.567956
0.447201
0.410966
0.28097
0.412022
0.281777
0.200846
0.0874674
0.201324
0.087749
0.128045
0.0488748
0.128484
0.0491196
0.0411629
0.0411683
0.0413644
0.0413699
0.0170513
0.0170477
0.0171978
0.0171944
0.0874995
0.200953
0.0877815
0.201432
0.0488902
0.128143
0.0491354
0.128583
0.446614
0.567152
0.447451
0.568374
0.281247
0.411472
0.282056
0.41253
0.564237
0.444684
0.565566
0.445588
0.408886
0.279403
0.410033
0.280274
0.199918
0.086938
0.200434
0.0872416
0.127213
0.0484257
0.127688
0.0486897
0.0407972
0.0408022
0.041014
0.0410192
0.0167914
0.0167876
0.0169483
0.0169447
0.0869693
0.200024
0.0872734
0.20054
0.0484403
0.12731
0.0487048
0.127786
0.44493
0.564651
0.445835
0.565981
0.279677
0.409388
0.28055
0.410537
0.561514
0.442861
0.562957
0.443836
0.406619
0.277699
0.40786
0.27864
0.198911
0.0863629
0.199466
0.0866894
0.126306
0.0479363
0.126819
0.0482203
0.0403994
0.0404041
0.0406321
0.0406371
0.0165097
0.0165058
0.0166773
0.0166735
0.0863934
0.199016
0.0867204
0.199572
0.0479502
0.126401
0.0482348
0.126915
0.443104
0.561925
0.444081
0.563369
0.277971
0.407117
0.278913
0.408361
0.558557
0.440887
0.560118
0.441938
0.404155
0.275849
0.405496
0.276863
0.197821
0.0857401
0.198419
0.0860905
0.125319
0.047405
0.125872
0.0477099
0.0399683
0.0399727
0.0402176
0.0402223
0.0162057
0.0162016
0.0163842
0.0163801
0.0857698
0.197925
0.0861207
0.198523
0.0474182
0.125413
0.0477236
0.125966
0.441129
0.558964
0.442181
0.560526
0.276117
0.404649
0.277134
0.405992
0.555354
0.438755
0.557037
0.439885
0.401487
0.273841
0.40293
0.274934
0.196645
0.0850677
0.197286
0.0854428
0.12425
0.0468306
0.124843
0.0471569
0.0395029
0.039507
0.0397692
0.0397736
0.015879
0.0158746
0.0160684
0.0160642
0.0850966
0.196747
0.0854722
0.197388
0.0468429
0.124342
0.0471697
0.124936
0.438994
0.555757
0.440126
0.557442
0.274107
0.401976
0.275201
0.403421
0.551902
0.436464
0.55371
0.437674
0.398611
0.271674
0.400157
0.272847
0.195381
0.0843448
0.196065
0.0847451
0.123096
0.0462122
0.123732
0.0465602
0.0390024
0.0390062
0.0392861
0.0392901
0.0155295
0.0155249
0.0157299
0.0157254
0.0843727
0.195481
0.0847735
0.196166
0.0462236
0.123186
0.0465722
0.123823
0.4367
0.552301
0.437912
0.554112
0.271936
0.399095
0.273111
0.400644
0.548194
0.43401
0.550131
0.435302
0.395522
0.269345
0.397175
0.270598
0.194026
0.0835704
0.194756
0.0839962
0.121858
0.0455496
0.122535
0.0459193
0.0384665
0.0384699
0.0387677
0.0387713
0.0151575
0.0151527
0.0153687
0.015364
0.0835972
0.194124
0.0840237
0.194855
0.04556
0.121946
0.0459303
0.122625
0.434243
0.54859
0.435536
0.550528
0.269604
0.396001
0.270858
0.397656
0.544229
0.431386
0.546294
0.432763
0.392223
0.266873
0.39398
0.268194
0.192579
0.082744
0.193355
0.0831955
0.120535
0.0448428
0.121255
0.0452341
0.0378953
0.0378982
0.0382138
0.0382169
0.0147637
0.0147586
0.0149852
0.0149802
0.0827698
0.192675
0.0832219
0.193452
0.0448523
0.120621
0.0452442
0.121342
0.431616
0.54462
0.432995
0.546687
0.267127
0.392696
0.268451
0.394456
0.540017
0.428598
0.542203
0.430055
0.388716
0.26425
0.390576
0.265648
0.191042
0.0818668
0.191862
0.0823433
0.119129
0.0440928
0.11989
0.0445051
0.0372894
0.0372919
0.0376247
0.0376275
0.0143491
0.0143438
0.0145803
0.0145751
0.0818915
0.191137
0.0823685
0.191958
0.0441012
0.119213
0.0445141
0.119975
0.428825
0.540403
0.430283
0.542592
0.2645
0.389183
0.265901
0.391046
0.535568
0.425656
0.53787
0.427189
0.38501
0.261476
0.386968
0.262948
0.189419
0.0809408
0.190281
0.0814411
0.117641
0.0433014
0.118442
0.0437337
0.0366505
0.0366525
0.0370017
0.037004
0.0139155
0.0139099
0.0141554
0.01415
0.0809643
0.189511
0.0814652
0.190375
0.0433087
0.117723
0.0437416
0.118525
0.42588
0.535949
0.427414
0.538254
0.261722
0.385471
0.263196
0.387432
0.530898
0.422567
0.533308
0.424172
0.381118
0.258561
0.383166
0.260101
0.187714
0.0799689
0.188616
0.0804913
0.116077
0.0424714
0.116914
0.042922
0.0359807
0.0359822
0.0363467
0.0363485
0.0134651
0.0134592
0.0137126
0.0137068
0.0799911
0.187805
0.0805142
0.188708
0.0424776
0.116156
0.0429289
0.116995
0.422787
0.531274
0.424394
0.533687
0.258803
0.381572
0.260346
0.383624
0.526029
0.419342
0.528534
0.421012
0.377057
0.255515
0.379187
0.25712
0.185934
0.0789549
0.186873
0.0794974
0.114441
0.0416065
0.115313
0.0420735
0.0352829
0.0352839
0.0356621
0.0356633
0.0130005
0.0129944
0.0132541
0.0132482
0.0789758
0.186023
0.079519
0.186962
0.0416115
0.114518
0.0420792
0.115391
0.419558
0.5264
0.42123
0.528908
0.255753
0.377504
0.25736
0.379637
0.520991
0.416012
0.523578
0.417729
0.372849
0.252345
0.375048
0.254009
0.184091
0.0779045
0.185059
0.0784641
0.112742
0.0407112
0.113644
0.0411923
0.034561
0.0345614
0.0349513
0.0349521
0.0125251
0.0125187
0.0127831
0.0127769
0.0779241
0.184177
0.0784844
0.185146
0.040715
0.112817
0.0411967
0.11372
0.416225
0.521357
0.417944
0.523947
0.252578
0.373289
0.254244
0.375492
0.515805
0.412592
0.518462
0.414355
0.368515
0.249083
0.370774
0.250788
0.182193
0.0768232
0.183187
0.0773972
0.110991
0.039791
0.111917
0.0402833
0.0338192
0.033819
0.0342184
0.0342186
0.0120422
0.0120356
0.0123028
0.0122964
0.0768415
0.182277
0.0774162
0.183272
0.0397936
0.111063
0.0402866
0.111991
0.412801
0.516166
0.414565
0.518825
0.249311
0.368948
0.251019
0.37121
0.510506
0.409088
0.513214
0.410889
0.364084
0.24575
0.366387
0.247488
0.180249
0.0757171
0.181264
0.0763023
0.109197
0.0388513
0.110142
0.039352
0.0330622
0.0330615
0.033468
0.0334676
0.0115558
0.011549
0.0118171
0.0118103
0.0757339
0.18033
0.0763199
0.181347
0.0388528
0.109266
0.0393541
0.110213
0.409292
0.51086
0.411096
0.513572
0.245973
0.364509
0.247713
0.366816
0.505129
0.405523
0.507871
0.407351
0.359582
0.242368
0.361916
0.244126
0.17827
0.0745929
0.179301
0.0751859
0.10737
0.0378988
0.10833
0.0384045
0.0322955
0.0322942
0.032705
0.0327041
0.0110701
0.0110631
0.0113298
0.0113229
0.0746083
0.178349
0.0752021
0.179381
0.0378991
0.107437
0.0384054
0.108398
0.405723
0.505477
0.407553
0.508223
0.242586
0.36
0.244346
0.362338
0.499707
0.401918
0.502467
0.403763
0.355037
0.238964
0.357389
0.240728
0.176266
0.0734573
0.177308
0.0740548
0.105522
0.0369405
0.106491
0.0374476
0.0315249
0.031523
0.0319351
0.0319336
0.0105895
0.0105823
0.0108455
0.0108383
0.0734713
0.176343
0.0740696
0.177386
0.0369395
0.105587
0.0374473
0.106557
0.402114
0.50005
0.403962
0.502813
0.239176
0.355447
0.240944
0.357803
0.494264
0.398277
0.497032
0.400141
0.350467
0.235559
0.352828
0.237322
0.174243
0.0723158
0.175295
0.0729152
0.103663
0.0359835
0.104636
0.0364884
0.0307562
0.0307538
0.0311643
0.0311622
0.0101183
0.0101109
0.0103684
0.0103611
0.0723285
0.174317
0.0729286
0.17537
0.0359814
0.103725
0.036487
0.104699
0.39847
0.494601
0.400336
0.497372
0.235767
0.35087
0.237532
0.353235
0.488812
0.394584
0.491584
0.396477
0.34588
0.232202
0.348251
0.23393
0.172197
0.0711717
0.17326
0.071772
0.1018
0.0350332
0.102774
0.0355338
0.0299935
0.0299905
0.0303979
0.0303953
0.00965962
0.00965202
0.00990256
0.00989506
0.0711831
0.172269
0.071784
0.173334
0.0350301
0.101859
0.0355313
0.102834
0.394773
0.489143
0.396668
0.491919
0.232403
0.346275
0.234134
0.34865
0.483317
0.390808
0.48612
0.392747
0.341219
0.228816
0.34364
0.23058
0.170111
0.0700159
0.171198
0.0706243
0.0999147
0.0340863
0.100903
0.034586
0.0292331
0.0292296
0.0296372
0.029634
0.0092134
0.00920568
0.0094498
0.00944215
0.0700259
0.17018
0.070635
0.171269
0.0340821
0.0999711
0.0345824
0.100961
0.390993
0.483641
0.392933
0.486447
0.229012
0.341605
0.230779
0.34403
0.477619
0.386848
0.480554
0.388902
0.336281
0.225235
0.338878
0.227122
0.167906
0.068803
0.169068
0.0694485
0.0979386
0.0331163
0.0989857
0.0336324
0.0284507
0.0284466
0.0288704
0.0288666
0.00877164
0.00876382
0.00900699
0.00899923
0.0688115
0.167972
0.0694578
0.169137
0.0331111
0.0979922
0.0336277
0.0990408
0.387027
0.477935
0.389084
0.480875
0.225424
0.336656
0.227315
0.339259
0.471333
0.382395
0.474627
0.384748
0.330596
0.221131
0.333645
0.223335
0.165376
0.0674146
0.166736
0.0681686
0.0956949
0.0320473
0.0969063
0.0326264
0.0275754
0.0275707
0.0280542
0.0280498
0.00830711
0.00829921
0.00855845
0.00855059
0.0674214
0.165439
0.0681764
0.166801
0.0320409
0.0957451
0.0326206
0.0969584
0.382567
0.471639
0.384924
0.474939
0.221314
0.330959
0.223521
0.334014
0.46375
0.376819
0.467803
0.379844
0.323296
0.215868
0.327289
0.218757
0.162073
0.0655797
0.163902
0.0666054
0.0928003
0.0306981
0.0944036
0.0314488
0.0264393
0.0264338
0.0270777
0.0270726
0.0077512
0.00774324
0.00805971
0.00805178
0.0655845
0.162132
0.0666113
0.163963
0.0306904
0.0928462
0.0314418
0.0944519
0.376984
0.464045
0.380012
0.468104
0.216041
0.323643
0.218935
0.327645
0.454038
0.368066
0.459198
0.373169
0.313149
0.208127
0.318706
0.212481
0.156665
0.0626257
0.159833
0.0643384
0.0883692
0.0286781
0.0909045
0.0298296
0.0246923
0.0246856
0.025693
0.025687
0.00696875
0.00696076
0.00741023
0.00740225
0.0626274
0.156718
0.0643418
0.159889
0.0286686
0.0884092
0.029821
0.0909478
0.36822
0.454321
0.373329
0.459488
0.208289
0.313479
0.212648
0.319045
0.448268
0.342127
0.4495
0.359985
0.298961
0.191573
0.306986
0.202234
0.143868
0.0570244
0.151897
0.0602922
0.0801412
0.0253943
0.0849955
0.0272404
0.0218622
0.021854
0.0234467
0.0234394
0.00583457
0.0058267
0.00645403
0.00644608
0.0570218
0.143911
0.0602921
0.151946
0.0253823
0.0801725
0.0272297
0.0850316
0.342263
0.448548
0.360132
0.44978
0.191715
0.299271
0.202389
0.307306
0.285791
0.217423
0.101599
0.0813177
0.254927
0.193834
0.0865597
0.0698734
0.0555404
0.00966631
0.0127692
0.00462607
0.0449228
0.00753457
0.0109174
0.00450197
0.00268067
0.00267904
0.00443331
0.0044335
0.00250041
0.00249953
0.00453543
0.00453553
0.00965811
0.0555319
0.00462496
0.0127652
0.00752887
0.0449141
0.00450127
0.0109142
0.217462
0.285911
0.0813225
0.101658
0.193862
0.25502
0.0698737
0.0866002
0.530135
0.412357
0.427605
0.328828
0.478385
0.370434
0.384766
0.294865
0.171363
0.060568
0.118023
0.0304022
0.145549
0.0476501
0.0991848
0.0227215
0.0150143
0.0150005
0.00514935
0.00514259
0.0100596
0.0100498
0.00376883
0.00376462
0.0605561
0.171393
0.0303847
0.118033
0.047638
0.14557
0.0227073
0.0991892
0.41247
0.530355
0.328904
0.427777
0.370524
0.478566
0.294924
0.384905
0.656474
0.518696
0.60376
0.473903
0.593122
0.46606
0.545336
0.425865
0.245326
0.108575
0.21339
0.0869374
0.209681
0.0873044
0.182043
0.0694515
0.0491994
0.049198
0.0325609
0.0325521
0.0356892
0.0356844
0.0228409
0.0228305
0.108591
0.245405
0.0869378
0.213444
0.0873112
0.20974
0.0694469
0.182082
0.518882
0.656792
0.474053
0.604028
0.466214
0.593392
0.425987
0.545561
0.72009
0.573585
0.6939
0.550875
0.650462
0.514992
0.626919
0.494811
0.286093
0.138172
0.269018
0.125527
0.24465
0.111508
0.230064
0.101208
0.0738264
0.0738383
0.0631195
0.0631253
0.0549826
0.054988
0.0465861
0.0465868
0.138221
0.286222
0.12556
0.269123
0.111538
0.244748
0.101228
0.230143
0.573843
0.720502
0.551098
0.694266
0.515207
0.650816
0.494996
0.627231
0.750102
0.59984
0.738118
0.589324
0.67722
0.538101
0.666579
0.528889
0.306253
0.153491
0.298139
0.147291
0.261663
0.123823
0.254854
0.118871
0.0870156
0.0870364
0.0816671
0.081684
0.0652289
0.0652412
0.0610996
0.0611089
0.153564
0.306421
0.147353
0.298289
0.123872
0.261792
0.118912
0.254969
0.600155
0.750592
0.589613
0.738572
0.538364
0.677642
0.52913
0.666969
0.762602
0.610904
0.757895
0.60672
0.688197
0.54767
0.684087
0.544076
0.31491
0.160138
0.311632
0.157628
0.268817
0.129041
0.26613
0.12709
0.0927335
0.0927591
0.0905882
0.0906118
0.0695537
0.0695695
0.0679509
0.0679654
0.160225
0.315102
0.15771
0.311814
0.1291
0.268965
0.127145
0.26627
0.611255
0.763143
0.607055
0.758413
0.547963
0.688663
0.544356
0.684534
0.766673
0.614618
0.765371
0.613402
0.691693
0.550805
0.69059
0.549793
0.317917
0.162452
0.316923
0.161692
0.271232
0.130797
0.270447
0.130232
0.0946933
0.094721
0.0940602
0.0940872
0.0709735
0.0709909
0.0705283
0.0705452
0.162546
0.31812
0.161783
0.317122
0.130861
0.271389
0.130294
0.270601
0.614988
0.767241
0.613765
0.765928
0.551114
0.692182
0.550096
0.69107
0.767085
0.61515
0.767208
0.615177
0.692002
0.551213
0.692129
0.551256
0.318489
0.162935
0.318445
0.16288
0.271653
0.13113
0.271639
0.131107
0.0950973
0.0951257
0.0950579
0.0950861
0.0712302
0.0712478
0.0712236
0.0712412
0.163031
0.318697
0.162975
0.318651
0.131195
0.271813
0.131173
0.271798
0.615526
0.767663
0.615552
0.767783
0.551527
0.692499
0.551569
0.692624
0.766109
0.614525
0.766765
0.614979
0.691115
0.550647
0.691705
0.551051
0.318215
0.162803
0.318462
0.16295
0.2714
0.131008
0.271618
0.131132
0.0950142
0.0950425
0.0951263
0.0951547
0.0711524
0.07117
0.0712452
0.0712629
0.162899
0.318423
0.163046
0.318671
0.131073
0.27156
0.131198
0.271778
0.614904
0.766689
0.615358
0.767344
0.550962
0.691615
0.551366
0.692203
0.7645
0.613375
0.765423
0.614051
0.689678
0.549635
0.690503
0.550229
0.317566
0.162422
0.31798
0.162684
0.27084
0.130688
0.271195
0.130906
0.0947412
0.0947694
0.0949408
0.0949691
0.0709277
0.0709452
0.0710895
0.0711071
0.162517
0.317774
0.16278
0.318189
0.130753
0.271
0.130972
0.271356
0.613752
0.765079
0.61443
0.766003
0.549949
0.690176
0.550544
0.691002
0.762534
0.611956
0.763614
0.612748
0.687919
0.548389
0.688886
0.549085
0.316738
0.161915
0.31723
0.162234
0.270132
0.13027
0.270551
0.130532
0.094366
0.0943939
0.0946146
0.0946427
0.0706255
0.0706428
0.0708249
0.0708424
0.16201
0.316945
0.162329
0.317437
0.130334
0.27029
0.130597
0.270711
0.612332
0.763111
0.613125
0.764192
0.548702
0.688415
0.549399
0.689384
0.76031
0.610353
0.761516
0.611233
0.685921
0.546979
0.687006
0.547755
0.315795
0.161332
0.316341
0.161687
0.269324
0.129789
0.269791
0.130081
0.0939326
0.0939602
0.0942086
0.0942364
0.0702771
0.0702942
0.0704986
0.0705158
0.161426
0.316001
0.161781
0.316547
0.129853
0.269482
0.130145
0.269949
0.610726
0.760883
0.611608
0.762091
0.54729
0.686415
0.548067
0.687501
0.75784
0.608582
0.759165
0.609543
0.683696
0.545418
0.684891
0.546266
0.314752
0.160686
0.315346
0.161072
0.268428
0.129254
0.268938
0.129572
0.0934511
0.0934784
0.0937504
0.0937779
0.0698894
0.0699062
0.07013
0.0701469
0.160779
0.314956
0.161165
0.315551
0.129317
0.268585
0.129636
0.269095
0.608953
0.758411
0.609915
0.759737
0.545727
0.684187
0.546576
0.685383
0.755136
0.606655
0.756578
0.607694
0.681251
0.543714
0.682555
0.544633
0.313613
0.159979
0.314255
0.160395
0.267449
0.128667
0.268
0.129011
0.0929237
0.0929506
0.0932458
0.093273
0.0694633
0.0694798
0.069723
0.0697397
0.160071
0.313815
0.160487
0.314458
0.128729
0.267604
0.129074
0.268156
0.607024
0.755703
0.608064
0.757147
0.544021
0.681738
0.544941
0.683044
0.752173
0.604553
0.753748
0.605681
0.678564
0.541851
0.679992
0.542851
0.312373
0.159208
0.313066
0.159656
0.26638
0.128025
0.266977
0.128397
0.0923482
0.0923748
0.0926944
0.0927212
0.0689975
0.0690136
0.0692771
0.0692934
0.159299
0.312573
0.159748
0.313268
0.128087
0.266533
0.128459
0.267131
0.604919
0.752736
0.606048
0.754312
0.542156
0.679048
0.543157
0.680478
0.748944
0.602271
0.750652
0.60349
0.675632
0.539829
0.677183
0.540909
0.311025
0.158371
0.311773
0.158852
0.265218
0.127327
0.265861
0.127727
0.0917224
0.0917485
0.0920938
0.0921202
0.06849
0.0685058
0.0687904
0.0688064
0.158461
0.311224
0.158943
0.311972
0.127388
0.26537
0.127788
0.266014
0.602634
0.749503
0.603854
0.751213
0.540131
0.676113
0.541212
0.677665
0.745439
0.599803
0.747286
0.601115
0.672445
0.537641
0.674124
0.538804
0.309568
0.157464
0.310371
0.15798
0.263959
0.12657
0.264651
0.127
0.0910441
0.0910698
0.0914417
0.0914677
0.0679391
0.0679545
0.0682612
0.0682769
0.157552
0.309764
0.158069
0.310568
0.12663
0.264109
0.12706
0.264802
0.600162
0.745994
0.601476
0.747843
0.53794
0.672922
0.539105
0.674603
0.741646
0.597138
0.743638
0.598549
0.66899
0.53528
0.670805
0.53653
0.307995
0.156484
0.308856
0.157037
0.262599
0.125752
0.263342
0.126212
0.0903108
0.090336
0.090736
0.0907615
0.0673429
0.0673579
0.0676876
0.0677029
0.156571
0.308189
0.157125
0.309051
0.12581
0.262748
0.126271
0.263492
0.597494
0.742196
0.598907
0.74419
0.535576
0.669463
0.536828
0.67128
0.73755
0.594279
0.739693
0.595785
0.665256
0.53274
0.66721
0.534078
0.306303
0.155429
0.307223
0.156019
0.261136
0.12487
0.261931
0.125362
0.0895206
0.0895453
0.0899741
0.0899991
0.0666998
0.0667145
0.0670679
0.0670828
0.155515
0.306494
0.156106
0.307416
0.124927
0.261283
0.12542
0.262078
0.594631
0.738094
0.596139
0.740241
0.533033
0.665725
0.534373
0.667681
0.733143
0.591213
0.735443
0.592826
0.66124
0.53002
0.663336
0.53145
0.304488
0.154297
0.30547
0.154926
0.259566
0.123923
0.260415
0.124448
0.0886718
0.088696
0.0891544
0.0891789
0.0660088
0.0660229
0.0664007
0.0664151
0.154381
0.304676
0.155011
0.30566
0.123979
0.259711
0.124504
0.26056
0.591561
0.733682
0.593176
0.735985
0.53031
0.661704
0.531741
0.663803
0.728429
0.587929
0.73088
0.589649
0.656929
0.527116
0.659173
0.528637
0.302546
0.153086
0.303591
0.153754
0.257887
0.12291
0.25879
0.123467
0.0877639
0.0877875
0.0882757
0.0882996
0.0652689
0.0652825
0.0656849
0.0656989
0.153168
0.302732
0.153837
0.303779
0.122964
0.258029
0.123523
0.258933
0.588272
0.728962
0.589995
0.731416
0.527402
0.657389
0.528925
0.659635
0.723414
0.584462
0.726016
0.586267
0.652321
0.524
0.654712
0.525632
0.300487
0.151798
0.30159
0.152504
0.256093
0.121829
0.257054
0.12242
0.0867967
0.0868196
0.0873378
0.0873611
0.0644798
0.0644929
0.0649201
0.0649335
0.151879
0.30067
0.152585
0.301774
0.121882
0.256233
0.122474
0.257195
0.584801
0.723941
0.586608
0.726547
0.524283
0.652775
0.525916
0.655169
0.718083
0.580802
0.720843
0.58271
0.647437
0.520685
0.649963
0.52241
0.298306
0.150432
0.299471
0.151177
0.254188
0.120681
0.255203
0.121305
0.0857699
0.0857921
0.0863404
0.086363
0.0636421
0.0636547
0.0641063
0.0641191
0.150511
0.298486
0.151257
0.299652
0.120732
0.254325
0.121357
0.255341
0.581136
0.718604
0.583047
0.721368
0.520964
0.647886
0.522691
0.650415
0.712448
0.576928
0.715357
0.578941
0.642286
0.517196
0.644945
0.519007
0.296
0.148989
0.297226
0.149771
0.252178
0.119469
0.253244
0.120124
0.0846845
0.084706
0.0852836
0.0853055
0.0627574
0.0627693
0.0632444
0.0632567
0.149065
0.296177
0.149849
0.297404
0.119519
0.252312
0.120175
0.25338
0.577258
0.712963
0.579273
0.715875
0.517471
0.642729
0.519284
0.645391
0.706532
0.572859
0.709578
0.574967
0.636879
0.51354
0.639662
0.515432
0.293576
0.147471
0.29486
0.14829
0.250068
0.118196
0.251183
0.118881
0.0835432
0.0835639
0.0841693
0.0841905
0.061828
0.0618393
0.0623366
0.0623482
0.147546
0.29375
0.148365
0.295035
0.118245
0.2502
0.11893
0.251316
0.573183
0.70704
0.575293
0.71009
0.51381
0.637316
0.515704
0.640103
0.700357
0.568608
0.703529
0.570804
0.631235
0.509728
0.634134
0.511696
0.291043
0.145885
0.29238
0.146737
0.247864
0.116867
0.249026
0.117579
0.0823499
0.0823698
0.083001
0.0830214
0.0608573
0.0608679
0.0613856
0.0613966
0.145957
0.291213
0.14681
0.292551
0.116913
0.247993
0.117627
0.249156
0.568927
0.700857
0.571126
0.704034
0.509994
0.631666
0.511964
0.634569
0.693951
0.564189
0.697234
0.566467
0.625378
0.505755
0.628379
0.507806
0.288409
0.144236
0.289794
0.145117
0.245572
0.115486
0.246776
0.116222
0.0811098
0.0811289
0.081783
0.0818026
0.0598496
0.0598595
0.0603953
0.0604056
0.144306
0.288575
0.145189
0.289963
0.11553
0.245698
0.116268
0.246904
0.564502
0.694444
0.566783
0.697731
0.506016
0.625803
0.50807
0.628807
0.687353
0.559626
0.690726
0.561971
0.619355
0.50165
0.622432
0.503757
0.28569
0.142534
0.287115
0.14344
0.243206
0.114061
0.244444
0.114818
0.0798299
0.0798481
0.0805215
0.0805402
0.0588112
0.0588204
0.059371
0.0593806
0.142601
0.285852
0.143509
0.287279
0.114104
0.243329
0.114862
0.244568
0.559934
0.687839
0.562281
0.691215
0.501906
0.619774
0.504015
0.622854
0.680608
0.554954
0.684049
0.55735
0.613204
0.497457
0.616341
0.499605
0.282903
0.140789
0.284359
0.141715
0.240785
0.112603
0.242048
0.113375
0.0785178
0.0785352
0.079224
0.0792418
0.0577484
0.0577569
0.058319
0.0583279
0.140854
0.283061
0.141781
0.28452
0.112644
0.240905
0.113417
0.24217
0.555256
0.681086
0.557655
0.684531
0.497709
0.613616
0.499859
0.616756
0.673756
0.550196
0.677244
0.55263
0.606961
0.493195
0.610138
0.495375
0.280064
0.139013
0.281544
0.139952
0.238321
0.11112
0.239604
0.111903
0.0771823
0.0771988
0.0778985
0.0779154
0.0566685
0.0566762
0.0572463
0.0572544
0.139075
0.280218
0.140016
0.2817
0.111159
0.238438
0.111943
0.239722
0.550493
0.674226
0.552929
0.677718
0.493442
0.607366
0.495624
0.610547
0.666843
0.545382
0.670355
0.54784
0.600665
0.488886
0.603864
0.491086
0.277189
0.137215
0.278684
0.138163
0.235827
0.10962
0.237123
0.11041
0.0758322
0.0758478
0.076554
0.07657
0.0555791
0.055586
0.0561601
0.0561675
0.137275
0.277339
0.138225
0.278837
0.109657
0.235941
0.110448
0.237238
0.545672
0.667305
0.548134
0.670822
0.489128
0.601064
0.49133
0.604266
0.659902
0.540528
0.663424
0.543004
0.594349
0.484545
0.597554
0.486759
0.274288
0.135404
0.275795
0.136358
0.233313
0.108112
0.234618
0.108905
0.0744751
0.0744897
0.0751991
0.0752142
0.0544872
0.0544934
0.0550682
0.0550748
0.135462
0.274435
0.136417
0.275944
0.108147
0.233424
0.108941
0.23473
0.540812
0.660356
0.543291
0.663883
0.484782
0.594741
0.486998
0.597949
0.652944
0.535634
0.656477
0.538133
0.588026
0.48017
0.591235
0.482403
0.271356
0.133576
0.272881
0.13454
0.230776
0.106596
0.232094
0.107393
0.0731106
0.0731243
0.0738385
0.0738527
0.0533954
0.0534008
0.0539761
0.0539819
0.133632
0.271498
0.134596
0.273026
0.106629
0.230883
0.107427
0.232203
0.535911
0.653389
0.538414
0.656926
0.480402
0.58841
0.482637
0.591623
0.645902
0.53063
0.649491
0.533197
0.581645
0.475711
0.584894
0.477997
0.268338
0.131698
0.269917
0.132693
0.228179
0.105049
0.229534
0.105866
0.071716
0.0717288
0.0724635
0.0724768
0.0522912
0.0522958
0.0528806
0.0528857
0.13175
0.268476
0.132747
0.270057
0.10508
0.228282
0.105898
0.22964
0.530901
0.646337
0.533472
0.649932
0.475937
0.582021
0.478226
0.585275
0.638561
0.525322
0.642338
0.528077
0.575021
0.471007
0.578426
0.473445
0.265081
0.129662
0.266807
0.130755
0.2254
0.103395
0.226868
0.10428
0.0702148
0.0702264
0.0710296
0.0710419
0.0511242
0.0511281
0.0517545
0.0517587
0.129712
0.265214
0.130807
0.266943
0.103424
0.2255
0.10431
0.22697
0.525585
0.638986
0.528344
0.642769
0.471226
0.575388
0.473668
0.578798
0.630452
0.519275
0.634691
0.522473
0.56773
0.46568
0.57154
0.468494
0.261239
0.127223
0.263317
0.128561
0.222158
0.101448
0.223907
0.102512
0.068417
0.0684273
0.0694131
0.0694242
0.0497623
0.0497651
0.0505134
0.0505168
0.127269
0.261366
0.128609
0.263447
0.101474
0.222254
0.102539
0.224005
0.519529
0.630864
0.522731
0.63511
0.465891
0.568086
0.468709
0.571902
0.620788
0.511586
0.625917
0.515767
0.559013
0.458923
0.563651
0.462598
0.256055
0.123844
0.258941
0.125745
0.217824
0.0987883
0.220235
0.100282
0.0659224
0.0659309
0.0673333
0.0673429
0.047911
0.0479125
0.0489567
0.048959
0.123885
0.256174
0.125789
0.259065
0.098811
0.217913
0.100307
0.220327
0.511829
0.621187
0.516015
0.626323
0.459126
0.559357
0.462806
0.564002
0.609324
0.499471
0.615188
0.506491
0.548274
0.448146
0.553869
0.454423
0.247426
0.118331
0.252469
0.121512
0.210578
0.0944332
0.214826
0.0969551
0.0620169
0.0620229
0.0642397
0.0642471
0.045009
0.0450086
0.046667
0.0466677
0.118366
0.247534
0.12155
0.252584
0.094451
0.210659
0.0969756
0.214912
0.4997
0.60971
0.506728
0.615579
0.448336
0.548606
0.45462
0.554207
0.608675
0.465015
0.605524
0.488587
0.545231
0.416817
0.544054
0.438283
0.228075
0.108525
0.240002
0.114121
0.193855
0.086439
0.204237
0.0910422
0.0560094
0.056012
0.0593089
0.0593134
0.0404302
0.0404273
0.0429645
0.042963
0.108551
0.228168
0.114151
0.240103
0.0864499
0.193923
0.0910569
0.204313
0.465223
0.609071
0.488807
0.60591
0.416987
0.545567
0.438466
0.544384
0.311026
0.236495
0.113733
0.0893218
0.302352
0.229749
0.109747
0.0861369
0.0643946
0.0116875
0.0142151
0.00479492
0.0611928
0.0109312
0.0136385
0.0047533
0.00292469
0.0029222
0.00442343
0.00442374
0.00284874
0.00284661
0.00446684
0.00446711
0.0116767
0.0643877
0.00479339
0.0142105
0.0109214
0.0611852
0.00475195
0.0136341
0.236551
0.311183
0.0893329
0.113814
0.229798
0.302493
0.0861456
0.10982
0.576393
0.450286
0.464222
0.358042
0.559471
0.436343