/*--------------------------------*- C++ -*----------------------------------*\
  =========                 |
  \\      /  F ield         | OpenFOAM: The Open Source CFD Toolbox
   \\    /   O peration     | Website:  https://openfoam.org
    \\  /    A nd           | Version:  9
     \\/     M anipulation  |
\*---------------------------------------------------------------------------*/
FoamFile
{
    format      ascii;
    class       surfaceScalarField;
    location    "1.8";
    object      phi;
}
// * * * * * * * * * * * * * * * * * * * * * * * * * * * * * * * * * * * * * //

dimensions      [0 3 -1 0 0 0 0];

internalField   nonuniform List<scalar> 
104044
(
3.613e-07
-6.52516e-05
-1.84016e-07
6.42597e-05
8.14619e-07
-4.6137e-05
-3.18612e-06
-1.29074e-07
4.88031e-05
1.01038e-06
1.74312e-07
-3.94917e-07
7.41029e-07
-2.84339e-06
-6.81676e-08
8.01894e-07
1.94043e-08
-6.63281e-05
6.61247e-05
-4.65725e-05
2.26857e-09
4.34035e-05
5.33018e-08
-2.60965e-08
-8.26842e-09
-5.28633e-05
-1.77807e-06
5.33488e-05
1.17175e-06
-5.52688e-05
-5.81367e-07
-7.72885e-11
5.56915e-05
1.50493e-07
-3.2082e-09
-1.45887e-06
6.06106e-07
-1.0255e-06
-1.35899e-10
1.88586e-07
-9.27392e-09
-5.67668e-05
5.50003e-05
-5.65287e-05
-2.27545e-09
5.59403e-05
-4.97836e-09
-5.07036e-10
-1.95118e-12
-5.59214e-05
-6.38271e-07
5.64101e-05
1.49505e-07
-5.59211e-05
-6.38307e-07
7.37846e-11
5.64098e-05
1.49544e-07
-7.93671e-13
-1.07903e-06
2.19976e-07
-1.07905e-06
1.34997e-10
2.19987e-07
-2.58626e-12
-5.59355e-05
5.5295e-05
-5.59351e-05
2.27184e-09
5.52945e-05
-7.44489e-13
5.05193e-10
8.26358e-09
-5.52678e-05
-5.81307e-07
5.56904e-05
1.50508e-07
-5.28611e-05
-1.77822e-06
1.29059e-07
5.33466e-05
1.17192e-06
3.20744e-09
-1.02551e-06
1.88615e-07
-1.4589e-06
6.81598e-08
6.06218e-07
9.26448e-09
-5.65274e-05
5.59391e-05
-5.67642e-05
-2.27887e-09
5.49975e-05
4.97576e-09
2.6095e-08
-3.61342e-07
-4.61345e-05
-3.18637e-06
4.88013e-05
1.01005e-06
-6.5255e-05
-1.84049e-07
6.4263e-05
8.14693e-07
-1.74339e-07
-2.84389e-06
8.02053e-07
-3.95279e-07
7.41488e-07
-1.93407e-08
-4.65684e-05
4.33991e-05
-6.63354e-05
6.6132e-05
-5.32856e-08
3.68421e-07
-6.32e-05
-1.06583e-06
6.21924e-05
1.705e-06
-5.07632e-05
2.53316e-07
-1.03626e-07
5.17912e-05
-8.09338e-07
3.86987e-07
-6.64231e-07
1.33694e-06
-1.58005e-06
-1.23001e-07
1.29942e-07
-1.72049e-07
-6.55236e-05
6.46298e-05
-4.17005e-05
1.28746e-07
4.1653e-05
-6.31773e-08
5.98447e-08
-1.54486e-08
-5.38393e-05
-1.89634e-06
5.40872e-05
1.56032e-06
-5.59621e-05
-7.8734e-07
-3.51566e-09
5.60425e-05
6.95034e-07
-1.16456e-08
-2.23911e-06
1.63722e-06
-7.49734e-07
-1.7882e-09
4.69202e-07
-1.10322e-08
-5.28299e-05
5.10733e-05
-5.51883e-05
-8.55365e-09
5.43985e-05
-8.82626e-09
-6.52112e-09
-5.56282e-12
-5.68667e-05
-3.31968e-07
5.71008e-05
9.43612e-08
-5.68664e-05
-3.31896e-07
3.49724e-09
5.71005e-05
9.42501e-08
-3.10238e-12
-5.35554e-07
7.72103e-08
-5.35572e-07
1.78186e-09
7.72195e-08
-4.90596e-12
-5.47529e-05
5.44124e-05
-5.47524e-05
8.55161e-09
5.4412e-05
-4.11388e-12
6.51867e-09
1.54228e-08
-5.5961e-05
-7.87269e-07
5.60413e-05
6.95059e-07
-5.38372e-05
-1.89654e-06
1.03588e-07
5.40852e-05
1.5604e-06
1.16329e-08
-7.49626e-07
4.69172e-07
-2.23936e-06
1.22976e-07
1.6374e-06
1.10125e-08
-5.51872e-05
5.43974e-05
-5.28269e-05
-1.28819e-07
5.10702e-05
8.81397e-09
-5.989e-08
-3.68404e-07
-5.07618e-05
2.54011e-07
5.17901e-05
-8.10274e-07
-6.32032e-05
-1.06625e-06
6.21955e-05
1.70558e-06
-3.87004e-07
-1.5797e-06
1.29122e-07
-6.64447e-07
1.3373e-06
1.72264e-07
-4.16961e-05
4.16491e-05
-6.55309e-05
6.46369e-05
6.33067e-08
2.37679e-07
-6.13438e-05
-1.50611e-06
6.06103e-05
2.00189e-06
-5.24836e-05
1.79274e-06
-2.81744e-08
5.30235e-05
-2.06682e-06
3.08357e-07
-1.35222e-06
1.89251e-06
1.21561e-06
-6.73072e-08
-1.53228e-06
-4.20747e-07
-6.35711e-05
6.24857e-05
-4.23754e-05
2.68603e-07
4.34788e-05
-2.93487e-07
1.997e-07
-1.21311e-08
-5.41276e-05
-8.92319e-07
5.41079e-05
8.95981e-07
-5.60133e-05
-4.45459e-07
-1.05956e-08
5.59176e-05
5.39616e-07
-1.49418e-08
-1.3154e-06
1.22256e-06
-6.39408e-07
-5.24884e-09
6.5891e-07
-6.85916e-09
-4.9968e-05
4.93511e-05
-5.3759e-05
-1.22615e-08
5.3319e-05
-1.03431e-08
-1.0321e-08
-2.50293e-11
-5.71038e-05
-4.07164e-08
5.69966e-05
1.37301e-07
-5.71035e-05
-4.05954e-08
1.06608e-08
5.69963e-05
1.37152e-07
-1.6829e-12
-1.51088e-07
1.42832e-07
-1.50958e-07
5.17023e-09
1.42823e-07
4.79329e-12
-5.4251e-05
5.4198e-05
-5.42507e-05
1.22697e-08
5.41978e-05
-3.79328e-12
1.03157e-08
1.21694e-08
-5.60121e-05
-4.45509e-07
5.59164e-05
5.39743e-07
-5.41258e-05
-8.92388e-07
2.81028e-08
5.41061e-05
8.96113e-07
1.46186e-08
-6.39367e-07
6.59133e-07
-1.3155e-06
6.72072e-08
1.22232e-06
6.83639e-09
-5.37581e-05
5.3318e-05
-4.99648e-05
-2.6873e-07
4.9348e-05
1.03296e-08
-1.99803e-07
-2.37606e-07
-5.24826e-05
1.7937e-06
5.30226e-05
-2.06805e-06
-6.13467e-05
-1.50691e-06
6.0613e-05
2.00297e-06
-3.08306e-07
1.2165e-06
-1.53348e-06
-1.35282e-06
1.89329e-06
4.21146e-07
-4.2372e-05
4.34758e-05
-6.35779e-05
6.24921e-05
2.9379e-07
8.27418e-08
-5.99868e-05
-1.62021e-06
5.94414e-05
2.08288e-06
-5.34737e-05
2.1955e-06
4.22566e-08
5.38693e-05
-2.55062e-06
1.57501e-07
-1.56425e-06
2.03031e-06
2.06055e-06
9.07999e-09
-2.36229e-06
-6.36856e-07
-6.14515e-05
6.04682e-05
-4.46876e-05
3.69851e-07
4.58764e-05
-5.30051e-07
3.21728e-07
-9.458e-10
-5.41034e-05
-4.39751e-07
5.41269e-05
4.59477e-07
-5.57993e-05
-2.11364e-07
-1.43028e-08
5.56931e-05
3.30893e-07
-1.19682e-08
-6.017e-07
6.27242e-07
-2.90129e-07
-1.34711e-08
4.0995e-07
7.60351e-09
-4.90717e-05
4.89942e-05
-5.30415e-05
-1.33583e-08
5.28511e-05
-5.70798e-10
-1.32311e-08
6.70937e-13
-5.68659e-05
3.53079e-08
5.6737e-05
7.93691e-08
-5.68655e-05
3.53125e-08
1.42915e-08
5.67365e-05
7.94152e-08
5.26103e-12
1.56914e-08
1.01514e-07
1.57525e-08
1.34757e-08
1.01538e-07
5.68199e-13
-5.42004e-05
5.42224e-05
-5.42004e-05
1.3342e-08
5.42223e-05
3.55298e-12
1.3227e-08
8.86971e-10
-5.57981e-05
-2.11464e-07
5.56919e-05
3.31026e-07
-5.41016e-05
-4.39677e-07
-4.27887e-08
5.41255e-05
4.59487e-07
1.1915e-08
-2.90206e-07
4.1007e-07
-6.01718e-07
-9.11784e-09
6.27219e-07
-7.65931e-09
-5.30405e-05
5.285e-05
-4.90687e-05
-3.70019e-07
4.89914e-05
5.30242e-10
-3.21874e-07
-8.25905e-08
-5.3473e-05
2.19655e-06
5.38684e-05
-2.55218e-06
-5.99893e-05
-1.62126e-06
5.94436e-05
2.08431e-06
-1.57377e-07
2.06157e-06
-2.36367e-06
-1.56518e-06
2.03156e-06
6.3743e-07
-4.4685e-05
4.58741e-05
-6.14575e-05
6.04736e-05
5.30536e-07
-5.16056e-08
-5.89695e-05
-1.64692e-06
5.85468e-05
2.12127e-06
-5.41941e-05
2.15557e-06
1.12867e-07
5.44691e-05
-2.59506e-06
1.18879e-08
-1.62665e-06
2.08658e-06
2.18104e-06
8.83743e-08
-2.58232e-06
-7.96382e-07
-5.9558e-05
5.87075e-05
-4.69414e-05
4.27377e-07
4.78732e-05
-7.16491e-07
3.99498e-07
1.59499e-08
-5.41882e-05
-2.83067e-07
5.42648e-05
3.03336e-07
-5.56063e-05
-1.68912e-07
-1.05823e-08
5.55336e-05
2.68108e-07
8.4856e-09
-3.34439e-07
3.53055e-07
-1.75501e-07
-1.31548e-08
2.83999e-07
2.62693e-08
-4.90426e-05
4.91607e-05
-5.2704e-05
-1.01534e-08
5.25715e-05
1.66328e-08
-1.17101e-08
-3.56122e-12
-5.66249e-05
-1.10679e-08
5.65235e-05
1.01812e-07
-5.66244e-05
-1.10908e-08
1.0543e-08
5.65231e-05
1.01869e-07
-2.03017e-12
1.85233e-08
8.04111e-08
1.85053e-08
1.3131e-08
8.04674e-08
-2.88464e-12
-5.42292e-05
5.4208e-05
-5.42292e-05
1.01395e-08
5.42079e-05
-1.70861e-12
1.168e-08
-1.59945e-08
-5.56051e-05
-1.69016e-07
5.55324e-05
2.68216e-07
-5.41868e-05
-2.83023e-07
-1.12928e-07
5.42635e-05
3.03224e-07
-8.54865e-09
-1.75603e-07
2.84121e-07
-3.34404e-07
-8.84316e-08
3.52989e-07
-2.63435e-08
-5.27028e-05
5.25702e-05
-4.90399e-05
-4.27582e-07
4.91582e-05
-1.66984e-08
-3.99685e-07
5.18298e-08
-5.41934e-05
2.15684e-06
5.44685e-05
-2.59674e-06
-5.89716e-05
-1.64812e-06
5.85486e-05
2.12291e-06
-1.17002e-08
2.18222e-06
-2.58392e-06
-1.62778e-06
2.08812e-06
7.97104e-07
-4.69395e-05
4.78716e-05
-5.9563e-05
5.8712e-05
7.17136e-07
-1.55493e-07
-5.81714e-05
-1.62119e-06
5.78269e-05
2.12123e-06
-5.46878e-05
2.00695e-06
1.3949e-07
5.48585e-05
-2.47262e-06
-1.06308e-07
-1.62399e-06
2.10567e-06
2.06621e-06
1.27595e-07
-2.51879e-06
-9.04742e-07
-5.79311e-05
5.72147e-05
-4.86531e-05
4.52533e-07
4.93028e-05
-8.47608e-07
4.38716e-07
2.93852e-08
-5.43448e-05
-2.43147e-07
5.44213e-05
2.76777e-07
-5.54725e-05
-1.73413e-07
-7.26545e-09
5.54167e-05
2.65883e-07
2.25613e-08
-2.52434e-07
2.77506e-07
-1.68409e-07
-8.79258e-09
2.60896e-07
4.40692e-08
-4.93118e-05
4.94771e-05
-5.24471e-05
-7.5062e-09
5.23253e-05
3.51169e-08
-8.93968e-09
-5.26359e-12
-5.64282e-05
-7.4745e-08
5.63349e-05
1.60706e-07
-5.64277e-05
-7.4771e-08
7.24322e-09
5.63345e-05
1.60744e-07
-4.30283e-12
-4.27754e-08
1.29358e-07
-4.28023e-08
8.77447e-09
1.29406e-07
-5.07802e-12
-5.41563e-05
5.4074e-05
-5.41562e-05
7.48408e-09
5.40739e-05
-4.04004e-12
8.92163e-09
-2.94478e-08
-5.54713e-05
-1.73487e-07
5.54155e-05
2.65966e-07
-5.43436e-05
-2.43084e-07
-1.3955e-07
5.44201e-05
2.76621e-07
-2.26142e-08
-1.68496e-07
2.6099e-07
-2.52378e-07
-1.27656e-07
2.77367e-07
-4.41582e-08
-5.24459e-05
5.2324e-05
-4.93095e-05
-4.52754e-07
4.9475e-05
-3.51978e-08
-4.3893e-07
1.55779e-07
-5.46873e-05
2.00833e-06
5.48581e-05
-2.47444e-06
-5.8173e-05
-1.62244e-06
5.78283e-05
2.12298e-06
1.06562e-07
2.06754e-06
-2.52054e-06
-1.62521e-06
2.10736e-06
9.05576e-07
-4.86519e-05
4.93019e-05
-5.79352e-05
5.72183e-05
8.48383e-07
-2.30255e-07
-5.75146e-05
-1.5647e-06
5.72222e-05
2.08731e-06
-5.4981e-05
1.85109e-06
1.48847e-07
5.50641e-05
-2.31325e-06
-1.94162e-07
-1.58009e-06
2.08656e-06
1.90863e-06
1.44289e-07
-2.36965e-06
-9.73089e-07
-5.6568e-05
5.59764e-05
-4.9826e-05
4.56962e-07
5.02471e-05
-9.33407e-07
4.51965e-07
4.15355e-08
-5.44868e-05
-2.41113e-07
5.45396e-05
2.95568e-07
-5.5363e-05
-1.74691e-07
-3.30512e-09
5.53072e-05
2.75284e-07
3.52678e-08
-2.36631e-07
2.80129e-07
-1.73079e-07
-5.32144e-09
2.67387e-07
5.87039e-08
-4.96412e-05
4.97983e-05
-5.22091e-05
-3.6709e-09
5.20968e-05
5.13056e-08
-5.62479e-09
-6.91432e-12
-5.62426e-05
-1.16963e-07
5.61464e-05
2.09813e-07
-5.62421e-05
-1.16983e-07
3.27555e-09
5.61459e-05
2.09839e-07
-6.05743e-12
-9.80162e-08
1.85088e-07
-9.8038e-08
5.29582e-09
1.85116e-07
-6.7776e-12
-5.39704e-05
5.38498e-05
-5.39703e-05
3.64166e-09
5.38497e-05
-5.88576e-12
5.5993e-09
-4.16177e-08
-5.53618e-05
-1.74741e-07
5.53061e-05
2.75348e-07
-5.44858e-05
-2.4107e-07
-1.48899e-07
5.45387e-05
2.95404e-07
-3.53393e-08
-1.73141e-07
2.67461e-07
-2.36571e-07
-1.44345e-07
2.79965e-07
-5.88061e-08
-5.22079e-05
5.20956e-05
-4.96392e-05
-4.57241e-07
4.97966e-05
-5.14008e-08
-4.52184e-07
2.30596e-07
-5.49807e-05
1.85252e-06
5.50639e-05
-2.31514e-06
-5.75158e-05
-1.56597e-06
5.72233e-05
2.0891e-06
1.94473e-07
1.91002e-06
-2.37149e-06
-1.58135e-06
2.08832e-06
9.73999e-07
-4.98254e-05
5.02467e-05
-5.65712e-05
5.59793e-05
9.34274e-07
-2.81559e-07
-5.69523e-05
-1.50015e-06
5.66947e-05
2.03926e-06
-5.51095e-05
1.71752e-06
1.48126e-07
5.51243e-05
-2.16193e-06
-2.55892e-07
-1.51913e-06
2.04494e-06
1.76555e-06
1.4793e-07
-2.21483e-06
-1.01327e-06
-5.54436e-05
5.49567e-05
-5.05727e-05
4.56995e-07
5.082e-05
-9.8635e-07
4.53577e-07
5.24596e-08
-5.45772e-05
-2.56632e-07
5.45993e-05
3.30195e-07
-5.52487e-05
-1.71343e-07
1.0908e-09
5.51853e-05
2.86131e-07
4.66552e-08
-2.44293e-07
3.08008e-07
-1.71558e-07
-1.11699e-09
2.77812e-07
6.96508e-08
-4.99436e-05
5.00743e-05
-5.19908e-05
6.02262e-10
5.18885e-05
6.40055e-08
-1.53696e-09
-8.9271e-12
-5.60474e-05
-1.40841e-07
5.59427e-05
2.466e-07
-5.60469e-05
-1.40857e-07
-1.12837e-09
5.59423e-05
2.46621e-07
-7.65197e-12
-1.29247e-07
2.27183e-07
-1.29265e-07
1.08393e-09
2.27206e-07
-1.00119e-11
-5.3719e-05
5.35788e-05
-5.37189e-05
-6.39523e-10
5.35787e-05
-7.51101e-12
1.50439e-09
-5.25632e-08
-5.52477e-05
-1.71365e-07
5.51843e-05
2.86175e-07
-5.45764e-05
-2.56612e-07
-1.48169e-07
5.45985e-05
3.30031e-07
-4.67468e-08
-1.71596e-07
2.77867e-07
-2.44258e-07
-1.47977e-07
3.07843e-07
-6.97532e-08
-5.19896e-05
5.18874e-05
-4.99421e-05
-4.57277e-07
5.0073e-05
-6.41092e-08
-4.53856e-07
2.81946e-07
-5.51094e-05
1.71894e-06
5.51241e-05
-2.16382e-06
-5.69532e-05
-1.5014e-06
5.66955e-05
2.04105e-06
2.56253e-07
1.76696e-06
-2.2167e-06
-1.52038e-06
2.04671e-06
1.01423e-06
-5.05725e-05
5.082e-05
-5.54462e-05
5.4959e-05
9.87278e-07
-3.14982e-07
-5.64523e-05
-1.44135e-06
5.62164e-05
1.99224e-06
-5.51107e-05
1.60639e-06
1.41852e-07
5.50729e-05
-2.02545e-06
-2.97119e-07
-1.45601e-06
1.99557e-06
1.64387e-06
1.43987e-07
-2.07143e-06
-1.03346e-06
-5.45158e-05
5.41079e-05
-5.09991e-05
4.50184e-07
5.11218e-05
-1.0151e-06
4.49677e-07
6.33945e-08
-5.46049e-05
-2.82802e-07
5.45943e-05
3.719e-07
-5.51166e-05
-1.67812e-07
5.44787e-09
5.50399e-05
3.02532e-07
5.71504e-08
-2.65565e-07
3.46765e-07
-1.67601e-07
3.26099e-09
2.90143e-07
7.60812e-08
-5.01854e-05
5.02767e-05
-5.17913e-05
4.67519e-09
5.16948e-05
7.30556e-08
2.70107e-09
-1.97176e-11
-5.5834e-05
-1.56098e-07
5.57186e-05
2.76947e-07
-5.58336e-05
-1.56129e-07
-5.51203e-09
5.57182e-05
2.7697e-07
-1.27423e-11
-1.47507e-07
2.59491e-07
-1.47524e-07
-3.30487e-09
2.59511e-07
-7.72611e-11
-5.3434e-05
5.32826e-05
-5.34339e-05
-4.96074e-09
5.32826e-05
-2.04386e-11
-2.75415e-09
-6.35203e-08
-5.51157e-05
-1.67867e-07
5.5039e-05
3.0259e-07
-5.46043e-05
-2.82753e-07
-1.419e-07
5.45937e-05
3.71729e-07
-5.72638e-08
-1.6761e-07
2.90188e-07
-2.6556e-07
-1.44026e-07
3.46602e-07
-7.6921e-08
-5.17901e-05
5.16942e-05
-5.01843e-05
-4.50685e-07
5.02753e-05
-7.31145e-08
-4.49963e-07
3.15393e-07
-5.51106e-05
1.60779e-06
5.50728e-05
-2.02731e-06
-5.64529e-05
-1.44257e-06
5.62169e-05
1.99399e-06
2.97518e-07
1.64526e-06
-2.07329e-06
-1.45723e-06
1.99732e-06
1.03438e-06
-5.09992e-05
5.11219e-05
-5.45178e-05
5.41096e-05
1.01605e-06
-3.36082e-07
-5.59894e-05
-1.39339e-06
5.5764e-05
1.95489e-06
-5.50134e-05
1.51322e-06
1.33036e-07
5.49345e-05
-1.90345e-06
-3.23661e-07
-1.40363e-06
1.95431e-06
1.54457e-06
1.3645e-07
-1.94517e-06
-1.04085e-06
-5.37327e-05
5.33802e-05
-5.11962e-05
4.39778e-07
5.12288e-05
-1.02845e-06
4.41753e-07
8.20143e-08
-5.45637e-05
-3.16898e-07
5.45138e-05
4.17781e-07
-5.49584e-05
-1.66468e-07
9.3817e-09
5.48689e-05
3.2867e-07
7.29601e-08
-2.95808e-07
3.89896e-07
-1.64961e-07
7.51337e-09
3.11826e-07
7.66508e-08
-5.03447e-05
5.03909e-05
-5.16007e-05
7.89746e-09
5.1503e-05
7.7934e-08
7.0905e-09
-5.40106e-11
-5.55982e-05
-1.69512e-07
5.54699e-05
3.0727e-07
-5.55978e-05
-1.69615e-07
-9.50637e-09
5.54696e-05
3.07309e-07
1.99701e-11
-1.61245e-07
2.89109e-07
-1.61208e-07
-7.52629e-09
2.8914e-07
-4.23153e-10
-5.31282e-05
5.2967e-05
-5.3128e-05
-9.24631e-09
5.29672e-05
2.57745e-10
-6.32148e-09
-8.19826e-08
-5.49576e-05
-1.66863e-07
5.48682e-05
3.28747e-07
-5.45631e-05
-3.16492e-07
-1.33123e-07
5.45131e-05
4.17613e-07
-7.34632e-08
-1.6461e-07
3.1187e-07
-2.96193e-07
-1.36432e-07
3.89738e-07
-8.02727e-08
-5.15991e-05
5.15033e-05
-5.03446e-05
-4.41198e-07
5.0389e-05
-7.5821e-08
-4.41306e-07
3.36471e-07
-5.50134e-05
1.51471e-06
5.49344e-05
-1.9053e-06
-5.59898e-05
-1.39451e-06
5.57642e-05
1.95657e-06
3.24119e-07
1.54582e-06
-1.94696e-06
-1.40486e-06
1.95604e-06
1.0415e-06
-5.11968e-05
5.12288e-05
-5.37344e-05
5.33814e-05
1.02965e-06
-3.48467e-07
-5.55427e-05
-1.35666e-06
5.53187e-05
1.92915e-06
-5.48376e-05
1.43224e-06
1.2724e-07
5.47219e-05
-1.79229e-06
-3.39705e-07
-1.3614e-06
1.92232e-06
1.45788e-06
1.28694e-07
-1.82934e-06
-1.03907e-06
-5.30489e-05
5.27314e-05
-5.12254e-05
4.27916e-07
5.11907e-05
-1.03015e-06
4.31089e-07
8.95996e-08
-5.44486e-05
-3.50252e-07
5.43672e-05
4.69334e-07
-5.47703e-05
-1.72885e-07
1.2503e-08
5.46597e-05
3.60563e-07
8.53218e-08
-3.29778e-07
4.38399e-07
-1.67486e-07
1.10187e-08
3.40339e-07
7.68566e-08
-5.04117e-05
5.04125e-05
-5.14051e-05
1.07407e-08
5.12983e-05
8.04849e-08
1.0905e-08
-6.25029e-11
-5.53356e-05
-1.83562e-07
5.51918e-05
3.39939e-07
-5.53352e-05
-1.83698e-07
-1.26866e-08
5.51916e-05
3.3997e-07
5.48149e-11
-1.74742e-07
3.2004e-07
-1.74641e-07
-1.09806e-08
3.20047e-07
-5.81975e-10
-5.28027e-05
5.26304e-05
-5.28024e-05
-1.25915e-08
5.26307e-05
5.23026e-10
-9.29584e-09
-8.94496e-08
-5.47695e-05
-1.73453e-07
5.46591e-05
3.60638e-07
-5.44482e-05
-3.49649e-07
-1.27347e-07
5.43665e-05
4.69195e-07
-8.57595e-08
-1.66863e-07
3.40324e-07
-3.30456e-07
-1.28689e-07
4.38329e-07
-8.18831e-08
-5.14031e-05
5.1299e-05
-5.04124e-05
-4.29769e-07
5.04106e-05
-7.60436e-08
-4.29876e-07
3.48859e-07
-5.48376e-05
1.43374e-06
5.47218e-05
-1.79409e-06
-5.5543e-05
-1.3577e-06
5.53188e-05
1.93077e-06
3.402e-07
1.45897e-06
-1.83107e-06
-1.36262e-06
1.924e-06
1.0396e-06
-5.12263e-05
5.11907e-05
-5.30504e-05
5.27322e-05
1.03157e-06
-3.55021e-07
-5.50949e-05
-1.33038e-06
5.48649e-05
1.91538e-06
-5.45906e-05
1.35766e-06
1.21618e-07
5.44428e-05
-1.68654e-06
-3.48908e-07
-1.33068e-06
1.90345e-06
1.38238e-06
1.23357e-07
-1.72326e-06
-1.0316e-06
-5.24264e-05
5.21276e-05
-5.11278e-05
4.15832e-07
5.10381e-05
-1.0257e-06
4.19503e-07
9.32429e-08
-5.42699e-05
-3.81775e-07
5.41558e-05
5.2425e-07
-5.4539e-05
-1.8695e-07
1.34474e-08
5.44052e-05
4.00497e-07
9.07328e-08
-3.61448e-07
4.91352e-07
-1.77922e-07
1.35811e-08
3.75859e-07
7.64746e-08
-5.03895e-05
5.03471e-05
-5.11878e-05
1.23951e-08
5.1065e-05
8.11007e-08
1.36861e-08
-4.05235e-10
-5.50405e-05
-1.9949e-07
5.48775e-05
3.76327e-07
-5.504e-05
-1.99625e-07
-1.46905e-08
5.48775e-05
3.76441e-07
1.85483e-10
-1.89558e-07
3.54237e-07
-1.8953e-07
-1.28989e-08
3.54172e-07
-6.764e-10
-5.2454e-05
5.22676e-05
-5.24537e-05
-1.4819e-08
5.22682e-05
5.17087e-10
-1.20235e-08
-9.33655e-08
-5.45385e-05
-1.87641e-07
5.44044e-05
4.00414e-07
-5.42696e-05
-3.81154e-07
-1.21821e-07
5.41551e-05
5.24091e-07
-9.10062e-08
-1.77211e-07
3.75917e-07
-3.62109e-07
-1.233e-07
4.91319e-07
-8.21835e-08
-5.1186e-05
5.10657e-05
-5.03905e-05
-4.17851e-07
5.0345e-05
-7.62727e-08
-4.18227e-07
3.55384e-07
-5.45906e-05
1.35912e-06
5.44426e-05
-1.68831e-06
-5.5095e-05
-1.33139e-06
5.48649e-05
1.91694e-06
3.49417e-07
1.38344e-06
-1.72496e-06
-1.33185e-06
1.90507e-06
1.03207e-06
-5.11288e-05
5.1038e-05
-5.24275e-05
5.21282e-05
1.02712e-06
-3.57576e-07
-5.46319e-05
-1.31247e-06
5.43897e-05
1.91228e-06
-5.42804e-05
1.28874e-06
1.1616e-07
5.41016e-05
-1.58364e-06
-3.53073e-07
-1.30843e-06
1.89448e-06
1.31104e-06
1.17828e-07
-1.61953e-06
-1.02001e-06
-5.18347e-05
5.15422e-05
-5.09259e-05
4.03731e-07
5.07909e-05
-1.01552e-06
4.077e-07
9.49792e-08
-5.4026e-05
-4.12876e-07
5.38786e-05
5.81411e-07
-5.42597e-05
-2.06982e-07
1.47721e-08
5.40993e-05
4.47537e-07
9.32879e-08
-3.92426e-07
5.46778e-07
-1.95083e-07
1.50458e-08
4.18877e-07
7.52601e-08
-5.02808e-05
5.01964e-05
-5.09359e-05
1.2739e-08
5.07914e-05
8.15339e-08
1.55128e-08
-2.51375e-10
-5.47061e-05
-2.17749e-07
5.45211e-05
4.17719e-07
-5.47056e-05
-2.1803e-07
-1.539e-08
5.4521e-05
4.17773e-07
3.46788e-10
-2.06421e-07
3.92569e-07
-2.06275e-07
-1.39617e-08
3.92453e-07
-1.00672e-09
-5.20758e-05
5.18718e-05
-5.20752e-05
-1.6453e-08
5.18727e-05
8.92014e-10
-1.2423e-08
-9.49069e-08
-5.42593e-05
-2.0758e-07
5.40988e-05
4.47548e-07
-5.40258e-05
-4.12105e-07
-1.16328e-07
5.3878e-05
5.81276e-07
-9.35145e-08
-1.94309e-07
4.19002e-07
-3.93285e-07
-1.17706e-07
5.46794e-07
-8.22194e-08
-5.09342e-05
5.07924e-05
-5.02824e-05
-4.06101e-07
5.01942e-05
-7.51825e-08
-4.05912e-07
3.5794e-07
-5.42804e-05
1.29021e-06
5.41013e-05
-1.58538e-06
-5.4632e-05
-1.31343e-06
5.43896e-05
1.91379e-06
3.53613e-07
1.31199e-06
-1.62116e-06
-1.30958e-06
1.89607e-06
1.02037e-06
-5.0927e-05
5.07908e-05
-5.18357e-05
5.15426e-05
1.01707e-06
-3.57558e-07
-5.41418e-05
-1.30218e-06
5.38819e-05
1.91962e-06
-5.39085e-05
1.22339e-06
1.11102e-07
5.36984e-05
-1.48195e-06
-3.54139e-07
-1.29427e-06
1.89628e-06
1.24455e-06
1.12542e-07
-1.51819e-06
-1.00613e-06
-5.12505e-05
5.09545e-05
-5.06368e-05
3.92321e-07
5.04617e-05
-1.00254e-06
3.96133e-07
9.52785e-08
-5.37155e-05
-4.43755e-07
5.35339e-05
6.41119e-07
-5.39262e-05
-2.31596e-07
1.57051e-08
5.37363e-05
5.01118e-07
9.40399e-08
-4.22815e-07
6.04452e-07
-2.17128e-07
1.5421e-08
4.68811e-07
7.40188e-08
-5.00887e-05
4.99633e-05
-5.06385e-05
1.32857e-08
5.04676e-05
8.10021e-08
1.68629e-08
-1.40509e-10
-5.43263e-05
-2.3912e-07
5.41163e-05
4.64957e-07
-5.4326e-05
-2.39469e-07
-1.58644e-08
5.41162e-05
4.64976e-07
1.14929e-10
-2.26072e-07
4.36181e-07
-2.25772e-07
-1.52065e-08
4.36116e-07
-1.12072e-09
-5.16616e-05
5.14369e-05
-5.16609e-05
-1.75887e-08
5.14379e-05
1.04237e-09
-1.29166e-08
-9.51201e-08
-5.39258e-05
-2.32098e-07
5.37359e-05
5.01174e-07
-5.37153e-05
-4.42961e-07
-1.11249e-07
5.35334e-05
6.41002e-07
-9.44687e-08
-2.16519e-07
4.68834e-07
-4.23756e-07
-1.12469e-07
6.0446e-07
-8.1351e-08
-5.06369e-05
5.04686e-05
-5.00907e-05
-3.94755e-07
4.99611e-05
-7.39894e-08
-3.94184e-07
3.57921e-07
-5.39085e-05
1.22484e-06
5.36982e-05
-1.48365e-06
-5.41418e-05
-1.3031e-06
5.38817e-05
1.92109e-06
3.54662e-07
1.24546e-06
-1.51979e-06
-1.29539e-06
1.89781e-06
1.00647e-06
-5.06379e-05
5.04615e-05
-5.12513e-05
5.09547e-05
1.0041e-06
-3.55389e-07
-5.36143e-05
-1.29682e-06
5.33322e-05
1.93426e-06
-5.34741e-05
1.15862e-06
1.06409e-07
5.32321e-05
-1.37837e-06
-3.52975e-07
-1.2866e-06
1.90724e-06
1.18016e-06
1.07702e-07
-1.41656e-06
-9.89688e-07
-5.06553e-05
5.03482e-05
-5.02694e-05
3.81139e-07
5.00572e-05
-9.87438e-07
3.84991e-07
9.44813e-08
-5.33365e-05
-4.74809e-07
5.31198e-05
7.03486e-07
-5.35329e-05
-2.59686e-07
1.61845e-08
5.3311e-05
5.59834e-07
9.37152e-08
-4.53378e-07
6.64762e-07
-2.43241e-07
1.58864e-08
5.2448e-07
7.24681e-08
-4.9815e-05
4.96488e-05
-5.02865e-05
1.36971e-08
5.00855e-05
7.98966e-08
1.77906e-08
-1.25869e-10
-5.3895e-05
-2.63703e-07
5.36568e-05
5.18263e-07
-5.38948e-05
-2.64079e-07
-1.626e-08
5.36567e-05
5.18274e-07
8.35503e-11
-2.48861e-07
4.85926e-07
-2.48504e-07
-1.586e-08
4.85869e-07
-1.18427e-09
-5.12047e-05
5.09558e-05
-5.12039e-05
-1.83513e-08
5.0957e-05
1.11585e-09
-1.34089e-08
-9.43123e-08
-5.35325e-05
-2.60154e-07
5.33108e-05
5.59897e-07
-5.33365e-05
-4.74014e-07
-1.06551e-07
5.31193e-05
7.03384e-07
-9.41616e-08
-2.42698e-07
5.24492e-07
-4.54338e-07
-1.07631e-07
6.64784e-07
-8.00578e-08
-5.02851e-05
5.00867e-05
-4.98171e-05
-3.83604e-07
4.96467e-05
-7.26072e-08
-3.82991e-07
3.55747e-07
-5.34742e-05
1.16004e-06
5.32319e-05
-1.38004e-06
-5.36142e-05
-1.29772e-06
5.3332e-05
1.93568e-06
3.53492e-07
1.18104e-06
-1.41814e-06
-1.28769e-06
1.90872e-06
9.90005e-07
-5.02706e-05
5.0057e-05
-5.0656e-05
5.03483e-05
9.88987e-07
-3.52075e-07
-5.30404e-05
-1.29732e-06
5.27319e-05
1.95789e-06
-5.29755e-05
1.09555e-06
1.02231e-07
5.27001e-05
-1.27444e-06
-3.50277e-07
-1.28449e-06
1.92661e-06
1.11719e-06
1.03335e-07
-1.31423e-06
-9.72483e-07
-5.00346e-05
4.97098e-05
-4.98291e-05
3.70653e-07
4.95815e-05
-9.70924e-07
3.7439e-07
9.30592e-08
-5.28867e-05
-5.06945e-07
5.26332e-05
7.69626e-07
-5.30747e-05
-2.91091e-07
1.64239e-08
5.28184e-05
6.24078e-07
9.26e-08
-4.84767e-07
7.2857e-07
-2.72772e-07
1.61917e-08
5.85473e-07
7.07415e-08
-4.94599e-05
4.92529e-05
-4.98729e-05
1.39376e-08
4.96386e-05
7.85495e-08
1.84025e-08
-1.23145e-10
-5.34058e-05
-2.91831e-07
5.3136e-05
5.78228e-07
-5.34056e-05
-2.92221e-07
-1.64774e-08
5.31359e-05
5.78238e-07
7.72886e-11
-2.75044e-07
5.42112e-07
-2.74661e-07
-1.62092e-08
5.42056e-07
-1.2226e-09
-5.0698e-05
5.04214e-05
-5.06972e-05
-1.8832e-08
5.04226e-05
1.15997e-09
-1.37373e-08
-9.28861e-08
-5.30744e-05
-2.91553e-07
5.28182e-05
6.24145e-07
-5.28867e-05
-5.06143e-07
-1.02371e-07
5.26328e-05
7.69532e-07
-9.30436e-08
-2.72255e-07
5.85485e-07
-4.85743e-07
-1.0326e-07
7.28602e-07
-7.86213e-08
-4.98717e-05
4.96399e-05
-4.94623e-05
-3.73158e-07
4.92507e-05
-7.09903e-08
-3.72341e-07
3.52425e-07
-5.29755e-05
1.09693e-06
5.26999e-05
-1.27606e-06
-5.30402e-05
-1.29819e-06
5.27316e-05
1.95928e-06
3.50786e-07
1.11805e-06
-1.31577e-06
-1.28555e-06
1.92806e-06
9.72776e-07
-4.98303e-05
4.95813e-05
-5.00352e-05
4.97098e-05
9.72456e-07
-3.47865e-07
-5.24119e-05
-1.30264e-06
5.20731e-05
1.98929e-06
-5.24097e-05
1.0322e-06
9.85002e-08
5.20991e-05
-1.16797e-06
-3.46517e-07
-1.2874e-06
1.95393e-06
1.05474e-06
9.94278e-08
-1.21024e-06
-9.5452e-07
-4.93758e-05
4.90277e-05
-4.93184e-05
3.6067e-07
4.90354e-05
-9.5348e-07
3.64322e-07
9.1207e-08
-5.23629e-05
-5.40176e-07
5.2071e-05
8.39362e-07
-5.25467e-05
-3.25433e-07
1.64778e-08
5.22533e-05
6.93562e-07
9.09562e-08
-5.17111e-07
7.95843e-07
-3.05371e-07
1.63216e-08
6.51715e-07
6.88683e-08
-4.9023e-05
4.87746e-05
-4.93916e-05
1.40051e-08
4.9121e-05
7.70868e-08
1.87574e-08
-1.2339e-10
-5.28522e-05
-3.23313e-07
5.25476e-05
6.44524e-07
-5.28519e-05
-3.23711e-07
-1.65301e-08
5.25475e-05
6.44534e-07
7.59552e-11
-3.04597e-07
6.04658e-07
-3.04201e-07
-1.63488e-08
6.04602e-07
-1.24686e-09
-5.01343e-05
4.98263e-05
-5.01335e-05
-1.90787e-08
4.98276e-05
1.18771e-09
-1.38893e-08
-9.10282e-08
-5.25464e-05
-3.25912e-07
5.22531e-05
6.93632e-07
-5.23629e-05
-5.39356e-07
-9.86398e-08
5.20706e-05
8.39272e-07
-9.13962e-08
-3.04855e-07
6.51729e-07
-5.18103e-07
-9.93475e-08
7.9588e-07
-7.71102e-08
-4.93903e-05
4.91225e-05
-4.90256e-05
-3.63233e-07
4.87724e-05
-6.92008e-08
-3.6221e-07
3.48207e-07
-5.24097e-05
1.03356e-06
5.20988e-05
-1.16955e-06
-5.24117e-05
-1.30348e-06
5.20727e-05
1.99064e-06
3.47018e-07
1.05557e-06
-1.21174e-06
-1.28843e-06
1.95534e-06
9.54786e-07
-4.93196e-05
4.90352e-05
-4.93764e-05
4.90277e-05
9.54997e-07
-3.43029e-07
-5.17213e-05
-1.31227e-06
5.13486e-05
2.02791e-06
-5.17729e-05
9.67381e-07
9.51739e-08
5.14253e-05
-1.05795e-06
-3.42018e-07
-1.29484e-06
1.98867e-06
9.91416e-07
9.5945e-08
-1.10319e-06
-9.36072e-07
-4.86683e-05
4.82921e-05
-4.87367e-05
3.51142e-07
4.84168e-05
-9.35433e-07
3.54751e-07
8.90838e-08
-5.17619e-05
-5.74697e-07
5.14299e-05
9.12842e-07
-5.19437e-05
-3.62449e-07
1.63882e-08
5.16107e-05
7.6811e-07
8.89702e-08
-5.50645e-07
8.66753e-07
-3.40773e-07
1.63043e-08
7.23065e-07
6.6899e-08
-4.85032e-05
4.82127e-05
-4.88369e-05
1.39198e-08
4.85275e-05
7.55858e-08
1.89061e-08
-1.24431e-10
-5.22278e-05
-3.57995e-07
5.18854e-05
7.16927e-07
-5.22276e-05
-3.58398e-07
-1.64485e-08
5.18854e-05
7.16938e-07
7.68656e-11
-3.37398e-07
6.73375e-07
-3.36997e-07
-1.63262e-08
6.73319e-07
-1.26361e-09
-4.95066e-05
4.91638e-05
-4.95057e-05
-1.9139e-08
4.91651e-05
1.20749e-09
-1.38774e-08
-8.88959e-08
-5.19434e-05
-3.62963e-07
5.16106e-05
7.68185e-07
-5.1762e-05
-5.73849e-07
-9.53143e-08
5.14295e-05
9.12753e-07
-8.94093e-08
-3.40238e-07
7.2308e-07
-5.5166e-07
-9.586e-08
8.66793e-07
-7.5583e-08
-4.88356e-05
4.85291e-05
-4.8506e-05
-3.53782e-07
4.82103e-05
-6.72908e-08
-3.52556e-07
3.43362e-07
-5.17729e-05
9.68727e-07
5.1425e-05
-1.0595e-06
-5.17211e-05
-1.31309e-06
5.13483e-05
2.02922e-06
3.42511e-07
9.92211e-07
-1.10466e-06
-1.29584e-06
1.99003e-06
9.36304e-07
-4.87379e-05
4.84165e-05
-4.86688e-05
4.8292e-05
9.3694e-07
-3.37654e-07
-5.09616e-05
-1.3254e-06
5.05516e-05
2.07313e-06
-5.10611e-05
8.99596e-07
9.21626e-08
5.0673e-05
-9.41279e-07
-3.36857e-07
-1.30577e-06
2.02964e-06
9.25523e-07
9.27955e-08
-9.91043e-07
-9.17118e-07
-4.7903e-05
4.74947e-05
-4.80802e-05
3.41966e-07
4.77208e-05
-9.16641e-07
3.45481e-07
8.67785e-08
-5.108e-05
-6.10457e-07
5.07056e-05
9.90257e-07
-5.12608e-05
-4.01797e-07
1.61869e-08
5.08859e-05
8.47334e-07
8.67393e-08
-5.85284e-07
9.41195e-07
-3.7855e-07
1.61628e-08
7.99032e-07
6.49335e-08
-4.78989e-05
4.75654e-05
-4.82041e-05
1.37335e-08
4.78535e-05
7.40352e-08
1.88801e-08
-1.24476e-10
-5.15269e-05
-3.95594e-07
5.11439e-05
7.94937e-07
-5.15267e-05
-3.95995e-07
-1.62552e-08
5.11439e-05
7.94949e-07
7.89129e-11
-3.73124e-07
7.47703e-07
-3.72722e-07
-1.61719e-08
7.47649e-07
-1.26606e-09
-4.88083e-05
4.84277e-05
-4.88074e-05
-1.90287e-08
4.84291e-05
1.22132e-09
-1.37223e-08
-8.65817e-08
-5.12605e-05
-4.02345e-07
5.08858e-05
8.47414e-07
-5.10801e-05
-6.09588e-07
-9.23018e-08
5.07052e-05
9.90164e-07
-8.71787e-08
-3.77987e-07
7.99049e-07
-5.86322e-07
-9.27057e-08
9.41234e-07
-7.39555e-08
-4.82027e-05
4.78553e-05
-4.79019e-05
-3.44657e-07
4.7563e-05
-6.52867e-08
-3.43192e-07
3.37978e-07
-5.10611e-05
9.0093e-07
5.06727e-05
-9.42815e-07
-5.09614e-05
-1.3262e-06
5.05512e-05
2.0744e-06
3.37343e-07
9.26298e-07
-9.92497e-07
-1.30674e-06
2.03097e-06
9.17322e-07
-4.80815e-05
4.77205e-05
-4.79034e-05
4.74945e-05
9.1814e-07
-3.31982e-07
-5.01257e-05
-1.3421e-06
4.96752e-05
2.12461e-06
-5.0267e-05
8.29363e-07
8.94655e-08
4.98357e-05
-8.19545e-07
-3.31444e-07
-1.32082e-06
2.07808e-06
8.57369e-07
8.99839e-08
-8.72816e-07
-8.98034e-07
-4.70719e-05
4.66278e-05
-4.73434e-05
3.33258e-07
4.69415e-05
-8.9802e-07
3.36667e-07
8.43653e-08
-5.03127e-05
-6.47766e-07
4.9894e-05
1.07154e-06
-5.04932e-05
-4.43462e-07
1.59087e-08
5.0074e-05
9.31089e-07
8.44316e-08
-6.21579e-07
1.02003e-06
-4.18751e-07
1.59274e-08
8.79946e-07
6.31158e-08
-4.72083e-05
4.68307e-05
-4.74883e-05
1.35424e-08
4.70944e-05
7.21822e-08
1.86498e-08
-1.17527e-10
-5.07437e-05
-4.3598e-07
5.03174e-05
8.78307e-07
-5.07436e-05
-4.36366e-07
-1.59716e-08
5.03175e-05
8.78318e-07
7.45064e-11
-4.11847e-07
8.27828e-07
-4.11458e-07
-1.59353e-08
8.27775e-07
-1.21134e-09
-4.80333e-05
4.76121e-05
-4.80324e-05
-1.87085e-08
4.76135e-05
1.18401e-09
-1.35486e-08
-8.41854e-08
-5.04929e-05
-4.43986e-07
5.0074e-05
9.3117e-07
-5.03128e-05
-6.46937e-07
-8.95974e-08
4.98937e-05
1.07146e-06
-8.48501e-08
-4.18207e-07
8.79967e-07
-6.22587e-07
-8.98948e-08
1.02007e-06
-7.1959e-08
-4.7487e-05
4.70962e-05
-4.72114e-05
-3.35843e-07
4.68284e-05
-6.34241e-08
-3.3442e-07
3.323e-07
-5.0267e-05
8.30665e-07
4.98355e-05
-8.21045e-07
-5.01255e-05
-1.34288e-06
4.96748e-05
2.12585e-06
3.31917e-07
8.58139e-07
-8.74243e-07
-1.32176e-06
2.07936e-06
8.98255e-07
-4.73447e-05
4.69413e-05
-4.70722e-05
4.66276e-05
8.99473e-07
-3.26121e-07
-4.92082e-05
-1.36218e-06
4.87151e-05
2.18146e-06
-4.93865e-05
7.55987e-07
8.70749e-08
4.89112e-05
-6.93864e-07
-3.25718e-07
-1.33894e-06
2.13168e-06
7.86163e-07
8.74619e-08
-7.50126e-07
-8.78885e-07
-4.6168e-05
4.56847e-05
-4.65205e-05
3.249e-07
4.60727e-05
-8.79083e-07
3.281e-07
8.18765e-08
-4.94566e-05
-6.86872e-07
4.89924e-05
1.1563e-06
-4.96365e-05
-4.87205e-07
1.55649e-08
4.91712e-05
1.01887e-06
8.20203e-08
-6.59447e-07
1.10226e-06
-4.61031e-07
1.56126e-08
9.64888e-07
6.13175e-08
-4.64292e-05
4.60059e-05
-4.66852e-05
1.32688e-08
4.62461e-05
7.01672e-08
1.82745e-08