/*--------------------------------*- C++ -*----------------------------------*\
  =========                 |
  \\      /  F ield         | OpenFOAM: The Open Source CFD Toolbox
   \\    /   O peration     | Website:  https://openfoam.org
    \\  /    A nd           | Version:  9
     \\/     M anipulation  |
\*---------------------------------------------------------------------------*/
FoamFile
{
    format      ascii;
    class       volScalarField;
    location    "0.65";
    object      k;
}
// * * * * * * * * * * * * * * * * * * * * * * * * * * * * * * * * * * * * * //

dimensions      [0 2 -2 0 0 0 0];

internalField   nonuniform List<scalar> 
36360
(
0.0317863
0.0245954
0.0133845
0.0119707
0.00670732
0.00423706
0.00414801
0.00344531
0.00497345
0.00220972
0.00357205
0.00283758
0.0024595
0.00226649
0.00303318
0.00300432
0.00204014
0.00204011
0.00281748
0.00281748
0.0022533
0.00225329
0.00300222
0.00300222
0.00220938
0.00497137
0.0028376
0.00357173
0.00226646
0.00245927
0.00300432
0.0030332
0.0245919
0.0317913
0.0119709
0.0133844
0.00423648
0.00670811
0.00344528
0.00414803
0.0471624
0.0355507
0.0423919
0.0320777
0.0102629
0.00610085
0.0091367
0.00547515
0.0082381
0.00213982
0.0071248
0.00211654
0.00235285
0.00187061
0.00234558
0.00196458
0.00166165
0.00166148
0.00174973
0.00174962
0.00184011
0.00184009
0.00194006
0.00194005
0.0021377
0.00822781
0.00211513
0.00711783
0.00187044
0.0023515
0.00196447
0.00234469
0.0355422
0.0471761
0.0320711
0.042402
0.00609806
0.0102665
0.00547322
0.00913922
0.0494526
0.0372772
0.0489471
0.0368861
0.0106966
0.00644184
0.0106127
0.00635047
0.00880007
0.00216939
0.0086754
0.00216191
0.00237418
0.0018426
0.00236703
0.00184701
0.00163486
0.00163466
0.00163925
0.00163905
0.00180941
0.00180939
0.00181425
0.00181424
0.00216671
0.00878757
0.00215937
0.00866357
0.00184239
0.00237252
0.00184682
0.00236546
0.0372673
0.0494691
0.0368767
0.0489628
0.00643846
0.0107011
0.0063473
0.010617
0.0495604
0.0373885
0.0495698
0.0373865
0.0107094
0.00647667
0.010715
0.00647425
0.00883256
0.00217124
0.0088342
0.00217147
0.00237641
0.00184126
0.00237665
0.00184164
0.00163409
0.00163389
0.0016339
0.00163369
0.00180804
0.00180802
0.00180835
0.00180833
0.00216853
0.00881994
0.00216876
0.00882157
0.00184106
0.00237473
0.00184144
0.00237497
0.0373786
0.0495774
0.0373766
0.0495867
0.00647332
0.010714
0.00647088
0.0107196
0.0495171
0.0373743
0.0495491
0.0373905
0.0106942
0.00647323
0.0107053
0.00647844
0.00882763
0.00217026
0.00883342
0.00217119
0.00237501
0.00184074
0.0023761
0.0018407
0.00163407
0.00163386
0.00163392
0.00163371
0.00180769
0.00180768
0.00180751
0.00180749
0.00216757
0.00881507
0.00216848
0.00882083
0.00184053
0.00237334
0.0018405
0.00237443
0.0373645
0.0495343
0.0373807
0.0495661
0.00646992
0.0106989
0.00647512
0.0107099
0.0494543
0.0373387
0.0494962
0.0373646
0.0106748
0.0064601
0.0106881
0.00646936
0.00881523
0.00216853
0.00882481
0.00216952
0.00237252
0.00183974
0.00237417
0.00184036
0.00163398
0.00163378
0.00163382
0.00163362
0.00180685
0.00180683
0.00180737
0.00180736
0.00216584
0.00880272
0.00216682
0.00881228
0.00183953
0.00237086
0.00184015
0.00237251
0.0373289
0.0494714
0.0373549
0.0495134
0.00645681
0.0106794
0.00646606
0.0106928
0.0493772
0.037293
0.049427
0.0373241
0.0106527
0.0064439
0.0106676
0.00645476
0.00879876
0.00216657
0.00881043
0.00216803
0.00236954
0.00183859
0.00237142
0.00183907
0.00163387
0.00163367
0.00163376
0.00163356
0.00180586
0.00180584
0.00180618
0.00180617
0.0021639
0.00878629
0.00216535
0.00879793
0.00183839
0.00236789
0.00183887
0.00236976
0.0372833
0.0493944
0.0373144
0.0494441
0.00644064
0.0106574
0.00645148
0.0106723
0.0492884
0.0372413
0.0493445
0.0372759
0.0106286
0.00642602
0.0106447
0.00643787
0.00878022
0.00216431
0.00879305
0.00216554
0.00236621
0.00183737
0.00236826
0.00183789
0.00163375
0.00163355
0.0016336
0.0016334
0.00180482
0.00180481
0.00180525
0.00180524
0.00216165
0.0087678
0.00216288
0.0087806
0.00183717
0.00236457
0.00183769
0.00236662
0.0372317
0.0493056
0.0372662
0.0493616
0.00642278
0.0106333
0.00643462
0.0106494
0.0491881
0.037184
0.0492503
0.0372216
0.0106025
0.00640666
0.0106198
0.00641938
0.00875999
0.00216207
0.00877379
0.00216369
0.00236256
0.00183598
0.00236478
0.00183662
0.00163362
0.00163342
0.00163353
0.00163333
0.00180358
0.00180356
0.00180409
0.00180407
0.00215941
0.00874758
0.00216103
0.00876137
0.00183578
0.00236092
0.00183642
0.00236314
0.0371743
0.0492052
0.037212
0.0492674
0.00640341
0.0106072
0.00641615
0.0106245
0.0490763
0.0371214
0.0491448
0.037162
0.0105744
0.00638632
0.0105929
0.00639957
0.00873827
0.00215955
0.00875293
0.00216092
0.00235859
0.00183436
0.00236098
0.00183508
0.00163348
0.00163328
0.00163335
0.00163315
0.00180213
0.00180211
0.00180274
0.00180272
0.0021569
0.00872584
0.00215827
0.00874051
0.00183416
0.00235696
0.00183488
0.00235934
0.0371117
0.0490932
0.0371523
0.0491618
0.00638306
0.0105791
0.00639632
0.0105976
0.0489517
0.0370533
0.0490272
0.037097
0.010544
0.00636471
0.0105639
0.00637872
0.00871495
0.00215707
0.00873056
0.00215882
0.00235428
0.00183251
0.00235685
0.00183338
0.00163334
0.00163314
0.00163326
0.00163306
0.00180043
0.00180042
0.00180117
0.00180115
0.00215442
0.0087025
0.00215617
0.00871812
0.00183231
0.00235264
0.00183318
0.00235522
0.0370434
0.0489684
0.0370872
0.0490441
0.00636141
0.0105486
0.00637544
0.0105685
0.0488136
0.0369792
0.0488966
0.0370263
0.010511
0.0063416
0.0105325
0.00635642
0.00868988
0.0021543
0.00870653
0.00215579
0.00234957
0.00183039
0.00235235
0.00183135
0.00163319
0.00163299
0.00163306
0.00163286
0.00179847
0.00179845
0.00179933
0.00179932
0.00215166
0.00867744
0.00215314
0.00869408
0.00183019
0.00234794
0.00183115
0.00235071
0.0369692
0.0488302
0.0370164
0.0489133
0.00633829
0.0105154
0.00635312
0.010537
0.0486605
0.0368985
0.0487514
0.0369491
0.0104749
0.00631695
0.0104982
0.00633254
0.00866281
0.00215171
0.00868065
0.00215341
0.00234443
0.00182799
0.00234743
0.00182911
0.00163306
0.00163287
0.00163295
0.00163275
0.00179621
0.0017962
0.00179722
0.00179721
0.00214909
0.0086504
0.00215077
0.00866823
0.00182779
0.00234281
0.00182891
0.0023458
0.0368885
0.048677
0.0369392
0.048768
0.00631365
0.0104793
0.00632923
0.0105026
0.0484912
0.0368113
0.0485905
0.0368654
0.0104357
0.00629121
0.0104606
0.0063073
0.0086335
0.00214866
0.00865267
0.00215052
0.00233885
0.00182524
0.00234207
0.00182653
0.00163289
0.0016327
0.0016328
0.00163261
0.00179363
0.00179362
0.00179481
0.00179479
0.00214605
0.00862115
0.0021479
0.00864029
0.00182504
0.00233723
0.00182633
0.00234045
0.0368014
0.0485077
0.0368555
0.0486069
0.00628793
0.0104401
0.00630401
0.0104651
0.0483041
0.0367156
0.0484125
0.0367747
0.0103932
0.00626479
0.0104198
0.00628112
0.00860161
0.00214536
0.00862229
0.00214736
0.00233279
0.00182212
0.00233626
0.0018236
0.00163269
0.0016325
0.00163262
0.00163242
0.00179069
0.00179068
0.00179204
0.00179203
0.00214277
0.00858931
0.00214476
0.00860996
0.00182193
0.00233119
0.0018234
0.00233465
0.0367057
0.0483205
0.0367647
0.0484289
0.00626153
0.0103976
0.00627785
0.0104243
0.0480985
0.0366089
0.048216
0.036674
0.0103472
0.00623853
0.0103756
0.00625466
0.00856705
0.00214182
0.00858923
0.00214395
0.00232623
0.00181861
0.00232996
0.00182029
0.00163247
0.00163227
0.0016324
0.00163221
0.00178737
0.00178735
0.00178891
0.0017889
0.00213925
0.00855482
0.00214137
0.00857696
0.00181842
0.00232463
0.00182009
0.00232836
0.0365989
0.0481147
0.036664
0.0482323
0.00623528
0.0103515
0.00625141
0.01038
0.0478742
0.0364908
0.0480009
0.0365615
0.0102975
0.00621221
0.0103278
0.00622859
0.00853003
0.00213807
0.00855358
0.00214032
0.00231906
0.00181467
0.00232311
0.00181656
0.00163222
0.00163203
0.00163217
0.00163198
0.00178362
0.00178361
0.00178538
0.00178536
0.00213552
0.00851787
0.00213776
0.00854138
0.00181448
0.00231748
0.00181637
0.00232153
0.0364809
0.0478903
0.0365516
0.0480171
0.00620898
0.0103018
0.00622536
0.0103322
0.0476304
0.0363638
0.0477668
0.0364391
0.010244
0.00618403
0.0102762
0.00620146
0.00849058
0.00213409
0.00851549
0.00213647
0.00231124
0.00181026
0.00231563
0.00181239
0.00163194
0.00163175
0.00163191
0.00163172
0.00177943
0.00177941
0.00178141
0.00178139
0.00213156
0.0084785
0.00213392
0.00850336
0.00181007
0.00230967
0.00181219
0.00231406
0.0363539
0.0476465
0.0364291
0.0477829
0.00618082
0.0102483
0.00619824
0.0102805
0.0473666
0.0362274
0.0475128
0.0363073
0.0101865
0.00615377
0.0102207
0.00617228
0.00844858
0.00212988
0.00847487
0.00213239
0.00230273
0.00180537
0.00230748
0.00180773
0.00163164
0.00163146
0.00163162
0.00163144
0.00177475
0.00177474
0.00177697
0.00177696
0.00212738
0.00843658
0.00212987
0.00846282
0.00180518
0.00230117
0.00180754
0.00230591
0.0362174
0.0473825
0.0362974
0.0475288
0.00615058
0.0101907
0.00616908
0.010225
0.0470823
0.0360814
0.0472386
0.036166
0.0101249
0.00612141
0.0101611
0.00614099
0.00840402
0.00212544
0.00843165
0.00212807
0.00229349
0.00179994
0.00229861
0.00180257
0.00163132
0.00163113
0.00163131
0.00163112
0.00176956
0.00176955
0.00177204
0.00177202
0.00212296
0.00839211
0.00212558
0.00841969
0.00179975
0.00229195
0.00180238
0.00229706
0.0360715
0.0470981
0.0361561
0.0472544
0.00611824
0.0101291
0.0061378
0.0101654
0.0467777
0.0359258
0.0469438
0.036015
0.0100593
0.00608691
0.0100975
0.00610755
0.00835693
0.00212078
0.00838583
0.00212353
0.0022835
0.00179397
0.002289
0.00179687
0.00163095
0.00163077
0.00163097
0.00163078
0.00176384
0.00176382
0.00176658
0.00176656
0.00211832
0.00834511
0.00212105
0.00837396
0.00179378
0.00228198
0.00179669
0.00228747
0.0359159
0.0467934
0.0360051
0.0469596
0.00608377
0.0100635
0.00610439
0.0101017
0.0464531
0.0357608
0.0466288
0.0358545
0.00998974
0.00605029
0.0100299
0.00607197
0.00830736
0.00211588
0.00833746
0.00211874
0.00227275
0.00178742
0.00227863
0.00179061
0.00163056
0.00163037
0.00163059
0.0016304
0.00175754
0.00175753
0.00176057
0.00176055
0.00211345
0.00829564
0.0021163
0.00832569
0.00178723
0.00227124
0.00179043
0.00227711
0.0357509
0.0464686
0.0358446
0.0466444
0.00604717
0.00999385
0.00606884
0.010034
0.0461093
0.0355868
0.0462942
0.0356847
0.0099164
0.0060116
0.00995834
0.00603428
0.00825544
0.00211077
0.00828664
0.00211373
0.00226122
0.00178028
0.00226748
0.00178376
0.00163012
0.00162994
0.00163017
0.00162999
0.00175067
0.00175066
0.00175398
0.00175397
0.00210837
0.00824383
0.00211131
0.00827497
0.00178009
0.00225973
0.00178358
0.00226598
0.035577
0.0461246
0.0356749
0.0463096
0.0060085
0.00992046
0.00603117
0.00996243
0.0457475
0.0354045
0.0459409
0.0355062
0.00983954
0.00597092
0.00988315
0.00599455
0.00820134
0.00210545
0.00823355
0.00210851
0.00224891
0.00177252
0.00225555
0.00177631
0.00162964
0.00162946
0.00162971
0.00162953
0.0017432
0.00174319
0.00174681
0.00174679
0.00210308
0.00818985
0.00210612
0.00822199
0.00177234
0.00224744
0.00177613
0.00225407
0.0353946
0.0457627
0.0354964
0.0459562
0.00596785
0.00984354
0.00599147
0.00988718
0.0453693
0.0352144
0.0455704
0.0353197
0.0097595
0.0059284
0.00980458
0.0059529
0.0081453
0.00209994
0.00817838
0.00210309
0.00223583
0.00176415
0.00224285
0.00176825
0.00162911
0.00162894
0.00162921
0.00162903
0.00173512
0.00173511
0.00173903
0.00173901
0.00209761
0.00813392
0.00210073
0.00816694
0.00176398
0.00223438
0.00176807
0.00224139
0.0352046
0.0453843
0.0353098
0.0455854
0.00592536
0.00976344
0.00594984
0.00980856
0.0449769
0.0350177
0.0451844
0.0351259
0.00967672
0.0058842
0.00972304
0.00590948
0.00808762
0.00209428
0.00812141
0.00209749
0.00222201
0.00175517
0.00222939
0.00175956
0.00162854
0.00162836
0.00162865
0.00162848
0.00172644
0.00172642
0.00173064
0.00173063
0.00209197
0.00807636
0.00209517
0.00811008
0.00175499
0.00222058
0.00175938
0.00222794
0.0350079
0.0449917
0.0351161
0.0451993
0.00588119
0.0096806
0.00590645
0.00972696
0.0445728
0.0348157
0.0447855
0.0349261
0.00959176
0.00583857
0.00963903
0.00586449
0.00802867
0.00208848
0.00806296
0.00209175
0.00220748
0.00174557
0.0022152
0.00175026
0.00162791
0.00162773
0.00162805
0.00162788
0.00171715
0.00171713
0.00172165
0.00172163
0.0020862
0.00801754
0.00208945
0.00805176
0.0017454
0.00220606
0.00175009
0.00221377
0.0348059
0.0445874
0.0349163
0.0448002
0.00583559
0.00959558
0.00586149
0.00964288
0.0441602
0.0346098
0.0443764
0.0347216
0.00950525
0.00579175
0.00955313
0.00581818
0.00796886
0.00208258
0.00800343
0.00208588
0.00219228
0.00173537
0.00220031
0.00174036
0.00162722
0.00162705
0.00162739
0.00162722
0.00170726
0.00170725
0.00171205
0.00171204
0.00208033
0.00795785
0.00208362
0.00799236
0.0017352
0.00219088
0.00174019
0.00219891
0.0346
0.0441746
0.0347119
0.0443909
0.00578881
0.009509
0.00581521
0.00955692
0.0437425
0.0344017
0.0439604
0.0345141
0.00941787
0.00574406
0.00946601
0.00577083
0.00790865
0.00207661
0.00794327
0.00207993
0.00217647
0.0017246
0.00218479
0.00172987
0.00162647
0.0016263
0.00162667
0.0016265
0.00169681
0.0016968
0.00170188
0.00170187
0.0020744
0.00789777
0.00207771
0.00793233
0.00172444
0.0021751
0.0017297
0.0021834
0.034392
0.0437567
0.0345044
0.0439747
0.00574114
0.00942156
0.0057679
0.00946974
0.0433236
0.0341935
0.0435413
0.0343055
0.00933038
0.00569582
0.0093784
0.00572277
0.00784855
0.00207061
0.00788295
0.00207394
0.00216012
0.00171329
0.00216869
0.00171882
0.00162566
0.00162549
0.00162588
0.00162571
0.00168582
0.0016858
0.00169115
0.00169113
0.00206844
0.0078378
0.00207174
0.00787214
0.00171312
0.00215877
0.00171865
0.00216732
0.0341838
0.0433377
0.0342958
0.0435555
0.00569294
0.00933401
0.00571987
0.00938206
0.0429069
0.0339864
0.0431228
0.0340973
0.00924355
0.00564738
0.00929106
0.00567433
0.00778903
0.00206463
0.00782298
0.00206793
0.0021433
0.00170147
0.00215208
0.00170724
0.00162477
0.00162461
0.00162503
0.00162486
0.00167431
0.0016743
0.00167989
0.00167988
0.00206249
0.00777841
0.00206577
0.0078123
0.0017013
0.00214197
0.00170707
0.00215074
0.0339768
0.0429208
0.0340877
0.0431367
0.00564453
0.00924712
0.00567146
0.00929466
0.0424962
0.0337825
0.0427082
0.0338912
0.00915817
0.00559909
0.00920477
0.00562586
0.00773063
0.0020587
0.00776386
0.00206196
0.0021261
0.00168918
0.00213505
0.00169517
0.00162381
0.00162365
0.0016241
0.00162394
0.00166234
0.00166233
0.00166814
0.00166813
0.00205659
0.00772013
0.00205983
0.0077533
0.00168902
0.00212478
0.00169501
0.00213372
0.0337729
0.0425099
0.0338816
0.042722
0.00559627
0.00916168
0.00562303
0.00920831
0.0420954
0.0335834
0.0423017
0.0336892
0.00907502
0.00555132
0.00912033
0.00557773
0.00767383
0.00205286
0.00770611
0.00205606
0.0021086
0.00167649
0.00211767
0.00168267
0.00162277
0.00162261
0.0016231
0.00162294
0.00164996
0.00164994
0.00165595
0.00165594
0.00205078
0.00766346
0.00205397
0.00769568
0.00167633
0.00210731
0.00168251
0.00211637
0.0335738
0.0421089
0.0336796
0.0423153
0.00554854
0.00907847
0.00557493
0.0091238
0.0417079
0.0333911
0.0419068
0.033493
0.00899483
0.00550441
0.00903848
0.0055303
0.00761912
0.00204715
0.00765019
0.00205027
0.0020909
0.00166343
0.00210005
0.00166978
0.00162166
0.00162151
0.00162203
0.00162187
0.0016372
0.00163719
0.00164337
0.00164336
0.0020451
0.00760887
0.0020482
0.00763988
0.00166328
0.00208962
0.00166963
0.00209876
0.0333815
0.0417213
0.0334835
0.0419202
0.00550166
0.00899821
0.00552753
0.0090419
0.0413373
0.0332071
0.041527
0.0333044
0.00891827
0.0054587
0.00895994
0.00548389
0.00756694
0.00204162
0.00759658
0.00204464
0.00207308
0.00165008
0.00208226
0.00165657
0.0016205
0.00162034
0.0016209
0.00162074
0.00162415
0.00162414
0.00163046
0.00163045
0.0020396
0.00755681
0.0020426
0.00758639
0.00164993
0.00207183
0.00165641
0.002081
0.0331976
0.0413504
0.0332949
0.0415402
0.00545598
0.0089216
0.00548115
0.0089633
0.0409861
0.0330331
0.0411655
0.0331249
0.00884593
0.00541452
0.00888535
0.00543885
0.00751773
0.0020363
0.00754573
0.0020392
0.00205525
0.0016365
0.00206442
0.00164309
0.00161925
0.0016191
0.00161969
0.00161954
0.00161085
0.00161084
0.00161727
0.00161726
0.00203431
0.0075077
0.00203719
0.00753565
0.00163635
0.00205401
0.00164294
0.00206317
0.0330236
0.0409991
0.0331154
0.0411785
0.00541182
0.00884921
0.00543614
0.00888865
0.0406555
0.0328704
0.0408245
0.0329563
0.00877825
0.00537219
0.00881522
0.00539551
0.00747186
0.00203124
0.00749806
0.00203399
0.0020375
0.00162274
0.0020466
0.00162941
0.00161794
0.00161779
0.0016184
0.00161825
0.00159736
0.00159735
0.00160386
0.00160385
0.00202926
0.00746194
0.002032
0.00748809
0.00162259
0.00203628
0.00162926
0.00204537
0.032861
0.0406683
0.0329469
0.0408374
0.00536953
0.00878148
0.00539283
0.00881847
0.0402987
0.0326725
0.0404968
0.0327934
0.00871113
0.00532829
0.00874934
0.00535374
0.00742211
0.00202615
0.00745292
0.002029
0.00201967
0.00160888
0.00202888
0.00161559
0.00161657
0.00161643
0.00161706
0.00161691
0.00158375
0.00158374
0.00159031
0.0015903
0.0020242
0.00741231
0.00202703
0.00744305
0.00160873
0.00201847
0.00161544
0.00202766
0.0326632
0.0403113
0.032784
0.0405096
0.00532565
0.00871429
0.00535108
0.00875254
0.0395384
0.0316505
0.0400172
0.0324237
0.00855465
0.00518968
0.00866461
0.00529046
0.00719618
0.0020099
0.00736396
0.00202156
0.00199214
0.00159413
0.0020093
0.00160169
0.00161505
0.00161491
0.00161562
0.00161547
0.0015696
0.00156958
0.00157672
0.00157671
0.00200804
0.00718686
0.00201963
0.00735431
0.00159398
0.00199098
0.00160154
0.00200811
0.0316414
0.0395503
0.0324144
0.0400295
0.00518715
0.00855761
0.00528786
0.00866771
0.0378111
0.0290521
0.0148284
0.0127091
0.0368665
0.0282018
0.014896
0.0123412
0.00581833
0.00225157
0.00371312
0.00283979
0.00564793
0.00224469
0.00366916
0.00284605
0.00203182
0.00203178
0.00281787
0.00281788
0.00203477
0.00203473
0.00282565
0.00282565
0.00225104
0.00581502
0.00283982
0.00371265
0.00224422
0.00564494
0.00284608
0.00366874
0.0290471
0.0378187
0.0127092
0.0148284
0.0281971
0.0368734
0.0123413
0.014896
0.0578515
0.043545
0.051481
0.0389445
0.0555853
0.0418902
0.04969
0.0375824
0.0106912
0.00234964
0.0090318
0.00226654
0.010206
0.00230965
0.00866408
0.00223863
0.00165634
0.00165609
0.0017423
0.00174214
0.00165572
0.00165548
0.00174244
0.00174229
0.00234615
0.0106755
0.00226425
0.00902107
0.00230649
0.0101916
0.00223647
0.00865431
0.0435342
0.0578716
0.0389358
0.051496
0.04188
0.0556034
0.0375743
0.0497037
0.0611675
0.0459152
0.0603648
0.0453494
0.05859
0.0440753
0.0578749
0.0435608
0.0115483
0.00242195
0.011352
0.0024059
0.0109843
0.00237162
0.0108082
0.00235802
0.00163097
0.00163065
0.00163508
0.00163478
0.00162999
0.00162969
0.00163418
0.0016339
0.00241747
0.0115292
0.00240165
0.0113338
0.00236754
0.0109669
0.00235416
0.0107916
0.045903
0.0611917
0.0453375
0.0603877
0.0440636
0.0586115
0.0435493
0.0578952
0.0614327
0.0461027
0.0614139
0.0460913
0.0588213
0.0442484
0.0588064
0.0442367
0.0116076
0.00242657
0.0116085
0.00242697
0.0110406
0.00237601
0.0110404
0.00237622
0.00163024
0.00162993
0.00163006
0.00162975
0.00162927
0.00162898
0.00162908
0.00162879
0.00242202
0.0115883
0.00242242
0.0115892
0.00237187
0.0110229
0.00237208
0.0110227
0.0460904
0.0614576
0.0460791
0.0614388
0.0442368
0.0588436
0.044225
0.0588285
0.0614152
0.0460953
0.0614431
0.046114
0.0587994
0.0442417
0.0588274
0.0442588
0.0116024
0.00242544
0.0116115
0.00242684
0.0110367
0.00237519
0.0110446
0.00237636
0.00163018
0.00162986
0.00163006
0.00162975
0.00162923
0.00162894
0.0016291
0.00162881
0.00242089
0.0115831
0.00242229
0.0115922
0.00237107
0.0110191
0.00237223
0.011027
0.046083
0.0614402
0.0461018
0.0614681
0.0442301
0.0588219
0.0442472
0.0588498
0.0613452
0.0460515
0.0613951
0.0460849
0.0587304
0.044202
0.0587785
0.0442322
0.0115837
0.0024227
0.0115983
0.00242455
0.0110202
0.00237276
0.0110332
0.0023744
0.00163005
0.00162973
0.00162992
0.0016296
0.00162912
0.00162882
0.00162898
0.00162868
0.00241816
0.0115644
0.00242001
0.011579
0.00236864
0.0110026
0.00237027
0.0110156
0.0460392
0.0613702
0.0460726
0.0614201
0.0441905
0.0587529
0.0442206
0.0588009
0.0612517
0.0459919
0.0613135
0.046033
0.05864
0.0441482
0.0586992
0.0441854
0.01156
0.00241972
0.0115771
0.00242197
0.0109984
0.00237
0.011014
0.00237208
0.00162991
0.00162959
0.00162983
0.00162951
0.00162899
0.0016287
0.0016289
0.00162861
0.0024152
0.0115407
0.00241744
0.0115577
0.0023659
0.0109808
0.00236797
0.0109964
0.0459795
0.0612764
0.0460206
0.0613383
0.0441367
0.0586624
0.0441738
0.0587216
0.0611445
0.0459252
0.0612134
0.04597
0.0585354
0.0440873
0.0586022
0.0441283
0.0115345
0.00241643
0.0115525
0.00241853
0.0109743
0.00236686
0.0109912
0.0023688
0.00162976
0.00162945
0.00162964
0.00162933
0.00162885
0.00162856
0.00162872
0.00162843
0.00241192
0.0115152
0.00241401
0.0115331
0.00236277
0.0109568
0.0023647
0.0109736
0.0459128
0.0611692
0.0459575
0.0612381
0.0440758
0.0585578
0.0441168
0.0586246
0.0610251
0.0458542
0.0611005
0.0459012
0.0584178
0.0440203
0.0584914
0.0440646
0.0115077
0.00241323
0.0115264
0.00241559
0.0109485
0.00236378
0.0109663
0.00236603
0.00162963
0.00162931
0.00162954
0.00162923
0.00162872
0.00162843
0.00162863
0.00162834
0.00240874
0.0114884
0.00241109
0.0115071
0.00235971
0.010931
0.00236195
0.0109489
0.0458417
0.0610497
0.0458887
0.0611252
0.0440087
0.0584401
0.0440531
0.0585137
0.0608934
0.0457789
0.0609753
0.0458283
0.0582874
0.0439465
0.0583677
0.0439947
0.0114796
0.00240973
0.0114991
0.00241195
0.0109211
0.00236041
0.0109398
0.00236248
0.00162948
0.00162917
0.00162936
0.00162905
0.00162857
0.00162829
0.00162845
0.00162816
0.00240525
0.0114603
0.00240746
0.0114798
0.00235635
0.0109036
0.00235841
0.0109224
0.0457664
0.0609178
0.0458157
0.0609998
0.0439348
0.0583096
0.0439831
0.0583899
0.0607475
0.0456981
0.0608369
0.0457506
0.058144
0.043866
0.0582312
0.0439177
0.0114497
0.00240632
0.0114702
0.00240879
0.010892
0.00235712
0.0109118
0.00235948
0.00162934
0.00162903
0.00162926
0.00162895
0.00162844
0.00162815
0.00162836
0.00162807
0.00240186
0.0114305
0.00240432
0.0114509
0.00235306
0.0108746
0.00235542
0.0108943
0.0456855
0.0607719
0.0457381
0.0608613
0.0438542
0.058166
0.043906
0.0582532
0.0605871
0.0456104
0.0606841
0.0456667
0.0579859
0.043779
0.0580813
0.0438344
0.011418
0.00240256
0.0114395
0.00240492
0.0108611
0.00235347
0.0108819
0.0023557
0.00162919
0.00162888
0.00162908
0.00162877
0.0016283
0.00162801
0.00162818
0.00162789
0.00239812
0.0113988
0.00240047
0.0114203
0.00234944
0.0108437
0.00235165
0.0108645
0.0455978
0.0606114
0.0456541
0.0607085
0.0437672
0.0580077
0.0438227
0.0581032
0.0604108
0.0455152
0.0605165
0.0455757
0.057811
0.0436841
0.0579156
0.043744
0.0113843
0.00239888
0.011407
0.0024015
0.0108279
0.00234989
0.0108501
0.00235241
0.00162905
0.00162874
0.00162897
0.00162866
0.00162817
0.00162789
0.00162808
0.0016278
0.00239447
0.0113652
0.00239707
0.0113879
0.00234588
0.0108105
0.00234838
0.0108327
0.0455027
0.060435
0.0455631
0.0605407
0.0436723
0.0578328
0.0437322
0.0579373
0.0602178
0.0454123
0.0603325
0.045477
0.0576189
0.0435798
0.0577326
0.0436449
0.0113486
0.00239485
0.0113725
0.00239736
0.0107924
0.00234597
0.0108159
0.00234834
0.0016289
0.0016286
0.00162879
0.00162848
0.00162804
0.00162775
0.00162791
0.00162763
0.00239046
0.0113296
0.00239295
0.0113534
0.00234199
0.0107751
0.00234434
0.0107986
0.0453998
0.0602419
0.0454644
0.0603567
0.043568
0.0576406
0.0436331
0.0577543
0.0600067
0.0453012
0.0601311
0.0453703
0.0574091
0.0434666
0.0575321
0.0435362
0.0113109
0.00239108
0.0113359
0.00239362
0.0107548
0.0023423
0.0107795
0.00234476
0.00162881
0.00162851
0.00162869
0.00162838
0.00162796
0.00162768
0.00162783
0.00162755
0.00238672
0.0112919
0.00238924
0.0113169
0.00233834
0.0107376
0.00234078
0.0107623
0.0452887
0.0600307
0.0453578
0.0601552
0.0434548
0.0574307
0.0435244
0.0575537
0.0597767
0.0451818
0.0599111
0.0452554
0.0571804
0.0433453
0.0573128
0.0434191
0.011271
0.00238703
0.0112973
0.00238974
0.010715
0.0023382
0.010741
0.00234088
0.00162872
0.00162842
0.0016286
0.0016283
0.00162785
0.00162757
0.00162774
0.00162746
0.00238269
0.0112521
0.00238538
0.0112783
0.00233427
0.0106979
0.00233693
0.0107238
0.0451693
0.0598006
0.0452428
0.059935
0.0433335
0.0572018
0.0434073
0.0573343
0.0595268
0.0450537
0.0596709
0.0451317
0.0569316
0.0432152
0.0570738
0.0432934
0.0112289
0.00238269
0.0112564
0.00238556
0.0106729
0.00233386
0.0107001
0.00233666
0.0016286
0.0016283
0.00162849
0.00162819
0.00162773
0.00162745
0.00162762
0.00162734
0.00237838
0.0112101
0.00238123
0.0112376
0.00232995
0.0106558
0.00233273
0.010683
0.0450412
0.0595506
0.0451191
0.0596948
0.0432034
0.0569529
0.0432816
0.0570952
0.0592561
0.0449165
0.0594104
0.044999
0.0566618
0.0430758
0.0568143
0.0431588
0.0111845
0.00237813
0.0112133
0.00238111
0.0106283
0.00232931
0.0106569
0.00233221
0.00162847
0.00162818
0.00162837
0.00162807
0.0016276
0.00162732
0.00162749
0.00162722
0.00237385
0.0111658
0.00237681
0.0111945
0.00232542
0.0106113
0.00232831
0.0106399
0.0449039
0.0592797
0.0449864
0.0594341
0.043064
0.056683
0.043147
0.0568356
0.0589636
0.0447697
0.0591285
0.0448569
0.0563703
0.0429269
0.0565334
0.0430146
0.0111376
0.0023734
0.0111678
0.00237647
0.0105811
0.00232456
0.0106112
0.00232758
0.00162835
0.00162806
0.00162825
0.00162795
0.00162748
0.0016272
0.00162737
0.00162709
0.00236914
0.011119
0.0023722
0.0111491
0.00232071
0.0105642
0.00232371
0.0105942
0.0447571
0.0589871
0.0448444
0.059152
0.0429151
0.0563914
0.0430028
0.0565545
0.0586502
0.0446142
0.0588249
0.0447057
0.0560569
0.0427682
0.0562306
0.0428608
0.0110883
0.00236849
0.0111198
0.00237166
0.0105314
0.00231963
0.0105628
0.00232275
0.00162824
0.00162795
0.00162813
0.00162784
0.00162736
0.00162709
0.00162725
0.00162698
0.00236427
0.0110698
0.00236742
0.0111012
0.00231581
0.0105146
0.00231891
0.010546
0.0446016
0.0586736
0.0446931
0.0588484
0.0427564
0.0560778
0.042849
0.0562516
0.0583149
0.044449
0.0585004
0.0445454
0.0557214
0.0425998
0.0559058
0.0426972
0.0110366
0.00236342
0.0110694
0.00236668
0.0104791
0.00231451
0.0105119
0.00231773
0.00162814
0.00162785
0.00162803
0.00162773
0.00162726
0.00162699
0.00162714
0.00162687
0.00235923
0.0110182
0.00236247
0.0110509
0.00231072
0.0104624
0.00231392
0.0104952
0.0444364
0.0583381
0.0445328
0.0585236
0.042588
0.0557422
0.0426854
0.0559266
0.0579575
0.044274
0.0581536
0.0443751
0.0553642
0.0424217
0.055559
0.0425237
0.0109825
0.00235819
0.0110166
0.00236153
0.0104243
0.00230921
0.0104584
0.00231253
0.00162806
0.00162777
0.00162794
0.00162764
0.00162716
0.0016269
0.00162704
0.00162678
0.00235404
0.0109642
0.00235736
0.0109982
0.00230546
0.0104077
0.00230875
0.0104417
0.0442614
0.0579805
0.0443626
0.0581766
0.0424099
0.0553848
0.0425119
0.0555797
0.057579
0.0440899
0.057785
0.0441954
0.0549861
0.0422344
0.0551908
0.0423407
0.0109262
0.00235282
0.0109614
0.00235624
0.0103671
0.00230375
0.0104024
0.00230715
0.00162799
0.0016277
0.00162786
0.00162757
0.00162708
0.00162682
0.00162696
0.00162669
0.00234871
0.010908
0.00235209
0.0109431
0.00230003
0.0103506
0.00230341
0.0103858
0.0440773
0.0576018
0.0441828
0.0578078
0.0422226
0.0550065
0.0423289
0.0552113
0.0571805
0.043897
0.0573959
0.0440066
0.0545883
0.0420383
0.0548023
0.0421486
0.0108677
0.00234733
0.010904
0.00235081
0.0103076
0.00229814
0.010344
0.00230162
0.00162795
0.00162766
0.0016278
0.00162752
0.00162702
0.00162676
0.00162689
0.00162662
0.00234326
0.0108497
0.00234671
0.0108859
0.00229447
0.0102913
0.00229792
0.0103276
0.0438844
0.057203
0.043994
0.0574185
0.0420265
0.0546084
0.0421368
0.0548225
0.0567627
0.0436954
0.0569871
0.043809
0.054172
0.0418339
0.0543945
0.041948
0.010807
0.0023417
0.0108444
0.00234526
0.0102461
0.00229241
0.0102835
0.00229595
0.00162792
0.00162764
0.00162777
0.00162748
0.00162698
0.00162672
0.00162683
0.00162657
0.00233766
0.0107891
0.00234119
0.0108264
0.00228877
0.0102299
0.00229228
0.0102672
0.0436828
0.056785
0.0437964
0.0570095
0.0418221
0.0541919
0.0419362
0.0544146
0.0563276
0.0434859
0.0565598
0.0436029
0.0537393
0.0416221
0.0539693
0.0417394
0.0107443
0.00233595
0.0107826
0.00233956
0.0101827
0.00228656
0.0102209
0.00229015
0.00162792
0.00162764
0.00162776
0.00162748
0.00162695
0.0016267
0.0016268
0.00162654
0.00233196
0.0107265
0.00233554
0.0107648
0.00228297
0.0101666
0.00228653
0.0102048
0.0434733
0.0563496
0.0435904
0.056582
0.0416103
0.053759
0.0417276
0.0539891
0.0558782
0.04327
0.0561166
0.0433896
0.0532931
0.0414044
0.053529
0.0415241
0.01068
0.00233013
0.010719
0.00233377
0.0101178
0.00228065
0.0101567
0.00228426
0.00162795
0.00162768
0.00162777
0.00162749
0.00162695
0.0016267
0.00162679
0.00162653
0.00232618
0.0106624
0.00232979
0.0107013
0.0022771
0.0101019
0.00228068
0.0101407
0.0432574
0.0559
0.043377
0.0561385
0.0413926
0.0533126
0.0415123
0.0535486
0.0554181
0.0430493
0.0556609
0.0431707
0.0528369
0.0411822
0.0530769
0.0413036
0.0106147
0.0023243
0.0106541
0.00232793
0.0100521
0.00227472
0.0100912
0.00227833
0.00162801
0.00162774
0.00162782
0.00162754
0.00162697
0.00162672
0.00162679
0.00162654
0.00232038
0.0105973
0.00232399
0.0106365
0.0022712
0.0100363
0.00227479
0.0100754
0.0430367
0.0554397
0.0431582
0.0556826
0.0411705
0.0528562
0.0412918
0.0530963
0.0549508
0.0428255
0.0551963
0.0429479
0.0523743
0.0409575
0.0526165
0.0410795
0.0105489
0.00231847
0.0105883
0.00232209
0.0099858
0.00226879
0.010025
0.00227238
0.0016281
0.00162782
0.00162789
0.00162761
0.00162701
0.00162676
0.00162682
0.00162657
0.00231459
0.0105316
0.00231819
0.010571
0.00226532
0.0099702
0.00226888
0.0100093
0.0428129
0.0549721
0.0429354
0.0552177
0.0409458
0.0523934
0.0410678
0.0526356
0.0544801
0.0426002
0.0547263
0.0427227
0.0519096
0.0407322
0.0521519
0.0408539
0.0104828
0.00231268
0.0105222
0.00231627
0.00991955
0.00226291
0.00995857
0.00226647
0.00162821
0.00162794
0.00162799
0.00162771
0.00162706
0.00162682
0.00162687
0.00162662
0.00230885
0.0104657
0.00231241
0.010505
0.00225948
0.0099041
0.00226301
0.00994305
0.0425876
0.0545012
0.0427101
0.0547475
0.0407204
0.0519284
0.0408422
0.0521708
0.0540101
0.0423752
0.0542549
0.0424969
0.0514462
0.0405075
0.0516869
0.0406284
0.0104172
0.00230699
0.0104562
0.0023105
0.00985384
0.00225713
0.00989239
0.00226062
0.00162835
0.00162808
0.00162811
0.00162784
0.00162713
0.00162689
0.00162693
0.00162668
0.0023032
0.0104002
0.00230669
0.0104391
0.00225374
0.00983854
0.0022572
0.00987702
0.0423627