/*--------------------------------*- C++ -*----------------------------------*\
  =========                 |
  \\      /  F ield         | OpenFOAM: The Open Source CFD Toolbox
   \\    /   O peration     | Website:  https://openfoam.org
    \\  /    A nd           | Version:  9
     \\/     M anipulation  |
\*---------------------------------------------------------------------------*/
FoamFile
{
    format      ascii;
    class       volVectorField;
    location    "0.65";
    object      U;
}
// * * * * * * * * * * * * * * * * * * * * * * * * * * * * * * * * * * * * * //

dimensions      [0 1 -1 0 0 0 0];

internalField   nonuniform List<vector> 
36360
(
(0.00099728 -0.121111 -0.50058)
(-0.00198155 -0.10522 6.98143e-05)
(0.00042179 -0.123048 -0.50182)
(-0.00328436 -0.0987553 3.08537e-05)
(-0.00203864 -0.111033 -0.501152)
(0.00823973 -0.109327 2.58585e-05)
(-0.000592822 -0.111708 -0.502181)
(0.0100737 -0.114 2.08871e-05)
(-0.00126831 -0.112755 -4.14172e-05)
(-0.00121339 -0.113655 -1.9931e-06)
(-0.00197481 -0.110621 -2.19876e-05)
(-0.00172677 -0.111586 -4.52794e-07)
(0.00345474 -0.111652 -1.92829e-05)
(0.00279753 -0.110472 -2.41333e-06)
(0.00554475 -0.114333 -2.18924e-05)
(0.0050646 -0.112861 -1.40299e-06)
(-0.0012025 -0.113581 -1.51101e-07)
(-0.00120251 -0.113581 1.27733e-07)
(-0.00170218 -0.111525 -2.48703e-08)
(-0.00170218 -0.111525 1.70037e-08)
(0.00274725 -0.110211 -2.24663e-07)
(0.00274725 -0.11021 2.00537e-07)
(0.00502368 -0.112582 -1.05176e-07)
(0.00502368 -0.112582 9.70614e-08)
(-0.00121341 -0.113654 1.97249e-06)
(-0.00126839 -0.112754 4.13892e-05)
(-0.00172677 -0.111585 4.46052e-07)
(-0.00197481 -0.11062 2.19804e-05)
(0.00279755 -0.110471 2.39145e-06)
(0.00345475 -0.11165 1.92694e-05)
(0.00506459 -0.11286 1.39569e-06)
(0.00554476 -0.114331 2.18868e-05)
(-0.00198187 -0.105219 -6.98356e-05)
(0.000997314 -0.121112 0.50058)
(-0.00328472 -0.0987546 -3.08593e-05)
(0.000421513 -0.123048 0.50182)
(0.00824031 -0.109329 -2.58686e-05)
(-0.00203844 -0.111033 0.501152)
(0.0100732 -0.114001 -2.08914e-05)
(-0.000592915 -0.111708 0.502181)
(0.00124131 -0.118717 -0.500398)
(-0.0019329 -0.10942 8.00343e-05)
(0.0011395 -0.119967 -0.500603)
(-0.00159686 -0.107854 8.09261e-05)
(-0.00206982 -0.113735 -0.501905)
(0.00295261 -0.103796 1.26589e-05)
(-0.00234379 -0.112553 -0.501488)
(0.00535486 -0.104634 1.9315e-05)
(-0.000174476 -0.113625 -3.4302e-05)
(-0.000147621 -0.11447 -5.55308e-06)
(-0.000366648 -0.113625 -4.03176e-05)
(-0.0003556 -0.114555 -3.83014e-06)
(0.000923019 -0.1097 -1.01518e-06)
(0.000229946 -0.109485 -4.93352e-06)
(0.00183431 -0.10992 -1.05794e-05)
(0.00106049 -0.109334 -3.67218e-06)
(-0.000122908 -0.114394 -5.79208e-07)
(-0.000122906 -0.114394 5.21665e-07)
(-0.000340289 -0.114485 -3.4615e-07)
(-0.000340289 -0.114484 3.06091e-07)
(0.000173021 -0.109297 -5.9378e-07)
(0.000173024 -0.109296 5.36765e-07)
(0.000998386 -0.10912 -3.93626e-07)
(0.000998389 -0.109119 3.53139e-07)
(-0.000147592 -0.114469 5.5013e-06)
(-0.000174664 -0.113624 3.42308e-05)
(-0.000355604 -0.114554 3.79374e-06)
(-0.000366798 -0.113623 4.02641e-05)
(0.000229961 -0.109484 4.88012e-06)
(0.000923019 -0.109698 9.83768e-07)
(0.0010605 -0.109333 3.63486e-06)
(0.00183431 -0.109918 1.05559e-05)
(-0.0019338 -0.109419 -8.00852e-05)
(0.00124138 -0.118717 0.500398)
(-0.00159764 -0.107852 -8.09642e-05)
(0.0011394 -0.119967 0.500603)
(0.00295509 -0.103798 -1.26803e-05)
(-0.00206915 -0.113735 0.501905)
(0.00535679 -0.104636 -1.93322e-05)
(-0.00234379 -0.112554 0.501488)
(0.00174887 -0.117228 -0.500287)
(-0.00238654 -0.110794 6.59645e-05)
(0.00150209 -0.117806 -0.500309)
(-0.00222745 -0.110293 7.41156e-05)
(-0.00106561 -0.113806 -0.501908)
(0.00118542 -0.104157 -3.80125e-06)
(-0.00152492 -0.11393 -0.501901)
(0.00168488 -0.103803 4.65786e-06)
(-2.18565e-05 -0.113398 -1.67588e-05)
(1.55694e-05 -0.114216 -7.23685e-06)
(-8.84658e-05 -0.113515 -2.59338e-05)
(-4.42866e-05 -0.114313 -6.66603e-06)
(0.000471816 -0.109322 1.91399e-05)
(-3.93077e-05 -0.109567 -6.30291e-06)
(0.000556885 -0.109502 9.29122e-06)
(-2.37319e-05 -0.109566 -5.81269e-06)
(3.75731e-05 -0.114155 -9.95176e-07)
(3.75619e-05 -0.114155 9.0388e-07)
(-1.99584e-05 -0.11424 -7.95401e-07)
(-1.99578e-05 -0.114239 7.22162e-07)
(-8.1399e-05 -0.109436 -9.74543e-07)
(-8.14076e-05 -0.109436 8.84193e-07)
(-7.1106e-05 -0.109411 -7.84575e-07)
(-7.11076e-05 -0.10941 7.1111e-07)
(1.56258e-05 -0.114215 7.15084e-06)
(-2.20519e-05 -0.113397 1.66618e-05)
(-4.42485e-05 -0.114312 6.59763e-06)
(-8.86801e-05 -0.113513 2.58486e-05)
(-3.93005e-05 -0.109566 6.21827e-06)
(0.000471764 -0.109321 -1.91904e-05)
(-2.37219e-05 -0.109565 5.74351e-06)
(0.000556866 -0.1095 -9.33171e-06)
(-0.00238761 -0.110793 -6.60251e-05)
(0.00174871 -0.117228 0.500287)
(-0.00222847 -0.110292 -7.41714e-05)
(0.00150204 -0.117806 0.500308)
(0.00118757 -0.104157 3.77056e-06)
(-0.00106549 -0.113805 0.501908)
(0.00168704 -0.103804 -4.68355e-06)
(-0.00152463 -0.11393 0.501901)
(0.00203965 -0.116393 -0.500275)
(-0.00249184 -0.111447 4.98098e-05)
(0.00193456 -0.116784 -0.50027)
(-0.00246903 -0.111154 5.76316e-05)
(-0.000675464 -0.113098 -0.501926)
(0.000960713 -0.10516 -1.99474e-05)
(-0.000787635 -0.113515 -0.501915)
(0.0010054 -0.104653 -1.21436e-05)
(4.30034e-05 -0.11318 -6.31239e-07)
(7.06351e-05 -0.114009 -7.32544e-06)
(1.88082e-05 -0.113283 -8.15225e-06)
(4.85144e-05 -0.114116 -7.42042e-06)
(0.000486941 -0.109002 3.55621e-05)
(3.68677e-05 -0.109486 -6.43818e-06)
(0.000474784 -0.109155 2.79357e-05)
(-8.23743e-06 -0.109549 -6.49314e-06)
(8.53259e-05 -0.113988 -1.30729e-06)
(8.53113e-05 -0.113988 1.18106e-06)
(6.76093e-05 -0.114075 -1.16592e-06)
(6.7593e-05 -0.114075 1.05372e-06)
(-8.39171e-07 -0.109401 -1.29382e-06)
(-8.4053e-07 -0.109401 1.16783e-06)
(-4.83679e-05 -0.109437 -1.1494e-06)
(-4.83657e-05 -0.109437 1.04156e-06)
(7.06842e-05 -0.114008 7.21133e-06)
(4.27546e-05 -0.113179 5.04936e-07)
(4.8573e-05 -0.114115 7.30491e-06)
(1.85807e-05 -0.113282 8.05468e-06)
(3.68492e-05 -0.109485 6.31785e-06)
(0.000486875 -0.109001 -3.56325e-05)
(-8.2489e-06 -0.109548 6.39442e-06)
(0.000474711 -0.109153 -2.79987e-05)
(-0.00249307 -0.111447 -4.98841e-05)
(0.00203942 -0.116393 0.500275)
(-0.00247021 -0.111154 -5.76948e-05)
(0.00193436 -0.116784 0.50027)
(0.000962467 -0.10516 1.99061e-05)
(-0.000675404 -0.113097 0.501926)
(0.00100728 -0.104653 1.21068e-05)
(-0.000787516 -0.113515 0.501915)
(0.00215762 -0.115695 -0.500272)
(-0.00246905 -0.111876 3.6124e-05)
(0.0021161 -0.116033 -0.500266)
(-0.0024923 -0.111688 4.26682e-05)
(-0.000623266 -0.112167 -0.501945)
(0.000965659 -0.106016 -3.36434e-05)
(-0.000624322 -0.112632 -0.501934)
(0.00094707 -0.105621 -2.71083e-05)
(6.7463e-05 -0.112986 1.12045e-05)
(0.000107486 -0.113794 -6.51385e-06)
(5.5969e-05 -0.113081 5.76976e-06)
(8.88088e-05 -0.113904 -7.041e-06)
(0.000494018 -0.10872 4.7561e-05)
(7.25873e-05 -0.109297 -5.74292e-06)
(0.000493852 -0.108858 4.20586e-05)
(5.95452e-05 -0.109401 -6.17305e-06)
(0.00011758 -0.113807 -1.52969e-06)
(0.000117566 -0.113807 1.3543e-06)
(0.000100999 -0.113901 -1.41425e-06)
(0.000101029 -0.113901 1.28851e-06)
(3.8394e-05 -0.109256 -1.51146e-06)
(3.84012e-05 -0.109256 1.35177e-06)
(2.40604e-05 -0.109339 -1.41558e-06)
(2.40711e-05 -0.109338 1.27323e-06)
(0.000107444 -0.113793 6.3973e-06)
(6.73402e-05 -0.112985 -1.13155e-05)
(8.88961e-05 -0.113903 6.86767e-06)
(5.56725e-05 -0.11308 -5.9212e-06)
(7.25617e-05 -0.109296 5.59427e-06)
(0.000493943 -0.108718 -4.76452e-05)
(5.95164e-05 -0.1094 6.03245e-06)
(0.000493803 -0.108857 -4.21418e-05)
(-0.00247021 -0.111876 -3.62173e-05)
(0.00215752 -0.115694 0.500272)
(-0.0024935 -0.111688 -4.27308e-05)
(0.00211595 -0.116033 0.500266)
(0.000967402 -0.106015 3.35948e-05)
(-0.000623092 -0.112166 0.501945)
(0.00094888 -0.105621 2.7063e-05)
(-0.000624126 -0.112632 0.501934)
(0.00221993 -0.115058 -0.500268)
(-0.00240106 -0.112096 2.48408e-05)
(0.00219647 -0.11537 -0.500262)
(-0.00244073 -0.112009 3.02237e-05)
(-0.000638042 -0.111293 -0.501963)
(0.00099998 -0.106593 -4.49708e-05)
(-0.000620745 -0.111719 -0.501952)
(0.000979041 -0.106339 -3.9581e-05)
(8.73926e-05 -0.112801 1.96587e-05)
(0.000148222 -0.11354 -5.30576e-06)
(7.67172e-05 -0.112895 1.57612e-05)
(0.000127295 -0.113673 -5.97319e-06)
(0.000498379 -0.108462 5.6051e-05)
(9.11975e-05 -0.109047 -4.60226e-06)
(0.000494639 -0.108589 5.21752e-05)
(8.22351e-05 -0.109179 -5.21149e-06)
(0.00015439 -0.113584 -1.62972e-06)
(0.000154408 -0.113583 1.43062e-06)
(0.000135418 -0.113702 -1.58349e-06)
(0.0001355 -0.113701 1.42143e-06)
(5.61227e-05 -0.109046 -1.60586e-06)
(5.61377e-05 -0.109045 1.41476e-06)
(4.80044e-05 -0.109158 -1.57484e-06)
(4.80219e-05 -0.109158 1.39923e-06)
(0.000148145 -0.113539 5.13878e-06)
(8.72352e-05 -0.1128 -1.98054e-05)
(0.000127323 -0.113672 5.76752e-06)
(7.6407e-05 -0.112894 -1.59353e-05)
(9.11486e-05 -0.109046 4.42104e-06)
(0.000498301 -0.108461 -5.61594e-05)
(8.22062e-05 -0.109178 5.03852e-06)
(0.000494543 -0.108588 -5.22783e-05)
(-0.00240231 -0.112096 -2.49377e-05)
(0.00221975 -0.115057 0.500268)
(-0.00244201 -0.112008 -3.02957e-05)
(0.00219625 -0.11537 0.500262)
(0.00100166 -0.106593 4.49121e-05)
(-0.000637906 -0.111292 0.501963)
(0.00098076 -0.106338 3.9527e-05)
(-0.000620577 -0.111719 0.501952)
(0.002271 -0.114452 -0.500262)
(-0.00232031 -0.112154 1.55545e-05)
(0.00225069 -0.114752 -0.500257)
(-0.00236403 -0.112144 1.99785e-05)
(-0.000658818 -0.110495 -0.50198)
(0.00102995 -0.106924 -5.42813e-05)
(-0.000640889 -0.110885 -0.50197)
(0.00101157 -0.106787 -4.98546e-05)
(0.000109943 -0.112585 2.5631e-05)
(0.000191438 -0.113238 -3.99152e-06)
(9.7389e-05 -0.112698 2.28847e-05)
(0.000169535 -0.113395 -4.66696e-06)
(0.000511197 -0.108201 6.19934e-05)
(0.00010869 -0.108748 -3.31593e-06)
(0.000503653 -0.108334 5.92861e-05)
(0.000100031 -0.108904 -3.96822e-06)
(0.000195643 -0.113305 -1.64139e-06)
(0.000195676 -0.113305 1.41816e-06)
(0.0001743 -0.113452 -1.63808e-06)
(0.000174333 -0.113451 1.43217e-06)
(7.2137e-05 -0.108776 -1.62721e-06)
(7.21476e-05 -0.108775 1.40499e-06)
(6.3998e-05 -0.108918 -1.62533e-06)
(6.40068e-05 -0.108918 1.41962e-06)
(0.000191296 -0.113237 3.7813e-06)
(0.000109795 -0.112584 -2.58109e-05)
(0.000169441 -0.113394 4.47354e-06)
(9.72089e-05 -0.112697 -2.30522e-05)
(0.000108626 -0.108747 3.10339e-06)
(0.000511159 -0.1082 -6.21257e-05)
(9.99791e-05 -0.108903 3.77123e-06)
(0.000503593 -0.108332 -5.94061e-05)
(-0.00232157 -0.112153 -1.56579e-05)
(0.00227088 -0.114451 0.500262)
(-0.00236529 -0.112143 -2.00746e-05)
(0.00225053 -0.114751 0.500257)
(0.00103169 -0.106924 5.42105e-05)
(-0.000658607 -0.110494 0.50198)
(0.00101329 -0.106786 4.97908e-05)
(-0.000640698 -0.110885 0.50197)
(0.00232423 -0.113854 -0.500255)
(-0.00223505 -0.112072 7.8964e-06)
(0.00230173 -0.114153 -0.50025)
(-0.00228063 -0.112129 1.15449e-05)
(-0.000675618 -0.10975 -0.501997)
(0.00105949 -0.107049 -6.19343e-05)
(-0.000659988 -0.110117 -0.501986)
(0.00104078 -0.107011 -5.82929e-05)
(0.000138669 -0.112319 2.98765e-05)
(0.000237003 -0.112882 -2.66402e-06)
(0.000122671 -0.112459 2.79325e-05)
(0.000213771 -0.113067 -3.32172e-06)
(0.000530229 -0.107909 6.60997e-05)
(0.000126728 -0.108397 -2.01695e-06)
(0.000519676 -0.10806 6.42409e-05)
(0.000117546 -0.108579 -2.66156e-06)
(0.000242878 -0.112966 -1.58681e-06)
(0.000242919 -0.112965 1.33094e-06)
(0.00021847 -0.113143 -1.62221e-06)
(0.000218507 -0.113143 1.38256e-06)
(8.93371e-05 -0.108445 -1.57571e-06)
(8.93507e-05 -0.108445 1.32093e-06)
(8.05211e-05 -0.108618 -1.60954e-06)
(8.05331e-05 -0.108618 1.37091e-06)
(0.000236813 -0.112881 2.42347e-06)
(0.000138549 -0.112318 -3.00837e-05)
(0.000213597 -0.113066 3.09579e-06)
(0.000122536 -0.112459 -2.81259e-05)
(0.000126648 -0.108396 1.7747e-06)
(0.000530215 -0.107908 -6.62587e-05)
(0.000117472 -0.108578 2.43392e-06)
(0.000519647 -0.108059 -6.43863e-05)
(-0.00223637 -0.112071 -8.01528e-06)
(0.00232407 -0.113853 0.500255)
(-0.00228193 -0.112128 -1.16558e-05)
(0.00230158 -0.114152 0.50025)
(0.00106123 -0.107048 6.18479e-05)
(-0.000675462 -0.109749 0.501997)
(0.0010425 -0.10701 5.82146e-05)
(-0.000659798 -0.110116 0.501987)
(0.0023841 -0.113244 -0.500246)
(-0.00215111 -0.111865 1.56688e-06)
(0.00235793 -0.113551 -0.500242)
(-0.00219573 -0.111984 4.58511e-06)
(-0.000686195 -0.10903 -0.502012)
(0.00109676 -0.107001 -6.81979e-05)
(-0.000673676 -0.109388 -0.502002)
(0.0010712 -0.107046 -6.51958e-05)
(0.000174179 -0.11199 3.28699e-05)
(0.00028689 -0.112468 -1.40523e-06)
(0.000154721 -0.112164 3.1509e-05)
(0.000261116 -0.112683 -2.02393e-06)
(0.000555225 -0.107568 6.88607e-05)
(0.000146427 -0.107989 -7.84277e-07)
(0.000541624 -0.107746 6.76159e-05)
(0.000136299 -0.1082 -1.38935e-06)
(0.000296748 -0.11256 -1.47974e-06)
(0.000296799 -0.112559 1.19168e-06)
(0.000269048 -0.112771 -1.53846e-06)
(0.000269092 -0.112771 1.26669e-06)
(0.000108674 -0.108051 -1.47113e-06)
(0.000108693 -0.10805 1.18393e-06)
(9.87505e-05 -0.108257 -1.52854e-06)
(9.87661e-05 -0.108256 1.25775e-06)
(0.000286675 -0.112467 1.13651e-06)
(0.000174048 -0.111989 -3.31064e-05)
(0.000260914 -0.112682 1.76928e-06)
(0.000154611 -0.112163 -3.17305e-05)
(0.000146338 -0.107988 5.14318e-07)
(0.000555219 -0.107567 -6.90505e-05)
(0.000136215 -0.108199 1.13307e-06)
(0.000541624 -0.107745 -6.77896e-05)
(-0.00215245 -0.111864 -1.70252e-06)
(0.00238393 -0.113243 0.500247)
(-0.00219705 -0.111983 -4.71212e-06)
(0.0023578 -0.11355 0.500242)
(0.00109851 -0.107 6.80945e-05)
(-0.00068597 -0.109029 0.502013)
(0.00107294 -0.107045 6.51014e-05)
(-0.000673445 -0.109387 0.502003)
(0.00245246 -0.112604 -0.500237)
(-0.00208026 -0.111539 -3.69444e-06)
(0.00242189 -0.112928 -0.500233)
(-0.00211409 -0.111717 -1.18071e-06)
(-0.000690387 -0.10831 -0.502027)
(0.0011496 -0.106791 -7.34655e-05)
(-0.000680576 -0.108671 -0.502018)
(0.00111727 -0.106914 -7.09721e-05)
(0.000217211 -0.111586 3.48866e-05)
(0.000343632 -0.111988 -2.62921e-07)
(0.000193893 -0.111798 3.40027e-05)
(0.000314284 -0.112237 -8.1342e-07)
(0.000586256 -0.107162 7.06431e-05)
(0.000168631 -0.107518 3.40534e-07)
(0.000569663 -0.107374 6.98577e-05)
(0.000157191 -0.107762 -2.07178e-07)
(0.000357392 -0.112082 -1.33926e-06)
(0.000357453 -0.112081 1.01604e-06)
(0.000326162 -0.11233 -1.41282e-06)
(0.000326222 -0.11233 1.1077e-06)
(0.000130353 -0.107586 -1.3317e-06)
(0.000130373 -0.107586 1.00892e-06)
(0.000119201 -0.107828 -1.40538e-06)
(0.000119223 -0.107827 1.10086e-06)
(0.000343429 -0.111987 -3.65077e-08)
(0.000217022 -0.111585 -3.51524e-05)
(0.000314062 -0.112236 5.30078e-07)
(0.000193719 -0.111797 -3.42543e-05)
(0.000168546 -0.107517 -6.40378e-07)
(0.000586201 -0.107161 -7.0863e-05)
(0.000157099 -0.107761 -7.6535e-08)
(0.000569622 -0.107373 -7.00638e-05)
(-0.00208156 -0.111537 3.54213e-06)
(0.00245225 -0.112602 0.500237)
(-0.00211542 -0.111715 1.03649e-06)
(0.00242169 -0.112926 0.500233)
(0.00115138 -0.10679 7.33438e-05)
(-0.000690196 -0.108308 0.502028)
(0.00111904 -0.106913 7.08589e-05)
(-0.000680377 -0.108669 0.502019)
(0.00253056 -0.111915 -0.500225)
(-0.00203282 -0.111093 -8.09125e-06)
(0.00249496 -0.112266 -0.500221)
(-0.00205871 -0.111331 -5.98666e-06)
(-0.00068838 -0.107565 -0.502042)
(0.00121454 -0.106445 -7.78191e-05)
(-0.000681185 -0.107941 -0.502033)
(0.0011767 -0.106634 -7.57402e-05)
(0.000268443 -0.111097 3.61291e-05)
(0.000408337 -0.111432 7.46656e-07)
(0.000240916 -0.111353 3.55831e-05)
(0.000374856 -0.11172 2.56416e-07)
(0.000622129 -0.106681 7.17857e-05)
(0.000193659 -0.106974 1.35507e-06)
(0.000603323 -0.106932 7.12726e-05)
(0.00018077 -0.107256 8.60829e-07)
(0.000425675 -0.111525 -1.16615e-06)
(0.000425619 -0.111524 8.04668e-07)
(0.000390539 -0.111814 -1.25756e-06)
(0.000390565 -0.111813 9.15417e-07)
(0.000154737 -0.107045 -1.1529e-06)
(0.000154685 -0.107044 7.91857e-07)
(0.000142204 -0.107325 -1.24655e-06)
(0.000142197 -0.107325 9.04641e-07)
(0.000408294 -0.111431 -1.08443e-06)
(0.00026825 -0.111096 -3.64171e-05)
(0.000374711 -0.111719 -5.73789e-07)
(0.000240726 -0.111352 -3.58611e-05)
(0.000193658 -0.106973 -1.6934e-06)
(0.00062207 -0.106679 -7.20282e-05)
(0.00018072 -0.107254 -1.18105e-06)
(0.000603266 -0.10693 -7.15023e-05)
(-0.00203413 -0.111091 7.92331e-06)
(0.00253033 -0.111914 0.500226)
(-0.00205999 -0.111329 5.82648e-06)
(0.00249476 -0.112264 0.500222)
(0.00121633 -0.106443 7.76811e-05)
(-0.000688145 -0.107563 0.502043)
(0.0011785 -0.106632 7.56103e-05)
(-0.000680953 -0.107939 0.502033)
(0.00261957 -0.111164 -0.500213)
(-0.00197897 -0.11053 -1.17932e-05)
(0.00257849 -0.111548 -0.50021)
(-0.00201039 -0.110826 -1.00168e-05)
(-0.000681266 -0.106778 -0.502057)
(0.00128241 -0.105974 -8.14518e-05)
(-0.000676029 -0.107178 -0.502047)
(0.00124387 -0.106225 -7.97167e-05)
(0.000329233 -0.110515 3.69021e-05)
(0.000482333 -0.110792 1.64356e-06)
(0.000296735 -0.110818 3.65546e-05)
(0.000444091 -0.111123 1.20942e-06)
(0.000661815 -0.106112 7.2518e-05)
(0.000221936 -0.106349 2.25537e-06)
(0.000641136 -0.106408 7.21969e-05)
(0.000207392 -0.106672 1.82007e-06)
(0.000502383 -0.110881 -9.70031e-07)
(0.000502237 -0.11088 5.6696e-07)
(0.000462922 -0.111214 -1.06906e-06)
(0.000462812 -0.111214 6.87898e-07)
(0.000182091 -0.106419 -9.57318e-07)
(0.000182045 -0.106418 5.537e-07)
(0.000168015 -0.106743 -1.05605e-06)
(0.00016797 -0.106743 6.74759e-07)
(0.000482403 -0.11079 -2.01789e-06)
(0.000329038 -0.110513 -3.72156e-05)
(0.00044412 -0.111122 -1.56508e-06)
(0.00029654 -0.110817 -3.6856e-05)
(0.00022194 -0.106348 -2.63167e-06)
(0.000661754 -0.10611 -7.27866e-05)
(0.000207391 -0.106671 -2.17701e-06)
(0.000641077 -0.106406 -7.24525e-05)
(-0.00198035 -0.110529 1.16084e-05)
(0.00261928 -0.111162 0.500214)
(-0.00201174 -0.110824 9.84063e-06)
(0.00257823 -0.111546 0.50021)
(0.0012842 -0.105972 8.12966e-05)
(-0.000681018 -0.106775 0.502058)
(0.00124566 -0.106223 7.95703e-05)
(-0.000675774 -0.107176 0.502048)
(0.00272074 -0.110338 -0.500199)
(-0.00191405 -0.10986 -1.49399e-05)
(0.00267377 -0.110761 -0.500196)
(-0.00195024 -0.110208 -1.34242e-05)
(-0.000669826 -0.105929 -0.50207)
(0.00135437 -0.105377 -8.44908e-05)
(-0.000666314 -0.106362 -0.502061)
(0.00131269 -0.105691 -8.30367e-05)
(0.000400618 -0.109831 3.74345e-05)
(0.000566226 -0.110057 2.43159e-06)
(0.000362763 -0.110186 3.71896e-05)
(0.000522933 -0.110437 2.0512e-06)
(0.000705254 -0.105446 7.29112e-05)
(0.00025361 -0.105633 3.04184e-06)
(0.000682675 -0.105792 7.27533e-05)
(0.000237322 -0.106003 2.66255e-06)
(0.000588544 -0.110141 -7.66933e-07)
(0.000588451 -0.11014 3.1322e-07)
(0.000544223 -0.110523 -8.68322e-07)
(0.000544088 -0.110523 4.41443e-07)
(0.000212857 -0.1057 -7.57236e-07)
(0.000212825 -0.1057 3.01074e-07)
(0.000197036 -0.106072 -8.57125e-07)
(0.000196995 -0.106071 4.28747e-07)
(0.000566235 -0.110056 -2.85134e-06)
(0.000400432 -0.109829 -3.77797e-05)
(0.000522986 -0.110435 -2.44631e-06)
(0.000362571 -0.110185 -3.75149e-05)
(0.000253595 -0.105632 -3.46411e-06)
(0.000705192 -0.105444 -7.32112e-05)
(0.00023732 -0.106002 -3.06017e-06)
(0.000682615 -0.10579 -7.30357e-05)
(-0.00191547 -0.109858 1.47323e-05)
(0.00272043 -0.110335 0.5002)
(-0.00195165 -0.110206 1.32298e-05)
(0.00267347 -0.110758 0.500196)
(0.00135615 -0.105375 8.43137e-05)
(-0.000669582 -0.105927 0.502071)
(0.00131449 -0.105689 8.28717e-05)
(-0.000666062 -0.106359 0.502062)
(0.00283452 -0.109421 -0.500185)
(-0.00185484 -0.109098 -1.76007e-05)
(0.00278148 -0.109891 -0.500181)
(-0.00188452 -0.10949 -1.63468e-05)
(-0.000654498 -0.105005 -0.502084)
(0.00144924 -0.104653 -8.70314e-05)
(-0.00065288 -0.105477 -0.502074)
(0.0013922 -0.105031 -8.58244e-05)
(0.000483029 -0.109036 3.79586e-05)
(0.000660964 -0.109219 3.16444e-06)
(0.000439593 -0.109448 3.75166e-05)
(0.000612116 -0.109652 2.76618e-06)
(0.000752757 -0.104673 7.3084e-05)
(0.000289025 -0.104817 3.76091e-06)
(0.000728093 -0.105074 7.29922e-05)
(0.000270828 -0.105239 3.39555e-06)
(0.000685283 -0.109295 -5.54286e-07)
(0.000685216 -0.109295 5.37345e-08)
(0.000635544 -0.109732 -6.70926e-07)
(0.00063547 -0.109731 1.84595e-07)
(0.000247377 -0.104879 -5.46741e-07)
(0.000247353 -0.104878 4.41785e-08)
(0.000229638 -0.105303 -6.57871e-07)
(0.000229612 -0.105302 1.72391e-07)
(0.000660927 -0.109217 -3.62054e-06)
(0.000482846 -0.109034 -3.83293e-05)
(0.000612106 -0.10965 -3.22879e-06)
(0.000439425 -0.109446 -3.79761e-05)
(0.000288993 -0.104816 -4.21928e-06)
(0.000752691 -0.104671 -7.34058e-05)
(0.000270803 -0.105237 -3.84604e-06)
(0.000728025 -0.105072 -7.33201e-05)
(-0.00185625 -0.109096 1.7377e-05)
(0.00283418 -0.109419 0.500186)
(-0.00188591 -0.109488 1.61164e-05)
(0.00278117 -0.109889 0.500182)
(0.00145095 -0.104651 8.68385e-05)
(-0.000654256 -0.105002 0.502085)
(0.00139394 -0.105029 8.5633e-05)
(-0.00065264 -0.105475 0.502076)
(0.00296093 -0.108402 -0.500169)
(-0.00181428 -0.108198 -1.98318e-05)
(0.00290175 -0.108925 -0.500166)
(-0.00183796 -0.10867 -1.87563e-05)
(-0.000633821 -0.10399 -0.502097)
(0.00157739 -0.103798 -8.91606e-05)
(-0.000635004 -0.104509 -0.502088)
(0.00150751 -0.104242 -8.81402e-05)
(0.000576836 -0.108119 3.80979e-05)
(0.000767336 -0.108265 3.86603e-06)
(0.000527653 -0.108593 3.8138e-05)
(0.000712615 -0.108757 3.52678e-06)
(0.000804647 -0.103785 7.31278e-05)
(0.000328467 -0.103891 4.43798e-06)
(0.000777787 -0.104244 7.31264e-05)
(0.000308226 -0.104369 4.10824e-06)
(0.000793378 -0.108334 -3.31926e-07)
(0.000793317 -0.108334 -2.091e-07)
(0.000737883 -0.10883 -4.42301e-07)
(0.00073782 -0.108829 -7.69831e-08)
(0.000285928 -0.103947 -3.27037e-07)
(0.000285906 -0.103946 -2.1403e-07)
(0.000266145 -0.104427 -4.3624e-07)
(0.000266122 -0.104427 -8.4234e-08)
(0.00076724 -0.108264 -4.34667e-06)
(0.000576645 -0.108117 -3.84733e-05)
(0.000712549 -0.108755 -3.99289e-06)
(0.000527465 -0.108591 -3.8507e-05)
(0.000328415 -0.103889 -4.92048e-06)
(0.000804576 -0.103783 -7.34578e-05)
(0.000308184 -0.104367 -4.57719e-06)
(0.000777719 -0.104242 -7.34504e-05)
(-0.00181573 -0.108195 1.96006e-05)
(0.00296054 -0.108399 0.50017)
(-0.00183938 -0.108667 1.85307e-05)
(0.00290139 -0.108922 0.500167)
(0.00157907 -0.103795 8.89588e-05)
(-0.000633581 -0.103987 0.502098)
(0.0015092 -0.10424 8.79439e-05)
(-0.000634757 -0.104506 0.502089)
(0.00310046 -0.107265 -0.500152)
(-0.00175805 -0.10714 -2.17479e-05)
(0.00303458 -0.107848 -0.500149)
(-0.00179151 -0.107688 -2.08228e-05)
(-0.000607208 -0.102871 -0.50211)
(0.00170109 -0.102811 -9.09476e-05)
(-0.000611274 -0.103444 -0.502101)
(0.00163588 -0.10332 -9.00934e-05)
(0.000682964 -0.10707 3.78354e-05)
(0.000885894 -0.107187 4.48986e-06)
(0.000627484 -0.107611 3.79855e-05)
(0.000825004 -0.107742 4.18628e-06)
(0.000860426 -0.102771 7.30635e-05)
(0.000372155 -0.102844 5.05324e-06)
(0.000831687 -0.103295 7.30988e-05)
(0.000349765 -0.103383 4.7527e-06)
(0.000913521 -0.107248 -1.09094e-07)
(0.00091346 -0.107248 -4.783e-07)
(0.000851913 -0.107808 -2.21065e-07)
(0.000851853 -0.107807 -3.42893e-07)
(0.000328754 -0.102893 -1.07835e-07)
(0.000328732 -0.102892 -4.78631e-07)
(0.000306802 -0.103436 -2.17753e-07)
(0.00030678 -0.103435 -3.45599e-07)
(0.000885733 -0.107185 -5.00187e-06)
(0.000682774 -0.107068 -3.82265e-05)
(0.000824877 -0.107741 -4.68247e-06)
(0.000627294 -0.107609 -3.83687e-05)
(0.000372079 -0.102842 -5.56617e-06)
(0.000860352 -0.102769 -7.34088e-05)
(0.000349701 -0.103381 -5.25014e-06)
(0.000831615 -0.103292 -7.34363e-05)
(-0.0017596 -0.107137 2.15021e-05)
(0.00310004 -0.107262 0.500153)
(-0.00179301 -0.107686 2.05846e-05)
(0.00303418 -0.107845 0.50015)
(0.0017028 -0.102808 9.07315e-05)
(-0.000606969 -0.102868 0.502111)
(0.00163758 -0.103318 8.98847e-05)
(-0.000611029 -0.103441 0.502102)
(0.00325368 -0.106001 -0.500133)
(-0.00168753 -0.105935 -2.34005e-05)
(0.00318077 -0.10665 -0.50013)
(-0.00172701 -0.106554 -2.26018e-05)
(-0.000575465 -0.101634 -0.502122)
(0.00180095 -0.101686 -9.24354e-05)
(-0.000581975 -0.102268 -0.502113)
(0.00174858 -0.102268 -9.1725e-05)
(0.000802294 -0.105881 3.75008e-05)
(0.00101719 -0.105973 5.05685e-06)
(0.000740131 -0.106493 3.76053e-05)
(0.000949868 -0.106597 4.77855e-06)
(0.000919739 -0.101622 7.29753e-05)
(0.000420272 -0.101665 5.61636e-06)
(0.000889274 -0.102214 7.30865e-05)
(0.000395647 -0.102272 5.3411e-06)
(0.00104633 -0.106026 1.20136e-07)
(0.00104628 -0.106026 -7.53489e-07)
(0.000978322 -0.106655 4.52882e-09)
(0.000978263 -0.106654 -6.15224e-07)
(0.000376075 -0.101708 1.1544e-07)
(0.000376054 -0.101708 -7.47963e-07)
(0.000351852 -0.102318 3.20051e-09)
(0.000351829 -0.102317 -6.12898e-07)
(0.00101694 -0.105971 -5.60104e-06)
(0.000802109 -0.105878 -3.79073e-05)
(0.000949669 -0.106596 -5.30644e-06)
(0.000739943 -0.106491 -3.80043e-05)
(0.000420168 -0.101664 -6.16065e-06)
(0.000919663 -0.101619 -7.33369e-05)
(0.000395558 -0.10227 -5.86964e-06)
(0.0008892 -0.102212 -7.34397e-05)
(-0.00168917 -0.105933 2.31383e-05)
(0.00325323 -0.105998 0.500134)
(-0.00172861 -0.106552 2.2348e-05)
(0.00318033 -0.106646 0.500132)
(0.00180275 -0.101683 9.2203e-05)
(-0.000575227 -0.101631 0.502124)
(0.00175034 -0.102266 9.15009e-05)
(-0.000581731 -0.102264 0.502115)
(0.00342105 -0.104598 -0.500114)
(-0.00160035 -0.10459 -2.4822e-05)
(0.00334087 -0.105317 -0.500111)
(-0.00164902 -0.105282 -2.41356e-05)
(-0.000539143 -0.100267 -0.502134)
(0.00189404 -0.100403 -9.36671e-05)
(-0.000548026 -0.100967 -0.502125)
(0.00184209 -0.101064 -9.30798e-05)
(0.000935543 -0.104542 3.73248e-05)
(0.00116162 -0.104612 5.58809e-06)
(0.000866346 -0.10523 3.74082e-05)
(0.00108769 -0.105311 5.326e-06)
(0.000982618 -0.100327 7.26768e-05)
(0.000472957 -0.100346 6.13897e-06)
(0.000950292 -0.100993 7.28326e-05)
(0.000446034 -0.101024 5.8819e-06)
(0.00119221 -0.104659 3.56927e-07)
(0.00119224 -0.104658 -1.02953e-06)
(0.00111763 -0.105362 2.37142e-07)
(0.00111762 -0.105361 -8.9111e-07)
(0.000428039 -0.100383 3.44813e-07)
(0.000428032 -0.100382 -1.01969e-06)
(0.00040148 -0.101064 2.2918e-07)
(0.000401465 -0.101063 -8.83449e-07)
(0.00116129 -0.10461 -6.16615e-06)
(0.000935375 -0.104539 -3.77503e-05)
(0.00108739 -0.105309 -5.88629e-06)
(0.000866168 -0.105228 -3.78238e-05)
(0.000472827 -0.100344 -6.71599e-06)
(0.000982545 -0.100324 -7.30567e-05)
(0.000445914 -0.101022 -6.44212e-06)
(0.000950218 -0.10099 -7.32032e-05)
(-0.00160205 -0.104587 2.45427e-05)
(0.00342054 -0.104594 0.500115)
(-0.0016507 -0.105279 2.38646e-05)
(0.00334039 -0.105314 0.500113)
(0.00189596 -0.1004 9.34181e-05)
(-0.000538907 -0.100263 0.502135)
(0.00184396 -0.101061 9.28389e-05)
(-0.000547784 -0.100964 0.502127)
(0.00360253 -0.103044 -0.500093)
(-0.00149484 -0.103087 -2.60426e-05)
(0.00351515 -0.10384 -0.50009)
(-0.00155264 -0.103859 -2.54522e-05)
(-0.000497958 -0.0987581 -0.502145)
(0.00198854 -0.0989631 -9.46788e-05)
(-0.000509377 -0.0995304 -0.502136)
(0.00193553 -0.0997031 -9.41971e-05)
(0.00108285 -0.103044 3.71664e-05)
(0.00131939 -0.103096 6.09202e-06)
(0.00100663 -0.103813 3.72413e-05)
(0.00123878 -0.103874 5.84343e-06)
(0.00104946 -0.0988779 7.23484e-05)
(0.000530288 -0.0988767 6.63295e-06)
(0.00101512 -0.0996222 7.25137e-05)
(0.000501035 -0.0996309 6.38945e-06)
(0.00135139 -0.103136 5.92303e-07)
(0.00135144 -0.103135 -1.28784e-06)
(0.00127015 -0.103917 4.82031e-07)
(0.0012702 -0.103917 -1.17094e-06)
(0.000484709 -0.098907 5.91474e-07)
(0.000484729 -0.0989065 -1.29829e-06)
(0.000455796 -0.0996642 4.63842e-07)
(0.000455806 -0.0996636 -1.15757e-06)
(0.00131909 -0.103094 -6.70531e-06)
(0.00108271 -0.103041 -3.76263e-05)
(0.00123845 -0.103872 -6.44596e-06)
(0.00100648 -0.103811 -3.76732e-05)
(0.000530164 -0.0988746 -7.25877e-06)
(0.00104939 -0.0988752 -7.27402e-05)
(0.000500896 -0.0996288 -6.98619e-06)
(0.00101504 -0.0996195 -7.29019e-05)
(-0.00149662 -0.103084 2.57477e-05)
(0.00360199 -0.10304 0.500095)
(-0.00155438 -0.103856 2.51658e-05)
(0.00351463 -0.103836 0.500092)
(0.00199056 -0.0989601 9.44152e-05)
(-0.000497726 -0.0987545 0.502147)
(0.00193751 -0.0997001 9.39406e-05)
(-0.000509137 -0.0995269 0.502138)
(0.00379799 -0.10133 -0.500072)
(-0.00137179 -0.101417 -2.71153e-05)
(0.00370351 -0.102207 -0.500069)
(-0.00143832 -0.102273 -2.65874e-05)
(-0.000451696 -0.0970972 -0.502156)
(0.00208509 -0.0973594 -9.55038e-05)
(-0.000465732 -0.0979469 -0.502147)
(0.00203092 -0.0981821 -9.51118e-05)
(0.00124424 -0.101377 3.70374e-05)
(0.00149063 -0.101414 6.60334e-06)
(0.00116098 -0.102232 3.7097e-05)
(0.00140329 -0.102276 6.34782e-06)
(0.00112033 -0.0972666 7.20152e-05)
(0.000592321 -0.0972478 7.10931e-06)
(0.00108398 -0.0980931 7.21805e-05)
(0.000560714 -0.0980828 6.86666e-06)
(0.00152387 -0.101447 7.88084e-07)
(0.00152384 -0.101447 -1.55898e-06)
(0.00143599 -0.102313 7.46657e-07)
(0.00143603 -0.102312 -1.43204e-06)
(0.000546113 -0.0972724 8.364e-07)
(0.000546092 -0.097272 -1.57098e-06)
(0.000514835 -0.0981102 6.9107e-07)
(0.000514871 -0.0981097 -1.40046e-06)
(0.00149044 -0.101412 -7.15351e-06)
(0.00124413 -0.101375 -3.74939e-05)
(0.00140303 -0.102274 -7.04343e-06)
(0.00116086 -0.102229 -3.75645e-05)
(0.000592272 -0.0972457 -7.7759e-06)
(0.00112025 -0.0972639 -7.24178e-05)
(0.000560616 -0.0980806 -7.49314e-06)
(0.00108387 -0.0980904 -7.26067e-05)
(-0.00137364 -0.101414 2.6747e-05)
(0.0037974 -0.101326 0.500073)
(-0.00144013 -0.10227 2.63163e-05)
(0.00370294 -0.102204 0.500071)
(0.0020872 -0.0973563 9.52199e-05)
(-0.000451467 -0.0970935 0.502158)
(0.00203299 -0.098179 9.48359e-05)
(-0.000465497 -0.0979433 0.502149)
(0.0040069 -0.0994454 -0.500049)
(-0.00123197 -0.0995716 -2.80536e-05)
(0.00390561 -0.100409 -0.500046)
(-0.00130681 -0.100516 -2.75348e-05)
(-0.000400384 -0.095275 -0.502166)
(0.00218379 -0.0955853 -9.61529e-05)
(-0.00041703 -0.0962065 -0.502158)
(0.0021285 -0.096494 -9.5846e-05)
(0.00141951 -0.099535 3.69612e-05)
(0.00167517 -0.0995575 7.13997e-06)
(0.00132936 -0.100479 3.69555e-05)
(0.00158122 -0.100508 6.77106e-06)
(0.00119515 -0.0954853 7.16919e-05)
(0.000659014 -0.0954514 7.55547e-06)
(0.00115686 -0.0963977 7.18378e-05)
(0.000625087 -0.096371 7.33553e-06)
(0.00170936 -0.0995851 9.90749e-07)
(0.00170926 -0.0995846 -1.86048e-06)
(0.00161503 -0.100538 9.89536e-07)
(0.00161497 -0.100538 -1.6405e-06)
(0.000612143 -0.0954709 1.03886e-06)
(0.000612086 -0.0954704 -1.80364e-06)
(0.000578557 -0.0963931 9.37125e-07)
(0.000578563 -0.0963926 -1.67003e-06)
(0.00167505 -0.0995555 -7.62358e-06)