/*--------------------------------*- C++ -*----------------------------------*\
  =========                 |
  \\      /  F ield         | OpenFOAM: The Open Source CFD Toolbox
   \\    /   O peration     | Website:  https://openfoam.org
    \\  /    A nd           | Version:  9
     \\/     M anipulation  |
\*---------------------------------------------------------------------------*/
FoamFile
{
    format      ascii;
    class       surfaceScalarField;
    location    "0.3";
    object      phi;
}
// * * * * * * * * * * * * * * * * * * * * * * * * * * * * * * * * * * * * * //

dimensions      [0 3 -1 0 0 0 0];

internalField   nonuniform List<scalar> 
104044
(
-2.58596e-11
-4.346e-05
-2.17129e-09
4.34547e-05
7.49134e-09
-4.34603e-05
-2.14475e-09
-2.40547e-12
4.3455e-05
7.45242e-09
2.6442e-11
-3.14008e-09
8.30208e-09
-3.17252e-09
8.14958e-13
8.32804e-09
-1.78912e-11
-1.56355e-05
1.56333e-05
-1.56356e-05
-3.11663e-12
1.56334e-05
2.4597e-11
1.0768e-12
-1.2616e-12
-4.34606e-05
-2.13505e-09
4.34553e-05
7.43459e-09
-4.34609e-05
-2.13082e-09
-1.05053e-12
4.34556e-05
7.42353e-09
-1.15662e-12
-3.17378e-09
8.33104e-09
-3.17109e-09
-5.77887e-13
8.32509e-09
-1.58217e-12
-1.56356e-05
1.56335e-05
-1.56357e-05
-1.07658e-12
1.56336e-05
-1.04342e-12
-5.73342e-13
1.64809e-13
-4.34612e-05
-2.12904e-09
4.34559e-05
7.41916e-09
-4.34612e-05
-2.13049e-09
1.36329e-12
4.34559e-05
7.42357e-09
2.30457e-13
-3.16976e-09
8.32236e-09
-3.17191e-09
1.06179e-12
8.3278e-09
2.3423e-13
-1.56358e-05
1.56337e-05
-1.56358e-05
1.5394e-12
1.56337e-05
2.78153e-13
1.1375e-12
1.50293e-12
-4.3461e-05
-2.13499e-09
4.34557e-05
7.43636e-09
-4.34607e-05
-2.14155e-09
2.61856e-12
4.34553e-05
7.45454e-09
1.64153e-12
-3.17737e-09
8.34086e-09
-3.18359e-09
-5.39067e-13
8.3556e-09
1.92272e-12
-1.56358e-05
1.56336e-05
-1.56357e-05
3.36112e-12
1.56335e-05
1.59288e-12
-7.91173e-13
2.6026e-11
-4.34604e-05
-2.15299e-09
4.3455e-05
7.47741e-09
-4.34601e-05
-2.18023e-09
4.34548e-05
7.51934e-09
-2.6429e-11
-3.18489e-09
8.35887e-09
-3.15352e-09
8.33637e-09
1.80691e-11
-1.56356e-05
1.56334e-05
-1.56355e-05
1.56333e-05
-2.45798e-11
-8.36987e-12
-4.34485e-05
-2.90232e-09
4.34399e-05
1.14179e-08
-4.34487e-05
-2.9051e-09
-3.91638e-12
4.34402e-05
1.14116e-08
-1.1174e-11
-2.1575e-09
8.46238e-09
-2.156e-09
-2.0226e-12
8.44994e-09
-4.3505e-12
-1.56312e-05
1.56283e-05
-1.56312e-05
-5.90619e-12
1.56283e-05
-8.1169e-12
-2.48793e-12
-3.88136e-12
-4.3449e-05
-2.89953e-09
4.34405e-05
1.14045e-08
-4.34494e-05
-2.89692e-09
-2.53698e-12
4.34409e-05
1.1396e-08
-2.1652e-12
-2.15348e-09
8.44173e-09
-2.15161e-09
-1.64213e-12
8.43375e-09
-4.37417e-12
-1.56314e-05
1.56284e-05
-1.56315e-05
-2.52845e-12
1.56286e-05
-2.41196e-12
-1.6764e-12
2.32097e-13
-4.34496e-05
-2.89539e-09
4.34411e-05
1.13916e-08
-4.34496e-05
-2.89612e-09
2.96173e-12
4.34411e-05
1.13941e-08
2.05519e-13
-2.15035e-09
8.4298e-09
-2.15135e-09
2.05338e-12
8.43317e-09
2.54621e-13
-1.56315e-05
1.56286e-05
-1.56315e-05
3.01055e-12
1.56286e-05
2.6797e-13
2.1837e-12
4.17317e-12
-4.34494e-05
-2.89903e-09
4.34409e-05
1.14031e-08
-4.3449e-05
-2.90277e-09
4.01103e-12
4.34405e-05
1.14156e-08
2.47922e-12
-2.15453e-09
8.4435e-09
-2.15802e-09
2.1977e-12
8.45687e-09
4.7375e-12
-1.56315e-05
1.56286e-05
-1.56314e-05
6.08085e-12
1.56285e-05
2.79656e-12
2.66411e-12
8.53516e-12
-4.34487e-05
-2.90917e-09
4.34402e-05
1.14255e-08
-4.34485e-05
-2.90706e-09
4.344e-05
1.14329e-08
1.12858e-11
-2.1617e-09
8.4689e-09
-2.16379e-09
8.48341e-09
4.4623e-12
-1.56313e-05
1.56283e-05
-1.56312e-05
1.56283e-05
8.21354e-12
-1.00283e-11
-4.34286e-05
-5.30514e-09
4.34138e-05
2.0161e-08
-4.34288e-05
-5.3098e-09
-6.16288e-12
4.3414e-05
2.01518e-08
-9.1809e-12
-3.96953e-09
1.53139e-08
-3.97217e-09
-5.21979e-12
1.53053e-08
-2.41466e-12
-1.56243e-05
1.5619e-05
-1.56244e-05
-9.16563e-12
1.56191e-05
-3.37304e-12
-7.69703e-12
-6.86199e-12
-4.34292e-05
-5.30081e-09
4.34143e-05
2.01462e-08
-4.34295e-05
-5.29798e-09
-4.28501e-12
4.34147e-05
2.01378e-08
-5.33467e-12
-3.96435e-09
1.52986e-08
-3.96156e-09
-3.34628e-12
1.529e-08
-7.53867e-12
-1.56245e-05
1.56192e-05
-1.56246e-05
-4.25761e-12
1.56193e-05
-5.97385e-12
-3.34823e-12
1.64669e-13
-4.34298e-05
-5.29633e-09
4.34149e-05
2.01333e-08
-4.34298e-05
-5.29661e-09
4.58783e-12
4.34149e-05
2.01343e-08
1.92469e-13
-3.96e-09
1.52856e-08
-3.96048e-09
3.69611e-12
1.52873e-08
1.71564e-13
-1.56247e-05
1.56194e-05
-1.56247e-05
4.563e-12
1.56194e-05
2.00649e-13
3.7089e-12
7.05657e-12
-4.34295e-05
-5.29881e-09
4.34147e-05
2.01408e-08
-4.34292e-05
-5.30208e-09
6.16209e-12
4.34143e-05
2.01509e-08
5.57337e-12
-3.96295e-09
1.52949e-08
-3.96647e-09
5.2728e-12
1.5306e-08
7.75683e-12
-1.56246e-05
1.56193e-05
-1.56245e-05
9.27334e-12
1.56192e-05
6.25221e-12
7.88436e-12
1.02715e-11
-4.34288e-05
-5.31141e-09
4.3414e-05
2.01577e-08
-4.34286e-05
-5.30747e-09
4.34138e-05
2.01669e-08
9.36242e-12
-3.9748e-09
1.53147e-08
-3.97308e-09
1.53234e-08
2.55025e-12
-1.56244e-05
1.56191e-05
-1.56243e-05
1.5619e-05
3.44158e-12
-1.31691e-11
-4.33955e-05
-8.09376e-09
4.33732e-05
3.03657e-08
-4.33957e-05
-8.10182e-09
-7.57177e-12
4.33734e-05
3.03555e-08
-1.13204e-11
-6.61491e-09
2.49216e-08
-6.62129e-09
-6.83802e-12
2.49124e-08
-1.57887e-12
-1.56124e-05
1.56043e-05
-1.56124e-05
-1.17112e-11
1.56044e-05
-1.9017e-12
-1.03658e-11
-9.42769e-12
-4.3396e-05
-8.09014e-09
4.33738e-05
3.03512e-08
-4.33964e-05
-8.08692e-09
-6.04724e-12
4.33741e-05
3.03422e-08
-8.14344e-12
-6.61113e-09
2.49077e-08
-6.60815e-09
-5.14925e-12
2.48992e-08
-1.02568e-11
-1.56126e-05
1.56045e-05
-1.56127e-05
-5.9405e-12
1.56046e-05
-8.86897e-12
-5.07127e-12
1.04564e-13
-4.33966e-05
-8.08488e-09
4.33744e-05
3.03371e-08
-4.33966e-05
-8.08493e-09
6.2453e-12
4.33744e-05
3.03374e-08
1.32926e-13
-6.60632e-09
2.48944e-08
-6.60646e-09
5.38928e-12
2.4895e-08
1.28434e-13
-1.56127e-05
1.56047e-05
-1.56127e-05
6.17784e-12
1.56047e-05
1.49418e-13
5.33805e-12
9.6089e-12
-4.33964e-05
-8.08707e-09
4.33741e-05
3.03431e-08
-4.3396e-05
-8.09039e-09
7.73404e-12
4.33738e-05
3.03526e-08
8.31757e-12
-6.60855e-09
2.49009e-08
-6.61174e-09
6.91637e-12
2.49103e-08
1.04581e-11
-1.56127e-05
1.56046e-05
-1.56126e-05
1.18849e-11
1.56045e-05
9.06146e-12
1.04808e-11
1.32712e-11
-4.33957e-05
-8.10219e-09
4.33734e-05
3.03573e-08
-4.33955e-05
-8.09412e-09
4.33732e-05
3.03677e-08
1.14472e-11
-6.62209e-09
2.49157e-08
-6.61605e-09
2.49249e-08
1.68313e-12
-1.56125e-05
1.56044e-05
-1.56124e-05
1.56043e-05
1.93014e-12
-1.64349e-11
-4.33473e-05
-1.10208e-08
4.33171e-05
4.12129e-08
-4.33475e-05
-1.10328e-08
-8.87354e-12
4.33173e-05
4.12001e-08
-1.4699e-11
-9.44264e-09
3.53499e-08
-9.45248e-09
-8.15533e-12
3.53389e-08
-7.61545e-13
-1.55948e-05
1.55838e-05
-1.55949e-05
-1.40255e-11
1.55839e-05
-1.19607e-12
-1.27585e-11
-1.14577e-11
-4.33479e-05
-1.10182e-08
4.33177e-05
4.11966e-08
-4.33482e-05
-1.10146e-08
-7.47125e-12
4.33181e-05
4.11866e-08
-1.03774e-11
-9.43951e-09
3.5335e-08
-9.4361e-09
-6.70615e-12
3.53257e-08
-1.24873e-11
-1.5595e-05
1.5584e-05
-1.55951e-05
-7.35016e-12
1.55841e-05
-1.12823e-11
-6.58673e-12
7.04512e-14
-4.33485e-05
-1.10122e-08
4.33183e-05
4.11808e-08
-4.33485e-05
-1.10122e-08
7.61875e-12
4.33183e-05
4.11809e-08
1.05428e-13
-9.43391e-09
3.53202e-08
-9.43393e-09
6.91268e-12
3.53204e-08
6.86978e-14
-1.55952e-05
1.55842e-05
-1.55952e-05
7.49051e-12
1.55842e-05
1.14284e-13
6.81002e-12
1.15938e-11
-4.33482e-05
-1.10146e-08
4.33181e-05
4.11868e-08
-4.33479e-05
-1.10183e-08
8.91873e-12
4.33177e-05
4.11969e-08
1.05609e-11
-9.43617e-09
3.53261e-08
-9.43964e-09
8.2737e-12
3.53357e-08
1.26265e-11
-1.55951e-05
1.55841e-05
-1.5595e-05
1.41311e-11
1.5584e-05
1.14788e-11
1.29107e-11
1.66137e-11
-4.33475e-05
-1.1033e-08
4.33173e-05
4.12007e-08
-4.33473e-05
-1.10215e-08
4.33171e-05
4.1213e-08
1.47876e-11
-9.45274e-09
3.53398e-08
-9.44307e-09
3.53509e-08
9.12222e-13
-1.55949e-05
1.55839e-05
-1.55949e-05
1.55838e-05
1.31415e-12
-1.99283e-11
-4.32831e-05
-1.41805e-08
4.32444e-05
5.29473e-08
-4.32833e-05
-1.41963e-08
-1.01243e-11
4.32446e-05
5.29322e-08
-1.78747e-11
-1.24411e-08
4.64816e-08
-1.2455e-08
-9.39096e-12
4.64679e-08
1.65108e-14
-1.55714e-05
1.55572e-05
-1.55714e-05
-1.63375e-11
1.55573e-05
-3.3743e-13
-1.50009e-11
-1.33386e-11
-4.32837e-05
-1.41788e-08
4.32449e-05
5.29295e-08
-4.3284e-05
-1.41748e-08
-8.78227e-12
4.32453e-05
5.29188e-08
-1.22923e-11
-1.24391e-08
4.64649e-08
-1.24353e-08
-8.08246e-12
4.64546e-08
-1.46e-11
-1.55716e-05
1.55574e-05
-1.55717e-05
-8.64049e-12
1.55575e-05
-1.34399e-11
-7.95335e-12
3.49678e-14
-4.32843e-05
-1.41722e-08
4.32455e-05
5.29125e-08
-4.32843e-05
-1.41722e-08
8.85181e-12
4.32455e-05
5.29126e-08
2.08189e-14
-1.24329e-08
4.64486e-08
-1.24329e-08
8.13079e-12
4.64487e-08
3.60979e-14
-1.55718e-05
1.55576e-05
-1.55718e-05
8.71443e-12
1.55576e-05
2.55568e-14
8.00715e-12
1.33773e-11
-4.3284e-05
-1.41749e-08
4.32453e-05
5.2919e-08
-4.32837e-05
-1.41789e-08
1.00672e-11
4.32449e-05
5.29298e-08
1.23455e-11
-1.24354e-08
4.64548e-08
-1.24392e-08
9.37942e-12
4.64652e-08
1.46567e-11
-1.55717e-05
1.55575e-05
-1.55716e-05
1.63085e-11
1.55574e-05
1.35004e-11
1.50594e-11
2.02084e-11
-4.32833e-05
-1.41965e-08
4.32446e-05
5.29328e-08
-4.32831e-05
-1.41813e-08
4.32444e-05
5.29471e-08
1.81076e-11
-1.24552e-08
4.64685e-08
-1.24422e-08
4.64814e-08
6.13641e-14
-1.55715e-05
1.55573e-05
-1.55714e-05
1.55572e-05
4.22838e-13
-2.4433e-11
-4.32014e-05
-1.7682e-08
4.31532e-05
6.59347e-08
-4.32016e-05
-1.77013e-08
-1.12747e-11
4.31534e-05
6.59177e-08
-2.19524e-11
-1.57322e-08
5.8697e-08
-1.57496e-08
-1.0592e-11
5.86815e-08
6.35312e-13
-1.55415e-05
1.55238e-05
-1.55415e-05
-1.85369e-11
1.55238e-05
2.85923e-13
-1.72488e-11
-1.50187e-11
-4.3202e-05
-1.76806e-08
4.31537e-05
6.59156e-08
-4.32023e-05
-1.76764e-08
-9.91819e-12
4.31541e-05
6.59042e-08
-1.40535e-11
-1.57306e-08
5.86791e-08
-1.57265e-08
-9.26686e-12
5.86682e-08
-1.65105e-11
-1.55416e-05
1.5524e-05
-1.55418e-05
-9.71962e-12
1.55241e-05
-1.54141e-11
-9.09467e-12
1.22796e-13
-4.32026e-05
-1.76736e-08
4.31543e-05
6.58975e-08
-4.32026e-05
-1.76736e-08
1.01329e-11
4.31543e-05
6.58976e-08
8.66086e-14
-1.57239e-08
5.86617e-08
-1.57239e-08
9.4287e-12
5.86618e-08
1.27559e-13
-1.55418e-05
1.55241e-05
-1.55418e-05
9.94599e-12
1.55241e-05
9.68904e-14
9.27275e-12
1.51704e-11
-4.32023e-05
-1.76764e-08
4.31541e-05
6.59044e-08
-4.3202e-05
-1.76807e-08
1.13595e-11
4.31537e-05
6.59159e-08
1.41722e-11
-1.57266e-08
5.86684e-08
-1.57307e-08
1.06299e-11
5.86794e-08
1.66696e-11
-1.55418e-05
1.55241e-05
-1.55416e-05
1.86198e-11
1.5524e-05
1.55364e-11
1.72949e-11
2.44702e-11
-4.32016e-05
-1.77014e-08
4.31534e-05
6.59181e-08
-4.32014e-05
-1.76821e-08
4.31532e-05
6.59349e-08
2.20396e-11
-1.57497e-08
5.8682e-08
-1.57328e-08
5.8697e-08
-5.46392e-13
-1.55415e-05
1.55239e-05
-1.55415e-05
1.55238e-05
-2.77912e-13
-2.87344e-11
-4.31003e-05
-2.16213e-08
4.30414e-05
8.05253e-08
-4.31005e-05
-2.16453e-08
-1.23477e-11
4.30416e-05
8.05058e-08
-2.6253e-11
-1.94028e-08
7.23011e-08
-1.9424e-08
-1.17223e-11
7.22833e-08
1.64488e-12
-1.55044e-05
1.54828e-05
-1.55044e-05
-2.06194e-11
1.54828e-05
1.03034e-12
-1.94006e-11
-1.65121e-11
-4.31009e-05
-2.16211e-08
4.3042e-05
8.05045e-08
-4.31012e-05
-2.16167e-08
-1.09562e-11
4.30423e-05
8.04924e-08
-1.56315e-11
-1.94018e-08
7.22817e-08
-1.93975e-08
-1.0333e-11
7.22701e-08
-1.82626e-11
-1.55046e-05
1.54829e-05
-1.55047e-05
-1.0747e-11
1.5483e-05
-1.72202e-11
-1.01431e-11
1.04026e-13
-4.31014e-05
-2.16138e-08
4.30426e-05
8.04854e-08
-4.31014e-05
-2.16138e-08
1.11348e-11
4.30426e-05
8.04854e-08
1.21858e-13
-1.93947e-08
7.22633e-08
-1.93947e-08
1.05432e-11
7.22633e-08
7.57317e-14
-1.55047e-05
1.54831e-05
-1.55047e-05
1.08749e-11
1.54831e-05
9.10667e-14
1.03138e-11
1.66354e-11
-4.31012e-05
-2.16167e-08
4.30423e-05
8.04925e-08
-4.31009e-05
-2.16212e-08
1.24223e-11
4.3042e-05
8.05045e-08
1.57687e-11
-1.93976e-08
7.22702e-08
-1.94019e-08
1.17903e-11
7.22819e-08
1.83588e-11
-1.55047e-05
1.5483e-05
-1.55046e-05
2.07246e-11
1.54829e-05
1.73535e-11
1.94928e-11
2.88423e-11
-4.31005e-05
-2.16453e-08
4.30416e-05
8.05057e-08
-4.31003e-05
-2.16215e-08
4.30415e-05
8.05251e-08
2.63458e-11
-1.94241e-08
7.22835e-08
-1.94029e-08
7.23011e-08
-1.55184e-12
-1.55044e-05
1.54828e-05
-1.55044e-05
1.54828e-05
-1.01203e-12
-3.36963e-11
-4.29774e-05
-2.60744e-08
4.29065e-05
9.69892e-08
-4.29776e-05
-2.6103e-08
-1.3416e-11
4.29067e-05
9.6967e-08
-3.07541e-11
-2.35401e-08
8.76094e-08
-2.35659e-08
-1.27472e-11
8.75891e-08
2.96924e-12
-1.54592e-05
1.54331e-05
-1.54593e-05
-2.27019e-11
1.54332e-05
2.25905e-12
-2.14497e-11
-1.78912e-11
-4.29779e-05
-2.60753e-08
4.29071e-05
9.69667e-08
-4.29783e-05
-2.60707e-08
-1.18775e-11
4.29074e-05
9.69544e-08
-1.70314e-11
-2.35402e-08
8.75883e-08
-2.35358e-08
-1.13038e-11
8.75763e-08
-1.99408e-11
-1.54594e-05
1.54333e-05
-1.54595e-05
-1.16602e-11
1.54334e-05
-1.89103e-11
-1.11011e-11
1.3075e-13
-4.29785e-05
-2.60677e-08
4.29076e-05
9.69471e-08
-4.29785e-05
-2.60677e-08
1.21304e-11
4.29076e-05
9.69472e-08
1.09658e-13
-2.35329e-08
8.75692e-08
-2.35329e-08
1.14987e-11
8.75692e-08
1.2917e-13
-1.54596e-05
1.54335e-05
-1.54596e-05
1.19008e-11
1.54335e-05
8.11469e-14
1.12534e-11
1.81001e-11
-4.29783e-05
-2.60707e-08
4.29074e-05
9.69545e-08
-4.29779e-05
-2.60753e-08
1.35368e-11
4.29071e-05
9.69669e-08
1.71777e-11
-2.35358e-08
8.75763e-08
-2.35403e-08
1.2847e-11
8.75884e-08
2.01479e-11
-1.54595e-05
1.54334e-05
-1.54594e-05
2.28874e-11
1.54333e-05
1.9057e-11
2.16102e-11
3.35934e-11
-4.29776e-05
-2.61031e-08
4.29067e-05
9.69673e-08
-4.29774e-05
-2.60744e-08
4.29065e-05
9.69897e-08
3.08431e-11
-2.3566e-08
8.75892e-08
-2.35401e-08
8.76094e-08
-2.91443e-12
-1.54593e-05
1.54332e-05
-1.54592e-05
1.54331e-05
-2.13234e-12
-3.85742e-11
-4.28299e-05
-3.11035e-08
4.27454e-05
1.15557e-07
-4.283e-05
-3.11378e-08
-1.44679e-11
4.27456e-05
1.15532e-07
-3.57025e-11
-2.82301e-08
1.04935e-07
-2.8261e-08
-1.37823e-11
1.04913e-07
4.82602e-12
-1.54049e-05
1.53738e-05
-1.5405e-05
-2.48436e-11
1.53739e-05
3.84984e-12
-2.35308e-11
-1.92863e-11
-4.28304e-05
-3.11061e-08
4.2746e-05
1.15533e-07
-4.28307e-05
-3.11014e-08
-1.28643e-11
4.27463e-05
1.1552e-07
-1.83944e-11
-2.82315e-08
1.04913e-07
-2.82269e-08
-1.22401e-11
1.049e-07
-2.16969e-11
-1.54051e-05
1.5374e-05
-1.54052e-05
-1.2653e-11
1.53741e-05
-2.06012e-11
-1.20133e-11
6.26609e-14
-4.28309e-05
-3.10984e-08
4.27465e-05
1.15513e-07
-4.28309e-05
-3.10985e-08
1.29984e-11
4.27465e-05
1.15513e-07
1.07165e-13
-2.8224e-08
1.04893e-07
-2.8224e-08
1.24479e-11
1.04893e-07
7.19055e-14
-1.54053e-05
1.53741e-05
-1.54053e-05
1.27894e-11
1.53741e-05
1.2336e-13
1.22296e-11
1.9425e-11
-4.28307e-05
-3.11014e-08
4.27463e-05
1.1552e-07
-4.28304e-05
-3.11062e-08
1.4568e-11
4.2746e-05
1.15533e-07
1.85705e-11
-2.8227e-08
1.04901e-07
-2.82316e-08
1.3902e-11
1.04913e-07
2.18107e-11
-1.54052e-05
1.53741e-05
-1.54051e-05
2.49148e-11
1.5374e-05
2.07605e-11
2.36419e-11
3.86925e-11
-4.283e-05
-3.1138e-08
4.27456e-05
1.15532e-07
-4.28299e-05
-3.11036e-08
4.27454e-05
1.15558e-07
3.5694e-11
-2.82611e-08
1.04913e-07
-2.82302e-08
1.04936e-07
-4.77713e-12
-1.5405e-05
1.53739e-05
-1.54049e-05
1.53738e-05
-3.7826e-12
-4.42424e-11
-4.26545e-05
-3.67999e-08
4.25548e-05
1.36565e-07
-4.26547e-05
-3.68408e-08
-1.55427e-11
4.2555e-05
1.36536e-07
-4.08603e-11
-3.35367e-08
1.24515e-07
-3.35739e-08
-1.48925e-11
1.24489e-07
6.73999e-12
-1.53402e-05
1.53034e-05
-1.53403e-05
-2.68797e-11
1.53035e-05
5.71842e-12
-2.56359e-11
-2.06026e-11
-4.2655e-05
-3.68048e-08
4.25553e-05
1.36538e-07
-4.26553e-05
-3.67998e-08
-1.37673e-11
4.25556e-05
1.36525e-07
-1.97949e-11
-3.35403e-08
1.2449e-07
-3.35355e-08
-1.32138e-11
1.24477e-07
-2.32856e-11
-1.53404e-05
1.53036e-05
-1.53405e-05
-1.34995e-11
1.53037e-05
-2.22964e-11
-1.29489e-11
6.06247e-14
-4.26556e-05
-3.67968e-08
4.25558e-05
1.36517e-07
-4.26556e-05
-3.67968e-08
1.38957e-11
4.25558e-05
1.36517e-07
5.4044e-14
-3.35325e-08
1.2447e-07
-3.35325e-08
1.33216e-11
1.2447e-07
8.6304e-14
-1.53406e-05
1.53038e-05
-1.53406e-05
1.36693e-11
1.53038e-05
9.39312e-14
1.31161e-11
2.07376e-11
-4.26554e-05
-3.67998e-08
4.25556e-05
1.36525e-07
-4.2655e-05
-3.68047e-08
1.5627e-11
4.25553e-05
1.36538e-07
1.98935e-11
-3.35354e-08
1.24477e-07
-3.35402e-08
1.49493e-11
1.2449e-07
2.34526e-11
-1.53405e-05
1.53037e-05
-1.53404e-05
2.70048e-11
1.53036e-05
2.24136e-11
2.56822e-11
4.43836e-11
-4.26547e-05
-3.68407e-08
4.2555e-05
1.36536e-07
-4.26545e-05
-3.68e-08
4.25548e-05
1.36564e-07
4.0991e-11
-3.35738e-08
1.24489e-07
-3.35371e-08
1.24515e-07
-6.69753e-12
-1.53403e-05
1.53035e-05
-1.53403e-05
1.53034e-05
-5.73328e-12
-5.05529e-11
-4.24478e-05
-4.32032e-08
4.23309e-05
1.60151e-07
-4.24479e-05
-4.32509e-08
-1.64131e-11
4.2331e-05
1.6012e-07
-4.68668e-11
-3.95288e-08
1.46597e-07
-3.95722e-08
-1.58233e-11
1.46567e-07
8.98571e-12
-1.52639e-05
1.52207e-05
-1.5264e-05
-2.85674e-11
1.52208e-05
7.84776e-12
-2.74597e-11
-2.16231e-11
-4.24483e-05
-4.32102e-08
4.23313e-05
1.60123e-07
-4.24486e-05
-4.32052e-08
-1.44463e-11
4.23317e-05
1.60109e-07
-2.09406e-11
-3.95342e-08
1.4657e-07
-3.95292e-08
-1.39813e-11
1.46557e-07
-2.45634e-11
-1.52641e-05
1.52209e-05
-1.52642e-05
-1.41431e-11
1.5221e-05
-2.37064e-11
-1.36904e-11
1.1574e-13
-4.24488e-05
-4.32022e-08
4.23319e-05
1.60101e-07
-4.24488e-05
-4.32022e-08
1.46752e-11
4.23319e-05
1.60101e-07
1.01701e-13
-3.95263e-08
1.46549e-07
-3.95263e-08
1.41759e-11
1.46549e-07
1.26487e-13
-1.52643e-05
1.5221e-05
-1.52643e-05
1.43984e-11
1.5221e-05
1.16863e-13
1.39269e-11
2.18206e-11
-4.24486e-05
-4.32051e-08
4.23317e-05
1.60109e-07
-4.24483e-05
-4.32102e-08
1.65203e-11
4.23314e-05
1.60123e-07
2.11143e-11
-3.95292e-08
1.46557e-07
-3.95342e-08
1.59536e-11
1.4657e-07
2.48335e-11
-1.52642e-05
1.5221e-05
-1.52641e-05
2.88246e-11
1.52209e-05
2.39532e-11
2.76888e-11
5.04775e-11
-4.24479e-05
-4.32508e-08
4.2331e-05
1.6012e-07
-4.24478e-05
-4.32029e-08
4.23309e-05
1.60152e-07
4.69047e-11
-3.95721e-08
1.46567e-07
-3.95287e-08
1.46597e-07
-9.08548e-12
-1.5264e-05
1.52208e-05
-1.52639e-05
1.52207e-05
-7.75146e-12
-5.70638e-11
-4.22058e-05
-5.04206e-08
4.20696e-05
1.86722e-07
-4.2206e-05
-5.04766e-08
-1.72713e-11
4.20697e-05
1.86687e-07
-5.315e-11
-4.62476e-08
1.71334e-07
-4.62981e-08
-1.66308e-11
1.71302e-07
1.21169e-11
-1.51744e-05
1.5124e-05
-1.51745e-05
-3.02326e-11
1.51241e-05
1.05575e-11
-2.90712e-11
-2.2586e-11
-4.22063e-05
-5.0431e-08
4.20701e-05
1.86691e-07
-4.22066e-05
-5.04258e-08
-1.51395e-11
4.20704e-05
1.86677e-07
-2.18645e-11
-4.62555e-08
1.71305e-07
-4.62505e-08
-1.46373e-11
1.71292e-07
-2.58966e-11
-1.51746e-05
1.51242e-05
-1.51747e-05
-1.48609e-11
1.51243e-05
-2.49649e-11
-1.43648e-11
6.65126e-14
-4.22068e-05
-5.0423e-08
4.20706e-05
1.86669e-07
-4.22068e-05
-5.0423e-08
1.52832e-11
4.20706e-05
1.86669e-07
8.82754e-14
-4.62476e-08
1.71284e-07
-4.62477e-08
1.48151e-11
1.71284e-07
5.25219e-14
-1.51748e-05
1.51243e-05
-1.51748e-05
1.49891e-11
1.51243e-05
7.02413e-14
1.45304e-11
2.27274e-11
-4.22066e-05
-5.04259e-08
4.20704e-05
1.86677e-07
-4.22063e-05
-5.0431e-08
1.73571e-11
4.20701e-05
1.86691e-07
2.20401e-11
-4.62506e-08
1.71292e-07
-4.62556e-08
1.67733e-11
1.71305e-07
2.60781e-11
-1.51747e-05
1.51243e-05
-1.51746e-05
3.04617e-11
1.51242e-05
2.52014e-11
2.93658e-11
5.69859e-11
-4.2206e-05
-5.04765e-08
4.20697e-05
1.86686e-07
-4.22058e-05
-5.04203e-08
4.20696e-05
1.86722e-07
5.31136e-11
-4.62982e-08
1.71301e-07
-4.62471e-08
1.71334e-07
-1.2132e-11
-1.51745e-05
1.51241e-05
-1.51744e-05
1.5124e-05
-1.03872e-11
-6.41111e-11
-4.19244e-05
-5.84304e-08
4.17667e-05
2.16195e-07
-4.19245e-05
-5.84949e-08
-1.81315e-11
4.17668e-05
2.16156e-07
-5.98539e-11
-5.37829e-08
1.99064e-07
-5.38417e-08
-1.74942e-11
1.99028e-07
1.56879e-11
-1.50702e-05
1.50118e-05
-1.50703e-05
-3.19392e-11
1.50118e-05
1.38281e-11
-3.07535e-11
-2.35816e-11
-4.19248e-05
-5.8444e-08
4.17671e-05
2.16161e-07
-4.19251e-05
-5.84387e-08
-1.58651e-11
4.17674e-05
2.16148e-07
-2.28408e-11
-5.3794e-08
1.99033e-07
-5.37889e-08
-1.53526e-11
1.99019e-07
-2.73005e-11
-1.50704e-05
1.50119e-05
-1.50705e-05
-1.56106e-11
1.5012e-05
-2.63325e-11
-1.5101e-11
1.90234e-14
-4.19253e-05
-5.8436e-08
4.17676e-05
2.1614e-07
-4.19253e-05
-5.8436e-08
1.59374e-11
4.17676e-05
2.1614e-07
3.11972e-14
-5.37861e-08
1.99011e-07
-5.37861e-08
1.5438e-11
1.99011e-07
2.16668e-15
-1.50705e-05
1.50121e-05
-1.50705e-05
1.56475e-11
1.50121e-05
5.63406e-15
1.51371e-11
2.36888e-11
-4.19251e-05
-5.84388e-08
4.17674e-05
2.16148e-07
-4.19248e-05
-5.84441e-08
1.82165e-11
4.17671e-05
2.16161e-07
2.29576e-11
-5.37889e-08
1.99019e-07
-5.3794e-08
1.76037e-11
1.99032e-07
2.74023e-11
-1.50705e-05
1.5012e-05
-1.50704e-05
3.21105e-11
1.50119e-05
2.64415e-11
3.0949e-11
6.40101e-11
-4.19245e-05
-5.8495e-08
4.17668e-05
2.16156e-07
-4.19244e-05
-5.843e-08
4.17667e-05
2.16196e-07
5.98116e-11
-5.38417e-08
1.99028e-07
-5.37822e-08
1.99064e-07
-1.56656e-11
-1.50703e-05
1.50118e-05
-1.50702e-05
1.50118e-05
-1.36812e-11
-7.15923e-11
-4.15991e-05
-6.733e-08
4.14175e-05
2.4894e-07
-4.15992e-05
-6.74041e-08
-1.89532e-11
4.14177e-05
2.48897e-07
-6.70865e-11
-6.21356e-08
2.29793e-07
-6.22034e-08
-1.83349e-11
2.29754e-07
1.97991e-11
-1.49496e-05
1.48823e-05
-1.49497e-05
-3.35669e-11
1.48823e-05
1.75477e-11
-3.24207e-11
-2.45063e-11
-4.15995e-05
-6.73473e-08
4.1418e-05
2.48903e-07
-4.15998e-05
-6.73418e-08
-1.65409e-11
4.14183e-05
2.48889e-07
-2.38053e-11
-6.21501e-08
2.29759e-07
-6.21448e-08
-1.60565e-11
2.29746e-07
-2.86371e-11
-1.49498e-05
1.48824e-05
-1.49499e-05
-1.6309e-11
1.48825e-05
-2.76979e-11
-1.58081e-11
-1.57071e-14
-4.16e-05
-6.73391e-08
4.14184e-05
2.48881e-07
-4.16e-05
-6.73391e-08
1.65577e-11
4.14184e-05
2.48881e-07
9.62576e-15
-6.2142e-08
2.29738e-07
-6.21421e-08
1.61144e-11
2.29738e-07
-3.34561e-14
-1.49499e-05
1.48826e-05
-1.49499e-05
1.62813e-11
1.48826e-05
1.83859e-16
1.58178e-11
2.45828e-11
-4.15998e-05
-6.73419e-08
4.14183e-05
2.4889e-07
-4.15995e-05
-6.73475e-08
1.90328e-11
4.1418e-05
2.48904e-07
2.39144e-11
-6.21448e-08
2.29746e-07
-6.21502e-08
1.84237e-11
2.2976e-07
2.86913e-11
-1.49499e-05
1.48825e-05
-1.49498e-05
3.3701e-11
1.48824e-05
2.77573e-11
3.25586e-11
7.14957e-11
-4.15992e-05
-6.74044e-08
4.14177e-05
2.48897e-07
-4.15991e-05
-6.73298e-08
4.14176e-05
2.48941e-07
6.69695e-11
-6.22036e-08
2.29754e-07
-6.21353e-08
2.29794e-07
-1.97676e-11
-1.49497e-05
1.48823e-05
-1.49496e-05
1.48823e-05
-1.74559e-11
-7.92909e-11
-4.12252e-05
-7.7098e-08
4.10175e-05
2.84882e-07
-4.12253e-05
-7.71828e-08
-1.9706e-11
4.10176e-05
2.84834e-07
-7.45972e-11
-7.13895e-08
2.63839e-07
-7.14674e-08
-1.91221e-11
2.63795e-07
2.45789e-11
-1.48109e-05
1.47337e-05
-1.48109e-05
-3.49405e-11
1.47338e-05
2.19892e-11
-3.38989e-11
-2.52533e-11
-4.12256e-05
-7.71198e-08
4.10179e-05
2.84842e-07
-4.12259e-05
-7.71141e-08
-1.70995e-11
4.10182e-05
2.84828e-07
-2.46347e-11
-7.14082e-08
2.63802e-07
-7.14025e-08
-1.66795e-11
2.63788e-07
-2.97699e-11
-1.4811e-05
1.47339e-05
-1.48111e-05
-1.6866e-11
1.4734e-05
-2.89227e-11
-1.64342e-11
-5.244e-14
-4.12261e-05
-7.71115e-08
4.10183e-05
2.8482e-07
-4.12261e-05
-7.71115e-08
1.70277e-11
4.10183e-05
2.8482e-07
-4.21858e-14
-7.13999e-08
2.6378e-07
-7.13999e-08
1.66456e-11
2.6378e-07
-6.00328e-14
-1.48112e-05
1.4734e-05
-1.48112e-05
1.67787e-11
1.4734e-05
-3.75607e-14
1.63813e-11
2.52409e-11
-4.12259e-05
-7.71142e-08
4.10182e-05
2.84828e-07
-4.12256e-05
-7.71201e-08
1.97597e-11
4.10179e-05
2.84843e-07
2.46902e-11
-7.14027e-08
2.63789e-07
-7.14084e-08
1.92132e-11
2.63803e-07
2.97669e-11
-1.48111e-05
1.4734e-05
-1.4811e-05
3.5012e-11
1.47339e-05
2.89417e-11
3.40145e-11
7.92973e-11
-4.12253e-05
-7.71831e-08
4.10176e-05
2.84835e-07
-4.12252e-05
-7.7098e-08
4.10175e-05
2.84883e-07
7.45839e-11
-7.14677e-08
2.63796e-07
-7.13896e-08
2.6384e-07
-2.45087e-11
-1.48109e-05
1.47338e-05
-1.48109e-05
1.47337e-05
-2.18312e-11
-8.74839e-11
-4.07979e-05
-8.78065e-08
4.05615e-05
3.24302e-07
-4.0798e-05
-8.79031e-08
-2.04301e-11
4.05616e-05
3.24249e-07
-8.24302e-11
-8.15432e-08
3.01202e-07
-8.16321e-08
-1.98598e-11
3.01154e-07
2.98706e-11
-1.46522e-05
1.45643e-05
-1.46522e-05
-3.61725e-11
1.45644e-05
2.69673e-11
-3.52023e-11
-2.58918e-11
-4.07983e-05
-8.78337e-08
4.05619e-05
3.24258e-07
-4.07986e-05
-8.78277e-08
-1.75918e-11
4.05621e-05
3.24244e-07
-2.53073e-11
-8.15666e-08
3.01162e-07
-8.15608e-08
-1.71851e-11
3.01148e-07
-3.08112e-11
-1.46523e-05
1.45645e-05
-1.46524e-05
-1.7349e-11
1.45646e-05
-3.0005e-11
-1.69537e-11
-5.57233e-14
-4.07987e-05
-8.78251e-08
4.05623e-05
3.24236e-07
-4.07987e-05
-8.78251e-08
1.75109e-11
4.05623e-05
3.24236e-07
-7.0976e-14
-8.15582e-08
3.0114e-07
-8.15582e-08
1.70857e-11
3.0114e-07
-4.78287e-14
-1.46525e-05
1.45646e-05
-1.46525e-05
1.72798e-11
1.45646e-05
-5.76919e-14
1.68665e-11
2.58759e-11
-4.07986e-05
-8.78277e-08
4.05621e-05
3.24244e-07
-4.07983e-05
-8.78338e-08
2.04694e-11
4.05619e-05
3.24258e-07
2.52953e-11
-8.15608e-08
3.01148e-07
-8.15667e-08
1.9897e-11
3.01162e-07
3.08006e-11
-1.46524e-05
1.45646e-05
-1.46523e-05
3.61918e-11
1.45645e-05
2.9983e-11
3.52316e-11
8.75844e-11
-4.0798e-05
-8.79033e-08
4.05616e-05
3.24249e-07
-4.07979e-05
-8.78067e-08
4.05615e-05
3.24302e-07
8.24761e-11
-8.16323e-08
3.01154e-07
-8.15435e-08
3.01203e-07
-2.98303e-11
-1.46522e-05
1.45644e-05
-1.46522e-05
1.45643e-05
-2.68966e-11
-9.65275e-11
-4.03124e-05
-9.93764e-08
4.00449e-05
3.66916e-07
-4.03125e-05
-9.94852e-08
-2.12483e-11
4.0045e-05
3.66859e-07
-9.09757e-11
-9.25613e-08
3.41764e-07
-9.26618e-08
-2.06282e-11
3.41711e-07
3.52418e-11
-1.44717e-05
1.43723e-05
-1.44718e-05
-3.73463e-11
1.43724e-05
3.22696e-11
-3.6342e-11
-2.64795e-11
-4.03127e-05
-9.94089e-08
4.00453e-05
3.66869e-07
-4.0313e-05
-9.94026e-08
-1.80235e-11
4.00455e-05
3.66855e-07
-2.59247e-11
-9.25897e-08
3.41721e-07
-9.25835e-08
-1.76391e-11
3.41707e-07
-3.17725e-11
-1.44719e-05
1.43725e-05
-1.4472e-05
-1.77634e-11
1.43726e-05
-3.09571e-11
-1.73822e-11
-3.59091e-14
-4.03132e-05
-9.94001e-08
4.00457e-05
3.66846e-07
-4.03132e-05
-9.94001e-08
1.79782e-11
4.00457e-05
3.66846e-07
-5.41607e-14
-9.25811e-08
3.41699e-07
-9.2581e-08
1.75755e-11
3.41699e-07
1.01557e-15
-1.4472e-05
1.43726e-05
-1.4472e-05
1.7777e-11
1.43726e-05
-3.08128e-14
1.73474e-11
2.64793e-11
-4.0313e-05
-9.94025e-08
4.00455e-05
3.66855e-07
-4.03127e-05
-9.94088e-08
2.12424e-11
4.00453e-05
3.66869e-07
2.59375e-11
-9.25835e-08
3.41707e-07
-9.25897e-08
2.06398e-11
3.41721e-07
3.18069e-11
-1.4472e-05
1.43726e-05
-1.44719e-05
3.73578e-11
1.43725e-05
3.09724e-11
3.63865e-11
9.65171e-11
-4.03125e-05
-9.94852e-08
4.0045e-05
3.66859e-07
-4.03124e-05
-9.93764e-08
4.00449e-05
3.66917e-07
9.10193e-11
-9.26619e-08
3.41712e-07
-9.25615e-08
3.41765e-07
-3.5313e-11
-1.44718e-05
1.43724e-05
-1.44717e-05
1.43723e-05
-3.22363e-11
-1.05892e-10
-3.97638e-05
-1.11843e-07
3.94628e-05
4.12881e-07
-3.97639e-05
-1.11965e-07
-2.18935e-11
3.94629e-05
4.12818e-07
-1.00187e-10
-1.045e-07
3.85752e-07
-1.04613e-07
-2.1408e-11
3.85695e-07
4.11723e-11
-1.42678e-05
1.41559e-05
-1.42679e-05
-3.83649e-11
1.4156e-05
3.78353e-11
-3.74826e-11
-2.69018e-11
-3.97641e-05
-1.11882e-07
3.94632e-05
4.1283e-07
-3.97644e-05
-1.11875e-07
-1.83307e-11
3.94634e-05
4.12815e-07
-2.64329e-11
-1.04534e-07
3.85706e-07
-1.04527e-07
-1.80106e-11
3.85691e-07
-3.26153e-11
-1.42679e-05
1.41561e-05
-1.4268e-05
-1.80837e-11
1.41561e-05
-3.18892e-11
-1.7761e-11
1.23749e-14
-3.97645e-05
-1.11873e-07
3.94636e-05
4.12807e-07
-3.97645e-05
-1.11873e-07
1.83392e-11
3.94636e-05
4.12807e-07
-1.9089e-14
-1.04525e-07
3.85683e-07
-1.04525e-07
1.7989e-11
3.85683e-07
5.98721e-14
-1.42681e-05
1.41562e-05
-1.42681e-05
1.81766e-11
1.41562e-05
3.58084e-14
1.78132e-11
2.68763e-11
-3.97644e-05
-1.11875e-07
3.94634e-05
4.12815e-07
-3.97641e-05
-1.11882e-07
2.19003e-11
3.94632e-05
4.12829e-07
2.64267e-11
-1.04527e-07
3.85691e-07
-1.04533e-07
2.13627e-11
3.85706e-07
3.26353e-11
-1.4268e-05
1.41561e-05
-1.42679e-05
3.83057e-11
1.41561e-05
3.19197e-11
3.75026e-11
1.05837e-10
-3.97639e-05
-1.11965e-07
3.94629e-05
4.12818e-07
-3.97638e-05
-1.11843e-07
3.94629e-05
4.12881e-07
1.0012e-10
-1.04612e-07
3.85695e-07
-1.04499e-07
3.85752e-07
-4.13185e-11
-1.42679e-05
1.4156e-05
-1.42678e-05
1.41559e-05
-3.78431e-11
-1.15483e-10
-3.91475e-05
-1.25114e-07
3.88109e-05
4.61871e-07
-3.91476e-05
-1.2525e-07
-2.26901e-11
3.88109e-05
4.61803e-07
-1.09592e-10
-1.17225e-07
4.32687e-07
-1.17351e-07
-2.22299e-11
4.32624e-07
4.77311e-11
-1.40386e-05
1.39135e-05
-1.40387e-05
-3.9273e-11
1.39135e-05
4.40628e-11
-3.83785e-11
-2.72994e-11
-3.91478e-05
-1.25159e-07
3.88111e-05
4.61816e-07
-3.9148e-05
-1.25152e-07
-1.86369e-11
3.88114e-05
4.61801e-07
-2.68577e-11
-1.17264e-07
4.32637e-07
-1.17257e-07
-1.83005e-11
4.32622e-07
-3.34218e-11
-1.40388e-05
1.39136e-05
-1.40389e-05
-1.83909e-11
1.39137e-05
-3.26612e-11
-1.8037e-11
2.23463e-14
-3.91482e-05
-1.2515e-07
3.88115e-05
4.61793e-07
-3.91482e-05
-1.2515e-07
1.86373e-11
3.88115e-05
4.61793e-07
2.74282e-14
-1.17255e-07
4.32614e-07
-1.17255e-07
1.83149e-11
4.32614e-07
7.35204e-14
-1.40389e-05
1.39137e-05
-1.40389e-05
1.84928e-11
1.39137e-05
7.94539e-14
1.81335e-11
2.72021e-11
-3.9148e-05
-1.25152e-07
3.88114e-05
4.61801e-07
-3.91478e-05
-1.25159e-07
2.26186e-11
3.88112e-05
4.61816e-07
2.67648e-11
-1.17257e-07
4.32622e-07
-1.17264e-07
2.20683e-11
4.32636e-07
3.33937e-11
-1.40389e-05
1.39137e-05
-1.40388e-05
3.91635e-11
1.39136e-05
3.26496e-11
3.83053e-11
1.15445e-10
-3.91476e-05
-1.2525e-07
3.88109e-05
4.61803e-07
-3.91475e-05
-1.25114e-07
3.88109e-05
4.61871e-07
1.09484e-10
-1.1735e-07
4.32624e-07
-1.17224e-07
4.32687e-07
-4.78677e-11
-1.40387e-05
1.39135e-05
-1.40386e-05
1.39135e-05
-4.40863e-11
-1.25245e-10
-3.84591e-05
-1.39108e-07
3.80847e-05
5.13612e-07
-3.84592e-05
-1.39258e-07
-2.27072e-11
3.80848e-05
5.13538e-07
-1.19145e-10
-1.30737e-07
4.82598e-07
-1.30877e-07
-2.24802e-11
4.82531e-07
5.46654e-11
-1.37827e-05
1.36435e-05
-1.37828e-05
-4.00078e-11
1.36436e-05
5.07101e-11
-3.92275e-11
-2.73842e-11
-3.84594e-05
-1.3916e-07
3.8085e-05
5.13553e-07
-3.84596e-05
-1.39152e-07
-1.8888e-11
3.80852e-05
5.13538e-07
-2.70535e-11
-1.30783e-07
4.82545e-07
-1.30776e-07
-1.85639e-11
4.8253e-07
-3.40463e-11
-1.37828e-05
1.36437e-05
-1.37829e-05
-1.8699e-11
1.36437e-05
-3.33816e-11
-1.83548e-11
-4.9724e-14