/*--------------------------------*- C++ -*----------------------------------*\
  =========                 |
  \\      /  F ield         | OpenFOAM: The Open Source CFD Toolbox
   \\    /   O peration     | Website:  https://openfoam.org
    \\  /    A nd           | Version:  9
     \\/     M anipulation  |
\*---------------------------------------------------------------------------*/
FoamFile
{
    format      ascii;
    class       volVectorField;
    location    "0.3";
    object      U;
}
// * * * * * * * * * * * * * * * * * * * * * * * * * * * * * * * * * * * * * //

dimensions      [0 1 -1 0 0 0 0];

internalField   nonuniform List<vector> 
36360
(
(6.38262e-06 -0.0825691 -0.935963)
(6.31953e-06 -0.0825692 -1.66682e-08)
(8.20893e-06 -0.0825836 -0.94592)
(8.25612e-06 -0.082584 1.60565e-08)
(9.44476e-07 -0.0297052 -0.923535)
(8.99159e-07 -0.0297051 -1.23992e-08)
(1.99694e-06 -0.0297131 -0.932517)
(2.00644e-06 -0.0297132 1.51284e-08)
(6.29693e-06 -0.0825698 -2.30653e-09)
(6.28537e-06 -0.0825704 -1.38841e-09)
(8.26105e-06 -0.0825846 -6.90452e-11)
(8.2547e-06 -0.0825852 -8.36708e-10)
(8.88178e-07 -0.0297053 -2.94416e-09)
(8.84944e-07 -0.0297055 -1.63972e-09)
(2.00621e-06 -0.0297134 1.24919e-10)
(2.00395e-06 -0.0297136 -7.90292e-10)
(6.28062e-06 -0.0825708 -4.31671e-10)
(6.28468e-06 -0.0825709 7.59602e-10)
(8.25147e-06 -0.0825856 -1.55819e-10)
(8.25704e-06 -0.0825857 6.55533e-10)
(8.83725e-07 -0.0297056 -4.26687e-10)
(8.84496e-07 -0.0297056 9.23305e-10)
(2.00287e-06 -0.0297138 -1.22585e-10)
(2.00429e-06 -0.0297138 7.12089e-10)
(6.29715e-06 -0.0825705 1.70194e-09)
(6.31525e-06 -0.0825699 2.58678e-09)
(8.27089e-06 -0.0825853 1.28817e-09)
(8.28631e-06 -0.0825847 4.37757e-10)
(8.87147e-07 -0.0297055 2.09484e-09)
(8.91639e-07 -0.0297053 3.30396e-09)
(2.0081e-06 -0.0297137 1.30327e-09)
(2.01273e-06 -0.0297135 2.70873e-10)
(6.34258e-06 -0.0825693 1.68932e-08)
(6.4081e-06 -0.0825692 0.935963)
(8.28787e-06 -0.0825841 -1.58844e-08)
(8.2439e-06 -0.0825838 0.94592)
(9.03597e-07 -0.0297052 1.26527e-08)
(9.49125e-07 -0.0297052 0.923535)
(2.01467e-06 -0.0297133 -1.49481e-08)
(2.00584e-06 -0.0297132 0.932517)
(9.15334e-06 -0.0825453 -0.935135)
(9.1385e-06 -0.0825457 -7.91096e-09)
(6.80559e-06 -0.0825587 -0.935385)
(6.78563e-06 -0.0825591 -7.94028e-09)
(9.08535e-07 -0.0296969 -0.922726)
(8.80884e-07 -0.0296971 -5.60877e-09)
(6.81526e-07 -0.0297014 -0.922971)
(6.57945e-07 -0.0297016 -6.70515e-09)
(9.12848e-06 -0.0825464 -5.03253e-09)
(9.12065e-06 -0.082547 -3.41597e-09)
(6.77837e-06 -0.0825598 -2.36091e-09)
(6.77182e-06 -0.0825605 -1.92239e-09)
(8.72194e-07 -0.0296973 -5.32819e-09)
(8.70039e-07 -0.0296975 -3.62635e-09)
(6.54072e-07 -0.0297018 -3.19485e-09)
(6.5321e-07 -0.029702 -2.19185e-09)
(9.11625e-06 -0.0825474 -1.13977e-09)
(9.11839e-06 -0.0825474 1.61873e-09)
(6.76802e-06 -0.0825609 -6.77777e-10)
(6.771e-06 -0.0825609 1.1136e-09)
(8.69064e-07 -0.0296976 -1.15212e-09)
(8.69393e-07 -0.0296976 1.69344e-09)
(6.52579e-07 -0.0297021 -6.8035e-10)
(6.53044e-07 -0.0297021 1.24046e-09)
(9.12684e-06 -0.082547 3.80641e-09)
(9.13808e-06 -0.0825464 5.27359e-09)
(6.78045e-06 -0.0825605 2.3038e-09)
(6.79175e-06 -0.0825599 2.6382e-09)
(8.70961e-07 -0.0296975 4.08551e-09)
(8.73608e-07 -0.0296973 5.63848e-09)
(6.54573e-07 -0.029702 2.67476e-09)
(6.56204e-07 -0.0297018 3.54933e-09)
(9.15056e-06 -0.0825457 8.08808e-09)
(9.16663e-06 -0.0825453 0.935135)
(6.80239e-06 -0.0825592 8.11387e-09)
(6.82407e-06 -0.0825588 0.935385)
(8.82701e-07 -0.0296971 5.78728e-09)
(9.10843e-07 -0.029697 0.922726)
(6.60654e-07 -0.0297016 6.90316e-09)
(6.84441e-07 -0.0297014 0.922971)
(1.68128e-05 -0.0825019 -0.934278)
(1.67869e-05 -0.0825024 -1.05598e-08)
(1.26599e-05 -0.0825266 -0.934529)
(1.2638e-05 -0.082527 -9.40399e-09)
(1.88284e-06 -0.0296818 -0.92189)
(1.83147e-06 -0.0296819 -5.96628e-09)
(1.34784e-06 -0.0296905 -0.922135)
(1.30827e-06 -0.0296906 -5.88701e-09)
(1.67733e-05 -0.082503 -8.08773e-09)
(1.6765e-05 -0.0825037 -5.86982e-09)
(1.26251e-05 -0.0825277 -6.70897e-09)
(1.26168e-05 -0.0825284 -4.64776e-09)
(1.81487e-06 -0.0296821 -8.43446e-09)
(1.81132e-06 -0.0296823 -6.1872e-09)
(1.29504e-06 -0.0296908 -6.99143e-09)
(1.29207e-06 -0.0296911 -4.93634e-09)
(1.67603e-05 -0.0825041 -2.1071e-09)
(1.67612e-05 -0.0825041 2.44833e-09)
(1.26122e-05 -0.0825288 -1.61132e-09)
(1.26137e-05 -0.0825288 2.01274e-09)
(1.81003e-06 -0.0296825 -2.14734e-09)
(1.81012e-06 -0.0296825 2.49646e-09)
(1.29095e-06 -0.0296912 -1.65598e-09)
(1.29115e-06 -0.0296912 2.07131e-09)
(1.67676e-05 -0.0825037 6.14117e-09)
(1.67773e-05 -0.0825031 8.24278e-09)
(1.2621e-05 -0.0825284 4.97248e-09)
(1.26316e-05 -0.0825277 6.90838e-09)
(1.81159e-06 -0.0296823 6.47294e-09)
(1.81526e-06 -0.0296821 8.61693e-09)
(1.29263e-06 -0.0296911 5.28988e-09)
(1.29588e-06 -0.0296909 7.2486e-09)
(1.67919e-05 -0.0825024 1.07545e-08)
(1.68185e-05 -0.082502 0.934278)
(1.26461e-05 -0.0825271 9.58011e-09)
(1.2669e-05 -0.0825267 0.934529)
(1.83198e-06 -0.0296819 6.11163e-09)
(1.88416e-06 -0.0296818 0.92189)
(1.30931e-06 -0.0296906 6.03057e-09)
(1.34984e-06 -0.0296905 0.922135)
(2.60149e-05 -0.0824321 -0.933396)
(2.598e-05 -0.0824325 -1.39187e-08)
(2.13086e-05 -0.0824705 -0.933644)
(2.12787e-05 -0.0824709 -1.21419e-08)
(3.0359e-06 -0.0296565 -0.921029)
(2.95771e-06 -0.0296566 -6.80339e-09)
(2.45302e-06 -0.0296705 -0.921272)
(2.38863e-06 -0.0296706 -6.34916e-09)
(2.59641e-05 -0.0824332 -1.07666e-08)
(2.59547e-05 -0.0824339 -8.23094e-09)
(2.12642e-05 -0.0824716 -9.47076e-09)
(2.12554e-05 -0.0824723 -7.09765e-09)
(2.93361e-06 -0.0296569 -1.12504e-08)
(2.92863e-06 -0.0296571 -8.60502e-09)
(2.36838e-06 -0.0296708 -9.87306e-09)
(2.36411e-06 -0.029671 -7.42907e-09)
(2.59491e-05 -0.0824343 -3.0943e-09)
(2.59493e-05 -0.0824343 3.31827e-09)
(2.12503e-05 -0.0824727 -2.61955e-09)
(2.12507e-05 -0.0824727 2.89248e-09)
(2.92681e-06 -0.0296572 -3.09827e-09)
(2.9268e-06 -0.0296572 3.37912e-09)
(2.36255e-06 -0.0296712 -2.63351e-09)
(2.36259e-06 -0.0296712 2.94657e-09)
(2.59554e-05 -0.0824339 8.44119e-09)
(2.59651e-05 -0.0824332 1.09708e-08)
(2.12568e-05 -0.0824723 7.32567e-09)
(2.12663e-05 -0.0824716 9.63085e-09)
(2.92862e-06 -0.0296571 8.85357e-09)
(2.93359e-06 -0.0296569 1.14514e-08)
(2.3642e-06 -0.029671 7.68441e-09)
(2.36848e-06 -0.0296708 1.00383e-08)
(2.59814e-05 -0.0824325 1.40847e-08)
(2.60166e-05 -0.0824321 0.933396)
(2.12814e-05 -0.0824709 1.22833e-08)
(2.13118e-05 -0.0824706 0.933644)
(2.95776e-06 -0.0296567 6.95638e-09)
(3.03612e-06 -0.0296565 0.921029)
(2.38878e-06 -0.0296706 6.42494e-09)
(2.45368e-06 -0.0296705 0.921272)
(3.60732e-05 -0.0823333 -0.932489)
(3.60276e-05 -0.0823337 -1.73611e-08)
(3.09249e-05 -0.0823864 -0.932751)
(3.08851e-05 -0.0823868 -1.56646e-08)
(4.254e-06 -0.0296205 -0.920143)
(4.14712e-06 -0.0296206 -7.54452e-09)
(3.63312e-06 -0.0296399 -0.9204)
(3.54091e-06 -0.02964 -7.20375e-09)
(3.60086e-05 -0.0823343 -1.31437e-08)
(3.5998e-05 -0.082335 -1.02095e-08)
(3.08677e-05 -0.0823875 -1.19772e-08)
(3.08577e-05 -0.0823882 -9.23702e-09)
(4.11492e-06 -0.0296208 -1.37777e-08)
(4.10847e-06 -0.029621 -1.07009e-08)
(3.51288e-06 -0.0296402 -1.25223e-08)
(3.50716e-06 -0.0296404 -9.65655e-09)
(3.59914e-05 -0.0823354 -3.90334e-09)
(3.59915e-05 -0.0823355 4.08345e-09)
(3.08515e-05 -0.0823886 -3.48924e-09)
(3.08516e-05 -0.0823886 3.7386e-09)
(4.1062e-06 -0.0296212 -3.9383e-09)
(4.10621e-06 -0.0296212 4.11165e-09)
(3.5051e-06 -0.0296406 -3.5051e-09)
(3.5051e-06 -0.0296406 3.77907e-09)
(3.59982e-05 -0.082335 1.03779e-08)
(3.6009e-05 -0.0823343 1.32681e-08)
(3.0858e-05 -0.0823882 9.46568e-09)
(3.08682e-05 -0.0823875 1.21689e-08)
(4.10851e-06 -0.0296211 1.08688e-08)
(4.11499e-06 -0.0296208 1.39247e-08)
(3.50715e-06 -0.0296404 9.90498e-09)
(3.51288e-06 -0.0296402 1.2722e-08)
(3.60282e-05 -0.0823337 1.75201e-08)
(3.60741e-05 -0.0823333 0.932489)
(3.08859e-05 -0.0823868 1.58056e-08)
(3.09263e-05 -0.0823864 0.932751)
(4.14733e-06 -0.0296206 7.70532e-09)
(4.255e-06 -0.0296205 0.920143)
(3.54108e-06 -0.02964 7.36377e-09)
(3.63377e-06 -0.0296399 0.9204)
(4.73077e-05 -0.0822034 -0.931551)
(4.725e-05 -0.0822038 -2.10444e-08)
(4.1518e-05 -0.0822723 -0.931819)
(4.1467e-05 -0.0822727 -1.9092e-08)
(5.60415e-06 -0.029573 -0.919229)
(5.46482e-06 -0.0295731 -8.36259e-09)
(4.90847e-06 -0.0295982 -0.91949)
(4.78616e-06 -0.0295983 -7.91208e-09)
(4.72278e-05 -0.0822044 -1.55125e-08)
(4.72162e-05 -0.0822051 -1.21605e-08)
(4.14464e-05 -0.0822734 -1.43121e-08)
(4.14352e-05 -0.0822741 -1.1202e-08)
(5.42377e-06 -0.0295733 -1.63872e-08)
(5.41583e-06 -0.0295735 -1.27924e-08)
(4.74962e-06 -0.0295986 -1.50669e-08)
(4.74242e-06 -0.0295988 -1.17712e-08)
(4.72088e-05 -0.0822055 -4.71501e-09)
(4.72089e-05 -0.0822055 4.78494e-09)
(4.14282e-05 -0.0822745 -4.34523e-09)
(4.14282e-05 -0.0822745 4.39547e-09)
(5.41312e-06 -0.0295737 -4.75973e-09)
(5.41312e-06 -0.0295737 4.83662e-09)
(4.73992e-06 -0.0295989 -4.38217e-09)
(4.73991e-06 -0.0295989 4.44229e-09)
(4.72163e-05 -0.0822051 1.22165e-08)
(4.72281e-05 -0.0822044 1.55099e-08)
(4.14354e-05 -0.0822741 1.12579e-08)
(4.14467e-05 -0.0822734 1.43481e-08)
(5.41582e-06 -0.0295735 1.2864e-08)
(5.42376e-06 -0.0295733 1.64122e-08)
(4.74242e-06 -0.0295988 1.18383e-08)
(4.74962e-06 -0.0295986 1.51427e-08)
(4.72506e-05 -0.0822038 2.12038e-08)
(4.73084e-05 -0.0822034 0.931551)
(4.14675e-05 -0.0822727 1.92502e-08)
(4.15192e-05 -0.0822724 0.931819)
(5.46488e-06 -0.0295731 8.40592e-09)
(5.60507e-06 -0.029573 0.919229)
(4.78625e-06 -0.0295983 8.00692e-09)
(4.90985e-06 -0.0295982 0.91949)
(6.01364e-05 -0.0820394 -0.930584)
(6.00648e-05 -0.0820398 -2.54691e-08)
(5.34999e-05 -0.0821258 -0.930868)
(5.34358e-05 -0.0821262 -2.32264e-08)
(7.14638e-06 -0.0295129 -0.918285)
(6.96952e-06 -0.029513 -9.26799e-09)
(6.34822e-06 -0.0295446 -0.918562)
(6.19076e-06 -0.0295447 -8.82682e-09)
(6.0039e-05 -0.0820405 -1.78044e-08)
(6.00264e-05 -0.0820412 -1.39957e-08)
(5.34117e-05 -0.0821269 -1.66527e-08)
(5.33996e-05 -0.0821276 -1.3077e-08)
(6.91863e-06 -0.0295133 -1.89484e-08)
(6.90914e-06 -0.0295135 -1.47455e-08)
(6.14489e-06 -0.0295449 -1.76502e-08)
(6.13618e-06 -0.0295452 -1.37629e-08)
(6.00184e-05 -0.0820416 -5.37876e-09)
(6.00185e-05 -0.0820416 5.64595e-09)
(5.33919e-05 -0.082128 -5.0422e-09)
(5.3392e-05 -0.082128 5.23351e-09)
(6.90606e-06 -0.0295136 -5.41103e-09)
(6.90607e-06 -0.0295136 5.69706e-09)
(6.13328e-06 -0.0295453 -5.07108e-09)
(6.13328e-06 -0.0295453 5.29339e-09)
(6.00266e-05 -0.0820412 1.42111e-08)
(6.00392e-05 -0.0820405 1.79622e-08)
(5.33998e-05 -0.0821276 1.32419e-08)
(5.3412e-05 -0.0821269 1.67585e-08)
(6.90916e-06 -0.0295135 1.49752e-08)
(6.91865e-06 -0.0295133 1.90902e-08)
(6.13618e-06 -0.0295452 1.39431e-08)
(6.14488e-06 -0.0295449 1.7752e-08)
(6.00651e-05 -0.0820398 2.55605e-08)
(6.01368e-05 -0.0820394 0.930584)
(5.34361e-05 -0.0821263 2.33178e-08)
(5.35005e-05 -0.0821259 0.930868)
(6.96958e-06 -0.029513 9.37382e-09)
(7.14655e-06 -0.0295129 0.918285)
(6.19075e-06 -0.0295447 8.8598e-09)
(6.34879e-06 -0.0295446 0.918562)
(7.49494e-05 -0.0818376 -0.929595)
(7.4862e-05 -0.0818379 -2.9825e-08)
(6.72727e-05 -0.0819435 -0.929876)
(6.71935e-05 -0.0819439 -2.75996e-08)
(8.92946e-06 -0.0294388 -0.91732)
(8.71037e-06 -0.029439 -9.85035e-09)
(8.00456e-06 -0.0294777 -0.917595)
(7.80731e-06 -0.0294779 -9.6343e-09)
(7.48323e-05 -0.0818386 -1.99678e-08)
(7.4819e-05 -0.0818393 -1.57204e-08)
(6.71659e-05 -0.0819445 -1.89101e-08)
(6.71529e-05 -0.0819452 -1.48615e-08)
(8.64836e-06 -0.0294392 -2.1412e-08)
(8.6372e-06 -0.0294394 -1.66417e-08)
(7.75107e-06 -0.0294781 -2.0183e-08)
(7.74077e-06 -0.0294783 -1.56949e-08)
(7.48104e-05 -0.0818397 -6.07017e-09)
(7.48105e-05 -0.0818397 6.30857e-09)
(6.71446e-05 -0.0819456 -5.71429e-09)
(6.71447e-05 -0.0819456 5.98706e-09)
(8.63381e-06 -0.0294395 -6.14765e-09)
(8.63383e-06 -0.0294395 6.31288e-09)
(7.73754e-06 -0.0294784 -5.78978e-09)
(7.73757e-06 -0.0294784 5.99719e-09)
(7.4819e-05 -0.0818393 1.59017e-08)
(7.48324e-05 -0.0818386 2.01031e-08)
(6.71531e-05 -0.0819452 1.507e-08)
(6.71661e-05 -0.0819446 1.90507e-08)
(8.63728e-06 -0.0294394 1.67685e-08)
(8.64847e-06 -0.0294392 2.15169e-08)
(7.74084e-06 -0.0294783 1.58724e-08)
(7.75115e-06 -0.0294781 2.03067e-08)
(7.48621e-05 -0.081838 2.99594e-08)
(7.49496e-05 -0.0818376 0.929595)
(6.71938e-05 -0.0819439 2.77197e-08)
(6.72729e-05 -0.0819435 0.929876)
(8.7105e-06 -0.029439 9.96567e-09)
(8.92982e-06 -0.0294388 0.91732)
(7.80744e-06 -0.0294779 9.69301e-09)
(8.00481e-06 -0.0294777 0.917595)
(9.21297e-05 -0.081593 -0.928577)
(9.20239e-05 -0.0815934 -3.47596e-08)
(8.32219e-05 -0.0817209 -0.928855)
(8.31256e-05 -0.0817213 -3.2171e-08)
(1.10022e-05 -0.0293489 -0.916326)
(1.07339e-05 -0.0293491 -1.02435e-08)
(9.92647e-06 -0.029396 -0.916598)
(9.68364e-06 -0.0293961 -1.00664e-08)
(9.19902e-05 -0.081594 -2.20998e-08)
(9.19763e-05 -0.0815947 -1.73698e-08)
(8.30941e-05 -0.081722 -2.10283e-08)
(8.30805e-05 -0.0817226 -1.65412e-08)
(1.06593e-05 -0.0293493 -2.39327e-08)
(1.06463e-05 -0.0293495 -1.85005e-08)
(9.61557e-06 -0.0293963 -2.26669e-08)
(9.60351e-06 -0.0293965 -1.75724e-08)
(9.19676e-05 -0.0815951 -6.69033e-09)
(9.19676e-05 -0.0815951 7.03123e-09)
(8.30718e-05 -0.081723 -6.38244e-09)
(8.30718e-05 -0.081723 6.65129e-09)
(1.06425e-05 -0.0293496 -6.77304e-09)
(1.06425e-05 -0.0293496 7.10822e-09)
(9.59993e-06 -0.0293967 -6.48045e-09)
(9.59994e-06 -0.0293967 6.67786e-09)
(9.19765e-05 -0.0815947 1.76742e-08)
(9.19904e-05 -0.0815941 2.23376e-08)
(8.30806e-05 -0.0817226 1.67588e-08)
(8.30942e-05 -0.081722 2.12022e-08)
(1.06463e-05 -0.0293495 1.8795e-08)
(1.06593e-05 -0.0293493 2.41762e-08)
(9.60353e-06 -0.0293965 1.77574e-08)
(9.61561e-06 -0.0293963 2.28509e-08)
(9.20244e-05 -0.0815934 3.47877e-08)
(9.21302e-05 -0.081593 0.928577)
(8.3126e-05 -0.0817213 3.23131e-08)
(8.32221e-05 -0.0817209 0.928855)
(1.07339e-05 -0.0293491 1.03906e-08)
(1.10021e-05 -0.0293489 0.916326)
(9.68371e-06 -0.0293961 1.02481e-08)
(9.92656e-06 -0.029396 0.916598)
(0.000112069 -0.0813003 -0.927515)
(0.000111942 -0.0813006 -3.97917e-08)
(0.000101733 -0.081453 -0.927812)
(0.000101618 -0.0814534 -3.71879e-08)
(1.34107e-05 -0.0292411 -0.915291)
(1.30862e-05 -0.0292413 -1.03259e-08)
(1.21611e-05 -0.0292974 -0.91558)
(1.18657e-05 -0.0292975 -1.02886e-08)
(0.000111904 -0.0813013 -2.42986e-08)
(0.00011189 -0.0813019 -1.91657e-08)
(0.000101582 -0.081454 -2.31697e-08)
(0.000101568 -0.0814547 -1.82495e-08)
(1.29974e-05 -0.0292415 -2.66718e-08)
(1.29822e-05 -0.0292417 -2.05719e-08)
(1.17841e-05 -0.0292977 -2.52813e-08)
(1.17701e-05 -0.029298 -1.95053e-08)
(0.000111881 -0.0813023 -7.46408e-09)
(0.000111881 -0.0813023 7.62246e-09)
(0.000101559 -0.0814551 -7.06124e-09)
(0.000101559 -0.0814551 7.34005e-09)
(1.29782e-05 -0.0292418 -7.57625e-09)
(1.29782e-05 -0.0292418 7.76178e-09)
(1.17662e-05 -0.0292981 -7.13788e-09)
(1.17662e-05 -0.0292981 7.45574e-09)
(0.00011189 -0.0813019 1.9338e-08)
(0.000111904 -0.0813013 2.44754e-08)
(0.000101568 -0.0814547 1.85034e-08)
(0.000101582 -0.081454 2.33903e-08)
(1.29822e-05 -0.0292417 2.07339e-08)
(1.29973e-05 -0.0292415 2.67831e-08)
(1.17701e-05 -0.029298 1.97562e-08)
(1.17841e-05 -0.0292977 2.54496e-08)
(0.000111943 -0.0813006 3.99618e-08)
(0.000112069 -0.0813003 0.927515)
(0.000101618 -0.0814534 3.72843e-08)
(0.000101734 -0.081453 0.927812)
(1.30861e-05 -0.0292413 1.03995e-08)
(1.34106e-05 -0.0292411 0.915291)
(1.18656e-05 -0.0292975 1.04003e-08)
(1.2161e-05 -0.0292974 0.91558)
(0.000135167 -0.0809531 -0.926434)
(0.000135017 -0.0809534 -4.5545e-08)
(0.000123201 -0.0811338 -0.926735)
(0.000123063 -0.0811342 -4.25733e-08)
(1.62034e-05 -0.0291131 -0.914236)
(1.58145e-05 -0.0291132 -1.02956e-08)
(1.47554e-05 -0.0291798 -0.91453)
(1.44001e-05 -0.0291799 -1.03371e-08)
(0.000134974 -0.080954 -2.64931e-08)
(0.000134959 -0.0809547 -2.09051e-08)
(0.000123023 -0.0811348 -2.54536e-08)
(0.000123008 -0.0811355 -2.00827e-08)
(1.57096e-05 -0.0291134 -2.93226e-08)
(1.56921e-05 -0.0291136 -2.24987e-08)
(1.43034e-05 -0.0291801 -2.80219e-08)
(1.42871e-05 -0.0291803 -2.15426e-08)
(0.000134949 -0.0809551 -8.15292e-09)
(0.000134949 -0.0809551 8.30461e-09)
(0.000122999 -0.0811359 -7.83187e-09)
(0.000122999 -0.0811359 7.96095e-09)
(1.56876e-05 -0.0291137 -8.25603e-09)
(1.56876e-05 -0.0291137 8.47716e-09)
(1.42828e-05 -0.0291805 -7.89892e-09)
(1.42828e-05 -0.0291805 8.14285e-09)
(0.000134959 -0.0809547 2.10664e-08)
(0.000134973 -0.080954 2.6647e-08)
(0.000123008 -0.0811355 2.02076e-08)
(0.000123022 -0.0811349 2.55651e-08)
(1.5692e-05 -0.0291136 2.2714e-08)
(1.57095e-05 -0.0291134 2.95087e-08)
(1.4287e-05 -0.0291803 2.17312e-08)
(1.43032e-05 -0.0291801 2.81208e-08)
(0.000135017 -0.0809534 4.57157e-08)
(0.000135167 -0.0809531 0.926434)
(0.000123063 -0.0811342 4.27181e-08)
(0.000123201 -0.0811339 0.926735)
(1.58144e-05 -0.0291132 1.04065e-08)
(1.62036e-05 -0.0291131 0.914236)
(1.43999e-05 -0.0291799 1.03499e-08)
(1.47557e-05 -0.0291798 0.91453)
(0.000161831 -0.0805445 -0.925302)
(0.000161654 -0.0805448 -5.1747e-08)
(0.000148033 -0.0807568 -0.925626)
(0.000147869 -0.0807572 -4.85725e-08)
(1.94296e-05 -0.0289621 -0.91313)
(1.8966e-05 -0.0289623 -9.82019e-09)
(1.77589e-05 -0.0290406 -0.913447)
(1.73338e-05 -0.0290407 -1.00161e-08)
(0.000161605 -0.0805454 -2.83154e-08)
(0.00016159 -0.080546 -2.2361e-08)
(0.000147823 -0.0807578 -2.74272e-08)
(0.000147808 -0.0807584 -2.16529e-08)
(1.88429e-05 -0.0289625 -3.16757e-08)
(1.88228e-05 -0.0289627 -2.41663e-08)
(1.72201e-05 -0.0290409 -3.04944e-08)
(1.72013e-05 -0.0290411 -2.33317e-08)
(0.000161581 -0.0805464 -8.67931e-09)
(0.000161581 -0.0805464 8.98733e-09)
(0.000147799 -0.0807588 -8.41134e-09)
(0.000147799 -0.0807588 8.66848e-09)
(1.8818e-05 -0.0289628 -8.80972e-09)
(1.8818e-05 -0.0289628 9.14837e-09)
(1.71967e-05 -0.0290413 -8.52412e-09)
(1.71967e-05 -0.0290413 8.8346e-09)
(0.00016159 -0.0805461 2.26455e-08)
(0.000161605 -0.0805454 2.85564e-08)
(0.000147808 -0.0807584 2.18932e-08)
(0.000147823 -0.0807578 2.76572e-08)
(1.88228e-05 -0.0289627 2.45128e-08)
(1.8843e-05 -0.0289625 3.20132e-08)
(1.72013e-05 -0.0290411 2.36518e-08)
(1.72201e-05 -0.0290409 3.08042e-08)
(0.000161654 -0.0805448 5.17983e-08)
(0.000161831 -0.0805445 0.925302)
(0.000147869 -0.0807572 4.87142e-08)
(0.000148032 -0.0807569 0.925626)
(1.89661e-05 -0.0289623 9.90707e-09)
(1.94293e-05 -0.0289621 0.91313)
(1.73339e-05 -0.0290407 1.02327e-08)
(1.77588e-05 -0.0290406 0.913447)
(0.000192467 -0.080067 -0.924164)
(0.00019226 -0.0800673 -5.82056e-08)
(0.00017663 -0.0803148 -0.924468)
(0.000176438 -0.0803152 -5.48333e-08)
(2.31357e-05 -0.0287855 -0.912021)
(2.25879e-05 -0.0287856 -8.67654e-09)
(2.12186e-05 -0.0288772 -0.912317)
(2.07141e-05 -0.0288773 -9.14463e-09)
(0.000192206 -0.0800679 -3.00721e-08)
(0.000192191 -0.0800686 -2.38481e-08)
(0.000176386 -0.0803158 -2.91513e-08)
(0.000176371 -0.0803164 -2.30828e-08)
(2.24444e-05 -0.0287858 -3.41637e-08)
(2.24213e-05 -0.028786 -2.59925e-08)
(2.05812e-05 -0.0288775 -3.28763e-08)
(2.05596e-05 -0.0288777 -2.5072e-08)
(0.000192181 -0.0800689 -9.31471e-09)
(0.000192181 -0.0800689 9.5078e-09)
(0.000176362 -0.0803168 -8.99119e-09)
(0.000176362 -0.0803168 9.23341e-09)
(2.24162e-05 -0.0287861 -9.5172e-09)
(2.24162e-05 -0.0287861 9.68498e-09)
(2.05547e-05 -0.0288779 -9.18372e-09)
(2.05548e-05 -0.0288779 9.38617e-09)
(0.000192191 -0.0800686 2.4047e-08)
(0.000192206 -0.080068 3.02696e-08)
(0.000176371 -0.0803164 2.33242e-08)
(0.000176386 -0.0803158 2.94104e-08)
(2.24214e-05 -0.028786 2.62073e-08)
(2.24444e-05 -0.0287858 3.44311e-08)
(2.05598e-05 -0.0288777 2.53432e-08)
(2.05813e-05 -0.0288775 3.32268e-08)
(0.00019226 -0.0800674 5.82435e-08)
(0.000192467 -0.0800671 0.924164)
(0.000176438 -0.0803152 5.49421e-08)
(0.000176629 -0.0803149 0.924468)
(2.25878e-05 -0.0287856 8.80716e-09)
(2.31351e-05 -0.0287855 0.912021)
(2.07142e-05 -0.0288773 9.46167e-09)
(2.1218e-05 -0.0288772 0.912317)
(0.00022748 -0.0795125 -0.92296)
(0.000227238 -0.0795128 -6.52888e-08)
(0.000209409 -0.0797998 -0.92329)
(0.000209185 -0.0798001 -6.16053e-08)
(2.7366e-05 -0.0285801 -0.910845)
(2.67222e-05 -0.0285802 -7.20094e-09)
(2.51816e-05 -0.0286866 -0.911168)
(2.45872e-05 -0.0286867 -7.88211e-09)
(0.000227178 -0.0795134 -3.18492e-08)
(0.000227162 -0.079514 -2.54276e-08)
(0.000209127 -0.0798007 -3.09403e-08)
(0.000209112 -0.0798013 -2.46362e-08)
(2.65559e-05 -0.0285804 -3.6857e-08)
(2.65294e-05 -0.0285806 -2.79702e-08)
(2.44326e-05 -0.0286869 -3.54888e-08)
(2.44079e-05 -0.0286871 -2.69923e-08)
(0.000227153 -0.0795143 -9.99778e-09)
(0.000227153 -0.0795143 1.00765e-08)
(0.000209103 -0.0798017 -9.66433e-09)
(0.000209103 -0.0798017 9.77806e-09)
(2.65239e-05 -0.0285807 -1.02664e-08)
(2.65239e-05 -0.0285807 1.0304e-08)
(2.44026e-05 -0.0286872 -9.91822e-09)
(2.44026e-05 -0.0286872 9.95942e-09)
(0.000227163 -0.079514 2.55613e-08)
(0.000227178 -0.0795134 3.20511e-08)
(0.000209112 -0.0798013 2.47847e-08)
(0.000209127 -0.0798007 3.1147e-08)
(2.65294e-05 -0.0285806 2.80759e-08)
(2.65558e-05 -0.0285804 3.70334e-08)
(2.44079e-05 -0.0286871 2.70983e-08)
(2.44326e-05 -0.0286869 3.56854e-08)
(0.000227238 -0.0795128 6.53287e-08)
(0.00022748 -0.0795125 0.92296)
(0.000209184 -0.0798002 6.16916e-08)
(0.000209408 -0.0797999 0.92329)
(2.67221e-05 -0.0285802 7.31806e-09)
(2.73651e-05 -0.0285801 0.910845)
(2.4587e-05 -0.0286867 8.11314e-09)
(2.51805e-05 -0.0286866 0.911168)
(0.000267243 -0.0788725 -0.921734)
(0.000266963 -0.0788728 -7.2849e-08)
(0.000246748 -0.0792037 -0.922056)
(0.000246488 -0.079204 -6.898e-08)
(3.21612e-05 -0.0283427 -0.90965)
(3.14096e-05 -0.0283429 -5.21136e-09)
(2.96885e-05 -0.0284656 -0.909964)
(2.89923e-05 -0.0284657 -6.22302e-09)
(0.000266895 -0.0788733 -3.3513e-08)
(0.000266879 -0.0788739 -2.69406e-08)
(0.000246424 -0.0792045 -3.26862e-08)
(0.000246408 -0.0792051 -2.62034e-08)
(3.12177e-05 -0.0283431 -3.95479e-08)
(3.11874e-05 -0.0283433 -2.99132e-08)
(2.88136e-05 -0.0284659 -3.82009e-08)
(2.87852e-05 -0.0284661 -2.89581e-08)
(0.00026687 -0.0788742 -1.06502e-08)
(0.00026687 -0.0788742 1.06326e-08)
(0.000246399 -0.0792055 -1.03319e-08)
(0.000246399 -0.0792055 1.03814e-08)
(3.11813e-05 -0.0283434 -1.0994e-08)
(3.11813e-05 -0.0283434 1.09184e-08)
(2.87794e-05 -0.0284662 -1.0628e-08)
(2.87794e-05 -0.0284662 1.063e-08)
(0.00026688 -0.0788739 2.70157e-08)
(0.000266895 -0.0788733 3.36951e-08)
(0.000246409 -0.0792051 2.63265e-08)
(0.000246424 -0.0792046 3.28916e-08)
(3.11874e-05 -0.0283433 2.99403e-08)
(3.12178e-05 -0.0283431 3.96748e-08)
(2.87852e-05 -0.0284661 2.90099e-08)
(2.88135e-05 -0.0284659 3.83243e-08)
(0.000266964 -0.0788728 7.28896e-08)
(0.000267244 -0.0788725 0.921734)
(0.000246488 -0.079204 6.90084e-08)
(0.000246749 -0.0792037 0.922056)
(3.14098e-05 -0.0283429 5.31564e-09)
(3.21607e-05 -0.0283428 0.90965)
(2.89924e-05 -0.0284657 6.37311e-09)
(2.96877e-05 -0.0284656 0.909964)
(0.000312119 -0.0781379 -0.920457)
(0.000311795 -0.0781381 -8.07348e-08)
(0.000289028 -0.0785175 -0.920802)
(0.000288727 -0.0785177 -7.66856e-08)
(3.75596e-05 -0.0280701 -0.908403)
(3.66876e-05 -0.0280702 -2.51e-09)
(3.47809e-05 -0.028211 -0.90874)
(3.3971e-05 -0.0282111 -3.83867e-09)
(0.00031172 -0.0781387 -3.49748e-08)
(0.000311705 -0.0781392 -2.83247e-08)
(0.000288655 -0.0785183 -3.42456e-08)
(0.00028864 -0.0785188 -2.76547e-08)
(3.64674e-05 -0.0280704 -4.21209e-08)
(3.64328e-05 -0.0280706 -3.17153e-08)
(3.37653e-05 -0.0282113 -4.08143e-08)
(3.37328e-05 -0.0282115 -3.0827e-08)
(0.000311695 -0.0781396 -1.12537e-08)
(0.000311695 -0.0781396 1.11213e-08)
(0.000288631 -0.0785192 -1.09799e-08)
(0.000288631 -0.0785192 1.08821e-08)
(3.64263e-05 -0.0280707 -1.16455e-08)
(3.64263e-05 -0.0280707 1.14888e-08)
(3.37265e-05 -0.0282116 -1.13208e-08)
(3.37265e-05 -0.0282116 1.12219e-08)
(0.000311705 -0.0781392 2.82801e-08)
(0.00031172 -0.0781387 3.50475e-08)
(0.00028864 -0.0785189 2.76804e-08)
(0.000288656 -0.0785183 3.44084e-08)
(3.64329e-05 -0.0280706 3.16687e-08)
(3.64676e-05 -0.0280704 4.21825e-08)
(3.37329e-05 -0.0282115 3.08141e-08)
(3.37653e-05 -0.0282113 4.09141e-08)
(0.000311796 -0.0781382 8.08071e-08)
(0.00031212 -0.0781379 0.920457)
(0.000288728 -0.0785178 7.67849e-08)
(0.000289029 -0.0785175 0.920802)
(3.66879e-05 -0.0280702 2.61501e-09)
(3.75593e-05 -0.0280701 0.908403)
(3.39712e-05 -0.0282111 4.03975e-09)
(3.47807e-05 -0.028211 0.90874)
(0.000362414 -0.0772995 -0.919157)
(0.000362043 -0.0772997 -8.91636e-08)
(0.000336577 -0.0777322 -0.91951)
(0.000336231 -0.0777324 -8.47882e-08)
(4.35903e-05 -0.0277586 -0.907134)
(4.2585e-05 -0.0277588 7.589e-10)
(4.0492e-05 -0.0279194 -0.90748)
(3.95553e-05 -0.0279195 -8.77374e-10)
(0.00036196 -0.0773002 -3.62822e-08)
(0.000361944 -0.0773008 -2.96191e-08)
(0.000336151 -0.0777329 -3.56086e-08)
(0.000336136 -0.0777335 -2.89683e-08)
(4.23338e-05 -0.027759 -4.46662e-08)
(4.22944e-05 -0.0277591 -3.34587e-08)
(3.93199e-05 -0.0279197 -4.33844e-08)
(3.9283e-05 -0.0279199 -3.2601e-08)
(0.000361935 -0.0773011 -1.17959e-08)
(0.000361935 -0.0773011 1.16647e-08)
(0.000336126 -0.0777338 -1.15455e-08)
(0.000336126 -0.0777338 1.13696e-08)
(4.22873e-05 -0.0277592 -1.22267e-08)
(4.22873e-05 -0.0277592 1.21123e-08)
(3.92762e-05 -0.02792 -1.19466e-08)
(3.92762e-05 -0.02792 1.18052e-08)
(0.000361944 -0.0773008 2.95587e-08)
(0.00036196 -0.0773003 3.63295e-08)
(0.000336136 -0.0777335 2.89032e-08)
(0.000336151 -0.077733 3.56635e-08)
(4.22944e-05 -0.0277591 3.3412e-08)
(4.23338e-05 -0.027759 4.46734e-08)
(3.92831e-05 -0.0279199 3.25418e-08)
(3.932e-05 -0.0279197 4.34005e-08)
(0.000362044 -0.0772997 8.92989e-08)
(0.000362414 -0.0772995 0.919157)
(0.000336231 -0.0777324 8.48774e-08)
(0.000336577 -0.0777322 0.91951)
(4.25851e-05 -0.0277588 -7.17072e-10)
(4.35904e-05 -0.0277587 0.907134)
(3.95554e-05 -0.0279195 9.535e-10)
(4.04921e-05 -0.0279194 0.90748)
(0.000418357 -0.0763482 -0.917797)
(0.000417935 -0.0763485 -9.85655e-08)
(0.000389674 -0.0768385 -0.918159)
(0.000389278 -0.0768387 -9.37253e-08)
(5.02705e-05 -0.0274051 -0.905808)
(4.9118e-05 -0.0274052 4.21967e-09)
(4.68457e-05 -0.0275873 -0.906162)
(4.57686e-05 -0.0275874 2.54865e-09)
(0.000417842 -0.0763489 -3.75326e-08)
(0.000417827 -0.0763495 -3.08816e-08)
(0.00038919 -0.0768392 -3.69035e-08)
(0.000389175 -0.0768397 -3.02561e-08)
(4.88328e-05 -0.0274054 -4.72674e-08)
(4.87882e-05 -0.0274056 -3.51722e-08)
(4.55007e-05 -0.0275876 -4.58908e-08)
(4.54588e-05 -0.0275878 -3.42907e-08)
(0.000417818 -0.0763498 -1.23027e-08)
(0.000417818 -0.0763498 1.22297e-08)
(0.000389166 -0.07684 -1.20618e-08)
(0.000389166 -0.07684 1.19453e-08)
(4.87804e-05 -0.0274056 -1.27629e-08)
(4.87804e-05 -0.0274056 1.27814e-08)
(4.54513e-05 -0.0275879 -1.24996e-08)
(4.54513e-05 -0.0275879 1.2434e-08)
(0.000417827 -0.0763495 3.08573e-08)
(0.000417842 -0.076349 3.75267e-08)
(0.000389175 -0.0768397 3.02265e-08)
(0.00038919 -0.0768392 3.69699e-08)
(4.87881e-05 -0.0274056 3.52133e-08)
(4.88327e-05 -0.0274054 4.72829e-08)
(4.54587e-05 -0.0275878 3.42834e-08)
(4.55007e-05 -0.0275876 4.593e-08)
(0.000417935 -0.0763485 9.85476e-08)
(0.000418357 -0.0763483 0.917797)
(0.000389279 -0.0768387 9.38165e-08)
(0.000389674 -0.0768385 0.918159)
(4.91181e-05 -0.0274052 -4.28716e-09)
(5.02705e-05 -0.0274051 0.905808)
(4.57688e-05 -0.0275874 -2.49548e-09)
(4.6846e-05 -0.0275873 0.906162)
(0.000480113 -0.0752748 -0.91641)
(0.000479636 -0.075275 -1.08484e-07)
(0.000448508 -0.0758273 -0.916789)
(0.000448059 -0.0758275 -1.03391e-07)
(5.76086e-05 -0.027006 -0.904454)
(5.62956e-05 -0.0270061 8.32656e-09)
(5.38544e-05 -0.0272114 -0.904824)
(5.26232e-05 -0.0272115 6.26343e-09)
(0.000479534 -0.0752755 -3.86012e-08)
(0.000479519 -0.0752759 -3.19465e-08)
(0.000447962 -0.0758279 -3.8022e-08)
(0.000447946 -0.0758284 -3.14235e-08)
(5.59735e-05 -0.0270063 -4.98207e-08)
(5.59233e-05 -0.0270064 -3.67929e-08)
(5.232e-05 -0.0272117 -4.85253e-08)
(5.22727e-05 -0.0272119 -3.59903e-08)
(0.00047951 -0.0752762 -1.27204e-08)
(0.00047951 -0.0752762 1.27538e-08)
(0.000447938 -0.0758287 -1.25218e-08)
(0.000447938 -0.0758287 1.24879e-08)
(5.59149e-05 -0.0270065 -1.32474e-08)
(5.59148e-05 -0.0270065 1.34193e-08)
(5.22646e-05 -0.027212 -1.30061e-08)
(5.22645e-05 -0.027212 1.31111e-08)
(0.000479519 -0.0752759 3.19602e-08)
(0.000479534 -0.0752755 3.84911e-08)
(0.000447946 -0.0758284 3.14158e-08)
(0.000447962 -0.0758279 3.79825e-08)
(5.59232e-05 -0.0270064 3.69015e-08)
(5.59735e-05 -0.0270063 4.98041e-08)
(5.22726e-05 -0.0272119 3.60631e-08)
(5.232e-05 -0.0272117 4.85555e-08)
(0.000479636 -0.075275 1.08327e-07)
(0.000480113 -0.0752748 0.91641)
(0.000448059 -0.0758275 1.03293e-07)
(0.000448508 -0.0758273 0.916789)
(5.62955e-05 -0.0270061 -8.49534e-09)
(5.76086e-05 -0.027006 0.904454)
(5.26233e-05 -0.0272115 -6.26646e-09)
(5.38543e-05 -0.0272114 0.904824)
(0.000547725 -0.0740706 -0.914972)
(0.000547188 -0.0740708 -1.18806e-07)
(0.000513194 -0.0746895 -0.915353)
(0.000512687 -0.0746897 -1.13455e-07)
(6.55946e-05 -0.0265582 -0.903051)
(6.41079e-05 -0.0265584 1.31348e-08)
(6.1518e-05 -0.0267884 -0.903423)
(6.01195e-05 -0.0267885 1.08076e-08)
(0.000547076 -0.0740712 -3.9562e-08)
(0.000547061 -0.0740717 -3.30714e-08)
(0.00051258 -0.0746901 -3.89736e-08)
(0.000512565 -0.0746906 -3.2545e-08)
(6.37462e-05 -0.0265585 -5.24543e-08)
(6.36897e-05 -0.0265587 -3.84649e-08)
(5.9778e-05 -0.0267887 -5.10483e-08)
(5.97246e-05 -0.0267888 -3.75893e-08)
(0.000547053 -0.074072 -1.31927e-08)
(0.000547053 -0.074072 1.32142e-08)
(0.000512557 -0.0746909 -1.29471e-08)
(0.000512557 -0.0746909 1.30037e-08)
(6.36805e-05 -0.0265588 -1.37934e-08)
(6.36805e-05 -0.0265588 1.39754e-08)
(5.97158e-05 -0.0267889 -1.34953e-08)
(5.97158e-05 -0.0267889 1.3693e-08)
(0.000547061 -0.0740717 3.30136e-08)
(0.000547076 -0.0740712 3.94447e-08)
(0.000512565 -0.0746906 3.24934e-08)
(0.00051258 -0.0746901 3.89042e-08)
(6.36896e-05 -0.0265587 3.85466e-08)
(6.3746e-05 -0.0265585 5.23994e-08)
(5.97246e-05 -0.0267888 3.7675e-08)
(5.97779e-05 -0.0267887 5.10195e-08)
(0.000547187 -0.0740708 1.18711e-07)
(0.000547725 -0.0740706 0.914972)
(0.000512686 -0.0746897 1.13359e-07)
(0.000513193 -0.0746895 0.915353)
(6.41075e-05 -0.0265584 -1.33115e-08)
(6.55942e-05 -0.0265583 0.903051)
(6.01193e-05 -0.0267885 -1.08666e-08)
(6.15175e-05 -0.0267884 0.903423)
(0.000621128 -0.0727275 -0.913486)
(0.000620527 -0.0727276 -1.29749e-07)