/*--------------------------------*- C++ -*----------------------------------*\
  =========                 |
  \\      /  F ield         | OpenFOAM: The Open Source CFD Toolbox
   \\    /   O peration     | Website:  https://openfoam.org
    \\  /    A nd           | Version:  9
     \\/     M anipulation  |
\*---------------------------------------------------------------------------*/
FoamFile
{
    format      ascii;
    class       surfaceScalarField;
    location    "0.6";
    object      phi;
}
// * * * * * * * * * * * * * * * * * * * * * * * * * * * * * * * * * * * * * //

dimensions      [0 3 -1 0 0 0 0];

internalField   nonuniform List<scalar> 
104044
(
-1.12553e-11
-1.1933e-05
-9.23969e-10
1.19309e-05
3.03581e-09
-1.19331e-05
-9.14064e-10
-3.65461e-13
1.19309e-05
3.02277e-09
1.22072e-11
-1.44272e-09
3.74626e-09
-1.45747e-09
7.53285e-13
3.75852e-09
-7.85867e-12
-4.18683e-06
4.18591e-06
-4.18685e-06
-6.24201e-13
4.18593e-06
1.15495e-11
8.85188e-13
3.48769e-14
-1.19331e-05
-9.12088e-10
1.19309e-05
3.02058e-09
-1.19331e-05
-9.12218e-10
-8.2781e-15
1.1931e-05
3.02089e-09
-8.27104e-14
-1.45982e-09
3.76444e-09
-1.46064e-09
-3.41211e-14
3.76662e-09
-5.26059e-14
-4.18684e-06
4.18593e-06
-4.18684e-06
-1.19467e-14
4.18593e-06
-2.14039e-14
-7.72104e-15
3.93858e-14
-1.19331e-05
-9.12512e-10
1.1931e-05
3.02165e-09
-1.19331e-05
-9.12781e-10
8.69855e-14
1.1931e-05
3.02244e-09
4.47622e-14
-1.46111e-09
3.76786e-09
-1.4615e-09
1.17024e-13
3.76883e-09
4.86782e-14
-4.18685e-06
4.18593e-06
-4.18685e-06
9.56234e-14
4.18593e-06
5.16527e-14
1.10078e-13
1.9263e-14
-1.19331e-05
-9.12994e-10
1.1931e-05
3.02321e-09
-1.19331e-05
-9.1328e-10
4.07699e-13
1.1931e-05
3.02417e-09
1.48293e-13
-1.46178e-09
3.76944e-09
-1.46158e-09
-7.06623e-13
3.76882e-09
1.14324e-13
-4.18684e-06
4.18593e-06
-4.18684e-06
6.70596e-13
4.18593e-06
9.68915e-14
-8.34349e-13
1.12946e-11
-1.19331e-05
-9.15581e-10
1.19309e-05
3.0273e-09
-1.1933e-05
-9.25654e-10
1.19309e-05
3.04085e-09
-1.22013e-11
-1.45969e-09
3.76405e-09
-1.44517e-09
3.75239e-09
7.8926e-12
-4.18685e-06
4.18593e-06
-4.18683e-06
4.18591e-06
-1.1544e-11
-2.42927e-12
-1.19289e-05
-7.05836e-10
1.19268e-05
2.86802e-09
-1.19289e-05
-7.06992e-10
-6.67537e-13
1.19268e-05
2.8679e-09
-3.68335e-12
-7.15424e-10
2.71364e-09
-7.16748e-10
1.26893e-13
2.71234e-09
-1.39141e-12
-4.1852e-06
4.18449e-06
-4.18521e-06
-7.9315e-13
4.1845e-06
-2.81142e-12
-1.94453e-13
-2.79649e-13
-1.19289e-05
-7.06671e-10
1.19268e-05
2.8684e-09
-1.1929e-05
-7.06921e-10
-1.87367e-13
1.19268e-05
2.86879e-09
1.66451e-13
-7.17853e-10
2.71385e-09
-7.1882e-10
-9.67531e-15
2.71511e-09
-3.128e-13
-4.18521e-06
4.1845e-06
-4.18521e-06
-1.52316e-13
4.1845e-06
3.45055e-14
-1.59959e-14
4.0618e-14
-1.1929e-05
-7.07101e-10
1.19268e-05
2.86918e-09
-1.1929e-05
-7.07236e-10
2.58495e-13
1.19268e-05
2.86963e-09
4.59309e-14
-7.19281e-10
2.71596e-09
-7.19474e-10
1.05503e-13
2.71657e-09
4.53512e-14
-4.18521e-06
4.18451e-06
-4.18521e-06
2.29128e-13
4.18451e-06
5.31145e-14
1.23808e-13
3.28038e-13
-1.1929e-05
-7.07308e-10
1.19268e-05
2.87009e-09
-1.1929e-05
-7.07266e-10
6.98871e-13
1.19268e-05
2.87043e-09
-7.57214e-14
-7.19387e-10
2.7169e-09
-7.18709e-10
-8.31242e-14
2.71662e-09
3.7257e-13
-4.18521e-06
4.1845e-06
-4.18521e-06
8.43226e-13
4.1845e-06
3.44223e-14
2.40223e-13
2.46363e-12
-1.19289e-05
-7.07753e-10
1.19268e-05
2.87044e-09
-1.19289e-05
-7.06675e-10
1.19268e-05
2.87082e-09
3.70393e-12
-7.17838e-10
2.71583e-09
-7.16627e-10
2.7175e-09
1.41864e-12
-4.18521e-06
4.1845e-06
-4.1852e-06
4.18449e-06
2.82204e-12
-2.17456e-12
-1.19243e-05
-9.75366e-10
1.19212e-05
4.0229e-09
-1.19243e-05
-9.76241e-10
-1.00673e-12
1.19212e-05
4.02202e-09
-2.35884e-12
-7.93339e-10
3.28928e-09
-7.93855e-10
-8.96783e-13
3.28852e-09
-7.23633e-13
-4.1837e-06
4.18273e-06
-4.1837e-06
-1.5371e-12
4.18273e-06
-1.10599e-12
-1.32203e-12
-8.23512e-13
-1.19243e-05
-9.74993e-10
1.19212e-05
4.02205e-09
-1.19243e-05
-9.74931e-10
-4.79218e-13
1.19213e-05
4.02175e-09
-5.0985e-13
-7.92837e-10
3.28856e-09
-7.92892e-10
-2.87436e-13
3.28849e-09
-9.9284e-13
-4.18371e-06
4.18273e-06
-4.18371e-06
-4.65587e-13
4.18274e-06
-6.10785e-13
-2.62983e-13
2.25657e-14
-1.19243e-05
-9.74959e-10
1.19213e-05
4.02168e-09
-1.19243e-05
-9.75003e-10
5.22044e-13
1.19213e-05
4.02186e-09
3.12306e-14
-7.92991e-10
3.28863e-09
-7.93073e-10
3.44699e-13
3.28892e-09
2.46681e-14
-4.18371e-06
4.18274e-06
-4.18371e-06
5.12889e-13
4.18274e-06
3.32586e-14
3.21806e-13
8.61153e-13
-1.19243e-05
-9.75057e-10
1.19213e-05
4.02225e-09
-1.19243e-05
-9.7519e-10
1.03265e-12
1.19212e-05
4.02284e-09
5.51839e-13
-7.93125e-10
3.28934e-09
-7.93203e-10
9.2085e-13
3.28988e-09
1.03321e-12
-4.18371e-06
4.18274e-06
-4.18371e-06
1.56716e-12
4.18273e-06
6.6567e-13
1.35793e-12
2.23242e-12
-1.19243e-05
-9.76497e-10
1.19212e-05
4.02299e-09
-1.19243e-05
-9.75658e-10
1.19212e-05
4.02397e-09
2.38198e-12
-7.94325e-10
3.29018e-09
-7.93864e-10
3.2911e-09
7.53513e-13
-4.18371e-06
4.18273e-06
-4.1837e-06
4.18273e-06
1.10508e-12
-2.34522e-12
-1.19176e-05
-1.45944e-09
1.19131e-05
5.89774e-09
-1.19176e-05
-1.46103e-09
-1.21512e-12
1.19131e-05
5.89649e-09
-2.17917e-12
-1.18904e-09
4.84997e-09
-1.19027e-09
-1.11397e-12
4.84897e-09
-2.49809e-13
-4.18154e-06
4.18008e-06
-4.18154e-06
-1.89635e-12
4.18008e-06
-4.64292e-13
-1.70746e-12
-1.36511e-12
-1.19176e-05
-1.45925e-09
1.19131e-05
5.89651e-09
-1.19176e-05
-1.45901e-09
-8.30469e-13
1.19132e-05
5.89578e-09
-1.12273e-12
-1.18877e-09
4.84899e-09
-1.18861e-09
-6.59988e-13
4.84845e-09
-1.50999e-12
-4.18154e-06
4.18008e-06
-4.18155e-06
-8.13202e-13
4.18009e-06
-1.25922e-12
-6.4546e-13
1.18772e-14
-1.19176e-05
-1.45888e-09
1.19132e-05
5.89542e-09
-1.19176e-05
-1.45889e-09
8.52634e-13
1.19132e-05
5.89546e-09
1.40195e-14
-1.18855e-09
4.84822e-09
-1.18857e-09
6.85892e-13
4.84831e-09
1.20368e-14
-4.18155e-06
4.18009e-06
-4.18155e-06
8.35097e-13
4.18009e-06
1.53883e-14
6.73005e-13
1.38172e-12
-1.19176e-05
-1.45902e-09
1.19132e-05
5.89589e-09
-1.19176e-05
-1.45927e-09
1.2291e-12
1.19131e-05
5.89667e-09
1.14079e-12
-1.18866e-09
4.8487e-09
-1.18885e-09
1.12128e-12
4.84938e-09
1.52701e-12
-4.18155e-06
4.18009e-06
-4.18154e-06
1.90982e-12
4.18008e-06
1.2789e-12
1.71482e-12
2.40667e-12
-1.19176e-05
-1.46106e-09
1.19131e-05
5.89668e-09
-1.19176e-05
-1.45949e-09
1.19131e-05
5.89794e-09
2.20718e-12
-1.19038e-09
4.84945e-09
-1.18918e-09
4.85049e-09
2.78578e-13
-4.18154e-06
4.18008e-06
-4.18154e-06
4.18008e-06
4.45873e-13
-2.90544e-12
-1.19079e-05
-2.0408e-09
1.19018e-05
8.15179e-09
-1.19079e-05
-2.04315e-09
-1.40993e-12
1.19018e-05
8.15012e-09
-2.59129e-12
-1.72374e-09
6.91767e-09
-1.72568e-09
-1.30218e-12
6.91628e-09
4.23207e-15
-4.17835e-06
4.17631e-06
-4.17836e-06
-2.26815e-12
4.17632e-06
-1.33193e-13
-2.0593e-12
-1.75742e-12
-1.1908e-05
-2.04082e-09
1.19018e-05
8.1502e-09
-1.1908e-05
-2.04047e-09
-1.11547e-12
1.19019e-05
8.14923e-09
-1.55403e-12
-1.72365e-09
6.91632e-09
-1.72336e-09
-9.69131e-13
6.91547e-09
-1.93405e-12
-4.17836e-06
4.17632e-06
-4.17836e-06
-1.09255e-12
4.17632e-06
-1.71139e-12
-9.49249e-13
1.61884e-14
-1.1908e-05
-2.04027e-09
1.19019e-05
8.14869e-09
-1.1908e-05
-2.04026e-09
1.14579e-12
1.19019e-05
8.14869e-09
1.29975e-14
-1.72319e-09
6.91502e-09
-1.72319e-09
9.93158e-13
6.91502e-09
1.46229e-14
-4.17836e-06
4.17632e-06
-4.17836e-06
1.11917e-12
4.17632e-06
1.22923e-14
9.7082e-13
1.78046e-12
-1.1908e-05
-2.04046e-09
1.19019e-05
8.14921e-09
-1.1908e-05
-2.04079e-09
1.42582e-12
1.19018e-05
8.15017e-09
1.57076e-12
-1.72335e-09
6.91549e-09
-1.72364e-09
1.30723e-12
6.91635e-09
1.95468e-12
-4.17836e-06
4.17632e-06
-4.17836e-06
2.28398e-12
4.17632e-06
1.72624e-12
2.06514e-12
2.96409e-12
-1.19079e-05
-2.04312e-09
1.19018e-05
8.15007e-09
-1.19079e-05
-2.04079e-09
1.19018e-05
8.15172e-09
2.61371e-12
-1.72567e-09
6.91629e-09
-1.72375e-09
6.91768e-09
2.62537e-14
-4.17836e-06
4.17632e-06
-4.17835e-06
4.17631e-06
1.13687e-13
-3.64334e-12
-1.18949e-05
-2.699e-09
1.18869e-05
1.07155e-08
-1.18949e-05
-2.70211e-09
-1.63744e-12
1.18869e-05
1.07134e-08
-3.24619e-12
-2.33618e-09
9.29876e-09
-2.33887e-09
-1.5114e-12
9.29692e-09
1.71529e-13
-4.17398e-06
4.17128e-06
-4.17398e-06
-2.69284e-12
4.17128e-06
6.02475e-14
-2.4537e-12
-2.11893e-12
-1.18949e-05
-2.69918e-09
1.18869e-05
1.07135e-08
-1.18949e-05
-2.69876e-09
-1.37395e-12
1.18869e-05
1.07124e-08
-1.92233e-12
-2.33628e-09
9.29705e-09
-2.3359e-09
-1.2361e-12
9.29599e-09
-2.34005e-12
-4.17398e-06
4.17128e-06
-4.17398e-06
-1.34493e-12
4.17128e-06
-2.11763e-12
-1.21008e-12
2.07364e-14
-1.18949e-05
-2.69851e-09
1.18869e-05
1.07117e-08
-1.18949e-05
-2.69851e-09
1.41322e-12
1.18869e-05
1.07117e-08
1.5744e-14
-2.33567e-09
9.2954e-09
-2.33567e-09
1.26525e-12
9.29539e-09
1.97238e-14
-4.17398e-06
4.17128e-06
-4.17398e-06
1.38115e-12
4.17128e-06
1.48227e-14
1.23626e-12
2.14963e-12
-1.18949e-05
-2.69876e-09
1.18869e-05
1.07123e-08
-1.18949e-05
-2.69917e-09
1.65677e-12
1.18869e-05
1.07135e-08
1.9419e-12
-2.33589e-09
9.29596e-09
-2.33626e-09
1.51448e-12
9.29701e-09
2.36893e-12
-4.17398e-06
4.17128e-06
-4.17398e-06
2.71386e-12
4.17128e-06
2.13524e-12
2.45852e-12
3.71642e-12
-1.18949e-05
-2.70211e-09
1.18869e-05
1.07133e-08
-1.18949e-05
-2.69902e-09
1.18869e-05
1.07154e-08
3.26886e-12
-2.33885e-09
9.29685e-09
-2.33619e-09
9.29867e-09
-1.44113e-13
-4.17398e-06
4.17128e-06
-4.17398e-06
4.17128e-06
-8.88534e-14
-4.53209e-12
-1.18779e-05
-3.44858e-09
1.18677e-05
1.36349e-08
-1.18779e-05
-3.45253e-09
-1.89895e-12
1.18677e-05
1.36322e-08
-4.0662e-12
-3.02967e-09
1.20008e-08
-3.03313e-09
-1.7583e-12
1.19985e-08
3.42097e-13
-4.16825e-06
4.1648e-06
-4.16825e-06
-3.15811e-12
4.1648e-06
2.09859e-13
-2.89714e-12
-2.47742e-12
-1.18779e-05
-3.44892e-09
1.18677e-05
1.36325e-08
-1.18779e-05
-3.44844e-09
-1.61736e-12
1.18677e-05
1.36311e-08
-2.27653e-12
-3.02991e-09
1.19987e-08
-3.02947e-09
-1.48103e-12
1.19975e-08
-2.74889e-12
-4.16825e-06
4.1648e-06
-4.16825e-06
-1.58347e-12
4.1648e-06
-2.5179e-12
-1.44928e-12
3.4654e-14
-1.18779e-05
-3.44815e-09
1.18677e-05
1.36304e-08
-1.18779e-05
-3.44815e-09
1.68332e-12
1.18677e-05
1.36304e-08
2.73196e-14
-3.0292e-09
1.19968e-08
-3.0292e-09
1.53227e-12
1.19968e-08
3.22473e-14
-4.16825e-06
4.1648e-06
-4.16825e-06
1.64363e-12
4.1648e-06
2.59279e-14
1.49664e-12
2.52906e-12
-1.18779e-05
-3.44845e-09
1.18677e-05
1.36311e-08
-1.18779e-05
-3.44893e-09
1.92384e-12
1.18677e-05
1.36325e-08
2.31314e-12
-3.02947e-09
1.19975e-08
-3.02991e-09
1.76526e-12
1.19987e-08
2.79869e-12
-4.16825e-06
4.1648e-06
-4.16825e-06
3.19462e-12
4.1648e-06
2.55361e-12
2.91355e-12
4.5949e-12
-1.18779e-05
-3.45256e-09
1.18677e-05
1.36322e-08
-1.18779e-05
-3.44862e-09
1.18677e-05
1.36349e-08
4.08424e-12
-3.03315e-09
1.19985e-08
-3.0297e-09
1.20008e-08
-3.12547e-13
-4.16825e-06
4.1648e-06
-4.16825e-06
4.1648e-06
-2.45573e-13
-5.462e-12
-1.18564e-05
-4.31629e-09
1.18437e-05
1.70058e-08
-1.18564e-05
-4.32121e-09
-2.1636e-12
1.18437e-05
1.70025e-08
-4.97111e-12
-3.82879e-09
1.51096e-08
-3.83315e-09
-2.01653e-12
1.51067e-08
6.02397e-13
-4.16097e-06
4.15665e-06
-4.16097e-06
-3.65126e-12
4.15665e-06
4.22e-13
-3.37205e-12
-2.85393e-12
-1.18564e-05
-4.31683e-09
1.18438e-05
1.70029e-08
-1.18564e-05
-4.31628e-09
-1.87965e-12
1.18438e-05
1.70013e-08
-2.63818e-12
-3.82921e-09
1.5107e-08
-3.82869e-09
-1.72907e-12
1.51056e-08
-3.18483e-12
-4.16097e-06
4.15665e-06
-4.16097e-06
-1.84141e-12
4.15666e-06
-2.93535e-12
-1.69404e-12
2.74168e-14
-1.18565e-05
-4.31594e-09
1.18438e-05
1.70005e-08
-1.18565e-05
-4.31595e-09
1.93171e-12
1.18438e-05
1.70005e-08
3.20241e-14
-3.82838e-09
1.51048e-08
-3.82839e-09
1.78925e-12
1.51048e-08
2.49828e-14
-4.16097e-06
4.15666e-06
-4.16097e-06
1.88752e-12
4.15666e-06
2.87454e-14
1.74688e-12
2.89396e-12
-1.18564e-05
-4.31628e-09
1.18438e-05
1.70013e-08
-1.18564e-05
-4.31684e-09
2.18259e-12
1.18438e-05
1.70029e-08
2.68204e-12
-3.8287e-09
1.51056e-08
-3.82921e-09
2.027e-12
1.5107e-08
3.22264e-12
-4.16097e-06
4.15666e-06
-4.16097e-06
3.6803e-12
4.15665e-06
2.97632e-12
3.39404e-12
5.53767e-12
-1.18564e-05
-4.32124e-09
1.18437e-05
1.70025e-08
-1.18564e-05
-4.31633e-09
1.18437e-05
1.70058e-08
4.9861e-12
-3.83317e-09
1.51067e-08
-3.82884e-09
1.51096e-08
-5.70501e-13
-4.16097e-06
4.15665e-06
-4.16097e-06
4.15665e-06
-4.54326e-13
-6.5495e-12
-1.18298e-05
-5.32345e-09
1.18142e-05
2.09061e-08
-1.18298e-05
-5.3295e-09
-2.46441e-12
1.18142e-05
2.09021e-08
-5.95219e-12
-4.75336e-09
1.86953e-08
-4.75874e-09
-2.29598e-12
1.86918e-08
8.99886e-13
-4.1519e-06
4.14657e-06
-4.1519e-06
-4.1893e-12
4.14657e-06
7.02736e-13
-3.88083e-12
-3.25384e-12
-1.18298e-05
-5.32425e-09
1.18142e-05
2.09026e-08
-1.18298e-05
-5.32362e-09
-2.15124e-12
1.18142e-05
2.09009e-08
-3.02601e-12
-4.75399e-09
1.86923e-08
-4.75341e-09
-1.99791e-12
1.86906e-08
-3.64728e-12
-4.1519e-06
4.14657e-06
-4.1519e-06
-2.10525e-12
4.14657e-06
-3.38158e-12
-1.95458e-12
2.5872e-14
-1.18298e-05
-5.32325e-09
1.18142e-05
2.08999e-08
-1.18298e-05
-5.32325e-09
2.20079e-12
1.18142e-05
2.08999e-08
2.25443e-14
-4.75306e-09
1.86897e-08
-4.75306e-09
2.03956e-12
1.86897e-08
2.69353e-14
-4.1519e-06
4.14657e-06
-4.1519e-06
2.15468e-12
4.14658e-06
2.30028e-14
1.99553e-12
3.29189e-12
-1.18298e-05
-5.32363e-09
1.18142e-05
2.09009e-08
-1.18298e-05
-5.32426e-09
2.48007e-12
1.18142e-05
2.09026e-08
3.05344e-12
-4.75341e-09
1.86906e-08
-4.754e-09
2.29552e-12
1.86923e-08
3.68701e-12
-4.1519e-06
4.14658e-06
-4.1519e-06
4.21757e-12
4.14658e-06
3.41055e-12
3.8936e-12
6.62356e-12
-1.18298e-05
-5.32953e-09
1.18142e-05
2.09021e-08
-1.18298e-05
-5.32349e-09
1.18142e-05
2.09061e-08
5.9756e-12
-4.75877e-09
1.86918e-08
-4.75341e-09
1.86953e-08
-8.71862e-13
-4.1519e-06
4.14657e-06
-4.1519e-06
4.14657e-06
-7.39921e-13
-7.81571e-12
-1.17972e-05
-6.4979e-09
1.17783e-05
2.54404e-08
-1.17972e-05
-6.50527e-09
-2.79007e-12
1.17783e-05
2.54357e-08
-7.12075e-12
-5.83334e-09
2.2871e-08
-5.83992e-09
-2.59994e-12
2.28669e-08
1.25719e-12
-4.14074e-06
4.13424e-06
-4.14074e-06
-4.77332e-12
4.13424e-06
1.03521e-12
-4.43068e-12
-3.67375e-12
-1.17972e-05
-6.49903e-09
1.17783e-05
2.54363e-08
-1.17972e-05
-6.49831e-09
-2.43018e-12
1.17783e-05
2.54343e-08
-3.42472e-12
-5.83425e-09
2.28674e-08
-5.83359e-09
-2.26384e-12
2.28656e-08
-4.13996e-12
-4.14074e-06
4.13424e-06
-4.14074e-06
-2.38092e-12
4.13424e-06
-3.84932e-12
-2.21657e-12
3.33983e-14
-1.17972e-05
-6.4979e-09
1.17783e-05
2.54332e-08
-1.17972e-05
-6.4979e-09
2.49288e-12
1.17783e-05
2.54332e-08
3.17956e-14
-5.8332e-09
2.28645e-08
-5.8332e-09
2.3232e-12
2.28645e-08
3.14657e-14
-4.14074e-06
4.13424e-06
-4.14074e-06
2.43869e-12
4.13424e-06
3.10444e-14
2.27275e-12
3.72037e-12
-1.17972e-05
-6.49831e-09
1.17783e-05
2.54343e-08
-1.17972e-05
-6.49903e-09
2.80998e-12
1.17783e-05
2.54363e-08
3.46789e-12
-5.83359e-09
2.28656e-08
-5.83426e-09
2.61105e-12
2.28674e-08
4.1857e-12
-4.14074e-06
4.13424e-06
-4.14074e-06
4.80479e-12
4.13424e-06
3.89196e-12
4.45634e-12
7.87922e-12
-1.17972e-05
-6.50528e-09
1.17783e-05
2.54357e-08
-1.17972e-05
-6.49793e-09
1.17783e-05
2.54404e-08
7.13989e-12
-5.83995e-09
2.28669e-08
-5.83338e-09
2.2871e-08
-1.22436e-12
-4.14074e-06
4.13424e-06
-4.14074e-06
4.13424e-06
-1.05776e-12
-9.24944e-12
-1.17577e-05
-7.8617e-09
1.17348e-05
3.06907e-08
-1.17577e-05
-7.87059e-09
-3.1675e-12
1.17348e-05
3.06852e-08
-8.44627e-12
-7.08496e-09
2.76956e-08
-7.09293e-09
-2.94665e-12
2.76906e-08
1.66975e-12
-4.12715e-06
4.11929e-06
-4.12715e-06
-5.43338e-12
4.11929e-06
1.40926e-12
-5.04492e-12
-4.15318e-12
-1.17577e-05
-7.86323e-09
1.17348e-05
3.0686e-08
-1.17577e-05
-7.86241e-09
-2.75407e-12
1.17348e-05
3.06837e-08
-3.86869e-12
-7.08622e-09
2.76913e-08
-7.08546e-09
-2.56342e-12
2.76892e-08
-4.69887e-12
-4.12715e-06
4.11929e-06
-4.12715e-06
-2.69824e-12
4.11929e-06
-4.36958e-12
-2.51243e-12
2.72573e-14
-1.17577e-05
-7.86197e-09
1.17348e-05
3.06824e-08
-1.17577e-05
-7.86197e-09
2.80472e-12
1.17348e-05
3.06824e-08
2.84949e-14
-7.08503e-09
2.7688e-08
-7.08504e-09
2.61669e-12
2.7688e-08
2.44754e-14
-4.12715e-06
4.11929e-06
-4.12715e-06
2.74251e-12
4.11929e-06
2.56533e-14
2.5589e-12
4.18981e-12
-1.17577e-05
-7.86242e-09
1.17348e-05
3.06837e-08
-1.17577e-05
-7.86323e-09
3.18686e-12
1.17348e-05
3.0686e-08
3.90759e-12
-7.08546e-09
2.76892e-08
-7.08622e-09
2.95893e-12
2.76913e-08
4.7325e-12
-4.12715e-06
4.11929e-06
-4.12715e-06
5.45767e-12
4.11929e-06
4.4052e-12
5.06592e-12
9.33739e-12
-1.17577e-05
-7.87062e-09
1.17348e-05
3.06852e-08
-1.17577e-05
-7.86175e-09
1.17348e-05
3.06907e-08
8.47479e-12
-7.09295e-09
2.76906e-08
-7.085e-09
2.76955e-08
-1.62602e-12
-4.12715e-06
4.11929e-06
-4.12715e-06
4.11929e-06
-1.43211e-12
-1.08828e-11
-1.17101e-05
-9.43946e-09
1.16828e-05
3.67486e-08
-1.17101e-05
-9.45009e-09
-3.56422e-12
1.16828e-05
3.67421e-08
-9.98913e-12
-8.54163e-09
3.32956e-08
-8.55121e-09
-3.3473e-12
3.32897e-08
2.15493e-12
-4.11074e-06
4.1013e-06
-4.11075e-06
-6.13416e-12
4.1013e-06
1.82343e-12
-5.73109e-12
-4.64602e-12
-1.17101e-05
-9.44147e-09
1.16828e-05
3.67431e-08
-1.17101e-05
-9.44055e-09
-3.08389e-12
1.16828e-05
3.67406e-08
-4.35948e-12
-8.54331e-09
3.32906e-08
-8.54246e-09
-2.89075e-12
3.32882e-08
-5.28295e-12
-4.11074e-06
4.1013e-06
-4.11074e-06
-3.02191e-12
4.1013e-06
-4.94161e-12
-2.83155e-12
3.06929e-14
-1.17101e-05
-9.44007e-09
1.16828e-05
3.67391e-08
-1.17101e-05
-9.44007e-09
3.14085e-12
1.16828e-05
3.67391e-08
2.91827e-14
-8.54199e-09
3.32869e-08
-8.542e-09
2.94474e-12
3.32869e-08
2.86834e-14
-4.11074e-06
4.1013e-06
-4.11074e-06
3.07383e-12
4.1013e-06
2.71141e-14
2.87968e-12
4.68617e-12
-1.17101e-05
-9.44056e-09
1.16828e-05
3.67406e-08
-1.17101e-05
-9.44148e-09
3.5822e-12
1.16828e-05
3.67431e-08
4.3952e-12
-8.54246e-09
3.32883e-08
-8.54332e-09
3.34773e-12
3.32906e-08
5.32191e-12
-4.11074e-06
4.1013e-06
-4.11074e-06
6.16146e-12
4.1013e-06
4.97538e-12
5.74335e-12
1.09783e-11
-1.17101e-05
-9.45013e-09
1.16828e-05
3.67422e-08
-1.17101e-05
-9.43952e-09
1.16828e-05
3.67487e-08
1.00147e-11
-8.55124e-09
3.32898e-08
-8.54169e-09
3.32955e-08
-2.11243e-12
-4.11075e-06
4.1013e-06
-4.11075e-06
4.1013e-06
-1.87332e-12
-1.26678e-11
-1.16533e-05
-1.12542e-08
1.16209e-05
4.36993e-08
-1.16533e-05
-1.12668e-08
-3.95353e-12
1.16209e-05
4.36918e-08
-1.16789e-11
-1.02152e-08
3.97122e-08
-1.02266e-08
-3.73279e-12
3.97055e-08
2.78605e-12
-4.09108e-06
4.07983e-06
-4.09109e-06
-6.84186e-12
4.07983e-06
2.37468e-12
-6.42264e-12
-5.14168e-12
-1.16533e-05
-1.12568e-08
1.16209e-05
4.36929e-08
-1.16533e-05
-1.12557e-08
-3.4231e-12
1.16209e-05
4.36901e-08
-4.84315e-12
-1.02174e-08
3.97065e-08
-1.02164e-08
-3.21864e-12
3.97039e-08
-5.88083e-12
-4.09108e-06
4.07982e-06
-4.09108e-06
-3.35708e-12
4.07982e-06
-5.5216e-12
-3.15521e-12
2.61677e-14
-1.16533e-05
-1.12552e-08
1.16209e-05
4.36885e-08
-1.16533e-05
-1.12552e-08
3.47114e-12
1.16209e-05
4.36885e-08
2.73749e-14
-1.02159e-08
3.97024e-08
-1.02159e-08
3.2694e-12
3.97024e-08
2.55484e-14
-4.09108e-06
4.07982e-06
-4.09108e-06
3.40365e-12
4.07982e-06
2.64563e-14
3.20273e-12
5.17168e-12
-1.16533e-05
-1.12558e-08
1.16209e-05
4.36901e-08
-1.16533e-05
-1.12568e-08
3.95791e-12
1.16209e-05
4.3693e-08
4.87458e-12
-1.02164e-08
3.97039e-08
-1.02174e-08
3.72469e-12
3.97066e-08
5.91722e-12
-4.09108e-06
4.07982e-06
-4.09108e-06
6.86945e-12
4.07983e-06
5.55651e-12
6.43809e-12
1.27532e-11
-1.16533e-05
-1.12669e-08
1.16209e-05
4.36918e-08
-1.16533e-05
-1.12543e-08
1.16209e-05
4.36994e-08
1.16986e-11
-1.02266e-08
3.97055e-08
-1.02153e-08
3.97123e-08
-2.74627e-12
-4.09109e-06
4.07983e-06
-4.09109e-06
4.07983e-06
-2.427e-12
-1.46524e-11
-1.1586e-05
-1.33345e-08
1.15477e-05
5.16499e-08
-1.1586e-05
-1.33494e-08
-4.36808e-12
1.15477e-05
5.16411e-08
-1.35278e-11
-1.21383e-08
4.70687e-08
-1.21517e-08
-4.11995e-12
4.70608e-08
3.54909e-12
-4.06769e-06
4.05435e-06
-4.06769e-06
-7.59603e-12
4.05435e-06
3.07887e-12
-7.13788e-12
-5.67732e-12
-1.1586e-05
-1.33377e-08
1.15476e-05
5.16425e-08
-1.15859e-05
-1.33366e-08
-3.79067e-12
1.15476e-05
5.16393e-08
-5.34748e-12
-1.2141e-08
4.70621e-08
-1.21399e-08
-3.56724e-12
4.70591e-08
-6.52908e-12
-4.06768e-06
4.05434e-06
-4.06768e-06
-3.71951e-12
4.05434e-06
-6.13397e-12
-3.49925e-12
2.94525e-14
-1.15859e-05
-1.3336e-08
1.15476e-05
5.16376e-08
-1.15859e-05
-1.3336e-08
3.84635e-12
1.15476e-05
5.16376e-08
2.38086e-14
-1.21394e-08
4.70574e-08
-1.21394e-08
3.61222e-12
4.70575e-08
2.97153e-14
-4.06768e-06
4.05434e-06
-4.06768e-06
3.77423e-12
4.05434e-06
2.5374e-14
3.54572e-12
5.71644e-12
-1.1586e-05
-1.33366e-08
1.15476e-05
5.16394e-08
-1.1586e-05
-1.33378e-08
4.37914e-12
1.15476e-05
5.16426e-08
5.37668e-12
-1.214e-08
4.70592e-08
-1.2141e-08
4.1119e-12
4.70621e-08
6.57364e-12
-4.06768e-06
4.05434e-06
-4.06768e-06
7.6304e-12
4.05434e-06
6.17182e-12
7.16254e-12
1.47365e-11
-1.1586e-05
-1.33494e-08
1.15477e-05
5.16412e-08
-1.1586e-05
-1.33345e-08
1.15477e-05
5.165e-08
1.35468e-11
-1.21518e-08
4.70609e-08
-1.21383e-08
4.70687e-08
-3.51063e-12
-4.06769e-06
4.05435e-06
-4.06769e-06
4.05435e-06
-3.11552e-12
-1.68493e-11
-1.15066e-05
-1.56854e-08
1.14617e-05
6.0616e-08
-1.15066e-05
-1.57029e-08
-4.8273e-12
1.14616e-05
6.06059e-08
-1.55985e-11
-1.43301e-08
5.54357e-08
-1.43459e-08
-4.5531e-12
5.54266e-08
4.43343e-12
-4.04001e-06
4.02432e-06
-4.04001e-06
-8.39838e-12
4.02432e-06
3.88955e-12
-7.91117e-12
-6.2527e-12
-1.15066e-05
-1.56895e-08
1.14616e-05
6.06074e-08
-1.15066e-05
-1.56882e-08
-4.17852e-12
1.14616e-05
6.06039e-08
-5.90004e-12
-1.43336e-08
5.54281e-08
-1.43324e-08
-3.94222e-12
5.54248e-08
-7.22313e-12
-4.04001e-06
4.02432e-06
-4.04e-06
-4.10342e-12
4.02431e-06
-6.80042e-12
-3.86941e-12
4.43809e-14
-1.15065e-05
-1.56875e-08
1.14616e-05
6.06019e-08
-1.15065e-05
-1.56875e-08
4.26098e-12
1.14616e-05
6.06019e-08
3.45658e-14
-1.43318e-08
5.54229e-08
-1.43318e-08
4.00745e-12
5.54229e-08
4.1232e-14
-4.04e-06
4.02431e-06
-4.04e-06
4.17877e-12
4.02431e-06
3.37744e-14
3.93072e-12
6.31075e-12
-1.15066e-05
-1.56882e-08
1.14616e-05
6.0604e-08
-1.15066e-05
-1.56895e-08
4.84801e-12
1.14616e-05
6.06075e-08
5.94551e-12
-1.43324e-08
5.54248e-08
-1.43336e-08
4.55593e-12
5.54282e-08
7.28249e-12
-4.04e-06
4.02431e-06
-4.04001e-06
8.44124e-12
4.02432e-06
6.84811e-12
7.93928e-12
1.69382e-11
-1.15066e-05
-1.57029e-08
1.14616e-05
6.0606e-08
-1.15066e-05
-1.56855e-08
1.14617e-05
6.06161e-08
1.56197e-11
-1.4346e-08
5.54267e-08
-1.43302e-08
5.54358e-08
-4.38809e-12
-4.04001e-06
4.02432e-06
-4.04001e-06
4.02432e-06
-3.93213e-12
-1.92384e-11
-1.14136e-05
-1.83412e-08
1.13612e-05
7.07268e-08
-1.14136e-05
-1.83615e-08
-5.3025e-12
1.13612e-05
7.07153e-08
-1.78789e-11
-1.68096e-08
6.48827e-08
-1.68281e-08
-5.02041e-12
6.48724e-08
5.48048e-12
-4.00751e-06
3.98916e-06
-4.00751e-06
-9.2337e-12
3.98916e-06
4.83438e-12
-8.7251e-12
-6.85938e-12
-1.14136e-05
-1.83462e-08
1.13612e-05
7.0717e-08
-1.14136e-05
-1.83447e-08
-4.59756e-12
1.13612e-05
7.07131e-08
-6.48404e-12
-1.68139e-08
6.4874e-08
-1.68125e-08
-4.33582e-12
6.48703e-08
-7.96176e-12
-4.0075e-06
3.98915e-06
-4.0075e-06
-4.51935e-12
3.98915e-06
-7.50833e-12
-4.26127e-12
4.72736e-14
-1.14136e-05
-1.8344e-08
1.13612e-05
7.07109e-08
-1.14136e-05
-1.8344e-08
4.68407e-12
1.13612e-05
7.07109e-08
5.1329e-14
-1.68119e-08
6.48682e-08
-1.68119e-08
4.43004e-12
6.48682e-08
4.24126e-14
-4.00749e-06
3.98914e-06
-4.00749e-06
4.59484e-12
3.98914e-06
4.52147e-14
4.34268e-12
6.91918e-12
-1.14136e-05
-1.83447e-08
1.13612e-05
7.07132e-08
-1.14136e-05
-1.83462e-08
5.32637e-12
1.13612e-05
7.07171e-08
6.54858e-12
-1.68126e-08
6.48704e-08
-1.68139e-08
5.03401e-12
6.48741e-08
8.01697e-12
-4.0075e-06
3.98915e-06
-4.0075e-06
9.27136e-12
3.98916e-06
7.56955e-12
8.75939e-12
1.93401e-11
-1.14136e-05
-1.83616e-08
1.13612e-05
7.07154e-08
-1.14136e-05
-1.83412e-08
1.13612e-05
7.07269e-08
1.79064e-11
-1.68282e-08
6.48724e-08
-1.68097e-08
6.48828e-08
-5.43024e-12
-4.00751e-06
3.98916e-06
-4.00751e-06
3.98916e-06
-4.87737e-12
-2.18483e-11
-1.13054e-05
-2.13118e-08
1.12447e-05
8.2018e-08
-1.13054e-05
-2.13353e-08
-5.79457e-12
1.12447e-05
8.20049e-08
-2.03452e-11
-1.95941e-08
7.54735e-08
-1.96156e-08
-5.49949e-12
7.54617e-08
6.66886e-12
-3.96956e-06
3.94824e-06
-3.96956e-06
-1.01113e-11
3.94824e-06
5.94669e-12
-9.56985e-12
-7.50578e-12
-1.13053e-05
-2.13178e-08
1.12447e-05
8.20069e-08
-1.13053e-05
-2.13161e-08
-5.06325e-12
1.12446e-05
8.20025e-08
-7.10688e-12
-1.95994e-08
7.54636e-08
-1.95978e-08
-4.77821e-12
7.54594e-08
-8.75351e-12
-3.96955e-06
3.94823e-06
-3.96955e-06
-4.9817e-12
3.94823e-06
-8.2661e-12
-4.69792e-12
1.72471e-14
-1.13053e-05
-2.13154e-08
1.12446e-05
8.2e-08
-1.13053e-05
-2.13154e-08
5.0972e-12
1.12446e-05
8.2e-08
3.22965e-14
-1.9597e-08
7.54571e-08
-1.95971e-08
4.8367e-12
7.54571e-08
1.6433e-14
-3.96954e-06
3.94822e-06
-3.96954e-06
5.01176e-12
3.94822e-06
2.96638e-14
4.74976e-12
7.529e-12
-1.13053e-05
-2.13162e-08
1.12446e-05
8.20025e-08
-1.13053e-05
-2.13179e-08
5.79862e-12
1.12447e-05
8.2007e-08
7.14221e-12
-1.95978e-08
7.54595e-08
-1.95994e-08
5.49267e-12
7.54636e-08
8.7796e-12
-3.96955e-06
3.94823e-06
-3.96955e-06
1.01395e-11
3.94823e-06
8.30303e-12
9.59106e-12
2.19451e-11
-1.13054e-05
-2.13354e-08
1.12447e-05
8.2005e-08
-1.13054e-05
-2.13119e-08
1.12447e-05
8.20181e-08
2.0373e-11
-1.96156e-08
7.54618e-08
-1.95942e-08
7.54736e-08
-6.61604e-12
-3.96956e-06
3.94824e-06
-3.96956e-06
3.94824e-06
-5.98672e-12
-2.47256e-11
-1.11802e-05
-2.46077e-08
1.11103e-05
9.45278e-08
-1.11801e-05
-2.46347e-08
-6.33861e-12
1.11102e-05
9.45129e-08
-2.30609e-11
-2.26964e-08
8.72551e-08
-2.27211e-08
-6.00343e-12
8.72417e-08
7.96336e-12
-3.92554e-06
3.90092e-06
-3.92554e-06
-1.10518e-11
3.90092e-06
7.17816e-12
-1.04703e-11
-8.18581e-12
-1.11801e-05
-2.46149e-08
1.11102e-05
9.45151e-08
-1.11801e-05
-2.4613e-08
-5.53456e-12
1.11102e-05
9.45102e-08
-7.76182e-12
-2.27027e-08
8.72437e-08
-2.27009e-08
-5.24678e-12
8.72391e-08
-9.58814e-12
-3.92553e-06
3.90091e-06
-3.92552e-06
-5.45126e-12
3.9009e-06
-9.07458e-12
-5.16503e-12
2.19019e-14
-1.11801e-05
-2.46121e-08
1.11102e-05
9.45073e-08
-1.11801e-05
-2.46121e-08
5.57771e-12
1.11102e-05
9.45074e-08
1.23441e-14
-2.27001e-08
8.72365e-08
-2.27001e-08
5.27324e-12
8.72365e-08
1.93723e-14
-3.92551e-06
3.9009e-06
-3.92551e-06
5.48824e-12
3.9009e-06
1.22891e-14
5.18725e-12
8.21787e-12
-1.11801e-05
-2.4613e-08
1.11102e-05
9.45102e-08
-1.11801e-05
-2.46149e-08
6.34305e-12
1.11102e-05
9.45152e-08
7.78229e-12
-2.27009e-08
8.72392e-08
-2.27027e-08
5.99532e-12
8.72438e-08
9.62472e-12
-3.92552e-06
3.9009e-06
-3.92553e-06
1.1092e-11
3.90091e-06
9.0947e-12
1.04876e-11
2.48232e-11
-1.11801e-05
-2.46348e-08
1.11102e-05
9.4513e-08
-1.11802e-05
-2.46078e-08
1.11103e-05
9.45279e-08
2.30866e-11
-2.27212e-08
8.72418e-08
-2.26965e-08
8.72552e-08
-7.9073e-12
-3.92554e-06
3.90092e-06
-3.92554e-06
3.90092e-06
-7.22111e-12
-2.78213e-11
-1.10362e-05
-2.82262e-08
1.09562e-05
1.08244e-07
-1.10362e-05
-2.8257e-08
-6.93456e-12
1.09562e-05
1.08227e-07
-2.60213e-11
-2.61135e-08
1.00214e-07
-2.61417e-08
-6.57339e-12
1.00199e-07
9.37933e-12
-3.8748e-06
3.84656e-06
-3.8748e-06
-1.20474e-11
3.84656e-06
8.5056e-12
-1.14301e-11
-8.9159e-12
-1.10361e-05
-2.82347e-08
1.09561e-05
1.0823e-07
-1.10361e-05
-2.82326e-08
-6.03213e-12
1.09561e-05
1.08224e-07
-8.45831e-12
-2.61209e-08
1.00201e-07
-2.61189e-08
-5.71936e-12
1.00196e-07
-1.04733e-11
-3.87479e-06
3.84655e-06
-3.87478e-06
-5.94049e-12
3.84654e-06
-9.9215e-12
-5.63284e-12
3.43761e-14
-1.10361e-05
-2.82316e-08
1.09561e-05
1.08221e-07
-1.10361e-05
-2.82316e-08
6.09288e-12
1.09561e-05
1.08221e-07
2.97223e-14
-2.6118e-08
1.00193e-07
-2.6118e-08
5.77457e-12
1.00193e-07
3.08631e-14
-3.87477e-06
3.84653e-06
-3.87477e-06
5.99406e-12
3.84653e-06
2.74369e-14
5.68312e-12
8.94725e-12
-1.10361e-05
-2.82326e-08
1.09561e-05
1.08224e-07
-1.10361e-05
-2.82348e-08
6.92109e-12
1.09561e-05
1.0823e-07
8.49153e-12
-2.61189e-08
1.00196e-07
-2.6121e-08
6.55824e-12
1.00201e-07
1.05116e-11
-3.87478e-06
3.84654e-06
-3.87479e-06
1.20821e-11
3.84655e-06
9.96364e-12
1.14612e-11
2.79143e-11
-1.10362e-05
-2.82571e-08
1.09562e-05
1.08228e-07
-1.10362e-05
-2.82263e-08
1.09562e-05
1.08244e-07
2.60414e-11
-2.61418e-08
1.00199e-07
-2.61136e-08
1.00214e-07
-9.33362e-12
-3.8748e-06
3.84656e-06
-3.8748e-06
3.84657e-06
-8.55162e-12
-3.10882e-11
-1.08717e-05
-3.2171e-08
1.07807e-05
1.23181e-07
-1.08716e-05
-3.22059e-08
-7.50287e-12
1.07807e-05
1.23162e-07
-2.919e-11
-2.98649e-08
1.14424e-07
-2.9897e-08
-7.15116e-12
1.14407e-07
1.09819e-11
-3.81669e-06
3.78451e-06
-3.81669e-06
-1.30426e-11
3.78451e-06
1.00056e-11
-1.24133e-11
-9.63573e-12
-1.08716e-05
-3.21809e-08
1.07806e-05
1.23164e-07
-1.08716e-05
-3.21785e-08
-6.54078e-12
1.07806e-05
1.23158e-07
-9.17524e-12
-2.98736e-08
1.1441e-07
-2.98713e-08
-6.21532e-12
1.14404e-07
-1.13692e-11
-3.81668e-06
3.78449e-06
-3.81667e-06
-6.44943e-12
3.78448e-06
-1.08003e-11
-6.1261e-12
2.36405e-14
-1.08716e-05
-3.21774e-08
1.07806e-05
1.23155e-07
-1.08716e-05
-3.21774e-08
6.58279e-12
1.07806e-05
1.23155e-07
3.16568e-14
-2.98704e-08
1.14401e-07
-2.98704e-08
6.27254e-12
1.14401e-07
1.81873e-14
-3.81666e-06
3.78447e-06
-3.81666e-06
6.48106e-12
3.78447e-06
2.49814e-14
6.17154e-12
9.65555e-12
-1.08716e-05
-3.21785e-08
1.07806e-05
1.23158e-07
-1.08716e-05
-3.2181e-08
7.48638e-12
1.07806e-05
1.23165e-07
9.20364e-12
-2.98714e-08
1.14404e-07
-2.98737e-08
7.12418e-12
1.1441e-07
1.13932e-11
-3.81667e-06
3.78448e-06
-3.81668e-06
1.30654e-11
3.7845e-06
1.08352e-11
1.24355e-11
3.11724e-11
-1.08716e-05
-3.2206e-08
1.07807e-05
1.23162e-07
-1.08717e-05
-3.21712e-08
1.07807e-05
1.23181e-07
2.91998e-11
-2.98971e-08
1.14407e-07
-2.9865e-08
1.14425e-07
-1.09364e-11
-3.81669e-06
3.78451e-06
-3.81669e-06
3.78451e-06
-1.00555e-11
-3.43688e-11
-1.06849e-05
-3.64277e-08
1.0582e-05
1.39283e-07
-1.06848e-05
-3.6467e-08
-8.08744e-12
1.0582e-05
1.39262e-07
-3.24761e-11
-3.39265e-08
1.29793e-07
-3.39627e-08
-7.71782e-12
1.29774e-07
1.2809e-11
-3.75057e-06
3.71413e-06
-3.75057e-06
-1.40644e-11
3.71413e-06
1.16448e-11
-1.34252e-11
-1.03921e-11
-1.06848e-05
-3.64392e-08
1.0582e-05
1.39265e-07
-1.06848e-05
-3.64364e-08
-7.09287e-12
1.05819e-05
1.39258e-07
-9.90775e-12
-3.39366e-08
1.29777e-07
-3.3934e-08
-6.74482e-12
1.2977e-07
-1.23125e-11
-3.75056e-06
3.71411e-06
-3.75054e-06
-6.99755e-12
3.7141e-06
-1.17213e-11
-6.65458e-12
-1.90677e-14
-1.06848e-05