/*--------------------------------*- C++ -*----------------------------------*\
  =========                 |
  \\      /  F ield         | OpenFOAM: The Open Source CFD Toolbox
   \\    /   O peration     | Website:  https://openfoam.org
    \\  /    A nd           | Version:  9
     \\/     M anipulation  |
\*---------------------------------------------------------------------------*/
FoamFile
{
    format      ascii;
    class       volVectorField;
    location    "0.6";
    object      U;
}
// * * * * * * * * * * * * * * * * * * * * * * * * * * * * * * * * * * * * * //

dimensions      [0 1 -1 0 0 0 0];

internalField   nonuniform List<vector> 
36360
(
(2.62288e-06 -0.0226705 -0.936523)
(2.60068e-06 -0.0226704 -6.74907e-09)
(3.70272e-06 -0.022677 -0.945349)
(3.7237e-06 -0.022677 7.53106e-09)
(4.39679e-07 -0.00795393 -0.924086)
(4.21783e-07 -0.00795387 -4.92976e-09)
(9.25015e-07 -0.00795761 -0.932483)
(9.28914e-07 -0.00795762 7.22767e-09)
(2.59679e-06 -0.0226704 -1.9416e-10)
(2.59708e-06 -0.0226704 1.5622e-11)
(3.73049e-06 -0.022677 3.93968e-10)
(3.73283e-06 -0.0226771 -6.5142e-11)
(4.18528e-07 -0.00795386 -3.97507e-10)
(4.18349e-07 -0.00795386 -3.79134e-11)
(9.29933e-07 -0.00795763 5.0748e-10)
(9.30272e-07 -0.00795764 -1.71109e-11)
(2.59785e-06 -0.0226704 1.45424e-11)
(2.59859e-06 -0.0226704 5.65912e-11)
(3.7341e-06 -0.0226771 6.82858e-12)
(3.73509e-06 -0.0226771 8.33572e-11)
(4.18502e-07 -0.00795386 1.76857e-11)
(4.18646e-07 -0.00795386 7.44241e-11)
(9.30519e-07 -0.00795765 2.19395e-11)
(9.30771e-07 -0.00795765 7.91764e-11)
(2.59922e-06 -0.0226704 4.85006e-11)
(2.60008e-06 -0.0226704 2.50766e-10)
(3.73572e-06 -0.0226771 1.47102e-10)
(3.73496e-06 -0.0226771 -3.28023e-10)
(4.18762e-07 -0.00795386 1.26679e-10)
(4.1916e-07 -0.00795386 4.70815e-10)
(9.31015e-07 -0.00795765 1.09625e-10)
(9.31085e-07 -0.00795764 -4.33262e-10)
(2.60485e-06 -0.0226704 6.7967e-09)
(2.62752e-06 -0.0226705 0.936523)
(3.72934e-06 -0.022677 -7.50021e-09)
(3.70896e-06 -0.022677 0.945349)
(4.22604e-07 -0.00795388 4.97671e-09)
(4.40603e-07 -0.00795394 0.924086)
(9.30377e-07 -0.00795764 -7.19464e-09)
(9.26633e-07 -0.00795762 0.932483)
(2.19964e-06 -0.022663 -0.935806)
(2.198e-06 -0.0226631 -1.92707e-09)
(2.18171e-06 -0.0226668 -0.93599)
(2.17972e-06 -0.0226669 -2.10622e-09)
(2.06067e-07 -0.00795124 -0.923388)
(1.99817e-07 -0.00795126 -1.33587e-09)
(2.54684e-07 -0.00795249 -0.923567)
(2.48663e-07 -0.00795252 -1.78249e-09)
(2.19812e-06 -0.0226631 -6.94723e-10)
(2.19872e-06 -0.0226631 -3.06212e-10)
(2.18215e-06 -0.0226669 1.53161e-10)
(2.1842e-06 -0.0226669 7.13057e-11)
(1.98484e-07 -0.00795126 -7.40273e-10)
(1.98509e-07 -0.00795127 -3.26956e-10)
(2.48837e-07 -0.00795253 -9.58674e-11)
(2.49611e-07 -0.00795254 1.1094e-11)
(2.19918e-06 -0.0226631 -7.85459e-11)
(2.19957e-06 -0.0226631 1.60037e-10)
(2.18528e-06 -0.0226669 1.76376e-11)
(2.18584e-06 -0.0226669 6.85974e-11)
(1.98616e-07 -0.00795127 -7.41605e-11)
(1.98678e-07 -0.00795127 1.68104e-10)
(2.49984e-07 -0.00795255 1.72519e-11)
(2.50079e-07 -0.00795255 8.14641e-11)
(2.19985e-06 -0.0226631 3.83026e-10)
(2.19986e-06 -0.0226631 7.59921e-10)
(2.18581e-06 -0.0226669 5.22199e-13)
(2.18463e-06 -0.0226669 -9.44605e-11)
(1.98682e-07 -0.00795127 4.16211e-10)
(1.98749e-07 -0.00795127 8.11702e-10)
(2.49891e-07 -0.00795254 8.18637e-11)
(2.49249e-07 -0.00795254 1.71221e-10)
(2.2002e-06 -0.0226631 1.97492e-09)
(2.20207e-06 -0.0226631 0.935806)
(2.18284e-06 -0.0226669 2.14465e-09)
(2.18516e-06 -0.0226668 0.93599)
(2.00174e-07 -0.00795126 1.37981e-09)
(2.06454e-07 -0.00795125 0.923388)
(2.49208e-07 -0.00795253 1.81622e-09)
(2.55284e-07 -0.0079525 0.923567)
(3.10753e-06 -0.0226535 -0.935069)
(3.10355e-06 -0.0226535 -2.05761e-09)
(2.53536e-06 -0.0226587 -0.935266)
(2.53191e-06 -0.0226587 -2.09658e-09)
(2.78993e-07 -0.0079482 -0.922669)
(2.6958e-07 -0.00794821 -1.18761e-09)
(2.21744e-07 -0.00794985 -0.922862)
(2.13794e-07 -0.00794986 -1.33889e-09)
(3.10223e-06 -0.0226535 -1.24558e-09)
(3.10201e-06 -0.0226536 -7.62808e-10)
(2.53084e-06 -0.0226587 -1.03877e-09)
(2.5309e-06 -0.0226588 -5.41488e-10)
(2.66804e-07 -0.00794822 -1.29448e-09)
(2.66447e-07 -0.00794822 -8.13941e-10)
(2.1152e-07 -0.00794987 -1.07742e-09)
(2.1132e-07 -0.00794987 -5.87076e-10)
(3.10201e-06 -0.0226536 -2.49165e-10)
(3.10215e-06 -0.0226536 2.963e-10)
(2.53111e-06 -0.0226588 -1.57486e-10)
(2.53136e-06 -0.0226588 2.22925e-10)
(2.66445e-07 -0.00794823 -2.5645e-10)
(2.66458e-07 -0.00794823 3.08739e-10)
(2.11374e-07 -0.00794988 -1.61471e-10)
(2.11407e-07 -0.00794988 2.35569e-10)
(3.10241e-06 -0.0226536 8.05902e-10)
(3.10286e-06 -0.0226536 1.28324e-09)
(2.53162e-06 -0.0226588 6.01576e-10)
(2.53196e-06 -0.0226587 1.08653e-09)
(2.66481e-07 -0.00794822 8.60731e-10)
(2.66856e-07 -0.00794822 1.32984e-09)
(2.11409e-07 -0.00794987 6.54254e-10)
(2.11664e-07 -0.00794987 1.12575e-09)
(3.10435e-06 -0.0226535 2.11023e-09)
(3.1084e-06 -0.0226535 0.935069)
(2.53332e-06 -0.0226587 2.12999e-09)
(2.53692e-06 -0.0226587 0.935266)
(2.6965e-07 -0.00794821 1.21971e-09)
(2.79081e-07 -0.0079482 0.922669)
(2.13989e-07 -0.00794986 1.35591e-09)
(2.21962e-07 -0.00794985 0.922862)
(4.70464e-06 -0.0226395 -0.934303)
(4.69911e-06 -0.0226395 -2.3558e-09)
(3.8476e-06 -0.0226472 -0.934498)
(3.84295e-06 -0.0226472 -2.17426e-09)
(4.56459e-07 -0.00794366 -0.921923)
(4.4267e-07 -0.00794367 -1.08019e-09)
(3.60796e-07 -0.00794616 -0.922113)
(3.49395e-07 -0.00794617 -1.12576e-09)
(4.69716e-06 -0.0226396 -1.65406e-09)
(4.69647e-06 -0.0226396 -1.17936e-09)
(3.84132e-06 -0.0226472 -1.45956e-09)
(3.84083e-06 -0.0226472 -9.81565e-10)
(4.38604e-07 -0.00794368 -1.72567e-09)
(4.37941e-07 -0.00794368 -1.24116e-09)
(3.46002e-07 -0.00794618 -1.51693e-09)
(3.45485e-07 -0.00794618 -1.03667e-09)
(4.69611e-06 -0.0226396 -4.30306e-10)
(4.69613e-06 -0.0226396 4.52484e-10)
(3.84062e-06 -0.0226473 -3.4586e-10)
(3.84069e-06 -0.0226473 3.73454e-10)
(4.37793e-07 -0.00794369 -4.35759e-10)
(4.37788e-07 -0.00794369 4.58653e-10)
(3.45402e-07 -0.00794619 -3.51079e-10)
(3.45403e-07 -0.00794619 3.81931e-10)
(4.69653e-06 -0.0226396 1.19889e-09)
(4.69726e-06 -0.0226396 1.67318e-09)
(3.84102e-06 -0.0226472 1.00494e-09)
(3.84161e-06 -0.0226472 1.47585e-09)
(4.37924e-07 -0.00794368 1.26045e-09)
(4.38575e-07 -0.00794368 1.73889e-09)
(3.45486e-07 -0.00794618 1.06078e-09)
(3.45999e-07 -0.00794618 1.52727e-09)
(4.69923e-06 -0.0226396 2.40409e-09)
(4.70477e-06 -0.0226395 0.934303)
(3.84332e-06 -0.0226472 2.1977e-09)
(3.848e-06 -0.0226472 0.934498)
(4.4263e-07 -0.00794367 1.10281e-09)
(4.56429e-07 -0.00794367 0.921923)
(3.49385e-07 -0.00794617 1.11511e-09)
(3.60807e-07 -0.00794617 0.922113)
(6.6832e-06 -0.0226197 -0.933508)
(6.67568e-06 -0.0226197 -2.91829e-09)
(5.65387e-06 -0.0226304 -0.933718)
(5.64743e-06 -0.0226304 -2.62966e-09)
(6.7412e-07 -0.00793709 -0.921148)
(6.54756e-07 -0.00793709 -1.12194e-09)
(5.61519e-07 -0.00794065 -0.921354)
(5.45067e-07 -0.00794065 -1.10754e-09)
(6.67315e-06 -0.0226198 -2.04965e-09)
(6.67218e-06 -0.0226198 -1.54537e-09)
(5.64521e-06 -0.0226304 -1.85281e-09)
(5.64436e-06 -0.0226305 -1.36601e-09)
(6.49193e-07 -0.0079371 -2.15778e-09)
(6.48253e-07 -0.0079371 -1.62651e-09)
(5.4028e-07 -0.00794066 -1.9416e-09)
(5.39477e-07 -0.00794067 -1.43708e-09)
(6.67161e-06 -0.0226198 -5.7908e-10)
(6.67159e-06 -0.0226198 6.11828e-10)
(5.64388e-06 -0.0226305 -5.07471e-10)
(5.64388e-06 -0.0226305 5.32438e-10)
(6.48009e-07 -0.0079371 -5.8556e-10)
(6.48003e-07 -0.0079371 6.1491e-10)
(5.39278e-07 -0.00794067 -5.12901e-10)
(5.39271e-07 -0.00794067 5.3658e-10)
(6.67214e-06 -0.0226198 1.57295e-09)
(6.6731e-06 -0.0226198 2.07459e-09)
(5.64435e-06 -0.0226305 1.38672e-09)
(5.64519e-06 -0.0226305 1.86751e-09)
(6.48233e-07 -0.0079371 1.6507e-09)
(6.49158e-07 -0.0079371 2.1732e-09)
(5.39456e-07 -0.00794067 1.45493e-09)
(5.40241e-07 -0.00794066 1.94788e-09)
(6.67562e-06 -0.0226197 2.968e-09)
(6.68313e-06 -0.0226197 0.933508)
(5.64741e-06 -0.0226304 2.64957e-09)
(5.65385e-06 -0.0226304 0.933718)
(6.54713e-07 -0.00793709 1.14614e-09)
(6.74083e-07 -0.00793709 0.921148)
(5.45012e-07 -0.00794066 1.09461e-09)
(5.6148e-07 -0.00794065 0.921354)
(8.99526e-06 -0.0225931 -0.932691)
(8.9853e-06 -0.0225932 -3.63863e-09)
(7.79499e-06 -0.0226073 -0.9329)
(7.78633e-06 -0.0226073 -3.279e-09)
(9.24272e-07 -0.00792817 -0.920352)
(8.98324e-07 -0.00792817 -1.24936e-09)
(7.9468e-07 -0.00793293 -0.920556)
(7.72159e-07 -0.00793294 -1.20255e-09)
(8.98213e-06 -0.0225932 -2.47587e-09)
(8.98094e-06 -0.0225932 -1.90777e-09)
(7.7835e-06 -0.0226074 -2.26289e-09)
(7.78242e-06 -0.0226074 -1.72828e-09)
(8.9103e-07 -0.00792818 -2.63229e-09)
(8.89808e-07 -0.00792818 -2.01404e-09)
(7.65761e-07 -0.00793294 -2.3941e-09)
(7.64682e-07 -0.00793295 -1.82112e-09)
(8.98022e-06 -0.0225932 -7.24068e-10)
(8.98022e-06 -0.0225932 7.64907e-10)
(7.78177e-06 -0.0226074 -6.54317e-10)
(7.78176e-06 -0.0226074 6.85243e-10)
(8.89491e-07 -0.00792818 -7.30478e-10)
(8.89491e-07 -0.00792818 7.69994e-10)
(7.644e-07 -0.00793295 -6.60181e-10)
(7.64397e-07 -0.00793295 6.89342e-10)
(8.98092e-06 -0.0225932 1.94195e-09)
(8.9821e-06 -0.0225932 2.50932e-09)
(7.78238e-06 -0.0226074 1.75181e-09)
(7.78345e-06 -0.0226074 2.27964e-09)
(8.89807e-07 -0.00792818 2.04609e-09)
(8.91026e-07 -0.00792818 2.65105e-09)
(7.6467e-07 -0.00793295 1.84204e-09)
(7.65738e-07 -0.00793295 2.39753e-09)
(8.98527e-06 -0.0225932 3.7036e-09)
(8.99521e-06 -0.0225931 0.932691)
(7.78627e-06 -0.0226073 3.30074e-09)
(7.79491e-06 -0.0226073 0.9329)
(8.98332e-07 -0.00792817 1.27196e-09)
(9.24281e-07 -0.00792817 0.920352)
(7.72132e-07 -0.00793294 1.17981e-09)
(7.94666e-07 -0.00793294 0.920556)
(1.17097e-05 -0.0225589 -0.931835)
(1.16969e-05 -0.0225589 -4.5093e-09)
(1.02966e-05 -0.022577 -0.93205)
(1.02853e-05 -0.022577 -4.08744e-09)
(1.21727e-06 -0.0079166 -0.919518)
(1.18361e-06 -0.0079166 -1.39978e-09)
(1.06461e-06 -0.00792273 -0.919728)
(1.03497e-06 -0.00792274 -1.3557e-09)
(1.16929e-05 -0.0225589 -2.94262e-09)
(1.16916e-05 -0.0225589 -2.27767e-09)
(1.02818e-05 -0.0225771 -2.7128e-09)
(1.02805e-05 -0.0225771 -2.09325e-09)
(1.1743e-06 -0.0079166 -3.14862e-09)
(1.17277e-06 -0.00791661 -2.41354e-09)
(1.02672e-06 -0.00792274 -2.89095e-09)
(1.02534e-06 -0.00792274 -2.21208e-09)
(1.16907e-05 -0.022559 -8.60903e-10)
(1.16907e-05 -0.022559 9.34351e-10)
(1.02797e-05 -0.0225771 -7.92565e-10)
(1.02797e-05 -0.0225771 8.48615e-10)
(1.17238e-06 -0.00791661 -8.70069e-10)
(1.17238e-06 -0.00791661 9.3957e-10)
(1.02499e-06 -0.00792275 -7.99512e-10)
(1.02499e-06 -0.00792275 8.53896e-10)
(1.16916e-05 -0.0225589 2.33984e-09)
(1.16929e-05 -0.0225589 2.99584e-09)
(1.02805e-05 -0.0225771 2.13743e-09)
(1.02818e-05 -0.0225771 2.74513e-09)
(1.17278e-06 -0.00791661 2.47205e-09)
(1.17432e-06 -0.0079166 3.18707e-09)
(1.02535e-06 -0.00792275 2.25465e-09)
(1.02673e-06 -0.00792274 2.90763e-09)
(1.16969e-05 -0.0225589 4.57575e-09)
(1.17097e-05 -0.0225589 0.931835)
(1.02853e-05 -0.0225771 4.11305e-09)
(1.02966e-05 -0.022577 0.93205)
(1.18366e-06 -0.0079166 1.43177e-09)
(1.21732e-06 -0.0079166 0.919518)
(1.03501e-06 -0.00792274 1.33156e-09)
(1.06465e-06 -0.00792273 0.919728)
(1.49304e-05 -0.0225159 -0.930957)
(1.49141e-05 -0.0225159 -5.44008e-09)
(1.32505e-05 -0.0225386 -0.931189)
(1.32361e-05 -0.0225386 -4.98821e-09)
(1.56671e-06 -0.00790198 -0.918663)
(1.52396e-06 -0.00790198 -1.50917e-09)
(1.38413e-06 -0.00790969 -0.918889)
(1.34613e-06 -0.0079097 -1.48634e-09)
(1.49094e-05 -0.0225159 -3.43679e-09)
(1.49078e-05 -0.0225159 -2.68223e-09)
(1.32318e-05 -0.0225386 -3.18925e-09)
(1.32303e-05 -0.0225386 -2.47596e-09)
(1.51228e-06 -0.00790198 -3.71257e-09)
(1.51037e-06 -0.00790198 -2.85568e-09)
(1.33568e-06 -0.0079097 -3.42851e-09)
(1.33397e-06 -0.0079097 -2.63014e-09)
(1.49068e-05 -0.0225159 -1.02749e-09)
(1.49068e-05 -0.0225159 1.08338e-09)
(1.32294e-05 -0.0225386 -9.41079e-10)
(1.32294e-05 -0.0225386 1.00869e-09)
(1.5099e-06 -0.00790199 -1.04051e-09)
(1.5099e-06 -0.00790199 1.09163e-09)
(1.33354e-06 -0.0079097 -9.53187e-10)
(1.33355e-06 -0.0079097 1.01422e-09)
(1.49078e-05 -0.0225159 2.72941e-09)
(1.49094e-05 -0.0225159 3.48016e-09)
(1.32303e-05 -0.0225386 2.53061e-09)
(1.32318e-05 -0.0225386 3.23084e-09)
(1.51037e-06 -0.00790199 2.89795e-09)
(1.51228e-06 -0.00790198 3.73886e-09)
(1.33398e-06 -0.0079097 2.67916e-09)
(1.3357e-06 -0.0079097 3.45072e-09)
(1.49142e-05 -0.0225159 5.51278e-09)
(1.49304e-05 -0.0225159 0.930957)
(1.32361e-05 -0.0225386 5.01642e-09)
(1.32506e-05 -0.0225386 0.931189)
(1.52399e-06 -0.00790198 1.53834e-09)
(1.56673e-06 -0.00790198 0.918663)
(1.34617e-06 -0.0079097 1.46641e-09)
(1.38417e-06 -0.00790969 0.918889)
(1.87682e-05 -0.0224626 -0.930034)
(1.87479e-05 -0.0224626 -6.53955e-09)
(1.67657e-05 -0.0224906 -0.930273)
(1.67476e-05 -0.0224906 -5.99067e-09)
(1.98582e-06 -0.00788382 -0.917763)
(1.93232e-06 -0.00788383 -1.62394e-09)
(1.76672e-06 -0.00789337 -0.917996)
(1.71883e-06 -0.00789338 -1.59576e-09)
(1.87422e-05 -0.0224627 -3.99061e-09)
(1.87404e-05 -0.0224627 -3.12554e-09)
(1.67423e-05 -0.0224906 -3.71476e-09)
(1.67406e-05 -0.0224906 -2.90589e-09)
(1.91786e-06 -0.00788383 -4.34246e-09)
(1.91552e-06 -0.00788383 -3.33684e-09)
(1.70582e-06 -0.00789338 -4.02663e-09)
(1.7037e-06 -0.00789338 -3.09501e-09)
(1.87392e-05 -0.0224627 -1.20349e-09)
(1.87392e-05 -0.0224627 1.25647e-09)
(1.67396e-05 -0.0224906 -1.11933e-09)
(1.67396e-05 -0.0224906 1.16273e-09)
(1.91497e-06 -0.00788383 -1.21562e-09)
(1.91497e-06 -0.00788383 1.27329e-09)
(1.70319e-06 -0.00789338 -1.12981e-09)
(1.7032e-06 -0.00789338 1.1764e-09)
(1.87404e-05 -0.0224627 3.17141e-09)
(1.87422e-05 -0.0224627 4.02945e-09)
(1.67406e-05 -0.0224906 2.93901e-09)
(1.67424e-05 -0.0224906 3.73881e-09)
(1.91553e-06 -0.00788383 3.38484e-09)
(1.91786e-06 -0.00788383 4.37256e-09)
(1.70371e-06 -0.00789338 3.12956e-09)
(1.70582e-06 -0.00789338 4.036e-09)
(1.8748e-05 -0.0224626 6.60819e-09)
(1.87682e-05 -0.0224626 0.930034)
(1.67476e-05 -0.0224906 6.01727e-09)
(1.67658e-05 -0.0224906 0.930273)
(1.93235e-06 -0.00788383 1.65239e-09)
(1.98585e-06 -0.00788383 0.917763)
(1.71886e-06 -0.00789338 1.56659e-09)
(1.76675e-06 -0.00789337 0.917996)
(2.33429e-05 -0.0223976 -0.929088)
(2.3318e-05 -0.0223976 -7.8206e-09)
(2.09566e-05 -0.0224317 -0.929346)
(2.09341e-05 -0.0224317 -7.17518e-09)
(2.48869e-06 -0.00786155 -0.916842)
(2.42245e-06 -0.00786156 -1.72536e-09)
(2.2259e-06 -0.00787324 -0.917094)
(2.16631e-06 -0.00787324 -1.69346e-09)
(2.33111e-05 -0.0223976 -4.59188e-09)
(2.3309e-05 -0.0223976 -3.59663e-09)
(2.09278e-05 -0.0224317 -4.28148e-09)
(2.09259e-05 -0.0224317 -3.35208e-09)
(2.40471e-06 -0.00786156 -5.03637e-09)
(2.40187e-06 -0.00786156 -3.85849e-09)
(2.15028e-06 -0.00787324 -4.67796e-09)
(2.1477e-06 -0.00787324 -3.58735e-09)
(2.33077e-05 -0.0223977 -1.3803e-09)
(2.33077e-05 -0.0223977 1.45738e-09)
(2.09247e-05 -0.0224317 -1.28632e-09)
(2.09247e-05 -0.0224317 1.35728e-09)
(2.40122e-06 -0.00786155 -1.4012e-09)
(2.40122e-06 -0.00786156 1.47424e-09)
(2.1471e-06 -0.00787324 -1.30256e-09)
(2.1471e-06 -0.00787324 1.37327e-09)
(2.3309e-05 -0.0223977 3.66201e-09)
(2.33111e-05 -0.0223976 4.63919e-09)
(2.09259e-05 -0.0224317 3.41108e-09)
(2.09278e-05 -0.0224317 4.3229e-09)
(2.40186e-06 -0.00786156 3.92025e-09)
(2.4047e-06 -0.00786156 5.0775e-09)
(2.1477e-06 -0.00787324 3.64459e-09)
(2.15027e-06 -0.00787325 4.70949e-09)
(2.3318e-05 -0.0223976 7.88367e-09)
(2.3343e-05 -0.0223976 0.929088)
(2.09342e-05 -0.0224317 7.20455e-09)
(2.09566e-05 -0.0224317 0.929346)
(2.42245e-06 -0.00786156 1.76245e-09)
(2.48869e-06 -0.00786155 0.916842)
(2.16632e-06 -0.00787325 1.68544e-09)
(2.22593e-06 -0.00787324 0.917094)
(2.87795e-05 -0.022319 -0.928107)
(2.87491e-05 -0.022319 -9.30566e-09)
(2.59461e-05 -0.0223601 -0.928361)
(2.59186e-05 -0.0223601 -8.55161e-09)
(3.08976e-06 -0.0078345 -0.915886)
(3.00847e-06 -0.0078345 -1.83993e-09)
(2.77595e-06 -0.00784866 -0.916134)
(2.7025e-06 -0.00784867 -1.80636e-09)
(2.87408e-05 -0.022319 -5.2922e-09)
(2.87384e-05 -0.022319 -4.156e-09)
(2.5911e-05 -0.0223601 -4.93159e-09)
(2.59088e-05 -0.0223601 -3.8675e-09)
(2.98691e-06 -0.0078345 -5.85032e-09)
(2.98348e-06 -0.0078345 -4.474e-09)
(2.68293e-06 -0.00784867 -5.43169e-09)
(2.6798e-06 -0.00784867 -4.1582e-09)
(2.8737e-05 -0.022319 -1.60472e-09)
(2.8737e-05 -0.022319 1.6664e-09)
(2.59075e-05 -0.0223601 -1.49045e-09)
(2.59075e-05 -0.0223601 1.55642e-09)
(2.98274e-06 -0.00783449 -1.63144e-09)
(2.98274e-06 -0.00783449 1.68659e-09)
(2.67911e-06 -0.00784867 -1.51532e-09)
(2.67911e-06 -0.00784867 1.57405e-09)
(2.87384e-05 -0.022319 4.20702e-09)
(2.87408e-05 -0.022319 5.33438e-09)
(2.59088e-05 -0.0223601 3.92302e-09)
(2.5911e-05 -0.0223601 4.96992e-09)
(2.98349e-06 -0.0078345 4.51893e-09)
(2.98692e-06 -0.0078345 5.87805e-09)
(2.6798e-06 -0.00784867 4.20649e-09)
(2.68292e-06 -0.00784867 5.45905e-09)
(2.87491e-05 -0.022319 9.38837e-09)
(2.87795e-05 -0.022319 0.928107)
(2.59186e-05 -0.0223601 8.58622e-09)
(2.59462e-05 -0.0223601 0.928361)
(3.00851e-06 -0.0078345 1.87979e-09)
(3.08979e-06 -0.0078345 0.915886)
(2.70251e-06 -0.00784867 1.79709e-09)
(2.77597e-06 -0.00784867 0.916134)
(3.52145e-05 -0.0222245 -0.92709)
(3.51776e-05 -0.0222245 -1.10025e-08)
(3.18647e-05 -0.0222738 -0.927367)
(3.18311e-05 -0.0222738 -1.01686e-08)
(3.80498e-06 -0.00780188 -0.914895)
(3.70599e-06 -0.00780189 -1.92957e-09)
(3.43205e-06 -0.00781893 -0.915165)
(3.34228e-06 -0.00781893 -1.93925e-09)
(3.51678e-05 -0.0222245 -6.03811e-09)
(3.51652e-05 -0.0222245 -4.74777e-09)
(3.18222e-05 -0.0222738 -5.67271e-09)
(3.18196e-05 -0.0222738 -4.4511e-09)
(3.67998e-06 -0.00780188 -6.734e-09)
(3.67588e-06 -0.00780188 -5.13211e-09)
(3.31859e-06 -0.00781893 -6.29121e-09)
(3.31484e-06 -0.00781893 -4.79866e-09)
(3.51636e-05 -0.0222245 -1.83435e-09)
(3.51636e-05 -0.0222245 1.90398e-09)
(3.18181e-05 -0.0222738 -1.71808e-09)
(3.18182e-05 -0.0222738 1.78536e-09)
(3.67501e-06 -0.00780188 -1.86635e-09)
(3.67502e-06 -0.00780188 1.93292e-09)
(3.31403e-06 -0.00781893 -1.74633e-09)
(3.31404e-06 -0.00781893 1.80916e-09)
(3.51652e-05 -0.0222245 4.80251e-09)
(3.51679e-05 -0.0222245 6.08997e-09)
(3.18197e-05 -0.0222738 4.5029e-09)
(3.18222e-05 -0.0222738 5.70654e-09)
(3.67589e-06 -0.00780188 5.18475e-09)
(3.68e-06 -0.00780188 6.76191e-09)
(3.31485e-06 -0.00781893 4.84643e-09)
(3.3186e-06 -0.00781893 6.30624e-09)
(3.51777e-05 -0.0222245 1.11008e-08)
(3.52146e-05 -0.0222245 0.92709)
(3.18312e-05 -0.0222738 1.02004e-08)
(3.18647e-05 -0.0222738 0.927367)
(3.70605e-06 -0.00780189 1.96658e-09)
(3.80503e-06 -0.00780188 0.914895)
(3.34234e-06 -0.00781894 1.89961e-09)
(3.4321e-06 -0.00781893 0.915165)
(4.27875e-05 -0.0221119 -0.926033)
(4.2743e-05 -0.0221119 -1.28649e-08)
(3.88507e-05 -0.0221706 -0.926307)
(3.88102e-05 -0.0221706 -1.19466e-08)
(4.65056e-06 -0.00776287 -0.913865)
(4.5309e-06 -0.00776287 -1.91461e-09)
(4.21029e-06 -0.00778323 -0.914132)
(4.10138e-06 -0.00778323 -1.9764e-09)
(4.27315e-05 -0.0221119 -6.79826e-09)
(4.27285e-05 -0.0221119 -5.36149e-09)
(3.87996e-05 -0.0221706 -6.42093e-09)
(3.87968e-05 -0.0221706 -5.0497e-09)
(4.49972e-06 -0.00776287 -7.6557e-09)
(4.49482e-06 -0.00776286 -5.82575e-09)
(4.07289e-06 -0.00778323 -7.18923e-09)
(4.0684e-06 -0.00778322 -5.47127e-09)
(4.27267e-05 -0.0221119 -2.08142e-09)
(4.27267e-05 -0.0221119 2.13778e-09)
(3.87951e-05 -0.0221706 -1.9558e-09)
(3.87951e-05 -0.0221706 2.01704e-09)
(4.49382e-06 -0.00776286 -2.12183e-09)
(4.49383e-06 -0.00776286 2.17936e-09)
(4.06747e-06 -0.00778322 -1.99152e-09)
(4.06747e-06 -0.00778322 2.05237e-09)
(4.27285e-05 -0.0221119 5.40185e-09)
(4.27315e-05 -0.0221119 6.83583e-09)
(3.87968e-05 -0.0221706 5.09352e-09)
(3.87997e-05 -0.0221706 6.45244e-09)
(4.49483e-06 -0.00776286 5.87188e-09)
(4.49974e-06 -0.00776287 7.68001e-09)
(4.06841e-06 -0.00778322 5.51814e-09)
(4.0729e-06 -0.00778323 7.20232e-09)
(4.27431e-05 -0.0221119 1.29503e-08)
(4.27876e-05 -0.0221119 0.926033)
(3.88103e-05 -0.0221706 1.19765e-08)
(3.88508e-05 -0.0221706 0.926307)
(4.53097e-06 -0.00776288 1.9489e-09)
(4.65062e-06 -0.00776287 0.913865)
(4.10145e-06 -0.00778323 1.93214e-09)
(4.21035e-06 -0.00778323 0.914132)
(5.16476e-05 -0.0219786 -0.924957)
(5.15945e-05 -0.0219786 -1.49549e-08)
(4.70483e-05 -0.022048 -0.925227)
(4.69997e-05 -0.022048 -1.39037e-08)
(5.64388e-06 -0.00771651 -0.912816)
(5.50021e-06 -0.00771651 -1.82863e-09)
(5.12748e-06 -0.00774067 -0.913079)
(4.99627e-06 -0.00774067 -1.91085e-09)
(5.1581e-05 -0.0219786 -7.62247e-09)
(5.15776e-05 -0.0219786 -6.03916e-09)
(4.69872e-05 -0.022048 -7.20178e-09)
(4.69841e-05 -0.022048 -5.69112e-09)
(5.46307e-06 -0.0077165 -8.67115e-09)
(5.45725e-06 -0.0077165 -6.59348e-09)
(4.96222e-06 -0.00774066 -8.14947e-09)
(4.95688e-06 -0.00774066 -6.19884e-09)
(5.15756e-05 -0.0219786 -2.3498e-09)
(5.15756e-05 -0.0219786 2.41377e-09)
(4.69822e-05 -0.022048 -2.21544e-09)
(4.69822e-05 -0.022048 2.2653e-09)
(5.4561e-06 -0.00771649 -2.39897e-09)
(5.45611e-06 -0.00771649 2.46726e-09)
(4.95581e-06 -0.00774065 -2.25874e-09)
(4.95582e-06 -0.00774065 2.31589e-09)
(5.15777e-05 -0.0219786 6.09092e-09)
(5.15811e-05 -0.0219786 7.66965e-09)
(4.69841e-05 -0.022048 5.72829e-09)
(4.69873e-05 -0.022048 7.23219e-09)
(5.45728e-06 -0.0077165 6.6509e-09)
(5.4631e-06 -0.00771651 8.70565e-09)
(4.9569e-06 -0.00774066 6.24654e-09)
(4.96225e-06 -0.00774066 8.17144e-09)
(5.15946e-05 -0.0219786 1.50433e-08)
(5.16478e-05 -0.0219786 0.924957)
(4.69998e-05 -0.022048 1.39341e-08)
(4.70484e-05 -0.022048 0.925227)
(5.5003e-06 -0.00771651 1.86703e-09)
(5.64395e-06 -0.00771651 0.912816)
(4.99635e-06 -0.00774067 1.88446e-09)
(5.12755e-06 -0.00774067 0.913079)
(6.19443e-05 -0.0218217 -0.923808)
(6.18812e-05 -0.0218217 -1.73217e-08)
(5.66091e-05 -0.0219032 -0.924105)
(5.65512e-05 -0.0219032 -1.61322e-08)
(6.80194e-06 -0.00766177 -0.911697)
(6.63062e-06 -0.00766178 -1.68398e-09)
(6.20106e-06 -0.00769025 -0.911986)
(6.04406e-06 -0.00769025 -1.80169e-09)
(6.18655e-05 -0.0218217 -8.53181e-09)
(6.18617e-05 -0.0218216 -6.78277e-09)
(5.65366e-05 -0.0219032 -8.07084e-09)
(5.6533e-05 -0.0219032 -6.4042e-09)
(6.58666e-06 -0.00766177 -9.79884e-09)
(6.57978e-06 -0.00766176 -7.43896e-09)
(6.00362e-06 -0.00769024 -9.22326e-09)
(5.9973e-06 -0.00769023 -7.0072e-09)
(6.18595e-05 -0.0218216 -2.63072e-09)
(6.18595e-05 -0.0218216 2.74072e-09)
(5.65309e-05 -0.0219032 -2.4901e-09)
(5.6531e-05 -0.0219032 2.57006e-09)
(6.57844e-06 -0.00766175 -2.69503e-09)
(6.57845e-06 -0.00766175 2.79909e-09)
(5.99606e-06 -0.00769023 -2.54559e-09)
(5.99607e-06 -0.00769023 2.62644e-09)
(6.18617e-05 -0.0218216 6.87325e-09)
(6.18656e-05 -0.0218217 8.59736e-09)
(5.65331e-05 -0.0219032 6.46976e-09)
(5.65367e-05 -0.0219032 8.11792e-09)
(6.57979e-06 -0.00766176 7.52499e-09)
(6.58667e-06 -0.00766177 9.8527e-09)
(5.99732e-06 -0.00769023 7.07292e-09)
(6.00365e-06 -0.00769024 9.25453e-09)
(6.18814e-05 -0.0218217 1.7417e-08)
(6.19445e-05 -0.0218217 0.923808)
(5.65513e-05 -0.0219032 1.61678e-08)
(5.66092e-05 -0.0219033 0.924105)
(6.63069e-06 -0.00766178 1.73605e-09)
(6.802e-06 -0.00766178 0.911697)
(6.04414e-06 -0.00769025 1.77274e-09)
(6.20113e-06 -0.00769025 0.911986)
(7.38245e-05 -0.0216382 -0.922636)
(7.37502e-05 -0.0216382 -1.99246e-08)
(6.76789e-05 -0.0217334 -0.92294)
(6.76104e-05 -0.0217334 -1.86262e-08)
(8.14176e-06 -0.00759757 -0.910555)
(7.93881e-06 -0.00759758 -1.43087e-09)
(7.44779e-06 -0.00763092 -0.910851)
(7.26119e-06 -0.00763092 -1.61498e-09)
(7.37319e-05 -0.0216382 -9.49523e-09)
(7.37276e-05 -0.0216381 -7.59298e-09)
(6.75934e-05 -0.0217334 -9.00934e-09)
(6.75894e-05 -0.0217334 -7.17275e-09)
(7.88708e-06 -0.00759757 -1.10216e-08)
(7.87898e-06 -0.00759755 -8.36649e-09)
(7.21347e-06 -0.00763091 -1.0397e-08)
(7.206e-06 -0.0076309 -7.88676e-09)
(7.37251e-05 -0.0216381 -2.95074e-09)
(7.37251e-05 -0.0216381 3.07544e-09)
(6.7587e-05 -0.0217334 -2.77766e-09)
(6.75871e-05 -0.0217334 2.91392e-09)
(7.87743e-06 -0.00759754 -3.03058e-09)
(7.87743e-06 -0.00759754 3.14301e-09)
(7.20456e-06 -0.0076309 -2.85265e-09)
(7.20456e-06 -0.0076309 2.97253e-09)
(7.37276e-05 -0.0216381 7.6931e-09)
(7.37319e-05 -0.0216382 9.56426e-09)
(6.75894e-05 -0.0217334 7.28215e-09)
(6.75935e-05 -0.0217334 9.07304e-09)
(7.87898e-06 -0.00759755 8.45399e-09)
(7.88707e-06 -0.00759757 1.10703e-08)
(7.206e-06 -0.0076309 7.98258e-09)
(7.21347e-06 -0.00763092 1.04474e-08)
(7.37503e-05 -0.0216382 2.00319e-08)
(7.38247e-05 -0.0216382 0.922636)
(6.76105e-05 -0.0217334 1.86663e-08)
(6.7679e-05 -0.0217334 0.92294)
(7.93885e-06 -0.00759758 1.48395e-09)
(8.1418e-06 -0.00759758 0.910555)
(7.26125e-06 -0.00763093 1.59243e-09)
(7.44785e-06 -0.00763092 0.910851)
(8.74313e-05 -0.0214249 -0.921424)
(8.73441e-05 -0.0214249 -2.28102e-08)
(8.04054e-05 -0.0215355 -0.921737)
(8.03248e-05 -0.0215354 -2.1359e-08)
(9.67947e-06 -0.00752274 -0.909373)
(9.44058e-06 -0.00752274 -1.08306e-09)
(8.88453e-06 -0.00756155 -0.909679)
(8.66417e-06 -0.00756156 -1.31071e-09)
(8.7323e-05 -0.0214249 -1.05287e-08)
(8.73181e-05 -0.0214248 -8.49242e-09)
(8.03051e-05 -0.0215354 -1.00064e-08)
(8.03006e-05 -0.0215354 -8.0333e-09)
(9.38006e-06 -0.00752273 -1.23547e-08)
(9.37058e-06 -0.00752271 -9.40048e-09)
(8.60818e-06 -0.00756154 -1.16738e-08)
(8.5994e-06 -0.00756153 -8.86886e-09)
(8.73153e-05 -0.0214248 -3.34631e-09)
(8.73154e-05 -0.0214248 3.37615e-09)
(8.02979e-05 -0.0215354 -3.1432e-09)
(8.0298e-05 -0.0215354 3.22239e-09)
(9.36879e-06 -0.0075227 -3.43861e-09)
(9.36879e-06 -0.0075227 3.46948e-09)
(8.59774e-06 -0.00756152 -3.22785e-09)
(8.59774e-06 -0.00756152 3.30179e-09)
(8.73182e-05 -0.0214248 8.51703e-09)
(8.73231e-05 -0.0214249 1.05648e-08)
(8.03006e-05 -0.0215354 8.09148e-09)
(8.03052e-05 -0.0215354 1.00429e-08)
(9.37058e-06 -0.00752271 9.42654e-09)
(9.38006e-06 -0.00752273 1.23692e-08)
(8.5994e-06 -0.00756153 8.9239e-09)
(8.60817e-06 -0.00756154 1.16925e-08)
(8.73443e-05 -0.0214249 2.2913e-08)
(8.74315e-05 -0.0214249 0.921424)
(8.03249e-05 -0.0215354 2.1396e-08)
(8.04055e-05 -0.0215355 0.921737)
(9.44062e-06 -0.00752274 1.12821e-09)
(9.6795e-06 -0.00752274 0.909373)
(8.6642e-06 -0.00756156 1.2765e-09)
(8.88456e-06 -0.00756156 0.909679)
(0.000102895 -0.0211785 -0.920167)
(0.000102793 -0.0211785 -2.60506e-08)
(9.49253e-05 -0.021306 -0.920493)
(9.48312e-05 -0.021306 -2.44166e-08)
(1.14295e-05 -0.00743606 -0.908148)
(1.11502e-05 -0.00743606 -6.79422e-10)
(1.05266e-05 -0.00748095 -0.908467)
(1.02681e-05 -0.00748095 -9.34412e-10)
(0.000102769 -0.0211784 -1.16519e-08)
(0.000102763 -0.0211784 -9.44441e-09)
(9.48085e-05 -0.021306 -1.108e-08)
(9.48034e-05 -0.0213059 -8.96161e-09)
(1.10798e-05 -0.00743604 -1.38086e-08)
(1.10688e-05 -0.00743602 -1.05008e-08)
(1.02028e-05 -0.00748093 -1.30693e-08)
(1.01926e-05 -0.00748092 -9.94362e-09)
(0.00010276 -0.0211784 -3.72511e-09)
(0.00010276 -0.0211784 3.76815e-09)
(9.48004e-05 -0.0213059 -3.54198e-09)
(9.48004e-05 -0.0213059 3.55522e-09)
(1.10667e-05 -0.00743601 -3.83836e-09)
(1.10667e-05 -0.00743601 3.87753e-09)
(1.01906e-05 -0.00748091 -3.64232e-09)
(1.01907e-05 -0.00748091 3.65883e-09)
(0.000102764 -0.0211784 9.48198e-09)
(0.000102769 -0.0211784 1.17025e-08)
(9.48035e-05 -0.0213059 8.97635e-09)
(9.48087e-05 -0.021306 1.11089e-08)
(1.10688e-05 -0.00743602 1.05389e-08)
(1.10798e-05 -0.00743604 1.38373e-08)
(1.01926e-05 -0.00748092 9.9574e-09)
(1.02028e-05 -0.00748094 1.30646e-08)
(0.000102793 -0.0211785 2.61637e-08)
(0.000102895 -0.0211785 0.920167)
(9.48314e-05 -0.021306 2.44585e-08)
(9.49255e-05 -0.021306 0.920493)
(1.11503e-05 -0.00743606 7.34753e-10)
(1.14296e-05 -0.00743606 0.908148)
(1.02682e-05 -0.00748095 8.88451e-10)
(1.05267e-05 -0.00748095 0.908467)
(0.000120321 -0.0208956 -0.918856)
(0.000120204 -0.0208956 -2.96245e-08)
(0.000111359 -0.0210418 -0.919187)
(0.000111249 -0.0210418 -2.78405e-08)
(1.34035e-05 -0.00733631 -0.906871)
(1.3079e-05 -0.00733631 -2.08651e-10)
(1.23872e-05 -0.00738788 -0.907193)
(1.20859e-05 -0.00738788 -5.1183e-10)
(0.000120176 -0.0208955 -1.28836e-08)
(0.00012017 -0.0208955 -1.04908e-08)
(0.000111223 -0.0210417 -1.22668e-08)
(0.000111218 -0.0210417 -9.95449e-09)
(1.29978e-05 -0.00733629 -1.54078e-08)
(1.2985e-05 -0.00733627 -1.16963e-08)
(1.20102e-05 -0.00738787 -1.45961e-08)
(1.19983e-05 -0.00738785 -1.1084e-08)
(0.000120166 -0.0208955 -4.12886e-09)
(0.000120166 -0.0208955 4.21337e-09)
(0.000111214 -0.0210417 -3.91952e-09)
(0.000111214 -0.0210417 3.98942e-09)
(1.29826e-05 -0.00733626 -4.25698e-09)
(1.29826e-05 -0.00733626 4.33626e-09)
(1.19961e-05 -0.00738783 -4.04002e-09)
(1.19961e-05 -0.00738784 4.10721e-09)
(0.00012017 -0.0208955 1.05437e-08)
(0.000120176 -0.0208955 1.2926e-08)
(0.000111218 -0.0210417 1.00052e-08)
(0.000111224 -0.0210417 1.23008e-08)
(1.2985e-05 -0.00733627 1.17502e-08)
(1.29978e-05 -0.00733629 1.54249e-08)
(1.19984e-05 -0.00738785 1.11388e-08)
(1.20102e-05 -0.00738787 1.46178e-08)
(0.000120204 -0.0208956 2.97283e-08)
(0.000120321 -0.0208956 0.918856)
(0.00011125 -0.0210418 2.78725e-08)
(0.000111359 -0.0210418 0.919187)
(1.30791e-05 -0.00733631 2.4512e-10)
(1.34036e-05 -0.00733631 0.906871)
(1.2086e-05 -0.00738789 4.72089e-10)
(1.23873e-05 -0.00738788 0.907193)
(0.000139797 -0.0205729 -0.917505)
(0.000139661 -0.0205728 -3.34486e-08)
(0.000129801 -0.0207394 -0.917854)
(0.000129675 -0.0207394 -3.15484e-08)
(1.56104e-05 -0.00722224 -0.905554)
(1.5236e-05 -0.00722224 4.42977e-10)
(1.44766e-05 -0.00728113 -0.905894)
(1.41279e-05 -0.00728113 5.58924e-11)
(0.00013963 -0.0205728 -1.412e-08)
(0.000139623 -0.0205727 -1.15682e-08)
(0.000129645 -0.0207393 -1.34974e-08)
(0.000129639 -0.0207393 -1.10108e-08)
(1.51427e-05 -0.00722222 -1.70644e-08)
(1.5128e-05 -0.0072222 -1.29564e-08)
(1.40407e-05 -0.00728111 -1.62134e-08)
(1.4027e-05 -0.00728109 -1.23046e-08)
(0.000139619 -0.0205727 -4.57744e-09)
(0.000139619 -0.0205727 4.62634e-09)
(0.000129635 -0.0207393 -4.3407e-09)
(0.000129635 -0.0207393 4.41935e-09)
(1.51253e-05 -0.00722218 -4.73263e-09)
(1.51253e-05 -0.00722218 4.76917e-09)
(1.40245e-05 -0.00728107 -4.48622e-09)
(1.40245e-05 -0.00728107 4.54809e-09)
(0.000139623 -0.0205727 1.15939e-08)
(0.00013963 -0.0205728 1.41426e-08)
(0.000129639 -0.0207393 1.10584e-08)
(0.000129645 -0.0207393 1.35226e-08)
(1.5128e-05 -0.0072222 1.2981e-08)
(1.51427e-05 -0.00722222 1.70685e-08)
(1.4027e-05 -0.00728109 1.23507e-08)