/*--------------------------------*- C++ -*----------------------------------*\
  =========                 |
  \\      /  F ield         | OpenFOAM: The Open Source CFD Toolbox
   \\    /   O peration     | Website:  https://openfoam.org
    \\  /    A nd           | Version:  9
     \\/     M anipulation  |
\*---------------------------------------------------------------------------*/
FoamFile
{
    format      ascii;
    class       volScalarField;
    location    "0.7";
    object      nut;
}
// * * * * * * * * * * * * * * * * * * * * * * * * * * * * * * * * * * * * * //

dimensions      [0 2 -1 0 0 0 0];

internalField   nonuniform List<scalar> 
36360
(
0.000937896
0.000770538
0.000426688
0.000397262
0.000246729
0.000196012
0.000190489
0.000173844
0.00026115
0.000159544
0.000192839
0.00015923
0.000146749
0.000140134
0.000162746
0.000161995
0.000149026
0.000149024
0.000157976
0.000157976
0.000139655
0.000139655
0.000161942
0.000161942
0.000159533
0.000261116
0.000159232
0.000192825
0.000140133
0.000146743
0.000161995
0.000162746
0.000770503
0.00093799
0.000397259
0.000426693
0.000196002
0.000246741
0.000173844
0.00019049
0.00140801
0.00113205
0.00125251
0.00100967
0.000317802
0.000245497
0.000295719
0.000229137
0.000435461
0.000181019
0.00037256
0.000173718
0.000146244
0.000125847
0.000144825
0.000129545
0.000155941
0.000155931
0.000152226
0.000152219
0.000124379
0.000124379
0.000128461
0.00012846
0.000180963
0.000435207
0.000173665
0.000372396
0.00012584
0.000146201
0.000129541
0.000144796
0.00113203
0.00140823
0.00100964
0.00125269
0.000245454
0.000317853
0.000229106
0.000295756
0.00149484
0.00120188
0.00147299
0.00118417
0.000327576
0.000254841
0.000325352
0.000252275
0.000471563
0.000186424
0.000462655
0.000185363
0.000147962
0.000124645
0.000147463
0.00012485
0.00015758
0.000157568
0.000157291
0.000157279
0.00012297
0.000122969
0.000123218
0.000123217
0.000186341
0.000471246
0.000185288
0.000462361
0.000124637
0.000147905
0.000124842
0.00014741
0.00120187
0.00149511
0.00118416
0.00147324
0.000254789
0.000327639
0.000252226
0.000325412
0.00150153
0.00120787
0.00150076
0.00120703
0.00032813
0.000255875
0.000328137
0.000255734
0.000474464
0.000186737
0.000474127
0.000186704
0.000148147
0.00012459
0.000148135
0.000124604
0.000157589
0.000157577
0.000157617
0.000157604
0.000122905
0.000122904
0.000122918
0.000122917
0.000186653
0.000474144
0.000186619
0.000473806
0.000124581
0.000148089
0.000124595
0.000148078
0.00120786
0.00150182
0.00120703
0.00150104
0.000255824
0.000328196
0.000255683
0.000328203
0.00150075
0.00120762
0.00150125
0.00120783
0.000327933
0.000255835
0.000328078
0.000255916
0.000474274
0.000186661
0.000474412
0.000186709
0.000148111
0.000124567
0.000148143
0.00012457
0.00015756
0.000157548
0.000157594
0.000157582
0.000122889
0.000122888
0.000122886
0.000122885
0.000186577
0.000473956
0.000186625
0.000474093
0.000124558
0.000148054
0.000124561
0.000148086
0.00120761
0.00150104
0.00120783
0.00150154
0.000255785
0.000328
0.000255865
0.000328144
0.00149931
0.00120654
0.00150007
0.00120713
0.000327648
0.000255583
0.000327836
0.000255755
0.000473671
0.000186512
0.000474036
0.000186582
0.000148024
0.000124534
0.000148083
0.000124556
0.00015753
0.000157518
0.00015756
0.000157548
0.000122863
0.000122862
0.000122881
0.00012288
0.000186429
0.000473355
0.000186499
0.000473719
0.000124525
0.000147966
0.000124547
0.000148025
0.00120653
0.0014996
0.00120713
0.00150036
0.000255533
0.000327715
0.000255705
0.000327903
0.0014976
0.00120522
0.00149851
0.00120596
0.00032732
0.000255264
0.000327533
0.000255471
0.000472895
0.000186388
0.000473373
0.000186477
0.000147915
0.000124491
0.000147984
0.00012451
0.000157501
0.000157489
0.000157536
0.000157524
0.000122826
0.000122826
0.000122839
0.000122838
0.000186305
0.00047258
0.000186394
0.000473057
0.000124482
0.000147858
0.000124501
0.000147927
0.00120522
0.00149789
0.00120596
0.0014988
0.000255214
0.000327387
0.000255422
0.0003276
0.00149566
0.00120375
0.00149668
0.00120457
0.000326956
0.000254909
0.000327189
0.000255137
0.000472035
0.000186215
0.000472568
0.000186302
0.000147793
0.000124445
0.000147869
0.000124466
0.000157466
0.000157454
0.000157499
0.000157487
0.000122789
0.000122789
0.000122805
0.000122804
0.000186133
0.000471722
0.000186219
0.000472254
0.000124436
0.000147736
0.000124457
0.000147813
0.00120375
0.00149595
0.00120457
0.00149697
0.00025486
0.000327023
0.000255088
0.000327256
0.00149348
0.00120214
0.00149462
0.00120302
0.000326557
0.000254522
0.00032681
0.000254768
0.000471101
0.000186071
0.000471678
0.000186173
0.000147657
0.000124393
0.000147741
0.000124418
0.000157432
0.00015742
0.00015747
0.000157458
0.000122744
0.000122744
0.000122763
0.000122763
0.00018599
0.000470787
0.000186091
0.000471364
0.000124384
0.000147601
0.000124409
0.000147684
0.00120213
0.00149377
0.00120302
0.00149491
0.000254472
0.000326625
0.000254719
0.000326877
0.00149108
0.00120037
0.00149233
0.00120133
0.000326124
0.000254106
0.000326397
0.000254366
0.000470095
0.000185879
0.00047071
0.000185978
0.00014751
0.000124333
0.0001476
0.000124361
0.00015739
0.000157378
0.000157427
0.000157415
0.000122692
0.000122692
0.000122715
0.000122714
0.000185798
0.00046978
0.000185896
0.000470396
0.000124324
0.000147454
0.000124352
0.000147543
0.00120037
0.00149137
0.00120133
0.00149262
0.000254056
0.000326191
0.000254317
0.000326464
0.00148843
0.00119845
0.00148981
0.00119949
0.000325652
0.000253664
0.000325948
0.000253939
0.000469013
0.000185716
0.00046967
0.000185829
0.00014735
0.000124265
0.000147447
0.000124298
0.000157348
0.000157336
0.000157391
0.000157379
0.000122631
0.000122631
0.000122658
0.000122657
0.000185635
0.000468696
0.000185747
0.000469354
0.000124256
0.000147294
0.000124289
0.00014739
0.00119844
0.00148871
0.00119949
0.00149009
0.000253613
0.000325718
0.000253889
0.000326014
0.0014855
0.00119636
0.00148703
0.00119749
0.000325136
0.000253189
0.000325457
0.000253483
0.000467845
0.000185505
0.000468548
0.000185611
0.000147176
0.000124187
0.00014728
0.000124223
0.000157299
0.000157287
0.00015734
0.000157328
0.000122561
0.00012256
0.000122592
0.000122591
0.000185423
0.000467527
0.00018553
0.000468231
0.000124178
0.000147119
0.000124214
0.000147223
0.00119635
0.00148579
0.00119748
0.00148731
0.000253138
0.000325201
0.000253433
0.000325522
0.00148228
0.00119407
0.00148395
0.0011953
0.00032457
0.000252676
0.000324919
0.00025299
0.000466579
0.00018533
0.000467335
0.000185445
0.000146985
0.000124098
0.000147098
0.000124141
0.000157254
0.000157242
0.000157296
0.000157284
0.000122479
0.000122479
0.000122516
0.000122516
0.000185249
0.000466262
0.000185364
0.000467019
0.00012409
0.000146928
0.000124132
0.000147041
0.00119406
0.00148256
0.00119529
0.00148423
0.000252625
0.000324635
0.000252939
0.000324983
0.00147873
0.00119158
0.00148056
0.00119291
0.000323952
0.000252127
0.000324327
0.000252458
0.000465206
0.000185112
0.000466019
0.000185242
0.000146777
0.000123997
0.000146899
0.000124046
0.000157198
0.000157186
0.000157246
0.000157234
0.000122386
0.000122386
0.000122429
0.000122429
0.000185031
0.00046489
0.000185162
0.000465703
0.000123989
0.000146721
0.000124037
0.000146842
0.00119156
0.00147901
0.00119289
0.00148084
0.000252076
0.000324016
0.000252407
0.000324392
0.00147484
0.00118886
0.00147684
0.0011903
0.000323276
0.000251548
0.000323681
0.000251894
0.000463716
0.000184874
0.000464592
0.000185015
0.000146552
0.000123883
0.000146683
0.000123938
0.000157135
0.000157123
0.000157187
0.000157175
0.00012228
0.00012228
0.00012233
0.000122329
0.000184794
0.0004634
0.000184935
0.000464276
0.000123874
0.000146496
0.00012393
0.000146626
0.00118885
0.00147512
0.00119028
0.00147712
0.000251497
0.00032334
0.000251843
0.000323745
0.00147056
0.00118589
0.00147275
0.00118746
0.000322541
0.000250947
0.000322976
0.000251302
0.000462096
0.000184617
0.000463042
0.000184768
0.000146309
0.000123754
0.000146449
0.000123817
0.000157064
0.000157053
0.00015712
0.000157108
0.00012216
0.00012216
0.000122217
0.000122216
0.000184537
0.000461782
0.000184688
0.000462727
0.000123746
0.000146253
0.000123808
0.000146393
0.00118587
0.00147084
0.00118744
0.00147303
0.000250896
0.000322605
0.000251251
0.00032304
0.00146588
0.0011826
0.00146826
0.00118434
0.000321743
0.000250338
0.000322209
0.000250694
0.000460344
0.00018434
0.000461359
0.000184501
0.000146045
0.00012361
0.000146196
0.00012368
0.000156986
0.000156974
0.000157047
0.000157035
0.000122025
0.000122024
0.000122089
0.000122088
0.000184261
0.000460031
0.000184422
0.000461046
0.000123601
0.00014599
0.000123672
0.00014614
0.00118258
0.00146616
0.00118432
0.00146854
0.000250288
0.000321807
0.000250643
0.000322273
0.0014608
0.00117896
0.00146338
0.00118086
0.00032088
0.000249728
0.000321379
0.000250088
0.000458463
0.000184045
0.000459543
0.000184216
0.000145759
0.000123448
0.000145922
0.000123527
0.000156902
0.00015689
0.000156966
0.000156954
0.000121873
0.000121872
0.000121945
0.000121945
0.000183967
0.000458151
0.000184138
0.000459231
0.00012344
0.000145704
0.000123519
0.000145867
0.00117893
0.00146108
0.00118084
0.00146365
0.000249677
0.000320943
0.000250037
0.000321442
0.00145532
0.00117503
0.00145808
0.00117706
0.000319947
0.000249074
0.00032048
0.000249458
0.000456455
0.000183732
0.0004576
0.000183913
0.000145448
0.000123269
0.000145623
0.000123357
0.000156811
0.000156799
0.000156878
0.000156867
0.000121704
0.000121703
0.000121785
0.000121784
0.000183654
0.000456144
0.000183835
0.000457289
0.00012326
0.000145394
0.000123348
0.000145569
0.00117501
0.00145559
0.00117704
0.00145836
0.000249024
0.00032001
0.000249408
0.000320543
0.00144941
0.00117083
0.00145238
0.00117299
0.000318944
0.000248372
0.000319512
0.00024878
0.000454316
0.000183399
0.000455526
0.00018359
0.000145111
0.00012307
0.000145299
0.000123168
0.000156713
0.000156702
0.000156784
0.000156773
0.000121515
0.000121515
0.000121606
0.000121605
0.000183323
0.000454006
0.000183513
0.000455216
0.000123061
0.000145057
0.000123159
0.000145245
0.0011708
0.00144968
0.00117297
0.00145265
0.000248321
0.000319006
0.00024873
0.000319574
0.00144308
0.00116633
0.00144625
0.00116863
0.00031787
0.00024762
0.000318473
0.000248053
0.000452048
0.000183049
0.000453319
0.000183249
0.000144746
0.00012285
0.000144948
0.000122958
0.000156609
0.000156597
0.000156683
0.000156671
0.000121307
0.000121306
0.000121408
0.000121407
0.000182973
0.000451739
0.000183173
0.000453011
0.000122842
0.000144692
0.00012295
0.000144894
0.00116631
0.00144335
0.00116861
0.00144652
0.00024757
0.000317931
0.000248002
0.000318535
0.00143634
0.00116155
0.0014397
0.00116399
0.000316724
0.000246818
0.000317362
0.000247275
0.000449651
0.00018268
0.000450982
0.000182888
0.000144354
0.000122609
0.00014457
0.000122728
0.000156498
0.000156486
0.000156575
0.000156563
0.000121078
0.000121077
0.000121189
0.000121188
0.000182605
0.000449344
0.000182813
0.000450675
0.000122601
0.0001443
0.00012272
0.000144516
0.00116152
0.0014366
0.00116396
0.00143996
0.000246768
0.000316786
0.000247225
0.000317423
0.00142918
0.0011565
0.00143273
0.00115906
0.00031551
0.000245967
0.000316181
0.000246448
0.000447131
0.000182293
0.000448518
0.00018251
0.000143933
0.000122346
0.000144163
0.000122476
0.00015638
0.000156369
0.000156459
0.000156448
0.000120827
0.000120826
0.000120949
0.000120948
0.000182219
0.000446826
0.000182435
0.000448213
0.000122338
0.00014388
0.000122468
0.00014411
0.00115647
0.00142945
0.00115903
0.001433
0.000245917
0.000315571
0.000246398
0.000316242
0.00142165
0.00115118
0.00142538
0.00115386
0.000314231
0.000245069
0.000314933
0.000245573
0.000444498
0.00018189
0.000445936
0.000182114
0.000143484
0.000122061
0.000143728
0.000122202
0.000156256
0.000156245
0.000156338
0.000156327
0.000120554
0.000120553
0.000120687
0.000120686
0.000181817
0.000444194
0.000182041
0.000445632
0.000122052
0.000143432
0.000122194
0.000143675
0.00115115
0.00142191
0.00115383
0.00142564
0.000245019
0.000314291
0.000245522
0.000314993
0.00141376
0.00114562
0.00141765
0.00114841
0.000312891
0.000244126
0.000313622
0.000244651
0.000441759
0.000181473
0.000443243
0.000181703
0.000143008
0.000121751
0.000143265
0.000121904
0.000156128
0.000156116
0.000156211
0.0001562
0.000120257
0.000120257
0.000120402
0.000120401
0.000181401
0.000441457
0.000181631
0.000442941
0.000121743
0.000142956
0.000121896
0.000143213
0.00114558
0.00141402
0.00114837
0.00141791
0.000244077
0.000312951
0.000244601
0.000313682
0.00140555
0.00113985
0.00140958
0.00114273
0.000311498
0.000243142
0.000312253
0.000243686
0.00043893
0.000181044
0.000440452
0.000181279
0.000142504
0.000121419
0.000142774
0.000121583
0.000155994
0.000155983
0.000156079
0.000156068
0.000119938
0.000119937
0.000120094
0.000120093
0.000180973
0.00043863
0.000181207
0.000440152
0.000121411
0.000142452
0.000121575
0.000142722
0.00113981
0.00140581
0.00114269
0.00140984
0.000243093
0.000311557
0.000243636
0.000312312
0.00139708
0.0011339
0.00140122
0.00113685
0.000310059
0.000242122
0.000310835
0.000242682
0.000436029
0.000180605
0.000437579
0.000180844
0.000141974
0.000121063
0.000142257
0.000121239
0.000155857
0.000155846
0.000155943
0.000155932
0.000119595
0.000119595
0.000119762
0.000119762
0.000180535
0.000435731
0.000180773
0.000437281
0.000121055
0.000141923
0.000121231
0.000142206
0.00113385
0.00139733
0.00113681
0.00140148
0.000242072
0.000310117
0.000242633
0.000310893
0.0013884
0.00112781
0.00139263
0.00113082
0.000308585
0.000241071
0.000309376
0.000241645
0.000433076
0.000180159
0.000434643
0.0001804
0.00014142
0.000120684
0.000141714
0.000120871
0.000155717
0.000155706
0.000155803
0.000155792
0.00011923
0.000119229
0.000119408
0.000119407
0.00018009
0.00043278
0.00018033
0.000434347
0.000120676
0.00014137
0.000120863
0.000141664
0.00112776
0.00138866
0.00113077
0.00139288
0.000241022
0.000308643
0.000241595
0.000309434
0.00137959
0.00112164
0.00138387
0.00112467
0.000307087
0.000239997
0.000307887
0.00024058
0.000430094
0.00017971
0.000431667
0.000179952
0.000140845
0.000120282
0.000141149
0.00012048
0.000155575
0.000155564
0.000155661
0.00015565
0.000118842
0.000118841
0.000119031
0.00011903
0.000179642
0.0004298
0.000179883
0.000431373
0.000120275
0.000140795
0.000120473
0.000141099
0.00112159
0.00137984
0.00112463
0.00138412
0.000239948
0.000307144
0.000240531
0.000307945
0.00137072
0.00111542
0.00137501
0.00111846
0.000305579
0.000238906
0.000306382
0.000239496
0.000427107
0.00017926
0.000428674
0.000179501
0.000140249
0.000119859
0.000140563
0.000120068
0.000155432
0.000155421
0.000155517
0.000155506
0.000118432
0.000118432
0.000118632
0.000118631
0.000179193
0.000426815
0.000179433
0.000428382
0.000119852
0.0001402
0.00012006
0.000140513
0.00111537
0.00137097
0.00111841
0.00137526
0.000238857
0.000305635
0.000239447
0.000306438
0.00136186
0.00110922
0.00136613
0.00111224
0.000304072
0.000237807
0.000304871
0.000238399
0.000424139
0.000178813
0.000425688
0.000179051
0.000139637
0.000119416
0.000139958
0.000119634
0.000155288
0.000155277
0.000155372
0.000155362
0.000118002
0.000118002
0.000118212
0.000118211
0.000178746
0.00042385
0.000178984
0.000425398
0.000119409
0.000139589
0.000119627
0.000139909
0.00110917
0.00136211
0.00111219
0.00136637
0.000237759
0.000304128
0.00023835
0.000304927
0.0013531
0.0011031
0.0013573
0.00110606
0.000302582
0.000236708
0.00030337
0.000237298
0.000421219
0.000178372
0.000422735
0.000178605
0.000139012
0.000118954
0.000139339
0.000119181
0.000155147
0.000155136
0.000155228
0.000155217
0.000117553
0.000117552
0.000117772
0.000117771
0.000178306
0.000420931
0.000178539
0.000422447
0.000118947
0.000138964
0.000119174
0.00013929
0.00110304
0.00135334
0.00110601
0.00135754
0.00023666
0.000302637
0.000237249
0.000303425
0.00134451
0.0010971
0.00134861
0.00109998
0.000301121
0.000235618
0.000301892
0.000236201
0.000418371
0.000177941
0.000419842
0.000178168
0.000138376
0.000118475
0.000138707
0.00011871
0.00015501
0.000154999
0.000155082
0.000155072
0.000117086
0.000117086
0.000117314
0.000117313
0.000177876
0.000418085
0.000178103
0.000419557
0.000118468
0.000138328
0.000118703
0.000138659
0.00109704
0.00134475
0.00109993
0.00134885
0.000235569
0.000301175
0.000236153
0.000301946
0.00133618
0.00109128
0.00134013
0.00109406
0.000299704
0.000234544
0.00030045
0.000235117
0.00041562
0.000177521
0.000417034
0.000177741
0.000137733
0.000117981
0.000138067
0.000118223
0.000154868
0.000154858
0.000154941
0.000154931
0.000116604
0.000116604
0.000116839
0.000116838
0.000177458
0.000415336
0.000177677
0.00041675
0.000117974
0.000137686
0.000118216
0.000138019
0.00109122
0.00133642
0.001094
0.00134037
0.000234496
0.000299758
0.000235069
0.000300504
0.00132817
0.0010857
0.00133194
0.00108835
0.000298343
0.000233496
0.000299058
0.000234054
0.000412991
0.000177119
0.000414336
0.000177329
0.000137087
0.000117474
0.000137422
0.000117722
0.000154722
0.000154712
0.000154799
0.000154789
0.000116108
0.000116108
0.00011635
0.000116349
0.000177056
0.000412709
0.000177266
0.000414054
0.000117467
0.000137041
0.000117715
0.000137375
0.00108563
0.00132841
0.00108829
0.00133218
0.000233448
0.000298396
0.000234006
0.000299112
0.00132054
0.00108041
0.00132411
0.0010829
0.000297049
0.000232482
0.000297729
0.000233021
0.000410506
0.000176735
0.00041177
0.000176935
0.000136441
0.000116956
0.000136775
0.000117209
0.000154579
0.000154569
0.000154653
0.000154643
0.000115601
0.0001156
0.000115848
0.000115847
0.000176672
0.000410226
0.000176872
0.00041149
0.000116949
0.000136395
0.000117202
0.000136728
0.00108034
0.00132077
0.00108284
0.00132434
0.000232434
0.000297102
0.000232973
0.000297782
0.00131318
0.00107537
0.00131665
0.00107776
0.000295829
0.000231508
0.000296471
0.000232026
0.000408171
0.000176371
0.000409359
0.00017656
0.0001358
0.00011643
0.00013613
0.000116687
0.000154441
0.000154432
0.000154514
0.000154504
0.000115085
0.000115084
0.000115335
0.000115335
0.000176309
0.000407893
0.000176498
0.000409081
0.000116423
0.000135754
0.00011668
0.000136084
0.0010753
0.00131341
0.00107769
0.00131688
0.000231461
0.000295881
0.000231978
0.000296523
0.00130338
0.00106824
0.00130889
0.00107244
0.000294555
0.000230454
0.000295267
0.000231057
0.000405376
0.000175993
0.000407002
0.0001762
0.000135147
0.000115897
0.000135488
0.000116157
0.000154311
0.000154301
0.000154381
0.000154371
0.000114561
0.00011456
0.000114815
0.000114814
0.000175932
0.0004051
0.000176139
0.000406726
0.00011589
0.000135102
0.00011615
0.000135443
0.00106817
0.0013036
0.00107237
0.00130912
0.000230407
0.000294606
0.000231009
0.000295319
0.00127193
0.00103663
0.00129268
0.00105883
0.000291454
0.000226948
0.000293582
0.000229465
0.000393888
0.000174939
0.000401874
0.000175635
0.000133992
0.000115319
0.000134735
0.00011562
0.000154175
0.000154165
0.000154244
0.000154234
0.000114014
0.000114014
0.000114291
0.000114291
0.000174879
0.000393617
0.000175575
0.000401602
0.000115313
0.000133948
0.000115613
0.000134691
0.00103655
0.00127214
0.00105875
0.00129289
0.000226902
0.000291502
0.000229418
0.000293632
0.00113668
0.000926167
0.000475462
0.000427602
0.00109894
0.000894
0.000472961
0.000417114
0.000304618
0.000163971
0.000200877
0.000159031
0.00029505
0.000162843
0.000198618
0.00015907
0.000148927
0.000148925
0.000157684
0.000157684
0.000148897
0.000148895
0.000157831
0.000157832
0.000163931
0.00030456
0.000159034
0.000200859
0.00016281
0.000295001
0.000159073
0.000198597
0.000926131
0.00113683
0.000427591
0.000475477
0.000893964
0.00109907
0.000417103
0.000472972
0.00177074
0.00142093
0.00155606
0.00125249
0.00168511
0.00135437
0.00148855
0.00119922
0.000570856
0.000200349
0.000474936
0.000184487
0.000540783
0.000196206
0.000453001
0.000182721
0.000158403
0.000158387
0.000153596
0.000153586
0.000158202
0.000158188
0.000153469
0.000153459
0.000200218
0.00057051
0.000184463
0.000474703
0.000196086
0.00054046
0.000182695
0.000452786
0.00142097
0.00177104
0.00125249
0.0015563
0.00135439
0.00168538
0.00119921
0.00148877
0.00189898
0.00152082
0.00186446
0.00149425
0.00180026
0.00144483
0.00176972
0.00142109
0.000627253
0.000209196
0.000612863
0.000206989
0.000591485
0.000204295
0.0005787
0.000202366
0.000160627
0.00016061
0.000160216
0.0001602
0.000160374
0.000160358
0.000159978
0.000159962
0.000209047
0.000626829
0.000206851
0.000612461
0.00020416
0.000591086
0.000202243
0.000578326
0.0015209
0.00189936
0.00149432
0.00186481
0.00144488
0.00180059
0.00142113
0.00177003
0.0019124
0.00153099
0.00190995
0.00152923
0.00181146
0.00145353
0.00180956
0.0014521
0.00063247
0.000209952
0.000631759
0.000209854
0.000595962
0.000204913
0.000595407
0.000204842
0.000160694
0.000160676
0.000160707
0.000160689
0.000160434
0.000160417
0.000160447
0.000160431
0.0002098
0.000632042
0.000209702
0.000631329
0.000204776
0.000595557
0.000204704
0.000595002
0.00153109
0.00191279
0.00152933
0.00191033
0.00145358
0.00181181
0.00145216
0.00180991
0.00191252
0.00153112
0.00191265
0.00153123
0.00181127
0.0014535
0.0018115
0.00145365
0.000632421
0.000209892
0.000632578
0.000209941
0.000595917
0.000204863
0.000596063
0.000204907
0.000160685
0.000160667
0.000160711
0.000160694
0.000160424
0.000160408
0.000160451
0.000160434
0.00020974
0.000631991
0.000209789
0.00063215
0.000204726
0.000595514
0.00020477
0.00059566
0.00153121
0.00191291
0.00153133
0.00191305
0.00145356
0.00181163
0.00145371
0.00181185
0.00191081
0.00152983
0.00191169
0.00153051
0.0018096
0.00145227
0.00181047
0.00145292
0.000631565
0.000209677
0.000632073
0.000209797
0.000595145
0.000204673
0.000595605
0.000204777
0.000160667
0.00016065
0.000160692
0.000160675
0.000160407
0.000160391
0.000160432
0.000160416
0.000209525
0.000631134
0.000209645
0.000631644
0.000204537
0.000594744
0.000204641
0.000595203
0.00152992
0.0019112
0.00153061
0.00191209
0.00145233
0.00180996
0.00145298
0.00181082
0.0019086
0.00152809
0.00190974
0.00152902
0.00180756
0.00145067
0.00180862
0.00145154
0.000630457
0.000209476
0.000631123
0.000209613
0.000594131
0.000204495
0.000594743
0.000204617
0.000160651
0.000160634
0.000160681
0.000160664
0.000160392
0.000160375
0.000160422
0.000160405
0.000209326
0.000630026
0.000209461
0.000630693
0.00020436
0.00059373
0.000204482
0.000594342
0.00152817
0.001909
0.00152912
0.00191013
0.00145073
0.00180791
0.0014516
0.00180897
0.00190612
0.00152615
0.00190737
0.00152718
0.00180523
0.0014489
0.00180642
0.00144986
0.000629263
0.000209227
0.000629986
0.00020937
0.000593027
0.000204267
0.000593699
0.000204395
0.000160632
0.000160614
0.000160658
0.000160641
0.000160372
0.000160356
0.000160399
0.000160382
0.000209076
0.00062883
0.000209219
0.000629555
0.000204132
0.000592627
0.00020426
0.000593299
0.00152623
0.00190651
0.00152727
0.00190776
0.00144896
0.00180559
0.00144992
0.00180677
0.0019034
0.00152405
0.00190475
0.00152515
0.00180266
0.00144697
0.00180396
0.00144799
0.000628
0.00020901
0.000628761
0.000209156
0.000591847
0.000204071
0.000592562
0.000204205
0.000160616
0.000160598
0.000160646
0.000160629
0.000160356
0.00016034
0.000160386
0.00016037
0.00020886
0.000627567
0.000209007
0.000628329
0.000203937
0.000591447
0.000204071
0.000592163
0.00152414
0.00190378
0.00152524
0.00190514
0.00144703
0.00180301
0.00144805
0.00180431
0.00190045
0.00152182
0.00190191
0.00152298
0.00179984
0.00144489
0.00180126
0.00144598
0.000626669
0.000208745
0.000627465
0.000208897
0.000590594
0.000203829
0.000591348
0.000203965
0.000160595
0.000160578
0.000160623
0.000160606
0.000160335
0.000160319
0.000160363
0.000160347
0.000208596
0.000626236
0.000208747
0.000627034
0.000203695
0.000590193
0.000203831
0.000590948
0.00152191
0.00190084
0.00152306
0.0019023
0.00144494
0.00180019
0.00144604
0.00180161
0.00189725
0.00151945
0.00189883
0.00152067
0.00179675
0.00144262
0.0017983
0.0014438
0.000625263
0.000208514
0.000626099
0.000208668
0.000589262
0.000203619
0.000590057
0.00020376
0.000160579
0.000160562
0.00016061
0.000160593
0.000160319
0.000160302
0.00016035
0.000160333
0.000208366
0.000624829
0.00020852
0.000625667
0.000203485
0.000588859
0.000203627
0.000589656
0.00151953
0.00189764
0.00152075
0.00189921
0.00144267
0.0017971
0.00144386
0.00179864
0.00189377
0.00151689
0.00189549
0.0015182
0.00179339
0.00144016
0.00179508
0.00144144
0.000623769
0.000208233
0.000624649
0.000208394
0.00058784
0.000203359
0.000588682
0.000203504
0.000160559
0.000160542
0.000160587
0.00016057
0.000160297
0.000160281
0.000160326
0.000160309
0.000208085
0.000623335
0.000208245
0.000624217
0.000203226
0.000587437
0.000203371
0.00058828
0.00151697
0.00189416
0.00151828
0.00189587
0.00144021
0.00179373
0.00144149
0.00179542
0.00188998
0.00151413
0.00189186
0.00151554
0.00178971
0.0014375
0.00179156
0.00143888
0.00062218
0.000207981
0.00062311
0.000208146
0.000586316
0.000203129
0.000587213
0.00020328
0.000160542
0.000160525
0.000160573
0.000160556
0.00016028
0.000160264
0.000160311
0.000160295
0.000207835
0.000621748
0.000207999
0.000622679
0.000202997
0.000585914
0.000203148
0.00058681
0.00151421
0.00189037
0.00151562
0.00189224
0.00143754
0.00179005
0.00143893
0.0017919
0.00188587
0.00151114
0.0018879
0.00151266
0.00178568
0.0014346
0.00178771
0.00143609
0.00062049
0.000207681
0.00062147
0.000207851
0.000584681
0.000202852
0.000585635
0.000203006
0.000160522
0.000160504
0.00016055
0.000160533
0.000160259
0.000160243
0.000160288
0.000160272
0.000207535
0.000620058
0.000207705
0.00062104
0.000202721
0.000584279
0.000202875
0.000585233
0.00151122
0.00188625
0.00151274
0.00188828
0.00143464
0.00178602
0.00143614
0.00178805
0.0018814
0.00150791
0.00188361
0.00150955
0.00178128
0.00143142
0.00178349
0.00143306
0.000618696
0.00020742
0.000619729
0.000207583
0.000582932
0.000202613
0.000583944
0.000202765
0.00016051
0.000160493
0.000160536
0.000160519
0.000160247
0.000160231
0.000160274
0.000160258
0.000207275
0.000618265
0.000207438
0.000619299
0.000202483
0.00058253
0.000202635
0.000583543
0.00150799
0.00188178
0.00150963
0.00188399
0.00143147
0.00178162
0.0014331
0.00178383
0.00187655
0.00150444
0.00187895
0.0015062
0.0017765
0.00142797
0.00177889
0.00142973
0.000616792
0.000207136
0.000617881
0.000207314
0.000581066
0.000202338
0.000582136
0.000202509
0.000160498
0.000160481
0.000160525
0.000160508
0.00016023
0.000160214
0.00016026
0.000160244
0.000206992
0.000616362
0.000207169
0.000617451
0.000202209
0.000580665
0.00020238
0.000581736
0.00150451
0.00187693
0.00150627
0.00187933
0.00142801
0.00177684
0.00142978
0.00177922
0.00187131
0.00150069
0.00187389
0.00150257
0.00177132
0.00142426
0.0017739
0.00142614
0.000614773
0.000206827
0.000615917
0.000207018
0.000579079
0.000202041
0.000580209
0.000202222
0.000160482
0.000160465
0.000160511
0.000160494
0.000160209
0.000160193
0.000160241
0.000160225
0.000206684
0.000614342
0.000206875
0.000615488
0.000201913
0.000578679
0.000202094
0.000579809
0.00150076
0.00187169
0.00150265
0.00187427
0.0014243
0.00177166
0.00142619
0.00177423
0.00186566
0.00149668
0.00186843
0.00149868
0.00176573
0.00142027
0.0017685
0.00142228
0.000612632
0.0002065
0.000613834
0.000206699
0.000576967
0.000201728
0.000578159
0.000201917
0.000160464
0.000160447
0.000160494
0.000160477
0.000160187
0.000160171
0.000160219
0.000160203
0.000206358
0.000612202
0.000206556
0.000613406
0.000201601
0.000576567
0.000201789
0.00057776
0.00149674
0.00186603
0.00149875
0.0018688
0.00142031
0.00176607
0.00142232
0.00176884
0.00185958
0.00149238
0.00186254
0.00149451
0.0017597
0.00141599
0.00176267
0.00141814
0.000610364
0.000206159
0.000611628
0.000206365
0.000574722
0.000201401
0.00057598
0.000201597
0.000160446
0.000160429
0.000160476
0.000160459
0.000160164
0.000160148
0.000160197
0.000160181
0.000206018
0.000609935
0.000206223
0.0006112
0.000201275
0.000574324
0.00020147
0.000575582
0.00149244
0.00185995
0.00149458
0.00186291
0.00141602
0.00176004
0.00141818
0.00176301
0.00185308
0.0014878
0.00185624
0.00149007
0.00175323
0.00141141
0.00175641
0.0014137
0.000607971
0.000205806
0.000609295
0.000206017
0.000572345
0.00020106
0.000573669
0.000201263
0.000160428
0.000160411
0.000160458
0.000160441
0.00016014
0.000160125
0.000160174
0.000160158
0.000205666
0.000607543
0.000205877
0.000608868
0.000200935
0.000571947
0.000201137
0.000573272
0.00148786
0.00185345
0.00149013
0.00185661
0.00141144
0.00175357
0.00141374
0.00175674
0.00184612
0.00148292
0.00184949
0.00148533
0.00174632
0.00140653
0.0017497
0.00140897
0.000605449
0.000205439
0.000606835
0.000205657
0.000569833
0.000200705
0.000571222
0.000200914
0.00016041
0.000160393
0.00016044
0.000160424
0.000160117
0.000160101
0.00016015
0.000160135
0.0002053
0.000605021
0.000205517
0.000606409
0.000200581
0.000569436
0.00020079
0.000570826
0.00148298
0.00184649
0.00148539
0.00184986
0.00140656
0.00174665
0.001409
0.00175003
0.00183872
0.00147774
0.0018423
0.00148029
0.00173895
0.00140136
0.00174255
0.00140393
0.000602797
0.00020506
0.000604245
0.000205284
0.000567187
0.000200336
0.000568639
0.000200552
0.000160393
0.000160377
0.000160423
0.000160407
0.000160093
0.000160077
0.000160127
0.000160111
0.000204923
0.00060237
0.000205146
0.000603819
0.000200213
0.000566791
0.000200429
0.000568244
0.00147779
0.00183909
0.00148034
0.00184267
0.00140138
0.00173928
0.00140395
0.00174287
0.00183088
0.00147227
0.00183466
0.00147495
0.00173115
0.00139589
0.00173495
0.00139859
0.000600021
0.00020467
0.000601527
0.000204899
0.000564414
0.000199954
0.000565924
0.000200176
0.000160377
0.000160361
0.000160407
0.00016039
0.000160069
0.000160054
0.000160103
0.000160087
0.000204533
0.000599595
0.000204761
0.000601102
0.000199833
0.000564018
0.000200054
0.00056553
0.00147232
0.00183125
0.001475
0.00183502
0.00139591
0.00173147
0.00139861
0.00173527
0.00182262
0.00146652
0.00182659
0.00146932
0.00172293
0.00139014
0.00172692
0.00139297
0.000597128
0.00020427
0.000598686
0.000204502
0.000561519
0.000199561
0.000563084
0.000199788
0.000160363
0.000160346
0.000160392
0.000160375
0.000160046
0.00016003
0.000160079
0.000160064
0.000204134
0.000596702
0.000204366
0.000598262
0.000199441
0.000561125
0.000199667
0.000562691
0.00146656
0.00182298
0.00146937
0.00182695
0.00139016
0.00172325
0.00139299
0.00172724
0.00181396
0.0014605
0.00181812
0.00146342
0.00171432