/*--------------------------------*- C++ -*----------------------------------*\
  =========                 |
  \\      /  F ield         | OpenFOAM: The Open Source CFD Toolbox
   \\    /   O peration     | Website:  https://openfoam.org
    \\  /    A nd           | Version:  9
     \\/     M anipulation  |
\*---------------------------------------------------------------------------*/
FoamFile
{
    format      ascii;
    class       surfaceScalarField;
    location    "0.1";
    object      phi;
}
// * * * * * * * * * * * * * * * * * * * * * * * * * * * * * * * * * * * * * //

dimensions      [0 3 -1 0 0 0 0];

internalField   nonuniform List<scalar> 
104044
(
-3.15426e-11
-6.73681e-05
2.05318e-10
6.73647e-05
3.23098e-09
-6.73706e-05
4.2796e-10
-6.14076e-11
6.73674e-05
2.78824e-09
-2.71974e-11
2.02262e-09
-1.65725e-09
2.20981e-09
-2.14655e-11
-1.97985e-09
-3.52925e-11
-3.01363e-05
3.01365e-05
-3.01364e-05
-7.24886e-11
3.01369e-05
-4.00924e-11
-3.15876e-11
-4.97428e-11
-6.73755e-05
6.9934e-10
6.73725e-05
2.25174e-09
-6.73797e-05
9.03109e-10
-2.43708e-11
6.7377e-05
1.83934e-09
-2.67585e-11
2.49957e-09
-2.53217e-09
2.74434e-09
-1.44841e-11
-2.99718e-09
-5.8577e-11
-3.01378e-05
3.01385e-05
-3.01391e-05
-2.86498e-11
3.014e-05
-3.48258e-11
-1.85936e-11
3.74539e-13
-6.7382e-05
1.00018e-09
6.73793e-05
1.63966e-09
-6.7382e-05
1.00389e-09
2.50403e-11
6.73793e-05
1.63907e-09
8.0059e-13
2.86389e-09
-3.22376e-09
2.85761e-09
1.59377e-11
-3.2079e-09
3.05263e-13
-3.01398e-05
3.01407e-05
-3.01398e-05
2.91113e-11
3.01407e-05
8.5847e-13
1.98486e-11
5.00048e-11
-6.73798e-05
9.15673e-10
6.7377e-05
1.83278e-09
-6.73756e-05
7.23867e-10
6.13791e-11
6.73726e-05
2.22944e-09
2.70187e-11
2.73135e-09
-2.96061e-09
2.49454e-09
2.09253e-11
-2.50582e-09
5.84385e-11
-3.01391e-05
3.014e-05
-3.01378e-05
7.19436e-11
3.01385e-05
3.45627e-11
3.02364e-11
3.2463e-11
-6.73706e-05
4.64668e-10
6.73675e-05
2.74534e-09
-6.73682e-05
2.50669e-10
6.73648e-05
3.17306e-09
2.67597e-11
2.22286e-09
-1.98562e-09
2.04942e-09
-1.69369e-09
3.49137e-11
-3.01364e-05
3.01369e-05
-3.01363e-05
3.01366e-05
3.89453e-11
-8.0403e-11
-6.73552e-05
-7.27518e-09
6.73391e-05
2.34719e-08
-6.73581e-05
-7.16512e-09
-1.12562e-10
6.7342e-05
2.32429e-08
-4.80155e-11
-3.80817e-09
1.33203e-08
-3.68924e-09
-9.38853e-11
1.30429e-08
-7.05229e-11
-3.01327e-05
3.01255e-05
-3.01332e-05
-1.19935e-10
3.01261e-05
-4.84921e-11
-1.00212e-10
-9.65096e-11
-6.73633e-05
-7.01292e-09
6.73474e-05
2.2957e-08
-6.73679e-05
-6.91709e-09
-4.9581e-11
6.7352e-05
2.27492e-08
-7.40509e-11
-3.50444e-09
1.26754e-08
-3.37859e-09
-3.58193e-11
1.2401e-08
-1.00666e-10
-3.0135e-05
3.01279e-05
-3.01365e-05
-5.11945e-11
3.01296e-05
-8.02581e-11
-3.89636e-11
3.95052e-13
-6.73703e-05
-6.88167e-09
6.73545e-05
2.26614e-08
-6.73704e-05
-6.88642e-09
5.04658e-11
6.73545e-05
2.26707e-08
3.21541e-13
-3.32648e-09
1.22768e-08
-3.32619e-09
3.64366e-11
1.22793e-08
5.27942e-13
-3.01374e-05
3.01304e-05
-3.01374e-05
5.23674e-11
3.01304e-05
3.13533e-13
3.95611e-11
9.77783e-11
-6.73679e-05
-6.93187e-09
6.7352e-05
2.27774e-08
-6.73634e-05
-7.03871e-09
1.14313e-10
6.73474e-05
2.30047e-08
7.48515e-11
-3.37822e-09
1.2408e-08
-3.50518e-09
9.49517e-11
1.26866e-08
1.02163e-10
-3.01366e-05
3.01296e-05
-3.0135e-05
1.21743e-10
3.0128e-05
8.09924e-11
1.01179e-10
8.17077e-11
-6.73581e-05
-7.20163e-09
6.73421e-05
2.33083e-08
-6.73553e-05
-7.31906e-09
6.73392e-05
2.35484e-08
4.90426e-11
-3.69234e-09
1.30581e-08
-3.81421e-09
1.33367e-08
7.17343e-11
-3.01333e-05
3.01261e-05
-3.01328e-05
3.01256e-05
4.89075e-11
-1.06931e-10
-6.73171e-05
-1.27121e-08
6.72889e-05
4.10044e-08
-6.732e-05
-1.2657e-08
-1.46808e-10
6.72918e-05
4.08598e-08
-9.24295e-11
-9.99549e-09
3.21559e-08
-9.91851e-09
-1.26985e-10
3.19806e-08
-8.89678e-11
-3.01156e-05
3.0103e-05
-3.01163e-05
-1.53101e-10
3.01037e-05
-7.89614e-11
-1.34606e-10
-1.32524e-10
-6.73254e-05
-1.25407e-08
6.72973e-05
4.06675e-08
-6.73301e-05
-1.24643e-08
-7.14968e-11
6.7302e-05
4.05122e-08
-1.13738e-10
-9.79081e-09
3.17528e-08
-9.7071e-09
-6.04108e-11
3.15774e-08
-1.34357e-10
-3.01181e-05
3.01056e-05
-3.01198e-05
-7.19465e-11
3.01073e-05
-1.1673e-10
-6.1372e-11
9.01744e-13
-6.73326e-05
-1.24328e-08
6.73045e-05
4.04412e-08
-6.73326e-05
-1.24336e-08
7.34066e-11
6.73046e-05
4.04437e-08
4.59736e-13
-9.67337e-09
3.14999e-08
-9.67553e-09
6.14839e-11
3.15058e-08
9.65612e-13
-3.01207e-05
3.01082e-05
-3.01207e-05
7.39616e-11
3.01082e-05
6.27258e-13
6.27561e-11
1.34593e-10
-6.73301e-05
-1.24666e-08
6.7302e-05
4.05194e-08
-6.73254e-05
-1.25435e-08
1.48747e-10
6.72973e-05
4.06784e-08
1.15104e-10
-9.71388e-09
3.15953e-08
-9.80265e-09
1.28551e-10
3.17828e-08
1.3648e-10
-3.01198e-05
3.01073e-05
-3.01181e-05
1.55008e-10
3.01056e-05
1.18314e-10
1.36169e-10
1.07867e-10
-6.732e-05
-1.26597e-08
6.72918e-05
4.08733e-08
-6.73171e-05
-1.27141e-08
6.72889e-05
4.10205e-08
9.37841e-11
-9.93519e-09
3.20218e-08
-1.00155e-08
3.22067e-08
9.02094e-11
-3.01163e-05
3.01037e-05
-3.01156e-05
3.0103e-05
8.07171e-11
-1.31887e-10
-6.72552e-05
-1.77947e-08
6.72154e-05
5.77748e-08
-6.72582e-05
-1.77528e-08
-1.75608e-10
6.72183e-05
5.76486e-08
-1.19543e-10
-1.50989e-08
4.88685e-08
-1.50535e-08
-1.6097e-10
4.87397e-08
-1.05035e-10
-3.0088e-05
3.00703e-05
-3.00887e-05
-1.82057e-10
3.0071e-05
-9.6989e-11
-1.66857e-10
-1.62525e-10
-6.72636e-05
-1.76396e-08
6.72237e-05
5.74916e-08
-6.72684e-05
-1.75644e-08
-9.08751e-11
6.72285e-05
5.73529e-08
-1.46748e-10
-1.49447e-08
4.85755e-08
-1.48752e-08
-8.04527e-11
4.84386e-08
-1.63148e-10
-3.00906e-05
3.00729e-05
-3.00923e-05
-9.04781e-11
3.00747e-05
-1.47785e-10
-8.04585e-11
1.21759e-12
-6.72709e-05
-1.75284e-08
6.72311e-05
5.72823e-08
-6.72709e-05
-1.75264e-08
9.35336e-11
6.72311e-05
5.72796e-08
1.29395e-12
-1.48456e-08
4.83742e-08
-1.48457e-08
8.31498e-11
4.83744e-08
1.14995e-12
-3.00933e-05
3.00756e-05
-3.00933e-05
9.30129e-11
3.00756e-05
1.20415e-12
8.30074e-11
1.65352e-10
-6.72684e-05
-1.75597e-08
6.72285e-05
5.73466e-08
-6.72636e-05
-1.76348e-08
1.77873e-10
6.72237e-05
5.74857e-08
1.49557e-10
-1.48759e-08
4.84401e-08
-1.49468e-08
1.6346e-10
4.85794e-08
1.65927e-10
-3.00923e-05
3.00747e-05
-3.00906e-05
1.84445e-10
3.0073e-05
1.50476e-10
1.69245e-10
1.33952e-10
-6.72582e-05
-1.77498e-08
6.72183e-05
5.76454e-08
-6.72552e-05
-1.77945e-08
6.72154e-05
5.77721e-08
1.20728e-10
-1.50569e-08
4.87459e-08
-1.51027e-08
4.88744e-08
1.06657e-10
-3.00887e-05
3.0071e-05
-3.0088e-05
3.00703e-05
9.81612e-11
-1.49235e-10
-6.717e-05
-2.31575e-08
6.71179e-05
7.53708e-08
-6.71729e-05
-2.31257e-08
-1.93061e-10
6.71208e-05
7.52573e-08
-1.40047e-10
-2.02142e-08
6.57449e-08
-2.01766e-08
-1.83564e-10
6.56249e-08
-1.13744e-10
-3.00502e-05
3.00271e-05
-3.00509e-05
-2.01557e-10
3.00279e-05
-1.09476e-10
-1.9083e-10
-1.84634e-10
-6.71783e-05
-2.30133e-08
6.71262e-05
7.51215e-08
-6.71831e-05
-2.29388e-08
-1.06534e-10
6.71309e-05
7.49907e-08
-1.72788e-10
-2.00631e-08
6.5478e-08
-1.99867e-08
-9.83289e-11
6.53415e-08
-1.84779e-10
-3.00529e-05
3.00298e-05
-3.00546e-05
-1.05337e-10
3.00316e-05
-1.73149e-10
-9.75408e-11
1.57406e-12
-6.71857e-05
-2.29016e-08
6.71335e-05
7.49226e-08
-6.71857e-05
-2.29032e-08
1.09699e-10
6.71335e-05
7.49252e-08
1.24342e-12
-1.99483e-08
6.527e-08
-1.9947e-08
1.0105e-10
6.52683e-08
1.62992e-12
-3.00556e-05
3.00326e-05
-3.00556e-05
1.08586e-10
3.00326e-05
1.26323e-12
1.00272e-10
1.87735e-10
-6.71831e-05
-2.29432e-08
6.71309e-05
7.49977e-08
-6.71783e-05
-2.30191e-08
1.95706e-10
6.71262e-05
7.51308e-08
1.75679e-10
-1.99834e-08
6.53373e-08
-2.00588e-08
1.85876e-10
6.54728e-08
1.87929e-10
-3.00546e-05
3.00316e-05
-3.00529e-05
2.04179e-10
3.00298e-05
1.76087e-10
1.93415e-10
1.50594e-10
-6.71729e-05
-2.31317e-08
6.71208e-05
7.5267e-08
-6.717e-05
-2.31628e-08
6.71179e-05
7.53806e-08
1.4182e-10
-2.01724e-08
6.56202e-08
-2.02117e-08
6.57402e-08
1.15041e-10
-3.00509e-05
3.00279e-05
-3.00502e-05
3.00272e-05
1.10635e-10
-1.59331e-10
-6.706e-05
-2.90336e-08
6.69946e-05
9.45319e-08
-6.70628e-05
-2.90151e-08
-2.02516e-10
6.69975e-05
9.44272e-08
-1.53312e-10
-2.57798e-08
8.3905e-08
-2.57544e-08
-1.96881e-10
8.3799e-08
-1.14761e-10
-3.00015e-05
2.99726e-05
-3.00022e-05
-2.13297e-10
2.99733e-05
-1.13592e-10
-2.06389e-10
-1.99323e-10
-6.70682e-05
-2.89013e-08
6.70027e-05
9.43073e-08
-6.70729e-05
-2.88255e-08
-1.17872e-10
6.70075e-05
9.41796e-08
-1.90988e-10
-2.56424e-08
8.36728e-08
-2.5568e-08
-1.11615e-10
8.35452e-08
-1.9937e-10
-3.00042e-05
2.99753e-05
-3.0006e-05
-1.16159e-10
2.99771e-05
-1.9103e-10
-1.10136e-10
1.71284e-12
-6.70755e-05
-2.8784e-08
6.701e-05
9.41087e-08
-6.70755e-05
-2.8785e-08
1.21221e-10
6.701e-05
9.41105e-08
1.65714e-12
-2.55292e-08
8.3477e-08
-2.5531e-08
1.14853e-10
8.348e-08
1.68091e-12
-3.00069e-05
2.9978e-05
-3.00069e-05
1.19428e-10
2.9978e-05
1.68967e-12
1.13433e-10
2.0243e-10
-6.70729e-05
-2.8828e-08
6.70075e-05
9.41843e-08
-6.70682e-05
-2.89049e-08
2.05185e-10
6.70027e-05
9.43141e-08
1.94016e-10
-2.55728e-08
8.35534e-08
-2.56488e-08
1.9951e-10
8.36838e-08
2.02365e-10
-3.0006e-05
2.99771e-05
-3.00042e-05
2.15795e-10
2.99753e-05
1.94062e-10
2.08807e-10
1.60468e-10
-6.70628e-05
-2.90194e-08
6.69975e-05
9.44355e-08
-6.706e-05
-2.90376e-08
6.69946e-05
9.45418e-08
1.5452e-10
-2.57611e-08
8.38106e-08
-2.57849e-08
8.39176e-08
1.16185e-10
-3.00022e-05
2.99733e-05
-3.00015e-05
2.99726e-05
1.15223e-10
-1.65605e-10
-6.69228e-05
-3.55172e-08
6.68429e-05
1.15666e-07
-6.69257e-05
-3.55151e-08
-2.05012e-10
6.68456e-05
1.15566e-07
-1.61076e-10
-3.1871e-08
1.03804e-07
-3.18606e-08
-2.0241e-10
1.03703e-07
-1.11799e-10
-2.99408e-05
2.99054e-05
-2.99415e-05
-2.18656e-10
2.99061e-05
-1.12424e-10
-2.14457e-10
-2.06754e-10
-6.69309e-05
-3.54037e-08
6.68508e-05
1.15465e-07
-6.69356e-05
-3.53324e-08
-1.2453e-10
6.68555e-05
1.15347e-07
-2.01905e-10
-3.17493e-08
1.03594e-07
-3.16767e-08
-1.20605e-10
1.03472e-07
-2.06917e-10
-2.99435e-05
2.99081e-05
-2.99453e-05
-1.22373e-10
2.99099e-05
-2.01985e-10
-1.18694e-10
1.94952e-12
-6.69381e-05
-3.52904e-08
6.6858e-05
1.15277e-07
-6.69381e-05
-3.52893e-08
1.28336e-10
6.6858e-05
1.15275e-07
1.77255e-12
-3.16356e-08
1.03403e-07
-3.16362e-08
1.24076e-10
1.03404e-07
1.82412e-12
-2.99463e-05
2.99109e-05
-2.99463e-05
1.25918e-10
2.99109e-05
1.67007e-12
1.21939e-10
2.10114e-10
-6.69356e-05
-3.53297e-08
6.68555e-05
1.15343e-07
-6.69309e-05
-3.54006e-08
2.0734e-10
6.68508e-05
1.15461e-07
2.05044e-10
-3.16786e-08
1.03475e-07
-3.1753e-08
2.04883e-10
1.03599e-07
2.10072e-10
-2.99453e-05
2.99099e-05
-2.99435e-05
2.20996e-10
2.99081e-05
2.04925e-10
2.16846e-10
1.6772e-10
-6.69257e-05
-3.55128e-08
6.68456e-05
1.15562e-07
-6.69228e-05
-3.55169e-08
6.68429e-05
1.15661e-07
1.6276e-10
-3.18663e-08
1.03711e-07
-3.18792e-08
1.03814e-07
1.13596e-10
-2.99415e-05
2.99061e-05
-2.99408e-05
2.99054e-05
1.14056e-10
-1.70971e-10
-6.67558e-05
-4.28112e-08
6.66595e-05
1.3931e-07
-6.67585e-05
-4.28214e-08
-2.00423e-10
6.66622e-05
1.39213e-07
-1.67035e-10
-3.86915e-08
1.25929e-07
-3.86959e-08
-2.0166e-10
1.25833e-07
-1.07241e-10
-2.98668e-05
2.98241e-05
-2.98675e-05
-2.18298e-10
2.98248e-05
-1.09176e-10
-2.16926e-10
-2.07459e-10
-6.67637e-05
-4.27092e-08
6.66673e-05
1.39129e-07
-6.67683e-05
-4.2643e-08
-1.26876e-10
6.66718e-05
1.39019e-07
-2.05732e-10
-3.85848e-08
1.25741e-07
-3.85157e-08
-1.24861e-10
1.25627e-07
-2.0797e-10
-2.98695e-05
2.98268e-05
-2.98713e-05
-1.24118e-10
2.98285e-05
-2.0604e-10
-1.22452e-10
2.23961e-12
-6.67708e-05
-4.26036e-08
6.66743e-05
1.38955e-07
-6.67708e-05
-4.26046e-08
1.3122e-10
6.66743e-05
1.38956e-07
2.13846e-12
-3.84742e-08
1.25559e-07
-3.84726e-08
1.29029e-10
1.25557e-07
2.37091e-12
-2.98723e-05
2.98295e-05
-2.98723e-05
1.28701e-10
2.98295e-05
2.11421e-12
1.26552e-10
2.11318e-10
-6.67683e-05
-4.26452e-08
6.66718e-05
1.39023e-07
-6.67637e-05
-4.27117e-08
2.03217e-10
6.66673e-05
1.39133e-07
2.09449e-10
-3.85113e-08
1.25621e-07
-3.85781e-08
2.04285e-10
1.25732e-07
2.12029e-10
-2.98713e-05
2.98285e-05
-2.98695e-05
2.21247e-10
2.98268e-05
2.09723e-10
2.19702e-10
1.72253e-10
-6.67585e-05
-4.28233e-08
6.66622e-05
1.39216e-07
-6.67558e-05
-4.28124e-08
6.66595e-05
1.39312e-07
1.68573e-10
-3.86876e-08
1.25821e-07
-3.86833e-08
1.25915e-07
1.08299e-10
-2.98675e-05
2.98248e-05
-2.98668e-05
2.98241e-05
1.1018e-10
-1.7109e-10
-6.65553e-05
-5.0965e-08
6.64407e-05
1.65732e-07
-6.6558e-05
-5.09944e-08
-1.9035e-10
6.64434e-05
1.65643e-07
-1.69807e-10
-4.62954e-08
1.50597e-07
-4.63126e-08
-1.9362e-10
1.50506e-07
-9.59375e-11
-2.97779e-05
2.9727e-05
-2.97786e-05
-2.12922e-10
2.97277e-05
-1.01201e-10
-2.13765e-10
-2.03263e-10
-6.6563e-05
-5.08852e-08
6.64484e-05
1.65581e-07
-6.65676e-05
-5.08277e-08
-1.26137e-10
6.64528e-05
1.65484e-07
-2.03697e-10
-4.62029e-08
1.50433e-07
-4.61415e-08
-1.25543e-10
1.50331e-07
-2.04371e-10
-2.97806e-05
2.97297e-05
-2.97823e-05
-1.23105e-10
2.97314e-05
-2.04437e-10
-1.2257e-10
1.97861e-12
-6.657e-05
-5.07919e-08
6.64553e-05
1.65426e-07
-6.657e-05
-5.07919e-08
1.29929e-10
6.64553e-05
1.65426e-07
2.10988e-12
-4.61049e-08
1.50271e-07
-4.61068e-08
1.29628e-10
1.50274e-07
1.97672e-12
-2.97833e-05
2.97324e-05
-2.97833e-05
1.269e-10
2.97324e-05
2.29194e-12
1.26984e-10
2.06559e-10
-6.65676e-05
-5.08277e-08
6.64528e-05
1.65484e-07
-6.6563e-05
-5.08853e-08
1.92883e-10
6.64484e-05
1.65581e-07
2.07313e-10
-4.61466e-08
1.50338e-07
-4.62099e-08
1.96383e-10
1.50444e-07
2.07707e-10
-2.97823e-05
2.97314e-05
-2.97806e-05
2.15523e-10
2.97297e-05
2.08318e-10
2.16638e-10
1.72352e-10
-6.6558e-05
-5.09947e-08
6.64434e-05
1.65643e-07
-6.65553e-05
-5.09655e-08
6.64407e-05
1.65733e-07
1.70956e-10
-4.63209e-08
1.50518e-07
-4.63033e-08
1.5061e-07
9.71193e-11
-2.97786e-05
2.97277e-05
-2.97779e-05
2.9727e-05
1.02306e-10
-1.70621e-10
-6.63175e-05
-6.01082e-08
6.61825e-05
1.95275e-07
-6.63201e-05
-6.01555e-08
-1.77937e-10
6.6185e-05
1.95186e-07
-1.68734e-10
-5.48616e-08
1.78298e-07
-5.49004e-08
-1.82626e-10
1.78213e-07
-8.23697e-11
-2.96723e-05
2.96122e-05
-2.9673e-05
-2.06263e-10
2.96129e-05
-8.79309e-11
-2.07503e-10
-1.95853e-10
-6.6325e-05
-6.00446e-08
6.61899e-05
1.95141e-07
-6.63294e-05
-5.99941e-08
-1.22881e-10
6.61943e-05
1.95053e-07
-1.97826e-10
-5.47928e-08
1.78162e-07
-5.47401e-08
-1.2346e-10
1.78071e-07
-1.98199e-10
-2.96749e-05
2.96148e-05
-2.96766e-05
-1.19972e-10
2.96165e-05
-1.99455e-10
-1.20541e-10
2.02945e-12
-6.63318e-05
-5.99617e-08
6.61967e-05
1.94999e-07
-6.63318e-05
-5.99616e-08
1.26675e-10
6.61967e-05
1.94999e-07
1.92256e-12
-5.47062e-08
1.78016e-07
-5.47051e-08
1.27098e-10
1.78014e-07
1.67047e-12
-2.96776e-05
2.96175e-05
-2.96776e-05
1.23089e-10
2.96175e-05
1.67376e-12
1.23714e-10
1.98905e-10
-6.63294e-05
-5.99941e-08
6.61943e-05
1.95052e-07
-6.6325e-05
-6.00454e-08
1.79902e-10
6.61899e-05
1.95141e-07
2.00849e-10
-5.47371e-08
1.78066e-07
-5.47888e-08
1.84823e-10
1.78155e-07
2.0077e-10
-2.96766e-05
2.96165e-05
-2.96749e-05
2.08203e-10
2.96148e-05
2.02161e-10
2.0956e-10
1.72353e-10
-6.63201e-05
-6.01577e-08
6.61851e-05
1.95188e-07
-6.63175e-05
-6.0112e-08
6.61825e-05
1.95278e-07
1.70251e-10
-5.48961e-08
1.78205e-07
-5.48577e-08
1.7829e-07
8.41217e-11
-2.9673e-05
2.96129e-05
-2.96723e-05
2.96122e-05
8.95054e-11
-1.72047e-10
-6.60378e-05
-7.03729e-08
6.58799e-05
2.28391e-07
-6.60403e-05
-7.04356e-08
-1.6158e-10
6.58825e-05
2.28295e-07
-1.69609e-10
-6.44605e-08
2.09297e-07
-6.45146e-08
-1.68621e-10
2.09206e-07
-7.05687e-11
-2.95479e-05
2.94775e-05
-2.95485e-05
-1.99571e-10
2.94782e-05
-7.57989e-11
-2.00793e-10
-1.86187e-10
-6.60452e-05
-7.03189e-08
6.58872e-05
2.28265e-07
-6.60495e-05
-7.02749e-08
-1.18389e-10
6.58915e-05
2.28181e-07
-1.89293e-10
-6.44015e-08
2.09168e-07
-6.43543e-08
-1.19477e-10
2.09083e-07
-1.90458e-10
-2.95504e-05
2.94801e-05
-2.95521e-05
-1.15366e-10
2.94817e-05
-1.92499e-10
-1.16599e-10
1.997e-12
-6.60518e-05
-7.02463e-08
6.58938e-05
2.28132e-07
-6.60518e-05
-7.02473e-08
1.22154e-10
6.58938e-05
2.28134e-07
2.05387e-12
-6.43242e-08
2.09032e-07
-6.43255e-08
1.2333e-10
2.09034e-07
1.86817e-12
-2.9553e-05
2.94826e-05
-2.9553e-05
1.18852e-10
2.94826e-05
1.74611e-12
1.19867e-10
1.89328e-10
-6.60495e-05
-7.02776e-08
6.58915e-05
2.28186e-07
-6.60452e-05
-7.03229e-08
1.63811e-10
6.58873e-05
2.28272e-07
1.92447e-10
-6.43581e-08
2.09088e-07
-6.4408e-08
1.70781e-10
2.09178e-07
1.93342e-10
-2.95521e-05
2.94817e-05
-2.95504e-05
2.01659e-10
2.94801e-05
1.95236e-10
2.02928e-10
1.73495e-10
-6.60404e-05
-7.04406e-08
6.58825e-05
2.28302e-07
-6.60378e-05
-7.03782e-08
6.588e-05
2.28399e-07
1.71103e-10
-6.45234e-08
2.09219e-07
-6.44726e-08
2.09312e-07
7.20776e-11
-2.95485e-05
2.94782e-05
-2.95479e-05
2.94775e-05
7.72351e-11
-1.74716e-10
-6.57114e-05
-8.18415e-08
6.55281e-05
2.65293e-07
-6.57139e-05
-8.19215e-08
-1.44256e-10
6.55306e-05
2.65189e-07
-1.7123e-10
-7.52278e-08
2.43979e-07
-7.52981e-08
-1.50357e-10
2.43882e-07
-5.90818e-11
-2.94024e-05
2.93206e-05
-2.9403e-05
-1.92933e-10
2.93213e-05
-6.41173e-11
-1.9415e-10
-1.76173e-10
-6.57186e-05
-8.17988e-08
6.55352e-05
2.65177e-07
-6.57228e-05
-8.17615e-08
-1.13607e-10
6.55394e-05
2.65098e-07
-1.79243e-10
-7.51794e-08
2.43862e-07
-7.5139e-08
-1.14872e-10
2.43781e-07
-1.82172e-10
-2.94049e-05
2.93231e-05
-2.94065e-05
-1.10263e-10
2.93247e-05
-1.8442e-10
-1.11712e-10
1.60397e-12
-6.57251e-05
-8.17353e-08
6.55417e-05
2.65051e-07
-6.57251e-05
-8.17345e-08
1.16654e-10
6.55417e-05
2.6505e-07
1.77118e-12
-7.51115e-08
2.43733e-07
-7.51108e-08
1.18221e-10
2.43732e-07
1.85146e-12
-2.94074e-05
2.93256e-05
-2.94074e-05
1.13746e-10
2.93256e-05
1.84515e-12
1.15161e-10
1.7878e-10
-6.57228e-05
-8.17588e-08
6.55394e-05
2.65095e-07
-6.57186e-05
-8.17942e-08
1.46251e-10
6.55353e-05
2.65172e-07
1.82075e-10
-7.51366e-08
2.43778e-07
-7.5175e-08
1.52552e-10
2.43857e-07
1.851e-10
-2.94065e-05
2.93247e-05
-2.94049e-05
1.95052e-10
2.93231e-05
1.87284e-10
1.96255e-10
1.76063e-10
-6.57139e-05
-8.19153e-08
6.55306e-05
2.65182e-07
-6.57114e-05
-8.18343e-08
6.55281e-05
2.65284e-07
1.72568e-10
-7.52918e-08
2.43874e-07
-7.52204e-08
2.43969e-07
6.0179e-11
-2.94031e-05
2.93213e-05
-2.94024e-05
2.93206e-05
6.52758e-11
-1.82091e-10
-6.5333e-05
-9.46604e-08
6.51213e-05
3.06521e-07
-6.53354e-05
-9.47565e-08
-1.33559e-10
6.51237e-05
3.06407e-07
-1.75887e-10
-8.72127e-08
2.82518e-07
-8.72985e-08
-1.36941e-10
2.82412e-07
-4.98038e-11
-2.92334e-05
2.91388e-05
-2.92341e-05
-1.88018e-10
2.91395e-05
-5.35673e-11
-1.88217e-10
-1.67546e-10
-6.534e-05
-9.46282e-08
6.51283e-05
3.06408e-07
-6.53441e-05
-9.45976e-08
-1.0869e-10
6.51323e-05
3.06335e-07
-1.69905e-10
-8.71746e-08
2.82408e-07
-8.71411e-08
-1.09979e-10
2.82332e-07
-1.74832e-10
-2.92359e-05
2.91412e-05
-2.92375e-05
-1.05263e-10
2.91428e-05
-1.76453e-10
-1.0655e-10
1.75307e-12
-6.53464e-05
-9.45761e-08
6.51345e-05
3.06294e-07
-6.53464e-05
-9.45771e-08
1.12014e-10
6.51345e-05
3.06296e-07
1.60431e-12
-8.71178e-08
2.8229e-07
-8.71183e-08
1.13032e-10
2.82291e-07
2.02426e-12
-2.92384e-05
2.91437e-05
-2.92384e-05
1.09103e-10
2.91437e-05
1.95655e-12
1.10251e-10
1.70306e-10
-6.53441e-05
-9.46005e-08
6.51323e-05
3.0634e-07
-6.53401e-05
-9.4633e-08
1.35442e-10
6.51283e-05
3.06416e-07
1.72484e-10
-8.71425e-08
2.82336e-07
-8.71767e-08
1.38825e-10
2.82412e-07
1.78111e-10
-2.92375e-05
2.91428e-05
-2.92359e-05
1.90439e-10
2.91412e-05
1.79573e-10
1.90472e-10
1.83318e-10
-6.53354e-05
-9.47631e-08
6.51237e-05
3.06418e-07
-6.5333e-05
-9.46683e-08
6.51213e-05
3.06533e-07
1.7717e-10
-8.73015e-08
2.82418e-07
-8.72161e-08
2.82525e-07
5.05728e-11
-2.92341e-05
2.91395e-05
-2.92335e-05
2.91388e-05
5.43995e-11
-1.93394e-10
-6.48966e-05
-1.08782e-07
6.46537e-05
3.51894e-07
-6.48991e-05
-1.08893e-07
-1.26595e-10
6.46561e-05
3.51766e-07
-1.85492e-10
-1.00541e-07
3.25366e-07
-1.00642e-07
-1.28329e-10
3.25247e-07
-4.18748e-11
-2.90383e-05
2.89296e-05
-2.9039e-05
-1.85471e-10
2.89302e-05
-4.52403e-11
-1.84528e-10
-1.60898e-10
-6.49036e-05
-1.08755e-07
6.46606e-05
3.51774e-07
-6.49076e-05
-1.08728e-07
-1.04689e-10
6.46646e-05
3.51703e-07
-1.62197e-10
-1.0051e-07
3.25252e-07
-1.00482e-07
-1.05388e-10
3.25181e-07
-1.69623e-10
-2.90407e-05
2.89319e-05
-2.90423e-05
-1.01557e-10
2.89335e-05
-1.701e-10
-1.02111e-10
1.8165e-12
-6.49098e-05
-1.08707e-07
6.46667e-05
3.51662e-07
-6.49098e-05
-1.08705e-07
1.08105e-10
6.46667e-05
3.51659e-07
1.81454e-12
-1.00461e-07
3.25141e-07
-1.00461e-07
1.08836e-10
3.2514e-07
1.6915e-12
-2.90431e-05
2.89343e-05
-2.90431e-05
1.04737e-10
2.89343e-05
1.91299e-12
1.05751e-10
1.6367e-10
-6.49076e-05
-1.08723e-07
6.46646e-05
3.51696e-07
-6.49036e-05
-1.08748e-07
1.28319e-10
6.46606e-05
3.51762e-07
1.6505e-10
-1.00481e-07
3.25181e-07
-1.0051e-07
1.30182e-10
3.25251e-07
1.72342e-10
-2.90423e-05
2.89335e-05
-2.90407e-05
1.87601e-10
2.89319e-05
1.73219e-10
1.86834e-10
1.94423e-10
-6.48991e-05
-1.08883e-07
6.46561e-05
3.51751e-07
-6.48966e-05
-1.08772e-07
6.46537e-05
3.51878e-07
1.86521e-10
-1.00641e-07
3.25246e-07
-1.0054e-07
3.25364e-07
4.27537e-11
-2.9039e-05
2.89302e-05
-2.90383e-05
2.89296e-05
4.59986e-11
-2.06934e-10
-6.43966e-05
-1.24393e-07
6.41192e-05
4.01986e-07
-6.4399e-05
-1.24519e-07
-1.22637e-10
6.41216e-05
4.01844e-07
-1.9774e-10
-1.15228e-07
3.72515e-07
-1.15343e-07
-1.22957e-10
3.72384e-07
-3.4211e-11
-2.88144e-05
2.869e-05
-2.8815e-05
-1.85629e-10
2.86907e-05
-3.73275e-11
-1.83323e-10
-1.5693e-10
-6.44035e-05
-1.24372e-07
6.4126e-05
4.01858e-07
-6.44074e-05
-1.24349e-07
-1.02293e-10
6.41299e-05
4.01792e-07
-1.56895e-10
-1.15202e-07
3.72394e-07
-1.15177e-07
-1.02199e-10
3.72326e-07
-1.67145e-10
-2.88167e-05
2.86923e-05
-2.88182e-05
-9.94124e-11
2.86938e-05
-1.66279e-10
-9.92676e-11
1.70405e-12
-6.44095e-05
-1.24333e-07
6.41319e-05
4.01756e-07
-6.44095e-05
-1.24335e-07
1.05465e-10
6.41319e-05
4.01759e-07
1.7145e-12
-1.15158e-07
3.72287e-07
-1.15157e-07
1.05412e-10
3.72285e-07
1.36934e-12
-2.8819e-05
2.86946e-05
-2.8819e-05
1.01946e-10
2.86946e-05
1.41745e-12
1.01935e-10
1.59478e-10
-6.44074e-05
-1.24355e-07
6.41299e-05
4.018e-07
-6.44035e-05
-1.24381e-07
1.24361e-10
6.4126e-05
4.01871e-07
1.59487e-10
-1.15174e-07
3.72321e-07
-1.15197e-07
1.24619e-10
3.72387e-07
1.69317e-10
-2.88182e-05
2.86938e-05
-2.88167e-05
1.8761e-10
2.86923e-05
1.68564e-10
1.85151e-10
2.07925e-10
-6.4399e-05
-1.24531e-07
6.41216e-05
4.0186e-07
-6.43967e-05
-1.24406e-07
6.41193e-05
4.02005e-07
1.98749e-10
-1.15336e-07
3.72373e-07
-1.1522e-07
3.72503e-07
3.55632e-11
-2.88151e-05
2.86907e-05
-2.88144e-05
2.86901e-05
3.86542e-11
-2.2313e-10
-6.38264e-05
-1.4144e-07
6.35115e-05
4.5663e-07
-6.38288e-05
-1.41582e-07
-1.21894e-10
6.35138e-05
4.56472e-07
-2.12377e-10
-1.31419e-07
4.24436e-07
-1.3155e-07
-1.20641e-10
4.24291e-07
-2.82948e-11
-2.85587e-05
2.84172e-05
-2.85593e-05
-1.89123e-10
2.84179e-05
-3.05484e-11
-1.85055e-10
-1.55844e-10
-6.38331e-05
-1.41424e-07
6.35181e-05
4.56491e-07
-6.38369e-05
-1.41403e-07
-1.01529e-10
6.35219e-05
4.56427e-07
-1.54377e-10
-1.314e-07
4.24308e-07
-1.31379e-07
-1.00598e-10
4.24245e-07
-1.67478e-10
-2.85609e-05
2.84195e-05
-2.85624e-05
-9.86959e-11
2.84209e-05
-1.65187e-10
-9.77979e-11
1.78138e-12
-6.3839e-05
-1.41389e-07
6.35239e-05
4.56392e-07
-6.3839e-05
-1.4139e-07
1.04846e-10
6.35239e-05
4.56393e-07
1.71757e-12
-1.31366e-07
4.24212e-07
-1.3137e-07
1.03792e-10
4.24217e-07
1.48789e-12
-2.85631e-05
2.84216e-05
-2.85631e-05
1.01432e-10
2.84216e-05
1.3825e-12
1.00378e-10
1.5846e-10
-6.38369e-05
-1.41405e-07
6.35219e-05
4.5643e-07
-6.38331e-05
-1.41427e-07
1.23481e-10
6.35181e-05
4.56496e-07
1.56913e-10
-1.3139e-07
4.2426e-07
-1.31418e-07
1.22296e-10
4.24333e-07
1.69739e-10
-2.85623e-05
2.84209e-05
-2.85609e-05
1.90941e-10
2.84194e-05
1.67394e-10
1.86971e-10
2.24119e-10
-6.38288e-05
-1.41586e-07
6.35138e-05
4.56478e-07
-6.38264e-05
-1.41443e-07
6.35115e-05
4.56636e-07
2.13421e-10
-1.31573e-07
4.24324e-07
-1.31445e-07
4.24474e-07
2.95589e-11
-2.85593e-05
2.84178e-05
-2.85586e-05
2.84172e-05
3.20422e-11
-2.41983e-10
-6.31797e-05
-1.60066e-07
6.28237e-05
5.16283e-07
-6.3182e-05
-1.60227e-07
-1.23929e-10
6.2826e-05
5.16108e-07
-2.29957e-10
-1.49107e-07
4.81104e-07
-1.49256e-07
-1.21403e-10
4.80943e-07
-2.35675e-11
-2.82682e-05
2.81081e-05
-2.82688e-05
-1.9588e-10
2.81087e-05
-2.56913e-11
-1.90158e-10
-1.58001e-10
-6.31863e-05
-1.60054e-07
6.28302e-05
5.16129e-07
-6.319e-05
-1.60034e-07
-1.02935e-10
6.28339e-05
5.16062e-07
-1.5494e-10
-1.49092e-07
4.80963e-07
-1.49071e-07
-1.00906e-10
4.80897e-07
-1.71042e-10
-2.82703e-05
2.81103e-05
-2.82717e-05
-9.99867e-11
2.81116e-05
-1.67159e-10
-9.80965e-11
1.70621e-12
-6.3192e-05
-1.60019e-07
6.28359e-05
5.16025e-07
-6.3192e-05
-1.60018e-07
1.06149e-10
6.28359e-05
5.16023e-07
1.75193e-12
-1.49055e-07
4.80859e-07
-1.49052e-07
1.04171e-10
4.80855e-07
1.61581e-12
-2.82725e-05
2.81124e-05
-2.82725e-05
1.02996e-10
2.81124e-05
1.49402e-12
1.00859e-10
1.60574e-10
-6.319e-05
-1.6003e-07
6.28339e-05
5.16057e-07
-6.31863e-05
-1.60048e-07
1.25336e-10
6.28302e-05
5.1612e-07
1.57504e-10
-1.49062e-07
4.80884e-07
-1.49077e-07
1.22865e-10
4.80942e-07
1.73545e-10
-2.82717e-05
2.81116e-05
-2.82703e-05
1.97641e-10
2.81103e-05
1.69431e-10
1.91862e-10
2.43021e-10
-6.3182e-05
-1.60219e-07
6.2826e-05
5.16096e-07
-6.31797e-05
-1.60057e-07
6.28238e-05
5.16269e-07
2.30889e-10
-1.49236e-07
4.80915e-07
-1.49084e-07
4.81072e-07
2.46306e-11
-2.82688e-05
2.81087e-05
-2.82682e-05
2.81081e-05
2.6662e-11
-2.62684e-10
-6.24499e-05
-1.80129e-07
6.20498e-05
5.80489e-07
-6.24521e-05
-1.80309e-07
-1.27809e-10
6.2052e-05
5.80295e-07
-2.4953e-10
-1.68241e-07
5.42344e-07
-1.68407e-07
-1.24335e-10
5.42165e-07
-1.90733e-11
-2.79399e-05
2.77598e-05
-2.79405e-05
-2.04962e-10
2.77603e-05
-2.12002e-11
-1.97974e-10
-1.63014e-10
-6.24563e-05
-1.80119e-07
6.20561e-05
5.80317e-07
-6.24599e-05
-1.80099e-07
-1.06334e-10
6.20597e-05
5.80247e-07
-1.58507e-10
-1.68229e-07
5.42187e-07
-1.68209e-07
-1.03305e-10
5.42121e-07
-1.77471e-10
-2.7942e-05
2.77618e-05
-2.79433e-05
-1.03205e-10
2.77632e-05
-1.72088e-10
-1.00274e-10
1.47563e-12
-6.24619e-05
-1.80087e-07
6.20616e-05
5.80212e-07
-6.24619e-05
-1.8009e-07
1.0919e-10
6.20616e-05
5.80217e-07
1.59779e-12
-1.68197e-07
5.42087e-07
-1.682e-07
1.06344e-10
5.42091e-07
1.61149e-12
-2.79441e-05
2.77639e-05
-2.79441e-05
1.06285e-10
2.77639e-05
1.66631e-12
1.03431e-10
1.65459e-10
-6.24599e-05
-1.80109e-07
6.20597e-05
5.80262e-07
-6.24563e-05
-1.80135e-07
1.29308e-10
6.20561e-05
5.80342e-07
1.61013e-10
-1.68218e-07
5.42134e-07
-1.68243e-07
1.25812e-10
5.42209e-07
1.80203e-10
-2.79433e-05
2.77632e-05
-2.7942e-05
2.07122e-10
2.77618e-05
1.7482e-10
2.00107e-10
2.6377e-10
-6.24521e-05
-1.80331e-07
6.2052e-05
5.80328e-07
-6.24499e-05
-1.80155e-07
6.20498e-05
5.80526e-07
2.50519e-10
-1.68427e-07
5.42194e-07
-1.68264e-07
5.42377e-07
2.01402e-11
-2.79405e-05
2.77603e-05
-2.79399e-05
2.77598e-05
2.19987e-11
-2.8514e-10
-6.16305e-05
-2.01713e-07
6.11829e-05
6.49513e-07
-6.16326e-05
-2.01913e-07
-1.33707e-10
6.11851e-05
6.49302e-07
-2.70973e-10
-1.88927e-07
6.08513e-07
-1.89112e-07
-1.29248e-10
6.08316e-07
-1.48057e-11
-2.75709e-05
2.73692e-05
-2.75714e-05
-2.16503e-10
2.73697e-05
-1.67905e-11
-2.08343e-10
-1.70676e-10
-6.16367e-05
-2.01705e-07
6.11891e-05
6.49323e-07
-6.16403e-05
-2.01681e-07
-1.11399e-10
6.11927e-05
6.49246e-07
-1.64888e-10
-1.88915e-07
6.08337e-07
-1.88892e-07
-1.07588e-10
6.08263e-07
-1.86518e-10
-2.75729e-05
2.73712e-05
-2.75742e-05
-1.08133e-10
2.73724e-05
-1.79881e-10
-1.04419e-10
1.32549e-12
-6.16422e-05
-2.01664e-07
6.11945e-05
6.49202e-07
-6.16422e-05
-2.01661e-07
1.13969e-10
6.11945e-05
6.49197e-07
1.36881e-12
-1.88878e-07
6.08224e-07
-1.88877e-07
1.10239e-10
6.08224e-07
1.4149e-12
-2.75749e-05
2.73731e-05
-2.75749e-05
1.10822e-10
2.73731e-05
1.49001e-12
1.07263e-10
1.72874e-10
-6.16403e-05
-2.01671e-07
6.11927e-05
6.49232e-07
-6.16367e-05
-2.01689e-07
1.35026e-10
6.11892e-05
6.493e-07
1.67158e-10
-1.88891e-07
6.08263e-07
-1.88913e-07
1.30653e-10
6.08336e-07
1.88877e-10
-2.75742e-05
2.73724e-05
-2.75729e-05
2.18304e-10
2.73712e-05
1.82385e-10
2.10302e-10
2.85948e-10
-6.16326e-05
-2.01892e-07
6.11851e-05
6.49271e-07
-6.16305e-05
-2.01688e-07
6.1183e-05
6.49477e-07
2.71944e-10
-1.8911e-07
6.08314e-07
-1.88924e-07
6.0851e-07
1.55292e-11
-2.75714e-05
2.73697e-05
-2.75709e-05
2.73692e-05
1.7605e-11
-3.08594e-10
-6.07153e-05
-2.24654e-07
6.02174e-05
7.22871e-07
-6.07174e-05
-2.24878e-07
-1.41196e-10
6.02195e-05
7.22643e-07
-2.93719e-10
-2.10935e-07
6.78876e-07
-2.11142e-07
-1.35885e-10
6.78664e-07
-1.0125e-11
-2.71582e-05
2.69336e-05
-2.71588e-05
-2.3006e-10
2.69341e-05
-1.23789e-11
-2.20725e-10
-1.80705e-10
-6.07214e-05
-2.24651e-07
6.02234e-05
7.22668e-07
-6.07249e-05
-2.24629e-07
-1.17947e-10
6.02269e-05
7.22589e-07
-1.73579e-10
-2.10927e-07
6.78686e-07
-2.10903e-07
-1.13276e-10
6.78608e-07
-1.97862e-10
-2.71602e-05
2.69355e-05
-2.71615e-05
-1.14435e-10
2.69367e-05
-1.89886e-10
-1.09914e-10
1.36005e-12
-6.07267e-05
-2.24615e-07
6.02287e-05
7.22548e-07
-6.07267e-05
-2.24618e-07
1.20565e-10
6.02287e-05
7.22552e-07
1.33537e-12
-2.10887e-07
6.78565e-07
-2.10885e-07
1.15847e-10
6.78562e-07
1.4939e-12
-2.71621e-05
2.69374e-05
-2.71621e-05
1.173e-10
2.69374e-05
1.44034e-12
1.12658e-10
1.82883e-10
-6.07249e-05
-2.24636e-07
6.02269e-05
7.22599e-07
-6.07214e-05
-2.24663e-07
1.42435e-10
6.02235e-05
7.22685e-07
1.75725e-10
-2.10897e-07
6.78599e-07
-2.10916e-07
1.37112e-10
6.78671e-07
2.00401e-10
-2.71615e-05
2.69367e-05
-2.71602e-05
2.32049e-10
2.69355e-05
1.92278e-10
2.22525e-10
3.09207e-10
-6.07174e-05
-2.24894e-07
6.02195e-05
7.22666e-07
-6.07153e-05
-2.24672e-07
6.02174e-05
7.22898e-07
2.94403e-10
-2.11128e-07
6.78644e-07
-2.10919e-07
6.78853e-07
1.07465e-11
-2.71588e-05
2.69341e-05
-2.71583e-05
2.69336e-05
1.29657e-11
-3.32613e-10
-5.96985e-05
-2.48866e-07
5.91474e-05
8.00242e-07
-5.97005e-05
-2.49113e-07
-1.50107e-10
5.91494e-05
7.99995e-07
-3.17201e-10
-2.34298e-07
7.5355e-07
-2.34527e-07
-1.4398e-10
7.5332e-07
-5.03723e-12
-2.66993e-05
2.64505e-05
-2.66998e-05
-2.45875e-10
2.64509e-05
-7.41521e-12
-2.35196e-10
-1.93066e-10
-5.97044e-05
-2.48865e-07
5.91533e-05
8.00019e-07
-5.97078e-05
-2.48839e-07
-1.26247e-10
5.91567e-05
7.99931e-07
-1.84674e-10
-2.34294e-07
7.53345e-07
-2.34271e-07
-1.20617e-10
7.53264e-07
-2.11903e-10
-2.67012e-05
2.64523e-05
-2.67024e-05
-1.22755e-10
2.64535e-05
-2.02427e-10
-1.17106e-10
1.05257e-12