/*--------------------------------*- C++ -*----------------------------------*\
  =========                 |
  \\      /  F ield         | OpenFOAM: The Open Source CFD Toolbox
   \\    /   O peration     | Website:  https://openfoam.org
    \\  /    A nd           | Version:  9
     \\/     M anipulation  |
\*---------------------------------------------------------------------------*/
FoamFile
{
    format      ascii;
    class       volVectorField;
    location    "0.1";
    object      U;
}
// * * * * * * * * * * * * * * * * * * * * * * * * * * * * * * * * * * * * * //

dimensions      [0 1 -1 0 0 0 0];

internalField   nonuniform List<vector> 
36360
(
(4.22397e-07 -0.127997 -0.935495)
(-1.46661e-07 -0.128002 -4.79631e-08)
(-4.58122e-06 -0.128 -0.946398)
(-5.00694e-06 -0.128005 -3.0243e-08)
(-9.66965e-07 -0.0572597 -0.923071)
(-1.14495e-06 -0.0572607 -5.54726e-08)
(-2.19661e-06 -0.0572551 -0.932738)
(-2.33893e-06 -0.0572552 -4.38606e-08)
(-8.44516e-07 -0.128012 -5.43322e-08)
(-1.37388e-06 -0.12802 -3.81313e-08)
(-5.7285e-06 -0.128013 -2.73791e-08)
(-6.33453e-06 -0.128021 -2.04728e-08)
(-1.36265e-06 -0.0572636 -6.41537e-08)
(-1.52171e-06 -0.0572662 -4.50569e-08)
(-2.57997e-06 -0.0572573 -3.77344e-08)
(-2.7826e-06 -0.0572593 -2.70713e-08)
(-1.62899e-06 -0.128024 -1.29887e-08)
(-1.63578e-06 -0.128024 1.36993e-08)
(-6.62975e-06 -0.128025 -6.92344e-09)
(-6.61199e-06 -0.128025 8.38181e-09)
(-1.59579e-06 -0.0572676 -1.54335e-08)
(-1.60142e-06 -0.0572676 1.59191e-08)
(-2.88183e-06 -0.0572603 -9.18013e-09)
(-2.87951e-06 -0.0572603 1.05384e-08)
(-1.39838e-06 -0.12802 3.86293e-08)
(-8.96072e-07 -0.128012 5.45799e-08)
(-6.29552e-06 -0.128021 2.13141e-08)
(-5.70535e-06 -0.128014 2.73644e-08)
(-1.53945e-06 -0.0572663 4.52037e-08)
(-1.39415e-06 -0.0572637 6.38726e-08)
(-2.78017e-06 -0.0572593 2.75327e-08)
(-2.58864e-06 -0.0572573 3.70869e-08)
(-2.27934e-07 -0.128002 4.85837e-08)
(3.22373e-07 -0.127997 0.935495)
(-5.02552e-06 -0.128005 2.97924e-08)
(-4.63416e-06 -0.128 0.946398)
(-1.18932e-06 -0.0572607 5.50123e-08)
(-1.01899e-06 -0.0572598 0.923071)
(-2.36546e-06 -0.0572552 4.26256e-08)
(-2.23615e-06 -0.0572551 0.932738)
(2.14864e-05 -0.127963 -0.934044)
(2.11632e-05 -0.127968 -1.05569e-07)
(1.14043e-05 -0.127988 -0.934604)
(1.1048e-05 -0.127993 -7.45275e-08)
(3.65593e-06 -0.0572468 -0.921647)
(3.48635e-06 -0.0572478 -1.02115e-07)
(1.7496e-06 -0.0572578 -0.922198)
(1.62277e-06 -0.0572588 -7.80192e-08)
(2.07838e-05 -0.127978 -1.06554e-07)
(2.05279e-05 -0.127987 -7.59439e-08)
(1.05716e-05 -0.128003 -8.37566e-08)
(1.02317e-05 -0.128012 -5.80544e-08)
(3.35026e-06 -0.0572511 -1.11311e-07)
(3.27663e-06 -0.0572541 -7.93056e-08)
(1.47443e-06 -0.057262 -9.0166e-08)
(1.38226e-06 -0.0572649 -6.30002e-08)
(2.04272e-05 -0.127991 -2.63823e-08)
(2.04394e-05 -0.127992 2.74968e-08)
(1.00841e-05 -0.128016 -1.9782e-08)
(1.00841e-05 -0.128016 2.06088e-08)
(3.25413e-06 -0.0572557 -2.73776e-08)
(3.2581e-06 -0.0572557 2.88165e-08)
(1.34863e-06 -0.0572664 -2.15281e-08)
(1.34769e-06 -0.0572665 2.23096e-08)
(2.05657e-05 -0.127987 7.72335e-08)
(2.08492e-05 -0.127978 1.08154e-07)
(1.02327e-05 -0.128012 5.89463e-08)
(1.0576e-05 -0.128003 8.47987e-08)
(3.28907e-06 -0.0572542 8.0867e-08)
(3.37209e-06 -0.0572512 1.13058e-07)
(1.37997e-06 -0.0572649 6.3815e-08)
(1.47209e-06 -0.0572621 9.10668e-08)
(2.12553e-05 -0.127968 1.07238e-07)
(2.15953e-05 -0.127963 0.934044)
(1.10583e-05 -0.127993 7.5713e-08)
(1.14185e-05 -0.127988 0.934604)
(3.51702e-06 -0.0572478 1.03759e-07)
(3.6944e-06 -0.0572469 0.921647)
(1.6216e-06 -0.0572589 7.87455e-08)
(1.75096e-06 -0.057258 0.922198)
(3.85085e-05 -0.127878 -0.932578)
(3.82877e-05 -0.127884 -1.42483e-07)
(3.02099e-05 -0.127926 -0.933132)
(2.99498e-05 -0.127932 -1.23133e-07)
(6.32283e-06 -0.0572089 -0.920209)
(6.13256e-06 -0.0572102 -1.32611e-07)
(5.03632e-06 -0.0572302 -0.920754)
(4.8578e-06 -0.0572314 -1.17012e-07)
(3.80132e-05 -0.127894 -1.45574e-07)
(3.78139e-05 -0.127903 -1.06848e-07)
(2.96348e-05 -0.127942 -1.25419e-07)
(2.94113e-05 -0.127951 -9.14758e-08)
(6.00767e-06 -0.0572138 -1.4789e-07)
(5.94005e-06 -0.057217 -1.08529e-07)
(4.73044e-06 -0.057235 -1.29346e-07)
(4.65981e-06 -0.0572381 -9.40517e-08)
(3.77278e-05 -0.127908 -3.76832e-08)
(3.77306e-05 -0.127908 3.98758e-08)
(2.93174e-05 -0.127955 -3.22348e-08)
(2.93241e-05 -0.127955 3.35229e-08)
(5.91562e-06 -0.0572187 -3.81401e-08)
(5.91583e-06 -0.0572187 4.04656e-08)
(4.63474e-06 -0.0572398 -3.29132e-08)
(4.63586e-06 -0.0572398 3.4565e-08)
(3.78218e-05 -0.127903 1.09053e-07)
(3.80246e-05 -0.127894 1.47681e-07)
(2.94319e-05 -0.127951 9.28846e-08)
(2.96702e-05 -0.127942 1.27009e-07)
(5.94025e-06 -0.057217 1.10837e-07)
(6.00683e-06 -0.0572138 1.50062e-07)
(4.66342e-06 -0.0572381 9.57604e-08)
(4.7368e-06 -0.057235 1.31116e-07)
(3.83009e-05 -0.127884 1.44053e-07)
(3.85228e-05 -0.127878 0.932578)
(2.99996e-05 -0.127932 1.248e-07)
(3.02708e-05 -0.127926 0.933132)
(6.12969e-06 -0.0572102 1.34393e-07)
(6.31905e-06 -0.0572089 0.920209)
(4.86631e-06 -0.0572315 1.18979e-07)
(5.04827e-06 -0.0572303 0.920754)
(5.51483e-05 -0.12775 -0.9311)
(5.49315e-05 -0.127756 -1.77231e-07)
(4.67467e-05 -0.12782 -0.931645)
(4.6536e-05 -0.127825 -1.61266e-07)
(8.86969e-06 -0.0571516 -0.91876)
(8.62424e-06 -0.0571529 -1.60605e-07)
(7.58597e-06 -0.0571826 -0.919296)
(7.37072e-06 -0.0571839 -1.47614e-07)
(5.46801e-05 -0.127766 -1.80555e-07)
(5.44889e-05 -0.127775 -1.34613e-07)
(4.6286e-05 -0.127836 -1.64045e-07)
(4.61046e-05 -0.127845 -1.21103e-07)
(8.48336e-06 -0.0571566 -1.81285e-07)
(8.40749e-06 -0.0571599 -1.35313e-07)
(7.24233e-06 -0.0571876 -1.6527e-07)
(7.17592e-06 -0.0571908 -1.22173e-07)
(5.43948e-05 -0.12778 -4.80648e-08)
(5.439e-05 -0.12778 5.12199e-08)
(4.60241e-05 -0.12785 -4.27855e-08)
(4.60245e-05 -0.12785 4.59536e-08)
(8.37464e-06 -0.0571617 -4.8218e-08)
(8.3724e-06 -0.0571617 5.12414e-08)
(7.1513e-06 -0.0571926 -4.31112e-08)
(7.15102e-06 -0.0571926 4.61254e-08)
(5.44778e-05 -0.127775 1.37768e-07)
(5.46691e-05 -0.127766 1.83516e-07)
(4.61069e-05 -0.127845 1.24232e-07)
(4.62922e-05 -0.127836 1.66932e-07)
(8.40204e-06 -0.0571599 1.38374e-07)
(8.47734e-06 -0.0571566 1.84174e-07)
(7.17551e-06 -0.0571908 1.25164e-07)
(7.24244e-06 -0.0571876 1.68038e-07)
(5.49248e-05 -0.127756 1.79899e-07)
(5.51449e-05 -0.12775 0.9311)
(4.65461e-05 -0.127825 1.63339e-07)
(4.67573e-05 -0.12782 0.931645)
(8.61969e-06 -0.057153 1.62958e-07)
(8.86748e-06 -0.0571516 0.91876)
(7.37129e-06 -0.0571839 1.49625e-07)
(7.58696e-06 -0.0571826 0.919296)
(7.32604e-05 -0.127577 -0.92961)
(7.30389e-05 -0.127582 -2.02696e-07)
(6.39371e-05 -0.127669 -0.930162)
(6.37154e-05 -0.127675 -1.90981e-07)
(1.1694e-05 -0.0570748 -0.917299)
(1.13902e-05 -0.0570762 -1.79885e-07)
(1.02277e-05 -0.0571157 -0.917842)
(9.95248e-06 -0.0571171 -1.71463e-07)
(7.27987e-05 -0.127592 -2.06772e-07)
(7.26097e-05 -0.127601 -1.57016e-07)
(6.34654e-05 -0.127685 -1.94631e-07)
(6.32697e-05 -0.127694 -1.4654e-07)
(1.12342e-05 -0.0570799 -2.06916e-07)
(1.11531e-05 -0.0570833 -1.57134e-07)
(9.8022e-06 -0.0571208 -1.95048e-07)
(9.72119e-06 -0.0571241 -1.46945e-07)
(7.25135e-05 -0.127606 -5.68508e-08)
(7.25175e-05 -0.127606 6.05822e-08)
(6.31693e-05 -0.127699 -5.27864e-08)
(6.31661e-05 -0.127699 5.60458e-08)
(1.11168e-05 -0.0570851 -5.65976e-08)
(1.11187e-05 -0.0570851 6.04504e-08)
(9.68441e-06 -0.0571259 -5.27315e-08)
(9.68316e-06 -0.0571259 5.60156e-08)
(7.26204e-05 -0.127601 1.60603e-07)
(7.28127e-05 -0.127592 2.09967e-07)
(6.32614e-05 -0.127694 1.49799e-07)
(6.34549e-05 -0.127685 1.97659e-07)
(1.11583e-05 -0.0570833 1.60812e-07)
(1.12412e-05 -0.05708 2.10142e-07)
(9.71796e-06 -0.0571241 1.50244e-07)
(9.79802e-06 -0.0571208 1.98124e-07)
(7.30533e-05 -0.127582 2.05011e-07)
(7.32737e-05 -0.127577 0.929609)
(6.37051e-05 -0.127675 1.93505e-07)
(6.3928e-05 -0.127669 0.930162)
(1.13975e-05 -0.0570762 1.82158e-07)
(1.17009e-05 -0.0570748 0.917299)
(9.94845e-06 -0.0571171 1.73618e-07)
(1.02251e-05 -0.0571157 0.917842)
(9.36934e-05 -0.127355 -0.928102)
(9.34668e-05 -0.127361 -2.1976e-07)
(8.31833e-05 -0.127472 -0.928654)
(8.29606e-05 -0.127478 -2.12067e-07)
(1.49244e-05 -0.0569768 -0.915822)
(1.4559e-05 -0.0569783 -1.90354e-07)
(1.32673e-05 -0.0570286 -0.916363)
(1.29331e-05 -0.05703 -1.85917e-07)
(9.32326e-05 -0.127371 -2.25241e-07)
(9.30403e-05 -0.12738 -1.73854e-07)
(8.27238e-05 -0.127488 -2.16983e-07)
(8.25333e-05 -0.127497 -1.66155e-07)
(1.43851e-05 -0.056982 -2.25081e-07)
(1.42963e-05 -0.0569854 -1.737e-07)
(1.27682e-05 -0.0570337 -2.16931e-07)
(1.26829e-05 -0.0570371 -1.66086e-07)
(9.29341e-05 -0.127385 -6.37372e-08)
(9.29366e-05 -0.127385 6.77096e-08)
(8.24327e-05 -0.127502 -6.05471e-08)
(8.24374e-05 -0.127502 6.44079e-08)
(1.42526e-05 -0.0569872 -6.33274e-08)
(1.42534e-05 -0.0569872 6.72326e-08)
(1.2643e-05 -0.0570389 -6.01766e-08)
(1.26449e-05 -0.0570389 6.41331e-08)
(9.30472e-05 -0.12738 1.77579e-07)
(9.32427e-05 -0.127371 2.28493e-07)
(8.25456e-05 -0.127497 1.69782e-07)
(8.27403e-05 -0.127488 2.20155e-07)
(1.42983e-05 -0.0569854 1.77333e-07)
(1.43879e-05 -0.056982 2.28221e-07)
(1.2688e-05 -0.0570371 1.69769e-07)
(1.27748e-05 -0.0570337 2.20082e-07)
(9.34793e-05 -0.127361 2.21971e-07)
(9.37072e-05 -0.127355 0.928102)
(8.29781e-05 -0.127478 2.14289e-07)
(8.31997e-05 -0.127472 0.928654)
(1.45617e-05 -0.0569782 1.92695e-07)
(1.4927e-05 -0.0569768 0.915822)
(1.29397e-05 -0.05703 1.88383e-07)
(1.32728e-05 -0.0570286 0.916363)
(0.000116924 -0.127081 -0.926578)
(0.000116691 -0.127087 -2.31141e-07)
(0.00010489 -0.127225 -0.927139)
(0.00010466 -0.127231 -2.25844e-07)
(1.85975e-05 -0.0568556 -0.914328)
(1.81653e-05 -0.056857 -1.94908e-07)
(1.66827e-05 -0.0569192 -0.914879)
(1.62849e-05 -0.0569207 -1.93103e-07)
(0.000116471 -0.127097 -2.36633e-07)
(0.000116288 -0.127105 -1.84774e-07)
(0.000104434 -0.127241 -2.31662e-07)
(0.000104247 -0.12725 -1.80012e-07)
(1.79778e-05 -0.0568607 -2.36387e-07)
(1.78886e-05 -0.0568641 -1.84472e-07)
(1.61044e-05 -0.0569244 -2.31458e-07)
(1.60156e-05 -0.0569278 -1.79783e-07)
(0.00011618 -0.12711 -6.82145e-08)
(0.000116177 -0.12711 7.28843e-08)
(0.00010414 -0.127254 -6.62818e-08)
(0.000104142 -0.127254 7.05184e-08)
(1.78424e-05 -0.056866 -6.76847e-08)
(1.7841e-05 -0.056866 7.20713e-08)
(1.5971e-05 -0.0569297 -6.58324e-08)
(1.59714e-05 -0.0569297 6.98316e-08)
(0.000116281 -0.127105 1.89064e-07)
(0.000116463 -0.127097 2.40235e-07)
(0.000104252 -0.12725 1.83946e-07)
(0.000104444 -0.127241 2.35056e-07)
(1.7885e-05 -0.0568641 1.88501e-07)
(1.79732e-05 -0.0568607 2.39731e-07)
(1.60171e-05 -0.0569278 1.83481e-07)
(1.61073e-05 -0.0569244 2.34618e-07)
(0.000116685 -0.127087 2.34134e-07)
(0.00011692 -0.127081 0.926578)
(0.000104676 -0.127231 2.2849e-07)
(0.00010491 -0.127225 0.927139)
(1.8161e-05 -0.056857 1.97555e-07)
(1.85949e-05 -0.0568556 0.914328)
(1.62889e-05 -0.0569207 1.956e-07)
(1.66894e-05 -0.0569192 0.914879)
(0.00014367 -0.126749 -0.925045)
(0.00014342 -0.126754 -2.38908e-07)
(0.000129856 -0.126923 -0.925598)
(0.000129616 -0.126928 -2.35688e-07)
(2.28668e-05 -0.0567083 -0.912826)
(2.23528e-05 -0.0567097 -1.95265e-07)
(2.06662e-05 -0.0567853 -0.913368)
(2.01951e-05 -0.0567867 -1.95962e-07)
(0.000143209 -0.126764 -2.41337e-07)
(0.000143036 -0.126773 -1.89977e-07)
(0.0001294 -0.126938 -2.39779e-07)
(0.00012922 -0.126947 -1.87953e-07)
(2.21469e-05 -0.0567134 -2.4122e-07)
(2.20586e-05 -0.0567167 -1.89506e-07)
(1.99983e-05 -0.0567905 -2.39533e-07)
(1.99083e-05 -0.0567939 -1.87567e-07)
(0.000142934 -0.126777 -7.04896e-08)
(0.000142937 -0.126777 7.58608e-08)
(0.000129111 -0.126951 -6.95191e-08)
(0.000129108 -0.126951 7.47004e-08)
(2.20141e-05 -0.0567186 -6.95177e-08)
(2.20153e-05 -0.0567186 7.52221e-08)
(1.98616e-05 -0.0567957 -6.88022e-08)
(1.98599e-05 -0.0567957 7.39342e-08)
(0.000143042 -0.126773 1.9489e-07)
(0.000143216 -0.126764 2.45318e-07)
(0.000129209 -0.126947 1.92714e-07)
(0.000129383 -0.126938 2.43687e-07)
(2.20615e-05 -0.0567168 1.94707e-07)
(2.21502e-05 -0.0567134 2.4537e-07)
(1.99033e-05 -0.0567939 1.92285e-07)
(1.99904e-05 -0.0567905 2.43383e-07)
(0.000143426 -0.126754 2.41458e-07)
(0.000143673 -0.126749 0.925045)
(0.000129595 -0.126928 2.38404e-07)
(0.000129832 -0.126923 0.925597)
(2.23556e-05 -0.0567097 1.97709e-07)
(2.28687e-05 -0.0567083 0.912826)
(2.01852e-05 -0.0567867 1.98278e-07)
(2.06559e-05 -0.0567853 0.913368)
(0.000174367 -0.126351 -0.923495)
(0.000174109 -0.126356 -2.40139e-07)
(0.00015847 -0.126559 -0.924039)
(0.000158214 -0.126564 -2.40078e-07)
(2.77656e-05 -0.0565318 -0.911307)
(2.71654e-05 -0.0565332 -1.87709e-07)
(2.52208e-05 -0.0566239 -0.911841)
(2.46631e-05 -0.0566253 -1.92208e-07)
(0.000173918 -0.126366 -2.40154e-07)
(0.000173766 -0.126374 -1.90767e-07)
(0.000158012 -0.126573 -2.41203e-07)
(0.000157849 -0.126582 -1.90798e-07)
(2.69432e-05 -0.0565369 -2.40244e-07)
(2.686e-05 -0.0565402 -1.90455e-07)
(2.4449e-05 -0.0566289 -2.41192e-07)
(2.43631e-05 -0.0566323 -1.90315e-07)
(0.000173672 -0.126379 -7.14648e-08)
(0.000173672 -0.126379 7.62372e-08)
(0.000157753 -0.126587 -7.11408e-08)
(0.000157758 -0.126587 7.62686e-08)
(2.68182e-05 -0.0565421 -7.04774e-08)
(2.68182e-05 -0.0565421 7.52725e-08)
(2.43206e-05 -0.0566342 -7.00325e-08)
(2.43228e-05 -0.0566342 7.56022e-08)
(0.000173766 -0.126374 1.951e-07)
(0.000173919 -0.126366 2.4373e-07)
(0.000157863 -0.126582 1.95488e-07)
(0.000158031 -0.126573 2.45042e-07)
(2.68601e-05 -0.0565402 1.94815e-07)
(2.69434e-05 -0.0565369 2.43816e-07)
(2.43692e-05 -0.0566323 1.95382e-07)
(2.44577e-05 -0.056629 2.45266e-07)
(0.00017411 -0.126356 2.42568e-07)
(0.000174369 -0.126351 0.923495)
(0.000158236 -0.126564 2.42516e-07)
(0.000158493 -0.126559 0.924039)
(2.71656e-05 -0.0565332 1.90067e-07)
(2.77663e-05 -0.0565318 0.911307)
(2.46732e-05 -0.0566253 1.94689e-07)
(2.5231e-05 -0.0566239 0.911841)
(0.000209717 -0.12588 -0.921916)
(0.000209439 -0.125885 -2.4008e-07)
(0.00019144 -0.126125 -0.922471)
(0.000191176 -0.12613 -2.39823e-07)
(3.34372e-05 -0.0563227 -0.90976)
(3.2735e-05 -0.056324 -1.77317e-07)
(3.05034e-05 -0.0564316 -0.910305)
(2.98553e-05 -0.0564329 -1.82331e-07)
(0.000209259 -0.125895 -2.36214e-07)
(0.000209121 -0.125903 -1.88386e-07)
(0.000190994 -0.12614 -2.38354e-07)
(0.000190851 -0.126148 -1.89858e-07)
(3.24889e-05 -0.0563276 -2.36814e-07)
(3.24086e-05 -0.0563309 -1.88778e-07)
(2.9623e-05 -0.0564366 -2.38658e-07)
(2.95422e-05 -0.0564399 -1.8987e-07)
(0.000209034 -0.125908 -7.08523e-08)
(0.000209033 -0.125908 7.57831e-08)
(0.00019076 -0.126153 -7.132e-08)
(0.000190757 -0.126153 7.60253e-08)
(3.23694e-05 -0.0563327 -7.02193e-08)
(3.23691e-05 -0.0563327 7.43186e-08)
(2.95015e-05 -0.0564417 -7.05615e-08)
(2.95001e-05 -0.0564417 7.46992e-08)
(0.00020912 -0.125903 1.92711e-07)
(0.00020926 -0.125895 2.3967e-07)
(0.000190842 -0.126148 1.94048e-07)
(0.000190982 -0.12614 2.41768e-07)
(3.24081e-05 -0.0563309 1.92398e-07)
(3.24887e-05 -0.0563276 2.3974e-07)
(2.95385e-05 -0.0564399 1.93576e-07)
(2.96179e-05 -0.0564366 2.41673e-07)
(0.000209444 -0.125885 2.428e-07)
(0.000209725 -0.12588 0.921916)
(0.000191164 -0.12613 2.42386e-07)
(0.000191427 -0.126125 0.922471)
(3.27356e-05 -0.0563241 1.79829e-07)
(3.34396e-05 -0.0563227 0.90976)
(2.98492e-05 -0.0564329 1.8475e-07)
(3.0498e-05 -0.0564316 0.910305)
(0.000250291 -0.125328 -0.920329)
(0.000249978 -0.125333 -2.4115e-07)
(0.000229305 -0.125615 -0.920883)
(0.000229011 -0.12562 -2.40534e-07)
(3.99565e-05 -0.0560768 -0.908205)
(3.91335e-05 -0.0560782 -1.67719e-07)
(3.65792e-05 -0.0562046 -0.908749)
(3.58184e-05 -0.0562059 -1.72587e-07)
(0.000249801 -0.125342 -2.30742e-07)
(0.000249674 -0.12535 -1.839e-07)
(0.000228831 -0.125629 -2.33531e-07)
(0.000228697 -0.125637 -1.86265e-07)
(3.88561e-05 -0.0560817 -2.32291e-07)
(3.87787e-05 -0.0560849 -1.85179e-07)
(3.55564e-05 -0.0562095 -2.34591e-07)
(3.54771e-05 -0.0562127 -1.87103e-07)
(0.000249595 -0.125355 -6.94868e-08)
(0.000249598 -0.125355 7.44585e-08)
(0.000228615 -0.125642 -7.01619e-08)
(0.000228618 -0.125642 7.52646e-08)
(3.87433e-05 -0.0560866 -6.87174e-08)
(3.87442e-05 -0.0560866 7.33943e-08)
(3.54398e-05 -0.0562145 -6.95251e-08)
(3.54411e-05 -0.0562145 7.39252e-08)
(0.000249682 -0.12535 1.88323e-07)
(0.000249812 -0.125342 2.34309e-07)
(0.000228707 -0.125637 1.90768e-07)
(0.000228848 -0.125629 2.37132e-07)
(3.8781e-05 -0.0560849 1.893e-07)
(3.8859e-05 -0.0560817 2.35525e-07)
(3.54808e-05 -0.0562127 1.91001e-07)
(3.55624e-05 -0.0562095 2.37738e-07)
(0.000249992 -0.125333 2.43728e-07)
(0.000250306 -0.125328 0.920328)
(0.000229035 -0.12562 2.43159e-07)
(0.000229336 -0.125615 0.920883)
(3.91365e-05 -0.0560782 1.70166e-07)
(3.99594e-05 -0.0560768 0.908205)
(3.58261e-05 -0.0562059 1.74985e-07)
(3.65906e-05 -0.0562046 0.908749)
(0.000296816 -0.124684 -0.918703)
(0.000296463 -0.124689 -2.43085e-07)
(0.00027278 -0.125018 -0.919274)
(0.00027245 -0.125023 -2.41718e-07)
(4.746e-05 -0.0557899 -0.906613)
(4.64998e-05 -0.0557912 -1.58058e-07)
(4.35796e-05 -0.0559387 -0.907173)
(4.26903e-05 -0.0559401 -1.6276e-07)
(0.000296291 -0.124698 -2.248e-07)
(0.000296176 -0.124706 -1.78939e-07)
(0.000272276 -0.125032 -2.27676e-07)
(0.000272154 -0.12504 -1.81352e-07)
(4.61866e-05 -0.0557946 -2.27406e-07)
(4.61124e-05 -0.0557977 -1.80911e-07)
(4.2395e-05 -0.0559435 -2.29702e-07)
(4.23192e-05 -0.0559467 -1.83006e-07)
(0.000296102 -0.12471 -6.81707e-08)
(0.0002961 -0.12471 7.22701e-08)
(0.000272076 -0.125044 -6.88383e-08)
(0.000272075 -0.125044 7.33384e-08)
(4.60797e-05 -0.0557994 -6.7048e-08)
(4.60788e-05 -0.0557994 7.17864e-08)
(4.22846e-05 -0.0559484 -6.78856e-08)
(4.22836e-05 -0.0559484 7.25822e-08)
(0.00029617 -0.124706 1.82648e-07)
(0.00029628 -0.124698 2.27946e-07)
(0.000272148 -0.12504 1.8539e-07)
(0.000272264 -0.125032 2.31019e-07)
(4.61094e-05 -0.0557977 1.85112e-07)
(4.61808e-05 -0.0557946 2.30672e-07)
(4.23158e-05 -0.0559467 1.87148e-07)
(4.23884e-05 -0.0559435 2.32936e-07)
(0.000296448 -0.124689 2.4549e-07)
(0.000296798 -0.124684 0.918703)
(0.000272434 -0.125023 2.44173e-07)
(0.000272761 -0.125018 0.919274)
(4.64907e-05 -0.0557912 1.60212e-07)
(4.74492e-05 -0.0557899 0.906613)
(4.26799e-05 -0.0559401 1.64961e-07)
(4.35675e-05 -0.0559387 0.907173)
(0.000349822 -0.123939 -0.917086)
(0.000349418 -0.123944 -2.49365e-07)
(0.000322477 -0.124325 -0.91763)
(0.000322099 -0.12433 -2.45446e-07)
(5.60074e-05 -0.0554571 -0.905029)
(5.48888e-05 -0.0554584 -1.50668e-07)
(5.15967e-05 -0.0556295 -0.905563)
(5.05585e-05 -0.0556308 -1.53928e-07)
(0.000349249 -0.123953 -2.20188e-07)
(0.000349151 -0.12396 -1.74355e-07)
(0.000321929 -0.124339 -2.22171e-07)
(0.000321823 -0.124347 -1.76496e-07)
(5.45386e-05 -0.0554617 -2.23904e-07)
(5.44674e-05 -0.0554647 -1.77041e-07)
(5.02274e-05 -0.0556342 -2.25287e-07)
(5.0155e-05 -0.0556372 -1.78752e-07)
(0.000349087 -0.123965 -6.63568e-08)
(0.000349091 -0.123965 7.09108e-08)
(0.000321755 -0.124351 -6.7275e-08)
(0.000321757 -0.124351 7.14555e-08)
(5.44398e-05 -0.0554664 -6.52374e-08)
(5.44412e-05 -0.0554664 7.05305e-08)
(5.01252e-05 -0.0556389 -6.60483e-08)
(5.01261e-05 -0.0556389 7.1142e-08)
(0.000349161 -0.123961 1.78432e-07)
(0.000349266 -0.123953 2.23528e-07)
(0.000321829 -0.124347 1.80265e-07)
(0.000321939 -0.124339 2.25331e-07)
(5.44714e-05 -0.0554647 1.81777e-07)
(5.45446e-05 -0.0554617 2.27603e-07)
(5.01572e-05 -0.0556373 1.83286e-07)
(5.02303e-05 -0.0556342 2.28804e-07)
(0.000349441 -0.123944 2.51743e-07)
(0.000349848 -0.123939 0.917086)
(0.000322112 -0.12433 2.47816e-07)
(0.00032249 -0.124325 0.91763)
(5.48959e-05 -0.0554584 1.52768e-07)
(5.60155e-05 -0.0554571 0.905029)
(5.05614e-05 -0.0556308 1.55996e-07)
(5.15996e-05 -0.0556295 0.905563)
(0.000409971 -0.123081 -0.915415)
(0.000409504 -0.123086 -2.60381e-07)
(0.00037897 -0.123525 -0.91598)
(0.000378535 -0.12353 -2.54335e-07)
(6.5709e-05 -0.0550733 -0.903392)
(6.44087e-05 -0.0550746 -1.45642e-07)
(6.07041e-05 -0.0552718 -0.903947)
(5.94963e-05 -0.0552731 -1.47853e-07)
(0.000409328 -0.123095 -2.18135e-07)
(0.000409234 -0.123102 -1.71559e-07)
(0.000378363 -0.123538 -2.18739e-07)
(0.000378268 -0.123546 -1.72599e-07)
(6.40149e-05 -0.0550779 -2.23333e-07)
(6.39413e-05 -0.0550808 -1.75392e-07)
(5.91252e-05 -0.0552764 -2.23155e-07)
(5.90531e-05 -0.0552794 -1.75815e-07)
(0.00040917 -0.123106 -6.51974e-08)
(0.000409166 -0.123106 6.99672e-08)
(0.000378205 -0.12355 -6.56019e-08)
(0.000378205 -0.12355 7.04092e-08)
(6.39139e-05 -0.0550824 -6.46311e-08)
(6.39121e-05 -0.0550824 6.91047e-08)
(5.90258e-05 -0.055281 -6.47204e-08)
(5.90257e-05 -0.055281 6.98162e-08)
(0.00040922 -0.123102 1.75777e-07)
(0.000409305 -0.123095 2.21476e-07)
(0.000378267 -0.123546 1.76891e-07)
(0.000378363 -0.123538 2.22191e-07)
(6.39356e-05 -0.0550808 1.79397e-07)
(6.40053e-05 -0.0550779 2.26536e-07)
(5.90526e-05 -0.0552794 1.80389e-07)
(5.91241e-05 -0.0552764 2.26745e-07)
(0.000409475 -0.123086 2.62586e-07)
(0.000409939 -0.123081 0.915415)
(0.000378535 -0.12353 2.566e-07)
(0.00037897 -0.123525 0.915979)
(6.4396e-05 -0.0550746 1.47672e-07)
(6.56943e-05 -0.0550733 0.903392)
(5.94946e-05 -0.0552731 1.49917e-07)
(6.07016e-05 -0.0552718 0.903947)
(0.000477883 -0.1221 -0.913736)
(0.000477345 -0.122104 -2.74802e-07)
(0.000442924 -0.122607 -0.914285)
(0.000442423 -0.122611 -2.66995e-07)
(7.66767e-05 -0.0546334 -0.901749)
(7.51727e-05 -0.0546347 -1.42245e-07)
(7.10246e-05 -0.0548607 -0.902288)
(6.9625e-05 -0.054862 -1.43485e-07)
(0.000477161 -0.122113 -2.18945e-07)
(0.000477078 -0.12212 -1.71257e-07)
(0.000442242 -0.12262 -2.1806e-07)
(0.000442153 -0.122627 -1.71028e-07)
(7.47311e-05 -0.0546378 -2.26069e-07)
(7.4657e-05 -0.0546407 -1.7633e-07)
(6.92077e-05 -0.0548652 -2.24235e-07)
(6.91337e-05 -0.054868 -1.75513e-07)
(0.000477026 -0.122124 -6.51117e-08)
(0.000477032 -0.122124 6.96469e-08)
(0.000442093 -0.122631 -6.50316e-08)
(0.00044209 -0.122631 6.96174e-08)
(7.46348e-05 -0.0546422 -6.49604e-08)
(7.46372e-05 -0.0546422 6.86408e-08)
(6.91081e-05 -0.0548696 -6.47441e-08)
(6.9107e-05 -0.0548696 6.85856e-08)
(0.000477093 -0.12212 1.75256e-07)
(0.000477186 -0.122113 2.22217e-07)
(0.000442143 -0.122627 1.75075e-07)
(0.000442226 -0.12262 2.21309e-07)
(7.46641e-05 -0.0546407 1.79635e-07)
(7.47424e-05 -0.0546379 2.28895e-07)
(6.91302e-05 -0.0548681 1.78957e-07)
(6.92016e-05 -0.0548652 2.27042e-07)
(0.000477377 -0.122104 2.77022e-07)
(0.00047792 -0.1221 0.913736)
(0.000442401 -0.122611 2.69187e-07)
(0.000442899 -0.122607 0.914285)
(7.51878e-05 -0.0546347 1.4459e-07)
(7.66937e-05 -0.0546334 0.901749)
(6.96165e-05 -0.054862 1.45736e-07)
(7.10142e-05 -0.0548607 0.902288)
(0.000554113 -0.120981 -0.912019)
(0.000553495 -0.120986 -2.93986e-07)
(0.000514934 -0.121558 -0.912585)
(0.000514359 -0.121563 -2.83589e-07)
(8.89924e-05 -0.0541317 -0.900067)
(8.72617e-05 -0.0541329 -1.42303e-07)
(8.26573e-05 -0.0543905 -0.900623)
(8.10433e-05 -0.0543918 -1.41674e-07)
(0.000553299 -0.120994 -2.23767e-07)
(0.000553221 -0.121001 -1.73927e-07)
(0.00051417 -0.121571 -2.2073e-07)
(0.000514093 -0.121578 -1.72111e-07)
(8.67652e-05 -0.054136 -2.33e-07)
(8.66869e-05 -0.0541387 -1.80132e-07)
(8.05752e-05 -0.0543949 -2.28928e-07)
(8.05004e-05 -0.0543977 -1.77761e-07)
(0.000553173 -0.121005 -6.59578e-08)
(0.000553174 -0.121005 7.08059e-08)
(0.000514047 -0.121582 -6.53552e-08)
(0.000514058 -0.121582 7.00263e-08)
(8.66653e-05 -0.0541402 -6.59335e-08)
(8.66657e-05 -0.0541402 7.00226e-08)
(8.04808e-05 -0.0543992 -6.52856e-08)
(8.04855e-05 -0.0543992 6.91335e-08)
(0.000553227 -0.121001 1.78162e-07)
(0.000553307 -0.120994 2.27105e-07)
(0.000514125 -0.121578 1.76213e-07)
(0.000514222 -0.121571 2.24054e-07)
(8.66878e-05 -0.0541387 1.83731e-07)
(8.67663e-05 -0.054136 2.3587e-07)
(8.05141e-05 -0.0543977 1.81208e-07)
(8.05973e-05 -0.0543949 2.3181e-07)
(0.000553505 -0.120986 2.96198e-07)
(0.000554123 -0.120981 0.912019)
(0.000514427 -0.121563 2.8588e-07)
(0.000515014 -0.121558 0.912585)
(8.72635e-05 -0.0541329 1.44541e-07)
(8.89939e-05 -0.0541316 0.900067)
(8.10724e-05 -0.0543918 1.44151e-07)
(8.26914e-05 -0.0543905 0.900623)
(0.000639202 -0.119715 -0.910293)
(0.000638495 -0.119719 -3.18016e-07)
(0.000595525 -0.120367 -0.91086)
(0.000594865 -0.120372 -3.05364e-07)
(0.000102743 -0.0535625 -0.898377)
(0.000100762 -0.0535637 -1.45374e-07)
(9.56784e-05 -0.0538558 -0.898934)
(9.38262e-05 -0.053857 -1.43559e-07)
(0.000638278 -0.119727 -2.32962e-07)
(0.000638198 -0.119734 -1.80202e-07)
(0.000594658 -0.12038 -2.27773e-07)
(0.000594577 -0.120387 -1.76546e-07)
(0.000100202 -0.0535667 -2.4436e-07)
(0.000100116 -0.0535693 -1.87463e-07)
(9.32983e-05 -0.0538601 -2.38067e-07)
(9.32154e-05 -0.0538627 -1.83311e-07)
(0.000638147 -0.119738 -6.83339e-08)
(0.000638142 -0.119738 7.3127e-08)
(0.000594522 -0.120391 -6.69172e-08)
(0.000594513 -0.120391 7.17909e-08)
(0.000100094 -0.0535707 -6.82264e-08)
(0.000100092 -0.0535707 7.28191e-08)
(9.31912e-05 -0.0538642 -6.69263e-08)
(9.31867e-05 -0.0538642 7.11528e-08)
(0.000638186 -0.119734 1.84406e-07)
(0.000638258 -0.119727 2.36199e-07)
(0.000594549 -0.120387 1.80788e-07)
(0.000594611 -0.12038 2.31041e-07)
(0.000100111 -0.0535693 1.91505e-07)
(0.000100194 -0.0535667 2.47419e-07)
(9.3202e-05 -0.0538627 1.8701e-07)
(9.32761e-05 -0.0538601 2.40911e-07)
(0.000638468 -0.119719 3.20193e-07)
(0.00063917 -0.119715 0.910293)
(0.000594802 -0.120372 3.07482e-07)
(0.000595451 -0.120367 0.91086)
(0.000100752 -0.0535637 1.47462e-07)
(0.000102732 -0.0535625 0.898377)
(9.3797e-05 -0.053857 1.45519e-07)
(9.56449e-05 -0.0538558 0.898934)
(0.000733517 -0.118287 -0.90852)
(0.000732711 -0.118291 -3.46113e-07)
(0.000685195 -0.119021 -0.909091)
(0.00068444 -0.119026 -3.31444e-07)
(0.000117975 -0.0529201 -0.896642)
(0.000115717 -0.0529213 -1.50332e-07)
(0.000110165 -0.0532507 -0.897202)
(0.000108049 -0.0532519 -1.47634e-07)
(0.000732469 -0.118299 -2.46017e-07)
(0.000732388 -0.118306 -1.89996e-07)
(0.000684213 -0.119034 -2.38912e-07)
(0.000684135 -0.119041 -1.84605e-07)
(0.000115086 -0.0529242 -2.59684e-07)
(0.000114992 -0.0529267 -1.98341e-07)
(0.000107455 -0.0532548 -2.51391e-07)
(0.000107367 -0.0532574 -1.92362e-07)
(0.000732342 -0.11831 -7.22631e-08)
(0.000732353 -0.11831 7.65977e-08)
(0.00068409 -0.119045 -7.00833e-08)
(0.0006841 -0.119045 7.47015e-08)
(0.000114972 -0.052928 -7.20207e-08)
(0.000114977 -0.052928 7.68065e-08)
(0.000107347 -0.0532588 -6.98486e-08)
(0.000107352 -0.0532588 7.47481e-08)
(0.00073242 -0.118306 1.93937e-07)
(0.000732521 -0.118299 2.49314e-07)
(0.000684163 -0.119041 1.88724e-07)
(0.000684259 -0.119034 2.42223e-07)
(0.000115005 -0.0529267 2.02692e-07)
(0.000115108 -0.0529241 2.63197e-07)
(0.000107379 -0.0532574 1.96766e-07)
(0.000107476 -0.0532548 2.54889e-07)
(0.000732782 -0.118291 3.48466e-07)
(0.000733597 -0.118287 0.90852)
(0.000684503 -0.119026 3.33681e-07)
(0.000685267 -0.119022 0.909091)
(0.000115748 -0.0529212 1.52699e-07)
(0.000118011 -0.0529201 0.896642)
(0.000108079 -0.0532519 1.49759e-07)
(0.0001102 -0.0532507 0.897202)
(0.000837373 -0.116686 -0.906736)
(0.000836464 -0.11669 -3.78404e-07)
(0.000784251 -0.117509 -0.907315)
(0.000783393 -0.117513 -3.61618e-07)
(0.00013474 -0.0521989 -0.894895)
(0.000132184 -0.0522 -1.57267e-07)
(0.000126159 -0.0525696 -0.895464)
(0.000123755 -0.0525708 -1.53549e-07)
(0.000836191 -0.116698 -2.63118e-07)
(0.000836096 -0.116705 -2.03091e-07)
(0.000783135 -0.117521 -2.54012e-07)
(0.000783046 -0.117528 -1.96098e-07)
(0.000131473 -0.0522028 -2.78995e-07)
(0.000131366 -0.0522052 -2.12615e-07)
(0.000123085 -0.0525736 -2.68779e-07)
(0.000122984 -0.0525761 -2.05024e-07)
(0.000836034 -0.116708 -7.74385e-08)
(0.000836024 -0.116708 8.13961e-08)
(0.000782991 -0.117531 -7.46957e-08)
(0.000782991 -0.117531 7.87789e-08)
(0.000131338 -0.0522065 -7.73337e-08)
(0.000131334 -0.0522065 8.15767e-08)
(0.00012296 -0.0525774 -7.45159e-08)
(0.000122959 -0.0525774 7.89907e-08)
(0.000836066 -0.116705 2.06688e-07)
(0.00083614 -0.116698 2.66113e-07)
(0.000783044 -0.117528 1.99821e-07)
(0.000783131 -0.117521 2.5715e-07)
(0.000131352 -0.0522052 2.16439e-07)
(0.000131451 -0.0522028 2.82009e-07)
(0.000122982 -0.0525761 2.0908e-07)
(0.000123082 -0.0525736 2.72028e-07)
(0.000836395 -0.11669 3.80403e-07)
(0.000837293 -0.116686 0.906736)
(0.000783388 -0.117513 3.63834e-07)
(0.000784244 -0.117509 0.907315)
(0.000132155 -0.0522 1.59123e-07)
(0.000134706 -0.0521988 0.894895)
(0.000123753 -0.0525707 1.556e-07)
(0.000126156 -0.0525696 0.895464)
(0.000950843 -0.1149 -0.904914)
(0.000949826 -0.114904 -4.14229e-07)
(0.000892908 -0.115817 -0.905489)
(0.000891944 -0.115821 -3.95759e-07)
(0.000153022 -0.0513935 -0.893112)
(0.000150146 -0.0513946 -1.65494e-07)
(0.000143683 -0.0518069 -0.893676)
(0.000140969 -0.051808 -1.61148e-07)
(0.000949528 -0.114912 -2.83983e-07)
(0.000949436 -0.114918 -2.19361e-07)
(0.00089166 -0.115829 -2.72991e-07)
(0.000891565 -0.115835 -2.10729e-07)
(0.000149352 -0.0513973 -3.02044e-07)
(0.000149237 -0.0513996 -2.29992e-07)
(0.000140218 -0.0518108 -2.89918e-07)
(0.000140106 -0.0518132 -2.20779e-07)
(0.000949383 -0.114922 -8.3706e-08)
(0.000949391 -0.114922 8.78081e-08)
(0.000891504 -0.115839 -8.03716e-08)
(0.000891497 -0.115839 8.43968e-08)
(0.000149213 -0.0514009 -8.35696e-08)
(0.000149216 -0.0514009 8.81653e-08)
(0.000140079 -0.0518145 -8.02528e-08)
(0.000140076 -0.0518145 8.46457e-08)
(0.000949459 -0.114918 2.23042e-07)
(0.000949567 -0.114912 2.8695e-07)
(0.000891544 -0.115835 2.14348e-07)
(0.000891625 -0.115829 2.75917e-07)
(0.000149247 -0.0513996 2.34166e-07)
(0.00014937 -0.0513973 3.05377e-07)
(0.000140097 -0.0518132 2.24733e-07)
(0.000140204 -0.0518108 2.93011e-07)
(0.000949878 -0.114904 4.16027e-07)
(0.000950905 -0.1149 0.904914)
(0.000891899 -0.115821 3.97604e-07)
(0.000892854 -0.115817 0.905489)
(0.00015017 -0.0513946 1.6742e-07)
(0.000153051 -0.0513935 0.893112)
(0.000140952 -0.0518081 1.62922e-07)
(0.000143661 -0.051807 0.893676)
(0.001074 -0.112919 -0.90306)
(0.00107287 -0.112923 -4.53294e-07)
(0.00101123 -0.113934 -0.90364)
(0.00101015 -0.113938 -4.33127e-07)
(0.000172843 -0.0504989 -0.891298)
(0.000169623 -0.0504999 -1.75232e-07)
(0.000162733 -0.0509576 -0.891867)
(0.000159687 -0.0509586 -1.69963e-07)
(0.00107253 -0.11293 -3.08732e-07)
(0.00107243 -0.112936 -2.39187e-07)
(0.00100984 -0.113946 -2.95734e-07)
(0.00100974 -0.113952 -2.28736e-07)