/*--------------------------------*- C++ -*----------------------------------*\
  =========                 |
  \\      /  F ield         | OpenFOAM: The Open Source CFD Toolbox
   \\    /   O peration     | Website:  https://openfoam.org
    \\  /    A nd           | Version:  9
     \\/     M anipulation  |
\*---------------------------------------------------------------------------*/
FoamFile
{
    format      ascii;
    class       volScalarField;
    location    "1.65";
    object      epsilon;
}
// * * * * * * * * * * * * * * * * * * * * * * * * * * * * * * * * * * * * * //

dimensions      [0 2 -3 0 0 0 0];

internalField   nonuniform List<scalar> 
36360
(
0.18115
0.138226
0.052474
0.0485401
0.0372942
0.0222161
0.00960041
0.00766294
0.0244817
0.00445801
0.00806023
0.00423881
0.00570459
0.00317366
0.00489055
0.00496418
0.00234881
0.0023489
0.0044425
0.00444249
0.00311552
0.00311555
0.00498894
0.00498892
0.00445594
0.0244749
0.00423876
0.00805846
0.00317372
0.00570342
0.00496413
0.00489035
0.138233
0.181199
0.0485347
0.0524868
0.0222172
0.0373093
0.00766257
0.00960149
0.365972
0.278971
0.287383
0.217296
0.181119
0.110751
0.108842
0.0641805
0.0928658
0.0232771
0.0597778
0.0100681
0.0309734
0.005031
0.0127448
0.00317904
0.00350122
0.00349645
0.00207357
0.00207197
0.00172846
0.00172779
0.00214119
0.00214106
0.0232628
0.092867
0.0100605
0.059771
0.00502664
0.0309687
0.00317735
0.0127412
0.279022
0.366099
0.217323
0.28747
0.110787
0.181226
0.0641931
0.108899
0.460899
0.355752
0.421837
0.323875
0.282133
0.182624
0.239278
0.151468
0.139157
0.0477888
0.119376
0.0368543
0.0674786
0.0163772
0.0507626
0.0101303
0.0126906
0.0126775
0.00743635
0.00742586
0.00275568
0.00275143
0.00197445
0.00197262
0.0477734
0.139177
0.0368384
0.119386
0.0163623
0.0674857
0.01012
0.0507626
0.355851
0.461105
0.32395
0.422003
0.182713
0.282345
0.15153
0.239439
0.505355
0.392452
0.487615
0.377767
0.332518
0.220044
0.312264
0.204938
0.162723
0.0615151
0.153215
0.0559021
0.0886354
0.0257949
0.0800019
0.0217942
0.0207204
0.0207069
0.0172792
0.0172655
0.00512686
0.0051186
0.00399273
0.00398619
0.0615034
0.16276
0.0558884
0.153244
0.0257766
0.088658
0.0217767
0.0800169
0.392592
0.505631
0.377888
0.487858
0.220183
0.332822
0.205054
0.312525
0.52384
0.407803
0.51683
0.401981
0.353751
0.235857
0.34571
0.229892
0.172761
0.0674791
0.168956
0.0652251
0.0977241
0.0301001
0.0943045
0.028488
0.024507
0.024494
0.0230759
0.0230627
0.00652531
0.00651533
0.00598666
0.00597732
0.0674706
0.17281
0.0652153
0.168999
0.0300818
0.0977578
0.0284695
0.0943334
0.407973
0.524165
0.402138
0.517133
0.236029
0.354119
0.23005
0.346051
0.530219
0.413114
0.528021
0.411283
0.361085
0.241223
0.35857
0.239412
0.176245
0.0695134
0.175049
0.0688269
0.100789
0.0314921
0.0997584
0.0310412
0.0257611
0.0257482
0.0253527
0.0253398
0.00699324
0.00698269
0.00684598
0.00683563
0.0695062
0.1763
0.0688193
0.175102
0.0314738
0.100828
0.0310229
0.0997954
0.413299
0.53057
0.411462
0.528361
0.241412
0.361487
0.239595
0.358958
0.53168
0.414366
0.531361
0.414078
0.36287
0.242429
0.362448
0.242185
0.177101
0.0699988
0.176899
0.0698904
0.101513
0.0317778
0.101353
0.0317312
0.0260236
0.0260106
0.0259805
0.0259676
0.00707256
0.00706183
0.00706797
0.0070573
0.0699918
0.177159
0.0698835
0.176955
0.0317594
0.101554
0.0317129
0.101393
0.414557
0.532043
0.414267
0.531719
0.242625
0.363285
0.242378
0.362858
0.531453
0.414247
0.531707
0.41442
0.362807
0.242294
0.362988
0.242475
0.177085
0.0700016
0.177173
0.0700472
0.101514
0.0317671
0.10158
0.0318035
0.0260164
0.0260032
0.0260496
0.0260366
0.00706423
0.00705347
0.00707996
0.00706921
0.0699945
0.177143
0.0700402
0.17723
0.0317486
0.101555
0.031785
0.101621
0.414439
0.531818
0.414612
0.532071
0.242491
0.363225
0.242672
0.363406
0.530617
0.41367
0.531143
0.414046
0.362193
0.241759
0.362626
0.242124
0.1768
0.0698683
0.177003
0.0699705
0.101309
0.0316713
0.101465
0.0317452
0.0259359
0.0259227
0.0259999
0.0259868
0.00702602
0.00701525
0.0070552
0.00704444
0.069861
0.176858
0.0699634
0.17706
0.0316527
0.101349
0.0317267
0.101506
0.413862
0.530981
0.414238
0.531508
0.241956
0.362611
0.242321
0.363045
0.529469
0.412871
0.530135
0.413345
0.361287
0.24103
0.361853
0.241484
0.17638
0.0696587
0.176645
0.0697988
0.100984
0.0315229
0.101201
0.0316243
0.0258112
0.0257979
0.0258978
0.0258845
0.00697035
0.0069596
0.00700864
0.00699787
0.0696512
0.176437
0.0697915
0.176703
0.0315041
0.101024
0.0316056
0.101242
0.413063
0.529833
0.413536
0.530499
0.241226
0.361704
0.24168
0.362271
0.528106
0.411933
0.528872
0.41247
0.360208
0.240191
0.360854
0.240694
0.175883
0.0694076
0.176183
0.0695675
0.100593
0.031345
0.100842
0.0314626
0.0256618
0.0256484
0.0257615
0.0257482
0.00690498
0.00689424
0.00694875
0.006938
0.0693998
0.17594
0.06956
0.17624
0.0313261
0.100633
0.0314438
0.100882
0.412123
0.528467
0.41266
0.529234
0.240386
0.360623
0.240889
0.36127
0.526556
0.41088
0.527415
0.411474
0.35898
0.239252
0.3597
0.239806
0.175325
0.0691235
0.175655
0.0692998
0.100146
0.0311436
0.100423
0.031273
0.025493
0.0254795
0.025603
0.0255896
0.00683174
0.00682101
0.00687985
0.00686911
0.0691155
0.175381
0.0692919
0.175711
0.0311245
0.100185
0.031254
0.100462
0.411069
0.526916
0.411663
0.527776
0.239445
0.359393
0.24
0.360114
0.524821
0.409715
0.525771
0.410363
0.357608
0.238218
0.358399
0.238819
0.174708
0.068807
0.175067
0.0689993
0.0996471
0.0309192
0.0999493
0.03106
0.0253058
0.0252921
0.0254251
0.0254115
0.00675085
0.00674015
0.00680279
0.00679208
0.0687986
0.174763
0.0689911
0.175122
0.0309
0.0996856
0.0310409
0.0999883
0.409903
0.52518
0.410552
0.52613
0.23841
0.358018
0.239012
0.358811
0.522904
0.408438
0.523945
0.409142
0.356091
0.237086
0.356955
0.237736
0.174031
0.068458
0.17442
0.0686665
0.099095
0.0306715
0.0994238
0.0308239
0.0250996
0.0250858
0.0252284
0.0252146
0.00666218
0.00665151
0.00671795
0.00670726
0.0684493
0.174086
0.068658
0.174475
0.030652
0.0991329
0.0308046
0.0994621
0.408625
0.52326
0.409329
0.524302
0.237276
0.356499
0.237928
0.357364
0.520788
0.407039
0.52193
0.407805
0.354421
0.235847
0.355363
0.236552
0.173291
0.068075
0.173712
0.0683006
0.0984872
0.030399
0.0988441
0.0305638
0.0248737
0.0248597
0.0250123
0.0249985
0.00656538
0.00655474
0.00662514
0.00661449
0.068066
0.173345
0.0682918
0.173766
0.0303794
0.0985244
0.0305444
0.0988817
0.407224
0.521142
0.407991
0.522285
0.236036
0.354827
0.236741
0.35577
0.518471
0.405516
0.519714
0.406345
0.352592
0.234497
0.353613
0.235258
0.172485
0.0676569
0.172939
0.0679001
0.0978211
0.0301008
0.0982072
0.0302785
0.0246271
0.024613
0.024776
0.024762
0.00646015
0.00644956
0.00652401
0.0065134
0.0676475
0.172538
0.0678909
0.172993
0.030081
0.0978575
0.0302588
0.0982442
0.405699
0.518822
0.406529
0.520067
0.234684
0.352994
0.235446
0.354017
0.515943
0.403862
0.517292
0.404757
0.350596
0.233027
0.351701
0.233849
0.171609
0.0672021
0.172099
0.0674637
0.0970936
0.0297757
0.0975106
0.0299668
0.0243592
0.0243449
0.0245187
0.0245045
0.00634631
0.00633578
0.00641434
0.00640378
0.0671924
0.171662
0.0674542
0.172151
0.0297557
0.0971293
0.0299469
0.0975468
0.404044
0.516291
0.404939
0.517642
0.233212
0.350995
0.234035
0.352102
0.513194
0.402069
0.514655
0.403034
0.348425
0.231425
0.349619
0.232313
0.170661
0.066709
0.171187
0.0669898
0.0963015
0.0294226
0.096751
0.0296276
0.0240689
0.0240545
0.0242395
0.0242252
0.00622366
0.00621319
0.00629594
0.00628544
0.0666988
0.170712
0.0669799
0.171239
0.0294024
0.0963364
0.0296076
0.0967863
0.402249
0.51354
0.403215
0.515002
0.231608
0.348821
0.232497
0.350016
0.510212
0.400131
0.511789
0.401168
0.346071
0.229686
0.347356
0.230643
0.169635
0.0661761
0.1702
0.0664767
0.0954426
0.0290406
0.0959254
0.0292599
0.0237557
0.0237411
0.0239377
0.0239232
0.00609212
0.00608172
0.00616865
0.00615821
0.0661654
0.169686
0.0664664
0.170251
0.0290202
0.0954765
0.0292397
0.0959598
0.400309
0.510555
0.401346
0.512134
0.229867
0.346463
0.230825
0.347751
0.506995
0.398045
0.508691
0.399156
0.343532
0.227809
0.34491
0.228834
0.168532
0.0656022
0.169136
0.0659233
0.0945158
0.0286292
0.0950323
0.028863
0.0234192
0.0234044
0.0236126
0.0235979
0.00595176
0.00594143
0.00603248
0.00602211
0.0655911
0.168581
0.0659125
0.169186
0.0286086
0.0945487
0.0288426
0.0950658
0.398221
0.507335
0.399333
0.509033
0.227988
0.34392
0.229014
0.3453
0.503536
0.395804
0.505352
0.396994
0.340804
0.225806
0.342276
0.226892
0.167347
0.0649867
0.167991
0.0653285
0.0935209
0.0281883
0.0940712
0.0284366
0.0230592
0.0230441
0.0232641
0.0232492
0.00580278
0.00579254
0.00588755
0.00587726
0.0649751
0.167396
0.0653172
0.16804
0.0281675
0.0935528
0.028416
0.0941037
0.395978
0.503872
0.397168
0.505691
0.225982
0.341188
0.227069
0.342662
0.499838
0.393411
0.501773
0.394675
0.337889
0.223671
0.339454
0.224825
0.166082
0.0643298
0.166766
0.0646919
0.092457
0.027718
0.0930415
0.0279807
0.022676
0.0226607
0.0228921
0.022877
0.00564556
0.00563542
0.00573414
0.00572395
0.0643176
0.166129
0.0646801
0.166814
0.0276969
0.0924878
0.0279598
0.0930729
0.393582
0.500172
0.394847
0.502108
0.223845
0.338269
0.225
0.339836
0.495911
0.390871
0.49796
0.392207
0.33479
0.2214
0.336446
0.22262
0.164739
0.0636324
0.165461
0.0640144
0.0913252
0.0272189
0.091943
0.0274955
0.0222703
0.0222549
0.0224973
0.022482
0.00548067
0.00547064
0.00557275
0.00556266
0.0636197
0.164785
0.064002
0.165508
0.0271977
0.0913548
0.0274744
0.0919733
0.391039
0.496241
0.392377
0.498291
0.221571
0.335165
0.222792
0.336823
0.491764
0.388188
0.49392
0.389595
0.331516
0.218999
0.333258
0.220283
0.163319
0.062896
0.164079
0.063297
0.0901276
0.0266926
0.0907776
0.0269823
0.0218434
0.0218277
0.0220806
0.022065
0.00530889
0.00529898
0.00540404
0.00539406
0.0628827
0.163364
0.0632841
0.164125
0.0266711
0.090156
0.026961
0.0908067
0.388354
0.49209
0.389762
0.494248
0.219167
0.331887
0.220452
0.333631
0.487415
0.385372
0.489669
0.386843
0.32808
0.216473
0.3299
0.217818
0.161829
0.0621231
0.162623
0.0625417
0.0888677
0.0261408
0.0895478
0.0264426
0.021397
0.021381
0.0216433
0.0216275
0.0051312
0.00512142
0.00522889
0.00521903
0.0621092
0.161873
0.0625281
0.162668
0.0261191
0.0888948
0.026421
0.0895757
0.385535
0.487736
0.387008
0.489992
0.216637
0.328445
0.217985
0.330268
0.482886
0.382449
0.485227
0.383969
0.324494
0.213827
0.326386
0.215229
0.160277
0.0613173
0.161101
0.0617516
0.0875512
0.0255661
0.0882584
0.0258786
0.0209332
0.020917
0.0211876
0.0211715
0.00494877
0.00493913
0.00504838
0.00503866
0.0613028
0.160319
0.0617374
0.161144
0.0255442
0.0875771
0.0258569
0.0882849
0.38261
0.483203
0.384131
0.485546
0.213988
0.324854
0.215392
0.326749
0.478191
0.379428
0.480612
0.380999
0.320777
0.211088
0.322732
0.212534
0.158667
0.0604819
0.159519
0.0609303
0.0861847
0.0249715
0.0869157
0.0252932
0.0204545
0.020438
0.0207156
0.0206993
0.00476289
0.00475341
0.00486374
0.00485418
0.0604667
0.158708
0.0609155
0.159561
0.0249494
0.0862092
0.0252712
0.0869409
0.379586
0.478504
0.381158
0.480927
0.211246
0.321131
0.212693
0.323089
0.473359
0.376311
0.475844
0.377926
0.316947
0.208269
0.318955
0.209752
0.157007
0.0596207
0.157883
0.0600811
0.0847747
0.0243604
0.0855259
0.0246895
0.0199638
0.0199471
0.0202301
0.0202136
0.00457506
0.00456575
0.00467639
0.00466699
0.0596049
0.157046
0.0600657
0.157923
0.0243381
0.0847979
0.0246673
0.0855498
0.376466
0.473667
0.378082
0.476154
0.208424
0.317296
0.209908
0.319307
0.468421
0.373119
0.470955
0.374769
0.313029
0.205394
0.315078
0.206901
0.155305
0.0587383
0.1562
0.0592085
0.0833297
0.0237368
0.0840968
0.0240711
0.0194647
0.0194477
0.0197344
0.0197176
0.00438689
0.00437776
0.00448786
0.00447864
0.0587219
0.155342
0.0591924
0.156239
0.0237144
0.0833515
0.0240488
0.0841194
0.373271
0.468725
0.374922
0.471261
0.205545
0.313372
0.207054
0.315424
0.463407
0.369867
0.465975
0.371545
0.309047
0.202492
0.311124
0.204008
0.153567
0.0578401
0.154479
0.0583171
0.0818591
0.0231059
0.0826372
0.0234428
0.0189613
0.0189441
0.0192322
0.0192151
0.00420015
0.00419122
0.00429988
0.00429084
0.057823
0.153604
0.0583004
0.154516
0.0230833
0.0818796
0.0234203
0.0826584
0.370016
0.463706
0.371695
0.466276
0.20264
0.309384
0.204157
0.311464
0.458351
0.366555
0.460934
0.368263
0.305035
0.199605
0.307121
0.201101
0.151802
0.056933
0.152726
0.057413
0.0803761
0.0224737
0.0811579
0.02281
0.0184585
0.0184411
0.018728
0.0187107
0.00401658
0.00400785
0.00411421
0.00410537
0.0569153
0.151837
0.0573957
0.152762
0.022451
0.0803952
0.0227873
0.0811777
0.366702
0.458645
0.368411
0.46123
0.199748
0.305366
0.201247
0.307455
0.4533
0.363202
0.455874
0.364925
0.30103
0.196775
0.303108
0.19825
0.150027
0.0560272
0.150953
0.0565051
0.0788939
0.021846
0.0796734
0.0221789
0.0179613
0.0179437
0.0182271
0.0182096
0.00383772
0.0038292
0.00393251
0.00392388
0.0560089
0.150061
0.0564871
0.150987
0.0218232
0.0789117
0.0221561
0.0796919
0.363346
0.453589
0.36507
0.456165
0.196914
0.301355
0.198391
0.303436
0.44829
0.359863
0.450841
0.361573
0.297049
0.193957
0.299114
0.195425
0.148261
0.0551289
0.149181
0.0556024
0.0774205
0.0212271
0.0781946
0.0215548
0.0174732
0.0174554
0.0177337
0.017716
0.00366478
0.00365647
0.00375619
0.00374776
0.0551101
0.148293
0.0555839
0.149214
0.0212042
0.0774369
0.0215319
0.0782117
0.360003
0.448574
0.361715
0.451128
0.194094
0.297368
0.195563
0.299436
0.443295
0.356518
0.445846
0.358238
0.293061
0.191133
0.295137
0.192609
0.14649
0.0542346
0.147416
0.0547071
0.0759506
0.0206178
0.0767243
0.0209405
0.0169946
0.0169767
0.0172502
0.0172323
0.00349836
0.00349027
0.00358621
0.003578
0.0542152
0.146521
0.054688
0.147447
0.0205949
0.0759656
0.0209176
0.0767401
0.356655
0.443573
0.358376
0.446127
0.191266
0.293373
0.192743
0.295453
0.43819
0.353065
0.440821
0.354859
0.288923
0.188208
0.291102
0.189753
0.144656
0.0533179
0.145625
0.0538069
0.0744456
0.0200088
0.0752445
0.0203332
0.0165173
0.0164992
0.0167739
0.0167559
0.00333736
0.00332949
0.00342256
0.00341457
0.053298
0.144685
0.0537872
0.145655
0.0199859
0.0744593
0.0203103
0.075259
0.353198
0.438463
0.354994
0.441097
0.188337
0.289228
0.189883
0.291411
0.432633
0.349234
0.435551
0.351264
0.284252
0.184926
0.286766
0.186695
0.14259
0.0522964
0.143705
0.0528532
0.072785
0.0193625
0.0736841
0.0197126
0.0160077
0.0159896
0.0162868
0.0162687
0.00317561
0.003168
0.00326223
0.00325447
0.052276
0.142617
0.0528331
0.143733
0.0193397
0.0727972
0.0196898
0.0736971
0.349362
0.432898
0.351395
0.43582
0.185049
0.284547
0.186821
0.287066
0.425911
0.344419
0.429528
0.34705
0.278232
0.180712
0.281554
0.183046
0.139891
0.0509555
0.141398
0.0517117
0.0706652
0.0185712
0.0718487
0.0190137
0.0153687
0.0153506
0.0157304
0.0157123
0.00299344
0.00298614
0.0030938
0.00308632
0.0509345
0.139915
0.0516911
0.141424
0.0185486
0.0706754
0.018991
0.07186
0.344541
0.426167
0.347176
0.429789
0.180829
0.278516
0.183166
0.281844
0.417005
0.336683
0.421807
0.341226
0.269552
0.174238
0.274376
0.177956
0.135351
0.0487244
0.138037
0.0500361
0.0673308
0.0173652
0.0692638
0.0180629
0.0143611
0.0143431
0.0149489
0.0149308
0.00274164
0.00273482
0.00288497
0.00287788
0.0487027
0.135372
0.0500149
0.13806
0.017343
0.0673382
0.0180405
0.0692728
0.336798
0.41725
0.341345
0.422057
0.174346
0.269821
0.178069
0.274652
0.410681
0.312713
0.412551
0.329319
0.256623
0.160091
0.264035
0.169182
0.124023
0.0441715
0.131218
0.0468792
0.0607897
0.0152538
0.0646993
0.0164664
0.0125816
0.0125638
0.0136015
0.0135836
0.00235134
0.00234529
0.00256932
0.00256283
0.0441486
0.124038
0.046857
0.131237
0.0152323
0.0607927
0.0164445
0.0647048
0.312812
0.410922
0.329427
0.412792
0.160185
0.256875
0.169285
0.264296
0.259778
0.196661
0.0839171
0.0674706
0.233409
0.176683
0.0728307
0.0589343
0.0449937
0.00742397
0.0106419
0.0044261
0.0368473
0.00609733
0.00945933
0.00438739
0.00244873
0.00244784
0.00447667
0.00447674
0.00239154
0.00239113
0.00455383
0.00455385
0.00741721
0.04498
0.00442536
0.0106376
0.00609286
0.0368356
0.00438693
0.00945615
0.196683
0.259875
0.0674655
0.083958
0.176698
0.233484
0.0589281
0.0728585
0.497925
0.385018
0.398172
0.304471
0.450756
0.347081
0.359864
0.274283
0.153042
0.0498816
0.103234
0.0232748
0.130475
0.0392725
0.0872432
0.0175877
0.0099937
0.00998008
0.00371301
0.00370804
0.00694623
0.00693668
0.00296485
0.0029619
0.0498597
0.153054
0.0232559
0.103231
0.0392532
0.130482
0.0175736
0.0872382
0.385108
0.498125
0.304526
0.398321
0.347152
0.450921
0.274325
0.359985
0.61766
0.484957
0.568423
0.44346
0.559171
0.436749
0.514697
0.399626
0.220545
0.0910282
0.191823
0.0728224
0.188941
0.0733512
0.164121
0.0582916
0.0346767
0.0346614
0.022473
0.0224544
0.0248623
0.0248469
0.0156525
0.0156363
0.0910172
0.220592
0.0728038
0.191852
0.0733373
0.188975
0.0582735
0.164142
0.485114
0.617958
0.443584
0.568672
0.436878
0.559423
0.399727
0.514906
0.674211
0.533301
0.651508
0.513807
0.609844
0.479629
0.589579
0.46241
0.255191
0.114293
0.241084
0.104665
0.218573
0.0923161
0.206569
0.08452
0.0521553
0.0521474
0.0447368
0.0447254
0.0381518
0.0381406
0.0325176
0.0325043
0.114299
0.255272
0.104663
0.241149
0.0923129
0.218633
0.0845115
0.206617
0.533517
0.674595
0.513995
0.651852
0.479808
0.610174
0.462565
0.589872
0.698371
0.554204
0.689096
0.546158
0.631166
0.497865
0.623029
0.490891
0.270543
0.124949
0.26462
0.120833
0.231445
0.100786
0.226516
0.0975439
0.0605188
0.0605155
0.0572909
0.0572858
0.0444075
0.0443991
0.0420161
0.0420066
0.124967
0.270647
0.120846
0.264714
0.10079
0.231522
0.097545
0.226585
0.554461
0.698818
0.546397
0.689516
0.498079
0.63155
0.491088
0.623389
0.707067
0.561824
0.704013
0.559131
0.638678
0.504361
0.636064
0.502088
0.276217
0.128876
0.274213
0.127502
0.236078
0.103811
0.23446
0.102767
0.0635553
0.0635537
0.0625128
0.0625107
0.0465955
0.046588
0.0458587
0.0458509
0.1289
0.276333
0.127524
0.274324
0.103819
0.236164
0.102773
0.234543
0.562104
0.707551
0.559401
0.704481
0.504593
0.639093
0.502312
0.636467
0.709183
0.56379
0.708681
0.563284
0.64043
0.505969
0.640037
0.505574
0.27776
0.129939
0.277349
0.129662
0.237286
0.10459
0.236978
0.104398
0.0643352
0.064334
0.0641492
0.064148
0.0471188
0.0471114
0.0470063
0.0469989
0.129964
0.277881
0.129687
0.277468
0.104599
0.237375
0.104406
0.237067
0.564079
0.709683
0.56357
0.709174
0.506209
0.640859
0.505811
0.640461
0.708894
0.563701
0.709242
0.563922
0.640137
0.505855
0.640455
0.506057
0.277821
0.130011
0.277932
0.130075
0.237303
0.104624
0.237405
0.104681
0.0643837
0.0643824
0.0644381
0.0644369
0.0471342
0.0471267
0.0471808
0.0471733
0.130036
0.277943
0.130101
0.278054
0.104632
0.237393
0.10469
0.237496
0.563993
0.709397
0.564213
0.709744
0.506097
0.640569
0.506299
0.640886
0.707733
0.562911
0.708451
0.563422
0.639095
0.505153
0.639738
0.505605
0.27742
0.129802
0.277711
0.12997
0.23695
0.104447
0.237203
0.104585
0.0642444
0.064243
0.064365
0.0643637
0.0470194
0.0470118
0.047115
0.0471075
0.129827
0.277541
0.129995
0.277833
0.104455
0.237041
0.104594
0.237293
0.563203
0.708237
0.563714
0.708955
0.505395
0.639527
0.505847
0.64017
0.706169
0.561804
0.707065
0.562453
0.637694
0.504179
0.638496
0.50475
0.276804
0.129456
0.277193
0.12969
0.236421
0.104161
0.236754
0.104352
0.0640092
0.0640076
0.0641765
0.0641751
0.0468326
0.0468248
0.0469639
0.0469562
0.129481
0.276925
0.129714
0.277314
0.104169
0.236511
0.104361
0.236844
0.562095
0.706671
0.562745
0.707567
0.504419
0.638124
0.504991
0.638927
0.704337
0.560506
0.705354
0.56124
0.636047
0.503034
0.636962
0.503682
0.276073
0.129039
0.276513
0.129306
0.235792
0.103817
0.23617
0.104036
0.0637219
0.0637201
0.0639154
0.0639138
0.0466062
0.0465982
0.0467579
0.0467501
0.129063
0.276193
0.12933
0.276634
0.103824
0.235881
0.104044
0.236259
0.560795
0.704836
0.56153
0.705855
0.503274
0.636475
0.503922
0.637391
0.702283
0.559057
0.703411
0.559866
0.634193
0.501753
0.635211
0.502469
0.275253
0.128569
0.275737
0.128862
0.235086
0.103428
0.235502
0.103669
0.0633982
0.0633961
0.0636108
0.063609
0.0463506
0.0463425
0.0465177
0.0465097
0.128592
0.275372
0.128885
0.275857
0.103435
0.235174
0.103676
0.23559
0.559344
0.70278
0.560154
0.703909
0.501991
0.634619
0.502707
0.635639
0.700008
0.557461
0.701245
0.558341
0.632131
0.500339
0.633251
0.501119
0.27435
0.12805
0.274874
0.128367
0.234306
0.102998
0.234758
0.103259
0.0630412
0.0630389
0.0632708
0.0632687
0.0460679
0.0460596
0.0462487
0.0462405
0.128073
0.274468
0.12839
0.274993
0.103005
0.234393
0.103266
0.234846
0.557746
0.700502
0.558627
0.70174
0.500575
0.632555
0.501356
0.633677
0.697514
0.555722
0.69886
0.556673
0.629862
0.498793
0.631086
0.499639
0.273363
0.127483
0.273929
0.127824
0.233452
0.102526
0.233941
0.102808
0.0626505
0.062648
0.0628971
0.0628947
0.0457578
0.0457492
0.0459524
0.0459439
0.127505
0.27348
0.127846
0.274047
0.102532
0.233538
0.102814
0.234028
0.556005
0.698005
0.556958
0.699353
0.499028
0.630284
0.499874
0.631509
0.694774
0.553819
0.696246
0.554854
0.627367
0.497103
0.628706
0.498022
0.272286
0.126863
0.272898
0.12723
0.232519
0.10201
0.233048
0.102314
0.0622244
0.0622216
0.0624887
0.0624861
0.0454188
0.04541
0.0456278
0.0456192
0.126884
0.272402
0.127252
0.273015
0.102015
0.232605
0.10232
0.233134
0.5541
0.695263
0.555137
0.696736
0.497336
0.627786
0.498255
0.629127
0.691788
0.551752
0.693383
0.552869
0.624643
0.495268
0.626097
0.496259
0.271116
0.12619
0.271775
0.126584
0.231505
0.101448
0.232075
0.101775
0.0617612
0.0617581
0.062044
0.0620411
0.0450497
0.0450407
0.0452738
0.0452649
0.12621
0.27123
0.126605
0.27189
0.101453
0.231589
0.10178
0.23216
0.552031
0.692273
0.553149
0.69387
0.495498
0.625059
0.496491
0.626515
0.688544
0.549513
0.690269
0.550717
0.621678
0.493279
0.623254
0.494348
0.269849
0.12546
0.270556
0.125882
0.230405
0.100838
0.231018
0.101189
0.0612594
0.061256
0.0615615
0.0615583
0.0446493
0.04464
0.044889
0.0448799
0.12548
0.269962
0.125903
0.27067
0.100842
0.230489
0.101194
0.231102
0.549789
0.689025
0.550995
0.690752
0.493508
0.622091
0.494578
0.623668
0.685031
0.547104
0.686892
0.548391
0.618463
0.491134
0.620165
0.492281
0.268482
0.124672
0.26924
0.125124
0.229217
0.100178
0.229875
0.100555
0.0607171
0.0607133
0.0610394
0.0610358
0.0442162
0.0442066
0.0444722
0.0444628
0.124691
0.268593
0.125143
0.269352
0.100182
0.229299
0.100559
0.229957
0.547378
0.685509
0.548667
0.687372
0.49136
0.618872
0.492509
0.620576
0.681227
0.54451
0.683233
0.545893
0.614982
0.488824
0.616817
0.490053
0.267008
0.123823
0.26782
0.124305
0.227937
0.099467
0.228641
0.0998692
0.0601328
0.0601286
0.0604759
0.0604719
0.0437491
0.0437392
0.0440219
0.0440122
0.12384
0.267118
0.124323
0.267931
0.09947
0.228017
0.0998727
0.228722
0.544781
0.6817
0.546165
0.683709
0.489048
0.615389
0.490279
0.617225
0.67714
0.54172
0.679287
0.5432
0.611231
0.486349
0.613203
0.487662
0.265426
0.122911
0.266292
0.123424
0.226561
0.0987024
0.227313
0.0991312
0.0595057
0.059501
0.0598699
0.0598655
0.0432472
0.043237
0.0435372
0.0435272
0.122928
0.265534
0.123441
0.266401
0.0987045
0.226641
0.0991339
0.227393
0.541987
0.677609
0.54347
0.679758
0.48657
0.611634
0.487884
0.613608
0.672772
0.538761
0.67506
0.540318
0.607197
0.48368
0.609309
0.485094
0.263741
0.121937
0.264657
0.122481
0.225084
0.0978826
0.225887
0.0983388
0.0588352
0.0588301
0.0592209
0.059216
0.0427099
0.0426993
0.0430174
0.043007
0.121953
0.263848
0.122497
0.264764
0.0978839
0.225162
0.0983407
0.225966
0.539025
0.673236
0.540585
0.675527
0.483899
0.607596
0.485314
0.60971
0.668102
0.535625
0.670542
0.537279
0.602899
0.480821
0.605141
0.482324
0.261948
0.1209
0.26292
0.121476
0.223506
0.0970079
0.224358
0.0974912
0.0581206
0.0581149
0.058528
0.0585227
0.0421372
0.0421262
0.042462
0.0424512
0.120914
0.262052
0.121491
0.263025
0.0970084
0.223583
0.0974922
0.224435
0.535886
0.668562
0.537541
0.671004
0.481037
0.603294
0.482542
0.605538
0.663138
0.532289
0.665723
0.534041
0.59834
0.477798
0.600712
0.479382
0.260042
0.119798
0.261069
0.120405
0.221833
0.0960797
0.222733
0.0965893
0.057362
0.0573558
0.0577909
0.057785
0.0415299
0.0415185
0.0418715
0.0418604
0.119811
0.260144
0.120419
0.261172
0.0960792
0.221908
0.0965894
0.222808
0.532547
0.663592
0.5343
0.66618
0.478011
0.59873
0.479597
0.601104
0.657895
0.528763
0.660617
0.530608
0.593527
0.474612
0.596024
0.476277
0.258028
0.118633
0.259108
0.119271
0.220068
0.0950993
0.221012
0.0956344
0.0565608
0.0565541
0.0570103
0.057004
0.0408891
0.0408772
0.0412469
0.0412353
0.118645
0.258127
0.119284
0.259209
0.0950979
0.22014
0.0956336
0.221086
0.529017
0.658344
0.530864
0.661068
0.474822
0.593912
0.476488
0.596412
0.652387
0.525058
0.655238
0.526991
0.588469
0.471271
0.591086
0.473012
0.255909
0.117408
0.25704
0.118076
0.218212
0.0940688
0.219201
0.0946284
0.0557193
0.055712
0.0561882
0.0561812
0.0402166
0.0402043
0.0405896
0.0405776
0.117419
0.256006
0.118087
0.257139
0.0940663
0.218283
0.0946265
0.219273
0.525308
0.65283
0.527243
0.655684
0.471478
0.58885
0.47322
0.59147
0.646636
0.521181
0.649605
0.523198
0.583187
0.467762
0.585912
0.46959
0.253692
0.116128
0.254871
0.116822
0.216267
0.0929912
0.2173
0.0935734
0.0548405
0.0548326
0.055327
0.0553195
0.0395153
0.0395025
0.0399018
0.0398893
0.116137
0.253787
0.116832
0.254967
0.0929877
0.216336
0.0935704
0.21737
0.521426
0.647074
0.523446
0.650045
0.467965
0.583562
0.469795
0.58629
0.640677
0.517154
0.643745
0.519242
0.577721
0.464116
0.580533
0.466003
0.251389
0.114798
0.252609
0.115515
0.214249
0.0918733
0.215316
0.0924744
0.0539292
0.0539206
0.0544309
0.0544227
0.038789
0.0387758
0.0391871
0.0391741
0.114806
0.251482
0.115524
0.252703
0.0918687
0.214316
0.0924704
0.215384
0.517396
0.641108
0.519485
0.644179
0.464316
0.578091
0.466204
0.580906
0.634542
0.513004
0.637692
0.515149
0.5721
0.46037
0.574985
0.462305
0.249014
0.113427
0.250268
0.114163
0.21217
0.0907212
0.213266
0.0913382
0.0529902
0.052981
0.0535045
0.0534956
0.0380421
0.0380284
0.0384495
0.038436
0.113433
0.249104
0.11417
0.250359
0.0907155
0.212235
0.0913331
0.213332
0.513241
0.634967
0.515389
0.638121
0.460566
0.572465
0.462503
0.575353
0.628271
0.508752
0.631484
0.510945
0.566357
0.456537
0.569298
0.458512
0.246579
0.112021
0.247861
0.112773
0.21004
0.0895413
0.211159
0.090171
0.0520298
0.05202
0.0525534
0.0525439
0.0372795
0.0372653
0.0376936
0.0376796
0.112026
0.246666
0.112779
0.247949
0.0895345
0.210103
0.0901647
0.211223
0.508985
0.62869
0.51118
0.631906
0.45673
0.566716
0.458707
0.569661
0.621905
0.504426
0.625159
0.506652
0.560529
0.45264
0.563507
0.454644
0.2441
0.110592
0.245401
0.111355
0.207871
0.0883416
0.209008
0.0889797
0.051055
0.0510445
0.0515843
0.0515741
0.0365072
0.0364924
0.0369248
0.0369104
0.110595
0.244185
0.111358
0.245487
0.0883336
0.207932
0.0889723
0.20907
0.504655
0.622318
0.506882
0.625575
0.452828
0.560883
0.454834
0.563864
0.615493
0.500056
0.618764
0.502299
0.55466
0.4487
0.557652
0.450721
0.241595
0.10915
0.242906
0.109917
0.205678
0.0871313
0.206824
0.087773
0.0500735
0.0500622
0.0506045
0.0505937
0.0357317
0.0357164
0.0361496
0.0361346
0.109151
0.241677
0.109919
0.24299
0.0871222
0.205737
0.0877645
0.206884
0.500279
0.615899
0.502525
0.619173
0.448885
0.555009
0.450908
0.558003
0.609078
0.495666
0.612345
0.497916
0.548795
0.444745
0.55178
0.44677
0.239078
0.107703
0.240393
0.108471
0.203478
0.0859202
0.204626
0.0865608
0.0490924
0.0490805
0.0496218
0.0496103
0.0349595
0.0349437
0.0353745
0.035359
0.107703
0.239157
0.108471
0.240474
0.08591
0.203535
0.0865512
0.204684
0.495885
0.609477
0.498137
0.612747
0.444926
0.549138
0.446954
0.552125
0.602684
0.491269
0.605939
0.493523
0.542963
0.440794
0.545929
0.442816
0.236554
0.106256
0.237873
0.107024
0.201279
0.0847132
0.202426
0.0853512
0.0481162
0.0481037
0.0486424
0.0486302
0.0341949
0.0341787
0.0346053
0.0345893
0.106254
0.236631
0.107023
0.237951
0.0847019
0.201333
0.0853406
0.202481
0.491483
0.603075
0.493739
0.606334
0.440971
0.543299
0.442996
0.546269
0.596274
0.486824
0.599547
0.489111
0.537135
0.436815
0.540107
0.438859
0.233993
0.104793
0.235338
0.105572
0.199059
0.0835007
0.200221
0.0841438
0.0471389
0.0471257
0.047667
0.0476542
0.0334359
0.0334192
0.033844
0.0338275
0.104789
0.234066
0.10557
0.235413
0.0834884
0.199111
0.084132
0.200275
0.487033
0.596659
0.489323
0.599935
0.436988
0.537465
0.439034
0.540441
0.589676
0.482174
0.593077
0.484594
0.531164
0.432681
0.534237
0.434828
0.231278
0.103245
0.232722
0.10408
0.19673
0.0822356
0.197964
0.0829143
0.0461229
0.0461091
0.0466777
0.0466642
0.0326606
0.0326435
0.0330812
0.0330643
0.103241
0.231349
0.104076
0.232794
0.0822222
0.19678
0.0829015
0.198015
0.482378
0.590051
0.4848
0.593457
0.432849
0.531487
0.434998
0.534564
0.582441
0.476917
0.586238
0.479712
0.524658
0.428048
0.528068
0.430506
0.228111
0.101426
0.229835
0.102431
0.194051
0.0807788
0.195504
0.081579
0.0449512
0.0449367
0.0456056
0.0455915
0.0317931
0.0317756
0.0322741
0.0322568
0.10142
0.228178
0.102425
0.229904
0.0807643
0.194098
0.0815651
0.195553
0.477114
0.582806
0.479912
0.586609
0.428211
0.524973
0.430671
0.528387
0.573704
0.470137
0.578387
0.47386
0.516815
0.422116
0.521023
0.425371
0.223781
0.0988834
0.226217
0.100331
0.190439
0.0787832
0.192467
0.0799164
0.0433318
0.0433164
0.0442613
0.0442465
0.0306323
0.0306143
0.0312962
0.0312785
0.0988746
0.223843
0.100324
0.226282
0.0787672
0.190482
0.0799012
0.192513
0.470325
0.574058
0.474053
0.578747
0.422271
0.517119
0.42553
0.521333
0.562731
0.459006
0.568485
0.465532
0.506696
0.412314
0.512074
0.418084
0.216285
0.0945362
0.220716
0.0970829
0.184187
0.0753757
0.187892
0.077378
0.0406663
0.0406497
0.0422137
0.0421979
0.0287332
0.0287146
0.0298397
0.0298215
0.094524
0.21634
0.0970726
0.220775
0.0753577
0.184225
0.0773611
0.187933
0.459183
0.563073
0.465715
0.568832
0.41246
0.506989
0.418235
0.512372
0.559679
0.42635
0.55841
0.448743
0.502067
0.382883
0.502225
0.403116
0.198679
0.0862553
0.209633
0.0910588
0.169076
0.0686735
0.17855
0.072599
0.0362335
0.0362149
0.0387174
0.0387
0.0254846
0.025465
0.0273209
0.0273018
0.086238
0.198723
0.0910443
0.209683
0.0686522
0.169105
0.0725796
0.178584
0.426508
0.560027
0.448912
0.558751
0.383011
0.502362
0.403255
0.502515
0.279463
0.211191
0.091614
0.0720166
0.273064
0.206267
0.089338
0.0701302
0.0509448
0.00852113
0.0113698
0.00450433
0.0488712
0.00813324
0.0110803
0.00450056