/*--------------------------------*- C++ -*----------------------------------*\
  =========                 |
  \\      /  F ield         | OpenFOAM: The Open Source CFD Toolbox
   \\    /   O peration     | Website:  https://openfoam.org
    \\  /    A nd           | Version:  9
     \\/     M anipulation  |
\*---------------------------------------------------------------------------*/
FoamFile
{
    format      ascii;
    class       volScalarField;
    location    "1.65";
    object      nut;
}
// * * * * * * * * * * * * * * * * * * * * * * * * * * * * * * * * * * * * * //

dimensions      [0 2 -1 0 0 0 0];

internalField   nonuniform List<scalar> 
36360
(
0.00166071
0.00137769
0.000717378
0.000622921
0.000316328
0.000266186
0.000201144
0.000186587
0.000578819
0.00021509
0.000223764
0.000158252
0.000169129
0.000139034
0.000160606
0.000161402
0.000145931
0.000145922
0.000158718
0.000158716
0.000138184
0.000138185
0.000161669
0.000161668
0.000215027
0.000578654
0.000158236
0.000223726
0.000139035
0.000169117
0.000161401
0.000160604
0.00137779
0.0016612
0.000622879
0.000717573
0.000266191
0.000316371
0.000186584
0.000201152
0.00289526
0.00249658
0.00238626
0.00201758
0.000535607
0.000454667
0.00045201
0.000379096
0.00160644
0.000849964
0.00115972
0.000444378
0.000297447
0.00016232
0.00022122
0.000139207
0.000295766
0.000295497
0.000189709
0.00018967
0.000113585
0.00011357
0.000121953
0.000121951
0.000849585
0.0016065
0.000444143
0.00115966
0.000162273
0.000297432
0.000139183
0.000221199
0.0024971
0.00289627
0.00201788
0.00238702
0.000454715
0.000535713
0.000379121
0.000452088
0.00349027
0.00307418
0.00324678
0.00283589
0.000620887
0.000537148
0.0005877
0.000504672
0.00217909
0.00141334
0.00194027
0.00117115
0.000385584
0.000240707
0.000350676
0.000205063
0.000795788
0.000795468
0.000533471
0.00053304
0.000132939
0.00013287
0.000118818
0.000118781
0.00141319
0.00217945
0.00117086
0.00194048
0.000240634
0.000385598
0.000204993
0.000350677
0.00307509
0.00349177
0.00283661
0.00324804
0.000537235
0.000621042
0.000504741
0.000587831
0.00377102
0.00335093
0.00365801
0.00323942
0.00065588
0.000571618
0.000642263
0.000558207
0.00245831
0.0017048
0.00234583
0.00158664
0.000422316
0.000280119
0.000408113
0.00026479
0.00115189
0.00115184
0.00100482
0.00100465
0.000163729
0.000163642
0.000150557
0.000150475
0.00170494
0.00245894
0.00158665
0.00234634
0.000280054
0.000422352
0.00026472
0.000408139
0.00335219
0.00377297
0.00324052
0.00365974
0.000571738
0.000656081
0.000558311
0.000642443
0.0038932
0.00347114
0.00384599
0.00342486
0.000669592
0.000585033
0.000664462
0.000580041
0.00257865
0.00183038
0.0025326
0.00178276
0.000436323
0.000294957
0.000431155
0.000289572
0.001307
0.0013071
0.00124898
0.00124903
0.000177535
0.000177445
0.000172471
0.000172382
0.00183071
0.00257949
0.00178302
0.00253335
0.000294898
0.000436374
0.000289511
0.0004312
0.00347266
0.00389548
0.00342626
0.00384813
0.000585175
0.000669824
0.000580174
0.00066468
0.00393925
0.00351572
0.00392272
0.00349989
0.000674211
0.00058946
0.000672632
0.000587971
0.00262232
0.00187414
0.00260701
0.0018592
0.000440862
0.000299462
0.000439344
0.000298015
0.00135783
0.00135798
0.00134119
0.00134133
0.000181721
0.000181631
0.000180421
0.000180332
0.00187454
0.00262325
0.00185958
0.00260791
0.000299406
0.000440919
0.000297958
0.000439399
0.00351737
0.00394172
0.00350149
0.00392511
0.000589614
0.000674462
0.000588121
0.000672875
0.00395307
0.00352848
0.00394894
0.00352486
0.000675332
0.000590452
0.000675065
0.000590249
0.0026344
0.00188531
0.00263113
0.0018826
0.000441927
0.000300377
0.000441689
0.000300225
0.00136899
0.00136915
0.00136695
0.00136711
0.000182419
0.000182328
0.000182375
0.000182284
0.00188574
0.00263537
0.00188302
0.00263208
0.00030032
0.000441986
0.000300169
0.000441748
0.00353019
0.00395563
0.00352655
0.00395147
0.000590611
0.00067559
0.000590407
0.00067532
0.0039547
0.00352959
0.00395506
0.00353018
0.000675297
0.000590346
0.000675408
0.000590492
0.00263541
0.00188606
0.00263604
0.00188682
0.000441931
0.000300346
0.000442027
0.000300459
0.0013691
0.00136926
0.00137034
0.0013705
0.000182349
0.000182258
0.000182484
0.000182393
0.00188649
0.00263639
0.00188724
0.00263701
0.000300289
0.000441991
0.000300403
0.000442087
0.00353132
0.00395729
0.0035319
0.00395764
0.000590506
0.000675556
0.000590652
0.000675667
0.00395289
0.00352752
0.00395453
0.00352924
0.000674917
0.000589913
0.000675185
0.000590209
0.00263342
0.00188413
0.0026351
0.00188582
0.000441635
0.000300045
0.000441861
0.000300277
0.00136646
0.00136662
0.00136873
0.00136889
0.000182021
0.000181929
0.000182272
0.000182181
0.00188455
0.00263439
0.00188625
0.00263607
0.000299988
0.000441695
0.00030022
0.000441921
0.00352925
0.00395548
0.00353097
0.00395711
0.000590073
0.000675177
0.000590369
0.000675445
0.00394925
0.00352385
0.00395171
0.00352631
0.000674354
0.00058932
0.000674706
0.000589689
0.00262988
0.00188072
0.00263231
0.00188314
0.000441163
0.000299576
0.000441479
0.000299897
0.00136221
0.00136236
0.00136527
0.00136543
0.000181539
0.000181447
0.000181871
0.000181779
0.00188114
0.00263085
0.00188356
0.00263328
0.000299518
0.000441222
0.000299839
0.000441538
0.00352558
0.00395184
0.00352804
0.0039543
0.00058948
0.000674614
0.000589849
0.000674966
0.00394462
0.0035194
0.00394752
0.0035222
0.000673683
0.000588636
0.000674085
0.000589046
0.00262558
0.00187652
0.00262835
0.00187935
0.000440593
0.000299013
0.000440956
0.000299386
0.00135703
0.00135717
0.00136058
0.00136073
0.000180969
0.000180877
0.000181351
0.000181259
0.00187693
0.00262654
0.00187976
0.00262932
0.000298954
0.000440652
0.000299327
0.000441015
0.00352112
0.0039472
0.00352393
0.0039501
0.000588795
0.000673942
0.000589206
0.000674344
0.00393921
0.00351434
0.00394249
0.00351744
0.000672917
0.000587868
0.000673366
0.000588321
0.00262071
0.00187173
0.00262376
0.00187485
0.000439941
0.000298372
0.000440345
0.000298784
0.00135114
0.00135128
0.0013551
0.00135525
0.000180327
0.000180234
0.00018075
0.000180657
0.00187213
0.00262167
0.00187526
0.00262472
0.000298312
0.000439999
0.000298725
0.000440403
0.00351605
0.00394178
0.00351916
0.00394507
0.000588027
0.000673175
0.00058848
0.000673624
0.00393309
0.00350873
0.00393672
0.0035121
0.000672058
0.00058702
0.000672553
0.000587514
0.00261534
0.00186639
0.00261864
0.00186978
0.000439209
0.000297654
0.000439652
0.000298105
0.00134461
0.00134474
0.00134891
0.00134905
0.000179612
0.000179518
0.000180072
0.000179978
0.00186678
0.00261628
0.00187018
0.00261959
0.000297594
0.000439266
0.000298045
0.00043971
0.00351043
0.00393565
0.00351381
0.00393929
0.000587178
0.000672316
0.000587672
0.000672811
0.00392625
0.00350255
0.00393024
0.00350621
0.000671107
0.000586089
0.000671649
0.000586624
0.00260943
0.00186048
0.002613
0.00186416
0.000438397
0.000296858
0.000438881
0.000297348
0.00133741
0.00133753
0.00134204
0.00134217
0.000178821
0.000178727
0.00017932
0.000179226
0.00186086
0.00261037
0.00186455
0.00261394
0.000296796
0.000438454
0.000297287
0.000438938
0.00350424
0.00392881
0.00350791
0.0039328
0.000586246
0.000671364
0.000586782
0.000671906
0.00391868
0.00349576
0.00392304
0.00349973
0.000670057
0.000585067
0.000670649
0.000585649
0.00260297
0.00185399
0.00260682
0.00185797
0.0004375
0.000295977
0.000438027
0.000296511
0.00132948
0.0013296
0.00133448
0.0013346
0.000177951
0.000177856
0.000178489
0.000178395
0.00185436
0.0026039
0.00185834
0.00260776
0.000295915
0.000437555
0.000296449
0.000438083
0.00349745
0.00392122
0.00350142
0.00392559
0.000585224
0.000670312
0.000585806
0.000670905
0.00391034
0.00348834
0.00391508
0.00349263
0.000668902
0.000583949
0.000669547
0.00058458
0.00259592
0.00184689
0.00260007
0.00185117
0.000436512
0.000295007
0.000437085
0.000295586
0.0013208
0.00132091
0.00132618
0.00132629
0.000176994
0.000176899
0.000177576
0.000177481
0.00184725
0.00259684
0.00185154
0.00260099
0.000294944
0.000436567
0.000295523
0.00043714
0.00349002
0.00391287
0.00349431
0.00391763
0.000584105
0.000669157
0.000584736
0.000669803
0.0039012
0.00348026
0.00390635
0.00348488
0.000667638
0.000582727
0.000668339
0.000583411
0.00258824
0.00183914
0.00259271
0.00184374
0.000435428
0.000293942
0.00043605
0.000294569
0.00131132
0.00131142
0.0013171
0.0013172
0.000175947
0.000175851
0.000176574
0.000176479
0.00183948
0.00258916
0.0018441
0.00259362
0.000293878
0.000435482
0.000294505
0.000436104
0.00348193
0.00390372
0.00348656
0.00390888
0.000582881
0.000667892
0.000583566
0.000668593
0.00389122
0.00347146
0.00389679
0.00347645
0.000666258
0.000581389
0.000667018
0.000582131
0.0025799
0.00183071
0.0025847
0.00183566
0.000434241
0.000292777
0.000434915
0.000293455
0.001301
0.00130108
0.00130721
0.0013073
0.000174806
0.000174709
0.00017548
0.000175384
0.00183104
0.0025808
0.001836
0.00258561
0.000292712
0.000434295
0.00029339
0.000434969
0.00347312
0.00389373
0.00347811
0.00389931
0.000581543
0.00066651
0.000582286
0.000667271
0.00388038
0.00346192
0.00388639
0.00346728
0.000664755
0.00057993
0.000665576
0.000580734
0.00257087
0.00182158
0.00257602
0.00182687
0.000432948
0.000291506
0.000433676
0.000292237
0.00128981
0.00128988
0.00129645
0.00129653
0.000173565
0.000173467
0.000174289
0.000174192
0.00182189
0.00257176
0.0018272
0.00257691
0.000291439
0.000433
0.000292171
0.000433728
0.00346356
0.00388288
0.00346893
0.00388889
0.000580083
0.000665006
0.000580887
0.000665828
0.00386864
0.00345161
0.0038751
0.00345736
0.000663126
0.000578347
0.000664011
0.000579213
0.00256112
0.00181172
0.00256662
0.00181738
0.000431543
0.000290125
0.000432327
0.000290912
0.00127771
0.00127776
0.0012848
0.00128487
0.00017222
0.000172122
0.000172996
0.000172898
0.00181202
0.002562
0.00181769
0.00256751
0.000290057
0.000431594
0.000290844
0.000432378
0.00345325
0.00387113
0.00345899
0.0038776
0.000578499
0.000663376
0.000579365
0.000664262
0.00385599
0.00344054
0.00386291
0.00344666
0.000661367
0.000576648
0.000662317
0.00057757
0.00255064
0.00180111
0.00255651
0.00180714
0.000430024
0.00028863
0.000430866
0.000289474
0.00126468
0.00126472
0.00127223
0.00127229
0.00017077
0.000170671
0.000171598
0.000171499
0.0018014
0.0025515
0.00180744
0.00255738
0.00028856
0.000430074
0.000289405
0.000430916
0.00344215
0.00385846
0.00344829
0.00386539
0.000576798
0.000661615
0.000577721
0.000662566
0.00384241
0.00342866
0.00384979
0.00343519
0.000659476
0.000574826
0.000660492
0.000575812
0.00253941
0.00178975
0.00254566
0.00179616
0.000428389
0.000287017
0.000429289
0.00028792
0.00125071
0.00125074
0.00125873
0.00125877
0.000169212
0.000169112
0.000170093
0.000169994
0.00179002
0.00254026
0.00179644
0.00254651
0.000286946
0.000428437
0.000287849
0.000429338
0.00343026
0.00384486
0.0034368
0.00385226
0.000574975
0.000659724
0.000575961
0.00066074
0.00382791
0.00341599
0.00383575
0.00342291
0.000657455
0.000572875
0.000658536
0.000573924
0.00252742
0.00177763
0.00253404
0.00178441
0.000426635
0.000285286
0.000427594
0.000286248
0.0012358
0.00123581
0.00124429
0.00124431
0.000167547
0.000167446
0.000168481
0.00016838
0.00177788
0.00252826
0.00178467
0.00253488
0.000285214
0.000426682
0.000286176
0.000427642
0.00341758
0.00383034
0.00342451
0.00383819
0.000573022
0.000657701
0.000574073
0.000658783
0.0038125
0.00340254
0.00382079
0.00340985
0.000655306
0.000570798
0.000656451
0.00057191
0.0025147
0.00176477
0.00252169
0.00177192
0.000424764
0.000283438
0.000425781
0.000284458
0.00121998
0.00121997
0.00122891
0.00122891
0.000165776
0.000165674
0.000166762
0.00016666
0.001765
0.00251552
0.00177216
0.00252251
0.000283363
0.000424809
0.000284385
0.000425828
0.00340411
0.00381492
0.00341143
0.00382322
0.000570944
0.00065555
0.000572057
0.000656696
0.00379624
0.00338833
0.00380495
0.00339601
0.000653035
0.000568595
0.000654239
0.00056977
0.00250126
0.0017512
0.0025086
0.00175869
0.000422777
0.000281474
0.000423852
0.000282551
0.00120327
0.00120325
0.00121263
0.00121262
0.000163904
0.000163801
0.000164939
0.000164836
0.0017514
0.00250206
0.00175891
0.00250941
0.000281397
0.000422821
0.000282476
0.000423896
0.00338989
0.00379864
0.00339758
0.00380736
0.00056874
0.000653277
0.000569916
0.000654483
0.00377918
0.00337339
0.00378828
0.00338144
0.000650648
0.000566271
0.00065191
0.000567505
0.00248715
0.00173696
0.00249481
0.00174477
0.000420681
0.000279398
0.000421809
0.000280531
0.00118575
0.0011857
0.0011955
0.00119546
0.000161936
0.000161832
0.000163016
0.000162913
0.00173714
0.00248793
0.00174497
0.0024956
0.00027932
0.000420723
0.000280453
0.000421852
0.00337493
0.00378156
0.00338299
0.00379067
0.000566414
0.000650889
0.000567649
0.000652151
0.00376141
0.00335782
0.00377085
0.00336616
0.000648155
0.000563843
0.000649469
0.000565127
0.00247243
0.00172211
0.00248038
0.00173022
0.000418482
0.000277218
0.000419661
0.000278402
0.00116748
0.00116741
0.00117759
0.00117753
0.00015988
0.000159775
0.000161002
0.000160898
0.00172227
0.00247319
0.00173039
0.00248115
0.000277138
0.000418523
0.000278322
0.000419702
0.00335934
0.00376377
0.00336769
0.00377323
0.000563985
0.000648394
0.000565269
0.000649708
0.003743
0.00334169
0.00375275
0.0033503
0.000645567
0.000561324
0.000646926
0.000562652
0.00245716
0.00170674
0.00246538
0.00171509
0.00041619
0.000274941
0.000417414
0.000276172
0.00114858
0.00114848
0.00115898
0.0011589
0.000157748
0.000157642
0.000158905
0.0001588
0.00170687
0.00245791
0.00171524
0.00246613
0.000274858
0.000416228
0.00027609
0.000417454
0.00334319
0.00374534
0.00335181
0.0037551
0.000561464
0.000645803
0.000562792
0.000647164
0.00372404
0.00332505
0.00373405
0.00333391
0.000642897
0.000558731
0.000644295
0.000560093
0.00244143
0.00169091
0.00244987
0.00169948
0.000413814
0.000272578
0.000415078
0.00027385
0.00112915
0.00112903
0.00113979
0.00113968
0.000155552
0.000155445
0.000156738
0.000156632
0.00169101
0.00244215
0.0016996
0.0024506
0.000272493
0.00041385
0.000273766
0.000415116
0.00332653
0.00372635
0.0033354
0.00373638
0.000558868
0.000643132
0.000560231
0.000644531
0.00370459
0.00330798
0.00371484
0.00331704
0.00064016
0.000556087
0.00064159
0.000557471
0.00242528
0.00167472
0.00243392
0.00168345
0.000411367
0.000270144
0.000412665
0.000271449
0.00110936
0.00110922
0.00112015
0.00112002
0.00015331
0.000153202
0.000154516
0.000154408
0.0016748
0.00242598
0.00168354
0.00243463
0.000270058
0.000411402
0.000271363
0.000412701
0.00330944
0.00370689
0.00331852
0.00371715
0.000556223
0.000640393
0.000557607
0.000641824
0.00368472
0.00329039
0.00369517
0.00329974
0.000637379
0.000553432
0.000638828
0.000554811
0.00240875
0.00165828
0.00241757
0.00166711
0.00040887
0.000267661
0.00041019
0.000268987
0.00108937
0.00108921
0.00110022
0.00110007
0.00015104
0.000150931
0.000152256
0.000152148
0.00165834
0.00240944
0.00166718
0.00241827
0.000267572
0.000408903
0.0002689
0.000410224
0.00329184
0.003687
0.00330119
0.00369746
0.000553564
0.00063761
0.000554946
0.00063906
0.00366457
0.00327225
0.00367513
0.00328184
0.000634578
0.000550804
0.000636034
0.000552176
0.00239199
0.00164176
0.0024009
0.00165061
0.000406343
0.000265148
0.000407676
0.000266487
0.00106938
0.00106919
0.0010802
0.00108003
0.000148761
0.000148651
0.000149977
0.000149868
0.00164179
0.00239265
0.00165066
0.00240157
0.000265057
0.000406374
0.000266397
0.000407708
0.00327367
0.00366682
0.00328328
0.0036774
0.000550935
0.000634807
0.000552308
0.000636264
0.00364421
0.00325394
0.00365489
0.00326359
0.000631769
0.000548164
0.000633229
0.000549542
0.00237513
0.00162524
0.00238409
0.00163408
0.000403799
0.000262623
0.000405139
0.000263966
0.00104951
0.0010493
0.00106025
0.00106005
0.000146488
0.000146378
0.000147698
0.000147589
0.00162525
0.00237577
0.00163411
0.00238474
0.00026253
0.000403828
0.000263874
0.00040517
0.00325534
0.00364644
0.00326501
0.00365713
0.000548292
0.000631995
0.000549672
0.000633456
0.0036232
0.00323512
0.0036343
0.00324512
0.000628929
0.00054549
0.000630411
0.00054689
0.0023579
0.00160859
0.00236711
0.00161753
0.000401229
0.000260089
0.000402586
0.000261437
0.00102977
0.00102954
0.00104045
0.00104023
0.000144233
0.000144122
0.000145432
0.000145322
0.00160857
0.00235852
0.00161753
0.00236774
0.000259994
0.000401256
0.000261343
0.000402614
0.0032365
0.00362539
0.00324651
0.00363651
0.000545617
0.000629153
0.000547018
0.000630635
0.00360013
0.00321455
0.00361252
0.00322565
0.000625955
0.000542693
0.000627524
0.000544173
0.00233929
0.00159106
0.00234938
0.00160059
0.000398561
0.000257504
0.000399982
0.000258887
0.00100972
0.00100946
0.00102065
0.00102041
0.000141981
0.00014187
0.000143182
0.000143071
0.00159102
0.00233989
0.00160056
0.00234999
0.000257407
0.000398587
0.000258791
0.000400008
0.0032159
0.00360229
0.00322701
0.0036147
0.000542817
0.000626175
0.000544299
0.000627746
0.00357186
0.00318943
0.00358738
0.00320328
0.00062256
0.000539517
0.000624392
0.000541233
0.00231679
0.00157054
0.00232927
0.00158196
0.000395575
0.000254702
0.000397197
0.000256228
0.00098765
0.000987367
0.000999924
0.000999654
0.000139644
0.000139533
0.000140905
0.000140794
0.00157047
0.00231735
0.0015819
0.00232985
0.000254603
0.000395598
0.00025613
0.000397222
0.00319074
0.00357397
0.00320461
0.00358952
0.000539638
0.000622776
0.000541356
0.00062461
0.00353244
0.00315422
0.00355448
0.00317403
0.000618132
0.000535386
0.000620583
0.000537681
0.00228485
0.00154193
0.00230301
0.0015583
0.000391695
0.000251183
0.00039387
0.000253163
0.000958777
0.000958467
0.000975322
0.000975028
0.000136911
0.0001368
0.00013843
0.000138319
0.00154183
0.00228538
0.00155821
0.00230356
0.000251082
0.000391714
0.000253063
0.000393892
0.00315548
0.00353449
0.00317532
0.00355656
0.000535502
0.000618342
0.0005378
0.000620796
0.00347307
0.00309778
0.00350623
0.00313022
0.000611635
0.000528912
0.000615261
0.000532648
0.00223189
0.0014951
0.00226253
0.00152211
0.000385433
0.000245622
0.000389087
0.000248869
0.000913089
0.000912735
0.000939552
0.000939224
0.000132942
0.000132832
0.00013523
0.00013512
0.00149495
0.00223237
0.00152199
0.00226304
0.000245519
0.000385448
0.000248767
0.000389105
0.00309898
0.00347504
0.00313145
0.00350824
0.000529023
0.000611838
0.000532762
0.000615468
0.0033904
0.00298458
0.00343473
0.00305322
0.000601703
0.000514197
0.000607435
0.000523749
0.00214361
0.00142519
0.00219222
0.0014623
0.000372532
0.000235242
0.000380347
0.00024131
0.000844045
0.000843617
0.000881538
0.000881152
0.000126282
0.000126174
0.000130084
0.000129975
0.00142494
0.00214401
0.00146211
0.00219266
0.000235132
0.000372539
0.000241204
0.000380358
0.00298568
0.0033923
0.00305437
0.00343666
0.000514298
0.000601899
0.000523856
0.000607635
0.00238771
0.00198934
0.00106957
0.000894453
0.00213632
0.00177524
0.000939523
0.000789114
0.000995396
0.000334234
0.000295075
0.000170227
0.00083726
0.000279312
0.000263142
0.00016504
0.000166183
0.000166106
0.000157446
0.000157452
0.000156793
0.000156746
0.000158899
0.000158903
0.000333968
0.000995153
0.000170188
0.000294984
0.000279122
0.000837028
0.000165014
0.000263071
0.00198964
0.0023887
0.000894465
0.00107006
0.00177545
0.00213708
0.000789093
0.000939872
0.0042262
0.00366553
0.00343524
0.00293001
0.00376617
0.00325411
0.00307396
0.00261178
0.00253896
0.00151388
0.00184613
0.000868068
0.0021977
0.00125672
0.00159315
0.000694405
0.000646914
0.000646232
0.000278602
0.000278312
0.000482612
0.000482215
0.000228956
0.000228773
0.00151343
0.00253919
0.000867514
0.00184612
0.00125631
0.00219784
0.00069394
0.0015931
0.00366655
0.00422815
0.00293066
0.0034367
0.00325491
0.00376772
0.00261227
0.00307511
0.00524172
0.00463129
0.00481335
0.00422148
0.00462897
0.00407538
0.00426879
0.00373024
0.00346691
0.00243066
0.00307045
0.00203039
0.00298934
0.00203194
0.00265422
0.00169667
0.00169658
0.00169654
0.00122306
0.00122278
0.00132158
0.00132139
0.000937398
0.000936966
0.0024308
0.00346775
0.0020302
0.00307097
0.00203192
0.00298995
0.00169641
0.00265459
0.00463311
0.0052447
0.0042229
0.00481582
0.0040768
0.00463134
0.00373135
0.00427075
0.00576228
0.00513324
0.00554883
0.004927
0.00505789
0.00448958
0.00488333
0.00432072
0.00395814
0.00294367
0.00375574
0.00273063
0.00339549
0.00245257
0.00322959
0.00227933
0.00230934
0.00230968
0.00205608
0.00205626
0.00182846
0.00182863
0.00161938
0.0016194
0.00294443
0.0039596
0.0027311
0.0037569
0.00245302
0.00339657
0.00227956
0.00323044
0.0051358
0.00576622
0.00492921
0.00555231
0.00449157
0.00506099
0.00432244
0.00488608
0.00600151
0.00536462
0.00590776
0.00527401
0.00525041
0.00467579
0.00517547
0.00460341
0.00418512
0.0031826
0.00409649
0.00308978
0.00357795
0.00264291
0.00350731
0.00256967
0.00258783
0.00258837
0.00248083
0.0024813
0.00205413
0.00205448
0.00196837
0.00196865
0.00318374
0.00418702
0.00309076
0.0040982
0.00264365
0.00357936
0.00257029
0.00350857
0.00536774
0.00600617
0.00527688
0.0059121
0.00467821
0.00525407
0.00460564
0.00517888
0.00609572
0.0054554
0.00606144
0.00542248
0.00532457
0.00474704
0.0052978
0.00472145
0.00427306
0.00327294
0.00424145
0.00324102
0.00364668
0.00271255
0.00362225
0.00268829
0.00268931
0.00268995
0.00265416
0.00265476
0.00213308
0.0021335
0.00210629
0.00210668
0.00327426
0.00427519
0.00324227
0.00424349
0.00271342
0.00364825
0.00268911
0.00362375
0.00545882
0.0061008
0.00542578
0.00606635
0.00474969
0.00532855
0.004724
0.00530165
0.00612517
0.00548352
0.00611622
0.00547507
0.00534715
0.00476837
0.00534039
0.00476212
0.00429967
0.00329891
0.00429188
0.00329175
0.00366669
0.00273161
0.00366102
0.0027266
0.00271677
0.00271743
0.00270976
0.00271041
0.00215295
0.00215338
0.00214833
0.00214876
0.00330028
0.00430189
0.00329311
0.00429408
0.00273252
0.00366833
0.00272751
0.00366263
0.00548708
0.00613044
0.00547858
0.00612142
0.00477112
0.00535127
0.00476483
0.00534447
0.00612951
0.0054877
0.00612995
0.00548813
0.00535001
0.00477101
0.00535054
0.0047716
0.00430354
0.00330226
0.00430407
0.00330312
0.00366912
0.00273358
0.00366977
0.00273448
0.00271967
0.00272034
0.00272106
0.00272172
0.00215436
0.0021548
0.00215578
0.00215622
0.00330365
0.00430579
0.0033045
0.00430631
0.0027345
0.00367077
0.00273539
0.00367141
0.00549129
0.00613484
0.00549172
0.00613527
0.00477379
0.00535418
0.00477437
0.00535471
0.00612647
0.00548493
0.00612942
0.00548765
0.00534725
0.00476837
0.00534978
0.00477076
0.00430104
0.00329962
0.0043036
0.00330235
0.00366673
0.00273112
0.00366897
0.00273346
0.00271644
0.0027171
0.00271974
0.0027204
0.00215128
0.00215172
0.00215418
0.00215462
0.003301
0.00430328
0.00330374
0.00430585
0.00273203
0.00366838
0.00273438
0.00367062
0.00548853
0.00613182
0.00549125
0.00613476
0.00477115
0.00535143
0.00477354
0.00535396
0.00612018
0.00547909
0.00612457
0.00548323
0.00534184
0.00476329
0.00534554
0.0047668
0.00429569
0.00329428
0.00429961
0.00329827
0.00366205
0.00272649
0.00366539
0.00272987
0.0027104
0.00271105
0.00271501
0.00271567
0.00214591
0.00214634
0.00214991
0.00215034
0.00329565
0.00429793
0.00329965
0.00430185
0.0027274
0.00366369
0.00273078
0.00366704
0.00548269
0.00612552
0.00548683
0.00612991
0.00476606
0.00534602
0.00476958
0.00534972
0.00611234
0.00547184
0.00611739
0.00547658
0.00533513
0.00475704
0.0053394
0.00476106
0.00428899
0.00328751
0.00429351
0.00329222
0.00365628
0.00272071
0.00366011
0.00272467
0.00270277
0.00270342
0.00270816
0.00270881
0.00213923
0.00213966
0.00214388
0.00214431
0.00328887
0.00429121
0.00329359
0.00429574
0.0027216
0.00365791
0.00272557
0.00366174
0.00547542
0.00611766
0.00548018
0.00612273
0.0047598
0.00533929
0.00476383
0.00534357
0.00610343
0.00546362
0.00610899
0.00546883
0.00532746
0.00474995
0.00533219
0.00475438
0.0042814
0.00327984
0.00428634
0.003285
0.00364973
0.00271416
0.00365393
0.00271851
0.00269411
0.00269476
0.00270005
0.00270069
0.00213166
0.00213207
0.00213681
0.00213723
0.00328119
0.00428361
0.00328636
0.00428856
0.00271504
0.00365135
0.00271939
0.00365556
0.0054672
0.00610875
0.00547241
0.00611431
0.00475271
0.00533161
0.00475714
0.00533635
0.00609358
0.00545456
0.0060996
0.00546018
0.00531893
0.00474212
0.00532408
0.00474691
0.00427301
0.00327137
0.00427834
0.00327693
0.00364248
0.0027069
0.00364703
0.0027116
0.00268454
0.00268518
0.00269098
0.00269162
0.00212327
0.00212368
0.00212886
0.00212928
0.00327271
0.0042752
0.00327828
0.00428055
0.00270777
0.00364409
0.00271248
0.00364864
0.00545811
0.00609887
0.00546374
0.00610491
0.00474486
0.00532307
0.00474966
0.00532823
0.00608278
0.00544464
0.00608928
0.00545069
0.00530952
0.00473352
0.00531512
0.00473869
0.00426382
0.00326209
0.00426956
0.00326806
0.00363453
0.00269892
0.00363943
0.00270399
0.00267406
0.00267469
0.00268097
0.0026816
0.00211405
0.00211445
0.00212007
0.00212047
0.00326341
0.004266
0.00326939
0.00427175
0.00269978
0.00363612
0.00270485
0.00364103
0.00544818
0.00608805
0.00545424
0.00609457
0.00473624
0.00531365
0.00474143
0.00531925
0.00607096
0.00543381
0.00607798
0.00544032
0.00529919
0.0047241
0.00530526
0.00472969
0.0042538
0.00325196
0.00425996
0.00325836
0.00362583
0.00269019
0.0036311
0.00269563
0.0026626
0.00266322
0.00267
0.00267063
0.00210395
0.00210435
0.00211041
0.00211081
0.00325326
0.00425596
0.00325967
0.00426213
0.00269103
0.00362741
0.00269648
0.0036327
0.00543733
0.00607622
0.00544385
0.00608324
0.00472681
0.0053033
0.00473241
0.00530937
0.00605808
0.00542202
0.00606564
0.00542901
0.0052879
0.00471384
0.00529445
0.00471986
0.00424289
0.00324093
0.0042495
0.00324778
0.00361634
0.00268065
0.00362201
0.0026865
0.0026501
0.00265072
0.00265803
0.00265865
0.00209292
0.0020933
0.00209984
0.00210024
0.00324221
0.00424503
0.00324907
0.00425165
0.00268148
0.0036179
0.00268733
0.00362359
0.00542552
0.00606331
0.00543253
0.00607088
0.00471653
0.00529199
0.00472256
0.00529855
0.00604408
0.00540922
0.0060522
0.00541673
0.00527559
0.00470266
0.00528265
0.00470914
0.00423104
0.00322893
0.00423812
0.00323627
0.00360601
0.00267027
0.00361211
0.00267654
0.00263652
0.00263712
0.002645
0.00264561
0.00208089
0.00208127
0.00208832
0.0020887
0.0032302
0.00423316
0.00323755
0.00424026
0.00267108
0.00360756
0.00267736
0.00361367
0.0054127
0.00604929
0.00542022
0.00605742
0.00470535
0.00527966
0.00471183
0.00528674
0.00602889
0.00539534
0.00603761
0.00540339
0.00526221
0.00469053
0.00526981
0.0046975
0.00421818
0.00321592
0.00422577
0.00322377
0.00359479
0.002659
0.00360134
0.00266572
0.00262177
0.00262236
0.00263083
0.00263143
0.00206782
0.00206819
0.00207577
0.00207615
0.00321717
0.00422028
0.00322503
0.00422788
0.00265979
0.00359633
0.00266652
0.00360289
0.00539879
0.00603407
0.00540686
0.00604281
0.0046932
0.00526626
0.00470017
0.00527387
0.00601245
0.00538034
0.0060218
0.00538895
0.00524771
0.00467741
0.00525587
0.00468487
0.00420428
0.00320186
0.00421239
0.00321023
0.00358266
0.00264679
0.00358967
0.00265398
0.00260581
0.00260639
0.00261548
0.00261607
0.00205366
0.00205402
0.00206216
0.00206252
0.00320308
0.00420636
0.00321147
0.00421448
0.00264756
0.00358417
0.00265476
0.00359119
0.00538377
0.0060176
0.00539239
0.00602696
0.00468005
0.00525174
0.00468752
0.00525991
0.00599472
0.00536416
0.00600472
0.00537337
0.00523206
0.00466325
0.0052408
0.00467123
0.0041893
0.0031867
0.00419796
0.00319562
0.00356957
0.00263364
0.00357705
0.0026413
0.00258859
0.00258916
0.00259889
0.00259947
0.00203838
0.00203872
0.00204744
0.00204779
0.00318789
0.00419135
0.00319683
0.00420002
0.00263438
0.00357106
0.00264206
0.00357856
0.00536756
0.00599985
0.00537678
0.00600986
0.00466588
0.00523607
0.00467387
0.00524482
0.00597571
0.00534682
0.00598634
0.00535659
0.00521522
0.00464806
0.00522456
0.00465655
0.00417322
0.00317041
0.00418242
0.00317989
0.00355551
0.0026195
0.00356348
0.00262765
0.00257006
0.00257062
0.00258101
0.00258158
0.00202193
0.00202226
0.00203157
0.0020319
0.00317158
0.00417524
0.00318108
0.00418446
0.00262023
0.00355699
0.00262839
0.00356497
0.0053502
0.0059808
0.00535998
0.00599145
0.00465066
0.0052192
0.00465917
0.00522856
0.00595536
0.0053283
0.00596667
0.00533868
0.00519718
0.00463176
0.00520712
0.00464081
0.004156
0.00315297
0.00416577
0.00316302
0.00354046
0.00260436
0.00354893
0.00261301
0.00255019
0.00255073
0.00256181
0.00256236
0.00200429
0.0020046
0.00201452
0.00201484
0.0031541
0.004158
0.00316418
0.00416778
0.00260506
0.00354191
0.00261372
0.00355039
0.00533165
0.00596041
0.00534204
0.00597174
0.00463434
0.00520113
0.0046434
0.00521109
0.00593363
0.00530853
0.00594562
0.00531953
0.00517792
0.00461438
0.00518847
0.00462397
0.00413764
0.00313436
0.00414798
0.00314499
0.00352438
0.0025882
0.00353336
0.00259735
0.00252898
0.0025295
0.00254126
0.0025418
0.00198544
0.00198574
0.00199627
0.00199658
0.00313546
0.0041396
0.00314611
0.00414996
0.00258887
0.00352581
0.00259804
0.0035348
0.00531184
0.00593865
0.00532286
0.00595066
0.00461693
0.00518185
0.00462653
0.00519241
0.00591055
0.00528753
0.00592321
0.00529914
0.00515748
0.00459593
0.00516861
0.00460604
0.00411813
0.00311459
0.00412903
0.00312579
0.00350732
0.00257104
0.00351678
0.00258068
0.00250642
0.00250693
0.00251937
0.00251988
0.00196542
0.0019657
0.00197683
0.00197712
0.00311567
0.00412005
0.00312689
0.00413098
0.00257169
0.00350871
0.00258134
0.00351819
0.00529081
0.00591553
0.00530243
0.00592821
0.00459845
0.00516138
0.00460858
0.00517252
0.00588617
0.00526533
0.00589947
0.00527753
0.00513589
0.00457644
0.00514759
0.00458707
0.0040975
0.00309371
0.00410896
0.00310546
0.00348928
0.00255293
0.00349922
0.00256303
0.00248255
0.00248304
0.00249614
0.00249664
0.00194425
0.00194451
0.00195622
0.00195649
0.00309475
0.0040994
0.00310652
0.00411087
0.00255354
0.00349065
0.00256367
0.00350061
0.00526857
0.0058911
0.00528079
0.00590443
0.00457894
0.00513976
0.00458958
0.00515147
0.00586052
0.00524198
0.00587445
0.00525474
0.00511319
0.00455593
0.00512543
0.00456708
0.00407582
0.00307176
0.00408779
0.00308402
0.00347032
0.0025339
0.00348072
0.00254445
0.00245744
0.00245791
0.00247163
0.00247212
0.001922
0.00192224
0.00193449
0.00193474
0.00307276
0.00407767
0.00308505
0.00408967
0.00253448
0.00347166
0.00254505
0.00348207
0.00524518
0.00586542
0.00525797
0.00587936
0.00455839
0.00511702
0.00456956
0.00512928
0.00583374
0.00521757
0.00584821
0.00523084
0.00508948
0.00453448
0.0051022
0.00454606
0.00405315
0.00304883
0.00406559
0.00306156
0.00345051
0.00251403