/*--------------------------------*- C++ -*----------------------------------*\
  =========                 |
  \\      /  F ield         | OpenFOAM: The Open Source CFD Toolbox
   \\    /   O peration     | Website:  https://openfoam.org
    \\  /    A nd           | Version:  9
     \\/     M anipulation  |
\*---------------------------------------------------------------------------*/
FoamFile
{
    format      ascii;
    class       volScalarField;
    location    "4.4";
    object      nut;
}
// * * * * * * * * * * * * * * * * * * * * * * * * * * * * * * * * * * * * * //

dimensions      [0 2 -1 0 0 0 0];

internalField   nonuniform List<scalar> 
36360
(
0.0236056
0.0237991
0.0224881
0.022731
0.00255259
0.00251164
0.00219369
0.00231076
0.0232764
0.0230336
0.0221924
0.0219692
0.00238226
0.00230734
0.00215887
0.00206726
0.0229471
0.0229467
0.0219005
0.0219
0.00227359
0.00227356
0.00202833
0.0020283
0.0230322
0.023274
0.0219677
0.0221899
0.00230726
0.00238213
0.00206716
0.00215872
0.0237958
0.0236009
0.0227273
0.0224826
0.00251147
0.00255238
0.00231056
0.00219344
0.0247566
0.0250487
0.024246
0.024505
0.00272872
0.00266723
0.00266694
0.00260686
0.0246037
0.0243641
0.024028
0.02378
0.00254152
0.00247152
0.00247868
0.00240694
0.0242646
0.0242642
0.0236835
0.0236831
0.00243999
0.00243996
0.00237457
0.00237454
0.0243629
0.0246017
0.0237787
0.0240258
0.00247146
0.00254142
0.00240686
0.00247857
0.0250458
0.0247524
0.0245019
0.0242416
0.0026671
0.00272855
0.00260671
0.00266675
0.0255511
0.0258454
0.0251889
0.0254848
0.00280485
0.00274372
0.0027718
0.00271041
0.0254278
0.0252059
0.0250567
0.0248273
0.00262257
0.00255567
0.00258725
0.00251889
0.0251103
0.0251099
0.0247285
0.0247282
0.00252556
0.00252554
0.0024881
0.00248808
0.0252048
0.025426
0.0248262
0.0250548
0.00255562
0.00262248
0.00251883
0.00258715
0.0258428
0.0255473
0.0254821
0.0251849
0.0027436
0.00280471
0.00271029
0.00277164
0.0260987
0.0263925
0.0258487
0.026142
0.00285196
0.0027916
0.00283084
0.00277005
0.0259884
0.0257757
0.0257322
0.0255153
0.00267352
0.0026089
0.00265061
0.00258496
0.0256878
0.0256875
0.0254235
0.0254231
0.0025799
0.00257988
0.00255545
0.00255543
0.0257748
0.0259868
0.0255143
0.0257305
0.00260885
0.00267344
0.00258491
0.00265053
0.0263902
0.0260952
0.0261395
0.0258451
0.00279149
0.00285183
0.00276994
0.0028307
0.026484
0.0267807
0.0263065
0.0266013
0.00288352
0.00282399
0.00286916
0.00280921
0.0263843
0.0261785
0.0262015
0.0259925
0.00270816
0.00264511
0.00269238
0.00262861
0.0260966
0.0260964
0.0259079
0.0259076
0.00261692
0.00261691
0.00260005
0.00260003
0.0261777
0.0263828
0.0259916
0.0261999
0.00264507
0.00270809
0.00262857
0.00269231
0.0267785
0.0264807
0.0265991
0.0263032
0.0028239
0.00288341
0.00280911
0.00286904
0.026761
0.0270616
0.0266327
0.0269311
0.00290542
0.00284662
0.00289538
0.00283622
0.0266718
0.0264704
0.0265382
0.0263348
0.00273245
0.0026706
0.00272131
0.00265891
0.0263915
0.0263913
0.0262546
0.0262543
0.00264304
0.00264303
0.00263106
0.00263105
0.0264696
0.0266704
0.0263339
0.0265368
0.00267056
0.00273239
0.00265887
0.00272125
0.0270596
0.026758
0.026929
0.0266296
0.00284654
0.00290531
0.00283614
0.00289527
0.0269624
0.027266
0.0268688
0.0271709
0.0029207
0.00286254
0.0029137
0.00285522
0.0268821
0.0266839
0.0267842
0.0265845
0.00274966
0.00268876
0.00274176
0.00268042
0.0266068
0.0266065
0.0265065
0.0265063
0.00266167
0.00266166
0.00265311
0.0026531
0.0266832
0.0268808
0.0265837
0.0267828
0.00268872
0.00274961
0.00268039
0.0027417
0.0272642
0.0269596
0.0271689
0.0268659
0.00286246
0.00292062
0.00285514
0.0029136
0.0271076
0.0274133
0.0270403
0.0273448
0.00293123
0.00287359
0.00292643
0.00286852
0.0270346
0.0268389
0.0269636
0.0267667
0.00276175
0.0027016
0.00275622
0.00269572
0.0267627
0.0267624
0.0266901
0.0266899
0.00267488
0.00267487
0.00266883
0.00266882
0.0268382
0.0270334
0.026766
0.0269624
0.00270157
0.0027617
0.00269569
0.00275617
0.0274116
0.027105
0.0273431
0.0270377
0.00287352
0.00293118
0.00286845
0.00292635
0.0272092
0.027516
0.0271624
0.0274685
0.00293817
0.00288094
0.00293504
0.0028776
0.0271421
0.0269484
0.0270924
0.0268977
0.00276995
0.00271041
0.00276624
0.00270642
0.0268728
0.0268726
0.0268218
0.0268216
0.00268401
0.002684
0.00267987
0.00267986
0.0269478
0.0271411
0.0268971
0.0270913
0.00271039
0.00276991
0.00270639
0.0027662
0.0275144
0.0272063
0.0274669
0.0271596
0.00288089
0.00293809
0.00287755
0.00293497
0.0272757
0.0275833
0.0272456
0.0275526
0.00294233
0.00288539
0.00294048
0.00288343
0.0272138
0.0270219
0.0271811
0.0269883
0.0027751
0.00271607
0.00277284
0.00271357
0.0269464
0.0269462
0.0269128
0.0269126
0.00268993
0.00268992
0.00268731
0.0026873
0.0270213
0.0272129
0.0269878
0.0271801
0.00271605
0.00277506
0.00271355
0.0027728
0.0275819
0.0272733
0.0275511
0.0272429
0.00288534
0.0029423
0.00288339
0.00294048
0.0273142
0.0276215
0.0272973
0.0276047
0.0029442
0.00288739
0.00294352
0.00288663
0.0272562
0.0270658
0.0272375
0.0270463
0.00277774
0.00271916
0.00277668
0.00271789
0.0269903
0.0269901
0.0269709
0.0269707
0.00269325
0.00269324
0.00269187
0.00269186
0.0270652
0.0272554
0.0270458
0.0272366
0.00271913
0.0027777
0.00271786
0.00277665
0.0276202
0.0273119
0.0276035
0.0272951
0.00288736
0.00294417
0.00288659
0.00294347
0.0273298
0.0276359
0.0273244
0.0276308
0.00294404
0.00288735
0.00294423
0.00288752
0.0272739
0.0270845
0.027267
0.0270773
0.00277827
0.00272008
0.00277822
0.00271985
0.0270088
0.0270087
0.0270018
0.0270016
0.00269439
0.00269438
0.00269406
0.00269405
0.027084
0.0272732
0.0270768
0.0272662
0.00272006
0.00277824
0.00271983
0.00277818
0.0276351
0.0273281
0.0276295
0.0273219
0.00288732
0.00294404
0.00288749
0.00294422
0.0273224
0.0276277
0.0273276
0.0276336
0.00294256
0.00288586
0.00294345
0.00288678
0.0272694
0.0270816
0.0272737
0.0270852
0.00277713
0.00271924
0.00277791
0.00271987
0.0270059
0.0270057
0.0270095
0.0270093
0.00269373
0.00269372
0.00269426
0.00269425
0.0270811
0.0272686
0.0270847
0.0272729
0.00271922
0.0027771
0.00271985
0.00277788
0.0276266
0.0273207
0.0276328
0.0273265
0.00288582
0.00294244
0.00288674
0.0029434
0.0272968
0.0275998
0.0273112
0.027615
0.0029393
0.00288255
0.00294107
0.0028843
0.027245
0.0270587
0.0272587
0.0270717
0.00277427
0.00271668
0.00277585
0.00271813
0.026983
0.0269829
0.026996
0.0269958
0.00269134
0.00269133
0.00269271
0.0026927
0.0270583
0.0272442
0.0270712
0.0272579
0.00271667
0.00277424
0.00271811
0.00277582
0.0275986
0.0272948
0.0276139
0.0273092
0.00288251
0.00293922
0.00288427
0.00294099
0.0272547
0.0275559
0.0272771
0.0275793
0.00293484
0.00287815
0.00293716
0.00288046
0.0272029
0.0270181
0.0272254
0.0270399
0.00277007
0.0027127
0.00277232
0.00271485
0.0269425
0.0269424
0.0269642
0.0269641
0.00268748
0.00268748
0.00268957
0.00268957
0.0270177
0.0272023
0.0270395
0.0272247
0.00271268
0.00277005
0.00271483
0.00277229
0.0275543
0.0272524
0.0275778
0.0272749
0.00287812
0.00293487
0.00288042
0.00293714
0.0271972
0.0274949
0.0272275
0.0275265
0.00292913
0.00287222
0.0029321
0.00287527
0.027144
0.0269606
0.0271748
0.0269907
0.00276449
0.00270733
0.00276742
0.00271016
0.0268853
0.0268852
0.0269152
0.0269151
0.00268223
0.00268222
0.00268501
0.00268501
0.0269603
0.0271436
0.0269904
0.0271743
0.00270731
0.00276447
0.00271015
0.0027674
0.0274946
0.0271957
0.0275253
0.0272252
0.00287221
0.00292906
0.00287524
0.00293207
0.0271231
0.0274185
0.0271615
0.027458
0.00292229
0.00286528
0.0029258
0.00286886
0.0270689
0.0268868
0.0271079
0.0269251
0.00275769
0.00270064
0.00276124
0.00270414
0.0268119
0.0268118
0.0268499
0.0268498
0.00267562
0.00267562
0.00267908
0.00267908
0.0268865
0.0270684
0.0269248
0.0271074
0.00270063
0.00275767
0.00270413
0.00276122
0.027418
0.0271217
0.0274576
0.0271602
0.00286527
0.00292236
0.00286885
0.00292577
0.0270333
0.0273257
0.0270795
0.0273731
0.00291412
0.0028568
0.00291833
0.00286115
0.0269779
0.0267967
0.0270248
0.0268432
0.00274948
0.00269261
0.00275373
0.00269678
0.0267226
0.0267224
0.0267686
0.0267685
0.00266765
0.00266765
0.0026718
0.00267179
0.0267964
0.0269774
0.0268428
0.0270243
0.00269259
0.00274946
0.00269677
0.00275371
0.027326
0.0270333
0.0273731
0.0270787
0.00285679
0.00291413
0.00286114
0.00291838
0.0269289
0.0272182
0.0269828
0.0272737
0.00290458
0.00284715
0.00290947
0.00285211
0.0268702
0.0266901
0.0269257
0.0267449
0.00273998
0.00268322
0.00274488
0.00268807
0.026617
0.0266169
0.0266712
0.0266711
0.0026583
0.00265829
0.00266314
0.00266314
0.0266897
0.0268692
0.0267446
0.0269248
0.0026832
0.00273995
0.00268806
0.00274485
0.0272158
0.0269255
0.0272721
0.0269812
0.00284708
0.00290455
0.00285205
0.00290948
0.0268055
0.0270923
0.026869
0.0271566
0.00289371
0.0028359
0.00289929
0.00284164
0.0267448
0.0265662
0.0268092
0.0266297
0.00272902
0.0026724
0.00273466
0.00267798
0.0264949
0.0264948
0.0265575
0.0265573
0.0026475
0.0026475
0.00265307
0.00265307
0.0265659
0.0267443
0.0266294
0.0268084
0.00267239
0.002729
0.00267796
0.00273464
0.0270925
0.0268052
0.0271556
0.0268668
0.00283588
0.00289355
0.0028416
0.00289915
0.0266664
0.0269511
0.0267374
0.0270231
0.00288129
0.00282328
0.00288764
0.00282974
0.0266019
0.0264247
0.026675
0.0264972
0.00271661
0.00266011
0.00272299
0.00266643
0.0263555
0.0263553
0.0264268
0.0264267
0.00263519
0.00263519
0.00264153
0.00264153
0.0264243
0.0266011
0.0264968
0.0266743
0.0026601
0.0027166
0.00266642
0.00272296
0.02695
0.0266655
0.0270226
0.0267371
0.00282324
0.00288127
0.00282969
0.00288753
0.0265105
0.0267921
0.0265904
0.0268733
0.00286739
0.00280903
0.00287451
0.0028163
0.0264402
0.0262638
0.026523
0.0263463
0.00270263
0.00264624
0.00270981
0.00265337
0.026196
0.0261958
0.026278
0.0262779
0.00262133
0.00262133
0.00262843
0.00262843
0.0262632
0.0264388
0.0263459
0.026522
0.00264624
0.00270263
0.00265336
0.0027098
0.0267891
0.0265068
0.0268718
0.0265886
0.00280903
0.0028673
0.00281629
0.00287445
0.0263307
0.0266109
0.0264231
0.0267034
0.00285176
0.0027931
0.00285973
0.00280122
0.0262579
0.0260818
0.026351
0.0261748
0.002687
0.00263068
0.00269501
0.00263866
0.0260146
0.0260145
0.0261074
0.0261072
0.00260582
0.00260582
0.00261378
0.00261378
0.0260812
0.0262564
0.0261742
0.0263494
0.00263068
0.00268699
0.00263866
0.00269501
0.026608
0.0263264
0.0266997
0.0264181
0.00279308
0.0028517
0.0028012
0.00285964
0.026129
0.0264104
0.0262317
0.0265121
0.00283437
0.00277541
0.00284321
0.00278443
0.0260551
0.0258789
0.0261585
0.0259825
0.00266961
0.00261337
0.00267851
0.00262224
0.025812
0.0258118
0.0259155
0.0259153
0.00258855
0.00258855
0.0025974
0.0025974
0.0258784
0.0260543
0.0259819
0.0261575
0.00261336
0.00266959
0.00262223
0.00267849
0.0264106
0.0261293
0.0265113
0.0262301
0.00277539
0.0028344
0.00278441
0.00284329
0.0259081
0.0261904
0.0260213
0.0263028
0.00281525
0.00275589
0.00282501
0.00276584
0.0258308
0.025654
0.0259452
0.0257688
0.0026504
0.00259421
0.00266022
0.00260402
0.0255872
0.025587
0.0257019
0.0257017
0.00256942
0.00256942
0.00257921
0.00257921
0.0256534
0.0258296
0.0257682
0.0259442
0.0025942
0.00265038
0.002604
0.0026602
0.0261883
0.0259059
0.0263018
0.0260206
0.00275583
0.00281524
0.0027658
0.00282503
0.0256619
0.0259466
0.0257873
0.0260704
0.00279417
0.00273435
0.00280493
0.0027453
0.0255833
0.0254057
0.0257094
0.0255323
0.00262924
0.00257309
0.00264005
0.00258389
0.0253391
0.025339
0.0254656
0.0254655
0.00254833
0.00254832
0.00255912
0.00255911
0.0254054
0.0255827
0.0255318
0.0257086
0.00257308
0.00262923
0.00258388
0.00264004
0.0259456
0.0256603
0.026069
0.0257852
0.00273435
0.00279414
0.00274529
0.00280481
0.0253918
0.0256797
0.0255298
0.0258156
0.0027711
0.00271077
0.00278283
0.00272278
0.0253106
0.0251334
0.0254497
0.0252721
0.002606
0.0025499
0.00261787
0.00256175
0.0250669
0.0250668
0.0252056
0.0252055
0.00252515
0.00252515
0.002537
0.00253699
0.0251329
0.0253097
0.0252717
0.0254489
0.00254989
0.00260599
0.00256174
0.00261786
0.0256779
0.0253889
0.0258141
0.0255275
0.00271076
0.00277103
0.00272276
0.00278286
0.0250949
0.0253883
0.025246
0.0255363
0.00274583
0.00268509
0.00275868
0.00269812
0.0250131
0.0248358
0.0251644
0.0249873
0.00258062
0.00252453
0.00259356
0.00253748
0.0247694
0.0247693
0.0249209
0.0249207
0.00249979
0.00249979
0.00251274
0.00251274
0.0248355
0.0250125
0.0249869
0.0251636
0.00252452
0.0025806
0.00253747
0.00259355
0.0253872
0.0250932
0.0255348
0.0252436
0.00268508
0.00274581
0.00269812
0.00275862
0.0247735
0.0250722
0.0249369
0.0252329
0.00271822
0.00265704
0.0027323
0.00267133
0.0246901
0.0245121
0.0248544
0.0246768
0.00255294
0.00249684
0.00256706
0.00251097
0.0244455
0.0244454
0.0246103
0.0246102
0.0024721
0.0024721
0.00248623
0.00248623
0.0245117
0.0246895
0.0246764
0.0248538
0.00249683
0.00255292
0.00251096
0.00256705
0.0250714
0.0247723
0.025232
0.0249356
0.00265701
0.00271819
0.00267131
0.00273228
0.0244255
0.0247297
0.0246025
0.0249037
0.002688
0.00262635
0.0027034
0.00264197
0.0243403
0.0241611
0.0245181
0.0243395
0.00252277
0.00246669
0.00253815
0.00248207
0.0240943
0.0240942
0.0242728
0.0242727
0.00244195
0.00244195
0.00245733
0.00245733
0.0241608
0.0243398
0.0243392
0.0245176
0.00246668
0.00252275
0.00248206
0.00253814
0.024729
0.0244244
0.0249029
0.0246013
0.00262633
0.00268797
0.00264195
0.00270337
0.0240497
0.0243602
0.0242407
0.0245478
0.0026552
0.00259306
0.00267189
0.00260998
0.0239628
0.023782
0.0241546
0.0239747
0.00249004
0.00243397
0.00250671
0.00245065
0.0237148
0.0237147
0.0239076
0.0239075
0.00240922
0.00240922
0.00242591
0.0024259
0.0237818
0.0239623
0.0239744
0.0241541
0.00243396
0.00249002
0.00245064
0.0025067
0.0243595
0.0240487
0.0245471
0.0242396
0.00259304
0.00265517
0.00260996
0.00267185
0.0236456
0.0239628
0.0238509
0.0241645
0.00261984
0.00255719
0.00263781
0.0025754
0.0235565
0.0233737
0.0237629
0.0235812
0.00245468
0.00239857
0.00247268
0.00241661
0.0233058
0.0233057
0.0235136
0.0235135
0.00237378
0.00237378
0.00239184
0.00239184
0.0233735
0.0235561
0.0235809
0.0237624
0.00239856
0.00245467
0.0024166
0.00247267
0.0239621
0.0236445
0.0241638
0.0238498
0.00255717
0.00261981
0.00257538
0.00263778
0.0232112
0.0235353
0.0234319
0.0237523
0.00258186
0.00251862
0.00260115
0.00253821
0.0231196
0.0229344
0.0233416
0.0231576
0.00241656
0.00236033
0.00243596
0.00237981
0.0228655
0.0228654
0.0230892
0.0230891
0.00233545
0.00233545
0.00235498
0.00235498
0.0229342
0.0231192
0.0231574
0.0233411
0.00236032
0.00241654
0.0023798
0.00243595
0.0235346
0.0232102
0.0237517
0.0234308
0.0025186
0.00258183
0.00253818
0.00260112
0.0227445
0.0230751
0.0229817
0.0233089
0.00254111
0.0024772
0.00256181
0.00249823
0.0226497
0.0224617
0.0228885
0.0227019
0.00237547
0.00231901
0.00239638
0.00234006
0.0223916
0.0223915
0.0226324
0.0226323
0.002294
0.002294
0.00231513
0.00231512
0.0224615
0.0226492
0.0227017
0.0228881
0.002319
0.00237545
0.00234005
0.00239637
0.0230744
0.0227435
0.0233082
0.0229806
0.00247718
0.00254108
0.00249821
0.00256177
0.0222417
0.0225788
0.0224975
0.0228311
0.00249736
0.0024327
0.00251959
0.00245531
0.0221436
0.0219525
0.022401
0.0222115
0.00233112
0.0022743
0.00235371
0.0022971
0.0218808
0.0218807
0.0221406
0.0221405
0.00224909
0.00224908
0.002272
0.00227199
0.0219522
0.0221432
0.0222112
0.0224005
0.00227429
0.0023311
0.00229709
0.00235369
0.0225781
0.0222408
0.0228305
0.0224965
0.00243268
0.00249732
0.00245529
0.00251956
0.0216976
0.0220413
0.0219749
0.022315
0.00245018
0.00238478
0.0024742
0.00240915
0.021597
0.021402
0.0218753
0.0216823
0.00228307
0.0022257
0.00230758
0.00225052
0.0213285
0.0213284
0.0216098
0.0216097
0.00220019
0.00220018
0.00222517
0.00222516
0.0214018
0.0215966
0.0216821
0.0218749
0.00222569
0.00228305
0.00225051
0.00230757
0.0220406
0.0216966
0.0223143
0.0219739
0.00238475
0.00245015
0.00240913
0.00247417
0.0211043
0.0214551
0.0214071
0.0217543
0.00239886
0.00233282
0.00242506
0.00235931
0.0210026
0.0208029
0.021306
0.0211087
0.00223048
0.00217236
0.00225741
0.00219969
0.0207274
0.0207273
0.0210341
0.021034
0.00214651
0.00214651
0.002174
0.002174
0.0208027
0.0210022
0.0211085
0.0213056
0.00217235
0.00223046
0.00219968
0.00225739
0.0214544
0.0211034
0.0217536
0.0214062
0.00233279
0.00239883
0.00235929
0.00242503
0.0204634
0.0208073
0.0207877
0.0211398
0.00234263
0.00227528
0.00237133
0.00230493
0.0203451
0.0201429
0.020683
0.020481
0.00217134
0.00211279
0.00220194
0.00214347
0.020068
0.0200679
0.0204051
0.020405
0.00208695
0.00208695
0.00211753
0.00211753
0.0201426
0.0203447
0.0204808
0.0206825
0.00211278
0.00217133
0.00214346
0.00220192
0.0208066
0.0204625
0.0211392
0.0207868
0.00227525
0.00234259
0.00230491
0.0023713
0.0198531
0.020039
0.0201452
0.0204467
0.00227969
0.00219883
0.00231272
0.00224174
0.0195889
0.0194089
0.0199814
0.0197847
0.00209996
0.00204505
0.00213774
0.00207999
0.0193456
0.0193455
0.0197139
0.0197138
0.00202093
0.00202093
0.00205469
0.00205469
0.0194086
0.0195885
0.0197845
0.019981
0.00204503
0.00209994
0.00207998
0.00213772
0.0200384
0.0198522
0.0204461
0.0201443
0.0021988
0.00227966
0.00224172
0.00231269
0.0603136
0.0601345
0.0573293
0.0573489
0.0436971
0.0436556
0.0414755
0.0415858
0.0598141
0.0598375
0.0569547
0.0569391
0.0433396
0.043329
0.0412024
0.0411727
0.0599282
0.0599258
0.05702
0.0570176
0.0433875
0.0433861
0.0412337
0.0412323
0.0598306
0.0598031
0.056932
0.0569433
0.0433248
0.0433328
0.0411683
0.0411952
0.0601202
0.060296
0.057334
0.0573106
0.0436464
0.043685
0.0415759
0.0414625
0.0639529
0.0638041
0.0623534
0.0621804
0.0461489
0.0461696
0.045075
0.0450643
0.063545
0.0635927
0.061892
0.0619305
0.0459257
0.0459325
0.0447883
0.0447871
0.0636857
0.0636836
0.0620235
0.0620212
0.0459855
0.0459842
0.0448423
0.044841
0.0635864
0.063535
0.0619239
0.0618815
0.0459287
0.0459196
0.0447831
0.0447819
0.0637911
0.0639369
0.0621667
0.0623363
0.0461614
0.0461381
0.0450556
0.0450635
0.066399
0.0662831
0.0652734
0.0651433
0.0477923
0.0478417
0.0470374
0.0470756
0.0660635
0.0661213
0.0649064
0.0649596
0.0476348
0.0476522
0.0468532
0.0468658
0.0662131
0.0662111
0.0650518
0.0650498
0.0477039
0.0477027
0.0469175
0.0469163
0.0661156
0.0660544
0.0649536
0.0648969
0.0476488
0.0476293
0.0468623
0.0468474
0.0662712
0.0663842
0.0651308
0.0652577
0.0478342
0.0477823
0.0470677
0.047027
0.0681939
0.0680987
0.0673597
0.067255
0.0489774
0.0490432
0.0484293
0.0484874
0.0679042
0.0679683
0.067049
0.0671098
0.0488583
0.048882
0.0482925
0.048313
0.0680594
0.0680576
0.067201
0.0671991
0.0489346
0.0489336
0.048365
0.0483639
0.0679631
0.0678959
0.0671044
0.0670402
0.0488789
0.0488533
0.0483098
0.0482872
0.0680877
0.0681801
0.0672435
0.0673451
0.0490363
0.0489681
0.0484801
0.0484196
0.0695426
0.0694624
0.0689129
0.0688256
0.049849
0.0499278
0.0494436
0.0495162
0.0692865
0.0693556
0.068641
0.0687074
0.0497588
0.0497874
0.0493398
0.0493659
0.0694466
0.0694449
0.0687982
0.0687965
0.0498412
0.0498403
0.049419
0.049418
0.0693508
0.0692788
0.0687024
0.0686329
0.0497846
0.0497542
0.0493629
0.049335
0.0694522
0.0695297
0.068815
0.0688993
0.0499214
0.0498403
0.0495096
0.0494346
0.0705657
0.0704972
0.0700869
0.0700128
0.0504977
0.0505872
0.050195
0.0502794
0.070336
0.0704095
0.0698446
0.0699157
0.0504309
0.0504635
0.050117
0.0501475
0.0705007
0.0704992
0.0700066
0.070005
0.050518
0.0505171
0.0502016
0.0502007
0.070405
0.0703288
0.0699111
0.0698371
0.0504609
0.0504266
0.0501448
0.0501125
0.0704876
0.0705536
0.0700029
0.0700741
0.0505813
0.0504896
0.0502731
0.0501866
0.0713433
0.0712839
0.0709792
0.0709154
0.0509825
0.0510803
0.050756
0.0508498
0.0711348
0.0712123
0.0707605
0.0708359
0.0509344
0.0509704
0.050699
0.0507332
0.071304
0.0713026
0.0709272
0.0709257
0.0510256
0.0510248
0.0507879
0.0507871
0.0712081
0.0711281
0.0708315
0.0707536
0.050968
0.0509304
0.0507306
0.0506948
0.071275
0.0713319
0.0709062
0.0709672
0.0510748
0.0509749
0.050844
0.0507481
0.0719303
0.0718781
0.0716559
0.0716002
0.051342
0.0514463
0.0511742
0.0512754
0.071739
0.0718201
0.0714563
0.0715354
0.0513091
0.0513481
0.0511341
0.0511715
0.0719125
0.0719112
0.0716273
0.071626
0.0514039
0.0514031
0.0512268
0.051226
0.0718162
0.0717328
0.0715314
0.0714498
0.0513458
0.0513054
0.0511691
0.0511302
0.0718698
0.0719196
0.0715916
0.0716446
0.0514411
0.0513348
0.05127
0.0511668
0.0723659
0.0723194
0.072163
0.0721138
0.0516028
0.0517121
0.0514817
0.0515886
0.0721887
0.072273
0.0719791
0.0720617
0.0515824
0.0516241
0.0514553
0.0514956
0.0723661
0.0723649
0.0721543
0.072153
0.0516804
0.0516797
0.0515515
0.0515507
0.0722694
0.0721829
0.072058
0.0719731
0.0516221
0.051579
0.0514934
0.0514517
0.0723116
0.0723558
0.0721057
0.0721525
0.0517073
0.0515959
0.0515835
0.0514746
0.0726777
0.0726359
0.0725334
0.0724895
0.0517841
0.0518976
0.0517006
0.0518121
0.0725129
0.0726003
0.072363
0.0724487
0.0517743
0.0518184
0.0516859
0.0517287
0.0726942
0.072693
0.0725422
0.072541
0.0518752
0.0518746
0.0517852
0.0517845
0.072597
0.0725075
0.0724453
0.0723574
0.0518165
0.0517712
0.0517267
0.0516826
0.0726286
0.0726684
0.072482
0.0725235
0.0518932
0.0517779
0.0518074
0.051694
0.0728888
0.0728503
0.0727929
0.0727528
0.0519003
0.0520168
0.0518474
0.0519625
0.0727334
0.0728232
0.072633
0.0727218
0.0518991
0.0519456
0.0518428
0.051888
0.0729177
0.0729167
0.0728161
0.072815
0.0520029
0.0520023
0.0519449
0.0519443
0.0728201
0.0727283
0.0727185
0.0726277
0.0519438
0.0518961
0.0518861
0.0518398
0.0728436
0.07288
0.0727458
0.0727836
0.0520125
0.0518943
0.0519583
0.0518414
0.0730159
0.0729799
0.0729615
0.0729242
0.0519636
0.0520819
0.051938
0.052055
0.0728682
0.0729601
0.0728093
0.0728996
0.0519687
0.0520163
0.0519389
0.0519855
0.0730551
0.0730541
0.0729942
0.0729932
0.0520735
0.0520729
0.0520427
0.0520421
0.0729572
0.0728634
0.0728966
0.0728044
0.0520146
0.0519659
0.0519837
0.051936
0.0729734
0.0730076
0.0729176
0.0729528
0.0520782
0.0519584
0.0520508
0.0519319
0.0730652
0.0730316
0.0730477
0.0730129
0.0519748
0.052095
0.0519732
0.0520927
0.0729249
0.0730191
0.0729038
0.0729969
0.0519867
0.0520368
0.0519821
0.0520311
0.073115
0.073114
0.0730923
0.0730913
0.0520949
0.0520944
0.0520888
0.0520883
0.0730164
0.0729205
0.072994
0.0728992
0.0520352
0.051984
0.0520294
0.0519795
0.0730257
0.0730576
0.0730066
0.0730395
0.0520909
0.0519693
0.0520892
0.0519686
0.0730493
0.0730168
0.0730636
0.0730307
0.0519429
0.0520644
0.0519629
0.0520835
0.0729143
0.0730105
0.0729262
0.0730212
0.0519611
0.0520132
0.0519778
0.0520288
0.073107
0.0731062
0.0731173
0.0731164
0.0520719
0.0520714
0.0520871
0.0520866
0.0730079
0.0729101
0.0730186
0.0729219
0.0520118
0.0519589
0.0520273
0.0519753
0.073011
0.0730419
0.0730252
0.0730564
0.052062
0.0519391
0.0520799
0.0519573
0.0729686
0.072938
0.0730153
0.0729835
0.0518723
0.0519944
0.0519107
0.0520328
0.072841
0.0729397
0.0728837
0.072981
0.0518946
0.0519491
0.0519315
0.0519847
0.0730372
0.0730364
0.0730779
0.073077
0.0520087
0.0520083
0.0520437
0.0520433
0.0729373
0.0728374
0.0729785
0.0728798
0.0519478
0.0518922
0.0519833
0.0519291
0.072934
0.072963
0.072978
0.0730077
0.0519904
0.0518667
0.0520297
0.0519066
0.0728342
0.0728043
0.0729063
0.0728765
0.0517643
0.0518867
0.0518218
0.0519437
0.0727104
0.0728113
0.0727812
0.0728809
0.0517909
0.0518475
0.0518461
0.0519016
0.0729098
0.072909
0.0729788
0.0729781
0.051908
0.0519076
0.0519615
0.0519611
0.072809
0.0727064
0.0728786
0.0727775
0.0518464
0.0517892
0.0519003
0.051844
0.0727982
0.0728267
0.0728717
0.0729005
0.051885
0.0517614
0.0519406
0.0518167
0.0726434
0.0726144
0.0727445
0.0727146
0.0516226
0.0517447
0.0516963
0.0518188
0.0725251
0.0726283
0.0726231
0.072725
0.0516513
0.0517099
0.0517244
0.0517819
0.0727278
0.0727271
0.0728239
0.0728232
0.0517713
0.0517709
0.0518428
0.0518424
0.0726262
0.072522
0.0727229
0.0726195
0.0517087
0.0516492
0.0517807
0.0517225
0.072611
0.0726385
0.0727095
0.0727371
0.0517412
0.0516178
0.0518164
0.0516931
0.072404
0.0723749
0.0725282
0.0724997
0.0514455
0.0515674
0.0515373
0.051659
0.0722876
0.0723925
0.0724116
0.0725156
0.0514771
0.0515374
0.0515674
0.0516268
0.0724929
0.0724922
0.0726154
0.0726147
0.0515997
0.0515993
0.0516886
0.0516882
0.0723904
0.0722839
0.0725135
0.0724082
0.0515363
0.0514754
0.0516256
0.0515655
0.0723691
0.0723969
0.0724954
0.0725232
0.0515657
0.0514428
0.0516562
0.0515327
0.0721092
0.0720804
0.0722624
0.0722329
0.0512359
0.0513565
0.0513437
0.0514652
0.071997
0.072104
0.0721476
0.0722535
0.0512676
0.0513297
0.0513757
0.0514368
0.0722053
0.0722046
0.0723542
0.0723536
0.051393
0.0513926
0.0514995
0.0514991
0.0721019
0.0719938
0.0722514
0.0721442
0.0513285
0.0512653
0.0514356
0.0513737
0.072077
0.0721041
0.0722279
0.072255
0.0513525
0.0512305
0.0514625
0.0513403
0.0717648
0.0717359
0.0719416
0.0719133
0.0509885
0.0511087
0.0511159
0.0512359
0.071654
0.0717627
0.0718309
0.0719386
0.0510224
0.0510863
0.0511485
0.0512113
0.071865
0.0718643
0.0720404
0.0720397
0.0511507
0.0511503
0.0512751
0.0512747
0.0717606
0.0716503
0.0719366
0.0718275
0.0510851
0.0510206
0.0512101
0.0511464
0.07173
0.0717577
0.071909
0.0719366
0.0511071
0.0509862
0.0512328
0.0511112
0.0713642
0.0713354
0.0715706
0.0715411
0.0507078
0.0508268
0.0508512
0.050971
0.0712568
0.0713674
0.071461
0.0715706
0.0507408
0.0508062
0.0508852
0.0509498
0.0714707
0.07147
0.0716734
0.0716727
0.0508717
0.0508713
0.0510147
0.0510143
0.0713653
0.0712536
0.0715685
0.0714576
0.0508049
0.0507383
0.0509485
0.0508831
0.0713317
0.071359
0.0715361
0.0715632
0.0508223
0.0507029
0.0509684
0.0508485
0.070911
0.070882
0.0711427
0.0711144
0.0503885
0.0505057
0.0505524
0.0506702
0.0708043
0.0709163
0.0710365
0.0711477
0.0504208
0.0504874
0.0505848
0.0506508
0.0710203
0.0710196
0.0712513
0.0712506
0.0505538
0.0505533
0.0507167
0.0507162
0.0709139
0.0708
0.0711455
0.0710327
0.0504858
0.0504177
0.0506493
0.050582
0.0708748
0.070902
0.0711093
0.071137
0.0505005
0.0503816
0.0506655
0.0505463
0.0703964
0.070368
0.0706606
0.0706312
0.0500272
0.0501438
0.0502118
0.0503287
0.0702935
0.0704068
0.0705551
0.0706677
0.0500603
0.0501278
0.0502447
0.0503117
0.0705115
0.0705108
0.0707721
0.0707713
0.050195
0.0501945
0.0503785
0.0503779
0.0704045
0.0702898
0.0706653
0.0705511
0.0501262
0.0500573
0.05031
0.0502415
0.0703639
0.0703905
0.070625
0.0706515
0.0501392
0.0500208
0.0503238
0.0502051
0.0698242
0.0697965
0.0701159
0.0700885
0.0496227
0.0497401
0.0498289
0.0499458
0.0697224
0.0698366
0.0700145
0.0701283
0.0496581
0.0497262
0.0498635
0.0499313
0.0699419
0.0699411
0.0702332
0.0702325
0.049794
0.0497934
0.0499988
0.0499983
0.0698343
0.0697185
0.070126
0.0700108
0.0497248
0.0496559
0.0499298
0.049861
0.0697905
0.0698172
0.0700839
0.0701109
0.0497384
0.0496206
0.0499426
0.0498244
0.0691861
0.0691592
0.0695128
0.0694849
0.0491775
0.0492947
0.0494047
0.0495221
0.0690872
0.0692024
0.0694119
0.0695265
0.0492119
0.0492804
0.0494397
0.049508
0.0693082
0.0693075
0.069632
0.0696312
0.0493486
0.0493481
0.0495759
0.0495754
0.0692002
0.0690838
0.0695242
0.0694081
0.0492789
0.0492093
0.0495065
0.0494373
0.0691551
0.0691802
0.0694794
0.069505
0.0492902
0.0491722
0.0495192
0.0494017
0.0684822
0.0684567
0.0688409
0.0688151
0.0486837
0.0488012
0.048936
0.049053
0.068385
0.0685009
0.0687436
0.0688591
0.0487192
0.048788
0.0489706
0.0490392
0.0686073
0.0686066
0.0689651
0.0689644
0.0488568
0.0488563
0.0491076
0.0491071
0.0684989
0.0683813
0.068857
0.0687401
0.0487867
0.0487171
0.0490378
0.0489682
0.068451
0.0684755
0.0688107
0.0688357
0.0487985
0.0486793
0.049049
0.0489303
0.067707
0.0676826
0.0681027
0.0680775
0.0481415
0.0482601
0.0484172
0.0485356
0.067612
0.0677286
0.0680065
0.0681227
0.0481771
0.0482468
0.0484535
0.0485227
0.0678354
0.0678347
0.0682292
0.0682285
0.0483161
0.0483157
0.0485916
0.0485912
0.0677266
0.0676087
0.0681206
0.068003
0.0482455
0.0481747
0.0485214
0.0484514
0.0676782
0.0677005
0.0680721
0.0680953
0.0482562
0.0481366
0.0485328
0.0484137
0.0668569
0.0668345
0.0672901
0.0672669
0.0475474
0.0476674
0.0478502
0.0479693
0.0667643
0.0668816
0.0671966
0.0673135
0.0475838
0.0476543
0.0478861
0.0479561
0.0669889
0.0669883
0.0674205
0.0674199
0.0477243
0.0477239
0.0480257
0.0480253
0.0668797
0.0667611
0.0673115
0.0671934
0.0476532
0.0475819
0.0479549
0.0478839
0.0668305
0.0668517
0.0672627
0.0672844
0.0476647
0.0475433
0.0479656
0.0478449
0.0659294
0.0659088
0.0664018
0.0663803
0.0469018
0.047023
0.04723
0.0473508
0.0658387
0.0659563
0.0663103
0.0664278
0.0469378
0.0470086
0.0472666
0.0473373
0.0660639
0.0660633
0.0665353
0.0665346
0.047079
0.0470786
0.0474074
0.0474071
0.0659545
0.0658357
0.066426
0.0663073
0.0470075
0.046936
0.0473362
0.0472648
0.0659048
0.0659241
0.0663762
0.0663964
0.0470206
0.0468985
0.0473483
0.0472267
0.0649217
0.0649027
0.0654346
0.0654149
0.0462027
0.0463245
0.0465582
0.0466797
0.0648316
0.0649486
0.0653445
0.0654619
0.0462371
0.0463074
0.0465935
0.0466642
0.065056
0.0650555
0.0655695
0.0655689
0.0463778
0.0463775
0.0467346
0.0467343
0.064947
0.0648288
0.0654602
0.0653417
0.0463065
0.0462354
0.0466632
0.0465918
0.0648989
0.0649166
0.0654109
0.0654293
0.0463222
0.0461994
0.0466772
0.0465548
0.0638286
0.0638105
0.064385
0.0643666
0.0454469
0.0455691
0.0458311
0.0459532
0.0637372
0.0638527
0.0642947
0.064411
0.0454784
0.0455476
0.0458644
0.0459342
0.0639593
0.0639588
0.064518
0.0645175
0.0456176
0.0456173
0.0460044
0.0460041
0.0638511
0.0637346
0.0644094
0.064292
0.0455467
0.0454769
0.0459332
0.0458628
0.0638068
0.0638238
0.0643628
0.06438
0.045567
0.0454439
0.045951
0.0458279
0.0626426
0.062625
0.0632466
0.0632288
0.0446308
0.0447531
0.0450458
0.0451681
0.0625479
0.0626607
0.0631539
0.0632681
0.0446577
0.0447247
0.0450753
0.0451434
0.0627661
0.0627656
0.0633742
0.0633737
0.0447941
0.0447938
0.0452132
0.0452129
0.0626592
0.0625454
0.0632666
0.0631514
0.0447239
0.0446562
0.0451426
0.0450738
0.0626215
0.0626379
0.0632253
0.0632418
0.044751
0.0446278
0.045166
0.0450427
0.061354
0.061336
0.0620106
0.0619929
0.0437485
0.0438701
0.0441973
0.0443194
0.0612536
0.061363
0.0619135
0.0620246
0.0437689
0.0438332
0.0442213
0.0442871
0.0614668
0.0614663
0.0621293
0.0621288
0.0439015
0.0439013
0.0443559
0.0443556
0.0613615
0.0612512
0.0620232
0.0619111
0.0438324
0.0437675
0.0442862
0.0442199
0.0613326
0.0613494
0.0619895
0.0620059
0.0438681
0.0437457
0.0443174
0.0441944
0.0599516
0.059932
0.0606666
0.060648
0.0427936
0.0429134
0.0432797
0.0434005