/*--------------------------------*- C++ -*----------------------------------*\
  =========                 |
  \\      /  F ield         | OpenFOAM: The Open Source CFD Toolbox
   \\    /   O peration     | Website:  https://openfoam.org
    \\  /    A nd           | Version:  9
     \\/     M anipulation  |
\*---------------------------------------------------------------------------*/
FoamFile
{
    format      ascii;
    class       volScalarField;
    location    "4.4";
    object      p;
}
// * * * * * * * * * * * * * * * * * * * * * * * * * * * * * * * * * * * * * //

dimensions      [0 2 -2 0 0 0 0];

internalField   nonuniform List<scalar> 
36360
(
20.241
19.9944
20.2315
20.006
19.9933
20.185
20.016
20.1523
20.0811
20.0985
20.0872
20.1058
20.111
20.0954
20.099
20.0918
20.1005
20.1005
20.108
20.108
20.0937
20.0937
20.0915
20.0915
20.0985
20.0811
20.1058
20.0872
20.0954
20.111
20.0918
20.099
19.9944
20.241
20.006
20.2315
20.185
19.9933
20.1523
20.016
20.1159
20.0688
20.1613
20.0461
19.8964
20.2551
19.9422
20.2284
20.1117
20.1027
20.0984
20.0994
20.1459
20.1037
20.1298
20.0995
20.0971
20.0971
20.0977
20.0977
20.0953
20.0953
20.0947
20.0947
20.1027
20.1117
20.0994
20.0984
20.1037
20.1459
20.0995
20.1298
20.0688
20.1159
20.0461
20.1613
20.2551
19.8965
20.2284
19.9422
20.066
20.0833
20.0873
20.0789
19.8386
20.2783
19.8631
20.2702
20.1328
20.1132
20.1234
20.1078
20.1702
20.1145
20.1593
20.1089
20.1001
20.1001
20.0981
20.0981
20.0988
20.0988
20.0967
20.0967
20.1132
20.1328
20.1078
20.1234
20.1145
20.1702
20.1089
20.1593
20.0833
20.066
20.0789
20.0873
20.2783
19.8386
20.2702
19.8632
20.0374
20.0841
20.0498
20.0845
19.8057
20.2837
19.82
20.2822
20.145
20.1231
20.1398
20.1184
20.1843
20.1252
20.1783
20.12
20.1057
20.1057
20.1027
20.1027
20.1043
20.1043
20.1014
20.1014
20.1231
20.145
20.1184
20.1398
20.1252
20.1842
20.12
20.1783
20.0841
20.0374
20.0845
20.0498
20.2837
19.8058
20.2822
19.82
20.0199
20.081
20.0277
20.0828
19.7857
20.2832
19.7946
20.2838
20.1513
20.131
20.1488
20.1273
20.1914
20.1337
20.1885
20.1298
20.112
20.112
20.1089
20.1089
20.1104
20.1104
20.1073
20.1073
20.131
20.1513
20.1273
20.1487
20.1337
20.1914
20.1298
20.1884
20.081
20.0199
20.0828
20.0277
20.2832
19.7858
20.2838
19.7946
20.0084
20.0772
20.0136
20.0792
19.7728
20.2809
19.7786
20.2821
20.1543
20.1368
20.1531
20.1341
20.1951
20.1399
20.1935
20.1371
20.1177
20.1177
20.115
20.115
20.1161
20.1161
20.1134
20.1134
20.1367
20.1543
20.1341
20.1531
20.1399
20.1951
20.1371
20.1935
20.0772
20.0084
20.0792
20.0136
20.2809
19.7728
20.2821
19.7786
20.0004
20.0737
20.004
20.0754
19.7639
20.2783
19.768
20.2796
20.1556
20.1408
20.1551
20.139
20.1969
20.1441
20.1961
20.1422
20.1224
20.1224
20.1202
20.1202
20.1209
20.1209
20.1186
20.1186
20.1407
20.1555
20.1389
20.1551
20.1441
20.1969
20.1422
20.1961
20.0737
20.0004
20.0754
20.0041
20.2783
19.764
20.2796
19.768
19.9945
20.0705
19.9972
20.0721
19.7576
20.2758
19.7605
20.277
20.1558
20.1434
20.1558
20.1422
20.1976
20.1469
20.1973
20.1456
20.1258
20.1258
20.1242
20.1242
20.1246
20.1246
20.1229
20.1229
20.1434
20.1558
20.1422
20.1558
20.1469
20.1976
20.1456
20.1973
20.0705
19.9945
20.0721
19.9972
20.2757
19.7578
20.277
19.7606
19.99
20.0678
19.9921
20.0691
19.7531
20.2733
19.7553
20.2745
20.1555
20.1449
20.1557
20.1443
20.1976
20.1486
20.1976
20.1479
20.1283
20.1283
20.1272
20.1272
20.1272
20.1272
20.126
20.126
20.145
20.1555
20.1443
20.1557
20.1487
20.1977
20.1479
20.1977
20.0679
19.9901
20.0692
19.9921
20.2736
19.7525
20.2746
19.755
19.9864
20.0655
19.9882
20.0666
19.7491
20.2713
19.7506
20.2724
20.1548
20.1457
20.1552
20.1454
20.1973
20.1496
20.1975
20.1492
20.1298
20.1297
20.1291
20.1291
20.1289
20.1289
20.1282
20.1282
20.1457
20.1547
20.1454
20.1552
20.1495
20.1971
20.1492
20.1975
20.0654
19.9865
20.0666
19.9881
20.271
19.7501
20.2722
19.7513
19.9835
20.0632
19.9848
20.0643
19.7475
20.2687
19.7484
20.2699
20.1536
20.1457
20.1542
20.1458
20.1963
20.1497
20.1968
20.1497
20.1304
20.1304
20.1302
20.1302
20.1298
20.1298
20.1294
20.1294
20.1457
20.1536
20.1458
20.1542
20.1498
20.1964
20.1497
20.1968
20.0632
19.9834
20.0643
19.9849
20.2688
19.747
20.2699
19.7485
19.9809
20.0611
19.9821
20.0622
19.7451
20.2666
19.746
20.2678
20.1522
20.1452
20.153
20.1455
20.1952
20.1494
20.1958
20.1497
20.1303
20.1303
20.1305
20.1305
20.1299
20.1299
20.1299
20.13
20.1452
20.1522
20.1455
20.153
20.1494
20.1951
20.1497
20.1959
20.0611
19.9807
20.0622
19.982
20.2664
19.7453
20.2678
19.7456
19.9785
20.0589
19.9797
20.06
19.7437
20.2641
19.7443
20.2654
20.1504
20.1441
20.1514
20.1447
20.1935
20.1484
20.1944
20.149
20.1296
20.1296
20.13
20.13
20.1294
20.1294
20.1297
20.1297
20.1441
20.1505
20.1447
20.1514
20.1485
20.1937
20.149
20.1944
20.059
19.9784
20.0601
19.9795
20.2644
19.7428
20.2653
19.7443
19.976
20.0569
19.9772
20.0579
19.7425
20.2613
19.7433
20.2627
20.1485
20.1426
20.1495
20.1434
20.1915
20.1469
20.1926
20.1477
20.1283
20.1283
20.129
20.129
20.1283
20.1283
20.1289
20.1289
20.1425
20.1485
20.1434
20.1495
20.1469
20.1915
20.1478
20.1926
20.0567
19.9763
20.0579
19.9773
20.2614
19.7422
20.2629
19.7426
19.9739
20.0545
19.9749
20.0558
19.7402
20.259
19.7413
20.2602
20.1463
20.1405
20.1475
20.1416
20.1894
20.145
20.1905
20.1461
20.1265
20.1265
20.1275
20.1275
20.1267
20.1266
20.1276
20.1276
20.1405
20.1463
20.1416
20.1474
20.145
20.1893
20.146
20.1905
20.0546
19.9737
20.0557
19.975
20.2587
19.7406
20.2601
19.7413
19.9714
20.052
19.9726
20.0533
19.74
20.2555
19.7401
20.2573
20.1436
20.138
20.145
20.1393
20.1864
20.1425
20.1879
20.1438
20.1241
20.1241
20.1254
20.1254
20.1244
20.1244
20.1256
20.1256
20.1381
20.1437
20.1394
20.145
20.1425
20.1864
20.1438
20.1879
20.0522
19.9714
20.0534
19.9726
20.2556
19.7398
20.2572
19.7403
19.9691
20.0495
19.9703
20.0508
19.7386
20.2522
19.7395
20.2538
20.1408
20.1352
20.1422
20.1366
20.1832
20.1395
20.1848
20.1411
20.1214
20.1214
20.1228
20.1228
20.1216
20.1216
20.123
20.123
20.1352
20.1408
20.1367
20.1423
20.1396
20.1832
20.1411
20.1849
20.0495
19.9689
20.0509
19.9702
20.2521
19.7388
20.254
19.7391
19.9662
20.047
19.9677
20.0483
19.7368
20.2483
19.7374
20.2504
20.1378
20.132
20.1393
20.1336
20.1797
20.1362
20.1815
20.1379
20.1182
20.1182
20.1198
20.1198
20.1183
20.1183
20.12
20.12
20.132
20.1377
20.1336
20.1393
20.1362
20.1797
20.1379
20.1815
20.0468
19.9664
20.0482
19.9676
20.2484
19.7372
20.2503
19.7381
19.9637
20.0442
19.9649
20.0456
19.7341
20.2448
19.7355
20.2465
20.1345
20.1285
20.1362
20.1303
20.176
20.1325
20.1779
20.1344
20.1147
20.1147
20.1165
20.1165
20.1146
20.1146
20.1165
20.1165
20.1285
20.1345
20.1302
20.1361
20.1324
20.1759
20.1344
20.1778
20.0442
19.9636
20.0455
19.965
20.2445
19.7349
20.2463
19.7363
19.961
20.041
19.9623
20.0426
19.7337
20.2399
19.734
20.2423
20.1309
20.1246
20.1327
20.1265
20.1714
20.1281
20.1737
20.1304
20.1109
20.1109
20.1128
20.1128
20.1104
20.1104
20.1126
20.1126
20.1246
20.131
20.1266
20.1328
20.1282
20.1715
20.1304
20.1737
20.0412
19.961
20.0428
19.9622
20.2403
19.7331
20.2425
19.7339
19.958
20.0382
19.9595
20.0396
19.7319
20.2353
19.7329
20.2376
20.1275
20.1205
20.1292
20.1226
20.1667
20.1235
20.1691
20.1259
20.1068
20.1068
20.1088
20.1088
20.1058
20.1058
20.1081
20.1081
20.1205
20.1274
20.1226
20.1292
20.1235
20.1667
20.1259
20.1691
20.038
19.9581
20.0396
19.9595
20.2351
19.7326
20.2378
19.7328
19.9551
20.0352
19.9565
20.0368
19.7299
20.2306
19.7309
20.233
20.1238
20.1163
20.1257
20.1185
20.1618
20.1186
20.1643
20.1211
20.1025
20.1025
20.1047
20.1047
20.1009
20.1009
20.1033
20.1033
20.1162
20.1238
20.1184
20.1256
20.1186
20.1618
20.1211
20.1642
20.0352
19.9554
20.0366
19.9567
20.2307
19.73
20.2329
19.7314
19.9527
20.0321
19.9539
20.0336
19.7289
20.2251
19.7296
20.2278
20.1201
20.1117
20.1219
20.114
20.1565
20.1134
20.1592
20.116
20.0981
20.0981
20.1003
20.1003
20.0958
20.0958
20.0984
20.0984
20.1117
20.1202
20.114
20.122
20.1133
20.1565
20.116
20.1592
20.0324
19.9525
20.0338
19.954
20.2251
19.7294
20.228
19.7294
19.95
20.0296
19.9513
20.0309
19.7263
20.2205
19.7272
20.223
20.1167
20.1074
20.1184
20.1095
20.1514
20.1081
20.154
20.1108
20.0937
20.0937
20.0959
20.0959
20.0905
20.0905
20.0931
20.0931
20.1074
20.1167
20.1095
20.1184
20.108
20.1512
20.1107
20.1538
20.0296
19.95
20.031
19.9511
20.2202
19.7279
20.2224
19.7291
19.9478
20.0272
19.9488
20.0283
19.7252
20.2153
19.7259
20.2178
20.1135
20.1032
20.115
20.1053
20.1461
20.1028
20.1487
20.1054
20.0895
20.0895
20.0915
20.0915
20.0852
20.0851
20.0878
20.0878
20.1032
20.1135
20.1052
20.115
20.1027
20.1461
20.1054
20.1487
20.0271
19.9479
20.0282
19.949
20.2152
19.726
20.2178
19.7268
19.946
20.025
19.9468
20.026
19.7252
20.2101
19.7254
20.2126
20.1105
20.0993
20.112
20.1012
20.1409
20.0975
20.1434
20.1001
20.0855
20.0855
20.0874
20.0874
20.0799
20.0799
20.0825
20.0825
20.0993
20.1106
20.1012
20.1121
20.0975
20.1409
20.1001
20.1435
20.0251
19.946
20.0261
19.9469
20.2102
19.7252
20.2128
19.7253
19.9448
20.0234
19.9453
20.0242
19.7251
20.2055
19.7248
20.2079
20.1071
20.0957
20.1088
20.0974
20.1358
20.0924
20.1384
20.0949
20.0819
20.0819
20.0836
20.0836
20.0749
20.0749
20.0774
20.0774
20.0957
20.1071
20.0974
20.1089
20.0923
20.1358
20.0949
20.1383
20.0234
19.9448
20.0242
19.9452
20.2055
19.725
20.2076
19.7254
19.9441
20.0225
19.9443
20.0228
19.7254
20.2012
19.7252
20.2032
20.1044
20.0926
20.1057
20.0941
20.131
20.0876
20.1334
20.0899
20.0787
20.0788
20.0802
20.0802
20.0702
20.0702
20.0725
20.0725
20.0926
20.1044
20.0941
20.1057
20.0876
20.1311
20.0899
20.1334
20.0225
19.9442
20.0229
19.9444
20.2013
19.7252
20.2034
19.7248
19.9444
20.0223
19.9442
20.0223
19.7266
20.1974
19.7259
20.1993
20.1024
20.0901
20.1033
20.0913
20.1268
20.0833
20.1289
20.0854
20.0763
20.0763
20.0774
20.0774
20.0661
20.0661
20.0681
20.0681
20.0901
20.1024
20.0913
20.1033
20.0833
20.1268
20.0854
20.1289
20.0223
19.9444
20.0223
19.9442
20.1975
19.7266
20.1993
19.7258
19.9456
20.0229
19.9449
20.0225
19.7289
20.1942
19.7276
20.1957
20.1011
20.0884
20.1017
20.0892
20.1231
20.0796
20.1249
20.0814
20.0746
20.0746
20.0753
20.0753
20.0627
20.0627
20.0643
20.0643
20.0884
20.1011
20.0892
20.1017
20.0796
20.1231
20.0814
20.1249
20.0229
19.9456
20.0225
19.9449
20.1942
19.7289
20.1957
19.7276
19.9479
20.0244
19.9466
20.0236
19.7325
20.1917
19.7306
20.1928
20.1007
20.0874
20.1008
20.0878
20.1201
20.0767
20.1215
20.0781
20.0738
20.0738
20.0741
20.0741
20.0601
20.0601
20.0613
20.0613
20.0874
20.1007
20.0878
20.1008
20.0767
20.1201
20.0781
20.1215
20.0244
19.9479
20.0236
19.9466
20.1917
19.7325
20.1928
19.7306
19.9513
20.0269
19.9494
20.0256
19.7375
20.1899
19.7349
20.1907
20.101
20.0873
20.1008
20.0873
20.1178
20.0747
20.1188
20.0756
20.074
20.074
20.0737
20.0737
20.0585
20.0585
20.0592
20.0592
20.0873
20.101
20.0873
20.1008
20.0747
20.1178
20.0756
20.1188
20.0269
19.9513
20.0256
19.9494
20.1899
19.7375
20.1907
19.7349
19.956
20.0303
19.9534
20.0285
19.7441
20.189
19.7406
20.1894
20.1022
20.0882
20.1015
20.0876
20.1163
20.0736
20.117
20.074
20.0752
20.0752
20.0745
20.0745
20.0581
20.0581
20.0582
20.0582
20.0882
20.1022
20.0876
20.1015
20.0736
20.1163
20.074
20.1169
20.0303
19.956
20.0285
19.9534
20.189
19.7441
20.1894
19.7406
19.9621
20.0346
19.9588
20.0324
19.7524
20.1889
19.748
20.1888
20.1041
20.09
20.1031
20.089
20.1157
20.0736
20.1159
20.0735
20.0776
20.0776
20.0763
20.0763
20.0589
20.0589
20.0584
20.0584
20.09
20.1041
20.089
20.1031
20.0736
20.1157
20.0735
20.1159
20.0346
19.9621
20.0324
19.9588
20.1889
19.7524
20.1888
19.748
19.9697
20.0397
19.9657
20.0371
19.7627
20.1895
19.7573
20.1891
20.1068
20.0928
20.1054
20.0913
20.1158
20.0748
20.1157
20.0741
20.0811
20.0811
20.0792
20.0792
20.0611
20.0611
20.0598
20.0598
20.0928
20.1068
20.0913
20.1054
20.0748
20.1158
20.0741
20.1157
20.0397
19.9697
20.0371
19.9657
20.1895
19.7627
20.1891
19.7573
19.9788
20.0453
19.9741
20.0425
19.7755
20.1904
19.7688
20.1899
20.11
20.0965
20.1083
20.0945
20.1167
20.0772
20.1162
20.0759
20.0858
20.0858
20.0833
20.0833
20.0647
20.0647
20.0627
20.0627
20.0965
20.11
20.0945
20.1083
20.0772
20.1167
20.0759
20.1162
20.0453
19.9788
20.0425
19.9741
20.1904
19.7755
20.1899
19.7688
19.9893
20.0515
19.9839
20.0483
19.7914
20.1912
19.783
20.1909
20.1136
20.1011
20.1117
20.0987
20.1181
20.0808
20.1173
20.0789
20.0915
20.0915
20.0885
20.0885
20.0697
20.0697
20.067
20.067
20.1011
20.1136
20.0987
20.1117
20.0808
20.1181
20.0789
20.1173
20.0515
19.9893
20.0483
19.9839
20.1912
19.7914
20.1909
19.783
19.9989
20.0602
19.9946
20.0553
19.8116
20.1904
19.8009
20.1912
20.1176
20.1066
20.1155
20.1037
20.1198
20.0858
20.1189
20.0831
20.0985
20.0985
20.0949
20.0949
20.0761
20.0761
20.0727
20.0727
20.1066
20.1176
20.1037
20.1155
20.0857
20.1198
20.0831
20.1189
20.0602
19.9989
20.0553
19.9946
20.1904
19.8116
20.1912
19.8009
20.0069
20.07
20.001
20.067
19.837
20.1858
19.8235
20.1888
20.1235
20.1136
20.1203
20.1099
20.1225
20.0922
20.121
20.0888
20.1065
20.1065
20.1023
20.1023
20.0839
20.0839
20.0799
20.0799
20.1136
20.1235
20.1099
20.1203
20.0922
20.1225
20.0888
20.121
20.07
20.0069
20.067
20.001
20.1857
19.837
20.1888
19.8235
20.4267
19.9437
20.3293
19.9774
20.3806
19.9301
20.3068
19.9661
19.9907
20.0613
20.0284
20.0805
20.0194
20.0796
20.046
20.0915
20.0941
20.0941
20.102
20.102
20.0989
20.0989
20.1035
20.1035
20.0613
19.9908
20.0805
20.0284
20.0796
20.0194
20.0915
20.046
19.9437
20.4267
19.9774
20.3292
19.9301
20.3805
19.9661
20.3068
20.2888
20.0372
20.3333
20.0144
20.2521
20.0133
20.2956
19.9917
20.0318
20.0649
20.017
20.0629
20.0554
20.0834
20.0418
20.081
20.0848
20.0848
20.0886
20.0886
20.0937
20.0937
20.0958
20.0958
20.0649
20.0318
20.0629
20.0171
20.0834
20.0554
20.081
20.0418
20.0372
20.2887
20.0144
20.3333
20.0133
20.252
19.9917
20.2956
20.2516
20.0423
20.2668
20.0425
20.2107
20.0209
20.2281
20.0197
20.0487
20.074
20.0419
20.0693
20.0736
20.0936
20.0657
20.0882
20.0865
20.0865
20.0848
20.0848
20.0958
20.0958
20.0941
20.0941
20.074
20.0487
20.0693
20.042
20.0936
20.0736
20.0882
20.0657
20.0424
20.2515
20.0425
20.2667
20.0209
20.2106
20.0197
20.228
20.2318
20.0375
20.2404
20.0402
20.1875
20.0177
20.1976
20.0198
20.0558
20.0822
20.0531
20.0783
20.083
20.103
20.0792
20.0986
20.0924
20.0924
20.0892
20.0892
20.1016
20.1016
20.0985
20.0985
20.0822
20.0558
20.0783
20.0531
20.103
20.083
20.0986
20.0792
20.0375
20.2318
20.0403
20.2403
20.0177
20.1875
20.0198
20.1976
20.2197
20.0319
20.2251
20.0346
20.1734
20.0127
20.1797
20.0151
20.0584
20.0882
20.0575
20.0854
20.0868
20.1102
20.0855
20.1069
20.0988
20.0988
20.0957
20.0957
20.1079
20.1079
20.1048
20.1048
20.0882
20.0584
20.0854
20.0575
20.1102
20.0868
20.1069
20.0855
20.0319
20.2197
20.0347
20.2251
20.0127
20.1734
20.0151
20.1797
20.2115
20.0268
20.2153
20.0292
20.1641
20.0081
20.1684
20.0104
20.0589
20.0925
20.0588
20.0905
20.0879
20.1153
20.0876
20.113
20.1044
20.1044
20.1018
20.1018
20.1136
20.1136
20.1109
20.1109
20.0925
20.0589
20.0905
20.0588
20.1153
20.0879
20.1129
20.0876
20.0268
20.2115
20.0292
20.2153
20.0081
20.1641
20.0104
20.1683
20.2056
20.0224
20.2084
20.0245
20.1575
20.004
20.1606
20.006
20.0586
20.0953
20.0588
20.094
20.0879
20.1188
20.088
20.1172
20.1087
20.1087
20.1067
20.1067
20.1182
20.1182
20.1161
20.1161
20.0953
20.0586
20.094
20.0588
20.1188
20.0879
20.1172
20.088
20.0224
20.2056
20.0245
20.2084
20.004
20.1575
20.006
20.1606
20.2011
20.0187
20.2032
20.0204
20.1525
20.0005
20.1548
20.0022
20.0578
20.097
20.0582
20.0963
20.0874
20.1211
20.0877
20.1201
20.1118
20.1118
20.1104
20.1104
20.1216
20.1216
20.12
20.12
20.097
20.0578
20.0963
20.0582
20.1211
20.0874
20.1201
20.0877
20.0186
20.2011
20.0204
20.2032
20.0005
20.1525
20.0021
20.1549
20.1974
20.0154
20.1992
20.017
20.1485
19.9974
20.1504
19.9989
20.0567
20.0979
20.0573
20.0976
20.0865
20.1224
20.087
20.1218
20.1138
20.1138
20.1129
20.1129
20.1239
20.1239
20.1229
20.1229
20.0979
20.0567
20.0976
20.0573
20.1224
20.0865
20.1218
20.087
20.0154
20.1975
20.0169
20.1992
19.9974
20.1486
19.9989
20.1505
20.1944
20.0124
20.1959
20.0138
20.1454
19.9946
20.147
19.9959
20.0554
20.0982
20.0561
20.0981
20.0854
20.1229
20.086
20.1228
20.1149
20.1149
20.1145
20.1145
20.1252
20.1252
20.1246
20.1246
20.0982
20.0554
20.0981
20.0561
20.1229
20.0854
20.1228
20.086
20.0124
20.1943
20.0138
20.1958
19.9947
20.1453
19.996
20.1469
20.1914
20.0097
20.1929
20.011
20.1425
19.9921
20.1439
19.9933
20.0539
20.0978
20.0547
20.0981
20.084
20.1228
20.0847
20.123
20.1152
20.1152
20.1151
20.1151
20.1257
20.1257
20.1255
20.1255
20.0978
20.0539
20.098
20.0547
20.1228
20.084
20.123
20.0847
20.0096
20.1916
20.011
20.1929
19.9919
20.1427
19.9933
20.1439
20.1889
20.0071
20.1901
20.0084
20.1401
19.9895
20.1413
19.9908
20.0522
20.097
20.0531
20.0975
20.0824
20.1222
20.0833
20.1226
20.1148
20.1148
20.1151
20.1151
20.1255
20.1255
20.1257
20.1257
20.097
20.0522
20.0974
20.053
20.1222
20.0824
20.1226
20.0832
20.007
20.189
20.0083
20.1903
19.9894
20.1402
19.9906
20.1415
20.1865
20.0044
20.1877
20.0057
20.138
19.9869
20.1391
19.9882
20.0503
20.0957
20.0513
20.0964
20.0805
20.121
20.0815
20.1217
20.1139
20.1139
20.1145
20.1144
20.1246
20.1246
20.1251
20.1251
20.0957
20.0503
20.0964
20.0512
20.121
20.0805
20.1217
20.0815
20.0043
20.1866
20.0056
20.1878
19.9869
20.138
19.9882
20.139
20.1842
20.0016
20.1853
20.003
20.1357
19.9844
20.1369
19.9856
20.0482
20.0941
20.0493
20.095
20.0785
20.1195
20.0796
20.1203
20.1125
20.1125
20.1133
20.1133
20.1233
20.1233
20.124
20.124
20.0941
20.0482
20.095
20.0493
20.1194
20.0785
20.1203
20.0795
20.0018
20.184
20.0031
20.1852
19.9843
20.1358
19.9856
20.137
20.1818
19.999
20.1831
20.0002
20.1335
19.9817
20.1346
19.9831
20.0459
20.0922
20.0471
20.0932
20.0762
20.1174
20.0774
20.1185
20.1107
20.1107
20.1117
20.1117
20.1214
20.1214
20.1224
20.1224
20.0921
20.0459
20.0932
20.0471
20.1175
20.0763
20.1185
20.0774
19.9988
20.1819
20.0003
20.183
19.9819
20.1334
19.9831
20.1347
20.1792
19.9962
20.1805
19.9976
20.1309
19.9794
20.1322
19.9805
20.0435
20.0899
20.0447
20.0911
20.0738
20.1151
20.075
20.1163
20.1086
20.1086
20.1097
20.1097
20.1191
20.1191
20.1203
20.1203
20.09
20.0436
20.0911
20.0447
20.1151
20.0738
20.1163
20.0751
19.9963
20.1791
19.9975
20.1806
19.9793
20.1308
19.9806
20.1321
20.1763
19.9937
20.1777
19.9949
20.1282
19.9767
20.1295
19.9781
20.0411
20.0875
20.0423
20.0888
20.0712
20.1124
20.0725
20.1138
20.1061
20.1061
20.1074
20.1074
20.1165
20.1165
20.1178
20.1179
20.0875
20.041
20.0888
20.0423
20.1124
20.0712
20.1138
20.0725
19.9934
20.1767
19.9948
20.1779
19.9767
20.1282
19.978
20.1296
20.174
19.9907
20.1752
19.9922
20.1256
19.974
20.127
19.9753
20.0385
20.0849
20.0398
20.0863
20.0684
20.1095
20.0698
20.111
20.1035
20.1035
20.1048
20.1048
20.1135
20.1135
20.115
20.115
20.085
20.0386
20.0863
20.0398
20.1095
20.0683
20.111
20.0698
19.9909
20.1737
19.9921
20.1752
19.9738
20.1258
19.9752
20.1271
20.1711
19.9882
20.1726
19.9894
20.1231
19.9711
20.1244
19.9726
20.036
20.0823
20.0372
20.0836
20.0654
20.1064
20.067
20.108
20.1007
20.1007
20.1021
20.1021
20.1104
20.1104
20.112
20.112
20.0822
20.0359
20.0836
20.0373
20.1064
20.0655
20.108
20.0669
19.9881
20.1712
19.9895
20.1724
19.9713
20.1229
19.9725
20.1243
20.1683
19.9857
20.1697
19.9869
20.1201
19.9686
20.1217
19.9698
20.0335
20.0795
20.0347
20.0809
20.0625
20.103
20.064
20.1047
20.0977
20.0978
20.0992
20.0992
20.1069
20.1069
20.1087
20.1087
20.0795
20.0336
20.0809
20.0347
20.103
20.0625
20.1047
20.0641
19.9859
20.1681
19.9869
20.1697
19.9686
20.1201
19.97
20.1214
20.1657
19.9834
20.167
19.9845
20.1172
19.966
20.1187
19.9673
20.0311
20.0768
20.0323
20.0782
20.0595
20.0994
20.061
20.1012
20.0949
20.0949
20.0963
20.0963
20.1034
20.1034
20.1052
20.1052
20.0768
20.0311
20.0782
20.0323
20.0995
20.0596
20.1013
20.0611
19.9833
20.1657
19.9846
20.1669
19.9662
20.117
19.9674
20.1186
20.1635
19.9811
20.1646
19.9821
20.1146
19.9635
20.1159
19.9648
20.0289
20.0742
20.03
20.0755
20.0566
20.096
20.058
20.0976
20.0921
20.0921
20.0934
20.0935
20.0999
20.0999
20.1017
20.1017
20.0743
20.029
20.0755
20.03
20.0961
20.0566
20.0976
20.0581
19.9814
20.163
19.9823
20.1643
19.9636
20.1146
19.9649
20.1158
20.1608
19.9796
20.1621
19.9803
20.112
19.9615
20.1133
19.9625
20.0271
20.0719
20.0279
20.0731
20.0538
20.0932
20.0552
20.0947
20.0894
20.0894
20.0907
20.0907
20.0964
20.0965
20.0982
20.0982
20.0719
20.027
20.0731
20.028
20.0932
20.0539
20.0947
20.0552
19.9793
20.1613
19.9803
20.1621
19.9617
20.1117
19.9626
20.1132
20.1594
19.978
20.1601
19.9787
20.1098
19.9596
20.111
19.9604
20.0254
20.07
20.0262
20.071
20.0511
20.0902
20.0524
20.0917
20.0871
20.0871
20.0882
20.0882
20.0932
20.0932
20.0948
20.0948
20.0701
20.0256
20.071
20.0262
20.0902
20.0511
20.0917
20.0525
19.9782
20.1591
19.9786
20.1602
19.9597
20.1097
19.9606
20.1106
20.1578
19.9773
20.1586
19.9776
20.1082
19.9581
20.1089
19.9588
20.0245
20.0685
20.0249
20.0692
20.0484
20.0875
20.0498
20.0889
20.0852
20.0852
20.0861
20.0861
20.0902
20.0902
20.0917
20.0917
20.0685
20.0245
20.0693
20.025
20.0876
20.0485
20.0889
20.0498
19.9772
20.158
19.9777
20.1584
19.9583
20.1079
19.9589
20.1088
20.1573
19.977
20.1575
19.9771
20.1066
19.9573
20.1073
19.9576
20.0245
20.0675
20.0243
20.068
20.0457
20.0852
20.047
20.0863
20.0837
20.0837
20.0844
20.0844
20.0877
20.0877
20.0889
20.0889
20.0676
20.0245
20.068
20.0243
20.0852
20.0457
20.0863
20.0471
19.9771
20.1571
19.977
20.1575
19.9573
20.1068
19.9577
20.1072
20.1569
19.9775
20.1571
19.9771
20.1063
19.9569
20.1064
19.957
20.0242
20.067
20.0242
20.0672
20.0461
20.0835
20.0457
20.0843
20.0827
20.0827
20.0831
20.0831
20.0855
20.0855
20.0865
20.0865
20.067
20.0242
20.0672
20.0242
20.0835
20.0462
20.0843
20.0458
19.9775
20.157
19.9772
20.157
19.9571
20.1059
19.9571
20.1063
20.1576
19.9786
20.1571
19.9779
20.106
19.9576
20.1061
19.9571
20.025
20.0671
20.0245
20.0669
20.0467
20.0824
20.0464
20.0829
20.0823
20.0823
20.0824
20.0824
20.0839
20.0839
20.0846
20.0846
20.0671
20.0251
20.0669
20.0245
20.0824
20.0467
20.0829
20.0464
19.9786
20.1575
19.9779
20.1572
19.9575
20.1061
19.9572
20.106
20.1589
19.9808
20.1581
19.9796
20.1066
19.959
20.1062
19.9582
20.0267
20.0679
20.0258
20.0674
20.0476
20.0819
20.0471
20.0821
20.0827
20.0827
20.0824
20.0824
20.0831
20.0831
20.0834
20.0834
20.0679
20.0267
20.0674
20.0258
20.0819
20.0476
20.0821
20.0471
19.9808
20.1588
19.9796
20.1581
19.9591
20.1065
19.9582
20.1062
20.1608
19.9841
20.1598
19.9822
20.108
19.9612
20.1072
19.96
20.0292
20.0695
20.0278
20.0686
20.0491
20.0822
20.0482
20.082
20.0839
20.0839
20.0832
20.0832
20.0831
20.0831
20.083
20.083
20.0696
20.0292
20.0687
20.0279
20.0822
20.0491
20.082
20.0483
19.9841
20.1608
19.9822
20.1598
19.9612
20.1079
19.96
20.1071
20.1636
19.989
20.1621
19.9863
20.1102
19.9638
20.109
19.9624
20.0326
20.072
20.0308
20.0707
20.0513
20.0833
20.0501
20.0826
20.0859
20.0859
20.0848
20.0848
20.0839
20.0839
20.0834
20.0834
20.072
20.0326
20.0707
20.0308
20.0833
20.0513
20.0827
20.0501
19.989
20.1635
19.9863
20.1621
19.9637
20.1102
19.9624
20.109
20.1669
19.9924
20.1652
19.9905
20.1134
19.9689
20.1118
19.9662
20.0365
20.0752
20.0344
20.0735
20.0544
20.0852
20.0528
20.0841
20.0886
20.0886
20.0872
20.0872
20.0857
20.0857
20.0847
20.0847
20.0752
20.0365
20.0735
20.0344
20.0852
20.0544
20.0841
20.0528
19.9924
20.1669
19.9905
20.1652
19.9689
20.1134
19.9662
20.1117
20.171
19.9972
20.1689
19.9946
20.1176
19.9745
20.1154
19.9716
20.0413
20.0791
20.0388
20.0771
20.0582
20.0879
20.0562
20.0865
20.0922
20.0922
20.0903
20.0903
20.0884
20.0884
20.0869
20.0869
20.0791
20.0413
20.0771
20.0388
20.0879
20.0582
20.0865
20.0562
19.9972
20.171
19.9946
20.1689
19.9745
20.1175
19.9716
20.1154
20.1756
20.003
20.1733
20
20.1226
19.9807
20.12
19.9775
20.0467
20.0838
20.0439
20.0814
20.0627
20.0915
20.0604
20.0896
20.0965
20.0965
20.0943
20.0943
20.092
20.092
20.09
20.09
20.0838
20.0467
20.0814
20.0439
20.0915
20.0627
20.0896
20.0604
20.003
20.1755
20
20.1732
19.9807
20.1225
19.9775
20.12
20.1803
20.0095
20.1779
20.0062
20.1283
19.9878
20.1254
19.9841
20.0526
20.0889
20.0496
20.0863
20.0678
20.0957
20.0652
20.0935
20.1015
20.1015
20.099
20.099
20.0964
20.0964
20.0941
20.0941
20.0889
20.0526
20.0863
20.0496
20.0957
20.0678
20.0935
20.0652
20.0095
20.1803
20.0062
20.1779
19.9878
20.1283
19.9841
20.1254
20.1845
20.0168
20.1825
20.013
20.1344
19.9957
20.1313
19.9916
20.0591
20.0945
20.0558
20.0917
20.0734
20.1006
20.0706
20.0981
20.1071
20.1071
20.1042
20.1042
20.1017
20.1017
20.099
20.099
20.0945
20.0591
20.0917
20.0558
20.1006
20.0734
20.0981
20.0706
20.0168
20.1845
20.013
20.1825
19.9957
20.1344
19.9916
20.1313
20.1869
20.0255
20.1861
20.0209
20.14
20.0051
20.1374
20.0002
20.066
20.1004
20.0625
20.0975
20.0794
20.106
20.0764
20.1032
20.1132
20.1132
20.1101
20.1101
20.1078
20.1078
20.1047
20.1047
20.1004
20.066
20.0975
20.0625
20.106
20.0794
20.1032
20.0764
20.0255
20.1868
20.0208
20.186
20.0051
20.14
20.0002
20.1374
20.1808
20.0408
20.1859
20.0315
20.1403
20.0179
20.1416
20.0103
20.0734
20.1065
20.0696
20.1034
20.0857
20.1119
20.0824
20.1088
20.1199
20.1199
20.1164
20.1164
20.1146
20.1146
20.1111
20.1111
20.1065
20.0734
20.1034
20.0696
20.1119
20.0857
20.1088
20.0824
20.0407
20.1808
20.0315
20.1858
20.0179
20.1403
20.0103
20.1416
20.1983
20.035
20.1747
20.0515
20.1565
20.0159
20.1377
20.0268
20.076
20.1137
20.0769
20.1099
20.0901
20.1191
20.0891
20.1153
20.1273
20.1273
20.1235
20.1235
20.1223
20.1223
20.1184
20.1184
20.1137
20.076
20.1099
20.0769
20.1191
20.0901
20.1153
20.0891
20.035
20.1983
20.0515
20.1747
20.0159
20.1565
20.0268
20.1377
20.4442
19.9846
20.3362
20.006
20.4395
19.9667
20.3347
19.9937
19.9747
20.0378
20.0185
20.0663
19.9785
20.0472
20.0207
20.072
20.0773
20.0773
20.093
20.093
20.0857
20.0857
20.0978
20.0978
20.0378
19.9747
20.0663
20.0185
20.0472
19.9785
20.072
20.0207
19.9846
20.4441
20.006
20.3362
19.9667
20.4394
19.9937
20.3346
20.2818
20.0951
20.3319
20.0696
20.289
20.0701
20.3361
20.0453
20.0293
20.0428
20.01
20.0406
20.0262
20.0512
20.0098
20.0492
20.0617
20.0617
20.0683
20.0683
20.0729
20.0729
20.0783
20.0783
20.0428
20.0294
20.0406
20.01
20.0512
20.0262
20.0492
20.0098
20.0951
20.2817
20.0696
20.3319
20.0701
20.2889
20.0453
20.3361
20.2453
20.0997
20.2595
20.1003
20.2529
20.0745
20.2672
20.0753
20.0474
20.0513
20.0409
20.047
20.0435
20.06
20.0368
20.0555
20.0617
20.0617
20.0604
20.0604
20.0737
20.0737
20.0721
20.0721
20.0514
20.0474
20.047
20.0409
20.06
20.0435
20.0555
20.0368
20.0996
20.2453
20.1003
20.2595
20.0745
20.2529
20.0753
20.2672
20.2277
20.0943
20.2353
20.0972
20.2347
20.0691
20.2425
20.072
20.0528
20.0584
20.051
20.0552
20.0498
20.0673
20.0475
20.0639
20.0672
20.0672
20.0642
20.0642
20.0795
20.0795
20.0763
20.0763
20.0584
20.0528
20.0552
20.051
20.0673
20.0498
20.0639
20.0475
20.0943
20.2277
20.0972
20.2353
20.0691
20.2346
20.072
20.2425
20.2171
20.0886
20.2219
20.0914
20.2236
20.0634
20.2285
20.0662
20.0541
20.0633
20.0537
20.0611
20.0515
20.0725
20.051
20.0701
20.0732
20.0732
20.0703
20.0703
20.0857
20.0857
20.0826
20.0826
20.0633
20.0541
20.0611
20.0537
20.0725
20.0515
20.0701
20.051
20.0886
20.2171
20.0914
20.2219
20.0634
20.2235
20.0662
20.2285
20.2098
20.0837
20.2132
20.086
20.216
20.0584
20.2195
20.0608
20.0541
20.0664
20.0542
20.0651
20.0517
20.0761
20.0517
20.0745
20.078
20.078
20.0758
20.0758
20.0909
20.0909
20.0884
20.0884
20.0664
20.0541
20.0651
20.0542
20.0761
20.0517
20.0745
20.0517
20.0837
20.2098
20.086
20.2132
20.0584
20.216
20.0608
20.2195
20.2045
20.0796
20.207
20.0815
20.2104
20.0542
20.213
20.0562
20.0535
20.0683
20.0539
20.0675
20.0511
20.0784
20.0515
20.0774
20.0816
20.0816
20.0799
20.0799
20.0948
20.0948
20.093
20.093
20.0683
20.0535
20.0675
20.0539
20.0784
20.0511
20.0774
20.0515
20.0796
20.2045
20.0815
20.207
20.0542
20.2104
20.0562
20.213
20.2003
20.076
20.2023
20.0777
20.2061
20.0505
20.2082
20.0523
20.0526
20.0694
20.0531
20.069
20.0502
20.0797
20.0507
20.0792
20.084
20.084
20.0829
20.0829
20.0975
20.0975
20.0963
20.0963
20.0694
20.0526
20.069
20.0531
20.0797
20.0502
20.0792
20.0507
20.076
20.2003
20.0777
20.2023
20.0505
20.2061
20.0523
20.2082
20.1968
20.0729
20.1985
20.0744
20.2026
20.0473
20.2043
20.0489
20.0514
20.0698
20.052
20.0697
20.049
20.0803
20.0496
20.0801
20.0854
20.0854
20.0848
20.0848
20.0992
20.0992
20.0985
20.0985
20.0698
20.0514
20.0697
20.052
20.0803
20.049
20.0801
20.0496
20.0729
20.1968
20.0744
20.1985
20.0473
20.2026
20.0489
20.2043
20.1938
20.07
20.1953
20.0714
20.1996
20.0444
20.2011
20.0458
20.05
20.0696
20.0507
20.0697
20.0476
20.0803
20.0483
20.0804
20.086
20.086
20.0858
20.0858
20.1001
20.1001
20.0998
20.0998
20.0696
20.05
20.0697
20.0507
20.0803
20.0476
20.0804
20.0483
20.07
20.1938
20.0714
20.1953
20.0444
20.1996
20.0458
20.2011
20.1911
20.0673
20.1924
20.0686
20.1968
20.0417
20.1982
20.043
20.0484
20.0689
20.0492
20.0693
20.046
20.0798
20.0468
20.0801
20.086
20.086
20.0861
20.0861
20.1002
20.1002
20.1002
20.1002
20.0689
20.0484
20.0693
20.0492
20.0798
20.046
20.0801
20.0468
20.0673
20.1911
20.0686
20.1924
20.0417
20.1968
20.043
20.1982
20.1885
20.0646
20.1898
20.0659
20.1942
20.039
20.1955
20.0403
20.0467
20.0679
20.0476
20.0685
20.0442
20.0789
20.0451
20.0794
20.0854
20.0854
20.0858
20.0857
20.0997
20.0997
20.1
20.1
20.0679
20.0467
20.0685
20.0476
20.0789
20.0442
20.0794
20.0451
20.0646
20.1886
20.0659
20.1898
20.039
20.1942
20.0403
20.1955
20.1861
20.062
20.1873
20.0633
20.1917
20.0364
20.193
20.0377
20.0448
20.0665
20.0457
20.0672
20.0423
20.0776
20.0432
20.0783
20.0844
20.0844
20.085
20.085
20.0988
20.0988
20.0993
20.0993
20.0665
20.0448
20.0672
20.0457
20.0775
20.0422
20.0782
20.0432
20.062
20.186
20.0633
20.1873
20.0364
20.1917
20.0377
20.193
20.1835
20.0595
20.1848
20.0607
20.1893
20.0337
20.1904
20.0351
20.0427
20.0649
20.0437
20.0657
20.0401
20.0759
20.0412
20.0768
20.083
20.083
20.0838
20.0838
20.0974
20.0974
20.0981
20.0981
20.0649
20.0427
20.0657
20.0437
20.0759
20.0402
20.0768
20.0412
20.0594
20.1835
20.0607
20.1848
20.0339
20.189
20.0351
20.1904
20.1811
20.0569
20.1823
20.0582
20.1867
20.0312
20.188
20.0324
20.0405
20.063
20.0416
20.064
20.0379
20.074
20.039
20.075
20.0814
20.0814
20.0822
20.0822
20.0957
20.0956
20.0966
20.0966
20.063
20.0405
20.064
20.0416
20.074
20.0379
20.075
20.0391
20.0569
20.181
20.0582
20.1823
20.031
20.1869
20.0324
20.1879
20.1786