/*--------------------------------*- C++ -*----------------------------------*\
  =========                 |
  \\      /  F ield         | OpenFOAM: The Open Source CFD Toolbox
   \\    /   O peration     | Website:  https://openfoam.org
    \\  /    A nd           | Version:  9
     \\/     M anipulation  |
\*---------------------------------------------------------------------------*/
FoamFile
{
    format      ascii;
    class       volScalarField;
    location    "4.05";
    object      k;
}
// * * * * * * * * * * * * * * * * * * * * * * * * * * * * * * * * * * * * * //

dimensions      [0 2 -2 0 0 0 0];

internalField   nonuniform List<scalar> 
36360
(
0.138695
0.118425
0.0808447
0.072128
0.0398795
0.0339525
0.013713
0.0155481
0.0664986
0.0375717
0.0315696
0.0110964
0.0178319
0.00818679
0.00628314
0.00362395
0.0239091
0.0239064
0.00543525
0.00543536
0.00506235
0.00506242
0.00297271
0.00297277
0.0375574
0.066467
0.0110931
0.0315525
0.00818502
0.0178238
0.00362388
0.00628108
0.118376
0.138634
0.0720939
0.0807991
0.0339368
0.0398592
0.0155394
0.0137034
0.214593
0.187726
0.180456
0.155645
0.0757406
0.0637752
0.0599022
0.0498261
0.128183
0.0946328
0.0984966
0.0663298
0.0439283
0.0315379
0.0312231
0.0190647
0.079766
0.0797554
0.0520681
0.0520609
0.0259905
0.0259876
0.0134756
0.0134745
0.0945994
0.128125
0.0663054
0.0984518
0.0315274
0.0439081
0.0190588
0.0312091
0.187648
0.214502
0.155581
0.180381
0.0637444
0.0757025
0.0498029
0.059873
0.272849
0.24406
0.244955
0.216936
0.102038
0.0883358
0.0894833
0.0764747
0.182261
0.147384
0.156027
0.121696
0.0672172
0.0545416
0.0558835
0.0433552
0.131825
0.131809
0.10644
0.106426
0.048933
0.0489273
0.0378058
0.0378014
0.147336
0.18218
0.121655
0.155957
0.0545235
0.0671854
0.0433408
0.0558573
0.243954
0.272727
0.216843
0.244847
0.0882901
0.101983
0.0764363
0.0894362
0.322811
0.293044
0.298713
0.269367
0.124641
0.109992
0.113714
0.0994839
0.23014
0.194514
0.206939
0.171646
0.0881077
0.0751206
0.0779484
0.0651151
0.178496
0.178476
0.155837
0.155818
0.0693354
0.0693275
0.0594202
0.0594133
0.194453
0.230042
0.171591
0.206849
0.0750962
0.0880662
0.0650938
0.0779115
0.292915
0.322664
0.269249
0.298577
0.109934
0.12457
0.0994316
0.113649
0.366008
0.335671
0.345203
0.315114
0.144336
0.129074
0.134831
0.119843
0.272135
0.236042
0.251856
0.215968
0.106644
0.0933906
0.0976658
0.0845373
0.219716
0.219693
0.19978
0.199758
0.0874453
0.0874357
0.078667
0.0786582
0.235973
0.272023
0.215903
0.25175
0.0933613
0.106595
0.0845103
0.0976201
0.335526
0.365843
0.314977
0.345046
0.129005
0.144253
0.119779
0.134753
0.403012
0.372344
0.385238
0.354713
0.161307
0.14564
0.153142
0.137656
0.308452
0.272083
0.290977
0.254727
0.122818
0.109361
0.115015
0.101652
0.255565
0.25554
0.238294
0.238269
0.103296
0.103285
0.0956419
0.0956315
0.272008
0.308331
0.254655
0.29086
0.109328
0.122762
0.101621
0.114962
0.372187
0.402834
0.354562
0.385065
0.145564
0.161214
0.137583
0.153053
0.43434
0.40349
0.419338
0.388565
0.175737
0.159804
0.168816
0.153002
0.33942
0.302902
0.324572
0.288117
0.1367
0.123098
0.130028
0.116493
0.286274
0.286247
0.271536
0.27151
0.116947
0.116935
0.110381
0.110369
0.302823
0.339292
0.288039
0.324447
0.123062
0.13664
0.116459
0.129971
0.403326
0.434154
0.388404
0.419155
0.159722
0.175636
0.152922
0.168719
0.460553
0.429616
0.448039
0.417137
0.187849
0.171743
0.182058
0.166028
0.36548
0.328896
0.353027
0.31647
0.148441
0.134738
0.142818
0.129161
0.31221
0.312182
0.299807
0.29978
0.128527
0.128515
0.122977
0.122965
0.328814
0.365348
0.316388
0.352897
0.134699
0.148378
0.129123
0.142756
0.429446
0.460361
0.416969
0.447848
0.171656
0.187743
0.165943
0.181953
0.482195
0.45123
0.471898
0.440941
0.197877
0.181658
0.193097
0.176928
0.387104
0.350508
0.376809
0.340215
0.158221
0.14445
0.153553
0.139813
0.333799
0.33377
0.323514
0.323486
0.1382
0.138187
0.13358
0.133567
0.350423
0.386969
0.340131
0.376675
0.14441
0.158155
0.139774
0.153489
0.451057
0.481999
0.440769
0.471702
0.181568
0.197766
0.176839
0.192988
0.499816
0.468862
0.491464
0.460501
0.206061
0.189773
0.202173
0.185915
0.404793
0.368219
0.396404
0.359817
0.166247
0.152433
0.16243
0.148635
0.351509
0.351479
0.343105
0.343076
0.146157
0.146143
0.14237
0.142357
0.368132
0.404655
0.359731
0.396268
0.152392
0.166179
0.148594
0.162363
0.468686
0.499618
0.460326
0.491265
0.18968
0.205947
0.185823
0.20206
0.513912
0.482996
0.507261
0.476324
0.212627
0.1963
0.20952
0.193209
0.419014
0.382485
0.412302
0.375749
0.172719
0.15888
0.169654
0.155826
0.365789
0.365759
0.359045
0.359016
0.152589
0.152575
0.149541
0.149527
0.382397
0.418875
0.375662
0.412163
0.158838
0.172649
0.155784
0.169585
0.482818
0.513712
0.476147
0.50706
0.196205
0.21251
0.193114
0.209404
0.524947
0.494087
0.519774
0.488884
0.217785
0.20144
0.215358
0.199019
0.430215
0.393746
0.424961
0.388462
0.177831
0.163983
0.175422
0.161577
0.377075
0.377045
0.371777
0.371747
0.157684
0.15767
0.155282
0.155267
0.393658
0.430075
0.388374
0.424821
0.16394
0.17776
0.161535
0.175352
0.493908
0.524746
0.488706
0.519571
0.201343
0.217666
0.198922
0.215239
0.533328
0.502538
0.529433
0.498606
0.221721
0.205373
0.219882
0.203533
0.438792
0.402396
0.434802
0.39837
0.181758
0.167912
0.179921
0.166072
0.385757
0.385727
0.381714
0.381684
0.161613
0.161598
0.159772
0.159758
0.402307
0.438651
0.398282
0.434662
0.167869
0.181686
0.166029
0.179849
0.502358
0.533126
0.498427
0.529229
0.205274
0.2216
0.203435
0.219761
0.539425
0.508718
0.536629
0.505879
0.224605
0.208265
0.223272
0.206925
0.445108
0.408796
0.442207
0.405853
0.184663
0.170829
0.183317
0.169476
0.392194
0.392164
0.389232
0.389202
0.164534
0.16452
0.163178
0.163164
0.408707
0.444967
0.405764
0.442066
0.170785
0.18459
0.169432
0.183245
0.508538
0.539223
0.505699
0.536425
0.208165
0.224482
0.206826
0.223149
0.543554
0.512941
0.541706
0.511045
0.226583
0.21026
0.225686
0.209352
0.44948
0.41326
0.447515
0.411249
0.186687
0.172874
0.185765
0.171941
0.396702
0.396671
0.394669
0.394638
0.166589
0.166574
0.16565
0.165635
0.413171
0.449339
0.41116
0.447373
0.17283
0.186614
0.171897
0.185692
0.512762
0.543352
0.510865
0.541502
0.21016
0.226459
0.209252
0.225562
0.545991
0.515487
0.544957
0.514397
0.227783
0.211485
0.22726
0.210947
0.452185
0.416065
0.451021
0.414852
0.187956
0.174171
0.187397
0.173597
0.399554
0.399524
0.398317
0.398286
0.167899
0.167884
0.167317
0.167302
0.415976
0.452044
0.414763
0.45088
0.174127
0.187883
0.173553
0.187324
0.515308
0.54579
0.514217
0.544753
0.211384
0.227659
0.210847
0.227135
0.546973
0.516592
0.54664
0.516196
0.228315
0.212048
0.228114
0.211829
0.45346
0.417449
0.452984
0.416919
0.188578
0.174828
0.18833
0.174562
0.40099
0.40096
0.400434
0.400403
0.168571
0.168557
0.168296
0.168281
0.41736
0.453319
0.41683
0.452843
0.174784
0.188505
0.174517
0.188257
0.516414
0.546773
0.516017
0.546438
0.211948
0.228191
0.211728
0.227989
0.546714
0.516469
0.54697
0.516656
0.228278
0.212045
0.228343
0.212093
0.453513
0.417614
0.453621
0.417668
0.188641
0.17493
0.18866
0.174931
0.401209
0.401179
0.401238
0.401207
0.168691
0.168676
0.168684
0.16867
0.417526
0.453374
0.41758
0.45348
0.174886
0.188568
0.174887
0.188587
0.516292
0.546515
0.516478
0.546769
0.211945
0.228154
0.211992
0.228218
0.545353
0.515269
0.546151
0.515986
0.22774
0.211552
0.228058
0.211848
0.452511
0.41674
0.453138
0.417305
0.188236
0.174574
0.188491
0.174806
0.400397
0.400367
0.400932
0.400902
0.168358
0.168344
0.168579
0.168564
0.416652
0.452373
0.417217
0.452998
0.17453
0.188163
0.174762
0.188418
0.515093
0.545156
0.515809
0.545951
0.211453
0.227617
0.211748
0.227934
0.543036
0.51313
0.544296
0.514299
0.226767
0.210627
0.227292
0.211126
0.45058
0.414941
0.45165
0.415945
0.187406
0.173796
0.187857
0.174221
0.398663
0.398633
0.399634
0.399605
0.167605
0.167591
0.168017
0.168002
0.414855
0.450442
0.415858
0.451512
0.173752
0.187334
0.174177
0.187785
0.512956
0.54284
0.514123
0.544098
0.210528
0.226645
0.211026
0.227168
0.539867
0.510164
0.541542
0.511735
0.22541
0.209323
0.226121
0.210006
0.447836
0.41234
0.449301
0.413734
0.186211
0.172659
0.18684
0.173258
0.396132
0.396103
0.39749
0.397461
0.166495
0.166481
0.16708
0.167066
0.412254
0.4477
0.413648
0.449164
0.172615
0.186139
0.173214
0.186768
0.509992
0.539674
0.511561
0.541346
0.209225
0.225289
0.209907
0.225998
0.535927
0.506451
0.53798
0.508387
0.223706
0.207678
0.224587
0.208527
0.444362
0.40902
0.446184
0.410765
0.184687
0.171198
0.185476
0.171955
0.392886
0.392857
0.394593
0.394564
0.165065
0.16505
0.165806
0.165791
0.408935
0.444228
0.410679
0.446048
0.171155
0.184616
0.171912
0.185405
0.506282
0.535737
0.508216
0.537786
0.207581
0.223586
0.20843
0.224465
0.531274
0.502054
0.533677
0.504326
0.221681
0.205718
0.22272
0.206722
0.440219
0.405041
0.442369
0.407109
0.182862
0.169442
0.183799
0.170344
0.388987
0.388959
0.391014
0.390986
0.163341
0.163327
0.164226
0.164212
0.404957
0.440087
0.407024
0.442236
0.1694
0.182792
0.170301
0.183729
0.501886
0.531087
0.504157
0.533487
0.205623
0.221563
0.206626
0.2226
0.525948
0.497012
0.528684
0.499602
0.219357
0.203464
0.220543
0.204613
0.43545
0.400446
0.437909
0.402818
0.180754
0.167409
0.181831
0.168448
0.384478
0.38445
0.386806
0.386778
0.161343
0.161329
0.162364
0.16235
0.400364
0.43532
0.402735
0.437778
0.167368
0.180686
0.168406
0.181762
0.496847
0.525764
0.499436
0.528496
0.20337
0.21924
0.204518
0.220425
0.519974
0.491352
0.523032
0.494249
0.216743
0.200926
0.218073
0.202216
0.430079
0.395261
0.432837
0.397925
0.178377
0.165112
0.179588
0.166282
0.379383
0.379356
0.382002
0.381974
0.159083
0.159069
0.160234
0.16022
0.39518
0.429952
0.397844
0.432708
0.165071
0.17831
0.166241
0.17952
0.49119
0.519794
0.494086
0.522848
0.200834
0.216629
0.202123
0.217957
0.513366
0.485085
0.51674
0.488285
0.213845
0.19811
0.215318
0.19954
0.42412
0.389497
0.427171
0.39245
0.175734
0.162554
0.177078
0.163854
0.373716
0.373689
0.376621
0.376593
0.156565
0.156551
0.157845
0.157831
0.389418
0.423994
0.39237
0.427045
0.162514
0.175668
0.163814
0.177011
0.484927
0.513189
0.488125
0.51656
0.19802
0.213734
0.199448
0.215204
0.506125
0.478215
0.509816
0.481717
0.210665
0.195017
0.212279
0.196586
0.417572
0.383154
0.420918
0.386398
0.172825
0.159735
0.174302
0.161167
0.367474
0.367447
0.370667
0.37064
0.153788
0.153775
0.155198
0.155185
0.383077
0.417449
0.38632
0.420794
0.159696
0.172761
0.161127
0.174237
0.47806
0.505952
0.481561
0.509639
0.194929
0.210556
0.196496
0.212168
0.498247
0.470732
0.502258
0.474542
0.207199
0.191643
0.208957
0.193353
0.410425
0.376222
0.414073
0.379763
0.169647
0.156651
0.17126
0.158216
0.360647
0.360621
0.364134
0.364108
0.150749
0.150736
0.152291
0.152278
0.376146
0.410305
0.379686
0.413951
0.156613
0.169584
0.158178
0.171196
0.470581
0.498079
0.474389
0.502085
0.191557
0.207093
0.193266
0.208849
0.48972
0.462622
0.494057
0.466749
0.20344
0.187979
0.205346
0.189836
0.402662
0.368681
0.406621
0.372529
0.166189
0.153292
0.167944
0.154997
0.353215
0.35319
0.357008
0.356982
0.147436
0.147424
0.149117
0.149104
0.368607
0.402545
0.372454
0.406502
0.153255
0.166128
0.154959
0.167881
0.462474
0.489555
0.466599
0.493889
0.187895
0.203336
0.189751
0.20524
0.480525
0.45386
0.485198
0.458315
0.199377
0.184014
0.201437
0.186023
0.394257
0.360504
0.398541
0.364674
0.16244
0.149647
0.164342
0.151496
0.345152
0.345127
0.349264
0.349239
0.143839
0.143827
0.145664
0.145652
0.360432
0.394143
0.3646
0.398425
0.14961
0.162381
0.15146
0.164282
0.453716
0.480365
0.458169
0.485034
0.183932
0.199276
0.18594
0.201334
0.47064
0.444419
0.475662
0.449218
0.195
0.179741
0.197218
0.181905
0.38518
0.351659
0.389804
0.356167
0.158387
0.145699
0.160444
0.147702
0.336422
0.336398
0.340872
0.340848
0.139943
0.139931
0.14192
0.141908
0.351588
0.385068
0.356095
0.389691
0.145664
0.158329
0.147666
0.160385
0.444279
0.470484
0.449076
0.475502
0.179662
0.194902
0.181824
0.197119
0.460038
0.434265
0.465423
0.439425
0.190292
0.175144
0.192679
0.177474
0.37539
0.342104
0.380375
0.346972
0.154012
0.141432
0.156232
0.143598
0.326985
0.326962
0.331795
0.331771
0.135728
0.135717
0.137867
0.137856
0.342035
0.375282
0.346902
0.380265
0.141397
0.153955
0.143563
0.156175
0.434128
0.459887
0.439287
0.465267
0.175067
0.190198
0.177396
0.192582
0.448682
0.423355
0.454449
0.428899
0.185234
0.1702
0.187799
0.172707
0.364843
0.331791
0.370213
0.337045
0.149292
0.136823
0.151688
0.139163
0.316793
0.31677
0.321987
0.321963
0.131175
0.131164
0.133487
0.133475
0.331724
0.364738
0.336977
0.370106
0.13679
0.149238
0.139129
0.151633
0.423223
0.448535
0.428765
0.454298
0.170126
0.185143
0.172631
0.187706
0.436531
0.411642
0.442701
0.417594
0.179802
0.164888
0.182558
0.167582
0.353487
0.320665
0.359268
0.326333
0.144205
0.131848
0.146788
0.134375
0.305785
0.305763
0.311394
0.311372
0.126257
0.126246
0.128755
0.128744
0.3206
0.353385
0.326267
0.359165
0.131816
0.144153
0.134342
0.146735
0.411514
0.436388
0.417464
0.442555
0.164817
0.179715
0.167509
0.182468
0.423543
0.399081
0.430136
0.405462
0.17397
0.159189
0.176929
0.162079
0.341263
0.308657
0.347486
0.314776
0.138724
0.126477
0.141508
0.129207
0.293889
0.293868
0.299954
0.299932
0.120943
0.120933
0.123644
0.123633
0.308595
0.341164
0.314712
0.347386
0.126447
0.138674
0.129175
0.141457
0.398957
0.423406
0.405337
0.429994
0.159122
0.173887
0.16201
0.176843
0.409706
0.385636
0.416721
0.392462
0.167718
0.153092
0.170889
0.156182
0.3281
0.295667
0.334803
0.302292
0.132817
0.120668
0.135819
0.123624
0.280992
0.280972
0.287575
0.287554
0.115188
0.115178
0.118117
0.118107
0.295607
0.328006
0.302231
0.334707
0.120639
0.13277
0.123594
0.135771
0.385518
0.409575
0.392341
0.416585
0.153027
0.167639
0.156115
0.170807
0.395166
0.371302
0.402493
0.378573
0.161082
0.14661
0.164432
0.149888
0.313862
0.281508
0.32113
0.288751
0.126429
0.114348
0.129682
0.117572
0.266902
0.266883
0.274112
0.274093
0.108916
0.108907
0.112116
0.112106
0.281452
0.313773
0.288693
0.321038
0.114321
0.126385
0.117544
0.129636
0.37119
0.395042
0.378458
0.402364
0.146549
0.161008
0.149826
0.164355
0.380871
0.355825
0.387832
0.363758
0.154412
0.139735
0.15769
0.143227
0.298024
0.265761
0.306213
0.273873
0.119376
0.107365
0.123004
0.110946
0.251303
0.251286
0.259312
0.259294
0.10202
0.102011
0.105546
0.105537
0.265709
0.297942
0.273819
0.306127
0.107341
0.119335
0.110921
0.122962
0.355722
0.380756
0.36365
0.387711
0.13968
0.154344
0.143169
0.157618
0.372727
0.334831
0.375216
0.346935
0.148733
0.130619
0.151461
0.135837
0.278484
0.247746
0.288951
0.257061
0.110923
0.0995323
0.115399
0.103549
0.233978
0.233962
0.242844
0.242827
0.0944869
0.0944797
0.0983128
0.0983052
0.247699
0.27841
0.257012
0.288873
0.0995109
0.110888
0.103527
0.115361
0.334738
0.372623
0.346837
0.375105
0.130571
0.148674
0.135785
0.151397
0.224659
0.193754
0.150452
0.129764
0.188373
0.161158
0.120259
0.10363
0.126837
0.0864793
0.0726728
0.0396654
0.0994277
0.063064
0.0528669
0.0247978
0.0678088
0.0677961
0.0245003
0.0244956
0.0464058
0.0463981
0.0120848
0.0120837
0.0864377
0.126764
0.0396413
0.0726194
0.063036
0.0993754
0.0247856
0.0528325
0.193655
0.224543
0.129682
0.150351
0.161084
0.188284
0.103572
0.120185
0.335012
0.297301
0.283975
0.248576
0.284646
0.250492
0.240611
0.208775
0.222779
0.177194
0.176588
0.132778
0.180736
0.139188
0.141669
0.101808
0.155934
0.155912
0.11243
0.112413
0.120166
0.12015
0.0835752
0.0835625
0.177128
0.222673
0.132724
0.176498
0.139138
0.180652
0.101768
0.1416
0.297165
0.33486
0.248458
0.28384
0.250382
0.28452
0.208683
0.240503
0.423655
0.383637
0.38118
0.342072
0.360538
0.324093
0.324194
0.288662
0.306732
0.259367
0.266071
0.219417
0.251788
0.208556
0.217348
0.174799
0.237097
0.237069
0.197567
0.197542
0.188634
0.188611
0.155261
0.155241
0.259284
0.3066
0.219342
0.265951
0.208488
0.251678
0.174739
0.217251
0.383472
0.423472
0.34192
0.38101
0.323952
0.36038
0.288536
0.32405
0.499211
0.458183
0.462877
0.422258
0.425331
0.38781
0.394136
0.357065
0.380433
0.332255
0.34482
0.296974
0.31443
0.27034
0.284119
0.240396
0.309449
0.309417
0.274396
0.274365
0.249887
0.24986
0.220177
0.220151
0.33216
0.380284
0.296884
0.344679
0.270259
0.314301
0.240321
0.283999
0.457999
0.49901
0.422082
0.462683
0.387647
0.425149
0.356911
0.393963
0.563802
0.522329
0.532782
0.491486
0.480986
0.442908
0.454223
0.416381
0.444409
0.395885
0.413602
0.36521
0.369079
0.32453
0.342728
0.298371
0.3728
0.372765
0.34224
0.342206
0.303757
0.303726
0.277737
0.277708
0.395783
0.44425
0.365111
0.413447
0.32444
0.368938
0.298286
0.342592
0.522135
0.563591
0.491295
0.532574
0.442731
0.480788
0.416209
0.454031
0.618602
0.576975
0.592341
0.550768
0.52841
0.490054
0.505659
0.467418
0.499221
0.450616
0.472911
0.424325
0.416109
0.371342
0.393508
0.348828
0.427409
0.427372
0.401163
0.401127
0.350391
0.350358
0.327952
0.32792
0.45051
0.499057
0.42422
0.472749
0.371247
0.415959
0.348735
0.393362
0.576776
0.618389
0.55057
0.592126
0.489867
0.528204
0.467235
0.505454
0.664651
0.623026
0.642641
0.601004
0.5684
0.529926
0.549268
0.51084
0.545605
0.497071
0.523412
0.474832
0.456052
0.411217
0.436922
0.392109
0.473837
0.4738
0.451603
0.451566
0.39018
0.390146
0.371105
0.371072
0.496963
0.54544
0.474725
0.523247
0.411119
0.455897
0.392011
0.436769
0.622827
0.664439
0.600804
0.642425
0.529734
0.568189
0.51065
0.549057
0.702955
0.661415
0.684698
0.643111
0.601756
0.563259
0.585844
0.547351
0.584403
0.536022
0.565899
0.517436
0.489558
0.444746
0.473563
0.428733
0.512817
0.51278
0.494212
0.494175
0.423681
0.423646
0.407676
0.407642
0.535914
0.584238
0.517328
0.565733
0.444646
0.489401
0.428633
0.473406
0.661218
0.702747
0.642912
0.684485
0.563065
0.601543
0.547158
0.585629
0.734424
0.693015
0.719474
0.677998
0.629225
0.590762
0.616164
0.577681
0.61644
0.568255
0.601214
0.55293
0.517289
0.472555
0.504098
0.459322
0.545113
0.545076
0.529754
0.529717
0.451499
0.451464
0.438258
0.438223
0.568148
0.616277
0.552823
0.60105
0.472454
0.517131
0.459221
0.50394
0.692822
0.734221
0.677803
0.719265
0.590567
0.629012
0.577486
0.615948
0.759932
0.718679
0.747861
0.706531
0.651538
0.613145
0.64097
0.60254
0.642541
0.594572
0.630186
0.58211
0.539925
0.495301
0.5292
0.48452
0.571509
0.571472
0.559006
0.558969
0.474276
0.474241
0.463477
0.463442
0.594466
0.64238
0.582003
0.630024
0.495199
0.539766
0.484418
0.529041
0.71849
0.759735
0.706339
0.747658
0.61295
0.651326
0.602345
0.640754
0.78025
0.739164
0.77068
0.729513
0.669347
0.631045
0.660951
0.622603
0.663451
0.615705
0.653601
0.605746
0.55809
0.513594
0.549525
0.504965
0.592732
0.592695
0.582728
0.582692
0.492615
0.49258
0.483962
0.483927
0.6156
0.663293
0.605641
0.653442
0.513492
0.557932
0.504863
0.549366
0.738979
0.780058
0.729325
0.770483
0.630851
0.669136
0.622408
0.660736
0.796084
0.755172
0.788678
0.747681
0.683255
0.645059
0.676741
0.638493
0.679866
0.632343
0.672185
0.624553
0.572373
0.528015
0.565681
0.521255
0.609464
0.609428
0.601627
0.601591
0.507091
0.507056
0.500303
0.500268
0.63224
0.67971
0.624449
0.672027
0.527913
0.572214
0.521153
0.565522
0.75499
0.795899
0.747496
0.788485
0.644867
0.683046
0.638299
0.676528
0.808044
0.767309
0.802501
0.76168
0.693786
0.655709
0.688897
0.650761
0.692393
0.645091
0.686584
0.639175
0.58329
0.539079
0.578219
0.533936
0.622308
0.622273
0.616344
0.616308
0.518217
0.518181
0.513043
0.513008
0.644989
0.69224
0.639072
0.686429
0.538977
0.583133
0.533834
0.578061
0.767131
0.807863
0.761499
0.802313
0.655518
0.693579
0.650569
0.688685
0.81668
0.776126
0.812736
0.772094
0.701417
0.663469
0.697923
0.659912
0.701583
0.654497
0.697379
0.650188
0.591315
0.547254
0.587636
0.543501
0.631811
0.631776
0.627454
0.627419
0.526458
0.526423
0.522672
0.522637
0.654396
0.701432
0.650087
0.697227
0.547153
0.591158
0.543399
0.587478
0.775952
0.816505
0.771917
0.812553
0.663279
0.701213
0.65972
0.697713
0.822454
0.782087
0.819888
0.77943
0.706549
0.668741
0.704259
0.666381
0.707904
0.661032
0.705081
0.658105
0.596852
0.552947
0.59437
0.550389
0.638444
0.63841
0.635469
0.635434
0.53222
0.532186
0.529627
0.529592
0.660932
0.707755
0.658005
0.704931
0.552846
0.596696
0.550287
0.594214
0.781916
0.822283
0.779257
0.81971
0.668552
0.706347
0.666191
0.704051
0.825774
0.785603
0.824389
0.784121
0.709537
0.671882
0.708278
0.670546
0.71177
0.66511
0.710128
0.663365
0.600259
0.556513
0.598801
0.554977
0.642621
0.642587
0.640827
0.640792
0.53586
0.535825
0.534287
0.534252
0.665012
0.711623
0.663265
0.70998
0.556413
0.600104
0.554876
0.598645
0.785435
0.825607
0.783952
0.824215
0.671695
0.709337
0.670358
0.708073
0.826985
0.78702
0.826615
0.786549
0.71068
0.673192
0.71031
0.672738
0.713532
0.667084
0.712902
0.666351
0.601838
0.558258
0.60126
0.557598
0.644695
0.644661
0.643912
0.643878
0.537682
0.537648
0.536983
0.536949
0.666987
0.713387
0.666253
0.712756
0.558158
0.601685
0.557498
0.601105
0.786856
0.826823
0.786382
0.826446
0.673007
0.710483
0.672552
0.710107
0.826396
0.786648
0.82689
0.787032
0.710252
0.672944
0.710632
0.673233
0.713498
0.66726
0.713728
0.667389
0.60186
0.558445
0.602026
0.558532
0.644971
0.644938
0.645051
0.645017
0.537948
0.537914
0.537997
0.537962
0.667164
0.713356
0.667292
0.713584
0.558346
0.601708
0.558432
0.601873
0.786488
0.826238
0.786869
0.826725
0.672762
0.710057
0.673049
0.710432
0.824215
0.784705
0.825482
0.785854
0.708428
0.671325
0.709488
0.672284
0.711902
0.665885
0.712893
0.666769
0.600527
0.557293
0.601355
0.558034
0.643702
0.643669
0.644534
0.644501
0.536884
0.53685
0.537581
0.537547
0.66579
0.711762
0.666673
0.712751
0.557196
0.600377
0.557935
0.601204
0.784547
0.82406
0.785694
0.82532
0.671145
0.708236
0.672102
0.709291
0.820651
0.781397
0.822588
0.783206
0.705395
0.668517
0.707042
0.67005
0.708944
0.663148
0.710591
0.664686
0.598011
0.554962
0.599408
0.556267
0.641074
0.641041
0.642557
0.642524
0.534642
0.534608
0.535901
0.535868
0.663055
0.708806
0.664592
0.710452
0.554865
0.597863
0.55617
0.599258
0.781242
0.8205
0.783049
0.82243
0.668339
0.705206
0.66987
0.706847
0.815856
0.776881
0.818392
0.779277
0.701285
0.664656
0.703456
0.666701
0.704786
0.65922
0.707015
0.661336
0.594456
0.551601
0.596357
0.553406
0.637257
0.637225
0.639317
0.639285
0.531375
0.531342
0.533132
0.533099
0.659128
0.70465
0.661243
0.706878
0.551505
0.594309
0.55331
0.596209
0.77673
0.815709
0.779123
0.818238
0.664481
0.701099
0.666524
0.703264
0.809947
0.771277
0.813028
0.774205
0.6962
0.659847
0.698847
0.662355
0.699551
0.654223
0.702306
0.65686
0.589967
0.547317
0.592324
0.549572
0.632377
0.632346
0.634956
0.634924
0.527192
0.527159
0.529396
0.529363
0.654133
0.699418
0.656769
0.702171
0.547223
0.589823
0.549477
0.592178
0.771129
0.809804
0.774054
0.812878
0.659675
0.696018
0.662181
0.698659
0.803012
0.764674
0.806597
0.768092
0.690215
0.654168
0.693305
0.657103
0.69333
0.648249
0.696569
0.651365
0.584623
0.54219
0.587399
0.544858
0.626525
0.626494
0.62958
0.629549
0.52217
0.522137
0.524785
0.524752
0.64816
0.693199
0.651276
0.696437
0.542097
0.584481
0.544765
0.587256
0.764529
0.802872
0.767945
0.80645
0.653999
0.690036
0.656932
0.69312
0.795109
0.757132
0.799172
0.761014
0.683382
0.647671
0.68689
0.65101
0.686183
0.64136
0.689879
0.644928
0.578478
0.536272
0.58165
0.53933
0.619763
0.619732
0.623267
0.623236
0.516364
0.516332
0.519365
0.519334
0.641272
0.686055
0.64484
0.689749
0.536181
0.578339
0.539238
0.581509
0.75699
0.794973
0.76087
0.799029
0.647505
0.683206
0.650841
0.686709
0.786277
0.74869
0.790801
0.753018
0.675733
0.640388
0.679646
0.644117
0.678149
0.633593
0.682285
0.637596
0.571565
0.529597
0.575118
0.533031
0.612129
0.612098
0.616065
0.616035
0.509806
0.509775
0.513181
0.51315
0.633507
0.678024
0.63751
0.682158
0.529508
0.571428
0.53294
0.574979
0.748551
0.786144
0.752877
0.790662
0.640226
0.675561
0.643952
0.679469
0.776534
0.739365
0.781512
0.744133
0.667285
0.632337
0.671597
0.636449
0.669246
0.624965
0.673815
0.629398
0.563899
0.52218
0.567827
0.525984
0.603638
0.603608
0.608002
0.607972
0.502512
0.502482
0.506255
0.506224
0.624882
0.669123
0.629313
0.673691
0.522092
0.563765
0.525895
0.567691
0.739229
0.776404
0.743995
0.781376
0.632178
0.667117
0.636287
0.671423
0.765883
0.729159
0.771316
0.734369
0.65804
0.623518
0.662751
0.628014
0.659472
0.615475
0.664478
0.62034
0.555479
0.51402
0.559785
0.518197
0.594289
0.59426
0.599083
0.599054
0.49448
0.49445
0.498592
0.498562
0.615393
0.659351
0.620257
0.664356
0.513933
0.555347
0.518109
0.559652
0.729026
0.765757
0.734234
0.771183
0.623362
0.657876
0.627856
0.662581
0.754319
0.718059
0.76021
0.723717
0.647993
0.61392
0.653106
0.618807
0.648812
0.605105
0.654263
0.610412
0.546293
0.505101
0.550985
0.50966
0.584063
0.584035
0.589299
0.58927
0.485694
0.485665
0.490186
0.490156
0.605024
0.648693
0.610331
0.654143
0.505017
0.546164
0.509574
0.550854
0.717929
0.754195
0.723585
0.76008
0.613767
0.647833
0.618652
0.65294
0.741819
0.706041
0.748181
0.712162
0.637127
0.603524
0.642652
0.608813
0.637237
0.593823
0.64315
0.599591
0.536317
0.495399
0.541407
0.500353
0.572929
0.572901
0.578623
0.578595
0.476128
0.476099
0.481014
0.480985
0.593744
0.637121
0.599511
0.643032
0.495316
0.536191
0.500269
0.541279
0.705914
0.741698
0.712033
0.748054
0.603375
0.63697
0.608662
0.64249
0.728358
0.693071
0.735204
0.699672
0.625417
0.592301
0.631368
0.598008
0.624708
0.581588
0.631103
0.587838
0.525517
0.484877
0.531024
0.490246
0.560841
0.560814
0.567018
0.56699
0.465745
0.465716
0.471044
0.471015
0.58151
0.624594
0.587759
0.630988
0.484796
0.525394
0.490164
0.530899
0.692946
0.728239
0.699546
0.73508
0.592156
0.625264
0.59786
0.631209
0.7139
0.679112
0.721249
0.686212
0.612836
0.580214
0.619226
0.586359
0.611177
0.568346
0.618079
0.575106
0.513852
0.47349
0.519797
0.479297
0.547746
0.547719
0.554433
0.554406
0.454498
0.45447
0.460235
0.460207
0.56827
0.611066
0.575029
0.617966
0.473411
0.513731
0.479217
0.519674
0.67899
0.713783
0.686088
0.721127
0.580072
0.612687
0.586214
0.619072
0.698397
0.66411
0.706275
0.67174
0.599346
0.567217
0.606196
0.573823
0.596584
0.554033
0.604025
0.561337
0.501269
0.461184
0.50768
0.467458
0.533576
0.53355
0.540809
0.540782
0.442331
0.442304
0.448536
0.448508
0.553958
0.596474
0.561261
0.603914
0.461106
0.501151
0.467379
0.50756
0.663989
0.698282
0.671618
0.706155
0.567078
0.5992
0.573681
0.606045
0.6818
0.647998
0.690231
0.656191
0.5849
0.553259
0.592234
0.560352
0.580857
0.538572
0.588874
0.546459
0.48771
0.447893
0.494617
0.454668
0.518254
0.518228
0.526073
0.526047
0.429179
0.429152
0.435885
0.435858
0.538499
0.580749
0.546385
0.588765
0.447818
0.487595
0.454591
0.4945
0.64788
0.681687
0.656071
0.690113
0.553123
0.584758
0.560214
0.592087
0.664059
0.630718
0.673068
0.639502
0.569451
0.53828
0.577293
0.545891
0.56392
0.521877
0.572551
0.530393
0.473105
0.433543
0.480543
0.440858
0.501686
0.50166
0.51014
0.510114
0.414961
0.414935
0.42221
0.422184
0.521805
0.563814
0.53032
0.572444
0.43347
0.472993
0.440783
0.480429
0.630601
0.663947
0.639384
0.672951
0.538147
0.569313
0.545756
0.577149
0.645145
0.612215
0.654741
0.621615
0.552963
0.522229
0.561327
0.530381
0.545689
0.50384
0.554978
0.513042
0.457379
0.418041
0.465388
0.425945
0.483753
0.483728
0.492906
0.492881
0.399576
0.399552
0.407424
0.407399
0.50377
0.545586
0.51297
0.554873
0.41797
0.45727
0.425872
0.465277
0.612101
0.645035
0.621499
0.654626
0.5221
0.552828
0.53025
0.561188
0.625113
0.592478
0.63525
0.602492
0.535459
0.505075
0.544321
0.51378
0.526067
0.484309
0.536065
0.494281
0.440441
0.401254
0.449069
0.409821
0.464279
0.464255
0.47423
0.474206
0.382874
0.38285
0.391404
0.39138
0.48424
0.525966
0.494211
0.535962
0.401185
0.440336
0.409751
0.448962
0.592365
0.625004
0.602378
0.635137
0.50495
0.535328
0.513653
0.544185
0.60434
0.571569
0.614759
0.582156
0.517206
0.486836
0.526377
0.49608
0.504873
0.463001
0.515692
0.47391
0.422118
0.382936
0.431472
0.392311
0.442957
0.442933
0.453881
0.453858
0.364596
0.364574
0.373955
0.373932
0.462934
0.504775
0.473842
0.515592
0.38287
0.422017
0.392243
0.431369
0.571459
0.604234
0.582045
0.614648
0.486717
0.517081
0.495958
0.526247
0.584641
0.549344
0.594086
0.560669
0.499609
0.467267
0.508107
0.477272
0.481426
0.439292
0.493526
0.451511
0.401773
0.362549
0.412282
0.373053
0.419273
0.41925
0.431454
0.431431
0.34432
0.344298
0.354739
0.354717
0.439229
0.481333
0.451447
0.493431
0.362487
0.401679
0.372989
0.412185
0.54924
0.58454
0.560562
0.593979
0.467155
0.499491
0.477156
0.507983
0.575927
0.520654
0.577535
0.536952
0.490913
0.441459
0.492976
0.456193
0.453027
0.412139
0.468158
0.426201
0.376973
0.339229
0.390202
0.351292
0.392736
0.392715
0.406369
0.406348
0.321691
0.321672
0.333295
0.333274
0.41208
0.45294
0.426141
0.468068
0.339172
0.376887
0.351233
0.390112
0.520558
0.575834
0.536851
0.577434
0.441357
0.490807
0.456085
0.492861
0.278547
0.243771
0.197077
0.171955
0.253851
0.220639
0.17551
0.152165
0.171665
0.127373
0.107838
0.0699118
0.150606
0.107863
0.0909354
0.0549758
0.106728
0.106707
0.052884
0.0528699
0.0879964
0.0879792
0.038744
0.0387346
0.127306
0.171552
0.069862
0.107744
0.107808
0.150513
0.0549389
0.0908622
0.243623
0.278378
0.171822
0.196919
0.220516
0.253708
0.152058
0.175379
0.408207
0.367264
0.347308
0.308444
0.374913
0.335213
0.318432
0.280937
0.288763
0.23969
0.23203
0.184607
0.258193
0.210416
0.206234
0.160193
0.216414
0.216384
0.162272
0.162245
0.187898
0.187872
0.138622
0.1386
0.239599
0.28862
0.184527
0.231901
0.210338
0.258067
0.160125
0.206124
0.367084
0.408008
0.308279
0.347124
0.335054
0.374736
0.280795
0.318271
0.515517
0.472555
0.463991
0.421803
0.473767
0.431882
0.426351
0.385318
0.392272
0.341604
0.342146
0.29209
0.352765
0.303267
0.306971
0.258149
0.317329
0.317293
0.268217
0.268183
0.279719
0.279686
0.235022
0.234992
0.341499
0.392108
0.291991
0.341991
0.303172
0.352616
0.258061
0.306832
0.472354
0.515299
0.421611
0.463779
0.431697
0.473563
0.385144
0.426157
0.607103
0.563404
0.563104
0.519676
0.558042
0.515276
0.517541
0.475118
0.482821
0.431595
0.439135
0.388105
0.435587
0.385389
0.395604
0.345675
0.406882
0.406843
0.363563
0.363525
0.361342
0.361305
0.321832
0.321797
0.431482
0.482647
0.387995
0.438965
0.385283
0.435424
0.345574
0.395447
0.563194
0.606878
0.519469
0.562879
0.515076
0.557825
0.474924
0.517328
0.685028