/*--------------------------------*- C++ -*----------------------------------*\
  =========                 |
  \\      /  F ield         | OpenFOAM: The Open Source CFD Toolbox
   \\    /   O peration     | Website:  https://openfoam.org
    \\  /    A nd           | Version:  9
     \\/     M anipulation  |
\*---------------------------------------------------------------------------*/
FoamFile
{
    format      ascii;
    class       volScalarField;
    location    "4.05";
    object      nut;
}
// * * * * * * * * * * * * * * * * * * * * * * * * * * * * * * * * * * * * * //

dimensions      [0 2 -1 0 0 0 0];

internalField   nonuniform List<scalar> 
36360
(
0.00386593
0.00349787
0.00249574
0.00228781
0.000590323
0.000544716
0.000346243
0.000368685
0.00264903
0.00209109
0.00143665
0.000681675
0.000394862
0.00026762
0.00023436
0.000177958
0.00179083
0.00179106
0.00036093
0.000361007
0.000210507
0.000210508
0.000161131
0.000161132
0.00209106
0.00264829
0.00068175
0.00143628
0.000267591
0.000394772
0.000177956
0.000234321
0.0034965
0.00386391
0.00228682
0.00249411
0.00054459
0.000590172
0.000368582
0.000346121
0.00561401
0.00527682
0.00482436
0.00445429
0.000813496
0.000746521
0.000723459
0.000659851
0.00457188
0.0042338
0.00367299
0.00325145
0.000619652
0.000525142
0.000522432
0.000408368
0.00417183
0.00417171
0.0031701
0.00317012
0.000476799
0.000476772
0.000343445
0.000343432
0.00423317
0.00457045
0.00325106
0.00367189
0.000525055
0.000619509
0.000408305
0.000522315
0.00527465
0.00561108
0.00445253
0.0048219
0.00074634
0.000813291
0.000659697
0.000723282
0.00694971
0.00668039
0.0063137
0.00601219
0.000944241
0.000878602
0.000884232
0.000817482
0.00608866
0.00583027
0.00537031
0.00508156
0.000766497
0.000690528
0.000698896
0.000615675
0.00577522
0.00577494
0.00502593
0.00502572
0.000654104
0.000654065
0.000574977
0.000574943
0.00582925
0.00608668
0.00508072
0.00536859
0.000690413
0.000766316
0.000615573
0.000698733
0.00667749
0.00694585
0.00600965
0.00631029
0.000878374
0.000943983
0.000817276
0.000883999
0.00806153
0.00783871
0.00753028
0.00728619
0.00104362
0.000980421
0.000996811
0.000932405
0.00731707
0.00709072
0.00673353
0.0064941
0.000877564
0.000810375
0.000825418
0.000754486
0.00703157
0.00703118
0.00643713
0.00643679
0.000778579
0.000778535
0.000720775
0.000720733
0.00708943
0.00731468
0.00649293
0.00673134
0.000810243
0.000877357
0.000754362
0.000825223
0.00783525
0.00805688
0.00728299
0.00752598
0.000980161
0.00104332
0.000932159
0.000996529
0.00898483
0.00879572
0.00854409
0.00833928
0.00112307
0.00106208
0.00108545
0.00102339
0.00831853
0.00810869
0.00784207
0.00762488
0.000965478
0.000903555
0.00092394
0.000859663
0.00804536
0.00804489
0.00756333
0.0075629
0.000874352
0.000874304
0.000829311
0.000829264
0.00810718
0.00831584
0.00762347
0.00783952
0.000903413
0.000965255
0.000859526
0.000923724
0.00879182
0.00897956
0.00833558
0.00853908
0.0010618
0.00112274
0.00102312
0.00108514
0.00974722
0.00958359
0.00938347
0.00920785
0.00118727
0.00112819
0.00115683
0.00109683
0.00913657
0.00893711
0.00874694
0.00854259
0.00103611
0.000977763
0.00100266
0.000942672
0.00887114
0.00887062
0.00847762
0.00847712
0.00095029
0.000950239
0.000914408
0.000914359
0.00893545
0.00913365
0.008541
0.00874412
0.000977615
0.00103588
0.000942527
0.00100243
0.00957937
0.00974147
0.00920377
0.00937791
0.0011279
0.00118693
0.00109654
0.00115649
0.0103736
0.0102297
0.0100749
0.00992162
0.00123925
0.00118179
0.0012146
0.00115636
0.00980427
0.00961225
0.00948606
0.0092904
0.00109311
0.00103736
0.00106609
0.00100914
0.009545
0.00954443
0.00922353
0.00922298
0.00101113
0.00101108
0.000982339
0.000982287
0.00961048
0.00980119
0.00928868
0.00948306
0.0010372
0.00109287
0.00100899
0.00106586
0.0102253
0.0103675
0.00991726
0.0100689
0.00118149
0.0012389
0.00115606
0.00121425
0.0108858
0.0107575
0.0106415
0.0105058
0.00128126
0.00122515
0.00126135
0.00120459
0.0103481
0.0101618
0.0100888
0.00989957
0.00113909
0.00108529
0.0011173
0.00106259
0.0100941
0.0100935
0.00983192
0.00983134
0.00106001
0.00105996
0.00103687
0.00103682
0.0101599
0.0103449
0.00989777
0.0100856
0.00108514
0.00113884
0.00106244
0.00111706
0.0107528
0.0108793
0.0105012
0.0106352
0.00122484
0.0012809
0.00120428
0.00126099
0.011302
0.0111861
0.0111035
0.0109817
0.00131503
0.00126003
0.00129904
0.00124351
0.010789
0.0106072
0.0105787
0.0103945
0.00117602
0.00112373
0.00115854
0.00110555
0.0105397
0.010539
0.0103268
0.0103262
0.00109918
0.00109913
0.00108065
0.0010806
0.0106053
0.0107857
0.0103927
0.0105754
0.00112358
0.00117578
0.00110539
0.0011583
0.0111813
0.0112953
0.010977
0.0110969
0.00125972
0.00131466
0.0012432
0.00129867
0.0116378
0.011532
0.0114777
0.011367
0.00134196
0.00128788
0.00132923
0.00127472
0.0111444
0.0109661
0.0109748
0.0107946
0.00120549
0.00115437
0.00119157
0.0011399
0.010899
0.0108983
0.0107272
0.0107265
0.00113039
0.00113034
0.00111565
0.00111559
0.0109642
0.011141
0.0107927
0.0109714
0.00115422
0.00120524
0.00113974
0.00119132
0.0115271
0.0116309
0.0113621
0.0114708
0.00128756
0.00134159
0.0012744
0.00132886
0.011906
0.0118087
0.0117782
0.0116767
0.00136318
0.00130985
0.00135318
0.00129949
0.0114281
0.0112527
0.0112926
0.0111157
0.00122874
0.00117854
0.00121778
0.00116715
0.011186
0.0111853
0.0110486
0.011048
0.001155
0.00115495
0.0011434
0.00114335
0.0112507
0.0114247
0.0111137
0.0112892
0.00117839
0.00122849
0.001167
0.00121754
0.0118037
0.011899
0.0116717
0.0117711
0.00130953
0.00136281
0.00129917
0.00135281
0.0121173
0.0120267
0.0120167
0.0119228
0.00137963
0.0013269
0.00137192
0.0013189
0.0116517
0.0114785
0.0115449
0.0113705
0.0012468
0.00119733
0.00123832
0.00118851
0.0114124
0.0114117
0.0113039
0.0113033
0.00117414
0.00117408
0.00116515
0.0011651
0.0114765
0.0116482
0.0113685
0.0115415
0.00119717
0.00124655
0.00118835
0.00123808
0.0120216
0.0121101
0.0119177
0.0120095
0.00132658
0.00137925
0.00131858
0.00137154
0.0122802
0.0121951
0.0122027
0.0121149
0.00139205
0.0013398
0.00138626
0.00133378
0.0118244
0.0116531
0.0117419
0.0115696
0.0012605
0.0012116
0.00125411
0.00120494
0.0115875
0.0115868
0.0115035
0.0115029
0.00118868
0.00118863
0.00118189
0.00118184
0.0116511
0.0118208
0.0115675
0.0117384
0.00121144
0.00126026
0.00120478
0.00125386
0.0121899
0.0122729
0.0121097
0.0121953
0.00133948
0.00139167
0.00133346
0.00138588
0.0124022
0.0123214
0.0123442
0.0122613
0.00140109
0.00134921
0.00139692
0.00134486
0.0119541
0.0117845
0.0118922
0.0117216
0.00127055
0.00122209
0.0012659
0.00121723
0.0117193
0.0117187
0.011656
0.0116554
0.00119939
0.00119934
0.00119443
0.00119438
0.0117824
0.0119505
0.0117195
0.0118886
0.00122193
0.0012703
0.00121708
0.00126566
0.0123162
0.0123948
0.012256
0.0123368
0.00134889
0.00140071
0.00134454
0.00139654
0.0124894
0.012412
0.0124481
0.012369
0.00140726
0.00135567
0.00140446
0.00135274
0.0120472
0.0118791
0.0120028
0.0118337
0.0012775
0.00122939
0.00127434
0.00122606
0.0118145
0.0118138
0.0117687
0.011768
0.00120686
0.00120681
0.00120345
0.0012034
0.011877
0.0120436
0.0118317
0.0119992
0.00122924
0.00127726
0.00122591
0.00127409
0.0124067
0.0124819
0.0123637
0.0124405
0.00135535
0.00140687
0.00135242
0.00140408
0.0125468
0.0124722
0.0125198
0.0124437
0.00141099
0.00135963
0.00140936
0.00135789
0.0121094
0.0119424
0.0120798
0.011912
0.00128185
0.00123401
0.00127994
0.00123197
0.0118783
0.0118776
0.0118475
0.0118468
0.00121161
0.00121156
0.00120951
0.00120945
0.0119403
0.0121058
0.0119099
0.0120762
0.00123385
0.0012816
0.00123181
0.00127969
0.0124669
0.0125392
0.0124384
0.0125121
0.00135931
0.00141061
0.00135757
0.00140898
0.0125789
0.0125065
0.012564
0.0124904
0.00141265
0.00136145
0.00141202
0.00136074
0.0121451
0.0119791
0.0121281
0.0119614
0.00128398
0.00123634
0.00128313
0.0012354
0.0119154
0.0119147
0.0118974
0.0118967
0.00121405
0.00121399
0.00121305
0.001213
0.011977
0.0121414
0.0119594
0.0121245
0.00123619
0.00128373
0.00123524
0.00128288
0.0125012
0.0125713
0.0124851
0.0125563
0.00136113
0.00141226
0.00136042
0.00141163
0.0125886
0.012518
0.0125841
0.0125127
0.00141254
0.00136145
0.00141274
0.0013616
0.0121575
0.0119923
0.0121518
0.0119861
0.0012842
0.00123671
0.00128426
0.00123671
0.011929
0.0119283
0.0119225
0.0119218
0.00121449
0.00121443
0.00121446
0.00121441
0.0119902
0.0121539
0.0119841
0.0121482
0.00123655
0.00128395
0.00123656
0.00128401
0.0125127
0.012581
0.0125073
0.0125764
0.00136113
0.00141216
0.00136127
0.00141235
0.0125793
0.0125103
0.0125843
0.0125145
0.00141088
0.00135987
0.00141187
0.00136082
0.0121505
0.011986
0.0121542
0.0119893
0.00128283
0.00123546
0.0012837
0.00123628
0.0119231
0.0119224
0.011926
0.0119254
0.0012133
0.00121324
0.00121409
0.00121403
0.011984
0.0121469
0.0119872
0.0121506
0.0012353
0.00128258
0.00123612
0.00128345
0.012505
0.0125716
0.0125091
0.0125766
0.00135955
0.0014105
0.0013605
0.00141148
0.012553
0.0124854
0.0125663
0.0124978
0.00140787
0.0013569
0.0014095
0.0013585
0.0121259
0.0119619
0.0121379
0.0119735
0.00128001
0.00123271
0.00128154
0.00123421
0.0118993
0.0118986
0.0119106
0.0119099
0.00121059
0.00121054
0.00121207
0.00121202
0.0119598
0.0121222
0.0119714
0.0121343
0.00123256
0.00127976
0.00123406
0.0012813
0.0124801
0.0125454
0.0124925
0.0125585
0.00135658
0.00140749
0.00135818
0.00140911
0.0125117
0.0124453
0.0125323
0.0124651
0.00140366
0.0013527
0.00140587
0.0013549
0.0120856
0.011922
0.0121053
0.0119413
0.00127592
0.00122868
0.00127807
0.00123081
0.0118597
0.0118591
0.0118787
0.011878
0.00120658
0.00120653
0.00120869
0.00120864
0.01192
0.012082
0.0119392
0.0121017
0.00122852
0.00127568
0.00123065
0.00127783
0.01244
0.0125041
0.0124597
0.0125246
0.00135238
0.00140328
0.00135458
0.00140549
0.0124565
0.0123912
0.0124838
0.0124178
0.00139834
0.00134738
0.00140109
0.00135013
0.0120312
0.0118679
0.0120578
0.0118941
0.0012707
0.00122347
0.00127341
0.00122617
0.0118058
0.0118052
0.0118318
0.0118311
0.00120139
0.00120134
0.00120408
0.00120403
0.0118658
0.0120276
0.011892
0.0120542
0.00122332
0.00127045
0.00122602
0.00127316
0.0123859
0.0124489
0.0124125
0.0124762
0.00134706
0.00139797
0.00134981
0.00140072
0.0123884
0.0123242
0.0124221
0.0123572
0.00139201
0.00134101
0.00139526
0.00134427
0.0119635
0.0118004
0.0119966
0.0118332
0.0012644
0.00121719
0.00126764
0.00122042
0.0117386
0.0117379
0.0117711
0.0117704
0.0011951
0.00119505
0.00119833
0.00119828
0.0117983
0.01196
0.0118311
0.0119931
0.00121703
0.00126416
0.00122027
0.0012674
0.012319
0.0123809
0.0123519
0.0124145
0.0013407
0.00139164
0.00134396
0.00139489
0.012308
0.0122449
0.0123478
0.012284
0.00138469
0.00133364
0.00138843
0.0013374
0.0118833
0.0117202
0.0119226
0.0117592
0.0012571
0.00120987
0.00126084
0.00121361
0.0116585
0.0116579
0.0116974
0.0116967
0.00118777
0.00118772
0.00119152
0.00119147
0.0117182
0.0118798
0.0117572
0.0119191
0.00120972
0.00125686
0.00121346
0.0012606
0.0122398
0.0123006
0.0122788
0.0123402
0.00133333
0.00138432
0.00133709
0.00138806
0.0122155
0.0121536
0.0122613
0.0121987
0.00137641
0.00132529
0.00138063
0.00132954
0.0117908
0.0116275
0.0118362
0.0116728
0.0012488
0.00120153
0.00125304
0.00120579
0.0115661
0.0115654
0.0116111
0.0116105
0.00117942
0.00117937
0.00118368
0.00118363
0.0116255
0.0117873
0.0116708
0.0118327
0.00120139
0.00124857
0.00120564
0.0012528
0.0121485
0.0122082
0.0121936
0.0122539
0.00132499
0.00137605
0.00132924
0.00138026
0.012111
0.0120503
0.0121629
0.0121014
0.00136718
0.00131597
0.00137188
0.00132071
0.0116859
0.0115225
0.0117376
0.011574
0.00123952
0.00119219
0.00124425
0.00119695
0.0114611
0.0114605
0.0115124
0.0115118
0.00117005
0.00117
0.00117483
0.00117478
0.0115205
0.0116825
0.011572
0.0117341
0.00119204
0.00123928
0.0011968
0.00124401
0.0120453
0.0121039
0.0120964
0.0121556
0.00131567
0.00136682
0.00132041
0.00137152
0.0119944
0.0119348
0.0120524
0.0119921
0.00135697
0.00130566
0.00136216
0.0013109
0.0115686
0.0114048
0.0116265
0.0114627
0.00122921
0.00118181
0.00123446
0.00118709
0.0113435
0.0113429
0.0114012
0.0114006
0.00115963
0.00115958
0.00116493
0.00116488
0.0114028
0.0115653
0.0114607
0.0116232
0.00118166
0.00122899
0.00118695
0.00123423
0.0119299
0.0119873
0.0119871
0.0120452
0.00130536
0.00135662
0.0013106
0.00136181
0.0118651
0.0118066
0.0119295
0.0118703
0.00134576
0.00129431
0.00135146
0.00130007
0.0114383
0.0112739
0.0115028
0.0113384
0.00121785
0.00117034
0.00122363
0.00117617
0.0112127
0.0112121
0.0112771
0.0112764
0.00114811
0.00114806
0.00115397
0.00115392
0.011272
0.011435
0.0113365
0.0114995
0.0011702
0.00121763
0.00117603
0.00122341
0.0118018
0.0118581
0.0118654
0.0119224
0.00129402
0.00134541
0.00129978
0.00135111
0.0117225
0.011665
0.0117936
0.0117355
0.00133349
0.00128187
0.00133972
0.00128819
0.0112942
0.0111291
0.0113657
0.0112008
0.00120538
0.00115772
0.00121172
0.00116414
0.011068
0.0110674
0.0111394
0.0111388
0.00113542
0.00113537
0.00114188
0.00114183
0.0111273
0.011291
0.0111989
0.0113625
0.00115758
0.00120515
0.001164
0.0012115
0.0116602
0.0117157
0.0117307
0.0117867
0.00128158
0.00133315
0.0012879
0.00133938
0.0115659
0.0115091
0.0116442
0.0115869
0.0013201
0.00126827
0.0013269
0.00127518
0.0111354
0.0109696
0.0112145
0.0110488
0.0011917
0.00114387
0.00119866
0.00115092
0.0109085
0.0109079
0.0109875
0.0109869
0.00112148
0.00112144
0.00112858
0.00112853
0.0109677
0.0111323
0.0110469
0.0112113
0.00114373
0.00119148
0.00115078
0.00119844
0.0115044
0.0115592
0.0115822
0.0116374
0.00126799
0.00131977
0.0012749
0.00132656
0.0113942
0.0113379
0.0114802
0.0114235
0.00130552
0.00125345
0.00131293
0.00126098
0.010961
0.0107941
0.0110481
0.0108815
0.00117673
0.00112867
0.00118435
0.00113641
0.0107331
0.0107325
0.0108203
0.0108197
0.00110618
0.00110614
0.00111397
0.00111393
0.0107923
0.0109579
0.0108796
0.0110449
0.00112854
0.00117651
0.00113627
0.00118413
0.0113333
0.0113878
0.0114189
0.0114736
0.00125318
0.00130519
0.0012607
0.0013126
0.0112064
0.0111501
0.0113007
0.0112443
0.00128966
0.00123731
0.00129772
0.00124552
0.0107694
0.0106014
0.0108653
0.0106976
0.00116036
0.00111202
0.00116869
0.0011205
0.0105405
0.0105399
0.0106365
0.0106359
0.00108939
0.00108935
0.00109795
0.0010979
0.0105996
0.0107663
0.0106958
0.0108622
0.00111188
0.00116014
0.00112037
0.00116848
0.0111456
0.0112001
0.0112398
0.0112943
0.00123704
0.00128934
0.00124525
0.0012974
0.0110007
0.0109438
0.0111042
0.0110475
0.00127239
0.00121972
0.00128118
0.00122867
0.0105589
0.0103897
0.0106645
0.0104957
0.00114243
0.00109374
0.00115156
0.00110306
0.010329
0.0103284
0.0104347
0.0104341
0.00107096
0.00107091
0.00108036
0.00108031
0.010388
0.0105559
0.0104939
0.0106615
0.00109361
0.00114222
0.00110292
0.00115136
0.0109394
0.0109946
0.0110431
0.0110979
0.00121945
0.00127208
0.0012284
0.00128086
0.0107752
0.010717
0.0108889
0.0108313
0.00125359
0.00120052
0.00126316
0.00121029
0.0103275
0.0101569
0.0104439
0.0102738
0.00112279
0.00107367
0.00113281
0.00108391
0.0100965
0.0100959
0.010213
0.0102125
0.00105069
0.00105064
0.00106103
0.00106099
0.0101552
0.0103246
0.0102721
0.010441
0.00107354
0.00112259
0.00108378
0.0011326
0.0107129
0.0107693
0.0108271
0.0108829
0.00120027
0.00125328
0.00121003
0.00126285
0.0105274
0.0104675
0.0106527
0.0105936
0.00123308
0.00117959
0.00124353
0.00119025
0.0100727
0.0099005
0.0102012
0.0100296
0.00110124
0.00105157
0.00111224
0.00106285
0.00984036
0.00983983
0.00996915
0.00996862
0.00102833
0.00102829
0.00103975
0.00103971
0.00989889
0.0100699
0.010028
0.0101984
0.00105144
0.00110104
0.00106273
0.00111204
0.0104635
0.0105218
0.0105894
0.0106468
0.00117933
0.00123278
0.00118999
0.00124322
0.0102543
0.0101922
0.0103927
0.0103316
0.00121071
0.00115676
0.0012221
0.00116838
0.00979135
0.00961694
0.0099337
0.00976021
0.00107753
0.00102713
0.00108964
0.00103963
0.00955709
0.00955659
0.00970006
0.00969955
0.00100356
0.00100352
0.00101624
0.0010162
0.0096154
0.0097887
0.00975864
0.00993099
0.001027
0.00107734
0.00103951
0.00108945
0.0101884
0.0102489
0.0103277
0.0103871
0.00115652
0.00121042
0.00116814
0.00122181
0.00995333
0.00988761
0.0101059
0.0100422
0.0011865
0.001132
0.00119879
0.00114459
0.00947857
0.00930116
0.00963746
0.00946136
0.00105129
0.000999859
0.00106473
0.00101386
0.00924185
0.00924139
0.00940154
0.00940106
0.000975853
0.000975813
0.000990085
0.000990044
0.00929973
0.00947608
0.00945988
0.00963488
0.000999743
0.00105111
0.00101374
0.00106455
0.00988398
0.00994825
0.0100385
0.0101006
0.00113177
0.00118623
0.00114435
0.0011985
0.00963187
0.00954816
0.00979199
0.00972137
0.00116167
0.00110514
0.00117394
0.00111886
0.00912572
0.00894705
0.0093062
0.00912716
0.00102154
0.000968847
0.00103695
0.000984874
0.00889048
0.00889007
0.00906853
0.0090681
0.000944449
0.000944411
0.000960633
0.000960594
0.00894577
0.00912347
0.00912581
0.00930382
0.000968738
0.00102137
0.000984761
0.00103677
0.00954486
0.00962719
0.00971789
0.00978704
0.00110492
0.00116142
0.00111864
0.00117367
0.00935886
0.00913766
0.00948015
0.00935701
0.0011401
0.00106847
0.00115052
0.00108961
0.00872085
0.00855958
0.00892792
0.0087536
0.000984706
0.000932833
0.00100438
0.000951473
0.00851281
0.00851245
0.00870073
0.00870035
0.00090891
0.000908875
0.000927131
0.000927095
0.00855847
0.00871889
0.00875241
0.00892581
0.000932733
0.00098455
0.000951369
0.00100421
0.0091348
0.00935478
0.00935391
0.00947569
0.00106828
0.00113988
0.0010894
0.00115027
0.00673294
0.00617754
0.00468362
0.00425189
0.00551656
0.00501484
0.00371262
0.00335177
0.00514372
0.00450514
0.00316179
0.00234936
0.00401918
0.00337259
0.00233399
0.0015286
0.00431291
0.00431287
0.00193516
0.0019355
0.00318306
0.00318319
0.000896794
0.000897022
0.00450427
0.00514147
0.00234919
0.00316032
0.00337215
0.0040177
0.00152872
0.00233312
0.00617404
0.00672815
0.0042492
0.00467964
0.00501241
0.0055131
0.00334997
0.00370983
0.0102064
0.00966304
0.00853027
0.00796572
0.00830635
0.0078135
0.00698799
0.00647296
0.00880348
0.00841756
0.00701707
0.00652366
0.00698471
0.00660293
0.00555499
0.00505944
0.00837281
0.00837223
0.00642609
0.00642577
0.0065552
0.00655488
0.00495627
0.00495614
0.00841544
0.00879948
0.00652217
0.00701397
0.00660157
0.00698196
0.00505853
0.00555288
0.00965741
0.0101993
0.00796121
0.00852434
0.00780949
0.00830108
0.00646977
0.00698367
0.0133198
0.0128315
0.0117998
0.011284
0.0106847
0.0102489
0.00953244
0.00906842
0.0121115
0.0118525
0.0105009
0.0101896
0.00956203
0.00930901
0.0083178
0.00801275
0.0118536
0.0118526
0.0101739
0.0101731
0.00930394
0.0093033
0.00799293
0.00799244
0.0118492
0.0121057
0.0101869
0.010496
0.00930683
0.00955804
0.00801097
0.00831441
0.0128236
0.01331
0.0112772
0.0117912
0.0102433
0.0106775
0.00906358
0.00952612
0.0161153
0.0156754
0.0147577
0.0142947
0.0127632
0.0123791
0.0117592
0.0113506
0.0150485
0.0148524
0.0136256
0.0134027
0.0117865
0.0115945
0.0107153
0.0104976
0.0148674
0.0148659
0.0134125
0.0134113
0.0115999
0.011599
0.0104994
0.0104986
0.014848
0.0150411
0.0133988
0.0136189
0.0115916
0.0117814
0.010495
0.0107107
0.0156654
0.0161029
0.0142857
0.0147464
0.012372
0.0127541
0.0113442
0.011751
0.0185718
0.0181707
0.0173848
0.0169653
0.0145551
0.0142123
0.0136927
0.0133304
0.0176077
0.0174459
0.0163728
0.0161958
0.0136841
0.0135246
0.0127726
0.0125987
0.0174643
0.0174625
0.0162128
0.0162112
0.0135315
0.0135304
0.0126051
0.0126041
0.0174406
0.0175988
0.0161909
0.0163646
0.0135211
0.0136781
0.0125955
0.0127671
0.0181589
0.0185573
0.0169544
0.0173712
0.014204
0.0145445
0.0133227
0.0136828
0.0206908
0.0203205
0.0196706
0.0192856
0.0160774
0.0157673
0.0153467
0.0150211
0.0198034
0.0196625
0.018747
0.0185963
0.015285
0.0151452
0.0145174
0.0143684
0.019681
0.0196789
0.0186146
0.0186127
0.0151513
0.01515
0.0143747
0.0143735
0.0196564
0.0197934
0.0185905
0.0187375
0.0151413
0.0152783
0.0143647
0.014511
0.0203072
0.0206743
0.019273
0.0196549
0.0157581
0.0160655
0.0150123
0.0153353
0.022493
0.0221472
0.0216276
0.0212701
0.0173557
0.0170718
0.0167435
0.016447
0.0216644
0.0215374
0.020771
0.0206372
0.0166236
0.0164969
0.0159826
0.0158495
0.0215552
0.0215529
0.020655
0.0206529
0.0165018
0.0165004
0.0158547
0.0158534
0.0215307
0.0216534
0.0206307
0.0207605
0.0164926
0.0166164
0.0158454
0.0159756
0.0221326
0.022475
0.0212561
0.0216102
0.0170618
0.0173428
0.0164373
0.0167309
0.0240091
0.0236826
0.0232827
0.0229469
0.018419
0.0181565
0.0179103
0.0176375
0.0232262
0.0231091
0.0224777
0.0223555
0.0177344
0.0176171
0.0172029
0.0170808
0.0231261
0.0231237
0.0223725
0.0223702
0.0176211
0.0176196
0.017085
0.0170835
0.0231018
0.0232144
0.0223484
0.0224662
0.0176125
0.0177267
0.0170763
0.0171954
0.023667
0.0239898
0.0229317
0.0232638
0.0181458
0.0184051
0.0176271
0.0178967
0.0252702
0.0249594
0.0246672
0.0243487
0.0192958
0.0190504
0.0188767
0.0186231
0.0245236
0.0244141
0.0239027
0.0237891
0.0186486
0.0185384
0.0182115
0.0180975
0.0244306
0.024428
0.0238055
0.023803
0.0185419
0.0185403
0.018101
0.0180994
0.0244064
0.0245111
0.0237817
0.0238906
0.0185336
0.0186405
0.0180928
0.0182035
0.0249429
0.0252498
0.0243325
0.0246471
0.0190392
0.0192812
0.0186121
0.0188623
0.026308
0.0260101
0.0258125
0.0255083
0.0200129
0.0197806
0.0196705
0.0194319
0.0255909
0.0254875
0.0250808
0.024974
0.0193947
0.0192901
0.0190381
0.0189305
0.0255037
0.025501
0.02499
0.0249873
0.0192934
0.0192917
0.0189335
0.0189319
0.0254795
0.0255779
0.0249661
0.0250681
0.0192851
0.0193863
0.0189255
0.0190298
0.0259929
0.0262866
0.0254914
0.0257914
0.019769
0.0199977
0.0194204
0.0196554
0.0271518
0.0268646
0.0267497
0.0264572
0.0205921
0.0203703
0.0203159
0.0200889
0.0264587
0.0263603
0.0260446
0.0259432
0.0199971
0.019897
0.0197094
0.0196067
0.0263765
0.0263737
0.0259591
0.0259563
0.0199002
0.0198985
0.0196096
0.0196079
0.026352
0.0264453
0.025935
0.0260313
0.0198918
0.0199884
0.0196015
0.0197008
0.0268467
0.0271297
0.0264396
0.0267277
0.0203582
0.0205763
0.0200771
0.0203002
0.0278285
0.0275498
0.0275068
0.0272238
0.0210533
0.0208399
0.0208337
0.0206161
0.0271548
0.0270605
0.0268231
0.0267263
0.0204769
0.0203805
0.0202479
0.0201493
0.0270769
0.027074
0.0267423
0.0267394
0.0203839
0.0203822
0.0201522
0.0201505
0.0270519
0.0271409
0.0267179
0.0268095
0.0203752
0.020468
0.020144
0.020239
0.0275314
0.0278056
0.0272056
0.027484
0.0208276
0.0210371
0.0206039
0.0208175
0.0283608
0.0280891
0.0281084
0.0278332
0.0214135
0.0212069
0.0212423
0.0210323
0.0277028
0.0276121
0.0274423
0.0273493
0.0208521
0.0207589
0.0206731
0.0205779
0.0276289
0.0276259
0.0273655
0.0273626
0.0207625
0.0207607
0.0205812
0.0205794
0.0276034
0.0276887
0.0273406
0.0274282
0.0207534
0.0208429
0.0205725
0.0206641
0.0280703
0.0283373
0.0278145
0.0280849
0.0211943
0.0213969
0.0210197
0.0212256
0.0287692
0.0285032
0.0285763
0.0283074
0.0216875
0.0214863
0.0215576
0.0213536
0.0281241
0.0280364
0.0279244
0.0278347
0.021138
0.0210475
0.0210018
0.0209095
0.0280536
0.0280506
0.0278513
0.0278483
0.0210516
0.0210498
0.0209131
0.0209113
0.0280275
0.0281096
0.0278258
0.02791
0.021042
0.0211288
0.020904
0.0209926
0.028484
0.0287453
0.0282883
0.0285523
0.0214735
0.0216706
0.0213408
0.0215406
0.0290712
0.0288098
0.0289295
0.0286656
0.0218878
0.0216909
0.0217932
0.021594
0.0284365
0.0283515
0.028289
0.0282022
0.0213478
0.0212597
0.0212481
0.0211583
0.0283692
0.0283662
0.0282193
0.0282162
0.0212643
0.0212624
0.0211624
0.0211605
0.0283424
0.0284218
0.0281931
0.0282745
0.021254
0.0213384
0.0211527
0.0212388
0.0287903
0.0290469
0.0286462
0.028905
0.0216779
0.0218705
0.0215811
0.0217759
0.029282
0.0290242
0.029184
0.0289242
0.0220249
0.0218314
0.0219606
0.0217653
0.0286556
0.0285728
0.0285529
0.0284685
0.0214926
0.0214064
0.021424
0.0213364
0.0285912
0.0285881
0.0284861
0.028483
0.0214115
0.0214097
0.0213409
0.021339
0.0285636
0.0286407
0.0284593
0.0285381
0.0214007
0.0214831
0.0213307
0.0214146
0.0290045
0.0292574
0.0289046
0.0291592
0.0218183
0.0220075
0.0217522
0.021943
0.0294129
0.0291583
0.0293534
0.0290972
0.0221072
0.0219167
0.0220696
0.0218773
0.0287939
0.0287136
0.0287302
0.028648
0.0215815
0.0214972
0.0215397
0.0214539
0.0287328
0.0287296
0.0286663
0.0286632
0.0215028
0.0215009
0.021459
0.0214571
0.0287044
0.0287789
0.0286388
0.0287153
0.0214915
0.021572
0.0214482
0.0215302
0.0291384
0.0293881
0.0290774
0.0293284
0.0219034
0.0220897
0.0218641
0.0220518
0.0294776
0.0292253
0.0294496
0.0291958
0.0221437
0.021955
0.0221274
0.0219376
0.0288635
0.0287843
0.0288324
0.0287523
0.0216218
0.0215387
0.0216032
0.0215194
0.0288038
0.0288007
0.0287714
0.0287683
0.0215449
0.021543
0.0215252
0.0215233
0.028775
0.0288485
0.028743
0.0288174
0.0215329
0.0216122
0.0215137
0.0215937
0.0292054
0.0294528
0.0291759
0.0294245
0.0219417
0.022126
0.0219243
0.0221095
0.0294829
0.0292325
0.0294838
0.0292324
0.022139
0.0219521
0.0221429
0.021955
0.0288735
0.0287961
0.0288715
0.0287929
0.0216212
0.0215395
0.0216227
0.0215399
0.0288164
0.0288133
0.0288125
0.0288093
0.0215464
0.0215445
0.0215462
0.0215443
0.0287868
0.0288584
0.0287835
0.0288565
0.0215338
0.0216116
0.0215342
0.0216131
0.0292126
0.029458
0.0292123
0.0294586
0.0219388
0.0221213
0.0219417
0.0221249
0.0294367
0.029188
0.0294626
0.0292128
0.0220988
0.0219133
0.0221199
0.0219335
0.0288308
0.0287548
0.0288542
0.0287769
0.0215837
0.0215031
0.0216027
0.0215211
0.0287757
0.0287726
0.0287971
0.0287939
0.0215106
0.0215086
0.021528
0.0215261
0.0287455
0.0288158
0.0287675
0.0288391
0.0214974
0.0215741
0.0215154
0.0215931
0.0291681
0.0294119
0.0291928
0.0294373
0.0219
0.0220812
0.0219201
0.022102
0.029345
0.0290976
0.029393
0.0291447
0.0220271
0.0218425
0.0220635
0.0218782
0.0287419
0.0286669
0.0287877
0.0287116
0.0215138
0.0214341
0.0215486
0.021468
0.0286885
0.0286853
0.0287324
0.0287293
0.0214421
0.0214402
0.0214754
0.0214734
0.0286576
0.0287269
0.0287023
0.0287727
0.0214284
0.0215043
0.0214622
0.0215391
0.0290777
0.0293203
0.0291247
0.0293679
0.0218293
0.0220095
0.021865
0.0220456
0.0292121
0.0289657
0.0292802
0.0290331
0.0219267
0.0217429
0.0219771
0.0217927
0.0286111
0.028537
0.0286774
0.0286022
0.0214147
0.0213357
0.0214638
0.0213839
0.0285591
0.028556
0.0286237
0.0286205
0.0213441
0.0213423
0.0213918
0.0213899
0.0285278
0.0285962
0.0285929
0.0286624
0.02133
0.0214052
0.0213782
0.0214543
0.028946
0.0291876
0.0290132
0.0292552
0.0217298
0.0219093
0.0217795
0.0219593
0.0290411
0.0287956
0.029128
0.0288818
0.0217997
0.0216165
0.0218632
0.0216795
0.0284416
0.0283683
0.0285269
0.0284526
0.0212884
0.0212099
0.0213508
0.0212715
0.028391
0.0283879
0.0284746
0.0284715
0.0212188
0.0212169
0.0212799
0.021278
0.0283592
0.0284269
0.0284434
0.0285121
0.0212042
0.0212789
0.0212659
0.0213414
0.0287761
0.0290169
0.0288621
0.0291032
0.0216035
0.0217825
0.0216664
0.0218456
0.0288342
0.0285892
0.0289389
0.0286934
0.0216476
0.0214648
0.0217236
0.0215403
0.0282356
0.0281629
0.028339
0.0282654
0.0211363
0.0210581
0.0212115
0.0211327
0.028186
0.0281829
0.0282878
0.0282847
0.0210675
0.0210656
0.0211415
0.0211396
0.0281538
0.028221
0.0282562
0.0283243
0.0210525
0.021127
0.021127
0.0212022
0.0285699
0.0288102
0.0286739
0.0289144
0.0214519
0.0216306
0.0215274
0.0217061
0.0285922
0.0283477
0.0287144
0.0284694
0.0214709
0.0212884
0.0215592
0.0213763
0.027994
0.0279216
0.0281152
0.028042
0.0209592
0.0208812
0.0210469
0.0209683
0.0279451
0.0279421
0.0280649
0.0280618
0.0208909
0.020889
0.0209775
0.0209756
0.0279126
0.0279796
0.0280329
0.0281007
0.0208756
0.02095
0.0209627
0.0210377
0.0283287
0.0285686
0.0284502
0.0286902
0.0212757
0.0214542
0.0213635
0.021542
0.0283152
0.028071
0.028455
0.0282104
0.0212698
0.0210873
0.0213703
0.0211876
0.0277169
0.0276446
0.0278559
0.0277829
0.020757
0.020679
0.0208574
0.0207788
0.0276685
0.0276655
0.0278063
0.0278032
0.0206891
0.0206872
0.0207883
0.0207865
0.0276357
0.0277027
0.027774
0.0278416
0.0206735
0.020748
0.0207733
0.0208482
0.0280523
0.0282921
0.0281915
0.0284313
0.0210748
0.0212533
0.021175
0.0213534
0.0280026
0.0277584
0.0281604
0.0279159
0.0210438
0.0208611
0.0211569
0.0209741
0.0274034
0.0273309
0.0275608
0.0274878
0.0205293
0.0204511
0.0206426
0.0205639
0.0273551
0.0273522
0.0275115
0.0275085
0.0204614
0.0204596
0.0205738
0.020572
0.0273222
0.0273895
0.027479
0.0275467
0.0204457
0.0205204
0.0205585
0.0206336
0.0277401
0.0279799
0.0278974
0.0281371
0.0208489
0.0210276
0.0209617
0.0211403
0.0276528
0.0274083
0.0278295
0.0275849
0.0207918
0.0206087
0.0209181
0.020735
0.027052
0.0269791
0.0272287
0.0271554
0.020275
0.0201963
0.0204018
0.0203228
0.0270035
0.0270006
0.0271793
0.0271764
0.0202069
0.0202051
0.0203329
0.0203311
0.0269705
0.0270383
0.0271467
0.0272149
0.0201911
0.0202663
0.0203175
0.020393
0.0273904
0.0276306
0.0275667
0.0278067
0.0205967
0.020776
0.0207229
0.0209019
0.0272635
0.0270184
0.0274604
0.0272153
0.0205124
0.0203286
0.0206527
0.0204691
0.0266601
0.0265865
0.0268575
0.0267836
0.0199925
0.0199131
0.0201337
0.0200541
0.0266112
0.0266083
0.0268077
0.0268049
0.0199239
0.0199222
0.0200644
0.0200627
0.0265782
0.0266467
0.0267751
0.0268439
0.019908
0.0199839
0.0200489
0.020125
0.0270009
0.0272419
0.0271975
0.0274381
0.0203169
0.020497
0.0204572
0.0206368
0.026832
0.0265857
0.0270504
0.0268045
0.0202037
0.0200187
0.020359
0.0201744
0.0262248
0.0261503
0.0264444
0.0263697
0.0196797
0.0195995
0.0198364
0.0197561
0.026175
0.0261722
0.026394
0.0263912
0.0196103
0.0196087
0.0197665
0.0197648
0.0261421
0.0262118
0.0263614
0.0264311
0.0195944
0.0196713
0.019751
0.0198279
0.0265686
0.026811
0.0267872
0.0270288
0.0200072
0.0201887
0.0201628
0.0203435
0.0263546
0.0261069
0.0265965
0.0263493
0.0198634
0.0196768
0.0200348
0.0198489
0.0257424
0.0256665
0.0259862
0.0259103
0.0193342
0.0192528
0.0195077
0.0194263
0.0256912
0.0256885
0.0259347
0.0259319
0.0192638
0.0192621
0.0194369
0.0194352
0.0256585
0.0257297
0.0259022
0.0259732
0.0192478
0.0193261
0.0194213
0.0194994
0.0260902
0.0263343
0.0263324
0.0265755
0.0196656
0.0198488
0.0198375
0.0200198
0.0258271
0.0255772
0.0260948
0.0258458
0.0194885
0.0192997
0.0196777
0.0194899
0.0252083
0.0251305
0.0254786
0.0254011
0.0189529
0.0188699
0.0191448
0.0190621
0.0251552
0.0251526
0.0254255
0.0254228
0.018881
0.0188794
0.0190728
0.0190712
0.0251227
0.0251959
0.0253933
0.0254661
0.0188651
0.018945
0.0190572
0.0191367
0.0255611
0.0258074
0.0258294
0.0260745
0.0192889
0.0194744
0.0194789
0.0196632
0.0252442
0.0249914