/*--------------------------------*- C++ -*----------------------------------*\
  =========                 |
  \\      /  F ield         | OpenFOAM: The Open Source CFD Toolbox
   \\    /   O peration     | Website:  https://openfoam.org
    \\  /    A nd           | Version:  9
     \\/     M anipulation  |
\*---------------------------------------------------------------------------*/
FoamFile
{
    format      ascii;
    class       volVectorField;
    location    "0.45";
    object      U;
}
// * * * * * * * * * * * * * * * * * * * * * * * * * * * * * * * * * * * * * //

dimensions      [0 1 -1 0 0 0 0];

internalField   nonuniform List<vector> 
36360
(
(0.00100439 -0.121137 -0.500857)
(-0.00194648 -0.110893 5.57531e-05)
(0.000729806 -0.123354 -0.501855)
(-0.00306631 -0.104769 2.8495e-05)
(-0.00240135 -0.11213 -0.501179)
(0.00659815 -0.113524 2.77037e-05)
(-0.000647111 -0.113071 -0.50218)
(0.00873367 -0.116963 2.07389e-05)
(-0.000849016 -0.116188 -3.49365e-05)
(-0.000782713 -0.11644 -1.91192e-06)
(-0.00143366 -0.11426 -1.95411e-05)
(-0.00126088 -0.11461 -6.84815e-07)
(0.00220625 -0.113926 -2.13304e-05)
(0.00172494 -0.113185 -1.85916e-06)
(0.00459017 -0.116221 -2.14999e-05)
(0.00422275 -0.115224 -1.21011e-06)
(-0.000777051 -0.116365 -1.33327e-07)
(-0.000777052 -0.116365 1.50864e-07)
(-0.00124976 -0.114542 -3.11301e-08)
(-0.00124976 -0.114542 3.60783e-08)
(0.00169593 -0.113048 -1.50408e-07)
(0.00169593 -0.113048 1.66594e-07)
(0.00420024 -0.115073 -7.35621e-08)
(0.00420024 -0.115073 7.78323e-08)
(-0.000782721 -0.116439 1.92614e-06)
(-0.000849068 -0.116188 3.49353e-05)
(-0.00126089 -0.114609 6.89155e-07)
(-0.00143369 -0.114259 1.95414e-05)
(0.00172494 -0.113184 1.86743e-06)
(0.00220624 -0.113926 2.1341e-05)
(0.00422275 -0.115223 1.21285e-06)
(0.00459016 -0.116221 2.15034e-05)
(-0.00194665 -0.110894 -5.57561e-05)
(0.00100441 -0.121138 0.500857)
(-0.00306654 -0.104769 -2.84954e-05)
(0.00072969 -0.123355 0.501855)
(0.00659879 -0.113526 -2.76936e-05)
(-0.00240124 -0.11213 0.501179)
(0.00873355 -0.116964 -2.07354e-05)
(-0.000647194 -0.113071 0.50218)
(0.00133175 -0.119669 -0.501038)
(-0.00176823 -0.113148 5.28936e-05)
(0.00121189 -0.120587 -0.50111)
(-0.0016165 -0.112364 5.69713e-05)
(-0.00217032 -0.115221 -0.502002)
(0.00247249 -0.109765 1.63555e-05)
(-0.00265752 -0.114034 -0.501563)
(0.00406784 -0.110116 2.13099e-05)
(-0.000121912 -0.116414 -2.42981e-05)
(-4.56336e-05 -0.11669 -3.88783e-06)
(-0.000227511 -0.116581 -3.05544e-05)
(-0.000157355 -0.116865 -2.96203e-06)
(0.000346919 -0.113009 -8.93454e-06)
(-1.95541e-05 -0.112852 -3.44307e-06)
(0.000806885 -0.112948 -1.49252e-05)
(0.000350733 -0.112617 -2.64324e-06)
(-3.54179e-05 -0.116617 -3.65444e-07)
(-3.54115e-05 -0.116617 4.32917e-07)
(-0.000147739 -0.116792 -2.44681e-07)
(-0.000147739 -0.116792 2.8727e-07)
(-4.1213e-05 -0.112752 -3.8707e-07)
(-4.12101e-05 -0.112752 4.29348e-07)
(0.000323173 -0.112507 -2.38762e-07)
(0.000323172 -0.112507 2.99266e-07)
(-4.56038e-05 -0.116689 3.95299e-06)
(-0.00012193 -0.116414 2.43411e-05)
(-0.000157356 -0.116865 2.99396e-06)
(-0.000227538 -0.116581 3.05607e-05)
(-1.95427e-05 -0.112852 3.47538e-06)
(0.000346858 -0.113008 8.97437e-06)
(0.000350728 -0.112616 2.63084e-06)
(0.00080685 -0.112948 1.49138e-05)
(-0.00176853 -0.113148 -5.28653e-05)
(0.00133186 -0.119669 0.501037)
(-0.00161674 -0.112365 -5.6965e-05)
(0.001212 -0.120588 0.50111)
(0.00247382 -0.109766 -1.63266e-05)
(-0.00216923 -0.115221 0.502001)
(0.00406913 -0.110117 -2.12701e-05)
(-0.00265775 -0.114034 0.501562)
(0.00164725 -0.118475 -0.500994)
(-0.00184673 -0.114069 4.2453e-05)
(0.00151992 -0.118913 -0.501006)
(-0.00184141 -0.113704 4.77254e-05)
(-0.00131683 -0.115175 -0.501989)
(0.00145589 -0.110065 6.61124e-06)
(-0.0016396 -0.115284 -0.501994)
(0.00172501 -0.109867 1.15606e-05)
(-2.21185e-06 -0.116124 -1.25092e-05)
(5.03998e-05 -0.11642 -4.94078e-06)
(-4.69348e-05 -0.116238 -1.81205e-05)
(2.01876e-05 -0.116503 -4.5441e-06)
(0.000237084 -0.112858 2.48579e-06)
(-4.00203e-05 -0.112927 -4.42019e-06)
(0.000232306 -0.112955 -3.01706e-06)
(-6.48855e-05 -0.112932 -4.02674e-06)
(5.88391e-05 -0.116361 -6.44158e-07)
(5.88369e-05 -0.116361 6.59444e-07)
(2.97594e-05 -0.116435 -4.9201e-07)
(2.97616e-05 -0.116435 5.35027e-07)
(-5.41745e-05 -0.112853 -6.39524e-07)
(-5.41767e-05 -0.112853 6.48334e-07)
(-8.02516e-05 -0.112848 -5.13547e-07)
(-8.02507e-05 -0.112848 5.3963e-07)
(5.04093e-05 -0.11642 4.95039e-06)
(-2.27539e-06 -0.116124 1.24974e-05)
(2.02e-05 -0.116503 4.57062e-06)
(-4.70134e-05 -0.116238 1.81203e-05)
(-4.00171e-05 -0.112927 4.42649e-06)
(0.00023695 -0.112858 -2.45009e-06)
(-6.48807e-05 -0.112932 4.05004e-06)
(0.000232202 -0.112954 3.05432e-06)
(-0.00184695 -0.11407 -4.24606e-05)
(0.00164713 -0.118476 0.500993)
(-0.0018419 -0.113705 -4.77185e-05)
(0.0015198 -0.118913 0.501005)
(0.00145685 -0.110066 -6.5909e-06)
(-0.00131676 -0.115174 0.501989)
(0.00172598 -0.109868 -1.1538e-05)
(-0.00163946 -0.115284 0.501994)
(0.00178726 -0.117866 -0.500965)
(-0.00183648 -0.114495 3.29216e-05)
(0.0017344 -0.118154 -0.500974)
(-0.00184844 -0.114311 3.74786e-05)
(-0.00108538 -0.114723 -0.501974)
(0.00132194 -0.11054 -2.74217e-06)
(-0.00114829 -0.114984 -0.50198)
(0.00135538 -0.110304 1.76703e-06)
(4.05874e-05 -0.115907 -3.28507e-06)
(8.65961e-05 -0.116235 -5.17068e-06)
(2.43046e-05 -0.116011 -7.55629e-06)
(7.01839e-05 -0.11633 -5.13142e-06)
(0.000275062 -0.112617 1.16733e-05)
(3.46772e-05 -0.112814 -4.69874e-06)
(0.000261651 -0.112733 7.40138e-06)
(7.63106e-06 -0.112882 -4.62982e-06)
(9.2686e-05 -0.116199 -8.64026e-07)
(9.2685e-05 -0.116199 8.62639e-07)
(7.71167e-05 -0.116282 -7.79166e-07)
(7.71135e-05 -0.116282 7.82472e-07)
(2.014e-05 -0.112767 -8.59867e-07)
(2.01404e-05 -0.112767 8.58503e-07)
(-7.00273e-06 -0.112823 -7.53224e-07)
(-7.00482e-06 -0.112822 7.53946e-07)
(8.65987e-05 -0.116235 5.16477e-06)
(4.04833e-05 -0.115907 3.26926e-06)
(7.01909e-05 -0.11633 5.13025e-06)
(2.421e-05 -0.116011 7.54008e-06)
(3.46683e-05 -0.112814 4.69357e-06)
(0.00027493 -0.112617 -1.16492e-05)
(7.62845e-06 -0.112882 4.6237e-06)
(0.00026151 -0.112733 -7.37111e-06)
(-0.00183682 -0.114496 -3.29328e-05)
(0.00178697 -0.117867 0.500965)
(-0.00184879 -0.114312 -3.74896e-05)
(0.00173414 -0.118154 0.500973)
(0.00132273 -0.11054 2.76003e-06)
(-0.00108532 -0.114723 0.501974)
(0.00135615 -0.110305 -1.74652e-06)
(-0.00114828 -0.114985 0.50198)
(0.00187223 -0.117342 -0.500938)
(-0.00180444 -0.114737 2.49457e-05)
(0.00183699 -0.117598 -0.500947)
(-0.00182397 -0.114636 2.87661e-05)
(-0.00105884 -0.114147 -0.50196)
(0.00131803 -0.110906 -1.07119e-05)
(-0.00105784 -0.114436 -0.501966)
(0.0013093 -0.110744 -6.89731e-06)
(6.62396e-05 -0.115694 3.57175e-06)
(0.000121721 -0.116029 -4.95484e-06)
(5.33146e-05 -0.115802 3.99867e-07)
(0.000103275 -0.116136 -5.11163e-06)
(0.000291535 -0.112376 1.84683e-05)
(5.70649e-05 -0.112627 -4.5155e-06)
(0.00028418 -0.112498 1.53435e-05)
(4.80896e-05 -0.112729 -4.65069e-06)
(0.00012634 -0.116014 -1.02549e-06)
(0.00012634 -0.116014 1.02208e-06)
(0.000108819 -0.116111 -9.52717e-07)
(0.000108825 -0.116111 9.50606e-07)
(4.35626e-05 -0.112602 -1.02379e-06)
(4.35629e-05 -0.112602 1.01999e-06)
(3.41483e-05 -0.112693 -9.48463e-07)
(3.4148e-05 -0.112693 9.45878e-07)
(0.000121722 -0.116029 4.9485e-06)
(6.61469e-05 -0.115694 -3.58746e-06)
(0.000103268 -0.116136 5.10982e-06)
(5.32273e-05 -0.115802 -4.18771e-07)
(5.70547e-05 -0.112627 4.50846e-06)
(0.000291405 -0.112376 -1.84441e-05)
(4.80816e-05 -0.112728 4.64457e-06)
(0.000284063 -0.112498 -1.53197e-05)
(-0.00180471 -0.114738 -2.4956e-05)
(0.00187202 -0.117343 0.500938)
(-0.00182419 -0.114636 -2.87784e-05)
(0.00183684 -0.117598 0.500946)
(0.0013188 -0.110906 1.07304e-05)
(-0.00105873 -0.114146 0.50196)
(0.00131018 -0.110744 6.91497e-06)
(-0.00105759 -0.114438 0.501966)
(0.00194491 -0.116847 -0.500911)
(-0.00177787 -0.114823 1.82267e-05)
(0.00191352 -0.117093 -0.500919)
(-0.0017911 -0.114799 2.14496e-05)
(-0.00107094 -0.113578 -0.501946)
(0.00135652 -0.1111 -1.74199e-05)
(-0.00105854 -0.11386 -0.501951)
(0.00133217 -0.111024 -1.4215e-05)
(9.23308e-05 -0.115465 8.59212e-06)
(0.000161221 -0.115781 -4.49408e-06)
(7.89397e-05 -0.115583 6.29469e-06)
(0.000141121 -0.115911 -4.7409e-06)
(0.000307233 -0.112123 2.3357e-05)
(7.25311e-05 -0.112384 -4.08036e-06)
(0.000298747 -0.112252 2.11135e-05)
(6.475e-05 -0.112512 -4.31812e-06)
(0.000164591 -0.115784 -1.13601e-06)
(0.000164593 -0.115784 1.13032e-06)
(0.000145 -0.115906 -1.08746e-06)
(0.000145003 -0.115905 1.08298e-06)
(5.86131e-05 -0.11238 -1.1321e-06)
(5.86135e-05 -0.11238 1.12615e-06)
(5.12088e-05 -0.112498 -1.08523e-06)
(5.12092e-05 -0.112498 1.08027e-06)
(0.000161216 -0.115781 4.48536e-06)
(9.22412e-05 -0.115465 -8.60721e-06)
(0.000141119 -0.115911 4.73296e-06)
(7.88525e-05 -0.115583 -6.31031e-06)
(7.25226e-05 -0.112384 4.07182e-06)
(0.000307115 -0.112123 -2.33317e-05)
(6.47413e-05 -0.112512 4.3102e-06)
(0.000298625 -0.112252 -2.10889e-05)
(-0.00177817 -0.114823 -1.82351e-05)
(0.00194474 -0.116847 0.500911)
(-0.00179141 -0.114799 -2.14587e-05)
(0.0019132 -0.117093 0.500919)
(0.00135731 -0.111101 1.744e-05)
(-0.00107081 -0.113578 0.501946)
(0.00133298 -0.111025 1.42345e-05)
(-0.00105835 -0.113862 0.501951)
(0.0020168 -0.11635 -0.500883)
(-0.00176422 -0.114776 1.26062e-05)
(0.00198496 -0.1166 -0.500892)
(-0.0017728 -0.114817 1.52849e-05)
(-0.00108802 -0.113021 -0.501931)
(0.00140593 -0.111142 -2.30383e-05)
(-0.00107462 -0.113299 -0.501937)
(0.00137862 -0.111138 -2.03579e-05)
(0.000120885 -0.115198 1.2117e-05)
(0.000204269 -0.11548 -3.94438e-06)
(0.000105815 -0.115337 1.05085e-05)
(0.000182186 -0.115638 -4.2253e-06)
(0.000326842 -0.111842 2.688e-05)
(8.89496e-05 -0.112088 -3.53915e-06)
(0.00031652 -0.111987 2.52603e-05)
(8.05737e-05 -0.112243 -3.81676e-06)
(0.000206749 -0.115499 -1.19149e-06)
(0.000206751 -0.115499 1.18395e-06)
(0.000185145 -0.115648 -1.17039e-06)
(0.000185147 -0.115648 1.16372e-06)
(7.37618e-05 -0.112101 -1.18206e-06)
(7.37626e-05 -0.112101 1.17443e-06)
(6.60872e-05 -0.112248 -1.16412e-06)
(6.60878e-05 -0.112248 1.15727e-06)
(0.000204259 -0.11548 3.93474e-06)
(0.000120782 -0.115198 -1.21307e-05)
(0.000182178 -0.115638 4.21614e-06)
(0.000105722 -0.115337 -1.05227e-05)
(8.89406e-05 -0.112088 3.52987e-06)
(0.000326738 -0.111842 -2.68535e-05)
(8.05652e-05 -0.112243 3.80781e-06)
(0.000316412 -0.111987 -2.52344e-05)
(-0.00176457 -0.114776 -1.26135e-05)
(0.00201672 -0.116351 0.500883)
(-0.00177312 -0.114817 -1.52927e-05)
(0.00198486 -0.1166 0.500891)
(0.00140681 -0.111142 2.30596e-05)
(-0.00108785 -0.113021 0.501931)
(0.00137951 -0.111139 2.03785e-05)
(-0.00107443 -0.1133 0.501937)
(0.00209217 -0.115836 -0.500855)
(-0.00174683 -0.114606 7.8593e-06)
(0.00205819 -0.116097 -0.500864)
(-0.00175893 -0.114704 1.01395e-05)
(-0.00110297 -0.112463 -0.501917)
(0.00145967 -0.111051 -2.77688e-05)
(-0.00109077 -0.112743 -0.501923)
(0.00142991 -0.111112 -2.55044e-05)
(0.000154747 -0.114879 1.45927e-05)
(0.000252149 -0.115122 -3.37956e-06)
(0.000136737 -0.115045 1.34632e-05)
(0.000227614 -0.115308 -3.66031e-06)
(0.000349924 -0.111517 2.94269e-05)
(0.00010683 -0.111736 -2.98019e-06)
(0.000337903 -0.111686 2.82629e-05)
(9.77737e-05 -0.111919 -3.25848e-06)
(0.000253997 -0.115152 -1.20349e-06)
(0.000254 -0.115152 1.19464e-06)
(0.000229594 -0.115333 -1.2017e-06)
(0.000229597 -0.115333 1.19344e-06)
(9.05702e-05 -0.111761 -1.19685e-06)
(9.05715e-05 -0.111761 1.18787e-06)
(8.18064e-05 -0.111939 -1.19353e-06)
(8.18077e-05 -0.111939 1.1852e-06)
(0.000252136 -0.115122 3.36942e-06)
(0.000154644 -0.114879 -1.46054e-05)
(0.000227602 -0.115308 3.65038e-06)
(0.000136629 -0.115046 -1.34763e-05)
(0.00010682 -0.111736 2.97041e-06)
(0.000349824 -0.111517 -2.93995e-05)
(9.77637e-05 -0.111919 3.24897e-06)
(0.000337795 -0.111686 -2.82359e-05)
(-0.00174719 -0.114606 -7.86541e-06)
(0.00209212 -0.115837 0.500855)
(-0.0017593 -0.114704 -1.01461e-05)
(0.00205807 -0.116097 0.500863)
(0.00146058 -0.111051 2.77908e-05)
(-0.00110283 -0.112463 0.501917)
(0.00143079 -0.111113 2.55261e-05)
(-0.00109064 -0.112744 0.501923)
(0.00217425 -0.11529 -0.500826)
(-0.00172307 -0.114333 3.8259e-06)
(0.00213678 -0.115568 -0.500835)
(-0.0017382 -0.114481 5.76261e-06)
(-0.00111504 -0.111885 -0.501903)
(0.00151303 -0.110839 -3.17548e-05)
(-0.00110411 -0.112177 -0.501909)
(0.00148321 -0.11096 -2.98475e-05)
(0.000196042 -0.114498 1.63731e-05)
(0.000305316 -0.114702 -2.84487e-06)
(0.000174064 -0.114697 1.5548e-05)
(0.000277985 -0.11492 -3.10651e-06)
(0.000376314 -0.111134 3.12008e-05)
(0.000126442 -0.111323 -2.44529e-06)
(0.000362575 -0.111333 3.03998e-05)
(0.000116365 -0.111538 -2.70796e-06)
(0.00030807 -0.114737 -1.18828e-06)
(0.000308073 -0.114737 1.17762e-06)
(0.000280133 -0.114953 -1.19885e-06)
(0.000280137 -0.114953 1.18928e-06)
(0.000109856 -0.111355 -1.1832e-06)
(0.000109857 -0.111355 1.17206e-06)
(9.99299e-05 -0.111566 -1.19302e-06)
(9.9931e-05 -0.111566 1.18318e-06)
(0.000305302 -0.114702 2.83328e-06)
(0.000195945 -0.114498 -1.63873e-05)
(0.000277971 -0.11492 3.09597e-06)
(0.00017396 -0.114697 -1.55607e-05)
(0.000126432 -0.111323 2.43373e-06)
(0.000376221 -0.111134 -3.11738e-05)
(0.000116356 -0.111538 2.69767e-06)
(0.000362479 -0.111333 -3.03724e-05)
(-0.0017235 -0.114333 -3.83151e-06)
(0.00217415 -0.11529 0.500826)
(-0.00173858 -0.114482 -5.76832e-06)
(0.00213676 -0.115568 0.500834)
(0.00151389 -0.110839 3.17774e-05)
(-0.00111487 -0.111886 0.501903)
(0.00148412 -0.11096 2.98697e-05)
(-0.00110389 -0.112177 0.501909)
(0.00226421 -0.114698 -0.500798)
(-0.00170493 -0.113974 3.97572e-07)
(0.00222282 -0.115 -0.500806)
(-0.00171426 -0.114164 2.04153e-06)
(-0.0011241 -0.111273 -0.50189)
(0.00157922 -0.110511 -3.51328e-05)
(-0.00111451 -0.111583 -0.501895)
(0.00153991 -0.110689 -3.35153e-05)
(0.000245983 -0.114046 1.77529e-05)
(0.000365249 -0.114211 -2.34505e-06)
(0.000219634 -0.114282 1.70803e-05)
(0.000334316 -0.114466 -2.59883e-06)
(0.000406382 -0.110685 3.24092e-05)
(0.000148524 -0.110842 -1.94539e-06)
(0.000390803 -0.110918 3.18566e-05)
(0.000137152 -0.111092 -2.19356e-06)
(0.000369658 -0.114249 -1.15063e-06)
(0.000369659 -0.114249 1.13923e-06)
(0.000337935 -0.114503 -1.17305e-06)
(0.000337937 -0.114503 1.16044e-06)
(0.000131631 -0.110876 -1.14652e-06)
(0.000131631 -0.110876 1.13464e-06)
(0.000120417 -0.111125 -1.16805e-06)
(0.000120417 -0.111125 1.15545e-06)
(0.000365235 -0.114211 2.33331e-06)
(0.0002459 -0.114046 -1.77671e-05)
(0.000334303 -0.114466 2.58317e-06)
(0.000219549 -0.114282 -1.71114e-05)
(0.000148513 -0.110842 1.93369e-06)
(0.000406296 -0.110685 -3.23815e-05)
(0.000137142 -0.111092 2.18024e-06)
(0.000390712 -0.110918 -3.18321e-05)
(-0.00170538 -0.113974 -4.01803e-07)
(0.00226414 -0.114698 0.500797)
(-0.00171469 -0.114164 -2.04842e-06)
(0.00222273 -0.115 0.500806)
(0.00158008 -0.110512 3.51564e-05)
(-0.00112394 -0.111273 0.50189)
(0.00154075 -0.11069 3.35375e-05)
(-0.00111437 -0.111584 0.501895)
(0.00236299 -0.114045 -0.500768)
(-0.00170253 -0.113502 -2.52041e-06)
(0.00231732 -0.114379 -0.500777)
(-0.00170604 -0.113754 -1.11569e-06)
(-0.00112928 -0.11061 -0.501876)
(0.00166861 -0.110069 -3.80101e-05)
(-0.00112154 -0.110948 -0.501881)
(0.00161961 -0.110305 -3.66306e-05)
(0.00030463 -0.113512 1.85887e-05)
(0.000433365 -0.113642 -1.88868e-06)
(0.000273904 -0.11379 1.82811e-05)
(0.000398218 -0.113937 -2.10782e-06)
(0.000439784 -0.110158 3.31609e-05)
(0.000173431 -0.110285 -1.49143e-06)
(0.000422596 -0.110432 3.28462e-05)
(0.000160615 -0.110574 -1.71024e-06)
(0.00043922 -0.11368 -1.09794e-06)
(0.000439221 -0.11368 1.0871e-06)
(0.000403384 -0.113975 -1.12537e-06)
(0.000403385 -0.113975 1.11443e-06)
(0.000156244 -0.110319 -1.09466e-06)
(0.000156244 -0.110319 1.08363e-06)
(0.000143567 -0.110608 -1.12163e-06)
(0.000143567 -0.110608 1.11035e-06)
(0.000433351 -0.113642 1.87859e-06)
(0.000304548 -0.113512 -1.85991e-05)
(0.000398204 -0.113937 2.09728e-06)
(0.000273823 -0.11379 -1.82925e-05)
(0.000173421 -0.110285 1.4814e-06)
(0.000439704 -0.110158 -3.31312e-05)
(0.000160604 -0.110574 1.69965e-06)
(0.000422514 -0.110432 -3.28171e-05)
(-0.00170304 -0.113502 2.51839e-06)
(0.00236289 -0.114045 0.500768)
(-0.00170652 -0.113754 1.11281e-06)
(0.00231726 -0.114379 0.500776)
(0.00166948 -0.11007 3.80355e-05)
(-0.00112907 -0.11061 0.501876)
(0.00162049 -0.110305 3.66552e-05)
(-0.00112134 -0.110948 0.501881)
(0.00247137 -0.11332 -0.500739)
(-0.00168863 -0.112914 -5.03627e-06)
(0.00242074 -0.113692 -0.500747)
(-0.00170111 -0.113223 -3.8217e-06)
(-0.00113028 -0.109883 -0.501863)
(0.00176766 -0.109509 -4.04735e-05)
(-0.00112464 -0.110255 -0.501868)
(0.00171288 -0.109803 -3.92917e-05)
(0.000372738 -0.112887 1.8983e-05)
(0.000510708 -0.112986 -1.50028e-06)
(0.000337113 -0.113211 1.8869e-05)
(0.000470845 -0.113326 -1.68601e-06)
(0.000476198 -0.109545 3.34919e-05)
(0.000201542 -0.109642 -1.09862e-06)
(0.000457479 -0.109863 3.33153e-05)
(0.000187074 -0.109975 -1.28794e-06)
(0.000517774 -0.113021 -1.03835e-06)
(0.000517774 -0.113021 1.02736e-06)
(0.000477329 -0.113362 -1.06874e-06)
(0.000477329 -0.113362 1.05785e-06)
(0.000184044 -0.109674 -1.03608e-06)
(0.000184044 -0.109674 1.02508e-06)
(0.000169734 -0.110008 -1.06605e-06)
(0.000169734 -0.110008 1.05507e-06)
(0.000510696 -0.112986 1.49051e-06)
(0.000372657 -0.112887 -1.89932e-05)
(0.000470832 -0.113326 1.67615e-06)
(0.000337032 -0.113211 -1.8879e-05)
(0.000201532 -0.109642 1.08908e-06)
(0.000476117 -0.109545 -3.34609e-05)
(0.000187064 -0.109975 1.27818e-06)
(0.000457399 -0.109863 -3.32852e-05)
(-0.00168916 -0.112914 5.03527e-06)
(0.00247123 -0.11332 0.500739)
(-0.00170163 -0.113223 3.82024e-06)
(0.00242061 -0.113692 0.500747)
(0.00176857 -0.109509 4.04999e-05)
(-0.00113006 -0.109883 0.501863)
(0.00171378 -0.109803 3.93176e-05)
(-0.00112441 -0.110256 0.501867)
(0.00259062 -0.11251 -0.500709)
(-0.00165731 -0.112207 -7.22202e-06)
(0.00253464 -0.112926 -0.500717)
(-0.00167759 -0.112575 -6.16469e-06)
(-0.00112686 -0.109078 -0.50185)
(0.00186981 -0.108838 -4.25929e-05)
(-0.00112317 -0.109491 -0.501854)
(0.00181584 -0.109188 -4.15747e-05)
(0.000451342 -0.112161 1.90539e-05)
(0.000598064 -0.112234 -1.17194e-06)
(0.000410362 -0.112537 1.90391e-05)
(0.000553084 -0.112623 -1.32913e-06)
(0.000515805 -0.108834 3.3682e-05)
(0.000233147 -0.108905 -7.6551e-07)
(0.000495486 -0.109202 3.36145e-05)
(0.000216894 -0.109286 -9.24512e-07)
(0.000606198 -0.112264 -9.75432e-07)
(0.000606199 -0.112264 9.64297e-07)
(0.000560705 -0.112656 -1.0071e-06)
(0.000560706 -0.112656 9.96038e-07)
(0.000215335 -0.108933 -9.74016e-07)
(0.000215336 -0.108933 9.6291e-07)
(0.000199241 -0.109316 -1.00524e-06)
(0.000199241 -0.109316 9.94184e-07)
(0.000598053 -0.112234 1.16237e-06)
(0.000451263 -0.112161 -1.90634e-05)
(0.000553073 -0.112623 1.3194e-06)
(0.000410282 -0.112537 -1.90491e-05)
(0.000233137 -0.108905 7.56274e-07)
(0.000515724 -0.108834 -3.36505e-05)
(0.000216884 -0.109286 9.15127e-07)
(0.000495406 -0.109202 -3.35832e-05)
(-0.00165783 -0.112207 7.22185e-06)
(0.00259049 -0.11251 0.500709)
(-0.0016781 -0.112576 6.16405e-06)
(0.0025345 -0.112926 0.500717)
(0.00187077 -0.108838 4.262e-05)
(-0.00112664 -0.109078 0.501849)
(0.00181679 -0.109188 4.16015e-05)
(-0.00112295 -0.109491 0.501854)
(0.00272153 -0.111602 -0.50068)
(-0.00161124 -0.111382 -9.13506e-06)
(0.00265971 -0.112068 -0.500687)
(-0.00163888 -0.11181 -8.2078e-06)
(-0.0011193 -0.108182 -0.501837)
(0.00196919 -0.108049 -4.44273e-05)
(-0.00111758 -0.108643 -0.501841)
(0.00191645 -0.108459 -4.35451e-05)
(0.00054133 -0.111324 1.89828e-05)
(0.000696357 -0.111374 -8.97676e-07)
(0.00049454 -0.111757 1.90325e-05)
(0.000645791 -0.111818 -1.02837e-06)
(0.000558819 -0.108016 3.36875e-05)
(0.000268561 -0.108063 -4.88563e-07)
(0.000536754 -0.108439 3.37057e-05)
(0.000250364 -0.108498 -6.20312e-07)
(0.000705419 -0.1114 -9.12336e-07)
(0.00070542 -0.1114 9.01079e-07)
(0.000654413 -0.111846 -9.43731e-07)
(0.000654414 -0.111846 9.32534e-07)
(0.000250439 -0.108087 -9.11925e-07)
(0.000250439 -0.108087 9.00691e-07)
(0.000232398 -0.108524 -9.42796e-07)
(0.000232399 -0.108524 9.31625e-07)
(0.000696347 -0.111374 8.88202e-07)
(0.000541251 -0.111324 -1.89915e-05)
(0.000645781 -0.111818 1.01887e-06)
(0.000494462 -0.111757 -1.90416e-05)
(0.000268552 -0.108063 4.79479e-07)
(0.000558737 -0.108016 -3.36559e-05)
(0.000250355 -0.108498 6.11169e-07)
(0.000536673 -0.108439 -3.36742e-05)
(-0.00161175 -0.111382 9.13563e-06)
(0.0027214 -0.111602 0.500679)
(-0.00163939 -0.11181 8.20801e-06)
(0.00265958 -0.112068 0.500686)
(0.0019702 -0.108049 4.44551e-05)
(-0.00111908 -0.108183 0.501837)
(0.00191744 -0.108459 4.35726e-05)
(-0.00111736 -0.108643 0.501841)
(0.00286477 -0.110585 -0.500649)
(-0.00155037 -0.110431 -1.08206e-05)
(0.00279678 -0.111108 -0.500657)
(-0.00158545 -0.110923 -1.00022e-05)
(-0.00110736 -0.107183 -0.501824)
(0.00206735 -0.107133 -4.60226e-05)
(-0.00110775 -0.107696 -0.501829)
(0.00201495 -0.107607 -4.5255e-05)
(0.000643521 -0.110368 1.8811e-05)
(0.000806366 -0.110398 -6.727e-07)
(0.000590539 -0.110862 1.89067e-05)
(0.000749856 -0.110901 -7.79359e-07)
(0.000605555 -0.10708 3.3556e-05)
(0.000308071 -0.107108 -2.61783e-07)
(0.000581593 -0.107563 3.36375e-05)
(0.000287795 -0.1076 -3.69108e-07)
(0.000816263 -0.110418 -8.51638e-07)
(0.000816264 -0.110418 8.402e-07)
(0.000759358 -0.110925 -8.81568e-07)
(0.00075936 -0.110925 8.70203e-07)
(0.000289647 -0.107127 -8.52262e-07)
(0.000289647 -0.107127 8.40868e-07)
(0.000269524 -0.107622 -8.81673e-07)
(0.000269524 -0.107622 8.7035e-07)
(0.000806356 -0.110398 6.63179e-07)
(0.000643442 -0.110368 -1.88189e-05)
(0.000749846 -0.110901 7.69864e-07)
(0.00059046 -0.110862 -1.89151e-05)
(0.000308061 -0.107108 2.52694e-07)
(0.000605474 -0.10708 -3.35244e-05)
(0.000287785 -0.1076 3.60028e-07)
(0.000581512 -0.107563 -3.36059e-05)
(-0.00155088 -0.110432 1.08218e-05)
(0.00286463 -0.110585 0.500648)
(-0.00158596 -0.110923 1.00031e-05)
(0.00279666 -0.111108 0.500656)
(0.00206841 -0.107133 4.60509e-05)
(-0.00110714 -0.107183 0.501824)
(0.00201599 -0.107607 4.52831e-05)
(-0.00110753 -0.107696 0.501828)
(0.00302085 -0.109447 -0.500619)
(-0.0014745 -0.109347 -1.23159e-05)
(0.00294642 -0.110032 -0.500626)
(-0.00151712 -0.109907 -1.15884e-05)
(-0.00109069 -0.106068 -0.501812)
(0.00216575 -0.106084 -4.74156e-05)
(-0.00109338 -0.106641 -0.501816)
(0.002113 -0.106626 -4.67448e-05)
(0.000758582 -0.109281 1.85682e-05)
(0.000928815 -0.109293 -4.92342e-07)
(0.000699076 -0.109841 1.86961e-05)
(0.000865994 -0.109862 -5.77231e-07)
(0.000656292 -0.106018 3.33243e-05)
(0.000351934 -0.106027 -8.02807e-08)
(0.000630291 -0.106566 3.34519e-05)
(0.000329449 -0.106584 -1.65536e-07)
(0.000939455 -0.109309 -7.94956e-07)
(0.000939457 -0.109309 7.83371e-07)
(0.000876286 -0.10988 -8.22749e-07)
(0.000876288 -0.10988 8.11217e-07)
(0.000333215 -0.106041 -7.96544e-07)
(0.000333215 -0.106041 7.85003e-07)
(0.00031088 -0.1066 -8.23855e-07)
(0.00031088 -0.1066 8.12376e-07)
(0.000928805 -0.109293 4.82717e-07)
(0.000758501 -0.109281 -1.85755e-05)
(0.000865984 -0.109862 5.67654e-07)
(0.000698997 -0.109841 -1.87037e-05)
(0.000351924 -0.106027 7.11022e-08)
(0.000656209 -0.106018 -3.32929e-05)
(0.000329439 -0.106584 1.56402e-07)
(0.00063021 -0.106566 -3.34204e-05)
(-0.00147501 -0.109347 1.23176e-05)
(0.00302072 -0.109447 0.500618)
(-0.00151763 -0.109907 1.15898e-05)
(0.00294629 -0.110032 0.500626)
(0.00216685 -0.106084 4.74444e-05)
(-0.00109045 -0.106068 0.501812)
(0.00211409 -0.106626 4.67734e-05)
(-0.00109315 -0.106641 0.501816)
(0.0031902 -0.108176 -0.500588)
(-0.00138335 -0.10812 -1.36518e-05)
(0.00310912 -0.108829 -0.500595)
(-0.00143365 -0.108752 -1.30003e-05)
(-0.00106897 -0.104825 -0.5018)
(0.00226544 -0.104893 -4.8637e-05)
(-0.00107411 -0.105463 -0.501804)
(0.00221186 -0.105506 -4.80484e-05)
(0.000887132 -0.108053 1.82769e-05)
(0.00106434 -0.108051 -3.51929e-07)
(0.000820809 -0.108685 1.84267e-05)
(0.000994913 -0.10869 -4.17555e-07)
(0.000711267 -0.104818 3.30197e-05)
(0.000400373 -0.104812 6.05233e-08)
(0.00068312 -0.105436 3.31809e-05)
(0.000375577 -0.105437 -4.99527e-09)
(0.00107562 -0.108061 -7.42937e-07)
(0.00107562 -0.108061 7.31195e-07)
(0.0010059 -0.108703 -7.68343e-07)
(0.0010059 -0.108703 7.56671e-07)
(0.000381363 -0.104821 -7.45469e-07)
(0.000381363 -0.104821 7.33771e-07)
(0.000356714 -0.105449 -7.70402e-07)
(0.000356715 -0.105449 7.58779e-07)
(0.00106433 -0.108051 3.42194e-07)
(0.000887048 -0.108053 -1.82836e-05)
(0.000994902 -0.10869 4.07863e-07)
(0.000820727 -0.108685 -1.84338e-05)
(0.000400362 -0.104812 -6.98194e-08)
(0.000711184 -0.104818 -3.29883e-05)
(0.000375566 -0.105437 -4.2469e-09)
(0.000683038 -0.105436 -3.31495e-05)
(-0.00138386 -0.10812 1.36541e-05)
(0.00319007 -0.108176 0.500588)
(-0.00143416 -0.108752 1.30023e-05)
(0.00310899 -0.108829 0.500595)
(0.00226658 -0.104893 4.86662e-05)
(-0.00106873 -0.104825 0.5018)
(0.00221299 -0.105506 4.80775e-05)
(-0.00107387 -0.105463 0.501804)
(0.00337308 -0.106761 -0.500557)
(-0.00127668 -0.106741 -1.48552e-05)
(0.00328523 -0.107487 -0.500564)
(-0.00133477 -0.10745 -1.42671e-05)
(-0.00104201 -0.103443 -0.501788)
(0.00236712 -0.103551 -4.97119e-05)
(-0.0010497 -0.104152 -0.501792)
(0.00231238 -0.104241 -4.91937e-05)
(0.00102963 -0.106674 1.79524e-05)
(0.00121337 -0.106659 -2.46029e-07)
(0.000956282 -0.107383 1.81171e-05)
(0.00113715 -0.107374 -2.94938e-07)
(0.000770632 -0.103471 3.26617e-05)
(0.000453544 -0.103452 1.65495e-07)
(0.000740275 -0.104164 3.28474e-05)
(0.000426366 -0.104151 1.1732e-07)
(0.00122522 -0.106665 -6.95974e-07)
(0.00122523 -0.106665 6.84031e-07)
(0.00114874 -0.107382 -7.18838e-07)
(0.00114874 -0.107382 7.06988e-07)
(0.000434252 -0.103456 -6.99416e-07)
(0.000434253 -0.103456 6.87506e-07)
(0.000407217 -0.104158 -7.21806e-07)
(0.000407218 -0.104158 7.10004e-07)
(0.00121336 -0.106659 2.36173e-07)
(0.00102954 -0.106674 -1.79587e-05)
(0.00113714 -0.107374 2.85147e-07)
(0.000956197 -0.107383 -1.81236e-05)
(0.000453534 -0.103452 -1.74942e-07)
(0.000770548 -0.103471 -3.26305e-05)
(0.000426355 -0.104151 -1.26687e-07)
(0.000740192 -0.104164 -3.28161e-05)
(-0.00127719 -0.106741 1.48579e-05)
(0.00337295 -0.106761 0.500557)
(-0.00133528 -0.10745 1.42696e-05)
(0.0032851 -0.107487 0.500564)
(0.0023683 -0.103551 4.97415e-05)
(-0.00104176 -0.103443 0.501788)
(0.00231355 -0.104241 4.92231e-05)
(-0.00104944 -0.104152 0.501792)
(0.00356954 -0.10519 -0.500526)
(-0.00115447 -0.1052 -1.59462e-05)
(0.00347493 -0.105995 -0.500533)
(-0.00122033 -0.105991 -1.5412e-05)
(-0.00100966 -0.101911 -0.501777)
(0.00247124 -0.102052 -5.06604e-05)
(-0.00101996 -0.102696 -0.50178)
(0.00241514 -0.102822 -5.02031e-05)
(0.00118633 -0.105134 1.76072e-05)
(0.00137615 -0.105109 -1.70404e-07)
(0.00110585 -0.105924 1.77807e-05)
(0.00129304 -0.105905 -2.04738e-07)
(0.000834433 -0.101967 3.22657e-05)
(0.000511526 -0.101938 2.38937e-07)
(0.000801856 -0.102739 3.24687e-05)
(0.000481938 -0.102715 2.06013e-07)
(0.00138849 -0.10511 -6.53926e-07)
(0.00138849 -0.10511 6.41695e-07)
(0.00130516 -0.105908 -6.7437e-07)
(0.00130516 -0.105908 6.62288e-07)
(0.000491963 -0.101937 -6.58368e-07)
(0.000491964 -0.101937 6.46159e-07)
(0.000462512 -0.102717 -6.7829e-07)
(0.000462513 -0.102717 6.66239e-07)
(0.00137614 -0.105109 1.60331e-07)
(0.00118623 -0.105134 -1.76131e-05)
(0.00129303 -0.105905 1.94783e-07)
(0.00110576 -0.105924 -1.77868e-05)
(0.000511515 -0.101938 -2.48623e-07)
(0.000834348 -0.101967 -3.22347e-05)
(0.000481927 -0.102715 -2.15569e-07)
(0.000801772 -0.102739 -3.24376e-05)
(-0.00115497 -0.1052 1.59492e-05)
(0.00356941 -0.10519 0.500526)
(-0.00122083 -0.105991 1.54149e-05)
(0.0034748 -0.105995 0.500533)
(0.00247246 -0.102052 5.06902e-05)
(-0.0010094 -0.101911 0.501777)
(0.00241635 -0.102822 5.02328e-05)
(-0.0010197 -0.102696 0.50178)
(0.00377954 -0.103454 -0.500495)
(-0.00101678 -0.103489 -1.69405e-05)
(0.00367819 -0.104343 -0.500502)
(-0.00109039 -0.104366 -1.64532e-05)
(-0.00097188 -0.100219 -0.501766)
(0.00257812 -0.100386 -5.14977e-05)
(-0.000984797 -0.101086 -0.501769)
(0.00252051 -0.10124 -5.10943e-05)
(0.00135745 -0.103424 1.72521e-05)
(0.00155273 -0.103391 -1.21409e-07)
(0.00126975 -0.1043 1.74292e-05)
(0.00146273 -0.104272 -1.42616e-07)
(0.000902656 -0.100298 3.18441e-05)
(0.000574336 -0.100259 2.84377e-07)
(0.000867872 -0.101154 3.20585e-05)
(0.000542337 -0.10112 2.65113e-07)
(0.00156548 -0.103387 -6.16376e-07)
(0.00156548 -0.103387 6.03761e-07)
(0.00147529 -0.10427 -6.34614e-07)
(0.0014753 -0.10427 6.22193e-07)
(0.000554517 -0.100255 -6.21965e-07)
(0.000554518 -0.100255 6.09383e-07)
(0.000522648 -0.101117 -6.39608e-07)
(0.000522649 -0.101117 6.27219e-07)
(0.00155272 -0.103391 1.11036e-07)
(0.00135735 -0.103424 -1.72578e-05)
(0.00146272 -0.104272 1.32397e-07)
(0.00126966 -0.104301 -1.7435e-05)
(0.000574325 -0.100259 -2.94362e-07)
(0.00090257 -0.100298 -3.18135e-05)
(0.000542326 -0.10112 -2.74942e-07)
(0.000867786 -0.101154 -3.20277e-05)
(-0.00101728 -0.103489 1.69438e-05)
(0.0037794 -0.103454 0.500495)
(-0.00109088 -0.104367 1.64564e-05)
(0.00367805 -0.104343 0.500502)
(0.00257938 -0.100386 5.15277e-05)
(-0.000971612 -0.10022 0.501766)
(0.00252176 -0.10124 5.11242e-05)
(-0.000984528 -0.101086 0.501769)
(0.00400272 -0.101543 -0.500464)
(-0.000863552 -0.1016 -1.78499e-05)
(0.00389484 -0.102521 -0.500471)
(-0.000944908 -0.102567 -1.74027e-05)
(-0.000928777 -0.0983589 -0.501755)
(0.00268785 -0.0985452 -5.22365e-05)
(-0.000944258 -0.0993107 -0.501758)
(0.00262872 -0.0994876 -5.18806e-05)
(0.00154266 -0.101535 1.68954e-05)
(0.00174287 -0.101495 -9.6057e-08)
(0.00144798 -0.102502 1.70734e-05)
(0.00164614 -0.102465 -1.0682e-07)
(0.000975156 -0.0984549 3.14063e-05)
(0.000641894 -0.098409 3.05438e-07)
(0.000938249 -0.0993986 3.1628e-05)
(0.000607537 -0.0993562 2.97619e-07)
(0.00175595 -0.101487 -5.82927e-07)
(0.00175596 -0.101487 5.69896e-07)
(0.00165907 -0.10246 -5.99173e-07)
(0.00165907 -0.10246 5.86355e-07)
(0.00062183 -0.0984004 -5.89758e-07)
(0.000621831 -0.0984004 5.76784e-07)
(0.000587598 -0.0993495 -6.05372e-07)
(0.000587599 -0.0993495 5.92598e-07)
(0.00174285 -0.101495 8.53933e-08)
(0.00154257 -0.101535 -1.6901e-05)
(0.00164612 -0.102465 9.63112e-08)
(0.00144789 -0.102502 -1.7079e-05)