/*--------------------------------*- C++ -*----------------------------------*\
  =========                 |
  \\      /  F ield         | OpenFOAM: The Open Source CFD Toolbox
   \\    /   O peration     | Website:  https://openfoam.org
    \\  /    A nd           | Version:  9
     \\/     M anipulation  |
\*---------------------------------------------------------------------------*/
FoamFile
{
    format      ascii;
    class       volScalarField;
    location    "0.2";
    object      k;
}
// * * * * * * * * * * * * * * * * * * * * * * * * * * * * * * * * * * * * * //

dimensions      [0 2 -2 0 0 0 0];

internalField   nonuniform List<scalar> 
36360
(
0.0123835
0.0103777
0.00974479
0.00849241
0.00402855
0.00314455
0.00391274
0.00327984
0.00306487
0.00271656
0.00318825
0.00297754
0.00290963
0.00289867
0.00313566
0.00312858
0.00270791
0.00270791
0.00297253
0.00297253
0.0028983
0.0028983
0.00312829
0.00312829
0.0027165
0.00306393
0.00297751
0.00318782
0.00289866
0.00290958
0.00312858
0.00313564
0.0103761
0.0123848
0.00849172
0.00974533
0.00314442
0.00402854
0.00327978
0.00391273
0.0128024
0.0107029
0.0127771
0.0106752
0.00403807
0.00312615
0.00404188
0.00312816
0.00305349
0.00268041
0.00305484
0.00268357
0.00287714
0.00286583
0.00288001
0.00286862
0.0026711
0.0026711
0.0026743
0.0026743
0.00286548
0.00286548
0.00286826
0.00286826
0.00268033
0.00305239
0.0026835
0.00305377
0.00286582
0.00287709
0.00286862
0.00287996
0.010701
0.012804
0.0106732
0.0127785
0.00312599
0.00403801
0.00312801
0.00404187
0.0127942
0.0106964
0.0128075
0.0107079
0.00403057
0.00312481
0.00403379
0.0031256
0.00305163
0.00267998
0.00305283
0.00268009
0.00287663
0.00286579
0.00287676
0.00286553
0.00267137
0.00267136
0.00267081
0.00267081
0.00286551
0.00286551
0.00286519
0.00286519
0.0026799
0.00305056
0.00268001
0.00305174
0.00286579
0.00287658
0.00286553
0.0028767
0.0106947
0.012796
0.0107061
0.0128091
0.00312468
0.00403048
0.00312545
0.00403372
0.0127584
0.0106701
0.0127785
0.0106846
0.00402628
0.0031231
0.00402842
0.00312396
0.00304924
0.00268024
0.00305043
0.00267998
0.00287626
0.00286526
0.0028764
0.00286538
0.0026714
0.0026714
0.0026709
0.0026709
0.00286498
0.00286498
0.00286507
0.00286507
0.00268017
0.00304818
0.0026799
0.00304937
0.00286525
0.00287621
0.00286537
0.00287635
0.0106687
0.0127605
0.0106832
0.0127806
0.00312297
0.0040262
0.00312383
0.00402833
0.0127211
0.0106433
0.0127419
0.0106582
0.00402217
0.00312127
0.00402431
0.00312221
0.00304686
0.00267983
0.00304811
0.00267994
0.00287583
0.00286493
0.002876
0.00286504
0.00267142
0.00267141
0.00267092
0.00267091
0.00286466
0.00286466
0.00286474
0.00286474
0.00267976
0.0030458
0.00267987
0.00304705
0.00286493
0.00287578
0.00286504
0.00287595
0.0106419
0.0127232
0.0106567
0.012744
0.00312114
0.00402206
0.00312208
0.00402422
0.0126818
0.0106159
0.0127033
0.0106306
0.00401806
0.00311931
0.00402016
0.00312029
0.0030444
0.00268007
0.00304563
0.00267983
0.00287534
0.00286451
0.00287554
0.00286467
0.00267144
0.00267143
0.00267093
0.00267093
0.00286423
0.00286423
0.00286438
0.00286438
0.00268
0.00304336
0.00267975
0.00304459
0.00286451
0.00287529
0.00286466
0.00287549
0.0106147
0.0126842
0.0106293
0.0127055
0.00311919
0.00401802
0.00312017
0.00402008
0.0126424
0.0105894
0.0126642
0.0106039
0.004014
0.00311728
0.00401612
0.0031183
0.003042
0.00267969
0.00304322
0.00267979
0.00287475
0.002864
0.00287499
0.0028642
0.00267145
0.00267145
0.00267094
0.00267094
0.00286373
0.00286373
0.00286392
0.00286392
0.00267961
0.00304097
0.00267972
0.00304219
0.002864
0.0028747
0.0028642
0.00287495
0.0105884
0.0126449
0.0106028
0.0126666
0.00311717
0.004014
0.00311819
0.0040161
0.0126024
0.0105639
0.0126243
0.0105778
0.00401
0.00311519
0.00401206
0.00311623
0.00303969
0.00267991
0.00304085
0.00267969
0.00287407
0.00286339
0.00287436
0.00286364
0.00267147
0.00267147
0.00267095
0.00267095
0.00286312
0.00286312
0.00286336
0.00286336
0.00267983
0.00303864
0.00267961
0.00303982
0.00286339
0.00287402
0.00286364
0.00287431
0.0105625
0.0126047
0.0105766
0.0126268
0.00311506
0.00401002
0.00311612
0.00401206
0.0125617
0.010539
0.0125842
0.0105526
0.00400605
0.00311301
0.00400811
0.0031141
0.00303743
0.00267956
0.00303857
0.00267965
0.00287328
0.00286267
0.00287362
0.00286298
0.00267149
0.00267149
0.00267097
0.00267096
0.0028624
0.0028624
0.0028627
0.0028627
0.00267949
0.00303638
0.00267958
0.00303752
0.00286267
0.00287323
0.00286297
0.00287358
0.0105375
0.0125638
0.0105512
0.0125863
0.00311289
0.00400605
0.00311398
0.00400811
0.0125202
0.0105149
0.0125431
0.0105281
0.0040021
0.00311076
0.00400415
0.00311189
0.00303526
0.00267973
0.00303636
0.00267956
0.00287236
0.00286183
0.00287277
0.00286219
0.00267151
0.00267151
0.00267098
0.00267098
0.00286156
0.00286156
0.00286192
0.00286192
0.00267965
0.00303419
0.00267948
0.00303529
0.00286182
0.00287231
0.00286219
0.00287272
0.0105132
0.012522
0.0105266
0.0125451
0.00311063
0.0040021
0.00311176
0.00400416
0.0124772
0.010491
0.0125012
0.0105044
0.0039981
0.0031084
0.00400021
0.00310959
0.00303313
0.00267945
0.00303422
0.00267952
0.0028713
0.00286084
0.00287178
0.00286128
0.00267153
0.00267152
0.002671
0.00267099
0.00286057
0.00286057
0.002861
0.002861
0.00267938
0.00303204
0.00267944
0.00303314
0.00286084
0.00287126
0.00286127
0.00287173
0.0104891
0.0124788
0.0105026
0.0125028
0.00310825
0.0039981
0.00310945
0.0040002
0.0124318
0.0104668
0.012457
0.0104804
0.00399404
0.00310588
0.00399617
0.00310714
0.00303102
0.00268008
0.00303208
0.00267945
0.00287009
0.00285971
0.00287064
0.00286021
0.00267156
0.00267156
0.00267101
0.00267101
0.00285943
0.00285943
0.00285993
0.00285993
0.00268001
0.00302993
0.00267938
0.00303099
0.00285971
0.00287004
0.00286021
0.00287059
0.0104649
0.0124333
0.0104785
0.0124585
0.00310573
0.00399403
0.003107
0.00399616
0.0123843
0.0104429
0.0124106
0.0104564
0.00398991
0.00310321
0.00399208
0.00310455
0.00302893
0.00268006
0.00302998
0.00267956
0.0028687
0.0028584
0.00286934
0.00285899
0.00267158
0.00267158
0.00267103
0.00267103
0.00285812
0.00285812
0.00285871
0.00285871
0.00267999
0.00302785
0.00267948
0.00302889
0.00285839
0.00286866
0.00285898
0.00286929
0.010441
0.0123858
0.0104545
0.0124121
0.00310307
0.0039899
0.00310441
0.00399207
0.0123348
0.0104194
0.0123622
0.0104327
0.00398572
0.0031004
0.00398792
0.00310182
0.0030269
0.00268003
0.00302792
0.00267952
0.00286713
0.0028569
0.00286786
0.00285758
0.0026716
0.0026716
0.00267105
0.00267105
0.00285662
0.00285662
0.0028573
0.0028573
0.00267996
0.00302582
0.00267944
0.00302684
0.0028569
0.00286708
0.00285758
0.00286781
0.0104175
0.0123363
0.0104308
0.0123637
0.00310025
0.00398571
0.00310167
0.00398791
0.012283
0.0103961
0.0123116
0.0104093
0.00398146
0.00309741
0.0039837
0.00309891
0.00302492
0.00268
0.00302591
0.00267948
0.00286535
0.00285519
0.00286618
0.00285598
0.00267162
0.00267162
0.00267107
0.00267107
0.00285491
0.00285491
0.0028557
0.0028557
0.00267993
0.00302384
0.0026794
0.00302483
0.00285519
0.0028653
0.00285597
0.00286613
0.0103942
0.0122844
0.0104075
0.0123131
0.00309727
0.00398145
0.00309877
0.00398369
0.0122287
0.0103731
0.0122586
0.0103863
0.00397713
0.00309423
0.00397941
0.00309583
0.00302299
0.00267997
0.00302396
0.00267944
0.00286335
0.00285326
0.00286429
0.00285416
0.00267164
0.00267164
0.0026711
0.00267109
0.00285299
0.00285299
0.00285388
0.00285388
0.0026799
0.00302191
0.00267937
0.00302288
0.00285326
0.0028633
0.00285416
0.00286424
0.0103712
0.0122301
0.0103844
0.0122601
0.00309409
0.00397712
0.00309569
0.0039794
0.0121717
0.0103504
0.0122031
0.0103635
0.00397272
0.00309085
0.00397505
0.00309255
0.00302111
0.00267994
0.00302205
0.00267941
0.00286111
0.00285109
0.00286217
0.00285211
0.00267167
0.00267167
0.00267112
0.00267112
0.00285082
0.00285082
0.00285183
0.00285183
0.00267987
0.00302003
0.00267934
0.00302097
0.00285109
0.00286106
0.0028521
0.00286212
0.0103485
0.0121732
0.0103616
0.0122046
0.00309071
0.00397271
0.00309241
0.00397504
0.012112
0.0103278
0.0121449
0.0103409
0.00396822
0.00308724
0.0039706
0.00308906
0.00301927
0.00267991
0.00302019
0.00267938
0.00285861
0.00284866
0.0028598
0.0028498
0.00267169
0.00267169
0.00267115
0.00267114
0.00284839
0.00284839
0.00284953
0.00284953
0.00267984
0.0030182
0.00267931
0.00301912
0.00284866
0.00285856
0.0028498
0.00285975
0.010326
0.0121134
0.010339
0.0121463
0.00308709
0.00396821
0.00308891
0.00397058
0.0120494
0.0103055
0.0120838
0.0103185
0.00396363
0.00308338
0.00396605
0.00308532
0.00301748
0.00267989
0.00301838
0.00267936
0.00285584
0.00284595
0.00285716
0.00284723
0.00267172
0.00267172
0.00267118
0.00267117
0.00284568
0.00284568
0.00284696
0.00284696
0.00267982
0.00301641
0.00267928
0.00301731
0.00284595
0.00285579
0.00284723
0.00285711
0.0103037
0.0120508
0.0103167
0.0120852
0.00308324
0.00396361
0.00308518
0.00396604
0.0119839
0.0102834
0.0120198
0.0102964
0.00395893
0.00307926
0.00396141
0.00308134
0.00301573
0.00267987
0.00301661
0.00267934
0.00285277
0.00284295
0.00285424
0.00284437
0.00267175
0.00267175
0.00267121
0.00267121
0.00284268
0.00284268
0.0028441
0.0028441
0.0026798
0.00301466
0.00267926
0.00301554
0.00284295
0.00285272
0.00284437
0.00285419
0.0102816
0.0119853
0.0102946
0.0120213
0.00307912
0.00395892
0.00308119
0.00396139
0.0119154
0.0102615
0.0119529
0.0102745
0.00395414
0.00307487
0.00395667
0.00307708
0.00301403
0.00267985
0.00301489
0.00267932
0.0028494
0.00283964
0.00285101
0.00284121
0.00267178
0.00267178
0.00267124
0.00267124
0.00283937
0.00283937
0.00284094
0.00284094
0.00267978
0.00301297
0.00267925
0.00301382
0.00283963
0.00284935
0.00284121
0.00285097
0.0102597
0.0119169
0.0102727
0.0119543
0.00307472
0.00395412
0.00307694
0.00395665
0.0118442
0.0102399
0.0118831
0.0102528
0.00394925
0.00307018
0.00395183
0.00307254
0.00301237
0.00267983
0.00301321
0.0026793
0.0028457
0.002836
0.00284747
0.00283774
0.00267182
0.00267182
0.00267128
0.00267128
0.00283574
0.00283574
0.00283747
0.00283747
0.00267976
0.00301131
0.00267923
0.00301214
0.002836
0.00284565
0.00283773
0.00284743
0.0102381
0.0118456
0.010251
0.0118846
0.00307004
0.00394924
0.0030724
0.00395182
0.0117703
0.0102184
0.0118106
0.0102313
0.00394428
0.0030652
0.0039469
0.00306771
0.00301076
0.00267981
0.00301157
0.00267929
0.00284168
0.00283204
0.00284361
0.00283393
0.00267186
0.00267185
0.00267132
0.00267132
0.00283177
0.00283177
0.00283367
0.00283367
0.00267974
0.0030097
0.00267922
0.00301051
0.00283203
0.00284163
0.00283393
0.00284356
0.0102167
0.0117717
0.0102295
0.011812
0.00306506
0.00394426
0.00306757
0.00394689
0.011694
0.0101973
0.0117356
0.01021
0.00393923
0.00305991
0.00394189
0.00306257
0.00300919
0.0026798
0.00300998
0.00267928
0.00283731
0.00282773
0.00283941
0.00282979
0.00267189
0.00267189
0.00267136
0.00267136
0.00282747
0.00282747
0.00282953
0.00282953
0.00267973
0.00300814
0.00267921
0.00300893
0.00282773
0.00283726
0.00282979
0.00283936
0.0101955
0.0116954
0.0102083
0.011737
0.00305977
0.00393921
0.00306243
0.00394188
0.0116156
0.0101764
0.0116582
0.0101891
0.00393412
0.00305432
0.00393682
0.00305713
0.00300767
0.00267979
0.00300844
0.00267927
0.00283261
0.00282308
0.00283487
0.00282531
0.00267194
0.00267194
0.0026714
0.0026714
0.00282282
0.00282282
0.00282505
0.00282505
0.00267972
0.00300662
0.0026792
0.00300739
0.00282308
0.00283256
0.0028253
0.00283482
0.0101747
0.011617
0.0101874
0.0116596
0.00305418
0.0039341
0.00305699
0.0039368
0.0115356
0.010156
0.011579
0.0101685
0.00392898
0.00304841
0.00393169
0.00305137
0.00300619
0.00267978
0.00300694
0.00267926
0.00282756
0.00281808
0.00282999
0.00282048
0.00267199
0.00267198
0.00267144
0.00267144
0.00281782
0.00281782
0.00282022
0.00282022
0.00267971
0.00300515
0.0026792
0.00300589
0.00281808
0.00282751
0.00282047
0.00282994
0.0101543
0.0115369
0.0101668
0.0115804
0.00304827
0.00392896
0.00305123
0.00393167
0.0114543
0.0101359
0.0114984
0.0101483
0.00392381
0.00304221
0.00392653
0.00304531
0.00300477
0.00267977
0.00300549
0.00267926
0.00282217
0.00281275
0.00282476
0.0028153
0.00267203
0.00267203
0.00267149
0.00267148
0.00281249
0.00281249
0.00281505
0.00281505
0.0026797
0.00300372
0.00267919
0.00300444
0.00281274
0.00282212
0.0028153
0.00282471
0.0101342
0.0114557
0.0101466
0.0114998
0.00304207
0.00392379
0.00304518
0.00392651
0.0113724
0.0101164
0.0114168
0.0101286
0.00391865
0.00303571
0.00392137
0.00303896
0.00300339
0.00267977
0.00300408
0.00267925
0.00281644
0.00280707
0.0028192
0.00280979
0.00267208
0.00267208
0.00267153
0.00267153
0.00280682
0.00280682
0.00280954
0.00280954
0.0026797
0.00300235
0.00267918
0.00300304
0.00280707
0.0028164
0.00280979
0.00281915
0.0101147
0.0113738
0.0101269
0.0114182
0.00303557
0.00391863
0.00303882
0.00392135
0.0112904
0.0100974
0.0113349
0.0101094
0.00391353
0.00302892
0.00391623
0.00303231
0.00300205
0.00267976
0.00300273
0.00267924
0.0028104
0.00280108
0.00281331
0.00280395
0.00267211
0.00267211
0.00267156
0.00267156
0.00280083
0.00280083
0.0028037
0.0028037
0.00267969
0.00300102
0.00267917
0.00300169
0.00280108
0.00281035
0.00280395
0.00281326
0.0100958
0.0112918
0.0101078
0.0113363
0.00302879
0.00391351
0.00303217
0.00391621
0.0112091
0.0100791
0.0112532
0.0100908
0.00390848
0.00302188
0.00391114
0.00302539
0.00300077
0.00267974
0.00300143
0.00267923
0.00280405
0.00279478
0.0028071
0.00279779
0.00267214
0.00267213
0.00267159
0.00267159
0.00279452
0.00279452
0.00279754
0.00279754
0.00267967
0.00299973
0.00267916
0.00300039
0.00279477
0.00280401
0.00279779
0.00280706
0.0100775
0.0112104
0.0100892
0.0112546
0.00302174
0.00390846
0.00302525
0.00391112
0.011129
0.0100615
0.0111725
0.010073
0.00390354
0.00301459
0.00390614
0.00301822
0.00299953
0.00267971
0.00300017
0.00267921
0.00279742
0.00278818
0.0028006
0.00279133
0.00267214
0.00267214
0.00267161
0.0026716
0.00278794
0.00278794
0.00279108
0.00279108
0.00267964
0.0029985
0.00267914
0.00299914
0.00278818
0.00279737
0.00279133
0.00280055
0.0100599
0.0111304
0.0100713
0.0111738
0.00301445
0.00390351
0.00301808
0.00390612
0.0110507
0.0100446
0.0110933
0.0100558
0.00389872
0.00300708
0.00390126
0.00301081
0.00299835
0.00267967
0.00299897
0.00267917
0.00279052
0.00278133
0.00279382
0.0027846
0.00267214
0.00267213
0.00267161
0.00267161
0.00278108
0.00278108
0.00278435
0.00278435
0.0026796
0.00299733
0.00267911
0.00299794
0.00278133
0.00279048
0.0027846
0.00279378
0.010043
0.011052
0.0100542
0.0110946
0.00300694
0.00389869
0.00301067
0.00390123
0.0109749
0.0100285
0.0110162
0.0100393
0.00389407
0.00299938
0.00389652
0.0030032
0.0029972
0.00267961
0.00299782
0.00267913
0.00278339
0.00277423
0.0027868
0.00277761
0.00267211
0.00267211
0.00267159
0.00267159
0.00277399
0.00277399
0.00277737
0.00277736
0.00267954
0.00299618
0.00267906
0.0029968
0.00277423
0.00278334
0.00277761
0.00278675
0.0100269
0.0109762
0.0100377
0.0110175
0.00299925
0.00389404
0.00300306
0.0038965
0.0109022
0.0100132
0.010942
0.0100237
0.00388962
0.00299152
0.00389197
0.00299541
0.00299613
0.00267954
0.00299672
0.00267907
0.00277605
0.00276693
0.00277955
0.0027704
0.00267207
0.00267206
0.00267156
0.00267156
0.00276668
0.00276668
0.00277015
0.00277015
0.00267947
0.00299511
0.002679
0.0029957
0.00276693
0.002776
0.0027704
0.0027795
0.0100116
0.0109035
0.0100221
0.0109433
0.00299139
0.00388959
0.00299528
0.00389194
0.0108333
0.00999889
0.0108712
0.010009
0.00388539
0.00298354
0.00388763
0.00298748
0.00299512
0.00267945
0.00299568
0.00267899
0.00276853
0.00275944
0.0027721
0.00276299
0.002672
0.002672
0.00267151
0.00267151
0.0027592
0.0027592
0.00276275
0.00276275
0.00267938
0.0029941
0.00267892
0.00299466
0.00275944
0.00276848
0.00276299
0.00277206
0.00999734
0.0108346
0.0100074
0.0108725
0.0029834
0.00388536
0.00298735
0.0038876
0.0107686
0.00998555
0.0108044
0.00999528
0.00388141
0.00297545
0.00388352
0.00297944
0.00299417
0.00267934
0.0029947
0.00267889
0.00276086
0.00275181
0.0027645
0.00275542
0.00267192
0.00267191
0.00267144
0.00267144
0.00275156
0.00275156
0.00275517
0.00275517
0.00267927
0.00299316
0.00267883
0.00299368
0.0027518
0.00276082
0.00275542
0.00276445
0.00998402
0.0107699
0.00999373
0.0108057
0.00297532
0.00388138
0.0029793
0.0038835
0.0107086
0.00997324
0.0107421
0.00998256
0.0038777
0.00296731
0.00387968
0.00297131
0.00299328
0.00267921
0.00299378
0.00267878
0.00275309
0.00274406
0.00275677
0.00274771
0.00267181
0.0026718
0.00267135
0.00267135
0.00274381
0.00274381
0.00274747
0.00274747
0.00267914
0.00299226
0.00267871
0.00299276
0.00274405
0.00275304
0.00274771
0.00275672
0.00997171
0.0107099
0.00998102
0.0107434
0.00296717
0.00387767
0.00297118
0.00387965
0.0106548
0.0099618
0.0106846
0.0099709
0.00387431
0.00295913
0.00387612
0.00296314
0.00299244
0.00267906
0.00299291
0.00267865
0.00274523
0.00273623
0.00274894
0.00273991
0.00267168
0.00267167
0.00267124
0.00267124
0.00273598
0.00273598
0.00273966
0.00273966
0.00267899
0.00299143
0.00267858
0.0029919
0.00273622
0.00274518
0.00273991
0.00274889
0.00996028
0.010656
0.00996938
0.0106859
0.00295899
0.00387428
0.00296301
0.00387609
0.0106385
0.00991101
0.0106323
0.00995763
0.00387054
0.00295009
0.0038729
0.00295496
0.00298998
0.00267887
0.00299201
0.0026785
0.0027372
0.00272823
0.00274105
0.00273204
0.00267152
0.00267152
0.00267111
0.0026711
0.00272799
0.00272799
0.00273179
0.00273179
0.0026788
0.00298898
0.00267843
0.002991
0.00272823
0.00273715
0.00273204
0.002741
0.0099095
0.0106398
0.00995612
0.0106336
0.00294996
0.0038705
0.00295482
0.00387286
0.0127571
0.0106955
0.00998977
0.00866052
0.0127435
0.0106795
0.0100089
0.0086239
0.00307883
0.00271187
0.00319445
0.00297469
0.00307808
0.0027119
0.00319373
0.00297518
0.00270279
0.00270278
0.00296947
0.00296947
0.00270283
0.00270283
0.00296998
0.00296998
0.0027118
0.00307779
0.00297466
0.003194
0.00271183
0.00307704
0.00297515
0.00319328
0.0106937
0.0127585
0.00865975
0.00999038
0.0106777
0.0127449
0.00862314
0.0100095
0.0132051
0.0110253
0.0131768
0.0110022
0.0131904
0.0110067
0.0131692
0.0109959
0.00306832
0.00267552
0.00306981
0.00267871
0.00306738
0.00267551
0.00306932
0.00267871
0.00266576
0.00266576
0.00266898
0.00266898
0.00266577
0.00266577
0.00266899
0.00266899
0.00267544
0.00306712
0.00267863
0.00306863
0.00267543
0.00306619
0.00267863
0.00306814
0.0110231
0.0132068
0.0110001
0.0131784
0.0110047
0.0131922
0.0109938
0.0131709
0.0131958
0.0110154
0.0132104
0.0110287
0.0131557
0.0109839
0.0131705
0.0109902
0.00306616
0.00267505
0.00306753
0.00267519
0.00306469
0.00267503
0.00306577
0.00267517
0.00266601
0.002666
0.00266545
0.00266545
0.00266602
0.00266601
0.00266546
0.00266546
0.00267497
0.00306496
0.00267511
0.00306633
0.00267495
0.00306349
0.00267509
0.00306458
0.0110132
0.0131974
0.0110265
0.0132121
0.0109817
0.0131572
0.0109881
0.0131723
0.0131588
0.010987
0.0131801
0.0110028
0.0131334
0.010966
0.0131512
0.0109805
0.00306339
0.00267517
0.0030648
0.00267504
0.00306227
0.00267517
0.0030636
0.00267503
0.00266603
0.00266602
0.00266553
0.00266553
0.00266604
0.00266604
0.00266554
0.00266554
0.0026751
0.0030622
0.00267496
0.00306361
0.00267511
0.0030611
0.00267495
0.00306245
0.010985
0.0131607
0.0110008
0.013182
0.0109641
0.0131356
0.0109788
0.0131535
0.0131197
0.0109584
0.0131414
0.0109741
0.0130956
0.0109385
0.0131172
0.0109541
0.00306076
0.00267487
0.0030621
0.00267497
0.00305966
0.00267486
0.00306102
0.00267496
0.00266603
0.00266603
0.00266553
0.00266553
0.00266605
0.00266604
0.00266554
0.00266554
0.00267479
0.00305956
0.00267489
0.00306089
0.00267477
0.00305846
0.00267488
0.00305981
0.0109563
0.0131213
0.0109719
0.013143
0.0109363
0.0130973
0.0109517
0.0131188
0.0130783
0.0109294
0.0131009
0.010945
0.0130544
0.0109096
0.0130772
0.0109253
0.00305816
0.00267497
0.00305946
0.00267486
0.00305699
0.00267495
0.00305834
0.00267485
0.00266605
0.00266604
0.00266554
0.00266553
0.00266606
0.00266605
0.00266555
0.00266554
0.00267491
0.003057
0.00267478
0.00305829
0.00267488
0.00305578
0.00267477
0.00305712
0.0109278
0.0130807
0.0109432
0.0131029
0.0109071
0.0130557
0.0109228
0.0130785
0.0130378
0.0109023
0.0130602
0.0109172
0.0130128
0.0108815
0.0130359
0.010897
0.00305569
0.0026747
0.00305695
0.00267479
0.00305442
0.00267469
0.00305574
0.00267478
0.00266605
0.00266605
0.00266554
0.00266554
0.00266607
0.00266606
0.00266555
0.00266555
0.00267462
0.00305449
0.00267472
0.00305577
0.00267461
0.00305324
0.0026747
0.00305455
0.0109001
0.0130394
0.0109152
0.0130622
0.0108795
0.0130146
0.0108948
0.0130375
0.012996
0.0108754
0.0130191
0.0108901
0.0129703
0.0108542
0.0129938
0.0108691
0.00305323
0.00267478
0.00305447
0.00267469
0.00305193
0.00267478
0.00305319
0.00267468
0.00266606
0.00266606
0.00266554
0.00266554
0.00266608
0.00266608
0.00266555
0.00266555
0.00267474
0.00305205
0.00267461
0.0030533
0.00267469
0.00305075
0.0026746
0.00305201
0.0108735
0.012998
0.0108882
0.013021
0.0108521
0.0129721
0.0108671
0.0129955
0.0129544
0.01085
0.0129776
0.0108642
0.0129276
0.010828
0.0129512
0.0108423
0.00305089
0.00267455
0.00305209
0.00267463
0.00304956
0.00267453
0.00305075
0.00267462
0.00266608
0.00266607
0.00266555
0.00266554
0.00266609
0.00266609
0.00266556
0.00266556
0.00267447
0.00304969
0.00267455
0.0030509
0.00267445
0.00304837
0.00267454
0.00304958
0.0108478
0.0129561
0.0108621
0.0129795
0.0108258
0.0129293
0.0108403
0.012953
0.0129112
0.0108246
0.0129354
0.0108388
0.0128837
0.0108022
0.0129082
0.0108165
0.00304857
0.00267458
0.00304976
0.00267454
0.00304724
0.0026746
0.00304842
0.00267453
0.00266609
0.00266609
0.00266555
0.00266555
0.0026661
0.0026661
0.00266556
0.00266556
0.00267453
0.00304737
0.00267446
0.00304855
0.0026745
0.00304605
0.00267445
0.00304723
0.0108223
0.0129127
0.0108365
0.0129368
0.0107999
0.0128851
0.0108143
0.0129097
0.0128665
0.0107997
0.0128914
0.0108137
0.0128383
0.0107768
0.0128636
0.010791
0.00304632
0.0026744
0.00304747
0.00267448
0.00304499
0.00267439
0.00304614
0.00267446
0.0026661
0.0026661
0.00266556
0.00266555
0.00266611
0.00266611
0.00266557
0.00266557
0.00267433
0.00304513
0.0026744
0.00304628
0.00267431
0.00304381
0.00267438
0.00304495
0.0107976
0.0128681
0.0108115
0.012893
0.0107746
0.0128398
0.0107888
0.0128651
0.0128199
0.010775
0.012846
0.010789
0.0127909
0.0107516
0.0128173
0.0107658
0.0030441
0.00267439
0.00304524
0.0026744
0.00304278
0.00267439
0.00304391
0.00267439
0.00266611
0.00266611
0.00266556
0.00266556
0.00266613
0.00266613
0.00266558
0.00266558
0.00267431
0.00304291
0.00267432
0.00304405
0.00267431
0.0030416
0.00267431
0.00304273
0.0107729
0.0128216
0.0107869
0.0128476
0.0107495
0.0127925
0.0107637
0.0128189
0.0127714
0.0107507
0.0127985
0.0107645
0.0127414
0.0107267
0.012769
0.0107408
0.00304193
0.00267428
0.00304304
0.00267434
0.00304062
0.00267427
0.00304173
0.00267433
0.00266613
0.00266612
0.00266557
0.00266557
0.00266614
0.00266614
0.00266559
0.00266559
0.0026742
0.00304075
0.00267426
0.00304185
0.00267419
0.00303944
0.00267425
0.00304055
0.0107486
0.012773
0.0107624
0.0128001
0.0107246
0.0127431
0.0107387
0.0127706
0.0127209
0.0107269
0.012749
0.0107405
0.01269
0.0107023
0.0127186
0.0107162
0.00303983
0.00267426
0.00304091
0.00267427
0.00303853
0.00267478
0.0030396
0.00267427
0.00266614
0.00266614
0.00266558
0.00266558
0.00266617
0.00266617
0.0026656
0.0026656
0.00267418
0.00303865
0.00267419
0.00303972
0.00267471
0.00303736
0.00267419
0.00303842
0.0107248
0.0127225
0.0107384
0.0127507
0.0107003
0.0126916
0.0107141
0.0127202
0.0126683
0.0107036
0.0126976
0.010717
0.0126364
0.0106785
0.0126662
0.0106922
0.00303782
0.00267489
0.00303884
0.00267422
0.00303651
0.0026749
0.00303754
0.00267432
0.00266617
0.00266617
0.00266559
0.00266559
0.00266619
0.00266619
0.00266561
0.00266561
0.00267481
0.00303664
0.00267414
0.00303766
0.00267482
0.00303534
0.00267424
0.00303636
0.0107015
0.01267
0.0107149
0.0126993
0.0106764
0.012638
0.0106901
0.0126678
0.0126135
0.0106809
0.012644
0.0106941
0.0125804
0.0106551
0.0126115
0.0106686
0.00303586
0.00267488
0.00303686
0.00267434
0.00303455
0.00267487
0.00303554
0.00267434
0.00266619
0.00266619
0.00266561
0.00266561
0.00266621
0.00266621
0.00266563
0.00266563
0.0026748
0.00303469
0.00267427
0.00303568
0.00267479
0.00303338
0.00267426
0.00303437
0.0106788
0.0126151
0.010692
0.0126457
0.0106531
0.0125821
0.0106666
0.0126131
0.0125562
0.0106586
0.0125881
0.0106717
0.012522
0.0106323
0.0125544
0.0106456
0.00303397
0.00267485
0.00303493
0.00267431
0.00303266
0.00267484
0.00303362
0.0026743
0.00266621
0.00266621
0.00266563
0.00266562
0.00266623
0.00266623
0.00266565
0.00266565
0.00267477
0.0030328
0.00267423
0.00303375
0.00267476
0.00303149
0.00267422
0.00303245
0.0106566
0.0125578
0.0106696
0.0125897
0.0106303
0.0125236
0.0106436
0.0125561
0.0124963
0.0106369
0.0125296
0.0106498
0.0124609
0.01061
0.0124948
0.0106231
0.00303215
0.00267482
0.00303307
0.00267427
0.00303083
0.00267481
0.00303176
0.00267426
0.00266623
0.00266623
0.00266564
0.00266564
0.00266625
0.00266625
0.00266567
0.00266567
0.00267474
0.00303097
0.00267419
0.0030319
0.00267473
0.00302967
0.00267419
0.00303059
0.0106349
0.0124979
0.0106477
0.0125312
0.0106079
0.0124626
0.0106211
0.0124964
0.0124337
0.0106157
0.0124684
0.0106284
0.0123971
0.0105881
0.0124324
0.0106011
0.00303039
0.00267479
0.00303128
0.00267424
0.00302907
0.00267478
0.00302996
0.00267423
0.00266625
0.00266625
0.00266567
0.00266566
0.00266628
0.00266627
0.00266569
0.00266569
0.00267472
0.00302922
0.00267416
0.00303011
0.00267471
0.00302791
0.00267416
0.0030288
0.0106137
0.0124353
0.0106264
0.01247
0.0105861
0.0123987
0.010599
0.012434
0.0123684
0.0105951
0.0124045
0.0106075
0.0123305
0.0105667
0.0123673
0.0105795
0.0030287
0.00267477
0.00302956
0.00267422
0.00302738
0.00267476
0.00302824
0.00267421
0.00266628
0.00266627
0.00266569
0.00266569
0.0026663
0.0026663
0.00266572
0.00266572
0.0026747
0.00302754
0.00267414
0.00302839
0.00267469
0.00302622
0.00267414
0.00302708
0.0105931
0.01237
0.0106055
0.0124062
0.0105647
0.0123321
0.0105775
0.0123689
0.0123003
0.0105748
0.012338
0.0105872
0.0122611
0.0105458
0.0122994
0.0105585
0.00302708
0.00267476
0.00302791
0.0026742
0.00302575
0.00267475
0.00302658
0.0026742
0.00266631
0.00266631
0.00266572
0.00266572
0.00266634
0.00266634
0.00266576
0.00266575
0.00267468
0.00302592
0.00267413
0.00302674
0.00267468
0.00302459
0.00267412
0.00302542
0.0105728
0.0123019
0.0105852
0.0123396
0.0105438
0.0122627
0.0105565
0.012301
0.0122294
0.010555
0.0122685
0.0105672
0.012189
0.0105254
0.0122287
0.0105379
0.00302553
0.00267475
0.00302632
0.00267419
0.00302419
0.00267475
0.00302499
0.00267419
0.00266635
0.00266635
0.00266576
0.00266576
0.00266638
0.00266638
0.0026658
0.0026658
0.00267467
0.00302436
0.00267411
0.00302516
0.00267467
0.00302304
0.00267412
0.00302383
0.010553
0.012231
0.0105652
0.0122701
0.0105234
0.0121906
0.0105359
0.0122303
0.0121559
0.0105356
0.0121964
0.0105477
0.0121144
0.0105055
0.0121554
0.0105178
0.00302404
0.00267474
0.0030248
0.00267419
0.0030227
0.00267475
0.00302346
0.00267419
0.0026664
0.00266639
0.00266581
0.00266581
0.00266643
0.00266643
0.00266585
0.00266585
0.00267467
0.00302288
0.00267411
0.00302364
0.00267468
0.00302155
0.00267412
0.00302231
0.0105337
0.0121575
0.0105457
0.012198
0.0105036
0.0121159
0.0105158
0.012157
0.01208
0.0105168
0.0121218
0.0105286
0.0120373
0.0104861
0.0120796
0.0104982
0.00302262
0.00267476
0.00302335
0.0026742
0.00302128
0.00267477
0.00302201
0.00267421
0.00266645
0.00266645
0.00266587
0.00266586
0.00266649
0.00266649
0.00266591
0.00266591
0.00267468
0.00302147
0.00267412
0.00302219
0.00267469
0.00302013
0.00267413
0.00302086
0.0105148
0.0120816
0.0105267
0.0121234
0.0104842
0.0120389
0.0104963
0.0120812
0.0120019
0.0104984
0.0120448
0.0105101
0.0119583
0.0104673
0.0120016
0.0104792
0.00302128
0.00267478
0.00302197
0.00267422
0.00301993
0.00267479
0.00302062
0.00267423
0.00266652
0.00266652
0.00266593
0.00266593
0.00266656
0.00266656
0.00266598
0.00266598
0.0026747
0.00302012
0.00267414
0.00302081
0.00267472
0.00301878
0.00267416
0.00301948
0.0104965
0.0120035
0.0105082
0.0120464
0.0104654
0.0119599
0.0104773
0.0120032
0.0119221
0.0104806
0.0119659
0.0104921
0.0118776
0.010449
0.0119218
0.0104607
0.00302
0.00267482
0.00302066
0.00267425
0.00301865
0.00267483
0.00301931
0.00267427
0.0026666
0.0026666
0.00266601
0.00266601
0.00266665
0.00266665
0.00266606
0.00266606
0.00267474
0.00301885
0.00267418
0.00301951
0.00267476
0.00301751
0.00267419
0.00301817
0.0104787
0.0119237
0.0104902
0.0119675
0.0104471
0.0118792
0.0104588
0.0119233
0.0118411
0.0104633
0.0118855
0.0104747
0.0117957
0.0104314
0.0118405
0.0104429
0.0030188
0.00267487
0.00301943
0.0026743
0.00301745
0.00267488
0.00301807
0.00267432
0.00266669
0.0026667
0.0026661
0.0026661
0.00266674
0.00266674
0.00266615
0.00266615
0.00267479
0.00301765
0.00267423
0.00301827
0.00267481
0.00301631
0.00267425
0.00301693
0.0104615
0.0118427
0.0104727
0.0118871
0.0104295
0.0117973
0.010441
0.0118421
0.0117593
0.0104467
0.0118041
0.0104578
0.0117132
0.0104144
0.0117583
0.0104256
0.00301767
0.00267495
0.00301826
0.00267437
0.00301631
0.00267495
0.0030169
0.00267438
0.0026668
0.0026668
0.0026662
0.0026662
0.00266685
0.00266685
0.00266625
0.00266625
0.00267485
0.00301652
0.00267429
0.00301711
0.00267487
0.00301517
0.00267431
0.00301576
0.0104448
0.0117608
0.0104559
0.0118057
0.0104125
0.0117147
0.0104238
0.0117599
0.0116773
0.0104307
0.0117222
0.0104416
0.0116306
0.0103981
0.0116758
0.0104091
0.0030166
0.00267501
0.00301717
0.00267445
0.00301524
0.00267503
0.00301581
0.00267446
0.00266692
0.00266691
0.00266631
0.00266631
0.00266697
0.00266696
0.00266637
0.00266637
0.00267493
0.00301546
0.00267436
0.00301603
0.00267495
0.0030141
0.00267439
0.00301467
0.0104289
0.0116788
0.0104397
0.0117238
0.0103963
0.0116321
0.0104072
0.0116773
0.0115958
0.0104154
0.0116405
0.010426
0.0115486
0.0103825
0.0115935
0.0103932
0.00301559
0.00267511
0.00301616
0.00267453
0.00301422
0.00267511
0.00301478
0.00267455
0.00266704
0.00266704
0.00266644
0.00266643
0.00266709
0.00266709
0.00266649
0.00266649
0.00267503
0.00301445
0.00267445
0.00301501
0.00267504
0.00301308
0.00267447
0.00301365
0.0104135
0.0115973
0.0104241
0.011642
0.0103807
0.0115501
0.0103914
0.011595
0.0115153
0.0104007
0.0115595
0.0104111
0.0114678
0.0103677