/*--------------------------------*- C++ -*----------------------------------*\
  =========                 |
  \\      /  F ield         | OpenFOAM: The Open Source CFD Toolbox
   \\    /   O peration     | Website:  https://openfoam.org
    \\  /    A nd           | Version:  9
     \\/     M anipulation  |
\*---------------------------------------------------------------------------*/
FoamFile
{
    format      ascii;
    class       volScalarField;
    location    "3";
    object      epsilon;
}
// * * * * * * * * * * * * * * * * * * * * * * * * * * * * * * * * * * * * * //

dimensions      [0 2 -3 0 0 0 0];

internalField   nonuniform List<scalar> 
36360
(
4.32974
3.59667
2.61526
2.33928
3.27198
2.96087
0.828348
1.26101
1.93389
1.15031
1.04312
0.503685
1.61009
0.933234
0.432412
0.148708
0.847061
0.846804
0.321681
0.321505
0.692238
0.691947
0.0929449
0.0928787
1.14951
1.93253
0.503084
1.04198
0.932255
1.60818
0.14839
0.431438
3.59493
4.32779
2.33766
2.61338
2.95776
3.26821
1.25899
0.826564
6.61784
5.55172
5.6078
4.65743
7.25102
6.19223
5.42973
4.62804
3.56392
2.56466
2.78215
1.8597
4.273
3.26761
2.93705
2.05623
2.1484
2.14809
1.4847
1.48441
2.85745
2.85693
1.71083
1.7104
2.56375
3.56249
1.85882
2.78073
3.26599
4.27019
2.05486
2.9346
5.55
6.616
4.65568
5.6058
6.18807
7.24601
4.6243
5.42522
8.21233
7.03936
7.46736
6.33679
10.3516
9.02521
8.87062
7.65328
4.9404
3.86488
4.28181
3.23648
6.80703
5.64336
5.56862
4.47421
3.40728
3.40698
2.7952
2.79489
5.15161
5.15097
4.0178
4.0172
3.864
4.93904
3.23558
4.28041
5.64143
6.80377
4.4724
5.56554
7.0378
8.21072
6.33515
7.46557
9.02056
10.3461
7.64884
8.86537
9.46273
8.23783
8.87168
7.66943
12.9497
11.4855
11.7067
10.301
6.09105
4.98104
5.54209
4.44633
9.06798
7.80307
7.97452
6.75535
4.50457
4.50429
3.97768
3.97739
7.26169
7.261
6.23597
6.2353
4.98023
6.08983
4.44548
5.54081
7.80102
9.06458
6.75333
7.97116
8.23649
9.46136
7.66797
8.87012
11.4807
12.9441
10.2963
11.7012
10.4659
9.20974
9.99053
8.74825
15.1183
13.5774
14.083
12.5752
7.04318
5.91683
6.59001
5.47046
11.0209
9.68728
10.0826
8.78016
5.43089
5.43064
4.98849
4.98823
9.11394
9.11326
8.22116
8.22047
5.91611
7.04211
5.4697
6.58887
9.68524
11.0175
8.77811
10.0792
9.20859
10.4648
8.74701
9.98921
13.5728
15.1129
12.5705
14.0775
11.2741
9.99847
10.8908
9.62392
16.9124
15.3265
16.0574
14.4911
7.82473
6.69124
7.4534
6.32283
12.6728
11.2927
11.8823
10.5234
6.2007
6.20047
5.83419
5.83395
10.6982
10.6976
9.93844
9.93777
6.69061
7.82379
6.32215
7.4524
11.2907
12.6696
10.5214
11.8791
9.99749
11.2731
9.62286
10.8897
15.322
16.9072
14.4866
16.0521
11.9244
10.6361
11.6161
10.3337
18.387
16.7738
17.6852
16.0838
8.46209
7.32666
8.1598
7.02501
14.0518
12.6403
13.3937
11.9966
6.83427
6.83408
6.53332
6.53311
12.032
12.0313
11.3945
11.3939
7.3261
8.46127
7.02442
8.15893
12.6385
14.0487
11.9947
13.3906
10.6353
11.9236
10.3328
11.6152
16.7696
18.3821
16.0796
17.6802
12.445
11.1482
12.1984
10.9056
19.5908
17.961
19.0186
17.396
8.97822
7.844
8.73386
7.5989
15.1912
13.759
14.6487
13.226
7.35151
7.35134
7.10633
7.10614
13.1416
13.141
12.6126
12.612
7.8435
8.9775
7.59837
8.73309
13.7573
15.1883
13.2242
14.6458
11.1475
12.4444
10.9048
12.1976
17.9571
19.5862
17.3919
19.0139
12.858
11.5558
12.6627
11.363
20.5657
18.9261
20.1032
18.4677
9.39267
8.26166
9.19694
8.06431
16.1234
14.6783
15.6806
14.2414
7.77026
7.7701
7.57229
7.57213
14.0555
14.055
13.621
13.6204
8.26121
9.39203
8.06384
9.19626
14.6766
16.1207
14.2397
15.6779
11.5552
12.8576
11.3624
12.6621
18.9224
20.5614
18.4639
20.0988
13.1807
11.8756
13.0287
11.7249
21.3455
19.7015
20.9768
19.3343
9.72142
8.59502
9.56677
8.4381
16.8775
15.4251
16.5205
15.0714
8.10545
8.10531
7.94757
7.94742
14.7994
14.7989
14.4469
14.4463
8.59462
9.72085
8.43768
9.56617
15.4236
16.8749
15.0698
16.5179
11.8751
13.1804
11.7243
13.0283
19.698
21.3418
19.3307
20.9728
13.4276
12.1213
13.3118
12.0061
21.9597
20.315
21.6702
20.0255
9.97766
8.8569
9.85777
8.73426
17.4785
16.0232
17.1951
15.7411
8.36968
8.36955
8.24585
8.24571
15.3963
15.3958
15.1146
15.1141
8.85653
9.97714
8.73388
9.85723
16.0218
17.4761
15.7396
17.1927
12.1209
13.4275
12.0056
13.3115
20.3117
21.9564
20.0221
21.6668
13.6103
12.3042
13.5254
12.2192
22.4339
20.7895
22.2117
20.567
10.1721
9.05779
10.0819
8.96447
17.9476
16.4928
17.7279
16.2726
8.57334
8.57321
8.47863
8.47851
15.8661
15.8656
15.6457
15.6452
9.05745
10.1717
8.96412
10.0814
16.4913
17.9453
16.2712
17.7255
12.3037
13.61
12.2187
13.5251
20.7861
22.4293
20.5636
22.2078
13.738
12.4333
13.6794
12.374
22.7854
21.144
22.6222
20.9791
10.3137
9.20636
10.2489
9.13821
18.3026
16.8508
18.1378
16.6844
8.72497
8.72486
8.6553
8.65518
16.2255
16.2251
16.0584
16.0579
9.20606
10.3133
9.13789
10.2485
16.8494
18.3004
16.683
18.1355
12.433
13.7383
12.3737
13.6794
21.141
22.7822
20.9759
22.6185
13.8182
12.5155
13.7828
12.479
23.0324
21.3941
22.9201
21.2799
10.4094
9.30958
10.3668
9.26336
18.558
17.1115
18.4414
16.9922
8.83154
8.83143
8.78364
8.78354
16.4886
16.4881
16.3681
16.3676
9.3093
10.409
9.26307
10.3665
17.1102
18.5559
16.9909
18.4393
12.5154
13.8185
12.4789
13.783
21.3914
23.0297
21.277
22.917
13.8556
12.556
13.8411
12.54
23.1856
21.5516
23.119
21.4825
10.4645
9.37296
10.4417
9.34606
18.7256
17.2864
18.6516
17.2087
8.89858
8.89847
8.86982
8.86972
16.6667
16.6663
16.5874
16.5869
9.37267
10.4641
9.34577
10.4413
17.2851
18.7234
17.2074
18.6495
12.5556
13.8557
12.5398
13.8416
21.5487
23.1829
21.4798
23.117
13.8516
12.5562
13.8584
12.5608
23.2517
21.6234
23.2279
21.5971
10.4826
9.40068
10.4781
9.39119
18.814
17.3847
18.7788
17.3444
8.93055
8.93045
8.91886
8.91876
16.7695
16.7691
16.7268
16.7264
9.40039
10.4821
9.39089
10.4776
17.3834
18.8118
17.3431
18.7767
12.5559
13.8514
12.5603
13.8581
21.6203
23.2488
21.5941
23.2255
13.8092
12.5214
13.8334
12.5418
23.2411
21.6184
23.2538
21.6277
10.4678
9.39668
10.4789
9.40238
18.8305
17.4135
18.8303
17.4073
8.93123
8.93115
8.93464
8.93455
16.8039
16.8035
16.7948
16.7943
9.39648
10.4676
9.40212
10.4785
17.4123
18.8286
17.406
18.8282
12.521
13.8088
12.5414
13.833
21.616
23.2371
21.6248
23.25
13.7423
12.4611
13.7779
12.4938
23.1655
21.5522
23.2097
21.5921
10.4254
9.3649
10.4499
9.38426
18.7869
17.3832
18.8167
17.4058
8.90436
8.9043
8.92133
8.92126
16.7797
16.7794
16.7988
16.7984
9.36478
10.4256
9.38411
10.4499
17.3821
18.7853
17.4046
18.8149
12.4622
13.7435
12.494
13.778
21.5509
23.1629
21.5903
23.2063
13.6441
12.3718
13.6963
12.419
23.0274
21.4228
23.1027
21.4935
10.357
9.30763
10.3943
9.33936
18.6842
17.2949
18.7418
17.3452
8.85212
8.85203
8.88133
8.88126
16.6979
16.6975
16.7449
16.7445
9.30737
10.3566
9.33918
10.3942
17.2937
18.6821
17.3441
18.74
12.3718
13.6445
12.4198
13.6974
21.4196
23.0239
21.4914
23.0999
13.5246
12.2617
13.5859
12.3188
22.8345
21.2403
22.9362
21.3367
10.266
9.22785
10.3142
9.27054
18.5305
17.1565
18.6131
17.2315
8.77746
8.77736
8.81761
8.81751
16.5665
16.5661
16.638
16.6376
9.22758
10.2657
9.27026
10.3138
17.1553
18.5285
17.2303
18.611
12.2621
13.5257
12.3188
13.5862
21.2379
22.8324
21.3335
22.9332
13.3796
12.1283
13.4539
12.1964
22.5918
21.008
22.7183
21.1289
10.154
9.12737
10.2126
9.18024
18.3293
16.9715
18.4353
17.0694
8.68221
8.6821
8.73247
8.73237
16.3888
16.3884
16.4831
16.4827
9.12703
10.1533
9.17994
10.2121
16.9702
18.3271
17.0682
18.4332
12.1268
13.3789
12.1959
13.4542
21.004
22.5876
21.1257
22.7154
13.2151
11.9755
13.2993
12.0539
22.2985
20.7259
22.4504
20.8715
10.0219
9.00734
10.0904
9.06984
18.0826
16.7424
18.211
16.8621
8.56769
8.56759
8.62743
8.62733
16.1677
16.1673
16.2833
16.2829
9.007
10.0211
9.06948
10.0895
16.7412
18.0805
16.8608
18.2088
11.973
13.2117
12.051
13.2962
20.722
22.2937
20.8669
22.4446
13.0271
11.8014
13.1231
11.8901
21.9595
20.3994
22.1334
20.5669
9.87092
8.86893
9.9487
8.9405
17.7935
16.4719
17.9429
16.612
8.435
8.43491
8.50371
8.50361
15.9055
15.9051
16.0414
16.041
8.86864
9.8704
8.94019
9.94809
16.4707
17.7915
16.6108
17.9408
11.8014
13.0271
11.8893
13.1214
20.396
21.9562
20.5636
22.1302
12.8178
11.6086
12.9238
11.7064
21.5741
20.0276
21.7712
20.2174
9.70156
8.71294
9.78844
8.79321
17.4637
16.1618
17.6332
16.3215
8.28504
8.28495
8.36228
8.36219
15.6043
15.6039
15.7595
15.7591
8.71272
9.70138
8.79296
9.78815
16.1607
17.4619
16.3203
17.6313
11.6081
12.8176
11.7062
12.9242
20.0254
21.5709
20.2149
21.7677
12.5882
11.3978
12.7041
11.5042
21.1432
19.6134
21.3624
19.8243
9.51499
8.54014
9.61036
8.62872
17.0943
15.8138
17.2835
15.9922
8.11855
8.11846
8.20396
8.20388
15.2657
15.2654
15.4394
15.439
8.53995
9.5149
8.62853
9.61029
15.8127
17.0926
15.9911
17.2817
11.398
12.5898
11.5046
12.7052
19.6119
21.143
19.8227
21.3613
12.3408
11.1696
12.466
11.285
20.6752
19.161
20.9128
19.3906
9.3122
8.35135
9.41562
8.44784
16.6875
15.4296
16.8951
15.6259
7.93623
7.93613
8.02948
8.02939
14.8915
14.8911
15.0828
15.0824
8.35106
9.31174
8.44759
9.41531
15.4284
16.6854
15.6247
16.8931
11.1692
12.3404
11.2847
12.4663
19.1575
20.6716
19.3881
20.9113
12.0729
10.9243
12.2082
11.048
20.1641
18.6687
20.4237
18.918
9.09312
8.14692
9.20463
8.25119
16.2449
15.0106
16.4702
15.2242
7.73855
7.73846
7.83943
7.83934
14.4828
14.4824
14.6912
14.6908
8.14669
9.09285
8.25092
9.20427
15.0094
16.243
15.223
16.4681
10.9243
12.0734
11.048
12.2083
18.6662
20.161
18.9151
20.4201
11.7845
10.6606
11.9307
10.7941
19.6124
18.1376
19.8925
18.4071
8.85769
7.92704
8.97752
8.03905
15.7671
14.5577
16.0101
14.7881
7.52577
7.52569
7.63418
7.6341
14.0408
14.0404
14.2657
14.2653
7.92683
8.85742
8.03883
8.97726
14.5566
15.7653
14.787
16.0082
10.6605
11.7847
10.7941
11.931
18.135
19.6093
18.4045
19.8895
11.4739
10.3775
11.6311
10.5206
19.0189
17.5664
19.3198
17.8557
8.60553
7.69178
8.73367
7.81142
15.2544
14.0718
15.5147
14.3186
7.29815
7.29808
7.41393
7.41385
13.5665
13.5661
13.8074
13.807
7.69157
8.60526
7.81122
8.7334
14.0707
15.2526
14.3175
15.5129
10.3773
11.474
10.5205
11.6311
17.5639
19.0158
17.8531
19.3168
11.1438
10.0772
11.3103
10.2286
18.3874
16.9589
18.7067
17.2659
8.3378
7.44186
8.47354
7.56872
14.7089
13.5546
14.9853
13.8168
7.05628
7.0562
7.17909
7.17902
13.0616
13.0612
13.3176
13.3172
7.44166
8.33753
7.56852
8.47328
13.5536
14.7071
13.8157
14.9835
10.077
11.1439
10.2285
11.3103
16.9564
18.3844
17.2634
18.7037
10.797
9.76175
10.9716
9.92057
17.722
16.3186
18.0579
16.6417
8.05576
7.17815
8.19853
7.31181
14.1331
13.0082
14.4244
13.2848
6.80084
6.80076
6.93035
6.93028
12.5278
12.5274
12.798
12.7977
7.17794
8.0555
7.3116
8.19827
13.0072
14.1314
13.2837
14.4226
9.76161
10.797
9.92043
10.9716
16.3162
17.719
16.6392
18.0549
10.4352
9.4324
10.6172
9.59807
17.0258
15.6492
17.3767
15.9864
7.76029
6.90126
7.90969
7.04144
13.5292
12.4343
13.8343
12.7245
6.53234
6.53226
6.66833
6.66825
11.9667
11.9663
12.2504
12.2501
6.90105
7.76002
7.04123
7.90942
12.4333
13.5275
12.7234
13.8326
9.43226
10.4353
9.59793
10.6171
15.6467
17.0229
15.984
17.3738
10.06
9.09016
10.2486
9.2622
16.3009
14.952
16.6661
15.3031
7.45187
6.61145
7.60771
6.75808
12.8986
11.8339
13.2169
12.1372
6.25096
6.25088
6.39339
6.39332
11.3792
11.3789
11.676
11.6757
6.61124
7.4516
6.75788
7.60745
11.8329
12.8969
12.1362
13.2152
9.09002
10.06
9.26206
10.2485
14.9496
16.298
15.3007
16.6632
9.67201
8.73525
9.86694
8.91366
15.5479
14.2278
15.9272
14.5923
7.13038
6.30847
7.29282
6.46176
12.2415
11.2075
12.5731
11.5238
5.95638
5.9563
6.10548
6.10541
10.7658
10.7655
11.0756
11.0753
6.30826
7.13011
6.46155
7.29255
11.2065
12.2399
11.5228
12.5714
8.7351
9.67202
8.91351
9.86689
14.2254
15.5451
14.59
15.9244
9.27086
8.36685
9.47253
8.55221
14.7659
13.4765
15.16
13.8547
6.79477
5.99122
6.96449
6.15185
11.5576
10.5545
11.9028
10.8843
5.64751
5.64744
5.80395
5.80388
10.1259
10.1255
10.4491
10.4488
5.99101
6.7945
6.15164
6.96422
10.5535
11.556
10.8833
11.9012
8.3667
9.27085
8.55206
9.47248
13.4742
14.7632
13.8524
15.1573
8.85384
7.98199
9.06401
8.17617
13.9504
12.6959
14.3621
13.0893
6.44214
5.65716
6.62089
5.82662
10.8441
9.87222
11.2046
10.2171
5.32209
5.32201
5.48717
5.4871
9.45703
9.4567
9.79513
9.7948
5.65696
6.44188
5.82642
6.62063
9.87125
10.8425
10.2161
11.203
7.98184
8.85383
8.17602
9.06395
12.6937
13.9477
13.087
14.3595
8.41348
7.57235
8.63675
7.78059
13.0912
11.8798
13.5265
12.2922
6.06536
5.30118
6.25753
5.48247
10.0935
9.15495
10.4741
9.51836
4.97628
4.97621
5.15212
5.15205
8.755
8.75469
9.11037
9.11005
5.30098
6.06511
5.48227
6.25728
9.15402
10.092
9.51741
10.4725
7.57221
8.41347
7.78044
8.63668
11.8777
13.0887
12.29
13.5239
7.93265
7.10912
8.17898
7.3506
12.1747
11.0051
12.64
11.4526
5.64513
4.91394
5.86281
5.11228
9.28399
8.3916
9.6984
8.77975
4.60588
4.60581
4.79437
4.7943
8.01516
8.01487
8.38974
8.38944
4.91375
5.6449
5.11209
5.86257
8.39073
9.28256
8.77885
9.69692
7.109
7.93265
7.35047
8.17892
11.0031
12.1723
11.4505
12.6376
7.39593
6.44064
7.67122
6.82467
11.1618
9.87688
11.6926
10.5053
5.13145
4.48747
5.40449
4.70528
8.35443
7.57433
8.83954
7.98874
4.21516
4.21509
4.41195
4.41188
7.24608
7.24581
7.63227
7.63199
4.4873
5.13122
4.7051
5.40427
7.57353
8.35312
7.9879
8.83817
6.44053
7.39597
6.82455
7.67118
9.87506
11.1595
10.5034
11.6903
5.95721
4.99484
4.57222
3.88667
5.27209
4.36725
3.76656
3.19484
3.22888
2.26087
2.29667
1.48516
2.61508
1.70854
1.69591
0.986709
1.84135
1.84102
1.15351
1.15318
1.33216
1.33186
0.714607
0.714339
2.25994
3.22757
1.48415
2.2951
1.70765
2.61371
0.985868
1.69449
4.99371
5.95634
3.88499
4.57047
4.3658
5.27063
3.19313
3.76459
7.62389
6.55462
6.9212
5.87297
7.14289
6.05907
6.33879
5.30742
4.71697
3.65381
4.0336
2.99274
4.13825
3.08182
3.42772
2.41809
3.17233
3.17211
2.52937
2.5291
2.61935
2.61908
1.98478
1.98449
3.65324
4.71633
2.99199
4.03263
3.08108
4.1372
2.41726
3.4265
6.55443
7.62414
5.87232
6.92086
6.05817
7.14216
5.30625
6.33766
8.62663
7.57753
8.17408
7.11008
8.34822
7.2373
7.79505
6.69087
5.81105
4.7629
5.30325
4.24224
5.31979
4.23909
4.76425
3.68902
4.279
4.27889
3.75624
3.75608
3.75612
3.75591
3.21239
3.21216
4.76266
5.81093
4.24185
5.30287
4.23854
5.31909
3.68837
4.76338
7.578
8.62762
7.11023
8.17465
7.23687
8.34803
6.69021
7.79451
9.32972
8.32008
9.0045
7.9751
9.23946
8.13428
8.8235
7.71334
6.64047
5.62953
6.25325
5.22314
6.25413
5.18072
5.81362
4.7349
5.15797
5.15794
4.74473
4.74466
4.69614
4.69599
4.24997
4.2498
5.62952
6.64069
5.22301
6.2533
5.18035
6.25371
4.73445
5.81306
8.32095
9.33115
7.97577
9.00565
8.1342
9.23969
7.71308
8.82343
9.85393
8.88199
9.60926
8.61917
9.92736
8.83636
9.60355
8.50544
7.28004
6.3071
6.98059
5.98922
6.99806
5.94026
6.64701
5.58116
5.85039
5.85042
5.52512
5.52512
5.45993
5.45983
5.09837
5.09825
6.30724
7.28048
5.98928
6.98092
5.94001
6.99783
5.58085
6.64669
8.88309
9.85561
8.62015
9.61075
8.83652
9.92785
8.50547
9.60382
10.2531
9.31372
10.0659
9.11118
10.4668
9.38999
10.2123
9.12879
7.77702
6.83796
7.54407
6.58886
7.59111
6.5505
7.3113
6.26225
6.39533
6.39539
6.13942
6.13946
6.07619
6.07613
5.78487
5.78479
6.83819
7.7776
6.58904
7.54457
6.55035
7.59103
6.26205
7.31114
9.31495
10.2549
9.11233
10.0676
9.39032
10.4675
9.12902
10.2128
10.5589
9.64638
10.4155
9.49036
10.8907
9.82669
10.6906
9.62059
8.1639
7.25401
7.98266
7.05892
8.06318
7.03925
7.84061
6.80865
6.8239
6.82398
6.6228
6.62287
6.57137
6.57133
6.33759
6.33754
7.2543
8.16456
7.05918
7.98326
7.03918
8.0632
6.80854
7.84058
9.64767
10.5607
9.4916
10.4172
9.82713
10.8915
9.62096
10.6913
10.791
9.90075
10.6823
9.78163
11.222
10.1696
11.0657
10.0079
8.46378
7.57892
8.32356
7.42684
8.43722
7.42881
8.26115
7.24531
7.15976
7.15986
7.00243
7.00251
6.9672
6.96718
6.78064
6.78061
7.57925
8.46448
7.42714
8.32422
7.42878
8.43733
7.24526
8.2612
9.90207
10.7929
9.78292
10.6841
10.1701
11.2229
10.0084
11.0665
10.9639
10.0922
10.8833
10.0029
11.4777
10.4356
11.3574
10.3105
8.69381
7.83054
8.58667
7.71318
8.73095
7.73687
8.5931
7.59217
7.42097
7.42107
7.29901
7.29911
7.28128
7.28127
7.13366
7.13364
7.8309
8.69454
7.71351
8.58737
7.73688
8.7311
7.59216
8.59322
10.0935
10.9657
10.0042
10.8851
10.4361
11.4786
10.311
11.3582
11.0878
10.232
11.0306
10.1673
11.6706
10.6378
11.5803
10.5432
8.86681
8.02241
8.78683
7.93346
8.95817
7.97742
8.85207
7.86495
7.6213
7.62141
7.52829
7.5284
7.52753
7.52753
7.41229
7.41228
8.02277
8.86755
7.93382
8.78755
7.97746
8.95837
7.86498
8.85224
10.2333
11.0896
10.1687
11.0324
10.6384
11.6716
10.5437
11.5812
11.1709
10.3288
11.1332
10.2847
11.811
10.7867
11.7458
10.7176
8.99264
8.16492
8.93516
8.0995
9.1299
8.16157
9.05033
8.07606
7.77137
7.77149
7.70232
7.70243
7.71709
7.7171
7.62895
7.62895
8.16529
8.99339
8.09987
8.9359
8.16164
9.13013
8.07612
9.05054
10.3301
11.1727
10.286
11.135
10.7873
11.812
10.7182
11.7467
11.2192
10.3891
11.1983
10.3626
11.9066
10.8903
11.863
10.8429
9.07886
8.26614
9.04037
8.22049
9.25474
8.29814
9.19767
8.23545
7.87945
7.87956
7.83049
7.8306
7.85883
7.85885
7.79362
7.79363
8.26653
9.07962
8.22087
9.04112
8.29822
9.255
8.23553
9.19791
10.3905
11.2211
10.3639
11.2001
10.8909
11.9077
10.8436
11.8639
11.2379
10.4186
11.2312
10.4069
11.9643
10.9554
11.9389
10.9265
9.13155
8.33246
9.10914
8.30355
9.33973
8.39423
9.30179
8.35098
7.95203
7.95215
7.92009
7.92021
7.95989
7.95992
7.91422
7.91424
8.33286
9.13233
8.30394
9.1099
8.39434
9.34003
8.35107
9.30206
10.42
11.2398
10.4082
11.233
10.9562
11.9655
10.9272
11.9398
11.2306
10.4211
11.2366
10.4225
11.9887
10.987
11.9795
10.9744
9.15525
8.36878
9.14687
8.35435
9.39018
8.45541
9.36896
8.42902
7.99419
7.99431
7.97692
7.97704
8.02591
8.02594
7.99715
7.99717
8.36918
9.15603
8.35474
9.14764
8.45553
9.3905
8.42914
9.36927
10.4224
11.2325
10.4238
11.2385
10.9877
11.9899
10.9751
11.9806
11.1998
10.3996
11.2173
10.4126
11.9831
10.9886
11.9885
10.9906
9.15355
8.3789
9.15746
8.37715
9.41019
8.48599
9.40376
8.47443
8.00982
8.00994
8.00538
8.0055
8.06129
8.06131
8.04735
8.04738
8.37929
9.15433
8.37754
9.15823
8.48609
9.41048
8.47454
9.40406
10.4009
11.2017
10.414
11.2191
10.9892
11.9842
10.9913
11.9896
11.1472
10.3559
11.1756
10.3799
11.949
10.9623
11.969
10.9783
9.12896
8.36583
9.1441
8.37536
9.40274
8.48927
9.40972
8.49099
8.00213
8.00225
8.00897
8.00909
8.06947
8.0695
8.06877
8.0688
8.36623
9.12973
8.37576
9.14486
8.48938
9.40303
8.4911
9.40999
10.3573
11.1491
10.3812
11.1774
10.9631
11.9502
10.979
11.9699
11.0741
10.2918
11.1126
10.3259
11.8887
10.9101
11.9212
10.9387
9.08351
8.33173
9.10884
8.3515
9.37009
8.46812
9.3894
8.48178
7.97336
7.97349
7.99049
7.99061
8.05357
8.05362
8.06461
8.06465
8.33215
9.08433
8.35191
9.10963
8.46829
9.37049
8.48191
9.38972
10.2932
11.076
10.3273
11.1144
10.9107
11.8896
10.9395
11.9224
10.9818
10.2087
11.0296
10.2521
11.8035
10.8346
11.8475
10.8737
9.0193
8.27891
9.05372
8.30777
9.3156
8.42526
9.34527
8.44936
7.92589
7.92602
7.95211
7.95224
8.016
8.01605
8.0375
8.03755
8.27934
9.02015
8.3082
9.05456
8.42547
9.31614
8.44956
9.34576
10.2102
10.9839
10.2535
11.0316
10.8365
11.806
10.8748
11.8485
10.8728
10.1097
10.928
10.1602
11.7026
10.7433
11.7541
10.7904
8.93866
8.20949
8.98096
8.24639
9.24241
8.36326
9.28124
8.39666
7.86174
7.86187
7.89605
7.89618
7.95919
7.95923
7.99003
7.99008
8.2099
8.93944
8.24681
8.98178
8.3634
9.24272
8.39684
9.28168
10.111
10.8746
10.1617
10.93
10.7433
11.7031
10.7914
11.7562
10.7503
9.99706
10.8127
10.0544
11.584
10.6343
11.6448
10.6901
8.84387
8.12542
8.89307
8.16944
9.15235
8.28419
9.19939
8.3259
7.78276
7.78289
7.82429
7.82441
7.88523
7.88526
7.92442
7.92445
8.12582
8.84464
8.16984
8.89383
8.2843
9.15267
8.32602
9.19969
9.9984
10.7523
10.0558
10.8145
10.6358
11.586
10.6907
11.6452
10.6165
9.87314
10.6841
9.93616
11.4503
10.5112
11.5179
10.574
8.73608
8.02797
8.7917
8.07857
9.04674
8.18944
9.10146
8.23886
7.69027
7.69039
7.73842
7.73854
7.79557
7.79559
7.84246
7.84249
8.02836
8.73683
8.07896
8.79246
8.18952
9.0469
8.23896
9.10171
9.87442
10.6183
9.93747
10.6859
10.5109
11.4503
10.5746
11.5195
10.4685
9.73573
10.5438
9.80552
11.2997
10.3717
11.3766
10.4428
8.61571
7.91791
8.67757
7.97473
8.92612
8.0799
8.98829
8.13662
7.58513
7.58526
7.63951
7.63963
7.69122
7.69125
7.74535
7.74537
7.91831
8.61647
7.97512
8.67831
8.07999
8.92633
8.1367
8.98844
9.73703
10.4704
9.80678
10.5456
10.3726
11.3008
10.4429
11.3762
10.3091
9.58755
10.3895
9.66267
11.1336
10.2186
11.2175
10.2962
8.48346
7.79592
8.5512
7.85863
8.79129
7.95636
8.86046
8.01999
7.46806
7.46819
7.52833
7.52845
7.57299
7.57302
7.63397
7.634
7.79632
8.48424
7.85903
8.55196
7.95648
8.79154
8.02009
8.86068
9.58889
10.3109
9.66398
10.3913
10.2185
11.134
10.2967
11.2188
10.1362
9.42675
10.224
9.50827
10.9522
10.0506
11.0445
10.1359
8.33963
7.66247
8.41314
7.73085
8.6428
7.81946
8.71879
7.88971
7.33959
7.33972
7.4055
7.40562
7.44153
7.44157
7.50905
7.50908
7.66288
8.34044
7.73126
8.41392
7.81961
8.64322
7.88984
8.71914
9.42816
10.1383
9.50964
10.2259
10.0521
10.954
10.1366
11.0449
9.95157
9.25535
10.0446
9.34197
10.7551
9.86934
10.8543
9.9608
8.18466
7.518
8.26365
7.59183
8.48106
7.6697
8.56353
7.74629
7.20017
7.2003
7.27149
7.27162
7.29739
7.29743
7.37118
7.37122
7.51841
8.18548
7.59225
8.26447
7.66986
8.48146
7.74645
8.56395
9.25677
9.95352
9.34339
10.0466
9.86963
10.7561
9.96181
10.8564
9.75509
9.07295
9.8544
9.16504
10.5449
9.67515
10.6514
9.77344
8.01918
7.36299
8.10337
7.44205
8.30709
7.50775
8.39568
7.59039
7.05022
7.05034
7.12676
7.12689
7.14111
7.14114
7.22091
7.22095
7.3634
8.01996
7.44245
8.10416
7.50787
8.30742
7.59052
8.39603
9.07431
9.75712
9.16642
9.8563
9.67632
10.5464
9.77402
10.6519
9.54821
8.88088
9.65228
8.97776
10.3201
9.46902
10.4328
9.57258
7.84334
7.19763
7.93272
7.28185
8.12089
7.3338
8.21548
7.4224
6.88995
6.89008
6.97163
6.97176
6.97296
6.973
7.05867
7.0587
7.19804
7.84414
7.28226
7.9335
7.33394
8.12123
7.42252
8.2158
8.88226
9.55014
8.97912
9.65421
9.46948
10.3211
9.57348
10.4345
9.32896
8.67716
9.43974
8.78007
10.0826
9.25035
10.2026
9.36084
7.65674
7.02186
7.75156
7.11129
7.92245
7.14792
8.02332
7.24251
6.71944
6.71957
6.80623
6.80636
6.79309
6.79313
6.88465
6.88469
7.02229
7.65756
7.11171
7.75236
7.14808
7.92283
7.24266
8.02368
8.67856
9.33096
8.78146
9.44165
9.25116
10.0838
9.36149
10.2034
9.09657
8.46176
9.21387
8.57049
9.82782
9.01653
9.95662
9.13464
7.45934
6.8358
7.55952
6.93034
7.71103
6.95004
7.81837
7.0506
6.53886
6.53899
6.63064
6.63077
6.6016
6.60165
6.69893
6.69898
6.83623
7.46016
6.93076
7.56033
6.9502
7.71141
7.05076
7.81875
8.46315
9.09856
8.57189
9.2158
9.01735
9.82909
9.13546
9.9578
8.85283
8.23598
8.97552
8.3497
9.5583
8.76974
9.69402
8.89404
7.25192
6.63998
7.35698
6.73931
7.4876
6.74076
7.60078
6.84692
6.34863
6.34876
6.44517
6.4453
6.39898
6.39903
6.5018
6.50185
6.6404
7.25272
6.73973
7.35778
6.74092
7.48797
6.84708
7.60116
8.23737
8.85479
8.35109
8.97743
8.77055
9.55956
8.89485
9.69519
8.59977
8.00128
8.72691
8.11931
9.27678
8.51194
9.41827
8.64157
7.03541
6.43502
7.1449
6.53884
7.25332
6.5208
7.37181
6.63221
6.14927
6.1494
6.25031
6.25044
6.18579
6.18584
6.29383
6.29387
6.43543
7.0362
6.53925
7.1457
6.52096
7.25369
6.63237
7.37218
8.00265
8.6017
8.12068
8.7288
8.51273
9.27801
8.64237
9.41943
8.33876
7.75878
8.46976
7.88061
8.98502
8.24416
9.13145
8.37868
6.81051
6.22139
6.92413
6.3295
7.00894
6.29069
7.13241
6.40713
5.94112
5.94125
6.04652
6.04665
5.96244
5.96248
6.07552
6.07556
6.2218
6.81129
6.3299
6.92491
6.29085
7.0093
6.40728
7.13277
7.76012
8.34065
7.88196
8.47161
8.24494
8.98623
8.37946
9.13258
8.07083
7.50909
8.20518
7.63447
8.68427
7.96734
8.8351
8.10631
6.57754
5.99921
6.69518
6.1116
6.75487
6.05061
6.88316
6.17203
5.72421
5.72434
5.83401
5.83413
5.729
5.72904
5.84713
5.84717
5.99961
6.57831
6.112
6.69595
6.05075
6.75522
6.17218
6.88351
7.51041
8.07269
7.6358
8.207
7.96809
8.68544
8.10708
8.83621
7.79655
7.25238
7.93406
7.38129
8.37503
7.68161
8.5301
7.82508
6.33633
5.76812
6.45814
5.88504
6.49092
5.80019
6.62422
5.92686
5.49803
5.49815
5.61256
5.61268
5.48507
5.4851
5.60852
5.60856
5.76851
6.33708
5.88543
6.4589
5.80033
6.49126
5.927
6.62456
7.25368
7.79836
7.3826
7.93585
7.68235
8.37616
7.82583
8.53117
7.51551
6.98794
7.65654
7.12089
8.05687
7.38615
8.21656
7.53469
6.08584
5.52696
6.21249
5.64912
6.216
5.53826
6.35501
5.67091
5.26143
5.26155
5.38136
5.38147
5.22945
5.22949
5.35896
5.359
5.52735
6.08658
5.6495
6.21323
5.5384
6.21633
5.67104
6.35534
6.98921
7.51728
7.12217
7.65828
7.38686
8.05798
7.53542
8.21761
7.22543
6.71319
7.37144
6.85178
7.7271
7.07792
7.89316
7.23343
5.82339
5.27322
5.9565
5.40209
5.92713
5.26219
6.07364
5.40234
5.01216
5.01227
5.13877
5.13889
4.95976
4.95979
5.09669
5.09672
5.27359
5.82411
5.40246
5.95722
5.26232
5.92744
5.40248
6.07396
6.71443
7.22716
6.85304
7.37314
7.07862
7.72816
7.23413
7.89417
6.92081
6.42152
7.07503
6.56982
7.37844
6.74874
7.55528
6.91633
5.54294
5.00231
5.68614
5.14047
5.61721
4.96677
5.77556
5.11746
4.74679
4.74689
4.88191
4.88202
4.67208
4.67211
4.81856
4.8186
5.00267
5.54364
5.14083
5.68684
4.9669
5.61752
5.11758
5.77587
6.42273
6.92249
6.57105
7.07669
6.74942
7.37947
6.91702
7.55626
6.59406
6.09351
6.75995
6.26407
6.99691
6.37285
7.1921
6.56931
5.23009
4.70735
5.39214
4.85846
5.26823
4.64319
5.44952
4.80924
4.46253
4.46263
4.60718
4.60729
4.36243
4.36246
4.52019
4.52022
4.70769
5.23076
4.8588
5.39282
4.6433
5.26853
4.80936
5.44982
6.09469
6.5957
6.26527
6.76156
6.37352
6.99792
6.56997
7.19305
6.26027
5.63754
6.42573
5.89594
6.58366
5.83036
6.79274
6.14089
4.85404
4.38669
5.05237
4.54948
4.8391
4.28614
5.06699
4.46823
4.16658
4.16668
4.31479
4.31489
4.03632
4.03635
4.20022
4.20024
4.387
4.85466
4.54981
5.05302
4.28625
4.83937
4.46834
5.06727
5.63865
6.26189
5.89709
6.42731
5.83099
6.58468
6.14154
6.79369
6.88432
5.91286
5.67809
4.91496
6.47678
5.49979
5.18878
4.44959
4.21643
3.22667
3.30429
2.40995
3.75971
2.76977
2.83235
1.96479
2.77709
2.7768
2.01951
2.01914
2.32861
2.32829
1.59606
1.5957
3.22592
4.21557
2.40891
3.30284
2.7689
3.75857
1.96373
2.83079
5.91261
6.88462
4.91381
5.67713
5.49905
6.47635
4.44811
5.18726
8.31672
7.31501
7.72145
6.70959
8.00853
6.971
7.36907
6.33333
5.64536
4.63156
4.99684
3.97501
5.21958
4.17574
4.55434
3.51494
4.15628
4.15621
3.50214
3.50196
3.69295
3.6928
3.04131
3.04108
4.63145
5.64556
3.97458
4.99652
4.17538
5.21932
3.51432
4.55365
7.3161
8.31849
6.71005
7.72249
6.97142
8.00946
6.33318
7.36928
9.1175
8.17874
8.7646
7.79181
8.88926
7.899
8.49706
7.47969
6.64157
5.68765
6.18654
5.19938
6.25793
5.25626
5.78042
4.75346
5.23333
5.23341
4.73232
4.73233
4.78476
4.78475
4.27356
4.27348
5.68799
6.64245
5.19951
6.18709
5.25631
6.25829
4.7533
5.78047
8.1806
9.12007
7.79329
8.76674
7.90017
8.891
7.48049
8.49833
9.63267
8.76233
9.39951
8.49604
9.47845
8.54628
9.20896
8.24836
7.35455
6.46961
7.02661
6.10792
7.0197
6.07488
6.66688
5.69384
6.04433
6.04451
5.66812
5.66826
5.62576
5.62584
5.23323
5.23326
6.47021
7.3558
6.1084
7.02766
6.07519
7.02044
5.69401
6.66742
8.76456
9.6356
8.49807
9.40221
8.54787
9.48063
8.24972
9.21085
9.98837
9.17662
9.82515
8.98577
9.90099
9.02018
9.7052
8.80011
7.87655
7.05244
7.63534
6.78232
7.59094
6.69841
7.32524
6.4077
6.65415
6.65437
6.37106
6.37127
6.27153
6.27166
5.97003
5.97013
7.05318
7.87796
6.78299
7.63666
6.69886
7.59189
6.40807
7.32607
9.17898
9.99141
8.98804
9.82808
9.02195
9.90336
8.80177
9.70739
10.2415
9.47721
10.1246
9.33816
10.2129
9.37424
10.0677
9.2092
8.26368
7.48996
8.08441
7.28695
8.02428
7.17604
7.82233
6.95313
7.11457
7.11482
6.90068
6.90092
6.76867
6.76883
6.53644
6.53658
7.49076
8.26515
7.28771
8.08584
7.17657
8.02534
6.95361
7.82331
9.47957
10.2445
9.3405
10.1276
9.37609
10.2153
9.21099
10.07
10.4222
9.69593
10.3389
9.59485
10.4441
9.63975
10.3364
9.516
8.55187
7.81936
8.41851
7.6666
8.35418
7.54276
8.2005
7.37169
7.46298
7.46324
7.30122
7.30147
7.15194
7.15211
6.97298
6.97315
7.82018
8.55335
7.6674
8.41997
7.54334
8.35528
7.37223
8.20155
9.69824
10.4251
9.59716
10.3418
9.64161
10.4466
9.51783
10.3388
10.5482
9.85267
10.4904
9.78055
10.6134
9.83695
10.5348
9.74526
8.76497
8.06632
8.66669
7.95209
8.60414
7.82341
8.48796
7.69274
7.72571
7.72597
7.60401
7.60426
7.44655
7.44673
7.30923
7.3094
8.06713
8.76642
7.95289
8.66814
7.824
8.60525
7.69331
8.48905
9.85492
10.551
9.78281
10.4932
9.83879
10.6158
9.74709
10.5371
10.6313
9.96091
10.5938
9.91164
10.7334
9.97981
10.6781
9.91381
8.91956
8.24904
8.84881
8.16502
8.7909
8.036
8.70455
7.93744
7.92163
7.92189
7.83134
7.83159
7.67101
7.6712
7.56679
7.56697
8.24984
8.92099
8.16581
8.85023
8.0366
8.79201
7.93803
8.70565
9.96309
10.6341
9.91383
10.5965
9.98163
10.7357
9.91562
10.6804
10.6796
10.03
10.6587
9.99937
10.8129
10.0784
10.7769
10.0335
9.02748
8.38066
8.97883
8.3208
8.92668
8.19383
8.86454
8.12124
8.06442
8.06468
7.99924
7.99949
7.83904
7.83923
7.76157
7.76176
8.38145
9.02888
8.32159
8.98022
8.19444
8.92779
8.12183
8.86563
10.0322
10.6823
10.0015
10.6614
10.0802
10.8152
10.0353
10.7792
10.6992
10.0671
10.6921
10.0518
10.8588
10.1406
10.8389
10.1131
9.09746
8.47087
9.06685
8.43067
9.02067
8.30689
8.97843
8.2556
8.16422
8.16447
8.11944
8.11969
7.96098
7.96117
7.90543
7.90562
8.47164
9.09883
8.43144
9.06821
8.3075
9.02177
8.25619
8.97952
10.0692
10.7019
10.0538
10.6947
10.1424
10.8611
10.1149
10.8411
10.6944
10.0772
10.699
10.0748
10.8761
10.172
10.87
10.1593
9.13594
8.52691
9.12039
8.50301
9.07979
8.38277
9.05425
8.34925
8.22861
8.22886
8.20071
8.20096
8.04469
8.04488
8.0074
8.00759
8.52768
9.13729
8.50378
9.12173
8.38337
9.08089
8.34984
9.05533
10.0792
10.697
10.0768
10.7016
10.1737
10.8784
10.161
10.8722
10.6688
10.0645
10.6834
10.0731
10.8691
10.1772
10.8747
10.177
9.148
8.55437
9.14512
8.54416
9.10952
8.42738
9.09807
8.40884
8.26342
8.26367
8.24967
8.24992
8.0963
8.09649
8.07439
8.07458
8.55513
9.14934
8.54491
9.14645
8.42798
9.11061
8.40943
9.09915
10.0665
10.6714
10.0751
10.6859
10.1789
10.8714
10.1788
10.8769
10.6247
10.0318
10.6483
10.0501
10.8405
10.1596
10.8567
10.1706
9.13737
8.55746
9.14544
8.55897
9.11388
8.44521
9.11471
8.43958
8.27307
8.27332
8.27143
8.27167
8.12049
8.12068
8.11178
8.11197
8.55821
9.13869
8.55972
9.14675
8.44581
9.11497
8.44018
9.11579
10.0338
10.6272
10.0521
10.6509
10.1613
10.8428
10.1723
10.8589
10.564
9.98146
10.5957
10.0083
10.7925
10.1217
10.8181
10.1425
9.10686
8.53943
9.12455
8.55117
9.0961
8.43981
9.10767
8.44537
8.26106
8.2613
8.26988
8.27012
8.12093
8.12112
8.12366
8.12385
8.54018
9.10817
8.55192
9.12585
8.44041
9.09719
8.44596
9.10874
9.98343
10.5665
10.0103