/*--------------------------------*- C++ -*----------------------------------*\
  =========                 |
  \\      /  F ield         | OpenFOAM: The Open Source CFD Toolbox
   \\    /   O peration     | Website:  https://openfoam.org
    \\  /    A nd           | Version:  9
     \\/     M anipulation  |
\*---------------------------------------------------------------------------*/
FoamFile
{
    format      ascii;
    class       volScalarField;
    location    "3";
    object      k;
}
// * * * * * * * * * * * * * * * * * * * * * * * * * * * * * * * * * * * * * //

dimensions      [0 2 -2 0 0 0 0];

internalField   nonuniform List<scalar> 
36360
(
0.725163
0.646901
0.486106
0.453591
0.226502
0.211899
0.0908536
0.120106
0.445914
0.336017
0.275007
0.182635
0.141308
0.0983774
0.0589941
0.0290642
0.289147
0.28909
0.146649
0.146599
0.0807073
0.0806847
0.0212707
0.0212605
0.335847
0.445645
0.182479
0.274746
0.0983087
0.141197
0.0290227
0.0589055
0.646563
0.724781
0.453254
0.485723
0.21175
0.226328
0.119978
0.0907231
1.02409
0.92969
0.892344
0.801693
0.384583
0.346203
0.317248
0.285222
0.719705
0.60239
0.592474
0.476415
0.270438
0.226226
0.210743
0.166261
0.550424
0.550366
0.425636
0.425577
0.206914
0.206888
0.147134
0.147109
0.602221
0.719442
0.476243
0.592205
0.226151
0.270319
0.166188
0.210626
0.929366
1.02373
0.801361
0.891975
0.346048
0.384406
0.285068
0.317072
1.23257
1.13692
1.13547
1.04001
0.487419
0.444871
0.43981
0.398625
0.93005
0.81443
0.831297
0.714534
0.368678
0.325412
0.322554
0.278831
0.762649
0.762594
0.662449
0.662392
0.306246
0.306221
0.25956
0.259534
0.814271
0.929805
0.714369
0.831043
0.325337
0.36856
0.278756
0.322435
1.13662
1.23224
1.0397
1.13512
0.444718
0.487246
0.398471
0.439636
1.39306
1.29826
1.31768
1.22233
0.565783
0.522318
0.529019
0.485806
1.09562
0.982673
1.01761
0.903336
0.446233
0.403743
0.409647
0.366794
0.93195
0.9319
0.852049
0.851997
0.384864
0.38484
0.347764
0.347739
0.982529
1.0954
0.903184
1.01738
0.403672
0.446122
0.366721
0.409532
1.29799
1.39276
1.22204
1.31737
0.522174
0.56562
0.485658
0.528853
1.51907
1.42569
1.4597
1.36559
0.627231
0.583879
0.59829
0.554813
1.2271
1.11671
1.16507
1.05344
0.508113
0.466279
0.478882
0.436733
1.06714
1.0671
1.00331
1.00326
0.447709
0.447687
0.41801
0.417987
1.11658
1.22691
1.05331
1.16486
0.466213
0.50801
0.436665
0.478775
1.42545
1.5188
1.36533
1.45942
0.583746
0.62708
0.554674
0.598135
1.61879
1.52687
1.57171
1.47908
0.675866
0.632947
0.652913
0.609758
1.33192
1.22379
1.28242
1.17321
0.557636
0.516402
0.534226
0.492702
1.1753
1.17526
1.1242
1.12416
0.498131
0.49811
0.474285
0.474263
1.22368
1.33175
1.17309
1.28224
0.516343
0.557542
0.49264
0.534128
1.52665
1.61855
1.47885
1.57146
0.632825
0.675728
0.609631
0.652771
1.69802
1.60743
1.66058
1.56935
0.714561
0.67215
0.696279
0.653609
1.41567
1.30951
1.37611
1.26901
0.597344
0.556664
0.578566
0.53762
1.26197
1.26193
1.22102
1.22098
0.538668
0.538649
0.519491
0.519471
1.30941
1.41552
1.2689
1.37594
0.55661
0.597259
0.537564
0.578477
1.60724
1.69781
1.56915
1.66036
0.672038
0.714435
0.653493
0.696149
1.76099
1.67155
1.73123
1.64123
0.745391
0.703473
0.730817
0.688654
1.48257
1.37812
1.45097
1.34571
0.629181
0.589008
0.614126
0.57371
1.3314
1.33137
1.2986
1.29857
0.571262
0.571246
0.555843
0.555825
1.37803
1.48243
1.34562
1.45082
0.588958
0.629102
0.573659
0.614044
1.67138
1.7608
1.64105
1.73103
0.703371
0.745274
0.688548
0.730698
1.81086
1.72239
1.78731
1.69837
0.769894
0.728429
0.75832
0.716629
1.53584
1.43289
1.51071
1.40705
0.654639
0.614933
0.642611
0.602682
1.38688
1.38685
1.3607
1.36067
0.597423
0.597407
0.585058
0.585042
1.43281
1.53572
1.40696
1.51057
0.614887
0.654567
0.602634
0.642536
1.72223
1.81069
1.6982
1.78712
0.728334
0.769789
0.716531
0.758209
1.85001
1.76236
1.83156
1.74352
0.789221
0.748173
0.780112
0.738855
1.57797
1.47634
1.55814
1.45588
0.674876
0.635599
0.665334
0.625852
1.43095
1.43093
1.4102
1.41017
0.6183
0.618285
0.608451
0.608436
1.47626
1.57785
1.4558
1.55802
0.635557
0.674808
0.625808
0.665264
1.76222
1.84985
1.74337
1.8314
0.748085
0.789124
0.738764
0.780014
1.88029
1.79335
1.86606
1.77879
0.804276
0.763612
0.797198
0.756346
1.61087
1.51041
1.59544
1.49443
0.690791
0.65191
0.683311
0.644241
1.46559
1.46556
1.44934
1.44931
0.6348
0.634787
0.62704
0.627026
1.51034
1.61076
1.49435
1.59533
0.65187
0.690727
0.6442
0.683245
1.79322
1.88016
1.77865
1.86591
0.763529
0.804197
0.756262
0.79711
1.90316
1.8168
1.89249
1.80585
0.815793
0.775446
0.810409
0.769907
1.63604
1.53665
1.62432
1.52442
0.703086
0.664572
0.697339
0.658651
1.49233
1.49231
1.47986
1.47983
0.647637
0.647624
0.641631
0.641618
1.53658
1.63594
1.52435
1.62421
0.664534
0.703024
0.658611
0.697277
1.81667
1.90303
1.80572
1.89236
0.775361
0.815697
0.769824
0.810323
1.91974
1.83388
1.91208
1.82598
0.824289
0.784229
0.82035
0.780151
1.65468
1.55625
1.64609
1.5472
0.712317
0.674147
0.70804
0.669706
1.51239
1.51237
1.50312
1.5031
0.657373
0.65736
0.652854
0.652841
1.55619
1.65458
1.54713
1.64599
0.674111
0.712261
0.669669
0.70798
1.83376
1.91963
1.82585
1.91196
0.784156
0.824225
0.780072
0.820274
1.93091
1.84546
1.92588
1.84022
0.830228
0.790396
0.827531
0.787582
1.66771
1.57017
1.66182
1.56386
0.718923
0.681076
0.715912
0.67791
1.52673
1.52671
1.52022
1.5202
0.664452
0.66444
0.661214
0.661201
1.57011
1.66762
1.5638
1.66173
0.681041
0.718869
0.677875
0.715857
1.84535
1.93079
1.84011
1.92576
0.790328
0.830164
0.787512
0.827465
1.93729
1.85222
1.93458
1.84933
0.833902
0.794266
0.832306
0.792569
1.67583
1.57914
1.67233
1.57523
0.72324
0.685705
0.721337
0.683651
1.53611
1.53609
1.532
1.53198
0.669225
0.669213
0.667101
0.667089
1.57908
1.67574
1.57517
1.67223
0.68567
0.723184
0.683617
0.721283
1.85209
1.93717
1.84922
1.93449
0.794194
0.833838
0.792502
0.832255
1.93922
1.85446
1.93878
1.85385
0.835493
0.796026
0.834924
0.795381
1.67955
1.58373
1.6782
1.58195
0.725511
0.688299
0.724609
0.687236
1.5411
1.54108
1.53911
1.53909
0.67197
0.671958
0.67083
0.670818
1.58367
1.67945
1.58189
1.67811
0.688265
0.725456
0.687201
0.724554
1.85435
1.93909
1.85372
1.93862
0.795951
0.835415
0.795309
0.834857
1.93715
1.85282
1.93856
1.854
0.835238
0.795905
0.835543
0.796133
1.67935
1.58439
1.67987
1.58451
0.725934
0.689058
0.725929
0.688894
1.54217
1.54215
1.54209
1.54207
0.672887
0.672877
0.672644
0.672632
1.58434
1.67927
1.58445
1.67978
0.689026
0.725885
0.688861
0.725876
1.85268
1.93698
1.85388
1.93842
0.795844
0.835143
0.79606
0.835445
1.93193
1.84796
1.93482
1.8507
0.83342
0.794277
0.834477
0.795257
1.67576
1.58162
1.67795
1.58343
0.724812
0.688258
0.725578
0.688853
1.5398
1.53978
1.54142
1.5414
0.672241
0.67223
0.67275
0.672739
1.58157
1.6757
1.58339
1.67789
0.688229
0.724772
0.688823
0.725534
1.84795
1.93188
1.85061
1.9347
0.794244
0.833368
0.795211
0.834413
1.92334
1.83982
1.92797
1.84418
0.830106
0.791093
0.831915
0.792832
1.66899
1.57565
1.67273
1.579
0.72217
0.685924
0.723653
0.687254
1.53421
1.53419
1.53737
1.53735
0.670053
0.670042
0.67131
0.6713
1.5756
1.6689
1.57895
1.67266
0.685892
0.722116
0.687223
0.723607
1.83975
1.92328
1.84417
1.92794
0.791015
0.830016
0.792781
0.831848
1.91223
1.82914
1.91801
1.83474
0.825462
0.786597
0.827915
0.788973
1.65942
1.56683
1.66453
1.57158
0.718205
0.682262
0.720336
0.684247
1.52574
1.52572
1.53032
1.5303
0.666535
0.666524
0.66845
0.668439
1.56677
1.65935
1.57152
1.66444
0.68223
0.718154
0.684215
0.720282
1.82911
1.91222
1.83467
1.91795
0.786538
0.825414
0.788898
0.827839
1.89819
1.81568
1.90545
1.8226
0.819598
0.780849
0.822657
0.783841
1.64721
1.55534
1.65362
1.5614
0.712997
0.677348
0.715741
0.67995
1.5146
1.51458
1.52049
1.52047
0.661761
0.66175
0.664294
0.664284
1.55528
1.64709
1.56134
1.65352
0.677315
0.712939
0.679918
0.715688
1.81548
1.89804
1.82249
1.90537
0.78075
0.819504
0.783765
0.822586
1.88189
1.79989
1.89028
1.80803
0.812506
0.773848
0.816183
0.777466
1.63245
1.54131
1.64012
1.54863
0.706587
0.671241
0.709928
0.674434
1.50093
1.50091
1.50807
1.50805
0.655797
0.655786
0.658919
0.658908
1.54125
1.63232
1.54856
1.63998
0.671209
0.706531
0.674401
0.709868
1.79959
1.88148
1.80771
1.88994
0.773748
0.81239
0.777349
0.816051
1.86283
1.78151
1.87262
1.79092
0.804251
0.765699
0.808489
0.769886
1.61528
1.52486
1.62415
1.53337
0.699038
0.663992
0.702942
0.66775
1.48482
1.4848
1.49317
1.49315
0.648689
0.648678
0.652377
0.652367
1.5248
1.61518
1.53331
1.62403
0.66396
0.698984
0.667719
0.702888
1.78143
1.86272
1.79076
1.87236
0.765615
0.804154
0.769801
0.808404
1.84131
1.76083
1.85227
1.77138
0.794804
0.75637
0.79964
0.761141
1.59575
1.50605
1.60579
1.51574
0.690375
0.655636
0.694833
0.659944
1.46637
1.46635
1.47588
1.47586
0.640475
0.640464
0.644713
0.644702
1.506
1.59568
1.51568
1.60571
0.655604
0.690326
0.659912
0.694782
1.76069
1.84117
1.77127
1.85219
0.756314
0.794736
0.761077
0.799555
1.81736
1.73787
1.82952
1.74951
0.784195
0.745908
0.789606
0.751243
1.5739
1.48494
1.58509
1.49577
0.680607
0.646192
0.685618
0.651042
1.44563
1.44561
1.45628
1.45626
0.63118
0.631169
0.635956
0.635945
1.4849
1.57383
1.49573
1.58503
0.64616
0.680561
0.651011
0.685572
1.7378
1.81734
1.74945
1.82947
0.745871
0.784187
0.751203
0.789581
1.7911
1.71264
1.80446
1.72546
0.772579
0.734395
0.778486
0.74025
1.54979
1.4616
1.5621
1.47354
0.669768
0.635685
0.675308
0.641064
1.42264
1.42262
1.43441
1.43439
0.620823
0.620812
0.626127
0.626116
1.46154
1.5497
1.47349
1.56202
0.635651
0.669711
0.641031
0.675256
1.71254
1.79097
1.72534
1.80435
0.734307
0.772492
0.740186
0.778448
1.76241
1.6852
1.77695
1.69909
0.759797
0.721762
0.766301
0.728174
1.52347
1.43603
1.53689
1.44909
0.657873
0.624125
0.66394
0.63003
1.39744
1.39742
1.41031
1.41029
0.609414
0.609404
0.615244
0.615233
1.43598
1.52339
1.44903
1.5368
0.624093
0.657822
0.629997
0.663886
1.68512
1.76233
1.69902
1.77687
0.721699
0.759719
0.728101
0.766215
1.73124
1.65541
1.74708
1.67053
0.745876
0.708011
0.75296
0.715005
1.49489
1.40823
1.50946
1.42241
0.644913
0.61151
0.65152
0.617945
1.37
1.36999
1.384
1.38398
0.596953
0.596942
0.60331
0.6033
1.40817
1.49481
1.42235
1.50938
0.611478
0.644863
0.617913
0.65147
1.65531
1.73113
1.67044
1.74699
0.707944
0.745796
0.714939
0.752884
1.69741
1.62314
1.71458
1.6395
0.730753
0.693067
0.73844
0.700656
1.46397
1.37816
1.47971
1.39347
0.630857
0.597828
0.638012
0.604796
1.34034
1.34032
1.35545
1.35543
0.583436
0.583425
0.590321
0.59031
1.3781
1.46389
1.39342
1.47963
0.597797
0.630807
0.604765
0.637963
1.62304
1.69729
1.6394
1.71446
0.693001
0.730674
0.700589
0.738362
1.66109
1.58853
1.67947
1.60604
0.714488
0.676998
0.722735
0.685141
1.43078
1.34585
1.44764
1.36228
0.615728
0.583092
0.623416
0.590585
1.30845
1.30843
1.32467
1.32465
0.568871
0.56886
0.576279
0.576268
1.3458
1.4307
1.36222
1.44756
0.583061
0.615679
0.590554
0.623366
1.58843
1.66098
1.60594
1.67936
0.676932
0.714409
0.685075
0.722658
1.62246
1.55172
1.64199
1.57032
0.697145
0.65985
0.705926
0.668529
1.3954
1.31135
1.41335
1.32887
0.599555
0.567318
0.607763
0.575329
1.27437
1.27435
1.29168
1.29166
0.553267
0.553257
0.561194
0.561183
1.3113
1.39531
1.32882
1.41327
0.567287
0.599506
0.575298
0.607713
1.55162
1.62235
1.57022
1.64187
0.659784
0.697067
0.668463
0.705849
1.58162
1.51277
1.60224
1.53244
0.678768
0.641679
0.688063
0.650864
1.35783
1.27466
1.37687
1.29328
0.582355
0.550508
0.591076
0.559037
1.23809
1.23807
1.2565
1.25648
0.536623
0.536613
0.545071
0.545061
1.27461
1.35775
1.29323
1.37679
0.550477
0.582306
0.559006
0.591026
1.51267
1.58151
1.53234
1.60213
0.641613
0.67869
0.650798
0.687986
1.53863
1.47167
1.56033
1.49241
0.659363
0.622478
0.669174
0.632184
1.31807
1.23573
1.33822
1.25548
0.564115
0.532644
0.57336
0.541705
1.19954
1.19952
1.2191
1.21908
0.518917
0.518906
0.5279
0.52789
1.23568
1.31799
1.25542
1.33814
0.532613
0.564066
0.541674
0.57331
1.47157
1.53852
1.49232
1.56022
0.622413
0.659285
0.632118
0.669098
1.49343
1.42834
1.51625
1.45022
0.6389
0.602213
0.649247
0.612457
1.276
1.19443
1.29732
1.21538
0.544795
0.513681
0.554587
0.5233
1.1586
1.15859
1.17938
1.17936
0.5001
0.500089
0.509647
0.509636
1.19438
1.27592
1.21533
1.29724
0.51365
0.544745
0.523268
0.554537
1.42824
1.49332
1.45012
1.51613
0.602148
0.638822
0.612391
0.649171
1.44586
1.3826
1.46989
1.40572
0.617294
0.580824
0.628229
0.591641
1.23141
1.15055
1.25403
1.17283
0.524312
0.49353
0.534699
0.503757
1.11505
1.11503
1.13717
1.13715
0.480082
0.480071
0.490245
0.490234
1.1505
1.23133
1.17278
1.25395
0.493498
0.524263
0.503726
0.53465
1.3825
1.44575
1.40562
1.46978
0.580759
0.617217
0.591576
0.628153
1.39549
1.334
1.421
1.35862
0.594351
0.558175
0.605989
0.569645
1.18386
1.10365
1.20803
1.12751
0.502507
0.472028
0.513583
0.482957
1.06847
1.06845
1.09216
1.09215
0.458705
0.458695
0.469572
0.469562
1.1036
1.18378
1.12746
1.20795
0.471997
0.502458
0.482926
0.513534
1.3339
1.39538
1.35853
1.42089
0.55811
0.594276
0.569581
0.605914
1.34142
1.28157
1.36894
1.30829
0.569693
0.533994
0.582251
0.54628
1.13243
1.05298
1.15871
1.07885
0.479045
0.448881
0.49101
0.460682
1.01822
1.0182
1.04384
1.04382
0.435717
0.435707
0.447428
0.447417
1.05292
1.13235
1.07879
1.15863
0.448851
0.478997
0.460651
0.490961
1.28147
1.34131
1.3082
1.36883
0.533931
0.569619
0.546216
0.582177
1.2822
1.22233
1.31247
1.25311
0.542786
0.507451
0.556526
0.521114
1.07479
0.997191
1.10463
1.02582
0.45308
0.423573
0.466462
0.436534
0.963553
0.963535
0.991463
0.991445
0.410815
0.410805
0.423514
0.423504
0.99714
1.07471
1.02577
1.10455
0.423544
0.453034
0.436504
0.466415
1.22224
1.28209
1.25301
1.31236
0.50739
0.542715
0.521052
0.556455
1.21874
1.14103
1.25074
1.18685
0.512251
0.472153
0.528361
0.491972
1.00505
0.935105
1.04193
0.96689
0.422313
0.395609
0.438504
0.409908
0.904779
0.904763
0.934538
0.934521
0.384101
0.384091
0.397627
0.397618
0.935056
1.00498
0.966841
1.04186
0.395581
0.422269
0.409879
0.438459
1.14094
1.21864
1.18676
1.25064
0.472095
0.512181
0.491912
0.528292
1.20145
1.07957
0.937814
0.85052
0.996311
0.886876
0.737762
0.666502
0.84101
0.696854
0.624608
0.494061
0.657833
0.524212
0.455412
0.33839
0.630499
0.630402
0.436664
0.436567
0.464401
0.464322
0.288925
0.288849
0.696571
0.840575
0.493773
0.624153
0.523979
0.657469
0.338161
0.455043
1.07904
1.20087
0.849956
0.937176
0.88643
0.995814
0.666038
0.737234
1.58001
1.44749
1.40864
1.27794
1.3494
1.22643
1.19123
1.0712
1.20688
1.05821
1.03502
0.88625
0.991295
0.850994
0.83547
0.695983
0.98806
0.987972
0.816685
0.816592
0.786392
0.786316
0.632389
0.63231
1.05796
1.2065
0.885981
1.03461
0.850774
0.99096
0.695755
0.835119
1.44704
1.57952
1.27746
1.40811
1.22603
1.34895
1.07078
1.19076
1.85586
1.72561
1.72707
1.59525
1.60165
1.47924
1.48405
1.36091
1.49462
1.35063
1.35919
1.21252
1.25065
1.11337
1.12872
0.989594
1.28206
1.28199
1.14294
1.14286
1.04956
1.0495
0.925154
0.925082
1.35041
1.4943
1.21229
1.35883
1.11318
1.25035
0.989385
1.12841
1.72523
1.85546
1.59484
1.72662
1.47888
1.60126
1.36053
1.48364
2.06912
1.94287
1.96889
1.8406
1.79607
1.67619
1.70472
1.58351
1.72213
1.58388
1.61492
1.47384
1.45522
1.32216
1.35885
1.22368
1.51775
1.51768
1.40647
1.4064
1.26006
1.26
1.1607
1.16064
1.5837
1.72186
1.47364
1.61463
1.32198
1.45496
1.2235
1.35857
1.94255
2.06878
1.84026
1.96852
1.67588
1.79574
1.58318
1.70436
2.23671
2.11439
2.15771
2.03349
1.94875
1.8316
1.87679
1.75831
1.90271
1.76975
1.81754
1.68204
1.61756
1.48848
1.54099
1.40999
1.70597
1.70592
1.61712
1.61706
1.42813
1.42807
1.34878
1.34873
1.76959
1.90248
1.68187
1.81729
1.48833
1.61733
1.40983
1.54075
2.11413
2.23643
2.0332
2.1574
1.83133
1.94846
1.75802
1.87648
2.3693
2.25042
2.3067
2.18618
2.06952
1.95486
2.0125
1.89665
2.0464
1.918
1.97859
1.84802
1.74679
1.62122
1.68579
1.55855
1.85632
1.85627
1.78534
1.78529
1.56245
1.5624
1.49901
1.49896
1.91787
2.04621
1.84788
1.97838
1.62109
1.74659
1.55841
1.68558
2.2502
2.36907
2.18594
2.30644
1.95463
2.06927
1.8964
2.01223
2.47448
2.35849
2.4248
2.30744
2.16538
2.05285
2.12009
2.00655
2.16089
2.03637
2.10685
1.98049
1.84986
1.72731
1.8012
1.67722
1.97649
1.97645
1.91975
1.91971
1.66993
1.66989
1.61917
1.61912
2.03626
2.16073
1.98037
2.10668
1.7272
1.84969
1.67709
1.80101
2.35831
2.47429
2.30724
2.42458
2.05265
2.16516
2.00633
2.11985
2.55779
2.44422
2.51843
2.40373
2.24141
2.13069
2.20548
2.0939
2.25201
2.13077
2.20902
2.08623
1.93201
1.81206
1.89324
1.77205
2.07243
2.0724
2.02715
2.02712
1.75587
1.75584
1.71529
1.71526
2.13068
2.25187
2.08613
2.20887
1.81196
1.93186
1.77195
1.89308
2.44406
2.55762
2.40356
2.51825
2.13051
2.24122
2.09372
2.20527
2.6234
2.51185
2.59243
2.47994
2.30142
2.19222
2.27308
2.16316
2.32421
2.20578
2.29019
2.17044
1.99725
1.87953
1.96649
1.84772
2.14876
2.14873
2.11279
2.11276
1.82439
1.82436
1.79208
1.79204
2.2057
2.32409
2.17035
2.29006
1.87944
1.99711
1.84762
1.96635
2.51172
2.62325
2.4798
2.59228
2.19206
2.30125
2.163
2.2729
2.6745
2.56466
2.65045
2.53982
2.34833
2.24041
2.32623
2.21771
2.38094
2.26493
2.35429
2.23714
2.04865
1.93288
2.02448
1.90779
2.20905
2.20903
2.18072
2.18069
1.87865
1.87862
1.85312
1.85309
2.26485
2.38083
2.23706
2.35418
1.9328
2.04853
1.90771
2.02435
2.56454
2.67437
2.53969
2.65032
2.24027
2.34817
2.21756
2.32607
2.71357
2.60518
2.69527
2.5862
2.38439
2.27756
2.36747
2.26013
2.42485
2.31095
2.40432
2.28942
2.08861
1.97455
2.0699
1.95503
2.25607
2.25605
2.23407
2.23404
1.92112
1.9211
1.90122
1.90119
2.31088
2.42475
2.28935
2.40422
1.97447
2.08849
1.95495
2.06978
2.60508
2.71346
2.58609
2.69515
2.27743
2.38425
2.26
2.36732
2.74251
2.63537
2.72907
2.62135
2.41132
2.30543
2.39878
2.29245
2.45802
2.34598
2.44264
2.32971
2.11897
2.00644
2.10486
1.9916
2.29199
2.29197
2.2753
2.27527
1.95373
1.95371
1.93855
1.93853
2.34592
2.45793
2.32965
2.44254
2.00637
2.11887
1.99153
2.10475
2.63527
2.74241
2.62125
2.72897
2.30531
2.41119
2.29233
2.39864
2.76288
2.65682
2.75354
2.64698
2.43054
2.32547
2.42169
2.31624
2.48211
2.37172
2.47108
2.35991
2.14123
2.03007
2.131
2.01919
2.31852
2.3185
2.30633
2.30631
1.97801
1.97799
1.96682
1.9668
2.37166
2.48203
2.35985
2.471
2.03
2.14113
2.01912
2.1309
2.65673
2.76278
2.64689
2.75344
2.32535
2.43041
2.31612
2.42156
2.77582
2.67072
2.77008
2.66453
2.44307
2.33873
2.43746
2.33277
2.4984
2.3895
2.49113
2.38152
2.15652
2.04661
2.14966
2.03915
2.33702
2.337
2.3287
2.32868
1.99515
1.99513
1.9874
1.98738
2.38944
2.49832
2.38147
2.49105
2.04655
2.15643
2.03909
2.14956
2.67064
2.77573
2.66445
2.76999
2.33862
2.44295
2.33266
2.43734
2.78225
2.67803
2.77966
2.67503
2.44974
2.34606
2.44697
2.34298
2.50789
2.40036
2.50391
2.39573
2.16574
2.057
2.16181
2.05251
2.34854
2.34852
2.34359
2.34357
2.00609
2.00607
2.00134
2.00132
2.40031
2.50782
2.39568
2.50383
2.05694
2.16565
2.05245
2.16172
2.67795
2.78217
2.67495
2.77957
2.34595
2.44961
2.34287
2.44686
2.78286
2.67946
2.78312
2.67934
2.45107
2.34804
2.45095
2.3476
2.51137
2.40514
2.51032
2.40346
2.16956
2.06194
2.16826
2.0601
2.35394
2.35392
2.35196
2.35194
2.01157
2.01155
2.00947
2.00945
2.40509
2.5113
2.40341
2.51024
2.06189
2.16947
2.06004
2.16817
2.67939
2.78278
2.67926
2.78304
2.34794
2.45096
2.34748
2.45082
2.7782
2.67563
2.78107
2.6781
2.44762
2.3452
2.44983
2.34713
2.5095
2.40451
2.51105
2.40545
2.16854
2.06205
2.16959
2.06255
2.3539
2.35389
2.35455
2.35453
2.0122
2.01219
2.01245
2.01243
2.40446
2.50944
2.4054
2.51098
2.06199
2.16846
2.0625
2.16951
2.67556
2.77813
2.67803
2.781
2.34508
2.44747
2.34704
2.44976
2.76858
2.66684
2.77388
2.67173
2.43946
2.33783
2.44391
2.34187
2.5027
2.39895
2.50666
2.40231
2.16314
2.05779
2.16632
2.06044
2.34895
2.34893
2.35201
2.352
2.00849
2.00847
2.01088
2.01086
2.39891
2.50264
2.40226
2.5066
2.05774
2.16308
2.06039
2.16625
2.66678
2.76854
2.67167
2.77382
2.33787
2.43951
2.3418
2.44378
2.75458
2.65375
2.7619
2.66065
2.42795
2.32706
2.43399
2.33278
2.49152
2.38898
2.4976
2.39448
2.15393
2.04962
2.15897
2.05416
2.33956
2.33954
2.34477
2.34476
2.00082
2.0008
2.00512
2.0051
2.38894
2.49146
2.39444
2.49754
2.04957
2.15384
2.05411
2.15889
2.65369
2.7545
2.66059
2.76184
2.32686
2.42775
2.33271
2.434
2.73671
2.63682
2.74602
2.64563
2.41288
2.31271
2.42075
2.32018
2.47644
2.37503
2.48443
2.38248
2.14123
2.03791
2.14797
2.04418
2.32616
2.32614
2.33333
2.33332
1.98959
1.98957
1.99563
1.99561
2.37499
2.47638
2.38243
2.48437
2.03785
2.14115
2.04413
2.14789
2.63675
2.73667
2.64556
2.74595
2.31272
2.4129
2.32009
2.42057
2.71553
2.61654
2.7264
2.627
2.39472
2.29535
2.40403
2.30431
2.45774
2.3574
2.46751
2.36666
2.12528
2.02291
2.13363
2.0308
2.30905
2.30903
2.31805
2.31803
1.97504
1.97502
1.98271
1.98269
2.35736
2.45768
2.36662
2.46745
2.02285
2.12518
2.03074
2.13354
2.61647
2.71544
2.62694
2.72633
2.29513
2.39448
2.30421
2.40402
2.69061
2.59264
2.70343
2.60491
2.37329
2.27474
2.38434
2.28534
2.43558
2.33629
2.44706
2.34727
2.10622
2.00479
2.11611
2.01422
2.28845
2.28843
2.29917
2.29916
1.95738
1.95736
1.96659
1.96657
2.33625
2.43552
2.34722
2.447
2.00473
2.10613
2.01416
2.11602
2.59258
2.69056
2.60484
2.70336
2.27469
2.37321
2.28518
2.38407
2.66255
2.56565
2.67684
2.57945
2.34883
2.2513
2.36128
2.26327
2.41012
2.31186
2.42323
2.32448
2.0842
1.98369
2.09555
1.9946
2.26452
2.2645
2.27689
2.27687
1.93673
1.93671
1.94742
1.9474
2.31182
2.41006
2.32444
2.42317
1.98364
2.08411
1.99454
2.09546
2.56559
2.66247
2.57939
2.67677
2.25109
2.34863
2.26316
2.36124
2.63097
2.53528
2.64712
2.55078
2.32132
2.22483
2.3354
2.23835
2.38143
2.28421
2.39616
2.29843
2.05927
1.95971
2.07208
1.97205
2.23737
2.23736
2.25134
2.25133
1.9132
1.91318
1.92532
1.9253
2.28417
2.38138
2.29839
2.3961
1.95966
2.05921
1.972
2.072
2.53523
2.63093
2.55072
2.64706
2.22483
2.3213
2.23824
2.3352
2.59624
2.50189
2.61385
2.51887
2.29079
2.19559
2.30626
2.21043
2.34961
2.25343
2.36589
2.2692
2.03151
1.9329
2.04572
1.94665
2.2071
2.20708
2.22262
2.22261
1.88686
1.88684
1.90038
1.90036
2.25339
2.34956
2.26916
2.36584
1.93285
2.03143
1.9466
2.04565
2.50184
2.59617
2.51882
2.6138
2.19541
2.29063
2.21037
2.30627
2.55824
2.46536
2.57756
2.48391
2.25744
2.16354
2.27443
2.17984
2.31473
2.21957
2.33253
2.23688
2.00101
1.90335
2.01658
1.91846
2.17374
2.17373
2.1908
2.19078
1.85777
1.85775
1.87265
1.87264
2.21953
2.31467
2.23683
2.33248
1.9033
2.00093
1.91841
2.01651
2.46531
2.5582
2.48385
2.57749
2.16351
2.25739
2.17972
2.27422
2.51724
2.42593
2.53798
2.44592
2.22119
2.12887
2.23948
2.14639
2.27681
2.18267
2.29614
2.2015
1.96778
1.87107
1.98471
1.88755
2.13734
2.13732
2.15592
2.1559
1.82595
1.82593
1.8422
1.84218
2.18262
2.27675
2.20146
2.29608
1.87102
1.9677
1.88749
1.98463
2.42587
2.51717
2.44586
2.53793
2.12873
2.22106
2.14633
2.23947
2.4729
2.38325
2.4954
2.4049
2.18219
2.09144
2.20197
2.11043
2.23577
2.14268
2.25667
2.16305
1.9318
1.83604
1.95013
1.8539
2.09786
2.09785
2.11798
2.11797
1.79139
1.79137
1.80901
1.80899
2.14264
2.23572
2.16301
2.25661
1.83599
1.93173
1.85385
1.95005
2.3832
2.47285
2.40484
2.49534
2.09136
2.18208
2.11031
2.20183
2.42513
2.33733
2.44933
2.3606
2.13991
2.05095
2.16135
2.07148
2.19158
2.09959
2.21405
2.12152
1.89296
1.79823
1.91272
1.81748
2.05531
2.0553
2.07697
2.07696
1.75407
1.75406
1.77307
1.77305
2.09955
2.19153
2.12148
2.214
1.79818
1.89288
1.81743
1.91264
2.33728
2.42508
2.36055
2.44928
2.05087
2.13982
2.07139
2.16126
2.3741
2.28829
2.39991
2.3131
2.09459
2.0076
2.11751
2.02953
2.1443
2.05342
2.16831
2.07689
1.85131
1.75766
1.87246
1.77828
2.00969
2.00968
2.03288
2.03287
1.71402
1.714
1.73438
1.73437
2.05339
2.14425
2.07685
2.16826
1.75761
1.85124
1.77823
1.87239
2.28824
2.37405
2.31305
2.39985
2.00751
2.0945
2.02944
2.11742
2.32001
2.23624
2.34733
2.26255
2.04646
1.96154
2.07077
1.98481
2.09397
2.00419
2.1195
2.02919
1.80695
1.71436
1.82945
1.73634
1.961
1.96098
1.98573
1.98572
1.67123
1.67121
1.69296
1.69294
2.00415
2.09392
2.02915
2.11945
1.71431
1.80687
1.73629
1.82938
2.23619
2.31995
2.2625
2.34728
1.96146
2.04637
1.98473
2.07068
2.26292
2.18123
2.29174
2.20902
1.99565
1.91283
2.02129
1.93743
2.04059
1.95186
2.06765
1.97842
1.75988
1.66831
1.78374
1.69168
1.90918
1.90916
1.93548
1.93547
1.62568
1.62566
1.6488
1.64878
1.95182
2.04054
1.97838
2.0676
1.66826
1.7598
1.69162
1.78366
2.18118
2.26287
2.20897
2.29169
1.91275
1.99556
1.93734
2.0212
2.20284
2.12321
2.23316
2.15252
1.94218
1.86146
1.96916
1.88739
1.98407
1.89631
2.01272
1.9245
1.71003
1.61944
1.73529
1.64423
1.8541
1.85409
1.88206
1.88204
1.57727
1.57725
1.60184
1.60182
1.89627
1.98402
1.92446
2.01267
1.61938
1.70996
1.64418
1.73522
2.12316
2.20279
2.15247
2.23311
1.86137
1.94209
1.88731
1.96907
2.13968
2.06204
2.17156
2.09295
1.88599
1.8073
1.91435
1.83465
1.92422
1.83732
1.95457
1.86726
1.65726
1.56755
1.68401
1.59388
1.79554
1.79553
1.82527
1.82526
1.52582
1.5258
1.55194
1.55192
1.83728
1.92417
1.86722
1.95451
1.5675
1.65719
1.59383
1.68394
2.06198
2.13963
2.0929
2.17151
1.80722
1.88589
1.83457
1.91425
2.07318
1.99739
2.10678
2.03009
1.82684
1.75009
1.85671
1.77902
1.86068
1.77451
1.89293
1.80642
1.60126
1.51232
1.62968
1.54038
1.7331
1.73309
1.76483
1.76482
1.47097
1.47095
1.49884
1.49882
1.77447
1.86062
1.80638
1.89287
1.51227
1.60118
1.54032
1.6296
1.99733
2.07312
2.03004
2.10673
1.75001
1.82674
1.77894
1.85662
2.00276
1.92865
2.03842
1.9635
1.7642
1.68926
1.79592
1.7201
1.79278
1.70724
1.82731
1.74148
1.54141
1.45318
1.57185
1.48328
1.66617
1.66616
1.70024
1.70023
1.4122
1.41218
1.44212
1.4421
1.7072
1.79272
1.74144
1.82726
1.45313
1.54133
1.48323
1.57178
1.9286
2.00271
1.96345
2.03836
1.68917
1.76411
1.72001
1.79582
1.92736
1.85455
1.96568
1.89231
1.697
1.62353
1.73118
1.65705
1.71929
1.63449
1.75683
1.67163
1.47653
1.38915
1.5097
1.42185
1.59391
1.5939
1.63076
1.63075
1.34869
1.34867
1.38109
1.38107
1.63445
1.71923
1.67158
1.75677
1.3891
1.47646
1.4218
1.50963
1.8545
1.92731
1.89226
1.96563
1.62345
1.69691
1.65697
1.73109
1.84553
1.77177
1.88721
1.81455
1.62339
1.54937
1.66101
1.58785
1.63759
1.55483
1.67971
1.59561
1.4039
1.31873
1.44145
1.35484
1.51556
1.51555
1.55551
1.55549
1.27963
1.27962
1.31488
1.31486
1.55479
1.63754
1.59557
1.67965
1.31868
1.40383
1.35478
1.44138
1.77172
1.84549
1.8145
1.88716
1.54929
1.6233
1.58777
1.66092
1.7589
1.66549
1.80251
1.72384
1.54348
1.45063
1.58405
1.50553
1.54245
1.46772
1.59207
1.51207
1.3177
1.24106
1.36293
1.28069
1.43206
1.43205
1.47424
1.47422
1.20571
1.20569
1.24309
1.24307
1.46768
1.5424
1.51203
1.59202
1.24101
1.31763
1.28065
1.36286
1.66544
1.75886
1.72379
1.80247
1.45056
1.5434
1.50546
1.58397
1.52131
1.3915
1.26149
1.16121
1.37266
1.24523
1.10977
1.01415
1.15231
1.00267
0.927126
0.785317
1.00471
0.856265
0.78197
0.644009
0.931725
0.931602
0.720263
0.720133
0.786714
0.786602
0.58182
0.581705
1.00232
1.15178
0.784938
0.926543
0.855942
1.00422
0.643671
0.781444
1.39087
1.52063
1.16051
1.2607
1.24465
1.37202
1.01351
1.10905
1.918
1.78269
1.7356
1.60015
1.76371
1.62846
1.58516
1.45064
1.54774
1.39813
1.36032
1.20882
1.38941
1.23886
1.20783
1.05623
1.32587
1.32576
1.13617
1.13606
1.16678
1.16669
0.984235
0.984131
1.39784
1.54731
1.2085
1.35983
1.23858
1.389
1.05593
1.20738
1.7822
1.91747
1.59959
1.735
1.62798
1.76319
1.45012
1.58459
2.21724
2.0868
2.0769
1.94373
2.05392
1.9224
1.91813
1.78438
1.8655
1.72325
1.71547
1.56931
1.69531
1.55092
1.55112
1.40337
1.65399
1.65391
1.49837
1.49828
1.4812
1.48112
1.33226
1.33217
1.72302
1.86516
1.56905
1.71509
1.5507
1.69497
1.40312
1.55075
2.08643
2.21684
1.94329
2.07644
1.92201
2.05351
1.78396
1.91767
2.45122
2.32668
2.34104
2.21359
2.2794
2.153
2.17334
2.04438
2.11874
1.98436
1.99926
1.86104
1.93802
1.8006
1.82359
1.68276
1.91864
1.91857
1.79357
1.7935
1.73393
1.73386
1.61456
1.61449
1.98418
2.11848
1.86084
1.99896
1.80041
1.93775
1.68255
1.82329
2.32639
2.45091
2.21326
2.34069
2.1527
2.27908
2.04404
2.17297
2.63603
2.5169
2.54884
2.42712
2.45698
2.33538
2.37325
2.24934
2.32044
2.19303
2.22526
2.09453
2.13091
1.99977
2.03992
1.90578
2.13055
2.1305
2.03049
2.03043
1.93596
1.9359
1.84058
1.84052
2.19289
2.32024
2.09437
2.22503
1.99962
2.13069
1.90561
2.03968
2.51668
2.63581
2.42687
2.54858
2.33513
2.45672
2.24907
2.37296
2.78261
2.66806
2.71338
2.59667
2.59759
2.48011
2.53119
2.41176
2.48115
2.35963
2.4053
2.28099
2.28445
2.15865
2.21199
2.08366
2.29993
2.29989
2.21996
2.21992
2.09733
2.09729
2.02115
2.0211
2.35952
2.48099
2.28087
2.40512
2.15853
2.28427
2.08352
2.21179
2.6679
2.78244
2.59647
2.71318
2.47992
2.59739
2.41155
2.53096
2.89895
2.78822
2.844
2.73147
2.70913
2.5951
2.65645
2.54079
2.60918
2.4926
2.54877
2.42985
2.40674
2.28545
2.34903
2.22561
2.43525
2.43521
2.37138
2.37135
2.22625
2.22621
2.1654
2.16536
2.49251
2.60906
2.42975
2.54863
2.28534
2.4066
2.22549
2.34887
2.78809
2.89882
2.73133
2.84385
2.59494
2.70897
2.54062
2.65626
2.99102
2.88344
2.94755
2.8385
2.79741
2.68625
2.75572
2.64321
2.71095
2.59849
2.66297
2.54856
2.50398
2.38647
2.45812
2.33882
2.54311
2.54308
2.49224
2.49221
2.32907
2.32904
2.28056
2.28053
2.59841
2.71085
2.54848
2.66286
2.38638
2.50386
2.33873
2.45799
2.88335
2.99092
2.83838
2.94744
2.68612
2.79728
2.64307
2.75557
3.06336
2.95841
3.02926
2.92308
2.86684
2.75806
2.83409
2.7242
2.79139
2.6824
2.75354
2.6429
2.58092
2.46662
2.54469
2.42887
2.6287
2.62868
2.5884
2.58838
2.41074
2.41072
2.37227
2.37225
2.68234
2.79131
2.64284
2.75345
2.46654
2.58082
2.4288
2.54458
2.95833
3.06328
2.92299
3.02917
2.75795
2.86673
2.72408
2.83397
3.11946
3.0167
3.09311
2.98932
2.92078
2.814
2.89542
2.78771
2.85434
2.7483
2.82482
2.71738
2.64123
2.52967
2.61292
2.50006
2.69602
2.69601
2.66442
2.6644
2.47511
2.47509
2.44488
2.44486
2.74825
2.85427
2.71733
2.82474
2.5296
2.64114
2.5
2.61283
3.01664
3.1194
2.98926
3.09305
2.81391
2.92068
2.78761
2.89532
3.16205
3.06115
3.14216
3.04039
2.96185
2.85677
2.94264
2.83677
2.90277
2.79927
2.88017
2.77547
2.68776
2.57856
2.66603
2.55571
2.74822
2.74821
2.72384
2.72382
2.52515
2.52513
2.50175
2.50173
2.79922
2.90271
2.77543
2.88012
2.57851
2.68768
2.55565
2.66595
3.06111
3.16201
3.04034
3.14211
2.85669
2.96177
2.83668
2.94256
3.19325
3.09393
3.17883
3.07877
2.99208
2.88845
2.97808
2.87377
2.93901
2.83772
2.92226
2.81992
2.72272
2.61561
2.70654
2.59843
2.78776
2.78774
2.76944
2.76942
2.56319
2.56317
2.54554
2.54552
2.83769
2.93897
2.81988
2.92221
2.61556
2.72266
2.59838
2.70646
3.0939
3.19322
3.07873
3.1788
2.88838
2.99201
2.87369
2.97801
3.21477
3.11683