/*--------------------------------*- C++ -*----------------------------------*\
  =========                 |
  \\      /  F ield         | OpenFOAM: The Open Source CFD Toolbox
   \\    /   O peration     | Website:  https://openfoam.org
    \\  /    A nd           | Version:  9
     \\/     M anipulation  |
\*---------------------------------------------------------------------------*/
FoamFile
{
    format      ascii;
    class       volScalarField;
    location    "3";
    object      nut;
}
// * * * * * * * * * * * * * * * * * * * * * * * * * * * * * * * * * * * * * //

dimensions      [0 2 -1 0 0 0 0];

internalField   nonuniform List<scalar> 
36360
(
0.0109308
0.0104717
0.00813185
0.0079157
0.00141116
0.00136483
0.000896838
0.00102957
0.00925364
0.00883381
0.0065252
0.0059601
0.00111617
0.000933346
0.000724371
0.00051124
0.0088831
0.0088823
0.00601692
0.00601611
0.000846863
0.000846745
0.000438106
0.000438001
0.00883106
0.00924897
0.00595699
0.00651999
0.000933022
0.00111572
0.000510876
0.000723828
0.0104658
0.0109242
0.00790942
0.00812487
0.00136435
0.00141062
0.00102902
0.000896194
0.0142628
0.0140117
0.0127795
0.0124197
0.00183579
0.00174203
0.00166825
0.00158202
0.0130805
0.0127341
0.0113553
0.0109843
0.00154044
0.0014096
0.00136093
0.00120991
0.0126918
0.0126909
0.010982
0.0109811
0.00134847
0.00134839
0.00113883
0.00113874
0.0127315
0.0130762
0.0109815
0.0113508
0.00140937
0.0015401
0.00120964
0.00136055
0.0140063
0.0142568
0.0124141
0.0127735
0.00174164
0.00183537
0.00158159
0.00166779
0.0166495
0.0165261
0.015539
0.0153622
0.00206556
0.00197357
0.00196254
0.00186863
0.0157577
0.0154459
0.0145254
0.0141976
0.00179713
0.00168877
0.00168151
0.00156389
0.0153633
0.0153624
0.0141298
0.0141289
0.00163848
0.00163841
0.00150914
0.00150907
0.0154434
0.0157537
0.014195
0.0145212
0.00168858
0.00179684
0.00156368
0.0016812
0.0165211
0.0166438
0.0153569
0.0155333
0.00197323
0.00206519
0.00186827
0.00196215
0.0184572
0.0184142
0.017614
0.017533
0.00222476
0.00213779
0.00215154
0.002062
0.0177366
0.0174478
0.0168164
0.0165173
0.00197631
0.00188013
0.0018939
0.00179242
0.017353
0.0173522
0.0164264
0.0164255
0.00183577
0.00183572
0.00174546
0.00174539
0.0174455
0.017733
0.0165149
0.0168126
0.00187996
0.00197607
0.00179224
0.00189363
0.0184095
0.0184519
0.0175281
0.0176087
0.00213749
0.00222444
0.00206168
0.0021512
0.0198437
0.019863
0.0191947
0.0191849
0.00234204
0.0022598
0.00228755
0.00220304
0.0192414
0.0189684
0.0185379
0.0182574
0.00210837
0.00201991
0.00204705
0.00195512
0.018872
0.0188712
0.018161
0.0181603
0.00197938
0.00197933
0.00191286
0.00191281
0.0189664
0.0192381
0.0182553
0.0185344
0.00201977
0.00210816
0.00195496
0.00204682
0.0198588
0.0198388
0.0191804
0.0191897
0.00225955
0.00234176
0.00220276
0.00228726
0.020919
0.0209852
0.020414
0.0204584
0.00243085
0.00235253
0.00238935
0.00230917
0.0204047
0.0201442
0.0198587
0.0195922
0.00220837
0.00212531
0.00216168
0.00207614
0.0200494
0.0200488
0.0194963
0.0194956
0.00208745
0.00208741
0.00203705
0.00203701
0.0201423
0.0204018
0.0195902
0.0198556
0.00212519
0.00220818
0.00207601
0.00216148
0.0209813
0.0209146
0.0204544
0.0204096
0.0023523
0.0024306
0.00230893
0.00238909
0.0217618
0.0218638
0.021365
0.0214501
0.00249926
0.00242407
0.00246717
0.0023905
0.0213153
0.0210647
0.0208866
0.0206313
0.00228539
0.00220633
0.0022493
0.00216839
0.0209724
0.0209718
0.0205377
0.0205371
0.00217044
0.0021704
0.00213158
0.00213154
0.021063
0.0213126
0.0206296
0.0208838
0.00220623
0.00228523
0.00216827
0.00224912
0.0218603
0.0217577
0.0214464
0.0213609
0.00242387
0.00249904
0.00239029
0.00246694
0.0224267
0.0225567
0.0221131
0.0222298
0.00255245
0.00247974
0.00252744
0.00245356
0.0220335
0.0217911
0.0216948
0.0214485
0.00234532
0.00226933
0.00231717
0.00223975
0.0217012
0.0217007
0.0213573
0.0213568
0.00223494
0.0022349
0.00220466
0.00220463
0.0217896
0.0220311
0.0214469
0.0216922
0.00226923
0.00234517
0.00223965
0.00231702
0.0225535
0.0224229
0.0222265
0.0221093
0.00247956
0.00255225
0.00245337
0.00252724
0.022953
0.023105
0.0227046
0.0228461
0.00259395
0.00252322
0.00257443
0.00250276
0.0226021
0.0223667
0.0223337
0.0220949
0.00239216
0.00231858
0.00237015
0.00229544
0.0222785
0.022278
0.0220059
0.0220054
0.00228539
0.00228536
0.00226168
0.00226165
0.0223653
0.0225998
0.0220935
0.0223314
0.0023185
0.00239203
0.00229535
0.00237001
0.023102
0.0229494
0.022843
0.022701
0.00252306
0.00259378
0.00250259
0.00257424
0.0233695
0.0235385
0.023173
0.0233339
0.00262623
0.0025571
0.00261107
0.00254117
0.0230521
0.0228226
0.0228397
0.0226074
0.00242875
0.00235711
0.00241157
0.00233902
0.0227362
0.0227357
0.0225201
0.0225196
0.00232486
0.00232483
0.00230632
0.00230629
0.0228213
0.02305
0.0226061
0.0228376
0.00235704
0.00242863
0.00233894
0.00241144
0.0235356
0.0233661
0.023331
0.0231697
0.00255695
0.00262604
0.00254101
0.0026109
0.0236971
0.0238792
0.0235428
0.0237186
0.0026511
0.00258328
0.00263944
0.00257099
0.0234064
0.0231821
0.0232394
0.0230126
0.00245715
0.00238708
0.00244384
0.00237304
0.0230971
0.0230967
0.0229269
0.0229265
0.00235559
0.00235557
0.00234119
0.00234116
0.0231808
0.0234044
0.0230114
0.0232374
0.00238701
0.00245703
0.00237296
0.00244373
0.0238766
0.0236939
0.0237159
0.0235396
0.00258314
0.00265098
0.00257085
0.00263927
0.0239511
0.0241437
0.023832
0.0240195
0.00266992
0.00260317
0.00266114
0.00259388
0.0236821
0.0234622
0.0235526
0.0233306
0.00247886
0.00241009
0.00246874
0.00239936
0.0233788
0.0233784
0.0232464
0.023246
0.00237923
0.0023792
0.0023682
0.00236817
0.023461
0.0236801
0.0233294
0.0235507
0.00241002
0.00247875
0.00239929
0.00246862
0.024141
0.0239483
0.0240169
0.0238291
0.00260303
0.00266984
0.00259374
0.00266105
0.0241437
0.0243444
0.024054
0.0242506
0.00268377
0.00261783
0.00267736
0.00261103
0.0238922
0.0236763
0.0237941
0.0235762
0.00249504
0.00242734
0.00248755
0.00241936
0.0235942
0.0235938
0.0234935
0.0234931
0.00239699
0.00239697
0.00238876
0.00238874
0.0236751
0.0238903
0.0235751
0.0237922
0.00242728
0.00249494
0.00241929
0.00248745
0.0243416
0.0241405
0.024248
0.0240511
0.00261771
0.00268373
0.0026109
0.0026773
0.0242836
0.0244908
0.0242193
0.0244232
0.00269339
0.00262807
0.00268902
0.00262341
0.0240468
0.0238345
0.0239754
0.0237613
0.00250655
0.00243975
0.00250131
0.00243409
0.0237538
0.0237534
0.0236799
0.0236795
0.00240983
0.00240981
0.00240397
0.00240395
0.0238334
0.024045
0.0237602
0.0239735
0.00243969
0.00250645
0.00243403
0.00250121
0.0244882
0.0242802
0.0244205
0.0242161
0.00262796
0.00269328
0.00262329
0.00268895
0.0243785
0.0245909
0.0243357
0.0245456
0.00269932
0.00263448
0.00269674
0.00263167
0.0241538
0.0239446
0.0241053
0.0238946
0.00251404
0.00244801
0.00251074
0.00244435
0.0238653
0.0238649
0.0238146
0.0238142
0.00241845
0.00241842
0.00241462
0.0024146
0.0239436
0.024152
0.0238935
0.0241035
0.00244795
0.00251394
0.00244429
0.00251065
0.0245883
0.0243753
0.0245431
0.0243326
0.00263436
0.00269921
0.00263156
0.00269665
0.0244343
0.0246501
0.024411
0.0246249
0.00270193
0.00263738
0.00270101
0.00263632
0.0242192
0.0240128
0.0241909
0.0239831
0.00251797
0.00245262
0.00251641
0.00245073
0.0239345
0.0239341
0.0239043
0.0239039
0.00242338
0.00242336
0.00242134
0.00242131
0.0240118
0.0242175
0.0239821
0.0241891
0.00245256
0.00251787
0.00245067
0.00251632
0.0246478
0.0244311
0.0246224
0.0244077
0.00263726
0.00270176
0.0026362
0.00270086
0.0244567
0.0246748
0.0244495
0.0246662
0.00270151
0.00263719
0.002702
0.00263756
0.0242478
0.0240433
0.0242371
0.0240322
0.00251869
0.00245396
0.00251869
0.00245367
0.0239659
0.0239656
0.0239543
0.023954
0.00242503
0.00242501
0.00242459
0.00242457
0.0240422
0.024246
0.0240312
0.0242354
0.0024539
0.00251861
0.00245361
0.0025186
0.024672
0.0244533
0.0246638
0.0244467
0.00263707
0.00270137
0.00263744
0.00270181
0.0244435
0.0246643
0.0244535
0.0246729
0.00269854
0.00263448
0.00270024
0.00263611
0.0242421
0.0240405
0.0242487
0.024046
0.00251675
0.00245253
0.00251808
0.00245359
0.0239644
0.0239641
0.0239692
0.0239688
0.00242386
0.00242384
0.00242478
0.00242476
0.0240395
0.0242403
0.0240449
0.0242469
0.00245248
0.00251668
0.00245354
0.002518
0.0246618
0.0244403
0.0246701
0.0244503
0.00263442
0.0026985
0.00263602
0.00270021
0.0244011
0.024624
0.0244254
0.024647
0.00269318
0.00262918
0.0026961
0.00263208
0.0242056
0.0240063
0.0242269
0.0240265
0.00251215
0.00244837
0.00251473
0.00245074
0.0239311
0.0239308
0.0239509
0.0239506
0.00241991
0.00241989
0.00242218
0.00242216
0.0240052
0.024204
0.0240255
0.0242252
0.00244831
0.00251206
0.00245069
0.00251465
0.0246223
0.0243989
0.0246449
0.0244227
0.00262906
0.00269301
0.002632
0.002696
0.0243332
0.0245576
0.0243699
0.0245936
0.00268562
0.00262172
0.00268963
0.00262567
0.0241409
0.0239433
0.0241762
0.0239778
0.00250525
0.00244183
0.00250896
0.00244538
0.0238691
0.0238688
0.0239031
0.0239028
0.00241355
0.00241353
0.00241701
0.00241699
0.0239423
0.0241394
0.0239768
0.0241747
0.00244177
0.00250517
0.00244532
0.00250887
0.0245558
0.0243308
0.0245919
0.0243679
0.00262163
0.00268555
0.00262555
0.00268949
0.0242369
0.0244636
0.0242878
0.0245129
0.00267605
0.00261211
0.00268105
0.00261711
0.0240491
0.0238532
0.0240978
0.023901
0.00249616
0.00243302
0.00250095
0.00243769
0.0237799
0.0237796
0.0238273
0.023827
0.0024049
0.00240488
0.00240949
0.00240947
0.0238522
0.0240474
0.0239
0.0240961
0.00243296
0.00249605
0.00243763
0.00250086
0.0244612
0.0242344
0.0245109
0.0242855
0.00261195
0.00267593
0.00261699
0.00268092
0.0241191
0.0243468
0.0241805
0.0244078
0.00266452
0.0026004
0.00267051
0.00260647
0.0239317
0.023737
0.0239931
0.0237978
0.00248492
0.00242204
0.00249078
0.00242779
0.0236645
0.0236642
0.0237249
0.0237245
0.00239404
0.00239402
0.00239973
0.00239971
0.0237359
0.0239297
0.0237967
0.0239911
0.00242198
0.00248482
0.00242773
0.00249067
0.0243436
0.0241149
0.0244048
0.0241774
0.00260022
0.00266433
0.00260625
0.00267034
0.023974
0.0242038
0.0240495
0.0242777
0.00265097
0.00258667
0.00265792
0.00259373
0.0237894
0.0235955
0.0238631
0.0236688
0.00247162
0.00240893
0.00247851
0.00241574
0.0235237
0.0235234
0.0235967
0.0235964
0.00238105
0.00238103
0.0023878
0.00238778
0.0235945
0.0237876
0.0236678
0.0238612
0.00240888
0.00247152
0.00241568
0.00247841
0.0242019
0.0239713
0.0242751
0.0240457
0.00258654
0.00265072
0.00259359
0.00265775
0.0238059
0.0240381
0.0238924
0.0241234
0.0026353
0.00257089
0.00264331
0.00257897
0.0236227
0.0234292
0.0237086
0.0235149
0.00245627
0.00239374
0.00246418
0.00240159
0.023358
0.0233576
0.0234434
0.0234431
0.00236593
0.00236591
0.00237374
0.00237372
0.0234282
0.0236211
0.0235139
0.0237069
0.00239368
0.00245618
0.00240153
0.00246409
0.0240353
0.0238025
0.0241209
0.0238898
0.00257078
0.00263524
0.00257886
0.00264318
0.0236136
0.0238483
0.0237122
0.0239453
0.0026177
0.00255306
0.00262672
0.00256216
0.0234308
0.023238
0.0235294
0.0233361
0.00243884
0.00237645
0.0024478
0.00238534
0.0231674
0.023167
0.0232652
0.0232649
0.00234871
0.00234869
0.00235758
0.00235756
0.023237
0.0234291
0.0233352
0.0235278
0.00237639
0.00243876
0.00238529
0.00244772
0.0238457
0.0236098
0.0239429
0.0237088
0.00255299
0.00261767
0.00256209
0.00262668
0.023396
0.0236341
0.0235076
0.0237437
0.00259823
0.00253328
0.00260815
0.00254336
0.0232133
0.023022
0.0233245
0.0231325
0.00241935
0.00235706
0.00242933
0.00236701
0.022952
0.0229516
0.0230622
0.0230619
0.00232938
0.00232936
0.0023393
0.00233928
0.023021
0.0232117
0.0231315
0.0233229
0.002357
0.00241925
0.00236695
0.00242924
0.023632
0.0233933
0.0237412
0.0235043
0.00253314
0.00259811
0.00254325
0.00260807
0.0231549
0.0233966
0.0232779
0.0235176
0.00257667
0.00251141
0.00258766
0.00252254
0.022972
0.0227813
0.0230952
0.0229042
0.00239779
0.00233555
0.00240881
0.00234656
0.0227116
0.0227112
0.0228344
0.022834
0.00230789
0.00230787
0.0023189
0.00231888
0.0227802
0.0229703
0.0229031
0.0230935
0.00233549
0.00239769
0.0023465
0.00240871
0.0233943
0.0231519
0.0235155
0.0232754
0.0025113
0.00257654
0.00252241
0.00258753
0.0228898
0.0231351
0.023025
0.0232683
0.00255296
0.00248738
0.00256505
0.00249963
0.0227061
0.0225153
0.0228417
0.0226509
0.00237406
0.00231183
0.00238619
0.00232396
0.0224458
0.0224455
0.0225814
0.022581
0.00228419
0.00228417
0.00229631
0.00229629
0.0225142
0.0227043
0.0226498
0.0228399
0.00231178
0.00237397
0.0023239
0.00238609
0.0231327
0.0228867
0.0232659
0.0230221
0.00248726
0.00255283
0.00249951
0.00256493
0.0225997
0.0228487
0.0227475
0.0229945
0.00252696
0.002461
0.00254021
0.00247443
0.0224146
0.0222235
0.0225631
0.0223721
0.00234806
0.00228584
0.00236133
0.00229912
0.0221543
0.0221539
0.0223027
0.0223024
0.00225819
0.00225817
0.00227147
0.00227145
0.0222224
0.0224128
0.022371
0.0225612
0.00228578
0.00234797
0.00229906
0.00236124
0.0228462
0.0225966
0.022992
0.0227445
0.00246088
0.00252682
0.00247431
0.00254008
0.0222841
0.022537
0.0224447
0.0226954
0.00249869
0.00243231
0.00251306
0.00244689
0.0220973
0.0219057
0.0222587
0.0220674
0.00231975
0.00225751
0.00233418
0.00227196
0.0218365
0.0218361
0.0219981
0.0219978
0.00222984
0.00222982
0.00224431
0.00224429
0.0219046
0.0220955
0.0220663
0.0222569
0.00225745
0.00231966
0.0022719
0.00233409
0.0225345
0.0222809
0.0226929
0.0224417
0.00243219
0.00249855
0.00244677
0.00251293
0.0219426
0.0221995
0.0221162
0.0223709
0.00246818
0.00240132
0.00248367
0.00241705
0.0217536
0.0215611
0.0219283
0.0217363
0.00228909
0.00222677
0.0023047
0.00224244
0.0214918
0.0214914
0.021667
0.0216666
0.00219906
0.00219904
0.00221475
0.00221473
0.02156
0.0217517
0.0217352
0.0219265
0.00222671
0.002289
0.00224238
0.00230461
0.022197
0.0219395
0.0223684
0.0221132
0.0024012
0.00246804
0.00241693
0.00248354
0.0215749
0.0218356
0.0217617
0.0220203
0.00243544
0.00236803
0.00245206
0.00238492
0.0213825
0.0211887
0.021571
0.0213779
0.00225603
0.00219355
0.00227285
0.00221047
0.0211191
0.0211187
0.0213084
0.0213081
0.00216575
0.00216573
0.00218272
0.0021827
0.0211876
0.0213806
0.0213768
0.0215692
0.00219349
0.00225593
0.00221041
0.00227276
0.021833
0.0215717
0.0220178
0.0217586
0.00236791
0.0024353
0.0023848
0.00245192
0.0211793
0.0214432
0.0213803
0.0216425
0.00240038
0.00233234
0.00241817
0.00235045
0.0209824
0.020787
0.0211857
0.0209911
0.00222043
0.00215768
0.00223854
0.00217595
0.0207169
0.0207165
0.0209213
0.0209209
0.00212973
0.00212971
0.00214808
0.00214806
0.0207859
0.0209806
0.02099
0.0211839
0.00215762
0.00222033
0.00217589
0.00223845
0.0214407
0.0211762
0.02164
0.0213773
0.00233222
0.00240024
0.00235033
0.00241803
0.0207537
0.0210199
0.02097
0.021235
0.00236285
0.00229407
0.0023819
0.00231349
0.020551
0.0203537
0.0207703
0.020574
0.00218209
0.00211894
0.0022016
0.00213868
0.020283
0.0202826
0.0205035
0.0205031
0.00209078
0.00209076
0.00211063
0.00211061
0.0203525
0.0205491
0.0205728
0.0207685
0.00211888
0.00218199
0.00213862
0.00220151
0.0210174
0.0207505
0.0212325
0.020967
0.00229395
0.0023627
0.00231337
0.00238176
0.0202943
0.0205623
0.0205281
0.0207951
0.00232256
0.00225297
0.00234303
0.00227385
0.0200851
0.0198856
0.0203222
0.0201237
0.00214069
0.00207698
0.00216178
0.00209838
0.019814
0.0198136
0.0200526
0.0200522
0.00204853
0.0020485
0.00207009
0.00207006
0.0198844
0.0200832
0.0201225
0.0203203
0.00207691
0.00214059
0.00209832
0.00216168
0.0205598
0.0202912
0.0207926
0.0205251
0.00225284
0.00232241
0.00227372
0.00234289
0.0197954
0.0200651
0.0200499
0.0203185
0.00227899
0.00220861
0.00230119
0.00223119
0.0195801
0.0193779
0.0198374
0.0196366
0.00209572
0.00203125
0.00211868
0.00205462
0.0193055
0.0193051
0.0195646
0.0195642
0.00200242
0.0020024
0.00202599
0.00202597
0.0193768
0.0195782
0.0196354
0.0198355
0.00203118
0.00209561
0.00205456
0.00211858
0.0200626
0.0197923
0.0203159
0.0200469
0.00220849
0.00227885
0.00223106
0.00230105
0.0192486
0.0195206
0.0195281
0.0197989
0.00223123
0.00216025
0.00225568
0.00218496
0.0190288
0.0188237
0.0193104
0.0191068
0.00204622
0.00198084
0.00207161
0.0020067
0.0187507
0.0187503
0.0190339
0.0190335
0.00195162
0.0019516
0.00197766
0.00197764
0.0188226
0.0190269
0.0191056
0.0193085
0.00198078
0.00204612
0.00200663
0.00207151
0.0195181
0.0192455
0.0197963
0.0195251
0.00216013
0.00223108
0.00218483
0.00225554
0.0186524
0.0189148
0.0189548
0.0192263
0.00217791
0.0021059
0.0022053
0.00213405
0.0184168
0.0182125
0.0187313
0.0185255
0.00199002
0.00192422
0.00201918
0.00195342
0.0181418
0.0181414
0.0184529
0.0184525
0.00189506
0.00189504
0.00192411
0.00192409
0.0182113
0.0184149
0.0185243
0.0187295
0.00192415
0.00198992
0.00195335
0.00201908
0.0189123
0.0186493
0.0192238
0.0189519
0.00210577
0.00217777
0.00213392
0.00220516
0.0180747
0.018193
0.0183532
0.018576
0.0021158
0.00203137
0.00214879
0.00207354
0.0177166
0.0175372
0.0180787
0.0178818
0.0019213
0.00185965
0.00195776
0.00189294
0.0174789
0.0174785
0.0178158
0.0178154
0.00183244
0.00183241
0.00186441
0.00186439
0.0175361
0.0177148
0.0178807
0.0180768
0.00185958
0.0019212
0.00189287
0.00195766
0.0181906
0.0180716
0.0185736
0.0183502
0.00203125
0.00211565
0.00207342
0.00214865
0.0218076
0.021
0.0173121
0.0167507
0.0169453
0.0162091
0.0130056
0.012514
0.0197148
0.0193308
0.0152883
0.0147921
0.0148932
0.0144755
0.0110065
0.0104445
0.0194301
0.0194276
0.014877
0.0148747
0.0145705
0.0145688
0.0105134
0.0105119
0.0193231
0.0197024
0.0147849
0.0152765
0.0144701
0.0148846
0.0104393
0.0109979
0.0209844
0.0217897
0.0167357
0.0172951
0.0161982
0.0169331
0.0125033
0.0129938
0.0294703
0.0287692
0.0258025
0.0250269
0.0229429
0.022342
0.0201478
0.0194582
0.0277913
0.0275829
0.0239026
0.0236203
0.0213714
0.0211489
0.0183273
0.0180288
0.0276969
0.0276938
0.0237322
0.0237294
0.0212485
0.0212465
0.0181342
0.0181323
0.027574
0.0277776
0.0236119
0.0238895
0.0211431
0.0213623
0.0180232
0.0183184
0.0287522
0.0294511
0.0250107
0.0257843
0.0223307
0.0229302
0.0194471
0.0201356
0.035933
0.0353672
0.0328414
0.0322127
0.0276557
0.0272109
0.0254287
0.0249125
0.0345979
0.0344701
0.0313515
0.0311909
0.0264619
0.0263179
0.024067
0.0238916
0.0345715
0.0345683
0.0312994
0.0312962
0.026395
0.026393
0.0239796
0.0239776
0.0344607
0.0345836
0.0311818
0.0313375
0.026312
0.0264527
0.0238857
0.0240579
0.0353495
0.0359131
0.0321955
0.0328221
0.0271994
0.0276428
0.0249011
0.0254162
0.0412995
0.040832
0.0387458
0.038232
0.0314228
0.0310865
0.0296421
0.0292579
0.0401954
0.0401065
0.0375354
0.0374292
0.0304744
0.0303682
0.0285849
0.0284622
0.0401941
0.0401909
0.0375228
0.0375196
0.0304286
0.0304267
0.0285297
0.0285277
0.0400972
0.0401813
0.0374199
0.0375212
0.0303624
0.0304656
0.0284564
0.0285759
0.0408145
0.0412797
0.0382145
0.0387262
0.0310753
0.0314102
0.0292466
0.0296298
0.0456933
0.0453003
0.0436051
0.0431779
0.0344287
0.0341687
0.0330097
0.0327141
0.0447563
0.0446925
0.0425912
0.0425154
0.0336499
0.0335678
0.0321526
0.0320591
0.0447716
0.0447685
0.0425978
0.0425947
0.0336193
0.0336174
0.0321141
0.0321122
0.0446837
0.0447429
0.0425064
0.0425775
0.0335625
0.0336416
0.0320536
0.032144
0.0452835
0.0456741
0.0431608
0.043586
0.0341582
0.0344167
0.0327033
0.0329979
0.0492751
0.0489379
0.0475741
0.0472106
0.0368273
0.0366275
0.0356935
0.0354651
0.048463
0.0484188
0.0467033
0.0466493
0.0361758
0.0361121
0.0349827
0.0349102
0.0484936
0.0484908
0.0467256
0.0467227
0.0361596
0.0361578
0.0349591
0.0349573
0.0484105
0.0484503
0.0466409
0.0466903
0.0361071
0.0361681
0.034905
0.0349747
0.048922
0.0492567
0.0471944
0.0475557
0.0366176
0.036816
0.035455
0.0356823
0.0521908
0.0518975
0.0508058
0.0504917
0.0387487
0.0385968
0.0378396
0.0376652
0.0514766
0.051449
0.0500453
0.0500094
0.0381958
0.0381469
0.0372404
0.0371842
0.0515226
0.0515199
0.0500831
0.0500804
0.0381929
0.0381913
0.0372306
0.037229
0.0514413
0.0514648
0.0500015
0.0500332
0.0381423
0.0381886
0.0371795
0.037233
0.0518825
0.0521734
0.0504764
0.0507883
0.0385875
0.0387381
0.0376557
0.0378291
0.0545642
0.0543067
0.0534365
0.053162
0.0402916
0.040177
0.039561
0.0394288
0.0539283
0.0539149
0.0527633
0.0527428
0.0398165
0.0397802
0.0390491
0.0390067
0.0539888
0.0539863
0.0528162
0.0528136
0.0398263
0.0398248
0.0390525
0.039051
0.0539078
0.0539172
0.0527354
0.0527519
0.039776
0.0398098
0.0390023
0.0390422
0.0542926
0.0545476
0.0531475
0.0534198
0.0401683
0.0402815
0.0394199
0.039551
0.0564947
0.0562659
0.0555774
0.055335
0.0415318
0.0414471
0.0409443
0.0408455
0.055922
0.0559212
0.0549747
0.0549674
0.0411193
0.0410938
0.0405022
0.0404714
0.0559963
0.055994
0.0550417
0.0550393
0.0411405
0.0411391
0.0405176
0.0405162
0.0559144
0.0559115
0.0549605
0.0549639
0.0410898
0.041113
0.0404673
0.0404957
0.0562524
0.0564788
0.0553213
0.0555615
0.0414389
0.0415222
0.0408371
0.0409348
0.0580609
0.0578554
0.0573172
0.0571005
0.0425274
0.0424666
0.042056
0.0419839
0.0575401
0.0575502
0.0567716
0.0567761
0.0421657
0.0421493
0.0416703
0.0416494
0.057627
0.0576248
0.0568519
0.0568496
0.042197
0.0421957
0.0416965
0.0416951
0.0575438
0.05753
0.0567696
0.0567614
0.0421455
0.0421597
0.0416455
0.0416642
0.0578424
0.0580456
0.0570874
0.0573019
0.0424587
0.0425181
0.0419759
0.042047
0.0593252
0.0591385
0.0587255
0.0585298
0.0433224
0.0432809
0.0429465
0.0428958
0.0588471
0.0588668
0.0582269
0.0582418
0.0430021
0.0429936
0.0426066
0.0425942
0.0589456
0.0589434
0.0583194
0.0583172
0.0430427
0.0430414
0.0426425
0.0426412
0.0588606
0.0588374
0.0582355
0.0582172
0.04299
0.0429963
0.0425905
0.0426007
0.059126
0.0593102
0.0585172
0.0587107
0.0432733
0.0433134
0.0428882
0.0429378
0.0603363
0.0601653
0.0598579
0.0596794
0.0439505
0.0439247
0.0436544
0.0436211
0.0598939
0.0599221
0.0593983
0.0594222
0.0436645
0.0436631
0.0433521
0.0433471
0.0600029
0.0600008
0.0595018
0.0594997
0.0437135
0.0437123
0.0433968
0.0433956
0.0599162
0.0598846
0.0594161
0.0593888
0.0436596
0.0436589
0.0433436
0.0433465
0.0601531
0.0603217
0.0596671
0.0598434
0.0439174
0.0439418
0.0436137
0.043646
0.0611336
0.0609755
0.0607576
0.0605933
0.0444385
0.0444255
0.0442095
0.0441904
0.0607213
0.0607568
0.0603308
0.0603626
0.0441809
0.0441857
0.0439384
0.04394
0.0608396
0.0608376
0.0604442
0.0604422
0.0442376
0.0442365
0.0439911
0.04399
0.060751
0.0607121
0.0603567
0.0603216
0.0441823
0.0441754
0.0439366
0.0439329
0.0609635
0.0611191
0.0605813
0.0607433
0.0444182
0.0444297
0.0441831
0.0442011
0.0617477
0.0616009
0.06146
0.0613076
0.0448069
0.0448046
0.0446354
0.044628
0.0613614
0.0614036
0.061061
0.0610998
0.0445734
0.0445839
0.0443904
0.0443981
0.0614882
0.0614863
0.0611833
0.0611814
0.0446374
0.0446363
0.0444507
0.0444495
0.0613979
0.0613524
0.061094
0.061052
0.0445806
0.044568
0.0443947
0.044385
0.0615891
0.0617333
0.0612957
0.0614458
0.0447974
0.0447981
0.0446207
0.0446269
0.0622046
0.0620667
0.0619924
0.0618499
0.0450727
0.0450795
0.0449507
0.044953
0.0618401
0.0618885
0.0616176
0.0616626
0.0448597
0.0448753
0.0447278
0.0447409
0.061975
0.0619731
0.0617481
0.0617461
0.0449303
0.0449292
0.044795
0.0447939
0.0618829
0.0618312
0.061657
0.0616087
0.0448721
0.0448545
0.0447376
0.0447226
0.0620551
0.0621904
0.0618382
0.0619784
0.0450725
0.0450641
0.0449459
0.0449424
0.0625255
0.0623949
0.0623789
0.0622449
0.0452501
0.0452638
0.0451705
0.0451807
0.062179
0.0622321
0.0620238
0.0620745
0.0450536
0.045074
0.0449666
0.0449845
0.06232
0.0623181
0.062162
0.0621601
0.0451304
0.0451293
0.04504
0.0450389
0.0622265
0.0621703
0.062069
0.0620151
0.0450708
0.0450485
0.0449813
0.0449615
0.0623834
0.0625114
0.0622334
0.0623651
0.045257
0.0452418
0.0451738
0.0451622
0.0627282
0.0626039
0.0626401
0.0625126
0.045352
0.0453708
0.0453103
0.0453263
0.0623969
0.0624538
0.0623003
0.0623547
0.0451684
0.0451911
0.0451193
0.0451404
0.0625429
0.062541
0.0624432
0.0624413
0.0452479
0.0452468
0.0451971
0.045196
0.0624483
0.0623881
0.0623493
0.0622916
0.0451878
0.0451631
0.0451373
0.0451142
0.0625923
0.0627139
0.0625012
0.0626263
0.0453634
0.0453429
0.0453196
0.0453026
0.0628182
0.0626995
0.062785
0.0626633
0.0453754
0.0454
0.0453717
0.0453932
0.062501
0.0625622
0.0624604
0.0625194
0.0452066
0.0452337
0.0451955
0.0452207
0.062653
0.0626511
0.0626094
0.0626075
0.0452924
0.0452913
0.0452786
0.0452775
0.0625567
0.0624922
0.0625139
0.0624516
0.0452305
0.0452013
0.0452175
0.0451902
0.0626878
0.0628039
0.0626516
0.0627709
0.0453937
0.0453675
0.045386
0.0453629
0.0628078
0.0626942
0.0628226
0.0627068
0.0453354
0.0453647
0.0453616
0.045389
0.0625029
0.062568
0.0625122
0.0625751
0.0451772
0.0452078
0.0451989
0.0452278
0.0626601
0.0626583
0.0626664
0.0626645
0.0452679
0.0452668
0.045287
0.0452859
0.0625626
0.0624943
0.0625697
0.0625035
0.0452047
0.0451721
0.0452246
0.0451937
0.0626827
0.0627935
0.0626952
0.0628086
0.045357
0.0453262
0.0453821
0.0453542
0.0627022
0.0625936
0.0627647
0.0626531
0.0452331
0.0452661
0.045291
0.0453217
0.0624103
0.0624793
0.062466
0.0625328
0.0450853
0.0451193
0.0451378
0.04517
0.0625729
0.0625711
0.0626255
0.0626237
0.0451807
0.0451797
0.0452307
0.0452297
0.062474
0.0624018
0.0625275
0.0624575
0.0451162
0.0450805
0.045167
0.0451329
0.0625823
0.0626883
0.0626418
0.062751
0.0452604
0.0452259
0.0453151
0.0452825
0.0625128
0.062408
0.0626155
0.0625093
0.045075
0.0451115
0.0451595
0.0451946
0.0622299
0.0623023
0.0623288
0.0623993
0.0449349
0.0449718
0.0450162
0.0450516
0.0623975
0.0623957
0.0624935
0.0624917
0.0450348
0.0450337
0.0451137
0.0451127
0.062297
0.0622215
0.062394
0.0623203
0.0449688
0.0449299
0.0450486
0.0450113
0.0623968
0.0624987
0.062498
0.0626018
0.0451041
0.0450661
0.0451882
0.0451526
0.062239
0.0621382
0.0623844
0.0622811
0.0448619
0.0449009
0.0449745
0.0450118
0.0619663
0.062042
0.0621062
0.06218
0.044729
0.0447687
0.0448377
0.044876
0.0621386
0.0621367
0.0622758
0.062274
0.0448329
0.0448319
0.0449395
0.0449385
0.0620366
0.0619577
0.0621747
0.0620977
0.0447656
0.0447241
0.0448729
0.0448328
0.0621268
0.062225
0.0622699
0.0623708
0.044895
0.0448546
0.0450052
0.0449661
0.0618895
0.0617918
0.0620714
0.0619726
0.0445972
0.0446391
0.0447346
0.0447752
0.0616234
0.0617018
0.0618026
0.0618794
0.04447
0.0445119
0.044605
0.0446457
0.0617997
0.0617978
0.0619765
0.0619747
0.0445773
0.0445763
0.0447106
0.0447095
0.0616964
0.0616148
0.061874
0.061794
0.0445087
0.0444649
0.0446427
0.0446
0.0617803
0.0618749
0.0619611
0.0620574
0.0446314
0.044588
0.0447686
0.0447274
0.0614611
0.0613667
0.0616833
0.0615868
0.0442805
0.0443243
0.0444447
0.0444872
0.061203
0.0612839
0.0614207
0.0615001
0.0441587
0.0442026
0.0443198
0.0443626
0.0613829
0.0613811
0.0615985
0.0615967
0.0442692
0.0442682
0.0444286
0.0444276
0.0612784
0.0611942
0.0614947
0.0614121
0.0441995
0.0441537
0.0443595
0.0443148
0.0613549
0.0614465
0.0615751
0.0616691
0.044318
0.0442722
0.04448
0.0444355
0.0609593
0.0608677
0.0612171
0.0611245
0.0439136
0.0439598
0.0441019
0.0441472
0.0607063
0.0607893
0.0609621
0.0610438
0.0437956
0.0438414
0.0439827
0.0440274
0.0608894
0.0608876
0.0611433
0.0611415
0.0439092
0.0439081
0.0440945
0.0440934
0.0607837
0.0606974
0.0610383
0.0609533
0.0438382
0.0437903
0.0440242
0.0439775
0.0608558
0.0609441
0.0611126
0.0612026
0.0439516
0.0439034
0.0441401
0.0440939
0.0603802
0.0602915
0.0606776
0.0605871
0.0434945
0.0435425
0.0437099
0.0437566
0.0601331
0.0602181
0.0604272
0.0605109
0.0433801
0.0434282
0.0435933
0.0436401
0.0603193
0.0603174
0.0606115
0.0606097
0.0434972
0.0434961
0.0437085
0.0437074
0.0602125
0.0601242
0.0605054
0.0604184
0.043425
0.0433751
0.0436369
0.0435881
0.0602797
0.0603656
0.0605752
0.060663
0.0435363
0.0434863
0.0437492
0.0437002
0.0597268
0.0596406
0.0600608
0.0599735
0.0430259
0.043076
0.043265
0.0433143
0.0594834
0.05957
0.0598158
0.0599014
0.0429134
0.042963
0.0431522
0.043201
0.0596723
0.0596703
0.060003
0.0600011
0.0430331
0.043032
0.0432705
0.0432694
0.0595643
0.0594743
0.0598958
0.0598069
0.0429597
0.0429081
0.0431977
0.0431471
0.0596285
0.0597117
0.0599616
0.0600463
0.0430684
0.0430166
0.0433076
0.0432574
0.0589961
0.0589121
0.0593692
0.059284
0.0425064
0.0425575
0.0427716
0.0428221
0.0587562
0.0588441
0.0591274
0.0592145
0.0423944
0.0424452
0.0426594
0.0427096
0.0589473
0.0589454
0.0593172
0.0593152
0.0425163
0.0425151
0.0427801
0.042779
0.0588384
0.0587471
0.0592089
0.0591184
0.0424419
0.0423891
0.0427063
0.0426541
0.0589
0.0589809
0.0592719
0.0593544
0.0425503
0.0424973
0.0428146
0.0427625
0.058188
0.0581062
0.0585998
0.0585169
0.0419349
0.0419869
0.0422262
0.0422777
0.0579506
0.0580392
0.0583613
0.0584494
0.0418227
0.0418741
0.0421142
0.0421653
0.0581429
0.058141
0.0585528
0.0585508
0.0419458
0.0419447
0.0422367
0.0422355
0.0580335
0.0579414
0.0584437
0.0583522
0.0418707
0.0418173
0.0421619
0.0421089
0.0580941
0.0581729
0.0585048
0.0585851
0.0419796
0.0419259
0.0422705
0.0422176
0.0573005
0.0572202
0.0577526
0.0576715
0.0413103
0.0413627
0.0416284
0.0416805
0.0570638
0.0571523
0.0575156
0.057604
0.0411965
0.0412479
0.0415155
0.0415669
0.0572561
0.0572542
0.0577077
0.0577057
0.0413202
0.0413191
0.0416389
0.0416378
0.0571465
0.0570546
0.0575982
0.0575064
0.0412446
0.0411911
0.0415636
0.0415101
0.0572081
0.0572854
0.0576593
0.0577378
0.0413555
0.0413013
0.0416733
0.0416197
0.0563292
0.0562495
0.0568238
0.0567438
0.0406305
0.0406825
0.0409765
0.0410287
0.0560911
0.0561788
0.0565865
0.0566744
0.0405133
0.0405643
0.0408612
0.0409124
0.0562825
0.0562805
0.0567781
0.0567762
0.0406368
0.0406357
0.0409848
0.0409836
0.0561729
0.0560819
0.0566686
0.0565773
0.0405609
0.0405078
0.040909
0.0408558
0.0562374
0.0563141
0.0567317
0.056809
0.0406753
0.0406215
0.0410215
0.0409678
0.0552687
0.0551891
0.0558087
0.055729
0.0398926
0.0399437
0.040268
0.0403197
0.055027
0.0551129
0.0555689
0.0556556
0.0397698
0.0398197
0.0401484
0.0401988
0.0552162
0.0552142
0.055759
0.055757
0.0398923
0.0398912
0.0402713
0.0402702
0.055107
0.0550177
0.0556498
0.0555597
0.0398163
0.0397644
0.0401954
0.040143
0.0551769
0.0552536
0.0557169
0.0557939
0.0399365
0.0398836
0.0403124
0.0402594
0.0541116
0.054031
0.0547009
0.0546209
0.0390922
0.0391413
0.0394996
0.0395498
0.0538636
0.053947
0.0544563
0.0545408
0.0389614
0.0390096
0.0393732
0.0394221
0.0540498
0.0540478
0.0546437
0.0546417
0.0390821
0.0390809
0.0394946
0.0394935
0.0539411
0.0538542
0.0545349
0.054447
0.0390061
0.0389559
0.0394187
0.0393677
0.0540188
0.0540967
0.0546087
0.0546862
0.0391341
0.0390833
0.0395426
0.0394909
0.0528492
0.052766
0.0534925