/*--------------------------------*- C++ -*----------------------------------*\
  =========                 |
  \\      /  F ield         | OpenFOAM: The Open Source CFD Toolbox
   \\    /   O peration     | Website:  https://openfoam.org
    \\  /    A nd           | Version:  9
     \\/     M anipulation  |
\*---------------------------------------------------------------------------*/
FoamFile
{
    format      ascii;
    class       volScalarField;
    location    "3";
    object      p;
}
// * * * * * * * * * * * * * * * * * * * * * * * * * * * * * * * * * * * * * //

dimensions      [0 2 -2 0 0 0 0];

internalField   nonuniform List<scalar> 
36360
(
20.1893
20.042
20.1642
20.0547
20.063
20.1326
20.0693
20.1159
20.0927
20.1015
20.0965
20.1023
20.0985
20.0966
20.0954
20.0959
20.1023
20.1023
20.1025
20.1025
20.0969
20.0969
20.0964
20.0964
20.1015
20.0927
20.1023
20.0965
20.0966
20.0985
20.0959
20.0954
20.0421
20.1893
20.0547
20.1642
20.1326
20.063
20.1159
20.0693
20.1346
20.0805
20.1596
20.0667
19.9992
20.1905
20.0346
20.1647
20.1028
20.0996
20.0972
20.1005
20.1139
20.0968
20.1058
20.097
20.0988
20.0988
20.101
20.101
20.0949
20.0949
20.0964
20.0964
20.0996
20.1028
20.1005
20.0972
20.0968
20.1139
20.097
20.1058
20.0805
20.1346
20.0667
20.1596
20.1904
19.9993
20.1646
20.0347
20.0991
20.0937
20.1155
20.0888
19.9421
20.2257
19.9684
20.2106
20.1156
20.1018
20.1091
20.1001
20.1323
20.0997
20.1231
20.0977
20.0961
20.0961
20.0971
20.0971
20.0934
20.0934
20.0938
20.0938
20.1018
20.1156
20.1001
20.1091
20.0997
20.1323
20.0977
20.1231
20.0937
20.0991
20.0888
20.1155
20.2256
19.9421
20.2105
19.9685
20.0728
20.097
20.0849
20.0962
19.9002
20.2447
19.9195
20.2367
20.1271
20.1069
20.1217
20.1042
20.1485
20.1055
20.1409
20.1024
20.0964
20.0964
20.0959
20.0959
20.0943
20.0943
20.0935
20.0935
20.1069
20.1271
20.1042
20.1217
20.1055
20.1485
20.1024
20.1409
20.097
20.0729
20.0962
20.0849
20.2447
19.9003
20.2367
19.9196
20.0535
20.0958
20.0625
20.0968
19.8696
20.2546
19.8837
20.2505
20.1356
20.1127
20.1317
20.1098
20.1606
20.112
20.1551
20.1087
20.0988
20.0988
20.0974
20.0974
20.097
20.097
20.0954
20.0954
20.1127
20.1356
20.1098
20.1317
20.112
20.1606
20.1087
20.1551
20.0958
20.0536
20.0968
20.0625
20.2546
19.8696
20.2504
19.8838
20.0391
20.0929
20.0458
20.0945
19.8467
20.2596
19.8573
20.2575
20.1415
20.1183
20.1388
20.1156
20.1691
20.1182
20.1652
20.1152
20.1024
20.1024
20.1005
20.1005
20.1006
20.1006
20.0987
20.0987
20.1183
20.1414
20.1156
20.1388
20.1182
20.1691
20.1152
20.1652
20.0929
20.0391
20.0945
20.0458
20.2596
19.8468
20.2575
19.8574
20.028
20.0894
20.0332
20.0912
19.8293
20.262
19.8374
20.261
20.1453
20.1231
20.1436
20.1208
20.1749
20.1236
20.1723
20.121
20.1063
20.1063
20.1043
20.1043
20.1045
20.1045
20.1026
20.1026
20.1231
20.1453
20.1208
20.1436
20.1236
20.1749
20.121
20.1722
20.0895
20.028
20.0912
20.0332
20.262
19.8294
20.261
19.8375
20.0192
20.0859
20.0233
20.0877
19.8158
20.2628
19.8221
20.2625
20.1476
20.127
20.1466
20.1251
20.1787
20.1279
20.177
20.1259
20.11
20.11
20.1082
20.1082
20.1083
20.1083
20.1065
20.1065
20.127
20.1476
20.1251
20.1466
20.1279
20.1787
20.1259
20.177
20.086
20.0193
20.0877
20.0234
20.2628
19.8159
20.2625
19.8222
20.0122
20.0826
20.0155
20.0843
19.8053
20.2628
19.8102
20.2629
20.1489
20.1301
20.1484
20.1286
20.1812
20.1313
20.1801
20.1297
20.1131
20.1131
20.1116
20.1116
20.1115
20.1115
20.11
20.11
20.1301
20.1489
20.1286
20.1484
20.1313
20.1812
20.1297
20.1801
20.0826
20.0123
20.0843
20.0156
20.2628
19.8053
20.2629
19.8103
20.0065
20.0795
20.0092
20.081
19.797
20.2621
19.8009
20.2625
20.1494
20.1323
20.1492
20.1313
20.1827
20.1338
20.182
20.1326
20.1157
20.1157
20.1145
20.1145
20.1142
20.1142
20.1129
20.1129
20.1323
20.1495
20.1313
20.1492
20.1338
20.1828
20.1326
20.1821
20.0796
20.0065
20.0811
20.0092
20.2623
19.7965
20.2625
19.8008
20.0017
20.0766
20.004
20.0781
19.7902
20.2611
19.7934
20.2616
20.1495
20.1338
20.1495
20.1332
20.1834
20.1354
20.1831
20.1347
20.1176
20.1176
20.1167
20.1167
20.1162
20.1161
20.1152
20.1152
20.1338
20.1495
20.1332
20.1495
20.1354
20.1834
20.1347
20.1832
20.0767
20.0017
20.0781
20.004
20.2611
19.7904
20.2618
19.7932
19.9976
20.0741
19.9995
20.0753
19.7838
20.26
19.787
20.2605
20.1491
20.1347
20.1493
20.1344
20.1837
20.1365
20.1836
20.136
20.1189
20.1189
20.1183
20.1183
20.1175
20.1175
20.1169
20.1169
20.1347
20.1491
20.1343
20.1493
20.1364
20.1835
20.136
20.1835
20.074
19.9976
20.0753
19.9996
20.2597
19.785
20.2604
19.7876
19.9939
20.0715
19.9957
20.0728
19.7795
20.2583
19.7815
20.2592
20.1484
20.135
20.1488
20.1349
20.1832
20.1369
20.1835
20.1368
20.1196
20.1196
20.1193
20.1193
20.1182
20.1182
20.1179
20.1179
20.135
20.1483
20.1349
20.1487
20.1368
20.1832
20.1367
20.1834
20.0715
19.994
20.0727
19.9958
20.2581
19.7805
20.2589
19.7827
19.9907
20.0691
19.9923
20.0703
19.7757
20.2564
19.7773
20.2575
20.1473
20.1348
20.1479
20.135
20.1824
20.1367
20.1829
20.1368
20.1197
20.1197
20.1197
20.1197
20.1183
20.1183
20.1183
20.1183
20.1348
20.1473
20.135
20.1479
20.1367
20.1824
20.1368
20.1828
20.0692
19.9908
20.0703
19.9924
20.2564
19.776
20.2573
19.7782
19.9879
20.0668
19.9892
20.068
19.7728
20.2543
19.7742
20.2554
20.146
20.1341
20.1467
20.1345
20.1811
20.1359
20.1818
20.1363
20.1193
20.1193
20.1196
20.1196
20.1179
20.1179
20.1182
20.1182
20.1341
20.146
20.1345
20.1467
20.136
20.1812
20.1364
20.1819
20.0669
19.9878
20.068
19.9893
20.2544
19.7723
20.2556
19.7738
19.985
20.0645
19.9864
20.0656
19.7705
20.2517
19.7718
20.2529
20.1443
20.1329
20.1452
20.1336
20.1793
20.1347
20.1802
20.1354
20.1184
20.1184
20.1189
20.1189
20.1169
20.1169
20.1174
20.1175
20.133
20.1444
20.1336
20.1452
20.1347
20.1794
20.1354
20.1803
20.0646
19.9851
20.0657
19.9864
20.2519
19.7699
20.2531
19.7712
19.9823
20.0623
19.9836
20.0635
19.7677
20.2491
19.7691
20.2504
20.1425
20.1313
20.1435
20.1322
20.1773
20.1331
20.1784
20.1339
20.117
20.117
20.1178
20.1178
20.1155
20.1155
20.1162
20.1162
20.1313
20.1425
20.1322
20.1435
20.133
20.1772
20.1339
20.1784
20.0623
19.9825
20.0634
19.9838
20.2489
19.7688
20.2506
19.7691
19.9799
20.06
19.9811
20.0612
19.7657
20.2462
19.7665
20.2478
20.1405
20.1293
20.1415
20.1304
20.1749
20.131
20.1761
20.1321
20.1153
20.1153
20.1162
20.1162
20.1136
20.1136
20.1146
20.1146
20.1293
20.1404
20.1303
20.1415
20.1309
20.1748
20.132
20.176
20.0599
19.9801
20.0611
19.9813
20.2461
19.7668
20.2474
19.7681
19.9777
20.0577
19.9788
20.0589
19.7641
20.2431
19.7647
20.2448
20.1382
20.1271
20.1394
20.1282
20.1721
20.1285
20.1736
20.1298
20.1132
20.1132
20.1143
20.1143
20.1113
20.1113
20.1125
20.1125
20.1271
20.1383
20.1283
20.1394
20.1285
20.1722
20.1298
20.1735
20.0578
19.9776
20.0589
19.9788
20.2434
19.7637
20.2447
19.7653
19.9752
20.0557
19.9764
20.0567
19.7621
20.24
19.7633
20.2414
20.136
20.1247
20.1371
20.1259
20.1691
20.1257
20.1706
20.1271
20.1109
20.1109
20.1121
20.1121
20.1087
20.1087
20.11
20.1101
20.1247
20.136
20.1259
20.1372
20.1257
20.1692
20.1272
20.1708
20.0556
19.9753
20.0568
19.9764
20.24
19.762
20.2418
19.7627
19.973
20.0535
19.9741
20.0546
19.7608
20.2363
19.7613
20.2382
20.1336
20.122
20.1349
20.1234
20.1659
20.1226
20.1675
20.1242
20.1084
20.1084
20.1097
20.1097
20.1057
20.1057
20.1073
20.1073
20.122
20.1336
20.1234
20.1348
20.1226
20.1658
20.1242
20.1676
20.0535
19.9729
20.0546
19.9741
20.2363
19.7611
20.2384
19.7611
19.9708
20.0515
19.9718
20.0525
19.7599
20.2328
19.7604
20.2346
20.1313
20.1193
20.1325
20.1207
20.1624
20.1193
20.1642
20.121
20.1057
20.1057
20.107
20.107
20.1025
20.1025
20.1041
20.1041
20.1193
20.1312
20.1206
20.1324
20.1193
20.1624
20.121
20.1641
20.0513
19.9709
20.0524
19.9718
20.2325
19.7605
20.2343
19.7611
19.9692
20.0494
19.97
20.0504
19.7593
20.2289
19.7595
20.2309
20.1289
20.1165
20.1301
20.1179
20.1589
20.1159
20.1607
20.1176
20.1029
20.1029
20.1043
20.1043
20.0991
20.0991
20.1008
20.1008
20.1165
20.129
20.1179
20.1301
20.1159
20.159
20.1176
20.1607
20.0495
19.9691
20.0504
19.97
20.2294
19.7582
20.2309
19.7594
19.9673
20.048
19.9682
20.0487
19.7576
20.2256
19.7584
20.2273
20.1269
20.1138
20.1279
20.1151
20.1554
20.1124
20.1571
20.1141
20.1002
20.1002
20.1015
20.1015
20.0957
20.0956
20.0974
20.0974
20.1138
20.1269
20.1151
20.1279
20.1123
20.1553
20.1141
20.1572
20.0479
19.9674
20.0487
19.9682
20.2253
19.7583
20.2273
19.7582
19.9662
20.0464
19.9666
20.0472
19.7578
20.2218
19.7578
20.2236
20.1246
20.1111
20.1258
20.1124
20.1517
20.1088
20.1536
20.1106
20.0975
20.0975
20.0988
20.0988
20.0922
20.0922
20.0939
20.0939
20.1111
20.1246
20.1124
20.1258
20.1087
20.1517
20.1105
20.1535
20.0464
19.9662
20.0471
19.9667
20.2219
19.7579
20.2235
19.7582
19.9652
20.0454
19.9657
20.0458
19.758
20.2184
19.7579
20.22
20.122
20.1086
20.1232
20.1098
20.148
20.1052
20.1498
20.107
20.0951
20.0951
20.0963
20.0963
20.0887
20.0887
20.0904
20.0904
20.1086
20.122
20.1098
20.1232
20.1052
20.1481
20.107
20.1499
20.0454
19.9653
20.0459
19.9657
20.2185
19.758
20.2202
19.7577
19.9649
20.0447
19.9649
20.0451
19.7587
20.2152
19.7581
20.2169
20.12
20.1064
20.121
20.1075
20.1446
20.1019
20.1463
20.1035
20.0929
20.0929
20.0939
20.0939
20.0855
20.0855
20.0871
20.0871
20.1064
20.12
20.1075
20.121
20.1019
20.1446
20.1035
20.1463
20.0447
19.9649
20.045
19.965
20.2152
19.7587
20.2168
19.7583
19.9652
20.0446
19.965
20.0446
19.7601
20.2123
19.7593
20.2137
20.1184
20.1046
20.1191
20.1054
20.1414
20.0988
20.1429
20.1003
20.0911
20.0911
20.0919
20.0919
20.0826
20.0826
20.084
20.084
20.1046
20.1184
20.1054
20.1192
20.0988
20.1414
20.1003
20.1429
20.0446
19.9652
20.0446
19.965
20.2123
19.7602
20.2137
19.7594
19.966
20.0451
19.9655
20.0448
19.7624
20.2096
19.7612
20.2109
20.1173
20.1032
20.1178
20.1038
20.1385
20.0961
20.1399
20.0974
20.0897
20.0897
20.0903
20.0903
20.0801
20.0801
20.0813
20.0813
20.1032
20.1173
20.1038
20.1178
20.0961
20.1385
20.0974
20.1399
20.0451
19.9661
20.0448
19.9655
20.2096
19.7624
20.2109
19.7612
19.9677
20.0462
19.9668
20.0456
19.7656
20.2074
19.7638
20.2085
20.1168
20.1023
20.117
20.1026
20.1361
20.0938
20.1372
20.0949
20.089
20.089
20.0893
20.0893
20.0781
20.0781
20.079
20.079
20.1023
20.1168
20.1026
20.117
20.0938
20.1361
20.0949
20.1372
20.0462
19.9677
20.0456
19.9668
20.2074
19.7656
20.2085
19.7639
19.9702
20.048
19.9688
20.047
19.7697
20.2058
19.7675
20.2065
20.1168
20.1019
20.1167
20.102
20.1341
20.0921
20.135
20.0929
20.0889
20.0889
20.0888
20.0888
20.0768
20.0768
20.0774
20.0774
20.1019
20.1167
20.102
20.1167
20.0921
20.1341
20.0929
20.135
20.048
19.9702
20.047
19.9689
20.2058
19.7698
20.2065
19.7676
19.9736
20.0504
19.9718
20.0491
19.7751
20.2046
19.7723
20.2051
20.1173
20.1022
20.117
20.102
20.1326
20.0911
20.1333
20.0915
20.0894
20.0894
20.0891
20.0891
20.0762
20.0762
20.0764
20.0764
20.1022
20.1172
20.102
20.1169
20.0911
20.1326
20.0915
20.1333
20.0504
19.9736
20.0491
19.9718
20.2046
19.7751
20.2051
19.7723
19.978
20.0535
19.9756
20.0519
19.7817
20.204
19.7782
20.2042
20.1183
20.1031
20.1177
20.1026
20.1317
20.0907
20.1321
20.0908
20.0908
20.0908
20.09
20.09
20.0765
20.0765
20.0762
20.0762
20.1031
20.1183
20.1026
20.1177
20.0907
20.1317
20.0908
20.1321
20.0535
19.978
20.0519
19.9756
20.204
19.7817
20.2042
19.7783
19.9834
20.0572
19.9805
20.0553
19.7897
20.2039
19.7855
20.2039
20.1198
20.1047
20.119
20.1038
20.1313
20.0911
20.1314
20.0908
20.0929
20.0929
20.0918
20.0918
20.0777
20.0777
20.077
20.077
20.1047
20.1198
20.1038
20.119
20.0911
20.1313
20.0908
20.1314
20.0572
19.9834
20.0553
19.9805
20.2039
19.7898
20.2039
19.7855
19.99
20.0614
19.9865
20.0592
19.7994
20.2042
19.7943
20.204
20.1217
20.1069
20.1207
20.1057
20.1314
20.0924
20.1313
20.0917
20.0959
20.0959
20.0943
20.0943
20.0799
20.0799
20.0787
20.0787
20.1069
20.1217
20.1057
20.1207
20.0924
20.1314
20.0917
20.1313
20.0614
19.99
20.0592
19.9865
20.2041
19.7994
20.204
19.7944
19.9977
20.0659
19.9937
20.0636
19.8111
20.2045
19.805
20.2044
20.1239
20.1097
20.1227
20.1082
20.1319
20.0945
20.1316
20.0934
20.0997
20.0997
20.0977
20.0977
20.0831
20.0831
20.0814
20.0814
20.1097
20.1238
20.1082
20.1227
20.0945
20.1319
20.0934
20.1316
20.0659
19.9977
20.0636
19.9937
20.2045
19.8111
20.2043
19.805
20.0064
20.0709
20.002
20.0684
19.8253
20.2045
19.8178
20.2046
20.1262
20.1132
20.125
20.1114
20.1327
20.0975
20.1323
20.0959
20.1042
20.1042
20.1018
20.1018
20.0873
20.0873
20.0851
20.0851
20.1132
20.1262
20.1114
20.125
20.0975
20.1326
20.0959
20.1322
20.0709
20.0064
20.0684
20.002
20.2045
19.8254
20.2046
19.8179
20.014
20.0775
20.0108
20.0737
19.8432
20.2027
19.8338
20.2039
20.1288
20.1173
20.1274
20.1151
20.1335
20.1014
20.1331
20.0993
20.1096
20.1096
20.1068
20.1068
20.0926
20.0926
20.0898
20.0898
20.1173
20.1288
20.1151
20.1274
20.1014
20.1335
20.0993
20.1331
20.0775
20.014
20.0737
20.0107
20.2027
19.8432
20.2039
19.8338
20.0202
20.0849
20.0154
20.083
19.8656
20.1972
19.8537
20.2006
20.1329
20.1225
20.1306
20.1198
20.135
20.1065
20.1341
20.1038
20.1158
20.1158
20.1126
20.1126
20.0989
20.0989
20.0956
20.0956
20.1225
20.1329
20.1198
20.1306
20.1065
20.135
20.1038
20.1341
20.0849
20.0202
20.083
20.0154
20.1972
19.8656
20.2006
19.8537
20.2704
20.0032
20.208
20.0287
20.2467
20.0049
20.1915
20.0317
20.0566
20.0907
20.0741
20.0964
20.0695
20.0961
20.0818
20.0978
20.1004
20.1004
20.1006
20.1006
20.1002
20.1002
20.0991
20.0991
20.0908
20.0567
20.0964
20.0741
20.0961
20.0695
20.0978
20.0818
20.0032
20.2703
20.0288
20.2079
20.0049
20.2466
20.0318
20.1914
20.2244
20.0547
20.2406
20.0392
20.2079
20.0442
20.224
20.0322
20.0626
20.0846
20.0604
20.0873
20.0737
20.0925
20.0718
20.0944
20.0956
20.0956
20.0985
20.0985
20.098
20.098
20.0998
20.0998
20.0846
20.0626
20.0873
20.0604
20.0925
20.0737
20.0944
20.0718
20.0547
20.2244
20.0393
20.2406
20.0442
20.2078
20.0322
20.2239
20.2111
20.0609
20.2166
20.0599
20.1893
20.0493
20.1977
20.0485
20.0679
20.0843
20.0655
20.084
20.0816
20.0938
20.0776
20.0928
20.092
20.092
20.0933
20.0934
20.0953
20.0953
20.0963
20.0963
20.0843
20.0679
20.084
20.0655
20.0938
20.0816
20.0928
20.0776
20.0609
20.2111
20.0599
20.2166
20.0493
20.1893
20.0485
20.1977
20.2033
20.0578
20.2068
20.0598
20.1761
20.046
20.1822
20.0481
20.0709
20.0862
20.0697
20.0851
20.0878
20.0971
20.085
20.0953
20.0916
20.0916
20.0915
20.0915
20.0953
20.0953
20.0949
20.0949
20.0862
20.0709
20.0851
20.0697
20.0971
20.0878
20.0953
20.085
20.0578
20.2033
20.0598
20.2067
20.046
20.1761
20.0481
20.1821
20.198
20.0526
20.2004
20.0553
20.1667
20.0403
20.171
20.0433
20.0717
20.0888
20.0715
20.0875
20.0915
20.1012
20.0899
20.0992
20.0935
20.0935
20.0923
20.0923
20.0975
20.0975
20.0962
20.0962
20.0888
20.0717
20.0875
20.0715
20.1012
20.0915
20.0992
20.0899
20.0526
20.1979
20.0553
20.2004
20.0403
20.1666
20.0433
20.171
20.194
20.0471
20.1959
20.0498
20.1596
20.0343
20.1629
20.0372
20.0714
20.0914
20.0717
20.0901
20.0932
20.1051
20.0926
20.1032
20.0964
20.0964
20.0949
20.0949
20.1009
20.1009
20.0991
20.0991
20.0914
20.0714
20.0901
20.0717
20.1051
20.0932
20.1032
20.0926
20.0472
20.194
20.0498
20.1958
20.0343
20.1596
20.0373
20.1629
20.1909
20.042
20.1924
20.0445
20.1542
20.0288
20.1568
20.0315
20.0705
20.0935
20.071
20.0925
20.0934
20.1086
20.0934
20.1069
20.0996
20.0996
20.098
20.098
20.1046
20.1046
20.1027
20.1027
20.0935
20.0705
20.0925
20.071
20.1086
20.0934
20.1069
20.0934
20.042
20.1909
20.0445
20.1924
20.0289
20.1542
20.0315
20.1568
20.1884
20.0374
20.1896
20.0396
20.1499
20.0238
20.152
20.0263
20.0692
20.0952
20.0699
20.0944
20.0931
20.1114
20.0933
20.11
20.1026
20.1026
20.1012
20.1012
20.108
20.108
20.1063
20.1063
20.0952
20.0692
20.0944
20.0699
20.1114
20.0931
20.11
20.0933
20.0374
20.1884
20.0397
20.1896
20.0239
20.1499
20.0263
20.152
20.1862
20.0332
20.1873
20.0352
20.1464
20.0194
20.1481
20.0215
20.0678
20.0965
20.0685
20.0959
20.0923
20.1137
20.0927
20.1126
20.1052
20.1052
20.104
20.104
20.111
20.111
20.1096
20.1096
20.0965
20.0678
20.0959
20.0685
20.1137
20.0923
20.1126
20.0927
20.0332
20.1862
20.0352
20.1873
20.0194
20.1464
20.0215
20.1481
20.1843
20.0295
20.1852
20.0313
20.1433
20.0154
20.1448
20.0173
20.0663
20.0973
20.0671
20.097
20.0913
20.1153
20.0919
20.1145
20.1073
20.1073
20.1063
20.1063
20.1134
20.1134
20.1123
20.1123
20.0973
20.0664
20.097
20.0671
20.1153
20.0913
20.1145
20.0919
20.0295
20.1843
20.0313
20.1853
20.0154
20.1434
20.0173
20.1449
20.1824
20.0261
20.1833
20.0278
20.1406
20.0119
20.1419
20.0136
20.0648
20.0978
20.0656
20.0976
20.0902
20.1163
20.0908
20.1159
20.1087
20.1087
20.1081
20.1081
20.1152
20.1152
20.1144
20.1144
20.0978
20.0648
20.0976
20.0656
20.1163
20.0902
20.1159
20.0908
20.0261
20.1825
20.0278
20.1834
20.0119
20.1407
20.0136
20.142
20.1807
20.023
20.1816
20.0245
20.1382
20.0087
20.1393
20.0103
20.0633
20.0978
20.0641
20.0978
20.089
20.1169
20.0896
20.1167
20.1097
20.1097
20.1093
20.1093
20.1164
20.1164
20.1159
20.1159
20.0978
20.0633
20.0978
20.0641
20.1168
20.089
20.1166
20.0896
20.0231
20.1808
20.0246
20.1816
20.0087
20.1383
20.0102
20.1394
20.179
20.0202
20.1799
20.0216
20.1359
20.0057
20.1371
20.0071
20.0617
20.0975
20.0625
20.0977
20.0876
20.1169
20.0883
20.1169
20.1101
20.1101
20.11
20.11
20.117
20.117
20.1168
20.1168
20.0975
20.0617
20.0977
20.0625
20.1169
20.0875
20.1169
20.0883
20.0202
20.1791
20.0216
20.1799
20.0057
20.136
20.0071
20.1372
20.1774
20.0175
20.1782
20.0188
20.1338
20.003
20.1349
20.0043
20.06
20.0969
20.0608
20.0973
20.086
20.1165
20.0868
20.1167
20.1101
20.1101
20.1102
20.1102
20.1171
20.1171
20.1171
20.1171
20.0969
20.06
20.0973
20.0608
20.1165
20.086
20.1167
20.0868
20.0175
20.1774
20.0188
20.1782
20.003
20.1339
20.0043
20.135
20.1756
20.015
20.1765
20.0162
20.1317
20.0004
20.1328
20.0016
20.0583
20.0961
20.0591
20.0965
20.0844
20.1157
20.0852
20.1161
20.1097
20.1097
20.11
20.11
20.1167
20.1167
20.117
20.117
20.0961
20.0583
20.0965
20.0591
20.1157
20.0844
20.1161
20.0852
20.015
20.1757
20.0162
20.1766
20.0003
20.1319
20.0015
20.133
20.1738
20.0126
20.1747
20.0138
20.1297
19.9979
20.1307
19.9991
20.0566
20.095
20.0574
20.0955
20.0826
20.1146
20.0835
20.1152
20.1089
20.109
20.1094
20.1094
20.1159
20.1159
20.1164
20.1164
20.095
20.0566
20.0955
20.0574
20.1146
20.0826
20.1152
20.0835
20.0127
20.1738
20.0138
20.1748
19.9978
20.1298
19.9991
20.1308
20.1721
20.0103
20.173
20.0115
20.128
19.9952
20.1288
19.9965
20.0548
20.0937
20.0557
20.0943
20.0806
20.1133
20.0816
20.1139
20.1079
20.1079
20.1085
20.1085
20.1147
20.1147
20.1154
20.1154
20.0937
20.0549
20.0944
20.0557
20.1133
20.0807
20.114
20.0817
20.0105
20.1719
20.0116
20.1728
19.9955
20.1276
19.9967
20.1287
20.1702
20.0081
20.1712
20.0092
20.126
19.993
20.127
19.9941
20.053
20.0923
20.0539
20.093
20.0787
20.1119
20.0797
20.1127
20.1067
20.1067
20.1073
20.1073
20.1133
20.1133
20.114
20.114
20.0923
20.0531
20.093
20.054
20.1119
20.0787
20.1127
20.0797
20.0082
20.1701
20.0093
20.171
19.993
20.1259
19.9942
20.1268
20.1687
20.006
20.1695
20.007
20.1241
19.9907
20.1251
19.9918
20.0512
20.0907
20.0521
20.0915
20.0766
20.1103
20.0776
20.1111
20.1052
20.1052
20.1059
20.106
20.1115
20.1116
20.1124
20.1124
20.0907
20.0512
20.0915
20.0521
20.1103
20.0767
20.1111
20.0777
20.0059
20.1687
20.007
20.1694
19.9908
20.124
19.9919
20.1249
20.1669
20.0042
20.1678
20.005
20.1219
19.9889
20.1229
19.9898
20.0496
20.0892
20.0504
20.0899
20.0747
20.1085
20.0757
20.1095
20.1036
20.1036
20.1044
20.1044
20.1097
20.1097
20.1106
20.1106
20.0892
20.0497
20.0899
20.0504
20.1085
20.0746
20.1095
20.0756
20.0042
20.1669
20.005
20.1678
19.9887
20.1222
19.9897
20.1231
20.1656
20.0023
20.1662
20.0032
20.1202
19.9869
20.1211
19.9878
20.0481
20.0878
20.0488
20.0885
20.0726
20.1065
20.0736
20.1075
20.1021
20.1021
20.1029
20.1029
20.1076
20.1076
20.1087
20.1087
20.0877
20.0481
20.0885
20.0488
20.1065
20.0726
20.1075
20.0736
20.0024
20.1655
20.0033
20.1662
19.987
20.1201
19.9877
20.1212
20.1638
20.0011
20.1647
20.0017
20.1183
19.9853
20.1192
19.986
20.0468
20.0864
20.0474
20.0871
20.0706
20.1045
20.0716
20.1055
20.1005
20.1005
20.1013
20.1013
20.1056
20.1056
20.1066
20.1066
20.0864
20.0469
20.0871
20.0474
20.1045
20.0705
20.1055
20.0715
20.0012
20.1637
20.0017
20.1646
19.9851
20.1186
19.986
20.1193
20.1628
20
20.1632
20.0005
20.1171
19.9837
20.1177
19.9844
20.0457
20.0852
20.0463
20.0858
20.0684
20.1026
20.0695
20.1035
20.0991
20.0991
20.0998
20.0998
20.1036
20.1036
20.1046
20.1046
20.0852
20.0457
20.0858
20.0463
20.1026
20.0684
20.1035
20.0695
20
20.1628
20.0005
20.1633
19.9838
20.117
19.9844
20.1178
20.1617
19.9994
20.1623
19.9996
20.1156
19.9828
20.1163
19.9832
20.0451
20.0842
20.0454
20.0847
20.0663
20.1008
20.0674
20.1017
20.0979
20.0979
20.0985
20.0985
20.1017
20.1017
20.1026
20.1026
20.0842
20.0451
20.0847
20.0454
20.1008
20.0662
20.1017
20.0674
19.9994
20.1617
19.9996
20.1622
19.9827
20.1158
19.9832
20.1164
20.1613
19.999
20.1614
19.9991
20.1149
19.982
20.1152
19.9823
20.045
20.0835
20.0451
20.0839
20.0649
20.0992
20.0653
20.1
20.0969
20.0969
20.0974
20.0974
20.1
20.1
20.1008
20.1008
20.0835
20.045
20.0839
20.0451
20.0993
20.065
20.1
20.0653
19.999
20.1613
19.9991
20.1615
19.9821
20.1148
19.9823
20.1153
20.1608
19.9992
20.1611
19.999
20.114
19.982
20.1144
19.982
20.0448
20.0831
20.0448
20.0833
20.0657
20.0981
20.0654
20.0986
20.0962
20.0962
20.0965
20.0965
20.0984
20.0985
20.0992
20.0992
20.0831
20.0448
20.0833
20.0448
20.0981
20.0657
20.0986
20.0654
19.9992
20.1608
19.999
20.161
19.9819
20.1143
19.9819
20.1145
20.161
19.9999
20.1608
19.9995
20.114
19.9823
20.114
19.982
20.0454
20.0831
20.045
20.083
20.0661
20.0972
20.0659
20.0976
20.0959
20.0959
20.096
20.096
20.0973
20.0973
20.0978
20.0978
20.0831
20.0454
20.083
20.045
20.0972
20.0661
20.0976
20.0659
19.9999
20.161
19.9995
20.1608
19.9824
20.1139
19.982
20.1141
20.1615
20.0014
20.1612
20.0005
20.114
19.9835
20.114
19.9828
20.0465
20.0836
20.0458
20.0833
20.0668
20.0967
20.0664
20.0969
20.096
20.096
20.0959
20.0959
20.0966
20.0966
20.0969
20.0969
20.0836
20.0465
20.0833
20.0459
20.0967
20.0668
20.0969
20.0664
20.0014
20.1615
20.0005
20.1612
19.9835
20.1141
19.9828
20.1139
20.1627
20.0036
20.162
20.0024
20.1149
19.9851
20.1144
19.9842
20.0482
20.0846
20.0473
20.084
20.0678
20.0968
20.0672
20.0967
20.0966
20.0966
20.0962
20.0962
20.0964
20.0964
20.0964
20.0964
20.0846
20.0482
20.084
20.0473
20.0968
20.0678
20.0967
20.0672
20.0036
20.1626
20.0024
20.162
19.9851
20.1149
19.9842
20.1144
20.1643
20.0065
20.1634
20.0049
20.1163
19.9872
20.1155
19.9861
20.0504
20.0861
20.0492
20.0853
20.0693
20.0973
20.0685
20.097
20.0978
20.0978
20.0971
20.0971
20.0968
20.0968
20.0965
20.0965
20.0861
20.0505
20.0853
20.0493
20.0973
20.0693
20.097
20.0685
20.0066
20.1642
20.0049
20.1634
19.9872
20.1163
19.9861
20.1155
20.1664
20.0109
20.1653
20.0085
20.1183
19.9895
20.1172
19.9883
20.0533
20.0881
20.0518
20.0871
20.0714
20.0984
20.0703
20.0978
20.0995
20.0995
20.0986
20.0986
20.0977
20.0977
20.0972
20.0972
20.0881
20.0533
20.0871
20.0518
20.0984
20.0714
20.0978
20.0703
20.0109
20.1664
20.0085
20.1652
19.9895
20.1183
19.9884
20.1172
20.169
20.0137
20.1676
20.0123
20.121
19.9939
20.1196
19.9915
20.0565
20.0907
20.0548
20.0894
20.074
20.1001
20.0726
20.0992
20.1017
20.1017
20.1005
20.1005
20.0993
20.0993
20.0984
20.0984
20.0907
20.0565
20.0894
20.0548
20.1001
20.074
20.0992
20.0726
20.0137
20.1689
20.0123
20.1676
19.9939
20.121
19.9916
20.1196
20.1719
20.0174
20.1704
20.0154
20.1243
19.9987
20.1226
19.9963
20.0603
20.0938
20.0583
20.0922
20.077
20.1022
20.0754
20.1011
20.1045
20.1045
20.1031
20.1031
20.1016
20.1016
20.1004
20.1004
20.0938
20.0603
20.0922
20.0583
20.1022
20.077
20.1011
20.0754
20.0174
20.1719
20.0154
20.1704
19.9987
20.1243
19.9963
20.1226
20.1752
20.0219
20.1735
20.0195
20.1282
20.0038
20.1262
20.0012
20.0644
20.0973
20.0623
20.0955
20.0805
20.105
20.0787
20.1035
20.1078
20.1078
20.1061
20.1061
20.1044
20.1044
20.1029
20.1029
20.0973
20.0644
20.0955
20.0623
20.105
20.0805
20.1035
20.0787
20.0219
20.1751
20.0195
20.1735
20.0039
20.1282
20.0012
20.1262
20.1784
20.0269
20.1768
20.0243
20.1326
20.0094
20.1304
20.0066
20.0689
20.1012
20.0666
20.0992
20.0844
20.1081
20.0824
20.1065
20.1116
20.1116
20.1096
20.1096
20.1079
20.1079
20.1061
20.1061
20.1012
20.0689
20.0992
20.0666
20.1081
20.0844
20.1065
20.0824
20.0268
20.1783
20.0243
20.1768
20.0094
20.1326
20.0066
20.1304
20.181
20.0324
20.1798
20.0295
20.1371
20.0155
20.1349
20.0124
20.0738
20.1053
20.0713
20.1032
20.0885
20.1117
20.0864
20.1099
20.1157
20.1157
20.1136
20.1136
20.1119
20.1119
20.1098
20.1098
20.1053
20.0738
20.1032
20.0713
20.1117
20.0885
20.1099
20.0864
20.0324
20.181
20.0295
20.1798
20.0155
20.1371
20.0124
20.1349
20.1819
20.0394
20.1818
20.0356
20.1411
20.0225
20.1393
20.0189
20.079
20.1097
20.0764
20.1075
20.0928
20.1156
20.0906
20.1137
20.1203
20.1203
20.1179
20.1179
20.1165
20.1165
20.1141
20.1141
20.1097
20.079
20.1075
20.0764
20.1156
20.0928
20.1137
20.0906
20.0394
20.1819
20.0356
20.1818
20.0225
20.141
20.0189
20.1392
20.1752
20.0523
20.1804
20.0443
20.1401
20.0336
20.1419
20.027
20.0846
20.1141
20.0817
20.1118
20.0973
20.1199
20.095
20.1177
20.1253
20.1253
20.1227
20.1227
20.1217
20.1217
20.119
20.119
20.1141
20.0846
20.1118
20.0817
20.1199
20.0973
20.1177
20.0949
20.0523
20.1751
20.0443
20.1803
20.0336
20.1401
20.027
20.1419
20.1898
20.0461
20.1691
20.0615
20.1535
20.0311
20.1371
20.0414
20.0859
20.1196
20.0871
20.1166
20.1001
20.1253
20.0997
20.1225
20.131
20.131
20.1281
20.1281
20.1275
20.1275
20.1245
20.1245
20.1196
20.0859
20.1166
20.0871
20.1253
20.1001
20.1225
20.0997
20.0461
20.1898
20.0615
20.1691
20.0311
20.1534
20.0414
20.1371
20.2951
20.0083
20.2281
20.0284
20.2844
20.0054
20.2193
20.028
20.0393
20.0789
20.0621
20.0898
20.0463
20.0843
20.0669
20.0929
20.0972
20.0972
20.1005
20.1005
20.0991
20.0991
20.1008
20.1008
20.079
20.0393
20.0898
20.0621
20.0843
20.0463
20.0929
20.067
20.0083
20.295
20.0284
20.228
20.0054
20.2843
20.028
20.2192
20.2246
20.083
20.2476
20.0604
20.2259
20.0698
20.2454
20.0504
20.0541
20.0718
20.0487
20.075
20.0564
20.0773
20.0525
20.0804
20.0864
20.0864
20.0918
20.0919
20.0912
20.0912
20.0955
20.0955
20.0718
20.0541
20.0751
20.0487
20.0773
20.0564
20.0805
20.0525
20.083
20.2245
20.0604
20.2475
20.0698
20.2258
20.0504
20.2453
20.2089
20.0947
20.2148
20.0916
20.2122
20.0791
20.2175
20.0769
20.0621
20.0708
20.0586
20.0709
20.0627
20.0763
20.06
20.0764
20.0802
20.0802
20.0826
20.0826
20.0863
20.0863
20.0882
20.0882
20.0708
20.0621
20.0709
20.0586
20.0764
20.0627
20.0764
20.06
20.0947
20.2089
20.0916
20.2148
20.0791
20.2121
20.0769
20.2174
20.2018
20.0949
20.2049
20.0954
20.2053
20.078
20.2083
20.0791
20.0654
20.0714
20.0642
20.071
20.0653
20.0774
20.0644
20.0768
20.0784
20.0784
20.0789
20.0789
20.0852
20.0852
20.0854
20.0854
20.0715
20.0654
20.071
20.0642
20.0774
20.0653
20.0768
20.0644
20.0949
20.2017
20.0954
20.2048
20.078
20.2053
20.0791
20.2083
20.1972
20.0925
20.1993
20.0939
20.2009
20.0744
20.2029
20.0763
20.0659
20.0725
20.0658
20.0719
20.0655
20.0788
20.0656
20.0781
20.079
20.0791
20.0785
20.0786
20.0865
20.0865
20.0856
20.0856
20.0725
20.0659
20.072
20.0658
20.0788
20.0655
20.0781
20.0656
20.0925
20.1972
20.0939
20.1993
20.0744
20.2009
20.0763
20.2029
20.1939
20.0893
20.1955
20.0909
20.1976
20.0703
20.1992
20.0723
20.0652
20.0735
20.0656
20.073
20.0647
20.0803
20.0652
20.0796
20.0807
20.0807
20.0798
20.0798
20.0887
20.0887
20.0875
20.0875
20.0735
20.0652
20.073
20.0656
20.0803
20.0648
20.0796
20.0652
20.0893
20.1938
20.0909
20.1954
20.0703
20.1976
20.0723
20.1991
20.1911
20.0861
20.1924
20.0877
20.195
20.0662
20.1962
20.0682
20.0642
20.0742
20.0648
20.0739
20.0635
20.0815
20.0642
20.0809
20.0826
20.0826
20.0817
20.0817
20.0913
20.0913
20.09
20.09
20.0742
20.0643
20.0739
20.0648
20.0815
20.0635
20.0809
20.0642
20.0861
20.1911
20.0877
20.1924
20.0663
20.1949
20.0682
20.1962
20.1888
20.0831
20.1899
20.0846
20.1928
20.0625
20.1938
20.0643
20.0631
20.0747
20.0637
20.0745
20.0621
20.0825
20.0628
20.082
20.0844
20.0844
20.0836
20.0836
20.0936
20.0936
20.0925
20.0925
20.0747
20.0631
20.0745
20.0637
20.0825
20.0621
20.082
20.0628
20.0831
20.1888
20.0846
20.1899
20.0625
20.1928
20.0643
20.1938
20.1868
20.0802
20.1878
20.0816
20.1909
20.0591
20.1918
20.0607
20.0618
20.075
20.0624
20.0749
20.0606
20.0832
20.0613
20.0829
20.0859
20.0859
20.0852
20.0852
20.0956
20.0956
20.0947
20.0947
20.0751
20.0618
20.0749
20.0624
20.0832
20.0606
20.0829
20.0613
20.0802
20.1868
20.0816
20.1878
20.0591
20.1909
20.0608
20.1918
20.1851
20.0775
20.1859
20.0788
20.1892
20.056
20.19
20.0575
20.0604
20.0751
20.0611
20.0751
20.059
20.0835
20.0598
20.0834
20.087
20.087
20.0865
20.0865
20.0971
20.0971
20.0964
20.0964
20.0751
20.0604
20.0751
20.0611
20.0835
20.059
20.0834
20.0598
20.0776
20.1851
20.0789
20.1859
20.056
20.1892
20.0575
20.19
20.1834
20.0751
20.1842
20.0763
20.1875
20.0531
20.1883
20.0545
20.059
20.0749
20.0597
20.0751
20.0575
20.0836
20.0582
20.0836
20.0877
20.0877
20.0874
20.0874
20.0982
20.0982
20.0977
20.0977
20.075
20.059
20.0751
20.0597
20.0836
20.0575
20.0836
20.0583
20.0751
20.1834
20.0763
20.1842
20.0531
20.1875
20.0545
20.1883
20.1819
20.0727
20.1827
20.0738
20.186
20.0504
20.1868
20.0517
20.0575
20.0745
20.0583
20.0748
20.0558
20.0833
20.0566
20.0835
20.0881
20.0881
20.0879
20.0879
20.0988
20.0988
20.0986
20.0986
20.0745
20.0575
20.0748
20.0583
20.0833
20.0559
20.0835
20.0567
20.0727
20.1819
20.0739
20.1827
20.0504
20.186
20.0517
20.1868
20.1804
20.0705
20.1811
20.0716
20.1845
20.0479
20.1852
20.0491
20.056
20.0739
20.0568
20.0742
20.0542
20.0828
20.055
20.0831
20.0881
20.0881
20.0881
20.0881
20.099
20.099
20.099
20.099
20.0739
20.056
20.0743
20.0568
20.0828
20.0542
20.0831
20.055
20.0705
20.1804
20.0716
20.1811
20.0479
20.1845
20.0492
20.1852
20.1789
20.0684
20.1796
20.0694
20.1829
20.0455
20.1837
20.0467
20.0544
20.0731
20.0552
20.0735
20.0525
20.0821
20.0534
20.0825
20.0878
20.0878
20.088
20.088
20.0989
20.0989
20.099
20.099
20.0731
20.0544
20.0735
20.0552
20.0821
20.0526
20.0825
20.0534
20.0684
20.1789
20.0695
20.1796
20.0455
20.1829
20.0467
20.1837
20.1774
20.0664
20.1782
20.0674
20.1814
20.0432
20.1822
20.0443
20.0528
20.0721
20.0536
20.0726
20.0509
20.0812
20.0517
20.0817
20.0873
20.0873
20.0876
20.0876
20.0984
20.0984
20.0987
20.0987
20.0721
20.0528
20.0726
20.0536
20.0812
20.0509
20.0817
20.0517
20.0664
20.1774
20.0674