/*--------------------------------*- C++ -*----------------------------------*\
  =========                 |
  \\      /  F ield         | OpenFOAM: The Open Source CFD Toolbox
   \\    /   O peration     | Website:  https://openfoam.org
    \\  /    A nd           | Version:  9
     \\/     M anipulation  |
\*---------------------------------------------------------------------------*/
FoamFile
{
    format      ascii;
    class       surfaceScalarField;
    location    "3";
    object      phi;
}
// * * * * * * * * * * * * * * * * * * * * * * * * * * * * * * * * * * * * * //

dimensions      [0 3 -1 0 0 0 0];

internalField   nonuniform List<scalar> 
104044
(
5.65567e-06
-0.000149951
-1.65856e-05
0.000140874
2.00068e-05
-9.15183e-05
1.25934e-05
-1.93209e-06
9.96362e-05
-1.31235e-05
4.33296e-06
-2.27796e-05
2.21647e-05
1.58162e-05
-1.65004e-06
-1.45496e-05
-2.86013e-06
-0.000187684
0.000173959
-6.64031e-05
1.40768e-06
7.47287e-05
-1.93247e-06
8.47553e-07
-3.32733e-07
-9.99221e-05
-4.84888e-06
0.000100121
3.05034e-06
-0.000103797
-4.7189e-06
-3.23799e-08
0.000103426
4.78996e-06
-2.3012e-07
-4.40375e-06
1.82963e-06
-4.69403e-06
-7.85902e-09
3.86215e-06
7.92525e-08
-9.00389e-05
8.65184e-05
-0.000106535
-1.07458e-08
0.000101906
-1.83894e-08
-3.08689e-08
-7.79925e-12
-0.00010559
-4.2375e-06
0.000105271
4.52364e-06
-0.00010559
-4.23767e-06
3.23375e-08
0.000105271
4.52377e-06
1.94746e-11
-4.22239e-06
3.72923e-06
-4.2223e-06
7.8679e-09
3.72924e-06
-2.34747e-11
-0.000111848
0.000107599
-0.000111849
1.07087e-08
0.000107601
-1.65761e-11
3.08068e-08
3.32633e-07
-0.000103797
-4.71964e-06
0.000103426
4.7906e-06
-9.9921e-05
-4.85076e-06
1.93163e-06
0.00010012
3.05295e-06
2.29991e-07
-4.69403e-06
3.86251e-06
-4.40519e-06
1.6494e-06
1.83205e-06
-7.90386e-08
-0.00010654
0.00010191
-9.00454e-05
-1.40674e-06
8.65223e-05
1.848e-08
-8.46794e-07
-5.65392e-06
-9.15131e-05
1.25862e-05
9.96297e-05
-1.31173e-05
-0.000149946
-1.65787e-05
0.000140873
1.99982e-05
-4.33078e-06
1.58085e-05
-1.4544e-05
-2.27687e-05
2.21549e-05
2.85728e-06
-6.63996e-05
7.47218e-05
-0.000187677
0.000173955
1.93046e-06
1.98845e-06
-0.000134136
-1.87252e-05
0.000129226
2.16468e-05
-0.000103778
1.70872e-05
-8.08617e-07
0.000105759
-1.62717e-05
3.45861e-06
-1.7802e-05
2.10814e-05
1.51502e-05
-1.12352e-06
-1.47094e-05
-7.68877e-06
-0.000161399
0.000150362
-8.22637e-05
3.07477e-06
8.85873e-05
-5.24231e-06
2.37292e-06
1.17159e-07
-0.000100659
-1.77629e-06
0.000101445
6.50285e-08
-0.000102939
-2.98457e-06
2.41693e-08
0.000102517
3.50028e-06
-1.22274e-07
-3.2271e-06
1.68784e-06
-4.00259e-06
-1.69498e-08
4.38372e-06
6.13354e-07
-8.53088e-05
8.59939e-05
-9.82372e-05
7.62584e-08
9.57897e-05
3.55407e-07
2.1778e-08
-1.29488e-11
-0.000104654
-2.96614e-06
0.000103908
3.7365e-06
-0.000104654
-2.96637e-06
-2.4138e-08
0.000103908
3.73677e-06
-2.1301e-11
-3.76301e-06
4.36341e-06
-3.76328e-06
1.69308e-08
4.36366e-06
-9.03458e-12
-0.000103858
0.000100968
-0.000103859
-7.62017e-08
0.000100969
-2.25184e-11
-2.17742e-08
-1.16932e-07
-0.000102939
-2.98546e-06
0.000102516
3.50133e-06
-0.000100657
-1.77797e-06
8.08436e-07
0.000101442
6.76775e-08
1.2239e-07
-4.00353e-06
4.38461e-06
-3.22938e-06
1.12338e-06
1.6909e-06
-6.12978e-07
-9.82401e-05
9.57914e-05
-8.53097e-05
-3.07373e-06
8.59925e-05
-3.54984e-07
-2.37179e-06
-1.98893e-06
-0.000103772
1.70815e-05
0.000105754
-1.62664e-05
-0.000134136
-1.8719e-05
0.000129226
2.164e-05
-3.4585e-06
1.51434e-05
-1.47035e-05
-1.77962e-05
2.10746e-05
7.68444e-06
-8.22549e-05
8.85782e-05
-0.000161398
0.000150363
5.23853e-06
1.89543e-07
-0.000125403
-1.8111e-05
0.000122336
2.09887e-05
-0.000106775
1.80747e-05
-9.0349e-07
0.00010734
-1.75459e-05
9.5068e-07
-1.83184e-05
2.11898e-05
1.75497e-05
-7.52417e-07
-1.68629e-05
-1.11403e-05
-0.000141571
0.0001346
-9.31725e-05
3.66251e-06
9.64444e-05
-9.52704e-06
3.43752e-06
5.53407e-07
-0.000102118
-7.61282e-07
0.000102724
-1.30167e-06
-0.000102261
-1.38432e-06
1.68635e-07
0.000102206
1.82327e-06
3.24868e-07
-1.01895e-06
-7.31558e-07
-2.03732e-06
8.68333e-08
2.53141e-06
1.03557e-06
-8.75842e-05
8.94499e-05
-9.44263e-05
2.32618e-07
9.3845e-05
8.28292e-07
1.54344e-07
1.7771e-11
-0.000103264
-1.64742e-06
0.000102808
2.27264e-06
-0.000103264
-1.64758e-06
-1.68522e-07
0.000102807
2.27285e-06
-2.74627e-13
-2.19782e-06
2.9283e-06
-2.19801e-06
-8.67632e-08
2.92855e-06
3.30055e-11
-9.89249e-05
9.75101e-05
-9.89254e-05
-2.32449e-07
9.75103e-05
5.22355e-12
-1.54236e-07
-5.53162e-07
-0.00010226
-1.3849e-06
0.000102205
1.82402e-06
-0.000102115
-7.62032e-07
9.02941e-07
0.000102721
-1.29997e-06
-3.24597e-07
-2.03807e-06
2.53235e-06
-1.02005e-06
7.51974e-07
-7.29608e-07
-1.0351e-06
-9.4427e-05
9.38447e-05
-8.75813e-05
-3.66187e-06
8.9446e-05
-8.27867e-07
-3.43667e-06
-1.90318e-07
-0.000106771
1.80705e-05
0.000107336
-1.7542e-05
-0.000125404
-1.8106e-05
0.000122337
2.0983e-05
-9.51385e-07
1.75448e-05
-1.68584e-05
-1.83135e-05
2.11839e-05
1.11359e-05
-9.31638e-05
9.64365e-05
-0.000141572
0.000134602
9.52263e-06
-8.24403e-07
-0.000119921
-1.75057e-05
0.000117981
2.02694e-05
-0.000107648
1.85102e-05
-1.26922e-06
0.000107818
-1.82356e-05
-3.86531e-07
-1.75764e-05
2.03786e-05
1.81222e-05
-1.06902e-06
-1.77483e-05
-1.32325e-05
-0.000129218
0.000124944
-9.86945e-05
3.69055e-06
0.000100282
-1.21936e-05
3.67853e-06
7.95892e-07
-0.000103272
-6.24093e-07
0.000103775
-1.94435e-06
-0.000102308
-7.10134e-07
3.7788e-07
0.000102515
9.21328e-07
6.95019e-07
-6.43779e-07
-1.66774e-06
-9.48881e-07
2.58614e-07
1.28325e-06
1.34599e-06
-9.12913e-05
9.30117e-05
-9.37917e-05
3.62634e-07
9.40649e-05
1.19336e-06
2.97786e-07
4.3865e-11
-0.000102558
-8.62606e-07
0.000102496
1.30252e-06
-0.000102557
-8.62739e-07
-3.77672e-07
0.000102495
1.30261e-06
3.14842e-11
-1.19693e-06
1.70544e-06
-1.19708e-06
-2.58448e-07
1.70559e-06
4.53803e-11
-9.66109e-05
9.61109e-05
-9.66109e-05
-3.62464e-07
9.61107e-05
2.85126e-11
-2.97646e-07
-7.9575e-07
-0.000102307
-7.10355e-07
0.000102514
9.21742e-07
-0.000103269
-6.24475e-07
1.26852e-06
0.000103772
-1.94318e-06
-6.94823e-07
-9.49264e-07
1.28381e-06
-6.44326e-07
1.06839e-06
-1.66635e-06
-1.34553e-06
-9.37907e-05
9.40634e-05
-9.12869e-05
-3.69028e-06
9.30071e-05
-1.19291e-06
-3.6781e-06
8.23653e-07
-0.000107645
1.85068e-05
0.000107815
-1.82325e-05
-0.000119921
-1.75015e-05
0.000117982
2.02645e-05
3.85744e-07
1.81184e-05
-1.77447e-05
-1.75723e-05
2.03736e-05
1.32285e-05
-9.86874e-05
0.000100275
-0.000129219
0.000124946
1.21894e-05
-1.39528e-06
-0.000116443
-1.71662e-05
0.000115202
1.9802e-05
-0.000107919
1.87946e-05
-1.62789e-06
0.000107984
-1.86273e-05
-1.13861e-06
-1.71303e-05
1.98075e-05
1.84754e-05
-1.43987e-06
-1.82745e-05
-1.44718e-05
-0.00012161
0.000118915
-0.000101378
3.52768e-06
0.000102173
-1.37955e-05
3.58399e-06
8.5381e-07
-0.000104233
-6.58966e-07
0.000104658
-2.24734e-06
-0.0001028
-4.85656e-07
5.29046e-07
0.000103141
4.6902e-07
8.34102e-07
-6.32457e-07
-2.09956e-06
-5.61649e-07
4.60613e-07
6.50537e-07
1.54051e-06
-9.4521e-05
9.58492e-05
-9.45336e-05
4.60131e-07
9.51283e-05
1.44227e-06
4.11861e-07
5.77739e-11
-0.000102578
-4.09627e-07
0.00010277
7.46244e-07
-0.000102577
-4.09691e-07
-5.2885e-07
0.000102769
7.46254e-07
5.151e-11
-5.96198e-07
9.74886e-07
-5.96298e-07
-4.60411e-07
9.74934e-07
5.54302e-11
-9.59265e-05
9.5977e-05
-9.59261e-05
-4.59956e-07
9.59764e-05
5.12709e-11
-4.11688e-07
-8.53786e-07
-0.000102798
-4.85657e-07
0.00010314
4.69205e-07
-0.00010423
-6.59182e-07
1.62715e-06
0.000104655
-2.2465e-06
-8.34022e-07
-5.61758e-07
6.50828e-07
-6.3274e-07
1.43914e-06
-2.09859e-06
-1.5401e-06
-9.45318e-05
9.51263e-05
-9.45164e-05
-3.52762e-06
9.58447e-05
-1.44184e-06
-3.58384e-06
1.39461e-06
-0.000107916
1.87916e-05
0.000107982
-1.86247e-05
-0.000116443
-1.71626e-05
0.000115203
1.97979e-05
1.1379e-06
1.84722e-05
-1.82717e-05
-1.71268e-05
1.98032e-05
1.44682e-05
-0.000101372
0.000102168
-0.000121611
0.000118917
1.37918e-05
-1.72291e-06
-0.000114212
-1.6948e-05
0.000113417
1.94666e-05
-0.000108042
1.89504e-05
-1.91854e-06
0.000108102
-1.88149e-05
-1.5656e-06
-1.68689e-05
1.94245e-05
1.86895e-05
-1.76427e-06
-1.8549e-05
-1.51894e-05
-0.000116779
0.00011502
-0.000102737
3.32521e-06
0.000103173
-1.47323e-05
3.39267e-06
8.06728e-07
-0.000105051
-6.94107e-07
0.000105422
-2.40261e-06
-0.000103514
-4.28767e-07
6.02714e-07
0.000103911
2.35652e-07
8.30767e-07
-6.73871e-07
-2.31459e-06
-4.41057e-07
5.67663e-07
3.31502e-07
1.63917e-06
-9.69838e-05
9.79758e-05
-9.57811e-05
5.21867e-07
9.64697e-05
1.58415e-06
4.9029e-07
6.37599e-11
-0.000103041
-1.69121e-07
0.000103374
4.39208e-07
-0.000103041
-1.69125e-07
-6.02551e-07
0.000103373
4.39171e-07
6.06502e-11
-2.68046e-07
5.64298e-07
-2.68077e-07
-5.67483e-07
5.64281e-07
5.52807e-11
-9.61992e-05
9.65518e-05
-9.61985e-05
-5.21704e-07
9.65512e-05
5.55942e-11
-4.90121e-07
-8.068e-07
-0.000103512
-4.28635e-07
0.000103909
2.35702e-07
-0.000105049
-6.94257e-07
1.91782e-06
0.00010542
-2.40198e-06
-8.30794e-07
-4.40984e-07
3.3161e-07
-6.74051e-07
1.76354e-06
-2.31387e-06
-1.63882e-06
-9.5779e-05
9.64674e-05
-9.69796e-05
-3.32526e-06
9.79717e-05
-1.58378e-06
-3.39267e-06
1.72232e-06
-0.00010804
1.89478e-05
0.0001081
-1.88126e-05
-0.000114213
-1.69448e-05
0.000113417
1.9463e-05
1.56497e-06
1.86867e-05
-1.85466e-05
-1.68659e-05
1.94209e-05
1.51862e-05
-0.000102733
0.000103169
-0.00011678
0.000115021
1.47291e-05
-1.91249e-06
-0.000112783
-1.6756e-05
0.000112281
1.91702e-05
-0.000108178
1.89992e-05
-2.13512e-06
0.000108267
-1.88654e-05
-1.81316e-06
-1.66784e-05
1.91253e-05
1.87957e-05
-2.0147e-06
-1.86696e-05
-1.55815e-05
-0.00011361
0.000112436
-0.000103505
3.13222e-06
0.00010379
-1.52688e-05
3.1952e-06
7.10345e-07
-0.000105774
-7.03336e-07
0.000106115
-2.48269e-06
-0.000104316
-4.33148e-07
6.25667e-07
0.000104729
1.04523e-07
7.54931e-07
-6.98011e-07
-2.42345e-06
-4.23482e-07
6.12868e-07
1.60957e-07
1.66994e-06
-9.88276e-05
9.95865e-05
-9.7156e-05
5.52838e-07
9.784e-05
1.64535e-06
5.35488e-07
6.65978e-11
-0.000103743
-5.07808e-08
0.000104145
2.75103e-07
-0.000103743
-5.07495e-08
-6.25539e-07
0.000104144
2.75047e-07
6.41854e-11
-9.8008e-08
3.41274e-07
-9.79911e-08
-6.12727e-07
3.41226e-07
6.03217e-11
-9.69893e-05
9.74913e-05
-9.69886e-05
-5.52683e-07
9.74905e-05
5.49011e-11
-5.35334e-07
-7.10496e-07
-0.000104314
-4.32945e-07
0.000104728
1.045e-07
-0.000105772
-7.03483e-07
2.13443e-06
0.000106113
-2.48216e-06
-7.55043e-07
-4.23312e-07
1.60966e-07
-6.98157e-07
2.014e-06
-2.42289e-06
-1.66965e-06
-9.71538e-05
9.78378e-05
-9.88238e-05
-3.13235e-06
9.9583e-05
-1.64503e-06
-3.19528e-06
1.91198e-06
-0.000108176
1.89969e-05
0.000108265
-1.88634e-05
-0.000112783
-1.67533e-05
0.000112281
1.91671e-05
1.81262e-06
1.87933e-05
-1.86675e-05
-1.66759e-05
1.91223e-05
1.55788e-05
-0.000103501
0.000103787
-0.000113611
0.000112437
1.52659e-05
-2.0203e-06
-0.000111886
-1.65607e-05
0.000111585
1.88823e-05
-0.000108375
1.8958e-05
-2.28776e-06
0.000108498
-1.88133e-05
-1.95488e-06
-1.64852e-05
1.88348e-05
1.8793e-05
-2.19627e-06
-1.86603e-05
-1.57677e-05
-0.000111492
0.000110699
-0.000104028
2.962e-06
0.000104256
-1.55413e-05
3.01413e-06
6.13083e-07
-0.000106449
-6.89657e-07
0.000106774
-2.5369e-06
-0.000105139
-4.48813e-07
6.21058e-07
0.000105551
2.88724e-08
6.47396e-07
-6.91432e-07
-2.48621e-06
-4.3765e-07
6.18872e-07
5.61442e-08
1.65714e-06
-0.000100258
0.000100873
-9.85002e-05
5.61255e-07
9.91472e-05
1.65169e-06
5.53875e-07
7.75611e-11
-0.00010456
6.63006e-09
0.00010499
1.85103e-07
-0.00010456
6.67936e-09
-6.20907e-07
0.000104989
1.85033e-07
7.22361e-11
-1.86571e-08
2.2172e-07
-1.86092e-08
-6.18748e-07
2.21659e-07
8.11961e-11
-9.80264e-05
9.85942e-05
-9.80257e-05
-5.61057e-07
9.85935e-05
7.08491e-11
-5.53707e-07
-6.13141e-07
-0.000105138
-4.48616e-07
0.00010555
2.88089e-08
-0.000106447
-6.89751e-07
2.28713e-06
0.000106773
-2.53645e-06
-6.47583e-07
-4.37433e-07
5.61057e-08
-6.91584e-07
2.1956e-06
-2.48573e-06
-1.65684e-06
-9.84981e-05
9.91453e-05
-0.000100254
-2.96211e-06
0.00010087
-1.65142e-06
-3.01428e-06
2.01976e-06
-0.000108374
1.8956e-05
0.000108497
-1.88116e-05
-0.000111886
-1.65585e-05
0.000111585
1.88797e-05
1.95437e-06
1.87908e-05
-1.86585e-05
-1.6483e-05
1.88322e-05
1.5765e-05
-0.000104025
0.000104254
-0.000111492
0.000110699
1.55387e-05
-2.07731e-06
-0.000111355
-1.63411e-05
0.000111195
1.85788e-05
-0.000108639
1.88354e-05
-2.38774e-06
0.000108793
-1.86793e-05
-2.03278e-06
-1.62745e-05
1.85369e-05
1.87027e-05
-2.31774e-06
-1.85588e-05
-1.58077e-05
-0.000110067
0.000109533
-0.00010446
2.81411e-06
0.000104674
-1.56423e-05
2.85604e-06
5.44718e-07
-0.000107093
-6.74245e-07
0.00010741
-2.5745e-06
-0.000105958
-4.537e-07
6.04197e-07
0.000106365
-1.31352e-08
5.72437e-07
-6.7794e-07
-2.5311e-06
-4.4782e-07
6.07211e-07
6.17584e-09
1.617e-06
-0.000101428
0.000101951
-9.97685e-05
5.54771e-07
0.000100377
1.62287e-06
5.53806e-07
1.6448e-11
-0.00010542
3.47574e-08
0.000105856
1.33458e-07
-0.00010542
3.48066e-08
-6.0415e-07
0.000105856
1.33396e-07
6.52329e-11
2.19521e-08
1.54374e-07
2.19982e-08
-6.0707e-07
1.54304e-07
-7.68368e-11
-9.91699e-05
9.97595e-05
-9.91692e-05
-5.54871e-07
9.97588e-05
5.08082e-11
-5.53635e-07
-5.44741e-07
-0.000105957
-4.53576e-07
0.000106364
-1.31916e-08
-0.000107092
-6.74197e-07
2.38736e-06
0.000107408
-2.57419e-06
-5.72457e-07
-4.47628e-07
6.1021e-09
-6.77986e-07
2.31722e-06
-2.5307e-06
-1.6169e-06
-9.97665e-05
0.000100375
-0.000101425
-2.81388e-06
0.000101948
-1.62248e-06
-2.85588e-06
2.07697e-06
-0.000108638
1.88363e-05
0.000108792
-1.86803e-05
-0.000111355
-1.63412e-05
0.000111195
1.85786e-05
2.0322e-06
1.8701e-05
-1.85573e-05
-1.6273e-05
1.85346e-05
1.58087e-05
-0.000104459
0.000104673
-0.000110066
0.000109533
1.56398e-05
-2.10101e-06
-0.000111084
-1.60813e-05
0.000111024
1.82414e-05
-0.000108964
1.86388e-05
-2.44953e-06
0.000109147
-1.84727e-05
-2.07123e-06
-1.60406e-05
1.82232e-05
1.85459e-05
-2.3968e-06
-1.83914e-05
-1.57376e-05
-0.000109118
0.000108774
-0.000104876
2.68313e-06
0.000105094
-1.56251e-05
2.71895e-06
4.82553e-07
-0.000107724
-6.52363e-07
0.000108037
-2.59327e-06
-0.000106765
-4.53433e-07
5.79595e-07
0.000107163
-4.24009e-08
5.07468e-07
-6.58888e-07
-2.55948e-06
-4.49842e-07
5.86247e-07
-2.85377e-08
1.5635e-06
-0.000102436
0.000102903
-0.00010096
5.39861e-07
0.00010153
1.57533e-06
5.42532e-07
-1.33078e-10
-0.000106287
4.38443e-08
0.000106719
1.03616e-07
-0.000106286
4.38061e-08
-5.79919e-07
0.000106719
1.03608e-07
-6.04817e-11
4.03716e-08
1.15396e-07
4.03815e-08
-5.86356e-07
1.1536e-07
-3.63441e-10
-0.000100343
0.000100927
-0.000100342
-5.40841e-07
0.000100926
-2.17712e-10
-5.42954e-07
-4.83017e-07
-0.000106764
-4.53656e-07
0.000107163
-4.23187e-08
-0.000107722
-6.52596e-07
2.44876e-06
0.000108036
-2.59307e-06
-5.07588e-07
-4.49849e-07
-2.85249e-08
-6.58863e-07
2.39651e-06
-2.55922e-06
-1.56538e-06
-0.000100958
0.000101529
-0.000102432
-2.6864e-06
0.000102901
-1.57566e-06
-2.71866e-06
2.10125e-06
-0.000108963
1.86438e-05
0.000109146
-1.8479e-05
-0.000111083
-1.6087e-05
0.000111024
1.82473e-05
2.07132e-06
1.85488e-05
-1.83943e-05
-1.60421e-05
1.82251e-05
1.5738e-05
-0.000104872
0.000105092
-0.000109122
0.000108773
1.56305e-05
-2.10509e-06
-0.000111
-1.58035e-05
0.000111015
1.78932e-05
-0.000109343
1.83997e-05
-2.48388e-06
0.000109548
-1.82257e-05
-2.08393e-06
-1.57759e-05
1.78844e-05
1.83302e-05
-2.44384e-06
-1.81669e-05
-1.55988e-05
-0.000108517
0.000108312
-0.000105307
2.56946e-06
0.000105538
-1.55185e-05
2.59877e-06
4.29571e-07
-0.00010835
-6.28929e-07
0.000108662
-2.59677e-06
-0.000107554
-4.50116e-07
5.52865e-07
0.000107943
-6.22094e-08
4.50391e-07
-6.36432e-07
-2.57054e-06
-4.47912e-07
5.60469e-07
-5.27322e-08
1.50796e-06
-0.000103344
0.000103777
-0.000102077
5.22033e-07
0.000102613
1.52074e-06
5.26059e-07
6.08664e-11
-0.000107143
4.39055e-08
0.000107565
8.65081e-08
-0.000107143
4.39661e-08
-5.52794e-07
0.000107565
8.64191e-08
-5.18836e-11
4.40161e-08
9.29293e-08
4.40219e-08
-5.60665e-07
9.28932e-08
9.06467e-11
-0.000101497
0.000102063
-0.000101496
-5.21913e-07
0.000102062
-5.9741e-11
-5.26334e-07
-4.29735e-07
-0.000107554
-4.49968e-07
0.000107943
-6.2369e-08
-0.000108349
-6.27957e-07
2.48301e-06
0.000108662
-2.59733e-06
-4.50832e-07
-4.47961e-07
-5.28029e-08
-6.36075e-07
2.44281e-06
-2.57085e-06
-1.50826e-06
-0.000102076
0.000102613
-0.000103344
-2.57009e-06
0.000103778
-1.52184e-06
-2.60137e-06
2.10412e-06
-0.000109343
1.84074e-05
0.000109548
-1.82336e-05
-0.000111
-1.58114e-05
0.000111014
1.79012e-05
2.08371e-06
1.83339e-05
-1.81721e-05
-1.57822e-05
1.78902e-05
1.56057e-05
-0.000105308
0.00010554
-0.000108507
0.000108301
1.55163e-05
-2.09564e-06
-0.000111053
-1.55197e-05
0.00011112
1.75482e-05
-0.000109764
1.81285e-05
-2.4944e-06
0.000109986
-1.7951e-05
-2.08107e-06
-1.54987e-05
1.75424e-05
1.80779e-05
-2.46562e-06
-1.79095e-05
-1.54062e-05
-0.000108167
0.000108053
-0.000105767
2.47466e-06
0.000106015
-1.53535e-05
2.49547e-06
3.8613e-07
-0.000108974
-6.0548e-07
0.000109283
-2.58481e-06
-0.000108322
-4.45843e-07
5.26224e-07
0.000108699
-7.0618e-08
4.02961e-07
-6.12665e-07
-2.56733e-06
-4.43981e-07
5.33791e-07
-6.63117e-08
1.45639e-06
-0.000104193
0.000104606
-0.000103128
5.03781e-07
0.000103635
1.46703e-06
5.07503e-07
3.59153e-10
-0.000107977
3.92527e-08
0.000108385
7.85937e-08
-0.000107976
3.94065e-08
-5.25471e-07
0.000108384
7.84557e-08
2.08791e-10
4.14819e-08
8.06439e-08
4.15658e-08
-5.3333e-07
8.0526e-08
4.98488e-10
-0.000102612
0.000103154
-0.000102611
-5.02353e-07
0.000103154
6.99321e-11
-5.07235e-07
-3.85475e-07
-0.000108322
-4.45399e-07
0.000108698
-7.08477e-08
-0.000108973
-6.05621e-07
2.49421e-06
0.000109283
-2.58374e-06
-4.0276e-07
-4.4379e-07
-6.61476e-08
-6.12478e-07
2.46526e-06
-2.56681e-06
-1.45349e-06
-0.000103128
0.000103633
-0.000104193
-2.46921e-06
0.000104603
-1.46617e-06
-2.49335e-06
2.09226e-06
-0.000109764
1.81301e-05
0.000109985
-1.79492e-05
-0.000111052
-1.55191e-05
0.00011112
1.75438e-05
2.0788e-06
1.80838e-05
-1.79133e-05
-1.55037e-05
1.75446e-05
1.54152e-05
-0.000105767
0.000106013
-0.00010816
0.000108056
1.53629e-05
-2.07662e-06
-0.0001112
-1.52297e-05
0.000111303
1.72035e-05
-0.000110213
1.78328e-05
-2.49091e-06
0.000110441
-1.7647e-05
-2.066e-06
-1.52076e-05
1.71932e-05
1.77911e-05
-2.46789e-06
-1.76164e-05
-1.51904e-05
-0.000107998
0.000107959
-0.000106251
2.38412e-06
0.000106509
-1.51521e-05
2.40268e-06
3.49805e-07
-0.00010959
-5.86115e-07
0.000109893
-2.55749e-06
-0.000109065
-4.41374e-07
5.01585e-07
0.000109425
-7.13114e-08
3.63435e-07
-5.91539e-07
-2.54642e-06
-4.39464e-07
5.08159e-07
-7.09687e-08
1.40453e-06
-0.000105001
0.000105394
-0.000104122
4.84615e-07
0.000104601
1.41592e-06
4.89455e-07
2.84605e-10
-0.00010878
3.13135e-08
0.000109169
8.03489e-08
-0.00010878
3.16679e-08
-5.00987e-07
0.000109169
8.00311e-08
3.74547e-10
3.52177e-08
7.73997e-08
3.54826e-08
-5.07417e-07
7.71752e-08
2.55337e-10
-0.000103678
0.000104194
-0.000103678
-4.83797e-07
0.000104193
5.66634e-10
-4.87922e-07
-3.49218e-07
-0.000109064
-4.4044e-07
0.000109425
-7.20697e-08
-0.00010959
-5.84708e-07
2.49062e-06
0.000109892
-2.55765e-06
-3.62807e-07
-4.38717e-07
-7.15678e-08
-5.90621e-07
2.4673e-06
-2.5463e-06
-1.40259e-06
-0.00010412
0.000104599
-0.000104998
-2.38037e-06
0.000105391
-1.41341e-06
-2.39929e-06
2.07369e-06
-0.000110213
1.78395e-05
0.000110441
-1.76506e-05
-0.0001112
-1.5236e-05
0.000111303
1.72071e-05
2.0625e-06
1.77961e-05
-1.76193e-05
-1.52133e-05
1.71954e-05
1.52045e-05
-0.000106251
0.000106506
-0.000108002
0.00010797
1.51588e-05
-2.04882e-06
-0.000111409
-1.49333e-05
0.00011153
1.6861e-05
-0.000110672
1.75028e-05
-2.47135e-06
0.000110898
-1.73064e-05
-2.04244e-06
-1.49216e-05
1.68583e-05
1.74845e-05
-2.45562e-06
-1.73023e-05
-1.49377e-05
-0.000107954
0.000107958
-0.000106756
2.30455e-06
0.000107017
-1.49166e-05
2.32111e-06
3.20026e-07
-0.000110191
-5.71019e-07
0.000110481
-2.51037e-06
-0.000109774
-4.3829e-07
4.79061e-07
0.000110115
-6.20488e-08
3.30868e-07
-5.73811e-07
-2.51047e-06
-4.35358e-07
4.84845e-07
-6.73441e-08
1.35638e-06
-0.000105775
0.000106152
-0.000105061
4.66971e-07
0.000105512
1.36697e-06
4.70972e-07
8.56692e-11
-0.000109545
1.78253e-08
0.000109912
9.41554e-08
-0.000109544
1.79915e-08
-4.78922e-07
0.000109911
9.39838e-08
2.22145e-10
2.46047e-08
8.47551e-08
2.49645e-08
-4.84349e-07
8.44443e-08
2.30094e-10
-0.000104689
0.000105174
-0.000104689
-4.66352e-07
0.000105173
2.43614e-10
-4.7017e-07
-3.20144e-07
-0.000109773
-4.37892e-07
0.000110115
-6.22725e-08
-0.00011019
-5.69837e-07
2.47043e-06
0.00011048
-2.51121e-06
-3.30525e-07
-4.34536e-07
-6.7741e-08
-5.72623e-07
2.45531e-06
-2.5107e-06
-1.35596e-06
-0.000105059
0.000105511
-0.000105771
-2.30515e-06
0.00010615
-1.36498e-06
-2.31742e-06
2.04738e-06
-0.000110672
1.75045e-05
0.000110899
-1.7309e-05
-0.00011141
-1.49404e-05
0.000111532
1.68652e-05
2.03999e-06
1.7485e-05
-1.73004e-05
-1.49244e-05
1.68572e-05
1.49315e-05
-0.000106752
0.00010702
-0.000107967
0.000107958
1.49209e-05
-2.0161e-06
-0.000111648
-1.46476e-05
0.000111773
1.65387e-05
-0.000111121
1.71574e-05
-2.44189e-06
0.000111335
-1.69454e-05
-2.01165e-06
-1.46269e-05
1.65205e-05
1.71419e-05
-2.43053e-06
-1.6946e-05
-1.46592e-05
-0.000107979
0.00010799
-0.000107266
2.23436e-06
0.00010753
-1.46474e-05
2.24491e-06
2.96496e-07
-0.000110762
-5.63756e-07
0.00011103
-2.44326e-06
-0.000110441
-4.41316e-07
4.58965e-07
0.000110755
-3.48687e-08
3.04386e-07
-5.62054e-07
-2.45386e-06
-4.34435e-07
4.63762e-07
-5.09271e-08
1.31165e-06
-0.000106515
0.000106874
-0.000105944
4.4977e-07
0.000106365
1.31973e-06
4.53347e-07
-2.97368e-10
-0.00011026
-2.93008e-10
0.000110597
1.23289e-07
-0.00011026
-4.04146e-10
-4.59625e-07
0.000110596
1.2337e-07
-1.69465e-10
9.76419e-09
1.05407e-07
9.73593e-09
-4.64165e-07
1.05404e-07
-5.63194e-10
-0.000105637
0.000106087
-0.000105637
-4.51187e-07
0.000106087
-3.22312e-10
-4.54275e-07
-2.97048e-07
-0.000110441
-4.41805e-07
0.000110755
-3.46195e-08
-0.000110761
-5.63385e-07
2.44162e-06
0.000111029
-2.44349e-06
-3.04795e-07
-4.34664e-07
-5.09722e-08
-5.60872e-07
2.42999e-06
-2.45496e-06
-1.31371e-06
-0.000105944
0.000106364
-0.000106515
-2.23417e-06
0.000106872
-1.32196e-06
-2.24746e-06
2.0188e-06
-0.000111121
1.71676e-05
0.000111332
-1.69555e-05
-0.000111649
-1.46538e-05
0.000111774
1.6547e-05
2.01254e-06
1.7156e-05
-1.6961e-05
-1.46395e-05
1.65355e-05
1.46783e-05
-0.000107268
0.000107523
-0.000107979
0.000108003
1.46604e-05
-1.98092e-06
-0.00011189
-1.43465e-05
0.000112001
1.62167e-05
-0.000111534
1.67805e-05
-2.40327e-06
0.000111722
-1.65459e-05
-1.97776e-06
-1.43426e-05
1.62033e-05
1.6794e-05
-2.39818e-06
-1.65727e-05
-1.43783e-05
-0.000108025
0.000108057
-0.000107773
2.16284e-06
0.000108012
-1.43779e-05
2.17312e-06
2.78305e-07
-0.000111283
-5.70294e-07
0.000111519
-2.34718e-06
-0.000111049
-4.55327e-07
4.40751e-07
0.000111325
1.636e-08
2.8366e-07
-5.60593e-07
-2.37434e-06
-4.42299e-07
4.44606e-07
-1.21011e-08
1.26982e-06
-0.00010721
0.000107533
-0.000106762
4.34045e-07
0.000107142
1.27635e-06
4.37257e-07
-2.0624e-10
-0.000110911
-2.86685e-08
0.000111208
1.73044e-07
-0.000110911
-2.88767e-08
-4.41132e-07
0.000111208
1.73089e-07
-2.78843e-10
-1.38024e-08
1.43915e-07
-1.38876e-08
-4.45259e-07
1.4399e-07
-4.85041e-10
-0.000106511
0.000106917
-0.000106511
-4.35501e-07
0.000106917
-4.51165e-10
-4.38428e-07
-2.78697e-07
-0.000111049
-4.55756e-07
0.000111325
1.64467e-08
-0.000111283
-5.70885e-07
2.40291e-06
0.000111519
-2.34714e-06
-2.84426e-07
-4.42735e-07
-1.18979e-08
-5.60378e-07
2.39706e-06
-2.37467e-06
-1.27257e-06
-0.000106762
0.000107143
-0.000107209
-2.16712e-06
0.000107533
-1.27875e-06
-2.17652e-06
1.98198e-06
-0.00011153
1.67778e-05
0.000111719
-1.65457e-05
-0.000111893
-1.4342e-05
0.000112001
1.62161e-05
1.98005e-06
1.67988e-05
-1.65798e-05
-1.43491e-05
1.62103e-05
1.4375e-05
-0.000107769
0.000108004
-0.000108031
0.000108064
1.43773e-05
-1.95022e-06
-0.000112084
-1.40457e-05
0.000112151
1.5929e-05
-0.000111899
1.63836e-05
-2.35929e-06
0.000112054
-1.61294e-05
-1.94609e-06
-1.40476e-05
1.59103e-05
1.64117e-05
-2.35613e-06
-1.61786e-05
-1.4101e-05
-0.000108111
0.000108166
-0.000108211
2.10385e-06
0.00010839
-1.41011e-05
2.1116e-06
2.67144e-07
-0.000111736
-5.95436e-07
0.000111928
-2.22231e-06
-0.00011158
-4.88489e-07
4.23424e-07
0.000111805
1.07408e-07
2.68994e-07
-5.76409e-07
-2.2659e-06
-4.64665e-07
4.28196e-07
5.06726e-08
1.23673e-06
-0.000107827
0.000108099
-0.000107495
4.20781e-07
0.000107822
1.24072e-06
4.23187e-07
2.48016e-10
-0.000111477
-6.67133e-08
0.00011172
2.4683e-07
-0.000111477
-6.65116e-08
-4.2288e-07
0.00011172
2.4662e-07
2.27506e-11
-4.54455e-08
2.04749e-07
-4.54766e-08
-4.28133e-07
2.04697e-07
6.48702e-10
-0.000107295
0.000107648
-0.000107295
-4.19085e-07
0.000107648
-5.09547e-11
-4.2335e-07
-2.66608e-07
-0.00011158
-4.87817e-07
0.000111805
1.06756e-07
-0.000111737
-5.95798e-07
2.35961e-06
0.000111929
-2.22226e-06
-2.68958e-07
-4.64757e-07
5.05289e-08
-5.77796e-07
2.35612e-06
-2.26538e-06
-1.23383e-06
-0.000107496
0.000107823
-0.000107828
-2.10209e-06
0.000108101
-1.24138e-06
-2.11457e-06
1.94423e-06
-0.000111899
1.6362e-05
0.000112058
-1.61054e-05
-0.000112082
-1.40306e-05
0.00011215
1.59069e-05
1.94396e-06
1.63966e-05
-1.61651e-05
-1.40346e-05
1.58973e-05
1.40704e-05
-0.000108206
0.000108396
-0.00010811
0.00010815
1.40802e-05
-1.90768e-06
-0.000112201
-1.37903e-05
0.000112233
1.56654e-05
-0.000112179
1.59819e-05
-2.3112e-06
0.000112263
-1.5663e-05
-1.90949e-06
-1.37671e-05
1.5627e-05
1.6008e-05
-2.31011e-06
-1.57321e-05
-1.37762e-05
-0.000108182
0.000108168
-0.000108558
2.04873e-06
0.000108715
-1.37831e-05
2.05678e-06
2.59865e-07
-0.000112091
-6.30973e-07
0.000112217
-2.0668e-06
-0.000111997
-5.34049e-07
4.06137e-07
0.000112155
2.29444e-07
2.6073e-07
-6.07156e-07
-2.12678e-06
-5.05104e-07
4.10031e-07
1.63867e-07
1.20128e-06
-0.000108342
0.000108558
-0.000108115
4.06388e-07
0.000108376
1.20679e-06
4.09258e-07
2.06379e-10
-0.000111928
-1.19323e-07
0.000112104
3.49912e-07
-0.000111929
-1.19083e-07
-4.05743e-07
0.000112104
3.49725e-07
3.14529e-10
-9.0311e-08
2.91355e-07
-9.00329e-08
-4.09359e-07
2.91112e-07
5.23547e-10
-0.000107966
0.000108253
-0.000107966
-4.05115e-07
0.000108253
6.90647e-10
-4.07465e-07
-2.59389e-07
-0.000111997
-5.33366e-07
0.000112155
2.28926e-07
-0.000112091
-6.30537e-07
2.31186e-06
0.000112217
-2.06648e-06
-2.59906e-07
-5.04205e-07
1.63149e-07
-6.06726e-07
2.31112e-06
-2.12653e-06
-1.19926e-06
-0.000108115
0.000108376
-0.000108341
-2.04721e-06
0.000108559
-1.20335e-06
-2.05075e-06
1.90269e-06
-0.000112183
1.59765e-05
0.000112266
-1.56497e-05
-0.000112197
-1.37833e-05
0.000112232
1.56508e-05
1.90307e-06
1.59962e-05
-1.57133e-05
-1.37511e-05
1.56074e-05
1.37676e-05
-0.000108555
0.000108717
-0.000108185
0.000108169
1.3786e-05
-1.861e-06
-0.00011222
-1.35258e-05
0.000112169
1.54378e-05
-0.000112324
1.55381e-05
-2.26033e-06
0.000112346
-1.51607e-05
-1.86506e-06
-1.35136e-05
1.53923e-05
1.56005e-05
-2.26238e-06
-1.52635e-05
-1.34687e-05
-0.000108145
0.000108088
-0.00010882
1.99688e-06
0.000108893
-1.34913e-05
2.00408e-06
2.54674e-07
-0.000112309
-6.90444e-07
0.000112356
-1.87152e-06
-0.000112273
-5.95414e-07
3.91213e-07
0.000112349
3.83221e-07
2.54417e-07
-6.5387e-07
-1.95426e-06
-5.57676e-07
3.94255e-07
2.99336e-07
1.16937e-06
-0.000108734
0.000108871
-0.000108596
3.93422e-07
0.000108777
1.17449e-06
3.96157e-07
-3.1951e-10
-0.000112238
-1.90092e-07
0.000112329
4.90379e-07
-0.000112238
-1.90202e-07
-3.91969e-07
0.000112329
4.90429e-07
-8.21176e-11
-1.50962e-07
4.11222e-07
-1.50861e-07
-3.94467e-07
4.11137e-07
-4.14699e-10
-0.000108498
0.000108702
-0.000108498
-3.94548e-07
0.000108702
1.65453e-10
-3.95707e-07
-2.55671e-07
-0.000112274
-5.96015e-07
0.00011235
3.83441e-07
-0.000112309
-6.92078e-07
2.25958e-06
0.000112357
-1.87142e-06
-2.5474e-07
-5.57452e-07
2.99103e-07
-6.5449e-07
2.26216e-06
-1.95396e-06
-1.17197e-06
-0.000108596
0.000108777
-0.000108735
-2.00154e-06
0.000108872
-1.17347e-06
-2.00398e-06
1.86925e-06
-0.000112324
1.55349e-05
0.000112345
-1.51657e-05
-0.000112224
-1.35225e-05
0.000112173
1.54424e-05
1.8673e-06
1.55892e-05
-1.52523e-05
-1.35057e-05
1.53811e-05
1.34634e-05
-0.000108828
0.000108898
-0.000108137
0.000108078
1.34734e-05
-1.83158e-06
-0.000112072
-1.33057e-05
0.000111932
1.52767e-05
-0.000112319
1.50894e-05
-2.20406e-06
0.000112233
-1.46311e-05
-1.8283e-06
-1.32663e-05
1.51913e-05
1.51509e-05
-2.20783e-06
-1.47448e-05
-1.3144e-05
-0.000107997
0.000107835
-0.000108917
1.95297e-06
0.000108909
-1.31746e-05
1.95228e-06
2.53713e-07
-0.000112359
-7.69782e-07
0.000112308
-1.63665e-06
-0.000112377
-6.7683e-07
3.79138e-07
0.000112352
5.76923e-07
2.51352e-07
-7.20729e-07
-1.74192e-06
-6.26343e-07
3.80815e-07
4.68581e-07
1.14017e-06
-0.00010896
0.000109003
-0.000108909
3.82267e-07
0.00010899
1.142e-06
3.83462e-07
-4.19596e-11
-0.000112371
-2.81074e-07
0.000112359
6.72168e-07
-0.000112371
-2.81169e-07
-3.79142e-07
0.000112359
6.72175e-07
-2.63812e-10
-2.30499e-07
5.70098e-07
-2.30686e-07
-3.81361e-07
5.70184e-07
-2.0947e-10
-0.000108855
0.000108957
-0.000108856
-3.82734e-07
0.000108957
-4.71411e-10
-3.84828e-07
-2.53377e-07
-0.000112379
-6.77048e-07
0.000112353
5.76935e-07
-0.000112361
-7.68491e-07
2.20504e-06
0.000112309
-1.63757e-06
-2.5185e-07
-6.27146e-07
4.6892e-07
-7.21249e-07
2.20786e-06
-1.74248e-06
-1.14057e-06
-0.000108911
0.000108992
-0.000108964
-1.9531e-06
0.000109008
-1.14551e-06
-1.95802e-06
1.82928e-06
-0.000112319
1.51019e-05
0.000112231
-1.46386e-05
-0.000112074
-1.33136e-05
0.000111935
1.52821e-05
1.83091e-06
1.51626e-05
-1.47594e-05
-1.32738e-05
1.52041e-05
1.31512e-05
-0.000108916
0.000108914
-0.000107991
0.000107828
1.31866e-05
-1.78775e-06
-0.00011173
-1.31102e-05
0.000111476
1.5152e-05
-0.000112099
1.46104e-05
-2.1489e-06
0.000111895
-1.4045e-05
-1.78872e-06
-1.3063e-05
1.50542e-05
1.46957e-05
-2.15274e-06
-1.41979e-05
-1.28258e-05
-0.000107635
0.00010735
-0.000108835
1.90121e-06
0.000108718
-1.28629e-05
1.90689e-06
2.53353e-07
-0.000112201
-8.69006e-07
0.000112024
-1.35602e-06
-0.000112268
-7.82352e-07
3.68054e-07
0.000112118
8.17835e-07
2.50769e-07
-8.09976e-07
-1.48676e-06
-7.20057e-07
3.69476e-07
6.85031e-07
1.11057e-06
-0.000108985
0.000108906