/*--------------------------------*- C++ -*----------------------------------*\
  =========                 |
  \\      /  F ield         | OpenFOAM: The Open Source CFD Toolbox
   \\    /   O peration     | Website:  https://openfoam.org
    \\  /    A nd           | Version:  9
     \\/     M anipulation  |
\*---------------------------------------------------------------------------*/
FoamFile
{
    format      ascii;
    class       volVectorField;
    location    "3";
    object      U;
}
// * * * * * * * * * * * * * * * * * * * * * * * * * * * * * * * * * * * * * //

dimensions      [0 1 -1 0 0 0 0];

internalField   nonuniform List<vector> 
36360
(
(0.0302054 -0.267007 -0.929567)
(-0.023301 -0.190279 0.00219047)
(0.0300599 -0.29351 -0.955907)
(-0.0251871 -0.16378 0.00158191)
(0.0344904 -0.341925 -0.98354)
(-0.0255089 -0.141735 -0.000870676)
(0.0551549 -0.395353 -0.994152)
(-0.0331352 -0.10163 -0.000645544)
(0.00424085 -0.19106 -0.00135538)
(0.00658595 -0.197176 -0.000220341)
(0.00193021 -0.187614 -0.0011245)
(0.00394372 -0.196139 -0.000142095)
(0.0123552 -0.169126 0.00088381)
(0.00990503 -0.199139 4.08572e-05)
(0.0137433 -0.177606 0.000494872)
(0.0127573 -0.211172 -2.48087e-05)
(0.00593068 -0.200605 -1.9304e-05)
(0.00593073 -0.200606 1.92693e-05)
(0.00332237 -0.199777 -4.67456e-06)
(0.00332215 -0.199778 4.69756e-06)
(0.00884922 -0.209819 -6.41787e-06)
(0.0088497 -0.209822 6.37193e-06)
(0.0116979 -0.220475 -1.38625e-05)
(0.0116978 -0.220477 1.38117e-05)
(0.00658648 -0.197175 0.000220265)
(0.00424428 -0.191057 0.00135505)
(0.00394345 -0.196139 0.000142022)
(0.00193272 -0.187613 0.00112403)
(0.0099068 -0.199148 -4.07517e-05)
(0.0123581 -0.169136 -0.000883045)
(0.0127572 -0.211183 2.48358e-05)
(0.0137454 -0.177623 -0.000494364)
(-0.0232904 -0.190266 -0.00218971)
(0.0301913 -0.267007 0.929607)
(-0.0251772 -0.163772 -0.00158101)
(0.030044 -0.293498 0.955946)
(-0.0254921 -0.141723 0.000869612)
(0.0344774 -0.341919 0.983548)
(-0.033116 -0.101632 0.000644799)
(0.0551291 -0.395323 0.99416)
(0.0374188 -0.249988 -0.910972)
(-0.0296348 -0.199488 0.000701254)
(0.0354855 -0.25948 -0.920834)
(-0.0267932 -0.194239 0.00139402)
(0.0358614 -0.29475 -0.983805)
(-0.0369341 -0.163143 -0.00279818)
(0.0342247 -0.312327 -0.986131)
(-0.0323346 -0.149372 -0.00174005)
(4.69931e-05 -0.192099 -0.000421957)
(0.00512066 -0.195129 8.81647e-05)
(0.00233765 -0.190441 -0.000758451)
(0.00648018 -0.195837 -8.47256e-05)
(0.0062184 -0.162464 0.00228965)
(0.00562319 -0.18366 0.000466293)
(0.00888292 -0.161551 0.00165894)
(0.00774272 -0.188365 0.000229429)
(0.00540222 -0.198108 1.68408e-05)
(0.00540256 -0.198108 -1.68371e-05)
(0.0063011 -0.199399 -1.03105e-05)
(0.00630137 -0.199399 1.02785e-05)
(0.00505113 -0.194005 4.63575e-05)
(0.00505156 -0.194007 -4.63339e-05)
(0.00693225 -0.19944 1.3225e-05)
(0.00693289 -0.199443 -1.3244e-05)
(0.00512212 -0.195129 -8.80067e-05)
(5.11326e-05 -0.192095 0.000421981)
(0.00648133 -0.195837 8.47843e-05)
(0.00234183 -0.190437 0.00075843)
(0.00562462 -0.183665 -0.000465931)
(0.00622013 -0.162463 -0.00228871)
(0.00774459 -0.188372 -0.000229166)
(0.0088866 -0.161555 -0.00165801)
(-0.0296258 -0.199478 -0.000701656)
(0.0374073 -0.249988 0.91101)
(-0.026783 -0.194228 -0.00139405)
(0.0354739 -0.259479 0.920872)
(-0.0369212 -0.163127 0.0027962)
(0.0358488 -0.294749 0.983812)
(-0.0323188 -0.149357 0.00173845)
(0.0342136 -0.312323 0.986139)
(0.0378354 -0.235035 -0.894725)
(-0.0323236 -0.203521 -0.000356144)
(0.0378516 -0.241566 -0.902066)
(-0.0311891 -0.202135 0.000137207)
(0.0352665 -0.261685 -0.980101)
(-0.0399519 -0.180416 -0.00462439)
(0.0356759 -0.2766 -0.981793)
(-0.0387753 -0.173226 -0.00376652)
(-0.00251406 -0.194643 -0.000175421)
(0.00261058 -0.194177 0.000423391)
(-0.00151342 -0.193461 -0.000247645)
(0.00370872 -0.194469 0.000263843)
(0.00482795 -0.168282 0.00306815)
(0.00273503 -0.178649 0.000950756)
(0.00507552 -0.164973 0.00275373)
(0.00392193 -0.180381 0.000716562)
(0.00331961 -0.195667 0.000123952)
(0.00331989 -0.195667 -0.00012385)
(0.00429852 -0.196724 6.5571e-05)
(0.00429885 -0.196724 -6.55168e-05)
(0.0026596 -0.186351 0.000154871)
(0.00265987 -0.186352 -0.000154752)
(0.00363301 -0.189564 9.57063e-05)
(0.00363334 -0.189565 -9.56328e-05)
(0.00261167 -0.194175 -0.000423178)
(-0.00251113 -0.194638 0.000175313)
(0.0037101 -0.194467 -0.000263656)
(-0.00150978 -0.193456 0.000247615)
(0.00273584 -0.17865 -0.000950303)
(0.00482795 -0.168275 -0.00306737)
(0.00392303 -0.180383 -0.000716133)
(0.00507618 -0.164968 -0.00275283)
(-0.0323164 -0.203513 0.000355439)
(0.0378256 -0.235036 0.89476)
(-0.031181 -0.202126 -0.000137794)
(0.0378417 -0.241566 0.902102)
(-0.0399423 -0.180401 0.00462207)
(0.0352563 -0.261687 0.980108)
(-0.0387641 -0.173209 0.00376432)
(0.0356659 -0.276602 0.9818)
(0.0377827 -0.225824 -0.881987)
(-0.0340403 -0.204718 -0.0011467)
(0.0377621 -0.22991 -0.887679)
(-0.0332453 -0.204293 -0.000783196)
(0.0348422 -0.241108 -0.977181)
(-0.0417266 -0.189128 -0.00601761)
(0.0349403 -0.250138 -0.978517)
(-0.04085 -0.185543 -0.00537222)
(-0.00351473 -0.196716 -0.0002092)
(0.0013521 -0.194546 0.000653898)
(-0.00312871 -0.195726 -0.000170941)
(0.00185411 -0.194239 0.000554303)
(0.0051889 -0.175186 0.0033814)
(0.00163677 -0.178403 0.00131901)
(0.00495095 -0.171809 0.00326605)
(0.00201672 -0.178134 0.00115344)
(0.0019266 -0.194729 0.000223988)
(0.00192674 -0.194728 -0.000223816)
(0.00253371 -0.19501 0.000178607)
(0.00253393 -0.195009 -0.000178462)
(0.00135644 -0.182948 0.00027269)
(0.00135671 -0.182948 -0.000272485)
(0.00194153 -0.184224 0.000215735)
(0.00194181 -0.184224 -0.00021556)
(0.00135264 -0.194543 -0.000653701)
(-0.00351279 -0.196711 0.000208942)
(0.0018549 -0.194236 -0.00055409)
(-0.00312635 -0.19572 0.000170751)
(0.00163697 -0.178401 -0.00131856)
(0.00518832 -0.175178 -0.00338091)
(0.00201723 -0.178133 -0.00115297)
(0.00495057 -0.171801 -0.00326543)
(-0.0340343 -0.204711 0.00114589)
(0.0377741 -0.225825 0.88202)
(-0.0332387 -0.204286 0.00078241)
(0.0377535 -0.229911 0.887713)
(-0.0417185 -0.189116 0.00601525)
(0.0348336 -0.241112 0.977188)
(-0.0408412 -0.185529 0.00536985)
(0.0349322 -0.250141 0.978524)
(0.0380104 -0.219949 -0.871805)
(-0.0353291 -0.205107 -0.00171068)
(0.0378606 -0.222563 -0.876297)
(-0.0347199 -0.204958 -0.00145288)
(0.0349198 -0.228314 -0.974832)
(-0.0432426 -0.193405 -0.0070393)
(0.0347984 -0.233983 -0.975898)
(-0.0424826 -0.191631 -0.00656855)
(-0.00394053 -0.198456 -0.000353532)
(0.000813617 -0.195626 0.000772145)
(-0.00376302 -0.197622 -0.000273985)
(0.00102464 -0.195024 0.00072507)
(0.00566518 -0.180915 0.00345467)
(0.0013692 -0.180164 0.00154373)
(0.00544611 -0.178234 0.00343756)
(0.00145061 -0.179131 0.00144766)
(0.00112956 -0.195039 0.000292291)
(0.00112958 -0.195038 -0.0002921)
(0.00146955 -0.194765 0.000262021)
(0.00146963 -0.194764 -0.000261834)
(0.000554302 -0.18224 0.000365352)
(0.000554474 -0.182239 -0.000365119)
(0.000902143 -0.182336 0.000323022)
(0.000902373 -0.182336 -0.000322797)
(0.000813773 -0.195623 -0.000772)
(-0.00393911 -0.198451 0.000353183)
(0.00102499 -0.195021 -0.000724897)
(-0.00376137 -0.197617 0.000273672)
(0.00136899 -0.18016 -0.00154335)
(0.00566453 -0.180906 -0.0034544)
(0.00145062 -0.179128 -0.00144723)
(0.00544548 -0.178225 -0.00343718)
(-0.0353239 -0.205102 0.00170988)
(0.0380028 -0.21995 0.871835)
(-0.0347143 -0.204953 0.00145206)
(0.0378531 -0.222564 0.876328)
(-0.0432357 -0.193395 0.00703705)
(0.0349124 -0.228317 0.974838)
(-0.042475 -0.191619 0.00656623)
(0.0347915 -0.233986 0.975905)
(0.0383636 -0.216173 -0.863493)
(-0.036334 -0.205329 -0.00210948)
(0.0381705 -0.217854 -0.867091)
(-0.0358523 -0.205219 -0.00192668)
(0.0352163 -0.2201 -0.972916)
(-0.0444893 -0.195624 -0.00778345)
(0.0350135 -0.223773 -0.973775)
(-0.0438583 -0.194683 -0.00743976)
(-0.00416555 -0.199955 -0.000525101)
(0.000603702 -0.197046 0.000810076)
(-0.00406786 -0.19923 -0.000438568)
(0.000683734 -0.19631 0.000798702)
(0.0059928 -0.185251 0.0034197)
(0.0013913 -0.182639 0.00165735)
(0.00585142 -0.18324 0.00344511)
(0.00136039 -0.181359 0.00161165)
(0.000697992 -0.196073 0.000330294)
(0.000697925 -0.196072 -0.00033012)
(0.000880611 -0.195491 0.000314578)
(0.000880583 -0.19549 -0.000314393)
(9.01071e-05 -0.183081 0.000426457)
(9.01583e-05 -0.18308 -0.000426237)
(0.000293859 -0.182518 0.000399635)
(0.000293967 -0.182517 -0.000399404)
(0.000603636 -0.197043 -0.000809988)
(-0.00416445 -0.19995 0.000524711)
(0.000683764 -0.196307 -0.000798587)
(-0.00406661 -0.199225 0.000438193)
(0.0013908 -0.182635 -0.00165706)
(0.00599221 -0.185243 -0.00341957)
(0.00136002 -0.181355 -0.00161132)
(0.00585082 -0.183232 -0.00344492)
(-0.0363294 -0.205325 0.00210873)
(0.038357 -0.216173 0.86352)
(-0.0358473 -0.205215 0.00192589)
(0.0381639 -0.217855 0.867119)
(-0.0444832 -0.195616 0.00778136)
(0.0352099 -0.220103 0.972922)
(-0.0438517 -0.194674 0.0074376)
(0.0350076 -0.223775 0.973781)
(0.0387172 -0.21376 -0.856553)
(-0.0371335 -0.205612 -0.0023946)
(0.0385331 -0.21483 -0.859507)
(-0.0367506 -0.205456 -0.00226313)
(0.0355447 -0.214675 -0.971334)
(-0.0454982 -0.196928 -0.00833107)
(0.0353398 -0.217114 -0.972036)
(-0.0449835 -0.196345 -0.00807712)
(-0.00430617 -0.201296 -0.000689134)
(0.000534751 -0.198589 0.000800595)
(-0.00423754 -0.20064 -0.00060864)
(0.000559327 -0.197811 0.000809329)
(0.00618535 -0.188516 0.00334276)
(0.00151058 -0.185253 0.00169962)
(0.00610855 -0.186993 0.00338371)
(0.00144691 -0.183949 0.00168509)
(0.000477567 -0.197483 0.000345339)
(0.000477458 -0.197482 -0.000345184)
(0.00056925 -0.196747 0.000339998)
(0.000569159 -0.196746 -0.000339837)
(-0.000177297 -0.184743 0.000460133)
(-0.000177344 -0.184741 -0.00045992)
(-6.16619e-05 -0.183843 0.000446182)
(-6.16639e-05 -0.183842 -0.000445971)
(0.000534587 -0.198586 -0.000800548)
(-0.00430522 -0.201292 0.000688726)
(0.000559202 -0.197808 -0.000809265)
(-0.00423652 -0.200636 0.000608238)
(0.0015099 -0.185248 -0.0016994)
(0.00618488 -0.188509 -0.00334274)
(0.00144631 -0.183945 -0.00168484)
(0.00610803 -0.186985 -0.00338364)
(-0.0371294 -0.205608 0.0023939)
(0.0387113 -0.213761 0.856579)
(-0.0367462 -0.205452 0.00226239)
(0.0385274 -0.21483 0.859533)
(-0.0454928 -0.196922 0.00832914)
(0.0355391 -0.214676 0.97134)
(-0.0449776 -0.196338 0.00807512)
(0.0353346 -0.217117 0.972041)
(0.0390263 -0.212263 -0.850657)
(-0.0377577 -0.20602 -0.00260011)
(0.0388666 -0.212918 -0.853092)
(-0.0374562 -0.2058 -0.00250525)
(0.0358338 -0.211035 -0.970009)
(-0.0462799 -0.197864 -0.00873881)
(0.0356497 -0.212676 -0.970584)
(-0.0458724 -0.197422 -0.00854898)
(-0.00443164 -0.202562 -0.000834091)
(0.00050811 -0.200154 0.00076676)
(-0.00436729 -0.201936 -0.000763644)
(0.000522095 -0.199373 0.00078569)
(0.00629321 -0.191086 0.00325465)
(0.00163404 -0.187771 0.00170068)
(0.00624524 -0.189868 0.00329867)
(0.00157533 -0.18653 0.00170376)
(0.000369346 -0.199068 0.000347017)
(0.000369214 -0.199067 -0.000346831)
(0.000413775 -0.198263 0.000347034)
(0.000413655 -0.198262 -0.000346871)
(-0.000306537 -0.186785 0.000474395)
(-0.000306593 -0.186784 -0.000474126)
(-0.000260151 -0.185734 0.000469166)
(-0.000260216 -0.185733 -0.00046893)
(0.000507895 -0.200152 -0.000766713)
(-0.00443079 -0.202559 0.000833696)
(0.000521904 -0.19937 -0.000785651)
(-0.00436638 -0.201932 0.000763232)
(0.00163343 -0.187767 -0.00170043)
(0.00629273 -0.19108 -0.00325463)
(0.00157462 -0.186526 -0.00170355)
(0.00624483 -0.189861 -0.00329868)
(-0.0377539 -0.206018 0.00259941)
(0.0390212 -0.212262 0.850681)
(-0.0374522 -0.205797 0.00250454)
(0.0388616 -0.212918 0.853116)
(-0.046275 -0.197859 0.00873689)
(0.0358288 -0.211035 0.970015)
(-0.0458671 -0.197416 0.00854708)
(0.0356453 -0.212678 0.97059)
(0.0392608 -0.211397 -0.845546)
(-0.0382338 -0.206553 -0.00274895)
(0.0391446 -0.211764 -0.847573)
(-0.0380065 -0.206272 -0.00267942)
(0.0360566 -0.208586 -0.968885)
(-0.0468637 -0.198671 -0.00904253)
(0.0359033 -0.209691 -0.96936)
(-0.0465451 -0.198275 -0.00890169)
(-0.00454607 -0.203776 -0.00095739)
(0.000485804 -0.201706 0.000722811)
(-0.00448828 -0.203174 -0.000897868)
(0.000496418 -0.200933 0.000745015)
(0.00638205 -0.193217 0.003169)
(0.00171292 -0.190143 0.00168016)
(0.00634685 -0.192195 0.00321091)
(0.0016782 -0.188975 0.00169216)
(0.000319028 -0.200711 0.000342463)
(0.000318916 -0.20071 -0.000342436)
(0.000339049 -0.199886 0.000345186)
(0.000338913 -0.199886 -0.000345024)
(-0.000343282 -0.188983 0.000476387)
(-0.000343288 -0.188982 -0.000476508)
(-0.000332998 -0.187874 0.000476576)
(-0.000333051 -0.187872 -0.000476356)
(0.000485594 -0.201704 -0.000722814)
(-0.00454581 -0.203774 0.000957163)
(0.000496178 -0.20093 -0.00074495)
(-0.00448755 -0.203171 0.000897563)
(0.00171246 -0.190139 -0.0016802)
(0.00638164 -0.193211 -0.00316884)
(0.00167763 -0.188971 -0.00169188)
(0.00634637 -0.192189 -0.00321066)
(-0.03824 -0.206551 0.00274852)
(0.0392673 -0.211397 0.845568)
(-0.0380032 -0.20627 0.00267875)
(0.0391409 -0.211764 0.847596)
(-0.0468591 -0.198668 0.00904334)
(0.0360535 -0.208585 0.968888)
(-0.0465405 -0.198271 0.00890003)
(0.0358998 -0.20969 0.969364)
(0.0393874 -0.210984 -0.841013)
(-0.0385693 -0.207198 -0.00285875)
(0.0393258 -0.211143 -0.842759)
(-0.0384095 -0.206862 -0.00280698)
(0.0362017 -0.206971 -0.967915)
(-0.0472914 -0.199464 -0.00926843)
(0.0360878 -0.207692 -0.968316)
(-0.0470454 -0.199066 -0.00916327)
(-0.00464086 -0.204971 -0.0010592)
(0.000470631 -0.203232 0.000677848)
(-0.00459388 -0.204375 -0.00101011)
(0.000477965 -0.202473 0.000699962)
(0.00643362 -0.195075 0.00309024)
(0.00176533 -0.19237 0.00165043)
(0.00641602 -0.194172 0.00312835)
(0.00174239 -0.191275 0.00166581)
(0.000298411 -0.202356 0.000334005)
(0.000298422 -0.202355 -0.000334443)
(0.000306398 -0.201535 0.000338411)
(0.000306343 -0.201535 -0.000338598)
(-0.000346857 -0.191208 0.000471655)
(-0.00034678 -0.191207 -0.000472854)
(-0.000346068 -0.190098 0.000474557)
(-0.000346039 -0.190097 -0.000475121)
(0.000470784 -0.20323 -0.000678419)
(-0.00464152 -0.204969 0.00105833)
(0.000477917 -0.202471 -0.000700143)
(-0.00459401 -0.204372 0.00100986)
(0.00176536 -0.192366 -0.00165231)
(0.00643416 -0.19507 -0.00309377)
(0.00174212 -0.191271 -0.00166634)
(0.00641588 -0.194166 -0.0031284)
(-0.0385974 -0.207196 0.0028584)
(0.0394156 -0.210983 0.841035)
(-0.038424 -0.20686 0.00280688)
(0.0393416 -0.211143 0.84278)
(-0.0472844 -0.199459 0.00928256)
(0.0361948 -0.206973 0.965114)
(-0.0470407 -0.199061 0.00916731)
(0.0360859 -0.207695 0.968317)
(0.0394353 -0.2109 -0.836975)
(-0.0388012 -0.207941 -0.00294072)
(0.039401 -0.210907 -0.838474)
(-0.038683 -0.207559 -0.00290151)
(0.0362781 -0.205968 -0.965465)
(-0.0475941 -0.200296 -0.00944356)
(0.0361983 -0.206407 -0.966238)
(-0.0474067 -0.199874 -0.00936179)
(-0.00471566 -0.20616 -0.00114131)
(0.000460005 -0.204723 0.000636531)
(-0.00467734 -0.205566 -0.00110177)
(0.000465431 -0.203982 0.000656425)
(0.00646058 -0.196767 0.00302179)
(0.00179925 -0.194459 0.00161946)
(0.00645369 -0.195937 0.00305471)
(0.00178445 -0.193431 0.00163486)
(0.000292346 -0.203973 0.000324508)
(0.000292186 -0.203973 -0.00032437)
(0.000294162 -0.203169 0.00032918)
(0.000294101 -0.203169 -0.000329399)
(-0.0003434 -0.193385 0.000464848)
(-0.000343415 -0.193384 -0.000464703)
(-0.000345443 -0.192305 0.000468499)
(-0.000345396 -0.192304 -0.000468927)
(0.000459401 -0.204722 -0.000636603)
(-0.0047188 -0.206159 0.00114063)
(0.000465197 -0.203981 -0.000656878)
(-0.00467983 -0.205565 0.00110079)
(0.00179902 -0.194458 -0.00161957)
(0.00646023 -0.196768 -0.00302239)
(0.00178451 -0.193428 -0.00163592)
(0.00645426 -0.195935 -0.00305737)
(-0.0388364 -0.207941 0.00293949)
(0.0394815 -0.2109 0.836997)
(-0.0387079 -0.207558 0.0029007)
(0.0394308 -0.210907 0.838496)
(-0.0475888 -0.200299 0.00943875)
(0.0362837 -0.205948 0.967074)
(-0.0473996 -0.199873 0.00936808)
(0.0361943 -0.206396 0.964559)
(0.0395125 -0.211054 -0.83328)
(-0.0390218 -0.208758 -0.00300172)
(0.0394552 -0.210953 -0.83461)
(-0.0389008 -0.208342 -0.00297223)
(0.0362906 -0.205396 -0.958844)
(-0.0477764 -0.201189 -0.0095973)
(0.0362425 -0.205639 -0.962439)
(-0.0476468 -0.200736 -0.00951978)
(-0.00477634 -0.207343 -0.00120505)
(0.00045325 -0.206172 0.000601002)
(-0.00474676 -0.206753 -0.00117418)
(0.000456015 -0.205453 0.000617903)
(0.00647431 -0.19836 0.00296962)
(0.00182346 -0.196428 0.00159226)
(0.00647353 -0.197573 0.00299342)
(0.00181317 -0.195457 0.00160483)
(0.000295566 -0.205545 0.000315066)
(0.00029534 -0.205545 -0.000314064)
(0.000292878 -0.204766 0.000319492)
(0.000292703 -0.204766 -0.000318911)
(-0.000336926 -0.195481 0.000457736)
(-0.000337122 -0.19548 -0.000455869)
(-0.000339987 -0.194444 0.00046092)
(-0.000340096 -0.194443 -0.000460417)
(0.00045312 -0.206171 -0.000600015)
(-0.00477244 -0.207343 0.00120545)
(0.000455708 -0.205453 -0.000617453)
(-0.00474529 -0.206752 0.00117405)
(0.0018224 -0.196426 -0.0015893)
(0.00647223 -0.198357 -0.00296371)
(0.00181243 -0.195457 -0.00160396)
(0.00647195 -0.197573 -0.00299129)
(-0.0390158 -0.208757 0.0029992)
(0.0395178 -0.211054 0.833299)
(-0.038918 -0.208341 0.00297032)
(0.0394834 -0.210951 0.834629)
(-0.0477788 -0.201187 0.00956376)
(0.0363108 -0.205392 0.966322)
(-0.0476456 -0.200736 0.00950371)
(0.0362572 -0.205622 0.966618)
(0.0395117 -0.211371 -0.829941)
(-0.0391196 -0.20962 -0.00304605)
(0.0394942 -0.211195 -0.831053)
(-0.0390637 -0.209186 -0.00302469)
(0.0362766 -0.205149 -0.958942)
(-0.0478783 -0.20212 -0.00968469)
(0.0362402 -0.205239 -0.959179)
(-0.0477826 -0.201647 -0.0096457)
(-0.00480989 -0.208509 -0.00125596)
(0.000457921 -0.207568 0.000570054)
(-0.00479208 -0.20793 -0.00123132)
(0.000454406 -0.206877 0.000584727)
(0.0064773 -0.199877 0.00291718)
(0.00183675 -0.19829 0.0015639)
(0.0064812 -0.199127 0.00294146)
(0.00183168 -0.197373 0.00157784)
(0.000308885 -0.207054 0.00030596)
(0.000308177 -0.207054 -0.000305151)
(0.000300863 -0.206308 0.000310277)
(0.000300393 -0.206308 -0.000309236)
(-0.000331829 -0.197483 0.000448949)
(-0.000332028 -0.197481 -0.000447778)
(-0.0003338 -0.196494 0.000453572)
(-0.000334029 -0.196493 -0.000451551)
(0.000455708 -0.207567 -0.000569221)
(-0.0048105 -0.208508 0.00125617)
(0.000453208 -0.206876 -0.000583745)
(-0.00479173 -0.207929 0.00123143)
(0.00183515 -0.198286 -0.00156187)
(0.00647419 -0.199871 -0.00291305)
(0.00183037 -0.197369 -0.001575)
(0.00647878 -0.199122 -0.00293722)
(-0.0391368 -0.209619 0.00304367)
(0.039549 -0.211371 0.829962)
(-0.0390772 -0.209185 0.00302176)
(0.039526 -0.211195 0.831073)
(-0.0478778 -0.202116 0.00965826)
(0.0363011 -0.205164 0.965649)
(-0.0477821 -0.201648 0.00961347)
(0.0362616 -0.205244 0.965898)
(0.0395383 -0.211788 -0.826788)
(-0.0391816 -0.210493 -0.00307649)
(0.0395276 -0.211571 -0.827801)
(-0.0391634 -0.210057 -0.00306133)
(0.0362249 -0.205112 -0.957742)
(-0.0478866 -0.203083 -0.00975086)
(0.0362039 -0.20511 -0.957506)
(-0.047834 -0.202601 -0.00972459)
(-0.00481858 -0.20964 -0.001294)
(0.000478455 -0.208899 0.000544607)
(-0.00481615 -0.209081 -0.00127521)
(0.000466366 -0.208242 0.000556649)
(0.00647442 -0.201332 0.00287622)
(0.00184359 -0.200049 0.00154017)
(0.00648148 -0.200612 0.00289702)
(0.00184094 -0.199182 0.00155195)
(0.000336831 -0.208488 0.000297963)
(0.000336375 -0.208487 -0.000297716)
(0.000320745 -0.207782 0.000301747)
(0.000320021 -0.207781 -0.000301063)
(-0.000322913 -0.199375 0.000441323)
(-0.000323058 -0.199374 -0.000440656)
(-0.000328857 -0.198443 0.000445093)
(-0.000329017 -0.198442 -0.000444048)
(0.000476999 -0.208897 -0.000544563)
(-0.00482271 -0.209639 0.00129334)
(0.000464071 -0.208241 -0.00055602)
(-0.00481705 -0.209079 0.00127527)
(0.00184339 -0.200045 -0.00153958)
(0.00647444 -0.201328 -0.00287645)
(0.00183971 -0.199178 -0.00155008)
(0.00647927 -0.200606 -0.00289297)
(-0.0391965 -0.210493 0.00307486)
(0.0395653 -0.211792 0.826811)
(-0.0391586 -0.210056 0.0030593)
(0.0395389 -0.211572 0.827822)
(-0.0478809 -0.203085 0.00974312)
(0.0362286 -0.205122 0.95816)
(-0.0478331 -0.202593 0.00970244)
(0.0362205 -0.205134 0.962258)
(0.0395723 -0.21225 -0.823867)
(-0.0391846 -0.211338 -0.00309548)
(0.0395328 -0.212017 -0.82473)
(-0.0391714 -0.210921 -0.00308561)
(0.036145 -0.20517 -0.956584)
(-0.0478162 -0.204058 -0.00978404)
(0.0361422 -0.205136 -0.95723)
(-0.0478059 -0.203571 -0.00976779)
(-0.00479382 -0.210708 -0.00132115)
(0.000521521 -0.210143 0.000524158)
(-0.00480865 -0.210184 -0.00130772)
(0.000496851 -0.209534 0.000533664)
(0.00646836 -0.202724 0.00284187)
(0.00185564 -0.2017 0.00151832)
(0.0064758 -0.202036 0.00285761)
(0.00184866 -0.200889 0.00152852)
(0.000387891 -0.209821 0.000290831)
(0.000388049 -0.20982 -0.000291807)
(0.000358857 -0.209169 0.000294136)
(0.000358815 -0.209168 -0.000294694)
(-0.000300002 -0.201145 0.000433313)
(-0.00029983 -0.201144 -0.000435281)
(-0.000312814 -0.200276 0.000436991)
(-0.000312737 -0.200275 -0.000438229)
(0.000521895 -0.210142 -0.000525101)
(-0.00479733 -0.210706 0.00132037)
(0.000496499 -0.209533 -0.000534285)
(-0.00481507 -0.210183 0.00130698)
(0.00185683 -0.201698 -0.00152048)
(0.0064703 -0.202722 -0.0028428)
(0.00184952 -0.200886 -0.00153044)
(0.00647721 -0.202035 -0.0028608)
(-0.0392331 -0.211337 0.0030977)
(0.0396251 -0.212251 0.823384)
(-0.0392404 -0.210922 0.00308589)
(0.0396128 -0.212021 0.82475)
(-0.0478079 -0.204053 0.00979718)
(0.0361402 -0.205183 0.95691)
(-0.0477985 -0.203576 0.00977881)
(0.0361417 -0.205136 0.956765)
(0.0396143 -0.212705 -0.819365)
(-0.0391282 -0.212099 -0.00310882)
(0.0395571 -0.212482 -0.821873)
(-0.0391331 -0.211731 -0.00310106)
(0.0359893 -0.205282 -0.95988)
(-0.0476324 -0.205001 -0.00979103)
(0.0360644 -0.205217 -0.960053)
(-0.0477155 -0.204539 -0.00978249)
(-0.00471863 -0.21167 -0.00133889)
(0.000600325 -0.211264 0.000508503)
(-0.00475869 -0.211204 -0.00133097)
(0.000556332 -0.210721 0.000515284)
(0.00646936 -0.204013 0.00280684)
(0.00188435 -0.203217 0.00149866)
(0.00646847 -0.203385 0.00282087)
(0.00186662 -0.202477 0.00150742)
(0.000473731 -0.211023 0.000285111)
(0.000473799 -0.211023 -0.000285761)
(0.000425823 -0.21044 0.000287539)
(0.000425948 -0.21044 -0.000288497)
(-0.000250527 -0.202766 0.000426968)
(-0.000250385 -0.202766 -0.00042879)
(-0.000280751 -0.201976 0.000429944)
(-0.000280587 -0.201976 -0.000431696)
(0.000600336 -0.211264 -0.000509127)
(-0.00472043 -0.211669 0.00133854)
(0.000556549 -0.21072 -0.000516404)
(-0.00476248 -0.211203 0.00132947)
(0.00188554 -0.203218 -0.00150155)
(0.0064726 -0.204013 -0.00281209)
(0.00186786 -0.202477 -0.00150991)
(0.00647086 -0.203383 -0.00282509)
(-0.0391461 -0.21209 0.00310797)
(0.0396276 -0.21271 0.821102)
(-0.0391691 -0.211723 0.00310247)
(0.0395934 -0.212487 0.821384)
(-0.0476058 -0.204989 0.0098089)
(0.035953 -0.205295 0.955901)
(-0.0477034 -0.20453 0.00980114)
(0.0360486 -0.205233 0.956409)
(0.0397175 -0.213033 -0.817665)
(-0.0390476 -0.212766 -0.00311715)
(0.039666 -0.21289 -0.817427)
(-0.0390995 -0.212446 -0.00311237)
(0.0357274 -0.205468 -0.959299)
(-0.0472961 -0.205781 -0.00980699)
(0.0358027 -0.205364 -0.959459)
(-0.0474057 -0.205419 -0.00980068)
(-0.00459166 -0.212493 -0.00134659)
(0.000713763 -0.212228 0.000498299)
(-0.00466134 -0.212102 -0.00134268)
(0.000654248 -0.21177 0.000502827)
(0.00649696 -0.205141 0.002784)
(0.00196357 -0.204564 0.00148483)
(0.00648544 -0.204601 0.00279448)
(0.00191603 -0.203915 0.00149139)
(0.000601519 -0.21205 0.000279989)
(0.000601049 -0.21205 -0.000279117)
(0.000532342 -0.211561 0.000282811)
(0.000532227 -0.211562 -0.000282746)
(-0.000165272 -0.204208 0.00042294)
(-0.000165623 -0.204209 -0.000420611)
(-0.000210751 -0.203512 0.000424847)
(-0.000210775 -0.203512 -0.000424926)
(0.000712482 -0.212229 -0.000497394)
(-0.00458884 -0.212496 0.00134745)
(0.000653992 -0.211771 -0.00050275)
(-0.00465926 -0.212103 0.00134289)
(0.00196263 -0.204566 -0.00148189)
(0.00649613 -0.205144 -0.00278097)
(0.00191671 -0.203918 -0.00149205)
(0.00648826 -0.204602 -0.00279753)
(-0.0389614 -0.212771 0.00311249)
(0.0396237 -0.21303 0.818027)
(-0.0390612 -0.212444 0.00310917)
(0.0396186 -0.212889 0.819192)
(-0.0472922 -0.205782 0.00977842)
(0.0357142 -0.205452 0.96016)
(-0.0473826 -0.205405 0.0098008)
(0.0357659 -0.205371 0.956201)
(0.0397574 -0.213228 -0.814141)
(-0.0387939 -0.213234 -0.0031154)
(0.0397026 -0.213138 -0.815758)
(-0.038908 -0.213039 -0.00311477)
(0.0356805 -0.205545 -0.956558)
(-0.047106 -0.206422 -0.00979392)
(0.0356469 -0.205537 -0.954754)
(-0.0471469 -0.206113 -0.00980464)
(-0.00440054 -0.213109 -0.00134861)
(0.000875742 -0.212961 0.000490909)
(-0.00450192 -0.212832 -0.0013468)
(0.000786983 -0.212626 0.000494189)
(0.00651578 -0.206069 0.0027641)
(0.00205902 -0.205681 0.00147032)
(0.0065112 -0.205631 0.0027751)
(0.00201185 -0.205154 0.0014774)
(0.000780439 -0.212848 0.000274208)
(0.000780025 -0.212848 -0.000273474)
(0.00068368 -0.21248 0.000276862)
(0.000683118 -0.212481 -0.00027574)
(-6.35768e-05 -0.205424 0.000417029)
(-6.41116e-05 -0.205424 -0.000415301)
(-0.000115791 -0.204847 0.000419966)
(-0.000116383 -0.204848 -0.000417413)
(0.000875026 -0.212961 -0.000490087)
(-0.00439698 -0.213109 0.00134988)
(0.000785719 -0.212627 -0.000492876)
(-0.0044981 -0.212835 0.0013486)
(0.00205677 -0.205682 -0.00146817)
(0.00651087 -0.206069 -0.00276157)
(0.00200957 -0.205155 -0.0014736)
(0.00650694 -0.205632 -0.00276769)
(-0.0387419 -0.213243 0.00311086)
(0.0397036 -0.213222 0.815561)
(-0.0388395 -0.213049 0.00311034)
(0.0396329 -0.213133 0.816122)
(-0.0471374 -0.20642 0.00976425)
(0.035716 -0.20555 0.960554)
(-0.0471592 -0.206118 0.00976211)
(0.0356655 -0.205523 0.963125)
(0.039892 -0.213186 -0.810397)
(-0.038481 -0.213458 -0.00310666)
(0.0398113 -0.213255 -0.812298)
(-0.0386486 -0.213368 -0.00310897)
(0.0354798 -0.20544 -0.95751)
(-0.0466856 -0.206845 -0.00976278)
(0.0355278 -0.205514 -0.95612)
(-0.0468427 -0.206673 -0.00978319)
(-0.00412825 -0.213452 -0.00134638)
(0.00111078 -0.213412 0.000486146)
(-0.0042711 -0.213317 -0.00134722)
(0.00098467 -0.213225 0.000487906)
(0.00656755 -0.206743 0.00274652)
(0.00216871 -0.206523 0.00145796)
(0.00654343 -0.206444 0.00275623)
(0.00211207 -0.20614 0.00146436)
(0.00102845 -0.21336 0.000269123)
(0.0010287 -0.21336 -0.000270314)
(0.000895226 -0.213143 0.00027135)
(0.000895063 -0.213144 -0.000271599)
(5.99687e-05 -0.20636 0.000411376)
(6.01317e-05 -0.20636 -0.000413097)
(-4.68135e-06 -0.205931 0.00041432)
(-4.86929e-06 -0.205931 -0.000413911)
(0.00111183 -0.213413 -0.000487648)
(-0.00412778 -0.213453 0.00134434)
(0.000984462 -0.213225 -0.000488308)
(-0.00426827 -0.213317 0.00134668)
(0.00216951 -0.206524 -0.00146086)
(0.00657155 -0.206746 -0.00275231)
(0.00211121 -0.206141 -0.00146387)
(0.00654288 -0.206446 -0.00275583)
(-0.0384973 -0.213456 0.00311074)
(0.0399033 -0.213196 0.812046)
(-0.0385916 -0.213371 0.00310918)
(0.0397491 -0.213258 0.813737)
(-0.0466605 -0.20686 0.0097752)
(0.0354496 -0.205418 0.954031)
(-0.0468529 -0.206681 0.00976909)
(0.0355363 -0.205508 0.955959)
(0.0400912 -0.21283 -0.808059)
(-0.038055 -0.213348 -0.0031049)
(0.039949 -0.213046 -0.808528)
(-0.038252 -0.213461 -0.00310495)
(0.0353929 -0.205061 -0.953453)
(-0.0462931 -0.206959 -0.00973425)
(0.035386 -0.205301 -0.957105)
(-0.0464432 -0.20694 -0.00974226)
(-0.0037635 -0.21346 -0.00133499)
(0.00143715 -0.21352 0.000486945)
(-0.0039579 -0.213503 -0.00133985)
(0.00125823 -0.213513 0.000485921)
(0.006638 -0.207091 0.00273772)
(0.00230335 -0.20703 0.00144961)
(0.00660303 -0.206961 0.0027384)
(0.00223042 -0.206823 0.00145236)
(0.00135864 -0.21352 0.000266646)
(0.00135882 -0.21352 -0.000266724)
(0.00118171 -0.213488 0.000267492)
(0.00118214 -0.213489 -0.000268401)
(0.000209355 -0.206947 0.000408056)
(0.000209375 -0.206947 -0.000408945)
(0.000131079 -0.206701 0.000409126)
(0.00013128 -0.206702 -0.000411213)
(0.00143761 -0.213522 -0.00048664)
(-0.00376908 -0.213462 0.0013365)
(0.00125979 -0.213515 -0.000486826)
(-0.0039615 -0.213506 0.00133938)
(0.00230285 -0.207034 -0.00145083)
(0.00663642 -0.207098 -0.00273926)
(0.00223121 -0.206826 -0.00145602)
(0.00660574 -0.206965 -0.00274573)
(-0.038108 -0.213344 0.00310194)
(0.0401541 -0.212837 0.810129)
(-0.0383331 -0.21346 0.00310529)
(0.0400324 -0.213051 0.810201)
(-0.0462955 -0.206961 0.00972829)
(0.0354135 -0.205051 0.954763)
(-0.0464267 -0.206947 0.0097611)
(0.0353743 -0.205286 0.954859)
(0.0403816 -0.212073 -0.802629)
(-0.0375094 -0.212828 -0.00309334)
(0.040225 -0.212512 -0.803022)
(-0.0378019 -0.213142 -0.00309705)
(0.0353275 -0.204261 -0.953923)
(-0.0458152 -0.206705 -0.00968561)
(0.0352909 -0.204728 -0.953995)
(-0.0459891 -0.206884 -0.00971256)
(-0.0032893 -0.213046 -0.00132276)
(0.00187118 -0.213199 0.000488801)
(-0.00353885 -0.213312 -0.00132798)
(0.00164217 -0.213418 0.000487406)
(0.00673146 -0.207029 0.00271156)
(0.00247169 -0.20711 0.00143975)
(0.0066893 -0.207112 0.00272102)
(0.00238478 -0.207129 0.00144541)
(0.00178429 -0.21325 0.000264536)
(0.00178429 -0.21325 -0.000264166)
(0.00155943 -0.213443 0.000265374)
(0.00155949 -0.213444 -0.000265193)
(0.000391847 -0.207103 0.000404832)
(0.000391994 -0.207103 -0.000404813)
(0.000295852 -0.207085 0.000406632)
(0.000295943 -0.207086 -0.000407317)
(0.00187151 -0.213201 -0.000488337)
(-0.0032887 -0.213048 0.00132252)
(0.00164243 -0.21342 -0.000486994)
(-0.00354065 -0.213313 0.00132873)
(0.00247179 -0.207113 -0.00143925)
(0.00673279 -0.207038 -0.0027092)
(0.00238435 -0.207132 -0.00144642)
(0.00668914 -0.207121 -0.00272324)
(-0.0375503 -0.212822 0.00309458)
(0.0404275 -0.212082 0.802646)
(-0.0378427 -0.21314 0.00309558)
(0.0402736 -0.212515 0.805107)
(-0.0457805 -0.206723 0.0096786)
(0.0352998 -0.204247 0.957303)
(-0.045962 -0.206901 0.00970799)
(0.0352752 -0.204703 0.952992)
(0.0408753 -0.21082 -0.805606)
(-0.0369333 -0.211792 -0.00308315)
(0.0406055 -0.211526 -0.80401)
(-0.037231 -0.212384 -0.00308766)
(0.0352605 -0.202993 -0.958391)
(-0.045216 -0.205942 -0.00962348)
(0.0352309 -0.203706 -0.956877)
(-0.0454544 -0.206402 -0.00965391)
(-0.00268689 -0.212124 -0.00130703)
(0.00241979 -0.212367 0.000494286)
(-0.00300346 -0.212652 -0.00131366)
(0.0021303 -0.212852 0.000491191)
(0.0068707 -0.206466 0.00271762)
(0.00267909 -0.206685 0.00143678)
(0.00680172 -0.206816 0.00271755)
(0.00256735 -0.206969 0.00143719)