/*--------------------------------*- C++ -*----------------------------------*\
  =========                 |
  \\      /  F ield         | OpenFOAM: The Open Source CFD Toolbox
   \\    /   O peration     | Website:  https://openfoam.org
    \\  /    A nd           | Version:  9
     \\/     M anipulation  |
\*---------------------------------------------------------------------------*/
FoamFile
{
    format      ascii;
    class       volScalarField;
    location    "4.55";
    object      epsilon;
}
// * * * * * * * * * * * * * * * * * * * * * * * * * * * * * * * * * * * * * //

dimensions      [0 2 -3 0 0 0 0];

internalField   nonuniform List<scalar> 
36360
(
0.617506
0.507725
0.365781
0.31681
0.45009
0.373781
0.127246
0.150037
0.25927
0.143501
0.132165
0.0567752
0.19077
0.0982649
0.0499287
0.0185068
0.0991427
0.0990828
0.0314759
0.0314446
0.0650411
0.0650102
0.0120765
0.012073
0.143301
0.258897
0.0566508
0.131888
0.0981223
0.19042
0.0184818
0.0497935
0.507201
0.61698
0.316371
0.365318
0.373093
0.449159
0.149654
0.126831
0.992246
0.83134
0.818038
0.676567
1.04894
0.865793
0.758291
0.615607
0.518653
0.360236
0.388983
0.247627
0.579489
0.426016
0.373842
0.246093
0.294211
0.294115
0.190403
0.190323
0.363514
0.363399
0.196097
0.196024
0.35994
0.518152
0.247373
0.388538
0.425635
0.578751
0.245831
0.373293
0.830695
0.99163
0.675976
0.817457
0.864579
1.04735
0.614649
0.757008
1.30866
1.12323
1.15459
0.979982
1.61925
1.37861
1.3351
1.12084
0.775814
0.594357
0.648083
0.476876
1.02498
0.831661
0.798331
0.623564
0.516473
0.516353
0.404256
0.404147
0.749552
0.749362
0.550626
0.550472
0.593997
0.775228
0.476545
0.647535
0.831061
1.02389
0.623071
0.797412
1.1225
1.30799
0.979291
1.15394
1.37692
1.61707
1.11938
1.3332
1.59528
1.39347
1.45559
1.26129
2.1706
1.88734
1.89829
1.63487
1.02202
0.824823
0.900921
0.71095
1.48199
1.25784
1.25391
1.04424
0.738936
0.738801
0.628718
0.62859
1.16046
1.1602
0.954018
0.953794
0.824421
1.02138
0.710566
0.900303
1.25705
1.4806
1.04354
1.25266
1.39269
1.59459
1.26053
1.45491
1.88525
2.16793
1.63297
1.89585
1.85291
1.63912
1.7279
1.51967
2.68453
2.36895
2.43286
2.13232
1.24984
1.04111
1.13869
0.935302
1.92263
1.67431
1.70536
1.46841
0.949448
0.949303
0.846304
0.846164
1.56507
1.56477
1.36472
1.36444
1.04068
1.24917
0.934886
1.13803
1.67338
1.92101
1.46755
1.70385
1.63832
1.85222
1.51888
1.7272
2.36655
2.68147
2.13007
2.42998
2.08075
1.85774
1.97067
1.752
3.14977
2.80972
2.92326
2.59458
1.45509
1.23771
1.35557
1.14221
2.33078
2.06346
2.13111
1.87275
1.14176
1.14161
1.04825
1.0481
1.94501
1.94467
1.75862
1.75829
1.23727
1.4544
1.14177
1.35488
2.06241
2.32898
1.87176
2.12939
1.85693
2.08007
1.7512
1.96998
2.80708
3.14642
2.59205
2.92004
2.27923
2.04906
2.1837
1.95689
3.56222
3.20353
3.36231
3.01231
1.6363
1.41239
1.54887
1.32801
2.69856
2.41625
2.51968
2.24443
1.31321
1.31306
1.23033
1.23018
2.29062
2.29025
2.12218
2.12182
1.41194
1.6356
1.32756
1.54817
2.41512
2.69662
2.24334
2.5178
2.04825
2.27857
1.95608
2.18303
3.2007
3.55864
3.00957
3.35883
2.45002
2.21428
2.36812
2.13499
3.92199
3.54895
3.74821
3.38187
1.79382
1.56495
1.71815
1.49159
3.02329
2.72926
2.86602
2.57753
1.4633
1.46314
1.39109
1.39094
2.59793
2.59754
2.44887
2.44848
1.56449
1.79311
1.49114
1.71744
2.72806
3.02125
2.57636
2.86403
2.21348
2.44939
2.13419
2.36747
3.54598
3.91823
3.37897
3.74453
2.59513
2.35506
2.5258
2.28776
4.23129
3.84718
4.08234
3.70339
1.92876
1.69614
1.86421
1.63334
3.30515
3.00186
3.16915
2.87022
1.59265
1.5925
1.5307
1.53054
2.86623
2.86582
2.7366
2.7362
1.69568
1.92806
1.63288
1.8635
3.00061
3.30303
2.869
3.16706
2.35427
2.59452
2.28697
2.52517
3.8441
4.2274
3.70037
4.07851
2.71695
2.47352
2.65898
2.41713
4.49385
4.10119
4.36776
3.97909
2.04285
1.80742
1.98851
1.75439
3.54626
3.23572
3.43029
3.12316
1.70258
1.70242
1.65017
1.65001
3.0968
3.09637
2.98578
2.98536
1.80697
2.04216
1.75393
1.98781
3.23443
3.54407
3.1219
3.42813
2.47274
2.71636
2.41634
2.65838
4.09803
4.48985
3.97597
4.36381
2.81777
2.57177
2.77002
2.52522
4.71358
4.31438
4.60838
4.21221
2.13793
1.90044
2.09287
1.85633
3.7494
3.43324
3.65201
3.33849
1.7946
1.79445
1.75095
1.7508
3.29181
3.29138
3.19824
3.19781
1.89998
2.13723
1.85588
2.09218
3.43192
3.74716
3.33719
3.6498
2.57099
2.81719
2.52444
2.76944
4.31115
4.7095
4.20902
4.60433
2.89983
2.65194
2.86121
2.6142
4.89465
4.49045
4.80828
4.40639
2.21588
1.97696
2.17917
1.9409
3.91783
3.59746
3.83739
3.51898
1.87042
1.87026
1.83468
1.83452
3.4541
3.45365
3.37652
3.37608
1.97651
2.21519
1.94045
2.17848
3.59612
3.91556
3.51765
3.83513
2.65118
2.89927
2.61343
2.86065
4.48717
4.89049
4.40313
4.80415
2.96511
2.7159
2.93465
2.68604
5.04082
4.63293
4.97141
4.5652
2.27844
2.03861
2.24923
2.0098
4.05471
3.73128
3.98964
3.66762
1.9316
1.93145
1.90299
1.90284
3.58647
3.58602
3.52349
3.52304
2.03816
2.27776
2.00934
2.24854
3.72991
4.05241
3.66627
3.98735
2.71515
2.96457
2.68528
2.9341
4.62961
5.0366
4.5619
4.96722
3.01549
2.76544
2.99227
2.74259
5.15576
4.74526
5.10153
4.69219
2.32728
2.08697
2.30474
2.06462
4.16315
3.83762
4.11192
3.78734
1.97969
1.97954
1.95746
1.95731
3.69179
3.69134
3.64198
3.64153
2.08652
2.32659
2.06417
2.30406
3.83624
4.16082
3.78597
4.1096
2.76469
3.01497
2.74184
2.99174
4.74191
5.1515
4.68885
5.09729
3.05252
2.80206
3.0358
2.7855
5.24263
4.83044
5.20207
4.7906
2.36382
2.12342
2.34727
2.10688
4.24596
3.91917
4.20721
3.88097
2.01606
2.0159
1.99954
1.99939
3.77269
3.77223
3.73478
3.73433
2.12297
2.36315
2.10643
2.34659
3.91778
4.24361
3.87959
4.20487
2.80132
3.05202
2.78476
3.03529
4.82706
5.23834
4.78723
5.19779
3.07764
2.82716
3.06672
2.81621
5.3043
4.89122
5.27599
4.86325
2.38939
2.14922
2.37818
2.13786
4.30568
3.97835
4.27817
3.95104
2.04192
2.04177
2.03052
2.03036
3.83153
3.83107
3.80436
3.8039
2.14877
2.38872
2.13742
2.37751
3.97696
4.30333
3.94965
4.27582
2.82643
3.07715
2.81548
3.06622
4.88783
5.29998
4.85986
5.27169
3.09205
2.84192
3.08636
2.83601
5.34325
4.92998
5.32602
4.91274
2.40511
2.16547
2.3987
2.15877
4.34459
4.01734
4.32723
3.99988
2.05841
2.05826
2.05157
2.05142
3.87053
3.87006
3.85302
3.85256
2.16503
2.40444
2.15833
2.39803
4.01594
4.34224
3.99848
4.32487
2.8412
3.09158
2.83529
3.08587
4.92659
5.33893
4.90935
5.3217
3.09672
2.8473
3.09581
2.84599
5.36158
4.94876
5.35442
4.94129
2.41193
2.17312
2.40987
2.17062
4.36461
4.03802
4.35647
4.02949
2.06643
2.06628
2.06373
2.06358
3.89151
3.89105
3.8828
3.88234
2.17268
2.41127
2.17018
2.40921
4.03662
4.36225
4.02809
4.35411
2.84659
3.09626
2.84527
3.09533
4.94537
5.35726
4.93789
5.3501
3.0927
2.84433
3.09597
2.84703
5.36109
4.94925
5.36296
4.95062
2.41077
2.17301
2.41256
2.17426
4.36723
4.04181
4.36763
4.04163
2.0668
2.06665
2.06781
2.06766
3.89587
3.89541
3.89538
3.89492
2.17258
2.41012
2.17383
2.4119
4.04042
4.36488
4.04023
4.36527
2.84363
3.09225
2.84633
3.09551
4.94587
5.35677
4.94723
5.35864
3.08051
2.83356
3.08785
2.84016
5.34349
4.9333
5.35412
4.94306
2.40228
2.16585
2.40774
2.17062
4.35453
4.03091
4.3627
4.03816
2.06026
2.06012
2.06471
2.06456
3.88578
3.88532
3.89259
3.89213
2.16542
2.40164
2.17019
2.40709
4.02952
4.3522
4.03678
4.36035
2.83287
3.08007
2.83946
3.08741
4.92994
5.3392
4.93969
5.34981
3.06077
2.81561
3.07181
2.82571
5.30976
4.90168
5.3281
4.91888
2.387
2.15211
2.39576
2.16008
4.327
4.00557
4.34212
4.01955
2.04724
2.0471
2.05483
2.05469
3.86145
3.86099
3.8749
3.87445
2.15169
2.38636
2.15965
2.39512
4.0042
4.32468
4.01818
4.3398
2.81493
3.06034
2.82503
3.07137
4.89835
5.3055
4.91553
5.32382
3.03401
2.79099
3.04851
2.80438
5.26113
4.85566
5.28682
4.87996
2.36545
2.13234
2.37729
2.14327
4.286
3.96721
4.30776
3.98761
2.0283
2.02816
2.0388
2.03866
3.8243
3.82385
3.84407
3.84362
2.13193
2.36482
2.14285
2.37666
3.96586
4.28371
3.98625
4.30546
2.79032
3.03359
2.8037
3.04809
4.85236
5.25692
4.87664
5.28258
3.00059
2.7601
3.01838
2.77658
5.19842
4.79606
5.23106
4.82706
2.33803
2.10694
2.35277
2.12064
4.23232
3.9166
4.26033
3.94304
2.00383
2.00369
2.01706
2.01691
3.77508
3.77464
3.8008
3.80036
2.10652
2.33741
2.12023
2.35214
3.91526
4.23005
3.94169
4.25806
2.75945
3.00018
2.77592
3.01797
4.7928
5.19426
4.82378
5.22687
2.96085
2.72327
2.98177
2.74269
5.12237
4.72357
5.1616
4.76094
2.30506
2.0762
2.32254
2.09254
4.16662
3.8544
4.20057
3.88656
1.97414
1.974
1.98994
1.9898
3.71448
3.71405
3.74583
3.74539
2.0758
2.30446
2.09213
2.32193
3.85309
4.1644
3.88524
4.19833
2.72263
2.96046
2.74204
2.98137
4.72037
5.11827
4.75771
5.15747
2.91507
2.68079
2.93897
2.703
5.03358
4.63883
5.07912
4.68226
2.26682
2.04042
2.2869
2.05925
4.08952
3.78121
4.12912
3.81881
1.93949
1.93936
1.95774
1.9576
3.64306
3.64263
3.67976
3.67932
2.04003
2.26623
2.05885
2.2863
3.77992
4.08734
3.81751
4.12691
2.68016
2.91468
2.70236
2.93858
4.63568
5.02956
4.67909
5.07505
2.86348
2.63289
2.89026
2.65777
4.93261
4.54236
4.98418
4.59161
2.22354
1.9998
2.24611
2.02102
4.00152
3.6975
4.04651
3.74031
1.90011
1.89998
1.9207
1.92056
3.5613
3.56089
3.60312
3.6027
1.99942
2.22296
2.02063
2.24553
3.69624
3.99938
3.73904
4.04435
2.63227
2.86311
2.65716
2.88988
4.53928
4.92867
4.58849
4.9802
2.80632
2.57978
2.83585
2.60724
4.81994
4.43464
4.87732
4.48947
2.1754
1.95454
2.20038
1.97806
3.90305
3.60371
3.95324
3.65153
1.85618
1.85605
1.87902
1.87889
3.46963
3.46922
3.51637
3.51595
1.95416
2.17483
1.97768
2.1998
3.60248
3.90096
3.65028
3.95112
2.57918
2.80596
2.60664
2.83549
4.43163
4.8161
4.48642
4.87342
2.7438
2.52166
2.77598
2.5516
4.69605
4.31615
4.75899
4.37632
2.12258
1.90479
2.14988
1.93053
3.79453
3.50023
3.8497
3.55285
1.80784
1.80771
1.83286
1.83273
3.36843
3.36803
3.41989
3.41949
1.90442
2.12203
1.93015
2.14932
3.49903
3.7925
3.55163
3.84765
2.52108
2.74344
2.55101
2.77562
4.31322
4.69231
4.37335
4.7552
2.67613
2.45871
2.71086
2.49104
4.56136
4.18726
4.62967
4.2526
2.06524
1.85068
2.09477
1.87858
3.6763
3.38738
3.7363
3.44466
1.75523
1.75511
1.78237
1.78224
3.25802
3.25763
3.31406
3.31366
1.85032
2.0647
1.87821
2.09423
3.38622
3.67433
3.44347
3.7343
2.45815
2.67579
2.49047
2.71051
4.18441
4.55773
4.24971
4.62598
2.60356
2.39112
2.6407
2.42574
4.41628
4.04833
4.48975
4.11866
2.00351
1.79234
2.03521
1.82233
3.54872
3.26551
3.61337
3.32727
1.69847
1.69834
1.72766
1.72754
3.13875
3.13837
3.19919
3.19881
1.79199
2.00299
1.82198
2.03468
3.26439
3.54681
3.32613
3.61143
2.39057
2.60322
2.42519
2.64036
4.04558
4.41277
4.11586
4.48617
2.52628
2.31904
2.56574
2.35588
4.26128
3.8999
4.33966
3.97488
1.93753
1.72989
1.97134
1.76192
3.41214
3.13496
3.48125
3.20103
1.63765
1.63753
1.66885
1.66873
3.01093
3.01057
3.07562
3.07525
1.72955
1.93702
1.76158
1.97082
3.13387
3.4103
3.19992
3.47937
2.3185
2.52595
2.35534
2.56541
3.89724
4.25789
3.97218
4.3362
2.44456
2.24265
2.4862
2.28161
4.09681
3.74251
4.17989
3.82198
1.86743
1.66344
1.90327
1.69745
3.26695
2.99604
3.34034
3.06626
1.57288
1.57277
1.60604
1.60592
2.87491
2.87456
2.94367
2.94331
1.66311
1.86694
1.69711
1.90277
2.995
3.26517
3.0652
3.33853
2.24214
2.44424
2.28109
2.48588
3.73995
4.09354
3.81937
4.17655
2.35867
2.16219
2.40236
2.20316
3.92322
3.57639
4.01083
3.66019
1.79336
1.5931
1.83116
1.62903
3.11344
2.8491
3.19096
2.92331
1.50427
1.50416
1.53933
1.53921
2.731
2.73067
2.80367
2.80333
1.59278
1.79288
1.6287
1.83067
2.8481
3.11174
2.92228
3.18922
2.1617
2.35836
2.20265
2.40204
3.57394
3.92008
3.65769
4.00762
2.26895
2.0779
2.3145
2.12074
3.74093
3.40204
3.83285
3.48991
1.71548
1.51898
1.75515
1.55677
2.95201
2.69448
3.03345
2.77249
1.43189
1.43178
1.46881
1.4687
2.57954
2.57923
2.65596
2.65564
1.51867
1.71502
1.55646
1.75468
2.69352
2.95039
2.77151
3.03179
2.07742
2.26864
2.12024
2.31419
3.3997
3.73794
3.48751
3.82978
2.17587
1.99013
2.22301
2.03464
3.55049
3.22013
3.64642
3.3117
1.63401
1.44118
1.67544
1.48079
2.78311
2.5325
2.86824
2.61417
1.35581
1.35571
1.39457
1.39447
2.4208
2.4205
2.50085
2.50054
1.44089
1.63356
1.48049
1.67499
2.53159
2.78156
2.61324
2.86666
1.98967
2.17558
2.03416
2.22271
3.2179
3.54764
3.30941
3.6435
2.08045
1.89955
2.12857
1.94535
3.35289
3.03177
3.45223
3.12639
1.54918
1.35971
1.59225
1.40117
2.60719
2.36331
2.69579
2.44861
1.2759
1.2758
1.3166
1.3165
2.25479
2.25451
2.33852
2.33823
1.35943
1.54875
1.40088
1.59181
2.36246
2.60574
2.44773
2.69429
1.8991
2.08017
1.94489
2.12828
3.02967
3.3502
3.12422
3.44946
1.98527
1.80728
2.03274
1.85375
3.15121
2.83911
3.25195
2.93554
1.46096
1.27406
1.50578
1.31772
2.42437
2.18639
2.5165
2.27571
1.19153
1.19144
1.23458
1.23448
2.08087
2.08061
2.1687
2.16843
1.27378
1.46056
1.31744
1.50536
2.1856
2.42302
2.27489
2.51509
1.80685
1.98499
1.85331
2.03246
2.83714
3.14869
2.9335
3.24934
1.89893
1.71306
1.94007
1.76092
2.95799
2.64424
3.05161
2.7419
1.36692
1.18206
1.41531
1.22933
2.23176
1.99938
2.3296
2.09421
1.10102
1.10093
1.14743
1.14734
1.89754
1.8973
1.99029
1.99004
1.1818
1.36653
1.22906
1.41491
1.99866
2.23052
2.09346
2.3283
1.71264
1.89866
1.7605
1.93979
2.64243
2.95566
2.74001
3.04918
1.86408
1.5885
1.86921
1.66101
2.8041
2.40458
2.8764
2.53891
1.25346
1.07823
1.31455
1.13227
2.01374
1.7988
2.1275
1.90061
1.00147
1.00139
1.05278
1.0527
1.70522
1.70501
1.80202
1.8018
1.07799
1.25309
1.13202
1.31417
1.79816
2.01264
1.89993
2.12634
1.5881
1.8638
1.66061
1.86893
2.40296
2.80195
2.53718
2.87415
0.908657
0.758749
0.663342
0.556881
0.778204
0.642466
0.532296
0.445102
0.466033
0.308537
0.308081
0.183757
0.366188
0.225289
0.221217
0.117082
0.24114
0.241029
0.133801
0.133706
0.167397
0.167308
0.0777859
0.0777208
0.308202
0.465506
0.183452
0.307554
0.225012
0.365727
0.11686
0.220801
0.758165
0.908188
0.55622
0.662735
0.641907
0.777711
0.444534
0.531741
1.25755
1.07889
1.10002
0.930714
1.1287
0.956929
0.969213
0.810057
0.750857
0.563066
0.614047
0.437259
0.633926
0.457075
0.503756
0.340634
0.478632
0.478521
0.35929
0.359176
0.379928
0.379823
0.271065
0.270965
0.562749
0.750404
0.436926
0.61355
0.456763
0.633447
0.340333
0.503279
1.07847
1.25731
0.930209
1.09966
0.956414
1.12831
0.809516
0.968771
1.5228
1.33577
1.39695
1.21301
1.40547
1.2194
1.27281
1.09269
0.998402
0.799537
0.878872
0.684327
0.877398
0.68426
0.758564
0.572298
0.708105
0.708007
0.595712
0.595607
0.597872
0.597763
0.489843
0.489734
0.799268
0.99805
0.684032
0.878468
0.683948
0.876942
0.571984
0.758093
1.33552
1.52279
1.21268
1.39682
1.21896
1.4052
1.09221
1.27248
1.7437
1.55394
1.63798
1.4492
1.64408
1.45019
1.52899
1.33853
1.2146
1.01113
1.11038
0.908732
1.09791
0.895465
0.990732
0.792378
0.916408
0.916328
0.815362
0.815273
0.803679
0.803574
0.70297
0.702863
1.01092
1.21435
0.908491
1.11008
0.895168
1.09749
0.792073
0.990294
1.55384
1.74389
1.44903
1.63807
1.44983
1.64394
1.33812
1.52879
1.93116
1.7408
1.84133
1.65113
1.85198
1.65309
1.75181
1.55516
1.40213
1.19682
1.31197
1.10737
1.29448
1.08614
1.19939
0.993689
1.10049
1.10043
1.0117
1.01163
0.990908
0.990809
0.899998
0.899895
1.19666
1.40197
1.10718
1.31177
1.08587
1.29411
0.993402
1.19899
1.74084
1.93153
1.6511
1.84162
1.6528
1.85196
1.55484
1.75172
2.09056
1.90036
2.01426
1.82392
2.03169
1.82961
1.94532
1.74468
1.56336
1.35753
1.48606
1.28039
1.46697
1.25473
1.38387
1.1734
1.26045
1.26041
1.18361
1.18356
1.1572
1.1571
1.0769
1.07681
1.35742
1.56328
1.28026
1.48595
1.25448
1.46664
1.17313
1.38352
1.90052
2.09108
1.82403
2.0147
1.8294
2.03178
1.74443
1.94535
2.22532
2.03566
2.16096
1.97101
2.18577
1.98152
2.11193
1.90868
1.70072
1.49506
1.63507
1.42928
1.61629
1.40143
1.54463
1.33097
1.39771
1.39767
1.33202
1.33198
1.30233
1.30225
1.23258
1.23249
1.49498
1.70071
1.42918
1.63503
1.4012
1.616
1.33073
1.54433
2.03592
2.22596
1.97123
2.16155
1.98137
2.18594
1.9085
2.11207
2.33839
2.14942
2.28455
2.09524
2.31661
2.11086
2.25412
2.04906
1.81668
1.61158
1.76144
1.55604
1.74404
1.52745
1.68297
1.46716
1.51424
1.51422
1.45867
1.45864
1.42728
1.4272
1.36748
1.36739
1.61154
1.81673
1.55598
1.76146
1.52724
1.74379
1.46694
1.6827
2.14976
2.33913
2.09554
2.28525
2.11077
2.31687
2.04894
2.25434
2.43222
2.24405
2.38771
2.19915
2.42644
2.21968
2.37418
2.16789
1.91356
1.70924
1.86759
1.66287
1.85202
1.63433
1.80061
1.58341
1.61209
1.61207
1.56561
1.56559
1.53346
1.53339
1.48286
1.48278
1.70923
1.91366
1.66285
1.86767
1.63414
1.8518
1.58321
1.80038
2.24445
2.43305
2.19952
2.3885
2.21964
2.42676
2.16782
2.37447
2.50911
2.3218
2.47283
2.28509
2.51755
2.31015
2.4744
2.26729
1.99357
1.79018
1.95578
1.75193
1.9422
1.72389
1.89947
1.68142
1.69333
1.69333
1.65492
1.65491
1.62259
1.62253
1.58031
1.58024
1.7902
1.9937
1.75193
1.9559
1.72371
1.94201
1.68123
1.89926
2.32226
2.51001
2.28552
2.47369
2.31015
2.51793
2.26727
2.47475
2.57105
2.38465
2.54199
2.35515
2.59196
2.38422
2.55691
2.34932
2.05867
1.85632
2.02811
1.82525
2.01643
1.79787
1.98145
1.76298
1.75986
1.75986
1.72858
1.72858
1.69635
1.69629
1.66156
1.66149
1.85636
2.05884
1.82527
2.02826
1.7977
2.01627
1.76281
1.98127
2.38517
2.57202
2.35564
2.54293
2.38426
2.5924
2.34934
2.55732
2.61988
2.43443
2.59719
2.41127
2.65159
2.44374
2.62373
2.41592
2.11068
1.90944
2.08647
1.88468
2.07649
1.85798
2.0484
1.82984
1.81342
1.81342
1.78843
1.78843
1.75641
1.75635
1.72828
1.72822
1.90949
2.11088
1.88472
2.08665
1.85783
2.07635
1.82968
2.04825
2.43498
2.6209
2.41181
2.59818
2.44381
2.65207
2.41597
2.62419
2.65712
2.47265
2.64003
2.45509
2.69808
2.49034
2.67659
2.46878
2.15114
1.95107
2.13252
1.93187
2.12396
1.90575
2.10198
1.8836
1.85553
1.85554
1.83609
1.8361
1.80425
1.8042
1.78206
1.782
1.95113
2.15136
1.93193
2.13273
1.90561
2.12383
1.88345
2.10184
2.47324
2.65818
2.45566
2.64107
2.49044
2.6986
2.46886
2.67708
2.68417
2.50073
2.67202
2.48808
2.73298
2.52555
2.71711
2.50952
2.18144
1.98258
2.16774
1.96829
2.16028
1.94257
2.14371
1.92574
1.88758
1.88759
1.87302
1.87303
1.84127
1.84122
1.82433
1.82427
1.98266
2.18169
1.96836
2.16798
1.94244
2.16016
1.9256
2.14359
2.50135
2.68528
2.48869
2.67311
2.52567
2.73353
2.50962
2.71764
2.70216
2.5198
2.69442
2.51153
2.75753
2.5506
2.7467
2.53951
2.20275
2.00516
2.19342
1.99521
2.18668
1.96968
2.17494
1.95757
1.91072
1.91074
1.90048
1.9005
1.86866
1.86861
1.8564
1.85635
2.00525
2.20302
1.99529
2.19368
1.96955
2.18658
1.95745
2.17483
2.52044
2.70329
2.51216
2.69554
2.55074
2.7581
2.53964
2.74726
2.71209
2.53088
2.70827
2.52649
2.77287
2.56663
2.76652
2.55992
2.2161
2.01983
2.21064
2.01372
2.20428
1.98813
2.19682
1.98023
1.92599
1.92601
1.91957
1.91959
1.88748
1.88744
1.87939
1.87934
2.01993
2.21638
2.01381
2.21091
1.98801
2.20419
1.98011
2.19673
2.53154
2.71325
2.52714
2.70941
2.56679
2.77347
2.56007
2.7671
2.71481
2.53482
2.71451
2.53391
2.77994
2.57458
2.77762
2.57181
2.22236
2.02746
2.22035
2.02477
2.21401
1.99887
2.21038
1.99473
1.93425
1.93427
1.93124
1.93126
1.89868
1.89863
1.8943
1.89425
2.02756
2.22266
2.02487
2.22064
1.99876
2.21393
1.99461
2.2103
2.5355
2.71599
2.53458
2.71568
2.57476
2.78056
2.57198
2.77823
2.71107
2.53239
2.71391
2.53457
2.77955
2.57525
2.78086
2.57603
2.22228
2.02878
2.22335
2.02916
2.21664
2.00266
2.21647
2.0019
1.93623
1.93625
1.93628
1.93631
1.903
1.90296
1.90197
1.90192
2.0289
2.22259
2.02927
2.22365
2.00255
2.21657
2.0018
2.2164
2.53309
2.71227
2.53526
2.71511
2.57544
2.78019
2.57621
2.78149
2.70137
2.52413
2.70712
2.52916
2.77239
2.56937
2.77701
2.57334
2.21648
2.02448
2.22034
2.0276
2.21295
2.00027
2.21585
2.0025
1.93264
1.93267
1.9354
1.93543
1.90121
1.90116
1.90313
1.90308
2.0246
2.21679
2.02771
2.22065
2.00017
2.21289
2.00239
2.21579
2.52484
2.70258
2.52986
2.70833
2.56957
2.77303
2.57353
2.77765
2.68628
2.5106
2.69468
2.51822
2.75899
2.55746
2.76668
2.5644
2.20546
2.015
2.21188
2.02066
2.20341
1.99216
2.20919
1.99722
1.92389
1.92392
1.92918
1.92921
1.89377
1.89373
1.89849
1.89844
2.01512
2.20578
2.02078
2.2122
1.99206
2.20336
1.99712
2.20914
2.51131
2.6875
2.51893
2.69589
2.55767
2.75965
2.5646
2.76734
2.66616
2.49219
2.67703
2.50219
2.73981
2.53999
2.75034
2.54965
2.18964
2.0008
2.19841
2.00877
2.18851
1.97881
2.19692
1.98643
1.91046
1.91049
1.91804
1.91807
1.88117
1.88113
1.88841
1.88837
2.00092
2.18996
2.00889
2.19873
1.97872
2.18846
1.98634
2.19687
2.49291
2.66739
2.50291
2.67825
2.5402
2.74047
2.54986
2.75101
2.64133
2.46921
2.65452
2.48147
2.71519
2.51733
2.7284
2.52954
2.16937
1.98222
2.18032
1.99233
2.16863
1.96064
2.17948
1.97063
1.89269
1.89272
1.9024
1.90243
1.8638
1.86376
1.87338
1.87334
1.98234
2.16969
1.99246
2.18065
1.96055
2.16859
1.97054
2.17944
2.46994
2.64255
2.48219
2.65575
2.51755
2.71586
2.52976
2.72907
2.61204
2.44197
2.62743
2.45633
2.68544
2.4898
2.70119
2.50441
2.14494
1.95955
2.15794
1.97168
2.1441
1.93795
2.15724
1.95017
1.87088
1.87092
1.88258
1.88261
1.842
1.84196
1.85376
1.85372
1.95968
2.14526
1.97181
2.15827
1.93787
2.14406
1.95008
2.1572
2.44269
2.61326
2.45705
2.62865
2.49002
2.68611
2.50463
2.70186
2.57854
2.41069
2.59601
2.42703
2.65083
2.45766
2.66897
2.47455
2.11658
1.93305
2.13152
1.94706
2.11517
1.91101
2.13048
1.92532
1.84527
1.84531
1.85884
1.85887
1.816
1.81596
1.82983
1.82979
1.93318
2.11691
1.94719
2.13185
1.91093
2.11514
1.92524
2.13044
2.41141
2.57975
2.42775
2.59722
2.45789
2.65149
2.47477
2.66964
2.54102
2.37557
2.56047
2.39381
2.61156
2.42114
2.632
2.44019
2.0845
1.9029
2.10127
1.91871
2.08207
1.88003
2.09944
1.89633
1.81606
1.81609
1.8314
1.83143
1.78604
1.786
1.80182
1.80178
1.90303
2.08483
1.91884
2.1016
1.87995
2.08204
1.89625
2.09941
2.37629
2.54222
2.39452
2.56168
2.42137
2.61222
2.44041
2.63267
2.49968
2.33681
2.52101
2.35684
2.56784
2.38044
2.59049
2.40155
2.04887
1.86927
2.0674
1.8868
2.04498
1.84519
2.06432
1.8634
1.7834
1.78343
1.80044
1.80047
1.75227
1.75224
1.76993
1.7699
1.8694
2.0492
1.88693
2.06772
1.84512
2.04495
1.86332
2.06429
2.33751
2.50086
2.35755
2.5222
2.38066
2.5685
2.40177
2.59114
2.45469
2.29457
2.47782
2.31632
2.51987
2.33572
2.54461
2.35881
2.00984
1.8323
2.03005
1.85148
2.00406
1.80665
2.02529
1.82668
1.74744
1.74747
1.76611
1.76614
1.71486
1.71483
1.73433
1.73429
1.83242
2.01016
1.8516
2.03037
1.80657
2.00404
1.82661
2.02527
2.29526
2.45585
2.31702
2.47899
2.33594
2.52051
2.35904
2.54526
2.40623
2.24899
2.43107
2.27238
2.46782
2.28714
2.49457
2.31214
1.96755
1.79211
1.98936
1.81288
1.95945
1.76452
1.98251
1.78633
1.70828
1.70831
1.72853
1.72856
1.67393
1.6739
1.69513
1.6951
1.79224
1.96786
1.813
1.98968
1.76445
1.95943
1.78625
1.98248
2.24967
2.40737
2.27307
2.43222
2.28736
2.46845
2.31236
2.49521
2.35451
2.20025
2.38095
2.2252
2.41189
2.23488
2.44055
2.26169
1.92212
1.74882
1.94548
1.77112
1.91129
1.71893
1.9361
1.74245
1.66604
1.66607
1.68782
1.68785
1.62958
1.62955
1.65247
1.65244
1.74894
1.92242
1.77124
1.94579
1.71886
1.91127
1.74238
1.93608
2.20092
2.35562
2.22587
2.38208
2.23509
2.4125
2.26191
2.44117
2.29973
2.14852
2.32767
2.17494
2.35229
2.1791
2.38275
2.20764
1.87368
1.70253
1.89852
1.72631
1.85971
1.66999
1.8862
1.69517
1.62082
1.62085
1.64407
1.6441
1.58191
1.58188
1.60644
1.60641
1.70265
1.87398
1.72643
1.89882
1.66992
1.85968
1.69509
1.88618
2.14917
2.30081
2.1756
2.32876
2.17931
2.35288
2.20785
2.38336
2.24212
2.09398
2.27143
2.12176
2.28923
2.11995
2.32139
2.15016
1.82237
1.65335
1.84863
1.67856
1.80482
1.61779
1.83294
1.64457
1.57269
1.57272
1.59737
1.5974
1.53101
1.53098
1.55714
1.55711
1.65347
1.82266
1.67867
1.84892
1.61772
1.80479
1.6445
1.83292
2.09461
2.24317
2.1224
2.2725
2.12016
2.28981
2.15037
2.32197
2.18193
2.03685
2.21249
2.0659
2.22298
2.05762
2.25669
2.08938
1.76834
1.6014
1.79593
1.62797
1.74675
1.56243
1.77644
1.59077
1.52177
1.52179
1.54783
1.54785
1.47696
1.47693
1.50465
1.50461
1.6015
1.76861
1.62807
1.79621
1.56236
1.74672
1.5907
1.77641
2.03746
2.18294
2.06652
2.21352
2.05781
2.22353
2.08957
2.25726
2.11949
1.97736
2.15113
2.00755
2.15382
1.99235
2.18894
2.02554
1.71176
1.54678
1.74059
1.57465
1.68566
1.50403
1.71683
1.53387
1.46814
1.46816
1.49553
1.49555
1.41987
1.41983
1.44906
1.44902
1.54688
1.71201
1.57476
1.74085
1.50396
1.68563
1.5338
1.7168
1.97794
2.12046
2.00814
2.15212
1.99253
2.15435
2.02572
2.18948
2.05526
1.91587
2.08771
1.947
2.08213
1.92442
2.11845
1.95888
1.65285
1.48965
1.6828
1.51875
1.62174
1.44269
1.65429
1.47397
1.41191
1.41193
1.44058
1.4406
1.3598
1.35977
1.39045
1.39042
1.48974
1.65309
1.51885
1.68305
1.44262
1.62171
1.4739
1.65426
1.91642
2.05618
1.94757
2.08866
1.92459
2.08263
1.95906
2.11896
1.98995
1.85293
2.02282
1.88469
2.00852
1.85428
2.04569
1.88977
1.59194
1.43015
1.62284
1.46042
1.55524
1.37854
1.58904
1.41121
1.35314
1.35315
1.38307
1.38309
1.2968
1.29677
1.32891
1.32888
1.43023
1.59216
1.46051
1.62307
1.37847
1.5552
1.41114
1.589
1.85346
1.99083
1.88523
2.02372
1.85444
2.00899
1.88993
2.04618
1.92498
1.7895
1.95742
1.82134
1.93417
1.78273
1.97149
1.81879
1.5294
1.36828
1.56106
1.39975
1.48645
1.31155
1.52135
1.34565
1.29164
1.29165
1.32298
1.32299
1.2307
1.23067
1.2644
1.26437
1.36835
1.52961
1.39982
1.56127
1.31148
1.48641
1.34558
1.5213
1.79
1.92581
1.82185
1.95828
1.78287
1.93461
1.81894
1.97194
1.86383
1.72728
1.89368
1.75825
1.86211
1.71113
1.89768
1.747
1.46537
1.30342
1.49781
1.33653
1.41539
1.24112
1.45147
1.27708
1.22653
1.22654
1.25985
1.25986
1.16072
1.16068
1.19651
1.19648
1.30348
1.46555
1.33659
1.498
1.24104
1.41533
1.277
1.45142
1.72773
1.86461
1.75872
1.89449
1.71124
1.86252
1.74713
1.8981
1.81812
1.66747
1.83764
1.69733
1.80272
1.63988
1.8296
1.67584
1.39754
1.23296
1.43252
1.26939
1.33954
1.16472
1.37869
1.20417
1.15549
1.1555
1.19217
1.19218
1.08469
1.08465
1.12387
1.12384
1.233
1.39769
1.26944
1.43269
1.16463
1.33947
1.20409
1.37863
1.66787
1.81884
1.69776
1.83839
1.63997
1.80308
1.67594
1.82998
1.8415
1.58738
1.81424
1.63551
1.80811
1.54407
1.79028
1.60093
1.31278
1.1509
1.35908
1.19398
1.24529
1.07635
1.29659
1.12266
1.07502
1.07502
1.11679
1.1168
0.999189
0.999153
1.04351
1.04347
1.15092
1.31289
1.19401
1.35921
1.07626
1.2452
1.12257
1.29651
1.58773
1.84218
1.63589
1.81493
1.54412
1.80843
1.601
1.79062
1.11167
0.947888
0.870731
0.743892
1.01799
0.859493
0.774447
0.655676
0.640554
0.465289
0.468802
0.319966
0.557404
0.389172
0.390962
0.252366
0.386921
0.386781
0.256137
0.255997
0.315283
0.315154
0.194472
0.194351
0.464886
0.639969
0.319544
0.468136
0.388795
0.556836
0.251994
0.390352
0.947324
1.11131
0.74315
0.870122
0.858907
1.01756
0.654959
0.773823
1.46462
1.28138
1.30511
1.1271
1.36882
1.18691
1.21056
1.03563
0.952475
0.755748
0.803319
0.61355
0.857461
0.663765
0.713909
0.528972
0.664471
0.664363
0.526823
0.526696
0.575008
0.574896
0.445655
0.445532
0.755454
0.952104
0.613197
0.802838
0.663455
0.857044
0.528623
0.713412
1.28114
1.46465
1.1267
1.30495
1.18658
1.36871
1.03518
1.2103
1.7281
1.54313
1.60423
1.41923
1.63157
1.44521
1.50765
1.32253
1.21545
1.01461
1.08977
0.889921
1.11271
0.9119
0.99026
0.791867
0.919723
0.919654
0.796223
0.796134
0.818018
0.817934
0.699892
0.699794
1.01443
1.21529
0.889688
1.0895
0.911678
1.11245
0.7916
0.989925
1.54319
1.72847
1.41915
1.60444
1.44512
1.63176
1.32232
1.5077
1.93953
1.75719
1.83933
1.65543
1.84542
1.65954
1.74366
1.55724
1.43635
1.23681
1.33092
1.13037
1.33037
1.12838
1.22606
1.02425
1.14155
1.14151
1.03507
1.03502
1.03287
1.03281
0.929288
0.929218
1.23674
1.43637
1.13025
1.33085
1.12825
1.33026
1.02407
1.22588
1.75749
1.94018
1.65562
1.83985
1.65966
1.84586
1.55726
1.74398
2.11284
1.93425
2.03048
1.84999
2.02336
1.83948
1.93848
1.75353
1.6214
1.42495
1.53319
1.33509
1.51539
1.31445
1.42686
1.22526
1.33055
1.33055
1.24018
1.24016
1.21874
1.21871
1.12953
1.12949
1.42497
1.62157
1.33507
1.53328
1.31439
1.51541
1.22516
1.42682
1.93475
2.11372
1.8504
2.03125
1.83978
2.02401
1.75375
1.93904
2.25583
2.08104
2.18785
2.01121
2.17218
1.99067
2.1012
1.91852
1.77589
1.583
1.70235
1.50768
1.67187
1.47281
1.59714
1.3971
1.4899
1.48992
1.41391
1.41392
1.37753
1.37752
1.30156
1.30154
1.5831
1.77617
1.50774
1.70258
1.47281
1.672
1.39708
1.59722
2.0817
2.25689
2.0118
2.18883
1.99111
2.17301
1.91889
2.10195
2.37369
2.20243
2.31774
2.14478
2.29634
2.11716
2.23723
2.05692
1.90428
1.71492
1.84329
1.65221
1.8034
1.60648
1.74074
1.54276
1.62323
1.62327
1.55982
1.55985
1.5119
1.51191
1.44781
1.44781
1.71507
1.90465
1.65234
1.84362
1.60653
1.8036
1.54279
1.74091
2.20321
2.3749
2.1455
2.31888
2.11771
2.2973
2.05742
2.23813
2.47033
2.30224
2.42458
2.25497
2.39926
2.22229
2.3504
2.17236
2.01034
1.82429
1.9601
1.77244
1.91316
1.71841
1.86103
1.66521
1.73401
1.73406
1.68147
1.68152
1.62465
1.62467
1.57104
1.57106
1.8245
2.01079
1.77263
1.96051
1.71851
1.91343
1.66529
1.86127
2.30311
2.47166
2.2558
2.42585
2.22293
2.40034
2.17297
2.35143
2.54875
2.38349
2.51177
2.34515
2.48369
2.30875
2.44376
2.26784
2.09717
1.91418
2.05619
1.87173
2.00388
1.81125
1.96095
1.7673
1.82523
1.8253
1.78212
1.78219
1.71834
1.71837
1.67396
1.67399
1.91443
2.09768
1.87196
2.05668
1.81139
2.00421
1.76741
1.96126
2.38444
2.55017
2.34606
2.51314
2.30947
2.48486
2.26853
2.44488
2.61155
2.44881
2.5821
2.41815
2.5521
2.37902
2.51991
2.34594
2.16747
1.98729
2.13445
1.95292
2.07803
1.88744
2.04312
1.85154
1.89958
1.89966
1.86461
1.86468
1.79538
1.79542
1.75905
1.75909
1.98756
2.16803
1.95318
2.135
1.8876
2.07842
1.85168
2.04347
2.44982
2.61304
2.41914
2.58355
2.3798
2.55335
2.3467
2.52112
2.66079
2.50032
2.63787
2.47632
2.60648
2.43513
2.58107
2.40889
2.22347
2.04586
2.19735
2.0185
2.13772
1.94907
2.1098
1.92021
1.95931
1.9594
1.93139
1.93148
1.85784
1.85789
1.82856
1.82861
2.04616
2.22407
2.01879
2.19793
1.94926
2.13814
1.92038
2.1102
2.50139
2.66234
2.47736
2.63939
2.43596
2.60779
2.4097
2.58235
2.69828
2.53989
2.68105
2.52166
2.64863
2.47888
2.62914
2.45862
2.2671
2.09187
2.24695
2.07058
2.18481
1.99801
2.16298
1.97528
2.00641
2.00651
1.98459
1.98468
1.90759
1.90765
1.88446
1.88452
2.09219
2.26774
2.07089
2.24758
1.99821
2.18526
1.97548
2.16342
2.541
2.69989
2.52275
2.68263
2.47976
2.64999
2.45948
2.63048
2.7255
2.56902
2.71322
2.55582
2.68001
2.51179
2.66572
2.49677
2.29996
2.12695
2.28501
2.11093
2.22085
2.03583
2.20436
2.01848
2.04251
2.04261
2.026
2.0261
1.94621
1.94628
1.92847
1.92853
2.12729
2.30063
2.11127
2.28567
2.03605
2.22133
2.01869
2.20483
2.57017
2.72715
2.55696
2.71485
2.51271
2.68142
2.49767
2.66711
2.74377
2.58907
2.73582
2.58026
2.70197
2.53522
2.69225
2.52479
2.32346
2.15251
2.31304
2.14109
2.24724
2.06393
2.23542
2.05128
2.06904
2.06915
2.05715
2.05726
1.9751
1.97517
1.96207
1.96213
2.15287
2.32415
2.14144
2.31372
2.06417
2.24774
2.05151
2.23591
2.59025
2.74546