/*--------------------------------*- C++ -*----------------------------------*\
  =========                 |
  \\      /  F ield         | OpenFOAM: The Open Source CFD Toolbox
   \\    /   O peration     | Website:  https://openfoam.org
    \\  /    A nd           | Version:  9
     \\/     M anipulation  |
\*---------------------------------------------------------------------------*/
FoamFile
{
    format      ascii;
    class       volScalarField;
    location    "4.55";
    object      p;
}
// * * * * * * * * * * * * * * * * * * * * * * * * * * * * * * * * * * * * * //

dimensions      [0 2 -2 0 0 0 0];

internalField   nonuniform List<scalar> 
36360
(
20.1264
20.0811
20.12
20.0855
20.0913
20.1082
20.0941
20.1024
20.099
20.1004
20.0996
20.1005
20.099
20.0991
20.0983
20.0988
20.1004
20.1004
20.1006
20.1006
20.0992
20.0992
20.099
20.099
20.1004
20.099
20.1005
20.0996
20.0991
20.099
20.0988
20.0983
20.0811
20.1263
20.0855
20.1199
20.1082
20.0914
20.1024
20.0941
20.1098
20.095
20.1173
20.0891
20.0673
20.1315
20.0797
20.1204
20.1002
20.0994
20.0995
20.1
20.1012
20.0984
20.1
20.0988
20.0993
20.0993
20.1
20.1
20.0982
20.0982
20.0989
20.0989
20.0993
20.1002
20.1
20.0994
20.0984
20.1012
20.0988
20.0999
20.095
20.1098
20.0891
20.1173
20.1315
20.0674
20.1203
20.0797
20.0959
20.1048
20.1028
20.1002
20.0439
20.1513
20.0553
20.142
20.104
20.0989
20.1018
20.099
20.1058
20.0982
20.1033
20.0982
20.0979
20.0979
20.0986
20.0986
20.0971
20.0971
20.0976
20.0976
20.0989
20.104
20.099
20.1018
20.0982
20.1058
20.0982
20.1033
20.1047
20.0959
20.1002
20.1028
20.1513
20.044
20.1419
20.0554
20.0832
20.1117
20.0893
20.1086
20.0234
20.1665
20.0332
20.1595
20.1091
20.0995
20.1065
20.0991
20.1116
20.0988
20.1086
20.0984
20.0969
20.0969
20.0973
20.0973
20.0963
20.0964
20.0967
20.0967
20.0995
20.109
20.0991
20.1065
20.0988
20.1114
20.0984
20.1086
20.1117
20.0832
20.1086
20.0893
20.1664
20.0234
20.1594
20.0333
20.0722
20.1161
20.0775
20.1142
20.0061
20.1774
20.0143
20.1724
20.1141
20.1008
20.1116
20.1001
20.1173
20.1001
20.1144
20.0994
20.0964
20.0964
20.0966
20.0966
20.096
20.096
20.0962
20.0961
20.1008
20.114
20.1
20.1116
20.1001
20.1172
20.0994
20.1145
20.1161
20.0722
20.1142
20.0775
20.1773
20.0062
20.1723
20.0144
20.063
20.1187
20.0674
20.1176
19.9918
20.1851
19.9986
20.1816
20.1185
20.1025
20.1164
20.1016
20.1223
20.1017
20.1199
20.1009
20.0963
20.0963
20.0963
20.0963
20.0961
20.0961
20.096
20.096
20.1024
20.1185
20.1016
20.1164
20.1017
20.1223
20.1009
20.1199
20.1187
20.063
20.1176
20.0674
20.185
19.9919
20.1815
19.9987
20.0553
20.1201
20.059
20.1195
19.98
20.1905
19.9856
20.188
20.1223
20.1042
20.1205
20.1033
20.1266
20.1035
20.1246
20.1026
20.0966
20.0966
20.0964
20.0964
20.0965
20.0965
20.0962
20.0962
20.1042
20.1223
20.1033
20.1205
20.1035
20.1266
20.1026
20.1245
20.1201
20.0553
20.1195
20.059
20.1904
19.9801
20.188
19.9857
20.0489
20.1206
20.0519
20.1204
19.9703
20.1942
19.9749
20.1925
20.1253
20.1059
20.1239
20.1051
20.13
20.1052
20.1284
20.1043
20.0972
20.0972
20.0969
20.0969
20.0971
20.0971
20.0968
20.0968
20.1059
20.1253
20.1051
20.1238
20.1052
20.13
20.1043
20.1284
20.1206
20.0489
20.1204
20.052
20.1942
19.9704
20.1925
19.975
20.0435
20.1206
20.0461
20.1206
19.9623
20.1968
19.9661
20.1956
20.1276
20.1075
20.1265
20.1067
20.1327
20.1067
20.1314
20.106
20.098
20.098
20.0976
20.0976
20.0979
20.0979
20.0975
20.0975
20.1074
20.1276
20.1067
20.1265
20.1067
20.1327
20.106
20.1314
20.1206
20.0435
20.1206
20.0461
20.1968
19.9624
20.1956
19.9662
20.0389
20.1202
20.0411
20.1204
19.9556
20.1985
19.9588
20.1978
20.1294
20.1088
20.1286
20.1082
20.1348
20.108
20.1338
20.1074
20.0988
20.0988
20.0984
20.0984
20.0987
20.0987
20.0983
20.0983
20.1088
20.1294
20.1081
20.1286
20.108
20.1347
20.1074
20.1338
20.1202
20.039
20.1204
20.0411
20.1985
19.9557
20.1977
19.9589
20.0351
20.1196
20.0369
20.12
19.95
20.1996
19.9527
20.1991
20.1308
20.1099
20.1302
20.1094
20.1363
20.1091
20.1356
20.1086
20.0995
20.0995
20.0992
20.0992
20.0994
20.0994
20.099
20.099
20.1099
20.1307
20.1093
20.1301
20.1091
20.1363
20.1086
20.1356
20.1197
20.0352
20.12
20.037
20.1996
19.9501
20.1991
19.9528
20.0318
20.1189
20.0334
20.1194
19.9454
20.2002
19.9476
20.2
20.1318
20.1107
20.1312
20.1103
20.1374
20.11
20.1369
20.1096
20.1002
20.1002
20.0999
20.0999
20.1001
20.1001
20.0998
20.0998
20.1107
20.1317
20.1104
20.1314
20.1099
20.1374
20.1096
20.1369
20.119
20.0319
20.1192
20.0334
20.2002
19.9455
20.1999
19.9477
20.029
20.1182
20.0304
20.1186
19.9415
20.2005
19.9434
20.2004
20.1324
20.1114
20.1321
20.1111
20.1382
20.1106
20.1379
20.1103
20.1008
20.1008
20.1005
20.1005
20.1006
20.1006
20.1004
20.1004
20.1113
20.1324
20.1111
20.1321
20.1106
20.1382
20.1103
20.1378
20.1182
20.029
20.1185
20.0304
20.2004
19.9416
20.2003
19.9435
20.0266
20.1173
20.0277
20.1178
19.9383
20.2004
19.9398
20.2005
20.1328
20.1118
20.1327
20.1116
20.1386
20.111
20.1385
20.1108
20.1012
20.1012
20.101
20.101
20.101
20.101
20.1008
20.1008
20.1118
20.1328
20.1116
20.1326
20.111
20.1386
20.1108
20.1384
20.1173
20.0266
20.1178
20.0278
20.2004
19.9384
20.2004
19.9399
20.0245
20.1165
20.0255
20.1169
19.9355
20.2001
19.9368
20.2003
20.133
20.112
20.133
20.1119
20.1388
20.1112
20.1388
20.1112
20.1014
20.1014
20.1013
20.1013
20.1012
20.1012
20.1011
20.1011
20.112
20.133
20.1119
20.1329
20.1112
20.1388
20.1111
20.1387
20.1165
20.0245
20.1169
20.0255
20.2001
19.9356
20.2003
19.9369
20.0227
20.1157
20.0235
20.1161
19.9333
20.1997
19.9344
20.1999
20.133
20.1121
20.133
20.112
20.1388
20.1113
20.1388
20.1113
20.1015
20.1015
20.1015
20.1015
20.1012
20.1012
20.1012
20.1012
20.112
20.133
20.112
20.133
20.1112
20.1387
20.1113
20.1388
20.1156
20.0227
20.1161
20.0236
20.1996
19.9334
20.1999
19.9345
20.0211
20.1148
20.0219
20.1152
19.9314
20.199
19.9323
20.1994
20.1328
20.1119
20.1329
20.112
20.1385
20.1111
20.1387
20.1112
20.1015
20.1015
20.1015
20.1015
20.1011
20.1011
20.1012
20.1012
20.1119
20.1328
20.112
20.1329
20.1111
20.1385
20.1112
20.1386
20.1148
20.0211
20.1152
20.0219
20.199
19.9315
20.1993
19.9324
20.0197
20.114
20.0204
20.1144
19.9299
20.1982
19.9306
20.1987
20.1325
20.1117
20.1327
20.1118
20.138
20.1108
20.1383
20.111
20.1013
20.1013
20.1014
20.1014
20.1009
20.1009
20.101
20.101
20.1117
20.1324
20.1118
20.1326
20.1107
20.138
20.1109
20.1382
20.1139
20.0198
20.1143
20.0204
20.1982
19.9299
20.1986
19.9307
20.0186
20.1131
20.0191
20.1136
19.9286
20.1973
19.9292
20.1978
20.1319
20.1113
20.1322
20.1115
20.1374
20.1103
20.1377
20.1105
20.101
20.101
20.1012
20.1012
20.1005
20.1005
20.1007
20.1007
20.1113
20.1319
20.1115
20.1322
20.1103
20.1373
20.1105
20.1377
20.1131
20.0186
20.1136
20.0191
20.1972
19.9287
20.1977
19.9293
20.0176
20.1124
20.018
20.1128
19.9277
20.1962
19.9281
20.1968
20.1311
20.1108
20.1315
20.111
20.1365
20.1097
20.137
20.11
20.1006
20.1006
20.1008
20.1008
20.0999
20.0999
20.1002
20.1002
20.1108
20.131
20.111
20.1315
20.1096
20.1365
20.11
20.1369
20.1124
20.0176
20.1128
20.0181
20.1962
19.9278
20.1967
19.9282
20.0167
20.1116
20.0171
20.112
19.927
20.1951
19.9273
20.1957
20.1302
20.1102
20.1306
20.1105
20.1355
20.1089
20.136
20.1093
20.1001
20.1001
20.1004
20.1004
20.0993
20.0993
20.0996
20.0996
20.1102
20.1302
20.1105
20.1306
20.1089
20.1355
20.1093
20.136
20.1116
20.0168
20.112
20.0172
20.1951
19.9271
20.1957
19.9274
20.0161
20.1109
20.0164
20.1112
19.9265
20.1939
19.9267
20.1945
20.1292
20.1095
20.1297
20.1098
20.1344
20.1081
20.135
20.1085
20.0996
20.0996
20.0999
20.0999
20.0986
20.0986
20.0989
20.0989
20.1095
20.1292
20.1098
20.1297
20.1081
20.1344
20.1085
20.135
20.1109
20.0161
20.1112
20.0164
20.1938
19.9266
20.1945
19.9268
20.0156
20.1102
20.0158
20.1105
19.9263
20.1926
19.9264
20.1932
20.1283
20.1088
20.1288
20.1091
20.1332
20.1072
20.1339
20.1076
20.099
20.099
20.0993
20.0993
20.0978
20.0978
20.0982
20.0982
20.1088
20.1282
20.1091
20.1287
20.1072
20.1332
20.1076
20.1338
20.1102
20.0156
20.1105
20.0159
20.1925
19.9264
20.1932
19.9265
20.0153
20.1095
20.0154
20.1099
19.9264
20.1912
19.9263
20.1919
20.1273
20.1081
20.1278
20.1084
20.132
20.1062
20.1326
20.1067
20.0985
20.0984
20.0987
20.0987
20.097
20.097
20.0974
20.0974
20.1081
20.1272
20.1084
20.1277
20.1062
20.132
20.1067
20.1326
20.1095
20.0154
20.1099
20.0155
20.1911
19.9265
20.1918
19.9264
20.0152
20.109
20.0152
20.1093
19.9267
20.1897
19.9265
20.1905
20.1263
20.1074
20.1268
20.1077
20.1307
20.1052
20.1313
20.1057
20.0979
20.0979
20.0982
20.0982
20.0961
20.0961
20.0966
20.0966
20.1073
20.1263
20.1077
20.1268
20.1052
20.1307
20.1057
20.1313
20.109
20.0153
20.1093
20.0153
20.1897
19.9268
20.1904
19.9266
20.0154
20.1085
20.0153
20.1087
19.9274
20.1883
19.927
20.189
20.1253
20.1067
20.1258
20.107
20.1294
20.1043
20.13
20.1048
20.0974
20.0974
20.0976
20.0976
20.0954
20.0954
20.0957
20.0957
20.1067
20.1253
20.107
20.1258
20.1043
20.1293
20.1047
20.13
20.1085
20.0154
20.1087
20.0153
20.1882
19.9275
20.189
19.9271
20.0158
20.1081
20.0155
20.1083
19.9283
20.1868
19.9278
20.1875
20.1244
20.1061
20.1248
20.1064
20.128
20.1034
20.1287
20.1038
20.097
20.097
20.0972
20.0972
20.0946
20.0946
20.095
20.095
20.1061
20.1244
20.1064
20.1248
20.1033
20.128
20.1038
20.1287
20.1081
20.0158
20.1083
20.0156
20.1868
19.9284
20.1875
19.9279
20.0164
20.1078
20.016
20.108
19.9296
20.1853
19.9289
20.186
20.1235
20.1056
20.1239
20.1058
20.1267
20.1025
20.1274
20.1029
20.0967
20.0967
20.0968
20.0968
20.094
20.094
20.0943
20.0943
20.1056
20.1235
20.1058
20.1239
20.1025
20.1267
20.1029
20.1274
20.1078
20.0165
20.1079
20.0161
20.1853
19.9297
20.186
19.929
20.0173
20.1075
20.0168
20.1077
19.9313
20.1838
19.9304
20.1845
20.1228
20.1052
20.1231
20.1053
20.1255
20.1018
20.1261
20.1021
20.0966
20.0966
20.0966
20.0966
20.0936
20.0936
20.0938
20.0938
20.1052
20.1226
20.1053
20.1231
20.1018
20.1254
20.1021
20.1261
20.1077
20.0174
20.1077
20.0169
20.1838
19.9314
20.1845
19.9305
20.0186
20.1074
20.018
20.1077
19.9334
20.1823
19.9323
20.183
20.1222
20.105
20.1223
20.105
20.1243
20.1012
20.1249
20.1015
20.0967
20.0967
20.0966
20.0966
20.0933
20.0933
20.0934
20.0934
20.1049
20.1218
20.1051
20.1225
20.1012
20.1243
20.1015
20.1249
20.1077
20.0187
20.1074
20.0179
20.1823
19.9335
20.183
19.9324
20.0202
20.1074
20.0194
20.1077
19.9359
20.1808
19.9346
20.1816
20.1216
20.1049
20.1216
20.1049
20.1232
20.1008
20.1237
20.101
20.0969
20.0969
20.0968
20.0968
20.0932
20.0932
20.0932
20.0932
20.1048
20.1213
20.1049
20.1219
20.1008
20.1232
20.101
20.1237
20.1077
20.0203
20.1074
20.0194
20.1808
19.936
20.1815
19.9347
20.0221
20.1076
20.0211
20.1078
19.939
20.1793
19.9374
20.1801
20.1211
20.105
20.121
20.1049
20.1222
20.1006
20.1227
20.1007
20.0975
20.0974
20.0972
20.0972
20.0934
20.0934
20.0933
20.0933
20.105
20.1208
20.1049
20.1213
20.1006
20.1222
20.1007
20.1227
20.1078
20.0222
20.1075
20.0211
20.1793
19.9391
20.18
19.9375
20.0244
20.1078
20.0232
20.1079
19.9425
20.1778
19.9407
20.1786
20.1207
20.1053
20.1206
20.1051
20.1214
20.1007
20.1218
20.1006
20.0982
20.0982
20.0978
20.0978
20.0939
20.0939
20.0936
20.0936
20.1053
20.1205
20.1051
20.1209
20.1007
20.1214
20.1006
20.1218
20.108
20.0245
20.1076
20.0232
20.1778
19.9426
20.1786
19.9408
20.0272
20.1082
20.0258
20.1081
19.9467
20.1763
19.9445
20.1771
20.1203
20.1058
20.1203
20.1055
20.1208
20.101
20.1211
20.1008
20.0991
20.0992
20.0986
20.0986
20.0946
20.0946
20.0942
20.0942
20.1058
20.1203
20.1056
20.1206
20.101
20.1208
20.1008
20.1211
20.1081
20.0272
20.1079
20.0257
20.1762
19.9468
20.177
19.9446
20.0303
20.1083
20.0286
20.1081
19.9515
20.1746
19.949
20.1754
20.1202
20.1066
20.1204
20.1062
20.1203
20.1017
20.1205
20.1013
20.1004
20.1004
20.0997
20.0997
20.0957
20.0957
20.0951
20.0951
20.1066
20.1202
20.1062
20.1204
20.1017
20.1203
20.1013
20.1205
20.1083
20.0303
20.1081
20.0286
20.1745
19.9516
20.1754
19.9491
20.0338
20.1085
20.032
20.1082
19.9571
20.1726
19.9542
20.1736
20.1203
20.1076
20.1205
20.1071
20.1201
20.1026
20.1202
20.1021
20.1018
20.1018
20.1011
20.101
20.097
20.097
20.0963
20.0963
20.1076
20.1203
20.1071
20.1204
20.1026
20.1201
20.1021
20.1202
20.1085
20.0338
20.1082
20.032
20.1726
19.9571
20.1736
19.9542
20.0377
20.1087
20.0357
20.1083
19.9637
20.1702
19.9602
20.1715
20.1205
20.1088
20.1206
20.1082
20.12
20.1038
20.12
20.1032
20.1034
20.1034
20.1026
20.1026
20.0986
20.0986
20.0978
20.0977
20.1088
20.1204
20.1082
20.1206
20.1038
20.12
20.1032
20.12
20.1087
20.0377
20.1083
20.0357
20.1701
19.9637
20.1714
19.9603
20.0408
20.1098
20.0395
20.1087
19.9716
20.1667
19.9674
20.1686
20.1208
20.1103
20.1209
20.1096
20.1202
20.1053
20.1201
20.1045
20.1052
20.1052
20.1043
20.1043
20.1004
20.1004
20.0995
20.0995
20.1103
20.1208
20.1096
20.1209
20.1053
20.1201
20.1045
20.1201
20.1098
20.0408
20.1087
20.0395
20.1667
19.9717
20.1686
19.9675
20.0434
20.1108
20.0407
20.1118
19.981
20.1618
19.9761
20.1645
20.1222
20.1121
20.1214
20.1112
20.1209
20.1072
20.1204
20.1062
20.1072
20.1072
20.1062
20.1062
20.1025
20.1025
20.1014
20.1014
20.1121
20.1222
20.1112
20.1214
20.1072
20.1209
20.1062
20.1204
20.1108
20.0434
20.1118
20.0407
20.1618
19.9811
20.1645
19.9762
20.1584
20.057
20.1376
20.0705
20.1465
20.0639
20.1295
20.0752
20.0912
20.0996
20.0953
20.0999
20.0947
20.0997
20.0969
20.0995
20.1001
20.1001
20.1001
20.1001
20.0998
20.0998
20.0995
20.0995
20.0996
20.0912
20.1
20.0952
20.0997
20.0947
20.0995
20.0969
20.057
20.1583
20.0704
20.1375
20.0639
20.1464
20.0752
20.1294
20.1471
20.0723
20.1508
20.067
20.1364
20.0757
20.1404
20.0713
20.0889
20.0975
20.09
20.0987
20.0937
20.0986
20.0942
20.0993
20.0993
20.0993
20.0999
20.0999
20.0992
20.0992
20.0997
20.0997
20.0975
20.0889
20.0987
20.09
20.0986
20.0937
20.0993
20.0942
20.0723
20.1471
20.067
20.1508
20.0757
20.1364
20.0713
20.1404
20.1428
20.0771
20.1448
20.0753
20.1295
20.0808
20.133
20.0787
20.0897
20.0963
20.0891
20.0967
20.0953
20.0979
20.0943
20.0982
20.0979
20.0979
20.0986
20.0986
20.098
20.098
20.0986
20.0986
20.0963
20.0897
20.0967
20.0891
20.0979
20.0953
20.0982
20.0943
20.0771
20.1428
20.0753
20.1448
20.0808
20.1295
20.0787
20.1329
20.1394
20.0784
20.1411
20.078
20.1232
20.0832
20.1263
20.0822
20.0916
20.0963
20.0906
20.0962
20.0985
20.0982
20.0968
20.098
20.0967
20.0967
20.0973
20.0973
20.097
20.097
20.0974
20.0974
20.0963
20.0916
20.0962
20.0906
20.0982
20.0985
20.098
20.0968
20.0784
20.1394
20.078
20.141
20.0832
20.1232
20.0822
20.1262
20.1366
20.078
20.138
20.0783
20.1176
20.0838
20.1203
20.0836
20.0935
20.097
20.0926
20.0966
20.1018
20.0992
20.1002
20.0986
20.0962
20.0962
20.0964
20.0964
20.0965
20.0965
20.0966
20.0966
20.097
20.0935
20.0966
20.0926
20.0992
20.1018
20.0986
20.1002
20.078
20.1366
20.0783
20.1379
20.0838
20.1176
20.0836
20.1203
20.1342
20.0769
20.1353
20.0775
20.1129
20.0835
20.1151
20.0838
20.095
20.098
20.0943
20.0975
20.1045
20.1005
20.1032
20.0998
20.0962
20.0962
20.0961
20.0961
20.0965
20.0965
20.0964
20.0964
20.098
20.095
20.0975
20.0943
20.1005
20.1044
20.0998
20.1032
20.0769
20.1341
20.0775
20.1353
20.0835
20.1128
20.0838
20.1151
20.132
20.0754
20.1331
20.0761
20.1088
20.0827
20.1107
20.0832
20.0961
20.0991
20.0956
20.0986
20.1066
20.102
20.1056
20.1013
20.0967
20.0967
20.0964
20.0964
20.097
20.097
20.0967
20.0967
20.0991
20.0961
20.0986
20.0956
20.102
20.1065
20.1012
20.1056
20.0754
20.132
20.0761
20.133
20.0827
20.1088
20.0832
20.1107
20.1301
20.0737
20.131
20.0745
20.1053
20.0815
20.107
20.0821
20.0969
20.1003
20.0965
20.0997
20.1081
20.1035
20.1074
20.1028
20.0974
20.0974
20.097
20.097
20.0977
20.0977
20.0973
20.0973
20.1003
20.0969
20.0997
20.0965
20.1035
20.1081
20.1027
20.1074
20.0737
20.1301
20.0746
20.131
20.0815
20.1053
20.0821
20.107
20.1284
20.0721
20.1293
20.0729
20.1024
20.0802
20.1038
20.0808
20.0973
20.1014
20.0971
20.1008
20.1093
20.1048
20.1088
20.1042
20.0982
20.0982
20.0978
20.0978
20.0985
20.0985
20.0981
20.0981
20.1013
20.0973
20.1008
20.0971
20.1048
20.1093
20.1042
20.1087
20.0721
20.1284
20.0729
20.1292
20.0802
20.1023
20.0809
20.1038
20.1269
20.0705
20.1277
20.0713
20.0998
20.0788
20.101
20.0795
20.0974
20.1023
20.0974
20.1019
20.11
20.106
20.1097
20.1054
20.0991
20.0991
20.0986
20.0986
20.0994
20.0994
20.0989
20.0989
20.1023
20.0974
20.1018
20.0974
20.106
20.11
20.1054
20.1097
20.0705
20.1269
20.0713
20.1276
20.0788
20.0998
20.0795
20.101
20.1255
20.069
20.1262
20.0698
20.0976
20.0774
20.0986
20.0781
20.0974
20.1032
20.0974
20.1028
20.1105
20.107
20.1103
20.1065
20.0999
20.0999
20.0995
20.0995
20.1002
20.1002
20.0998
20.0998
20.1031
20.0974
20.1027
20.0974
20.107
20.1105
20.1065
20.1103
20.0691
20.1255
20.0698
20.1262
20.0774
20.0975
20.0781
20.0986
20.1243
20.0677
20.1249
20.0683
20.0956
20.0761
20.0966
20.0768
20.0972
20.1038
20.0973
20.1035
20.1108
20.1078
20.1106
20.1074
20.1006
20.1006
20.1002
20.1002
20.1009
20.1009
20.1006
20.1006
20.1038
20.0972
20.1035
20.0973
20.1078
20.1107
20.1074
20.1107
20.0677
20.1242
20.0684
20.1248
20.0761
20.0956
20.0768
20.0965
20.1231
20.0664
20.1237
20.067
20.0939
20.0749
20.0947
20.0755
20.0969
20.1043
20.0971
20.1041
20.1108
20.1084
20.1108
20.1081
20.1012
20.1012
20.1009
20.1009
20.1015
20.1015
20.1012
20.1012
20.1043
20.0969
20.1041
20.0971
20.1084
20.1108
20.1081
20.1108
20.0664
20.1231
20.067
20.1236
20.0749
20.0938
20.0755
20.0947
20.122
20.0652
20.1225
20.0658
20.0923
20.0737
20.0931
20.0743
20.0966
20.1047
20.0968
20.1045
20.1107
20.1088
20.1108
20.1086
20.1017
20.1016
20.1014
20.1014
20.102
20.102
20.1018
20.1018
20.1047
20.0966
20.1045
20.0968
20.1088
20.1107
20.1086
20.1108
20.0652
20.122
20.0658
20.1225
20.0737
20.0923
20.0743
20.093
20.121
20.0641
20.1215
20.0647
20.0909
20.0726
20.0916
20.0731
20.0962
20.1049
20.0964
20.1048
20.1105
20.1091
20.1106
20.109
20.102
20.102
20.1018
20.1018
20.1023
20.1023
20.1021
20.1021
20.1049
20.0962
20.1048
20.0964
20.1091
20.1105
20.109
20.1106
20.0642
20.121
20.0647
20.1214
20.0726
20.0909
20.0731
20.0916
20.12
20.0632
20.1205
20.0636
20.0897
20.0716
20.0903
20.0721
20.0958
20.105
20.096
20.1049
20.1101
20.1092
20.1103
20.1092
20.1022
20.1022
20.1021
20.1021
20.1024
20.1024
20.1023
20.1023
20.105
20.0958
20.1049
20.096
20.1092
20.1101
20.1092
20.1103
20.0632
20.12
20.0637
20.1205
20.0716
20.0897
20.0721
20.0903
20.1192
20.0623
20.1196
20.0627
20.0885
20.0706
20.0891
20.0711
20.0953
20.1049
20.0956
20.105
20.1096
20.1092
20.1099
20.1092
20.1022
20.1022
20.1022
20.1022
20.1024
20.1024
20.1024
20.1024
20.1049
20.0953
20.105
20.0956
20.1092
20.1096
20.1092
20.1099
20.0623
20.1191
20.0627
20.1195
20.0707
20.0885
20.0711
20.0891
20.1183
20.0615
20.1187
20.0619
20.0875
20.0698
20.088
20.0702
20.0949
20.1048
20.0951
20.1049
20.109
20.109
20.1092
20.1091
20.1022
20.1022
20.1022
20.1022
20.1023
20.1023
20.1024
20.1024
20.1048
20.0949
20.1049
20.0951
20.109
20.1091
20.1091
20.1094
20.0615
20.1183
20.0619
20.1187
20.0698
20.0875
20.0702
20.088
20.1176
20.0607
20.1179
20.0611
20.0866
20.069
20.087
20.0694
20.0945
20.1046
20.0947
20.1047
20.1086
20.1087
20.1088
20.1089
20.1021
20.1021
20.1022
20.1021
20.1021
20.1021
20.1022
20.1022
20.1045
20.0945
20.1047
20.0947
20.1087
20.1086
20.1089
20.1088
20.0608
20.1175
20.0611
20.1179
20.069
20.0866
20.0694
20.087
20.1168
20.0601
20.1172
20.0604
20.0857
20.0683
20.0861
20.0686
20.0941
20.1043
20.0943
20.1044
20.1084
20.1084
20.1085
20.1086
20.1019
20.1019
20.102
20.102
20.1018
20.1018
20.102
20.102
20.1043
20.0941
20.1044
20.0943
20.1084
20.1084
20.1085
20.1085
20.0601
20.1168
20.0604
20.1171
20.0683
20.0857
20.0686
20.0861
20.1162
20.0596
20.1165
20.0598
20.085
20.0677
20.0854
20.0679
20.0937
20.1039
20.0939
20.1041
20.108
20.1079
20.1082
20.1082
20.1016
20.1016
20.1018
20.1018
20.1014
20.1014
20.1016
20.1016
20.1039
20.0937
20.1041
20.0939
20.1079
20.108
20.1081
20.1082
20.0596
20.1162
20.0599
20.1165
20.0677
20.085
20.068
20.0853
20.1157
20.0592
20.1159
20.0594
20.0844
20.0671
20.0847
20.0674
20.0933
20.1036
20.0935
20.1038
20.1077
20.1075
20.1078
20.1077
20.1014
20.1014
20.1015
20.1015
20.1011
20.1011
20.1013
20.1013
20.1036
20.0933
20.1038
20.0935
20.1075
20.1076
20.1077
20.1078
20.0592
20.1156
20.0594
20.1159
20.0672
20.0844
20.0674
20.0847
20.1152
20.0589
20.1154
20.059
20.0839
20.0667
20.0841
20.0669
20.0931
20.1033
20.0932
20.1035
20.1073
20.107
20.1075
20.1072
20.1011
20.1011
20.1013
20.1013
20.1007
20.1007
20.1009
20.1009
20.1033
20.0931
20.1035
20.0932
20.107
20.1073
20.1072
20.1075
20.0589
20.1152
20.059
20.1154
20.0667
20.0839
20.0669
20.0841
20.1149
20.0588
20.115
20.0588
20.0835
20.0664
20.0837
20.0666
20.0929
20.103
20.093
20.1032
20.1069
20.1065
20.1071
20.1067
20.1009
20.1009
20.101
20.101
20.1003
20.1003
20.1005
20.1005
20.103
20.0929
20.1032
20.093
20.1065
20.1069
20.1067
20.1071
20.0588
20.1148
20.0588
20.115
20.0664
20.0835
20.0666
20.0837
20.1147
20.0588
20.1148
20.0587
20.0833
20.0663
20.0834
20.0663
20.0927
20.1028
20.0928
20.1029
20.1066
20.1061
20.1067
20.1063
20.1008
20.1008
20.1008
20.1008
20.1
20.1
20.1001
20.1001
20.1028
20.0927
20.1029
20.0928
20.1061
20.1065
20.1063
20.1067
20.0588
20.1146
20.0588
20.1147
20.0663
20.0833
20.0663
20.0834
20.1146
20.0589
20.1146
20.0588
20.0833
20.0662
20.0833
20.0662
20.0927
20.1027
20.0927
20.1028
20.1063
20.1057
20.1064
20.1059
20.1007
20.1007
20.1007
20.1007
20.0997
20.0997
20.0998
20.0998
20.1027
20.0927
20.1028
20.0927
20.1057
20.1063
20.1059
20.1064
20.0589
20.1145
20.0588
20.1145
20.0662
20.0833
20.0662
20.0833
20.1146
20.0591
20.1146
20.059
20.0834
20.0663
20.0833
20.0663
20.0928
20.1027
20.0927
20.1027
20.106
20.1054
20.1061
20.1056
20.1007
20.1007
20.1007
20.1007
20.0996
20.0996
20.0996
20.0996
20.1027
20.0928
20.1027
20.0927
20.1054
20.106
20.1056
20.1061
20.0591
20.1146
20.059
20.1145
20.0663
20.0834
20.0663
20.0833
20.1148
20.0598
20.1147
20.0594
20.0837
20.0666
20.0836
20.0664
20.093
20.1028
20.0929
20.1027
20.1059
20.1053
20.106
20.1053
20.1009
20.1009
20.1008
20.1008
20.0996
20.0995
20.0995
20.0995
20.1028
20.093
20.1027
20.0929
20.1053
20.1059
20.1053
20.1059
20.0599
20.1148
20.0595
20.1146
20.0666
20.0837
20.0664
20.0835
20.1151
20.0607
20.115
20.0602
20.0842
20.0669
20.084
20.0667
20.0933
20.103
20.0931
20.1028
20.1058
20.1052
20.1058
20.1052
20.1012
20.1012
20.101
20.101
20.0997
20.0997
20.0996
20.0996
20.103
20.0933
20.1028
20.0931
20.1052
20.1058
20.1052
20.1058
20.0607
20.1151
20.0603
20.1149
20.067
20.0842
20.0668
20.0839
20.1156
20.0619
20.1153
20.0612
20.085
20.0673
20.0846
20.0671
20.0937
20.1033
20.0935
20.1031
20.1059
20.1053
20.1058
20.1052
20.1017
20.1017
20.1014
20.1014
20.1
20.1
20.0998
20.0998
20.1033
20.0937
20.1031
20.0935
20.1053
20.1059
20.1052
20.1058
20.0619
20.1155
20.0613
20.1153
20.0674
20.085
20.0671
20.0846
20.1162
20.0629
20.1159
20.0626
20.0859
20.068
20.0854
20.0675
20.0943
20.1038
20.094
20.1035
20.106
20.1056
20.1059
20.1054
20.1023
20.1023
20.102
20.102
20.1005
20.1005
20.1002
20.1002
20.1038
20.0943
20.1035
20.094
20.1056
20.106
20.1054
20.1059
20.0629
20.1161
20.0626
20.1158
20.0681
20.0859
20.0675
20.0854
20.1169
20.0636
20.1166
20.0632
20.0871
20.0692
20.0865
20.0686
20.095
20.1045
20.0946
20.1041
20.1063
20.106
20.1061
20.1058
20.1032
20.1032
20.1027
20.1027
20.1012
20.1012
20.1008
20.1008
20.1045
20.095
20.1041
20.0946
20.106
20.1063
20.1058
20.1061
20.0636
20.1169
20.0632
20.1165
20.0692
20.087
20.0686
20.0864
20.1178
20.0645
20.1173
20.064
20.0884
20.0704
20.0877
20.0698
20.0957
20.1053
20.0953
20.1048
20.1066
20.1066
20.1064
20.1063
20.1042
20.1042
20.1036
20.1036
20.1021
20.1021
20.1016
20.1016
20.1053
20.0958
20.1048
20.0953
20.1066
20.1066
20.1063
20.1064
20.0646
20.1177
20.064
20.1173
20.0704
20.0884
20.0698
20.0877
20.1186
20.0657
20.1182
20.0651
20.0899
20.0716
20.0891
20.071
20.0966
20.1062
20.0962
20.1057
20.1071
20.1074
20.1069
20.1069
20.1053
20.1053
20.1047
20.1047
20.1032
20.1032
20.1026
20.1026
20.1062
20.0967
20.1057
20.0962
20.1073
20.1071
20.1069
20.1069
20.0657
20.1185
20.0651
20.1181
20.0716
20.0899
20.071
20.0891
20.1192
20.0671
20.1189
20.0664
20.0915
20.0729
20.0907
20.0722
20.0977
20.1073
20.0971
20.1067
20.1077
20.1083
20.1074
20.1078
20.1066
20.1066
20.1059
20.1059
20.1045
20.1045
20.1038
20.1038
20.1073
20.0977
20.1067
20.0972
20.1083
20.1077
20.1078
20.1074
20.0671
20.1191
20.0664
20.1188
20.0729
20.0915
20.0722
20.0907
20.1194
20.0688
20.1194
20.0678
20.0931
20.0744
20.0923
20.0736
20.0988
20.1085
20.0982
20.1079
20.1084
20.1094
20.1081
20.1088
20.108
20.108
20.1073
20.1073
20.1059
20.1059
20.1051
20.1051
20.1085
20.0988
20.1079
20.0982
20.1094
20.1084
20.1088
20.1081
20.0688
20.1194
20.0679
20.1193
20.0744
20.093
20.0736
20.0923
20.1188
20.0712
20.1193
20.0698
20.0943
20.0762
20.0937
20.0752
20.1001
20.1098
20.0995
20.1091
20.1092
20.1106
20.1088
20.11
20.1095
20.1095
20.1087
20.1087
20.1074
20.1074
20.1066
20.1066
20.1098
20.1001
20.1091
20.0995
20.1106
20.1092
20.11
20.1088
20.0712
20.1188
20.0698
20.1192
20.0762
20.0943
20.0752
20.0937
20.1143
20.0769
20.1176
20.0731
20.0931
20.0801
20.0944
20.0775
20.1015
20.1112
20.1008
20.1105
20.1102
20.112
20.1097
20.1113
20.1111
20.1111
20.1103
20.1103
20.1091
20.1091
20.1082
20.1082
20.1112
20.1015
20.1105
20.1008
20.112
20.1101
20.1113
20.1096
20.0769
20.1142
20.0731
20.1175
20.0801
20.093
20.0776
20.0943
20.1257
20.0668
20.11
20.0817
20.1015
20.0741
20.0905
20.0838
20.1028
20.1133
20.1027
20.1122
20.1115
20.114
20.111
20.113
20.1127
20.1127
20.1119
20.1119
20.1109
20.1109
20.11
20.11
20.1133
20.1028
20.1122
20.1027
20.114
20.1115
20.1129
20.111
20.0668
20.1256
20.0817
20.1099
20.0741
20.1015
20.0839
20.0905
20.1745
20.0491
20.1493
20.0634
20.1673
20.0522
20.1439
20.0664
20.0839
20.0981
20.0909
20.0995
20.0873
20.0989
20.0929
20.0998
20.1002
20.1002
20.1003
20.1003
20.1001
20.1001
20.1002
20.1002
20.0981
20.084
20.0995
20.0909
20.0989
20.0873
20.0998
20.093
20.0491
20.1744
20.0635
20.1492
20.0522
20.1672
20.0664
20.1439
20.1558
20.0752
20.1616
20.066
20.1527
20.0729
20.1572
20.0656
20.0819
20.0937
20.083
20.096
20.0848
20.0956
20.086
20.0974
20.0988
20.0988
20.0997
20.0997
20.0992
20.0992
20.0998
20.0998
20.0937
20.0819
20.096
20.083
20.0956
20.0849
20.0974
20.086
20.0752
20.1557
20.066
20.1616
20.0729
20.1526
20.0656
20.1572
20.1506
20.0833
20.1527
20.0803
20.1484
20.0793
20.1502
20.0769
20.0825
20.0915
20.0819
20.0924
20.0853
20.0938
20.0848
20.0945
20.0965
20.0965
20.0977
20.0977
20.0975
20.0975
20.0983
20.0983
20.0915
20.0825
20.0924
20.0819
20.0938
20.0853
20.0945
20.0848
20.0833
20.1506
20.0803
20.1527
20.0793
20.1483
20.0769
20.1502
20.1478
20.0861
20.149
20.0851
20.1457
20.0812
20.1469
20.0806
20.0839
20.0908
20.0832
20.091
20.0867
20.0933
20.086
20.0934
20.0948
20.0948
20.0955
20.0955
20.096
20.096
20.0967
20.0967
20.0908
20.0839
20.091
20.0832
20.0933
20.0867
20.0934
20.086
20.0861
20.1478
20.0851
20.149
20.0812
20.1456
20.0806
20.1469
20.1459
20.0868
20.1468
20.0866
20.1437
20.0812
20.1446
20.0813
20.0849
20.0908
20.0845
20.0907
20.0879
20.0936
20.0873
20.0934
20.0938
20.0938
20.0942
20.0942
20.0953
20.0953
20.0956
20.0956
20.0908
20.0849
20.0907
20.0845
20.0936
20.0879
20.0934
20.0873
20.0868
20.1459
20.0866
20.1468
20.0812
20.1437
20.0813
20.1446
20.1445
20.0865
20.1452
20.0867
20.142
20.0804
20.1428
20.0809
20.0856
20.0911
20.0853
20.0909
20.0887
20.0943
20.0883
20.0939
20.0936
20.0936
20.0936
20.0936
20.0952
20.0952
20.0951
20.0951
20.0911
20.0856
20.0909
20.0853
20.0943
20.0887
20.0939
20.0883
20.0865
20.1444
20.0867
20.1451
20.0804
20.142
20.0809
20.1428
20.1432
20.0857
20.1438
20.0861
20.1406
20.0792
20.1413
20.0798
20.0858
20.0916
20.0857
20.0913
20.0892
20.0952
20.089
20.0947
20.0938
20.0938
20.0937
20.0937
20.0955
20.0955
20.0953
20.0953
20.0916
20.0859
20.0913
20.0857
20.0952
20.0892
20.0947
20.089
20.0857
20.1431
20.0861
20.1437
20.0792
20.1405
20.0798
20.1412
20.142
20.0847
20.1426
20.0852
20.1393
20.0778
20.1399
20.0785
20.0859
20.0921
20.0859
20.0918
20.0894
20.096
20.0894
20.0956
20.0944
20.0944
20.0941
20.0941
20.0962
20.0962
20.0958
20.0958
20.0921
20.0859
20.0918
20.0859
20.096
20.0894
20.0956
20.0894
20.0847
20.142
20.0852
20.1425
20.0778
20.1392
20.0785
20.1399
20.1409
20.0837
20.1415
20.0842
20.1381
20.0764
20.1386
20.0771
20.0858
20.0926
20.0859
20.0924
20.0895
20.0967
20.0895
20.0964
20.095
20.095
20.0947
20.0947
20.0969
20.0969
20.0965
20.0965
20.0926
20.0858
20.0923
20.0859
20.0967
20.0895
20.0964
20.0895
20.0837
20.1409
20.0842
20.1414
20.0764
20.138
20.0771
20.1386
20.1399
20.0826
20.1404
20.0831
20.1369
20.075
20.1375
20.0757
20.0856
20.093
20.0857
20.0928
20.0893
20.0974
20.0894
20.0971
20.0957
20.0957
20.0954
20.0954
20.0977
20.0977
20.0973
20.0973
20.093
20.0856
20.0928
20.0857
20.0974
20.0893
20.0971
20.0894
20.0826
20.1399
20.0831
20.1404
20.075
20.1369
20.0757
20.1374
20.139
20.0815
20.1395
20.082
20.1359
20.0737
20.1364
20.0744
20.0853
20.0934
20.0854
20.0932
20.0891
20.098
20.0892
20.0977
20.0964
20.0964
20.0961
20.0961
20.0985
20.0985
20.0981
20.0981
20.0934
20.0853
20.0932
20.0854
20.098
20.0891
20.0977
20.0892
20.0815
20.1389
20.082
20.1394
20.0737
20.1358
20.0744
20.1363
20.1381
20.0805
20.1385
20.081
20.1349
20.0725
20.1354
20.0731
20.085
20.0937
20.0851
20.0935
20.0888
20.0984
20.089
20.0982
20.097
20.097
20.0967
20.0967
20.0992
20.0992
20.0989
20.0989
20.0937
20.085
20.0935
20.0851
20.0984
20.0888
20.0982
20.089
20.0805
20.138
20.081
20.1385
20.0725
20.1348
20.0731
20.1353
20.1372
20.0795
20.1377
20.08
20.1339
20.0713
20.1344
20.0719
20.0846
20.0938
20.0848
20.0938
20.0884
20.0987
20.0886
20.0986
20.0975
20.0975
20.0973
20.0973
20.0997
20.0997
20.0995
20.0995
20.0938
20.0846
20.0938
20.0848
20.0987
20.0885
20.0985
20.0886
20.0795
20.1372
20.08
20.1376
20.0713
20.1339
20.0719
20.1344
20.1364
20.0786
20.1368
20.079
20.1331
20.0703
20.1335
20.0708
20.0842
20.094
20.0844
20.0939
20.0881
20.0989
20.0883
20.0988
20.0979
20.0979
20.0977
20.0977
20.1002
20.1002
20.1
20.1
20.094
20.0842
20.0939
20.0844
20.0989
20.0881
20.0988
20.0883
20.0786
20.1364
20.079
20.1368
20.0703
20.133
20.0708
20.1334
20.1357
20.0777
20.1361
20.0781
20.1322
20.0693
20.1326
20.0698
20.0838
20.094
20.084
20.094
20.0876
20.099
20.0879
20.0989
20.0982
20.0982
20.0981
20.0981
20.1005
20.1005
20.1004
20.1004
20.094
20.0838
20.094
20.084
20.099
20.0877
20.0989
20.0879
20.0777
20.1356
20.0781
20.136
20.0693
20.1322
20.0698
20.1326