/*--------------------------------*- C++ -*----------------------------------*\
  =========                 |
  \\      /  F ield         | OpenFOAM: The Open Source CFD Toolbox
   \\    /   O peration     | Website:  https://openfoam.org
    \\  /    A nd           | Version:  9
     \\/     M anipulation  |
\*---------------------------------------------------------------------------*/
FoamFile
{
    format      ascii;
    class       surfaceScalarField;
    location    "4.55";
    object      phi;
}
// * * * * * * * * * * * * * * * * * * * * * * * * * * * * * * * * * * * * * //

dimensions      [0 3 -1 0 0 0 0];

internalField   nonuniform List<scalar> 
104044
(
9.42199e-07
-7.13767e-05
-3.59153e-06
6.89283e-05
5.09768e-06
-4.50465e-05
1.35864e-06
-3.72569e-07
4.74762e-05
-2.47356e-06
7.23657e-07
-6.69703e-06
6.8084e-06
2.82743e-06
-2.96412e-07
-3.33515e-06
-3.57409e-07
-8.85155e-05
8.52814e-05
-3.02486e-05
2.01653e-07
3.10481e-05
-1.76553e-07
8.62155e-08
-2.85594e-08
-4.93543e-05
-2.88433e-06
4.92923e-05
2.60233e-06
-5.15578e-05
-2.31377e-06
-1.33352e-09
5.14243e-05
2.42005e-06
-1.97483e-08
-2.57895e-06
1.93429e-06
-2.25548e-06
-1.81354e-10
1.9876e-06
-2.08901e-09
-4.64816e-05
4.3801e-05
-5.37507e-05
-2.59651e-09
5.14374e-05
-1.02513e-08
-2.70408e-09
7.39076e-12
-5.26257e-05
-2.08633e-06
5.25019e-05
2.20874e-06
-5.26263e-05
-2.08617e-06
1.34643e-09
5.25025e-05
2.20865e-06
-5.71955e-13
-2.05418e-06
1.82627e-06
-2.05399e-06
1.89085e-10
1.82613e-06
4.45565e-12
-5.61205e-05
5.40315e-05
-5.61215e-05
2.59865e-09
5.40327e-05
6.14613e-13
2.70362e-09
2.85623e-08
-5.15594e-05
-2.31351e-06
5.14258e-05
2.41989e-06
-4.93557e-05
-2.88465e-06
3.72379e-07
4.92935e-05
2.60296e-06
1.97634e-08
-2.25502e-06
1.98727e-06
-2.57894e-06
2.96188e-07
1.93474e-06
2.12184e-09
-5.37547e-05
5.14417e-05
-4.64899e-05
-2.01334e-07
4.38087e-05
1.0255e-08
-8.60118e-08
-9.41412e-07
-4.50446e-05
1.35364e-06
4.74732e-05
-2.46844e-06
-7.13692e-05
-3.588e-06
6.89234e-05
5.09242e-06
-7.22823e-07
2.8223e-06
-3.33052e-06
-6.68955e-06
6.8007e-06
3.56611e-07
-3.02554e-05
3.10511e-05
-8.84984e-05
8.5267e-05
1.76048e-07
2.98656e-07
-6.6739e-05
-4.79153e-06
6.4964e-05
6.26787e-06
-4.89743e-05
4.59226e-06
-1.04528e-07
4.99185e-05
-5.13329e-06
5.7203e-07
-4.13754e-06
5.75481e-06
3.16571e-06
-2.09857e-07
-3.88192e-06
-1.33126e-06
-8.19886e-05
7.85283e-05
-3.2939e-05
6.27988e-07
3.5572e-05
-8.44719e-07
4.30098e-07
1.71639e-08
-4.92286e-05
-1.29666e-06
4.92245e-05
1.17913e-06
-5.11524e-05
-1.38753e-06
1.13049e-09
5.08195e-05
1.73644e-06
-1.02028e-08
-2.07849e-06
1.94247e-06
-1.91444e-06
-1.37684e-09
2.17754e-06
5.9324e-08
-4.21297e-05
4.14017e-05
-4.95464e-05
3.24332e-09
4.8215e-05
2.29513e-08
-4.91851e-10
4.98734e-12
-5.22339e-05
-1.30042e-06
5.18551e-05
1.68033e-06
-5.22344e-05
-1.30045e-06
-1.10961e-09
5.18556e-05
1.68038e-06
6.5732e-12
-1.79054e-06
2.05717e-06
-1.79052e-06
1.39028e-09
2.05717e-06
4.7275e-12
-5.22405e-05
5.09433e-05
-5.22417e-05
-3.22127e-09
5.09445e-05
4.3376e-12
5.02931e-10
-1.70665e-08
-5.11538e-05
-1.38774e-06
5.08207e-05
1.73675e-06
-4.92295e-05
-1.29768e-06
1.04573e-07
4.92249e-05
1.18073e-06
1.025e-08
-1.91456e-06
2.1777e-06
-2.0794e-06
2.09842e-07
1.9438e-06
-5.91847e-08
-4.95505e-05
4.82187e-05
-4.2136e-05
-6.27358e-07
4.14065e-05
-2.28678e-08
-4.29624e-07
-2.98827e-07
-4.89709e-05
4.5875e-06
4.9915e-05
-5.1282e-06
-6.67353e-05
-4.78691e-06
6.4961e-05
6.26236e-06
-5.71874e-07
3.16057e-06
-3.8765e-06
-4.13339e-06
5.74959e-06
1.32946e-06
-3.29387e-05
3.55694e-05
-8.1977e-05
7.85195e-05
8.43349e-07
-1.74489e-07
-6.34815e-05
-5.01523e-06
6.22197e-05
6.45152e-06
-5.0602e-05
5.40893e-06
1.38945e-08
5.11503e-05
-6.14556e-06
5.05557e-08
-4.91706e-06
6.34905e-06
5.11694e-06
-3.19826e-08
-5.71794e-06
-2.18191e-06
-7.53716e-05
7.25383e-05
-3.81425e-05
9.24559e-07
4.04449e-05
-1.76032e-06
7.86194e-07
1.32043e-07
-4.93037e-05
-4.74787e-07
4.94762e-05
1.84152e-07
-5.05497e-05
-6.82413e-07
1.85695e-08
5.03765e-05
9.69085e-07
7.0548e-08
-7.7812e-07
5.96356e-07
-9.64844e-07
8.72044e-09
1.29652e-06
1.54959e-07
-4.13058e-05
4.16006e-05
-4.73434e-05
2.1526e-08
4.67944e-05
1.03928e-07
1.06893e-08
3.65641e-11
-5.14989e-05
-6.80914e-07
5.1213e-05
9.85367e-07
-5.14993e-05
-6.80938e-07
-1.84909e-08
5.12133e-05
9.8545e-07
8.0564e-12
-9.15125e-07
1.28006e-06
-9.15152e-07
-8.68396e-09
1.28013e-06
5.39864e-11
-5.00389e-05
4.93794e-05
-5.004e-05
-2.14453e-08
4.93805e-05
1.0547e-11
-1.06504e-08
-1.31815e-07
-5.05506e-05
-6.82679e-07
5.03771e-05
9.69469e-07
-4.93036e-05
-4.75618e-07
-1.38787e-08
4.94755e-05
1.85769e-07
-7.03559e-08
-9.65085e-07
1.29688e-06
-7.7904e-07
3.20232e-08
5.97917e-07
-1.54858e-07
-4.73467e-05
4.67975e-05
-4.13093e-05
-9.23881e-07
4.16027e-05
-1.03748e-07
-7.85539e-07
1.73965e-07
-5.05985e-05
5.40518e-06
5.11469e-05
-6.14139e-06
-6.34791e-05
-5.01115e-06
6.22178e-05
6.44641e-06
-5.09334e-08
5.11281e-06
-5.71339e-06
-4.9127e-06
6.34372e-06
2.17957e-06
-3.81384e-05
4.04402e-05
-7.5365e-05
7.25335e-05
1.75822e-06
-5.47398e-07
-6.1165e-05
-4.99314e-06
6.02677e-05
6.4378e-06
-5.15931e-05
5.57509e-06
5.04667e-08
5.19574e-05
-6.53725e-06
-3.7033e-07
-4.95858e-06
6.3836e-06
5.4597e-06
3.94926e-08
-6.31234e-06
-2.84697e-06
-7.00914e-05
6.79452e-05
-4.23811e-05
1.09117e-06
4.4018e-05
-2.51175e-06
1.01184e-06
2.40318e-07
-4.97091e-05
-2.15689e-07
4.99641e-05
-2.29194e-07
-5.02964e-05
-3.21038e-07
4.16512e-08
5.02904e-05
5.2568e-07
1.87048e-07
-2.94558e-07
-8.58985e-08
-4.68137e-07
2.92759e-08
7.0596e-07
2.21358e-07
-4.21276e-05
4.27817e-05
-4.64821e-05
4.33041e-08
4.63391e-05
1.90328e-07
3.44952e-08
1.16133e-11
-5.10101e-05
-4.00744e-07
5.08789e-05
5.73634e-07
-5.10103e-05
-4.01357e-07
-4.11115e-08
5.08791e-05
5.73765e-07
1.08276e-10
-5.13415e-07
7.45428e-07
-5.13358e-07
-2.90643e-08
7.45505e-07
-1.50429e-09
-4.89001e-05
4.85442e-05
-4.89005e-05
-4.79648e-08
4.85456e-05
3.85389e-10
-3.29384e-08
-2.39633e-07
-5.02968e-05
-3.21253e-07
5.02905e-05
5.26025e-07
-4.97084e-05
-2.15207e-07
-5.06336e-08
4.99629e-05
-2.28282e-07
-1.86892e-07
-4.6819e-07
7.06337e-07
-2.95409e-07
-3.944e-08
-8.49139e-08
-2.25638e-07
-4.64844e-05
4.63408e-05
-4.21297e-05
-1.09229e-06
4.27811e-05
-1.88061e-07
-1.0105e-06
5.46598e-07
-5.159e-05
5.57217e-06
5.19542e-05
-6.53366e-06
-6.11636e-05
-4.98937e-06
6.02664e-05
6.43309e-06
3.69738e-07
5.45622e-06
-6.30848e-06
-4.95481e-06
6.37878e-06
2.84374e-06
-4.23764e-05
4.40125e-05
-7.00881e-05
6.79425e-05
2.50946e-06
-8.22228e-07
-5.95126e-05
-4.93789e-06
5.88678e-05
6.40492e-06
-5.22567e-05
5.6221e-06
3.8584e-08
5.25062e-05
-6.73246e-06
-6.89013e-07
-4.91165e-06
6.35578e-06
5.54525e-06
4.84468e-08
-6.58202e-06
-3.33765e-06
-6.61143e-05
6.45141e-05
-4.53534e-05
1.17096e-06
4.64669e-05
-3.08072e-06
1.12913e-06
3.24241e-07
-5.02321e-05
-1.82939e-07
5.05062e-05
-3.76883e-07
-5.03419e-05
-1.31649e-07
6.64742e-08
5.04377e-05
2.93622e-07
2.82558e-07
-1.83609e-07
-3.18454e-07
-2.09272e-07
5.32733e-08
3.87054e-07
2.78415e-07
-4.34757e-05
4.41853e-05
-4.63229e-05
6.85693e-08
4.64011e-05
2.51532e-07
5.84326e-08
2.10197e-11
-5.0811e-05
-2.4003e-07
5.07946e-05
3.2288e-07
-5.08111e-05
-2.40157e-07
-6.63697e-08
5.07946e-05
3.23e-07
7.1189e-11
-3.08759e-07
4.29842e-07
-3.08559e-07
-5.33647e-08
4.29962e-07
-2.83204e-11
-4.82929e-05
4.81214e-05
-4.82934e-05
-6.89295e-08
4.81221e-05
9.93474e-10
-5.53059e-08
-3.23946e-07
-5.03419e-05
-1.31934e-07
5.04375e-05
2.93896e-07
-5.02309e-05
-1.83169e-07
-3.87387e-08
5.05049e-05
-3.76071e-07
-2.82338e-07
-2.09752e-07
3.87382e-07
-1.84316e-07
-4.84632e-08
-3.17538e-07
-2.78509e-07
-4.63246e-05
4.64022e-05
-4.34757e-05
-1.17051e-06
4.41846e-05
-2.48791e-07
-1.12771e-06
8.21445e-07
-5.22539e-05
5.61907e-06
5.25036e-05
-6.72901e-06
-5.95117e-05
-4.93463e-06
5.88671e-05
6.40067e-06
6.88316e-07
5.54206e-06
-6.57848e-06
-4.90828e-06
6.35139e-06
3.33491e-06
-4.53486e-05
4.64622e-05
-6.61125e-05
6.45128e-05
3.07831e-06
-1.01912e-06
-5.83219e-05
-4.88916e-06
5.78543e-05
6.37592e-06
-5.27178e-05
5.64869e-06
3.48105e-09
5.28989e-05
-6.85234e-06
-9.19789e-07
-4.85818e-06
6.32385e-06
5.57593e-06
2.25718e-08
-6.72986e-06
-3.69097e-06
-6.31495e-05
6.19513e-05
-4.73721e-05
1.19771e-06
4.81321e-05
-3.49364e-06
1.17712e-06
3.82087e-07
-5.07735e-05
-2.25727e-07
5.10337e-05
-4.13069e-07
-5.0564e-05
-3.68348e-08
9.07076e-08
5.07139e-05
1.78322e-07
3.52704e-07
-1.98439e-07
-3.98919e-07
-7.47052e-08
7.80245e-08
2.2315e-07
3.19799e-07
-4.48661e-05
4.55183e-05
-4.65455e-05
8.95901e-08
4.67388e-05
2.97856e-07
7.88027e-08
3.91076e-11
-5.08202e-05
-1.31784e-07
5.08804e-05
1.62319e-07
-5.08202e-05
-1.31868e-07
-9.05739e-08
5.08803e-05
1.624e-07
3.23926e-11
-1.7935e-07
2.31699e-07
-1.79443e-07
-7.79064e-08
2.31799e-07
3.91222e-11
-4.80209e-05
4.79786e-05
-4.80214e-05
-8.9469e-08
4.7979e-05
2.91318e-11
-7.86859e-08
-3.81795e-07
-5.05636e-05
-3.70361e-08
5.07134e-05
1.78479e-07
-5.07721e-05
-2.2583e-07
-3.70656e-09
5.10322e-05
-4.12418e-07
-3.5241e-07
-7.49516e-08
2.23359e-07
-1.986e-07
-2.2764e-08
-3.98206e-07
-3.19554e-07
-4.65462e-05
4.67392e-05
-4.4865e-05
-1.19729e-06
4.55169e-05
-2.97617e-07
-1.17667e-06
1.01831e-06
-5.27154e-05
5.64578e-06
5.28966e-05
-6.84903e-06
-5.83213e-05
-4.88613e-06
5.78538e-05
6.37197e-06
9.18994e-07
5.573e-06
-6.72652e-06
-4.85505e-06
6.31979e-06
3.68821e-06
-4.73677e-05
4.81279e-05
-6.31486e-05
6.19507e-05
3.4909e-06
-1.15687e-06
-5.74556e-05
-4.84411e-06
5.71131e-05
6.3435e-06
-5.30567e-05
5.65953e-06
-3.92513e-08
5.31944e-05
-6.91492e-06
-1.08296e-06
-4.81112e-06
6.29275e-06
5.59348e-06
-1.73377e-08
-6.8169e-06
-3.9373e-06
-6.09262e-05
6.00194e-05
-4.87531e-05
1.19481e-06
4.92805e-05
-3.78601e-06
1.18648e-06
4.1721e-07
-5.128e-05
-2.84587e-07
5.15154e-05
-4.07338e-07
-5.08785e-05
6.43602e-09
1.12028e-07
5.10543e-05
1.22948e-07
3.97835e-07
-2.53286e-07
-4.08195e-07
-1.22581e-08
1.00826e-07
1.44628e-07
3.47855e-07
-4.61196e-05
4.6682e-05
-4.69609e-05
1.06533e-07
4.72087e-05
3.3189e-07
9.75485e-08
4.79036e-11
-5.09668e-05
-5.63472e-08
5.1076e-05
5.90757e-08
-5.09667e-05
-5.64059e-08
-1.11876e-07
5.10759e-05
5.91129e-08
4.33735e-11
-8.9315e-08
1.03689e-07
-8.93879e-08
-1.00682e-07
1.03747e-07
4.90112e-11
-4.79868e-05
4.8037e-05
-4.79871e-05
-1.06397e-07
4.80371e-05
4.43009e-11
-9.74196e-08
-4.16934e-07
-5.08779e-05
6.29978e-09
5.10537e-05
1.23017e-07
-5.12785e-05
-2.84615e-07
3.89791e-08
5.1514e-05
-4.06776e-07
-3.97555e-07
-1.23983e-08
1.44733e-07
-2.53347e-07
1.70893e-08
-4.07599e-07
-3.4761e-07
-4.69611e-05
4.72086e-05
-4.6118e-05
-1.19447e-06
4.66803e-05
-3.31646e-07
-1.1861e-06
1.15607e-06
-5.30546e-05
5.65671e-06
5.31925e-05
-6.91173e-06
-5.74552e-05
-4.84125e-06
5.71127e-05
6.33979e-06
1.08216e-06
5.59064e-06
-6.81368e-06
-4.80819e-06
6.28895e-06
3.93457e-06
-4.87492e-05
4.92769e-05
-6.09258e-05
6.00191e-05
3.78328e-06
-1.25213e-06
-5.68187e-05
-4.80184e-06
5.65654e-05
6.30725e-06
-5.3318e-05
5.6581e-06
-8.15441e-08
5.3428e-05
-6.93871e-06
-1.19715e-06
-4.77096e-06
6.26254e-06
5.60105e-06
-6.00919e-08
-6.86171e-06
-4.10572e-06
-5.92388e-05
5.85427e-05
-4.97156e-05
1.17695e-06
5.0091e-05
-3.99039e-06
1.17553e-06
4.35811e-07
-5.17361e-05
-3.37969e-07
5.19457e-05
-3.89034e-07
-5.12321e-05
2.59448e-08
1.2955e-07
5.14141e-05
9.83317e-08
4.241e-07
-3.10259e-07
-3.94559e-07
1.96011e-08
1.19964e-07
1.06735e-07
3.65172e-07
-4.71931e-05
4.76669e-05
-4.74701e-05
1.19195e-07
4.77421e-05
3.54171e-07
1.12324e-07
5.41547e-11
-5.12004e-05
-4.54829e-09
5.13347e-05
-2.73377e-10
-5.12002e-05
-4.59224e-09
-1.29384e-07
5.13345e-05
-2.69421e-10
5.08075e-11
-2.82827e-08
2.38154e-08
-2.83315e-08
-1.19807e-07
2.3833e-08
5.52746e-11
-4.8121e-05
4.82355e-05
-4.8121e-05
-1.19051e-07
4.82355e-05
5.1955e-11
-1.12184e-07
-4.35556e-07
-5.12314e-05
2.58818e-08
5.14134e-05
9.8334e-08
-5.17347e-05
-3.37952e-07
8.12409e-08
5.19443e-05
-3.88534e-07
-4.23836e-07
1.94935e-08
1.06767e-07
-3.10262e-07
5.98055e-08
-3.94034e-07
-3.64933e-07
-4.74698e-05
4.77416e-05
-4.71913e-05
-1.17665e-06
4.76651e-05
-3.53931e-07
-1.17522e-06
1.25134e-06
-5.33162e-05
5.65536e-06
5.34264e-05
-6.93562e-06
-5.68183e-05
-4.79913e-06
5.65651e-05
6.30374e-06
1.19637e-06
5.5983e-06
-6.85859e-06
-4.7682e-06
6.25896e-06
4.10304e-06
-4.97122e-05
5.00879e-05
-5.92386e-05
5.85425e-05
3.98771e-06
-1.31569e-06
-5.63459e-05
-4.75494e-06
5.61569e-05
6.25957e-06
-5.35296e-05
5.6398e-06
-1.19619e-07
5.36215e-05
-6.92777e-06
-1.27429e-06
-4.72602e-06
6.21984e-06
5.59001e-06
-1.00134e-07
-6.86567e-06
-4.21313e-06
-5.79408e-05
5.73989e-05
-5.04041e-05
1.15103e-06
5.06797e-05
-4.12406e-06
1.15293e-06
4.41997e-07
-5.21418e-05
-3.80262e-07
5.23279e-05
-3.67479e-07
-5.15949e-05
2.61135e-08
1.42693e-07
5.17761e-05
9.19567e-08
4.35655e-07
-3.57735e-07
-3.74131e-07
2.68371e-08
1.35139e-07
9.28943e-08
3.74188e-07
-4.80953e-05
4.84918e-05
-4.80131e-05
1.27511e-07
4.82859e-05
3.66835e-07
1.22613e-07
5.84354e-11
-5.14802e-05
2.94906e-08
5.16339e-05
-4.05514e-08
-5.148e-05
2.94648e-08
-1.42519e-07
5.16337e-05
-4.05718e-08
5.61365e-11
1.38653e-08
-2.42884e-08
1.38355e-08
-1.34971e-07
-2.42975e-08
5.841e-11
-4.8372e-05
4.85289e-05
-4.83719e-05
-1.27367e-07
4.85288e-05
5.66027e-11
-1.2247e-07
-4.41764e-07
-5.15941e-05
2.61026e-08
5.17754e-05
9.19142e-08
-5.21405e-05
-3.80221e-07
1.19294e-07
5.23266e-05
-3.67016e-07
-4.35413e-07
2.68021e-08
9.28726e-08
-3.57704e-07
9.98229e-08
-3.73657e-07
-3.73959e-07
-4.80125e-05
4.82852e-05
-4.80934e-05
-1.15078e-06
4.849e-05
-3.66603e-07
-1.15266e-06
1.31493e-06
-5.3528e-05
5.63713e-06
5.362e-05
-6.92477e-06
-5.63455e-05
-4.75236e-06
5.61566e-05
6.25623e-06
1.27353e-06
5.58733e-06
-6.86266e-06
-4.72339e-06
6.21644e-06
4.21052e-06
-5.04011e-05
5.0677e-05
-5.79406e-05
5.73988e-05
4.12144e-06
-1.35692e-06
-5.59916e-05
-4.7054e-06
5.58494e-05
6.20454e-06
-5.37083e-05
5.60988e-06
-1.52352e-07
5.37881e-05
-6.89424e-06
-1.326e-06
-4.68116e-06
6.17247e-06
5.56909e-06
-1.35287e-07
-6.84666e-06
-4.27716e-06
-5.69274e-05
5.64992e-05
-5.09131e-05
1.12208e-06
5.11238e-05
-4.20963e-06
1.12602e-06
4.40413e-07
-5.2502e-05
-4.12588e-07
5.26665e-05
-3.44747e-07
-5.19528e-05
1.78546e-08
1.53039e-07
5.21271e-05
9.52582e-08
4.37731e-07
-3.94492e-07
-3.52591e-07
2.24007e-08
1.46756e-07
9.18731e-08
3.77455e-07
-4.88505e-05
4.91826e-05
-4.85521e-05
1.32248e-07
4.88152e-05
3.72854e-07
1.29044e-07
6.65256e-11
-5.17901e-05
5.07991e-08
5.19499e-05
-5.75575e-08
-5.17899e-05
5.0781e-08
-1.52851e-07
5.19496e-05
-5.75961e-08
5.97681e-11
4.12e-08
-5.06936e-08
4.11789e-08
-1.4658e-07
-5.07232e-08
6.32392e-11
-4.86991e-05
4.88821e-05
-4.86989e-05
-1.32104e-07
4.88819e-05
5.89019e-11
-1.28903e-07
-4.40206e-07
-5.19521e-05
1.78837e-08
5.21264e-05
9.5184e-08
-5.25008e-05
-4.12541e-07
1.51971e-07
5.26654e-05
-3.44302e-07
-4.37513e-07
2.24099e-08
9.18155e-08
-3.94447e-07
1.34951e-07
-3.52139e-07
-3.77245e-07
-4.85513e-05
4.88144e-05
-4.88487e-05
-1.12189e-06
4.91808e-05
-3.72635e-07
-1.1258e-06
1.35618e-06
-5.3707e-05
5.60729e-06
5.37868e-05
-6.89132e-06
-5.59913e-05
-4.70291e-06
5.5849e-05
6.20135e-06
1.32526e-06
5.56648e-06
-6.84373e-06
-4.67863e-06
6.16922e-06
4.27461e-06
-5.09106e-05
5.11214e-05
-5.69272e-05
5.64989e-05
4.20708e-06
-1.38036e-06
-5.57232e-05
-4.65106e-06
5.56135e-05
6.14107e-06
-5.38657e-05
5.56458e-06
-1.73737e-07
5.39344e-05
-6.83987e-06
-1.35725e-06
-4.62756e-06
6.11102e-06
5.53026e-06
-1.65163e-07
-6.79993e-06
-4.30685e-06
-5.61249e-05
5.57807e-05
-5.13047e-05
1.09161e-06
5.14708e-05
-4.25333e-06
1.09604e-06
4.35001e-07
-5.28192e-05
-4.3513e-07
5.29658e-05
-3.20198e-07
-5.22956e-05
4.19097e-09
1.60957e-07
5.246e-05
1.05389e-07
4.33328e-07
-4.2204e-07
-3.29101e-07
1.0198e-08
1.55829e-07
9.87793e-08
3.76765e-07
-4.94828e-05
4.97625e-05
-4.90669e-05
1.34254e-07
4.93136e-05
3.73774e-07
1.32202e-07
1.78655e-10
-5.21084e-05
6.15038e-08
5.22672e-05
-5.95622e-08
-5.21081e-05
6.14691e-08
-1.60354e-07
5.22668e-05
-5.96375e-08
9.56876e-11
5.67449e-08
-5.95123e-08
5.67272e-08
-1.55587e-07
-5.95616e-08
1.15655e-10
-4.90709e-05
4.92666e-05
-4.90707e-05
-1.34002e-07
4.92663e-05
7.9708e-11
-1.32035e-07
-4.33581e-07
-5.2295e-05
4.08273e-09
5.24589e-05
1.05185e-07
-5.28186e-05
-4.3571e-07
1.7803e-07
5.29632e-05
-3.20482e-07
-4.33082e-07
1.02068e-08
9.86781e-08
-4.22035e-07
1.64486e-07
-3.28713e-07
-3.76486e-07
-4.90661e-05
4.93127e-05
-4.94812e-05
-1.09178e-06
4.97608e-05
-3.73577e-07
-1.09594e-06
1.38087e-06
-5.3864e-05
5.56271e-06
5.39349e-05
-6.83649e-06
-5.57227e-05
-4.64845e-06
5.56139e-05
6.13816e-06
1.35655e-06
5.52777e-06
-6.79702e-06
-4.62509e-06
6.10793e-06
4.30441e-06
-5.13024e-05
5.14689e-05
-5.61246e-05
5.57806e-05
4.25082e-06
-1.39156e-06
-5.55148e-05
-4.59295e-06
5.54271e-05
6.07223e-06
-5.40023e-05
5.50316e-06
-1.87218e-07
5.40601e-05
-6.76526e-06
-1.37577e-06
-4.57341e-06
6.04787e-06
5.47993e-06
-1.8551e-07
-6.73815e-06
-4.3102e-06
-5.54778e-05
5.5195e-05
-5.16136e-05
1.06118e-06
5.17454e-05
-4.27044e-06
1.0667e-06
4.26817e-07
-5.31005e-05
-4.48897e-07
5.323e-05
-2.94608e-07
-5.26163e-05
-1.10586e-08
1.65541e-07
5.27677e-05
1.20921e-07
4.2521e-07
-4.40094e-07
-3.05353e-07
-3.77016e-09
1.61393e-07
1.11371e-07
3.73144e-07
-5.00174e-05
5.02565e-05
-4.95485e-05
1.34489e-07
4.97761e-05
3.71695e-07
1.33056e-07
1.10277e-10
-5.24216e-05
6.35523e-08
5.25737e-05
-5.02434e-08
-5.24214e-05
6.36053e-08
-1.65206e-07
5.25735e-05
-5.03127e-08
-2.16771e-10
6.28293e-08
-5.56182e-08
6.28863e-08
-1.62091e-07
-5.56054e-08
2.4159e-10
-4.94625e-05
4.96603e-05
-4.94623e-05
-1.33791e-07
4.96599e-05
1.42389e-11
-1.33059e-07
-4.24991e-07
-5.26159e-05
-1.22348e-08
5.2767e-05
1.20857e-07
-5.31011e-05
-4.4942e-07
1.92109e-07
5.32283e-05
-2.94933e-07
-4.27215e-07
-3.30428e-09
1.1151e-07
-4.38957e-07
1.77476e-07
-3.03601e-07
-3.73189e-07
-4.95479e-05
4.9775e-05
-5.0016e-05
-1.06148e-06
5.02549e-05
-3.71535e-07
-1.06574e-06
1.39224e-06
-5.39995e-05
5.50143e-06
5.40599e-05
-6.76192e-06
-5.55138e-05
-4.59039e-06
5.5427e-05
6.06942e-06
1.37294e-06
5.4763e-06
-6.73636e-06
-4.57146e-06
6.04447e-06
4.30781e-06
-5.16114e-05
5.17435e-05
-5.54772e-05
5.51946e-05
4.26804e-06
-1.39413e-06
-5.53448e-05
-4.53202e-06
5.52703e-05
6.00068e-06
-5.41161e-05
5.42959e-06
-2.00194e-07
5.41636e-05
-6.67099e-06
-1.38053e-06
-4.51254e-06
5.97534e-06
5.40983e-06
-1.94231e-07
-6.6522e-06
-4.29315e-06
-5.49438e-05
5.4705e-05
-5.18577e-05
1.03177e-06
5.19623e-05
-4.26137e-06
1.03616e-06
4.16151e-07
-5.33482e-05
-4.59805e-07
5.34582e-05
-2.6658e-07
-5.29092e-05
-2.7718e-08
1.66958e-07
5.30435e-05
1.42558e-07
4.168e-07
-4.51082e-07
-2.78167e-07
-1.93742e-08
1.64893e-07
1.29787e-07
3.67903e-07
-5.04745e-05
5.06785e-05
-4.99915e-05
1.32989e-07
5.01987e-05
3.67131e-07
1.32378e-07
6.86441e-11
-5.2719e-05
5.82834e-08
5.28593e-05
-3.16674e-08
-5.27188e-05
5.82898e-08
-1.66754e-07
5.28591e-05
-3.17344e-08
4.05763e-11
6.11601e-08
-4.16394e-08
6.11755e-08
-1.64801e-07
-4.16959e-08
6.65457e-11
-4.98537e-05
5.00449e-05
-4.98534e-05
-1.32843e-07
5.00446e-05
6.55251e-11
-1.3228e-07
-4.15883e-07
-5.29086e-05
-2.76609e-08
5.30429e-05
1.42452e-07
-5.33475e-05
-4.59854e-07
2.00348e-07
5.34573e-05
-2.66223e-07
-4.17008e-07
-1.90372e-08
1.29702e-07
-4.50914e-07
1.92299e-07
-2.77547e-07
-3.67683e-07
-4.99906e-05
5.01978e-05
-5.0473e-05
-1.03163e-06
5.06771e-05
-3.66892e-07
-1.03591e-06
1.39357e-06
-5.4115e-05
5.42724e-06
5.41628e-05
-6.66822e-06
-5.53444e-05
-4.52974e-06
5.52699e-05
5.99779e-06
1.3795e-06
5.40727e-06
-6.64961e-06
-4.51028e-06
5.97238e-06
4.29083e-06
-5.18559e-05
5.19607e-05
-5.49433e-05
5.47044e-05
4.25901e-06
-1.38964e-06
-5.51962e-05
-4.47224e-06
5.51261e-05
5.93198e-06
-5.42069e-05
5.34682e-06
-2.08554e-07
5.42404e-05
-6.56146e-06
-1.37854e-06
-4.45175e-06
5.90436e-06
5.33103e-06
-2.02681e-07
-6.55013e-06
-4.26195e-06
-5.44894e-05
5.42791e-05
-5.20499e-05
1.00369e-06
5.21311e-05
-4.23614e-06
1.00731e-06
4.05511e-07
-5.35579e-05
-4.70023e-07
5.36476e-05
-2.33785e-07
-5.31673e-05
-4.62616e-08
1.66043e-07
5.32819e-05
1.71096e-07
4.06655e-07
-4.61002e-07
-2.47984e-07
-3.64995e-08
1.64945e-07
1.54432e-07
3.61437e-07
-5.08638e-05
5.1036e-05
-5.03925e-05
1.31018e-07
5.05767e-05
3.61112e-07
1.30753e-07
6.2799e-11
-5.29902e-05
4.60237e-08
5.31111e-05
-9.67098e-10
-5.299e-05
4.60315e-08
-1.65869e-07
5.31109e-05
-1.02866e-09
6.20607e-11
5.23002e-08
-1.82989e-08
5.231e-08
-1.6477e-07
-1.83696e-08
6.21021e-11
-5.02279e-05
5.04049e-05
-5.02276e-05
-1.30881e-07
5.04046e-05
6.24986e-11
-1.30615e-07
-4.05326e-07
-5.31667e-05
-4.6189e-08
5.32813e-05
1.70995e-07
-5.3557e-05
-4.70043e-07
2.0833e-07
5.36468e-05
-2.33386e-07
-4.06479e-07
-3.64264e-08
1.54333e-07
-4.61015e-07
2.02388e-07
-2.47581e-07
-3.6123e-07
-5.03916e-05
5.05758e-05
-5.08623e-05
-1.00354e-06
5.10346e-05
-3.60904e-07
-1.00716e-06
1.38903e-06
-5.4206e-05
5.34447e-06
5.42396e-05
-6.55877e-06
-5.51958e-05
-4.47003e-06
5.51257e-05
5.92917e-06
1.37791e-06
5.32868e-06
-6.54745e-06
-4.44952e-06
5.90152e-06
4.25967e-06
-5.20483e-05
5.21296e-05
-5.44888e-05
5.42784e-05
4.23386e-06
-1.37858e-06
-5.50522e-05
-4.40888e-06
5.49782e-05
5.86146e-06
-5.42681e-05
5.24815e-06
-2.14234e-07
5.42839e-05
-6.42832e-06
-1.37064e-06
-4.39062e-06
5.83513e-06
5.24124e-06
-2.09471e-07
-6.43005e-06
-4.21482e-06
-5.40855e-05
5.38914e-05
-5.21956e-05
9.76066e-07
5.22528e-05
-4.19702e-06
9.79726e-07
3.94314e-07
-5.3726e-05
-4.81032e-07
5.37926e-05
-1.94115e-07
-5.33845e-05
-6.70501e-08
1.61742e-07
5.34762e-05
2.0795e-07
3.9581e-07
-4.71306e-07
-2.12335e-07
-5.58164e-08
1.62411e-07
1.86602e-07
3.53946e-07
-5.11902e-05
5.13313e-05
-5.07466e-05
1.28392e-07
5.09051e-05
3.54157e-07
1.28451e-07
6.23654e-11
-5.32218e-05
2.91688e-08
5.33225e-05
3.18034e-08
-5.32216e-05
2.91777e-08
-1.61573e-07
5.33223e-05
3.17462e-08
6.21045e-11
3.80033e-08
1.36758e-08
3.80108e-08
-1.62244e-07
1.36235e-08
6.17647e-11
-5.05713e-05
5.07288e-05
-5.0571e-05
-1.28256e-07
5.07285e-05
6.09507e-11
-1.28317e-07
-3.94137e-07
-5.3384e-05
-6.69747e-08
5.34757e-05
2.0785e-07
-5.37252e-05
-4.81054e-07
2.14006e-07
5.37918e-05
-1.93719e-07
-3.95632e-07
-5.57431e-08
1.86501e-07
-4.71327e-07
2.09242e-07
-2.11941e-07
-3.53742e-07
-5.07457e-05
5.09042e-05
-5.11889e-05
-9.75921e-07
5.133e-05
-3.53954e-07
-9.79581e-07
1.378e-06
-5.42673e-05
5.24584e-06
5.42832e-05
-6.42569e-06
-5.50518e-05
-4.40671e-06
5.49778e-05
5.85873e-06
1.37005e-06
5.23893e-06
-6.42742e-06
-4.38844e-06
5.83237e-06
4.21261e-06
-5.21941e-05
5.22514e-05
-5.40848e-05
5.38907e-05
4.1948e-06
-1.36358e-06
-5.48965e-05
-4.34984e-06
5.48101e-05
5.79981e-06
-5.42917e-05
5.14092e-06
-2.17904e-07
5.42846e-05
-6.27949e-06
-1.35806e-06
-4.33079e-06
5.7706e-06
5.14024e-06
-2.14134e-07
-6.29202e-06
-4.15956e-06
-5.37075e-05
5.35173e-05
-5.22927e-05
9.50191e-07
5.23239e-05
-4.14692e-06
9.53444e-07
3.83534e-07
-5.38462e-05
-4.9431e-07
5.38856e-05
-1.46598e-07
-5.35539e-05
-9.16328e-08
1.56519e-07
5.36178e-05
2.54758e-07
3.84962e-07
-4.83336e-07
-1.69358e-07
-7.81518e-08
1.57584e-07
2.27834e-07
3.46175e-07
-5.14548e-05
5.15645e-05
-5.10479e-05
1.25512e-07
5.11769e-05
3.46647e-07
1.25726e-07
6.46133e-11
-5.34093e-05
5.88017e-09
5.34821e-05
7.77902e-08
-5.34091e-05
5.89046e-09
-1.56346e-07
5.34819e-05
7.77307e-08
6.20633e-11
1.79478e-08
5.27441e-08
1.79573e-08
-1.57417e-07
5.2686e-08
6.89442e-11
-5.08724e-05
5.10037e-05
-5.08721e-05
-1.25362e-07
5.10034e-05
6.28932e-11
-1.25588e-07
-3.83357e-07
-5.35534e-05
-9.15543e-08
5.36173e-05
2.54656e-07
-5.38455e-05
-4.94328e-07
2.17691e-07
5.3885e-05
-1.46223e-07
-3.84788e-07
-7.8076e-08
2.27735e-07
-4.83357e-07
2.13913e-07
-1.68972e-07
-3.4596e-07
-5.1047e-05
5.1176e-05
-5.14535e-05
-9.5004e-07
5.15633e-05
-3.46442e-07
-9.53299e-07
1.36302e-06
-5.4291e-05
5.13866e-06
5.4284e-05
-6.27692e-06
-5.48961e-05
-4.34772e-06
5.48097e-05
5.79713e-06
1.35749e-06
5.13798e-06
-6.28944e-06
-4.32866e-06
5.76791e-06
4.1574e-06
-5.22914e-05
5.23226e-05
-5.37068e-05
5.35164e-05
4.14476e-06
-1.34597e-06
-5.47116e-05
-4.2943e-06
5.46043e-05
5.74762e-06
-5.42669e-05
5.0223e-06
-2.19758e-07
5.42312e-05
-6.11281e-06
-1.34149e-06
-4.27397e-06
5.71395e-06
5.02874e-06
-2.16859e-07
-6.13568e-06
-4.09435e-06
-5.33315e-05
5.31315e-05
-5.23359e-05
9.2523e-07
5.23387e-05
-4.08817e-06
9.28518e-07
3.73303e-07
-5.39101e-05
-5.10235e-07
5.39177e-05
-9.04344e-08
-5.36652e-05
-1.21644e-07
1.49918e-07
5.36955e-05
3.14712e-07
3.74538e-07
-4.97698e-07
-1.1812e-07
-1.04967e-07
1.51871e-07
2.80259e-07
3.38165e-07
-5.16565e-05
5.17333e-05
-5.1288e-05
1.22503e-07
5.1382e-05
3.38822e-07
1.22789e-07
8.85161e-11
-5.35382e-05
-2.63125e-08
5.35773e-05
1.37115e-07
-5.35381e-05
-2.63069e-08
-1.497e-07
5.35771e-05
1.37043e-07
6.94034e-11
-9.03224e-09
1.04703e-07
-9.0226e-09
-1.51689e-07
1.04642e-07
1.18659e-10
-5.11174e-05
5.12135e-05
-5.11171e-05
-1.22271e-07
5.12132e-05
8.31049e-11
-1.22616e-07
-3.73102e-07
-5.36647e-05
-1.21559e-07
5.36951e-05
3.14555e-07
-5.39094e-05
-5.10231e-07
2.19984e-07
5.39176e-05
-9.09867e-08
-3.74357e-07
-1.04886e-07
2.80152e-07
-4.97706e-07
2.16678e-07
-1.17794e-07
-3.37877e-07
-5.12871e-05
5.13811e-05
-5.16553e-05
-9.25043e-07
5.17323e-05
-3.38588e-07
-9.28356e-07
1.34548e-06
-5.42663e-05
5.0201e-06
5.42311e-05
-6.11037e-06
-5.47112e-05
-4.29222e-06
5.4604e-05
5.74494e-06
1.34096e-06
5.02653e-06
-6.13317e-06
-4.27188e-06
5.7113e-06
4.09226e-06
-5.23347e-05
5.23375e-05
-5.33306e-05
5.31307e-05
4.08607e-06
-1.32556e-06
-5.44807e-05
-4.24456e-06
5.43433e-05
5.70753e-06
-5.41818e-05
4.89361e-06
-2.20155e-07
5.41102e-05
-5.92746e-06
-1.32308e-06
-4.22157e-06
5.66821e-06
4.90727e-06
-2.19466e-07
-5.96143e-06
-4.02634e-06
-5.29299e-05
5.27116e-05
-5.23216e-05
9.02429e-07
5.22865e-05
-4.01992e-06
9.04391e-07
3.63242e-07
-5.39114e-05
-5.33014e-07
5.38836e-05
-2.25957e-08
-5.37069e-05
-1.58082e-07
1.43298e-07
5.36974e-05
3.87608e-07
3.65092e-07
-5.1539e-07
-6.29195e-08
-1.3771e-07
1.449e-07
3.4644e-07
3.29876e-07
-5.17915e-05
5.1831e-05
-5.14553e-05
1.1934e-07
5.15078e-05
3.30859e-07
1.19803e-07
9.80692e-11
-5.35961e-05
-6.53346e-08
5.35936e-05
2.11019e-07
-5.35959e-05
-6.53246e-08
-1.43057e-07
5.35935e-05
2.10945e-07
1.53579e-10
-4.46311e-08
1.7051e-07
-4.46329e-08
-1.44421e-07
1.70394e-07
1.23883e-10
-5.12885e-05
5.13424e-05
-5.12881e-05
-1.19092e-07
5.1342e-05
1.51328e-10
-1.19461e-07
-3.62934e-07
-5.37064e-05
-1.58005e-07
5.36969e-05
3.87402e-07
-5.39104e-05
-5.3309e-07
2.20039e-07
5.3883e-05
-2.24677e-08
-3.6405e-07
-1.37685e-07
3.46006e-07
-5.15832e-07
2.16694e-07
-5.77459e-08
-3.29561e-07
-5.14544e-05
5.15069e-05
-5.17902e-05
-9.02239e-07
5.18298e-05
-3.30398e-07
-9.04193e-07
1.32499e-06
-5.41807e-05
4.89141e-06
5.41095e-05
-5.92515e-06
-5.44801e-05
-4.24254e-06
5.43427e-05
5.70486e-06
1.32185e-06
4.90475e-06
-5.95955e-06
-4.21963e-06
5.66539e-06
4.02429e-06
-5.23203e-05
5.22851e-05
-5.29288e-05
5.27106e-05
4.01779e-06
-1.30291e-06
-5.4185e-05
-4.20093e-06
5.40077e-05
5.68119e-06
-5.40213e-05
4.75401e-06
-2.18028e-07
5.39052e-05
-5.72286e-06
-1.301e-06
-4.17408e-06
5.63335e-06
4.77203e-06
-2.17114e-07
-5.76697e-06
-3.95168e-06
-5.24869e-05
5.22377e-05
-5.22267e-05
8.80833e-07
5.21482e-05
-3.94936e-06
8.82437e-07
3.51768e-07
-5.38361e-05
-5.70266e-07
5.37631e-05
7.35441e-08
-5.36649e-05
-2.0243e-07
1.38976e-07
5.36067e-05
4.7347e-07
3.54e-07
-5.44338e-07
2.07133e-08
-1.77432e-07
1.3932e-07
4.24538e-07
3.21038e-07
-5.18469e-05
5.18364e-05
-5.15361e-05
1.15955e-07
5.15387e-05
3.22219e-07
1.16469e-07
5.54251e-11
-5.35676e-05
-1.1054e-07
5.35155e-05
3.01498e-07
-5.35674e-05
-1.10521e-07
-1.38837e-07
5.35154e-05
3.01443e-07
6.67671e-11
-8.62447e-08
2.5156e-07
-8.62365e-08
-1.39147e-07
2.51501e-07
6.50443e-11
-5.13725e-05
5.13779e-05
-5.13722e-05
-1.15811e-07
5.13775e-05
8.64342e-11
-1.16291e-07
-3.51581e-07
-5.36645e-05
-2.02358e-07
5.36062e-05
4.73349e-07
-5.38356e-05
-5.70359e-07
2.1782e-07
5.37625e-05
7.4108e-08
-3.53797e-07
-1.77355e-07
4.24405e-07
-5.44395e-07
2.16937e-07
2.10353e-08
-3.20827e-07
-5.15352e-05
5.15379e-05
-5.18457e-05
-8.80692e-07
5.18352e-05
-3.21978e-07
-8.82277e-07
1.30242e-06
-5.40206e-05
4.7519e-06
5.39046e-05
-5.72048e-06
-5.41845e-05
-4.19895e-06
5.40072e-05
5.67871e-06
1.3005e-06
4.76991e-06
-5.76459e-06
-4.17207e-06
5.6308e-06
3.94968e-06
-5.22254e-05
5.21469e-05
-5.24859e-05
5.22366e-05
3.94735e-06
-1.27882e-06
-5.38046e-05
-4.16581e-06
5.35765e-05
5.67276e-06
-5.37673e-05
4.6044e-06
-2.13689e-07
5.35971e-05
-5.49927e-06
-1.27812e-06
-4.13597e-06
5.61718e-06
4.63025e-06
-2.1377e-07
-5.5567e-06
-3.87256e-06
-5.19756e-05
5.16823e-05
-5.20426e-05
8.60699e-07
5.19137e-05
-3.87388e-06
8.6199e-07
3.39038e-07
-5.36587e-05
-6.20453e-07
5.35226e-05
2.03773e-07
-5.35207e-05
-2.55122e-07
1.36495e-07
5.34035e-05
5.74931e-07
3.41809e-07
-5.89624e-07
1.38453e-07
-2.25481e-07
1.36445e-07
5.16817e-07
3.11931e-07
-5.17954e-05
5.17237e-05
-5.15135e-05
1.12538e-07
5.14578e-05
3.13365e-07
1.13111e-07
4.66733e-11
-5.34365e-05
-1.64213e-07
5.33267e-05
4.10459e-07
-5.34363e-05
-1.64195e-07
-1.36369e-07
5.33265e-05
4.10409e-07
4.92761e-11
-1.34645e-07
3.50099e-07
-1.34625e-07
-1.36316e-07
3.50047e-07
4.85025e-11
-5.13563e-05
5.13046e-05
-5.13559e-05
-1.12425e-07
5.13042e-05
5.36149e-11
-1.12988e-07
-3.38875e-07
-5.35203e-05
-2.55055e-07
5.3403e-05
5.74824e-07
-5.36581e-05
-6.20521e-07
2.13477e-07
5.3522e-05
2.04209e-07
-3.41638e-07
-2.25413e-07
5.16705e-07
-5.89705e-07
2.1356e-07
1.38909e-07
-3.11747e-07
-5.15126e-05
5.14569e-05
-5.17942e-05
-8.60571e-07
5.17225e-05
-3.13173e-07
-8.6186e-07
1.27832e-06
-5.37667e-05
4.60232e-06
5.35965e-05
-5.49691e-06
-5.38041e-05
-4.16387e-06
5.35759e-05
5.67033e-06
1.27764e-06
4.62817e-06
-5.55436e-06
-4.13401e-06
5.61475e-06
3.8706e-06
-5.20413e-05
5.19125e-05
-5.19745e-05
5.16812e-05
3.87192e-06
-1.25332e-06
-5.33178e-05
-4.1406e-06
5.3028e-05
5.68366e-06
-5.34011e-05
4.44195e-06
-2.08561e-07
5.31675e-05
-5.25313e-06
-1.25349e-06
-4.10588e-06
5.61807e-06
4.4757e-06
-2.0904e-07
-5.32418e-06
-3.78999e-06
-5.13701e-05
5.10195e-05
-5.17532e-05
8.41527e-07
5.15637e-05
-3.79362e-06
8.42557e-07
3.27195e-07
-5.3357e-05
-6.77682e-07
5.31552e-05
3.43681e-07
-5.32553e-05
-3.17514e-07
1.32878e-07
5.30711e-05
6.96106e-07
3.29633e-07
-6.42304e-07
2.6927e-07
-2.82373e-07
1.33399e-07
6.2672e-07
3.02833e-07
-5.16197e-05
5.14807e-05
-5.137e-05
1.09131e-07
5.12462e-05
3.04329e-07