/*--------------------------------*- C++ -*----------------------------------*\
  =========                 |
  \\      /  F ield         | OpenFOAM: The Open Source CFD Toolbox
   \\    /   O peration     | Website:  https://openfoam.org
    \\  /    A nd           | Version:  9
     \\/     M anipulation  |
\*---------------------------------------------------------------------------*/
FoamFile
{
    format      ascii;
    class       volScalarField;
    location    "2.1";
    object      epsilon;
}
// * * * * * * * * * * * * * * * * * * * * * * * * * * * * * * * * * * * * * //

dimensions      [0 2 -3 0 0 0 0];

internalField   nonuniform List<scalar> 
36360
(
0.22846
0.17629
0.0788561
0.0710066
0.0596513
0.0387639
0.0119221
0.00983598
0.0406369
0.00703396
0.010923
0.0044242
0.00854204
0.00341222
0.00517723
0.00494382
0.00243208
0.00243143
0.00439629
0.00439637
0.00307933
0.00307928
0.00496701
0.004967
0.00703133
0.0406402
0.00442374
0.0109227
0.00341162
0.00854226
0.00494383
0.00517701
0.17633
0.228547
0.0710201
0.078894
0.0387819
0.0596912
0.00983774
0.0119259
0.430113
0.33282
0.344447
0.264651
0.245331
0.15985
0.155564
0.0988167
0.125497
0.0404496
0.0854509
0.0195467
0.0548346
0.0113054
0.0244478
0.00482963
0.00913972
0.00913621
0.00349782
0.00349547
0.00265276
0.00265184
0.00218174
0.00218141
0.0404516
0.125532
0.019542
0.0854686
0.0113029
0.0548556
0.00482811
0.024453
0.332917
0.430277
0.264719
0.344574
0.159939
0.245488
0.098867
0.155663
0.540755
0.423983
0.493434
0.384606
0.374732
0.256209
0.317938
0.212957
0.185094
0.0777114
0.158542
0.0600749
0.112633
0.041013
0.0854951
0.0251779
0.0351343
0.0351412
0.0214516
0.0214516
0.0136899
0.0136904
0.00563289
0.00563153
0.0777414
0.185173
0.0600891
0.158597
0.0410313
0.112706
0.0251818
0.0855391
0.424147
0.541005
0.384734
0.493639
0.256389
0.375011
0.213089
0.318154
0.602889
0.476539
0.576261
0.453901
0.452508
0.317421
0.418726
0.290593
0.222468
0.105076
0.206111
0.0927816
0.153802
0.0697504
0.135403
0.0563621
0.0583377
0.0583569
0.0477114
0.0477246
0.0356463
0.0356608
0.0247137
0.0247209
0.10514
0.222601
0.0928286
0.206217
0.0698088
0.153944
0.0563999
0.13551
0.476779
0.603236
0.454102
0.576558
0.317708
0.452928
0.290826
0.419074
0.637129
0.505888
0.622682
0.493475
0.49705
0.35324
0.478102
0.33796
0.24424
0.122035
0.234971
0.114754
0.179086
0.0890464
0.168225
0.0806771
0.0733105
0.0733395
0.0668551
0.0668796
0.0524447
0.0524722
0.0450715
0.045093
0.122129
0.244422
0.114834
0.235129
0.0891421
0.179292
0.0807553
0.1684
0.5062
0.637569
0.493752
0.623077
0.353629
0.497603
0.3383
0.478591
0.654631
0.520988
0.647479
0.514812
0.520377
0.372087
0.510787
0.364351
0.255655
0.131087
0.250981
0.127381
0.192611
0.0995132
0.187057
0.09523
0.0813539
0.08139
0.0780648
0.0780978
0.0617214
0.0617579
0.057933
0.0579656
0.131202
0.255875
0.127486
0.251184
0.0996359
0.192864
0.0953407
0.187289
0.521356
0.655145
0.515155
0.647959
0.372555
0.521036
0.364783
0.511398
0.66246
0.527787
0.659448
0.525165
0.531089
0.380683
0.526916
0.377355
0.260859
0.135222
0.258854
0.133635
0.198815
0.104239
0.196418
0.102436
0.0850085
0.0850488
0.0836121
0.0836506
0.0658609
0.0659025
0.0642961
0.0643356
0.13535
0.261102
0.133757
0.259087
0.104378
0.199098
0.102568
0.196689
0.528192
0.663022
0.525554
0.659989
0.381201
0.531815
0.377852
0.527612
0.665127
0.53017
0.664271
0.529389
0.535047
0.383792
0.533683
0.382744
0.26275
0.136741
0.262123
0.136236
0.201109
0.105935
0.20033
0.105375
0.0863439
0.0863864
0.0859032
0.0859448
0.0673054
0.0673494
0.0668405
0.0668836
0.136876
0.263006
0.136369
0.262373
0.106081
0.201407
0.105518
0.200623
0.530594
0.665715
0.529805
0.664848
0.384337
0.535809
0.383277
0.53443
0.665266
0.530413
0.665418
0.530484
0.535713
0.384255
0.535673
0.384259
0.263051
0.137032
0.263059
0.137017
0.201553
0.106256
0.201505
0.106227
0.0866134
0.0866567
0.0865934
0.0866365
0.0675654
0.0676102
0.0675485
0.0675931
0.13717
0.263311
0.137153
0.263318
0.106405
0.201858
0.106375
0.201808
0.530844
0.665864
0.530913
0.666013
0.384809
0.53649
0.384811
0.536445
0.664293
0.529759
0.664912
0.530198
0.535059
0.383668
0.535534
0.38408
0.262726
0.136864
0.262974
0.137012
0.201299
0.106086
0.201503
0.106225
0.0864986
0.0865421
0.0866095
0.0866529
0.06742
0.0674649
0.0675385
0.0675834
0.137002
0.262988
0.13715
0.263236
0.106236
0.201605
0.106375
0.201808
0.530192
0.664894
0.530631
0.665512
0.384226
0.53584
0.384637
0.536314
0.662727
0.528634
0.663598
0.52927
0.533685
0.382531
0.534465
0.38318
0.262067
0.13645
0.262461
0.136713
0.20066
0.105649
0.201046
0.105924
0.0861841
0.0862275
0.0863923
0.0864358
0.0670564
0.0671012
0.0672893
0.0673342
0.136588
0.262328
0.136851
0.262723
0.105798
0.200965
0.106074
0.201351
0.529067
0.663328
0.529703
0.664199
0.383087
0.534465
0.383737
0.535246
0.660811
0.52725
0.661841
0.528002
0.531945
0.381119
0.532889
0.38189
0.261239
0.135915
0.261707
0.13623
0.199839
0.105086
0.200306
0.105417
0.085769
0.0858121
0.0860211
0.0860643
0.0665884
0.0666328
0.0668703
0.0669149
0.136052
0.261498
0.136368
0.261968
0.105234
0.200142
0.105566
0.20061
0.52768
0.661408
0.528434
0.66244
0.381673
0.532721
0.382445
0.533667
0.658624
0.525678
0.659782
0.526517
0.529938
0.379514
0.531005
0.380373
0.260293
0.135299
0.260816
0.135652
0.198889
0.104435
0.199415
0.104807
0.085289
0.0853318
0.0855709
0.0856138
0.06605
0.0660939
0.066364
0.0664082
0.135435
0.260551
0.135788
0.261075
0.104581
0.19919
0.104954
0.199717
0.526106
0.659219
0.526947
0.660378
0.380063
0.53071
0.380925
0.531779
0.656203
0.523948
0.657476
0.524864
0.527705
0.377744
0.528882
0.378683
0.259251
0.134617
0.259821
0.135002
0.19783
0.10371
0.198409
0.104117
0.0847553
0.0847977
0.0850632
0.0851058
0.0654518
0.0654953
0.0657946
0.0658383
0.134751
0.259507
0.135137
0.260078
0.103855
0.198128
0.104263
0.198709
0.524372
0.656793
0.525291
0.658068
0.378289
0.528472
0.379231
0.529651
0.653537
0.522054
0.654933
0.523053
0.525248
0.375805
0.526537
0.376829
0.258111
0.133869
0.25873
0.134287
0.196665
0.102912
0.197297
0.103356
0.0841693
0.0842113
0.0845031
0.0845453
0.064795
0.064838
0.0651665
0.0652098
0.134003
0.258365
0.134421
0.258985
0.103056
0.196961
0.1035
0.197594
0.522475
0.654123
0.523476
0.655521
0.376346
0.526008
0.377372
0.5273
0.650627
0.519998
0.652146
0.521078
0.522562
0.373695
0.523965
0.374804
0.256874
0.133055
0.257542
0.133506
0.195392
0.102041
0.196077
0.102521
0.0835302
0.0835717
0.0838905
0.0839323
0.0640781
0.0641205
0.0644793
0.064522
0.133187
0.257125
0.133639
0.257794
0.102183
0.195684
0.102664
0.196371
0.520415
0.651208
0.521497
0.652729
0.374231
0.523316
0.375343
0.524722
0.647462
0.517772
0.649109
0.518937
0.519641
0.371406
0.521161
0.372604
0.255534
0.132173
0.256253
0.132658
0.194008
0.101093
0.194748
0.101611
0.0828358
0.0828769
0.0832237
0.0832651
0.0632985
0.0633403
0.0637306
0.0637728
0.132304
0.255783
0.132789
0.256504
0.101233
0.194296
0.101752
0.195039
0.518185
0.648037
0.519353
0.649688
0.371937
0.520387
0.373138
0.521911
0.644029
0.515368
0.645811
0.516624
0.516472
0.36893
0.518116
0.370222
0.254088
0.131219
0.254861
0.13174
0.192506
0.100065
0.193305
0.100622
0.0820838
0.0821244
0.0825005
0.0825414
0.0624537
0.0624948
0.0629181
0.0629596
0.131348
0.254334
0.13187
0.255108
0.100203
0.192791
0.100762
0.193592
0.515778
0.644599
0.517035
0.646384
0.369454
0.517211
0.37075
0.518859
0.640317
0.512779
0.642239
0.514126
0.513046
0.366254
0.514818
0.367645
0.252529
0.13019
0.253358
0.130748
0.190883
0.098954
0.191742
0.0995523
0.0812722
0.0813123
0.0817186
0.081759
0.0615415
0.061582
0.0620391
0.0620799
0.130317
0.252772
0.130876
0.253603
0.0990901
0.191165
0.0996895
0.192025
0.513183
0.640882
0.514533
0.642806
0.366773
0.513778
0.368167
0.515553
0.636324
0.51
0.638388
0.511443
0.509359
0.363373
0.511262
0.364867
0.250856
0.129085
0.251743
0.129681
0.189135
0.0977582
0.190056
0.0983983
0.0803994
0.0804389
0.0808763
0.0809161
0.0605606
0.0606003
0.0610919
0.061132
0.12921
0.251096
0.129808
0.251984
0.097892
0.189413
0.0985334
0.190336
0.5104
0.636882
0.511846
0.638949
0.363885
0.510082
0.365382
0.511989
0.632043
0.507028
0.63425
0.508567
0.505405
0.36028
0.50744
0.361879
0.249066
0.127902
0.250011
0.128537
0.187261
0.0964767
0.188244
0.097159
0.0794646
0.0795035
0.0799722
0.0800115
0.0595102
0.0595491
0.0600755
0.0601148
0.128026
0.249303
0.128662
0.250249
0.096608
0.187534
0.0972916
0.18852
0.507422
0.632594
0.508965
0.634805
0.360785
0.506119
0.362387
0.508158
0.627473
0.503861
0.629824
0.505497
0.501186
0.356974
0.503352
0.358678
0.247159
0.126641
0.248162
0.127315
0.18526
0.0951096
0.186306
0.0958337
0.0784677
0.078506
0.079006
0.0790446
0.0583909
0.0584289
0.0589898
0.0590283
0.126763
0.247392
0.127438
0.248397
0.0952384
0.185528
0.0959639
0.186576
0.50425
0.628018
0.505889
0.630372
0.357471
0.50189
0.35918
0.504061
0.622618
0.500503
0.625111
0.502235
0.496706
0.353464
0.499
0.355266
0.245136
0.125304
0.246197
0.126015
0.183136
0.0936589
0.184241
0.0944238
0.0774095
0.0774471
0.0779779
0.0780159
0.0572041
0.0572412
0.0578357
0.0578733
0.125423
0.245366
0.126136
0.246428
0.0937849
0.183399
0.0945512
0.184507
0.500886
0.623156
0.502621
0.625652
0.353953
0.4974
0.35576
0.499699
0.617487
0.49695
0.620116
0.498778
0.491976
0.349779
0.494393
0.351667
0.242999
0.123891
0.244116
0.124639
0.180893
0.0921268
0.182057
0.0929312
0.0762916
0.0763284
0.0768892
0.0769265
0.0559521
0.0559882
0.0566151
0.0566518
0.124008
0.243224
0.124758
0.244343
0.0922499
0.181151
0.0930558
0.182318
0.497328
0.618017
0.499159
0.620649
0.35026
0.492659
0.352152
0.495081
0.612099
0.493221
0.614853
0.495134
0.487008
0.345908
0.48954
0.347888
0.240755
0.122407
0.241924
0.12319
0.178535
0.0905177
0.179754
0.0913591
0.075117
0.0751531
0.0757421
0.0757786
0.0546389
0.054674
0.0553312
0.0553668
0.122522
0.240976
0.123306
0.242147
0.0906377
0.178788
0.0914807
0.18001
0.493592
0.612621
0.495509
0.615378
0.34638
0.48768
0.348364
0.490218
0.606478
0.489329
0.609345
0.491321
0.481823
0.341865
0.48446
0.343927
0.238412
0.120858
0.239629
0.121672
0.176071
0.088838
0.177341
0.0897129
0.0738901
0.0739254
0.0745403
0.074576
0.0532703
0.0533044
0.0539887
0.0540233
0.12097
0.238629
0.121786
0.239848
0.0889548
0.176319
0.0898314
0.177592
0.489694
0.606991
0.49169
0.609862
0.342328
0.482484
0.344395
0.485126
0.600651
0.485293
0.603617
0.487355
0.476447
0.337672
0.479175
0.339805
0.235981
0.11925
0.23724
0.120092
0.173514
0.0870957
0.174828
0.088
0.0726167
0.0726512
0.073289
0.0733239
0.0518535
0.0518864
0.0525942
0.0526277
0.11936
0.236193
0.120203
0.237455
0.0872093
0.173755
0.0881153
0.175073
0.485651
0.601155
0.487717
0.604125
0.338126
0.477095
0.340264
0.479829
0.594651
0.481129
0.597698
0.483251
0.470909
0.33335
0.473713
0.335545
0.233473
0.117591
0.234768
0.118457
0.170874
0.0853008
0.172227
0.0862293
0.0713036
0.0713372
0.0719944
0.0720284
0.0503968
0.0504286
0.0511555
0.0511878
0.117699
0.233681
0.118566
0.234979
0.085411
0.17111
0.0863413
0.172466
0.48148
0.595146
0.483606
0.598198
0.333794
0.471545
0.335994
0.474355
0.588521
0.476876
0.591628
0.479037
0.465243
0.328911
0.468106
0.33116
0.230907
0.115893
0.232229
0.116777
0.168168
0.0834644
0.169551
0.0844113
0.0699589
0.0699916
0.070664
0.0706972
0.0489102
0.0489407
0.0496817
0.0497129
0.115998
0.231109
0.116883
0.232434
0.0835712
0.168398
0.0845199
0.169784
0.47722
0.589007
0.479384
0.592119
0.329346
0.465867
0.3316
0.468735
0.582289
0.472557
0.585443
0.474751
0.459484
0.3244
0.462389
0.326679
0.228295
0.114165
0.229638
0.115063
0.165415
0.0815984
0.166819
0.0825579
0.0685908
0.0686227
0.0693062
0.0693385
0.0474037
0.0474331
0.0481831
0.0482131
0.114267
0.228493
0.115166
0.229839
0.0817016
0.165638
0.082663
0.167046
0.472894
0.582766
0.475091
0.585924
0.324824
0.460094
0.327109
0.463005
0.57599
0.468175
0.579174
0.470398
0.453656
0.319836
0.456592
0.322139
0.225646
0.112415
0.227006
0.113322
0.162624
0.0797126
0.164045
0.0806802
0.0672063
0.0672372
0.0679287
0.0679601
0.045887
0.0459151
0.0466697
0.0466984
0.112514
0.225839
0.113423
0.227202
0.0798122
0.162841
0.0807817
0.164265
0.468504
0.576457
0.470731
0.579645
0.320251
0.454253
0.322559
0.457195
0.569639
0.463736
0.572848
0.465988
0.447759
0.315219
0.450731
0.31755
0.222961
0.110643
0.22434
0.111561
0.159798
0.0778114
0.161237
0.0787859
0.065808
0.0658379
0.066537
0.0665674
0.0443661
0.044393
0.0451496
0.0451772
0.110739
0.223149
0.111659
0.224531
0.0779073
0.160009
0.0788837
0.16145
0.464058
0.570096
0.466313
0.57331
0.315623
0.448343
0.317959
0.451321
0.563211
0.459214
0.566465
0.461513
0.441745
0.310512
0.444786
0.312895
0.220218
0.108837
0.221631
0.109775
0.156916
0.0758857
0.158387
0.0768742
0.0643869
0.0644159
0.065129
0.0651585
0.0428376
0.0428632
0.0436255
0.0436518
0.10893
0.220401
0.10987
0.221816
0.0759779
0.15712
0.0769683
0.158594
0.459527
0.563657
0.461831
0.566917
0.310905
0.442314
0.313293
0.445362
0.556601
0.454515
0.559966
0.45692
0.435459
0.305608
0.438663
0.308108
0.21735
0.106952
0.218837
0.107937
0.153908
0.073897
0.155454
0.0749236
0.0629095
0.0629374
0.0636857
0.0637142
0.0412766
0.0413009
0.0420851
0.0421101
0.107041
0.217527
0.108029
0.219017
0.0739851
0.154105
0.0750139
0.155654
0.45482
0.557036
0.457229
0.560406
0.305988
0.436012
0.308495
0.439224
0.549575
0.449434
0.553186
0.452064
0.428579
0.300272
0.432132
0.303027
0.21421
0.104886
0.215857
0.105978
0.150624
0.0717511
0.152332
0.0728719
0.0612959
0.0613226
0.0621536
0.0621809
0.0396147
0.0396375
0.0404852
0.0405087
0.104972
0.21438
0.106066
0.216031
0.0718349
0.150813
0.072958
0.152525
0.449729
0.549996
0.452364
0.553614
0.300639
0.429114
0.303401
0.432676
0.541715
0.44361
0.545808
0.446666
0.420537
0.294123
0.42476
0.29734
0.210535
0.102445
0.212491
0.103756
0.146786
0.0692598
0.148816
0.0705838
0.0593856
0.0594107
0.0604176
0.0604436
0.0377073
0.0377283
0.0387239
0.0387459
0.102526
0.210697
0.10384
0.212658
0.0693381
0.146964
0.0706651
0.148999
0.443893
0.542121
0.446955
0.546222
0.294472
0.42105
0.297699
0.425284
0.532371
0.436389
0.5373
0.440261
0.410425
0.286475
0.415818
0.290551
0.205801
0.0992515
0.208382
0.101004
0.141878
0.0660768
0.144528
0.067802
0.056885
0.0569082
0.0582588
0.058283
0.0352955
0.0353143
0.0366034
0.0366234
0.0993271
0.205954
0.101083
0.20854
0.0661482
0.142044
0.0678771
0.144701
0.436657
0.532759
0.440538
0.537697
0.286806
0.410913
0.290892
0.416319
0.521148
0.425626
0.526947
0.431765
0.397279
0.276098
0.404252
0.28177
0.198496
0.0944757
0.202681
0.0971678
0.134826
0.0616158
0.138741
0.0640676
0.0533093
0.0533301
0.0552911
0.0553132
0.0320262
0.032042
0.0338053
0.0338226
0.0945438
0.198636
0.0972399
0.202829
0.0616785
0.134977
0.0641349
0.1389
0.425878
0.521518
0.432026
0.527325
0.276406
0.397736
0.282089
0.404724
0.51669
0.396324
0.516542
0.416296
0.380942
0.254669
0.38985
0.26834
0.182924
0.0865553
0.192479
0.0910226
0.122986
0.0552728
0.129778
0.0586967
0.048228
0.0482455
0.0509708
0.05099
0.0277706
0.0277829
0.0300144
0.0300285
0.0866135
0.183047
0.0910862
0.192612
0.0553246
0.123116
0.0587543
0.12992
0.396549
0.517055
0.416537
0.516907
0.254941
0.381374
0.268634
0.390294
0.337357
0.259377
0.139536
0.111268
0.297943
0.2288
0.116252
0.0938172
0.0792781
0.0163421
0.0186648
0.0054387
0.06351
0.0119428
0.0149889
0.00495766
0.00382449
0.00382191
0.00423494
0.00423524
0.00309968
0.00309796
0.00441617
0.00441645
0.0163378
0.0792958
0.00543738
0.0186675
0.0119389
0.0635201
0.00495676
0.0149896
0.259458
0.337516
0.111308
0.139635
0.228862
0.298069
0.0938441
0.116322
0.588435
0.462288
0.483277
0.375459
0.528593
0.413198
0.432145
0.334433
0.206169
0.0827252
0.148067
0.0471163
0.17421
0.0648409
0.123542
0.0352253
0.0299674
0.0299667
0.010504
0.0104986
0.019814
0.0198105
0.00684706
0.00684256
0.0827444
0.206242
0.0471156
0.14811
0.0648509
0.174264
0.0352217
0.123573
0.462444
0.588683
0.375577
0.483482
0.413325
0.528799
0.334527
0.432312
0.722886
0.57705
0.665549
0.527616
0.65129
0.516725
0.59905
0.472213
0.290186
0.143333
0.252978
0.115282
0.247051
0.11488
0.214863
0.0916901
0.0804613
0.0804825
0.0562241
0.0562352
0.0597101
0.0597243
0.04027
0.0402757
0.143404
0.29033
0.115327
0.253085
0.11493
0.247163
0.0917193
0.214944
0.577292
0.723234
0.527813
0.665844
0.516926
0.651586
0.472375
0.599299
0.797763
0.64282
0.765723
0.614504
0.719286
0.575689
0.690226
0.550346
0.342231
0.185229
0.319482
0.166591
0.291858
0.149644
0.272307
0.134167
0.118066
0.118104
0.101192
0.101222
0.0903523
0.0903813
0.0765588
0.0765807
0.185349
0.34245
0.166687
0.319663
0.149736
0.292033
0.134239
0.27245
0.643158
0.798226
0.614794
0.766128
0.575974
0.719685
0.550589
0.690572
0.838943
0.679646
0.821548
0.664031
0.756503
0.60848
0.740808
0.594607
0.372653
0.210812
0.359654
0.199806
0.317852
0.170825
0.306774
0.161734
0.141488
0.14154
0.131386
0.131432
0.109482
0.109523
0.101248
0.101283
0.210973
0.37294
0.199949
0.359908
0.170953
0.318085
0.161844
0.30698
0.680072
0.839514
0.664415
0.822066
0.608843
0.756999
0.594933
0.741258
0.860132
0.698836
0.851441
0.690941
0.775516
0.625409
0.767738
0.618467
0.388918
0.224737
0.3822
0.218973
0.331593
0.182224
0.325941
0.177529
0.154312
0.154375
0.149003
0.149061
0.119832
0.119881
0.115571
0.115616
0.22493
0.389256
0.219152
0.382514
0.182378
0.331869
0.177671
0.326198
0.699332
0.860789
0.691404
0.852058
0.625834
0.77609
0.618863
0.768276
0.869718
0.70766
0.866011
0.704226
0.78403
0.633094
0.78075
0.630118
0.396589
0.231376
0.393589
0.228777
0.337966
0.187555
0.33549
0.185485
0.160438
0.160508
0.158041
0.158108
0.124668
0.124723
0.122794
0.122846
0.23159
0.39696
0.228982
0.393947
0.187725
0.338271
0.185648
0.335783
0.708202
0.870433
0.704747
0.8667
0.633558
0.784656
0.630565
0.781353
0.872997
0.710833
0.871944
0.709776
0.786895
0.635803
0.785985
0.634911
0.399527
0.233987
0.398518
0.233079
0.340346
0.189589
0.339541
0.188895
0.162866
0.162939
0.162018
0.16209
0.126521
0.126579
0.125888
0.125945
0.234212
0.399918
0.233299
0.398901
0.189768
0.340666
0.18907
0.339855
0.711401
0.873745
0.710333
0.872678
0.63629
0.787549
0.635389
0.786627
0.873104
0.711171
0.873332
0.711265
0.786956
0.636057
0.78717
0.636153
0.4001
0.234606
0.400058
0.234509
0.340764
0.190028
0.340755
0.189979
0.163487
0.163562
0.16337
0.163445
0.126954
0.127013
0.12689
0.126949
0.234836
0.400499
0.234737
0.400454
0.190211
0.341091
0.19016
0.34108
0.71175
0.873865
0.71184
0.874089
0.636553
0.787622
0.636646
0.787832
0.871758
0.710263
0.872595
0.710867
0.785746
0.635247
0.786496
0.635781
0.399679
0.234406
0.400018
0.234608
0.340379
0.189837
0.340679
0.190015
0.163367
0.163442
0.163517
0.163593
0.12683
0.126889
0.126962
0.127021
0.234637
0.40008
0.234838
0.400418
0.19002
0.340707
0.190199
0.341007
0.710845
0.872524
0.711448
0.873359
0.635745
0.786415
0.636278
0.787164
0.869655
0.708711
0.870811
0.709581
0.783869
0.633884
0.784901
0.634647
0.398745
0.233803
0.399305
0.234189
0.339571
0.189323
0.340053
0.189649
0.162905
0.162981
0.163214
0.16329
0.126439
0.126498
0.126698
0.126757
0.234034
0.399146
0.23442
0.399706
0.189506
0.339899
0.189832
0.340381
0.709292
0.87042
0.710163
0.871577
0.634382
0.784538
0.635145
0.785571
0.86711
0.706808
0.868468
0.707834
0.781597
0.632217
0.78281
0.633116
0.397553
0.233001
0.398226
0.233472
0.338551
0.18865
0.339125
0.189045
0.162269
0.162344
0.162653
0.162728
0.125912
0.125971
0.12623
0.126289
0.23323
0.397952
0.233703
0.398626
0.188832
0.338877
0.189228
0.339453
0.707386
0.867872
0.708415
0.869231
0.632712
0.782263
0.633613
0.783477
0.864233
0.704656
0.865746
0.705797
0.779021
0.630329
0.780376
0.631331
0.396192
0.232073
0.396942
0.232601
0.337385
0.187875
0.338027
0.188316
0.161527
0.161602
0.161959
0.162034
0.125301
0.125359
0.125657
0.125716
0.232301
0.396588
0.23283
0.39734
0.188056
0.337709
0.188498
0.338352
0.705231
0.86499
0.706374
0.866505
0.630821
0.779683
0.631824
0.78104
0.86107
0.702301
0.862723
0.703541
0.776182
0.628258
0.777666
0.629348
0.394693
0.231046
0.39551
0.231622
0.336101
0.187016
0.3368
0.187498
0.160704
0.160778
0.161175
0.161249
0.124622
0.12468
0.125011
0.125069
0.231273
0.395087
0.23185
0.395905
0.187195
0.336422
0.187678
0.337123
0.702871
0.861822
0.704113
0.863477
0.628746
0.77684
0.629838
0.778326
0.857609
0.699735
0.859413
0.701081
0.773069
0.625998
0.774692
0.627183
0.39306
0.229926
0.393944
0.230549
0.334699
0.186077
0.335457
0.186599
0.159805
0.159878
0.160313
0.160387
0.123879
0.123936
0.124299
0.124357
0.230151
0.393451
0.230775
0.394336
0.186255
0.335019
0.186778
0.335778
0.700301
0.858356
0.701649
0.860162
0.626482
0.773722
0.62767
0.775347
0.853851
0.696963
0.855804
0.698412
0.769681
0.623551
0.771442
0.62483
0.391293
0.228711
0.392244
0.229381
0.333181
0.185057
0.333998
0.18562
0.158828
0.1589
0.159375
0.159448
0.12307
0.123126
0.123523
0.12358
0.228934
0.39168
0.229605
0.392633
0.185234
0.333497
0.185797
0.334316
0.697524
0.854592
0.698976
0.856547
0.624031
0.770328
0.625313
0.772092
0.849779
0.693971
0.851891
0.695532
0.766004
0.620909
0.767911
0.622287
0.389385
0.227398
0.390408
0.228118
0.33154
0.183954
0.332419
0.184558
0.15777
0.157842
0.158358
0.158431
0.122193
0.122249
0.12268
0.122737
0.227619
0.389769
0.22834
0.390794
0.184129
0.331853
0.184734
0.332734
0.694527
0.850513
0.696091
0.852628
0.621385
0.766645
0.622765
0.768555
0.845378
0.690746
0.847656
0.692425
0.762025
0.618062
0.764085
0.619544
0.387329
0.225982
0.388426
0.226754
0.32977
0.182762
0.330714
0.183411
0.156629
0.1567
0.157259
0.157331
0.121244
0.1213
0.121768
0.121824
0.226201
0.387709
0.226974
0.388808
0.182935
0.33008
0.183585
0.331026
0.691297
0.846104
0.692978
0.848386
0.618533
0.76266
0.620017
0.764723
0.840632
0.68728
0.843081
0.689078
0.757729
0.614999
0.759947
0.616588
0.385118
0.224459
0.386293
0.225284
0.327866
0.181479
0.328877
0.182174
0.1554
0.155471
0.156074
0.156145
0.120222
0.120278
0.120783
0.120838
0.224675
0.385494
0.225502
0.386671
0.18165
0.328173
0.182346
0.329185
0.687824
0.841351
0.689626
0.843804
0.615465
0.758358
0.617056
0.760579
0.835542
0.683572
0.838165
0.685492
0.753116
0.611722
0.755494
0.613419
0.382751
0.222826
0.384004
0.223706
0.325826
0.180103
0.326905
0.180844
0.154082
0.154151
0.1548
0.154871
0.119125
0.119179
0.119723
0.119778
0.223039
0.383122
0.223921
0.384378
0.180272
0.326129
0.181014
0.32721
0.68411
0.836253
0.686033
0.838881
0.612182
0.753738
0.613882
0.756119
0.830094
0.679619
0.832897
0.681662
0.748178
0.608225
0.750718
0.610031
0.380224
0.22108
0.381558
0.222016
0.323647
0.178631
0.324796
0.17942
0.152671
0.15274
0.153436
0.153505
0.11795
0.118004
0.118587
0.118641
0.221291
0.380591
0.222229
0.381927
0.178798
0.323946
0.179588
0.325097
0.680151
0.830798
0.682197
0.833604
0.60868
0.748792
0.610489
0.751336
0.82429
0.675411
0.82727
0.677582
0.742913
0.604509
0.745616
0.606424
0.377535
0.219221
0.378949
0.220214
0.321329
0.177064
0.322547
0.1779
0.151168
0.151236
0.151979
0.152047
0.116698
0.116751
0.117373
0.117426
0.21943
0.377896
0.220424
0.379314
0.177228
0.321623
0.178065
0.322844
0.675936
0.824984
0.678111
0.827969
0.604957
0.74352
0.606876
0.746227
0.818145
0.670954
0.821292
0.673246
0.73732
0.600577
0.740188
0.602601
0.374687
0.217252
0.376179
0.218299
0.318872
0.175401
0.320159
0.176285
0.149575
0.149642
0.15043
0.150498
0.115369
0.115421
0.116082
0.116134
0.217457
0.375043
0.218506
0.376538
0.175563
0.319162
0.176448
0.320452
0.671471
0.81883
0.673767
0.821981
0.601019
0.737919
0.603047
0.740791
0.81167
0.666295
0.814983
0.668684
0.731415
0.596402
0.734434
0.598548
0.371693
0.215176
0.373257
0.216276
0.316275
0.173646
0.317632
0.174575
0.147892
0.147958
0.148791
0.148858
0.113965
0.114017
0.114715
0.114767
0.215378
0.372044
0.21648
0.373611
0.173805
0.316561
0.174735
0.31792
0.666804
0.812345
0.669197
0.815663
0.596838
0.732005
0.598987
0.735028
0.804864
0.661406
0.808339
0.663913
0.725225
0.592022
0.728383
0.594264
0.36855
0.212995
0.370189
0.214147
0.313549
0.171802
0.314968
0.172774
0.146123
0.146188
0.147065
0.14713
0.11249
0.11254
0.113275
0.113325
0.213193
0.368895
0.214347
0.370537
0.171958
0.31383
0.172932
0.315252
0.661907
0.805529
0.664418
0.809009
0.59245
0.725806
0.594696
0.728969
0.797758
0.656296
0.801378
0.65891
0.718769
0.587459
0.722058
0.589791
0.365266
0.210715
0.366973
0.211915
0.310704
0.169876
0.312181
0.170888
0.144273
0.144336
0.145254
0.145318
0.110948
0.110997
0.111765
0.111814
0.21091
0.365605
0.212111
0.367316
0.170029
0.31098
0.171043
0.31246
0.656789
0.798413
0.659407
0.802039
0.58788
0.719342
0.590216
0.722635
0.790387
0.650992
0.794136
0.653699
0.712077
0.582731
0.715479
0.585143
0.361854
0.208345
0.363623
0.209588
0.307753
0.167876
0.309281
0.168924
0.142348
0.142411
0.143365
0.143428
0.109345
0.109393
0.110191
0.11024
0.208536
0.362187
0.209781
0.36396
0.168026
0.308023
0.169075
0.309555
0.651476
0.791032
0.654188
0.794785
0.583144
0.71264
0.58556
0.716047
0.78279
0.645518
0.786646
0.648306
0.70518
0.57786
0.70868
0.580339
0.358331
0.205896
0.360154
0.207177
0.304708
0.165811
0.306281
0.16689
0.140359
0.14042
0.141406
0.141468
0.10769
0.107737
0.10856
0.108608
0.206084
0.358658
0.207366
0.360484
0.165958
0.304973
0.167038
0.306549
0.645993
0.783423
0.648786
0.787285
0.578266
0.705733
0.580749
0.709238
0.775007
0.639897
0.77895
0.642756
0.698115
0.572851
0.701693
0.575401
0.354713
0.20338
0.356581
0.204692
0.301581
0.163692
0.303194
0.164796
0.138314
0.138374
0.139387
0.139448
0.105991
0.106037
0.106882
0.106929
0.203564
0.355033
0.204878
0.356905
0.163835
0.30184
0.164941
0.303456
0.640364
0.775629
0.643227
0.779577
0.573249
0.698658
0.575803
0.702241
0.767087
0.63416
0.771092
0.637072
0.690936
0.567736
0.694564
0.570329
0.351018
0.200811
0.352921
0.202148
0.29839
0.161531
0.300031
0.162654
0.136225
0.136284
0.137319
0.137378
0.104259
0.104304
0.105165
0.105211
0.200991
0.351332
0.20233
0.353239
0.161671
0.298644
0.162796
0.300288
0.634617
0.767697
0.637533
0.771707
0.568126
0.691469
0.570723
0.695102
0.759069
0.628334
0.763119
0.631288
0.683679
0.562557
0.687343
0.565181
0.347261
0.198196
0.349194
0.199555
0.295153
0.159337
0.296816
0.160475
0.1341
0.134157
0.135211
0.135269
0.1025
0.102544
0.103418
0.103463
0.198372
0.347568
0.199733
0.349505
0.159473
0.295401
0.160613
0.297067
0.628781
0.759666
0.63174
0.763722
0.562938
0.684201
0.565566
0.68787
0.750967
0.62242
0.755059
0.625419
0.676357
0.557311
0.680053
0.559969
0.343436
0.195532
0.345405
0.196917
0.291866
0.157108
0.293555
0.158264
0.131933
0.131989
0.133066
0.133122
0.100715
0.100758
0.101647
0.10169
0.195704
0.343736
0.197091
0.345708
0.157242
0.292108
0.1584
0.2938
0.622857
0.751552
0.625861
0.75565
0.557683
0.676868
0.560346
0.680569
0.74275
0.616377
0.746907
0.619449
0.668943
0.551962
0.672692
0.554679
0.339504
0.192785
0.341534
0.194218
0.288497
0.154823
0.290234
0.156012
0.129697
0.129752
0.13087
0.130925
0.0988852
0.098927
0.0998427
0.0998851
0.192952
0.339796
0.194387
0.34183
0.154952
0.288733
0.156143
0.290473
0.616803
0.743321
0.619881
0.747485
0.552325
0.669442
0.555047
0.673197
0.734295
0.610084
0.738593
0.613302
0.661329
0.546406
0.665198
0.549245
0.335356
0.189868
0.337512
0.191401
0.284961
0.152414
0.286796
0.153676
0.127316
0.127369
0.128575
0.128628
0.0969562
0.0969966
0.0979728
0.098014
0.19003
0.33564
0.191565
0.3378
0.152539
0.28519
0.153804
0.287029
0.610498
0.734851
0.613723
0.739157
0.546759
0.661815
0.549603
0.665691
0.72534
0.603293
0.729931
0.606801
0.653273
0.540419
0.657403
0.54351
0.330775
0.186597
0.333184
0.188336
0.281076
0.14974
0.283115
0.151158
0.124626
0.124677
0.126066
0.126118
0.0948066
0.0948454
0.0959537
0.0959933
0.186753
0.331049
0.188496
0.333463
0.149861
0.281296
0.151281
0.28334
0.603694
0.725879
0.607208
0.730479
0.54076
0.653745
0.543857
0.657882
0.715433
0.59556
0.720568
0.599609
0.644346
0.533598
0.648978
0.537171
0.325358
0.182631
0.32825
0.184773
0.276503
0.146529
0.278941
0.14826
0.121325
0.121373
0.123118
0.123168
0.0922027
0.0922396
0.0936145
0.0936524
0.18278
0.32562
0.184926
0.328519
0.146644
0.276713
0.148378
0.279157
0.595945
0.715954
0.600002
0.721099
0.533926
0.644801
0.537506
0.649441
0.70401
0.586063
0.709965
0.591138
0.633929
0.525171
0.639387
0.529685
0.318306
0.177331
0.322159
0.180248
0.270554
0.142259
0.273805
0.144609
0.116891
0.116937
0.119331
0.119379
0.0887288
0.0887633
0.0906411
0.0906768
0.177471
0.318554
0.180392
0.322414
0.142367
0.270753
0.14472
0.274011
0.586431
0.70451
0.591515
0.710475
0.525483
0.634365
0.530006
0.639832
0.691832
0.572189
0.697762
0.580061
0.622153
0.512592
0.62806
0.519775
0.307398
0.169382
0.313641
0.17385
0.261261
0.135807
0.266599
0.139446
0.110529
0.11057
0.114044
0.114088
0.0837187
0.08375
0.0864943
0.0865272
0.169511
0.307629
0.173985
0.313881
0.135905
0.261445
0.139549
0.266791
0.572537
0.692316
0.58042
0.698253
0.512887
0.622572
0.520079
0.628487
0.69626
0.534947
0.689234
0.560325
0.622526
0.478181
0.618577
0.501624
0.284931
0.156687
0.298547
0.163747
0.24161
0.125247
0.253593
0.131159
0.101739
0.101775
0.106428
0.106468
0.0766785
0.0767058
0.0804536
0.080483
0.156801
0.285138
0.163869
0.298768
0.125333
0.241773
0.131252
0.253768
0.535267
0.696758
0.560662
0.689718
0.478449
0.622952
0.501908
0.618994
0.373948
0.28796
0.161832
0.127224
0.3604
0.277192
0.153663
0.120822
0.0948938
0.0213375
0.0224195
0.006069
0.0888916
0.0193265
0.0208694
0.00582464
0.00476851
0.00476567
0.00418645
0.00418645
0.00441855
0.0044157
0.0042285
0.0042287
0.0213341
0.0949244
0.00606747
0.0224258
0.0193226
0.0889164
0.00582317
0.020874
0.288071
0.374157
0.127285
0.161971
0.27729
0.360587
0.120874
0.153785
0.646944
0.511019
0.531708
0.414867
0.624543
0.492259
0.513454
0.399901
0.239611
0.103004
0.172948
0.0601178
0.226626
0.0949598
0.163407
0.0550176
0.0431828
0.0431879
0.0155125
0.0155072
0.0377394
0.0377419
0.0134043
0.0133987
0.10304
0.239714
0.0601236
0.173013
0.094988
0.226716
0.0550203
0.163462
0.511224
0.647262
0.415024
0.531972
0.492442
0.624828
0.400041
0.513692
0.797403
0.64078
0.732744
0.584431
0.768177
0.615642
0.706678
0.562267
0.338271
0.177665
0.294208
0.142938
0.31911
0.163687
0.277975
0.131813
0.107545
0.107578
0.076773
0.0767931
0.0962773
0.0963047
0.0682935
0.0683095
0.177769
0.338469
0.143008
0.294357