/*--------------------------------*- C++ -*----------------------------------*\
  =========                 |
  \\      /  F ield         | OpenFOAM: The Open Source CFD Toolbox
   \\    /   O peration     | Website:  https://openfoam.org
    \\  /    A nd           | Version:  9
     \\/     M anipulation  |
\*---------------------------------------------------------------------------*/
FoamFile
{
    format      ascii;
    class       volScalarField;
    location    "1.1";
    object      p;
}
// * * * * * * * * * * * * * * * * * * * * * * * * * * * * * * * * * * * * * //

dimensions      [0 2 -2 0 0 0 0];

internalField   nonuniform List<scalar> 
36360
(
20.1159
20.0895
20.1035
20.0974
20.1006
20.0999
20.102
20.0948
20.1004
20.1012
20.1011
20.1011
20.0998
20.1001
20.099
20.0992
20.1011
20.1011
20.1011
20.1011
20.1002
20.1002
20.0992
20.0992
20.1012
20.1004
20.1011
20.1011
20.1001
20.0998
20.0992
20.099
20.0895
20.1159
20.0974
20.1035
20.0999
20.1006
20.0948
20.102
20.1398
20.083
20.1325
20.0827
20.0881
20.1151
20.0946
20.107
20.0998
20.1016
20.0998
20.1013
20.1006
20.1005
20.1003
20.1006
20.1017
20.1017
20.1013
20.1013
20.1011
20.1011
20.1009
20.1009
20.1016
20.0998
20.1013
20.0998
20.1005
20.1006
20.1006
20.1003
20.083
20.1398
20.0827
20.1325
20.1151
20.0881
20.107
20.0946
20.1318
20.0936
20.1376
20.0876
20.0673
20.1389
20.0788
20.1267
20.1011
20.1018
20.1002
20.1018
20.1032
20.1003
20.1014
20.1003
20.1024
20.1024
20.1022
20.1022
20.1009
20.1009
20.101
20.101
20.1018
20.1011
20.1018
20.1002
20.1003
20.1032
20.1003
20.1015
20.0936
20.1318
20.0876
20.1376
20.1389
20.0673
20.1267
20.0788
20.119
20.1042
20.1253
20.0994
20.046
20.159
20.0561
20.1499
20.1052
20.1018
20.1028
20.1017
20.1087
20.1007
20.1057
20.1004
20.1022
20.1022
20.1024
20.1024
20.1009
20.1009
20.1009
20.1009
20.1018
20.1052
20.1017
20.1028
20.1007
20.1087
20.1004
20.1057
20.1042
20.119
20.0994
20.1253
20.159
20.046
20.1499
20.0561
20.1082
20.1113
20.1133
20.1082
20.03
20.172
20.0374
20.1663
20.1105
20.1027
20.1078
20.1022
20.115
20.1019
20.1119
20.1012
20.1018
20.1018
20.1019
20.1019
20.1011
20.1011
20.101
20.101
20.1027
20.1105
20.1022
20.1078
20.1019
20.115
20.1012
20.1119
20.1113
20.1082
20.1082
20.1133
20.172
20.03
20.1663
20.0374
20.0998
20.1156
20.1037
20.1138
20.0187
20.1797
20.0238
20.1764
20.1154
20.1044
20.1131
20.1035
20.1205
20.1037
20.1179
20.1028
20.1019
20.1019
20.1018
20.1018
20.1015
20.1015
20.1013
20.1013
20.1044
20.1154
20.1035
20.1132
20.1037
20.1205
20.1028
20.1179
20.1156
20.0998
20.1138
20.1037
20.1797
20.0187
20.1764
20.0238
20.0937
20.1183
20.0965
20.1171
20.011
20.184
20.0145
20.1822
20.1196
20.1063
20.1176
20.1053
20.1249
20.1056
20.1229
20.1046
20.1025
20.1025
20.1022
20.1022
20.1023
20.1022
20.1019
20.1019
20.1063
20.1196
20.1053
20.1176
20.1057
20.125
20.1046
20.1229
20.1183
20.0937
20.1171
20.0965
20.184
20.011
20.1822
20.0145
20.0892
20.1199
20.0912
20.1192
20.0059
20.1863
20.0082
20.1853
20.1228
20.1083
20.1213
20.1073
20.1283
20.1076
20.1268
20.1067
20.1034
20.1034
20.1029
20.1029
20.1032
20.1032
20.1027
20.1027
20.1083
20.1228
20.1073
20.1213
20.1076
20.1283
20.1066
20.1268
20.1199
20.0892
20.1192
20.0912
20.1863
20.0059
20.1853
20.0082
20.086
20.1209
20.0875
20.1205
20.0027
20.1873
20.0041
20.1869
20.1252
20.1102
20.1241
20.1093
20.1308
20.1095
20.1296
20.1086
20.1046
20.1046
20.104
20.104
20.1043
20.1043
20.1038
20.1038
20.1102
20.1252
20.1093
20.1241
20.1095
20.1308
20.1086
20.1296
20.1209
20.0861
20.1205
20.0875
20.1873
20.0027
20.1869
20.0041
20.0838
20.1215
20.0848
20.1212
20.0006
20.1878
20.0015
20.1876
20.1271
20.1119
20.1262
20.1111
20.1326
20.1112
20.1318
20.1103
20.1058
20.1058
20.1052
20.1052
20.1056
20.1056
20.1049
20.1049
20.1119
20.1271
20.1111
20.1262
20.1112
20.1326
20.1103
20.1318
20.1214
20.0839
20.1212
20.0849
20.1878
20.0008
20.1876
20.0017
20.0824
20.122
20.083
20.1218
19.9993
20.188
19.9999
20.1879
20.1285
20.1134
20.1278
20.1127
20.134
20.1127
20.1334
20.1119
20.1071
20.1071
20.1065
20.1065
20.1068
20.1068
20.1062
20.1062
20.1134
20.1285
20.1127
20.1278
20.1127
20.134
20.1119
20.1333
20.1219
20.0824
20.1217
20.0831
20.1879
19.9996
20.1879
20.0001
20.0815
20.1223
20.0819
20.1221
19.9987
20.188
19.999
20.188
20.1296
20.1148
20.1291
20.1141
20.1351
20.114
20.1346
20.1134
20.1084
20.1084
20.1078
20.1078
20.1081
20.1081
20.1075
20.1075
20.1148
20.1296
20.1141
20.1291
20.114
20.1351
20.1134
20.1346
20.1223
20.0815
20.1221
20.0819
20.188
19.9988
20.1879
19.9992
20.081
20.1226
20.0812
20.1224
19.9988
20.1879
19.9986
20.188
20.1306
20.1161
20.1301
20.1154
20.136
20.1153
20.1355
20.1147
20.1097
20.1097
20.1091
20.1091
20.1093
20.1093
20.1087
20.1087
20.1161
20.1306
20.1154
20.1301
20.1153
20.136
20.1147
20.1355
20.1226
20.0811
20.1224
20.0812
20.1879
19.9988
20.188
19.9987
20.0808
20.123
20.0809
20.1228
19.9989
20.1879
19.9988
20.1879
20.1315
20.1172
20.131
20.1167
20.1367
20.1164
20.1363
20.1158
20.1109
20.1109
20.1103
20.1103
20.1105
20.1105
20.1099
20.1099
20.1172
20.1314
20.1167
20.131
20.1164
20.1368
20.1159
20.1364
20.123
20.0808
20.1228
20.0809
20.188
19.9987
20.188
19.9987
20.081
20.1233
20.0809
20.1231
19.9992
20.188
19.9991
20.1879
20.1322
20.1183
20.1318
20.1178
20.1374
20.1174
20.137
20.1169
20.1121
20.1121
20.1115
20.1115
20.1116
20.1117
20.1111
20.1111
20.1183
20.1322
20.1178
20.1318
20.1175
20.1374
20.1169
20.1371
20.1234
20.0809
20.1232
20.0808
20.1881
19.999
20.188
19.9989
20.0811
20.1239
20.081
20.1236
19.9997
20.1881
19.9994
20.188
20.133
20.1193
20.1326
20.1188
20.138
20.1184
20.1377
20.1179
20.1133
20.1133
20.1127
20.1127
20.1128
20.1128
20.1122
20.1122
20.1194
20.133
20.1188
20.1326
20.1185
20.1381
20.118
20.1378
20.1238
20.0811
20.1236
20.081
20.1881
19.9997
20.1881
19.9992
20.0815
20.1243
20.0812
20.1241
20.0004
20.1882
20
20.1882
20.1337
20.1203
20.1333
20.1199
20.1387
20.1194
20.1384
20.1189
20.1144
20.1144
20.1138
20.1138
20.1138
20.1138
20.1133
20.1133
20.1204
20.1337
20.1199
20.1333
20.1194
20.1387
20.1189
20.1384
20.1244
20.0814
20.1241
20.0813
20.1883
20.0002
20.1882
19.9999
20.082
20.1249
20.0817
20.1246
20.0012
20.1885
20.0008
20.1883
20.1344
20.1213
20.134
20.1208
20.1393
20.1203
20.139
20.1199
20.1155
20.1155
20.115
20.115
20.1149
20.1149
20.1144
20.1144
20.1213
20.1344
20.1209
20.1341
20.1203
20.1393
20.1199
20.139
20.125
20.082
20.1247
20.0817
20.1885
20.0011
20.1884
20.0006
20.0825
20.1257
20.0822
20.1253
20.0019
20.1888
20.0015
20.1886
20.1352
20.1223
20.1348
20.1218
20.1399
20.1212
20.1396
20.1208
20.1166
20.1166
20.1161
20.1161
20.1159
20.1159
20.1154
20.1154
20.1223
20.1352
20.1218
20.1348
20.1212
20.1399
20.1208
20.1396
20.1257
20.0825
20.1253
20.0822
20.1888
20.0019
20.1887
20.0015
20.0832
20.1264
20.0828
20.126
20.0029
20.1891
20.0024
20.189
20.1359
20.1233
20.1355
20.1228
20.1405
20.1221
20.1402
20.1217
20.1177
20.1177
20.1172
20.1172
20.1169
20.1169
20.1164
20.1164
20.1233
20.1359
20.1228
20.1356
20.1221
20.1406
20.1217
20.1402
20.1264
20.0832
20.126
20.0828
20.1891
20.0029
20.1889
20.0024
20.084
20.1272
20.0836
20.1268
20.004
20.1895
20.0034
20.1893
20.1367
20.1242
20.1363
20.1238
20.1412
20.123
20.1409
20.1226
20.1188
20.1188
20.1182
20.1182
20.1179
20.1179
20.1174
20.1174
20.1243
20.1367
20.1238
20.1363
20.123
20.1412
20.1226
20.1409
20.1273
20.0839
20.1269
20.0835
20.1895
20.0039
20.1893
20.0033
20.0849
20.1281
20.0844
20.1276
20.0052
20.1898
20.0046
20.1896
20.1375
20.1252
20.1371
20.1247
20.1418
20.1239
20.1415
20.1235
20.1199
20.1199
20.1193
20.1193
20.119
20.119
20.1184
20.1184
20.1252
20.1375
20.1247
20.1371
20.1239
20.1419
20.1235
20.1415
20.1281
20.0848
20.1277
20.0844
20.1899
20.0051
20.1897
20.0046
20.0858
20.129
20.0853
20.1285
20.0065
20.1903
20.0058
20.19
20.1384
20.1262
20.1379
20.1257
20.1425
20.1248
20.1422
20.1244
20.121
20.121
20.1204
20.1204
20.12
20.12
20.1195
20.1195
20.1262
20.1384
20.1257
20.138
20.1249
20.1426
20.1244
20.1422
20.1291
20.0858
20.1286
20.0853
20.1903
20.0064
20.1901
20.0057
20.0869
20.1299
20.0863
20.1295
20.0078
20.1907
20.0071
20.1905
20.1392
20.1272
20.1388
20.1267
20.1432
20.1258
20.1429
20.1253
20.1221
20.1221
20.1215
20.1215
20.121
20.121
20.1205
20.1205
20.1273
20.1393
20.1267
20.1388
20.1258
20.1433
20.1253
20.1429
20.13
20.0868
20.1295
20.0863
20.1908
20.0078
20.1906
20.0071
20.088
20.1309
20.0874
20.1304
20.0093
20.1912
20.0085
20.191
20.1401
20.1283
20.1397
20.1277
20.1439
20.1267
20.1436
20.1262
20.1232
20.1232
20.1227
20.1227
20.1221
20.1221
20.1215
20.1215
20.1283
20.1402
20.1278
20.1397
20.1267
20.144
20.1262
20.1436
20.131
20.088
20.1305
20.0874
20.1913
20.0092
20.191
20.0085
20.0892
20.132
20.0886
20.1315
20.0108
20.1917
20.01
20.1915
20.141
20.1293
20.1406
20.1288
20.1447
20.1277
20.1443
20.1272
20.1244
20.1244
20.1238
20.1238
20.1231
20.1231
20.1226
20.1226
20.1293
20.1411
20.1288
20.1406
20.1277
20.1447
20.1272
20.1443
20.132
20.0892
20.1315
20.0886
20.1918
20.0108
20.1915
20.01
20.0904
20.1331
20.0898
20.1326
20.0125
20.1923
20.0116
20.192
20.142
20.1304
20.1415
20.1298
20.1454
20.1286
20.145
20.1281
20.1256
20.1256
20.125
20.125
20.1242
20.1242
20.1237
20.1237
20.1304
20.142
20.1299
20.1415
20.1286
20.1454
20.1282
20.1451
20.1331
20.0904
20.1326
20.0898
20.1923
20.0125
20.192
20.0116
20.0917
20.1343
20.0911
20.1337
20.0142
20.1928
20.0133
20.1925
20.1429
20.1315
20.1425
20.1309
20.1461
20.1296
20.1458
20.1291
20.1268
20.1268
20.1262
20.1262
20.1253
20.1253
20.1248
20.1248
20.1315
20.1429
20.1309
20.1425
20.1296
20.1462
20.1291
20.1458
20.1343
20.0917
20.1337
20.0911
20.1928
20.0142
20.1925
20.0133
20.0931
20.1355
20.0924
20.1349
20.016
20.1933
20.0151
20.1931
20.1438
20.1325
20.1434
20.132
20.1469
20.1306
20.1465
20.1301
20.128
20.128
20.1274
20.1274
20.1265
20.1265
20.1259
20.1259
20.1326
20.1439
20.132
20.1434
20.1306
20.1469
20.1301
20.1465
20.1355
20.0931
20.1349
20.0924
20.1934
20.016
20.1931
20.0151
20.0945
20.1367
20.0938
20.1361
20.018
20.1939
20.017
20.1936
20.1447
20.1336
20.1443
20.1331
20.1476
20.1316
20.1472
20.1311
20.1293
20.1293
20.1286
20.1286
20.1276
20.1277
20.1271
20.1271
20.1336
20.1447
20.1331
20.1443
20.1316
20.1476
20.1311
20.1472
20.1367
20.0945
20.1361
20.0938
20.1939
20.0179
20.1936
20.017
20.096
20.1378
20.0952
20.1373
20.02
20.1944
20.019
20.1941
20.1456
20.1347
20.1452
20.1342
20.1482
20.1326
20.1479
20.1321
20.1305
20.1305
20.1299
20.1299
20.1288
20.1288
20.1282
20.1282
20.1347
20.1456
20.1342
20.1452
20.1326
20.1483
20.1321
20.1479
20.1379
20.096
20.1373
20.0952
20.1944
20.02
20.1942
20.0189
20.0976
20.139
20.0968
20.1384
20.0221
20.1948
20.021
20.1946
20.1464
20.1358
20.146
20.1353
20.1489
20.1336
20.1486
20.1331
20.1318
20.1318
20.1311
20.1311
20.13
20.13
20.1294
20.1294
20.1358
20.1464
20.1353
20.146
20.1336
20.1489
20.1331
20.1486
20.139
20.0976
20.1384
20.0968
20.1949
20.0221
20.1947
20.021
20.0994
20.14
20.0985
20.1395
20.0244
20.1952
20.0233
20.195
20.1472
20.1369
20.1468
20.1363
20.1495
20.1346
20.1492
20.1341
20.1331
20.1331
20.1324
20.1324
20.1313
20.1312
20.1306
20.1306
20.1369
20.1472
20.1364
20.1468
20.1347
20.1495
20.1341
20.1492
20.14
20.0994
20.1395
20.0985
20.1952
20.0244
20.1951
20.0233
20.1012
20.141
20.1003
20.1405
20.0269
20.1954
20.0257
20.1953
20.148
20.138
20.1476
20.1374
20.15
20.1356
20.1498
20.1352
20.1343
20.1343
20.1337
20.1337
20.1325
20.1324
20.1318
20.1319
20.138
20.148
20.1374
20.1476
20.1357
20.1501
20.1351
20.1498
20.141
20.1012
20.1405
20.1003
20.1955
20.0269
20.1954
20.0256
20.1032
20.1419
20.1022
20.1414
20.0296
20.1955
20.0282
20.1955
20.1487
20.1391
20.1483
20.1385
20.1506
20.1367
20.1503
20.1362
20.1356
20.1356
20.135
20.135
20.1338
20.1337
20.1331
20.1331
20.1391
20.1487
20.1385
20.1483
20.1368
20.1506
20.1362
20.1503
20.1419
20.1032
20.1414
20.1022
20.1955
20.0296
20.1955
20.0282
20.1051
20.1427
20.1041
20.1423
20.0326
20.1954
20.0311
20.1955
20.1493
20.1401
20.149
20.1396
20.151
20.1377
20.1509
20.1373
20.1369
20.1369
20.1363
20.1363
20.135
20.135
20.1343
20.1344
20.1402
20.1494
20.1396
20.149
20.1378
20.1511
20.1372
20.1508
20.1428
20.1051
20.1423
20.1042
20.1954
20.0326
20.1955
20.0311
20.1068
20.1438
20.106
20.1432
20.0359
20.1949
20.0342
20.1952
20.15
20.1412
20.1497
20.1407
20.1515
20.1388
20.1513
20.1383
20.1382
20.1382
20.1375
20.1375
20.1363
20.1362
20.1356
20.1357
20.1412
20.15
20.1407
20.1497
20.1389
20.1515
20.1383
20.1513
20.1439
20.1068
20.1433
20.106
20.195
20.0359
20.1952
20.0342
20.1074
20.1459
20.1073
20.1447
20.0399
20.1939
20.0378
20.1945
20.1504
20.1422
20.1501
20.1417
20.1517
20.1399
20.1516
20.1394
20.1394
20.1394
20.1388
20.1388
20.1375
20.1375
20.1368
20.1368
20.1423
20.1505
20.1418
20.1503
20.1399
20.1518
20.1394
20.1517
20.1459
20.1074
20.1446
20.1073
20.194
20.0399
20.1946
20.0378
20.1073
20.148
20.1068
20.1478
20.0447
20.1919
20.0421
20.1931
20.151
20.1433
20.1507
20.1427
20.152
20.141
20.1518
20.1404
20.1405
20.1405
20.1399
20.1399
20.1386
20.1387
20.1381
20.138
20.1433
20.151
20.1428
20.1508
20.141
20.152
20.1405
20.1519
20.148
20.1073
20.1478
20.1068
20.1919
20.0447
20.1932
20.0421
20.1299
20.0764
20.1062
20.0933
20.1251
20.0786
20.1047
20.093
20.0992
20.1011
20.1008
20.1007
20.0992
20.1006
20.0999
20.0999
20.1011
20.1011
20.1007
20.1007
20.1004
20.1004
20.0998
20.0998
20.1011
20.0992
20.1007
20.1008
20.1006
20.0992
20.0999
20.0999
20.0764
20.1299
20.0933
20.1062
20.0786
20.1251
20.093
20.1047
20.1716
20.0629
20.1577
20.0641
20.1658
20.063
20.1516
20.066
20.0912
20.101
20.0954
20.1012
20.0938
20.1013
20.0971
20.1012
20.1018
20.1018
20.1014
20.1014
20.1018
20.1018
20.1013
20.1013
20.101
20.0912
20.1012
20.0954
20.1013
20.0938
20.1012
20.0971
20.0629
20.1716
20.0641
20.1577
20.063
20.1658
20.066
20.1516
20.1717
20.0732
20.1737
20.0675
20.1663
20.0709
20.1683
20.0662
20.0884
20.0994
20.0888
20.1002
20.0915
20.1005
20.0918
20.1009
20.1024
20.1024
20.1022
20.1022
20.1021
20.1021
20.102
20.102
20.0994
20.0884
20.1002
20.0888
20.1005
20.0915
20.1009
20.0918
20.0732
20.1717
20.0675
20.1737
20.0709
20.1663
20.0662
20.1683
20.1652
20.0817
20.1686
20.078
20.1589
20.0788
20.1628
20.0753
20.0907
20.0988
20.0892
20.0989
20.0937
20.1004
20.0922
20.1003
20.1021
20.1021
20.1023
20.1023
20.102
20.102
20.1021
20.1021
20.0988
20.0907
20.0989
20.0892
20.1004
20.0937
20.1003
20.0922
20.0817
20.1652
20.078
20.1686
20.0788
20.1589
20.0753
20.1628
20.1588
20.0863
20.1619
20.0844
20.1515
20.0837
20.1551
20.0816
20.0942
20.0998
20.0923
20.0992
20.0979
20.1013
20.0957
20.1007
20.1018
20.1018
20.1019
20.1019
20.1018
20.1018
20.1019
20.1019
20.0998
20.0942
20.0992
20.0923
20.1013
20.0979
20.1007
20.0957
20.0863
20.1589
20.0844
20.1619
20.0837
20.1515
20.0816
20.1551
20.1534
20.0889
20.156
20.0878
20.1453
20.0866
20.1483
20.0853
20.0978
20.1015
20.096
20.1006
20.1024
20.103
20.1001
20.1021
20.102
20.102
20.1018
20.1018
20.1021
20.1021
20.1019
20.1019
20.1015
20.0978
20.1006
20.096
20.103
20.1024
20.1021
20.1001
20.0889
20.1535
20.0878
20.156
20.0866
20.1453
20.0853
20.1483
20.149
20.0904
20.1511
20.0898
20.1403
20.0884
20.1427
20.0876
20.1011
20.1035
20.0995
20.1025
20.1059
20.105
20.1042
20.104
20.1027
20.1027
20.1023
20.1023
20.1028
20.1028
20.1024
20.1024
20.1035
20.1011
20.1025
20.0995
20.105
20.1059
20.104
20.1042
20.0904
20.149
20.0898
20.1511
20.0884
20.1403
20.0876
20.1427
20.1454
20.0914
20.1471
20.0909
20.1364
20.0896
20.1383
20.0891
20.1039
20.1054
20.1026
20.1044
20.1089
20.1069
20.1075
20.1059
20.1038
20.1038
20.1032
20.1032
20.1038
20.1038
20.1032
20.1032
20.1054
20.1039
20.1044
20.1026
20.1069
20.1089
20.1059
20.1075
20.0914
20.1454
20.091
20.1471
20.0896
20.1364
20.0891
20.1383
20.1427
20.092
20.1439
20.0917
20.1335
20.0903
20.1349
20.09
20.1062
20.1073
20.1051
20.1063
20.1113
20.1088
20.1102
20.1079
20.1051
20.1051
20.1044
20.1044
20.105
20.105
20.1044
20.1044
20.1073
20.1062
20.1063
20.1051
20.1088
20.1113
20.1079
20.1102
20.0921
20.1427
20.0918
20.1439
20.0903
20.1335
20.09
20.1349
20.1407
20.0925
20.1416
20.0923
20.1314
20.0909
20.1324
20.0906
20.108
20.109
20.1071
20.1081
20.1131
20.1105
20.1123
20.1097
20.1064
20.1064
20.1057
20.1057
20.1063
20.1063
20.1057
20.1057
20.109
20.108
20.1081
20.1072
20.1105
20.1131
20.1097
20.1123
20.0925
20.1406
20.0923
20.1416
20.0909
20.1314
20.0906
20.1324
20.1394
20.0927
20.14
20.0926
20.13
20.0914
20.1306
20.0912
20.1095
20.1105
20.1088
20.1098
20.1145
20.1121
20.1138
20.1113
20.1078
20.1078
20.1071
20.1071
20.1077
20.1077
20.107
20.107
20.1105
20.1095
20.1098
20.1089
20.1121
20.1145
20.1113
20.1138
20.0928
20.1394
20.0927
20.1399
20.0914
20.13
20.0912
20.1306
20.1384
20.0932
20.1389
20.093
20.129
20.0918
20.1295
20.0916
20.1106
20.112
20.1101
20.1113
20.1158
20.1135
20.1152
20.1128
20.1092
20.1092
20.1085
20.1085
20.109
20.109
20.1083
20.1083
20.112
20.1107
20.1113
20.1101
20.1135
20.1158
20.1128
20.1152
20.0932
20.1384
20.093
20.1388
20.0917
20.1291
20.0915
20.1296
20.1379
20.0936
20.1381
20.0934
20.1285
20.0922
20.1287
20.092
20.1115
20.1133
20.1111
20.1127
20.1169
20.1148
20.1164
20.1141
20.1106
20.1106
20.1099
20.1099
20.1103
20.1103
20.1097
20.1097
20.1133
20.1115
20.1127
20.1111
20.1148
20.1169
20.1141
20.1164
20.0935
20.1379
20.0934
20.1381
20.0922
20.1285
20.092
20.1288
20.1376
20.0941
20.1377
20.0938
20.1282
20.0927
20.1283
20.0925
20.1124
20.1145
20.112
20.1139
20.118
20.116
20.1175
20.1154
20.1118
20.1118
20.1112
20.1112
20.1116
20.1116
20.111
20.111
20.1145
20.1124
20.1139
20.1119
20.116
20.118
20.1154
20.1175
20.094
20.1376
20.0938
20.1377
20.0927
20.1282
20.0924
20.1284
20.1375
20.0946
20.1375
20.0943
20.1282
20.0931
20.1281
20.0929
20.1133
20.1157
20.1128
20.1151
20.1189
20.1171
20.1184
20.1166
20.1131
20.1131
20.1125
20.1125
20.1128
20.1128
20.1122
20.1122
20.1157
20.1133
20.1151
20.1128
20.1171
20.1189
20.1166
20.1184
20.0946
20.1376
20.0942
20.1376
20.0931
20.1283
20.0928
20.1282
20.1378
20.095
20.1376
20.0948
20.1284
20.0936
20.1283
20.0933
20.1141
20.1168
20.1137
20.1163
20.1197
20.1182
20.1193
20.1177
20.1143
20.1143
20.1137
20.1137
20.114
20.114
20.1134
20.1134
20.1168
20.1141
20.1163
20.1137
20.1182
20.1198
20.1177
20.1193
20.0951
20.1377
20.0949
20.1376
20.0936
20.1284
20.0933
20.1283
20.1379
20.0958
20.1378
20.0954
20.1286
20.0943
20.1285
20.094
20.1149
20.1179
20.1145
20.1173
20.1207
20.1193
20.1202
20.1187
20.1155
20.1155
20.1149
20.1149
20.1151
20.1151
20.1146
20.1146
20.1179
20.1149
20.1174
20.1145
20.1193
20.1206
20.1188
20.1202
20.0956
20.1381
20.0954
20.1379
20.0943
20.1287
20.0939
20.1285
20.1384
20.0966
20.1381
20.0962
20.1289
20.095
20.1287
20.0947
20.1158
20.119
20.1154
20.1184
20.1215
20.1203
20.1211
20.1198
20.1166
20.1166
20.116
20.1161
20.1163
20.1163
20.1157
20.1157
20.1189
20.1158
20.1185
20.1153
20.1203
20.1215
20.1198
20.1211
20.0965
20.1384
20.0961
20.1383
20.0949
20.1292
20.0946
20.1289
20.1389
20.0973
20.1387
20.0969
20.1295
20.0957
20.1292
20.0954
20.1167
20.12
20.1163
20.1195
20.1224
20.1213
20.122
20.1208
20.1178
20.1178
20.1172
20.1172
20.1174
20.1174
20.1168
20.1168
20.12
20.1167
20.1195
20.1162
20.1213
20.1225
20.1208
20.122
20.0974
20.1389
20.0969
20.1386
20.0958
20.1295
20.0954
20.1293
20.1395
20.0982
20.1392
20.0978
20.1301
20.0966
20.1298
20.0961
20.1176
20.1211
20.1172
20.1205
20.1234
20.1224
20.1229
20.1218
20.1189
20.1189
20.1183
20.1183
20.1185
20.1185
20.118
20.118
20.1211
20.1177
20.1206
20.1172
20.1224
20.1234
20.1219
20.1229
20.0983
20.1395
20.0978
20.1391
20.0966
20.1301
20.0962
20.1298
20.1403
20.0991
20.1399
20.0986
20.1308
20.0974
20.1305
20.097
20.1185
20.1222
20.1181
20.1216
20.1243
20.1234
20.1238
20.1229
20.12
20.12
20.1195
20.1195
20.1196
20.1196
20.1191
20.1191
20.1222
20.1186
20.1216
20.1181
20.1234
20.1244
20.1229
20.1239
20.0992
20.1402
20.0988
20.1398
20.0975
20.1308
20.097
20.1304
20.141
20.1002
20.1406
20.0996
20.1317
20.0983
20.1312
20.0979
20.1196
20.1233
20.1191
20.1227
20.1253
20.1244
20.1248
20.1239
20.1212
20.1212
20.1206
20.1206
20.1208
20.1208
20.1202
20.1202
20.1233
20.1196
20.1227
20.1191
20.1245
20.1253
20.1239
20.1249
20.1002
20.1411
20.0997
20.1406
20.0984
20.1315
20.0979
20.1311
20.1418
20.1014
20.1413
20.1008
20.1324
20.0994
20.1321
20.0988
20.1207
20.1244
20.1201
20.1238
20.1263
20.1255
20.1258
20.125
20.1223
20.1223
20.1218
20.1218
20.1219
20.1219
20.1213
20.1213
20.1244
20.1207
20.1238
20.1201
20.1255
20.1264
20.125
20.1259
20.1014
20.1419
20.1008
20.1415
20.0994
20.1324
20.0989
20.132
20.1428
20.1026
20.1423
20.102
20.1334
20.1004
20.1329
20.0999
20.1218
20.1255
20.1212
20.1249
20.1274
20.1266
20.1269
20.1261
20.1235
20.1235
20.1229
20.1229
20.1231
20.1231
20.1225
20.1225
20.1255
20.1218
20.1249
20.1212
20.1266
20.1274
20.1261
20.1269
20.1026
20.1428
20.102
20.1423
20.1005
20.1333
20.0999
20.1329
20.1437
20.1039
20.1432
20.1033
20.1344
20.1015
20.1339
20.101
20.1229
20.1266
20.1223
20.1261
20.1285
20.1277
20.1279
20.1271
20.1247
20.1247
20.1241
20.1241
20.1242
20.1243
20.1237
20.1237
20.1266
20.1229
20.1261
20.1223
20.1277
20.1285
20.1272
20.128
20.1039
20.1438
20.1033
20.1433
20.1015
20.1344
20.101
20.1339
20.1448
20.1053
20.1442
20.1046
20.1354
20.1026
20.1349
20.1021
20.124
20.1278
20.1235
20.1272
20.1296
20.1288
20.129
20.1283
20.1259
20.1259
20.1253
20.1253
20.1254
20.1255
20.1248
20.1249
20.1278
20.1241
20.1272
20.1235
20.1288
20.1296
20.1283
20.1291
20.1053
20.1448
20.1046
20.1443
20.1026
20.1354
20.1021
20.1349
20.1458
20.1069
20.1453
20.1061
20.1366
20.1037
20.136
20.1032
20.1252
20.129
20.1246
20.1284
20.1307
20.13
20.1302
20.1294
20.1272
20.1272
20.1266
20.1266
20.1267
20.1267
20.1261
20.1261
20.129
20.1252
20.1284
20.1246
20.13
20.1308
20.1294
20.1302
20.1069
20.1459
20.1061
20.1453
20.1037
20.1366
20.1032
20.136
20.147
20.1084
20.1464
20.1077
20.1377
20.1048
20.1371
20.1042
20.1264
20.1302
20.1258
20.1296
20.1319
20.1311
20.1313
20.1305
20.1284
20.1285
20.1278
20.1278
20.1279
20.1279
20.1273
20.1273
20.1302
20.1264
20.1296
20.1258
20.1311
20.1319
20.1306
20.1313
20.1084
20.147
20.1077
20.1464
20.1048
20.1377
20.1042
20.1372
20.1482
20.1095
20.1476
20.109
20.1389
20.1063
20.1383
20.1055
20.1277
20.1314
20.127
20.1308
20.133
20.1323
20.1324
20.1317
20.1297
20.1297
20.1291
20.1291
20.1292
20.1292
20.1285
20.1285
20.1314
20.1277
20.1308
20.1271
20.1323
20.133
20.1317
20.1325
20.1095
20.1482
20.109
20.1476
20.1063
20.1389
20.1055
20.1383
20.1495
20.1106
20.1488
20.1101
20.1402
20.1078
20.1396
20.1071
20.1289
20.1326
20.1283
20.132
20.1341
20.1334
20.1336
20.1329
20.131
20.131
20.1304
20.1304
20.1305
20.1305
20.1298
20.1298
20.1326
20.1289
20.132
20.1283
20.1334
20.1341
20.1329
20.1336
20.1106
20.1495
20.1101
20.1488
20.1078
20.1402
20.1071
20.1396
20.1508
20.1118
20.1501
20.1112
20.1416
20.1093
20.1409
20.1086
20.1301
20.1338
20.1295
20.1332
20.1352
20.1346
20.1346
20.134
20.1323
20.1324
20.1317
20.1317
20.1317
20.1318
20.1311
20.1311
20.1338
20.1301
20.1332
20.1295
20.1346
20.1352
20.134
20.1347
20.1118
20.1508
20.1112
20.1501
20.1093
20.1416
20.1086
20.1409
20.1522
20.1129
20.1515
20.1123
20.143
20.1107
20.1423
20.11
20.1312
20.1351
20.1306
20.1344
20.1362
20.1357
20.1357
20.1352
20.1337
20.1337
20.133
20.133
20.133
20.1331
20.1324
20.1324
20.1351
20.1312
20.1345
20.1307
20.1358
20.1363
20.1352
20.1357
20.1129
20.1522
20.1123
20.1515
20.1107
20.143
20.11
20.1423
20.1536
20.114
20.1529
20.1134
20.1445
20.112
20.1438
20.1113
20.1323
20.1363
20.1318
20.1357
20.1372
20.1369
20.1367
20.1363
20.135
20.135
20.1343
20.1343
20.1344
20.1344
20.1337
20.1337
20.1363
20.1324
20.1357
20.1318
20.1369
20.1373
20.1363
20.1368
20.114
20.1536
20.1135
20.1529
20.112
20.1445
20.1114
20.1438
20.1551
20.115
20.1544
20.1145
20.1461
20.1132
20.1453
20.1126
20.1334
20.1374
20.1329
20.1369
20.1382
20.138
20.1377
20.1375
20.1363
20.1363
20.1356
20.1357
20.1357
20.1357
20.135
20.135
20.1375
20.1334
20.1369
20.1329
20.1381
20.1382
20.1375
20.1378
20.1151
20.1551
20.1145
20.1544
20.1132
20.1461
20.1126
20.1453
20.1565
20.1161
20.1558
20.1156
20.1477
20.1143
20.1469
20.1137
20.1345
20.1386
20.134
20.138
20.1392
20.1392
20.1387
20.1386
20.1376
20.1376
20.137
20.137
20.1369
20.137
20.1363
20.1363
20.1386
20.1345
20.1381
20.134
20.1392
20.1392
20.1386
20.1387
20.1161
20.1565
20.1156
20.1558
20.1143
20.1477
20.1137
20.1469
20.1575
20.1173
20.1571
20.1167
20.149
20.1155
20.1484
20.1149
20.1356
20.1398
20.1351
20.1392
20.1401
20.1403
20.1396
20.1397
20.1389
20.1389
20.1383
20.1383
20.1382
20.1382
20.1376
20.1376
20.1398
20.1356
20.1392
20.1351
20.1403
20.1401
20.1398
20.1397
20.1174
20.1575
20.1167
20.1571
20.1155
20.149
20.1149
20.1484
20.1576
20.1193
20.1577
20.1182
20.1497
20.1172
20.1495
20.1163
20.1368
20.1409
20.1362
20.1404
20.141
20.1414
20.1406
20.1408
20.1402
20.1402
20.1395
20.1395
20.1395
20.1395
20.1389
20.1389
20.1409
20.1368
20.1404
20.1362
20.1414
20.1411
20.1409
20.1406
20.1193
20.1577
20.1182
20.1578
20.1172
20.1497
20.1163
20.1495
20.1553
20.1235
20.157
20.1209
20.1485
20.1206
20.1495
20.1185
20.138
20.1421
20.1374
20.1415
20.1419
20.1424
20.1415
20.1419
20.1414
20.1414
20.1408
20.1408
20.1407
20.1407
20.1401
20.1401
20.1421
20.138
20.1415
20.1374
20.1425
20.142
20.1419
20.1415
20.1235
20.1553
20.1209
20.157
20.1206
20.1485
20.1185
20.1495
20.1561
20.1236
20.1532
20.1267
20.1497
20.1207
20.1471
20.1231
20.1389
20.1434
20.1387
20.1427
20.1426
20.1436
20.1424
20.143
20.1427
20.1427
20.1421
20.1421
20.1419
20.1419
20.1413
20.1413
20.1434
20.1389
20.1427
20.1387
20.1436
20.1426
20.143
20.1425
20.1236
20.1561
20.1267
20.1532
20.1207
20.1497
20.1231
20.1471
20.135
20.0731
20.1083
20.091
20.1332
20.0738
20.1073
20.0913
20.0984
20.1008
20.1007
20.1005
20.0985
20.1007
20.1003
20.1001
20.1009
20.1009
20.1005
20.1005
20.1007
20.1007
20.1001
20.1001
20.1008
20.0984
20.1005
20.1007
20.1007
20.0985
20.1001
20.1003
20.0731
20.135
20.091
20.1083
20.0738
20.1332
20.0913
20.1073
20.1748
20.0645
20.1623
20.0627
20.1742
20.0631
20.161
20.0626
20.0876
20.0999
20.0932
20.1007
20.0889
20.1004
20.0941
20.101
20.1018
20.1018
20.1013
20.1013
20.1019
20.1019
20.1013
20.1013
20.0999
20.0876
20.1007
20.0932
20.1004
20.0889
20.101
20.0941
20.0645
20.1748
20.0627
20.1623
20.0631
20.1742
20.0626
20.161
20.1723
20.0802
20.1754
20.0722
20.173
20.0766
20.1755
20.0696
20.0838
20.0967
20.0846
20.0982
20.0851
20.0979
20.086
20.0991
20.1021
20.1021
20.1021
20.1021
20.1023
20.1023
20.1022
20.1022
20.0967
20.0838
20.0982
20.0846
20.0979
20.0851
20.0991
20.086
20.0802
20.1723
20.0722
20.1754
20.0766
20.173
20.0696
20.1755
20.1647
20.0912
20.1685
20.0866
20.166
20.0864
20.1696
20.0822
20.0859
20.0956
20.0845
20.0959
20.0871
20.0969
20.0857
20.0971
20.1013
20.1013
20.1017
20.1017
20.1018
20.1018
20.1021
20.1021
20.0956
20.0859
20.0959
20.0845
20.0969
20.0871
20.0971
20.0857
20.0912
20.1647
20.0866
20.1685
20.0864
20.1661
20.0822
20.1696
20.1582
20.0967
20.1613
20.0945
20.1597
20.0915
20.1628
20.0894
20.0896
20.0962
20.0877
20.0957
20.0908
20.0977
20.0889
20.0972
20.1006
20.1006
20.1009
20.1009
20.1013
20.1013
20.1015
20.1015
20.0962
20.0896
20.0957
20.0877
20.0977
20.0908
20.0972
20.0889
20.0967
20.1582
20.0945
20.1613
20.0915
20.1598
20.0894
20.1628
20.1531
20.0995
20.1555
20.0983
20.1545
20.0941
20.157
20.093
20.0931
20.0978
20.0914
20.0969
20.0944
20.0993
20.0926
20.0984
20.1007
20.1007
20.1006
20.1006
20.1015
20.1015
20.1013
20.1013
20.0978
20.0931
20.0969
20.0914
20.0993
20.0944
20.0984
20.0926
20.0995
20.1531
20.0983
20.1555
20.0941
20.1546
20.093
20.157
20.1489
20.1009
20.1509
20.1003
20.1503
20.0956
20.1523
20.0949
20.0961
20.0996
20.0947
20.0987
20.0975
20.1012
20.096
20.1002
20.1015
20.1015
20.101
20.101
20.1022
20.1022
20.1018
20.1018
20.0996
20.0961
20.0987
20.0947
20.1012
20.0975
20.1002
20.096
20.1009
20.1489
20.1003
20.1509
20.0956
20.1503
20.0949
20.1523
20.1456
20.1018
20.1471
20.1014
20.1469
20.0964
20.1485
20.0961
20.0986
20.1016
20.0974
20.1006
20.1
20.1032
20.0988
20.1022
20.1026
20.1026
20.102
20.102
20.1033
20.1033
20.1027
20.1027
20.1016
20.0986
20.1006
20.0974
20.1032
20.1
20.1022
20.0988
20.1018
20.1456
20.1014
20.1472
20.0965
20.1469
20.0961
20.1485
20.1431
20.1023
20.1442
20.1021
20.1443
20.097
20.1455
20.0968
20.1006
20.1034
20.0997
20.1025
20.1021
20.1051
20.1011
20.1042
20.104
20.104
20.1033
20.1033
20.1046
20.1046
20.104
20.104
20.1034
20.1007
20.1025
20.0997
20.1051
20.1021
20.1042
20.1011
20.1023
20.1431
20.1021
20.1442
20.097
20.1443
20.0968
20.1455
20.1413
20.1026
20.1421
20.1024
20.1424
20.0973
20.1433
20.0972
20.1023
20.1052
20.1015
20.1043
20.1037
20.1068
20.1029
20.106
20.1055
20.1055
20.1047
20.1048
20.1061
20.1061
20.1053
20.1053
20.1052
20.1023
20.1043
20.1015
20.1069
20.1037
20.106
20.103
20.1026
20.1412
20.1025
20.1421
20.0974
20.1424
20.0972
20.1433
20.14
20.1028
20.1406
20.1027
20.1412
20.0976
20.1417
20.0975
20.1037
20.1067
20.103
20.106
20.105
20.1084
20.1044
20.1077
20.107
20.107
20.1062
20.1062
20.1075
20.1075
20.1068
20.1068
20.1067
20.1037
20.106
20.103
20.1084
20.105
20.1077
20.1044
20.1029
20.1399
20.1027
20.1405
20.0977
20.1411
20.0975
20.1417
20.1392
20.1031
20.1395
20.103
20.1403
20.0979
20.1407
20.0978
20.1048
20.1082
20.1043
20.1075
20.1061
20.1099
20.1056
20.1092
20.1084
20.1084
20.1077
20.1077
20.1089
20.1089
20.1082
20.1082
20.1082
20.1048
20.1075
20.1043
20.1099
20.1062
20.1092
20.1056
20.1031
20.1392
20.103
20.1395
20.098
20.1402
20.0978
20.1406
20.1387
20.1034
20.1389
20.1033
20.1397
20.0983
20.14
20.0981
20.1058
20.1095
20.1053
20.1088
20.1072
20.1112
20.1067
20.1106
20.1098
20.1098
20.1091
20.1091
20.1103
20.1103
20.1096
20.1096
20.1095
20.1058
20.1089
20.1053
20.1112
20.1073
20.1106
20.1067
20.1035
20.1387
20.1033
20.1388
20.0984
20.1397
20.0982
20.1399
20.1386
20.1036
20.1387
20.1035
20.1397
20.0986
20.1397
20.0984
20.1066
20.1107
20.1062
20.1101
20.1082
20.1125
20.1077
20.1119
20.1112
20.1112
20.1105
20.1105
20.1116
20.1116
20.111
20.111
20.1107
20.1067
20.1101
20.1062
20.1125
20.1082
20.1119
20.1077
20.1037
20.1386
20.1036
20.1386
20.0986
20.1396
20.0984
20.1397
20.1384
20.1043
20.1385
20.1039
20.1394
20.0992
20.1395
20.0989
20.1076
20.1119
20.1071
20.1113
20.1091
20.1137
20.1087
20.1131
20.1124
20.1124
20.1118
20.1118
20.1129
20.1129
20.1123
20.1123
20.1119
20.1076
20.1113
20.1071
20.1137
20.1092
20.1131
20.1087
20.1042
20.1385
20.104
20.1385