/*--------------------------------*- C++ -*----------------------------------*\
  =========                 |
  \\      /  F ield         | OpenFOAM: The Open Source CFD Toolbox
   \\    /   O peration     | Website:  https://openfoam.org
    \\  /    A nd           | Version:  9
     \\/     M anipulation  |
\*---------------------------------------------------------------------------*/
FoamFile
{
    format      ascii;
    class       surfaceScalarField;
    location    "1.1";
    object      phi;
}
// * * * * * * * * * * * * * * * * * * * * * * * * * * * * * * * * * * * * * //

dimensions      [0 3 -1 0 0 0 0];

internalField   nonuniform List<scalar> 
104044
(
1.0885e-06
-0.000147831
3.734e-06
0.000144497
-1.48926e-06
-8.51284e-05
-9.56353e-06
-4.52346e-07
9.35447e-05
2.68806e-06
2.57585e-07
2.37679e-06
-2.54656e-06
-8.31922e-06
-1.67421e-07
4.91461e-06
2.91144e-08
-0.000148101
0.000151806
-9.71194e-05
3.33016e-09
8.75817e-05
3.00333e-07
-1.8764e-07
-3.34037e-08
-0.000106882
-2.45563e-06
0.000107034
1.88492e-06
-0.000113242
-7.62294e-07
5.65381e-09
0.000113909
5.59255e-08
-6.5781e-11
-1.98386e-06
7.19482e-07
-1.72412e-06
-1.24096e-10
3.02337e-07
-1.57629e-08
-0.000116319
0.000113883
-0.000118062
-2.93752e-09
0.000117287
-9.53348e-09
9.05177e-10
-6.76702e-12
-0.000114866
-1.05557e-06
0.000115684
2.43368e-07
-0.000114866
-1.05558e-06
-5.66407e-09
0.000115684
2.43396e-07
-1.78499e-12
-1.79411e-06
3.25987e-07
-1.79411e-06
1.19976e-10
3.25997e-07
-5.57858e-12
-0.000118084
0.000117026
-0.000118084
2.92844e-09
0.000117025
-2.07526e-12
-9.0881e-10
3.33902e-08
-0.00011324
-7.62385e-07
0.000113908
5.60442e-08
-0.00010688
-2.45568e-06
4.52315e-07
0.000107032
1.88498e-06
6.20768e-11
-1.72414e-06
3.0238e-07
-1.98388e-06
1.67405e-07
7.19491e-07
1.57396e-08
-0.00011806
0.000117285
-0.000116317
-3.3354e-09
0.00011388
9.52829e-09
1.87627e-07
-1.08843e-06
-8.51271e-05
-9.56376e-06
9.35433e-05
2.68824e-06
-0.000147833
3.73432e-06
0.000144499
-1.48963e-06
-2.57555e-07
-8.319e-06
4.91432e-06
2.37636e-06
-2.54597e-06
-2.90692e-08
-9.71175e-05
8.75795e-05
-0.000148103
0.000151808
-3.00308e-07
2.25178e-06
-0.000141027
-4.5244e-06
0.000136972
6.3269e-06
-0.000100675
3.00031e-06
-6.70568e-07
0.00010567
-5.07223e-06
1.99912e-06
-2.4128e-06
3.88449e-06
-2.43277e-06
-6.91458e-07
-2.00741e-06
-1.09698e-06
-0.0001499
0.000146472
-8.43601e-05
6.13741e-07
8.56497e-05
-5.06872e-07
2.81897e-07
-7.05631e-08
-0.000108079
-5.75386e-06
0.000109461
3.77226e-06
-0.000114089
-1.90071e-06
-5.46007e-09
0.000114167
1.75776e-06
-6.02825e-08
-5.09508e-06
3.41851e-06
-7.6528e-07
2.17915e-09
5.23011e-07
4.04805e-09
-0.000109081
0.000103937
-0.000116529
-3.16966e-08
0.000114664
-1.15095e-08
-1.84516e-08
-1.04558e-11
-0.000116406
-5.19179e-07
0.000116971
-5.12962e-08
-0.000116405
-5.19219e-07
5.43489e-09
0.00011697
-5.12242e-08
-1.16772e-11
-7.1443e-07
-5.15396e-09
-7.14456e-07
-2.1962e-09
-5.11526e-09
-1.14406e-11
-0.000116293
0.000115742
-0.000116292
3.16548e-08
0.000115742
-8.906e-12
1.84263e-08
7.05182e-08
-0.000114087
-1.90075e-06
0.000114165
1.7579e-06
-0.000108077
-5.75403e-06
6.70537e-07
0.000109459
3.77236e-06
6.02543e-08
-7.65282e-07
5.23121e-07
-5.09508e-06
6.91422e-07
3.41858e-06
-4.09818e-09
-0.000116527
0.000114662
-0.000109078
-6.13779e-07
0.000103934
1.14783e-08
-2.81923e-07
-2.25169e-06
-0.000100674
3.00044e-06
0.000105669
-5.07257e-06
-0.000141029
-4.52426e-06
0.000136974
6.32686e-06
-1.99903e-06
-2.43281e-06
-2.00755e-06
-2.41226e-06
3.88418e-06
1.09715e-06
-8.43578e-05
8.56473e-05
-0.000149903
0.000146476
5.06965e-07
1.45923e-06
-0.000133399
-7.49515e-06
0.000130435
8.99973e-06
-0.00010891
8.13661e-06
-2.87389e-07
0.000111086
-8.56542e-06
1.92225e-06
-6.35112e-06
8.00263e-06
6.24555e-06
-4.85451e-07
-7.07855e-06
-2.85329e-06
-0.000142033
0.000137391
-8.8938e-05
1.45282e-06
9.27685e-05
-1.91192e-06
1.04531e-06
-2.79269e-08
-0.000110354
-2.83897e-06
0.000110888
2.04559e-06
-0.000114278
-2.39459e-06
-2.84453e-08
0.000114234
2.439e-06
-6.30983e-08
-4.32737e-06
3.01185e-06
-2.58995e-06
-1.20891e-08
2.42796e-06
1.1566e-07
-0.00010061
9.91087e-05
-0.000112147
-2.48536e-08
0.000109892
4.425e-08
-2.86314e-08
-1.44605e-11
-0.000116974
-9.43499e-07
0.000116634
1.25492e-06
-0.000116973
-9.43555e-07
2.83902e-08
0.000116633
1.25501e-06
-1.17119e-11
-6.42409e-07
6.27643e-07
-6.4245e-07
1.20628e-08
6.27725e-07
-1.48798e-11
-0.000115071
0.000114103
-0.000115071
2.48059e-08
0.000114102
-1.31269e-11
2.85581e-08
2.78475e-08
-0.000114276
-2.39474e-06
0.000114232
2.43912e-06
-0.000110352
-2.83903e-06
2.87368e-07
0.000110886
2.04551e-06
6.30357e-08
-2.59008e-06
2.42813e-06
-4.32751e-06
4.85426e-07
3.01187e-06
-1.15754e-07
-0.000112145
0.000109891
-0.000100608
-1.45291e-06
9.91057e-05
-4.43207e-08
-1.04538e-06
-1.45909e-06
-0.000108909
8.13716e-06
0.000111085
-8.56618e-06
-0.0001334
-7.4955e-06
0.000130437
9.00022e-06
-1.92214e-06
6.24595e-06
-7.07911e-06
-6.3511e-06
8.00279e-06
2.8537e-06
-8.89357e-05
9.27662e-05
-0.000142037
0.000137395
1.9122e-06
5.49587e-07
-0.00012802
-8.15174e-06
0.000125998
9.62421e-06
-0.000112569
9.5253e-06
-3.51689e-08
0.000113629
-9.99988e-06
9.67074e-07
-7.89443e-06
9.34169e-06
8.99405e-06
-1.30327e-07
-9.38009e-06
-4.40165e-06
-0.000133154
0.000129404
-9.63816e-05
1.96236e-06
9.95429e-05
-3.6567e-06
1.7243e-06
1.5943e-07
-0.000111317
-1.19709e-06
0.000111725
5.95102e-07
-0.000114025
-1.32263e-06
-1.35033e-08
0.000113802
1.71776e-06
4.17883e-08
-1.79174e-06
1.19043e-06
-1.81638e-06
-2.66251e-08
2.09404e-06
3.11701e-07
-9.8834e-05
9.92876e-05
-0.000108303
-8.84024e-09
0.000107301
2.07206e-07
-1.97871e-08
-2.22242e-11
-0.000116219
-8.8829e-07
0.000115766
1.32776e-06
-0.000116219
-8.88322e-07
1.34307e-08
0.000115766
1.32781e-06
-1.89413e-11
-1.02483e-06
1.41248e-06
-1.02485e-06
2.65151e-08
1.41254e-06
-2.14715e-11
-0.000113058
0.000112161
-0.000113058
8.76874e-09
0.00011216
-1.75786e-11
1.97288e-08
-1.59581e-07
-0.000114023
-1.32267e-06
0.000113801
1.71779e-06
-0.000111316
-1.19704e-06
3.51704e-08
0.000111723
5.94831e-07
-4.18831e-08
-1.81646e-06
2.09409e-06
-1.79168e-06
1.30315e-07
1.19023e-06
-3.11848e-07
-0.000108301
0.000107299
-9.88311e-05
-1.96255e-06
9.92848e-05
-2.07325e-07
-1.72442e-06
-5.49407e-07
-0.000112568
9.52628e-06
0.000113628
-1.00011e-05
-0.000128022
-8.15257e-06
0.000126
9.62525e-06
-9.66911e-07
8.99491e-06
-9.3811e-06
-7.89483e-06
9.34236e-06
4.40237e-06
-9.63795e-05
9.95408e-05
-0.000133158
0.000129408
3.65725e-06
-1.12694e-07
-0.000124326
-8.1342e-06
0.000122908
9.66505e-06
-0.000114381
9.67575e-06
2.78937e-08
0.000114922
-1.03577e-05
1.85652e-07
-8.09325e-06
9.57986e-06
9.58018e-06
1.21076e-08
-1.01589e-05
-5.42025e-06
-0.000126233
0.000123519
-0.00010212
2.17865e-06
0.000104197
-4.92276e-06
2.08043e-06
3.71439e-07
-0.000112143
-7.07492e-07
0.000112547
-4.04861e-08
-0.000113639
-7.07326e-07
3.37294e-08
0.000113543
1.14189e-06
2.70834e-07
-8.49457e-07
1.72669e-07
-9.43064e-07
7.77978e-09
1.36899e-06
4.38948e-07
-0.00010014
0.000101172
-0.000106728
3.09349e-08
0.000106429
3.79042e-07
8.62659e-09
-3.43718e-11
-0.000115348
-6.06326e-07
0.000114993
9.95889e-07
-0.000115348
-6.06349e-07
-3.3835e-08
0.000114992
9.95913e-07
-2.67415e-11
-7.15006e-07
1.14082e-06
-7.15041e-07
-7.86613e-09
1.14086e-06
-3.70678e-11
-0.000111455
0.000110879
-0.000111454
-3.10461e-08
0.000110879
-2.72978e-11
-8.71404e-09
-3.71627e-07
-0.000113638
-7.07322e-07
0.000113541
1.1419e-06
-0.000112141
-7.07456e-07
-2.78672e-08
0.000112546
-4.082e-08
-2.71004e-07
-9.43069e-07
1.369e-06
-8.49372e-07
-1.20875e-08
1.72259e-07
-4.39104e-07
-0.000106726
0.000106427
-0.000100137
-2.17893e-06
0.000101169
-3.79165e-07
-2.08067e-06
1.12892e-07
-0.00011438
9.67708e-06
0.000114921
-1.03592e-05
-0.000124328
-8.13553e-06
0.000122909
9.66666e-06
-1.85463e-07
9.58139e-06
-1.01602e-05
-8.09414e-06
9.58111e-06
5.42126e-06
-0.000102118
0.000104195
-0.000126237
0.000123523
4.92362e-06
-5.59341e-07
-0.000121716
-7.97039e-06
0.000120686
9.55953e-06
-0.000115293
9.45381e-06
9.27012e-09
0.000115538
-1.02671e-05
-3.55785e-07
-7.97619e-06
9.52398e-06
9.488e-06
2.8109e-08
-1.02426e-05
-6.02073e-06
-0.000121249
0.0001193
-0.000105789
2.21431e-06
0.000107008
-5.70633e-06
2.18957e-06
5.12816e-07
-0.000112908
-7.07584e-07
0.000113215
-1.03758e-07
-0.000113501
-4.56481e-07
7.72881e-08
0.000113496
8.96677e-07
4.48348e-07
-6.66663e-07
-1.13923e-07
-5.45946e-07
6.01206e-08
9.76201e-07
5.2386e-07
-0.000102213
0.000103196
-0.00010631
7.9968e-08
0.000106297
4.81627e-07
5.49581e-08
-1.04875e-10
-0.00011471
-4.87182e-07
0.00011448
7.9445e-07
-0.000114709
-4.87176e-07
-7.75321e-08
0.00011448
7.94437e-07
-5.98154e-11
-5.27343e-07
8.7027e-07
-5.27363e-07
-6.0241e-08
8.70279e-07
-8.34961e-11
-0.000110407
0.00011
-0.000110406
-8.01901e-08
0.000109999
-5.68758e-11
-5.51066e-08
-5.13221e-07
-0.000113499
-4.56434e-07
0.000113495
8.96707e-07
-0.000112906
-7.07515e-07
-9.07666e-09
0.000113214
-1.04506e-07
-4.48585e-07
-5.45916e-07
9.76208e-07
-6.66623e-07
-2.80306e-08
-1.14292e-07
-5.24138e-07
-0.000106308
0.000106296
-0.000102211
-2.21466e-06
0.000103194
-4.81828e-07
-2.18988e-06
5.59613e-07
-0.000115292
9.45548e-06
0.000115536
-1.02688e-05
-0.000121717
-7.97205e-06
0.000120687
9.56159e-06
3.56001e-07
9.48956e-06
-1.02443e-05
-7.97748e-06
9.52574e-06
6.02203e-06
-0.000105787
0.000107006
-0.000121253
0.000119303
5.70746e-06
-8.53775e-07
-0.000119801
-7.77327e-06
0.000119018
9.40968e-06
-0.000115677
9.13989e-06
-4.42862e-08
0.000115729
-1.00015e-05
-7.15614e-07
-7.79481e-06
9.39591e-06
9.21004e-06
-1.69073e-08
-1.00479e-05
-6.33875e-06
-0.000117653
0.000116218
-0.000107894
2.16529e-06
0.00010853
-6.14813e-06
2.17503e-06
6.01044e-07
-0.000113476
-8.35053e-07
0.000113682
-1.56021e-08
-0.00011351
-3.76945e-07
1.10733e-07
0.000113528
8.49273e-07
5.58973e-07
-7.59004e-07
-7.79765e-08
-3.99416e-07
9.42938e-08
8.49785e-07
5.76515e-07
-0.000104063
0.000104817
-0.000106344
1.23604e-07
0.00010642
5.48511e-07
1.02489e-07
-6.83848e-11
-0.000114297
-4.32117e-07
0.00011414
6.98978e-07
-0.000114296
-4.31734e-07
-1.11258e-07
0.00011414
6.98942e-07
-9.55285e-11
-4.51502e-07
7.29356e-07
-4.51475e-07
-9.45272e-08
7.29331e-07
1.1344e-09
-0.000109651
0.000109341
-0.000109651
-1.20036e-07
0.00010934
-5.66442e-11
-1.02928e-07
-6.01371e-07
-0.000113509
-3.77411e-07
0.000113527
8.49285e-07
-0.000113475
-8.3535e-07
4.43662e-08
0.000113681
-1.59991e-08
-5.59276e-07
-3.99409e-07
8.49779e-07
-7.59007e-07
1.69628e-08
-7.8389e-08
-5.75021e-07
-0.000106342
0.00010642
-0.000104061
-2.16508e-06
0.000104816
-5.48766e-07
-2.17535e-06
8.54176e-07
-0.000115675
9.14143e-06
0.000115728
-1.00033e-05
-0.000119801
-7.77503e-06
0.000119019
9.41197e-06
7.15897e-07
9.21176e-06
-1.00497e-05
-7.79631e-06
9.39799e-06
6.34052e-06
-0.000107893
0.000108528
-0.000117656
0.000116221
6.14958e-06
-1.04288e-06
-0.000118328
-7.56987e-06
0.0001177
9.24023e-06
-0.00011571
8.82185e-06
-9.45242e-08
0.000115627
-9.68773e-06
-9.49545e-07
-7.59519e-06
9.23518e-06
8.89046e-06
-7.10308e-08
-9.7499e-06
-6.47807e-06
-0.000114986
0.000113895
-0.000108952
2.08348e-06
0.000109213
-6.36316e-06
2.10511e-06
6.41679e-07
-0.000113834
-9.78515e-07
0.000113924
1.52429e-07
-0.000113539
-3.70699e-07
1.36414e-07
0.000113535
8.79719e-07
6.20046e-07
-8.97942e-07
5.49964e-08
-3.65352e-07
1.23644e-07
8.50933e-07
6.00008e-07
-0.00010544
0.000105945
-0.000106508
1.43668e-07
0.000106594
5.83847e-07
1.30012e-07
-2.58013e-11
-0.000114004
-3.94515e-07
0.000113875
6.59662e-07
-0.000114003
-3.94363e-07
-1.36592e-07
0.000113875
6.59587e-07
-4.41378e-11
-4.07483e-07
6.6803e-07
-4.07842e-07
-1.23357e-07
6.67975e-07
3.33388e-10
-0.000109065
0.000108814
-0.000109065
-1.42292e-07
0.000108814
-1.41967e-09
-1.3438e-07
-6.42052e-07
-0.000113538
-3.70707e-07
0.000113535
8.796e-07
-0.000113833
-9.78271e-07
9.41705e-08
0.000113923
1.51585e-07
-6.20352e-07
-3.64661e-07
8.50855e-07
-8.97663e-07
7.09029e-08
5.45624e-08
-5.99718e-07
-0.000106507
0.000106593
-0.000105439
-2.08395e-06
0.000105945
-5.8607e-07
-2.10634e-06
1.04348e-06
-0.000115708
8.82416e-06
0.000115624
-9.68959e-06
-0.000118328
-7.57273e-06
0.0001177
9.2435e-06
9.49936e-07
8.89204e-06
-9.75181e-06
-7.59654e-06
9.23762e-06
6.4798e-06
-0.00010895
0.00010921
-0.000114989
0.000113897
6.36457e-06
-1.15925e-06
-0.00011713
-7.3622e-06
0.000116596
9.05584e-06
-0.000115494
8.50963e-06
-1.27839e-07
0.000115314
-9.36072e-06
-1.09728e-06
-7.38682e-06
9.05427e-06
8.57294e-06
-1.1059e-07
-9.42628e-06
-6.50368e-06
-0.000112943
0.000112085
-0.000109333
1.99335e-06
0.000109345
-6.43541e-06
2.01772e-06
6.51084e-07
-0.000113957
-1.10271e-06
0.000113942
3.39296e-07
-0.000113512
-3.94599e-07
1.54137e-07
0.000113465
9.38752e-07
6.42507e-07
-1.03449e-06
2.47638e-07
-3.76476e-07
1.44747e-07
8.97758e-07
6.04186e-07
-0.000106331
0.000106617
-0.000106666
1.56331e-07
0.000106719
5.97737e-07
1.48903e-07
1.58556e-11
-0.00011375
-3.69769e-07
0.00011362
6.53577e-07
-0.00011375
-3.69683e-07
-1.54039e-07
0.00011362
6.53418e-07
-1.60539e-11
-3.76725e-07
6.46459e-07
-3.76675e-07
-1.44792e-07
6.4635e-07
8.00528e-12
-0.000108586
0.000108373
-0.000108586
-1.56271e-07
0.000108373
-4.45624e-11
-1.49119e-07
-6.50842e-07
-0.000113512
-3.94277e-07
0.000113464
9.38261e-07
-0.000113957
-1.10184e-06
1.28599e-07
0.000113942
3.38046e-07
-6.42749e-07
-3.76232e-07
8.97467e-07
-1.03387e-06
1.10258e-07
2.46654e-07
-6.04176e-07
-0.000106666
0.00010672
-0.000106331
-1.99394e-06
0.000106619
-5.97958e-07
-2.01841e-06
1.15681e-06
-0.000115489
8.51193e-06
0.000115308
-9.35899e-06
-0.000117131
-7.36634e-06
0.000116597
9.05689e-06
1.09697e-06
8.57595e-06
-9.42731e-06
-7.39094e-06
9.05754e-06
6.50285e-06
-0.000109331
0.000109346
-0.000112943
0.000112079
6.43695e-06
-1.22791e-06
-0.000116094
-7.15839e-06
0.00011561
8.87003e-06
-0.000115099
8.21279e-06
-1.54438e-07
0.00011485
-9.03735e-06
-1.18607e-06
-7.18332e-06
8.87105e-06
8.27321e-06
-1.40549e-07
-9.10415e-06
-6.45972e-06
-0.000111324
0.000110626
-0.000109266
1.90588e-06
0.000109113
-6.42296e-06
1.92929e-06
6.42711e-07
-0.000113881
-1.20117e-06
0.000113777
5.08593e-07
-0.000113393
-4.3405e-07
1.64769e-07
0.000113293
1.0112e-06
6.41971e-07
-1.14294e-06
4.20802e-07
-4.08599e-07
1.58617e-07
9.63912e-07
5.95496e-07
-0.000106808
0.000106918
-0.000106747
1.62923e-07
0.000106746
5.95253e-07
1.58845e-07
-5.0275e-11
-0.000113484
-3.59662e-07
0.000113335
6.73693e-07
-0.000113484
-3.59616e-07
-1.64765e-07
0.000113334
6.73589e-07
-1.81803e-11
-3.59019e-07
6.54e-07
-3.58939e-07
-1.58561e-07
6.53857e-07
-1.76266e-11
-0.000108173
0.000107976
-0.000108172
-1.62865e-07
0.000107976
-5.69394e-12
-1.58781e-07
-6.42246e-07
-0.000113392
-4.34052e-07
0.000113293
1.01099e-06
-0.000113881
-1.20144e-06
1.55344e-07
0.000113776
5.09024e-07
-6.41566e-07
-4.08396e-07
9.63507e-07
-1.14258e-06
1.41445e-07
4.20361e-07
-5.95173e-07
-0.000106747
0.000106746
-0.000106811
-1.90542e-06
0.00010692
-5.95056e-07
-1.92934e-06
1.22225e-06
-0.000115095
8.20741e-06
0.000114849
-9.02808e-06
-0.000116094
-7.15372e-06
0.000115608
8.86134e-06
1.18171e-06
8.27112e-06
-9.09825e-06
-7.18179e-06
8.86675e-06
6.45284e-06
-0.000109269
0.000109118
-0.000111316
0.000110615
6.41878e-06
-1.2637e-06
-0.000115143
-6.98737e-06
0.000114682
8.71236e-06
-0.000114577
7.94994e-06
-1.74649e-07
0.000114273
-8.73491e-06
-1.23705e-06
-6.99632e-06
8.70057e-06
7.99643e-06
-1.63606e-07
-8.79717e-06
-6.37635e-06
-0.00010999
0.000109379
-0.000108902
1.82719e-06
0.000108649
-6.36035e-06
1.84693e-06
6.24639e-07
-0.000113633
-1.27716e-06
0.00011345
6.61168e-07
-0.000113167
-4.81234e-07
1.69901e-07
0.00011301
1.09297e-06
6.28232e-07
-1.23069e-06
5.82628e-07
-4.51937e-07
1.66275e-07
1.04065e-06
5.80871e-07
-0.000106951
0.00010692
-0.000106714
1.65127e-07
0.000106648
5.82649e-07
1.62747e-07
6.04183e-11
-0.000113172
-3.65606e-07
0.000112989
7.1797e-07
-0.000113172
-3.65601e-07
-1.69628e-07
0.000112989
7.17861e-07
4.11521e-12
-3.57217e-07
6.8625e-07
-3.572e-07
-1.66141e-07
6.86149e-07
3.09877e-11
-0.000107781
0.000107581
-0.000107781
-1.64907e-07
0.00010758
1.28505e-11
-1.62614e-07
-6.24029e-07
-0.000113166
-4.8134e-07
0.000113009
1.09283e-06
-0.000113632
-1.27784e-06
1.75165e-07
0.000113449
6.61834e-07
-6.27704e-07
-4.52011e-07
1.04049e-06
-1.2312e-06
1.64294e-07
5.83257e-07
-5.80207e-07
-0.000106713
0.000106647
-0.000106953
-1.82614e-06
0.000106921
-5.82267e-07
-1.84669e-06
1.26177e-06
-0.000114577
7.94541e-06
0.000114272
-8.72719e-06
-0.000115141
-6.97969e-06
0.00011468
8.70236e-06
1.23338e-06
7.99139e-06
-8.78923e-06
-6.99023e-06
8.69084e-06
6.37324e-06
-0.000108909
0.000108655
-0.000109978
0.000109372
6.35317e-06
-1.27402e-06
-0.000114226
-6.8342e-06
0.000113764
8.56995e-06
-0.000113947
7.69728e-06
-1.89974e-07
0.000113592
-8.4262e-06
-1.25933e-06
-6.8392e-06
8.55465e-06
7.74565e-06
-1.81144e-07
-8.49725e-06
-6.26639e-06
-0.000108801
0.000108234
-0.00010836
1.75563e-06
0.000108035
-6.26198e-06
1.77288e-06
6.01007e-07
-0.000113233
-1.33317e-06
0.00011298
7.95161e-07
-0.000112825
-5.32727e-07
1.70375e-07
0.000112607
1.18085e-06
6.07191e-07
-1.29292e-06
7.21292e-07
-5.01775e-07
1.68963e-07
1.12506e-06
5.61938e-07
-0.000106834
0.000106695
-0.00010655
1.63491e-07
0.000106415
5.66118e-07
1.63061e-07
9.79747e-13
-0.000112788
-3.85568e-07
0.000112561
7.82499e-07
-0.000112788
-3.85595e-07
-1.7029e-07
0.000112561
7.82456e-07
3.69312e-11
-3.70316e-07
7.40707e-07
-3.70329e-07
-1.68748e-07
7.40628e-07
-7.30789e-11
-0.000107374
0.000107152
-0.000107373
-1.63607e-07
0.000107151
-4.22637e-11
-1.63057e-07
-6.00713e-07
-0.000112824
-5.33126e-07
0.000112606
1.18103e-06
-0.000113232
-1.33471e-06
1.89896e-07
0.000112979
7.96676e-07
-6.06645e-07
-5.01992e-07
1.12508e-06
-1.29406e-06
1.81425e-07
7.22561e-07
-5.6214e-07
-0.000106548
0.000106413
-0.000106833
-1.75586e-06
0.000106692
-5.65794e-07
-1.772e-06
1.27228e-06
-0.000113947
7.69203e-06
0.000113592
-8.41999e-06
-0.000114224
-6.82849e-06
0.000113763
8.56143e-06
1.25657e-06
7.74046e-06
-8.48999e-06
-6.83187e-06
8.54497e-06
6.26576e-06
-0.000108361
0.000108031
-0.000108803
0.00010824
6.26302e-06
-1.27116e-06
-0.000113298
-6.70276e-06
0.000112818
8.45434e-06
-0.000113218
7.45891e-06
-2.02017e-07
0.000112814
-8.12462e-06
-1.26041e-06
-6.6975e-06
8.42343e-06
7.5011e-06
-1.94498e-07
-8.19299e-06
-6.15291e-06
-0.000107684
0.000107134
-0.000107682
1.69149e-06
0.000107297
-6.14759e-06
1.70611e-06
5.75615e-07
-0.000112696
-1.38497e-06
0.000112374
9.29003e-07
-0.000112361
-5.87848e-07
1.67914e-07
0.000112079
1.27674e-06
5.8238e-07
-1.34645e-06
8.53852e-07
-5.54367e-07
1.67722e-07
1.21553e-06
5.41885e-07
-0.000106508
0.000106272
-0.000106247
1.59794e-07
0.000106041
5.46699e-07
1.60317e-07
-3.4032e-11
-0.000112312
-4.18699e-07
0.000112033
8.65671e-07
-0.000112312
-4.18661e-07
-1.6794e-07
0.000112033
8.65562e-07
-1.65482e-11
-3.96673e-07
8.13789e-07
-3.96686e-07
-1.6771e-07
8.1375e-07
-8.77979e-11
-0.000106915
0.000106657
-0.000106915
-1.59922e-07
0.000106656
-8.92957e-12
-1.60258e-07
-5.75494e-07
-0.00011236
-5.87848e-07
0.000112079
1.27657e-06
-0.000112696
-1.38514e-06
2.02027e-07
0.000112374
9.29239e-07
-5.82292e-07
-5.54689e-07
1.2157e-06
-1.34775e-06
1.94221e-07
8.55038e-07
-5.41984e-07
-0.000106245
0.000106039
-0.000106503
-1.69181e-06
0.000106268
-5.46553e-07
-1.70559e-06
1.27166e-06
-0.00011322
7.45003e-06
0.000112818
-8.11816e-06
-0.000113296
-6.69435e-06
0.000112815
8.44729e-06
1.26062e-06
7.49233e-06
-8.18609e-06
-6.6879e-06
8.41501e-06
6.14374e-06
-0.000107675
0.00010729
-0.000107695
0.000107145
6.14298e-06
-1.26254e-06
-0.000112324
-6.57834e-06
0.00011181
8.35421e-06
-0.000112394
7.21303e-06
-2.08189e-07
0.000111943
-7.8156e-06
-1.2555e-06
-6.56751e-06
8.31709e-06
7.25883e-06
-2.0327e-07
-7.89127e-06
-6.02583e-06
-0.000106595
0.000106043
-0.000106882
1.63394e-06
0.000106435
-6.02863e-06
1.64538e-06
5.505e-07
-0.000112025
-1.43294e-06
0.000111639
1.06009e-06
-0.000111769
-6.45806e-07
1.6347e-07
0.000111422
1.37946e-06
5.57296e-07
-1.39602e-06
9.84722e-07
-6.10413e-07
1.64229e-07
1.31383e-06
5.2151e-07
-0.000105995
0.000105675
-0.000105802
1.54717e-07
0.000105523
5.26285e-07
1.55759e-07
-6.32712e-11
-0.000111728
-4.62676e-07
0.00011139
9.64263e-07
-0.000111728
-4.62538e-07
-1.63532e-07
0.00011139
9.64054e-07
-3.75747e-11
-4.35076e-07
9.04032e-07
-4.34969e-07
-1.64246e-07
9.03838e-07
-2.02436e-10
-0.000106377
0.00010607
-0.000106377
-1.55137e-07
0.000106069
-1.78282e-10
-1.56123e-07
-5.50343e-07
-0.000111768
-6.45321e-07
0.000111421
1.37883e-06
-0.000112024
-1.43056e-06
2.08954e-07
0.000111637
1.05807e-06
-5.57061e-07
-6.09989e-07
1.31321e-06
-1.39396e-06
2.03859e-07
9.83045e-07
-5.22213e-07
-0.0001058
0.000105522
-0.000105993
-1.63528e-06
0.000105676
-5.26798e-07
-1.64609e-06
1.26364e-06
-0.000112397
7.2207e-06
0.000111942
-7.82053e-06
-0.000112323
-6.58598e-06
0.000111811
8.36108e-06
1.25545e-06
7.2607e-06
-7.89078e-06
-6.56975e-06
8.31777e-06
6.02306e-06
-0.000106881
0.000106443
-0.000106598
0.000106035
6.02353e-06
-1.24171e-06
-0.000111282
-6.49249e-06
0.00011073
8.28598e-06
-0.000111469
6.99623e-06
-2.14361e-07
0.000110958
-7.51261e-06
-1.23935e-06
-6.4613e-06
8.22902e-06
7.02858e-06
-2.09441e-07
-7.58467e-06
-5.89833e-06
-0.000105482
0.000104887
-0.000105972
1.58268e-06
0.000105487
-5.90042e-06
1.59106e-06
5.25894e-07
-0.000111224
-1.47574e-06
0.000110769
1.18998e-06
-0.000111046
-7.06517e-07
1.5763e-07
0.00011063
1.4905e-06
5.32406e-07
-1.44011e-06
1.11332e-06
-6.6903e-07
1.58977e-07
1.41929e-06
5.02114e-07
-0.000105319
0.000104924
-0.00010521
1.49167e-07
0.000104856
5.06452e-07
1.50438e-07
-1.93634e-10
-0.000111024
-5.16137e-07
0.00011062
1.07743e-06
-0.000111024
-5.16049e-07
-1.5808e-07
0.00011062
1.07736e-06
-1.20354e-10
-4.83418e-07
1.00883e-06
-4.83298e-07
-1.59223e-07
1.00869e-06
-1.71846e-10
-0.000105737
0.00010537
-0.000105736
-1.49541e-07
0.00010537
-1.49419e-10
-1.50771e-07
-5.26496e-07
-0.000111045
-7.0674e-07
0.000110629
1.49071e-06
-0.000111222
-1.4777e-06
2.13107e-07
0.000110769
1.19145e-06
-5.32643e-07
-6.68827e-07
1.41906e-06
-1.43981e-06
2.09136e-07
1.11314e-06
-5.02873e-07
-0.000105209
0.000104856
-0.000105321
-1.58406e-06
0.000104925
-5.07028e-07
-1.59237e-06
1.24869e-06
-0.000111466
6.98924e-06
0.000110954
-7.51358e-06
-0.000111284
-6.4837e-06
0.000110731
8.28603e-06
1.24358e-06
7.02883e-06
-7.58686e-06
-6.46137e-06
8.23186e-06
5.89796e-06
-0.000105982
0.000105489
-0.000105472
0.000104886
5.89773e-06
-1.22948e-06
-0.000110156
-6.3961e-06
0.000109552
8.2298e-06
-0.000110425
6.75828e-06
-2.1358e-07
0.000109854
-7.20344e-06
-1.22288e-06
-6.37434e-06
8.17131e-06
6.80594e-06
-2.1202e-07
-7.28427e-06
-5.77142e-06
-0.00010429
0.000103665
-0.000104974
1.5349e-06
0.000104425
-5.77677e-06
1.54289e-06
5.03816e-07
-0.000110287
-1.52205e-06
0.000109765
1.32633e-06
-0.000110183
-7.70317e-07
1.51707e-07
0.000109696
1.61e-06
5.09401e-07
-1.48369e-06
1.24485e-06
-7.30656e-07
1.53141e-07
1.5336e-06
4.83775e-07
-0.000104496
0.000104025
-0.000104468
1.43469e-07
0.000104038
4.87903e-07
1.44851e-07
-1.55385e-10
-0.000110187
-5.77229e-07
0.000109713
1.20312e-06
-0.000110186
-5.7718e-07
-1.51912e-07
0.000109712
1.20303e-06
-2.06313e-10
-5.40397e-07
1.12746e-06
-5.40349e-07
-1.53538e-07
1.12741e-06
-1.73567e-10
-0.000104975
0.000104541
-0.000104974
-1.43778e-07
0.000104541
-2.18864e-10
-1.45332e-07
-5.03483e-07
-0.000110182
-7.70557e-07
0.000109695
1.61002e-06
-0.000110287
-1.52284e-06
2.15801e-07
0.000109764
1.3262e-06
-5.09625e-07
-7.31037e-07
1.53378e-06
-1.48537e-06
2.12385e-07
1.24544e-06
-4.8408e-07
-0.000104468
0.000104038
-0.000104495
-1.53485e-06
0.000104023
-4.88763e-07
-1.54408e-06
1.22774e-06
-0.000110423
6.75685e-06
0.000109858
-7.20318e-06
-0.000110156
-6.39555e-06
0.000109548
8.23099e-06
1.22616e-06
6.80309e-06
-7.28588e-06
-6.3717e-06
8.17285e-06
5.77286e-06
-0.000104972
0.000104421
-0.000104291
0.000103668
5.77624e-06
-1.20753e-06
-0.000108922
-6.30898e-06
0.000108255
8.1842e-06
-0.000109263
6.51793e-06
-2.15016e-07
0.000108632
-6.87938e-06
-1.20764e-06
-6.28113e-06
8.1185e-06
6.56668e-06
-2.11909e-07
-6.97091e-06
-5.64006e-06
-0.000103034
0.000102365
-0.000103845
1.49014e-06
0.000103233
-5.64982e-06
1.49717e-06
4.82545e-07
-0.000109214
-1.57203e-06
0.000108619
1.46929e-06
-0.000109176
-8.37651e-07
1.45428e-07
0.000108612
1.73871e-06
4.88166e-07
-1.53258e-06
1.38381e-06
-7.95908e-07
1.47101e-07
1.65699e-06
4.66113e-07
-0.000103519
0.000102971
-0.000103573
1.37772e-07
0.000103064
4.7018e-07
1.3924e-07
-1.06781e-10
-0.000109206
-6.45167e-07
0.000108656
1.34082e-06
-0.000109206
-6.45185e-07
-1.45679e-07
0.000108656
1.34083e-06
-1.20494e-10
-6.04531e-07
1.25826e-06
-6.04511e-07
-1.47255e-07
1.2582e-06
-7.34551e-11
-0.000104076
0.000103569
-0.000104076
-1.37947e-07
0.000103568
-9.89045e-11
-1.39427e-07
-4.83168e-07
-0.000109174
-8.37767e-07
0.000108611
1.73894e-06
-0.000109212
-1.57132e-06
2.13443e-07
0.000108618
1.46889e-06
-4.88078e-07
-7.96017e-07
1.65701e-06
-1.53234e-06
2.12996e-07
1.38321e-06
-4.66516e-07
-0.000103573
0.000103064
-0.000103518
-1.49092e-06
0.000102971
-4.70436e-07
-1.49765e-06
1.20927e-06
-0.000109267
6.52894e-06
0.000108633
-6.89051e-06
-0.000108917
-6.32266e-06
0.000108254
8.19524e-06
1.20591e-06
6.57485e-06
-6.97701e-06
-6.29033e-06
8.12695e-06
5.64834e-06
-0.000103844
0.000103234
-0.000103032
0.000102357
5.65401e-06
-1.18481e-06
-0.000107559
-6.24388e-06
0.000106825
8.16279e-06
-0.00010798
6.28502e-06
-2.13931e-07
0.00010728
-6.55664e-06
-1.18188e-06
-6.20639e-06
8.08388e-06
6.33163e-06
-2.13333e-07
-6.64785e-06
-5.51254e-06
-0.000101677
0.000100946
-0.000102592
1.44938e-06
0.000101915
-5.51858e-06
1.45434e-06
4.63019e-07
-0.000107993
-1.62363e-06
0.000107322
1.61778e-06
-0.000108014
-9.0813e-07
1.39136e-07
0.00010737
1.87579e-06
4.67536e-07
-1.58204e-06
1.527e-06
-8.63853e-07
1.40826e-07
1.78796e-06
4.49539e-07
-0.00010239
0.000101766
-0.00010252
1.32153e-07
0.000101929
4.53074e-07
1.3359e-07
-1.39424e-10
-0.000108072
-7.18849e-07
0.000107441
1.48889e-06
-0.000108072
-7.18795e-07
-1.39485e-07
0.000107441
1.48887e-06
-1.18138e-10
-6.74584e-07
1.39953e-06
-6.74569e-07
-1.41147e-07
1.39952e-06
-1.22083e-10
-0.000103028
0.000102441
-0.000103028
-1.32452e-07
0.000102441
-9.373e-11
-1.33817e-07
-4.63502e-07
-0.000108014
-9.07924e-07
0.00010737
1.87574e-06
-0.000107992
-1.62148e-06
2.13371e-07
0.00010732
1.61639e-06
-4.68337e-07
-8.63741e-07
1.78807e-06
-1.58007e-06
2.11308e-07
1.52609e-06
-4.50149e-07
-0.00010252
0.000101929
-0.000102392
-1.44958e-06
0.00010177
-4.53617e-07
-1.45515e-06
1.18864e-06
-0.000107972
6.29552e-06
0.000107267
-6.56561e-06
-0.000107562
-6.25173e-06
0.000106831
8.17183e-06
1.18661e-06
6.34696e-06
-6.66158e-06
-6.21877e-06
8.0971e-06
5.51647e-06
-0.000102599
0.000101929
-0.000101665
0.00010093
5.52637e-06
-1.16886e-06
-0.000106065
-6.19252e-06
0.000105262
8.16503e-06
-0.000106542
6.06098e-06
-2.09569e-07
0.000105757
-6.23483e-06
-1.16652e-06
-6.15821e-06
8.0844e-06
6.11723e-06
-2.09019e-07
-6.33676e-06
-5.39e-06
-0.000100188
9.93856e-05
-0.000101215
1.41256e-06
0.000100473
-5.40046e-06
1.41684e-06
4.4585e-07
-0.000106619
-1.67918e-06
0.000105867
1.77585e-06
-0.000106692
-9.82605e-07
1.33243e-07
0.000105964
2.02321e-06
4.49983e-07
-1.63495e-06
1.67915e-06
-9.35853e-07
1.3483e-07
1.92955e-06
4.34622e-07
-0.000101111
0.000100409
-0.000101303
1.26929e-07
0.000100628
4.37675e-07
1.28255e-07
-1.49438e-10
-0.000106775
-7.98123e-07
0.000106058
1.64781e-06
-0.000106775
-7.98124e-07
-1.33558e-07
0.000106058
1.64781e-06
-1.52203e-10
-7.50618e-07
1.55211e-06
-7.50591e-07
-1.35163e-07
1.55207e-06
-1.33833e-10
-0.000101819
0.000101148
-0.000101819
-1.27165e-07
0.000101148
-1.28596e-10
-1.28537e-07
-4.46193e-07
-0.000106691
-9.82822e-07
0.000105963
2.02334e-06
-0.000106617
-1.67973e-06
2.09452e-07
0.000105866
1.77517e-06
-4.50239e-07
-9.35971e-07
1.92961e-06
-1.63536e-06
2.09247e-07
1.67881e-06
-4.34756e-07
-0.000101303
0.000100628
-0.000101113
-1.41114e-06
0.00010041
-4.38103e-07
-1.41636e-06
1.16899e-06
-0.000106536
6.05428e-06
0.000105757
-6.23485e-06
-0.000106066
-6.1862e-06
0.00010526
8.1611e-06
1.16864e-06
6.1088e-06
-6.33728e-06
-6.14811e-06
8.08161e-06
5.39231e-06
-0.00010122
0.000100471
-0.000100183
9.93888e-05
5.40117e-06
-1.14616e-06
-0.000104424
-6.14102e-06
0.000103538
8.17241e-06
-0.000104945
5.82256e-06
-2.06417e-07
0.000104083
-5.89986e-06
-1.14556e-06
-6.09921e-06
8.08273e-06
5.87968e-06
-2.06158e-07
-6.00754e-06
-5.26555e-06
-9.85599e-05
9.76844e-05
-9.96993e-05
1.37545e-06
9.88809e-05
-5.27352e-06
1.37991e-06
4.29327e-07
-0.000105081
-1.73947e-06
0.000104244
1.94113e-06
-0.0001052
-1.061e-06
1.27543e-07
0.000104383
2.17932e-06
4.32964e-07
-1.69245e-06
1.839e-06
-1.01132e-06
1.29042e-07
2.0793e-06
4.19983e-07
-9.96739e-05
9.88899e-05
-9.99161e-05
1.21829e-07
9.91533e-05
4.22939e-07
1.23109e-07
-1.37681e-10
-0.000105305
-8.82347e-07
0.000104499
1.8163e-06
-0.000105305
-8.82389e-07
-1.27798e-07
0.000104499
1.81633e-06
-1.4603e-10
-8.31401e-07
1.71384e-06
-8.31425e-07
-1.2932e-07
1.71385e-06
-1.50103e-10
-0.00010044
9.96793e-05
-0.00010044
-1.22093e-07
9.96791e-05
-1.46139e-10
-1.2336e-07
-4.29628e-07
-0.000105199
-1.06125e-06
0.000104383
2.17962e-06
-0.000105081
-1.73938e-06
2.06666e-07
0.000104243
1.94065e-06
-4.33176e-07
-1.01154e-06
2.07945e-06
-1.69248e-06
2.06665e-07
1.83822e-06
-4.20106e-07
-9.9916e-05
9.91528e-05
-9.96728e-05
-1.37451e-06
9.88878e-05
-4.23066e-07
-1.37862e-06
1.14415e-06
-0.000104949
5.82357e-06
0.000104087
-5.8988e-06
-0.000104421
-6.14108e-06
0.000103536
8.17022e-06
1.14335e-06
5.87746e-06
-6.00599e-06
-6.09669e-06
8.07901e-06
5.26719e-06
-9.96937e-05
9.88756e-05
-9.8568e-05
9.76941e-05
5.2759e-06
-1.12331e-06
-0.000102618
-6.09625e-06
0.000101647
8.1898e-06
-0.00010319
5.58222e-06
-2.01737e-07
0.00010224
-5.55451e-06
-1.12344e-06
-6.0531e-06
8.09737e-06
5.6443e-06
-2.01984e-07
-5.67245e-06
-5.14242e-06
-9.6784e-05
9.58302e-05
-9.80282e-05
1.3401e-06
9.71279e-05
-5.15263e-06
1.34434e-06
4.14097e-07
-0.000103372
-1.80497e-06
0.000102446
2.11561e-06
-0.00010353
-1.14358e-06
1.2211e-07
0.000102621
2.34442e-06
4.1736e-07
-1.75461e-06
2.00708e-06
-1.09105e-06
1.23561e-07
2.23841e-06
4.06223e-07
-9.80706e-05
9.71995e-05