/*--------------------------------*- C++ -*----------------------------------*\
  =========                 |
  \\      /  F ield         | OpenFOAM: The Open Source CFD Toolbox
   \\    /   O peration     | Website:  https://openfoam.org
    \\  /    A nd           | Version:  9
     \\/     M anipulation  |
\*---------------------------------------------------------------------------*/
FoamFile
{
    format      ascii;
    class       volScalarField;
    location    "3.8";
    object      epsilon;
}
// * * * * * * * * * * * * * * * * * * * * * * * * * * * * * * * * * * * * * //

dimensions      [0 2 -3 0 0 0 0];

internalField   nonuniform List<scalar> 
36360
(
10.2672
9.20462
7.99787
7.48726
15.6568
14.7643
9.3965
11.0884
7.22457
6.18024
5.73277
4.80637
12.2156
10.8534
8.67051
7.39158
5.72682
5.72669
4.40959
4.40945
10.2724
10.272
6.88836
6.88797
6.17987
7.22402
4.80598
5.73218
10.852
12.2134
7.3904
8.66849
9.20411
10.2668
7.48665
7.99725
14.7611
15.6531
11.0855
9.39354
12.4446
11.1451
11.5988
10.3597
19.8677
18.3275
18.2804
16.8573
8.96313
7.82124
8.23638
7.12562
15.4773
13.9968
14.1055
12.671
7.32465
7.32455
6.6431
6.64298
13.3567
13.3563
12.0535
12.0531
7.82096
8.96275
7.12529
8.23592
13.9956
15.4753
12.6696
14.1033
11.1448
12.4445
10.3593
11.5984
18.3247
19.8643
16.8543
18.2769
13.5286
12.1905
13.0531
11.7288
22.0352
20.4035
21.0606
19.4658
9.96819
8.80372
9.52039
8.36341
17.4649
15.9427
16.5645
15.0575
8.29693
8.29686
7.86004
7.85995
15.2821
15.2817
14.4044
14.4041
8.80353
9.96794
8.36317
9.52008
15.9416
17.4632
15.0564
16.5627
12.1904
13.5286
11.7286
13.053
20.401
22.0323
19.4632
21.0575
14.233
12.8814
13.9117
12.5656
23.549
21.8752
22.8497
21.1928
10.6516
9.48267
10.3383
9.17071
18.8887
17.3487
18.228
16.6959
8.97351
8.97346
8.66232
8.66226
16.681
16.6807
16.031
16.0307
9.48254
10.6515
9.17055
10.3381
17.3478
18.8873
16.6949
18.2264
12.8814
14.2331
12.5656
13.9117
21.8731
23.5465
21.1905
22.847
14.7379
13.3799
14.5035
13.1484
24.6821
22.9891
24.152
22.4666
11.1529
9.98519
10.92
9.75142
19.9728
18.4229
19.4646
17.919
9.47618
9.47615
9.24218
9.24215
17.7525
17.7522
17.2498
17.2495
9.98512
11.1528
9.75132
10.9199
18.4221
19.9716
17.9182
19.4632
13.38
14.7382
13.1484
14.5037
22.9873
24.68
22.4647
24.1497
15.1162
13.7546
14.9389
13.5791
25.5589
23.8572
25.1459
23.4476
11.5343
10.3703
11.3559
10.19
20.8216
19.267
20.4216
18.869
9.86264
9.86262
9.68162
9.68159
18.5957
18.5955
18.198
18.1978
10.3702
11.5343
10.19
11.3559
19.2664
20.8206
18.8684
20.4205
13.7547
15.1165
13.5792
14.9392
23.8557
25.5571
23.446
25.144
15.4046
14.0411
15.269
13.9065
26.2472
24.5423
25.9224
24.2183
11.8294
10.6702
11.6911
10.5295
21.495
19.9392
21.177
19.6217
10.1647
10.1647
10.0229
10.0229
19.2683
19.2682
18.9505
18.9503
10.6702
11.8294
10.5295
11.6911
19.9387
21.4942
19.6211
21.1761
14.0413
15.4049
13.9066
15.2693
24.541
26.2457
24.217
25.9208
15.6242
14.2602
15.5209
14.1572
26.7877
25.0833
26.5326
24.8274
12.0582
10.9046
11.951
10.7947
22.0303
20.4757
21.7775
20.2224
10.4016
10.4016
10.2905
10.2905
19.806
19.8059
19.552
19.5519
10.9046
12.0582
10.7947
11.951
20.4753
22.0296
20.2219
21.7768
14.2604
15.6244
14.1573
15.5211
25.0823
26.7864
24.8262
26.5312
15.7894
14.4256
15.7116
14.3479
27.2094
25.5073
27.01
25.3069
12.2339
11.0862
12.1518
11.0014
22.4528
20.9013
22.2538
20.7008
10.586
10.586
10.4998
10.4998
20.2335
20.2333
20.0321
20.0319
11.0863
12.2339
11.0014
12.1519
20.9009
22.4522
20.7004
22.2532
14.4257
15.7898
14.3481
15.7118
25.5063
27.208
25.306
27.0088
15.9105
14.5467
15.8539
14.4902
27.5332
25.8332
27.3817
25.68
12.3656
11.2242
12.3046
11.1603
22.7808
21.2336
22.6272
21.0779
10.7269
10.7269
10.6615
10.6615
20.5683
20.5682
20.4114
20.4112
11.2242
12.3656
11.1603
12.3046
21.2333
22.7802
21.0776
22.6266
14.5468
15.9104
14.4903
15.854
25.8323
27.5313
25.679
27.3797
15.9936
14.6302
15.9552
14.5918
27.7723
26.0751
27.6606
25.9623
12.4599
11.325
12.4169
11.2789
23.0274
21.4857
22.9131
21.3687
10.8307
10.8307
10.7832
10.7832
20.8235
20.8234
20.705
20.7049
11.325
12.46
11.279
12.417
21.4854
23.027
21.3684
22.9126
14.6304
15.9942
14.592
15.9556
26.0745
27.7721
25.9617
27.6604
16.0439
14.6807
16.0216
14.6584
27.9381
26.2431
27.863
26.1664
12.5217
11.3934
12.4945
11.363
23.2028
21.6676
23.1231
21.5847
10.9023
10.9023
10.8704
10.8704
21.0089
21.0089
20.9243
20.9242
11.3934
12.5218
11.363
12.4946
21.6673
23.2024
21.5844
23.1226
14.6808
16.0441
14.6585
16.0217
26.2422
27.9365
26.1655
27.8614
16.0646
14.7016
16.0569
14.6937
28.0369
26.3446
27.9944
26.3003
12.5543
11.433
12.5413
11.4166
23.3144
21.7867
23.2657
21.7344
10.9452
10.9452
10.9272
10.9272
21.1321
21.1321
21.0778
21.0777
11.433
12.5545
11.4167
12.5414
21.7865
23.3141
21.7342
23.2654
14.7019
16.0647
14.694
16.057
26.3442
28.0365
26.2997
27.9936
16.0568
14.6947
16.0632
14.7006
28.0739
26.3846
28.0618
26.3709
12.5602
11.4463
12.5604
11.4428
23.3678
21.8489
23.3477
21.8245
10.9622
10.9622
10.9569
10.9569
21.1988
21.1988
21.1721
21.1721
11.4464
12.5603
11.4429
12.5605
21.8488
23.3675
21.8243
23.3474
14.6949
16.057
14.7009
16.0631
26.3842
28.0733
26.3704
28.0609
16.0206
14.6599
16.0418
14.6804
28.0533
26.3664
28.0699
26.3819
12.5407
11.4355
12.5537
11.4439
23.3667
21.858
23.3733
21.8597
10.9553
10.9553
10.9615
10.9615
21.2129
21.2129
21.2122
21.2122
11.4356
12.5409
11.4439
12.5538
21.8579
23.3665
21.8596
23.3731
14.6603
16.0219
14.6808
16.0427
26.3664
28.054
26.3817
28.0703
15.9543
14.5983
15.989
14.6301
27.9728
26.2912
28.0185
26.333
12.4976
11.402
12.5215
11.4214
23.3145
21.819
23.3465
21.8449
10.9261
10.9261
10.9434
10.9434
21.1798
21.1798
21.2027
21.2027
11.4021
12.4978
11.4215
12.5217
21.8189
23.3143
21.8448
23.3463
14.5987
15.9554
14.6305
15.9901
26.2912
27.9736
26.333
28.0191
15.8791
14.5251
15.9173
14.5632
27.8526
26.177
27.9156
26.2382
12.4365
11.349
12.4693
11.3779
23.2186
21.7345
23.2716
21.782
10.8769
10.8769
10.9039
10.904
21.1005
21.1005
21.1454
21.1454
11.349
12.4366
11.378
12.4695
21.7344
23.2184
21.7819
23.2715
14.5253
15.8799
14.5636
15.9183
26.1768
27.8529
26.2382
27.9169
15.7775
14.4273
15.8302
14.4776
27.6844
26.0121
27.7738
26.0989
12.3551
11.2766
12.398
11.3152
23.0779
21.6069
23.1533
21.6758
10.8085
10.8085
10.8451
10.8451
20.9783
20.9783
21.0446
21.0446
11.2766
12.3549
11.3152
12.398
21.6067
23.0775
21.6757
23.1531
14.427
15.7771
14.4777
15.8303
26.0111
27.6821
26.0983
27.7722
15.6579
14.3113
15.719
14.3711
27.469
25.8034
27.581
25.9121
12.2551
11.1858
12.3073
11.2335
22.8944
21.4372
22.9911
21.5271
10.7217
10.7216
10.7674
10.7674
20.8142
20.8141
20.9013
20.9012
11.1855
12.2545
11.2334
12.3069
21.4369
22.8935
21.5268
22.9904
14.31
15.6563
14.3702
15.7181
25.8007
27.4661
25.9101
27.5786
15.5123
14.1724
15.5871
14.2431
27.2073
25.5476
27.3432
25.68
12.1358
11.0765
12.1977
11.1334
22.6681
21.2263
22.7863
21.3368
10.6166
10.6166
10.6714
10.6714
20.6086
20.6086
20.7165
20.7164
11.0764
12.1355
11.1332
12.1971
21.2262
22.6677
21.3365
22.7855
14.1716
15.511
14.2416
15.5849
25.5463
27.2059
25.6774
27.3406
15.3477
14.015
15.4313
14.0954
26.8962
25.2446
27.0563
25.4003
11.9976
10.9491
12.0689
11.015
22.3992
20.974
22.5386
21.1052
10.4939
10.494
10.5574
10.5574
20.3628
20.3629
20.4903
20.4903
10.9493
11.9979
11.0151
12.069
20.9741
22.3995
21.1052
22.5386
14.0157
15.3481
14.0956
15.431
25.2452
26.8962
25.4002
27.0553
15.1564
13.835
15.2535
13.9257
26.5394
24.8977
26.7219
25.0751
11.8408
10.8039
11.9213
10.8787
22.0882
20.6803
22.2486
20.8322
10.3539
10.354
10.4261
10.4262
20.0771
20.0772
20.225
20.225
10.8043
11.8417
10.879
11.9219
20.6806
22.0888
20.8323
22.249
13.8368
15.1597
13.9275
15.2558
24.8991
26.5418
25.0763
26.7242
14.9504
13.64
15.0548
13.7395
26.1372
24.504
26.3435
24.7056
11.6657
10.6407
11.7556
10.7246
21.7345
20.3455
21.9163
20.5179
10.1962
10.1963
10.2773
10.2774
19.7507
19.7508
19.9189
19.919
10.6413
11.6668
10.725
11.7564
20.3459
21.7357
20.5183
21.9173
13.6416
14.9513
13.7396
15.0555
24.5071
26.14
24.7076
26.3452
14.7174
13.4232
14.8342
13.5316
25.6839
24.0645
25.9147
24.2884
11.4719
10.4597
11.5708
10.5525
21.3387
19.9698
21.5415
20.1627
10.021
10.0211
10.1108
10.111
19.384
19.384
19.5723
19.5724
10.4603
11.4735
10.553
11.5723
19.9702
21.34
20.1631
21.5428
13.4271
14.7238
13.5364
14.8401
24.0687
25.6888
24.292
25.9198
14.47
13.1895
14.5966
13.3091
25.19
23.5819
25.4417
23.828
11.2601
10.261
11.3684
10.3627
20.9014
19.5533
21.1251
19.7666
9.82824
9.82833
9.92686
9.92697
18.9768
18.9768
19.1853
19.1854
10.2614
11.2614
10.3632
11.3699
19.5536
20.9025
19.7669
21.1263
13.1921
14.4738
13.312
14.6015
23.586
25.1956
23.8325
25.4475
14.1946
12.9321
14.3347
13.0628
24.6452
23.0509
24.9221
23.3208
11.029
10.0442
11.1468
10.1549
20.4212
19.0958
20.6665
19.3296
9.61785
9.61788
9.72528
9.72534
18.5292
18.5292
18.7579
18.758
10.0444
11.0298
10.1552
11.1478
19.0958
20.4214
19.3297
20.667
12.9351
14.1984
13.0652
14.3374
23.0524
24.648
23.3236
24.9261
13.8959
12.6557
14.0465
12.7948
24.0551
22.4759
24.3551
22.7674
10.7798
9.80952
10.9066
9.92909
19.8983
18.5976
20.1646
18.8516
9.38993
9.38994
9.50611
9.50613
18.0418
18.0417
18.2904
18.2904
9.80956
10.7801
9.92918
10.9071
18.5975
19.8982
18.8516
20.1646
12.6567
13.8976
12.7969
14.0496
22.4761
24.0553
22.7683
24.356
13.5763
12.3607
13.7379
12.5098
23.4154
21.8555
23.7402
22.1697
10.5119
9.55694
10.6481
9.68548
19.3343
18.0593
19.6211
18.3333
9.14446
9.14445
9.26942
9.26943
17.5147
17.5147
17.7831
17.783
9.55691
10.5118
9.68549
10.6482
18.0592
19.334
18.3332
19.6208
12.3608
13.5766
12.5103
13.7387
21.8547
23.4146
22.1693
23.7399
13.2296
12.042
13.4057
12.2036
22.7261
21.1875
23.0764
21.5266
10.2242
9.28608
10.3705
9.42384
18.7285
17.4811
19.0364
17.7751
8.88129
8.88129
9.01512
9.01512
16.9485
16.9484
17.2364
17.2363
9.28608
10.2241
9.42382
10.3704
17.481
18.7282
17.775
19.0361
12.042
13.2297
12.2035
13.4057
21.187
22.7254
21.5259
23.0755
12.8554
11.6998
13.0448
11.8728
21.9864
20.4715
22.3614
20.8341
9.91639
8.9969
10.0726
9.14376
18.0809
16.8636
18.4095
17.1771
8.60047
8.60048
8.74309
8.74309
16.3438
16.3438
16.6508
16.6507
8.99692
9.91643
9.14377
10.0726
16.8635
18.0807
17.177
18.4093
11.6999
12.8556
11.8728
13.0449
20.4712
21.986
20.8337
22.3609
12.4578
11.3371
12.6585
11.52
21.2014
19.7123
21.5984
20.096
9.58996
8.69011
9.75534
8.84567
17.3941
16.2085
17.742
16.5405
8.3025
8.30251
8.45363
8.45363
15.7022
15.7021
16.0274
16.0274
8.69013
9.59002
8.84569
9.75539
16.2084
17.3939
16.5404
17.7418
11.3373
12.4581
11.5202
12.6587
19.7121
21.201
20.0957
21.598
12.0398
10.9559
12.2504
11.1479
20.3759
18.9149
20.7927
19.3173
9.24606
8.36642
9.42005
8.53035
16.6708
15.5177
17.0367
15.8673
7.9879
7.98791
8.14728
8.14728
15.0252
15.0251
15.3679
15.3679
8.36644
9.24612
8.53037
9.42011
15.5176
16.6706
15.8672
17.0365
10.956
12.04
11.148
12.2506
18.9146
20.3755
19.317
20.7923
11.6035
10.5577
11.823
10.758
19.5126
18.081
19.9481
18.5014
8.88549
8.02628
9.06775
8.19841
15.9125
14.7926
16.2957
15.1593
7.65695
7.65696
7.82449
7.8245
14.314
14.314
14.6737
14.6737
8.0263
8.88554
8.19843
9.06781
14.7925
15.9124
15.1592
16.2955
10.5578
11.6038
10.7582
11.8232
18.0807
19.5122
18.5012
19.9477
11.1505
10.1432
11.3782
10.3517
18.6134
17.2124
19.0667
17.65
8.50842
7.66963
8.69895
7.85005
15.1205
14.0341
15.5205
14.4174
7.30949
7.3095
7.48534
7.48535
13.5695
13.5695
13.9459
13.9458
7.66965
8.50847
7.85008
8.699
14.0339
15.1203
14.4173
15.5203
10.1433
11.1507
10.3518
11.3784
17.2121
18.613
17.6497
19.0663
10.6811
9.71224
10.9171
9.92905
17.6784
16.3099
18.1498
16.7645
8.11422
7.29563
8.31348
7.48491
14.2948
13.2418
14.7117
13.6421
6.94465
6.94465
7.12936
7.12937
12.7913
12.7912
13.1846
13.1846
7.29565
8.11426
7.48492
8.31353
13.2417
14.2946
13.642
14.7115
9.71235
10.6813
9.92917
10.9172
16.3097
17.6781
16.7642
18.1494
10.194
9.26276
10.4392
9.4893
16.7046
15.3728
17.1961
15.845
7.70047
6.90205
7.90997
7.10152
13.4333
12.4138
13.8686
12.8325
6.56032
6.56032
6.75513
6.75513
11.9773
11.9772
12.3889
12.3888
6.90206
7.70051
7.10153
7.91001
12.4137
13.4331
12.8323
13.8684
9.26286
10.1942
9.48941
10.4394
15.3725
16.7043
15.8447
17.1957
9.68377
8.78782
9.94162
9.02855
15.6842
14.3964
16.2003
14.8893
7.26065
6.48394
7.48446
6.69652
12.5291
11.5441
12.9872
11.9847
6.15273
6.15273
6.35974
6.35975
11.123
11.1229
11.5555
11.5554
6.48396
7.26069
6.69654
7.48449
11.544
12.5289
11.9846
12.987
8.78792
9.68394
9.02865
9.94178
14.3961
15.6838
14.889
16.1999
9.13828
8.26049
9.41563
8.53367
14.6097
13.3597
15.1527
13.8883
6.77574
6.03181
7.02592
6.26291
11.5592
10.6201
12.0549
11.0899
5.71737
5.71738
5.93869
5.9387
10.2224
10.2223
10.6786
10.6785
6.03183
6.77577
6.26292
7.02595
10.62
11.559
11.0898
12.0548
8.26058
9.13844
8.53377
9.41578
13.3594
14.6093
13.888
15.1524
8.5581
7.52539
8.85056
7.94411
13.4557
12.0519
14.0553
12.7765
6.19346
5.53671
6.50158
5.7893
10.4531
9.62955
11.0297
10.1325
5.25818
5.25818
5.48955
5.48955
9.28185
9.28182
9.75518
9.75515
5.53672
6.19349
5.78931
6.50162
9.62946
10.4529
10.1324
11.0296
7.52548
8.55828
7.9442
8.85072
12.0517
13.4554
12.7762
14.055
9.37254
8.53469
8.39083
7.68095
9.54689
8.59464
8.20186
7.46864
7.15163
6.30556
6.33198
5.52554
6.96562
6.02152
5.9394
5.06961
5.9074
5.90749
5.15225
5.1523
5.59155
5.59154
4.67923
4.6792
6.30586
7.15227
5.52572
6.33241
6.02153
6.96575
5.06953
5.93938
8.53589
9.37426
7.68188
8.39212
8.59515
9.54771
7.46891
8.20227
10.617
9.73863
10.0941
9.22437
11.1103
10.0635
10.473
9.45081
8.31387
7.43622
7.80664
6.93679
8.3342
7.32711
7.74795
6.75974
7.02055
7.02068
6.52592
6.52603
6.86612
6.86615
6.30845
6.30846
7.43665
8.3147
6.93716
7.80738
7.32723
8.33451
6.7598
7.74818
9.74007
10.619
9.22571
10.0959
10.0642
11.1114
9.45145
10.4739
11.3056
10.4316
11.0059
10.1281
11.9331
10.8763
11.5749
10.5202
9.02246
8.15048
8.70905
7.83237
9.14233
8.12888
8.78471
7.77162
7.73621
7.73635
7.41637
7.4165
7.66375
7.6638
7.3071
7.30714
8.15095
9.02334
7.83282
8.7099
8.12907
9.14274
7.77177
8.78507
10.4331
11.3077
10.1296
11.0078
10.8771
11.9343
10.521
11.576
11.7263
10.8643
11.5385
10.6704
12.4456
11.3925
12.2147
11.1592
9.48208
8.62444
9.27499
8.41001
9.67387
8.66745
9.43266
8.42223
8.21626
8.21641
7.99862
7.99877
8.20488
8.20494
7.95807
7.95813
8.62491
9.48296
8.41048
9.27587
8.66766
9.67432
8.42243
9.43309
10.8658
11.7283
10.6718
11.5404
11.3934
12.4468
11.1601
12.2158
12.0025
11.1532
11.8771
11.0217
12.7957
11.7491
12.6349
11.5851
9.79822
8.95594
9.65397
8.80425
10.0499
9.05351
9.8768
8.87544
8.5546
8.55474
8.39954
8.39969
8.59513
8.5952
8.41493
8.415
8.95641
9.79907
8.80472
9.65483
9.05374
10.0504
8.87566
9.87725
11.1546
12.0044
11.0231
11.8789
11.75
12.7969
11.586
12.636
12.191
11.3533
12.1046
11.2615
13.0463
12.0064
12.93
11.887
10.0236
9.19587
9.92009
9.0854
10.3267
9.34075
10.1983
9.20735
8.80108
8.80123
8.68744
8.68758
8.8869
8.88697
8.75128
8.75135
9.19632
10.0244
9.08586
9.92092
9.341
10.3272
9.20759
10.1988
11.3546
12.1928
11.2628
12.1064
12.0073
13.0475
11.8878
12.9311
12.3209
11.4935
12.2613
11.4291
13.2288
12.1953
13.1438
12.1073
10.1867
9.37229
10.1117
9.29097
10.5341
9.55833
10.4377
9.45707
8.98358
8.98372
8.89933
8.89946
9.10898
9.10905
9.00552
9.0056
9.37271
10.1875
9.2914
10.1125
9.55857
10.5345
9.45731
10.4381
11.4947
12.3226
11.4303
12.2629
12.1961
13.2299
12.1081
13.1448
12.4084
11.59
12.3684
11.5458
13.3609
12.3332
13.2993
12.269
10.3039
9.5017
10.2503
9.44226
10.6894
9.72344
10.6173
9.64671
9.1186
9.11872
9.05645
9.05658
9.27843
9.27851
9.1996
9.19967
9.5021
10.3046
9.44267
10.251
9.72366
10.6898
9.64694
10.6178
11.5911
12.4099
11.547
12.3699
12.334
13.3619
12.2697
13.3003
12.4633
11.6529
12.4385
11.6244
13.4536
12.4312
13.4105
12.3858
10.3857
9.59461
10.3487
9.55236
10.8039
9.84715
10.7511
9.78999
9.21668
9.21679
9.17193
9.17205
9.40634
9.4064
9.34715
9.34722
9.59498
10.3863
9.55274
10.3494
9.84737
10.8043
9.79021
10.7515
11.6539
12.4647
11.6255
12.44
12.4319
13.4545
12.3865
13.4114
12.4922
11.6886
12.4798
11.6731
13.5144
12.4967
13.4866
12.4668
10.4388
9.65802
10.4154
9.62979
10.8848
9.93701
10.848
9.896
9.28488
9.28499
9.25434
9.25445
9.50022
9.50028
9.45726
9.45732
9.65836
10.4394
9.63014
10.4161
9.93721
10.8852
9.89621
10.8484
11.6896
12.4934
11.6741
12.4811
12.4973
13.5152
12.4674
13.4874
12.4993
11.7019
12.4974
11.6972
13.5484
12.5348
13.5334
12.5181
10.468
9.69681
10.4561
9.68037
10.9377
9.99833
10.9144
9.97102
9.32815
9.32825
9.30954
9.30965
9.56543
9.56549
9.53623
9.53629
9.69714
10.4686
9.6807
10.4567
9.99854
10.9381
9.97122
10.9148
11.7028
12.5005
11.6981
12.4986
12.5355
13.5493
12.5187
13.5342
12.4876
11.6955
12.4949
11.7004
13.5589
12.5491
13.5554
12.5439
10.4766
9.71441
10.4746
9.7082
10.9661
10.035
10.9546
10.0196
9.34998
9.35008
9.34171
9.34182
9.60586
9.60592
9.58863
9.5887
9.71473
10.4771
9.70852
10.4752
10.0352
10.9665
10.0198
10.955
11.6964
12.4888
11.7012
12.4961
12.5497
13.5597
12.5445
13.5562
12.4589
11.6718
12.4745
11.6851
13.5483
12.5419
13.5552
12.5472
10.4669
9.71336
10.4739
9.71618
10.9727
10.0497
10.9719
10.045
9.35294
9.35304
9.35383
9.35393
9.62435
9.62442
9.61778
9.61785
9.71366
10.4675
9.71649
10.4744
10.0499
10.9731
10.0452
10.9723
11.6726
12.4601
11.6859
12.4756
12.5425
13.5492
12.5479
13.556
12.4142
11.6316
12.4377
11.653
13.5177
12.5147
13.5345
12.53
10.4405
9.69532
10.4557
9.70649
10.9594
10.0446
10.9684
10.0496
9.33888
9.33898
9.34812
9.34821
9.62302
9.62308
9.6261
9.62616
9.6956
10.441
9.70677
10.4562
10.0448
10.9598
10.0497
10.9688
11.6324
12.4152
11.6539
12.4388
12.5153
13.5185
12.5306
13.5353
12.3536
11.5756
12.3853
11.605
13.4666
12.4669
13.4943
12.493
10.3982
9.66148
10.4213
9.6804
10.9268
10.0208
10.9455
10.035
9.30904
9.30912
9.32598
9.32606
9.60327
9.60333
9.61544
9.6155
9.66174
10.3987
9.68067
10.4218
10.021
10.9272
10.0352
10.9458
11.5765
12.3547
11.6057
12.3861
12.4675
13.4674
12.4935
13.4951
12.2781
11.5048
12.3165
11.5412
13.3945
12.4005
13.4306
12.4341
10.3413
9.6131
10.3714
9.63908
10.8765
9.97987
10.9034
10.0023
9.26471
9.26479
9.2887
9.28878
9.56661
9.56666
9.587
9.58705
9.61335
10.3417
9.63934
10.3719
9.98004
10.8769
10.0025
10.9037
11.5053
12.2789
11.542
12.3178
12.401
13.3953
12.4347
13.4314
12.189
11.4209
12.2342
11.4634
13.3122
12.3219
13.3542
12.362
10.2716
9.55173
10.3078
9.58404
10.8124
9.9241
10.8461
9.95382
9.20725
9.20732
9.23766
9.23774
9.51478
9.51482
9.54259
9.54264
9.55195
10.272
9.58428
10.3083
9.92423
10.8126
9.95398
10.8464
11.4221
12.1905
11.4641
12.2348
12.3224
13.3129
12.3625
13.3549
12.0909
11.3273
12.1403
11.3748
13.216
12.23
13.2646
12.2768
10.1901
9.47812
10.2323
9.51652
10.7338
9.85395
10.7748
9.89083
9.13743
9.13748
9.17396
9.17403
9.44855
9.44857
9.4835
9.48353
9.47829
10.1904
9.51672
10.2326
9.854
10.7339
9.89093
10.775
11.3272
12.091
11.3754
12.1416
12.2302
13.2163
12.2772
13.2651
11.9793
11.2206
12.0362
11.2748
13.1041
12.1228
13.1614
12.1774
10.0965
9.39246
10.1447
9.43686
10.6412
9.76975
10.6892
9.81363
9.05554
9.05559
9.09807
9.09812
9.3683
9.3683
9.41022
9.41022
9.39259
10.0967
9.437
10.145
9.76972
10.6411
9.81363
10.6891
11.2215
11.9803
11.2752
12.0361
12.1226
13.1038
12.1774
13.1613
11.8563
11.1031
11.9182
11.1627
12.9775
12.0021
13.0414
12.0634
9.99105
9.29495
10.0452
9.34525
10.5343
9.67165
10.5894
9.72246
8.96187
8.96193
9.01027
9.01032
9.27432
9.27435
9.32307
9.32308
9.29513
9.99134
9.3454
10.0455
9.67171
10.5344
9.72245
10.5893
11.103
11.8563
11.1631
11.9194
12.0021
12.9775
12.0632
13.0411
11.719
10.9722
11.7888
11.0386
12.8335
11.8649
12.9069
11.9345
9.87362
9.1857
9.93379
9.24186
10.4132
9.55982
10.4754
9.61747
8.85655
8.85664
8.91075
8.91083
9.16684
9.16691
9.22231
9.22236
9.18596
9.87412
9.24209
9.93418
9.56005
10.4136
9.61762
10.4757
10.9735
11.7205
11.0391
11.789
11.8656
12.8343
11.9349
12.9073
11.5696
10.8301
11.6449
10.902
12.6743
11.7145
12.7544
11.7906
9.74427
9.06471
9.81041
9.12674
10.2781
9.43437
10.3473
9.49883
8.73962
8.73972
8.79963
8.79973
9.04593
9.04603
9.10812
9.10821
9.06504
9.74483
9.12704
9.81095
9.43472
10.2788
9.49912
10.3478
10.8304
11.5703
10.9029
11.6466
11.7156
12.6759
11.7916
12.7557
11.4053
10.6742
11.4888
10.7531
12.4987
11.5482
12.5882
11.6326
9.60275
8.93192
9.675
8.99986
10.1288
9.29522
10.2052
9.36654
8.61104
8.61115
8.67687
8.67698
8.91155
8.91168
8.98047
8.98059
8.93229
9.60345
9.00022
9.67564
9.29567
10.1297
9.36695
10.206
10.6758
11.4072
10.7541
11.4894
11.5496
12.5004
11.6338
12.5895
11.2281
10.5068
11.3174
10.5915
12.3065
11.368
12.4031
11.459
9.44917
8.78734
9.52744
8.86118
9.96544
9.14241
10.0488
9.22054
8.4708
8.47091
8.54246
8.54258
8.76371
8.76384
8.83936
8.83949
8.7877
9.44983
8.86155
9.52814
9.14285
9.96643
9.221
10.0497
10.5075
11.2292
10.5927
11.3195
11.3698
12.3092
11.4607
12.4056
11.0362
10.3259
11.1336
10.4175
12.0985
11.1724
12.2044
11.2716
9.28339
8.63091
9.36781
8.71069
9.78803
8.97593
9.87849
9.06093
8.31886
8.31895
8.39638
8.39648
8.6024
8.60249
8.6848
8.68491
8.6312
9.28398
8.71102
9.36845
8.97628
9.78885
9.06134
9.87943
10.3273
11.0378
10.4185
11.1344
11.174
12.1006
11.2734
12.2068
10.8299
10.1326
10.9339
10.2302
11.8716
10.9614
11.9861
11.0679
9.10526
8.46253
9.19582
8.54827
9.59604
8.79561
9.69372
8.88752
8.15519
8.15525
8.23857
8.23865
8.42754
8.42759
8.5167
8.51677
8.46275
9.10565
8.54852
9.19632
8.7958
9.59652
8.88778
9.69437
10.1329
10.8307
10.2312
10.9357
10.9625
11.8733
11.0693
11.9879
10.6096
9.92641
10.721
10.0305
11.6285
10.7354
11.7516
10.8497
8.91505
8.28232
9.01164
8.37397
9.39009
8.60161
9.49477
8.70035
7.97982
7.97987
8.06905
8.06911
8.23921
8.23924
8.3351
8.33514
8.28249
8.91539
8.37417
9.012
8.60172
9.39035
8.7005
9.49513
9.92716
10.6105
10.0309
10.7213
10.736
11.6294
10.8506
11.7529
10.3758
9.70794
10.4936
9.81819
11.3685
10.4952
11.4991
10.616
8.71256
8.09015
8.81534
8.1878
9.16991
8.39383
9.28166
8.49948
7.79266
7.79271
7.8878
7.88785
8.03733
8.03736
8.14001
8.14004
8.0903
8.71284
8.18797
8.81564
8.39391
9.17003
8.49956
9.28184
9.7084
10.3766
9.81883
10.4946
10.4955
11.3689
10.6164
11.4997
10.1264
9.47523
10.2526
9.59285
11.0912
10.2388
11.2317
10.3685
8.49723
7.88581
8.6065
7.98956
8.93483
8.17196
9.05424
8.28471
7.59365
7.5937
7.69471
7.69476
7.82175
7.82178
7.93131
7.93133
7.88596
8.49752
7.98972
8.60678
8.17204
8.93498
8.28478
9.05437
9.47569
10.1271
9.5933
10.2532
10.239
11.0916
10.3688
11.232
9.86131
9.22873
9.99507
9.35309
10.7931
9.96446
10.9438
10.103
8.26921
7.66942
8.38475
7.77915
8.68437
7.93591
8.8114
8.0557
7.38288
7.38294
7.48978
7.48983
7.5925
7.59253
7.70885
7.70888
7.66959
8.26951
7.77931
8.38504
7.93601
8.68455
8.0558
8.81157
9.22921
9.862
9.35357
9.99573
9.96479
10.7936
10.1033
10.9442
9.58291
8.97002
9.72303
9.10029
10.4775
9.67482
10.6365
9.82074
8.02939
7.44156
8.1507
7.55695
8.41966
7.68629
8.55365
7.81278
7.16079
7.16084
7.27329
7.27334
7.34998
7.35001
7.4729
7.47293
7.44172
8.02969
7.55711
8.151
7.68639
8.41985
7.81288
8.55385
8.9705
9.58361
9.10078
9.72371
9.67517
10.478
9.82108
10.6369
9.29314
8.70058
9.43877
8.83607
10.1474
9.37162
10.3133
9.52414
7.77871
7.20279
7.90535
7.32356
8.14178
7.42376
8.28225
7.55663
6.9278
6.92785
7.0457
7.04575
7.09468
7.09471
7.22394
7.22397
7.20295
7.77901
7.32372
7.90565
7.42386
8.14198
7.55673
8.28244
8.70106
9.29383
8.83655
9.43945
9.37197
10.1479
9.52449
10.3138
8.99364
8.42149
9.14396
8.56171
9.80467
9.05631
9.97677
9.21477
7.51781
6.95351
7.6495
7.07951
7.8515
7.14872
7.99811
7.28782
6.68418
6.68423
6.80738
6.80743
6.82684
6.82687
6.96236
6.96239
6.95367
7.5181
7.07967
7.6498
7.14882
7.85168
7.28792
7.9983
8.42196
8.99431
8.56219
9.14462
9.05665
9.80517
9.21512
9.97725
8.68561
8.13345
8.8401
8.2781
9.45062
8.72953
9.6283
8.8937
7.24693
6.6937
7.38362
6.825
7.54899
6.8611
7.70173
7.00653
6.4298
6.42985
6.55843
6.55848
6.5463
6.54632
6.68822
6.68825
6.69386
7.24721
6.82515
7.3839
6.8612
7.54917
7.00663
7.70191
8.13391
8.68626
8.27856
8.84074
8.72985
9.45109
8.89403
9.62876
8.36949
7.83645
8.52804
7.98565
9.08565
8.39112
9.26883
8.56121
6.96562
6.42269
7.10765
6.55973
7.23364
6.5601
7.39296
6.71239
6.1639
6.16395
6.29843
6.29848
6.25216
6.25218
6.40105
6.40108
6.42284
6.96589
6.55988
7.10792
6.56019
7.23381
6.71248
7.39313
7.8369
8.37013
7.98611
8.52867
8.39143
9.08611
8.56153
9.26927
8.0443
7.52898
8.20765
7.68375
8.70834
8.03904
8.89806
8.21641
6.67201
6.13864
6.82054
6.28252
6.90316
6.24351
7.07048
6.40398
5.88475
5.88479
6.02619
6.02624
5.94239
5.94241
6.09943
6.09946
6.13878
6.67227
6.28267
6.82081
6.2436
6.90333
6.40407
7.07066
7.52941
8.04491
7.68419
8.20825
8.03934
8.70878
8.21672
8.89848
7.70675
7.20619
7.87686
7.3696
8.31364
7.66671
8.51302
7.85556
6.3612
5.83775
6.51926
5.99068
6.55138
5.90667
6.73054
6.07806
5.58942
5.58947
5.73936
5.73941
5.61341
5.61344
5.78059
5.78062
5.83789
6.36145
5.99082
6.51951
5.90675
6.55154
6.07815
6.73071
7.20661
7.70734
7.37002
7.87744
7.66699
8.31406
7.85586
8.51343
7.35391
6.85174
7.53143
7.03457
7.89256
7.25113
8.1061
7.46668
6.02031
5.51374
6.19587
5.67911
6.1614
5.54114
6.36295
5.72814
5.27536
5.2754
5.43478
5.43482
5.26144
5.26147
5.4404
5.44042
5.51387
6.02055
5.67924
6.19612
5.54122
6.16155
5.72822
6.36311
6.85214
7.35448
7.03498
7.53199
7.2514
7.89297
7.46697
8.1065
7.01069
6.37832
7.17806
6.64397
7.4592
6.6744
7.67473
7.00151
5.61947
5.16476
5.82972
5.34158
5.69181
5.1414
5.93996
5.3449
4.94963
4.94966
5.1126
5.11264
4.89198
4.892
5.07759
5.07762
5.16488
5.61969
5.34171
5.82996
5.14147
5.69195
5.34497
5.94011
6.3787
7.01125
6.64436
7.17861
6.67466
7.45961
7.00178
7.67512
9.37632
8.70274
8.68591
8.08237
9.34719
8.60215
8.54934
7.89445
7.63181
6.94655
6.99959
6.32045
7.39799
6.63965
6.69338
5.95341
6.61411
6.61434
5.99584
5.99602
6.27582
6.27598
5.60407
5.60419
6.94728
7.63311
6.32104
7.00067
6.64018
7.39899
5.95381
6.69416
8.70474
9.37888
8.08411
8.6881
8.60381
9.34935
7.89582
8.55106
10.3
9.62476
9.90099
9.22201
10.3972
9.63734
9.94806
9.18865
8.56158
7.87812
8.14895
7.46123
8.42354
7.65442
7.97096
7.20214
7.54484
7.54511
7.12659
7.12684
7.28317
7.28338
6.83197
6.83215
7.87896
8.56304
7.46202
8.15034
7.65507
8.42473
7.20274
7.97205
9.62694
10.3027
9.22412
9.90363
9.63921
10.3996
9.19043
9.95029
10.8414
10.182
10.6046
9.93689
10.9993
10.2512
10.7365
9.98174
9.15096
8.48546
8.88938
8.21424
9.064
8.30831
8.78018
8.01663
8.16003
8.16031
7.88446
7.88473
7.94241
7.94263
7.64738
7.64759
8.4863
9.15241
8.21508
8.89083
8.30898
9.0652
8.0173
8.78137
10.1841
10.8441
9.93904
10.6073
10.2531
11.0017
9.98359
10.7389
11.1685
10.5269
11.024
10.3737
11.3642
10.6322
11.2022
10.4623
9.53044
8.88561
9.36074
8.70578
9.47725
8.74009
9.29183
8.54546
8.56976
8.57002
8.38518
8.38545
8.38252
8.38274
8.18368
8.1839
8.88642
9.53183
8.7066
9.36215
8.74075
9.47842
8.54612
9.293
10.5289
11.171
10.3758
11.0265
10.634
11.3665
10.4641
11.2045
11.3713
10.7463
11.2811
10.6482
11.5964
10.8798
11.492
10.7681
9.78163
9.1562
9.66858
9.03385
9.75547
9.03645
9.62941
8.90165
8.84949
8.84974
8.72272
8.72298
8.68724
8.68745
8.54837
8.54858
9.15696
9.78292
9.03463
9.66991
9.03708
9.75658
8.90229
9.63053
10.7482
11.3737
10.6501
11.2835
10.8815
11.5985
10.7698
11.4941
11.4977
10.8872
11.4414
10.8241
11.7476
11.0447
11.6792
10.9699
9.95065
9.34259
9.87443
9.2581
9.94799
9.24549
9.86032
9.14995
9.04412
9.04435
8.95568
8.95592
8.90398
8.90417
8.80473
8.80493
9.3433
9.95186
9.25883
9.87567
9.24608
9.94903
9.15056
9.86138
10.889
11.4999
10.8259
11.4436
11.0463
11.7496
10.9715
11.6811
11.5736
10.9758
11.5402
10.9364
11.8453
11.1544
11.8012
11.1047
10.064
9.47129
10.0131
9.41314
10.0822
9.39448
10.0211
9.32642
9.18014
9.18036
9.11848
9.1187
9.05992
9.0601
8.98851
8.9887
9.47194
10.0651
9.41382
10.0143
9.39504
10.0831
9.32699
10.0221
10.9774
11.5756
10.9381
11.5423
11.1559
11.8472
11.1062
11.8031
11.6142
11.0272
11.597
11.0049
11.905
11.2245
11.8784
11.1931
10.1373
9.55822
10.1049
9.51939
10.174
9.49963
10.1326
9.4519
9.2736
9.2738
9.23164
9.23185
9.17133
9.1715
9.12059
9.12076
9.55882
10.1383
9.52001
10.106
9.50015
10.1749
9.45243
10.1335
11.0287
11.616
11.0065
11.5989
11.2258
11.9067
11.1945
11.8801
11.6284
11.0508
11.6235
11.0415
11.936
11.2645
11.9228
11.2471
10.1803
9.61348
10.1621
9.58947
10.2336
9.57117
10.2073
9.53922
9.3347
9.33488
9.30789
9.30808
9.24852
9.24868
9.21385
9.21401
9.61403
10.1813
9.59005
10.1631
9.57165
10.2344
9.53971
10.2081
11.0522
11.6301
11.0429
11.6252
11.2657
11.9375
11.2484
11.9244
11.622
11.0527
11.6269
11.0537
11.9442
11.2806
11.9419
11.2746
10.1996
9.64366
10.1926
9.63152
10.2673
9.61584
10.2533
9.59663
9.37014
9.37031
9.35546
9.35564
9.29835
9.29849
9.27665
9.2768
9.64417
10.2004
9.63205
10.1935
9.61628
10.2681
9.59708
10.2541
11.0539
11.6236
11.055
11.6285
11.2817
11.9456
11.2758
11.9433
11.599
11.0367
11.6118
11.0462
11.9338
11.2771
11.9404
11.2805
10.1993
9.65329
10.2017
9.65095
10.2799
9.63829
10.276
9.6297
9.38455
9.3847
9.3799
9.38006
9.32552
9.32566
9.31465
9.31479
9.65376
10.2001
9.65144
10.2025
9.6387
10.2806
9.63012
10.2767
11.0379
11.6004
11.0474
11.6133
11.2781
11.9352
11.2816
11.9418
11.5614
11.0054
11.5813
11.0224
11.9072
11.2565
11.9217
11.2682
10.1824
9.64551
10.1928
9.65153
10.2741
9.64174
10.2791
9.64231
9.38115
9.3813
9.38503
9.38519
9.33336
9.33349
9.33181
9.33194
9.64595
10.1832
9.65199
10.1936
9.64213
10.2748
9.64271
10.2797
11.0065
11.5628
11.0235
11.5827
11.2575
11.9084
11.2692
11.9229
11.5112
10.9608
11.5372
10.9842
11.8661
11.2209
11.8876
11.2399
10.151
9.62245
10.1684
9.63588
10.2523
9.62856
10.2651
9.63722
9.36216
9.36229
9.37361
9.37376
9.32431
9.32443
9.33095
9.33107
9.62286
10.1517
9.6363
10.1691
9.62893
10.2529
9.6376
10.2657
10.9618
11.5125
10.9852
11.5385
11.2218
11.8673
11.2409
11.8888
11.449
10.9037
11.481
10.9332
11.8115
11.1713
11.8398
11.1972
10.1063
9.58568
10.1302
9.6058
10.2158
9.60025
10.2358
9.61628
9.32922
9.32935
9.34747
9.34761
9.29994
9.30005
9.31405
9.31416
9.58607
10.107
9.6062
10.1309
9.60059
10.2164
9.61663
10.2364
10.9047
11.4503
10.9342
11.4822
11.1722
11.8127
11.1981
11.8409
11.3757
10.8351
11.4131
10.8703
11.744
11.1085
11.7787
11.1409
10.0495
9.53637
10.0793
9.56263
10.1656
9.55804
10.1923
9.58088
9.28356
9.28368
9.30804
9.30816
9.26157
9.26167
9.28253
9.28264
9.53673
10.0501
9.563
10.08
9.55836
10.1662
9.58121
10.1929
10.836
11.3769
10.8712
11.4143
11.1093
11.7451
11.1418