/*--------------------------------*- C++ -*----------------------------------*\
  =========                 |
  \\      /  F ield         | OpenFOAM: The Open Source CFD Toolbox
   \\    /   O peration     | Website:  https://openfoam.org
    \\  /    A nd           | Version:  9
     \\/     M anipulation  |
\*---------------------------------------------------------------------------*/
FoamFile
{
    format      ascii;
    class       volScalarField;
    location    "3.8";
    object      k;
}
// * * * * * * * * * * * * * * * * * * * * * * * * * * * * * * * * * * * * * //

dimensions      [0 2 -2 0 0 0 0];

internalField   nonuniform List<scalar> 
36360
(
1.56477
1.485
1.33883
1.30096
0.641977
0.617355
0.456821
0.510119
1.29728
1.19248
1.12131
1.02069
0.544124
0.502904
0.433007
0.38933
1.1456
1.14558
0.976163
0.976136
0.484807
0.484792
0.371464
0.37145
1.1924
1.29717
1.02062
1.12118
0.502863
0.544058
0.389289
0.432941
1.48486
1.56461
1.30081
1.33865
0.617268
0.641876
0.51003
0.456725
1.77569
1.68807
1.69182
1.6049
0.752395
0.713009
0.711792
0.67437
1.49695
1.39027
1.41331
1.30658
0.637055
0.595775
0.598857
0.557556
1.34235
1.34233
1.25877
1.25875
0.577479
0.577467
0.539303
0.53929
1.39021
1.49686
1.30651
1.41321
0.59574
0.636999
0.557518
0.598796
1.68795
1.77557
1.60477
1.69168
0.712935
0.75231
0.67429
0.711701
1.88933
1.80187
1.83877
1.75117
0.80613
0.765842
0.7822
0.742213
1.61318
1.50824
1.56126
1.45538
0.690449
0.64974
0.666529
0.625483
1.46104
1.46103
1.40775
1.40774
0.631675
0.631665
0.607273
0.607262
1.50819
1.61311
1.45533
1.56117
0.649712
0.690403
0.625451
0.666479
1.80178
1.88924
1.75107
1.83866
0.765781
0.806059
0.742147
0.782123
1.96568
1.87882
1.93071
1.84351
0.842608
0.802207
0.825859
0.785451
1.69263
1.58951
1.65617
1.55218
0.727447
0.687365
0.710398
0.670029
1.54325
1.54324
1.50547
1.50545
0.669622
0.669614
0.652127
0.652119
1.58947
1.69257
1.55214
1.6561
0.687341
0.72741
0.670003
0.710357
1.87875
1.9656
1.84344
1.93062
0.802157
0.842549
0.785395
0.825795
2.02117
1.93503
1.99536
1.90886
0.869398
0.829185
0.856917
0.816587
1.75108
1.64949
1.72389
1.62158
0.754993
0.715423
0.742143
0.702333
1.60406
1.60405
1.57576
1.57575
0.697966
0.697959
0.684741
0.684734
1.64946
1.75103
1.62155
1.72383
0.715404
0.754962
0.702312
0.742109
1.93498
2.0211
1.9088
1.99529
0.829143
0.869348
0.816541
0.856864
2.06312
1.97767
2.04344
1.95766
0.889843
0.849906
0.880244
0.840162
1.79569
1.6954
1.77479
1.6739
0.776208
0.737087
0.766246
0.726913
1.65064
1.65063
1.62882
1.62881
0.719869
0.719864
0.709581
0.709575
1.69538
1.79566
1.67387
1.77475
0.737072
0.776183
0.726896
0.766218
1.97763
2.06307
1.95762
2.04339
0.849871
0.889801
0.840124
0.8802
2.09543
2.01056
2.08022
1.99508
0.905728
0.866078
0.89825
0.85845
1.83035
1.73117
1.81407
1.71437
0.792832
0.754109
0.785004
0.746093
1.68696
1.68696
1.6699
1.66989
0.737102
0.737098
0.728986
0.728981
1.73116
1.83032
1.71435
1.81404
0.754097
0.792811
0.746079
0.784981
2.01053
2.09539
1.99504
2.08018
0.866049
0.905693
0.858418
0.898213
2.12038
2.03601
2.10862
2.02402
0.918102
0.878742
0.912272
0.872762
1.85738
1.75919
1.84468
1.74603
0.805921
0.767557
0.799754
0.761221
1.71546
1.71545
1.70207
1.70206
0.750732
0.750728
0.74431
0.744306
1.75918
1.85736
1.74601
1.84466
0.767546
0.805903
0.76121
0.799735
2.03599
2.12034
2.02399
2.10859
0.878718
0.918069
0.872736
0.91224
2.13949
2.05553
2.13049
2.04634
0.927693
0.888599
0.923169
0.883947
1.87832
1.78101
1.86851
1.77079
0.816177
0.778138
0.811355
0.773164
1.7377
1.73769
1.72727
1.72727
0.761478
0.761475
0.756425
0.756421
1.781
1.8783
1.77078
1.86849
0.778129
0.816162
0.773154
0.811339
2.05551
2.13948
2.04632
2.13046
0.888578
0.927671
0.883926
0.923139
2.15383
2.07014
2.14712
2.06331
0.935027
0.896138
0.931592
0.8926
1.89424
1.79772
1.88683
1.78994
0.82409
0.786349
0.82039
0.782509
1.75479
1.75478
1.74683
1.74682
0.769841
0.769838
0.765927
0.765924
1.79771
1.89422
1.78993
1.88681
0.786342
0.824077
0.782501
0.820376
2.07012
2.15379
2.06328
2.1471
0.896117
0.934981
0.892577
0.931559
2.1641
2.08062
2.15935
2.07577
0.940423
0.901712
0.937913
0.899116
1.90589
1.81011
1.90053
1.80441
0.830017
0.79255
0.827272
0.789676
1.76752
1.76751
1.76165
1.76165
0.776183
0.776181
0.773241
0.773239
1.8101
1.90588
1.8044
1.90052
0.792543
0.830006
0.789669
0.82726
2.0806
2.1641
2.07576
2.15933
0.901698
0.940416
0.899101
0.9379
2.17085
2.08747
2.1678
2.08438
0.944149
0.90557
0.942454
0.90381
1.91385
1.81874
1.91028
1.81486
0.834215
0.797005
0.832308
0.794976
1.77646
1.77646
1.77243
1.77243
0.780774
0.780772
0.77868
0.778677
1.81873
1.91384
1.81485
1.91027
0.796999
0.834204
0.79497
0.832296
2.08745
2.17083
2.08437
2.16778
0.905551
0.944116
0.90379
0.94242
2.17445
2.09109
2.17296
2.08958
0.946376
0.907896
0.945422
0.906882
1.91851
1.82405
1.91655
1.82178
0.836879
0.799916
0.835718
0.798638
1.78207
1.78207
1.77966
1.77966
0.783814
0.783813
0.782473
0.782472
1.82404
1.91851
1.82177
1.91654
0.799911
0.836872
0.798633
0.835709
2.09109
2.17441
2.08957
2.17292
0.907886
0.946348
0.906869
0.945396
2.17507
2.09171
2.17505
2.09169
0.9472
0.908808
0.946931
0.908496
1.92017
1.82634
1.91968
1.82555
0.838149
0.80143
0.837672
0.800836
1.78466
1.78466
1.78372
1.78372
0.785455
0.785453
0.784799
0.784797
1.82633
1.92016
1.82554
1.91968
0.801425
0.838141
0.800831
0.837664
2.09171
2.17505
2.09168
2.175
0.908797
0.947177
0.908483
0.946893
2.17288
2.08945
2.1743
2.09092
0.946713
0.908385
0.947099
0.908743
1.91902
1.82585
1.91993
1.82642
0.838116
0.801645
0.838277
0.80169
1.78448
1.78448
1.78489
1.78489
0.785796
0.785795
0.785782
0.785781
1.82585
1.91902
1.82641
1.91993
0.801642
0.838112
0.801687
0.838272
2.08946
2.17292
2.09092
2.17432
0.908384
0.946746
0.908738
0.947115
2.16768
2.08436
2.17048
2.08706
0.944905
0.906651
0.945927
0.907615
1.91521
1.82276
1.91738
1.82461
0.836862
0.800686
0.837629
0.801322
1.78172
1.78172
1.78341
1.78341
0.784974
0.784973
0.785542
0.785541
1.82276
1.91521
1.82461
1.91738
0.800683
0.836859
0.801319
0.837626
2.08437
2.16772
2.08707
2.17052
0.90665
0.944931
0.907614
0.945956
2.16106
2.07767
2.16451
2.08121
0.942196
0.90402
0.943625
0.905431
1.90924
1.81735
1.91248
1.82033
0.834561
0.798612
0.835833
0.799777
1.77658
1.77658
1.77944
1.77943
0.783008
0.783007
0.784121
0.78412
1.81734
1.90923
1.82033
1.91249
0.79861
0.834557
0.799775
0.83583
2.07768
2.16109
2.08122
2.16455
0.904016
0.942209
0.905431
0.943653
2.15179
2.0684
2.15664
2.07322
0.938382
0.900217
0.940405
0.902219
1.90093
1.80965
1.90534
1.81377
0.831183
0.79548
0.832995
0.797173
1.76917
1.76917
1.77316
1.77315
0.779979
0.779978
0.781623
0.781622
1.80964
1.90092
1.81377
1.90534
0.795475
0.831173
0.79717
0.832989
2.06838
2.15178
2.07321
2.15665
0.900195
0.938343
0.902207
0.940388
2.1405
2.05704
2.14633
2.06293
0.933515
0.895393
0.936043
0.897907
1.89045
1.79974
1.89595
1.80497
0.82677
0.791308
0.829098
0.793519
1.75955
1.75954
1.76463
1.76463
0.775902
0.7759
0.778068
0.778066
1.79972
1.89041
1.80495
1.89593
0.7913
0.826747
0.793512
0.829079
2.05697
2.14044
2.06289
2.14631
0.895333
0.933448
0.897863
0.935994
2.12654
2.04319
2.13375
2.05028
0.927574
0.88946
0.930669
0.892531
1.87772
1.78762
1.88434
1.79395
0.82131
0.786105
0.824162
0.788832
1.74772
1.74772
1.75391
1.7539
0.770782
0.770782
0.773471
0.773469
1.78761
1.87769
1.79394
1.8843
0.786103
0.8213
0.788826
0.824143
2.04314
2.12645
2.05019
2.13363
0.88943
0.927532
0.892474
0.930595
2.11053
2.02729
2.11872
2.03546
0.920496
0.882414
0.92414
0.886038
1.86274
1.77329
1.87049
1.78073
0.814799
0.779863
0.818177
0.783112
1.7337
1.7337
1.74099
1.74099
0.76464
0.764641
0.767829
0.76783
1.7733
1.86275
1.78073
1.87049
0.779866
0.814805
0.783113
0.818177
2.02733
2.11053
2.03547
2.11868
0.882426
0.920484
0.886036
0.92411
2.09167
2.00883
2.10131
2.0182
0.912327
0.874302
0.916509
0.878454
1.84553
1.75672
1.85438
1.76527
0.807237
0.772565
0.811142
0.776342
1.71743
1.71744
1.72584
1.72585
0.757469
0.75747
0.761184
0.761185
1.75674
1.84557
1.76529
1.85442
0.772571
0.807252
0.776347
0.811152
2.00895
2.09187
2.01832
2.10145
0.874336
0.912371
0.878483
0.916549
2.07102
1.98856
2.08153
1.99894
0.903076
0.865067
0.907824
0.869803
1.82608
1.7379
1.83608
1.74759
0.798596
0.764202
0.803045
0.768514
1.69893
1.69894
1.70846
1.70847
0.749237
0.749239
0.753484
0.753486
1.73793
1.82614
1.74762
1.83612
0.764213
0.798625
0.768523
0.803067
1.98862
2.07098
1.99888
2.08149
0.865135
0.903146
0.869843
0.907855
2.0475
1.96578
2.05938
1.97724
0.892617
0.854693
0.897947
0.859982
1.80433
1.71681
1.81546
1.72764
0.788871
0.754765
0.793862
0.759616
1.67816
1.67818
1.68883
1.68884
0.739931
0.739933
0.744717
0.744719
1.71685
1.80444
1.72768
1.81556
0.754774
0.788903
0.759626
0.793892
1.96604
2.04791
1.97759
2.05977
0.854791
0.892731
0.86007
0.898073
2.02202
1.94088
2.0351
1.95365
0.881137
0.84323
0.886999
0.849086
1.7803
1.69342
1.7926
1.7054
0.778056
0.744233
0.783596
0.749634
1.6551
1.6551
1.66692
1.66693
0.729531
0.729533
0.734867
0.734869
1.69346
1.7804
1.70545
1.79271
0.744239
0.778083
0.749643
0.783628
1.94103
2.02221
1.95382
2.03538
0.843323
0.881252
0.849189
0.887129
1.99351
1.91325
2.00807
1.92732
0.868392
0.83052
0.874889
0.836993
1.75384
1.66767
1.76736
1.68084
0.766092
0.732577
0.772213
0.738544
1.62968
1.62968
1.64268
1.64269
0.718015
0.718015
0.723912
0.723912
1.66768
1.75391
1.68086
1.76745
0.732577
0.766098
0.738547
0.772229
1.91349
1.99378
1.92749
2.00821
0.830562
0.868452
0.83706
0.874969
1.96225
1.88322
1.97809
1.8984
0.854465
0.816647
0.861558
0.823694
1.72495
1.63952
1.73967
1.65389
0.752956
0.719778
0.759659
0.726317
1.60189
1.60189
1.61608
1.61608
0.705366
0.705365
0.711831
0.711831
1.63952
1.72497
1.6539
1.73972
0.719777
0.752955
0.726317
0.759662
1.8833
1.96239
1.89858
1.97834
0.816656
0.854474
0.823721
0.861578
1.92853
1.85087
1.94564
1.86728
0.839248
0.801551
0.84699
0.809215
1.69362
1.60894
1.70958
1.62454
0.73866
0.705822
0.745947
0.712943
1.57167
1.57167
1.58709
1.58708
0.691561
0.69156
0.698607
0.698606
1.60894
1.69361
1.62453
1.70958
0.705818
0.738652
0.71294
0.745941
1.85088
1.92855
1.86732
1.9457
0.801532
0.83923
0.809207
0.846985
1.89181
1.81571
1.9105
1.83357
0.822694
0.785132
0.831127
0.793488
1.65972
1.57586
1.67699
1.59272
0.723147
0.690674
0.731054
0.698397
1.53898
1.53898
1.55564
1.55564
0.676574
0.676573
0.684214
0.684213
1.57585
1.65971
1.59271
1.67698
0.690671
0.723141
0.698393
0.731046
1.81569
1.89179
1.83356
1.91049
0.785121
0.822678
0.793471
0.831106
1.85197
1.7777
1.87219
1.79697
0.804743
0.767342
0.813868
0.776377
1.62316
1.54021
1.64176
1.55835
0.70638
0.674311
0.714914
0.682642
1.50375
1.50375
1.52168
1.52168
0.660384
0.660383
0.668627
0.668626
1.5402
1.62316
1.55835
1.64175
0.674308
0.706375
0.682639
0.714908
1.7777
1.85196
1.79696
1.87218
0.767335
0.804733
0.776368
0.813856
1.80926
1.73703
1.83089
1.75761
0.785473
0.748253
0.795248
0.75793
1.58401
1.502
1.60389
1.52142
0.688377
0.656732
0.697526
0.665671
1.46599
1.46599
1.48519
1.48519
0.642985
0.642984
0.651833
0.651832
1.502
1.584
1.52141
1.60389
0.656729
0.688373
0.665668
0.697521
1.73702
1.80926
1.75761
1.83089
0.748245
0.785464
0.757922
0.795239
1.76386
1.69378
1.78682
1.71565
0.764948
0.727934
0.775346
0.73822
1.54229
1.46124
1.56346
1.48193
0.669158
0.637937
0.678914
0.647485
1.42567
1.42567
1.44615
1.44615
0.624367
0.624366
0.633827
0.633826
1.46123
1.54229
1.48193
1.56345
0.637934
0.669153
0.647482
0.678909
1.69378
1.76385
1.71564
1.78682
0.727926
0.764939
0.738213
0.775336
1.71583
1.64799
1.7401
1.67113
0.743187
0.706378
0.754203
0.717287
1.498
1.41787
1.52046
1.43988
0.648711
0.617907
0.659084
0.628076
1.38274
1.38274
1.40453
1.40453
0.604508
0.604507
0.614593
0.614592
1.41787
1.49799
1.43988
1.52045
0.617904
0.648706
0.628073
0.659079
1.64798
1.71582
1.67112
1.74009
0.70637
0.743177
0.717279
0.754194
1.66519
1.5996
1.69077
1.62405
0.720175
0.683569
0.731821
0.695108
1.45104
1.3718
1.47485
1.39518
0.627002
0.596598
0.638012
0.607414
1.33707
1.33707
1.36025
1.36025
0.58336
0.583359
0.594097
0.594096
1.37179
1.45104
1.39517
1.47484
0.596595
0.626997
0.607411
0.638007
1.59959
1.66518
1.62404
1.69077
0.683561
0.720165
0.6951
0.731811
1.61183
1.54846
1.6388
1.57431
0.695851
0.659462
0.708166
0.671659
1.40124
1.3228
1.4265
1.34768
0.603961
0.57393
0.61565
0.585439
1.28845
1.28845
1.31315
1.31314
0.560836
0.560835
0.572275
0.572274
1.3228
1.40123
1.34768
1.4265
0.573926
0.603956
0.585435
0.615644
1.54845
1.61182
1.57431
1.63879
0.659454
0.695841
0.671651
0.708156
1.55542
1.49421
1.58397
1.52168
0.670056
0.633952
0.683135
0.64687
1.3482
1.2705
1.37515
1.2971
0.579445
0.549748
0.591896
0.562039
1.23649
1.23649
1.26292
1.26291
0.536784
0.536783
0.549012
0.549011
1.2705
1.34819
1.29709
1.37514
0.549744
0.57944
0.562035
0.59189
1.4942
1.55541
1.52168
1.58396
0.633944
0.670046
0.646862
0.683125
1.49525
1.43599
1.5258
1.46561
0.642483
0.606817
0.6565
0.620588
1.29107
1.21414
1.32022
1.24289
0.553143
0.523762
0.566544
0.537004
1.18055
1.18055
1.20906
1.20906
0.510946
0.510945
0.524106
0.524105
1.21414
1.29106
1.24288
1.32022
0.523759
0.553138
0.537001
0.566539
1.43599
1.49524
1.46561
1.52579
0.606809
0.642472
0.62058
0.65649
1.43037
1.37108
1.46335
1.40466
0.612792
0.577323
0.627885
0.592452
1.22758
1.15237
1.26036
1.18404
0.524215
0.495426
0.539098
0.509931
1.11983
1.11983
1.15082
1.15082
0.482979
0.482978
0.497244
0.497243
1.15237
1.22757
1.18403
1.26036
0.495423
0.52421
0.509928
0.539092
1.37108
1.43036
1.40466
1.46334
0.577315
0.612783
0.592444
0.627876
1.36342
1.28426
1.3967
1.33288
0.580084
0.539004
0.597191
0.560396
1.15165
1.0838
1.19171
1.11891
0.490215
0.46412
0.508083
0.480144
1.05445
1.05445
1.0876
1.0876
0.452881
0.45288
0.468149
0.468148
1.08379
1.15165
1.11891
1.1917
0.464117
0.49021
0.480141
0.508077
1.28426
1.36341
1.33287
1.39669
0.538997
0.580076
0.560388
0.597182
2.33983
2.22684
2.14544
2.05119
2.02557
1.91814
1.81709
1.7344
2.02983
1.90573
1.85255
1.72965
1.71719
1.59581
1.53598
1.41801
1.84624
1.84621
1.67166
1.67163
1.53913
1.53911
1.36371
1.36368
1.90567
2.02974
1.72957
1.85243
1.59574
1.71708
1.41792
1.53584
2.22675
2.33973
2.05106
2.14529
1.918
2.02542
1.73424
1.81691
2.58678
2.47214
2.48068
2.3655
2.2643
2.15288
2.16475
2.05335
2.27672
2.15341
2.16809
2.04376
1.95102
1.82889
1.85026
1.72763
2.09406
2.09404
1.98401
1.98399
1.77163
1.77161
1.67024
1.67022
2.15336
2.27666
2.0437
2.16801
1.82883
1.95094
1.72757
1.85017
2.47208
2.58672
2.36542
2.4806
2.15279
2.2642
2.05324
2.16462
2.73773
2.62538
2.66998
2.55648
2.4021
2.29223
2.3406
2.22993
2.43516
2.31495
2.36372
2.24194
2.09444
1.97474
2.03012
1.90915
2.25703
2.25701
2.18327
2.18326
1.91856
1.91855
1.85238
1.85236
2.31492
2.43512
2.2419
2.36367
1.9747
2.09438
1.9091
2.03005
2.62535
2.73771
2.55644
2.66994
2.29216
2.40203
2.22985
2.34051
2.84076
2.73061
2.7935
2.68231
2.49511
2.38687
2.45248
2.34346
2.54523
2.42804
2.49469
2.37606
2.19305
2.07584
2.14781
2.02941
2.37154
2.37153
2.31888
2.31887
2.02084
2.02082
1.97384
1.97382
2.42802
2.54521
2.37604
2.49466
2.0758
2.19301
2.02937
2.14775
2.7306
2.84076
2.68229
2.79349
2.38682
2.49506
2.3434
2.45242
2.91552
2.80724
2.88079
2.77164
2.56258
2.45577
2.53121
2.42373
2.62598
2.51137
2.58849
2.47266
2.26538
2.1503
2.23178
2.11569
2.4561
2.4561
2.41681
2.41681
2.09633
2.09632
2.06123
2.06122
2.51136
2.62598
2.47265
2.58848
2.15028
2.26535
2.11567
2.23174
2.80724
2.91553
2.77164
2.88079
2.45573
2.56255
2.42369
2.53117
2.97158
2.86484
2.94535
2.83789
2.61335
2.50773
2.58956
2.48339
2.68709
2.57467
2.65855
2.54509
2.3203
2.20704
2.29461
2.1805
2.52046
2.52046
2.49038
2.49038
2.15394
2.15394
2.12699
2.12698
2.57467
2.6871
2.54509
2.65855
2.20702
2.32028
2.18048
2.29459
2.86486
2.9716
2.8379
2.94536
2.50771
2.61333
2.48336
2.58953
3.01422
2.90876
2.99421
2.88816
2.65219
2.54756
2.63393
2.52884
2.73404
2.62351
2.71206
2.60064
2.36269
2.25101
2.34281
2.23039
2.5702
2.5702
2.5469
2.5469
2.19866
2.19866
2.17769
2.17768
2.62351
2.73405
2.60064
2.71207
2.251
2.36267
2.23037
2.34279
2.90879
3.01426
2.88818
2.99424
2.54755
2.65218
2.52883
2.63391
3.04665
2.94226
3.03143
2.92654
2.68194
2.57813
2.66794
2.56375
2.77017
2.66129
2.75327
2.64361
2.39551
2.28522
2.38012
2.26918
2.60878
2.60878
2.59072
2.59072
2.23353
2.23353
2.21718
2.21718
2.6613
2.77018
2.64362
2.75328
2.28521
2.3955
2.26917
2.38011
2.94228
3.04669
2.92657
3.03146
2.57812
2.68194
2.56374
2.66793
3.07096
2.96745
3.05958
2.95566
2.70447
2.60133
2.69388
2.59044
2.7977
2.69028
2.78487
2.67677
2.42071
2.31165
2.40893
2.2993
2.63847
2.63847
2.62462
2.62462
2.26055
2.26055
2.24792
2.24792
2.69029
2.79771
2.67677
2.78489
2.31165
2.42071
2.29929
2.40893
2.96748
3.071
2.95569
3.05961
2.60132
2.70447
2.59044
2.69388
3.08857
2.98579
3.0804
2.97729
2.72103
2.61844
2.7133
2.61046
2.81814
2.71204
2.8087
2.70198
2.43963
2.33168
2.43086
2.32239
2.66086
2.66086
2.6505
2.6505
2.28112
2.28112
2.27157
2.27157
2.71204
2.81815
2.70199
2.80871
2.33168
2.43963
2.32239
2.43085
2.98583
3.08861
2.97731
3.08043
2.61844
2.72103
2.61046
2.7133
3.10054
2.99837
3.09508
2.99264
2.73256
2.63041
2.72725
2.62491
2.8326
2.72768
2.82603
2.72056
2.45324
2.34631
2.44702
2.33961
2.67707
2.67708
2.66968
2.66968
2.29622
2.29622
2.2893
2.2893
2.72769
2.83262
2.72057
2.82605
2.3463
2.45324
2.33961
2.44702
2.9984
3.10058
2.99267
3.09511
2.63041
2.73257
2.62491
2.72726
3.10758
3.00592
3.10451
3.00263
2.73971
2.6379
2.73653
2.63457
2.84187
2.73804
2.83782
2.73348
2.46224
2.35624
2.45825
2.35181
2.68796
2.68796
2.68314
2.68314
2.3066
2.3066
2.30196
2.30196
2.73805
2.84189
2.73349
2.83784
2.35624
2.46224
2.35181
2.45825
3.00595
3.10762
3.00266
3.10455
2.6379
2.73971
2.63458
2.73654
3.11025
3.00901
3.10931
3.00788
2.74293
2.64139
2.74167
2.64001
2.84656
2.74374
2.84473
2.74144
2.46715
2.36203
2.46515
2.35962
2.69415
2.69415
2.69161
2.69161
2.31281
2.31281
2.31019
2.31019
2.74375
2.84658
2.74145
2.84475
2.36203
2.46715
2.35962
2.46516
3.00904
3.11029
3.00791
3.10935
2.6414
2.74294
2.64002
2.74168
3.10893
3.00804
3.10994
3.0089
2.74255
2.64124
2.74306
2.64165
2.8471
2.74523
2.8473
2.74499
2.46834
2.36407
2.46817
2.36349
2.6961
2.6961
2.69563
2.69563
2.31525
2.31525
2.31448
2.31448
2.74525
2.84712
2.745
2.84732
2.36407
2.46835
2.36349
2.46817
3.00807
3.10896
3.00894
3.10999
2.64125
2.74256
2.64166
2.74307
3.1038
3.00325
3.10673
3.00603
2.73867
2.63752
2.741
2.63977
2.8438
2.74288
2.8459
2.74453
2.46608
2.36267
2.46763
2.36378
2.6942
2.69421
2.69562
2.69562
2.31427
2.31427
2.31516
2.31516
2.74289
2.84382
2.74454
2.84592
2.36268
2.46608
2.36378
2.46763
3.0033
3.10385
3.00605
3.10674
2.63754
2.73869
2.63978
2.74101
3.09513
2.9949
3.09973
2.99938
2.73133
2.63054
2.73514
2.63421
2.83691
2.73692
2.84076
2.74033
2.46055
2.35804
2.46365
2.36072
2.68869
2.6887
2.69188
2.69188
2.31005
2.31005
2.31254
2.31254
2.73693
2.83692
2.74034
2.84078
2.35804
2.46056
2.36073
2.46366
2.99489
3.09514
2.99944
3.09982
2.63055
2.73135
2.63423
2.73516
3.08303
2.98319
3.08935
2.9893
2.72154
2.6209
2.72667
2.62595
2.82674
2.72766
2.83219
2.73268
2.45222
2.3505
2.45671
2.35461
2.67986
2.67986
2.68468
2.68468
2.30289
2.30289
2.30682
2.30682
2.72767
2.82676
2.7327
2.83221
2.3505
2.45223
2.35462
2.45672
2.98332
3.08317
2.98934
3.08933
2.62092
2.72155
2.62596
2.72669
3.06829
2.96876
3.07586
2.97624
2.70915
2.60872
2.71552
2.61503
2.8135
2.71526
2.82048
2.72184
2.44114
2.34016
2.447
2.34567
2.66786
2.66786
2.67425
2.67425
2.29291
2.29291
2.29824
2.29824
2.71526
2.81351
2.72185
2.8205
2.34016
2.44114
2.34567
2.447
2.96868
3.06822
2.97628
3.07599
2.60872
2.70916
2.61504
2.71553
3.05027
2.95109
3.0596
2.9602
2.6939
2.59367
2.70181
2.60144
2.7972
2.69978
2.80571
2.7079
2.42733
2.32709
2.43455
2.33396
2.65279
2.65279
2.66071
2.66071
2.2802
2.28019
2.28689
2.28689
2.69979
2.79722
2.7079
2.80572
2.32708
2.42731
2.33395
2.43454
2.95121
3.05039
2.96021
3.05952
2.59365
2.69386
2.60142
2.70179
3.02941
2.93064
3.04005
2.94113
2.67599
2.57608
2.68512
2.5851
2.77791
2.6813
2.78791
2.69091
2.41081
2.31131
2.41938
2.31953
2.63471
2.63471
2.64412
2.64413
2.26478
2.26478
2.27282
2.27282
2.68131
2.77792
2.69092
2.78792
2.31131
2.4108
2.31952
2.41937
2.93056
3.02934
2.94115
3.04017
2.57607
2.67598
2.58508
2.68509
3.00524
2.90697
3.01766
2.91908
2.65507
2.55553
2.66583
2.56605
2.75561
2.65983
2.76712
2.67094
2.39156
2.29283
2.4015
2.3024
2.61364
2.61364
2.62455
2.62455
2.24667
2.24667
2.25606
2.25606
2.65985
2.75565
2.67095
2.76714
2.29284
2.39158
2.30241
2.40151
2.90711
3.00539
2.9191
3.01758
2.55556
2.6551
2.56606
2.66584
2.97812
2.88045
2.9919
2.89399
2.63141
2.53243
2.64342
2.54421
2.7303
2.63535
2.74332
2.64796
2.3696
2.27164
2.3809
2.28257
2.58957
2.58958
2.60198
2.60199
2.22586
2.22587
2.2366
2.23661
2.63537
2.73033
2.64798
2.74335
2.27166
2.36964
2.28259
2.38093
2.8804
2.97809
2.89404
2.99207
2.53249
2.63149
2.54426
2.64349
2.94753
2.85062
2.96318
2.86583
2.60475
2.50637
2.61841
2.51967
2.70192
2.60783
2.71648
2.62197
2.34487
2.24771
2.35757
2.26002
2.56247
2.56248
2.5764
2.57641
2.20232
2.20233
2.21443
2.21444
2.60786
2.70197
2.62199
2.71652
2.24774
2.34493
2.26004
2.35761
2.85078
2.94769
2.86588
2.96314
2.50645
2.60482
2.51973
2.61845
2.91382
2.81785
2.93093
2.83453
2.57513
2.47761
2.59013
2.49222
2.67044
2.57724
2.68655
2.59292
2.31735
2.22101
2.33144
2.23471
2.53232
2.53232
2.54778
2.54779
2.17602
2.17603
2.18952
2.18952
2.57727
2.67048
2.59294
2.6866
2.22105
2.31742
2.23474
2.3315
2.81783
2.91384
2.83462
2.93113
2.47773
2.5753
2.49234
2.59029
2.8766
2.7817
2.8956
2.8001
2.54246
2.44586
2.55917
2.46204
2.6358
2.54352
2.6535
2.56077
2.28699
2.1915
2.30252
2.20661
2.49905
2.49906
2.51607
2.51608
2.14692
2.14693
2.16182
2.16183
2.54354
2.63584
2.5608
2.65355
2.19153
2.28705
2.20664
2.30259
2.78184
2.87673
2.80015
2.89557
2.44596
2.54258
2.46216
2.5593
2.83595
2.74239
2.85655
2.76235
2.50647
2.41116
2.52472
2.42877
2.59794
2.50662
2.61726
2.52547
2.2537
2.15911
2.27069
2.17566
2.46261
2.46262
2.48123
2.48123
2.11497
2.11497
2.1313
2.13131
2.50664
2.59796
2.52549
2.61729
2.15913
2.25374
2.17568
2.27074
2.74237
2.83598
2.76243
2.85674
2.41125
2.5066
2.42887
2.52484
2.7918
2.69971
2.81423
2.72137
2.46737
2.37343
2.48726
2.3926
2.55682
2.46648
2.57778
2.48696
2.21747
2.12381
2.23594
2.14182
2.42296
2.42296
2.44319
2.44319
2.08011
2.08011
2.0979
2.09791
2.46649
2.55684
2.48697
2.5778
2.12382
2.21749
2.14183
2.23596
2.69978
2.79184
2.72137
2.81418
2.37347
2.46742
2.39267
2.48736
2.74417
2.65373
2.76829
2.67705
2.42505
2.33279
2.44642
2.35335
2.51237
2.42303
2.535
2.44518
2.17826
2.08554
2.19822
2.10505
2.38
2.38
2.4019
2.4019
2.0423
2.0423
2.06158
2.06158
2.42304
2.51238
2.44518
2.53502
2.08554
2.17826
2.10505
2.19822
2.65376
2.74421
2.67711
2.76838
2.3328
2.42506
2.35337
2.44645
2.69272
2.6041
2.71885
2.62929
2.37944
2.28893
2.40261
2.3112
2.46443
2.37617
2.48882
2.40003
2.13593
2.0442
2.15748
2.06526
2.33367
2.33367
2.35726
2.35726
2.00145
2.00145
2.02226
2.02226
2.37618
2.46444
2.40004
2.48883
2.0442
2.13593
2.06526
2.15748
2.60412
2.69274
2.62931
2.71887
2.28893
2.37944
2.3112
2.40261
2.63737
2.55082
2.66542
2.57782
2.33008
2.24162
2.35511
2.2656
2.41295
2.32584
2.43912
2.35144
2.09037
1.99973
2.11353
2.02236
2.28389
2.2839
2.30921
2.30922
1.95751
1.95751
1.97987
1.97987
2.32585
2.41296
2.35145
2.43913
1.99974
2.09037
2.02236
2.11353
2.55084
2.6374
2.57784
2.66544
2.24162
2.33009
2.2656
2.35512
2.57834
2.49399
2.60821
2.52276
2.27725
2.19104
2.30399
2.21664
2.35796
2.27201
2.38588
2.29936
2.04161
1.95212
2.06637
1.97632
2.23063
2.23063
2.2577
2.2577
1.91043
1.91044
1.93436
1.93436
2.27202
2.35797
2.29937
2.38589
1.95212
2.04162
1.97632
2.06637
2.49401
2.57837
2.52278
2.60824
2.19105
2.27726
2.21664
2.30399
2.51572
2.43368
2.54738
2.46419
2.22117
2.13732
2.24951
2.16449
2.29943
2.21463
2.32913
2.24376
1.9897
1.90133
2.01604
1.92712
2.1738
2.1738
2.20266
2.20266
1.86019
1.86019
1.88571
1.88571
2.21463
2.29945
2.24377
2.32914
1.90133
1.9897
1.92712
2.01604
2.4337
2.51575
2.46421
2.54741
2.13733
2.22117
2.16449
2.24952
2.44956
2.36985
2.48299
2.40212
2.1619
2.08046
2.19184
2.1092
2.2373
2.15358
2.26881
2.18457
1.93458
1.8473
1.96253
1.87472
2.11327
2.11328
2.14401
2.14401
1.80667
1.80667
1.83385
1.83385
2.15358
2.23731
2.18457
2.26882
1.8473
1.93458
1.87472
1.96253
2.36986
2.44959
2.40214
2.48302
2.08046
2.1619
2.1092
2.19184
2.37981
2.30238
2.41505
2.3365
2.09941
2.02037
2.13097
2.05074
2.17138
2.08865
2.20482
2.12161
1.87611
1.78984
1.90576
1.819
2.04884
2.04884
2.08156
2.08156
1.7497
1.7497
1.77863
1.77863
2.08866
2.17139
2.12162
2.20483
1.78984
1.87611
1.819
1.90576
2.3024
2.37984
2.33651
2.41508
2.02037
2.09942
2.05074
2.13097
2.30628
2.23103
2.34345
2.26713
2.03356
1.95683
2.06684
1.98897
2.10137
2.0195
2.13691
2.05463
1.81401
1.72866
1.84553
1.75974
1.98012
1.98012
2.01504
2.01504
1.68896
1.68896
1.71983
1.71983
2.01951
2.10138
2.05464
2.13691
1.72866
1.81401
1.75973
1.84553
2.23104
2.30631
2.26715
2.34347
1.95684
2.03357
1.98897
2.06684
2.22854
2.15527
2.26789
2.19367
1.96395
1.88937
1.99918
1.92356
2.02667
1.94554
2.06464
1.98317
1.74777
1.66322
1.78145
1.69651
1.90653
1.90653
1.94397
1.94398
1.62393
1.62393
1.65702
1.65702
1.94554
2.02667
1.98317
2.06465
1.66321
1.74776
1.69651
1.78144
2.15528
2.22856
2.19368
2.26791
1.88937
1.96395
1.92356
1.99918
2.14576
2.07403
2.18775
2.11536
1.88971
1.81689
1.9274
1.85379
1.94615
1.86579
1.98723
1.90646
1.67626
1.59258
1.71276
1.62862
1.82727
1.82727
1.86767
1.86767
1.55381
1.55381
1.58956
1.58956
1.86579
1.94616
1.90646
1.98724
1.59258
1.67626
1.62862
1.71276
2.07404
2.14578
2.11537
2.18777
1.81689
1.88971
1.85379
1.9274
2.05712
1.98436
2.10207
2.03052
1.80962
1.73617
1.85035
1.77788
1.85737
1.77883
1.90303
1.8233
1.59688
1.51525
1.63781
1.55485
1.74151
1.74151
1.78522
1.78522
1.47775
1.47774
1.51655
1.51655
1.77884
1.85737
1.82331
1.90303
1.51524
1.59688
1.55485
1.63781
1.98438
2.05714
2.03054
2.10209
1.73618
1.80963
1.77788
1.85036
1.96564
1.87207
2.01134
1.93327
1.72539
1.63149
1.76773
1.68929
1.75504
1.68393
1.80829
1.73226
1.50373
1.43014
1.55249
1.47358
1.64997
1.64997
1.69627
1.69627
1.3962
1.3962
1.43748
1.43748
1.68393
1.75505
1.73227
1.8083
1.43014
1.50373
1.47358
1.55249
1.87208
1.96567
1.93329
2.01137
1.6315
1.7254
1.68929
1.76773
2.78578
2.67676
2.60942
2.5142
2.58438
2.47244
2.40039
2.30415
2.49763
2.38073
2.32975
2.21102
2.28405
2.16264
2.11174
1.98971
2.3233
2.32329
2.15349
2.15347
2.10353
2.10351
1.9312
1.93118
2.3807
2.4976
2.21097
2.32968
2.16259
2.28398
1.98965
2.11164
2.67675
2.78578
2.51415
2.60936
2.47238
2.58432
2.30405
2.40029
3.03316
2.925
2.92323
2.81388
2.83274
2.72067
2.72388
2.61087
2.75031
2.63636
2.63633
2.52065
2.53561
2.41628
2.42329
2.30251
2.58026
2.58026
2.46375
2.46374
2.35799
2.35798
2.24359
2.24357
2.63636
2.75031
2.52063
2.63631
2.41625
2.53559
2.30247
2.42324
2.92503
3.03321
2.81389
2.92325
2.72065
2.83273
2.61083
2.72384
3.19688
3.09169
3.12254
3.0159
2.99155
2.88221
2.91984
2.80915
2.92325
2.8132
2.84446
2.73249
2.70303
2.58729
2.62713
2.50959
2.75895
2.75896
2.67732
2.67732
2.53068
2.53067
2.45213
2.45213
2.81321
2.92328
2.73249
2.84447
2.58728
2.70302
2.50958
2.62711
3.09176
3.19696
3.01595
3.1226
2.88222
2.99158
2.80915
2.91985
3.31181
3.20932
3.25891
3.15515
3.10148
2.99466
3.05098
2.94296
3.04645
2.93995
2.9897
2.88152
2.8208
2.70842
2.76664
2.65266
2.88742
2.88743
2.82817
2.82817
2.65341
2.65341
2.59689
2.59689
2.93998
3.0465
2.88153
2.98973
2.70842
2.82082
2.65266
2.76665
3.2094
3.31191
3.15522
3.259
2.99469
3.10152
2.94299
3.05101
3.39584
3.2956
3.35681
3.25552
3.18148
3.07677
3.14432
3.03863
3.13743
3.03394
3.09519
2.99028
2.90742
2.79789
2.86721
2.75633
2.98287
2.98288
2.93852
2.93853
2.74427
2.74427
2.70206
2.70206
3.03397
3.13748
2.99031
3.09523
2.7979
2.90745
2.75634
2.86723
3.29569
3.39595
3.25561
3.35691
3.07682
3.18153
3.03867
3.14437
3.45873
3.36037
3.42936
3.33013
3.24136
3.13841
3.21337
3.10961
3.20615
3.10522
3.1741
3.07196
2.97288
2.86576
2.94233
2.83408
3.05539
3.0554
3.02155
3.02156
2.81331
2.81331
2.78107
2.78107
3.10525
3.20621
3.07199
3.17415
2.86578
2.97291
2.83409
2.94235
3.36046
3.45885
3.33022
3.42947
3.13846
3.24143
3.10965
3.21343
3.50628
3.40945
3.48404
3.3865
3.28674
3.18524
3.26548
3.16331
3.25864
3.15989
3.23413
3.13435
3.02298
2.91795
2.99955
2.89354
3.11113
3.11114
3.08508
3.08509
2.8665
2.86651
2.84162
2.84162
3.15992
3.2587
3.13438
3.23419
2.91797
3.02301
2.89356
2.99959
3.40955
3.50639
3.38659
3.48415
3.1853
3.28681
3.16336
3.26555
3.54207
3.44654
3.52534
3.42921
3.32105
3.22076
3.30498
3.20413
3.29867
3.20182
3.28001
3.18226
3.06135
2.95813
3.04343
2.93935
3.15398
3.154
3.13398
3.13399
2.90756
2.90757
2.88837
2.88837
3.20185
3.29873
3.18229
3.28007
2.95815
3.06139
2.93937
3.04346
3.44663
3.54218
3.4293
3.52545
3.22082
3.32113
3.20419
3.30505
3.5685
3.47406
3.5562
3.46126
3.34656
3.24729
3.33466
3.23492
3.32878
3.23359
3.31481
3.21884
3.09038
2.98875
3.07688
2.97451
3.18658
3.18659
3.17144
3.17145
2.93896
2.93897
2.92434
2.92435
3.23363
3.32884
3.21888
3.31488
2.98878
3.09042
2.97453
3.07692
3.47415
3.56862
3.46135
3.55631
3.24735
3.34664
3.23497
3.33473
3.58724
3.49371
3.57863
3.48468
3.36483
3.2664
3.35639
3.25758
3.35073
3.25703
3.34066
3.24626
3.11173
3.01153
3.1019
3.00103
3.21074
3.21075
3.19962
3.19963
2.96243
2.96244
2.9516
2.95161
3.25706
3.35079
3.2463
3.34072
3.01155
3.11176
3.00105
3.10194
3.4938
3.58735
3.48477
3.57873
3.26646
3.3649
3.25763
3.35646
3.5995
3.50673
3.594
3.50088
3.37699
3.27927
3.37148
3.27345
3.36581
3.27343
3.35904
3.26604
3.1266
3.02768
3.11988
3.02037
3.22779
3.2278
3.22009
3.2201
2.9792
2.97921
2.97159
2.97159
3.27347
3.36586
3.26608
3.3591
3.0277
3.12663
3.02039
3.11992
3.50682
3.5996
3.50097
3.5941
3.27932
3.37706
3.2735
3.37155
3.60611
3.51399
3.60335
3.51094
3.38382
3.2867
3.3809
3.28351
3.37493
3.28377
3.37105
3.27931
3.13586
3.03811
3.13186
3.03356
3.23872
3.23873
3.23398
3.23399
2.9902
2.99021
2.98538
2.98539
3.2838
3.37499
3.27934
3.3711
3.03813
3.13589
3.03358
3.1319
3.51407
3.60621
3.51102
3.60345
3.28675
3.38389
3.28357
3.38097
3.60774
3.51618
3.60739
3.51558
3.38595
3.28933
3.38531
3.28847
3.37883
3.28877
3.37748
3.2869
3.14017
3.0435
3.13857
3.0414
3.24426
3.24427