/*--------------------------------*- C++ -*----------------------------------*\
  =========                 |
  \\      /  F ield         | OpenFOAM: The Open Source CFD Toolbox
   \\    /   O peration     | Website:  https://openfoam.org
    \\  /    A nd           | Version:  9
     \\/     M anipulation  |
\*---------------------------------------------------------------------------*/
FoamFile
{
    format      ascii;
    class       volScalarField;
    location    "3.8";
    object      nut;
}
// * * * * * * * * * * * * * * * * * * * * * * * * * * * * * * * * * * * * * //

dimensions      [0 2 -1 0 0 0 0];

internalField   nonuniform List<scalar> 
36360
(
0.0214629
0.021562
0.0201705
0.0203446
0.00236907
0.00232327
0.0019988
0.00211212
0.0209653
0.0207079
0.0197391
0.0195082
0.00218134
0.00209724
0.00194621
0.00184562
0.0206252
0.0206247
0.0194486
0.0194481
0.00205923
0.0020592
0.00180285
0.00180282
0.0207066
0.0209632
0.0195068
0.0197367
0.00209716
0.00218121
0.00184552
0.00194606
0.0215591
0.0214595
0.0203414
0.0201668
0.00232311
0.00236889
0.00211193
0.00199859
0.0228032
0.0230111
0.0222094
0.0223762
0.00256441
0.00249648
0.00249438
0.00242802
0.0225008
0.0222416
0.0218263
0.021562
0.00235994
0.00228232
0.00228824
0.00220805
0.0221405
0.0221401
0.0214667
0.0214663
0.00224706
0.00224704
0.00217168
0.00217165
0.0222405
0.022499
0.0215608
0.0218243
0.00228226
0.00235984
0.00220798
0.00228812
0.0230087
0.0228003
0.0223736
0.0222064
0.00249635
0.00256427
0.00242787
0.00249422
0.023747
0.0239699
0.0233123
0.0235313
0.00265422
0.00258712
0.00261461
0.00254699
0.0234959
0.0232549
0.0230428
0.0227936
0.00245663
0.0023832
0.0024138
0.0023384
0.0231553
0.023155
0.0226919
0.0226916
0.00234989
0.00234987
0.00230417
0.00230415
0.023254
0.0234944
0.0227925
0.0230412
0.00238315
0.00245655
0.00233834
0.00241371
0.0239678
0.0237444
0.023529
0.0233097
0.00258702
0.0026541
0.00254688
0.00261448
0.0244327
0.0246631
0.0241155
0.0243417
0.00271345
0.00264767
0.00268642
0.00261995
0.0242074
0.0239793
0.0238783
0.0236442
0.00252141
0.00245104
0.00249177
0.00242003
0.0238866
0.0238863
0.0235478
0.0235475
0.00241924
0.00241923
0.00238752
0.00238751
0.0239785
0.0242061
0.0236433
0.0238769
0.002451
0.00252134
0.00241998
0.0024917
0.0246613
0.0244305
0.0243398
0.0241132
0.00264759
0.00271336
0.00261986
0.00268632
0.0249465
0.0251864
0.0247065
0.0249414
0.00275612
0.00269169
0.00273633
0.00267123
0.0247437
0.0245237
0.0244927
0.0242691
0.00256855
0.00250041
0.00254667
0.0024775
0.0244371
0.0244368
0.0241797
0.0241794
0.00246975
0.00246973
0.00244631
0.0024463
0.0245231
0.0247426
0.0242684
0.0244915
0.00250037
0.0025685
0.00247747
0.00254661
0.0251848
0.0249445
0.0249397
0.0247046
0.00269162
0.00275604
0.00267115
0.00273624
0.0253425
0.0255918
0.0251564
0.0254009
0.00278822
0.00272499
0.0027732
0.00270938
0.0251602
0.0249458
0.0249641
0.0247472
0.00260426
0.00253785
0.00258755
0.00252033
0.0248629
0.0248627
0.0246626
0.0246624
0.00250806
0.00250805
0.00249014
0.00249013
0.0249452
0.0251592
0.0247465
0.0249631
0.00253782
0.00260422
0.00252031
0.00258751
0.0255905
0.0253408
0.0253995
0.0251547
0.00272494
0.00278816
0.00270932
0.00277313
0.025653
0.0259106
0.0255065
0.0257601
0.0028129
0.00275069
0.00280131
0.0027386
0.0254887
0.0252784
0.0253336
0.0251214
0.00263189
0.00256687
0.00261892
0.00255324
0.0251975
0.0251973
0.0250396
0.0250394
0.00253778
0.00253777
0.00252383
0.00252382
0.0252779
0.0254879
0.0251208
0.0253327
0.00256684
0.00263185
0.00255322
0.00261888
0.0259094
0.0256514
0.0257588
0.025505
0.00275065
0.00281285
0.00273855
0.00280125
0.0258984
0.0261624
0.0257825
0.0260434
0.00283197
0.00277064
0.00282301
0.00276124
0.0257491
0.0255422
0.025626
0.0254176
0.00265343
0.00258955
0.0026433
0.00257889
0.0254625
0.0254623
0.0253373
0.0253371
0.00256103
0.00256103
0.00255011
0.0025501
0.0255418
0.0257484
0.0254171
0.0256253
0.00258953
0.0026534
0.00257887
0.00264327
0.0261615
0.0258971
0.0260423
0.0257812
0.0027706
0.00283191
0.0027612
0.00282296
0.0260915
0.0263606
0.0260006
0.0262671
0.00284664
0.00278606
0.00283975
0.00277879
0.0259548
0.0257509
0.0258578
0.0256524
0.00267018
0.00260725
0.00266232
0.00259895
0.0256719
0.0256718
0.0255731
0.025573
0.00257921
0.00257921
0.00257068
0.00257068
0.0257505
0.0259543
0.025652
0.0258572
0.00260724
0.00267015
0.00259893
0.00266229
0.0263598
0.0260905
0.0262662
0.0259994
0.00278603
0.00284665
0.00277876
0.00283969
0.0262413
0.0265143
0.0261709
0.0264421
0.00285782
0.00279779
0.00285255
0.00279229
0.0261154
0.0259139
0.0260399
0.0258373
0.00268302
0.0026209
0.00267702
0.00261453
0.0258355
0.0258354
0.0257586
0.0257585
0.00259326
0.00259326
0.0025867
0.00258669
0.0259136
0.0261148
0.0258369
0.0260394
0.00262089
0.002683
0.00261451
0.002677
0.0265136
0.0262403
0.0264413
0.0261702
0.00279775
0.00285773
0.00279225
0.00285256
0.0263543
0.0266303
0.0263018
0.0265762
0.002866
0.00280642
0.00286224
0.0028024
0.0262376
0.0260384
0.0261806
0.0259803
0.00269259
0.00263115
0.00268816
0.00262641
0.0259604
0.0259603
0.0259022
0.025902
0.00260386
0.00260385
0.00259895
0.00259894
0.0260381
0.0262371
0.02598
0.0261801
0.00263114
0.00269257
0.0026264
0.00268814
0.0266297
0.0263534
0.0265755
0.0263008
0.0028064
0.00286599
0.00280238
0.00286218
0.0264358
0.0267139
0.0263983
0.0266754
0.00287162
0.00281237
0.00286903
0.00280966
0.0263266
0.0261296
0.0262857
0.0260876
0.00269934
0.00263848
0.00269628
0.00263515
0.0260518
0.0260517
0.0260098
0.0260097
0.00261149
0.00261149
0.00260801
0.00260801
0.0261293
0.0263261
0.0260873
0.0262852
0.00263847
0.00269932
0.00263514
0.00269626
0.0267132
0.0264351
0.0266748
0.0263977
0.00281234
0.00287159
0.00280963
0.00286899
0.0264895
0.0267686
0.0264656
0.0267442
0.00287501
0.00281594
0.00287357
0.00281439
0.0263863
0.0261912
0.0263596
0.0261636
0.00270361
0.00264325
0.00270175
0.00264116
0.0261137
0.0261136
0.026086
0.0260859
0.00261653
0.00261653
0.00261431
0.00261431
0.0261909
0.0263858
0.0261633
0.0263591
0.00264325
0.00270359
0.00264115
0.00270174
0.0267679
0.0264883
0.0267435
0.0264647
0.00281592
0.00287489
0.00281436
0.0028735
0.0265174
0.026797
0.0265064
0.0267857
0.00287623
0.00281732
0.00287584
0.00281685
0.0264195
0.0262263
0.0264057
0.0262117
0.00270562
0.00264572
0.00270487
0.00264475
0.0261491
0.026149
0.0261343
0.0261342
0.00261923
0.00261922
0.00261815
0.00261815
0.0262261
0.0264191
0.0262114
0.0264053
0.00264571
0.00270561
0.00264475
0.00270486
0.0267964
0.0265165
0.026785
0.0265053
0.0028173
0.00287614
0.00281683
0.0028757
0.0265236
0.0268027
0.0265233
0.0268027
0.00287538
0.00281664
0.00287602
0.0028172
0.0264288
0.0262373
0.0264266
0.0262343
0.00270554
0.00264604
0.00270581
0.00264613
0.0261604
0.0261604
0.0261574
0.0261573
0.00261976
0.00261976
0.00261976
0.00261975
0.0262371
0.0264285
0.0262341
0.0264262
0.00264604
0.00270553
0.00264612
0.0027058
0.026802
0.0265227
0.0268021
0.0265225
0.00281664
0.00287551
0.0028172
0.00287607
0.0265067
0.0267848
0.0265175
0.0267958
0.00287266
0.00281392
0.00287418
0.00281543
0.0264148
0.0262253
0.0264242
0.0262339
0.00270349
0.00264443
0.00270474
0.00264549
0.0261491
0.026149
0.0261574
0.0261574
0.00261837
0.00261837
0.00261933
0.00261933
0.0262251
0.0264145
0.0262337
0.0264239
0.00264443
0.00270348
0.00264549
0.00270473
0.0267842
0.0265058
0.0267952
0.0265167
0.00281392
0.00287272
0.00281543
0.00287429
0.0264698
0.0267472
0.0264908
0.0267683
0.00286853
0.00280982
0.00287075
0.00281202
0.0263793
0.0261916
0.0263995
0.0262109
0.00269975
0.00264098
0.00270181
0.00264292
0.0261162
0.0261161
0.0261351
0.026135
0.00261506
0.00261506
0.00261693
0.00261693
0.0261914
0.0263791
0.0262107
0.0263992
0.00264098
0.00269974
0.00264291
0.00270181
0.0267468
0.0264693
0.0267678
0.02649
0.00280982
0.00286858
0.00281202
0.00287078
0.0264122
0.0266887
0.0264431
0.02672
0.00286264
0.00280389
0.00286574
0.00280701
0.0263228
0.0261368
0.0263534
0.0261666
0.00269426
0.00263578
0.0026972
0.00263859
0.0260625
0.0260625
0.0260917
0.0260917
0.00260998
0.00260998
0.00261274
0.00261274
0.0261367
0.0263227
0.0261665
0.0263532
0.00263577
0.00269425
0.00263859
0.0026972
0.0266887
0.0264126
0.0267197
0.0264431
0.00280386
0.00286264
0.002807
0.0028658
0.0263354
0.0266101
0.0263761
0.0266516
0.00285524
0.00279635
0.00285907
0.00280029
0.0262456
0.0260614
0.0262866
0.0261015
0.00268709
0.00262885
0.00269087
0.00263252
0.0259885
0.0259885
0.0260279
0.0260279
0.00260314
0.00260313
0.00260678
0.00260677
0.0260614
0.0262458
0.0261015
0.0262867
0.00262883
0.00268705
0.00263251
0.00269085
0.0266108
0.0263366
0.0266521
0.0263772
0.00279628
0.00285513
0.00280023
0.00285901
0.0262368
0.0265106
0.0262885
0.0265623
0.00284612
0.00278705
0.00285091
0.00279187
0.0261477
0.0259653
0.026199
0.0260157
0.00267819
0.00262018
0.00268284
0.00262472
0.0258943
0.0258942
0.0259438
0.0259438
0.00259452
0.00259452
0.00259905
0.00259905
0.0259652
0.0261476
0.0260157
0.0261991
0.00262017
0.00267817
0.00262471
0.00268281
0.0265107
0.0262368
0.0265628
0.0262891
0.00278701
0.00284601
0.00279179
0.00285073
0.0261206
0.0263925
0.026181
0.0264539
0.00283528
0.00277599
0.00284086
0.00278169
0.0260287
0.0258478
0.0260907
0.0259092
0.00266754
0.00260974
0.00267307
0.00261518
0.0257781
0.025778
0.025839
0.0258389
0.00258416
0.00258416
0.00258954
0.00258954
0.0258476
0.0260284
0.025909
0.0260905
0.00260975
0.00266755
0.00261518
0.00267307
0.0263921
0.0261199
0.0264537
0.0261806
0.00277601
0.0028352
0.00278169
0.00284078
0.0259795
0.0262513
0.0260528
0.026324
0.00282262
0.00276316
0.00282911
0.00276973
0.0258881
0.0257079
0.0259608
0.0257803
0.00265512
0.0025975
0.00266154
0.00260384
0.025639
0.0256389
0.0257111
0.0257111
0.002572
0.002572
0.0025783
0.00257831
0.0257076
0.0258877
0.0257801
0.0259605
0.00259751
0.00265515
0.00260385
0.00266156
0.0262508
0.0259789
0.0263237
0.0260523
0.00276322
0.00282264
0.00276978
0.00282911
0.0258202
0.0260921
0.025902
0.0261741
0.00280823
0.00274855
0.00281561
0.00275606
0.0257261
0.0255459
0.0258098
0.0256296
0.00264087
0.00258339
0.00264822
0.00259067
0.0254775
0.0254774
0.0255609
0.0255608
0.00255798
0.00255798
0.00256522
0.00256523
0.0255456
0.0257253
0.0256293
0.025809
0.00258341
0.00264092
0.00259069
0.00264825
0.0260904
0.0258176
0.0261722
0.0258999
0.00274864
0.00280836
0.0027561
0.00281562
0.0256364
0.0259094
0.0257306
0.0260025
0.00279198
0.00273203
0.00280025
0.00274045
0.025541
0.025361
0.0256361
0.0254562
0.00262474
0.00256739
0.00263303
0.00257563
0.025293
0.025293
0.025388
0.025388
0.00254204
0.00254204
0.00255025
0.00255025
0.0253609
0.0255407
0.025456
0.0256357
0.0025674
0.00262479
0.00257565
0.00263308
0.0259087
0.0256358
0.0260024
0.0257301
0.00273218
0.00279216
0.00274061
0.00280049
0.0254299
0.0257047
0.0255365
0.0258101
0.00277397
0.00271366
0.00278319
0.00272307
0.0253331
0.0251526
0.0254398
0.0252596
0.00260668
0.00254941
0.00261595
0.00255864
0.0250849
0.0250849
0.0251918
0.0251918
0.00252411
0.00252411
0.00253332
0.00253333
0.0251526
0.025333
0.0252596
0.0254396
0.00254942
0.00260673
0.00255866
0.002616
0.0257037
0.0254281
0.0258089
0.025535
0.00271379
0.00277407
0.00272322
0.00278337
0.0251975
0.025475
0.025317
0.0255927
0.00275386
0.00269312
0.00276417
0.0027036
0.0251006
0.0249199
0.0252199
0.0250392
0.00258656
0.00252936
0.00259687
0.00253964
0.0248525
0.0248525
0.0249716
0.0249716
0.0025041
0.0025041
0.00251437
0.00251437
0.02492
0.025101
0.0250393
0.0252201
0.00252936
0.00258658
0.00253965
0.00259691
0.0254757
0.0251976
0.0255923
0.0253157
0.00269321
0.00275393
0.00270371
0.00276423
0.0249382
0.0252207
0.0250708
0.0253504
0.00273164
0.00267051
0.00274297
0.00268202
0.0248417
0.0246621
0.024974
0.024794
0.00256429
0.00250717
0.00257568
0.00251853
0.0245949
0.0245949
0.0247267
0.0247267
0.00248195
0.00248194
0.0024933
0.00249329
0.024662
0.0248418
0.024794
0.0249743
0.00250716
0.00256429
0.00251853
0.00257569
0.025221
0.0249385
0.0253511
0.0250715
0.00267054
0.00273167
0.00268208
0.00274299
0.0246555
0.0249431
0.0247998
0.0250848
0.0027072
0.00264572
0.00271966
0.00265834
0.0245581
0.0243784
0.0247029
0.0245234
0.00253982
0.00248274
0.00255232
0.00249523
0.0243114
0.0243113
0.0244563
0.0244562
0.00245754
0.00245753
0.00247002
0.00247002
0.0243783
0.024558
0.0245232
0.0247029
0.00248273
0.00253981
0.00249523
0.00255231
0.0249432
0.0246555
0.0250848
0.0247999
0.00264569
0.00270718
0.00265834
0.00271967
0.0243471
0.0246398
0.0245044
0.0247943
0.00268037
0.00261847
0.00269407
0.00263237
0.0242486
0.0240682
0.0244065
0.0242266
0.00251301
0.00245595
0.00252671
0.00246964
0.0240011
0.0240011
0.0241595
0.0241594
0.00243076
0.00243076
0.00244445
0.00244444
0.0240681
0.0242483
0.0242264
0.0244063
0.00245595
0.002513
0.00246964
0.0025267
0.0246394
0.0243466
0.0247941
0.0245042
0.00261846
0.00268034
0.00263235
0.00269404
0.0240117
0.0243099
0.0241827
0.0244778
0.00265096
0.00258864
0.00266595
0.00260383
0.0239119
0.0237305
0.0240835
0.0239027
0.0024837
0.00242668
0.00249866
0.00244163
0.0236632
0.0236632
0.0238355
0.0238354
0.0024015
0.0024015
0.00241644
0.00241644
0.0237304
0.0239116
0.0239026
0.0240832
0.00242668
0.0024837
0.00244162
0.00249865
0.0243095
0.0240112
0.0244774
0.0241822
0.00258863
0.00265095
0.00260382
0.00266593
0.0236485
0.0239526
0.0238335
0.0241344
0.00261903
0.00255623
0.00263528
0.00257271
0.0235472
0.0233645
0.0237329
0.023551
0.00245185
0.00239484
0.00246809
0.00241109
0.0232968
0.0232968
0.0234835
0.0234834
0.00236965
0.00236965
0.0023859
0.0023859
0.0233644
0.0235469
0.0235508
0.0237327
0.00239484
0.00245184
0.00241108
0.00246808
0.0239522
0.0236479
0.024134
0.0238329
0.00255622
0.00261901
0.0025727
0.00263526
0.0232568
0.0235673
0.0234561
0.0237632
0.00258458
0.00252129
0.00260209
0.00253904
0.0231536
0.0229691
0.0233539
0.0231704
0.00241738
0.00236032
0.00243494
0.00237792
0.0229007
0.0229007
0.0231024
0.0231023
0.00233509
0.00233509
0.00235271
0.00235271
0.0229689
0.0231533
0.0231702
0.0233537
0.00236032
0.00241737
0.00237792
0.00243493
0.0235668
0.0232562
0.0237628
0.0234555
0.00252127
0.00258457
0.00253903
0.00260207
0.022835
0.0231517
0.0230496
0.0233631
0.00254755
0.00248367
0.00256636
0.00250278
0.0227292
0.0225425
0.0229452
0.0227596
0.00238016
0.00232297
0.00239911
0.00234201
0.0224733
0.0224732
0.0226909
0.0226908
0.00229765
0.00229765
0.00231674
0.00231674
0.0225423
0.0227289
0.0227595
0.0229449
0.00232297
0.00238015
0.002342
0.0023991
0.0231512
0.0228344
0.0233626
0.023049
0.00248366
0.00254753
0.00250276
0.00256635
0.0223808
0.0227033
0.0226119
0.0229314
0.0025078
0.00244324
0.00252799
0.00246378
0.0222717
0.0220825
0.0225046
0.0223167
0.00233999
0.00228257
0.00236045
0.00230316
0.0220122
0.0220121
0.022247
0.0222469
0.0022571
0.0022571
0.00227778
0.00227778
0.0220823
0.0222714
0.0223165
0.0225043
0.00228256
0.00233998
0.00230316
0.00236044
0.0227029
0.0223802
0.022931
0.0226114
0.00244323
0.00250778
0.00246376
0.00252798
0.0218909
0.0222189
0.0221405
0.0224656
0.00246508
0.00239977
0.0024868
0.00242186
0.0217781
0.0215859
0.0220295
0.0218389
0.00229659
0.00223878
0.00231871
0.00226112
0.0215143
0.0215142
0.0217679
0.0217679
0.0022131
0.0022131
0.00223556
0.00223556
0.0215858
0.0217778
0.0218387
0.0220292
0.00223877
0.00229658
0.00226111
0.0023187
0.0222184
0.0218903
0.0224651
0.0221399
0.00239976
0.00246506
0.00242185
0.00248678
0.0213595
0.0216932
0.0216307
0.0219612
0.00241896
0.0023529
0.00244245
0.00237675
0.0212439
0.0210481
0.0215163
0.0213224
0.0022495
0.00219111
0.00227354
0.00221547
0.0209748
0.0209747
0.0212499
0.0212499
0.00216513
0.00216512
0.00218965
0.00218964
0.021048
0.0212436
0.0213222
0.0215159
0.0021911
0.00224949
0.00221546
0.00227352
0.0216927
0.0213589
0.0219608
0.0216301
0.00235288
0.00241894
0.00237673
0.00244243
0.020779
0.0211187
0.0210757
0.0214123
0.00236866
0.00230199
0.00239436
0.00232796
0.0206617
0.0204617
0.0209593
0.0207615
0.00219785
0.0021387
0.00222431
0.00216556
0.0203866
0.0203865
0.0206871
0.0206871
0.00211237
0.00211237
0.0021394
0.0021394
0.0204615
0.0206614
0.0207613
0.020959
0.00213869
0.00219784
0.00216556
0.0022243
0.0211182
0.0207784
0.0214119
0.0210751
0.00230197
0.00236864
0.00232795
0.00239434
0.0201499
0.0204816
0.0204686
0.020809
0.00231328
0.00224535
0.0023416
0.00227458
0.0200163
0.0198144
0.0203484
0.0201464
0.00213961
0.00208004
0.00216977
0.00211027
0.0197402
0.0197401
0.020071
0.020071
0.00205375
0.00205375
0.00208386
0.00208386
0.0198142
0.020016
0.0201463
0.0203481
0.00208003
0.0021396
0.00211026
0.00216975
0.0204812
0.0201493
0.0208086
0.0204681
0.00224533
0.00231326
0.00227456
0.00234158
0.0195489
0.0197251
0.0198371
0.0201269
0.0022507
0.00216955
0.00228365
0.00221219
0.0192731
0.0190936
0.0196592
0.019463
0.00206906
0.00201325
0.00210643
0.00204771
0.0190309
0.0190309
0.0193929
0.0193928
0.00198873
0.00198873
0.00202197
0.00202197
0.0190934
0.0192729
0.0194629
0.0196589
0.00201324
0.00206905
0.0020477
0.00210642
0.0197247
0.0195483
0.0201265
0.0198366
0.00216954
0.00225069
0.00221217
0.00228363
0.0525721
0.0522919
0.0493707
0.0492991
0.0386789
0.0385278
0.0362311
0.0362494
0.0518509
0.0518374
0.0487802
0.0487284
0.0380997
0.0380628
0.0357494
0.0356965
0.0519303
0.0519282
0.0488138
0.0488117
0.0381296
0.0381283
0.0357693
0.035768
0.0518313
0.0518415
0.0487222
0.0487706
0.0380591
0.0380939
0.0356926
0.0357434
0.0522799
0.0525578
0.0492868
0.0493562
0.0385202
0.03867
0.0362415
0.0362222
0.056723
0.0564795
0.0548678
0.0545948
0.0415323
0.041451
0.0402705
0.0401513
0.0561124
0.0561232
0.0541917
0.0541929
0.0411058
0.0410852
0.0397671
0.0397389
0.0562145
0.0562126
0.0542861
0.0542841
0.0411412
0.0411401
0.0397996
0.0397984
0.0561177
0.0561038
0.0541871
0.0541828
0.041082
0.0411007
0.0397354
0.0397616
0.0564686
0.05671
0.0545833
0.0548544
0.0414442
0.0415244
0.0401442
0.0402624
0.0596664
0.059467
0.0582955
0.0580765
0.0435181
0.0434787
0.0425971
0.0425403
0.0591522
0.0591758
0.0577383
0.0577559
0.043184
0.0431751
0.0422238
0.0422096
0.0592635
0.0592618
0.0578451
0.0578433
0.0432269
0.0432259
0.0422627
0.0422616
0.0591709
0.0591447
0.0577508
0.0577304
0.0431723
0.0431795
0.0422065
0.0422191
0.0594573
0.0596547
0.0580662
0.0582833
0.0434728
0.043511
0.042534
0.04259
0.0619371
0.0617676
0.0608683
0.060685
0.0450201
0.0450072
0.0443172
0.0442919
0.0614885
0.0615209
0.0603894
0.0604175
0.0447446
0.0447442
0.0440147
0.0440103
0.0616069
0.0616054
0.0605039
0.0605024
0.0447953
0.0447944
0.0440613
0.0440604
0.0615167
0.0614818
0.0604129
0.0603824
0.0447418
0.0447407
0.0440076
0.0440106
0.061759
0.0619266
0.0606758
0.0608574
0.045002
0.0450137
0.0442863
0.0443108
0.0637387
0.063592
0.0628862
0.0627287
0.0461884
0.0461968
0.0456382
0.0456364
0.0633401
0.0633799
0.062464
0.0625
0.0459583
0.0459647
0.0453867
0.0453897
0.0634653
0.063464
0.0625855
0.0625841
0.0460161
0.0460154
0.0454409
0.0454401
0.0633761
0.0633343
0.0624961
0.0624578
0.0459625
0.0459549
0.0453874
0.045383
0.0635844
0.0637294
0.0627206
0.0628765
0.0461922
0.0461828
0.0456315
0.0456325
0.0651893
0.0650608
0.0645007
0.0643635
0.0471141
0.04714
0.0466764
0.0466939
0.064831
0.0648773
0.0641233
0.0641662
0.0469212
0.0469332
0.0464658
0.046475
0.0649629
0.0649618
0.0642515
0.0642503
0.0469852
0.0469845
0.0465267
0.046526
0.064874
0.0648259
0.0641627
0.0641178
0.0469314
0.0469182
0.046473
0.0464626
0.0650541
0.0651809
0.0643564
0.064492
0.0471359
0.0471091
0.0466896
0.0466713
0.0663667
0.0662531
0.0658069
0.0656862
0.0478554
0.0478959
0.0475041
0.0475376
0.0660417
0.066094
0.065466
0.0655152
0.0476934
0.0477105
0.0473274
0.047342
0.0661802
0.0661792
0.065601
0.0655999
0.0477629
0.0477623
0.0473941
0.0473935
0.0660911
0.0660372
0.0655122
0.0654612
0.0477088
0.0476908
0.0473403
0.0473247
0.0662472
0.0663592
0.0656798
0.0657991
0.0478923
0.047851
0.0475338
0.0474996
0.0673245
0.0672233
0.0668689
0.0667618
0.0484515
0.0485038
0.0481688
0.0482155
0.0670274
0.0670852
0.0665585
0.0666134
0.0483152
0.0483367
0.0480204
0.0480396
0.0671722
0.0671713
0.0666999
0.066699
0.0483897
0.0483892
0.0480923
0.0480917
0.0670826
0.0670235
0.0666108
0.0665543
0.0483353
0.048313
0.0480381
0.048018
0.067218
0.0673179
0.0667561
0.066862
0.0485007
0.0484476
0.0482121
0.0481649
0.0681014
0.0680104
0.0677323
0.0676363
0.0489291
0.0489911
0.048703
0.0487603
0.067828
0.0678907
0.0674476
0.0675077
0.0488145
0.0488401
0.0485781
0.0486016
0.0679787
0.0679779
0.0675951
0.0675943
0.0488936
0.0488932
0.0486548
0.0486543
0.0678885
0.0678245
0.0675054
0.0674439
0.0488388
0.0488126
0.0486002
0.048576
0.0680057
0.0680955
0.0676314
0.0677261
0.0489884
0.0489257
0.0487574
0.0486995
0.0687259
0.0686434
0.06843
0.0683434
0.0493075
0.0493778
0.0491289
0.0491952
0.0684727
0.0685402
0.0681672
0.0682322
0.0492117
0.0492409
0.0490242
0.0490516
0.0686292
0.0686285
0.0683206
0.0683199
0.0492952
0.0492948
0.0491054
0.049105
0.0685382
0.0684696
0.0682301
0.0681638
0.0492398
0.0492099
0.0490504
0.0490223
0.0686392
0.0687205
0.0683389
0.0684244
0.0493753
0.0493045
0.0491926
0.0491259
0.06922
0.0691445
0.0689868
0.068908
0.0496017
0.0496787
0.0494637
0.0495374
0.0689842
0.069056
0.0687429
0.0688124
0.0495218
0.0495546
0.0493762
0.0494072
0.0691461
0.0691454
0.0689019
0.0689012
0.0496096
0.0496092
0.0494618
0.0494614
0.0690541
0.0689813
0.0688105
0.0687398
0.0495536
0.0495202
0.0494062
0.0493745
0.0691406
0.069215
0.068904
0.0689817
0.0496764
0.0495987
0.049535
0.0494608
0.0696
0.0695306
0.0694219
0.0693498
0.0498227
0.0499053
0.0497199
0.0498
0.0693797
0.0694556
0.0691945
0.0692683
0.0497566
0.0497927
0.0496475
0.0496819
0.0695468
0.0695462
0.0693589
0.0693583
0.0498484
0.0498481
0.0497372
0.0497369
0.0694538
0.069377
0.0692665
0.0691917
0.0497917
0.0497551
0.0496809
0.0496459
0.069527
0.0695953
0.069346
0.0694171
0.0499031
0.04982
0.0497977
0.0497173
0.0698799
0.0698156
0.0697507
0.0696839
0.0499788
0.0500662
0.0499075
0.0499927
0.0696728
0.0697525
0.0695373
0.0696152
0.0499251
0.0499642
0.0498481
0.0498857
0.0698451
0.0698446
0.0697069
0.0697064
0.0500208
0.0500205
0.0499419
0.0499415
0.0697509
0.0696703
0.0696135
0.0695347
0.0499633
0.0499236
0.0498848
0.0498465
0.0698123
0.0698756
0.0696803
0.0697462
0.0500641
0.0499761
0.0499906
0.0499049
0.0700719
0.0700116
0.0699852
0.0699229
0.0500781
0.050169
0.0500343
0.0501235
0.0698755
0.0699583
0.0697839
0.0698652
0.050034
0.0500759
0.0499859
0.0500269
0.0700518
0.0700513
0.069958
0.0699575
0.0501335
0.0501332
0.0500839
0.0500836
0.0699568
0.0698732
0.0698637
0.0697815
0.0500751
0.0500326
0.050026
0.0499845
0.0700083
0.0700678
0.0699196
0.0699812
0.0501671
0.0500756
0.0501215
0.0500319
0.0701836
0.0701265
0.0701366
0.070078
0.0501263
0.0502199
0.0501083
0.0502006
0.0699973
0.0700831
0.0699458
0.07003
0.0500911
0.0501357
0.0500688
0.0501117
0.0701776
0.0701771
0.0701237
0.0701233
0.0501938
0.0501936
0.0501691
0.0501689
0.0700818
0.0699952
0.0700286
0.0699436
0.050135
0.0500898
0.0501109
0.0500675
0.0701238
0.0701798
0.0700748
0.0701323
0.0502181
0.0501237
0.0501987
0.0501059
0.0702211
0.0701663
0.0702104
0.0701548
0.050126
0.0502217
0.0501311
0.0502262
0.070042
0.07013
0.0700282
0.0701151
0.0500974
0.050144
0.0501
0.0501455
0.0702252
0.0702248
0.0702098
0.0702094
0.0502027
0.0502024
0.0502038
0.0502036
0.0701288
0.07004
0.0701138
0.0700262
0.0501433
0.0500962
0.0501448
0.0500988
0.0701632
0.070217
0.0701522
0.0702073
0.05022
0.0501236
0.0502244
0.0501288
0.0701823
0.0701304
0.0702102
0.0701565
0.0500748
0.0501726
0.0501062
0.0502025
0.0700126
0.0701036
0.0700356
0.070125
0.0500544
0.0501039
0.0500814
0.0501294
0.0701998
0.0701994
0.0702205
0.0702202
0.0501637
0.0501635
0.0501886
0.0501884
0.0701025
0.070011
0.0701238
0.0700337
0.0501033
0.0500535
0.0501288
0.0500804
0.0701291
0.0701803
0.0701539
0.0702062
0.0501713
0.0500729
0.0502009
0.0501041
0.0700772
0.0700271
0.0701367
0.0700863
0.0499815
0.0500808
0.0500325
0.0501316
0.0699134
0.070007
0.0699709
0.0700631
0.0499658
0.0500177
0.0500153
0.050066
0.0701044
0.0701041
0.0701598
0.0701595
0.0500787
0.0500785
0.0501264
0.0501262
0.0700062
0.0699119
0.0700621
0.0699694
0.0500174
0.0499653
0.0500656
0.0500145
0.0700242
0.0700735
0.0700843
0.070135
0.05008
0.0499806
0.0501305
0.0500312
0.0699018
0.069854
0.0699974
0.069948
0.049842
0.0499423
0.0499172
0.0500165
0.0697461
0.0698427
0.0698374
0.0699324
0.0498321
0.0498866
0.0499041
0.0499573
0.0699414
0.0699412
0.0700305
0.0700302
0.0499489
0.0499488
0.0500189
0.0500188
0.0698421
0.0697452
0.0699317
0.0698362
0.0498865
0.0498321
0.0499571
0.0499039
0.0698538
0.0699011
0.0699464
0.0699942
0.0499425
0.049842
0.0500163
0.0499169
0.0696645
0.0696181
0.0697897
0.0697432
0.0496616
0.0497628
0.049756
0.0498572
0.0695134
0.0696125
0.0696372
0.069735
0.0496548
0.0497116
0.0497485
0.0498042
0.0697123
0.069712
0.0698343
0.0698341
0.049775
0.0497749
0.049867
0.049867
0.0696116
0.069512
0.0697343
0.0696362
0.0497113
0.0496544
0.049804
0.0497484
0.0696152
0.0696608
0.0697418
0.0697889
0.0497622
0.0496609
0.0498573
0.0497561
0.0693602
0.0693153
0.0695202
0.069474
0.0494369
0.0495381
0.0495547
0.0496554
0.0692153
0.0693167
0.0693718
0.0694721
0.0494335
0.0494922
0.0495493
0.0496071
0.0694175
0.0694172
0.0695724
0.0695721
0.0495566
0.0495564
0.049671
0.0496709
0.0693155
0.0692135
0.069471
0.0693702
0.0494915
0.0494324
0.0496066
0.0495486
0.0693139
0.0693579
0.0694717
0.069516
0.0495367
0.0494349
0.0496543
0.0495533
0.0689933
0.0689496
0.0691835
0.0691398
0.0491692
0.0492711
0.0493077
0.0494096
0.0688517
0.0689549
0.0690411
0.0691434
0.0491677
0.0492276
0.0493058
0.0493652
0.0690566
0.0690562
0.0692446
0.0692442
0.0492929
0.0492926
0.04943
0.0494298
0.0689535
0.0688492
0.0691421
0.069039
0.0492267
0.0491661
0.0493644
0.0493045
0.0689453
0.0689879
0.069137
0.069181
0.0492688
0.0491662
0.0494077
0.0493053
0.0685571
0.0685151
0.0687834
0.06874
0.0488551
0.0489573
0.0490178
0.0491194
0.0684212
0.0685262
0.0686442
0.0687483
0.0488564
0.0489175
0.0490175
0.049078
0.0686288
0.0686283
0.0688504
0.0688499
0.0489836
0.0489832
0.0491436
0.0491433
0.0685247
0.0684187
0.0687468
0.0686416
0.0489164
0.0488544
0.0490769
0.0490156
0.0685126
0.0685535
0.0687363
0.0687776
0.0489543
0.0488512
0.0491167
0.0490143
0.0680555
0.0680151
0.0683135
0.0682728
0.0484958
0.0485988
0.0486804
0.0487833
0.0679226
0.0680291
0.0681799
0.0682856
0.0484984
0.0485606
0.048683
0.0487446
0.0681325
0.0681321
0.0683885
0.0683881
0.0486274
0.0486271
0.048811
0.0488107
0.0680277
0.06792
0.0682841
0.0681773
0.0485597
0.0484966
0.0487436
0.048681
0.0680104
0.0680498
0.0682693
0.0683101
0.0485957
0.0484918
0.0487803
0.0486767
0.0674812
0.0674427
0.067777
0.067737
0.0480862
0.0481902
0.0482972
0.0484002
0.0673535
0.0674617
0.0676463
0.0677536
0.0480923
0.0481555
0.0483011
0.0483638
0.067566
0.0675656
0.0678574
0.067857
0.0482232
0.048223
0.048431
0.0484308
0.0674606
0.0673516
0.0677523
0.067644
0.0481549
0.0480909
0.048363
0.0482994
0.0674405
0.0674775
0.0677333
0.0677711
0.0481876
0.0480823
0.0483972
0.0482932
0.0668367
0.0668005
0.0671665
0.0671297
0.0476278
0.047734
0.0478623
0.0479676
0.0667126
0.066822
0.0670416
0.0671504
0.0476367
0.047701
0.0478705
0.0479342
0.066927
0.0669267
0.067255
0.0672546
0.0477693
0.0477692
0.0480022
0.048002
0.0668211
0.066711
0.0671494
0.0670399
0.0477006
0.0476359
0.0479337
0.0478694
0.0667975
0.0668329
0.0671274
0.0671641
0.0477326
0.0476257
0.0479657
0.0478594
0.0661165
0.0660824
0.0664857
0.0664502
0.0471177
0.0472255
0.0473793
0.0474859
0.0659963
0.066107
0.0663634
0.0664734
0.047129
0.0471949
0.047389
0.0474541
0.0662126
0.0662123
0.0665787
0.0665784
0.0472641
0.0472639
0.0475228
0.0475227
0.0661061
0.0659949
0.0664725
0.0663619
0.0471944
0.0471284
0.0474537
0.0473883
0.0660807
0.0661135
0.0664476
0.0664815
0.0472245
0.0471161
0.0474848
0.0473776
0.0653193
0.0652875
0.0657266
0.0656939
0.0465564
0.0466663
0.0468427
0.0469518
0.0652022
0.0653138
0.0656085
0.0657196
0.0465689
0.0466357
0.0468553
0.0469217
0.0654201
0.0654198
0.0658256
0.0658253
0.0467057
0.0467055
0.0469912
0.0469911
0.0653129
0.0652008
0.0657187
0.0656071
0.0466353
0.0465682
0.0469212
0.0468546
0.0652856
0.0653166
0.0656922
0.0657244
0.0466653
0.0465551
0.0469508
0.0468413
0.0644419
0.0644123
0.0648899
0.0648592
0.0459423
0.0460532
0.0462557
0.046366
0.0643275
0.0644396
0.0647744
0.0648864
0.0459547
0.046022
0.0462683
0.0463354
0.0645463
0.0645459
0.0649929
0.0649925
0.0460923
0.0460922
0.0464056
0.0464055
0.0644387
0.0643259
0.0648854
0.0647729
0.0460215
0.0459539
0.046335
0.0462676
0.0644101
0.0644389
0.0648571
0.0648871
0.046052
0.0459406
0.0463649
0.0462543
0.063482
0.0634542
0.0639717
0.0639431
0.045273
0.0453849
0.0456142
0.0457256
0.0633688
0.0634805
0.0638583
0.0639703
0.0452844
0.0453514
0.0456264
0.0456936
0.063587
0.0635867
0.0640769
0.0640766
0.0454218
0.0454217
0.045764
0.0457639
0.0634796
0.0633672
0.0639693
0.0638567
0.0453508
0.0452835
0.0456931
0.0456255
0.063452
0.0634789
0.0639408
0.0639686
0.0453836
0.0452712
0.0457243
0.0456125
0.0624345
0.0624078
0.0629688
0.0629417
0.0445459
0.0446583
0.0449164
0.0450286
0.0623206
0.0624309
0.0628557
0.0629668
0.0445549
0.0446209
0.044927
0.0449935
0.0625368
0.0625364
0.063073
0.0630726
0.0446911
0.0446909
0.0450639
0.0450637
0.0624299
0.0623189
0.0629658
0.062854
0.0446203
0.044554
0.0449929
0.0449261
0.0624055
0.0624313
0.0629393
0.0629657
0.0446569
0.0445441
0.0450272
0.0449147
0.0612922
0.0612662
0.0618749
0.0618487
0.0437574
0.0438699
0.0441592
0.0442717
0.0611754
0.0612834
0.06176
0.0618692
0.0437622
0.0438263
0.0441665
0.0442315
0.0613882
0.0613878
0.0619746
0.0619742
0.0438959
0.0438957
0.0443015
0.0443013
0.0612824
0.0611737
0.0618682
0.0617583
0.0438257
0.0437612
0.044231
0.0441655
0.0612638
0.061289
0.0618463
0.0618718
0.0438686
0.0437555
0.0442703
0.0441574
0.060046
0.0600197
0.0606819
0.0606559
0.0429021
0.0430139
0.043338
0.0434503
0.0599239
0.0600287
0.0605629
0.0606694
0.0429005
0.0429622
0.04334
0.043403
0.060132
0.0601316
0.0607735
0.0607731
0.043031
0.0430308
0.0434722
0.043472
0.0600276
0.0599221
0.0606684
0.0605612
0.0429616
0.0428996
0.0434024
0.0433391
0.0600173
0.0600427
0.0606535
0.0606787
0.0430125
0.0429002
0.0434489
0.0433362
0.0586851
0.0586572
0.0593798
0.0593529
0.0419737
0.0420835
0.042447