/*--------------------------------*- C++ -*----------------------------------*\
  =========                 |
  \\      /  F ield         | OpenFOAM: The Open Source CFD Toolbox
   \\    /   O peration     | Website:  https://openfoam.org
    \\  /    A nd           | Version:  9
     \\/     M anipulation  |
\*---------------------------------------------------------------------------*/
FoamFile
{
    format      ascii;
    class       volScalarField;
    location    "3.8";
    object      p;
}
// * * * * * * * * * * * * * * * * * * * * * * * * * * * * * * * * * * * * * //

dimensions      [0 2 -2 0 0 0 0];

internalField   nonuniform List<scalar> 
36360
(
20.2345
20.001
20.2229
20.0121
20.0049
20.1774
20.0245
20.1469
20.0828
20.0986
20.0887
20.1053
20.1083
20.0949
20.098
20.092
20.1004
20.1004
20.1072
20.1072
20.0937
20.0937
20.0919
20.0919
20.0986
20.0828
20.1053
20.0888
20.0949
20.1083
20.092
20.098
20.001
20.2345
20.0121
20.2229
20.1774
20.0049
20.1469
20.0245
20.1185
20.0717
20.1613
20.0498
19.9134
20.2458
19.9574
20.2193
20.1101
20.1013
20.0982
20.0989
20.1401
20.1016
20.1253
20.0983
20.0965
20.0965
20.0975
20.0975
20.0944
20.0944
20.0943
20.0943
20.1013
20.1101
20.0989
20.0982
20.1016
20.1401
20.0983
20.1253
20.0717
20.1185
20.0498
20.1613
20.2457
19.9134
20.2193
19.9574
20.0705
20.0864
20.0911
20.0818
19.8562
20.2703
19.8808
20.2614
20.13
20.1106
20.1211
20.1056
20.1635
20.1111
20.1529
20.1061
20.0985
20.0985
20.097
20.097
20.097
20.097
20.0953
20.0953
20.1106
20.13
20.1056
20.1211
20.1111
20.1634
20.1061
20.1529
20.0864
20.0705
20.0818
20.0911
20.2703
19.8563
20.2614
19.8808
20.0424
20.0875
20.0547
20.0878
19.8226
20.2771
19.8374
20.275
20.1423
20.1197
20.137
20.1154
20.1777
20.1208
20.1716
20.1161
20.1032
20.1032
20.1006
20.1006
20.1016
20.1016
20.0991
20.0991
20.1197
20.1423
20.1154
20.137
20.1208
20.1777
20.1161
20.1716
20.0875
20.0424
20.0878
20.0547
20.2771
19.8227
20.2749
19.8374
20.0248
20.0846
20.0326
20.0863
19.8014
20.2777
19.8109
20.2778
20.149
20.1271
20.1462
20.1237
20.1855
20.1289
20.1822
20.1251
20.1088
20.1088
20.1059
20.1059
20.1071
20.1071
20.1043
20.1043
20.1271
20.149
20.1236
20.1462
20.1289
20.1855
20.1251
20.1822
20.0846
20.0248
20.0863
20.0326
20.2777
19.8014
20.2778
19.8109
20.013
20.0808
20.0183
20.0827
19.7872
20.2762
19.7936
20.2771
20.1521
20.1328
20.1509
20.1302
20.1896
20.135
20.1879
20.1322
20.1141
20.1141
20.1115
20.1115
20.1124
20.1124
20.1098
20.1098
20.1328
20.1521
20.1302
20.1509
20.135
20.1896
20.1322
20.1879
20.0808
20.013
20.0827
20.0183
20.2762
19.7872
20.2771
19.7937
20.0046
20.0771
20.0084
20.0789
19.7771
20.2742
19.7817
20.2752
20.1535
20.1368
20.153
20.135
20.1918
20.1394
20.1909
20.1374
20.1186
20.1186
20.1165
20.1165
20.117
20.117
20.1148
20.1148
20.1368
20.1536
20.135
20.153
20.1394
20.1918
20.1374
20.1909
20.0771
20.0046
20.0789
20.0084
20.2742
19.7771
20.2752
19.7817
19.9983
20.0737
20.0012
20.0754
19.7697
20.2721
19.7732
20.2731
20.154
20.1396
20.1539
20.1383
20.1929
20.1423
20.1925
20.141
20.1221
20.1221
20.1205
20.1205
20.1206
20.1206
20.1189
20.1189
20.1396
20.154
20.1384
20.1539
20.1424
20.1929
20.141
20.1925
20.0738
19.9984
20.0754
20.0012
20.2722
19.7697
20.2731
19.7732
19.9935
20.0708
19.9958
20.0722
19.7638
20.2701
19.7667
20.271
20.1538
20.1413
20.1539
20.1406
20.1933
20.1443
20.1932
20.1434
20.1246
20.1246
20.1235
20.1235
20.1233
20.1233
20.1221
20.1221
20.1413
20.1538
20.1406
20.154
20.1443
20.1932
20.1434
20.1931
20.0708
19.9935
20.0723
19.9958
20.2699
19.7645
20.271
19.7669
19.9896
20.0682
19.9915
20.0695
19.7596
20.2681
19.7611
20.2693
20.1532
20.1423
20.1536
20.1419
20.1932
20.1455
20.1934
20.145
20.1263
20.1263
20.1256
20.1256
20.1252
20.1252
20.1244
20.1243
20.1423
20.1532
20.1419
20.1536
20.1454
20.1932
20.145
20.1933
20.0682
19.9897
20.0695
19.9915
20.2681
19.7597
20.269
19.762
19.9864
20.0658
19.9879
20.0669
19.7565
20.2661
19.7585
20.2669
20.1522
20.1426
20.1527
20.1425
20.1926
20.1459
20.1928
20.1457
20.1271
20.1271
20.1268
20.1268
20.1262
20.1262
20.1258
20.1258
20.1426
20.1522
20.1425
20.1528
20.1459
20.1926
20.1458
20.1929
20.0658
19.9863
20.067
19.9879
20.2661
19.7561
20.2671
19.7578
19.9835
20.0635
19.9849
20.0647
19.7536
20.2641
19.7545
20.2653
20.151
20.1422
20.1517
20.1425
20.1916
20.1457
20.1922
20.1459
20.1273
20.1273
20.1273
20.1273
20.1266
20.1266
20.1265
20.1265
20.1422
20.151
20.1425
20.1517
20.1457
20.1916
20.1459
20.1922
20.0634
19.9835
20.0646
19.9849
20.2639
19.7536
20.2652
19.7544
19.9809
20.0612
19.9821
20.0623
19.7518
20.2617
19.7528
20.2628
20.1494
20.1414
20.1502
20.1419
20.1902
20.145
20.191
20.1454
20.1268
20.1268
20.1271
20.1271
20.1262
20.1263
20.1265
20.1265
20.1414
20.1495
20.1419
20.1503
20.1451
20.1904
20.1455
20.191
20.0613
19.9809
20.0624
19.9821
20.2621
19.7507
20.2629
19.7523
19.9784
20.0589
19.9796
20.06
19.7499
20.2592
19.7509
20.2605
20.1476
20.1401
20.1485
20.1408
20.1885
20.1438
20.1894
20.1444
20.1257
20.1258
20.1263
20.1263
20.1253
20.1254
20.1259
20.1259
20.1401
20.1476
20.1408
20.1486
20.1438
20.1886
20.1445
20.1895
20.059
19.9785
20.0602
19.9797
20.2594
19.7493
20.2608
19.7499
19.9761
20.0567
19.9772
20.0578
19.7468
20.257
19.7484
20.2581
20.1455
20.1384
20.1466
20.1393
20.1865
20.1422
20.1875
20.143
20.1242
20.1242
20.125
20.125
20.1239
20.1239
20.1247
20.1247
20.1383
20.1455
20.1393
20.1466
20.1421
20.1864
20.143
20.1875
20.0566
19.976
20.0578
19.9772
20.2566
19.7479
20.258
19.7486
19.9735
20.0544
19.9748
20.0556
19.7458
20.2536
19.746
20.2555
20.1432
20.1362
20.1444
20.1373
20.1839
20.1399
20.1853
20.1411
20.1222
20.1222
20.1233
20.1233
20.1219
20.1219
20.123
20.123
20.1362
20.1431
20.1373
20.1443
20.1399
20.1839
20.1411
20.1852
20.0544
19.9736
20.0555
19.9748
20.2536
19.7462
20.2551
19.7471
19.971
20.0517
19.9722
20.053
19.7442
20.2505
19.7454
20.2519
20.1405
20.1336
20.1419
20.1349
20.181
20.1373
20.1824
20.1386
20.1197
20.1197
20.121
20.121
20.1194
20.1194
20.1207
20.1207
20.1336
20.1405
20.1349
20.1419
20.1372
20.181
20.1386
20.1825
20.0517
19.9711
20.0531
19.9723
20.2505
19.7446
20.2521
19.7453
19.9684
20.0493
19.9697
20.0505
19.742
20.2473
19.743
20.249
20.1378
20.1307
20.1392
20.1322
20.1778
20.1342
20.1795
20.1358
20.1169
20.1169
20.1184
20.1183
20.1164
20.1164
20.118
20.118
20.1307
20.1377
20.1321
20.1391
20.1341
20.1777
20.1357
20.1793
20.0492
19.9684
20.0504
19.9697
20.247
19.7427
20.2486
19.744
19.9659
20.0464
19.9672
20.0479
19.7411
20.2432
19.7414
20.2453
20.1347
20.1274
20.1363
20.1291
20.174
20.1306
20.176
20.1324
20.1137
20.1137
20.1153
20.1153
20.113
20.113
20.1148
20.1148
20.1274
20.1347
20.1291
20.1363
20.1307
20.1742
20.1325
20.176
20.0464
19.9658
20.0479
19.9671
20.2434
19.7401
20.2454
19.741
19.9632
20.0437
19.9646
20.045
19.7395
20.239
19.7406
20.241
20.1315
20.124
20.1331
20.1257
20.17
20.1267
20.172
20.1287
20.1102
20.1102
20.112
20.112
20.1091
20.1091
20.1111
20.1111
20.124
20.1315
20.1257
20.1331
20.1268
20.1701
20.1287
20.1721
20.0438
19.9632
20.0451
19.9646
20.2392
19.7383
20.2413
19.7394
19.9605
20.0408
19.9618
20.0424
19.738
20.2346
19.7385
20.2369
20.1282
20.1202
20.1299
20.1222
20.1656
20.1224
20.1679
20.1246
20.1064
20.1064
20.1084
20.1084
20.1049
20.1049
20.107
20.1071
20.1202
20.1282
20.1222
20.1299
20.1225
20.1657
20.1247
20.1679
20.0408
19.9604
20.0423
19.9617
20.2347
19.7371
20.237
19.7376
19.958
20.038
19.9593
20.0394
19.7363
20.2299
19.7372
20.2323
20.1248
20.1161
20.1265
20.1181
20.161
20.1179
20.1633
20.1202
20.1025
20.1025
20.1045
20.1045
20.1004
20.1004
20.1027
20.1027
20.1161
20.1248
20.1182
20.1265
20.1179
20.1611
20.1202
20.1634
20.038
19.9581
20.0394
19.9593
20.2302
19.7351
20.2326
19.7359
19.9555
20.0353
19.9568
20.0367
19.7341
20.2255
19.7353
20.2277
20.1214
20.1121
20.1231
20.1141
20.1563
20.1131
20.1586
20.1155
20.0984
20.0985
20.1005
20.1005
20.0957
20.0957
20.098
20.098
20.1121
20.1215
20.1141
20.1231
20.1131
20.1563
20.1155
20.1587
20.0353
19.9552
20.0366
19.9567
20.2253
19.734
20.2277
19.7346
19.953
20.0329
19.9543
20.0341
19.7334
20.2205
19.7335
20.2231
20.1183
20.1081
20.1199
20.1101
20.1514
20.1082
20.1539
20.1107
20.0944
20.0944
20.0964
20.0964
20.0908
20.0908
20.0932
20.0932
20.1081
20.1183
20.1101
20.1199
20.1082
20.1514
20.1107
20.1539
20.0328
19.953
20.0342
19.9539
20.2206
19.7328
20.2231
19.7332
19.9508
20.0307
19.9517
20.0318
19.732
20.2159
19.7328
20.2181
20.1155
20.1043
20.1169
20.1062
20.1466
20.1033
20.1489
20.1057
20.0906
20.0906
20.0925
20.0925
20.0859
20.0859
20.0883
20.0883
20.1043
20.1154
20.1062
20.1168
20.1033
20.1467
20.1057
20.149
20.0305
19.9511
20.0315
19.952
20.2162
19.731
20.2182
19.7322
19.9494
20.0287
19.9499
20.0297
19.7315
20.2112
19.7318
20.2135
20.1126
20.1007
20.1141
20.1025
20.1418
20.0984
20.1442
20.1008
20.087
20.087
20.0887
20.0887
20.0811
20.081
20.0834
20.0834
20.1007
20.1126
20.1025
20.1141
20.0984
20.1418
20.1008
20.1442
20.0287
19.9495
20.0296
19.9501
20.2114
19.7308
20.2137
19.7311
19.9483
20.0274
19.9488
20.028
19.7311
20.207
19.7312
20.2091
20.1094
20.0975
20.1109
20.0991
20.1371
20.0937
20.1394
20.096
20.0837
20.0837
20.0853
20.0853
20.0765
20.0765
20.0787
20.0787
20.0975
20.1095
20.0991
20.1109
20.0938
20.1372
20.0961
20.1395
20.0275
19.9481
20.0281
19.9487
20.2071
19.7306
20.2093
19.7304
19.948
20.0266
19.948
20.027
19.7316
20.2031
19.7313
20.205
20.107
20.0947
20.1081
20.0961
20.1327
20.0894
20.1349
20.0915
20.0809
20.0809
20.0822
20.0823
20.0722
20.0722
20.0743
20.0743
20.0947
20.107
20.0961
20.1082
20.0894
20.1328
20.0915
20.1349
20.0267
19.948
20.027
19.9479
20.2031
19.7315
20.205
19.731
19.9484
20.0266
19.9481
20.0265
19.7331
20.1997
19.7322
20.2013
20.1052
20.0925
20.106
20.0936
20.1288
20.0855
20.1307
20.0874
20.0788
20.0788
20.0798
20.0798
20.0685
20.0685
20.0703
20.0703
20.0925
20.1052
20.0936
20.106
20.0855
20.1288
20.0874
20.1307
20.0266
19.9484
20.0265
19.9481
20.1996
19.7331
20.2013
19.7322
19.9498
20.0274
19.9489
20.0269
19.7356
20.1967
19.7342
20.1981
20.1042
20.091
20.1046
20.0917
20.1255
20.0822
20.1271
20.0837
20.0773
20.0773
20.0779
20.0779
20.0654
20.0655
20.0669
20.0669
20.091
20.1042
20.0917
20.1046
20.0822
20.1255
20.0837
20.1271
20.0274
19.9498
20.0269
19.9489
20.1967
19.7356
20.1981
19.7342
19.9521
20.029
19.9508
20.0281
19.7394
20.1944
19.7373
20.1955
20.1039
20.0903
20.1039
20.0905
20.1227
20.0796
20.124
20.0808
20.0767
20.0767
20.0769
20.0769
20.0632
20.0632
20.0642
20.0642
20.0903
20.1039
20.0905
20.1039
20.0796
20.1227
20.0808
20.124
20.029
19.9521
20.0281
19.9508
20.1944
19.7394
20.1955
19.7373
19.9555
20.0315
19.9537
20.0302
19.7444
20.1929
19.7417
20.1936
20.1043
20.0903
20.104
20.0902
20.1207
20.0778
20.1216
20.0786
20.077
20.077
20.0767
20.0767
20.0619
20.0619
20.0624
20.0624
20.0903
20.1043
20.0902
20.104
20.0778
20.1207
20.0786
20.1216
20.0315
19.9555
20.0302
19.9537
20.1929
19.7445
20.1936
19.7417
19.9602
20.0349
19.9577
20.0331
19.751
20.1921
19.7475
20.1924
20.1055
20.0912
20.1048
20.0906
20.1194
20.0769
20.12
20.0773
20.0783
20.0783
20.0775
20.0775
20.0616
20.0616
20.0616
20.0616
20.0912
20.1055
20.0906
20.1048
20.0769
20.1194
20.0773
20.12
20.0349
19.9602
20.0331
19.9577
20.1921
19.751
20.1924
19.7476
19.9662
20.0391
19.963
20.0369
19.7593
20.1921
19.755
20.192
20.1074
20.093
20.1063
20.092
20.1189
20.0771
20.1191
20.0769
20.0807
20.0807
20.0794
20.0794
20.0626
20.0626
20.062
20.062
20.093
20.1073
20.092
20.1063
20.0771
20.1189
20.0769
20.1191
20.0391
19.9662
20.0369
19.963
20.1921
19.7593
20.192
19.755
19.9736
20.044
19.9697
20.0415
19.7696
20.1927
19.7642
20.1923
20.1099
20.0957
20.1085
20.0942
20.1191
20.0784
20.1189
20.0776
20.0841
20.0841
20.0823
20.0823
20.0648
20.0648
20.0636
20.0636
20.0957
20.1099
20.0942
20.1085
20.0784
20.1191
20.0776
20.1189
20.044
19.9736
20.0415
19.9697
20.1927
19.7696
20.1923
19.7642
19.9825
20.0494
19.9779
20.0467
19.7822
20.1936
19.7756
20.1931
20.1128
20.0992
20.1113
20.0973
20.1199
20.0808
20.1195
20.0794
20.0886
20.0886
20.0862
20.0862
20.0684
20.0684
20.0665
20.0665
20.0992
20.1128
20.0973
20.1113
20.0808
20.1199
20.0794
20.1194
20.0494
19.9825
20.0467
19.9779
20.1936
19.7822
20.1931
19.7756
19.9927
20.0553
19.9874
20.0523
19.7978
20.1942
19.7895
20.194
20.1162
20.1035
20.1145
20.1013
20.1212
20.0843
20.1205
20.0824
20.0941
20.0941
20.0912
20.0912
20.0733
20.0733
20.0707
20.0707
20.1035
20.1162
20.1013
20.1145
20.0843
20.1212
20.0824
20.1205
20.0553
19.9927
20.0523
19.9874
20.1942
19.7978
20.194
19.7896
20.0018
20.0632
19.9978
20.0587
19.8175
20.1932
19.8071
20.194
20.1199
20.1088
20.1179
20.106
20.1228
20.089
20.122
20.0865
20.1007
20.1007
20.0972
20.0972
20.0795
20.0795
20.0762
20.0762
20.1088
20.1199
20.106
20.1179
20.089
20.1228
20.0865
20.122
20.0632
20.0018
20.0587
19.9978
20.1932
19.8175
20.194
19.8071
20.0093
20.0728
20.0037
20.0699
19.8423
20.1884
19.8292
20.1915
20.1254
20.1153
20.1224
20.1119
20.1252
20.0952
20.1239
20.0919
20.1082
20.1082
20.1043
20.1043
20.087
20.087
20.0831
20.0831
20.1153
20.1254
20.1119
20.1224
20.0952
20.1252
20.0919
20.1239
20.0728
20.0093
20.0699
20.0037
20.1884
19.8424
20.1915
19.8292
20.4016
19.9518
20.3105
19.9841
20.3602
19.9406
20.2899
19.9748
20.0015
20.0665
20.0356
20.0833
20.027
20.0825
20.0512
20.0928
20.0957
20.0957
20.102
20.102
20.0992
20.0992
20.1028
20.1028
20.0665
20.0015
20.0833
20.0356
20.0825
20.027
20.0928
20.0512
19.9518
20.4015
19.9841
20.3105
19.9407
20.3602
19.9748
20.2898
20.2758
20.0408
20.3169
20.0185
20.2432
20.0194
20.2835
19.9985
20.0377
20.0684
20.0245
20.0673
20.0591
20.085
20.0468
20.0832
20.0866
20.0866
20.0905
20.0905
20.094
20.094
20.0963
20.0963
20.0684
20.0377
20.0673
20.0245
20.085
20.0591
20.0832
20.0468
20.0408
20.2758
20.0185
20.3168
20.0194
20.2432
19.9985
20.2835
20.2415
20.0465
20.2555
20.0464
20.2046
20.0271
20.2209
20.0258
20.0534
20.0762
20.047
20.0722
20.0761
20.0936
20.0687
20.0892
20.0873
20.0873
20.086
20.086
20.0951
20.0951
20.0939
20.0939
20.0762
20.0534
20.0722
20.047
20.0936
20.0761
20.0892
20.0687
20.0465
20.2415
20.0464
20.2555
20.0271
20.2046
20.0258
20.2208
20.2234
20.042
20.2312
20.0446
20.1827
20.024
20.1922
20.0261
20.0599
20.0834
20.0574
20.08
20.085
20.1016
20.0814
20.0977
20.0922
20.0922
20.0895
20.0895
20.0999
20.0999
20.0972
20.0972
20.0834
20.0599
20.08
20.0574
20.1016
20.085
20.0977
20.0814
20.042
20.2233
20.0446
20.2312
20.024
20.1827
20.0261
20.1922
20.2123
20.0364
20.2172
20.0391
20.1694
20.0189
20.1753
20.0214
20.0621
20.0889
20.0614
20.0864
20.0887
20.1083
20.0874
20.1052
20.0978
20.0978
20.095
20.095
20.1055
20.1055
20.1027
20.1027
20.0889
20.0621
20.0864
20.0614
20.1083
20.0887
20.1052
20.0874
20.0364
20.2123
20.0392
20.2172
20.0189
20.1694
20.0214
20.1753
20.205
20.0311
20.2083
20.0336
20.1605
20.014
20.1645
20.0164
20.0624
20.0928
20.0624
20.091
20.0897
20.1132
20.0894
20.1109
20.1029
20.1029
20.1005
20.1005
20.1108
20.1108
20.1083
20.1083
20.0928
20.0624
20.091
20.0624
20.1132
20.0897
20.1109
20.0894
20.0311
20.2049
20.0336
20.2083
20.014
20.1605
20.0164
20.1645
20.1997
20.0265
20.2021
20.0287
20.1543
20.0095
20.1572
20.0117
20.0618
20.0954
20.0622
20.0942
20.0895
20.1167
20.0897
20.1151
20.107
20.107
20.1051
20.1051
20.1152
20.1152
20.1131
20.1131
20.0954
20.0618
20.0942
20.0622
20.1167
20.0895
20.1151
20.0897
20.0265
20.1997
20.0287
20.2021
20.0096
20.1543
20.0117
20.1572
20.1957
20.0226
20.1976
20.0245
20.1496
20.0056
20.1518
20.0075
20.0608
20.097
20.0613
20.0963
20.0888
20.119
20.0892
20.118
20.11
20.11
20.1087
20.1087
20.1185
20.1185
20.117
20.117
20.097
20.0608
20.0963
20.0613
20.119
20.0889
20.118
20.0892
20.0226
20.1957
20.0245
20.1976
20.0057
20.1495
20.0076
20.1517
20.1925
20.0191
20.1941
20.0207
20.1459
20.0022
20.1476
20.0039
20.0595
20.0979
20.0601
20.0975
20.0879
20.1205
20.0884
20.1198
20.1121
20.1121
20.1112
20.1112
20.1209
20.1209
20.1198
20.1198
20.0979
20.0595
20.0976
20.0602
20.1205
20.0879
20.1199
20.0884
20.0191
20.1925
20.0208
20.194
20.0023
20.1458
20.004
20.1475
20.1899
20.0159
20.1912
20.0174
20.1429
19.9991
20.1444
20.0006
20.058
20.0981
20.0588
20.0981
20.0866
20.1212
20.0873
20.1209
20.1133
20.1133
20.1128
20.1128
20.1224
20.1224
20.1218
20.1218
20.0981
20.058
20.0981
20.0588
20.1212
20.0867
20.1209
20.0873
20.0159
20.1899
20.0174
20.1911
19.9992
20.1428
20.0007
20.1443
20.1875
20.013
20.1887
20.0144
20.1402
19.9963
20.1415
19.9977
20.0564
20.0978
20.0572
20.0981
20.0853
20.1212
20.086
20.1213
20.1137
20.1137
20.1136
20.1136
20.1231
20.1231
20.1228
20.1228
20.0978
20.0564
20.0981
20.0572
20.1212
20.0852
20.1213
20.086
20.013
20.1876
20.0144
20.1887
19.9962
20.1404
19.9977
20.1416
20.1854
20.0102
20.1865
20.0115
20.138
19.9936
20.1391
19.9949
20.0546
20.0971
20.0555
20.0975
20.0836
20.1207
20.0845
20.121
20.1136
20.1136
20.1137
20.1137
20.1231
20.1231
20.1232
20.1232
20.0971
20.0546
20.0975
20.0555
20.1207
20.0836
20.121
20.0845
20.0102
20.1854
20.0116
20.1865
19.9936
20.138
19.9949
20.1392
20.1833
20.0075
20.1844
20.0088
20.1359
19.9909
20.1369
19.9922
20.0527
20.096
20.0537
20.0966
20.0818
20.1198
20.0827
20.1203
20.1129
20.1129
20.1133
20.1133
20.1225
20.1225
20.1229
20.1229
20.096
20.0527
20.0966
20.0537
20.1198
20.0819
20.1203
20.0828
20.0075
20.1833
20.0088
20.1843
19.9909
20.1359
19.9922
20.1369
20.1812
20.0048
20.1822
20.0061
20.1337
19.9883
20.1348
19.9896
20.0506
20.0945
20.0517
20.0953
20.0798
20.1184
20.0809
20.1191
20.1117
20.1117
20.1123
20.1123
20.1214
20.1214
20.122
20.122
20.0945
20.0507
20.0953
20.0517
20.1184
20.0799
20.1192
20.0809
20.0048
20.1812
20.0062
20.1822
19.9883
20.1337
19.9897
20.1347
20.1789
20.0022
20.1801
20.0035
20.1317
19.9857
20.1326
19.987
20.0485
20.0928
20.0496
20.0937
20.0777
20.1167
20.0788
20.1176
20.1102
20.1102
20.111
20.111
20.1199
20.1199
20.1207
20.1207
20.0928
20.0485
20.0937
20.0496
20.1166
20.0776
20.1176
20.0788
20.0022
20.179
20.0035
20.1801
19.9856
20.1318
19.9869
20.1328
20.1768
19.9995
20.1778
20.0009
20.1295
19.983
20.1307
19.9843
20.0462
20.0908
20.0474
20.0918
20.0753
20.1145
20.0765
20.1156
20.1083
20.1083
20.1093
20.1093
20.1179
20.1179
20.1189
20.1189
20.0907
20.0462
20.0918
20.0474
20.1145
20.0752
20.1156
20.0765
19.9995
20.1768
20.0009
20.1778
19.9828
20.1297
19.9842
20.1308
20.1744
19.9968
20.1757
19.9981
20.127
19.9805
20.1283
19.9817
20.0438
20.0886
20.045
20.0897
20.0729
20.1122
20.0741
20.1134
20.1061
20.1061
20.1072
20.1072
20.1156
20.1156
20.1168
20.1168
20.0885
20.0437
20.0897
20.045
20.1121
20.0728
20.1134
20.074
19.9967
20.1747
19.9981
20.1758
19.9803
20.1272
19.9815
20.1285
20.1723
19.9941
20.1734
19.9954
20.1247
19.9777
20.1259
19.9791
20.0414
20.0862
20.0426
20.0874
20.0702
20.1095
20.0716
20.1108
20.1038
20.1038
20.105
20.105
20.1129
20.1129
20.1143
20.1143
20.0862
20.0414
20.0874
20.0426
20.1094
20.0702
20.1108
20.0715
19.9943
20.1721
19.9954
20.1734
19.9777
20.1247
19.979
20.1259
20.1695
19.9918
20.1709
19.9929
20.122
19.9753
20.1233
19.9765
20.0391
20.0838
20.0402
20.085
20.0675
20.1066
20.0689
20.108
20.1013
20.1012
20.1025
20.1025
20.11
20.11
20.1115
20.1115
20.0837
20.039
20.085
20.0402
20.1065
20.0675
20.108
20.0688
19.9916
20.1698
19.9929
20.171
19.9752
20.1222
19.9764
20.1235
20.1675
19.9892
20.1685
19.9905
20.1196
19.9726
20.1208
19.9739
20.0366
20.0812
20.0378
20.0825
20.0647
20.1034
20.0661
20.105
20.0986
20.0987
20.1
20.1
20.107
20.107
20.1085
20.1085
20.0812
20.0367
20.0825
20.0378
20.1034
20.0647
20.105
20.0661
19.9894
20.1672
19.9905
20.1685
19.9725
20.1197
19.9738
20.1209
20.1646
19.9873
20.1661
19.9882
20.117
19.9702
20.1183
19.9713
20.0346
20.0788
20.0356
20.08
20.0619
20.1002
20.0633
20.1017
20.0961
20.0961
20.0974
20.0974
20.1038
20.1038
20.1054
20.1054
20.0788
20.0344
20.08
20.0356
20.1002
20.0619
20.1017
20.0633
19.9871
20.165
19.9882
20.1662
19.9702
20.117
19.9713
20.1183
20.1628
19.9852
20.1637
19.9862
20.1147
19.9678
20.1159
19.969
20.0325
20.0765
20.0335
20.0777
20.0591
20.0976
20.0605
20.0989
20.0935
20.0935
20.0948
20.0948
20.1006
20.1006
20.1022
20.1022
20.0765
20.0325
20.0776
20.0335
20.0976
20.0591
20.0989
20.0605
19.9854
20.1625
19.9862
20.1637
19.9677
20.1148
19.9689
20.1159
20.1605
19.9838
20.1616
19.9844
20.1123
19.9659
20.1134
19.9669
20.0308
20.0745
20.0316
20.0755
20.0566
20.0948
20.0579
20.0962
20.0912
20.0912
20.0923
20.0923
20.0975
20.0975
20.099
20.099
20.0745
20.0307
20.0754
20.0316
20.0948
20.0565
20.0962
20.0578
19.9834
20.1611
19.9844
20.1617
19.9658
20.1124
19.9667
20.1136
20.1597
19.9822
20.16
19.983
20.1105
19.9642
20.1114
19.965
20.0293
20.0728
20.03
20.0736
20.054
20.0921
20.0553
20.0934
20.0891
20.0891
20.0901
20.0901
20.0946
20.0946
20.096
20.096
20.0728
20.0294
20.0736
20.0299
20.092
20.0539
20.0934
20.0552
19.9824
20.1594
19.9827
20.1603
19.964
20.1106
19.9648
20.1116
20.1584
19.9816
20.1591
19.9817
20.1088
19.963
20.1095
19.9636
20.0284
20.0714
20.0288
20.0721
20.0514
20.0896
20.0527
20.0908
20.0874
20.0874
20.0882
20.0882
20.0919
20.0919
20.0932
20.0932
20.0714
20.0283
20.072
20.0288
20.0896
20.0513
20.0908
20.0526
19.9815
20.1587
19.9819
20.1589
19.9628
20.1091
19.9633
20.1098
20.1583
19.9813
20.1582
19.9813
20.1083
19.9619
20.1086
19.9623
20.0283
20.0705
20.0284
20.071
20.0493
20.0876
20.0499
20.0885
20.0861
20.0861
20.0867
20.0867
20.0896
20.0896
20.0907
20.0907
20.0706
20.0283
20.071
20.0284
20.0876
20.0494
20.0885
20.0499
19.9814
20.1579
19.9813
20.1583
19.9619
20.1082
19.9623
20.1086
20.1579
19.9818
20.1581
19.9814
20.1075
19.9619
20.1079
19.9618
20.0283
20.0701
20.0282
20.0703
20.0501
20.0861
20.0498
20.0868
20.0853
20.0853
20.0856
20.0856
20.0877
20.0877
20.0886
20.0886
20.0701
20.0283
20.0703
20.0282
20.0861
20.0501
20.0868
20.0498
19.9817
20.1582
19.9815
20.158
19.9619
20.1075
19.9618
20.1079
20.1586
19.9831
20.1581
19.9822
20.1077
19.9625
20.1076
19.9621
20.0293
20.0704
20.0287
20.0702
20.0506
20.0851
20.0503
20.0856
20.0851
20.0851
20.0851
20.0851
20.0863
20.0864
20.0869
20.0869
20.0704
20.0293
20.0702
20.0287
20.0852
20.0506
20.0856
20.0504
19.9831
20.1586
19.9821
20.1583
19.9625
20.1077
19.9621
20.1075
20.1599
19.9853
20.1592
19.9841
20.1082
19.9641
20.1079
19.9632
20.031
20.0713
20.03
20.0707
20.0516
20.0848
20.051
20.0849
20.0855
20.0855
20.0852
20.0852
20.0857
20.0857
20.0859
20.0859
20.0713
20.031
20.0707
20.03
20.0848
20.0516
20.0849
20.051
19.9853
20.1599
19.9841
20.1591
19.9641
20.1082
19.9632
20.1079
20.1618
19.9886
20.1608
19.9868
20.1097
19.9663
20.1089
19.9651
20.0334
20.0729
20.0321
20.072
20.0531
20.0852
20.0523
20.0849
20.0867
20.0867
20.086
20.086
20.0858
20.0858
20.0856
20.0856
20.0729
20.0334
20.072
20.0321
20.0852
20.0531
20.0849
20.0523
19.9886
20.1618
19.9868
20.1608
19.9663
20.1097
19.9651
20.1089
20.1645
19.9934
20.1631
19.9907
20.112
19.9688
20.1107
19.9674
20.0367
20.0752
20.035
20.074
20.0553
20.0863
20.0541
20.0857
20.0886
20.0886
20.0876
20.0876
20.0867
20.0867
20.0861
20.0861
20.0752
20.0367
20.074
20.035
20.0863
20.0553
20.0857
20.0541
19.9934
20.1645
19.9907
20.1631
19.9688
20.112
19.9674
20.1107
20.1677
19.9965
20.166
19.9948
20.1151
19.9738
20.1135
19.9712
20.0405
20.0783
20.0385
20.0767
20.0583
20.0882
20.0567
20.0872
20.0913
20.0913
20.0899
20.0899
20.0884
20.0884
20.0875
20.0875
20.0783
20.0405
20.0767
20.0385
20.0882
20.0583
20.0872
20.0567
19.9965
20.1677
19.9948
20.166
19.9738
20.1151
19.9712
20.1135
20.1716
20.0012
20.1696
19.9987
20.1191
19.9792
20.117
19.9764
20.045
20.0821
20.0427
20.0801
20.062
20.0908
20.0601
20.0894
20.0947
20.0947
20.093
20.093
20.091
20.091
20.0896
20.0896
20.0821
20.045
20.0801
20.0427
20.0908
20.062
20.0894
20.0601
20.0012
20.1716
19.9987
20.1696
19.9792
20.1191
19.9764
20.117
20.1759
20.0067
20.1737
20.0038
20.1239
19.9852
20.1215
19.9821
20.0501
20.0865
20.0475
20.0842
20.0663
20.0942
20.0641
20.0924
20.0988
20.0988
20.0967
20.0967
20.0945
20.0945
20.0927
20.0927
20.0865
20.0501
20.0842
20.0475
20.0942
20.0663
20.0924
20.0641
20.0067
20.1759
20.0038
20.1737
19.9852
20.1239
19.9821
20.1214
20.1803
20.0128
20.1781
20.0096
20.1294
19.9919
20.1266
19.9884
20.0557
20.0913
20.0529
20.0888
20.0711
20.0982
20.0686
20.0961
20.1035
20.1035
20.1011
20.1011
20.0987
20.0987
20.0965
20.0965
20.0913
20.0557
20.0888
20.0529
20.0982
20.0711
20.0961
20.0686
20.0128
20.1803
20.0096
20.1781
19.9919
20.1294
19.9884
20.1266
20.1842
20.0197
20.1824
20.0161
20.1352
19.9994
20.1323
19.9955
20.0618
20.0966
20.0587
20.0939
20.0764
20.1028
20.0737
20.1005
20.1087
20.1087
20.1061
20.1061
20.1037
20.1037
20.1012
20.1012
20.0966
20.0618
20.0939
20.0587
20.1028
20.0764
20.1005
20.0737
20.0197
20.1842
20.0161
20.1824
19.9994
20.1352
19.9955
20.1323
20.1862
20.028
20.1856
20.0235
20.1404
20.0081
20.138
20.0035
20.0683
20.1021
20.065
20.0993
20.0819
20.1078
20.0791
20.1053
20.1145
20.1145
20.1115
20.1115
20.1094
20.1094
20.1065
20.1065
20.1021
20.0683
20.0993
20.065
20.1078
20.0819
20.1053
20.0791
20.028
20.1862
20.0235
20.1856
20.0081
20.1404
20.0035
20.138
20.1799
20.0427
20.185
20.0337
20.1404
20.0212
20.1419
20.0136
20.0752
20.1078
20.0716
20.1049
20.0878
20.1133
20.0847
20.1105
20.1207
20.1207
20.1175
20.1175
20.1159
20.1159
20.1126
20.1126
20.1078
20.0752
20.1049
20.0716
20.1133
20.0878
20.1105
20.0847
20.0427
20.1798
20.0337
20.185
20.0212
20.1404
20.0136
20.1419
20.1968
20.0368
20.1737
20.0531
20.156
20.0185
20.1376
20.0297
20.0775
20.1145
20.0785
20.1109
20.0918
20.1201
20.0909
20.1165
20.1277
20.1277
20.1242
20.1242
20.1231
20.1231
20.1194
20.1194
20.1145
20.0775
20.1109
20.0785
20.1201
20.0918
20.1165
20.0909
20.0368
20.1967
20.0531
20.1737
20.0185
20.156
20.0297
20.1376
20.4192
19.9869
20.319
20.0082
20.4139
19.9715
20.3165
19.9978
19.9851
20.0452
20.0251
20.0703
19.9895
20.0539
20.0279
20.0755
20.0815
20.0815
20.0948
20.0948
20.0887
20.0888
20.0988
20.0988
20.0452
19.9851
20.0703
20.0251
20.0539
19.9895
20.0755
20.0279
19.9869
20.4192
20.0082
20.319
19.9715
20.4138
19.9978
20.3164
20.2695
20.0935
20.3162
20.0679
20.2759
20.0706
20.3195
20.046
20.0341
20.0484
20.0167
20.0469
20.0321
20.0561
20.0172
20.055
20.0665
20.0665
20.0731
20.0731
20.0764
20.0764
20.0818
20.0818
20.0484
20.0341
20.0469
20.0167
20.0562
20.0321
20.055
20.0172
20.0935
20.2694
20.0679
20.3161
20.0706
20.2758
20.046
20.3195
20.2357
20.0992
20.2488
20.0993
20.2425
20.0759
20.2557
20.0762
20.0512
20.0556
20.0449
20.0519
20.0482
20.0635
20.0419
20.0597
20.0655
20.0655
20.0648
20.0648
20.0761
20.0761
20.0752
20.0752
20.0556
20.0512
20.0519
20.0449
20.0636
20.0482
20.0597
20.0419
20.0992
20.2357
20.0993
20.2488
20.0759
20.2425
20.0762
20.2557
20.2196
20.0946
20.2265
20.0972
20.2259
20.0711
20.2331
20.0738
20.0564
20.0618
20.0546
20.059
20.0539
20.07
20.0519
20.067
20.0699
20.0699
20.0674
20.0674
20.0808
20.0808
20.0782
20.0782
20.0618
20.0564
20.059
20.0546
20.07
20.0539
20.067
20.0519
20.0946
20.2196
20.0972
20.2264
20.0711
20.2259
20.0738
20.233
20.21
20.0892
20.2143
20.0918
20.2159
20.0657
20.2204
20.0684
20.0575
20.0661
20.0572
20.0641
20.0554
20.0746
20.055
20.0725
20.075
20.075
20.0725
20.0725
20.0862
20.0862
20.0836
20.0836
20.0661
20.0575
20.0641
20.0572
20.0746
20.0554
20.0725
20.055
20.0892
20.21
20.0918
20.2143
20.0657
20.2159
20.0684
20.2204
20.2036
20.0845
20.2066
20.0868
20.2092
20.0607
20.2123
20.0631
20.0573
20.0688
20.0574
20.0676
20.0553
20.0777
20.0555
20.0763
20.0793
20.0793
20.0773
20.0773
20.0909
20.0909
20.0887
20.0887
20.0688
20.0573
20.0676
20.0574
20.0777
20.0553
20.0763
20.0555
20.0845
20.2036
20.0868
20.2065
20.0607
20.2092
20.0631
20.2123
20.1989
20.0804
20.2011
20.0824
20.2043
20.0564
20.2066
20.0585
20.0565
20.0704
20.0569
20.0697
20.0545
20.0797
20.0549
20.0788
20.0826
20.0826
20.0811
20.0811
20.0946
20.0946
20.0929
20.0929
20.0704
20.0565
20.0697
20.0569
20.0797
20.0545
20.0788
20.0549
20.0804
20.1989
20.0824
20.2011
20.0564
20.2043
20.0585
20.2066
20.1953
20.0769
20.197
20.0786
20.2006
20.0527
20.2024
20.0545
20.0554
20.0713
20.056
20.0709
20.0533
20.0809
20.0539
20.0804
20.0848
20.0848
20.0838
20.0838
20.0972
20.0972
20.096
20.096
20.0713
20.0554
20.0709
20.056
20.0809
20.0533
20.0804
20.0539
20.0769
20.1953
20.0786
20.197
20.0527
20.2006
20.0545
20.2024
20.1923
20.0739
20.1937
20.0753
20.1976
20.0495
20.1991
20.051
20.0541
20.0715
20.0548
20.0714
20.0519
20.0814
20.0526
20.0812
20.0861
20.0861
20.0855
20.0855
20.0988
20.0988
20.0981
20.0981
20.0715
20.0541
20.0715
20.0548
20.0814
20.0519
20.0813
20.0526
20.0739
20.1923
20.0753
20.1937
20.0495
20.1976
20.051
20.1991
20.1898
20.071
20.1911
20.0724
20.1951
20.0465
20.1963
20.0479
20.0526
20.0713
20.0533
20.0714
20.0503
20.0814
20.0511
20.0815
20.0867
20.0867
20.0865
20.0865
20.0997
20.0997
20.0994
20.0994
20.0713
20.0526
20.0714
20.0534
20.0814
20.0504
20.0815
20.0512
20.071
20.1898
20.0724
20.191
20.0465
20.1951
20.0479
20.1963
20.1876
20.0684
20.1887
20.0697
20.1928
20.0437
20.194
20.0451
20.0509
20.0706
20.0518
20.071
20.0486
20.0809
20.0495
20.0812
20.0867
20.0867
20.0868
20.0868
20.0999
20.0999
20.0999
20.0999
20.0706
20.0509
20.071
20.0518
20.0809
20.0487
20.0812
20.0495
20.0684
20.1876
20.0697
20.1887
20.0437
20.1928
20.0451
20.194
20.1855
20.0658
20.1865
20.0671
20.1907
20.041
20.1918
20.0423
20.0491
20.0696
20.05
20.0701
20.0468
20.08
20.0477
20.0805
20.0862
20.0862
20.0865
20.0865
20.0996
20.0996
20.0998
20.0999
20.0696
20.0492
20.0701
20.0501
20.08
20.0468
20.0805
20.0478
20.0658
20.1855
20.0671
20.1865
20.041
20.1907
20.0424
20.1918
20.1834
20.0633
20.1845
20.0645
20.1886
20.0384
20.1897
20.0397
20.0472
20.0683
20.0482
20.0689
20.0448
20.0787
20.0458
20.0794
20.0853
20.0854
20.0858
20.0858
20.0988
20.0988
20.0993
20.0993
20.0683
20.0472
20.069
20.0482
20.0787
20.0449
20.0794
20.0459
20.0634
20.1834
20.0646
20.1845
20.0384
20.1886
20.0397
20.1897
20.1813
20.0609
20.1824
20.0621
20.1865
20.0359
20.1876
20.0371
20.0452
20.0667
20.0462
20.0675
20.0428
20.0772
20.0438
20.078
20.0841
20.0841
20.0848
20.0848
20.0976
20.0976
20.0983
20.0983
20.0667
20.0452
20.0675
20.0462
20.0772
20.0428
20.078
20.0438
20.0609
20.1814
20.0621
20.1824
20.0359
20.1865
20.0371
20.1876
20.1793
20.0585
20.1803
20.0597
20.1843
20.0333
20.1855
20.0346
20.0431
20.065
20.0441
20.0659
20.0406
20.0755
20.0417
20.0764
20.0826
20.0826
20.0834
20.0834
20.0961
20.0961
20.0969
20.0969
20.065
20.0431
20.0659
20.0441
20.0755
20.0406
20.0764
20.0417
20.0585