/*--------------------------------*- C++ -*----------------------------------*\
  =========                 |
  \\      /  F ield         | OpenFOAM: The Open Source CFD Toolbox
   \\    /   O peration     | Website:  https://openfoam.org
    \\  /    A nd           | Version:  9
     \\/     M anipulation  |
\*---------------------------------------------------------------------------*/
FoamFile
{
    format      ascii;
    class       volScalarField;
    location    "4";
    object      epsilon;
}
// * * * * * * * * * * * * * * * * * * * * * * * * * * * * * * * * * * * * * //

dimensions      [0 2 -3 0 0 0 0];

internalField   nonuniform List<scalar> 
36360
(
0.438272
0.352673
0.228798
0.198707
0.232697
0.181963
0.0458637
0.0553247
0.144665
0.0569114
0.059225
0.0151183
0.0675061
0.0204555
0.014304
0.0063767
0.0259306
0.0259224
0.00684244
0.00684165
0.00969001
0.00969067
0.00486468
0.00486482
0.0568727
0.144577
0.0151096
0.0591815
0.020451
0.0674673
0.00637681
0.0142985
0.352535
0.438136
0.198617
0.228702
0.181852
0.232539
0.055285
0.0458224
0.722961
0.58741
0.595241
0.478758
0.612324
0.470433
0.430517
0.324767
0.312351
0.181061
0.229549
0.115342
0.265245
0.15819
0.158382
0.0730598
0.128837
0.128808
0.0713243
0.0713053
0.116456
0.116438
0.0419376
0.0419342
0.180966
0.312178
0.115276
0.229419
0.158118
0.265075
0.0730311
0.158286
0.587175
0.722736
0.478572
0.595061
0.470115
0.611895
0.324561
0.43023
0.941863
0.782096
0.836617
0.687559
0.955137
0.765339
0.785508
0.617199
0.473421
0.319705
0.393709
0.249923
0.502591
0.363349
0.380967
0.256721
0.256225
0.256177
0.191457
0.191418
0.306714
0.306662
0.207065
0.207031
0.319554
0.473165
0.249799
0.393494
0.363175
0.502249
0.2566
0.380714
0.781766
0.941555
0.687275
0.836346
0.764772
0.954391
0.616759
0.784923
1.13377
0.958366
1.04053
0.87226
1.2862
1.06119
1.12215
0.913708
0.626924
0.45787
0.55132
0.389344
0.753834
0.588653
0.627495
0.474688
0.386563
0.386498
0.321654
0.321596
0.519653
0.519565
0.411618
0.411549
0.457671
0.626597
0.389168
0.551027
0.588373
0.753314
0.474461
0.627063
0.957957
1.1334
0.871888
1.04019
1.06036
1.28513
0.913011
1.12124
1.30503
1.11821
1.22197
1.04045
1.59974
1.3468
1.44563
1.20585
0.769813
0.589278
0.699957
0.524772
1.00314
0.816477
0.879465
0.703027
0.512106
0.512027
0.450329
0.450256
0.737111
0.73699
0.628598
0.628493
0.589042
0.76943
0.524553
0.6996
0.816095
1.00245
0.702695
0.878858
1.11775
1.30461
1.04001
1.22157
1.34574
1.59838
1.20491
1.44441
1.45595
1.26052
1.38308
1.19167
1.88722
1.61217
1.74698
1.48233
0.899201
0.709901
0.836395
0.651189
1.23893
1.0347
1.12314
0.927256
0.62826
0.628171
0.571631
0.571547
0.946849
0.946697
0.843428
0.84329
0.709635
0.898777
0.650936
0.835989
1.03423
1.23809
0.926827
1.12238
1.26001
1.45552
1.19118
1.38265
1.6109
1.88559
1.48116
1.74547
1.58662
1.38462
1.52386
1.32492
2.14339
1.85097
2.01923
1.73497
1.01343
0.817419
0.958359
0.76548
1.45383
1.23538
1.34917
1.13746
0.73236
0.732263
0.682016
0.681922
1.14069
1.14051
1.046
1.04583
0.81713
1.01298
0.765202
0.957918
1.23483
1.45286
1.13695
1.34827
1.38408
1.58618
1.3244
1.52342
1.84952
2.14154
1.73361
2.01748
1.69774
1.49072
1.64466
1.43998
2.36615
2.06015
2.25879
1.95915
1.11203
0.910882
1.0648
0.866042
1.6439
1.41407
1.55196
1.32751
0.823212
0.823109
0.779588
0.779487
1.31391
1.31371
1.22992
1.22973
0.910578
1.11155
0.865745
1.06433
1.41346
1.64282
1.32692
1.55093
1.49016
1.69731
1.43943
1.64422
2.05856
2.36411
1.95763
2.25683
1.79037
1.57956
1.74639
1.53733
2.55544
2.23892
2.46469
2.15309
1.19525
0.99023
1.15565
0.952426
1.80757
1.56875
1.72888
1.4943
0.900582
0.900475
0.863696
0.86359
1.46427
1.46405
1.39184
1.39163
0.989914
1.19476
0.952115
1.15516
1.56808
1.80641
1.49365
1.72776
1.579
1.78995
1.53677
1.74595
2.23721
2.55326
2.15143
2.46257
1.86605
1.65242
1.83036
1.61803
2.71286
2.38826
2.63778
2.31694
1.26399
1.0561
1.23151
1.02495
1.94514
1.69932
1.87937
1.63684
0.964979
0.964868
0.934503
0.934394
1.59147
1.59124
1.53056
1.53034
1.05578
1.26349
1.02463
1.23101
1.6986
1.94391
1.63614
1.87817
1.65185
1.86564
1.61747
1.82993
2.38644
2.71055
2.31517
2.63551
1.92639
1.71072
1.89817
1.68344
2.84069
2.51
2.78006
2.45218
1.31941
1.10947
1.29345
1.08444
2.0579
1.80672
2.00431
1.75563
1.01727
1.01716
0.992736
0.992624
1.6963
1.69606
1.64641
1.64617
1.10914
1.3189
1.08411
1.29294
1.80597
2.05661
1.7549
2.00305
1.71015
1.92599
1.68287
1.89776
2.5081
2.83827
2.45032
2.77767
1.97309
1.75601
1.9515
1.73505
2.94177
2.60662
2.89414
2.56104
1.36286
1.15153
1.34273
1.13202
2.14785
1.89268
2.10539
1.85206
1.0586
1.05849
1.03942
1.0393
1.78035
1.78009
1.74061
1.74036
1.15119
1.36235
1.13168
1.34222
1.8919
2.14651
1.8513
2.10407
1.75545
1.9727
1.73449
1.9511
2.60466
2.93926
2.5591
2.89166
2.00779
1.78988
1.992
1.77445
3.01897
2.6807
2.9829
2.64604
1.39571
1.18354
1.38072
1.16891
2.2172
1.9592
2.18473
1.92802
1.09014
1.09003
1.07571
1.0756
1.8455
1.84524
1.81495
1.81469
1.1832
1.3952
1.16857
1.38021
1.95839
2.21582
1.92723
2.18337
1.78932
2.00742
1.77389
1.99162
2.67869
3.01639
2.64405
2.98034
2.0321
1.81384
2.02133
1.8032
3.07523
2.73493
3.04927
2.70986
1.41933
1.20676
1.4088
1.19638
2.26833
2.00848
2.24467
1.98564
1.11312
1.11301
1.10284
1.10272
1.89389
1.89362
1.87145
1.87118
1.20642
1.41881
1.19604
1.40829
2.00766
2.26692
1.98483
2.24328
1.81329
2.03175
1.80264
2.02097
2.73288
3.07261
2.70782
3.04665
2.04741
1.82922
2.04099
1.82272
3.11324
2.77183
3.09608
2.75512
1.43495
1.22236
1.42828
1.21566
2.30354
2.04266
2.28756
2.02711
1.12868
1.12856
1.12198
1.12186
1.92756
1.92728
1.91222
1.91195
1.22202
1.43443
1.21532
1.42777
2.04183
2.30212
2.02628
2.28615
1.82867
2.04707
1.82216
2.04064
2.76975
3.11058
2.75305
3.09342
2.05501
1.83724
2.05231
1.83428
3.1355
2.79374
3.12591
2.78423
1.44371
1.23144
1.44035
1.22788
2.32498
2.06376
2.31563
2.0545
1.13786
1.13775
1.13423
1.13412
1.94848
1.9482
1.93927
1.939
1.2311
1.4432
1.22754
1.43983
2.06292
2.32354
2.05367
2.3142
1.8367
2.05468
1.83374
2.05197
2.79164
3.13281
2.78214
3.12322
2.056
1.83897
2.05647
1.83905
3.14412
2.80271
3.14114
2.79946
1.4466
1.23493
1.44607
1.23406
2.33457
2.07362
2.33092
2.06977
1.1416
1.14149
1.14059
1.14048
1.95845
1.95817
1.95451
1.95423
1.23459
1.44609
1.23373
1.44556
2.07278
2.33313
2.06893
2.32948
1.83843
2.05568
1.83851
2.05615
2.80061
3.14143
2.79735
3.13844
2.05148
1.83551
2.05461
1.83807
3.14152
2.80091
3.14384
2.8027
1.44465
1.23378
1.44641
1.23509
2.33414
2.07391
2.33518
2.07458
1.1408
1.14069
1.14193
1.14181
1.95904
1.95877
1.95955
1.95927
1.23344
1.44415
1.23476
1.4459
2.07307
2.33271
2.07373
2.33374
1.83498
2.05117
1.83754
2.0543
2.79881
3.13884
2.8006
3.14113
2.04199
1.82736
2.04752
1.83219
3.12867
2.78944
3.13598
2.79602
1.43838
1.22855
1.44226
1.23189
2.32501
2.06603
2.33043
2.07082
1.13606
1.13594
1.13914
1.13903
1.95173
1.95146
1.95623
1.95595
1.22822
1.43788
1.23156
1.44176
2.06519
2.32358
2.06998
2.329
1.82684
2.0417
1.83167
2.04722
2.78735
3.126
2.79392
3.13328
2.02832
1.81529
2.03588
1.82201
3.10729
2.76985
3.11871
2.78031
1.42847
1.21988
1.4341
1.22487
2.30842
2.05103
2.31734
2.05912
1.12795
1.12783
1.13264
1.13252
1.93747
1.93719
1.94517
1.94489
1.21955
1.42798
1.22454
1.4336
2.0502
2.307
2.05829
2.31592
1.81478
2.02804
1.8215
2.03559
2.76779
3.10465
2.77823
3.11603
2.01095
1.79978
2.0203
1.80817
3.07842
2.74317
3.09347
2.75706
1.41543
1.20824
1.42257
1.21467
2.28539
2.02996
2.29743
2.04099
1.11696
1.11685
1.12304
1.12293
1.91728
1.91701
1.92785
1.92758
1.20792
1.41494
1.21434
1.42209
2.02914
2.28398
2.04017
2.29602
1.79928
2.01068
1.80767
2.02002
2.74113
3.07581
2.755
3.09081
1.99027
1.78123
2.00124
1.7911
3.04289
2.71019
3.06118
2.72715
1.3996
1.194
1.4081
1.20169
2.25667
2.00353
2.27148
2.01716
1.10344
1.10333
1.11075
1.11064
1.89189
1.89163
1.90499
1.90472
1.19369
1.39913
1.20137
1.40762
2.00272
2.25529
2.01635
2.27009
1.78074
1.99001
1.79061
2.00097
2.70818
3.04031
2.72512
3.05856
1.96658
1.75992
1.97903
1.77114
3.00133
2.67153
3.02257
2.69127
1.38129
1.17742
1.391
1.18625
2.22286
1.97229
2.24016
1.98827
1.08767
1.08756
1.09608
1.09597
1.86183
1.86157
1.87721
1.87694
1.17711
1.38082
1.18594
1.39053
1.9715
2.2215
1.98747
2.23879
1.75944
1.96633
1.77066
1.97877
2.66956
2.9988
2.68928
3.02
1.94008
1.73605
1.95391
1.74853
2.9542
2.62764
2.97819
2.64995
1.36067
1.1587
1.37152
1.16858
2.18435
1.93665
2.20396
1.9548
1.06982
1.06972
1.07925
1.07914
1.8275
1.82724
1.84497
1.84472
1.15839
1.36022
1.16827
1.37106
1.93588
2.18303
1.95401
2.20262
1.73559
1.93984
1.74806
1.95366
2.62571
2.95173
2.648
2.97567
1.91092
1.70977
1.92606
1.72344
2.90182
2.57881
2.92841
2.60357
1.33789
1.13796
1.3498
1.14883
2.14144
1.89688
2.16323
1.91707
1.05003
1.04992
1.06041
1.06031
1.78915
1.7889
1.80861
1.80836
1.13766
1.33744
1.14853
1.34935
1.89612
2.14015
1.9163
2.16192
1.70932
1.91068
1.72298
1.92582
2.57693
2.89941
2.60166
2.92595
1.87917
1.68116
1.8956
1.69599
2.84437
2.52522
2.87348
2.55235
1.31301
1.11527
1.32597
1.12711
2.09429
1.85313
2.11819
1.8753
1.02835
1.02825
1.03967
1.03957
1.74695
1.74671
1.76833
1.76809
1.11498
1.31258
1.12681
1.32553
1.85239
2.09304
1.87455
2.11692
1.68072
1.87894
1.69554
1.89536
2.5234
2.84203
2.5505
2.87109
1.8449
1.65026
1.86258
1.66622
2.78196
2.46699
2.81355
2.49644
1.28608
1.09066
1.30005
1.10345
2.04298
1.80548
2.06896
1.8296
1.00482
1.00472
1.01706
1.01696
1.70097
1.70074
1.72425
1.72401
1.09037
1.28566
1.10316
1.29963
1.80477
2.04177
1.82888
2.06773
1.64982
1.84468
1.66578
1.86235
2.46522
2.77969
2.49464
2.81123
1.80813
1.61707
1.82705
1.63417
2.71462
2.40412
2.74868
2.4359
1.25708
1.06412
1.27208
1.07787
1.98753
1.75394
2.01559
1.78002
0.979429
0.979334
0.992601
0.992505
1.65122
1.651
1.67639
1.67616
1.06384
1.25667
1.0776
1.27167
1.75326
1.98635
1.77932
2.0144
1.61665
1.80792
1.63375
1.82683
2.40241
2.71242
2.43416
2.74644
1.76887
1.58159
1.78903
1.59984
2.64232
2.33657
2.67888
2.37072
1.22599
1.03562
1.24204
1.05036
1.92788
1.69847
1.95806
1.72653
0.952135
0.952043
0.966259
0.966165
1.59766
1.59744
1.62475
1.62453
1.03535
1.22559
1.05008
1.24164
1.69781
1.92674
1.72586
1.9569
1.58119
1.76865
1.59942
1.78881
2.33492
2.6402
2.36903
2.67671
1.72709
1.54378
1.74851
1.56319
2.56498
2.26426
2.60408
2.3008
1.19275
1.00509
1.20988
1.02084
1.86395
1.63898
1.89628
1.66907
0.922881
0.922791
0.937986
0.937895
1.54021
1.54
1.56926
1.56905
1.00483
1.19237
1.02058
1.20949
1.63834
1.86286
1.66842
1.89517
1.54338
1.72688
1.56279
1.74829
2.26267
2.56295
2.29918
2.60199
1.68278
1.50356
1.70546
1.52418
2.48255
2.18722
2.52422
2.22612
1.1573
0.972474
1.17554
0.989275
1.79565
1.57539
1.83019
1.60755
0.891589
0.891502
0.907716
0.907628
1.47879
1.47859
1.50985
1.50964
0.972224
1.15693
0.989021
1.17516
1.57478
1.79461
1.60693
1.82913
1.50318
1.68258
1.52379
1.70525
2.1857
2.48061
2.22457
2.52221
1.63592
1.4609
1.65987
1.48273
2.3949
2.10532
2.43921
2.14671
1.11956
0.937671
1.13894
0.955567
1.72287
1.50756
1.75968
1.54186
0.85817
0.858087
0.875364
0.875279
1.41327
1.41308
1.4464
1.4462
0.937429
1.1192
0.955321
1.13857
1.50698
1.72187
1.54127
1.75866
1.46053
1.63572
1.48236
1.65966
2.10387
2.39304
2.14522
2.43729
1.58646
1.41572
1.6117
1.43881
2.30183
2.01835
2.34888
2.0623
1.07943
0.900583
1.10001
0.919626
1.64543
1.43538
1.6846
1.47189
0.822522
0.822442
0.840835
0.840753
1.34354
1.34336
1.3788
1.37861
0.90035
1.07908
0.919389
1.09965
1.43483
1.64449
1.47132
1.68363
1.41536
1.58626
1.43845
1.6115
2.01697
2.30007
2.06088
2.34706
1.53438
1.36795
1.56092
1.39233
2.20316
1.92617
2.25305
1.97274
1.03681
0.8611
1.05864
0.881344
1.56321
1.3587
1.6048
1.39748
0.784529
0.784451
0.80402
0.803941
1.26948
1.26931
1.30693
1.30675
0.860876
1.03648
0.881116
1.05829
1.35818
1.56231
1.39695
1.60388
1.3676
1.53418
1.39198
1.56072
1.92487
2.20149
1.9714
2.25132
1.47971
1.31757
1.50752
1.34325
2.09867
1.82873
2.1515
1.87795
0.991628
0.819093
1.01474
0.840608
1.47606
1.27738
1.52013
1.31851
0.744043
0.743969
0.764792
0.764717
1.19091
1.19075
1.23065
1.23048
0.81888
0.991306
0.840389
1.01441
1.27689
1.47522
1.31801
1.51927
1.31724
1.47951
1.3429
1.50732
1.82751
2.09711
1.87669
2.14987
1.42277
1.26472
1.45164
1.2916
1.98834
1.72617
2.04407
1.77792
0.943778
0.774353
0.968223
0.79726
1.38384
1.19117
1.43048
1.2348
0.700808
0.700739
0.722965
0.722893
1.10758
1.10743
1.14976
1.1496
0.77415
0.943472
0.797052
0.967909
1.19072
1.38307
1.23433
1.42968
1.2644
1.42258
1.29127
1.45144
1.72503
1.98688
1.77674
2.04256
1.36483
1.20972
1.39391
1.23761
1.87315
1.6191
1.93106
1.67299
0.892924
0.726338
0.918946
0.750979
1.28617
1.09949
1.33564
1.14597
0.654274
0.654209
0.678168
0.6781
1.01891
1.01878
1.06386
1.06372
0.726147
0.892636
0.750783
0.918649
1.09908
1.28547
1.14555
1.33491
1.20942
1.36464
1.2373
1.39372
1.61806
1.87183
1.67191
1.92966
1.31126
1.15148
1.33686
1.18146
1.75941
1.50775
1.81505
1.56403
0.83687
0.67341
0.866033
0.700818
1.18083
1.00088
1.23469
1.05109
0.6033
0.60324
0.629584
0.629522
0.924143
0.924029
0.972229
0.972106
0.673234
0.8366
0.700634
0.865754
1.00053
1.18021
1.05072
1.23403
1.15119
1.31108
1.18116
1.33668
1.50683
1.75822
1.56305
1.81378
1.29339
1.06575
1.29346
1.11738
1.66417
1.36313
1.70977
1.44552
0.764937
0.611983
0.804345
0.644136
1.05811
0.893804
1.12261
0.948232
0.546456
0.546402
0.575799
0.575742
0.824123
0.824027
0.87445
0.874344
0.611823
0.76469
0.643967
0.804086
0.893506
1.05759
0.947907
1.12204
1.06548
1.29322
1.1171
1.29328
1.36236
1.66315
1.44466
1.70865
0.660189
0.534168
0.421849
0.345165
0.566986
0.455785
0.340445
0.279716
0.271152
0.141045
0.142516
0.0551294
0.21351
0.100108
0.102267
0.0330135
0.0885741
0.0885433
0.0241434
0.0241315
0.0556128
0.0555934
0.0131423
0.0131377
0.140943
0.270972
0.055071
0.142384
0.100037
0.213375
0.0329829
0.10218
0.533941
0.659991
0.344965
0.421654
0.455602
0.56682
0.27957
0.340297
0.971479
0.806259
0.834586
0.683352
0.861612
0.707862
0.731641
0.593558
0.49184
0.321638
0.387035
0.231984
0.4079
0.252667
0.314811
0.175705
0.248154
0.248103
0.166696
0.166653
0.187714
0.187673
0.118999
0.118968
0.321485
0.491602
0.231853
0.386821
0.25254
0.407692
0.175603
0.314636
0.806
0.971283
0.683103
0.834384
0.707616
0.861408
0.593341
0.731453
1.19032
1.01071
1.08794
0.914013
1.07351
0.902199
0.973559
0.809497
0.678348
0.491183
0.58856
0.408351
0.578116
0.403437
0.49537
0.328966
0.407935
0.407874
0.32921
0.329153
0.327994
0.327938
0.258072
0.258023
0.491005
0.67809
0.408183
0.588308
0.40327
0.577858
0.328818
0.495134
1.01046
1.19016
0.913754
1.08776
0.901916
1.0733
0.809229
0.973347
1.3651
1.17918
1.28207
1.0987
1.24895
1.06785
1.16485
0.988036
0.839806
0.644064
0.762038
0.569915
0.730746
0.544552
0.656605
0.475521
0.55543
0.555365
0.483606
0.483542
0.462584
0.462518
0.396475
0.396413
0.643882
0.839556
0.569733
0.761781
0.54436
0.73046
0.475341
0.65633
1.17898
1.36503
1.09847
1.28195
1.06756
1.24876
0.987745
1.16465
1.50966
1.3209
1.44075
1.25314
1.39865
1.21144
1.32677
1.1423
0.979121
0.778809
0.912206
0.71383
0.866389
0.672685
0.800779
0.610457
0.687032
0.686969
0.623419
0.623355
0.586339
0.586268
0.526093
0.526024
0.778636
0.978899
0.713652
0.911969
0.672481
0.866094
0.610258
0.800487
1.32076
1.50969
1.25296
1.44073
1.21116
1.39851
1.14201
1.3266
1.62993
1.44003
1.57263
1.38317
1.52632
1.3351
1.46515
1.27574
1.09804
0.895347
1.04113
0.839433
0.984998
0.78622
0.927906
0.731429
0.801724
0.801666
0.746611
0.74655
0.696853
0.69678
0.643435
0.643363
0.895192
1.09786
0.839269
1.04093
0.786013
0.984707
0.731222
0.927613
1.43996
1.63006
1.38306
1.57272
1.33484
1.52623
1.27547
1.46503
1.72947
1.53934
1.68218
1.4921
1.63412
1.44021
1.58266
1.38997
1.19826
0.99445
1.15051
0.947147
1.08693
0.884688
1.03812
0.837458
0.899771
0.899719
0.85292
0.852865
0.793216
0.793143
0.746944
0.746871
0.994317
1.19812
0.947002
1.15035
0.884483
1.08665
0.837251
1.03784
1.53934
1.72971
1.49206
1.68237
1.44
1.6341
1.38974
1.58261
1.81097
1.62113
1.77242
1.5824
1.724
1.52827
1.6813
1.4864
1.28154
1.07739
1.24206
1.03801
1.17303
0.968444
1.13203
0.92851
0.982155
0.98211
0.943006
0.942957
0.875509
0.875437
0.836239
0.836166
1.07728
1.28144
1.03789
1.24194
0.968245
1.17276
0.928308
1.13176
1.6212
1.81132
1.58244
1.77272
1.52808
1.72405
1.48619
1.68131
1.87666
1.68741
1.84576
1.65621
1.7976
1.60069
1.76284
1.56646
1.34961
1.14562
1.31753
1.11342
1.2444
1.03829
1.21063
1.00521
1.05015
1.05011
1.01804
1.018
0.944359
0.944289
0.911723
0.911652
1.14553
1.34955
1.11332
1.31745
1.0381
1.24416
1.00501
1.21038
1.68755
1.8771
1.65631
1.84616
1.60055
1.7977
1.56629
1.76292
1.92861
1.74011
1.90436
1.71549
1.85665
1.6591
1.82899
1.6317
1.40425
1.20071
1.37869
1.1749
1.30243
1.09539
1.27518
1.06854
1.10524
1.10521
1.07941
1.07937
1.0008
1.00074
0.974245
0.974176
1.20064
1.40422
1.17482
1.37865
1.0952
1.3022
1.06835
1.27494
1.74031
1.92914
1.71566
1.90484
1.65899
1.85682
1.63157
1.82912
1.96858
1.78093
1.95012
1.76205
1.90281
1.70503
1.88138
1.68368
1.44707
1.24421
1.42723
1.22402
1.34849
1.14099
1.32705
1.11974
1.14889
1.14886
1.12861
1.12858
1.04602
1.04596
1.02494
1.02487
1.24416
1.44708
1.22396
1.42722
1.14081
1.34828
1.11956
1.32684
1.78119
1.96918
1.76227
1.95068
1.70495
1.90303
1.68358
1.88157
1.99818
1.81147
1.98473
1.79756
1.93774
1.74003
1.92175
1.72398
1.47964
1.27761
1.46476
1.26231
1.38402
1.17642
1.3677
1.16011
1.18254
1.18252
1.1671
1.16707
1.08128
1.08121
1.06503
1.06497
1.27757
1.47969
1.26226
1.46479
1.17625
1.38383
1.15994
1.36749
1.81177
1.99884
1.79784
1.98536
1.73999
1.93801
1.72392
1.922
2.01882
1.83313
2.00968
1.82349
1.9629
1.76552
1.95162
1.75406
1.50336
1.30226
1.49274
1.29118
1.41036
1.20295
1.39848
1.19095
1.20753
1.20751
1.19627
1.19625
1.10779
1.10773
1.09578
1.09572
1.30224
1.50343
1.29115
1.4928
1.20279
1.41018
1.19078
1.39829
1.83347
2.01954
1.82381
2.01038
1.76549
1.96321
1.75402
1.95191
2.03183
1.84722
2.02637
1.84122
1.97966
1.78281
1.97243
1.7753
1.51949
1.31941
1.51253
1.31194
1.42877
1.22178
1.42071
1.21349
1.22509
1.22507
1.21741
1.21739
1.12674
1.12668
1.11838
1.11832
1.3194
1.51958
1.31192
1.51261
1.22162
1.4286
1.21333
1.42054
1.84759
2.0326
1.84158
2.02711
1.78281
1.98
1.77529
1.97276
2.03826
1.85479
2.03597
1.85194
1.98917
1.79306
1.98544
1.78895
1.52915
1.33016
1.5253
1.32577
1.44036
1.23399
1.43559
1.2289
1.23629
1.23628
1.23167
1.23166
1.13919
1.13914
1.13397
1.13391
1.33016
1.52926
1.32577
1.52541
1.23385
1.4402
1.22875
1.43543
1.8552
2.03907
1.85232
2.03676
1.79308
1.98955
1.78896
1.9858
2.03912
1.85686
2.0395
1.85665
1.99249
1.7973
1.99175
1.79608
1.53331
1.33546
1.53211
1.33369
1.44614
1.24057
1.44417
1.23819
1.2421
1.2421
1.24008
1.24007
1.1461
1.14604
1.14354
1.14348
1.33547
1.53344
1.3337
1.53222
1.24043
1.446
1.23804
1.44402
1.85729
2.03996
1.85707
2.04033
1.79734
1.9929
1.79611
1.99214
2.03528
1.85431
2.03792
1.85631
1.99062
1.79648
1.99235
1.79767
1.53285
1.33618
1.53385
1.3366
1.44701
1.24235
1.44739
1.24227
1.24335
1.24335
1.24351
1.24351
1.14828
1.14823
1.148
1.14794
1.3362
1.53298
1.33662
1.53398
1.24221
1.44687
1.24213
1.44725
1.85475
2.03614
1.85674
2.03878
1.79653
1.99104
1.79772
1.99276
2.02734
1.84774
2.03197
1.85168
1.98422
1.79132
1.98815
1.79462
1.52843
1.33304
1.53134
1.33531
1.44374
1.24016
1.44611
1.24197
1.24079
1.24079
1.24277
1.24277
1.14657
1.14652
1.14813
1.14807
1.33306
1.52858
1.33533
1.53149
1.24003
1.44361
1.24183
1.44597
1.8482
2.02822
1.85214
2.03284
1.79139
1.98466
1.79468
1.98858
2.01585
1.83773
2.02219
1.84333
1.97389
1.78241
1.97972
1.78752
1.52062
1.32654
1.52517
1.33044
1.43686
1.23446
1.44098
1.23798
1.23491
1.23491
1.2385
1.2385
1.14142
1.14137
1.14466
1.1446
1.32657
1.52078
1.33047
1.52533
1.23433
1.43674
1.23785
1.44085
1.8382
2.01675
1.8438
2.02308
1.78249
1.97435
1.78759
1.98017
2.00129
1.82475
2.00912
1.83179
1.96018
1.77028
1.96765
1.77695
1.5099
1.31719
1.51586
1.32246
1.42691
1.2258
1.43251
1.23075
1.22621
1.22621
1.23115
1.23115
1.13336
1.13331
1.138
1.13795
1.31722
1.51006
1.32249
1.51602
1.22568
1.42679
1.23062
1.43239
1.82524
2.00219
1.83227
2.01002
1.77036
1.96065
1.77703
1.96811
1.98399
1.80917
1.99315
1.81747
1.94348
1.75532
1.9524
1.76336
1.49664
1.30536
1.50382
1.31183
1.41428
1.21459
1.42118
1.22077
1.21506
1.21507
1.22119
1.22119
1.12281
1.12276
1.12865
1.1286
1.3054
1.4968
1.31187
1.50399
1.21446
1.41418
1.22064
1.42106
1.80965
1.9849
1.81795
1.99405
1.75542
1.94394
1.76345
1.95287
1.96422
1.79124
1.97459
1.80068
1.92407
1.73786
1.93431
1.74711
1.48111
1.29134
1.4894
1.29888
1.3993
1.20111
1.40734
1.20839
1.20177
1.20177
1.20894
1.20894
1.11005
1.11
1.11696
1.11691
1.29138
1.48129
1.29892
1.48957
1.20099
1.39919
1.20827
1.40723
1.79173
1.96513
1.80116
1.97549
1.73795
1.92454
1.74721
1.93478
1.94219
1.77118
1.95366
1.78166
1.9022
1.7181
1.91365
1.72848
1.46355
1.27535
1.47283
1.28385
1.38218
1.18561
1.39126
1.19388
1.18653
1.18653
1.19465
1.19465
1.09532
1.09527
1.10319
1.10314
1.27539
1.46372
1.28389
1.473
1.18549
1.38208
1.19376
1.39116
1.77167
1.94308
1.78215
1.95456
1.7182
1.90267
1.72857
1.91412
1.91802
1.74914
1.93054
1.7606
1.87801
1.69622
1.8906
1.70764
1.44409
1.25753
1.4543
1.26692
1.36308
1.16823
1.37313
1.17742
1.1695
1.16951
1.1785
1.1785
1.07876
1.07872
1.08753
1.08748
1.25757
1.44426
1.26696
1.45447
1.16812
1.36298
1.1773
1.37303
1.74962
1.91891
1.76108
1.93144
1.69632
1.87848
1.70774
1.89107
1.89184
1.72522
1.90535
1.7376
1.85163
1.67233
1.8653
1.68474
1.42284
1.23798
1.43393
1.24822
1.34212
1.14909
1.35309
1.15914
1.15078
1.15079
1.16061
1.16062
1.06049
1.06044
1.0701
1.07006
1.23802
1.42301
1.24827
1.4341
1.14898
1.34202
1.15903
1.35299
1.7257
1.89271
1.73808
1.90623
1.67243
1.85209
1.68484
1.86576
1.86371
1.6995
1.87819
1.71277
1.82313
1.64651
1.83784
1.65987
1.39985
1.21676
1.4118
1.22783
1.31935
1.12824
1.33121
1.13913
1.13043
1.13043
1.14107
1.14107
1.04056
1.04051
1.05099
1.05095
1.2168
1.40002
1.22787
1.41197
1.12813
1.31926
1.13903
1.33112
1.69996
1.86456
1.71324
1.87905
1.64661
1.82357
1.65997
1.8383
1.83369
1.67201
1.8491
1.68615
1.79256
1.61877
1.8083
1.63309
1.37517
1.1939
1.38796
1.20579
1.29481
1.1057
1.30755
1.11743
1.10846
1.10846
1.1199
1.1199
1.01899
1.01894
1.03023
1.03019
1.19394
1.37533
1.20583
1.38813
1.10559
1.29472
1.11733
1.30747
1.67246
1.83452
1.68661
1.84994
1.61887
1.79299
1.63318
1.80874
1.80183
1.64277
1.81815
1.65778
1.75995
1.58916
1.7767
1.6044
1.34879
1.16939
1.36243
1.1821
1.26849
1.08147
1.28212
1.09405
1.08487
1.08487
1.09711
1.09712
0.995768
0.995726
1.00783
1.00779
1.16943
1.34895
1.18213
1.36259
1.08137
1.26841
1.09394
1.28203
1.64321
1.80264
1.65822
1.81897
1.58925
1.76037
1.6045
1.77713
1.76817
1.61181
1.78538
1.62767
1.72535
1.55767
1.74309
1.57384
1.32071
1.1432
1.3352
1.15674
1.24039
1.05552
1.2549
1.06895
1.05962
1.05962
1.07269
1.07269
0.970863
0.970822
0.983771
0.98373
1.14324
1.32086
1.15678
1.33535
1.05541
1.2403
1.06885
1.25482
1.61223
1.76895
1.6281
1.78617
1.55775
1.72575
1.57393
1.7435
1.73275
1.57912
1.75083
1.59584
1.68875
1.52429
1.70747
1.5414
1.2909
1.1153
1.30625
1.1297
1.21045
1.02779
1.22588
1.04211
1.03267
1.03267
1.04659
1.04659
0.944221
0.94418
0.957998
0.957957
1.11533
1.29104
1.12973
1.30639
1.02769
1.21036
1.04201
1.22579
1.57953
1.73349
1.59625
1.75159
1.52437
1.68913
1.54148
1.70787
1.6956
1.54473
1.71453
1.56229
1.65018
1.48899
1.66988
1.50706
1.25933
1.08563
1.27555
1.10091
1.17862
0.998229
1.195
1.01347
1.00395
1.00395
1.01876
1.01876
0.91577
0.91573
0.930453
0.930413
1.08566
1.25946
1.10094
1.27569
0.998129
1.17854
1.01337
1.19491
1.54512
1.69631
1.56269
1.71526
1.48906
1.65054
1.50714
1.67025
1.65676
1.50863
1.67652
1.52704
1.60966
1.45174
1.63033
1.47078
1.22595
1.05412
1.24307
1.07032
1.14486
0.966752
1.1622
0.982953
0.973392
0.973391
0.989122
0.989122
0.885428
0.885389
0.901059
0.901019
1.05414
1.22607
1.07035
1.2432
0.966653
1.14477
0.982854
1.16211
1.509
1.65743
1.52742
1.67721
1.45181
1.61
1.47085
1.63068
1.6163
1.47083
1.63685
1.49008
1.56721
1.41255
1.58883
1.43255
1.19072
1.0207
1.20876
1.03786
1.10908
0.933275
1.12743
0.950478
0.940902
0.9409
0.9576
0.957598
0.8531
0.853061
0.869727
0.869688
1.02072
1.19083
1.03788
1.20888
0.933176
1.10899
0.95038
1.12734
1.47117
1.61693
1.49043
1.6375
1.4126
1.56752
1.43261
1.58916
1.57436
1.43141
1.59562
1.45145
1.52288
1.37139
1.54542
1.39236
1.15362
0.985293
1.17259
1.00345
1.07124
0.897701
1.09062
0.915955
0.906381
0.906377
0.924099
0.924096
0.818675
0.818636
0.836355
0.836316
0.985302
1.15371
1.00346
1.17269
0.897602
1.07114
0.915856
1.09052
1.43172
1.57495
1.45177
1.59623
1.37143
1.52316
1.39241
1.54572
1.53126
1.39055
1.55303
1.41126
1.47683
1.32835
1.50018
1.35024
1.11467
0.947804
1.13455
0.967003
1.03129
0.859917
1.05171
0.879283
0.86968
0.869673
0.888504
0.888498
0.782002
0.781964
0.80082
0.800781
0.947805
1.11474
0.967008
1.13463
0.859819
1.03119
0.879184
1.05161
1.39084
1.5318
1.41156
1.5536
1.32838
1.47708
1.35027
1.50046
1.48785
1.34875
1.5096
1.36984
1.42955
1.28372
1.45341
1.30634
1.0739
0.908012
1.09468
0.928398
0.989209
0.819714
1.01069
0.840317
0.830471
0.830462
0.8506
0.850592
0.74279
0.742752
0.762919
0.762881
0.908004
1.07396
0.928394
1.09475
0.819615
0.989104
0.840219
1.01059
1.34901
1.48834
1.37011
1.51013
1.28373
1.42977
1.30636
1.45365
1.44657
1.30699
1.46675
1.3279
1.38292
1.23809
1.40605
1.26111
1.03112
0.865216
1.05297
0.88724
0.94469
0.776449
0.967476
0.798708
0.787923
0.78791
0.809868
0.809857
0.700339
0.700301
0.722206
0.722168
0.865198
1.03116
0.887227
1.05302
0.776349
0.944581
0.798609
0.967369
1.3072
1.44702
1.32813
1.46722
1.23809
1.38311
1.26111
1.40625
1.41677
1.26546
1.42904
1.28649
1.34447
1.19093
1.3617
1.21508
0.983946
0.817172
1.0086
0.842252
0.895303
0.728064
0.921127
0.753275
0.7402
0.740183
0.765023
0.765008
0.653074
0.653036
0.677598
0.67756
0.817141
0.983959
0.842228
1.00863
0.727962
0.895186
0.753174
0.921014
1.26563
1.41715
1.28669
1.42946
1.1909
1.34462
1.21507
1.36188
1.44574
1.20138
1.4176
1.2416
1.35666
1.11868
1.33837
1.16328
0.920387
0.759121
0.955816
0.789838
0.829396
0.670205
0.865963
0.700732
0.68496
0.684939
0.713737
0.713718
0.598971
0.598933
0.627082
0.627044
0.759075
0.920369
0.7898
0.955814
0.670102
0.82927
0.70063
0.865841
1.20149
1.44606
1.24174
1.41795
1.11863
1.35677
1.16324
1.33851
0.790309
0.647695
0.539607
0.444196
0.732176
0.596375
0.486521
0.398786
0.362209
0.212556
0.21148
0.101222
0.320059
0.178543
0.178739
0.0782099
0.14967
0.149619
0.0588769
0.0588452
0.120058
0.120017
0.0406785
0.0406567
0.212397
0.361948
0.101107
0.211258
0.178412
0.319836
0.0781238
0.178561
0.64739
0.79006
0.443893
0.539326
0.596107
0.731949
0.398533
0.486281
1.12851
0.951562
0.978894
0.81355
1.05816
0.885836
0.914456
0.75481
0.623605
0.437979
0.499515
0.327077
0.563044
0.38351
0.447798
0.282412
0.35522
0.355154
0.251921
0.25186
0.304478
0.304419
0.211318
0.211265
0.437789
0.623327
0.326896
0.499237
0.383336
0.562783
0.282254
0.44755
0.951289
1.12834
0.813253
0.978675
0.885567
1.05797
0.754534
0.914243
1.36636
1.17941
1.25566
1.07222
1.28656
1.10229
1.18011
1.00031
0.841079
0.64249
0.73713
0.543477
0.76586
0.571514
0.668687
0.480196
0.55151
0.551444
0.455778
0.455711
0.483499
0.483434
0.39586
0.395797
0.642307
0.840836
0.543286
0.736864
0.571331
0.765607
0.480015
0.668425
1.17922
1.36631
1.07199
1.25554
1.10207
1.28646
1.00006
1.17996
1.55118
1.36207
1.46414
1.27555
1.46563
1.27744
1.38103
1.19421
1.02368
0.820618
0.93648
0.734992
0.938033
0.7374
0.855542
0.657379
0.726077
0.72602
0.641849
0.641787
0.644985
0.644923
0.566784
0.56672
0.820468
1.02351
0.734824
0.936269
0.737233
0.937821
0.657202
0.855306
1.36201
1.5513
1.27542
1.46418
1.2773
1.46565
1.19403
1.38099
1.69908
1.51089
1.62918
1.44031
1.61074
1.42191
1.54192
1.35316
1.17632
0.972585
1.1036
0.899896
1.08376
0.880771
1.0141
0.811965
0.876727
0.876684
0.804506
0.804455
0.786225
0.786172
0.718285
0.718227
0.97248
1.17624
0.899767
1.10347
0.880632
1.08361
0.811811
1.01392
1.51096
1.69938
1.44031
1.62938
1.42188
1.61091
1.35308
1.54201
1.81839
1.63232
1.76198
1.57478
1.72929
1.54124
1.67306
1.48453
1.30293
1.10028
1.24278
1.03945
1.20607
1.00268
1.14778
0.944434
1.00424
1.00422
0.943408
0.943373
0.907228
0.907185
0.849325
0.849277
1.10022
1.30293
1.03937
1.24273
1.00258
1.20598
0.944312
1.14766
1.63252
1.81886
1.57492
1.76236
1.54132
1.7296
1.48455
1.6733
1.91447
1.73091
1.86914
1.68432
1.82589
1.63923
1.78017
1.59279
1.40697
1.20619
1.35771
1.15595
1.30765
1.10487
1.25942
1.05627
1.11055
1.11054
1.06007
1.06005
1.00918
1.00915
0.960639
0.960602
1.20618
1.40705
1.15592
1.35775
1.10481
1.30763
1.05618
1.25937
1.73124
1.91509
1.68458
1.86968
1.63941
1.82634
1.59292
1.78055
1.99123
1.81023
1.95515
1.77289
1.90391
1.71888
1.86713
1.68129
1.49153
1.29293
1.45167
1.25197
1.39102
1.18935
1.35162
1.14937
1.19798
1.19799
1.15666
1.15666
1.09381
1.09379
1.05372
1.0537
1.29297
1.4917
1.25199
1.45179
1.18932
1.39106
1.14932
1.35163
1.81067
1.992
1.77328
1.95585
1.71915
1.90449
1.68152
1.86765
2.05165
1.87309
2.02341
1.84366
1.96598
1.78263
1.93689
1.75271
1.5593
1.36294
1.52753
1.33007
1.4584
1.25811
1.42674
1.22575
1.2688
1.26882
1.23552
1.23553
1.16293
1.16292
1.13038
1.13037
1.36302
1.55953
1.33013
1.52773
1.25811
1.4585
1.22574
1.42681
1.87363
2.05254
1.84415
2.02424
1.78299
1.96667
1.75303
1.93752
2.09825
1.92197
2.07665
1.89927
2.0144
1.83271
1.99189
1.80939
1.61266
1.4185
1.58783
1.3926
1.51193
1.31309
1.48696
1.2874
1.32522
1.32525
1.29889
1.29892
1.2184
1.2184
1.19246
1.19246
1.41862
1.61296
1.3927
1.5881
1.31312
1.51208
1.28742
1.48709
1.9226
2.09925
1.89986
2.0776
1.83315
2.01519
1.80979
1.99263
2.13308
1.95892
2.11712
1.94195
2.05108
1.87099
2.03421
1.85335
1.65369
1.46163
1.6348
1.44171
1.55344
1.35611
1.53427
1.3362
1.36921
1.36925
1.34887
1.34891
1.26197
1.26198
1.24178
1.24179
1.46177
1.65404
1.44185
1.63512
1.35616
1.55364
1.33624
1.53444
1.95963
2.13418
1.94262
2.11818
1.87149
2.05195
1.85382
2.03505
2.15793
1.98573
2.14678
1.97364
2.07771
1.89916
2.06569
1.8864
1.68422
1.49414
1.67038
1.47933
1.58464
1.3888
1.57044
1.37387
1.40256
1.40261
1.38734
1.38739
1.29525
1.29527
1.28003
1.28004
1.49431
1.68462
1.4795
1.67075
1.38888
1.58487
1.37394
1.57066
1.98651
2.15911
1.97438
2.14792
1.89972
2.07866
1.88693
2.06661
2.17427
2.00391
2.1672
1.99596
2.09572
1.91867
2.08784