/*--------------------------------*- C++ -*----------------------------------*\
  =========                 |
  \\      /  F ield         | OpenFOAM: The Open Source CFD Toolbox
   \\    /   O peration     | Website:  https://openfoam.org
    \\  /    A nd           | Version:  9
     \\/     M anipulation  |
\*---------------------------------------------------------------------------*/
FoamFile
{
    format      ascii;
    class       volScalarField;
    location    "4";
    object      k;
}
// * * * * * * * * * * * * * * * * * * * * * * * * * * * * * * * * * * * * * //

dimensions      [0 2 -2 0 0 0 0];

internalField   nonuniform List<scalar> 
36360
(
0.135678
0.115629
0.0784836
0.0699753
0.0388003
0.0329339
0.0131427
0.0148932
0.0641293
0.0354253
0.0300507
0.0102219
0.0170068
0.00767373
0.00604401
0.00352667
0.0217155
0.0217138
0.00505842
0.00505868
0.00466388
0.00466409
0.00294397
0.00294402
0.0354137
0.0641021
0.0102199
0.0300368
0.0076726
0.0170003
0.00352671
0.00604246
0.115586
0.135624
0.0699462
0.0784441
0.0329205
0.0387827
0.0148861
0.0131348
0.210136
0.183419
0.176759
0.152131
0.0739516
0.0620356
0.0584729
0.0484572
0.124127
0.0907039
0.0952955
0.0632659
0.0423428
0.0300049
0.0300259
0.0179298
0.0758864
0.0758769
0.0490459
0.0490397
0.0244659
0.0244634
0.0123868
0.0123861
0.0906737
0.124075
0.0632445
0.0952555
0.0299958
0.0423248
0.017925
0.0300137
0.183347
0.210051
0.152074
0.17669
0.0620077
0.073917
0.0484366
0.0584469
0.266757
0.238089
0.239687
0.211799
0.0994668
0.0858127
0.0873099
0.0743468
0.17649
0.141745
0.15111
0.116908
0.0648369
0.0522308
0.0539019
0.0414344
0.126258
0.126243
0.101715
0.101702
0.0466537
0.0466484
0.0359048
0.0359008
0.1417
0.176415
0.11687
0.151046
0.0522141
0.0648075
0.0414213
0.053878
0.23799
0.266643
0.211713
0.239587
0.0857703
0.0994149
0.0743115
0.0872666
0.31514
0.285476
0.291817
0.262583
0.121297
0.106705
0.110749
0.0965733
0.222739
0.187238
0.200338
0.165175
0.084957
0.0720463
0.0751774
0.0624184
0.171295
0.171276
0.149441
0.149424
0.066302
0.0662946
0.0567612
0.0567549
0.187181
0.222645
0.165123
0.200253
0.0720234
0.0849178
0.0623985
0.0751429
0.285353
0.315
0.262471
0.291688
0.106649
0.121229
0.0965242
0.110689
0.356899
0.326646
0.336794
0.306799
0.140286
0.125082
0.131125
0.116195
0.263245
0.227263
0.243691
0.207922
0.102784
0.0896052
0.0941518
0.0810997
0.211007
0.210985
0.191807
0.191786
0.0837021
0.0836929
0.0752716
0.0752632
0.227197
0.263137
0.20786
0.24359
0.0895772
0.102737
0.0810741
0.0941084
0.326506
0.35674
0.306667
0.336643
0.125017
0.140206
0.116134
0.13105
0.392618
0.362016
0.375468
0.345018
0.156627
0.141017
0.148768
0.13334
0.29823
0.261955
0.281401
0.245255
0.118318
0.104934
0.110826
0.0975373
0.245499
0.245474
0.228887
0.228863
0.0989086
0.098898
0.0915684
0.0915585
0.261882
0.298112
0.245185
0.281288
0.104902
0.118265
0.0975072
0.110776
0.361864
0.392445
0.344871
0.3753
0.140943
0.156537
0.13327
0.148682
0.422807
0.392007
0.408358
0.377642
0.1705
0.154621
0.16385
0.148091
0.328016
0.291575
0.313741
0.277372
0.131633
0.118097
0.125237
0.111771
0.274999
0.274972
0.260847
0.260822
0.111985
0.111973
0.105698
0.105687
0.291497
0.32789
0.277296
0.313619
0.118062
0.131575
0.111737
0.125181
0.391845
0.422624
0.377485
0.408178
0.15454
0.170401
0.148013
0.163755
0.448007
0.417106
0.435985
0.405125
0.182119
0.166062
0.176567
0.160589
0.353027
0.316504
0.341083
0.304594
0.14287
0.129228
0.137492
0.123898
0.299862
0.299834
0.28798
0.287952
0.123053
0.12304
0.117751
0.117739
0.316422
0.352896
0.304514
0.340954
0.12919
0.142808
0.123862
0.137431
0.416937
0.447817
0.404959
0.435796
0.165977
0.182014
0.160506
0.176465
0.468747
0.437807
0.458888
0.427962
0.191708
0.175536
0.187142
0.17102
0.373719
0.337171
0.363876
0.327336
0.152203
0.138488
0.147753
0.13407
0.320498
0.32047
0.310675
0.310647
0.132271
0.132258
0.127872
0.127859
0.337086
0.373584
0.327253
0.363742
0.138449
0.152138
0.134032
0.147689
0.437634
0.468552
0.42779
0.458694
0.175447
0.191599
0.170932
0.187034
0.485565
0.454627
0.477603
0.446661
0.199504
0.183259
0.195805
0.179591
0.390579
0.354042
0.382593
0.346048
0.159832
0.14607
0.156208
0.142467
0.337363
0.337333
0.329369
0.32934
0.139825
0.139811
0.136234
0.136221
0.353955
0.390441
0.345962
0.382456
0.146029
0.159765
0.142427
0.156142
0.45445
0.485366
0.446485
0.477404
0.183166
0.19939
0.1795
0.195693
0.498947
0.468039
0.492643
0.461718
0.205724
0.189436
0.202786
0.186515
0.404067
0.367565
0.39771
0.361189
0.165952
0.152163
0.163058
0.14928
0.350895
0.350865
0.344513
0.344484
0.145901
0.145887
0.143025
0.143011
0.367477
0.403926
0.361102
0.39757
0.152121
0.165883
0.149239
0.16299
0.46786
0.498745
0.461539
0.49244
0.189341
0.205607
0.186421
0.20267
0.509353
0.478495
0.504485
0.4736
0.210577
0.194269
0.208298
0.191996
0.41462
0.378171
0.409679
0.373203
0.170755
0.156953
0.168496
0.154699
0.361522
0.361491
0.356543
0.356512
0.150682
0.150667
0.148431
0.148417
0.378082
0.414478
0.373115
0.409538
0.15691
0.170684
0.154656
0.168426
0.478313
0.509148
0.473419
0.504279
0.194171
0.210458
0.1919
0.208179
0.517183
0.486391
0.513554
0.482727
0.214247
0.197934
0.212536
0.196223
0.422632
0.38625
0.418915
0.3825
0.174412
0.16061
0.172705
0.158901
0.36963
0.369599
0.365864
0.365833
0.154337
0.154323
0.152629
0.152614
0.38616
0.422489
0.38241
0.418772
0.160566
0.174339
0.158858
0.172633
0.486208
0.516977
0.482545
0.513346
0.197834
0.214125
0.196124
0.212415
0.522806
0.492094
0.520238
0.489485
0.216902
0.200595
0.215679
0.199367
0.428463
0.392159
0.425794
0.389452
0.177084
0.163293
0.17585
0.162053
0.375574
0.375543
0.372848
0.372817
0.157024
0.157009
0.155781
0.155766
0.392068
0.428318
0.389361
0.42565
0.163249
0.177011
0.162009
0.175777
0.49191
0.522599
0.489301
0.520029
0.200495
0.216779
0.199267
0.215555
0.526534
0.495916
0.524878
0.494211
0.218687
0.202397
0.217882
0.201582
0.432426
0.39621
0.430655
0.394396
0.178913
0.165142
0.178085
0.164302
0.379665
0.379634
0.37783
0.377799
0.158881
0.158866
0.158037
0.158022
0.396119
0.432281
0.394305
0.430511
0.165097
0.17884
0.164258
0.178011
0.495731
0.526327
0.494026
0.524669
0.202296
0.218562
0.201481
0.217757
0.528644
0.498133
0.527765
0.497198
0.219729
0.203463
0.219281
0.203001
0.434797
0.398677
0.433791
0.397623
0.180023
0.166278
0.179539
0.16578
0.382178
0.382147
0.381101
0.38107
0.16003
0.160015
0.159525
0.15951
0.398586
0.434652
0.397532
0.433646
0.166233
0.179949
0.165735
0.179465
0.497948
0.528437
0.497014
0.527555
0.203361
0.219604
0.202899
0.219155
0.529366
0.498979
0.529155
0.498704
0.220133
0.2039
0.219993
0.203741
0.435809
0.399796
0.435456
0.399389
0.180519
0.166809
0.18033
0.166602
0.383347
0.383316
0.382915
0.382884
0.160576
0.160561
0.16036
0.160345
0.399705
0.435665
0.399298
0.435311
0.166764
0.180444
0.166556
0.180256
0.498795
0.52916
0.498519
0.528946
0.203798
0.220007
0.203639
0.219867
0.528924
0.498675
0.52927
0.498946
0.220013
0.203813
0.22012
0.2039
0.435679
0.399775
0.435867
0.399909
0.180498
0.166825
0.180551
0.16686
0.383379
0.383348
0.383487
0.383457
0.160609
0.160594
0.160637
0.160622
0.399684
0.435535
0.399818
0.435723
0.16678
0.180423
0.166815
0.180477
0.498492
0.528719
0.498763
0.529062
0.203711
0.219887
0.203798
0.219994
0.527441
0.497351
0.52829
0.498119
0.219413
0.203257
0.219754
0.203576
0.434549
0.39877
0.435227
0.399388
0.180027
0.166403
0.180307
0.166659
0.382434
0.382404
0.383023
0.382992
0.160211
0.160195
0.160456
0.160441
0.398679
0.434406
0.399297
0.435084
0.166358
0.179953
0.166614
0.180233
0.497169
0.527237
0.497936
0.528084
0.203156
0.219288
0.203474
0.219628
0.525069
0.495159
0.526349
0.496347
0.218413
0.202305
0.218947
0.202814
0.432561
0.396913
0.433652
0.397938
0.17917
0.165597
0.179632
0.166032
0.380642
0.380611
0.381634
0.381604
0.159429
0.159414
0.159851
0.159836
0.396824
0.43242
0.397848
0.433509
0.165553
0.179097
0.165987
0.179558
0.494979
0.524868
0.496165
0.526145
0.202205
0.218289
0.202712
0.218822
0.521909
0.492202
0.523572
0.493761
0.217058
0.201004
0.217765
0.201682
0.429825
0.394318
0.431279
0.395701
0.177977
0.164462
0.178602
0.165057
0.378116
0.378085
0.379464
0.379433
0.158321
0.158306
0.158902
0.158887
0.394229
0.429684
0.395612
0.431137
0.164417
0.177904
0.165012
0.178528
0.492024
0.52171
0.493582
0.52337
0.200905
0.216935
0.201582
0.21764
0.518038
0.488559
0.520049
0.490453
0.215385
0.19939
0.216247
0.200221
0.426418
0.391064
0.428199
0.392768
0.176484
0.163031
0.177254
0.16377
0.374935
0.374906
0.376602
0.376572
0.15692
0.156906
0.157643
0.157629
0.390976
0.42628
0.39268
0.428059
0.162988
0.176412
0.163726
0.177182
0.488383
0.517841
0.490276
0.519849
0.199292
0.215264
0.200122
0.216124
0.513511
0.484288
0.515844
0.48649
0.21342
0.19749
0.214425
0.198461
0.422401
0.387209
0.424481
0.389207
0.174716
0.161333
0.175622
0.162203
0.37116
0.371131
0.373118
0.373089
0.155254
0.155239
0.156107
0.156093
0.387122
0.422264
0.38912
0.424343
0.161289
0.174645
0.162159
0.17555
0.484115
0.513317
0.486315
0.515647
0.197393
0.2133
0.198363
0.214304
0.508367
0.479428
0.511005
0.481921
0.21118
0.195321
0.212321
0.196425
0.417812
0.382793
0.420174
0.385068
0.172693
0.159383
0.173725
0.160377
0.366829
0.3668
0.369062
0.369032
0.153339
0.153325
0.154315
0.154301
0.382708
0.417677
0.384983
0.420038
0.159341
0.172623
0.160334
0.173654
0.479258
0.508177
0.481749
0.510811
0.195225
0.211062
0.196329
0.212202
0.502627
0.474002
0.505561
0.476776
0.208676
0.192893
0.209948
0.194126
0.412674
0.377839
0.415308
0.380382
0.170424
0.157193
0.171578
0.158307
0.361966
0.361938
0.364463
0.364434
0.151187
0.151173
0.152281
0.152267
0.377756
0.412542
0.380297
0.415175
0.157152
0.170355
0.158265
0.171509
0.473835
0.502441
0.476607
0.505371
0.1928
0.20856
0.194031
0.209831
0.496304
0.468019
0.49953
0.471071
0.205912
0.190212
0.207315
0.191572
0.406996
0.372357
0.4099
0.375163
0.167913
0.154767
0.169188
0.155999
0.356579
0.356551
0.359337
0.359309
0.1488
0.148786
0.150012
0.149998
0.372275
0.406867
0.375081
0.40977
0.154726
0.167846
0.155958
0.16912
0.467856
0.496121
0.470906
0.499343
0.19012
0.205799
0.191479
0.2072
0.489396
0.46148
0.492914
0.464811
0.202888
0.187275
0.204422
0.188763
0.400778
0.366343
0.403954
0.369416
0.165159
0.152102
0.166556
0.153454
0.350666
0.350638
0.353688
0.353661
0.146177
0.146164
0.147508
0.147494
0.366263
0.400651
0.369335
0.403826
0.152062
0.165093
0.153414
0.16649
0.46132
0.489218
0.464649
0.492732
0.187186
0.202778
0.188673
0.204309
0.481896
0.454373
0.485712
0.45799
0.1996
0.18408
0.201267
0.185699
0.394006
0.359785
0.397461
0.363132
0.162156
0.149194
0.163679
0.150669
0.344212
0.344186
0.347507
0.34748
0.143313
0.1433
0.144766
0.144752
0.359706
0.393882
0.363053
0.397335
0.149155
0.162092
0.150629
0.163614
0.454217
0.481722
0.457832
0.485534
0.183993
0.199493
0.18561
0.201157
0.47379
0.446681
0.477912
0.450593
0.19604
0.180615
0.197844
0.18237
0.38666
0.35266
0.390405
0.356294
0.158894
0.146031
0.160549
0.147635
0.337197
0.337171
0.340776
0.34075
0.140196
0.140184
0.141777
0.141764
0.352584
0.38654
0.356217
0.390283
0.145993
0.158832
0.147596
0.160485
0.446528
0.47362
0.450439
0.477738
0.18053
0.195935
0.182284
0.197738
0.465056
0.438377
0.469495
0.442599
0.192195
0.176868
0.194143
0.178766
0.378713
0.344941
0.382763
0.348876
0.155361
0.1426
0.157153
0.14434
0.329591
0.329566
0.33347
0.333444
0.136815
0.136802
0.13853
0.138517
0.344866
0.378595
0.348801
0.382643
0.142563
0.155301
0.144303
0.157092
0.438229
0.464891
0.442448
0.469325
0.176785
0.192093
0.178682
0.19404
0.455671
0.429432
0.460438
0.433979
0.188054
0.172833
0.190153
0.174876
0.370131
0.336591
0.374503
0.340847
0.151542
0.138887
0.15348
0.140771
0.321358
0.321333
0.325555
0.32553
0.133152
0.13314
0.13501
0.134998
0.336518
0.370017
0.340773
0.374386
0.138851
0.151484
0.140734
0.15342
0.429288
0.45551
0.433832
0.460274
0.172753
0.187956
0.174795
0.190052
0.445603
0.419809
0.450716
0.4247
0.1836
0.16849
0.185858
0.170691
0.360873
0.327568
0.365588
0.332166
0.147418
0.134871
0.149511
0.136909
0.312453
0.312429
0.316992
0.316967
0.129189
0.129177
0.1312
0.131188
0.327498
0.360762
0.332095
0.365475
0.134836
0.147362
0.136874
0.149454
0.419669
0.445447
0.424558
0.450556
0.168413
0.183505
0.170612
0.185761
0.434812
0.409462
0.440292
0.414721
0.178811
0.163816
0.18124
0.166186
0.350891
0.317821
0.355975
0.322788
0.142967
0.13053
0.145227
0.132734
0.302827
0.302804
0.307734
0.30771
0.124903
0.124892
0.12708
0.127068
0.317753
0.350783
0.322719
0.355865
0.130496
0.142912
0.1327
0.145171
0.409326
0.434661
0.414583
0.440137
0.163741
0.17872
0.16611
0.181147
0.423254
0.398342
0.429124
0.403994
0.173663
0.158789
0.176275
0.161339
0.340129
0.307293
0.34561
0.312658
0.138162
0.125838
0.140603
0.128222
0.292418
0.292396
0.297724
0.297701
0.120269
0.120258
0.122624
0.122613
0.307226
0.340025
0.312591
0.345504
0.125806
0.13811
0.128189
0.140549
0.398211
0.423109
0.40386
0.428974
0.158717
0.173575
0.161266
0.176185
0.410884
0.386398
0.417165
0.392468
0.168127
0.153387
0.170937
0.156127
0.328527
0.29591
0.334436
0.301713
0.132978
0.120765
0.135612
0.123344
0.281151
0.281129
0.286897
0.286875
0.115254
0.115244
0.117804
0.117794
0.295847
0.328427
0.301648
0.334334
0.120734
0.132928
0.123313
0.135561
0.386272
0.410744
0.392339
0.417021
0.153319
0.168043
0.156057
0.170851
0.397682
0.37359
0.404378
0.380096
0.16218
0.147595
0.165198
0.150532
0.316011
0.283574
0.322388
0.289869
0.127379
0.115268
0.130226
0.118066
0.268912
0.268892
0.275162
0.275141
0.109812
0.109802
0.112583
0.112573
0.283514
0.315915
0.289807
0.32229
0.115239
0.127332
0.118036
0.130177
0.37347
0.397549
0.379973
0.40424
0.147531
0.162101
0.150465
0.165116
0.383777
0.359903
0.390787
0.366851
0.155854
0.141426
0.15905
0.144548
0.30244
0.270099
0.309372
0.276996
0.121312
0.109274
0.124404
0.112333
0.255514
0.255494
0.262374
0.262354
0.10387
0.103861
0.106903
0.106893
0.270043
0.302351
0.276937
0.309279
0.109247
0.121268
0.112305
0.124358
0.35979
0.383651
0.366734
0.390656
0.141366
0.15578
0.144486
0.158973
0.370073
0.345073
0.37675
0.352683
0.149478
0.134865
0.152614
0.138201
0.287297
0.255075
0.295134
0.26282
0.114594
0.102638
0.118053
0.106043
0.240652
0.240634
0.248286
0.248267
0.0973249
0.0973169
0.100673
0.100664
0.255023
0.287214
0.262765
0.295048
0.102614
0.114554
0.106018
0.11801
0.344969
0.369957
0.352574
0.376627
0.13481
0.149411
0.138143
0.152543
0.362306
0.324765
0.364655
0.336509
0.144033
0.126097
0.146653
0.131128
0.268515
0.237846
0.278591
0.246759
0.10651
0.0951806
0.110795
0.0990066
0.224124
0.224108
0.232583
0.232566
0.090169
0.090162
0.0938037
0.0937962
0.237799
0.268441
0.24671
0.278512
0.0951594
0.106475
0.098984
0.110758
0.324672
0.362202
0.33641
0.364543
0.126049
0.143974
0.131076
0.146589
0.21893
0.188372
0.145499
0.125213
0.183963
0.157056
0.116574
0.100275
0.121939
0.0818507
0.068888
0.0363813
0.0957917
0.0596513
0.0502349
0.0227488
0.0632685
0.0632577
0.0211498
0.0211469
0.0429042
0.0428979
0.0106856
0.0106853
0.0818144
0.121875
0.036362
0.0688423
0.0596273
0.0957457
0.02274
0.050206
0.188283
0.218825
0.125141
0.145409
0.15699
0.183883
0.100225
0.116509
0.327166
0.289685
0.277238
0.242118
0.278382
0.244442
0.235322
0.20374
0.215434
0.17002
0.170482
0.126867
0.174962
0.133568
0.13698
0.0972873
0.148842
0.148822
0.106594
0.106578
0.114611
0.114596
0.0790928
0.0790816
0.169959
0.215336
0.126818
0.1704
0.133522
0.174885
0.0972514
0.136918
0.289559
0.327024
0.24201
0.277114
0.24434
0.278266
0.203657
0.235224
0.413537
0.373686
0.37219
0.333277
0.352242
0.315962
0.316911
0.281566
0.296951
0.249728
0.257492
0.210994
0.243856
0.200768
0.210485
0.168085
0.227544
0.227517
0.189231
0.189208
0.180928
0.180907
0.148624
0.148606
0.249649
0.296826
0.210924
0.25738
0.200704
0.243752
0.16803
0.210394
0.373529
0.413364
0.333135
0.37203
0.315829
0.352093
0.281448
0.316776
0.486973
0.446063
0.451673
0.411196
0.415108
0.377718
0.384855
0.347931
0.368404
0.320332
0.333887
0.286165
0.304476
0.260511
0.275154
0.231566
0.297599
0.297568
0.263668
0.263639
0.240137
0.240111
0.211429
0.211405
0.32024
0.368261
0.286079
0.333752
0.260433
0.304353
0.231495
0.27504
0.445885
0.486778
0.411027
0.451487
0.377561
0.414933
0.347786
0.384691
0.549663
0.508269
0.519566
0.478367
0.469022
0.431044
0.443105
0.405377
0.430369
0.381911
0.400537
0.352231
0.357302
0.312849
0.331836
0.287592
0.358881
0.358847
0.329325
0.329292
0.292144
0.292114
0.267031
0.267003
0.381811
0.430214
0.352135
0.400387
0.312762
0.357164
0.287509
0.331705
0.508078
0.549457
0.478181
0.519362
0.430871
0.46883
0.405212
0.442919
0.602779
0.561196
0.577335
0.535822
0.514897
0.476615
0.492897
0.454743
0.483402
0.434826
0.457954
0.409414
0.402709
0.358012
0.380895
0.336298
0.411654
0.411618
0.386298
0.386263
0.337114
0.337083
0.315483
0.315452
0.434721
0.48324
0.409311
0.457795
0.357918
0.402562
0.336208
0.380752
0.560999
0.602567
0.535627
0.577123
0.476431
0.514694
0.454564
0.492697
0.647335
0.605725
0.626049
0.584441
0.553513
0.51509
0.535048
0.496681
0.528214
0.479674
0.506783
0.458213
0.441215
0.396424
0.422781
0.378025
0.456459
0.456422
0.435011
0.434975
0.375428
0.375394
0.357069
0.357036
0.479567
0.528048
0.458107
0.506619
0.396327
0.441061
0.377929
0.422631
0.605526
0.647122
0.584242
0.625834
0.514899
0.553303
0.496493
0.534839
0.684311
0.642763
0.666699
0.625115
0.585648
0.547183
0.570329
0.531877
0.565618
0.517203
0.547789
0.499306
0.473446
0.428657
0.458069
0.413272
0.494002
0.493964
0.476093
0.476056
0.40762
0.407586
0.39225
0.392216
0.517094
0.565452
0.499198
0.547623
0.428556
0.473289
0.413173
0.457914
0.642564
0.684099
0.624914
0.666483
0.546988
0.585434
0.531684
0.570115
0.714596
0.673162
0.700221
0.658728
0.612028
0.573583
0.599496
0.561037
0.596417
0.548173
0.581792
0.533461
0.500046
0.455315
0.487404
0.44264
0.525022
0.524984
0.510282
0.510244
0.434277
0.434242
0.4216
0.421565
0.548064
0.596251
0.533352
0.581625
0.455212
0.499886
0.442538
0.487245
0.672964
0.714388
0.658529
0.700008
0.573386
0.611813
0.560841
0.599279
0.739049
0.697755
0.727491
0.686127
0.633372
0.594984
0.623274
0.584856
0.621416
0.573367
0.609595
0.561449
0.521676
0.477038
0.511439
0.466753
0.550284
0.550247
0.538331
0.538293
0.456023
0.455988
0.445725
0.445689
0.573258
0.621251
0.56134
0.609429
0.476934
0.521515
0.46665
0.511278
0.697559
0.738845
0.685929
0.727281
0.594786
0.633156
0.584658
0.623055
0.758428
0.717288
0.749314
0.708099
0.650319
0.612013
0.642341
0.603994
0.641349
0.593505
0.631973
0.584028
0.538949
0.494425
0.530816
0.486235
0.570502
0.570465
0.560985
0.560948
0.473449
0.473413
0.465239
0.465203
0.593397
0.641185
0.58392
0.631808
0.494321
0.538787
0.486131
0.530654
0.717095
0.758228
0.707904
0.749108
0.611814
0.650103
0.603795
0.642122
0.773431
0.732455
0.766427
0.725371
0.663465
0.625258
0.65732
0.619064
0.6569
0.609264
0.649636
0.601898
0.552445
0.508047
0.546133
0.501673
0.586348
0.58631
0.578939
0.578901
0.487121
0.487085
0.480721
0.480685
0.609156
0.656738
0.601791
0.649473
0.507942
0.552282
0.501569
0.545971
0.732265
0.773235
0.725178
0.766225
0.62506
0.66325
0.618864
0.657101
0.784663
0.743856
0.779471
0.738582
0.67333
0.635236
0.668762
0.630612
0.668672
0.621243
0.663227
0.615697
0.562675
0.518413
0.557935
0.513607
0.598417
0.59838
0.592826
0.592788
0.497543
0.497507
0.492708
0.492672
0.621137
0.668511
0.61559
0.663065
0.518308
0.562512
0.513502
0.557772
0.743669
0.784471
0.738392
0.779273
0.635038
0.673115
0.630413
0.668544
0.792672
0.75204
0.789029
0.748312
0.680387
0.642417
0.677168
0.639137
0.677211
0.629987
0.67332
0.625996
0.570107
0.525988
0.566712
0.522523
0.607252
0.607215
0.603215
0.603178
0.50518
0.505143
0.501684
0.501647
0.629881
0.677052
0.62589
0.673159
0.525883
0.569945
0.522418
0.566549
0.751856
0.792484
0.748125
0.788835
0.642219
0.680174
0.638939
0.676951
0.797917
0.757467
0.795604
0.755065
0.685034
0.647201
0.682975
0.645074
0.682984
0.635964
0.680422
0.633303
0.575146
0.531175
0.572901
0.528858
0.613322
0.613285
0.610614
0.610578
0.510433
0.510397
0.508082
0.508046
0.635859
0.682826
0.633198
0.680264
0.53107
0.574984
0.528753
0.572739
0.757286
0.797733
0.754881
0.795413
0.647005
0.684822
0.644876
0.682759
0.800805
0.760547
0.799624
0.759272
0.687626
0.649943
0.686554
0.648796
0.686401
0.639585
0.68497
0.638055
0.578144
0.534327
0.576879
0.532986
0.617037
0.617001
0.61546
0.615424
0.513655
0.513619
0.512279
0.512243
0.639481
0.686245
0.63795
0.684813
0.534222
0.577983
0.532882
0.576718
0.760368
0.800625
0.75909
0.799437
0.649748
0.687416
0.6486
0.686339
0.80168
0.761625
0.801466
0.761311
0.688458
0.650942
0.688232
0.650633
0.687812
0.641201
0.687345
0.640633
0.579404
0.535746
0.578974
0.535238
0.61875
0.618714
0.618134
0.618098
0.51515
0.515114
0.514603
0.514567
0.641098
0.687658
0.64053
0.68719
0.535642
0.579244
0.535133
0.578813
0.761449
0.801503
0.761133
0.801283
0.650748
0.68825
0.650438
0.688019
0.800849
0.761011
0.801457
0.761508
0.687806
0.650472
0.688294
0.650865
0.687528
0.641121
0.687869
0.641363
0.579199
0.535703
0.579466
0.535891
0.618767
0.618731
0.618961
0.618925
0.515183
0.515147
0.515333
0.515298
0.641019
0.687376
0.64126
0.687716
0.5356
0.57904
0.535787
0.579307
0.760838
0.800676
0.761333
0.801277
0.650281
0.687601
0.650672
0.688083
0.798515
0.758913
0.799847
0.760127
0.68584
0.648709
0.686961
0.649728
0.685767
0.639574
0.686826
0.640529
0.577713
0.534394
0.578604
0.535199
0.617323
0.617288
0.618228
0.618192
0.513958
0.513923
0.514722
0.514687
0.639473
0.685617
0.640428
0.686675
0.534291
0.577556
0.535097
0.578446
0.758742
0.798346
0.759954
0.799671
0.648519
0.685637
0.649537
0.686753
0.794888
0.75554
0.796846
0.757371
0.682744
0.645838
0.684412
0.647392
0.682736
0.636761
0.684408
0.638325
0.57513
0.531992
0.57655
0.533322
0.614616
0.614581
0.616127
0.616092
0.511644
0.511609
0.51293
0.512895
0.636661
0.682589
0.638225
0.684259
0.53189
0.574974
0.53322
0.576393
0.755373
0.794722
0.757201
0.796673
0.645651
0.682544
0.647203
0.684207
0.790115
0.751046
0.792629
0.753421
0.678649
0.641992
0.680803
0.64402
0.678593
0.632843
0.680804
0.634943
0.571585
0.528638
0.573471
0.530429
0.610809
0.610774
0.612853
0.612818
0.508384
0.50835
0.510128
0.510093
0.632745
0.678448
0.634844
0.680657
0.528538
0.571431
0.530328
0.573316
0.750881
0.789952
0.753254
0.79246
0.641807
0.678452
0.643833
0.6806
0.78431
0.745545
0.787328
0.748411
0.673652
0.637272
0.676246
0.639726
0.673456
0.627941
0.676152
0.63052
0.567181
0.524437
0.569486
0.526641
0.606022
0.605988
0.608543
0.608509
0.504282
0.504248
0.506436
0.506402
0.627844
0.673313
0.630423
0.676007
0.524338
0.567029
0.526541
0.569333
0.745384
0.784151
0.748247
0.787163
0.63709
0.673459
0.639542
0.676047
0.777556
0.739124
0.781041
0.742441
0.667827
0.631752
0.670828
0.634599
0.667412
0.622141
0.670552
0.62516
0.561993
0.519463
0.564682
0.522046
0.600342
0.600309
0.6033
0.603267
0.499413
0.499379
0.501943
0.501909
0.622046
0.667271
0.625064
0.67041
0.519366
0.561844
0.521948
0.564532
0.738966
0.777401
0.742281
0.780879
0.631573
0.667637
0.634418
0.670632
0.76991
0.731838
0.773836
0.735582
0.66122
0.625481
0.664607
0.628699
0.660517
0.615501
0.664077
0.618934
0.556072
0.513767
0.559123
0.516706
0.593828
0.593795
0.597198
0.597165
0.493828
0.493795
0.496711
0.496677
0.615408
0.660379
0.61884
0.663937
0.513671
0.555925
0.516609
0.558975
0.731683
0.769759
0.735425
0.773678
0.625306
0.661034
0.628521
0.664415
0.761406
0.723722
0.765757
0.727878
0.653863
0.61849
0.657623
0.622065
0.652808
0.608056
0.656772
0.611889
0.549447
0.507379
0.552847
0.510661
0.586515
0.586483
0.590281
0.590249
0.487556
0.487524
0.49078
0.490747
0.607965
0.652672
0.611797
0.656635
0.507285
0.549303
0.510566
0.552702
0.723571
0.761258
0.727724
0.765603
0.618318
0.653681
0.621891
0.657434
0.752058
0.714792
0.756831
0.719354
0.645767
0.61079
0.649896
0.614719
0.644296
0.599819
0.648661
0.604047
0.54213
0.50031
0.545876
0.503932
0.578414
0.578382
0.582574
0.582542
0.480609
0.480578
0.48417
0.484138
0.599729
0.644163
0.603957
0.648526
0.500217
0.541988
0.503839
0.545733
0.714644
0.751914
0.719204
0.75668
0.610622
0.645589
0.614548
0.649711
0.741868
0.705044
0.747062
0.710017
0.636934
0.60238
0.641432
0.606665
0.634978
0.590784
0.639747
0.595413
0.534117
0.492555
0.538212
0.496522
0.56952
0.569489
0.574078
0.574046
0.472983
0.472951
0.476885
0.476853
0.590696
0.634848
0.595324
0.639616
0.492465
0.533979
0.49643
0.538072
0.704899
0.741727
0.709869
0.746915
0.602215
0.63676
0.606498
0.641252
0.730823
0.694462
0.736446
0.699854
0.627353
0.593246
0.632227
0.597895
0.624835
0.58093
0.63002
0.585972
0.525394
0.484099
0.529847
0.488419
0.559811
0.55978
0.564779
0.564749
0.464658
0.464628
0.468912
0.468881
0.580844
0.624708
0.585884
0.629891
0.48401
0.525258
0.488329
0.52971
0.69432
0.730685
0.69971
0.736303
0.593085
0.627183
0.597731
0.632051
0.7189
0.68302
0.724966
0.688846
0.617005
0.583365
0.622265
0.588391
0.613835
0.570224
0.619453
0.575696
0.515932
0.474911
0.520758
0.479601
0.549251
0.549221
0.55465
0.55462
0.455606
0.455576
0.460228
0.460198
0.570139
0.613711
0.575611
0.619327
0.474824
0.5158
0.479513
0.520624
0.682881
0.718766
0.688705
0.724826
0.583208
0.616839
0.588231
0.622093
0.706068
0.670677
0.712593
0.676958
0.605862
0.572707
0.611523
0.578126
0.601935
0.558618
0.608008
0.564546
0.505696
0.464952
0.510915
0.470033
0.537794
0.537765
0.543648
0.543618
0.445787
0.445758
0.450798
0.450768
0.558535
0.601813
0.564462
0.607885
0.464868
0.505567
0.469947
0.510784
0.670541
0.705937
0.67682
0.712455
0.572553
0.6057
0.57797
0.611356
0.692289
0.657396
0.699293
0.664151
0.593892
0.561229
0.599971
0.567064
0.589084
0.546057
0.595639
0.55247
0.494641
0.454176
0.500275
0.459672
0.52538
0.525352
0.53172
0.531691
0.435151
0.435123
0.440577
0.440548
0.545976
0.588964
0.552388
0.595518
0.454094
0.494515
0.459588
0.500147
0.657263
0.69216
0.664016
0.699158
0.561079
0.593735
0.566911
0.599808
0.677509
0.643116
0.68502
0.65038
0.581056
0.548883
0.587574
0.555158
0.575217
0.532473
0.582289
0.539406
0.482712
0.442525
0.48879
0.448466
0.511941
0.511913
0.518803
0.518774
0.42364
0.423612
0.429511
0.429483
0.532393
0.5751
0.539326
0.58217
0.442444
0.482589
0.448384
0.488665
0.642985
0.677382
0.650247
0.684888
0.548737
0.580902
0.55501
0.587415
0.661675
0.627768
0.66972
0.635573
0.567301
0.535614
0.574285
0.542358
0.560259
0.517786
0.567886
0.525281
0.469845
0.42993
0.476401
0.436352
0.497394
0.497367
0.50482
0.504792
0.411185
0.411158
0.417537
0.41751
0.517708
0.560144
0.525202
0.56777
0.429851
0.469725
0.436272
0.476279
0.62764
0.661551
0.635444
0.66959
0.535472
0.567151
0.542214
0.57413
0.644732
0.611287
0.653337
0.619667
0.552576
0.521359
0.560052
0.528604
0.54413
0.501905
0.552352
0.510008
0.45597
0.416314
0.463039
0.423257
0.481644
0.481617
0.489684
0.489657
0.397703
0.397677
0.40458
0.404553
0.501829
0.544018
0.509931
0.552239
0.416238
0.455853
0.423179
0.46292
0.611161
0.64461
0.61954
0.65321
0.521221
0.55243
0.528463
0.559901
0.626643
0.593614
0.635823
0.602595
0.536839
0.506061
0.544825
0.513834
0.526742
0.48472
0.535605
0.49349
0.441007
0.401581
0.44863
0.409095
0.464569
0.464543
0.473288
0.473262
0.383092
0.383066
0.390548
0.390522
0.484646
0.526632
0.493415
0.535494
0.401507
0.440894
0.40902
0.448515
0.593491
0.626523
0.602471
0.635699
0.505927
0.536698
0.513697
0.544678
0.607453
0.574728
0.617168
0.584315
0.520105
0.489683
0.52858
0.497998
0.507993
0.466078
0.51755
0.4756
0.42486
0.385597
0.433089
0.393757
0.445992
0.445966
0.455489
0.455463
0.367199
0.367174
0.375319
0.375294
0.466006
0.507886
0.475527
0.517442
0.385526
0.424751
0.393685
0.432978
0.574609
0.607335
0.584193
0.617046
0.489554
0.519969
0.497866
0.528439
0.587518
0.554681
0.597521
0.564837
0.502619
0.472231
0.511409
0.481081
0.487697
0.445696
0.498063
0.456137
0.407353
0.368117
0.416296
0.377068
0.425612
0.425587
0.436059
0.436034
0.349771
0.349748
0.358699
0.358676
0.445628
0.487595
0.456066
0.497959
0.36805
0.40725
0.376999
0.41619
0.554565
0.587405
0.56472
0.597402
0.472108
0.50249
0.480955
0.511274
0.568595
0.533309
0.577667
0.54421
0.485732
0.453441
0.493888
0.463058
0.46518
0.422966
0.47681
0.434688
0.387854
0.348616
0.397936
0.35867
0.40293
0.402907
0.4146
0.414577
0.3304
0.330378
0.340359
0.340336
0.422901
0.465083
0.434621
0.476711
0.348554
0.387758
0.358605
0.397836
0.533199
0.568487
0.544097
0.577553
0.453326
0.48561
0.462939
0.49376
0.560399
0.50549
0.561803
0.521339
0.477487
0.42844
0.479382
0.442756
0.437782
0.396879
0.452398
0.410394
0.363969
0.32626
0.376726
0.337829
0.377487
0.377465
0.390559
0.390537
0.308756
0.308737
0.319856
0.319835
0.396819
0.437693
0.410332
0.452304
0.326203
0.363881
0.337769
0.376634
0.505389
0.560299
0.521234
0.561696
0.428336
0.477376
0.442646
0.479263
0.270199
0.235812
0.189531
0.164881
0.246811
0.21397
0.16927
0.146366
0.164184
0.12017
0.101521
0.0640113
0.144421
0.101948
0.085901
0.0503714
0.0996304
0.0996111
0.0470915
0.04708
0.0821733
0.0821582
0.034192
0.0341848
0.12011
0.164083
0.0639689
0.10144
0.1019
0.144338
0.0503407
0.0858376
0.235678
0.270046
0.164763
0.189389
0.213859
0.246681
0.146272
0.169154
0.397444
0.356731
0.337811
0.299244
0.365575
0.326107
0.310297
0.273092
0.278468
0.229575
0.223166
0.17596
0.249343
0.201745
0.198735
0.152904
0.206401
0.206372
0.153731
0.153707
0.179321
0.179297
0.131425
0.131405
0.22949
0.278334
0.175887
0.223047
0.201672
0.249227
0.152842
0.198634
0.356562
0.397258
0.299092
0.33764
0.325958
0.365409
0.272962
0.310148
0.502212
0.459389
0.45194
0.409932
0.461995
0.420266
0.415783
0.374939
0.379205
0.328655
0.330438
0.280531
0.341284
0.291917
0.296784
0.248117
0.304461
0.304427
0.25675
0.256719
0.268454
0.268423
0.225081
0.225053
0.328554
0.379048
0.280437
0.330291
0.291827
0.341142
0.248034
0.296653
0.459196
0.502002
0.40975
0.451739
0.420089
0.461801
0.374775
0.4156
0.591474
0.547847
0.548603
0.505279
0.544027
0.501357
0.504618
0.462318
0.467253
0.416081
0.42478
0.373835
0.421707
0.37159
0.38289
0.333067
0.39142
0.391382
0.34936
0.349324
0.347606
0.347571
0.309299
0.309266
0.415971
0.467084
0.373729
0.424615
0.371488
0.421549
0.33297
0.382739
0.547642
0.591255
0.505078
0.548385
0.501163
0.543816
0.462131
0.504412
0.667346
0.623497