/*--------------------------------*- C++ -*----------------------------------*\
  =========                 |
  \\      /  F ield         | OpenFOAM: The Open Source CFD Toolbox
   \\    /   O peration     | Website:  https://openfoam.org
    \\  /    A nd           | Version:  9
     \\/     M anipulation  |
\*---------------------------------------------------------------------------*/
FoamFile
{
    format      ascii;
    class       volScalarField;
    location    "4";
    object      nut;
}
// * * * * * * * * * * * * * * * * * * * * * * * * * * * * * * * * * * * * * //

dimensions      [0 2 -1 0 0 0 0];

internalField   nonuniform List<scalar> 
36360
(
0.00378021
0.00341197
0.00242297
0.00221779
0.000582267
0.000536471
0.000338956
0.000360827
0.00255854
0.00198459
0.00137229
0.000622023
0.000385606
0.000259087
0.000229846
0.00017554
0.0016367
0.00163696
0.000336559
0.000336632
0.000202029
0.000202033
0.000160345
0.000160346
0.00198464
0.00255792
0.000622137
0.00137203
0.000259068
0.000385532
0.00017554
0.000229816
0.00341077
0.0037784
0.00221695
0.00242155
0.000536361
0.000582135
0.00036074
0.000338854
0.00549702
0.00515456
0.00472401
0.00435075
0.000803816
0.000736253
0.000714762
0.000650709
0.00443952
0.00408948
0.00356051
0.00312316
0.000608352
0.000512209
0.000512304
0.000396016
0.0040228
0.00402271
0.00303536
0.0030354
0.000462596
0.000462573
0.000329272
0.000329263
0.00408892
0.00443822
0.00312285
0.00355954
0.00051213
0.000608222
0.000395963
0.0005122
0.00515258
0.00549432
0.00434916
0.00472177
0.000736087
0.000803627
0.000650571
0.000714602
0.00679967
0.00652322
0.00618025
0.00587193
0.00093225
0.000865948
0.000873412
0.000806012
0.00592155
0.00565602
0.0052198
0.00492181
0.000752788
0.000675728
0.000686378
0.000601869
0.00559934
0.00559908
0.00486338
0.0048632
0.000638676
0.00063864
0.000560324
0.000560293
0.00565508
0.0059197
0.00492105
0.00521821
0.000675621
0.000752617
0.000601774
0.000686226
0.00652051
0.00679604
0.00586957
0.00617707
0.000865733
0.000932007
0.000805821
0.000873195
0.00788356
0.0076533
0.00736557
0.00711427
0.00102951
0.000965644
0.000983716
0.000918649
0.00712227
0.0068911
0.00655188
0.00630664
0.000861717
0.000793608
0.0008106
0.000738685
0.00683145
0.00683108
0.00624873
0.00624841
0.000761347
0.000761305
0.000704452
0.000704413
0.00688987
0.00712
0.00630555
0.00654981
0.000793481
0.000861518
0.000738567
0.000810414
0.00765
0.00787914
0.00711125
0.00736151
0.000965394
0.00102922
0.000918415
0.000983448
0.00878444
0.00858761
0.00835433
0.00814193
0.00110719
0.00104552
0.00107041
0.00100768
0.00810173
0.00788823
0.00763573
0.00741437
0.000947831
0.000885044
0.000907154
0.000841993
0.00782488
0.00782443
0.00735261
0.0073522
0.000855426
0.000855379
0.000811207
0.000811161
0.00788679
0.00809914
0.00741303
0.00763328
0.000884906
0.000947614
0.00084186
0.000906946
0.00858385
0.00877937
0.00813838
0.00834954
0.00104524
0.00110687
0.00100742
0.00107011
0.00952877
0.00935728
0.00917363
0.00899021
0.00116992
0.00111013
0.00114018
0.00107948
0.00890204
0.00869959
0.00852087
0.00831325
0.00101695
0.000957759
0.00098422
0.000923387
0.00863379
0.00863329
0.00824837
0.00824789
0.000929886
0.000929836
0.000894717
0.000894669
0.00869798
0.00889919
0.00831172
0.00851814
0.000957613
0.00101672
0.000923245
0.000983996
0.00935317
0.0095232
0.00898625
0.00916826
0.00110984
0.00116958
0.0010792
0.00113985
0.0101403
0.00998849
0.00984871
0.00968754
0.00122064
0.00116246
0.00119659
0.00113764
0.00955513
0.0093605
0.00924395
0.00904552
0.00107265
0.00101606
0.00104626
0.000988472
0.00929349
0.00929294
0.00897886
0.00897833
0.000989447
0.000989395
0.000961272
0.000961221
0.00935877
0.0095521
0.00904384
0.00924101
0.00101591
0.00107241
0.000988323
0.00104603
0.00998411
0.0101344
0.00968328
0.00984288
0.00116216
0.00122029
0.00113735
0.00119625
0.01064
0.0105036
0.0104018
0.0102581
0.00126157
0.00120472
0.00124218
0.00118469
0.0100865
0.00989783
0.00983323
0.00964155
0.00111751
0.00106287
0.00109627
0.00104072
0.00983045
0.00982987
0.00957416
0.00957359
0.0010372
0.00103714
0.0010146
0.00101455
0.00989601
0.0100834
0.00963978
0.00983013
0.00106272
0.00111727
0.00104057
0.00109603
0.010499
0.0106337
0.0102535
0.0103956
0.00120441
0.0012612
0.00118438
0.00124182
0.0110453
0.0109213
0.0108522
0.0107222
0.00129437
0.00123862
0.00127885
0.00122258
0.0105166
0.0103325
0.0103116
0.0101251
0.00115344
0.0011003
0.00113645
0.00108261
0.0102653
0.0102647
0.0100576
0.010057
0.00107535
0.0010753
0.00105732
0.00105726
0.0103306
0.0105133
0.0101233
0.0103083
0.00110015
0.0011532
0.00108245
0.0011362
0.0109165
0.0110387
0.0107175
0.0108456
0.0012383
0.001294
0.00122226
0.00127848
0.0113714
0.0112573
0.0112161
0.0110971
0.00132044
0.00126559
0.00130813
0.00125285
0.0108622
0.0106819
0.0106974
0.0105151
0.00118201
0.00113003
0.00116853
0.001116
0.010615
0.0106144
0.0104479
0.0104473
0.00110564
0.00110559
0.00109135
0.00109129
0.0106799
0.0108588
0.0105132
0.010694
0.00112988
0.00118176
0.00111585
0.00116828
0.0112524
0.0113646
0.0110923
0.0112093
0.00126527
0.00132006
0.00125253
0.00130776
0.0116308
0.0115247
0.0115073
0.0113972
0.00134088
0.00128675
0.00133126
0.00127679
0.011137
0.0109596
0.0110059
0.010827
0.00120444
0.00115337
0.00119388
0.00114239
0.0108933
0.0108926
0.0107602
0.0107596
0.00112942
0.00112936
0.00111823
0.00111817
0.0109576
0.0111335
0.010825
0.0110025
0.00115321
0.00120419
0.00114223
0.00119363
0.0115197
0.0116238
0.0113922
0.0115003
0.00128643
0.0013405
0.00127647
0.00133088
0.0118341
0.0117346
0.0117374
0.0116347
0.00135662
0.00130308
0.00134925
0.00129543
0.0113525
0.0111775
0.0112497
0.0110734
0.00122175
0.00117139
0.00121364
0.00116295
0.0111117
0.011111
0.0110072
0.0110065
0.00114778
0.00114773
0.00113917
0.00113912
0.0111755
0.011349
0.0110714
0.0112462
0.00117123
0.0012215
0.00116279
0.00121339
0.0117295
0.0118269
0.0116296
0.0117302
0.00130275
0.00135623
0.0012951
0.00134886
0.0119898
0.0118957
0.0119158
0.0118191
0.0013684
0.00131532
0.00136292
0.00130962
0.0115178
0.0113448
0.011439
0.0112648
0.00123478
0.00118498
0.00122872
0.00117865
0.0112796
0.0112789
0.0111992
0.0111985
0.00116164
0.00116158
0.00115518
0.00115513
0.0113428
0.0115143
0.0112628
0.0114355
0.00118482
0.00123453
0.00117849
0.00122846
0.0118905
0.0119825
0.0118139
0.0119085
0.001315
0.00136801
0.00130929
0.00136253
0.0121054
0.0120154
0.0120506
0.0119585
0.00137687
0.00132415
0.00137297
0.00132008
0.0116409
0.0114696
0.0115822
0.0114099
0.00124422
0.00119485
0.00123987
0.00119029
0.0114048
0.0114041
0.0113447
0.0113441
0.00117172
0.00117166
0.00116706
0.00116701
0.0114675
0.0116373
0.0114078
0.0115786
0.00119468
0.00124396
0.00119013
0.00123961
0.0120101
0.0120979
0.0119532
0.0120431
0.00132382
0.00137647
0.00131975
0.00137258
0.0121868
0.0121002
0.0121483
0.01206
0.00138253
0.0013301
0.00137998
0.00132741
0.0117282
0.0115583
0.0116866
0.0115158
0.00125064
0.0012016
0.00124773
0.00119854
0.0114941
0.0114934
0.0114512
0.0114505
0.00117864
0.00117858
0.00117549
0.00117544
0.0115562
0.0117245
0.0115137
0.011683
0.00120144
0.00125038
0.00119838
0.00124748
0.0120949
0.0121793
0.0120547
0.0121408
0.00132976
0.00138214
0.00132708
0.00137958
0.0122393
0.0121553
0.0122146
0.0121293
0.00138583
0.00133361
0.00138441
0.00133209
0.0117852
0.0116165
0.0117581
0.0115886
0.00125452
0.00120574
0.00125283
0.00120393
0.0115527
0.011552
0.0115244
0.0115237
0.0011829
0.00118284
0.00118103
0.00118097
0.0116143
0.0117815
0.0115864
0.0117544
0.00120558
0.00125427
0.00120377
0.00125257
0.0121499
0.0122316
0.0121239
0.012207
0.00133327
0.00138544
0.00133175
0.00138402
0.0122668
0.0121852
0.0122542
0.0121712
0.00138712
0.00133505
0.00138667
0.00133452
0.0118165
0.0116487
0.0118016
0.0116332
0.00125626
0.00120768
0.0012556
0.00120692
0.0115854
0.0115847
0.0115695
0.0115688
0.00118493
0.00118487
0.00118413
0.00118407
0.0116466
0.0118128
0.0116311
0.0117979
0.00120751
0.001256
0.00120676
0.00125534
0.0121798
0.0122591
0.0121658
0.0122465
0.00133472
0.00138672
0.00133419
0.00138627
0.0122733
0.0121933
0.0122706
0.0121895
0.00138675
0.00133477
0.00138708
0.00133505
0.0118253
0.0116583
0.0118212
0.0116538
0.0012562
0.00120774
0.00125638
0.00120787
0.0115954
0.0115947
0.0115906
0.0115899
0.00118506
0.00118501
0.00118516
0.0011851
0.0116562
0.0118216
0.0116516
0.0118175
0.00120758
0.00125594
0.0012077
0.00125612
0.0121878
0.0122656
0.0121841
0.0122628
0.00133444
0.00138635
0.00133472
0.00138668
0.0122613
0.0121827
0.0122676
0.0121881
0.00138486
0.00133296
0.00138594
0.001334
0.0118154
0.0116491
0.0118204
0.0116536
0.00125457
0.00120622
0.00125554
0.00120715
0.0115866
0.0115859
0.0115908
0.0115901
0.0011836
0.00118354
0.0011845
0.00118444
0.011647
0.0118117
0.0116515
0.0118167
0.00120606
0.00125431
0.00120699
0.00125528
0.0121773
0.0122536
0.0121827
0.0122598
0.00133263
0.00138447
0.00133367
0.00138554
0.0122332
0.0121559
0.0122473
0.0121692
0.00138171
0.00132984
0.0013834
0.00133151
0.0117887
0.011623
0.0118017
0.0116355
0.00125158
0.00120331
0.00125319
0.00120488
0.0115608
0.0115601
0.011573
0.0115723
0.00118072
0.00118066
0.00118227
0.00118222
0.0116208
0.011785
0.0116334
0.011798
0.00120315
0.00125133
0.00120472
0.00125293
0.0121504
0.0122255
0.0121637
0.0122395
0.00132951
0.00138132
0.00133118
0.001383
0.0121908
0.0121146
0.0122118
0.0121349
0.00137742
0.00132556
0.00137966
0.00132779
0.0117473
0.0115819
0.0117675
0.0116017
0.00124741
0.00119918
0.0012496
0.00120134
0.0115201
0.0115194
0.0115395
0.0115388
0.00117661
0.00117655
0.00117876
0.00117871
0.0115798
0.0117436
0.0115995
0.0117638
0.00119902
0.00124716
0.00120118
0.00124934
0.0121092
0.0121831
0.0121295
0.012204
0.00132523
0.00137703
0.00132746
0.00137927
0.0121354
0.0120603
0.0121627
0.0120869
0.00137211
0.00132023
0.00137485
0.00132298
0.0116925
0.0115274
0.0117192
0.0115537
0.00124217
0.00119396
0.00124488
0.00119666
0.0114658
0.0114651
0.0114919
0.0114912
0.0011714
0.00117134
0.00117409
0.00117404
0.0115253
0.0116889
0.0115516
0.0117156
0.0011938
0.00124192
0.0011965
0.00124463
0.0120549
0.0121277
0.0120816
0.012155
0.00131991
0.00137172
0.00132265
0.00137446
0.0120678
0.0119938
0.0121012
0.0120264
0.00136583
0.00131393
0.00136905
0.00131716
0.0116254
0.0114604
0.0116582
0.0114929
0.00123594
0.00118772
0.00123914
0.00119092
0.0113991
0.0113984
0.0114312
0.0114306
0.00116516
0.00116511
0.00116836
0.00116831
0.0114583
0.0116218
0.0114908
0.0116545
0.00118757
0.00123569
0.00119076
0.00123889
0.0119885
0.0120603
0.0120211
0.0120935
0.00131361
0.00136545
0.00131683
0.00136866
0.0119888
0.0119159
0.0120279
0.0119542
0.00135865
0.00130669
0.00136231
0.00131038
0.0115465
0.0113815
0.0115851
0.0114198
0.00122876
0.00118053
0.00123243
0.0011842
0.0113203
0.0113197
0.0113584
0.0113578
0.00115796
0.00115791
0.00116164
0.00116158
0.0113794
0.0115429
0.0114178
0.0115815
0.00118037
0.00122852
0.00118404
0.00123218
0.0119106
0.0119814
0.0119489
0.0120203
0.00130637
0.00135827
0.00131006
0.00136193
0.0118985
0.0118267
0.0119432
0.0118706
0.00135057
0.00129855
0.00135468
0.00130269
0.0114561
0.011291
0.0115004
0.0113351
0.00122066
0.00117239
0.00122479
0.00117654
0.01123
0.0112293
0.0112739
0.0112732
0.0011498
0.00114975
0.00115396
0.0011539
0.0112889
0.0114526
0.0113331
0.0114969
0.00117223
0.00122042
0.00117638
0.00122454
0.0118215
0.0118912
0.0118654
0.0119357
0.00129823
0.00135019
0.00130237
0.0013543
0.011797
0.0117263
0.0118473
0.0117759
0.00134159
0.00128949
0.00134615
0.00129409
0.0113541
0.0111888
0.0114043
0.0112388
0.00121164
0.0011633
0.00121623
0.00116793
0.0111279
0.0111272
0.0111777
0.011177
0.00114069
0.00114064
0.00114533
0.00114527
0.0111868
0.0113507
0.0112367
0.0114008
0.00116315
0.00121139
0.00116777
0.00121599
0.0117212
0.0117897
0.0117707
0.0118399
0.00128918
0.00134122
0.00129378
0.00134578
0.0116839
0.0116144
0.0117401
0.0116698
0.0013317
0.00127949
0.00133672
0.00128457
0.0112404
0.0110747
0.0112965
0.0111307
0.00120166
0.00115324
0.00120673
0.00115836
0.0110139
0.0110132
0.0110697
0.011069
0.00113059
0.00113054
0.00113573
0.00113567
0.0110727
0.011237
0.0111287
0.0112931
0.00115309
0.00120142
0.00115821
0.00120649
0.0116094
0.0116768
0.0116647
0.0117328
0.00127919
0.00133134
0.00128426
0.00133636
0.011559
0.0114905
0.0116211
0.011552
0.00132086
0.00126852
0.00132637
0.00127409
0.0111144
0.0109481
0.0111767
0.0110104
0.00119068
0.00114216
0.00119626
0.0011478
0.0108874
0.0108867
0.0109495
0.0109489
0.00111946
0.0011194
0.00112512
0.00112507
0.0109461
0.011111
0.0110085
0.0111733
0.00114201
0.00119044
0.00114765
0.00119602
0.0114856
0.011552
0.011547
0.011614
0.00126822
0.0013205
0.00127379
0.001326
0.0114214
0.0113538
0.01149
0.0114218
0.00130902
0.00125652
0.00131503
0.00126262
0.0109753
0.0108083
0.0110443
0.0108774
0.00117864
0.00112998
0.00118476
0.00113618
0.0107476
0.010747
0.0108165
0.0108159
0.00110721
0.00110716
0.00111344
0.00111339
0.0108064
0.010972
0.0108754
0.011041
0.00112984
0.00117841
0.00113603
0.00118453
0.011349
0.0114146
0.011417
0.011483
0.00125623
0.00130867
0.00126232
0.00131468
0.0112704
0.0112035
0.0113458
0.0112785
0.00129611
0.00124341
0.00130267
0.00125007
0.0108221
0.0106543
0.0108983
0.0107307
0.00116545
0.00111663
0.00117216
0.00112342
0.0105937
0.0105931
0.0106699
0.0106693
0.00109377
0.00109372
0.00110061
0.00110056
0.0106524
0.0108189
0.0107288
0.0108951
0.00111648
0.00116523
0.00112328
0.00117193
0.0111988
0.0112637
0.0112737
0.011339
0.00124312
0.00129577
0.00124978
0.00130232
0.0111049
0.0110385
0.0111878
0.011121
0.00128206
0.00122914
0.0012892
0.00123639
0.0106539
0.010485
0.0107378
0.0105692
0.00115103
0.00110199
0.00115837
0.00110944
0.0104245
0.0104239
0.0105085
0.0105079
0.00107903
0.00107898
0.00108653
0.00108648
0.0104832
0.0106507
0.0105674
0.0107346
0.00110184
0.00115081
0.0011093
0.00115815
0.0110339
0.0110985
0.0111163
0.0111812
0.00122885
0.00128173
0.0012361
0.00128886
0.0109239
0.0108574
0.0110148
0.0109482
0.00126678
0.00121359
0.00127455
0.00122149
0.010469
0.010299
0.0105615
0.0103918
0.00113526
0.00108593
0.00114329
0.00109411
0.0102386
0.010238
0.0103312
0.0103306
0.00106284
0.00106279
0.00107109
0.00107104
0.0102972
0.0104659
0.01039
0.0105584
0.00108579
0.00113504
0.00109397
0.00114307
0.0108529
0.0109176
0.0109437
0.0110083
0.00121331
0.00126645
0.00122121
0.00127422
0.0107255
0.0106584
0.0108253
0.0107585
0.00125014
0.00119663
0.00125861
0.00120526
0.0102658
0.0100945
0.0103678
0.0101969
0.00111798
0.0010683
0.00112678
0.00107729
0.0100342
0.0100337
0.0101363
0.0101358
0.00104506
0.00104501
0.00105412
0.00105408
0.0100928
0.0102628
0.0101951
0.0103647
0.00106817
0.00111776
0.00107715
0.00112657
0.0106541
0.0107194
0.010754
0.0108191
0.00119636
0.00124982
0.00120498
0.00125828
0.0105078
0.0104396
0.0106176
0.0105499
0.001232
0.00117811
0.00124124
0.00118754
0.0100422
0.00986945
0.0101547
0.00998243
0.00109902
0.00104892
0.00110869
0.00105881
0.00980942
0.00980887
0.00992212
0.00992156
0.00102548
0.00102543
0.00103547
0.00103543
0.00986777
0.0100393
0.00998072
0.0101518
0.00104879
0.00109881
0.00105868
0.00110848
0.0104354
0.010502
0.0105456
0.0106116
0.00117785
0.00123169
0.00118727
0.00124092
0.0102685
0.0101985
0.0103895
0.0103204
0.00121219
0.00115789
0.00122229
0.00116819
0.00979573
0.00962121
0.0099201
0.00974622
0.0010782
0.00102755
0.00108883
0.00103847
0.00956145
0.00956093
0.00968617
0.00968563
0.00100386
0.00100382
0.00101491
0.00101487
0.00961959
0.00979294
0.00974457
0.00991725
0.00102742
0.00107799
0.00103834
0.00108862
0.0101945
0.0102628
0.0103162
0.0103837
0.00115763
0.00121189
0.00116793
0.00122198
0.0100041
0.00993204
0.0101382
0.010067
0.00119055
0.00113581
0.00120158
0.00114706
0.00952305
0.00934624
0.00966105
0.00948521
0.00105525
0.00100389
0.00106698
0.001016
0.00928678
0.00928628
0.00942543
0.00942492
0.000979871
0.000979828
0.00099216
0.000992116
0.0093447
0.00952039
0.00948363
0.00965832
0.00100376
0.00105505
0.00101587
0.00106678
0.00992818
0.00999875
0.0100631
0.0101326
0.00113556
0.00119026
0.0011468
0.00120129
0.0097123
0.00963671
0.00986026
0.00978669
0.00116709
0.00111181
0.001179
0.00112402
0.0092195
0.00903964
0.00937375
0.00919521
0.0010298
0.000977431
0.00104284
0.000991021
0.00898072
0.00898026
0.00913578
0.0091353
0.000952986
0.000952945
0.000966801
0.000966759
0.00903822
0.00921701
0.00919373
0.00937117
0.000977312
0.00102961
0.000990899
0.00104265
0.00963309
0.00970725
0.00978294
0.009855
0.00111157
0.00116682
0.00112378
0.00117872
0.00940007
0.00930696
0.00955569
0.00947533
0.00114296
0.0010857
0.00115489
0.00109905
0.0088766
0.0086956
0.00905205
0.0088706
0.00100087
0.000947284
0.00101587
0.000962871
0.00863946
0.00863905
0.00881236
0.00881193
0.000922467
0.000922429
0.0009382
0.000938161
0.00869432
0.00887435
0.00886924
0.00904967
0.000947173
0.0010007
0.000962756
0.00101569
0.00930367
0.00939543
0.00947185
0.00955078
0.00108548
0.0011427
0.00109882
0.00115462
0.00913406
0.00890685
0.00925238
0.00912087
0.00112194
0.00104981
0.0011321
0.00107055
0.00848309
0.00831948
0.00868427
0.0085077
0.000964918
0.000912214
0.00098414
0.00093037
0.00827301
0.00827266
0.00845524
0.00845487
0.000887902
0.000887867
0.000905624
0.000905587
0.00831838
0.00848114
0.00850651
0.00868217
0.000912113
0.00096476
0.000930264
0.000983974
0.00890401
0.00913004
0.00911778
0.00924796
0.00104962
0.00112171
0.00107034
0.00113186
0.00653407
0.00597856
0.00451653
0.00408803
0.00537192
0.00487069
0.00359253
0.00323528
0.00493535
0.00427494
0.00299685
0.0021608
0.00386794
0.003199
0.00222084
0.0014108
0.00406734
0.00406736
0.00166746
0.00166782
0.00297897
0.00297915
0.000781929
0.000782163
0.00427423
0.00493339
0.0021608
0.00299565
0.00319868
0.00386668
0.00141103
0.00222017
0.00597546
0.00652978
0.0040857
0.00451302
0.00486855
0.00536883
0.00323374
0.00359008
0.00991622
0.00936741
0.00828851
0.00772063
0.00809495
0.00759704
0.00681194
0.00629409
0.00849273
0.00808863
0.00675846
0.00624428
0.00675426
0.00635479
0.00536424
0.0048481
0.00803472
0.00803421
0.00613459
0.00613433
0.00629795
0.00629767
0.00473122
0.00473112
0.00808673
0.00848909
0.00624297
0.0067557
0.00635358
0.00675176
0.00484732
0.00536237
0.00936226
0.00990962
0.00771656
0.00828313
0.00759338
0.00809011
0.00629122
0.00680802
0.0129303
0.0124345
0.0114595
0.0109371
0.010402
0.00995886
0.00928441
0.00881429
0.0116993
0.011427
0.0101386
0.00981183
0.0092575
0.00899196
0.00804923
0.0077295
0.011423
0.0114221
0.00978936
0.00978863
0.00898231
0.00898173
0.00770335
0.00770292
0.011424
0.0116939
0.00980934
0.0101341
0.00898995
0.00925379
0.00772788
0.00804611
0.0124272
0.0129211
0.0109308
0.0114516
0.00995361
0.0103952
0.00880982
0.00927856
0.0156346
0.0151864
0.0143212
0.0138503
0.0124171
0.0120244
0.0114437
0.011027
0.014545
0.0143388
0.0131663
0.012932
0.0114178
0.0112164
0.0103774
0.010149
0.0143508
0.0143495
0.012938
0.0129368
0.0112194
0.0112185
0.0101474
0.0101467
0.0143347
0.0145379
0.0129284
0.0131601
0.0112137
0.011413
0.0101466
0.0103732
0.0151769
0.0156229
0.0138419
0.0143107
0.0120178
0.0124085
0.011021
0.011436
0.0180117
0.0176019
0.016863
0.0164349
0.0141553
0.0138033
0.0133186
0.0129474
0.0170251
0.0168553
0.0158283
0.0156424
0.0132617
0.0130949
0.0123759
0.0121938
0.016872
0.0168703
0.0156572
0.0156556
0.0131005
0.0130994
0.0121984
0.0121975
0.0168502
0.0170166
0.0156377
0.0158206
0.0130916
0.013256
0.0121908
0.0123707
0.0175906
0.0179979
0.0164245
0.0168501
0.0137954
0.0141452
0.0129401
0.0133092
0.0200628
0.0196834
0.0190753
0.0186814
0.0156329
0.0153132
0.0149236
0.0145886
0.0191531
0.0190056
0.0181293
0.0179714
0.014818
0.0146721
0.0140718
0.0139162
0.0190232
0.0190212
0.0179884
0.0179866
0.0146776
0.0146764
0.0139216
0.0139204
0.0189997
0.0191435
0.0179659
0.0181202
0.0146683
0.0148116
0.0139126
0.0140657
0.0196706
0.020047
0.0186693
0.0190603
0.0153043
0.0156214
0.0145801
0.0149127
0.0218066
0.0214516
0.0209694
0.0206028
0.0168738
0.0165799
0.0162794
0.0159732
0.0209562
0.0208234
0.0200908
0.0199508
0.0161192
0.0159872
0.0154962
0.0153575
0.0208408
0.0208386
0.019968
0.019966
0.015992
0.0159907
0.0153624
0.0153611
0.0208169
0.0209455
0.0199446
0.0200806
0.015983
0.0161121
0.0153535
0.0154894
0.0214375
0.0217892
0.0205893
0.0209526
0.0165701
0.0168612
0.0159638
0.0162673
0.0232722
0.0229365
0.0225702
0.0222252
0.0179051
0.0176323
0.0174119
0.0171289
0.0224676
0.0223455
0.0217435
0.0216159
0.0171979
0.017076
0.0166819
0.016555
0.0223625
0.0223601
0.0216328
0.0216305
0.0170802
0.0170787
0.0165591
0.0165577
0.0223384
0.0224561
0.0216091
0.0217324
0.0170715
0.0171904
0.0165506
0.0166746
0.0229213
0.0232534
0.0222105
0.0225518
0.0176218
0.0178916
0.0171188
0.0173987
0.0244894
0.0241691
0.0239076
0.0235798
0.0187539
0.0184981
0.0183486
0.0180845
0.023721
0.0236069
0.0231216
0.0230032
0.0180843
0.0179699
0.0176607
0.0175424
0.0236236
0.0236211
0.0230196
0.0230172
0.0179738
0.0179722
0.0175461
0.0175446
0.0235994
0.0237088
0.0229958
0.0231097
0.0179652
0.0180763
0.0175377
0.0176529
0.0241529
0.0244694
0.023564
0.023888
0.0184871
0.0187396
0.0180737
0.0183345
0.0254885
0.0251809
0.025012
0.024698
0.019446
0.0192035
0.0191157
0.0188669
0.0247494
0.0246416
0.0242583
0.024147
0.0188058
0.0186974
0.0184612
0.0183495
0.0246582
0.0246555
0.0241632
0.0241606
0.0187011
0.0186994
0.018353
0.0183514
0.0246337
0.0247366
0.0241393
0.0242458
0.0186924
0.0187974
0.0183447
0.018453
0.0251639
0.0254675
0.0246814
0.0249912
0.019192
0.0194309
0.0188556
0.0191009
0.0262977
0.0260005
0.0259125
0.0256101
0.0200032
0.0197712
0.0197377
0.0195006
0.0255824
0.0254798
0.0251853
0.0250796
0.0193861
0.0192824
0.0191092
0.0190028
0.0254965
0.0254937
0.0250959
0.0250932
0.0192863
0.0192846
0.0190063
0.0190046
0.0254716
0.0255691
0.0250716
0.0251722
0.0192773
0.0193775
0.0189977
0.0191007
0.0259829
0.0262759
0.0255928
0.0258908
0.0197593
0.0199876
0.0194889
0.0197222
0.0269434
0.0266546
0.0266368
0.0263438
0.0204448
0.020221
0.0202348
0.0200069
0.0262473
0.026149
0.0259309
0.02583
0.0198462
0.0197464
0.0196268
0.0195247
0.0261659
0.0261631
0.0258464
0.0258436
0.0197505
0.0197487
0.0195284
0.0195267
0.0261405
0.0262335
0.0258216
0.0259173
0.0197411
0.0198373
0.0195195
0.0196181
0.0266364
0.0269208
0.0263258
0.0266143
0.0202088
0.0204287
0.0199948
0.0202187
0.027448
0.027166
0.0272091
0.0269237
0.0207874
0.0205703
0.0206248
0.0204044
0.0267674
0.0266728
0.0265205
0.0264235
0.0202035
0.020107
0.0200333
0.0199348
0.0266902
0.0266872
0.0264403
0.0264374
0.0201116
0.0201097
0.0199388
0.019937
0.0266641
0.0267533
0.0264149
0.0265066
0.0201016
0.0201944
0.0199294
0.0200243
0.0271474
0.0274248
0.0269052
0.0271859
0.0205577
0.0207709
0.0203919
0.0206083
0.0278319
0.0275554
0.027651
0.0273717
0.0210458
0.0208339
0.0209235
0.0207089
0.0271639
0.0270723
0.0269763
0.0268826
0.0204736
0.0203799
0.0203452
0.0202496
0.0270902
0.0270872
0.0268999
0.0268969
0.0203849
0.0203831
0.0202541
0.0202522
0.0270634
0.0271495
0.0268738
0.026962
0.0203743
0.0204643
0.0202441
0.020336
0.0275363
0.0278082
0.0273527
0.0276272
0.0208211
0.0210289
0.0206962
0.0209066
0.0281124
0.0278403
0.0279811
0.0277067
0.0212322
0.0210245
0.0211444
0.0209345
0.0274545
0.0273656
0.0273176
0.0272269
0.0206694
0.0205781
0.0205765
0.0204835
0.0273841
0.027381
0.0272447
0.0272416
0.0205836
0.0205817
0.0204885
0.0204866
0.0273566
0.0274398
0.0272179
0.0273031
0.0205724
0.02066
0.0204779
0.0205672
0.0278209
0.0280883
0.0276874
0.0279568
0.0210115
0.0212151
0.0209216
0.0211271
0.0283044
0.028036
0.0282156
0.0279452
0.0213575
0.021153
0.0212989
0.0210928
0.0276547
0.0275681
0.0275611
0.0274729
0.0208019
0.0207126
0.0207393
0.0206485
0.0275872
0.0275841
0.0274912
0.0274882
0.0207187
0.0207169
0.020654
0.0206521
0.0275589
0.0276398
0.0274637
0.0275464
0.0207069
0.0207924
0.0206428
0.0207298
0.0280164
0.02828
0.0279256
0.028191
0.0211399
0.0213401
0.0210796
0.0212814
0.0284198
0.0281542
0.0283677
0.0281007
0.0214294
0.0212278
0.0213967
0.0211936
0.0277769
0.0276927
0.0277211
0.027635
0.0208802
0.020793
0.0208437
0.0207548
0.0277127
0.0277096
0.027654
0.0276509
0.0207998
0.0207979
0.0207609
0.020759
0.0276834
0.0277619
0.0276258
0.0277062
0.0207873
0.0208707
0.0207491
0.0208342
0.0281344
0.0283952
0.0280809
0.0283429
0.0212145
0.0214119
0.0211803
0.0213791
0.028472
0.0282087
0.0284503
0.0281855
0.0214578
0.0212581
0.0214457
0.0212447
0.0278341
0.0277511
0.0278088
0.0277247
0.0209126
0.0208264
0.0208977
0.0208106
0.0277714
0.0277683
0.0277446
0.0277414
0.0208336
0.0208317
0.0208175
0.0208156
0.0277418
0.0278191
0.0277154
0.0277938
0.0208206
0.020903
0.0208048
0.0208881
0.0281888
0.0284473
0.0281656
0.0284253
0.0212448
0.0214403
0.0212314
0.0214279
0.0284676
0.0282062
0.0284731
0.0282106
0.0214469
0.0212488
0.0214537
0.0212547
0.0278339
0.0277526
0.0278366
0.027754
0.0209052
0.0208203
0.0209097
0.0208238
0.0277737
0.0277705
0.0277744
0.0277712
0.0208283
0.0208264
0.0208311
0.0208292
0.0277433
0.0278188
0.0277447
0.0278215
0.0208146
0.0208955
0.020818
0.0209001
0.0281862
0.0284428
0.0281906
0.028448
0.0212354
0.0214293
0.0212413
0.0214359
0.0284148
0.0281549
0.0284437
0.0281828
0.0214024
0.0212055
0.0214254
0.0212277
0.0277844
0.0277043
0.0278109
0.0277295
0.0208631
0.0207793
0.0208843
0.0207995
0.027726
0.0277228
0.0277505
0.0277473
0.0207878
0.0207859
0.0208074
0.0208054
0.027695
0.0277693
0.0277202
0.0277958
0.0207735
0.0208535
0.0207937
0.0208747
0.028135
0.0283901
0.0281628
0.0284186
0.0211922
0.0213848
0.0212144
0.0214076
0.0283193
0.0280606
0.0283689
0.0281094
0.0213282
0.0211322
0.0213657
0.021169
0.0276915
0.0276124
0.027739
0.0276588
0.0207906
0.0207077
0.0208266
0.0207427
0.0276346
0.0276315
0.0276803
0.0276772
0.0207167
0.0207148
0.0207511
0.0207492
0.0276031
0.0276765
0.0276494
0.0277239
0.0207019
0.020781
0.0207369
0.0208169
0.0280408
0.0282948
0.0280894
0.0283439
0.0211189
0.0213107
0.0211557
0.0213478
0.0281856
0.0279278
0.0282539
0.0279954
0.0212272
0.0210319
0.0212777
0.0210819
0.0275596
0.0274814
0.0276261
0.0275468
0.0206907
0.0206084
0.02074
0.0206569
0.0275041
0.027501
0.027569
0.0275658
0.020618
0.0206161
0.0206658
0.0206639
0.0274721
0.0275447
0.0275375
0.0276112
0.0206027
0.0206812
0.0206511
0.0207305
0.0279081
0.0281612
0.0279756
0.028229
0.0210188
0.0212098
0.0210687
0.0212601
0.0280166
0.0277596
0.0281022
0.0278446
0.0211015
0.0209068
0.0211642
0.020969
0.0273919
0.0273143
0.0274761
0.0273975
0.0205656
0.0204838
0.0206273
0.0205447
0.0273376
0.0273345
0.0274201
0.027417
0.0204938
0.0204919
0.0205542
0.0205523
0.0273051
0.0273772
0.0273883
0.0274612
0.0204781
0.0205561
0.020539
0.0206178
0.0277401
0.0279925
0.0278249
0.0280776
0.0208938
0.0210844
0.0209559
0.0211467
0.0278144
0.0275579
0.0279165
0.0276595
0.0209525
0.0207581
0.0210268
0.020832
0.0271905
0.0271133
0.0272914
0.0272133
0.0204166
0.0203351
0.0204901
0.020408
0.0271371
0.027134
0.0272364
0.0272333
0.0203455
0.0203436
0.0204178
0.0204159
0.0271042
0.0271759
0.0272042
0.0272766
0.0203295
0.0204072
0.0204023
0.0204807
0.0275387
0.0277906
0.0276401
0.0278922
0.0207453
0.0209356
0.020819
0.0210095
0.0275798
0.0273238
0.027698
0.0274416
0.0207808
0.0205866
0.0208664
0.0206719
0.0269562
0.0268792
0.0270734
0.0269957
0.0202443
0.020163
0.0203295
0.0202475
0.0269034
0.0269003
0.0270193
0.0270162
0.0201737
0.0201719
0.0202578
0.0202559
0.0268702
0.0269417
0.0269867
0.0270589
0.0201574
0.0202351
0.0202419
0.0203202
0.0273048
0.0275564
0.0274224
0.0276741
0.0205739
0.0207641
0.0206591
0.0208493
0.0273129
0.0270571
0.0274474
0.0271913
0.0205863
0.0203922
0.0206834
0.020489
0.0266889
0.026612
0.0268228
0.0267452
0.0200488
0.0199674
0.0201457
0.0200637
0.0266365
0.0266335
0.0267691
0.0267661
0.0199784
0.0199766
0.0200743
0.0200725
0.0266031
0.0266747
0.0267363
0.0268084
0.0199619
0.0200397
0.0200582
0.0201365
0.0270385
0.0272899
0.0271724
0.0274239
0.0203797
0.0205699
0.0204764
0.0206666
0.0270128
0.026757
0.0271641
0.0269081
0.0203685
0.0201742
0.0204774
0.020283
0.0263878
0.0263107
0.0265388
0.0264611
0.0198294
0.0197477
0.0199384
0.0198563
0.0263354
0.0263325
0.0264853
0.0264824
0.019759
0.0197572
0.0198671
0.0198653
0.026302
0.0263739
0.0264524
0.0265247
0.0197423
0.0198205
0.0198508
0.0199294
0.0267387
0.0269903
0.0268896
0.027141
0.020162
0.0203524
0.0202706
0.0204609
0.0266779
0.0264219
0.0268469
0.0265908
0.0201264
0.0199317
0.0202476
0.020053
0.0260512
0.0259736
0.0262203
0.0261423
0.019585
0.0195028
0.0197067
0.0196242
0.0259985
0.0259956
0.0261667
0.0261638
0.0195142
0.0195125
0.0196352
0.0196335
0.025965
0.0260375
0.0261336
0.0262065
0.0194975
0.0195763
0.0196189
0.0196979
0.026404
0.026656
0.0265727
0.0268244
0.0199197
0.0201107
0.0200408
0.0202315
0.026306
0.0260493
0.026494
0.0262374
0.0198584
0.019663
0.0199929
0.0197977
0.0256766
0.0255982
0.0258651
0.0257865
0.019314
0.019231
0.0194493
0.0193662
0.0256233
0.0256204
0.0258111
0.0258082
0.0192426
0.0192409
0.0193774
0.0193756
0.0255898
0.0256632
0.025778
0.0258516
0.0192258
0.0193054
0.0193609
0.0194407
0.0260319
0.0262846
0.0262196
0.026472
0.0196513
0.019843
0.0197858
0.0199771
0.0258941
0.0256363
0.0261025
0.025845
0.0195625
0.019366
0.0197113
0.0195152
0.0252609
0.0251814
0.0254705
0.0253909
0.0190141
0.0189302
0.0191642
0.0190802
0.0252065
0.0252038
0.0254156
0.0254128
0.0189419
0.0189402
0.0190916
0.0190899
0.0251732
0.0252479
0.0253826
0.0254573
0.0189251
0.0190058
0.0190751
0.0191558
0.0256193
0.0258733
0.0258278
0.0260811
0.0193546
0.0195476
0.0195036
0.0196959
0.0254386
0.0251793
0.0256694
0.0254106
0.0192365
0.0190385
0.0194007
0.0192033
0.0248003
0.0247193
0.0250329
0.0249521
0.018683
0.0185978
0.0188492
0.0187641
0.0247444
0.0247417
0.0249768
0.0249741
0.0186096
0.0186079
0.0187755
0.0187738
0.0247114
0.0247877
0.024944
0.0250201
0.0185929
0.0186749
0.0187591
0.018841
0.0251628
0.0254185
0.0253938
0.0256486
0.0190274
0.0192221
0.019192
0.0193858
0.0249353
0.0246739
0.0251907
0.0249301
0.0188774
0.0186772
0.0190587
0.0188594
0.0242903
0.0242073
0.0245484
0.0244658
0.0183175
0.0182307
0.0185015
0.0184149
0.0242323
0.0242297
0.0244905
0.0244878
0.0182425
0.0182409
0.0184263
0.0184247
0.0241996
0.024278
0.024458
0.0245359
0.0182259
0.0183096
0.01841
0.0184934
0.0246579
0.0249158
0.0249139
0.0251706