/*--------------------------------*- C++ -*----------------------------------*\
  =========                 |
  \\      /  F ield         | OpenFOAM: The Open Source CFD Toolbox
   \\    /   O peration     | Website:  https://openfoam.org
    \\  /    A nd           | Version:  9
     \\/     M anipulation  |
\*---------------------------------------------------------------------------*/
FoamFile
{
    format      ascii;
    class       volScalarField;
    location    "4";
    object      p;
}
// * * * * * * * * * * * * * * * * * * * * * * * * * * * * * * * * * * * * * //

dimensions      [0 2 -2 0 0 0 0];

internalField   nonuniform List<scalar> 
36360
(
20.12
20.0863
20.1136
20.0904
20.0963
20.1035
20.0973
20.0999
20.0994
20.1002
20.0999
20.1003
20.0992
20.0995
20.0987
20.0992
20.1002
20.1002
20.1003
20.1003
20.0995
20.0995
20.0993
20.0993
20.1002
20.0994
20.1003
20.0999
20.0995
20.0992
20.0992
20.0987
20.0864
20.12
20.0904
20.1136
20.1035
20.0963
20.0999
20.0974
20.1105
20.0951
20.1153
20.091
20.0802
20.1198
20.0888
20.1116
20.0995
20.0997
20.0994
20.1001
20.0999
20.0988
20.0994
20.0993
20.0998
20.0998
20.1001
20.1001
20.0989
20.0989
20.0994
20.0994
20.0997
20.0995
20.1001
20.0994
20.0988
20.0999
20.0993
20.0994
20.0951
20.1105
20.091
20.1153
20.1198
20.0802
20.1115
20.0888
20.1007
20.103
20.1057
20.0992
20.0628
20.1359
20.0714
20.1281
20.1015
20.099
20.1003
20.0993
20.1024
20.0984
20.1009
20.0985
20.0988
20.0988
20.0993
20.0993
20.0981
20.0981
20.0985
20.0985
20.099
20.1015
20.0993
20.1003
20.0983
20.1024
20.0985
20.1009
20.103
20.1007
20.0992
20.1057
20.1358
20.0628
20.1281
20.0714
20.0911
20.1093
20.0958
20.1064
20.0466
20.1492
20.0545
20.1429
20.1049
20.0989
20.1031
20.0989
20.1062
20.0984
20.1042
20.0983
20.0978
20.0978
20.0983
20.0983
20.0973
20.0973
20.0977
20.0977
20.0989
20.1048
20.0989
20.1031
20.0984
20.1062
20.0983
20.1042
20.1093
20.0911
20.1064
20.0958
20.1491
20.0467
20.1429
20.0545
20.0825
20.1138
20.0867
20.1118
20.0325
20.1595
20.0393
20.1547
20.1086
20.0994
20.1067
20.0991
20.1104
20.0989
20.1083
20.0986
20.0971
20.0971
20.0974
20.0974
20.0967
20.0968
20.097
20.097
20.0994
20.1086
20.0991
20.1067
20.0989
20.1103
20.0986
20.1083
20.1138
20.0825
20.1118
20.0867
20.1594
20.0325
20.1546
20.0393
20.075
20.1169
20.0786
20.1155
20.0204
20.1672
20.0262
20.1636
20.1122
20.1003
20.1104
20.0998
20.1144
20.0998
20.1124
20.0993
20.0967
20.0967
20.0969
20.0969
20.0964
20.0965
20.0966
20.0965
20.1003
20.1122
20.0998
20.1104
20.0998
20.1144
20.0994
20.1125
20.1169
20.0751
20.1155
20.0787
20.1672
20.0205
20.1636
20.0263
20.0686
20.1188
20.0717
20.118
20.0102
20.173
20.0151
20.1703
20.1154
20.1015
20.1138
20.1009
20.118
20.1009
20.1163
20.1003
20.0966
20.0966
20.0966
20.0966
20.0964
20.0964
20.0964
20.0964
20.1014
20.1154
20.1009
20.1138
20.1009
20.118
20.1003
20.1162
20.1188
20.0687
20.118
20.0717
20.1729
20.0103
20.1703
20.0152
20.0632
20.12
20.0658
20.1195
20.0017
20.1772
20.0058
20.1752
20.1181
20.1026
20.1168
20.102
20.121
20.1021
20.1196
20.1015
20.0967
20.0967
20.0966
20.0966
20.0965
20.0965
20.0964
20.0964
20.1026
20.1181
20.102
20.1168
20.102
20.121
20.1015
20.1195
20.12
20.0632
20.1195
20.0658
20.1771
20.0018
20.1752
20.0059
20.0586
20.1206
20.0608
20.1203
19.9946
20.1802
19.998
20.1788
20.1203
20.1038
20.1193
20.1032
20.1235
20.1032
20.1223
20.1026
20.097
20.097
20.0968
20.0968
20.0969
20.0969
20.0967
20.0967
20.1038
20.1203
20.1032
20.1193
20.1032
20.1234
20.1026
20.1223
20.1206
20.0586
20.1203
20.0608
20.1802
19.9947
20.1788
19.9981
20.0546
20.1208
20.0565
20.1207
19.9887
20.1824
19.9916
20.1814
20.1221
20.1048
20.1213
20.1043
20.1254
20.1042
20.1245
20.1037
20.0974
20.0974
20.0972
20.0972
20.0973
20.0973
20.097
20.097
20.1048
20.1221
20.1043
20.1213
20.1042
20.1254
20.1037
20.1245
20.1208
20.0547
20.1207
20.0565
20.1823
19.9888
20.1813
19.9916
20.0513
20.1208
20.0529
20.1208
19.9838
20.1839
19.9862
20.1832
20.1235
20.1057
20.1229
20.1053
20.1269
20.1051
20.1262
20.1046
20.0978
20.0978
20.0976
20.0976
20.0977
20.0977
20.0975
20.0975
20.1057
20.1235
20.1053
20.1228
20.1051
20.1269
20.1046
20.1262
20.1208
20.0513
20.1208
20.0529
20.1838
19.9839
20.1831
19.9862
20.0485
20.1206
20.0498
20.1207
19.9798
20.1848
19.9817
20.1844
20.1246
20.1065
20.1242
20.1061
20.1281
20.1058
20.1276
20.1055
20.0983
20.0983
20.0981
20.0981
20.0981
20.0981
20.0979
20.0979
20.1065
20.1245
20.1061
20.124
20.1058
20.128
20.1054
20.1275
20.1206
20.0485
20.1207
20.0498
20.1848
19.9799
20.1843
19.9818
20.0461
20.1203
20.0472
20.1205
19.9764
20.1854
19.978
20.1852
20.1253
20.1071
20.125
20.1068
20.1289
20.1064
20.1285
20.1061
20.0987
20.0987
20.0985
20.0985
20.0985
20.0985
20.0984
20.0983
20.1071
20.1253
20.1068
20.125
20.1064
20.1288
20.1061
20.1285
20.1203
20.0461
20.1204
20.0472
20.1854
19.9765
20.1851
19.9781
20.044
20.1199
20.045
20.1201
19.9737
20.1857
19.975
20.1856
20.1258
20.1076
20.1256
20.1074
20.1294
20.1069
20.1292
20.1067
20.0991
20.0991
20.0989
20.0989
20.0989
20.0989
20.0987
20.0987
20.1076
20.1257
20.1074
20.1256
20.1069
20.1294
20.1067
20.1291
20.1199
20.044
20.1201
20.045
20.1857
19.9738
20.1855
19.9751
20.0423
20.1195
20.0431
20.1197
19.9715
20.1857
19.9725
20.1857
20.126
20.108
20.1259
20.1078
20.1297
20.1072
20.1296
20.1071
20.0994
20.0994
20.0993
20.0993
20.0992
20.0992
20.099
20.099
20.1079
20.126
20.1078
20.1259
20.1072
20.1297
20.1071
20.1295
20.1195
20.0423
20.1197
20.0431
20.1857
19.9715
20.1857
19.9726
20.0408
20.1191
20.0415
20.1193
19.9697
20.1855
19.9705
20.1856
20.1261
20.1082
20.1261
20.1081
20.1298
20.1074
20.1298
20.1073
20.0997
20.0997
20.0996
20.0996
20.0993
20.0993
20.0993
20.0993
20.1082
20.1261
20.1081
20.126
20.1074
20.1298
20.1073
20.1297
20.1191
20.0408
20.1193
20.0415
20.1855
19.9698
20.1856
19.9706
20.0396
20.1186
20.0402
20.1189
19.9683
20.1852
19.9689
20.1854
20.126
20.1083
20.1261
20.1083
20.1297
20.1075
20.1298
20.1075
20.0998
20.0998
20.0998
20.0998
20.0994
20.0994
20.0994
20.0994
20.1083
20.126
20.1082
20.126
20.1075
20.1297
20.1074
20.1297
20.1186
20.0396
20.1189
20.0402
20.1851
19.9683
20.1853
19.969
20.0385
20.1182
20.039
20.1184
19.9672
20.1847
19.9677
20.1849
20.1258
20.1083
20.1259
20.1083
20.1295
20.1074
20.1296
20.1075
20.0999
20.0999
20.0999
20.0999
20.0995
20.0995
20.0995
20.0995
20.1083
20.1258
20.1083
20.1259
20.1074
20.1295
20.1075
20.1296
20.1182
20.0386
20.1184
20.0391
20.1846
19.9672
20.1849
19.9678
20.0377
20.1177
20.0381
20.118
19.9664
20.1841
19.9667
20.1844
20.1256
20.1083
20.1257
20.1083
20.1292
20.1073
20.1293
20.1074
20.0999
20.0999
20.0999
20.0999
20.0994
20.0994
20.0994
20.0994
20.1083
20.1256
20.1083
20.1257
20.1073
20.1291
20.1074
20.1293
20.1177
20.0377
20.118
20.0381
20.184
19.9664
20.1843
19.9668
20.037
20.1173
20.0373
20.1175
19.9658
20.1833
19.966
20.1837
20.1252
20.1081
20.1254
20.1082
20.1287
20.1071
20.129
20.1072
20.0999
20.0999
20.0999
20.0999
20.0993
20.0993
20.0993
20.0993
20.1081
20.1252
20.1082
20.1254
20.1071
20.1287
20.1072
20.1289
20.1173
20.037
20.1175
20.0374
20.1833
19.9659
20.1837
19.9661
20.0365
20.1169
20.0367
20.1171
19.9655
20.1826
19.9656
20.183
20.1248
20.1079
20.125
20.108
20.1282
20.1068
20.1285
20.1069
20.0998
20.0998
20.0999
20.0999
20.0991
20.0991
20.0992
20.0992
20.1079
20.1248
20.108
20.125
20.1068
20.1282
20.1069
20.1285
20.1169
20.0365
20.1171
20.0368
20.1825
19.9655
20.1829
19.9657
20.0361
20.1165
20.0363
20.1167
19.9654
20.1817
19.9654
20.1821
20.1244
20.1077
20.1246
20.1078
20.1276
20.1064
20.1279
20.1066
20.0997
20.0997
20.0998
20.0997
20.0988
20.0988
20.0989
20.0989
20.1077
20.1243
20.1078
20.1246
20.1064
20.1276
20.1066
20.1279
20.1164
20.0362
20.1167
20.0363
20.1817
19.9654
20.1821
19.9655
20.036
20.1161
20.036
20.1163
19.9655
20.1808
19.9654
20.1812
20.1239
20.1074
20.1241
20.1076
20.1269
20.106
20.1273
20.1062
20.0996
20.0996
20.0996
20.0996
20.0985
20.0985
20.0987
20.0987
20.1074
20.1238
20.1075
20.1241
20.106
20.1269
20.1062
20.1273
20.1161
20.036
20.1163
20.0361
20.1807
19.9656
20.1812
19.9655
20.0359
20.1157
20.0359
20.1159
19.9658
20.1798
19.9656
20.1803
20.1233
20.1071
20.1236
20.1073
20.1262
20.1056
20.1266
20.1058
20.0994
20.0994
20.0995
20.0995
20.0983
20.0983
20.0984
20.0984
20.1071
20.1233
20.1073
20.1236
20.1056
20.1262
20.1058
20.1266
20.1157
20.0359
20.1159
20.0359
20.1798
19.9659
20.1802
19.9657
20.036
20.1154
20.0359
20.1155
19.9663
20.1788
19.966
20.1793
20.1228
20.1069
20.1231
20.107
20.1255
20.1052
20.1259
20.1054
20.0993
20.0993
20.0994
20.0994
20.098
20.098
20.0981
20.0981
20.1069
20.1228
20.107
20.123
20.1052
20.1255
20.1054
20.1258
20.1154
20.0361
20.1155
20.036
20.1787
19.9664
20.1792
19.9661
20.0363
20.1151
20.0362
20.1152
19.9671
20.1777
19.9667
20.1782
20.1223
20.1066
20.1225
20.1067
20.1247
20.1047
20.1251
20.105
20.0992
20.0992
20.0993
20.0993
20.0977
20.0977
20.0978
20.0978
20.1066
20.1222
20.1067
20.1225
20.1047
20.1247
20.1049
20.1251
20.1151
20.0364
20.1152
20.0362
20.1777
19.9672
20.1782
19.9668
20.0368
20.1148
20.0365
20.1149
19.9681
20.1766
19.9676
20.1772
20.1217
20.1064
20.122
20.1065
20.1239
20.1043
20.1243
20.1045
20.0992
20.0992
20.0992
20.0992
20.0975
20.0975
20.0976
20.0976
20.1064
20.1217
20.1065
20.122
20.1043
20.1239
20.1045
20.1243
20.1148
20.0368
20.1149
20.0366
20.1766
19.9682
20.1771
19.9677
20.0375
20.1146
20.0371
20.1147
19.9694
20.1755
19.9687
20.176
20.1212
20.1062
20.1215
20.1063
20.1231
20.104
20.1235
20.1042
20.0993
20.0993
20.0992
20.0992
20.0974
20.0974
20.0974
20.0974
20.1062
20.1212
20.1063
20.1215
20.104
20.1231
20.1041
20.1235
20.1146
20.0375
20.1147
20.0371
20.1754
19.9695
20.176
19.9688
20.0384
20.1144
20.0379
20.1145
19.9709
20.1743
19.9701
20.1749
20.1208
20.1061
20.121
20.1062
20.1224
20.1037
20.1227
20.1038
20.0994
20.0994
20.0993
20.0993
20.0974
20.0973
20.0974
20.0974
20.1061
20.1207
20.1062
20.121
20.1037
20.1224
20.1038
20.1227
20.1144
20.0384
20.1145
20.0379
20.1743
19.971
20.1749
19.9702
20.0395
20.1143
20.0389
20.1143
19.9727
20.1731
19.9718
20.1737
20.1203
20.1061
20.1205
20.1061
20.1216
20.1035
20.122
20.1036
20.0997
20.0997
20.0996
20.0996
20.0974
20.0974
20.0974
20.0974
20.1061
20.1203
20.1061
20.1205
20.1035
20.1216
20.1036
20.122
20.1143
20.0395
20.1143
20.0389
20.1731
19.9728
20.1737
19.9719
20.0408
20.1142
20.0401
20.1142
19.9749
20.1719
19.9738
20.1725
20.1199
20.1062
20.1201
20.1062
20.121
20.1034
20.1213
20.1035
20.1001
20.1001
20.0999
20.0999
20.0976
20.0976
20.0975
20.0975
20.1062
20.1199
20.1062
20.1201
20.1034
20.1209
20.1035
20.1213
20.1142
20.0408
20.1142
20.0401
20.1718
19.975
20.1724
19.9738
20.0423
20.1141
20.0415
20.1142
19.9774
20.1706
19.9761
20.1712
20.1196
20.1065
20.1198
20.1063
20.1203
20.1035
20.1206
20.1035
20.1006
20.1006
20.1003
20.1003
20.098
20.098
20.0978
20.0978
20.1065
20.1196
20.1063
20.1197
20.1035
20.1203
20.1034
20.1206
20.1141
20.0423
20.1142
20.0415
20.1705
19.9774
20.1712
19.9761
20.044
20.1141
20.0431
20.1141
19.9802
20.1692
19.9787
20.1699
20.1193
20.1068
20.1195
20.1066
20.1198
20.1037
20.1201
20.1036
20.1013
20.1013
20.1009
20.1009
20.0985
20.0985
20.0982
20.0982
20.1068
20.1193
20.1066
20.1194
20.1037
20.1198
20.1036
20.12
20.1141
20.0441
20.1141
20.0431
20.1692
19.9803
20.1699
19.9788
20.046
20.114
20.045
20.1141
19.9834
20.1677
19.9818
20.1685
20.1192
20.1073
20.1192
20.107
20.1194
20.1041
20.1196
20.1039
20.1021
20.1021
20.1017
20.1017
20.0991
20.0991
20.0988
20.0988
20.1073
20.1192
20.107
20.1192
20.1041
20.1194
20.1039
20.1196
20.114
20.0461
20.1141
20.045
20.1677
19.9835
20.1684
19.9818
20.0483
20.1139
20.0471
20.114
19.9871
20.1661
19.9852
20.1669
20.1191
20.1079
20.1191
20.1076
20.1191
20.1046
20.1192
20.1043
20.103
20.103
20.1025
20.1025
20.0999
20.0999
20.0995
20.0995
20.1079
20.1191
20.1076
20.1191
20.1046
20.1191
20.1043
20.1192
20.1139
20.0483
20.114
20.0471
20.1661
19.9872
20.1669
19.9853
20.0507
20.1138
20.0495
20.1139
19.9913
20.1642
19.9891
20.1652
20.1191
20.1086
20.1191
20.1082
20.1189
20.1054
20.119
20.105
20.104
20.104
20.1035
20.1035
20.1009
20.1009
20.1004
20.1004
20.1086
20.1191
20.1082
20.1191
20.1053
20.1189
20.105
20.119
20.1138
20.0507
20.1139
20.0495
20.1642
19.9913
20.1652
19.9892
20.0533
20.1138
20.052
20.1138
19.9961
20.162
19.9936
20.1632
20.1193
20.1095
20.1192
20.1091
20.1189
20.1062
20.1189
20.1058
20.1051
20.1051
20.1045
20.1045
20.102
20.102
20.1014
20.1014
20.1095
20.1192
20.109
20.1192
20.1062
20.1189
20.1058
20.1189
20.1138
20.0533
20.1138
20.052
20.162
19.9961
20.1631
19.9936
20.0553
20.1144
20.0545
20.1139
20.0019
20.159
19.9988
20.1606
20.1195
20.1105
20.1193
20.11
20.119
20.1073
20.1189
20.1067
20.1063
20.1063
20.1057
20.1057
20.1032
20.1032
20.1026
20.1026
20.1105
20.1195
20.11
20.1193
20.1073
20.119
20.1067
20.1189
20.1144
20.0553
20.1139
20.0545
20.159
20.0019
20.1606
19.9989
20.057
20.115
20.0552
20.1159
20.0085
20.155
20.0051
20.1572
20.1203
20.1117
20.1198
20.1111
20.1195
20.1085
20.1192
20.1079
20.1076
20.1076
20.1069
20.1069
20.1046
20.1046
20.1039
20.1039
20.1117
20.1203
20.1111
20.1198
20.1085
20.1195
20.1079
20.1192
20.115
20.057
20.1159
20.0552
20.155
20.0085
20.1572
20.0051
20.1397
20.0706
20.1241
20.0812
20.1328
20.0746
20.1193
20.0837
20.0959
20.1
20.0981
20.1001
20.0973
20.0998
20.0984
20.0996
20.1001
20.1001
20.1001
20.1001
20.0998
20.0998
20.0995
20.0995
20.1
20.0959
20.1001
20.0981
20.0998
20.0973
20.0996
20.0984
20.0706
20.1397
20.0812
20.1241
20.0746
20.1327
20.0837
20.1193
20.1363
20.0779
20.1376
20.0748
20.1292
20.0807
20.1311
20.0779
20.0931
20.0989
20.0944
20.0996
20.0958
20.0992
20.0965
20.0997
20.0998
20.0998
20.1
20.1
20.0996
20.0996
20.0998
20.0998
20.0989
20.0931
20.0996
20.0944
20.0992
20.0958
20.0997
20.0965
20.0779
20.1362
20.0748
20.1376
20.0807
20.1292
20.0779
20.1311
20.1337
20.0819
20.135
20.0802
20.1247
20.0851
20.1271
20.0831
20.0928
20.0978
20.0927
20.0983
20.0963
20.0985
20.0958
20.0988
20.0989
20.0989
20.0994
20.0994
20.0988
20.0988
20.0992
20.0992
20.0978
20.0928
20.0983
20.0927
20.0985
20.0963
20.0988
20.0958
20.0819
20.1337
20.0802
20.135
20.0851
20.1247
20.0831
20.1271
20.1313
20.0838
20.1324
20.0831
20.1201
20.0878
20.1224
20.0866
20.094
20.0973
20.0933
20.0975
20.0981
20.0983
20.0971
20.0983
20.0979
20.0979
20.0984
20.0984
20.0979
20.0979
20.0983
20.0983
20.0973
20.094
20.0975
20.0933
20.0983
20.0981
20.0983
20.0971
20.0838
20.1312
20.0831
20.1324
20.0878
20.1201
20.0866
20.1224
20.1291
20.0842
20.1302
20.0841
20.1159
20.0891
20.1179
20.0886
20.0955
20.0975
20.0947
20.0973
20.1006
20.0986
20.0993
20.0984
20.0972
20.0972
20.0975
20.0975
20.0972
20.0972
20.0975
20.0975
20.0975
20.0955
20.0973
20.0947
20.0986
20.1006
20.0984
20.0993
20.0842
20.1291
20.0841
20.1301
20.0891
20.1159
20.0886
20.1179
20.1273
20.0838
20.1282
20.0841
20.1122
20.0895
20.114
20.0893
20.0969
20.098
20.0962
20.0977
20.103
20.0994
20.1018
20.099
20.0968
20.0968
20.0969
20.0969
20.0968
20.0968
20.097
20.097
20.098
20.0969
20.0977
20.0962
20.0994
20.103
20.099
20.1018
20.0838
20.1273
20.0841
20.1282
20.0895
20.1122
20.0894
20.114
20.1256
20.083
20.1264
20.0835
20.1089
20.0893
20.1105
20.0894
20.0981
20.0988
20.0976
20.0984
20.105
20.1004
20.104
20.0999
20.0967
20.0967
20.0967
20.0967
20.0968
20.0968
20.0968
20.0968
20.0988
20.0981
20.0984
20.0976
20.1004
20.105
20.0999
20.104
20.0831
20.1256
20.0835
20.1264
20.0893
20.1089
20.0894
20.1105
20.1241
20.082
20.1249
20.0826
20.1061
20.0888
20.1074
20.0891
20.0991
20.0997
20.0986
20.0993
20.1066
20.1014
20.1058
20.1009
20.097
20.097
20.0968
20.0968
20.097
20.097
20.0969
20.0969
20.0997
20.0991
20.0993
20.0986
20.1014
20.1066
20.1009
20.1058
20.0821
20.1241
20.0826
20.1248
20.0888
20.1061
20.0891
20.1074
20.1228
20.081
20.1234
20.0815
20.1036
20.0881
20.1048
20.0885
20.0998
20.1005
20.0994
20.1001
20.1078
20.1024
20.1072
20.1019
20.0974
20.0974
20.0972
20.0972
20.0974
20.0974
20.0972
20.0972
20.1005
20.0998
20.1001
20.0994
20.1024
20.1078
20.1019
20.1072
20.081
20.1228
20.0815
20.1234
20.0881
20.1036
20.0885
20.1048
20.1215
20.0799
20.1221
20.0804
20.1014
20.0873
20.1025
20.0877
20.1003
20.1014
20.1
20.101
20.1087
20.1034
20.1083
20.1029
20.0979
20.0979
20.0976
20.0976
20.0979
20.0979
20.0976
20.0976
20.1014
20.1003
20.101
20.1
20.1034
20.1087
20.1029
20.1083
20.0799
20.1215
20.0804
20.1221
20.0873
20.1014
20.0877
20.1025
20.1203
20.0789
20.1209
20.0794
20.0995
20.0865
20.1004
20.0869
20.1005
20.1021
20.1004
20.1017
20.1094
20.1042
20.1091
20.1038
20.0985
20.0985
20.0982
20.0982
20.0984
20.0984
20.0982
20.0982
20.1021
20.1005
20.1017
20.1004
20.1042
20.1094
20.1038
20.1091
20.0789
20.1203
20.0794
20.1209
20.0865
20.0995
20.0869
20.1004
20.1192
20.078
20.1198
20.0785
20.0978
20.0857
20.0986
20.0861
20.1007
20.1027
20.1006
20.1024
20.1098
20.105
20.1095
20.1046
20.099
20.099
20.0987
20.0988
20.099
20.099
20.0987
20.0987
20.1027
20.1007
20.1024
20.1007
20.105
20.1098
20.1047
20.1097
20.0781
20.1192
20.0785
20.1198
20.0857
20.0978
20.0861
20.0986
20.1182
20.0772
20.1187
20.0776
20.0963
20.085
20.097
20.0853
20.1008
20.1032
20.1008
20.103
20.1102
20.1056
20.11
20.1053
20.0995
20.0995
20.0993
20.0993
20.0994
20.0994
20.0992
20.0992
20.1032
20.1008
20.103
20.1008
20.1056
20.1101
20.1053
20.11
20.0772
20.1182
20.0776
20.1187
20.085
20.0963
20.0853
20.097
20.1172
20.0765
20.1177
20.0768
20.0949
20.0843
20.0956
20.0846
20.1008
20.1037
20.1008
20.1035
20.1104
20.1061
20.1103
20.1059
20.1
20.1
20.0998
20.0998
20.0999
20.0999
20.0997
20.0997
20.1037
20.1008
20.1035
20.1008
20.1061
20.1104
20.1058
20.1103
20.0765
20.1172
20.0768
20.1177
20.0843
20.0949
20.0846
20.0956
20.1163
20.0758
20.1167
20.0761
20.0937
20.0836
20.0943
20.0839
20.1008
20.104
20.1008
20.1038
20.1106
20.1064
20.1106
20.1063
20.1004
20.1004
20.1002
20.1002
20.1002
20.1002
20.1
20.1
20.104
20.1008
20.1038
20.1008
20.1064
20.1106
20.1063
20.1105
20.0758
20.1162
20.0761
20.1167
20.0836
20.0937
20.0839
20.0943
20.1154
20.0752
20.1158
20.0755
20.0926
20.083
20.0931
20.0833
20.1008
20.1042
20.1008
20.1041
20.1107
20.1067
20.1107
20.1066
20.1007
20.1007
20.1005
20.1005
20.1005
20.1005
20.1004
20.1004
20.1042
20.1008
20.1041
20.1008
20.1067
20.1107
20.1066
20.1107
20.0752
20.1154
20.0755
20.1158
20.083
20.0926
20.0833
20.0931
20.1146
20.0747
20.115
20.075
20.0917
20.0825
20.0921
20.0828
20.1007
20.1044
20.1008
20.1043
20.1107
20.1069
20.1107
20.1068
20.1009
20.1009
20.1008
20.1008
20.1007
20.1007
20.1006
20.1006
20.1044
20.1007
20.1043
20.1008
20.1069
20.1107
20.1068
20.1107
20.0747
20.1146
20.075
20.115
20.0825
20.0916
20.0828
20.0921
20.1139
20.0743
20.1142
20.0745
20.0908
20.082
20.0912
20.0823
20.1007
20.1046
20.1007
20.1045
20.1106
20.107
20.1107
20.1069
20.1011
20.1011
20.101
20.101
20.1008
20.1008
20.1008
20.1008
20.1045
20.1007
20.1045
20.1007
20.107
20.1106
20.1069
20.1107
20.0743
20.1138
20.0745
20.1142
20.0821
20.0908
20.0823
20.0912
20.1132
20.0739
20.1135
20.0741
20.0901
20.0816
20.0904
20.0818
20.1005
20.1047
20.1006
20.1046
20.1106
20.107
20.1106
20.107
20.1013
20.1013
20.1012
20.1012
20.1009
20.1009
20.1009
20.1009
20.1046
20.1005
20.1046
20.1006
20.107
20.1106
20.107
20.1106
20.0739
20.1132
20.0741
20.1135
20.0817
20.09
20.0818
20.0904
20.1126
20.0736
20.1129
20.0738
20.0894
20.0813
20.0897
20.0815
20.1003
20.1047
20.1005
20.1046
20.1105
20.1069
20.1106
20.107
20.1014
20.1013
20.1013
20.1013
20.1009
20.1009
20.1009
20.1009
20.1046
20.1004
20.1047
20.1004
20.1069
20.1105
20.107
20.1106
20.0737
20.1126
20.0738
20.1129
20.0813
20.0894
20.0815
20.0897
20.1121
20.0734
20.1123
20.0735
20.0889
20.081
20.0891
20.0812
20.1002
20.1047
20.1003
20.1046
20.1104
20.1069
20.1104
20.1069
20.1014
20.1014
20.1014
20.1014
20.1009
20.1009
20.1009
20.1009
20.1046
20.1003
20.1047
20.1003
20.1069
20.1104
20.1069
20.1104
20.0735
20.1121
20.0735
20.1123
20.081
20.0888
20.0812
20.0891
20.1117
20.0733
20.1119
20.0734
20.0884
20.0808
20.0886
20.0809
20.1001
20.1047
20.1002
20.1046
20.1102
20.1068
20.1103
20.1068
20.1015
20.1015
20.1014
20.1014
20.1009
20.1009
20.1009
20.1009
20.1047
20.1001
20.1046
20.1002
20.1067
20.1102
20.1068
20.1103
20.0733
20.1116
20.0734
20.1118
20.0808
20.0884
20.0809
20.0886
20.1113
20.0733
20.1115
20.0733
20.0881
20.0806
20.0883
20.0807
20.1001
20.1047
20.1002
20.1046
20.11
20.1066
20.1101
20.1067
20.1015
20.1015
20.1015
20.1015
20.1009
20.1009
20.1009
20.1009
20.1047
20.1001
20.1046
20.1002
20.1066
20.11
20.1067
20.1101
20.0733
20.1113
20.0733
20.1114
20.0807
20.0881
20.0807
20.0882
20.1111
20.0733
20.1112
20.0733
20.0879
20.0806
20.088
20.0806
20.1
20.1047
20.1001
20.1046
20.1099
20.1065
20.1099
20.1066
20.1016
20.1016
20.1015
20.1015
20.1009
20.1009
20.1009
20.1009
20.1046
20.1
20.1046
20.1001
20.1065
20.1099
20.1065
20.1099
20.0733
20.111
20.0733
20.1111
20.0806
20.0879
20.0806
20.088
20.1109
20.0734
20.111
20.0734
20.0878
20.0805
20.0879
20.0805
20.1
20.1047
20.1001
20.1046
20.1097
20.1064
20.1098
20.1064
20.1017
20.1017
20.1016
20.1016
20.1009
20.1009
20.1009
20.1009
20.1047
20.1
20.1046
20.1001
20.1064
20.1097
20.1064
20.1098
20.0734
20.1109
20.0734
20.1109
20.0805
20.0878
20.0806
20.0878
20.1109
20.0736
20.1109
20.0735
20.0879
20.0806
20.0879
20.0806
20.1001
20.1047
20.1001
20.1046
20.1096
20.1063
20.1096
20.1063
20.1018
20.1018
20.1017
20.1017
20.1009
20.1009
20.1009
20.1009
20.1047
20.1001
20.1046
20.1001
20.1063
20.1096
20.1063
20.1096
20.0736
20.1108
20.0735
20.1108
20.0806
20.0879
20.0806
20.0878
20.1109
20.0739
20.1109
20.0736
20.0881
20.0807
20.088
20.0806
20.1002
20.1048
20.1002
20.1047
20.1095
20.1063
20.1095
20.1063
20.102
20.102
20.1019
20.1019
20.101
20.101
20.101
20.101
20.1048
20.1002
20.1047
20.1002
20.1063
20.1095
20.1063
20.1095
20.0739
20.1109
20.0736
20.1108
20.0807
20.088
20.0806
20.0879
20.111
20.0745
20.111
20.0742
20.0884
20.0809
20.0882
20.0808
20.1003
20.105
20.1003
20.1048
20.1094
20.1063
20.1094
20.1063
20.1023
20.1023
20.1021
20.1021
20.1012
20.1012
20.1011
20.1011
20.105
20.1003
20.1048
20.1003
20.1063
20.1094
20.1063
20.1094
20.0745
20.111
20.0743
20.1109
20.0809
20.0883
20.0808
20.0882
20.1113
20.0752
20.1111
20.0749
20.0888
20.0811
20.0886
20.081
20.1006
20.1052
20.1005
20.105
20.1093
20.1064
20.1094
20.1063
20.1026
20.1026
20.1024
20.1024
20.1015
20.1015
20.1014
20.1014
20.1052
20.1006
20.105
20.1005
20.1064
20.1093
20.1063
20.1093
20.0752
20.1112
20.0749
20.1111
20.0811
20.0888
20.081
20.0886
20.1116
20.0761
20.1114
20.0756
20.0894
20.0814
20.0891
20.0812
20.1008
20.1055
20.1007
20.1053
20.1094
20.1066
20.1093
20.1065
20.1031
20.1031
20.1028
20.1028
20.1019
20.1019
20.1017
20.1017
20.1055
20.1008
20.1053
20.1007
20.1066
20.1094
20.1065
20.1093
20.0761
20.1115
20.0756
20.1114
20.0814
20.0894
20.0813
20.0891
20.112
20.0766
20.1118
20.0764
20.0901
20.0819
20.0897
20.0816
20.1012
20.1059
20.101
20.1057
20.1094
20.1068
20.1094
20.1067
20.1037
20.1037
20.1034
20.1034
20.1024
20.1024
20.1022
20.1022
20.1059
20.1012
20.1057
20.101
20.1068
20.1094
20.1067
20.1094
20.0766
20.112
20.0764
20.1117
20.0819
20.0901
20.0816
20.0897
20.1125
20.077
20.1122
20.0768
20.0909
20.0826
20.0905
20.0823
20.1016
20.1064
20.1014
20.1061
20.1096
20.1072
20.1095
20.107
20.1043
20.1043
20.104
20.104
20.103
20.103
20.1027
20.1027
20.1064
20.1016
20.1061
20.1014
20.1072
20.1096
20.107
20.1095
20.077
20.1125
20.0768
20.1122
20.0827
20.0909
20.0823
20.0905
20.113
20.0776
20.1127
20.0773
20.0919
20.0834
20.0914
20.083
20.1021
20.107
20.1018
20.1067
20.1098
20.1077
20.1096
20.1074
20.1051
20.1051
20.1047
20.1047
20.1038
20.1038
20.1034
20.1034
20.107
20.1021
20.1067
20.1018
20.1077
20.1098
20.1074
20.1096
20.0776
20.113
20.0773
20.1127
20.0834
20.0918
20.083
20.0914
20.1135
20.0783
20.1132
20.078
20.0929
20.0841
20.0924
20.0837
20.1026
20.1077
20.1023
20.1073
20.11
20.1083
20.1099
20.108
20.1059
20.1059
20.1055
20.1055
20.1046
20.1046
20.1042
20.1042
20.1077
20.1026
20.1073
20.1023
20.1083
20.11
20.108
20.1099
20.0784
20.1134
20.078
20.1132
20.0841
20.0929
20.0837
20.0923
20.1138
20.0793
20.1136
20.0788
20.0939
20.0849
20.0934
20.0845
20.1033
20.1084
20.103
20.108
20.1104
20.109
20.1102
20.1086
20.1069
20.1069
20.1064
20.1064
20.1055
20.1055
20.105
20.105
20.1084
20.1033
20.108
20.103
20.109
20.1104
20.1086
20.1102
20.0793
20.1137
20.0788
20.1136
20.0849
20.0939
20.0845
20.0934
20.1137
20.0805
20.1138
20.0798
20.0948
20.0859
20.0944
20.0854
20.1041
20.1093
20.1037
20.1089
20.1109
20.1097
20.1106
20.1093
20.1079
20.1079
20.1074
20.1074
20.1065
20.1065
20.106
20.106
20.1093
20.1041
20.1089
20.1037
20.1097
20.1109
20.1093
20.1106
20.0805
20.1137
20.0798
20.1138
20.0859
20.0948
20.0854
20.0944
20.1129
20.0823
20.1134
20.0813
20.0954
20.0872
20.0952
20.0865
20.105
20.1102
20.1046
20.1098
20.1114
20.1106
20.1111
20.1102
20.1089
20.1089
20.1084
20.1084
20.1076
20.1076
20.107
20.107
20.1102
20.105
20.1098
20.1046
20.1106
20.1114
20.1102
20.1111
20.0823
20.1129
20.0813
20.1134
20.0872
20.0954
20.0865
20.0951
20.1095
20.0864
20.1119
20.0837
20.0943
20.09
20.0953
20.0881
20.106
20.1113
20.1055
20.1107
20.112
20.1116
20.1117
20.1111
20.11
20.11
20.1094
20.1094
20.1087
20.1087
20.1081
20.1081
20.1113
20.106
20.1107
20.1055
20.1116
20.112
20.1111
20.1117
20.0864
20.1095
20.0837
20.1119
20.09
20.0943
20.0881
20.0953
20.1165
20.08
20.1063
20.09
20.0997
20.086
20.0924
20.0927
20.1072
20.1127
20.1069
20.112
20.1131
20.1129
20.1127
20.1123
20.111
20.111
20.1105
20.1105
20.1098
20.1098
20.1093
20.1093
20.1127
20.1072
20.112
20.1068
20.1129
20.1131
20.1122
20.1127
20.08
20.1165
20.09
20.1063
20.086
20.0997
20.0927
20.0924
20.1487
20.065
20.1302
20.0769
20.1448
20.0671
20.1275
20.0786
20.0926
20.0996
20.0964
20.1
20.0941
20.0997
20.0972
20.0999
20.1001
20.1001
20.1001
20.1001
20.1
20.1
20.0999
20.0999
20.0996
20.0926
20.1
20.0964
20.0997
20.0941
20.0999
20.0972
20.0651
20.1487
20.0769
20.1302
20.0671
20.1448
20.0786
20.1275
20.143
20.0776
20.1449
20.0724
20.1405
20.0771
20.1419
20.073
20.0885
20.0972
20.0904
20.0987
20.0905
20.0981
20.0922
20.0991
20.0997
20.0997
20.1
20.1
20.0997
20.0997
20.1
20.1
20.0972
20.0885
20.0987
20.0904
20.0981
20.0905
20.0992
20.0922
20.0776
20.143
20.0724
20.1449
20.0771
20.1404
20.073
20.1419
20.1405
20.084
20.1417
20.0813
20.1382
20.0822
20.1393
20.08
20.0875
20.0951
20.0877
20.096
20.0896
20.0964
20.0898
20.0972
20.0986
20.0986
20.0992
20.0992
20.0988
20.0988
20.0994
20.0994
20.0951
20.0875
20.096
20.0877
20.0964
20.0897
20.0972
20.0898
20.084
20.1405
20.0813
20.1416
20.0822
20.1382
20.08
20.1393
20.1386
20.0871
20.1395
20.0859
20.1363
20.0846
20.1372
20.0836
20.0879
20.094
20.0876
20.0945
20.0903
20.0956
20.0899
20.0959
20.0972
20.0972
20.0979
20.0979
20.0977
20.0977
20.0983
20.0983
20.094
20.088
20.0945
20.0876
20.0956
20.0903
20.0959
20.0899
20.0871
20.1386
20.0859
20.1394
20.0846
20.1363
20.0836
20.1372
20.1372
20.0885
20.1379
20.088
20.1349
20.0853
20.1356
20.0851
20.0888
20.0937
20.0883
20.0938
20.0913
20.0956
20.0908
20.0955
20.0961
20.0961
20.0966
20.0966
20.0968
20.0968
20.0972
20.0972
20.0937
20.0888
20.0938
20.0883
20.0956
20.0913
20.0955
20.0908
20.0885
20.1372
20.088
20.1378
20.0853
20.1348
20.0851
20.1355
20.1361
20.0889
20.1366
20.0888
20.1336
20.0852
20.1342
20.0854
20.0895
20.0937
20.0891
20.0937
20.0922
20.0959
20.0918
20.0957
20.0955
20.0955
20.0958
20.0958
20.0963
20.0963
20.0965
20.0965
20.0937
20.0895
20.0937
20.0891
20.0959
20.0922
20.0957
20.0918
20.0889
20.1361
20.0888
20.1366
20.0852
20.1336
20.0854
20.1342
20.1351
20.0887
20.1356
20.0888
20.1325
20.0847
20.133
20.085
20.09
20.0941
20.0897
20.0939
20.0929
20.0965
20.0926
20.0962
20.0953
20.0953
20.0954
20.0954
20.0962
20.0962
20.0962
20.0962
20.0941
20.09
20.0939
20.0897
20.0965
20.0929
20.0962
20.0926
20.0887
20.1351
20.0888
20.1355
20.0847
20.1325
20.085
20.133
20.1342
20.0882
20.1346
20.0885
20.1315
20.0839
20.132
20.0843
20.0903
20.0945
20.0902
20.0943
20.0934
20.0971
20.0931
20.0968
20.0954
20.0954
20.0954
20.0954
20.0964
20.0964
20.0963
20.0963
20.0945
20.0903
20.0943
20.0902
20.0971
20.0934
20.0968
20.0932
20.0882
20.1342
20.0885
20.1346
20.0839
20.1314
20.0843
20.132
20.1333
20.0876
20.1338
20.0879
20.1305
20.083
20.131
20.0834
20.0905
20.095
20.0904
20.0947
20.0937
20.0978
20.0936
20.0974
20.0958
20.0958
20.0956
20.0956
20.0968
20.0968
20.0966
20.0966
20.095
20.0905
20.0947
20.0904
20.0978
20.0937
20.0974
20.0936
20.0876
20.1333
20.0879
20.1337
20.083
20.1305
20.0834
20.131
20.1325
20.0869
20.1329
20.0873
20.1296
20.0821
20.13
20.0825
20.0906
20.0954
20.0906
20.0952
20.0939
20.0984
20.0938
20.0981
20.0962
20.0962
20.096
20.096
20.0973
20.0973
20.097
20.097
20.0954
20.0906
20.0952
20.0906
20.0984
20.0939
20.0981
20.0938
20.0869
20.1325
20.0873
20.1329
20.0821
20.1295
20.0825
20.13
20.1317
20.0863
20.1321
20.0866
20.1287
20.0812
20.1291
20.0816
20.0906
20.0958
20.0906
20.0956
20.094
20.099
20.094
20.0987
20.0967
20.0967
20.0965
20.0965
20.0978
20.0978
20.0976
20.0976
20.0958
20.0906
20.0956
20.0906
20.099
20.094
20.0987
20.094
20.0863
20.1316
20.0866
20.132
20.0812
20.1286
20.0816
20.1291
20.1309
20.0856
20.1313
20.0859
20.1278
20.0804
20.1282
20.0808
20.0906
20.0962
20.0906
20.096
20.094
20.0995
20.094
20.0993
20.0973
20.0973
20.097
20.097
20.0984
20.0984
20.0981
20.0981
20.0962
20.0906
20.096
20.0906
20.0995
20.094
20.0993
20.094
20.0856
20.1308
20.0859
20.1312
20.0804
20.1278
20.0808
20.1282
20.1301
20.0849
20.1305
20.0853
20.1269
20.0796
20.1274
20.08
20.0905
20.0966
20.0906
20.0964
20.094
20.0999
20.094
20.0997
20.0978
20.0978
20.0975
20.0975
20.0989
20.0989
20.0986
20.0986
20.0966
20.0905
20.0964
20.0906
20.0999
20.094
20.0997
20.094
20.0849
20.13
20.0853
20.1304
20.0796
20.1269
20.08
20.1273
20.1293
20.0844
20.1297
20.0846
20.1261
20.0789
20.1265
20.0792
20.0905
20.0969
20.0905
20.0967
20.094
20.1003
20.094
20.1001
20.0982
20.0982
20.098
20.098
20.0994
20.0994
20.0991
20.0991
20.0969
20.0905
20.0967
20.0905
20.1003
20.094
20.1001
20.094
20.0844
20.1293
20.0846
20.1297
20.0789
20.1261
20.0793
20.1265
20.1286
20.0838
20.129
20.0841
20.1253
20.0783
20.1257
20.0786
20.0904
20.0971
20.0904
20.097
20.0939
20.1006
20.0939
20.1005
20.0986
20.0986
20.0984
20.0984
20.0998
20.0998
20.0996
20.0996
20.0971
20.0904
20.097
20.0904
20.1006
20.0939
20.1005
20.0939
20.0838
20.1286
20.0841
20.1289
20.0783
20.1253
20.0786
20.1257
20.1279