/*--------------------------------*- C++ -*----------------------------------*\
  =========                 |
  \\      /  F ield         | OpenFOAM: The Open Source CFD Toolbox
   \\    /   O peration     | Website:  https://openfoam.org
    \\  /    A nd           | Version:  9
     \\/     M anipulation  |
\*---------------------------------------------------------------------------*/
FoamFile
{
    format      ascii;
    class       surfaceScalarField;
    location    "4";
    object      phi;
}
// * * * * * * * * * * * * * * * * * * * * * * * * * * * * * * * * * * * * * //

dimensions      [0 3 -1 0 0 0 0];

internalField   nonuniform List<scalar> 
104044
(
7.05217e-07
-6.95883e-05
-2.63567e-06
6.78251e-05
3.69363e-06
-4.49442e-05
-3.95238e-07
-2.74217e-07
4.71175e-05
-7.98598e-07
4.90283e-07
-4.86955e-06
4.94429e-06
7.63283e-07
-1.99785e-07
-1.48624e-06
-1.52108e-07
-8.30166e-05
8.05331e-05
-3.34352e-05
9.64778e-08
3.27914e-05
-5.38776e-08
2.50357e-08
-1.71794e-08
-4.95911e-05
-2.98224e-06
4.9697e-05
2.61927e-06
-5.17871e-05
-2.115e-06
6.27755e-10
5.18756e-05
2.00871e-06
-9.93995e-09
-2.53332e-06
1.91331e-06
-1.93424e-06
-6.50132e-11
1.45998e-06
-7.10911e-09
-4.90061e-05
4.61275e-05
-5.51728e-05
-6.10639e-10
5.30513e-05
-9.51156e-09
-2.54312e-09
-9.43449e-13
-5.28675e-05
-1.55569e-06
5.29632e-05
1.46061e-06
-5.28681e-05
-1.55563e-06
-6.28091e-10
5.29638e-05
1.46063e-06
-1.09203e-12
-1.49004e-06
9.31055e-07
-1.49008e-06
6.40597e-11
9.31164e-07
-1.68773e-12
-5.662e-05
5.50637e-05
-5.66207e-05
6.10794e-10
5.50645e-05
-7.00139e-13
2.5416e-09
1.71773e-08
-5.17888e-05
-2.11464e-06
5.18771e-05
2.00852e-06
-4.95928e-05
-2.98199e-06
2.74167e-07
4.96986e-05
2.61925e-06
9.93841e-09
-1.93405e-06
1.45987e-06
-2.53311e-06
1.99748e-07
1.91322e-06
7.11517e-09
-5.51751e-05
5.30539e-05
-4.90111e-05
-9.63887e-08
4.61326e-05
9.51119e-09
-2.49982e-08
-7.05018e-07
-4.49441e-05
-3.97059e-07
4.71171e-05
-7.9678e-07
-6.95824e-05
-2.63442e-06
6.782e-05
3.6918e-06
-4.90113e-07
7.61779e-07
-1.48461e-06
-4.86727e-06
4.94165e-06
1.51884e-07
-3.34408e-05
3.27955e-05
-8.30031e-05
8.05206e-05
5.37647e-08
3.14744e-07
-6.60154e-05
-3.39149e-06
6.44553e-05
4.63685e-06
-4.85089e-05
2.93247e-06
-9.03109e-08
4.93694e-05
-3.38793e-06
4.98362e-07
-2.93782e-06
4.24912e-06
1.39705e-06
-1.7285e-07
-2.1172e-06
-8.23075e-07
-7.80672e-05
7.54988e-05
-3.34567e-05
4.20444e-07
3.51457e-05
-4.71935e-07
2.59779e-07
-2.46667e-09
-4.96908e-05
-1.62835e-06
4.96024e-05
1.62897e-06
-5.17823e-05
-1.55235e-06
-3.28031e-09
5.14949e-05
1.84047e-06
-1.37441e-08
-2.40039e-06
2.24747e-06
-2.02013e-06
-7.01429e-10
2.10045e-06
2.16467e-08
-4.39838e-05
4.27543e-05
-5.10354e-05
-1.564e-09
4.95063e-05
3.07524e-09
-1.12979e-09
1.75541e-12
-5.28516e-05
-1.4039e-06
5.25612e-05
1.69103e-06
-5.28521e-05
-1.40384e-06
3.2888e-09
5.25617e-05
1.69101e-06
4.11897e-12
-1.69302e-06
1.80391e-06
-1.69291e-06
7.08383e-10
1.80388e-06
1.05158e-12
-5.33696e-05
5.19641e-05
-5.33704e-05
1.5716e-09
5.1965e-05
-3.31793e-13
1.13202e-09
2.49587e-09
-5.17836e-05
-1.55227e-06
5.14962e-05
1.8405e-06
-4.96922e-05
-1.62869e-06
9.0331e-08
4.96035e-05
1.6296e-06
1.37305e-08
-2.01987e-06
2.10038e-06
-2.40049e-06
1.7285e-07
2.24778e-06
-2.16036e-08
-5.10382e-05
4.95092e-05
-4.39887e-05
-4.20247e-07
4.27587e-05
-3.05689e-09
-2.59631e-07
-3.14793e-07
-4.8508e-05
2.93033e-06
4.93683e-05
-3.38547e-06
-6.60109e-05
-3.38961e-06
6.44513e-05
4.63443e-06
-4.98311e-07
1.39517e-06
-2.11495e-06
-2.93621e-06
4.24698e-06
8.22447e-07
-3.34595e-05
3.51472e-05
-7.80559e-05
7.54887e-05
4.71511e-07
-4.6126e-08
-6.31324e-05
-3.72364e-06
6.19889e-05
4.91324e-06
-4.99994e-05
4.11638e-06
3.84551e-08
5.05219e-05
-4.72346e-06
1.2909e-07
-3.56207e-06
4.75595e-06
3.679e-06
-2.19456e-08
-4.158e-06
-1.48656e-06
-7.30901e-05
7.0853e-05
-3.71181e-05
6.80345e-07
3.90676e-05
-1.1534e-06
5.53149e-07
6.61361e-08
-4.95518e-05
-6.79729e-07
4.95845e-05
6.19366e-07
-5.11738e-05
-7.83388e-07
4.54368e-09
5.0913e-05
1.10575e-06
2.38048e-08
-1.04403e-06
1.04886e-06
-1.09009e-06
-5.05628e-10
1.43556e-06
8.24437e-08
-4.22147e-05
4.21329e-05
-4.84641e-05
5.53458e-09
4.77576e-05
4.86328e-08
7.39298e-10
8.50237e-12
-5.22002e-05
-7.21686e-07
5.1868e-05
1.0585e-06
-5.22007e-05
-7.21692e-07
-4.51069e-09
5.18683e-05
1.05853e-06
3.88316e-12
-9.93659e-07
1.35411e-06
-9.93643e-07
5.22145e-10
1.35412e-06
8.54054e-12
-5.09712e-05
5.0255e-05
-5.09721e-05
-5.49958e-09
5.02559e-05
3.86673e-12
-7.21675e-10
-6.60344e-08
-5.11749e-05
-7.83477e-07
5.0914e-05
1.10591e-06
-4.95526e-05
-6.80101e-07
-3.8427e-08
4.9585e-05
6.20068e-07
-2.37296e-08
-1.09013e-06
1.43567e-06
-1.04441e-06
2.19755e-08
1.04955e-06
-8.2336e-08
-4.84669e-05
4.77602e-05
-4.22186e-05
-6.80027e-07
4.21362e-05
-4.85627e-08
-5.52923e-07
4.59321e-08
-4.99981e-05
4.11434e-06
5.05205e-05
-4.72108e-06
-6.31287e-05
-3.72166e-06
6.19856e-05
4.91068e-06
-1.29216e-07
3.67694e-06
-4.15558e-06
-3.56006e-06
4.75341e-06
1.48558e-06
-3.71186e-05
3.90673e-05
-7.30813e-05
7.08452e-05
1.15259e-06
-3.53363e-07
-6.10191e-05
-3.8523e-06
6.01783e-05
5.04644e-06
-5.0963e-05
4.46891e-06
8.59932e-08
5.13409e-05
-5.2862e-06
-2.06121e-07
-3.76055e-06
4.9365e-06
4.29478e-06
6.53904e-08
-5.00732e-06
-2.04322e-06
-6.88545e-05
6.70454e-05
-4.08294e-05
8.55899e-07
4.23992e-05
-1.76199e-06
7.70962e-07
1.51511e-07
-4.96888e-05
-3.12429e-07
4.98604e-05
7.52921e-08
-5.07374e-05
-4.09811e-07
2.00967e-08
5.06374e-05
6.41309e-07
1.07342e-07
-4.47682e-07
3.01437e-07
-5.5927e-07
1.1874e-08
8.30327e-07
1.50676e-07
-4.23387e-05
4.27315e-05
-4.73034e-05
2.12277e-08
4.7023e-05
1.17486e-07
1.2418e-08
-1.38138e-10
-5.16032e-05
-4.19149e-07
5.14022e-05
6.40402e-07
-5.16035e-05
-4.19143e-07
-2.05082e-08
5.14025e-05
6.40495e-07
1.11547e-11
-5.3354e-07
8.10173e-07
-5.33555e-07
-1.17984e-08
8.10212e-07
-7.13803e-11
-4.97339e-05
4.93361e-05
-4.97347e-05
-2.1337e-08
4.93369e-05
1.00797e-11
-1.2363e-08
-1.51431e-07
-5.07383e-05
-4.10116e-07
5.06379e-05
6.41391e-07
-4.96891e-05
-3.1266e-07
-8.60515e-08
4.98604e-05
7.60408e-08
-1.07203e-07
-5.59391e-07
8.30485e-07
-4.4799e-07
-6.54107e-08
3.02102e-07
-1.51101e-07
-4.73058e-05
4.70254e-05
-4.23415e-05
-8.55763e-07
4.27335e-05
-1.17298e-07
-7.70623e-07
3.53031e-07
-5.09615e-05
4.46697e-06
5.13393e-05
-5.28392e-06
-6.10161e-05
-3.85027e-06
6.01756e-05
5.04379e-06
2.05866e-07
4.29282e-06
-5.00503e-06
-3.75847e-06
4.93385e-06
2.04188e-06
-4.08287e-05
4.2398e-05
-6.88476e-05
6.70392e-05
1.76087e-06
-5.93445e-07
-5.94573e-05
-3.90819e-06
5.88271e-05
5.13191e-06
-5.166e-05
4.59292e-06
9.91457e-08
5.19316e-05
-5.55713e-06
-4.76696e-07
-3.84366e-06
5.0413e-06
4.49775e-06
9.57566e-08
-5.38932e-06
-2.47918e-06
-6.54547e-05
6.40257e-05
-4.37384e-05
9.57257e-07
4.48949e-05
-2.25297e-06
9.05625e-07
2.27824e-07
-5.00607e-05
-2.06443e-07
5.0273e-05
-1.34535e-07
-5.05996e-05
-2.11501e-07
3.71463e-08
5.06095e-05
3.9227e-07
1.89765e-07
-2.33529e-07
-6.08384e-08
-2.92974e-07
2.82977e-08
4.92195e-07
1.95362e-07
-4.32299e-05
4.37853e-05
-4.68725e-05
3.77213e-08
4.68186e-05
1.73704e-07
3.12816e-08
-3.49062e-11
-5.12612e-05
-2.74381e-07
5.11675e-05
4.05213e-07
-5.12614e-05
-2.74818e-07
-3.6859e-08
5.11677e-05
4.05291e-07
9.23339e-11
-3.32962e-07
5.02169e-07
-3.32995e-07
-2.79956e-08
5.02205e-07
-1.12759e-09
-4.90343e-05
4.87988e-05
-4.90347e-05
-4.14445e-08
4.88002e-05
7.21462e-11
-3.07625e-08
-2.27418e-07
-5.06001e-05
-2.11628e-07
5.06099e-05
3.92434e-07
-5.00607e-05
-2.06022e-07
-9.92681e-08
5.02727e-05
-1.34051e-07
-1.89577e-07
-2.92963e-07
4.92369e-07
-2.33799e-07
-9.5733e-08
-6.03961e-08
-1.98712e-07
-4.68744e-05
4.682e-05
-4.32321e-05
-9.58158e-07
4.37855e-05
-1.72681e-07
-9.05051e-07
5.92992e-07
-5.16585e-05
4.59113e-06
5.193e-05
-5.55486e-06
-5.94549e-05
-3.90611e-06
5.88248e-05
5.12925e-06
4.76359e-07
4.49581e-06
-5.38706e-06
-3.84155e-06
5.03861e-06
2.4773e-06
-4.37371e-05
4.48928e-05
-6.54493e-05
6.40205e-05
2.25165e-06
-7.74403e-07
-5.82802e-05
-3.93801e-06
5.77975e-05
5.1951e-06
-5.21602e-05
4.64636e-06
8.67243e-08
5.23536e-05
-5.70094e-06
-6.83556e-07
-3.88219e-06
5.11259e-06
4.57515e-06
9.43548e-08
-5.58161e-06
-2.80868e-06
-6.27723e-05
6.16429e-05
-4.58616e-05
1.00983e-06
4.66894e-05
-2.62875e-06
9.79662e-07
2.87316e-07
-5.04884e-05
-2.13865e-07
5.07034e-05
-2.01708e-07
-5.06548e-05
-1.04187e-07
5.44549e-08
5.07269e-05
2.65027e-07
2.56904e-07
-2.00504e-07
-1.77436e-07
-1.47791e-07
4.50122e-08
3.14341e-07
2.33953e-07
-4.43475e-05
4.49095e-05
-4.68372e-05
5.53222e-08
4.69116e-05
2.16967e-07
5.06037e-08
-3.5719e-11
-5.11146e-05
-1.85135e-07
5.10939e-05
2.60247e-07
-5.11147e-05
-1.8531e-07
-5.44123e-08
5.10941e-05
2.60323e-07
-1.74103e-11
-2.23909e-07
3.21894e-07
-2.23393e-07
-4.55803e-08
3.21966e-07
-3.63875e-10
-4.86236e-05
4.84942e-05
-4.86237e-05
-5.68358e-08
4.84949e-05
1.84914e-09
-4.50542e-08
-2.87168e-07
-5.06552e-05
-1.04293e-07
5.07271e-05
2.65153e-07
-5.04882e-05
-2.13894e-07
-8.68459e-08
5.0703e-05
-2.01225e-07
-2.5703e-07
-1.48368e-07
3.1451e-07
-2.01453e-07
-9.4292e-08
-1.76875e-07
-2.34963e-07
-4.68391e-05
4.69129e-05
-4.43493e-05
-1.00981e-06
4.49102e-05
-2.12509e-07
-9.77702e-07
7.7394e-07
-5.21588e-05
4.64435e-06
5.23522e-05
-5.69859e-06
-5.82783e-05
-3.93605e-06
5.77958e-05
5.19251e-06
6.83229e-07
4.5729e-06
-5.57923e-06
-3.88024e-06
5.10997e-06
2.80699e-06
-4.58602e-05
4.66878e-05
-6.2768e-05
6.16389e-05
2.62777e-06
-9.07504e-07
-5.73736e-05
-3.95049e-06
5.69955e-05
5.23613e-06
-5.25176e-05
4.67111e-06
6.18698e-08
5.26557e-05
-5.77854e-06
-8.37468e-07
-3.90154e-06
5.16293e-06
4.61037e-06
7.44826e-08
-5.6863e-06
-3.04983e-06
-6.065e-05
5.97494e-05
-4.73787e-05
1.03013e-06
4.79698e-05
-2.90864e-06
1.01252e-06
3.29605e-07
-5.09086e-05
-2.61126e-07
5.11043e-05
-2.02323e-07
-5.08161e-05
-5.03754e-08
7.08025e-08
5.09181e-05
2.07167e-07
3.07287e-07
-2.33407e-07
-2.04539e-07
-7.1603e-08
6.21915e-08
2.27425e-07
2.6255e-07
-4.54416e-05
4.5948e-05
-4.70241e-05
7.06929e-08
4.71656e-05
2.47109e-07
6.30389e-08
1.32356e-11
-5.10994e-05
-1.22315e-07
5.11253e-05
1.67213e-07
-5.10995e-05
-1.22365e-07
-7.07416e-08
5.11253e-05
1.67265e-07
-3.87132e-13
-1.49516e-07
2.06277e-07
-1.49571e-07
-6.21526e-08
2.06337e-07
9.64511e-12
-4.84077e-05
4.83561e-05
-4.84082e-05
-7.06492e-08
4.83565e-05
-8.05509e-12
-6.29389e-08
-3.29419e-07
-5.08162e-05
-5.04945e-08
5.09182e-05
2.07248e-07
-5.09081e-05
-2.6118e-07
-6.19794e-08
5.11038e-05
-2.01912e-07
-3.07116e-07
-7.17365e-08
2.27525e-07
-2.3348e-07
-7.45878e-08
-2.04108e-07
-2.62418e-07
-4.70252e-05
4.71665e-05
-4.5442e-05
-1.02983e-06
4.59482e-05
-2.46956e-07
-1.01223e-06
9.07018e-07
-5.25162e-05
4.66907e-06
5.26543e-05
-5.77618e-06
-5.7372e-05
-3.94853e-06
5.69939e-05
5.23355e-06
8.36999e-07
4.60838e-06
-5.68399e-06
-3.89946e-06
5.16027e-06
3.0481e-06
-4.73769e-05
4.79681e-05
-6.06464e-05
5.9746e-05
2.90696e-06
-1.00406e-06
-5.66583e-05
-3.95202e-06
5.6354e-05
5.26037e-06
-5.27723e-05
4.67628e-06
3.28165e-08
5.28684e-05
-5.80932e-06
-9.50359e-07
-3.91017e-06
5.19772e-06
4.62709e-06
4.70907e-08
-5.74115e-06
-3.22268e-06
-5.89522e-05
5.82228e-05
-4.84615e-05
1.03141e-06
4.88836e-05
-3.11299e-06
1.02244e-06
3.57113e-07
-5.12856e-05
-3.15774e-07
5.14543e-05
-1.77279e-07
-5.1026e-05
-2.82911e-08
8.49223e-08
5.1138e-05
1.88468e-07
3.41586e-07
-2.86347e-07
-1.89425e-07
-3.61184e-08
7.74238e-08
1.92427e-07
2.82112e-07
-4.64135e-05
4.6847e-05
-4.73237e-05
8.27773e-08
4.74948e-05
2.70637e-07
7.63318e-08
2.37772e-11
-5.11664e-05
-7.86889e-08
5.12196e-05
1.10379e-07
-5.11664e-05
-7.87304e-08
-8.48399e-08
5.12196e-05
1.10415e-07
1.96659e-11
-9.74491e-08
1.3374e-07
-9.7495e-08
-7.73505e-08
1.33784e-07
2.36261e-11
-4.83349e-05
4.8339e-05
-4.83353e-05
-8.2702e-08
4.83393e-05
1.8705e-11
-7.6268e-08
-3.56917e-07
-5.10259e-05
-2.83815e-08
5.11379e-05
1.88507e-07
-5.1285e-05
-3.15793e-07
-3.2943e-08
5.14537e-05
-1.76905e-07
-3.41395e-07
-3.62226e-08
1.92489e-07
-2.86379e-07
-4.7207e-08
-1.8904e-07
-2.81955e-07
-4.73245e-05
4.74954e-05
-4.64135e-05
-1.03111e-06
4.68469e-05
-2.7049e-07
-1.02215e-06
1.00356e-06
-5.2771e-05
4.67422e-06
5.28672e-05
-5.80694e-06
-5.66568e-05
-3.95009e-06
5.63527e-05
5.25783e-06
9.4987e-07
4.62508e-06
-5.73882e-06
-3.9081e-06
5.19508e-06
3.22089e-06
-4.84598e-05
4.8882e-05
-5.89492e-05
5.822e-05
3.11125e-06
-1.07211e-06
-5.60781e-05
-3.94086e-06
5.58258e-05
5.26531e-06
-5.29487e-05
4.66101e-06
4.04145e-09
5.30121e-05
-5.80057e-06
-1.03069e-06
-3.90423e-06
5.2108e-06
4.62067e-06
1.80725e-08
-5.74967e-06
-3.33989e-06
-5.75729e-05
5.69719e-05
-4.92331e-05
1.02089e-06
4.95333e-05
-3.25431e-06
1.01691e-06
3.72944e-07
-5.16075e-05
-3.66093e-07
5.17474e-05
-1.4269e-07
-5.12487e-05
-2.49531e-08
9.61757e-08
5.1358e-05
1.92425e-07
3.62562e-07
-3.39024e-07
-1.58665e-07
-2.4745e-08
8.9979e-08
1.86626e-07
2.94356e-07
-4.72387e-05
4.75992e-05
-4.76693e-05
9.19455e-08
4.78468e-05
2.86144e-07
8.68447e-08
2.88639e-11
-5.1281e-05
-5.06409e-08
5.13479e-05
7.98555e-08
-5.12809e-05
-5.06748e-08
-9.60813e-08
5.13479e-05
7.98747e-08
2.6323e-11
-6.28646e-08
9.1444e-08
-6.29013e-08
-8.9891e-08
9.1471e-08
3.02641e-11
-4.83629e-05
4.84042e-05
-4.83632e-05
-9.18573e-08
4.84044e-05
2.69259e-11
-8.67632e-08
-3.72746e-07
-5.12485e-05
-2.50136e-08
5.13578e-05
1.92428e-07
-5.16069e-05
-3.66082e-07
-4.18421e-09
5.17467e-05
-1.42344e-07
-3.62367e-07
-2.48187e-08
1.86645e-07
-3.39024e-07
-1.82063e-08
-1.58311e-07
-2.94189e-07
-4.76698e-05
4.78471e-05
-4.72385e-05
-1.0206e-06
4.75988e-05
-2.85983e-07
-1.01663e-06
1.0716e-06
-5.29475e-05
4.65895e-06
5.30109e-05
-5.79819e-06
-5.60768e-05
-3.93895e-06
5.58246e-05
5.2628e-06
1.03019e-06
4.61864e-06
-5.74732e-06
-3.90218e-06
5.2082e-06
3.33806e-06
-4.92315e-05
4.95318e-05
-5.75703e-05
5.69694e-05
3.25253e-06
-1.11922e-06
-5.55926e-05
-3.92143e-06
5.53762e-05
5.25705e-06
-5.30631e-05
4.63108e-06
-2.22205e-08
5.30996e-05
-5.76455e-06
-1.08754e-06
-3.89104e-06
5.21176e-06
4.60051e-06
-9.34613e-09
-5.72977e-06
-3.41583e-06
-5.64313e-05
5.59257e-05
-4.97799e-05
1.00417e-06
4.9991e-05
-3.3504e-06
1.00351e-06
3.80409e-07
-5.18722e-05
-4.09161e-07
5.19835e-05
-1.04812e-07
-5.14619e-05
-3.2824e-08
1.04612e-07
5.15609e-05
2.09639e-07
3.73946e-07
-3.85525e-07
-1.22535e-07
-2.7635e-08
9.97863e-08
1.97903e-07
3.00999e-07
-4.79217e-05
4.82157e-05
-4.80201e-05
9.83776e-08
4.81899e-05
2.95467e-07
9.45804e-08
3.4917e-11
-5.14166e-05
-3.4298e-08
5.14863e-05
6.92168e-08
-5.14165e-05
-3.43231e-08
-1.04505e-07
5.14862e-05
6.92214e-08
3.10211e-11
-4.06706e-08
7.17161e-08
-4.06993e-08
-9.96873e-08
7.17272e-08
4.25521e-11
-4.84581e-05
4.85221e-05
-4.84582e-05
-9.8269e-08
4.85222e-05
3.40774e-11
-9.44856e-08
-3.80211e-07
-5.14616e-05
-3.28595e-08
5.15606e-05
2.09615e-07
-5.18715e-05
-4.09128e-07
2.20701e-08
5.19828e-05
-1.0449e-07
-3.73751e-07
-2.76813e-08
1.97891e-07
-3.85501e-07
9.19917e-09
-1.22206e-07
-3.00818e-07
-4.80202e-05
4.81899e-05
-4.79213e-05
-1.00389e-06
4.82152e-05
-2.95296e-07
-1.00323e-06
1.11872e-06
-5.30621e-05
4.62902e-06
5.30986e-05
-5.76218e-06
-5.55914e-05
-3.91954e-06
5.53751e-05
5.25457e-06
1.08704e-06
4.59847e-06
-5.72742e-06
-3.88901e-06
5.20919e-06
3.41399e-06
-4.97784e-05
4.99896e-05
-5.6429e-05
5.59235e-05
3.34859e-06
-1.15013e-06
-5.51722e-05
-3.89339e-06
5.49797e-05
5.23602e-06
-5.31262e-05
4.58652e-06
-4.50393e-08
5.31393e-05
-5.70476e-06
-1.12519e-06
-3.86561e-06
5.19477e-06
4.56153e-06
-3.36997e-08
-5.6796e-06
-3.45859e-06
-5.5467e-05
5.50322e-05
-5.01612e-05
9.83844e-07
5.03052e-05
-3.40688e-06
9.84505e-07
3.81895e-07
-5.20802e-05
-4.45022e-07
5.21635e-05
-6.5166e-08
-5.16515e-05
-4.81151e-08
1.10287e-07
5.17347e-05
2.36554e-07
3.77957e-07
-4.24474e-07
-8.39064e-08
-3.952e-08
1.06697e-07
2.20123e-07
3.03339e-07
-4.84761e-05
4.87116e-05
-4.83503e-05
1.02434e-07
4.85031e-05
2.9964e-07
9.96758e-08
7.6064e-11
-5.15535e-05
-2.84678e-08
5.16181e-05
7.41228e-08
-5.15535e-05
-2.84845e-08
-1.10125e-07
5.1618e-05
7.41009e-08
4.42371e-11
-2.99563e-08
6.93295e-08
-2.99771e-08
-1.06578e-07
6.93271e-08
1.06277e-10
-4.85918e-05
4.86656e-05
-4.85918e-05
-1.02223e-07
4.86657e-05
6.23472e-11
-9.95398e-08
-3.81724e-07
-5.16512e-05
-4.81271e-08
5.17345e-05
2.36454e-07
-5.20796e-05
-4.44941e-07
4.49676e-08
5.21635e-05
-6.56721e-08
-3.77761e-07
-3.9541e-08
2.20081e-07
-4.24424e-07
3.35593e-08
-8.36208e-08
-3.03089e-07
-4.83503e-05
4.8503e-05
-4.84756e-05
-9.8355e-07
4.87111e-05
-2.9944e-07
-9.84222e-07
1.14962e-06
-5.31252e-05
4.58446e-06
5.31386e-05
-5.70247e-06
-5.51712e-05
-3.89151e-06
5.49788e-05
5.23352e-06
1.12469e-06
4.5595e-06
-5.67728e-06
-3.86359e-06
5.19222e-06
3.45675e-06
-5.01598e-05
5.03039e-05
-5.54649e-05
5.50302e-05
3.40506e-06
-1.16868e-06
-5.47944e-05
-3.85861e-06
5.4616e-05
5.20567e-06
-5.31441e-05
4.52852e-06
-6.42415e-08
5.31356e-05
-5.62442e-06
-1.14989e-06
-3.83583e-06
5.17109e-06
4.51237e-06
-5.532e-08
-5.61177e-06
-3.47544e-06
-5.46333e-05
5.42501e-05
-5.0417e-05
9.61727e-07
5.05084e-05
-3.43696e-06
9.63616e-07
3.79203e-07
-5.22354e-05
-4.75778e-07
5.22934e-05
-2.56078e-08
-5.18083e-05
-6.76454e-08
1.13595e-07
5.18724e-05
2.69133e-07
3.78071e-07
-4.56604e-07
-4.87411e-08
-5.69985e-08
1.11347e-07
2.50181e-07
3.02429e-07
-4.89181e-05
4.91016e-05
-4.86438e-05
1.04494e-07
4.8774e-05
3.00473e-07
1.02798e-07
9.51283e-11
-5.16772e-05
-3.10493e-08
5.17305e-05
9.12801e-08
-5.1677e-05
-3.10588e-08
-1.13375e-07
5.17303e-05
9.12408e-08
1.95077e-10
-2.85776e-08
8.06198e-08
-2.86091e-08
-1.10707e-07
8.0511e-08
1.15229e-10
-4.87397e-05
4.8813e-05
-4.87396e-05
-1.04254e-07
4.88129e-05
1.71545e-10
-1.02371e-07
-3.78878e-07
-5.18077e-05
-6.76558e-08
5.18719e-05
2.68964e-07
-5.22342e-05
-4.75788e-07
6.39966e-08
5.22926e-05
-2.55312e-08
-3.76488e-07
-5.71503e-08
2.49696e-07
-4.57222e-07
5.37101e-08
-4.36707e-08
-3.02148e-07
-4.86435e-05
4.87737e-05
-4.89173e-05
-9.61457e-07
4.91009e-05
-2.99976e-07
-9.63456e-07
1.16813e-06
-5.3143e-05
4.52643e-06
5.31347e-05
-5.62219e-06
-5.47933e-05
-3.85677e-06
5.4615e-05
5.2032e-06
1.14898e-06
4.51017e-06
-5.60991e-06
-3.83387e-06
5.16838e-06
3.47359e-06
-5.04156e-05
5.0507e-05
-5.46313e-05
5.42481e-05
3.43505e-06
-1.17769e-06
-5.44401e-05
-3.81863e-06
5.42675e-05
5.16899e-06
-5.31188e-05
4.45815e-06
-7.91642e-08
5.30883e-05
-5.52616e-06
-1.16257e-06
-3.79692e-06
5.13534e-06
4.4467e-06
-7.13776e-08
-5.52108e-06
-3.47192e-06
-5.38948e-05
5.35481e-05
-5.05725e-05
9.39018e-07
5.06197e-05
-3.44156e-06
9.41004e-07
3.72853e-07
-5.23371e-05
-5.04195e-07
5.23681e-05
2.11441e-08
-5.19251e-05
-8.99019e-08
1.15038e-07
5.19668e-05
3.0605e-07
3.72561e-07
-4.86127e-07
-1.51395e-09
-7.7836e-08
1.13355e-07
2.8432e-07
2.99038e-07
-4.92585e-05
4.93943e-05
-4.88904e-05
1.04978e-07
4.89945e-05
2.98006e-07
1.03848e-07
4.17088e-11
-5.17756e-05
-4.04925e-08
5.18122e-05
1.18872e-07
-5.17754e-05
-4.04991e-08
-1.14921e-07
5.1812e-05
1.18852e-07
5.43047e-11
-3.46788e-08
1.02871e-07
-3.46869e-08
-1.13219e-07
1.0285e-07
5.04554e-11
-4.88821e-05
4.89466e-05
-4.8882e-05
-1.04858e-07
4.89464e-05
7.34438e-11
-1.03696e-07
-3.72653e-07
-5.19247e-05
-8.98914e-08
5.19663e-05
3.05965e-07
-5.23364e-05
-5.04181e-07
7.89844e-08
5.23675e-05
2.14538e-08
-3.72348e-07
-7.78276e-08
2.84225e-07
-4.86096e-07
7.12058e-08
-1.22354e-09
-2.9885e-07
-4.889e-05
4.89941e-05
-4.92577e-05
-9.38765e-07
4.93934e-05
-2.97794e-07
-9.4074e-07
1.17721e-06
-5.31179e-05
4.45609e-06
5.30874e-05
-5.52381e-06
-5.44391e-05
-3.81683e-06
5.42665e-05
5.16665e-06
1.16208e-06
4.44467e-06
-5.51879e-06
-3.79495e-06
5.13287e-06
3.47009e-06
-5.05712e-05
5.06184e-05
-5.38929e-05
5.35462e-05
3.43975e-06
-1.17985e-06
-5.40933e-05
-3.77699e-06
5.39186e-05
5.13154e-06
-5.30493e-05
4.37892e-06
-9.01552e-08
5.29951e-05
-5.41442e-06
-1.16765e-06
-3.75547e-06
5.09728e-06
4.37136e-06
-8.4307e-08
-5.41571e-06
-3.4522e-06
-5.32223e-05
5.28975e-05
-5.06429e-05
9.16353e-07
5.06533e-05
-3.42971e-06
9.18502e-07
3.63992e-07
-5.23862e-05
-5.33393e-07
5.23861e-05
7.93463e-08
-5.19957e-05
-1.14233e-07
1.15356e-07
5.20115e-05
3.47122e-07
3.65064e-07
-5.14251e-07
4.68147e-08
-1.00912e-07
1.14123e-07
3.22869e-07
2.94044e-07
-4.95048e-05
4.95937e-05
-4.90836e-05
1.04448e-07
4.91589e-05
2.93737e-07
1.03772e-07
3.65109e-11
-5.18383e-05
-5.57015e-08
5.18534e-05
1.55932e-07
-5.18382e-05
-5.57023e-08
-1.15251e-07
5.18533e-05
1.55908e-07
3.75608e-11
-4.69527e-08
1.34906e-07
-4.69554e-08
-1.14016e-07
1.34885e-07
3.82009e-11
-4.90033e-05
4.9052e-05
-4.90032e-05
-1.04348e-07
4.90519e-05
4.10923e-11
-1.03667e-07
-3.63795e-07
-5.19953e-05
-1.14214e-07
5.2011e-05
3.4703e-07
-5.23855e-05
-5.33396e-07
8.99631e-08
5.23853e-05
7.97572e-08
-3.64863e-07
-1.00896e-07
3.22778e-07
-5.14261e-07
8.4117e-08
4.73047e-08
-2.93872e-07
-4.90831e-05
4.91584e-05
-4.95039e-05
-9.16116e-07
4.95927e-05
-2.93562e-07
-9.18261e-07
1.17938e-06
-5.30484e-05
4.37686e-06
5.29942e-05
-5.41208e-06
-5.40924e-05
-3.77522e-06
5.39177e-05
5.12925e-06
1.16718e-06
4.36933e-06
-5.41341e-06
-3.75354e-06
5.09489e-06
3.45039e-06
-5.06416e-05
5.0652e-05
-5.32206e-05
5.28957e-05
3.42791e-06
-1.17521e-06
-5.37387e-05
-3.73093e-06
5.35551e-05
5.0898e-06
-5.29306e-05
4.28634e-06
-9.78917e-08
5.28501e-05
-5.28314e-06
-1.16622e-06
-3.71161e-06
5.0577e-06
4.28719e-06
-9.33327e-08
-5.29564e-06
-3.41835e-06
-5.25866e-05
5.22741e-05
-5.06443e-05
8.93538e-07
5.06187e-05
-3.40073e-06
8.95459e-07
3.53401e-07
-5.23707e-05
-5.60413e-07
5.2339e-05
1.40799e-07
-5.20129e-05
-1.41131e-07
1.14585e-07
5.19993e-05
3.93573e-07
3.5508e-07
-5.42258e-07
1.09258e-07
-1.26134e-07
1.13926e-07
3.65886e-07
2.87687e-07
-4.96589e-05
4.97043e-05
-4.92181e-05
1.03044e-07
4.92616e-05
2.88036e-07
1.02784e-07
3.52978e-11
-5.18559e-05
-7.65113e-08
5.18448e-05
2.02158e-07
-5.18558e-05
-7.65101e-08
-1.14483e-07
5.18447e-05
2.02132e-07
3.54272e-11
-6.47649e-08
1.7614e-07
-6.47645e-08
-1.13823e-07
1.76116e-07
3.59628e-11
-4.909e-05
4.91165e-05
-4.90898e-05
-1.0295e-07
4.91163e-05
3.63968e-11
-1.02689e-07
-3.53214e-07
-5.20124e-05
-1.41109e-07
5.19988e-05
3.93482e-07
-5.23699e-05
-5.60405e-07
9.77032e-08
5.23382e-05
1.41177e-07
-3.5489e-07
-1.26113e-07
3.65794e-07
-5.42251e-07
9.31442e-08
1.09639e-07
-2.87522e-07
-4.92174e-05
4.92609e-05
-4.96578e-05
-8.93308e-07
4.97032e-05
-2.8787e-07
-8.95228e-07
1.17475e-06
-5.29298e-05
4.28429e-06
5.28493e-05
-5.28082e-06
-5.37378e-05
-3.72919e-06
5.35542e-05
5.08756e-06
1.16576e-06
4.28517e-06
-5.29334e-06
-3.70971e-06
5.05536e-06
3.41656e-06
-5.06429e-05
5.06174e-05
-5.2585e-05
5.22723e-05
3.39895e-06
-1.16648e-06
-5.33632e-05
-3.68772e-06
5.31641e-05
5.05336e-06
-5.27588e-05
4.18588e-06
-1.03375e-07
5.26488e-05
-5.139e-06
-1.15974e-06
-3.66821e-06
5.01981e-06
4.19161e-06
-9.98303e-08
-5.16023e-06
-3.3779e-06
-5.1972e-05
5.16622e-05
-5.05701e-05
8.71933e-07
5.05061e-05
-3.36617e-06
8.7409e-07
3.42672e-07
-5.22918e-05
-5.87715e-07
5.22266e-05
2.06825e-07
-5.197e-05
-1.71372e-07
1.13007e-07
5.19235e-05
4.47502e-07
3.44567e-07
-5.68975e-07
1.71763e-07
-1.54388e-07
1.12746e-07
4.15489e-07
2.80811e-07
-4.97279e-05
4.97313e-05
-4.92876e-05
1.01088e-07
4.92959e-05
2.81508e-07
1.01132e-07
3.44543e-11
-5.18191e-05
-1.02921e-07
5.17771e-05
2.57879e-07
-5.18189e-05
-1.02918e-07
-1.12908e-07
5.1777e-05
2.57851e-07
3.45196e-11
-8.81959e-08
2.26616e-07
-8.81939e-08
-1.12646e-07
2.26589e-07
3.48899e-11
-4.91294e-05
4.91276e-05
-4.91292e-05
-1.00997e-07
4.91273e-05
3.50529e-11
-1.01041e-07
-3.42492e-07
-5.19695e-05
-1.71348e-07
5.1923e-05
4.47412e-07
-5.2291e-05
-5.87705e-07
1.03191e-07
5.22259e-05
2.07192e-07
-3.44386e-07
-1.54365e-07
4.15399e-07
-5.68963e-07
9.96457e-08
1.72128e-07
-2.8065e-07
-4.92868e-05
4.92952e-05
-4.97268e-05
-8.71705e-07
4.97301e-05
-2.81346e-07
-8.73864e-07
1.16603e-06
-5.2758e-05
4.18386e-06
5.2648e-05
-5.1367e-06
-5.33623e-05
-3.68602e-06
5.31632e-05
5.05117e-06
1.15928e-06
4.18961e-06
-5.15795e-06
-3.66635e-06
5.01751e-06
3.37613e-06
-5.05687e-05
5.05047e-05
-5.19704e-05
5.16605e-05
3.36441e-06
-1.15414e-06
-5.29533e-05
-3.64616e-06
5.27312e-05
5.02235e-06
-5.25263e-05
4.07662e-06
-1.0689e-07
5.23826e-05
-4.98019e-06
-1.14918e-06
-3.62629e-06
4.98625e-06
4.08796e-06
-1.04262e-07
-5.01037e-06
-3.32779e-06
-5.13566e-05
5.10382e-05
-5.04208e-05
8.50394e-07
5.03193e-05
-3.32065e-06
8.52599e-07
3.31902e-07
-5.21446e-05
-6.17092e-07
5.20422e-05
2.80663e-07
-5.18596e-05
-2.05349e-07
1.10839e-07
5.17759e-05
5.10117e-07
3.33901e-07
-5.96726e-07
2.40625e-07
-1.86082e-07
1.10876e-07
4.72995e-07
2.73528e-07
-4.97127e-05
4.96725e-05
-4.92853e-05
9.87898e-08
4.92547e-05
2.74463e-07
9.89686e-08
3.35606e-11
-5.17182e-05
-1.3495e-07
5.16402e-05
3.23774e-07
-5.1718e-05
-1.34946e-07
-1.10742e-07
5.164e-05
3.23745e-07
3.36773e-11
-1.1685e-07
2.86655e-07
-1.16846e-07
-1.10778e-07
2.86627e-07
3.39574e-11
-4.91096e-05
4.90734e-05
-4.91094e-05
-9.87017e-08
4.90732e-05
3.40823e-11
-9.88802e-08
-3.31729e-07
-5.18591e-05
-2.05323e-07
5.17754e-05
5.10029e-07
-5.21438e-05
-6.17083e-07
1.06711e-07
5.20414e-05
2.8102e-07
-3.33727e-07
-1.86056e-07
4.72906e-07
-5.96713e-07
1.04082e-07
2.40981e-07
-2.73372e-07
-4.92845e-05
4.92539e-05
-4.97115e-05
-8.50169e-07
4.96712e-05
-2.74306e-07
-8.52375e-07
1.1537e-06
-5.25254e-05
4.07462e-06
5.23818e-05
-4.97792e-06
-5.29524e-05
-3.64448e-06
5.27304e-05
5.0202e-06
1.14874e-06
4.08598e-06
-5.00812e-06
-3.62446e-06
4.98401e-06
3.32606e-06
-5.04194e-05
5.03178e-05
-5.1355e-05
5.10366e-05
3.31891e-06
-1.1389e-06
-5.24942e-05
-3.60839e-06
5.22422e-05
4.99932e-06
-5.22247e-05
3.95869e-06
-1.08668e-07
5.20427e-05
-4.80687e-06
-1.13549e-06
-3.58691e-06
4.95941e-06
3.97527e-06
-1.06846e-07
-4.84599e-06
-3.27155e-06
-5.07192e-05
5.03823e-05
-5.01951e-05
8.29451e-07
5.00528e-05
-3.26788e-06
8.31581e-07
3.21222e-07
-5.19213e-05
-6.50011e-07
5.17771e-05
3.64279e-07
-5.1673e-05
-2.44032e-07
1.08308e-07
5.15473e-05
5.82597e-07
3.23283e-07
-6.27698e-07
3.18483e-07
-2.22068e-07
1.08524e-07
5.39802e-07
2.66099e-07
-4.96092e-05
4.95225e-05
-4.92033e-05
9.62365e-08
4.91291e-05
2.67186e-07
9.65878e-08
3.23671e-11
-5.15429e-05
-1.72464e-07
5.14231e-05
4.00556e-07
-5.15427e-05
-1.7246e-07
-1.08214e-07
5.14229e-05
4.00529e-07
3.27351e-11
-1.51537e-07
3.57269e-07
-1.51534e-07
-1.08429e-07
3.57241e-07
3.28119e-11
-4.90185e-05
4.89422e-05
-4.90182e-05
-9.61514e-08
4.89419e-05
3.31322e-11
-9.65021e-08
-3.21056e-07
-5.16724e-05
-2.44003e-07
5.15467e-05
5.8251e-07
-5.19205e-05
-6.49977e-07
1.08497e-07
5.17763e-05
3.64593e-07
-3.23115e-07
-2.22041e-07
5.39715e-07
-6.27682e-07
1.06673e-07
3.18824e-07
-2.65947e-07
-4.92024e-05
4.91282e-05
-4.96078e-05
-8.29228e-07
4.95211e-05
-2.67034e-07
-8.3136e-07
1.13847e-06
-5.22238e-05
3.95673e-06
5.20418e-05
-4.80464e-06
-5.24933e-05
-3.60674e-06
5.22413e-05
4.99722e-06
1.13507e-06
3.97332e-06
-4.84378e-06
-3.58511e-06
4.95721e-06
3.26985e-06
-5.01936e-05
5.00513e-05
-5.07176e-05
5.03807e-05
3.26618e-06
-1.12107e-06
-5.19716e-05
-3.57433e-06
5.16819e-05
4.98516e-06
-5.18441e-05
3.83188e-06
-1.08969e-07
5.16181e-05
-4.618e-06
-1.11873e-06
-3.54997e-06
4.9393e-06
3.85309e-06
-1.07816e-07
-4.66541e-06
-3.20979e-06
-5.00408e-05
4.96763e-05
-4.98866e-05
8.08909e-07
4.96998e-05
-3.20845e-06
8.10827e-07
3.10692e-07
-5.16126e-05
-6.84259e-07
5.1422e-05
4.55108e-07
-5.14001e-05
-2.87178e-07
1.05338e-07
5.12269e-05
6.65698e-07
3.12675e-07
-6.60478e-07
4.04572e-07
-2.62346e-07
1.05772e-07
6.16495e-07
2.58555e-07
-4.94132e-05
4.92793e-05
-4.90325e-05
9.34961e-08
4.89104e-05
2.59679e-07
9.39232e-08
3.25149e-11
-5.12817e-05
-2.16522e-07
5.11144e-05
4.89104e-07
-5.12815e-05
-2.16519e-07
-1.05247e-07
5.11142e-05
4.89085e-07
3.06765e-11
-1.91719e-07
4.38874e-07
-1.91715e-07
-1.05682e-07
4.38846e-07
3.13297e-11
-4.88444e-05
4.87213e-05
-4.8844e-05
-9.34145e-08
4.8721e-05
3.16851e-11
-9.38407e-08
-3.10535e-07
-5.13995e-05
-2.87151e-07
5.12263e-05
6.65624e-07
-5.16117e-05
-6.84231e-07
1.088e-07
5.14212e-05
4.5542e-07
-3.12511e-07
-2.62317e-07
6.16406e-07
-6.60446e-07
1.0765e-07
4.04885e-07
-2.58408e-07
-4.90315e-05
4.89094e-05
-4.94118e-05
-8.0869e-07
4.92778e-05
-2.59531e-07
-8.10608e-07
1.12065e-06
-5.18432e-05
3.82996e-06
5.16172e-05
-4.61583e-06
-5.19707e-05
-3.57272e-06
5.1681e-05
4.9831e-06
1.11832e-06
3.85117e-06
-4.66323e-06
-3.54821e-06
4.93715e-06
3.20812e-06
-4.9885e-05
4.96982e-05
-5.00393e-05
4.96747e-05
3.20679e-06
-1.1014e-06
-5.13701e-05
-3.5467e-06
5.10348e-05
4.98337e-06
-5.1373e-05
3.69722e-06
-1.08071e-07
5.10971e-05
-4.41466e-06
-1.10037e-06
-3.52029e-06
4.93242e-06
3.7246e-06
-1.07516e-07
-4.4724e-06
-3.1444e-06
-4.93021e-05
4.88998e-05
-4.94873e-05
7.89017e-07
4.92511e-05
-3.14612e-06
7.90989e-07
3.00482e-07
-5.12088e-05
-7.24576e-07
5.09662e-05
5.58642e-07
-5.10298e-05
-3.36293e-07
1.02105e-07
5.08033e-05
7.61171e-07
3.0248e-07
-6.97372e-07
5.00584e-07
-3.07997e-07
1.02708e-07
7.0487e-07
2.51034e-07
-4.91206e-05
4.89341e-05
-4.87635e-05
9.06654e-08
4.85875e-05
2.52277e-07
9.11818e-08
3.11801e-11
-5.09229e-05
-2.67434e-07
5.07019e-05
5.9053e-07
-5.09227e-05
-2.67431e-07
-1.02019e-07
5.07017e-05
5.90513e-07
2.81421e-11
-2.38744e-07
5.32909e-07
-2.3874e-07
-1.02623e-07
5.3288e-07
2.93794e-11
-4.85737e-05
4.83969e-05
-4.85734e-05
-9.05879e-08
4.83965e-05
2.97348e-11
-9.11033e-08
-3.00332e-07
-5.10292e-05
-3.36266e-07
5.08026e-05
7.61101e-07
-5.1208e-05
-7.24549e-07
1.07907e-07
5.09653e-05
5.58943e-07
-3.0232e-07
-3.07968e-07
7.04777e-07
-6.97344e-07
1.07355e-07
5.00894e-07
-2.50892e-07
-4.87624e-05
4.85865e-05
-4.91191e-05
-7.88802e-07
4.89325e-05
-2.52133e-07
-7.90774e-07
1.101e-06
-5.13721e-05
3.69534e-06
5.10962e-05
-4.41253e-06
-5.13692e-05
-3.54512e-06
5.1034e-05
4.98136e-06
1.09997e-06
3.72272e-06
-4.47026e-06
-3.51856e-06
4.93032e-06
3.14278e-06
-4.94856e-05
4.92494e-05
-4.93006e-05
4.88983e-05
3.14449e-06
-1.08013e-06
-5.0674e-05
-3.52585e-06
5.02852e-05
4.99481e-06
-5.07995e-05
3.55452e-06
-1.06154e-07
5.04673e-05
-4.19622e-06
-1.08002e-06
-3.49606e-06
4.93687e-06
3.58712e-06
-1.06098e-07
-4.26344e-06
-3.0759e-06
-4.84834e-05
4.80334e-05
-4.8987e-05
7.69709e-07
4.86959e-05
-3.07963e-06
7.71554e-07
2.90547e-07
-5.06984e-05
-7.71039e-07
5.03974e-05
6.75319e-07
-5.05503e-05
-3.91822e-07
9.86741e-08
5.0264e-05
8.69962e-07
2.925e-07
-7.40289e-07
6.09525e-07
-3.59722e-07
9.94003e-08
8.0586e-07
2.43531e-07
-4.87205e-05
4.84756e-05
-4.83843e-05
8.7761e-08