/*--------------------------------*- C++ -*----------------------------------*\
  =========                 |
  \\      /  F ield         | OpenFOAM: The Open Source CFD Toolbox
   \\    /   O peration     | Website:  https://openfoam.org
    \\  /    A nd           | Version:  9
     \\/     M anipulation  |
\*---------------------------------------------------------------------------*/
FoamFile
{
    format      ascii;
    class       volVectorField;
    location    "4";
    object      U;
}
// * * * * * * * * * * * * * * * * * * * * * * * * * * * * * * * * * * * * * //

dimensions      [0 1 -1 0 0 0 0];

internalField   nonuniform List<vector> 
36360
(
(0.00518786 -0.127702 -0.495638)
(-0.00211362 -0.0902216 0.00025282)
(0.00586687 -0.133452 -0.498734)
(-0.00358886 -0.0825931 0.000170586)
(0.0045613 -0.153252 -0.500395)
(0.00282948 -0.0642218 -3.58584e-05)
(0.011115 -0.166849 -0.501586)
(0.000711654 -0.0621971 -1.69443e-05)
(0.00345159 -0.0946787 -0.000171347)
(0.00226307 -0.0987355 -9.73831e-06)
(0.00164801 -0.0934067 -0.000123385)
(0.000414413 -0.0975188 -5.88619e-06)
(0.0062141 -0.0903399 4.93568e-05)
(0.00460235 -0.103024 -4.53509e-06)
(0.00669731 -0.0978357 9.12669e-06)
(0.00598022 -0.108501 -7.45139e-06)
(0.00113097 -0.100804 3.68399e-07)
(0.00113111 -0.100805 -3.69704e-07)
(-0.000912636 -0.0993922 -3.88611e-08)
(-0.000912152 -0.0993936 3.70242e-08)
(0.00394817 -0.106424 -3.59697e-07)
(0.00394784 -0.106425 3.57805e-07)
(0.00587203 -0.110401 -1.86262e-06)
(0.00587168 -0.110403 1.86092e-06)
(0.00226271 -0.0987385 9.73683e-06)
(0.00345134 -0.0946819 0.000171316)
(0.000414369 -0.0975222 5.88472e-06)
(0.00164757 -0.0934103 0.000123362)
(0.00460155 -0.103028 4.53874e-06)
(0.00621352 -0.0903497 -4.92989e-05)
(0.00597964 -0.108505 7.4503e-06)
(0.00669704 -0.0978448 -9.10486e-06)
(-0.00211099 -0.0902209 -0.000252731)
(0.0051857 -0.127693 0.495641)
(-0.0035866 -0.0825934 -0.000170508)
(0.00586381 -0.133439 0.498736)
(0.00283145 -0.0642307 3.57808e-05)
(0.00455879 -0.153229 0.500396)
(0.000714651 -0.0622104 1.69001e-05)
(0.01111 -0.166819 0.501586)
(0.00782922 -0.123878 -0.492961)
(-0.00656547 -0.0931536 0.000134075)
(0.00691492 -0.126975 -0.494365)
(-0.00446591 -0.0910569 0.000194624)
(0.0048725 -0.145671 -0.500363)
(-0.00437087 -0.065191 -0.000245089)
(0.00411707 -0.149904 -0.500642)
(-0.000999248 -0.0621634 -0.000132072)
(0.00213453 -0.0943457 -5.56623e-05)
(0.00250128 -0.0981483 -2.97137e-06)
(0.00309793 -0.0942985 -0.000111949)
(0.00284639 -0.0985073 -8.6672e-06)
(0.00335272 -0.0821036 0.000261084)
(0.00267518 -0.095261 1.20366e-05)
(0.00488733 -0.0845287 0.000152692)
(0.00384581 -0.0981656 1.16669e-06)
(0.00223374 -0.10019 -1.4922e-06)
(0.00223369 -0.100191 1.4986e-06)
(0.00229358 -0.100619 -4.17827e-07)
(0.00229353 -0.10062 4.27464e-07)
(0.00245298 -0.0998491 -9.36593e-07)
(0.00245282 -0.0998508 9.42408e-07)
(0.0033289 -0.102574 -6.77446e-07)
(0.00332862 -0.102575 6.78386e-07)
(0.00250123 -0.0981507 2.99318e-06)
(0.00213529 -0.094348 5.56917e-05)
(0.00284617 -0.09851 8.66319e-06)
(0.00309824 -0.0943013 0.000111941)
(0.00267493 -0.0952665 -1.20062e-05)
(0.00335298 -0.0821124 -0.000260922)
(0.00384517 -0.0981709 -1.15435e-06)
(0.00488724 -0.0845383 -0.000152584)
(-0.00656185 -0.0931518 -0.000134093)
(0.007826 -0.12387 0.492965)
(-0.00446256 -0.0910557 -0.000194594)
(0.00691213 -0.126965 0.494369)
(-0.00436676 -0.0651949 0.000244849)
(0.00486869 -0.14565 0.500364)
(-0.000995741 -0.0621701 0.000131915)
(0.00411385 -0.149881 0.500643)
(0.00866705 -0.11876 -0.490544)
(-0.00862506 -0.095548 -1.01272e-05)
(0.00832189 -0.121075 -0.491699)
(-0.00783023 -0.094492 6.52573e-05)
(0.00565375 -0.136539 -0.499906)
(-0.00695166 -0.0725056 -0.000492475)
(0.00532671 -0.140917 -0.500119)
(-0.00607556 -0.0687929 -0.000366897)
(0.000681092 -0.094155 4.85896e-05)
(0.00146255 -0.0969411 3.33978e-05)
(0.00129536 -0.0941799 -1.0624e-06)
(0.00194539 -0.0975044 1.20761e-05)
(0.00175113 -0.0800226 0.000466294)
(0.00124225 -0.0912643 5.37763e-05)
(0.00235555 -0.0805516 0.000367682)
(0.0017886 -0.0928812 3.01794e-05)
(0.00138258 -0.0988327 2.78245e-06)
(0.0013826 -0.0988335 -2.75189e-06)
(0.0018028 -0.0995053 -3.06685e-07)
(0.00180279 -0.0995061 3.21527e-07)
(0.00109169 -0.0960404 3.3882e-06)
(0.00109169 -0.0960422 -3.35568e-06)
(0.00159548 -0.0976259 4.54213e-07)
(0.00159543 -0.0976277 -4.38715e-07)
(0.00146271 -0.0969431 -3.33284e-05)
(0.000681928 -0.0941563 -4.8522e-05)
(0.00194548 -0.0975066 -1.2033e-05)
(0.00129622 -0.0941817 1.11362e-06)
(0.00124236 -0.0912695 -5.36891e-05)
(0.00175148 -0.0800293 -0.000466034)
(0.00178859 -0.0928866 -3.01258e-05)
(0.00235589 -0.0805594 -0.000367468)
(-0.00862141 -0.0955454 1.00274e-05)
(0.00866324 -0.118754 0.49055)
(-0.00782661 -0.0944897 -6.53157e-05)
(0.00831821 -0.121068 0.491704)
(-0.00694767 -0.0725057 0.000492069)
(0.00564987 -0.136524 0.499907)
(-0.00607155 -0.0687946 0.000366575)
(0.00532269 -0.140899 0.50012)
(0.00916136 -0.115076 -0.488408)
(-0.00953882 -0.0972138 -0.000165801)
(0.00893158 -0.116782 -0.489401)
(-0.00915566 -0.0964443 -8.80239e-05)
(0.00605993 -0.128983 -0.499511)
(-0.00781947 -0.0791558 -0.000739686)
(0.00588124 -0.132569 -0.499697)
(-0.00747541 -0.0760097 -0.000617637)
(1.53721e-05 -0.0945614 0.000125554)
(0.000832033 -0.0962744 8.53934e-05)
(0.000277488 -0.0942928 9.10159e-05)
(0.00109789 -0.0965303 5.8378e-05)
(0.00119649 -0.080799 0.000630823)
(0.000644071 -0.0895463 0.000110399)
(0.00140408 -0.0802094 0.00055414)
(0.000891768 -0.0902154 8.10184e-05)
(0.000834684 -0.0978243 1.3339e-05)
(0.000834759 -0.097825 -1.32038e-05)
(0.00106396 -0.0982645 7.41237e-06)
(0.001064 -0.0982652 -7.35133e-06)
(0.000635097 -0.0940599 1.31978e-05)
(0.000635088 -0.0940615 -1.33374e-05)
(0.00080587 -0.0949086 7.7506e-06)
(0.000805879 -0.0949103 -7.70319e-06)
(0.0008323 -0.0962758 -8.5076e-05)
(1.6009e-05 -0.0945617 -0.00012558)
(0.00109808 -0.096532 -5.82618e-05)
(0.000278214 -0.0942937 -9.09338e-05)
(0.000644442 -0.0895508 -0.00010993)
(0.00119674 -0.0808035 -0.000630201)
(0.000891944 -0.0902202 -8.08664e-05)
(0.00140435 -0.0802152 -0.00055381)
(-0.0095351 -0.0972109 0.000165559)
(0.00915716 -0.11507 0.488416)
(-0.009152 -0.0964415 8.78786e-05)
(0.00892744 -0.116777 0.489408)
(-0.00781561 -0.0791539 0.000738935)
(0.00605603 -0.128971 0.499512)
(-0.0074715 -0.0760086 0.000617146)
(0.00587716 -0.132555 0.499698)
(0.00954567 -0.11233 -0.486553)
(-0.010072 -0.0984289 -0.000312572)
(0.00935986 -0.113606 -0.487406)
(-0.00983121 -0.0978706 -0.000240928)
(0.0062965 -0.122931 -0.499162)
(-0.0082398 -0.0842589 -0.000967102)
(0.00618054 -0.125782 -0.499326)
(-0.00804867 -0.0818998 -0.000856198)
(-0.000276799 -0.0953166 0.000173335)
(0.000498038 -0.0961316 0.000138028)
(-0.000160811 -0.0949201 0.000152787)
(0.000638877 -0.0961521 0.000112058)
(0.00112576 -0.0826782 0.000751774)
(0.000309596 -0.0889782 0.00017024)
(0.00110971 -0.0816671 0.000696033)
(0.000455408 -0.0891581 0.000139918)
(0.000539403 -0.0972863 2.76632e-05)
(0.000539816 -0.0972867 -2.76769e-05)
(0.000667012 -0.0975049 2.01908e-05)
(0.000667071 -0.0975055 -2.00977e-05)
(0.000441771 -0.0929094 2.6433e-05)
(0.000442157 -0.0929112 -2.72288e-05)
(0.000523922 -0.0934105 1.99387e-05)
(0.000523947 -0.0934117 -1.95168e-05)
(0.000498254 -0.0961324 -0.000137713)
(-0.000276433 -0.0953162 -0.000173146)
(0.000638994 -0.0961531 -0.000111985)
(-0.000159906 -0.0949201 -0.000152671)
(0.000309869 -0.0889814 -0.000167942)
(0.00112509 -0.0826805 -0.000751)
(0.000455547 -0.0891622 -0.000139916)
(0.00110963 -0.0816711 -0.000695996)
(-0.0100682 -0.0984259 0.000312207)
(0.00954118 -0.112326 0.486562)
(-0.00982734 -0.0978677 0.00024073)
(0.00935539 -0.113601 0.487414)
(-0.00823607 -0.0842556 0.000965334)
(0.00629261 -0.122921 0.499163)
(-0.00804485 -0.0818974 0.000855725)
(0.00617643 -0.125771 0.499327)
(0.00987278 -0.110247 -0.484943)
(-0.0104477 -0.0992993 -0.000443349)
(0.00971208 -0.111221 -0.48567)
(-0.010271 -0.0989003 -0.000380036)
(0.00647268 -0.118146 -0.498854)
(-0.00853408 -0.0879604 -0.00116563)
(0.00637839 -0.1204 -0.498996)
(-0.00838519 -0.0862632 -0.00106898)
(-0.000354743 -0.0961364 0.000197981)
(0.000331272 -0.0963039 0.000185125)
(-0.000336799 -0.0957255 0.000187953)
(0.000398844 -0.0961887 0.000162249)
(0.00125251 -0.084814 0.000836083)
(0.000100624 -0.0890493 0.000222998)
(0.00118218 -0.0837431 0.000797832)
(0.000193652 -0.0889538 0.00019535)
(0.000357316 -0.0970845 4.32791e-05)
(0.000357514 -0.0970848 -4.32979e-05)
(0.000439679 -0.0971512 3.54334e-05)
(0.000439311 -0.0971516 -3.55336e-05)
(0.000315447 -0.0922416 4.16006e-05)
(0.00031565 -0.0922424 -4.18237e-05)
(0.000375217 -0.0925259 3.43897e-05)
(0.000374846 -0.0925274 -3.4118e-05)
(0.000331428 -0.0963044 -0.000185026)
(-0.00035406 -0.0961359 -0.000197999)
(0.000399405 -0.0961893 -0.000162485)
(-0.000335312 -0.095725 -0.000188068)
(0.000100922 -0.0890524 -0.000222451)
(0.00125209 -0.0848162 -0.000835895)
(0.000194296 -0.088957 -0.000198379)
(0.00118246 -0.0837449 -0.000797394)
(-0.0104435 -0.0992966 0.000442971)
(0.00986823 -0.110244 0.484953)
(-0.0102666 -0.0988974 0.000379865)
(0.00970757 -0.111217 0.485681)
(-0.00853013 -0.0879575 0.00116455)
(0.0064689 -0.118139 0.498856)
(-0.00838109 -0.0862599 0.00106962)
(0.0063744 -0.120391 0.498999)
(0.0101548 -0.108633 -0.483542)
(-0.0107456 -0.0999228 -0.000556087)
(0.0100156 -0.109391 -0.484162)
(-0.0106028 -0.0996366 -0.000501958)
(0.00662046 -0.114348 -0.498583)
(-0.00878953 -0.0906051 -0.00133511)
(0.00653759 -0.116141 -0.498707)
(-0.00865532 -0.089393 -0.00125388)
(-0.000309054 -0.0969179 0.000206957)
(0.000263572 -0.0966442 0.000224152)
(-0.000339803 -0.0965363 0.000204055)
(0.000288604 -0.0964602 0.000205722)
(0.00141371 -0.0868389 0.000893379)
(-3.04763e-05 -0.0894767 0.000267676)
(0.00133371 -0.0858523 0.000867633)
(2.72047e-05 -0.0892314 0.000246421)
(0.000232725 -0.0971053 5.80359e-05)
(0.000232809 -0.0971055 -5.79552e-05)
(0.00028939 -0.0970731 5.0873e-05)
(0.000289483 -0.0970734 -5.08227e-05)
(0.000215921 -0.0919129 5.59394e-05)
(0.000216025 -0.0919139 -5.58638e-05)
(0.00026285 -0.0920405 4.90018e-05)
(0.000262955 -0.0920417 -4.8971e-05)
(0.000263691 -0.0966444 -0.000224006)
(-0.000308414 -0.096917 -0.000206939)
(0.000288755 -0.0964605 -0.000205599)
(-0.000339127 -0.0965355 -0.000204045)
(-3.01397e-05 -0.0894787 -0.000267488)
(0.00141322 -0.0868396 -0.000893049)
(2.75407e-05 -0.0892338 -0.000246253)
(0.00133327 -0.0858534 -0.000867316)
(-0.0107412 -0.0999203 0.000555696)
(0.01015 -0.108629 0.483552)
(-0.0105985 -0.099634 0.000501579)
(0.0100107 -0.109388 0.484173)
(-0.00878549 -0.0906019 0.00133417)
(0.0066167 -0.114341 0.498585)
(-0.00865136 -0.0893897 0.00125296)
(0.0065335 -0.116133 0.498709)
(0.0103987 -0.107349 -0.482322)
(-0.0109827 -0.100365 -0.000651301)
(0.0102779 -0.107957 -0.482854)
(-0.0108687 -0.100163 -0.000605757)
(0.00674889 -0.111295 -0.498346)
(-0.00901169 -0.0924943 -0.00147729)
(0.00667482 -0.112742 -0.498454)
(-0.00889384 -0.0916286 -0.00140941)
(-0.000221004 -0.0976089 0.000205868)
(0.000251136 -0.0970555 0.000254426)
(-0.000266871 -0.097276 0.000207379)
(0.000252496 -0.0968452 0.000240331)
(0.00156828 -0.0886135 0.00093085)
(-0.000104436 -0.0900785 0.000303052)
(0.00149467 -0.0877599 0.000914152)
(-7.33439e-05 -0.0897633 0.000286517)
(0.000148477 -0.0972623 7.05917e-05)
(0.000148544 -0.0972623 -7.0483e-05)
(0.000186232 -0.097171 6.46262e-05)
(0.000186308 -0.0971711 -6.45285e-05)
(0.000136533 -0.0918328 6.82652e-05)
(0.000136637 -0.0918335 -6.8156e-05)
(0.000174261 -0.0918463 6.23824e-05)
(0.000174364 -0.0918471 -6.22853e-05)
(0.000251191 -0.0970554 -0.000254257)
(-0.000220415 -0.0976077 -0.000205853)
(0.000252584 -0.0968452 -0.000240171)
(-0.000266265 -0.0972749 -0.00020736)
(-0.000104118 -0.0900797 -0.000302843)
(0.00156769 -0.0886135 -0.000930508)
(-7.3013e-05 -0.0897649 -0.000286317)
(0.00149413 -0.0877601 -0.000913813)
(-0.0109781 -0.100363 0.000650879)
(0.0103939 -0.107347 0.482334)
(-0.0108642 -0.100161 0.00060535)
(0.0102729 -0.107954 0.482865)
(-0.00900757 -0.0924912 0.00147628)
(0.00674515 -0.11129 0.498348)
(-0.00888979 -0.0916253 0.00140843)
(0.00667072 -0.112736 0.498456)
(0.0106085 -0.1063 -0.481251)
(-0.0111696 -0.100668 -0.00073069)
(0.0105039 -0.106801 -0.481705)
(-0.0110794 -0.100532 -0.000692789)
(0.00685878 -0.108804 -0.498139)
(-0.00919958 -0.0938399 -0.00159508)
(0.00679276 -0.10999 -0.498231)
(-0.00909781 -0.093224 -0.00153897)
(-0.000120117 -0.0981931 0.000198899)
(0.000271016 -0.0974781 0.000276762)
(-0.000170367 -0.0979145 0.000202928)
(0.000258295 -0.0972681 0.000266467)
(0.00170133 -0.0901095 0.000954368)
(-0.000135166 -0.0907435 0.000329656)
(0.00163956 -0.0893952 0.000944022)
(-0.000124075 -0.0904075 0.000317366)
(9.74206e-05 -0.0974959 8.05204e-05)
(9.7463e-05 -0.0974958 -8.03951e-05)
(0.000119069 -0.0973726 7.58629e-05)
(0.000119124 -0.0973726 -7.57453e-05)
(7.49004e-05 -0.0919253 7.82367e-05)
(7.49876e-05 -0.0919257 -7.81089e-05)
(0.000102239 -0.0918611 7.35516e-05)
(0.000102335 -0.0918616 -7.34327e-05)
(0.000271009 -0.0974777 -0.00027658)
(-0.000119561 -0.0981919 -0.000198892)
(0.000258318 -0.0972678 -0.00026629)
(-0.000169802 -0.0979133 -0.000202917)
(-0.000134906 -0.0907441 -0.000329432)
(0.00170065 -0.0901089 -0.000954023)
(-0.000123785 -0.0904084 -0.000317149)
(0.00163892 -0.0893949 -0.000943679)
(-0.0111649 -0.100666 0.000730243)
(0.0106036 -0.106298 0.481263)
(-0.0110748 -0.10053 0.000692355)
(0.0104988 -0.106798 0.481717)
(-0.00919538 -0.0938369 0.00159402)
(0.00685504 -0.108799 0.498141)
(-0.00909368 -0.0932209 0.00153794)
(0.00678864 -0.109984 0.498233)
(0.0107892 -0.105415 -0.480311)
(-0.0113137 -0.100859 -0.000796414)
(0.0106986 -0.105841 -0.480702)
(-0.0112441 -0.100776 -0.000765069)
(0.00695199 -0.10673 -0.497958)
(-0.00935489 -0.0947914 -0.00169189)
(0.00689407 -0.107722 -0.498037)
(-0.00926904 -0.0943572 -0.00164586)
(-1.54408e-05 -0.0986687 0.000188837)
(0.000310779 -0.0978747 0.000292538)
(-6.72076e-05 -0.0984442 0.000194136)
(0.000289072 -0.0976812 0.000285357)
(0.00180872 -0.091342 0.000968219)
(-0.000135913 -0.0914039 0.000348834)
(0.00175987 -0.0907564 0.000962259)
(-0.000138192 -0.0910768 0.00034007)
(7.57298e-05 -0.0977583 8.79603e-05)
(7.57469e-05 -0.0977581 -8.78175e-05)
(8.32752e-05 -0.0976258 8.45284e-05)
(8.33041e-05 -0.0976257 -8.43954e-05)
(3.6771e-05 -0.0921305 8.5854e-05)
(3.68453e-05 -0.0921307 -8.5699e-05)
(5.37101e-05 -0.0920166 8.23225e-05)
(5.3789e-05 -0.092017 -8.21841e-05)
(0.000310719 -0.0978742 -0.000292343)
(-1.48964e-05 -0.0986674 -0.000188833)
(0.000289036 -0.0976807 -0.000285169)
(-6.66647e-05 -0.0984429 -0.000194132)
(-0.000135713 -0.0914041 -0.000348587)
(0.00180796 -0.0913411 -0.000967865)
(-0.000137965 -0.0910772 -0.000339837)
(0.00175914 -0.0907556 -0.000961912)
(-0.0113089 -0.100857 0.000795954)
(0.0107842 -0.105413 0.480324)
(-0.0112394 -0.100774 0.000764614)
(0.0106934 -0.105839 0.480715)
(-0.00935062 -0.0947886 0.0016908)
(0.00694827 -0.106726 0.49796)
(-0.00926484 -0.0943543 0.00164478)
(0.00688994 -0.107718 0.498039)
(0.0109447 -0.104641 -0.479479)
(-0.0114204 -0.100957 -0.000850515)
(0.0108658 -0.105017 -0.479811)
(-0.011369 -0.100919 -0.000824719)
(0.00702869 -0.104968 -0.497799)
(-0.00947821 -0.0954504 -0.00177081)
(0.00697757 -0.105816 -0.497867)
(-0.00940721 -0.095152 -0.00173335)
(9.16345e-05 -0.0990373 0.000177513)
(0.000365377 -0.0982208 0.000303114)
(3.90339e-05 -0.0988661 0.000183265)
(0.00033688 -0.0980552 0.000298355)
(0.00189142 -0.0923382 0.00097545)
(-0.000118103 -0.092016 0.000362074)
(0.0018548 -0.0918671 0.000972481)
(-0.000128335 -0.0917175 0.000356092)
(7.90412e-05 -0.0980151 9.32165e-05)
(7.90211e-05 -0.098015 -9.29806e-05)
(7.45999e-05 -0.0978891 9.08134e-05)
(7.46043e-05 -0.0978889 -9.06496e-05)
(1.29013e-05 -0.0923959 9.14347e-05)
(1.2975e-05 -0.092396 -9.11395e-05)
(2.34832e-05 -0.0922581 8.88658e-05)
(2.3556e-05 -0.0922582 -8.86722e-05)
(0.000365217 -0.0982203 -0.000302894)
(9.21196e-05 -0.0990367 -0.000177473)
(0.000336789 -0.0980546 -0.000298148)
(3.95619e-05 -0.0988648 -0.000183254)
(-0.00011796 -0.0920159 -0.000361737)
(0.00189057 -0.0923373 -0.000975046)
(-0.000128166 -0.0917175 -0.000355819)
(0.00185399 -0.0918662 -0.000972109)
(-0.0114155 -0.100955 0.000850099)
(0.0109395 -0.10464 0.479492)
(-0.0113641 -0.100917 0.000824266)
(0.0108605 -0.105015 0.479823)
(-0.00947386 -0.0954479 0.0017697)
(0.00702497 -0.104965 0.497801)
(-0.00940295 -0.0951493 0.00173225)
(0.00697343 -0.105812 0.497869)
(0.0110794 -0.103939 -0.478737)
(-0.0114928 -0.100971 -0.000894897)
(0.0110106 -0.104284 -0.479026)
(-0.0114576 -0.100974 -0.000874466)
(0.00709178 -0.103436 -0.49766)
(-0.00956957 -0.0958857 -0.00183464)
(0.00704711 -0.104178 -0.497719)
(-0.00951459 -0.0956925 -0.00180449)
(0.000192727 -0.0993082 0.000165994)
(0.000428673 -0.0985014 0.000309735)
(0.000145512 -0.0991846 0.000171811)
(0.000396691 -0.0983699 0.000307591)
(0.00196445 -0.0931278 0.000978131)
(-8.95194e-05 -0.0925529 0.000370625)
(0.00192818 -0.0927569 0.00097724)
(-0.000104713 -0.0922945 0.000366965)
(0.000103473 -0.0982407 9.66866e-05)
(0.000103428 -0.0982404 -9.63844e-05)
(8.89338e-05 -0.0981332 9.53458e-05)
(8.88456e-05 -0.098133 -9.46501e-05)
(-9.50381e-07 -0.0926781 9.52478e-05)
(-8.88329e-07 -0.092678 -9.49059e-05)
(4.91835e-06 -0.0925368 9.3643e-05)
(5.00351e-06 -0.0925367 -9.30983e-05)
(0.000428423 -0.0985005 -0.000309338)
(0.000193019 -0.0993063 -0.000165941)
(0.000396235 -0.0983692 -0.000305841)
(0.000145175 -0.0991834 -0.000171631)
(-8.93938e-05 -0.0925523 -0.000370247)
(0.00196378 -0.0931264 -0.000977719)
(-0.000104509 -0.0922942 -0.000366387)
(0.0019279 -0.0927558 -0.000976803)
(-0.0114878 -0.100969 0.000894319)
(0.0110742 -0.103937 0.478751)
(-0.011453 -0.100972 0.00087263)
(0.0110051 -0.104282 0.479039)
(-0.0095651 -0.0958831 0.00183348)
(0.00708806 -0.103432 0.497662)
(-0.00951011 -0.0956899 0.00180321)
(0.00704298 -0.104174 0.49772)
(0.0111981 -0.103273 -0.47807)
(-0.0115343 -0.100902 -0.000930495)
(0.0111363 -0.103603 -0.478315)
(-0.0115144 -0.100946 -0.000913541)
(0.00714273 -0.10207 -0.497537)
(-0.0096281 -0.096139 -0.00188561)
(0.00710281 -0.102736 -0.497587)
(-0.0095884 -0.0960328 -0.00186153)
(0.000278796 -0.0994763 0.000154952)
(0.000497531 -0.0987028 0.000312802)
(0.000238196 -0.0994048 0.000160392)
(0.000462633 -0.0986125 0.000311535)
(0.00204369 -0.0937287 0.000977708)
(-5.30146e-05 -0.0929972 0.000375489)
(0.00200525 -0.0934502 0.000978197)
(-7.18188e-05 -0.0927868 0.000373426)
(0.000146176 -0.098413 9.8696e-05)
(0.00014614 -0.0984127 -9.85279e-05)
(0.000122735 -0.0983346 9.78013e-05)
(0.000122701 -0.0983343 -9.76063e-05)
(-6.04527e-06 -0.0929416 9.76156e-05)
(-5.98544e-06 -0.0929414 -9.74304e-05)
(-4.5146e-06 -0.0928135 9.65581e-05)
(-4.4516e-06 -0.0928133 -9.63288e-05)
(0.000497331 -0.098702 -0.000312584)
(0.000279135 -0.0994751 -0.000154965)
(0.000462433 -0.0986117 -0.000311291)
(0.000238559 -0.0994035 -0.000160387)
(-5.28996e-05 -0.0929964 -0.000375217)
(0.00204314 -0.0937272 -0.000977351)
(-7.17054e-05 -0.0927861 -0.000373125)
(0.0020046 -0.0934488 -0.000977819)
(-0.0115292 -0.1009 0.000930002)
(0.011193 -0.103271 0.478084)
(-0.0115094 -0.100945 0.000913053)
(0.0111309 -0.103601 0.478328)
(-0.00962354 -0.0961365 0.00188443)
(0.00713901 -0.102066 0.497539)
(-0.00958393 -0.0960302 0.00186038)
(0.00709864 -0.102732 0.497589)
(0.0113066 -0.102614 -0.477473)
(-0.0115474 -0.100748 -0.000958635)
(0.0112491 -0.102944 -0.477678)
(-0.0115415 -0.100836 -0.000945399)
(0.00718451 -0.100815 -0.497429)
(-0.00965249 -0.0962381 -0.00192386)
(0.00714818 -0.101432 -0.497471)
(-0.0096303 -0.0962058 -0.00190685)
(0.000348468 -0.0995406 0.000144819)
(0.000571283 -0.0988135 0.000313247)
(0.000316744 -0.099523 0.000149784)
(0.000533899 -0.0987703 0.000313355)
(0.0021414 -0.094152 0.000975268)
(-9.9042e-06 -0.0933376 0.000377646)
(0.00209297 -0.0939621 0.000976658)
(-3.18765e-05 -0.0931805 0.000376854)
(0.000205488 -0.098513 9.97591e-05)
(0.000205439 -0.0985127 -9.96019e-05)
(0.000173803 -0.098473 9.9322e-05)
(0.000173759 -0.0984727 -9.91619e-05)
(-2.48416e-06 -0.0931582 9.90309e-05)
(-2.43377e-06 -0.0931579 -9.88679e-05)
(-5.34419e-06 -0.0930568 9.8428e-05)
(-5.29078e-06 -0.0930565 -9.82588e-05)
(0.000571049 -0.0988126 -0.000313037)
(0.000348696 -0.0995392 -0.000144846)
(0.00053367 -0.0987695 -0.00031314)
(0.000316963 -0.0995217 -0.000149807)
(-9.7994e-06 -0.0933365 -0.000377392)
(0.00214098 -0.0941502 -0.000974926)
(-3.17628e-05 -0.0931795 -0.000376595)
(0.00209259 -0.0939604 -0.000976311)
(-0.0115423 -0.100747 0.000958131)
(0.0113014 -0.102612 0.477487)
(-0.0115364 -0.100835 0.000944897)
(0.0112437 -0.102943 0.477693)
(-0.00964788 -0.0962356 0.00192266)
(0.0071808 -0.100811 0.497432)
(-0.00962574 -0.0962033 0.00190566)
(0.007144 -0.101429 0.497473)
(0.0114101 -0.101933 -0.476918)
(-0.0115304 -0.100499 -0.000980573)
(0.0113541 -0.102278 -0.4771)
(-0.0115398 -0.100636 -0.000970141)
(0.00721906 -0.0996208 -0.497332)
(-0.00965387 -0.0962077 -0.00195442)
(0.00718494 -0.100212 -0.497369)
(-0.0096409 -0.0962383 -0.00193858)
(0.000419806 -0.0994818 0.000135764)
(0.000654969 -0.0988189 0.000311898)
(0.000383533 -0.099526 0.000140154)
(0.000611771 -0.0988299 0.000312662)
(0.00223221 -0.0944039 0.000971374)
(3.80543e-05 -0.0935635 0.000377844)
(0.00219028 -0.094298 0.000973452)
(1.37863e-05 -0.0934651 0.000377932)
(0.000281986 -0.0985227 0.000100065)
(0.000281931 -0.0985223 -9.99097e-05)
(0.000241585 -0.09853 9.99744e-05)
(0.000241533 -0.0985297 -9.98184e-05)
(1.10508e-05 -0.093303 9.96877e-05)
(1.10973e-05 -0.0933026 -9.95285e-05)
(2.99504e-06 -0.0932405 9.94394e-05)
(3.04337e-06 -0.0932402 -9.9279e-05)
(0.000654736 -0.098818 -0.000311694)
(0.0004201 -0.0994803 -0.000135796)
(0.000611536 -0.098829 -0.000312455)
(0.000383791 -0.0995246 -0.000140184)
(3.81378e-05 -0.0935623 -0.000377593)
(0.00223168 -0.0944019 -0.000971034)
(1.38794e-05 -0.0934639 -0.00037768)
(0.0021898 -0.0942961 -0.000973112)
(-0.0115251 -0.100497 0.00098007)
(0.0114049 -0.101931 0.476933)
(-0.0115346 -0.100634 0.000969638)
(0.0113486 -0.102276 0.477115)
(-0.00964923 -0.0962051 0.00195321)
(0.00721534 -0.0996175 0.497335)
(-0.00963631 -0.0962358 0.00193738)
(0.00718076 -0.100209 0.497371)
(0.0115158 -0.101207 -0.476413)
(-0.0114812 -0.100145 -0.000997607)
(0.0114582 -0.101577 -0.476569)
(-0.0115068 -0.100336 -0.000989525)
(0.00725218 -0.0984572 -0.497246)
(-0.00963511 -0.09603 -0.00197968)
(0.0072188 -0.0990374 -0.497277)
(-0.00963277 -0.0961367 -0.00196845)
(0.000505782 -0.099301 0.000127875)
(0.000752698 -0.0987073 0.000309644)
(0.000461736 -0.0994071 0.000131704)
(0.000702136 -0.0987785 0.000310815)
(0.00231434 -0.0944953 0.000966512)
(9.04685e-05 -0.0936629 0.000376701)
(0.002276 -0.094469 0.000968997)
(6.39154e-05 -0.0936294 0.000377404)
(0.00037659 -0.0984246 9.98451e-05)
(0.00037653 -0.0984243 -9.9691e-05)
(0.000327033 -0.0984881 9.99907e-05)
(0.000326975 -0.0984878 -9.98359e-05)
(3.58346e-05 -0.0933514 9.96892e-05)
(3.58737e-05 -0.093351 -9.95317e-05)
(2.20584e-05 -0.0933405 9.97884e-05)
(2.21023e-05 -0.0933401 -9.963e-05)
(0.000752468 -0.0987063 -0.000309443)
(0.000506131 -0.0992996 -0.000127908)
(0.000701903 -0.0987775 -0.000310612)
(0.000462055 -0.0994056 -0.000131736)
(9.05314e-05 -0.0936615 -0.000376452)
(0.00231376 -0.0944931 -0.000966172)
(6.39868e-05 -0.0936281 -0.000377154)
(0.00227544 -0.0944669 -0.000968658)
(-0.0114758 -0.100143 0.000997107)
(0.0115106 -0.101205 0.476428)
(-0.0115015 -0.100334 0.000989024)
(0.0114528 -0.101575 0.476584)
(-0.00963043 -0.0960274 0.00197846)
(0.00724846 -0.0984541 0.497248)
(-0.00962815 -0.0961341 0.00196724)
(0.0072146 -0.0990342 0.497279)
(0.0116271 -0.100408 -0.475945)
(-0.0113979 -0.0996728 -0.00101045)
(0.0115663 -0.100818 -0.476079)
(-0.0114409 -0.0999246 -0.00100437)
(0.00728271 -0.0972816 -0.497168)
(-0.00958899 -0.0957121 -0.00199616)
(0.00725052 -0.097873 -0.497194)
(-0.00959914 -0.0958887 -0.00198862)
(0.000610519 -0.0989872 0.000121122)
(0.000867622 -0.0984636 0.000306783)
(0.000556402 -0.0991615 0.000124377)
(0.000807947 -0.0986029 0.000308229)
(0.00239291 -0.0944263 0.000961106)
(0.000147203 -0.0936232 0.000374483)
(0.00235555 -0.0944811 0.000963831)
(0.000118384 -0.0936608 0.000375648)
(0.000491713 -0.0982 9.92684e-05)
(0.000491649 -0.0981996 -9.91158e-05)
(0.000431364 -0.0983292 9.95793e-05)
(0.000431302 -0.0983289 -9.94258e-05)
(7.26872e-05 -0.0932832 9.94074e-05)
(7.27204e-05 -0.0932827 -9.92515e-05)
(5.16756e-05 -0.0933341 9.95379e-05)
(5.17122e-05 -0.0933336 -9.93813e-05)
(0.000867396 -0.0984625 -0.000306584)
(0.000610911 -0.0989857 -0.000121155)
(0.000807718 -0.0986018 -0.000308029)
(0.00055677 -0.09916 -0.00012441)
(0.000147247 -0.0936216 -0.000374236)
(0.00239229 -0.0944238 -0.000960766)
(0.000118432 -0.0936593 -0.0003754)
(0.00235494 -0.0944788 -0.000963491)
(-0.0113926 -0.0996711 0.00100995)
(0.0116219 -0.100406 0.475961)
(-0.0114356 -0.099923 0.00100387)
(0.0115608 -0.100816 0.476095)
(-0.00958429 -0.0957094 0.00199494)
(0.007279 -0.0972785 0.49717)
(-0.0095945 -0.095886 0.0019874)
(0.00724631 -0.0978699 0.497197)
(0.0117499 -0.099509 -0.475507)
(-0.011281 -0.0990644 -0.00101958)
(0.0116828 -0.0999726 -0.475624)
(-0.0113404 -0.0993866 -0.0010153)
(0.00731534 -0.0960547 -0.497097)
(-0.00951817 -0.0952454 -0.00200691)
(0.00728127 -0.0966769 -0.49712)
(-0.00953961 -0.0954976 -0.00200214)
(0.000737033 -0.0985245 0.000115475)
(0.00100225 -0.0980704 0.000303507)
(0.00067248 -0.0987756 0.000118195)
(0.000932722 -0.0982867 0.000305144)
(0.00247266 -0.0941859 0.000955352)
(0.000211547 -0.0934266 0.000371716)
(0.00243473 -0.0943277 0.000958229)
(0.000178835 -0.0935447 0.000373202)
(0.000629216 -0.0978289 9.84568e-05)
(0.000629151 -0.0978285 -9.83066e-05)
(0.000557625 -0.098034 9.88721e-05)
(0.00055756 -0.0980336 -9.87204e-05)
(0.00012494 -0.0930734 9.87653e-05)
(0.000124971 -0.0930728 -9.86118e-05)
(9.73252e-05 -0.0931967 9.91274e-05)
(9.73542e-05 -0.0931961 -9.89726e-05)
(0.00100201 -0.0980693 -0.000303311)
(0.000737323 -0.0985229 -0.000115506)
(0.000932493 -0.0982856 -0.000304947)
(0.000672856 -0.098774 -0.000118228)
(0.000211581 -0.0934249 -0.000371473)
(0.002472 -0.0941833 -0.000955012)
(0.000178873 -0.0935431 -0.000372958)
(0.00243409 -0.0943251 -0.000957889)
(-0.0112756 -0.0990627 0.00101909)
(0.0117447 -0.0995073 0.475523)
(-0.0113351 -0.099385 0.00101481)
(0.0116773 -0.0999709 0.47564)
(-0.00951348 -0.0952426 0.00200569)
(0.0073116 -0.0960517 0.4971)
(-0.00953495 -0.0954947 0.00200092)
(0.00727707 -0.0966739 0.497122)
(0.0118878 -0.0984821 -0.475092)
(-0.0111309 -0.0983012 -0.00102547)
(0.011812 -0.0990131 -0.47519)
(-0.0112072 -0.0987035 -0.00102274)
(0.00735121 -0.0947416 -0.497032)
(-0.00942273 -0.0946185 -0.00201269)
(0.00731383 -0.0954109 -0.497051)
(-0.00945616 -0.0949528 -0.00201031)
(0.000870483 -0.0978953 0.000110861)
(0.00115656 -0.0975083 0.000299903)
(0.000801628 -0.0982315 0.000113068)
(0.00107659 -0.0978116 0.000301683)
(0.00255498 -0.0937701 0.00094939)
(0.000283685 -0.0930581 0.000368395)
(0.00251511 -0.0939997 0.000952357)
(0.000246701 -0.0932645 0.000370097)
(0.000790889 -0.0972891 9.74168e-05)
(0.000790832 -0.0972886 -9.72665e-05)
(0.000706828 -0.0975812 9.79396e-05)
(0.000706762 -0.0975808 -9.77925e-05)
(0.000186961 -0.0926998 9.78788e-05)
(0.000186995 -0.0926991 -9.77289e-05)
(0.000154687 -0.0929081 9.83436e-05)
(0.00015472 -0.0929075 -9.81919e-05)
(0.00115635 -0.0975071 -0.000299714)
(0.000870833 -0.0978937 -0.000110899)
(0.00107634 -0.0978105 -0.000301488)
(0.000801968 -0.0982299 -0.000113097)
(0.00028371 -0.0930562 -0.000368156)
(0.00255429 -0.0937673 -0.000949051)
(0.00024673 -0.0932627 -0.000369855)
(0.00251443 -0.093997 -0.000952017)
(-0.0111255 -0.0982994 0.00102499)
(0.0118826 -0.0984804 0.475108)
(-0.0112018 -0.0987018 0.00102225)
(0.0118066 -0.0990114 0.475207)
(-0.00941804 -0.0946156 0.00201148)
(0.00734748 -0.0947387 0.497035)
(-0.00945151 -0.0949498 0.0020091)
(0.00730962 -0.095408 0.497054)
(0.0120471 -0.0972981 -0.4747)
(-0.0109428 -0.0973605 -0.00102852)
(0.0119603 -0.0979114 -0.474787)
(-0.0110386 -0.0978543 -0.00102716)
(0.00739414 -0.0933042 -0.496973)
(-0.00930469 -0.0938145 -0.00201405)
(0.00735327 -0.0940404 -0.496989)
(-0.00934937 -0.0942395 -0.00201383)
(0.00103506 -0.0970805 0.000107198)
(0.00133801 -0.0967559 0.000296108)
(0.0009496 -0.0975124 0.000108948)
(0.00124387 -0.0971571 0.000297976)
(0.00264318 -0.0931656 0.000943292)
(0.000364741 -0.0924974 0.000364683)
(0.0026004 -0.0934923 0.000946323)
(0.000323275 -0.0928027 0.000366576)
(0.000980378 -0.0965581 9.6221e-05)
(0.000980324 -0.0965577 -9.60744e-05)
(0.00088198 -0.0969488 9.68125e-05)
(0.000881914 -0.0969484 -9.66721e-05)
(0.000260087 -0.0921362 9.68134e-05)
(0.00026012 -0.0921355 -9.66687e-05)
(0.000222033 -0.0924428 9.73641e-05)
(0.000222065 -0.0924421 -9.72174e-05)
(0.00133781 -0.0967546 -0.000295923)
(0.00103543 -0.0970788 -0.000107238)
(0.00124362 -0.0971559 -0.000297784)
(0.000950008 -0.0975107 -0.000108976)
(0.000364753 -0.0924954 -0.000364447)
(0.00264247 -0.0931627 -0.000942954)
(0.000323292 -0.0928007 -0.000366338)
(0.00259969 -0.0934895 -0.000945984)
(-0.0109374 -0.0973587 0.00102804)
(0.0120419 -0.0972964 0.474717)
(-0.0110332 -0.0978525 0.00102668)
(0.0119548 -0.0979097 0.474803)
(-0.00930003 -0.0938114 0.00201285)
(0.00739043 -0.0933014 0.496975)
(-0.00934474 -0.0942365 0.00201262)
(0.00734908 -0.0940376 0.496991)
(0.0122316 -0.0959268 -0.474327)
(-0.0107147 -0.0962192 -0.00102899)
(0.0121316 -0.0966375 -0.4744)
(-0.0108306 -0.0968163 -0.00102888)
(0.00744546 -0.0917055 -0.496918)
(-0.00916381 -0.0928136 -0.00201142)
(0.00739977 -0.092527 -0.496931)
(-0.00921962 -0.0933397 -0.00201315)
(0.00123232 -0.096057 0.000104377)
(0.00154982 -0.0957898 0.000292137)
(0.0011305 -0.0965961 0.000105721)
(0.00144016 -0.0963009 0.000294094)
(0.00273762 -0.0923516 0.000937076)
(0.000455627 -0.0917216 0.000360599)
(0.00269152 -0.0927857 0.000940165)
(0.000408996 -0.0921374 0.000362676)
(0.00120079 -0.0956115 9.48937e-05)
(0.00120074 -0.095611 -9.47535e-05)
(0.00108654 -0.0961131 9.55492e-05)