/*--------------------------------*- C++ -*----------------------------------*\
  =========                 |
  \\      /  F ield         | OpenFOAM: The Open Source CFD Toolbox
   \\    /   O peration     | Website:  https://openfoam.org
    \\  /    A nd           | Version:  9
     \\/     M anipulation  |
\*---------------------------------------------------------------------------*/
FoamFile
{
    format      ascii;
    class       volScalarField;
    location    "5";
    object      epsilon;
}
// * * * * * * * * * * * * * * * * * * * * * * * * * * * * * * * * * * * * * //

dimensions      [0 2 -3 0 0 0 0];

internalField   nonuniform List<scalar> 
36360
(
12.5533
11.4363
10.0512
9.53526
20.7635
19.8271
13.3444
15.5635
9.40948
8.33392
7.71764
6.7393
17.0367
15.5556
12.8109
11.3204
7.86355
7.86357
6.31431
6.31433
14.9185
14.9185
10.7244
10.7244
8.33401
9.40964
6.73935
7.71775
15.5556
17.0367
11.3204
12.8108
11.4366
12.5538
9.53549
10.0516
19.8271
20.7634
15.5633
13.3441
14.8113
13.4595
13.9565
12.6607
25.1655
23.5712
23.5641
22.0728
11.2419
10.0804
10.4962
9.36273
20.509
18.9337
19.0928
17.5578
9.57449
9.57453
8.86847
8.8685
18.2528
18.2528
16.8944
16.8944
10.0806
11.2421
9.36283
10.4964
18.9338
20.509
17.5578
19.0929
13.4599
14.8119
12.661
13.957
23.5713
25.1655
22.0729
23.564
15.8406
14.4574
15.4002
14.0277
27.2218
25.5481
26.3192
24.6776
12.206
11.0262
11.7874
10.6132
22.4205
20.8165
21.5768
19.9821
10.5123
10.5123
10.1019
10.1019
20.1218
20.1218
19.2919
19.2919
11.0263
12.2062
10.6134
11.7876
20.8165
22.4206
19.9822
21.5769
14.4578
15.8412
14.0281
15.4009
25.5483
27.2219
24.6777
26.3192
16.448
15.0559
16.1784
14.7898
28.5304
26.8219
27.9415
26.2465
12.8008
11.6196
12.5355
11.3542
23.6632
22.0527
23.1019
21.4936
11.1045
11.1045
10.8393
10.8394
21.3558
21.3558
20.7972
20.7973
11.6197
12.801
11.3544
12.5357
22.0528
23.6634
21.4937
23.102
15.0563
16.4486
14.7902
16.179
26.8221
28.5305
26.2466
27.9416
16.8376
15.4424
16.6622
15.2683
29.4138
27.6913
29.0121
27.2948
13.1933
12.0153
13.0164
11.8366
24.5189
22.9064
24.1292
22.5172
11.5012
11.5012
11.3219
11.3219
22.2104
22.2105
21.8205
21.8205
12.0154
13.1936
11.8368
13.0166
22.9064
24.519
22.5172
24.1293
15.4428
16.8382
15.2687
16.6628
27.6915
29.4139
27.295
29.0122
17.0932
15.6973
16.9777
15.5821
30.0223
28.295
29.7447
28.019
13.4574
12.2844
13.3382
12.1627
25.1169
23.5065
24.8438
23.2323
11.7726
11.7726
11.6497
11.6498
22.8133
22.8133
22.5378
22.5378
12.2846
13.4577
12.1629
13.3385
23.5066
25.117
23.2324
24.844
15.6977
17.0939
15.5825
16.9783
28.2953
30.0225
28.0191
29.7448
17.2575
15.8626
17.1838
15.7884
30.4368
28.7107
30.2488
28.5213
13.6335
12.4664
13.5545
12.3846
25.5332
23.9274
25.3438
23.7358
11.9573
11.9573
11.8741
11.8742
23.2369
23.2369
23.0439
23.0439
12.4666
13.6337
12.3848
13.5548
23.9275
25.5334
23.7359
25.344
15.8631
17.2582
15.7888
17.1845
28.711
30.4372
28.5216
30.249
17.357
15.9637
17.3127
15.919
30.7108
28.9879
30.5869
28.8626
13.7458
12.5852
13.6963
12.5327
25.8151
24.2152
25.6882
24.0855
12.079
12.079
12.025
12.025
23.5279
23.5279
23.3965
23.3966
12.5853
13.746
12.5328
13.6965
24.2153
25.8152
24.0856
25.6883
15.9641
17.3577
15.9195
17.3138
28.988
30.7111
28.8629
30.5877
17.408
16.016
17.3871
15.9944
30.8784
29.1586
30.8058
29.0836
13.8099
12.656
13.783
12.6259
25.9938
24.401
25.9154
24.3192
12.153
12.1531
12.1213
12.1214
23.7173
23.7173
23.6336
23.6337
12.6562
13.8103
12.6261
13.7833
24.4011
25.994
24.3192
25.9155
16.0167
17.4091
15.9947
17.3875
29.1589
30.8795
29.0835
30.8058
17.4195
16.0286
17.4175
16.0263
30.9608
29.2432
30.9278
29.2095
13.8357
12.6893
13.8271
12.6769
26.0902
24.5057
26.0509
24.4622
12.1897
12.1898
12.1756
12.1757
23.8264
23.8265
23.7807
23.7808
12.6897
13.8367
12.6772
13.8276
24.506
26.091
24.4624
26.0512
16.0308
17.4216
16.0274
17.4189
29.2452
30.9621
29.2101
30.929
17.3965
16.0083
17.4107
16.021
30.9725
29.2571
30.9722
29.2561
13.8305
12.6921
13.8363
12.6941
26.1194
24.5446
26.1119
24.5325
12.1963
12.1965
12.1965
12.1967
23.8703
23.8705
23.8556
23.8558
12.6928
13.8323
12.6948
13.838
24.5452
26.1208
24.533
26.1134
16.013
17.4026
16.0253
17.4156
29.2607
30.9754
29.2603
30.9762
17.3554
15.968
17.3772
15.9901
30.9327
29.2196
30.9594
29.2445
13.8017
12.6708
13.8188
12.6844
26.096
24.5306
26.1139
24.5433
12.1787
12.1789
12.1905
12.1907
23.8612
23.8613
23.8712
23.8713
12.6713
13.8025
12.685
13.82
24.531
26.0964
24.5437
26.1147
15.9678
17.3544
15.9919
17.38
29.2188
30.9298
29.2454
30.9587
17.2904
15.9041
17.3244
15.9372
30.8406
29.1306
30.8913
29.179
13.7519
12.6286
13.779
12.6521
26.0237
24.4687
26.0646
24.5047
12.1402
12.1404
12.1619
12.1621
23.8049
23.8051
23.8383
23.8384
12.6292
13.7535
12.6527
13.7802
24.4693
26.0252
24.5051
26.0655
15.9084
17.2954
15.9395
17.3257
29.1344
30.843
29.1805
30.8905
17.2113
15.8261
17.2516
15.8664
30.7094
29.0025
30.778
29.0698
13.685
12.5688
13.7204
12.6008
25.9125
24.3674
25.9723
24.4226
12.0839
12.084
12.1142
12.1144
23.7089
23.709
23.7615
23.7617
12.5693
13.686
12.6014
13.7216
24.3678
25.9133
24.4232
25.9735
15.8266
17.212
15.8683
17.2547
29.0037
30.7102
29.0721
30.7799
17.1156
15.7308
17.1641
15.7789
30.5405
28.8364
30.6282
28.9222
13.6026
12.4933
13.6454
12.533
25.7652
24.2299
25.8427
24.3028
12.0118
12.0119
12.0498
12.05
23.5768
23.5769
23.6471
23.6472
12.4937
13.6037
12.5335
13.6466
24.2302
25.7661
24.3032
25.8437
15.7339
17.1196
15.7814
17.166
28.8398
30.5433
28.9248
30.6291
17.0064
15.6221
17.0616
15.6775
30.3381
28.6367
30.4411
28.739
13.5054
12.4031
13.5558
12.45
25.584
24.059
25.6783
24.1483
11.9249
11.925
11.9702
11.9703
23.4112
23.4113
23.498
23.498
12.4033
13.5057
12.4503
13.5563
24.0592
25.584
24.1486
25.6788
15.6211
17.0051
15.6781
17.0634
28.6358
30.3371
28.7403
30.4434
16.8806
15.497
16.9445
15.5602
30.1007
28.4015
30.2238
28.5223
13.3939
12.2988
13.4513
12.3527
25.3697
23.856
25.4807
23.9614
11.8242
11.8243
11.8764
11.8765
23.2137
23.2138
23.3163
23.3164
12.2991
13.3945
12.353
13.4518
23.8564
25.3703
23.9616
25.4809
15.499
16.8832
15.5611
16.9447
28.4029
30.1023
28.5224
30.2229
16.7382
15.3572
16.8101
15.4281
29.8247
28.1291
29.9654
28.2681
13.2674
12.1806
13.3323
12.2415
25.1218
23.6214
25.2495
23.7425
11.7096
11.7097
11.7687
11.7688
22.9846
22.9848
23.103
23.1031
12.1809
13.268
12.2418
13.3329
23.6219
25.1227
23.7429
25.2502
15.3566
16.738
15.4284
16.8118
28.1298
29.8258
28.2689
29.9673
16.5811
15.2023
16.6609
15.2808
29.5139
27.8225
29.6734
27.979
13.1269
12.0485
13.1989
12.1164
24.8414
23.3553
24.9854
23.4922
11.5812
11.5813
11.6472
11.6474
22.7238
22.724
22.8581
22.8583
12.049
13.1279
12.1168
13.1998
23.3558
24.8429
23.4927
24.9867
15.2042
16.5844
15.2817
16.6619
27.827
29.519
27.9817
29.6757
16.4063
15.0304
16.4955
15.1182
29.1683
27.4804
29.3448
27.655
12.9713
11.9021
13.051
11.9772
24.5277
23.0567
24.6883
23.21
11.4386
11.4387
11.5118
11.5119
22.4305
22.4306
22.5812
22.5813
11.9023
12.9715
11.9776
13.0515
23.0568
24.5279
23.2104
24.6892
15.0288
16.4037
15.1179
16.4962
27.4801
29.1676
27.6573
29.3478
16.2079
14.8393
16.3082
14.9355
28.7776
27.0968
28.9766
27.2915
12.8003
11.741
12.8875
11.8234
24.1785
22.7241
24.3571
22.8945
11.2814
11.2814
11.362
11.362
22.1034
22.1034
22.2711
22.2712
11.741
12.8001
11.8235
12.8876
22.7242
24.1784
22.8946
24.3571
14.839
16.2076
14.9354
16.3066
27.0959
28.7762
27.2908
28.9742
15.9963
14.6357
16.1034
14.739
28.351
26.6773
28.5685
26.8912
12.6141
11.5648
12.7092
11.6549
23.7941
22.3569
23.9906
22.5449
11.1094
11.1094
11.1974
11.1973
21.7414
21.7414
21.9266
21.9266
11.5648
12.6138
11.6548
12.7088
22.3569
23.7938
22.5449
23.9904
14.6333
15.9939
14.7371
16.102
26.6755
28.3484
26.8891
28.5662
15.7633
14.4121
15.8816
14.5257
27.8777
26.2135
28.1181
26.4495
12.4111
11.373
12.5148
11.471
23.371
21.9526
23.5872
22.1594
10.9226
10.9227
11.018
11.018
21.3455
21.3455
21.5479
21.548
11.373
12.4109
11.4709
12.5143
21.9527
23.3711
22.1594
23.587
14.4108
15.7612
14.5233
15.8785
26.2137
27.8776
26.4486
28.1174
15.5057
14.1671
15.6367
14.2913
27.3582
25.7044
27.6224
25.9625
12.1899
11.1646
12.3025
11.2709
22.908
21.5103
23.144
21.736
10.72
10.7201
10.8234
10.8235
20.9123
20.9124
21.1335
21.1336
11.165
12.1909
11.2712
12.3031
21.5107
22.9093
21.7363
23.145
14.1696
15.5081
14.2916
15.6364
25.7084
27.3627
25.9657
27.6252
15.2278
13.9046
15.3683
14.0371
26.8014
25.1579
27.0842
25.4354
11.952
10.9398
12.073
11.0544
22.4072
21.0304
22.6622
21.275
10.5012
10.5012
10.6127
10.6128
20.4418
20.4419
20.6817
20.6818
10.9401
11.9526
11.0547
12.0739
21.0306
22.4072
21.2753
22.6629
13.9068
15.2317
14.0402
15.3725
25.1569
26.8015
25.4365
27.087
14.9288
13.6238
15.079
13.7654
26.1929
24.5628
26.5017
24.8644
11.6962
10.6982
11.8262
10.8212
21.866
20.5119
22.1413
20.7759
10.2658
10.2659
10.3856
10.3857
19.9332
19.9332
20.1922
20.1923
10.6984
11.6969
10.8215
11.8268
20.5119
21.8662
20.776
22.1413
13.6241
14.9293
13.766
15.0815
24.5642
26.1949
24.8642
26.502
14.605
13.3214
14.7698
13.4742
25.5401
23.9248
25.8714
24.2484
11.4226
10.4393
11.5616
10.571
21.2832
19.954
21.5798
20.2378
10.0136
10.0137
10.1419
10.142
19.386
19.386
19.6644
19.6644
10.4394
11.4231
10.5712
11.5622
19.9538
21.2826
20.2377
21.5795
13.3249
14.6089
13.476
14.7705
23.9231
25.5389
24.2483
25.8719
14.262
13.0036
14.4336
13.1632
24.8391
23.2414
25.1937
23.5863
11.1309
10.1629
11.2788
10.3033
20.6589
19.3565
20.9756
19.66
9.74433
9.74435
9.8812
9.88123
18.8
18.8
19.0978
19.0977
10.1629
11.1311
10.3034
11.2792
19.3564
20.6589
19.6598
20.9752
13.0046
14.2642
13.166
14.4383
23.2417
24.8391
23.5857
25.1928
13.8951
12.6634
14.0815
12.8358
24.0914
22.5146
24.4707
22.883
10.8202
9.86854
10.978
10.018
19.9944
18.7196
20.3317
19.0429
9.4576
9.45761
9.60323
9.60325
18.1753
18.1752
18.4924
18.4924
9.86858
10.8202
10.0181
10.9782
18.7196
19.9944
19.0429
20.3317
12.6636
13.8954
12.8362
14.0823
22.5146
24.0914
22.8832
24.471
13.4968
12.2974
13.6987
12.4826
23.2902
21.7367
23.6964
22.1306
10.4887
9.55571
10.6569
9.71447
19.2874
18.0432
19.6459
18.3862
9.15315
9.15317
9.30764
9.30765
17.5119
17.5119
17.8483
17.8483
9.55575
10.4888
9.71451
10.657
18.0432
19.2874
18.3862
19.6458
12.2976
13.4971
12.4827
13.699
21.7367
23.2901
22.1305
23.6964
13.0724
11.9093
13.2867
12.1051
22.4407
20.9135
22.8702
21.3294
10.1378
9.22482
10.3155
9.39252
18.5401
17.3287
18.9184
17.6905
8.83126
8.83127
8.99441
8.99443
16.8112
16.8112
17.1661
17.1661
9.22486
10.1379
9.39256
10.3156
17.3287
18.5401
17.6905
18.9184
11.9095
13.0727
12.1053
13.287
20.9135
22.4407
21.3293
22.8702
12.6259
11.5016
12.8509
11.707
21.5488
20.0506
21.999
20.4858
9.76873
8.87659
9.95541
9.05287
17.7555
16.5778
18.1521
16.9576
8.49238
8.49239
8.66397
8.66398
16.0746
16.0746
16.4473
16.4473
8.87663
9.7688
9.05291
9.95549
16.5778
17.7555
16.9576
18.1521
11.5017
12.6261
11.7071
12.8512
20.0507
21.5488
20.4858
21.999
12.1598
11.0759
12.3944
11.2901
20.6177
19.1502
21.0872
19.604
9.38238
8.51146
9.57762
8.69616
16.9351
15.792
17.3495
16.1891
8.13678
8.13679
8.31671
8.31673
15.3033
15.3033
15.6932
15.6932
8.51149
9.38244
8.6962
9.5777
15.792
16.9351
16.1891
17.3495
11.076
12.16
11.2902
12.3946
19.1502
20.6177
19.604
21.0872
11.6758
10.6333
11.9192
10.8559
19.6494
18.214
20.1373
18.6855
8.97904
8.12942
9.18278
8.32261
16.0803
14.9721
16.5118
15.3862
7.76432
7.76433
7.95273
7.95274
14.498
14.498
14.9048
14.9048
8.12945
8.97909
8.32264
9.18284
14.9721
16.0803
15.3862
16.5118
10.6334
11.676
10.856
11.9194
18.214
19.6494
18.6855
20.1373
11.1747
10.1737
11.4266
10.4049
18.6446
17.2434
19.1509
17.7321
8.55818
7.72971
8.77083
7.9319
15.1912
14.1181
15.6398
14.5493
7.37415
7.37416
7.57158
7.57159
13.6585
13.6585
14.0826
14.0826
7.72974
8.55823
7.93193
8.77088
14.1181
15.1912
14.5493
15.6398
10.1738
11.1749
10.405
11.4268
17.2434
18.6446
17.7321
19.1509
10.6559
9.6956
10.917
9.93646
17.6009
16.2378
18.1272
16.7442
8.1176
7.31017
8.34054
7.52266
14.2661
13.2278
14.7332
13.6776
6.96423
6.96423
7.17188
7.17189
12.7828
12.7828
13.2253
13.2253
7.31019
8.11765
7.52268
8.34059
13.2278
14.266
13.6776
14.7332
9.69569
10.656
9.93655
10.9171
16.2378
17.6009
16.7442
18.1272
10.1148
9.19252
10.3879
9.44723
16.5117
15.1936
17.0619
15.72
7.65105
6.86593
7.88821
7.09162
13.2983
12.2956
13.7881
12.7674
6.53074
6.53074
6.75076
6.75077
11.8662
11.8662
12.3299
12.3299
6.86595
7.65108
7.09164
7.88825
12.2956
13.2983
12.7674
13.7881
9.19259
10.1149
9.44731
10.388
15.1936
16.5116
15.72
17.0618
9.54209
8.63848
9.83228
8.92473
15.3729
14.0922
15.9471
14.6528
7.1396
6.3873
7.40305
6.63174
12.265
11.3082
12.7925
11.8098
6.0689
6.06891
6.30358
6.30358
10.9023
10.9023
11.3904
11.3904
6.38731
7.13963
6.63176
7.40308
11.3082
12.2649
11.8098
12.7925
8.63855
9.54222
8.9248
9.83242
14.0922
15.3728
14.6528
15.9471
8.94759
7.87727
9.24459
8.30954
14.1662
12.7175
14.7906
13.4769
6.52956
5.8644
6.85198
6.13115
11.092
10.2516
11.703
10.7881
5.58208
5.58208
5.82746
5.82746
9.89646
9.89646
10.4028
10.4028
5.86441
6.52958
6.13117
6.85201
10.2516
11.092
10.7881
11.703
7.87732
8.9477
8.3096
9.24471
12.7174
14.1662
13.4768
14.7905
10.5755
9.7841
9.61059
8.93244
11.1098
10.1687
9.7217
8.99314
8.50049
7.70517
7.66949
6.90215
8.58829
7.66227
7.49506
6.62898
7.3277
7.32777
6.54311
6.54318
7.23719
7.23724
6.23581
6.23586
7.70539
8.50089
6.90235
7.66984
7.66243
8.58859
6.62911
7.49531
9.78471
10.5763
8.93299
9.61133
10.1691
11.1105
8.99356
9.72232
11.8137
10.9858
11.2934
10.4743
12.6993
11.6691
12.0583
11.0513
9.66203
8.83928
9.15962
8.34455
9.99385
9.01221
9.40208
8.43763
8.44735
8.44743
7.95691
7.95699
8.56087
8.56093
7.99469
7.99475
8.83953
9.66247
8.34479
9.16004
9.0124
9.9942
8.43781
9.40241
10.9864
11.8146
10.4749
11.2942
11.6696
12.7001
11.0518
12.0591
12.4807
11.6533
12.1944
11.3654
13.4902
12.4498
13.1528
12.1149
10.337
9.51633
10.0435
9.22025
10.7672
9.7788
10.4325
9.44495
9.12461
9.12469
8.82757
8.82766
9.32368
9.32374
8.99048
8.99055
9.51659
10.3374
9.22051
10.0439
9.779
10.7675
9.44515
10.4328
11.6539
12.4816
11.366
12.1953
12.4503
13.491
12.1154
13.1537
12.8611
12.0413
12.6951
11.8714
13.9421
12.904
13.7438
12.7041
10.7429
9.93203
10.5643
9.74836
11.2327
10.2497
11.0269
10.0409
9.54453
9.54461
9.35859
9.35867
9.79668
9.79674
9.5865
9.58656
9.93229
10.7433
9.74861
10.5647
10.2499
11.233
10.0411
11.0273
12.0419
12.862
11.872
12.696
12.9045
13.9429
12.7046
13.7446
13.0858
12.2743
12.987
12.1716
14.2177
13.1845
14.0952
13.0596
10.995
10.1951
10.8835
10.0783
11.5285
10.5538
11.3966
10.4178
9.81254
9.81263
9.69329
9.69337
10.1043
10.1043
9.96648
9.96655
10.1954
10.9954
10.0785
10.8839
10.554
11.5289
10.418
11.3969
12.275
13.0866
12.1722
12.9879
13.1851
14.2185
13.0602
14.096
13.217
12.4133
13.1595
12.3523
14.3878
13.3598
14.312
13.2817
11.1519
10.3625
11.0828
10.2884
11.7195
10.7534
11.6343
10.6642
9.98477
9.98485
9.90833
9.90841
10.3077
10.3078
10.2166
10.2166
10.3627
11.1523
10.2886
11.0832
10.7536
11.7198
10.6644
11.6347
12.4139
13.2178
12.3529
13.1604
13.3603
14.3885
13.2822
14.3128
13.2875
12.4906
13.2575
12.4575
14.4883
13.4653
14.4442
13.4189
11.2456
10.466
11.2051
10.4209
11.8401
10.8825
11.7869
10.8254
10.0927
10.0928
10.0455
10.0456
10.4407
10.4407
10.3816
10.3817
10.4662
11.246
10.4211
11.2055
10.8827
11.8404
10.8256
11.7873
12.4912
13.2883
12.4581
13.2583
13.4659
14.4891
13.4194
14.4449
13.3161
12.5251
13.3052
12.5115
14.5403
13.5217
14.5183
13.4978
11.2951
10.5244
11.2749
10.5
11.9107
10.9614
11.8805
10.9274
10.1554
10.1554
10.1289
10.129
10.5233
10.5233
10.4874
10.4875
10.5246
11.2955
10.5002
11.2753
10.9616
11.9111
10.9276
11.8809
12.5257
13.3169
12.5121
13.306
13.5222
14.541
13.4984
14.5191
13.3142
12.5282
13.3174
12.5292
14.5562
13.5415
14.5511
13.5347
11.312
10.5496
11.3069
10.5406
11.9442
11.0028
11.9314
10.9862
10.1845
10.1846
10.1737
10.1737
10.5683
10.5684
10.55
10.55
10.5499
11.3124
10.5409
11.3073
11.003
11.9446
10.9864
11.9317
12.5289
13.3151
12.5299
13.3183
13.5422
14.5571
13.5353
14.5519
13.2889
12.5073
13.3033
12.5198
14.5437
13.5327
14.5523
13.5395
11.304
10.5495
11.3106
10.5524
11.9486
11.0151
11.9496
11.0122
10.1881
10.1882
10.1892
10.1893
10.5842
10.5844
10.5796
10.5797
10.5499
11.3047
10.5527
11.3112
11.0155
11.9494
11.0125
11.9501
12.5083
13.2901
12.5206
13.3043
13.5339
14.5454
13.5404
14.5535
13.245
12.4673
13.2682
12.4888
14.508
13.5004
14.5275
13.5184
11.2762
10.5293
11.2922
10.5417
11.93
11.0043
11.9418
11.0123
10.1715
10.1716
10.1822
10.1823
10.5771
10.5773
10.5833
10.5835
10.5298
11.2771
10.5422
11.293
11.0049
11.9311
11.0129
11.9429
12.4685
13.2466
12.4899
13.2697
13.5026
14.5109
13.5202
14.5299
13.1863
12.4119
13.2166
12.4407
14.4556
13.4503
14.4829
13.4768
11.2325
10.4928
11.2561
10.5129
11.8926
10.9746
11.9134
10.9917
10.1384
10.1386
10.1569
10.1571
10.551
10.5512
10.5663
10.5665
10.4932
11.2333
10.5134
11.2569
10.9751
11.8935
10.9922
11.9144
12.4131
13.1877
12.4419
13.2181
13.4512
14.4567
13.4785
14.4853
13.1151
12.3437
13.1512
12.3785
14.385
13.3832
14.4206
13.417
11.1756
10.4429
11.2054
10.4694
11.8397
10.9293
11.8676
10.9538
10.0918
10.0919
10.1167
10.1169
10.5093
10.5094
10.532
10.5322
10.4433
11.1764
10.4698
11.2062
10.9299
11.8407
10.9543
11.8686
12.3449
13.1167
12.3796
13.1527
13.3856
14.3881
13.4186
14.4221
13.0349
12.2655
13.0753
12.3052
14.3082
13.3076
14.3467
13.3462
11.1078
10.3816
11.143
10.4136
11.7745
10.871
11.8086
10.9018
10.0336
10.0338
10.0642
10.0643
10.4542
10.4543
10.4834
10.4835
10.382
11.1085
10.4141
11.1437
10.8714
11.7754
10.9023
11.8095
12.2665
13.0362
12.3064
13.0767
13.3085
14.3093
13.3479
14.3494
12.9428
12.1761
12.989
12.2209
14.2169
13.2182
14.2629
13.2631
11.0297
10.31
11.0697
10.347
11.6974
10.8007
11.7371
10.8373
9.96514
9.96526
10.0007
10.0008
10.3871
10.3872
10.4221
10.4223
10.3104
11.0304
10.3474
11.0704
10.8011
11.6982
10.8377
11.738
12.1771
12.9441
12.2219
12.9903
13.2203
14.2196
13.2645
14.2642
12.8453
12.0802
12.894
12.1285
14.1192
13.1212
14.1681
13.1704
10.9429
10.2292
10.9873
10.2708
11.6099
10.7196
11.6549
10.7616
9.88731
9.88742
9.92743
9.92755
10.3091
10.3092
10.3495
10.3496
10.2296
10.9434
10.2712
10.9879
10.7199
11.6104
10.7619
11.6556
12.0811
12.8463
12.1294
12.8951
13.1214
14.1193
13.1715
14.1701
12.7379
11.9747
12.7921
12.0278
14.0071
13.011
14.0637
13.0664
10.8472
10.1396
10.896
10.1856
11.5116
10.628
11.5619
10.6752
9.80055
9.80066
9.84511
9.84522
10.2206
10.2207
10.2662
10.2663
10.14
10.8479
10.1859
10.8967
10.6283
11.5122
10.6755
11.5625
11.9756
12.7391
12.0287
12.7931
13.0126
14.0091
13.0672
14.0641
12.623
11.8617
12.6805
11.9186
13.8869
12.8922
13.9472
12.9522
10.743
10.0412
10.7961
10.0916
11.4029
10.526
11.4585
10.5784
9.70498
9.70509
9.75395
9.75406
10.1218
10.1219
10.1726
10.1727
10.0415
10.7435
10.0919
10.7967
10.5264
11.4035
10.5787
11.4591
11.8624
12.624
11.9195
12.6816
12.8924
13.8873
12.9532
13.949
12.4971
11.7382
12.5608
11.8005
13.7523
12.7601
13.8205
12.8266
10.6295
9.93372
10.6873
9.98866
11.2832
10.4135
11.3443
10.4712
9.60042
9.60051
9.65391
9.65401
10.0126
10.0127
10.0686
10.0687
9.93402
10.63
9.98897
10.6878
10.4138
11.2839
10.4715
11.345
11.739
12.4982
11.8012
12.5619
12.7619
13.7546
12.8277
13.8211
12.362
11.6059
12.4298
11.6727
13.6073
12.6182
13.6803
12.69
10.5064
9.81689
10.5691
9.87655
11.1525
10.2901
11.2193
10.3532
9.48658
9.48665
9.54475
9.54484
9.89263
9.89269
9.95407
9.95416
9.81709
10.5068
9.87681
10.5696
10.2903
11.1529
10.3535
11.2198
11.6064
12.3626
11.6734
12.4307
12.618
13.607
12.6908
13.6821
12.2138
11.4618
12.2889
11.5346
13.4456
12.4615
13.5275
12.5405
10.3732
9.69027
10.441
9.75486
11.0098
10.1553
11.0825
10.2242
9.36313
9.36316
9.42614
9.42619
9.76153
9.76155
9.82856
9.8286
9.69038
10.3734
9.75502
10.4413
10.1554
11.0099
10.2243
11.0827
11.4622
12.2143
11.5349
12.2894
12.4623
13.4465
12.5407
13.5271
12.0551
11.308
12.1349
11.3857
13.2727
12.2945
13.3597
12.3788
10.2296
9.55355
10.3027
9.62324
10.8554
10.009
10.934
10.0837
9.22974
9.22977
9.29777
9.29779
9.61909
9.61909
9.69182
9.69183
9.55362
10.2297
9.62333
10.3028
10.009
10.8553
10.0837
10.934
11.3081
12.0553
11.3859
12.1352
12.2936
13.2716
12.3787
13.3603
11.8817
11.1411
11.9699
11.2255
13.0832
12.112
13.18
12.2047
10.0748
9.4062
10.1536
9.48129
10.6879
9.85056
10.7733
9.93144
9.08601
9.08605
9.15927
9.15929
9.46487
9.4649
9.54357
9.54358
9.40632
10.075
9.48137
10.1538
9.85064
10.6879
9.93144
10.7732
11.1413
11.8821
11.2256
11.9701
12.1123
13.0834
12.2043
13.1786
11.6949
10.9625
11.789
11.0526
12.8752
11.9143
12.9802
12.0142
9.90844
9.24783
9.99302
9.32844
10.5066
9.67931
10.5988
9.76658
8.93154
8.9316
9.0102
9.01025
9.29834
9.29841
9.38323
9.38329
9.24802
9.90878
9.32861
9.99332
9.67957
10.5072
9.76676
10.5992
10.9631
11.6957
11.0531
11.7896
11.9149
12.876
12.0146
12.9812
11.4939
10.771
11.5958
10.8678
12.6513
11.7029
12.7642
11.8094
9.73048
9.0783
9.82088
9.16452
10.3122
9.49534
10.411
9.58898
8.7661
8.76617
8.85027
8.85033
9.11928
9.11937
9.21046
9.21054
9.07852
9.73091
9.16473
9.82127
9.49562
10.3128
9.58925
10.4115
10.7716
11.4949
10.8684
11.5966
11.7043
12.6532
11.8104
12.7652
11.2787
10.5674
11.3872
10.6701
12.4121
11.4777
12.5327
11.5914
9.54062
8.89735
9.637
8.98931
10.1043
9.29832
10.2099
9.39853
8.58947
8.58954
8.67926
8.67933
8.92745
8.92752
9.02505
9.02513
8.89757
9.54101
8.98953
9.63742
9.29857
10.1048
9.3988
10.2105
10.568
11.2796
10.6708
11.3881
11.478
12.4127
11.5924
12.5347
11.049
10.3508
11.1652
10.4601
12.1539
11.236
12.2848
11.3581
9.33878
8.70479
9.44117
8.80258
9.88238
9.08798
9.99503
9.19488
8.40143
8.40149
8.49695
8.49701
8.72257
8.72262
8.82672
8.82679
8.70498
9.33912
8.80278
9.44153
9.08817
9.88274
9.1951
9.99546
10.3513
11.0498
10.4607
11.1659
11.2374
12.1556
11.3588
12.2851
10.8054
10.1217
10.9281
10.2373
11.88
10.9812
12.0174
11.1094
9.12463
8.50036
9.23322
8.60412
9.64652
8.86409
9.76611
8.97778
8.20174
8.20179
8.30311
8.30316
8.50439
8.50443
8.61521
8.61526
8.5005
9.1249
8.60428
9.23353
8.86421
9.64679
8.97793
9.76644
10.1222
10.8059
10.2378
10.9288
10.9815
11.8807
11.1103
12.0194
10.5455
9.87806
10.677
10.0012
11.5884
10.71
11.736
10.8472
8.89749
8.28369
9.01268
8.39361
9.39585
8.62619
9.52308
8.74698
7.99016
7.9902
8.0975
8.09754
8.27261
8.27263
8.39028
8.39031
8.28381
8.8977
8.39374
9.01291
8.62628
9.39602
8.74708
9.52328
9.8784
10.546
10.0016
10.6775
10.7103
11.5888
10.8474
11.7363
10.2689
9.61985
10.4086
9.75017
11.2746
10.4201
11.4335
10.5666
8.65719
8.0547
8.77892
8.17076
9.12933
8.37388
9.26449
8.50187
7.76664
7.76667
7.87993
7.87997
8.027
8.02702
8.15158
8.1516
8.05481
8.65738
8.17087
8.77912
8.37396
9.12948
8.50195
9.26465
9.62016
10.2693
9.75049
10.409
10.4203
11.275
10.5668
11.4338
9.97752
9.34845
10.1243
9.48517
10.9414
10.1135
11.1094
10.268
8.40447
7.8138
8.53229
7.93574
8.84783
8.10754
8.99033
8.24246
7.53145
7.53148
7.65052
7.65056
7.7678
7.76782
7.89912
7.89914
7.8139
8.40464
7.93584
8.53247
8.10762
8.84797
8.24254
8.99047
9.34873
9.97792
9.48546
10.1247
10.1138
10.9418
10.2683
11.1098
9.67358
9.06542
9.82642
9.20779
10.5923
9.79241
10.768
9.95401
8.14026
7.56156
8.27371
7.6891
8.55251
7.82783
8.70179
7.96936
7.28501
7.28503
7.40966
7.40968
7.49544
7.49546
7.63329
7.63331
7.56164
8.14042
7.68919
8.27388
7.8279
8.55263
7.96943
8.70192
9.06568
9.67395
9.20806
9.8268
9.79262
10.5926
9.95423
10.7683
9.35884
8.77197
9.51687
8.91943
10.2293
9.45831
10.4117
9.62627
7.86528
7.29839
8.00405
7.43136
8.24417
7.53517
8.39989
7.68314
7.02757
7.0276
7.1577
7.15772
7.21018
7.2102
7.35447
7.35449
7.29847
7.86543
7.43144
8.00421
7.53523
8.24429
7.68321
8.40001
8.7722
9.35918
8.91968
9.51723
9.45851
10.2296
9.62647
10.412
9.03475
8.46895
9.19733
8.62113
9.85402
9.11208
10.0424
9.28606
7.5799
7.02435
7.72386
7.16278
7.92315
7.22957
8.08521
7.38404
6.75909
6.75911
6.89477
6.89479
6.91189
6.91191
7.06274
7.06275
7.02443
7.58004
7.16285
7.724
7.22963
7.92325
7.3841
8.08532
8.46917
9.03507
8.62136
9.19766
9.11226
9.85429
9.28624
10.0427
8.70209
8.1566
8.86893
8.31349
9.46721
8.75379
9.66136
8.93387
7.28381
6.73889
7.43323
6.88316
7.58897
6.91032
7.75774
7.07177
6.47889
6.47891
6.62057
6.62059
6.59977
6.59978
6.75769
6.7577
6.73896
7.28394
6.88323
7.43336
6.91037
7.58906
7.07182
7.75784
8.15681
8.70239
8.3137
8.86924
8.75395
9.46746
8.93404
9.66163
8.36032
7.83376
8.5319
7.99617
9.068
8.38177
9.26864
8.5691
6.97538
6.4403
7.13129
6.59143
7.23956
6.57535
7.41635
6.74503
6.18533
6.18535
6.33396
6.33398
6.27184
6.27185
6.43799
6.43801
6.44037
6.9755
6.5915
7.13142
6.57539
7.23965
6.74507
7.41644
7.83396
8.3606
7.99637
8.53219
8.38192
9.06824
8.56925
9.26888
8.00699
7.49615
8.18479
7.66683
8.65233
7.99011
8.862
8.1885
6.65002
6.12495
6.81528
6.28508
6.86909
6.2201
7.05756
6.4007
5.87558
5.8756
6.03272
6.03274
5.92457
5.92459
6.10093
6.10094
6.12501
6.65013
6.28514
6.8154
6.22014
6.86917
6.40075
7.05764
7.49633
8.00726
7.66702
8.18507
7.99025
8.65255
8.18864
8.86223
7.64096
7.12828
7.82453
7.31758
8.21338
7.5568
8.43522
7.78098
6.29505
5.78651
6.47758
5.95908
6.46082
5.83604
6.67149
6.03235
5.54703
5.54705
5.71368
5.71369
5.55396
5.55397
5.74232
5.74233
5.78656
6.29515
5.95913
6.47769
5.83607
6.46089
6.03239
6.67156
7.12845
7.64121
7.31776
7.82479
7.55693
8.21359
7.78111
8.43543
7.2915
6.64266
7.46084
6.91445
7.77164
6.96322
7.98968
7.29898
5.87979
5.42259
6.09742
5.60698
5.97223
5.41684
6.23018
5.63027
5.20616
5.20618
5.37681
5.37683
5.16505
5.16506
5.36053
5.36054
5.42264
5.87988
5.60703
6.09751
5.41687
5.9723
5.63031
6.23025
6.64281
7.29173
6.91461
7.46108
6.96333
7.77182
7.2991
7.98987
10.199
9.60015
9.56118
9.01793
10.3252
9.64526
9.56867
8.96352
8.66871
8.06542
8.06884
7.46503
8.56717
7.87942
7.87937
7.20106
7.77038
7.77048
7.17369
7.17378
7.54664
7.54673
6.87755
6.87762
8.06572
8.66921
7.46531
8.0693
7.87969
8.56763
7.2013
7.87979
9.60085
10.1998
9.01859
9.56201
9.64593
10.3261
8.96414
9.56947
11.0826
10.4829
10.6964
10.0947
11.3487
10.656
10.9077
10.2168
9.55545
8.95372
9.16174
8.5575
9.56676
8.86988
9.1271
8.43153
8.65849
8.65859
8.26142
8.26152
8.53138
8.53148
8.0942
8.09429
8.95403
9.55598
8.55781
9.16226
8.87017
9.56726
8.43182
9.12759
10.4836
11.0835
10.0954
10.6973
10.6567
11.3496
10.2175
10.9086
11.6075
11.0169
11.3786
10.7832
11.9332
11.2467
11.6802
10.99
10.1089
9.51822
9.86533
9.26869
10.1729
9.48375
9.90763
9.21377
9.22789
9.22799
8.97563
8.97573
9.14836
9.14845
8.87631
8.87641
9.51854
10.1094
9.269
9.86585
9.48405
10.1734
9.21406
9.90813
11.0177
11.6084
10.784
11.3795
11.2475
11.9341
10.9907
11.6811
11.9149
11.3351
11.781
11.1959
12.2705
11.5939
12.1236
11.4421
10.4487
9.87107
10.2993
9.7153
10.5407
9.86367
10.379
9.69599
9.58687
9.58697
9.42805
9.42815
9.53376
9.53385
9.36329
9.36338
9.87138
10.4492
9.71561
10.2998
9.86396
10.5412
9.69628
10.3795
11.3358
11.9158
11.1966
11.7819
11.5946
12.2714
11.4428
12.1245
12.0918
11.522
12.0152
11.4406
12.4663
11.7993
12.381
11.7094
10.6556
10.0905
10.565
9.99393
10.7662
10.1013
10.6671
9.99635
9.8122
9.8123
9.71279
9.71289
9.77708
9.77717
9.66934
9.66944
10.0908
10.6561
9.99423
10.5655
10.1016
10.7667
9.99664
10.6676
11.5227
12.0927
11.4413
12.0161
11.8
12.4671
11.7101
12.3818
12.1872
11.6261
12.1468
11.5816
12.5755
11.9172
12.5285
11.8662
10.7777
10.2237
10.725
10.1658
10.9024
10.2487
10.8431
10.1841
9.95082
9.95092
9.8903
9.8904
9.92972
9.92981
9.86256
9.86265
10.224
10.7782
10.1661
10.7255
10.249
10.9029
10.1844
10.8436
11.6268
12.188
11.5823
12.1476
11.9178
12.5764
11.8668
12.5294
12.2294
11.6758
12.213
11.656
12.6288
11.9778
12.6071
11.9527
10.8432
10.2992
10.8162
10.2675
10.9795
10.3358
10.9469
10.2985
10.0311
10.0312
9.99704
9.99713
10.0216
10.0217
9.982
9.98209
10.2995
10.8437
10.2677
10.8166
10.3361
10.9799
10.2988
10.9474
11.6765
12.2302
11.6566
12.2138
11.9785
12.6296
11.9534
12.6079
12.2353
11.6881
12.2354
11.6853
12.6436
11.999
12.6394
11.9919
10.8695
10.3343
10.8604
10.321
11.0153
10.3808
11.0016
10.3628
10.0705
10.0706
10.0552
10.0552
10.0709
10.071
10.0508
10.0509
10.3346
10.8699
10.3213
10.8608
10.381
11.0158
10.363
11.0021
11.6887
12.2361
11.6859
12.2362
11.9997
12.6444
11.9925
12.6402
12.2154
11.6735
12.2275
11.6831
12.631
11.9917
12.6395
11.9978
10.8674
10.3402
10.8714
10.3404
11.0212
10.3949
11.0214
10.3912
10.0802
10.0803
10.0786
10.0787
10.089
10.0891
10.0834
10.0834
10.3405
10.8679
10.3407
10.8718
10.3952
11.0217
10.3915
11.0219
11.6742
12.2163
11.6838
12.2283
11.9924
12.6319
11.9984
12.6403
12.1762
11.6388
12.1972
11.6578
12.5975
11.9628
12.6158
11.979
10.844
10.324
10.858
10.3346
11.0045
10.3858
11.0153
10.3929
10.0675
10.0676
10.0764
10.0765
10.0835
10.0836
10.0889
10.089
10.3243
10.8445
10.3349
10.8585
10.3861
11.0051
10.3932
11.0158
11.6395
12.177
11.6585
12.1981
11.9636
12.5985
11.9798
12.6167
12.122
11.5884
12.1501
11.6148
12.5478
11.917
12.5737
11.9412
10.804
10.2906
10.8258
10.3093
10.9699
10.3582
10.9891
10.3741
10.0374
10.0375
10.0544
10.0546
10.0594
10.0595
10.0736
10.0737
10.2909
10.8045
10.3096
10.8263
10.3586
10.9705
10.3744
10.9897
11.5892
12.1229
11.6156
12.151
11.9179
12.549
11.9421
12.5748
12.0559
11.5256
12.0897
11.5579
12.4851
11.8576
12.5172
11.8882
10.7507
10.2435
10.7788
10.2686
10.921
10.316
10.947
10.3388
9.99324
9.99335
10.0169
10.0171
10.0203
10.0205
10.0416
10.0417
10.2438
10.7513
10.269
10.7793
10.3164
10.9216
10.3392
10.9476
11.5264
12.0569
11.5587
12.0906
11.8585
12.4862
11.8892
12.5183
11.9802
11.4526
12.0185
11.4898
12.4117
11.7871
12.4488
11.823
10.6866
10.1851
10.7198
10.2156
10.8603
10.2616
10.8919
10.2902
9.93765
9.93776
9.96683
9.96694
9.969
9.96912
9.99615
9.99628
10.1854
10.6871
10.216
10.7204
10.262
10.861
10.2906
10.8925
11.4534
11.9811
11.4905
12.0195
11.788
12.4128
11.8239
12.45
11.896
11.3708
11.9385
11.4123
12.3293
11.707
12.371
11.7477
10.6131
10.1171
10.6509
10.1523
10.7896
10.1969
10.8261
10.2305
9.87227
9.87238
9.90617
9.90628
9.90714
9.90726
9.93938
9.9395
10.1174
10.6137
10.1526
10.6515
10.1972
10.7902
10.2309
10.8267
11.3716
11.897
11.413
11.9394
11.708
12.3304
11.7486
12.372
11.8041
11.2811
11.8503
11.3264
12.2381
11.6181
12.2838
11.6629
10.5314
10.0405
10.5732
10.0798
10.7097
10.1228
10.7507
10.161
9.79824
9.79835
9.83635
9.83646
9.83596
9.83607
9.87273
9.87285
10.0408
10.5319
10.0802
10.5737
10.1232
10.7104
10.1613
10.7513
11.2819
11.8051
11.3272
11.8513
11.6188
12.2391
11.6639