/*--------------------------------*- C++ -*----------------------------------*\
  =========                 |
  \\      /  F ield         | OpenFOAM: The Open Source CFD Toolbox
   \\    /   O peration     | Website:  https://openfoam.org
    \\  /    A nd           | Version:  9
     \\/     M anipulation  |
\*---------------------------------------------------------------------------*/
FoamFile
{
    format      ascii;
    class       volScalarField;
    location    "5";
    object      k;
}
// * * * * * * * * * * * * * * * * * * * * * * * * * * * * * * * * * * * * * //

dimensions      [0 2 -2 0 0 0 0];

internalField   nonuniform List<scalar> 
36360
(
1.83543
1.75972
1.60529
1.57234
0.774591
0.751126
0.576866
0.639164
1.57956
1.47909
1.39867
1.30067
0.678889
0.638949
0.561387
0.516956
1.43411
1.43411
1.25704
1.25704
0.621382
0.621382
0.498648
0.498648
1.47909
1.57957
1.30067
1.39867
0.638949
0.678889
0.516955
0.561385
1.75973
1.83544
1.57235
1.60529
0.751125
0.774588
0.63916
0.576858
2.03912
1.95584
1.95996
1.87734
0.880523
0.842931
0.842761
0.806821
1.77241
1.67051
1.69361
1.59161
0.768248
0.72839
0.732465
0.692661
1.62482
1.62483
1.54597
1.54597
0.71082
0.71082
0.675102
0.675103
1.67052
1.77242
1.59162
1.69362
0.728391
0.76825
0.692661
0.732466
1.95585
2.03914
1.87736
1.95998
0.842933
0.880523
0.806822
0.842759
2.14054
2.05719
2.09642
2.01306
0.927856
0.889425
0.907231
0.869106
1.87571
1.77527
1.83061
1.72941
0.815269
0.775908
0.794687
0.755035
1.73023
1.73023
1.68398
1.68399
0.758549
0.75855
0.737546
0.737547
1.77528
1.87572
1.72942
1.83062
0.77591
0.815272
0.755037
0.794689
2.05721
2.14056
2.01308
2.09644
0.889429
0.927858
0.869108
0.907232
2.20298
2.11997
2.17508
2.09187
0.957357
0.918746
0.944138
0.905559
1.9405
1.84151
1.91148
1.81181
0.845123
0.806329
0.831704
0.792643
1.79726
1.79726
1.76718
1.76718
0.789252
0.789253
0.77543
0.77543
1.84151
1.94051
1.81182
1.91149
0.806331
0.845126
0.792645
0.831707
2.11999
2.203
2.09189
2.1751
0.91875
0.95736
0.905563
0.94414
2.24406
2.16149
2.22547
2.14269
0.977017
0.938494
0.968102
0.929514
1.98376
1.88598
1.96418
1.86584
0.865374
0.827004
0.85618
0.817611
1.8424
1.8424
1.82195
1.82195
0.810169
0.81017
0.800659
0.80066
1.88599
1.98378
1.86585
1.9642
0.827007
0.865377
0.817613
0.856183
2.16151
2.24408
2.14271
2.2255
0.938498
0.97702
0.929518
0.968105
2.27172
2.18955
2.25915
2.1768
0.990444
0.952084
0.98433
0.945881
2.01334
1.91656
1.99991
1.90267
0.879386
0.841387
0.873002
0.834831
1.87349
1.87349
1.85937
1.85937
0.824762
0.824762
0.81811
0.818111
1.91656
2.01335
1.90268
1.99993
0.841389
0.87939
0.834834
0.873006
2.18957
2.27174
2.17682
2.25918
0.952089
0.990449
0.945885
0.984334
2.29019
2.20836
2.28184
2.19985
0.999537
0.961385
0.995421
0.957153
2.03347
1.93754
2.02437
1.92805
0.889076
0.851399
0.884675
0.846848
1.89489
1.89489
1.8852
1.88521
0.834939
0.83494
0.830311
0.830312
1.93755
2.03349
1.92806
2.02439
0.851401
0.88908
0.84685
0.884679
2.20838
2.29023
2.19987
2.28186
0.961391
0.999552
0.957158
0.995425
2.30204
2.22045
2.29673
2.21504
1.00553
0.967561
1.00282
0.964771
2.04674
1.95154
2.04082
1.94528
0.895608
0.858213
0.89267
0.855144
1.90924
1.90925
1.90282
1.90282
0.841895
0.841895
0.838759
0.83876
1.95155
2.04676
1.94529
2.04084
0.858214
0.895611
0.855147
0.892674
2.22047
2.30208
2.21506
2.29678
0.967564
1.00553
0.964778
1.00285
2.30888
2.22743
2.30594
2.22442
1.00918
0.971354
1.00759
0.969689
2.05479
1.96024
2.05132
1.95647
0.899735
0.862594
0.897925
0.860665
1.91826
1.91826
1.91433
1.91434
0.846406
0.846407
0.844415
0.844416
1.96026
2.05481
1.95648
2.05133
0.862597
0.899739
0.860667
0.897927
2.22747
2.30896
2.22445
2.30598
0.971363
1.00921
0.969689
1.00759
2.3117
2.23026
2.3107
2.22926
1.01097
0.973233
1.01025
0.972485
2.0587
1.96478
2.05719
1.96297
0.901957
0.86506
0.90105
0.864037
1.92308
1.92309
1.92113
1.92114
0.848999
0.849002
0.847914
0.847915
1.96481
2.05876
1.96299
2.05723
0.865068
0.901976
0.864041
0.901059
2.23042
2.31187
2.22932
2.31078
0.973278
1.011
0.9725
1.01029
2.31124
2.22981
2.3117
2.23028
1.01123
0.973542
1.01122
0.973518
2.05926
1.96595
2.05932
1.96574
0.902629
0.865975
0.902458
0.865689
1.92452
1.92453
1.92418
1.92419
0.850042
0.850045
0.849693
0.849696
1.96599
2.05936
1.96578
2.05943
0.865987
0.902661
0.865701
0.902491
2.23
2.31153
2.23056
2.31205
0.97362
1.0113
0.973613
1.01131
2.3085
2.22689
2.31012
2.22862
1.01036
0.972713
1.01095
0.973266
2.05718
1.96439
2.05854
1.9655
0.902091
0.865646
0.902503
0.865943
1.92322
1.92322
1.92419
1.9242
0.849825
0.849828
0.850062
0.850065
1.96441
2.0572
1.96552
2.05858
0.865653
0.902098
0.865952
0.90252
2.22688
2.30842
2.22862
2.31014
0.972692
1.01031
0.973282
1.01094
2.30315
2.22141
2.306
2.2243
1.00836
0.970731
1.00946
0.971808
2.05269
1.96044
2.05517
1.96268
0.900423
0.864188
0.901367
0.865035
1.9195
1.91951
1.92163
1.92164
0.848486
0.84849
0.84928
0.849283
1.96047
2.05278
1.96271
2.05523
0.864201
0.900457
0.865045
0.901387
2.22169
2.30349
2.22448
2.30614
0.970815
1.00842
0.971842
1.00945
2.2964
2.21439
2.29989
2.21806
1.00551
0.967889
1.007
0.969383
2.04626
1.95446
2.0497
1.95769
0.897855
0.8618
0.899236
0.863102
1.91373
1.91374
1.91686
1.91687
0.846203
0.846206
0.847455
0.847458
1.95449
2.0463
1.95772
2.04976
0.86181
0.897874
0.863114
0.899264
2.21432
2.29627
2.21814
2.30003
0.967908
1.0055
0.969429
1.00703
2.28758
2.20536
2.29209
2.20996
1.00181
0.964183
1.00373
0.966097
2.03797
1.94663
2.0423
1.95076
0.894446
0.858553
0.896241
0.860276
1.90611
1.90611
1.91014
1.91015
0.843056
0.843059
0.844731
0.844733
1.94666
2.03806
1.95079
2.04238
0.858562
0.89447
0.860285
0.896263
2.20554
2.28781
2.21007
2.29214
0.96426
1.00186
0.966153
1.00374
2.27749
2.19487
2.28265
2.20025
0.997381
0.959728
0.999636
0.962011
2.02804
1.93709
2.0332
1.94206
0.89025
0.854512
0.892435
0.856626
1.89676
1.89676
1.90164
1.90165
0.839105
0.839107
0.841176
0.841178
1.9371
2.02806
1.94209
2.03324
0.854516
0.89025
0.856632
0.892446
2.19488
2.27744
2.20028
2.28269
0.959708
0.997359
0.962042
0.999675
2.26538
2.18249
2.2716
2.1888
0.992156
0.954459
0.994869
0.957167
2.01642
1.92589
2.02242
1.93169
0.885271
0.849699
0.887851
0.852198
1.88575
1.88576
1.89146
1.89147
0.834378
0.83438
0.836835
0.836837
1.92591
2.01648
1.93171
2.02246
0.849707
0.885285
0.852203
0.887856
2.1827
2.2657
2.18896
2.27174
0.954496
0.992203
0.957173
0.994854
2.25191
2.16872
2.25873
2.17573
0.98609
0.948356
0.989183
0.951473
2.00317
1.91304
2.00999
1.91967
0.879496
0.844119
0.882472
0.847001
1.87311
1.87312
1.87963
1.87964
0.828879
0.828882
0.831723
0.831726
1.91306
2.00319
1.91969
2.01002
0.844129
0.879515
0.847011
0.882488
2.16859
2.25179
2.17576
2.2589
0.948365
0.986116
0.95149
0.989235
2.23656
2.15309
2.24438
2.16103
0.979237
0.941452
0.982752
0.944978
1.98822
1.89852
1.99589
1.90599
0.872937
0.837766
0.876309
0.841037
1.8588
1.85881
1.86617
1.86618
0.822597
0.822601
0.825835
0.825839
1.89856
1.9883
1.90602
1.99595
0.837779
0.872973
0.84105
0.876338
2.1532
2.23669
2.16104
2.24436
0.941549
0.979337
0.945034
0.982805
2.21942
2.13572
2.22816
2.14458
0.971567
0.933718
0.975493
0.937669
1.97153
1.88229
1.9801
1.89063
0.865572
0.830609
0.869347
0.834288
1.84279
1.84279
1.85102
1.85102
0.815502
0.815504
0.819152
0.819154
1.8823
1.97153
1.89065
1.98014
0.830613
0.865576
0.834297
0.869369
2.13566
2.21928
2.14457
2.22816
0.93371
0.971555
0.937719
0.97555
2.19985
2.11617
2.20985
2.12609
0.962867
0.925003
0.967305
0.929431
1.95295
1.86423
1.96245
1.87348
0.857337
0.822603
0.861555
0.82671
1.82499
1.82499
1.83412
1.83412
0.807554
0.807555
0.811635
0.811636
1.86423
1.95294
1.87349
1.96245
0.822604
0.857335
0.826712
0.861553
2.11629
2.20003
2.12614
2.20981
0.924988
0.962856
0.929419
0.967261
2.17873
2.09511
2.18944
2.10582
0.953321
0.915436
0.958188
0.920319
1.93253
1.84432
1.94297
1.85452
0.848225
0.813718
0.85289
0.818271
1.80533
1.80533
1.8154
1.8154
0.798712
0.798712
0.803243
0.803243
1.84431
1.93249
1.85451
1.94294
0.813717
0.848218
0.818271
0.852883
2.09497
2.17858
2.10576
2.18948
0.915389
0.953279
0.920272
0.958162
2.15522
2.07176
2.16718
2.08364
0.942694
0.904792
0.948097
0.910216
1.91004
1.82238
1.92154
1.83361
0.838139
0.803876
0.843301
0.808917
1.78366
1.78366
1.79475
1.79475
0.788985
0.788986
0.793967
0.793968
1.82239
1.91005
1.8336
1.92152
0.803878
0.838143
0.808917
0.843296
2.07176
2.15527
2.08359
2.16714
0.904797
0.942697
0.910195
0.948097
2.12923
2.04617
2.14244
2.05915
0.930949
0.893041
0.936931
0.89901
1.8854
1.79835
1.89797
1.81062
0.827034
0.793042
0.832703
0.79858
1.75993
1.75994
1.77206
1.77206
0.778276
0.778279
0.783753
0.783755
1.79838
1.88546
1.81064
1.89801
0.793052
0.827064
0.798588
0.832726
2.04616
2.12918
2.05911
2.14245
0.893128
0.931041
0.899078
0.936993
2.10087
2.0184
2.11534
2.0325
0.918268
0.880332
0.92473
0.886796
1.85867
1.77221
1.87229
1.78554
0.814935
0.781202
0.821107
0.787248
1.73407
1.73408
1.74727
1.74728
0.766558
0.766559
0.772543
0.772546
1.77222
1.85868
1.78556
1.87233
0.781206
0.814936
0.787255
0.821122
2.01853
2.10104
2.03257
2.11532
0.880312
0.918268
0.886822
0.924772
2.06999
1.98834
2.08561
2.00358
0.904312
0.866394
0.911396
0.873472
1.82965
1.74384
1.84443
1.7583
0.80176
0.768308
0.808475
0.774886
1.70602
1.70602
1.72033
1.72033
0.753789
0.75379
0.760305
0.760306
1.74385
1.82968
1.75831
1.84445
0.768309
0.801763
0.774888
0.808476
1.98836
2.07003
2.00364
2.08581
0.866424
0.904366
0.87347
0.91142
2.03627
1.95579
2.05343
1.97228
0.889201
0.85132
0.896893
0.858981
1.79827
1.71317
1.81425
1.7288
0.787448
0.754312
0.794747
0.761449
1.67568
1.67568
1.69114
1.69114
0.73993
0.739929
0.746997
0.746996
1.71317
1.79829
1.7288
1.81428
0.754307
0.787433
0.761446
0.794741
1.95599
2.03657
1.97239
2.05352
0.851287
0.889202
0.858982
0.896915
2.00038
1.92119
2.01844
1.93864
0.872878
0.835035
0.881152
0.843273
1.76453
1.68013
1.78167
1.69695
0.771975
0.739177
0.779843
0.746884
1.64299
1.64299
1.65963
1.65963
0.724943
0.724942
0.732577
0.732576
1.68013
1.76455
1.69695
1.78169
0.739175
0.771973
0.74688
0.779834
1.92131
2.00055
1.93881
2.01873
0.835045
0.872882
0.843265
0.88115
1.96165
1.88393
1.98133
1.90283
0.855272
0.817534
0.864226
0.826429
1.7283
1.64464
1.74673
1.6627
0.75533
0.722875
0.763801
0.731173
1.60786
1.60786
1.62573
1.62573
0.708791
0.708791
0.717013
0.717012
1.64464
1.7283
1.6627
1.74674
0.722873
0.755329
0.731172
0.7638
1.88394
1.96169
1.9029
1.98145
0.817535
0.855274
0.826434
0.864235
1.91957
1.84363
1.94095
1.86406
0.836205
0.798595
0.8459
0.808213
1.68937
1.60658
1.70916
1.62593
0.737418
0.705355
0.746527
0.714265
1.57021
1.57021
1.58935
1.58935
0.691439
0.691439
0.700265
0.700264
1.60658
1.68937
1.62593
1.70916
0.705354
0.737417
0.714264
0.746526
1.84363
1.91957
1.86407
1.94097
0.798594
0.836203
0.808212
0.845899
1.8744
1.80054
1.89728
1.82234
0.815746
0.778303
0.826121
0.788586
1.64778
1.56594
1.66889
1.58658
0.718245
0.686606
0.727982
0.696131
1.53001
1.53001
1.55043
1.55043
0.67287
0.67287
0.682305
0.682305
1.56594
1.64779
1.58658
1.66889
0.686606
0.718245
0.696131
0.727981
1.80054
1.8744
1.82235
1.89728
0.778303
0.815745
0.788585
0.82612
1.8264
1.7548
1.85067
1.77792
0.793985
0.756744
0.805005
0.767655
1.60359
1.52271
1.626
1.54465
0.697834
0.666625
0.708189
0.676768
1.48723
1.48723
1.50895
1.50895
0.653068
0.653068
0.663122
0.663122
1.52271
1.6036
1.54465
1.626
0.666626
0.697834
0.676768
0.708189
1.75481
1.82641
1.77793
1.85068
0.756745
0.793985
0.767655
0.805005
1.77567
1.70645
1.80131
1.73088
0.770944
0.733915
0.782605
0.745465
1.55678
1.47685
1.58051
1.50011
0.67617
0.64539
0.687155
0.656164
1.44181
1.44181
1.46486
1.46486
0.632007
0.632007
0.642695
0.642695
1.47685
1.55678
1.50011
1.58051
0.64539
0.67617
0.656164
0.687155
1.70645
1.77568
1.73088
1.80132
0.733915
0.770944
0.745465
0.782605
1.72224
1.65544
1.74923
1.68121
0.746614
0.709797
0.758924
0.721994
1.50726
1.42824
1.53235
1.45289
0.653219
0.622854
0.664853
0.634285
1.39362
1.39362
1.41807
1.41807
0.609636
0.609636
0.620987
0.620987
1.42824
1.50726
1.4529
1.53236
0.622854
0.65322
0.634286
0.664854
1.65544
1.72224
1.68121
1.74924
0.709797
0.746614
0.721994
0.758923
1.666
1.60163
1.69442
1.62882
0.720939
0.684351
0.733933
0.697221
1.45485
1.37668
1.48142
1.40284
0.628913
0.598936
0.641237
0.611072
1.34245
1.34245
1.36843
1.36843
0.585868
0.585868
0.597932
0.597932
1.37668
1.45485
1.40284
1.48142
0.598936
0.628913
0.611072
0.641237
1.60163
1.66601
1.62883
1.69442
0.684351
0.720939
0.697221
0.733932
1.60669
1.54468
1.6367
1.57351
0.693776
0.657478
0.70754
0.671079
1.39918
1.32178
1.42744
1.34968
0.603114
0.573486
0.616208
0.586413
1.28791
1.28791
1.31563
1.31563
0.56055
0.56055
0.573413
0.573413
1.32178
1.39918
1.34968
1.42745
0.573485
0.603114
0.586413
0.616208
1.54469
1.6067
1.57351
1.63671
0.657477
0.693776
0.671079
0.707539
1.54368
1.48382
1.57564
1.51476
0.66485
0.628979
0.679538
0.643426
1.33943
1.26281
1.36989
1.29287
0.575521
0.546214
0.589567
0.560101
1.22936
1.22936
1.25918
1.25918
0.533423
0.533423
0.547232
0.547231
1.26281
1.33943
1.29287
1.36989
0.546213
0.57552
0.560101
0.589567
1.48382
1.54369
1.51476
1.57565
0.628979
0.664849
0.643426
0.679537
1.47627
1.41641
1.51045
1.45122
0.633917
0.598204
0.649608
0.613964
1.27335
1.1984
1.30743
1.23139
0.545306
0.516565
0.560833
0.531731
1.16597
1.16597
1.19831
1.19831
0.50413
0.50413
0.519065
0.519065
1.1984
1.27335
1.23139
1.30743
0.516565
0.545306
0.531731
0.560832
1.41641
1.47627
1.45122
1.51045
0.598203
0.633916
0.613964
0.649607
1.40791
1.32722
1.44166
1.37703
0.600296
0.558637
0.617807
0.58066
1.19475
1.12703
1.23618
1.16358
0.50996
0.483866
0.528519
0.500602
1.09777
1.09777
1.13235
1.13235
0.472625
0.472625
0.48861
0.48861
1.12703
1.19475
1.16358
1.23618
0.483866
0.50996
0.500602
0.528518
1.32722
1.40791
1.37703
1.44167
0.558636
0.600295
0.580659
0.617806
2.70582
2.59937
2.51809
2.42846
2.35635
2.25395
2.15055
2.07161
2.41714
2.30184
2.2433
2.12796
2.06471
1.95009
1.88331
1.77063
2.24638
2.24638
2.07327
2.07327
1.89642
1.89642
1.71849
1.71849
2.30186
2.41716
2.12797
2.24333
1.9501
2.06472
1.77063
1.88332
2.59941
2.70588
2.4285
2.51813
2.25398
2.35638
2.07162
2.15058
2.93972
2.83212
2.84034
2.73222
2.58472
2.47884
2.49099
2.3851
2.65127
2.53693
2.54978
2.43456
2.28867
2.17364
2.19398
2.0785
2.4818
2.48181
2.37906
2.37907
2.11968
2.11968
2.02439
2.02439
2.53695
2.6513
2.43457
2.54981
2.17365
2.28869
2.07851
2.194
2.83217
2.93979
2.73227
2.8404
2.47887
2.58476
2.38513
2.49103
3.075
2.96924
3.01543
2.90877
2.70802
2.60338
2.65414
2.54888
2.79245
2.68058
2.73003
2.61692
2.41646
2.30341
2.36037
2.2463
2.62661
2.62662
2.56236
2.56237
2.25036
2.25036
2.19275
2.19276
2.6806
2.79249
2.61694
2.73006
2.30343
2.41649
2.24631
2.36039
2.96929
3.07507
2.90882
3.0155
2.60342
2.70806
2.54891
2.65418
3.16031
3.05624
3.12208
3.01723
2.78451
2.68113
2.75029
2.64632
2.88316
2.77361
2.84246
2.73183
2.49733
2.38624
2.46111
2.34909
2.72075
2.72076
2.67844
2.67845
2.33413
2.33414
2.29653
2.29654
2.77363
2.88319
2.73185
2.8425
2.38625
2.49736
2.34911
2.46113
3.05629
3.16038
3.01728
3.12215
2.68117
2.78456
2.64636
2.75034
3.2165
3.11379
3.19111
3.08778
2.83476
2.73242
2.81204
2.70922
2.94378
2.83617
2.91639
2.80788
2.55126
2.44181
2.52688
2.41667
2.78424
2.78425
2.75552
2.75553
2.3905
2.39051
2.36499
2.36499
2.83619
2.94382
2.8079
2.91643
2.44182
2.55128
2.41669
2.52691
3.11384
3.21657
3.08783
3.19117
2.73246
2.83481
2.70926
2.81208
3.25392
3.15228
3.23698
3.13485
2.86835
2.76684
2.85311
2.75123
2.98483
2.87883
2.96627
2.85953
2.58788
2.47981
2.5713
2.46259
2.82768
2.82768
2.80801
2.80802
2.42917
2.42917
2.41164
2.41164
2.87885
2.98487
2.85955
2.96631
2.47983
2.58791
2.46261
2.57132
3.15233
3.25399
3.13491
3.23705
2.76687
2.8684
2.75126
2.85316
3.2784
3.17759
3.26739
3.16621
2.89053
2.78965
2.88051
2.77935
3.01231
2.90766
2.99997
2.89469
2.61258
2.50567
2.60146
2.49401
2.85716
2.85717
2.84389
2.84389
2.45558
2.45558
2.44366
2.44366
2.90768
3.01234
2.89471
3.00001
2.50568
2.6126
2.49402
2.60148
3.17764
3.27847
3.16626
3.26746
2.78969
2.89057
2.77939
2.88056
3.29348
3.19332
3.28682
3.18637
2.90442
2.80403
2.89823
2.79763
3.02989
2.92641
3.02214
2.91811
2.62859
2.52268
2.62149
2.51512
2.87647
2.87648
2.86791
2.86792
2.47307
2.47308
2.46528
2.46529
2.92643
3.02993
2.91813
3.02217
2.5227
2.62861
2.51513
2.62151
3.19337
3.29355
3.18642
3.28688
2.80407
2.90447
2.79767
2.89828
3.30145
3.20179
3.29811
3.19824
2.91204
2.81201
2.90879
2.80861
3.03999
2.93753
3.03574
2.93281
2.63801
2.533
2.634
2.52857
2.88809
2.8881
2.88313
2.88313
2.48382
2.48382
2.47918
2.47919
2.93756
3.04003
2.93283
3.03577
2.53302
2.63804
2.52858
2.63402
3.20185
3.30153
3.19829
3.29818
2.81205
2.91209
2.80865
2.90884
3.30383
3.20455
3.30315
3.2037
2.91467
2.81491
2.91381
2.81393
3.04422
2.94268
3.04274
2.94077
2.64226
2.53807
2.64069
2.53612
2.89369
2.8937
2.89156
2.89157
2.48927
2.48928
2.48713
2.48714
2.94271
3.04427
2.9408
3.04278
2.5381
2.64231
2.53614
2.64073
3.20462
3.30393
3.20376
3.30322
2.81501
2.91479
2.81399
2.91387
3.30176
3.20276
3.30318
3.20406
2.91335
2.81377
2.91433
2.81469
3.04375
2.94305
3.04449
2.9434
2.64234
2.53891
2.64274
2.53896
2.89445
2.89446
2.89461
2.89463
2.49048
2.49049
2.49036
2.49037
2.94308
3.04381
2.94343
3.04454
2.53895
2.64242
2.53899
2.64281
3.20285
3.30187
3.20415
3.30329
2.81388
2.9135
2.81482
2.91451
3.29592
3.19711
3.29918
3.20029
2.90872
2.80919
2.91137
2.81183
3.03935
2.93945
3.04199
2.94171
2.63898
2.53628
2.64106
2.53801
2.89124
2.89125
2.89332
2.89333
2.48819
2.4882
2.48975
2.48976
2.93948
3.03941
2.94174
3.04204
2.53631
2.63903
2.53804
2.64111
3.19718
3.29602
3.20037
3.29928
2.80929
2.90883
2.81189
2.91142
3.2869
3.18825
3.29162
3.19292
2.90105
2.80169
2.90498
2.80558
3.03164
2.93247
3.03585
2.93635
2.63265
2.53065
2.63611
2.5338
2.88462
2.88463
2.88832
2.88833
2.4829
2.48291
2.48589
2.4859
2.93251
3.0317
2.93638
3.03591
2.53069
2.63271
2.53383
2.63616
3.18833
3.287
3.193
3.29171
2.8017
2.9011
2.80566
2.90514
3.2752
3.17655
3.28132
3.18267
2.89141
2.79193
2.89644
2.79703
3.02107
2.92259
3.02668
2.92788
2.62388
2.52249
2.62855
2.52688
2.87507
2.87508
2.88019
2.88021
2.47503
2.47504
2.47927
2.47928
2.92263
3.02113
2.92791
3.02674
2.52253
2.62394
2.52691
2.62861
3.17664
3.27532
3.18276
3.28142
2.79209
2.89156
2.7971
2.89646
3.26086
3.1623
3.2681
3.16956
2.87945
2.77995
2.88549
2.78605
3.00788
2.91008
3.01475
2.91664
2.6128
2.51201
2.61858
2.51752
2.86288
2.86289
2.86929
2.8693
2.46483
2.46484
2.47021
2.47022
2.91011
3.00794
2.91668
3.01481
2.51204
2.61286
2.51756
2.61864
3.16239
3.26096
3.16965
3.26822
2.77996
2.87948
2.78615
2.88568
3.24432
3.14575
3.25279
3.15421
2.86566
2.76597
2.87274
2.77314
2.99235
2.89517
3.00038
2.90292
2.59968
2.49941
2.60648
2.50597
2.84827
2.84829
2.85587
2.85589
2.45249
2.4525
2.45892
2.45893
2.89521
2.99242
2.90295
3.00044
2.49944
2.59973
2.506
2.60653
3.14584
3.24444
3.15429
3.25289
2.7661
2.86581
2.77319
2.87273
3.22577
3.12716
3.23515
3.13662
2.84974
2.74998
2.85777
2.75809
2.97457
2.87797
2.98372
2.88685
2.58449
2.48476
2.59231
2.49234
2.83136
2.83137
2.84011
2.84012
2.4381
2.43811
2.44555
2.44556
2.87801
2.97464
2.88689
2.98379
2.48479
2.58454
2.49236
2.59236
3.12726
3.22587
3.13671
3.23526
2.74996
2.84976
2.75816
2.85796
3.2048
3.10618
3.2155
3.11685
2.8319
2.73195
2.84102
2.74114
2.95455
2.85852
2.96483
2.86853
2.56731
2.46809
2.57614
2.47668
2.81218
2.81219
2.82206
2.82207
2.42168
2.42169
2.43014
2.43015
2.85855
2.95461
2.86857
2.96489
2.46812
2.56736
2.47671
2.57619
3.10626
3.20492
3.11694
3.21561
2.73209
2.83203
2.74119
2.84099
3.18171
3.08309
3.19339
3.09482
2.8119
2.7119
2.822
2.72206
2.93225
2.83678
2.94367
2.84794
2.54804
2.44936
2.55791
2.45898
2.79072
2.79073
2.80174
2.80175
2.40321
2.40322
2.4127
2.41271
2.8368
2.9323
2.84797
2.94373
2.4494
2.5481
2.45901
2.55797
3.08316
3.18179
3.0949
3.19348
2.71188
2.81189
2.72214
2.82216
3.15594
3.05742
3.16908
3.07047
2.78964
2.6896
2.80101
2.70095
2.90757
2.81269
2.92019
2.82503
2.52666
2.42853
2.53761
2.43922
2.76691
2.76692
2.77912
2.77912
2.38264
2.38265
2.3932
2.39321
2.81271
2.9076
2.82505
2.92024
2.42855
2.52669
2.43924
2.53765
3.05747
3.15602
3.07053
3.16916
2.68972
2.78976
2.70099
2.80096
3.12776
3.02942
3.14201
3.04364
2.76498
2.66511
2.77744
2.67752
2.88043
2.78615
2.89429
2.79973
2.50303
2.40549
2.51511
2.41729
2.74068
2.74069
2.75411
2.75412
2.35989
2.3599
2.37155
2.37155
2.78617
2.88045
2.79975
2.89432
2.4055
2.50304
2.4173
2.51513
3.02945
3.12778
3.04367
3.14206
2.66502
2.76491
2.67755
2.77758
3.09659
2.9986
3.11247
3.01425
2.73783
2.63815
2.75167
2.65184
2.85071
2.75709
2.86588
2.77195
2.47711
2.38018
2.49035
2.39313
2.71193
2.71194
2.72663
2.72664
2.33487
2.33487
2.34767
2.34767
2.7571
2.85072
2.77196
2.8659
2.38018
2.47711
2.39313
2.49035
2.99863
3.09664
3.01428
3.11251
2.63824
2.73789
2.65182
2.75155
3.06269
2.96518
3.07987
2.98216
2.70803
2.60874
2.72322
2.62373
2.81828
2.72535
2.83483
2.74156
2.4487
2.35243
2.46322
2.36662
2.68055
2.68055
2.69658
2.69658
2.30745
2.30746
2.32147
2.32147
2.72537
2.8183
2.74157
2.83485
2.35245
2.44873
2.36662
2.46322
2.96522
3.06273
2.98219
3.0799
2.60876
2.70805
2.62376
2.7233
3.02542
2.92864
3.0444
2.94719
2.67519
2.57655
2.69186
2.59287
2.78301
2.69085
2.80099
2.70845
2.4177
2.32217
2.43351
2.33762
2.64641
2.64641
2.66383
2.66383
2.27755
2.27755
2.29282
2.29282
2.69087
2.78304
2.70847
2.80102
2.32219
2.41774
2.33764
2.43355
2.92869
3.02549
2.94723
3.04446
2.57664
2.6753
2.59296
2.69192
2.98526
2.88935
3.00558
2.90928
2.63966
2.54188
2.6576
2.55941
2.74485
2.65348
2.76429
2.67253
2.38412
2.28933
2.40122
2.30608
2.60943
2.60943
2.62828
2.62829
2.24507
2.24508
2.26164
2.26164
2.65349
2.74488
2.67254
2.76432
2.28935
2.38414
2.30609
2.40125
2.88939
2.98529
2.90933
3.00563
2.54182
2.63962
2.55944
2.65769
2.94149
2.84673
2.96376
2.86836
2.60092
2.50415
2.62066
2.52329
2.70365
2.61312
2.72462
2.63368
2.34779
2.2538
2.36629
2.27191
2.56948
2.56949
2.58983
2.58984
2.20993
2.20993
2.22784
2.22784
2.61314
2.70367
2.63369
2.72465
2.25381
2.34782
2.27192
2.36632
2.84678
2.94157
2.8684
2.96382
2.50431
2.60108
2.52333
2.6206
2.89448
2.80111
2.91826
2.82422
2.55907
2.46368
2.58025
2.48419
2.65932
2.56968
2.68187
2.59179
2.3086
2.21547
2.32854
2.23499
2.52647
2.52648
2.54837
2.54837
2.17201
2.17201
2.19132
2.19132
2.56969
2.65934
2.59181
2.68189
2.21548
2.30862
2.235
2.32857
2.80114
2.89452
2.82426
2.91831
2.46365
2.55911
2.48426
2.58045
2.84397
2.7521
2.86958
2.77694
2.51415
2.42024
2.53689
2.44223
2.61174
2.52302
2.63593
2.54676
2.26651
2.17426
2.28791
2.19523
2.48027
2.48027
2.50378
2.50378
2.13122
2.13122
2.15198
2.15198
2.52303
2.61176
2.54677
2.63595
2.17426
2.26653
2.19523
2.28792
2.75213
2.84401
2.77697
2.86962
2.42029
2.51419
2.44222
2.53686
2.78961
2.6995
2.81718
2.72617
2.46588
2.37369
2.49034
2.39728
2.56072
2.47302
2.58666
2.49844
2.22137
2.13004
2.24432
2.15253
2.43076
2.43077
2.45594
2.45594
2.08746
2.08746
2.10972
2.10972
2.47302
2.56074
2.49845
2.58667
2.13004
2.22138
2.15253
2.24434
2.69952
2.78964
2.7262
2.81722
2.37371
2.46593
2.39733
2.49042
2.7313
2.64322
2.76084
2.67173
2.41381
2.32362
2.44023
2.34899
2.50618
2.41957
2.53388
2.44673
2.17298
2.0827
2.19757
2.10676
2.37785
2.37785
2.40474
2.40474
2.04063
2.04063
2.06443
2.06444
2.41958
2.50619
2.44673
2.5339
2.0827
2.17298
2.10676
2.19757
2.64324
2.73133
2.67176
2.76087
2.32363
2.41383
2.34901
2.44025
2.66918
2.58333
2.70061
2.61364
2.3581
2.27019
2.38629
2.29723
2.44809
2.36262
2.47757
2.39153
2.12136
2.0322
2.14755
2.05784
2.32145
2.32145
2.35009
2.35009
1.99067
1.99067
2.01604
2.01604
2.36262
2.4481
2.39154
2.47758
2.0322
2.12136
2.05785
2.14756
2.58335
2.66921
2.61366
2.70064
2.27021
2.35811
2.29724
2.38631
2.60337
2.51988
2.63664
2.55197
2.299
2.21354
2.32887
2.24218
2.38643
2.3021
2.4177
2.33281
2.06653
1.9785
2.09433
2.00575
2.26148
2.26149
2.29192
2.29192
1.93751
1.93752
1.96449
1.96449
2.3021
2.38644
2.33281
2.41771
1.97851
2.06653
2.00575
2.09434
2.5199
2.6034
2.55199
2.63667
2.21355
2.29902
2.24219
2.32888
2.53392
2.45285
2.56901
2.48674
2.2366
2.15367
2.26812
2.18392
2.32112
2.23788
2.35423
2.27046
2.00844
1.92152
2.03788
1.95043
2.1978
2.19781
2.23012
2.23012
1.88106
1.88107
1.90971
1.90971
2.23789
2.32113
2.27047
2.35424
1.92153
2.00844
1.95043
2.03789
2.45286
2.53394
2.48675
2.56903
2.15368
2.23662
2.18394
2.26814
2.46078
2.38212
2.49773
2.41787
2.17089
2.09051
2.20408
2.12243
2.25199
2.16977
2.28704
2.20433
1.94696
1.86109
1.97812
1.89175
2.13019
2.13019
2.16451
2.16451
1.82113
1.82113
1.85155
1.85155
2.16978
2.252
2.20434
2.28705
1.86109
1.94696
1.89175
1.97813
2.38213
2.4608
2.41789
2.49775
2.09052
2.17091
2.12244
2.20409
2.38381
2.30746
2.4227
2.34522
2.10175
2.02385
2.13668
2.05755
2.17873
2.09741
2.21589
2.13415
1.88182
1.7969
1.91486
1.82949
2.05827
2.05827
2.09479
2.0948
1.75741
1.75741
1.78977
1.78977
2.09741
2.17873
2.13415
2.2159
1.79691
1.88182
1.82949
1.91486
2.30747
2.38383
2.34524
2.42273
2.02386
2.10177
2.05756
2.13669
2.3026
2.22838
2.34368
2.26843
2.02882
1.95326
2.06571
1.98901
2.10076
2.02021
2.14037
2.05946
1.81251
1.72844
1.84772
1.76325
1.98146
1.98147
2.02052
2.02052
1.68936
1.68936
1.72396
1.72396
2.02021
2.10077
2.05946
2.14038
1.72844
1.81251
1.76325
1.84773
2.22839
2.30262
2.26845
2.3437
1.95326
2.02883
1.98902
2.06572
2.21644
2.14387
2.26011
2.18683
1.95136
1.87769
1.99064
1.91612
2.01701
1.93722
2.0597
1.97951
1.73796
1.65476
1.77598
1.69232
1.89895
1.89895
1.94098
1.94098
1.6162
1.61621
1.65348
1.65348
1.93722
2.01702
1.97952
2.05971
1.65476
1.73796
1.69233
1.77598
2.14388
2.21646
2.18684
2.26013
1.8777
1.95137
1.91613
1.99065
2.12476
2.05112
2.17117
2.0988
1.86839
1.79409
1.91049
1.83721
1.92502
1.84698
1.97228
1.8931
1.65558
1.57435
1.698
1.61551
1.80987
1.80987
1.85525
1.85525
1.53703
1.53703
1.5774
1.5774
1.84699
1.92503
1.8931
1.97229
1.57435
1.65558
1.61551
1.69801
2.05113
2.12478
2.09881
2.17118
1.79409
1.8684
1.83722
1.9105
2.03119
1.93596
2.07779
1.99859
1.78237
1.6867
1.8254
1.74584
1.81943
1.74863
1.87434
1.79873
1.55934
1.48601
1.60968
1.53111
1.71483
1.71483
1.76291
1.76291
1.45219
1.45219
1.49515
1.49515
1.74863
1.81943
1.79873
1.87435
1.48601
1.55934
1.53111
1.60968
1.93597
2.03121
1.9986
2.0778
1.68671
1.78238
1.74585
1.82541
3.19575
3.09529
3.02995
2.94114
2.97519
2.87098
2.80025
2.70964
2.9344
2.82886
2.77431
2.66621
2.69946
2.58837
2.53316
2.42047
2.77683
2.77683
2.61357
2.61358
2.53409
2.53409
2.36616
2.36617
2.82889
2.93445
2.66623
2.77436
2.5884
2.6995
2.42049
2.53319
3.09536
3.19585
2.9412
3.03003
2.87103
2.97527
2.70969
2.80031
3.426
3.32671
3.3243
3.22395
3.20824
3.10432
3.1069
3.00212
3.16969
3.06694
3.06466
2.96045
2.93574
2.8267
2.83152
2.72126
3.01624
3.01625
2.90905
2.90906
2.77333
2.77334
2.66732
2.66733
3.06697
3.16975
2.96048
3.06471
2.82673
2.93578
2.72128
2.83156
3.32679
3.4261
3.22403
3.3244
3.10439
3.20832
3.00219
3.10697
3.57239
3.47543
3.50693
3.40886
3.3505
3.24874
3.28735
3.18455
3.32314
3.2234
3.25435
3.15315
3.08467
2.97845
3.01833
2.91074
3.17414
3.17415
3.10318
3.1032
2.92641
2.92642
2.85804
2.85804
3.22343
3.3232
3.15318
3.2544
2.97848
3.08472
2.91076
3.01838
3.47551
3.57249
3.40894
3.50703
3.2488
3.35059
3.18461
3.28743
3.66842
3.57344
3.62514
3.52924
3.44201
3.34215
3.4009
3.30015
3.42525
3.32813
3.37919
3.28085
3.18206
3.07837
3.13826
3.03338
3.28015
3.28016
3.23226
3.23227
3.02755
3.02756
2.98198
2.98199
3.32816
3.4253
3.28088
3.37925
3.0784
3.18211
3.03341
3.1383
3.57352
3.66852
3.52932
3.62524
3.34222
3.4421
3.30022
3.40098
3.73258
3.6392
3.70356
3.60945
3.50266
3.40431
3.47525
3.37621
3.49435
3.3994
3.46309
3.36713
3.24751
3.14591
3.21793
3.11535
3.35247
3.35248
3.31971
3.31972
3.09611
3.09611
3.06508
3.06509
3.39943
3.49441
3.36716
3.46315
3.14593
3.24755
3.11538
3.21797
3.63928
3.73269
3.60953
3.70366
3.40438
3.50275
3.37627
3.47533
3.7754
3.68326
3.75606
3.66335
3.54304
3.44589
3.52479
3.42709
3.54118
3.44801
3.52004
3.42604
3.29179
3.19193
3.27179
3.17112
3.40196
3.40197
3.37958
3.37959
3.14297
3.14298
3.12177
3.12177
3.44804
3.54123
3.42607
3.52009
3.19195
3.29184
3.17115
3.27184
3.68334
3.7755
3.66343
3.75616
3.44595
3.54312
3.42716
3.52487
3.8032
3.71205
3.79076
3.69917
3.56933
3.47311
3.55754
3.4609
3.57229
3.48062
3.55837
3.46601
3.3213
3.22289
3.30808
3.20899
3.43531
3.43532
3.42035
3.42036
3.17464
3.17464
3.16041
3.16041
3.48065
3.57234
3.46604
3.55843
3.22291
3.32134
3.20902
3.30812
3.71213
3.8033
3.69924
3.79086
3.47317
3.56941
3.46096
3.55762
3.82002
3.72964
3.81267
3.72195
3.58534
3.48985
3.5783
3.48249
3.59185
3.50147
3.58329
3.49231
3.33999
3.24283
3.33178
3.23404
3.45678
3.45679
3.44732
3.44734
3.19519
3.19519
3.18611
3.18612
3.5015
3.59191
3.49234
3.58334
3.24286
3.34004
3.23406
3.33182
3.72971
3.82012
3.72202
3.81276
3.48991
3.58542
3.48256
3.57838
3.82851
3.73873
3.82505
3.73501
3.59358
3.49866
3.59018
3.49501
3.60266
3.51338
3.59819
3.5084
3.3505
3.25443
3.34612
3.24954
3.46924
3.46925
3.464
3.46401
3.20731
3.20732
3.20217
3.20218
3.51341
3.60271
3.50843
3.59824
3.25445
3.35055
3.24956
3.34616
3.73881
3.82861
3.73508
3.82514
3.49873
3.59366
3.49508
3.59025
3.83048
3.74117
3.83011
3.74059
3.59573
3.50125
3.59521
3.50054
3.60661
3.51832
3.60538
3.51663
3.35461
3.2595
3.35324
3.25769
3.47466
3.47467
3.47274
3.47275
3.21286
3.21287
3.21082
3.21083
3.51835
3.60667
3.51666
3.60543
3.25953
3.35466
3.25771
3.35329
3.74125
3.83058
3.74067
3.8302
3.50133
3.59583
3.50061
3.59529
3.82726
3.7383
3.82936
3.74025
3.59304
3.49888
3.59482
3.50053
3.60509
3.51767
3.60645
3.51862
3.35359
3.25935
3.35465
3.26001
3.47444
3.47446
3.47519
3.4752
3.21313
3.21314
3.21359
3.2136
3.51771
3.60515
3.51865
3.60651
3.25938
3.35364
3.26004
3.3547
3.73838
3.82736
3.74033
3.82946
3.49896
3.59314
3.50061
3.59492
3.81969
3.73099
3.82386
3.73506
3.58626
3.49235
3.59
3.49599
3.59901
3.51239
3.60255
3.51556
3.3483
3.25487
3.35141
3.25761
3.46956
3.46957
3.47254
3.47255
3.20905
3.20906
3.2116
3.21161
3.51243
3.59906
3.5156
3.60261
3.2549
3.34835
3.25764
3.35147
3.73107
3.81979
3.73514
3.82396
3.49242
3.58636
3.49607
3.5901
3.80847
3.71995
3.81439
3.72581
3.57607
3.48231
3.58145
3.48764
3.58909
3.50321
3.59448
3.50825
3.33941
3.24672
3.34425
3.25122
3.46074