/*--------------------------------*- C++ -*----------------------------------*\
  =========                 |
  \\      /  F ield         | OpenFOAM: The Open Source CFD Toolbox
   \\    /   O peration     | Website:  https://openfoam.org
    \\  /    A nd           | Version:  9
     \\/     M anipulation  |
\*---------------------------------------------------------------------------*/
FoamFile
{
    format      ascii;
    class       volScalarField;
    location    "5";
    object      nut;
}
// * * * * * * * * * * * * * * * * * * * * * * * * * * * * * * * * * * * * * //

dimensions      [0 2 -1 0 0 0 0];

internalField   nonuniform List<scalar> 
36360
(
0.0241525
0.0243693
0.0230744
0.0233348
0.00260068
0.00256099
0.00224436
0.00236244
0.0238645
0.0236256
0.0228133
0.0225924
0.00243475
0.00236205
0.00221406
0.00212465
0.023539
0.0235389
0.0225225
0.0225224
0.00232936
0.00232936
0.00208669
0.00208669
0.0236254
0.0238642
0.0225923
0.022813
0.00236205
0.00243474
0.00212465
0.00221406
0.024369
0.0241519
0.0233344
0.0230736
0.00256099
0.00260068
0.00236244
0.00224435
0.0252658
0.0255787
0.0247721
0.0250537
0.0027728
0.00271297
0.0027127
0.00265423
0.0251498
0.0249151
0.0245944
0.0243508
0.00259001
0.00252194
0.00252898
0.00245931
0.0248164
0.0248164
0.0242548
0.0242547
0.00249134
0.00249134
0.00242795
0.00242795
0.024915
0.0251496
0.0243507
0.0245942
0.00252194
0.00259002
0.00245932
0.00252898
0.0255784
0.0252653
0.0250534
0.0247715
0.00271297
0.0027728
0.00265423
0.00271269
0.0260326
0.0263451
0.0256846
0.0259998
0.00284634
0.00278678
0.00281453
0.00275477
0.0259418
0.0257245
0.0255869
0.0253624
0.00266809
0.00260289
0.0026342
0.00256765
0.0256302
0.0256302
0.0252648
0.0252648
0.00257361
0.00257361
0.00253774
0.00253774
0.0257244
0.0259416
0.0253623
0.0255867
0.00260289
0.00266809
0.00256765
0.0026342
0.0263448
0.0260322
0.0259995
0.025684
0.00278678
0.00284634
0.00275477
0.00281453
0.0265552
0.0268655
0.0263182
0.0266287
0.00289123
0.00283233
0.0028712
0.00281194
0.0264748
0.0262662
0.0262326
0.0260203
0.00271649
0.00265342
0.00269484
0.00263081
0.0261796
0.0261796
0.02593
0.0259299
0.00262517
0.00262517
0.00260209
0.00260209
0.0262661
0.0264746
0.0260202
0.0262325
0.00265342
0.0027165
0.00263081
0.00269485
0.0268653
0.0265548
0.0266284
0.0263177
0.00283234
0.00289123
0.00281194
0.00287121
0.0269172
0.0272291
0.0267519
0.0270626
0.00292076
0.00286261
0.00290741
0.00284888
0.0268453
0.0266431
0.0266758
0.0264707
0.00274884
0.00268721
0.0027342
0.00267191
0.0265624
0.0265624
0.0263874
0.0263874
0.00265972
0.00265973
0.00264407
0.00264407
0.026643
0.0268452
0.0264706
0.0266756
0.00268722
0.00274884
0.00267191
0.0027342
0.0272289
0.0269168
0.0270623
0.0267514
0.00286261
0.00292077
0.00284889
0.00290741
0.0271724
0.0274871
0.0270555
0.0273686
0.00294076
0.00288325
0.00293167
0.00287385
0.027109
0.026911
0.0269878
0.026788
0.002771
0.00271047
0.00276092
0.0026999
0.0268332
0.0268332
0.0267089
0.0267089
0.00268356
0.00268357
0.00267272
0.00267272
0.0269109
0.0271089
0.0267879
0.0269877
0.00271048
0.002771
0.0026999
0.00276093
0.0274869
0.027172
0.0273683
0.027055
0.00288326
0.00294077
0.00287385
0.00293167
0.0273532
0.0276699
0.0272704
0.027586
0.00295422
0.0028973
0.00294814
0.00289092
0.0272969
0.027102
0.0272107
0.0270144
0.00278622
0.00272655
0.00277932
0.00271925
0.0270258
0.0270258
0.0269375
0.0269375
0.00270007
0.00270007
0.00269258
0.00269258
0.0271019
0.0272968
0.0270143
0.0272106
0.00272655
0.00278623
0.00271926
0.00277932
0.0276697
0.0273529
0.0275858
0.02727
0.00289731
0.00295426
0.00289092
0.00294815
0.0274787
0.0277966
0.027422
0.0277389
0.00296305
0.00290658
0.00295908
0.00290239
0.0274283
0.0272357
0.0273684
0.0271747
0.00279643
0.00273743
0.00279184
0.00273254
0.0271604
0.0271603
0.027099
0.027099
0.00271129
0.00271129
0.00270623
0.00270623
0.0272356
0.0274282
0.0271747
0.0273683
0.00273743
0.00279643
0.00273254
0.00279185
0.0277965
0.0274784
0.0277387
0.0274214
0.00290659
0.00296306
0.0029024
0.00295913
0.0275613
0.0278801
0.0275239
0.0278426
0.00296839
0.00291227
0.00296605
0.00290978
0.0275161
0.0273253
0.0274767
0.0272851
0.00280286
0.00274441
0.00280004
0.00274134
0.0272504
0.0272503
0.02721
0.02721
0.00271854
0.00271854
0.00271534
0.00271534
0.0273252
0.027516
0.027285
0.0274766
0.00274441
0.00280287
0.00274134
0.00280005
0.02788
0.0275614
0.0278426
0.0275242
0.00291229
0.00296847
0.00290978
0.00296606
0.0276103
0.0279291
0.0275896
0.0279082
0.00297102
0.00291508
0.00296998
0.00291397
0.0275693
0.02738
0.0275463
0.0273563
0.00280632
0.00274832
0.00280491
0.0027467
0.0273051
0.0273051
0.0272814
0.0272814
0.00272269
0.0027227
0.00272095
0.00272096
0.0273799
0.0275691
0.0273562
0.0275461
0.00274834
0.00280635
0.00274671
0.00280492
0.0279294
0.0276109
0.0279078
0.0275893
0.00291515
0.00297109
0.00291399
0.00297006
0.0276357
0.0279534
0.027624
0.0279428
0.00297146
0.00291555
0.0029714
0.00291551
0.0275947
0.0274063
0.0275849
0.0273962
0.00280736
0.00274977
0.00280709
0.00274932
0.0273313
0.0273312
0.0273212
0.0273211
0.00272436
0.00272437
0.0027238
0.00272381
0.0274059
0.0275937
0.0273959
0.0275844
0.00274979
0.00280741
0.00274934
0.00280715
0.0279499
0.0276328
0.0279424
0.0276248
0.00291566
0.00297156
0.00291565
0.00297156
0.0276356
0.0279505
0.0276396
0.0279553
0.00297017
0.00291432
0.00297106
0.00291515
0.0275967
0.0274091
0.0275988
0.0274105
0.00280653
0.00274925
0.00280717
0.00274972
0.0273336
0.0273334
0.0273349
0.0273348
0.00272401
0.00272402
0.00272439
0.0027244
0.0274085
0.0275954
0.0274099
0.0275975
0.00274926
0.00280653
0.00274973
0.00280719
0.0279505
0.0276353
0.0279522
0.0276356
0.00291428
0.00297015
0.00291516
0.00297106
0.0276109
0.0279248
0.027625
0.0279395
0.00296724
0.00291133
0.00296883
0.00291295
0.0275756
0.02739
0.0275882
0.0274017
0.00280392
0.00274693
0.0028054
0.00274828
0.0273145
0.0273144
0.0273262
0.027326
0.00272186
0.00272187
0.00272314
0.00272314
0.0273897
0.027575
0.0274012
0.0275873
0.00274695
0.00280397
0.00274829
0.00280542
0.0279243
0.0276113
0.0279398
0.0276263
0.00291145
0.00296733
0.002913
0.00296887
0.0275756
0.0278855
0.0275948
0.0279069
0.00296306
0.00290708
0.00296525
0.00290932
0.0275373
0.0273527
0.0275585
0.0273734
0.00279992
0.00274313
0.00280208
0.0027452
0.0272771
0.027277
0.0272977
0.0272977
0.00271819
0.0027182
0.0027202
0.00272021
0.0273525
0.0275363
0.0273731
0.0275576
0.00274314
0.00279995
0.00274522
0.00280211
0.0278828
0.0275713
0.0279055
0.0275932
0.00290708
0.00296294
0.00290937
0.00296525
0.0275172
0.027826
0.0275478
0.0278569
0.00295757
0.00290148
0.00296043
0.00290438
0.0274799
0.027298
0.0275103
0.0273272
0.00279459
0.00273795
0.0027974
0.0027407
0.0272226
0.0272226
0.0272516
0.0272516
0.00271313
0.00271314
0.00271583
0.00271583
0.0272979
0.0274801
0.027327
0.02751
0.00273797
0.00279463
0.00274071
0.00279743
0.027825
0.0275162
0.0278553
0.0275457
0.0029016
0.00295761
0.00290444
0.00296039
0.0274499
0.0277537
0.0274852
0.0277914
0.00295104
0.00289478
0.00295438
0.00289822
0.0274088
0.0272278
0.0274459
0.0272646
0.00278803
0.0027315
0.00279145
0.00273488
0.0271525
0.0271525
0.0271893
0.0271892
0.00270676
0.00270677
0.0027101
0.00271011
0.0272277
0.0274086
0.0272645
0.0274461
0.00273151
0.00278803
0.00273489
0.00279147
0.0277558
0.027451
0.0277911
0.0274834
0.00289476
0.00295102
0.00289827
0.00295439
0.0273612
0.027663
0.0274079
0.0277102
0.00294324
0.0028868
0.00294731
0.0028909
0.0273213
0.027142
0.0273666
0.0271866
0.00278022
0.00272379
0.00278427
0.0027278
0.0270671
0.0270671
0.0271115
0.0271114
0.00269913
0.00269913
0.0027031
0.0027031
0.027142
0.0273215
0.0271865
0.0273667
0.00272381
0.00278024
0.00272781
0.00278428
0.0276649
0.0273649
0.0277125
0.0274109
0.00288688
0.00294337
0.00289093
0.0029473
0.0272668
0.0275636
0.027315
0.0276146
0.00293427
0.00287759
0.00293884
0.0028823
0.0272203
0.027041
0.0272725
0.0270932
0.00277114
0.00271483
0.00277582
0.00271947
0.0269666
0.0269666
0.0270185
0.0270185
0.00269022
0.00269022
0.00269483
0.00269483
0.027041
0.0272196
0.0270932
0.0272722
0.00271485
0.00277116
0.00271948
0.00277585
0.0275616
0.0272645
0.027615
0.0273163
0.00287757
0.00293431
0.00288232
0.00293896
0.0271512
0.0274446
0.0272107
0.0275055
0.00292409
0.0028671
0.0029293
0.00287246
0.0271025
0.0269241
0.0271631
0.0269843
0.00276078
0.0027046
0.00276611
0.00270987
0.0268507
0.0268507
0.0269104
0.0269104
0.00268
0.00268001
0.00268527
0.00268528
0.0269241
0.0271025
0.0269843
0.0271628
0.00270462
0.00276084
0.00270989
0.00276616
0.0274439
0.0271491
0.0275041
0.0272084
0.00286723
0.00292419
0.00287252
0.00292938
0.0270217
0.0273125
0.0270875
0.0273795
0.00291258
0.00285529
0.0029185
0.00286133
0.0269691
0.026791
0.0270378
0.0268595
0.00274911
0.00269302
0.0027551
0.00269898
0.026719
0.0267189
0.0267867
0.0267866
0.00266842
0.00266842
0.00267438
0.00267439
0.0267909
0.0269688
0.0268594
0.0270378
0.00269302
0.00274912
0.00269899
0.00275514
0.0273137
0.0270225
0.02738
0.0270865
0.00285528
0.00291257
0.00286139
0.00291854
0.0268722
0.0271601
0.0269501
0.0272387
0.00289949
0.00284191
0.00290618
0.00284872
0.0268166
0.0266403
0.0268949
0.0267177
0.002736
0.00268001
0.00274272
0.00268669
0.0265705
0.0265705
0.0266467
0.0266466
0.00265538
0.00265538
0.00266208
0.00266208
0.0266403
0.0268169
0.0267176
0.0268949
0.00268001
0.002736
0.00268669
0.00274272
0.0271636
0.0268771
0.0272401
0.0269519
0.00284191
0.00289955
0.00284871
0.00290615
0.0267074
0.0269925
0.0267911
0.0270781
0.00288505
0.0028272
0.00289239
0.00283472
0.0266465
0.0264713
0.0267337
0.026558
0.00272142
0.00266549
0.0027289
0.00267294
0.0264036
0.0264036
0.0264894
0.0264894
0.0026408
0.0026408
0.00264828
0.00264828
0.0264713
0.0266461
0.026558
0.0267335
0.00266549
0.00272141
0.00267294
0.00272888
0.0269932
0.0267076
0.02708
0.0267944
0.00282711
0.00288505
0.00283464
0.00289246
0.0265203
0.0268037
0.0266158
0.0268998
0.00286898
0.0028107
0.00287714
0.00281912
0.0264557
0.0262811
0.0265533
0.0263786
0.00270519
0.00264932
0.00271351
0.00265762
0.0262144
0.0262145
0.0263115
0.0263116
0.00262467
0.00262467
0.00263295
0.00263295
0.0262813
0.0264562
0.0263787
0.0265538
0.00264933
0.0027052
0.00265762
0.0027135
0.0268061
0.0265251
0.0269031
0.0266198
0.00281072
0.00286901
0.00281909
0.00287722
0.0263145
0.0265977
0.0264188
0.026702
0.00285106
0.0027924
0.0028602
0.00280171
0.0262452
0.0260703
0.0263527
0.0261781
0.00268721
0.00263141
0.0026964
0.00264058
0.0260039
0.0260039
0.0261116
0.0261116
0.0026068
0.0026068
0.00261595
0.00261596
0.0260703
0.0262449
0.0261782
0.0263528
0.00263143
0.00268726
0.00264059
0.00269644
0.0265927
0.0263091
0.0267007
0.0264197
0.00279251
0.00285116
0.0028018
0.00286029
0.0260859
0.0263693
0.0262046
0.0264866
0.00283154
0.00277244
0.00284156
0.00278261
0.0260138
0.0258381
0.0261321
0.0259567
0.00266748
0.00261169
0.00267756
0.00262178
0.0257716
0.0257715
0.0258903
0.0258903
0.0025871
0.0025871
0.00259718
0.00259718
0.0258376
0.0260129
0.0259565
0.0261312
0.0026117
0.00266748
0.00262179
0.00267759
0.0263685
0.0260831
0.0264825
0.0261969
0.00277242
0.00283154
0.00278265
0.00284152
0.0258317
0.0261172
0.025962
0.0262463
0.00280993
0.0027504
0.00282087
0.00276161
0.0257594
0.0255827
0.0258894
0.0257131
0.00264583
0.00259005
0.00265689
0.00260111
0.0255162
0.0255161
0.0256466
0.0256465
0.00256546
0.00256546
0.00257652
0.00257652
0.0255824
0.0257587
0.0257127
0.0258885
0.00259005
0.00264583
0.00260111
0.00265689
0.026117
0.0258318
0.0262467
0.0259624
0.00275044
0.00281005
0.00276161
0.00282099
0.0255511
0.0258426
0.0256938
0.0259822
0.00278625
0.00272633
0.00279836
0.00273859
0.0254792
0.0253031
0.0256224
0.0254458
0.0026221
0.00256635
0.00263423
0.00257846
0.0252368
0.0252367
0.0253794
0.0253793
0.00254176
0.00254176
0.00255387
0.00255387
0.0253028
0.0254788
0.0254455
0.0256219
0.00256634
0.00262208
0.00257845
0.00263422
0.0258412
0.0255518
0.0259817
0.0256949
0.00272632
0.00278639
0.00273861
0.00279845
0.0252514
0.0255459
0.0254039
0.0256965
0.00276067
0.00270016
0.00277365
0.00271343
0.0251749
0.0249984
0.0253298
0.0251537
0.00259621
0.00254047
0.00260941
0.00255368
0.0249322
0.0249321
0.0250875
0.0250874
0.00251589
0.00251589
0.0025291
0.0025291
0.0249984
0.025175
0.0251535
0.0253297
0.00254046
0.00259621
0.00255367
0.0026094
0.0255472
0.0252518
0.0256957
0.0254029
0.00270019
0.00276069
0.00271345
0.00277373
0.0249243
0.0252243
0.0250904
0.0253874
0.00273269
0.00267172
0.00274695
0.00268621
0.0248453
0.0246678
0.0250131
0.0248362
0.00256807
0.0025123
0.00258243
0.00252668
0.0246013
0.0246012
0.0247699
0.0247698
0.0024877
0.0024877
0.00250209
0.00250209
0.0246677
0.0248453
0.0248362
0.0250132
0.00251229
0.00256807
0.00252667
0.00258243
0.0252244
0.0249248
0.0253886
0.0250918
0.00267172
0.00273269
0.00268623
0.00274697
0.0245707
0.0248756
0.024751
0.025053
0.00270206
0.00264059
0.00271767
0.00265645
0.0244888
0.02431
0.0246702
0.0244921
0.00253744
0.00248166
0.00255306
0.00249729
0.0242431
0.0242431
0.0244255
0.0244254
0.00245706
0.00245706
0.00247269
0.00247269
0.0243099
0.0244887
0.0244921
0.0246702
0.00248166
0.00253744
0.00249729
0.00255306
0.0248755
0.0245704
0.0250529
0.0247508
0.00264059
0.00270205
0.00265645
0.00271767
0.0241885
0.0244996
0.0243829
0.0246907
0.0026688
0.00260683
0.00268572
0.00262399
0.0241045
0.023924
0.0243
0.0241204
0.00250424
0.00244846
0.00252115
0.00246538
0.0238567
0.0238567
0.0240533
0.0240533
0.00242384
0.00242384
0.00244078
0.00244078
0.023924
0.0241044
0.0241203
0.0242998
0.00244846
0.00250423
0.00246538
0.00252115
0.0244995
0.0241882
0.0246905
0.0243826
0.00260683
0.00266879
0.00262399
0.00268571
0.0237778
0.0240958
0.0239866
0.0243009
0.00263296
0.00257047
0.00265117
0.00258893
0.0236915
0.0235089
0.0239015
0.02372
0.00246839
0.00241257
0.00248664
0.00243085
0.0234408
0.0234408
0.0236523
0.0236523
0.00238791
0.00238791
0.00240622
0.00240622
0.0235088
0.0236914
0.02372
0.0239014
0.00241257
0.00246839
0.00243085
0.00248664
0.0240957
0.0237775
0.0243008
0.0239863
0.00257047
0.00263296
0.00258893
0.00265117
0.0233369
0.0236619
0.023561
0.0238824
0.00259447
0.0025314
0.00261402
0.00255124
0.0232479
0.0230627
0.0234735
0.0232896
0.00242978
0.00237383
0.00244943
0.00239356
0.0229936
0.0229936
0.023221
0.023221
0.00234909
0.00234909
0.00236887
0.00236887
0.0230627
0.0232478
0.0232896
0.0234734
0.00237383
0.00242978
0.00239356
0.00244943
0.0236617
0.0233367
0.0238823
0.0235608
0.0025314
0.00259447
0.00255124
0.00261402
0.0228635
0.0231953
0.0231042
0.0234325
0.0025532
0.00248946
0.00257417
0.00251076
0.0227713
0.0225832
0.0230137
0.0228271
0.00238818
0.00233202
0.00240936
0.00235332
0.0225128
0.0225128
0.0227574
0.0227574
0.00230714
0.00230714
0.00232852
0.00232852
0.0225831
0.0227712
0.0228271
0.0230136
0.00233202
0.00238818
0.00235332
0.00240936
0.0231952
0.0228633
0.0234324
0.023104
0.00248946
0.0025532
0.00251076
0.00257416
0.0223541
0.0226926
0.0226134
0.0229484
0.00250892
0.00244442
0.00253143
0.0024673
0.0222585
0.022067
0.0225194
0.0223297
0.00234333
0.0022868
0.00236618
0.00230985
0.0219951
0.0219951
0.0222586
0.0222586
0.00226172
0.00226172
0.00228488
0.00228488
0.022067
0.0222584
0.0223297
0.0225194
0.0022868
0.00234333
0.00230985
0.00236618
0.0226925
0.0223539
0.0229483
0.0226132
0.00244442
0.00250892
0.0024673
0.00253143
0.0218032
0.0221487
0.0220841
0.0224258
0.0024612
0.00239595
0.00248549
0.00242061
0.0217051
0.0215097
0.021987
0.0217937
0.00229476
0.00223769
0.00231954
0.00226277
0.0214357
0.0214357
0.0217208
0.0217208
0.00221231
0.00221231
0.00223755
0.00223755
0.0215096
0.0217051
0.0217937
0.021987
0.00223769
0.00229476
0.00226277
0.00231954
0.0221486
0.021803
0.0224257
0.0220839
0.00239595
0.0024612
0.0024206
0.00248549
0.0212032
0.0215562
0.0215096
0.0218587
0.00240934
0.00234345
0.00243581
0.00237021
0.0211039
0.0209035
0.021411
0.0212131
0.00224165
0.00218383
0.00226884
0.00221142
0.0208275
0.0208275
0.0211381
0.0211381
0.00215811
0.00215811
0.00218587
0.00218587
0.0209035
0.0211039
0.0212131
0.0214109
0.00218383
0.00224165
0.00221142
0.00226884
0.0215561
0.021203
0.0218586
0.0215094
0.00234345
0.00240934
0.00237021
0.00243581
0.0205555
0.0209018
0.0208834
0.0212379
0.00235262
0.0022854
0.00238156
0.00231531
0.0204394
0.0202361
0.0207811
0.0205783
0.00218201
0.00212373
0.00221286
0.00215468
0.0201606
0.0201606
0.0205018
0.0205018
0.00209802
0.00209802
0.00212887
0.00212887
0.0202361
0.0204393
0.0205783
0.020781
0.00212373
0.00218201
0.00215468
0.00221286
0.0209017
0.0205553
0.0212378
0.0208832
0.00228539
0.00235262
0.0023153
0.00238156
0.0199382
0.0201257
0.0202341
0.0205378
0.00228939
0.00220852
0.00232254
0.00225163
0.0196748
0.0194936
0.020072
0.0198742
0.00211011
0.00205542
0.00214816
0.00209066
0.0194297
0.0194297
0.0198026
0.0198026
0.0020314
0.0020314
0.00206547
0.00206547
0.0194936
0.0196747
0.0198741
0.0200719
0.00205542
0.00211011
0.00209066
0.00214816
0.0201256
0.019938
0.0205377
0.0202339
0.00220852
0.00228938
0.00225163
0.00232254
0.0623074
0.0621524
0.0593792
0.0594202
0.0449796
0.0449643
0.0428155
0.0429483
0.0618588
0.0618887
0.0590544
0.0590453
0.0446738
0.0446678
0.0425903
0.0425648
0.0619783
0.061978
0.0591248
0.0591245
0.0447241
0.044724
0.0426231
0.0426229
0.0618877
0.0618573
0.0590443
0.0590529
0.0446672
0.044673
0.0425642
0.0425894
0.0621506
0.0623053
0.0594183
0.0593768
0.0449631
0.044978
0.042947
0.0428136
0.0658367
0.0657105
0.0642921
0.0641431
0.0473465
0.0473918
0.0463126
0.046328
0.0654759
0.0655302
0.0638809
0.0639263
0.0471712
0.0471831
0.046077
0.046081
0.0656232
0.0656229
0.0640189
0.0640186
0.0472351
0.0472349
0.0461347
0.0461346
0.0655293
0.0654746
0.0639254
0.0638795
0.0471826
0.0471704
0.0460804
0.0460761
0.0657089
0.0658348
0.0641414
0.0642901
0.0473908
0.0473451
0.0463269
0.046311
0.0681857
0.0680901
0.0671091
0.0670005
0.0489244
0.0489956
0.0482025
0.0482638
0.0678923
0.0679565
0.066787
0.0668469
0.0488093
0.0488316
0.0480634
0.0480814
0.0680487
0.0680484
0.0669395
0.0669392
0.048883
0.0488828
0.0481326
0.0481324
0.0679557
0.0678911
0.0668461
0.0667857
0.0488311
0.0488086
0.0480809
0.0480627
0.0680886
0.068184
0.066999
0.0671072
0.0489947
0.0489231
0.0482629
0.0482011
0.0698914
0.0698145
0.0691027
0.0690173
0.050051
0.0501367
0.0495329
0.0496119
0.0696399
0.06971
0.0688324
0.0688997
0.0499703
0.0499986
0.0494366
0.0494621
0.0698017
0.0698014
0.0689915
0.0689913
0.0500511
0.050051
0.049514
0.0495138
0.0697093
0.0696388
0.0688989
0.0688312
0.0499982
0.0499697
0.0494617
0.0494359
0.0698132
0.0698898
0.0690159
0.0691009
0.0501358
0.0500498
0.049611
0.0495316
0.0711557
0.0710923
0.0705693
0.0704996
0.050868
0.0509651
0.0504909
0.0505826
0.0709346
0.0710093
0.0703342
0.0704066
0.0508131
0.050846
0.050424
0.0504547
0.071101
0.0711007
0.0704982
0.0704979
0.0508998
0.0508996
0.0505079
0.0505077
0.0710086
0.0709336
0.0704059
0.0703331
0.0508456
0.0508125
0.0504543
0.0504234
0.071091
0.0711541
0.0704983
0.0705676
0.0509643
0.0508669
0.0505817
0.0504896
0.0720982
0.0720452
0.0716607
0.0716029
0.0514652
0.0515715
0.0511892
0.0512911
0.0719009
0.0719796
0.0714524
0.0715291
0.0514309
0.0514675
0.0511453
0.05118
0.0720715
0.0720713
0.0716209
0.0716206
0.0515221
0.051522
0.0512342
0.0512341
0.0719789
0.0718998
0.0715285
0.0714514
0.0514671
0.0514304
0.0511797
0.0511447
0.072044
0.0720967
0.0716016
0.0716591
0.0515708
0.0514641
0.0512903
0.051188
0.0727989
0.0727539
0.0724742
0.0724255
0.0519012
0.0520146
0.0517
0.05181
0.0726204
0.0727027
0.072287
0.0723675
0.0518833
0.051923
0.0516745
0.0517126
0.0727951
0.0727949
0.0724597
0.0724594
0.0519782
0.0519781
0.0517675
0.0517674
0.072702
0.0726194
0.0723669
0.072286
0.0519226
0.0518827
0.0517122
0.0516739
0.0727527
0.0727974
0.0724243
0.0724726
0.0520139
0.0519001
0.0518093
0.0516988
0.0733125
0.0732737
0.0730756
0.073034
0.0522142
0.052333
0.0520706
0.0521868
0.0731491
0.0732347
0.0729053
0.0729892
0.0522095
0.0522519
0.0520597
0.0521008
0.0733277
0.0733275
0.0730819
0.0730817
0.0523077
0.0523076
0.0521562
0.0521561
0.073234
0.0731481
0.0729886
0.0729043
0.0522516
0.052209
0.0521004
0.0520592
0.0732725
0.073311
0.0730328
0.0730741
0.0523323
0.0522132
0.0521861
0.0520694
0.0736781
0.0736444
0.0735111
0.073475
0.0524312
0.0525543
0.0523325
0.0524537
0.0735273
0.0736157
0.0733545
0.0734415
0.0524373
0.0524821
0.0523338
0.0523774
0.0737094
0.0737091
0.0735348
0.0735346
0.0525383
0.0525382
0.0524335
0.0524333
0.0736149
0.0735261
0.0734408
0.0733534
0.0524816
0.0524365
0.052377
0.0523332
0.0736429
0.0736763
0.0734737
0.0735095
0.0525532
0.0524298
0.052453
0.0523315
0.0739245
0.0738943
0.0738139
0.0737819
0.052571
0.0526973
0.0525091
0.0526339
0.0737838
0.0738749
0.0736688
0.0737587
0.0525865
0.0526334
0.0525201
0.0525661
0.0739693
0.0739689
0.0738526
0.0738523
0.05269
0.0526897
0.0526225
0.0526223
0.0738738
0.0737821
0.0737578
0.0736673
0.0526326
0.0525852
0.0525655
0.0525192
0.073892
0.073922
0.0737801
0.0738117
0.0526961
0.0525695
0.0526325
0.052507
0.0740765
0.0740488
0.0740108
0.0739819
0.0526525
0.0527805
0.0526173
0.0527447
0.0739427
0.0740351
0.0738738
0.0739655
0.0526722
0.0527199
0.0526357
0.0526835
0.0741294
0.0741289
0.0740598
0.0740593
0.0527764
0.052776
0.0527403
0.0527399
0.0740336
0.0739402
0.0739642
0.0738716
0.0527187
0.05267
0.0526824
0.0526339
0.0740456
0.0740726
0.0739791
0.0740075
0.052776
0.0526475
0.0527426
0.0526153
0.0741431
0.0741169
0.07412
0.0740927
0.0526757
0.0528049
0.0526721
0.0527999
0.0740164
0.074111
0.0739893
0.0740829
0.0527032
0.052753
0.0526942
0.052743
0.074206
0.0742055
0.0741777
0.0741772
0.0528099
0.0528095
0.0527996
0.0527992
0.0741095
0.0740139
0.0740814
0.0739867
0.0527517
0.052701
0.0527417
0.0526919
0.0741137
0.0741398
0.0740894
0.074116
0.0528048
0.0526757
0.0527956
0.0526656
0.0741384
0.0741141
0.0741472
0.0741227
0.0526553
0.0527866
0.0526679
0.0527997
0.074016
0.0741124
0.0740244
0.0741199
0.0526852
0.0527369
0.0526993
0.0527501
0.074208
0.0742076
0.0742152
0.0742147
0.0527944
0.0527941
0.0528072
0.0528068
0.074111
0.0740137
0.0741185
0.0740221
0.0527358
0.0526831
0.0527489
0.0526971
0.0741111
0.0741341
0.0741197
0.0741436
0.0527774
0.0526459
0.0527965
0.0526681
0.0740646
0.0740407
0.0741117
0.0740862
0.0525868
0.0527172
0.052628
0.052757
0.0739496
0.0740484
0.0739903
0.0740877
0.0526246
0.0526786
0.0526596
0.0527123
0.0741449
0.0741446
0.0741837
0.0741833
0.0527369
0.0527366
0.0527702
0.0527699
0.0740473
0.0739479
0.0740865
0.0739882
0.0526777
0.0526232
0.0527114
0.0526578
0.0740385
0.0740624
0.0740834
0.0741082
0.0527198
0.0525883
0.0527528
0.0526189
0.0739398
0.0739166
0.0740048
0.0739841
0.0524873
0.0526191
0.0525381
0.0526716
0.0738245
0.0739253
0.0738937
0.0739935
0.0525251
0.0525815
0.052579
0.0526342
0.0740229
0.0740226
0.0740905
0.0740902
0.0526409
0.0526407
0.052693
0.0526928
0.0739244
0.0738228
0.0739925
0.0738921
0.0525809
0.0525239
0.0526335
0.0525777
0.0739146
0.0739367
0.0739821
0.0740023
0.0526112
0.0524789
0.0526697
0.0525402
0.073747
0.0737253
0.073853
0.0738272
0.0523461
0.0524761
0.0524232
0.0525518
0.073644
0.0737476
0.0737405
0.0738427
0.0523905
0.0524492
0.0524617
0.0525192
0.0738462
0.073846
0.0739407
0.0739404
0.0525094
0.0525093
0.052579
0.0525789
0.0737469
0.0736432
0.0738419
0.0737392
0.0524487
0.05239
0.0525187
0.0524609
0.0737243
0.0737467
0.0738255
0.0738511
0.0524809
0.0523508
0.0525493
0.0524153
0.0735213
0.0734985
0.0736359
0.0736173
0.0521799
0.052311
0.0522635
0.0523965
0.073413
0.0735181
0.0735344
0.0736388
0.0522225
0.0522828
0.0523102
0.0523698
0.0736177
0.0736175
0.0737379
0.0737377
0.052344
0.0523439
0.0524305
0.0524304
0.0735176
0.073412
0.0736383
0.0735336
0.0522825
0.0522219
0.0523694
0.0523097
0.0734975
0.073519
0.0736165
0.0736347
0.0523039
0.0521733
0.0523963
0.0522687
0.0732286
0.0732065
0.0733845
0.0733584
0.0519748
0.0521027
0.052084
0.052211
0.073131
0.0732384
0.0732779
0.0733841
0.0520214
0.0520834
0.0521257
0.0521868
0.073339
0.0733388
0.0734842
0.073484
0.0521454
0.0521453
0.0522484
0.0522483
0.0732379
0.0731304
0.0733836
0.0732771
0.0520831
0.052021
0.0521866
0.0521252
0.0732057
0.0732283
0.0733573
0.0733832
0.0521071
0.0519783
0.0522087
0.0520763
0.0729047
0.0728809
0.0730681
0.0730491
0.0517448
0.0518726
0.05186
0.0519907
0.0728002
0.0729089
0.0729715
0.0730795
0.0517872
0.0518505
0.0519081
0.0519707
0.0730103
0.0730101
0.0731805
0.0731803
0.0519134
0.0519133
0.0520332
0.0520331
0.0729082
0.072799
0.0730789
0.0729706
0.05185
0.0517862
0.0519704
0.0519074
0.0728793
0.0729015
0.0730481
0.0730663
0.0518643
0.0517358
0.0519895
0.0518637
0.0725122
0.0724892
0.0727185
0.0726911
0.0514715
0.0515964
0.051615
0.0517385
0.0724182
0.0725289
0.0726152
0.0727249
0.0515187
0.0515836
0.0516569
0.051721
0.0726313
0.0726312
0.0728268
0.0728266
0.0516475
0.0516474
0.0517844
0.0517842
0.0725284
0.0724176
0.0727243
0.0726142
0.0515832
0.0515182
0.0517205
0.0516561
0.0724883
0.0725122
0.0726896
0.0727168
0.0516021
0.0514772
0.0517366
0.0516065
0.0720869
0.0720621
0.0723013
0.0722815
0.0511735
0.0512981
0.0513232
0.051451
0.0719852
0.072097
0.072208
0.0723192
0.051215
0.0512811
0.0513711
0.0514365
0.0722004
0.0722003
0.0724221
0.072422
0.0513463
0.0513463
0.051501
0.051501
0.0720968
0.0719847
0.0723189
0.0722074
0.0512811
0.0512148
0.0514363
0.0513707
0.0720614
0.0720849
0.0722809
0.0723002
0.0512913
0.0511676
0.0514511
0.0513299
0.0715881
0.0715643
0.0718484
0.0718198
0.050827
0.0509485
0.0510079
0.0511279
0.0714969
0.0716108
0.0717477
0.0718605
0.050873
0.0509412
0.0510485
0.0511156
0.0717152
0.0717152
0.0719644
0.0719644
0.0510075
0.0510076
0.0511814
0.0511815
0.0716109
0.0714971
0.0718605
0.0717475
0.0509413
0.0508734
0.0511157
0.0510485
0.0715644
0.0715891
0.0718194
0.071848
0.0509555
0.0508338
0.0511274
0.0510012
0.0710509
0.0710263
0.0713213
0.0713013
0.0504474
0.0505694
0.05064
0.0507638
0.0709533
0.071068
0.0712318
0.0713463
0.050492
0.0505611
0.050687
0.0507558
0.071173
0.071173
0.071451
0.071451
0.0506284
0.0506284
0.0508227
0.0508227
0.0710678
0.0709529
0.0713462
0.0712319
0.0505613
0.050493
0.050756
0.0506879
0.0710267
0.0710505
0.071302
0.0713215
0.0505687
0.0504471
0.0507662
0.0506482
0.0704394
0.0704151
0.0707566
0.070728
0.0500265
0.0501475
0.050242
0.0503626
0.0703503
0.0704661
0.070659
0.0707743
0.0500709
0.0501402
0.0502863
0.0503555
0.0705716
0.0705714
0.0708795
0.0708794
0.0502079
0.0502078
0.050423
0.050423
0.0704657
0.0703496
0.0707739
0.0706584
0.0501398
0.05007
0.0503554
0.0502864
0.0704137
0.0704384
0.0707273
0.0707564
0.0501486
0.0500272
0.0503643
0.0502405
0.0697811
0.0697572
0.070113
0.070093
0.0495684
0.0496888
0.0497999
0.0499224
0.0696861
0.0698021
0.0700259
0.0701418
0.0496074
0.0496763
0.0498443
0.0499134
0.0699078
0.0699076
0.0702473
0.0702471
0.0497442
0.049744
0.0499812
0.049981
0.0698013
0.0696845
0.0701411
0.0700247
0.0496755
0.0496055
0.0499128
0.0498428
0.0697548
0.0697769
0.0700913
0.0701104
0.0496805
0.049559
0.0499193
0.0497996
0.0690425
0.069019
0.0694244
0.0693969
0.0490513
0.0491711
0.0493194
0.049436
0.068955
0.0690719
0.0693288
0.0694451
0.049097
0.0491664
0.0493579
0.0494269
0.069178
0.0691777
0.069551
0.0695507
0.0492347
0.0492344
0.0494949
0.0494947
0.069071
0.0689536
0.0694442
0.0693272
0.0491656
0.0490959
0.0494261
0.0493564
0.069017
0.0690413
0.0693946
0.0694214
0.0491762
0.0490551
0.0494331
0.0493095
0.0682435
0.0682228
0.0686474
0.0686283
0.0484944
0.0486182
0.0487749
0.0488996
0.0681546
0.0682718
0.0685634
0.0686804
0.0485377
0.0486079
0.0488233
0.048893
0.0683783
0.068378
0.0687867
0.0687864
0.0486768
0.0486765
0.0489615
0.0489613
0.0682709
0.0681531
0.0686795
0.068562
0.0486072
0.0485367
0.0488923
0.0488222
0.0682211
0.0682404
0.0686267
0.0686455
0.0486112
0.0484891
0.0488996
0.0487814
0.0673678
0.0673467
0.0678166
0.0677942
0.047886
0.0480074
0.0481988
0.0483198
0.0672801
0.0673979
0.0677265
0.0678439
0.0479279
0.0479987
0.048239
0.0483094
0.0675048
0.0675046
0.0679506
0.0679504
0.0480681
0.048068
0.0483786
0.0483784
0.0673972
0.067279
0.0678431
0.0677251
0.0479983
0.0479273
0.0483089
0.048238
0.0673451
0.0673663
0.0677923
0.0678139
0.0480082
0.0478845
0.0483153
0.0481895
0.0664142
0.0663954
0.0668996
0.0668801
0.047224
0.0473477
0.0475597
0.0476831
0.0663286
0.0664466
0.0668138
0.0669317
0.0472658
0.0473367
0.0476032
0.0476741
0.0665538
0.0665536
0.0670389
0.0670387
0.0474065
0.0474064
0.0477437
0.0477436
0.066446
0.0663277
0.0669311
0.0668129
0.0473364
0.0472654
0.0476738
0.0476028
0.0663943
0.0664128
0.0668789
0.0668983
0.0473473
0.0472241
0.047684
0.0475615
0.0653819
0.0653644
0.0659077
0.0658896
0.0465101
0.0466339
0.0468736
0.0469971
0.0652965
0.0654137
0.0658226
0.0659403
0.0465494
0.0466196
0.0469142
0.0469849
0.0655207
0.0655205
0.0660474
0.0660472
0.0466894
0.0466893
0.0470547
0.0470546
0.0654133
0.0652957
0.0659398
0.0658217
0.0466194
0.0465489
0.0469846
0.0469138
0.0653634
0.0653806
0.0658885
0.0659062
0.0466333
0.0465093
0.0469966
0.0468728
0.0642651
0.0642483
0.0648339
0.0648169
0.0457394
0.0458634
0.0461315
0.0462554
0.064178
0.0642935
0.0647481
0.0648646
0.0457754
0.0458443
0.0461695
0.0462392
0.0643996
0.0643995
0.0649712
0.064971
0.0459137
0.0459136
0.0463088
0.0463087
0.0642931
0.0641773
0.0648641
0.0647474
0.0458441
0.045775
0.0462389
0.0461691
0.0642474
0.0642639
0.0648159
0.0648326
0.0458628
0.0457386
0.0462548
0.0461306
0.0630562
0.0630398
0.0636722
0.0636557
0.0449087
0.0450327
0.0453314
0.0454554
0.0629654
0.0630781
0.0635837
0.0636979
0.0449398
0.0450064
0.0453653
0.0454332
0.0631829
0.0631828
0.0638034
0.0638033
0.0450749
0.0450749
0.0455021
0.0455021
0.0630777
0.0629648
0.0636975
0.063583
0.0450062
0.0449394
0.0454329
0.045365
0.063039
0.0630551
0.0636548
0.0636709
0.0450322
0.044908
0.0454549
0.0453306
0.0617455
0.0617286
0.0624137
0.0623972
0.0440123
0.0441354
0.0444686
0.0445923
0.0616487
0.0617577
0.0623204
0.0624313
0.0440364
0.0441002
0.0444966
0.0445619
0.0618608
0.0618607
0.0625353
0.0625352
0.0441676
0.0441675
0.0446299
0.0446298
0.0617574
0.0616481
0.062431
0.0623198
0.0441
0.0440361
0.0445617
0.0444963
0.0617278
0.0617444
0.0623963
0.0624125
0.044135
0.0440116
0.0445918
0.0444679
0.0603216
0.060303
0.0610479
0.0610303
0.0430434
0.0431647
0.0435369
0.0436592
0.0602159