/*--------------------------------*- C++ -*----------------------------------*\
  =========                 |
  \\      /  F ield         | OpenFOAM: The Open Source CFD Toolbox
   \\    /   O peration     | Website:  https://openfoam.org
    \\  /    A nd           | Version:  9
     \\/     M anipulation  |
\*---------------------------------------------------------------------------*/
FoamFile
{
    format      ascii;
    class       volScalarField;
    location    "5";
    object      p;
}
// * * * * * * * * * * * * * * * * * * * * * * * * * * * * * * * * * * * * * //

dimensions      [0 2 -2 0 0 0 0];

internalField   nonuniform List<scalar> 
36360
(
20.2425
19.9928
20.2335
20.0044
19.9903
20.1867
20.0138
20.1535
20.0806
20.0984
20.0868
20.1059
20.1116
20.0954
20.0992
20.0917
20.1005
20.1005
20.1082
20.1082
20.0936
20.0936
20.0913
20.0913
20.0984
20.0806
20.1059
20.0868
20.0954
20.1116
20.0917
20.0992
19.9928
20.2425
20.0044
20.2335
20.1867
19.9903
20.1535
20.0139
20.1152
20.068
20.1612
20.0451
19.8921
20.2572
19.9383
20.2305
20.112
20.103
20.0984
20.0995
20.1472
20.1041
20.1309
20.0998
20.0973
20.0973
20.0977
20.0977
20.0954
20.0954
20.0948
20.0948
20.103
20.112
20.0995
20.0984
20.1041
20.1472
20.0998
20.1309
20.068
20.1152
20.0451
20.1612
20.2572
19.8921
20.2305
19.9383
20.0648
20.0824
20.0863
20.0781
19.834
20.2802
19.8586
20.2722
20.1334
20.1138
20.1239
20.1083
20.1718
20.1154
20.1609
20.1095
20.1005
20.1005
20.0984
20.0984
20.0992
20.0992
20.097
20.097
20.1138
20.1334
20.1083
20.1239
20.1154
20.1718
20.1095
20.1609
20.0824
20.0648
20.0781
20.0863
20.2802
19.834
20.2722
19.8586
20.0362
20.0831
20.0486
20.0836
19.8013
20.2853
19.8155
20.2839
20.1457
20.1239
20.1405
20.1191
20.1859
20.1263
20.1799
20.121
20.1064
20.1064
20.1033
20.1033
20.105
20.105
20.1019
20.1019
20.1239
20.1456
20.1191
20.1404
20.1263
20.1859
20.1211
20.18
20.0831
20.0362
20.0836
20.0486
20.2853
19.8014
20.284
19.8155
20.0188
20.08
20.0265
20.0817
19.7816
20.2846
19.7903
20.2853
20.1519
20.132
20.1493
20.1283
20.193
20.135
20.19
20.131
20.1129
20.1129
20.1097
20.1097
20.1113
20.1113
20.1081
20.1081
20.132
20.1519
20.1283
20.1493
20.135
20.193
20.131
20.19
20.08
20.0188
20.0817
20.0265
20.2846
19.7816
20.2853
19.7903
20.0073
20.0762
20.0125
20.0781
19.7689
20.2822
19.7746
20.2834
20.1549
20.1378
20.1537
20.1352
20.1966
20.1412
20.1951
20.1384
20.1187
20.1187
20.1159
20.1159
20.1172
20.1172
20.1143
20.1143
20.1379
20.1549
20.1352
20.1537
20.1412
20.1966
20.1384
20.1951
20.0763
20.0074
20.0781
20.0125
20.2822
19.769
20.2835
19.7746
19.9994
20.0727
20.003
20.0744
19.7602
20.2795
19.7643
20.2808
20.1561
20.1419
20.1556
20.1401
20.1984
20.1455
20.1976
20.1435
20.1234
20.1234
20.1212
20.1212
20.122
20.122
20.1198
20.1197
20.1419
20.1561
20.1401
20.1557
20.1454
20.1983
20.1435
20.1976
20.0727
19.9994
20.0745
20.003
20.2794
19.7606
20.2808
19.7644
19.9937
20.0697
19.9963
20.0712
19.7543
20.2769
19.7571
20.2781
20.1564
20.1445
20.1563
20.1433
20.199
20.1483
20.1988
20.147
20.127
20.127
20.1253
20.1253
20.1258
20.1258
20.124
20.124
20.1445
20.1564
20.1433
20.1563
20.1483
20.1991
20.147
20.1988
20.0697
19.9937
20.0711
19.9963
20.2769
19.7542
20.2781
19.7573
19.9893
20.0671
19.9913
20.0684
19.7496
20.2746
19.7515
20.2759
20.1561
20.1461
20.1563
20.1454
20.1991
20.1501
20.1992
20.1493
20.1294
20.1294
20.1283
20.1283
20.1285
20.1285
20.1273
20.1273
20.1461
20.156
20.1454
20.1563
20.1501
20.1991
20.1493
20.1992
20.0671
19.9893
20.0684
19.9914
20.2746
19.7497
20.2759
19.7513
19.9858
20.0648
19.9875
20.0659
19.7465
20.2723
19.7481
20.2734
20.1553
20.1468
20.1557
20.1466
20.1987
20.151
20.1989
20.1506
20.1309
20.1309
20.1303
20.1303
20.1302
20.1302
20.1294
20.1294
20.1468
20.1553
20.1465
20.1557
20.1509
20.1987
20.1506
20.1989
20.0647
19.9859
20.0658
19.9875
20.2723
19.7467
20.2734
19.7482
19.9828
20.0626
19.9842
20.0637
19.7451
20.2698
19.7455
20.2711
20.1541
20.1468
20.1548
20.1469
20.1977
20.1511
20.1983
20.1511
20.1315
20.1315
20.1313
20.1313
20.131
20.131
20.1307
20.1307
20.1468
20.1541
20.1469
20.1547
20.1511
20.1977
20.1511
20.1982
20.0626
19.9829
20.0636
19.9844
20.2699
19.745
20.2711
19.7456
19.9803
20.0606
19.9814
20.0616
19.743
20.2677
19.7442
20.2686
20.1527
20.1462
20.1534
20.1466
20.1965
20.1507
20.1971
20.1509
20.1314
20.1314
20.1315
20.1315
20.1311
20.1311
20.1311
20.1311
20.1462
20.1526
20.1466
20.1534
20.1506
20.1964
20.1509
20.1971
20.0605
19.9803
20.0616
19.9816
20.2674
19.7438
20.2685
19.7445
19.9782
20.0583
19.9793
20.0595
19.7418
20.265
19.7422
20.2664
20.1509
20.1451
20.1519
20.1457
20.1948
20.1497
20.1957
20.1503
20.1306
20.1306
20.1311
20.131
20.1306
20.1306
20.1309
20.1309
20.1451
20.151
20.1457
20.1518
20.1497
20.1948
20.1502
20.1956
20.0584
19.978
20.0594
19.9791
20.265
19.742
20.2662
19.7429
19.9756
20.0564
19.9769
20.0574
19.7404
20.2625
19.7411
20.2638
20.149
20.1435
20.15
20.1444
20.1928
20.1482
20.1939
20.149
20.1293
20.1293
20.13
20.13
20.1295
20.1295
20.1301
20.1301
20.1435
20.149
20.1444
20.15
20.1482
20.1929
20.149
20.1939
20.0563
19.976
20.0574
19.9769
20.2628
19.7397
20.2639
19.7409
19.9734
20.054
19.9745
20.0552
19.7395
20.2595
19.74
20.2611
20.1466
20.1414
20.1479
20.1425
20.1904
20.1461
20.1916
20.1472
20.1273
20.1274
20.1284
20.1284
20.1277
20.1277
20.1287
20.1287
20.1414
20.1467
20.1425
20.1479
20.1462
20.1904
20.1473
20.1917
20.0541
19.9734
20.0552
19.9747
20.2598
19.7389
20.2612
19.7395
19.971
20.0516
19.9722
20.0528
19.7382
20.2565
19.7389
20.258
20.1441
20.1389
20.1454
20.1402
20.1876
20.1436
20.189
20.1449
20.125
20.125
20.1262
20.1262
20.1254
20.1254
20.1266
20.1267
20.1389
20.1441
20.1402
20.1455
20.1437
20.1876
20.145
20.1891
20.0516
19.971
20.053
19.9722
20.2565
19.7379
20.2583
19.7382
19.9689
20.0489
19.9699
20.0503
19.7365
20.2532
19.7374
20.2548
20.1411
20.1359
20.1426
20.1374
20.1844
20.1406
20.186
20.1422
20.1221
20.1221
20.1236
20.1236
20.1226
20.1226
20.1241
20.1241
20.1359
20.1411
20.1375
20.1426
20.1406
20.1844
20.1422
20.186
20.049
19.9686
20.0503
19.9698
20.2531
19.7367
20.2548
19.7374
19.9659
20.0464
19.9674
20.0477
19.7348
20.2494
19.7357
20.2512
20.138
20.1326
20.1396
20.1343
20.1808
20.1372
20.1826
20.139
20.1188
20.1188
20.1205
20.1205
20.1192
20.1192
20.121
20.121
20.1326
20.1379
20.1343
20.1396
20.1371
20.1807
20.1389
20.1826
20.0462
19.9662
20.0477
19.9674
20.2492
19.7354
20.2512
19.7361
19.9631
20.0435
19.9645
20.045
19.7335
20.2451
19.7339
20.2474
20.1346
20.1289
20.1364
20.1308
20.1767
20.1333
20.1788
20.1353
20.1152
20.1152
20.117
20.117
20.1154
20.1154
20.1174
20.1174
20.1289
20.1346
20.1308
20.1363
20.1333
20.1767
20.1353
20.1787
20.0435
19.9633
20.0449
19.9647
20.2453
19.7334
20.2472
19.7345
19.9603
20.0405
19.9616
20.042
19.7317
20.2407
19.7327
20.2428
20.1309
20.1249
20.1328
20.127
20.1722
20.1289
20.1745
20.1311
20.1112
20.1112
20.1132
20.1132
20.1111
20.1111
20.1133
20.1133
20.1249
20.1309
20.127
20.1328
20.1289
20.1722
20.1311
20.1745
20.0405
19.9604
20.042
19.9618
20.2406
19.7323
20.243
19.7328
19.9577
20.0373
19.959
20.0389
19.7303
20.2357
19.7311
20.2382
20.1272
20.1207
20.1291
20.1228
20.1673
20.1241
20.1698
20.1265
20.107
20.107
20.1091
20.1091
20.1063
20.1063
20.1087
20.1087
20.1207
20.1272
20.1228
20.1291
20.1241
20.1672
20.1265
20.1697
20.0373
19.9575
20.039
19.9589
20.2356
19.7314
20.2381
19.732
19.9545
20.0345
19.9561
20.0359
19.7278
20.231
19.7287
20.2336
20.1236
20.1165
20.1255
20.1186
20.1623
20.1191
20.1649
20.1216
20.1026
20.1026
20.1048
20.1048
20.1012
20.1012
20.1038
20.1038
20.1164
20.1235
20.1185
20.1254
20.119
20.1621
20.1215
20.1647
20.0342
19.9547
20.0358
19.9561
20.2306
19.7297
20.2332
19.7306
19.9517
20.0313
19.9531
20.0329
19.7269
20.2255
19.7274
20.2283
20.1198
20.1117
20.1217
20.1141
20.1569
20.1137
20.1596
20.1164
20.098
20.098
20.1003
20.1003
20.096
20.096
20.0986
20.0986
20.1117
20.1198
20.114
20.1216
20.1137
20.1568
20.1163
20.1595
20.0313
19.9519
20.0328
19.9532
20.2255
19.7275
20.228
19.7287
19.949
20.0285
19.9503
20.03
19.7257
20.2202
19.7261
20.223
20.1161
20.1072
20.118
20.1095
20.1514
20.1082
20.1542
20.111
20.0935
20.0935
20.0958
20.0958
20.0905
20.0905
20.0933
20.0933
20.1072
20.1162
20.1094
20.118
20.1082
20.1514
20.111
20.1541
20.0286
19.9492
20.0299
19.9506
20.2202
19.7254
20.2229
19.7264
19.9471
20.0258
19.948
20.0271
19.7246
20.2149
19.7256
20.2174
20.1127
20.1028
20.1144
20.105
20.1459
20.1026
20.1486
20.1054
20.0891
20.0891
20.0913
20.0913
20.085
20.085
20.0878
20.0878
20.1029
20.1128
20.105
20.1145
20.1027
20.1461
20.1055
20.1488
20.0261
19.9468
20.0274
19.9479
20.2152
19.7239
20.2178
19.7243
19.9447
20.024
19.9459
20.0249
19.7233
20.2099
19.7238
20.2124
20.1099
20.0988
20.1113
20.1008
20.1407
20.0972
20.1433
20.0999
20.085
20.0849
20.087
20.087
20.0796
20.0796
20.0823
20.0823
20.0987
20.1098
20.1008
20.1112
20.0972
20.1406
20.0999
20.1433
20.0236
19.9452
20.0248
19.946
20.2097
19.7239
20.2124
19.7239
19.9439
20.0221
19.9442
20.023
19.7228
20.205
19.723
20.2074
20.1064
20.0951
20.1083
20.0969
20.1354
20.0919
20.138
20.0946
20.0812
20.0812
20.083
20.083
20.0744
20.0744
20.077
20.077
20.0951
20.1064
20.0969
20.1082
20.092
20.1354
20.0946
20.138
20.0223
19.9434
20.0229
19.9442
20.205
19.7232
20.2073
19.7235
19.9428
20.0212
19.9432
20.0216
19.7232
20.2007
19.7229
20.2028
20.1035
20.0919
20.1049
20.0934
20.1306
20.087
20.1329
20.0894
20.078
20.078
20.0795
20.0795
20.0696
20.0696
20.072
20.072
20.0919
20.1035
20.0934
20.1049
20.087
20.1305
20.0894
20.1329
20.0211
19.943
20.0217
19.943
20.2006
19.7235
20.2027
19.7233
19.9431
20.0208
19.9428
20.0209
19.7245
20.1967
19.7237
20.1986
20.1014
20.0893
20.1024
20.0905
20.1261
20.0826
20.1283
20.0848
20.0754
20.0754
20.0766
20.0766
20.0654
20.0654
20.0674
20.0674
20.0893
20.1014
20.0905
20.1024
20.0826
20.1262
20.0847
20.1283
20.0208
19.9432
20.0208
19.943
20.1968
19.7245
20.1986
19.7239
19.9443
20.0213
19.9436
20.021
19.7268
20.1934
19.7255
20.195
20.1
20.0874
20.1006
20.0883
20.1223
20.0788
20.1242
20.0806
20.0736
20.0736
20.0744
20.0744
20.0618
20.0618
20.0635
20.0635
20.0874
20.1001
20.0883
20.1006
20.0788
20.1223
20.0806
20.1242
20.0214
19.9443
20.021
19.9436
20.1934
19.7268
20.195
19.7255
19.9465
20.0229
19.9452
20.022
19.7304
20.1907
19.7284
20.1919
20.0996
20.0864
20.0997
20.0868
20.1192
20.0758
20.1207
20.0772
20.0728
20.0728
20.0731
20.0731
20.0591
20.0591
20.0603
20.0603
20.0864
20.0996
20.0868
20.0997
20.0758
20.1192
20.0772
20.1207
20.0229
19.9465
20.022
19.9453
20.1907
19.7304
20.192
19.7284
19.9499
20.0254
19.9481
20.024
19.7353
20.1889
19.7327
20.1897
20.0999
20.0863
20.0996
20.0863
20.1168
20.0736
20.1179
20.0746
20.0729
20.0729
20.0727
20.0727
20.0574
20.0574
20.0581
20.0581
20.0863
20.0999
20.0863
20.0996
20.0736
20.1168
20.0746
20.1179
20.0254
19.9499
20.024
19.9481
20.1889
19.7353
20.1897
19.7327
19.9546
20.0288
19.9521
20.027
19.7419
20.1879
19.7384
20.1883
20.1011
20.0872
20.1004
20.0866
20.1153
20.0725
20.1159
20.0729
20.0742
20.0742
20.0734
20.0734
20.0569
20.0569
20.057
20.057
20.0872
20.1011
20.0866
20.1004
20.0725
20.1153
20.0729
20.1159
20.0288
19.9546
20.027
19.9521
20.1879
19.7419
20.1883
19.7384
19.9608
20.0332
19.9575
20.0309
19.7502
20.1878
19.7458
20.1878
20.103
20.089
20.102
20.088
20.1146
20.0725
20.1148
20.0724
20.0766
20.0766
20.0752
20.0752
20.0577
20.0577
20.0572
20.0572
20.089
20.103
20.088
20.102
20.0725
20.1146
20.0724
20.1148
20.0332
19.9608
20.0309
19.9575
20.1878
19.7502
20.1878
19.7458
19.9685
20.0383
19.9644
20.0357
19.7606
20.1884
19.7552
20.188
20.1058
20.0918
20.1043
20.0903
20.1148
20.0737
20.1146
20.0729
20.0802
20.0802
20.0782
20.0782
20.0599
20.0599
20.0587
20.0587
20.0918
20.1058
20.0903
20.1043
20.0737
20.1148
20.0729
20.1146
20.0383
19.9685
20.0357
19.9644
20.1884
19.7606
20.188
19.7552
19.9778
20.0441
19.9729
20.0411
19.7735
20.1894
19.7667
20.1889
20.1091
20.0957
20.1074
20.0936
20.1157
20.0761
20.1151
20.0747
20.0849
20.0849
20.0824
20.0824
20.0635
20.0635
20.0616
20.0616
20.0957
20.1091
20.0936
20.1074
20.0761
20.1157
20.0748
20.1151
20.0441
19.9778
20.0411
19.9729
20.1894
19.7735
20.1889
19.7667
19.9884
20.0505
19.983
20.0471
19.7896
20.1903
19.7811
20.1899
20.1128
20.1004
20.1109
20.0979
20.1171
20.0798
20.1164
20.0778
20.0909
20.0909
20.0878
20.0878
20.0686
20.0686
20.0659
20.0659
20.1004
20.1128
20.0979
20.1109
20.0798
20.1171
20.0778
20.1164
20.0505
19.9884
20.0471
19.983
20.1903
19.7896
20.1899
19.7811
19.9982
20.0594
19.9938
20.0544
19.8099
20.1896
19.7991
20.1903
20.1171
20.1061
20.1148
20.1031
20.119
20.0848
20.118
20.0822
20.098
20.098
20.0943
20.0943
20.0752
20.0752
20.0717
20.0717
20.1061
20.1171
20.1031
20.1148
20.0848
20.119
20.0822
20.118
20.0594
19.9982
20.0544
19.9938
20.1896
19.8099
20.1903
19.7992
20.0064
20.0694
20.0004
20.0663
19.8356
20.185
19.822
20.1881
20.1231
20.1133
20.1198
20.1095
20.1218
20.0915
20.1202
20.0879
20.1062
20.1062
20.1019
20.1019
20.0832
20.0832
20.079
20.079
20.1133
20.1231
20.1095
20.1198
20.0915
20.1218
20.0879
20.1202
20.0694
20.0064
20.0663
20.0004
20.185
19.8356
20.1881
19.822
20.4328
19.9418
20.3337
19.9758
20.3855
19.9276
20.3108
19.9639
19.9881
20.0599
20.0265
20.0797
20.0175
20.0789
20.0447
20.0911
20.0936
20.0936
20.1019
20.1019
20.0988
20.0988
20.1036
20.1036
20.0599
19.9881
20.0797
20.0265
20.0789
20.0175
20.0911
20.0447
19.9418
20.4328
19.9758
20.3337
19.9276
20.3855
19.9639
20.3108
20.292
20.0363
20.3373
20.0134
20.2543
20.0118
20.2986
19.99
20.0303
20.0639
20.0152
20.0618
20.0544
20.083
20.0405
20.0805
20.0843
20.0843
20.0881
20.0881
20.0936
20.0936
20.0957
20.0957
20.0639
20.0303
20.0618
20.0152
20.083
20.0544
20.0805
20.0405
20.0363
20.292
20.0134
20.3373
20.0117
20.2542
19.99
20.2986
20.2541
20.0413
20.2696
20.0415
20.2122
20.0192
20.2299
20.0181
20.0475
20.0734
20.0406
20.0686
20.0729
20.0936
20.0649
20.088
20.0862
20.0862
20.0844
20.0844
20.096
20.096
20.0942
20.0942
20.0734
20.0475
20.0686
20.0406
20.0936
20.0729
20.088
20.0649
20.0413
20.2541
20.0415
20.2696
20.0192
20.2122
20.0181
20.2299
20.234
20.0364
20.2427
20.0391
20.1889
20.0159
20.199
20.0181
20.0547
20.0818
20.0519
20.0779
20.0824
20.1033
20.0786
20.0988
20.0925
20.0925
20.0891
20.0891
20.102
20.102
20.0989
20.0989
20.0818
20.0547
20.0779
20.0519
20.1033
20.0824
20.0988
20.0785
20.0364
20.234
20.0391
20.2427
20.0159
20.1889
20.0181
20.199
20.2218
20.0307
20.2273
20.0335
20.1747
20.011
20.181
20.0134
20.0573
20.088
20.0564
20.0852
20.0863
20.1106
20.0849
20.1073
20.0991
20.0991
20.0958
20.0958
20.1086
20.1086
20.1053
20.1053
20.088
20.0573
20.0852
20.0564
20.1106
20.0863
20.1073
20.0849
20.0307
20.2218
20.0335
20.2272
20.011
20.1747
20.0134
20.181
20.2135
20.0256
20.2173
20.028
20.1652
20.0065
20.1695
20.0087
20.0579
20.0923
20.0577
20.0904
20.0874
20.1158
20.087
20.1134
20.1048
20.1048
20.1021
20.1021
20.1144
20.1144
20.1116
20.1116
20.0923
20.0579
20.0904
20.0578
20.1158
20.0874
20.1134
20.087
20.0256
20.2135
20.028
20.2173
20.0065
20.1653
20.0087
20.1695
20.2074
20.0213
20.2102
20.0233
20.1585
20.0025
20.1616
20.0044
20.0576
20.0952
20.0578
20.0939
20.0875
20.1194
20.0875
20.1178
20.1092
20.1092
20.1071
20.1071
20.1191
20.1191
20.1169
20.1169
20.0952
20.0576
20.0939
20.0579
20.1194
20.0875
20.1178
20.0875
20.0213
20.2074
20.0234
20.2102
20.0025
20.1585
20.0044
20.1616
20.2028
20.0176
20.2049
20.0194
20.1534
19.9992
20.1558
20.0008
20.0569
20.097
20.0573
20.0962
20.087
20.1217
20.0873
20.1207
20.1123
20.1123
20.1109
20.1109
20.1225
20.1225
20.1209
20.1209
20.097
20.0569
20.0962
20.0573
20.1217
20.087
20.1206
20.0873
20.0176
20.2028
20.0194
20.205
19.9991
20.1536
20.0007
20.1559
20.199
20.0144
20.2008
20.0159
20.1495
19.9961
20.1514
19.9975
20.0559
20.0979
20.0564
20.0976
20.0862
20.123
20.0866
20.1225
20.1143
20.1143
20.1134
20.1134
20.1248
20.1248
20.1238
20.1238
20.0979
20.0559
20.0976
20.0564
20.123
20.0861
20.1224
20.0866
20.0144
20.1992
20.0159
20.2009
19.996
20.1498
19.9975
20.1516
20.1959
20.0115
20.1974
20.0129
20.1464
19.9934
20.1478
19.9947
20.0546
20.0982
20.0553
20.0981
20.085
20.1235
20.0857
20.1234
20.1154
20.1154
20.1149
20.1149
20.1261
20.1261
20.1255
20.1255
20.0981
20.0546
20.0981
20.0553
20.1235
20.085
20.1233
20.0856
20.0115
20.196
20.0129
20.1975
19.9933
20.1466
19.9946
20.1481
20.1931
20.0087
20.1944
20.0101
20.1436
19.9908
20.145
19.992
20.0531
20.0978
20.0539
20.098
20.0837
20.1234
20.0844
20.1235
20.1156
20.1156
20.1156
20.1156
20.1265
20.1265
20.1264
20.1264
20.0978
20.0531
20.098
20.0539
20.1234
20.0837
20.1235
20.0844
20.0087
20.1931
20.0101
20.1945
19.9908
20.1438
19.992
20.1452
20.1905
20.0061
20.1918
20.0074
20.1413
19.9883
20.1424
19.9895
20.0514
20.0969
20.0523
20.0974
20.0821
20.1227
20.0829
20.1231
20.1152
20.1152
20.1155
20.1155
20.1263
20.1262
20.1265
20.1265
20.0969
20.0514
20.0974
20.0523
20.1227
20.082
20.1231
20.0829
20.0061
20.1904
20.0074
20.1918
19.9883
20.1413
19.9895
20.1425
20.1878
20.0035
20.1891
20.0048
20.1392
19.9856
20.1403
19.9869
20.0495
20.0956
20.0505
20.0964
20.0801
20.1215
20.0811
20.1222
20.1143
20.1142
20.1148
20.1148
20.1254
20.1254
20.1259
20.1259
20.0956
20.0495
20.0963
20.0505
20.1215
20.0802
20.1221
20.0812
20.0034
20.1879
20.0048
20.1892
19.9858
20.139
19.987
20.1402
20.1854
20.0007
20.1866
20.0021
20.1368
19.9833
20.138
19.9844
20.0474
20.094
20.0485
20.0949
20.0782
20.1198
20.0792
20.1207
20.1128
20.1128
20.1136
20.1136
20.1239
20.1239
20.1247
20.1247
20.094
20.0475
20.0949
20.0485
20.1198
20.0782
20.1207
20.0793
20.0009
20.1852
20.0022
20.1865
19.9833
20.1367
19.9846
20.1378
20.1831
19.9979
20.1844
19.9993
20.1345
19.9806
20.1357
19.9819
20.0451
20.0919
20.0462
20.093
20.0758
20.1177
20.077
20.1188
20.1109
20.1109
20.1119
20.1119
20.122
20.122
20.123
20.123
20.092
20.0451
20.093
20.0463
20.1178
20.0759
20.1189
20.0771
19.9979
20.183
19.9994
20.1842
19.9808
20.1343
19.982
20.1355
20.1802
19.9953
20.1817
19.9966
20.1318
19.9782
20.1331
19.9794
20.0427
20.0897
20.0439
20.0908
20.0734
20.1153
20.0746
20.1166
20.1086
20.1086
20.1098
20.1098
20.1196
20.1196
20.1208
20.1209
20.0897
20.0427
20.0909
20.0439
20.1153
20.0733
20.1166
20.0747
19.9953
20.1803
19.9966
20.1817
19.978
20.1319
19.9795
20.1331
20.1775
19.9925
20.1789
19.9939
20.1293
19.9753
20.1306
19.9767
20.0401
20.0872
20.0414
20.0885
20.0706
20.1126
20.072
20.114
20.1061
20.1061
20.1074
20.1074
20.1169
20.1169
20.1183
20.1183
20.0872
20.0401
20.0884
20.0414
20.1126
20.0707
20.114
20.072
19.9924
20.1777
19.9938
20.179
19.9754
20.1293
19.9766
20.1307
20.1746
19.9898
20.1761
19.9911
20.1263
19.9728
20.1278
19.9741
20.0376
20.0845
20.0389
20.0859
20.0679
20.1096
20.0693
20.1111
20.1033
20.1033
20.1048
20.1048
20.1138
20.1138
20.1154
20.1154
20.0845
20.0376
20.0859
20.0389
20.1096
20.0678
20.1111
20.0692
19.99
20.1745
19.9912
20.1761
19.9726
20.1266
19.974
20.128
20.1721
19.9869
20.1734
19.9883
20.1237
19.9698
20.1251
19.9712
20.0349
20.0817
20.0362
20.0831
20.0648
20.1063
20.0663
20.108
20.1004
20.1004
20.1019
20.1019
20.1105
20.1105
20.1122
20.1122
20.0817
20.0349
20.0831
20.0363
20.1063
20.0649
20.108
20.0663
19.9869
20.172
19.9884
20.1733
19.97
20.1237
19.9712
20.1252
20.1689
19.9845
20.1705
19.9856
20.1206
19.9673
20.1222
19.9685
20.0324
20.0789
20.0336
20.0803
20.0618
20.1029
20.0633
20.1046
20.0974
20.0974
20.0989
20.0989
20.107
20.107
20.1087
20.1087
20.0789
20.0324
20.0803
20.0336
20.1029
20.0618
20.1046
20.0634
19.9846
20.1688
19.9857
20.1705
19.9673
20.1206
19.9686
20.1222
20.1662
19.982
20.1675
19.9832
20.1177
19.9646
20.1191
19.9659
20.0299
20.0761
20.0311
20.0775
20.0587
20.0993
20.0603
20.1011
20.0944
20.0944
20.0959
20.0959
20.1033
20.1033
20.1051
20.1051
20.0761
20.0299
20.0775
20.0312
20.0993
20.0588
20.1011
20.0603
19.982
20.1662
19.9833
20.1675
19.9648
20.1175
19.9661
20.119
20.1635
19.9799
20.1648
19.9809
20.1146
19.9624
20.1162
19.9634
20.0277
20.0734
20.0288
20.0748
20.0558
20.0955
20.0572
20.0974
20.0915
20.0915
20.0929
20.0929
20.0997
20.0996
20.1015
20.1015
20.0735
20.0278
20.0748
20.0288
20.0955
20.0557
20.0974
20.0572
19.9801
20.1633
19.981
20.1647
19.9622
20.1148
19.9634
20.1162
20.1614
19.9779
20.1624
19.9788
20.1122
19.9599
20.1133
19.9611
20.0256
20.071
20.0266
20.0722
20.0528
20.0926
20.0543
20.094
20.0887
20.0887
20.0902
20.0902
20.0961
20.0961
20.0979
20.0978
20.071
20.0257
20.0722
20.0267
20.0926
20.0529
20.094
20.0543
19.9779
20.1614
19.979
20.1623
19.9602
20.112
19.9611
20.1134
20.1591
19.9767
20.1603
19.9771
20.1096
19.9582
20.111
19.9589
20.0241
20.069
20.0248
20.0699
20.0501
20.0896
20.0514
20.0911
20.0863
20.0863
20.0875
20.0875
20.0927
20.0927
20.0943
20.0943
20.069
20.0241
20.07
20.0248
20.0896
20.0501
20.0911
20.0515
19.9767
20.1592
19.9772
20.1602
19.958
20.11
19.959
20.111
20.1578
19.9757
20.1583
19.9761
20.1078
19.9566
20.1087
19.9573
20.023
20.0674
20.0235
20.0682
20.0474
20.0868
20.0488
20.0881
20.0842
20.0842
20.0852
20.0852
20.0896
20.0896
20.0911
20.0911
20.0674
20.0229
20.0681
20.0235
20.0868
20.0474
20.0881
20.0487
19.9756
20.1581
19.976
20.1586
19.9566
20.1079
19.9571
20.109
20.1567
19.9755
20.1573
19.9755
20.1061
19.9558
20.1068
19.9562
20.0227
20.0664
20.0227
20.0668
20.0447
20.0844
20.0461
20.0855
20.0827
20.0827
20.0834
20.0834
20.0869
20.0869
20.0882
20.0882
20.0663
20.0227
20.0668
20.0226
20.0843
20.0445
20.0855
20.046
19.9756
20.1568
19.9755
20.1574
19.9555
20.1067
19.956
20.1072
20.1565
19.976
20.1565
19.9756
20.1055
19.9554
20.1058
19.9555
20.0227
20.0658
20.0227
20.066
20.0446
20.0826
20.0442
20.0834
20.0817
20.0817
20.0821
20.0821
20.0847
20.0847
20.0858
20.0857
20.0657
20.0226
20.066
20.0227
20.0825
20.0446
20.0833
20.044
19.9757
20.1568
19.9756
20.1567
19.9553
20.1057
19.9553
20.1062
20.157
19.977
20.1567
19.9763
20.1053
19.9559
20.1053
19.9556
20.0235
20.0658
20.023
20.0657
20.0453
20.0814
20.045
20.0819
20.0813
20.0813
20.0814
20.0814
20.083
20.083
20.0838
20.0838
20.0658
20.0235
20.0657
20.0229
20.0813
20.0452
20.0819
20.0449
19.9769
20.1571
19.9762
20.1569
19.9558
20.1056
19.9555
20.1055
20.1583
19.9792
20.1576
19.9779
20.1059
19.9573
20.1055
19.9565
20.0251
20.0667
20.0242
20.0662
20.0461
20.0808
20.0456
20.081
20.0816
20.0816
20.0814
20.0814
20.0821
20.0821
20.0825
20.0825
20.0667
20.0251
20.0661
20.0242
20.0808
20.0461
20.081
20.0456
19.9792
20.1584
19.978
20.1577
19.9573
20.1059
19.9564
20.1057
20.1603
19.9824
20.1592
19.9806
20.1073
19.9594
20.1065
19.9582
20.0277
20.0683
20.0263
20.0674
20.0476
20.0811
20.0468
20.0809
20.0828
20.0828
20.0821
20.0821
20.0821
20.0821
20.082
20.082
20.0683
20.0277
20.0674
20.0263
20.0811
20.0476
20.0809
20.0468
19.9824
20.1603
19.9806
20.1593
19.9595
20.1073
19.9583
20.1065
20.163
19.9875
20.1616
19.9847
20.1096
19.962
20.1084
19.9607
20.0311
20.0707
20.0292
20.0694
20.0499
20.0822
20.0487
20.0815
20.0848
20.0848
20.0837
20.0837
20.0829
20.0829
20.0824
20.0824
20.0707
20.0311
20.0694
20.0293
20.0822
20.0499
20.0815
20.0487
19.9875
20.1631
19.9847
20.1616
19.962
20.1096
19.9607
20.1084
20.1665
19.9909
20.1647
19.989
20.1128
19.9672
20.1111
19.9645
20.0351
20.074
20.033
20.0723
20.053
20.0841
20.0514
20.083
20.0876
20.0876
20.0861
20.0861
20.0847
20.0847
20.0837
20.0837
20.074
20.0351
20.0723
20.033
20.0841
20.053
20.083
20.0514
19.9909
20.1665
19.989
20.1647
19.9672
20.1128
19.9645
20.1111
20.1706
19.9959
20.1685
19.9932
20.117
19.9729
20.1148
19.97
20.04
20.0781
20.0375
20.076
20.0569
20.0869
20.0549
20.0854
20.0913
20.0913
20.0894
20.0894
20.0874
20.0874
20.0859
20.0859
20.0781
20.04
20.076
20.0375
20.0869
20.0569
20.0854
20.0549
19.9959
20.1706
19.9932
20.1685
19.9729
20.117
19.97
20.1148
20.1753
20.0018
20.1729
19.9987
20.122
19.9793
20.1194
19.976
20.0455
20.0828
20.0427
20.0804
20.0616
20.0905
20.0592
20.0886
20.0957
20.0957
20.0934
20.0934
20.0911
20.0911
20.0891
20.0891
20.0828
20.0455
20.0804
20.0427
20.0905
20.0616
20.0886
20.0592
20.0018
20.1753
19.9987
20.1729
19.9793
20.1221
19.976
20.1194
20.1801
20.0085
20.1777
20.0051
20.1279
19.9865
20.1249
19.9828
20.0516
20.0882
20.0485
20.0854
20.0668
20.0949
20.0641
20.0926
20.1009
20.1009
20.0982
20.0982
20.0957
20.0957
20.0933
20.0933
20.0882
20.0516
20.0854
20.0485
20.0949
20.0668
20.0926
20.0641
20.0085
20.1801
20.0051
20.1777
19.9865
20.1279
19.9828
20.1249
20.1845
20.016
20.1824
20.0121
20.1341
19.9947
20.131
19.9904
20.0583
20.094
20.0549
20.091
20.0726
20.0999
20.0696
20.0974
20.1066
20.1066
20.1037
20.1037
20.1011
20.1011
20.0983
20.0983
20.094
20.0583
20.091
20.0549
20.0999
20.0726
20.0974
20.0696
20.016
20.1845
20.0121
20.1824
19.9947
20.1341
19.9904
20.131
20.187
20.0249
20.1862
20.0201
20.1399
20.0041
20.1372
19.9993
20.0654
20.1001
20.0618
20.097
20.0787
20.1055
20.0756
20.1027
20.1129
20.1129
20.1097
20.1097
20.1074
20.1074
20.1042
20.1042
20.1001
20.0654
20.097
20.0618
20.1055
20.0787
20.1027
20.0756
20.0249
20.187
20.0201
20.1862
20.0041
20.1399
19.9993
20.1372
20.1811
20.0404
20.1861
20.031
20.1404
20.0171
20.1417
20.0094
20.0731
20.1064
20.0691
20.1032
20.0853
20.1117
20.0819
20.1085
20.1198
20.1198
20.1163
20.1163
20.1145
20.1145
20.1108
20.1108
20.1064
20.0731
20.1032
20.0691
20.1117
20.0853
20.1085
20.0819
20.0404
20.1811
20.031
20.1861
20.0171
20.1404
20.0094
20.1417
20.1988
20.0349
20.1751
20.0513
20.1568
20.0155
20.1378
20.0263
20.0759
20.1137
20.0767
20.1099
20.0899
20.1191
20.0888
20.1152
20.1275
20.1275
20.1236
20.1236
20.1223
20.1223
20.1183
20.1183
20.1137
20.0759
20.1099
20.0767
20.1191
20.0899
20.1152
20.0888
20.0349
20.1988
20.0513
20.1751
20.0155
20.1568
20.0263
20.1378
20.4501
19.984
20.3403
20.0055
20.4456
19.9656
20.3389
19.9927
19.9722
20.0359
20.0168
20.0652
19.9759
20.0455
20.0189
20.071
20.0761
20.0761
20.0925
20.0925
20.0849
20.0849
20.0975
20.0975
20.0359
19.9722
20.0652
20.0168
20.0455
19.9759
20.071
20.0189
19.984
20.4501
20.0055
20.3403
19.9656
20.4456
19.9927
20.3389
20.2848
20.0955
20.3358
20.07
20.2922
20.07
20.3401
20.0451
20.0282
20.0413
20.0084
20.039
20.0247
20.0499
20.008
20.0478
20.0604
20.0604
20.0671
20.0671
20.072
20.072
20.0774
20.0774
20.0413
20.0282
20.039
20.0084
20.0499
20.0247
20.0478
20.008
20.0955
20.2848
20.07
20.3358
20.07
20.2922
20.0451
20.3401
20.2478
20.0998
20.2622
20.1005
20.2555
20.0742
20.2701
20.075
20.0464
20.0502
20.0399
20.0457
20.0423
20.059
20.0355
20.0544
20.0607
20.0607
20.0592
20.0592
20.073
20.073
20.0713
20.0713
20.0502
20.0464
20.0457
20.0399
20.059
20.0423
20.0544
20.0355
20.0998
20.2478
20.1005
20.2622
20.0742
20.2555
20.075
20.2701
20.2299
20.0943
20.2376
20.0972
20.237
20.0686
20.245
20.0715
20.0519
20.0575
20.05
20.0541
20.0486
20.0665
20.0464
20.0631
20.0665
20.0665
20.0633
20.0633
20.0791
20.0791
20.0758
20.0758
20.0575
20.0519
20.0541
20.05
20.0665
20.0486
20.0631
20.0464
20.0943
20.2299
20.0972
20.2376
20.0686
20.237
20.0715
20.245
20.2191
20.0885
20.2239
20.0913
20.2257
20.0629
20.2307
20.0656
20.0532
20.0625
20.0528
20.0602
20.0505
20.0719
20.0499
20.0695
20.0726
20.0726
20.0696
20.0696
20.0855
20.0855
20.0824
20.0824
20.0625
20.0532
20.0602
20.0528
20.0719
20.0505
20.0695
20.0499
20.0885
20.2191
20.0913
20.2239
20.0629
20.2257
20.0656
20.2307
20.2116
20.0835
20.2151
20.0859
20.2179
20.0578
20.2215
20.0602
20.0532
20.0657
20.0532
20.0643
20.0507
20.0756
20.0507
20.0739
20.0776
20.0776
20.0753
20.0753
20.0908
20.0908
20.0883
20.0883
20.0657
20.0532
20.0643
20.0532
20.0756
20.0507
20.0739
20.0507
20.0835
20.2116
20.0859
20.2151
20.0578
20.2179
20.0602
20.2215
20.2061
20.0794
20.2087
20.0813
20.2122
20.0536
20.2149
20.0556
20.0527
20.0677
20.053
20.0668
20.0502
20.0779
20.0505
20.0769
20.0812
20.0812
20.0796
20.0796
20.0948
20.0948
20.093
20.093
20.0677
20.0527
20.0668
20.053
20.0779
20.0502
20.0769
20.0505
20.0794
20.2061
20.0813
20.2087
20.0536
20.2123
20.0556
20.2149
20.2018
20.0758
20.2039
20.0775
20.2078
20.05
20.2099
20.0517
20.0518
20.0688
20.0523
20.0683
20.0493
20.0793
20.0498
20.0788
20.0836
20.0836
20.0826
20.0826
20.0976
20.0976
20.0964
20.0964
20.0688
20.0518
20.0683
20.0523
20.0794
20.0493
20.0788
20.0498
20.0758
20.2018
20.0775
20.2039
20.05
20.2079
20.0517
20.21
20.1982
20.0726
20.2
20.0741
20.2042
20.0468
20.206
20.0483
20.0506
20.0692
20.0512
20.0691
20.0481
20.08
20.0487
20.0798
20.0851
20.0851
20.0845
20.0845
20.0993
20.0993
20.0986
20.0986
20.0692
20.0506
20.0691
20.0512
20.08
20.0481
20.0798
20.0487
20.0727
20.1983
20.0742
20.2
20.0468
20.2043
20.0483
20.206
20.1952
20.0697
20.1967
20.0711
20.2011
20.0439
20.2026
20.0453
20.0492
20.069
20.0499
20.0692
20.0467
20.08
20.0474
20.0801
20.0857
20.0857
20.0855
20.0855
20.1001
20.1001
20.0998
20.0998
20.069
20.0492
20.0692
20.05
20.08
20.0467
20.0801
20.0474
20.0698
20.1952
20.0712
20.1967
20.0439
20.2011
20.0453
20.2027
20.1923
20.067
20.1937
20.0683
20.1982
20.0411
20.1997
20.0425
20.0476
20.0684
20.0484
20.0687
20.0451
20.0794
20.0459
20.0798
20.0857
20.0857
20.0858
20.0858
20.1002
20.1002
20.1003
20.1003
20.0684
20.0477
20.0687
20.0485
20.0795
20.0451
20.0798
20.046
20.067
20.1924
20.0684
20.1938
20.0412
20.1983
20.0425
20.1997
20.1897
20.0643
20.191
20.0656
20.1956
20.0385
20.1969
20.0398
20.0459
20.0673
20.0468
20.0679
20.0434
20.0785
20.0443
20.079
20.0851
20.0851
20.0854
20.0854
20.0997
20.0997
20.1
20.1001
20.0673
20.0459
20.0679
20.0468
20.0785
20.0434
20.079
20.0443
20.0643
20.1897
20.0657
20.191
20.0385
20.1955
20.0398
20.1969
20.187
20.0617
20.1884
20.063
20.1928
20.0359
20.1942
20.0372
20.0439
20.0659
20.0449
20.0666
20.0415
20.0771
20.0424
20.0779
20.084
20.084
20.0846
20.0846
20.0987
20.0987
20.0993
20.0993
20.0659
20.044
20.0666
20.0449
20.0771
20.0414
20.0779
20.0424
20.0617
20.187
20.063
20.1884
20.0358
20.1929
20.0372
20.1942
20.1845
20.059
20.1858
20.0604
20.1904
20.0331
20.1916
20.0345
20.0418
20.0642
20.0429
20.0651
20.0393
20.0754
20.0404
20.0763
20.0826
20.0826
20.0833
20.0833
20.0973
20.0973
20.098
20.098
20.0642
20.0419
20.0651
20.0429
20.0755
20.0394
20.0763
20.0404
20.059
20.1845
20.0604
20.1858
20.0333
20.1902
20.0345
20.1916
20.1818
20.0565
20.1832
20.0577
20.1877
20.0305
20.1891
20.0318
20.0396
20.0623
20.0407
20.0633
20.037
20.0735
20.0381
20.0745
20.0808
20.0808
20.0817
20.0818
20.0954
20.0954
20.0964
20.0964
20.0623
20.0396
20.0633
20.0407
20.0735
20.037
20.0745
20.0382
20.0565
20.1818
20.0577
20.1832
20.0303
20.1879
20.0318
20.189
20.1796