/*--------------------------------*- C++ -*----------------------------------*\
  =========                 |
  \\      /  F ield         | OpenFOAM: The Open Source CFD Toolbox
   \\    /   O peration     | Website:  https://openfoam.org
    \\  /    A nd           | Version:  9
     \\/     M anipulation  |
\*---------------------------------------------------------------------------*/
FoamFile
{
    format      ascii;
    class       surfaceScalarField;
    location    "5";
    object      phi;
}
// * * * * * * * * * * * * * * * * * * * * * * * * * * * * * * * * * * * * * //

dimensions      [0 3 -1 0 0 0 0];

internalField   nonuniform List<scalar> 
104044
(
8.64576e-06
-0.000140863
-2.47095e-05
0.000128566
2.83617e-05
-9.1435e-05
2.31253e-05
-2.96745e-06
0.000101244
-2.1321e-05
8.1683e-06
-3.74893e-05
3.35302e-05
2.71019e-05
-2.8677e-06
-2.1378e-05
-7.92796e-06
-0.00017024
0.000153458
-6.95853e-05
3.02862e-06
8.1754e-05
-5.68185e-06
2.20217e-06
-5.60967e-07
-9.74155e-05
-1.94769e-06
9.83729e-05
-1.41625e-06
-0.000100419
-2.12971e-06
-6.95314e-08
9.98381e-05
2.21898e-06
-5.91734e-07
-2.18385e-06
-1.4419e-06
-4.34612e-06
-8.02613e-08
2.88158e-06
5.89905e-07
-8.17777e-05
8.22688e-05
-9.3217e-05
7.26785e-08
9.16045e-05
3.06598e-07
1.71027e-08
2.32536e-12
-0.000101711
-1.56752e-06
0.00010102
2.1895e-06
-0.000101711
-1.56752e-06
6.95361e-08
0.00010102
2.1895e-06
1.14328e-12
-4.35065e-06
3.37833e-06
-4.35065e-06
8.0263e-08
3.37833e-06
1.68194e-12
-9.71918e-05
9.56969e-05
-9.71918e-05
-7.26713e-08
9.56969e-05
7.88892e-13
-1.7099e-08
5.60971e-07
-0.000100419
-2.12973e-06
9.98381e-05
2.21899e-06
-9.74155e-05
-1.94777e-06
2.96746e-06
9.83729e-05
-1.41615e-06
5.91733e-07
-4.34614e-06
2.8816e-06
-2.18394e-06
2.86769e-06
-1.44181e-06
-5.89887e-07
-9.32171e-05
9.16046e-05
-8.1778e-05
-3.02857e-06
8.22689e-05
-3.06583e-07
-2.20213e-06
-8.64564e-06
-9.14349e-05
2.31249e-05
0.000101244
-2.13207e-05
-0.000140864
-2.47092e-05
0.000128566
2.83615e-05
-8.16815e-06
2.71015e-05
-2.13778e-05
-3.74888e-05
3.35299e-05
7.92775e-06
-6.95855e-05
8.1754e-05
-0.00017024
0.000153458
5.68168e-06
1.59386e-06
-0.000121985
-2.43876e-05
0.000118183
2.65954e-05
-0.000104855
2.47116e-05
-1.62223e-06
0.000106242
-2.28826e-05
3.93073e-06
-2.42471e-05
2.68973e-05
2.43672e-05
-1.75573e-06
-2.22914e-05
-1.4468e-05
-0.000140801
0.000130882
-9.05916e-05
4.34371e-06
9.64915e-05
-1.15903e-05
3.93937e-06
2.96142e-07
-9.96854e-05
3.82492e-07
0.000101005
-3.62009e-06
-9.98092e-05
-8.01502e-07
2.21595e-07
0.000100179
5.06144e-07
-3.87113e-08
-2.79189e-07
-2.75028e-06
-1.28061e-06
7.23848e-08
1.19846e-06
1.37335e-06
-8.49225e-05
8.82753e-05
-9.11319e-05
3.15338e-07
9.13884e-05
1.00649e-06
1.98463e-07
4.26312e-12
-0.000100658
-8.0345e-07
0.000100587
1.09633e-06
-0.000100658
-8.03455e-07
-2.21579e-07
0.000100587
1.09632e-06
4.25979e-12
-1.02837e-06
1.46243e-06
-1.02837e-06
-7.23698e-08
1.46243e-06
-4.73607e-12
-9.4867e-05
9.43789e-05
-9.4867e-05
-3.1535e-07
9.43789e-05
1.98187e-12
-1.98451e-07
-2.96124e-07
-9.98092e-05
-8.01508e-07
0.000100179
5.0615e-07
-9.96854e-05
3.82445e-07
1.62223e-06
0.000101005
-3.62002e-06
3.87258e-08
-1.28062e-06
1.19847e-06
-2.79251e-07
1.75573e-06
-2.7502e-06
-1.37333e-06
-9.1132e-05
9.13884e-05
-8.49225e-05
-4.34368e-06
8.82753e-05
-1.00647e-06
-3.93932e-06
-1.59383e-06
-0.000104855
2.47113e-05
0.000106242
-2.28823e-05
-0.000121985
-2.43874e-05
0.000118183
2.65952e-05
-3.93068e-06
2.43669e-05
-2.22911e-05
-2.42468e-05
2.68971e-05
1.44677e-05
-9.05915e-05
9.64915e-05
-0.000140802
0.000130882
1.159e-05
-5.76246e-07
-0.00011555
-2.22842e-05
0.00011365
2.476e-05
-0.000106888
2.35504e-05
-2.01504e-06
0.000107212
-2.24356e-05
2.70015e-07
-2.30354e-05
2.53982e-05
2.38628e-05
-1.77073e-06
-2.24679e-05
-1.73148e-05
-0.000123905
0.000118935
-9.99833e-05
4.19674e-06
0.000102022
-1.60582e-05
4.31278e-06
6.37726e-07
-0.000102132
2.7856e-07
0.000103066
-3.86457e-06
-0.000100742
-3.76147e-07
5.07149e-07
0.00010138
-1.30706e-07
5.02097e-07
4.13256e-07
-3.81382e-06
-4.90582e-07
3.72553e-07
5.69064e-08
1.86789e-06
-9.13649e-05
9.39723e-05
-9.21161e-05
5.16355e-07
9.30915e-05
1.63642e-06
4.18183e-07
2.01423e-11
-0.000100745
-3.91003e-07
0.000101078
5.65121e-07
-0.000100745
-3.91051e-07
-5.0708e-07
0.000101078
5.65118e-07
4.59234e-12
-5.80183e-07
7.94812e-07
-5.80195e-07
-3.72532e-07
7.94809e-07
-1.16315e-10
-9.42169e-05
9.43424e-05
-9.42169e-05
-5.16594e-07
9.43424e-05
-2.62866e-11
-4.18232e-07
-6.37636e-07
-0.000100742
-3.76287e-07
0.00010138
-1.30711e-07
-0.000102132
2.77974e-07
2.01494e-06
0.000103066
-3.86454e-06
-5.0208e-07
-4.90602e-07
5.69089e-08
4.13185e-07
1.77071e-06
-3.81376e-06
-1.86808e-06
-9.2116e-05
9.30912e-05
-9.13648e-05
-4.19672e-06
9.39714e-05
-1.63643e-06
-4.31277e-06
5.76201e-07
-0.000106888
2.35499e-05
0.000107212
-2.24354e-05
-0.00011555
-2.22841e-05
0.000113651
2.47598e-05
-2.69998e-07
2.38625e-05
-2.24677e-05
-2.30352e-05
2.53981e-05
1.73147e-05
-9.99832e-05
0.000102022
-0.000123905
0.000118935
1.6058e-05
-1.50019e-06
-0.000112297
-2.09658e-05
0.000111317
2.3446e-05
-0.000107383
2.28037e-05
-2.42716e-06
0.000107488
-2.19813e-05
-1.12173e-06
-2.13044e-05
2.378e-05
2.2876e-05
-2.20985e-06
-2.19597e-05
-1.83957e-05
-0.000115436
0.000112866
-0.000103148
3.77109e-06
0.000103785
-1.78056e-05
3.94449e-06
6.77731e-07
-0.00010382
-1.10353e-08
0.000104461
-3.73479e-06
-0.000102029
-3.88474e-07
6.64621e-07
0.000102677
-2.46695e-07
6.80483e-07
1.22713e-07
-3.76737e-06
-3.56359e-07
5.95729e-07
-2.08107e-07
2.13003e-06
-9.60367e-05
9.76668e-05
-9.4151e-05
6.53747e-07
9.52388e-05
2.0028e-06
5.86935e-07
-3.13845e-11
-0.000101528
-1.13481e-07
0.000102056
2.49177e-07
-0.000101527
-1.13488e-07
-6.6454e-07
0.000102056
2.49183e-07
1.55706e-10
-2.30233e-07
3.75987e-07
-2.30438e-07
-5.95128e-07
3.75972e-07
-8.26288e-11
-9.46995e-05
9.52399e-05
-9.46996e-05
-6.54026e-07
9.524e-05
-4.11746e-10
-5.88071e-07
-6.77584e-07
-0.000102029
-3.88602e-07
0.000102677
-2.46708e-07
-0.000103819
-1.14183e-08
2.42701e-06
0.000104461
-3.7348e-06
-6.78427e-07
-3.57225e-07
-2.08389e-07
1.29383e-07
2.20771e-06
-3.76831e-06
-2.13031e-06
-9.41512e-05
9.52388e-05
-9.60376e-05
-3.77101e-06
9.76669e-05
-2.00522e-06
-3.942e-06
1.50012e-06
-0.000107383
2.28033e-05
0.000107488
-2.19812e-05
-0.000112297
-2.09658e-05
0.000111317
2.34459e-05
1.12116e-06
2.28748e-05
-2.19596e-05
-2.13047e-05
2.37798e-05
1.83955e-05
-0.000103148
0.000103785
-0.000115437
0.000112867
1.78062e-05
-1.91154e-06
-0.000110615
-2.01237e-05
0.000110124
2.25269e-05
-0.000107577
2.23392e-05
-2.71728e-06
0.000107673
-2.16303e-05
-1.72823e-06
-2.02906e-05
2.27199e-05
2.23134e-05
-2.55997e-06
-2.15703e-05
-1.8729e-05
-0.000111012
0.000109617
-0.000104122
3.40291e-06
0.000104329
-1.8436e-05
3.54025e-06
6.05239e-07
-0.000105003
-2.0595e-07
0.000105491
-3.60534e-06
-0.000103307
-4.6846e-07
7.1578e-07
0.000103923
-2.58451e-07
6.41606e-07
-1.12468e-07
-3.63095e-06
-4.26245e-07
6.93318e-07
-2.55119e-07
2.2214e-06
-9.89111e-05
9.98867e-05
-9.63056e-05
7.24247e-07
9.73343e-05
2.18342e-06
6.90328e-07
-8.52869e-11
-0.000102629
1.79567e-08
0.000103231
9.65014e-08
-0.000102629
1.80012e-08
-7.15846e-07
0.000103231
9.65183e-08
-6.18044e-10
-3.60011e-08
1.57294e-07
-3.81587e-08
-6.92938e-07
1.57504e-07
-1.85807e-11
-9.58936e-05
9.66358e-05
-9.58934e-05
-7.24381e-07
9.66358e-05
5.9444e-10
-6.90934e-07
-6.05292e-07
-0.000103307
-4.68446e-07
0.000103923
-2.58424e-07
-0.000105003
-2.06003e-07
2.71723e-06
0.000105491
-3.60527e-06
-6.41528e-07
-4.26081e-07
-2.55054e-07
-1.1247e-07
2.55994e-06
-3.63091e-06
-2.22148e-06
-9.63055e-05
9.73341e-05
-9.89111e-05
-3.40296e-06
9.98865e-05
-2.18366e-06
-3.54034e-06
1.91155e-06
-0.000107577
2.2339e-05
0.000107673
-2.16302e-05
-0.000110616
-2.01235e-05
0.000110124
2.25267e-05
1.72823e-06
2.23132e-05
-2.15701e-05
-2.02904e-05
2.27197e-05
1.87287e-05
-0.000104122
0.000104329
-0.000111012
0.000109617
1.84358e-05
-2.10037e-06
-0.000109791
-1.94872e-05
0.000109592
2.17875e-05
-0.000107796
2.19681e-05
-2.89522e-06
0.000107948
-2.13243e-05
-2.00413e-06
-1.9578e-05
2.19145e-05
2.19169e-05
-2.7886e-06
-2.12555e-05
-1.87249e-05
-0.000108607
0.000107844
-0.000104461
3.11487e-06
0.00010459
-1.85678e-05
3.21706e-06
5.0577e-07
-0.000105939
-3.05383e-07
0.000106367
-3.52284e-06
-0.000104512
-5.1297e-07
7.03578e-07
0.000105088
-2.60391e-07
5.50509e-07
-2.66726e-07
-3.52021e-06
-4.91525e-07
7.07834e-07
-2.54931e-07
2.12081e-06
-0.00010068
0.000101369
-9.82724e-05
7.32315e-07
9.91479e-05
2.15683e-06
7.27197e-07
-6.1938e-11
-0.000103833
7.4712e-08
0.000104444
1.85917e-08
-0.000103833
7.46927e-08
-7.03722e-07
0.000104444
1.8619e-08
-6.92881e-11
5.29487e-08
5.22616e-08
5.29335e-08
-7.07961e-07
5.22796e-08
-5.76456e-11
-9.7416e-05
9.82231e-05
-9.7416e-05
-7.32497e-07
9.82231e-05
-8.07213e-11
-7.27377e-07
-5.05954e-07
-0.000104512
-5.13049e-07
0.000105088
-2.60327e-07
-0.000105939
-3.05551e-07
2.89501e-06
0.000106367
-3.52272e-06
-5.50624e-07
-4.91571e-07
-2.54877e-07
-2.66849e-07
2.78851e-06
-3.5201e-06
-2.12115e-06
-9.82722e-05
9.91478e-05
-0.00010068
-3.11535e-06
0.000101369
-2.15699e-06
-3.21718e-06
2.10024e-06
-0.000107796
2.19678e-05
0.000107948
-2.13242e-05
-0.000109792
-1.94873e-05
0.000109591
2.17875e-05
2.00412e-06
2.19167e-05
-2.12553e-05
-1.95778e-05
2.19143e-05
1.87245e-05
-0.000104461
0.000104589
-0.000108607
0.000107844
1.85676e-05
-2.18337e-06
-0.000109491
-1.89226e-05
0.000109484
2.11124e-05
-0.000108134
2.16006e-05
-2.99292e-06
0.000108354
-2.10112e-05
-2.13026e-06
-1.90007e-05
2.12315e-05
2.15638e-05
-2.92214e-06
-2.0958e-05
-1.85409e-05
-0.000107316
0.000106934
-0.000104715
2.89406e-06
0.00010488
-1.8472e-05
2.96697e-06
4.13179e-07
-0.000106783
-3.37e-07
0.000107201
-3.48711e-06
-0.000105644
-5.20499e-07
6.63634e-07
0.000106196
-2.81967e-07
4.53306e-07
-3.26403e-07
-3.46592e-06
-5.15722e-07
6.78232e-07
-2.65477e-07
1.99398e-06
-0.000101972
0.000102535
-9.99552e-05
7.05405e-07
0.000100723
2.03749e-06
7.14548e-07
7.51359e-11
-0.000105046
9.30654e-08
0.00010565
-3.34969e-08
-0.000105046
9.31555e-08
-6.63496e-07
0.00010565
-3.35515e-08
-3.62699e-12
8.53475e-08
-9.6644e-09
8.53629e-08
-6.78285e-07
-9.6697e-09
2.39468e-10
-9.90229e-05
9.98211e-05
-9.9023e-05
-7.04795e-07
9.98212e-05
9.49376e-11
-7.14414e-07
-4.13018e-07
-0.000105644
-5.20187e-07
0.000106196
-2.82221e-07
-0.000106784
-3.35949e-07
2.99284e-06
0.000107202
-3.48778e-06
-4.53451e-07
-5.15696e-07
-2.65516e-07
-3.2632e-07
2.92175e-06
-3.46603e-06
-1.99295e-06
-9.99553e-05
0.000100723
-0.000101972
-2.89186e-06
0.000102535
-2.03764e-06
-2.96774e-06
2.18236e-06
-0.000108134
2.16014e-05
0.000108354
-2.1011e-05
-0.000109491
-1.89247e-05
0.000109485
2.11132e-05
2.12963e-06
2.15629e-05
-2.09574e-05
-1.90019e-05
2.12317e-05
1.8544e-05
-0.000104716
0.000104882
-0.00010731
0.00010693
1.84679e-05
-2.21318e-06
-0.000109547
-1.8404e-05
0.000109683
2.04817e-05
-0.00010861
2.12358e-05
-3.03711e-06
0.000108901
-2.07029e-05
-2.18119e-06
-1.84592e-05
2.05777e-05
2.11935e-05
-2.98927e-06
-2.06419e-05
-1.82754e-05
-0.00010671
0.000106581
-0.000105065
2.72135e-06
0.000105304
-1.82348e-05
2.77375e-06
3.36633e-07
-0.000107625
-3.23617e-07
0.000108061
-3.48629e-06
-0.000106739
-5.01448e-07
6.17324e-07
0.000107287
-3.27307e-07
3.69207e-07
-3.34573e-07
-3.44752e-06
-5.091e-07
6.33942e-07
-2.98528e-07
1.87393e-06
-0.000103061
0.000103585
-0.000101448
6.64424e-07
0.000102156
1.91294e-06
6.78963e-07
-3.26981e-11
-0.000106246
1.08065e-07
0.000106846
-9.15963e-08
-0.000106245
1.07963e-07
-6.17358e-07
0.000106846
-9.15372e-08
4.50195e-11
9.86261e-08
-6.01937e-08
9.86855e-08
-6.33838e-07
-6.0242e-08
-3.91962e-10
-0.000100599
0.000101372
-0.000100599
-6.65297e-07
0.000101372
-6.33872e-12
-6.78873e-07
-3.36577e-07
-0.000106739
-5.01798e-07
0.000107287
-3.27024e-07
-0.000107625
-3.24015e-07
3.03726e-06
0.000108061
-3.48588e-06
-3.68994e-07
-5.0889e-07
-2.9873e-07
-3.33089e-07
2.98929e-06
-3.44847e-06
-1.87482e-06
-0.000101448
0.000102156
-0.000103062
-2.72159e-06
0.000103584
-1.91265e-06
-2.77213e-06
2.21226e-06
-0.00010861
2.12442e-05
0.000108902
-2.07104e-05
-0.000109547
-1.84121e-05
0.000109683
2.04881e-05
2.18045e-06
2.1202e-05
-2.06493e-05
-1.8467e-05
2.05857e-05
1.82839e-05
-0.000105065
0.000105304
-0.00010671
0.000106582
1.8247e-05
-2.21304e-06
-0.000109869
-1.79164e-05
0.000110119
1.98798e-05
-0.000109228
2.08754e-05
-3.04447e-06
0.000109588
-2.04039e-05
-2.19335e-06
-1.79673e-05
1.9974e-05
2.08343e-05
-3.01102e-06
-2.03431e-05
-1.7967e-05
-0.000106553
0.000106604
-0.000105573
2.58561e-06
0.000105896
-1.79395e-05
2.62613e-06
2.76161e-07
-0.000108511
-2.83337e-07
0.00010898
-3.50608e-06
-0.000107834
-4.64566e-07
5.73764e-07
0.000108394
-3.92482e-07
3.01783e-07
-3.04623e-07
-3.45845e-06
-4.80146e-07
5.88659e-07
-3.53986e-07
1.77173e-06
-0.000104103
0.000104633
-0.000102842
6.23558e-07
0.000103526
1.8036e-06
6.37554e-07
1.29834e-10
-0.000107443
1.31063e-07
0.000108049
-1.63922e-07
-0.000107443
1.31019e-07
-5.73566e-07
0.000108049
-1.63881e-07
3.89276e-11
1.17027e-07
-1.24711e-07
1.16847e-07
-5.886e-07
-1.24576e-07
1.73227e-10
-0.000102126
0.000102881
-0.000102126
-6.23324e-07
0.000102881
-4.84837e-11
-6.37876e-07
-2.7608e-07
-0.000107834
-4.64792e-07
0.000108394
-3.92279e-07
-0.000108512
-2.82373e-07
3.04426e-06
0.000108981
-3.50686e-06
-3.01808e-07
-4.80739e-07
-3.53473e-07
-3.05471e-07
3.01086e-06
-3.45789e-06
-1.77225e-06
-0.000102842
0.000103526
-0.000104101
-2.58486e-06
0.000104632
-1.80445e-06
-2.62689e-06
2.21262e-06
-0.000109229
2.08933e-05
0.000109589
-2.04215e-05
-0.000109871
-1.79312e-05
0.000110117
1.98968e-05
2.19234e-06
2.08423e-05
-2.03514e-05
-1.79758e-05
1.99808e-05
1.79908e-05
-0.000105574
0.000105891
-0.000106551
0.000106611
1.79452e-05
-2.19494e-06
-0.000110412
-1.74368e-05
0.000110755
1.92889e-05
-0.000109979
2.05076e-05
-3.02366e-06
0.000110405
-2.01052e-05
-2.18247e-06
-1.74871e-05
1.93768e-05
2.04715e-05
-3.00461e-06
-2.00404e-05
-1.76301e-05
-0.000106731
0.000106924
-0.000106253
2.47278e-06
0.000106657
-1.76144e-05
2.50009e-06
2.29462e-07
-0.000109467
-2.26487e-07
0.000109976
-3.53608e-06
-0.000108958
-4.16692e-07
5.35727e-07
0.00010954
-4.71263e-07
2.48746e-07
-2.5562e-07
-3.48437e-06
-4.37294e-07
5.4802e-07
-4.26182e-07
1.68628e-06
-0.000105169
0.000105729
-0.000104199
5.8571e-07
0.000104883
1.70845e-06
5.97367e-07
2.57888e-10
-0.000108655
1.62931e-07
0.000109277
-2.4854e-07
-0.000108656
1.63288e-07
-5.35216e-07
0.000109277
-2.48857e-07
1.31389e-10
1.44417e-07
-2.02911e-07
1.44549e-07
-5.47755e-07
-2.03043e-07
3.42781e-12
-0.000103623
0.000104371
-0.000103623
-5.85273e-07
0.000104371
-1.52936e-10
-5.97577e-07
-2.29033e-07
-0.000108958
-4.15845e-07
0.00010954
-4.71875e-07
-0.000109467
-2.27212e-07
3.02473e-06
0.000109976
-3.53585e-06
-2.48548e-07
-4.37072e-07
-4.26313e-07
-2.55664e-07
3.00494e-06
-3.48448e-06
-1.6847e-06
-0.0001042
0.000104883
-0.000105166
-2.47198e-06
0.000105726
-1.7085e-06
-2.4987e-06
2.19208e-06
-0.000109981
2.05148e-05
0.000110408
-2.0109e-05
-0.000110407
-1.74467e-05
0.000110752
1.92942e-05
2.18163e-06
2.04856e-05
-2.00546e-05
-1.74984e-05
1.93903e-05
1.76357e-05
-0.000106239
0.000106647
-0.000106751
0.00010694
1.76389e-05
-2.17025e-06
-0.000111128
-1.69539e-05
0.000111546
1.87062e-05
-0.000110865
2.01256e-05
-2.98671e-06
0.000111357
-1.98015e-05
-2.16135e-06
-1.70117e-05
1.87993e-05
2.01021e-05
-2.97527e-06
-1.97477e-05
-1.72852e-05
-0.000107195
0.000107526
-0.000107081
2.37104e-06
0.00010755
-1.72823e-05
2.3964e-06
1.93286e-07
-0.000110506
-1.59906e-07
0.000111058
-3.57257e-06
-0.00011013
-3.6172e-07
5.03897e-07
0.00011074
-5.58898e-07
2.08367e-07
-1.95838e-07
-3.51738e-06
-3.86371e-07
5.13733e-07
-5.09083e-07
1.61394e-06
-0.000106298
0.000106895
-0.000105566
5.52569e-07
0.000106266
1.63246e-06
5.63249e-07
3.35708e-10
-0.000109901
2.02517e-07
0.000110544
-3.41464e-07
-0.000109901
2.02908e-07
-5.03347e-07
0.000110544
-3.41808e-07
3.35275e-10
1.80001e-07
-2.91435e-07
1.80483e-07
-5.13144e-07
-2.91846e-07
1.58763e-10
-0.000105114
0.000105869
-0.000105114
-5.51982e-07
0.000105869
1.94429e-10
-5.62477e-07
-1.93416e-07
-0.00011013
-3.60759e-07
0.00011074
-5.59433e-07
-0.000110505
-1.60362e-07
2.98633e-06
0.000111057
-3.57182e-06
-2.07997e-07
-3.85068e-07
-5.10088e-07
-1.93632e-07
2.97632e-06
-3.5189e-06
-1.61292e-06
-0.000105567
0.000106267
-0.0001063
-2.37422e-06
0.000106901
-1.63119e-06
-2.39807e-06
2.1636e-06
-0.000110862
2.01462e-05
0.00011135
-1.98117e-05
-0.00011113
-1.6977e-05
0.000111553
1.87178e-05
2.15699e-06
2.01274e-05
-1.97616e-05
-1.70381e-05
1.88167e-05
1.72912e-05
-0.000107081
0.000107562
-0.000107197
0.000107511
1.7295e-05
-2.13129e-06
-0.000111991
-1.65139e-05
0.000112486
1.81501e-05
-0.000111871
1.97671e-05
-2.93585e-06
0.000112412
-1.95029e-05
-2.13242e-06
-1.65594e-05
1.82475e-05
1.97457e-05
-2.93171e-06
-1.94605e-05
-1.69143e-05
-0.000107913
0.000108313
-0.000108043
2.29483e-06
0.000108601
-1.6946e-05
2.30659e-06
1.67349e-07
-0.000111629
-9.06733e-08
0.000112222
-3.60579e-06
-0.00011136
-3.04265e-07
4.77789e-07
0.000112001
-6.47511e-07
1.77431e-07
-1.23233e-07
-3.55628e-06
-3.29976e-07
4.85205e-07
-5.97884e-07
1.55508e-06
-0.00010751
0.000108159
-0.000106971
5.24855e-07
0.000107697
1.56806e-06
5.3275e-07
4.50171e-10
-0.000111192
2.45808e-07
0.00011186
-4.3607e-07
-0.000111192
2.46116e-07
-4.76702e-07
0.00011186
-4.36352e-07
3.9511e-10
2.2167e-07
-3.85259e-07
2.2194e-07
-4.84404e-07
-3.855e-07
1.44383e-10
-0.000106623
0.000107394
-0.000106623
-5.23777e-07
0.000107394
1.52899e-10
-5.3204e-07
-1.66306e-07
-0.00011136
-3.03662e-07
0.000112001
-6.47489e-07
-0.000111629
-9.50727e-08
2.93677e-06
0.000112222
-3.60087e-06
-1.77303e-07
-3.29427e-07
-5.9777e-07
-1.2875e-07
2.93123e-06
-3.55178e-06
-1.55143e-06
-0.000106971
0.000107695
-0.000107512
-2.28876e-06
0.000108154
-1.56572e-06
-2.30582e-06
2.13104e-06
-0.00011187
1.97461e-05
0.00011242
-1.94895e-05
-0.000111995
-1.64842e-05
0.00011248
1.81305e-05
2.1268e-06
1.97386e-05
-1.94544e-05
-1.65532e-05
1.82382e-05
1.69199e-05
-0.000108051
0.000108589
-0.000107901
0.000108337
1.69431e-05
-2.08189e-06
-0.000112995
-1.60627e-05
0.000113538
1.76017e-05
-0.000112981
1.94006e-05
-2.88493e-06
0.000113577
-1.91943e-05
-2.08517e-06
-1.61079e-05
1.76838e-05
1.93708e-05
-2.87987e-06
-1.91451e-05
-1.6579e-05
-0.000108777
0.000109293
-0.000109166
2.21906e-06
0.000109769
-1.65714e-05
2.23431e-06
1.47982e-07
-0.000112832
-3.49724e-08
0.000113463
-3.62876e-06
-0.000112651
-2.4577e-07
4.55568e-07
0.000113321
-7.31762e-07
1.55494e-07
-6.48082e-08
-3.58096e-06
-2.72468e-07
4.61305e-07
-6.83431e-07
1.49949e-06
-0.000108817
0.000109502
-0.000108428
5.01433e-07
0.000109181
1.51165e-06
5.07693e-07
1.92267e-10
-0.000112533
2.9022e-07
0.000113225
-5.26882e-07
-0.000112533
2.90747e-07
-4.55352e-07
0.000113225
-5.27305e-07
3.76538e-10
2.65288e-07
-4.77551e-07
2.65771e-07
-4.60534e-07
-4.77943e-07
4.75144e-10
-0.000108166
0.000108958
-0.000108166
-5.00066e-07
0.000108957
3.38157e-10
-5.0625e-07
-1.48613e-07
-0.000112651
-2.44231e-07
0.000113321
-7.32712e-07
-0.000112832
-3.43025e-08
2.8841e-06
0.000113463
-3.62901e-06
-1.551e-07
-2.71191e-07
-6.84075e-07
-6.61241e-08
2.88022e-06
-3.57919e-06
-1.49732e-06
-0.000108426
0.000109179
-0.000108811
-2.22091e-06
0.0001095
-1.50806e-06
-2.23128e-06
2.08913e-06
-0.000112983
1.94091e-05
0.000113566
-1.9197e-05
-0.000112993
-1.60729e-05
0.000113549
1.76067e-05
2.08912e-06
1.93699e-05
-1.91421e-05
-1.61035e-05
1.76788e-05
1.65692e-05
-0.000109154
0.000109773
-0.000108806
0.000109303
1.6573e-05
-2.04919e-06
-0.000114097
-1.56428e-05
0.000114691
1.70979e-05
-0.000114186
1.90313e-05
-2.82075e-06
0.00011481
-1.88833e-05
-2.04467e-06
-1.56835e-05
1.71692e-05
1.90137e-05
-2.82246e-06
-1.88447e-05
-1.6209e-05
-0.000109839
0.000110405
-0.000110388
2.15793e-06
0.000111053
-1.62289e-05
2.16531e-06
1.36454e-07
-0.000114108
1.82584e-08
0.000114771
-3.63808e-06
-0.000113998
-1.90897e-07
4.37112e-07
0.000114692
-8.0372e-07
1.40354e-07
-8.72936e-09
-3.5992e-06
-2.15391e-07
4.41169e-07
-7.62186e-07
1.45044e-06
-0.000110199
0.000110925
-0.000109939
4.80256e-07
0.000110718
1.45936e-06
4.8558e-07
-3.1181e-11
-0.000113921
3.3085e-07
0.000114632
-6.0543e-07
-0.000113921
3.31013e-07
-4.37264e-07
0.000114632
-6.05604e-07
6.86456e-11
3.0805e-07
-5.62528e-07
3.08374e-07
-4.4116e-07
-5.62821e-07
-2.81709e-10
-0.000109751
0.000110562
-0.000109751
-4.80973e-07
0.000110563
1.69631e-10
-4.85157e-07
-1.36337e-07
-0.000113998
-1.91056e-07
0.000114692
-8.04039e-07
-0.000114108
1.43323e-08
2.82149e-06
0.000114772
-3.63565e-06
-1.40609e-07
-2.14781e-07
-7.62756e-07
-1.10681e-08
2.82239e-06
-3.59756e-06
-1.4524e-06
-0.000109938
0.000110719
-0.000110199
-2.16465e-06
0.000110925
-1.45925e-06
-2.16872e-06
2.0394e-06
-0.000114179
1.90015e-05
0.000114818
-1.8859e-05
-0.000114104
-1.56165e-05
0.000114685
1.70744e-05
2.04454e-06
1.89935e-05
-1.88288e-05
-1.56652e-05
1.71547e-05
1.61764e-05
-0.000110391
0.000111052
-0.000109845
0.000110405
1.62071e-05
-2.00396e-06
-0.000115286
-1.52141e-05
0.000115907
1.65972e-05
-0.000115449
1.86302e-05
-2.75793e-06
0.000116101
-1.85287e-05
-2.0042e-06
-1.52548e-05
1.66642e-05
1.86246e-05
-2.75808e-06
-1.85099e-05
-1.58262e-05
-0.000111003
0.000111615
-0.000111717
2.10057e-06
0.000112421
-1.58531e-05
2.10678e-06
1.27146e-07
-0.00011544
5.98435e-08
0.000116119
-3.6233e-06
-0.000115387
-1.45279e-07
4.21285e-07
0.000116094
-8.5542e-07
1.30292e-07
3.79052e-08
-3.59556e-06
-1.65322e-07
4.24231e-07
-8.23819e-07
1.4061e-06
-0.000111656
0.00011241
-0.0001115
4.62222e-07
0.000112299
1.41323e-06
4.66004e-07
-2.63144e-10
-0.000115343
3.63597e-07
0.000116065
-6.64209e-07
-0.000115343
3.63734e-07
-4.2204e-07
0.000116066
-6.64266e-07
-1.43304e-10
3.44781e-07
-6.31237e-07
3.44955e-07
-4.2466e-07
-6.31357e-07
-1.89572e-10
-0.000111374
0.0001122
-0.000111374
-4.62491e-07
0.0001122
-2.44329e-10
-4.66367e-07
-1.28336e-07
-0.000115387
-1.44996e-07
0.000116094
-8.55795e-07
-0.000115441
6.01818e-08
2.75705e-06
0.00011612
-3.62451e-06
-1.30609e-07
-1.6525e-07
-8.24199e-07
3.61712e-08
2.75909e-06
-3.59488e-06
-1.40676e-06
-0.000111501
0.0001123
-0.000111658
-2.10495e-06
0.000112416
-1.41362e-06
-2.10953e-06
2.00298e-06
-0.000115456
1.86405e-05
0.000116099
-1.85297e-05
-0.000115281
-1.52278e-05
0.00011591
1.66018e-05
1.99972e-06
1.86167e-05
-1.84948e-05
-1.52467e-05
1.66503e-05
1.58178e-05
-0.000111719
0.000112437
-0.000110997
0.000111587
1.58395e-05
-1.95818e-06
-0.000116521
-1.48289e-05
0.000117151
1.61567e-05
-0.000116755
1.82359e-05
-2.68816e-06
0.00011741
-1.81611e-05
-1.9622e-06
-1.4853e-05
1.62009e-05
1.82354e-05
-2.69369e-06
-1.81572e-05
-1.54569e-05
-0.000112246
0.000112874
-0.000113119
2.05031e-06
0.000113847
-1.54833e-05
2.05406e-06
1.22827e-07
-0.000116799
8.75768e-08
0.000117482
-3.5822e-06
-0.000116796
-1.13051e-07
4.08126e-07
0.000117503
-8.79245e-07
1.23453e-07
7.26749e-08
-3.56993e-06
-1.26217e-07
4.09982e-07
-8.62628e-07
1.36654e-06
-0.000113165
0.000113936
-0.000113095
4.46437e-07
0.000113902
1.37219e-06
4.49515e-07
-2.38309e-10
-0.000116781
3.83109e-07
0.000117501
-6.94488e-07
-0.000116781
3.8288e-07
-4.08446e-07
0.000117501
-6.94333e-07
-3.13833e-10
3.71354e-07
-6.76578e-07
3.71303e-07
-4.10664e-07
-6.76529e-07
-4.47884e-10
-0.000113021
0.000113851
-0.000113021
-4.47528e-07
0.000113851
-4.16145e-10
-4.50553e-07
-1.22663e-07
-0.000116797
-1.13925e-07
0.000117503
-8.78409e-07
-0.0001168
8.39735e-08
2.68977e-06
0.000117483
-3.57921e-06
-1.24296e-07
-1.26464e-07
-8.6243e-07
7.11903e-08
2.69299e-06
-3.56918e-06
-1.36781e-06
-0.000113097
0.000113903
-0.000113171
-2.04953e-06
0.000113937
-1.37383e-06
-2.05769e-06
1.96111e-06
-0.000116755
1.82233e-05
0.000117417
-1.81562e-05
-0.000116523
-1.48069e-05
0.000117145
1.61464e-05
1.96068e-06
1.82316e-05
-1.81556e-05
-1.48516e-05
1.61992e-05
1.54652e-05
-0.000113135
0.000113843
-0.000112212
0.00011287
1.54764e-05
-1.90157e-06
-0.00011776
-1.44556e-05
0.000118374
1.57439e-05
-0.000118063
1.78174e-05
-2.62081e-06
0.000118713
-1.77481e-05
-1.91033e-06
-1.44809e-05
1.57822e-05
1.78398e-05
-2.62679e-06
-1.77763e-05
-1.50805e-05
-0.000113517
0.000114142
-0.000114556
2.00609e-06
0.000115287
-1.51243e-05
2.00633e-06
1.20529e-07
-0.000118156
9.32023e-08
0.000118822
-3.50094e-06
-0.000118197
-9.89159e-08
3.96751e-07
0.000118885
-8.65853e-07
1.20167e-07
9.13768e-08
-3.51208e-06
-1.02526e-07
3.98019e-07
-8.69228e-07
1.33135e-06
-0.000114699
0.000115467
-0.0001147
4.33642e-07
0.000115498
1.335e-06
4.35285e-07
-6.47119e-11
-0.000118206
3.85079e-07
0.000118906
-6.88299e-07
-0.000118206
3.85026e-07
-3.96837e-07
0.000118906
-6.88302e-07
-1.64955e-10
3.82728e-07
-6.89718e-07
3.82529e-07
-3.98241e-07
-6.89595e-07
-9.59248e-11
-0.000114669
0.000115488
-0.000114669
-4.33795e-07
0.000115488
-2.83611e-10
-4.35916e-07
-1.20765e-07
-0.000118197
-9.88309e-08
0.000118886
-8.65853e-07
-0.000118156
9.52686e-08
2.61999e-06
0.000118822
-3.50205e-06
-1.20243e-07
-1.03068e-07
-8.6868e-07
9.04052e-08
2.62724e-06
-3.51119e-06
-1.33101e-06
-0.0001147
0.000115498
-0.000114698
-2.0042e-06
0.000115467
-1.3356e-06
-2.00665e-06
1.9118e-06
-0.000118064
1.78377e-05
0.0001187
-1.77653e-05
-0.00011776
-1.44738e-05
0.000118384
1.57612e-05
1.9176e-06
1.78475e-05
-1.77849e-05
-1.44859e-05
1.57883e-05
1.50971e-05
-0.000114555
0.000115292
-0.000113513
0.000114136
1.51285e-05
-1.87013e-06
-0.00011896
-1.41084e-05
0.000119541
1.53979e-05
-0.000119342
1.73789e-05
-2.54688e-06
0.000119947
-1.73072e-05
-1.86671e-06
-1.41191e-05
1.53991e-05
1.74067e-05
-2.55536e-06
-1.73472e-05
-1.47149e-05
-0.000114767
0.000115374
-0.000115988
1.96083e-06
0.000116691
-1.4744e-05
1.96188e-06
1.22814e-07
-0.00011947
7.52822e-08
0.0001201
-3.37421e-06
-0.000119551
-1.05555e-07
3.86779e-07
0.0001202
-8.07349e-07
1.20345e-07
8.51149e-08
-3.40884e-06
-9.85286e-08
3.87466e-07
-8.34239e-07
1.29652e-06
-0.000116214
0.000116953
-0.000116277
4.2247e-07
0.000117045
1.30021e-06
4.23472e-07
2.77274e-10
-0.000119581
3.64435e-07
0.00012024
-6.36958e-07
-0.000119581
3.64599e-07
-3.86061e-07
0.00012024
-6.37169e-07
1.24594e-10
3.73866e-07
-6.62005e-07
3.73894e-07
-3.87128e-07
-6.62092e-07
1.28614e-10
-0.000116285
0.000117072
-0.000116285
-4.21927e-07
0.000117072
4.24051e-11
-4.23365e-07
-1.21227e-07
-0.000119551
-1.05504e-07
0.0001202
-8.07848e-07
-0.00011947
7.42064e-08
2.54865e-06
0.000120099
-3.37316e-06
-1.19724e-07
-9.85538e-08
-8.34388e-07
8.49583e-08
2.55609e-06
-3.40866e-06
-1.29564e-06
-0.000116276
0.000117045
-0.000116212
-1.95806e-06
0.000116949
-1.3002e-06
-1.9607e-06
1.85779e-06
-0.000119331
1.73672e-05
0.00011995
-1.72954e-05
-0.000118967
-1.40954e-05
0.000119535
1.53855e-05
1.86604e-06
1.74107e-05
-1.73519e-05
-1.41197e-05
1.54031e-05
1.47182e-05
-0.000115986
0.000116677
-0.000114773
0.000115395
1.47558e-05
-1.82622e-06
-0.000120081
-1.37945e-05
0.000120599
1.51035e-05
-0.000120522
1.69255e-05
-2.47712e-06
0.000121061
-1.68142e-05
-1.82899e-06
-1.38046e-05
1.50931e-05
1.69803e-05
-2.48518e-06
-1.68991e-05
-1.43665e-05
-0.000115966
0.000116538
-0.000117353
1.91587e-06
0.000117996
-1.43967e-05
1.92168e-06
1.25219e-07
-0.000120697
3.00201e-08
0.000121259
-3.19445e-06
-0.000120814
-1.36783e-07
3.76984e-07
0.000121396
-6.97541e-07
1.22878e-07
5.39079e-08
-3.25896e-06
-1.17117e-07
3.77897e-07
-7.51813e-07
1.26215e-06
-0.000117661
0.000118345
-0.000117782
4.12249e-07
0.000118496
1.26798e-06
4.13485e-07
6.2851e-12
-0.000120863
3.17957e-07
0.000121456
-5.33759e-07
-0.000120863
3.1846e-07
-3.77015e-07
0.000121456
-5.34278e-07
1.77401e-10
3.4116e-07
-5.86544e-07
3.41562e-07
-3.77445e-07
-5.86963e-07
-8.71167e-11
-0.000117826
0.000118557
-0.000117826
-4.12255e-07
0.000118557
1.01191e-10
-4.12798e-07
-1.25317e-07
-0.000120814
-1.35234e-07
0.000121396
-6.99252e-07
-0.000120696
3.32341e-08
2.47671e-06
0.000121258
-3.19696e-06
-1.21896e-07
-1.1608e-07
-7.53129e-07
5.54851e-08
2.48627e-06
-3.2601e-06
-1.262e-06
-0.000117782
0.000118496
-0.000117657
-1.92036e-06
0.000118348
-1.26596e-06
-1.91866e-06
1.82228e-06
-0.000120526
1.69378e-05
0.000121058
-1.6816e-05
-0.000120074
-1.38166e-05
0.0001206
1.51125e-05
1.82128e-06
1.6981e-05
-1.68915e-05
-1.38069e-05
1.50892e-05
1.43523e-05
-0.000117339
0.000118005
-0.000115988
0.000116524
1.44e-05
-1.78364e-06
-0.000121063
-1.35176e-05
0.000121488
1.48765e-05
-0.000121555
1.64354e-05
-2.40526e-06
0.000122001
-1.62594e-05
-1.78651e-06
-1.35075e-05
1.48297e-05
1.65094e-05
-2.41456e-06
-1.63754e-05
-1.39807e-05
-0.00011707
0.000117533
-0.00011859
1.88024e-06
0.000119164
-1.40395e-05
1.87639e-06
1.30282e-07
-0.000121776
-4.28266e-08
0.000122242
-2.95893e-06
-0.000121931
-1.94746e-07
3.68353e-07
0.000122419
-5.31627e-07
1.26265e-07
-3.8369e-09
-3.05413e-06
-1.60518e-07
3.68534e-07
-6.1606e-07
1.22854e-06
-0.000118985
0.000119594
-0.000119164
4.03358e-07
0.000119794
1.23233e-06
4.03456e-07
1.40325e-10
-0.000122
2.41755e-07
0.000122498
-3.71687e-07
-0.000122
2.419e-07
-3.68114e-07
0.000122498
-3.71807e-07
2.88333e-11
2.80948e-07
-4.55981e-07
2.81271e-07
-3.68531e-07
-4.56311e-07
2.9073e-10
-0.000119241
0.000119886
-0.000119242
-4.02663e-07
0.000119886
5.12397e-11
-4.03336e-07
-1.30347e-07
-0.000121931
-1.9452e-07
0.000122419
-5.31535e-07
-0.000121775
-4.53025e-08
2.40426e-06
0.000122242
-2.95579e-06
-1.26473e-07
-1.59662e-07
-6.16878e-07
-3.95787e-09
2.41365e-06
-3.05367e-06
-1.22777e-06
-0.000119166
0.000119796
-0.000118992
-1.87949e-06
0.000119599
-1.23269e-06
-1.88038e-06
1.78213e-06
-0.000121557
1.64139e-05
0.000122008
-1.62431e-05
-0.000121063
-1.34949e-05
0.000121482
1.4858e-05
1.78214e-06
1.65002e-05
-1.63669e-05
-1.35056e-05
1.48248e-05
1.39724e-05
-0.000118603
0.000119165
-0.00011704
0.000117517
1.40212e-05
-1.72957e-06
-0.000121831
-1.32395e-05
0.000122116
1.46845e-05
-0.000122402
1.58843e-05
-2.33737e-06
0.000122741
-1.56151e-05
-1.73853e-06
-1.32193e-05
1.46145e-05
1.59811e-05
-2.34485e-06
-1.57756e-05
-1.36005e-05
-0.000117963
0.000118324
-0.000119654
1.8417e-06
0.000120096
-1.36497e-05
1.8414e-06
1.38609e-07
-0.000122652
-1.71484e-07
0.000122999
-2.65221e-06
-0.000122845
-2.81802e-07
3.60378e-07
0.000123209
-3.04201e-07
1.32671e-07
-1.01891e-07
-2.78517e-06
-2.32867e-07
3.60263e-07