/*--------------------------------*- C++ -*----------------------------------*\
  =========                 |
  \\      /  F ield         | OpenFOAM: The Open Source CFD Toolbox
   \\    /   O peration     | Website:  https://openfoam.org
    \\  /    A nd           | Version:  9
     \\/     M anipulation  |
\*---------------------------------------------------------------------------*/
FoamFile
{
    format      ascii;
    class       volVectorField;
    location    "5";
    object      U;
}
// * * * * * * * * * * * * * * * * * * * * * * * * * * * * * * * * * * * * * //

dimensions      [0 1 -1 0 0 0 0];

internalField   nonuniform List<vector> 
36360
(
(0.0481508 -0.242036 -0.850542)
(-0.0384163 -0.193694 0.003259)
(0.0535132 -0.279162 -0.875975)
(-0.0387513 -0.161302 0.00304033)
(0.0489899 -0.298565 -0.967925)
(-0.0511268 -0.153193 -0.00291401)
(0.0881062 -0.38162 -0.977248)
(-0.0624668 -0.0968145 -0.00206296)
(-0.00239934 -0.187687 -0.0021294)
(0.00344205 -0.190405 -0.000401799)
(-0.00261488 -0.182261 -0.00210841)
(0.00397198 -0.189236 -0.000445638)
(0.00808013 -0.157527 0.0021961)
(0.00459926 -0.175672 0.000433314)
(0.0104853 -0.155714 0.0014961)
(0.0122942 -0.18451 0.000192945)
(0.00321973 -0.192586 -4.14612e-05)
(0.00321973 -0.192586 4.14667e-05)
(0.00434633 -0.191871 -4.78268e-05)
(0.00434633 -0.191871 4.7829e-05)
(0.00261617 -0.183072 4.33216e-05)
(0.00261617 -0.183072 -4.33144e-05)
(0.0117794 -0.192597 1.01915e-05)
(0.0117794 -0.192597 -1.01879e-05)
(0.00344207 -0.190405 0.000401807)
(-0.00239914 -0.187687 0.00212941)
(0.00397199 -0.189236 0.000445639)
(-0.00261471 -0.182261 0.00210841)
(0.00459927 -0.175672 -0.000433291)
(0.00808017 -0.157527 -0.00219605)
(0.0122943 -0.184511 -0.000192934)
(0.0104854 -0.155714 -0.00149607)
(-0.0384156 -0.193694 -0.00325893)
(0.0481501 -0.242036 0.850545)
(-0.0387508 -0.161302 -0.00304025)
(0.0535122 -0.279162 0.875978)
(-0.0511259 -0.153193 0.00291392)
(0.0489894 -0.298565 0.967925)
(-0.0624659 -0.0968153 0.00206288)
(0.0881049 -0.38162 0.977248)
(0.0481993 -0.228159 -0.844915)
(-0.0415431 -0.200719 6.47601e-05)
(0.0483268 -0.23688 -0.848449)
(-0.0406776 -0.196681 0.00126023)
(0.0477297 -0.257389 -0.969881)
(-0.0549134 -0.178149 -0.00612758)
(0.0471859 -0.27476 -0.971159)
(-0.0544151 -0.164321 -0.00462806)
(-0.00623659 -0.190752 -0.000700556)
(0.00100893 -0.189928 0.000295234)
(-0.00481845 -0.187898 -0.0010905)
(0.00201344 -0.189379 1.32233e-05)
(0.00444183 -0.164473 0.00367487)
(0.00227935 -0.173189 0.00124315)
(0.00530992 -0.158176 0.00314109)
(0.00298684 -0.172704 0.000867519)
(0.00177191 -0.191089 0.000115133)
(0.00177191 -0.191089 -0.000115117)
(0.00230581 -0.19146 3.68113e-05)
(0.00230581 -0.19146 -3.67998e-05)
(0.00123384 -0.179626 0.000209372)
(0.00123385 -0.179626 -0.000209366)
(0.00149369 -0.180327 0.000120772)
(0.00149369 -0.180327 -0.000120761)
(0.00100894 -0.189928 -0.000295213)
(-0.00623645 -0.190752 0.000700559)
(0.00201346 -0.189379 -1.32086e-05)
(-0.00481829 -0.187898 0.00109051)
(0.00227935 -0.173189 -0.00124312)
(0.00444185 -0.164473 -0.00367483)
(0.00298683 -0.172704 -0.00086749)
(0.00530992 -0.158176 -0.00314104)
(-0.0415426 -0.200719 -6.47483e-05)
(0.0481988 -0.228159 0.844917)
(-0.040677 -0.196681 -0.0012602)
(0.0483262 -0.236881 0.848452)
(-0.0549127 -0.178148 0.00612744)
(0.0477292 -0.25739 0.969882)
(-0.0544144 -0.164321 0.00462793)
(0.0471852 -0.274761 0.971159)
(0.0460324 -0.217507 -0.838599)
(-0.0411846 -0.203439 -0.00135874)
(0.047105 -0.221762 -0.841202)
(-0.0413908 -0.202568 -0.000747912)
(0.0442097 -0.230322 -0.967863)
(-0.0530863 -0.192036 -0.00810192)
(0.0457818 -0.241611 -0.968741)
(-0.0539 -0.186916 -0.00725381)
(-0.00648311 -0.195012 -0.000624109)
(0.000199688 -0.192004 0.000654905)
(-0.0065443 -0.193094 -0.000601767)
(0.000476962 -0.190846 0.00050933)
(0.00501976 -0.17626 0.00395901)
(0.00154442 -0.175946 0.0017451)
(0.00455987 -0.17096 0.00390911)
(0.00171851 -0.174317 0.00153723)
(0.00102659 -0.191671 0.00026543)
(0.00102661 -0.191671 -0.000265366)
(0.00136904 -0.191176 0.000197959)
(0.00136905 -0.191176 -0.000197941)
(0.000570977 -0.17905 0.000388357)
(0.000571013 -0.17905 -0.000388587)
(0.000903063 -0.179059 0.000302853)
(0.000903076 -0.179059 -0.000302892)
(0.000199759 -0.192004 -0.000654792)
(-0.00648286 -0.195013 0.000624112)
(0.00047697 -0.190846 -0.000509308)
(-0.00654417 -0.193094 0.000601763)
(0.0015445 -0.175946 -0.0017453)
(0.00501989 -0.176259 -0.00395913)
(0.00171851 -0.174316 -0.00153724)
(0.00455989 -0.17096 -0.00390911)
(-0.041184 -0.203439 0.00135864)
(0.0460321 -0.217508 0.838602)
(-0.0413903 -0.202568 0.00074791)
(0.0471045 -0.221762 0.841205)
(-0.0530856 -0.192036 0.00810182)
(0.0442094 -0.230322 0.967864)
(-0.0538994 -0.186916 0.00725365)
(0.0457813 -0.241612 0.968742)
(0.0446519 -0.212319 -0.833607)
(-0.0410181 -0.204126 -0.00215427)
(0.0452108 -0.214497 -0.835549)
(-0.041048 -0.203879 -0.00181393)
(0.0423795 -0.216719 -0.966358)
(-0.0522815 -0.196618 -0.00921323)
(0.043073 -0.22241 -0.966999)
(-0.0525095 -0.194976 -0.00873494)
(-0.00618666 -0.197902 -0.000805799)
(6.20509e-05 -0.194476 0.000775269)
(-0.0063293 -0.196592 -0.000702303)
(8.54092e-05 -0.193239 0.000737952)
(0.00583573 -0.18411 0.00381539)
(0.00172956 -0.179944 0.00194261)
(0.00550807 -0.180635 0.00391032)
(0.00159585 -0.177895 0.00187349)
(0.000549609 -0.193381 0.000346616)
(0.000549615 -0.193381 -0.000346599)
(0.000749168 -0.192436 0.000314008)
(0.000749269 -0.192436 -0.000313512)
(2.42312e-05 -0.180405 0.00051262)
(2.42335e-05 -0.180405 -0.000512848)
(0.000279588 -0.179517 0.000458402)
(0.000279724 -0.179517 -0.000459415)
(6.21139e-05 -0.194476 -0.000775119)
(-0.00618639 -0.197901 0.000805779)
(8.58113e-05 -0.193239 -0.00073592)
(-0.006328 -0.196592 0.000702405)
(0.00172961 -0.179945 -0.00194297)
(0.00583592 -0.184111 -0.00381556)
(0.00159632 -0.177895 -0.00187605)
(0.00551011 -0.180635 -0.00391078)
(-0.0410175 -0.204126 0.00215412)
(0.0446517 -0.212319 0.83361)
(-0.041047 -0.203879 0.00181198)
(0.0452107 -0.214497 0.835551)
(-0.0522808 -0.196618 0.00921319)
(0.0423792 -0.21672 0.966359)
(-0.0525083 -0.194976 0.00873688)
(0.0430728 -0.22241 0.967001)
(0.0439227 -0.209633 -0.829546)
(-0.0411132 -0.204472 -0.002607)
(0.0442226 -0.21075 -0.831071)
(-0.0410299 -0.204301 -0.00240965)
(0.0414849 -0.209503 -0.96521)
(-0.0521385 -0.198024 -0.00984884)
(0.04181 -0.212564 -0.965688)
(-0.0521119 -0.197521 -0.00957221)
(-0.0059839 -0.199983 -0.00102074)
(0.000117094 -0.196875 0.000766551)
(-0.0060694 -0.199013 -0.000914655)
(8.25747e-05 -0.195691 0.000780162)
(0.00617791 -0.188904 0.00358552)
(0.0019992 -0.183978 0.00195955)
(0.00606227 -0.186813 0.00370072)
(0.00187627 -0.18199 0.00196532)
(0.000328711 -0.19556 0.000376073)
(0.000328699 -0.19556 -0.000376227)
(0.000414296 -0.194437 0.000365798)
(0.00041409 -0.194437 -0.000366396)
(-0.000273117 -0.182892 0.000569697)
(-0.000273143 -0.182892 -0.000569791)
(-0.000166833 -0.181553 0.000549362)
(-0.000167241 -0.181553 -0.000548808)
(0.000117123 -0.196875 -0.000766623)
(-0.00598376 -0.199983 0.00102068)
(8.24915e-05 -0.195691 -0.000779775)
(-0.00606932 -0.199013 0.000914691)
(0.00199915 -0.183978 -0.00195971)
(0.0061779 -0.188904 -0.00358562)
(0.00187613 -0.18199 -0.00196588)
(0.00606223 -0.186813 -0.00370093)
(-0.0411128 -0.204472 0.00260697)
(0.0439222 -0.209633 0.829548)
(-0.0410295 -0.204301 0.00240964)
(0.0442221 -0.21075 0.831074)
(-0.0521381 -0.198024 0.00984867)
(0.0414845 -0.209503 0.965211)
(-0.0521114 -0.197521 0.009572)
(0.0418095 -0.212565 0.965689)
(0.0434734 -0.208368 -0.826088)
(-0.041308 -0.204939 -0.00287697)
(0.0436611 -0.208864 -0.827319)
(-0.0411966 -0.20468 -0.00275782)
(0.0409831 -0.205571 -0.964305)
(-0.052195 -0.198583 -0.010233)
(0.0411508 -0.20724 -0.96467)
(-0.0521098 -0.198339 -0.0100629)
(-0.00589456 -0.201692 -0.00120384)
(0.000170022 -0.199124 0.000707766)
(-0.00592181 -0.200865 -0.00111663)
(0.000149775 -0.19802 0.000740416)
(0.00634897 -0.191964 0.00337782)
(0.00215174 -0.187563 0.00190415)
(0.00627658 -0.190569 0.00347653)
(0.00208968 -0.185843 0.00193643)
(0.000244685 -0.197862 0.000374946)
(0.000244727 -0.197862 -0.000375109)
(0.000277568 -0.196708 0.00037814)
(0.000277598 -0.196708 -0.000378307)
(-0.000337432 -0.185858 0.000576472)
(-0.000337418 -0.185858 -0.000576671)
(-0.000318176 -0.184347 0.000577285)
(-0.000318165 -0.184347 -0.000577502)
(0.000170179 -0.199124 -0.000707969)
(-0.00589436 -0.201692 0.00120358)
(0.000149898 -0.198019 -0.000740571)
(-0.00592157 -0.200865 0.00111649)
(0.00215186 -0.187563 -0.00190445)
(0.00634921 -0.191963 -0.00337832)
(0.00208971 -0.185843 -0.00193665)
(0.00627666 -0.190568 -0.00347672)
(-0.0413079 -0.204939 0.00287675)
(0.0434737 -0.208368 0.826091)
(-0.0411962 -0.20468 0.00275775)
(0.0436605 -0.208865 0.827322)
(-0.0521943 -0.198582 0.0102325)
(0.0409829 -0.205572 0.964307)
(-0.0521093 -0.198339 0.0100627)
(0.0411503 -0.20724 0.964671)
(0.0430642 -0.207993 -0.823036)
(-0.0414649 -0.205645 -0.00304448)
(0.043255 -0.208089 -0.824085)
(-0.0413804 -0.205259 -0.00296948)
(0.0406171 -0.203493 -0.961204)
(-0.0522696 -0.199095 -0.0104791)
(0.0407416 -0.204348 -0.963857)
(-0.0521849 -0.19882 -0.0103652)
(-0.00589151 -0.20328 -0.00134584)
(0.000170263 -0.201248 0.000637192)
(-0.00588223 -0.20249 -0.00127904)
(0.000177588 -0.200197 0.000672247)
(0.0064457 -0.194284 0.0032111)
(0.00221853 -0.190651 0.00182926)
(0.00640908 -0.193182 0.003288)
(0.00219301 -0.189158 0.00186687)
(0.000190674 -0.20016 0.000359933)
(0.000190513 -0.20016 -0.000359718)
(0.000218388 -0.199014 0.0003681)
(0.000218367 -0.199014 -0.000368118)
(-0.000338437 -0.188905 0.000561517)
(-0.000338486 -0.188905 -0.000560848)
(-0.000343435 -0.187386 0.00057038)
(-0.000343438 -0.187386 -0.000570215)
(0.000169496 -0.201248 -0.000636965)
(-0.00589376 -0.20328 0.00134595)
(0.000177481 -0.200197 -0.000672356)
(-0.00588273 -0.20249 0.0012787)
(0.00221852 -0.190652 -0.00182821)
(0.0064456 -0.194285 -0.00320895)
(0.00219317 -0.189158 -0.00186685)
(0.00640946 -0.193182 -0.00328856)
(-0.0414654 -0.205646 0.00304383)
(0.0430736 -0.207994 0.823039)
(-0.0413788 -0.20526 0.00296883)
(0.0432559 -0.20809 0.824088)
(-0.0522699 -0.199099 0.0104673)
(0.0406258 -0.203485 0.963575)
(-0.0521841 -0.198821 0.010362)
(0.0407419 -0.204343 0.963861)
(0.042689 -0.20824 -0.820232)
(-0.0416034 -0.206618 -0.00315151)
(0.0428409 -0.20805 -0.821166)
(-0.0415107 -0.206098 -0.00310282)
(0.0403149 -0.202592 -0.959553)
(-0.0523158 -0.199833 -0.0106301)
(0.0404111 -0.202925 -0.960773)
(-0.0522468 -0.199428 -0.0105601)
(-0.00595603 -0.204892 -0.00145181)
(0.000116015 -0.20332 0.000571367)
(-0.00591131 -0.204077 -0.00140208)
(0.000150329 -0.202286 0.000603077)
(0.00648828 -0.196308 0.00307951)
(0.00223314 -0.193424 0.00175504)
(0.00647605 -0.195314 0.00313982)
(0.00223135 -0.192066 0.00179092)
(0.000126119 -0.202434 0.000340965)
(0.000126271 -0.202434 -0.00034105)
(0.000160849 -0.201299 0.000350416)
(0.000160706 -0.201299 -0.000350278)
(-0.000325203 -0.191872 0.000538758)
(-0.000325139 -0.191872 -0.000539688)
(-0.000331207 -0.190401 0.000550447)
(-0.000331234 -0.190401 -0.000550341)
(0.000116666 -0.20332 -0.00057138)
(-0.00595541 -0.204892 0.0014519)
(0.000149578 -0.202286 -0.000602854)
(-0.00591497 -0.204077 0.00140227)
(0.0022334 -0.193424 -0.00175604)
(0.00648841 -0.196308 -0.0030802)
(0.00223138 -0.192066 -0.0017905)
(0.00647576 -0.195315 -0.00313838)
(-0.041631 -0.206618 0.00315093)
(0.0427215 -0.208241 0.820252)
(-0.0415392 -0.206099 0.00310237)
(0.0428818 -0.20805 0.821169)
(-0.0523152 -0.199831 0.0106357)
(0.0403197 -0.202592 0.959549)
(-0.0522464 -0.19943 0.0105539)
(0.0404215 -0.20292 0.963185)
(0.0423681 -0.208965 -0.817738)
(-0.0417699 -0.207858 -0.00322016)
(0.042537 -0.208549 -0.818435)
(-0.0416983 -0.207205 -0.00318829)
(0.0400234 -0.202472 -0.95586)
(-0.0523139 -0.200874 -0.0107413)
(0.0401193 -0.202446 -0.95572)
(-0.0522662 -0.200314 -0.0106998)
(-0.00606425 -0.206606 -0.0015291)
(1.84448e-05 -0.205409 0.000515892)
(-0.00600528 -0.205733 -0.001492)
(7.21141e-05 -0.204359 0.000542435)
(0.00649776 -0.19829 0.00298064)
(0.00221298 -0.196045 0.00169237)
(0.00650012 -0.197295 0.00302967)
(0.00222678 -0.194746 0.00172324)
(3.87654e-05 -0.204711 0.000323255)
(3.88977e-05 -0.204712 -0.000322926)
(8.56854e-05 -0.20357 0.00033176)
(8.60569e-05 -0.20357 -0.000331675)
(-0.000317948 -0.194754 0.000517478)
(-0.000317949 -0.194754 -0.000517117)
(-0.000320125 -0.193322 0.000528103)
(-0.00032 -0.193322 -0.000528444)
(1.90829e-05 -0.20541 -0.000515688)
(-0.00606791 -0.206606 0.00152902)
(7.358e-05 -0.204359 -0.000542414)
(-0.00600438 -0.205733 0.0014919)
(0.0022132 -0.196045 -0.00169225)
(0.00649829 -0.198287 -0.00298012)
(0.00222741 -0.194746 -0.00172386)
(0.00650116 -0.197294 -0.00303062)
(-0.0418351 -0.20786 0.00321994)
(0.0424477 -0.208964 0.817523)
(-0.04173 -0.207207 0.00318751)
(0.0425728 -0.20855 0.818454)
(-0.0523155 -0.200873 0.0107379)
(0.040041 -0.202475 0.958984)
(-0.052264 -0.200315 0.0107033)
(0.0401236 -0.202445 0.955718)
(0.0421017 -0.21009 -0.814306)
(-0.041974 -0.209347 -0.00326358)
(0.0421956 -0.209481 -0.815997)
(-0.041838 -0.208572 -0.00324254)
(0.0396989 -0.202949 -0.954914)
(-0.0522412 -0.202246 -0.010802)
(0.0398386 -0.202641 -0.955408)
(-0.0522523 -0.201523 -0.0107692)
(-0.00620274 -0.208458 -0.00158307)
(-0.000109479 -0.207563 0.000471296)
(-0.00612731 -0.207513 -0.00155788)
(-4.19693e-05 -0.206476 0.00049205)
(0.00649217 -0.200342 0.00290396)
(0.0021713 -0.198621 0.00164011)
(0.0064981 -0.199302 0.00293819)
(0.00219423 -0.197333 0.00166382)
(-7.31442e-05 -0.207028 0.000308104)
(-7.37416e-05 -0.207028 -0.000307436)
(-1.42719e-05 -0.205863 0.000315041)
(-1.45117e-05 -0.205863 -0.000314713)
(-0.000321823 -0.197589 0.000497989)
(-0.000322477 -0.197589 -0.000497584)
(-0.000318118 -0.196174 0.000506821)
(-0.000318388 -0.196174 -0.000507019)
(-0.000110508 -0.207564 -0.000470657)
(-0.0061985 -0.208459 0.00158413)
(-4.22645e-05 -0.206476 -0.00049176)
(-0.00612774 -0.207513 0.00155813)
(0.00216851 -0.198621 -0.00163959)
(0.00648935 -0.200336 -0.00290319)
(0.00219318 -0.197333 -0.00166398)
(0.00649812 -0.199297 -0.00293728)
(-0.041975 -0.209354 0.0032614)
(0.0421117 -0.21008 0.815305)
(-0.0418878 -0.208574 0.00324228)
(0.0422591 -0.209477 0.815779)
(-0.0522671 -0.202224 0.0107962)
(0.0397437 -0.202984 0.956502)
(-0.0522507 -0.201504 0.0107668)
(0.0398541 -0.202668 0.958592)
(0.0418205 -0.211525 -0.812861)
(-0.0421398 -0.211096 -0.0032903)
(0.0419332 -0.21077 -0.812605)
(-0.0420364 -0.210187 -0.00327744)
(0.0393164 -0.20396 -0.959344)
(-0.0520779 -0.203883 -0.0108081)
(0.039453 -0.203393 -0.955876)
(-0.0521069 -0.203031 -0.0108113)
(-0.0063598 -0.210473 -0.00162085)
(-0.000260555 -0.209816 0.000435867)
(-0.00627395 -0.209445 -0.00160246)
(-0.000182049 -0.208676 0.000452579)
(0.00648591 -0.20252 0.00283765)
(0.00211407 -0.201231 0.00159599)
(0.00649256 -0.201413 0.00286908)
(0.0021445 -0.199918 0.00161712)
(-0.000206368 -0.209414 0.000295776)
(-0.000206899 -0.209414 -0.00029495)
(-0.000137466 -0.208211 0.000301521)
(-0.000138202 -0.208211 -0.000300661)
(-0.000339608 -0.200426 0.000481395)
(-0.000340547 -0.200427 -0.000480661)
(-0.000328732 -0.199004 0.000489526)
(-0.000329684 -0.199005 -0.00048868)
(-0.000260564 -0.209816 -0.000435597)
(-0.00635131 -0.21047 0.00162045)
(-0.000183527 -0.208676 -0.000451895)
(-0.00627246 -0.209444 0.00160354)
(0.00210941 -0.201233 -0.00159614)
(0.00647694 -0.202527 -0.00284051)
(0.00214013 -0.199919 -0.00161686)
(0.00648402 -0.201412 -0.00287053)
(-0.042152 -0.211085 0.00328696)
(0.0418297 -0.211537 0.811158)
(-0.042063 -0.210191 0.0032742)
(0.0419691 -0.210765 0.813622)
(-0.0521516 -0.203891 0.0108096)
(0.0394019 -0.203959 0.959427)
(-0.0521886 -0.203023 0.0108081)
(0.0395611 -0.203403 0.95758)
(0.0415425 -0.213244 -0.808893)
(-0.0423171 -0.213053 -0.00330155)
(0.0416912 -0.212331 -0.811181)
(-0.0422328 -0.212057 -0.00329665)
(0.0390523 -0.205401 -0.956386)
(-0.0520163 -0.205798 -0.0108262)
(0.0391371 -0.204647 -0.960238)
(-0.0519943 -0.204796 -0.0108123)
(-0.00651487 -0.212646 -0.00164375)
(-0.000419057 -0.212183 0.000410039)
(-0.00643945 -0.211541 -0.00163288)
(-0.000339762 -0.210984 0.00042173)
(0.00646388 -0.204873 0.00279755)
(0.00204243 -0.203925 0.00156441)
(0.00648349 -0.203672 0.00281374)
(0.00208055 -0.202565 0.00157854)
(-0.000351564 -0.21189 0.000286424)
(-0.000352128 -0.21189 -0.000285111)
(-0.000278113 -0.21064 0.000290641)
(-0.000278499 -0.21064 -0.00028959)
(-0.000370188 -0.203308 0.000468435)
(-0.000370845 -0.203307 -0.000466957)
(-0.000353193 -0.20186 0.000474375)
(-0.00035394 -0.20186 -0.000473377)
(-0.000418916 -0.212182 -0.000408604)
(-0.00649836 -0.212647 0.0016452)
(-0.000338781 -0.210985 -0.000421133)
(-0.00642273 -0.211539 0.00163255)
(0.00203947 -0.203923 -0.00156157)
(0.00646498 -0.20487 -0.00279121)
(0.0020766 -0.202567 -0.00157737)
(0.0064786 -0.203679 -0.00281263)
(-0.0422726 -0.213063 0.00330029)
(0.0414915 -0.213238 0.810707)
(-0.0422035 -0.212042 0.00329387)
(0.04165 -0.212351 0.809454)
(-0.0519584 -0.205796 0.010804)
(0.0389949 -0.205416 0.96111)
(-0.0519859 -0.204812 0.0108043)
(0.0391315 -0.204616 0.961233)
(0.0412554 -0.215195 -0.805725)
(-0.0424644 -0.215221 -0.00330144)
(0.0413763 -0.214194 -0.807213)
(-0.0423787 -0.214101 -0.0033003)
(0.0386905 -0.207165 -0.96071)
(-0.0518353 -0.207974 -0.0108105)
(0.0388053 -0.206204 -0.957013)
(-0.0518581 -0.206863 -0.0108224)
(-0.00665915 -0.21497 -0.00166111)
(-0.000579096 -0.214664 0.000389963)
(-0.00658431 -0.213789 -0.00165224)
(-0.000498658 -0.21341 0.000399279)
(0.00639208 -0.20739 0.00275642)
(0.0019529 -0.206719 0.00153645)
(0.00643643 -0.206114 0.00277686)
(0.00199943 -0.205309 0.00154997)
(-0.000501033 -0.214461 0.000278391)
(-0.000501898 -0.214461 -0.000278012)
(-0.000426282 -0.213164 0.000282107)
(-0.000427115 -0.213164 -0.000281116)
(-0.000411769 -0.206259 0.000457584)
(-0.000412737 -0.206258 -0.000455908)
(-0.000389739 -0.204774 0.000462874)
(-0.000390629 -0.204773 -0.000460978)
(-0.000580882 -0.214663 -0.000390357)
(-0.0066527 -0.214968 0.00165953)
(-0.000499907 -0.213409 -0.000398535)
(-0.00657342 -0.21379 0.00165264)
(0.00194897 -0.206715 -0.00153516)
(0.0063844 -0.207384 -0.00275751)
(0.00199568 -0.205305 -0.00154733)
(0.00643221 -0.206104 -0.00277313)
(-0.0424185 -0.215208 0.00330472)
(0.0412006 -0.21521 0.806689)
(-0.0423337 -0.214123 0.00330153)
(0.0413281 -0.21417 0.80905)
(-0.0519222 -0.207966 0.0108039)
(0.0387797 -0.207212 0.960383)
(-0.0518922 -0.206842 0.0108032)
(0.038849 -0.206245 0.960493)
(0.0409883 -0.217349 -0.803432)
(-0.0425794 -0.217536 -0.00330468)
(0.041112 -0.216223 -0.803983)
(-0.0425169 -0.21637 -0.00330227)
(0.0384177 -0.209231 -0.960317)
(-0.0517093 -0.21036 -0.0107927)
(0.0385097 -0.20815 -0.960425)
(-0.0517228 -0.209132 -0.0108023)
(-0.00679076 -0.217426 -0.00166426)
(-0.000728681 -0.217248 0.000377761)
(-0.00672547 -0.216183 -0.0016623)
(-0.000656009 -0.215944 0.000383206)
(0.00631312 -0.210058 0.00273117)
(0.00185924 -0.209616 0.00151508)
(0.00635615 -0.208703 0.00274239)
(0.00190593 -0.208154 0.00152496)
(-0.000642152 -0.217118 0.000272618)
(-0.000642548 -0.217118 -0.000272719)
(-0.000573573 -0.21578 0.000275153)
(-0.000574212 -0.21578 -0.000275017)
(-0.000458582 -0.20929 0.000447818)
(-0.000458872 -0.20929 -0.000448773)
(-0.000434724 -0.207765 0.000452479)
(-0.000435296 -0.207764 -0.000451985)
(-0.000729144 -0.217247 -0.000377684)
(-0.00678306 -0.217428 0.00166525)
(-0.000657112 -0.215943 -0.000383373)
(-0.00671798 -0.216181 0.00166193)
(0.00185881 -0.209615 -0.00151737)
(0.00631755 -0.210059 -0.00273808)
(0.0019042 -0.208152 -0.00152529)
(0.00635702 -0.208702 -0.00274561)
(-0.0425252 -0.217541 0.00329825)
(0.0409103 -0.217343 0.803457)
(-0.042457 -0.216338 0.00330104)
(0.0410332 -0.21626 0.804975)
(-0.0516498 -0.210362 0.0108121)
(0.0383252 -0.209236 0.952697)
(-0.0517062 -0.209139 0.010807)
(0.0384773 -0.208161 0.956728)
(0.0406865 -0.21963 -0.803657)
(-0.0425996 -0.219968 -0.00329449)
(0.0408194 -0.218469 -0.801694)
(-0.0425847 -0.21873 -0.00329822)
(0.0380652 -0.21149 -0.959942)
(-0.0514773 -0.212923 -0.0107522)
(0.0381716 -0.210309 -0.960033)
(-0.0515242 -0.211619 -0.0107728)
(-0.00688669 -0.219975 -0.0016655)
(-0.000852208 -0.219902 0.000368014)
(-0.00683995 -0.218692 -0.00166361)
(-0.000793711 -0.218569 0.000372492)
(0.00623796 -0.212855 0.0027089)
(0.00177002 -0.212602 0.00149753)
(0.00628134 -0.211442 0.00271914)
(0.00181426 -0.2111 0.00150558)
(-0.000760714 -0.219833 0.000267919)
(-0.000760793 -0.219834 -0.000268841)
(-0.00070501 -0.218471 0.000269971)
(-0.000705241 -0.218471 -0.000270458)
(-0.000504866 -0.212388 0.000440497)
(-0.000505194 -0.212389 -0.000441241)
(-0.000482005 -0.210832 0.000443863)
(-0.000482376 -0.210832 -0.000444609)
(-0.000852157 -0.219902 -0.00036942)
(-0.00688458 -0.219976 0.00166396)
(-0.000793736 -0.218569 -0.000372958)
(-0.00683292 -0.218695 0.00166436)
(0.00176898 -0.212604 -0.00149915)
(0.00623392 -0.212862 -0.00271355)
(0.00181321 -0.2111 -0.00150699)
(0.00627959 -0.211444 -0.00272233)
(-0.0425734 -0.219971 0.00329551)
(0.0406426 -0.219635 0.801226)
(-0.0425245 -0.218757 0.00329578)
(0.0407368 -0.218441 0.801708)
(-0.0515614 -0.21294 0.0107685)
(0.0381361 -0.211459 0.955866)
(-0.0515633 -0.211621 0.0107862)
(0.0381913 -0.210304 0.956002)
(0.0404729 -0.221996 -0.799884)
(-0.042605 -0.222453 -0.00328298)
(0.0405541 -0.220786 -0.801937)
(-0.0425918 -0.221214 -0.00328787)
(0.0377929 -0.213855 -0.959546)
(-0.051273 -0.215617 -0.0107152)
(0.0378654 -0.212663 -0.959652)
(-0.0513149 -0.214252 -0.0107333)
(-0.00694255 -0.222565 -0.00165838)
(-0.000934284 -0.222583 0.000363599)
(-0.00691639 -0.221268 -0.00166124)
(-0.000898818 -0.221242 0.000365287)
(0.00617579 -0.215742 0.00269499)
(0.00169592 -0.215645 0.00148478)
(0.00621033 -0.21429 0.0027012)
(0.00173081 -0.214119 0.00149061)
(-0.000840594 -0.222566 0.000264991)
(-0.00084011 -0.222567 -0.000265583)
(-0.000806468 -0.221201 0.000266107)
(-0.000806322 -0.221201 -0.000267072)
(-0.000542492 -0.215525 0.000434661)
(-0.000542232 -0.215526 -0.000436187)
(-0.000524998 -0.213955 0.000437274)
(-0.000525008 -0.213955 -0.000438856)
(-0.000931718 -0.222584 -0.000363705)
(-0.00693457 -0.222568 0.00165957)
(-0.000897962 -0.221243 -0.000366432)
(-0.00691285 -0.221269 0.00165993)
(0.0016972 -0.215647 -0.00148625)
(0.00618186 -0.215749 -0.00269494)
(0.00173088 -0.214122 -0.00149293)
(0.00621198 -0.214301 -0.0027055)
(-0.0426015 -0.222463 0.00328423)
(0.0404588 -0.221987 0.802008)
(-0.0425807 -0.221201 0.00328846)
(0.0405268 -0.220807 0.799464)
(-0.0512203 -0.215629 0.0107225)
(0.0377296 -0.213833 0.959542)
(-0.0513141 -0.214281 0.0107517)
(0.037851 -0.212595 0.955495)
(0.0402803 -0.224334 -0.796786)
(-0.0425235 -0.224942 -0.00326085)
(0.0403655 -0.223168 -0.798165)
(-0.0425703 -0.22369 -0.00327036)
(0.0374698 -0.216294 -0.956044)
(-0.0509731 -0.21835 -0.0106769)
(0.0375648 -0.215058 -0.959253)
(-0.0510574 -0.216982 -0.0106923)
(-0.00692783 -0.225133 -0.00164981)
(-0.000953984 -0.225232 0.000361406)
(-0.00694451 -0.223856 -0.00165366)
(-0.00095313 -0.223916 0.00036198)
(0.00612893 -0.218658 0.00268663)
(0.00164693 -0.218689 0.00147635)
(0.00615457 -0.217201 0.00268848)
(0.00166772 -0.21717 0.00147948)
(-0.000864391 -0.22526 0.000262859)
(-0.000864217 -0.22526 -0.000263114)
(-0.00086066 -0.223922 0.00026365)
(-0.000860156 -0.223922 -0.000264129)
(-0.00056425 -0.21865 0.000431221)
(-0.000564232 -0.218651 -0.000431464)
(-0.000555737 -0.217093 0.000432563)
(-0.000555527 -0.217093 -0.000433517)
(-0.000953501 -0.225232 -0.000361765)
(-0.00692927 -0.225133 0.00164831)
(-0.000950968 -0.223917 -0.000362272)
(-0.00694027 -0.223859 0.00165361)
(0.00164703 -0.218689 -0.00147648)
(0.00612687 -0.218657 -0.00268513)
(0.00166869 -0.217171 -0.00148048)
(0.00615644 -0.217201 -0.00268922)
(-0.0425556 -0.224927 0.00326675)
(0.0403213 -0.224351 0.797731)
(-0.0425848 -0.223712 0.00327404)
(0.0403799 -0.223144 0.800318)
(-0.051029 -0.218354 0.0106719)
(0.0375443 -0.216286 0.959153)
(-0.0510789 -0.216977 0.0106955)
(0.0375927 -0.215043 0.959252)
(0.0401555 -0.226594 -0.79453)
(-0.0423464 -0.227334 -0.00325177)
(0.0401727 -0.225457 -0.794981)
(-0.0424133 -0.226163 -0.00325477)
(0.0371945 -0.218641 -0.955322)
(-0.0506353 -0.221055 -0.0106279)
(0.0372617 -0.217461 -0.955677)
(-0.0507405 -0.219711 -0.0106496)
(-0.00682929 -0.227601 -0.00163151)
(-0.000894378 -0.227773 0.000364112)
(-0.00688591 -0.226384 -0.00163947)
(-0.000934689 -0.226521 0.000362441)
(0.00611781 -0.221515 0.00267796)
(0.00163657 -0.221662 0.0014699)
(0.00612578 -0.220099 0.00268034)
(0.00163705 -0.22019 0.00147235)
(-0.000814314 -0.22784 0.000261921)
(-0.000814812 -0.22784 -0.000260906)
(-0.000849538 -0.226569 0.000262197)
(-0.000849653 -0.226569 -0.000261787)
(-0.000561618 -0.221696 0.000429056)
(-0.000561795 -0.221696 -0.000428194)
(-0.000566132 -0.220188 0.000429901)
(-0.000566157 -0.220188 -0.000429625)
(-0.000895748 -0.227773 -0.000362199)
(-0.00682958 -0.227601 0.00163466)
(-0.000934931 -0.226521 -0.000361708)
(-0.00688763 -0.226383 0.00164036)
(0.00163656 -0.221661 -0.00146829)
(0.00612139 -0.221509 -0.00267459)
(0.00163738 -0.220189 -0.00147178)
(0.00612747 -0.220098 -0.00267895)
(-0.0423599 -0.22733 0.00324358)
(0.0401793 -0.22659 0.794548)
(-0.0424552 -0.226126 0.00325366)
(0.0402241 -0.225493 0.795955)
(-0.0505644 -0.22104 0.010611)
(0.0371266 -0.218676 0.958752)
(-0.0507137 -0.219712 0.01064)
(0.0372455 -0.217457 0.958851)
(0.0401432 -0.228666 -0.79311)
(-0.0420846 -0.229523 -0.00323224)
(0.0401363 -0.227651 -0.792765)
(-0.0422338 -0.228454 -0.00323996)
(0.0369487 -0.220909 -0.958337)
(-0.0502278 -0.223596 -0.0105598)
(0.0370076 -0.219773 -0.954951)
(-0.0503751 -0.22235 -0.0106007)
(-0.00663164 -0.229874 -0.00161449)
(-0.000739225 -0.230116 0.000366739)
(-0.0067412 -0.228768 -0.00162159)
(-0.000828951 -0.228975 0.000365323)
(0.00613071 -0.224218 0.00266813)
(0.00166728 -0.224477 0.00146378)
(0.00612529 -0.222893 0.00267529)
(0.00164715 -0.223096 0.00146741)
(-0.000673763 -0.23022 0.000260246)
(-0.000675068 -0.230219 -0.000260298)
(-0.000756259 -0.229061 0.00026098)
(-0.000757313 -0.229061 -0.000260332)
(-0.000529816 -0.224577 0.000426814)
(-0.000530718 -0.224577 -0.000426955)
(-0.000549371 -0.223163 0.000428097)
(-0.000550006 -0.223163 -0.000427288)
(-0.000743945 -0.230115 -0.000366875)
(-0.00663774 -0.229872 0.00161373)
(-0.000832658 -0.228975 -0.000364114)
(-0.0067448 -0.228769 0.00162345)
(0.00166321 -0.224477 -0.00146459)
(0.00612032 -0.224218 -0.00267277)
(0.00164473 -0.223094 -0.0014657)
(0.00612108 -0.222884 -0.00267165)
(-0.0420904 -0.229521 0.00322903)
(0.0401576 -0.228667 0.792355)
(-0.0422283 -0.228471 0.00323459)
(0.0401442 -0.22762 0.792782)
(-0.0502896 -0.223589 0.0105617)
(0.037019 -0.220922 0.95555)
(-0.0503834 -0.222326 0.0105838)
(0.037027 -0.219804 0.958445)
(0.0402084 -0.230459 -0.791962)
(-0.0416752 -0.231399 -0.00321007)
(0.040153 -0.229587 -0.791313)
(-0.0418862 -0.230507 -0.00322003)
(0.0367131 -0.222918 -0.953683)
(-0.0497432 -0.225888 -0.0104948)
(0.0367869 -0.221919 -0.958022)
(-0.0499391 -0.224772 -0.0105225)
(-0.00632678 -0.23184 -0.00159228)
(-0.000474621 -0.232156 0.000372518)
(-0.00649354 -0.230902 -0.00160235)
(-0.000622379 -0.23118 0.000369164)
(0.00617196 -0.22667 0.00266774)
(0.00173754 -0.227031 0.00146079)
(0.00615292 -0.225478 0.00266476)
(0.00169757 -0.225792 0.00146127)
(-0.000425815 -0.232296 0.000259608)
(-0.000426144 -0.232296 -0.000259188)
(-0.000564456 -0.231302 0.000259652)
(-0.000565316 -0.231302 -0.000259599)
(-0.000465965 -0.227191 0.000426172)
(-0.00046622 -0.227192 -0.000425107)
(-0.000501835 -0.225924 0.000426185)
(-0.000502425 -0.225925 -0.000425985)
(-0.000474425 -0.232156 -0.000372381)
(-0.00631721 -0.231839 0.00159129)
(-0.000624746 -0.23118 -0.000369342)
(-0.00649191 -0.230899 0.00160118)
(0.00173678 -0.227035 -0.00145975)
(0.00617496 -0.226682 -0.00266661)
(0.00169528 -0.225795 -0.00146198)
(0.00615064 -0.22549 -0.00266898)
(-0.0416228 -0.231414 0.00320745)
(0.0401508 -0.230443 0.792375)
(-0.0418621 -0.230496 0.00321609)
(0.0401297 -0.229601 0.790542)
(-0.0496889 -0.2259 0.0104775)
(0.036653 -0.222866 0.955404)
(-0.0499254 -0.22479 0.0105213)
(0.0367695 -0.221886 0.955183)
(0.040295 -0.231782 -0.788031)
(-0.0410497 -0.232919 -0.00318226)
(0.0402084 -0.231184 -0.79018)
(-0.0413568 -0.232201 -0.00319327)
(0.0364204 -0.224514 -0.952686)
(-0.0491035 -0.227795 -0.0104068)
(0.0364638 -0.22373 -0.953287)
(-0.0493266 -0.226898 -0.0104474)
(-0.0058769 -0.2334 -0.00156918)
(-7.3104e-05 -0.233782 0.000381614)
(-0.00611494 -0.232675 -0.00157961)
(-0.000291119 -0.233027 0.00037631)
(0.00619265 -0.228744 0.00266324)
(0.00183598 -0.229206 0.00145695)
(0.00619574 -0.227766 0.00266414)
(0.00178566 -0.228174 0.00145826)
(-5.17529e-05 -0.233958 0.000259102)
(-5.18264e-05 -0.233958 -0.000258618)
(-0.000255267 -0.233186 0.000259023)
(-0.000255377 -0.233186 -0.000258675)
(-0.000372813 -0.229418 0.000425374)
(-0.000372971 -0.229419 -0.000424299)
(-0.000421805 -0.228361 0.000425511)
(-0.000422025 -0.228362 -0.00042447)
(-7.28923e-05 -0.233783 -0.000381612)
(-0.00587245 -0.233401 0.00156778)
(-0.000290377 -0.233028 -0.000376645)
(-0.00610401 -0.232676 0.00157749)
(0.00183488 -0.229208 -0.00145546)
(0.00618891 -0.228751 -0.00266126)
(0.00178425 -0.228177 -0.00145697)
(0.0061921 -0.227774 -0.00266266)
(-0.0410435 -0.232901 0.00318465)
(0.0402962 -0.231806 0.791425)
(-0.0412949 -0.232218 0.00319418)
(0.0401415 -0.23117 0.790591)
(-0.0491141 -0.227814 0.0103786)
(0.0364454 -0.224458 0.957539)
(-0.0493501 -0.226909 0.0104257)
(0.036488 -0.223699 0.955044)
(0.0406234 -0.232589 -0.785787)
(-0.0403588 -0.233891 -0.0031677)
(0.0404377 -0.232241 -0.786076)
(-0.0407263 -0.233493 -0.00317254)
(0.0363719 -0.225558 -0.947537)
(-0.0485405 -0.229204 -0.0103469)
(0.0363428 -0.225098 -0.947422)
(-0.0487806 -0.228567 -0.0103855)
(-0.00528445 -0.234446 -0.0015391)
(0.000475824 -0.234903 0.000394655)
(-0.00559825 -0.233995 -0.00155238)
(0.000183838 -0.234409 0.000388099)
(0.00623262 -0.230312 0.0026707)