/*--------------------------------*- C++ -*----------------------------------*\
  =========                 |
  \\      /  F ield         | OpenFOAM: The Open Source CFD Toolbox
   \\    /   O peration     | Website:  https://openfoam.org
    \\  /    A nd           | Version:  9
     \\/     M anipulation  |
\*---------------------------------------------------------------------------*/
FoamFile
{
    format      ascii;
    class       volScalarField;
    location    "4";
    object      epsilon;
}
// * * * * * * * * * * * * * * * * * * * * * * * * * * * * * * * * * * * * * //

dimensions      [0 2 -3 0 0 0 0];

internalField   nonuniform List<scalar> 
4545
(
14.7819
20.5485
17.9868
20.5486
14.7821
29.11
29.4024
26.417
29.4025
29.1104
35.5981
34.4179
31.0916
34.4181
35.5984
39.0881
37.5505
34.123
37.5507
39.0884
41.296
39.6435
36.1803
39.6437
41.2964
42.7998
41.0915
37.6145
41.0915
42.798
43.8381
42.0993
38.6218
42.0984
43.8308
44.5492
42.7916
39.3222
42.7881
44.5287
45.0103
43.2498
39.7949
43.2435
44.9878
45.2882
43.5264
40.0919
43.5178
45.252
45.4147
43.6587
40.2515
43.6527
45.3835
45.435
43.6874
40.3064
43.6845
45.4233
45.3826
43.6361
40.2822
43.639
45.4018
45.2517
43.5026
40.1816
43.5097
45.2849
45.0616
43.2972
40.0051
43.3019
45.0834
44.8407
43.0422
39.7761
43.0382
44.8262
44.5687
42.7379
39.4965
42.7226
44.5013
44.212
42.3758
39.1658
42.358
44.1629
43.807
41.9597
38.7821
41.9364
43.7448
43.3616
41.4862
38.3445
41.4582
43.2661
42.8271
40.9486
37.8501
40.9204
42.7503
42.2253
40.3505
37.298
40.3217
42.174
41.583
39.6929
36.6885
39.6645
41.5335
40.8916
38.9742
36.0211
38.952
40.8366
40.119
38.1897
35.2929
38.1769
40.1035
39.2884
37.3402
34.5028
37.332
39.2913
38.4296
36.4333
33.6509
36.4191
38.3957
37.4756
35.4536
32.745
35.4421
37.4639
36.4127
34.398
31.7952
34.3983
36.4368
35.352
33.2903
30.7884
33.2859
35.3237
34.2576
32.1226
29.7254
32.1142
34.2018
33.0459
30.8872
28.6072
30.8821
33.0116
31.7788
29.5967
27.4377
29.5927
31.7469
30.4595
28.2558
26.2199
28.2537
30.4483
29.0876
26.8683
24.9559
26.8673
29.0839
27.6678
25.4389
23.6476
25.4383
27.6662
26.2074
23.9711
22.2947
23.9707
26.2066
24.7138
22.4591
20.8922
22.459
24.7133
23.1686
20.8692
19.4323
20.8692
23.1683
18.1478
17.7637
15.0844
17.7637
18.148
24.1055
22.0906
19.2954
22.0907
24.1057
27.481
24.9842
22.0152
24.9843
27.4812
29.3903
26.7075
23.72
26.7076
29.3905
30.5185
27.7762
24.8099
27.7762
30.5185
31.2163
28.4474
25.5152
28.447
31.2142
31.6439
28.8619
25.9674
28.8603
31.6349
31.8804
29.1013
26.2454
29.0981
31.8731
31.9923
29.2167
26.3988
29.2121
31.9788
32.0176
29.2411
26.4602
29.2342
31.9917
31.9663
29.1994
26.4537
29.1937
31.9411
31.8694
29.1053
26.3967
29.1022
31.8455
31.7382
28.9706
26.2957
28.9719
31.727
31.5557
28.8004
26.159
28.8048
31.5719
31.369
28.6034
25.9914
28.6055
31.3941
31.1707
28.3855
25.7991
28.3814
31.1629
30.9315
28.1444
25.5846
28.1344
30.8941
30.6806
27.8802
25.3477
27.869
30.6309
30.3937
27.5927
25.0877
27.5785
30.3463
30.0742
27.2806
24.8038
27.2635
30.0263
29.7328
26.9425
24.4954
26.9258
29.6998
29.3744
26.5804
24.1624
26.5633
29.3603
28.9798
26.1941
23.8053
26.1771
28.9542
28.5465
25.7826
23.4244
25.7685
28.5322
28.1082
25.3472
23.0187
25.338
28.1183
27.6567
24.8893
22.5876
24.8803
27.6537
27.165
24.4074
22.1315
24.3946
27.1273
26.6223
23.8951
21.6517
23.886
26.5812
26.0387
23.3538
21.1494
23.3495
26.0185
25.4327
22.7919
20.6225
22.7847
25.4035
24.83
22.2098
20.0708
22.1996
24.7861
24.1948
21.5999
19.4934
21.59
24.1576
23.5073
20.9628
18.8906
20.954
23.4633
22.7875
20.3009
18.2629
20.2953
22.7579
22.0383
19.6145
17.6099
19.6113
22.0291
21.261
18.9033
16.9304
18.9015
21.2573
20.458
18.1648
16.222
18.1639
20.4562
19.635
17.3895
15.4791
17.389
19.6342
18.7686
16.5398
14.695
16.5397
18.7683
19.3052
18.2595
16.2764
18.2596
19.3054
23.0074
21.3342
19.4495
21.3343
23.0076
25.2428
23.4758
21.5806
23.4759
25.243
26.605
24.8044
22.944
24.8044
26.6052
27.4188
25.6245
23.8075
25.6246
27.419
27.8996
26.1193
24.3457
26.1193
27.8994
28.1656
26.4005
24.6677
26.4004
28.1645
28.2874
26.5372
24.8417
26.5367
28.2856
28.3098
26.5728
24.9114
26.5718
28.3069
28.2658
26.5386
24.9069
26.5373
28.2615
28.1679
26.4504
24.8484
26.4493
28.1638
28.0319
26.3211
24.7457
26.3206
28.0291
27.8667
26.1609
24.6103
26.161
27.8665
27.6775
25.9754
24.448
25.976
27.6799
27.4706
25.7691
24.2631
25.7691
27.4729
27.249
25.5457
24.0595
25.5445
27.2469
27.0113
25.3066
23.8393
25.3043
27.0047
26.7581
25.0519
23.6031
25.0491
26.7496
26.4883
24.7816
23.3506
24.7781
26.4784
26.2006
24.4947
23.0815
24.4905
26.1892
25.894
24.1908
22.7953
24.1862
25.8831
25.5687
23.8699
22.4919
23.8647
25.559
25.2234
23.5315
22.1712
23.5261
25.2132
24.857
23.1753
21.8329
23.1704
24.8481
24.4702
22.8013
21.4767
22.7969
24.4645
24.0634
22.4092
21.1022
22.4048
24.0576
23.6345
21.9989
20.7094
21.994
23.6259
23.1804
21.5692
20.2981
21.5647
23.1724
22.7023
21.1202
19.8684
21.1169
22.6966
22.2048
20.6534
19.4206
20.6504
22.198
21.6894
20.1695
18.9548
20.1662
21.6807
21.1532
19.668
18.471
19.6647
21.1449
20.5961
19.1491
17.9694
19.1461
20.5883
20.0203
18.6134
17.4501
18.611
20.0144
19.4269
18.0611
16.913
18.0593
19.4233
18.8171
17.4918
16.3574
17.4906
18.8148
18.1929
16.9046
15.7822
16.9038
18.1916
17.5597
16.2948
15.1858
16.2944
17.559
16.9017
15.6443
14.5691
15.6442
16.9014
19.7056
18.6895
17.1539
18.6896
19.7058
22.5791
21.1927
19.7952
21.1927
22.5793
24.3265
22.9432
21.5821
22.9433
24.3266
25.4331
24.0589
22.746
24.059
25.4332
26.1064
24.7551
23.4876
24.7551
26.1066
26.4993
25.1704
23.944
25.1704
26.4993
26.7046
25.3961
24.2061
25.396
26.7046
26.7824
25.4915
24.3337
25.4913
26.7821
26.7722
25.4955
24.3662
25.4953
26.7716
26.703
25.4381
24.3332
25.4378
26.7022
26.5852
25.3297
24.2483
25.3294
26.5844
26.434
25.1857
24.1249
25.1856
26.4336
26.2572
25.0143
23.9724
25.0144
26.2572
26.0605
24.8214
23.7967
24.8216
26.0609
25.8474
24.6106
23.6018
24.6105
25.8477
25.6205
24.3848
23.3909
24.3845
25.6201
25.3809
24.1457
23.1658
24.1452
25.3797
25.1286
23.8939
22.9273
23.8933
25.127
24.8635
23.6295
22.6758
23.6288
24.8616
24.5847
23.3522
22.4111
23.3513
24.5824
24.2914
23.0617
22.133
23.0606
24.2888
23.983
22.7576
21.8413
22.7564
23.9804
23.6588
22.4396
21.5357
22.4382
23.6559
23.318
22.1074
21.2161
22.1059
23.3152
22.9603
21.7606
20.8821
21.7592
22.9577
22.5855
21.3993
20.5336
21.3978
22.5829
22.1935
21.0234
20.1706
21.0216
22.1904
21.784
20.6328
19.7931
20.631
21.781
21.3574
20.2276
19.4013
20.226
21.3548
20.9151
19.8085
18.9953
19.807
20.9125
20.4579
19.3759
18.5754
19.3744
20.455
19.9862
18.93
18.1417
18.9285
19.9834
19.5008
18.4713
17.6944
18.47
19.4983
19.0028
18.0003
17.234
17.9992
19.0007
18.4933
17.5177
16.7606
17.5168
18.4917
17.974
17.0241
16.2746
17.0234
17.9728
17.4484
16.5205
15.7767
16.5201
17.4476
16.9244
16.0071
15.2677
16.0069
16.924
16.3967
15.4766
14.7539
15.4765
16.3964
19.8879
18.9575
17.6984
18.9576
19.888
22.3676
21.1561
20.0285
21.1562
22.3677
23.8691
22.6865
21.6053
22.6866
23.8692
24.8378
23.6755
22.6426
23.6756
24.8379
25.4355
24.2986
23.3081
24.2987
25.4356
25.7843
24.6702
23.7165
24.6703
25.7844
25.962
24.8678
23.946
24.8679
25.962
26.0208
24.9437
24.0497
24.9437
26.0208
25.9977
24.934
24.0638
24.9339
25.9976
25.9169
24.8649
24.0159
24.8648
25.9168
25.7903
24.7472
23.9174
24.7472
25.7902
25.6318
24.5958
23.7829
24.5958
25.6318
25.4489
24.4185
23.621
24.4185
25.449
25.2474
24.221
23.4375
24.2211
25.2475
25.0305
24.007
23.2364
24.0071
25.0306
24.8007
23.7793
23.0207
23.7793
24.8007
24.5594
23.5396
22.7922
23.5396
24.5593
24.3071
23.2888
22.5521
23.2888
24.307
24.044
23.0273
22.3009
23.0273
24.0439
23.7697
22.7552
22.0387
22.7551
23.7694
23.4837
22.4723
21.7657
22.4722
23.4834
23.1857
22.1786
21.4818
22.1785
23.1852
22.8752
21.8739
21.187
21.8737
22.8746
22.5519
21.5581
20.881
21.5578
22.5512
22.2156
21.2311
20.5641
21.2307
22.2149
21.8665
20.893
20.2361
20.8925
21.8656
21.5047
20.5439
19.8972
20.5434
21.5036
21.1306
20.1841
19.5475
20.1835
21.1295
20.7446
19.8138
19.1872
19.8132
20.7435
20.3475
19.4333
18.8164
19.4327
20.3464
19.9398
19.0429
18.4352
19.0422
19.9387
19.5221
18.6427
18.0437
18.6421
19.5211
19.095
18.2331
17.6419
18.2325
19.094
18.6592
17.8146
17.2302
17.8141
18.6583
18.2158
17.3879
16.8085
17.3875
18.215
17.7669
16.9545
16.3783
16.9542
17.7663
17.3168
16.5166
15.9417
16.5164
17.3165
16.8747
16.0757
15.5024
16.0756
16.8745
16.4393
15.63
15.0676
15.63
16.4392
19.9916
19.1251
18.0365
19.1251
19.9917
22.2525
21.147
20.1765
21.1471
22.2526
23.6177
22.5479
21.6237
22.5479
23.6177
24.5066
23.4596
22.5808
23.4596
24.5067
25.0599
24.0378
23.1979
24.0378
25.06
25.3837
24.3832
23.5766
24.3833
25.3837
25.5467
24.565
23.7869
24.565
25.5468
25.5961
24.6304
23.877
24.6304
25.5961
25.5665
24.6135
23.8809
24.6135
25.5665
25.4794
24.5378
23.8242
24.5378
25.4795
25.3476
24.4147
23.7176
24.4147
25.3476
25.1841
24.2584
23.5761
24.2584
25.1841
24.9964
24.0766
23.4078
24.0766
24.9965
24.7905
23.8752
23.2185
23.8753
24.7907
24.5698
23.658
23.0125
23.6581
24.5699
24.3368
23.4279
22.7928
23.4279
24.3369
24.0932
23.1867
22.5613
23.1868
24.0933
23.8399
22.9357
22.3195
22.9358
23.8401
23.5775
22.6756
22.0683
22.6757
23.5777
23.306
22.4068
21.8081
22.4069
23.3062
23.0255
22.1296
21.5394
22.1297
23.0256
22.7359
21.8443
21.2624
21.8444
22.736
22.4374
21.5509
20.9773
21.5509
22.4374
22.1299
21.2497
20.6844
21.2497
22.1299
21.8138
20.9409
20.3839
20.9409
21.8137
21.4894
20.6249
20.0761
20.6248
21.4892
21.1572
20.302
19.7613
20.3019
21.1569
20.8177
19.9724
19.4396
19.9723
20.8174
20.4714
19.6365
19.1112
19.6363
20.471
20.1186
19.2942
18.776
19.294
20.1182
19.7597
18.9456
18.4339
18.9454
19.7593
19.3948
18.5906
18.0844
18.5904
19.3944
19.0239
18.229
17.7272
18.2288
19.0235
18.6469
17.8606
17.3626
17.8604
18.6466
18.2642
17.4862
16.9911
17.486
18.2639
17.878
17.1076
16.6142
17.1075
17.8777
17.4933
16.7279
16.2341
16.7279
17.4932
17.1208
16.3511
15.8552
16.3511
17.1207
16.7628
15.9768
15.4854
15.9769
16.7628
20.0559
19.2308
18.2485
19.2308
20.056
22.1859
21.1456
20.2701
21.1456
22.186
23.4714
22.4685
21.6374
22.4685
23.4715
24.3129
23.3329
22.5443
23.333
24.3129
24.8393
23.8832
23.1306
23.8832
24.8393
25.1477
24.2123
23.4904
24.2124
25.1478
25.3017
24.3843
23.6886
24.3843
25.3018
25.3452
24.4431
23.7701
24.4432
25.3453
25.3112
24.4214
23.7673
24.4215
25.3112
25.2193
24.3408
23.7043
24.3408
25.2193
25.0828
24.2132
23.5918
24.2133
25.0829
24.9144
24.0524
23.4445
24.0524
24.9145
24.7218
23.8661
23.2706
23.8661
24.7219
24.5109
23.6604
23.076
23.6605
24.511
24.2854
23.4392
22.8651
23.4393
24.2856
24.0482
23.2057
22.6412
23.2058
24.0484
23.8014
22.9621
22.4065
22.9622
23.8016
23.5461
22.7098
22.1626
22.7099
23.5463
23.2835
22.4501
21.911
22.4502
23.2837
23.014
22.1836
21.6523
22.1837
23.0142
22.7381
21.9112
21.3875
21.9113
22.7383
22.4566
21.6334
21.1171
21.6335
22.4567
22.1697
21.3508
20.8419
21.3509
22.1698
21.8781
21.0641
20.5623
21.0642
21.8782
21.5825
20.7738
20.279
20.7739
21.5826
21.2836
20.4805
19.9924
20.4805
21.2836
20.982
20.1847
19.7031
20.1847
20.982
20.6784
19.8868
19.4112
19.8868
20.6784
20.3733
19.5869
19.1168
19.5869
20.3732
20.0666
19.2849
18.8195
19.2849
20.0665
19.7583
18.9802
18.5189
18.9802
19.7581
19.4473
18.6723
18.2143
18.6722
19.4472
19.1335
18.3607
17.9052
18.3606
19.1334
18.8167
18.0454
17.5911
18.0454
18.8166
18.4974
17.7266
17.2722
17.7266
18.4973
18.177
17.4055
16.9493
17.4055
18.177
17.8598
17.0845
16.6247
17.0845
17.8598
17.5554
16.7672
16.3024
16.7673
17.5555
17.2668
16.4542
15.99
16.4543
17.2669
20.0954
19.2955
18.3779
19.2955
20.0955
22.1468
21.146
20.3276
21.1461
22.1469
23.3859
22.4228
21.6469
22.4229
23.386
24.1993
23.259
22.5233
23.259
24.1994
24.7093
23.7921
23.0905
23.7921
24.7093
25.0078
24.1108
23.4382
24.1108
25.0079
25.1554
24.2758
23.6281
24.2759
25.1555
25.194
24.3296
23.7033
24.3296
25.1941
25.1557
24.3036
23.6953
24.3037
25.1557
25.0587
24.2182
23.6265
24.2182
25.0588
24.917
24.0858
23.5086
24.0859
24.9171
24.7429
23.9199
23.3556
23.92
24.743
24.5442
23.7283
23.1758
23.7284
24.5443
24.3272
23.5174
22.9755
23.5175
24.3274
24.0959
23.2912
22.7592
23.2913
24.096
23.8534
23.0533
22.5304
23.0533
23.8536
23.6022
22.806
22.2918
22.8061
23.6023
23.3439
22.5514
22.0452
22.5515
23.344
23.08
22.2909
21.7925
22.2911
23.0802
22.8117
22.0259
21.5348
22.026
22.8118
22.5399
21.7574
21.2734
21.7575
22.54
22.2657
21.4866
21.0095
21.4867
22.2659
21.9903
21.2145
20.744
21.2147
21.9904
21.7146
20.9422
20.478
20.9423
21.7148
21.4399
20.6707
20.2124
20.6708
21.44
21.1671
20.4008
19.9481
20.4009
21.1672
20.8973
20.1333
19.6857
20.1334
20.8974
20.6313
19.8687
19.4254
19.8687
20.6313
20.3693
19.607
19.1674
19.607
20.3693
20.1111
19.3479
18.9113
19.3479
20.1111
19.8564
19.0908
18.6561
19.0908
19.8564
19.6043
18.8347
18.4008
18.8348
19.6043
19.3535
18.5783
18.1441
18.5783
19.3535
19.1024
18.3205
17.8847
18.3205
19.1024
18.8505
18.0607
17.6221
18.0607
18.8505
18.5985
17.7994
17.3563
17.7994
18.5985
18.3499
17.5384
17.0889
17.5385
18.35
18.1138
17.2808
16.8232
17.2808
18.1139
17.893
17.0267
16.5659
17.0268
17.8932
20.1167
19.3301
18.4473
19.3301
20.1168
22.1263
21.1466
20.3586
21.1466
22.1264
23.3409
22.3989
21.6523
22.399
23.3409
24.1391
23.2198
22.5121
23.2198
24.1392
24.6394
23.743
23.0684
23.743
24.6394
24.9312
24.0548
23.4085
24.0549
24.9313
25.0735
24.2146
23.5924
24.2147
25.0736
25.1072
24.2637
23.6623
24.2637
25.1073
25.0639
24.2332
23.6493
24.2332
25.064
24.9609
24.1422
23.5747
24.1423
24.961
24.8128
24.0042
23.4509
24.0043
24.8129
24.6317
23.8322
23.2916
23.8323
24.6319
24.4258
23.6343
23.1054
23.6344
24.4259
24.2014
23.4169
22.8986
23.417
24.2015
23.9629
23.1846
22.676
23.1847
23.9631
23.7138
22.9409
22.4415
22.941
23.7139
23.4568
22.6889
22.198
22.689
23.457
23.1942
22.4307
21.9478
22.4308
23.1944
22.928
22.1683
21.6931
22.1684
22.9281
22.6595
21.9035
21.4355
21.9036
22.6597
22.3906
21.6379
21.1767
21.638
22.3908
22.1229
21.373
20.9184
21.3731
22.1231
21.858
21.1106
20.6621
21.1107
21.8582
21.5976
20.852
20.4092
20.8521
21.5977
21.3433
20.5988
20.1612
20.5989
21.3434
21.0966
20.3524
19.9194
20.3524
21.0967
20.859
20.1136
19.6845
20.1137
20.8591
20.6314
19.8834
19.4574
19.8835
20.6315
20.4144
19.6619
19.2379
19.6619
20.4144
20.2079
19.4488
19.0258
19.4488
20.208
20.0111
19.2431
18.8199
19.2431
20.0112
19.8225
19.0432
18.6184
19.0432
19.8226
19.6399
18.8471
18.4194
18.8471
19.6399
19.4609
18.6527
18.2207
18.6528
19.4609
19.2836
18.4583
18.0205
18.4584
19.2837
19.1074
18.263
17.8176
18.2631
19.1074
18.9344
18.0675
17.6123
18.0676
18.9345
18.7723
17.8733
17.4066
17.8734
18.7724
18.6233
17.68
17.2059
17.6801
18.6234
20.123
19.3397
18.4674
19.3397
20.1231
22.1205
21.1466
20.3678
21.1466
22.1206
23.3274
22.3916
21.6539
22.3917
23.3275
24.1202
23.2072
22.508
23.2072
24.1203
24.6159
23.726
23.0597
23.726
24.616
24.9034
24.0338
23.3955
24.0339
24.9035
25.041
24.1893
23.5751
24.1894
25.0411
25.0692
24.2336
23.6402
24.2337
25.0694
25.0202
24.1981
23.6222
24.1982
25.0203
24.9101
24.1009
23.5415
24.101
24.9103
24.7545
23.9563
23.4112
23.9564
24.7546
24.5652
23.7771
23.245
23.7772
24.5654
24.3507
23.5717
23.0515
23.5718
24.3508
24.1175
23.3468
22.8373
23.3468
24.1177
23.8704
23.1069
22.6076
23.107
23.8706
23.6131
22.8563
22.3663
22.8564
23.6133
23.3489
22.598
22.1168
22.5981
23.3491
23.0804
22.3347
21.8618
22.3348
23.0806
22.8099
22.0689
21.6037
22.0689
22.8101
22.5397
21.8026
21.3448
21.8027
22.5398
22.2719
21.5381
21.0873
21.5382
22.272
22.0087
21.2776
20.8332
21.2777
22.0088
21.7525
21.0231
20.5846
21.0231
21.7526
21.5054
20.7767
20.3435
20.7767
21.5056
21.2699
20.5404
20.112
20.5405
21.27
21.0481
20.3162
19.8917
20.3163
21.0482
20.8418
20.1056
19.684
20.1056
20.8419
20.6525
19.9097
19.4902
19.9098
20.6526
20.4812
19.7294
19.3105
19.7294
20.4813
20.3287
19.5645
19.1448
19.5646
20.3287
20.1938
19.4139
18.9917
19.4139
20.1939
20.0745
19.2754
18.8493
19.2755
20.0745
19.9678
19.1464
18.7146
19.1465
19.9679
19.8703
19.0237
18.5844
19.0238
19.8704
19.7785
18.9039
18.4554
18.904
19.7786
19.6897
18.7843
18.3245
18.7844
19.6898
19.604
18.6635
18.1899
18.6636
19.6041
19.5268
18.541
18.0515
18.541
19.5269
19.4588
18.4143
17.9125
18.4144
19.459
20.115
19.3255
18.4412
19.3256
20.1151
22.1283
21.1459
20.3565
21.146
22.1284
23.3433
22.3994
21.6516
22.3994
23.3434
24.1395
23.2189
22.5103
23.219
24.1396
24.6354
23.7386
23.0633
23.7386
24.6355
24.9205
24.0448
23.3981
24.0449
24.9207
25.0539
24.1971
23.5748
24.1971
25.0541
25.0765
24.2366
23.6357
24.2367
25.0767
25.021
24.1956
23.6127
24.1957
25.0212
24.9029
24.0915
23.5256
24.0916
24.903
24.7386
23.9395
23.3883
23.9396
24.7387
24.5401
23.7523
23.2147
23.7524
24.5402
24.3158
23.5385
23.0133
23.5386
24.316
24.0727
23.3049
22.7911
23.305
24.0729
23.8155
23.0564
22.5533
23.0565
23.8157
23.5486
22.7974
22.3043
22.7975
23.5488
23.2754
22.5314
22.0476
22.5315
23.2756
22.999
22.2614
21.7865
22.2615
22.9992
22.7223
21.9903
21.5236
21.9904
22.7225
22.4479
21.7206
21.2617
21.7207
22.4481
22.1786
21.4551
21.0034
21.4551
22.1788
21.9173
21.1963
20.7513
21.1964
21.9174
21.6667
20.9471
20.5081
20.9472
21.6668
21.43
20.7101
20.2764
20.7101
21.4301
21.2101
20.488
20.0589
20.4881
21.2102
21.0101
20.2835
19.8579
20.2836
21.0102
20.8327
20.0989
19.6757
20.099
20.8328
20.6803
19.9362
19.514
19.9362
20.6804
20.5546
19.7967
19.374
19.7968
20.5547
20.4571
19.6812
19.256
19.6812
20.4572
20.3875
19.5887
19.1591
19.5888
20.3876
20.3438
19.5174
19.0812
19.5175
20.3438
20.3228
19.4639
19.0189
19.4639
20.3229
20.3199
19.4238
18.9677
19.4238
20.32
20.3292
19.3918
18.9223
19.3919
20.3293
20.346
19.3627
18.8771
19.3628
20.3461
20.3664
19.3316
18.8271
19.3317
20.3665
20.3924
19.2946
18.7686
19.2947
20.3925
20.4213
19.2457
18.7014
19.2458
20.4215
20.0916
19.2857
18.3649
19.2858
20.0917
22.1509
21.1445
20.3232
21.1446
22.1511
23.3913
22.4239
21.6454
22.424
23.3915
24.2011
23.2578
22.52
23.2579
24.2013
24.7026
23.7842
23.0811
23.7843
24.7027
24.9881
24.092
23.4186
24.0921
24.9882
25.1182
24.2422
23.5945
24.2423
25.1184
25.1351
24.2775
23.6521
24.2776
25.1353
25.0727
24.231
23.6245
24.2311
25.0729
24.9459
24.1197
23.5312
24.1198
24.9461
24.7722
23.9597
23.3869
23.9599
24.7724
24.5636
23.764
23.2057
23.7641
24.5638
24.3287
23.5412
22.9962
23.5413
24.3289
24.0747
23.2982
22.7656
23.2984
24.0749
23.8065
23.0403
22.5193
23.0404
23.8067
23.5286
22.772
22.2618
22.7721
23.5288
23.245
22.4971
21.9971
22.4972
23.2452
22.959
22.2188
21.7285
22.219
22.9592
22.6738
21.9405
21.4593
21.9406
22.674
22.3926
21.6651
21.1924
21.6652
22.3927
22.1186
21.3957
20.931
21.3958
22.1187
21.8553
21.1356
20.6782
21.1357
21.8554
21.6062
20.888
20.4372
20.8881
21.6063
21.3752
20.6564
20.2113
20.6565
21.3753
21.1661
20.4443
20.0039
20.4444
21.1662
20.983
20.2553
19.8184
20.2554
20.9831
20.83
20.0928
19.6581
20.0929
20.8301
20.7107
19.96
19.5257
19.96
20.7108
20.6286
19.8594
19.4236
19.8594
20.6286
20.586
19.7928
19.3533
19.7929
20.586
20.5842
19.7607
19.3148
19.7608
20.5843
20.6221
19.7622
19.3072
19.7623
20.6221
20.6987
19.7936
19.3263
19.7937
20.6988
20.8079
19.8509
19.368
19.851
20.8079
20.9419
19.9261
19.4243
19.9262
20.942
21.0922
20.0103
19.4862
20.0104
21.0923
21.2499
20.0939
19.5437
20.0939
21.25
21.4105
20.1667
19.5872
20.1667
21.4107
21.5648
20.216
19.6103
20.2161
21.565
20.0488
19.214
18.2268
19.2141
20.049
22.1922
21.1427
20.2625
21.1428
22.1924
23.4808
22.4705
21.6353
22.4706
23.481
24.3178
23.3325
22.5403
23.3326
24.318
24.8324
23.8736
23.1183
23.8737
24.8326
25.1222
24.1874
23.4638
24.1875
25.1224
25.2511
24.3381
23.6419
24.3382
25.2513
25.2632
24.3703
23.6981
24.3704
25.2634
25.1944
24.319
23.6672
24.3191
25.1946
25.059
24.201
23.5687
24.2011
25.0592
24.8759
24.0334
23.4182
24.0336
24.8761
24.657
23.8293
23.23
23.8294
24.6573
24.4112
23.5974
23.0128
23.5975
24.4114
24.1457
23.345
22.774
23.3451
24.1459
23.8657
23.0772
22.5191
23.0774
23.866
23.5759
22.7989
22.253
22.7991
23.5761
23.2804
22.5141
21.9797
22.5142
23.2806
22.9828
22.2262
21.7028
22.2263
22.983
22.6868
21.9388
21.4258
21.939
22.687
22.3958
21.6553
21.152
21.6554
22.3959
22.1135
21.3791
20.885
21.3792
22.1136
21.8439
21.1139
20.6283
21.114
21.844
21.5912
20.8636
20.3856
20.8637
21.5913
21.36
20.6323
20.161
20.6324
21.3601
21.1551
20.4245
19.9588
20.4246
21.1552
20.9819
20.2448
19.7832
20.2449
20.982
20.846
20.0981
19.639
20.0981
20.846
20.7529
19.989
19.5305
19.9891
20.753
20.7085
19.9223
19.462
19.9224
20.7085
20.7173
19.9019
19.4368
19.9019
20.7174
20.7826
19.9297
19.4569
19.9298
20.7827
20.9099
20.0086
19.5238
20.0087
20.91
21.0976
20.1376
19.6366
20.1376
21.0976
21.3419
20.3114
19.7894
20.3115
21.342
21.635
20.5217
19.9736
20.5218
21.6351
21.9643
20.7557
20.1762
20.7557
21.9644
22.3136
20.9964
20.3802
20.9965
22.3137
22.6672
21.2235
20.566
21.2236
22.6673
23.001
21.411
20.7152
21.4111
23.0011
19.9786
19.0981
18.0024
19.0982
19.9787
22.2606
21.1412
20.1637
21.1413
22.2607
23.632
22.5506
21.6202
22.5507
23.6321
24.5167
23.4607
22.5765
23.4608
24.5169
25.056
24.0284
23.184
24.0285
25.0562
25.3567
24.3551
23.5453
24.3552
25.3569
25.488
24.5104
23.7307
24.5105
25.4882
25.4976
24.5423
23.7891
24.5425
25.4978
25.424
24.4882
23.7575
24.4884
25.4242
25.2815
24.3653
23.6564
24.3655
25.2818
25.09
24.1915
23.5017
24.1916
25.0902
24.8616
23.9801
23.3081
23.9802
24.8618
24.6054
23.7401
23.0847
23.7402
24.6056
24.3287
23.4788
22.8389
23.4789
24.3289
24.0368
23.2015
22.5764
23.2016
24.037
23.7345
22.9132
22.3022
22.9133
23.7347
23.4261
22.618
22.0204
22.6181
23.4264
23.1154
22.3195
21.7348
22.3196
23.1157
22.8063
22.0216
21.4491
22.0217
22.8066
22.5025
21.7276
21.1669
21.7278
22.5028
22.208
21.4416
20.8919
21.4417
22.2083
21.9274
21.1675
20.6282
21.1676
21.9276
21.6652
20.9097
20.3799
20.9098
21.6653
21.4268
20.673
20.1517
20.673
21.4269
21.218
20.4626
19.9486
20.4626
21.2181
21.0454
20.2843
19.7761
20.2843
21.0455
20.9163
20.1445
19.6403
20.1446
20.9164
20.8389
20.0501
19.5477
20.0502
20.839
20.8218
20.0085
19.5048
20.0085
20.8219
20.872
20.026
19.518
20.026
20.8721
21.0013
20.1097
19.5928
20.1097
21.0014
21.2195
20.2691
19.7381
20.2691
21.2196
21.5318
20.506
19.9547
20.5061
21.5319
21.9409
20.8205
20.2416
20.8205
21.9409
22.4431
21.2064
20.5915
21.2064
22.4431
23.0256
21.6489
20.9889
21.6489
23.0257
23.6645
22.1224
21.4081
22.1225
23.6646
24.3258
22.5895
21.8131
22.5895
24.3259
24.9551
22.9984
22.1624
22.9984
24.9552
19.8639
18.9145
17.6459
18.9146
19.864
22.3751
21.1438
20.0066
21.1439
22.3753
23.888
22.6881
21.598
22.6882
23.8882
24.8543
23.6778
22.6369
23.6779
24.8545
25.437
24.2901
23.2928
24.2902
25.4373
25.7595
24.6408
23.6817
24.6409
25.7597
25.9004
24.8082
23.8828
24.8083
25.9006
25.9125
24.8453
23.9499
24.8454
25.9127
25.8379
24.7924
23.9226
24.7925
25.8381
25.6916
24.6684
23.8235
24.6685
25.6918
25.4943
24.4914
23.6685
24.4915
25.4945
25.2587
24.2753
23.473
24.2754
25.2589
24.9937
24.0293
23.2464
24.0294
24.9939
24.7071
23.7609
22.9962
23.7609
24.7072
24.404
23.4754
22.7283
23.4754
24.4041
24.0895
23.178
22.4476
23.178
24.0897
23.768
22.8727
22.1586
22.8729
23.7683
23.4433
22.5636
21.8651
22.5637
23.4436
23.1193
22.2542
21.5709
22.2543
23.1197
22.8001
21.9483
21.2796
21.9484
22.8004
22.4898
21.65
20.9954
21.6502
22.4902
22.1933
21.3635
20.7223
21.3637
22.1937
21.9157
21.0936
20.465
21.0938
21.9159
21.6626
20.8456
20.2286
20.8457
21.6628
21.4408
20.6252
20.0187
20.6253
21.441
21.2578
20.4394
19.842
20.4396
21.2581
21.1227
20.296
19.7057
20.2962
21.123
21.046
20.2042
19.6186
20.2044
21.0464
21.0403
20.1745
19.5905
20.1747
21.0408
21.1161
20.2163
19.6302
20.2165
21.1165
21.2954
20.3455
19.7517
20.3457
21.2957
21.5975
20.5794
19.971
20.5794
21.5976
22.0408
20.9301
20.2983
20.9301
22.0408
22.6445
21.4101
20.7435
21.4101
22.6445
23.4227
22.0253
21.3097
22.0253
23.4227
24.3766
22.7686
21.987
22.7686
24.3766
25.4848
23.6109
22.7441
23.6109
25.4849
26.6924
24.4907
23.5217
24.4907
26.6924
27.8856
25.3053
24.2317
25.3053
27.8857
19.6609
18.6201
17.073
18.6201
19.6611
22.5806
21.1668
19.7569
21.1669
22.5808
24.3468
22.9388
21.5656
22.9389
24.347
25.4546
24.0589
22.7347
24.059
25.4548
26.1132
24.7451
23.4675
24.7452
26.1134
26.4776
25.1384
23.9033
25.1385
26.4778
26.6422
25.3312
24.1345
25.3313
26.6424
26.6674
25.3837
24.2218
25.3838
26.6676
26.5994
25.3398
24.2077
25.3398
26.5995
26.4568
25.2223
24.1195
25.2222
26.4567
26.2593
25.0479
23.9713
25.0478
26.2592
26.0209
24.8319
23.7802
24.832
26.021
25.7507
24.5839
23.5556
24.5839
25.7509
25.4567
24.3115
23.3054
24.3114
25.4567
25.1444
24.0203
23.0358
24.0202
25.1444
24.8192
23.7159
22.7522
23.7159
24.8194
24.4855
23.4024
22.459
23.4025
24.4858
24.1468
23.0834
22.16
23.0836
24.147
23.8071
22.7628
21.8588
22.763
23.8073
23.4705
22.4444
21.5596
22.4446
23.4709
23.1417
22.1324
21.2664
22.1328
23.1423
22.8255
21.8313
20.9835
21.8317
22.8262
22.527
21.5459
20.7157
21.5464
22.5279
22.2524
21.2818
20.4685
21.2823
22.2536
22.0089
21.0452
20.2479
21.0458
22.0102
21.8046
20.8437
20.061
20.8444
21.8061
21.6495
20.686
19.9165
20.6869
21.6512
21.5563
20.5834
19.8248
20.5843
21.5583
21.541
20.5493
19.7988
20.5503
21.543
21.6189
20.5976
19.8509
20.5985
21.6207
21.8212
20.7518
20.0033
20.7524
21.8224
22.1828
21.0424
20.2838
21.0427
22.1835
22.7429
21.4987
20.7183
21.4988
22.7432
23.5543
22.1587
21.3396
22.1587
23.5544
24.6778
23.0621
22.1802
23.0621
24.6778
26.1732
24.2403
23.2621
24.2403
26.1731
28.0755
25.6934
24.5754
25.6934
28.0755
30.3492
27.3507
26.0452
27.3507
30.3493
32.7921
29.0138
27.4942
29.0138
32.7921
19.2205
18.145
16.1508
18.1451
19.2207
22.9893
21.281
19.3821
21.2811
22.9895
25.255
23.4544
21.5442
23.4546
25.2552
26.6236
24.7921
22.9169
24.7923
26.6239
27.4233
25.6036
23.7725
25.6037
27.4235
27.8734
26.0752
24.289
26.0753
27.8736
28.0942
26.3208
24.5773
26.3209
28.0944
28.1573
26.4106
24.707
26.4105
28.1578
28.1132
26.3915
24.7237
26.3914
28.1133
27.9902
26.2946
24.6612
26.2942
27.9889
27.8038
26.1336
24.5329
26.1334
27.8022
27.5724
25.9266
24.3566
25.9268
27.5718
27.3037
25.683
24.1423
25.6832
27.3039
27.0057
25.4112
23.8988
25.411
27.0061
26.6879
25.1181
23.6332
25.1178
26.6888
26.3556
24.8096
23.3518
24.8099
26.3563
26.0124
24.4904
23.0587
24.4906
26.0128
25.6614
24.1632
22.7578
24.1631
25.6613
25.3067
23.832
22.4527
23.8318
25.3052
24.9523
23.5012
22.1481
23.5014
24.9511
24.6042
23.1753
21.8483
23.1761
24.6026
24.2658
22.8585
21.5576
22.8598
24.265
23.9429
22.5559
21.2808
22.5576
23.9444
23.6429
22.2734
21.0237
22.2755
23.6467
23.3727
22.0176
20.7927
22.02
23.3775
23.1396
21.7959
20.5952
21.7986
23.1451
22.9539
21.6175
20.4402
21.6206
22.9601
22.8299
21.4946
20.3395
21.4982
22.8364
22.7857
21.4433
20.3085
21.4471
22.7928
22.8421
21.4814
20.3632
21.4847
22.8481
23.0333
21.6378
20.5327
21.6401
23.0369
23.4118
21.9578
20.8582
21.959
23.4139
24.0399
22.4911
21.3852
22.4914
24.0412
25.0185
23.3146
22.1829
23.3147
25.0189
26.5022
24.5382
23.3457
24.5381
26.5023
28.7095
26.3049
24.9931
26.3048
28.7094
31.9291
28.7766
27.2479
28.7765
31.9291
36.4447
32.0427
30.1512
32.0427
36.4447
42.1904
35.8363
33.4313
35.8363
42.1904
17.9788
17.5652
14.8835
17.5653
17.979
24.0307
21.9817
19.1761
21.9818
24.031
27.4563
24.9213
21.9382
24.9215
27.4566
29.379
26.6578
23.6547
26.658
29.3793
30.4912
27.7156
24.7342
27.7158
30.4915
31.152
28.3583
25.4121
28.3584
31.1523
31.5179
28.7284
25.8227
28.7287
31.5243
31.6858
28.91
26.0462
28.911
31.6891
31.7061
28.9553
26.1338
28.9558
31.7116
31.6296
28.9052
26.1221
28.9043
31.6467
31.4958
28.7817
26.0384
28.7788
31.4969
31.2978
28.5993
25.893
28.5979
31.3023
31.039
28.367
25.6984
28.3675
31.0427
30.7476
28.0974
25.4659
28.0967
30.7289
30.4166
27.8008
25.206
27.8021
30.413
30.083
27.4867
24.9267
27.4883
30.0869
29.747
27.1592
24.6321
27.1592
29.7385
29.39
26.8194
24.3259
26.8181
29.3665
29.0257
26.4722
24.0134
26.4683
28.9981
28.6448
26.1221
23.701
26.1192
28.6351
28.2809
25.7773
23.393
25.7738
28.2634
27.9321
25.4408
23.0933
25.4375
27.8936
27.5856
25.1167
22.8076
25.1168
27.5608
27.2633
24.814
22.5427
24.8179
27.265
26.9626
24.539
22.3055
24.5451
26.9797
26.7021
24.2995
22.1036
24.3068
26.7181
26.5003
24.1062
21.947
24.1136
26.5047
26.3477
23.9718
21.8496
23.9798
26.3649
26.2726
23.915
21.831
23.925
26.2964
26.3185
23.9591
21.9097
23.9677
26.33
26.5181
24.1401
22.126
24.1449
26.5145
26.91
24.5127
22.5317
24.5159
26.9184
27.5714
25.1456
23.1938
25.1481
27.5882
28.6448
26.1643
24.229
26.1649
28.6472
30.453
27.7898
25.8328
27.7898
30.4534
33.5015
30.3919
28.3319
30.3918
33.5015
38.7981
34.6009
32.256
34.6008
38.798
48.3617
41.4811
38.4085
41.4811
48.3616
65.0596
51.899
47.4847
51.899
65.0596
14.3996
20.0976
17.553
20.0977
14.3999
28.837
29.1437
26.1618
29.1439
28.8374
35.4186
34.2223
30.8971
34.2225
35.419
38.9223
37.3537
33.9273
37.354
38.9228
41.0926
39.4046
35.9459
39.4048
41.093
42.5241
40.7788
37.3114
40.779
42.5242
43.4592
41.6841
38.2238
41.6841
43.4594
44.0311
42.2479
38.8054
42.2484
44.0388
44.3378
42.5532
39.1368
42.5528
44.3404
44.4413
42.6516
39.2704
42.6486
44.4266
44.405
42.6137
39.2612
42.6127
44.3873
44.2645
42.4632
39.1513
42.4652
44.2545
43.9979
42.1958
38.9236
42.1995
44.0029
43.6374
41.8511
38.6207
41.8522
43.6463
43.2476
41.4512
38.2609
41.4517
43.2641
42.8247
41.0089
37.8579
41.0124
42.8307
42.365
40.5362
37.4233
40.5374
42.3699
41.8874
40.039
36.9649
40.0359
41.8885
41.3909
39.5249
36.4955
39.5206
41.369
40.8862
39.0097
36.0304
39.0069
40.8623
40.4012
38.5043
35.5733
38.502
40.363
39.9221
38.015
35.1326
38.0145
39.8869
39.4647
37.5531
34.7186
37.5577
39.4561
39.057
37.1353
34.3434
37.1444
39.0728
38.7104
36.7757
34.0213
36.7861
38.7297
38.4294
36.4897
33.7676
36.4991
38.4509
38.2352
36.2961
33.6004
36.3069
38.2561
38.1649
36.2297
33.5491
36.2428
38.1837
38.2437
36.3167
33.6461
36.3307
38.2739
38.529
36.6113
33.9453
36.6244
38.551
39.1177
37.2235
34.5441
37.2321
39.1228
40.0825
38.2442
35.5294
38.2488
40.0902
41.5227
39.8337
37.0595
39.8364
41.5337
43.599
42.2359
39.3684
42.2373
43.6016
47.481
45.8807
42.8408
45.8814
47.482
53.5221
51.5123
48.1772
51.5126
53.5226
63.3145
60.5196
56.6648
60.5197
63.3147
84.0127
76.816
71.4049
76.8161
84.0128
169.816
131.387
119.33
131.387
169.816
17.8046
15.7089
14.4245
15.709
17.8045
15.9434
14.114
12.3032
14.1141
15.9436
15.0676
14.043
12.9171