/*--------------------------------*- C++ -*----------------------------------*\
  =========                 |
  \\      /  F ield         | OpenFOAM: The Open Source CFD Toolbox
   \\    /   O peration     | Website:  https://openfoam.org
    \\  /    A nd           | Version:  9
     \\/     M anipulation  |
\*---------------------------------------------------------------------------*/
FoamFile
{
    format      ascii;
    class       volScalarField;
    location    "4";
    object      k;
}
// * * * * * * * * * * * * * * * * * * * * * * * * * * * * * * * * * * * * * //

dimensions      [0 2 -2 0 0 0 0];

internalField   nonuniform List<scalar> 
4545
(
0.980324
1.22106
1.11734
1.22106
0.980334
1.5402
1.55049
1.44368
1.5505
1.54021
1.7613
1.72215
1.60933
1.72216
1.76131
1.87461
1.82512
1.7123
1.82513
1.87462
1.94455
1.89233
1.78045
1.89233
1.94456
1.99148
1.93813
1.8272
1.93812
1.99142
2.0236
1.96971
1.85968
1.96966
2.02333
2.04522
1.99126
1.8821
1.99111
2.04482
2.05933
2.00543
1.89716
2.00521
2.05878
2.06798
2.01397
1.90659
2.01367
2.06692
2.07176
2.01804
1.91164
2.01779
2.07079
2.07255
2.01889
1.91337
2.01878
2.07186
2.07116
2.0173
1.9126
2.01743
2.07113
2.06684
2.01318
1.90942
2.01346
2.06779
2.06112
2.0069
1.90384
2.00708
2.06212
2.05435
1.99908
1.89658
1.99894
2.05405
2.04557
1.98963
1.88767
1.98908
2.04374
2.03497
1.97832
1.87711
1.97776
2.03316
2.0224
1.96531
1.86482
1.96459
2.02056
2.00821
1.9505
1.85076
1.94958
2.00583
1.99183
1.93361
1.83482
1.93275
1.99009
1.97364
1.91473
1.81694
1.91395
1.97277
1.95356
1.89388
1.79709
1.89313
1.95241
1.93145
1.87098
1.77524
1.87034
1.93041
1.90751
1.8458
1.75125
1.84547
1.90758
1.88164
1.81837
1.72502
1.81817
1.88178
1.85396
1.78879
1.69651
1.78839
1.85267
1.8231
1.75654
1.66591
1.75629
1.822
1.78866
1.7215
1.63353
1.72154
1.78885
1.75312
1.68432
1.59886
1.68412
1.75223
1.7165
1.64476
1.56185
1.64439
1.71473
1.67627
1.60235
1.52244
1.60208
1.67505
1.63311
1.55739
1.48066
1.55716
1.63175
1.58751
1.50996
1.43651
1.50986
1.58683
1.53942
1.4601
1.38996
1.46006
1.53928
1.48889
1.40783
1.34094
1.40781
1.48884
1.43603
1.35314
1.28929
1.35313
1.436
1.38093
1.29562
1.23464
1.29562
1.38091
1.32275
1.23373
1.17643
1.23373
1.32274
3.2733
3.31521
3.03501
3.31523
3.27332
3.98004
3.86708
3.59813
3.86709
3.98007
4.35634
4.21753
3.94532
4.21755
4.35637
4.57792
4.43212
4.16506
4.43213
4.57795
4.71923
4.57165
4.30977
4.57166
4.71923
4.81347
4.66468
4.40734
4.66464
4.81331
4.87657
4.72675
4.47336
4.72657
4.87583
4.91688
4.76702
4.5172
4.76669
4.91657
4.94178
4.79143
4.54486
4.79104
4.94103
4.95548
4.8039
4.56025
4.80327
4.95369
4.9589
4.80698
4.56621
4.8064
4.95713
4.95662
4.80338
4.5651
4.80304
4.9547
4.94914
4.79399
4.5583
4.79418
4.94792
4.93488
4.77931
4.54597
4.77983
4.9361
4.91884
4.76074
4.52928
4.76106
4.921
4.89989
4.73874
4.50881
4.73846
4.89933
4.87541
4.71303
4.48479
4.71212
4.87283
4.84898
4.68385
4.45734
4.68287
4.84517
4.81789
4.65116
4.4264
4.64992
4.81455
4.78226
4.61482
4.39186
4.61332
4.77941
4.74356
4.57473
4.35366
4.57346
4.74235
4.70208
4.53102
4.31174
4.52998
4.70277
4.65544
4.4835
4.26603
4.4826
4.6548
4.60313
4.43192
4.21642
4.43118
4.60335
4.54876
4.37639
4.16277
4.37602
4.55064
4.49095
4.31691
4.10489
4.31651
4.49132
4.4266
4.25301
4.04257
4.25236
4.42422
4.35566
4.18408
3.97535
4.18389
4.35242
4.27915
4.11027
3.90292
4.11016
4.27708
4.1974
4.03223
3.82573
4.03155
4.19491
4.11327
3.95003
3.744
3.94907
4.10973
4.02451
3.86297
3.65751
3.862
4.02139
3.92843
3.77095
3.5662
3.77011
3.92467
3.827
3.67419
3.4701
3.67379
3.82444
3.72063
3.57272
3.36907
3.57256
3.71999
3.60951
3.46639
3.26291
3.46633
3.60932
3.49387
3.35475
3.15114
3.35473
3.49379
3.37431
3.23644
3.03281
3.23644
3.37426
3.24873
3.10695
2.90676
3.10695
3.24869
4.37921
4.29586
4.04671
4.29587
4.37925
5.04061
4.87067
4.64482
4.87069
5.04065
5.43613
5.25999
5.03886
5.26001
5.43617
5.69005
5.51349
5.29969
5.51351
5.69009
5.85733
5.6829
5.47556
5.68292
5.85737
5.9697
5.79713
5.59529
5.79714
5.96972
6.04469
5.87359
5.67642
5.87359
6.04464
6.09315
5.92317
5.73002
5.92315
6.09308
6.12226
5.95303
5.76335
5.95297
6.12212
6.13678
5.96792
5.78132
5.96783
6.13652
6.14
5.97127
5.78745
5.97119
6.13976
6.13493
5.96601
5.78462
5.96598
6.13475
6.12256
5.95326
5.77427
5.95331
6.12254
6.10401
5.93417
5.75727
5.93427
6.10422
6.08054
5.90983
5.73484
5.90989
6.08077
6.05266
5.88091
5.70768
5.88086
6.05255
6.02049
5.84773
5.67616
5.84756
6.02006
5.98429
5.81047
5.64049
5.81023
5.98367
5.94399
5.76917
5.60074
5.76886
5.94327
5.89941
5.72375
5.55686
5.72338
5.89863
5.85047
5.67415
5.50879
5.67378
5.8498
5.7971
5.6203
5.45645
5.61994
5.7966
5.73899
5.56205
5.39973
5.56169
5.73841
5.67584
5.49922
5.33848
5.49892
5.67537
5.60768
5.43172
5.27257
5.43146
5.60742
5.53431
5.35939
5.20184
5.35914
5.53402
5.45536
5.28206
5.12614
5.28181
5.45493
5.37059
5.19952
5.04528
5.19934
5.37014
5.28004
5.1117
4.95916
5.11156
5.27966
5.18384
5.01863
4.8677
5.01845
5.18339
5.08211
4.92029
4.77089
4.92007
5.08152
4.97464
4.81654
4.66862
4.81631
4.97407
4.86127
4.70725
4.56077
4.70706
4.86073
4.74207
4.59236
4.44718
4.59223
4.74167
4.61703
4.47168
4.32763
4.47161
4.61681
4.48607
4.34493
4.20177
4.34489
4.48595
4.34911
4.21158
4.06907
4.21157
4.34903
4.20632
4.07049
3.92877
4.07049
4.20628
4.05499
3.91853
3.78037
3.91853
4.05496
5.06489
4.95437
4.73775
4.95439
5.06494
5.69774
5.52176
5.32967
5.52178
5.69778
6.09745
5.92161
5.73671
5.92164
6.09749
6.367
6.19303
6.01581
6.19306
6.36705
6.55012
6.37925
6.20849
6.37928
6.55016
6.67519
6.50692
6.34156
6.50695
6.67523
6.75948
6.59328
6.43243
6.5933
6.75951
6.81431
6.64968
6.49266
6.64969
6.81432
6.8473
6.68382
6.53007
6.68382
6.84729
6.86372
6.70097
6.55007
6.70096
6.86369
6.86733
6.70499
6.55661
6.70499
6.86729
6.86125
6.69903
6.55283
6.69903
6.86123
6.84677
6.68448
6.54039
6.68451
6.8468
6.82536
6.66278
6.5205
6.66283
6.82543
6.79816
6.6351
6.49449
6.63513
6.79823
6.76586
6.6022
6.46314
6.60221
6.76587
6.72889
6.56456
6.42694
6.56454
6.72882
6.68745
6.52244
6.3862
6.5224
6.68733
6.64164
6.476
6.34108
6.47594
6.64148
6.59139
6.42522
6.29161
6.42514
6.59119
6.5366
6.37009
6.23777
6.37
6.53638
6.47714
6.31053
6.1795
6.31043
6.47693
6.41284
6.24641
6.11671
6.2463
6.41262
6.3435
6.17761
6.04926
6.1775
6.34329
6.26896
6.10398
5.97704
6.10389
6.26877
6.18905
6.0254
5.89989
6.0253
6.18888
6.10363
5.94171
5.81769
5.94162
6.10345
6.01256
5.85278
5.73027
5.8527
6.01239
5.91574
5.75848
5.63752
5.75841
5.91559
5.81313
5.65873
5.53928
5.65866
5.81297
5.70464
5.55337
5.43539
5.55329
5.70446
5.59017
5.44223
5.32567
5.44215
5.58999
5.46956
5.32511
5.20989
5.32504
5.46939
5.34265
5.20178
5.08778
5.20173
5.34251
5.20921
5.07195
4.959
5.07191
5.20911
5.06901
4.93525
4.82313
4.93522
5.06894
4.9219
4.79115
4.67966
4.79114
4.92186
4.76812
4.63876
4.52796
4.63876
4.76809
4.60549
4.47573
4.36777
4.47574
4.60547
5.54403
5.42788
5.23596
5.42791
5.54408
6.15842
5.98519
5.81569
5.98521
6.15847
6.5587
6.38773
6.22574
6.38776
6.55875
6.83722
6.66875
6.51412
6.66878
6.83727
7.03092
6.86565
6.71713
6.86568
7.03097
7.16541
7.00278
6.85931
7.00281
7.16546
7.25714
7.09662
6.95736
7.09665
7.25719
7.31737
7.15849
7.02276
7.15851
7.31742
7.35395
7.19627
7.06356
7.19629
7.35399
7.37242
7.21556
7.08544
7.21557
7.37245
7.37679
7.22043
7.09261
7.22045
7.37681
7.37036
7.21423
7.08838
7.21425
7.37038
7.35469
7.19863
7.07465
7.19866
7.35473
7.33141
7.1752
7.05282
7.17523
7.33145
7.30176
7.14524
7.02436
7.14528
7.30181
7.26654
7.10964
6.99013
7.10967
7.26659
7.22633
7.06897
6.95074
7.069
7.22636
7.18143
7.02362
6.90661
7.02364
7.18145
7.13203
6.97381
6.85798
6.97382
7.13204
7.07817
6.91964
6.80496
6.91965
7.07816
7.01983
6.86115
6.74762
6.86115
7.01981
6.95694
6.79831
6.68594
6.79831
6.9569
6.88939
6.73107
6.61987
6.73106
6.88934
6.81705
6.65932
6.54934
6.65931
6.81699
6.73979
6.58297
6.47424
6.58295
6.73973
6.65749
6.50189
6.39445
6.50187
6.65742
6.57003
6.41597
6.30983
6.41594
6.56996
6.47728
6.32503
6.22022
6.325
6.47721
6.3791
6.22891
6.12543
6.22889
6.37903
6.27533
6.12742
6.02524
6.12739
6.27527
6.16578
6.02029
5.91936
6.02027
6.16572
6.0502
5.90724
5.80749
5.90721
6.05013
5.92827
5.7879
5.68925
5.78788
5.9282
5.79961
5.66189
5.56421
5.66188
5.79955
5.66381
5.52876
5.4319
5.52875
5.66376
5.52045
5.38803
5.2918
5.38802
5.52042
5.36929
5.23912
5.14332
5.23912
5.36927
5.21055
5.08119
4.98584
5.08119
5.21054
5.04236
4.91217
4.81904
4.91218
5.04235
5.89148
5.77414
5.5992
5.77417
5.89154
6.49317
6.32334
6.16852
6.32337
6.49323
6.89303
6.72627
6.57868
6.72629
6.89309
7.17704
7.01292
6.87227
7.01295
7.1771
7.37794
7.21691
7.08199
7.21694
7.378
7.51925
7.36075
7.23056
7.36078
7.5193
7.61663
7.46017
7.3339
7.46019
7.61668
7.68111
7.52624
7.40327
7.52627
7.68116
7.72058
7.56691
7.44674
7.56693
7.72063
7.74073
7.5879
7.47015
7.58793
7.74077
7.74572
7.59348
7.47785
7.59351
7.74576
7.73904
7.58712
7.47331
7.58714
7.73908
7.72244
7.5707
7.45861
7.57073
7.72248
7.69767
7.54591
7.4353
7.54594
7.69772
7.66611
7.5142
7.40497
7.51423
7.66617
7.6287
7.47656
7.3686
7.47659
7.62875
7.58611
7.43368
7.3269
7.43371
7.58616
7.53876
7.38605
7.2804
7.38608
7.53881
7.48697
7.334
7.22943
7.33403
7.48701
7.43086
7.27772
7.17421
7.27775
7.4309
7.37053
7.21735
7.1149
7.21737
7.37056
7.30601
7.15294
7.05155
7.15297
7.30603
7.23727
7.0845
6.98418
7.08452
7.23729
7.16427
7.01201
6.91278
7.01203
7.16427
7.08692
6.9354
6.83728
6.93542
7.08692
7.00516
6.85459
6.75759
6.8546
7.00515
6.91888
6.76944
6.67357
6.76944
6.91886
6.82791
6.67977
6.58501
6.67977
6.8279
6.73207
6.58534
6.49168
6.58535
6.73205
6.63109
6.48586
6.39322
6.48586
6.63107
6.52462
6.38091
6.28925
6.38091
6.5246
6.41221
6.27005
6.17927
6.27005
6.41219
6.29334
6.15273
6.06272
6.15273
6.29332
6.16738
6.02833
5.93899
6.02834
6.16736
6.03367
5.89624
5.80742
5.89624
6.03366
5.8916
5.75577
5.6673
5.75577
5.89159
5.74073
5.60621
5.51791
5.60622
5.74072
5.58113
5.44663
5.35849
5.44664
5.58114
5.41097
5.27494
5.1885
5.27496
5.41098
6.14054
6.02285
5.8592
6.02288
6.1406
6.73347
6.56624
6.42094
6.56627
6.73353
7.13274
6.96893
6.83055
6.96896
7.1328
7.4202
7.25904
7.12722
7.25907
7.42026
7.62589
7.4677
7.34131
7.46773
7.62595
7.77189
7.61615
7.49423
7.61618
7.77195
7.87323
7.71946
7.60126
7.71949
7.87328
7.94069
7.78849
7.67342
7.78852
7.94074
7.98213
7.83115
7.71873
7.83117
7.98218
8.00332
7.85324
7.74312
7.85327
8.00337
8.00855
7.85913
7.75103
7.85916
8.0086
8.00141
7.85243
7.74606
7.85246
8.00146
7.98381
7.83514
7.7304
7.83517
7.98386
7.95764
7.80909
7.70578
7.80912
7.95769
7.9244
7.77585
7.67385
7.77589
7.92446
7.88515
7.73653
7.63574
7.73656
7.8852
7.84067
7.69192
7.59227
7.69196
7.84072
7.79152
7.64263
7.54406
7.64266
7.79157
7.73812
7.5891
7.49156
7.58913
7.73817
7.68074
7.53163
7.4351
7.53166
7.68079
7.61957
7.47047
7.37493
7.4705
7.61961
7.55476
7.40576
7.3112
7.40579
7.5548
7.48639
7.3376
7.24403
7.33763
7.48643
7.4145
7.26605
7.17346
7.26607
7.41453
7.33909
7.1911
7.09948
7.19112
7.33911
7.26012
7.11269
7.02204
7.11271
7.26014
7.1775
7.0307
6.94098
7.03071
7.17751
7.09104
6.9449
6.85608
6.94492
7.09105
7.00048
6.855
6.76701
6.85501
7.00049
6.90543
6.76056
6.67333
6.76058
6.90543
6.80536
6.66104
6.57447
6.66105
6.80536
6.69962
6.55578
6.46975
6.55579
6.69962
6.58742
6.44399
6.3584
6.444
6.58742
6.46786
6.32484
6.23956
6.32485
6.46786
6.34
6.19742
6.11232
6.19743
6.34
6.20293
6.06082
5.97575
6.06083
6.20294
6.05597
5.91411
5.82889
5.91412
6.05598
5.89897
5.75613
5.67074
5.75615
5.89898
5.72997
5.58466
5.50047
5.58468
5.72998
6.30866
6.19077
6.03427
6.1908
6.30872
6.89588
6.73038
6.59104
6.73041
6.89594
7.29465
7.13276
7.00009
7.13279
7.29471
7.58418
7.42492
7.29855
7.42496
7.58424
7.79281
7.63646
7.51531
7.63649
7.79287
7.9417
7.78775
7.67091
7.78778
7.94176
8.04543
7.89344
7.78019
7.89347
8.04548
8.11459
7.9642
7.85397
7.96423
8.11465
8.15701
8.00789
7.90024
8.00792
8.15707
8.1785
8.03037
7.92494
8.0304
8.17855
8.18341
8.03606
7.9326
8.03609
8.18346
8.17548
8.02869
7.92693
8.02872
8.17553
8.15665
8.01032
7.91017
8.01035
8.1567
8.129
7.98296
7.88421
7.98299
8.12905
8.09413
7.94825
7.8508
7.94829
8.09418
8.0532
7.90742
7.81117
7.90746
8.05325
8.00713
7.86138
7.76625
7.86141
8.00718
7.95659
7.81083
7.71676
7.81087
7.95664
7.90214
7.75635
7.66329
7.75638
7.90219
7.84415
7.69834
7.60626
7.69838
7.8442
7.78297
7.63717
7.54604
7.6372
7.78302
7.71886
7.5731
7.4829
7.57313
7.7189
7.652
7.50632
7.41702
7.50635
7.65204
7.58256
7.43698
7.34857
7.43701
7.58259
7.51061
7.36515
7.27759
7.36518
7.51064
7.43616
7.29082
7.20406
7.29084
7.43618
7.35913
7.21386
7.12786
7.21388
7.35916
7.27934
7.13405
7.04872
7.13407
7.27937
7.19645
7.051
6.96625
7.05102
7.19647
7.10994
6.96418
6.87989
6.9642
7.10996
7.01913
6.87287
6.78892
6.87289
7.01914
6.92312
6.7762
6.69246
6.77621
6.92313
6.82085
6.67313
6.58946
6.67315
6.82086
6.71111
6.56253
6.4788
6.56255
6.71112
6.59263
6.4432
6.35927
6.44322
6.59264
6.46415
6.3139
6.22961
6.31392
6.46416
6.32464
6.17337
6.08855
6.17339
6.32466
6.17363
6.02017
5.93478
6.02019
6.17365
6.00892
5.85182
5.76714
5.85184
6.00894
6.40558
6.28751
6.13492
6.28754
6.40565
6.98967
6.82509
6.68901
6.82512
6.98974
7.38812
7.22726
7.0977
7.2273
7.38818
7.67865
7.52044
7.39704
7.52048
7.67871
7.8887
7.73338
7.61509
7.73342
7.88876
8.03889
7.886
7.77193
7.88603
8.03896
8.14357
7.99267
7.88213
7.9927
8.14363
8.2132
8.06395
7.9564
8.06399
8.21326
8.25558
8.1077
8.00269
8.10774
8.25564
8.27656
8.12979
8.02699
8.12982
8.27662
8.28056
8.1347
8.03387
8.13474
8.28061
8.2714
8.12627
8.02715
8.12631
8.27146
8.25103
8.10654
8.00903
8.10658
8.25109
8.22173
8.07772
7.98162
8.07775
8.22179
8.18517
8.04151
7.94672
8.04154
8.18523
8.14262
7.99923
7.90566
7.99926
8.14268
8.09512
7.95191
7.85947
7.95194
8.09517
8.04344
7.90036
7.809
7.90039
8.04349
7.98828
7.84527
7.75492
7.84531
7.98833
7.93016
7.78718
7.69781
7.78721
7.93021
7.86953
7.72656
7.63812
7.72659
7.86957
7.80679
7.66379
7.57624
7.66382
7.80683
7.74226
7.59919
7.51249
7.59922
7.7423
7.67619
7.53298
7.44709
7.53301
7.67623
7.60876
7.46533
7.38019
7.46536
7.6088
7.54008
7.3963
7.31182
7.39632
7.54011
7.4701
7.3258
7.2419
7.32582
7.47013
7.39865
7.25361
7.17018
7.25364
7.39867
7.32535
7.17932
7.09622
7.17935
7.32537
7.24961
7.10231
7.01938
7.10233
7.24964
7.1706
7.02169
6.93879
7.02171
7.17062
7.08718
6.93639
6.85333
6.93641
7.08719
6.99799
6.84509
6.76172
6.84511
6.99801
6.90149
6.74633
6.66248
6.74635
6.90151
6.796
6.63852
6.55403
6.63854
6.79602
6.67984
6.52003
6.43474
6.52005
6.67986
6.55152
6.38918
6.3029
6.38919
6.55154
6.41015
6.24411
6.1568
6.24413
6.41018
6.25318
6.08202
5.99485
6.08204
6.25321
6.43636
6.31809
6.16669
6.31812
6.43643
7.01969
6.85528
6.72019
6.85532
7.01975
7.41803
7.25743
7.12882
7.25746
7.4181
7.7087
7.55079
7.42829
7.55082
7.70877
7.91883
7.76386
7.64645
7.7639
7.9189
8.06892
7.91643
7.80324
7.91646
8.06899
8.17321
8.0228
7.91314
8.02284
8.17327
8.24215
8.09351
7.98684
8.09355
8.24221
8.28355
8.13641
8.03229
8.13644
8.28361
8.30328
8.15739
8.05552
8.15743
8.30334
8.30579
8.16099
8.06111
8.16103
8.30585
8.29504
8.15115
8.05301
8.15118
8.2951
8.27285
8.12979
8.03332
8.12982
8.2729
8.24174
8.09936
8.00434
8.09939
8.2418
8.20342
8.06159
7.96794
8.06162
8.20347
8.15924
8.01788
7.92549
8.01791
8.1593
8.11036
7.96936
7.87815
7.96939
8.11041
8.05766
7.91694
7.82686
7.91697
8.05771
8.00196
7.86143
7.7724
7.86146
8.00201
7.9439
7.80348
7.71544
7.80351
7.94395
7.88408
7.74368
7.65659
7.74371
7.88413
7.82304
7.68256
7.59635
7.68259
7.82308
7.76123
7.62054
7.53515
7.62056
7.76127
7.69903
7.55798
7.47334
7.558
7.69907
7.63675
7.49514
7.41117
7.49516
7.63679
7.57459
7.43217
7.34876
7.4322
7.57463
7.51261
7.36909
7.28612
7.36912
7.51264
7.45067
7.30572
7.22304
7.30575
7.4507
7.38842
7.24168
7.15911
7.2417
7.38845
7.32533
7.17633
7.09366
7.17635
7.32536
7.26043
7.10866
7.02566
7.10867
7.26046
7.19235
7.03737
6.95384
7.03739
7.19237
7.11945
6.96089
6.87662
6.9609
7.11947
7.0398
6.87737
6.79216
6.87739
7.03982
6.95126
6.78479
6.69845
6.78481
6.95128
6.8516
6.68099
6.59332
6.68101
6.85162
6.73876
6.56374
6.47453
6.56376
6.73878
6.61123
6.43063
6.33981
6.43065
6.61126
6.466
6.27835
6.18701
6.27837
6.46603
6.40257
6.28407
6.13127
6.2841
6.40264
6.98747
6.82251
6.68624
6.82255
6.98754
7.38599
7.22486
7.09514
7.22489
7.38605
7.67601
7.51764
7.39411
7.51767
7.67607
7.885
7.72967
7.61129
7.72971
7.88507
8.03364
7.88091
7.76681
7.88094
8.03371
8.13629
7.98578
7.87526
7.98581
8.13636
8.20346
8.05486
7.94739
8.05489
8.20352
8.24299
8.09605
7.9912
8.09608
8.24306
8.26078
8.11527
8.01272
8.1153
8.26084
8.2613
8.11707
8.01659
8.11711
8.26136
8.24859
8.10548
8.00682
8.10552
8.24865
8.22435
8.08229
7.98535
8.08232
8.2244
8.19129
8.05013
7.95474
8.05016
8.19135
8.15114
8.01075
7.9168
8.01078
8.15119
8.10533
7.96563
7.87303
7.96566
8.10538
8.05509
7.91596
7.82462
7.91599
8.05514
8.00142
7.86275
7.77261
7.86278
8.00147
7.94523
7.80691
7.71789
7.80694
7.94528
7.8873
7.74921
7.66124
7.74923
7.88735
7.82837
7.69035
7.60338
7.69038
7.82841
7.7691
7.63099
7.54493
7.63101
7.76914
7.71009
7.57169
7.48646
7.57171
7.71013
7.6519
7.51296
7.42846
7.51298
7.65193
7.59498
7.4552
7.37133
7.45522
7.59501
7.53967
7.39869
7.31531
7.39871
7.5397
7.48616
7.34357
7.26052
7.34359
7.48619
7.43444
7.28976
7.20686
7.28978
7.43446
7.38426
7.23697
7.15399
7.23699
7.38428
7.33521
7.18466
7.10133
7.18468
7.33524
7.28634
7.13184
7.04787
7.13185
7.28636
7.2362
7.07708
6.99219
7.0771
7.23622
7.18293
7.01856
6.93246
7.01858
7.18295
7.12413
6.95401
6.86644
6.95403
7.12415
7.05712
6.88089
6.79159
6.8809
7.05714
6.97901
6.79638
6.7051
6.7964
6.97903
6.8869
6.69749
6.60397
6.6975
6.88692
6.77842
6.58098
6.48513
6.581
6.77845
6.64981
6.44277
6.34562
6.44279
6.64983
6.30267
6.18389
6.02694
6.18392
6.30274
6.89161
6.72531
6.58557
6.72534
6.89168
7.2906
7.12811
6.9951
7.12814
7.29067
7.57918
7.41954
7.2929
7.41958
7.57925
7.78579
7.62934
7.508
7.62937
7.78585
7.93166
7.77797
7.66104
7.778
7.93173
8.03145
7.88015
7.76692
7.88018
8.03152
8.09581
7.94661
7.83654
7.94665
8.09588
8.13266
7.98531
7.87797
7.98534
8.13273
8.1479
8.00219
7.89726
8.00223
8.14796
8.14607
8.00183
7.89906
8.00187
8.14614
8.13108
7.98823
7.88741
7.98827
8.13114
8.10469
7.96311
7.8641
7.96314
8.10474
8.06965
7.92921
7.83186
7.92925
8.06971
8.0277
7.88829
7.7925
7.88832
8.02776
7.98033
7.84185
7.74752
7.84188
7.98038
7.92881
7.79115
7.69819
7.79118
7.92886
7.87424
7.73727
7.64562
7.7373
7.87429
7.81762
7.6812
7.59076
7.68122
7.81767
7.75982
7.62378
7.5345
7.62381
7.75986
7.7017
7.56587
7.47766
7.56589
7.70174
7.64407
7.50821
7.421
7.50823
7.6441
7.58767
7.45153
7.36521
7.45155
7.58771
7.53324
7.39648
7.31094
7.3965
7.53327
7.48142
7.34367
7.25877
7.34369
7.48145
7.43279
7.29357
7.20915
7.29359
7.43282
7.38777
7.24654
7.1624
7.24655
7.38779
7.3466
7.20271
7.11862
7.20272
7.34663
7.30925
7.16195
7.07764
7.16197
7.30927
7.27531
7.12379
7.03893
7.1238
7.27534
7.24398
7.08731
7.00156
7.08733
7.244
7.21399
7.05119
6.96413
7.05121
7.21401
7.18343
7.01351
6.92475
7.01352
7.18345
7.14988
6.97192
6.88105
6.97194
7.1499
7.11
6.92331
6.82997
6.92332
7.11002
7.05989
6.86391
6.76776
6.86393
7.05991
6.99551
6.78959
6.6903
6.78961
6.99553
6.91313
6.69589
6.5933
6.69591
6.91316
6.80767
6.57743
6.47257
6.57745
6.8077
6.1316
6.01251
5.84816
6.01254
6.13166
6.72739
6.55886
6.41292
6.5589
6.72745
7.12718
6.96236
6.82343
6.9624
7.12725
7.41341
7.25156
7.11929
7.25159
7.41348
7.61628
7.45781
7.33109
7.45785
7.61635
7.75802
7.60251
7.4804
7.60254
7.75809
7.85375
7.70084
7.58262
7.70087
7.85382
7.91436
7.76376
7.64886
7.7638
7.91443
7.94784
7.7993
7.68728
7.79934
7.9479
7.96007
7.81341
7.70395
7.81344
7.96013
7.95571
7.81073
7.70353
7.81076
7.95577
7.9383
7.79498
7.68992
7.79501
7.93836
7.90983
7.76802
7.6649
7.76806
7.90988
7.87296
7.73256
7.63124
7.73259
7.87301
7.82941
7.69032
7.59069
7.69035
7.82946
7.78069
7.64281
7.54479
7.64284
7.78074
7.72812
7.59133
7.49483
7.59136
7.72817
7.67281
7.53699
7.44194
7.53702
7.67286
7.61585
7.48083
7.38715
7.48086
7.6159
7.55819
7.42379
7.33141
7.42381
7.55823
7.50077
7.36679
7.27562
7.36681
7.50081
7.44453
7.31069
7.22066
7.31071
7.44456
7.39036
7.25636
7.16734
7.25638
7.39039
7.33916
7.2046
7.11648
7.20462
7.33919
7.29179
7.15622
7.06883
7.15623
7.29182
7.24907
7.11192
7.02509
7.11193
7.2491
7.21174
7.07234
6.98584
7.07235
7.21176
7.1804
7.03794
6.95149
7.03795
7.18042
7.15543
7.00897
6.92224
7.00899
7.15545
7.13693
6.98537
6.89797
6.98539
7.13695
7.12451
6.96661
6.8781
6.96663
7.12454
7.11722
6.9516
6.86145
6.95161
7.11724
7.11326
6.93846
6.84613
6.93848
7.11328
7.10982
6.9244
6.82931
6.92442
7.10984
7.10341
6.90595
6.80749
6.90597
7.10343
7.08981
6.8789
6.77642
6.87892
7.08983
7.06324
6.8379
6.73097
6.83791
7.06326
7.01763
6.77614
6.66456
6.77615
7.01765
6.94535
6.68595
6.57073
6.68596
6.94537
5.8796
5.76028
5.58434
5.76031
5.87966
6.48558
6.31385
6.15811
6.31388
6.48564
6.88647
6.71816
6.56979
6.71819
6.88653
7.16917
7.0039
6.86259
7.00393
7.16923
7.3667
7.20504
7.0696
7.20508
7.36676
7.50279
7.34433
7.21378
7.34436
7.50285
7.59326
7.43763
7.31122
7.43766
7.59333
7.64927
7.49618
7.3733
7.49621
7.64933
7.67884
7.52804
7.40824
7.52807
7.67889
7.68783
7.53914
7.42208
7.53916
7.68789
7.68095
7.53416
7.41953
7.53419
7.68101
7.66128
7.51641
7.40412
7.51644
7.66134
7.63105
7.48795
7.37777
7.48798
7.63111
7.59276
7.45134
7.34312
7.45137
7.59281
7.54809
7.40825
7.30191
7.40828
7.54813
7.4985
7.36018
7.25563
7.36021
7.49855
7.44532
7.30841
7.20556
7.30843
7.44537
7.38968
7.25405
7.15284
7.25407
7.38972
7.33267
7.19817
7.09853
7.19819
7.33272
7.27531
7.14174
7.0436
7.14176
7.27535
7.21859
7.08575
6.98903
7.08577
7.21863
7.16354
7.03114
6.93576
7.03116
7.16358
7.11119
6.97887
6.88472
6.97889
7.11121
7.06256
6.92992
6.83688
6.92994
7.06258
7.01873
6.88525
6.79316
6.88527
7.01876
6.98079
6.84585
6.75451
6.84587
6.98082
6.94984
6.81266
6.72183
6.81268
6.94987
6.92692
6.78656
6.69594
6.78658
6.92695
6.91299
6.76831
6.67753
6.76833
6.91302
6.90883
6.75845
6.66703
6.75847
6.90886
6.91473
6.75715
6.66455
6.75717
6.91477
6.93085
6.76396
6.66952
6.76398
6.93088
6.95643
6.77811
6.68098
6.77812
6.95646
6.98931
6.79716
6.69652
6.79718
6.98933
7.02582
6.81736
6.71226
6.81738
7.02584
7.06043
6.83314
6.72261
6.83316
7.06045
7.08639
6.83744
6.72054
6.83746
7.08641
7.09496
6.82231
6.69848
6.82232
7.09498
7.07365
6.77492
6.64512
6.77493
7.07367
5.52915
5.41039
5.21717
5.41042
5.52921
6.14961
5.97376
5.80305
5.97379
6.14967
6.55164
6.37846
6.2154
6.37849
6.5517
6.82899
6.65878
6.50321
6.65881
6.82905
7.01905
6.85265
6.70335
6.85268
7.01911
7.14774
6.98474
6.84068
6.98477
7.1478
7.23171
7.07176
6.93213
7.07179
7.23177
7.28237
7.12516
6.98934
7.12519
7.28242
7.30773
7.15302
7.02051
7.15304
7.30778
7.31353
7.16112
7.03158
7.16114
7.31358
7.30447
7.15415
7.02724
7.15417
7.30452
7.28308
7.13491
7.01056
7.13494
7.28313
7.25179
7.10562
6.98358
7.10565
7.25184
7.21288
7.06864
6.94877
7.06866
7.21292
7.16793
7.02556
6.90778
7.02558
7.16797
7.11837
6.97782
6.86205
6.97784
7.11841
7.06545
6.92663
6.81279
6.92665
7.06549
7.01027
6.87308
6.76112
6.8731
7.01031
6.95392
6.81821
6.70808
6.81823
6.95396
6.89738
6.763
6.65463
6.76302
6.89742
6.84171
6.70845
6.60178
6.70847
6.84175
6.78795
6.65554
6.5505
6.65556
6.78799
6.7372
6.6053
6.50179
6.60532
6.73724
6.6906
6.55879
6.45672
6.55881
6.69064
6.64939
6.51715
6.41638
6.51718
6.64944
6.6149
6.48159
6.38193
6.48162
6.61496
6.58856
6.45336
6.35459
6.45339
6.58862
6.57191
6.43381
6.33563
6.43385
6.57198
6.56661
6.42432
6.32634
6.42436
6.56669
6.57407
6.42615
6.32789
6.42619
6.57414
6.59617
6.44041
6.3412
6.44044
6.59623
6.63471
6.46867
6.36767
6.4687
6.63476
6.69046
6.511
6.40714
6.51102
6.6905
6.76345
6.56677
6.45874
6.56679
6.76348
6.85208
6.63367
6.5199
6.63369
6.85211
6.95186
6.70679
6.58554
6.7068
6.95188
7.05434
6.77721
6.64668
6.77722
7.05436
7.14764
6.83197
6.6906
6.83198
7.14766
7.21079
6.85324
6.70178
6.85325
7.21081
5.04695
4.93318
4.71497
4.9332
5.047
5.68796
5.50856
5.31494
5.50859
5.68801
6.09028
5.91148
5.72519
5.91151
6.09033
6.35901
6.18257
6.00411
6.1826
6.35907
6.53849
6.36582
6.19398
6.36585
6.53855
6.65757
6.48835
6.32208
6.48837
6.65763
6.73377
6.56763
6.4061
6.56766
6.73381
6.77854
6.61522
6.45778
6.61524
6.77859
6.79972
6.63896
6.4851
6.63897
6.79975
6.80278
6.6444
6.49375
6.64441
6.8028
6.79235
6.63614
6.48834
6.63616
6.79238
6.77031
6.61638
6.47139
6.61641
6.77035
6.73919
6.58741
6.44496
6.58743
6.73925
6.70104
6.55135
6.4113
6.55137
6.70108
6.65729
6.50967
6.37196
6.50969
6.65735
6.6093
6.46372
6.32826
6.46375
6.60936
6.5582
6.41461
6.28133
6.41463
6.55824
6.50499
6.36332
6.2322
6.36334
6.50502
6.45068
6.31085
6.18183
6.31086
6.4507
6.39624
6.2581
6.13117
6.25812
6.39626
6.34266
6.20606
6.08117
6.20609
6.34269
6.29098
6.15569
6.0328
6.15572
6.29103
6.24229
6.10801
5.98707
6.10806
6.24236
6.19776
6.06413
5.94507
6.06419
6.19788
6.15872
6.02526
5.90799
6.02533
6.15886
6.12662
5.99273
5.87714
5.99282
6.12678
6.10313
5.96806
5.85397
5.96816
6.1033
6.0902
5.95298
5.84016
5.95309
6.09039
6.09012
5.94948
5.8376
5.9496
6.09032
6.1049
5.95936
5.84795
5.95946
6.10509
6.13863
5.98576
5.87419
5.98585
6.13878
6.19478
6.0317
5.91902
6.03176
6.19489
6.27711
6.09979
5.98473
6.09982
6.27719
6.38974
6.19272
6.07351
6.19274
6.38979
6.53622
6.31216
6.18638
6.31218
6.53625
6.71794
6.45717
6.32165
6.45718
6.71796
6.93087
6.62142
6.47242
6.62143
6.93089
7.16215
6.78957
6.62328
6.78957
7.16217
7.3818
6.93262
6.74747
6.93263
7.38182
4.35832
4.27122
4.02036
4.27124
4.35837
5.03
4.85598
4.62841
4.856
5.03004
5.42896
5.24922
5.02651
5.24924
5.42901
5.68248
5.50281
5.28756
5.50284
5.68253
5.84637
5.66953
5.46088
5.66956
5.84641
5.95294
5.77887
5.57587
5.77889
5.95298
6.02004
5.84851
5.65038
5.84853
6.02008
6.05867
5.88958
5.69567
5.88959
6.05877
6.07619
5.90934
5.71918
5.90934
6.0762
6.07761
5.91283
5.72606
5.91281
6.07753
6.06734
5.90449
5.72073
5.9045
6.06725
6.04661
5.88584
5.7051
5.88587
6.04655
6.01777
5.85904
5.68103
5.85907
6.0178
5.98257
5.82594
5.65054
5.82597
5.98267
5.94253
5.7879
5.61505
5.78795
5.94276
5.89884
5.74614
5.57575
5.74621
5.89898
5.85231
5.70157
5.53358
5.7016
5.85238
5.80383
5.65503
5.48942
5.65502
5.8039
5.75433
5.60737
5.44413
5.60734
5.75424
5.70459
5.55944
5.39858
5.55943
5.7044
5.65561
5.51213
5.35364
5.51213
5.65532
5.60822
5.46629
5.31018
5.46632
5.60797
5.56344
5.42286
5.26915
5.42296
5.56343
5.52246
5.38292
5.2316
5.3831
5.52271
5.48652
5.34765
5.19869
5.34787
5.48688
5.45696
5.31835
5.17174
5.31859
5.4574
5.43557
5.29661
5.1523
5.29687
5.436
5.42446
5.28433
5.14226
5.28463
5.42488
5.42619
5.2839
5.14384
5.28421
5.42666
5.4436
5.29755
5.15927
5.29782
5.44398
5.482
5.33008
5.19315
5.33028
5.48225
5.54664
5.38602
5.24969
5.38615
5.54685
5.64454
5.47099
5.33418
5.47106
5.64472
5.78514
5.59248
5.45346
5.59253
5.78523
5.98099
5.7598
5.61575
5.75982
5.98104
6.24845
5.98339
5.82969
5.9834
6.24847
6.60518
6.27155
6.10097
6.27156
6.60519
7.0621
6.62378
6.42618
6.62379
7.06211
7.59593
7.00441
6.76988
7.00441
7.59594
3.25069
3.28917
3.00747
3.28918
3.25072
3.96865
3.85202
3.58161
3.85204
3.96868
4.34885
4.20674
3.93313
4.20676
4.34888
4.57031
4.42167
4.15332
4.42169
4.57035
4.7086
4.55894
4.29589
4.55896
4.70863
4.79765
4.64774
4.38937
4.64775
4.79767
4.85298
4.7038
4.44963
4.70385
4.85362
4.88489
4.7366
4.48626
4.73675
4.88511
4.89891
4.75215
4.50532
4.75221
4.89937
4.89952
4.75455
4.51095
4.75451
4.90136
4.89329
4.74802
4.50711
4.74781
4.89378
4.87777
4.73322
4.49517
4.73306
4.87836
4.85475
4.71159
4.47626
4.71163
4.85509
4.82747
4.68489
4.45215
4.68487
4.82567
4.79479
4.65433
4.42415
4.65461
4.79439
4.76064
4.62105
4.39318
4.62123
4.76102
4.7255
4.58561
4.35991
4.5856
4.72472
4.68786
4.54849
4.32497
4.54843
4.68564
4.64944
4.51042
4.28901
4.51002
4.64699
4.60942
4.47187
4.25275
4.47139
4.6086
4.57102
4.43392
4.21699
4.43324
4.5695
4.53468
4.3971
4.18241
4.39635
4.53095
4.49923
4.36203
4.14979
4.3617
4.49656
4.46682
4.32979
4.12007
4.32997
4.46651
4.43743
4.30125
4.0942
4.3017
4.43868
4.41365
4.27758
4.07336
4.27814
4.41464
4.39783
4.26031
4.059
4.26073
4.39743
4.38921
4.251
4.05288
4.25139
4.39009
4.39135
4.25201
4.05692
4.25256
4.39269
4.40903
4.26593
4.07369
4.26639
4.40937
4.44802
4.29812
4.10846
4.29832
4.44724
4.51236
4.35357
4.16627
4.35383
4.51309
4.61143
4.43965
4.25439
4.43995
4.61311
4.75644
4.5674
4.38359
4.56751
4.75674
4.96238
4.75386
4.57063
4.75389
4.96247
5.273
5.02929
4.84284
5.0293
5.27303
5.75977
5.44096
5.24148
5.44097
5.75978
6.53363
6.0528
5.81746
6.0528
6.53364
7.74271
6.92387
6.62854
6.92387
7.74271
0.963362
1.20314
1.09932
1.20315
0.963373
1.53057
1.5414
1.43438
1.54141
1.53058
1.75539
1.71564
1.60262
1.71564
1.7554
1.86932
1.81876
1.70576
1.81877
1.86934
1.93818
1.88474
1.77277
1.88474
1.93819
1.98294
1.9283
1.81739
1.92831
1.98294
2.01177
1.95674
1.84689
1.95675
2.01196
2.02946
1.97433
1.86558
1.97439
2.0296
2.03875
1.98384
1.87619
1.98384
2.03896
2.04161
1.98691
1.88045
1.98682
2.042
2.04097
1.98577
1.88016
1.98568
2.04091
2.03669
1.9811
1.87665
1.98109
2.03678
2.02851
1.97274
1.86937
1.97283
2.0287
2.01791
1.96195
1.85965
1.96199
2.01745
2.00544
1.94941
1.84809
1.9495
2.0055
1.99219
1.93553
1.83509
1.93564
1.99241
1.97823
1.92061
1.821
1.92065
1.97805
1.96327
1.90487
1.80609
1.90481
1.96259
1.94772
1.88858
1.79078
1.8884
1.94674
1.9316
1.87212
1.77553
1.87194
1.93116
1.9162
1.85593
1.76049
1.85571
1.91537
1.90136
1.8402
1.74592
1.84001
1.89992
1.88688
1.82528
1.73218
1.82529
1.88615
1.87387
1.81173
1.71969
1.81195
1.87415
1.86247
1.8
1.70893
1.80029
1.86318
1.85343
1.79061
1.70041
1.79091
1.85403
1.84753
1.78428
1.69479
1.78457
1.84779
1.84516
1.78209
1.69306
1.78242
1.84582
1.84744
1.78492
1.69632
1.7853
1.84839
1.85647
1.79459
1.70636
1.79493
1.85706
1.87548
1.81453
1.72636
1.81473
1.87541
1.90601
1.84752
1.75904
1.84767
1.90637
1.95139
1.89838
1.80919
1.8985
1.95208
2.01621
1.97396
1.88357
1.97402
2.0163
2.13418
2.08595
1.99276
2.08597
2.13421
2.31155
2.25332
2.15498
2.25333
2.31157
2.58553
2.50887
2.40118
2.50888
2.58554
3.12209
2.94114
2.80135
2.94115
3.12209
4.99116
4.20646
3.94501
4.20646
4.99116
1.10977
1.02089
0.964457
1.0209
1.10977
2.79543
2.67184
2.4701
2.67185
2.79542
3.50195
3.39631
3.25547