/*--------------------------------*- C++ -*----------------------------------*\
  =========                 |
  \\      /  F ield         | OpenFOAM: The Open Source CFD Toolbox
   \\    /   O peration     | Website:  https://openfoam.org
    \\  /    A nd           | Version:  9
     \\/     M anipulation  |
\*---------------------------------------------------------------------------*/
FoamFile
{
    format      ascii;
    class       volScalarField;
    location    "4";
    object      p;
}
// * * * * * * * * * * * * * * * * * * * * * * * * * * * * * * * * * * * * * //

dimensions      [0 2 -2 0 0 0 0];

internalField   nonuniform List<scalar> 
4545
(
19.9292
20.1748
20.1297
20.1748
19.9292
19.9105
20.217
20.1711
20.2169
19.9104
19.8643
20.2811
20.2359
20.2811
19.8643
19.8017
20.3194
20.2897
20.3194
19.8017
19.7598
20.3405
20.329
20.3406
19.7599
19.7343
20.3526
20.3559
20.3527
19.7349
19.718
20.3595
20.3734
20.3596
19.7191
19.7059
20.3636
20.3841
20.363
19.7095
19.7004
20.3644
20.3898
20.3644
19.7022
19.6971
20.3634
20.3918
20.3632
19.6983
19.6936
20.3617
20.3915
20.3612
19.6947
19.6933
20.3578
20.3893
20.3586
19.6892
19.6917
20.3532
20.3859
20.3551
19.6844
19.6861
20.349
20.3811
20.3493
19.6832
19.6794
20.3435
20.3755
20.3428
19.6817
19.672
20.3376
20.3694
20.3373
19.6762
19.6654
20.3308
20.3616
20.3301
19.6703
19.6639
20.3199
20.3518
20.322
19.663
19.6594
20.3097
20.3407
20.3109
19.6595
19.6495
20.301
20.3296
20.2996
19.6563
19.6437
20.2897
20.3177
20.2883
19.6502
19.6416
20.2759
20.3046
20.2759
19.6434
19.6349
20.2643
20.292
20.2651
19.6345
19.6253
20.2537
20.279
20.2521
19.6301
19.6224
20.2399
20.2652
20.2389
19.6261
19.6204
20.2271
20.2521
20.2273
19.6198
19.6172
20.2164
20.2401
20.2175
19.6115
19.6152
20.2064
20.2286
20.2095
19.6042
19.6141
20.1975
20.2169
20.1991
19.608
19.6113
20.1915
20.2068
20.1909
19.6121
19.6132
20.1879
20.1993
20.1868
19.6161
19.6228
20.1846
20.1934
20.1838
19.6257
19.6336
20.184
20.1898
20.1838
19.6337
19.6477
20.186
20.1883
20.1865
19.6461
19.6652
20.1902
20.1887
20.1905
19.6652
19.686
20.1966
20.1912
20.1968
19.6861
19.7101
20.205
20.1959
20.205
19.71
19.737
20.2148
20.203
20.2148
19.737
19.7665
20.2253
20.2125
20.2253
19.7664
20.3317
19.9325
20.0018
19.9325
20.3317
20.3919
19.8952
19.9582
19.8952
20.3919
20.2652
19.9791
20.0311
19.979
20.2651
20.1881
20.0091
20.0784
20.009
20.1881
20.1485
20.0224
20.1112
20.0225
20.1485
20.1241
20.0295
20.1329
20.0296
20.1242
20.108
20.0332
20.1457
20.0333
20.1083
20.0974
20.0347
20.1533
20.0347
20.0976
20.0898
20.0344
20.1572
20.0344
20.09
20.0835
20.0328
20.1583
20.0328
20.0838
20.0783
20.0304
20.1575
20.0303
20.0785
20.0732
20.0268
20.1552
20.0269
20.0733
20.0677
20.0225
20.1517
20.0228
20.0678
20.0625
20.0179
20.1473
20.0179
20.062
20.0561
20.0125
20.1422
20.0124
20.0556
20.0492
20.0067
20.1365
20.0068
20.0495
20.0425
20.0004
20.13
20.0006
20.0434
20.0347
19.993
20.1226
19.9938
20.0361
20.0271
19.9855
20.1146
19.9862
20.0284
20.0196
19.9784
20.1065
19.9785
20.0209
20.0117
19.9708
20.0983
19.9708
20.0128
20.0038
19.9631
20.09
19.9632
20.0043
19.9968
19.9563
20.0824
19.9565
19.9975
19.9908
19.9505
20.0752
19.9502
19.9911
19.9848
19.9449
20.0686
19.9448
19.9846
19.9799
19.9407
20.0631
19.9409
19.98
19.9772
19.9385
20.0595
19.9387
19.9775
19.9765
19.938
20.059
19.9386
19.9769
19.9778
19.9394
20.0616
19.9398
19.9779
19.9818
19.9433
20.0635
19.9432
19.9818
19.9881
19.9497
20.0677
19.9494
19.9882
19.9972
19.9581
20.074
19.958
19.9975
20.0096
19.969
20.0822
19.9689
20.01
20.0251
19.982
20.0923
19.9821
20.0253
20.0433
19.997
20.104
19.9971
20.0432
20.0637
20.0136
20.1171
20.0137
20.0636
20.0856
20.0316
20.1313
20.0316
20.0855
20.1085
20.0503
20.1467
20.0503
20.1084
20.1335
20.068
20.1628
20.068
20.1335
20.4604
19.8718
19.8698
19.8718
20.4604
20.6297
19.7837
19.7378
19.7837
20.6297
20.5074
19.8727
19.8088
19.8727
20.5074
20.4376
19.8984
19.8499
19.8983
20.4375
20.4066
19.9061
19.8748
19.9061
20.4065
20.3884
19.908
19.8896
19.9082
20.3879
20.3766
19.9071
19.8975
19.9075
20.3758
20.3686
19.9048
19.901
19.9056
20.3671
20.3617
19.9023
19.9019
19.9027
20.3607
20.3562
19.8986
19.9009
19.8995
20.3545
20.3508
19.8944
19.8985
19.8956
20.3487
20.3448
19.89
19.8946
19.89
20.3447
20.3393
19.8842
19.8893
19.8831
20.3412
20.3343
19.8779
19.8835
19.8768
20.3359
20.3303
19.87
19.8769
19.8697
20.3304
20.3264
19.8615
19.8699
19.8626
20.3244
20.3204
19.8541
19.8634
19.8563
20.3172
20.3122
19.8477
19.8568
19.8486
20.3113
20.3043
19.8414
19.8505
19.8421
20.3039
20.2985
19.8339
19.8443
19.8361
20.2963
20.2918
19.8276
19.8382
19.8289
20.2911
20.2845
19.8228
19.833
19.8222
20.2868
20.2795
19.8182
19.8287
19.8172
20.2823
20.2767
19.8141
19.8256
19.8144
20.2772
20.2739
19.8122
19.8236
19.812
20.2747
20.2732
19.8115
19.8231
19.8111
20.274
20.2745
19.8127
19.824
19.8124
20.275
20.277
19.8163
19.8262
19.8149
20.2787
20.2817
19.8219
19.832
19.8213
20.282
20.2902
19.8306
19.8431
19.8318
20.2876
20.3024
19.8399
19.8542
19.842
20.2983
20.3154
19.8522
19.8668
19.8543
20.3114
20.3299
19.8671
19.8811
19.8687
20.3265
20.3461
19.8837
19.8966
19.8843
20.3443
20.3636
19.9016
19.9132
19.9018
20.3628
20.382
19.9204
19.9302
19.9204
20.3816
20.4003
19.9399
19.9471
19.9398
20.4
20.4192
19.9583
19.9629
19.9582
20.419
20.4452
19.9678
19.9744
19.9677
20.4451
20.4431
19.9057
19.848
19.9057
20.4431
20.6253
19.8225
19.6962
19.8225
20.6252
20.4964
19.9217
19.7769
19.9216
20.4964
20.4265
19.9501
19.8233
19.9501
20.4264
20.3966
19.9583
19.8481
19.9583
20.3965
20.3793
19.9599
19.8612
19.9598
20.379
20.3681
19.9584
19.8672
19.9585
20.3675
20.3602
19.9555
19.8691
19.9556
20.3595
20.3538
19.9518
19.8685
19.952
20.3531
20.3482
19.9475
19.8662
19.9477
20.3473
20.3428
19.9427
19.8627
19.9428
20.3419
20.3373
19.9373
19.8582
19.9373
20.337
20.3317
19.9313
19.8529
19.9311
20.332
20.326
19.925
19.8472
19.9248
20.3263
20.3205
19.9183
19.841
19.9181
20.3204
20.3149
19.9113
19.8346
19.9113
20.3141
20.3087
19.9044
19.8285
19.9048
20.3076
20.302
19.8978
19.8226
19.8982
20.3013
20.2954
19.8915
19.817
19.8921
20.2948
20.2895
19.8855
19.8119
19.8863
20.2888
20.2839
19.8803
19.8073
19.881
20.2836
20.2789
19.876
19.8037
19.8765
20.2793
20.2752
19.8727
19.8011
19.8731
20.2757
20.2729
19.8707
19.7998
19.871
20.2731
20.2719
19.8702
19.8
19.8702
20.2722
20.2727
19.8713
19.8018
19.8711
20.2729
20.2754
19.8743
19.8057
19.8741
20.2754
20.28
19.8797
19.8118
19.8794
20.28
20.2866
19.8871
19.8179
19.887
20.2864
20.2956
19.8945
19.8264
19.8946
20.2946
20.3071
19.9041
19.8367
19.9044
20.3056
20.3203
19.9158
19.8483
19.916
20.3188
20.3351
19.929
19.8609
19.9292
20.3338
20.3513
19.9432
19.8741
19.9432
20.3504
20.3686
19.9579
19.8872
19.9578
20.368
20.3864
19.9727
19.8998
19.9726
20.386
20.404
19.9876
19.9111
19.9875
20.4037
20.4226
20.0005
19.92
20.0004
20.4224
20.4503
20.002
19.9229
20.002
20.4501
20.4136
19.9319
19.8548
19.9319
20.4136
20.5828
19.8566
19.7044
19.8566
20.5827
20.4398
19.9609
19.8051
19.9608
20.4398
20.3653
19.9921
19.8594
19.9921
20.3652
20.3341
20.0019
19.8861
20.0018
20.3339
20.3164
20.0045
19.899
20.0044
20.3162
20.305
20.0037
19.9044
20.0036
20.3047
20.297
20.0012
19.9055
20.0011
20.2966
20.2907
19.9977
19.9041
19.9976
20.2902
20.2851
19.9936
19.9013
19.9935
20.2846
20.2799
19.9889
19.8973
19.9888
20.2794
20.2747
19.9837
19.8926
19.9836
20.2744
20.2693
19.9781
19.8873
19.9781
20.2692
20.2639
19.9723
19.8816
19.9722
20.2638
20.2585
19.9662
19.8757
19.966
20.2582
20.2529
19.96
19.8696
19.9599
20.2525
20.2473
19.9539
19.8637
19.9538
20.2468
20.2417
19.9478
19.8579
19.9478
20.2412
20.2363
19.9421
19.8525
19.9422
20.2359
20.2314
19.9369
19.8475
19.937
20.231
20.227
19.9322
19.8431
19.9324
20.2268
20.2235
19.9284
19.8395
19.9286
20.2234
20.221
19.9256
19.8369
19.9258
20.221
20.2198
19.9239
19.8354
19.924
20.2197
20.2199
19.9235
19.8351
19.9235
20.2198
20.2216
19.9245
19.8362
19.9244
20.2215
20.2251
19.9269
19.8387
19.9268
20.2249
20.2303
19.931
19.8427
19.9309
20.2301
20.2375
19.9367
19.848
19.9366
20.2372
20.2468
19.9438
19.8546
19.9436
20.2462
20.258
19.9521
19.8623
19.952
20.2573
20.271
19.9616
19.8707
19.9614
20.2702
20.2855
19.9718
19.8794
19.9716
20.2848
20.3014
19.9823
19.8879
19.9822
20.3008
20.3186
19.9928
19.8956
19.9927
20.3181
20.3366
20.0029
19.9019
20.0027
20.3362
20.3549
20.0125
19.9062
20.0124
20.3546
20.3756
20.0197
19.9066
20.0196
20.3754
20.4082
20.0147
19.8982
20.0146
20.4081
20.393
19.9475
19.8678
19.9475
20.393
20.5502
19.8764
19.7244
19.8763
20.5502
20.3959
19.9849
19.8387
19.9849
20.3959
20.3171
20.0187
19.8987
20.0186
20.317
20.2843
20.0297
19.9279
20.0296
20.2842
20.2661
20.0331
19.942
20.0329
20.2659
20.2545
20.0328
19.9479
20.0327
20.2542
20.2464
20.0308
19.9493
20.0307
20.2461
20.2401
20.0278
19.9482
20.0276
20.2398
20.2346
20.0241
19.9455
20.0239
20.2343
20.2296
20.0198
19.9418
20.0197
20.2293
20.2247
20.0151
19.9375
20.015
20.2245
20.2198
20.0101
19.9326
20.01
20.2196
20.2148
20.0049
19.9274
20.0048
20.2146
20.2098
19.9995
19.922
19.9994
20.2095
20.2048
19.9941
19.9165
19.9939
20.2045
20.1999
19.9887
19.9111
19.9885
20.1995
20.1951
19.9834
19.9057
19.9832
20.1947
20.1905
19.9783
19.9007
19.9782
20.1901
20.1864
19.9736
19.896
19.9736
20.186
20.1828
19.9695
19.8918
19.9695
20.1825
20.18
19.966
19.8882
19.966
20.1798
20.1781
19.9634
19.8855
19.9634
20.1779
20.1772
19.9616
19.8835
19.9616
20.177
20.1775
19.9609
19.8825
19.9608
20.1773
20.1792
19.9612
19.8825
19.9611
20.179
20.1822
19.9626
19.8835
19.9625
20.182
20.1869
19.9653
19.8855
19.9651
20.1866
20.1931
19.969
19.8884
19.9689
20.1928
20.2011
19.9738
19.8921
19.9736
20.2007
20.2106
19.9795
19.8963
19.9793
20.2102
20.2218
19.9857
19.9007
19.9855
20.2213
20.2345
19.9923
19.9048
19.9921
20.2341
20.2488
19.9988
19.9082
19.9986
20.2484
20.2646
20.0049
19.9101
20.0048
20.2642
20.2817
20.0104
19.9101
20.0103
20.2814
20.2999
20.0153
19.9075
20.0152
20.2997
20.3218
20.0179
19.9006
20.0178
20.3216
20.3579
20.008
19.8839
20.0079
20.3577
20.379
19.9565
19.8798
19.9565
20.379
20.5281
19.8878
19.7423
19.8877
20.5281
20.3664
19.9998
19.8648
19.9997
20.3664
20.2844
20.0352
19.9289
20.0351
20.2843
20.2505
20.0472
19.9602
20.0472
20.2504
20.2319
20.0512
19.9755
20.0511
20.2317
20.2201
20.0516
19.9823
20.0514
20.2199
20.2121
20.05
19.9843
20.0499
20.2119
20.2059
20.0475
19.9837
20.0474
20.2057
20.2007
20.0443
19.9816
20.0442
20.2004
20.196
20.0407
19.9785
20.0405
20.1957
20.1915
20.0366
19.9747
20.0365
20.1912
20.187
20.0323
19.9706
20.0322
20.1868
20.1826
20.0279
19.9661
20.0277
20.1824
20.1782
20.0233
19.9615
20.0231
20.1779
20.1738
20.0186
19.9567
20.0184
20.1735
20.1695
20.0139
19.952
20.0137
20.1691
20.1653
20.0094
19.9473
20.0092
20.1649
20.1614
20.005
19.9427
20.0048
20.161
20.1577
20.0008
19.9384
20.0007
20.1574
20.1546
19.997
19.9345
19.9969
20.1543
20.1519
19.9937
19.9309
19.9936
20.1517
20.15
19.9909
19.9278
19.9908
20.1498
20.1488
19.9887
19.9253
19.9886
20.1486
20.1485
19.9871
19.9233
19.987
20.1483
20.1492
19.9862
19.9218
19.9861
20.149
20.1509
19.9861
19.921
19.9859
20.1507
20.1538
19.9867
19.9206
19.9865
20.1536
20.158
19.9879
19.9207
19.9877
20.1577
20.1634
19.9897
19.921
19.9895
20.1631
20.1703
19.9919
19.9213
19.9917
20.1699
20.1785
19.9944
19.9213
19.9942
20.1782
20.1883
19.9968
19.9206
19.9967
20.188
20.1998
19.999
19.9187
19.9989
20.1995
20.2131
20.0007
19.9151
20.0005
20.2128
20.2282
20.0017
19.9093
20.0016
20.228
20.2453
20.0023
19.9007
20.0022
20.2451
20.2673
20.0009
19.8875
20.0008
20.2672
20.3053
19.9871
19.8646
19.987
20.3051
20.37
19.9614
19.8882
19.9614
20.37
20.5141
19.8941
19.7546
19.8941
20.5141
20.3477
20.0085
19.8822
20.0085
20.3477
20.2638
20.045
19.9491
20.045
20.2637
20.2291
20.0578
19.982
20.0577
20.229
20.2104
20.0623
19.9983
20.0622
20.2102
20.1987
20.0632
20.0057
20.0631
20.1985
20.1908
20.0622
20.0084
20.0621
20.1907
20.1849
20.0602
20.0084
20.0601
20.1847
20.1801
20.0576
20.007
20.0575
20.1799
20.1758
20.0546
20.0046
20.0545
20.1756
20.1719
20.0513
20.0016
20.0512
20.1716
20.168
20.0478
19.9982
20.0476
20.1678
20.1642
20.0441
19.9947
20.044
20.164
20.1605
20.0404
19.9909
20.0402
20.1602
20.1568
20.0366
19.987
20.0364
20.1565
20.1532
20.0327
19.9831
20.0326
20.1529
20.1496
20.0289
19.9791
20.0287
20.1493
20.1463
20.0251
19.9752
20.025
20.1459
20.143
20.0215
19.9713
20.0213
20.1427
20.1401
20.0179
19.9676
20.0178
20.1398
20.1374
20.0146
19.964
20.0145
20.1372
20.1352
20.0115
19.9605
20.0114
20.1349
20.1334
20.0087
19.9573
20.0085
20.1331
20.132
20.006
19.9541
20.0059
20.1317
20.1312
20.0037
19.9511
20.0035
20.1309
20.131
20.0015
19.9481
20.0014
20.1307
20.1315
19.9996
19.9452
19.9994
20.1312
20.1328
19.9978
19.9421
19.9977
20.1325
20.135
19.9962
19.9387
19.996
20.1348
20.1383
19.9945
19.9349
19.9943
20.138
20.1427
19.9927
19.9303
19.9925
20.1425
20.1486
19.9906
19.9246
19.9905
20.1484
20.1563
19.9881
19.9175
19.988
20.156
20.166
19.985
19.9084
19.9849
20.1658
20.1782
19.9814
19.8969
19.9813
20.178
20.1931
19.9777
19.8828
19.9776
20.193
20.214
19.9724
19.8643
19.9723
20.2139
20.2523
19.9553
19.8364
19.9552
20.2522
20.3649
19.9636
19.8927
19.9636
20.3649
20.5063
19.8973
19.7614
19.8972
20.5063
20.3375
20.0131
19.8919
20.0131
20.3375
20.2526
20.0503
19.9605
20.0502
20.2526
20.2177
20.0635
19.9943
20.0634
20.2176
20.1989
20.0685
20.0113
20.0684
20.1988
20.1875
20.0698
20.0194
20.0697
20.1873
20.1799
20.0693
20.0226
20.0692
20.1798
20.1744
20.0679
20.0233
20.0678
20.1743
20.1701
20.0659
20.0225
20.0658
20.1699
20.1664
20.0636
20.0209
20.0635
20.1662
20.1631
20.0611
20.0187
20.061
20.1629
20.16
20.0584
20.0162
20.0583
20.1598
20.157
20.0557
20.0135
20.0555
20.1567
20.154
20.0528
20.0107
20.0527
20.1538
20.1511
20.0499
20.0078
20.0498
20.1509
20.1483
20.047
20.0047
20.0468
20.148
20.1455
20.0439
20.0016
20.0438
20.1452
20.1427
20.0409
19.9983
20.0407
20.1424
20.1399
20.0377
19.995
20.0375
20.1396
20.1372
20.0344
19.9915
20.0343
20.1369
20.1345
20.0311
19.9879
20.031
20.1342
20.1318
20.0277
19.9841
20.0275
20.1316
20.1292
20.0241
19.9801
20.024
20.129
20.1267
20.0203
19.9758
20.0202
20.1264
20.1241
20.0163
19.9711
20.0162
20.1239
20.1217
20.012
19.966
20.0118
20.1215
20.1195
20.0073
19.9602
20.0072
20.1193
20.1175
20.0023
19.9538
20.0022
20.1173
20.1159
19.9968
19.9466
19.9967
20.1157
20.1149
19.9908
19.9384
19.9907
20.1147
20.1147
19.9843
19.9289
19.9842
20.1145
20.1158
19.9771
19.9179
19.977
20.1156
20.1186
19.9694
19.9052
19.9693
20.1184
20.1237
19.961
19.8904
19.9609
20.1236
20.1317
19.9523
19.8733
19.9522
20.1316
20.1431
19.9438
19.8537
19.9437
20.143
20.1614
19.9343
19.8301
19.9342
20.1613
20.1984
19.9138
19.7977
19.9138
20.1983
20.3628
19.9639
19.8937
19.9639
20.3628
20.5036
19.898
19.7634
19.898
20.5035
20.3343
20.0144
19.895
20.0144
20.3343
20.2492
20.052
19.9642
20.0519
20.2491
20.2143
20.0655
19.9985
20.0655
20.2143
20.1958
20.0709
20.016
20.0708
20.1957
20.1847
20.0726
20.0245
20.0725
20.1846
20.1775
20.0725
20.0282
20.0725
20.1774
20.1725
20.0717
20.0294
20.0716
20.1724
20.1687
20.0704
20.0293
20.0703
20.1686
20.1657
20.0688
20.0284
20.0687
20.1656
20.1632
20.067
20.027
20.0669
20.163
20.1609
20.0652
20.0254
20.0651
20.1607
20.1588
20.0634
20.0237
20.0633
20.1586
20.1567
20.0615
20.0218
20.0614
20.1566
20.1548
20.0596
20.0198
20.0594
20.1546
20.1529
20.0575
20.0177
20.0574
20.1526
20.1509
20.0554
20.0154
20.0552
20.1507
20.1488
20.0531
20.013
20.0529
20.1486
20.1466
20.0505
20.0102
20.0503
20.1464
20.1443
20.0477
20.0072
20.0475
20.144
20.1416
20.0445
20.0037
20.0443
20.1414
20.1387
20.0408
19.9997
20.0407
20.1384
20.1354
20.0367
19.9952
20.0365
20.1351
20.1317
20.0318
19.9898
20.0316
20.1314
20.1275
20.0262
19.9835
20.026
20.1272
20.1228
20.0197
19.9762
20.0195
20.1226
20.1177
20.0122
19.9677
20.0121
20.1175
20.1122
20.0038
19.958
20.0037
20.112
20.1064
19.9943
19.9467
19.9942
20.1062
20.1005
19.9837
19.9339
19.9836
20.1003
20.095
19.9719
19.9192
19.9718
20.0948
20.0903
19.9591
19.9025
19.959
20.0901
20.087
19.9453
19.8837
19.9452
20.0869
20.0861
19.9308
19.8627
19.9307
20.086
20.0883
19.9161
19.8394
19.916
20.0882
20.0945
19.9019
19.8138
19.9018
20.0944
20.1084
19.8873
19.7849
19.8873
20.1083
20.1422
19.8631
19.748
19.863
20.1421
20.3637
19.9624
19.8915
19.9624
20.3637
20.5056
19.8966
19.7609
19.8966
20.5056
20.3375
20.0129
19.8918
20.0129
20.3374
20.2529
20.0505
19.9607
20.0505
20.2529
20.2185
20.0642
19.9951
20.0642
20.2184
20.2003
20.0698
20.0127
20.0698
20.2002
20.1895
20.0718
20.0214
20.0718
20.1894
20.1828
20.0722
20.0255
20.0721
20.1827
20.1784
20.0718
20.0272
20.0718
20.1783
20.1752
20.0711
20.0277
20.071
20.1751
20.173
20.0702
20.0275
20.0701
20.1728
20.1713
20.0692
20.0268
20.0691
20.1711
20.1699
20.0683
20.0261
20.0682
20.1697
20.1687
20.0674
20.0253
20.0673
20.1685
20.1677
20.0665
20.0244
20.0664
20.1675
20.1668
20.0655
20.0234
20.0654
20.1666
20.166
20.0645
20.0222
20.0644
20.1658
20.1651
20.0633
20.0208
20.0632
20.1648
20.1639
20.0619
20.0193
20.0618
20.1636
20.1624
20.0602
20.0174
20.06
20.1622
20.1606
20.0579
20.015
20.0577
20.1604
20.1584
20.0551
20.0119
20.0549
20.1581
20.1555
20.0515
20.008
20.0513
20.1552
20.1518
20.047
20.0031
20.0469
20.1515
20.1472
20.0414
19.997
20.0413
20.147
20.1417
20.0345
19.9895
20.0344
20.1414
20.135
20.0261
19.9804
20.026
20.1348
20.1272
20.0161
19.9693
20.016
20.127
20.1181
20.0043
19.9563
20.0042
20.1179
20.1078
19.9907
19.9411
19.9906
20.1077
20.0967
19.9752
19.9234
19.9751
20.0965
20.085
19.9577
19.9032
19.9576
20.0849
20.0734
19.9384
19.8802
19.9384
20.0733
20.0626
19.9176
19.8546
19.9175
20.0625
20.0538
19.8957
19.8263
19.8957
20.0537
20.0481
19.8735
19.7957
19.8734
20.048
20.0467
19.8522
19.7632
19.8521
20.0466
20.0538
19.8313
19.7279
19.8313
20.0538
20.0824
19.8021
19.686
19.8021
20.0824
20.3678
19.9592
19.886
19.9592
20.3678
20.5127
19.893
19.7535
19.893
20.5127
20.3476
20.0083
19.882
20.0083
20.3476
20.2644
20.0455
19.9496
20.0455
20.2644
20.2306
20.0591
19.9834
20.0591
20.2306
20.2129
20.0648
20.0008
20.0648
20.2129
20.2026
20.067
20.0096
20.0669
20.2025
20.1963
20.0676
20.0139
20.0676
20.1963
20.1924
20.0677
20.016
20.0676
20.1923
20.19
20.0675
20.0169
20.0674
20.1899
20.1885
20.0672
20.0172
20.0671
20.1883
20.1876
20.067
20.0173
20.0669
20.1875
20.1872
20.0669
20.0174
20.0668
20.1871
20.187
20.0669
20.0175
20.0668
20.1869
20.1872
20.067
20.0175
20.0669
20.187
20.1874
20.0671
20.0176
20.067
20.1873
20.1877
20.0672
20.0175
20.067
20.1875
20.188
20.0671
20.0172
20.0669
20.1878
20.188
20.0667
20.0166
20.0665
20.1878
20.1877
20.066
20.0158
20.0658
20.1874
20.1868
20.0646
20.0143
20.0644
20.1865
20.1852
20.0626
20.0119
20.0624
20.1849
20.1828
20.0595
20.0085
20.0593
20.1825
20.1793
20.0551
20.0038
20.055
20.179
20.1745
20.0494
19.9976
20.0492
20.1743
20.1681
20.0418
19.9894
20.0416
20.1679
20.16
20.0321
19.979
20.0319
20.1598
20.1499
20.02
19.9661
20.0199
20.1497
20.1376
20.0053
19.9502
20.0052
20.1374
20.1231
19.9877
19.9312
19.9876
20.1229
20.1065
19.9671
19.9087
19.967
20.1063
20.0879
19.9435
19.8826
19.9434
20.0878
20.0681
19.917
19.8527
19.9169
20.068
20.048
19.8878
19.8191
19.8878
20.0479
20.0288
19.8568
19.7821
19.8567
20.0287
20.0121
19.8249
19.7424
19.8248
20.012
19.9997
19.7939
19.7008
19.7939
19.9997
19.9966
19.7643
19.6574
19.7643
19.9966
20.0168
19.7283
19.6091
19.7283
20.0168
20.3759
19.9536
19.8769
19.9536
20.3759
20.5263
19.8862
19.7409
19.8862
20.5263
20.3661
19.9994
19.8645
19.9994
20.3661
20.2852
20.0359
19.9296
20.0359
20.2852
20.2524
20.0491
19.9621
20.0491
20.2524
20.2352
20.0546
19.979
20.0545
20.2352
20.2253
20.0567
19.9875
20.0567
20.2253
20.2196
20.0575
19.9919
20.0575
20.2195
20.2162
20.0579
19.9942
20.0578
20.2161
20.2144
20.0581
19.9954
20.058
20.2142
20.2136
20.0583
19.9963
20.0582
20.2135
20.2136
20.0587
19.997
20.0586
20.2135
20.2141
20.0594
19.9978
20.0593
20.214
20.215
20.0603
19.9987
20.0602
20.2149
20.2163
20.0614
19.9997
20.0613
20.2162
20.2178
20.0625
20.0008
20.0625
20.2176
20.2193
20.0638
20.0019
20.0637
20.2192
20.2209
20.0649
20.0029
20.0648
20.2207
20.2224
20.0658
20.0035
20.0656
20.2221
20.2234
20.0663
20.0038
20.0661
20.2231
20.2239
20.0662
20.0036
20.066
20.2235
20.2236
20.0653
20.0025
20.0651
20.2232
20.2223
20.0633
20.0002
20.0631
20.2219
20.2197
20.0599
19.9964
20.0597
20.2194
20.2155
20.0546
19.9908
20.0544
20.2152
20.2092
20.0472
19.9829
20.0471
20.2089
20.2005
20.0372
19.9722
20.037
20.2003
20.1891
20.024
19.9583
20.0239
20.1888
20.1744
20.0072
19.9405
20.0071
20.1742
20.1562
19.9864
19.9184
19.9863
20.156
20.1343
19.9611
19.8915
19.961
20.1342
20.1087
19.9311
19.8593
19.931
20.1085
20.0796
19.8964
19.8218
19.8963
20.0794
20.0478
19.8573
19.7788
19.8572
20.0477
20.0148
19.8146
19.7309
19.8145
20.0147
19.9826
19.7697
19.679
19.7696
19.9825
19.9538
19.725
19.6248
19.725
19.9537
19.9346
19.6823
19.5694
19.6823
19.9346
19.9408
19.6356
19.5114
19.6356
19.9408
20.3894
19.9442
19.8646
19.9442
20.3894
20.5479
19.8746
19.723
19.8746
20.5479
20.3955
19.9845
19.8384
19.9845
20.3955
20.3177
20.0193
19.8994
20.0193
20.3177
20.2862
20.0317
19.93
20.0317
20.2862
20.2696
20.0368
19.9459
20.0368
20.2696
20.2601
20.0388
19.954
20.0387
20.2601
20.2547
20.0395
19.9582
20.0395
20.2547
20.2518
20.04
19.9606
20.0399
20.2517
20.2506
20.0404
19.9622
20.0403
20.2504
20.2505
20.041
19.9634
20.0409
20.2503
20.2512
20.042
19.9647
20.0419
20.251
20.2526
20.0433
19.9663
20.0432
20.2524
20.2544
20.045
19.9679
20.0449
20.2543
20.2568
20.047
19.9699
20.0469
20.2567
20.2594
20.0492
19.9721
20.0491
20.2593
20.2624
20.0516
19.9744
20.0514
20.2622
20.2654
20.054
19.9767
20.0538
20.2651
20.2684
20.0563
19.9789
20.0561
20.2679
20.2711
20.0583
19.9807
20.058
20.2705
20.2733
20.0598
19.9821
20.0595
20.2727
20.2749
20.0606
19.9827
20.0603
20.2742
20.2754
20.0603
19.9822
20.06
20.2749
20.2746
20.0586
19.9802
20.0583
20.2741
20.272
20.0549
19.9763
20.0547
20.2716
20.2671
20.0489
19.9699
20.0487
20.2668
20.2594
20.0399
19.9604
20.0397
20.2591
20.2481
20.0271
19.947
20.0269
20.2479
20.2327
20.0098
19.9289
20.0096
20.2324
20.2123
19.9871
19.9051
19.987
20.2121
20.1863
19.9582
19.8749
19.9581
20.186
20.1538
19.9225
19.8373
19.9223
20.1537
20.1148
19.8793
19.7918
19.8792
20.1147
20.0694
19.8285
19.738
19.8285
20.0692
20.0185
19.7708
19.6761
19.7708
20.0184
19.9643
19.7078
19.6073
19.7078
19.9642
19.9101
19.6427
19.5339
19.6426
19.9101
19.8641
19.5785
19.4587
19.5784
19.864
19.8451
19.5126
19.3832
19.5126
19.8451
20.4098
19.9288
19.8519
19.9288
20.4098
20.5802
19.8549
19.7031
19.8549
20.5802
20.4391
19.9603
19.8047
19.9603
20.4391
20.3656
19.9926
19.86
19.9926
20.3656
20.3355
20.0037
19.8881
20.0037
20.3355
20.3194
20.008
19.9028
20.008
20.3194
20.3101
20.0095
19.9105
20.0095
20.3101
20.3048
20.01
19.9147
20.01
20.3048
20.3021
20.0104
19.9173
20.0104
20.302
20.3012
20.011
19.9191
20.0109
20.301
20.3016
20.0118
19.9208
20.0117
20.3013
20.3029
20.0131
19.9225
20.013
20.3026
20.3048
20.0149
19.9246
20.0148
20.3046
20.3073
20.0172
19.9274
20.0171
20.3072
20.3105
20.02
19.9304
20.0199
20.3104
20.3142
20.0231
19.9338
20.023
20.3141
20.3183
20.0266
19.9374
20.0265
20.3181
20.3227
20.0303
19.9413
20.0301
20.3223
20.3272
20.0341
19.9455
20.0339
20.3266
20.3317
20.0378
19.9493
20.0375
20.3309
20.336
20.0412
19.9527
20.0409
20.335
20.3397
20.044
19.9553
20.0437
20.3388
20.3427
20.046
19.9572
20.0458
20.3419
20.3446
20.0469
19.958
20.0466
20.344
20.3448
20.046
19.9571
20.0458
20.3444
20.3428
20.0429
19.9538
20.0427
20.3425
20.3379
20.0366
19.9473
20.0364
20.3376
20.3292
20.0263
19.9367
20.0262
20.3288
20.3155
20.0108
19.9206
20.0107
20.3152
20.2957
19.9887
19.8977
19.9886
20.2954
20.2682
19.9586
19.8664
19.9585
20.2679
20.2313
19.9188
19.825
19.9187
20.2311
20.1833
19.8678
19.772
19.8677
20.1831
20.1229
19.8044
19.7061
19.8043
20.1228
20.0496
19.7278
19.6261
19.7277
20.0495
19.9641
19.6388
19.5324
19.6387
19.9641
19.8696
19.5406
19.4274
19.5405
19.8696
19.7754
19.4378
19.3153
19.4377
19.7754
19.7048
19.3318
19.2013
19.3317
19.7048
20.4394
19.9033
19.8459
19.9033
20.4394
20.6226
19.8211
19.6952
19.8211
20.6226
20.4953
19.921
19.7764
19.921
20.4953
20.426
19.9502
19.8235
19.9502
20.426
20.3968
19.9594
19.8494
19.9594
20.3969
20.3808
19.9625
19.8641
19.9625
20.3808
20.3712
19.9633
19.8724
19.9633
20.3713
20.3656
19.9634
19.8774
19.9633
20.3658
20.3627
19.9636
19.8808
19.9635
20.3627
20.3619
19.964
19.8834
19.964
20.3614
20.3624
19.9648
19.8857
19.965
20.3617
20.364
19.9663
19.8883
19.9663
20.3633
20.366
19.9685
19.8914
19.9684
20.3657
20.3685
19.9715
19.8951
19.9713
20.3686
20.3722
19.9748
19.8991
19.9746
20.3725
20.3768
19.9786
19.9036
19.9785
20.3768
20.3819
19.9831
19.9085
19.9828
20.3818
20.3876
19.9878
19.9137
19.9875
20.3873
20.3937
19.9928
19.9192
19.9927
20.3927
20.4001
19.9983
19.9253
19.9983
20.3985
20.4065
20.0037
19.9314
20.0038
20.4045
20.4129
20.0092
19.9377
20.0093
20.4109
20.4189
20.0142
19.9432
20.0142
20.4174
20.4242
20.0184
19.9478
20.0183
20.4233
20.4285
20.0215
19.9513
20.0214
20.428
20.4311
20.0229
19.9529
20.0227
20.4307
20.4312
20.0215
19.9518
20.0214
20.4308
20.428
20.0165
19.9468
20.0164
20.4275
20.4199
20.0061
19.9362
20.006
20.4194
20.405
19.9885
19.918
19.9885
20.4044
20.3823
19.9616
19.89
19.9616
20.3818
20.3482
19.9225
19.8492
19.9224
20.348
20.2979
19.8678
19.7923
19.8676
20.2978
20.2274
19.7943
19.7158
19.7941
20.2273
20.1322
19.6986
19.6164
19.6985
20.1321
20.0081
19.5776
19.4907
19.5776
20.0081
19.8528
19.4301
19.3362
19.4301
19.8527
19.6716
19.2585
19.1549
19.2585
19.6716
19.4879
19.0651
18.9534
19.0651
19.4879
20.4576
19.8705
19.8687
19.8705
20.4576
20.6273
19.7824
19.7367
19.7824
20.6273
20.5059
19.8714
19.8074
19.8714
20.5059
20.4357
19.8972
19.8486
19.8972
20.4358
20.4046
19.9055
19.8741
19.9055
20.4047
20.3868
19.9084
19.8899
19.9084
20.3868
20.3758
19.9092
19.8993
19.9092
20.3759
20.3686
19.9098
19.9054
19.9093
20.3695
20.365
19.9102
19.9099
19.9102
20.365
20.3643
19.9103
19.913
19.9111
20.363
20.3646
19.9111
19.9158
19.9123
20.3627
20.366
19.9125
19.9185
19.9135
20.3643
20.3672
19.9155
19.9219
19.9156
20.3667
20.3687
19.9195
19.9262
19.9189
20.3693
20.3726
19.9232
19.9303
19.9219
20.3742
20.3784
19.9268
19.9349
19.9264
20.3787
20.3843
19.9316
19.9402
19.9311
20.3846
20.3916
19.9368
19.9459
19.9359
20.392
20.3999
19.9424
19.9526
19.9429
20.3982
20.4085
19.9491
19.9601
19.9506
20.4048
20.418
19.9561
19.968
19.9585
20.413
20.4275
19.9639
19.9763
19.9663
20.4227
20.4374
19.9721
19.9847
19.9735
20.4342
20.4476
19.9803
19.9932
19.9807
20.4461
20.4578
19.9884
20.0018
19.9885
20.457
20.4669
19.9963
20.0098
19.9959
20.4669
20.4754
20.0025
20.0164
20.0025
20.4749
20.4823
20.006
20.0202
20.0066
20.481
20.4863
20.0052
20.019
20.0055
20.4854
20.487
19.9966
20.0103
19.9973
20.4856
20.479
19.9782
19.9909
19.9789
20.4776
20.458
19.9451
19.9557
19.945
20.4578
20.4187
19.8902
19.8986
19.8898
20.4188
20.35
19.8065
19.8118
19.8063
20.35
20.2379
19.6833
19.6841
19.6832
20.2379
20.0682
19.5083
19.5016
19.5082
20.0681
19.8234
19.2681
19.2508
19.2681
19.8233
19.4866
18.9557
18.9235
18.9556
19.4866
19.0382
18.5478
18.5018
18.5477
19.0382
20.3313
19.9326
20.0022
19.9326
20.3313
20.3909
19.8936
19.9567
19.8936
20.3909
20.2634
19.9761
20.0276
19.9761
20.2634
20.1849
20.0052
20.0739
20.0052
20.185
20.1442
20.018
20.106
20.018
20.1443
20.1192
20.0248
20.1274
20.0249
20.1193
20.1032
20.0289
20.1405
20.0289
20.1032
20.093
20.0312
20.149
20.0314
20.0932
20.0867
20.0328
20.1545
20.0329
20.087
20.083
20.0343
20.1585
20.0342
20.0831
20.0808
20.0355
20.1614
20.0355
20.0813
20.0802
20.0374
20.1642
20.0373
20.0805
20.081
20.0398
20.1671
20.0398
20.0809
20.0825
20.0426
20.1703
20.0428
20.0826
20.0854
20.0467
20.1745
20.0467
20.085
20.089
20.0515
20.1794
20.0511
20.0882
20.0932
20.0568
20.1851
20.0567
20.0927
20.0987
20.0633
20.192
20.0636
20.0986
20.1051
20.0709
20.1996
20.0709
20.1051
20.1129
20.0795
20.2082
20.0793
20.1128
20.1217
20.0892
20.218
20.0891
20.1219
20.1315
20.0999
20.2289
20.1
20.1322
20.1428
20.1118
20.241
20.112
20.1434
20.1554
20.1249
20.2542
20.125
20.1554
20.1694
20.1391
20.2681
20.1391
20.1691
20.1845
20.154
20.2824
20.154
20.1842
20.2001
20.1692
20.2972
20.1694
20.2002
20.2167
20.185
20.3122
20.185
20.2166
20.2333
20.2002
20.3263
20.2003
20.2332
20.2486
20.2131
20.3392
20.2131
20.2487
20.2609
20.2221
20.348
20.2221
20.2612
20.2674
20.2235
20.3477
20.2234
20.2677
20.2649
20.2113
20.3325
20.211
20.2641
20.2435
20.1772
20.294
20.1771
20.2434
20.179
20.1079
20.2178
20.1078
20.179
20.0729
19.9862
20.0851
19.9861
20.0729
19.9096
19.8031
19.8832
19.803
19.9096
19.5856
19.4773
19.5364
19.4773
19.5856
18.5829
18.45
18.5007
18.45
18.5829
19.9277
20.1737
20.1284
20.1737
19.9277
19.9075
20.2135
20.1674
20.2135
19.9075
19.8608
20.2752
20.2298
20.2752
19.8608
19.7965
20.3117
20.2817
20.3117
19.7965
19.7527
20.3311
20.3192
20.3311
19.7528
19.7256
20.3417
20.3446
20.3417
19.7259
19.7074
20.3478
20.3611
20.3475
19.7086
19.6972
20.3501
20.3711
20.3508
19.6962
19.6889
20.3514
20.3769
20.3516
19.6912
19.6817
20.3527
20.3804
20.3513
19.6901
19.6822
20.3517
20.3819
20.3508
19.6893
19.6826
20.3516
20.3829
20.3507
19.6883
19.6857
20.3514
20.3837
20.3514
19.6861
19.6921
20.3506
20.3843
20.3521
19.6855
19.6934
20.3529
20.386
20.3539
19.6868
19.6964
20.3555
20.3877
20.3546
19.6943
19.7044
20.3573
20.3902
20.3576
19.6997
19.7108
20.3615
20.3944
20.3633
19.7031
19.7172
20.367
20.399
20.3673
19.7153
19.7245
20.3736
20.4046
20.3725
19.7296
19.7347
20.3817
20.4121
20.3804
19.7416
19.7492
20.3906
20.4213
20.3906
19.7519
19.764
20.402
20.4324
20.4025
19.7645
19.7802
20.4156
20.4455
20.4158
19.7806
19.7975
20.4316
20.4605
20.4312
19.7987
19.8195
20.4488
20.4776
20.4493
19.8186
19.8448
20.4684
20.497
20.469
19.8436
19.8705
20.4916
20.519
20.4909
19.8727
19.8985
20.5181
20.5443
20.5179
19.9005
19.9286
20.5484
20.5723
20.5481
19.9305
19.9638
20.5789
20.6009
20.5788
19.9654
20.001
20.609
20.6287
20.6087
20.001
20.033
20.6356
20.6519
20.635
20.0336
20.0556
20.6501
20.6619
20.6502
20.0561
20.0566
20.6386
20.6421
20.6386
20.0568
20.0024
20.5688
20.5586
20.5687
20.0024
19.8264
20.3638
20.3314
20.3637
19.8264
19.4359
19.8949
19.8205
19.8949
19.4359
18.3358
18.6198
18.5339
18.6198
18.3358
19.8719
20.2749
20.2683
20.2749
19.8719
20.2219
20.1185
20.2198
20.1185
20.2219
20.5209
19.9766
20.013