/*--------------------------------*- C++ -*----------------------------------*\
  =========                 |
  \\      /  F ield         | OpenFOAM: The Open Source CFD Toolbox
   \\    /   O peration     | Website:  https://openfoam.org
    \\  /    A nd           | Version:  9
     \\/     M anipulation  |
\*---------------------------------------------------------------------------*/
FoamFile
{
    format      ascii;
    class       surfaceScalarField;
    location    "4";
    object      phi;
}
// * * * * * * * * * * * * * * * * * * * * * * * * * * * * * * * * * * * * * //

dimensions      [0 3 -1 0 0 0 0];

internalField   nonuniform List<scalar> 
12376
(
-9.09984e-05
0.00129547
0.00036396
1.65383e-05
0.000588184
-0.000259796
-1.65361e-05
0.000574464
-2.48183e-05
9.1e-05
0.000588191
-0.000259795
0.00129548
0.000363962
-0.000107356
0.00113648
0.000266344
1.60587e-05
0.000681564
-0.000216793
-1.6053e-05
0.000614594
-8.01705e-06
0.00010736
0.000681571
-0.000216792
0.00113649
0.000266346
-0.000144498
0.0010266
0.000254381
1.55724e-05
0.000745113
-0.000223619
-1.55655e-05
0.000667942
-2.22106e-05
0.000144505
0.000745118
-0.000223617
0.00102661
0.000254383
-0.000175052
0.000954572
0.000247081
9.97255e-06
0.000782084
-0.000221996
-9.9736e-06
0.000718158
-3.02684e-05
0.000175063
0.000782072
-0.00022199
0.000954595
0.000247083
-0.000191885
0.000910781
0.000235677
3.77643e-06
0.000803951
-0.000217528
-3.80256e-06
0.000757465
-3.17275e-05
0.000191886
0.000803893
-0.000217509
0.000910812
0.00023567
-0.000199722
0.000885073
0.000225431
-1.05465e-06
0.000818368
-0.000213084
1.01059e-06
0.000786591
-3.11916e-05
0.00019959
0.000818251
-0.000212937
0.000885098
0.000225304
-0.000202706
0.000871009
0.00021677
-4.36274e-06
0.000829021
-0.000208997
4.30445e-06
0.000808086
-3.01618e-05
0.000202187
0.000829034
-0.000208666
0.000870765
0.00021652
-0.000202124
0.000863888
0.000209245
-6.29242e-06
0.000838175
-0.000204986
6.49504e-06
0.000824647
-2.93492e-05
0.000201843
0.000838111
-0.000204425
0.000863993
0.000208614
-0.000199736
0.000861679
0.000201945
-7.63186e-06
0.000846795
-0.000200724
7.63622e-06
0.000838237
-2.8858e-05
0.000199489
0.000846685
-0.000200427
0.00086197
0.000201512
-0.000196778
0.000863347
0.000195109
-8.35567e-06
0.000855175
-0.000196803
8.40522e-06
0.000850064
-2.85886e-05
0.000196057
0.000855212
-0.000196179
0.000863627
0.0001944
-0.000192428
0.000867084
0.000188691
-8.56805e-06
0.000864177
-0.000192862
8.72656e-06
0.000861295
-2.8525e-05
0.000191636
0.000864377
-0.000192074
0.000867424
0.00018784
-0.000188054
0.000872921
0.000182218
-8.86834e-06
0.000873824
-0.000188832
8.65283e-06
0.000872402
-2.86288e-05
0.000187643
0.000874075
-0.000188687
0.000872981
0.000182086
-0.000184004
0.000880913
0.000176012
-9.01743e-06
0.000883961
-0.000185124
8.49571e-06
0.000883734
-2.88441e-05
0.000183961
0.000884274
-0.000185664
0.000880154
0.000176788
-0.000178891
0.000889181
0.000170623
-8.6738e-06
0.000895339
-0.000181594
8.58463e-06
0.000895501
-2.90252e-05
0.000179773
0.000895259
-0.000182173
0.000888725
0.000171202
-0.000175438
0.00089903
0.000165589
-8.47814e-06
0.000906918
-0.000178538
8.66567e-06
0.0009075
-2.91425e-05
0.000176358
0.000906309
-0.000178742
0.000899422
0.000165662
-0.000172141
0.000910148
0.000161023
-8.24548e-06
0.000918598
-0.000175575
8.33179e-06
0.000920046
-2.91231e-05
0.000171451
0.000918229
-0.000175039
0.000910333
0.000160539
-0.000167022
0.000920583
0.000156588
-7.81913e-06
0.000931184
-0.000171788
7.98661e-06
0.000933074
-2.88323e-05
0.000165868
0.000930947
-0.000170599
0.000920775
0.000155426
-0.000162894
0.000932113
0.000151364
-7.9213e-06
0.00094346
-0.000167248
7.42019e-06
0.000946068
-2.83352e-05
0.000161667
0.000943537
-0.000166835
0.000931314
0.00015113
-0.000157864
0.00094298
0.000146997
-7.55494e-06
0.000955691
-0.000162539
7.25428e-06
0.000958737
-2.74775e-05
0.000157467
0.00095561
-0.000162285
0.000942132
0.000146649
-0.000153134
0.000952329
0.000143786
-6.81177e-06
0.00096746
-0.00015809
7.15037e-06
0.000970955
-2.61794e-05
0.000152226
0.000967655
-0.000157119
0.000951614
0.000142745
-0.00014893
0.000960796
0.000140464
-6.5477e-06
0.000977988
-0.00015291
6.86261e-06
0.000981987
-2.4441e-05
0.000148527
0.000978449
-0.000152458
0.000960182
0.000139958
-0.00014488
0.000968357
0.00013732
-6.5763e-06
0.000986645
-0.000146959
6.57111e-06
0.000991045
-2.22055e-05
0.000145921
0.000986586
-0.000147485
0.000968575
0.000137528
-0.000140465
0.00097338
0.000135442
-6.23283e-06
0.000993313
-0.0001409
6.03573e-06
0.000998173
-1.93955e-05
0.000140728
0.000993377
-0.000141482
0.000973306
0.000135998
-0.000135664
0.000974315
0.000134729
-5.56007e-06
0.0009978
-0.000134591
5.91543e-06
0.00100277
-1.60735e-05
0.000135929
0.000997845
-0.000134481
0.00097473
0.000134505
-0.000132177
0.000972619
0.000133874
-5.45614e-06
0.000998523
-0.000127443
5.67861e-06
0.00100395
-1.23085e-05
0.000132861
0.000998369
-0.000127705
0.000973601
0.00013399
-0.000128865
0.000967398
0.000134085
-5.29225e-06
0.000995024
-0.000120073
5.24035e-06
0.00100151
-8.09322e-06
0.000129038
0.000994871
-0.000120299
0.00096828
0.000134359
-0.000124705
0.000956758
0.000135346
-4.89391e-06
0.000987292
-0.000112079
4.67263e-06
0.000995272
-3.33074e-06
0.000124448
0.000987126
-0.000112029
0.0009574
0.00013533
-0.000120535
0.000940447
0.000136847
-4.50488e-06
0.000974552
-0.000103289
3.86335e-06
0.000984356
2.54833e-06
0.000120241
0.000974531
-0.000103782
0.00094025
0.000137391
-0.000116555
0.00091828
0.000138722
-3.84967e-06
0.000956035
-9.41881e-05
3.5213e-06
0.000967038
9.94836e-06
0.000116525
0.000955933
-9.44037e-05
0.000917782
0.000138994
-0.000112166
0.000888579
0.000141868
-2.97256e-06
0.000931873
-8.50295e-05
3.1075e-06
0.000943651
1.73076e-05
0.000111853
0.000931639
-8.44506e-05
0.000888352
0.000141284
-0.000108859
0.000851397
0.000146042
-2.173e-06
0.00090122
-7.60322e-05
2.39108e-06
0.0009145
2.45883e-05
0.000108066
0.000901146
-7.51809e-05
0.000851475
0.000144944
-0.000105647
0.000807282
0.000149763
-1.64847e-06
0.000863449
-6.62271e-05
1.79462e-06
0.000878944
3.21135e-05
0.000104953
0.000863486
-6.54969e-05
0.00080752
0.000148908
-0.000101463
0.000754947
0.000153799
-1.05472e-06
0.000819119
-5.60779e-05
1.09863e-06
0.000836925
3.98669e-05
0.00010059
0.000819398
-5.54033e-05
0.00075501
0.0001531
-9.72711e-05
0.000694345
0.000157874
-4.21625e-07
0.000768155
-4.58842e-05
3.29028e-07
0.000788516
4.76595e-05
9.68525e-05
0.000768534
-4.56581e-05
0.000694278
0.000157585
-9.30231e-05
0.000625536
0.000161832
2.66989e-07
0.000710744
-3.58788e-05
-3.1738e-07
0.000733682
5.5419e-05
9.30589e-05
0.000710961
-3.58025e-05
0.000625636
0.000161702
-8.87125e-05
0.000548806
0.000165443
9.37986e-07
0.000647399
-2.63046e-05
-9.64483e-07
0.000672559
6.30265e-05
8.87343e-05
0.000647542
-2.62794e-05
0.000548936
0.000165435
-8.43281e-05
0.000464772
0.000168363
1.53566e-06
0.000578957
-1.74214e-05
-1.54665e-06
0.000605268
7.03738e-05
8.4348e-05
0.000579054
-1.74056e-05
0.000464902
0.000168383
-7.98731e-05
0.000374948
0.000169697
1.97608e-06
0.000506413
-9.30435e-06
-1.97723e-06
0.000531585
7.76364e-05
7.98853e-05
0.000506483
-9.29131e-06
0.000375063
0.000169725
-7.51717e-05
0.000167118
0.000283003
2.10341e-06
-2.54098e-07
0.000429393
-2.10019e-06
8.52402e-05
0.00045055
7.51788e-05
-2.40927e-07
0.000429446
0.000167145
0.000283097
0.000107158
0.00114381
0.000305383
-1.75301e-05
0.000720581
-0.000187218
1.75315e-05
0.000753418
-7.539e-05
-0.000107157
0.000720588
-0.000187217
0.00114383
0.000305386
0.000119042
0.00102422
0.0002669
-1.42592e-05
0.000811313
-0.000174224
1.4263e-05
0.000781705
-6.48251e-05
-0.000119039
0.000811321
-0.000174223
0.00102423
0.000266902
6.63845e-05
0.000960768
0.000251446
-1.13383e-05
0.000843393
-0.000177976
1.13433e-05
0.000810501
-7.36879e-05
-6.63798e-05
0.000843401
-0.000177973
0.000960785
0.00025145
4.0007e-05
0.000929153
0.000238689
-1.45389e-05
0.000856037
-0.000180093
1.45419e-05
0.000831871
-8.07197e-05
-4.00005e-05
0.000856042
-0.000180088
0.000929173
0.000238696
2.72319e-05
0.00091069
0.000226909
-1.79766e-05
0.000863445
-0.000179727
1.79713e-05
0.00084729
-8.30937e-05
-2.72254e-05
0.000863439
-0.00017971
0.0009107
0.000226917
1.97894e-05
0.000900197
0.000216134
-2.04858e-05
0.000869044
-0.000178408
2.0471e-05
0.000858746
-8.36037e-05
-1.97941e-05
0.000869033
-0.000178266
0.000900182
0.000216027
1.51916e-05
0.000895108
0.000206668
-2.22664e-05
0.000874248
-0.000176743
2.22396e-05
0.000867669
-8.35905e-05
-1.52278e-05
0.000874254
-0.00017642
0.000895112
0.000206362
1.23678e-05
0.000893764
0.000198221
-2.31124e-05
0.000879642
-0.000174899
2.31073e-05
0.00087547
-8.3371e-05
-1.24137e-05
0.000879631
-0.000174281
0.000893776
0.000197536
1.06242e-05
0.000895109
0.000189975
-2.3424e-05
0.000885503
-0.000172537
2.34118e-05
0.000882891
-8.31147e-05
-1.06539e-05
0.000885492
-0.000172224
0.000895097
0.000189536
9.46571e-06
0.000898401
0.000182351
-2.33897e-05
0.000891928
-0.000170372
2.33758e-05
0.00089036
-8.28234e-05
-9.52336e-06
0.00089194
-0.000169728
0.00089844
0.000181534
8.70485e-06
0.000903319
0.000175069
-2.31247e-05
0.000899074
-0.000168178
2.31113e-05
0.000898194
-8.25947e-05
-8.74893e-06
0.000899107
-0.000167382
0.000903376
0.000174154
8.19359e-06
0.000909523
0.00016782
-2.27502e-05
0.00090691
-0.000165725
2.27241e-05
0.000906488
-8.23976e-05
-8.18963e-06
0.000906953
-0.000165619
0.00090961
0.000167663
7.78223e-06
0.000916675
0.000161078
-2.22982e-05
0.000915354
-0.000163487
2.22585e-05
0.000915261
-8.21737e-05
-7.73595e-06
0.000915427
-0.000164144
0.000916792
0.00016187
7.47823e-06
0.000924798
0.000155022
-2.17823e-05
0.000924422
-0.000161402
2.17927e-05
0.000924495
-8.18341e-05
-7.39948e-06
0.000924432
-0.000161986
0.000924818
0.000155776
7.12362e-06
0.000933448
0.000149815
-2.1268e-05
0.000933848
-0.000159572
2.129e-05
0.000934047
-8.12521e-05
-7.05672e-06
0.000933763
-0.000159726
0.000933315
0.000150109
6.75944e-06
0.000942303
0.000145409
-2.07581e-05
0.000943485
-0.000157694
2.07288e-05
0.00094383
-8.0393e-05
-6.80078e-06
0.000943402
-0.000157148
0.000942132
0.000144922
6.52764e-06
0.000951366
0.000140998
-2.02107e-05
0.000953232
-0.000154797
2.0148e-05
0.000953659
-7.90207e-05
-6.63728e-06
0.000953135
-0.000153547
0.000951275
0.000139646
6.30931e-06
0.000960104
0.000136317
-1.96909e-05
0.000962635
-0.000150651
1.95596e-05
0.000963202
-7.71277e-05
-6.40746e-06
0.000962618
-0.00015035
0.000960041
0.000135956
6.13077e-06
0.000968273
0.000132698
-1.9123e-05
0.000971482
-0.000146131
1.90199e-05
0.000972153
-7.45718e-05
-6.22108e-06
0.000971477
-0.000145903
0.000968186
0.000132283
5.92807e-06
0.000975494
0.000130637
-1.85376e-05
0.000979458
-0.000141601
1.84721e-05
0.000980206
-7.12413e-05
-6.08501e-06
0.000979461
-0.000140547
0.000975511
0.000129335
5.73163e-06
0.000981302
0.000128924
-1.7993e-05
0.000986058
-0.000135785
1.79412e-05
0.000986902
-6.70714e-05
-5.87237e-06
0.000986089
-0.000135271
0.000981382
0.000128216
5.56336e-06
0.000985197
0.000127862
-1.74611e-05
0.000990811
-0.000128688
1.74261e-05
0.000991775
-6.19652e-05
-5.61361e-06
0.000990821
-0.000129177
0.000985155
0.000128142
5.39636e-06
0.00098673
0.000128513
-1.69108e-05
0.000993379
-0.000121161
1.6878e-05
0.000994473
-5.58824e-05
-5.46634e-06
0.000993427
-0.000121744
0.000986783
0.000128903
5.2456e-06
0.000985548
0.000130665
-1.63411e-05
0.000993338
-0.000112963
1.63505e-05
0.00099451
-4.88019e-05
-5.31285e-06
0.000993347
-0.000112738
0.000985705
0.00013027
5.05922e-06
0.000980988
0.000133375
-1.5818e-05
0.000990018
-0.000103245
1.58139e-05
0.000991315
-4.07456e-05
-5.05679e-06
0.000989989
-0.000103476
0.000981017
0.000133622
4.85013e-06
0.000972483
0.00013774
-1.52842e-05
0.000982972
-9.28927e-05
1.52547e-05
0.000984368
-3.16851e-05
-4.84165e-06
0.000982956
-9.31686e-05
0.000972436
0.000138099
4.6773e-06
0.000959686
0.000143466
-1.47553e-05
0.000971928
-8.16013e-05
1.47301e-05
0.000973152
-2.15994e-05
-4.68968e-06
0.000971888
-8.15413e-05
0.000959758
0.000143317
4.54624e-06
0.000942308
0.000149678
-1.44153e-05
0.000956546
-6.89458e-05
1.4362e-05
0.000957609
-1.06859e-05
-4.51901e-06
0.000956541
-6.95542e-05
0.000942351
0.000150279
4.43645e-06
0.000920007
0.000156588
-1.42447e-05
0.000936485
-5.54452e-05
1.41944e-05
0.000938549
5.69759e-07
-4.39353e-06
0.000936533
-5.58071e-05
0.000919837
0.000157115
4.34722e-06
0.000892339
0.000165189
-1.37107e-05
0.000911545
-4.20319e-05
1.37158e-05
0.000914092
1.4338e-05
-4.36074e-06
0.000911557
-4.13981e-05
0.00089229
0.000164469
4.2415e-06
0.000858989
0.000175151
-1.31635e-05
0.000881583
-2.86651e-05
1.31928e-05
0.000884714
2.76104e-05
-4.28671e-06
0.000881553
-2.76969e-05
0.000859004
0.000173944
4.21814e-06
0.00081999
0.000184544
-1.26457e-05
0.000846434
-1.42136e-05
1.26566e-05
0.000850352
4.11736e-05
-4.2683e-06
0.000846434
-1.34523e-05
0.000819994
0.00018365
4.30197e-06
0.000775477
0.00019401
-1.20942e-05
0.000806309
4.43921e-07
1.20996e-05
0.000811115
5.49103e-05
-4.35393e-06
0.000806321
1.16341e-06
0.000775579
0.000193161
4.46384e-06
0.000725593
0.000203294
-1.15171e-05
0.00076145
1.49558e-05
1.15129e-05
0.000767247
6.84984e-05
-4.47842e-06
0.000761483
1.51708e-05
0.00072565
0.000203036
4.69837e-06
0.000670662
0.000212066
-1.09255e-05
0.000712223
2.89725e-05
1.09209e-05
0.000719082
8.17379e-05
-4.69134e-06
0.000712254
2.90393e-05
0.000670653
0.000212009
4.99089e-06
0.000611221
0.000219894
-1.03339e-05
0.000659069
4.21741e-05
1.03318e-05
0.000667069
9.43732e-05
-4.9818e-06
0.000659093
4.21954e-05
0.000611202
0.000219904
5.28841e-06
0.000548111
0.000226185
-9.75932e-06
0.00060244
5.42561e-05
9.75975e-06
0.000611729
0.000106195
-5.28088e-06
0.000602457
5.42713e-05
0.000548097
0.000226207
5.60914e-06
0.000482236
0.000229964
-9.23935e-06
0.000542829
6.51549e-05
9.2415e-06
0.0005537
0.000117185
-5.60316e-06
0.000542842
6.51693e-05
0.000482231
0.000229988
6.14335e-06
0.000229718
0.000413492
-8.81025e-06
7.53665e-05
0.000482163
8.81307e-06
0.000127369
0.000493948
-6.13871e-06
7.53802e-05
0.000482173
0.000229742
0.000413495
0.000129087
0.00106361
0.000204182
4.1797e-07
0.000760525
-0.000102551
-4.16772e-07
0.000805939
-7.29247e-05
-0.000129086
0.000760533
-0.00010255
0.00106362
0.000204184
0.000161237
0.000982509
0.000186766
8.10586e-06
0.000837285
-9.7852e-05
-8.10229e-06
0.000825738
-6.8416e-05
-0.000161234
0.000837294
-9.78511e-05
0.000982524
0.000186768
0.000115434
0.000943207
0.000175314
1.07309e-05
0.000865183
-0.000101171
-1.07253e-05
0.000848097
-7.45897e-05
-0.000115429
0.000865195
-0.00010117
0.000943229
0.000175315
9.35945e-05
0.000923953
0.000164349
7.75062e-06
0.000875674
-0.00010474
-7.7439e-06
0.000863515
-8.06427e-05
-9.35861e-05
0.000875688
-0.000104738
0.00092399
0.000164349
8.33948e-05
0.000913483
0.000153985
4.79929e-06
0.000881602
-0.000107059
-4.79571e-06
0.000873876
-8.38601e-05
-8.33726e-05
0.000881609
-0.000107053
0.000913556
0.000153979
7.70767e-05
0.000908071
0.00014447
2.7131e-06
0.000886141
-0.000108583
-2.73731e-06
0.000881397
-8.56734e-05
-7.6976e-05
0.000886137
-0.000108555
0.000908184
0.000144423
7.27331e-05
0.000906024
0.000135981
1.37215e-06
0.000890411
-0.000109651
-1.43346e-06
0.000887523
-8.6911e-05
-7.25369e-05
0.000890398
-0.000109578
0.000906163
0.000135846
6.94992e-05
0.000906445
0.000128301
5.21409e-07
0.000894885
-0.000110396
-6.33389e-07
0.000893165
-8.78587e-05
-6.91597e-05
0.000894916
-0.000110273
0.000906489
0.00012805
6.6702e-05
0.000908578
0.00012114
4.29739e-08
0.000899902
-0.000110895
-1.0385e-07
0.00089886
-8.86628e-05
-6.64929e-05
0.000899875
-0.000110794
0.000908657
0.000120875
6.44098e-05
0.000912123
0.000114395
-2.98278e-07
0.000905488
-0.00011125
1.84366e-07
0.000904902
-8.93491e-05
-6.40518e-05
0.000905488
-0.000111105
0.000912088
0.000114051
6.23477e-05
0.00091684
0.000108005
-5.06787e-07
0.000911666
-0.000111502
3.61041e-07
0.000911411
-8.99708e-05
-6.19008e-05
0.000911728
-0.000111361
0.000916637
0.000107704
6.03372e-05
0.00092239
0.000101932
-5.63254e-07
0.000918467
-0.000111625
5.61843e-07
0.000918411
-9.05226e-05
-6.03235e-05
0.000918566
-0.000111572
0.000922142
0.000101834
5.86352e-05
0.000928613
9.62201e-05
-6.02215e-07
0.000925767
-0.000111551
7.35595e-07
0.000925802
-9.09032e-05
-5.90198e-05
0.000925794
-0.000111617
0.000928603
9.63898e-05
5.71828e-05
0.000935354
9.10978e-05
-6.58862e-07
0.000933519
-0.000111312
7.81789e-07
0.000933587
-9.10598e-05
-5.75201e-05
0.000933503
-0.000111394
0.000935537
9.13211e-05
5.60555e-05
0.00094253
8.6583e-05
-7.7654e-07
0.00094148
-0.000110702
8.0638e-07
0.00094155
-9.07983e-05
-5.60917e-05
0.000941411
-0.000110736
0.000942858
8.66964e-05
5.50374e-05
0.000950077
8.28245e-05
-9.15526e-07
0.000949389
-0.00010965
7.99254e-07
0.000949492
-9.00495e-05
-5.46727e-05
0.000949306
-0.000109571
0.000950414
8.2693e-05
5.37111e-05
0.000957638
7.97257e-05
-9.85253e-07
0.000957149
-0.00010786
7.546e-07
0.000957331
-8.85994e-05
-5.30828e-05
0.000957259
-0.000107662
0.000957626
7.9351e-05
5.20431e-05
0.000964583
7.73286e-05
-9.35727e-07
0.000964636
-0.00010516
8.43878e-07
0.000964757
-8.6333e-05
-5.18353e-05
0.000964634
-0.000105046
0.000964709
7.70376e-05
5.04747e-05
0.000970774
7.60333e-05
-9.24052e-07
0.000971493
-0.00010159
8.54421e-07
0.000971542
-8.31354e-05
-5.03638e-05
0.000971409
-0.00010146
0.00097095
7.56782e-05
4.93008e-05
0.000976155
7.59544e-05
-1.02385e-06
0.000977205
-9.69881e-05
8.06827e-07
0.000977311
-7.88412e-05
-4.8827e-05
0.000977281
-9.67852e-05
0.000975983
7.54752e-05
4.79523e-05
0.000980053
7.70741e-05
-1.02219e-06
0.000981567
-9.1172e-05
8.93261e-07
0.000981699
-7.33752e-05
-4.7735e-05
0.00098169
-9.10515e-05
0.000979741
7.67231e-05
4.64353e-05
0.00098193
7.95493e-05
-9.50219e-07
0.000984305
-8.40413e-05
1.0121e-06
0.00098438
-6.66089e-05
-4.67351e-05
0.000984305
-8.40454e-05
0.000981764
7.93843e-05
4.51928e-05
0.000981647
8.36026e-05
-9.58627e-07
0.000984908
-7.56127e-05
1.04743e-06
0.000984972
-5.84806e-05
-4.55584e-05
0.000984802
-7.5635e-05
0.000981625
8.34826e-05
4.41493e-05
0.00097893
8.92315e-05
-1.02003e-06
0.000982933
-6.58182e-05
9.88638e-07
0.000983116
-4.89543e-05
-4.41616e-05
0.000983
-6.57862e-05
0.00097865
8.90839e-05
4.29519e-05
0.000973009
9.63436e-05
-9.9254e-07
0.000978216
-5.45843e-05
1.01298e-06
0.000978397
-3.8032e-05
-4.30365e-05
0.000978207
-5.46334e-05
0.000972866
9.63692e-05
4.18705e-05
0.000963809
0.00010507
-9.79195e-07
0.000970208
-4.20356e-05
1.01544e-06
0.000970441
-2.57243e-05
-4.19769e-05
0.000970125
-4.2095e-05
0.00096385
0.000105137
4.08456e-05
0.000951148
0.000115281
-9.3417e-07
0.00095857
-2.81839e-05
9.618e-07
0.000958989
-1.20438e-05
-4.09197e-05
0.000958661
-2.81952e-05
0.000950996
0.000115252
3.97776e-05
0.000934384
0.000126664
-7.96526e-07
0.000943212
-1.30131e-05
9.10827e-07
0.000943472
3.12426e-06
-4.00372e-05
0.000943153
-1.30984e-05
0.000934499
0.000126738
3.87597e-05
0.00091308
0.000139132
-7.97095e-07
0.000923849
3.47481e-06
8.47469e-07
0.000923885
1.85117e-05
-3.88365e-05
0.000923589
3.44057e-06
0.000913578
0.000139199
3.78511e-05
0.000887636
0.000152782
-9.6029e-07
0.000900786
1.98417e-05
8.66021e-07
0.000901088
3.53089e-05
-3.75394e-05
0.000900658
1.9938e-05
0.000887937
0.000152571
3.72461e-05
0.000858339
0.000167201
-1.08093e-06
0.000873372
3.70758e-05
9.21911e-07
0.000874124
5.25717e-05
-3.67462e-05
0.000873389
3.72403e-05
0.000858296
0.000166838
3.64944e-05
0.000824622
0.000181767
-1.07698e-06
0.000842063
5.4667e-05
9.2837e-07
0.00084319
7.01017e-05
-3.60214e-05
0.00084208
5.48069e-05
0.000824477
0.000181448
3.57132e-05
0.000786692
0.000196227
-1.018e-06
0.000807023
7.22151e-05
8.96826e-07
0.000808581
8.76047e-05
-3.53242e-05
0.000807131
7.23329e-05
0.000786356
0.000195958
3.49726e-05
0.00074481
0.000210204
-9.19746e-07
0.000768561
8.93111e-05
8.76096e-07
0.000770581
0.000104703
-3.47922e-05
0.000768608
8.93624e-05
0.000744536
0.000210063
3.42953e-05
0.000699329
0.000223251
-8.06676e-07
0.000727088
0.000105548
7.95251e-07
0.000729675
0.000121042
-3.42152e-05
0.000727093
0.000105565
0.000699136
0.000223194
3.36681e-05
0.000650701
0.000234853
-6.7048e-07
0.000683092
0.000120509
6.71357e-07
0.000686453
0.000136254
-3.36339e-05
0.000683077
0.000120517
0.000650572
0.000234833
3.30406e-05
0.000599473
0.000244373
-4.90285e-07
0.000637082
0.000133796
4.94035e-07
0.000641656
0.000150007
-3.30234e-05
0.000637063
0.000133803
0.000599386
0.00024437
3.26047e-05
0.000545813
0.000251019
-3.0393e-07
0.000590001
0.000145145
3.0795e-07
0.000596159
0.000162071
-3.25946e-05
0.000589983
0.000145152
0.000545755
0.000251025
3.28928e-05
0.000253632
0.000489008
-4.32122e-07
0.000154543
0.00054415
4.35847e-07
0.000172205
0.000550456
-3.28865e-05
0.000154551
0.000544135
0.000253642
0.000488968
0.000103296
0.0010384
0.00013557
1.01228e-05
0.000775047
-5.71785e-05
-1.01217e-05
0.000817615
-5.40961e-05
-0.000103296
0.000775055
-5.71781e-05
0.00103841
0.000135571
0.000132528
0.000968114
0.000124521
1.85219e-05
0.000845923
-5.47216e-05
-1.85192e-05
0.000838615
-5.23753e-05
-0.000132526
0.000845932
-5.47217e-05
0.000968129
0.000124521
8.99134e-05
0.000937511
0.000116004
1.91476e-05
0.000872726
-5.7207e-05
-1.9142e-05
0.000860415
-5.80996e-05
-8.99089e-05
0.000872738
-5.72078e-05
0.000937533
0.000116003
7.07633e-05
0.000923753
0.000107344
1.60984e-05
0.000883634
-6.09836e-05
-1.60905e-05
0.000875314
-6.33526e-05
-7.07558e-05
0.00088365
-6.09854e-05
0.000923787
0.000107339
6.224e-05
0.000916795
9.87031e-05
1.32732e-05
0.000889989
-6.44464e-05
-1.32645e-05
0.000884976
-6.69836e-05
-6.22256e-05
0.000890008
-6.44493e-05
0.000916851
9.86904e-05
5.71566e-05
0.000913581
9.05276e-05
1.1352e-05
0.000894715
-6.75046e-05
-1.13471e-05
0.000891777
-6.97754e-05
-5.71205e-05
0.000894734
-6.75077e-05
0.000913659
9.04945e-05
5.3733e-05
0.00091279
8.30389e-05
1.00936e-05
0.000898935
-7.02314e-05
-1.00976e-05
0.000897227
-7.21694e-05
-5.36627e-05
0.000898953
-7.0231e-05
0.000912874
8.29683e-05
5.12158e-05
0.000913731
7.61435e-05
9.24422e-06
0.000903188
-7.26782e-05
-9.25765e-06
0.000902196
-7.43257e-05
-5.11085e-05
0.000903207
-7.26759e-05
0.000913786
7.60299e-05
4.91801e-05
0.000915974
6.97172e-05
8.64378e-06
0.000907749
-7.49191e-05
-8.6551e-06
0.000907168
-7.63363e-05
-4.90771e-05
0.000907752
-7.49176e-05
0.000916006
6.95774e-05
4.74393e-05
0.000919272
6.36575e-05
8.18093e-06
0.000912723
-7.69668e-05
-8.19816e-06
0.000912399
-7.82014e-05
-4.73121e-05
0.000912723
-7.69617e-05
0.000919241
6.35035e-05
4.58963e-05
0.000923437
5.79432e-05
7.8077e-06
0.000918148
-7.88382e-05
-7.82527e-06
0.000917989
-7.99277e-05
-4.57783e-05
0.000918149
-7.8834e-05
0.000923346
5.78213e-05
4.44897e-05
0.000928279
5.2601e-05
7.50298e-06
0.000924014
-8.05043e-05
-7.50421e-06
0.000923956
-8.14827e-05
-4.44552e-05
0.000924027
-8.04989e-05
0.000928178
5.25455e-05
4.31828e-05
0.000933645
4.76709e-05
7.23518e-06
0.000930248
-8.18376e-05
-7.21872e-06
0.000930244
-8.27375e-05
-4.32353e-05
0.000930267
-8.184e-05
0.000933635
4.76975e-05
4.20034e-05
0.000939407
4.33328e-05
6.99136e-06
0.000936766
-8.28181e-05
-6.97053e-06
0.000936793
-8.3647e-05
-4.20642e-05
0.000936793
-8.28263e-05
0.000939506
4.33858e-05
4.09026e-05
0.000945436
3.96514e-05
6.75118e-06
0.000943422
-8.32058e-05
-6.73765e-06
0.000943457
-8.3974e-05
-4.09118e-05
0.000943447
-8.32166e-05
0.000945622
3.96689e-05
3.98687e-05
0.000951586
3.6805e-05
6.51637e-06
0.000950042
-8.29181e-05
-6.52294e-06
0.000950072
-8.36251e-05
-3.97903e-05
0.000950066
-8.29223e-05
0.000951784
3.67404e-05
3.8805e-05
0.000957606
3.49006e-05
6.28831e-06
0.000956456
-8.17574e-05
-6.31683e-06
0.000956477
-8.23993e-05
-3.8661e-05
0.000956499
-8.17508e-05
0.000957721
3.47532e-05
3.76964e-05
0.000963169
3.40696e-05
6.07528e-06
0.000962453
-7.95368e-05
-6.10066e-06
0.000962439
-8.01192e-05
-3.75907e-05
0.000962475
-7.9532e-05
0.000963273
3.38945e-05
3.66325e-05
0.000968035
3.45335e-05
5.86703e-06
0.000967769
-7.61404e-05
-5.899e-06
0.000967721
-7.6652e-05
-3.65282e-05
0.000967774
-7.6131e-05
0.000968101
3.43228e-05
3.5619e-05
0.00097195
3.64203e-05
5.65359e-06
0.000972105
-7.13586e-05
-5.70527e-06
0.000972038
-7.17989e-05
-3.54827e-05
0.000972117
-7.13504e-05
0.000971902
3.61915e-05
3.46131e-05
0.000974535
3.98759e-05
5.46129e-06
0.000975178
-6.50936e-05
-5.50564e-06
0.000975091
-6.54622e-05
-3.45285e-05
0.000975181
-6.50934e-05
0.000974422
3.96741e-05
3.36156e-05
0.000975441
4.50281e-05
5.28356e-06
0.000976686
-5.72178e-05
-5.30664e-06
0.000976583
-5.75103e-05
-3.36101e-05
0.000976665
-5.72255e-05
0.000975329
4.4867e-05
3.2678e-05
0.000974386
5.19788e-05
5.10599e-06
0.000976297
-4.76517e-05
-5.12069e-06
0.000976194
-4.78654e-05
-3.26927e-05
0.000976263
-4.76611e-05
0.000974271
5.18475e-05
3.17901e-05
0.000971059
6.07677e-05
4.93132e-06
0.000973694
-3.63571e-05
-4.94835e-06
0.000973612
-3.64927e-05
-3.17818e-05
0.000973679
-3.63692e-05
0.000970902
6.06709e-05
3.09197e-05
0.000965098
7.13852e-05
4.77138e-06
0.000968598
-2.33404e-05
-4.77486e-06
0.000968524
-2.33987e-05
-3.09387e-05
0.000968571
-2.33617e-05
0.000964992
7.13405e-05
3.01024e-05
0.000956276
8.37896e-05
4.61403e-06
0.000960711
-8.66022e-06
-4.60955e-06
0.000960649
-8.62584e-06
-3.01259e-05
0.000960675
-8.68322e-06
0.000956235
8.37684e-05
2.9318e-05
0.000944376
9.78632e-05
4.45528e-06
0.000949808
7.58158e-06
-4.44626e-06
0.000949791
7.7157e-06
-2.93262e-05
0.000949795
7.56412e-06
0.000944329
9.78322e-05
2.85293e-05
0.000929115
0.000113395
4.30974e-06
0.000935779
2.52354e-05
-4.2914e-06
0.000936049
2.54671e-05
-2.85553e-05
0.000935746
2.52151e-05
0.000929139
0.000113373
2.77793e-05
0.000910308
0.00013016
4.2783e-06
0.000918699
4.40557e-05
-4.26982e-06
0.000918786
4.43224e-05
-2.77734e-05
0.000918649
4.40405e-05
0.000910434
0.00013013
2.72407e-05
0.000887919
0.00014793
4.12858e-06
0.000897985
6.36676e-05
-4.13222e-06
0.000898267
6.40887e-05
-2.71621e-05
0.000897947
6.36692e-05
0.000888004
0.000147839
2.67445e-05
0.000862046
0.00016633
4.0136e-06
0.00087395
8.38419e-05
-4.02508e-06
0.000874463
8.44144e-05
-2.66233e-05
0.000873933
8.38531e-05
0.000862023
0.000166195
2.62545e-05
0.00083265
0.000184908
3.93585e-06
0.000846738
0.000104198
-3.94773e-06
0.00084752
0.000104928
-2.61375e-05
0.000846721
0.000104208
0.000832559
0.000184775
2.58046e-05
0.000799843
0.000203229
3.88658e-06
0.00081656
0.000124311
-3.89484e-06
0.000817683
0.000125223
-2.57069e-05
0.000816549
0.000124318
0.000799694
0.000203116
2.54183e-05
0.000763825
0.000220804
3.86592e-06
0.000783707
0.000143717
-3.86605e-06
0.000785264
0.000144854
-2.5358e-05
0.000783686
0.000143717
0.000763675
0.000220725
2.51086e-05
0.000724845
0.000237122
3.87516e-06
0.000748544
0.000161944
-3.87162e-06
0.000750679
0.000163374
-2.5075e-05
0.000748514
0.000161941
0.000724718
0.000237075
2.48651e-05
0.000683201
0.000251633
3.924e-06
0.000711477
0.000178517
-3.91924e-06
0.000714436
0.00018034
-2.48463e-05
0.000711443
0.000178514
0.000683099
0.000251606
2.46487e-05
0.000639207
0.000263718
4.03251e-06
0.000672916
0.000192973
-4.02778e-06
0.000677169
0.000195334
-2.46373e-05
0.000672884
0.000192972
0.000639127
0.000263705
2.46754e-05
0.000592839
0.000272711
4.17964e-06
0.000633608
0.000204948
-4.17524e-06
0.000639554
0.00020804
-2.4668e-05
0.00063358
0.000204949
0.000592777
0.000272707
2.55572e-05
0.000277785
0.000543129
4.0679e-06
0.000214209
0.000595431
-4.06403e-06
0.000218157
0.000601734
-2.55522e-05
0.000214211
0.000595407
0.000277785
0.000543081
8.43772e-05
0.00103083
9.09094e-05
1.17715e-05
0.000783786
-3.36819e-05
-1.17707e-05
0.000819974
-3.67605e-05
-8.43764e-05
0.000783793
-3.36819e-05
0.00103084
9.09098e-05
0.000108643
0.000963879
8.28328e-05
1.91848e-05
0.000851146
-3.26224e-05
-1.91819e-05
0.000842783
-3.68174e-05
-0.000108641
0.000851154
-3.26231e-05
0.000963892
8.2832e-05
6.76732e-05
0.000936239
7.59715e-05
1.98723e-05
0.000876762
-3.50217e-05
-1.98667e-05
0.000865577
-4.11543e-05
-6.76692e-05
0.000876772
-3.50235e-05
0.000936257
7.59684e-05
4.99246e-05
0.000924734
6.89241e-05
1.64722e-05
0.000887895
-3.86648e-05
-1.64642e-05
0.000880796
-4.56345e-05
-4.99185e-05
0.00088791
-3.86684e-05
0.00092476
6.89172e-05
4.23676e-05
0.000919385
6.16854e-05
1.36265e-05
0.000894627
-4.24368e-05
-1.36162e-05
0.000890558
-4.95024e-05
-4.23578e-05
0.000894645
-4.24431e-05
0.000919422
6.16716e-05
3.80965e-05
0.000917198
5.46182e-05
1.17643e-05
0.000899585
-4.61298e-05
-1.17526e-05
0.000897305
-5.30055e-05
-3.80801e-05
0.000899605
-4.61399e-05
0.000917245
5.45914e-05
3.53566e-05
0.00091694
4.79403e-05
1.05633e-05
0.000903831
-4.96842e-05
-1.05523e-05
0.000902555
-5.63042e-05
-3.53304e-05
0.000903851
-4.96986e-05
0.000916988
4.78943e-05
3.34353e-05
0.000918004
4.16441e-05
9.75981e-06
0.000907904
-5.30754e-05
-9.75032e-06
0.000907183
-5.9444e-05
-3.34003e-05
0.000907919
-5.30943e-05
0.000918041
4.1577e-05
3.19643e-05
0.000920068
3.56886e-05
9.18631e-06
0.000912079
-5.63163e-05
-9.17884e-06
0.00091167
-6.2458e-05
-3.19253e-05
0.000912087
-5.63387e-05
0.000920085
3.56079e-05
3.07432e-05
0.00092294
3.00416e-05
8.74489e-06
0.000916492
-5.93818e-05
-8.73844e-06
0.000916268
-6.53164e-05
-3.07019e-05
0.000916492
-5.94037e-05
0.000922929
2.99575e-05
2.96916e-05
0.000926477
2.4715e-05
8.38381e-06
0.000921202
-6.22407e-05
-8.37691e-06
0.000921092
-6.79902e-05
-2.96577e-05
0.000921197
-6.22585e-05
0.000926446
2.46463e-05
2.87614e-05
0.000930548
1.97689e-05
8.07637e-06
0.000926217
-6.48344e-05
-8.06995e-06
0.000926174
-7.04192e-05
-2.8743e-05
0.000926217
-6.48462e-05
0.000930519
1.97295e-05
2.78939e-05
0.000935034
1.52904e-05
7.80241e-06
0.000931491
-6.70196e-05
-7.79377e-06
0.000931488
-7.24545e-05
-2.78928e-05
0.000931504
-6.70272e-05
0.000935042
1.52818e-05
2.71052e-05
0.000939828
1.14337e-05
7.55822e-06
0.00093695
-6.87308e-05
-7.54559e-06
0.000936975
-7.4031e-05
-2.71076e-05
0.000936978
-6.87387e-05
0.000939885
1.14347e-05
2.63478e-05
0.000944799
8.33278e-06
7.32393e-06
0.000942489
-6.97212e-05
-7.30878e-06
0.000942529
-7.48949e-05
-2.63405e-05
0.000942527
-6.97337e-05
0.000944897
8.31698e-06
2.5635e-05
0.000949798
6.16996e-06
7.10017e-06
0.000947978
-6.98719e-05
-7.08751e-06
0.000948018
-7.49264e-05
-2.56097e-05
0.000948018