/*--------------------------------*- C++ -*----------------------------------*\
  =========                 |
  \\      /  F ield         | OpenFOAM: The Open Source CFD Toolbox
   \\    /   O peration     | Website:  https://openfoam.org
    \\  /    A nd           | Version:  9
     \\/     M anipulation  |
\*---------------------------------------------------------------------------*/
FoamFile
{
    format      ascii;
    class       volVectorField;
    location    "4";
    object      U;
}
// * * * * * * * * * * * * * * * * * * * * * * * * * * * * * * * * * * * * * //

dimensions      [0 1 -1 0 0 0 0];

internalField   nonuniform List<vector> 
4545
(
(0.222263 -0.733025 -2.30583)
(-0.15518 -0.210945 -0.0112567)
(0.00710438 -0.246017 3.34687e-07)
(-0.15518 -0.210949 0.0112572)
(0.222264 -0.73303 2.30582)
(0.148112 -0.579906 -2.205)
(-0.129261 -0.317589 -0.0142338)
(0.0177131 -0.28747 8.90419e-07)
(-0.12926 -0.317592 0.0142353)
(0.148113 -0.579911 2.205)
(0.132321 -0.497606 -2.24035)
(-0.132438 -0.341998 -0.0203646)
(0.00862464 -0.30542 1.0994e-06)
(-0.132437 -0.342001 0.0203667)
(0.132322 -0.497612 2.24035)
(0.129438 -0.466273 -2.22854)
(-0.132574 -0.36348 -0.0266071)
(0.0036991 -0.33017 -1.70883e-07)
(-0.132572 -0.36348 0.0266087)
(0.12944 -0.46628 2.22854)
(0.125191 -0.441863 -2.22004)
(-0.13142 -0.377213 -0.0309197)
(0.00296653 -0.351425 -4.34758e-06)
(-0.131416 -0.377199 0.0309156)
(0.12519 -0.441883 2.22005)
(0.121719 -0.425665 -2.2136)
(-0.130447 -0.385526 -0.0336677)
(0.00334356 -0.367335 -7.47658e-06)
(-0.130446 -0.385484 0.033638)
(0.121702 -0.425663 2.21365)
(0.119152 -0.416411 -2.2084)
(-0.12969 -0.391329 -0.0354167)
(0.003965 -0.37911 -1.00948e-05)
(-0.129695 -0.391292 0.0353567)
(0.119111 -0.416357 2.20359)
(0.117013 -0.411602 -2.17738)
(-0.12903 -0.395957 -0.0365767)
(0.00440698 -0.387978 3.576e-05)
(-0.12907 -0.395955 0.0363873)
(0.117076 -0.41158 2.19923)
(0.115287 -0.409537 -2.17327)
(-0.128493 -0.400128 -0.0371176)
(0.00459178 -0.395024 7.73289e-07)
(-0.128505 -0.400088 0.0370238)
(0.115245 -0.4096 2.17951)
(0.113707 -0.409433 -2.18232)
(-0.127985 -0.404155 -0.0373509)
(0.00457862 -0.400988 9.07544e-06)
(-0.128021 -0.404109 0.0372833)
(0.113629 -0.409609 2.17585)
(0.112099 -0.410806 -2.16235)
(-0.127456 -0.408251 -0.0374717)
(0.00443534 -0.406412 2.96656e-05)
(-0.127493 -0.408305 0.0374123)
(0.112027 -0.410937 2.1554)
(0.110679 -0.413067 -2.17389)
(-0.126983 -0.41266 -0.0373226)
(0.00417546 -0.411683 -4.11932e-05)
(-0.12696 -0.412811 0.0375461)
(0.110504 -0.413172 2.13251)
(0.109187 -0.416397 -2.18813)
(-0.126466 -0.417365 -0.0371846)
(0.00385084 -0.417 -0.000101696)
(-0.126364 -0.41751 0.0375724)
(0.10903 -0.416166 2.12781)
(0.107573 -0.420327 -2.14352)
(-0.125866 -0.422477 -0.0371844)
(0.00353325 -0.422488 -1.77002e-05)
(-0.125813 -0.422529 0.0373386)
(0.107582 -0.420067 2.14369)
(0.1061 -0.424504 -2.13965)
(-0.125194 -0.427974 -0.0372064)
(0.00324554 -0.428142 3.805e-05)
(-0.12519 -0.427801 0.0370807)
(0.106217 -0.424413 2.18205)
(0.104561 -0.429585 -2.13473)
(-0.124397 -0.433527 -0.037238)
(0.00301084 -0.433974 1.78437e-05)
(-0.124427 -0.43323 0.0370135)
(0.104521 -0.429913 2.14704)
(0.103038 -0.434766 -2.09334)
(-0.123507 -0.439254 -0.037134)
(0.00283479 -0.440063 3.52805e-05)
(-0.123599 -0.439134 0.0368754)
(0.103044 -0.434777 2.09953)
(0.101759 -0.44002 -2.13301)
(-0.122627 -0.445154 -0.0366578)
(0.0027502 -0.446275 -0.000107877)
(-0.122557 -0.445207 0.0367076)
(0.101579 -0.439801 2.0821)
(0.100444 -0.445379 -2.12182)
(-0.121513 -0.4511 -0.0362725)
(0.00283006 -0.452405 -6.602e-05)
(-0.121469 -0.451013 0.0362671)
(0.100361 -0.445041 2.10391)
(0.0991605 -0.450116 -2.07055)
(-0.120079 -0.456848 -0.0361742)
(0.00312413 -0.458359 7.57487e-05)
(-0.120155 -0.45683 0.0358179)
(0.0992761 -0.449874 2.0988)
(0.0981725 -0.454597 -2.07363)
(-0.11852 -0.462115 -0.0358189)
(0.00366033 -0.463939 7.18727e-05)
(-0.118546 -0.462352 0.035477)
(0.0983864 -0.454079 2.11369)
(0.0975631 -0.458332 -2.11827)
(-0.116743 -0.46674 -0.0352099)
(0.00448519 -0.468768 -1.21693e-06)
(-0.116694 -0.466884 0.0351162)
(0.0977156 -0.458266 2.16058)
(0.0970126 -0.461421 -2.10486)
(-0.114541 -0.470524 -0.0348715)
(0.00566477 -0.472666 -4.68381e-05)
(-0.114486 -0.470427 0.0348916)
(0.0971189 -0.461522 2.10434)
(0.0966874 -0.462885 -2.04937)
(-0.111933 -0.473191 -0.0346602)
(0.00719502 -0.475516 8.61089e-05)
(-0.112004 -0.473201 0.0344083)
(0.0969442 -0.462963 2.10049)
(0.0969221 -0.462812 -2.09639)
(-0.109104 -0.474431 -0.034067)
(0.00912705 -0.476967 5.50128e-05)
(-0.109081 -0.474533 0.0338675)
(0.0971217 -0.463121 2.15141)
(0.0975308 -0.461202 -2.14854)
(-0.105835 -0.473946 -0.033457)
(0.0115321 -0.476736 -1.30764e-05)
(-0.105751 -0.473787 0.0334876)
(0.0975613 -0.461714 2.14841)
(0.0984042 -0.457609 -2.14588)
(-0.10203 -0.471414 -0.0329715)
(0.0142514 -0.474742 -5.69337e-05)
(-0.102066 -0.471257 0.0332707)
(0.0982431 -0.457803 2.0898)
(0.0996829 -0.451324 -2.14357)
(-0.0979759 -0.466434 -0.0324527)
(0.0168049 -0.470716 -0.000168329)
(-0.0979083 -0.46657 0.0330366)
(0.0992387 -0.451418 2.0332)
(0.101299 -0.441842 -2.14149)
(-0.0937787 -0.459045 -0.0318814)
(0.0189385 -0.464074 -8.7877e-05)
(-0.0936289 -0.459019 0.0322052)
(0.100976 -0.442173 2.08424)
(0.102998 -0.430247 -2.0858)
(-0.0888987 -0.449306 -0.0314903)
(0.021915 -0.45451 3.68215e-05)
(-0.0889734 -0.448994 0.0314488)
(0.103084 -0.429257 2.08485)
(0.105485 -0.414023 -2.08315)
(-0.0833946 -0.436144 -0.0309917)
(0.0255664 -0.442081 6.06986e-05)
(-0.0835929 -0.436212 0.0308377)
(0.105268 -0.414819 2.0824)
(0.108479 -0.394877 -2.13685)
(-0.0777349 -0.41989 -0.0301705)
(0.0297315 -0.426745 4.14898e-05)
(-0.0778289 -0.419854 0.0300156)
(0.108403 -0.394464 2.1372)
(0.111613 -0.372064 -2.13642)
(-0.0716405 -0.400502 -0.0294111)
(0.0343717 -0.408352 1.27083e-05)
(-0.0717518 -0.400573 0.0294063)
(0.111382 -0.372076 2.1025)
(0.114998 -0.345288 -2.13651)
(-0.0651888 -0.377879 -0.0285959)
(0.0394319 -0.386891 -2.73493e-05)
(-0.065216 -0.378093 0.0286798)
(0.114706 -0.34559 2.10177)
(0.118526 -0.314558 -2.13716)
(-0.0584759 -0.35213 -0.0277022)
(0.0448281 -0.362371 -1.51788e-05)
(-0.0584766 -0.352253 0.0276977)
(0.118467 -0.314455 2.13719)
(0.122074 -0.280002 -2.13839)
(-0.0516133 -0.323409 -0.0267466)
(0.0504791 -0.334808 -8.14031e-06)
(-0.0516047 -0.323486 0.0267451)
(0.122081 -0.280041 2.13839)
(0.125443 -0.241789 -2.14022)
(-0.044714 -0.292051 -0.0257427)
(0.0563057 -0.3043 -3.446e-06)
(-0.0447026 -0.292107 0.0257455)
(0.12547 -0.241852 2.14021)
(0.127806 -0.20026 -2.14273)
(-0.0375852 -0.258653 -0.0247139)
(0.0624919 -0.270902 -3.68494e-07)
(-0.0375732 -0.258693 0.0247174)
(0.127837 -0.200319 2.14273)
(0.125973 -0.156898 -2.14272)
(-0.0284218 -0.222956 -0.0236601)
(0.0696076 -0.234311 1.04962e-06)
(-0.0284114 -0.222986 0.0236634)
(0.126 -0.156947 2.14271)
(0.141103 -0.577722 -1.7549)
(-0.0949767 -0.310086 0.0127785)
(-0.0362812 -0.346691 2.14251e-07)
(-0.0949762 -0.31009 -0.0127781)
(0.141104 -0.577727 1.7549)
(0.131735 -0.491599 -1.59478)
(-0.0914142 -0.384545 0.0153481)
(-0.0329814 -0.371329 6.01662e-07)
(-0.0914135 -0.384549 -0.0153471)
(0.131737 -0.491605 1.59478)
(0.132688 -0.465577 -1.57961)
(-0.0958496 -0.395185 0.00814172)
(-0.0385756 -0.378598 8.10019e-07)
(-0.0958484 -0.395189 -0.00814019)
(0.13269 -0.465585 1.57961)
(0.130689 -0.448059 -1.55153)
(-0.0983278 -0.404096 0.00374412)
(-0.0425838 -0.390731 4.94893e-07)
(-0.0983252 -0.404099 -0.00374264)
(0.130691 -0.448068 1.55152)
(0.128092 -0.436196 -1.52955)
(-0.0994333 -0.408597 0.00125429)
(-0.0441196 -0.399319 -8.72592e-07)
(-0.099423 -0.408598 -0.00125415)
(0.128089 -0.436204 1.52955)
(0.125652 -0.429457 -1.51119)
(-0.100193 -0.411513 -0.000291013)
(-0.0447179 -0.405454 -2.73139e-06)
(-0.10007 -0.411508 0.00028755)
(0.125524 -0.429455 1.51121)
(0.123571 -0.425952 -1.49542)
(-0.100847 -0.414004 -0.0012383)
(-0.0450341 -0.410147 -3.98532e-06)
(-0.10055 -0.414003 0.00122852)
(0.123225 -0.425948 1.49546)
(0.121747 -0.424551 -1.48151)
(-0.101421 -0.416483 -0.00181926)
(-0.0453104 -0.414032 1.38014e-06)
(-0.100835 -0.416483 0.00181317)
(0.121072 -0.424555 1.48155)
(0.119637 -0.424621 -1.46896)
(-0.1015 -0.419136 -0.00217518)
(-0.0456001 -0.417589 -1.27454e-06)
(-0.101183 -0.419128 0.00216901)
(0.119169 -0.424621 1.46897)
(0.117851 -0.425761 -1.45731)
(-0.101794 -0.422047 -0.00239618)
(-0.0459044 -0.421092 -1.41345e-07)
(-0.101143 -0.422046 0.00238626)
(0.116948 -0.425769 1.45734)
(0.116035 -0.427747 -1.4464)
(-0.102048 -0.425264 -0.00252077)
(-0.0462987 -0.424707 2.43131e-06)
(-0.101242 -0.425276 0.00251557)
(0.115001 -0.427767 1.44641)
(0.113992 -0.430413 -1.43592)
(-0.102019 -0.42882 -0.00259289)
(-0.046756 -0.428529 -4.1234e-06)
(-0.101909 -0.42884 0.00258955)
(0.113693 -0.430452 1.4359)
(0.112287 -0.433604 -1.42569)
(-0.102306 -0.432696 -0.00263795)
(-0.0473001 -0.432585 -9.86422e-06)
(-0.103004 -0.432725 0.00263644)
(0.112994 -0.433646 1.42562)
(0.110796 -0.437255 -1.41592)
(-0.102717 -0.436868 -0.00264962)
(-0.0477858 -0.436872 -1.7038e-07)
(-0.103371 -0.436893 0.00266395)
(0.111628 -0.43729 1.41584)
(0.110108 -0.441259 -1.4061)
(-0.103669 -0.441281 -0.00267198)
(-0.0482471 -0.441349 4.18161e-06)
(-0.10387 -0.44126 0.00268871)
(0.110515 -0.441225 1.40607)
(0.109902 -0.445444 -1.39651)
(-0.104751 -0.445829 -0.00269605)
(-0.0486139 -0.445958 -3.52822e-06)
(-0.104162 -0.445784 0.00268444)
(0.109327 -0.445386 1.39657)
(0.109142 -0.449733 -1.38721)
(-0.104963 -0.450457 -0.00268671)
(-0.0486879 -0.450642 -7.23019e-06)
(-0.103553 -0.450415 0.0026579)
(0.107487 -0.449668 1.38729)
(0.10768 -0.454001 -1.37802)
(-0.104106 -0.455041 -0.00268258)
(-0.0485363 -0.455279 -2.51616e-05)
(-0.103745 -0.455017 0.00263769)
(0.107049 -0.453957 1.37805)
(0.106689 -0.458061 -1.36904)
(-0.103124 -0.459418 -0.0026563)
(-0.0480218 -0.459711 -1.95497e-05)
(-0.102834 -0.45941 0.00261834)
(0.106065 -0.458028 1.36904)
(0.106879 -0.46176 -1.36011)
(-0.102631 -0.463461 -0.00262497)
(-0.0471236 -0.463796 -3.61099e-06)
(-0.101348 -0.463459 0.00258852)
(0.105267 -0.461749 1.36009)
(0.106833 -0.464916 -1.35141)
(-0.101084 -0.466974 -0.00260295)
(-0.0457628 -0.467354 -1.23321e-06)
(-0.100441 -0.466986 0.00257148)
(0.106 -0.46493 1.35126)
(0.106835 -0.467275 -1.34295)
(-0.0985334 -0.469726 -0.00258007)
(-0.0438558 -0.470155 -3.82827e-06)
(-0.0991219 -0.469735 0.002565)
(0.1073 -0.467288 1.34264)
(0.108056 -0.468631 -1.33474)
(-0.0960395 -0.471524 -0.00254787)
(-0.041369 -0.47201 -5.20849e-06)
(-0.0967489 -0.471532 0.00252669)
(0.108627 -0.468637 1.33443)
(0.110294 -0.468776 -1.3269)
(-0.0933147 -0.472187 -0.00250249)
(-0.0382616 -0.472725 8.23003e-06)
(-0.0930189 -0.472204 0.00249507)
(0.10992 -0.468818 1.32668)
(0.112575 -0.467476 -1.31948)
(-0.0892624 -0.471453 -0.00247567)
(-0.0345332 -0.472043 3.78189e-06)
(-0.0895878 -0.471457 0.00247961)
(0.113049 -0.46752 1.31929)
(0.116237 -0.464434 -1.31255)
(-0.0849903 -0.469057 -0.0024493)
(-0.0300917 -0.469691 -4.62595e-06)
(-0.0853857 -0.46904 0.00244624)
(0.116743 -0.464442 1.31236)
(0.120825 -0.459442 -1.30629)
(-0.0800344 -0.464817 -0.00241397)
(-0.0248277 -0.465422 -6.59221e-06)
(-0.079956 -0.464793 0.00240391)
(0.120515 -0.459444 1.30604)
(0.125335 -0.452334 -1.30068)
(-0.0736959 -0.458567 -0.00241206)
(-0.0187436 -0.459116 -1.65058e-05)
(-0.0745458 -0.458566 0.00240172)
(0.125988 -0.452355 1.30042)
(0.130219 -0.442934 -1.29569)
(-0.0665359 -0.450188 -0.00244335)
(-0.0118867 -0.450925 -1.28065e-05)
(-0.0670758 -0.450207 0.00244107)
(0.130825 -0.442924 1.29557)
(0.136977 -0.431158 -1.29147)
(-0.0595927 -0.439571 -0.00237918)
(-0.00462685 -0.440627 2.83455e-06)
(-0.0586634 -0.439568 0.00237852)
(0.135814 -0.431063 1.29151)
(0.145568 -0.416664 -1.28802)
(-0.0529044 -0.426544 -0.00231265)
(0.00303684 -0.427885 8.91131e-06)
(-0.0514274 -0.426549 0.00230975)
(0.143668 -0.416695 1.28813)
(0.153342 -0.399513 -1.28546)
(-0.0445042 -0.411088 -0.00223022)
(0.0114998 -0.41275 4.52251e-06)
(-0.0433197 -0.411078 0.00222136)
(0.151862 -0.399497 1.28558)
(0.161275 -0.379684 -1.28388)
(-0.0354007 -0.393207 -0.00210751)
(0.0206322 -0.395261 2.08837e-06)
(-0.0342756 -0.393208 0.00209538)
(0.159795 -0.379714 1.28396)
(0.169377 -0.357253 -1.28328)
(-0.0259201 -0.373 -0.0019517)
(0.0301382 -0.375503 -1.70116e-06)
(-0.0255679 -0.373015 0.00194581)
(0.168847 -0.357298 1.28327)
(0.177464 -0.332333 -1.28367)
(-0.0162788 -0.350616 -0.00176495)
(0.0399325 -0.353608 -1.6401e-06)
(-0.016174 -0.350632 0.00176518)
(0.177333 -0.33234 1.28362)
(0.185238 -0.30512 -1.28511)
(-0.00671203 -0.326249 -0.00155438)
(0.0498394 -0.329765 -8.64175e-07)
(-0.00668585 -0.326262 0.00155607)
(0.185229 -0.305112 1.28506)
(0.192243 -0.275864 -1.28762)
(0.00254644 -0.300167 -0.00133614)
(0.0596953 -0.304211 -1.14132e-07)
(0.00256086 -0.300177 0.00133821)
(0.192258 -0.275856 1.28759)
(0.19761 -0.24504 -1.29133)
(0.0114532 -0.272546 -0.00111942)
(0.0695259 -0.277215 4.10277e-07)
(0.0114663 -0.272553 0.00112162)
(0.197631 -0.245036 1.29132)
(0.199858 -0.213457 -1.278)
(0.020374 -0.243248 -0.000855702)
(0.0794682 -0.248995 6.59341e-07)
(0.0203867 -0.243253 0.000857795)
(0.19988 -0.213457 1.27799)
(0.0925738 -0.531334 -1.46287)
(-0.0494371 -0.332995 0.0183073)
(-0.0301019 -0.377033 1.83808e-07)
(-0.0494367 -0.332998 -0.018307)
(0.0925748 -0.531339 1.46287)
(0.0846772 -0.46555 -1.294)
(-0.0471342 -0.396381 0.0246142)
(-0.0274277 -0.393635 5.57331e-07)
(-0.0471337 -0.396384 -0.0246133)
(0.0846781 -0.465557 1.29399)
(0.0813348 -0.453686 -1.26265)
(-0.0497149 -0.406515 0.018693)
(-0.0309334 -0.398096 8.93473e-07)
(-0.0497141 -0.40652 -0.0186914)
(0.081336 -0.453695 1.26265)
(0.0781624 -0.442959 -1.22921)
(-0.0522392 -0.413962 0.0152931)
(-0.0343207 -0.4071 1.09205e-06)
(-0.0522375 -0.413968 -0.0152908)
(0.0781642 -0.442973 1.2292)
(0.0750064 -0.435869 -1.20326)
(-0.0540458 -0.417535 0.0135384)
(-0.0363073 -0.413004 5.93418e-07)
(-0.0540415 -0.417539 -0.0135344)
(0.0750088 -0.435896 1.20325)
(0.0721697 -0.432207 -1.18183)
(-0.0554947 -0.419872 0.0124699)
(-0.0376578 -0.417047 -4.10009e-06)
(-0.0554809 -0.419872 -0.0124583)
(0.0721648 -0.432252 1.18182)
(0.0697112 -0.43056 -1.16359)
(-0.0567411 -0.421897 0.0117968)
(-0.0387691 -0.420171 -1.05917e-05)
(-0.0567091 -0.421895 -0.0117763)
(0.0696837 -0.43062 1.16358)
(0.0675417 -0.430245 -1.14766)
(-0.0578656 -0.42394 0.0113604)
(-0.0397761 -0.422898 -1.97316e-05)
(-0.057817 -0.423945 -0.0113251)
(0.067476 -0.43029 1.14763)
(0.0655271 -0.430888 -1.13345)
(-0.0589066 -0.42618 0.0110402)
(-0.0407477 -0.425553 -1.09397e-05)
(-0.0588636 -0.426181 -0.0110167)
(0.0654462 -0.430918 1.13342)
(0.0636054 -0.432261 -1.12051)
(-0.0599162 -0.428693 0.0108164)
(-0.0417064 -0.428323 -2.08813e-05)
(-0.0598543 -0.428687 -0.010777)
(0.063495 -0.432271 1.12047)
(0.0617511 -0.43425 -1.10849)
(-0.060903 -0.431484 0.0106443)
(-0.0426677 -0.431295 -2.72523e-05)
(-0.0608425 -0.431498 -0.0105947)
(0.0616583 -0.43419 1.10844)
(0.0599353 -0.43671 -1.09714)
(-0.0618521 -0.43457 0.0104972)
(-0.0436196 -0.434505 -2.69876e-07)
(-0.0618206 -0.434606 -0.0104953)
(0.0598987 -0.436599 1.09712)
(0.0581811 -0.439518 -1.08628)
(-0.062756 -0.437932 0.0104034)
(-0.0445388 -0.437929 2.5949e-05)
(-0.0627698 -0.437959 -0.0104465)
(0.0582427 -0.439455 1.08629)
(0.0565599 -0.442614 -1.07607)
(-0.0635716 -0.44152 0.0103371)
(-0.0453627 -0.441547 2.43777e-05)
(-0.0635991 -0.441523 -0.0103744)
(0.056647 -0.442657 1.07608)
(0.0551215 -0.445945 -1.06607)
(-0.064265 -0.445267 0.0103191)
(-0.0460372 -0.445307 6.03797e-06)
(-0.0642773 -0.445246 -0.0103197)
(0.0551794 -0.44607 1.06605)
(0.0539421 -0.449467 -1.05643)
(-0.064752 -0.449057 0.0103101)
(-0.0464909 -0.449103 -2.39833e-05)
(-0.0647118 -0.449027 -0.0102644)
(0.0539196 -0.449624 1.05639)
(0.0530375 -0.453084 -1.0471)
(-0.0648966 -0.452809 0.0102508)
(-0.0466282 -0.452877 -4.85276e-05)
(-0.0647988 -0.452816 -0.0101772)
(0.0529161 -0.453163 1.04704)
(0.0524338 -0.456566 -1.03795)
(-0.0646153 -0.456464 0.0101446)
(-0.0463788 -0.456535 -1.97145e-05)
(-0.0645439 -0.456488 -0.0101233)
(0.052339 -0.456597 1.0379)
(0.0523229 -0.459729 -1.02913)
(-0.0638539 -0.459906 0.0100388)
(-0.0456349 -0.459947 -1.52512e-05)
(-0.0637762 -0.459889 -0.0100321)
(0.0521861 -0.459798 1.02908)
(0.052797 -0.462519 -1.02048)
(-0.062527 -0.462935 0.00998499)
(-0.0442973 -0.462972 -4.84873e-05)
(-0.0624222 -0.462931 -0.00993573)
(0.0526122 -0.462524 1.02041)
(0.0538903 -0.464771 -1.01214)
(-0.0604977 -0.465376 0.00990908)
(-0.0422714 -0.465429 -2.93849e-05)
(-0.0604324 -0.465421 -0.00989295)
(0.0537493 -0.464659 1.01207)
(0.055745 -0.466197 -1.00412)
(-0.0576802 -0.467106 0.00980583)
(-0.0394638 -0.467155 1.43829e-05)
(-0.0576726 -0.467138 -0.0098568)
(0.0556517 -0.466079 1.00405)
(0.0585114 -0.466628 -0.996433)
(-0.0540185 -0.467949 0.00973618)
(-0.0357877 -0.467982 2.10562e-05)
(-0.0540192 -0.467927 -0.00979634)
(0.0584297 -0.466576 0.996363)
(0.0622464 -0.465962 -0.989157)
(-0.0494298 -0.467679 0.00969156)
(-0.0311759 -0.467733 -7.58836e-06)
(-0.0494115 -0.467665 -0.00970226)
(0.0621635 -0.465893 0.989082)
(0.0669642 -0.463963 -0.982324)
(-0.0438334 -0.46614 0.00962732)
(-0.025571 -0.466225 5.05194e-06)
(-0.0438571 -0.466147 -0.00964179)
(0.0669748 -0.463869 0.982252)
(0.0728042 -0.460429 -0.975983)
(-0.0372246 -0.463158 0.00958004)
(-0.0189164 -0.463266 9.1286e-06)
(-0.0372502 -0.463146 -0.00959593)
(0.0728372 -0.460392 0.975901)
(0.0797785 -0.455282 -0.97022)
(-0.0295551 -0.458542 0.00954793)
(-0.0111785 -0.458696 7.09901e-06)
(-0.0295502 -0.458546 -0.00955885)
(0.0797439 -0.45525 0.970108)
(0.0877517 -0.448324 -0.965037)
(-0.0207991 -0.452169 0.00952412)
(-0.00234213 -0.452314 2.99257e-05)
(-0.0208288 -0.452166 -0.0095579)
(0.0877728 -0.44833 0.964926)
(0.0967169 -0.439311 -0.960456)
(-0.0110253 -0.443938 0.0094713)
(0.00759397 -0.444 1.3456e-05)
(-0.011045 -0.443867 -0.00947714)
(0.0967711 -0.439457 0.960369)
(0.106796 -0.428245 -0.956668)
(-0.000344495 -0.433871 0.00939509)
(0.0183999 -0.433953 -2.5662e-05)
(-0.000286514 -0.433787 -0.00934137)
(0.106707 -0.428425 0.956573)
(0.117801 -0.415247 -0.953639)
(0.0111012 -0.421898 0.00940283)
(0.0299928 -0.422143 -4.41536e-05)
(0.0111938 -0.421868 -0.00931691)
(0.117624 -0.415322 0.953525)
(0.129377 -0.400279 -0.951409)
(0.0232573 -0.407956 0.00940339)
(0.0422919 -0.40839 -4.20864e-05)
(0.0233373 -0.407961 -0.00931981)
(0.129234 -0.400235 0.951297)
(0.14139 -0.383262 -0.950077)
(0.0359139 -0.392173 0.00940772)
(0.0551241 -0.392803 -3.49993e-05)
(0.0359852 -0.392204 -0.0093372)
(0.141265 -0.383142 0.949971)
(0.15359 -0.364287 -0.949705)
(0.0488197 -0.374682 0.00943137)
(0.0682554 -0.375522 -1.28549e-05)
(0.0488551 -0.374717 -0.00939431)
(0.15353 -0.364141 0.949614)
(0.16564 -0.34351 -0.950403)
(0.0616907 -0.355646 0.00947437)
(0.0814409 -0.356728 -3.42835e-06)
(0.0617071 -0.35566 -0.0094552)
(0.165622 -0.343395 0.950333)
(0.177116 -0.321113 -0.952302)
(0.0742089 -0.335289 0.00953674)
(0.0944165 -0.336677 2.72004e-07)
(0.0742192 -0.335286 -0.00952663)
(0.177116 -0.321036 0.952252)
(0.187453 -0.297243 -0.955555)
(0.086056 -0.313927 0.00961203)
(0.106946 -0.315706 1.17423e-06)
(0.0860652 -0.313918 -0.0096058)
(0.187462 -0.297192 0.955523)
(0.195811 -0.272155 -0.960452)
(0.0970241 -0.291867 0.00974636)
(0.118865 -0.294209 1.28279e-06)
(0.0970334 -0.291858 -0.00974204)
(0.195823 -0.272121 0.960432)
(0.200938 -0.246556 -0.950772)
(0.107205 -0.268953 0.0100364)
(0.130012 -0.272348 1.21271e-06)
(0.107214 -0.268945 -0.0100332)
(0.200953 -0.246533 0.950761)
(0.0644409 -0.520116 -1.29381)
(-0.0290846 -0.340156 0.0160009)
(-0.0251814 -0.3816 1.63914e-07)
(-0.0290843 -0.34016 -0.0160006)
(0.0644415 -0.52012 1.2938)
(0.0598026 -0.458356 -1.13031)
(-0.0281622 -0.399512 0.0220174)
(-0.0243007 -0.398958 5.52488e-07)
(-0.0281621 -0.399516 -0.0220165)
(0.059803 -0.458362 1.1303)
(0.0568211 -0.449593 -1.09469)
(-0.0299346 -0.410192 0.0164253)
(-0.0272049 -0.404187 9.31698e-07)
(-0.0299346 -0.410197 -0.0164237)
(0.056821 -0.449601 1.09468)
(0.0538572 -0.441685 -1.06021)
(-0.0321858 -0.417664 0.0133268)
(-0.0301615 -0.412845 1.30517e-06)
(-0.0321859 -0.417671 -0.0133244)
(0.0538561 -0.441698 1.0602)
(0.0508563 -0.43675 -1.03344)
(-0.034199 -0.421454 0.0118072)
(-0.0323099 -0.418442 1.54383e-06)
(-0.0341988 -0.421463 -0.0118035)
(0.0508519 -0.436771 1.03343)
(0.0480369 -0.434426 -1.01142)
(-0.0360278 -0.423941 0.0109165)
(-0.0340596 -0.422158 1.02099e-06)
(-0.0360249 -0.42395 -0.0109099)
(0.0480208 -0.434458 1.01141)
(0.0454664 -0.433564 -0.992783)
(-0.0377216 -0.425995 0.0103614)
(-0.0356355 -0.424953 -5.24473e-07)
(-0.0377121 -0.426004 -0.0103508)
(0.0454265 -0.433604 0.992766)
(0.0431004 -0.433646 -0.976595)
(-0.0393218 -0.427969 0.0100014)
(-0.0371294 -0.427363 -2.43414e-06)
(-0.0393065 -0.427978 -0.00998661)
(0.0430302 -0.433681 0.976574)
(0.0408573 -0.434425 -0.962276)
(-0.0408575 -0.430045 0.0097488)
(-0.0385859 -0.42969 -2.45384e-06)
(-0.0408447 -0.430051 -0.00973436)
(0.0407735 -0.434447 0.962253)
(0.0387046 -0.435758 -0.949337)
(-0.0423592 -0.432303 0.00956216)
(-0.0400261 -0.432098 -3.71293e-06)
(-0.0423398 -0.432303 -0.00954457)
(0.0386049 -0.43576 0.949312)
(0.0366217 -0.437551 -0.937388)
(-0.0438326 -0.434769 0.00941717)
(-0.0414527 -0.434661 -3.43714e-06)
(-0.043814 -0.434768 -0.00940044)
(0.0365383 -0.43752 0.937364)
(0.034608 -0.439707 -0.926234)
(-0.0452546 -0.437454 0.00929888)
(-0.0428477 -0.437407 -4.25027e-07)
(-0.045245 -0.437456 -0.00929329)
(0.0345764 -0.439656 0.926222)
(0.0327074 -0.442143 -0.915656)
(-0.0465919 -0.440339 0.0092022)
(-0.0441751 -0.440326 3.46158e-06)
(-0.0465994 -0.440345 -0.0092081)
(0.0327438 -0.442112 0.915655)
(0.030998 -0.444801 -0.90578)
(-0.0477913 -0.44338 0.0091209)
(-0.0453602 -0.443386 4.84975e-06)
(-0.0478028 -0.44339 -0.00912709)
(0.0310511 -0.444821 0.905778)
(0.0295514 -0.44762 -0.896178)
(-0.0487802 -0.446524 0.00905391)
(-0.0463332 -0.446541 3.87004e-06)
(-0.0487867 -0.446537 -0.00905174)
(0.0295736 -0.447691 0.896164)
(0.0284498 -0.450535 -0.886983)
(-0.0494644 -0.449698 0.00899173)
(-0.0469952 -0.449715 -6.00935e-07)
(-0.0494535 -0.449711 -0.00897747)
(0.0284036 -0.450631 0.886956)
(0.02775 -0.453455 -0.878118)
(-0.0497145 -0.452818 0.00891867)
(-0.047225 -0.452831 -6.39616e-06)
(-0.0496845 -0.452835 -0.00889721)
(0.0276333 -0.453532 0.878088)
(0.0275365 -0.456238 -0.869489)
(-0.0494153 -0.455795 0.00883505)
(-0.0469201 -0.455798 -7.16741e-06)
(-0.0493971 -0.455812 -0.00882137)
(0.0274153 -0.456291 0.869469)
(0.0279826 -0.45875 -0.86121)
(-0.0484705 -0.458515 0.00875146)
(-0.0459542 -0.4585 -1.01265e-05)
(-0.0484479 -0.458521 -0.00874057)
(0.0278308 -0.458792 0.861197)
(0.0292133 -0.460874 -0.853118)
(-0.0467573 -0.460844 0.00867449)
(-0.0442118 -0.460816 -1.41242e-05)
(-0.0467258 -0.460847 -0.00866057)
(0.0290307 -0.46088 0.853104)
(0.0313215 -0.462461 -0.845356)
(-0.0441395 -0.462643 0.00859544)
(-0.0415701 -0.462605 -1.25476e-05)
(-0.0441226 -0.462647 -0.00859026)
(0.0311661 -0.46242 0.845348)
(0.0344449 -0.463333 -0.837903)
(-0.0405016 -0.463771 0.00851448)
(-0.0379077 -0.463725 -8.48721e-06)
(-0.0405068 -0.463768 -0.00852185)
(0.0343364 -0.463277 0.837901)
(0.0387296 -0.46334 -0.830765)
(-0.0357528 -0.46408 0.00844076)
(-0.0331234 -0.464029 -6.36228e-06)
(-0.0357617 -0.464065 -0.0084504)
(0.0386442 -0.463285 0.830759)
(0.04426 -0.462343 -0.823989)
(-0.0298002 -0.463412 0.00837318)
(-0.0271304 -0.463366 -5.42833e-06)
(-0.0298022 -0.463398 -0.00837677)
(0.0441867 -0.462275 0.823974)
(0.0510857 -0.460178 -0.81761)
(-0.022569 -0.461623 0.00830702)
(-0.0198664 -0.461584 -1.60978e-08)
(-0.0225864 -0.461612 -0.0083114)
(0.0510644 -0.460113 0.817588)
(0.0592852 -0.456704 -0.811656)
(-0.0140361 -0.458574 0.00824678)
(-0.0112888 -0.45854 2.35677e-06)
(-0.0140565 -0.458559 -0.00824993)
(0.0592864 -0.456669 0.811625)
(0.0688557 -0.451818 -0.806195)
(-0.00418305 -0.45414 0.00818708)
(-0.00138595 -0.454125 2.41517e-06)
(-0.00419399 -0.454129 -0.00818664)
(0.0688409 -0.451796 0.80615)
(0.0797162 -0.445399 -0.801258)
(0.00697632 -0.448251 0.00812561)
(0.00981664 -0.448303 5.32217e-06)
(0.00695174 -0.44824 -0.00812664)
(0.0797216 -0.445393 0.80121)
(0.0918179 -0.437333 -0.796865)
(0.0193643 -0.440881 0.00810718)
(0.0222924 -0.440958 2.98179e-06)
(0.019346 -0.440861 -0.00810274)
(0.0918124 -0.437372 0.796818)
(0.105124 -0.427562 -0.793081)
(0.0328584 -0.431913 0.00809394)
(0.0359269 -0.432002 -1.74171e-06)
(0.0328788 -0.431893 -0.00807574)
(0.105031 -0.427617 0.793025)
(0.119417 -0.416104 -0.789997)
(0.0472565 -0.42129 0.00809983)
(0.0504717 -0.421472 -4.78591e-06)
(0.0472955 -0.421277 -0.00807319)
(0.119266 -0.416122 0.789934)
(0.134387 -0.402978 -0.787669)
(0.0623827 -0.409105 0.00811794)
(0.0657452 -0.409405 -4.51151e-06)
(0.0624176 -0.409097 -0.00809148)
(0.134238 -0.40295 0.787607)
(0.149762 -0.388196 -0.786194)
(0.0779681 -0.395452 0.00815416)
(0.0815024 -0.395895 -3.31553e-06)
(0.0779968 -0.395446 -0.00813105)
(0.149635 -0.388136 0.786135)
(0.165211 -0.371834 -0.785662)
(0.0936907 -0.380449 0.00821636)
(0.0974391 -0.381074 -5.95774e-07)
(0.0937033 -0.380442 -0.00820027)
(0.165129 -0.37176 0.785612)
(0.180329 -0.354003 -0.786222)
(0.109186 -0.364251 0.00831004)
(0.113221 -0.365111 1.02258e-06)
(0.109189 -0.364238 -0.00829953)
(0.180285 -0.353936 0.786183)
(0.194643 -0.334826 -0.78806)
(0.124056 -0.347046 0.00843771)
(0.128485 -0.348227 1.6207e-06)
(0.124057 -0.347031 -0.00843064)
(0.194621 -0.334772 0.78803)
(0.207581 -0.314368 -0.791399)
(0.137884 -0.329106 0.00859784)
(0.142864 -0.330715 1.66839e-06)
(0.137886 -0.32909 -0.00859278)
(0.207572 -0.314325 0.791377)
(0.218425 -0.292783 -0.796624)
(0.150299 -0.310673 0.00884584)
(0.156031 -0.3129 1.56015e-06)
(0.150302 -0.310658 -0.00884204)
(0.218424 -0.292749 0.796609)
(0.226267 -0.270601 -0.789527)
(0.161065 -0.291521 0.00927884)
(0.167638 -0.294839 1.39758e-06)
(0.161069 -0.291509 -0.0092759)
(0.226271 -0.270576 0.789517)
(0.0440118 -0.517165 -1.18574)
(-0.0169979 -0.34488 0.0135982)
(-0.0176918 -0.381208 1.47421e-07)
(-0.0169979 -0.344883 -0.013598)
(0.0440121 -0.517169 1.18573)
(0.0409773 -0.456874 -1.02904)
(-0.0166517 -0.401504 0.0187572)
(-0.0177233 -0.400266 4.85123e-07)
(-0.0166519 -0.401507 -0.0187564)
(0.0409771 -0.456879 1.02903)
(0.0386052 -0.448498 -0.992678)
(-0.0179954 -0.412217 0.0130178)
(-0.0201319 -0.406483 8.52862e-07)
(-0.017996 -0.412221 -0.0130163)
(0.0386042 -0.448505 0.992669)
(0.0360661 -0.441625 -0.958495)
(-0.0199505 -0.419611 0.0100137)
(-0.0226133 -0.415361 1.25341e-06)
(-0.0199518 -0.419617 -0.0100115)
(0.0360634 -0.441635 0.958486)
(0.0333478 -0.43765 -0.931822)
(-0.0219622 -0.423574 0.00861879)
(-0.0247309 -0.42107 1.65194e-06)
(-0.0219646 -0.423582 -0.00861565)
(0.0333417 -0.437665 0.931811)
(0.030654 -0.435952 -0.909892)
(-0.0239616 -0.426216 0.00784236)
(-0.0266816 -0.424805 1.94862e-06)
(-0.0239651 -0.426226 -0.00783789)
(0.0306402 -0.435972 0.909879)
(0.028073 -0.435449 -0.891372)
(-0.0259246 -0.428332 0.00737807)
(-0.0285616 -0.427541 1.96644e-06)
(-0.0259292 -0.428342 -0.007372)
(0.0280465 -0.435472 0.891357)
(0.0256012 -0.435676 -0.875343)
(-0.0278535 -0.430269 0.00708727)
(-0.0304119 -0.429824 1.87867e-06)
(-0.027859 -0.430278 -0.00707979)
(0.0255599 -0.435697 0.875326)
(0.0232064 -0.436435 -0.861237)
(-0.0297562 -0.432208 0.00689194)
(-0.0322508 -0.431956 1.67086e-06)
(-0.0297639 -0.432214 -0.0068839)
(0.0231566 -0.436449 0.86122)
(0.0208776 -0.437621 -0.848532)
(-0.0316395 -0.434238 0.00675139)
(-0.0340809 -0.434096 1.52103e-06)
(-0.0316463 -0.43424 -0.00674298)
(0.0208227 -0.437622 0.848514)
(0.0186111 -0.439157 -0.836863)
(-0.0334881 -0.4364 0.00664531)
(-0.035888 -0.436326 1.51023e-06)
(-0.0334929 -0.436398 -0.00663804)
(0.018565 -0.439145 0.836848)
(0.0164317 -0.440976 -0.826041)
(-0.0352685 -0.438711 0.0065618)
(-0.0376374 -0.438678 1.3327e-06)
(-0.0352721 -0.438709 -0.00655728)
(0.0164089 -0.440959 0.82603)
(0.0143941 -0.443018 -0.815827)
(-0.0369291 -0.441162 0.0064922)
(-0.0392754 -0.441153 1.57488e-06)
(-0.0369329 -0.441165 -0.00649043)
(0.0143976 -0.44301 0.81582)
(0.012576 -0.445235 -0.80633)
(-0.0383965 -0.443722 0.00643289)
(-0.0407247 -0.443727 2.23163e-06)
(-0.0384011 -0.443731 -0.0064311)
(0.0125874 -0.44525 0.806322)
(0.0110679 -0.447571 -0.797137)
(-0.039578 -0.446346 0.00638043)
(-0.0418917 -0.446363 2.82376e-06)
(-0.0395843 -0.446362 -0.00637624)
(0.0110655 -0.447609 0.797124)
(0.00997434 -0.449957 -0.788363)
(-0.0403643 -0.448983 0.00633223)
(-0.0426642 -0.449003 2.60529e-06)
(-0.0403715 -0.449002 -0.00632486)
(0.00994156 -0.45001 0.788346)
(0.00940314 -0.452319 -0.779931)
(-0.0406278 -0.451561 0.0062838)
(-0.0429128 -0.451579 1.50829e-06)
(-0.0406351 -0.45158 -0.00627462)
(0.00933862 -0.45237 0.779913)
(0.0094809 -0.454556 -0.771747)
(-0.0402341 -0.454 0.00623423)
(-0.0425043 -0.454012 9.56595e-08)
(-0.0402457 -0.454016 -0.00622598)
(0.00940252 -0.454597 0.771733)
(0.0103612 -0.456564 -0.763904)
(-0.039045 -0.456203 0.00618595)
(-0.0412956 -0.456209 -1.37652e-06)
(-0.0390581 -0.456214 -0.00617846)
(0.0102682 -0.456591 0.763895)
(0.012192 -0.45823 -0.756241)
(-0.0369158 -0.458066 0.00613917)
(-0.039143 -0.458065 -2.35598e-06)
(-0.0369281 -0.458071 -0.00613264)
(0.0120873 -0.458238 0.756234)
(0.0151109 -0.459428 -0.74889)
(-0.0337017 -0.459475 0.00609398)
(-0.035904 -0.459468 -3.06334e-06)
(-0.0337167 -0.459473 -0.00608999)
(0.0150143 -0.459417 0.748887)
(0.0192618 -0.46003 -0.741822)
(-0.0292674 -0.460309 0.00605086)
(-0.0314426 -0.4603 -3.27071e-06)
(-0.0292852 -0.4603 -0.0060496)
(0.0191817 -0.460005 0.741822)
(0.0247779 -0.459906 -0.735029)
(-0.0234945 -0.460442 0.0060117)
(-0.0256396 -0.460437 -2.71172e-06)
(-0.0235115 -0.46043 -0.00601134)
(0.0247107 -0.459871 0.735029)
(0.0317604 -0.458925 -0.728551)
(-0.016283 -0.459752 0.0059772)
(-0.0183963 -0.459755 -1.40808e-06)
(-0.0162974 -0.459737 -0.00597628)
(0.031706 -0.458883 0.728547)
(0.0402797 -0.45696 -0.722417)
(-0.00755981 -0.458115 0.00594756)
(-0.00964143 -0.458131 1.27707e-07)
(-0.00757549 -0.4581 -0.00594637)
(0.040246 -0.456921 0.722409)
(0.0503808 -0.45389 -0.716649)