/*--------------------------------*- C++ -*----------------------------------*\
  =========                 |
  \\      /  F ield         | OpenFOAM: The Open Source CFD Toolbox
   \\    /   O peration     | Website:  https://openfoam.org
    \\  /    A nd           | Version:  9
     \\/     M anipulation  |
\*---------------------------------------------------------------------------*/
FoamFile
{
    format      ascii;
    class       volScalarField;
    location    "1";
    object      epsilon;
}
// * * * * * * * * * * * * * * * * * * * * * * * * * * * * * * * * * * * * * //

dimensions      [0 2 -3 0 0 0 0];

internalField   nonuniform List<scalar> 
4545
(
0.00427682
0.00386719
0.00338828
0.00386715
0.00427658
0.0116192
0.029073
0.00479234
0.0290709
0.0116079
0.15244
0.373136
0.0679795
0.373152
0.152387
1.66436
2.20616
0.928762
2.20635
1.66434
5.49995
5.23039
3.35146
5.23047
5.49979
8.91963
7.99157
5.75269
7.99103
8.91876
11.4352
10.1588
7.70238
10.158
11.4341
13.1882
11.7461
9.16415
11.7454
13.1872
14.3655
12.8459
10.2025
12.8454
14.365
15.1068
13.5541
10.8824
13.5533
15.1051
15.5151
13.9553
11.2753
13.9543
15.5135
15.6626
14.1083
11.4395
14.1083
15.6617
15.6541
14.1035
11.4475
14.1036
15.654
15.5345
13.9908
11.3648
13.9918
15.5431
15.2738
13.7363
11.1577
13.7364
15.2847
14.9526
13.4189
10.8902
13.4141
14.9444
14.5959
13.0629
10.5926
13.0591
14.5835
14.2166
12.6959
10.2854
12.696
14.2139
13.8384
12.3363
9.98164
12.343
13.8467
13.4742
11.9912
9.68531
12.0003
13.4908
13.1317
11.6631
9.39666
11.6586
13.1309
12.8024
11.3345
9.11447
11.3261
12.7944
12.4541
10.999
8.83716
11.0115
12.4707
12.1157
10.6766
8.56468
10.7032
12.1494
11.8023
10.369
8.29656
10.3854
11.8237
11.4862
10.0622
8.03159
10.0644
11.493
11.1698
9.7554
7.77217
9.75824
11.1717
10.8572
9.45384
7.51965
9.46754
10.8655
10.5483
9.15584
7.27139
9.18092
10.5752
10.2468
8.86607
7.02603
8.89123
10.2786
9.95079
8.58496
6.7835
8.60138
9.97621
9.65679
8.30063
6.54209
8.31307
9.67533
9.36019
8.01378
6.30038
8.02302
9.37244
9.05779
7.7239
6.05706
7.72949
9.06573
8.74895
7.42876
5.81073
7.43154
8.75294
8.43333
7.12803
5.55984
7.12921
8.43467
8.10937
6.81908
5.30147
6.81948
8.10956
7.77312
6.4928
5.03022
6.4927
7.77277
7.40657
6.1237
4.73904
6.12314
7.40562
0.0613907
0.247305
0.00944215
0.247289
0.0613944
0.655899
1.71226
0.154619
1.71215
0.655825
3.496
4.68046
1.28185
4.68027
3.4958
9.18472
8.19366
4.12893
8.19363
9.18501
12.8598
11.0148
6.87862
11.015
12.8603
15.1822
12.9951
8.93891
12.9951
15.182
16.6497
14.3417
10.3969
14.3417
16.6495
17.5787
15.2268
11.3873
15.227
17.5787
18.1423
15.7758
12.0285
15.7762
18.1427
18.442
16.0797
12.4113
16.0801
18.4429
18.5491
16.2028
12.6021
16.2032
18.5511
18.522
16.1955
12.6503
16.1963
18.5268
18.4063
16.1034
12.6054
16.1042
18.4053
18.2108
15.9274
12.4787
15.9287
18.2104
17.9355
15.6834
12.2807
15.6862
17.9494
17.6233
15.3977
12.0401
15.3865
17.6169
17.2992
15.0934
11.7762
15.0663
17.2586
16.9484
14.7771
11.5065
14.7559
16.9119
16.5894
14.4548
11.2418
14.4488
16.5789
16.2435
14.1541
10.9891
14.1622
16.2607
15.9448
13.8975
10.7457
13.865
15.919
15.669
13.6319
10.5064
13.5943
15.6143
15.3301
13.3286
10.2718
13.3545
15.3513
15.003
13.0599
10.0451
13.1063
15.0747
14.7414
12.8321
9.82093
12.8534
14.7903
14.4783
12.6001
9.59499
12.568
14.4492
14.1953
12.3558
9.37481
12.3216
14.1383
13.9136
12.1072
9.16038
12.1049
13.895
13.6128
11.8436
8.94559
11.8601
13.6239
13.3058
11.5946
8.73415
11.631
13.3524
13.0345
11.3697
8.52616
11.4089
13.0993
12.7715
11.143
8.31538
11.1659
12.819
12.5036
10.9089
8.10066
10.9183
12.5268
12.2188
10.6595
7.88051
10.6649
12.2282
11.9159
10.4006
7.65367
10.4034
11.9206
11.6026
10.132
7.41837
10.1329
11.6044
11.2779
9.84812
7.16977
9.84812
11.278
10.937
9.53193
6.89738
9.53138
10.9362
10.5377
9.12964
6.58636
9.12868
10.5364
0.0696143
0.24919
0.0100848
0.249183
0.0696128
1.02986
2.08925
0.253059
2.08919
1.02981
5.36206
5.89056
2.06021
5.8905
5.36199
11.8281
10.1018
5.91248
10.1017
11.828
15.4435
13.0725
9.03145
13.0725
15.4435
17.5034
15.005
11.2111
15.0051
17.5034
18.6897
16.2281
12.6674
16.2282
18.6899
19.3674
16.9774
13.609
16.9778
19.368
19.7249
17.4055
14.1887
17.4061
19.7258
19.8669
17.6103
14.512
17.6112
19.8682
19.8608
17.6573
14.6521
17.6584
19.8624
19.7634
17.6016
14.6621
17.6031
19.7657
19.5831
17.4622
14.5843
17.4642
19.586
19.3432
17.2567
14.4266
17.2592
19.3472
19.0544
17.001
14.2119
17.0048
19.0612
18.733
16.7116
13.9589
16.716
18.7403
18.3954
16.404
13.6834
16.4049
18.3972
18.05
16.0888
13.3988
16.0872
18.0477
17.7001
15.7712
13.114
15.7728
17.7003
17.353
15.4586
12.8352
15.4701
17.3669
17.0182
15.1564
12.5631
15.1736
17.0388
16.6928
14.8606
12.2972
14.8802
16.7173
16.3544
14.5605
12.0361
14.587
16.3943
16.0261
14.2699
11.7804
14.3012
16.0684
15.6986
13.9828
11.5313
14.0307
15.7564
15.3934
13.7221
11.2882
13.7686
15.4508
15.1204
13.4783
11.0483
13.5113
15.1582
14.8231
13.2142
10.8087
13.2488
14.865
14.524
12.9599
10.5701
12.9818
14.559
14.2328
12.7062
10.3309
12.7145
14.2515
13.9319
12.4415
10.0903
12.4463
13.9437
13.6218
12.172
9.84705
12.1752
13.6295
13.3057
11.8977
9.60021
11.9003
13.3104
12.9822
11.6181
9.34851
11.6201
12.9857
12.6516
11.3318
9.09021
11.3331
12.6539
12.3122
11.0356
8.82215
11.0363
12.3134
11.9595
10.7218
8.53796
10.7221
11.96
11.585
10.3721
8.2266
10.3721
11.5849
11.1443
9.93934
7.87644
9.93909
11.1439
0.0760862
0.309603
0.0120943
0.309605
0.0760866
1.28289
2.42744
0.358576
2.42741
1.28288
6.41204
6.6244
2.62628
6.62435
6.41201
13.1393
11.1462
6.98888
11.1462
13.1393
16.7732
14.229
10.3201
14.229
16.7732
18.7681
16.1824
12.5951
16.1825
18.7682
19.8648
17.3794
14.0787
17.3797
19.8652
20.4503
18.0839
15.0129
18.0844
20.451
20.7241
18.4639
15.5704
18.4646
20.7252
20.795
18.6244
15.8668
18.6254
20.7965
20.7397
18.6354
15.9809
18.6365
20.7415
20.5965
18.5515
15.9694
18.5529
20.5988
20.3828
18.3845
15.8683
18.3863
20.3858
20.1193
18.1607
15.6925
18.1633
20.1236
19.8176
17.8938
15.4647
17.8977
19.824
19.4903
17.5977
15.2014
17.6032
19.499
19.1488
17.2851
14.9167
17.2912
19.1586
18.8016
16.9655
14.6219
16.9719
18.8116
18.4538
16.6453
14.3249
16.6527
18.4652
18.1084
16.3281
14.0307
16.3382
18.1241
17.7664
16.0151
13.741
16.0292
17.7881
17.4288
15.7075
13.4562
15.724
17.4544
17.0935
15.4043
13.176
15.4221
17.1213
16.7616
15.1053
12.9
15.1234
16.7895
16.4329
14.8109
12.6283
14.8287
16.461
16.1102
14.5221
12.3604
14.5369
16.1343
15.792
14.2375
12.0958
14.2472
15.8082
15.4708
13.9534
11.8333
13.9592
15.4819
15.1497
13.6697
11.5716
13.6715
15.1545
14.8255
13.3838
11.3088
13.3831
14.8254
14.4946
13.0937
11.0438
13.0925
14.4933
14.1582
12.7995
10.7756
12.7988
14.1573
13.8168
12.5012
10.5037
12.5012
13.8168
13.4705
12.1984
10.2269
12.1988
13.4713
13.1184
11.8893
9.9436
11.8899
13.1194
12.7577
11.5702
9.64997
11.5709
12.7587
12.3836
11.2333
9.33949
11.2339
12.3844
11.9885
10.8619
9.00208
10.8624
11.9891
11.5338
10.4148
8.62924
10.4151
11.5342
0.0783192
0.311797
0.0125555
0.311781
0.0783172
1.38888
2.54146
0.405995
2.54138
1.38883
6.88899
6.9779
2.9434
6.97779
6.88887
13.7853
11.6924
7.59128
11.6924
13.7853
17.4645
14.8643
11.0653
14.8644
17.4646
19.4591
16.855
13.412
16.8552
19.4594
20.536
18.0602
14.927
18.0606
20.5365
21.0926
18.7568
15.8695
18.7574
21.0935
21.3356
19.1216
16.423
19.1223
21.3369
21.3775
19.2647
16.7097
19.2657
21.3792
21.3006
19.2604
16.8125
19.2615
21.3026
21.1348
19.1612
16.7901
19.1626
21.1371
20.9043
18.9805
16.6761
18.9822
20.9071
20.6281
18.746
16.4899
18.7483
20.6319
20.3177
18.471
16.2533
18.4744
20.3231
19.9845
18.1686
15.9821
18.1732
19.992
19.6383
17.8498
15.6892
17.8552
19.6469
19.2864
17.5236
15.3854
17.5293
19.2955
18.9345
17.1966
15.0786
17.2027
18.9444
18.5851
16.8721
14.7736
16.8793
18.5967
18.2389
16.5516
14.4723
16.5603
18.253
17.8961
16.2353
14.175
16.2444
17.911
17.5566
15.9235
13.882
15.9313
17.5697
17.2205
15.6162
13.5936
15.6217
17.23
16.8871
15.313
13.3096
15.3154
16.8919
16.5554
15.0132
13.0295
15.0125
16.5552
16.224
14.7154
12.7524
14.7128
16.2204
15.891
14.4179
12.4769
14.4149
15.8865
15.5551
14.1191
12.2011
14.1163
15.5508
15.2152
13.8178
11.9234
13.8153
15.2113
14.8702
13.5128
11.6428
13.5109
14.8672
14.5201
13.2039
11.3588
13.2027
14.5183
14.1652
12.8908
11.0707
12.8904
14.1645
13.8051
12.5729
10.7775
12.5732
13.8054
13.4388
12.2485
10.4774
12.2491
13.4398
13.0636
11.9138
10.1666
11.9147
13.0649
12.6751
11.5616
9.83887
11.5624
12.6764
12.2676
11.1768
9.48525
11.1776
12.2689
11.8071
10.723
9.09945
10.7237
11.8082
0.0785075
0.325122
0.0131269
0.325087
0.0785014
1.42085
2.61572
0.435987
2.61557
1.42072
7.07386
7.1526
3.11428
7.15241
7.07357
14.1114
11.983
7.92122
11.9829
14.1113
17.8451
15.2226
11.4908
15.2227
17.8452
19.8597
17.2503
13.8933
17.2505
19.86
20.9399
18.4728
15.4385
18.4732
20.9406
21.4916
19.1748
16.3952
19.1755
21.4926
21.7257
19.5384
16.9535
19.5393
21.7271
21.7575
19.677
17.2398
19.6781
21.7593
21.672
19.6676
17.3398
19.6689
21.674
21.4963
19.5618
17.3132
19.5632
21.4987
21.2583
19.3748
17.1935
19.3765
21.261
20.9762
19.1351
17.0023
19.1372
20.9796
20.6616
18.8559
16.7612
18.8587
20.6662
20.3257
18.5499
16.4854
18.5534
20.3315
19.9767
18.2272
16.1875
18.2313
19.9834
19.6218
17.8963
15.8779
17.9008
19.629
19.2666
17.5642
15.5649
17.5695
19.2752
18.9143
17.2347
15.2535
17.2415
18.9252
18.566
16.9096
14.946
16.918
18.5795
18.2214
16.5888
14.6425
16.5979
18.2361
17.8801
16.2723
14.3434
16.2809
17.8941
17.542
15.9602
14.0489
15.9674
17.5537
17.2067
15.6524
13.7589
15.6573
17.2149
16.8738
15.3483
13.4732
15.3505
16.8777
16.5418
15.0466
13.1904
15.0463
16.5417
16.2078
14.7446
12.9086
14.7429
16.2051
15.8696
14.4406
12.6259
14.4382
15.8659
15.5264
14.1333
12.3411
14.1309
15.5226
15.1774
13.8219
12.0529
13.82
15.1743
14.8225
13.506
11.7608
13.5049
14.8207
14.4618
13.1852
11.4639
13.1849
14.4612
14.095
12.8588
11.1613
12.8591
14.0954
13.7208
12.5251
10.8509
12.5259
13.722
13.337
12.1807
10.5293
12.1817
13.3385
12.9396
11.8187
10.1906
11.8197
12.9413
12.525
11.4254
9.82654
11.4264
12.5267
12.0622
10.9669
9.43214
10.9679
12.0637
0.0773293
0.321463
0.0130727
0.321403
0.0773271
1.40614
2.62191
0.440861
2.62173
1.40605
7.08928
7.20369
3.17324
7.20351
7.08905
14.2581
12.1182
8.08069
12.1182
14.2581
18.0502
15.414
11.7205
15.4141
18.0503
20.0922
17.4762
14.1684
17.4765
20.0927
21.1849
18.7186
15.7413
18.7191
21.1857
21.7414
19.4314
16.7142
19.4321
21.7425
21.9763
19.8001
17.2815
19.801
21.9778
22.0069
19.9406
17.5723
19.9418
22.0088
21.9194
19.9313
17.6742
19.9326
21.9216
21.7413
19.8243
17.6477
19.8258
21.7437
21.5013
19.636
17.5271
19.6376
21.504
21.2181
19.3951
17.3348
19.397
21.2213
20.9034
19.1151
17.0927
19.1175
20.9074
20.5685
18.8089
16.8162
18.8119
20.5733
20.2212
18.4864
16.5176
18.4898
20.2268
19.8681
18.1555
16.2072
18.1596
19.8748
19.5147
17.8229
15.8929
17.8284
19.5235
19.164
17.4926
15.5796
17.4999
19.1758
18.8175
17.1664
15.2701
17.1758
18.8326
18.4751
16.8449
14.9649
16.8558
18.4927
18.1361
16.5275
14.664
16.539
18.1547
17.8
16.2141
14.3674
16.2253
17.8181
17.4666
15.9047
14.0751
15.9146
17.4826
17.1365
15.5997
13.7872
15.6068
17.1482
16.8087
15.2981
13.5029
15.3016
16.8146
16.4802
14.9974
13.2204
14.9977
16.4807
16.1478
14.695
12.9374
14.6932
16.145
15.8097
14.389
12.6523
14.3865
15.8056
15.4647
14.0781
12.3633
14.0759
15.461
15.1123
13.7616
12.0695
13.7601
15.1099
14.7524
13.4389
11.7699
13.4384
14.7515
14.3847
13.1093
11.4633
13.1096
14.385
14.0079
12.7713
11.1479
12.772
14.0091
13.62
12.4214
10.8202
12.4225
13.6216
13.2178
12.0535
10.4747
12.0546
13.2196
12.799
11.6547
10.1038
11.6558
12.8008
12.3343
11.1925
9.70298
11.1935
12.336
0.0759044
0.318705
0.0129565
0.318688
0.0758998
1.37434
2.60789
0.436719
2.60778
1.37423
7.02402
7.19098
3.17211
7.19083
7.02376
14.3035
12.1633
8.13793
12.1632
14.3034
18.1508
15.5045
11.8295
15.5047
18.151
20.2218
17.5972
14.3144
17.5975
20.2223
21.3301
18.8589
15.9118
18.8595
21.3309
21.8952
19.5838
16.9007
19.5846
21.8964
22.1351
19.9602
17.4782
19.9612
22.1367
22.1688
20.1056
17.7758
20.1068
22.1709
22.083
20.099
17.8819
20.1004
22.0852
21.9066
19.9942
17.858
19.9957
21.9091
21.6684
19.8075
17.7396
19.8092
21.6711
21.3876
19.5683
17.5491
19.5702
21.3907
21.076
19.2905
17.3089
19.2927
21.0797
20.7452
18.9869
17.0346
18.9896
20.7495
20.4029
18.6675
16.7385
18.6707
20.4082
20.0554
18.3398
16.4306
18.344
20.0621
19.7078
18.0104
16.1185
18.016
19.7169
19.3629
17.6827
15.807
17.6904
19.3752
19.022
17.359
15.4991
17.3691
19.0382
18.686
17.0403
15.1958
17.0524
18.7053
18.3545
16.7265
14.8973
16.7392
18.3751
18.0265
16.4168
14.6031
16.4291
18.0465
17.7014
16.1111
14.3132
16.1219
17.719
17.3802
15.8102
14.0282
15.818
17.393
17.0625
15.5138
13.7476
15.5173
17.0684
16.7454
15.2194
13.4696
15.2188
16.7448
16.4248
14.9235
13.1917
14.9206
16.4201
16.098
14.6238
12.9116
14.6202
16.0921
15.7632
14.3185
12.6271
14.3153
15.7581
15.4197
14.0064
12.3369
14.0044
15.4163
15.0669
13.6869
12.0396
13.686
15.0653
14.704
13.359
11.734
13.3589
14.704
14.33
13.0209
11.418
13.0215
14.3309
13.9425
12.6695
11.0882
12.6705
13.9441
13.5391
12.2988
10.7394
12.2999
13.5409
13.1185
11.8966
10.3641
11.8978
13.1204
12.6523
11.4315
9.95823
11.4326
12.6542
0.0744653
0.312104
0.0126911
0.312097
0.0744646
1.33598
2.57594
0.425579
2.57587
1.33594
6.9201
7.14174
3.13522
7.14163
6.91998
14.2904
12.1546
8.13319
12.1546
14.2904
18.187
15.5325
11.863
15.5327
18.1872
20.2855
17.6511
14.3773
17.6515
20.286
21.4096
18.9302
15.9954
18.9308
21.4105
21.9845
19.6668
16.9984
19.6676
21.9858
22.2312
20.0513
17.5859
20.0523
22.2329
22.2701
20.2026
17.8906
20.2038
22.2721
22.1878
20.2
18.0019
20.2013
22.19
22.0156
20.0992
17.9822
20.1007
22.0181
21.7815
19.9161
17.8679
19.9178
21.7842
21.5055
19.6806
17.6809
19.6824
21.5085
21.1993
19.4067
17.4446
19.4089
21.2029
20.8745
19.1075
17.1743
19.1102
20.8789
20.5392
18.7928
16.8825
18.7961
20.5446
20.1996
18.4704
16.5791
18.4746
20.2063
19.8609
18.1467
16.2717
18.1519
19.8694
19.526
17.8253
15.9651
17.8317
19.5363
19.1961
17.5084
15.6625
17.5163
19.2089
18.8721
17.1971
15.3652
17.2063
18.887
18.5541
16.8916
15.0735
16.9009
18.5692
18.2406
16.5912
14.787
16.5995
18.2543
17.9311
16.2953
14.5055
16.3019
17.942
17.6257
16.0044
14.2293
16.0084
17.6325
17.3241
15.718
13.9579
15.7188
17.3256
17.0234
15.4339
13.6895
15.4318
17.0202
16.7199
15.1488
13.4214
15.1451
16.714
16.4105
14.8599
13.151
14.8561
16.4041
16.093
14.5653
12.8761
14.5621
16.0878
15.7659
14.2633
12.5947
14.2613
15.7625
15.4278
13.9527
12.3051
13.9517
15.4262
15.0775
13.632
12.0058
13.6319
15.0773
14.713
13.2991
11.6942
13.2996
14.7139
14.3321
12.9507
11.3668
12.9515
14.3335
13.9321
12.5808
11.0182
12.5818
13.9338
13.5127
12.1776
10.6411
12.1787
13.5146
13.0459
11.7104
10.2312
11.7115
13.0477
0.0732095
0.305344
0.0124041
0.305332
0.0732089
1.29795
2.53748
0.411777
2.5374
1.29792
6.80281
7.07394
3.07972
7.07381
6.80264
14.2427
12.1131
8.08944
12.1131
14.2426
18.1804
15.5192
11.846
15.5193
18.1806
20.303
17.6585
14.3823
17.6589
20.3035
21.4416
18.9519
16.0163
18.9525
21.4425
22.0261
19.6986
17.0308
19.6994
22.0274
22.2799
20.0905
17.6268
20.0915
22.2815
22.3247
20.2477
17.9382
20.249
22.3267
22.2469
20.2497
18.0549
20.2511
22.2492
22.0804
20.1537
18.0398
20.1552
22.0828
21.852
19.9755
17.9306
19.977
21.8545
21.5823
19.7449
17.7485
19.7466
21.5851
21.2831
19.4764
17.5173
19.4784
21.2864
20.9658
19.1826
17.2523
19.1852
20.97
20.6384
18.8735
16.9658
18.877
20.644
20.3075
18.5571
16.6679
18.5616
20.3147
19.9786
18.2399
16.3665
18.2455
19.9876
19.655
17.9259
16.0666
17.9326
19.6657
19.3382
17.6177
15.7717
17.6256
19.3509
19.0293
17.3165
15.4834
17.3254
19.0435
18.7288
17.0231
15.2024
17.0318
18.7428
18.4356
16.7366
14.9285
16.7443
18.4481
18.1483
16.4563
14.6612
16.4626
18.1587
17.8668
16.1819
14.4002
16.1862
17.8739
17.5899
15.9126
14.1445
15.9143
17.593
17.3148
15.6457
13.8919
15.6452
17.3141
17.0376
15.3781
13.6398
15.3762
17.0347
16.7553
15.1071
13.3856
15.1049
16.7517
16.4653
14.8305
13.1267
14.8287
16.4623
16.1653
14.5462
12.8611
14.545
16.1635
15.8532
14.2523
12.5866
14.2519
15.8526
15.5266
13.9468
12.3009
13.9469
15.5269
15.1825
13.6267
12.0008
13.6272
15.1834
14.8176
13.288
11.6822
13.2888
14.819
14.4289
12.9244
11.3391
12.9254
14.4305
14.0165
12.5241
10.9638
12.5251
14.0183
13.552
12.0565
10.5516
12.0575
13.5538
0.0721602
0.297582
0.0120881
0.297554
0.0721566
1.2624
2.49393
0.396168
2.49378
1.26227
6.682
6.99409
3.01234
6.99384
6.68157
14.169
12.0464
8.01529
12.0463
14.1689
18.138
15.4718
11.7874
15.4719
18.1382
20.2803
17.6261
14.3378
17.6264
20.2808
21.4312
18.9301
15.9825
18.9307
21.4321
22.0243
19.6845
17.0051
19.6853
22.0255
22.2848
20.0827
17.6076
20.0836
22.2865
22.3357
20.2453
17.9245
20.2465
22.3377
22.2632
20.2521
18.0464
20.2534
22.2653
22.1029
20.1609
18.0359
20.1623
22.1052
21.8812
19.9883
17.9324
19.9896
21.8835
21.619
19.7637
17.7559
19.7651
21.6214
21.3282
19.5016
17.531
19.5031
21.3306
21.02
19.2146
17.2723
19.2164
21.0229
20.7024
18.9126
16.9924
18.9149
20.7061
20.3818
18.6034
16.7014
18.6066
20.3867
20.0642
18.294
16.4073
18.2982
20.0707
19.7531
17.9887
16.1157
17.994
19.7614
19.4506
17.6903
15.8302
17.6971
19.4612
19.1584
17.4009
15.5531
17.4088
19.171
18.8784
17.122
15.2857
17.1298
18.8909
18.6094
16.8529
15.0281
16.86
18.6209
18.3493
16.5921
14.7794
16.599
18.3603
18.0984
16.3398
14.539
16.3455
18.1078
17.8551
16.0942
14.3052
16.0978
17.8612
17.6155
15.8521
14.0754
15.8537
17.6183
17.3757
15.6101
13.8467
15.6105
17.3763
17.1325
15.3658
13.6167
15.3656
17.1323
16.8835
15.1167
13.383
15.1166
16.8833
16.6257
14.8607
13.143
14.8608
16.626
16.3561
14.5951
12.8941
14.5955
16.3568
16.0706
14.3168
12.6331
14.3174
16.0717
15.7646
14.0218
12.3558
14.0226
15.766
15.4327
13.7047
12.0569
13.7056
15.4343
15.0703
13.3577
11.7288
13.3587
15.072
14.6768
12.9679
11.3625
12.9689
14.6786
14.2224
12.5033
10.9515
12.5043
14.2242
0.0713504
0.290382
0.0117857
0.290335
0.0713424
1.23012
2.44755
0.379541
2.4473
1.22985
6.55893
6.90235
2.93366
6.90195
6.55813
14.0662
11.9517
7.90683
11.9516
14.0659
18.0549
15.3858
11.6819
15.3859
18.055
20.2113
17.5481
14.2371
17.5484
20.2118
21.3719
18.8585
15.8865
18.8591
21.3728
21.9724
19.6182
16.9135
19.619
21.9736
22.2394
20.0212
17.5203
20.0221
22.2409
22.2966
20.1886
17.8417
20.1897
22.2984
22.2296
20.2003
17.9683
20.2015
22.2316
22.0764
20.1142
17.9626
20.1154
22.0784
21.8621
19.9476
17.8652
19.9488
21.864
21.6084
19.7297
17.695
19.7306
21.61
21.3269
19.475
17.4771
19.4756
21.328
21.0294
19.1962
17.226
19.1963
21.0295
20.7237
18.9032
16.9544
18.9025
20.7227
20.4166
18.6039
16.6723
18.6025
20.4143
20.1139
18.3054
16.3879
18.3033
20.1106
19.8196
18.0122
16.1071
18.0097
19.8155
19.536
17.7275
15.834
17.725
19.5319
19.2651
17.4534
15.5709
17.4509
19.2611
19.0081
17.1911
15.3194
17.1885
19.004
18.7648
16.9406
15.0801
16.9386
18.7616
18.5344
16.7014
14.8525
16.701
18.5337
18.317
16.4731
14.6357
16.4741
18.3185
18.1111
16.2542
14.428
16.2557
18.1134
17.9135
16.0417
14.2265
16.0431
17.9158
17.7207
15.8326
14.0288
15.834
17.723
17.5301
15.6245
13.8323
15.6258
17.5324
17.3388
15.4149
13.6347
15.4163
17.3412
17.1437
15.2014
13.4334
15.2028
17.1461
16.9405
14.9807
13.2253
14.982
16.9428
16.7236
14.7485
13.0062
14.7498
16.7258
16.4856
14.4992
12.7704
14.5004
16.4877
16.2176
14.2247
12.5103
14.2259
16.2196
15.9108
13.9145
12.2155
13.9156
15.9128
15.5613
13.5523
11.8738
13.5534
15.5633
15.1352
13.1022
11.4747
13.1033
15.1372
0.0706969
0.280657
0.0114141
0.280603
0.0706856
1.19798
2.3905
0.35939
2.39019
1.19762
6.42005
6.78719
2.83334
6.78668
6.41897
13.9153
11.8126
7.746
11.8124
13.9149
17.9111
15.2424
11.5075
15.2425
17.9111
20.0763
17.4048
14.0567
17.4051
20.0767
21.2443
18.7172
15.7042
18.7177
21.2451
21.8515
19.4798
16.7318
19.4805
21.8526
22.1251
19.8866
17.3409
19.8874
22.1265
22.1892
20.0586
17.6659
20.0596
22.1909
22.1287
20.0754
17.7971
20.0764
22.1305
21.9835
19.9948
17.7963
19.9959
21.9853
21.7777
19.8352
17.7056
19.8361
21.7791
21.5332
19.6246
17.5424
19.625
21.534
21.2619
19.3779
17.3324
19.3776
21.2615
20.9757
19.1081
17.09
19.1066
20.9732
20.6827
18.825
16.8277
18.8217
20.6774
20.3897
18.5367
16.556
18.5315
20.3813
20.1027
18.2502
16.2832
18.2433
20.0916
19.8256
17.9701
16.0154
17.9622
19.8128
19.5613
17.6999
15.7567
17.6921
19.5484
19.3119
17.4418
15.5098
17.4348
19.3004
19.0789
17.1972
15.2761
17.1914
19.0695
18.8629
16.9667
15.0564
16.9627
18.8562
18.6647
16.7509
14.8512
16.7488
18.6613
18.4848
16.5497
14.6604
16.5495
18.4843
18.3224
16.362
14.4823
16.363
18.324
18.1754
16.1852
14.3147
16.187
18.1783
18.0412
16.0171
14.1553
16.0194
18.0451
17.9182
15.8558
14.0021
15.8585
17.9227
17.8046
15.6995
13.8533
15.7022
17.8092
17.6979
15.5462
13.7069
15.5487
17.7023
17.594
15.3928
13.5598
15.395
17.598
17.4868
15.2346
13.4076
15.2365
17.4903
17.3661
15.064
13.243
15.0657
17.369
17.2176
14.8697
13.0552
14.8712
17.2202
17.0245
14.6355
12.8289
14.6369
17.0269
16.7736
14.3381
12.5449
14.3394
16.7759
16.421
13.9328
12.1845
13.9341
16.4233
0.0701321
0.274045
0.0111025
0.273995
0.070122
1.16078
2.32646
0.336595
2.32616
1.16044
6.2343
6.62937
2.69667
6.62886
6.23322
13.6759
11.5956
7.49732
11.5954
13.6754
17.6666
15.0047
11.2217
15.0047
17.6665
19.8368
17.1585
13.7513
17.1587
19.8372
21.0119
18.4686
15.3898
18.4691
21.0126
21.6272
19.2331
16.4149
19.2337
21.6282
21.9097
19.6441
17.0254
19.6449
21.9109
21.9834
19.8219
17.3543
19.8228
21.9847
21.9313
19.8451
17.4909
19.846
21.9328
21.7965
19.7715
17.4963
19.7724
21.7979
21.6006
19.6201
17.4132
19.6207
21.6016
21.3663
19.4176
17.2581
19.4177
21.3664
21.1056
19.1795
17.0566
19.1785
21.1041
20.8306
18.9188
16.8233
18.9162
20.8265
20.5497
18.6454
16.571
18.6407
20.5421
20.2697
18.3675
16.31
18.3607
20.2587
19.9968
18.0923
16.0491
18.084
19.9834
19.7349
17.8244
15.7944
17.816
19.7213
19.4875
17.5677
15.5506
17.561
19.4766
19.2577
17.325
15.3205
17.3213
19.2513
19.0473
17.0979
15.1057
17.0972
19.0458
18.8583
16.8878
14.9072
16.8892
18.8603
18.6936
16.6967
14.7266
16.6992
18.6976
18.555
16.5254
14.5642
16.5282
18.5596
18.4421
16.3729
14.4191
16.3757
18.4467
18.3534
16.2376
14.2896
16.2404
18.358
18.2877
16.1176
14.1744
16.1206
18.2927
18.2457
16.0126
14.073
16.0159
18.2512
18.2294
15.9227
13.985
15.926
18.2352
18.2389
15.848
13.9102
15.8512
18.2445
18.2736
15.7881
13.8476
15.7909
18.2786
18.3328
15.7409
13.7952
15.7433
18.337
18.4052
15.6992
13.7458
15.7012
18.4088
18.4727
15.6488
13.6863
15.6506
18.4759
18.5059
15.5657
13.5943
15.5674
18.5088
18.4739
15.413
13.4378
15.4146
18.4766
18.3103
15.1264
13.1798
15.1279
18.313
0.0690834
0.255403
0.0104706
0.255367
0.0690758
1.09799
2.21229
0.299071
2.21205
1.09772
5.92275
6.37311
2.48226
6.37265
5.92185
13.268
11.2359
7.09432
11.2357
13.2676
17.2484
14.6068
10.7507
14.6068
17.2482
19.426
16.744
13.2439
16.7442
19.4262
20.613
18.0502
14.8662
18.0506
20.6136
21.2432
18.8185
15.8872
18.819
21.244
21.542
19.2378
16.5006
19.2384
21.543
21.6323
19.4259
16.8362
19.4265
21.6333
21.5939
19.4594
16.9812
19.4601
21.5949
21.4744
19.396
16.9957
19.3966
21.4753
21.2919
19.2558
16.9223
19.2561
21.2924
21.0698
19.0631
16.7772
19.0627
21.0693
20.8204
18.8342
16.5853
18.8326
20.8179
20.5563
18.5826
16.3619
18.5793
20.5509
20.2864
18.3185
16.12
18.3134
20.2781
20.0179
18.0505
15.8705
18.044
20.0074
19.7571
17.7856
15.6219
17.7791
19.7466
19.5082
17.5287
15.3805
17.5241
19.5006
19.2751
17.284
15.1511
17.2831
19.2734
19.0622
17.055
14.9368
17.058
19.0668
18.8719
16.8436
14.7393
16.8494
18.8808
18.7065
16.6522
14.5608
16.6597
18.7181
18.5725
16.4854
14.4049
16.493
18.5844
18.4746
16.3454
14.2732
16.3518
18.4848
18.4126
16.2309
14.1647
16.2356
18.4204
18.3848
16.139
14.0775
16.1423
18.3904
18.3914
16.069
14.0105
16.0719
18.3965
18.4352
16.0227
13.9643
16.0257
18.4403
18.5273
16.0063
13.9427
16.0096
18.5328
18.6745
16.0232
13.9503
16.0264
18.68
18.8876
16.0792
13.991
16.0821
18.8926
19.1772
16.1836
14.0742
16.1862
19.1816
19.547
16.3363
14.1973
16.3385
19.5509
19.9885
16.5296
14.3524
16.5315
19.992
20.4699
16.7361
14.5135
16.738
20.4731
20.9294
16.8964
14.6284
16.8982
20.9325
21.2288
16.8956
14.6195
16.8973
21.2319
0.0672723
0.250679
0.0100977
0.250653
0.0672678
0.992947
2.08577
0.256739
2.08558
0.992754
5.37825
5.97432
2.16874
5.97397
5.37766
12.5465
10.634
6.44299
10.6338
12.5461
16.5172
13.9386
9.9729
13.9385
16.5169
18.7174
16.0515
12.4051
16.0516
18.7175
19.9351
17.3577
14.0035
17.3579
19.9355
20.601
18.1398
15.0222
18.1402
20.6017
20.9362
18.579
15.6446
18.5794
20.9368
21.0604
18.7885
15.9942
18.7888
21.061
21.0478
18.8415
16.1544
18.8419
21.0484
20.9543
18.7949
16.1836
18.7951
20.9549
20.7925
18.6716
16.1241
18.6716
20.7925
20.587
18.492
15.9931
18.491
20.5856
20.3504
18.2737
15.8125
18.2711
20.3464
20.0968
18.0313
15.5998
18.0267
20.0898
19.8368
17.7762
15.3693
17.7701
19.8273
19.5793
17.5185
15.1325
17.5111
19.5682
19.3313
17.2652
14.8976
17.2567
19.3194
19.0968
17.0209
14.6705
17.0115
19.0847
18.8799
16.7899
14.4558
16.7785
18.8672
18.6852
16.5759
14.2571
16.5593
18.6661
18.5151
16.3808
14.0764
16.3597
18.487
18.3702
16.2058
13.9166
16.1853
18.3402
18.2585
16.0571
13.7827
16.0396
18.2309
18.1905
15.941
13.679
15.93
18.1705
18.1693
15.8573
13.6047
15.8534
18.16
18.1903
15.8038
13.5579
15.8037
18.1882
18.2601
15.7819
13.5392
15.7838
18.2629
18.3873
15.7937
13.5498
15.7961
18.3912
18.5827
15.8446
13.5949
15.8471
18.5865
18.8677
15.9505
13.6875
15.953
18.8714
19.2716
16.1284
13.8389
16.1307
19.275
19.8347
16.4071
14.0721
16.4092
19.838
20.6072
16.8184
14.4197
16.8204
20.6103
21.6401
17.3892
14.9036
17.3911
21.6433
22.9575
18.1248
15.5184
18.1266
22.9607
24.5144
18.9641
16.208
18.966
24.5176
26.071
19.7071
16.8222
19.7089
26.0743
0.0635081
0.201467
0.00882412
0.201456
0.0635058
0.794042
1.76949
0.175726
1.76938
0.793931
4.38125
5.24923
1.65598
5.24898
4.38102
11.1782
9.56206
5.36322
9.56163
11.1776
15.1429
12.7569
8.67045
12.7568
15.1423
17.419
14.8495
11.0025
14.8494
17.4187
18.7328
16.1837
12.5735
16.1838
18.7329
19.4967
17.0137
13.6012
17.0139
19.497
19.9208
17.5045
14.2484
17.5046
19.9211
20.1206
17.7616
14.6276
17.7617
20.1208
20.1661
17.855
14.8167
17.8551
20.1665
20.116
17.8375
14.8707
17.8375
20.1163
19.9925
17.7428
14.8325
17.7422
19.9917
19.8112
17.5819
14.7221
17.5795
19.8081
19.5876
17.3744
14.5546
17.3692
19.581
19.3388
17.1371
14.3524
17.1304
19.3302
19.0802
16.886
14.1332
16.8792
19.0709
18.8272
16.6356
13.9109
16.6286
18.8204
18.5872
16.3931
13.6923
16.3832
18.5833
18.3678
16.1636
13.4816
16.1417
18.3561
18.1712
15.9506
13.284
15.9017
18.1267
17.9994
15.7562
13.105
15.6832
17.9073
17.852
15.5794
12.9488
15.5173
17.7602
17.7283
15.4206
12.8125
15.3723
17.6664
17.6377
15.2873
12.699
15.2299
17.573
17.584
15.1833
12.6157
15.1316
17.5101
17.579
15.1145
12.5652
15.0907
17.524
17.6261
15.0861
12.5492
15.0868
17.6155
17.7471
15.1003
12.5659
15.1037
17.7536
17.9484
15.1604
12.6221
15.1617
17.9488
18.2348
15.274
12.7272
15.274
18.2318
18.6334
15.4539
12.8926
15.4541
18.6301
19.1917
15.7279
13.1422
15.729
19.1895
19.9894
16.1451
13.5172
16.1464
19.9888
21.1613
16.7892
14.0821
16.7908
21.1623
22.924
17.8084
14.9499
17.8099
22.9263
25.5915
19.3743
16.2861
19.3759
25.5942
29.5005
21.6363
18.1805
21.6379
29.5034
34.5999
24.4042
20.475
24.4059
34.603
0.0586248
0.207614
0.00856653
0.20761
0.0586279
0.535956
1.47083
0.110427
1.47074
0.5359
2.95662
4.18412
1.01189
4.18407
2.95748
8.47307
7.68107
3.65901
7.68077
8.4739
12.4893
10.6789
6.527
10.6786
12.488
15.0229
12.8006
8.71307
12.8003
15.0218
16.6259
14.2559
10.2771
14.2557
16.6252
17.6521
15.2255
11.3525
15.2256
17.6523
18.2931
15.8425
12.0631
15.8427
18.2936
18.6614
16.2043
12.5051
16.2047
18.6625
18.8277
16.3793
12.749
16.3802
18.8337
18.8549
16.4174
12.8463
16.4183
18.8572
18.7998
16.366
12.8391
16.3645
18.7939
18.6541
16.2298
12.7587
16.227
18.6472
18.4361
16.0223
12.6052
16.0193
18.4296
18.1746
15.7693
12.41
15.7723
18.1802
17.8988
15.4985
12.1988
15.4927
17.8923
17.6334
15.2305
11.9959
15.2476
17.6427
17.375
14.9785
11.8024
15.0404
17.45
17.168
14.7767
11.6174
14.8221
17.2557
17.0054
14.5933
11.4475
14.582
17.0266
16.8569
14.4219
11.2981
14.3775
16.8216
16.7389
14.2836
11.1701
14.2395
16.7098
16.6711
14.1803
11.0624
14.1047
16.6003
16.6531
14.0888
10.979
14.009
16.5293
16.6226
13.9809
10.9193
13.9695
16.5618
16.5847
13.9021
10.8862
13.9334
16.6091
16.6216
13.8974
10.8865
13.9151
16.7034
16.7936
13.9593
10.9221
13.9121
16.7999
17.0648
14.0628
11.0102
13.9945
16.9588
17.4118
14.2183
11.1557
14.1828
17.32
17.8922
14.4531
11.3676
14.4251
17.8223
18.5461
14.7873
11.6767
14.7755
18.5
19.4619
15.2948
12.1475
15.2893
19.4334
20.8452
16.1302
12.9134
16.1285
20.8318
23.1693
17.6017
14.2367
17.602
23.1668
27.5562
20.2968
16.5917
20.2977
27.5571
36.2183
25.3585
20.8158
25.3598
36.2207
52.4721
34.0781
28.0375
34.0797
52.4753
0.00425374
0.0037521
0.00339339
0.00375208
0.00425369
0.00989202
0.0206521
0.00423774
0.0206514
0.00988309
0.103254
0.265474
0.0421664
0.265492
0.103224
1.22694
1.79854
0.680093
1.79877
1.22682
4.95248
4.78895
2.96238
4.78831
4.9513
8.52207
7.65599
5.44055
7.65499
8.5207
11.21
9.95347
7.50001
9.95278
11.2092
13.1074
11.6616
9.07132
11.6622
13.1079
14.4044
12.8703
10.2093
12.8716
14.4059
15.2493
13.6775
10.9801
13.6788
15.2514
15.7543
14.1716
11.4591
14.1724
15.7552
15.9994
14.4217
11.7101
14.4232
16.004
16.0536
14.4836
11.7855
14.483
16.0536
16.015
14.4492
11.7657
14.4457
16.015
15.8624
14.3004
11.6497
14.2881
15.8634
15.6279
14.0651
11.4539
14.047
15.6152
15.3632
13.8033
11.2381
13.7953
15.355
15.1163
13.5539
11.0234
13.5548
15.1118
14.877
13.3179
10.8197
13.3233
14.8809
14.6431
13.0964
10.6282
13.0942
14.6472
14.4574
12.9123
10.4558
12.8797
14.4179
14.3016
12.7535
10.3079
12.7043
14.2409
14.1521
12.6014
10.1829
12.5708
14.1129
14.0295
12.484
10.0854
12.4672
14.0103
13.9643
12.4176
10.0195
12.3907
13.949
13.9627
12.3847
9.99036
12.3589
13.9238
13.9734
12.3841
9.99807
12.3734
13.9344
14.0175
12.4244
10.0423
12.4295
14.0113
14.1438
12.5457
10.146
12.5514
14.1582
14.3896
12.7656
10.321
12.7499
14.3725
14.7282
13.0691
10.5739
13.0472
14.6927
15.1747
13.4893
10.9324
13.4718
15.1257
15.8246
14.0958
11.4566
14.0837
15.7807
17.0128
15.0095
12.2424
15.0019
16.989
18.9312
16.4955
13.5223
16.4916
18.917