/*--------------------------------*- C++ -*----------------------------------*\
  =========                 |
  \\      /  F ield         | OpenFOAM: The Open Source CFD Toolbox
   \\    /   O peration     | Website:  https://openfoam.org
    \\  /    A nd           | Version:  9
     \\/     M anipulation  |
\*---------------------------------------------------------------------------*/
FoamFile
{
    format      ascii;
    class       volScalarField;
    location    "1";
    object      k;
}
// * * * * * * * * * * * * * * * * * * * * * * * * * * * * * * * * * * * * * //

dimensions      [0 2 -2 0 0 0 0];

internalField   nonuniform List<scalar> 
4545
(
0.00428775
0.00401534
0.00367143
0.00401531
0.0042876
0.00836101
0.0155742
0.00465113
0.0155735
0.00835573
0.0468222
0.0854183
0.027676
0.0854222
0.0468081
0.230609
0.278766
0.157717
0.278784
0.230591
0.510943
0.494755
0.368907
0.494761
0.510934
0.704972
0.655879
0.527948
0.655851
0.704928
0.831912
0.769501
0.640968
0.769463
0.831859
0.915021
0.847752
0.719639
0.847717
0.914975
0.968942
0.900073
0.773137
0.900045
0.968915
1.00228
0.933129
0.80733
0.93309
1.00225
1.02066
0.951777
0.826953
0.951735
1.02065
1.02748
0.959116
0.835332
0.959117
1.02758
1.02735
0.959109
0.835963
0.959114
1.02725
1.02266
0.954396
0.83226
0.954455
1.02268
1.01136
0.943228
0.822534
0.943281
1.01179
0.997375
0.928946
0.809603
0.928729
0.997103
0.981829
0.912769
0.79499
0.912435
0.981089
0.964716
0.895734
0.779654
0.895547
0.964391
0.947638
0.87868
0.764251
0.878836
0.947949
0.931042
0.862085
0.749055
0.862458
0.931513
0.914917
0.846259
0.7341
0.845933
0.914814
0.899522
0.830318
0.719323
0.8298
0.899245
0.88309
0.813771
0.70466
0.814416
0.884051
0.866952
0.79779
0.690129
0.799087
0.868784
0.851969
0.782452
0.675677
0.783176
0.853172
0.836719
0.766977
0.661229
0.766892
0.836875
0.821234
0.751337
0.646929
0.751277
0.820946
0.80582
0.735762
0.632843
0.736294
0.806079
0.79055
0.720114
0.618824
0.721296
0.791543
0.775123
0.704728
0.60482
0.706087
0.776629
0.76004
0.689715
0.590823
0.690697
0.76153
0.744961
0.674424
0.576713
0.675114
0.746081
0.729587
0.658787
0.5624
0.659259
0.730341
0.713838
0.642743
0.547801
0.643031
0.714238
0.697436
0.626204
0.532819
0.626354
0.697644
0.680475
0.609132
0.517342
0.609201
0.680555
0.662857
0.591349
0.501162
0.591376
0.662878
0.644338
0.572286
0.483901
0.572285
0.644328
0.623876
0.550354
0.465035
0.550327
0.623833
0.0116767
0.0363566
0.00403825
0.0363543
0.011677
0.0970521
0.241861
0.0366552
0.241846
0.0970419
0.510883
0.673208
0.276195
0.673189
0.510859
1.33477
1.2616
0.833356
1.2616
1.3348
1.88839
1.73747
1.32103
1.73748
1.88844
2.24963
2.07582
1.67697
2.0758
2.24958
2.48796
2.31071
1.92826
2.31067
2.48787
2.64688
2.47079
2.10119
2.47075
2.6468
2.75075
2.57647
2.2164
2.57644
2.75068
2.81432
2.64197
2.28917
2.64194
2.81432
2.84793
2.67744
2.33027
2.67743
2.8481
2.85882
2.6902
2.3475
2.69023
2.85929
2.85488
2.68732
2.34764
2.68729
2.85471
2.8397
2.67295
2.33632
2.67295
2.8394
2.81165
2.64638
2.31232
2.64663
2.81287
2.77711
2.61268
2.28084
2.61151
2.77668
2.73937
2.57499
2.24472
2.57205
2.73538
2.69727
2.53423
2.2063
2.53183
2.69343
2.65286
2.49136
2.16724
2.49042
2.65145
2.60871
2.44979
2.12885
2.45028
2.60996
2.56833
2.41219
2.09121
2.40874
2.56584
2.53012
2.37366
2.05392
2.37003
2.52526
2.48613
2.33129
2.01707
2.33408
2.48839
2.44301
2.29235
1.98102
2.297
2.44977
2.40605
2.25773
1.94523
2.2599
2.4108
2.36917
2.22282
1.90923
2.21941
2.36633
2.33031
2.18653
1.87376
2.1828
2.32463
2.29132
2.14952
1.83873
2.14902
2.28929
2.2502
2.11073
1.80344
2.11188
2.25055
2.20804
2.07315
1.76837
2.07644
2.21187
2.16901
2.0377
1.73348
2.04166
2.17511
2.13066
2.00197
1.69798
2.00421
2.13514
2.09158
1.96518
1.66168
1.96591
2.0936
2.05038
1.92629
1.62438
1.92668
2.0511
2.00693
1.88596
1.58585
1.8862
2.00736
1.96199
1.84409
1.54578
1.84422
1.96226
1.91542
1.80001
1.50351
1.80007
1.91557
1.86678
1.75192
1.4578
1.75194
1.86685
1.81238
1.69461
1.40721
1.69459
1.81239
0.0129055
0.0378006
0.00426553
0.0377995
0.0129053
0.154222
0.303848
0.0606271
0.30384
0.154214
0.789597
0.881249
0.440062
0.88124
0.789584
1.76996
1.62256
1.18687
1.62254
1.76995
2.41153
2.19502
1.78064
2.19502
2.41151
2.83765
2.6047
2.21452
2.60469
2.83761
3.12334
2.89107
2.52202
2.89105
3.1233
3.31474
3.0873
2.7351
3.08729
3.31472
3.43965
3.2174
2.87817
3.21741
3.43965
3.51593
3.29835
2.96903
3.29838
3.51598
3.55598
3.34245
3.02069
3.34251
3.55609
3.56893
3.35875
3.0428
3.35885
3.56911
3.56325
3.35543
3.04351
3.35556
3.56345
3.54281
3.33764
3.02955
3.33781
3.54308
3.50902
3.3061
3.0008
3.30637
3.50957
3.46681
3.266
2.96302
3.26629
3.46738
3.41923
3.22035
2.9193
3.2202
3.41912
3.36819
3.17128
2.87211
3.17084
3.36756
3.31481
3.12021
2.82332
3.12016
3.31451
3.2605
3.0686
2.77425
3.06965
3.26178
3.207
3.01763
2.72543
3.01919
3.2089
3.15405
2.96694
2.67706
2.96885
3.15651
3.09951
2.91562
2.62919
2.91831
3.10365
3.04621
2.86548
2.58202
2.8686
3.05042
2.99276
2.81557
2.53568
2.82075
2.99891
2.94182
2.7688
2.49015
2.77408
2.94825
2.89469
2.72413
2.44498
2.72813
2.89922
2.84465
2.67688
2.39969
2.68128
2.84984
2.79426
2.63068
2.35435
2.63361
2.79861
2.74472
2.58451
2.30873
2.58565
2.747
2.69368
2.53667
2.26262
2.53731
2.69507
2.64123
2.48791
2.21587
2.48827
2.64205
2.58771
2.43821
2.16829
2.43842
2.58812
2.53286
2.38739
2.11965
2.38755
2.53314
2.47666
2.33524
2.06963
2.33536
2.47686
2.41881
2.28127
2.01772
2.28135
2.41897
2.35877
2.22452
1.96306
2.22458
2.35887
2.29552
2.16292
1.90433
2.16295
2.29558
2.22444
2.09135
1.84038
2.09136
2.22446
0.0139915
0.0465488
0.00477294
0.046549
0.0139915
0.194492
0.356946
0.0855951
0.356941
0.19449
0.954913
1.01447
0.561985
1.01446
0.954905
2.00908
1.83447
1.4023
1.83446
2.00907
2.70146
2.46212
2.05735
2.46211
2.70144
3.16663
2.91412
2.53752
2.91411
3.16661
3.48188
3.2323
2.87974
3.2323
3.48187
3.69454
3.45172
3.11823
3.45174
3.69456
3.83399
3.59809
3.27929
3.59812
3.83404
3.91956
3.68979
3.38222
3.68985
3.91965
3.96479
3.74032
3.44127
3.74041
3.96494
3.98003
3.75981
3.46722
3.75994
3.98025
3.97397
3.7569
3.4689
3.75707
3.97424
3.95151
3.73778
3.45389
3.73802
3.9519
3.91472
3.70365
3.42274
3.704
3.9153
3.86871
3.66005
3.3815
3.66051
3.86948
3.81655
3.61011
3.33351
3.61059
3.81733
3.76049
3.55625
3.28137
3.55672
3.76124
3.70221
3.50024
3.22703
3.50082
3.70311
3.64283
3.44329
3.17182
3.44419
3.64423
3.58313
3.38615
3.11651
3.38747
3.58515
3.52356
3.32931
3.0615
3.3309
3.52604
3.46411
3.27285
3.00698
3.27466
3.46693
3.40506
3.21692
2.95302
3.21885
3.40801
3.34638
3.16155
2.89963
3.1636
3.34956
3.28846
3.10692
2.84676
3.10876
3.29139
3.23108
3.05277
2.79426
3.05413
3.23326
3.17322
2.99857
2.74189
2.99953
3.17492
3.11522
2.94429
2.68947
2.94478
3.1162
3.0567
2.88956
2.63673
2.88971
3.05702
2.99715
2.8341
2.58343
2.83411
2.99723
2.93662
2.77781
2.5294
2.7778
2.93663
2.87507
2.72061
2.47446
2.72061
2.87509
2.81238
2.66229
2.41839
2.66232
2.81244
2.74833
2.60257
2.36082
2.60261
2.74841
2.68248
2.54085
2.30116
2.5409
2.68257
2.61416
2.4761
2.2385
2.47615
2.61424
2.54241
2.4063
2.17155
2.40635
2.54247
2.46276
2.32663
2.0994
2.32666
2.46281
0.0144007
0.0473308
0.00493379
0.0473284
0.0144004
0.212432
0.377988
0.0975694
0.377976
0.212424
1.03678
1.08593
0.631968
1.08591
1.03676
2.14085
1.95641
1.52926
1.9564
2.14084
2.86833
2.62088
2.2247
2.62088
2.86832
3.36089
3.10167
2.73576
3.10167
3.36088
3.69744
3.44226
3.10188
3.44227
3.69746
3.92612
3.67864
3.35847
3.67867
3.92617
4.07714
3.83739
3.53279
3.83745
4.07722
4.17063
3.93773
3.64502
3.93781
4.17076
4.22088
3.99384
3.71014
3.99395
4.22106
4.23891
4.01655
3.73965
4.01669
4.23915
4.23354
4.01471
3.74276
4.01489
4.23384
4.21071
3.99548
3.7277
3.99572
4.21111
4.1725
3.96011
3.69547
3.96044
4.17303
4.12435
3.91446
3.6522
3.91488
4.12502
4.06942
3.86181
3.60149
3.86228
4.07017
4.01015
3.80472
3.54608
3.80521
4.01094
3.94841
3.74516
3.48804
3.7457
3.94929
3.88539
3.6844
3.42882
3.68509
3.88649
3.82191
3.62331
3.36928
3.62416
3.82328
3.75843
3.56236
3.30991
3.5633
3.75995
3.6952
3.50183
3.25099
3.50273
3.69668
3.63234
3.44183
3.19266
3.4426
3.63363
3.56986
3.38239
3.13494
3.38294
3.57082
3.50767
3.32343
3.07776
3.32371
3.50821
3.44558
3.26478
3.02098
3.26484
3.44575
3.38328
3.20614
2.96434
3.20609
3.38326
3.32054
3.14724
2.90754
3.14715
3.32043
3.25713
3.08785
2.85032
3.08774
3.25698
3.19286
3.02776
2.79246
3.02765
3.1927
3.12761
2.96682
2.73379
2.96675
3.1275
3.06129
2.9049
2.67412
2.90486
3.06124
2.99373
2.84177
2.61321
2.84177
2.99374
2.92465
2.77708
2.55065
2.77711
2.92471
2.85359
2.71024
2.48585
2.71029
2.85367
2.77987
2.64021
2.41787
2.64027
2.77997
2.70268
2.56506
2.34549
2.56512
2.70277
2.61778
2.48026
2.26796
2.48031
2.61786
0.0144818
0.0492848
0.00508754
0.0492798
0.0144809
0.218575
0.390515
0.104928
0.390494
0.218555
1.07203
1.12256
0.66985
1.12254
1.07199
2.21235
2.02502
1.6015
2.025
2.21233
2.96562
2.71494
2.32409
2.71493
2.9656
3.47826
3.21622
2.85688
3.21623
3.47826
3.83064
3.57315
3.24024
3.57317
3.83067
4.07158
3.82226
3.51025
3.82231
4.07165
4.23183
3.99065
3.69475
3.99072
4.23194
4.33201
4.09801
3.8144
4.09811
4.33217
4.38684
4.15897
3.88468
4.15909
4.38706
4.40777
4.18477
3.91749
4.18493
4.40804
4.40367
4.18437
3.92229
4.18456
4.40399
4.38142
4.16576
3.90782
4.16599
4.3818
4.34286
4.13009
3.87541
4.13038
4.34332
4.29375
4.08347
3.83117
4.08381
4.2943
4.23736
4.0293
3.77893
4.02967
4.23797
4.17624
3.97027
3.72154
3.97067
4.1769
4.11239
3.90847
3.66122
3.90895
4.11317
4.04715
3.84533
3.59953
3.84595
4.04815
3.98139
3.78178
3.53744
3.78257
3.98267
3.91563
3.71834
3.47548
3.71924
3.9171
3.85015
3.65532
3.41399
3.65624
3.85166
3.78508
3.59288
3.35314
3.59374
3.78649
3.72045
3.53106
3.29298
3.53177
3.72162
3.65621
3.46981
3.23343
3.47028
3.65702
3.59212
3.40889
3.17431
3.40913
3.59255
3.52781
3.34797
3.11529
3.34804
3.52796
3.46295
3.28671
3.05606
3.28669
3.46294
3.39732
3.2249
2.99635
3.22483
3.39723
3.33074
3.1623
2.93593
3.16222
3.33063
3.26307
3.09877
2.87461
3.09871
3.26298
3.19415
3.0341
2.81216
3.03408
3.19411
3.12379
2.96807
2.7483
2.96808
3.12381
3.05168
2.90029
2.68262
2.90033
3.05175
2.97735
2.83015
2.61449
2.83021
2.97745
2.90018
2.75665
2.54299
2.75672
2.90029
2.81946
2.67792
2.46696
2.67799
2.81958
2.73119
2.58956
2.38566
2.58962
2.7313
0.014322
0.0488449
0.00508422
0.0488365
0.0143216
0.217004
0.392294
0.106377
0.392268
0.21699
1.07901
1.13539
0.683958
1.13537
1.07898
2.24709
2.0595
1.63825
2.05948
2.24707
3.01984
2.76757
2.3798
2.76757
3.01983
3.54753
3.28379
2.92825
3.2838
3.54754
3.91181
3.65281
3.32429
3.65284
3.91185
4.16213
3.91155
3.60439
3.9116
4.16222
4.32967
4.08743
3.79674
4.08751
4.3298
4.43534
4.20045
3.92233
4.20055
4.43552
4.49417
4.26551
3.99692
4.26565
4.4944
4.51786
4.29414
4.0327
4.29431
4.51814
4.51529
4.29535
4.03929
4.29555
4.51561
4.49415
4.27779
4.02579
4.27801
4.49453
4.456
4.24249
3.99386
4.24275
4.45642
4.40687
4.19575
3.94949
4.19604
4.40735
4.35013
4.1411
3.89675
4.14143
4.35067
4.28841
4.0813
3.83856
4.08169
4.28905
4.22377
4.01851
3.77722
4.01903
4.2246
4.15762
3.95423
3.71433
3.95493
4.15875
4.09095
3.88949
3.65099
3.8904
4.09243
4.02431
3.82487
3.58779
3.82598
4.02609
3.95802
3.76072
3.5251
3.76193
3.95998
3.8922
3.69718
3.4631
3.69841
3.8942
3.82691
3.63433
3.40182
3.63547
3.82878
3.76212
3.57213
3.34125
3.57306
3.76365
3.69761
3.51039
3.28118
3.51102
3.69867
3.63301
3.44875
3.2213
3.44909
3.6336
3.56789
3.38682
3.16125
3.38694
3.56812
3.50194
3.32428
3.1007
3.32428
3.50196
3.43491
3.26087
3.03938
3.26082
3.43485
3.3666
3.19636
2.97701
3.19632
3.36653
3.2968
3.13053
2.91334
3.13052
3.29678
3.22527
3.0631
2.84804
3.06312
3.22532
3.15169
2.99367
2.78067
2.99372
3.15178
3.07557
2.92162
2.71059
2.92169
3.0757
2.99632
2.84595
2.6369
2.84604
2.99647
2.91337
2.76486
2.55842
2.76494
2.91352
2.8228
2.67399
2.47445
2.67407
2.82293
0.0141094
0.0484131
0.00505417
0.0484105
0.0141087
0.212402
0.390209
0.105522
0.390193
0.212386
1.07155
1.13503
0.684833
1.13501
1.07151
2.25973
2.07296
1.65292
2.07294
2.2597
3.04685
2.79371
2.40745
2.79371
3.04684
3.58563
3.32064
2.96706
3.32065
3.58565
3.9587
3.69846
3.3723
3.69849
3.95874
4.21603
3.96431
3.65984
3.96437
4.21613
4.38912
4.14585
3.8581
4.14594
4.38926
4.49913
4.26328
3.98828
4.26339
4.49932
4.56128
4.3317
4.06637
4.33184
4.56153
4.58745
4.36278
4.10469
4.36295
4.58774
4.58648
4.36565
4.11304
4.36585
4.58681
4.56675
4.34927
4.1007
4.34949
4.56712
4.52952
4.31486
4.0697
4.3151
4.52993
4.48105
4.26861
4.02581
4.26888
4.48151
4.4248
4.21424
3.97333
4.21457
4.42533
4.36343
4.15456
3.91523
4.15498
4.36411
4.29906
4.09178
3.85384
4.09235
4.29999
4.23315
4.02741
3.79081
4.0282
4.23442
4.16673
3.96257
3.72729
3.96361
4.1684
4.10046
3.89792
3.66399
3.89918
4.10248
4.03468
3.83384
3.60128
3.83522
4.03691
3.96952
3.77047
3.53933
3.77188
3.9718
3.905
3.70788
3.47821
3.7092
3.90715
3.84112
3.64605
3.41789
3.64715
3.84292
3.77769
3.58483
3.35821
3.58558
3.77895
3.71431
3.52383
3.29884
3.52423
3.71501
3.65048
3.46259
3.23935
3.46273
3.65073
3.58578
3.40073
3.17937
3.40072
3.58579
3.51988
3.33791
3.11854
3.33785
3.5198
3.4525
3.27383
3.05652
3.27379
3.45244
3.38337
3.20822
2.993
3.20821
3.38338
3.31219
3.14072
2.92758
3.14076
3.31227
3.23855
3.07091
2.85979
3.07098
3.23868
3.16196
2.99813
2.78896
2.99822
3.16213
3.08183
2.92139
2.71415
2.9215
3.08201
2.99769
2.8389
2.6342
2.839
2.99787
2.90564
2.74636
2.54838
2.74646
2.90581
0.0138849
0.0474407
0.00498552
0.0474396
0.0138848
0.206548
0.385233
0.102975
0.385224
0.206543
1.05686
1.12716
0.677787
1.12714
1.05684
2.25914
2.07352
1.6539
2.07351
2.25912
3.05642
2.80275
2.41695
2.80275
3.05641
3.60298
3.33697
2.9841
3.33698
3.603
3.98217
3.72083
3.39563
3.72086
3.98222
4.24441
3.99161
3.68831
3.99167
4.24451
4.42146
4.17713
3.89072
4.17722
4.42161
4.53467
4.29776
4.02423
4.29788
4.53487
4.5994
4.36873
4.10496
4.36888
4.59965
4.62765
4.40182
4.14535
4.40199
4.62795
4.62821
4.40624
4.1553
4.40644
4.62854
4.61
4.39108
4.14416
4.3913
4.61036
4.57402
4.35784
4.11435
4.35808
4.57442
4.52667
4.3125
4.07136
4.31278
4.52713
4.47149
4.25896
4.01967
4.2593
4.47204
4.41121
4.20008
3.96232
4.20051
4.41191
4.34799
4.13809
3.90164
4.13865
4.34889
4.28332
4.07456
3.83935
4.07529
4.2845
4.21827
4.01064
3.77665
4.01157
4.21978
4.15356
3.94705
3.71427
3.94815
4.15535
4.08957
3.88419
3.65266
3.88537
4.09149
4.02643
3.82223
3.59198
3.82339
4.02833
3.96413
3.76121
3.53229
3.76226
3.96587
3.90263
3.70107
3.47355
3.70192
3.90404
3.84171
3.64165
3.41557
3.64221
3.84267
3.78096
3.58253
3.35799
3.58281
3.78146
3.71986
3.52326
3.30038
3.52334
3.72002
3.65794
3.4634
3.24229
3.46338
3.65792
3.59479
3.40254
3.18331
3.4025
3.59473
3.53003
3.34032
3.12305
3.3403
3.53002
3.46328
3.27636
3.06108
3.27639
3.46334
3.3941
3.21023
2.99694
3.2103
3.39424
3.32201
3.14139
2.93006
3.1415
3.3222
3.2464
3.06914
2.85971
3.06927
3.24663
3.16667
2.99244
2.78488
2.99257
3.1669
3.08239
2.90948
2.70438
2.9096
3.08261
2.98962
2.81601
2.61742
2.81613
2.98982
0.0136843
0.0464199
0.00490924
0.0464181
0.0136842
0.200607
0.379105
0.0997444
0.379094
0.2006
1.03923
1.1153
0.666416
1.11528
1.0392
2.25041
2.06591
1.64612
2.06589
2.25038
3.05407
2.80005
2.41395
2.80005
3.05406
3.6054
3.33855
2.98548
3.33856
3.60542
3.98824
3.72592
3.40065
3.72596
3.9883
4.25341
3.99957
3.69631
3.99963
4.2535
4.43286
4.18746
3.90118
4.18755
4.433
4.54811
4.31007
4.03674
4.31019
4.5483
4.61462
4.38275
4.11922
4.3829
4.61486
4.64444
4.41732
4.16113
4.41749
4.64472
4.64642
4.42307
4.17242
4.42326
4.64674
4.62963
4.40909
4.16243
4.40929
4.62997
4.59513
4.37718
4.13395
4.37741
4.59551
4.54923
4.33304
4.09213
4.33331
4.54967
4.49556
4.28073
4.04164
4.28105
4.49609
4.43689
4.22312
3.9855
4.22353
4.43755
4.37542
4.16249
3.92613
4.16302
4.37627
4.3127
4.10046
3.86526
4.10114
4.31379
4.24984
4.03822
3.80414
4.03908
4.25122
4.18761
3.97654
3.74358
3.97755
4.18924
4.12648
3.91591
3.68406
3.91696
4.1282
4.06658
3.85648
3.62578
3.8575
4.06824
4.00787
3.79825
3.56877
3.79917
4.00937
3.95023
3.74115
3.51293
3.74189
3.95147
3.89343
3.68492
3.45802
3.68543
3.89429
3.837
3.62915
3.40366
3.62944
3.83749
3.78039
3.57335
3.34937
3.57348
3.78063
3.72313
3.51706
3.2947
3.5171
3.72322
3.66472
3.45982
3.23917
3.45985
3.66479
3.60468
3.40119
3.18233
3.40124
3.60479
3.54249
3.34068
3.12365
3.34076
3.54265
3.47754
3.27772
3.06255
3.27784
3.47777
3.40915
3.21165
2.99831
3.21179
3.40942
3.33655
3.14159
2.93005
3.14175
3.33684
3.25898
3.06638
2.85663
3.06654
3.25926
3.17598
2.98414
2.77674
2.98428
3.17624
3.08353
2.89059
2.68945
2.89072
3.08376
0.0135124
0.0452681
0.00482585
0.0452639
0.0135118
0.194954
0.372198
0.0960622
0.372175
0.194934
1.02041
1.10086
0.652135
1.10082
1.02035
2.23549
2.05194
1.63149
2.05191
2.23545
3.04183
2.78762
2.40058
2.78761
3.04182
3.59493
3.32743
2.9734
3.32744
3.59494
3.97894
3.71579
3.38957
3.71582
3.97899
4.24499
3.99021
3.68602
3.99027
4.24509
4.42525
4.17881
3.8916
4.17889
4.42538
4.54131
4.30215
4.02789
4.30225
4.54149
4.60874
4.37562
4.11117
4.37575
4.60895
4.63957
4.41108
4.15396
4.41124
4.63982
4.6427
4.41784
4.16626
4.41801
4.64299
4.62721
4.40494
4.15732
4.40512
4.6275
4.59434
4.37444
4.13022
4.37462
4.59464
4.55015
4.33175
4.0898
4.33195
4.55047
4.49839
4.28102
4.04083
4.28124
4.49874
4.44181
4.22514
3.98636
4.2254
4.44224
4.38266
4.1664
3.92881
4.16675
4.38322
4.32252
4.10647
3.86996
4.10694
4.32327
4.26254
4.04656
3.81111
4.04721
4.26357
4.20357
3.98754
3.75313
3.98834
4.20486
4.1462
3.92996
3.69657
3.93081
4.14757
4.09056
3.87401
3.64166
3.87484
4.09191
4.03658
3.81963
3.58841
3.82044
4.03788
3.98417
3.76677
3.53669
3.76747
3.98532
3.93306
3.71512
3.4862
3.71564
3.93393
3.88273
3.66422
3.43653
3.66455
3.88329
3.83262
3.61356
3.38719
3.61376
3.83296
3.78222
3.56267
3.33771
3.5628
3.78245
3.73102
3.51108
3.28759
3.51119
3.73123
3.67843
3.45826
3.23632
3.45839
3.67867
3.62378
3.40362
3.18326
3.40378
3.62406
3.56624
3.34641
3.12766
3.34659
3.56656
3.50481
3.28572
3.06858
3.28591
3.50515
3.43838
3.22041
3.00488
3.2206
3.43873
3.36586
3.14902
2.93512
3.14921
3.36619
3.28656
3.0694
2.85768
3.06957
3.28687
3.19623
2.97704
2.77133
2.9772
3.1965
0.0133744
0.0441771
0.00474443
0.0441702
0.0133731
0.1897
0.36475
0.0920921
0.364713
0.18966
1.00045
1.08374
0.63492
1.08368
1.00034
2.21364
2.03088
1.6092
2.03085
2.21358
3.01848
2.76427
2.3756
2.76426
3.01846
3.57
3.30211
2.94627
3.30211
3.57001
3.95247
3.6887
3.36055
3.68872
3.95251
4.21721
3.96165
3.65544
3.9617
4.21729
4.39652
4.14917
3.85987
4.14924
4.39664
4.51209
4.27186
3.99546
4.27195
4.51224
4.57947
4.34515
4.07851
4.34526
4.57966
4.6107
4.38085
4.12151
4.38098
4.61091
4.61467
4.38827
4.13443
4.38841
4.6149
4.60035
4.37634
4.12641
4.37647
4.60057
4.5692
4.34732
4.10074
4.34741
4.56937
4.52701
4.30634
4.06199
4.30639
4.5271
4.47757
4.25761
4.01495
4.25759
4.47755
4.42364
4.20399
3.96265
4.20391
4.42353
4.36748
4.14778
3.90752
4.14766
4.36729
4.31067
4.09066
3.85138
4.09053
4.31047
4.25442
4.03388
3.79553
4.03379
4.25429
4.19958
3.9783
3.74087
3.97826
4.19953
4.14672
3.92447
3.68797
3.92446
4.14671
4.0961
3.87265
3.63712
3.87269
4.09616
4.04773
3.82291
3.5884
3.82304
4.04795
4.00157
3.77518
3.54173
3.77538
4.00191
3.95737
3.72917
3.4968
3.72938
3.95771
3.91465
3.68447
3.45319
3.68465
3.91495
3.87296
3.64059
3.41044
3.64074
3.87321
3.83182
3.59709
3.3681
3.59724
3.83208
3.79074
3.55353
3.32571
3.55369
3.79102
3.74909
3.50935
3.28271
3.50953
3.74941
3.70604
3.46383
3.23839
3.46403
3.7064
3.66051
3.41603
3.1918
3.41625
3.66089
3.61108
3.36473
3.14172
3.36495
3.61147
3.55606
3.30833
3.08655
3.30855
3.55645
3.49367
3.24482
3.02433
3.24503
3.49405
3.42257
3.17142
2.95279
3.17162
3.42291
3.33784
3.08299
2.87002
3.08317
3.33815
0.0132539
0.0427473
0.00464652
0.0427393
0.0132522
0.184309
0.355648
0.087262
0.355602
0.184257
0.976993
1.06175
0.612636
1.06168
0.976848
2.18093
1.99906
1.57541
1.99902
2.18086
2.97921
2.72541
2.33417
2.72539
2.97918
3.52522
3.25733
2.89855
3.25733
3.52523
3.903
3.63892
3.30757
3.63895
3.90303
4.16391
3.90782
3.59818
3.90786
4.16398
4.34032
4.09222
3.79934
4.09228
4.34041
4.4539
4.21273
3.93262
4.21281
4.45402
4.52017
4.28473
4.01427
4.28482
4.52032
4.55108
4.31994
4.05671
4.32004
4.55125
4.55548
4.32758
4.06978
4.32768
4.55564
4.54217
4.31645
4.06251
4.31651
4.54229
4.51271
4.28886
4.03823
4.28886
4.51272
4.47267
4.24976
4.0013
4.24966
4.47251
4.42586
4.20332
3.95649
4.20307
4.42546
4.375
4.15238
3.9068
4.15196
4.37433
4.32231
4.09922
3.85464
4.09865
4.32141
4.2694
4.0455
3.80182
4.04483
4.26834
4.21748
3.99248
3.74968
3.99181
4.21641
4.16742
3.94103
3.69912
3.94042
4.16645
4.11975
3.89169
3.6507
3.89118
4.11896
4.07481
3.84477
3.60474
3.8444
4.07424
4.03276
3.80039
3.56138
3.8002
4.03244
3.99366
3.75855
3.52053
3.75849
3.99355
3.9574
3.71907
3.48198
3.71909
3.95741
3.92378
3.68166
3.44544
3.68172
3.92386
3.89246
3.64608
3.41064
3.64617
3.8926
3.86313
3.61204
3.37738
3.61216
3.86334
3.83538
3.57913
3.34523
3.57929
3.83566
3.80876
3.54688
3.31371
3.54707
3.80911
3.78251
3.51459
3.28204
3.51481
3.7829
3.7554
3.48127
3.24927
3.4815
3.75582
3.72561
3.44535
3.21387
3.44558
3.72603
3.69065
3.40463
3.17365
3.40487
3.69106
3.6475
3.35614
3.12574
3.35636
3.64789
3.59328
3.29585
3.06664
3.29605
3.59364
3.52154
3.21723
2.993
3.21741
3.52187
0.013141
0.0416768
0.00455712
0.0416695
0.0131395
0.177897
0.344934
0.0816655
0.34489
0.177846
0.944775
1.03087
0.582096
1.03079
0.94463
2.1294
1.94926
1.52263
1.94922
2.12933
2.9148
2.66226
2.26706
2.66224
2.91476
3.4505
3.1833
2.81991
3.1833
3.4505
3.81976
3.55595
3.2195
3.55596
3.81979
4.07388
3.81769
3.5026
3.81772
4.07393
4.24512
3.99664
3.69802
3.99668
4.24519
4.35508
4.11327
3.82721
4.11332
4.35517
4.41912
4.18278
3.90621
4.18284
4.41922
4.44897
4.21672
3.94725
4.21678
4.44907
4.45336
4.22412
3.95999
4.22417
4.45345
4.44091
4.21362
3.95327
4.21362
4.44093
4.41311
4.18743
3.93036
4.18735
4.41298
4.37532
4.15033
3.89538
4.15011
4.37498
4.33129
4.10639
3.85304
4.10599
4.33067
4.28368
4.05836
3.80626
4.05778
4.28276
4.23464
4.00849
3.7574
4.00776
4.23349
4.18577
3.9584
3.70825
3.95763
4.18454
4.13832
3.90938
3.66016
3.90869
4.13721
4.09321
3.86234
3.61407
3.86184
4.09239
4.05105
3.81783
3.57055
3.81756
4.05058
4.0123
3.7763
3.53
3.77622
4.01214
3.97736
3.73806
3.4927
3.7381
3.97739
3.94645
3.70321
3.45873
3.70329
3.94656
3.9195
3.67162
3.42792
3.67169
3.9196
3.89628
3.64302
3.40001
3.64306
3.89635
3.87667
3.61712
3.37474
3.61717
3.87676
3.8608
3.59386
3.35193
3.59395
3.86095
3.84904
3.57338
3.33165
3.57352
3.84928
3.84153
3.55595
3.31403
3.55613
3.84185
3.83797
3.54138
3.29917
3.54159
3.83834
3.83737
3.52886
3.28619
3.52908
3.83777
3.83796
3.51666
3.27336
3.51689
3.83837
3.83669
3.50216
3.258
3.50239
3.8371
3.82892
3.48103
3.23596
3.48125
3.82931
3.80857
3.44693
3.20153
3.44714
3.80893
3.76577
3.39037
3.14843
3.39057
3.7661
0.0129351
0.0389562
0.00439246
0.0389508
0.0129339
0.167206
0.3266
0.0726013
0.326563
0.167165
0.891826
0.981762
0.535164
0.981696
0.891704
2.04487
1.86887
1.43774
1.86884
2.04481
2.80974
2.5604
2.15921
2.56037
2.8097
3.32911
3.06405
2.69352
3.06404
3.32909
3.68504
3.42265
3.07825
3.42266
3.68505
3.9287
3.67341
3.34975
3.67343
3.92874
4.09216
3.8441
3.53645
3.84413
4.0922
4.19668
3.95489
3.65943
3.95492
4.19673
4.2573
4.02063
3.7344
4.02066
4.25735
4.28539
4.05252
3.7732
4.05255
4.28543
4.28946
4.05929
3.78515
4.05929
4.28945
4.2778
4.04933
3.77888
4.04927
4.27771
4.2517
4.02459
3.75736
4.02442
4.25144
4.21634
3.98967
3.72455
3.98936
4.21586
4.17533
3.9485
3.68501
3.94805
4.17461
4.13121
3.90373
3.64155
3.90316
4.1303
4.08608
3.85749
3.59642
3.85686
4.08508
4.04146
3.81135
3.55133
3.81077
4.04053
3.99857
3.76656
3.50759
3.76614
3.9979
3.95841
3.72404
3.46613
3.72379
3.95803
3.92162
3.6844
3.42756
3.68433
3.92149
3.88879
3.6482
3.39244
3.64832
3.88894
3.86077
3.61608
3.36132
3.61633
3.8611
3.83814
3.58844
3.33451
3.5887
3.8385
3.82101
3.56524
3.31195
3.56541
3.82125
3.80919
3.54621
3.29345
3.54627
3.80928
3.80273
3.53125
3.27889
3.53126
3.80275
3.80228
3.52059
3.26839
3.52062
3.80235
3.80787
3.51464
3.26234
3.51471
3.80801
3.82151
3.51426
3.26147
3.51439
3.82174
3.84453
3.51971
3.26572
3.51987
3.84481
3.87839
3.5327
3.27652
3.53289
3.87871
3.92292
3.55394
3.29482
3.55414
3.92325
3.97515
3.58067
3.31831
3.58088
3.9755
4.02944
3.60699
3.34092
3.60719
4.02979
4.07556
3.6231
3.35352
3.6233
4.0759
4.09486
3.61348
3.34449
3.61367
4.09518
0.0126149
0.0378997
0.00426987
0.0378958
0.0126142
0.149832
0.304457
0.0619934
0.304429
0.149805
0.802485
0.905627
0.467152
0.905577
0.802404
1.90411
1.73941
1.30217
1.73937
1.90406
2.63778
2.39708
1.98701
2.39706
2.63773
3.13245
2.87391
2.49243
2.87389
3.13241
3.46848
3.21131
2.85451
3.21131
3.46847
3.69699
3.44592
3.10879
3.44593
3.69702
3.8495
3.60482
3.28287
3.60484
3.84952
3.9466
3.70745
3.39707
3.70746
3.94662
4.00271
3.76803
3.4664
3.76803
4.00271
4.02849
3.79713
3.50208
3.79712
4.02846
4.03211
3.80298
3.51287
3.80291
4.032
4.02143
3.79362
3.50705
3.79348
4.0212
3.99731
3.77054
3.48711
3.77026
3.99688
3.96471
3.73813
3.45682
3.73771
3.96407
3.92711
3.70019
3.42055
3.69965
3.92629
3.88701
3.65925
3.38101
3.65858
3.88603
3.84636
3.61728
3.34022
3.61646
3.84522
3.80663
3.57576
3.29975
3.57466
3.80524
3.76897
3.53585
3.26082
3.53424
3.76707
3.7343
3.49842
3.22434
3.49593
3.73123
3.70326
3.46409
3.19104
3.46104
3.69911
3.67633
3.43334
3.16152
3.43044
3.67214
3.65452
3.407
3.1365
3.40447
3.65071
3.63892
3.3858
3.11655
3.38407
3.63602
3.63002
3.36993
3.1017
3.36909
3.62842
3.62809
3.35939
3.09189
3.35905
3.6274
3.63308
3.35441
3.08737
3.35429
3.63281
3.6468
3.35574
3.08874
3.35568
3.64671
3.67061
3.36401
3.09663
3.364
3.67057
3.70687
3.38159
3.11324
3.38162
3.70689
3.75872
3.4104
3.14021
3.41047
3.75881
3.8301
3.45329
3.18011
3.4534
3.83024
3.92648
3.51344
3.2355
3.51357
3.92667
4.05439
3.59499
3.30927
3.59513
4.05461
4.21253
3.69906
3.40344
3.69921
4.21278
4.3875
3.81153
3.50542
3.81169
4.38775
4.54637
3.90248
3.58914
3.90263
4.54663
0.0119797
0.0308689
0.00395406
0.0308672
0.0119794
0.11831
0.255936
0.0426816
0.255919
0.118294
0.647704
0.778198
0.35861
0.778163
0.647671
1.66198
1.52672
1.08515
1.52667
1.66191
2.34648
2.12994
1.71061
2.1299
2.34639
2.80304
2.56456
2.16973
2.56452
2.80295
3.10951
2.86994
2.49685
2.86992
3.10947
3.31646
3.081
2.72537
3.08101
3.31648
3.45407
3.22326
2.88106
3.22327
3.4541
3.54157
3.31476
2.98283
3.31477
3.54158
3.59215
3.36855
3.04442
3.36855
3.59217
3.61546
3.3942
3.07597
3.39416
3.61539
3.61895
3.39903
3.08526
3.39888
3.61868
3.60975
3.39056
3.08005
3.39026
3.60929
3.58811
3.3695
3.06209
3.369
3.58741
3.55854
3.33993
3.03481
3.33936
3.55783
3.52465
3.30563
3.00256
3.30504
3.52385
3.48897
3.2692
2.96792
3.26855
3.48836
3.45339
3.23238
2.93255
3.2314
3.453
3.41972
3.19665
2.89773
3.19423
3.41832
3.38865
3.16295
2.8646
3.15725
3.3834
3.36073
3.13189
2.83424
3.12325
3.35006
3.33647
3.1038
2.80759
3.09624
3.32568
3.31613
3.07901
2.78451
3.0728
3.30842
3.30061
3.05837
2.76542
3.05084
3.29238
3.2904
3.04239
2.75136
3.03535
3.28082
3.28704
3.03197
2.74279
3.02837
3.27997
3.29129
3.02778
2.74
3.02716
3.28894
3.30484
3.03017
2.74286
3.02992
3.30449
3.3295
3.04006
2.7527
3.03971
3.32878
3.36659
3.05928
2.77146
3.05896
3.36581
3.41996
3.09022
2.80142
3.09
3.41933
3.49535
3.13697
2.84649
3.13689
3.49491
3.60108
3.20594
2.91244
3.20593
3.60083
3.74949
3.30638
3.00783
3.30643
3.74943
3.95733
3.45057
3.14375
3.45065
3.95741
4.25121
3.65365
3.33229
3.65375
4.25135
4.65845
3.93396
3.58825
3.93405
4.65861
5.13708
4.25448
3.88369
4.25459
5.13725
0.0112888
0.0308144
0.00383192
0.0308138
0.0112892
0.0790208
0.207064
0.0264786
0.207054
0.0790141
0.429959
0.596424
0.2206
0.596418
0.430047
1.22866
1.17753
0.747502
1.17749
1.22872
1.82771
1.67989
1.25996
1.67983
1.82755
2.21774
2.04021
1.63763
2.04013
2.21754
2.47481
2.2917
1.90605
2.29166
2.47469
2.64733
2.46456
2.09225
2.46458
2.64737
2.76221
2.5806
2.2182
2.58066
2.76231
2.83562
2.65506
2.30022
2.65514
2.83577
2.87807
2.69873
2.34974
2.69884
2.87865
2.8983
2.71956
2.37508
2.71962
2.89835
2.90245
2.72321
2.3822
2.72292
2.90149
2.89544
2.71563
2.37784
2.71537
2.89446
2.87703
2.69675
2.36272
2.69675
2.87639
2.8512
2.66997
2.33963
2.67084
2.85229
2.82224
2.63949
2.31294
2.63917
2.82199
2.79214
2.60734
2.28571
2.60911
2.79329
2.76176
2.57581
2.25868
2.58219
2.76916
2.73664
2.54939
2.23243
2.55415
2.74514
2.71548
2.52471
2.20803
2.52394
2.71821
2.69601
2.50178
2.18641
2.49769
2.69364
2.68137
2.48375
2.16796
2.47904
2.67865
2.67272
2.4701
2.15254
2.4615
2.66476
2.66882
2.45795
2.14067
2.44921
2.65581
2.6644
2.44511
2.13255
2.44404
2.65871
2.66127
2.43693
2.12863
2.44011
2.66404
2.6675
2.43811
2.12959
2.43943
2.67512
2.6887
2.44732
2.13598
2.44156
2.68818
2.72076
2.46256
2.15014
2.45495
2.70983
2.76301
2.48575
2.17308
2.4819
2.75416
2.82258
2.52104
2.20698
2.51795
2.81612
2.90456
2.57218
2.25687
2.57079
2.90036
3.01734
2.64868
2.33214
2.64794
3.01461
3.18298
2.76809
2.44923
2.76776
3.18158
3.44135
2.96059
2.63586
2.96051
3.44098
3.86614
3.2745
2.93611
3.27452
3.86613
4.58367
3.78646
3.41132
3.78651
4.58372
5.81326
4.59919
4.15704
4.59925
5.81339
0.00427242
0.00393337
0.00367494
0.00393336
0.00427235
0.00750281
0.0123789
0.00427556
0.0123787
0.00750186
0.0360632
0.0680039
0.0200928
0.068007
0.0360808
0.188138
0.243259
0.128039
0.243277
0.188169
0.476393
0.466511
0.33998
0.46647
0.476303
0.683819
0.637372
0.508721
0.637315
0.683743
0.820895
0.75906
0.629686
0.759023
0.820853
0.911209
0.843626
0.714739
0.843649
0.911231
0.970612
0.901132
0.773405
0.90119
0.970676
1.00855
0.938693
0.812061
0.938751
1.00864
1.03093
0.961481
0.835791
0.96152
1.03114
1.04206
0.973135
0.848302
0.973201
1.0422
1.04487
0.976273
0.852287
0.976212
1.04474
1.04339
0.97496
0.851566
0.97479
1.04329
1.03704
0.96865
0.846397
0.968228
1.03689
1.02697
0.958256
0.837167
0.957652
1.02647
1.01553
0.946497
0.826804
0.946248
1.01513
1.00445
0.935057
0.816358
0.935323
1.0046
0.993963
0.924124
0.806299
0.924751
0.994692
0.983596
0.913866
0.796731
0.914086
0.984387
0.9749
0.905188
0.788043
0.903914
0.974077
0.968003
0.897682
0.78055
0.895568
0.965872
0.961623
0.890642
0.774198
0.889211
0.959957
0.956092
0.885202
0.769204
0.884141
0.954835
0.952816
0.881977
0.765794