/*--------------------------------*- C++ -*----------------------------------*\
  =========                 |
  \\      /  F ield         | OpenFOAM: The Open Source CFD Toolbox
   \\    /   O peration     | Website:  https://openfoam.org
    \\  /    A nd           | Version:  9
     \\/     M anipulation  |
\*---------------------------------------------------------------------------*/
FoamFile
{
    format      ascii;
    class       volScalarField;
    location    "1";
    object      p;
}
// * * * * * * * * * * * * * * * * * * * * * * * * * * * * * * * * * * * * * //

dimensions      [0 2 -2 0 0 0 0];

internalField   nonuniform List<scalar> 
4545
(
20.099
20.0935
20.1018
20.0935
20.0991
20.094
20.1111
20.1113
20.1111
20.094
20.0776
20.1363
20.122
20.1363
20.0772
20.0605
20.1599
20.1343
20.16
20.0603
20.04
20.1935
20.1524
20.1935
20.0399
20.0088
20.2307
20.1796
20.2307
20.0088
19.9748
20.2626
20.2115
20.2626
19.9749
19.9455
20.2873
20.2415
20.2874
19.9456
19.9228
20.3058
20.2674
20.3059
19.9231
19.906
20.3196
20.2884
20.3195
19.9071
19.8952
20.3296
20.305
20.3296
19.8958
19.8874
20.3373
20.3176
20.3368
19.8883
19.884
20.3426
20.327
20.3426
19.8816
19.8836
20.346
20.334
20.3471
19.8777
19.881
20.3495
20.3393
20.3501
19.8773
19.8805
20.3518
20.343
20.3516
19.8799
19.8815
20.3535
20.3456
20.3531
19.8827
19.8824
20.3551
20.3472
20.3544
19.8849
19.8877
20.3549
20.3476
20.3543
19.8896
19.895
20.3539
20.3475
20.3549
19.8921
19.8982
20.3543
20.3472
20.3544
19.8972
19.9007
20.3552
20.3474
20.3545
19.903
19.9034
20.3558
20.3477
20.3556
19.907
19.9078
20.356
20.3474
20.3558
19.9122
19.9136
20.3565
20.347
20.3557
19.9176
19.92
20.3571
20.3468
20.3568
19.9199
19.9259
20.3578
20.3469
20.3587
19.922
19.9311
20.3589
20.3469
20.3588
19.9299
19.938
20.3598
20.347
20.36
19.9358
19.9436
20.3611
20.3472
20.3618
19.9414
19.9511
20.362
20.347
20.3626
19.9503
19.9582
20.3636
20.3469
20.3636
19.9584
19.9658
20.3654
20.3469
20.3649
19.967
19.9759
20.3663
20.3466
20.3661
19.976
19.9857
20.3674
20.3462
20.3673
19.9857
19.9961
20.3684
20.3459
20.3684
19.996
20.007
20.3693
20.3455
20.3693
20.007
20.0187
20.3701
20.3454
20.3701
20.0186
20.0311
20.3705
20.3457
20.3705
20.031
20.0951
20.0994
20.1061
20.0994
20.0951
20.1118
20.0814
20.1082
20.0814
20.1118
20.1569
20.052
20.1028
20.052
20.157
20.22
20.0401
20.093
20.04
20.2199
20.2477
20.0509
20.0906
20.0509
20.2477
20.2358
20.0656
20.0978
20.0657
20.2358
20.2153
20.0791
20.1126
20.0792
20.2154
20.1966
20.0904
20.1314
20.0905
20.1967
20.1814
20.0995
20.1498
20.0996
20.1816
20.1697
20.107
20.166
20.107
20.1698
20.1608
20.1136
20.1788
20.1136
20.1609
20.1544
20.1196
20.1896
20.1195
20.1543
20.1501
20.1249
20.1988
20.1248
20.15
20.1472
20.1295
20.2064
20.1297
20.1471
20.1454
20.1343
20.2132
20.1345
20.1449
20.1441
20.1388
20.219
20.1389
20.1438
20.1432
20.1432
20.2243
20.1433
20.1437
20.1435
20.1476
20.2294
20.1476
20.144
20.1443
20.1513
20.2339
20.1512
20.1446
20.1457
20.1546
20.2379
20.1547
20.1465
20.1479
20.1584
20.2418
20.1583
20.1482
20.1501
20.1624
20.2461
20.1626
20.1494
20.1521
20.1663
20.2503
20.1669
20.1514
20.1545
20.1703
20.2537
20.1702
20.1549
20.1578
20.1741
20.2562
20.1735
20.1591
20.1618
20.178
20.259
20.1777
20.1621
20.1656
20.1824
20.2623
20.1826
20.1654
20.1692
20.1871
20.2655
20.1869
20.1698
20.1733
20.1916
20.2687
20.1912
20.174
20.179
20.196
20.272
20.1961
20.1785
20.1844
20.2006
20.2753
20.201
20.1838
20.1898
20.2058
20.2785
20.2056
20.1895
20.196
20.2108
20.2817
20.2104
20.1958
20.2025
20.2156
20.2846
20.2154
20.2024
20.2094
20.2205
20.2874
20.2204
20.2094
20.2166
20.2256
20.2901
20.2255
20.2166
20.224
20.2308
20.2927
20.2308
20.224
20.2317
20.236
20.2954
20.236
20.2317
20.2411
20.2395
20.2981
20.2395
20.2412
20.0954
20.0914
20.104
20.0914
20.0954
20.1295
20.057
20.1002
20.057
20.1295
20.2094
20.0131
20.0763
20.0131
20.2095
20.306
19.9913
20.0286
19.9912
20.3061
20.3538
19.9951
19.9959
19.995
20.3539
20.3563
20.0056
19.9913
20.0057
20.3563
20.3476
20.0155
19.9997
20.0156
20.3477
20.3384
20.0234
20.012
20.0234
20.3385
20.3303
20.0296
20.0247
20.0296
20.3303
20.3235
20.0349
20.0366
20.0351
20.3234
20.3176
20.0401
20.0473
20.0401
20.3178
20.3129
20.0452
20.0569
20.0451
20.3132
20.3094
20.05
20.0654
20.0497
20.3102
20.3069
20.0546
20.0729
20.0537
20.3086
20.3054
20.0589
20.0797
20.058
20.3069
20.3049
20.0629
20.0861
20.0629
20.3049
20.3052
20.0667
20.0918
20.0674
20.3039
20.305
20.071
20.0973
20.0717
20.3038
20.3046
20.0756
20.1024
20.0758
20.3043
20.3044
20.0803
20.1071
20.0799
20.3052
20.3052
20.0848
20.1113
20.0846
20.3057
20.3074
20.0886
20.1146
20.0886
20.3072
20.31
20.0921
20.119
20.0922
20.3098
20.3129
20.0957
20.1244
20.0957
20.313
20.3161
20.099
20.1306
20.0997
20.3154
20.3183
20.1045
20.137
20.1051
20.3176
20.3212
20.111
20.1432
20.111
20.3211
20.325
20.1162
20.1488
20.1167
20.3245
20.329
20.1217
20.1542
20.1218
20.3288
20.3334
20.1274
20.1595
20.1267
20.3338
20.3379
20.133
20.1648
20.1321
20.3387
20.343
20.1383
20.1699
20.1377
20.3438
20.3488
20.1435
20.1748
20.1433
20.349
20.3545
20.149
20.1796
20.1489
20.3545
20.3603
20.1545
20.1842
20.1545
20.3603
20.3662
20.1601
20.1885
20.1601
20.3662
20.372
20.166
20.1926
20.166
20.372
20.3787
20.1713
20.1961
20.1713
20.3788
20.3898
20.1722
20.1982
20.1722
20.3898
20.096
20.0901
20.1058
20.0901
20.096
20.1392
20.0492
20.096
20.0492
20.1392
20.2307
20.0066
20.0602
20.0066
20.2307
20.3235
19.996
20.0063
19.996
20.3235
20.361
20.0101
19.9744
20.0101
20.3611
20.3569
20.0285
19.9697
20.0286
20.357
20.3448
20.0434
19.9794
20.0434
20.3448
20.3336
20.054
19.9933
20.054
20.3337
20.3245
20.0618
20.007
20.0618
20.3246
20.3174
20.0679
20.0193
20.068
20.3175
20.3117
20.0732
20.0302
20.0732
20.3118
20.3074
20.0781
20.04
20.0782
20.3075
20.3045
20.0825
20.0485
20.0825
20.3047
20.3025
20.0866
20.0561
20.0865
20.303
20.3011
20.0908
20.0629
20.0908
20.3015
20.3002
20.0952
20.0696
20.0952
20.3002
20.2999
20.0995
20.0759
20.0997
20.2993
20.2997
20.1039
20.0821
20.1042
20.2991
20.2998
20.1084
20.0881
20.1087
20.2993
20.3001
20.113
20.0941
20.1132
20.2998
20.3013
20.1175
20.1002
20.1177
20.301
20.3031
20.1219
20.1061
20.1219
20.303
20.3053
20.1263
20.1106
20.1261
20.3055
20.308
20.1309
20.1149
20.1309
20.3078
20.3108
20.1361
20.1198
20.1366
20.3101
20.3136
20.1407
20.1248
20.1412
20.3128
20.3171
20.1444
20.1297
20.1447
20.3166
20.3207
20.1485
20.1348
20.1488
20.3205
20.3246
20.1531
20.1398
20.1532
20.3247
20.3289
20.1581
20.1449
20.1577
20.3294
20.3336
20.1629
20.1499
20.1625
20.3342
20.3388
20.1677
20.1548
20.1675
20.3392
20.3442
20.1726
20.1596
20.1725
20.3443
20.3497
20.1775
20.1641
20.1775
20.3498
20.3555
20.1825
20.1683
20.1825
20.3555
20.3614
20.1874
20.172
20.1874
20.3614
20.3674
20.1924
20.1752
20.1924
20.3674
20.3745
20.1966
20.1773
20.1966
20.3745
20.3869
20.1954
20.1772
20.1954
20.3869
20.0963
20.0869
20.1048
20.0869
20.0963
20.1433
20.0445
20.0928
20.0445
20.1433
20.238
20.0039
20.0519
20.0039
20.238
20.3267
19.9995
19.9937
19.9995
20.3267
20.3554
20.0209
19.964
20.0209
20.3554
20.3432
20.0445
19.9652
20.0446
20.3433
20.3253
20.0623
19.9822
20.0623
20.3253
20.3101
20.0751
20.0008
20.0751
20.3102
20.2986
20.0846
20.0168
20.0846
20.2986
20.29
20.0919
20.03
20.0919
20.29
20.2836
20.098
20.0411
20.098
20.2836
20.279
20.1033
20.0505
20.1034
20.2791
20.2762
20.1079
20.0584
20.108
20.2763
20.2744
20.1121
20.0653
20.1121
20.2745
20.2733
20.1162
20.0717
20.1162
20.2733
20.2726
20.1203
20.0778
20.1203
20.2726
20.2726
20.1242
20.0835
20.1243
20.2723
20.2729
20.1281
20.0891
20.1282
20.2726
20.2735
20.132
20.0944
20.1321
20.2733
20.2745
20.136
20.0995
20.136
20.2744
20.2759
20.1399
20.1045
20.1399
20.2759
20.2778
20.1438
20.1093
20.1437
20.2778
20.28
20.1478
20.1139
20.1476
20.2802
20.2825
20.1519
20.1184
20.1518
20.2826
20.2853
20.1562
20.123
20.1559
20.2856
20.2888
20.1601
20.1275
20.1599
20.2891
20.2926
20.1642
20.1321
20.164
20.2929
20.2967
20.1684
20.1367
20.1682
20.297
20.3012
20.1726
20.1412
20.1725
20.3014
20.3059
20.1771
20.1458
20.1769
20.3061
20.3108
20.1815
20.1502
20.1814
20.311
20.3161
20.186
20.1544
20.1859
20.3162
20.3217
20.1904
20.1583
20.1904
20.3217
20.3276
20.1947
20.1619
20.1947
20.3276
20.3339
20.1989
20.1649
20.1989
20.3339
20.3406
20.2029
20.1673
20.2029
20.3406
20.3475
20.207
20.169
20.207
20.3475
20.3561
20.2101
20.1691
20.2101
20.3561
20.3708
20.207
20.1662
20.207
20.3708
20.0963
20.0863
20.1054
20.0863
20.0963
20.1442
20.0433
20.0916
20.0433
20.1442
20.2389
20.0037
20.0483
20.0037
20.2389
20.3258
20.0025
19.9893
20.0025
20.3258
20.3496
20.0279
19.9627
20.028
20.3496
20.332
20.0538
19.9706
20.0538
20.3321
20.3098
20.0732
19.9935
20.0732
20.3098
20.2916
20.0875
20.0157
20.0875
20.2916
20.278
20.0982
20.0338
20.0982
20.278
20.2681
20.1064
20.0484
20.1064
20.2681
20.2609
20.113
20.0601
20.113
20.261
20.256
20.1186
20.0698
20.1187
20.2561
20.253
20.1234
20.0778
20.1235
20.253
20.2512
20.1276
20.0845
20.1276
20.2512
20.2501
20.1316
20.0906
20.1316
20.2501
20.2496
20.1355
20.0963
20.1355
20.2496
20.2497
20.1393
20.1016
20.1393
20.2496
20.2502
20.143
20.1065
20.143
20.2501
20.2512
20.1466
20.1112
20.1466
20.251
20.2524
20.1502
20.1157
20.1502
20.2523
20.2541
20.1538
20.1201
20.1538
20.254
20.2561
20.1574
20.1243
20.1573
20.256
20.2584
20.1609
20.1284
20.1609
20.2584
20.261
20.1645
20.1324
20.1645
20.2611
20.264
20.1682
20.1363
20.1681
20.2641
20.2673
20.1719
20.1403
20.1718
20.2674
20.2708
20.1756
20.1441
20.1755
20.271
20.2747
20.1794
20.148
20.1793
20.2749
20.2789
20.1832
20.1518
20.1832
20.279
20.2833
20.1871
20.1555
20.187
20.2835
20.2881
20.1909
20.1591
20.1909
20.2882
20.2933
20.1948
20.1624
20.1948
20.2933
20.2988
20.1985
20.1654
20.1985
20.2988
20.3048
20.2021
20.168
20.2021
20.3048
20.3114
20.2055
20.1699
20.2055
20.3114
20.3184
20.2088
20.1711
20.2088
20.3184
20.326
20.212
20.1714
20.212
20.326
20.3355
20.2142
20.1699
20.2142
20.3355
20.3518
20.2102
20.1642
20.2102
20.3518
20.0962
20.0856
20.105
20.0856
20.0962
20.1435
20.0433
20.0913
20.0433
20.1435
20.2372
20.0045
20.0479
20.0045
20.2372
20.3234
20.0046
19.9891
20.0046
20.3234
20.3448
20.0322
19.965
20.0322
20.3448
20.3238
20.0594
19.9773
20.0594
20.3238
20.2987
20.08
20.0039
20.0801
20.2987
20.2784
20.0955
20.0283
20.0955
20.2784
20.2634
20.107
20.0481
20.107
20.2634
20.2525
20.1157
20.0638
20.1157
20.2525
20.2447
20.1227
20.0762
20.1227
20.2447
20.2394
20.1285
20.0862
20.1285
20.2394
20.2361
20.1334
20.0943
20.1334
20.2361
20.2342
20.1375
20.101
20.1375
20.2342
20.233
20.1414
20.1069
20.1414
20.233
20.2325
20.1452
20.1123
20.1452
20.2324
20.2325
20.1488
20.1173
20.1488
20.2324
20.2329
20.1522
20.1219
20.1522
20.2328
20.2338
20.1556
20.1262
20.1555
20.2337
20.235
20.1588
20.1303
20.1588
20.2349
20.2366
20.1621
20.1341
20.162
20.2364
20.2384
20.1652
20.1378
20.1652
20.2383
20.2405
20.1684
20.1414
20.1684
20.2404
20.2429
20.1715
20.1448
20.1715
20.2429
20.2455
20.1746
20.1481
20.1746
20.2456
20.2485
20.1777
20.1513
20.1777
20.2485
20.2516
20.1808
20.1545
20.1808
20.2517
20.255
20.184
20.1576
20.184
20.2551
20.2586
20.1872
20.1605
20.1871
20.2588
20.2626
20.1903
20.1634
20.1903
20.2627
20.2669
20.1935
20.1661
20.1935
20.267
20.2716
20.1966
20.1684
20.1966
20.2717
20.2768
20.1996
20.1704
20.1996
20.2768
20.2826
20.2024
20.1719
20.2024
20.2826
20.289
20.205
20.1727
20.2051
20.289
20.2962
20.2076
20.1726
20.2076
20.2961
20.304
20.2101
20.1716
20.2101
20.304
20.3141
20.2115
20.1686
20.2115
20.314
20.3314
20.2066
20.1613
20.2066
20.3314
20.096
20.0859
20.1052
20.0859
20.096
20.1424
20.0441
20.0916
20.0441
20.1423
20.2347
20.0056
20.0485
20.0056
20.2346
20.3209
20.006
19.9904
20.006
20.3209
20.3413
20.0347
19.9679
20.0347
20.3413
20.3183
20.0629
19.9827
20.0629
20.3184
20.2914
20.0844
20.0113
20.0844
20.2914
20.2698
20.1006
20.0373
20.1006
20.2698
20.2538
20.1126
20.0582
20.1126
20.2538
20.2422
20.1217
20.0746
20.1217
20.2422
20.234
20.1288
20.0875
20.1288
20.234
20.2284
20.1347
20.0978
20.1347
20.2284
20.2248
20.1396
20.106
20.1396
20.2248
20.2227
20.1437
20.1126
20.1437
20.2227
20.2214
20.1475
20.1184
20.1475
20.2213
20.2206
20.1511
20.1236
20.1511
20.2206
20.2205
20.1545
20.1283
20.1544
20.2204
20.2207
20.1576
20.1326
20.1576
20.2206
20.2214
20.1607
20.1366
20.1607
20.2213
20.2223
20.1636
20.1402
20.1636
20.2222
20.2235
20.1664
20.1436
20.1664
20.2235
20.225
20.1692
20.1468
20.1692
20.2249
20.2267
20.1718
20.1498
20.1718
20.2267
20.2286
20.1744
20.1526
20.1744
20.2286
20.2308
20.1768
20.1552
20.1768
20.2308
20.2331
20.1793
20.1577
20.1793
20.2332
20.2356
20.1817
20.1601
20.1817
20.2357
20.2383
20.1841
20.1623
20.184
20.2385
20.2412
20.1864
20.1644
20.1864
20.2414
20.2444
20.1888
20.1663
20.1887
20.2445
20.2479
20.191
20.1679
20.191
20.248
20.2519
20.1932
20.1692
20.1932
20.2519
20.2564
20.1952
20.1701
20.1952
20.2564
20.2616
20.1972
20.1705
20.1972
20.2616
20.2676
20.1989
20.1701
20.1989
20.2675
20.2744
20.2006
20.1689
20.2006
20.2744
20.2822
20.2024
20.1666
20.2024
20.2821
20.2925
20.2031
20.1624
20.2031
20.2924
20.3103
20.1975
20.154
20.1975
20.3103
20.0957
20.0861
20.105
20.0861
20.0957
20.1411
20.0451
20.0919
20.0451
20.1411
20.2322
20.0066
20.0496
20.0066
20.2322
20.3189
20.0068
19.9918
20.0068
20.3189
20.3393
20.0361
19.9701
20.0361
20.3394
20.3155
20.0648
19.986
20.0649
20.3155
20.2875
20.0869
20.0158
20.0869
20.2876
20.2652
20.1035
20.0426
20.1035
20.2652
20.2486
20.1158
20.0642
20.1158
20.2486
20.2366
20.125
20.081
20.125
20.2366
20.2281
20.1322
20.0941
20.1322
20.2281
20.2222
20.1382
20.1046
20.1382
20.2222
20.2184
20.1431
20.1128
20.1431
20.2184
20.2161
20.147
20.1194
20.147
20.2161
20.2146
20.1507
20.125
20.1507
20.2146
20.2136
20.1541
20.1301
20.1541
20.2136
20.2132
20.1573
20.1345
20.1572
20.2132
20.2132
20.1602
20.1385
20.1601
20.2132
20.2135
20.1629
20.1421
20.1629
20.2135
20.2141
20.1655
20.1454
20.1654
20.2141
20.2149
20.1679
20.1484
20.1678
20.2149
20.2159
20.1701
20.151
20.1701
20.2159
20.2171
20.1722
20.1534
20.1722
20.2171
20.2184
20.1741
20.1556
20.1741
20.2184
20.2198
20.1759
20.1575
20.1759
20.2199
20.2214
20.1775
20.1591
20.1775
20.2215
20.223
20.1791
20.1606
20.179
20.2231
20.2247
20.1805
20.1619
20.1805
20.2249
20.2266
20.1819
20.1629
20.1818
20.2268
20.2288
20.1831
20.1637
20.1831
20.2289
20.2312
20.1842
20.1641
20.1842
20.2313
20.2341
20.1852
20.1642
20.1852
20.2341
20.2375
20.1861
20.1638
20.1861
20.2375
20.2417
20.1869
20.1628
20.1869
20.2416
20.2468
20.1875
20.1612
20.1875
20.2467
20.2529
20.1882
20.1587
20.1881
20.2528
20.2602
20.189
20.1552
20.189
20.2601
20.2703
20.1889
20.1499
20.1889
20.2702
20.2881
20.1827
20.1405
20.1826
20.2881
20.0955
20.0868
20.1052
20.0868
20.0955
20.14
20.0462
20.0925
20.0462
20.14
20.2302
20.0075
20.0507
20.0075
20.2301
20.3177
20.0072
19.9931
20.0072
20.3177
20.339
20.0366
19.9713
20.0366
20.339
20.315
20.0656
19.9873
20.0656
20.315
20.2868
20.0879
20.0173
20.0879
20.2868
20.2641
20.1047
20.0445
20.1047
20.2641
20.2473
20.1171
20.0663
20.1171
20.2473
20.2351
20.1263
20.0833
20.1263
20.2351
20.2265
20.1335
20.0965
20.1335
20.2265
20.2204
20.1395
20.1069
20.1395
20.2204
20.2164
20.1442
20.1151
20.1442
20.2164
20.2139
20.1481
20.1216
20.1481
20.2139
20.2122
20.1516
20.1271
20.1516
20.2122
20.2111
20.1548
20.132
20.1548
20.211
20.2104
20.1577
20.1362
20.1577
20.2103
20.2101
20.1604
20.1399
20.1603
20.21
20.2101
20.1627
20.1431
20.1627
20.21
20.2103
20.1649
20.146
20.1649
20.2102
20.2106
20.1668
20.1485
20.1668
20.2105
20.211
20.1686
20.1507
20.1685
20.2109
20.2115
20.17
20.1525
20.17
20.2115
20.2121
20.1713
20.1539
20.1713
20.2121
20.2127
20.1723
20.155
20.1722
20.2127
20.2133
20.173
20.1558
20.173
20.2133
20.2139
20.1736
20.1563
20.1735
20.2139
20.2145
20.1739
20.1564
20.1739
20.2145
20.2151
20.174
20.1562
20.174
20.2151
20.2158
20.1739
20.1556
20.1739
20.2158
20.2167
20.1736
20.1546
20.1735
20.2167
20.218
20.1731
20.1531
20.173
20.218
20.2199
20.1724
20.1511
20.1723
20.2198
20.2225
20.1715
20.1485
20.1715
20.2224
20.2261
20.1706
20.1452
20.1706
20.226
20.2309
20.1698
20.1411
20.1698
20.2309
20.2372
20.1694
20.1362
20.1693
20.2371
20.2465
20.1682
20.1296
20.1682
20.2464
20.264
20.1613
20.1193
20.1612
20.2639
20.0954
20.0872
20.1051
20.0872
20.0954
20.1391
20.0473
20.0929
20.0473
20.1391
20.2287
20.0082
20.0517
20.0082
20.2287
20.3175
20.007
19.994
20.007
20.3175
20.3402
20.0362
19.9713
20.0362
20.3402
20.3168
20.0652
19.9865
20.0652
20.3169
20.2889
20.0875
20.0162
20.0875
20.289
20.2664
20.1042
20.0431
20.1042
20.2665
20.2497
20.1165
20.0648
20.1165
20.2497
20.2376
20.1257
20.0816
20.1257
20.2376
20.2289
20.1328
20.0947
20.1328
20.2289
20.2228
20.1387
20.105
20.1387
20.2228
20.2187
20.1433
20.113
20.1433
20.2187
20.2161
20.1471
20.1194
20.1471
20.2161
20.2142
20.1504
20.1248
20.1504
20.2142
20.2128
20.1534
20.1294
20.1534
20.2128
20.2119
20.1561
20.1334
20.1561
20.2119
20.2113
20.1584
20.1369
20.1584
20.2112
20.2109
20.1605
20.1398
20.1605
20.2108
20.2107
20.1623
20.1423
20.1623
20.2106
20.2105
20.1637
20.1443
20.1637
20.2104
20.2104
20.1649
20.146
20.1649
20.2103
20.2102
20.1658
20.1471
20.1657
20.2101
20.21
20.1663
20.1479
20.1662
20.2099
20.2096
20.1664
20.1482
20.1664
20.2096
20.2092
20.1662
20.148
20.1661
20.2091
20.2085
20.1656
20.1473
20.1655
20.2084
20.2077
20.1646
20.1462
20.1645
20.2076
20.2067
20.1632
20.1445
20.1631
20.2066
20.2057
20.1614
20.1423
20.1613
20.2056
20.2047
20.1593
20.1394
20.1592
20.2045
20.2038
20.1567
20.1359
20.1566
20.2037
20.2034
20.1539
20.1317
20.1538
20.2033
20.2037
20.1508
20.1269
20.1507
20.2036
20.2051
20.1477
20.1212
20.1476
20.205
20.2078
20.1447
20.1149
20.1446
20.2077
20.2121
20.1422
20.1079
20.1421
20.212
20.22
20.1395
20.0996
20.1394
20.2199
20.2366
20.1314
20.088
20.1314
20.2364
20.0954
20.0881
20.1055
20.0881
20.0954
20.1385
20.0484
20.0935
20.0484
20.1385
20.2279
20.0087
20.0527
20.0087
20.2278
20.3181
20.0064
19.9946
20.0064
20.3181
20.3429
20.0349
19.9703
20.0349
20.343
20.321
20.0636
19.9837
20.0636
20.3211
20.2941
20.0855
20.0122
20.0855
20.2941
20.2723
20.1019
20.0383
20.1019
20.2723
20.256
20.114
20.0594
20.114
20.256
20.2442
20.123
20.0758
20.123
20.2442
20.2357
20.13
20.0885
20.13
20.2357
20.2296
20.1357
20.0986
20.1357
20.2296
20.2255
20.1402
20.1065
20.1402
20.2255
20.2228
20.1438
20.1127
20.1438
20.2228
20.2208
20.147
20.1179
20.147
20.2208
20.2192
20.1498
20.1224
20.1498
20.2192
20.218
20.1523
20.1262
20.1523
20.218
20.2171
20.1544
20.1294
20.1544
20.2171
20.2164
20.1562
20.1321
20.1561
20.2164
20.2157
20.1576
20.1343
20.1575
20.2157
20.2151
20.1586
20.1359
20.1586
20.215
20.2143
20.1592
20.137
20.1592
20.2143
20.2135
20.1595
20.1376
20.1594
20.2134
20.2124
20.1592
20.1376
20.1591
20.2124
20.2111
20.1585
20.1371
20.1584
20.211
20.2095
20.1572
20.1359
20.1571
20.2094
20.2075
20.1553
20.134
20.1553
20.2074
20.2051
20.1529
20.1314
20.1528
20.2049
20.2023
20.1498
20.128
20.1497
20.2021
20.1991
20.1459
20.1238
20.1458
20.1989
20.1956
20.1414
20.1186
20.1413
20.1954
20.192
20.1362
20.1124
20.1361
20.1918
20.1885
20.1304
20.1053
20.1303
20.1883
20.1855
20.1241
20.0972
20.124
20.1853
20.1833
20.1175
20.0881
20.1174
20.1831
20.1825
20.1111
20.0783
20.1109
20.1824
20.1836
20.1054
20.068
20.1053
20.1835
20.1888
20.0999
20.0569
20.0998
20.1887
20.2036
20.09
20.0432
20.0899
20.2035
20.0954
20.0887
20.1053
20.0887
20.0954
20.138
20.0495
20.094
20.0495
20.138
20.2274
20.0092
20.0539
20.0092
20.2273
20.3193
20.0053
19.9955
20.0053
20.3193
20.3471
20.0325
19.9688
20.0325
20.3471
20.3276
20.0605
19.9789
20.0605
20.3277
20.3025
20.0817
20.0052
20.0817
20.3026
20.282
20.0975
20.0299
20.0975
20.2821
20.2667
20.1092
20.0499
20.1092
20.2667
20.2554
20.1178
20.0656
20.1178
20.2554
20.2473
20.1246
20.0778
20.1246
20.2473
20.2414
20.13
20.0876
20.13
20.2414
20.2373
20.1344
20.0952
20.1344
20.2374
20.2346
20.1379
20.1013
20.138
20.2346
20.2325
20.141
20.1064
20.141
20.2326
20.2308
20.1437
20.1108
20.1437
20.2308
20.2294
20.146
20.1145
20.146
20.2295
20.2282
20.1479
20.1176
20.1479
20.2283
20.2272
20.1494
20.1201
20.1494
20.2272
20.2261
20.1505
20.122
20.1505
20.2261
20.225
20.1512
20.1233
20.1512
20.225
20.2238
20.1514
20.124
20.1513
20.2237
20.2223
20.151
20.1241
20.151
20.2221
20.2205
20.15
20.1234
20.15
20.2203
20.2183
20.1484
20.122
20.1484
20.2181
20.2156
20.1461
20.1198
20.146
20.2153
20.2122
20.1429
20.1166
20.1429
20.2119
20.208
20.1389
20.1125
20.1388
20.2077
20.2031
20.1339
20.1072
20.1338
20.2028
20.1974
20.1277
20.1006
20.1276
20.1971
20.1909
20.1203
20.0926
20.1202
20.1905
20.1837
20.1116
20.083
20.1115
20.1834
20.176
20.1017
20.0718
20.1016
20.1757
20.1681
20.0906
20.0589
20.0905
20.1679
20.1606
20.0787
20.0444
20.0786
20.1604
20.1541
20.0665
20.0288
20.0664
20.1539
20.1495
20.0551
20.0127
20.0549
20.1493
20.1494
20.0445
19.9963
20.0443
20.1492
20.1605
20.0306
19.9785
20.0305
20.1603
20.0955
20.0902
20.1059
20.0902
20.0955
20.1372
20.0512
20.0951
20.0512
20.1372
20.2264
20.0098
20.0559
20.0098
20.2264
20.3204
20.0037
19.9977
20.0037
20.3204
20.3523
20.0285
19.968
20.0286
20.3523
20.3367
20.0553
19.9731
20.0553
20.3368
20.3146
20.0754
19.9956
20.0754
20.3146
20.2962
20.0902
20.0179
20.0902
20.2963
20.2823
20.1011
20.0363
20.1011
20.2823
20.2721
20.1093
20.0509
20.1092
20.2721
20.2645
20.1156
20.0624
20.1156
20.2645
20.2589
20.1209
20.0718
20.1209
20.2589
20.255
20.1251
20.0792
20.1251
20.2551
20.2523
20.1285
20.0852
20.1286
20.2524
20.2502
20.1315
20.0903
20.1315
20.2503
20.2483
20.1342
20.0947
20.1342
20.2484
20.2467
20.1364
20.0985
20.1365
20.2469
20.2453
20.1382
20.1016
20.1383
20.2455
20.244
20.1396
20.1041
20.1397
20.2441
20.2427
20.1406
20.1059
20.1407
20.2426
20.2412
20.141
20.1072
20.1411
20.2409
20.2396
20.1409
20.1077
20.1411
20.2391
20.2376
20.1401
20.1074
20.1403
20.237
20.2352
20.1386
20.1062
20.1387
20.2347
20.2322
20.1362
20.1041
20.1363
20.2317
20.2285
20.1329
20.1009
20.1329
20.2281
20.2238
20.1284
20.0965
20.1284
20.2235
20.2181
20.1228
20.0908
20.1227
20.2177
20.211
20.1157
20.0835
20.1156
20.2106
20.2026
20.107
20.0743
20.1069
20.2021
20.1926
20.0963
20.063
20.0963
20.1921
20.181
20.0835
20.0492
20.0835
20.1806
20.1679
20.0683
20.0326
20.0683
20.1675
20.1533
20.0506
20.013
20.0505
20.153
20.1378
20.0306
19.9903
20.0305
20.1375
20.122
20.0089
19.9651
20.0088
20.1218
20.1072
19.987
19.9384
19.9868
20.107
20.0967
19.9661
19.9115
19.9659
20.0965
20.0994
19.9438
19.8849
19.9437
20.0992
20.0955
20.0912
20.1052
20.0912
20.0955
20.1354
20.0538
20.0968
20.0538
20.1354
20.2233
20.0115
20.0608
20.0115
20.2233
20.3199
20.0016
20.0037
20.0016
20.3198
20.3579
20.022
19.9709
20.0221
20.358
20.3484
20.0466
19.969
20.0466
20.3484
20.3308
20.0652
19.9852
20.0652
20.3308
20.3157
20.0785
20.0038
20.0785
20.3157
20.3039
20.0883
20.02
20.0883
20.3039
20.295
20.0956
20.0332
20.0956
20.295
20.2883
20.1015
20.0441
20.1015
20.2883
20.2831
20.1064
20.0531
20.1064
20.2831
20.2794
20.1105
20.0607
20.1106
20.2794
20.2767
20.1139
20.0669
20.1139
20.2768
20.2744
20.1169
20.0722
20.1169
20.2746
20.2723
20.1197
20.0769
20.1197
20.2726
20.2705
20.122
20.081
20.122
20.2709
20.2688
20.1239
20.0844
20.124
20.2692
20.2673
20.1254
20.0871
20.1255
20.2675
20.2655
20.1263
20.0893
20.1265
20.2654
20.2634
20.1267
20.0907
20.127
20.2629
20.2619
20.1265
20.0913
20.127
20.261
20.2596
20.1256
20.0911
20.1261
20.2587
20.2566
20.1238
20.0898
20.1243
20.2558
20.253
20.121
20.0873
20.1214
20.2524
20.2489
20.117
20.0834
20.1172
20.2485
20.2436
20.1115
20.0781
20.1117
20.2432
20.2366
20.1044
20.0709
20.1046
20.2361
20.2279
20.0953
20.0615
20.0955
20.2274
20.2171
20.0839
20.0496
20.084
20.2166
20.2036
20.0696
20.0344
20.0697
20.2032
20.1872
20.0518
20.0153
20.052
20.1868
20.1675
20.03
19.9916
20.0301
20.167
20.144
20.0034
19.9624
20.0035
20.1436
20.1165
19.9711
19.9269
19.9711
20.1161
20.085
19.9331
19.8849
19.9331
20.0847
20.0504
19.8908
19.8373
19.8908
20.0502
20.0169
19.8468
19.7868
19.8467
20.0167
19.9963
19.8015
19.7368
19.8014
19.9961
20.0955
20.0944
20.1064
20.0944
20.0955
20.1314
20.0591
20.1001
20.0591
20.1313
20.2146
20.0156
20.0696
20.0156
20.2145
20.3148
19.9994
20.0171
19.9994
20.3148
20.3628
20.0126
19.9821
20.0126
20.3628
20.3619
20.0313
19.9749
20.0313
20.362
20.3506
20.0469
19.9836
20.047
20.3507
20.3398
20.0582
19.9972
20.0581
20.3398
20.3308
20.0662
20.0109
20.0662
20.3307
20.3236
20.0724
20.0231
20.0724
20.3235
20.3178
20.0775
20.0338
20.0775
20.3178
20.313
20.082
20.0433
20.082
20.313
20.3093
20.086
20.0515
20.0861
20.3092
20.3065
20.0895
20.0585
20.0895
20.3064
20.3038
20.0929
20.0644
20.0927
20.3043
20.3014
20.096
20.0696
20.0957
20.3022
20.2991
20.0989
20.0742
20.0984
20.3003
20.2971
20.1012
20.078
20.1004
20.2987
20.2955
20.1028
20.0812
20.1023
20.2967
20.2936
20.1041
20.0838
20.104
20.294
20.2918
20.1049
20.0857
20.105
20.2916
20.2891
20.1046
20.0864
20.1044
20.2894
20.2858
20.1037
20.0864
20.1035
20.2862
20.2816
20.1019
20.0854
20.1021
20.2817
20.2769
20.099
20.0831
20.099
20.2774
20.2744
20.095
20.0794
20.0953
20.2748
20.2705
20.0893
20.074
20.0901
20.2699
20.2638
20.0818
20.0663
20.0826
20.2628
20.2548
20.0718
20.056
20.0728
20.2536
20.2431
20.0586
20.0421
20.0594
20.2423
20.228
20.0414
20.0238
20.0419
20.2276
20.2087
20.0189
19.9999
20.0197
20.2081
20.1837
19.9901
19.9687
19.9909
20.1828
20.1511
19.9535
19.9286
19.9541
20.1505
20.1094
19.9068
19.8769
19.9073
20.1089
20.0563
19.8476
19.8113
19.8479
20.0559
19.9887
19.7731
19.7295
19.7732
19.9884
19.9078
19.684
19.6321
19.684
19.9076
19.8266
19.5834
19.5254
19.5834
19.8264
20.0955
20.0951
20.1044
20.0951
20.0954
20.1233
20.0666
20.104
20.0666
20.1231
20.1947
20.0237
20.0847
20.0237
20.1944
20.296
19.9969
20.0397
19.997
20.296
20.3544
19.9994
20.0047
19.9994
20.3545
20.3613
20.0098
19.9975
20.0098
20.3614
20.3542
20.0201
20.0048
20.0202
20.3543
20.3457
20.0285
20.0169
20.0285
20.3457
20.338
20.035
20.0297
20.035
20.338
20.3315
20.0405
20.0417
20.0405
20.3315
20.3262
20.0455
20.0525
20.0456
20.326
20.3212
20.0506
20.0622
20.0506
20.3214
20.3176
20.0553
20.0709
20.0556
20.3172
20.3148
20.0595
20.0784
20.0598
20.3144
20.3122
20.0637
20.0847
20.0629
20.3134
20.3105
20.0672
20.0903
20.0663
20.3119
20.3093
20.0703
20.0951
20.0697
20.3102
20.3092
20.0721
20.0988
20.0717
20.31
20.3084
20.0741
20.1021
20.074
20.309
20.3074
20.0759
20.1049
20.076
20.3075
20.3069
20.0768
20.1068
20.0773
20.3068
20.3053
20.0778
20.108
20.0772
20.3066
20.3038
20.0777
20.1083
20.0768
20.3055
20.3024
20.0768
20.1077
20.0758
20.3047
20.3008
20.0749
20.106
20.0734
20.3052
20.2972
20.0708
20.103
20.071
20.3001
20.2924
20.0656
20.0982
20.0669
20.2921
20.2859
20.0586
20.0908
20.0589
20.2854
20.278
20.0482
20.0801
20.0486
20.278
20.2676
20.034
20.0655
20.0351
20.2675
20.2525
20.0151
20.0453
20.0159
20.2524
20.2328
19.9884
20.0171
19.9903
20.2317
20.2058
19.9503
19.9769
19.953
20.2032
20.1648
19.8977
19.9202
19.8997
20.1631
20.1042
19.8232
19.8399
19.8247
20.1032
20.0151
19.718
19.727
19.719
20.0144
19.8819
19.5689
19.5684
19.5694
19.8813
19.6888
19.3649
19.354
19.3652
19.6883
19.4254
19.0974
19.0775
19.0975
19.4251
20.0956
20.1022
20.1069
20.1022
20.0956
20.1092
20.0884
20.1109
20.0882
20.1087
20.1498
20.0612
20.1076
20.061
20.1491
20.2138
20.0458
20.0999
20.0459
20.2144
20.2501
20.0551
20.0971
20.0552
20.2503
20.243
20.0699
20.103
20.0699
20.2432
20.224
20.0841
20.1173
20.0841
20.2241
20.2059
20.0963
20.1365
20.0962
20.2059
20.1911
20.1062
20.1559
20.1062
20.1911
20.1796
20.1144
20.173
20.1143
20.1796
20.1712
20.1216
20.1869
20.1215
20.1711
20.1651
20.128
20.1984
20.1281
20.1651
20.1607
20.1338
20.2081
20.1338
20.1608
20.1584
20.1389
20.2161
20.1388
20.1583
20.1571
20.1437
20.223
20.1438
20.1567
20.156
20.1483
20.229
20.1483
20.1555
20.1556
20.1522
20.234
20.1525
20.1553
20.156
20.1559
20.2384
20.1564
20.1553
20.1556
20.1593
20.2418
20.1593
20.1551
20.1555
20.1617
20.2444
20.1613
20.1557
20.1569
20.1637
20.2465
20.1634
20.157
20.1571
20.1655
20.2485
20.1659
20.1573
20.1559
20.1665
20.2497
20.1669
20.157
20.1553
20.1671
20.2504
20.1674
20.1581
20.1554
20.1673
20.2509
20.1684
20.1573
20.1552
20.1673
20.2503
20.1677
20.1538
20.1536
20.1661
20.2484
20.1656
20.1522
20.1493
20.162
20.2444
20.1614
20.1504
20.1444
20.1559
20.2384
20.1553
20.1481
20.1395
20.1481
20.2304
20.1487
20.1415
20.1313
20.137
20.2187
20.1388
20.1318
20.1187
20.121
20.2007
20.1218
20.1201
20.1008
20.097
20.1737
20.0967
20.1009
20.0673
20.0594
20.1327
20.0599
20.0686
20.0192
20.0003
20.0681
20.001
20.0211
19.9495
19.9093
19.969
19.9099
19.9504
19.8374
19.7647
19.8119
19.7651
19.8375
19.6377
19.5296
19.5657
19.5298
19.6377
18.9674
18.8195
18.8634
18.8197
18.9673
20.0997
20.0947
20.1024
20.0948
20.1001
20.0957
20.1128
20.1128
20.1127
20.0957
20.0803
20.1378
20.1243
20.1378
20.0818
20.0643
20.1619
20.1377
20.1617
20.0648
20.0464
20.1945
20.1558
20.1946
20.0463
20.0179
20.2325
20.1829
20.2326
20.0181
19.9852
20.2663
20.2154
20.2663
19.9853
19.9565
20.293
20.2468
20.293
19.9565
19.9342
20.3136
20.2743
20.3136
19.9342
19.918
20.3293
20.2973
20.3293
19.9182
19.9058
20.3416
20.3159
20.3412
19.9074
19.8997
20.3506
20.3305
20.3508
19.8992
19.8965
20.3577
20.3417
20.3574
19.8965
19.895
20.3633
20.3505
20.3628
19.8954
19.8959
20.3679
20.358
20.3687
19.8921
19.8974
20.3716
20.3637
20.3724
19.8935
19.9
20.3742
20.3679
20.375
19.8973
19.9009
20.3779
20.3718
20.378
19.9009
19.9048
20.3793
20.3743
20.3792
19.9075
19.909
20.3808
20.3762
20.3802
19.9142
19.9115
20.3838
20.3782
20.3813
19.92
19.9182
20.3839
20.3795
20.383
19.9232
19.9241
20.3843
20.381
20.3848
19.9254
19.9272
20.3867
20.3834
20.3877
19.9267
19.929
20.3899
20.3859
20.3916
19.9268
19.929
20.3932
20.3875
20.3917
19.9316
19.9311
20.3941
20.3882
20.392
19.9376
19.935
20.3939
20.3885
20.3936
19.9397
19.9372
20.395
20.3886
20.3933
19.9418
19.9388
20.3968
20.3888
20.3956
19.942
19.9391
20.395
20.387
20.3977
19.9406
19.9375
20.3924
20.3806
20.3912
19.9386
19.9297
20.3851
20.3679
20.3816
19.9333
19.9128
20.3605
20.3401
20.3613
19.9187
19.8726
20.3077
20.28
20.3085
19.8758
19.7788
20.1964
20.1551
20.1968
19.7796
19.5599
19.9456
19.8835
19.9459
19.5599
19.0932
19.3955
19.2954
19.3959
19.0942
17.953
18.0854
17.9783
18.0859
17.9543
20.0746
20.3759
20.3569
20.3759
20.0746
20.2821
20.2462
20.3143
20.2462
20.2821
20.4319
20.1679
20.2123
20.1679
20.4319
20.4369
20.1794