/*--------------------------------*- C++ -*----------------------------------*\
  =========                 |
  \\      /  F ield         | OpenFOAM: The Open Source CFD Toolbox
   \\    /   O peration     | Website:  https://openfoam.org
    \\  /    A nd           | Version:  9
     \\/     M anipulation  |
\*---------------------------------------------------------------------------*/
FoamFile
{
    format      ascii;
    class       surfaceScalarField;
    location    "1";
    object      phi;
}
// * * * * * * * * * * * * * * * * * * * * * * * * * * * * * * * * * * * * * //

dimensions      [0 3 -1 0 0 0 0];

internalField   nonuniform List<scalar> 
12376
(
2.25863e-06
0.00125038
3.80861e-06
-3.57975e-06
0.000678092
6.22978e-05
3.57806e-06
0.000840069
8.95657e-06
-2.2606e-06
0.000678051
6.2295e-05
0.00125065
3.70642e-06
-6.56878e-06
0.00128352
-2.65667e-05
-5.31264e-08
0.000602165
6.94111e-05
5.71712e-08
0.000815307
2.46516e-05
6.57912e-06
0.000602103
6.94255e-05
0.00128367
-2.64349e-05
-2.19745e-05
0.00128765
1.78479e-05
5.44327e-06
0.000585638
-1.08913e-05
-5.45175e-06
0.000750227
7.59758e-05
2.20774e-05
0.000585602
-1.10274e-05
0.00128775
1.79924e-05
-3.61717e-05
0.001243
8.08203e-05
9.39839e-06
0.00062423
-8.41622e-05
-9.44094e-06
0.000687768
8.12979e-05
3.62064e-05
0.000624268
-8.4314e-05
0.00124321
8.0754e-05
-5.44354e-05
0.00117694
0.000120488
1.45429e-05
0.000678592
-0.000123339
-1.45501e-05
0.000666194
5.06667e-05
5.44513e-05
0.000678664
-0.000123397
0.00117723
0.000120424
-7.6277e-05
0.0011102
0.000143024
1.75242e-05
0.000728015
-0.000143224
-1.75315e-05
0.000676992
2.42584e-05
7.62586e-05
0.000728068
-0.000143195
0.00111043
0.000143064
-9.62321e-05
0.00105181
0.00015462
1.70553e-05
0.000766843
-0.000152116
-1.70706e-05
0.000704663
6.45486e-06
9.62103e-05
0.000766855
-0.000152068
0.00105193
0.000154705
-0.000111451
0.00100463
0.000158631
1.48932e-05
0.000796002
-0.000155504
-1.49164e-05
0.000736383
-1.91009e-06
0.000111427
0.000795967
-0.000155455
0.00100465
0.000158711
-0.000121978
0.000967756
0.000158852
1.21939e-05
0.000817567
-0.000155736
-1.22179e-05
0.000766079
-5.28497e-06
0.00012191
0.00081752
-0.000155681
0.000967623
0.000158936
-0.000128513
0.000939097
0.000157171
9.68828e-06
0.000833277
-0.000153911
-9.66165e-06
0.000791376
-5.94669e-06
0.000128415
0.000833212
-0.000153768
0.000938877
0.000157161
-0.000132075
0.000916774
0.000154398
7.49424e-06
0.000844512
-0.000150805
-7.47143e-06
0.000811721
-5.3793e-06
0.000132108
0.000844462
-0.00015083
0.000916524
0.00015446
-0.000133477
0.000898865
0.000151386
5.88021e-06
0.000852135
-0.00014698
-5.72933e-06
0.000827119
-3.78778e-06
0.000133749
0.000852052
-0.000147069
0.000898933
0.000151341
-0.000133195
0.000883804
0.000148256
4.54672e-06
0.000856917
-0.000142524
-4.55855e-06
0.000838224
-2.00037e-06
0.000133313
0.00085694
-0.000142759
0.000883848
0.000148398
-0.000132319
0.000871145
0.000144977
3.4398e-06
0.000859142
-0.000137984
-3.73816e-06
0.000845653
-2.50177e-07
0.000132695
0.000859203
-0.000138695
0.000870835
0.000145708
-0.000130059
0.00085918
0.000142025
2.85827e-06
0.000859468
-0.000133243
-3.02186e-06
0.000849976
1.55671e-06
0.000131042
0.000859215
-0.000134076
0.000859319
0.000142558
-0.00012817
0.000848161
0.000139189
2.41005e-06
0.000857547
-0.000128659
-2.36838e-06
0.000851388
3.36626e-06
0.000128377
0.000857215
-0.000128746
0.000848744
0.000138952
-0.000126489
0.000838205
0.000136445
2.09876e-06
0.000853285
-0.000124325
-1.9841e-06
0.000850296
5.175e-06
0.000125393
0.000853352
-0.000123514
0.000838412
0.000135724
-0.00012301
0.000827671
0.000133544
2.05076e-06
0.0008476
-0.000119376
-1.86313e-06
0.000846974
7.23638e-06
0.000122039
0.000847903
-0.000118453
0.000827639
0.000132812
-0.00011976
0.000816904
0.000130527
1.88009e-06
0.000840199
-0.000114239
-1.72394e-06
0.000841308
9.26936e-06
0.000119639
0.000840356
-0.000113816
0.000817137
0.000130141
-0.000116385
0.000805828
0.000127461
1.63143e-06
0.000831171
-0.000108989
-1.86999e-06
0.000833679
1.11302e-05
0.000116164
0.000831591
-0.000109269
0.000805486
0.000127815
-0.000112232
0.000792707
0.000125352
1.76195e-06
0.000821403
-0.000104226
-1.77814e-06
0.000824289
1.29303e-05
0.000112467
0.000821392
-0.000104047
0.000792624
0.00012533
-0.000109605
0.000778667
0.000123645
1.89732e-06
0.000809901
-0.0001
-1.73929e-06
0.000813431
1.44941e-05
0.000110027
0.000809315
-9.9689e-05
0.000779233
0.000123418
-0.00010696
0.000763897
0.00012173
1.93505e-06
0.000796298
-9.52927e-05
-1.88161e-06
0.000801044
1.62039e-05
0.000107143
0.000795984
-9.56945e-05
0.000764091
0.000122285
-0.00010384
0.000747418
0.000120318
2.01019e-06
0.000781215
-9.07669e-05
-1.94445e-06
0.0007869
1.80978e-05
0.000103838
0.000781248
-9.10471e-05
0.000747244
0.000120684
-0.000100882
0.000729269
0.00011903
2.17755e-06
0.000764575
-8.64206e-05
-1.99699e-06
0.000770986
2.00878e-05
0.000100524
0.000764691
-8.59649e-05
0.000729159
0.000118609
-9.75501e-05
0.000709308
0.000117511
2.30513e-06
0.000746464
-8.17446e-05
-2.24898e-06
0.000753507
2.20336e-05
9.72677e-05
0.000746391
-8.12162e-05
0.000709147
0.00011728
-9.42161e-05
0.000687281
0.000116243
2.38161e-06
0.000727028
-7.71615e-05
-2.58605e-06
0.000734573
2.3901e-05
9.43462e-05
0.000726677
-7.72186e-05
0.000687158
0.000116335
-9.14737e-05
0.000663476
0.000115279
2.59761e-06
0.00070593
-7.29731e-05
-2.57597e-06
0.000714054
2.56931e-05
9.16967e-05
0.000705397
-7.29929e-05
0.000663757
0.000115097
-8.92919e-05
0.000638565
0.000114203
2.72149e-06
0.000682651
-6.87344e-05
-2.75275e-06
0.000692098
2.74303e-05
8.89663e-05
0.000682762
-6.90843e-05
0.000637995
0.000114729
-8.59866e-05
0.0006112
0.000113352
2.88506e-06
0.000658182
-6.44027e-05
-3.04334e-06
0.000668857
2.91693e-05
8.63901e-05
0.000658588
-6.5259e-05
0.000610252
0.000114133
-8.2937e-05
0.000581493
0.000112644
3.05947e-06
0.000632599
-6.04133e-05
-3.18138e-06
0.000644248
3.08497e-05
8.3806e-05
0.000632719
-6.11177e-05
0.000581038
0.00011302
-8.01936e-05
0.000549738
0.000111949
3.33158e-06
0.000605674
-5.65994e-05
-3.33868e-06
0.000618435
3.24839e-05
8.07067e-05
0.000605639
-5.69652e-05
0.000549609
0.000112136
-7.74397e-05
0.000516027
0.000111151
3.61536e-06
0.000577432
-5.28129e-05
-3.51453e-06
0.000591496
3.40691e-05
7.76598e-05
0.00057737
-5.2905e-05
0.000516094
0.000111174
-7.46736e-05
0.000480586
0.000110115
3.774e-06
0.000547909
-4.8924e-05
-3.72762e-06
0.000563426
3.55719e-05
7.46048e-05
0.000547986
-4.89482e-05
0.000480569
0.00011013
-7.15388e-05
0.000443088
0.000109037
3.96019e-06
0.000517528
-4.51171e-05
-3.94314e-06
0.00053433
3.7e-05
7.15246e-05
0.000517643
-4.51248e-05
0.000443099
0.000108995
-6.84058e-05
0.000403631
0.000107864
4.1432e-06
0.000486457
-4.14781e-05
-4.13693e-06
0.000504204
3.84065e-05
6.8408e-05
0.00048659
-4.14912e-05
0.000403696
0.000107811
-6.52347e-05
0.000362305
0.000106561
4.28882e-06
0.000454951
-3.80173e-05
-4.28713e-06
0.000472915
3.98655e-05
6.52427e-05
0.000455089
-3.80285e-05
0.000362415
0.000106524
-6.20205e-05
0.000319602
0.000104724
4.35909e-06
0.000423014
-3.44425e-05
-4.35976e-06
0.000439924
4.17095e-05
6.20287e-05
0.000423145
-3.44451e-05
0.000319737
0.000104706
-5.86849e-05
0.000101047
0.00027724
4.29005e-06
-2.94107e-05
0.00038945
-4.2917e-06
4.46224e-05
0.000403884
5.86923e-05
-2.94091e-05
0.000389571
0.000101032
0.000277398
-1.75536e-06
0.00135215
8.88142e-06
-3.45406e-06
0.00050623
3.44751e-05
3.45344e-06
0.00078862
1.97755e-06
1.75356e-06
0.000506237
3.44674e-05
0.00135208
8.83456e-06
1.1586e-05
0.00132803
-1.40269e-05
-1.02686e-05
0.000582075
1.54213e-05
1.02711e-05
0.000766007
2.67245e-05
-1.15922e-05
0.0005821
1.54259e-05
0.00132806
-1.40012e-05
3.76738e-05
0.001265
4.32037e-05
-1.8036e-05
0.000671129
-4.42358e-05
1.80548e-05
0.000754431
5.14616e-05
-3.77219e-05
0.000671148
-4.42987e-05
0.00126511
4.32188e-05
5.80769e-05
0.00118767
0.00010007
-1.67781e-05
0.000752023
-9.02008e-05
1.67889e-05
0.000771028
3.11336e-05
-5.80579e-05
0.000752047
-9.03654e-05
0.00118775
0.000100054
5.84362e-05
0.00111585
0.000133869
-1.15235e-05
0.000810407
-0.000111764
1.15213e-05
0.000798057
5.93484e-07
-5.84417e-05
0.000810423
-0.00011181
0.00111589
0.000133841
4.72922e-05
0.00106057
0.000151018
-8.70077e-06
0.000846642
-0.000123466
8.68826e-06
0.000822663
-1.77366e-05
-4.72982e-05
0.000846651
-0.000123437
0.00106059
0.000151065
3.5911e-05
0.00102017
0.000159105
-8.55666e-06
0.00086875
-0.000129756
8.54008e-06
0.000842712
-3.06915e-05
-3.59197e-05
0.000868753
-0.00012971
0.00102019
0.000159186
2.6831e-05
0.000990114
0.000161858
-9.99562e-06
0.000882518
-0.000132445
9.97691e-06
0.00085894
-3.81102e-05
-2.68405e-05
0.000882512
-0.000132396
0.000990118
0.000161943
1.99413e-05
0.000967198
0.000161826
-1.17883e-05
0.000891236
-0.000132725
1.17685e-05
0.00087163
-4.15321e-05
-1.99549e-05
0.000891227
-0.000132672
0.000967186
0.000161914
1.47591e-05
0.000949341
0.00016027
-1.33636e-05
0.000896615
-0.000131167
1.3352e-05
0.000881328
-4.23596e-05
-1.47774e-05
0.00089661
-0.000131022
0.000949329
0.000160241
1.07976e-05
0.000935097
0.000157844
-1.49317e-05
0.000899663
-0.000128122
1.4923e-05
0.000887767
-4.16733e-05
-1.08129e-05
0.000899664
-0.000128147
0.000935089
0.000157887
7.74531e-06
0.000923325
0.000155414
-1.60631e-05
0.000900822
-0.000124331
1.60802e-05
0.000891712
-3.9876e-05
-7.75159e-06
0.000900816
-0.000124389
0.000923282
0.000155396
5.47322e-06
0.000913184
0.000152923
-1.67921e-05
0.000900406
-0.000119843
1.68024e-05
0.000893523
-3.74056e-05
-5.46691e-06
0.000900379
-0.000120052
0.000913209
0.000153004
3.72871e-06
0.000903862
0.000150571
-1.72484e-05
0.000898521
-0.000115121
1.7226e-05
0.000893403
-3.46052e-05
-3.6826e-06
0.000898524
-0.000115931
0.000903939
0.000151295
2.28692e-06
0.000895037
0.000148563
-1.74414e-05
0.000895351
-0.000110345
1.74075e-05
0.000891562
-3.14504e-05
-2.15805e-06
0.000895276
-0.000111263
0.000895002
0.000149337
1.07237e-06
0.000886271
0.000146882
-1.7475e-05
0.000890823
-0.000105584
1.74415e-05
0.000888032
-2.80206e-05
-9.87831e-07
0.000890603
-0.000105644
0.000886308
0.000146659
7.99973e-09
0.000876987
0.000145721
-1.73913e-05
0.00088498
-0.000101083
1.73617e-05
0.000883013
-2.45591e-05
-8.6101e-08
0.0008848
-0.000100263
0.000877205
0.000144741
-7.99865e-07
0.000867256
0.000144075
-1.72531e-05
0.000877867
-9.5811e-05
1.7237e-05
0.000876656
-2.08967e-05
7.01223e-07
0.000877831
-9.49488e-05
0.000867458
0.00014326
-1.33578e-06
0.000856781
0.000142338
-1.70928e-05
0.000869482
-9.00961e-05
1.71042e-05
0.000868844
-1.71153e-05
1.25658e-06
0.000869497
-8.96342e-05
0.000856841
0.000142014
-1.65042e-06
0.000845218
0.000140674
-1.68997e-05
0.000859813
-8.40709e-05
1.69001e-05
0.000859479
-1.33044e-05
1.51846e-06
0.000859885
-8.42764e-05
0.00084515
0.000141024
-1.90127e-06
0.000832733
0.000139738
-1.66403e-05
0.000848602
-7.82764e-05
1.66657e-05
0.000848584
-9.48074e-06
1.81596e-06
0.000848883
-7.81948e-05
0.000832646
0.000139651
-2.17806e-06
0.000818783
0.000139774
-1.63863e-05
0.000835982
-7.31712e-05
1.6337e-05
0.000836263
-5.90856e-06
2.32943e-06
0.00083624
-7.30385e-05
0.000818801
0.000139592
-2.44495e-06
0.000803481
0.000139476
-1.61298e-05
0.000821987
-6.76134e-05
1.59975e-05
0.0008226
-2.2605e-06
2.68911e-06
0.000821699
-6.78461e-05
0.00080377
0.000140005
-2.65242e-06
0.000787035
0.000139416
-1.56908e-05
0.000806176
-6.19181e-05
1.56769e-05
0.000807416
1.91381e-06
2.59919e-06
0.000805581
-6.18509e-05
0.000787324
0.00013973
-2.70282e-06
0.000768778
0.00013999
-1.51408e-05
0.000788497
-5.6304e-05
1.52308e-05
0.000790217
6.91504e-06
2.41105e-06
0.000788283
-5.58472e-05
0.000768647
0.000139697
-2.65141e-06
0.000748656
0.000140284
-1.46315e-05
0.000769368
-5.06358e-05
1.46781e-05
0.0007714
1.15408e-05
2.52808e-06
0.000769613
-5.03967e-05
0.000748335
0.00014012
-2.69116e-06
0.00072678
0.000140811
-1.41193e-05
0.000748742
-4.51069e-05
1.41097e-05
0.000751052
1.60198e-05
2.73735e-06
0.000749095
-4.53287e-05
0.000726483
0.000140925
-2.8082e-06
0.000703164
0.000141703
-1.35905e-05
0.000726329
-3.9778e-05
1.36359e-05
0.000729076
2.04428e-05
2.68003e-06
0.000726786
-3.97277e-05
0.000702704
0.000141556
-2.80083e-06
0.00067759
0.000142578
-1.31003e-05
0.00070241
-3.45159e-05
1.31603e-05
0.000705499
2.4747e-05
2.60819e-06
0.000702863
-3.46089e-05
0.000677311
0.000142731
-2.54081e-06
0.000650102
0.00014338
-1.26465e-05
0.000677178
-2.90656e-05
1.26137e-05
0.000680395
2.90127e-05
2.6249e-06
0.000677183
-2.95905e-05
0.000650155
0.000143914
-2.36125e-06
0.000620956
0.000144152
-1.21433e-05
0.000650171
-2.3624e-05
1.20978e-05
0.00065379
3.32141e-05
2.52323e-06
0.000649886
-2.42455e-05
0.000620996
0.000144702
-2.29194e-06
0.000590129
0.000145069
-1.15718e-05
0.000621455
-1.86028e-05
1.16154e-05
0.000625788
3.72982e-05
2.30663e-06
0.000621205
-1.89757e-05
0.000590098
0.000145341
-2.08291e-06
0.000557483
0.00014588
-1.10304e-05
0.000591365
-1.3775e-05
1.1096e-05
0.000596487
4.12442e-05
2.05341e-06
0.000591208
-1.38652e-05
0.000557468
0.000145858
-1.79963e-06
0.000523148
0.00014625
-1.05027e-05
0.000560058
-8.91372e-06
1.05364e-05
0.000565975
4.50446e-05
1.78136e-06
0.00055997
-8.95505e-06
0.000523175
0.000146204
-1.49712e-06
0.00048731
0.000146372
-9.95296e-06
0.000527646
-4.2492e-06
9.97029e-06
0.000534371
4.86816e-05
1.48698e-06
0.000527604
-4.27556e-06
0.000487342
0.000146315
-1.18611e-06
0.000450142
0.000146218
-9.38794e-06
0.000494238
1.322e-07
9.39862e-06
0.000501791
5.21996e-05
1.17853e-06
0.000494223
1.10043e-07
0.000450173
0.000146159
-8.85682e-07
0.000411943
0.000145646
-8.81637e-06
0.000459761
4.3905e-06
8.82258e-06
0.000468294
5.57241e-05
8.7913e-07
0.000459763
4.37584e-06
0.000411977
0.0001456
-5.37626e-07
0.000372919
0.000144286
-8.2745e-06
0.000424342
8.71329e-06
8.27709e-06
0.000433864
5.95879e-05
5.32565e-07
0.000424355
8.70741e-06
0.000372961
0.000144255
1.98765e-07
0.000141455
0.000332312
-7.89157e-06
1.38187e-05
0.000389203
7.89236e-06
6.41763e-05
0.000398526
-2.02477e-07
1.38184e-05
0.000389222
0.000141433
0.000332358
1.60946e-06
0.00134468
6.57579e-06
-5.81875e-06
0.000592478
3.38325e-05
5.8176e-06
0.00087771
9.81639e-06
-1.61045e-06
0.000592469
3.38238e-05
0.0013447
6.54149e-06
2.73192e-05
0.00130627
-2.9351e-06
-1.62913e-05
0.000639872
1.16375e-05
1.62912e-05
0.000843845
2.80068e-05
-2.73258e-05
0.000639882
1.16296e-05
0.0013063
-2.92894e-06
6.80751e-05
0.00123507
4.63255e-05
-2.15485e-05
0.000715954
-3.06935e-05
2.15616e-05
0.000822649
2.95474e-05
-6.81039e-05
0.000715974
-3.07245e-05
0.00123511
4.63033e-05
9.59801e-05
0.00116156
7.75988e-05
-1.10743e-05
0.000788355
-5.55475e-05
1.11048e-05
0.000826144
5.45978e-06
-9.60354e-05
0.000788345
-5.55961e-05
0.00116158
7.75458e-05
9.84863e-05
0.00109872
9.82183e-05
-2.17017e-07
0.000840746
-6.54526e-05
2.19942e-07
0.000842919
-1.66179e-05
-9.85143e-05
0.000840734
-6.54649e-05
0.00109871
9.82009e-05
8.86471e-05
0.00105178
0.000109311
3.48507e-06
0.000873606
-7.11628e-05
-3.49567e-06
0.000863464
-3.13013e-05
-8.86541e-05
0.000873597
-7.11408e-05
0.00105177
0.000109349
7.86076e-05
0.0010178
0.000114479
3.60291e-06
0.000893481
-7.46259e-05
-3.61573e-06
0.000880669
-4.06779e-05
-7.86132e-05
0.000893475
-7.45909e-05
0.0010178
0.000114541
7.06407e-05
0.000992761
0.00011626
2.43592e-06
0.000905489
-7.62481e-05
-2.44964e-06
0.000893535
-4.60906e-05
-7.06449e-05
0.000905485
-7.62105e-05
0.000992773
0.000116327
6.44476e-05
0.000973792
0.000116347
9.92854e-07
0.00091264
-7.64222e-05
-1.00921e-06
0.000902552
-4.85469e-05
-6.44457e-05
0.000912632
-7.63828e-05
0.000973833
0.000116407
5.94729e-05
0.00095894
0.000115649
-3.26779e-07
0.000916639
-7.5366e-05
2.94953e-07
0.000908474
-4.89032e-05
-5.94294e-05
0.000916654
-7.53194e-05
0.000958969
0.000115676
5.52569e-05
0.000946864
0.000114662
-1.3555e-06
0.000918439
-7.33097e-05
1.35766e-06
0.000911899
-4.78112e-05
-5.53024e-05
0.000918455
-7.32878e-05
0.000946893
0.000114661
5.17568e-05
0.000936652
0.000113869
-2.1655e-06
0.000918525
-7.04951e-05
2.173e-06
0.000913368
-4.56836e-05
-5.1811e-05
0.000918545
-7.04945e-05
0.000936639
0.00011384
4.87511e-05
0.000927589
0.000113235
-2.75503e-06
0.000917257
-6.70684e-05
2.81086e-06
0.000913201
-4.2805e-05
-4.8953e-05
0.000917346
-6.70894e-05
0.000927476
0.000113214
4.62365e-05
0.000919026
0.000112898
-3.18837e-06
0.000914807
-6.32464e-05
3.34473e-06
0.000911497
-3.94335e-05
-4.67092e-05
0.000914831
-6.33626e-05
0.000919063
0.000112999
4.40987e-05
0.000910692
0.000112798
-3.5408e-06
0.000911187
-5.90855e-05
3.69092e-06
0.000908398
-3.55835e-05
-4.45234e-05
0.000911012
-5.92294e-05
0.000910995
0.000112882
4.23106e-05
0.000902293
0.000112971
-3.85139e-06
0.000906388
-5.4623e-05
3.85218e-06
0.000904064
-3.13904e-05
-4.23043e-05
0.000906205
-5.46803e-05
0.000902488
0.000112861
4.07982e-05
0.000893733
0.000113483
-4.10018e-06
0.000900205
-5.00008e-05
3.97673e-06
0.000898381
-2.6953e-05
-4.04429e-05
0.000900141
-4.9779e-05
0.000893692
0.000113095
3.91726e-05
0.000884567
0.000114068
-4.19915e-06
0.00089277
-4.50045e-05
4.09058e-06
0.000891432
-2.22369e-05
-3.88567e-05
0.000892852
-4.47123e-05
0.000884374
0.000113722
3.75095e-05
0.0008745
0.000114895
-4.20044e-06
0.00088411
-3.97263e-05
4.16883e-06
0.000883229
-1.72814e-05
-3.74608e-05
0.000884277
-3.94291e-05
0.000874267
0.00011466
3.59517e-05
0.000863323
0.0001159
-4.11815e-06
0.000874204
-3.40952e-05
4.17549e-06
0.000873728
-1.20973e-05
-3.61819e-05
0.000874296
-3.39382e-05
0.000863249
0.00011586
3.46438e-05
0.000850875
0.000117542
-3.97473e-06
0.000863024
-2.84771e-05
4.00906e-06
0.000862822
-6.55906e-06
-3.47604e-05
0.000863181
-2.83106e-05
0.00085071
0.00011743
3.36979e-05
0.000837375
0.000119575
-3.84201e-06
0.000850127
-2.27344e-05
3.82906e-06
0.000849818
-5.75222e-07
-3.36563e-05
0.000850281
-2.26536e-05
0.000837107
0.000119538
3.27808e-05
0.000822431
0.000121639
-3.88465e-06
0.000835748
-1.65692e-05
3.87379e-06
0.000835341
4.45819e-06
-3.26757e-05
0.000835848
-1.68631e-05
0.000822304
0.000122132
3.19892e-05
0.000805595
0.000124263
-4.05564e-06
0.000820219
-1.03444e-05
4.06176e-06
0.000819391
9.74543e-06
-3.19315e-05
0.000820356
-1.0366e-05
0.000805633
0.000124469
3.11377e-05
0.000787383
0.000127064
-4.37338e-06
0.00080269
-3.26445e-06
4.28722e-06
0.000802115
1.55307e-05
-3.10047e-05
0.000802885
-3.08416e-06
0.000787311
0.000127014
2.99995e-05
0.000767573
0.000130094
-4.4172e-06
0.000783522
2.94939e-06
4.3338e-06
0.000783311
2.15937e-05
-2.98594e-05
0.000783569
3.11198e-06
0.00076753
0.000130041
2.90966e-05
0.000745816
0.000133472
-4.28381e-06
0.000763112
8.68282e-06
4.28098e-06
0.000762968
2.77978e-05
-2.90633e-05
0.000762911
8.67359e-06
0.000745994
0.000133397
2.81575e-05
0.00072257
0.000136791
-4.25246e-06
0.000740939
1.48049e-05
4.18391e-06
0.000740973
3.40015e-05
-2.81653e-05
0.00074074
1.47927e-05
0.000722556
0.000136829
2.73363e-05
0.000697646
0.000140166
-4.14922e-06
0.00071685
2.10585e-05
4.14064e-06
0.000717275
4.01549e-05
-2.74507e-05
0.000716749
2.09735e-05
0.000697513
0.000140323
2.67341e-05
0.000670779
0.000143514
-4.0122e-06
0.000691132
2.73996e-05
4.10547e-06
0.000691939
4.62314e-05
-2.68784e-05
0.000691072
2.70703e-05
0.000670723
0.000143825
2.60396e-05
0.000642016
0.000146875
-3.898e-06
0.00066398
3.34649e-05
4.00022e-06
0.000665079
5.21762e-05
-2.62471e-05
0.000663878
3.31962e-05
0.000642094
0.000147084
2.54552e-05
0.000611552
0.000150077
-3.79047e-06
0.000635311
3.93121e-05
3.86681e-06
0.00063677
5.79501e-05
-2.56251e-05
0.000635198
3.91959e-05
0.000611691
0.000150119
2.49854e-05
0.000579511
0.000152936
-3.68246e-06
0.000605194
4.50106e-05
3.71134e-06
0.000607116
6.35044e-05
-2.50436e-05
0.000605133
4.49547e-05
0.000579589
0.000152917
2.44865e-05
0.000545841
0.000155434
-3.53174e-06
0.00057385
5.04481e-05
3.54311e-06
0.000576285
6.88005e-05
-2.45065e-05
0.000573815
5.04127e-05
0.000545888
0.000155398
2.40072e-05
0.000510675
0.000157531
-3.35239e-06
0.000541406
5.55548e-05
3.35795e-06
0.000544439
7.38176e-05
-2.40158e-05
0.000541384
5.55294e-05
0.000510701
0.000157487
2.35495e-05
0.000474181
0.000159163
-3.14485e-06
0.000507937
6.02959e-05
3.14825e-06
0.000511779
7.85672e-05
-2.35544e-05
0.000507921
6.02766e-05
0.000474188
0.000159117
2.30734e-05
0.000436559
0.000160194
-2.88792e-06
0.000473595
6.46934e-05
2.89009e-06
0.000478603
8.31215e-05
-2.30772e-05
0.000473583
6.46803e-05
0.000436556
0.000160155
2.27712e-05
0.000397682
0.000160392
-2.64531e-06
0.000438841
6.88846e-05
2.64676e-06
0.00044524
8.76589e-05
-2.27751e-05
0.000438835
6.88774e-05
0.000397673
0.000160362
2.31806e-05
0.000159245
0.000356711
-2.69151e-06
7.32075e-05
0.000405324
2.69186e-06
9.23674e-05
0.000411666
-2.31832e-05
7.32056e-05
0.000405323
0.000159224
0.000356699
2.36617e-06
0.00134783
7.56067e-06
-7.19216e-06
0.000571132
1.6307e-05
7.19161e-06
0.000864134
4.01501e-06
-2.36796e-06
0.000571139
1.62962e-05
0.00134783
7.54107e-06
3.37196e-05
0.00130673
4.45284e-06
-1.74803e-05
0.000634664
-6.9518e-07
1.74813e-05
0.000844705
1.24741e-05
-3.37225e-05
0.000634675
-7.02948e-07
0.00130674
4.43853e-06
7.61962e-05
0.00124022
3.66416e-05
-1.7865e-05
0.000719623
-2.1591e-05
1.78687e-05
0.0008295
9.01813e-06
-7.62032e-05
0.000719631
-2.16089e-05
0.00124023
3.6616e-05
9.66635e-05
0.00116474
5.64125e-05
-2.95056e-06
0.000795044
-3.13546e-05
2.95422e-06
0.000834837
-5.78152e-06
-9.6673e-05
0.000795036
-3.13733e-05
0.00116472
5.63786e-05
9.23824e-05
0.0011017
6.88753e-05
9.05334e-06
0.000848567
-3.56461e-05
-9.0581e-06
0.000854577
-1.82465e-05
-9.23886e-05
0.00084855
-3.56487e-05
0.00110167
6.88675e-05
7.89421e-05
0.00105601
7.60553e-05
1.23567e-05
0.000882273
-3.82838e-05
-1.23637e-05
0.000875743
-2.7747e-05
-7.89465e-05
0.00088226
-3.82675e-05
0.00105599
7.60813e-05
6.73532e-05
0.00102347
7.96677e-05
1.19829e-05
0.000902881
-3.9863e-05
-1.19913e-05
0.000893409
-3.43699e-05
-6.73575e-05
0.000902873
-3.98383e-05
0.00102346
7.97101e-05
5.88491e-05
0.000999725
8.11563e-05
1.06824e-05
0.000915471
-4.06714e-05
-1.06911e-05
0.000906584
-3.78922e-05
-5.88525e-05
0.000915469
-4.06449e-05
0.000999734
8.12013e-05
5.26084e-05
0.000981819
8.1644e-05
9.22997e-06
0.000923083
-4.06556e-05
-9.23922e-06
0.000915621
-3.91147e-05
-5.26092e-05
0.000923086
-4.06295e-05
0.00098185
8.16831e-05
4.78663e-05
0.000967811
8.1791e-05
7.94722e-06
0.000927413
-3.97767e-05
-7.95898e-06
0.000921332
-3.87072e-05
-4.78614e-05
0.000927422
-3.97534e-05
0.000967851
8.18124e-05
4.41006e-05
0.000956413
8.19595e-05
6.90759e-06
0.000929388
-3.80926e-05
-6.91512e-06
0.000924469
-3.71257e-05
-4.41052e-05
0.000929402
-3.8077e-05
0.000956452
8.19554e-05
4.10596e-05
0.000946744
8.2479e-05
6.08666e-06
0.000929574
-3.57078e-05
-6.09433e-06
0.000925626
-3.46591e-05
-4.10718e-05
0.000929588
-3.57026e-05
0.000946766
8.2454e-05
3.85945e-05
0.000938119
8.32657e-05
5.43243e-06
0.000928348
-3.26803e-05
-5.43885e-06
0.000925166
-3.14743e-05
-3.86319e-05
0.000928374
-3.26825e-05
0.000938114
8.32339e-05
3.65609e-05
0.000929987
8.44687e-05
4.8897e-06
0.000925927
-2.91544e-05
-4.88617e-06
0.000923289
-2.77801e-05
-3.66438e-05
0.000925941
-2.91716e-05
0.000930019
8.445e-05
3.4731e-05
0.000922059
8.59945e-05
4.36353e-06
0.000922362
-2.51524e-05
-4.35453e-06
0.000920065
-2.36413e-05
-3.48056e-05
0.000922341
-2.51783e-05
0.000922139
8.59577e-05
3.30799e-05
0.00091405
8.79001e-05
3.92816e-06
0.00091764
-2.07502e-05
-3.92466e-06
0.000915619
-1.90919e-05
-3.30875e-05
0.000917584
-2.07611e-05
0.000914106
8.78064e-05
3.16302e-05
0.000905737
9.01659e-05
3.53765e-06
0.000911717
-1.59853e-05
-3.57056e-06
0.000909945
-1.41707e-05
-3.15052e-05
0.000911671
-1.59315e-05
0.00090569
9.00051e-05
3.02488e-05
0.000896819
9.27373e-05
3.20625e-06
0.000904598
-1.08423e-05
-3.24522e-06
0.00090305
-8.89056e-06
-3.01112e-05
0.000904574
-1.07489e-05
0.000896714
9.25865e-05
2.89566e-05
0.000887069
9.56882e-05
2.91643e-06
0.000896249
-5.33775e-06
-2.96056e-06
0.000894892
-3.2465e-06
-2.88337e-05
0.00089625
-5.2319e-06
0.000886959
9.55817e-05
2.77252e-05
0.000876289
9.89549e-05
2.65523e-06
0.000886668
5.55864e-07
-2.69203e-06
0.000885448
2.69392e-06
-2.764e-05
0.000886658
6.01214e-07
0.00087623
9.89488e-05
2.66717e-05
0.000864463
0.000102696
2.38434e-06
0.00087574
6.739e-06
-2.41533e-06
0.000874714
8.97461e-06
-2.6595e-05
0.000875765
6.76278e-06
0.000864345
0.000102719
2.57539e-05
0.000851457
0.000106827
2.13611e-06
0.000863399
1.32238e-05
-2.14186e-06
0.00086286
1.55565e-05
-2.57324e-05
0.000863475
1.32268e-05
0.000851264
0.000106887
2.49001e-05
0.000836941
0.000111254
2.09172e-06
0.000849606
2.0032e-05
-2.05383e-06
0.000849203
2.22611e-05
-2.49688e-05
0.000849575
1.99513e-05
0.000836969
0.000111458
2.4135e-05
0.000821029
0.000116041
2.08083e-06
0.000834186
2.71295e-05
-2.08402e-06
0.000833885
2.92277e-05
-2.40951e-05
0.000834113
2.71073e-05
0.000821155
0.000116188
2.3302e-05
0.000803632
0.000121158
2.08385e-06
0.000817633
3.45073e-05
-2.1478e-06
0.000817176
3.64713e-05
-2.314e-05
0.000817607
3.44134e-05
0.000803688
0.000121341
2.25859e-05
0.000784486
0.000126654
1.9809e-06
0.000799398
4.17888e-05
-2.04563e-06
0.000798893
4.39034e-05
-2.24156e-05
0.000799425
4.16646e-05
0.000784486
0.000126827
2.20654e-05
0.00076361
0.000132282
1.79973e-06
0.000779161
4.91859e-05
-1.82736e-06
0.000778849
5.14685e-05
-2.19718e-05
0.000779193
4.90497e-05
0.000763509
0.000132403
2.15475e-05
0.000740841
0.000138012
1.65341e-06
0.000757181
5.66787e-05
-1.67924e-06
0.000757081
5.91028e-05
-2.14843e-05
0.000757259
5.65314e-05
0.000740707
0.000138147
2.10036e-05
0.000716162
0.000143842
1.56322e-06
0.00073354
6.41397e-05
-1.5686e-06
0.00073363
6.67375e-05
-2.10011e-05
0.000733606
6.40591e-05
0.000716112
0.000143916
2.04831e-05
0.00068964
0.000149553
1.51572e-06
0.000708269
7.1638e-05
-1.47018e-06
0.000708534
7.43133e-05
-2.05841e-05
0.000708254
7.15369e-05
0.000689717
0.000149637
2.00316e-05
0.000661342
0.000155142
1.46518e-06
0.00068134
7.89612e-05
-1.4165e-06
0.000681853
8.17394e-05
-2.01491e-05
0.000681301
7.88811e-05
0.000661463
0.000155188
1.96539e-05
0.000631288
0.000160477
1.4206e-06
0.000652843
8.60418e-05
-1.39743e-06
0.000653683
8.89382e-05
-1.97172e-05
0.000652825
8.59918e-05
0.000631382
0.000160483
1.92909e-05
0.000599484
0.000165449
1.40855e-06
0.000622927
9.28093e-05
-1.39996e-06
0.000624159
9.58365e-05
-1.93185e-05
0.000622923
9.2776e-05
0.000599545
0.000165436
1.89527e-05
0.000566006
0.000169959
1.42697e-06
0.00059173
9.91707e-05
-1.42436e-06
0.000593452
0.00010236
-1.89641e-05
0.000591729
9.91466e-05
0.000566043
0.000169936
1.86547e-05
0.000530964
0.000173919
1.47712e-06
0.000559407
0.000105055
-1.47682e-06
0.000561766
0.000108457
-1.86589e-05
0.000559403
0.000105037
0.000530982
0.00017389
1.83863e-05
0.000494509
0.000177232
1.57006e-06
0.000526111
0.000110408
-1.57037e-06
0.000529374
0.0001141
-1.83873e-05
0.000526103
0.000110394
0.000494511
0.000177201
1.81183e-05
0.000456823
0.000179762
1.72607e-06
0.000491997
0.0001152
-1.72638e-06
0.000496653
0.000119295
-1.81179e-05
0.000491985
0.000115189
0.000456813
0.000179734
1.80657e-05
0.000417821
0.000181328
1.89322e-06
0.000457577
0.000119478
-1.89347e-06
0.000463976
0.000124123
-1.80645e-05
0.000457562
0.000119472
0.000417806
0.000181305
1.88657e-05
0.000181628
0.000376573
1.74078e-06
0.000123363
0.000424547
-1.74123e-06
0.000128624
0.000431201
-1.88637e-05
0.00012336
0.00042453
0.000181611
0.000376555
3.78071e-06
0.00135996
7.62792e-06
-8.00221e-06
0.000584146
1.13972e-05
8.00149e-06
0.000889064
5.3145e-06
-3.7812e-06
0.000584156
1.13864e-05
0.00135997
7.6151e-06
3.68136e-05
0.00132035
7.25066e-06
-1.79662e-05
0.000636659
1.57143e-06
1.79676e-05
0.000857601
8.00261e-06
-3.68126e-05
0.000636669
1.5645e-06
0.00132036
7.23784e-06
7.85408e-05
0.00125237
2.60787e-05
-1.5842e-05
0.000719239
-9.78807e-06
1.58455e-05
0.000830978
3.95448e-06
-7.854e-05
0.000719243
-9.79674e-06
0.00125237
2.60601e-05
9.47568e-05
0.00117445
3.95752e-05
1.63811e-06
0.000796482
-1.54782e-05
-1.63807e-06
0.000834404
-5.93149e-06
-9.47571e-05
0.000796474
-1.54858e-05
0.00117444
3.95582e-05
8.58662e-05
0.0011098
4.76633e-05
1.3008e-05
0.000851528
-1.78345e-05
-1.30118e-05
0.000855354
-1.31769e-05
-8.58683e-05
0.000851515
-1.78334e-05
0.00110977
4.76617e-05
6.96755e-05
0.00106342
5.27598e-05
1.5539e-05
0.000886449
-1.90683e-05
-1.55461e-05
0.000878113
-1.9421e-05
-6.9679e-05
0.000886438
-1.90574e-05
0.0010634
5.27767e-05
5.67758e-05
0.00103065
5.56594e-05
1.53495e-05
0.00090787
-1.98569e-05
-1.5357e-05
0.000897825
-2.33747e-05
-5.67795e-05
0.000907864
-1.98412e-05
0.00103064
5.56861e-05
4.76208e-05
0.00100697
5.72218e-05
1.37052e-05
0.000921253
-2.01395e-05
-1.37125e-05
0.000912538
-2.51879e-05
-4.76239e-05
0.000921253
-2.01232e-05
0.00100697
5.72497e-05
4.11184e-05
0.000989267
5.82247e-05
1.18745e-05
0.0009296
-1.97585e-05
-1.18826e-05
0.000922657
-2.54769e-05
-4.11203e-05
0.000929606
-1.9744e-05
0.000989288
5.82476e-05
3.63778e-05
0.000975538
5.91425e-05
1.02839e-05
0.000934571
-1.86538e-05
-1.02935e-05
0.000929133
-2.46052e-05
-3.63784e-05
0.000934581
-1.86434e-05
0.000975568
5.91534e-05
3.27896e-05
0.000964453
6.02552e-05
9.01121e-06
0.000937098
-1.68412e-05
-9.02275e-06
0.000932837
-2.2796e-05
-3.27908e-05
0.000937109
-1.68373e-05
0.000964484
6.02497e-05
3.00236e-05
0.000955128
6.17802e-05
8.02163e-06
0.000937761
-1.43687e-05
-8.0342e-06
0.000934437
-2.02031e-05
-3.00273e-05
0.000937771
-1.43715e-05
0.000955151
6.17595e-05
2.78822e-05
0.000946851
6.36601e-05
7.22766e-06
0.000936984
-1.12485e-05
-7.24077e-06
0.000934344
-1.69129e-05
-2.78899e-05
0.000936994
-1.12565e-05
0.000946864
6.3631e-05
2.61834e-05
0.000939106
6.60308e-05
6.59106e-06
0.000935012
-7.59066e-06
-6.60214e-06
0.000932808
-1.30511e-05
-2.6196e-05
0.00093502
-7.60344e-06
0.00093912
6.5998e-05
2.47045e-05
0.000931591
6.88052e-05
6.08027e-06
0.000931899
-3.41504e-06
-6.08846e-06
0.000929996
-8.66055e-06
-2.47102e-05
0.000931895
-3.43131e-06
0.000931606
6.87615e-05
2.34104e-05
0.000924041
7.20397e-05
5.65639e-06
0.000927656
1.24712e-06
-5.66367e-06
0.000925991
-3.7669e-06
-2.33956e-05
0.00092763
1.23532e-06
0.00092404
7.19766e-05
2.22861e-05
0.000916203
7.57177e-05
5.28507e-06
0.000922283
6.38906e-06
-5.2978e-06
0.000920812
1.59089e-06