/*--------------------------------*- C++ -*----------------------------------*\
  =========                 |
  \\      /  F ield         | OpenFOAM: The Open Source CFD Toolbox
   \\    /   O peration     | Website:  https://openfoam.org
    \\  /    A nd           | Version:  9
     \\/     M anipulation  |
\*---------------------------------------------------------------------------*/
FoamFile
{
    format      ascii;
    class       volVectorField;
    location    "1";
    object      U;
}
// * * * * * * * * * * * * * * * * * * * * * * * * * * * * * * * * * * * * * //

dimensions      [0 1 -1 0 0 0 0];

internalField   nonuniform List<vector> 
4545
(
(-0.00388002 -0.596941 -2.50571)
(0.0623056 -0.347672 -0.000168134)
(0.0208479 -0.406441 -5.56526e-08)
(0.0623041 -0.347652 0.000167776)
(-0.00391236 -0.597024 2.5057)
(-0.0118682 -0.598319 -2.38001)
(0.0525543 -0.316048 -0.00105029)
(0.0229705 -0.398681 6.3109e-07)
(0.0525527 -0.316026 0.00105256)
(-0.0117728 -0.598481 2.38)
(0.00436269 -0.613424 -2.3651)
(0.00873863 -0.264743 -0.00269532)
(0.0411121 -0.376077 -1.35776e-06)
(0.00871232 -0.264701 0.00271962)
(0.0044847 -0.613458 2.35304)
(0.04186 -0.611934 -2.37327)
(-0.0433644 -0.283183 -0.0043895)
(0.0529752 -0.333425 -6.96569e-06)
(-0.0433885 -0.283181 0.00440363)
(0.0417118 -0.611974 2.36089)
(0.0655787 -0.57454 -2.37946)
(-0.0693846 -0.312756 -0.00658226)
(0.0400354 -0.317031 -1.21036e-06)
(-0.0694009 -0.31281 0.00658368)
(0.065518 -0.574725 2.37947)
(0.0777929 -0.539549 -2.35367)
(-0.0848643 -0.336452 -0.00988786)
(0.0275481 -0.317947 -1.24039e-06)
(-0.0848447 -0.336475 0.00988354)
(0.0778082 -0.539655 2.35368)
(0.085008 -0.511025 -2.33628)
(-0.0931492 -0.356231 -0.0135901)
(0.0206709 -0.328207 -2.64972e-06)
(-0.0931203 -0.356242 0.0135837)
(0.0850539 -0.511086 2.33629)
(0.0883886 -0.487137 -2.32406)
(-0.0976843 -0.371871 -0.0169055)
(0.0173951 -0.342644 -4.08586e-06)
(-0.0976573 -0.371872 0.0168971)
(0.0884267 -0.487168 2.32408)
(0.0897396 -0.467638 -2.31528)
(-0.100019 -0.383708 -0.0196002)
(0.015906 -0.357291 -4.32422e-06)
(-0.0999901 -0.383687 0.0195838)
(0.0897727 -0.467629 2.31531)
(0.0901051 -0.452214 -2.29998)
(-0.101047 -0.392418 -0.021684)
(0.0154755 -0.370358 4.89846e-06)
(-0.101023 -0.3924 0.0216256)
(0.0901668 -0.452138 2.30896)
(0.0899989 -0.440426 -2.29525)
(-0.10137 -0.398788 -0.0231903)
(0.0159014 -0.381171 4.27792e-06)
(-0.101351 -0.398737 0.0231521)
(0.0900433 -0.440265 2.30435)
(0.0895495 -0.430915 -2.27691)
(-0.101036 -0.403211 -0.0243074)
(0.0166769 -0.389598 2.88564e-05)
(-0.101051 -0.403171 0.0242535)
(0.0896125 -0.430952 2.30108)
(0.0891045 -0.423359 -2.27411)
(-0.100287 -0.406089 -0.0250069)
(0.0175125 -0.395832 -2.30505e-06)
(-0.100305 -0.406092 0.025143)
(0.0890753 -0.423232 2.25382)
(0.0884573 -0.416707 -2.29695)
(-0.0992622 -0.407744 -0.0254026)
(0.0183277 -0.400211 -5.93676e-05)
(-0.099156 -0.407829 0.0257353)
(0.0883717 -0.416783 2.24188)
(0.0874407 -0.410888 -2.25093)
(-0.0977713 -0.408394 -0.0258401)
(0.0191492 -0.402993 -3.3215e-05)
(-0.0976472 -0.408289 0.0260443)
(0.0873308 -0.410804 2.24435)
(0.0864224 -0.405552 -2.24917)
(-0.0960028 -0.408005 -0.0260648)
(0.019899 -0.404321 8.62913e-06)
(-0.0960502 -0.407794 0.0260979)
(0.0862896 -0.405668 2.25229)
(0.0852406 -0.400591 -2.27205)
(-0.0939937 -0.406521 -0.0261557)
(0.0204103 -0.404314 2.40568e-05)
(-0.0938845 -0.406506 0.0260877)
(0.0849387 -0.40084 2.24848)
(0.0839459 -0.395583 -2.22996)
(-0.0919923 -0.404114 -0.0261922)
(0.0207518 -0.403393 4.00982e-05)
(-0.0916901 -0.404235 0.0260521)
(0.0836345 -0.395658 2.22513)
(0.0830088 -0.390882 -2.25056)
(-0.0900923 -0.401031 -0.0259153)
(0.0210858 -0.401172 3.42717e-05)
(-0.0898337 -0.401157 0.0258107)
(0.0828345 -0.390903 2.27005)
(0.0821779 -0.385442 -2.29318)
(-0.0882009 -0.397081 -0.0254944)
(0.0214126 -0.398005 -5.3477e-05)
(-0.0881067 -0.39721 0.0256585)
(0.0820604 -0.385341 2.24648)
(0.0818198 -0.379791 -2.24605)
(-0.0867038 -0.392713 -0.025298)
(0.0217553 -0.393972 -3.69857e-06)
(-0.0863158 -0.392757 0.0253529)
(0.0814591 -0.379803 2.24524)
(0.0812872 -0.373555 -2.24449)
(-0.0847699 -0.387657 -0.0251665)
(0.0221394 -0.389159 3.68572e-05)
(-0.084271 -0.387551 0.0250337)
(0.0808963 -0.373532 2.29219)
(0.0804078 -0.366289 -2.24469)
(-0.0824231 -0.381619 -0.0250297)
(0.02268 -0.383644 1.27001e-05)
(-0.0827727 -0.381458 0.0248243)
(0.080948 -0.366646 2.29148)
(0.0803601 -0.359353 -2.24315)
(-0.0806482 -0.374913 -0.0247619)
(0.0234521 -0.377361 1.59417e-05)
(-0.0810575 -0.374773 0.0245139)
(0.0809073 -0.359244 2.29083)
(0.0803903 -0.350878 -2.25691)
(-0.0787204 -0.367393 -0.0244057)
(0.024449 -0.370226 4.46927e-05)
(-0.0785177 -0.367403 0.0241811)
(0.0801926 -0.350873 2.29024)
(0.0801448 -0.341931 -2.25563)
(-0.0765472 -0.359036 -0.0240288)
(0.0254839 -0.362284 1.41822e-05)
(-0.0759527 -0.359132 0.0240338)
(0.0794999 -0.341823 2.24421)
(0.0799001 -0.331914 -2.24325)
(-0.0743234 -0.350211 -0.0236975)
(0.0264899 -0.353649 -5.26506e-05)
(-0.0740045 -0.350045 0.0239201)
(0.0794395 -0.331725 2.19883)
(0.0798037 -0.321021 -2.24158)
(-0.0721214 -0.340538 -0.0234009)
(0.0274482 -0.344277 5.68174e-06)
(-0.0722364 -0.340357 0.0234653)
(0.0797733 -0.321318 2.24149)
(0.0795793 -0.309673 -2.28704)
(-0.0696146 -0.330078 -0.0230112)
(0.0284473 -0.334193 -8.40403e-06)
(-0.0701832 -0.329973 0.0231309)
(0.0800573 -0.309293 2.24581)
(0.079455 -0.296872 -2.2545)
(-0.067201 -0.318665 -0.0226971)
(0.029481 -0.323453 -4.33141e-05)
(-0.0680422 -0.318794 0.0228171)
(0.0802718 -0.296782 2.24407)
(0.0799422 -0.283733 -2.253)
(-0.0654079 -0.306784 -0.0222599)
(0.0304897 -0.312082 -3.40275e-05)
(-0.0657678 -0.30691 0.0223033)
(0.0803969 -0.283235 2.28495)
(0.0802225 -0.26878 -2.25289)
(-0.0632911 -0.294333 -0.0218483)
(0.0315292 -0.3001 -2.03652e-06)
(-0.0634056 -0.294349 0.0218343)
(0.0804506 -0.268804 2.28413)
(0.0802719 -0.253564 -2.2514)
(-0.0609002 -0.281227 -0.0214119)
(0.0325955 -0.287558 2.9246e-05)
(-0.0609857 -0.281176 0.0213466)
(0.0804448 -0.253392 2.28335)
(0.0803076 -0.236943 -2.28264)
(-0.0584643 -0.267468 -0.0208237)
(0.0336341 -0.27449 1.3711e-05)
(-0.0584903 -0.267497 0.0208172)
(0.0803413 -0.237031 2.28261)
(0.0801659 -0.219663 -2.28196)
(-0.0559396 -0.25323 -0.0202491)
(0.0346784 -0.260896 5.14071e-06)
(-0.0559473 -0.253265 0.0202499)
(0.0801431 -0.219615 2.28194)
(0.0799645 -0.201413 -2.28138)
(-0.0534249 -0.238608 -0.019644)
(0.0357822 -0.246809 1.92666e-06)
(-0.0534417 -0.238672 0.0196466)
(0.0799361 -0.201448 2.28136)
(0.0797148 -0.182194 -2.28092)
(-0.0509856 -0.223706 -0.0190071)
(0.0369497 -0.232203 5.27668e-07)
(-0.051002 -0.22378 0.0190102)
(0.0797022 -0.182253 2.2809)
(0.0790128 -0.162174 -2.28067)
(-0.0483588 -0.208729 -0.0183464)
(0.0384247 -0.217023 -2.16714e-07)
(-0.048364 -0.208795 0.0183489)
(0.0790178 -0.162239 2.28066)
(0.075914 -0.1418 -2.27868)
(-0.0436514 -0.193088 -0.0176614)
(0.0409925 -0.200755 -5.39716e-07)
(-0.0436518 -0.193142 0.0176632)
(0.0759131 -0.141855 2.27868)
(0.00586126 -0.642781 -2.50423)
(-0.00531759 -0.227121 -0.000682857)
(-0.0117042 -0.374969 -6.49252e-08)
(-0.00531907 -0.227122 0.000682518)
(0.00582579 -0.642774 2.50424)
(-0.00625768 -0.637599 -2.40463)
(-0.00399875 -0.246775 0.000209507)
(-0.00146035 -0.370836 3.87783e-07)
(-0.00398874 -0.246781 -0.000210087)
(-0.00625409 -0.637597 2.40464)
(0.0186855 -0.630871 -2.33604)
(-0.024826 -0.29331 0.00305501)
(0.0184931 -0.354524 2.99854e-06)
(-0.0248555 -0.29332 -0.00306019)
(0.0186874 -0.630908 2.33558)
(0.0516234 -0.588271 -2.15687)
(-0.0501866 -0.342615 0.00654011)
(0.0113992 -0.359308 1.76631e-06)
(-0.0503079 -0.342625 -0.00653622)
(0.0516552 -0.588311 2.15645)
(0.0727323 -0.541584 -2.04217)
(-0.0646915 -0.374643 0.00752273)
(-0.00169447 -0.372613 -3.76864e-07)
(-0.0647262 -0.374658 -0.007524)
(0.0727321 -0.541619 2.04218)
(0.0857514 -0.513614 -1.95925)
(-0.0723727 -0.395687 0.00627728)
(-0.0125307 -0.385645 -2.1348e-06)
(-0.0723604 -0.395692 -0.00628037)
(0.0857766 -0.513626 1.95926)
(0.0931162 -0.492594 -1.90219)
(-0.0768658 -0.408619 0.0045052)
(-0.0195621 -0.396215 -2.88265e-06)
(-0.0768445 -0.408621 -0.00450949)
(0.0931553 -0.492603 1.90222)
(0.0970446 -0.476496 -1.86134)
(-0.0795472 -0.416618 0.00279002)
(-0.023668 -0.404696 -3.31655e-06)
(-0.0795238 -0.416617 -0.0027949)
(0.0970848 -0.476502 1.86138)
(0.0991507 -0.464222 -1.83129)
(-0.081034 -0.421681 0.00132806)
(-0.0257825 -0.411439 -3.58581e-06)
(-0.0810051 -0.421677 -0.00133393)
(0.0991935 -0.464221 1.83133)
(0.10014 -0.454753 -1.80879)
(-0.0815558 -0.424896 0.000152121)
(-0.0265759 -0.416671 -2.15136e-06)
(-0.0814318 -0.424893 -0.000157449)
(0.100085 -0.454748 1.80882)
(0.10035 -0.447247 -1.79185)
(-0.0812146 -0.426856 -0.00073554)
(-0.0264873 -0.420456 2.12016e-07)
(-0.0812426 -0.426852 0.000733055)
(0.100406 -0.447238 1.79187)
(0.100409 -0.441172 -1.77929)
(-0.0805139 -0.42783 -0.00143174)
(-0.0258563 -0.422888 6.03073e-06)
(-0.0805623 -0.427829 0.00143661)
(0.10045 -0.441164 1.77927)
(0.10036 -0.436114 -1.76936)
(-0.0794104 -0.427944 -0.00196613)
(-0.024937 -0.424209 3.55863e-06)
(-0.0796104 -0.427936 0.00197091)
(0.10045 -0.436101 1.76935)
(0.100336 -0.43151 -1.76146)
(-0.0781774 -0.4274 -0.00238605)
(-0.0239041 -0.424597 -4.91991e-06)
(-0.0790288 -0.427393 0.00238998)
(0.101111 -0.431547 1.76144)
(0.1006 -0.427235 -1.75236)
(-0.0770946 -0.426221 -0.00272224)
(-0.0227045 -0.42413 -7.83324e-06)
(-0.0780903 -0.426232 0.00273987)
(0.101568 -0.427219 1.75539)
(0.101262 -0.423099 -1.7476)
(-0.0761734 -0.424384 -0.00300169)
(-0.0213108 -0.422841 -5.95319e-06)
(-0.0761693 -0.424302 0.0030117)
(0.101034 -0.423091 1.73421)
(0.102426 -0.418854 -1.7468)
(-0.0755741 -0.421929 -0.00324246)
(-0.0199791 -0.420798 -2.32835e-06)
(-0.0747526 -0.421802 0.00322455)
(0.101348 -0.418963 1.73024)
(0.102768 -0.41435 -1.74344)
(-0.0741585 -0.418855 -0.00343569)
(-0.0184945 -0.418106 3.42183e-07)
(-0.0733711 -0.418802 0.00341629)
(0.101915 -0.414452 1.74111)
(0.102773 -0.409625 -1.72752)
(-0.0721649 -0.415133 -0.00358074)
(-0.0168165 -0.414744 3.72942e-06)
(-0.0719024 -0.41515 0.00356765)
(0.102587 -0.409656 1.73603)
(0.102787 -0.404368 -1.72456)
(-0.0698997 -0.410886 -0.00367816)
(-0.0150001 -0.410678 -9.21512e-07)
(-0.0703325 -0.410914 0.00364817)
(0.103255 -0.404422 1.73581)
(0.103001 -0.398674 -1.735)
(-0.0676325 -0.406016 -0.00374622)
(-0.013008 -0.405869 4.02905e-06)
(-0.0677203 -0.40601 0.00373513)
(0.103122 -0.398582 1.70689)
(0.104426 -0.392485 -1.73193)
(-0.0662225 -0.400221 -0.00382473)
(-0.0111105 -0.400352 -1.14615e-05)
(-0.066232 -0.400485 0.00385153)
(0.104523 -0.392444 1.70327)
(0.105532 -0.385432 -1.70069)
(-0.0643992 -0.393977 -0.00390966)
(-0.0091043 -0.394204 -2.56985e-05)
(-0.0645535 -0.394045 0.00393963)
(0.106019 -0.385434 1.70035)
(0.106389 -0.377926 -1.6697)
(-0.0620665 -0.38701 -0.00394726)
(-0.00705008 -0.387362 1.03988e-07)
(-0.0620797 -0.386624 0.00392955)
(0.106775 -0.378257 1.69654)
(0.10791 -0.36982 -1.69108)
(-0.0599823 -0.37893 -0.00391213)
(-0.00509263 -0.379663 2.38432e-05)
(-0.0596563 -0.378706 0.00386085)
(0.107812 -0.369865 1.72181)
(0.109186 -0.360649 -1.71577)
(-0.0575906 -0.37021 -0.00385861)
(-0.00306334 -0.37112 1.16588e-05)
(-0.0575137 -0.370273 0.00384529)
(0.109214 -0.360373 1.6909)
(0.110542 -0.35064 -1.71438)
(-0.0551547 -0.360834 -0.00383134)
(-0.000899653 -0.361829 -7.23533e-06)
(-0.0555566 -0.360977 0.00384163)
(0.110831 -0.350626 1.68674)
(0.112327 -0.339912 -1.71063)
(-0.0529478 -0.350573 -0.00381457)
(0.00140395 -0.351773 8.93656e-06)
(-0.0529334 -0.350745 0.00379158)
(0.112223 -0.339699 1.7091)
(0.114417 -0.328199 -1.6977)
(-0.0507878 -0.339495 -0.00377418)
(0.00374914 -0.340951 1.80335e-05)
(-0.0508962 -0.339815 0.00374584)
(0.114478 -0.327912 1.67922)
(0.116203 -0.315668 -1.69392)
(-0.0482671 -0.327913 -0.0036744)
(0.00623063 -0.329398 -5.9637e-06)
(-0.0487703 -0.32804 0.00369369)
(0.116667 -0.315649 1.67651)
(0.117754 -0.302047 -1.68723)
(-0.0453813 -0.315566 -0.00358159)
(0.00883941 -0.317111 -1.45965e-05)
(-0.0460819 -0.315401 0.00360789)
(0.118473 -0.302165 1.69905)
(0.119697 -0.287962 -1.68315)
(-0.0428373 -0.302254 -0.00349465)
(0.0115015 -0.304128 7.37129e-06)
(-0.0432972 -0.302113 0.00350364)
(0.120189 -0.287917 1.69543)
(0.121794 -0.272848 -1.69192)
(-0.0404152 -0.28825 -0.0033681)
(0.0142106 -0.290512 1.62743e-05)
(-0.040482 -0.28818 0.00337613)
(0.121852 -0.272826 1.69196)
(0.123496 -0.256916 -1.68859)
(-0.0376475 -0.273677 -0.00322365)
(0.0169848 -0.276293 8.64403e-06)
(-0.0376668 -0.273621 0.0032271)
(0.123468 -0.256926 1.68863)
(0.125036 -0.240247 -1.68556)
(-0.0348648 -0.258529 -0.00305966)
(0.0197732 -0.261527 4.58213e-06)
(-0.0348762 -0.258496 0.00306125)
(0.124986 -0.240262 1.68554)
(0.12644 -0.222889 -1.68284)
(-0.0321139 -0.242886 -0.00288112)
(0.0226138 -0.246271 2.90822e-06)
(-0.0321264 -0.242873 0.0028817)
(0.126385 -0.222906 1.68278)
(0.127608 -0.204881 -1.68049)
(-0.0293616 -0.22683 -0.00269534)
(0.0256295 -0.230578 1.78807e-06)
(-0.0293702 -0.226829 0.00269505)
(0.127565 -0.204896 1.68042)
(0.128194 -0.186437 -1.67855)
(-0.026333 -0.210331 -0.00249558)
(0.0291469 -0.214457 8.47487e-07)
(-0.0263353 -0.210335 0.00249478)
(0.128168 -0.186454 1.6785)
(0.1275 -0.167987 -1.65844)
(-0.0223665 -0.19293 -0.00222085)
(0.033641 -0.197757 3.66381e-07)
(-0.0223649 -0.192937 0.00221996)
(0.127482 -0.168009 1.65837)
(0.00246463 -0.636631 -2.50209)
(0.0281038 -0.278295 -0.000531455)
(0.0124171 -0.426631 -1.29582e-07)
(0.0281 -0.27829 0.000531175)
(0.00245879 -0.636646 2.50209)
(-0.00343429 -0.635554 -2.38458)
(0.0144369 -0.278713 0.00171407)
(0.0209344 -0.416485 -2.09606e-08)
(0.0144325 -0.278711 -0.0017151)
(-0.00341928 -0.635564 2.38458)
(0.0188122 -0.6182 -2.27532)
(-0.00933183 -0.318128 0.00720056)
(0.0207372 -0.387075 2.09903e-06)
(-0.00934591 -0.318138 -0.00720396)
(0.0188066 -0.618214 2.27491)
(0.0321847 -0.571625 -2.05516)
(-0.0238565 -0.360937 0.0133928)
(0.00891324 -0.386918 4.97613e-06)
(-0.023877 -0.360939 -0.0133979)
(0.0321493 -0.571645 2.05482)
(0.0425529 -0.531765 -1.90348)
(-0.0303249 -0.390088 0.0157307)
(-0.00147324 -0.39611 4.8842e-07)
(-0.0303316 -0.390083 -0.0157347)
(0.0425391 -0.531764 1.90349)
(0.0492788 -0.508074 -1.79897)
(-0.0345397 -0.409126 0.0149759)
(-0.00937593 -0.406022 -1.80153e-06)
(-0.0345288 -0.40912 -0.0149788)
(0.0492973 -0.508064 1.79898)
(0.0532458 -0.49019 -1.72486)
(-0.0375202 -0.420799 0.0135787)
(-0.0149353 -0.414918 -2.22042e-06)
(-0.0375021 -0.420795 -0.0135818)
(0.0532788 -0.490186 1.72488)
(0.0554781 -0.476679 -1.67105)
(-0.0394782 -0.427903 0.0122723)
(-0.0183761 -0.42191 -2.42255e-06)
(-0.0394584 -0.427901 -0.0122754)
(0.0555145 -0.476682 1.67108)
(0.056777 -0.466515 -1.63142)
(-0.0406166 -0.432211 0.0111782)
(-0.0202647 -0.426978 -2.94725e-06)
(-0.0405957 -0.432208 -0.0111807)
(0.0568145 -0.466528 1.63144)
(0.0576214 -0.458675 -1.60192)
(-0.0410871 -0.434724 0.0102835)
(-0.021084 -0.430427 -5.8509e-06)
(-0.041064 -0.434726 -0.0102818)
(0.0576468 -0.458692 1.60195)
(0.0582559 -0.452361 -1.58005)
(-0.0410052 -0.436056 0.00954422)
(-0.0211881 -0.432591 4.03591e-07)
(-0.040993 -0.436063 -0.0095519)
(0.058259 -0.452377 1.58007)
(0.0589029 -0.447176 -1.56408)
(-0.0404689 -0.436469 0.00894517)
(-0.0207226 -0.433709 1.43395e-06)
(-0.04047 -0.436479 -0.00895356)
(0.0588855 -0.447178 1.5641)
(0.0596217 -0.442715 -1.55165)
(-0.0395989 -0.436127 0.00845893)
(-0.0198447 -0.433978 1.08853e-05)
(-0.0396058 -0.436152 -0.00848538)
(0.0595922 -0.442682 1.55168)
(0.0603741 -0.438547 -1.54223)
(-0.0384331 -0.43525 0.00806834)
(-0.0186466 -0.433529 3.10922e-05)
(-0.0384712 -0.435275 -0.00812639)
(0.0603766 -0.438532 1.54228)
(0.0612226 -0.434558 -1.53529)
(-0.03703 -0.433829 0.00775413)
(-0.0171564 -0.432388 3.04566e-05)
(-0.0370831 -0.433803 -0.00780543)
(0.0612066 -0.434633 1.53533)
(0.0621072 -0.430627 -1.53008)
(-0.0353593 -0.431824 0.00749987)
(-0.0154222 -0.430617 1.54189e-07)
(-0.0354231 -0.431738 -0.00749855)
(0.0620668 -0.430749 1.53009)
(0.0631444 -0.426634 -1.52602)
(-0.0335481 -0.429222 0.0073004)
(-0.0134774 -0.42824 -2.60877e-05)
(-0.0334018 -0.42915 -0.00725525)
(0.0629338 -0.426679 1.52608)
(0.0642497 -0.422436 -1.52269)
(-0.0314782 -0.426006 0.0071003)
(-0.0113194 -0.425244 -2.34164e-05)
(-0.0312584 -0.425992 -0.00705891)
(0.0640377 -0.422397 1.52282)
(0.0655107 -0.417906 -1.51702)
(-0.0292015 -0.422175 0.00690825)
(-0.00898669 -0.421655 -6.98304e-06)
(-0.0289378 -0.422243 -0.00689708)
(0.0653078 -0.41779 1.52007)
(0.0668965 -0.412898 -1.51439)
(-0.0266487 -0.417766 0.00674042)
(-0.00650561 -0.417461 1.28207e-05)
(-0.0264533 -0.417859 -0.00676895)
(0.0667729 -0.412805 1.5174)
(0.0687808 -0.407294 -1.51485)
(-0.0241348 -0.412796 0.00662188)
(-0.0038801 -0.412623 7.83504e-06)
(-0.0239197 -0.412837 -0.00663954)
(0.0685716 -0.407241 1.51484)
(0.0708644 -0.401141 -1.51234)
(-0.021449 -0.407094 0.00658135)
(-0.00105677 -0.406964 -2.99696e-06)
(-0.0213151 -0.407176 -0.00657524)
(0.0707126 -0.40105 1.51222)
(0.0729264 -0.3944 -1.50216)
(-0.0183943 -0.400592 0.00652101)
(0.00203959 -0.400433 -2.52091e-06)
(-0.0186374 -0.400616 -0.00651408)
(0.073296 -0.39433 1.49641)
(0.0755792 -0.386989 -1.49922)
(-0.0154991 -0.393445 0.00643333)
(0.00527668 -0.393218 1.52885e-06)
(-0.0154394 -0.393505 -0.00643307)
(0.0756623 -0.386933 1.49344)
(0.0783712 -0.378438 -1.4823)
(-0.0122753 -0.385682 0.00632438)
(0.00864751 -0.385346 -2.12314e-05)
(-0.0118943 -0.385837 -0.00630119)
(0.0780249 -0.378444 1.48705)
(0.0811226 -0.369612 -1.47647)
(-0.00866807 -0.377017 0.00617662)
(0.0122271 -0.376763 -2.09099e-05)
(-0.00829761 -0.37704 -0.00615115)
(0.0807828 -0.369522 1.48102)
(0.0842899 -0.359686 -1.49507)
(-0.00489037 -0.367511 0.00606149)
(0.0160045 -0.367468 -5.75436e-07)
(-0.00467577 -0.367501 -0.0060547)
(0.0840045 -0.359752 1.49445)
(0.0875305 -0.34892 -1.4785)
(-0.00098359 -0.357507 0.00599345)
(0.0199336 -0.357436 -1.78605e-05)
(-0.000842952 -0.357365 -0.00597498)
(0.0873603 -0.349028 1.49366)
(0.0907351 -0.337608 -1.47478)
(0.00312826 -0.346504 0.00593602)
(0.0239876 -0.346584 -2.21289e-06)
(0.00308318 -0.346395 -0.00592889)
(0.0908524 -0.337542 1.49033)
(0.0941427 -0.325297 -1.48726)
(0.00735876 -0.334607 0.0059004)
(0.0281421 -0.334933 2.55422e-05)
(0.00702234 -0.334609 -0.00591299)
(0.0944996 -0.325232 1.48704)
(0.0978429 -0.31206 -1.48397)
(0.0114368 -0.322084 0.00587041)
(0.0323648 -0.322532 2.852e-05)
(0.0111696 -0.322047 -0.00589762)
(0.0980553 -0.312068 1.48385)
(0.101549 -0.297996 -1.48078)
(0.0155147 -0.308819 0.0058648)
(0.0366519 -0.309421 2.17038e-05)
(0.0154199 -0.308768 -0.00588958)
(0.101561 -0.298047 1.48077)
(0.105059 -0.283144 -1.4778)
(0.0197298 -0.294847 0.0058883)
(0.0409713 -0.295643 8.3652e-06)
(0.0196789 -0.294806 -0.00589613)
(0.105033 -0.283198 1.47783)
(0.108445 -0.267532 -1.47505)
(0.023941 -0.280236 0.00591463)
(0.0452941 -0.281263 3.35541e-06)
(0.0239085 -0.280213 -0.00591697)
(0.108412 -0.267564 1.47507)
(0.111671 -0.25118 -1.47259)
(0.0281046 -0.265066 0.00595378)
(0.0496125 -0.266356 1.67457e-06)
(0.0280822 -0.265053 -0.0059546)
(0.11163 -0.251198 1.47259)
(0.114675 -0.23414 -1.47052)
(0.0321942 -0.249398 0.00600694)
(0.0539444 -0.251008 1.05114e-06)
(0.0321772 -0.249389 -0.00600738)
(0.114631 -0.234148 1.4705)
(0.117331 -0.216402 -1.46892)
(0.0362276 -0.233377 0.00606988)
(0.0583724 -0.235361 6.87164e-07)
(0.0362163 -0.23337 -0.0060704)
(0.117292 -0.216402 1.46889)
(0.119359 -0.198089 -1.46765)
(0.0403772 -0.217088 0.00618247)
(0.0631025 -0.219571 4.70201e-07)
(0.0403716 -0.217084 -0.00618322)
(0.119329 -0.198086 1.46763)
(0.120252 -0.179822 -1.44805)
(0.04505 -0.20002 0.0064478)
(0.0683852 -0.203509 1.20747e-07)
(0.0450495 -0.20002 -0.00644846)
(0.120228 -0.179816 1.44805)
(0.0031061 -0.639739 -2.50106)
(0.00238038 -0.259284 -0.000607864)
(-0.00292627 -0.415407 -5.38661e-08)
(0.00237628 -0.259286 0.000607537)
(0.00309086 -0.639747 2.50106)
(0.000540899 -0.639685 -2.37011)
(-0.00265509 -0.271343 0.00252048)
(0.00336577 -0.410385 1.70007e-07)
(-0.00265894 -0.271345 -0.00252077)
(0.000531423 -0.639685 2.37011)
(0.0162698 -0.619282 -2.23268)
(-0.0123427 -0.320804 0.00903256)
(0.00495755 -0.390094 5.92195e-07)
(-0.0123528 -0.32081 -0.00903305)
(0.0162572 -0.619291 2.23269)
(0.0268942 -0.571739 -1.99629)
(-0.017777 -0.363672 0.0147726)
(-0.00209224 -0.391356 5.94462e-07)
(-0.0177898 -0.363673 -0.0147735)
(0.0268771 -0.57174 1.99629)
(0.0340923 -0.533321 -1.83247)
(-0.0204354 -0.393575 0.0162318)
(-0.00890699 -0.401105 -7.91286e-07)
(-0.0204379 -0.393569 -0.0162335)
(0.0340876 -0.533308 1.83248)
(0.0384764 -0.509966 -1.71809)
(-0.0223376 -0.413031 0.0150483)
(-0.0138593 -0.41171 -1.57582e-06)
(-0.0223292 -0.413022 -0.0150506)
(0.0384902 -0.509951 1.7181)
(0.0410347 -0.492609 -1.63592)
(-0.0237649 -0.425073 0.0134024)
(-0.0174701 -0.420887 -1.716e-06)
(-0.0237515 -0.425068 -0.0134048)
(0.0410578 -0.492601 1.63593)
(0.0425344 -0.479726 -1.57578)
(-0.0247478 -0.432514 0.0119545)
(-0.0197551 -0.428071 -1.79465e-06)
(-0.0247331 -0.432512 -0.0119568)
(0.0425597 -0.479726 1.5758)
(0.0435111 -0.470125 -1.53133)
(-0.0252808 -0.437083 0.0108013)
(-0.020964 -0.433212 -2.04865e-06)
(-0.0252657 -0.437083 -0.0108034)
(0.043534 -0.470134 1.53135)
(0.0442987 -0.462718 -1.49825)
(-0.0253617 -0.439784 0.00989948)
(-0.0213605 -0.436606 -2.60313e-06)
(-0.0253468 -0.439787 -0.00990123)
(0.0443108 -0.462736 1.49827)
(0.0450648 -0.45677 -1.47386)
(-0.0250119 -0.441231 0.00918383)
(-0.0211423 -0.438641 -2.74147e-06)
(-0.0250034 -0.441237 -0.00918739)
(0.0450638 -0.45679 1.47388)
(0.0459969 -0.451874 -1.45598)
(-0.0242782 -0.441702 0.00861633)
(-0.0204319 -0.439611 -2.72013e-06)
(-0.0242773 -0.441709 -0.00862124)
(0.0459839 -0.451889 1.45599)
(0.0470746 -0.447621 -1.44225)
(-0.0231953 -0.441393 0.0081708)
(-0.0193191 -0.439734 -1.84933e-06)
(-0.0232011 -0.441402 -0.00817952)
(0.0470623 -0.447623 1.44227)
(0.0483405 -0.443663 -1.43202)
(-0.0218136 -0.440532 0.00781423)
(-0.0178828 -0.439171 7.05918e-07)
(-0.0218391 -0.440542 -0.00782908)
(0.0483517 -0.443669 1.43204)
(0.049821 -0.439873 -1.42458)
(-0.0201654 -0.439127 0.00752002)
(-0.0161542 -0.437957 1.83141e-06)
(-0.0201987 -0.439127 -0.00753249)
(0.0498208 -0.439901 1.4246)
(0.051519 -0.436127 -1.4191)
(-0.0182608 -0.437153 0.00726295)
(-0.0141477 -0.436132 7.33049e-07)
(-0.0182645 -0.437135 -0.00726374)
(0.0514549 -0.436162 1.41912)
(0.05344 -0.432282 -1.41495)
(-0.016115 -0.434631 0.00704196)
(-0.0118899 -0.433732 -6.93215e-06)
(-0.0160575 -0.434605 -0.007024)
(0.0533159 -0.432282 1.41499)
(0.0555508 -0.428215 -1.41163)
(-0.0136827 -0.431541 0.00683695)
(-0.00936968 -0.430752 -8.37274e-06)
(-0.0135991 -0.431522 -0.00681731)
(0.0554393 -0.428176 1.41169)
(0.0578881 -0.423804 -1.40893)
(-0.0109642 -0.427875 0.00664628)
(-0.00658876 -0.427183 -9.67244e-06)
(-0.0108795 -0.427868 -0.00663043)
(0.0578167 -0.423751 1.40901)
(0.0604454 -0.418951 -1.40644)
(-0.00791585 -0.423622 0.00646641)
(-0.00355469 -0.423011 -8.2298e-06)
(-0.00790235 -0.423622 -0.00645658)
(0.0604756 -0.418911 1.40649)
(0.063333 -0.413599 -1.40409)
(-0.00461558 -0.41876 0.00631126)
(-0.000265135 -0.418235 -7.07079e-06)
(-0.00462655 -0.418765 -0.00630177)
(0.0633856 -0.413557 1.40412)
(0.0665471 -0.407723 -1.40174)
(-0.0010557 -0.413251 0.00618223)
(0.00328139 -0.412882 -1.33379e-06)
(-0.00108459 -0.413273 -0.00617889)
(0.0666168 -0.407648 1.40174)
(0.0700178 -0.401204 -1.39927)
(0.00283315 -0.40705 0.00610809)
(0.00719106 -0.406828 9.00625e-06)
(0.00273461 -0.40706 -0.00611471)
(0.0702092 -0.401164 1.39922)
(0.0737775 -0.393991 -1.39668)
(0.00704435 -0.400121 0.00605659)
(0.0114584 -0.399949 -7.81046e-07)
(0.00700143 -0.400095 -0.00604827)
(0.0739333 -0.394024 1.39658)
(0.0778846 -0.386081 -1.39396)
(0.011518 -0.392538 0.00598764)
(0.0160216 -0.392352 -1.58379e-05)
(0.0113582 -0.392519 -0.0059654)
(0.0781383 -0.386135 1.3938)
(0.082488 -0.377442 -1.39103)
(0.016133 -0.384287 0.00591483)
(0.020864 -0.384065 -1.63587e-05)
(0.0159243 -0.384285 -0.00589032)
(0.0827452 -0.377452 1.39081)
(0.0872755 -0.367943 -1.38799)
(0.0211385 -0.375163 0.00586409)
(0.0259759 -0.374973 -7.1393e-06)
(0.0209283 -0.375178 -0.00584837)
(0.0874702 -0.367922 1.38775)
(0.0922957 -0.357582 -1.38489)
(0.0263158 -0.365149 0.00581843)
(0.0312835 -0.365043 -6.80435e-06)
(0.0261155 -0.365173 -0.00580946)
(0.0924683 -0.357524 1.38467)
(0.097594 -0.34632 -1.38175)
(0.0315712 -0.354311 0.00577704)
(0.03676 -0.354303 -1.46075e-06)
(0.031491 -0.354343 -0.00577791)
(0.0976409 -0.346273 1.38158)
(0.10289 -0.334162 -1.37866)
(0.0371037 -0.342688 0.00574876)
(0.0423894 -0.342771 1.24253e-05)
(0.0370135 -0.342703 -0.00576277)
(0.102942 -0.334168 1.37853)
(0.108271 -0.321144 -1.37563)
(0.0427238 -0.330288 0.00573445)
(0.0481227 -0.330469 1.35576e-05)
(0.0426479 -0.330276 -0.00575227)
(0.108304 -0.321192 1.37555)
(0.113665 -0.307283 -1.37269)
(0.0483815 -0.317118 0.0057389)
(0.0539121 -0.317432 6.58392e-06)
(0.048329 -0.317104 -0.00574954)
(0.113673 -0.307336 1.37266)
(0.118997 -0.292588 -1.36993)
(0.0540284 -0.303234 0.00575436)
(0.0597085 -0.303716 2.49155e-06)
(0.0539949 -0.303228 -0.00575953)
(0.118984 -0.292626 1.36993)
(0.124188 -0.277079 -1.3674)
(0.0596118 -0.288703 0.00578416)
(0.0654694 -0.289393 7.75786e-07)
(0.0595886 -0.288702 -0.00578661)
(0.124165 -0.277102 1.36741)
(0.129162 -0.2608 -1.36519)
(0.065075 -0.273594 0.00583383)
(0.0711581 -0.274548 9.15224e-08)
(0.0650573 -0.273593 -0.00583493)
(0.129133 -0.260813 1.36521)
(0.133834 -0.243799 -1.36341)
(0.070372 -0.25799 0.0059048)
(0.0767587 -0.259294 -9.23915e-08)
(0.0703582 -0.257987 -0.0059052)
(0.133804 -0.243804 1.36342)
(0.138085 -0.226055 -1.36214)
(0.0754884 -0.242059 0.00599625)
(0.0822956 -0.243813 -9.63568e-08)
(0.0754786 -0.242054 -0.00599625)
(0.138057 -0.226053 1.36214)
(0.141706 -0.207709 -1.36148)
(0.0804748 -0.225901 0.00615875)
(0.0878515 -0.228289 -7.73441e-08)
(0.080469 -0.225894 -0.00615848)
(0.141684 -0.207702 1.36147)
(0.14439 -0.189396 -1.34244)
(0.0854836 -0.20899 0.00650734)
(0.0934955 -0.212576 -1.46333e-07)
(0.0854812 -0.208982 -0.00650688)
(0.144374 -0.189387 1.34244)
(0.00307173 -0.645598 -2.50057)
(0.00921576 -0.270205 -0.000528114)
(0.00536548 -0.431396 -8.31725e-08)
(0.00921221 -0.270211 0.000527956)
(0.00306889 -0.645605 2.50057)
(0.00257874 -0.647707 -2.36241)
(0.00202391 -0.274294 0.00292127)
(0.00641811 -0.42086 2.31487e-07)
(0.00202107 -0.274296 -0.0029209)
(0.00257596 -0.647701 2.36242)
(0.0126016 -0.625176 -2.2094)
(-0.00549081 -0.320396 0.00970501)
(0.00314865 -0.390877 5.51894e-07)
(-0.00549544 -0.320399 -0.00970433)
(0.0125925 -0.62518 2.20941)
(0.0198609 -0.576175 -1.9624)
(-0.0091907 -0.364065 0.0151858)
(-0.00268341 -0.391348 7.46646e-09)
(-0.0091957 -0.364066 -0.0151858)
(0.0198513 -0.576173 1.9624)
(0.0246119 -0.537471 -1.79145)
(-0.0107698 -0.394665 0.015981)
(-0.00681833 -0.401086 -9.40589e-07)
(-0.0107698 -0.394659 -0.0159823)
(0.0246105 -0.53746 1.79146)
(0.0277335 -0.513635 -1.67138)
(-0.0117997 -0.414713 0.0142146)
(-0.0103205 -0.412498 -1.25646e-06)
(-0.0117938 -0.414707 -0.0142164)
(0.0277428 -0.513623 1.67139)
(0.0297047 -0.496046 -1.58459)
(-0.0125439 -0.427227 0.012122)
(-0.0128372 -0.422535 -1.22715e-06)
(-0.012535 -0.427223 -0.0121239)
(0.0297199 -0.496039 1.58461)
(0.0309784 -0.483132 -1.52081)
(-0.0130315 -0.435071 0.010431)
(-0.0142911 -0.430554 -1.18746e-06)
(-0.0130218 -0.43507 -0.0104327)
(0.0309947 -0.483132 1.52083)
(0.031939 -0.473605 -1.47353)
(-0.0131952 -0.440006 0.00917083)
(-0.0149211 -0.436313 -1.27467e-06)
(-0.0131861 -0.440008 -0.00917241)
(0.031953 -0.473612 1.47354)
(0.032845 -0.46631 -1.43828)
(-0.0129926 -0.443035 0.0082393)
(-0.0149169 -0.44014 -1.48375e-06)
(-0.0129849 -0.443039 -0.0082409)
(0.0328521 -0.466323 1.43829)
(0.0338409 -0.460511 -1.41232)
(-0.0124107 -0.444759 0.00753705)
(-0.0143949 -0.442483 -1.80273e-06)
(-0.0124066 -0.444765 -0.00753906)
(0.0338386 -0.460527 1.41233)
(0.0350538 -0.455769 -1.39318)
(-0.0114615 -0.445472 0.00700525)
(-0.0134283 -0.443688 -2.01613e-06)
(-0.0114614 -0.445477 -0.00700792)
(0.0350427 -0.455783 1.39318)
(0.0364807 -0.451671 -1.37864)
(-0.010141 -0.445383 0.0066054)
(-0.0120591 -0.443999 -2.15841e-06)
(-0.0101443 -0.445388 -0.00660895)
(0.0364655 -0.451679 1.37864)
(0.0381703 -0.447892 -1.36782)
(-0.0084867 -0.44473 0.00629534)
(-0.0103385 -0.4436 -1.8788e-06)
(-0.00849533 -0.444734 -0.00629957)
(0.0381571 -0.447899 1.36782)
(0.0401345 -0.444289 -1.35998)
(-0.00650173 -0.443537 0.0060396)
(-0.00829034 -0.442564 -1.3078e-06)
(-0.00651355 -0.443538 -0.00604202)
(0.0401138 -0.444297 1.35999)
(0.0423839 -0.440749 -1.35426)
(-0.00418943 -0.441783 0.00582261)
(-0.00591012 -0.44094 -9.14571e-07)
(-0.00419625 -0.441776 -0.00582066)
(0.0423437 -0.440753 1.35428)
(0.0449304 -0.437123 -1.34998)
(-0.00154936 -0.439502 0.00563893)
(-0.00319546 -0.43876 -1.75733e-06)
(-0.00154212 -0.439487 -0.00563177)
(0.0448766 -0.437113 1.35002)
(0.047781 -0.433301 -1.34662)
(0.00143734 -0.436687 0.00547708)
(-0.000132648 -0.436034 -2.42026e-06)
(0.00145593 -0.43667 -0.00546835)
(0.0477352 -0.433273 1.34666)
(0.050961 -0.429182 -1.34394)
(0.00478254 -0.433325 0.00533491)
(0.00328418 -0.432757 -2.55127e-06)
(0.00480667 -0.433312 -0.00532761)
(0.0509335 -0.429144 1.34397)
(0.0544991 -0.424677 -1.34149)
(0.00850033 -0.429396 0.00520938)
(0.00706784 -0.428906 -5.49804e-07)
(0.00852165 -0.429387 -0.00520636)
(0.0544927 -0.424639 1.34151)
(0.058427 -0.419711 -1.33922)
(0.0125928 -0.424875 0.00510511)
(0.011229 -0.42446 6.53921e-07)
(0.0126135 -0.424867 -0.00510377)
(0.0584327 -0.419676 1.33923)
(0.0627497 -0.41422 -1.33694)
(0.0170661 -0.419731 0.00501709)
(0.0157605 -0.419404 2.58371e-06)
(0.0170816 -0.419725 -0.00501825)
(0.0627754 -0.414182 1.33694)
(0.0674534 -0.408118 -1.33456)
(0.0219258 -0.413928 0.00494588)
(0.0206284 -0.413683 5.15682e-06)
(0.0219238 -0.413921 -0.00495031)
(0.0675202 -0.408097 1.33451)
(0.0725676 -0.401339 -1.33206)
(0.0271716 -0.407433 0.00488287)
(0.0258771 -0.407244 3.99279e-06)
(0.0271731 -0.407426 -0.00488581)
(0.0726331 -0.401342 1.33195)
(0.078079 -0.39384 -1.32942)
(0.0328073 -0.400231 0.00482859)