/*--------------------------------*- C++ -*----------------------------------*\
  =========                 |
  \\      /  F ield         | OpenFOAM: The Open Source CFD Toolbox
   \\    /   O peration     | Website:  https://openfoam.org
    \\  /    A nd           | Version:  9
     \\/     M anipulation  |
\*---------------------------------------------------------------------------*/
FoamFile
{
    format      ascii;
    class       volScalarField;
    location    "4.75";
    object      p;
}
// * * * * * * * * * * * * * * * * * * * * * * * * * * * * * * * * * * * * * //

dimensions      [0 2 -2 0 0 0 0];

internalField   nonuniform List<scalar> 
36360
(
20.1317
20.0764
20.1259
20.0805
20.0875
20.112
20.0912
20.1048
20.0986
20.1003
20.0993
20.1008
20.0991
20.0988
20.0981
20.0985
20.1004
20.1004
20.1008
20.1008
20.0989
20.0989
20.0986
20.0986
20.1003
20.0986
20.1008
20.0993
20.0988
20.0991
20.0985
20.0981
20.0764
20.1316
20.0806
20.1259
20.112
20.0875
20.1048
20.0912
20.109
20.0951
20.1186
20.0876
20.0589
20.1391
20.0731
20.1267
20.1009
20.0992
20.0996
20.0998
20.1025
20.0982
20.1006
20.0986
20.0988
20.0988
20.0997
20.0997
20.0977
20.0977
20.0984
20.0984
20.0992
20.1009
20.0998
20.0996
20.0982
20.1025
20.0986
20.1006
20.0951
20.109
20.0876
20.1186
20.1391
20.059
20.1267
20.0732
20.0926
20.1061
20.1006
20.1011
20.0332
20.1599
20.0456
20.1503
20.1059
20.0991
20.1031
20.099
20.1083
20.0983
20.1051
20.0981
20.0974
20.0974
20.0981
20.0981
20.0967
20.0967
20.0972
20.0972
20.0991
20.1059
20.099
20.1031
20.0983
20.1082
20.0981
20.1051
20.1061
20.0926
20.1011
20.1006
20.1598
20.0333
20.1502
20.0457
20.0785
20.1131
20.0852
20.11
20.0116
20.1748
20.0218
20.168
20.1116
20.1001
20.1087
20.0994
20.1148
20.0994
20.1114
20.0987
20.0966
20.0966
20.0969
20.0969
20.096
20.0961
20.0963
20.0963
20.1001
20.1115
20.0994
20.1087
20.0993
20.1147
20.0987
20.1115
20.1131
20.0785
20.11
20.0853
20.1747
20.0117
20.168
20.022
20.0668
20.1173
20.0724
20.1155
19.9939
20.185
20.0023
20.1804
20.117
20.1018
20.1143
20.1009
20.1209
20.1011
20.1179
20.1002
20.0963
20.0963
20.0963
20.0963
20.0959
20.0959
20.0959
20.0959
20.1018
20.1169
20.1008
20.1143
20.101
20.1208
20.1002
20.1179
20.1172
20.0669
20.1155
20.0724
20.185
19.994
20.1803
20.0024
20.0573
20.1194
20.0618
20.1185
19.9796
20.192
19.9864
20.1888
20.1216
20.1038
20.1194
20.1028
20.1261
20.103
20.1236
20.102
20.0965
20.0965
20.0963
20.0963
20.0963
20.0963
20.096
20.096
20.1038
20.1215
20.1027
20.1193
20.103
20.1261
20.102
20.1236
20.1194
20.0573
20.1185
20.0618
20.1919
19.9797
20.1888
19.9865
20.0494
20.1204
20.0532
20.12
19.9679
20.1967
19.9735
20.1946
20.1253
20.1058
20.1235
20.1048
20.1303
20.105
20.1283
20.104
20.0971
20.0971
20.0967
20.0967
20.0969
20.0969
20.0966
20.0965
20.1057
20.1253
20.1048
20.1235
20.105
20.1303
20.104
20.1283
20.1203
20.0495
20.12
20.0532
20.1967
19.968
20.1945
19.9736
20.043
20.1205
20.046
20.1205
19.9584
20.1999
19.9629
20.1985
20.1282
20.1076
20.1268
20.1067
20.1337
20.1068
20.1321
20.1059
20.0979
20.0979
20.0975
20.0975
20.0978
20.0978
20.0973
20.0973
20.1076
20.1282
20.1067
20.1268
20.1068
20.1336
20.1059
20.1321
20.1205
20.043
20.1205
20.0461
20.1998
19.9585
20.1984
19.963
20.0376
20.1202
20.0402
20.1204
19.9505
20.202
19.9543
20.201
20.1305
20.1092
20.1294
20.1084
20.1363
20.1084
20.1351
20.1077
20.0989
20.0988
20.0984
20.0984
20.0987
20.0987
20.0983
20.0983
20.1092
20.1304
20.1084
20.1294
20.1084
20.1362
20.1076
20.135
20.1202
20.0376
20.1204
20.0402
20.2019
19.9506
20.201
19.9544
20.0331
20.1195
20.0353
20.1199
19.944
20.2033
19.9471
20.2027
20.1322
20.1106
20.1313
20.1099
20.1382
20.1098
20.1373
20.1092
20.0998
20.0998
20.0993
20.0993
20.0997
20.0997
20.0992
20.0992
20.1105
20.1321
20.1099
20.1314
20.1098
20.1382
20.1091
20.1373
20.1196
20.0331
20.1199
20.0353
20.2033
19.9441
20.2027
19.9472
20.0293
20.1187
20.0311
20.1192
19.9386
20.2041
19.9412
20.2037
20.1334
20.1116
20.1328
20.1111
20.1396
20.1109
20.139
20.1104
20.1007
20.1007
20.1003
20.1002
20.1005
20.1005
20.1001
20.1001
20.1116
20.1334
20.1111
20.1328
20.1109
20.1396
20.1104
20.139
20.1187
20.0293
20.1192
20.0312
20.204
19.9387
20.2037
19.9413
20.0261
20.1179
20.0276
20.1183
19.9341
20.2044
19.9363
20.2043
20.1343
20.1125
20.1339
20.1121
20.1406
20.1117
20.1402
20.1113
20.1014
20.1014
20.1011
20.101
20.1013
20.1012
20.1009
20.1009
20.1125
20.1342
20.1121
20.1338
20.1117
20.1406
20.1113
20.1402
20.1179
20.0261
20.1183
20.0276
20.2044
19.9342
20.2043
19.9364
20.0233
20.1169
20.0246
20.1174
19.9303
20.2045
19.9321
20.2045
20.1348
20.1131
20.1346
20.1128
20.1413
20.1123
20.141
20.1121
20.102
20.1019
20.1017
20.1017
20.1018
20.1018
20.1015
20.1015
20.113
20.1348
20.1128
20.1345
20.1123
20.1413
20.112
20.141
20.1169
20.0233
20.1174
20.0246
20.2044
19.9304
20.2044
19.9322
20.0209
20.116
20.022
20.1165
19.9271
20.2042
19.9287
20.2044
20.135
20.1134
20.1349
20.1133
20.1416
20.1127
20.1415
20.1125
20.1023
20.1023
20.1022
20.1022
20.1022
20.1021
20.102
20.102
20.1134
20.135
20.1132
20.1349
20.1127
20.1416
20.1125
20.1415
20.116
20.0209
20.1165
20.0221
20.2042
19.9272
20.2043
19.9288
20.0188
20.115
20.0198
20.1155
19.9244
20.2038
19.9257
20.204
20.1351
20.1135
20.1351
20.1135
20.1417
20.1128
20.1417
20.1128
20.1025
20.1025
20.1024
20.1024
20.1023
20.1023
20.1023
20.1023
20.1135
20.1351
20.1135
20.1351
20.1128
20.1416
20.1128
20.1416
20.115
20.0188
20.1155
20.0198
20.2038
19.9245
20.204
19.9258
20.0169
20.1141
20.0178
20.1145
19.9222
20.2032
19.9233
20.2035
20.1349
20.1135
20.135
20.1135
20.1415
20.1127
20.1416
20.1128
20.1025
20.1025
20.1025
20.1025
20.1023
20.1023
20.1023
20.1023
20.1135
20.1349
20.1135
20.135
20.1127
20.1415
20.1128
20.1416
20.1141
20.0169
20.1145
20.0178
20.2031
19.9223
20.2035
19.9234
20.0153
20.1131
20.0161
20.1136
19.9203
20.2024
19.9212
20.2028
20.1346
20.1132
20.1348
20.1134
20.1411
20.1125
20.1413
20.1126
20.1024
20.1024
20.1025
20.1025
20.1021
20.1021
20.1022
20.1022
20.1132
20.1346
20.1134
20.1347
20.1125
20.1411
20.1126
20.1413
20.1131
20.0153
20.1136
20.0161
20.2024
19.9204
20.2028
19.9213
20.0139
20.1121
20.0146
20.1126
19.9187
20.2014
19.9195
20.2019
20.1341
20.1128
20.1344
20.1131
20.1405
20.112
20.1408
20.1123
20.1021
20.1021
20.1022
20.1022
20.1017
20.1017
20.1019
20.1019
20.1128
20.1341
20.1131
20.1343
20.112
20.1405
20.1122
20.1408
20.1121
20.0139
20.1126
20.0146
20.2014
19.9188
20.2019
19.9196
20.0127
20.1112
20.0132
20.1117
19.9175
20.2004
19.9181
20.2009
20.1336
20.1123
20.1338
20.1126
20.1397
20.1114
20.1401
20.1117
20.1016
20.1016
20.1019
20.1019
20.1011
20.1011
20.1014
20.1014
20.1123
20.1335
20.1126
20.1338
20.1113
20.1397
20.1117
20.1401
20.1112
20.0127
20.1117
20.0133
20.2003
19.9175
20.2009
19.9181
20.0116
20.1103
20.0121
20.1107
19.9164
20.1992
19.9169
20.1998
20.1327
20.1116
20.1332
20.112
20.1387
20.1106
20.1392
20.111
20.1011
20.1011
20.1013
20.1013
20.1004
20.1004
20.1008
20.1008
20.1116
20.1327
20.112
20.1331
20.1106
20.1387
20.111
20.1392
20.1103
20.0116
20.1107
20.0121
20.1991
19.9165
20.1997
19.917
20.0106
20.1094
20.0111
20.1098
19.9156
20.1979
19.916
20.1985
20.1316
20.1109
20.1322
20.1113
20.1376
20.1097
20.1382
20.1101
20.1004
20.1004
20.1007
20.1007
20.0996
20.0996
20.1
20.1
20.1109
20.1316
20.1113
20.1322
20.1096
20.1376
20.1101
20.1381
20.1094
20.0107
20.1098
20.0111
20.1978
19.9157
20.1985
19.9161
20.0099
20.1085
20.0102
20.109
19.9151
20.1965
19.9153
20.1972
20.1305
20.11
20.1311
20.1105
20.1363
20.1086
20.137
20.1092
20.0997
20.0997
20.1001
20.1001
20.0987
20.0987
20.0991
20.0991
20.11
20.1305
20.1104
20.131
20.1086
20.1363
20.1091
20.1369
20.1085
20.0099
20.109
20.0103
20.1965
19.9152
20.1972
19.9154
20.0093
20.1077
20.0096
20.1081
19.9148
20.195
19.9149
20.1958
20.1293
20.1091
20.1299
20.1096
20.1349
20.1075
20.1356
20.1081
20.0989
20.0989
20.0993
20.0993
20.0977
20.0977
20.0982
20.0982
20.1091
20.1293
20.1096
20.1299
20.1075
20.1349
20.1081
20.1356
20.1077
20.0094
20.1081
20.0096
20.195
19.9149
20.1957
19.915
20.009
20.107
20.0091
20.1074
19.9148
20.1935
19.9148
20.1943
20.1281
20.1082
20.1287
20.1087
20.1335
20.1064
20.1342
20.1069
20.0982
20.0982
20.0986
20.0985
20.0966
20.0966
20.0972
20.0972
20.1082
20.1281
20.1087
20.1287
20.1063
20.1334
20.1069
20.1342
20.107
20.009
20.1074
20.0091
20.1935
19.9149
20.1942
19.9149
20.0088
20.1063
20.0088
20.1067
19.915
20.1919
19.9149
20.1927
20.127
20.1073
20.1276
20.1078
20.132
20.1052
20.1327
20.1058
20.0974
20.0974
20.0978
20.0978
20.0956
20.0956
20.0961
20.0961
20.1073
20.127
20.1078
20.1275
20.1052
20.1319
20.1057
20.1327
20.1064
20.0088
20.1067
20.0089
20.1919
19.9151
20.1927
19.915
20.0089
20.1058
20.0088
20.1061
19.9156
20.1903
19.9153
20.1911
20.1259
20.1065
20.1264
20.1069
20.1304
20.104
20.1312
20.1046
20.0968
20.0968
20.0971
20.0971
20.0946
20.0946
20.0951
20.0951
20.1065
20.1258
20.1069
20.1264
20.104
20.1304
20.1046
20.1312
20.1058
20.0089
20.1061
20.0088
20.1903
19.9157
20.1911
19.9154
20.0092
20.1053
20.009
20.1055
19.9165
20.1887
19.916
20.1895
20.1248
20.1057
20.1253
20.1061
20.1289
20.1029
20.1297
20.1034
20.0962
20.0962
20.0965
20.0965
20.0937
20.0937
20.0941
20.0941
20.1057
20.1248
20.1061
20.1253
20.1029
20.1289
20.1034
20.1297
20.1053
20.0092
20.1056
20.009
20.1887
19.9166
20.1895
19.9161
20.0098
20.105
20.0094
20.1052
19.9177
20.1871
19.917
20.1879
20.1238
20.1051
20.1243
20.1054
20.1274
20.1018
20.1282
20.1023
20.0958
20.0958
20.096
20.096
20.0928
20.0928
20.0932
20.0932
20.1051
20.1238
20.1054
20.1243
20.1018
20.1274
20.1023
20.1282
20.105
20.0098
20.1052
20.0095
20.1871
19.9178
20.1879
19.9171
20.0107
20.1048
20.0102
20.1049
19.9194
20.1855
19.9185
20.1863
20.1229
20.1046
20.1234
20.1048
20.126
20.1009
20.1267
20.1014
20.0955
20.0955
20.0956
20.0956
20.0922
20.0922
20.0925
20.0925
20.1046
20.1229
20.1048
20.1233
20.1009
20.126
20.1013
20.1267
20.1048
20.0108
20.1049
20.0103
20.1855
19.9195
20.1863
19.9186
20.012
20.1047
20.0113
20.1047
19.9215
20.1839
19.9204
20.1847
20.1222
20.1043
20.1225
20.1044
20.1247
20.1002
20.1253
20.1005
20.0955
20.0955
20.0955
20.0955
20.0918
20.0918
20.092
20.092
20.1043
20.1222
20.1044
20.1225
20.1002
20.1247
20.1005
20.1253
20.1047
20.0121
20.1047
20.0114
20.1839
19.9216
20.1847
19.9204
20.0137
20.1048
20.0128
20.1047
19.9241
20.1824
19.9227
20.1832
20.1215
20.1041
20.1218
20.1042
20.1235
20.0997
20.1241
20.0999
20.0957
20.0957
20.0956
20.0956
20.0916
20.0916
20.0916
20.0916
20.1041
20.1215
20.1042
20.1218
20.0997
20.1235
20.0999
20.1241
20.1048
20.0137
20.1047
20.0128
20.1824
19.9241
20.1832
19.9228
20.0157
20.105
20.0146
20.1049
19.9272
20.1809
19.9255
20.1817
20.121
20.1042
20.1212
20.1041
20.1224
20.0994
20.1229
20.0995
20.0962
20.0962
20.0959
20.0959
20.0917
20.0917
20.0916
20.0916
20.1042
20.121
20.1041
20.1212
20.0994
20.1224
20.0995
20.1229
20.105
20.0158
20.1049
20.0147
20.1809
19.9273
20.1817
19.9256
20.0182
20.1052
20.0169
20.1051
19.9309
20.1795
19.929
20.1802
20.1206
20.1045
20.1208
20.1043
20.1215
20.0994
20.1219
20.0994
20.0969
20.0969
20.0965
20.0965
20.0921
20.0921
20.0919
20.0919
20.1045
20.1206
20.1043
20.1208
20.0994
20.1215
20.0993
20.1219
20.1052
20.0182
20.1051
20.0169
20.1794
19.931
20.1802
19.9291
20.0212
20.1055
20.0196
20.1054
19.9353
20.1779
19.933
20.1787
20.1204
20.1051
20.1205
20.1048
20.1208
20.0997
20.1211
20.0995
20.098
20.098
20.0974
20.0974
20.0929
20.0929
20.0925
20.0925
20.1051
20.1204
20.1048
20.1205
20.0997
20.1208
20.0995
20.1211
20.1055
20.0212
20.1054
20.0197
20.1779
19.9354
20.1787
19.9331
20.0246
20.1058
20.0228
20.1057
19.9404
20.1763
19.9378
20.1771
20.1204
20.106
20.1204
20.1055
20.1203
20.1004
20.1205
20.1
20.0993
20.0993
20.0986
20.0986
20.094
20.094
20.0934
20.0934
20.106
20.1204
20.1055
20.1204
20.1004
20.1203
20.1
20.1205
20.1059
20.0246
20.1057
20.0228
20.1763
19.9405
20.1771
19.9378
20.0285
20.1061
20.0265
20.106
19.9464
20.1744
19.9433
20.1754
20.1205
20.1071
20.1204
20.1065
20.1201
20.1014
20.1202
20.1008
20.1008
20.1008
20.1
20.1
20.0954
20.0954
20.0947
20.0946
20.1071
20.1205
20.1065
20.1204
20.1014
20.1201
20.1008
20.1202
20.1061
20.0286
20.106
20.0265
20.1744
19.9465
20.1754
19.9434
20.0328
20.1064
20.0306
20.1062
19.9535
20.172
19.9498
20.1733
20.1208
20.1084
20.1207
20.1077
20.1201
20.1027
20.12
20.102
20.1027
20.1027
20.1017
20.1017
20.0972
20.0972
20.0962
20.0962
20.1084
20.1208
20.1077
20.1206
20.1027
20.12
20.102
20.12
20.1064
20.0328
20.1062
20.0307
20.172
19.9536
20.1733
19.9499
20.0364
20.1078
20.0349
20.1068
19.9622
20.1685
19.9577
20.1704
20.1212
20.1101
20.121
20.1092
20.1203
20.1044
20.1201
20.1035
20.1047
20.1047
20.1037
20.1037
20.0992
20.0992
20.0982
20.0982
20.1101
20.1212
20.1092
20.121
20.1044
20.1202
20.1035
20.1201
20.1078
20.0364
20.1068
20.035
20.1685
19.9623
20.1704
19.9577
20.0392
20.1093
20.0363
20.1101
19.9725
20.1635
19.9671
20.1663
20.1226
20.1121
20.1219
20.1111
20.1211
20.1066
20.1206
20.1054
20.107
20.107
20.1059
20.1059
20.1016
20.1016
20.1004
20.1004
20.1121
20.1226
20.1111
20.1219
20.1066
20.1211
20.1054
20.1205
20.1093
20.0393
20.1101
20.0363
20.1634
19.9726
20.1662
19.9672
20.1732
20.0468
20.149
20.0618
20.158
20.0549
20.1387
20.0676
20.0869
20.0991
20.0924
20.0998
20.0923
20.0995
20.0952
20.0995
20.1002
20.1002
20.1002
20.1002
20.0998
20.0998
20.0995
20.0995
20.0991
20.0869
20.0998
20.0924
20.0995
20.0923
20.0995
20.0952
20.0468
20.1731
20.0619
20.1489
20.055
20.1579
20.0676
20.1387
20.1538
20.0694
20.1601
20.0619
20.1409
20.0727
20.1473
20.0665
20.0864
20.0964
20.0866
20.0979
20.0923
20.0981
20.0923
20.099
20.0989
20.0989
20.0997
20.0997
20.0989
20.0989
20.0996
20.0996
20.0964
20.0864
20.0979
20.0866
20.0981
20.0923
20.099
20.0923
20.0694
20.1537
20.0619
20.16
20.0727
20.1408
20.0665
20.1473
20.1471
20.0751
20.1501
20.0732
20.1315
20.0789
20.136
20.0765
20.0883
20.0955
20.0872
20.0957
20.0951
20.0977
20.0934
20.0978
20.0973
20.0973
20.0981
20.0981
20.0975
20.0975
20.0982
20.0982
20.0955
20.0883
20.0957
20.0872
20.0977
20.0951
20.0978
20.0934
20.0751
20.1471
20.0732
20.15
20.0789
20.1315
20.0765
20.136
20.1426
20.0763
20.1447
20.076
20.1238
20.0813
20.1275
20.0805
20.0908
20.0959
20.0895
20.0956
20.0991
20.0984
20.0971
20.0979
20.0962
20.0962
20.0967
20.0967
20.0966
20.0966
20.097
20.097
20.0959
20.0908
20.0956
20.0895
20.0984
20.0991
20.0979
20.0971
20.0763
20.1425
20.076
20.1446
20.0813
20.1238
20.0805
20.1275
20.139
20.0756
20.1407
20.0761
20.1175
20.0818
20.1205
20.0817
20.0929
20.097
20.0919
20.0964
20.1026
20.0997
20.101
20.099
20.0959
20.0959
20.096
20.096
20.0964
20.0964
20.0964
20.0964
20.097
20.0929
20.0964
20.0919
20.0997
20.1026
20.099
20.1009
20.0756
20.139
20.0761
20.1407
20.0818
20.1175
20.0817
20.1205
20.1361
20.0742
20.1375
20.075
20.1123
20.0813
20.1148
20.0816
20.0945
20.0983
20.0938
20.0976
20.1053
20.1014
20.1041
20.1005
20.0963
20.0962
20.096
20.096
20.0967
20.0967
20.0965
20.0965
20.0983
20.0945
20.0976
20.0938
20.1014
20.1053
20.1005
20.104
20.0742
20.1361
20.075
20.1375
20.0813
20.1123
20.0816
20.1148
20.1337
20.0725
20.1349
20.0734
20.108
20.0802
20.11
20.0808
20.0955
20.0996
20.095
20.0989
20.1074
20.1031
20.1064
20.1022
20.097
20.097
20.0966
20.0966
20.0975
20.0974
20.097
20.097
20.0996
20.0955
20.0989
20.095
20.103
20.1074
20.1022
20.1064
20.0725
20.1337
20.0734
20.1348
20.0802
20.108
20.0808
20.11
20.1316
20.0707
20.1326
20.0716
20.1044
20.0788
20.1061
20.0795
20.0961
20.1009
20.0959
20.1002
20.1088
20.1046
20.1082
20.1039
20.0979
20.0979
20.0974
20.0974
20.0984
20.0984
20.0979
20.0979
20.1009
20.0961
20.1002
20.0959
20.1046
20.1088
20.1039
20.1082
20.0707
20.1316
20.0716
20.1326
20.0788
20.1043
20.0795
20.1061
20.1298
20.0689
20.1307
20.0698
20.1013
20.0772
20.1028
20.078
20.0964
20.102
20.0963
20.1015
20.1099
20.1061
20.1094
20.1054
20.0989
20.0989
20.0984
20.0984
20.0994
20.0994
20.0989
20.0989
20.102
20.0964
20.1015
20.0963
20.106
20.1099
20.1054
20.1094
20.0689
20.1297
20.0698
20.1306
20.0772
20.1013
20.078
20.1027
20.1281
20.0672
20.1289
20.068
20.0987
20.0757
20.0999
20.0765
20.0964
20.103
20.0964
20.1025
20.1105
20.1073
20.1102
20.1067
20.0999
20.0999
20.0994
20.0994
20.1004
20.1003
20.0999
20.0999
20.103
20.0964
20.1025
20.0964
20.1072
20.1105
20.1067
20.1102
20.0672
20.1281
20.0681
20.1289
20.0757
20.0986
20.0765
20.0999
20.1267
20.0657
20.1274
20.0664
20.0964
20.0742
20.0975
20.0749
20.0962
20.1038
20.0963
20.1034
20.1109
20.1082
20.1107
20.1078
20.1008
20.1008
20.1003
20.1003
20.1012
20.1012
20.1008
20.1008
20.1038
20.0962
20.1034
20.0963
20.1082
20.1109
20.1078
20.1107
20.0657
20.1266
20.0665
20.1273
20.0742
20.0964
20.0749
20.0975
20.1253
20.0642
20.126
20.0649
20.0944
20.0727
20.0953
20.0734
20.096
20.1044
20.0961
20.1041
20.111
20.109
20.111
20.1086
20.1015
20.1015
20.1011
20.1011
20.102
20.102
20.1016
20.1016
20.1044
20.096
20.1041
20.0961
20.109
20.111
20.1086
20.111
20.0642
20.1253
20.0649
20.1259
20.0728
20.0944
20.0735
20.0953
20.1241
20.0628
20.1247
20.0635
20.0926
20.0714
20.0935
20.072
20.0956
20.1048
20.0958
20.1046
20.111
20.1095
20.111
20.1093
20.1021
20.1021
20.1018
20.1018
20.1026
20.1026
20.1023
20.1023
20.1048
20.0956
20.1046
20.0958
20.1095
20.1109
20.1093
20.111
20.0629
20.1241
20.0635
20.1247
20.0714
20.0926
20.0721
20.0935
20.123
20.0616
20.1235
20.0622
20.091
20.0701
20.0918
20.0707
20.0951
20.105
20.0954
20.1049
20.1107
20.1099
20.1109
20.1097
20.1025
20.1025
20.1023
20.1023
20.103
20.103
20.1028
20.1028
20.105
20.0951
20.1049
20.0954
20.1099
20.1107
20.1097
20.1109
20.0616
20.1229
20.0622
20.1235
20.0701
20.091
20.0707
20.0918
20.1219
20.0604
20.1224
20.061
20.0896
20.0689
20.0903
20.0695
20.0946
20.1051
20.0949
20.1051
20.1104
20.1101
20.1106
20.11
20.1028
20.1028
20.1027
20.1027
20.1033
20.1033
20.1031
20.1031
20.1051
20.0946
20.1051
20.0949
20.1101
20.1104
20.11
20.1106
20.0604
20.1218
20.061
20.1224
20.0689
20.0896
20.0695
20.0903
20.1209
20.0593
20.1214
20.0598
20.0883
20.0678
20.0889
20.0683
20.0941
20.1051
20.0944
20.1052
20.1099
20.1101
20.1102
20.1101
20.1029
20.1029
20.1028
20.1028
20.1034
20.1033
20.1033
20.1033
20.1051
20.0941
20.1051
20.0944
20.1101
20.1099
20.1101
20.1102
20.0593
20.1208
20.0599
20.1213
20.0678
20.0883
20.0683
20.0889
20.1199
20.0583
20.1204
20.0588
20.0871
20.0667
20.0877
20.0672
20.0935
20.105
20.0938
20.1051
20.1093
20.1099
20.1097
20.11
20.1028
20.1028
20.1029
20.1029
20.1032
20.1032
20.1033
20.1033
20.105
20.0935
20.1051
20.0938
20.1099
20.1093
20.11
20.1096
20.0583
20.1199
20.0588
20.1204
20.0667
20.0871
20.0673
20.0877
20.1191
20.0574
20.1195
20.0579
20.086
20.0658
20.0866
20.0662
20.093
20.1048
20.0932
20.1049
20.1086
20.1097
20.109
20.1098
20.1027
20.1027
20.1028
20.1028
20.103
20.103
20.1031
20.1031
20.1048
20.093
20.1049
20.0933
20.1096
20.1086
20.1098
20.109
20.0574
20.119
20.0579
20.1195
20.0658
20.086
20.0662
20.0866
20.1182
20.0566
20.1186
20.057
20.0851
20.0649
20.0855
20.0653
20.0924
20.1044
20.0927
20.1046
20.1078
20.1092
20.1083
20.1095
20.1024
20.1024
20.1026
20.1026
20.1026
20.1026
20.1028
20.1028
20.1044
20.0924
20.1046
20.0927
20.1093
20.1079
20.1095
20.1083
20.0566
20.1182
20.057
20.1186
20.0649
20.0851
20.0653
20.0855
20.1175
20.0559
20.1179
20.0563
20.0842
20.0641
20.0846
20.0644
20.0919
20.104
20.0921
20.1042
20.1072
20.1088
20.1075
20.109
20.1021
20.1021
20.1023
20.1023
20.1022
20.1022
20.1024
20.1024
20.104
20.0919
20.1042
20.0921
20.1088
20.1072
20.109
20.1075
20.0559
20.1174
20.0563
20.1178
20.0641
20.0842
20.0645
20.0846
20.1168
20.0553
20.1171
20.0556
20.0834
20.0633
20.0838
20.0637
20.0914
20.1036
20.0916
20.1038
20.1069
20.1082
20.107
20.1085
20.1017
20.1017
20.1019
20.1019
20.1017
20.1017
20.102
20.102
20.1036
20.0914
20.1038
20.0916
20.1082
20.1069
20.1085
20.107
20.0553
20.1167
20.0556
20.1171
20.0633
20.0834
20.0637
20.0838
20.1162
20.0548
20.1165
20.055
20.0827
20.0627
20.083
20.063
20.091
20.1031
20.0912
20.1033
20.1064
20.1076
20.1066
20.1079
20.1013
20.1013
20.1015
20.1015
20.1011
20.1011
20.1014
20.1014
20.1031
20.091
20.1033
20.0912
20.1076
20.1064
20.1079
20.1066
20.0548
20.1161
20.055
20.1164
20.0627
20.0827
20.063
20.083
20.1157
20.0544
20.1159
20.0546
20.0821
20.0622
20.0824
20.0624
20.0906
20.1027
20.0908
20.1029
20.106
20.1069
20.1062
20.1073
20.101
20.101
20.1011
20.1011
20.1006
20.1006
20.1009
20.1009
20.1027
20.0906
20.1029
20.0908
20.1069
20.106
20.1072
20.1062
20.0544
20.1156
20.0546
20.1159
20.0622
20.0821
20.0625
20.0824
20.1153
20.0542
20.1155
20.0543
20.0817
20.0618
20.0819
20.062
20.0903
20.1023
20.0904
20.1025
20.1056
20.1063
20.1058
20.1066
20.1006
20.1006
20.1008
20.1008
20.1001
20.1001
20.1003
20.1003
20.1023
20.0903
20.1025
20.0904
20.1063
20.1056
20.1066
20.1058
20.0542
20.1153
20.0543
20.1154
20.0618
20.0817
20.062
20.0819
20.1151
20.0542
20.1152
20.0542
20.0814
20.0616
20.0816
20.0617
20.0901
20.102
20.0902
20.1021
20.1052
20.1058
20.1054
20.106
20.1004
20.1004
20.1005
20.1005
20.0996
20.0996
20.0998
20.0998
20.102
20.0901
20.1021
20.0902
20.1058
20.1052
20.106
20.1054
20.0542
20.115
20.0542
20.1151
20.0616
20.0814
20.0617
20.0815
20.115
20.0543
20.115
20.0542
20.0814
20.0615
20.0814
20.0615
20.0901
20.1018
20.0901
20.1019
20.1048
20.1053
20.105
20.1055
20.1002
20.1002
20.1003
20.1003
20.0992
20.0992
20.0994
20.0994
20.1018
20.0901
20.1019
20.0901
20.1053
20.1048
20.1055
20.105
20.0543
20.115
20.0542
20.115
20.0615
20.0814
20.0616
20.0814
20.1151
20.0545
20.115
20.0544
20.0815
20.0616
20.0814
20.0615
20.0901
20.1017
20.0901
20.1017
20.1046
20.1049
20.1047
20.1051
20.1001
20.1001
20.1002
20.1001
20.0989
20.0989
20.0991
20.0991
20.1017
20.0902
20.1017
20.0901
20.1049
20.1045
20.1051
20.1047
20.0545
20.115
20.0544
20.115
20.0616
20.0815
20.0616
20.0814
20.1153
20.0552
20.1152
20.0548
20.0818
20.0618
20.0816
20.0617
20.0904
20.1017
20.0902
20.1017
20.1044
20.1047
20.1045
20.1048
20.1003
20.1003
20.1002
20.1002
20.0988
20.0988
20.0989
20.0989
20.1017
20.0904
20.1017
20.0902
20.1046
20.1044
20.1048
20.1045
20.0552
20.1153
20.0548
20.1151
20.0619
20.0818
20.0617
20.0816
20.1157
20.0561
20.1155
20.0556
20.0824
20.0622
20.0821
20.062
20.0907
20.1019
20.0905
20.1018
20.1043
20.1045
20.1043
20.1046
20.1005
20.1005
20.1004
20.1004
20.0989
20.0989
20.0988
20.0988
20.1019
20.0907
20.1018
20.0905
20.1045
20.1043
20.1046
20.1043
20.0562
20.1157
20.0557
20.1155
20.0623
20.0824
20.062
20.0821
20.1163
20.0574
20.116
20.0567
20.0832
20.0627
20.0828
20.0625
20.0912
20.1023
20.0909
20.1021
20.1044
20.1046
20.1043
20.1046
20.101
20.101
20.1008
20.1008
20.0992
20.0992
20.099
20.099
20.1023
20.0912
20.1021
20.0909
20.1046
20.1044
20.1046
20.1043
20.0574
20.1162
20.0567
20.1159
20.0627
20.0832
20.0625
20.0827
20.117
20.0585
20.1166
20.0582
20.0843
20.0635
20.0837
20.0629
20.0918
20.1028
20.0915
20.1025
20.1046
20.1049
20.1045
20.1047
20.1017
20.1017
20.1013
20.1013
20.0997
20.0997
20.0994
20.0994
20.1028
20.0918
20.1025
20.0915
20.1049
20.1046
20.1047
20.1044
20.0586
20.117
20.0582
20.1166
20.0635
20.0842
20.0629
20.0837
20.118
20.0593
20.1175
20.0589
20.0855
20.0648
20.0849
20.0641
20.0926
20.1036
20.0922
20.1032
20.1049
20.1053
20.1047
20.1051
20.1026
20.1026
20.1021
20.1021
20.1004
20.1004
20.1
20.1
20.1036
20.0926
20.1032
20.0922
20.1053
20.1049
20.1051
20.1047
20.0593
20.1179
20.0589
20.1174
20.0648
20.0855
20.0641
20.0849
20.119
20.0604
20.1185
20.0598
20.0871
20.0661
20.0863
20.0654
20.0935
20.1045
20.093
20.104
20.1053
20.106
20.1051
20.1056
20.1037
20.1037
20.1031
20.1031
20.1014
20.1014
20.1009
20.1009
20.1045
20.0935
20.104
20.093
20.106
20.1053
20.1056
20.1051
20.0604
20.119
20.0598
20.1184
20.0661
20.0871
20.0654
20.0863
20.12
20.0617
20.1195
20.061
20.0889
20.0674
20.088
20.0667
20.0945
20.1055
20.094
20.105
20.1059
20.1068
20.1056
20.1064
20.1049
20.1049
20.1043
20.1043
20.1026
20.1026
20.1019
20.1019
20.1055
20.0945
20.105
20.094
20.1068
20.1059
20.1064
20.1056
20.0617
20.12
20.061
20.1195
20.0674
20.0888
20.0668
20.0879
20.121
20.0632
20.1205
20.0624
20.0908
20.0689
20.0898
20.0682
20.0957
20.1067
20.0951
20.1061
20.1066
20.1079
20.1062
20.1073
20.1064
20.1064
20.1056
20.1056
20.104
20.1039
20.1032
20.1032
20.1067
20.0957
20.1061
20.0951
20.1078
20.1066
20.1073
20.1062
20.0632
20.1209
20.0625
20.1205
20.0689
20.0907
20.0682
20.0898
20.1214
20.0651
20.1213
20.0641
20.0926
20.0706
20.0917
20.0697
20.097
20.108
20.0963
20.1074
20.1074
20.1091
20.107
20.1084
20.1079
20.1079
20.1071
20.1071
20.1055
20.1055
20.1047
20.1047
20.108
20.097
20.1074
20.0963
20.1091
20.1074
20.1084
20.107
20.0651
20.1214
20.0641
20.1212
20.0706
20.0926
20.0697
20.0917
20.121
20.0677
20.1214
20.0663
20.0942
20.0726
20.0935
20.0716
20.0984
20.1095
20.0977
20.1088
20.1083
20.1105
20.1079
20.1097
20.1096
20.1096
20.1088
20.1088
20.1073
20.1073
20.1064
20.1064
20.1095
20.0984
20.1088
20.0977
20.1105
20.1083
20.1097
20.1079
20.0677
20.121
20.0663
20.1213
20.0727
20.0942
20.0716
20.0935
20.1162
20.0739
20.1198
20.0698
20.093
20.077
20.0944
20.0741
20.1
20.1111
20.0991
20.1103
20.1094
20.1121
20.1088
20.1112
20.1114
20.1114
20.1105
20.1105
20.1092
20.1092
20.1082
20.1082
20.1111
20.1
20.1103
20.0991
20.1121
20.1094
20.1112
20.1088
20.0739
20.1162
20.0699
20.1197
20.077
20.093
20.0741
20.0944
20.1291
20.0627
20.1116
20.0792
20.1025
20.0703
20.0903
20.081
20.1013
20.1134
20.1013
20.1122
20.1109
20.1142
20.1104
20.1131
20.1132
20.1132
20.1124
20.1124
20.1112
20.1112
20.1102
20.1102
20.1134
20.1013
20.1122
20.1013
20.1142
20.1109
20.1131
20.1104
20.0627
20.1291
20.0792
20.1116
20.0703
20.1025
20.081
20.0903
20.1926
20.0392
20.1632
20.0547
20.1841
20.0419
20.1568
20.0576
20.0772
20.0964
20.0861
20.0988
20.0816
20.0979
20.089
20.0994
20.1002
20.1002
20.1005
20.1005
20.1002
20.1002
20.1003
20.1003
20.0964
20.0772
20.0988
20.0862
20.0979
20.0816
20.0994
20.089
20.0392
20.1925
20.0548
20.1631
20.042
20.1839
20.0576
20.1567
20.1627
20.075
20.1722
20.063
20.1597
20.0713
20.1674
20.0615
20.0781
20.0914
20.078
20.0937
20.0814
20.0938
20.0817
20.0958
20.0979
20.0979
20.0994
20.0994
20.0986
20.0986
20.0996
20.0996
20.0914
20.0781
20.0937
20.0781
20.0938
20.0814
20.0958
20.0817
20.075
20.1626
20.063
20.1721
20.0713
20.1596
20.0615
20.1673
20.1549
20.0839
20.158
20.0808
20.153
20.0785
20.1557
20.0761
20.0804
20.0896
20.0791
20.0902
20.0833
20.0923
20.0822
20.0928
20.0952
20.0952
20.0965
20.0965
20.0966
20.0966
20.0976
20.0976
20.0896
20.0804
20.0902
20.0792
20.0923
20.0833
20.0928
20.0822
20.0839
20.1549
20.0808
20.1579
20.0785
20.1529
20.0761
20.1557
20.1512
20.0862
20.1528
20.0855
20.1493
20.0801
20.1509
20.0797
20.0824
20.0894
20.0815
20.0894
20.0853
20.0924
20.0843
20.0922
20.0935
20.0935
20.0942
20.0942
20.0952
20.0952
20.0958
20.0958
20.0894
20.0824
20.0894
20.0815
20.0924
20.0853
20.0922
20.0844
20.0862
20.1511
20.0855
20.1527
20.0801
20.1492
20.0797
20.1508
20.1488
20.0864
20.1499
20.0865
20.1467
20.0798
20.1479
20.0801
20.0837
20.0897
20.0831
20.0895
20.0867
20.093
20.0861
20.0926
20.0929
20.0929
20.0931
20.0931
20.0947
20.0947
20.0949
20.0949
20.0897
20.0837
20.0895
20.0831
20.093
20.0867
20.0926
20.0861
20.0864
20.1488
20.0865
20.1498
20.0798
20.1467
20.0801
20.1478
20.147
20.0857
20.1479
20.0861
20.1447
20.0786
20.1456
20.0792
20.0843
20.0902
20.084
20.09
20.0875
20.094
20.0872
20.0935
20.093
20.093
20.0929
20.0929
20.0949
20.0949
20.0948
20.0948
20.0902
20.0843
20.09
20.084
20.094
20.0875
20.0935
20.0872
20.0857
20.147
20.0861
20.1478
20.0786
20.1446
20.0793
20.1456
20.1455
20.0846
20.1463
20.0852
20.1429
20.0772
20.1438
20.0779
20.0845
20.0909
20.0844
20.0906
20.088
20.0949
20.0878
20.0945
20.0935
20.0935
20.0932
20.0932
20.0956
20.0956
20.0952
20.0952
20.0909
20.0845
20.0906
20.0844
20.0949
20.088
20.0945
20.0878
20.0846
20.1455
20.0852
20.1462
20.0772
20.1429
20.0779
20.1437
20.1442
20.0834
20.1448
20.0841
20.1414
20.0756
20.1422
20.0764
20.0844
20.0914
20.0845
20.0912
20.0881
20.0958
20.0881
20.0954
20.0943
20.0943
20.0939
20.0939
20.0964
20.0964
20.096
20.096
20.0914
20.0844
20.0912
20.0845
20.0958
20.0881
20.0954
20.0881
20.0834
20.1442
20.0841
20.1448
20.0756
20.1414
20.0764
20.1421
20.143
20.0822
20.1436
20.0828
20.1401
20.0741
20.1407
20.0748
20.0842
20.092
20.0844
20.0917
20.088
20.0966
20.0881
20.0963
20.0951
20.0951
20.0947
20.0947
20.0974
20.0974
20.0969
20.0969
20.092
20.0842
20.0917
20.0844
20.0966
20.088
20.0962
20.0881
20.0822
20.143
20.0828
20.1435
20.0741
20.14
20.0748
20.1407
20.1419
20.081
20.1424
20.0816
20.1388
20.0726
20.1394
20.0733
20.0839
20.0924
20.0841
20.0922
20.0878
20.0973
20.0879
20.097
20.0958
20.0958
20.0955
20.0955
20.0983
20.0983
20.0978
20.0978
20.0924
20.0839
20.0922
20.0841
20.0973
20.0878
20.097
20.0879
20.081
20.1418
20.0816
20.1424
20.0726
20.1388
20.0733
20.1394
20.1409
20.0798
20.1414
20.0804
20.1377
20.0712
20.1383
20.0719
20.0835
20.0927
20.0837
20.0926
20.0874
20.0978
20.0876
20.0976
20.0966
20.0966
20.0962
20.0962
20.0991
20.0991
20.0987
20.0987
20.0927
20.0835
20.0926
20.0837
20.0978
20.0875
20.0976
20.0876
20.0798
20.1408
20.0804
20.1413
20.0712
20.1376
20.0719
20.1382
20.1399
20.0787
20.1404
20.0792
20.1366
20.0698
20.1371
20.0705
20.0831
20.0929
20.0833
20.0928
20.087
20.0982
20.0873
20.098
20.0971
20.0971
20.0969
20.0969
20.0998
20.0997
20.0994
20.0994
20.0929
20.0831
20.0928
20.0833
20.0982
20.087
20.098
20.0873
20.0787
20.1399
20.0792
20.1403
20.0698
20.1366
20.0705
20.1371
20.139
20.0776
20.1395
20.0781
20.1356
20.0686
20.1361
20.0692
20.0826
20.0931
20.0829
20.093
20.0866
20.0984
20.0868
20.0983
20.0976
20.0976
20.0974
20.0974
20.1003
20.1003
20.1
20.1
20.0931
20.0826
20.093
20.0829
20.0984
20.0866
20.0983
20.0868
20.0776
20.139
20.0781
20.1394
20.0686
20.1356
20.0692
20.1361
20.1381
20.0766
20.1386
20.0771
20.1347
20.0674
20.1351
20.068
20.0821
20.0931
20.0824
20.0931
20.0861
20.0985
20.0863
20.0985
20.0979
20.0979
20.0978
20.0978
20.1007
20.1007
20.1005
20.1005
20.0931
20.0821
20.0931
20.0824
20.0985
20.0861
20.0985
20.0864
20.0766
20.1381
20.0771
20.1385
20.0674
20.1346
20.068
20.1351
20.1373
20.0757
20.1377
20.0761
20.1338
20.0664
20.1342
20.0669
20.0816
20.093
20.0819
20.0931
20.0856
20.0985
20.0858
20.0985
20.0981
20.0981
20.0981
20.0981
20.1009
20.1009
20.1008
20.1008
20.093
20.0816
20.0931
20.0819
20.0985
20.0856
20.0985
20.0858
20.0757
20.1373
20.0761
20.1377
20.0664