/*--------------------------------*- C++ -*----------------------------------*\
  =========                 |
  \\      /  F ield         | OpenFOAM: The Open Source CFD Toolbox
   \\    /   O peration     | Website:  https://openfoam.org
    \\  /    A nd           | Version:  9
     \\/     M anipulation  |
\*---------------------------------------------------------------------------*/
FoamFile
{
    format      ascii;
    class       volScalarField;
    location    "2.9";
    object      epsilon;
}
// * * * * * * * * * * * * * * * * * * * * * * * * * * * * * * * * * * * * * //

dimensions      [0 2 -3 0 0 0 0];

internalField   nonuniform List<scalar> 
36360
(
3.73958
3.08605
2.0701
1.8771
2.32952
2.12702
0.400325
0.742161
1.50431
0.787203
0.700175
0.250826
0.99263
0.428044
0.16547
0.0384736
0.522472
0.522304
0.116237
0.116153
0.264116
0.264004
0.0188601
0.0188476
0.786661
1.50335
0.250476
0.69945
0.427555
0.991565
0.0384039
0.165104
3.08478
3.73813
1.87599
2.06878
2.12513
2.32726
0.741137
0.399512
6.0106
4.99093
4.99899
4.11369
6.06045
5.09929
4.30932
3.62724
3.04708
2.08409
2.2964
1.42233
3.33739
2.41699
2.12054
1.33695
1.68839
1.68815
1.07475
1.07454
2.04673
2.04637
1.03813
1.03787
2.08336
3.04591
1.42168
2.29532
2.41585
3.33535
1.3361
2.11893
4.9895
6.00905
4.11232
4.99744
5.0962
6.05675
3.6247
4.30625
7.61911
6.47517
6.86554
5.77089
9.11293
7.85287
7.64567
6.50831
4.40278
3.34929
3.74962
2.73226
5.75524
4.6572
4.5604
3.54068
2.90427
2.904
2.30694
2.30668
4.19747
4.19695
3.12041
3.11996
3.34851
4.40155
2.7315
3.74842
4.65562
5.75255
3.53929
4.558
6.47374
7.61762
5.76945
6.86397
7.84898
9.10832
6.50479
7.64151
8.89238
7.68944
8.28925
7.11133
11.722
10.304
10.469
9.11883
5.5594
4.46358
5.00538
3.92724
7.98246
6.76872
6.89914
5.73774
3.99525
3.99499
3.46865
3.46838
6.25195
6.25134
5.24644
5.24587
4.46281
5.55822
3.92646
5.00418
6.76689
7.9794
5.73601
6.89624
7.68811
8.89101
7.10995
8.28776
10.2997
11.7169
9.1147
10.4642
9.9214
8.68299
9.4332
8.21068
13.9248
12.4171
12.8708
11.4018
6.52766
5.41093
6.0658
4.95782
9.93978
8.64717
8.99611
7.73941
4.93059
4.93034
4.48254
4.48229
8.09313
8.09248
7.20215
7.20151
5.41021
6.52657
4.95707
6.06466
8.64523
9.93657
7.7375
8.99296
8.68181
9.92021
8.20943
9.43186
12.4127
13.9196
11.3974
12.8657
10.7537
9.49276
10.3587
9.10796
15.7602
14.1996
14.8844
13.3469
7.32781
6.20135
6.94714
5.8247
11.6128
10.2662
10.8106
9.48861
5.71488
5.71465
5.3408
5.34056
9.68732
9.68666
8.92095
8.92029
6.20068
7.32682
5.82401
6.9461
10.2642
11.6096
9.48666
10.8074
9.49171
10.7527
9.10684
10.3575
14.1952
15.755
13.3424
14.8792
11.4253
10.15
11.1068
9.83807
17.2746
15.6817
16.5533
14.9747
7.98314
6.85312
7.67206
6.54339
13.0179
11.6348
12.3466
10.9801
6.36388
6.36367
6.05526
6.05504
11.0394
11.0387
10.3922
10.3915
6.85252
7.98225
6.54276
7.67112
11.6329
13.0148
10.9782
12.3435
10.149
11.4244
9.83708
11.1058
15.6774
17.2696
14.9703
16.5483
11.9639
10.679
11.7087
10.4283
18.514
16.9012
17.9246
16.3206
8.51525
7.38545
8.26319
7.13309
14.1834
12.7758
13.6281
12.2316
6.89549
6.89529
6.64332
6.64312
12.1694
12.1688
11.6302
11.6296
7.3849
8.51445
7.13251
8.26235
12.7739
14.1804
12.2298
13.625
10.6782
11.9631
10.4274
11.7078
16.897
18.5091
16.3163
17.9198
12.3918
11.1008
12.1894
10.9013
19.5192
17.8943
19.0422
17.4225
8.94328
7.81607
8.74107
7.6125
15.1392
13.7159
14.685
13.2689
7.32676
7.32658
7.12276
7.12257
13.1027
13.1021
12.6587
12.6581
7.81556
8.94256
7.61197
8.74031
13.7141
15.1363
13.2671
14.6821
11.1001
12.3911
10.9005
12.1887
17.8903
19.5146
17.4184
19.0375
12.7265
11.4322
12.5688
11.276
20.324
18.6932
19.9435
18.3148
9.28329
8.1603
9.1233
7.9982
15.9135
14.481
15.5469
14.1185
7.67255
7.67238
7.50962
7.50945
13.8639
13.8633
13.503
13.5025
8.15983
9.28262
7.99772
9.12261
14.4793
15.9107
14.1167
15.544
11.4315
12.7258
11.2754
12.5682
18.6893
20.3196
18.3109
19.939
12.9824
11.6872
12.8625
11.5676
20.9581
19.3257
20.6596
19.0273
9.54866
8.43104
9.42448
8.30421
16.5314
15.0945
16.24
14.805
7.94547
7.94532
7.81752
7.81737
14.4755
14.4749
14.1868
14.1862
8.43062
9.54806
8.30377
9.42384
15.0929
16.5287
14.8034
16.2373
11.6867
12.9822
11.567
12.8619
19.3221
20.9543
19.0235
20.6554
13.1723
11.8773
13.084
11.7889
21.4475
19.8154
21.218
19.5857
9.75036
8.63903
9.65679
8.54238
17.0141
15.5766
16.7879
15.3505
8.1561
8.15596
8.05812
8.05797
14.9573
14.9568
14.7312
14.7307
8.63864
9.74983
8.54198
9.65622
15.5751
17.0115
15.3489
16.7853
11.8769
13.1723
11.7885
13.0839
19.812
21.444
19.5822
21.2146
13.3055
12.0119
13.2443
11.9501
21.8116
20.182
21.6424
20.0115
9.89757
8.79317
9.83018
8.72242
17.3799
15.9447
17.21
15.7736
8.31324
8.31311
8.24099
8.24086
15.3264
15.3259
15.1547
15.1541
8.79281
9.89709
8.72205
9.82968
15.9431
17.3773
15.772
17.2074
12.0116
13.3055
11.9498
13.2442
20.1786
21.8085
20.0081
21.6393
13.3901
12.0984
13.3526
12.06
22.0694
20.4416
21.9521
20.323
9.99754
8.90072
9.95302
8.85249
17.6437
16.2133
17.5232
16.0903
8.42416
8.42403
8.37423
8.37411
15.5972
15.5967
15.473
15.4725
8.90038
9.99708
8.85214
9.95255
16.2117
17.6412
16.0888
17.5207
12.098
13.3897
12.0597
13.3525
20.438
22.0653
20.3196
21.9487
13.4296
12.1417
13.4145
12.1244
22.2285
20.6057
22.1594
20.5336
10.0558
8.96739
10.0316
8.93896
17.8176
16.3942
17.7407
16.3137
8.49456
8.49445
8.46425
8.46413
15.7814
15.7809
15.6992
15.6987
8.96707
10.0554
8.93863
10.0311
16.3928
17.8152
16.3122
17.7382
12.1413
13.429
12.124
13.4137
20.6022
22.2237
20.5299
22.1547
13.4268
12.1439
13.433
12.1475
22.2992
20.6829
22.2734
20.654
10.0763
8.99761
10.0706
8.98696
17.9111
16.4974
17.8736
16.4547
8.52908
8.52897
8.51621
8.5161
15.889
15.8885
15.844
15.8435
8.99732
10.0759
8.98666
10.0703
16.4959
17.9087
16.4533
17.8712
12.144
13.4268
12.1473
13.4326
20.6796
22.2951
20.6507
22.2696
13.3855
12.1107
13.4092
12.1304
22.2928
20.6821
22.3032
20.6895
10.0632
8.99549
10.0735
9.00036
17.9317
16.5302
17.9295
16.522
8.53168
8.53157
8.53423
8.53413
15.9273
15.9269
15.9162
15.9157
8.99519
10.0628
9.00006
10.0731
16.5287
17.9293
16.5206
17.9272
12.1091
13.3835
12.1296
13.4084
20.6785
22.2876
20.686
22.2983
13.3198
12.0522
13.3548
12.0839
22.2209
20.6195
22.2638
20.6578
10.0223
8.96527
10.0461
8.98391
17.8916
16.5034
17.9195
16.524
8.50644
8.50634
8.52265
8.52255
15.9065
15.906
15.9236
15.9231
8.96497
10.0218
8.98361
10.0457
16.502
17.8892
16.5226
17.9171
12.0511
13.3187
12.0827
13.3531
20.6158
22.2159
20.6542
22.2587
13.2222
11.9635
13.2739
12.0104
22.0849
20.4929
22.1591
20.5622
9.95489
8.90927
9.99167
8.94039
17.7921
16.4183
17.8481
16.467
8.45558
8.45548
8.48414
8.48403
15.8279
15.8274
15.8733
15.8728
8.909
9.95457
8.94011
9.99126
16.4168
17.7898
16.4655
17.8457
11.9623
13.2206
12.009
13.2724
20.4898
22.0806
20.5587
22.1543
13.1002
11.8521
13.1632
11.9098
21.8947
20.3133
21.9948
20.4082
9.86479
8.83069
9.91256
8.8728
17.6415
16.2833
17.7224
16.3565
8.38226
8.38217
8.42175
8.42165
15.7
15.6995
15.7696
15.7692
8.83045
9.86436
8.87254
9.91218
16.2819
17.6393
16.3551
17.7202
11.8519
13.1001
11.9093
13.1621
20.3099
21.8904
20.405
21.9911
12.9578
11.7214
13.0302
11.7883
21.655
20.0841
21.7797
20.2031
9.75403
8.73165
9.81184
8.78375
17.4441
16.1023
17.5479
16.198
8.28858
8.2885
8.33801
8.33793
15.5265
15.526
15.6185
15.618
8.73142
9.75347
8.7835
9.81122
16.101
17.4419
16.1967
17.5457
11.7186
12.9536
11.7856
13.0275
20.0802
21.6486
20.1991
21.774
12.7929
11.5692
12.8776
11.647
21.3676
19.8093
21.5157
19.9509
9.62411
8.61375
9.69139
8.67513
17.2033
15.8787
17.3286
15.9954
8.17612
8.17604
8.23479
8.23471
15.3106
15.3102
15.4234
15.423
8.61354
9.62392
8.67494
9.69119
15.8773
17.2011
15.9941
17.3264
11.5695
12.7939
11.6467
12.8764
19.8065
21.3647
19.9481
21.512
12.6079
11.399
12.7022
11.4858
21.0349
19.4892
21.2062
19.6537
9.47573
8.47789
9.55223
8.54816
16.9209
15.6147
17.0668
15.7514
8.04595
8.04586
8.11336
8.11327
15.0549
15.0545
15.1874
15.1869
8.47765
9.4753
8.54793
9.55185
15.6134
16.9187
15.75
17.0646
11.3969
12.6059
11.4847
12.7016
19.4858
21.0298
19.6503
21.2018
12.4032
11.2094
12.5071
11.3059
20.6583
19.1272
20.8503
19.3118
9.30974
8.32503
9.39488
8.40367
16.5994
15.3127
16.7645
15.4681
7.89905
7.89895
7.9747
7.97461
14.7617
14.7612
14.9126
14.9122
8.32474
9.30922
8.40342
9.39447
15.3113
16.597
15.4667
16.7622
11.2079
12.4001
11.3042
12.5046
19.1233
20.6531
19.3086
20.8455
12.1748
11.0009
12.2901
11.1058
20.2393
18.724
20.4526
18.9291
9.12702
8.15599
9.22033
8.24263
16.2398
14.9743
16.424
15.1477
7.73624
7.73614
7.81975
7.81965
14.4327
14.4322
14.6013
14.6008
8.15565
9.12642
8.2423
9.21979
14.9729
16.2373
15.1463
16.4214
11.0011
12.1755
11.106
12.2891
18.7196
20.2332
18.9246
20.4464
11.9333
10.7791
12.0554
10.8915
19.7807
18.2828
20.0139
18.5067
8.92866
7.97157
9.02983
8.06579
15.8444
14.6015
16.0459
14.7918
7.55832
7.55822
7.64929
7.64919
14.0698
14.0694
14.2552
14.2547
7.97126
8.92803
8.06547
9.02916
14.6002
15.842
14.7905
16.0435
10.777
11.9309
10.8901
12.0546
18.2789
19.776
18.5026
20.0086
11.6712
10.5396
11.8034
10.6604
19.2838
17.8054
19.5359
18.0473
8.71499
7.77244
8.82375
7.87398
15.4157
14.1961
15.6338
14.4026
7.36587
7.36578
7.46406
7.46396
13.6745
13.6741
13.8759
13.8755
7.77216
8.71452
7.87368
8.82317
14.1948
15.4135
14.4013
15.6315
10.5386
11.67
10.6588
11.8013
17.8022
19.2797
18.0437
19.5315
11.3884
10.2815
11.5318
10.4121
18.7474
17.2899
19.0197
17.5513
8.48546
7.55855
8.60227
7.66748
14.9533
13.7585
15.1884
13.981
7.15908
7.15899
7.26442
7.26433
13.2478
13.2474
13.4648
13.4644
7.55829
8.48511
7.66722
8.60187
13.7572
14.9512
13.9797
15.1862
10.2812
11.3882
10.4115
11.5311
17.2869
18.7438
17.5483
19.016
11.0851
10.0056
11.2384
10.1449
18.1721
16.7372
18.4635
17.0168
8.24027
7.33017
8.36479
7.44627
14.4582
13.2901
14.7094
13.5278
6.93831
6.93822
7.05057
7.05048
12.7909
12.7905
13.0228
13.0224
7.32992
8.23993
7.44601
8.36446
13.2888
14.4561
13.5265
14.7073
10.0054
11.0851
10.1447
11.2383
16.7343
18.1686
17.0139
18.46
10.7642
9.71391
10.926
9.8609
17.5619
16.1512
17.8703
16.4471
7.98064
7.08813
8.11222
7.21094
13.9328
12.7926
14.1988
13.0446
6.70422
6.70413
6.82304
6.82295
12.3056
12.3052
12.5515
12.5511
7.08788
7.98031
7.21069
8.11189
12.7914
13.9308
13.0434
14.1968
9.71371
10.7642
9.8607
10.9259
16.1483
17.5585
16.4442
17.8668
10.4278
9.40832
10.5971
9.56211
16.9205
15.5348
17.2441
15.8456
7.70776
6.83326
7.84584
6.96239
13.3794
12.2682
13.6592
12.5335
6.4575
6.45741
6.58255
6.58246
11.7936
11.7932
12.0527
12.0522
6.83301
7.70743
6.96214
7.84551
12.267
13.3774
12.5322
13.6572
9.40812
10.4278
9.56191
10.597
15.532
16.9171
15.8428
17.2407
10.0778
9.08985
10.2538
9.24998
16.2506
14.8915
16.5881
15.2154
7.4224
6.56613
7.56664
6.70134
12.8001
11.7183
13.0926
11.9961
6.19862
6.19853
6.32971
6.32961
11.2563
11.2559
11.5279
11.5275
6.56588
7.42207
6.70108
7.56631
11.7171
12.7981
11.9949
13.0906
9.08965
10.0778
9.24978
10.2537
14.8887
16.2473
15.2126
16.5848
9.71526
8.7594
9.89737
8.92546
15.5541
14.2226
15.9049
14.5593
7.12497
6.28695
7.27523
6.42818
12.1959
11.144
12.5008
11.434
5.92772
5.92763
6.06482
6.06473
10.6948
10.6944
10.9784
10.978
6.2867
7.12464
6.42793
7.2749
11.1428
12.194
11.4328
12.4988
8.7592
9.71523
8.92526
9.89728
14.2199
15.5509
14.5566
15.9016
9.34084
8.41709
9.52891
8.58913
14.8315
13.5286
15.1953
13.8778
6.81528
5.9954
6.97174
6.14289
11.5674
10.5455
11.8845
10.8476
5.64441
5.64432
5.7878
5.78771
10.1092
10.1088
10.4048
10.4044
5.99515
6.81495
6.14264
6.97141
10.5444
11.5655
10.8464
11.8826
8.41689
9.3408
8.58893
9.52881
13.5259
14.8283
13.8752
15.1922
8.95393
8.06198
9.14843
8.24065
14.0814
12.8091
14.4594
13.1713
6.49218
5.69032
6.65557
5.84478
10.9136
9.92219
11.2435
10.2369
5.34758
5.34749
5.49793
5.49784
9.49881
9.49843
9.80705
9.80666
5.69007
6.49186
5.84454
6.65525
9.92105
10.9118
10.2358
11.2416
8.06177
8.95388
8.24044
9.14832
12.8065
14.0783
13.1687
14.4563
8.55157
7.69089
8.7544
7.87816
13.2992
12.0617
13.6941
12.4383
6.15266
5.3691
6.32481
5.53208
10.2318
9.27133
10.5763
9.6003
5.03489
5.03481
5.19354
5.19345
8.86134
8.86097
9.18354
9.18316
5.36886
6.15235
5.53183
6.32449
9.27023
10.23
9.59918
10.5745
7.69068
8.55151
7.87795
8.75428
12.0592
13.2962
12.4358
13.6911
8.12586
7.29524
8.34185
7.49649
12.4743
11.2798
12.8924
11.675
5.78949
5.02658
5.97482
5.20107
9.51444
8.58723
9.87817
8.93383
4.70252
4.70243
4.87157
4.87148
8.19254
8.19219
8.53104
8.53068
5.02635
5.78918
5.20083
5.97451
8.58619
9.51273
8.93275
9.87641
7.29504
8.1258
7.49629
8.34174
11.2774
12.4715
11.6726
12.8895
7.65881
6.84588
7.89847
7.08048
11.5918
10.44
12.0403
10.8699
5.38329
4.65346
5.59391
4.84467
8.7401
7.85927
9.1366
8.2294
4.34626
4.34618
4.5276
4.52752
7.48815
7.48782
7.84469
7.84435
4.65323
5.383
4.84444
5.59361
7.85828
8.7385
8.22838
9.13494
6.84571
7.65876
7.08029
7.89836
10.4378
11.5892
10.8676
12.0376
7.13225
6.19191
7.40324
6.56839
10.6104
9.35276
11.1256
9.95895
4.88442
4.24185
5.14992
4.45214
7.85003
7.08052
8.31459
7.47522
3.97041
3.97034
4.1597
4.15962
6.75711
6.7568
7.12396
7.12364
4.24164
4.88415
4.45192
5.14964
7.07962
7.84856
7.47428
8.31304
6.19176
7.13226
6.56822
7.40316
9.35072
10.6078
9.9568
11.123
5.43293
4.49274
3.92732
3.30877
4.72889
3.87166
3.15109
2.66299
2.71047
1.76417
1.75479
1.00254
2.14421
1.28067
1.23927
0.606444
1.36442
1.36414
0.71006
0.709806
0.932615
0.932385
0.379876
0.3797
1.76335
2.70924
1.00174
1.75346
1.27997
2.14309
0.605857
1.23821
4.49153
5.43185
3.3072
3.92562
3.8704
4.72755
2.6616
3.14945
7.22538
6.1408
6.47289
5.42193
6.67522
5.60111
5.84148
4.83283
4.2524
3.17791
3.54218
2.50186
3.66658
2.61999
2.95261
1.96542
2.69727
2.69705
2.04654
2.04628
2.16769
2.16746
1.54934
1.5491
3.1773
4.25163
2.50113
3.54116
2.61931
3.6656
1.96471
2.95154
6.14033
7.22524
5.42108
6.47223
5.60019
6.67439
4.83173
5.84034
8.28758
7.21538
7.80989
6.72493
7.92226
6.80923
7.3504
6.24831
5.39519
4.32626
4.86403
3.78532
4.86855
3.78535
4.30144
3.22831
3.83638
3.83624
3.29584
3.29566
3.30484
3.30464
2.7572
2.75698
4.32592
5.39489
3.78485
4.86349
3.7848
4.8678
3.22769
4.30057
7.21555
8.28818
6.72478
7.81006
6.80868
7.92189
6.24757
7.34973
9.02471
7.99249
8.68485
7.63182
8.84433
7.73283
8.41324
7.29889
6.26427
5.23133
5.85835
4.80627
5.82864
4.7484
5.37508
4.29114
4.75183
4.75177
4.32055
4.32045
4.26301
4.26286
3.80669
3.80651
5.23122
6.26433
4.80605
5.85822
4.74798
5.82813
4.29065
5.37445
7.99312
9.02584
7.63222
8.68566
7.73261
8.84437
7.2985
8.41299
9.57159
8.57936
9.31637
8.30492
9.55584
8.45803
9.22099
8.11599
6.93505
5.94147
6.62092
5.60808
6.59739
5.53151
6.23423
5.16068
5.47668
5.47668
5.13585
5.13582
5.04907
5.04896
4.67628
4.67614
5.94153
6.93536
5.60805
6.6211
5.53122
6.59708
5.16032
6.23382
8.58029
9.57305
8.30569
9.3176
8.45806
9.55617
8.11588
9.22109
9.98716
9.02993
9.79241
8.81861
10.1145
9.03176
9.85084
8.76081
7.45644
6.49867
7.21202
6.23712
7.21236
6.16355
6.92196
5.86472
6.0484
6.04844
5.77978
5.77979
5.68667
5.68659
5.38494
5.38484
6.49884
7.45692
6.23723
7.21241
6.16335
7.2122
5.86447
6.92172
9.03105
9.98884
8.81962
9.79391
9.03198
10.1151
8.76092
9.85118
10.3052
9.37717
10.156
9.2143
10.554
9.48479
10.3466
9.27095
7.86241
6.93568
7.6722
6.73072
7.70284
6.67109
7.47151
6.43149
6.49852
6.49859
6.28725
6.2873
6.20051
6.20045
5.95777
5.9577
6.93593
7.863
6.73092
7.67272
6.67096
7.7028
6.43132
7.4714
9.3784
10.307
9.21546
10.1577
9.48515
10.5547
9.27123
10.3471
10.5468
9.64298
10.4336
9.51852
10.8979
9.84086
10.7357
9.67292
8.17723
7.27713
8.03
7.11727
8.09199
7.07627
7.90875
6.88534
6.85151
6.85159
6.68612
6.68619
6.61203
6.61199
6.41799
6.41795
7.27743
8.1779
7.11754
8.03062
7.0762
8.09204
6.88524
7.90874
9.64429
10.5487
9.51977
10.4354
9.84132
10.8987
9.67331
10.7364
10.7268
9.84319
10.6429
9.74979
11.1636
10.1176
11.0386
9.9874
8.41889
7.54175
8.30631
7.41829
8.39801
7.39711
8.25434
7.24636
7.12624
7.12633
6.99793
6.99802
6.93898
6.93896
6.78525
6.78522
7.54209
8.4196
7.4186
8.30698
7.39709
8.39812
7.24631
8.25441
9.84454
10.7287
9.7511
10.6447
10.1181
11.1645
9.98788
11.0393
10.8561
9.98966
10.7964
9.9219
11.3644
10.3283
11.2704
10.2297
8.60091
7.74378
8.51671
7.65008
8.63506
7.64794
8.52434
7.53063
7.33718
7.33729
7.2392
7.2393
7.19564
7.19563
7.07549
7.07547
7.74414
8.60166
7.65043
8.51743
7.64796
8.63522
7.53062
8.52447
9.99104
10.8581
9.92324
10.7983
10.3289
11.3653
10.2302
11.2713
10.9432
10.0916
10.9038
10.0451
11.5107
10.4838
11.4428
10.4116
8.7337
7.89419
8.67299
7.8251
8.81451
7.84025
8.73133
7.75092
7.49553
7.49565
7.42262
7.42273
7.3935
7.3935
7.30146
7.30146
7.89457
8.73447
7.82546
8.67374
7.8403
8.81472
7.75094
8.7315
10.093
10.9452
10.0465
10.9056
10.4845
11.5117
10.4122
11.4437
10.9943
10.1557
10.9722
10.1274
11.6108
10.5925
11.5652
10.5428
8.8252
8.00148
8.78427
7.95302
8.94533
7.9832
8.88548
7.91754
7.61001
7.61013
7.55808
7.5582
7.54177
7.54178
7.47351
7.47352
8.00188
8.826
7.95341
8.78505
7.98328
8.94558
7.91759
8.8857
10.1571
10.9963
10.1288
10.9741
10.5932
11.6119
10.5435
11.5662
11.0148
10.1878
11.0073
10.1749
11.6716
10.6614
11.6448
10.6308
8.88183
8.0724
8.85762
8.04138
9.03485
8.08421
8.99482
8.03868
7.68748
7.68761
7.65328
7.65341
7.64788
7.6479
7.59986
7.59987
8.07282
8.88266
8.04178
8.85842
8.08431
9.03514
8.03876
8.99508
10.1893
11.0169
10.1763
11.0093
10.6622
11.6728
10.6315
11.6458
11.0085
10.192
11.0141
10.1926
11.698
10.6956
11.688
10.6818
8.90838
8.11216
8.89872
8.09616
9.08867
8.14912
9.06591
8.12102
7.73332
7.73345
7.71436
7.71449
7.71778
7.7178
7.68722
7.68725
8.11259
8.90923
8.09658
8.89955
8.14924
9.08898
8.12112
9.0662
10.1935
11.0105
10.1941
11.0161
10.6963
11.6992
10.6826
11.6891
10.978
10.1715
10.9954
10.1842
11.6935
10.6989
11.6985
10.7001
8.90867
8.12479
8.91172
8.12191
9.11112
8.18249
9.10358
8.16966
7.7517
7.75184
7.74601
7.74615
7.75609
7.75613
7.74081
7.74084
8.12523
8.90954
8.12235
8.91257
8.18263
9.11147
8.16978
9.10391
10.1731
10.9801
10.1857
10.9974
10.6997
11.6947
10.7009
11.6996
10.9253
10.1285
10.9537
10.1522
11.66
10.6738
11.6797
10.6893
8.88545
8.11352
8.9
8.12224
9.1054
8.18782
9.1116
8.18863
7.74601
7.74615
7.75193
7.75206
7.76647
7.7665
7.76476
7.7648
8.11398
8.88633
8.12269
8.90088
8.18796
9.10579
8.18877
9.11197
10.13
10.9274
10.1538
10.9558
10.6748
11.6614
10.6902
11.6808
10.8516
10.0645
10.8904
10.0986
11.5997
10.6222
11.6322
10.6506
8.84084
8.08067
8.86584
8.09991
9.07397
8.16819
9.09276
8.18119
7.71867
7.71881
7.73517
7.7353
7.75218
7.75222
7.76247
7.76251
8.08113
8.84173
8.10036
8.86671
8.16834
9.07434
8.18133
9.09313
10.066
10.8537
10.1001
10.8925
10.6227
11.6004
10.6515
11.6336
10.7583
9.98112
10.8068
10.0247
11.5141
10.547
11.5584
10.586
8.77707
8.02869
8.81134
8.05721
9.02025
8.12642
9.04961
8.15003
7.67221
7.67236
7.69799
7.69813
7.71583
7.71587
7.73677
7.73681
8.02915
8.77796
8.05766
8.81222
8.12657
9.02064
8.15018
9.04997
9.98266
10.7606
10.0262
10.8088
10.5484
11.516
10.5868
11.5591
10.6482
9.88154
10.7041
9.93242
11.4125
10.4555
11.4644
10.5027
8.6966
7.95986
8.73887
7.99652
8.94755
8.06525
8.98617
8.09827
7.60883
7.60898
7.64281
7.64295
7.66
7.66005
7.69039
7.69043
7.96033
8.69751
7.99697
8.73976
8.06542
8.94796
8.09843
8.98656
9.8831
10.6503
9.93395
10.7062
10.4557
11.413
10.5036
11.466
10.5246
9.76849
10.5875
9.82609
11.2928
10.3464
11.3541
10.4022
8.60196
7.87629
8.6511
7.92009
8.85793
7.98691
8.90477
8.02827
7.53052
7.53067
7.57174
7.57189
7.58694
7.58699
7.6257
7.62575
7.87678
8.60291
7.92057
8.65202
7.98711
8.85839
8.02846
8.9052
9.77011
10.5269
9.82767
10.5897
10.3479
11.2949
10.4031
11.3547
10.3902
9.64444
10.4581
9.70751
11.1592
10.2237
11.2268
10.2862
8.49451
7.77946
8.54996
7.82975
8.75298
7.89307
8.80734
7.94201
7.43877
7.43892
7.48656
7.48671
7.49831
7.49837
7.54467
7.54473
7.77996
8.49547
7.83024
8.5509
7.89329
8.75341
7.94222
8.80775
9.64607
10.3924
9.70911
10.4602
10.2237
11.1594
10.2869
11.2282
10.242
9.50744
10.3174
9.57695
11.0086
10.085
11.0853
10.1554
8.37487
7.6703
8.43633
7.72665
8.63361
7.78487
8.69508
7.84088
7.33462
7.33477
7.3885
7.38865
7.39532
7.39538
7.44875
7.4488
7.67081
8.37585
7.72716
8.43729
7.78509
8.63414
7.8411
8.69559
9.50911
10.2445
9.5786
10.3196
10.0867
11.0109
10.1564
11.086
10.0835
9.36027
10.1636
9.43493
10.8447
9.93385
10.9275
10.0106
8.24375
7.54952
8.31093
7.61163
8.5005
7.66303
8.56883
7.7258
7.2188
7.21896
7.27844
7.27859
7.27879
7.27884
7.3389
7.33895
7.55001
8.2447
7.61212
8.31189
7.66323
8.50092
7.726
8.56929
9.3619
10.0857
9.43657
10.1658
9.93412
10.8452
10.0116
10.9294
9.91116
9.20049
9.9986
9.28138
10.6639
9.76731
10.7557
9.85163
8.10128
7.41757
8.17405
7.48519
8.35397
7.52818
8.42889
7.59735
7.09189
7.09204
7.157
7.15715
7.14939
7.14944
7.21584
7.21589
7.41806
8.10221
7.48567
8.17499
7.52835
8.35437
7.59754
8.42931
9.20207
9.91348
9.28299
10.0008
9.76868
10.6655
9.85239
10.7561
9.72862
9.03114
9.82059
9.11676
10.4702
9.58925
10.5677
9.67924
7.94826
7.27505
8.02627
7.3479
8.19498
7.38101
8.27609
7.45628
6.95442
6.95457
7.02475
7.02489
7.00779
7.00783
7.08028
7.08032
7.27552
7.94915
7.34837
8.02717
7.38115
8.19526
7.45642
8.27641
9.03265
9.73068
9.1183
9.82273
9.58946
10.4711
9.68019
10.5695
9.53387
8.85078
9.63218
8.94172
10.2619
9.39744
10.3673
9.49427
7.78504
7.12239
7.86804
7.20024
8.02385
7.22204
8.11091
7.30312
6.80684
6.80699
6.88217
6.88231
6.85454
6.85458
6.93278
6.93282
7.12286
7.78594
7.2007
7.86892
7.22219
8.0242
7.30326
8.11121
8.85232
9.5361
8.94323
9.63421
9.39855
10.2631
9.4947
10.3676
9.33031
8.66191
9.43268
8.75717
10.0423
9.19601
10.1524
9.29735
7.61219
6.95993
7.70004
7.04267
7.84159
7.05181
7.93419
7.1385
6.64944
6.64959
6.72966
6.72981
6.69005
6.69009
6.77388
6.77392
6.9604
7.61308
7.04314
7.70093
7.05197
7.84194
7.13866
7.93453
8.66344
9.33244
8.7587
9.43481
9.19651
10.0433
9.29825
10.1538
9.11443
8.46156
9.2235
8.56276
9.80859
8.98123
9.92666
9.0897
7.42893
6.7875
7.52205
6.87523
7.64729
6.87011
7.74604
6.96257
6.48225
6.48239
6.56736
6.5675
6.51435
6.51439
6.60377
6.60382
6.78796
7.42983
6.8757
7.52294
6.87028
7.64768
6.96273
7.74641
8.4631
9.11661
8.56429
9.22559
8.98208
9.80984
9.09035
9.92751
8.88613
8.25015
9.00128
8.35681
9.55891
8.7524
9.685
8.86789
7.23542
6.60527
7.3336
6.69785
7.44073
6.67705
7.54555
6.77513
6.30548
6.30562
6.39532
6.39546
6.32765
6.32769
6.42252
6.42257
6.60573
7.23631
6.69831
7.33449
6.67721
7.44112
6.77529
7.54594
8.25168
8.88829
8.35834
9.00339
8.75327
9.56027
8.86876
9.68624
8.64737
8.02913
8.76747
8.1404
9.29579
8.51165
9.42818
8.63282
7.03252
6.41384
7.13526
6.51093
7.223
6.47329
7.33325
6.57662
6.11959
6.11973
6.21392
6.21406
6.13049
6.13053
6.23051
6.23056
6.4143
7.0334
6.51138
7.13614
6.47346
7.22339
6.57678
7.33364
8.03065
8.6495
8.14191
8.76956
8.5125
9.29712
8.63368
9.42943
8.40008
7.79988
8.52425
7.91512
9.02168
8.26075
9.15936
8.38684
6.82113
6.21381
6.92801
6.31513
6.99519
6.25957
7.11037
6.3678
5.92507
5.9252
6.02366
6.0238
5.92343
5.92347
6.02833
6.02838
6.21426
6.82199
6.31558
6.92888
6.25972
6.99557
6.36795
7.11075
7.80137
8.40217
7.91662
8.52631
8.2616
9.02299
8.38769
9.16059
8.14552
7.56342
8.27322
7.68217
8.73818
8.00066
8.88039
8.13127
6.60187
6.00559
6.71263
6.11096
6.75796
6.03633
6.87779
6.14927
5.72216
5.7223
5.82491
5.82505
5.70683
5.70687
5.81647
5.81651
6.00603
6.60272
6.1114
6.71348
6.03648
6.75833
6.14942
6.87816
7.56489
8.14757
7.68364
8.27524
8.00149
8.73946
8.1321
8.8816
7.88459
7.32028
8.01539
7.44234
8.4464
7.73216
8.59268
7.86691
6.37499
5.78923
6.48956
5.89868
6.51164
5.80369
6.636
5.92134
5.51088
5.51101
5.61784
5.61797
5.48073
5.48076
5.59514
5.59518
5.78967
6.37583
5.89912
6.49039
5.80383
6.512
5.92148
6.63636
7.32172
7.8866
7.44379
8.01737
7.73296
8.44765
7.86772
8.59386
7.61769
7.07048
7.75148
7.19591
8.14672
7.45529
8.29696
7.59428
6.14019
5.56426
6.25879
5.67812
6.25595
5.56122
6.38507
5.68387
5.29069
5.29082
5.4022
5.40233
5.24462
5.24466
5.36413
5.36416
5.56468
6.14101
5.67854
6.25961
5.56137
6.2563
5.68401
6.38542
7.07189
7.61966
7.19733
7.75341
7.45608
8.14793
7.59508
8.29811
7.34424
6.81314
7.48148
6.94254
7.8385
7.16906
7.9932
7.31296
5.89631
5.32936
6.01966
5.44839
5.98968
5.30768
6.12433
5.4361
5.06032
5.06045
5.17713
5.17726
4.99726
4.99729
5.12261
5.12264
5.32977
5.89711
5.44881
6.02047
5.30782
5.99002
5.43623
6.12467
6.81452
7.34615
6.94393
7.48336
7.16983
7.83966
7.31374
7.99431
7.06164
6.54541
7.20395
6.68053
7.51875
6.87023
7.67981
7.02105
5.64046
5.08196
5.7703
5.20767
5.7097
5.04028
5.85177
5.17609
4.81741
4.81753
4.94085
4.94097
4.73614
4.73617
4.86876
4.86879
5.08236
5.64124
5.20807
5.77109
5.04041
5.71002
5.17622
5.85209
6.54676
7.06349
6.68189
7.20578
6.87097
7.51988
7.0218
7.68089
6.76381
6.26022
6.91477
6.4054
7.17972
6.55022
7.35185
6.7133
5.36626
4.81729
5.50642
4.95238
5.40865
4.75365
5.5626
4.89995
4.55832
4.55844
4.69035
4.69047
4.45724
4.45727
4.59933
4.59936
4.81767
5.36702
4.95277
5.50718
4.75378
5.40896
4.90007
5.56292
6.26153
6.76562
6.40673
6.91656
6.55094
7.18082
6.71403
7.35289
6.44202
5.93721
6.60577
6.10555
6.80636
6.18256
6.99777
6.37509
5.05874
4.52808
5.21831
4.67641
5.06818
4.43881
5.24529
4.60052
4.27998
4.28009
4.42175
4.42186
4.15647
4.1565
4.30979
4.30982
4.52845
5.05946
4.67679
5.21904
4.43893
5.06848
4.60064
5.2456
5.93848
6.44378
6.10684
6.60751
6.18327
6.80742
6.3758
6.99878
6.10905
5.48279
6.27477
5.74105
6.39703
5.64622
6.60492
5.95402
4.68634
4.21238
4.88308
4.3728
4.64688
4.09035
4.87095
4.26818
3.98949
3.98959
4.13504
4.13514
3.83922
3.83925
3.9987
3.99872
4.21272
4.68701
4.37315
4.88377
4.09045
4.64716
4.26829
4.87124
5.48399
6.11079
5.74229
6.27647
5.64689
6.39811
5.95471
6.60593
6.39205
5.40346
5.0354
4.3008
5.96819
4.99174
4.53849
3.84632
3.63454
2.63076
2.66222
1.78976
3.20387
2.21654
2.23061
1.40341
2.18444
2.18413
1.42201
1.42166
1.78667
1.78637
1.06591
1.0656
2.6299
3.6334
1.78874
2.66069
2.21568
3.20264
1.40249
2.22915
5.40266
6.39162
4.29929
5.03393
4.99068
5.9673
3.84474
4.53676
7.98679
6.94036
7.3269
6.2778
7.65092
6.58091
6.9515
5.89344
5.17747
4.12325
4.47526
3.42124
4.75375
3.68215
4.04566
2.98875
3.63443
3.63429
2.94067
2.94044
3.19228
3.19209
2.51474
2.51449
4.12292
5.17726
3.42063
4.47458
3.68165
4.75322
2.98805
4.04477
6.94082
7.98779
6.27764
7.32715
6.58087
7.65125
5.89289
6.95117
8.86382
7.88029
8.47918
7.46025
8.60199
7.57551
8.18049
7.12715
6.25796
5.26082
5.76441
4.73398
5.8616
4.826
5.35195
4.29254
4.78908
4.7891
4.25056
4.25049
4.34198
4.34191
3.80191
3.80178
5.26095
6.25847
4.73388
5.76456
4.82588
5.86168
4.29224
5.35172
7.88164
8.86579
7.46115
8.48062
7.57626
8.60322
7.1275
8.18121
9.41907
8.50961
9.1688
8.22317
9.22874
8.26373
8.94315
7.94762
7.02948
6.10517
6.67494
5.71461
6.67377
5.69654
6.29779
5.29111
5.66295
5.66307
5.25736
5.25742
5.2342
5.23423
4.8173
4.81728
6.10561
7.03047
5.7149
6.67569
5.6967
6.67429
5.29113
6.29809
8.51149
9.42161
8.22478
9.17102
8.265
9.23055
7.94862
8.9446
9.79775
8.95284
9.62447
8.74903
9.67372
8.76458
9.46804
8.53231
7.59201
6.73357
7.33234
6.44247
7.28138
6.35987
6.99893
6.05062
6.32001
6.3202
6.01505
6.01521
5.92063
5.92073
5.60007
5.60013
6.7342
7.59326
6.443
7.33344
6.36022
7.28218
6.05087
6.99958
8.955
9.80056
8.75104
9.6271
8.76616
9.67587
8.53372
9.46994
10.0651
9.27272
9.94193
9.12492
10.0004
9.13748
9.84839
8.96377
8.0077
7.20421
7.81535
6.98593
7.74135
6.86758
7.52708
6.63068
6.81534
6.81556
6.5853
6.58551
6.44905
6.44919
6.20222
6.20233
7.20494
8.00909
6.98661
7.81666
6.86805
7.74231
6.63108
7.52794
9.275
10.0681
9.12712
9.94475
9.13923
10.0028
8.96541
9.85054
10.2553
9.50486
10.1677
9.39763
10.2421
9.41671
10.1296
9.28662
8.31644
7.5579
8.17363
7.39392
8.09106
7.25709
7.92818
7.0754
7.18961
7.18985
7.01586
7.0161
6.85625
6.85642
6.66613
6.66628
7.55869
8.3179
7.39467
8.17503
7.25763
8.09212
7.07589
7.92916
9.50717
10.2582
9.3999
10.1705
9.41854
10.2445
9.28838
10.1319
10.3878
9.67118
10.3271
9.59465
10.419
9.62406
10.3369
9.52765
8.54458
7.82288
8.43936
7.70031
8.35593
7.55507
8.23282
7.41632
7.47164
7.4719
7.34098
7.34123
7.16919
7.16937
7.02332
7.02349
7.8237
8.54606
7.7011
8.44081
7.55565
8.35703
7.41687
8.23387
9.67348
10.3907
9.59694
10.3299
9.62592
10.4214
9.52947
10.3392
10.4753
9.78629
10.4358
9.73386
10.5444
9.77454
10.4866
9.70499
8.7103
8.01909
8.6344
7.92882
8.55399
7.78092
8.46238
7.67618
7.68209
7.68235
7.58505
7.58531
7.40773
7.40792
7.29694
7.29712
8.01991
8.71177
7.92963
8.63586
7.78152
8.55512
7.67676
8.46348
9.78857
10.4782
9.73612
10.4386
9.77642
10.5468
9.70684
10.4889
10.5266
9.86036
10.5044
9.82743
10.6278
9.87884
10.5901
9.8313
8.82647
8.16084
8.77401
8.0963
8.69833
7.94889
8.63222
7.87158
7.83586
7.83612
7.76559
7.76585
7.58658
7.58677
7.50407
7.50426
8.16167
8.82794
8.09711
8.77547
7.94951
8.69948
7.87218
8.63333
9.86261
10.5295
9.82968
10.5072
9.88072
10.6303
9.83316
10.5924
10.5481
9.90091
10.5401
9.88397
10.6765
9.9451
10.6554
9.91573
8.90254
8.25866
8.86913
8.21495
8.79876
8.06968
8.75355
8.0148
7.94395
7.94422
7.89533
7.8956
7.71681
7.71701
7.65741
7.6576
8.25949
8.904
8.21577
8.87058
8.07031
8.79993
8.01542
8.75468
9.90313
10.551
9.88619
10.5429
9.94699
10.6789
9.91758
10.6577
10.5443
9.91328
10.5485
9.90989
10.6954
9.97931
10.6887
9.96534
8.94547
8.32039
8.92789
8.29388
8.86266
8.1514
8.83493
8.11518
8.01458
8.01485
7.98381
7.98407
7.80684
7.80704
7.76662
7.76682
8.32121
8.94692
8.2947
8.92934
8.15204
8.86384
8.11581
8.83608
9.91549
10.5471
9.91209
10.5513
9.98119
10.6979
9.96721
10.691
10.519
9.90203
10.5335
9.90996
10.6893
9.98644
10.6945
9.98545
8.96068
8.35202
8.95637
8.3399
8.89586
8.20037
8.88284
8.17983
8.05404
8.05431
8.03817
8.03843
7.86321
7.86341
7.8391
7.8393
8.35285
8.96213
8.34072
8.95781
8.20102
8.89705
8.18047
8.884
9.90423
10.5218
9.91215
10.5363
9.98834
10.6918
9.98732
10.6969
10.4745
9.87002
10.4984
9.88803
10.6609
9.96993
10.6771
9.98049
8.9522
8.3581
8.9593
8.35828
8.90266
8.2214
8.90241
8.21432
8.0671
8.06736
8.06391
8.06418
7.89093
7.89114
7.88061
7.88081
8.35892
8.95365
8.3591
8.96074
8.22205
8.90385
8.21496
8.90358
9.87222
10.4773
9.89021
10.5012
9.97184
10.6634
9.98237
10.6795
10.4132
9.81984
10.4453
9.84665
10.6127
9.93257
10.6384
9.95318
8.92308
8.34222
8.94018
8.35301
8.88654
8.21828
8.89739
8.22283
8.05755
8.05782
8.06524
8.06551
7.89393
7.89414
7.89552
7.89573
8.34305
8.92454
8.35384
8.94162
8.21895
8.88775
8.22348