/*--------------------------------*- C++ -*----------------------------------*\
  =========                 |
  \\      /  F ield         | OpenFOAM: The Open Source CFD Toolbox
   \\    /   O peration     | Website:  https://openfoam.org
    \\  /    A nd           | Version:  9
     \\/     M anipulation  |
\*---------------------------------------------------------------------------*/
FoamFile
{
    format      ascii;
    class       volScalarField;
    location    "2.9";
    object      p;
}
// * * * * * * * * * * * * * * * * * * * * * * * * * * * * * * * * * * * * * //

dimensions      [0 2 -2 0 0 0 0];

internalField   nonuniform List<scalar> 
36360
(
20.1804
20.0487
20.1537
20.0619
20.0715
20.125
20.076
20.1111
20.0942
20.1017
20.0976
20.1018
20.0979
20.0975
20.0957
20.0968
20.1023
20.1023
20.1019
20.1019
20.0978
20.0978
20.0973
20.0973
20.1017
20.0942
20.1018
20.0976
20.0975
20.0979
20.0968
20.0957
20.0487
20.1804
20.0619
20.1537
20.125
20.0716
20.1111
20.076
20.137
20.0809
20.1586
20.0686
20.0129
20.1802
20.0465
20.1548
20.1013
20.0999
20.0971
20.1011
20.1105
20.0969
20.1036
20.0975
20.0996
20.0996
20.1016
20.1016
20.0956
20.0956
20.0973
20.0973
20.0999
20.1013
20.1011
20.0971
20.0969
20.1105
20.0975
20.1036
20.0809
20.137
20.0686
20.1586
20.1802
20.013
20.1548
20.0465
20.1037
20.0938
20.1193
20.0888
19.9562
20.2171
19.9827
20.2009
20.1131
20.101
20.1072
20.0999
20.1277
20.0987
20.1189
20.0973
20.0964
20.0965
20.0978
20.0978
20.0936
20.0936
20.0943
20.0943
20.101
20.1131
20.0999
20.1072
20.0988
20.1278
20.0973
20.1189
20.0938
20.1038
20.0888
20.1193
20.2171
19.9563
20.2009
19.9827
20.078
20.0979
20.09
20.0967
19.9133
20.2385
19.9332
20.2293
20.1244
20.1054
20.119
20.103
20.1439
20.1038
20.1362
20.101
20.096
20.096
20.0959
20.0959
20.0939
20.0939
20.0935
20.0935
20.1054
20.1244
20.103
20.119
20.1038
20.1439
20.101
20.1362
20.0979
20.078
20.0967
20.09
20.2385
19.9133
20.2293
19.9333
20.0585
20.0973
20.0676
20.098
19.8812
20.2502
19.8961
20.2452
20.1333
20.1109
20.1292
20.1081
20.1566
20.11
20.1507
20.1068
20.0979
20.0979
20.0967
20.0967
20.0961
20.0961
20.0948
20.0948
20.1109
20.1333
20.1081
20.1292
20.11
20.1566
20.1068
20.1507
20.0973
20.0586
20.098
20.0676
20.2502
19.8813
20.2452
19.8962
20.0437
20.0947
20.0506
20.0962
19.857
20.2564
19.8683
20.2538
20.1396
20.1164
20.1367
20.1137
20.1657
20.1161
20.1615
20.1131
20.1011
20.1011
20.0994
20.0994
20.0994
20.0994
20.0976
20.0976
20.1164
20.1396
20.1137
20.1367
20.116
20.1657
20.1131
20.1615
20.0947
20.0437
20.0962
20.0507
20.2564
19.8571
20.2538
19.8684
20.0322
20.0915
20.0376
20.0931
19.8386
20.2596
19.8472
20.2583
20.1438
20.1212
20.1419
20.1189
20.172
20.1214
20.1692
20.1189
20.1048
20.1048
20.1029
20.1029
20.1031
20.1031
20.1012
20.1012
20.1212
20.1438
20.1189
20.1419
20.1214
20.172
20.1188
20.1691
20.0915
20.0322
20.0931
20.0376
20.2596
19.8386
20.2583
19.8473
20.0231
20.0881
20.0274
20.0898
19.8242
20.261
19.8309
20.2605
20.1466
20.1252
20.1453
20.1233
20.1764
20.1259
20.1744
20.1238
20.1084
20.1084
20.1066
20.1066
20.1067
20.1067
20.1049
20.1049
20.1252
20.1465
20.1233
20.1453
20.1259
20.1763
20.1238
20.1744
20.0881
20.0231
20.0898
20.0274
20.261
19.8242
20.2605
19.831
20.0158
20.0848
20.0192
20.0864
19.8129
20.2614
19.8182
20.2613
20.1481
20.1284
20.1475
20.1269
20.1792
20.1294
20.1779
20.1278
20.1116
20.1116
20.1101
20.1101
20.11
20.11
20.1084
20.1084
20.1284
20.1481
20.1269
20.1475
20.1294
20.1792
20.1278
20.1779
20.0848
20.0158
20.0864
20.0192
20.2614
19.8128
20.2613
19.8182
20.0097
20.0817
20.0126
20.0832
19.804
20.261
19.8082
20.2612
20.1489
20.1308
20.1486
20.1297
20.1809
20.1321
20.1802
20.1308
20.1143
20.1143
20.113
20.113
20.1127
20.1127
20.1114
20.1114
20.1308
20.1489
20.1297
20.1486
20.1321
20.181
20.1308
20.1802
20.0817
20.0098
20.0832
20.0126
20.261
19.8036
20.2612
19.8081
20.0048
20.0789
20.0071
20.0803
19.7964
20.2603
19.8
20.2607
20.1491
20.1326
20.1491
20.1318
20.1819
20.1339
20.1815
20.1331
20.1164
20.1164
20.1154
20.1154
20.1148
20.1148
20.1138
20.1138
20.1326
20.1491
20.1318
20.1491
20.134
20.182
20.1331
20.1816
20.0789
20.0047
20.0803
20.0071
20.2603
19.7961
20.2608
19.7994
20.0005
20.0762
20.0025
20.0775
19.7905
20.2591
19.7934
20.2597
20.1489
20.1336
20.1491
20.1332
20.1823
20.1351
20.1822
20.1346
20.1178
20.1178
20.1171
20.1171
20.1163
20.1163
20.1156
20.1156
20.1336
20.1489
20.1332
20.149
20.1351
20.1822
20.1346
20.1821
20.0762
20.0005
20.0775
20.0025
20.2589
19.7908
20.2595
19.7935
19.9968
20.0737
19.9986
20.0749
19.7862
20.2574
19.7884
20.2582
20.1483
20.1341
20.1486
20.1339
20.1819
20.1356
20.1821
20.1354
20.1186
20.1186
20.1183
20.1183
20.1171
20.1171
20.1168
20.1168
20.1341
20.1483
20.1339
20.1487
20.1357
20.1821
20.1355
20.1822
20.0737
19.9967
20.075
19.9985
20.2576
19.7854
20.2584
19.7877
19.9935
20.0714
19.9951
20.0726
19.782
20.2558
19.7836
20.2568
20.1474
20.134
20.1479
20.1341
20.1813
20.1356
20.1818
20.1357
20.1189
20.1189
20.1188
20.1188
20.1174
20.1174
20.1173
20.1173
20.134
20.1474
20.1341
20.1479
20.1356
20.1813
20.1357
20.1817
20.0714
19.9935
20.0726
19.995
20.2558
19.7815
20.2567
19.7834
19.9905
20.0691
19.9919
20.0702
19.779
20.2537
19.7808
20.2546
20.1462
20.1334
20.1468
20.1338
20.1801
20.135
20.1807
20.1353
20.1186
20.1186
20.1188
20.1188
20.1171
20.1171
20.1173
20.1173
20.1334
20.1462
20.1338
20.1468
20.135
20.1802
20.1354
20.1808
20.0691
19.9905
20.0703
19.9919
20.2538
19.7783
20.2549
19.7797
19.9877
20.0669
19.9891
20.068
19.7766
20.2512
19.7778
20.2525
20.1447
20.1324
20.1455
20.133
20.1785
20.1339
20.1793
20.1345
20.1179
20.1179
20.1183
20.1183
20.1163
20.1163
20.1167
20.1168
20.1324
20.1447
20.133
20.1455
20.1339
20.1785
20.1345
20.1794
20.0669
19.9878
20.068
19.9891
20.2514
19.7758
20.2526
19.7771
19.9851
20.0649
19.9864
20.0659
19.7732
20.2491
19.7749
20.2501
20.1431
20.131
20.1439
20.1317
20.1768
20.1325
20.1777
20.1333
20.1168
20.1168
20.1174
20.1174
20.1151
20.1151
20.1158
20.1158
20.131
20.1431
20.1317
20.1439
20.1325
20.1767
20.1332
20.1776
20.0649
19.9851
20.0659
19.9864
20.2489
19.7732
20.2501
19.7746
19.9827
20.0626
19.9839
20.0637
19.7714
20.2462
19.7722
20.2477
20.1412
20.1293
20.1422
20.1302
20.1745
20.1306
20.1757
20.1316
20.1153
20.1153
20.1161
20.1161
20.1134
20.1134
20.1143
20.1143
20.1292
20.1412
20.1302
20.1422
20.1306
20.1744
20.1316
20.1756
20.0626
19.9827
20.0638
19.9838
20.2461
19.7715
20.2474
19.7724
19.9804
20.0605
19.9815
20.0615
19.7697
20.2432
19.7707
20.2446
20.1392
20.1273
20.1402
20.1283
20.1719
20.1284
20.1732
20.1295
20.1134
20.1134
20.1144
20.1144
20.1114
20.1114
20.1124
20.1124
20.1273
20.1392
20.1283
20.1402
20.1283
20.1719
20.1295
20.1732
20.0607
19.9804
20.0616
19.9816
20.2432
19.7694
20.2448
19.7701
19.9781
20.0585
19.9792
20.0595
19.7689
20.2398
19.7691
20.2416
20.1371
20.125
20.1381
20.1262
20.169
20.1257
20.1705
20.1271
20.1113
20.1113
20.1124
20.1124
20.1089
20.1089
20.1102
20.1102
20.125
20.137
20.1261
20.1381
20.1257
20.169
20.1271
20.1705
20.0584
19.9783
20.0596
19.9792
20.2399
19.7689
20.2415
19.7692
19.9763
20.0564
19.9772
20.0575
19.7673
20.2367
19.7681
20.2383
20.1348
20.1226
20.136
20.1238
20.166
20.1229
20.1675
20.1243
20.109
20.109
20.1102
20.1102
20.1062
20.1062
20.1076
20.1076
20.1226
20.1349
20.1238
20.1359
20.1229
20.166
20.1243
20.1675
20.0565
19.9762
20.0574
19.9773
20.2366
19.7675
20.2382
19.7683
19.9743
20.0545
19.9752
20.0554
19.7656
20.2335
19.7666
20.2351
20.1327
20.1201
20.1338
20.1214
20.1629
20.1199
20.1645
20.1214
20.1066
20.1066
20.1078
20.1078
20.1033
20.1033
20.1048
20.1048
20.1201
20.1328
20.1214
20.1338
20.1199
20.1629
20.1214
20.1645
20.0547
19.9743
20.0557
19.9751
20.2334
19.7661
20.2351
19.7666
19.9724
20.053
19.9733
20.0538
19.7649
20.2299
19.7654
20.2317
20.1307
20.1176
20.1317
20.1189
20.1596
20.1167
20.1613
20.1183
20.1041
20.1041
20.1053
20.1053
20.1002
20.1002
20.1017
20.1017
20.1176
20.1307
20.1189
20.1317
20.1167
20.1595
20.1183
20.1612
20.053
19.9725
20.0538
19.9734
20.2297
19.7656
20.2316
19.7659
19.9709
20.0515
19.9716
20.0523
19.7645
20.2265
19.7644
20.2283
20.1288
20.1151
20.1298
20.1164
20.1563
20.1134
20.158
20.1151
20.1016
20.1016
20.1028
20.1028
20.097
20.097
20.0986
20.0986
20.1151
20.1288
20.1163
20.1298
20.1134
20.1563
20.115
20.1579
20.0516
19.9711
20.0523
19.9718
20.2265
19.7645
20.2281
19.7649
19.9702
20.0501
19.9705
20.0508
19.7647
20.223
19.7646
20.2247
20.1264
20.1127
20.1277
20.1139
20.1528
20.1101
20.1546
20.1118
20.0992
20.0992
20.1004
20.1004
20.0938
20.0938
20.0954
20.0954
20.1127
20.1265
20.1139
20.1277
20.1101
20.1528
20.1118
20.1546
20.0503
19.9699
20.0509
19.9704
20.2231
19.7647
20.2248
19.7646
19.9692
20.0494
19.9696
20.0497
19.7648
20.2199
19.7647
20.2215
20.1242
20.1104
20.1252
20.1115
20.1494
20.1069
20.1511
20.1085
20.097
20.0969
20.098
20.098
20.0907
20.0907
20.0922
20.0922
20.1104
20.1241
20.1115
20.1252
20.1069
20.1494
20.1085
20.1511
20.0492
19.9695
20.0497
19.9696
20.2198
19.7652
20.2214
19.7649
19.9691
20.0489
19.969
20.0491
19.7659
20.2169
19.7653
20.2184
20.1224
20.1084
20.1232
20.1094
20.1462
20.1038
20.1478
20.1053
20.095
20.095
20.0959
20.0959
20.0877
20.0877
20.0892
20.0892
20.1084
20.1224
20.1094
20.1232
20.1038
20.1462
20.1053
20.1478
20.0489
19.9691
20.049
19.9692
20.2169
19.766
20.2183
19.7655
19.9694
20.0489
19.9692
20.0488
19.7676
20.2142
19.7666
20.2155
20.1209
20.1068
20.1216
20.1075
20.1433
20.101
20.1447
20.1024
20.0934
20.0934
20.0941
20.0941
20.0851
20.0851
20.0864
20.0864
20.1068
20.1209
20.1075
20.1216
20.101
20.1432
20.1024
20.1447
20.0489
19.9695
20.0489
19.9691
20.2142
19.7676
20.2155
19.7667
19.9704
20.0495
19.9698
20.0491
19.77
20.2117
19.7687
20.2129
20.12
20.1055
20.1204
20.1061
20.1406
20.0985
20.1419
20.0997
20.0922
20.0922
20.0928
20.0928
20.0828
20.0828
20.0839
20.0839
20.1055
20.12
20.1061
20.1204
20.0985
20.1406
20.0997
20.1419
20.0495
19.9704
20.0492
19.9698
20.2117
19.77
20.2129
19.7687
19.9722
20.0507
19.9712
20.05
19.7733
20.2097
19.7715
20.2106
20.1195
20.1048
20.1197
20.1051
20.1383
20.0965
20.1394
20.0975
20.0916
20.0916
20.0919
20.0919
20.0811
20.0811
20.0819
20.0819
20.1047
20.1195
20.1051
20.1197
20.0965
20.1383
20.0974
20.1394
20.0507
19.9722
20.05
19.9712
20.2097
19.7734
20.2106
19.7716
19.9747
20.0525
19.9733
20.0515
19.7776
20.2081
19.7753
20.2088
20.1196
20.1045
20.1195
20.1046
20.1365
20.095
20.1374
20.0957
20.0916
20.0916
20.0915
20.0915
20.0799
20.0799
20.0804
20.0804
20.1045
20.1196
20.1046
20.1195
20.095
20.1365
20.0957
20.1374
20.0525
19.9747
20.0515
19.9733
20.2081
19.7777
20.2088
19.7754
19.9781
20.0549
19.9763
20.0536
19.783
20.207
19.7802
20.2075
20.1201
20.1048
20.1198
20.1046
20.1351
20.0941
20.1358
20.0944
20.0923
20.0923
20.0918
20.0918
20.0795
20.0795
20.0796
20.0796
20.1048
20.1201
20.1046
20.1198
20.094
20.1351
20.0944
20.1358
20.0549
19.9781
20.0536
19.9763
20.207
19.783
20.2075
19.7802
19.9823
20.0579
19.9801
20.0563
19.7896
20.2064
19.7861
20.2066
20.1211
20.1057
20.1205
20.1052
20.1343
20.0938
20.1346
20.0938
20.0936
20.0936
20.0928
20.0928
20.0799
20.0799
20.0796
20.0796
20.1057
20.121
20.1052
20.1205
20.0938
20.1343
20.0938
20.1346
20.0579
19.9824
20.0563
19.9801
20.2064
19.7896
20.2066
19.7862
19.9877
20.0615
19.9849
20.0596
19.7976
20.2062
19.7934
20.2063
20.1225
20.1073
20.1217
20.1064
20.1339
20.0943
20.134
20.094
20.0957
20.0957
20.0946
20.0946
20.0811
20.0811
20.0804
20.0804
20.1073
20.1225
20.1064
20.1217
20.0943
20.1339
20.0939
20.134
20.0615
19.9877
20.0596
19.9849
20.2062
19.7976
20.2063
19.7935
19.994
20.0655
19.9907
20.0634
19.8071
20.2064
19.8022
20.2063
20.1242
20.1094
20.1233
20.1083
20.134
20.0956
20.1339
20.0948
20.0986
20.0986
20.0971
20.0971
20.0833
20.0833
20.0821
20.0821
20.1094
20.1242
20.1082
20.1233
20.0956
20.1339
20.0948
20.1339
20.0655
19.994
20.0634
19.9907
20.2064
19.8072
20.2063
19.8022
20.0015
20.0699
19.9976
20.0676
19.8186
20.2066
19.8126
20.2065
20.1263
20.1121
20.1252
20.1107
20.1344
20.0976
20.1341
20.0965
20.1022
20.1022
20.1003
20.1003
20.0865
20.0865
20.0848
20.0848
20.1121
20.1262
20.1107
20.1252
20.0976
20.1344
20.0965
20.1341
20.0699
20.0015
20.0676
19.9976
20.2066
19.8186
20.2065
19.8126
20.0099
20.0746
20.0056
20.0722
19.8325
20.2064
19.8252
20.2066
20.1284
20.1153
20.1273
20.1136
20.135
20.1005
20.1347
20.099
20.1065
20.1065
20.1043
20.1043
20.0906
20.0906
20.0884
20.0884
20.1153
20.1284
20.1136
20.1273
20.1005
20.135
20.099
20.1347
20.0746
20.0099
20.0722
20.0056
20.2064
19.8326
20.2066
19.8252
20.0171
20.0809
20.014
20.0772
19.8499
20.2045
19.8407
20.2057
20.1308
20.1193
20.1295
20.1172
20.1358
20.1042
20.1354
20.1022
20.1117
20.1117
20.109
20.109
20.0956
20.0956
20.093
20.093
20.1192
20.1308
20.1172
20.1295
20.1042
20.1358
20.1022
20.1354
20.0809
20.0171
20.0772
20.014
20.2044
19.85
20.2057
19.8408
20.0231
20.0879
20.0184
20.0862
19.8717
20.1989
19.8601
20.2023
20.1346
20.1242
20.1325
20.1216
20.137
20.109
20.1363
20.1065
20.1176
20.1176
20.1145
20.1145
20.1016
20.1016
20.0985
20.0985
20.1242
20.1346
20.1216
20.1325
20.109
20.137
20.1065
20.1363
20.0879
20.023
20.0862
20.0184
20.1989
19.8717
20.2023
19.8602
20.2504
20.0124
20.1922
20.0374
20.2288
20.0155
20.1764
20.0417
20.0646
20.0938
20.0801
20.098
20.0756
20.0974
20.0863
20.0982
20.1005
20.1005
20.1005
20.1005
20.1
20.1
20.0986
20.0986
20.0939
20.0646
20.098
20.0801
20.0974
20.0756
20.0982
20.0863
20.0124
20.2503
20.0374
20.1922
20.0156
20.2287
20.0417
20.1764
20.2177
20.0557
20.2298
20.0419
20.2029
20.0469
20.2149
20.0367
20.066
20.0869
20.0653
20.09
20.0761
20.0938
20.0756
20.0959
20.0968
20.0968
20.0993
20.0993
20.0987
20.0987
20.1001
20.1001
20.0869
20.066
20.0901
20.0654
20.0938
20.0761
20.0959
20.0756
20.0557
20.2177
20.0419
20.2298
20.0469
20.2029
20.0367
20.2149
20.2074
20.0622
20.2118
20.0609
20.1875
20.0518
20.1947
20.0509
20.0696
20.0855
20.0677
20.0857
20.0819
20.094
20.0786
20.0935
20.093
20.093
20.0946
20.0946
20.0958
20.0958
20.0971
20.0971
20.0855
20.0696
20.0857
20.0677
20.094
20.082
20.0935
20.0786
20.0622
20.2073
20.0609
20.2117
20.0518
20.1875
20.051
20.1947
20.2009
20.0598
20.2038
20.0615
20.1756
20.0489
20.1812
20.0508
20.0721
20.0867
20.0711
20.0859
20.0878
20.0966
20.0851
20.0951
20.0919
20.0919
20.0921
20.0921
20.0952
20.0952
20.0951
20.0951
20.0867
20.0721
20.0859
20.0711
20.0966
20.0878
20.0951
20.0851
20.0598
20.2008
20.0616
20.2038
20.0489
20.1756
20.0509
20.1812
20.1962
20.055
20.1984
20.0575
20.1666
20.0435
20.1708
20.0463
20.073
20.0889
20.0727
20.0878
20.0916
20.1004
20.09
20.0984
20.0932
20.0932
20.0923
20.0923
20.0968
20.0968
20.0958
20.0958
20.0889
20.073
20.0878
20.0727
20.1004
20.0916
20.0984
20.09
20.055
20.1961
20.0576
20.1983
20.0435
20.1666
20.0463
20.1708
20.1926
20.0497
20.1943
20.0523
20.1598
20.0376
20.163
20.0405
20.0728
20.0913
20.073
20.0901
20.0936
20.1041
20.0928
20.1022
20.0957
20.0957
20.0943
20.0943
20.0998
20.0998
20.0982
20.0982
20.0913
20.0728
20.0901
20.073
20.1041
20.0936
20.1022
20.0928
20.0497
20.1925
20.0524
20.1942
20.0376
20.1598
20.0405
20.163
20.1897
20.0447
20.191
20.0471
20.1544
20.0321
20.157
20.0348
20.072
20.0934
20.0724
20.0924
20.0941
20.1076
20.094
20.1059
20.0988
20.0988
20.0972
20.0972
20.1033
20.1033
20.1015
20.1015
20.0934
20.072
20.0924
20.0724
20.1076
20.0941
20.1059
20.094
20.0447
20.1896
20.0472
20.191
20.0321
20.1544
20.0348
20.1569
20.1872
20.0401
20.1884
20.0423
20.1501
20.0271
20.1522
20.0295
20.0708
20.0952
20.0714
20.0944
20.0939
20.1105
20.0941
20.1091
20.1017
20.1017
20.1003
20.1003
20.1067
20.1067
20.105
20.105
20.0952
20.0708
20.0944
20.0714
20.1105
20.0939
20.1091
20.0941
20.0401
20.1872
20.0423
20.1884
20.0271
20.1501
20.0296
20.1522
20.1852
20.0359
20.1862
20.0379
20.1466
20.0226
20.1483
20.0248
20.0695
20.0966
20.0701
20.0959
20.0933
20.1128
20.0936
20.1117
20.1044
20.1044
20.1031
20.1031
20.1098
20.1098
20.1083
20.1083
20.0966
20.0695
20.0959
20.0702
20.1128
20.0933
20.1117
20.0936
20.0359
20.1851
20.0379
20.1862
20.0226
20.1466
20.0248
20.1483
20.1833
20.0321
20.1842
20.0339
20.1435
20.0186
20.145
20.0205
20.0681
20.0975
20.0688
20.0971
20.0924
20.1146
20.0929
20.1138
20.1065
20.1065
20.1055
20.1055
20.1123
20.1123
20.1111
20.1111
20.0975
20.0681
20.0971
20.0688
20.1146
20.0924
20.1138
20.0929
20.0321
20.1832
20.0339
20.1842
20.0186
20.1435
20.0205
20.145
20.1815
20.0288
20.1824
20.0304
20.1407
20.0151
20.1421
20.0168
20.0667
20.0981
20.0674
20.0979
20.0914
20.1158
20.0919
20.1153
20.1082
20.1082
20.1074
20.1074
20.1142
20.1142
20.1133
20.1133
20.0981
20.0667
20.0979
20.0674
20.1158
20.0914
20.1153
20.0919
20.0288
20.1815
20.0304
20.1823
20.015
20.1408
20.0167
20.1421
20.1798
20.0257
20.1806
20.0272
20.1383
20.0118
20.1394
20.0134
20.0652
20.0983
20.0659
20.0982
20.0902
20.1165
20.0909
20.1162
20.1093
20.1093
20.1088
20.1088
20.1155
20.1155
20.1149
20.1149
20.0983
20.0652
20.0982
20.0659
20.1165
20.0902
20.1162
20.0908
20.0257
20.1798
20.0272
20.1806
20.0118
20.1382
20.0134
20.1394
20.1781
20.0229
20.179
20.0243
20.136
20.0089
20.1371
20.0103
20.0637
20.0981
20.0644
20.0982
20.0889
20.1167
20.0896
20.1166
20.1099
20.1099
20.1097
20.1097
20.1163
20.1163
20.116
20.116
20.0981
20.0636
20.0982
20.0644
20.1167
20.0889
20.1166
20.0896
20.0229
20.1781
20.0242
20.179
20.0088
20.1361
20.0103
20.1372
20.1766
20.0202
20.1774
20.0215
20.134
20.006
20.135
20.0074
20.0621
20.0977
20.0629
20.0979
20.0875
20.1164
20.0882
20.1166
20.1101
20.1101
20.1101
20.1101
20.1166
20.1166
20.1165
20.1165
20.0977
20.0621
20.098
20.0629
20.1165
20.0875
20.1166
20.0882
20.0202
20.1765
20.0215
20.1774
20.0061
20.134
20.0074
20.135
20.1749
20.0178
20.1758
20.019
20.132
20.0035
20.133
20.0047
20.0605
20.097
20.0613
20.0974
20.0859
20.1159
20.0867
20.1162
20.1099
20.1099
20.11
20.11
20.1164
20.1164
20.1165
20.1165
20.097
20.0605
20.0974
20.0613
20.1159
20.0859
20.1162
20.0867
20.0178
20.1749
20.019
20.1757
20.0035
20.1319
20.0047
20.133
20.1731
20.0155
20.174
20.0166
20.1298
20.0012
20.1309
20.0023
20.0589
20.0961
20.0597
20.0966
20.0843
20.1152
20.0851
20.1156
20.1093
20.1093
20.1096
20.1096
20.1158
20.1158
20.1161
20.1161
20.0961
20.0589
20.0966
20.0597
20.1152
20.0843
20.1156
20.0851
20.0156
20.173
20.0166
20.174
20.0012
20.1298
20.0023
20.1308
20.1715
20.0133
20.1723
20.0144
20.1281
19.9987
20.1289
20
20.0573
20.095
20.0581
20.0956
20.0825
20.1141
20.0834
20.1147
20.1085
20.1085
20.1089
20.1089
20.1148
20.1148
20.1154
20.1154
20.095
20.0573
20.0956
20.0581
20.1141
20.0826
20.1147
20.0835
20.0134
20.1714
20.0145
20.1722
19.9988
20.128
20.0001
20.1288
20.1698
20.0112
20.1706
20.0123
20.1263
19.9965
20.1273
19.9975
20.0557
20.0937
20.0565
20.0944
20.0807
20.1128
20.0816
20.1135
20.1074
20.1074
20.108
20.108
20.1136
20.1136
20.1143
20.1143
20.0938
20.0557
20.0944
20.0565
20.1128
20.0806
20.1135
20.0816
20.0113
20.1698
20.0123
20.1706
19.9964
20.1264
19.9975
20.1273
20.1685
20.0091
20.1692
20.0101
20.1247
19.9942
20.1255
19.9954
20.054
20.0923
20.0548
20.093
20.0787
20.1114
20.0797
20.1121
20.1062
20.1062
20.1068
20.1068
20.1121
20.1121
20.1129
20.1129
20.0923
20.054
20.093
20.0549
20.1114
20.0788
20.1121
20.0797
20.0092
20.1684
20.0102
20.1691
19.9945
20.1244
19.9954
20.1255
20.1666
20.0075
20.1676
20.0083
20.1225
19.9926
20.1236
19.9934
20.0526
20.0911
20.0533
20.0917
20.0769
20.1096
20.0778
20.1105
20.1048
20.1048
20.1055
20.1055
20.1104
20.1104
20.1113
20.1113
20.0911
20.0527
20.0917
20.0533
20.1096
20.0769
20.1105
20.0779
20.0077
20.1664
20.0084
20.1674
19.9926
20.1225
19.9935
20.1235
20.1653
20.006
20.1659
20.0067
20.121
19.9907
20.1217
19.9917
20.0513
20.0898
20.0519
20.0905
20.0749
20.1078
20.076
20.1087
20.1035
20.1035
20.1042
20.1042
20.1086
20.1086
20.1095
20.1095
20.0899
20.0513
20.0905
20.052
20.1079
20.0751
20.1087
20.076
20.0061
20.1652
20.0069
20.1657
19.991
20.1206
19.9918
20.1216
20.1637
20.0049
20.1645
20.0054
20.1193
19.9893
20.1202
19.9899
20.0502
20.0887
20.0507
20.0892
20.0731
20.1061
20.074
20.1069
20.1022
20.1022
20.1028
20.1028
20.1068
20.1068
20.1077
20.1077
20.0887
20.0502
20.0893
20.0507
20.1061
20.0731
20.107
20.0741
20.0049
20.1637
20.0054
20.1645
19.9893
20.1194
19.9901
20.12
20.163
20.0038
20.1633
20.0043
20.1181
19.988
20.1186
19.9886
20.0492
20.0876
20.0497
20.0881
20.0711
20.1044
20.0721
20.1052
20.1009
20.1009
20.1015
20.1015
20.105
20.105
20.1059
20.1059
20.0876
20.0493
20.0882
20.0497
20.1044
20.0712
20.1052
20.0722
20.0039
20.1628
20.0044
20.1632
19.9883
20.1177
19.9887
20.1186
20.1619
20.0033
20.1625
20.0035
20.1168
19.9871
20.1175
19.9875
20.0489
20.0868
20.0489
20.0872
20.0691
20.1028
20.0701
20.1036
20.0999
20.0999
20.1004
20.1004
20.1033
20.1033
20.1042
20.1042
20.0869
20.049
20.0872
20.049
20.1028
20.0691
20.1036
20.0702
20.0034
20.1618
20.0036
20.1623
19.9872
20.1169
19.9877
20.1172
20.1614
20.0031
20.1615
20.0032
20.1162
19.9866
20.1165
19.9868
20.0487
20.0862
20.0491
20.0865
20.0686
20.1014
20.0684
20.1021
20.099
20.099
20.0994
20.0994
20.1018
20.1018
20.1025
20.1025
20.0862
20.0487
20.0866
20.0491
20.1015
20.0687
20.1021
20.0684
20.0031
20.1615
20.0032
20.1616
19.9868
20.1159
19.9869
20.1164
20.1611
20.0034
20.1613
20.0031
20.1154
19.9867
20.1158
19.9865
20.0487
20.0859
20.0486
20.086
20.0693
20.1004
20.069
20.1009
20.0984
20.0984
20.0986
20.0987
20.1004
20.1004
20.1011
20.1011
20.0859
20.0488
20.086
20.0486
20.1004
20.0693
20.1009
20.0691
20.0035
20.1609
20.0032
20.1612
19.9866
20.1155
19.9866
20.1156
20.1613
20.0041
20.1611
20.0037
20.1153
19.9872
20.1152
19.9869
20.0493
20.086
20.0489
20.0859
20.0697
20.0996
20.0695
20.1
20.0982
20.0982
20.0982
20.0982
20.0994
20.0994
20.0999
20.0999
20.086
20.0494
20.0859
20.049
20.0996
20.0698
20.1
20.0695
20.0042
20.1611
20.0038
20.1609
19.9873
20.1151
19.9869
20.1153
20.1618
20.0058
20.1615
20.0048
20.1154
19.9885
20.1153
19.9878
20.0505
20.0866
20.0498
20.0862
20.0705
20.0993
20.07
20.0994
20.0984
20.0984
20.0982
20.0982
20.0989
20.0989
20.0991
20.0991
20.0866
20.0505
20.0862
20.0499
20.0993
20.0705
20.0994
20.0701
20.0058
20.1617
20.0049
20.1614
19.9885
20.1154
19.9878
20.1152
20.1628
20.0079
20.1622
20.0067
20.1162
19.9901
20.1157
19.9892
20.0522
20.0876
20.0513
20.087
20.0715
20.0994
20.0709
20.0993
20.099
20.099
20.0986
20.0986
20.0988
20.0988
20.0987
20.0987
20.0876
20.0522
20.087
20.0513
20.0994
20.0715
20.0993
20.0709
20.0079
20.1628
20.0068
20.1622
19.9901
20.1162
19.9892
20.1157
20.1643
20.0108
20.1635
20.0092
20.1176
19.9923
20.1168
19.9911
20.0544
20.0891
20.0532
20.0883
20.0731
20.1
20.0722
20.0996
20.1002
20.1002
20.0995
20.0995
20.0992
20.0992
20.0989
20.0989
20.0891
20.0544
20.0883
20.0533
20.1
20.0731
20.0996
20.0722
20.0108
20.1643
20.0092
20.1635
19.9923
20.1175
19.9911
20.1168
20.1663
20.015
20.1653
20.0127
20.1195
19.9946
20.1185
19.9934
20.0572
20.0911
20.0557
20.09
20.0751
20.1011
20.074
20.1005
20.1018
20.1018
20.1009
20.1009
20.1002
20.1002
20.0996
20.0996
20.0911
20.0572
20.09
20.0557
20.1011
20.0751
20.1005
20.074
20.015
20.1663
20.0127
20.1652
19.9946
20.1195
19.9934
20.1185
20.1687
20.0179
20.1675
20.0165
20.1221
19.9988
20.1208
19.9965
20.0603
20.0936
20.0587
20.0922
20.0776
20.1027
20.0763
20.1018
20.104
20.104
20.1029
20.1029
20.1017
20.1017
20.1009
20.1009
20.0936
20.0603
20.0922
20.0587
20.1027
20.0776
20.1018
20.0763
20.0179
20.1686
20.0165
20.1674
19.9988
20.1221
19.9965
20.1207
20.1714
20.0214
20.17
20.0195
20.1253
20.0035
20.1236
20.0011
20.0639
20.0965
20.062
20.095
20.0805
20.1048
20.079
20.1037
20.1067
20.1067
20.1053
20.1053
20.1039
20.1039
20.1027
20.1027
20.0965
20.0639
20.095
20.0621
20.1048
20.0805
20.1037
20.079
20.0214
20.1714
20.0195
20.17
20.0035
20.1252
20.0011
20.1236
20.1744
20.0256
20.1729
20.0234
20.1289
20.0084
20.1271
20.0059
20.0679
20.0998
20.0658
20.0981
20.0838
20.1074
20.0821
20.106
20.1098
20.1098
20.1082
20.1082
20.1066
20.1066
20.1052
20.1052
20.0998
20.0679
20.0981
20.0658
20.1074
20.0838
20.106
20.0821
20.0256
20.1744
20.0234
20.1729
20.0085
20.1289
20.0059
20.127
20.1774
20.0304
20.1759
20.0279
20.1331
20.0138
20.131
20.0111
20.0722
20.1035
20.07
20.1016
20.0875
20.1104
20.0856
20.1088
20.1134
20.1134
20.1116
20.1116
20.1099
20.1099
20.1082
20.1082
20.1035
20.0722
20.1016
20.07
20.1104
20.0875
20.1088
20.0856
20.0304
20.1773
20.0279
20.1759
20.0138
20.133
20.0111
20.1309
20.1797
20.0357
20.1787
20.0329
20.1373
20.0197
20.1352
20.0167
20.0768
20.1075
20.0744
20.1055
20.0914
20.1138
20.0894
20.112
20.1173
20.1173
20.1153
20.1153
20.1138
20.1138
20.1118
20.1118
20.1074
20.0768
20.1055
20.0744
20.1138
20.0914
20.112
20.0894
20.0357
20.1797
20.0329
20.1786
20.0197
20.1372
20.0167
20.1352
20.1804
20.0424
20.1804
20.0388
20.1409
20.0264
20.1393
20.0229
20.0818
20.1115
20.0793
20.1095
20.0955
20.1175
20.0934
20.1156
20.1217
20.1217
20.1195
20.1195
20.1181
20.1181
20.1159
20.1159
20.1115
20.0818
20.1095
20.0793
20.1175
20.0955
20.1156
20.0934
20.0424
20.1803
20.0388
20.1803
20.0264
20.1409
20.0229
20.1392
20.1736
20.0549
20.1787
20.0472
20.1398
20.0371
20.1416
20.0307
20.0871
20.1158
20.0843
20.1136
20.0997
20.1215
20.0975
20.1194
20.1265
20.1265
20.124
20.124
20.123
20.123
20.1205
20.1205
20.1158
20.0871
20.1136
20.0843
20.1215
20.0997
20.1194
20.0975
20.0549
20.1735
20.0472
20.1787
20.0371
20.1397
20.0307
20.1416
20.1877
20.0489
20.1676
20.0639
20.1526
20.0346
20.1368
20.0446
20.0883
20.121
20.0895
20.1182
20.1024
20.1266
20.102
20.1239
20.1319
20.1319
20.1292
20.1292
20.1286
20.1286
20.1258
20.1258
20.121
20.0883
20.1182
20.0895
20.1266
20.1024
20.1239
20.102
20.0489
20.1876
20.0639
20.1676
20.0346
20.1525
20.0446
20.1367
20.2747
20.0138
20.2123
20.0342
20.264
20.0125
20.2035
20.035
20.0486
20.0839
20.0689
20.0929
20.0552
20.0885
20.0735
20.0954
20.0985
20.0985
20.1007
20.1007
20.0998
20.0998
20.1007
20.1007
20.0839
20.0486
20.0929
20.0689
20.0885
20.0553
20.0954
20.0735
20.0138
20.2746
20.0342
20.2122
20.0125
20.2639
20.0351
20.2034
20.2191
20.0801
20.2378
20.059
20.2197
20.0686
20.235
20.0507
20.0571
20.0753
20.0538
20.0792
20.0597
20.0804
20.0578
20.084
20.0892
20.0892
20.0942
20.0942
20.0933
20.0933
20.0971
20.0971
20.0753
20.0572
20.0792
20.0538
20.0804
20.0597
20.084
20.0578
20.0801
20.2191
20.059
20.2377
20.0686
20.2196
20.0507
20.2349
20.2062
20.0931
20.2111
20.0892
20.2087
20.0788
20.213
20.076
20.0632
20.073
20.0604
20.0736
20.0642
20.0782
20.0621
20.0788
20.0826
20.0826
20.0853
20.0853
20.088
20.088
20.0902
20.0902
20.073
20.0632
20.0736
20.0604
20.0782
20.0643
20.0788
20.0621
20.0931
20.2061
20.0892
20.2111
20.0788
20.2086
20.076
20.213
20.1999
20.0945
20.2026
20.0944
20.203
20.0786
20.2055
20.0793
20.0662
20.0728
20.0651
20.0728
20.0665
20.0785
20.0657
20.0782
20.0799
20.0799
20.0808
20.0808
20.0862
20.0862
20.0867
20.0867
20.0728
20.0662
20.0728
20.0651
20.0785
20.0665
20.0782
20.0657
20.0945
20.1999
20.0944
20.2026
20.0786
20.2029
20.0793
20.2054
20.1958
20.0928
20.1977
20.0939
20.1991
20.0756
20.2009
20.0773
20.0669
20.0734
20.0668
20.0731
20.0669
20.0795
20.0669
20.0789
20.0799
20.0799
20.0797
20.0797
20.0868
20.0868
20.0862
20.0862
20.0734
20.0669
20.0731
20.0668
20.0795
20.0669
20.0789
20.0669
20.0928
20.1958
20.0939
20.1977
20.0756
20.199
20.0773
20.2008
20.1927
20.0901
20.1942
20.0915
20.1961
20.0718
20.1975
20.0737
20.0664
20.0743
20.0668
20.0738
20.0662
20.0808
20.0666
20.0801
20.0811
20.0811
20.0804
20.0804
20.0886
20.0886
20.0876
20.0876
20.0743
20.0664
20.0738
20.0668
20.0808
20.0662
20.0801
20.0666
20.0901
20.1926
20.0915
20.1941
20.0718
20.196
20.0737
20.1975
20.1901
20.0871
20.1913
20.0886
20.1936
20.0679
20.1948
20.0698
20.0656
20.075
20.066
20.0746
20.0651
20.082
20.0657
20.0814
20.0829
20.0829
20.082
20.082
20.091
20.091
20.0898
20.0898
20.075
20.0656
20.0746
20.066
20.082
20.0651
20.0814
20.0657
20.0871
20.19
20.0886
20.1913
20.0679
20.1936
20.0699
20.1948
20.1878
20.0842
20.1889
20.0857
20.1915
20.0643
20.1925
20.0661
20.0645
20.0755
20.0651
20.0753
20.0637
20.083
20.0644
20.0825
20.0846
20.0846
20.0838
20.0838
20.0933
20.0933
20.0922
20.0922
20.0755
20.0645
20.0753
20.0651
20.083
20.0637
20.0825
20.0644
20.0842
20.1878
20.0857
20.1889
20.0643
20.1915
20.0661
20.1925
20.1859
20.0814
20.1869
20.0828
20.1897
20.0609
20.1906
20.0626
20.0633
20.0759
20.0639
20.0757
20.0623
20.0837
20.063
20.0834
20.0861
20.0861
20.0854
20.0854
20.0954
20.0954
20.0944
20.0944
20.0759
20.0633
20.0757
20.0639
20.0837
20.0623
20.0834
20.063
20.0814
20.1859
20.0828
20.1868
20.0609
20.1897
20.0626
20.1906
20.1842
20.0788
20.185
20.0801
20.1881
20.0578
20.1889
20.0593
20.062
20.0761
20.0627
20.076
20.0608
20.0842
20.0616
20.084
20.0873
20.0874
20.0868
20.0868
20.097
20.097
20.0962
20.0962
20.0761
20.062
20.076
20.0627
20.0842
20.0608
20.084
20.0616
20.0788
20.1842
20.0801
20.185
20.0578
20.188
20.0593
20.1888
20.1826
20.0764
20.1834
20.0776
20.1865
20.055
20.1873
20.0564
20.0607
20.076
20.0614
20.0761
20.0593
20.0844
20.0601
20.0843
20.0882
20.0882
20.0878
20.0878
20.0982
20.0982
20.0977
20.0977
20.076
20.0607
20.0761
20.0614
20.0844
20.0593
20.0843
20.0601
20.0764
20.1826
20.0776
20.1834
20.055
20.1865
20.0564
20.1872
20.1811
20.0741
20.1818
20.0752
20.185
20.0524
20.1857
20.0537
20.0594
20.0758
20.0601
20.0759
20.0578
20.0843
20.0586
20.0843
20.0887
20.0887
20.0885
20.0885
20.099
20.099
20.0987
20.0987
20.0758
20.0594
20.0759
20.0601
20.0843
20.0578
20.0843
20.0586
20.0741
20.1811
20.0752
20.1818
20.0524
20.185
20.0536
20.1857
20.1796
20.072
20.1804
20.073
20.1835
20.0499
20.1843
20.0511
20.0579
20.0753
20.0586
20.0755
20.0563
20.0839
20.0571
20.0841
20.0889
20.0889
20.0888
20.0888
20.0994
20.0994
20.0992
20.0992
20.0753
20.0579
20.0755
20.0586
20.0839
20.0563
20.0841
20.057
20.072
20.1796
20.073
20.1803
20.0499
20.1835
20.0511
20.1842
20.1782
20.07
20.1789
20.071
20.1821
20.0476
20.1828
20.0487
20.0565
20.0746
20.0572
20.075
20.0547
20.0833
20.0555
20.0836
20.0888
20.0888
20.0889
20.0889
20.0994
20.0994
20.0994
20.0994
20.0746
20.0565
20.075
20.0572
20.0833
20.0547
20.0836
20.0555
20.07
20.1782
20.071
20.1789
20.0476
20.182
20.0487
20.1828
20.1768
20.068
20.1775
20.069
20.1806
20.0454
20.1813
20.0464
20.055
20.0738
20.0557
20.0742
20.0532
20.0826
20.0539
20.083
20.0884
20.0884
20.0886
20.0886
20.0991
20.0991
20.0993
20.0993
20.0738
20.055
20.0742
20.0557
20.0826
20.0532
20.083
20.0539
20.068