/*--------------------------------*- C++ -*----------------------------------*\
  =========                 |
  \\      /  F ield         | OpenFOAM: The Open Source CFD Toolbox
   \\    /   O peration     | Website:  https://openfoam.org
    \\  /    A nd           | Version:  9
     \\/     M anipulation  |
\*---------------------------------------------------------------------------*/
FoamFile
{
    format      ascii;
    class       surfaceScalarField;
    location    "2.9";
    object      phi;
}
// * * * * * * * * * * * * * * * * * * * * * * * * * * * * * * * * * * * * * //

dimensions      [0 3 -1 0 0 0 0];

internalField   nonuniform List<scalar> 
104044
(
5.11974e-06
-0.000150397
-1.52689e-05
0.000142155
1.8391e-05
-9.04287e-05
1.09284e-05
-1.7618e-06
9.83157e-05
-1.19338e-05
3.67837e-06
-2.01758e-05
2.01447e-05
1.38996e-05
-1.42838e-06
-1.34516e-05
-2.201e-06
-0.000188735
0.000175667
-6.52701e-05
1.12988e-06
7.28677e-05
-1.45818e-06
6.40098e-07
-2.92319e-07
-9.9447e-05
-5.27354e-06
9.97957e-05
3.45539e-06
-0.000103334
-5.11363e-06
-2.2001e-08
0.000103327
4.85062e-06
-1.73309e-07
-4.64318e-06
2.16816e-06
-4.64502e-06
-1.93761e-09
3.6954e-06
1.84028e-08
-9.14773e-05
8.73152e-05
-0.000108759
-1.83723e-08
0.000103683
-4.4454e-08
-2.49894e-08
-4.5183e-12
-0.000105161
-4.55573e-06
0.000105222
4.47252e-06
-0.000105161
-4.55576e-06
2.19654e-08
0.000105223
4.4725e-06
7.49281e-12
-4.11782e-06
3.37066e-06
-4.11775e-06
1.9438e-09
3.37053e-06
-2.64002e-11
-0.000114074
0.0001095
-0.000114075
1.83382e-08
0.000109501
-2.46461e-11
2.48679e-08
2.92234e-07
-0.000103334
-5.11407e-06
0.000103327
4.8509e-06
-9.94462e-05
-5.27511e-06
1.76144e-06
9.97947e-05
3.45744e-06
1.73226e-07
-4.64496e-06
3.69543e-06
-4.64434e-06
1.4279e-06
2.17014e-06
-1.82726e-08
-0.000108764
0.000103687
-9.1484e-05
-1.12914e-06
8.73198e-05
4.44943e-08
-6.39547e-07
-5.11838e-06
-9.04242e-05
1.09224e-05
9.83102e-05
-1.19285e-05
-0.000150391
-1.52631e-05
0.000142152
1.83836e-05
-3.6768e-06
1.38931e-05
-1.34466e-05
-2.01672e-05
2.01363e-05
2.19891e-06
-6.52689e-05
7.28632e-05
-0.000188724
0.00017566
1.45674e-06
2.08054e-06
-0.000135545
-1.76768e-05
0.000130513
2.06284e-05
-0.000102705
1.59186e-05
-7.49893e-07
0.000104953
-1.53359e-05
3.38505e-06
-1.66735e-05
1.98981e-05
1.36594e-05
-1.06142e-06
-1.36021e-05
-6.73765e-06
-0.000163368
0.000152429
-8.00793e-05
2.80685e-06
8.64534e-05
-4.37478e-06
2.07292e-06
5.25728e-08
-0.000100378
-2.18522e-06
0.000101078
6.8295e-07
-0.000103038
-3.39733e-06
8.88392e-09
0.000102617
3.86184e-06
-1.51393e-07
-3.73089e-06
2.23815e-06
-4.52533e-06
-2.04252e-08
4.68272e-06
5.14278e-07
-8.54127e-05
8.55201e-05
-9.93942e-05
4.98446e-08
9.64613e-05
2.44532e-07
7.58703e-09
-1.37393e-10
-0.000104852
-3.3757e-06
0.000104165
4.0723e-06
-0.000104852
-3.37588e-06
-9.20157e-09
0.000104165
4.07256e-06
-2.93263e-11
-4.29273e-06
4.64264e-06
-4.29292e-06
2.03902e-08
4.64281e-06
-1.43347e-10
-0.000105214
0.000101889
-0.000105215
-5.00441e-08
0.000101889
-4.75064e-11
-7.6424e-09
-5.24974e-08
-0.000103038
-3.39822e-06
0.000102617
3.86271e-06
-0.000100377
-2.18697e-06
7.49655e-07
0.000101076
6.85778e-07
1.51458e-07
-4.52617e-06
4.68347e-06
-3.73283e-06
1.06128e-06
2.24068e-06
-5.14262e-07
-9.93972e-05
9.64632e-05
-8.54148e-05
-2.80606e-06
8.55196e-05
-2.44248e-07
-2.07213e-06
-2.0809e-06
-0.0001027
1.59135e-05
0.000104948
-1.53312e-05
-0.000135544
-1.76712e-05
0.000130512
2.06222e-05
-3.38491e-06
1.36535e-05
-1.35969e-05
-1.66684e-05
1.98919e-05
6.7341e-06
-8.00727e-05
8.6446e-05
-0.000163363
0.000152426
4.37185e-06
3.52569e-07
-0.000126545
-1.73973e-05
0.000123335
2.02545e-05
-0.000106156
1.73539e-05
-7.80587e-07
0.000106865
-1.69291e-05
1.09732e-06
-1.74636e-05
2.03342e-05
1.66641e-05
-6.53643e-07
-1.61165e-05
-1.02641e-05
-0.000143567
0.000136434
-9.12852e-05
3.51487e-06
9.48601e-05
-8.6015e-06
3.23077e-06
4.87561e-07
-0.000101776
-8.33508e-07
0.000102366
-1.02533e-06
-0.000102293
-1.55678e-06
1.33382e-07
0.000102162
2.04195e-06
2.60699e-07
-1.21188e-06
-3.99899e-07
-2.30468e-06
6.21057e-08
2.82784e-06
9.29353e-07
-8.68169e-05
8.85689e-05
-9.47621e-05
2.00345e-07
9.39343e-05
7.22113e-07
1.16711e-07
-5.29183e-11
-0.000103477
-1.80535e-06
0.000102948
2.46731e-06
-0.000103477
-1.80482e-06
-1.3408e-07
0.000102948
2.46751e-06
-1.49085e-10
-2.44122e-06
3.19117e-06
-2.44139e-06
-6.23596e-08
3.19141e-06
2.1972e-09
-9.95643e-05
9.79571e-05
-9.95653e-05
-1.94078e-07
9.79568e-05
-1.09591e-10
-1.17345e-07
-4.87396e-07
-0.000102292
-1.55846e-06
0.000102161
2.04282e-06
-0.000101773
-8.34854e-07
7.80224e-07
0.000102364
-1.02353e-06
-2.60653e-07
-2.30552e-06
2.82877e-06
-1.21312e-06
6.53357e-07
-3.98118e-07
-9.25754e-07
-9.47623e-05
9.39355e-05
-8.68145e-05
-3.51286e-06
8.85668e-05
-7.21944e-07
-3.22995e-06
-3.53061e-07
-0.000106152
1.73495e-05
0.000106861
-1.69252e-05
-0.000126544
-1.73927e-05
0.000123335
2.02491e-05
-1.09783e-06
1.66595e-05
-1.61121e-05
-1.7459e-05
2.03288e-05
1.02608e-05
-9.12777e-05
9.48536e-05
-0.000143565
0.000136433
8.59784e-06
-6.81119e-07
-0.00012079
-1.69745e-05
0.000118732
1.97133e-05
-0.000107282
1.79834e-05
-1.1294e-06
0.000107536
-1.77884e-05
-2.30307e-07
-1.69762e-05
1.9752e-05
1.75254e-05
-9.37872e-07
-1.72356e-05
-1.25076e-05
-0.000130858
0.000126391
-9.74024e-05
3.6327e-06
9.92454e-05
-1.14006e-05
3.58259e-06
7.60787e-07
-0.000102925
-6.35805e-07
0.000103445
-1.77488e-06
-0.000102202
-7.57531e-07
3.1327e-07
0.000102369
1.03782e-06
6.44946e-07
-6.861e-07
-1.45524e-06
-1.04793e-06
2.13165e-07
1.4395e-06
1.24749e-06
-9.03758e-05
9.21252e-05
-9.3716e-05
3.25579e-07
9.38803e-05
1.08953e-06
2.59927e-07
7.63141e-12
-0.000102624
-9.58016e-07
0.000102487
1.40872e-06
-0.000102624
-9.58158e-07
-3.13121e-07
0.000102487
1.40882e-06
-7.6909e-11
-1.30969e-06
1.84679e-06
-1.30998e-06
-2.13127e-07
1.84695e-06
-2.46028e-11
-9.69078e-05
9.62754e-05
-9.69081e-05
-3.2546e-07
9.62753e-05
-4.59237e-10
-2.61716e-07
-7.60667e-07
-0.000102201
-7.57772e-07
0.000102368
1.03825e-06
-0.000102922
-6.36232e-07
1.12877e-06
0.000103443
-1.77366e-06
-6.44855e-07
-1.04821e-06
1.44008e-06
-6.86679e-07
9.37286e-07
-1.45381e-06
-1.24717e-06
-9.37154e-05
9.38794e-05
-9.03725e-05
-3.63242e-06
9.21215e-05
-1.08989e-06
-3.58231e-06
6.80498e-07
-0.000107279
1.79799e-05
0.000107532
-1.77852e-05
-0.00012079
-1.69703e-05
0.000118732
1.97085e-05
2.29681e-07
1.75216e-05
-1.7232e-05
-1.69722e-05
1.97472e-05
1.25039e-05
-9.73961e-05
9.92397e-05
-0.000130858
0.000126391
1.13968e-05
-1.28617e-06
-0.000117091
-1.67407e-05
0.000115758
1.9359e-05
-0.000107697
1.83613e-05
-1.48667e-06
0.000107807
-1.827e-05
-1.01402e-06
-1.66628e-05
1.93184e-05
1.80058e-05
-1.29866e-06
-1.7883e-05
-1.38832e-05
-0.000122877
0.00012002
-0.000100548
3.51758e-06
0.000101508
-1.31489e-05
3.55462e-06
8.5172e-07
-0.000103924
-6.5723e-07
0.000104369
-2.12588e-06
-0.00010262
-4.90728e-07
4.89945e-07
0.000102937
5.35367e-07
8.16626e-07
-6.32689e-07
-1.96103e-06
-5.85209e-07
4.13881e-07
7.37311e-07
1.46063e-06
-9.36939e-05
9.50936e-05
-9.42718e-05
4.27142e-07
9.48145e-05
1.35328e-06
3.76637e-07
5.89113e-11
-0.000102512
-4.67336e-07
0.000102657
8.12446e-07
-0.000102512
-4.67409e-07
-4.89742e-07
0.000102657
8.12469e-07
3.84758e-11
-6.69141e-07
1.05758e-06
-6.69247e-07
-4.13699e-07
1.05764e-06
5.18677e-11
-9.59829e-05
9.59426e-05
-9.59826e-05
-4.26979e-07
9.59423e-05
2.53748e-11
-3.7652e-07
-8.51655e-07
-0.000102619
-4.90768e-07
0.000102936
5.35588e-07
-0.000103921
-6.57497e-07
1.486e-06
0.000104366
-2.12495e-06
-8.1653e-07
-5.85342e-07
7.37627e-07
-6.33018e-07
1.298e-06
-1.95999e-06
-1.46024e-06
-9.42704e-05
9.48129e-05
-9.369e-05
-3.51744e-06
9.50897e-05
-1.35291e-06
-3.55441e-06
1.2856e-06
-0.000107695
1.83582e-05
0.000107804
-1.82672e-05
-0.00011709
-1.67369e-05
0.000115758
1.93548e-05
1.01343e-06
1.80025e-05
-1.78801e-05
-1.66592e-05
1.93141e-05
1.38798e-05
-0.000100542
0.000101503
-0.000122877
0.00012002
1.31453e-05
-1.64222e-06
-0.000114688
-1.65943e-05
0.000113818
1.91063e-05
-0.000107894
1.85746e-05
-1.78766e-06
0.000107971
-1.8506e-05
-1.4726e-06
-1.64862e-05
1.90296e-05
1.82934e-05
-1.62879e-06
-1.82246e-05
-1.47056e-05
-0.000117739
0.00011585
-0.000102201
3.33655e-06
0.000102733
-1.42053e-05
3.39549e-06
8.28788e-07
-0.000104779
-6.99048e-07
0.000105165
-2.30331e-06
-0.000103292
-4.17469e-07
5.78005e-07
0.000103675
2.84657e-07
8.41777e-07
-6.74973e-07
-2.20634e-06
-4.36201e-07
5.36459e-07
3.86673e-07
1.57811e-06
-9.62995e-05
9.73589e-05
-9.54323e-05
4.95061e-07
9.60979e-05
1.5146e-06
4.60603e-07
8.69757e-11
-0.000102889
-2.06291e-07
0.000103189
4.84147e-07
-0.000102889
-2.06309e-07
-5.77785e-07
0.000103189
4.84121e-07
7.32882e-11
-3.13168e-07
6.17575e-07
-3.13212e-07
-5.36247e-07
6.17571e-07
7.7353e-11
-9.609e-05
9.63787e-05
-9.60895e-05
-4.94859e-07
9.63781e-05
6.64014e-11
-4.60417e-07
-8.28786e-07
-0.00010329
-4.17385e-07
0.000103674
2.84758e-07
-0.000104777
-6.99249e-07
1.78699e-06
0.000105163
-2.30257e-06
-8.41746e-07
-4.36176e-07
3.86829e-07
-6.75205e-07
1.62811e-06
-2.20552e-06
-1.57773e-06
-9.54305e-05
9.6096e-05
-9.62957e-05
-3.33652e-06
9.73552e-05
-1.51421e-06
-3.39541e-06
1.6417e-06
-0.000107892
1.85718e-05
0.000107969
-1.85036e-05
-0.000114688
-1.6591e-05
0.000113818
1.91025e-05
1.47206e-06
1.82904e-05
-1.8222e-05
-1.64831e-05
1.90258e-05
1.47025e-05
-0.000102196
0.000102729
-0.000117739
0.000115851
1.4202e-05
-1.85382e-06
-0.000113118
-1.64552e-05
0.000112554
1.88728e-05
-0.000108054
1.86642e-05
-2.01704e-06
0.000108143
-1.85902e-05
-1.74492e-06
-1.63566e-05
1.88019e-05
1.84455e-05
-1.89141e-06
-1.83822e-05
-1.51761e-05
-0.000114325
0.000113046
-0.000103135
3.1525e-06
0.000103471
-1.48314e-05
3.21191e-06
7.48734e-07
-0.000105526
-7.23043e-07
0.000105871
-2.38706e-06
-0.000104069
-4.17421e-07
6.122e-07
0.000104472
1.5108e-07
7.85586e-07
-7.09628e-07
-2.32849e-06
-4.08761e-07
5.94484e-07
2.0633e-07
1.62479e-06
-9.8268e-05
9.90727e-05
-9.67701e-05
5.32489e-07
9.7445e-05
1.59316e-06
5.1221e-07
1.02231e-10
-0.000103531
-7.32057e-08
0.000103908
3.08445e-07
-0.000103531
-7.318e-08
-6.11979e-07
0.000103908
3.08387e-07
9.72723e-11
-1.26594e-07
3.78699e-07
-1.26588e-07
-5.94264e-07
3.78656e-07
8.37398e-11
-9.67642e-05
9.72234e-05
-9.67636e-05
-5.32272e-07
9.72228e-05
8.27263e-11
-5.12e-07
-7.48763e-07
-0.000104068
-4.17246e-07
0.000104471
1.51079e-07
-0.000105524
-7.23204e-07
2.0164e-06
0.000105869
-2.38646e-06
-7.85605e-07
-4.0863e-07
2.06378e-07
-7.09812e-07
1.89075e-06
-2.32783e-06
-1.62442e-06
-9.67682e-05
9.74431e-05
-9.82645e-05
-3.1525e-06
9.90694e-05
-1.59279e-06
-3.21191e-06
1.85334e-06
-0.000108052
1.86618e-05
0.000108141
-1.85881e-05
-0.000113117
-1.64522e-05
0.000112553
1.88695e-05
1.74442e-06
1.84428e-05
-1.83799e-05
-1.63539e-05
1.87986e-05
1.51732e-05
-0.000103132
0.000103468
-0.000114325
0.000113046
1.48284e-05
-1.97782e-06
-0.000112102
-1.63005e-05
0.000111746
1.86344e-05
-0.000108246
1.86543e-05
-2.18467e-06
0.000108359
-1.85601e-05
-1.90544e-06
-1.62089e-05
1.85664e-05
1.8478e-05
-2.08612e-06
-1.84001e-05
-1.54203e-05
-0.000112008
0.000111127
-0.000103742
2.98479e-06
0.000103991
-1.51707e-05
3.03607e-06
6.449e-07
-0.000106201
-7.17215e-07
0.000106524
-2.43603e-06
-0.000104871
-4.39622e-07
6.13557e-07
0.00010527
7.22239e-08
6.91788e-07
-7.17874e-07
-2.39008e-06
-4.23825e-07
6.09317e-07
1.06743e-07
1.62543e-06
-9.97771e-05
0.000100419
-9.80983e-05
5.46438e-07
9.87376e-05
1.61376e-06
5.3663e-07
8.55711e-11
-0.000104302
-1.18502e-08
0.000104711
2.16286e-07
-0.000104301
-1.18051e-08
-6.13369e-07
0.00010471
2.16213e-07
9.64736e-11
-3.68121e-08
2.52656e-07
-3.67772e-08
-6.0911e-07
2.52587e-07
6.9447e-11
-9.77231e-05
9.82576e-05
-9.77225e-05
-5.46241e-07
9.8257e-05
7.63108e-11
-5.36417e-07
-6.44918e-07
-0.00010487
-4.39401e-07
0.000105269
7.21364e-08
-0.000106199
-7.17323e-07
2.18416e-06
0.000106523
-2.43555e-06
-6.91813e-07
-4.23618e-07
1.06696e-07
-7.18013e-07
2.08553e-06
-2.38955e-06
-1.62502e-06
-9.80964e-05
9.87358e-05
-9.97741e-05
-2.98467e-06
0.000100416
-1.61337e-06
-3.03603e-06
1.97744e-06
-0.000108245
1.86521e-05
0.000108357
-1.85582e-05
-0.000112101
-1.62979e-05
0.000111745
1.86315e-05
1.90498e-06
1.84756e-05
-1.83981e-05
-1.62065e-05
1.85635e-05
1.54178e-05
-0.000103739
0.000103989
-0.000112008
0.000111127
1.5168e-05
-2.04669e-06
-0.000111464
-1.61154e-05
0.000111252
1.83737e-05
-0.000108486
1.85577e-05
-2.29703e-06
0.000108621
-1.84429e-05
-1.99699e-06
-1.60342e-05
1.83127e-05
1.84153e-05
-2.22251e-06
-1.83165e-05
-1.5506e-05
-0.000110415
0.000109805
-0.000104206
2.83719e-06
0.000104421
-1.53218e-05
2.87852e-06
5.7301e-07
-0.000106837
-7.07112e-07
0.000107141
-2.46749e-06
-0.000105663
-4.52719e-07
6.01044e-07
0.000106054
3.31282e-08
5.99425e-07
-7.06348e-07
-2.42808e-06
-4.43667e-07
6.02249e-07
4.81428e-08
1.59524e-06
-0.000100995
0.000101529
-9.93493e-05
5.44609e-07
9.99472e-05
1.59681e-06
5.41447e-07
5.1555e-11
-0.00010512
1.69544e-08
0.000105536
1.68303e-07
-0.00010512
1.69644e-08
-6.00918e-07
0.000105536
1.68261e-07
6.50281e-11
5.85021e-09
1.86645e-07
5.87981e-09
-6.02087e-07
1.86579e-07
5.0831e-11
-9.88049e-05
9.93664e-05
-9.88042e-05
-5.44498e-07
9.93658e-05
6.15485e-11
-5.4129e-07
-5.73008e-07
-0.000105662
-4.52644e-07
0.000106053
3.31434e-08
-0.000106835
-7.07242e-07
2.29667e-06
0.00010714
-2.46707e-06
-5.99389e-07
-4.43508e-07
4.8096e-08
-7.06448e-07
2.22211e-06
-2.42762e-06
-1.59504e-06
-9.93474e-05
9.99453e-05
-0.000100992
-2.8372e-06
0.000101527
-1.59644e-06
-2.87829e-06
2.04671e-06
-0.000108484
1.85561e-05
0.00010862
-1.84418e-05
-0.000111464
-1.61128e-05
0.000111252
1.83711e-05
1.99677e-06
1.84134e-05
-1.83149e-05
-1.60318e-05
1.83099e-05
1.55042e-05
-0.000104204
0.000104419
-0.000110416
0.000109807
1.53201e-05
-2.07939e-06
-0.000111092
-1.58832e-05
0.000110982
1.80719e-05
-0.00010877
1.83799e-05
-2.36859e-06
0.000108926
-1.82466e-05
-2.04557e-06
-1.58316e-05
1.80379e-05
1.82801e-05
-2.31208e-06
-1.81623e-05
-1.54729e-05
-0.000109317
0.000108906
-0.000104617
2.70468e-06
0.000104819
-1.5343e-05
2.74124e-06
5.11366e-07
-0.00010744
-6.93895e-07
0.000107733
-2.47985e-06
-0.000106436
-4.58521e-07
5.79485e-07
0.000106815
1.20198e-08
5.35912e-07
-6.95858e-07
-2.45046e-06
-4.51749e-07
5.84718e-07
2.1117e-08
1.54725e-06
-0.000102018
0.000102482
-0.000100518
5.32721e-07
0.000101074
1.55677e-06
5.34107e-07
-2.15961e-11
-0.000105946
2.59606e-08
0.000106355
1.44309e-07
-0.000105946
2.58318e-08
-5.79515e-07
0.000106355
1.44376e-07
3.00352e-11
2.23805e-08
1.52534e-07
2.23555e-08
-5.84638e-07
1.52536e-07
-6.17625e-11
-9.99228e-05
0.000100482
-9.99222e-05
-5.32974e-07
0.000100481
3.35775e-11
-5.34053e-07
-5.11546e-07
-0.000106435
-4.58803e-07
0.000106814
1.23022e-08
-0.000107438
-6.94498e-07
2.36817e-06
0.000107733
-2.47937e-06
-5.35937e-07
-4.51797e-07
2.12394e-08
-6.96049e-07
2.31183e-06
-2.45008e-06
-1.54779e-06
-0.000100516
0.000101072
-0.000102015
-2.70619e-06
0.000102479
-1.55663e-06
-2.74092e-06
2.07979e-06
-0.000108769
1.83765e-05
0.000108925
-1.82447e-05
-0.000111091
-1.588e-05
0.000110982
1.80686e-05
2.0459e-06
1.82783e-05
-1.8161e-05
-1.58281e-05
1.80351e-05
1.54652e-05
-0.000104613
0.000104818
-0.000109322
0.000108907
1.53428e-05
-2.08919e-06
-0.000110907
-1.56278e-05
0.000110873
1.77511e-05
-0.000109093
1.81484e-05
-2.41021e-06
0.000109267
-1.80014e-05
-2.06613e-06
-1.5593e-05
1.77347e-05
1.80824e-05
-2.36759e-06
-1.79483e-05
-1.53417e-05
-0.000108583
0.000108297
-0.00010501
2.59369e-06
0.000105224
-1.527e-05
2.62113e-06
4.57816e-07
-0.000108023
-6.79181e-07
0.00010831
-2.47541e-06
-0.000107182
-4.61581e-07
5.54326e-07
0.000107546
1.50073e-09
4.78797e-07
-6.81421e-07
-2.45485e-06
-4.56156e-07
5.61307e-07
5.73371e-09
1.49503e-06
-0.000102914
0.000103334
-0.000101605
5.16671e-07
0.000102122
1.50684e-06
5.19981e-07
-3.93349e-11
-0.000106754
2.22001e-08
0.000107151
1.35726e-07
-0.000106754
2.20529e-08
-5.54364e-07
0.000107151
1.35817e-07
-6.2789e-11
2.49732e-08
1.37152e-07
2.47739e-08
-5.61418e-07
1.37262e-07
-2.51643e-10
-0.000101027
0.000101566
-0.000101026
-5.17403e-07
0.000101565
-1.98762e-10
-5.20609e-07
-4.57778e-07
-0.000107182
-4.61924e-07
0.000107545
1.74261e-09
-0.000108023
-6.78633e-07
2.41036e-06
0.000108309
-2.47589e-06
-4.79017e-07
-4.56632e-07
6.11689e-09
-6.82068e-07
2.36723e-06
-2.45449e-06
-1.49624e-06
-0.000101603
0.00010212
-0.000102912
-2.59387e-06
0.000103331
-1.50814e-06
-2.62369e-06
2.09015e-06
-0.000109093
1.81555e-05
0.000109267
-1.80086e-05
-0.000110908
-1.56314e-05
0.000110873
1.77566e-05
2.06672e-06
1.80817e-05
-1.79494e-05
-1.55933e-05
1.77344e-05
1.53529e-05
-0.000105013
0.000105222
-0.000108577
0.000108299
1.52632e-05
-2.08293e-06
-0.00011086
-1.53568e-05
0.000110875
1.74251e-05
-0.000109448
1.78862e-05
-2.42838e-06
0.000109631
-1.7724e-05
-2.06734e-06
-1.53301e-05
1.74104e-05
1.78348e-05
-2.39696e-06
-1.76863e-05
-1.51854e-05
-0.00010809
0.000107918
-0.000105421
2.49085e-06
0.000105631
-1.51225e-05
2.51519e-06
4.11905e-07
-0.000108592
-6.62413e-07
0.000108869
-2.45505e-06
-0.000107898
-4.62707e-07
5.28572e-07
0.000108244
1.53954e-10
4.29653e-07
-6.6636e-07
-2.44236e-06
-4.58106e-07
5.35894e-07
-8.54109e-11
1.44223e-06
-0.000103729
0.000104115
-0.000102615
4.99081e-07
0.000103095
1.45412e-06
5.03099e-07
5.59777e-11
-0.000107534
1.35946e-08
0.000107912
1.37586e-07
-0.000107534
1.36259e-08
-5.28496e-07
0.000107911
1.37604e-07
6.82105e-11
1.82384e-08
1.34161e-07
1.82083e-08
-5.35722e-07
1.34192e-07
4.84561e-10
-0.000102087
0.000102599
-0.000102086
-4.97981e-07
0.000102598
1.92459e-10
-5.02653e-07
-4.11783e-07
-0.000107897
-4.62616e-07
0.000108243
5.20731e-11
-0.000108591
-6.60751e-07
2.42829e-06
0.000108868
-2.45662e-06
-4.29371e-07
-4.58043e-07
-1.28636e-10
-6.64677e-07
2.39718e-06
-2.44375e-06
-1.441e-06
-0.000102613
0.000103093
-0.000103726
-2.48853e-06
0.000104113
-1.45341e-06
-2.51253e-06
2.08356e-06
-0.000109447
1.78845e-05
0.000109631
-1.77235e-05
-0.00011086
-1.53568e-05
0.000110875
1.74254e-05
2.06781e-06
1.78374e-05
-1.76888e-05
-1.53319e-05
1.74129e-05
1.51828e-05
-0.000105418
0.000105631
-0.000108095
0.000107922
1.51288e-05
-2.06676e-06
-0.000110902
-1.50852e-05
0.000110951
1.71031e-05
-0.00010982
1.7595e-05
-2.43013e-06
0.000110006
-1.74178e-05
-2.05431e-06
-1.50554e-05
1.70817e-05
1.75514e-05
-2.40511e-06
-1.7389e-05
-1.49792e-05
-0.000107794
0.000107688
-0.000105833
2.39858e-06
0.00010605
-1.49315e-05
2.41737e-06
3.74113e-07
-0.000109141
-6.4798e-07
0.000109406
-2.42127e-06
-0.000108577
-4.64292e-07
5.04185e-07
0.000108902
8.8792e-09
3.87994e-07
-6.49995e-07
-2.41507e-06
-4.58883e-07
5.10559e-07
3.31074e-09
1.39046e-06
-0.000104481
0.000104841
-0.000103553
4.79736e-07
0.000103999
1.40096e-06
4.84069e-07
-3.10659e-10
-0.000108274
5.06056e-10
0.000108628
1.49573e-07
-0.000108274
4.0203e-10
-5.04788e-07
0.000108628
1.49603e-07
-2.22842e-10
7.3977e-09
1.40883e-07
7.30205e-09
-5.11068e-07
1.4094e-07
-6.25675e-10
-0.000103091
0.000103572
-0.000103091
-4.81374e-07
0.000103572
-3.31313e-10
-4.85133e-07
-3.74422e-07
-0.000108576
-4.64736e-07
0.000108902
8.93441e-09
-0.000109141
-6.4791e-07
2.43038e-06
0.000109405
-2.42154e-06
-3.88417e-07
-4.59396e-07
3.4622e-09
-6.50043e-07
2.40487e-06
-2.41541e-06
-1.39311e-06
-0.000103552
0.000103999
-0.00010448
-2.40156e-06
0.000104841
-1.40362e-06
-2.42161e-06
2.06913e-06
-0.00010982
1.7603e-05
0.000110005
-1.7427e-05
-0.000110903
-1.50913e-05
0.000110952
1.71112e-05
2.05625e-06
1.75579e-05
-1.73976e-05
-1.5062e-05
1.70899e-05
1.49874e-05
-0.000105834
0.000106048
-0.000107793
0.000107689
1.49334e-05
-2.04324e-06
-0.000111004
-1.48191e-05
0.000111068
1.67977e-05
-0.000110193
1.72866e-05
-2.41547e-06
0.000110371
-1.70928e-05
-2.03482e-06
-1.47956e-05
1.67779e-05
1.72588e-05
-2.39764e-06
-1.7083e-05
-1.47543e-05
-0.000107606
0.000107541
-0.000106257
2.31959e-06
0.00010647
-1.4713e-05
2.33898e-06
3.43511e-07
-0.000109664
-6.36143e-07
0.00010991
-2.36938e-06
-0.000109213
-4.68552e-07
4.81826e-07
0.000109514
2.97523e-08
3.54745e-07
-6.3739e-07
-2.37272e-06
-4.6169e-07
4.87679e-07
1.77071e-08
1.34507e-06
-0.000105187
0.000105526
-0.000104426
4.62817e-07
0.00010484
1.3556e-06
4.67108e-07
-7.7532e-11
-0.000108966
-1.8446e-08
0.000109293
1.73153e-07
-0.000108966
-1.84935e-08
-4.81968e-07
0.000109293
1.73204e-07
-1.05949e-10
-8.00847e-09
1.58148e-07
-8.00343e-09
-4.87838e-07
1.58146e-07
-5.0689e-11
-0.000104031
0.000104475
-0.000104031
-4.62908e-07
0.000104475
-3.67105e-11
-4.66973e-07
-3.43717e-07
-0.000109213
-4.68884e-07
0.000109513
3.00839e-08
-0.000109662
-6.36909e-07
2.4152e-06
0.000109909
-2.36897e-06
-3.54634e-07
-4.61648e-07
1.76285e-08
-6.36313e-07
2.39803e-06
-2.37362e-06
-1.34556e-06
-0.000104425
0.000104839
-0.000105186
-2.32125e-06
0.000105525
-1.35475e-06
-2.33624e-06
2.04475e-06
-0.000110191
1.72845e-05
0.000110371
-1.70934e-05
-0.000111004
-1.48158e-05
0.000111068
1.67968e-05
2.03649e-06
1.72588e-05
-1.70839e-05
-1.47935e-05
1.67782e-05
1.47482e-05
-0.000106253
0.000106468
-0.000107613
0.000107545
1.47174e-05
-2.0134e-06
-0.000111127
-1.45416e-05
0.000111193
1.64894e-05
-0.000110543
1.69459e-05
-2.39068e-06
0.000110705
-1.67302e-05
-2.00787e-06
-1.45188e-05
1.64676e-05
1.69351e-05
-2.37827e-06
-1.67369e-05
-1.44912e-05
-0.00010751
0.00010746
-0.000106662
2.24647e-06
0.00010687
-1.44879e-05
2.25477e-06
3.19546e-07
-0.000110145
-6.34497e-07
0.000110365
-2.29599e-06
-0.000109798
-4.81604e-07
4.60841e-07
0.000110066
7.20804e-08
3.26953e-07
-6.2839e-07
-2.31165e-06
-4.68789e-07
4.66227e-07
4.53549e-08
1.30189e-06
-0.000105844
0.000106154
-0.00010523
4.45491e-07
0.000105605
1.3083e-06
4.49095e-07
-9.70533e-11
-0.0001096
-4.07583e-08
0.000109891
2.10762e-07
-0.0001096
-4.07055e-08
-4.60994e-07
0.000109891
2.10653e-07
-1.60989e-10
-2.83984e-08
1.88159e-07
-2.86379e-08
-4.66492e-07
1.88221e-07
-3.3399e-10
-0.000104896
0.000105301
-0.000104896
-4.46216e-07
0.000105301
-3.16066e-10
-4.50159e-07
-3.19748e-07
-0.000109798
-4.81487e-07
0.000110066
7.19764e-08
-0.000110145
-6.36393e-07
2.39061e-06
0.000110365
-2.29393e-06
-3.27451e-07
-4.69406e-07
4.59142e-08
-6.31253e-07
2.37779e-06
-2.30943e-06
-1.30218e-06
-0.00010523
0.000105604
-0.000105843
-2.2466e-06
0.000106151
-1.31058e-06
-2.26031e-06
2.01554e-06
-0.000110544
1.69407e-05
0.000110703
-1.67252e-05
-0.000111128
-1.45329e-05
0.000111194
1.64818e-05
2.00956e-06
1.69316e-05
-1.67363e-05
-1.4515e-05
1.64644e-05
1.44913e-05
-0.000106664
0.000106867
-0.000107506
0.000107464
1.44755e-05
-1.98079e-06
-0.000111251
-1.42398e-05
0.000111299
1.61725e-05
-0.000110852
1.65622e-05
-2.35562e-06
0.000110984
-1.63189e-05
-1.97616e-06
-1.42407e-05
1.61588e-05
1.65802e-05
-2.34874e-06
-1.63547e-05
-1.42124e-05
-0.000107418
0.000107391
-0.000107064
2.1734e-06
0.00010724
-1.41991e-05
2.18802e-06
3.02272e-07
-0.000110569
-6.45504e-07
0.000110751
-2.19493e-06
-0.000110311
-5.05302e-07
4.40252e-07
0.000110535
1.43366e-07
3.07193e-07
-6.33298e-07
-2.22584e-06
-4.87529e-07
4.45416e-07
1.04629e-07
1.26122e-06
-0.00010644
0.000106707
-0.000105953
4.29166e-07
0.00010628
1.26822e-06
4.32622e-07
1.25057e-10
-0.000110157
-7.23322e-08
0.000110402
2.67249e-07
-0.000110157
-7.20436e-08
-4.39973e-07
0.000110402
2.66899e-07
9.30473e-12
-5.46243e-08
2.33806e-07
-5.43922e-08
-4.45382e-07
2.33525e-07
-8.40978e-11
-0.00010568
0.000106037
-0.00010568
-4.29246e-07
0.000106037
-2.10105e-10
-4.32921e-07
-3.0219e-07
-0.000110311
-5.04328e-07
0.000110535
1.42407e-07
-0.000110568
-6.46328e-07
2.35511e-06
0.000110751
-2.19402e-06
-3.07242e-07
-4.86643e-07
1.03723e-07
-6.33354e-07
2.34824e-06
-2.22534e-06
-1.26161e-06
-0.000105953
0.000106281
-0.000106439
-2.17845e-06
0.00010671
-1.26806e-06
-2.1891e-06
1.98106e-06
-0.00011085
1.65531e-05
0.000110984
-1.63128e-05
-0.000111252
-1.42327e-05
0.000111298
1.6167e-05
1.97742e-06
1.65773e-05
-1.63531e-05
-1.42371e-05
1.61574e-05
1.4191e-05
-0.000107058
0.000107241
-0.000107424
0.000107383
1.41972e-05
-1.95182e-06
-0.000111322
-1.39552e-05
0.000111327
1.59021e-05
-0.000111105
1.61642e-05
-2.31355e-06
0.000111203
-1.5901e-05
-1.94667e-06
-1.39472e-05
1.58713e-05
1.61913e-05
-2.31005e-06
-1.5949e-05
-1.39191e-05
-0.000107366
0.00010733
-0.000107384
2.11959e-06
0.000107509
-1.39231e-05
2.12442e-06
2.90002e-07
-0.000110914
-6.73854e-07
0.00011105
-2.06579e-06
-0.000110732
-5.40788e-07
4.22424e-07
0.000110903
2.37542e-07
2.92861e-07
-6.52981e-07
-2.11288e-06
-5.16714e-07
4.26573e-07
1.85524e-07
1.22869e-06
-0.000106946
0.000107163
-0.000106578
4.15505e-07
0.00010685
1.23244e-06
4.17949e-07
1.67264e-10
-0.000110619
-1.15934e-07
0.000110808
3.48639e-07
-0.000110619
-1.15701e-07
-4.22042e-07
0.000110808
3.48365e-07
1.91943e-10
-9.17491e-08
3.01633e-07
-9.14728e-08
-4.26119e-07
3.01302e-07
8.18862e-11
-0.000106363
0.000106662
-0.000106363
-4.14891e-07
0.000106662
-2.16299e-11
-4.17557e-07
-2.90104e-07
-0.000110732
-5.39805e-07
0.000110903
2.36976e-07
-0.000110914
-6.74301e-07
2.31164e-06
0.000111051
-2.06409e-06
-2.92682e-07
-5.15609e-07
1.84699e-07
-6.53628e-07
2.30912e-06
-2.11151e-06
-1.22623e-06
-0.000106579
0.00010685
-0.000106949
-2.1167e-06
0.000107165
-1.2307e-06
-2.12389e-06
1.94679e-06
-0.000111107
1.61595e-05
0.000111205
-1.58927e-05
-0.000111321
-1.39527e-05
0.000111329
1.58917e-05
1.94356e-06
1.61787e-05
-1.59363e-05
-1.39373e-05
1.5858e-05
1.39138e-05
-0.000107388
0.000107517
-0.000107353
0.000107314
1.39078e-05
-1.91155e-06
-0.000111309
-1.37108e-05
0.000111276
1.56545e-05
-0.00011127
1.57717e-05
-2.26962e-06
0.000111296
-1.54392e-05
-1.91176e-06
-1.36822e-05
1.5612e-05
1.58008e-05
-2.26718e-06
-1.55122e-05
-1.3609e-05
-0.000107284
0.000107182
-0.000107606
2.06053e-06
0.000107708
-1.36354e-05
2.06868e-06
2.79691e-07
-0.000111157
-7.12108e-07
0.000111225
-1.90596e-06
-0.00011104
-5.86983e-07
4.06023e-07
0.000111142
3.58739e-07
2.81653e-07
-6.85615e-07
-1.96974e-06
-5.5704e-07
4.09576e-07
2.91608e-07
1.19062e-06
-0.000107348
0.000107506
-0.000107087
4.01167e-07
0.000107289
1.19795e-06
4.0431e-07
1.14169e-10
-0.000110963
-1.73129e-07
0.000111082
4.59606e-07
-0.000110963
-1.73086e-07
-4.05783e-07
0.000111082
4.59515e-07
1.5406e-10
-1.41372e-07
3.96038e-07
-1.41217e-07
-4.09235e-07
3.95863e-07
-5.54636e-11
-0.000106925
0.000107153
-0.000106925
-4.01324e-07
0.000107153
1.65638e-10
-4.03728e-07
-2.79512e-07
-0.00011104
-5.86924e-07
0.000111142
3.58884e-07
-0.000111157
-7.1287e-07
2.26948e-06
0.000111224
-1.90368e-06
-2.81595e-07
-5.5646e-07
2.91457e-07
-6.86196e-07
2.2662e-06
-1.96754e-06
-1.19048e-06
-0.000107086
0.000107288
-0.000107348
-2.05752e-06
0.000107502
-1.19579e-06
-2.06422e-06
1.91034e-06
-0.000111269
1.57714e-05
0.000111294
-1.54378e-05
-0.000111312
-1.37e-05
0.000111276
1.56469e-05
1.91014e-06
1.58004e-05
-1.55084e-05
-1.36763e-05
1.56033e-05
1.36272e-05
-0.000107611
0.000107697
-0.00010728
0.000107208
1.36427e-05
-1.87393e-06
-0.000111201
-1.34534e-05
0.000111087
1.54413e-05
-0.000111292
1.53383e-05
-2.22086e-06
0.000111248
-1.49476e-05
-1.87425e-06
-1.34347e-05
1.53844e-05
1.53941e-05
-2.22221e-06
-1.50424e-05
-1.33288e-05
-0.000107086
0.000106962
-0.000107752
2.00718e-06
0.000107754
-1.33392e-05
2.01097e-06
2.73063e-07
-0.000111258
-7.73553e-07
0.000111244
-1.70689e-06
-0.000111204
-6.49996e-07
3.92091e-07
0.000111222
5.12683e-07
2.73196e-07
-7.34752e-07
-1.79292e-06
-6.10252e-07
3.94614e-07
4.27336e-07
1.15979e-06
-0.00010762
0.000107693
-0.00010745
3.89733e-07
0.00010757
1.16258e-06
3.91422e-07
5.533e-11
-0.00011116
-2.46705e-07
0.000111193
6.05247e-07
-0.00011116
-2.46449e-07
-3.92101e-07
0.000111194
6.04954e-07
6.77353e-11
-2.05789e-07
5.22884e-07
-2.05726e-07
-3.94596e-07
5.22759e-07
1.65388e-10
-0.000107339
0.000107482
-0.000107339
-3.89133e-07
0.000107482
6.03716e-11
-3.91523e-07
-2.73995e-07
-0.000111204
-6.49077e-07
0.000111223
5.1194e-07
-0.000111257
-7.72854e-07
2.21759e-06
0.000111246
-1.70714e-06
-2.73682e-07
-6.10284e-07
4.27296e-07
-7.35782e-07
2.22068e-06
-1.79153e-06
-1.15887e-06
-0.00010745
0.000107571
-0.000107617
-2.00857e-06
0.000107694
-1.16407e-06
-2.01518e-06
1.87108e-06
-0.000111292
1.53377e-05
0.000111245
-1.49435e-05
-0.000111201
-1.34603e-05
0.000111092
1.54397e-05
1.86981e-06
1.53943e-05
-1.50414e-05
-1.34371e-05
1.53817e-05
1.33153e-05
-0.000107743
0.000107757
-0.000107104
0.000106959
1.33332e-05
-1.83366e-06
-0.000110927
-1.32403e-05
0.000110725
1.52764e-05
-0.00011116
1.48913e-05
-2.16608e-06
0.000111012
-1.44105e-05
-1.83405e-06
-1.32043e-05
1.5198e-05
1.49587e-05
-2.17002e-06
-1.45349e-05
-1.302e-05
-0.000106794
0.000106574
-0.000107714
1.95168e-06
0.000107633
-1.30366e-05
1.96263e-06
2.70379e-07
-0.000111188
-8.50417e-07
0.000111076
-1.47337e-06
-0.000111192
-7.3477e-07
3.79519e-07
0.000111107
7.10454e-07
2.68844e-07
-8.04575e-07
-1.57839e-06
-6.83752e-07
3.81535e-07
6.01369e-07
1.12867e-06
-0.000107718
0.00010769
-0.00010764
3.77285e-07
0.000107657
1.13363e-06
3.7959e-07
8.43992e-11
-0.000111177
-3.39315e-07
0.000111107
7.89225e-07
-0.000111177
-3.39054e-07
-3.79117e-07
0.000111107
7.88861e-07
5.90414e-11
-2.87888e-07
6.85521e-07
-2.87544e-07
-3.81322e-07
6.85117e-07
-2.01642e-11
-0.000107573
0.000107611
-0.000107573
-3.77128e-07
0.000107611
-1.51707e-12
-3.7918e-07
-2.69527e-07
-0.000111193
-7.33884e-07
0.000111108
7.09642e-07
-0.00011119
-8.51618e-07
2.16712e-06
0.000111077
-1.47159e-06
-2.69007e-07
-6.82305e-07
6.00274e-07
-8.03347e-07
2.16817e-06
-1.5783e-06
-1.12777e-06
-0.000107641
0.000107658
-0.00010772
-1.95441e-06
0.000107695
-1.13153e-06
-1.96105e-06
1.83247e-06
-0.000111153
1.48674e-05
0.000111011
-1.43907e-05
-0.000110934
-1.32163e-05
0.000110728
1.52555e-05
1.83588e-06
1.49458e-05
-1.45222e-05
-1.31926e-05
1.51866e-05
1.29835e-05
-0.000107716
0.000107645
-0.000106792
0.00010656
1.30263e-05
-1.79311e-06
-0.000110459
-1.30388e-05
0.000110133
1.51583e-05
-0.000110819
1.44148e-05
-2.11429e-06
0.000110558
-1.38327e-05
-1.79462e-06
-1.29924e-05
1.50525e-05
1.44919e-05
-2.11612e-06
-1.39775e-05
-1.26941e-05
-0.000106296
0.000105952
-0.000107497
1.91272e-06
0.000107305
-1.27151e-05
1.91266e-06
2.6875e-07
-0.00011091
-9.52632e-07
0.000110677
-1.19678e-06
-0.000110965
-8.39373e-07
3.68039e-07
0.000110757
9.482e-07
2.6662e-07
-8.90303e-07
-1.327e-06
-7.76692e-07
3.69585e-07
8.15488e-07
1.10088e-06