/*--------------------------------*- C++ -*----------------------------------*\
  =========                 |
  \\      /  F ield         | OpenFOAM: The Open Source CFD Toolbox
   \\    /   O peration     | Website:  https://openfoam.org
    \\  /    A nd           | Version:  9
     \\/     M anipulation  |
\*---------------------------------------------------------------------------*/
FoamFile
{
    format      ascii;
    class       volVectorField;
    location    "2.9";
    object      U;
}
// * * * * * * * * * * * * * * * * * * * * * * * * * * * * * * * * * * * * * //

dimensions      [0 1 -1 0 0 0 0];

internalField   nonuniform List<vector> 
36360
(
(0.0271772 -0.270135 -0.939471)
(-0.0212294 -0.187211 0.00198211)
(0.0262431 -0.293899 -0.965862)
(-0.0230675 -0.162025 0.00133201)
(0.0321376 -0.345825 -0.985477)
(-0.0210502 -0.138289 -0.000647501)
(0.0488853 -0.393483 -0.996299)
(-0.0278989 -0.10172 -0.000487017)
(0.00474379 -0.190137 -0.00122778)
(0.00645254 -0.196799 -0.000187757)
(0.00215105 -0.186608 -0.000958675)
(0.00319114 -0.194914 -0.000104799)
(0.0132887 -0.171082 0.000677759)
(0.0112417 -0.203249 1.63787e-06)
(0.0142611 -0.18116 0.000355581)
(0.0131858 -0.215394 -4.02848e-05)
(0.00554499 -0.200385 -1.31418e-05)
(0.00554479 -0.200385 1.31122e-05)
(0.00215309 -0.198442 -1.15305e-06)
(0.00215255 -0.198442 1.16303e-06)
(0.0102124 -0.214074 -9.35896e-06)
(0.0102126 -0.214076 9.29811e-06)
(0.0123857 -0.22452 -1.37957e-05)
(0.012386 -0.224522 1.3754e-05)
(0.00645249 -0.196799 0.000187685)
(0.00474634 -0.190135 0.00122751)
(0.00319025 -0.194913 0.000104753)
(0.00215286 -0.186608 0.000958334)
(0.011243 -0.203258 -1.59232e-06)
(0.0132912 -0.171092 -0.000677206)
(0.0131863 -0.215403 4.02905e-05)
(0.014263 -0.181176 -0.000355228)
(-0.0212207 -0.187199 -0.00198152)
(0.0271656 -0.270131 0.939501)
(-0.0230589 -0.162018 -0.00133137)
(0.0262304 -0.293885 0.965888)
(-0.0210361 -0.138282 0.000646726)
(0.0321266 -0.345811 0.985483)
(-0.0278837 -0.101725 0.000486491)
(0.048865 -0.393449 0.996304)
(0.0354365 -0.252448 -0.918969)
(-0.0279934 -0.197787 0.000794136)
(0.0331583 -0.261895 -0.929728)
(-0.0248388 -0.192062 0.00139147)
(0.0336937 -0.29844 -0.985402)
(-0.0339294 -0.159147 -0.00238518)
(0.0320285 -0.315797 -0.98788)
(-0.0284184 -0.145604 -0.00139917)
(0.000806979 -0.191497 -0.000425502)
(0.00565784 -0.195358 3.76673e-05)
(0.00313673 -0.189894 -0.000738719)
(0.00685929 -0.195898 -0.000104459)
(0.00685621 -0.161994 0.0020421)
(0.00646303 -0.185268 0.000364506)
(0.00982344 -0.162217 0.00140758)
(0.00909228 -0.19098 0.000153319)
(0.00588191 -0.198608 5.59921e-06)
(0.00588221 -0.198608 -5.69232e-06)
(0.00663479 -0.199582 -1.245e-05)
(0.00663498 -0.199582 1.23892e-05)
(0.00596988 -0.196046 3.02302e-05)
(0.00597023 -0.196047 -3.05007e-05)
(0.00839365 -0.202479 4.58397e-06)
(0.00839408 -0.202482 -4.67216e-06)
(0.00565915 -0.195358 -3.75185e-05)
(0.000810542 -0.191494 0.000425401)
(0.00686025 -0.195898 0.000104477)
(0.00314027 -0.189891 0.000738673)
(0.0064644 -0.185272 -0.000364242)
(0.00685848 -0.161995 -0.00204123)
(0.009094 -0.190986 -0.000153179)
(0.00982636 -0.162223 -0.00140684)
(-0.0279853 -0.197778 -0.000794492)
(0.0354262 -0.252445 0.919)
(-0.0248301 -0.192052 -0.00139148)
(0.0331483 -0.261891 0.929758)
(-0.0339177 -0.159134 0.00238351)
(0.0336823 -0.298432 0.985409)
(-0.0284047 -0.145594 0.00139795)
(0.0320182 -0.315787 0.987886)
(0.0364106 -0.237055 -0.901377)
(-0.0312153 -0.202508 -0.000203827)
(0.0361804 -0.243855 -0.90935)
(-0.0298519 -0.200824 0.000266476)
(0.0337781 -0.265281 -0.981485)
(-0.0380899 -0.177162 -0.00417461)
(0.0338732 -0.280392 -0.983276)
(-0.036484 -0.169471 -0.00332268)
(-0.00204119 -0.193974 -0.000157215)
(0.00291603 -0.194163 0.00036509)
(-0.000874403 -0.192792 -0.000245191)
(0.004142 -0.194594 0.000208164)
(0.00481798 -0.16669 0.00288893)
(0.00302041 -0.179009 0.00083241)
(0.00522785 -0.163734 0.00253426)
(0.00440463 -0.181259 0.000601918)
(0.00358 -0.196005 0.000100193)
(0.00357977 -0.196005 -0.000100645)
(0.00466228 -0.19718 4.62414e-05)
(0.00466259 -0.19718 -4.64708e-05)
(0.00295308 -0.187348 0.000125607)
(0.00295279 -0.187348 -0.000126933)
(0.00412836 -0.190975 7.23015e-05)
(0.00412865 -0.190977 -7.28307e-05)
(0.00291805 -0.194161 -0.000365487)
(-0.00203764 -0.19397 0.000157078)
(0.00414344 -0.194593 -0.000208194)
(-0.000870859 -0.192788 0.000245039)
(0.003022 -0.17901 -0.000835444)
(0.00481865 -0.166686 -0.00288667)
(0.00440571 -0.18126 -0.000602063)
(0.0052287 -0.163731 -0.00253349)
(-0.0312081 -0.2025 0.000203407)
(0.0364016 -0.237054 0.901409)
(-0.0298443 -0.200816 -0.000266964)
(0.0361714 -0.243853 0.909382)
(-0.0380804 -0.177149 0.0041738)
(0.0337684 -0.265279 0.981493)
(-0.0364737 -0.169457 0.00332093)
(0.0338638 -0.280388 0.983283)
(0.0366826 -0.227352 -0.887668)
(-0.0332135 -0.204115 -0.000988973)
(0.0365262 -0.231672 -0.893822)
(-0.0323029 -0.203509 -0.000623901)
(0.0337306 -0.244016 -0.978408)
(-0.0403378 -0.186941 -0.00559758)
(0.0336737 -0.253405 -0.979819)
(-0.0392778 -0.182841 -0.0049331)
(-0.00325882 -0.196074 -0.000162133)
(0.00148586 -0.194301 0.000610357)
(-0.00278842 -0.195055 -0.000137148)
(0.0020578 -0.194089 0.00050182)
(0.00502815 -0.173477 0.00327527)
(0.00167112 -0.178145 0.00121733)
(0.00483113 -0.170093 0.00312503)
(0.00216127 -0.178119 0.00104209)
(0.00207023 -0.19478 0.000202694)
(0.00207039 -0.194779 -0.000202607)
(0.00272254 -0.195204 0.000154769)
(0.00272288 -0.195203 -0.000154827)
(0.00154213 -0.183374 0.000241257)
(0.00154239 -0.183374 -0.000241176)
(0.00215065 -0.184911 0.000184414)
(0.00215102 -0.184911 -0.000184577)
(0.00148643 -0.194299 -0.000610238)
(-0.00325681 -0.196069 0.000161855)
(0.00205854 -0.194087 -0.000501775)
(-0.00278601 -0.195051 0.000136842)
(0.00167135 -0.178143 -0.00121697)
(0.00502767 -0.17347 -0.00327484)
(0.00216169 -0.178119 -0.00104155)
(0.00483091 -0.170088 -0.00312488)
(-0.0332074 -0.204109 0.000988267)
(0.0366742 -0.227351 0.887699)
(-0.0322964 -0.203503 0.000623209)
(0.0365181 -0.231671 0.893854)
(-0.0403298 -0.186929 0.00559539)
(0.033722 -0.244016 0.978414)
(-0.0392691 -0.182829 0.00493088)
(0.0336657 -0.253404 0.979826)
(0.0371184 -0.221087 -0.876763)
(-0.0346433 -0.204735 -0.0015691)
(0.0368747 -0.223883 -0.881602)
(-0.0339757 -0.204487 -0.00130201)
(0.0340113 -0.230555 -0.975933)
(-0.0420894 -0.191996 -0.00666798)
(0.0338026 -0.236545 -0.97706)
(-0.0412218 -0.189879 -0.00617208)
(-0.00376334 -0.19789 -0.000287252)
(0.000867952 -0.195259 0.000747696)
(-0.00355679 -0.197017 -0.000215576)
(0.00111401 -0.194709 0.000690844)
(0.00552205 -0.179417 0.00340165)
(0.00132783 -0.179613 0.00146897)
(0.0052874 -0.176611 0.00336084)
(0.0014447 -0.178693 0.00135871)
(0.00121478 -0.194866 0.00027495)
(0.00121481 -0.194865 -0.000274752)
(0.00158036 -0.19469 0.000242095)
(0.00158046 -0.194689 -0.000241937)
(0.000675564 -0.182252 0.000337274)
(0.000675743 -0.182251 -0.000337035)
(0.00105011 -0.182536 0.000292683)
(0.00105033 -0.182536 -0.0002925)
(0.00086816 -0.195256 -0.000747538)
(-0.00376179 -0.197886 0.000286943)
(0.00111439 -0.194707 -0.000690693)
(-0.00355504 -0.197012 0.000215285)
(0.00132771 -0.17961 -0.00146857)
(0.00552146 -0.17941 -0.00340131)
(0.00144476 -0.178691 -0.00135833)
(0.00528684 -0.176604 -0.00336044)
(-0.0346379 -0.20473 0.0015684)
(0.0371106 -0.221086 0.876792)
(-0.03397 -0.204482 0.0013013)
(0.0368671 -0.223882 0.881632)
(-0.0420821 -0.191986 0.00666585)
(0.0340036 -0.230556 0.975939)
(-0.041214 -0.189869 0.00616992)
(0.0337955 -0.236545 0.977066)
(0.0376196 -0.217003 -0.867909)
(-0.0357241 -0.205068 -0.00198827)
(0.0373581 -0.21883 -0.871768)
(-0.0352125 -0.204915 -0.00179533)
(0.03444 -0.221795 -0.973916)
(-0.0434894 -0.194705 -0.00745934)
(0.0341779 -0.225726 -0.974824)
(-0.0427927 -0.193551 -0.00709283)
(-0.00401811 -0.199454 -0.000450944)
(0.000629763 -0.19661 0.000802931)
(-0.00390727 -0.198699 -0.000367294)
(0.000721473 -0.195904 0.000783481)
(0.00588915 -0.18402 0.00339918)
(0.0013162 -0.181953 0.00160701)
(0.00572844 -0.181877 0.00341047)
(0.00129835 -0.180728 0.00154972)
(0.000753858 -0.19575 0.000319053)
(0.000753812 -0.19575 -0.000318815)
(0.000949066 -0.195237 0.000300322)
(0.000949061 -0.195236 -0.0003001)
(0.000175768 -0.182807 0.000404149)
(0.000175852 -0.182806 -0.000403853)
(0.000392437 -0.182379 0.000374387)
(0.000392567 -0.182378 -0.000374115)
(0.000629773 -0.196608 -0.000802784)
(-0.00401683 -0.19945 0.000450606)
(0.000721578 -0.195901 -0.000783328)
(-0.00390585 -0.198695 0.000366967)
(0.00131581 -0.18195 -0.00160664)
(0.00588859 -0.184012 -0.00339896)
(0.00129809 -0.180724 -0.00154933)
(0.00572786 -0.18187 -0.00341019)
(-0.0357191 -0.205063 0.00198759)
(0.0376126 -0.217002 0.867937)
(-0.0352073 -0.204911 0.00179462)
(0.0373512 -0.21883 0.871796)
(-0.0434828 -0.194697 0.0074573)
(0.0344331 -0.221796 0.973922)
(-0.0427856 -0.193542 0.00709075)
(0.0341716 -0.225726 0.97483)
(0.0380827 -0.214335 -0.860567)
(-0.0365772 -0.20538 -0.00229202)
(0.0378482 -0.215526 -0.863716)
(-0.03617 -0.205218 -0.00215161)
(0.0348638 -0.215929 -0.972254)
(-0.0446051 -0.196279 -0.00804682)
(0.034616 -0.218577 -0.972995)
(-0.0440422 -0.195583 -0.00777398)
(-0.00415753 -0.200831 -0.000612957)
(0.00055021 -0.198111 0.000805941)
(-0.00409216 -0.200162 -0.000533003)
(0.000578237 -0.197352 0.000809037)
(0.00612401 -0.187501 0.0033411)
(0.00142754 -0.184511 0.001668)
(0.00602608 -0.18588 0.00337397)
(0.0013646 -0.183229 0.00164488)
(0.000514545 -0.197057 0.00033937)
(0.000514433 -0.197056 -0.000339121)
(0.000613793 -0.196368 0.000331598)
(0.000613712 -0.196367 -0.000331351)
(-0.000116716 -0.184273 0.000443818)
(-0.000116738 -0.184271 -0.000443505)
(9.5455e-06 -0.183461 0.000426973)
(9.5758e-06 -0.18346 -0.000426662)
(0.000550065 -0.198109 -0.000805798)
(-0.00415645 -0.200827 0.000612626)
(0.000578163 -0.19735 -0.000808894)
(-0.00409098 -0.200158 0.00053266)
(0.00142693 -0.184507 -0.00166765)
(0.00612351 -0.187494 -0.00334093)
(0.0013641 -0.183225 -0.00164452)
(0.00602556 -0.185873 -0.00337379)
(-0.0365727 -0.205377 0.00229137)
(0.0380764 -0.214335 0.860594)
(-0.0361652 -0.205214 0.00215093)
(0.037842 -0.215526 0.863743)
(-0.0445992 -0.196273 0.0080449)
(0.0348576 -0.21593 0.97226)
(-0.0440359 -0.195576 0.007772)
(0.0346104 -0.218578 0.973)
(0.0384766 -0.212619 -0.854369)
(-0.0372384 -0.205767 -0.00251436)
(0.0382774 -0.21338 -0.856952)
(-0.0369207 -0.205563 -0.00241107)
(0.0352247 -0.21193 -0.970867)
(-0.0454688 -0.197345 -0.00848677)
(0.0350082 -0.213743 -0.971472)
(-0.0450234 -0.196852 -0.00828174)
(-0.00427053 -0.20209 -0.000758853)
(0.000534268 -0.199634 0.00078096)
(-0.00421331 -0.20147 -0.000687803)
(0.000538273 -0.198875 0.000795575)
(0.00624897 -0.190202 0.00326325)
(0.00156605 -0.187002 0.00168221)
(0.00620127 -0.188927 0.003303)
(0.00149789 -0.185773 0.00167935)
(0.000400129 -0.198557 0.000344042)
(0.000399999 -0.198557 -0.000343822)
(0.000446012 -0.197792 0.000342937)
(0.000445883 -0.197791 -0.000342697)
(-0.000273859 -0.186177 0.000462942)
(-0.000273923 -0.186176 -0.000462688)
(-0.000210047 -0.18519 0.000455463)
(-0.000210108 -0.185189 -0.000455169)
(0.000534049 -0.199632 -0.000780814)
(-0.00426964 -0.202087 0.000758604)
(0.000538072 -0.198872 -0.00079543)
(-0.00421233 -0.201467 0.0006875)
(0.00156529 -0.186998 -0.00168187)
(0.00624846 -0.190197 -0.00326298)
(0.00149719 -0.18577 -0.001679)
(0.00620079 -0.188921 -0.0033028)
(-0.0372344 -0.205764 0.00251384)
(0.0384709 -0.212618 0.854394)
(-0.0369164 -0.205559 0.00241045)
(0.0382719 -0.213379 0.856977)
(-0.0454635 -0.197339 0.00848518)
(0.0352192 -0.21193 0.970871)
(-0.0450176 -0.196846 0.00827993)
(0.0350033 -0.213743 0.971478)
(0.0387896 -0.211555 -0.849031)
(-0.0377475 -0.206245 -0.00267638)
(0.0386317 -0.212019 -0.851171)
(-0.0375015 -0.205996 -0.00260083)
(0.0355042 -0.209176 -0.969286)
(-0.0461155 -0.198192 -0.00881931)
(0.035325 -0.210426 -0.970191)
(-0.0457699 -0.197785 -0.00866352)
(-0.00437116 -0.20328 -0.000885242)
(0.000530245 -0.201132 0.00074173)
(-0.00432018 -0.202694 -0.000824121)
(0.000533227 -0.200387 0.000762136)
(0.00634382 -0.192408 0.00318304)
(0.00166086 -0.189338 0.00167046)
(0.00630124 -0.191355 0.00322233)
(0.0016205 -0.188189 0.00167838)
(0.000353227 -0.200122 0.000341636)
(0.00035317 -0.200122 -0.000341483)
(0.000371591 -0.199337 0.000343439)
(0.000371482 -0.199336 -0.000343245)
(-0.00033119 -0.188263 0.00046885)
(-0.000331191 -0.188261 -0.000468699)
(-0.000309159 -0.187208 0.000467099)
(-0.000309188 -0.187206 -0.000466895)
(0.000530258 -0.20113 -0.000741651)
(-0.00437044 -0.203277 0.000885048)
(0.000533065 -0.200385 -0.000762013)
(-0.00431929 -0.202691 0.00082392)
(0.00166038 -0.189334 -0.00167029)
(0.00634342 -0.192402 -0.00318296)
(0.00161987 -0.188186 -0.0016781)
(0.00630067 -0.19135 -0.00322199)
(-0.0377457 -0.206243 0.00267622)
(0.0387846 -0.211555 0.849054)
(-0.0374978 -0.205993 0.00260047)
(0.0386263 -0.212019 0.851195)
(-0.0461106 -0.198188 0.00881999)
(0.0354979 -0.209179 0.968943)
(-0.0457648 -0.19778 0.00866251)
(0.0353206 -0.210427 0.970196)
(0.0389803 -0.210952 -0.84433)
(-0.0381035 -0.206805 -0.00279655)
(0.0388848 -0.211205 -0.846161)
(-0.0379313 -0.206516 -0.00273981)
(0.035697 -0.207287 -0.968682)
(-0.0465888 -0.19896 -0.00906574)
(0.035561 -0.208138 -0.968691)
(-0.0463228 -0.198581 -0.00895005)
(-0.00445155 -0.204414 -0.000990831)
(0.000530066 -0.20259 0.000699015)
(-0.00441185 -0.203852 -0.000939844)
(0.000529618 -0.201867 0.000720161)
(0.00641186 -0.194281 0.0031059)
(0.00172401 -0.191518 0.00164554)
(0.00638647 -0.193377 0.00314351)
(0.00169542 -0.190448 0.00165882)
(0.000340069 -0.201687 0.000334714)
(0.000340246 -0.201686 -0.000334769)
(0.000343446 -0.200908 0.000338395)
(0.000343483 -0.200907 -0.000338301)
(-0.000347317 -0.190387 0.000466665)
(-0.000347217 -0.190386 -0.000466956)
(-0.000342781 -0.189326 0.000468474)
(-0.000342735 -0.189325 -0.000468394)
(0.000530733 -0.202588 -0.000699174)
(-0.00445074 -0.204412 0.000990461)
(0.000529898 -0.201865 -0.000720129)
(-0.0044113 -0.20385 0.000939708)
(0.00172422 -0.191515 -0.00164612)
(0.00641268 -0.194275 -0.00310738)
(0.0016952 -0.190444 -0.00165873)
(0.00638646 -0.193372 -0.00314321)
(-0.0380982 -0.206804 0.0027966)
(0.0389667 -0.210951 0.844353)
(-0.0379287 -0.206513 0.00273993)
(0.0388778 -0.211205 0.846183)
(-0.046583 -0.198955 0.00907546)
(0.0356829 -0.207291 0.965831)
(-0.046318 -0.198575 0.00895215)
(0.0355538 -0.208145 0.968339)
(0.0390561 -0.210677 -0.84017)
(-0.0383288 -0.207438 -0.00288549)
(0.0390283 -0.210779 -0.841731)
(-0.0382312 -0.207113 -0.00284347)
(0.0358028 -0.206015 -0.961841)
(-0.0469236 -0.199717 -0.00926545)
(0.0357113 -0.206596 -0.96588)
(-0.0467219 -0.199333 -0.00917245)
(-0.00450766 -0.205517 -0.0010762)
(0.000537093 -0.203994 0.000658406)
(-0.00448082 -0.204969 -0.00103507)
(0.00053317 -0.203299 0.000678153)
(0.00645186 -0.19594 0.00304131)
(0.00176872 -0.193545 0.0016176)
(0.00643887 -0.195131 0.00307227)
(0.00174885 -0.19255 0.00163179)
(0.000346386 -0.203212 0.000325774)
(0.000346625 -0.203211 -0.000325884)
(0.000341577 -0.202455 0.000330258)
(0.000341871 -0.202455 -0.000330431)
(-0.000346133 -0.192467 0.000460865)
(-0.000345954 -0.192466 -0.000461588)
(-0.000347661 -0.191436 0.000464034)
(-0.00034751 -0.191435 -0.00046476)
(0.000537525 -0.203993 -0.000658436)
(-0.00451082 -0.205515 0.0010763)
(0.00053408 -0.203297 -0.000678412)
(-0.00448069 -0.204967 0.00103466)
(0.00176939 -0.193542 -0.00161848)
(0.00645312 -0.195935 -0.00304192)
(0.00174949 -0.192547 -0.00163299)
(0.00644042 -0.195126 -0.00307493)
(-0.0383607 -0.207438 0.00288626)
(0.0390894 -0.210678 0.840191)
(-0.0382376 -0.207113 0.00284365)
(0.0390276 -0.21078 0.841754)
(-0.0469173 -0.199718 0.00927448)
(0.0357979 -0.206013 0.961671)
(-0.0467151 -0.199335 0.00918744)
(0.0356971 -0.206591 0.962093)
(0.0391583 -0.210639 -0.836384)
(-0.0385293 -0.208123 -0.00295231)
(0.0390853 -0.210635 -0.837761)
(-0.0384181 -0.207776 -0.00292046)
(0.0358638 -0.205192 -0.961871)
(-0.0471372 -0.200496 -0.00940862)
(0.0357935 -0.205556 -0.962166)
(-0.0469951 -0.20011 -0.00934058)
(-0.00454781 -0.206589 -0.00114512)
(0.000550434 -0.205337 0.000621866)
(-0.00452624 -0.206057 -0.00111194)
(0.000543408 -0.204674 0.00063939)
(0.00647377 -0.197454 0.00298218)
(0.00180061 -0.195429 0.00158929)
(0.00646866 -0.196713 0.00300959)
(0.00178631 -0.194504 0.00160311)
(0.000365991 -0.204677 0.000316595)
(0.000366015 -0.204676 -0.000316411)
(0.000354758 -0.203953 0.000321093)
(0.000354828 -0.203953 -0.000320869)
(-0.000333667 -0.194457 0.000454099)
(-0.000333563 -0.194455 -0.000452958)
(-0.000340636 -0.193475 0.000457665)
(-0.000340532 -0.193473 -0.000457087)
(0.000550004 -0.205336 -0.000621663)
(-0.00455502 -0.206587 0.00114531)
(0.000543039 -0.204673 -0.000639052)
(-0.00453267 -0.206056 0.00111239)
(0.00180126 -0.195425 -0.00158779)
(0.00647548 -0.19745 -0.00297955)
(0.00178688 -0.194501 -0.00160209)
(0.00646992 -0.196707 -0.00300695)
(-0.0385333 -0.208122 0.00295287)
(0.039169 -0.210639 0.836405)
(-0.0384334 -0.207775 0.00292104)
(0.0391085 -0.210635 0.837782)
(-0.0471307 -0.200494 0.00940033)
(0.0358592 -0.205202 0.963272)
(-0.0469892 -0.200104 0.0093348)
(0.0357925 -0.205561 0.964309)
(0.0391948 -0.210756 -0.832984)
(-0.0386171 -0.208834 -0.00300097)
(0.0391524 -0.210681 -0.83413)
(-0.0385585 -0.208477 -0.00297711)
(0.0358794 -0.204699 -0.962528)
(-0.0472563 -0.201289 -0.00949782)
(0.0358277 -0.204918 -0.962771)
(-0.0471535 -0.200886 -0.00945156)
(-0.00456883 -0.207622 -0.00119921)
(0.00057331 -0.206609 0.000590229)
(-0.00455841 -0.207111 -0.0011732)
(0.000560788 -0.205983 0.000605021)
(0.00648636 -0.19886 0.00292826)
(0.00182549 -0.19718 0.00156032)
(0.00648574 -0.198169 0.00295238)
(0.00181408 -0.19632 0.00157359)
(0.000398167 -0.206062 0.00030733)
(0.000398254 -0.206061 -0.000308188)
(0.000380533 -0.20538 0.000311567)
(0.000380677 -0.205379 -0.000312217)
(-0.000314491 -0.196335 0.00044459)
(-0.000314329 -0.196335 -0.00044672)
(-0.0003245 -0.195411 0.000448847)
(-0.000324314 -0.19541 -0.000450265)
(0.00057345 -0.206608 -0.000590896)
(-0.00457148 -0.20762 0.001199)
(0.000561213 -0.205981 -0.000605678)
(-0.00456153 -0.20711 0.00117261)
(0.00182587 -0.197179 -0.00156308)
(0.00648733 -0.198859 -0.00293199)
(0.00181482 -0.196318 -0.00157594)
(0.00648749 -0.198166 -0.00295702)
(-0.0386595 -0.208833 0.00300276)
(0.0392361 -0.210757 0.833006)
(-0.0385992 -0.208477 0.00297829)
(0.0391928 -0.210681 0.834153)
(-0.0472488 -0.201287 0.0095213)
(0.0358714 -0.2047 0.9592)
(-0.0471448 -0.200888 0.00947182)
(0.0358177 -0.204918 0.959006)
(0.0393406 -0.210966 -0.829782)
(-0.0387461 -0.209539 -0.00303668)
(0.0392665 -0.210854 -0.830829)
(-0.0386934 -0.20919 -0.00301863)
(0.0358628 -0.204384 -0.961865)
(-0.0472763 -0.202092 -0.00957809)
(0.0358193 -0.204523 -0.958226)
(-0.0472173 -0.201694 -0.00955423)
(-0.00457092 -0.208599 -0.0012397)
(0.000609895 -0.207796 0.000564621)
(-0.00456997 -0.208119 -0.00121925)
(0.000590175 -0.207214 0.000577026)
(0.00649294 -0.200182 0.00288848)
(0.00184981 -0.198809 0.00153772)
(0.00649541 -0.199531 0.00291208)
(0.00183764 -0.19801 0.00155024)
(0.000446063 -0.207352 0.00029974)
(0.000446262 -0.207352 -0.000299966)
(0.00041986 -0.20672 0.000303458)
(0.000419868 -0.206719 -0.000303726)
(-0.000285217 -0.198088 0.000437981)
(-0.000285216 -0.198087 -0.000438284)
(-0.000301674 -0.197228 0.000441875)
(-0.000301647 -0.197228 -0.000442027)
(0.000610958 -0.207795 -0.000564884)
(-0.00457036 -0.208597 0.00123946)
(0.00058988 -0.207213 -0.000577042)
(-0.00457455 -0.208117 0.00121972)
(0.00184994 -0.198807 -0.00153836)
(0.00649402 -0.20018 -0.00289024)
(0.00183766 -0.198008 -0.0015498)
(0.00649589 -0.199529 -0.00290948)
(-0.038751 -0.209536 0.00303775)
(0.0393345 -0.210966 0.829797)
(-0.0387014 -0.209187 0.00302027)
(0.0392749 -0.210854 0.830849)
(-0.0472691 -0.202086 0.00959237)
(0.0358441 -0.204395 0.958432)
(-0.0472116 -0.201687 0.00955712)
(0.035812 -0.204531 0.958668)
(0.0393954 -0.211205 -0.826846)
(-0.038743 -0.210192 -0.00306008)
(0.0393656 -0.211086 -0.827715)
(-0.0387463 -0.209872 -0.00304875)
(0.0357973 -0.20422 -0.961529)
(-0.0472175 -0.202859 -0.00961767)
(0.0357951 -0.204296 -0.965343)
(-0.0472048 -0.202477 -0.0095912)
(-0.00453119 -0.209492 -0.00126915)
(0.00066523 -0.208878 0.00054367)
(-0.00455578 -0.209058 -0.00125544)
(0.000635818 -0.208352 0.000553177)
(0.00649891 -0.201404 0.00285181)
(0.00189439 -0.200301 0.00151532)
(0.00649979 -0.200806 0.00286526)
(0.00186799 -0.199573 0.00152504)
(0.000516186 -0.208524 0.000292362)
(0.000515963 -0.208524 -0.000292672)
(0.000478295 -0.207955 0.000295873)
(0.000478523 -0.207955 -0.000296371)
(-0.000230459 -0.199696 0.000430091)
(-0.00023086 -0.199696 -0.000431145)
(-0.000260047 -0.19891 0.000433634)
(-0.000260133 -0.19891 -0.000434957)
(0.000665579 -0.208878 -0.000543986)
(-0.00452314 -0.209491 0.00126887)
(0.000637752 -0.208351 -0.000553786)
(-0.00454782 -0.209056 0.00125468)
(0.00189262 -0.2003 -0.00151639)
(0.00649711 -0.201401 -0.00285244)
(0.00186769 -0.199572 -0.00152758)
(0.0065004 -0.200805 -0.00287131)
(-0.0387199 -0.210191 0.00306197)
(0.0393547 -0.211206 0.826502)
(-0.0387439 -0.209872 0.00304969)
(0.0393418 -0.211086 0.82773)
(-0.0472162 -0.202858 0.00963634)
(0.0357856 -0.204221 0.95836)
(-0.0471982 -0.202476 0.00962093)
(0.0357723 -0.204297 0.957917)
(0.0394053 -0.211431 -0.822322)
(-0.0386335 -0.21075 -0.003077)
(0.0393656 -0.211325 -0.824856)
(-0.0386689 -0.210485 -0.00306689)
(0.0356501 -0.204073 -0.963522)
(-0.0470439 -0.203593 -0.00963274)
(0.0357155 -0.204137 -0.961106)
(-0.0471196 -0.20324 -0.00962574)
(-0.00444155 -0.210262 -0.00128741)
(0.000747436 -0.209813 0.000527674)
(-0.00448845 -0.209895 -0.00127864)
(0.000701816 -0.209367 0.000534906)
(0.00651023 -0.202499 0.00281555)
(0.0019584 -0.201631 0.00149491)
(0.0065047 -0.201972 0.00283368)
(0.0019252 -0.200989 0.00150458)
(0.000617358 -0.209542 0.000285291)
(0.000616424 -0.209542 -0.00028497)
(0.000562026 -0.209055 0.00028849)
(0.000561276 -0.209054 -0.000288527)
(-0.000159479 -0.201141 0.000423348)
(-0.000160255 -0.201141 -0.000423368)
(-0.000196387 -0.200441 0.000426474)
(-0.000197112 -0.200441 -0.000426998)
(0.000745381 -0.209813 -0.000527447)
(-0.00443722 -0.210261 0.00128732)
(0.000700062 -0.209366 -0.000534974)
(-0.00448595 -0.209894 0.00127821)
(0.00195572 -0.201632 -0.00149571)
(0.00650799 -0.2025 -0.00282042)
(0.00192245 -0.200988 -0.00150516)
(0.00650185 -0.201968 -0.00283493)
(-0.0386118 -0.210746 0.00307539)
(0.039371 -0.211433 0.824078)
(-0.03866 -0.21048 0.00306786)
(0.0393482 -0.211328 0.824507)
(-0.0470301 -0.203587 0.00965238)
(0.0356231 -0.204072 0.956631)
(-0.0471148 -0.203233 0.00964243)
(0.035705 -0.204146 0.957879)
(0.039534 -0.211526 -0.820659)
(-0.0385458 -0.211204 -0.00308728)
(0.0394468 -0.211501 -0.820395)
(-0.0385821 -0.210991 -0.00308149)
(0.0353925 -0.203966 -0.955991)
(-0.0467038 -0.204161 -0.00966982)
(0.0354655 -0.204025 -0.959104)
(-0.0468189 -0.203901 -0.00965159)
(-0.00430208 -0.210879 -0.00129623)
(0.000876796 -0.210567 0.000516571)
(-0.00437711 -0.210592 -0.00129128)
(0.000805866 -0.210215 0.000521566)
(0.00654644 -0.203416 0.0027977)
(0.00203546 -0.202769 0.00148128)
(0.0065315 -0.202981 0.00280538)
(0.00199581 -0.202226 0.00148748)
(0.000761059 -0.210369 0.000279471)
(0.000760355 -0.210369 -0.000278961)
(0.000683415 -0.209982 0.000282129)
(0.000682522 -0.209982 -0.000281578)
(-7.4659e-05 -0.202387 0.000418204)
(-7.51829e-05 -0.202387 -0.000417308)
(-0.000118602 -0.201791 0.000420636)
(-0.000119288 -0.201791 -0.000419968)
(0.000875366 -0.210567 -0.000516401)
(-0.00429414 -0.21088 0.00129487)
(0.000803775 -0.210215 -0.000521128)
(-0.00437079 -0.210592 0.00129103)
(0.00203311 -0.20277 -0.00147942)
(0.00654251 -0.203421 -0.00279413)
(0.00199331 -0.202228 -0.00148644)
(0.00652871 -0.202986 -0.00280443)
(-0.0385017 -0.21121 0.00308719)
(0.0394742 -0.211525 0.815348)
(-0.0385288 -0.210996 0.00307988)
(0.0393795 -0.211496 0.819115)
(-0.0467133 -0.204174 0.00966782)
(0.0353896 -0.203937 0.955992)
(-0.0468113 -0.203905 0.00965702)
(0.0354449 -0.204005 0.956145)
(0.039629 -0.21147 -0.818948)
(-0.0383068 -0.211454 -0.00308808)
(0.0395692 -0.21151 -0.818766)
(-0.0384336 -0.211368 -0.00308688)
(0.0353754 -0.203755 -0.956408)
(-0.0465103 -0.204562 -0.0096472)
(0.0353311 -0.203891 -0.956531)
(-0.0465588 -0.204373 -0.00966544)
(-0.00409546 -0.21128 -0.00130285)
(0.00106061 -0.211091 0.000507558)
(-0.00420557 -0.211112 -0.00129909)
(0.000961846 -0.210862 0.000511548)
(0.00657245 -0.204126 0.00277394)
(0.00212045 -0.203673 0.00146537)
(0.00656313 -0.203799 0.00278522)
(0.00207717 -0.203254 0.00147332)
(0.000957744 -0.210961 0.000274235)
(0.000957583 -0.210961 -0.000273844)
(0.000851921 -0.210698 0.000276625)
(0.000851492 -0.210698 -0.000276094)
(2.64866e-05 -0.203391 0.000412192)
(2.62683e-05 -0.20339 -0.000412259)
(-2.59109e-05 -0.202923 0.000415288)
(-2.62873e-05 -0.202922 -0.000414465)
(0.00106112 -0.211091 -0.000507204)
(-0.00408879 -0.211279 0.00130307)
(0.000961499 -0.210862 -0.000511228)
(-0.0041972 -0.211113 0.00129852)
(0.00211917 -0.203671 -0.00146485)
(0.00656962 -0.204122 -0.00277063)
(0.0020751 -0.203253 -0.00147133)
(0.00655903 -0.203801 -0.00278005)
(-0.0383137 -0.211449 0.00308719)
(0.0396248 -0.211476 0.81897)
(-0.0384142 -0.211365 0.00308723)
(0.0395382 -0.211519 0.81645)
(-0.0464971 -0.204556 0.00964802)
(0.0353571 -0.203776 0.959486)
(-0.0465616 -0.204386 0.00965699)
(0.0353316 -0.203872 0.959613)
(0.0398121 -0.211194 -0.816599)
(-0.0380201 -0.211433 -0.00308571)
(0.0396809 -0.211378 -0.817151)
(-0.0381453 -0.211471 -0.00308615)
(0.035188 -0.20336 -0.958982)
(-0.0460962 -0.20475 -0.00963105)
(0.0352333 -0.203573 -0.959096)
(-0.0462536 -0.204701 -0.00963191)
(-0.0038062 -0.211398 -0.00130164)
(0.00131196 -0.211327 0.000502664)
(-0.0039579 -0.211377 -0.00130208)
(0.00117678 -0.211248 0.000504351)
(0.00662899 -0.204568 0.00275487)
(0.00222636 -0.20429 0.00145416)
(0.00660197 -0.204386 0.00276122)
(0.00216982 -0.20402 0.00145876)
(0.00121892 -0.211258 0.000270281)
(0.00121825 -0.211258 -0.000270266)
(0.00107949 -0.21115 0.000271912)
(0.00107931 -0.21115 -0.0002718)
(0.00014877 -0.2041 0.00040847)
(0.000148246 -0.2041 -0.000407674)
(8.47116e-05 -0.203785 0.000410077)
(8.44815e-05 -0.203785 -0.000410095)
(0.00131026 -0.211328 -0.000503515)
(-0.00380481 -0.211399 0.00129825)
(0.0011773 -0.211248 -0.000504755)
(-0.00395235 -0.211376 0.00130058)
(0.00222431 -0.204291 -0.00145361)
(0.00662599 -0.204566 -0.00275601)
(0.00216889 -0.204018 -0.00145966)
(0.00660024 -0.20438 -0.00276534)
(-0.0379916 -0.211434 0.00308691)
(0.03977 -0.211195 0.810339)
(-0.0381541 -0.211477 0.00308446)
(0.0396725 -0.211368 0.814032)
(-0.0461178 -0.204745 0.00963773)
(0.0351937 -0.203376 0.955717)
(-0.0462528 -0.204682 0.00964938)
(0.0352172 -0.203613 0.954917)
(0.0400125 -0.210595 -0.807979)
(-0.0375739 -0.211089 -0.00308212)
(0.039899 -0.210931 -0.811623)
(-0.0378127 -0.211318 -0.00308195)
(0.0351138 -0.202725 -0.962822)
(-0.045712 -0.204603 -0.00957651)
(0.0350925 -0.20309 -0.958593)
(-0.0458534 -0.204715 -0.00960953)
(-0.00343371 -0.211177 -0.0012924)
(0.00166092 -0.211211 0.000501835)
(-0.00362799 -0.211335 -0.00129634)
(0.00147756 -0.211317 0.000501844)
(0.00670625 -0.20466 0.00272791)
(0.00236636 -0.204557 0.00144179)
(0.00667169 -0.204663 0.00274674)
(0.00229398 -0.204473 0.00144813)
(0.00156006 -0.211197 0.000267186)
(0.00155916 -0.211197 -0.000266703)
(0.00137959 -0.211276 0.000268497)
(0.00137854 -0.211277 -0.000268254)
(0.000297003 -0.204451 0.000403684)
(0.000296411 -0.204451 -0.000403516)
(0.000219721 -0.204325 0.00040598)
(0.000219001 -0.204325 -0.000405421)
(0.00165859 -0.211212 -0.000500782)
(-0.00342933 -0.211179 0.00129417)
(0.00147418 -0.21132 -0.000501869)
(-0.00362813 -0.211338 0.00129473)
(0.00236377 -0.204558 -0.00144153)
(0.00670527 -0.204666 -0.00272975)
(0.00229084 -0.204474 -0.00144699)
(0.00666775 -0.204665 -0.0027447)
(-0.0375201 -0.211075 0.00307602)
(0.0399492 -0.210612 0.814279)
(-0.0377577 -0.2113 0.00308218)
(0.0398392 -0.210952 0.811523)
(-0.0456578 -0.204615 0.00957582)
(0.0350443 -0.202705 0.957009)
(-0.0458386 -0.204722 0.00960537)
(0.0350707 -0.203087 0.958018)
(0.0403543 -0.209594 -0.812173)
(-0.0370717 -0.210339 -0.00306715)
(0.0401447 -0.21016 -0.80932)
(-0.0373139 -0.210766 -0.00307244)
(0.0350053 -0.201665 -0.958088)
(-0.0451909 -0.204093 -0.00954274)
(0.034975 -0.202254 -0.958181)
(-0.0453758 -0.204403 -0.00955896)
(-0.00295426 -0.210539 -0.00128413)
(0.0020982 -0.210669 0.000502551)
(-0.00320729 -0.210915 -0.0012869)
(0.0018669 -0.210998 0.000501641)
(0.00681106 -0.204355 0.00272841)
(0.00252968 -0.2044 0.00143411)
(0.00675993 -0.204566 0.00272448)
(0.00244429 -0.204534 0.00143647)
(0.00198857 -0.210706 0.000264494)
(0.00198815 -0.210706 -0.00026477)
(0.0017623 -0.21101 0.000265546)
(0.00176175 -0.21101 -0.000265368)
(0.000475184 -0.204371 0.000400645)
(0.000474784 -0.204372 -0.000400221)
(0.000383793 -0.204466 0.000401567)
(0.000383411 -0.204467 -0.000401686)
(0.0020983 -0.210669 -0.000503209)
(-0.00294489 -0.210541 0.00128206)
(0.00186644 -0.210998 -0.000500955)
(-0.00319712 -0.210916 0.00128824)
(0.00252808 -0.2044 -0.0014332)
(0.00681048 -0.204353 -0.00272571)
(0.00244267 -0.204535 -0.00143605)
(0.00675983 -0.204571 -0.00272179)
(-0.037018 -0.210371 0.00306973)
(0.04028 -0.209571 0.808996)
(-0.0372632 -0.210774 0.00306909)
(0.0400799 -0.210153 0.809396)
(-0.0451478 -0.204084 0.00953542)
(0.0349406 -0.201672 0.958427)
(-0.0453038 -0.204409 0.00955234)
(0.034888 -0.20225 0.958137)
(0.0408048 -0.208077 -0.807704)
(-0.0364718 -0.209104 -0.00305802)
(0.040564 -0.20891 -0.810442)
(-0.0367867 -0.209788 -0.00306115)
(0.0349746 -0.200167 -0.956767)
(-0.0446459 -0.203066 -0.00950613)
(0.0349218 -0.200985 -0.960826)
(-0.0448545 -0.203646 -0.00952072)
(-0.00234475 -0.209398 -0.00126973)
(0.00264554 -0.209621 0.000507498)
(-0.00266323 -0.210037 -0.0012769)
(0.00235828 -0.210213 0.000504195)
(0.00694292 -0.203554 0.00272261)
(0.00273516 -0.203739 0.0014313)
(0.00687782 -0.204023 0.00272326)
(0.00262878 -0.204135 0.00143311)