/*--------------------------------*- C++ -*----------------------------------*\
  =========                 |
  \\      /  F ield         | OpenFOAM: The Open Source CFD Toolbox
   \\    /   O peration     | Website:  https://openfoam.org
    \\  /    A nd           | Version:  9
     \\/     M anipulation  |
\*---------------------------------------------------------------------------*/
FoamFile
{
    format      ascii;
    class       volScalarField;
    location    "2.8";
    object      k;
}
// * * * * * * * * * * * * * * * * * * * * * * * * * * * * * * * * * * * * * //

dimensions      [0 2 -2 0 0 0 0];

internalField   nonuniform List<scalar> 
36360
(
0.544533
0.476324
0.305111
0.287723
0.146907
0.13925
0.0347891
0.0610071
0.28356
0.177424
0.129638
0.0478586
0.074915
0.0346933
0.0177063
0.00595032
0.130897
0.130869
0.0230263
0.023015
0.0223566
0.0223508
0.00422015
0.00421964
0.177343
0.283428
0.0478037
0.129537
0.0346719
0.0748671
0.00594628
0.0176896
0.476153
0.544337
0.287578
0.304943
0.139184
0.146833
0.0609635
0.0347552
0.853083
0.760704
0.716033
0.630414
0.305079
0.269063
0.236078
0.208757
0.550346
0.433066
0.423779
0.30902
0.195368
0.150917
0.137666
0.0924895
0.381515
0.381478
0.259008
0.258975
0.131375
0.131361
0.0718596
0.0718472
0.432956
0.550174
0.308922
0.423624
0.150873
0.195296
0.0924511
0.137605
0.760489
0.852845
0.630219
0.715816
0.268968
0.304972
0.208676
0.235986
1.07243
0.976434
0.969788
0.874856
0.411779
0.369835
0.362108
0.322194
0.766856
0.649917
0.664288
0.546743
0.294503
0.251148
0.247445
0.203652
0.597856
0.597813
0.494691
0.494651
0.232057
0.232038
0.184437
0.18442
0.649791
0.766661
0.546624
0.664103
0.251093
0.294414
0.203601
0.247364
0.976194
1.07217
0.874628
0.969535
0.369719
0.411649
0.322088
0.361989
1.24397
1.14792
1.16315
1.0669
0.494753
0.451127
0.455653
0.412604
0.941758
0.826905
0.858954
0.743002
0.375316
0.332577
0.336961
0.293942
0.77548
0.775435
0.691192
0.691148
0.313653
0.313633
0.274933
0.274913
0.826775
0.941556
0.742873
0.858754
0.332515
0.375218
0.293882
0.336867
1.14768
1.24369
1.06666
1.16288
0.451001
0.494611
0.412482
0.455518
1.37997
1.285
1.31577
1.2202
0.560659
0.516749
0.529546
0.485668
1.08266
0.970134
1.016
0.902324
0.440966
0.398762
0.409845
0.367381
0.919673
0.919629
0.851368
0.851323
0.380053
0.380031
0.34856
0.348538
0.970005
1.08246
0.902193
1.0158
0.398699
0.440866
0.367318
0.409746
1.28476
1.37971
1.21996
1.3155
0.516619
0.560513
0.48554
0.529403
1.48822
1.39461
1.43708
1.34278
0.613232
0.569603
0.588388
0.54458
1.19591
1.0856
1.14235
1.03097
0.494085
0.452397
0.468923
0.426984
1.03614
1.0361
0.981017
0.980973
0.433926
0.433905
0.408393
0.408371
1.08548
1.19572
1.03084
1.14216
0.452335
0.493986
0.426921
0.468824
1.39438
1.48796
1.34254
1.43681
0.569476
0.613089
0.544452
0.588245
1.57446
1.4822
1.5337
1.44078
0.655225
0.612051
0.635375
0.591963
1.2868
1.17849
1.24383
1.13457
0.53693
0.49575
0.516649
0.475221
1.12997
1.12993
1.08559
1.08555
0.477522
0.477501
0.456873
0.456852
1.17837
1.28662
1.13444
1.24365
0.495689
0.536835
0.47516
0.516552
1.48198
1.57422
1.44056
1.53345
0.611927
0.655086
0.591837
0.635236
1.64309
1.55203
1.61065
1.51902
0.688736
0.646042
0.672894
0.629959
1.35955
1.25302
1.32518
1.2178
0.571383
0.530689
0.555084
0.514154
1.20534
1.2053
1.16971
1.16967
0.512695
0.512676
0.496047
0.496026
1.25291
1.35938
1.21769
1.325
0.530631
0.571292
0.514096
0.554991
1.55183
1.64286
1.5188
1.61042
0.645924
0.688603
0.629839
0.67276
1.69746
1.60746
1.67178
1.58128
0.715392
0.673154
0.7028
0.660337
1.41755
1.31259
1.39018
1.28448
0.598974
0.558735
0.585937
0.545479
1.26565
1.26561
1.23718
1.23714
0.540963
0.540944
0.527599
0.527579
1.31248
1.41739
1.28437
1.39002
0.55868
0.598887
0.545423
0.585848
1.60726
1.69724
1.58108
1.67156
0.67304
0.715263
0.660221
0.702671
1.74015
1.65105
1.72004
1.63051
0.736439
0.694612
0.726518
0.684488
1.46342
1.35985
1.44183
1.3376
0.620912
0.581103
0.610569
0.570554
1.31357
1.31354
1.291
1.29097
0.563536
0.563518
0.552887
0.552868
1.35975
1.46327
1.3375
1.44168
0.58105
0.620829
0.5705
0.610484
1.65087
1.73994
1.63032
1.71983
0.694503
0.736315
0.684377
0.726394
1.77318
1.68486
1.75768
1.66898
0.752853
0.71139
0.745141
0.703498
1.49926
1.39693
1.48245
1.37954
0.63816
0.598751
0.630055
0.590455
1.35123
1.3512
1.33356
1.33353
0.581374
0.581357
0.572985
0.572968
1.39683
1.49911
1.37944
1.48231
0.5987
0.63808
0.590403
0.629973
1.68469
1.77299
1.66881
1.75748
0.711285
0.752733
0.703392
0.745021
1.79812
1.71047
1.7865
1.69852
0.76539
0.724245
0.759535
0.718232
1.52668
1.42547
1.51391
1.41216
0.651478
0.612443
0.645255
0.606041
1.38031
1.38027
1.36674
1.36671
0.595244
0.595227
0.588755
0.588738
1.42538
1.52654
1.41207
1.51377
0.612394
0.6514
0.605991
0.645176
1.7103
1.79793
1.69835
1.7863
0.724143
0.765273
0.718129
0.759418
1.81622
1.72915
1.80787
1.72051
0.774656
0.733792
0.770366
0.729362
1.54701
1.44681
1.53763
1.43696
0.661477
0.622792
0.656844
0.617992
1.40213
1.4021
1.39204
1.39201
0.60576
0.605744
0.600879
0.600862
1.44673
1.54688
1.43687
1.5375
0.622744
0.661402
0.617943
0.656767
1.72899
1.81604
1.72035
1.80768
0.733693
0.774542
0.729262
0.770252
1.82845
1.7419
1.82294
1.73613
0.781122
0.740503
0.778184
0.737441
1.56127
1.46201
1.55482
1.45511
0.66864
0.630286
0.665374
0.626861
1.41777
1.41774
1.41066
1.41063
0.613413
0.613397
0.60991
0.609894
1.46193
1.56114
1.45503
1.55469
0.630239
0.668566
0.626813
0.665299
1.74174
1.82828
1.73597
1.82276
0.740405
0.781009
0.737343
0.778072
1.83554
1.74945
1.83252
1.7462
0.785146
0.744747
0.783391
0.74288
1.57027
1.47189
1.56636
1.46756
0.673345
0.635312
0.671265
0.633077
1.42807
1.42805
1.42354
1.42351
0.618591
0.618576
0.616282
0.616266
1.47181
1.57014
1.46748
1.56623
0.635266
0.673272
0.633031
0.671192
1.74929
1.83536
1.74604
1.83235
0.74465
0.785035
0.742783
0.783281
1.83789
1.75221
1.83727
1.75138
0.786972
0.746757
0.78631
0.746003
1.57457
1.47709
1.57296
1.47504
0.675874
0.638172
0.674857
0.636989
1.4337
1.43367
1.43143
1.4314
0.621606
0.621591
0.620345
0.62033
1.47701
1.57444
1.47495
1.57284
0.638127
0.675802
0.636943
0.674784
1.75211
1.83775
1.75122
1.83708
0.746662
0.786861
0.745907
0.7862
1.83582
1.75072
1.83726
1.75184
0.7868
0.746758
0.787068
0.746935
1.57471
1.47814
1.57509
1.47809
0.676447
0.639094
0.676379
0.638858
1.43517
1.43514
1.43491
1.43489
0.622692
0.622677
0.622373
0.622358
1.47806
1.57459
1.47801
1.57497
0.639049
0.676376
0.638813
0.676307
1.7506
1.83571
1.75174
1.83715
0.746664
0.786692
0.746842
0.786961
1.83061
1.74603
1.83353
1.7487
0.78502
0.745186
0.786081
0.746152
1.5713
1.4756
1.57342
1.47732
0.675407
0.638387
0.676136
0.638936
1.43304
1.43302
1.43455
1.43452
0.62214
0.622125
0.622598
0.622583
1.47552
1.57119
1.47724
1.5733
0.638343
0.675336
0.638891
0.676065
1.74589
1.83045
1.74856
1.83337
0.745095
0.784914
0.746059
0.785974
1.82225
1.73814
1.82673
1.74239
0.7817
0.742024
0.783518
0.743761
1.56463
1.46974
1.56833
1.47305
0.672789
0.636087
0.674263
0.637403
1.42757
1.42755
1.43069
1.43066
0.619991
0.619976
0.621231
0.621216
1.46966
1.5645
1.47297
1.56821
0.636044
0.672719
0.637359
0.674192
1.73794
1.82204
1.74225
1.82658
0.741927
0.781589
0.743666
0.783412
1.81073
1.72716
1.81672
1.73287
0.776989
0.737472
0.779476
0.739876
1.55503
1.46096
1.56015
1.46569
0.668818
0.632436
0.670953
0.634416
1.41917
1.41915
1.42372
1.42369
0.616489
0.616474
0.618396
0.618381
1.46088
1.55491
1.46561
1.56003
0.632392
0.668747
0.634372
0.670883
1.72696
1.81046
1.73271
1.81654
0.737376
0.776877
0.739781
0.779367
1.79642
1.71363
1.80373
1.7205
0.771024
0.73168
0.774111
0.734668
1.54283
1.44952
1.54921
1.45555
0.663608
0.627535
0.666345
0.630127
1.4081
1.40807
1.41395
1.41393
0.611734
0.611719
0.614255
0.61424
1.44944
1.54271
1.45547
1.54909
0.627492
0.663537
0.630083
0.666273
1.71361
1.79647
1.72047
1.80362
0.731582
0.770912
0.73457
0.773999
1.78036
1.69813
1.78867
1.70618
0.764007
0.724803
0.767643
0.728373
1.52825
1.43562
1.53584
1.44287
0.657261
0.621476
0.660568
0.62464
1.39454
1.39451
1.40162
1.40159
0.605812
0.605797
0.608908
0.608893
1.43554
1.52813
1.44279
1.5357
0.621432
0.657191
0.624596
0.660497
1.69795
1.78008
1.70591
1.78842
0.72471
0.763893
0.728271
0.767527
1.76127
1.67982
1.77111
1.68921
0.75574
0.716685
0.759992
0.72085
1.51124
1.41935
1.52001
1.42777
0.649785
0.614305
0.653646
0.618018
1.37862
1.37859
1.38686
1.38684
0.598783
0.598768
0.602426
0.602411
1.41927
1.51113
1.42769
1.51991
0.61426
0.649713
0.617974
0.653577
1.67981
1.76126
1.68914
1.77097
0.716591
0.755634
0.720765
0.75989
1.74014
1.65959
1.75085
1.66987
0.746438
0.707547
0.751188
0.712216
1.49202
1.40083
1.50189
1.41036
0.641254
0.606075
0.645641
0.610313
1.36045
1.36042
1.3698
1.36978
0.590695
0.59068
0.594863
0.594847
1.40075
1.49188
1.41028
1.50176
0.60603
0.641183
0.610269
0.645569
1.65927
1.73982
1.66976
1.75081
0.707441
0.746318
0.712115
0.751078
1.7166
1.63704
1.72858
1.64851
0.736001
0.697265
0.741331
0.702505
1.47055
1.38012
1.48154
1.39073
0.631658
0.596814
0.636574
0.601563
1.3401
1.34007
1.35053
1.35051
0.581585
0.58157
0.586259
0.586244
1.38004
1.47042
1.39066
1.48141
0.59677
0.63159
0.601519
0.636504
1.63679
1.7163
1.64821
1.72823
0.697173
0.735892
0.702407
0.741218
1.69079
1.61235
1.70386
1.62483
0.724569
0.686017
0.730373
0.691724
1.447
1.35732
1.459
1.36897
0.621084
0.586567
0.626479
0.591804
1.31766
1.31764
1.32913
1.32911
0.571488
0.571473
0.576652
0.576637
1.35725
1.44689
1.36889
1.45889
0.586524
0.621017
0.591761
0.626411
1.61223
1.69062
1.62463
1.7036
0.685933
0.724468
0.691636
0.73027
1.66281
1.58563
1.677
1.59917
0.712125
0.673756
0.718445
0.679976
1.42142
1.33248
1.43445
1.34515
0.609544
0.575353
0.615424
0.581074
1.29317
1.29314
1.30567
1.30564
0.560421
0.560407
0.566069
0.566054
1.3324
1.42131
1.34508
1.43434
0.57531
0.609476
0.581031
0.615357
1.5855
1.66266
1.59904
1.67685
0.673669
0.712022
0.679891
0.718347
1.63253
1.55672
1.6479
1.57138
0.698638
0.660452
0.705495
0.667211
1.39374
1.30556
1.40783
1.31927
0.597019
0.563169
0.603397
0.569376
1.26663
1.2666
1.28015
1.28012
0.548389
0.548374
0.554519
0.554505
1.30549
1.39362
1.3192
1.40772
0.563126
0.59695
0.569333
0.603329
1.55659
1.63238
1.57125
1.64775
0.660361
0.698533
0.667122
0.705392
1.59987
1.52559
1.61642
1.54135
0.684069
0.646077
0.691462
0.653365
1.36393
1.27658
1.37908
1.29132
0.583498
0.550015
0.590372
0.556706
1.23804
1.23801
1.25258
1.25256
0.535397
0.535382
0.542006
0.541991
1.27651
1.36381
1.29125
1.37896
0.549972
0.58343
0.556663
0.590303
1.52545
1.59972
1.54121
1.61626
0.645988
0.683964
0.653275
0.691358
1.56501
1.49237
1.58264
1.50916
0.668482
0.630697
0.676375
0.638482
1.33207
1.24558
1.34823
1.26132
0.569013
0.535909
0.576365
0.543074
1.20744
1.20741
1.22298
1.22296
0.521457
0.521443
0.528539
0.528524
1.2455
1.33195
1.26125
1.34812
0.535867
0.568945
0.543031
0.576297
1.49224
1.56486
1.50902
1.58248
0.630608
0.668378
0.638393
0.676272
1.52809
1.45718
1.54673
1.47494
0.651935
0.614353
0.660304
0.622617
1.29823
1.21258
1.31538
1.22932
0.553589
0.520868
0.561408
0.528499
1.17484
1.17482
1.19138
1.19136
0.506581
0.506567
0.51413
0.514116
1.21251
1.29811
1.22925
1.31527
0.520826
0.553522
0.528457
0.561341
1.45704
1.52794
1.47481
1.54658
0.614265
0.651832
0.622528
0.660202
1.4892
1.42005
1.50882
1.43878
0.634461
0.597089
0.643291
0.605807
1.26242
1.1776
1.28056
1.19534
0.537241
0.504894
0.545522
0.512992
1.14025
1.14022
1.15779
1.15777
0.490767
0.490752
0.498787
0.498772
1.17753
1.26231
1.19526
1.28044
0.504851
0.537174
0.51295
0.545455
1.41992
1.48905
1.43864
1.50867
0.597001
0.634359
0.605719
0.64319
1.44837
1.38099
1.46897
1.40069
0.616065
0.578902
0.625359
0.588088
1.22462
1.14057
1.24376
1.15934
0.519954
0.487965
0.528709
0.496545
1.10359
1.10356
1.12218
1.12215
0.47399
0.473976
0.482496
0.482481
1.1405
1.2245
1.15927
1.24365
0.487923
0.519887
0.496503
0.528642
1.38085
1.44822
1.40056
1.46881
0.578815
0.615964
0.588001
0.625259
1.40554
1.33989
1.42715
1.36063
0.596706
0.559749
0.60649
0.569425
1.18469
1.10138
1.20492
1.12125
0.501682
0.470033
0.510938
0.479124
1.06473
1.0647
1.08444
1.08442
0.456199
0.456185
0.465221
0.465207
1.1013
1.18458
1.12118
1.2048
0.469991
0.501616
0.479082
0.510871
1.33976
1.40539
1.3605
1.427
0.559663
0.596606
0.569339
0.606391
1.3605
1.29654
1.38325
1.31845
0.576287
0.539556
0.586619
0.549765
1.14241
1.05976
1.16386
1.08089
0.482336
0.451003
0.492144
0.460659
1.02342
1.0234
1.0444
1.04437
0.4373
0.437285
0.446891
0.446877
1.05969
1.1423
1.08081
1.16374
0.450961
0.48227
0.460617
0.492078
1.29641
1.36035
1.31832
1.3831
0.53947
0.576189
0.54968
0.586521
1.31278
1.25047
1.33696
1.27382
0.554598
0.518172
0.565602
0.529003
1.09732
1.01529
1.12025
1.03791
0.461745
0.430708
0.472204
0.441023
0.979254
0.979229
1.00173
1.0017
0.41713
0.417116
0.427382
0.427368
1.01521
1.09721
1.03784
1.12014
0.430667
0.461681
0.440981
0.472139
1.25034
1.31263
1.27369
1.33681
0.518089
0.554502
0.528919
0.565506
1.2614
1.20063
1.28758
1.22606
0.531228
0.495302
0.543141
0.50693
1.04846
0.967177
1.07345
0.991748
0.439567
0.408852
0.450881
0.419995
0.931581
0.931556
0.955899
0.955874
0.395442
0.395428
0.40649
0.406476
0.967106
1.04835
0.991676
1.07334
0.408812
0.439504
0.419955
0.450818
1.20051
1.26125
1.22593
1.28743
0.49522
0.531134
0.506847
0.543047
1.20467
1.14396
1.23374
1.17347
0.505556
0.470076
0.518696
0.483082
0.993466
0.914113
1.02197
0.94136
0.414955
0.384935
0.42765
0.397184
0.879679
0.879655
0.906182
0.906158
0.371953
0.37194
0.383929
0.383916
0.914045
0.993362
0.94129
1.02187
0.384896
0.414894
0.397145
0.427588
1.14384
1.20453
1.17334
1.2336
0.469997
0.505465
0.483002
0.518605
1.14279
1.06517
1.1742
1.10973
0.475999
0.436218
0.491656
0.455268
0.926527
0.854978
0.961977
0.885251
0.385691
0.358521
0.401101
0.37202
0.823926
0.823903
0.852136
0.852112
0.34681
0.346797
0.359528
0.359515
0.854913
0.926429
0.885184
0.961876
0.358485
0.385634
0.371982
0.401042
1.06505
1.14266
1.10961
1.17406
0.436144
0.475911
0.455191
0.491567
0.917446
0.803987
0.632618
0.561664
0.756915
0.65769
0.486053
0.432311
0.566465
0.424474
0.346627
0.224348
0.433893
0.303788
0.237359
0.129537
0.360021
0.359966
0.172335
0.172288
0.245854
0.245812
0.0843421
0.0843086
0.42431
0.566209
0.224203
0.34639
0.303663
0.433696
0.129433
0.237187
0.803671
0.917091
0.561358
0.632267
0.657443
0.756635
0.432084
0.48579
1.32728
1.1948
1.14139
1.01388
1.13026
1.00896
0.962288
0.847177
0.94736
0.795934
0.767006
0.617357
0.770426
0.629049
0.611193
0.472347
0.725202
0.725138
0.548195
0.548134
0.564524
0.564472
0.409589
0.409541
0.79575
0.947079
0.61718
0.766735
0.628898
0.770193
0.472207
0.610975
1.19446
1.32691
1.01355
1.14103
1.00868
1.12994
0.84691
0.961991
1.62774
1.4947
1.48729
1.35371
1.40051
1.27686
1.27419
1.15086
1.2545
1.10586
1.10922
0.958622
1.04217
0.901992
0.913524
0.772191
1.03556
1.0355
0.887768
0.887702
0.837254
0.837197
0.707241
0.707186
1.10567
1.25422
0.958434
1.10894
0.901829
1.04193
0.772032
0.913281
1.49437
1.62738
1.35337
1.48692
1.27656
1.40018
1.15057
1.27387
1.86103
1.73112
1.75131
1.61967
1.61079
1.48869
1.51181
1.38873
1.50085
1.35737
1.38446
1.23833
1.26094
1.1243
1.15748
1.01899
1.28906
1.28899
1.16895
1.16889
1.0608
1.06074
0.954791
0.954734
1.35719
1.50058
1.23814
1.38418
1.12413
1.26069
1.01882
1.15723
1.73081
1.86069
1.61934
1.75096
1.48839
1.61047
1.38844
1.51148
2.04476
1.91865
1.95814
1.83015
1.77691
1.65725
1.69854
1.57764
1.69784
1.55965
1.60481
1.46404
1.43648
1.30367
1.35352
1.21882
1.49359
1.49353
1.39686
1.3968
1.24173
1.24168
1.1561
1.15604
1.55948
1.69759
1.46387
1.60455
1.30351
1.43624
1.21866
1.35327
1.91836
2.04445
1.82985
1.95782
1.65697
1.77661
1.57735
1.69823
2.19023
2.06769
2.12155
1.9973
1.90874
1.79155
1.84648
1.72808
1.85515
1.72176
1.78086
1.64517
1.57706
1.44782
1.51063
1.37967
1.65783
1.65777
1.58021
1.58015
1.38744
1.38739
1.31853
1.31848
1.72161
1.85493
1.64502
1.78063
1.44767
1.57684
1.37952
1.5104
2.06743
2.18995
1.99703
2.12126
1.79129
1.90846
1.72781
1.84619
2.30562
2.1862
2.25113
2.13022
2.01353
1.89856
1.96402
1.84798
1.9807
1.85147
1.92143
1.79022
1.68951
1.56345
1.63639
1.50881
1.78944
1.78939
1.72727
1.72722
1.50449
1.50444
1.44916
1.44912
1.85134
1.9805
1.79008
1.92122
1.56332
1.68931
1.50867
1.63618
2.18598
2.30538
2.12998
2.25087
1.89832
2.01327
1.84774
1.96375
2.39699
2.28023
2.35384
2.23583
2.09667
1.98364
2.05739
1.94344
2.08066
1.95501
2.0335
1.90615
1.77928
1.65597
1.7369
1.61228
1.89463
1.89459
1.84498
1.84493
1.59827
1.59822
1.55397
1.55393
1.95489
2.08049
1.90603
2.03331
1.65585
1.77909
1.61215
1.73671
2.28003
2.39677
2.23561
2.35361
1.98343
2.09644
1.94321
2.05714
2.46893
2.35442
2.43499
2.31943
2.16231
2.05095
2.13132
2.01918
2.1599
2.03731
2.12257
1.99853
1.8506
1.72969
1.81697
1.69493
1.97835
1.97831
1.93889
1.93885
1.67309
1.67305
1.6378
1.63776
2.0372
2.15973
1.99842
2.1224
1.72958
1.85043
1.69481
1.8168
2.35424
2.46873
2.31923
2.43479
2.05075
2.16209
2.01897
2.1311
2.52495
2.41235
2.4986
2.38511
2.21361
2.10367
2.18945
2.07885
2.22215
2.1022
2.19291
2.07171
1.90681
1.788
1.88038
1.76058
2.04448
2.04445
2.0134
2.01336
1.73237
1.73233
1.70448
1.70444
2.1021
2.222
2.0716
2.19275
1.78789
1.90665
1.76047
1.88021
2.41219
2.52477
2.38493
2.49841
2.10349
2.2134
2.07865
2.18924
2.56779
2.45684
2.54773
2.43601
2.25304
2.14434
2.23455
2.12527
2.27036
2.1527
2.24782
2.12907
1.95051
1.83354
1.93005
1.81221
2.09607
2.09604
2.07192
2.07189
1.77877
1.77874
1.75702
1.75699
2.15261
2.27022
2.12898
2.24767
1.83344
1.95036
1.8121
1.92989
2.45669
2.56763
2.43585
2.54756
2.14416
2.25285
2.12509
2.23435
2.59957
2.49004
2.58482
2.47462
2.28252
2.17489
2.2688
2.16066
2.30682
2.19119
2.2899
2.17331
1.98375
1.86842
1.9683
1.85219
2.13551
2.13548
2.11717
2.11714
1.81442
1.81438
1.79782
1.79778
2.1911
2.3067
2.17322
2.28977
1.86832
1.98361
1.85209
1.96815
2.4899
2.59942
2.47447
2.58466
2.17472
2.28233
2.16049
2.26861
2.62201
2.51373
2.61172
2.50286
2.30359
2.19692
2.29389
2.18677
2.33339
2.21954
2.32121
2.20651
2.00817
1.8943
1.99694
1.88238
2.16472
2.16469
2.15128
2.15125
1.84099
1.84096
1.82874
1.8287
2.21946
2.33327
2.20643
2.32109
1.89421
2.00804
1.88229
1.9968
2.5136
2.62187
2.50272
2.61158
2.19676
2.30342
2.18661
2.29371
2.63641
2.52925
2.63002
2.52232
2.31744
2.21162
2.31123
2.20501
2.35149
2.23925
2.34339
2.23039
2.02505
1.91251
2.01746
1.90429
2.1852
2.18517
2.17596
2.17593
1.85983
1.8598
1.8513
1.85127
2.23917
2.35138
2.23031
2.34327
1.91243
2.02492
1.9042
2.01732
2.52913
2.63628
2.5222
2.62988
2.21146
2.31727
2.20485
2.31106
2.64382
2.53769
2.6408
2.53418
2.32498
2.21995
2.32182
2.21642
2.36227
2.25151
2.35771
2.24624
2.03539
1.92409
2.03095
1.91907
2.19816
2.19813
2.19255
2.19252
1.872
1.87197
1.86669
1.86666
2.25143
2.36217
2.24616
2.35759
1.92401
2.03526
1.91898
2.03082
2.53757
2.6437
2.53405
2.64067
2.2198
2.32482
2.21627
2.32166
2.64502
2.53986
2.64504
2.53941
2.32684
2.2226
2.32649
2.22186
2.36663
2.25724
2.36518
2.25513
2.03997
1.92986
2.03834
1.92765
2.20455
2.20452
2.20212
2.20209
1.87833
1.8783
1.87584
1.87581
2.25717
2.36653
2.25506
2.36508
1.92978
2.03984
1.92757
2.03821
2.53975
2.64491
2.53929
2.64492
2.22246
2.3267
2.22171
2.32633
2.64067
2.53645
2.64343
2.53874
2.32362
2.22012
2.32576
2.2219
2.36531
2.25722
2.36661
2.25789
2.03942
1.93048
2.04027
1.93076
2.20516
2.20513
2.20553
2.2055
1.8795
1.87947
1.87951
1.87949
2.25715
2.3652
2.25782
2.36651
1.9304
2.03929
1.93068
2.04015
2.53634
2.64055
2.53863
2.64331
2.21995
2.32343
2.22177
2.32564
2.63108
2.52783
2.63639
2.53266
2.31547
2.21289
2.31994
2.21688
2.3588
2.25204
2.36264
2.25524
2.03426
1.92654
2.03735
1.92906
2.20061
2.20059
2.20351
2.20348
1.87613
1.8761
1.87837
1.87834
2.25197
2.3587
2.25517
2.36254
1.92646
2.03415
1.92897
2.03722
2.52773
2.63099
2.53255
2.63627
2.21286
2.31543
2.21675
2.31975
2.61694
2.51475
2.62435
2.52166
2.30389
2.20214
2.30998
2.20786
2.34774
2.24226
2.35377
2.24768
2.02515
1.91852
2.03015
1.923
2.19144
2.19142
2.19657
2.19654
1.86863
1.86861
1.87286
1.87283
2.24219
2.34765
2.24761
2.35367
1.91844
2.02503
1.92292
2.03003
2.51464
2.61682
2.52156
2.62424
2.2019
2.30363
2.20773
2.30991
2.59888
2.49775
2.60828
2.50659
2.2886
2.18772
2.29658
2.19524
2.33269
2.2284
2.34066
2.2358
2.01247
1.90688
2.01921
1.91312
2.17816
2.17814
2.18528
2.18526
1.85749
1.85747
1.86349
1.86346
2.22834
2.3326
2.23574
2.34057
1.9068
2.01236
1.91304
2.01909
2.49766
2.59881
2.5065
2.60818
2.18769
2.28854
2.1951
2.29634
2.57756
2.47744
2.58848
2.48791
2.27034
2.17037
2.27968
2.17932
2.31403
2.21085
2.32378
2.22006
1.99657
1.89195
2.00489
1.8998
2.16115
2.16113
2.1701
2.17008
1.84304
1.84301
1.85066
1.85063
2.21079
2.31395
2.22
2.32369
1.89187
1.99645
1.89972
2.00477
2.47736
2.57746
2.48783
2.5884
2.17015
2.27013
2.1792
2.27964
2.55261
2.45362
2.56543
2.46583
2.24888
2.14984
2.25993
2.16037
2.29198
2.18987
2.30339
2.20077
1.97764
1.87396
1.98745
1.88332
2.1407
2.14067
2.15134
2.15132
1.82551
1.82548
1.83464
1.83462
2.18981
2.2919
2.20071
2.30331
1.87389
1.97753
1.88325
1.98734
2.45354
2.55255
2.46575
2.56534
2.14981
2.24882
2.16022
2.25968
2.52471
2.42684
2.53891
2.44054
2.22464
2.12664
2.23699
2.13851
2.26673
2.16566
2.27973
2.17816
1.95582
1.85307
1.96707
1.86387
2.11699
2.11697
2.12924
2.12921
1.80507
1.80505
1.81564
1.81562
2.16559
2.26664
2.1781
2.27965
1.853
1.9557
1.86379
1.96696
2.42675
2.5246
2.44045
2.53883
2.12645
2.22446
2.13842
2.23696
2.49328
2.39673
2.50932
2.41206
2.19721
2.10039
2.2112
2.11374
2.23835
2.13833
2.2529
2.15237
1.93119
1.8294
1.94382
1.84157
2.09018
2.09015
2.10396
2.10394
1.78186
1.78183
1.7938
1.79377
2.13827
2.23826
2.15231
2.25281
1.82932
1.93108
1.84149
1.9437
2.39664
2.49321
2.41197
2.50922
2.10033
2.1971
2.1136
2.21098
2.45907
2.36387
2.47641
2.38057
2.16735
2.07175
2.18249
2.08633
2.20702
2.10803
2.22304
2.12355
1.90391
1.80306
1.91786
1.81655
2.06038
2.06036
2.07564
2.07562
1.75597
1.75595
1.76924
1.76921
2.10797
2.20693
2.12348
2.22295
1.80298
1.90379
1.81648
1.91775
2.36378
2.45896
2.38048
2.47632
2.07155
2.16713
2.08622
2.18241
2.42168
2.328
2.44064
2.34617
2.1344
2.04025
2.1511
2.05618
2.17281
2.07484
2.19025
2.09179
1.87403
1.77413
1.88925
1.7889
2.02769
2.02767
2.04439
2.04437
1.72751
1.72748
1.74206
1.74203
2.07478
2.17273
2.09173
2.19016
1.77406
1.87392
1.78883
1.88914
2.32792
2.42161
2.34608
2.44054
2.04021
2.13433
2.05604
2.15088
2.3817
2.28956
2.40192
2.30903
2.09928
2.00663
2.11702
2.02366
2.13581
2.03882
2.15465
2.05719
1.84169
1.74269
1.85815
1.75872
1.99216
1.99213
2.01028
2.01025
1.69651
1.69648
1.71232
1.7123
2.03876
2.13573
2.05712
2.15456
1.74262
1.84158
1.75865
1.85805
2.28947
2.38161
2.30895
2.40184
2.00651
2.09918
2.02359
2.11698
2.33854
2.24805
2.36042
2.26908
2.06128
1.97021
2.08054
1.98866
2.0959
1.99994
2.11621
2.01974
1.80675
1.7087
1.82453
1.72601
1.95378
1.95375
1.97332
1.9733
1.66298
1.66295
1.68006
1.68003
1.99988
2.09582
2.01967
2.11612
1.70862
1.80664
1.72593
1.82442
2.24796
2.33845
2.269
2.36033
1.97009
2.06115
1.98853
2.08041
2.29224
2.20357
2.31566
2.22608
2.02036
1.93105
2.04108
1.95087
2.0531
1.9582
2.07484
1.97942
1.76919
1.67215
1.78828
1.69073
1.91256
1.91254
1.93352
1.9335
1.62691
1.62689
1.64526
1.64523
1.95814
2.05301
1.97936
2.07476
1.67207
1.76908
1.69066
1.78817
2.20348
2.29215
2.22599
2.31558
1.93093
2.02023
1.95075
2.04094
2.24302
2.15627
2.26788
2.18017
1.97674
1.88933
1.99877
1.91041
2.00747
1.91365
2.03062
1.93627
1.7291
1.63308
1.74944
1.65292
1.86852
1.8685
1.89089
1.89087
1.58834
1.58832
1.60794
1.60791
1.91358
2.00738
1.93621
2.03053
1.63301
1.72899
1.65285
1.74933
2.15619
2.24293
2.18009
2.26779
1.88921
1.97661
1.91029
1.99864
2.19104
2.10625
2.21727
2.13151
1.93061
1.84518
1.95389
1.86746
1.95907
1.86629
1.9836
1.89031
1.68655
1.59153
1.70812
1.61261
1.82168
1.82165
1.84545
1.84543
1.54729
1.54726
1.56812
1.5681
1.86623
1.95899
1.89025
1.98352
1.59146
1.68644
1.61254
1.70801
2.10617
2.19095
2.13142
2.21718
1.84505
1.93048
1.86734
1.95375
2.13637
2.05356
2.16395
2.08015
1.88208
1.79863
1.90655
1.82211
1.90789
1.81609
1.93382
1.84154
1.64153
1.54748
1.66433
1.56982
1.77196
1.77194
1.79718
1.79716
1.50371
1.50368
1.52581
1.52579
1.81603
1.90781
1.84148
1.93373
1.54741
1.64142
1.56975
1.66422
2.05347
2.13629
2.08007
2.16386
1.79851
1.88195
1.82199
1.90641
2.079
1.99813
2.10793
2.02611
1.83116
1.74967
1.85683
1.77437
1.85383
1.76292
1.88122
1.78988
1.59398
1.50084
1.61807
1.52449
1.71924
1.71922
1.74598
1.74596
1.4575
1.45747
1.48094
1.48091
1.76286
1.85375
1.78982
1.88113
1.50077
1.59388
1.52442
1.61796
1.99804
2.07891
2.02602
2.10785
1.74955
1.83102
1.77425
1.85669
2.0188
1.93978
2.04917
1.96925
1.77774
1.69816
1.80468
1.72416
1.79668
1.70656
1.82565
1.73516
1.54374
1.45141
1.5692
1.47648
1.66327
1.66325
1.69168
1.69166
1.40847
1.40844
1.43335
1.43333
1.7065
1.7966
1.7351
1.82556
1.45133
1.54363
1.47641
1.56909
1.93969
2.01871
1.96916
2.04908
1.69804
1.77761
1.72404
1.80455
1.95547
1.87818
1.98746
1.90933
1.72157
1.64379
1.74993
1.67128
1.73605
1.64659
1.76682
1.67706
1.49045
1.39884
1.51749
1.42554
1.60364
1.60362
1.63394
1.63392
1.35626
1.35623
1.38278
1.38276
1.64653
1.73596
1.677
1.76674
1.39876
1.49034
1.42546
1.51738
1.87809
1.95538
1.90925
1.98737
1.64367
1.72143
1.67116
1.7498
1.88837
1.81264
1.92236
1.84588
1.66205
1.58595
1.69219
1.61528
1.67123
1.58234
1.70421
1.61505
1.43349
1.34253
1.46247
1.37119
1.53971
1.53969
1.57226
1.57224
1.3003
1.30027
1.32879
1.32876
1.58228
1.67114
1.61499
1.70412
1.34245
1.43338
1.37112
1.46236
1.81256
1.88829
1.8458
1.92227
1.58583
1.66192
1.61516
1.69206
1.8163
1.74178
1.85297
1.77793
1.59799
1.52328
1.63061
1.55527
1.60091
1.51275
1.63686
1.54829
1.37161
1.28148
1.40327
1.31267
1.47061
1.47059
1.50586
1.50584
1.23978
1.23975
1.27066
1.27064
1.51268
1.60082
1.54823
1.63678
1.28141
1.37151
1.3126
1.40317
1.7417
1.81622
1.77785
1.85289
1.52317
1.59786
1.55516
1.63049
1.73749
1.66206
1.77773
1.70336
1.52727
1.45207
1.56351
1.48911
1.52236
1.43634
1.56291
1.47548
1.30202
1.21419
1.33804
1.24871
1.39558
1.39556
1.43384
1.43382
1.1739
1.17388
1.20753
1.2075
1.43629
1.52228
1.47542
1.56283
1.21412
1.30191
1.24864
1.33794
1.66198
1.73741
1.70328
1.77765
1.45196
1.52715
1.48899
1.56339
1.65281
1.55816
1.69563
1.61545
1.44923
1.35588
1.48906
1.40958
1.43025
1.35264
1.47837
1.39525
1.21885
1.13984
1.26256
1.17778
1.31566
1.31564
1.356
1.35598
1.10342
1.1034
1.13903
1.13901
1.35258
1.43017
1.3952
1.47829
1.13978
1.21875
1.17771
1.26246
1.55809
1.65276
1.61538
1.69556
1.35578
1.44912
1.40947
1.48895
1.17019
1.0441
0.877783
0.789473
1.0521
0.930734
0.761485
0.680057
0.798041
0.646842
0.556976
0.420209
0.687127
0.539046
0.453877
0.32277
0.576539
0.576459
0.359869
0.359793
0.470891
0.470822
0.265889
0.265826
0.646606
0.797679
0.419982
0.556614
0.538845
0.686816
0.322582
0.453575
1.04366
1.1697
0.789023
0.877272
0.930356
1.05168
0.679677
0.761054
1.61554
1.47674
1.41089
1.2745
1.48394
1.34691
1.28668
1.15326
1.22903
1.07314
1.02388
0.867783
1.09788
0.942779
0.902921
0.748588
0.998653
0.99857
0.793953
0.79387
0.869311
0.869237
0.676257
0.676185
1.0729
1.22867
0.867546
1.02352
0.942567
1.09756
0.748379
0.902603
1.47633
1.61509
1.27408
1.41042
1.34653
1.48353
1.15288
1.28626
1.95052
1.81451
1.79359
1.65555
1.80474
1.66893
1.65465
1.5175
1.57929
1.42937
1.41362
1.26024
1.43004
1.27939
1.27298
1.11957
1.35689
1.35681
1.18645
1.18637
1.20715
1.20708
1.04639
1.04631
1.42915
1.57896
1.26002
1.41328
1.27919
1.42974
1.11936
1.27266
1.81414
1.95012
1.65515
1.79317
1.66858
1.80435
1.51713
1.65425
2.21144
2.08098
2.08873
1.95541
2.05395
1.92263
1.93677
1.80308
1.85968
1.71752
1.72732
1.58127
1.69595
1.5519
1.5704
1.42301
1.64833
1.64826
1.51039
1.51032
1.48234
1.48227
1.35205
1.35198
1.71733
1.8594
1.58107
1.72701
1.55171
1.69567
1.42281
1.57011
2.08066
2.21111
1.95506
2.08836
1.92231
2.05361
1.80274
1.93641
2.41678
2.29196
2.32001
2.19244
2.24999
2.12353
2.1576
2.02876
2.08322
1.94844
1.97774
1.83939
1.90812
1.77054
1.80798
1.66726
1.88256
1.8825
1.77189
1.77183
1.70383
1.70377
1.59915
1.59908
1.94827
2.08298
1.83921
1.97748
1.77037
1.90788
1.66708
1.80772
2.29169
2.4165
2.19215
2.3197
2.12325
2.2497
2.02846
2.15728
2.57911
2.45931
2.50251
2.38032
2.40501
2.28297
2.33185
2.2077
2.26122
2.13288
2.17723
2.04582
2.07724
1.94541
1.99742
1.86284
2.06999
2.06994
1.98149
1.98143
1.88131
1.88125
1.79748
1.79742
2.13274
2.26102
2.04567
2.17701
1.94526
2.07703
1.86268
1.99719
2.45909
2.57888
2.38008
2.50226
2.28273
2.40476
2.20744
2.33158
2.70764
2.5921
2.64698
2.52942
2.52783
2.40957
2.46985
2.3498
2.4029
2.28002
2.33607
2.2106
2.21198
2.08507
2.1484
2.01915
2.21969
2.21965
2.14904
2.149
2.02325
2.0232
1.95624
1.95619
2.2799
2.40273
2.21047
2.33588
2.08494
2.21179
2.01901
2.1482
2.59192
2.70745
2.52922
2.64677
2.40937
2.52761
2.34958
2.46961
2.80917
2.6972
2.76127
2.64762
2.62492
2.50986
2.57909
2.46253
2.51538
2.3971
2.46236
2.34191
2.31908
2.19634
2.26858
2.14386
2.33896
2.33892
2.28272
2.28268
2.13648
2.13644
2.08306
2.08302
2.397
2.51524
2.34179
2.4622
2.19623
2.31892
2.14374
2.2684
2.69705
2.80902
2.64745
2.7611
2.50969
2.62474
2.46234
2.57889
2.88886
2.77987
2.85132
2.74092
2.70123
2.58885
2.66526
2.55162
2.60423
2.48983
2.56242
2.44619
2.40379
2.2846
2.36391
2.24304
2.43354
2.4335
2.38901
2.38898
2.22642
2.22638
2.18406
2.18402
2.48974
2.60411
2.44609
2.56229
2.2845
2.40365
2.24293
2.36376
2.77974
2.88874
2.74079
2.85118
2.5887
2.70106
2.55146
2.66508
2.95063
2.84414
2.92163
2.81397
2.76048
2.65038
2.73264
2.62147
2.67373
2.56262
2.64113
2.52847
2.47019
2.35402
2.43903
2.32143
2.50791
2.50789
2.473
2.47297
2.29728
2.29725
2.264
2.26396
2.56254
2.67362
2.52838
2.64102
2.35393
2.47006
2.32133
2.43889
2.84404
2.95053
2.81385
2.92152
2.65024
2.76034
2.62132
2.73249
2.99756
2.8932
2.97565
2.87029
2.80564
2.69746
2.78453
2.67544
2.72723
2.61895
2.70227
2.59264
2.52144
2.40788
2.4975
2.38271
2.56561
2.56558
2.53865
2.53862
2.35239
2.35236
2.32662
2.32659
2.61888
2.72714
2.59257
2.70217
2.4078
2.52132
2.38262
2.49738
2.89311
2.99748
2.87019
2.97555
2.69734
2.80551
2.67531
2.78439
3.03202
2.92948
3.01609
2.91269
2.83893
2.73242
2.82351
2.71621
2.76736
2.66153
2.7488
2.6418
2.56002
2.44875
2.54215
2.42979
2.60937
2.60935