/*--------------------------------*- C++ -*----------------------------------*\
  =========                 |
  \\      /  F ield         | OpenFOAM: The Open Source CFD Toolbox
   \\    /   O peration     | Website:  https://openfoam.org
    \\  /    A nd           | Version:  9
     \\/     M anipulation  |
\*---------------------------------------------------------------------------*/
FoamFile
{
    format      ascii;
    class       volScalarField;
    location    "2.8";
    object      nut;
}
// * * * * * * * * * * * * * * * * * * * * * * * * * * * * * * * * * * * * * //

dimensions      [0 2 -1 0 0 0 0];

internalField   nonuniform List<scalar> 
36360
(
0.00813203
0.0075692
0.00504272
0.00484559
0.00113589
0.00110574
0.000554578
0.000733193
0.00604769
0.00521347
0.00316047
0.00179849
0.00081258
0.000554351
0.000395877
0.000229566
0.00504076
0.00504037
0.00118861
0.00118821
0.000446235
0.000446177
0.000192721
0.000192708
0.00521215
0.00604531
0.00179656
0.00315828
0.000554179
0.000812318
0.000229485
0.000395688
0.00756627
0.00812871
0.00484295
0.00503974
0.00110547
0.0011356
0.000732929
0.000554302
0.0119113
0.0115023
0.0102315
0.0097129
0.00163471
0.00153543
0.00143859
0.00135294
0.0103741
0.00992395
0.00840496
0.00784313
0.00130913
0.00115142
0.00109968
0.000902867
0.0098833
0.00988276
0.00780924
0.00780877
0.00107479
0.00107473
0.000796881
0.000796812
0.00992223
0.0103713
0.00784153
0.00840231
0.00115125
0.00130889
0.000902679
0.00109944
0.0114987
0.0119074
0.00970963
0.0102279
0.00153516
0.00163442
0.00135267
0.0014383
0.0146018
0.0143634
0.0133433
0.0130349
0.00189846
0.00179941
0.00178056
0.00167981
0.013469
0.0131116
0.0120426
0.0116496
0.00160624
0.00148374
0.00147273
0.00133663
0.013036
0.0130354
0.0115891
0.0115885
0.00142646
0.00142641
0.00127233
0.00127227
0.0131096
0.0134658
0.0116477
0.0120395
0.00148358
0.001606
0.00133646
0.00147249
0.0143594
0.0145974
0.0130311
0.0133392
0.00179913
0.00189816
0.00167953
0.00178027
0.0166653
0.0165275
0.0157015
0.0155182
0.00208052
0.00198687
0.00199681
0.00190035
0.0157606
0.015444
0.0146958
0.014362
0.00181265
0.00170662
0.00171779
0.00160475
0.0153522
0.0153515
0.0142762
0.0142755
0.00165751
0.00165746
0.00155218
0.00155212
0.015442
0.0157574
0.0143599
0.0146925
0.00170647
0.00181241
0.00160459
0.00171755
0.0165234
0.0166606
0.0155141
0.015697
0.00198659
0.00208022
0.00190007
0.00199651
0.0182502
0.0181868
0.0175084
0.0174094
0.00221444
0.00212613
0.00215226
0.00206135
0.0174987
0.0172058
0.0166867
0.0163833
0.00196437
0.00186824
0.00189397
0.00179343
0.0171096
0.0171089
0.0162883
0.0162876
0.001824
0.00182395
0.00174702
0.00174696
0.0172038
0.0174955
0.0163812
0.0166834
0.00186809
0.00196415
0.00179328
0.00189374
0.0181826
0.0182455
0.0174052
0.0175038
0.00212586
0.00221415
0.00206107
0.00215197
0.0194795
0.0194755
0.0189025
0.0188707
0.0023157
0.00223196
0.00226841
0.00218249
0.018839
0.018562
0.0182106
0.0179262
0.00207901
0.00198957
0.00202552
0.00193303
0.0184657
0.018465
0.0178295
0.0178289
0.00194862
0.00194857
0.00189058
0.00189053
0.01856
0.0188359
0.0179242
0.0182074
0.00198943
0.00207881
0.00193289
0.00202531
0.0194714
0.0194748
0.0188666
0.018898
0.00223171
0.00231543
0.00218224
0.00226814
0.0204404
0.0204817
0.0199884
0.0200086
0.00239349
0.00231343
0.00235704
0.00227524
0.0198837
0.0196187
0.0193926
0.0191219
0.00216706
0.00208246
0.00212583
0.002039
0.0195242
0.0195236
0.0190264
0.0190257
0.0020439
0.00204386
0.00199934
0.00199929
0.0196168
0.0198807
0.0191199
0.0193896
0.00208234
0.00216686
0.00203887
0.00212564
0.0204778
0.0204359
0.0200046
0.019984
0.0023132
0.00239324
0.002275
0.00235678
0.021196
0.0212718
0.02084
0.0208995
0.00245381
0.00237666
0.00242548
0.00234696
0.0207042
0.0204488
0.0203177
0.0200577
0.00223533
0.00215441
0.00220329
0.00212067
0.0203565
0.0203559
0.0199643
0.0199637
0.00211764
0.0021176
0.00208306
0.00208302
0.020447
0.0207014
0.0200559
0.0203148
0.00215429
0.00223515
0.00212054
0.00220311
0.021268
0.0211916
0.0208957
0.0208357
0.00237644
0.00245357
0.00234673
0.00242524
0.0217919
0.0218947
0.021511
0.021601
0.00250074
0.00242591
0.00247868
0.00240275
0.0213513
0.0211038
0.0210463
0.0207949
0.00228854
0.00221047
0.00226355
0.00218415
0.0210136
0.021013
0.0207036
0.020703
0.00217509
0.00217505
0.00214812
0.00214808
0.0211021
0.0213486
0.0207931
0.0210435
0.00221036
0.00228837
0.00218404
0.00226338
0.0218911
0.0217877
0.0215973
0.0215069
0.0024257
0.00250052
0.00240254
0.00247845
0.0222615
0.0223854
0.0220402
0.0221541
0.00253718
0.00246419
0.00252007
0.0024462
0.0218615
0.0216207
0.021621
0.021377
0.00232998
0.00225417
0.00231053
0.00223367
0.0215324
0.0215319
0.0212877
0.0212871
0.0022199
0.00221987
0.00219888
0.00219884
0.0216191
0.0218589
0.0213753
0.0216184
0.00225407
0.00232982
0.00223356
0.00231037
0.0223819
0.0222574
0.0221506
0.0220363
0.00246399
0.00253697
0.002446
0.00251986
0.0226292
0.0227698
0.0224562
0.0225888
0.00256525
0.00249371
0.0025521
0.00247987
0.0222618
0.0220268
0.0220733
0.0218356
0.00236205
0.00228807
0.00234703
0.0022722
0.0219402
0.0219397
0.0217481
0.0217475
0.00225468
0.00225465
0.00223839
0.00223836
0.0220253
0.0222592
0.021834
0.0220708
0.00228797
0.0023619
0.0022721
0.00234688
0.0227665
0.0226252
0.0225854
0.0224523
0.00249352
0.00256504
0.00247968
0.0025519
0.0229135
0.0230674
0.0227803
0.0229277
0.00258648
0.00251609
0.00257658
0.00250565
0.0225724
0.0223424
0.0224266
0.0221942
0.00238652
0.00231403
0.00237511
0.00230193
0.0222573
0.0222568
0.0221083
0.0221078
0.00228136
0.00228133
0.00226892
0.00226888
0.0223409
0.0225699
0.0221927
0.0224241
0.00231393
0.00238637
0.00230183
0.00237497
0.0230641
0.0229096
0.0229244
0.0227765
0.00251592
0.00258628
0.00250547
0.00257639
0.0231287
0.023293
0.0230285
0.0231877
0.00260206
0.00253259
0.00259486
0.00252495
0.0228088
0.0225832
0.0226984
0.0224707
0.00240472
0.00233346
0.0023963
0.00232446
0.0224994
0.0224989
0.0223862
0.0223857
0.00230138
0.00230135
0.00229211
0.00229208
0.0225817
0.0228064
0.0224692
0.022696
0.00233337
0.00240459
0.00232437
0.00239617
0.0232898
0.0231249
0.0231844
0.0230247
0.00253242
0.00260187
0.00252478
0.00259466
0.0232855
0.023458
0.0232133
0.0233818
0.00261288
0.00254413
0.00260797
0.00253887
0.0229828
0.0227609
0.0229024
0.0226786
0.00241768
0.00234742
0.00241178
0.00234105
0.0226785
0.022678
0.0225955
0.022595
0.00231584
0.00231581
0.00230923
0.0023092
0.0227595
0.0229804
0.0226772
0.0229
0.00234734
0.00241755
0.00234096
0.00241165
0.0234548
0.0232817
0.0233786
0.0232096
0.00254396
0.00261269
0.0025387
0.00260778
0.0233924
0.0235714
0.0233442
0.02352
0.00261959
0.00255139
0.00261666
0.0025482
0.0231037
0.0228851
0.0230488
0.0228286
0.00242616
0.00235675
0.00242242
0.00235261
0.0228038
0.0228034
0.0227467
0.0227462
0.00232558
0.00232555
0.00232124
0.00232121
0.0228837
0.0231013
0.0228271
0.0230464
0.00235666
0.00242603
0.00235252
0.00242229
0.0235682
0.0233885
0.0235168
0.0233406
0.00255123
0.0026194
0.00254803
0.00261648
0.0234557
0.0236397
0.0234289
0.0236103
0.00262263
0.00255483
0.00262153
0.00255354
0.0231787
0.0229631
0.0231459
0.0229289
0.00243071
0.00236204
0.00242888
0.00235985
0.0228828
0.0228824
0.0228481
0.0228476
0.00233123
0.0023312
0.00232887
0.00232884
0.0229617
0.0231764
0.0229274
0.0231436
0.00236196
0.00243058
0.00235977
0.00242875
0.0236369
0.0234522
0.0236071
0.0234251
0.00255467
0.00262245
0.00255338
0.00262134
0.0234819
0.0236692
0.023473
0.0236582
0.00262233
0.00255482
0.00262278
0.00255513
0.0232132
0.0229998
0.0232001
0.0229859
0.00243173
0.00236374
0.00243161
0.00236331
0.0229206
0.0229201
0.0229061
0.0229056
0.00233326
0.00233323
0.00233266
0.00233264
0.0229983
0.0232109
0.0229845
0.0231978
0.00236366
0.00243161
0.00236322
0.00243148
0.0236663
0.0234784
0.0236554
0.0234698
0.00255467
0.00262216
0.00255498
0.00262261
0.0234711
0.0236622
0.0234801
0.0236691
0.00261937
0.00255214
0.00262114
0.00255379
0.0232111
0.0230008
0.0232163
0.0230046
0.00242987
0.00236244
0.00243118
0.00236345
0.0229227
0.0229222
0.0229256
0.0229251
0.00233223
0.0023322
0.00233309
0.00233306
0.0229994
0.0232089
0.0230032
0.023214
0.00236236
0.00242974
0.00236337
0.00243105
0.0236591
0.0234673
0.0236661
0.0234766
0.00255199
0.0026192
0.00255364
0.00262097
0.0234309
0.0236243
0.0234539
0.0236462
0.00261385
0.00254674
0.00261688
0.00254971
0.023176
0.0229679
0.0231968
0.0229876
0.00242516
0.00235819
0.00242781
0.00236062
0.0228908
0.0228903
0.02291
0.0229095
0.00232821
0.00232818
0.00233053
0.0023305
0.0229665
0.0231737
0.0229862
0.0231945
0.00235811
0.00242504
0.00236054
0.00242769
0.0236209
0.0234268
0.0236432
0.0234505
0.00254657
0.00261366
0.00254955
0.0026167
0.0233611
0.0235564
0.0233987
0.0235929
0.00260597
0.00253892
0.00261013
0.00254305
0.0231109
0.0229047
0.0231464
0.0229392
0.002418
0.00235142
0.00242186
0.00235509
0.0228286
0.0228281
0.0228626
0.0228621
0.00232163
0.0023216
0.00232521
0.00232519
0.0229033
0.0231086
0.0229378
0.0231441
0.00235134
0.00241788
0.00235501
0.00242173
0.023553
0.0233566
0.0235898
0.023395
0.00253875
0.00260577
0.00254289
0.00260995
0.0232639
0.0234615
0.0233152
0.0235112
0.00259594
0.00252893
0.00260113
0.00253408
0.023018
0.0228134
0.0230672
0.0228618
0.00240858
0.0023423
0.00241353
0.00234713
0.0227382
0.0227377
0.0227861
0.0227856
0.00231267
0.00231265
0.00231743
0.0023174
0.022812
0.0230158
0.0228604
0.023065
0.00234222
0.00240845
0.00234705
0.00241341
0.0234594
0.0232617
0.0235089
0.0233121
0.00252878
0.00259578
0.00253393
0.00260096
0.0231431
0.0233424
0.0232061
0.0234046
0.00258413
0.00251705
0.00259026
0.00252323
0.0228988
0.0226955
0.022961
0.022757
0.00239705
0.00233098
0.00240307
0.0023369
0.0226211
0.0226206
0.0226822
0.0226817
0.00230147
0.00230144
0.00230733
0.00230731
0.0226941
0.0228965
0.0227556
0.0229586
0.0023309
0.00239692
0.00233682
0.00240294
0.023339
0.0231386
0.0234008
0.023202
0.00251688
0.00258393
0.00252304
0.00259006
0.022997
0.0231977
0.023073
0.0232726
0.00257012
0.00250292
0.00257734
0.00251018
0.0227547
0.0225521
0.0228292
0.0226263
0.00238339
0.00231751
0.00239046
0.0023245
0.0224784
0.022478
0.0225522
0.0225517
0.0022881
0.00228807
0.00229504
0.00229501
0.0225507
0.0227525
0.0226249
0.022827
0.00231743
0.00238327
0.00232442
0.00239033
0.0231955
0.0229941
0.0232698
0.0230693
0.00250277
0.00256996
0.00251004
0.00257717
0.0228269
0.02303
0.0229141
0.023116
0.00255427
0.00248693
0.00256238
0.00249511
0.0225859
0.022384
0.0226728
0.0224705
0.00236772
0.00230196
0.00237579
0.00230998
0.0223109
0.0223104
0.022397
0.0223966
0.00227261
0.00227258
0.0022806
0.00228057
0.0223825
0.0225834
0.022469
0.0226705
0.00230187
0.00236758
0.0023099
0.00237566
0.0230258
0.0228221
0.0231132
0.0229113
0.00248673
0.00255405
0.00249494
0.0025622
0.0226349
0.0228395
0.0227332
0.022937
0.00253639
0.00246883
0.00254554
0.00247808
0.0223919
0.0221913
0.0224915
0.02229
0.00234995
0.00228432
0.00235907
0.00229338
0.0221189
0.0221184
0.0222173
0.0222168
0.00225504
0.00225501
0.00226407
0.00226404
0.0221899
0.0223895
0.0222886
0.0224889
0.00228424
0.00234983
0.0022933
0.00235894
0.0228354
0.0226298
0.0229327
0.0227282
0.00246866
0.00253618
0.00247788
0.00254532
0.0224171
0.0226241
0.0225285
0.0227338
0.00251662
0.00244884
0.00252668
0.002459
0.0221739
0.0219745
0.0222852
0.0220852
0.00233022
0.00226464
0.00234031
0.00227472
0.0219026
0.0219021
0.0220131
0.0220126
0.0022354
0.00223537
0.00224546
0.00224543
0.021973
0.0221716
0.0220838
0.0222828
0.00226456
0.00233009
0.00227464
0.00234018
0.0226209
0.0224128
0.0227301
0.0225238
0.00244869
0.00251644
0.00245884
0.00252649
0.0221768
0.0223865
0.0222993
0.0225075
0.00249492
0.00242687
0.00250597
0.00243804
0.0219325
0.0217335
0.0220556
0.0218563
0.00230849
0.00224291
0.00231958
0.00225403
0.021662
0.0216615
0.0217847
0.0217842
0.00221367
0.00221364
0.00222478
0.00222475
0.021732
0.0219302
0.0218549
0.0220532
0.00224283
0.00230836
0.00225394
0.00231946
0.0223833
0.0221728
0.0225043
0.0222954
0.00242671
0.00249475
0.00243789
0.0025058
0.0219129
0.0221252
0.0220472
0.0222581
0.00247119
0.0024028
0.00248329
0.00241506
0.0216671
0.021468
0.0218022
0.0216032
0.00228466
0.00221906
0.00229682
0.00223124
0.0213969
0.0213964
0.0215318
0.0215313
0.00218979
0.00218977
0.00220199
0.00220196
0.0214665
0.0216646
0.0216017
0.0217998
0.00221897
0.00228453
0.00223116
0.00229669
0.022122
0.0219089
0.0222548
0.0220434
0.00240264
0.00247101
0.0024149
0.00248311
0.0216251
0.0218401
0.0217715
0.021985
0.0024453
0.00237652
0.00245847
0.00238988
0.0213771
0.0211779
0.0215245
0.0213254
0.00225866
0.00219301
0.00227192
0.00220629
0.021107
0.0211064
0.0212543
0.0212538
0.00216372
0.00216369
0.00217702
0.00217699
0.0211764
0.0213747
0.0213239
0.0215221
0.00219292
0.00225853
0.00220621
0.00227179
0.0218368
0.021621
0.0219817
0.0217676
0.00237636
0.00244512
0.00238972
0.00245829
0.0213131
0.0215308
0.0214716
0.0216878
0.00241729
0.00234808
0.00243152
0.00236252
0.0210624
0.0208626
0.0212223
0.0210228
0.00223046
0.00216472
0.00224482
0.00217913
0.0207919
0.0207914
0.0209519
0.0209514
0.00213539
0.00213536
0.00214983
0.0021498
0.0208611
0.0210599
0.0210212
0.0212198
0.00216464
0.00223033
0.00217905
0.00224469
0.0215275
0.021309
0.0216845
0.0214677
0.00234791
0.00241711
0.00236235
0.00243133
0.0209766
0.0211968
0.0211474
0.0213663
0.0023872
0.00231747
0.00240247
0.00233299
0.0207223
0.0205218
0.0208949
0.0206948
0.00220004
0.00213415
0.00221552
0.00214971
0.020451
0.0204505
0.020624
0.0206235
0.00210473
0.0021047
0.00212034
0.00212031
0.0205203
0.0207198
0.0206933
0.0208925
0.00213406
0.00219991
0.00214963
0.00221539
0.0211935
0.0209725
0.021363
0.0211435
0.0023173
0.00238701
0.00233283
0.00240228
0.0206151
0.0208375
0.0207985
0.0210197
0.002355
0.00228468
0.00237132
0.0023013
0.0203559
0.0201542
0.0205419
0.0203408
0.00216733
0.00210119
0.00218396
0.00211796
0.0200833
0.0200828
0.0202699
0.0202694
0.00207164
0.00207161
0.00208848
0.00208845
0.0201527
0.0203535
0.0203392
0.0205394
0.0021011
0.0021672
0.00211787
0.00218383
0.0208342
0.020611
0.0210164
0.0207946
0.00228451
0.00235481
0.00230113
0.00237114
0.0202271
0.0204509
0.020424
0.0206471
0.00232061
0.00224963
0.00233805
0.0022674
0.0199617
0.0197584
0.0201619
0.0199594
0.00213219
0.00206568
0.00215006
0.00208375
0.0196871
0.0196866
0.0198882
0.0198877
0.00203594
0.00203591
0.00205412
0.00205409
0.0197568
0.0199592
0.0199578
0.0201594
0.00206559
0.00213206
0.00208366
0.00214993
0.0204476
0.0202231
0.0206438
0.0204202
0.00224946
0.00232042
0.00226723
0.00233786
0.0198103
0.0200345
0.020022
0.020246
0.00228387
0.00221211
0.00230251
0.00223114
0.019537
0.0193319
0.0197528
0.0195485
0.00209441
0.00202739
0.00211363
0.00204689
0.0192602
0.0192597
0.019477
0.0194765
0.00199739
0.00199736
0.00201703
0.002017
0.0193303
0.0195345
0.019547
0.0197503
0.0020273
0.00209427
0.0020468
0.0021135
0.0200312
0.0198062
0.0202426
0.0200181
0.00221194
0.00228368
0.00223098
0.00230232
0.0193608
0.0195846
0.0195894
0.0198134
0.00224446
0.00217185
0.00226449
0.0021923
0.0190787
0.0188714
0.0193118
0.0191055
0.00205365
0.00198595
0.00207441
0.00200708
0.0187992
0.0187987
0.0190336
0.019033
0.0019556
0.00195557
0.00197692
0.00197689
0.0188698
0.0190762
0.019104
0.0193092
0.00198586
0.00205351
0.00200699
0.00207428
0.0195813
0.0193568
0.01981
0.0195856
0.00217168
0.00224427
0.00219213
0.0022643
0.0188727
0.019096
0.0191216
0.0193449
0.00220183
0.00212839
0.00222356
0.00215052
0.0185819
0.0183722
0.0188349
0.0186264
0.00200936
0.00194078
0.00203197
0.00196386
0.0182994
0.0182989
0.0185539
0.0185533
0.00191
0.00190997
0.00193331
0.00193328
0.0183706
0.0185793
0.0186248
0.0188324
0.00194068
0.00200922
0.00196377
0.00203184
0.0190927
0.0188687
0.0193416
0.0191178
0.00212822
0.00220164
0.00215034
0.00222337
0.018337
0.0185606
0.0186109
0.0188341
0.00215495
0.00208091
0.00217897
0.00210518
0.0180393
0.0178273
0.0183164
0.0181054
0.00196053
0.00189092
0.00198559
0.0019165
0.0177546
0.017754
0.0180325
0.0180319
0.00185972
0.00185969
0.0018855
0.00188547
0.0178257
0.0180368
0.0181038
0.0183139
0.00189083
0.00196039
0.00191641
0.00198545
0.0185573
0.0183331
0.0188309
0.0186071
0.00208074
0.00215476
0.00210501
0.00217878
0.017751
0.0179639
0.0180487
0.0182708
0.00210225
0.00202725
0.00212939
0.00205509
0.0174371
0.0172273
0.0177464
0.0175342
0.00190488
0.00183482
0.00193379
0.00186376
0.017158
0.0171575
0.0174624
0.0174618
0.00180368
0.00180365
0.00183246
0.00183243
0.0172258
0.0174347
0.0175326
0.017744
0.00183473
0.00190475
0.00186367
0.00193365
0.0179607
0.0177471
0.0182675
0.0180449
0.00202708
0.00210207
0.00205492
0.0021292
0.0171756
0.017252
0.0174545
0.0176297
0.00203992
0.00195292
0.00207317
0.00199508
0.0167519
0.0165689
0.0171052
0.0169039
0.00183653
0.00177079
0.00187284
0.0018038
0.0165124
0.0165119
0.0168397
0.0168391
0.00174169
0.00174166
0.00177332
0.00177328
0.0165674
0.0167495
0.0169024
0.0171028
0.0017707
0.0018364
0.00180371
0.0018727
0.0172489
0.0171717
0.0176265
0.0174508
0.00195276
0.00203973
0.00199491
0.00207299
0.0153076
0.0143793
0.0107651
0.0101207
0.0121023
0.0112611
0.00807199
0.00754598
0.012702
0.0119052
0.00820625
0.0071181
0.00956479
0.00867858
0.00563774
0.0043652
0.0118218
0.0118207
0.00692022
0.00691942
0.00853021
0.00852948
0.00395237
0.00395163
0.0119017
0.0126962
0.007115
0.00820106
0.00867607
0.00956064
0.00436273
0.00563396
0.0143719
0.015299
0.0101142
0.0107576
0.0112559
0.0120964
0.00754144
0.00806697
0.0231456
0.0223069
0.0193697
0.0184565
0.0183629
0.0176193
0.0154216
0.0145943
0.0210639
0.020673
0.0170085
0.0164531
0.0163816
0.0159723
0.0131379
0.0125434
0.0207377
0.020736
0.0164676
0.0164662
0.0160244
0.0160232
0.0125395
0.0125385
0.0206678
0.0210558
0.0164488
0.0170015
0.0159689
0.0163761
0.0125404
0.013133
0.0222967
0.023134
0.0184478
0.0193599
0.0176124
0.0183551
0.0145882
0.015415
0.0299468
0.0292598
0.0266721
0.0259124
0.0234492
0.0228696
0.0210341
0.0203737
0.0283053
0.0280846
0.0248315
0.024544
0.0219329
0.0216981
0.0193053
0.0190035
0.0281745
0.0281722
0.0246283
0.0246262
0.0217671
0.0217656
0.0190711
0.0190697
0.0280778
0.0282949
0.024538
0.0248223
0.0216938
0.0219261
0.0189996
0.0192991
0.029247
0.0299324
0.025901
0.0266593
0.0228611
0.0234397
0.020366
0.0210257
0.0357158
0.0351467
0.0329575
0.0323339
0.0275858
0.0271379
0.0256258
0.0251168
0.0343709
0.0342242
0.0314785
0.031301
0.0263857
0.0262244
0.0242829
0.0240912
0.0343092
0.0343066
0.0313894
0.0313869
0.0262845
0.0262829
0.0241561
0.0241545
0.0342164
0.0343591
0.0312938
0.0314675
0.0262195
0.0263782
0.0240865
0.0242757
0.0351322
0.0356993
0.0323202
0.0329423
0.0271284
0.0275752
0.0251078
0.025616
0.040503
0.0400221
0.0382245
0.0377019
0.0309204
0.0305688
0.0293417
0.0289468
0.0393658
0.039259
0.0369908
0.0368659
0.0299384
0.0298167
0.0282613
0.028122
0.0393367
0.0393338
0.0369467
0.036944
0.0298687
0.0298669
0.0281775
0.0281757
0.0392508
0.0393533
0.036858
0.0369787
0.0298116
0.0299305
0.028117
0.0282536
0.0400066
0.0404855
0.0376869
0.0382077
0.0305589
0.0309092
0.0289372
0.0293311
0.0444272
0.044015
0.0425616
0.0421174
0.0335971
0.0333158
0.0323316
0.0320174
0.0434454
0.043366
0.0415075
0.041415
0.0327722
0.0326769
0.0314337
0.0313261
0.0434391
0.0434362
0.0414897
0.0414869
0.0327242
0.0327225
0.0313751
0.0313733
0.0433577
0.0434327
0.0414068
0.0414949
0.0326718
0.0327643
0.031321
0.0314259
0.0439992
0.0444092
0.0421018
0.0425441
0.0333058
0.0335858
0.0320075
0.0323207
0.0476322
0.0472721
0.0461096
0.0457249
0.0357428
0.0355171
0.0347277
0.0344756
0.0467683
0.04671
0.0451901
0.0451214
0.035038
0.0349626
0.0339667
0.0338819
0.0467812
0.0467783
0.0451931
0.0451902
0.035008
0.0350063
0.0339278
0.0339261
0.0467018
0.0467557
0.0451132
0.0451776
0.0349576
0.0350302
0.0338768
0.0339589
0.0472563
0.047614
0.0457092
0.0460918
0.0355072
0.0357316
0.0344657
0.0347168
0.0502418
0.0499231
0.0490021
0.0486638
0.0374652
0.0372844
0.0366499
0.0364479
0.0494711
0.0494302
0.0481873
0.0481377
0.036854
0.0367943
0.0359947
0.0359274
0.0495012
0.0494985
0.0482083
0.0482055
0.0368393
0.0368376
0.0359723
0.0359706
0.0494222
0.0494588
0.0481296
0.0481749
0.0367894
0.0368464
0.0359225
0.0359871
0.0499075
0.0502238
0.0486482
0.0489844
0.0372747
0.037454
0.0364382
0.0366391
0.0523627
0.0520774
0.0513554
0.0510541
0.0388472
0.0387021
0.038193
0.0380312
0.0516668
0.0516406
0.0506239
0.0505903
0.0383105
0.0382638
0.0376212
0.0375681
0.0517125
0.0517097
0.0506614
0.0506587
0.0383093
0.0383077
0.0376131
0.0376114
0.0516327
0.0516546
0.0505824
0.0506117
0.0382591
0.0383032
0.0375633
0.0376138
0.052062
0.0523448
0.0510387
0.0513378
0.0386927
0.0388363
0.0380216
0.0381824
0.0540807
0.0538228
0.0532654
0.0529945
0.0399537
0.039837
0.0394303
0.0393001
0.0534456
0.0534319
0.0526012
0.0525812
0.039477
0.0394413
0.0389252
0.038884
0.0535052
0.0535026
0.0526535
0.0526509
0.0394878
0.0394862
0.0389298
0.0389282
0.0534242
0.0534337
0.0525735
0.0525893
0.0394367
0.0394698
0.0388794
0.038918
0.0538077
0.054063
0.0529793
0.053248
0.0398277
0.0399429
0.0392908
0.0394198
0.0554642
0.0552287
0.0548085
0.0545623
0.0408346
0.0407409
0.0404185
0.0403138
0.054879
0.0548762
0.0541993
0.0541909
0.0404068
0.0403806
0.0399674
0.0399365
0.0549513
0.0549487
0.0542649
0.0542623
0.0404283
0.0404268
0.0399835
0.0399819
0.0548687
0.0548673
0.0541834
0.0541876
0.0403761
0.0403998
0.039932
0.0399604
0.0552138
0.0554466
0.0545474
0.0547912
0.0407318
0.040824
0.0403047
0.0404082
0.056568
0.0563508
0.0560461
0.05582
0.0415289
0.0414539
0.0412019
0.0411179
0.0560241
0.0560308
0.0554823
0.0554841
0.0411414
0.0411232
0.0407952
0.0407729
0.056108
0.0561054
0.05556
0.0555575
0.0411724
0.0411709
0.0408213
0.0408198
0.0560235
0.0560126
0.0554767
0.0554708
0.0411188
0.0411345
0.0407685
0.0407883
0.056336
0.0565505
0.0558053
0.056029
0.0414449
0.0415183
0.0411089
0.0411917
0.057436
0.0572338
0.057027
0.0568175
0.0420671
0.0420073
0.0418146
0.0417475
0.0569265
0.0569416
0.0565008
0.0565116
0.0417128
0.0417017
0.0414446
0.0414298
0.0570207
0.0570182
0.0565895
0.056587
0.0417523
0.0417509
0.0414797
0.0414782
0.0569343
0.0569151
0.0565043
0.0564895
0.0416974
0.041706
0.0414255
0.0414378
0.0572192
0.0574186
0.0568028
0.0570099
0.0419983
0.0420565
0.0417386
0.0418045
0.0581031
0.0579139
0.0577908
0.057595
0.042473
0.0424257
0.0422841
0.0422308
0.0576229
0.0576453
0.0572962
0.0573148
0.0421465
0.0421416
0.0419443
0.0419362
0.0577264
0.0577239
0.0573947
0.0573922
0.0421938
0.0421923
0.0419876
0.0419861
0.0576381
0.0576116
0.0573076
0.0572849
0.0421373
0.0421398
0.041932
0.0419376
0.0578993
0.0580856
0.0575804
0.0577737
0.0424169
0.0424625
0.0422219
0.042274
0.0585982
0.0584191
0.0583683
0.0581839
0.042766
0.0427293
0.0426316
0.0425894
0.0581425
0.0581716
0.0579008
0.0579263
0.0424628
0.0424633
0.042317
0.0423147
0.0582546
0.0582521
0.0580082
0.0580058
0.042517
0.0425155
0.0423676
0.0423661
0.0581645
0.0581312
0.0579192
0.0578896
0.042459
0.0424561
0.0423105
0.0423103
0.0584045
0.0585807
0.0581693
0.0583511
0.0427205
0.0427555
0.0425807
0.0426215
0.0589449
0.0587745
0.0587867
0.0586119
0.0429619
0.0429333
0.0428737
0.042841
0.0585096
0.058544
0.0583413
0.0583732
0.0426777
0.0426834
0.042581
0.0425838
0.0586286
0.0586261
0.0584572
0.0584547
0.0427384
0.042737
0.0426381
0.0426367
0.0585368
0.0584984
0.0583661
0.0583301
0.0426792
0.042671
0.0425796
0.0425743
0.0587599
0.0589274
0.0585974
0.0587695
0.0429246
0.0429515
0.0428322
0.0428635
0.0591649
0.0590013
0.0590692
0.0589017
0.0430756
0.0430533
0.0430285
0.0430027
0.058746
0.0587844
0.0586406
0.0586767
0.0428059
0.042814
0.0427506
0.0427572
0.0588699
0.0588674
0.0587619
0.0587594
0.0428695
0.0428681
0.0428129
0.0428115
0.0587772
0.0587348
0.0586696
0.0586294
0.0428098
0.0427992
0.042753
0.042744
0.0589867
0.0591472
0.0588872
0.059052
0.0430441
0.0430647
0.042994
0.0430187
0.0592644
0.0591071
0.0592269
0.0590663
0.043106
0.04309
0.0430993
0.0430799
0.0588611
0.0589043
0.0588156
0.0588565
0.0428526
0.0428656
0.0428379
0.0428488
0.0589916
0.0589892
0.058943
0.0589405
0.0429231
0.0429217
0.0429055
0.0429041
0.0588972
0.0588499
0.0588494
0.0588044
0.0428615
0.0428461
0.0428447
0.0428313
0.0590926
0.0592468
0.0590518
0.0592096
0.0430823
0.0430965
0.0430713
0.0430888
0.0592575
0.0591059
0.0592709
0.0591168
0.0430688
0.043058
0.043094
0.043081
0.0588676
0.0589148
0.0588749
0.0589197
0.0428268
0.0428435
0.042847
0.0428618
0.0590034
0.059001
0.0590075
0.0590051
0.0429024
0.0429009
0.0429198
0.0429184
0.0589077
0.0588565
0.0589127
0.0588637
0.0428393
0.0428201
0.0428577
0.0428405
0.0590912
0.0592395
0.0591022
0.0592536
0.0430482
0.0430571
0.0430723
0.0430846
0.0591514
0.0590052
0.0592142
0.0590649
0.0429665
0.0429598
0.0430244
0.0430153
0.0587751
0.0588261
0.0588308
0.0588796
0.0427354
0.0427554
0.0427877
0.042806
0.0589163
0.0589138
0.0589688
0.0589664
0.0428157
0.0428143
0.0428655
0.0428641
0.058819
0.058764
0.0588725
0.0588197
0.0427513
0.0427289
0.0428019
0.0427812
0.0589906
0.0591338
0.0590503
0.0591968
0.042952
0.0429568
0.0430065
0.0430134
0.0589586
0.0588165
0.0590632
0.0589194
0.0428071
0.0428038
0.0428926
0.0428879
0.0585916
0.0586459
0.0586919
0.0587443
0.0425832
0.0426062
0.0426655
0.0426868
0.0587376
0.0587352
0.058835
0.0588326
0.0426678
0.0426664
0.0427477
0.0427463
0.0586389
0.0585804
0.0587373
0.0586808
0.042602
0.0425766
0.0426827
0.042659
0.0588019
0.0589406
0.0589049
0.0590458
0.0427942
0.0427959
0.0428794
0.0428835
0.0586791
0.0585412
0.0588272
0.0586867
0.0425891
0.0425887
0.042704
0.0427017
0.0583226
0.0583802
0.0584649
0.0585207
0.0423735
0.0423995
0.042484
0.0425084
0.0584734
0.0584709
0.0586129
0.0586105
0.0424626
0.0424612
0.0425707
0.0425693
0.058373
0.0583112
0.0585136
0.0584537
0.0423953
0.0423669
0.0425042
0.0424773
0.0585263
0.0586612
0.058672
0.0588097
0.0425807
0.0425791
0.0426927
0.0426928
0.0583237
0.0581889
0.0585084
0.0583723
0.0423215
0.0423235
0.0424602
0.0424613
0.0579736
0.0580339
0.0581554
0.0582142
0.0421105
0.0421386
0.0422474
0.0422743
0.0581284
0.0581259
0.0583078
0.0583053
0.0422031
0.0422016
0.042338
0.0423366
0.0580266
0.0579621
0.0582069
0.058144
0.0421344
0.0421037
0.0422701
0.0422407
0.0581739
0.0583052
0.0583574
0.0584905
0.0423138
0.0423101
0.0424527
0.0424507
0.0578896
0.057758
0.0581143
0.0579806
0.042
0.0420041
0.0421663
0.0421689
0.0575472
0.0576099
0.0577674
0.0578287
0.0417949
0.0418252
0.041958
0.041987
0.0577056
0.0577031
0.0579236
0.0579211
0.041891
0.0418895
0.042052
0.0420506
0.0576025
0.0575355
0.0578214
0.0577559
0.0418209
0.0417881
0.0419828
0.0419512
0.0577428
0.0578712
0.0579655
0.0580963
0.0419958
0.0419895
0.0421598
0.0421551
0.0573836
0.0572546
0.0576431
0.0575131
0.0416318
0.0416373
0.0418205
0.0418257
0.0570455
0.0571102
0.0573032
0.0573666
0.0414282
0.0414605
0.0416167
0.0416479
0.0572069
0.0572044
0.0574627
0.0574602
0.0415274
0.0415259
0.0417141
0.0417126
0.0571027
0.0570338
0.0573593
0.0572915
0.0414561
0.0414212
0.0416436
0.0416098
0.0572393
0.0573646
0.0574978
0.0576248
0.0416273
0.0416198
0.0418168
0.0418105
0.0568024
0.0566759
0.0571003
0.0569722
0.0412111
0.0412182
0.0414267
0.0414326
0.0564691
0.0565354
0.0567641
0.0568293
0.0410105
0.0410447
0.0412244
0.0412576
0.0566333
0.0566307
0.0569265
0.0569239
0.0411129
0.0411114
0.041325
0.0413236
0.0565279
0.0564573
0.0568219
0.0567524
0.0410404
0.0410036
0.0412532
0.0412174
0.0566605
0.0567838
0.0569568
0.0570819
0.0412096
0.0412003
0.0414232
0.041415
0.0561489
0.0560244
0.0564825
0.056357
0.0407438
0.0407517
0.0409823
0.0409899
0.0558181
0.0558859
0.0561504
0.0562172
0.0405428
0.0405783
0.0407818
0.0408165
0.0559849
0.0559823
0.0563155
0.0563129
0.0406475
0.040646
0.0408851
0.0408836
0.0558783
0.0558062
0.0562097
0.0561387
0.0405739
0.0405358
0.0408121
0.0407749
0.0560089
0.0561301
0.0563416
0.0564641
0.0407424
0.0407327
0.0409811
0.0409722
0.0554211
0.0552983
0.0557921
0.0556683
0.0402259
0.0402342
0.04049
0.0404979
0.0550925
0.0551614
0.0554622
0.0555303
0.0400243
0.0400609
0.0402886
0.0403246
0.0552616
0.055259
0.0556297
0.0556271
0.0401311
0.0401296
0.0403942
0.0403927
0.0551539
0.0550806
0.0555228
0.0554504
0.0400564
0.0400173
0.0403202
0.0402817
0.0552829
0.0554023
0.0556529
0.0557737
0.0402249
0.0402146
0.0404886
0.040479
0.0546194
0.0544982
0.0550274
0.0549053
0.0396583
0.0396667
0.0399472
0.0399555
0.054292
0.0543614
0.0546993
0.0547683
0.0394551
0.0394921
0.0397449
0.0397816
0.0544625
0.0544599
0.0548687
0.0548661
0.0395631
0.0395616
0.0398522
0.0398507
0.0543538
0.0542801
0.0547607
0.0546875
0.0394877
0.039448
0.0397772
0.0397379
0.0544827
0.0546007
0.0548899
0.055009
0.0396574
0.0396469
0.0399462
0.0399363
0.0537423
0.0536219
0.0541884
0.0540675
0.03904
0.0390481
0.0393544
0.0393627
0.0534141
0.0534833
0.0538606
0.0539296
0.0388337
0.0388707
0.0391499
0.0391868
0.0535852
0.0535826
0.0540309
0.0540283
0.0389423
0.0389407
0.039258
0.0392565
0.0534757
0.0534022
0.053922
0.0538487
0.0388662
0.0388266
0.0391823
0.0391428
0.0536065
0.0537236
0.0540521
0.05417
0.0390388
0.0390287
0.0393534
0.0393436
0.052786
0.0526656
0.0532723
0.0531519
0.0383693
0.0383761
0.0387103
0.0387177
0.0524551
0.0525235
0.0529427
0.0530113
0.0381579
0.0381944
0.0385016
0.0385383
0.052626
0.0526234
0.0531133
0.0531106
0.0382663
0.0382647
0.0386099
0.0386084
0.0525159
0.0524431
0.0530037
0.0529308
0.0381899
0.0381508
0.0385338
0.0384946
0.0526503
0.0527674
0.0531365
0.053254
0.0383668
0.038358
0.0387085
0.0386994
0.0517458
0.0516247
0.0522748
0.0521539
0.0376436
0.0376483
0.0380124
0.0380182
0.0514097
0.051477
0.0519413
0.0520089
0.0374247
0.0374598
0.0377976
0.0378333
0.0515798
0.0515772
0.0521113
0.0521087
0.0375319
0.0375304
0.0379053
0.0379037
0.0514693
0.0513978
0.0520012
0.0519294
0.0374553
0.0374175
0.0378288
0.0377905
0.0516094
0.0517274
0.0521386
0.0522566
0.037639
0.0376323
0.0380089
0.0380016
0.0506152
0.0504921
0.0511903
0.0510683
0.0368587
0.0368602
0.0372578
0.037261
0.0502711
0.0503367
0.0508504
0.0509165
0.0366295
0.0366626
0.037034
0.0370681
0.0504397
0.050437
0.0510192
0.0510166
0.0367349
0.0367333
0.0371402
0.0371387
0.050329
0.0502591
0.0509089
0.0508384
0.0366581
0.0366223
0.0370636
0.037027
0.0504769
0.0505969
0.051053
0.0511723
0.036851
0.0368476
0.0372518