/*--------------------------------*- C++ -*----------------------------------*\
  =========                 |
  \\      /  F ield         | OpenFOAM: The Open Source CFD Toolbox
   \\    /   O peration     | Website:  https://openfoam.org
    \\  /    A nd           | Version:  9
     \\/     M anipulation  |
\*---------------------------------------------------------------------------*/
FoamFile
{
    format      ascii;
    class       volVectorField;
    location    "2.8";
    object      U;
}
// * * * * * * * * * * * * * * * * * * * * * * * * * * * * * * * * * * * * * //

dimensions      [0 1 -1 0 0 0 0];

internalField   nonuniform List<vector> 
36360
(
(0.0242408 -0.272144 -0.947377)
(-0.0193629 -0.184417 0.00179729)
(0.0226728 -0.293301 -0.973334)
(-0.0209095 -0.160352 0.00113401)
(0.0296675 -0.346911 -0.98707)
(-0.0170402 -0.135601 -0.000486583)
(0.0431376 -0.388972 -0.997928)
(-0.0229887 -0.103069 -0.000366332)
(0.00494688 -0.189148 -0.00111568)
(0.00566556 -0.196157 -0.000147109)
(0.00219283 -0.185428 -0.000827423)
(0.00183839 -0.19324 -7.54589e-05)
(0.0141476 -0.173265 0.000518131)
(0.0120455 -0.206464 -1.2004e-05)
(0.0147909 -0.184666 0.000251483)
(0.013736 -0.218005 -4.30873e-05)
(0.00411637 -0.199833 -2.05851e-06)
(0.00411588 -0.199833 2.06887e-06)
(-0.000276935 -0.19676 1.84279e-06)
(-0.000277949 -0.196761 -1.8265e-06)
(0.0105447 -0.21668 -4.04599e-06)
(0.0105446 -0.216682 4.03083e-06)
(0.0129369 -0.225363 -1.13979e-05)
(0.0129369 -0.225364 1.13805e-05)
(0.0056649 -0.196157 0.000147073)
(0.00494851 -0.189147 0.00111548)
(0.00183679 -0.19324 7.54379e-05)
(0.00219379 -0.185428 0.000827175)
(0.0120458 -0.206472 1.20434e-05)
(0.0141494 -0.173276 -0.00051775)
(0.0137365 -0.218011 4.30934e-05)
(0.0147924 -0.18468 -0.000251239)
(-0.0193558 -0.184408 -0.00179685)
(0.0242316 -0.272137 0.947398)
(-0.0209022 -0.160347 -0.00113359)
(0.0226628 -0.293287 0.973351)
(-0.017029 -0.135598 0.00048607)
(0.0296581 -0.346892 0.987074)
(-0.0229749 -0.103079 0.000365973)
(0.0431217 -0.388936 0.997931)
(0.0333268 -0.254185 -0.926026)
(-0.0264789 -0.196188 0.000850809)
(0.0307325 -0.263441 -0.937231)
(-0.0231105 -0.190079 0.00136607)
(0.0314447 -0.300489 -0.986796)
(-0.0309884 -0.15577 -0.00204942)
(0.0296851 -0.317384 -0.989351)
(-0.0248105 -0.142732 -0.00113919)
(0.0014867 -0.190964 -0.000422923)
(0.00595695 -0.195474 6.81196e-06)
(0.00373945 -0.189354 -0.000714523)
(0.00690311 -0.195815 -0.000102874)
(0.00741708 -0.161923 0.00182097)
(0.00720055 -0.186742 0.000290134)
(0.0107735 -0.163195 0.00119466)
(0.0101643 -0.193346 0.000108792)
(0.00602153 -0.198886 6.87694e-07)
(0.0060217 -0.198886 -6.82091e-07)
(0.00639115 -0.199616 -6.8514e-06)
(0.00639115 -0.199616 6.85277e-06)
(0.00673228 -0.197737 2.19976e-05)
(0.00673256 -0.197738 -2.19971e-05)
(0.00926823 -0.204995 5.00522e-06)
(0.00926842 -0.204997 -5.01086e-06)
(0.00595784 -0.195474 -6.7103e-06)
(0.00148963 -0.190962 0.000422929)
(0.00690362 -0.195816 0.000102903)
(0.00374217 -0.189353 0.000714494)
(0.00720157 -0.186746 -0.000289907)
(0.0074188 -0.161926 -0.00182029)
(0.0101654 -0.193352 -0.00010867)
(0.0107759 -0.163202 -0.00119408)
(-0.026472 -0.196181 -0.000850981)
(0.033318 -0.25418 0.926051)
(-0.0231032 -0.190071 -0.00136601)
(0.0307241 -0.263434 0.937254)
(-0.030978 -0.155762 0.00204822)
(0.0314345 -0.300477 0.986801)
(-0.0247991 -0.142726 0.00113835)
(0.0296762 -0.317368 0.989355)
(0.0348797 -0.238665 -0.907683)
(-0.030133 -0.201549 -8.55552e-05)
(0.0344002 -0.245583 -0.916043)
(-0.0285821 -0.199584 0.00036042)
(0.0321568 -0.267891 -0.98278)
(-0.0361939 -0.174234 -0.00378029)
(0.0319391 -0.282891 -0.984623)
(-0.0342157 -0.166174 -0.00294564)
(-0.0015863 -0.193415 -0.000139532)
(0.00316915 -0.194203 0.000317963)
(-0.000276706 -0.192235 -0.00023856)
(0.00446873 -0.19473 0.000166491)
(0.00480546 -0.165479 0.00271332)
(0.00327827 -0.179459 0.00073428)
(0.00541917 -0.162939 0.00233098)
(0.00484497 -0.182164 0.000509981)
(0.00376264 -0.196341 8.19033e-05)
(0.00376286 -0.196341 -8.18345e-05)
(0.00488324 -0.197577 3.34688e-05)
(0.00488347 -0.197577 -3.34353e-05)
(0.0032062 -0.188291 0.000103976)
(0.00320638 -0.188292 -0.000103894)
(0.00457139 -0.192254 5.64586e-05)
(0.00457161 -0.192255 -5.64126e-05)
(0.00317008 -0.194202 -0.000317805)
(-0.00158367 -0.193412 0.000139464)
(0.00446975 -0.19473 -0.000166351)
(-0.000273828 -0.192232 0.000238538)
(0.0032789 -0.179461 -0.000733938)
(0.00480562 -0.165476 -0.00271267)
(0.0048458 -0.182167 -0.000509693)
(0.00542028 -0.162939 -0.0023303)
(-0.0301266 -0.201543 8.51489e-05)
(0.0348713 -0.238662 0.907711)
(-0.0285754 -0.199578 -0.000360736)
(0.0343922 -0.245579 0.916069)
(-0.0361851 -0.174223 0.00377863)
(0.0321475 -0.267885 0.982785)
(-0.0342061 -0.166164 0.00294418)
(0.0319304 -0.282882 0.984628)
(0.0354895 -0.228651 -0.893295)
(-0.0323614 -0.203526 -0.000854136)
(0.0351874 -0.233126 -0.899792)
(-0.0313561 -0.202754 -0.000492868)
(0.0324984 -0.246354 -0.979604)
(-0.0388751 -0.184876 -0.00520747)
(0.0322793 -0.255922 -0.981065)
(-0.0376385 -0.180349 -0.00453551)
(-0.00299734 -0.195522 -0.000119396)
(0.00160607 -0.194143 0.000569835)
(-0.00245013 -0.194491 -0.000106119)
(0.00223462 -0.194021 0.000455611)
(0.00488419 -0.172035 0.0031611)
(0.00172012 -0.178024 0.00112281)
(0.00473368 -0.168702 0.00298159)
(0.00230048 -0.178242 0.000942)
(0.00218172 -0.1949 0.000183195)
(0.00218186 -0.1949 -0.000183059)
(0.00286334 -0.195439 0.000134354)
(0.00286352 -0.195439 -0.000134251)
(0.00168857 -0.183865 0.000213642)
(0.00168875 -0.183865 -0.00021348)
(0.00232181 -0.185612 0.000158474)
(0.00232199 -0.185613 -0.000158354)
(0.00160663 -0.194142 -0.000569656)
(-0.00299531 -0.195518 0.000119223)
(0.00223537 -0.194019 -0.000455436)
(-0.00244781 -0.194487 0.000105996)
(0.00172041 -0.178024 -0.00112242)
(0.00488381 -0.17203 -0.00316057)
(0.00230094 -0.178243 -0.000941625)
(0.00473357 -0.168698 -0.00298099)
(-0.0323554 -0.20352 0.00085359)
(0.0354814 -0.228649 0.893325)
(-0.0313499 -0.202748 0.000492373)
(0.0351796 -0.233124 0.89982)
(-0.038867 -0.184866 0.00520557)
(0.0324897 -0.246351 0.97961)
(-0.0376299 -0.180338 0.00453371)
(0.0322715 -0.255917 0.981071)
(0.036138 -0.222098 -0.881837)
(-0.0339139 -0.204365 -0.00144114)
(0.0357961 -0.225034 -0.886948)
(-0.0331951 -0.204026 -0.00116901)
(0.0330029 -0.232468 -0.977041)
(-0.0408381 -0.190623 -0.00630796)
(0.0326986 -0.238674 -0.978212)
(-0.0398838 -0.188192 -0.00579556)
(-0.00357083 -0.197393 -0.000225891)
(0.000932101 -0.194981 0.000722251)
(-0.00334103 -0.196491 -0.000162468)
(0.00119765 -0.194486 0.000657528)
(0.00537728 -0.178093 0.00333536)
(0.001293 -0.179216 0.00139314)
(0.0051312 -0.175206 0.00327264)
(0.00143322 -0.178422 0.00127285)
(0.00129323 -0.194781 0.000258179)
(0.00129328 -0.19478 -0.000257999)
(0.00167247 -0.1947 0.00022373)
(0.00167256 -0.1947 -0.000223569)
(0.000787671 -0.182381 0.000310634)
(0.00078784 -0.182381 -0.00031042)
(0.00118248 -0.182839 0.00026497)
(0.00118268 -0.182839 -0.000264779)
(0.000932397 -0.194979 -0.000722087)
(-0.00356916 -0.197389 0.000225634)
(0.00119806 -0.194484 -0.000657355)
(-0.00333922 -0.196487 0.000162249)
(0.00129293 -0.179214 -0.00139275)
(0.00537673 -0.178087 -0.00333495)
(0.00143326 -0.178421 -0.00127245)
(0.0051307 -0.175201 -0.00327217)
(-0.0339083 -0.20436 0.00144054)
(0.0361303 -0.222097 0.881867)
(-0.0331893 -0.20402 0.00116842)
(0.0357886 -0.225032 0.886977)
(-0.0408305 -0.190614 0.00630597)
(0.032995 -0.232466 0.977047)
(-0.0398758 -0.188182 0.0057936)
(0.0326914 -0.238671 0.978218)
(0.0367945 -0.217763 -0.872541)
(-0.0350647 -0.204807 -0.0018741)
(0.0364623 -0.219713 -0.876618)
(-0.0345222 -0.204612 -0.00167404)
(0.0335734 -0.223293 -0.974948)
(-0.0423928 -0.193768 -0.00713466)
(0.0332488 -0.227425 -0.975894)
(-0.0416292 -0.192417 -0.00675076)
(-0.0038454 -0.199005 -0.000380256)
(0.000665691 -0.196254 0.00079264)
(-0.00372754 -0.198229 -0.000300365)
(0.000767203 -0.195583 0.000765931)
(0.00578158 -0.182891 0.003365)
(0.00124977 -0.181402 0.00155151)
(0.00560122 -0.18065 0.00336207)
(0.00124416 -0.180241 0.00148429)
(0.000811105 -0.195515 0.000307024)
(0.00081108 -0.195514 -0.000306827)
(0.00101523 -0.195071 0.000285855)
(0.00101524 -0.195071 -0.000285665)
(0.000260612 -0.182658 0.000381429)
(0.000260712 -0.182657 -0.000381187)
(0.000486985 -0.182361 0.000349428)
(0.00048712 -0.182361 -0.000349196)
(0.000665782 -0.196251 -0.000792502)
(-0.00384394 -0.199001 0.000379947)
(0.000767381 -0.195581 -0.000765779)
(-0.00372599 -0.198225 0.000300077)
(0.00124946 -0.181399 -0.00155115)
(0.00578104 -0.182885 -0.0033647)
(0.00124396 -0.180239 -0.00148391)
(0.00560067 -0.180644 -0.00336172)
(-0.0350594 -0.204803 0.00187348)
(0.0367872 -0.217762 0.87257)
(-0.0345167 -0.204608 0.00167342)
(0.0364553 -0.219711 0.876647)
(-0.0423858 -0.193761 0.00713268)
(0.0335661 -0.223292 0.974954)
(-0.0416217 -0.192409 0.00674877)
(0.0332422 -0.227423 0.9759)
(0.0373731 -0.214871 -0.864856)
(-0.0359608 -0.205148 -0.00219198)
(0.0370858 -0.216172 -0.868174)
(-0.0355329 -0.204979 -0.00204469)
(0.0340994 -0.21706 -0.973222)
(-0.0436141 -0.195597 -0.00775415)
(0.033806 -0.219887 -0.973994)
(-0.0430028 -0.194794 -0.00746592)
(-0.00398765 -0.200403 -0.000538773)
(0.000576716 -0.197697 0.000807512)
(-0.00392439 -0.199728 -0.000460125)
(0.000607626 -0.196966 0.000805167)
(0.00605381 -0.186543 0.00332702)
(0.00135083 -0.183875 0.00162942)
(0.00593661 -0.184843 0.00335106)
(0.00129062 -0.182629 0.00159841)
(0.000558029 -0.196706 0.000331989)
(0.000557955 -0.196706 -0.000331794)
(0.000662043 -0.196072 0.000322002)
(0.000661994 -0.196071 -0.000321804)
(-5.13312e-05 -0.183915 0.000426021)
(-5.13006e-05 -0.183914 -0.000425774)
(8.27951e-05 -0.183201 0.000406801)
(8.28631e-05 -0.1832 -0.000406554)
(0.000576684 -0.197695 -0.000807403)
(-0.00398634 -0.200399 0.000538436)
(0.000607648 -0.196963 -0.000805043)
(-0.00392301 -0.199724 0.000459799)
(0.00135035 -0.183872 -0.0016291)
(0.00605332 -0.186537 -0.00332682)
(0.00129022 -0.182626 -0.00159807)
(0.0059361 -0.184837 -0.00335081)
(-0.0359559 -0.205144 0.00219137)
(0.0373664 -0.21487 0.864884)
(-0.0355277 -0.204975 0.00204406)
(0.0370793 -0.216171 0.868202)
(-0.0436076 -0.19559 0.00775221)
(0.0340927 -0.217059 0.973228)
(-0.0429959 -0.194787 0.00746396)
(0.0337999 -0.219885 0.974)
(0.0378544 -0.212948 -0.858396)
(-0.0366571 -0.205511 -0.00242713)
(0.0376148 -0.213811 -0.861109)
(-0.0363238 -0.205324 -0.00231764)
(0.0345359 -0.212738 -0.971783)
(-0.044558 -0.196784 -0.00822122)
(0.0342854 -0.214707 -0.972415)
(-0.0440764 -0.196244 -0.00800327)
(-0.00408968 -0.201645 -0.000683987)
(0.000560104 -0.199167 0.000790689)
(-0.00403857 -0.20104 -0.000613114)
(0.000563641 -0.198434 0.000801662)
(0.00621304 -0.189348 0.00326138)
(0.00149639 -0.186313 0.00165631)
(0.00614971 -0.188031 0.00329581)
(0.0014222 -0.185108 0.00164758)
(0.000437385 -0.198109 0.000339757)
(0.000437274 -0.198108 -0.000339576)
(0.000485996 -0.197391 0.000337443)
(0.000485904 -0.197391 -0.000337254)
(-0.000224826 -0.185662 0.000449437)
(-0.000224869 -0.185661 -0.0004492)
(-0.000151177 -0.184749 0.000439902)
(-0.000151184 -0.184748 -0.000439658)
(0.000559991 -0.199164 -0.000790608)
(-0.00408847 -0.201642 0.000683636)
(0.000563564 -0.198431 -0.000801567)
(-0.00403731 -0.201036 0.000612768)
(0.00149578 -0.186309 -0.00165603)
(0.00621261 -0.189343 -0.00326124)
(0.00142165 -0.185105 -0.00164728)
(0.00614926 -0.188025 -0.00329564)
(-0.0366525 -0.205507 0.00242654)
(0.0378482 -0.212947 0.858423)
(-0.0363189 -0.20532 0.00231703)
(0.0376088 -0.21381 0.861137)
(-0.0445519 -0.196778 0.00821936)
(0.0345296 -0.212737 0.971789)
(-0.04407 -0.196238 0.00800138)
(0.0342799 -0.214706 0.97242)
(0.0382404 -0.21169 -0.852859)
(-0.0371941 -0.205929 -0.00260148)
(0.0380464 -0.212251 -0.8551)
(-0.0369344 -0.205713 -0.00252025)
(0.0348737 -0.209697 -0.970567)
(-0.0452702 -0.197669 -0.00857536)
(0.0346681 -0.211086 -0.971088)
(-0.0448948 -0.197251 -0.00840973)
(-0.00417745 -0.202793 -0.000811172)
(0.00057062 -0.200593 0.000757775)
(-0.00413303 -0.202229 -0.000749095)
(0.000564134 -0.199887 0.000775575)
(0.0063064 -0.191599 0.00318772)
(0.00162846 -0.188592 0.0016533)
(0.00626593 -0.190529 0.00322451)
(0.00157044 -0.187475 0.0016574)
(0.00039208 -0.199581 0.00033861)
(0.00039195 -0.19958 -0.000338443)
(0.000407907 -0.198842 0.000339518)
(0.000407785 -0.198842 -0.000339345)
(-0.000298929 -0.187614 0.000458502)
(-0.000298989 -0.187613 -0.000458285)
(-0.000272339 -0.186624 0.000455296)
(-0.000272403 -0.186623 -0.000455068)
(0.000570454 -0.200591 -0.000757726)
(-0.00417635 -0.20279 0.00081081)
(0.000563989 -0.199885 -0.000775508)
(-0.00413187 -0.202226 0.000748738)
(0.00162786 -0.188588 -0.00165307)
(0.00630592 -0.191594 -0.00318764)
(0.00156979 -0.187472 -0.00165715)
(0.00626554 -0.190523 -0.0032244)
(-0.0371897 -0.205926 0.00260092)
(0.0382345 -0.211689 0.852885)
(-0.0369299 -0.205709 0.00251966)
(0.0380408 -0.212249 0.855126)
(-0.0452645 -0.197663 0.00857357)
(0.0348679 -0.209696 0.970572)
(-0.0448889 -0.197245 0.00840791)
(0.034663 -0.211085 0.971093)
(0.038541 -0.210897 -0.848012)
(-0.0376042 -0.206403 -0.00273066)
(0.0383878 -0.211246 -0.849918)
(-0.0374043 -0.20616 -0.00266983)
(0.0351166 -0.207544 -0.969523)
(-0.0457863 -0.198414 -0.00884459)
(0.0349563 -0.208528 -0.969962)
(-0.0455027 -0.198053 -0.00871842)
(-0.00424869 -0.203862 -0.000919719)
(0.000588685 -0.201967 0.000717975)
(-0.00421271 -0.203337 -0.000867322)
(0.000579543 -0.201287 0.000737917)
(0.006391 -0.193473 0.00311556)
(0.00170154 -0.190698 0.00163471)
(0.00635627 -0.192575 0.00315076)
(0.00166917 -0.189665 0.00164515)
(0.00038799 -0.201047 0.000333664)
(0.000387847 -0.201046 -0.00033352)
(0.000386618 -0.200317 0.000336485)
(0.000386482 -0.200317 -0.000336329)
(-0.000321406 -0.189616 0.000459138)
(-0.000321483 -0.189615 -0.000458946)
(-0.000313759 -0.188615 0.000459577)
(-0.000313825 -0.188614 -0.000459372)
(0.000588487 -0.201965 -0.00071795)
(-0.00424768 -0.203859 0.000919353)
(0.000579359 -0.201285 -0.000737881)
(-0.00421166 -0.203334 0.000866956)
(0.00170092 -0.190695 -0.00163452)
(0.00639051 -0.193468 -0.00311551)
(0.00166857 -0.189662 -0.00164493)
(0.00635579 -0.192571 -0.0031507)
(-0.0376001 -0.2064 0.00273013)
(0.0385354 -0.210896 0.848037)
(-0.0374 -0.206157 0.00266928)
(0.0383825 -0.211245 0.849943)
(-0.0457811 -0.198409 0.00884287)
(0.035111 -0.207543 0.969529)
(-0.0454972 -0.198048 0.00871667)
(0.0349515 -0.208527 0.969967)
(0.038773 -0.210432 -0.843746)
(-0.0379131 -0.206922 -0.0028278)
(0.0386519 -0.210631 -0.845364)
(-0.0377609 -0.206658 -0.00278171)
(0.0352824 -0.206021 -0.968622)
(-0.0461517 -0.1991 -0.00904926)
(0.0351575 -0.206717 -0.96899)
(-0.0459378 -0.198761 -0.00895323)
(-0.00430348 -0.20487 -0.00100882)
(0.000610544 -0.203274 0.000678574)
(-0.00427599 -0.204373 -0.000965888)
(0.00059959 -0.20263 0.000697815)
(0.00644748 -0.195086 0.00304951)
(0.00175852 -0.192642 0.00160952)
(0.0064266 -0.194306 0.00308132)
(0.00173173 -0.19169 0.00162244)
(0.000406226 -0.202466 0.000325844)
(0.000406079 -0.202466 -0.000325723)
(0.00039505 -0.201765 0.000329854)
(0.000394906 -0.201764 -0.000329722)
(-0.000319236 -0.191577 0.000454971)
(-0.000319326 -0.191576 -0.000454809)
(-0.000322288 -0.190606 0.000457451)
(-0.000322373 -0.190605 -0.000457274)
(0.000610328 -0.203273 -0.00067857)
(-0.00430253 -0.204867 0.00100846)
(0.000599382 -0.202628 -0.000697802)
(-0.004275 -0.20437 0.000965522)
(0.00175789 -0.192639 -0.00160935)
(0.00644701 -0.195082 -0.00304949)
(0.0017311 -0.191687 -0.00162226)
(0.00642614 -0.194301 -0.00308128)
(-0.0379091 -0.206919 0.0028273)
(0.0387676 -0.210431 0.843771)
(-0.0377568 -0.206655 0.00278119)
(0.0386468 -0.21063 0.845389)
(-0.0461467 -0.199096 0.0090476)
(0.035277 -0.20602 0.968628)
(-0.0459326 -0.198756 0.00895154)
(0.035153 -0.206716 0.968996)
(0.0389481 -0.210196 -0.839889)
(-0.0381341 -0.207469 -0.00290067)
(0.0388537 -0.210291 -0.841306)
(-0.0380243 -0.207193 -0.00286584)
(0.0353755 -0.204948 -0.967828)
(-0.0463864 -0.199763 -0.00920348)
(0.0352853 -0.205437 -0.968145)
(-0.0462346 -0.199433 -0.00913118)
(-0.00433714 -0.205822 -0.00108028)
(0.000637386 -0.204502 0.000642474)
(-0.00432085 -0.205353 -0.00104586)
(0.000623558 -0.203899 0.000659845)
(0.00648512 -0.196519 0.00299112)
(0.00180918 -0.194426 0.00158259)
(0.00647242 -0.195822 0.00301901)
(0.00178486 -0.193553 0.00159594)
(0.00044001 -0.203811 0.000316811)
(0.000439882 -0.203811 -0.000316667)
(0.000421424 -0.203149 0.000321259)
(0.000421279 -0.203149 -0.000321145)
(-0.000300709 -0.193443 0.000448335)
(-0.000300779 -0.193442 -0.00044828)
(-0.000311642 -0.192524 0.00045183)
(-0.000311732 -0.192523 -0.000451693)
(0.00063717 -0.204501 -0.000642513)
(-0.00433623 -0.205821 0.00107991)
(0.000623337 -0.203898 -0.000659853)
(-0.00431992 -0.205351 0.00104549)
(0.00180857 -0.194423 -0.00158244)
(0.00648468 -0.196515 -0.00299109)
(0.00178424 -0.193551 -0.0015958)
(0.00647197 -0.195818 -0.00301899)
(-0.0381303 -0.207467 0.00290018)
(0.0389429 -0.210195 0.839914)
(-0.0380204 -0.207191 0.00286534)
(0.0388488 -0.21029 0.84133)
(-0.0463816 -0.199759 0.00920188)
(0.0353703 -0.204946 0.967833)
(-0.0462296 -0.199429 0.00912955)
(0.0352809 -0.205436 0.96815)
(0.0390873 -0.210107 -0.836443)
(-0.0382799 -0.208021 -0.00295506)
(0.0390073 -0.210137 -0.837618)
(-0.0382057 -0.207746 -0.00292873)
(0.035421 -0.204192 -0.96713)
(-0.0465205 -0.20041 -0.00931764)
(0.0353474 -0.204538 -0.967392)
(-0.0464117 -0.200088 -0.00926415)
(-0.00434694 -0.206714 -0.0011364)
(0.000672832 -0.205639 0.000611182)
(-0.00434279 -0.206277 -0.00110928)
(0.000654089 -0.205083 0.000625833)
(0.00650997 -0.197811 0.00294061)
(0.00185756 -0.196055 0.00155641)
(0.00650347 -0.197181 0.00296462)
(0.00183399 -0.195259 0.00156937)
(0.000488867 -0.205062 0.00030778)
(0.000488719 -0.205061 -0.000307676)
(0.000462416 -0.20445 0.000312289)
(0.000462434 -0.204449 -0.000311732)
(-0.000260767 -0.195183 0.000440756)
(-0.00026089 -0.195182 -0.000440678)
(-0.000283355 -0.194329 0.000444317)
(-0.000283135 -0.194329 -0.000444783)
(0.00067259 -0.205638 -0.00061121)
(-0.00434608 -0.206712 0.00113602)
(0.000653922 -0.205082 -0.000626217)
(-0.00434188 -0.206275 0.00110884)
(0.00185694 -0.196053 -0.0015563)
(0.00650953 -0.197809 -0.00294061)
(0.00183345 -0.195257 -0.00156887)
(0.00650308 -0.197178 -0.00296451)
(-0.0382762 -0.208019 0.00295459)
(0.0390821 -0.210106 0.836468)
(-0.0382019 -0.207745 0.00292824)
(0.0390025 -0.210136 0.837642)
(-0.0465159 -0.200407 0.00931607)
(0.0354159 -0.20419 0.967135)
(-0.0464069 -0.200085 0.00926261)
(0.0353432 -0.204537 0.967398)
(0.0392007 -0.2101 -0.833226)
(-0.0383522 -0.208546 -0.00299462)
(0.039132 -0.210097 -0.83428)
(-0.0383143 -0.208289 -0.0029752)
(0.0354183 -0.20364 -0.966496)
(-0.0465569 -0.201035 -0.00939884)
(0.0353669 -0.203896 -0.966727)
(-0.0464947 -0.200726 -0.00936109)
(-0.0043266 -0.207527 -0.00117918)
(0.000723508 -0.206668 0.000585032)
(-0.00433834 -0.207131 -0.00115841)
(0.000696314 -0.206168 0.000597329)
(0.00652817 -0.198981 0.00289727)
(0.00190619 -0.197532 0.00153207)
(0.0065244 -0.198411 0.00291776)
(0.00188223 -0.196813 0.00154382)
(0.000556635 -0.206195 0.000299433)
(0.000556463 -0.206195 -0.000299337)
(0.000520567 -0.205645 0.000303376)
(0.000520402 -0.205644 -0.000303287)
(-0.000207483 -0.196782 0.000432988)
(-0.000207624 -0.196781 -0.000432854)
(-0.000234635 -0.196001 0.000436819)
(-0.000234772 -0.196 -0.000436703)
(0.000723227 -0.206667 -0.000585044)
(-0.0043258 -0.207525 0.00117884)
(0.00069605 -0.206167 -0.000597352)
(-0.0043375 -0.20713 0.00115805)
(0.00190557 -0.197531 -0.00153195)
(0.00652772 -0.198979 -0.00289728)
(0.00188161 -0.196811 -0.00154371)
(0.00652397 -0.198409 -0.00291778)
(-0.0383487 -0.208545 0.0029941)
(0.0391956 -0.2101 0.833251)
(-0.0383107 -0.208287 0.00297473)
(0.0391273 -0.210096 0.834304)
(-0.0465524 -0.201033 0.00939727)
(0.0354133 -0.203639 0.966501)
(-0.04649 -0.200724 0.00935953)
(0.0353628 -0.203895 0.966732)
(0.0393072 -0.210116 -0.830277)
(-0.0383559 -0.209007 -0.00302243)
(0.0392398 -0.21011 -0.831164)
(-0.0383516 -0.208786 -0.00300844)
(0.0353794 -0.203196 -0.965924)
(-0.0465062 -0.201618 -0.00945211)
(0.0353485 -0.203411 -0.966119)
(-0.0464893 -0.201333 -0.00942781)
(-0.00427162 -0.208236 -0.00121056)
(0.000796109 -0.207568 0.000563702)
(-0.0043013 -0.207896 -0.00119522)
(0.000756946 -0.207136 0.000573624)
(0.00654254 -0.200025 0.00286001)
(0.00195735 -0.19885 0.00151009)
(0.00654015 -0.199519 0.00287763)
(0.00193168 -0.198212 0.00152065)
(0.000645711 -0.20719 0.000291854)
(0.000645528 -0.20719 -0.000291764)
(0.000598138 -0.206712 0.000295393)
(0.000597961 -0.206711 -0.000295292)
(-0.000147325 -0.198221 0.000425603)
(-0.00014746 -0.19822 -0.000425444)
(-0.000178027 -0.197522 0.000429194)
(-0.000178167 -0.197522 -0.000429042)
(0.000795792 -0.207568 -0.000563747)
(-0.00427088 -0.208235 0.00121)
(0.000756648 -0.207135 -0.000573634)
(-0.00430052 -0.207895 0.00119488)
(0.00195672 -0.198848 -0.00150994)
(0.00654207 -0.200023 -0.00286001)
(0.00193106 -0.19821 -0.0015205)
(0.00653971 -0.199517 -0.00287763)
(-0.0383526 -0.209007 0.0030222)
(0.0393024 -0.210115 0.829967)
(-0.0383481 -0.208786 0.00300794)
(0.0392351 -0.210108 0.831188)
(-0.0465029 -0.201617 0.0094508)
(0.0353756 -0.203194 0.965929)
(-0.0464848 -0.201331 0.00942627)
(0.0353445 -0.203409 0.966124)
(0.0394074 -0.210112 -0.825012)
(-0.0382864 -0.209344 -0.00304198)
(0.039347 -0.210118 -0.828299)
(-0.0383212 -0.209195 -0.00303162)
(0.0352528 -0.202775 -0.965398)
(-0.0463325 -0.20213 -0.00948176)
(0.0353058 -0.202984 -0.965571)
(-0.0464087 -0.201888 -0.00946868)
(-0.0041708 -0.208806 -0.00123029)
(0.000901849 -0.20831 0.000547156)
(-0.00422606 -0.20854 -0.00122107)
(0.000844207 -0.207961 0.000554671)
(0.00656249 -0.200928 0.00282709)
(0.00201739 -0.199991 0.00149037)
(0.00655235 -0.200497 0.00284283)
(0.00198565 -0.199444 0.00149984)
(0.000765328 -0.208018 0.000285201)
(0.000765165 -0.208017 -0.00028501)
(0.000700982 -0.207627 0.000288272)
(0.000700805 -0.207626 -0.000288125)
(-7.66147e-05 -0.199477 0.000418836)
(-7.67351e-05 -0.199476 -0.000418685)
(-0.000113484 -0.198873 0.000422107)
(-0.000113612 -0.198873 -0.000421937)
(0.000901607 -0.208309 -0.000546757)
(-0.00416986 -0.208806 0.00123156)
(0.000843902 -0.20796 -0.000554532)
(-0.0042253 -0.20854 0.00122102)
(0.00201684 -0.19999 -0.00149014)
(0.00656237 -0.200927 -0.00282686)
(0.00198506 -0.199443 -0.00149964)
(0.00655203 -0.200495 -0.00284276)
(-0.038282 -0.209352 0.00304024)
(0.0394024 -0.210105 0.827522)
(-0.0383178 -0.209194 0.00303067)
(0.0393429 -0.21012 0.827983)
(-0.0463226 -0.202129 0.00947908)
(0.0352444 -0.202774 0.965403)
(-0.0464049 -0.201887 0.00946707)
(0.0353028 -0.202981 0.965576)
(0.0394893 -0.209949 -0.821828)
(-0.0381263 -0.209586 -0.00304878)
(0.0394385 -0.210063 -0.823094)
(-0.0382095 -0.209472 -0.00304473)
(0.0349852 -0.202381 -0.96492)
(-0.0459824 -0.202464 -0.00948728)
(0.0350474 -0.202576 -0.965068)
(-0.0460959 -0.202325 -0.00948521)
(-0.00400714 -0.20921 -0.00124471)
(0.00105364 -0.208857 0.000533697)
(-0.00409545 -0.209032 -0.00123733)
(0.000971911 -0.20861 0.000539733)
(0.0066061 -0.201635 0.00279826)
(0.00209288 -0.200922 0.00147258)
(0.00658754 -0.201309 0.00281149)
(0.00205395 -0.200485 0.00148102)
(0.000928988 -0.208642 0.000278997)
(0.000928854 -0.208641 -0.000279624)
(0.00084115 -0.208358 0.000281823)
(0.000841005 -0.208358 -0.000282044)
(1.07704e-05 -0.200515 0.000412532)
(1.06205e-05 -0.200514 -0.000412812)
(-3.4741e-05 -0.200025 0.000415565)
(-3.48763e-05 -0.200025 -0.000415631)
(0.0010535 -0.208857 -0.000535119)
(-0.00400627 -0.20921 0.00124143)
(0.000971728 -0.20861 -0.000540254)
(-0.00409449 -0.209031 0.00123637)
(0.00209217 -0.200921 -0.00147294)
(0.00660527 -0.201634 -0.00279845)
(0.00205331 -0.200484 -0.00148107)
(0.00658705 -0.201308 -0.00281147)
(-0.0381262 -0.209586 0.00305428)
(0.0394868 -0.209949 0.81881)
(-0.0382063 -0.209488 0.00304649)
(0.0394344 -0.210047 0.822574)
(-0.0460065 -0.202464 0.0094932)
(0.0350099 -0.202382 0.964919)
(-0.0461072 -0.202324 0.00948694)
(0.0350609 -0.202577 0.96507)
(0.0396079 -0.209635 -0.818867)
(-0.037888 -0.20961 -0.00305833)
(0.0395219 -0.209807 -0.819465)
(-0.038002 -0.20964 -0.00305223)
(0.0349782 -0.201903 -0.964465)
(-0.0457716 -0.202611 -0.00947903)
(0.0349255 -0.202169 -0.964597)
(-0.0458411 -0.202556 -0.00948707)
(-0.00377961 -0.209386 -0.00124927)
(0.00125447 -0.209163 0.000525767)
(-0.00389847 -0.209331 -0.00124683)
(0.00114764 -0.209043 0.000529044)
(0.00664123 -0.202108 0.00277497)
(0.00217556 -0.201602 0.00145778)
(0.00662684 -0.201902 0.00278633)
(0.00213324 -0.201295 0.00146476)
(0.00114144 -0.209015 0.000274675)
(0.0011413 -0.209016 -0.000274613)
(0.00102862 -0.208863 0.00027652)
(0.00102851 -0.208863 -0.000276862)
(0.000113393 -0.201292 0.000407379)
(0.000113274 -0.201292 -0.000407172)
(6.05935e-05 -0.200938 0.000409798)
(6.04633e-05 -0.200938 -0.000409888)
(0.00125443 -0.209164 -0.000525864)
(-0.00377806 -0.209387 0.001249)
(0.0011476 -0.209044 -0.000529897)
(-0.0038973 -0.209332 0.0012449)
(0.00217506 -0.201602 -0.0014578)
(0.00664068 -0.202109 -0.00277669)
(0.00213263 -0.201295 -0.00146495)
(0.00662607 -0.201901 -0.00278643)
(-0.0378783 -0.209604 0.00305709)
(0.0395959 -0.209643 0.816271)
(-0.0379985 -0.209633 0.0030546)
(0.0395163 -0.209813 0.816862)
(-0.0457872 -0.202611 0.00947264)
(0.0349937 -0.201902 0.964466)
(-0.0458558 -0.202554 0.00949154)
(0.0349408 -0.20217 0.964596)
(0.0397795 -0.209121 -0.819192)
(-0.0375607 -0.209328 -0.00305723)
(0.0396719 -0.209414 -0.817506)
(-0.0377261 -0.209509 -0.0030574)
(0.034847 -0.201196 -0.964049)
(-0.0454135 -0.202563 -0.00946087)
(0.0348618 -0.201577 -0.964161)
(-0.0455568 -0.202624 -0.00946966)
(-0.00347674 -0.209274 -0.00124986)
(0.00153599 -0.209173 0.000519872)
(-0.00363594 -0.20937 -0.00124879)
(0.00138606 -0.209209 0.00052249)
(0.00670626 -0.202306 0.00274664)
(0.00228923 -0.201982 0.0014455)
(0.0066735 -0.202249 0.00276539)
(0.00222916 -0.201834 0.00145119)
(0.00141852 -0.209087 0.000270454)
(0.0014183 -0.209087 -0.000270773)
(0.00127158 -0.209093 0.0002724)
(0.0012714 -0.209093 -0.000272439)
(0.000236215 -0.201763 0.000402788)
(0.000236108 -0.201764 -0.000402987)
(0.000172154 -0.20157 0.000404952)
(0.00017205 -0.20157 -0.000404878)
(0.00153543 -0.209174 -0.000520333)
(-0.00347676 -0.209275 0.00124899)
(0.00138577 -0.20921 -0.00052257)
(-0.00363493 -0.20937 0.00124894)
(0.00228864 -0.201982 -0.00144542)
(0.00670597 -0.202307 -0.00274553)
(0.00222869 -0.201834 -0.00145121)
(0.00667351 -0.202251 -0.0027668)
(-0.0375639 -0.209332 0.00305945)
(0.0397807 -0.209118 0.817709)
(-0.037721 -0.209504 0.00305769)
(0.039666 -0.20942 0.817529)
(-0.0454064 -0.202567 0.00946524)
(0.0348381 -0.201195 0.96405)
(-0.0455507 -0.202629 0.00946183)
(0.0348565 -0.201573 0.964163)
(0.0400226 -0.208266 -0.817937)
(-0.0371479 -0.208743 -0.00304943)
(0.0398767 -0.208742 -0.81742)
(-0.0373548 -0.209081 -0.00305191)
(0.0346892 -0.20025 -0.963655)
(-0.0449494 -0.202175 -0.00942795)
(0.0346926 -0.200762 -0.963751)
(-0.0451192 -0.202418 -0.00944296)
(-0.00308865 -0.208814 -0.00124718)
(0.00189052 -0.208824 0.00051688)
(-0.00329231 -0.209092 -0.001248)
(0.00170375 -0.209047 0.000517582)
(0.00678404 -0.202158 0.00273693)
(0.00242255 -0.202 0.00143209)
(0.00674574 -0.202278 0.00273274)
(0.00235539 -0.202039 0.00143812)
(0.0017663 -0.208796 0.000267194)
(0.00176612 -0.208797 -0.000267164)
(0.00158303 -0.208991 0.000268534)
(0.00158283 -0.208991 -0.00026872)
(0.000385076 -0.201866 0.000398541)
(0.00038491 -0.201866 -0.000398458)
(0.000307281 -0.201865 0.000400771)
(0.000307148 -0.201865 -0.000400874)
(0.00189028 -0.208824 -0.000517162)
(-0.00308746 -0.208814 0.00124612)
(0.00170327 -0.209048 -0.000517859)
(-0.00329197 -0.209093 0.00124739)
(0.00242179 -0.202 -0.00143191)
(0.00678305 -0.202159 -0.00273635)
(0.00235466 -0.202039 -0.00143783)
(0.00674505 -0.202279 -0.0027314)
(-0.0371392 -0.208756 0.00304894)
(0.0400116 -0.208258 0.814769)
(-0.0373529 -0.209084 0.00305199)
(0.0398729 -0.208743 0.815914)
(-0.0449551 -0.202176 0.00942912)
(0.034694 -0.200249 0.963656)
(-0.0451231 -0.202418 0.00944661)
(0.0346958 -0.200763 0.963752)
(0.040322 -0.206971 -0.809438)
(-0.0366124 -0.2078 -0.00304566)
(0.0401456 -0.207673 -0.813012)
(-0.0368813 -0.208326 -0.00304521)
(0.0345979 -0.198955 -0.963275)
(-0.0444548 -0.201357 -0.00939142)
(0.0345097 -0.199657 -0.963362)
(-0.0445896 -0.201822 -0.0094082)
(-0.00259539 -0.207945 -0.00123399)
(0.00233354 -0.208051 0.000519001)
(-0.00285295 -0.208435 -0.0012405)
(0.00210074 -0.208494 0.000517207)
(0.00689321 -0.201592 0.00272867)
(0.00258969 -0.201593 0.00142694)
(0.00684529 -0.201931 0.00273356)
(0.0025025 -0.201854 0.00142922)
(0.00219824 -0.208076 0.00026498)
(0.002198 -0.208077 -0.000265202)
(0.00197107 -0.208494 0.000265851)
(0.00197087 -0.208495 -0.000265937)
(0.000564661 -0.20154 0.00039588)
(0.000564523 -0.20154 -0.000395942)
(0.000468617 -0.201764 0.000396878)
(0.000468439 -0.201764 -0.00039683)
(0.00233307 -0.208053 -0.000519577)
(-0.00259488 -0.207948 0.00123288)
(0.00210054 -0.208495 -0.00051818)
(-0.00285161 -0.208437 0.00123756)
(0.0025891 -0.201595 -0.0014271)
(0.00689319 -0.201595 -0.00272927)
(0.00250178 -0.201855 -0.00142953)
(0.00684461 -0.201933 -0.00273467)
(-0.0366146 -0.207771 0.00304925)
(0.0403267 -0.206994 0.812631)
(-0.0368779 -0.208335 0.00304927)
(0.0401398 -0.207677 0.81299)
(-0.0444577 -0.20136 0.00939143)
(0.0346035 -0.198956 0.963279)
(-0.0446105 -0.201825 0.00941092)
(0.0345342 -0.199654 0.963364)
(0.0407285 -0.205264 -0.813049)
(-0.0359665 -0.206283 -0.00303629)
(0.0405012 -0.206187 -0.810866)
(-0.0362951 -0.207109 -0.00303969)
(0.0346488 -0.19714 -0.962923)
(-0.0439787 -0.200103 -0.00934039)
(0.0346059 -0.198122 -0.962989)
(-0.0442097 -0.20079 -0.00936699)
(-0.00198263 -0.206576 -0.00122192)
(0.00287725 -0.206782 0.000523122)
(-0.00230375 -0.207328 -0.00122703)
(0.00259194 -0.207483 0.000520581)
(0.00701864 -0.20055 0.00272018)
(0.00278732 -0.200695 0.00142078)
(0.00695341 -0.201135 0.00272422)
(0.00268357 -0.201211 0.00142358)