/*--------------------------------*- C++ -*----------------------------------*\
  =========                 |
  \\      /  F ield         | OpenFOAM: The Open Source CFD Toolbox
   \\    /   O peration     | Website:  https://openfoam.org
    \\  /    A nd           | Version:  9
     \\/     M anipulation  |
\*---------------------------------------------------------------------------*/
FoamFile
{
    format      ascii;
    class       volScalarField;
    location    "0.85";
    object      epsilon;
}
// * * * * * * * * * * * * * * * * * * * * * * * * * * * * * * * * * * * * * //

dimensions      [0 2 -3 0 0 0 0];

internalField   nonuniform List<scalar> 
36360
(
0.118106
0.087427
0.0361272
0.0334239
0.0201603
0.0102346
0.00821555
0.00631285
0.0110956
0.00279471
0.00623594
0.00453585
0.00382123
0.00319376
0.00508859
0.0050302
0.00242342
0.00242342
0.00451962
0.00451962
0.00315083
0.00315082
0.00502726
0.00502726
0.00279425
0.0110917
0.00453588
0.0062357
0.00319371
0.00382074
0.00503019
0.00508862
0.0874208
0.11812
0.0334256
0.0361267
0.0102337
0.0201628
0.00631282
0.00821566
0.209124
0.151002
0.176167
0.127364
0.0589411
0.0284605
0.0424707
0.0203767
0.0292942
0.00353844
0.0216112
0.00297247
0.00499142
0.00216078
0.00420218
0.002422
0.00133003
0.0013295
0.00161207
0.00161184
0.0019796
0.00197954
0.00230263
0.0023026
0.0035312
0.0292657
0.00296941
0.0215955
0.00216004
0.00498586
0.00242165
0.00419997
0.150979
0.209178
0.127349
0.176202
0.0284513
0.0589668
0.0203718
0.0424844
0.231875
0.167911
0.22523
0.162908
0.0710903
0.0353144
0.0674452
0.0331114
0.0352713
0.0042726
0.0334725
0.00404345
0.00587461
0.00208244
0.00558798
0.00209426
0.00123354
0.00123263
0.00125108
0.00125031
0.00184735
0.00184725
0.00187527
0.00187518
0.00426069
0.0352296
0.0040332
0.0334356
0.00208128
0.00586569
0.00209325
0.00558028
0.167881
0.231952
0.162881
0.225299
0.0353009
0.0711306
0.0330995
0.0674803
0.234848
0.170295
0.234262
0.169782
0.0727046
0.0364297
0.0723966
0.0361815
0.0361211
0.00437993
0.0359411
0.00435828
0.00601601
0.00208139
0.00598625
0.0020815
0.00123054
0.00122957
0.00123039
0.00122942
0.00183945
0.00183935
0.00184079
0.00184069
0.00436714
0.0360768
0.00434569
0.0358974
0.00208016
0.00600648
0.00208029
0.00597684
0.170264
0.234931
0.169752
0.234343
0.0364158
0.0727486
0.0361676
0.0724394
0.234857
0.170398
0.234973
0.170448
0.0726947
0.0364723
0.0727618
0.0364971
0.0361609
0.0043825
0.0361781
0.00438538
0.00601975
0.00208001
0.00602338
0.00208057
0.00123064
0.00122967
0.00123043
0.00122945
0.00183856
0.00183846
0.00183839
0.00183829
0.0043697
0.0361165
0.00437255
0.0361337
0.00207878
0.00601022
0.00207935
0.00601384
0.170367
0.234942
0.170417
0.235058
0.0364586
0.0727391
0.0364834
0.0728062
0.234605
0.170276
0.234801
0.170389
0.0725524
0.0363915
0.0726606
0.036456
0.0361296
0.0043765
0.0361664
0.0043821
0.00600934
0.00207812
0.00601818
0.0020794
0.00123046
0.00122948
0.00123041
0.00122944
0.00183727
0.00183718
0.00183805
0.00183795
0.00436372
0.0360852
0.00436929
0.036122
0.0020769
0.00599986
0.00207818
0.00600867
0.170245
0.23469
0.170359
0.234885
0.036378
0.072597
0.0364424
0.0727052
0.234229
0.170069
0.234485
0.170221
0.0723602
0.0362666
0.0724905
0.0363499
0.0360644
0.00436653
0.036115
0.0043739
0.00599201
0.00207517
0.00600396
0.00207666
0.00123008
0.00122911
0.00123012
0.00122915
0.00183534
0.00183524
0.00183608
0.00183598
0.0043538
0.0360201
0.00436114
0.0360707
0.00207396
0.00598257
0.00207545
0.00599449
0.170038
0.234314
0.17019
0.23457
0.0362531
0.0724048
0.0363363
0.0725351
0.233765
0.16981
0.234066
0.169988
0.0721389
0.0361226
0.0722839
0.0362145
0.0359802
0.00435388
0.0360397
0.00436247
0.00597131
0.00207195
0.00598484
0.00207359
0.00122959
0.00122863
0.00122967
0.00122871
0.00183343
0.00183333
0.00183424
0.00183415
0.0043412
0.0359361
0.00434976
0.0359955
0.00207074
0.00596193
0.00207238
0.00597542
0.169779
0.23385
0.169957
0.23415
0.0361092
0.0721834
0.036201
0.0723284
0.233219
0.16951
0.233561
0.169709
0.0718913
0.0359656
0.07205
0.0360637
0.0358827
0.00434002
0.0359492
0.00434935
0.00594813
0.00206841
0.00596292
0.00207026
0.00122911
0.00122815
0.0012292
0.00122824
0.00183114
0.00183104
0.00183213
0.00183203
0.0043274
0.0358386
0.00433669
0.0359051
0.00206721
0.00593878
0.00206905
0.00595355
0.16948
0.233303
0.169678
0.233646
0.0359522
0.0719356
0.0360503
0.0720945
0.232594
0.169174
0.232977
0.169392
0.0716179
0.0357939
0.0717906
0.0359008
0.0357738
0.00432433
0.0358464
0.00433451
0.00592254
0.00206428
0.00593858
0.00206639
0.00122854
0.00122758
0.00122867
0.00122771
0.00182845
0.00182835
0.00182964
0.00182954
0.00431174
0.0357297
0.0043219
0.0358024
0.00206309
0.00591322
0.00206519
0.00592925
0.169144
0.232678
0.169362
0.233061
0.0357804
0.0716618
0.0358874
0.0718347
0.231887
0.1688
0.232313
0.169038
0.0713165
0.0356076
0.0715042
0.0357218
0.0356533
0.00430767
0.0357321
0.0043185
0.00589461
0.00205974
0.00591189
0.00206209
0.00122798
0.00122703
0.00122811
0.00122716
0.00182534
0.00182524
0.00182674
0.00182665
0.00429512
0.0356092
0.00430593
0.035688
0.00205855
0.00588529
0.0020609
0.00590257
0.168769
0.23197
0.169007
0.232396
0.0355939
0.0713599
0.0357082
0.0715479
0.231092
0.168385
0.231564
0.168644
0.0709848
0.0354053
0.0711889
0.035528
0.0355209
0.00428912
0.0356061
0.00430082
0.00586408
0.0020545
0.00588272
0.00205716
0.00122733
0.00122638
0.0012275
0.00122655
0.00182172
0.00182162
0.00182337
0.00182328
0.00427661
0.0354769
0.00428828
0.0355621
0.00205331
0.00585479
0.00205597
0.00587341
0.168353
0.231175
0.168613
0.231646
0.0353915
0.0710277
0.0355143
0.0712321
0.230202
0.167925
0.230722
0.168208
0.0706193
0.0351864
0.0708412
0.0353175
0.0353753
0.00426938
0.0354675
0.00428183
0.00583076
0.00204871
0.00585087
0.00205168
0.0012267
0.00122576
0.00122687
0.00122593
0.00181758
0.00181748
0.00181949
0.0018194
0.00425695
0.0353313
0.00426935
0.0354235
0.00204753
0.00582152
0.00205049
0.00584159
0.167894
0.230284
0.168176
0.230804
0.0351727
0.0706618
0.0353037
0.0708839
0.229214
0.16742
0.229784
0.167725
0.0702181
0.0349504
0.0704583
0.0350906
0.0352161
0.00424774
0.0353153
0.00426117
0.00579446
0.00204216
0.00581609
0.00204551
0.00122599
0.00122506
0.00122621
0.00122527
0.00181283
0.00181274
0.00181506
0.00181496
0.00423539
0.0351723
0.00424877
0.0352715
0.00204099
0.00578529
0.00204434
0.00580688
0.167388
0.229295
0.167694
0.229866
0.0349367
0.0702603
0.0350768
0.0705007
0.228121
0.166866
0.228745
0.167197
0.0697792
0.0346943
0.0700389
0.0348448
0.0350425
0.00422425
0.0351493
0.00423866
0.00575504
0.00203481
0.00577827
0.00203856
0.00122522
0.0012243
0.00122547
0.00122454
0.00180744
0.00180735
0.00180999
0.0018099
0.004212
0.034999
0.00422635
0.0351056
0.00203365
0.00574595
0.0020374
0.00576913
0.166834
0.228201
0.167165
0.228826
0.0346806
0.0698211
0.0348311
0.0700809
0.22692
0.166262
0.227599
0.166619
0.0693006
0.0344179
0.0695805
0.0345786
0.034854
0.0041988
0.0349686
0.00421425
0.00571242
0.00202661
0.00573729
0.00203079
0.00122438
0.00122346
0.00122466
0.00122374
0.00180135
0.00180126
0.00180425
0.00180416
0.00418665
0.0348106
0.00420204
0.0349251
0.00202546
0.00570341
0.00202964
0.00572823
0.166231
0.227
0.166587
0.227679
0.0344043
0.0693421
0.0345649
0.0696222
0.225607
0.165611
0.226343
0.165991
0.0687804
0.034122
0.0690815
0.0342923
0.0346498
0.00417129
0.0347725
0.00418781
0.0056665
0.00201749
0.00569304
0.00202214
0.00122346
0.00122256
0.00122379
0.00122288
0.00179449
0.0017944
0.00179777
0.00179768
0.00415924
0.0346067
0.0041757
0.0347293
0.00201636
0.00565758
0.002021
0.00568407
0.16558
0.225686
0.16596
0.226423
0.0341084
0.0688215
0.0342787
0.0691228
0.224171
0.164912
0.224971
0.165318
0.0682165
0.0338086
0.0685397
0.0339873
0.034428
0.00414156
0.03456
0.00415922
0.00561722
0.00200739
0.00564545
0.00201253
0.00122248
0.00122159
0.00122284
0.00122194
0.00178681
0.00178672
0.00179051
0.00179042
0.00412964
0.0343851
0.00414723
0.034517
0.00200627
0.0056084
0.00201141
0.00563657
0.16488
0.22425
0.165286
0.22505
0.033795
0.0682572
0.0339737
0.0685806
0.222606
0.164147
0.22347
0.164588
0.0676082
0.0334815
0.0679537
0.0336661
0.0341863
0.00410959
0.0343285
0.00412838
0.00556454
0.00199627
0.00559446
0.00200193
0.00122143
0.00122055
0.00122182
0.00122093
0.00177827
0.00177818
0.0017824
0.00178231
0.00409779
0.0341437
0.00411651
0.0342857
0.00199516
0.00555582
0.00200081
0.00558568
0.164116
0.222684
0.164556
0.223549
0.0334679
0.0676484
0.0336526
0.0679941
0.220914
0.163306
0.221842
0.163787
0.066956
0.0331486
0.0673234
0.0333348
0.0339244
0.00407544
0.0340768
0.0040953
0.00550842
0.00198405
0.00554005
0.00199025
0.00122029
0.00121943
0.00122073
0.00121985
0.0017688
0.00176871
0.00177339
0.00177331
0.00406379
0.0338821
0.00408356
0.0340343
0.00198296
0.00549981
0.00198916
0.00553138
0.163274
0.220991
0.163756
0.22192
0.0331351
0.0669956
0.0333213
0.0673633
0.219099
0.162384
0.220088
0.162903
0.0662602
0.0328118
0.0666493
0.0330016
0.0336444
0.00403929
0.0338054
0.00406012
0.00544864
0.00197069
0.00548211
0.00197747
0.00121908
0.00121822
0.00121955
0.00121869
0.00175836
0.00175828
0.00176344
0.00176336
0.00402778
0.0336024
0.00404853
0.0337632
0.00196962
0.00544014
0.00197638
0.00547355
0.162353
0.219176
0.162871
0.220165
0.0327984
0.0662993
0.0329882
0.0666887
0.217166
0.161407
0.218214
0.161953
0.0655215
0.0324553
0.0659319
0.0326553
0.033348
0.00400121
0.0335171
0.00402297
0.00538506
0.00195616
0.00542038
0.00196352
0.00121778
0.00121694
0.00121829
0.00121744
0.00174692
0.00174684
0.0017525
0.00175242
0.00398986
0.0333063
0.00401153
0.0334753
0.00195511
0.00537668
0.00196245
0.00541194
0.161375
0.217242
0.161921
0.21829
0.032442
0.06556
0.032642
0.0659707
0.215119
0.160374
0.216224
0.160948
0.0647418
0.0320789
0.0651723
0.0322886
0.0330357
0.00396131
0.0332127
0.00398393
0.00531779
0.00194044
0.00535489
0.00194839
0.00121639
0.00121556
0.00121695
0.00121611
0.00173444
0.00173436
0.00174054
0.00174046
0.00395013
0.0329945
0.00397265
0.0331712
0.0019394
0.00530954
0.00194734
0.00534657
0.160343
0.215194
0.160916
0.216299
0.0320656
0.0647797
0.0322754
0.0652105
0.212965
0.15929
0.214122
0.159889
0.0639242
0.0316837
0.0643731
0.0319025
0.0327087
0.00391975
0.0328928
0.00394314
0.00524702
0.00192351
0.00528578
0.00193205
0.0012149
0.00121409
0.00121551
0.00121468
0.0017209
0.00172082
0.00172753
0.00172745
0.00390875
0.0326679
0.00393204
0.0328517
0.00192249
0.0052389
0.00193102
0.0052776
0.159259
0.213039
0.159858
0.214196
0.0316705
0.0639615
0.0318893
0.0644107
0.210715
0.158157
0.211919
0.15878
0.0630726
0.0312713
0.0635378
0.0314984
0.0323684
0.00387673
0.0325589
0.00390079
0.00517298
0.00190538
0.00521329
0.00191451
0.00121331
0.00121251
0.00121397
0.00121316
0.0017063
0.00170622
0.00171345
0.00171337
0.00386591
0.0323279
0.00388987
0.0325182
0.00190438
0.005165
0.0019135
0.00520524
0.158126
0.210788
0.158748
0.211992
0.0312582
0.0631091
0.0314852
0.0635747
0.20838
0.156982
0.209624
0.157625
0.0621916
0.0308438
0.0626706
0.031078
0.0320164
0.00383249
0.0322124
0.00385708
0.00509599
0.00188608
0.00513767
0.00189578
0.00121161
0.00121083
0.00121232
0.00121153
0.00169064
0.00169056
0.00169831
0.00169823
0.00382185
0.0319764
0.00384634
0.0321721
0.0018851
0.00508816
0.00189479
0.00512976
0.156951
0.208452
0.157594
0.209697
0.0308308
0.0622274
0.0310649
0.0627069
0.205978
0.155773
0.207254
0.156432
0.0612874
0.0304038
0.061777
0.0306437
0.0316553
0.00378731
0.0318555
0.00381229
0.00501646
0.00186564
0.00505929
0.00187589
0.00120981
0.00120904
0.00121057
0.00120979
0.00167393
0.00167385
0.00168212
0.00168204
0.00377687
0.0316157
0.00380174
0.0318156
0.00186468
0.00500878
0.00187493
0.00505153
0.155741
0.206048
0.156401
0.207325
0.0303909
0.0613225
0.0306308
0.0618126
0.203525
0.154537
0.204823
0.155208
0.060367
0.0299544
0.0608636
0.0301985
0.0312876
0.00374156
0.0314906
0.00376674
0.00493486
0.00184411
0.0049786
0.0018549
0.00120789
0.00120714
0.00120871
0.00120795
0.00165621
0.00165614
0.0016649
0.00166482
0.0037313
0.0312484
0.00375638
0.0314512
0.00184318
0.00492733
0.00185395
0.00497099
0.154506
0.203595
0.155177
0.204893
0.0299416
0.0604014
0.0301856
0.0608984
0.201043
0.153285
0.202353
0.153963
0.0594379
0.029499
0.0599377
0.0297455
0.0309162
0.00369557
0.0311206
0.00372078
0.00485172
0.00182159
0.0048961
0.00183285
0.00120586
0.00120512
0.00120673
0.00120599
0.00163753
0.00163746
0.00164669
0.00164661
0.00368551
0.0308776
0.00371062
0.0310816
0.00182067
0.00484434
0.00183193
0.00488864
0.153254
0.201111
0.153931
0.202422
0.0294863
0.0594716
0.0297327
0.0599718
0.198551
0.152027
0.199863
0.152706
0.0585082
0.0290411
0.0590071
0.0292882
0.0305444
0.00364973
0.0307485
0.00367478
0.00476758
0.00179815
0.00481232
0.00180985
0.00120371
0.00120299
0.00120464
0.00120392
0.00161795
0.00161788
0.00162754
0.00162747
0.00363987
0.0305062
0.00366481
0.03071
0.00179726
0.00476036
0.00180895
0.00480501
0.151996
0.198619
0.152675
0.199931
0.0290285
0.0585412
0.0292755
0.0590404
0.196074
0.150773
0.197376
0.151449
0.0575861
0.0285844
0.0580799
0.0288303
0.0301752
0.00360442
0.0303775
0.00362912
0.00468302
0.00177389
0.00472783
0.00178598
0.00120145
0.00120075
0.00120245
0.00120173
0.00159755
0.00159748
0.00160754
0.00160747
0.00359475
0.0301375
0.00361934
0.0303395
0.00177302
0.00467595
0.0017851
0.00472068
0.150742
0.19614
0.151417
0.197442
0.0285719
0.0576184
0.0288177
0.0581125
0.193632
0.149535
0.194913
0.150201
0.0566799
0.0281326
0.0571645
0.0283754
0.0298119
0.00355999
0.0300107
0.00358416
0.00459862
0.00174894
0.00464322
0.00176135
0.00119907
0.00119839
0.00120013
0.00119943
0.00157641
0.00157634
0.00158675
0.00158669
0.00355051
0.0297747
0.00357458
0.0299732
0.00174809
0.0045917
0.00176049
0.00463622
0.149504
0.193697
0.15017
0.194978
0.0281203
0.0567114
0.028363
0.0571964
0.191249
0.148323
0.192497
0.148975
0.0557977
0.0276896
0.056269
0.0279274
0.0294578
0.00351683
0.0296515
0.00354028
0.00451498
0.00172342
0.00455906
0.00173609
0.00119658
0.00119591
0.0011977
0.00119702
0.00155464
0.00155457
0.00156528
0.00156521
0.00350753
0.029421
0.00353088
0.0296145
0.00172259
0.00450821
0.00173526
0.00455221
0.148292
0.191312
0.148944
0.192562
0.0276773
0.0558285
0.027915
0.0563002
0.188943
0.147149
0.19015
0.14778
0.054947
0.0272587
0.0554015
0.0274898
0.0291158
0.00347527
0.029303
0.00349783
0.00443263
0.00169746
0.00447594
0.00171033
0.00119401
0.00119335
0.00119515
0.00119449
0.00153233
0.00153227
0.00154322
0.00154316
0.00346614
0.0290795
0.00348862
0.0292664
0.00169666
0.00442601
0.00170951
0.00446923
0.147118
0.189006
0.147749
0.190213
0.0272466
0.0549772
0.0274776
0.055432
0.186734
0.146021
0.187891
0.146628
0.0541344
0.0268434
0.0545689
0.0270662
0.0287889
0.00343563
0.028968
0.00345716
0.00435212
0.0016712
0.00439439
0.0016842
0.00119137
0.00119072
0.00119254
0.00119188
0.00150961
0.00150955
0.00152069
0.00152063
0.00342667
0.0287529
0.00344811
0.0289319
0.00167042
0.00434564
0.0016834
0.00438783
0.14599
0.186795
0.146597
0.187953
0.0268314
0.0541639
0.0270541
0.0545988
0.184631
0.144949
0.185734
0.145527
0.0533641
0.0264464
0.053777
0.0266596
0.0284795
0.00339819
0.0286495
0.00341855
0.00427393
0.00164478
0.00431493
0.00165783
0.00118865
0.00118802
0.00118985
0.0011892
0.00148658
0.00148652
0.0014978
0.00149774
0.0033894
0.028444
0.00340967
0.0286138
0.00164401
0.00426758
0.00165705
0.0043085
0.144919
0.184691
0.145496
0.185795
0.0264345
0.0533931
0.0266476
0.0538063
0.18259
0.143915
0.183678
0.144482
0.0526228
0.0260642
0.0530262
0.0262718
0.0281842
0.00336291
0.028349
0.00338225
0.00419813
0.00161833
0.00423797
0.00163137
0.00118588
0.00118526
0.00118709
0.00118646
0.00146338
0.00146332
0.00147467
0.00147461
0.00335427
0.0281491
0.00337353
0.0283137
0.00161758
0.00419191
0.00163061
0.00423167
0.143884
0.182649
0.144452
0.183738
0.0260524
0.0526511
0.0262599
0.0530548
0.180104
0.142418
0.18154
0.14337
0.0517215
0.0255887
0.052256
0.0258757
0.0277872
0.00332174
0.0280388
0.00334661
0.00411586
0.0015917
0.00416179
0.0016049
0.00118289
0.00118228
0.00118426
0.00118364
0.00144009
0.00144003
0.00145142
0.00145136
0.00331329
0.0277529
0.00333804
0.028004
0.00159097
0.0041098
0.00160416
0.00415563
0.142387
0.180161
0.143339
0.181599
0.0255771
0.0517488
0.0258639
0.0522839
0.17662
0.135265
0.178459
0.140651
0.0495592
0.0240307
0.0509977
0.0251186
0.0261303
0.00317608
0.0273232
0.0032781
0.00392141
0.00156004
0.00405157
0.00157739
0.00117653
0.00117597
0.00118051
0.00117991
0.00141601
0.00141596
0.00142825
0.00142819
0.00316829
0.0260985
0.00326987
0.0272896
0.00155935
0.00391577
0.00157668
0.00404565
0.135235
0.176673
0.140621
0.178515
0.0240195
0.0495843
0.0251071
0.0510242
0.147374
0.108193
0.0410872
0.0350414
0.141488
0.103336
0.041369
0.0335604
0.0145973
0.00302121
0.0065847
0.00453807
0.0136748
0.00296701
0.0064529
0.00457217
0.00241422
0.00241419
0.00453625
0.00453626
0.00242775
0.00242772
0.00456874
0.00456875
0.00301985
0.0145898
0.00453822
0.00658434
0.00296591
0.0136686
0.00457229
0.00645259
0.108182
0.147399
0.0350427
0.0410873
0.103327
0.141509
0.0335615
0.0413687
0.267333
0.194583
0.223402
0.162592
0.252108
0.183304
0.211916
0.153942
0.0439364
0.00540948
0.0316487
0.00382447
0.04001
0.00489397
0.0290682
0.00360023
0.00136488
0.00136376
0.00161073
0.00161034
0.00134818
0.00134723
0.00160828
0.00160794
0.0053947
0.0438885
0.00381872
0.031621
0.00488156
0.0399687
0.00359543
0.0290445
0.194552
0.26742
0.162569
0.223459
0.183276
0.252183
0.153922
0.211965
0.299466
0.218287
0.289598
0.210987
0.280854
0.204582
0.272156
0.198134
0.0537565
0.00700329
0.0507026
0.00648668
0.0485672
0.00621028
0.0459438
0.00578961
0.0013107
0.00130867
0.00131393
0.00131223
0.00127966
0.00127799
0.00128781
0.00128639
0.00697869
0.0536873
0.00646557
0.0506411
0.00618983
0.0485073
0.00577202
0.0458906
0.218247
0.299589
0.21095
0.289707
0.204546
0.280959
0.1981
0.272249
0.304678
0.222153
0.303452
0.22124
0.285254
0.207881
0.28426
0.207122
0.0553448
0.00726823
0.0549808
0.00721012
0.0498895
0.00642041
0.0495934
0.00637524
0.0013149
0.00131269
0.00131333
0.00131116
0.00128133
0.00127952
0.00128037
0.00127859
0.00724158
0.0552707
0.00718398
0.0549081
0.00639834
0.0498256
0.00635357
0.0495306
0.222111
0.304812
0.221198
0.303583
0.207843
0.285368
0.207084
0.284371
0.304999
0.222416
0.305091
0.222476
0.285458
0.20808
0.28556
0.208138
0.0554401
0.00728017
0.055471
0.00728652
0.0499605
0.00642898
0.0499879
0.00643407
0.00131517
0.00131295
0.00131527
0.00131305
0.00128152
0.00127971
0.00128154
0.00127972
0.00725338
0.0553656
0.00725972
0.0553966
0.00640685
0.0498964
0.00641191
0.0499238
0.222374
0.305134
0.222435
0.305226
0.208042
0.285574
0.2081
0.285675
0.30474
0.222297
0.304986
0.222448
0.285194
0.207963
0.285425
0.208099
0.0553972
0.0072703
0.0554588
0.00728207
0.0499195
0.00642013
0.0499729
0.00642984
0.0013145
0.00131229
0.00131495
0.00131273
0.00128097
0.00127916
0.00128128
0.00127947
0.00724351
0.0553227
0.00725524
0.0553842
0.00639802
0.0498555
0.0064077
0.0499088
0.222255
0.304875
0.222406
0.305121
0.207925
0.285309
0.208061
0.28554
0.304272
0.222029
0.304613
0.222241
0.284749
0.20772
0.285064
0.207908
0.0552961
0.00725094
0.0553796
0.0072662
0.04983
0.00640374
0.0499022
0.00641641
0.00131345
0.00131124
0.00131402
0.00131181
0.00128011
0.0012783
0.00128054
0.00127872
0.00722419
0.0552215
0.00723941
0.055305
0.00638168
0.0497661
0.00639431
0.0498382
0.221987
0.304407
0.222198
0.304747
0.207682
0.284864
0.20787
0.285179
0.303679
0.221682
0.304082
0.221931
0.28419
0.207409
0.284563
0.207629
0.0551672
0.00722721
0.0552629
0.00724428
0.049716
0.00638342
0.0497993
0.00639778
0.00131218
0.00130998
0.00131283
0.00131063
0.00127904
0.00127725
0.00127954
0.00127774
0.00720052
0.0550926
0.00721753
0.0551882
0.00636144
0.0496521
0.00637575
0.0497353
0.22164
0.303813
0.221889
0.304216
0.207371
0.284305
0.207591
0.284678
0.302987
0.221278
0.303441
0.221557
0.283537
0.207048
0.283957
0.207294
0.0550206
0.00720142
0.0551254
0.00721951
0.049586
0.00636129
0.0496775
0.00637657
0.00131088
0.00130869
0.00131156
0.00130936
0.00127795
0.00127616
0.00127847
0.00127668
0.00717482
0.0549461
0.00719283
0.0550508
0.00633939
0.0495222
0.00635462
0.0496136
0.221235
0.30312
0.221514
0.303574
0.20701
0.283651
0.207256
0.284072
0.302208
0.220827
0.302707
0.221131
0.282797
0.206647
0.283262
0.206915
0.0548605
0.00717347
0.0549727
0.00719272
0.0494432
0.00633709
0.0495418
0.0063535
0.00130946
0.00130729
0.00131019
0.00130801
0.00127674
0.00127496
0.00127731
0.00127553
0.00714696
0.054786
0.00716614
0.0548981
0.00631526
0.0493795
0.00633162
0.049478
0.220785
0.302341
0.221088
0.30284
0.206608
0.282911
0.206877
0.283376
0.301342
0.220336
0.301885
0.22066
0.281965
0.206204
0.282478
0.206494
0.0546875
0.007144
0.0548068
0.00716414
0.049287
0.00631138
0.0493931
0.0063287
0.00130804
0.00130588
0.00130878
0.00130661
0.00127554
0.00127376
0.00127612
0.00127434
0.0071176
0.0546133
0.00713767
0.0547324
0.00628961
0.0492233
0.00630689
0.0493293
0.220293
0.301474
0.220617
0.302018
0.206165
0.282078
0.206455
0.282591
0.30038
0.219809
0.300975
0.220154
0.281035
0.205718
0.2816
0.206032
0.0545011
0.0071121
0.0546283
0.00713361
0.0491163
0.00628315
0.0492306
0.00630181
0.00130648
0.00130433
0.00130729
0.00130513
0.00127419
0.00127243
0.00127484
0.00127307
0.00708583
0.054427
0.00710724
0.054554
0.00626148
0.0490527
0.00628007
0.049167
0.219766
0.300511
0.220111
0.301106
0.205679
0.281148
0.205993
0.281712
0.299314
0.219235
0.299962
0.219603
0.279996
0.205176
0.280616
0.205521
0.0542996
0.0070783
0.054435
0.00710092
0.0489284
0.00625301
0.0490521
0.00627278
0.00130489
0.00130276
0.00130573
0.00130358
0.00127282
0.00127107
0.00127349
0.00127174
0.00705217
0.0542257
0.0070747
0.054361
0.00623145
0.048865
0.00625115
0.0489885
0.219192
0.299445
0.21956
0.300093
0.205137
0.280107
0.205481
0.280728
0.298135
0.21862
0.298842
0.219011
0.278849
0.204572
0.279523
0.204947
0.0540816
0.0070416
0.0542262
0.00706573
0.0487235
0.00622009
0.0488559
0.00624125
0.00130315
0.00130103
0.00130405
0.00130193
0.00127131
0.00126958
0.00127205
0.0012703
0.00701563
0.054008
0.00703966
0.0541525
0.00619867
0.0486603
0.00621974
0.0487926
0.218577
0.298265
0.218968
0.298972
0.204533
0.27896
0.204908
0.279635
0.296832
0.217943
0.297602
0.218367
0.277587
0.203914
0.278322
0.204317
0.0538446
0.00700261
0.0539994
0.007028
0.0485008
0.00618501
0.0486427
0.00620738
0.00130139
0.00129929
0.0013023
0.00130019
0.00126979
0.00126807
0.00127053
0.0012688
0.00697681
0.0537713
0.00700209
0.0539259
0.00616374
0.0484379
0.00618601
0.0485796
0.2179
0.296961
0.218324
0.297732
0.203875
0.277698
0.204278
0.278433
0.295403
0.217204
0.296237
0.21766
0.276201
0.203198
0.276999
0.203631
0.0535882
0.00696089
0.0537531
0.00698774
0.0482589
0.00614716
0.0484109
0.006171
0.00129953
0.00129745
0.00130051
0.00129841
0.00126816
0.00126645
0.00126897
0.00126725
0.00693526
0.0535152
0.00696201
0.0536799
0.00612604
0.0481963
0.00614978
0.0483481
0.217161
0.295531
0.217617
0.296366
0.203159
0.27631
0.203591
0.27711
0.293845
0.216404
0.294743
0.21689
0.27468
0.202414
0.275547
0.202883
0.0533117
0.00691624
0.0534869
0.00694461
0.0479961
0.00610646
0.048159
0.00613174
0.00129756
0.0012955
0.0012986
0.00129652
0.00126641
0.00126472
0.00126727
0.00126558
0.0068908
0.053239
0.00691905
0.053414
0.0060855
0.0479338
0.00611068
0.0480964
0.21636
0.293973
0.216847
0.294871
0.202375
0.274789
0.202844
0.275656
0.292156
0.215536
0.293123
0.216058
0.273028
0.201553
0.27396
0.202061
0.053015
0.00686869
0.0532007
0.00689853
0.0477126
0.00606301
0.0478858
0.00608968
0.00129549
0.00129344
0.00129657
0.00129451
0.00126457
0.0012629
0.00126548
0.0012638
0.00684345
0.0529427
0.00687317
0.0531282
0.00604224
0.0476505
0.0060688
0.0478235
0.215493
0.292282
0.216015
0.29325
0.201514
0.273136
0.202022
0.274069
0.290322
0.214599
0.291362
0.215156
0.271243
0.200629
0.272243
0.201167
0.0526972
0.00681821
0.0528938
0.00684955
0.0474091
0.00601682
0.0475925
0.00604489
0.00129331
0.00129129
0.00129444
0.00129241
0.00126265
0.001261
0.00126359
0.00126193
0.00679319
0.0526252
0.0068244
0.0528216
0.00599624
0.0473474
0.00602419
0.0475306
0.214556
0.290448
0.215113
0.291488
0.20059
0.27135
0.201128
0.272351
0.288346
0.213593
0.289458
0.214185
0.26932
0.199641
0.27039
0.200212
0.0523581
0.0067648
0.0525656
0.00679763
0.047085
0.00596788
0.047279
0.00599735
0.00129103
0.00128903
0.00129221
0.0012902
0.00126065
0.00125901
0.00126164
0.00125999
0.00674002
0.0522865
0.00677271
0.0524938
0.0059475
0.0470237
0.00597685
0.0472174
0.21355
0.288471
0.214142
0.289583
0.199602
0.269426
0.200173
0.270496
0.286227
0.212519
0.28741
0.213145
0.267258
0.198586
0.268397
0.19919
0.0519975
0.00670847
0.0522159
0.00674278
0.0467405
0.00591619
0.0469448
0.00594703
0.00128866
0.00128669
0.00128989
0.0012879
0.00125855
0.00125694
0.00125958
0.00125796
0.00668394
0.0519264
0.0067181
0.0521445
0.00589603
0.0466795
0.00592674
0.0468836
0.212476
0.28635
0.213102
0.287534
0.198547
0.267363
0.199151
0.268503
0.283967
0.211376
0.285221
0.212036
0.26506
0.197466
0.266267
0.198103
0.0516154
0.00664924
0.0518447
0.006685
0.0463757
0.00586184
0.0465901
0.00589399
0.00128621
0.00128426
0.00128747
0.00128551
0.00125638
0.00125479
0.00125745
0.00125585
0.00662497
0.0515448
0.00666058
0.0517738
0.00584191
0.0463152
0.00587393
0.0465294
0.211332
0.284089
0.211993
0.285343
0.197427
0.265164
0.198064
0.266372
0.281572
0.210166
0.282892
0.21086
0.262731
0.196283
0.264003
0.196951
0.0512127
0.00658727
0.0514523
0.00662437
0.0459915
0.00580497
0.0462156
0.00583834
0.00128368
0.00128176
0.00128498
0.00128304
0.00125414
0.00125258
0.00125524
0.00125366
0.00656328
0.0511426
0.00660022
0.0513819
0.00578529
0.0459314
0.00581852
0.0461552
0.210123
0.281692
0.210817
0.283013
0.196244
0.262834
0.196912
0.264106
0.279048
0.208894
0.280431
0.209619
0.26028
0.195041
0.261611
0.195739
0.0507904
0.00652277
0.0510397
0.0065611
0.0455891
0.0057458
0.0458221
0.00578027
0.0012811
0.0012792
0.00128242
0.0012805
0.00125185
0.00125031
0.00125297
0.00125141
0.00649907
0.0507208
0.00653723
0.0509698
0.00572638
0.0455295
0.0057607
0.0457623
0.20885
0.279166
0.209575
0.280551
0.195002
0.260381
0.195699
0.261714
0.276405
0.207562
0.277846
0.208316
0.257716
0.193744
0.259103
0.194469
0.0503498
0.0064559
0.0506082
0.00649539
0.0451698
0.00568454
0.0454111
0.00572
0.00127846
0.00127659
0.0012798
0.00127792
0.00124951
0.00124799
0.00125065
0.00124912
0.0064325
0.0502807
0.00647181
0.0505388
0.00566538
0.0451108
0.0057007
0.0453518
0.207519
0.276522
0.208272
0.277964
0.193705
0.257816
0.194429
0.259203
0.273656
0.206176
0.275149
0.206956
0.255054
0.192398
0.256488
0.193146
0.0498922
0.00638685
0.0501588
0.00642736
0.0447357
0.00562147
0.0449841
0.00565776
0.00127577
0.00127394
0.00127713
0.00127528
0.00124714
0.00124565
0.00124828
0.00124678
0.00636377
0.0498237
0.00640409
0.05009
0.00560259
0.0446772
0.00563872
0.0449253
0.206133
0.273772
0.206913
0.275265
0.192358
0.255153
0.193107
0.256587
0.270819
0.204744
0.272353
0.205546
0.25231
0.19101
0.253782
0.191778
0.0494204
0.00631608
0.0496937
0.00635734
0.0442892
0.00555701
0.0445434
0.00559389
0.00127307
0.00127126
0.00127443
0.00127261
0.00124475
0.00124328
0.00124589
0.00124442
0.00629332
0.0493526
0.00633439
0.0496255
0.00553841
0.0442312
0.00557513
0.0444851
0.204701
0.270933
0.205503
0.272468
0.190971
0.252408
0.191738
0.25388
0.267915
0.203277
0.269479
0.204095
0.249505
0.18959
0.251005
0.190372
0.0489379
0.00624416
0.0492161
0.00628588
0.0438336
0.00549164
0.0440918
0.00552886
0.00127037
0.00126859
0.00127172
0.00126993
0.00124236
0.00124092
0.0012435
0.00124204
0.00622172
0.0488707
0.00626325
0.0491485
0.00547334
0.0437762
0.0055104
0.0440341
0.203233
0.268027
0.204051
0.269593
0.189551
0.249601
0.190333
0.251101
0.264966
0.201784
0.266549
0.202613
0.246662
0.18815
0.248177
0.188941
0.0484484
0.00617165
0.0487296
0.00621355
0.0433723
0.00542589
0.0436329
0.0054632
0.0012677
0.00126595
0.00126903
0.00126726
0.00123999
0.00123858
0.00124111
0.00123968
0.00614955
0.0483819
0.00619126
0.0486626
0.00540788
0.0433155
0.00544502
0.0435757
0.201741
0.265077
0.20257
0.266661
0.188111
0.246756
0.188902
0.248272
0.261997
0.200278
0.263587
0.201112
0.243804
0.1867
0.245323
0.187494
0.0479556
0.0060991
0.0482378
0.0061409
0.0429091
0.00536028
0.04317
0.00539739
0.00126507
0.00126335
0.00126637
0.00126463
0.00123765
0.00123627
0.00123875
0.00123735
0.00607733
0.0478897
0.00611894
0.0481715
0.00534256
0.0428529
0.00537951
0.0431135
0.200235
0.262106
0.201069
0.263697
0.186661
0.243896
0.187455
0.245416
0.259035
0.198772
0.260617
0.199604
0.240957
0.185253
0.242466
0.186044
0.0474636
0.00602708
0.0477448
0.00606848
0.0424477
0.00529533
0.0427072
0.00533199
0.0012625
0.00126081
0.00126376
0.00126206
0.00123537
0.00123401
0.00123643
0.00123506
0.00600565
0.0473983
0.00604686
0.0476791
0.00527791
0.0423921
0.0053144
0.0426512
0.198728
0.259142
0.199561
0.260725
0.185214
0.241048
0.186005
0.242558
0.256104
0.197277
0.257667
0.198101
0.238145
0.183821
0.239634
0.184603
0.0469765
0.00595623
0.0472546
0.00599692
0.0419922
0.0052316
0.0422481
0.00526753
0.00126002
0.00125836
0.00126123
0.00125955
0.00123315
0.00123182
0.00123418
0.00123283
0.00593513
0.0469119
0.00597563
0.0471896
0.00521447
0.0419372
0.00525024
0.0421928
0.197233
0.25621
0.198058
0.257773
0.183782
0.238235
0.184563
0.239724
0.253233
0.195806
0.254762
0.196617
0.235396
0.182416
0.23685
0.183182
0.0464986
0.00588715
0.0467714
0.00592682
0.0415466
0.00516966
0.041797
0.00520458
0.00125764
0.00125601
0.00125879
0.00125714
0.00123101
0.0012297
0.00123199
0.00123067
0.00586638
0.0464347
0.00590587
0.0467071
0.00515281
0.0414922
0.00518757
0.0417422
0.195763
0.253337
0.196573
0.254867
0.182377
0.235484
0.183143
0.236939
0.250446
0.194373
0.251929
0.195163
0.232732
0.18105
0.234139
0.181795
0.0460342
0.00582043
0.0462997
0.0058588
0.0411147
0.00511
0.0413577
0.00514366
0.00125538
0.00125378
0.00125646
0.00125484
0.00122896
0.00122767
0.00122989
0.00122859
0.00579998
0.0459709
0.00583817
0.046236
0.00509343
0.0410609
0.00512694
0.0413035
0.19433
0.250548