/*--------------------------------*- C++ -*----------------------------------*\
  =========                 |
  \\      /  F ield         | OpenFOAM: The Open Source CFD Toolbox
   \\    /   O peration     | Website:  https://openfoam.org
    \\  /    A nd           | Version:  9
     \\/     M anipulation  |
\*---------------------------------------------------------------------------*/
FoamFile
{
    format      ascii;
    class       volScalarField;
    location    "0.85";
    object      nut;
}
// * * * * * * * * * * * * * * * * * * * * * * * * * * * * * * * * * * * * * //

dimensions      [0 2 -1 0 0 0 0];

internalField   nonuniform List<scalar> 
36360
(
0.00104717
0.00086165
0.00043563
0.000409647
0.000257632
0.000205548
0.00019092
0.000174878
0.000292289
0.00016375
0.000198793
0.000159576
0.000147945
0.00013933
0.000162739
0.000162116
0.000147228
0.000147226
0.000158726
0.000158727
0.000138702
0.000138702
0.000162085
0.000162085
0.000163718
0.000292232
0.000159579
0.00019878
0.00013933
0.000147939
0.000162116
0.000162739
0.000861601
0.0010473
0.000409637
0.000435652
0.000205542
0.000257643
0.000174877
0.000190921
0.00171824
0.00139803
0.00147332
0.00119612
0.000368852
0.00028945
0.000330532
0.0002588
0.000620549
0.00021687
0.000486928
0.000185048
0.000161975
0.000122296
0.0001528
0.000127043
0.00015522
0.000155198
0.000149134
0.000149125
0.000118738
0.000118736
0.000124905
0.000124904
0.000216699
0.00062018
0.000185001
0.000486708
0.000122281
0.000161915
0.000127037
0.000152773
0.00139793
0.00171867
0.00119603
0.0014736
0.000289419
0.000368906
0.000258779
0.000330567
0.00189626
0.00154849
0.00184226
0.00150266
0.000392807
0.000311188
0.000385913
0.000304526
0.000723816
0.000240464
0.000692514
0.000232757
0.000171146
0.000120804
0.000168272
0.00012103
0.000159795
0.000159765
0.000158622
0.000158596
0.000116011
0.000116009
0.000116598
0.000116596
0.000240189
0.000723292
0.000232521
0.000692047
0.000120782
0.000171059
0.00012101
0.000168195
0.00154837
0.00189688
0.00150255
0.00184281
0.000311149
0.000392881
0.000304489
0.000385981
0.00192295
0.00157158
0.00191705
0.00156636
0.0003958
0.000314465
0.000395228
0.00031374
0.000738915
0.000244061
0.000735636
0.00024332
0.000172535
0.000120787
0.000172243
0.000120788
0.000160124
0.000160092
0.00016011
0.000160079
0.000115843
0.000115841
0.000115872
0.000115869
0.000243766
0.000738356
0.000243029
0.000735085
0.000120763
0.000172443
0.000120764
0.000172152
0.00157145
0.00192362
0.00156623
0.00191771
0.000314426
0.00039588
0.0003137
0.000395306
0.00192401
0.00157277
0.00192463
0.00157318
0.000395787
0.000314592
0.000395908
0.000314663
0.000739593
0.000244112
0.000739871
0.000244205
0.000172573
0.00012076
0.000172607
0.000120771
0.000160103
0.000160071
0.000160131
0.000160099
0.000115824
0.000115822
0.000115821
0.000115819
0.000243816
0.000739031
0.000243909
0.000739309
0.000120736
0.000172481
0.000120747
0.000172516
0.00157264
0.00192469
0.00157306
0.00192532
0.000314553
0.000395867
0.000314624
0.000395988
0.00192276
0.00157179
0.00192393
0.00157276
0.00039553
0.000314361
0.000395726
0.000314546
0.000738996
0.000243864
0.000739633
0.000244065
0.000172473
0.000120723
0.000172558
0.000120748
0.000160039
0.000160007
0.00016009
0.000160059
0.000115797
0.000115795
0.000115814
0.000115811
0.000243569
0.000738436
0.000243769
0.000739073
0.0001207
0.000172382
0.000120724
0.000172467
0.00157167
0.00192345
0.00157264
0.00192461
0.000314322
0.000395611
0.000314507
0.000395807
0.00192089
0.00157022
0.00192232
0.00157143
0.000395181
0.000314001
0.000395418
0.000314241
0.000737915
0.000243514
0.000738751
0.000243759
0.000172307
0.000120666
0.000172422
0.000120695
0.000159978
0.000159946
0.000160032
0.000160001
0.000115757
0.000115755
0.000115772
0.00011577
0.00024322
0.000737357
0.000243464
0.000738192
0.000120642
0.000172216
0.000120671
0.000172331
0.0015701
0.00192158
0.00157131
0.00192301
0.000313962
0.000395262
0.000314203
0.000395499
0.00191865
0.00156835
0.00192028
0.0015697
0.000394778
0.000313586
0.000395042
0.000313851
0.000736592
0.000243074
0.000737536
0.000243357
0.000172108
0.000120603
0.000172238
0.000120635
0.000159906
0.000159875
0.000159962
0.000159931
0.000115716
0.000115714
0.000115733
0.000115731
0.000242782
0.000736034
0.000243064
0.000736977
0.00012058
0.000172018
0.000120612
0.000172148
0.00156823
0.00191934
0.00156958
0.00192096
0.000313547
0.000394859
0.000313813
0.000395124
0.00191609
0.00156626
0.00191789
0.00156773
0.000394326
0.000313131
0.000394616
0.000313416
0.000735104
0.000242639
0.000736132
0.000242927
0.000171884
0.000120534
0.000172027
0.00012057
0.000159843
0.000159812
0.000159899
0.000159868
0.000115668
0.000115666
0.000115689
0.000115687
0.000242348
0.000734547
0.000242635
0.000735574
0.00012051
0.000171794
0.000120547
0.000171937
0.00156614
0.00191677
0.0015676
0.00191857
0.000313092
0.000394408
0.000313377
0.000394698
0.00191322
0.00156396
0.00191518
0.00156555
0.000393826
0.000312633
0.000394143
0.000312944
0.000733468
0.000242125
0.000734576
0.000242445
0.000171637
0.000120454
0.000171792
0.000120495
0.00015976
0.000159729
0.000159822
0.000159791
0.000115611
0.000115609
0.000115636
0.000115634
0.000241835
0.00073291
0.000242154
0.000734019
0.00012043
0.000171546
0.000120471
0.000171702
0.00156383
0.0019139
0.00156542
0.00191587
0.000312593
0.000393907
0.000312905
0.000394224
0.00191002
0.00156144
0.00191216
0.00156315
0.000393273
0.000312089
0.000393618
0.000312423
0.000731679
0.000241616
0.000732871
0.000241943
0.000171365
0.000120365
0.000171534
0.000120411
0.000159684
0.000159653
0.000159746
0.000159715
0.000115546
0.000115544
0.000115575
0.000115573
0.000241326
0.00073112
0.000241653
0.000732312
0.000120341
0.000171275
0.000120387
0.000171443
0.00156131
0.0019107
0.00156302
0.00191284
0.00031205
0.000393353
0.000312383
0.000393699
0.00190647
0.00155866
0.0019088
0.00156051
0.000392663
0.000311498
0.000393039
0.000311857
0.000729724
0.000241023
0.000731006
0.000241385
0.000171068
0.000120262
0.00017125
0.000120314
0.000159586
0.000159555
0.000159655
0.000159624
0.000115469
0.000115467
0.000115504
0.000115502
0.000240735
0.000729164
0.000241095
0.000730446
0.000120239
0.000170977
0.000120291
0.000171159
0.00155853
0.00190714
0.00156038
0.00190947
0.000311457
0.000392742
0.000311817
0.000393119
0.00190253
0.00155562
0.00190506
0.00155761
0.000391988
0.000310855
0.000392399
0.00031124
0.000727586
0.000240428
0.000728967
0.0002408
0.000170742
0.000120149
0.000170939
0.000120207
0.000159497
0.000159466
0.000159565
0.000159534
0.000115381
0.000115379
0.000115422
0.00011542
0.000240141
0.000727027
0.000240512
0.000728407
0.000120125
0.000170652
0.000120183
0.000170848
0.00155549
0.0019032
0.00155748
0.00190574
0.000310814
0.000392067
0.0003112
0.000392478
0.00189818
0.00155228
0.00190093
0.00155442
0.000391245
0.000310158
0.000391691
0.000310572
0.000725249
0.000239762
0.000726735
0.00024017
0.000170386
0.00012002
0.000170598
0.000120086
0.000159392
0.000159362
0.000159468
0.000159438
0.000115281
0.000115279
0.000115328
0.000115326
0.000239477
0.000724691
0.000239884
0.000726176
0.000119997
0.000170295
0.000120062
0.000170508
0.00155215
0.00189884
0.00155429
0.0019016
0.000310118
0.000391324
0.000310532
0.00039177
0.00189339
0.00154862
0.00189637
0.00155094
0.000390428
0.000309399
0.000390912
0.000309846
0.0007227
0.000239039
0.000724299
0.000239476
0.000169997
0.000119875
0.000170226
0.000119949
0.000159275
0.000159245
0.000159357
0.000159326
0.000115166
0.000115164
0.00011522
0.000115218
0.000238755
0.000722144
0.000239192
0.000723741
0.000119852
0.000169907
0.000119926
0.000170136
0.00154849
0.00189405
0.0015508
0.00189704
0.000309358
0.000390507
0.000309805
0.000390991
0.00188814
0.00154463
0.00189136
0.00154712
0.000389534
0.000308575
0.000390058
0.000309055
0.000719925
0.000238253
0.000721643
0.000238724
0.000169575
0.000119713
0.000169821
0.000119796
0.000159146
0.000159116
0.000159234
0.000159204
0.000115036
0.000115034
0.000115098
0.000115096
0.000237972
0.00071937
0.000238441
0.000721087
0.00011969
0.000169485
0.000119773
0.000169732
0.0015445
0.0018888
0.00154699
0.00189202
0.000308534
0.000389612
0.000309014
0.000390136
0.00188241
0.00154029
0.00188588
0.00154296
0.000388557
0.000307688
0.000389123
0.000308199
0.000716909
0.000237404
0.000718754
0.000237907
0.000169117
0.000119532
0.000169382
0.000119625
0.000159005
0.000158975
0.000159099
0.000159069
0.00011489
0.000114888
0.00011496
0.000114958
0.000237125
0.000716355
0.000237627
0.000718198
0.00011951
0.000169028
0.000119602
0.000169293
0.00154016
0.00188307
0.00154283
0.00188654
0.000307647
0.000388635
0.000308159
0.000389201
0.00187617
0.00153559
0.00187991
0.00153845
0.000387493
0.000306742
0.000388104
0.000307282
0.000713633
0.00023649
0.000715614
0.000237027
0.000168623
0.000119332
0.000168907
0.000119434
0.000158851
0.000158822
0.000158951
0.000158921
0.000114725
0.000114724
0.000114805
0.000114803
0.000236214
0.000713081
0.000236749
0.00071506
0.000119309
0.000168535
0.000119412
0.000168818
0.00153546
0.00187682
0.00153832
0.00188057
0.000306701
0.00038757
0.000307241
0.000388181
0.00186936
0.00153048
0.0018734
0.00153356
0.000386338
0.000305748
0.000386995
0.00030631
0.000710077
0.00023551
0.000712204
0.00023608
0.000168092
0.00011911
0.000168394
0.000119223
0.000158687
0.000158657
0.000158792
0.000158762
0.000114542
0.00011454
0.000114631
0.000114629
0.000235236
0.000709526
0.000235805
0.000711651
0.000119088
0.000168004
0.000119201
0.000168306
0.00153034
0.00187001
0.00153342
0.00187405
0.000305707
0.000386414
0.000306269
0.000387072
0.00186199
0.00152486
0.00186631
0.00152821
0.000385091
0.000304728
0.000385795
0.0003053
0.00070623
0.000234465
0.000708505
0.000235068
0.000167523
0.000118866
0.000167844
0.00011899
0.00015851
0.000158481
0.000158621
0.000158591
0.000114338
0.000114336
0.000114437
0.000114435
0.000234195
0.000705681
0.000234795
0.000707955
0.000118844
0.000167435
0.000118968
0.000167756
0.00152472
0.00186263
0.00152807
0.00186696
0.000304687
0.000385168
0.000305259
0.000385871
0.00185406
0.00151869
0.00185866
0.00152231
0.000383753
0.000303691
0.000384503
0.000304276
0.00070211
0.000233358
0.000704519
0.000233991
0.000166912
0.000118597
0.000167255
0.000118734
0.000158322
0.000158293
0.000158437
0.000158408
0.000114112
0.00011411
0.000114222
0.00011422
0.000233091
0.000701562
0.000233722
0.00070397
0.000118576
0.000166825
0.000118712
0.000167167
0.00151855
0.0018547
0.00152217
0.0018593
0.00030365
0.000383829
0.000304235
0.000384579
0.0018456
0.00151213
0.00185047
0.00151594
0.000382322
0.000302586
0.000383118
0.000303208
0.000697735
0.00023219
0.000700273
0.000232853
0.000166258
0.000118304
0.000166622
0.000118453
0.000158121
0.000158093
0.000158242
0.000158213
0.000113864
0.000113862
0.000113985
0.000113983
0.000231926
0.00069719
0.000232586
0.000699726
0.000118283
0.000166171
0.000118431
0.000166535
0.00151198
0.00184623
0.0015158
0.00185111
0.000302545
0.000382397
0.000303166
0.000383194
0.00183662
0.00150517
0.00184175
0.00150918
0.000380799
0.000301411
0.000381642
0.000302067
0.000693112
0.000230964
0.000695774
0.000231654
0.00016556
0.000117985
0.000165945
0.000118147
0.00015791
0.000157882
0.000158035
0.000158007
0.000113592
0.00011359
0.000113725
0.000113723
0.000230704
0.000692569
0.000231392
0.00069523
0.000117964
0.000165474
0.000118125
0.000165859
0.00150502
0.00183724
0.00150904
0.00184238
0.00030137
0.000380874
0.000302026
0.000381716
0.00182714
0.00149783
0.00183252
0.00150204
0.000379189
0.000300167
0.000380075
0.000300858
0.000688253
0.000229686
0.000691032
0.000230401
0.000164819
0.00011764
0.000165226
0.000117814
0.000157689
0.000157661
0.000157818
0.00015779
0.000113295
0.000113293
0.00011344
0.000113438
0.000229429
0.000687713
0.000230141
0.00069049
0.000117619
0.000164734
0.000117793
0.00016514
0.00149768
0.00182776
0.00150189
0.00183315
0.000300126
0.000379263
0.000300816
0.00038015
0.00181719
0.00149014
0.00182281
0.00149453
0.000377498
0.000298858
0.000378424
0.000299581
0.000683176
0.000228359
0.000686063
0.000229096
0.000164037
0.000117268
0.000164464
0.000117456
0.000157459
0.000157431
0.000157591
0.000157563
0.000112973
0.000112971
0.000113131
0.000113129
0.000228106
0.000682639
0.000228841
0.000685524
0.000117247
0.000163952
0.000117435
0.000164379
0.00148999
0.0018178
0.00149438
0.00182343
0.000298816
0.000377571
0.000299539
0.000378498
0.00180682
0.00148213
0.00181265
0.00148667
0.000375732
0.000297488
0.000376695
0.000298241
0.000677905
0.000226992
0.000680886
0.000227747
0.000163216
0.000116869
0.000163662
0.00011707
0.000157221
0.000157193
0.000157355
0.000157328
0.000112625
0.000112624
0.000112796
0.000112794
0.000226743
0.00067737
0.000227496
0.00068035
0.000116849
0.000163132
0.000117049
0.000163577
0.00148197
0.00180743
0.00148652
0.00181326
0.000297447
0.000375804
0.000298199
0.000376767
0.0017961
0.00147384
0.0018021
0.00147851
0.000373902
0.000296066
0.000374896
0.000296844
0.00067247
0.000225593
0.000675529
0.000226362
0.000162359
0.000116444
0.000162822
0.000116658
0.000156976
0.000156949
0.000157113
0.000157085
0.000112252
0.000112251
0.000112436
0.000112434
0.000225348
0.000671939
0.000226114
0.000674996
0.000116424
0.000162276
0.000116637
0.000162738
0.00147368
0.0017967
0.00147836
0.0018027
0.000296024
0.000373974
0.000296802
0.000374968
0.00178508
0.00146533
0.00179122
0.00147011
0.00037202
0.000294598
0.000373038
0.000295397
0.000666912
0.000224173
0.000670028
0.000224949
0.00016147
0.000115993
0.000161948
0.000116219
0.000156724
0.000156697
0.000156862
0.000156836
0.000111854
0.000111853
0.00011205
0.000112048
0.000223931
0.000666384
0.000224706
0.000669498
0.000115973
0.000161388
0.000116199
0.000161865
0.00146517
0.00178568
0.00146995
0.00179182
0.000294556
0.000372091
0.000295356
0.00037311
0.00177387
0.00145667
0.0017801
0.00146152
0.000370102
0.000293096
0.000371137
0.000293911
0.000661273
0.000222741
0.000664425
0.000223521
0.000160555
0.000115517
0.000161045
0.000115756
0.000156463
0.000156438
0.000156604
0.000156578
0.000111431
0.00011143
0.000111639
0.000111637
0.000222504
0.000660748
0.000223282
0.000663897
0.000115498
0.000160473
0.000115736
0.000160963
0.00145651
0.00177446
0.00146136
0.00178069
0.000293054
0.000370172
0.00029387
0.000371207
0.00176255
0.00144792
0.00176882
0.00145281
0.000368161
0.00029157
0.000369205
0.000292396
0.0006556
0.000221311
0.000658763
0.000222087
0.000159618
0.000115018
0.000160118
0.000115268
0.000156196
0.00015617
0.000156338
0.000156313
0.000110985
0.000110983
0.000111204
0.000111202
0.000221078
0.000655078
0.000221852
0.000658239
0.000114999
0.000159537
0.000115248
0.000160036
0.00144776
0.00176312
0.00145265
0.0017694
0.000291528
0.000368231
0.000292354
0.000369275
0.00175121
0.00143916
0.00175748
0.00144405
0.000366217
0.000290032
0.000367261
0.000290863
0.00064994
0.000219893
0.00065309
0.000220661
0.000158665
0.000114497
0.000159172
0.000114757
0.000155925
0.0001559
0.000156066
0.000156041
0.000110515
0.000110514
0.000110746
0.000110744
0.000219664
0.000649422
0.000220429
0.00065257
0.000114478
0.000158585
0.000114738
0.000159091
0.001439
0.00175178
0.00144389
0.00175805
0.00028999
0.000366285
0.00029082
0.00036733
0.00173996
0.00143048
0.00174617
0.00143532
0.000364285
0.000288494
0.000365321
0.000289323
0.000644346
0.000218499
0.000647457
0.000219252
0.000157703
0.000113956
0.000158213
0.000114226
0.000155657
0.000155632
0.000155795
0.00015577
0.000110025
0.000110023
0.000110265
0.000110264
0.000218274
0.000643831
0.000219025
0.00064694
0.000113937
0.000157623
0.000114207
0.000158133
0.00143031
0.00174053
0.00143515
0.00174674
0.000288452
0.000364352
0.000289281
0.000365389
0.00172891
0.00142194
0.00173501
0.0014267
0.000362384
0.00028697
0.000363402
0.00028779
0.000638868
0.000217141
0.000641915
0.000217873
0.000156737
0.000113398
0.000157248
0.000113676
0.000155392
0.000155368
0.000155526
0.000155501
0.000109515
0.000109513
0.000109765
0.000109763
0.00021692
0.000638357
0.00021765
0.000641401
0.000113379
0.000156659
0.000113657
0.000157169
0.00142178
0.00172946
0.00142653
0.00173557
0.000286928
0.000362451
0.000287748
0.00036347
0.00171813
0.00141364
0.00172409
0.00141827
0.000360532
0.000285472
0.000361524
0.000286278
0.000633557
0.000215829
0.000636514
0.000216536
0.000155776
0.000112824
0.000156283
0.000113109
0.000155131
0.000155107
0.000155264
0.00015524
0.000108987
0.000108986
0.000109246
0.000109244
0.000215611
0.000633049
0.000216316
0.000636004
0.000112806
0.000155698
0.000113091
0.000156205
0.00141347
0.00171868
0.0014181
0.00172464
0.00028543
0.000360598
0.000286236
0.000361591
0.00170773
0.00140563
0.00171349
0.00141011
0.000358745
0.000284013
0.000359703
0.000284798
0.000628461
0.000214574
0.000631305
0.00021525
0.000154824
0.000112237
0.000155325
0.000112528
0.000154877
0.000154854
0.000155006
0.000154983
0.000108445
0.000108444
0.00010871
0.000108709
0.00021436
0.000627957
0.000215035
0.000630798
0.00011222
0.000154746
0.00011251
0.000155247
0.00140546
0.00170827
0.00140994
0.00171403
0.000283971
0.000358811
0.000284756
0.000359769
0.00169768
0.00139798
0.00170328
0.00140228
0.000357034
0.000282605
0.000357954
0.000283363
0.000623619
0.000213386
0.000626333
0.000214027
0.000153888
0.000111641
0.00015438
0.000111937
0.000154634
0.000154611
0.000154758
0.000154735
0.00010789
0.000107888
0.000108161
0.00010816
0.000213176
0.000623118
0.000213815
0.00062583
0.000111624
0.000153811
0.000111919
0.000154303
0.00139781
0.00169821
0.00140211
0.00170381
0.000282562
0.000357099
0.000283321
0.000358019
0.00168718
0.00139016
0.00169325
0.00139471
0.000355371
0.000281234
0.000356279
0.000281981
0.000618893
0.000212255
0.000621606
0.000212872
0.00015297
0.000111038
0.000153454
0.000111336
0.000154402
0.000154379
0.000154521
0.000154498
0.000107324
0.000107323
0.0001076
0.000107599
0.000212049
0.000618396
0.000212663
0.000621105
0.000111021
0.000152894
0.000111319
0.000153378
0.00138999
0.0016877
0.00139454
0.00169378
0.000281192
0.000355435
0.000281938
0.000356343
0.00167012
0.00137678
0.00168092
0.00138553
0.000353324
0.000279507
0.000354542
0.000280553
0.000611885
0.000210884
0.00061643
0.000211713
0.00015196
0.000110424
0.000152526
0.000110729
0.000154171
0.000154148
0.000154292
0.00015427
0.000106751
0.000106749
0.000107031
0.000107029
0.000210682
0.000611397
0.000211508
0.000615935
0.000110407
0.000151885
0.000110712
0.00015245
0.00137661
0.00167063
0.00138536
0.00168144
0.000279465
0.000353386
0.000280511
0.000354605
0.00162383
0.00132793
0.00165379
0.00136144
0.000348314
0.000273696
0.000351662
0.000277778
0.000587501
0.000206877
0.000603934
0.000209512
0.000149509
0.000109683
0.000151159
0.000110091
0.000153824
0.000153802
0.000154023
0.000154001
0.000106151
0.00010615
0.000106457
0.000106455
0.000206687
0.000587032
0.000209315
0.000603453
0.000109667
0.000149437
0.000110074
0.000151084
0.00132775
0.0016243
0.00136126
0.00165428
0.000273654
0.000348373
0.000277736
0.000351723
0.0013179
0.00107554
0.000498662
0.000448368
0.001255
0.00102368
0.000490544
0.00043517
0.000366116
0.000175122
0.000204954
0.000158491
0.000345822
0.000172151
0.000204188
0.000158838
0.000147352
0.000147348
0.000158451
0.000158452
0.000147264
0.00014726
0.000158677
0.000158678
0.000175071
0.000366003
0.0001585
0.000204946
0.000172106
0.000345725
0.000158845
0.000204179
0.00107546
0.00131813
0.00044834
0.000498708
0.00102361
0.0012552
0.000435143
0.00049058
0.0022446
0.00182987
0.00189945
0.00154442
0.00210091
0.00171293
0.00178858
0.00145447
0.00087796
0.000277467
0.000672346
0.00021551
0.00080785
0.000260909
0.000623592
0.000207126
0.000161389
0.00016135
0.000151707
0.000151689
0.000160276
0.000160242
0.000151189
0.000151174
0.000277131
0.000877365
0.000215365
0.00067196
0.000260631
0.000807335
0.000207008
0.000623265
0.00182973
0.00224536
0.0015443
0.00189995
0.0017128
0.00210155
0.00145436
0.001789
0.00251187
0.00205279
0.0024271
0.0019822
0.00233768
0.00191065
0.00226355
0.00184882
0.00104138
0.000330429
0.000990315
0.00031358
0.000951278
0.000304545
0.000907004
0.000290739
0.000168687
0.000168631
0.000166785
0.000166731
0.000166953
0.000166906
0.000165195
0.000165151
0.000329858
0.00104055
0.000313092
0.000989572
0.000304072
0.000950558
0.000290335
0.000906361
0.00205264
0.00251295
0.00198205
0.00242806
0.0019105
0.00233859
0.00184869
0.00226435
0.00255937
0.00209188
0.00254765
0.00208234
0.00237773
0.00194379
0.00236814
0.00193591
0.00106839
0.000339035
0.00106206
0.000337103
0.000973965
0.000311398
0.000968779
0.000309902
0.000169512
0.000169449
0.000169371
0.000169309
0.000167604
0.000167552
0.000167488
0.000167437
0.000338417
0.0010675
0.000336496
0.00106118
0.000310886
0.000973192
0.000309399
0.000968019
0.00209172
0.00256055
0.00208218
0.0025488
0.00194364
0.00237872
0.00193576
0.00236911
0.00256315
0.00209491
0.0025637
0.00209536
0.00238056
0.00194605
0.00238106
0.00194652
0.00107019
0.000339448
0.0010706
0.000339605
0.000975299
0.000311692
0.000975681
0.000311815
0.000169533
0.00016947
0.000169555
0.000169491
0.000167614
0.000167562
0.000167635
0.000167583
0.000338827
0.00106929
0.000338982
0.0010697
0.000311178
0.000974523
0.0003113
0.000974903
0.00209475
0.00256434
0.0020952
0.0025649
0.00194591
0.00238156
0.00194637
0.00238206
0.00256205
0.002094
0.00256369
0.00209535
0.00237926
0.0019451
0.00238075
0.00194632
0.00106955
0.000339109
0.00107052
0.000339481
0.000974658
0.000311374
0.000975517
0.000311686
0.000169484
0.00016942
0.000169531
0.000169468
0.000167566
0.000167514
0.000167613
0.000167562
0.000338486
0.00106865
0.000338857
0.00106962
0.000310861
0.000973882
0.000311172
0.000974739
0.00209384
0.00256325
0.0020952
0.00256489
0.00194495
0.00238026
0.00194617
0.00238175
0.00255957
0.00209194
0.00256168
0.00209371
0.00237694
0.00194319
0.00237882
0.00194476
0.00106804
0.000338506
0.00106933
0.000338973
0.000973287
0.000310853
0.000974418
0.000311246
0.000169429
0.000169366
0.00016948
0.000169417
0.000167517
0.000167465
0.000167564
0.000167512
0.000337884
0.00106714
0.00033835
0.00106843
0.000310341
0.000972511
0.000310733
0.000973641
0.00209178
0.00256077
0.00209355
0.00256288
0.00194304
0.00237795
0.00194461
0.00237983
0.00255652
0.00208943
0.00255887
0.00209138
0.00237414
0.00194088
0.00237625
0.00194263
0.00106619
0.000337765
0.00106762
0.000338289
0.000971603
0.000310205
0.000972866
0.000310652
0.000169355
0.000169292
0.000169413
0.00016935
0.000167449
0.000167398
0.000167503
0.000167451
0.000337145
0.00106529
0.000337667
0.00106672
0.000309695
0.000970827
0.00031014
0.000972089
0.00208926
0.00255771
0.00209122
0.00256007
0.00194073
0.00237514
0.00194248
0.00237726
0.00255307
0.00208661
0.00255565
0.00208872
0.00237097
0.0019383
0.00237329
0.00194019
0.00106413
0.000337
0.00106566
0.000337535
0.00096973
0.000309542
0.000971087
0.000309997
0.000169294
0.000169231
0.000169349
0.000169287
0.000167394
0.000167343
0.000167446
0.000167395
0.000336381
0.00106323
0.000336914
0.00106475
0.000309033
0.000968954
0.000309488
0.00097031
0.00208644
0.00255426
0.00208856
0.00255684
0.00193815
0.00237196
0.00194003
0.00237429
0.00254928
0.00208354
0.00255206
0.00208579
0.00236746
0.00193548
0.00236998
0.0019375
0.0010619
0.000336155
0.00106352
0.000336729
0.000967696
0.000308799
0.000969141
0.000309292
0.000169215
0.000169153
0.000169276
0.000169213
0.000167321
0.00016727
0.000167378
0.000167327
0.000335538
0.001061
0.000336111
0.00106262
0.000308292
0.00096692
0.000308784
0.000968364
0.00208337
0.00255047
0.00208562
0.00255325
0.00193532
0.00236846
0.00193735
0.00237097
0.00254517
0.0020802
0.00254813
0.00208261
0.00236362
0.00193241
0.00236632
0.00193458
0.00105952
0.000335297
0.00106123
0.000335882
0.000965498
0.000308048
0.000967036
0.000308551
0.000169149
0.000169087
0.000169207
0.000169145
0.000167261
0.00016721
0.000167315
0.000167264
0.000334682
0.00105861
0.000335265
0.00106033
0.000307542
0.000964721
0.000308043
0.000966259
0.00208003
0.00254635
0.00208244
0.00254932
0.00193225
0.00236461
0.00193442
0.00236731
0.00254069
0.00207662
0.00254386
0.00207917
0.0023594
0.00192908
0.0023623
0.0019314
0.00105695
0.000334352
0.00105876
0.000334981
0.000963119
0.000307209
0.00096476
0.000307754
0.000169066
0.000169004
0.000169129
0.000169067
0.000167182
0.000167131
0.000167242
0.000167192
0.000333739
0.00105605
0.000334367
0.00105786
0.000306705
0.000962341
0.000307248
0.000963982
0.00207644
0.00254186
0.002079
0.00254504
0.00192892
0.00236038
0.00193124
0.00236329
0.00253581
0.00207272
0.00253919
0.00207546
0.00235475
0.00192544
0.00235788
0.00192793
0.00105418
0.000333382
0.00105611
0.000334029
0.000960534
0.000306349
0.000962293
0.000306911
0.000168994
0.000168932
0.000169054
0.000168993
0.000167115
0.000167065
0.000167173
0.000167122
0.000332772
0.00105328
0.000333417
0.00105521
0.000305847
0.000959757
0.000306407
0.000961515
0.00207255
0.00253698
0.00207528
0.00254037
0.00192528
0.00235573
0.00192777
0.00235887
0.0025305
0.00206853
0.00253412
0.00207143
0.00234965
0.00192145
0.00235302
0.00192413
0.0010512
0.000332315
0.00105326
0.00033301
0.000957729
0.000305394
0.000959607
0.000306002
0.000168905
0.000168844
0.000168971
0.00016891
0.000167031
0.000166981
0.000167094
0.000167044
0.000331709
0.00105031
0.000332401
0.00105236
0.000304895
0.000956954
0.000305501
0.00095883
0.00206836
0.00253167
0.00207126
0.00253529
0.00192129
0.00235063
0.00192397
0.002354
0.00252469
0.00206398
0.00252857
0.00206707
0.00234409
0.0019171
0.00234771
0.00191997
0.00104799
0.000331214
0.00105017
0.00033193
0.000954689
0.000304407
0.000956694
0.000305035
0.000168827
0.000168766
0.000168889
0.000168828
0.000166957
0.000166908
0.000167017
0.000166968
0.000330611
0.00104709
0.000331324
0.00104927
0.00030391
0.000953916
0.000304537
0.000955919
0.0020638
0.00252585
0.0020669
0.00252974
0.00191694
0.00234506
0.00191981
0.00234868
0.00251837
0.00205903
0.00252252
0.00206234
0.00233801
0.00191238
0.0023419
0.00191545
0.00104452
0.000330042
0.00104684
0.000330799
0.000951396
0.000303341
0.000953536
0.000304014
0.000168747
0.000168687
0.000168812
0.000168752
0.000166877
0.000166828
0.000166942
0.000166892
0.000329442
0.00104362
0.000330197
0.00104594
0.000302848
0.000950624
0.000303519
0.000952762
0.00205886
0.00251953
0.00206216
0.00252368
0.00191222
0.00233897
0.00191528
0.00234287
0.00251152
0.00205369
0.00251594
0.0020572
0.00233137
0.00190724
0.00233555
0.00191053
0.00104079
0.000328788
0.00104325
0.000329588
0.000947832
0.000302194
0.000950115
0.000302908
0.00016866
0.0001686
0.000168729
0.000168669
0.000166787
0.000166739
0.000166856
0.000166807
0.000328191
0.0010399
0.000328989
0.00104235
0.000301704
0.000947061
0.000302415
0.000949342
0.00205351
0.00251267
0.00205702
0.0025171
0.00190708
0.00233233
0.00191037
0.00233652
0.00250412
0.00204791
0.00250884
0.00205165
0.00232417
0.00190164
0.00232864
0.00190517
0.00103679
0.000327452
0.00103939
0.000328293
0.000943988
0.00030097
0.000946416
0.000301723
0.000168566
0.000168507
0.000168638
0.000168578
0.000166691
0.000166643
0.000166763
0.000166714
0.000326859
0.0010359
0.000327698
0.0010385
0.000300484
0.000943219
0.000301234
0.000945645
0.00204773
0.00250527
0.00205147
0.00250999
0.00190147
0.00232512
0.001905
0.0023296
0.00249613
0.00204169
0.00250115
0.00204566
0.00231639
0.00189559
0.00232116
0.00189935
0.00103251
0.000326037
0.00103526
0.000326919
0.000939863
0.00029967
0.000942438
0.000300462
0.000168467
0.000168408
0.000168541
0.000168482
0.00016659
0.000166542
0.000166664
0.000166616
0.000325448
0.00103162
0.000326327
0.00103436
0.000299187
0.000939096
0.000299977
0.000941669
0.0020415
0.00249727
0.00204548
0.0025023
0.00189542
0.00231734
0.00189918
0.00232211
0.00248755
0.00203501
0.00249288
0.00203922
0.00230803
0.00188909
0.0023131
0.00189308
0.00102794
0.000324542
0.00103084
0.000325465
0.000935448
0.000298293
0.000938174
0.000299124
0.000168365
0.000168307
0.000168441
0.000168382
0.000166483
0.000166436
0.00016656
0.000166512
0.000323958
0.00102705
0.000324878
0.00102995
0.000297815
0.000934683
0.000298643
0.000937407
0.00203483
0.00248868
0.00203904
0.00249401
0.00188892
0.00230897
0.00189291
0.00231405
0.00247836
0.00202788
0.00248399
0.00203232
0.00229907
0.00188213
0.00230444
0.00188636
0.00102307
0.000322969
0.00102613
0.000323932
0.000930743
0.00029684
0.000933619
0.00029771
0.00016826
0.000168202
0.000168337
0.000168279
0.000166372
0.000166325
0.000166452
0.000166404
0.00032239
0.00102219
0.00032335
0.00102524
0.000296366
0.00092998
0.000297233
0.000932854
0.00202769
0.00247948
0.00203214
0.00248512
0.00188196
0.0023
0.00188619
0.00230538
0.00246856
0.00202028
0.00247451
0.00202496
0.0022895
0.00187473
0.00229518
0.00187918
0.00101792
0.000321317
0.00102112
0.00032232
0.000925748
0.000295312
0.000928772
0.000296219
0.000168152
0.000168094
0.00016823
0.000168173
0.000166257
0.00016621
0.000166338
0.000166291
0.000320742
0.00101703
0.000321742
0.00102024
0.000294842
0.000924987
0.000295746
0.000928009
0.00202009
0.00246967
0.00202477
0.00247562
0.00187455
0.00229043
0.00187901
0.00229612
0.00245816
0.00201223
0.00246441
0.00201714
0.00227936
0.00186687
0.00228533
0.00187156
0.00101247
0.000319588
0.00101582
0.00032063
0.00092047
0.000293712
0.000923638
0.000294654
0.000168041
0.000167984
0.000168121
0.000168064
0.000166137
0.00016609
0.00016622
0.000166174
0.000319019
0.00101159
0.000320057
0.00101494
0.000293247
0.000919712
0.000294186
0.000922877
0.00201204
0.00245926
0.00201695
0.00246552
0.00186669
0.00228028
0.00187138
0.00228626
0.00244718
0.00200373
0.00245372
0.00200887
0.00226865
0.00185859
0.00227491
0.00186349
0.00100674
0.00031779
0.00101024
0.000318866
0.000914921
0.000292046
0.000918226
0.00029302
0.000167928
0.000167872
0.000168009
0.000167953
0.000166013
0.000165967
0.000166098
0.000166052
0.000317226
0.00100586
0.000318298
0.00100936
0.000291586
0.000914166
0.000292557
0.000917469
0.00200353
0.00244827
0.00200867
0.00245482
0.00185841
0.00226956
0.00186331
0.00227582
0.00243565
0.00199481
0.00244247
0.00200016
0.00225741
0.0018499
0.00226393
0.00185501
0.00100074
0.000315925
0.00100438
0.000317033