/*--------------------------------*- C++ -*----------------------------------*\
  =========                 |
  \\      /  F ield         | OpenFOAM: The Open Source CFD Toolbox
   \\    /   O peration     | Website:  https://openfoam.org
    \\  /    A nd           | Version:  9
     \\/     M anipulation  |
\*---------------------------------------------------------------------------*/
FoamFile
{
    format      ascii;
    class       surfaceScalarField;
    location    "0.85";
    object      phi;
}
// * * * * * * * * * * * * * * * * * * * * * * * * * * * * * * * * * * * * * //

dimensions      [0 3 -1 0 0 0 0];

internalField   nonuniform List<scalar> 
104044
(
2.14408e-07
-6.48929e-05
3.52294e-07
6.40737e-05
2.52511e-07
-5.1819e-05
-2.56183e-06
-7.543e-08
5.39568e-05
7.13786e-07
9.646e-08
2.99214e-07
-1.15693e-07
-2.39822e-06
-4.00316e-08
5.65206e-07
6.24825e-08
-5.96498e-05
5.99397e-05
-5.64787e-05
-2.12155e-08
5.40006e-05
7.10289e-08
-3.47859e-08
-2.25005e-09
-5.79615e-05
-8.56139e-07
5.8455e-05
2.89468e-07
-5.89297e-05
-6.14689e-07
7.70232e-10
5.9418e-05
1.23312e-07
-2.13646e-10
-1.12013e-06
1.89568e-07
-1.0499e-06
3.45325e-10
1.49962e-07
-3.56166e-09
-5.88491e-05
5.79753e-05
-5.80387e-05
3.5396e-10
5.74201e-05
-2.08638e-09
8.68986e-11
1.11159e-12
-5.89703e-05
-6.06197e-07
5.94546e-05
1.22699e-07
-5.897e-05
-6.06196e-07
-7.67222e-10
5.94543e-05
1.22698e-07
3.91606e-13
-1.04781e-06
1.50337e-07
-1.04781e-06
-3.43818e-10
1.50337e-07
1.43007e-12
-5.78554e-05
5.72496e-05
-5.78551e-05
-3.51303e-10
5.72493e-05
4.02778e-13
-8.6158e-11
2.25163e-09
-5.89288e-05
-6.14689e-07
5.94171e-05
1.23313e-07
-5.79603e-05
-8.56084e-07
7.54227e-08
5.84537e-05
2.89426e-07
2.14261e-10
-1.0499e-06
1.49963e-07
-1.12011e-06
4.00317e-08
1.89556e-07
3.56332e-09
-5.80378e-05
5.74192e-05
-5.88477e-05
2.12221e-08
5.7974e-05
2.08653e-09
3.47888e-08
-2.14407e-07
-5.18175e-05
-2.56156e-06
5.39552e-05
7.13649e-07
-6.48924e-05
3.52321e-07
6.40732e-05
2.52468e-07
-9.64596e-08
-2.39802e-06
5.65067e-07
2.99358e-07
-1.15836e-07
-6.24723e-08
-5.64785e-05
5.40006e-05
-5.96497e-05
5.99395e-05
-7.1025e-08
2.38035e-07
-6.32358e-05
1.79064e-07
6.25177e-05
3.00999e-07
-5.55711e-05
-4.72487e-07
-5.96789e-08
5.65196e-05
-1.78288e-07
2.43242e-07
3.19078e-07
2.75558e-07
-1.69483e-06
-7.22604e-08
3.96075e-07
-1.05191e-08
-6.02303e-05
6.04199e-05
-5.23327e-05
3.41497e-08
5.18156e-05
2.84402e-08
1.49621e-09
-8.29027e-09
-5.87797e-05
-5.01533e-07
5.88727e-05
3.57185e-07
-5.97296e-05
-1.1817e-07
6.99866e-10
5.98107e-05
2.80968e-08
-5.25517e-09
-7.89811e-07
3.9805e-07
-4.02089e-07
8.62883e-10
8.44128e-08
-7.58946e-09
-5.71943e-05
5.67345e-05
-5.70103e-05
3.84358e-10
5.68842e-05
-7.2952e-09
4.23042e-10
2.68968e-12
-5.97717e-05
-9.79209e-08
5.98634e-05
6.93931e-09
-5.97714e-05
-9.79212e-08
-6.93412e-10
5.98631e-05
6.93712e-09
1.83382e-12
-3.83533e-07
6.73066e-08
-3.83532e-07
-8.58107e-10
6.73031e-08
3.42023e-12
-5.68665e-05
5.67689e-05
-5.68662e-05
-3.79061e-10
5.67687e-05
2.35159e-12
-4.19159e-10
8.29307e-09
-5.97287e-05
-1.18168e-07
5.98098e-05
2.80762e-08
-5.87785e-05
-5.01468e-07
5.96491e-08
5.88715e-05
3.57111e-07
5.25761e-09
-4.02086e-07
8.43898e-08
-7.89704e-07
7.22403e-08
3.97961e-07
7.59159e-09
-5.70094e-05
5.68833e-05
-5.71931e-05
-3.41275e-08
5.67333e-05
7.29838e-09
-1.48558e-09
-2.38029e-07
-5.55696e-05
-4.72781e-07
5.65183e-05
-1.78283e-07
-6.32353e-05
1.78864e-07
6.25172e-05
3.01156e-07
-2.43239e-07
-1.69484e-06
3.95992e-07
3.19099e-07
2.75584e-07
1.05403e-08
-5.23327e-05
5.18153e-05
-6.02302e-05
6.04196e-05
-2.84258e-08
1.6975e-07
-6.19948e-05
-2.97679e-07
6.15827e-05
5.39945e-07
-5.70296e-05
6.05387e-07
-1.7905e-08
5.73809e-05
-7.69082e-07
2.07008e-07
-9.0689e-08
4.06662e-07
2.8441e-07
-3.97958e-08
-5.47574e-07
-1.01764e-07
-6.03846e-05
6.01887e-05
-5.19806e-05
9.2144e-08
5.23921e-05
-5.54422e-08
6.39389e-08
-1.15778e-08
-5.88433e-05
-2.50045e-07
5.87871e-05
2.99956e-07
-5.97787e-05
1.05435e-08
3.21312e-10
5.97177e-05
3.85257e-08
-8.25246e-09
-3.09675e-07
3.07489e-07
4.41952e-09
4.90959e-10
1.88328e-08
-7.82972e-09
-5.64969e-05
5.63468e-05
-5.68801e-05
2.76024e-10
5.68826e-05
-8.14164e-09
3.29374e-10
5.31308e-12
-5.98431e-05
2.56794e-08
5.97985e-05
1.93209e-08
-5.98429e-05
2.56763e-08
-3.12421e-10
5.97982e-05
1.93243e-08
3.86791e-12
2.25172e-08
-1.80888e-09
2.25154e-08
-4.83086e-10
-1.80824e-09
5.31948e-12
-5.67918e-05
5.68177e-05
-5.67915e-05
-2.68023e-10
5.68174e-05
4.38152e-12
-3.22736e-10
1.1595e-08
-5.97779e-05
1.05379e-08
5.97169e-05
3.85139e-08
-5.88422e-05
-2.50003e-07
1.78692e-08
5.8786e-05
2.99894e-07
8.25305e-09
4.41715e-09
1.88201e-08
-3.09634e-07
3.9762e-08
3.07423e-07
7.83323e-09
-5.68792e-05
5.68817e-05
-5.64958e-05
-9.21079e-08
5.63457e-05
8.14437e-09
-6.39096e-08
-1.69734e-07
-5.70285e-05
6.05211e-07
5.738e-05
-7.69104e-07
-6.19942e-05
-2.97822e-07
6.15822e-05
5.40137e-07
-2.06998e-07
2.84169e-07
-5.47563e-07
-9.08639e-08
4.0686e-07
1.01801e-07
-5.19801e-05
5.23914e-05
-6.03842e-05
6.01882e-05
5.54707e-08
9.1524e-08
-6.12595e-05
-5.43695e-07
6.09822e-05
7.29518e-07
-5.76432e-05
7.6591e-07
1.82794e-08
5.78584e-05
-9.07831e-07
1.27722e-07
-4.51147e-07
6.4666e-07
7.25364e-07
3.28857e-09
-8.63243e-07
-1.80001e-07
-5.98797e-05
5.9516e-05
-5.2861e-05
1.34415e-07
5.33125e-05
-1.42157e-07
1.14317e-07
-6.80175e-09
-5.87354e-05
-2.42061e-07
5.86865e-05
3.16064e-07
-5.9655e-05
-3.22078e-08
2.28794e-10
5.95947e-05
8.54586e-08
-1.08647e-08
-2.37697e-07
3.03553e-07
-8.91878e-09
2.30916e-10
6.05507e-08
-4.8715e-09
-5.623e-05
5.61273e-05
-5.68669e-05
2.71735e-10
5.68295e-05
-6.56217e-09
2.30878e-10
3.40221e-12
-5.97543e-05
-1.34689e-08
5.97102e-05
5.77777e-08
-5.9754e-05
-1.34705e-08
-2.23488e-10
5.97099e-05
5.77766e-08
5.38899e-12
6.52117e-09
3.78733e-08
6.51819e-09
-2.21848e-10
3.78765e-08
6.09338e-12
-5.68245e-05
5.68113e-05
-5.68242e-05
-2.62581e-10
5.6811e-05
5.8851e-12
-2.22016e-10
6.81887e-09
-5.96542e-05
-3.21974e-08
5.95939e-05
8.54135e-08
-5.87344e-05
-2.41981e-07
-1.8304e-08
5.86855e-05
3.16015e-07
1.08683e-08
-8.91809e-09
6.05355e-08
-2.37639e-07
-3.32333e-09
3.03489e-07
4.87712e-09
-5.68659e-05
5.68286e-05
-5.62289e-05
-1.34369e-07
5.61262e-05
6.56673e-09
-1.14276e-07
-9.14974e-08
-5.76424e-05
7.6592e-07
5.78576e-05
-9.07927e-07
-6.12589e-05
-5.43779e-07
6.09815e-05
7.29686e-07
-1.27699e-07
7.25291e-07
-8.63306e-07
-4.51255e-07
6.46842e-07
1.80053e-07
-5.28602e-05
5.33117e-05
-5.98792e-05
5.95154e-05
1.42201e-07
3.13008e-08
-6.07368e-05
-6.0126e-07
6.05072e-05
7.99617e-07
-5.8021e-05
7.35972e-07
6.42227e-08
5.81472e-05
-8.95091e-07
5.83964e-08
-5.82564e-07
7.69495e-07
7.52775e-07
4.5921e-08
-9.02959e-07
-2.36253e-07
-5.91421e-05
5.87771e-05
-5.37089e-05
1.60424e-07
5.40482e-05
-2.08635e-07
1.47706e-07
-1.81978e-09
-5.86529e-05
-2.35256e-07
5.8624e-05
3.30166e-07
-5.95348e-05
-6.38718e-08
4.86255e-10
5.94705e-05
1.2592e-07
-4.41461e-09
-2.36829e-07
3.20782e-07
-5.10587e-08
3.1649e-10
1.06192e-07
-2.10809e-10
-5.60408e-05
5.59662e-05
-5.67754e-05
7.11372e-10
5.67106e-05
-2.65368e-09
3.75534e-10
5.50238e-12
-5.96656e-05
-4.28399e-08
5.96159e-05
9.30204e-08
-5.96653e-05
-4.28411e-08
-4.77815e-10
5.96156e-05
9.30207e-08
1.22852e-11
-3.07865e-08
7.57372e-08
-3.07905e-08
-3.00569e-10
7.5752e-08
7.18949e-12
-5.67809e-05
5.67387e-05
-5.67806e-05
-6.94006e-10
5.67384e-05
7.15429e-12
-3.66093e-10
1.83475e-09
-5.95341e-05
-6.38563e-08
5.94697e-05
1.25878e-07
-5.86519e-05
-2.35167e-07
-6.42646e-08
5.86231e-05
3.30118e-07
4.38095e-09
-5.10498e-08
1.06226e-07
-2.36735e-07
-4.59764e-08
3.20652e-07
2.17773e-10
-5.67745e-05
5.67098e-05
-5.60397e-05
-1.60369e-07
5.59652e-05
2.65495e-09
-1.47656e-07
-3.126e-08
-5.80202e-05
7.35988e-07
5.81464e-05
-8.95193e-07
-6.07361e-05
-6.01374e-07
6.05064e-05
7.99815e-07
-5.83556e-08
7.52789e-07
-9.03088e-07
-5.82661e-07
7.69671e-07
2.36318e-07
-5.37081e-05
5.40474e-05
-5.91415e-05
5.87764e-05
2.08694e-07
-1.14852e-08
-6.02935e-05
-5.96804e-07
6.00872e-05
8.14587e-07
-5.82399e-05
6.76689e-07
8.39214e-08
5.83043e-05
-8.36584e-07
7.95827e-09
-5.98165e-07
8.03914e-07
7.01357e-07
7.49343e-08
-8.60949e-07
-2.74546e-07
-5.84337e-05
5.81114e-05
-5.43277e-05
1.74882e-07
5.4555e-05
-2.54724e-07
1.67102e-07
3.58706e-09
-5.85951e-05
-2.29096e-07
5.85632e-05
3.41372e-07
-5.94018e-05
-8.15719e-08
8.89558e-10
5.93274e-05
1.58617e-07
8.75979e-10
-2.2883e-07
3.31749e-07
-7.25639e-08
9.75972e-10
1.4117e-07
4.9762e-09
-5.59021e-05
5.58429e-05
-5.66398e-05
1.0163e-09
5.65621e-05
2.35048e-09
6.57168e-10
9.09099e-12
-5.95607e-05
-6.01345e-08
5.9498e-05
1.23747e-07
-5.95604e-05
-6.01396e-08
-8.79047e-10
5.94977e-05
1.23756e-07
7.87596e-12
-5.13242e-08
1.0742e-07
-5.13286e-08
-9.59377e-10
1.07425e-07
9.20369e-12
-5.66881e-05
5.66289e-05
-5.66878e-05
-1.00675e-09
5.66286e-05
8.18489e-12
-6.47184e-10
-3.57878e-09
-5.94011e-05
-8.15505e-08
5.93267e-05
1.58584e-07
-5.85942e-05
-2.29e-07
-8.39504e-08
5.85623e-05
3.41294e-07
-8.67601e-10
-7.25452e-08
1.41142e-07
-2.28737e-07
-7.49674e-08
3.31677e-07
-4.96683e-09
-5.66389e-05
5.65613e-05
-5.59011e-05
-1.7482e-07
5.5842e-05
-2.34234e-09
-1.67044e-07
1.15374e-08
-5.82391e-05
6.7673e-07
5.83035e-05
-8.36704e-07
-6.02927e-05
-5.96896e-07
6.00864e-05
8.14764e-07
-7.91097e-09
7.01387e-07
-8.61064e-07
-5.9827e-07
8.041e-07
2.7462e-07
-5.4327e-05
5.45543e-05
-5.84329e-05
5.81107e-05
2.54793e-07
-4.14527e-08
-5.98915e-05
-5.81815e-07
5.96991e-05
8.1564e-07
-5.83413e-05
6.16655e-07
9.41256e-08
5.83544e-05
-7.65359e-07
-2.75158e-08
-5.85365e-07
8.08561e-07
6.40826e-07
8.89268e-08
-7.94189e-07
-2.99637e-07
-5.78115e-05
5.75293e-05
-5.47331e-05
1.81832e-07
5.48683e-05
-2.85496e-07
1.77239e-07
8.72544e-09
-5.85269e-05
-2.28953e-07
5.84838e-05
3.57446e-07
-5.92483e-05
-9.70701e-08
1.7478e-09
5.91626e-05
1.89813e-07
6.15278e-09
-2.25627e-07
3.4469e-07
-8.84642e-08
1.28469e-09
1.72413e-07
9.96135e-09
-5.57871e-05
5.573e-05
-5.64797e-05
1.87732e-09
5.63907e-05
7.44454e-09
1.41829e-09
9.94328e-12
-5.9429e-05
-7.62489e-08
5.93518e-05
1.55158e-07
-5.94287e-05
-7.62574e-08
-1.73855e-09
5.93515e-05
1.55175e-07
9.57496e-12
-6.74664e-08
1.37783e-07
-6.7474e-08
-1.2748e-09
1.37796e-07
1.00865e-11
-5.65629e-05
5.64885e-05
-5.65626e-05
-1.86804e-09
5.64882e-05
9.69444e-12
-1.40884e-09
-8.71642e-09
-5.92476e-05
-9.70463e-08
5.91619e-05
1.89774e-07
-5.8526e-05
-2.28868e-07
-9.41483e-08
5.84829e-05
3.57377e-07
-6.14389e-09
-8.84405e-08
1.72376e-07
-2.25535e-07
-8.8952e-08
3.44614e-07
-9.95074e-09
-5.64789e-05
5.63899e-05
-5.57862e-05
-1.81764e-07
5.57291e-05
-7.43438e-09
-1.77174e-07
4.15111e-08
-5.83405e-05
6.1667e-07
5.83536e-05
-7.65456e-07
-5.98907e-05
-5.81925e-07
5.96983e-05
8.1583e-07
2.75709e-08
6.4086e-07
-7.94302e-07
-5.85463e-07
8.08738e-07
2.99717e-07
-5.47324e-05
5.48676e-05
-5.78108e-05
5.75286e-05
2.85572e-07
-6.2341e-08
-5.95132e-05
-5.6952e-07
5.9327e-05
8.18089e-07
-5.83448e-05
5.61385e-07
9.91988e-08
5.83147e-05
-6.92805e-07
-5.23194e-08
-5.71471e-07
8.09714e-07
5.83842e-07
9.61865e-08
-7.22777e-07
-3.15554e-07
-5.72634e-05
5.70095e-05
-5.49649e-05
1.84239e-07
5.50265e-05
-3.05541e-07
1.81678e-07
1.32769e-08
-5.84333e-05
-2.34646e-07
5.83733e-05
3.80596e-07
-5.90715e-05
-1.12529e-07
2.68195e-09
5.8973e-05
2.21629e-07
1.09798e-08
-2.28549e-07
3.6423e-07
-1.03652e-07
2.19663e-09
2.03502e-07
1.44196e-08
-5.5671e-05
5.56061e-05
-5.62969e-05
2.81053e-09
5.6196e-05
1.21472e-08
2.31594e-09
1.62999e-11
-5.92676e-05
-9.31257e-08
5.91741e-05
1.89273e-07
-5.92673e-05
-9.31369e-08
-2.71031e-09
5.91739e-05
1.89293e-07
1.02866e-11
-8.37092e-08
1.70124e-07
-8.37187e-08
-2.18871e-09
1.70142e-07
1.17576e-11
-5.64071e-05
5.63168e-05
-5.64068e-05
-2.80249e-09
5.63165e-05
9.97464e-12
-2.30834e-09
-1.33147e-08
-5.90708e-05
-1.12508e-07
5.89724e-05
2.21586e-07
-5.84325e-05
-2.34555e-07
-9.92048e-08
5.83724e-05
3.80533e-07
-1.09746e-08
-1.03628e-07
2.03463e-07
-2.28465e-07
-9.62064e-08
3.64162e-07
-1.44171e-08
-5.62961e-05
5.61953e-05
-5.56701e-05
-1.84165e-07
5.56053e-05
-1.21379e-08
-1.81609e-07
6.24131e-08
-5.8344e-05
5.61399e-07
5.83139e-05
-6.92886e-07
-5.95123e-05
-5.69617e-07
5.93261e-05
8.18277e-07
5.23802e-08
5.83857e-07
-7.22866e-07
-5.71582e-07
8.09905e-07
3.15639e-07
-5.49642e-05
5.50258e-05
-5.72626e-05
5.70086e-05
3.05622e-07
-7.68463e-08
-5.91437e-05
-5.61874e-07
5.89569e-05
8.25528e-07
-5.82658e-05
5.11528e-07
1.00958e-07
5.81985e-05
-6.22023e-07
-6.94917e-08
-5.61464e-07
8.1423e-07
5.31105e-07
9.95856e-08
-6.51271e-07
-3.24668e-07
-5.67656e-05
5.65284e-05
-5.50575e-05
1.8375e-07
5.50606e-05
-3.17659e-07
1.82457e-07
1.51645e-08
-5.83041e-05
-2.44535e-07
5.82243e-05
4.10146e-07
-5.88683e-05
-1.29144e-07
3.24513e-09
5.87544e-05
2.54918e-07
1.49783e-08
-2.36512e-07
3.90281e-07
-1.19391e-07
3.52648e-09
2.35567e-07
1.83152e-08
-5.55358e-05
5.54567e-05
-5.60896e-05
3.78294e-09
5.5975e-05
1.62339e-08
3.23546e-09
-2.72833e-10
-5.9073e-05
-1.11413e-07
5.89617e-05
2.26297e-07
-5.90726e-05
-1.11325e-07
-4.29104e-09
5.89615e-05
2.26408e-07
1.8121e-10
-1.01028e-07
2.05422e-07
-1.01095e-07
-2.86535e-09
2.05384e-07
-3.03378e-12
-5.62189e-05
5.61113e-05
-5.62187e-05
-3.72711e-09
5.61111e-05
1.86129e-11
-3.26071e-09
-1.66643e-08
-5.88675e-05
-1.29027e-07
5.87539e-05
2.54986e-07
-5.83036e-05
-2.44664e-07
-1.0144e-07
5.82232e-05
4.09866e-07
-1.41405e-08
-1.19391e-07
2.35512e-07
-2.36331e-07
-9.9362e-08
3.9031e-07
-1.81793e-08
-5.60889e-05
5.59743e-05
-5.55351e-05
-1.83691e-07
5.54559e-05
-1.62649e-08
-1.82365e-07
7.67721e-08
-5.82651e-05
5.11468e-07
5.81976e-05
-6.22165e-07
-5.91428e-05
-5.62009e-07
5.89559e-05
8.25691e-07
6.96213e-08
5.31134e-07
-6.51321e-07
-5.61563e-07
8.14428e-07
3.24733e-07
-5.50568e-05
5.50599e-05
-5.67648e-05
5.65275e-05
3.17754e-07
-8.66955e-08
-5.87698e-05
-5.59996e-07
5.85765e-05
8.39981e-07
-5.8114e-05
4.65605e-07
1.01507e-07
5.80136e-05
-5.53375e-07
-8.13792e-08
-5.56947e-07
8.25381e-07
4.85512e-07
1.00673e-07
-5.83081e-07
-3.29497e-07
-5.62958e-05
5.60653e-05
-5.50406e-05
1.81853e-07
5.49948e-05
-3.24321e-07
1.81173e-07
1.77616e-08
-5.81337e-05
-2.58808e-07
5.80309e-05
4.45393e-07
-5.86335e-05
-1.47468e-07
4.55489e-09
5.85022e-05
2.91979e-07
1.72321e-08
-2.48627e-07
4.22674e-07
-1.36665e-07
4.4588e-09
2.70363e-07
2.14755e-08
-5.53696e-05
5.52711e-05
-5.58538e-05
4.70237e-09
5.57231e-05
1.97269e-08
4.18753e-09
-6.61878e-12
-5.88421e-05
-1.31242e-07
5.87112e-05
2.66683e-07
-5.88418e-05
-1.31242e-07
-4.67037e-09
5.8711e-05
2.66707e-07
1.75767e-10
-1.19915e-07
2.43753e-07
-1.19975e-07
-3.80931e-09
2.43718e-07
1.48025e-11
-5.59956e-05
5.5869e-05
-5.59953e-05
-4.68552e-09
5.58688e-05
2.66726e-11
-4.18712e-09
-1.79641e-08
-5.86328e-05
-1.47441e-07
5.85016e-05
2.91962e-07
-5.8133e-05
-2.58741e-07
-1.01555e-07
5.80301e-05
4.45298e-07
-1.63015e-08
-1.36691e-07
2.7029e-07
-2.48436e-07
-1.00416e-07
4.22706e-07
-2.14518e-08
-5.58532e-05
5.57225e-05
-5.53688e-05
-1.81771e-07
5.52704e-05
-1.97555e-08
-1.81074e-07
8.67565e-08
-5.81132e-05
4.65609e-07
5.80127e-05
-5.53454e-07
-5.87689e-05
-5.6009e-07
5.85756e-05
8.40155e-07
8.15185e-08
4.85545e-07
-5.83125e-07
-5.57038e-07
8.25569e-07
3.29584e-07
-5.50399e-05
5.49942e-05
-5.62949e-05
5.60644e-05
3.24419e-07
-9.34094e-08
-5.83807e-05
-5.62712e-07
5.8176e-05
8.6085e-07
-5.78991e-05
4.20893e-07
1.00974e-07
5.7769e-05
-4.85122e-07
-8.94943e-08
-5.57306e-07
8.42616e-07
4.39691e-07
1.00335e-07
-5.15075e-07
-3.31109e-07
-5.58355e-05
5.56038e-05
-5.49283e-05
1.79121e-07
5.48389e-05
-3.27445e-07
1.78811e-07
1.95597e-08
-5.79168e-05
-2.76084e-07
5.77889e-05
4.85474e-07
-5.83626e-05
-1.67855e-07
5.55113e-09
5.82112e-05
3.33257e-07
1.85716e-08
-2.64193e-07
4.5999e-07
-1.55814e-07
5.04351e-09
3.08952e-07
2.41362e-08
-5.51631e-05
5.5042e-05
-5.55849e-05
5.61648e-09
5.54355e-05
2.2644e-08
5.11288e-09
1.82988e-11
-5.85712e-05
-1.5299e-07
5.84188e-05
3.10972e-07
-5.8571e-05
-1.52997e-07
-5.53046e-09
5.84186e-05
3.10987e-07
1.7791e-11
-1.40469e-07
2.85476e-07
-1.40477e-07
-5.01441e-09
2.8549e-07
1.79872e-11
-5.57336e-05
5.55862e-05
-5.57334e-05
-5.59693e-09
5.5586e-05
1.68972e-11
-5.09469e-09
-1.95448e-08
-5.8362e-05
-1.67838e-07
5.82106e-05
3.33234e-07
-5.79161e-05
-2.76001e-07
-1.00973e-07
5.77881e-05
4.85392e-07
-1.8537e-08
-1.55797e-07
3.08928e-07
-2.64111e-07
-1.00334e-07
4.59912e-07
-2.41138e-08
-5.55842e-05
5.54349e-05
-5.51624e-05
-1.79033e-07
5.50413e-05
-2.26232e-08
-1.78726e-07
9.34797e-08
-5.78983e-05
4.20897e-07
5.77681e-05
-4.85196e-07
-5.83798e-05
-5.62808e-07
5.8175e-05
8.61018e-07
8.95631e-08
4.39696e-07
-5.15149e-07
-5.57404e-07
8.42788e-07
3.31197e-07
-5.49276e-05
5.48383e-05
-5.58345e-05
5.56029e-05
3.27533e-07
-9.77597e-08
-5.79664e-05
-5.69648e-07
5.77455e-05
8.8831e-07
-5.76238e-05
3.76338e-07
9.98843e-08
5.74614e-05
-4.1157e-07
-9.49293e-08
-5.62314e-07
8.66858e-07
3.96156e-07
9.95304e-08
-4.45459e-07
-3.30266e-07
-5.53693e-05
5.513e-05
-5.47314e-05
1.7589e-07
5.46016e-05
-3.27809e-07
1.75867e-07
2.09972e-08
-5.76488e-05
-2.96257e-07
5.74934e-05
5.30524e-07
-5.80503e-05
-1.90517e-07
6.44288e-09
5.78761e-05
3.79267e-07
2.01148e-08
-2.82812e-07
5.02329e-07
-1.77164e-07
5.94508e-09
3.52247e-07
2.63272e-08
-5.491e-05
5.47633e-05
-5.52774e-05
6.49192e-09
5.51067e-05
2.50465e-08
6.00222e-09
1.94373e-11
-5.82562e-05
-1.76875e-07
5.80799e-05
3.5963e-07
-5.8256e-05
-1.76881e-07
-6.42057e-09
5.80797e-05
3.59644e-07
1.86899e-11
-1.631e-07
3.31569e-07
-1.63107e-07
-5.92379e-09
3.31583e-07
1.94583e-11
-5.54291e-05
5.52587e-05
-5.54289e-05
-6.47006e-09
5.52585e-05
1.85616e-11
-5.98175e-09
-2.09803e-08
-5.80497e-05
-1.90501e-07
5.78755e-05
3.79246e-07
-5.7648e-05
-2.96172e-07
-9.988e-08
5.74927e-05
5.30436e-07
-2.00988e-08
-1.77148e-07
3.52225e-07
-2.82729e-07
-9.95279e-08
5.02244e-07
-2.63026e-08
-5.52768e-05
5.51061e-05
-5.49093e-05
-1.75799e-07
5.47627e-05
-2.50233e-08
-1.75778e-07
9.78311e-08
-5.7623e-05
3.76344e-07
5.74606e-05
-4.11649e-07
-5.79654e-05
-5.69739e-07
5.77445e-05
8.88468e-07
9.49995e-08
3.96161e-07
-4.45536e-07
-5.62409e-07
8.67021e-07
3.30355e-07
-5.47307e-05
5.46009e-05
-5.53684e-05
5.5129e-05
3.27897e-07
-1.00384e-07
-5.75179e-05
-5.80819e-07
5.72768e-05
9.22292e-07
-5.7285e-05
3.31071e-07
9.85313e-08
5.70915e-05
-3.36478e-07
-9.8265e-08
-5.71063e-07
8.96885e-07
3.51227e-07
9.82418e-08
-3.71324e-07
-3.2769e-07
-5.48848e-05
5.46317e-05
-5.44544e-05
1.72417e-07
5.42854e-05
-3.25923e-07
1.7246e-07
2.22251e-08
-5.73252e-05
-3.1947e-07
5.71403e-05
5.80703e-07
-5.76913e-05
-2.15545e-07
7.29193e-09
5.74915e-05
4.30253e-07
2.14217e-08
-3.04201e-07
5.49197e-07
-2.00705e-07
6.80549e-09
4.00116e-07
2.81218e-08
-5.46046e-05
5.44294e-05
-5.49262e-05
7.32106e-09
5.47314e-05
2.70003e-08
6.84463e-09
2.09644e-11
-5.78926e-05
-2.0304e-07
5.769e-05
4.12956e-07
-5.78924e-05
-2.03046e-07
-7.2661e-09
5.76898e-05
4.12969e-07
1.99824e-11
-1.87799e-07
3.81897e-07
-1.87806e-07
-6.78196e-09
3.8191e-07
2.0582e-11
-5.50777e-05
5.4882e-05
-5.50775e-05
-7.29507e-09
5.48818e-05
2.00502e-11
-6.82131e-09
-2.22039e-08
-5.76907e-05
-2.15533e-07
5.7491e-05
4.30236e-07
-5.73245e-05
-3.19383e-07
-9.85222e-08
5.71396e-05
5.80612e-07
-2.14034e-08
-2.00691e-07
4.00098e-07
-3.04116e-07
-9.82354e-08
5.49109e-07
-2.80906e-08
-5.49256e-05
5.47309e-05
-5.46039e-05
-1.72322e-07
5.44288e-05
-2.6974e-08
-1.72367e-07
1.00456e-07
-5.72842e-05
3.31075e-07
5.70907e-05
-3.36552e-07
-5.7517e-05
-5.80904e-07
5.72759e-05
9.22443e-07
9.83361e-08
3.51232e-07
-3.71399e-07
-5.71152e-07
8.9704e-07
3.27778e-07
-5.44538e-05
5.42848e-05
-5.48839e-05
5.46308e-05
3.26011e-07
-1.01742e-07
-5.70272e-05
-5.96177e-07
5.67617e-05
9.63435e-07
-5.6883e-05
2.89805e-07
9.70489e-08
5.66552e-05
-2.60846e-07
-1.00183e-07
-5.84077e-07
9.33905e-07
3.08119e-07
9.68247e-08
-2.9664e-07
-3.24127e-07
-5.43703e-05
5.40983e-05
-5.41018e-05
1.6897e-07
5.38985e-05
-3.22733e-07
1.68993e-07
2.329e-08
-5.69415e-05
-3.45965e-07
5.67244e-05
6.36861e-07
-5.72799e-05
-2.42908e-07
8.09305e-09
5.70515e-05
4.86507e-07
2.25446e-08
-3.28682e-07
6.01721e-07
-2.26645e-07
7.62248e-09
4.53107e-07
2.88689e-08
-5.42411e-05
5.40352e-05
-5.45258e-05
7.99431e-09
5.43037e-05
2.86206e-08
7.63863e-09
1.70563e-11
-5.74753e-05
-2.31712e-07
5.72437e-05
4.71434e-07
-5.74751e-05
-2.31735e-07
-8.06718e-09
5.72435e-05
4.71447e-07
2.07699e-11
-2.14887e-07
4.37118e-07
-2.14895e-07
-7.59394e-09
4.3713e-07
-3.96321e-11
-5.46747e-05
5.44511e-05
-5.46745e-05
-8.17875e-09
5.44509e-05
1.52119e-11
-7.61206e-09
-2.32259e-08
-5.72794e-05
-2.42956e-07
5.70511e-05
4.86497e-07
-5.69409e-05
-3.45811e-07
-9.70389e-08
5.67237e-05
6.36764e-07
-2.25163e-08
-2.26638e-07
4.53093e-07
-3.2859e-07
-9.68124e-08
6.01629e-07
-2.9359e-08
-5.45251e-05
5.43034e-05
-5.42405e-05
-1.69039e-07
5.40344e-05
-2.85393e-08
-1.68899e-07
1.0181e-07
-5.68822e-05
2.89826e-07
5.66544e-05
-2.60917e-07
-5.70263e-05
-5.96252e-07
5.67607e-05
9.63582e-07
1.00255e-07
3.08124e-07
-2.96711e-07
-5.84158e-07
9.34055e-07
3.24167e-07
-5.41012e-05
5.38978e-05
-5.43694e-05
5.40973e-05
3.22815e-07
-1.02099e-07
-5.64861e-05
-6.14742e-07
5.6193e-05
1.00999e-06
-5.64123e-05
2.47454e-07
9.54753e-08
5.61499e-05
-1.82601e-07
-1.00968e-07
-6.00878e-07
9.77387e-07
2.67348e-07
9.52819e-08
-2.20669e-07
-3.19579e-07
-5.3816e-05
5.35209e-05
-5.36814e-05
1.65559e-07
5.34437e-05
-3.18619e-07
1.65864e-07
2.41707e-08
-5.64928e-05
-3.75299e-07
5.62416e-05
6.97768e-07
-5.68103e-05
-2.72477e-07
8.83623e-09
5.65505e-05
5.47625e-07
2.34409e-08
-3.56298e-07
6.59756e-07
-2.54859e-07
8.3919e-09
5.11191e-07
2.88485e-08
-5.38153e-05
5.35767e-05
-5.40698e-05
8.58261e-09
5.38176e-05
2.95223e-08
8.57885e-09
1.05969e-11
-5.69991e-05
-2.62733e-07
5.67359e-05
5.34723e-07
-5.69989e-05
-2.62771e-07
-8.81802e-09
5.67358e-05
5.34736e-07
3.04557e-11
-2.44458e-07
4.97391e-07
-2.44436e-07
-8.35725e-09
4.974e-07
-1.28362e-10
-5.42151e-05
5.3961e-05
-5.42148e-05
-9.06481e-09
5.3961e-05
1.30516e-10
-8.17391e-09
-2.40512e-08
-5.68098e-05
-2.72617e-07
5.655e-05
5.47622e-07
-5.64921e-05
-3.7505e-07
-9.54689e-08
5.62409e-05
6.97666e-07
-2.34897e-08
-2.54751e-07
5.11177e-07
-3.56323e-07
-9.5264e-08
6.59669e-07
-3.01834e-08
-5.4069e-05
5.38175e-05
-5.3815e-05
-1.65892e-07
5.35757e-05
-2.85386e-08
-1.65461e-07
1.02159e-07
-5.64115e-05
2.47506e-07
5.61491e-05
-1.82671e-07
-5.64852e-05
-6.14805e-07
5.6192e-05
1.01013e-06
1.01048e-07
2.67309e-07
-2.2073e-07
-6.00974e-07
9.7754e-07
3.19547e-07
-5.36809e-05
5.34429e-05
-5.38151e-05
5.35199e-05
3.18791e-07
-1.01946e-07
-5.58884e-05
-6.36928e-07
5.55644e-05
1.06284e-06
-5.58725e-05
2.02896e-07
9.413e-08
5.55759e-05
-1.02384e-07
-1.01048e-07
-6.21158e-07
1.02678e-06
2.24403e-07
9.38458e-08
-1.41956e-07
-3.14572e-07
-5.32136e-05
5.28912e-05
-5.31913e-05
1.62409e-07
5.29172e-05
-3.13879e-07
1.62886e-07
2.49139e-08
-5.59752e-05
-4.07493e-07
5.56879e-05
7.6401e-07
-5.62765e-05
-3.04815e-07
9.53824e-09
5.59823e-05
6.14421e-07
2.42013e-08
-3.86793e-07
7.22839e-07
-2.85617e-07
9.11783e-09
5.74602e-07
2.88712e-08
-5.33225e-05
5.30486e-05
-5.35529e-05
9.19018e-09
5.32677e-05
3.02678e-08
9.40832e-09
7.50095e-12
-5.64587e-05
-2.9643e-07
5.61612e-05
6.03503e-07
-5.64586e-05
-2.96477e-07
-9.52487e-09
5.61611e-05
6.03517e-07
3.75885e-11
-2.76556e-07
5.62865e-07
-2.76518e-07
-9.07118e-09
5.6287e-07
-1.8352e-10
-5.36937e-05
5.34066e-05
-5.36934e-05
-9.85262e-09
5.34066e-05
1.97937e-10
-8.76859e-09
-2.47546e-08
-5.62761e-05
-3.05028e-07
5.59819e-05
6.14422e-07
-5.59746e-05
-4.07174e-07
-9.41236e-08
5.56873e-05
7.639e-07
-2.42922e-08
-2.85431e-07
5.74586e-07
-3.86899e-07
-9.38195e-08
7.22754e-07
-3.0856e-08
-5.35518e-05
5.32678e-05
-5.33225e-05
-1.62938e-07
5.30474e-05
-2.85472e-08
-1.62255e-07
1.02e-07
-5.58718e-05
2.02973e-07
5.55752e-05
-1.02456e-07
-5.58875e-05
-6.36981e-07
5.55635e-05
1.06297e-06
1.01135e-07
2.24338e-07
-1.42013e-07
-6.21261e-07
1.02693e-06
3.14488e-07
-5.31909e-05
5.29164e-05
-5.32127e-05
5.28902e-05
3.1411e-07
-1.01613e-07
-5.52278e-05
-6.61994e-07
5.48699e-05
1.12148e-06
-5.52666e-05
1.55778e-07
9.31947e-08
5.49431e-05
-2.71591e-08
-1.00717e-07
-6.4458e-07
1.08198e-06
1.79082e-07
9.26593e-08
-6.30693e-08
-3.09107e-07
-5.25553e-05
5.22024e-05
-5.26277e-05
1.59396e-07
5.23149e-05
-3.08636e-07
1.60014e-07
2.55889e-08
-5.53846e-05
-4.42011e-07
5.50588e-05
8.35368e-07
-5.56729e-05
-3.39982e-07
1.02136e-08
5.53414e-05
6.86856e-07
2.48534e-08
-4.19841e-07
7.90967e-07
-3.19107e-07
9.80414e-09
6.43535e-07
2.89239e-08
-5.27579e-05
5.24463e-05
-5.29693e-05
9.78912e-09
5.26485e-05
3.08745e-08
1.01551e-08
9.3234e-12
-5.58485e-05
-3.32698e-07
5.55138e-05
6.77588e-07
-5.58484e-05
-3.32752e-07
-1.01897e-08
5.55137e-05
6.77602e-07
4.41538e-11
-3.11213e-07
6.33616e-07
-3.11168e-07
-9.74033e-09
6.33618e-07
-2.19537e-10
-5.31053e-05
5.27826e-05
-5.31051e-05
-1.05642e-08
5.27826e-05
2.43724e-10
-9.36139e-09
-2.53612e-08
-5.56725e-05
-3.40256e-07
5.5341e-05
6.8685e-07
-5.5384e-05
-4.41647e-07
-9.30755e-08
5.50582e-05
8.35218e-07
-2.4963e-08
-3.18857e-07
6.43511e-07
-4.20006e-07
-9.26163e-08
7.90874e-07
-3.13928e-08
-5.29681e-05
5.26487e-05
-5.2758e-05
-1.60065e-07
5.24451e-05
-2.85625e-08
-1.59203e-07
1.01544e-07
-5.52659e-05
1.55815e-07
5.49423e-05
-2.67933e-08
-5.52269e-05
-6.62055e-07
5.48689e-05
1.12156e-06
1.00807e-07
1.78996e-07
-6.31654e-08
-6.44686e-07
1.08211e-06
3.08971e-07
-5.26273e-05
5.23141e-05
-5.25545e-05
5.22014e-05
3.0891e-07
-1.00472e-07
-5.44979e-05
-6.89663e-07
5.41024e-05
1.18564e-06
-5.46066e-05
1.05898e-07
9.19092e-08
5.4235e-05
7.33325e-08
-1.00112e-07
-6.70622e-07
1.14276e-06
1.3094e-07
9.17219e-08
1.37317e-08
-3.03219e-07
-5.18348e-05
5.14483e-05
-5.19857e-05
1.56649e-07
5.16318e-05
-3.03002e-07
1.57145e-07
2.60685e-08
-5.4716e-05
-4.78473e-07
5.43486e-05
9.11735e-07
-5.49937e-05
-3.77949e-07
1.08141e-08
5.4622e-05
7.649e-07
2.5422e-08
-4.54973e-07
8.6411e-07
-3.55341e-07
1.0439e-08
7.18063e-07
2.94652e-08
-5.21173e-05
5.1766e-05
-5.23135e-05
1.05212e-08
5.19545e-05
3.11494e-08
1.07715e-08
1.18068e-11
-5.51631e-05
-3.71474e-07
5.47885e-05
7.56793e-07
-5.51629e-05
-3.71506e-07
-1.07971e-08
5.47884e-05
7.5681e-07
4.56789e-11
-3.48381e-07
7.09551e-07
-3.48336e-07
-1.03708e-08
7.09556e-07
-1.2502e-10
-5.24448e-05
5.20839e-05
-5.24445e-05
-1.09807e-08
5.20839e-05
2.50686e-10
-9.97396e-09
-2.59472e-08
-5.49932e-05
-3.7812e-07
5.46216e-05
7.64899e-07
-5.47155e-05
-4.78208e-07
-9.18988e-08
5.4348e-05
9.11624e-07
-2.55401e-08
-3.5507e-07
7.18036e-07
-4.55154e-07
-9.16747e-08
8.64017e-07
-3.10956e-08
-5.23124e-05
5.19544e-05
-5.21174e-05
-1.57049e-07
5.17652e-05
-2.87612e-08
-1.56294e-07
1.00527e-07
-5.46059e-05
1.05953e-07
5.42343e-05
7.32543e-08
-5.4497e-05
-6.89721e-07
5.41015e-05
1.18576e-06
1.002e-07
1.30838e-07
1.36459e-08
-6.70731e-07
1.14289e-06
3.03173e-07
-5.19854e-05
5.16311e-05
-5.18339e-05
5.14474e-05
3.03288e-07
-9.86001e-08
-5.36915e-05
-7.20186e-07
5.32554e-05
1.25491e-06
-5.38435e-05
5.56347e-08
9.012e-08
5.34251e-05
1.74022e-07
-9.85587e-08
-6.9917e-07
1.20858e-06
8.09e-08
9.01089e-08
1.21966e-07
-2.97056e-07
-5.10462e-05
5.06231e-05
-5.12616e-05
1.54033e-07
5.08661e-05
-2.97068e-07
1.54046e-07
2.65306e-08
-5.39632e-05
-5.17432e-07
5.35517e-05
9.92495e-07
-5.42332e-05
-4.18425e-07
1.13854e-08
5.38188e-05
8.48023e-07
2.59931e-08
-4.92301e-07
9.41825e-07
-3.93941e-07
1.10039e-08
7.97704e-07
3.01372e-08
-5.13973e-05
5.10038e-05
-5.158e-05
1.12512e-08
5.11804e-05
3.04616e-08
1.10536e-08
2.04176e-11
-5.43972e-05
-4.12573e-07
5.39802e-05
8.40853e-07
-5.4397e-05
-4.12585e-07
-1.13541e-08
5.39801e-05
8.40872e-07
2.93173e-11
-3.87816e-07
7.90184e-07
-3.87805e-07
-1.09583e-08
7.90198e-07
-1.2444e-11
-5.17071e-05
5.13058e-05
-5.17069e-05
-1.13236e-08
5.13057e-05
9.13613e-11
-1.07624e-08
-2.64865e-08
-5.42328e-05
-4.18459e-07
5.38184e-05
8.48014e-07
-5.39626e-05
-5.17305e-07
-9.01034e-08
5.35512e-05
9.92397e-07
-2.60151e-08
-3.93842e-07
7.9769e-07
-4.92305e-07
-9.00829e-08
9.41733e-07
-3.05303e-08
-5.15793e-05
5.11801e-05
-5.1397e-05
-1.54048e-07
5.10032e-05
-2.95205e-08
-1.5368e-07
9.86668e-08
-5.38428e-05
5.56404e-08
5.34244e-05
1.73967e-07
-5.36906e-05
-7.20255e-07
5.32545e-05
1.25504e-06
9.86366e-08
8.08623e-08
1.21908e-07
-6.99253e-07
1.20872e-06
2.97111e-07
-5.12611e-05
5.08655e-05
-5.10454e-05
5.06222e-05
2.97216e-07
-9.65017e-08
-5.28031e-05
-7.53611e-07
5.23241e-05
1.3291e-06
-5.29871e-05
1.0166e-08
8.83282e-08
5.25175e-05
2.74656e-07
-9.66138e-08
-7.30994e-07
1.27989e-06
3.2179e-08
8.83502e-08
2.20809e-07
-2.90905e-07
-5.01832e-05
4.97205e-05
-5.0456e-05
1.51481e-07
5.00237e-05
-2.9106e-07
1.51265e-07
2.69421e-08
-5.31218e-05
-5.58816e-07
5.26645e-05
1.07748e-06
-5.33862e-05
-4.61245e-07
1.19022e-08
5.29264e-05
9.36084e-07
2.64768e-08
-5.32325e-07
1.0241e-06
-4.35244e-07
1.15379e-08
8.82753e-07
3.0371e-08
-5.05926e-05
5.01549e-05
-5.07639e-05
1.18062e-08
5.03212e-05
3.0151e-08
1.14678e-08
2.36754e-11
-5.35456e-05
-4.55936e-07
5.30838e-05
9.29556e-07
-5.35454e-05
-4.55944e-07
-1.18662e-08
5.30837e-05
9.29574e-07
2.4e-11
-4.29702e-07
8.75887e-07
-4.29707e-07
-1.15007e-08
8.75907e-07
1.97692e-11
-5.08875e-05
5.04434e-05
-5.08874e-05
-1.17832e-08
5.04432e-05
2.99279e-11
-1.13948e-08
-2.69132e-08
-5.33858e-05
-4.61247e-07
5.29261e-05
9.36078e-07
-5.31213e-05
-5.58724e-07
-8.83048e-08
5.2664e-05
1.07739e-06
-2.64578e-08
-4.35225e-07
8.82742e-07
-5.32252e-07
-8.83294e-08
1.024e-06
-3.0402e-08
-5.07634e-05
5.03208e-05
-5.05921e-05
-1.51399e-07
5.01544e-05
-2.99675e-08
-1.51125e-07
9.6567e-08
-5.29865e-05
1.01693e-08
5.25168e-05
2.74605e-07
-5.28022e-05
-7.53682e-07
5.23233e-05
1.32922e-06
9.66841e-08
3.21617e-08
2.20759e-07
-7.31068e-07
1.28002e-06
2.90986e-07
-5.04554e-05
5.00232e-05
-5.01823e-05
4.97196e-05
2.9115e-07
-9.45171e-08
-5.18283e-05
-7.8931e-07
5.13045e-05
1.40763e-06
-5.20315e-05
-5.00363e-08
8.68373e-08
5.15217e-05
3.78537e-07
-9.44703e-08
-7.65211e-07
1.35547e-06
-1.70433e-08
8.65862e-08
3.21939e-07
-2.84652e-07
-4.92403e-05
4.87356e-05
-4.95728e-05
1.48936e-07
4.90892e-05
-2.85025e-07
1.48828e-07
2.72875e-08
-5.21884e-05
-6.02134e-07
5.16837e-05
1.16637e-06
-5.2448e-05
-5.0598e-07
1.23833e-08
5.19408e-05
1.02805e-06
2.68605e-08
-5.74344e-07
1.11017e-06
-4.78589e-07
1.20282e-08
9.71877e-07
3.03851e-08
-4.96992e-05
4.92157e-05
-4.98608e-05
1.22697e-08
4.93729e-05
3.01097e-08
1.19275e-08
2.43541e-11
-5.26035e-05