/*--------------------------------*- C++ -*----------------------------------*\
  =========                 |
  \\      /  F ield         | OpenFOAM: The Open Source CFD Toolbox
   \\    /   O peration     | Website:  https://openfoam.org
    \\  /    A nd           | Version:  9
     \\/     M anipulation  |
\*---------------------------------------------------------------------------*/
FoamFile
{
    format      ascii;
    class       surfaceScalarField;
    location    "2.4";
    object      phi;
}
// * * * * * * * * * * * * * * * * * * * * * * * * * * * * * * * * * * * * * //

dimensions      [0 3 -1 0 0 0 0];

internalField   nonuniform List<scalar> 
104044
(
4.68539e-07
-6.58315e-05
-1.13423e-06
6.4712e-05
1.78519e-06
-4.5585e-05
-2.50737e-06
-1.7444e-07
4.81011e-05
6.34242e-07
2.51352e-07
-1.98462e-06
2.24765e-06
-2.07408e-06
-9.87393e-08
2.876e-07
2.17696e-09
-7.10548e-05
6.99184e-05
-4.19406e-05
1.42786e-08
3.94212e-05
3.46657e-08
-1.76536e-08
-9.55617e-09
-5.14312e-05
-2.43347e-06
5.19421e-05
1.75771e-06
-5.38223e-05
-8.36938e-07
-1.14849e-10
5.42032e-05
4.46682e-07
-5.13854e-09
-1.90354e-06
1.04262e-06
-1.07744e-06
1.27332e-10
2.91052e-07
-6.68089e-09
-5.50076e-05
5.25951e-05
-5.6273e-05
-3.8434e-09
5.54332e-05
-6.40365e-09
-1.30709e-09
1.69875e-12
-5.45837e-05
-5.1249e-07
5.50532e-05
4.28813e-08
-5.45834e-05
-5.1243e-07
1.21094e-10
5.50529e-05
4.28309e-08
1.2051e-12
-1.04443e-06
2.05733e-07
-1.04438e-06
-1.28313e-10
2.05689e-07
5.60194e-12
-5.54393e-05
5.4923e-05
-5.54392e-05
3.84935e-09
5.49229e-05
1.23829e-11
1.34587e-09
9.56543e-09
-5.38215e-05
-8.37246e-07
5.42022e-05
4.47106e-07
-5.143e-05
-2.43409e-06
1.74511e-07
5.19408e-05
1.7583e-06
5.14433e-09
-1.07751e-06
2.91194e-07
-1.90407e-06
9.87899e-08
1.04313e-06
6.68615e-09
-5.62722e-05
5.54321e-05
-5.50046e-05
-1.42999e-08
5.25915e-05
6.42359e-09
1.76291e-08
-4.68669e-07
-4.55844e-05
-2.50654e-06
4.81004e-05
6.33683e-07
-6.58321e-05
-1.13529e-06
6.47126e-05
1.78615e-06
-2.51444e-07
-2.07262e-06
2.8631e-07
-1.986e-06
2.2488e-06
-2.17939e-09
-4.19352e-05
3.94165e-05
-7.10612e-05
6.99237e-05
-3.46435e-08
3.83061e-07
-6.34809e-05
-1.77496e-06
6.23594e-05
2.51334e-06
-4.97331e-05
9.60971e-07
-1.07059e-07
5.06589e-05
-1.39659e-06
4.46426e-07
-1.46669e-06
2.25141e-06
-6.50784e-07
-1.48543e-07
-3.86232e-07
-2.87797e-07
-6.85767e-05
6.70895e-05
-3.85508e-05
1.89215e-07
3.90348e-05
-1.2504e-07
9.45058e-08
-1.52262e-08
-5.23839e-05
-1.93122e-06
5.25112e-05
1.71216e-06
-5.44024e-05
-1.13508e-06
-3.35773e-09
5.44414e-05
1.08422e-06
-1.13734e-08
-2.54563e-06
1.96658e-06
-1.12273e-06
-1.76321e-09
9.13873e-07
-7.22892e-09
-5.01505e-05
4.84157e-05
-5.43092e-05
-6.7364e-09
5.31737e-05
-6.48766e-09
-5.26262e-09
3.85766e-13
-5.53921e-05
-4.18257e-07
5.53978e-05
4.09243e-07
-5.53917e-05
-4.18367e-07
3.34841e-09
5.53972e-05
4.09462e-07
4.83581e-12
-3.99365e-07
5.86656e-08
-3.99446e-07
1.77285e-09
5.89085e-08
9.92135e-12
-5.45184e-05
5.40934e-05
-5.45182e-05
6.75169e-09
5.40931e-05
9.75805e-12
5.27226e-09
1.52686e-08
-5.44013e-05
-1.13523e-06
5.44402e-05
1.0844e-06
-5.23826e-05
-1.9311e-06
1.07074e-07
5.25098e-05
1.71215e-06
1.13873e-08
-1.12296e-06
9.14251e-07
-2.5457e-06
1.48585e-07
1.96672e-06
7.24072e-09
-5.43079e-05
5.31722e-05
-5.01469e-05
-1.89307e-07
4.84123e-05
6.4958e-09
-9.4567e-08
-3.83125e-07
-4.97321e-05
9.61895e-07
5.06579e-05
-1.39743e-06
-6.34813e-05
-1.77564e-06
6.23598e-05
2.51408e-06
-4.46512e-07
-6.49654e-07
-3.86961e-07
-1.46754e-06
2.25228e-06
2.87869e-07
-3.85472e-05
3.90319e-05
-6.85812e-05
6.70935e-05
1.25075e-07
1.87769e-07
-6.13887e-05
-2.06908e-06
6.05447e-05
2.72532e-06
-5.1304e-05
2.3236e-06
-6.82689e-09
5.1819e-05
-2.64403e-06
2.86334e-07
-1.93894e-06
2.62337e-06
1.81298e-06
-5.50185e-08
-2.11673e-06
-6.27283e-07
-6.56067e-05
6.41649e-05
-4.01116e-05
3.65446e-07
4.14425e-05
-4.56062e-07
2.80127e-07
-5.91913e-09
-5.24859e-05
-9.13477e-07
5.24455e-05
9.53043e-07
-5.43411e-05
-6.86097e-07
-1.25043e-08
5.41708e-05
8.6299e-07
-1.23639e-08
-1.31808e-06
1.30067e-06
-9.13985e-07
-6.21653e-09
1.00816e-06
5.93298e-09
-4.73806e-05
4.68266e-05
-5.2266e-05
-1.07644e-08
5.15966e-05
-2.80759e-09
-9.16855e-09
1.02192e-11
-5.52603e-05
-4.36957e-07
5.50819e-05
6.02893e-07
-5.52598e-05
-4.37047e-07
1.25249e-08
5.50814e-05
6.02963e-07
1.03495e-11
-4.63233e-07
5.94445e-07
-4.63339e-07
6.20916e-09
5.94593e-07
1.17298e-11
-5.36209e-05
5.31732e-05
-5.36206e-05
1.07901e-08
5.31727e-05
1.0091e-11
9.18598e-09
5.92814e-09
-5.43398e-05
-6.86195e-07
5.41695e-05
8.63088e-07
-5.24845e-05
-9.13328e-07
6.8207e-09
5.24441e-05
9.52856e-07
1.23311e-08
-9.14093e-07
1.00831e-06
-1.31791e-06
5.50187e-08
1.30045e-06
-5.92969e-09
-5.22645e-05
5.1595e-05
-4.73775e-05
-3.65583e-07
4.68238e-05
2.81472e-09
-2.80244e-07
-1.87806e-07
-5.1303e-05
2.32434e-06
5.18181e-05
-2.64478e-06
-6.13889e-05
-2.06962e-06
6.05448e-05
2.72592e-06
-2.86376e-07
1.81383e-06
-2.11758e-06
-1.9395e-06
2.62398e-06
6.27415e-07
-4.01093e-05
4.14407e-05
-6.56101e-05
6.41679e-05
4.56166e-07
-2.76278e-09
-5.98223e-05
-2.1536e-06
5.9189e-05
2.78962e-06
-5.22601e-05
2.69666e-06
8.81587e-08
5.26331e-05
-3.16064e-06
8.78475e-08
-2.104e-06
2.73858e-06
2.5551e-06
2.75222e-08
-2.93584e-06
-9.14725e-07
-6.28326e-05
6.15938e-05
-4.27969e-05
4.86348e-07
4.40925e-05
-7.7177e-07
4.28934e-07
1.49395e-08
-5.24334e-05
-4.37053e-07
5.24831e-05
4.60542e-07
-5.3997e-05
-3.67269e-07
-1.02036e-08
5.38473e-05
5.42167e-07
4.1594e-09
-6.25327e-07
6.60747e-07
-4.915e-07
-1.29371e-08
6.82336e-07
3.18775e-08
-4.66124e-05
4.66299e-05
-5.11326e-05
-9.28628e-09
5.08065e-05
1.7767e-08
-9.72563e-09
1.37544e-11
-5.48879e-05
-2.29262e-07
5.47063e-05
4.00659e-07
-5.48874e-05
-2.29331e-07
1.02379e-08
5.47058e-05
4.00707e-07
1.22403e-11
-3.20031e-07
5.01093e-07
-3.20111e-07
1.29624e-08
5.0115e-07
1.42108e-11
-5.28434e-05
5.26049e-05
-5.28429e-05
9.30797e-09
5.26043e-05
1.30301e-11
9.75916e-09
-1.49374e-08
-5.39958e-05
-3.67338e-07
5.38461e-05
5.42219e-07
-5.24321e-05
-4.36961e-07
-8.81671e-08
5.24819e-05
4.60386e-07
-4.15734e-09
-4.91585e-07
6.82406e-07
-6.25208e-07
-2.75282e-08
6.60567e-07
-3.18809e-08
-5.11309e-05
5.08048e-05
-4.66099e-05
-4.86505e-07
4.66276e-05
-1.77669e-08
-4.29082e-07
2.73785e-09
-5.22592e-05
2.69723e-06
5.26323e-05
-3.16123e-06
-5.98223e-05
-2.15411e-06
5.91889e-05
2.79019e-06
-8.78773e-08
2.55575e-06
-2.93651e-06
-2.10449e-06
2.73913e-06
9.14897e-07
-4.27954e-05
4.40913e-05
-6.28354e-05
6.15962e-05
7.71923e-07
-1.59609e-07
-5.86389e-05
-2.15305e-06
5.81496e-05
2.80193e-06
-5.29576e-05
2.72273e-06
1.33312e-07
5.32387e-05
-3.29679e-06
-8.4922e-08
-2.13599e-06
2.77098e-06
2.70396e-06
1.14478e-07
-3.22781e-06
-1.13077e-06
-6.0479e-05
5.94567e-05
-4.52547e-05
5.5339e-07
4.62933e-05
-1.02125e-06
5.20466e-07
3.97441e-08
-5.25672e-05
-2.44277e-07
5.26754e-05
2.29586e-07
-5.3734e-05
-2.29801e-07
-5.75266e-09
5.36505e-05
3.58757e-07
2.65515e-08
-3.12092e-07
3.15955e-07
-2.805e-07
-8.22035e-09
4.28551e-07
6.07444e-08
-4.67922e-05
4.70406e-05
-5.05799e-05
-5.59948e-09
5.04164e-05
4.60008e-08
-7.83334e-09
1.67577e-11
-5.45501e-05
-1.45519e-07
5.44163e-05
2.73568e-07
-5.45496e-05
-1.45562e-07
5.77832e-09
5.44158e-05
2.73602e-07
1.47663e-11
-1.70999e-07
3.18912e-07
-1.71053e-07
8.24285e-09
3.18954e-07
1.7793e-11
-5.2426e-05
5.22749e-05
-5.24254e-05
5.62726e-09
5.22742e-05
1.55269e-11
7.85731e-09
-3.97493e-08
-5.37329e-05
-2.29831e-07
5.36495e-05
3.58776e-07
-5.25661e-05
-2.4423e-07
-1.33313e-07
5.26744e-05
2.29477e-07
-2.6553e-08
-2.80551e-07
4.28585e-07
-3.12021e-07
-1.14484e-07
3.1582e-07
-6.07508e-08
-5.05781e-05
5.04146e-05
-4.67902e-05
-5.53554e-07
4.70388e-05
-4.60066e-08
-5.20626e-07
1.59592e-07
-5.29568e-05
2.7232e-06
5.32379e-05
-3.29726e-06
-5.86388e-05
-2.15353e-06
5.81494e-05
2.80246e-06
8.49015e-08
2.70448e-06
-3.22833e-06
-2.13645e-06
2.7715e-06
1.13097e-06
-4.52537e-05
4.62924e-05
-6.04811e-05
5.94586e-05
1.02144e-06
-2.80751e-07
-5.7717e-05
-2.1213e-06
5.73249e-05
2.79413e-06
-5.34736e-05
2.63382e-06
1.49891e-07
5.36658e-05
-3.25669e-06
-2.22169e-07
-2.11616e-06
2.77095e-06
2.65716e-06
1.42709e-07
-3.25693e-06
-1.28258e-06
-5.85423e-05
5.77035e-05
-4.71831e-05
5.87024e-07
4.79473e-05
-1.20168e-06
5.65656e-07
8.0375e-08
-5.27922e-05
-2.0377e-07
5.2902e-05
1.63403e-07
-5.35904e-05
-1.72019e-07
1.48142e-09
5.35515e-05
2.89898e-07
5.43553e-08
-2.08762e-07
1.80401e-07
-1.93846e-07
-2.39632e-09
3.10698e-07
8.64043e-08
-4.73241e-05
4.76209e-05
-5.02985e-05
9.87215e-10
5.02119e-05
7.34048e-08
-2.5271e-09
2.19211e-11
-5.43029e-05
-1.37328e-07
5.42023e-05
2.39364e-07
-5.43024e-05
-1.37348e-07
-1.4426e-09
5.42019e-05
2.39377e-07
1.93381e-11
-1.35257e-07
2.46268e-07
-1.35289e-07
2.42669e-09
2.46293e-07
2.15569e-11
-5.21371e-05
5.20007e-05
-5.21364e-05
-9.4074e-10
5.2e-05
2.06929e-11
2.56112e-09
-8.0396e-08
-5.35894e-05
-1.71992e-07
5.35505e-05
2.89883e-07
-5.27911e-05
-2.03763e-07
-1.49874e-07
5.29011e-05
1.63315e-07
-5.43781e-08
-1.93847e-07
3.10701e-07
-2.08735e-07
-1.42702e-07
1.80302e-07
-8.63766e-08
-5.02968e-05
5.02102e-05
-4.73224e-05
-5.87143e-07
4.76194e-05
-7.34069e-08
-5.65817e-07
2.8074e-07
-5.34728e-05
2.63426e-06
5.3665e-05
-3.2571e-06
-5.77168e-05
-2.12173e-06
5.73246e-05
2.79459e-06
2.22155e-07
2.65761e-06
-3.25737e-06
-2.11657e-06
2.77142e-06
1.2828e-06
-4.71823e-05
4.79466e-05
-5.85439e-05
5.7705e-05
1.20188e-06
-3.70464e-07
-5.69709e-05
-2.07289e-06
5.66437e-05
2.77052e-06
-5.38162e-05
2.50879e-06
1.49668e-07
5.39291e-05
-3.14175e-06
-3.25773e-07
-2.07477e-06
2.75458e-06
2.5448e-06
1.49841e-07
-3.17082e-06
-1.38236e-06
-5.6953e-05
5.62625e-05
-4.8577e-05
6.01751e-07
4.91017e-05
-1.32422e-06
5.90846e-07
1.10624e-07
-5.30023e-05
-2.27695e-07
5.30899e-05
1.79162e-07
-5.35211e-05
-1.46582e-07
9.48024e-09
5.34936e-05
2.75319e-07
9.59e-08
-2.09746e-07
1.6338e-07
-1.55087e-07
5.44284e-09
2.75851e-07
1.03279e-07
-4.79056e-05
4.81764e-05
-5.01485e-05
8.11218e-09
5.00971e-05
9.64037e-08
4.70479e-09
-1.93864e-11
-5.41115e-05
-1.48545e-07
5.40243e-05
2.45242e-07
-5.4111e-05
-1.48618e-07
-9.49441e-09
5.40239e-05
2.45245e-07
1.61179e-11
-1.40892e-07
2.3714e-07
-1.40911e-07
-5.4002e-09
2.37143e-07
-3.22438e-10
-5.18645e-05
5.17244e-05
-5.18637e-05
-9.03821e-09
5.17238e-05
-8.38377e-12
-4.68579e-09
-1.10424e-07
-5.35202e-05
-1.46894e-07
5.34927e-05
2.75316e-07
-5.30014e-05
-2.27295e-07
-1.49695e-07
5.30889e-05
1.79065e-07
-9.587e-08
-1.55066e-07
2.75826e-07
-2.09709e-07
-1.49815e-07
1.63289e-07
-1.05473e-07
-5.01466e-05
5.00962e-05
-4.79045e-05
-6.02696e-07
4.81745e-05
-9.61623e-08
-5.90964e-07
3.70409e-07
-5.38155e-05
2.50935e-06
5.39282e-05
-3.14219e-06
-5.69705e-05
-2.0732e-06
5.66433e-05
2.77088e-06
3.25759e-07
2.54525e-06
-3.17124e-06
-2.07511e-06
2.75495e-06
1.38231e-06
-4.85764e-05
4.91008e-05
-5.69543e-05
5.62634e-05
1.32442e-06
-4.34576e-07
-5.63418e-05
-2.01654e-06
5.60577e-05
2.73529e-06
-5.40068e-05
2.37951e-06
1.47777e-07
5.40503e-05
-3.00542e-06
-4.01366e-07
-2.02312e-06
2.72638e-06
2.41836e-06
1.46468e-07
-3.04393e-06
-1.44349e-06
-5.56423e-05
5.50692e-05
-4.95191e-05
6.02032e-07
4.98531e-05
-1.40293e-06
5.98064e-07
1.31776e-07
-5.31609e-05
-2.69199e-07
5.32165e-05
2.29628e-07
-5.34659e-05
-1.36265e-07
1.70897e-08
5.34345e-05
2.82324e-07
1.20778e-07
-2.45574e-07
2.00297e-07
-1.39014e-07
1.32986e-08
2.74155e-07
1.12278e-07
-4.84199e-05
4.86404e-05
-5.00544e-05
1.57882e-08
5.00146e-05
1.09008e-07
1.26593e-08
-5.64036e-12
-5.39394e-05
-1.59336e-07
5.38534e-05
2.62496e-07
-5.39391e-05
-1.59347e-07
-1.71547e-08
5.38531e-05
2.62476e-07
4.9722e-11
-1.53013e-07
2.51088e-07
-1.52941e-07
-1.32333e-08
2.51063e-07
-1.0267e-10
-5.15838e-05
5.14403e-05
-5.1583e-05
-1.61389e-08
5.14397e-05
2.97137e-10
-1.17906e-08
-1.31741e-07
-5.3465e-05
-1.36327e-07
5.34336e-05
2.82304e-07
-5.316e-05
-2.69074e-07
-1.4776e-07
5.32156e-05
2.29564e-07
-1.20959e-07
-1.38666e-07
2.74101e-07
-2.45902e-07
-1.46407e-07
2.0024e-07
-1.13328e-07
-5.00526e-05
5.00135e-05
-4.84191e-05
-6.0249e-07
4.86392e-05
-1.06906e-07
-5.97461e-07
4.34551e-07
-5.4006e-05
2.37996e-06
5.40495e-05
-3.0058e-06
-5.63414e-05
-2.01688e-06
5.60572e-05
2.73565e-06
4.01383e-07
2.41868e-06
-3.04429e-06
-2.02349e-06
2.72674e-06
1.44363e-06
-4.95186e-05
4.98525e-05
-5.56433e-05
5.507e-05
1.40338e-06
-4.78464e-07
-5.57902e-05
-1.95725e-06
5.5534e-05
2.69197e-06
-5.4065e-05
2.25663e-06
1.44238e-07
5.40514e-05
-2.86575e-06
-4.54095e-07
-1.96456e-06
2.68609e-06
2.2915e-06
1.45031e-07
-2.90527e-06
-1.47598e-06
-5.45526e-05
5.40714e-05
-5.01041e-05
5.92975e-07
5.02917e-05
-1.44796e-06
5.9255e-07
1.45867e-07
-5.32532e-05
-3.12192e-07
5.32714e-05
2.92353e-07
-5.33981e-05
-1.34958e-07
2.14489e-08
5.33546e-05
3.02818e-07
1.38298e-07
-2.88281e-07
2.58292e-07
-1.33507e-07
1.97858e-08
2.88453e-07
1.17494e-07
-4.88298e-05
4.89931e-05
-4.99768e-05
2.17231e-08
4.99376e-05
1.14889e-07
1.92266e-08
-9.26505e-11
-5.37661e-05
-1.66135e-07
5.36743e-05
2.79471e-07
-5.37656e-05
-1.66153e-07
-2.17858e-08
5.3674e-05
2.79485e-07
2.54721e-10
-1.61503e-07
2.68354e-07
-1.61551e-07
-1.8992e-08
2.68264e-07
-1.85137e-10
-5.1298e-05
5.11538e-05
-5.12973e-05
-2.25023e-08
5.11534e-05
4.26053e-11
-1.91063e-08
-1.45937e-07
-5.33975e-05
-1.35014e-07
5.33539e-05
3.02738e-07
-5.32524e-05
-3.12093e-07
-1.44255e-07
5.32706e-05
2.92281e-07
-1.38121e-07
-1.33265e-07
2.88531e-07
-2.88317e-07
-1.4492e-07
2.5826e-07
-1.18625e-07
-4.99755e-05
4.99366e-05
-4.88291e-05
-5.93451e-07
4.89918e-05
-1.14362e-07
-5.92532e-07
4.78424e-07
-5.40642e-05
2.25707e-06
5.40506e-05
-2.86614e-06
-5.57898e-05
-1.95757e-06
5.55335e-05
2.69229e-06
4.54105e-07
2.29192e-06
-2.90565e-06
-1.96486e-06
2.6864e-06
1.47612e-06
-5.01036e-05
5.02911e-05
-5.45534e-05
5.40719e-05
1.44823e-06
-5.07334e-07
-5.52882e-05
-1.90139e-06
5.50482e-05
2.64874e-06
-5.40148e-05
2.14648e-06
1.38285e-07
5.39549e-05
-2.73219e-06
-4.89809e-07
-1.90864e-06
2.6442e-06
2.17785e-06
1.40171e-07
-2.77123e-06
-1.48927e-06
-5.36331e-05
5.32209e-05
-5.04176e-05
5.79065e-07
5.04958e-05
-1.47036e-06
5.81638e-07
1.54696e-07
-5.3271e-05
-3.53353e-07
5.32525e-05
3.55434e-07
-5.33035e-05
-1.4114e-07
2.52281e-08
5.32427e-05
3.31396e-07
1.49315e-07
-3.2989e-07
3.21103e-07
-1.35982e-07
2.31563e-08
3.1332e-07
1.19116e-07
-4.9125e-05
4.92316e-05
-4.98967e-05
2.36276e-08
4.98511e-05
1.19868e-07
2.47544e-08
-1.55749e-11
-5.3579e-05
-1.71048e-07
5.34775e-05
2.97779e-07
-5.35787e-05
-1.71375e-07
-2.4968e-08
5.34772e-05
2.97768e-07
1.75171e-11
-1.67202e-07
2.85616e-07
-1.66956e-07
-2.33125e-08
2.85594e-07
-9.80544e-10
-5.10107e-05
5.08642e-05
-5.10095e-05
-2.72348e-08
5.08644e-05
6.6274e-10
-2.23954e-08
-1.54547e-07
-5.33027e-05
-1.41073e-07
5.3242e-05
3.31358e-07
-5.32704e-05
-3.529e-07
-1.38323e-07
5.32517e-05
3.55349e-07
-1.49504e-07
-1.35905e-07
3.13253e-07
-3.30274e-07
-1.40113e-07
3.21069e-07
-1.22692e-07
-4.98956e-05
4.985e-05
-4.91251e-05
-5.80374e-07
4.92299e-05
-1.17381e-07
-5.80949e-07
5.07261e-07
-5.40141e-05
2.14706e-06
5.39541e-05
-2.73261e-06
-5.52878e-05
-1.90167e-06
5.50477e-05
2.64903e-06
4.89816e-07
2.17815e-06
-2.77159e-06
-1.90898e-06
2.64449e-06
1.48915e-06
-5.04175e-05
5.0495e-05
-5.36338e-05
5.32213e-05
1.47083e-06
-5.24738e-07
-5.4814e-05
-1.85302e-06
5.45814e-05
2.61042e-06
-5.38764e-05
2.04895e-06
1.31273e-07
5.37778e-05
-2.60636e-06
-5.12091e-07
-1.856e-06
2.60224e-06
2.07419e-06
1.33587e-07
-2.64136e-06
-1.48846e-06
-5.28402e-05
5.24757e-05
-5.05276e-05
5.63568e-07
5.05246e-05
-1.4753e-06
5.67007e-07
1.59289e-07
-5.32162e-05
-3.92016e-07
5.31617e-05
4.18557e-07
-5.31726e-05
-1.52911e-07
2.78615e-08
5.30909e-05
3.65987e-07
1.55692e-07
-3.69051e-07
3.83266e-07
-1.44923e-07
2.61076e-08
3.44631e-07
1.20461e-07
-4.93073e-05
4.93584e-05
-4.97996e-05
2.66263e-08
4.97405e-05
1.22284e-07
2.88574e-08
-6.78297e-12
-5.33709e-05
-1.76536e-07
5.32561e-05
3.19228e-07
-5.33706e-05
-1.76794e-07
-2.76556e-08
5.32558e-05
3.19221e-07
3.35393e-11
-1.72293e-07
3.0498e-07
-1.71872e-07
-2.64265e-08
3.04957e-07
-8.09594e-10
-5.07196e-05
5.05705e-05
-5.07184e-05
-2.95835e-08
5.05704e-05
1.22195e-09
-2.46232e-08
-1.59203e-07
-5.31719e-05
-1.52784e-07
5.30903e-05
3.65944e-07
-5.32156e-05
-3.91702e-07
-1.31296e-07
5.31609e-05
4.1848e-07
-1.55922e-07
-1.44978e-07
3.44579e-07
-3.69631e-07
-1.33492e-07
3.83261e-07
-1.23112e-07
-4.97989e-05
4.97396e-05
-4.93076e-05
-5.64562e-07
4.93574e-05
-1.18458e-07
-5.65854e-07
5.2468e-07
-5.38758e-05
2.04947e-06
5.37771e-05
-2.60677e-06
-5.48136e-05
-1.8533e-06
5.45809e-05
2.61069e-06
5.12123e-07
2.07442e-06
-2.6417e-06
-1.85635e-06
2.60252e-06
1.48844e-06
-5.05277e-05
5.05241e-05
-5.28408e-05
5.2476e-05
1.47592e-06
-5.33888e-07
-5.43499e-05
-1.812e-06
5.41165e-05
2.57937e-06
-5.36637e-05
1.96089e-06
1.24093e-07
5.35309e-05
-2.4861e-06
-5.25135e-07
-1.81182e-06
2.56841e-06
1.98373e-06
1.26481e-07
-2.52124e-06
-1.47848e-06
-5.2134e-05
5.18005e-05
-5.04874e-05
5.47755e-07
5.0422e-05
-1.47017e-06
5.50754e-07
1.60901e-07
-5.309e-05
-4.28648e-07
5.30003e-05
4.81556e-07
-5.29986e-05
-1.69821e-07
2.96499e-08
5.28933e-05
4.06418e-07
1.58833e-07
-4.06812e-07
4.46119e-07
-1.59243e-07
2.85069e-08
3.81848e-07
1.2117e-07
-4.93813e-05
4.93793e-05
-4.96731e-05
2.95935e-08
4.95948e-05
1.2097e-07
2.91795e-08
1.30733e-11
-5.31345e-05
-1.84797e-07
5.3003e-05
3.45932e-07
-5.31342e-05
-1.84795e-07
-2.96323e-08
5.30028e-05
3.45919e-07
2.58512e-11
-1.78645e-07
3.28695e-07
-1.7855e-07
-2.85315e-08
3.28677e-07
-1.70113e-11
-5.04208e-05
5.02656e-05
-5.04202e-05
-2.97753e-08
5.02652e-05
2.63607e-10
-2.81324e-08
-1.60922e-07
-5.29981e-05
-1.6978e-07
5.28927e-05
4.06383e-07
-5.30894e-05
-4.28677e-07
-1.24063e-07
5.29997e-05
4.81512e-07
-1.5888e-07
-1.59208e-07
3.81808e-07
-4.06943e-07
-1.26435e-07
4.46073e-07
-1.21378e-07
-4.96723e-05
4.95942e-05
-4.9381e-05
-5.47931e-07
4.93789e-05
-1.20055e-07
-5.50628e-07
5.33871e-07
-5.3663e-05
1.9613e-06
5.35303e-05
-2.48649e-06
-5.43495e-05
-1.8123e-06
5.4116e-05
2.57964e-06
5.25124e-07
1.98412e-06
-2.52163e-06
-1.81209e-06
2.56866e-06
1.47871e-06
-5.04872e-05
5.04218e-05
-5.21344e-05
5.18008e-05
1.47047e-06
-5.37121e-07
-5.38808e-05
-1.77915e-06
5.36395e-05
2.55753e-06
-5.33849e-05
1.8785e-06
1.17194e-07
5.32204e-05
-2.36835e-06
-5.30825e-07
-1.77471e-06
2.54121e-06
1.89838e-06
1.19408e-07
-2.40261e-06
-1.4621e-06
-5.14822e-05
5.11652e-05
-5.03296e-05
5.31725e-07
5.02143e-05
-1.45642e-06
5.34343e-07
1.60476e-07
-5.28941e-05
-4.62524e-07
5.27695e-05
5.43798e-07
-5.27761e-05
-1.91544e-07
3.08392e-08
5.2644e-05
4.53254e-07
1.593e-07
-4.41482e-07
5.07806e-07
-1.78312e-07
3.00204e-08
4.24776e-07
1.19839e-07
-4.93527e-05
4.9302e-05
-4.9506e-05
3.07497e-08
4.94035e-05
1.1946e-07
3.00039e-08
1.36629e-11
-5.28633e-05
-1.96535e-07
5.27118e-05
3.78781e-07
-5.28631e-05
-1.96522e-07
-3.0827e-08
5.27116e-05
3.78771e-07
1.38286e-11
-1.88317e-07
3.58045e-07
-1.88302e-07
-3.00081e-08
3.58033e-07
1.39126e-11
-5.01072e-05
4.99414e-05
-5.01069e-05
-3.07393e-08
4.99411e-05
1.65185e-11
-2.99706e-08
-1.60499e-07
-5.27756e-05
-1.91507e-07
5.26435e-05
4.53223e-07
-5.28935e-05
-4.6257e-07
-1.17164e-07
5.2769e-05
5.4376e-07
-1.59324e-07
-1.78272e-07
4.24743e-07
-4.41528e-07
-1.19377e-07
5.07764e-07
-1.19861e-07
-4.95054e-05
4.9403e-05
-4.93524e-05
-5.31856e-07
4.93018e-05
-1.19459e-07
-5.34473e-07
5.37107e-07
-5.33843e-05
1.8789e-06
5.32199e-05
-2.36873e-06
-5.38803e-05
-1.77943e-06
5.36391e-05
2.55778e-06
5.3081e-07
1.89879e-06
-2.403e-06
-1.77496e-06
2.54144e-06
1.46234e-06
-5.03295e-05
5.02142e-05
-5.14825e-05
5.11654e-05
1.45665e-06
-5.36412e-07
-5.3393e-05
-1.75466e-06
5.31378e-05
2.54628e-06
-5.30436e-05
1.80062e-06
1.10893e-07
5.2848e-05
-2.25237e-06
-5.31779e-07
-1.74608e-06
2.52436e-06
1.81887e-06
1.12822e-07
-2.28664e-06
-1.44204e-06
-5.0857e-05
5.05444e-05
-5.00766e-05
5.16431e-07
4.99187e-05
-1.43788e-06
5.18726e-07
1.58641e-07
-5.26293e-05
-4.95116e-07
5.24701e-05
6.06582e-07
-5.2499e-05
-2.17407e-07
3.15181e-08
5.23376e-05
5.0592e-07
1.58096e-07
-4.74566e-07
5.6951e-07
-2.02091e-07
3.09207e-08
4.74309e-07
1.17807e-07
-4.92285e-05
4.9132e-05
-4.92883e-05
3.13151e-08
4.91574e-05
1.17695e-07
3.07756e-08
1.31905e-11
-5.25508e-05
-2.12546e-07
5.23758e-05
4.19083e-07
-5.25506e-05
-2.12533e-07
-3.15063e-08
5.23756e-05
4.19072e-07
1.32765e-11
-2.01881e-07
3.93838e-07
-2.01868e-07
-3.09087e-08
3.93827e-07
1.3567e-11
-4.97703e-05
4.95891e-05
-4.977e-05
-3.13039e-08
4.95888e-05
1.36295e-11
-3.07642e-08
-1.58664e-07
-5.24985e-05
-2.17374e-07
5.23372e-05
5.05894e-07
-5.26288e-05
-4.95166e-07
-1.10863e-07
5.24696e-05
6.06548e-07
-1.58119e-07
-2.02056e-07
4.74281e-07
-4.74612e-07
-1.12792e-07
5.69472e-07
-1.17828e-07
-4.92879e-05
4.9157e-05
-4.92283e-05
-5.1656e-07
4.91319e-05
-1.17716e-07
-5.18855e-07
5.36402e-07
-5.30431e-05
1.80101e-06
5.28475e-05
-2.25275e-06
-5.33926e-05
-1.75493e-06
5.31374e-05
2.54652e-06
5.31768e-07
1.81928e-06
-2.28702e-06
-1.74632e-06
2.52458e-06
1.44228e-06
-5.00765e-05
4.99187e-05
-5.08571e-05
5.05445e-05
1.43811e-06
-5.32388e-07
-5.28748e-05
-1.73547e-06
5.26004e-05
2.54225e-06
-5.26404e-05
1.72336e-06
1.05183e-07
5.24136e-05
-2.1341e-06
-5.29307e-07
-1.72461e-06
2.51689e-06
1.74229e-06
1.06872e-07
-2.17085e-06
-1.41799e-06
-5.02356e-05
4.99182e-05
-4.97414e-05
5.01443e-07
4.95453e-05
-1.41591e-06
5.03719e-07
1.55663e-07
-5.22953e-05
-5.26442e-07
5.21008e-05
6.70479e-07
-5.21626e-05
-2.45939e-07
3.17522e-08
5.19697e-05
5.6268e-07
1.55658e-07
-5.06027e-07
6.32047e-07
-2.29049e-07
3.13622e-08
5.28379e-07
1.1525e-07
-4.90143e-05
4.8874e-05
-4.90127e-05
3.14565e-08
4.88505e-05
1.15397e-07
3.11135e-08
1.27681e-11
-5.21894e-05
-2.33187e-07
5.19869e-05
4.67346e-07
-5.21892e-05
-2.33174e-07
-3.17407e-08
5.19868e-05
4.67335e-07
1.28463e-11
-2.20044e-07
4.37803e-07
-2.20031e-07
-3.13506e-08
4.37792e-07
1.31901e-11
-4.94001e-05
4.91984e-05
-4.93999e-05
-3.14456e-08
4.91982e-05
1.32441e-11
-3.11025e-08
-1.55684e-07
-5.21622e-05
-2.4591e-07
5.19694e-05
5.62656e-07
-5.22948e-05
-5.26495e-07
-1.05153e-07
5.21003e-05
6.7045e-07
-1.5568e-07
-2.29018e-07
5.28355e-07
-5.06075e-07
-1.06842e-07
6.32013e-07
-1.1527e-07
-4.90123e-05
4.88503e-05
-4.90142e-05
-5.0157e-07
4.88741e-05
-1.15417e-07
-5.03846e-07
5.32381e-07
-5.264e-05
1.72374e-06
5.24132e-05
-2.13448e-06
-5.28745e-05
-1.73573e-06
5.26001e-05
2.54248e-06
5.29298e-07
1.74269e-06
-2.17124e-06
-1.72484e-06
2.5171e-06
1.41823e-06
-4.97414e-05
4.95453e-05
-5.02358e-05
4.99183e-05
1.41614e-06
-5.26585e-07
-5.2316e-05
-1.72319e-06
5.20175e-05
2.54826e-06
-5.21743e-05
1.64766e-06
1.00185e-07
5.19148e-05
-2.01487e-06
-5.24461e-07
-1.70952e-06
2.51847e-06
1.66713e-06
1.01598e-07
-2.05392e-06
-1.39266e-06
-4.96003e-05
4.92698e-05
-4.93313e-05
4.87428e-07
4.90989e-05
-1.39166e-06
4.8947e-07
1.52123e-07
-5.18904e-05
-5.57913e-07
5.16594e-05
7.37e-07
-5.17622e-05
-2.77247e-07
3.16664e-08
5.15354e-05
6.24556e-07
1.52425e-07
-5.37144e-07
6.96665e-07
-2.58729e-07
3.14318e-08
5.87199e-07
1.12487e-07
-4.87136e-05
4.85306e-05
-4.86735e-05
3.13017e-08
4.84774e-05
1.1277e-07
3.11032e-08
1.23625e-11
-5.17716e-05
-2.58422e-07
5.15382e-05
5.23456e-07
-5.17714e-05
-2.5841e-07
-3.16553e-08
5.15381e-05
5.23445e-07
1.24423e-11
-2.42835e-07
4.89606e-07
-2.42823e-07
-3.14205e-08
4.89595e-07
1.28275e-11
-4.89866e-05
4.87595e-05
-4.89864e-05
-3.12911e-08
4.87593e-05
1.28817e-11
-3.10925e-08
-1.52143e-07
-5.17619e-05
-2.77219e-07
5.15351e-05
6.24533e-07
-5.189e-05
-5.57968e-07
-1.00156e-07
5.1659e-05
7.36977e-07
-1.52445e-07
-2.58701e-07
5.87175e-07
-5.37195e-07
-1.01569e-07
6.96637e-07
-1.12506e-07
-4.86732e-05
4.84772e-05
-4.87137e-05
-4.87552e-07
4.85307e-05
-1.12789e-07
-4.89594e-07
5.2658e-07
-5.21739e-05
1.64804e-06
5.19144e-05
-2.01525e-06
-5.23156e-05
-1.72344e-06
5.20172e-05
2.54848e-06
5.24455e-07
1.66752e-06
-2.05431e-06
-1.70974e-06
2.51866e-06
1.39289e-06
-4.93314e-05
4.9099e-05
-4.96004e-05
4.92699e-05
1.39189e-06
-5.194e-07
-5.17069e-05
-1.71648e-06
5.13798e-05
2.56292e-06
-5.16422e-05
1.5716e-06
9.58039e-08
5.13479e-05
-1.89249e-06
-5.17973e-07
-1.70025e-06
2.52881e-06
1.59217e-06
9.69631e-08
-1.9345e-06
-1.36613e-06
-4.89355e-05
4.85851e-05
-4.88491e-05
4.74144e-07
4.85805e-05
-1.36593e-06
4.75968e-07
1.48223e-07
-5.14122e-05
-5.89863e-07
5.11431e-05
8.06504e-07
-5.1293e-05
-3.11161e-07
3.13248e-08
5.10295e-05
6.91494e-07
1.48716e-07
-5.68478e-07
7.63929e-07
-2.91025e-07
3.1212e-08
6.50955e-07
1.09589e-07
-4.83282e-05
4.81029e-05
-4.82655e-05
3.0913e-08
4.8033e-05
1.09956e-07
3.08263e-08
1.1971e-11
-5.12905e-05
-2.87871e-07
5.10228e-05
5.86914e-07
-5.12904e-05
-2.8786e-07
-3.1314e-08
5.10227e-05
5.86905e-07
1.20414e-11
-2.69943e-07
5.48846e-07
-2.69931e-07
-3.12011e-08
5.48836e-07
1.24926e-11
-4.85204e-05
4.82634e-05
-4.85202e-05
-3.09026e-08
4.82633e-05
1.25325e-11
-3.08159e-08
-1.48242e-07
-5.12927e-05
-3.11136e-07
5.10293e-05
6.91472e-07
-5.14118e-05
-5.8992e-07
-9.57747e-08
5.11428e-05
8.06484e-07
-1.48736e-07
-2.90998e-07
6.50933e-07
-5.68531e-07
-9.6934e-08
7.63906e-07
-1.09607e-07
-4.82654e-05
4.8033e-05
-4.83283e-05
-4.74266e-07
4.81031e-05
-1.09975e-07
-4.76089e-07
5.19398e-07
-5.16418e-05
1.57197e-06
5.13475e-05
-1.89287e-06
-5.17066e-05
-1.71672e-06
5.13796e-05
2.56314e-06
5.1797e-07
1.59256e-06
-1.93488e-06
-1.70046e-06
2.529e-06
1.36636e-06
-4.88493e-05
4.85806e-05
-4.89356e-05
4.85852e-05
1.36616e-06
-5.11263e-07
-5.10389e-05
-1.71481e-06
5.06791e-05
2.58581e-06
-5.10396e-05
1.49462e-06
9.19765e-08
5.07081e-05
-1.76633e-06
-5.10352e-07
-1.69623e-06
2.54754e-06
1.51646e-06
9.29086e-08
-1.8115e-06
-1.33885e-06
-4.82282e-05
4.78522e-05
-4.82945e-05
4.61534e-07
4.79887e-05
-1.33927e-06
4.63164e-07
1.44137e-07
-5.08574e-05
-6.2275e-07
5.05484e-05
8.79547e-07
-5.07496e-05
-3.47653e-07
3.07901e-08
5.0447e-05
7.63624e-07
1.44749e-07
-6.00527e-07
8.34442e-07
-3.25884e-07
3.07718e-08
7.19802e-07
1.06637e-07
-4.78584e-05
4.75906e-05
-4.77838e-05
3.03501e-08
4.75125e-05
1.07054e-07
3.03491e-08
1.16001e-11
-5.07394e-05
-3.2126e-07
5.0434e-05
6.57403e-07
-5.07393e-05
-3.2125e-07
-3.07795e-08
5.0434e-05
6.57394e-07
1.16655e-11
-3.01088e-07
6.1521e-07
-3.01077e-07
-3.07612e-08
6.15201e-07
1.21856e-11
-4.79927e-05
4.77017e-05
-4.79926e-05
-3.03398e-08
4.77017e-05
1.22147e-11
-3.03389e-08
-1.44155e-07
-5.07494e-05
-3.4763e-07
5.04468e-05
7.63606e-07
-5.08571e-05
-6.22808e-07
-9.19474e-08
5.05482e-05
8.79528e-07
-1.44767e-07
-3.2586e-07
7.19782e-07
-6.00581e-07
-9.28797e-08
8.34421e-07
-1.06655e-07
-4.77838e-05
4.75125e-05
-4.78587e-05
-4.61652e-07
4.75909e-05
-1.07072e-07
-4.63283e-07
5.11263e-07
-5.10393e-05
1.49499e-06
5.07078e-05
-1.7667e-06
-5.10386e-05
-1.71504e-06
5.06789e-05
2.58602e-06
5.10351e-07
1.51684e-06
-1.81187e-06
-1.69644e-06
2.54772e-06
1.33908e-06
-4.82947e-05
4.7989e-05
-4.82283e-05
4.78523e-05
1.3395e-06
-5.02364e-07
-5.0304e-05
-1.71727e-06
4.99079e-05
2.61578e-06
-5.03621e-05
1.41666e-06
8.86227e-08
4.99913e-05
-1.63686e-06
-5.0175e-07
-1.69622e-06
2.57309e-06
1.43939e-06
8.93357e-08
-1.68444e-06
-1.31085e-06
-4.74675e-05
4.70611e-05
-4.76658e-05
4.49433e-07
4.73221e-05
-1.31152e-06
4.50818e-07
1.39941e-07
-5.02223e-05
-6.56745e-07
4.98715e-05
9.56183e-07
-5.0127e-05
-3.8661e-07
3.01054e-08
4.97827e-05
8.40781e-07
1.406e-07
-6.33429e-07
9.0827e-07
-3.63147e-07
3.01545e-08
7.93509e-07
1.03658e-07
-4.73039e-05
4.69929e-05
-4.72237e-05
2.96533e-08
4.69111e-05
1.04085e-07
2.97125e-08
1.12353e-11
-5.0112e-05
-3.58244e-07
4.97659e-05
7.34411e-07
-5.01119e-05
-3.58235e-07
-3.00951e-08
4.97658e-05
7.34404e-07
1.12979e-11
-3.35872e-07
6.88103e-07
-3.35863e-07
-3.01442e-08
6.88095e-07
1.18922e-11
-4.73956e-05
4.7067e-05
-4.73955e-05
-2.96432e-08
4.70669e-05
1.19132e-11
-2.97025e-08
-1.39959e-07
-5.01269e-05
-3.8659e-07
4.97826e-05
8.40765e-07
-5.02221e-05
-6.56803e-07
-8.85938e-08
4.98714e-05
9.56165e-07
-1.40618e-07
-3.63126e-07
7.93491e-07
-6.33484e-07
-8.9307e-08
9.0825e-07
-1.03676e-07
-4.72238e-05
4.69112e-05
-4.73042e-05
-4.49549e-07
4.69933e-05
-1.04103e-07
-4.50934e-07
5.02366e-07
-5.03618e-05
1.41702e-06
4.99911e-05
-1.63723e-06
-5.03038e-05
-1.7175e-06
4.99077e-05
2.61598e-06
5.01751e-07
1.43976e-06
-1.68481e-06
-1.69642e-06
2.57327e-06
1.31107e-06
-4.7666e-05
4.73224e-05
-4.74676e-05
4.70612e-05
1.31175e-06
-4.93043e-07
-4.94949e-05
-1.72417e-06
4.90587e-05
2.65334e-06
-4.96051e-05
1.33737e-06
8.57052e-08
4.91925e-05
-1.50349e-06
-4.92822e-07
-1.70135e-06
2.60719e-06
1.36201e-06
8.62591e-08
-1.55488e-06
-1.28269e-06
-4.66437e-05
4.62023e-05
-4.69609e-05
4.37901e-07
4.65777e-05
-1.28399e-06
4.39227e-07
1.35746e-07
-4.95029e-05
-6.92321e-07
4.91082e-05
1.03701e-06
-4.94201e-05
-4.28047e-07
2.93182e-08
4.90315e-05
9.23088e-07
1.3647e-07
-6.67974e-07
9.8639e-07
-4.03038e-07
2.94284e-08
8.72649e-07
1.00713e-07
-4.6663e-05
4.63079e-05
-4.65802e-05
2.88667e-08
4.6224e-05
1.01173e-07
2.8981e-08
1.08652e-11
-4.94019e-05
-3.98629e-07
4.90121e-05
8.17721e-07
-4.94018e-05
-3.9862e-07
-2.93081e-08
4.90121e-05
8.17716e-07
1.09379e-11
-3.74282e-07
7.67677e-07
-3.74273e-07
-2.94183e-08
7.6767e-07
1.15911e-11
-4.67216e-05
4.63519e-05
-4.67216e-05
-2.88567e-08
4.63519e-05
1.16224e-11
-2.8971e-08
-1.35763e-07
-4.942e-05
-4.28029e-07
4.90314e-05
9.23075e-07
-4.95028e-05
-6.92378e-07
-8.56765e-08
4.91081e-05
1.03699e-06
-1.36488e-07
-4.0302e-07
8.72635e-07
-6.68029e-07
-8.62305e-08
9.86371e-07
-1.0073e-07
-4.65804e-05
4.62243e-05
-4.66634e-05
-4.38014e-07
4.63083e-05
-1.0119e-07
-4.3934e-07
4.93046e-07
-4.96049e-05
1.33772e-06
4.91923e-05
-1.50386e-06
-4.94947e-05
-1.7244e-06
4.90586e-05
2.65354e-06
4.92825e-07
1.36238e-06
-1.55525e-06
-1.70154e-06
2.60736e-06
1.28291e-06
-4.69613e-05
4.65781e-05
-4.66439e-05
4.62024e-05
1.28421e-06
-4.8339e-07
-4.86045e-05
-1.73493e-06
4.81251e-05
2.69771e-06
-4.87635e-05
1.25621e-06
8.31566e-08
4.83064e-05
-1.36569e-06
-4.83394e-07
-1.71009e-06
2.64774e-06
1.28257e-06
8.35555e-08
-1.42056e-06
-1.25439e-06
-4.57481e-05
4.52676e-05
-4.61763e-05
4.26836e-07
4.57513e-05
-1.25598e-06
4.2803e-07
1.31581e-07
-4.8695e-05
-7.29535e-07
4.82542e-05
1.12193e-06
-4.86239e-05
-4.71789e-07
2.84557e-08
4.81886e-05
1.01022e-06
1.32323e-07
-7.03969e-07
1.06841e-06
-4.45207e-07
2.86074e-08
9.56531e-07
9.78062e-08
-4.59337e-05
4.55331e-05
-4.58489e-05
2.80143e-08
4.54469e-05
9.8271e-08
2.81657e-08
1.04596e-11
-4.86035e-05