/*--------------------------------*- C++ -*----------------------------------*\
  =========                 |
  \\      /  F ield         | OpenFOAM: The Open Source CFD Toolbox
   \\    /   O peration     | Website:  https://openfoam.org
    \\  /    A nd           | Version:  9
     \\/     M anipulation  |
\*---------------------------------------------------------------------------*/
FoamFile
{
    format      ascii;
    class       volScalarField;
    location    "4.7";
    object      epsilon;
}
// * * * * * * * * * * * * * * * * * * * * * * * * * * * * * * * * * * * * * //

dimensions      [0 2 -3 0 0 0 0];

internalField   nonuniform List<scalar> 
36360
(
0.724145
0.602149
0.454658
0.394766
0.612443
0.518704
0.206203
0.238247
0.335803
0.206971
0.189066
0.0989363
0.297093
0.183683
0.0985463
0.0446081
0.155894
0.155792
0.0667606
0.0666933
0.14147
0.141385
0.0308243
0.030804
0.206642
0.335214
0.0986986
0.188589
0.183368
0.296397
0.0445007
0.0981996
0.601354
0.723354
0.394059
0.453928
0.517448
0.610767
0.237442
0.205322
1.13103
0.959622
0.941572
0.788305
1.30412
1.09971
0.971034
0.807157
0.631724
0.462265
0.484462
0.331176
0.776444
0.601303
0.527612
0.37839
0.390458
0.390317
0.267741
0.267616
0.528691
0.528491
0.318617
0.318471
0.461838
0.631016
0.33079
0.483804
0.60066
0.775248
0.377898
0.526648
0.958725
1.13018
0.787448
0.940739
1.09782
1.30166
0.805561
0.968924
1.4765
1.2816
1.30845
1.12396
1.94868
1.68666
1.62907
1.3935
0.920147
0.72883
0.777515
0.595913
1.29764
1.083
1.03481
0.838444
0.645804
0.645643
0.51785
0.517698
0.990575
0.990289
0.755188
0.754942
0.728351
0.919376
0.595456
0.77677
1.08211
1.29606
0.837669
1.03342
1.28066
1.47563
1.12303
1.30758
1.68429
1.94564
1.39135
1.6263
1.78744
1.57676
1.63624
1.43279
2.56019
2.2559
2.25946
1.97474
1.19205
0.985845
1.0588
0.859425
1.81669
1.57221
1.55915
1.32863
0.895335
0.895164
0.772325
0.772159
1.4649
1.46455
1.22824
1.22793
0.98534
1.19125
0.85893
1.05801
1.57115
1.81485
1.32764
1.55743
1.57579
1.78657
1.43183
1.63537
2.25318
2.55673
1.97217
2.25619
2.06476
1.84239
1.93046
1.71358
3.12202
2.78627
2.8477
2.5265
1.44059
1.22353
1.31967
1.10763
2.30749
2.0399
2.06643
1.8097
1.12765
1.12748
1.01423
1.01405
1.92127
1.92088
1.69634
1.69597
1.22301
1.43978
1.10712
1.31887
2.03872
2.30545
1.80856
2.06448
1.84143
2.06392
1.71261
1.92961
2.7833
3.11827
2.52364
2.84407
2.30843
2.07708
2.19086
1.96371
3.62568
3.26643
3.38096
3.03263
1.66253
1.43737
1.55512
1.33372
2.75617
2.47052
2.53727
2.26012
1.33751
1.33734
1.23572
1.23554
2.34319
2.34277
2.13685
2.13645
1.43685
1.66173
1.33321
1.55431
2.46925
2.75401
2.25888
2.53517
2.07614
2.30763
1.96276
2.19004
3.26331
3.62174
3.02958
3.3771
2.51986
2.28158
2.41819
2.18316
4.06917
3.69209
3.8545
3.48572
1.85735
1.62607
1.76348
1.53504
3.15686
2.85714
2.96232
2.66919
1.5232
1.52303
1.43358
1.43341
2.72301
2.72257
2.53829
2.53786
1.62556
1.85657
1.53453
1.76268
2.85582
3.15463
2.6679
2.96012
2.28067
2.51911
2.18224
2.41741
3.68886
4.06511
3.48253
3.85048
2.70137
2.45768
2.61436
2.37322
4.45445
4.0637
4.26847
3.8841
2.02608
1.79015
1.94508
1.71132
3.50866
3.19791
3.33847
3.03292
1.68501
1.68484
1.60723
1.60706
3.05853
3.05809
2.89597
2.89553
1.78965
2.02531
1.71081
1.9443
3.19656
3.50637
3.03159
3.33621
2.4568
2.70065
2.37232
2.61362
4.06041
4.4503
3.88084
4.26436
2.85547
2.60755
2.78183
2.53591
4.78503
4.38376
4.62587
4.22951
2.17037
1.93093
2.10136
1.86356
3.81305
3.49363
3.66625
3.35092
1.82412
1.82395
1.75753
1.75736
3.35031
3.34985
3.20945
3.20899
1.93044
2.16962
1.86306
2.1006
3.49225
3.81073
3.34956
3.66395
2.6067
2.85479
2.53504
2.78114
4.38043
4.78083
4.22619
4.62169
2.98495
2.73377
2.92331
2.67366
5.06558
4.65617
4.93084
4.52523
2.29237
2.0503
2.23425
1.9934
4.07312
3.74692
3.94805
3.62504
1.94224
1.94208
1.88592
1.88575
3.60057
3.60011
3.4801
3.47965
2.04982
2.29163
1.99292
2.2335
3.74553
4.07078
3.62366
3.94571
2.73294
2.98431
2.67282
2.92265
4.65282
5.06134
4.52189
4.92662
3.09234
2.83864
3.04143
2.78892
5.30063
4.88495
5.18805
4.77528
2.39416
2.15018
2.34589
2.10279
4.29234
3.96089
4.18723
3.85825
2.04121
2.04105
1.99424
1.99407
3.81226
3.8118
3.71067
3.71021
2.1497
2.39344
2.10231
2.34516
3.9595
4.28999
3.85685
4.18488
2.83783
3.09173
2.7881
3.04081
4.88158
5.29637
4.77191
5.18379
3.18004
2.92446
3.13871
2.88401
5.49477
5.07433
5.40211
4.98386
2.47784
2.23252
2.43839
2.19368
4.47443
4.13901
4.38743
4.05386
2.12293
2.12276
2.08437
2.0842
3.98868
3.98821
3.90432
3.90386
2.23205
2.47713
2.19321
2.43767
4.13761
4.47207
4.05246
4.38507
2.92367
3.17946
2.88321
3.13812
5.07094
5.49049
4.98048
5.39783
3.25016
2.99322
3.21737
2.96106
5.65204
5.22808
5.5773
5.15494
2.54526
2.29911
2.51372
2.26794
4.62283
4.28458
4.55224
4.21529
2.18911
2.18895
2.15811
2.15795
4.13296
4.13249
4.06427
4.0638
2.29865
2.54456
2.26747
2.51301
4.28318
4.62046
4.21389
4.54987
2.99244
3.2496
2.96027
3.2168
5.22469
5.64775
5.15155
5.57301
3.30464
3.04679
3.27945
3.02201
5.77631
5.34986
5.71762
5.29228
2.59817
2.3516
2.57369
2.32729
4.74089
4.40074
4.68507
4.34578
2.24137
2.24122
2.21715
2.21699
4.2482
4.24774
4.19366
4.19319
2.35114
2.59748
2.32683
2.57299
4.39933
4.73853
4.34437
4.6827
3.04603
3.3041
3.02125
3.2789
5.34647
5.77201
5.28889
5.71332
3.34507
3.08674
3.32673
3.0686
5.87082
5.44276
5.82664
5.39926
2.63805
2.39143
2.61992
2.37329
4.83155
4.49029
4.78909
4.44831
2.28115
2.281
2.26302
2.26287
4.33717
4.33671
4.29545
4.29498
2.39099
2.63737
2.37284
2.61924
4.48888
4.82918
4.4469
4.78672
3.086
3.34455
3.06785
3.3262
5.43937
5.86652
5.39586
5.82233
3.37289
3.11446
3.3607
3.10228
5.9385
5.50959
5.90739
5.47879
2.66625
2.4199
2.65382
2.4073
4.89744
4.55577
4.86705
4.52552
2.3097
2.30955
2.29705
2.29689
4.40239
4.40192
4.37224
4.37177
2.41945
2.66558
2.40685
2.65314
4.55437
4.89508
4.52411
4.86468
3.11373
3.37239
3.10155
3.36019
5.50621
5.93421
5.4754
5.90309
3.3893
3.13114
3.38269
3.12436
5.98184
5.55276
5.96262
5.53352
2.68389
2.4381
2.67661
2.43051
4.94085
4.59939
4.92144
4.57982
2.32812
2.32797
2.32041
2.32025
4.44598
4.44552
4.4264
4.42593
2.43766
2.68323
2.43007
2.67594
4.598
4.9385
4.57842
4.91908
3.13042
3.38882
3.12363
3.3822
5.54939
5.97755
5.53014
5.95832
3.39526
3.13774
3.39378
3.13589
6.00291
5.57427
5.99459
5.56563
2.69193
2.44698
2.68935
2.44395
4.96374
4.62304
4.95436
4.61323
2.33739
2.33724
2.33414
2.33399
4.46995
4.46949
4.45995
4.45948
2.44655
2.69127
2.44351
2.68869
4.62165
4.96139
4.61184
4.95201
3.13704
3.39479
3.13518
3.3933
5.57091
5.99864
5.56226
5.9903
3.39178
3.13523
3.39485
3.13776
6.00344
5.57578
6.00508
5.57691
2.69125
2.44739
2.69289
2.44848
4.96756
4.62813
4.96761
4.62752
2.33829
2.33814
2.33912
2.33897
4.47566
4.4752
4.47471
4.47425
2.44696
2.69061
2.44805
2.69224
4.62675
4.96523
4.62613
4.96528
3.13453
3.39133
3.13706
3.39438
5.57244
5.9992
5.57356
6.00082
3.37943
3.12423
3.38694
3.13102
5.98533
5.55929
5.99649
5.56958
2.68257
2.44007
2.68821
2.44501
4.9545
4.6169
4.96312
4.62451
2.33161
2.33147
2.33621
2.33607
4.46527
4.46482
4.4724
4.47194
2.43965
2.68193
2.44458
2.68757
4.61553
4.95219
4.62314
4.9608
3.12354
3.37898
3.13033
3.38649
5.55598
5.98112
5.56626
5.99225
3.35878
3.10531
3.37035
3.11597
5.94935
5.52539
5.96901
5.54393
2.66637
2.42543
2.67567
2.43393
4.92483
4.58952
4.94122
4.60473
2.31771
2.31756
2.32582
2.32568
4.43895
4.4385
4.4536
4.45315
2.42502
2.66574
2.43351
2.67504
4.58817
4.92254
4.60336
4.93892
3.10464
3.35835
3.11529
3.36991
5.52211
5.94517
5.54063
5.96481
3.33036
3.079
3.34577
3.09331
5.89678
5.47542
5.92464
5.5019
2.64318
2.40406
2.65593
2.41588
4.88005
4.54749
4.90391
4.56993
2.29718
2.29704
2.30856
2.30842
4.39817
4.39772
4.41997
4.41952
2.40365
2.64256
2.41546
2.6553
4.54614
4.87779
4.56858
4.90163
3.07834
3.32993
3.09265
3.34534
5.47217
5.89264
5.49863
5.92048
3.29449
3.04566
3.31359
3.06345
5.82839
5.41012
5.86408
5.44418
2.61338
2.37632
2.62939
2.39128
4.82092
4.49154
4.85187
4.52086
2.2704
2.27026
2.28486
2.28472
4.34368
4.34324
4.37225
4.3718
2.37591
2.61277
2.39087
2.62878
4.49021
4.81868
4.51952
4.84962
3.04501
3.29408
3.06279
3.31317
5.40692
5.8243
5.44096
5.85996
3.2515
3.0056
3.27412
3.02671
5.74488
5.33021
5.78805
5.3715
2.5773
2.34254
2.59641
2.36048
4.7481
4.42236
4.78582
4.45822
2.23769
2.23755
2.25508
2.25494
4.27614
4.27571
4.31116
4.31072
2.34214
2.5767
2.36008
2.59581
4.42105
4.7459
4.4569
4.7836
3.00496
3.25109
3.02607
3.27371
5.32705
5.74085
5.36832
5.78399
3.20167
2.95914
3.22768
2.98342
5.64692
5.23633
5.69725
5.28454
2.53522
2.303
2.5573
2.32379
4.66224
4.34055
4.70642
4.38266
2.19932
2.19919
2.21951
2.21937
4.19618
4.19575
4.23735
4.23692
2.30261
2.53463
2.32339
2.55671
4.33927
4.66008
4.38137
4.70424
2.95851
3.20127
2.98278
3.22727
5.23323
5.64296
5.2814
5.69325
3.14528
2.90653
3.17454
2.93385
5.53512
5.12909
5.59231
5.18392
2.48741
2.25795
2.51233
2.28146
4.5639
4.24667
4.61426
4.29476
2.15555
2.15541
2.17841
2.17827
4.10432
4.1039
4.15138
4.15096
2.25756
2.48683
2.28107
2.51174
4.24541
4.56177
4.29349
4.61211
2.90591
3.14489
2.93322
3.17414
5.12604
5.53123
5.18084
5.58838
3.08259
2.84802
3.11496
2.87826
5.41004
5.00903
5.47381
5.07021
2.43408
2.2076
2.46173
2.23373
4.45357
4.14121
4.50987
4.19504
2.10657
2.10644
2.13201
2.13187
4.00105
4.00064
4.05377
4.05335
2.20721
2.43351
2.23335
2.46115
4.13997
4.45149
4.19379
4.50777
2.84742
3.0822
2.87765
3.11458
5.00604
5.40623
5.06719
5.46996
3.01384
2.78385
3.0492
2.81688
5.27223
4.87671
5.34231
4.94396
2.37544
2.15214
2.40571
2.1808
4.33177
4.02464
4.39376
4.08398
2.05259
2.05246
2.0805
2.08037
3.88684
3.88644
3.94498
3.94457
2.15177
2.37488
2.18042
2.40515
4.02343
4.32973
4.08276
4.3917
2.78325
3.01346
2.81628
3.04882
4.87379
5.26851
4.94101
5.33854
2.93931
2.71424
2.97753
2.74996
5.12224
4.73264
5.19836
4.80573
2.31169
2.09176
2.34449
2.12286
4.19894
3.89739
4.2664
3.96203
1.99376
1.99363
2.02407
2.02394
3.76211
3.76172
3.82546
3.82507
2.09139
2.31114
2.12249
2.34394
3.89621
4.19695
3.96083
4.26438
2.71365
2.93894
2.74937
2.97716
4.72979
5.11861
4.80284
5.19468
2.85929
2.63943
2.90022
2.67771
4.96062
4.57728
5.0425
4.65596
2.24303
2.02663
2.27826
2.06007
4.05553
3.75991
4.12823
3.82962
1.93026
1.93013
1.96288
1.96275
3.6273
3.62692
3.69565
3.69527
2.02627
2.24249
2.05971
2.27771
3.75876
4.05359
3.82845
4.12627
2.63886
2.85893
2.67714
2.89985
4.5745
4.95708
4.65315
5.03891
2.77407
2.55965
2.81755
2.60039
4.78794
4.4113
4.87528
4.49518
2.16964
1.95691
2.2072
1.99262
3.90204
3.61264
3.97973
3.6872
1.86223
1.86211
1.89709
1.89697
3.48285
3.48248
3.55598
3.55561
1.95656
2.16911
1.99227
2.20667
3.61152
3.90015
3.68606
3.97781
2.55909
2.7737
2.59982
2.81719
4.4086
4.7845
4.49244
4.87178
2.68396
2.47514
2.72984
2.5182
4.60482
4.2354
4.69733
4.32423
2.09171
1.88277
2.13151
1.92067
3.73894
3.45603
3.82139
3.53522
1.78984
1.78972
1.82685
1.82673
3.3292
3.32884
3.40689
3.40652
1.88243
2.0912
1.92032
2.13099
3.45494
3.73711
3.53411
3.81953
2.47459
2.6836
2.51765
2.72947
4.23278
4.60148
4.32157
4.69394
2.58934
2.38621
2.63742
2.43144
4.41173
4.04993
4.50918
4.1435
2.00947
1.80438
2.05139
1.84438
3.56667
3.2905
3.65367
3.3741
1.71323
1.71311
1.75233
1.75221
3.16676
3.16641
3.2488
3.24845
1.80405
2.00896
1.84404
2.05088
3.28944
3.5649
3.37303
3.65187
2.38567
2.58898
2.4309
2.63706
4.04739
4.4085
4.14092
4.50589
2.4906
2.29316
2.54068
2.3404
4.20919
3.85545
4.31131
3.95346
1.9231
1.7219
1.96705
1.76391
3.38567
3.11645
3.47699
3.20428
1.63253
1.63241
1.67365
1.67353
2.99592
2.99558
3.08213
3.08179
1.72157
1.92261
1.76358
1.96655
3.11543
3.38396
3.20324
3.47524
2.29263
2.49025
2.33987
2.54032
3.853
4.20607
3.95096
4.30813
2.38833
2.19642
2.44007
2.24543
3.99781
3.65273
4.10428
3.75477
1.83288
1.63544
1.87872
1.67942
3.19644
2.93423
3.29182
3.02612
1.5478
1.54769
1.59093
1.59082
2.81695
2.81663
2.90722
2.90689
1.63512
1.8324
1.67909
1.87823
2.93325
3.19479
3.02512
3.29014
2.1959
2.38797
2.24491
2.43972
3.65037
3.99481
3.75236
4.10122
2.28362
2.09671
2.33638
2.14708
3.77869
3.44296
3.88884
3.54834
1.73905
1.54498
1.78665
1.59098
2.99942
2.74391
3.09866
2.83989
1.4589
1.45879
1.50415
1.50404
2.62976
2.62946
2.72421
2.72389
1.54467
1.73858
1.59066
1.78617
2.74298
2.99785
2.83893
3.09705
2.09621
2.28327
2.14657
2.33602
3.4407
3.77581
3.54603
3.8859
2.1793
1.99526
2.2313
2.04632
3.5552
3.22845
3.66682
3.33582
1.64156
1.44993
1.69105
1.49836
2.79461
2.54471
2.89785
2.64534
1.36506
1.36495
1.41292
1.41281
2.43341
2.43312
2.53264
2.53234
1.44963
1.6411
1.49805
1.69059
2.54383
2.79312
2.64443
2.89631
1.99477
2.17895
2.04582
2.23094
3.2263
3.55247
3.33362
3.66402
2.08468
1.89191
2.12976
1.94433
3.3413
3.01154
3.44492
3.12024
1.5378
1.34787
1.59113
1.40029
2.57858
2.33365
2.68837
2.44079
1.26432
1.26422
1.31596
1.31586
2.2258
2.22553
2.33097
2.33069
1.34758
1.53736
1.39999
1.59068
2.33283
2.57718
2.43994
2.68693
1.89142
2.08432
1.94384
2.12941
3.00952
3.33873
3.11816
3.44227
2.04539
1.75724
2.05182
1.83518
3.17129
2.74547
3.25111
2.89442
1.41342
1.2328
1.48021
1.29265
2.33354
2.10612
2.4615
2.22183
1.15338
1.15329
1.21056
1.21046
2.00664
2.00639
2.1172
2.11694
1.23252
1.41299
1.29236
1.47977
2.10537
2.33226
2.22104
2.46016
1.75676
2.04502
1.83469
2.05146
2.74362
3.16887
2.89248
3.24861
1.03105
0.873682
0.791862
0.673837
0.889901
0.744485
0.642482
0.542874
0.573682
0.407177
0.410885
0.272955
0.456608
0.304851
0.301609
0.18305
0.334185
0.334031
0.215146
0.214998
0.240806
0.240673
0.135976
0.135862
0.406725
0.573
0.272502
0.410148
0.304446
0.455958
0.182687
0.300975
0.872973
1.03053
0.672976
0.791109
0.743734
0.889264
0.542063
0.641717
1.38234
1.20091
1.22229
1.04842
1.25362
1.07602
1.0865
0.920177
0.871329
0.679137
0.728043
0.545002
0.746276
0.562216
0.605333
0.433537
0.591544
0.591409
0.462865
0.462718
0.480737
0.480597
0.358872
0.358732
0.678758
0.870806
0.544582
0.727439
0.561811
0.745668
0.433125
0.604699
1.20047
1.38214
1.04784
1.22194
1.07539
1.25316
0.919484
1.08596
1.65568
1.46775
1.52558
1.34001
1.54632
1.35601
1.4058
1.22081
1.13103
0.929972
1.00566
0.80801
1.00912
0.810597
0.88105
0.688625
0.836673
0.836565
0.716977
0.716855
0.720911
0.720779
0.602417
0.60228
0.929678
1.13066
0.807674
1.00522
0.81022
1.00858
0.688232
0.880474
1.46752
1.65575
1.33968
1.52552
1.35549
1.54603
1.22024
1.40543
1.88516
1.69535
1.77524
1.58606
1.79942
1.60198
1.67736
1.48308
1.35756
1.15305
1.24844
1.04527
1.24566
1.03888
1.1309
0.927759
1.05719
1.05711
0.950444
0.950349
0.944443
0.944322
0.835414
0.835287
1.15284
1.35732
1.04501
1.24814
1.03854
1.24518
0.927399
1.13039
1.6953
1.88545
1.58593
1.77543
1.60157
1.79928
1.48262
1.67715
2.08061
1.89048
1.98691
1.79685
2.01928
1.81741
1.91346
1.71355
1.55368
1.34794
1.45946
1.25417
1.45524
1.24322
1.35401
1.14434
1.25089
1.25083
1.1576
1.15752
1.14576
1.14565
1.04824
1.04812
1.34779
1.55355
1.25398
1.45928
1.24291
1.45484
1.14402
1.35358
1.89058
2.08108
1.79688
1.9873
1.8171
2.01927
1.71319
1.91339
2.2469
2.05705
2.1673
1.97727
2.20903
2.00423
2.11788
1.91443
1.72201
1.51609
1.64135
1.43544
1.6383
1.42279
1.55021
1.33628
1.41854
1.41849
1.33808
1.33803
1.3233
1.3232
1.23771
1.23761
1.51599
1.72197
1.43532
1.64127
1.42252
1.63795
1.33599
1.54983
2.05726
2.2475
1.97744
2.16784
2.00401
2.20914
1.91416
2.11794
2.38756
2.19826
2.32038
2.1308
2.37148
2.16464
2.29367
2.08776
1.86528
1.65971
1.79682
1.59104
1.79628
1.57843
1.72052
1.50374
1.56204
1.56201
1.4934
1.49337
1.47756
1.47747
1.4035
1.4034
1.65965
1.8653
1.59096
1.79681
1.57818
1.79598
1.50348
1.7202
2.19857
2.38828
2.13106
2.32104
2.16448
2.37168
2.08758
2.29382
2.50566
2.31704
2.44942
2.26046
2.50935
2.30106
2.44351
2.23589
1.98621
1.7813
1.9286
1.72335
1.93121
1.71181
1.86673
1.64803
1.68374
1.68373
1.62572
1.62569
1.61002
1.60994
1.54665
1.54657
1.78128
1.98629
1.72331
1.92865
1.7116
1.93095
1.6478
1.86645
2.31743
2.50647
2.26081
2.45019
2.30097
2.50963
2.23577
2.44375
2.60376
2.41593
2.5572
2.36899
2.62514
2.41585
2.57003
2.36121
2.0873
1.88324
2.03932
1.83483
2.04522
1.82486
1.99093
1.77101
1.78594
1.78593
1.73739
1.73738
1.72247
1.7224
1.66888
1.66881
1.88325
2.08742
1.83482
2.03942
1.82466
2.04499
1.7708
1.9907
2.41637
2.60464
2.3694
2.55805
2.41581
2.62548
2.36114
2.57034
2.68436
2.49737
2.64628
2.45888
2.72133
2.51136
2.67574
2.46608
2.17092
1.96784
2.1314
1.92784
2.1405
1.91963
2.09532
1.87467
1.87088
1.87088
1.83069
1.83069
1.81689
1.81682
1.77208
1.77201
1.96787
2.17108
1.92785
2.13155
1.91946
2.14031
1.87449
2.09512
2.49786
2.6853
2.45935
2.64719
2.51136
2.72173
2.46607
2.67611
2.74955
2.56341
2.71892
2.53237
2.80012
2.58975
2.76296
2.55277
2.23915
2.03712
2.20708
2.00454
2.2191
1.99806
2.18202
1.96104
1.94057
1.94058
1.90778
1.90778
1.89515
1.89509
1.8582
1.85813
2.03717
2.23934
2.00458
2.20726
1.9979
2.21894
1.96087
2.18185
2.56395
2.75054
2.53288
2.71989
2.58979
2.80056
2.55279
2.76338
2.8012
2.61594
2.77715
2.59146
2.86354
2.653
2.83385
2.62338
2.29385
2.09294
2.26834
2.06688
2.2829
2.06197
2.25301
2.032
1.99685
1.99686
1.97056
1.97057
1.95905
1.95899
1.92908
1.92902
2.093
2.29407
2.06694
2.26855
2.06182
2.28276
2.03185
2.25286
2.61651
2.80224
2.59201
2.77816
2.65307
2.86402
2.62343
2.83431
2.84087
2.65653
2.82261
2.63783
2.91329
2.70281
2.89022
2.6797
2.33661
2.13687
2.31688
2.11657
2.33356
2.11296
2.31005
2.08927
2.04128
2.0413
2.02073
2.02074
2.01015
2.01009
1.98639
1.98633
2.13694
2.33685
2.11664
2.31711
2.11283
2.33344
2.08913
2.30992
2.65713
2.84194
2.63841
2.82366
2.70291
2.9138
2.67979
2.89072
2.86999
2.68659
2.85685
2.67299
2.95096
2.74072
2.93376
2.72339
2.36884
2.17031
2.35422
2.1551
2.37257
2.1525
2.35472
2.13437
2.07526
2.07528
2.05978
2.0598
2.04989
2.04984
2.03165
2.0316
2.1704
2.3691
2.15518
2.35447
2.15237
2.37246
2.13424
2.35461
2.68721
2.87109
2.6736
2.85793
2.74084
2.9515
2.7235
2.93429
2.88965
2.70726
2.88112
2.69823
2.97779
2.76799
2.96587
2.75584
2.39171
2.19444
2.38164
2.18375
2.40116
2.1818
2.38838
2.16866
2.09997
2.09999
2.08899
2.08901
2.0795
2.07945
2.06619
2.06614
2.19454
2.39199
2.18385
2.38191
2.18169
2.40107
2.16853
2.38828
2.7079
2.89078
2.69886
2.88223
2.76813
2.97836
2.75597
2.96643
2.90089
2.71957
2.89645
2.71461
2.99494
2.78575
2.98773
2.77823
2.40625
2.2103
2.40024
2.20363
2.42047
2.20197
2.41221
2.19327
2.11642
2.11644
2.10945
2.10948
2.10005
2.1
2.09115
2.0911
2.2104
2.40654
2.20374
2.40052
2.20186
2.42039
2.19316
2.41212
2.72023
2.90203
2.71526
2.89759
2.7859
2.99553
2.77837
2.98831
2.90451
2.72434
2.9038
2.72306
3.00331
2.79492
3.0004
2.79159
2.41332
2.21872
2.41094
2.21567
2.4314
2.21393
2.42723
2.20923
2.12548
2.12551
2.12211
2.12214
2.11246
2.11242
2.10753
2.10748
2.21884
2.41362
2.21579
2.41124
2.21382
2.43133
2.20912
2.42715
2.72502
2.90567
2.72372
2.90495
2.79509
3.00392
2.79176
3.00099
2.90124
2.72233
2.90389
2.72434
3.00369
2.79629
3.00468
2.79678
2.41363
2.22045
2.41454
2.22067
2.43474
2.21844
2.43428
2.21738
2.12787
2.1279
2.12776
2.12779
2.11752
2.11748
2.11618
2.11613
2.22057
2.41394
2.22078
2.41485
2.21834
2.43468
2.21728
2.43422
2.72301
2.90241
2.72502
2.90505
2.79648
3.00431
2.79696
3.00529
2.8916
2.71407
2.89736
2.71914
2.99679
2.79062
3.00134
2.79454
2.40782
2.21615
2.41173
2.21931
2.43126
2.21626
2.43411
2.21844
2.12429
2.12432
2.12708
2.12711
2.11595
2.11591
2.11781
2.11777
2.21627
2.40814
2.21943
2.41204
2.21617
2.43121
2.21834
2.43405
2.71476
2.89278
2.71983
2.89854
2.79081
2.99742
2.79473
3.00197
2.87612
2.7001
2.88475
2.70798
2.98312
2.77838
2.991
2.78553
2.39637
2.20626
2.40305
2.21216
2.42141
2.20786
2.4274
2.21312
2.11514
2.11517
2.12067
2.1207
2.10823
2.1082
2.11314
2.1131
2.20638
2.39669
2.21229
2.40337
2.20777
2.42136
2.21303
2.42735
2.7008
2.87731
2.70867
2.88594
2.77859
2.98376
2.78573
2.99163
2.8552
2.68085
2.86651
2.69132
2.96315
2.76009
2.97411
2.7702
2.37971
2.19122
2.38895
2.19965
2.40569
2.19372
2.41456
2.2018
2.10088
2.10092
2.10891
2.10895
2.09484
2.0948
2.10253
2.1025
2.19135
2.38004
2.19978
2.38927
2.19364
2.40565
2.20171
2.41452
2.68155
2.85639
2.69202
2.8677
2.76029
2.96379
2.77041
2.97476
2.82915
2.65662
2.84299
2.66953
2.93724
2.73611
2.95114
2.74902
2.35819
2.1714
2.36981
2.18218
2.38449
2.17423
2.39606
2.18494
2.08188
2.08191
2.09224
2.09228
2.07617
2.07614
2.08646
2.08642
2.17153
2.35851
2.18231
2.37014
2.17415
2.38445
2.18485
2.39602
2.65732
2.83033
2.67024
2.84418
2.73632
2.93789
2.74923
2.95178
2.79817
2.62765
2.81445
2.64291
2.90561
2.70667
2.92236
2.7223
2.33205
2.14706
2.34595
2.16006
2.35809
2.1497
2.37222
2.16289
2.0584
2.05844
2.07097
2.071
2.05253
2.0525
2.06527
2.06523
2.14719
2.33238
2.1602
2.34628
2.14962
2.35805
2.16281
2.37219
2.62835
2.79935
2.64361
2.81563
2.70689
2.90626
2.72251
2.92301
2.76247
2.59418
2.78108
2.61166
2.86851
2.67206
2.88796
2.69024
2.30156
2.11844
2.31761
2.13356
2.32675
2.12039
2.34332
2.13594
2.0307
2.03073
2.04535
2.04539
2.02419
2.02416
2.03925
2.03921
2.11858
2.30188
2.13369
2.31793
2.12031
2.32672
2.13586
2.34329
2.59487
2.76364
2.61236
2.78226
2.67228
2.86915
2.69045
2.8886
2.7223
2.55642
2.74312
2.57602
2.82618
2.63252
2.84821
2.65313
2.2669
2.08576
2.28501
2.10288
2.29071
2.08653
2.3096
2.10432
1.99897
1.99901
2.01561
2.01564
1.99137
1.99133
2.00863
2.0086
2.0859
2.26723
2.10301
2.28533
2.08645
2.29068
2.10425
2.30957
2.55711
2.72346
2.57671
2.74428
2.63274
2.82682
2.65334
2.84885
2.67785
2.51459
2.70078
2.5362
2.77885
2.58826
2.80335
2.6112
2.22829
2.0492
2.24835
2.06823
2.25018
2.04831
2.27129
2.06825
1.96341
1.96344
1.98194
1.98197
1.95426
1.95422
1.97364
1.97361
2.04933
2.22861
2.06837
2.24867
2.04823
2.25015
2.06818
2.27126
2.51528
2.67899
2.53689
2.70193
2.58848
2.77948
2.61142
2.80399
2.62933
2.46888
2.65427
2.4924
2.72673
2.53949
2.7536
2.56466
2.18589
2.00892
2.20781
2.02979
2.20533
2.00591
2.22858
2.02792
1.92416
1.92419
1.94451
1.94454
1.91303
1.913
1.93445
1.93442
2.00905
2.1862
2.02992
2.20813
2.00584
2.20531
2.02785
2.22855
2.46955
2.63046
2.49308
2.6554
2.5397
2.72735
2.56487
2.75422
2.57695
2.41945
2.60378
2.44481
2.67003
2.48639
2.69916
2.51369
2.13986
1.96507
2.16358
1.9877
2.15635
1.9595
2.18164
1.98349
1.88137
1.8814
1.90347
1.9035
1.86785
1.86781
1.89122
1.89119
1.9652
2.14017
1.98783
2.16389
1.95942
2.15632
1.98342
2.18161
2.42011
2.57805
2.44547
2.6049
2.4866
2.67064
2.5139
2.69977
2.52094
2.36653
2.54956
2.3936
2.60901
2.42917
2.64026
2.4585
2.09037
1.9178
2.11579
1.94212
2.1034
1.90921
2.13064
1.93512
1.83518
1.83521
1.85896
1.85899
1.81884
1.81881
1.8441
1.84407
1.91792
2.09067
1.94224
2.1161
1.90914
2.10337
1.93504
2.13061
2.36717
2.52202
2.39425
2.55065
2.42937
2.60959
2.4587
2.64085
2.46155
2.31029
2.49182
2.33899
2.54389
2.36805
2.57715
2.3993
2.03759
1.86724
2.06463
1.89318
2.04664
1.8552
2.07576
1.88295
1.78572
1.78575
1.81111
1.81114
1.76615
1.76612
1.79323
1.7932
1.86736
2.03789
1.8933
2.06493
1.85513
2.04661
1.88287
2.07573
2.31092
2.4626
2.33962
2.49288
2.36824
2.54446
2.39949
2.57773
2.39907
2.25101
2.43084
2.28119
2.47497
2.30322
2.51009
2.33629
1.9817
1.81355
2.01027
1.84103
1.98626
1.79761
2.01716
1.82712
1.73311
1.73314
1.76005
1.76008
1.70991
1.70988
1.73874
1.73871
1.81366
1.98198
1.84114
2.01055
1.79754
1.98623
1.82705
2.01713
2.25162
2.40009
2.28181
2.43188
2.3034
2.47552
2.33648
2.51065
2.3338
2.18893
2.36692
2.22047
2.40257
2.23491
2.43938
2.26968
1.92289
1.75688
1.95288
1.78582
1.92242
1.7366
1.95502
1.76779
1.6775
1.67753
1.70592
1.70595
1.65025
1.65022
1.68077
1.68073
1.75698
1.92316
1.78593
1.95316
1.73652
1.92239
1.76772
1.95499
2.18952
2.33479
2.22107
2.36792
2.23508
2.40309
2.26986
2.43992
2.26613
2.12434
2.30039
2.15709
2.32703
2.16345
2.36536
2.19975
1.86137
1.6974
1.89268
1.72772
1.85535
1.67231
1.88953
1.70511
1.61905
1.61907
1.64886
1.64889
1.58731
1.58728
1.61944
1.61941
1.6975
1.86163
1.72782
1.89294
1.67223
1.85531
1.70504
1.88949
2.12491
2.26708
2.15767
2.30136
2.16361
2.32753
2.19992
2.36587
2.1966
2.05768
2.23171
2.0914
2.24883
2.08919
2.28841
2.12683
1.79744
1.63531
1.82991
1.6669
1.78528
1.60492
1.82092
1.63924
1.55789
1.55791
1.58903
1.58905
1.52122
1.52118
1.5549
1.55487
1.6354
1.79768
1.667
1.83016
1.60484
1.78524
1.63917
1.82088
2.05822
2.19751
2.09195
2.23263
2.08933
2.2493
2.12699
2.2889
2.12601
1.98957
2.16151
2.02391
2.16863
2.01263
2.2091
2.05133
1.73147
1.57081
1.7649
1.60358
1.71252
1.53456
1.74946
1.57035
1.49412
1.49414
1.52656
1.52658
1.45203
1.452
1.48726
1.48722
1.57089
1.73169
1.60366
1.76513
1.53448
1.71246
1.57027
1.7494
1.99009
2.12687
2.02443
2.1624
2.01276
2.16908
2.05147
2.20955
2.05589
1.92107
2.09088
1.95542
2.08777
1.93465
2.12833
1.97392
1.6639
1.5039
1.69807
1.53789
1.63739
1.46123
1.67546
1.49852
1.42757
1.42758
1.46144
1.46146
1.37958
1.37955
1.41648
1.41644
1.50397
1.66411
1.53796
1.69828
1.46115
1.63733
1.49844
1.6754
1.92155
2.05671
1.95592
2.09172
1.93477
2.08818
1.97404
2.12876
1.98995
1.854
2.02212
1.88735
2.00945
1.85674
2.0481
1.89574
1.59492
1.43397
1.62982
1.46962
1.55993
1.38428
1.59922
1.42353
1.35732
1.35733
1.39322
1.39323
1.303
1.30296
1.34213
1.34209
1.43403
1.5951
1.46968
1.63001
1.38419
1.55986
1.42344
1.59915
1.85444
1.99073
1.88782
2.02292
1.85683
2.00983
1.89585
2.04849
1.94028
1.78973
1.96163
1.82177
1.94464
1.77948
1.97405
1.81839
1.52221
1.35831
1.55963
1.39737
1.47757
1.30103
1.52001
1.34396
1.28092
1.28092
1.32031
1.32032
1.21995
1.21991
1.26271
1.26267
1.35835
1.52236
1.39741
1.5598
1.30093
1.47748
1.34387
1.51992
1.79013
1.94099
1.82219
1.96238
1.77954
1.94497
1.81847
1.9744
1.96152
1.70557
1.93498
1.75571
1.94781
1.67764
1.93039
1.73762
1.43245
1.27073
1.48129
1.31663
1.37628
1.20517
1.43122
1.25533
1.19468
1.19468
1.2394
1.2394
1.12676
1.12672
1.17503
1.17499
1.27075
1.43256
1.31666
1.48142
1.20507
1.37617
1.25523
1.43112
1.70591
1.9622
1.75609
1.93567
1.67766
1.94811
1.73767
1.9307
1.25597
1.0886
1.02832
0.893097
1.15174
0.987819
0.918695
0.789906
0.780285
0.599504
0.609874
0.450231
0.681853
0.506391
0.514116
0.363186
0.516953
0.516784
0.379488
0.379302
0.427579
0.427413
0.297785
0.297613
0.599031
0.779634
0.449691
0.609071
0.505917
0.681173
0.362675
0.513326
1.08805
1.25571
0.892282
1.02772
0.987177
1.15133
0.789047
0.917999
1.59936
1.41727
1.443
1.26434
1.49791
1.31545
1.34047
1.16311
1.09313
0.896028
0.943202
0.751029
0.988053
0.792173
0.841216
0.652083
0.803481
0.803369
0.66185
0.661708
0.701268
0.701143
0.565482
0.565335
0.895733
1.09279
0.750645
0.942713
0.791832
0.98762
0.651673
0.840662
1.41715
1.59958
1.26402
1.443
1.31516
1.49793
1.16266
1.34029
1.86137
1.67934
1.73773
1.55499
1.76324
1.57822
1.63764
1.45312
1.35854
1.15965
1.23161
1.03277
1.25003
1.04939
1.1243
0.925114
1.06494
1.06488
0.938639
0.938554
0.954777
0.954693
0.831813
0.831708
1.15952
1.35846
1.03256
1.2314
1.04918
1.24981
0.924839
1.12398
1.67955
1.86196
1.55504
1.73814
1.57823
1.76359
1.453
1.63783
2.07411
1.89537
1.97308
1.79254
1.98157
1.79779
1.8775
1.69289
1.58213
1.38563
1.47537
1.27743
1.47376
1.2731
1.36654
1.16558
1.29128
1.29126
1.18273
1.18269
1.17761
1.17756
1.07033
1.07026
1.38561
1.58224
1.27736
1.4754
1.27299
1.47371
1.16543
1.36641
1.89582
2.07497
1.79288
1.97381
1.79803
1.98218
1.69302
1.87799
2.24972
2.07491
2.16616
1.9894
2.16431
1.98279
2.07706
1.89438
1.76979
1.57687
1.6803
1.48556
1.66406
1.465
1.57302
1.37306
1.48375
1.48376
1.39177
1.39176
1.36972
1.36969
1.27759
1.27756
1.57695
1.77005
1.48559
1.6805
1.46497
1.66414
1.373
1.57304
2.07555
2.25078
1.98995
2.16713
1.98319
2.16511
1.8947
2.07777
2.39527
2.22425
2.32602
2.15317
2.31763
2.13851
2.24447
2.06418
1.9267
1.73755
1.85199
1.66099
1.82506
1.62814
1.74818
1.55017
1.64591
1.64595
1.5686
1.56862
1.5335
1.5335
1.45518
1.45517
1.7377
1.92707
1.6611
1.85231
1.62817
1.82524
1.55018
1.74831
2.22503
2.39649
2.15388
2.32717
2.13905
2.31858
2.06465
2.24535
2.51563
2.34805
2.45846
2.28923
2.44578
2.26899
2.38475
2.20683
2.0573
1.87174
1.99525
1.80794
1.96044
1.76579
1.89595
1.70017
1.7816
1.78166
1.71707
1.71712
1.67197
1.67199
1.60594
1.60595
1.87194
2.05776
1.80812
1.99566
1.76587
1.96071
1.70024
1.89617
2.34893
2.51696
2.29006
2.45973
2.26962
2.44685
2.20742
2.38576
2.61462
2.45009
2.56772
2.40174
2.55226
2.37759
2.50168
2.32599
2.16537
1.98312
2.11416
1.93031
2.07354
1.8811
2.01981
1.82629
1.89442
1.89449
1.84091
1.84097
1.78816
1.78819
1.73292
1.73294
1.98336
2.16589
1.93053
2.11465
1.88122
2.07386
1.8264
2.02011
2.45104
2.61604
2.40265
2.5691
2.3783
2.55342
2.32667
2.5028
2.6952
2.53337
2.65716
2.49404
2.63984
2.4671
2.59839
2.42472
2.25402
2.07479
2.21216
2.03147
2.16715
1.97684
2.12284
1.93149
1.98743
1.98752
1.94347
1.94354
1.88479
1.88483
1.839
1.83904
2.07507
2.25459
2.03174
2.2127
1.977
2.16753
1.93164
2.12319
2.53438
2.69668
2.49503
2.65861
2.46788
2.64108
2.42547
2.59959
2.75995
2.60052
2.72954
2.56897
2.71102
2.54004
2.6775
2.50567
2.32596
2.14949
2.29215
2.11435
2.24384
2.05555
2.2077
2.01843
2.06338
2.06347
2.02763
2.02772
1.96436
1.96441
1.92682
1.92686
2.14979
2.32657
2.11464
2.29274
2.05573
2.24425
2.0186
2.2081
2.60158
2.76148
2.57001
2.73105
2.54086
2.71231
2.50647
2.67876
2.81093
2.65367
2.78716
2.62887
2.76783
2.59848
2.74124
2.57111
2.38343
2.20948
2.3566
2.18143
2.30574
2.11936
2.27674
2.08944
2.12453
2.12463
2.09592
2.09601
2.02902
2.02908
1.99868
1.99874
2.20981
2.38407
2.18175
2.35722
2.11957
2.30619
2.08964
2.27717
2.65477
2.81251
2.62994
2.78872
2.59934
2.76917
2.57195
2.74255
2.84996
2.69467
2.83197
2.67574
2.8121
2.64426
2.79159
2.62303
2.42836
2.25674
2.40759
2.23484
2.35474
2.1702
2.33199
2.14656
2.17286
2.17297
2.15044
2.15054
2.08068
2.08074
2.05663
2.05669
2.25708
2.42902
2.23518
2.40824
2.17042
2.35522
2.14677
2.33245
2.6958
2.85157
2.67686
2.83357
2.64516
2.81348
2.62391
2.79295
2.8785
2.72503
2.86558
2.71124
2.84531
2.67892
2.83014
2.66306
2.46234
2.29289
2.44685
2.27636
2.39243
2.20965
2.37515
2.19151
2.21003
2.21014
2.193
2.19311
2.12092
2.12099
2.1024
2.10246
2.29325
2.46303
2.27671
2.44753
2.20988
2.39293
2.19174
2.37564
2.72619
2.88015
2.71238
2.86721
2.67984
2.84672
2.66397
2.83154
2.89788
2.7461
2.8894
2.73681
2.86881
2.70381
2.85835
2.69268
2.48676
2.31935
2.4759
2.3075
2.4202
2.2391
2.40772
2.22581
2.23744
2.23755
2.22513
2.22524
2.15116
2.15123
2.13748
2.13755
2.31971
2.48746
2.30787
2.47659
2.23935
2.42071
2.22605
2.40823
2.74728
2.89955
2.73797
2.89106
2.70476
2.87025
2.69362
2.85978
2.90909
2.75893