/*--------------------------------*- C++ -*----------------------------------*\
  =========                 |
  \\      /  F ield         | OpenFOAM: The Open Source CFD Toolbox
   \\    /   O peration     | Website:  https://openfoam.org
    \\  /    A nd           | Version:  9
     \\/     M anipulation  |
\*---------------------------------------------------------------------------*/
FoamFile
{
    format      ascii;
    class       volScalarField;
    location    "4.7";
    object      nut;
}
// * * * * * * * * * * * * * * * * * * * * * * * * * * * * * * * * * * * * * //

dimensions      [0 2 -1 0 0 0 0];

internalField   nonuniform List<scalar> 
36360
(
0.00639231
0.00607699
0.00493254
0.004714
0.000804725
0.000761443
0.000560313
0.000587897
0.0054199
0.0051885
0.00397764
0.00367143
0.000632693
0.000539377
0.000438491
0.000337139
0.00520126
0.00520067
0.0036708
0.00367061
0.00049468
0.000494581
0.000298212
0.000298146
0.00518595
0.00541458
0.00366942
0.00397248
0.000539067
0.000632197
0.000336867
0.000437975
0.00606912
0.00638179
0.00470603
0.00492154
0.000760826
0.000803988
0.000587231
0.000559511
0.00839746
0.00818733
0.00746798
0.0072044
0.00103479
0.000977718
0.00093806
0.000882099
0.00766825
0.00747322
0.00662236
0.0064166
0.000870818
0.000799867
0.000765799
0.000685718
0.00744452
0.0074436
0.00640709
0.00640628
0.000766375
0.000766278
0.000647667
0.000647568
0.00747019
0.00766277
0.00641374
0.00661694
0.000799582
0.00087037
0.00068542
0.000765331
0.00817951
0.00838719
0.00719657
0.00745767
0.000977155
0.00103414
0.000881515
0.000937378
0.00997118
0.00982639
0.00922602
0.00905346
0.0011828
0.0011273
0.00111433
0.00105788
0.00938524
0.0091978
0.0085791
0.00838852
0.00103311
0.000972799
0.000958155
0.000893389
0.0091451
0.00914409
0.00834552
0.00834454
0.000944356
0.000944265
0.000862853
0.00086276
0.00919465
0.00937977
0.0083854
0.00857361
0.000972532
0.00103269
0.000893113
0.000957722
0.00981864
0.00996094
0.00904566
0.00921576
0.00112677
0.00118219
0.00105734
0.00111369
0.0112314
0.0111254
0.0106345
0.010511
0.00129531
0.00124189
0.00124253
0.00118805
0.0107279
0.0105456
0.0100941
0.009909
0.00115553
0.00110127
0.00109821
0.00104127
0.0104814
0.0104804
0.00984923
0.00984821
0.00107567
0.00107558
0.00101441
0.00101432
0.0105425
0.0107225
0.00990585
0.0100887
0.00110102
0.00115514
0.00104101
0.0010978
0.0111179
0.0112213
0.0105033
0.0106243
0.00124139
0.00129473
0.00118754
0.00124193
0.0122439
0.0121658
0.0117631
0.0116716
0.00138377
0.00133233
0.00134204
0.00128962
0.0117954
0.0116182
0.0112892
0.0111093
0.00125128
0.00120099
0.00120616
0.00115406
0.0115489
0.0115479
0.0110418
0.0110408
0.00117728
0.0011772
0.00112949
0.0011294
0.0116152
0.0117903
0.0111062
0.0112839
0.00120076
0.00125092
0.00115382
0.00120578
0.0121584
0.012234
0.0116642
0.0117531
0.00133186
0.00138321
0.00128913
0.00134147
0.013063
0.0130064
0.0126731
0.0126063
0.00145443
0.00140477
0.00142097
0.00137045
0.0126541
0.0124816
0.0122455
0.0120705
0.00132753
0.00128006
0.00129146
0.00124268
0.0124106
0.0124096
0.012
0.011999
0.00125771
0.00125763
0.0012197
0.00121962
0.0124786
0.0126491
0.0120675
0.0122405
0.00127984
0.00132719
0.00124246
0.0012911
0.0129992
0.0130534
0.012599
0.0126633
0.00140432
0.0014539
0.00136999
0.00142043
0.013729
0.013689
0.0134113
0.0133633
0.0015114
0.00146325
0.00148437
0.00143549
0.0133501
0.0131817
0.013018
0.0128475
0.00138891
0.00134354
0.0013598
0.00131345
0.0131108
0.0131099
0.0127763
0.0127754
0.00132221
0.00132214
0.00129164
0.00129157
0.0131789
0.0133452
0.0128446
0.0130131
0.00134333
0.00138858
0.00131323
0.00135946
0.0136821
0.0137196
0.0133563
0.0134017
0.00146282
0.0015109
0.00143505
0.00148385
0.0142729
0.014246
0.0140129
0.0139796
0.00155762
0.00151073
0.00153566
0.00148816
0.0139175
0.0137528
0.0136461
0.0134795
0.00143864
0.0013949
0.00141501
0.00137051
0.0136824
0.0136815
0.0134088
0.0134079
0.00137436
0.00137429
0.00134959
0.00134953
0.01375
0.0139128
0.0134767
0.0136413
0.0013947
0.00143832
0.00137031
0.00141469
0.0142393
0.0142637
0.0139728
0.0140036
0.00151032
0.00155714
0.00148774
0.00153517
0.0147178
0.0147015
0.0145047
0.0144833
0.00159521
0.00154936
0.00157734
0.00153098
0.0143812
0.0142197
0.0141589
0.0139957
0.00147905
0.00143659
0.00145984
0.00141678
0.0141498
0.0141489
0.0139255
0.0139246
0.00141669
0.00141663
0.00139658
0.00139651
0.014217
0.0143767
0.013993
0.0141543
0.0014364
0.00147875
0.00141658
0.00145953
0.014695
0.0147088
0.0144766
0.0144956
0.00154896
0.00159474
0.00153058
0.00157686
0.0150817
0.0150739
0.0149072
0.0148952
0.00162577
0.00158078
0.00161123
0.00156583
0.0147605
0.0146017
0.0145784
0.0144182
0.0015119
0.00147046
0.00149628
0.00145436
0.0145323
0.0145315
0.0143484
0.0143475
0.00145109
0.00145103
0.00143474
0.00143467
0.0145991
0.014756
0.0144155
0.0145739
0.00147028
0.00151161
0.00145418
0.00149599
0.0150674
0.0150728
0.0148887
0.0148982
0.0015804
0.00162531
0.00156545
0.00161077
0.0153784
0.0153774
0.0152359
0.0152315
0.00165051
0.00160623
0.00163875
0.00159413
0.0150698
0.0149134
0.014921
0.0147634
0.00153853
0.00149791
0.00152588
0.00148487
0.0148446
0.0148437
0.0146942
0.0146933
0.00147896
0.0014789
0.00146572
0.00146565
0.0149108
0.0150654
0.0147608
0.0149166
0.00149773
0.00153825
0.00148469
0.00152559
0.015371
0.0153696
0.0152251
0.0152271
0.00160586
0.00165007
0.00159376
0.0016383
0.0156186
0.0156232
0.0155032
0.015505
0.00167041
0.00162671
0.00166097
0.00161699
0.0153204
0.0151661
0.0151998
0.0150443
0.00155997
0.00152001
0.0015498
0.00150953
0.0150979
0.015097
0.0149757
0.0149749
0.00150141
0.00150135
0.00149076
0.0014907
0.0151636
0.0153161
0.0150418
0.0151954
0.00151984
0.00155969
0.00150935
0.00154952
0.015617
0.0156099
0.0154987
0.0154944
0.00162635
0.00166997
0.00161663
0.00166053
0.0158109
0.0158201
0.0157185
0.0157253
0.00168618
0.00164296
0.00167872
0.00163527
0.0155212
0.0153686
0.0154245
0.015271
0.00157701
0.00153761
0.00156895
0.00152929
0.015301
0.0153002
0.0152029
0.0152021
0.00151928
0.00151922
0.00151082
0.00151076
0.0153661
0.015517
0.0152684
0.0154202
0.00153745
0.00157674
0.00152912
0.00156868
0.0158139
0.0158022
0.0157191
0.0157098
0.00164261
0.00168576
0.00163491
0.00167829
0.0159619
0.0159749
0.0158894
0.0159004
0.00169844
0.00165561
0.00169267
0.00164966
0.0156794
0.0155283
0.0156031
0.0154512
0.00159031
0.00155137
0.00158405
0.00154489
0.0154614
0.0154606
0.0153839
0.0153831
0.00153326
0.0015332
0.00152667
0.00152662
0.0155258
0.0156752
0.0154487
0.0155989
0.00155121
0.00159005
0.00154473
0.00158378
0.0159688
0.0159534
0.0158942
0.0158807
0.00165526
0.00169802
0.0016493
0.00169225
0.0160773
0.0160934
0.016022
0.0160364
0.00170765
0.00166513
0.00170336
0.00166069
0.0158005
0.0156507
0.0157422
0.0155916
0.00160038
0.00156182
0.00159568
0.00155694
0.0155845
0.0155837
0.015525
0.0155242
0.00154388
0.00154383
0.00153892
0.00153886
0.0156482
0.0157964
0.0155891
0.015738
0.00156165
0.00160012
0.00155677
0.00159542
0.0160873
0.0160687
0.0160303
0.0160134
0.00166479
0.00170723
0.00166034
0.00170294
0.0161611
0.0161798
0.016121
0.0161383
0.00171418
0.00167192
0.00171118
0.0016688
0.0158892
0.0157405
0.0158466
0.0156972
0.00160761
0.00156937
0.00160428
0.00156589
0.0156752
0.0156744
0.0156313
0.0156305
0.00155157
0.00155152
0.00154803
0.00154797
0.0157381
0.0158851
0.0156947
0.0158424
0.00156921
0.00160736
0.00156573
0.00160402
0.0161738
0.0161526
0.0161323
0.0161125
0.00167158
0.00171377
0.00166846
0.00171077
0.0162169
0.0162378
0.0161905
0.0162102
0.00171834
0.00167627
0.0017165
0.00167433
0.015949
0.0158013
0.0159204
0.0157721
0.00161235
0.00157436
0.00161023
0.00157212
0.0157368
0.015736
0.0157071
0.0157063
0.00155667
0.00155662
0.00155439
0.00155433
0.0157989
0.0159449
0.0157696
0.0159162
0.0015742
0.00161209
0.00157196
0.00160998
0.0162318
0.0162084
0.0162041
0.016182
0.00167593
0.00171793
0.00167399
0.00171609
0.0162475
0.0162702
0.0162333
0.016255
0.00172035
0.00167843
0.00171956
0.00167756
0.0159828
0.0158358
0.0159668
0.0158194
0.00161483
0.00157705
0.00161381
0.00157593
0.0157718
0.015771
0.0157551
0.0157543
0.00155947
0.00155941
0.0015583
0.00155825
0.0158334
0.0159787
0.015817
0.0159627
0.00157689
0.00161458
0.00157577
0.00161356
0.0162642
0.016239
0.016249
0.0162248
0.0016781
0.00171995
0.00167723
0.00171915
0.0162547
0.0162791
0.0162519
0.0162755
0.0017204
0.00167858
0.00172056
0.0016787
0.0159927
0.0158462
0.0159885
0.0158417
0.00161525
0.00157763
0.00161525
0.00157756
0.0157824
0.0157817
0.0157777
0.015777
0.00156013
0.00156007
0.00156002
0.00155996
0.0158438
0.0159886
0.0158393
0.0159844
0.00157747
0.00161499
0.0015774
0.001615
0.0162731
0.0162462
0.0162695
0.0162434
0.00167825
0.00172
0.00167836
0.00172015
0.0162405
0.0162665
0.0162483
0.0162735
0.00171867
0.00167693
0.00171974
0.00167796
0.0159805
0.0158347
0.0159873
0.015841
0.00161383
0.00157635
0.00161476
0.00157722
0.0157712
0.0157704
0.0157774
0.0157766
0.00155892
0.00155887
0.00155975
0.0015597
0.0158323
0.0159765
0.0158387
0.0159832
0.00157619
0.00161358
0.00157706
0.00161451
0.0162605
0.0162321
0.0162675
0.0162399
0.0016766
0.00171827
0.00167763
0.00171934
0.0162061
0.0162335
0.0162238
0.0162504
0.00171522
0.00167351
0.00171711
0.00167538
0.0159475
0.0158022
0.0159643
0.0158186
0.0016106
0.00157323
0.00161239
0.00157496
0.015739
0.0157383
0.0157552
0.0157545
0.00155585
0.0015558
0.00155756
0.00155751
0.0157998
0.0159434
0.0158162
0.0159602
0.00157307
0.00161035
0.00157481
0.00161214
0.0162276
0.0161977
0.0162444
0.0162154
0.00167318
0.00171482
0.00167505
0.00171671
0.0161524
0.0161813
0.0161796
0.0162077
0.00171016
0.00166845
0.00171285
0.00167114
0.015895
0.01575
0.0159214
0.0157762
0.00160571
0.00156841
0.00160832
0.00157099
0.0156871
0.0156863
0.0157131
0.0157123
0.00155108
0.00155102
0.00155363
0.00155358
0.0157477
0.0158909
0.0157738
0.0159173
0.00156826
0.00160546
0.00157083
0.00160807
0.0161754
0.016144
0.0162018
0.0161713
0.00166813
0.00170976
0.00167081
0.00171245
0.0160801
0.0161106
0.0161166
0.0161462
0.00170352
0.0016618
0.00170699
0.00166528
0.0158236
0.0156788
0.0158594
0.0157144
0.0015992
0.00156196
0.00160261
0.00156535
0.015616
0.0156152
0.0156515
0.0156507
0.00154465
0.00154459
0.00154802
0.00154797
0.0156765
0.0158196
0.0157121
0.0158554
0.0015618
0.00159895
0.00156519
0.00160237
0.0161047
0.0160718
0.0161403
0.0161083
0.00166147
0.00170313
0.00166495
0.00170659
0.0159895
0.0160217
0.0160351
0.0160663
0.00169535
0.00165358
0.00169959
0.00165783
0.0157337
0.015589
0.0157787
0.0156339
0.00159111
0.0015539
0.00159531
0.00155809
0.0155263
0.0155255
0.015571
0.0155702
0.0015366
0.00153655
0.00154078
0.00154073
0.0155867
0.0157297
0.0156315
0.0157747
0.00155375
0.00159086
0.00155793
0.00159506
0.0160158
0.0159813
0.0160604
0.0160268
0.00165325
0.00169495
0.00165751
0.00169919
0.015881
0.0159149
0.0159355
0.0159684
0.00168566
0.00164381
0.00169065
0.00164884
0.0156256
0.0154809
0.0156797
0.0155348
0.00158146
0.00154426
0.00158644
0.00154924
0.0154182
0.0154174
0.0154721
0.0154713
0.00152697
0.00152691
0.00153194
0.00153189
0.0154785
0.0156217
0.0155325
0.0156757
0.00154411
0.00158122
0.00154908
0.0015862
0.0159091
0.0158727
0.0159626
0.0159273
0.00164349
0.00168527
0.00164852
0.00169026
0.0157546
0.0157904
0.0158181
0.0158528
0.00167446
0.00163252
0.00168021
0.00163831
0.0154995
0.0153545
0.0155626
0.0154176
0.00157027
0.00153305
0.00157602
0.00153881
0.0152918
0.0152911
0.0153548
0.0153541
0.00151575
0.00151569
0.00152151
0.00152146
0.0153522
0.0154955
0.0154153
0.0155586
0.0015329
0.00157002
0.00153866
0.00157578
0.0157846
0.0157464
0.015847
0.0158098
0.00163219
0.00167407
0.00163799
0.00167982
0.0156103
0.0156482
0.0156827
0.0157194
0.00166176
0.00161968
0.00166826
0.00162625
0.0153553
0.0152099
0.0154274
0.0152821
0.00155751
0.00152026
0.00156405
0.00152681
0.0151472
0.0151464
0.0152193
0.0152186
0.00150293
0.00150288
0.0015095
0.00150945
0.0152076
0.0153513
0.0152798
0.0154235
0.00152011
0.00155727
0.00152666
0.0015638
0.0156424
0.0156022
0.0157137
0.0156745
0.00161936
0.00166137
0.00162592
0.00166787
0.015448
0.0154881
0.0155295
0.0155683
0.00164753
0.00160529
0.00165479
0.00161264
0.0151928
0.0150469
0.0152741
0.0151283
0.00154319
0.00150586
0.00155051
0.00151322
0.0149841
0.0149833
0.0150655
0.0150647
0.00148849
0.00148844
0.00149588
0.00149583
0.0150446
0.0151889
0.015126
0.0152701
0.00150571
0.00154294
0.00151307
0.00155027
0.0154823
0.01544
0.0155625
0.0155214
0.00160497
0.00164714
0.00161232
0.00165441
0.0152675
0.0153097
0.0153581
0.0153991
0.00163176
0.00158933
0.0016398
0.00159747
0.0150117
0.0148652
0.0151024
0.014956
0.00152725
0.00148982
0.00153539
0.00149801
0.0148022
0.0148015
0.0148931
0.0148923
0.0014724
0.00147235
0.00148062
0.00148057
0.0148629
0.0150078
0.0149537
0.0150985
0.00148967
0.00152701
0.00149786
0.00153514
0.015304
0.0152595
0.0153934
0.0153501
0.00158901
0.00163137
0.00159715
0.00163941
0.0150683
0.0151125
0.0151683
0.0152114
0.00161441
0.00157175
0.00162324
0.0015807
0.0148116
0.0146642
0.0149118
0.0147648
0.00150967
0.0014721
0.00151863
0.00148114
0.0146011
0.0146004
0.0147016
0.0147009
0.00145461
0.00145456
0.00146369
0.00146363
0.0146619
0.0148077
0.0147625
0.0149079
0.00147195
0.00150943
0.00148099
0.00151839
0.0151068
0.0150603
0.0152057
0.0151603
0.00157143
0.00161403
0.00158038
0.00162286
0.0148498
0.014896
0.0149596
0.0150046
0.00159546
0.00155252
0.0016051
0.0015623
0.0145917
0.0144435
0.0147019
0.014554
0.00149038
0.00145263
0.00150021
0.00146255
0.0143802
0.0143795
0.0144907
0.01449
0.00143504
0.00143499
0.00144501
0.00144496
0.0144412
0.0145879
0.0145517
0.014698
0.00145248
0.00149014
0.0014624
0.00149997
0.0148903
0.014842
0.0149989
0.0149516
0.0015522
0.00159508
0.00156198
0.00160472
0.0146115
0.0146594
0.0147313
0.0147782
0.00157486
0.00153161
0.00158533
0.00154224
0.0143514
0.014202
0.014472
0.014323
0.00146933
0.00143134
0.00148005
0.00144218
0.0141386
0.0141379
0.0142596
0.0142589
0.00141363
0.00141358
0.00142454
0.00142449
0.0141998
0.0143476
0.0143208
0.0144682
0.00143119
0.00146909
0.00144203
0.00147981
0.0146538
0.0146037
0.0147726
0.0147235
0.00153129
0.00157448
0.00154192
0.00158495
0.0143521
0.0144012
0.0144827
0.014531
0.00155254
0.00150892
0.00156388
0.00152045
0.0140893
0.0139388
0.014221
0.0140709
0.00144641
0.00140812
0.00145807
0.00141994
0.0138753
0.0138745
0.0140073
0.0140066
0.00139026
0.00139021
0.00140216
0.00140211
0.0139365
0.0140855
0.0140686
0.0142172
0.00140797
0.00144617
0.00141979
0.00145783
0.0143956
0.0143444
0.0145254
0.0144749
0.00150861
0.00155216
0.00152014
0.0015635
0.01407
0.0141199
0.0142122
0.0142615
0.00152841
0.00148438
0.00154067
0.00149685
0.013804
0.0136521
0.0139475
0.0137961
0.00142152
0.00138285
0.00143419
0.00139571
0.0135885
0.0135877
0.0137325
0.0137317
0.00136481
0.00136476
0.00137777
0.00137772
0.0136498
0.0138001
0.0137939
0.0139437
0.0013827
0.00142129
0.00139556
0.00143395
0.0141144
0.0140624
0.014256
0.0142044
0.00148406
0.00152803
0.00149653
0.00154029
0.0137632
0.0138135
0.013918
0.013968
0.00150239
0.0014579
0.00151561
0.00147134
0.0134933
0.0133398
0.0136498
0.013497
0.00139454
0.00135536
0.00140827
0.00136936
0.0132761
0.0132754
0.0134333
0.0134325
0.00133708
0.00133703
0.00135121
0.00135116
0.0133376
0.0134895
0.0134947
0.013646
0.00135521
0.0013943
0.00136921
0.00140803
0.013808
0.0137557
0.0139625
0.0139104
0.00145758
0.00150201
0.00147103
0.00151523
0.0134291
0.0134794
0.0135979
0.0136481
0.00147443
0.00142944
0.00148861
0.00144388
0.0131545
0.0129988
0.0133255
0.0131709
0.00136529
0.00132541
0.00138018
0.00134068
0.0129347
0.012934
0.0131069
0.0131062
0.0013068
0.00130674
0.00132225
0.0013222
0.0129966
0.0131507
0.0131686
0.0133217
0.00132526
0.00136505
0.00134053
0.00137994
0.0134739
0.0134217
0.0136426
0.0135904
0.00142913
0.00147405
0.00144356
0.00148824
0.0130665
0.013115
0.0132495
0.0132992
0.00144477
0.00139912
0.00145973
0.00141446
0.0127832
0.0126237
0.0129712
0.0128137
0.00133349
0.00129254
0.00134971
0.00130935
0.012559
0.0125583
0.0127492
0.0127485
0.00127344
0.00127339
0.00129051
0.00129046
0.0126215
0.0127795
0.0128115
0.0129675
0.00129239
0.00133325
0.0013092
0.00134947
0.0131097
0.0130592
0.0132938
0.0132421
0.00139881
0.0014444
0.00141415
0.00145936
0.0126885
0.0127165
0.012875
0.0129186
0.0014152
0.00136707
0.00142968
0.00138332
0.0123697
0.0122065
0.0125807
0.0124187
0.00129821
0.00125579
0.00131638
0.00127471
0.0121429
0.0121422
0.0123539
0.0123532
0.00123616
0.00123611
0.00125532
0.00125527
0.0122044
0.0123661
0.0124165
0.0125771
0.00125564
0.00129798
0.00127456
0.00131614
0.0127113
0.0126814
0.0129134
0.0128678
0.00136676
0.00141484
0.00138301
0.00142931
0.0123923
0.0122448
0.0125178
0.0124958
0.00139079
0.00132557
0.00140236
0.00134912
0.0118937
0.0117475
0.0121383
0.0119783
0.00125573
0.00121359
0.00127827
0.00123541
0.011694
0.0116933
0.0119181
0.0119174
0.00119419
0.00119414
0.00121573
0.00121568
0.0117454
0.0118903
0.0119763
0.0121348
0.00121344
0.0012555
0.00123526
0.00127804
0.01224
0.0123856
0.0124907
0.0125109
0.00132528
0.00139043
0.00134882
0.001402
0.0128529
0.0123728
0.0103882
0.0100005
0.00996538
0.00952085
0.00783674
0.00748509
0.011632
0.0114009
0.00918295
0.00889922
0.00878437
0.00854424
0.00666183
0.00634733
0.0114441
0.0114415
0.008932
0.00892999
0.00858493
0.00858341
0.00636681
0.0063658
0.0113923
0.0116167
0.00889182
0.00916878
0.00853871
0.00877388
0.00634274
0.00665212
0.0123517
0.0128265
0.0099803
0.0103622
0.00950597
0.00994624
0.00747078
0.00781785
0.0174697
0.0170496
0.015206
0.0147477
0.013573
0.013203
0.011843
0.0114267
0.016456
0.0163073
0.0140837
0.0138996
0.0126334
0.0124862
0.0107795
0.0105956
0.0163546
0.0163513
0.013947
0.013944
0.0125272
0.0125251
0.01064
0.0106381
0.016297
0.0164388
0.0138901
0.0140674
0.0124794
0.0126217
0.0105894
0.0107684
0.0170265
0.0174414
0.0147257
0.0151787
0.0131869
0.0135527
0.0114112
0.0118234
0.0216313
0.0212748
0.0196138
0.0192278
0.0166433
0.0163468
0.0151693
0.0148393
0.0207785
0.0206661
0.0186884
0.0185611
0.0158809
0.0157675
0.014328
0.0142014
0.0207042
0.0207005
0.0186039
0.0186003
0.015794
0.0157916
0.0142349
0.0142326
0.0206548
0.02076
0.0185502
0.0186705
0.0157602
0.0158685
0.0141943
0.0143159
0.0212501
0.021601
0.0192039
0.0195845
0.0163298
0.0166218
0.0148228
0.0151484
0.0252332
0.0249219
0.0234997
0.0231676
0.0192146
0.0189701
0.0179856
0.0177169
0.0244863
0.024389
0.0227043
0.0226001
0.0185673
0.0184671
0.0172856
0.0171794
0.024417
0.024413
0.0226325
0.0226286
0.0184809
0.0184784
0.0171986
0.0171962
0.0243772
0.0244671
0.0225885
0.0226853
0.0184595
0.0185547
0.0171719
0.017273
0.0248963
0.0252015
0.0231423
0.0234686
0.0189527
0.0191925
0.0176997
0.0179638
0.0282845
0.0280076
0.0268208
0.0265275
0.0213464
0.0211384
0.0203278
0.0201031
0.0276139
0.0275249
0.026114
0.0260206
0.0207777
0.0206844
0.0197227
0.0196259
0.0275452
0.0275411
0.026044
0.0260399
0.0206898
0.0206872
0.0196346
0.0196321
0.0275128
0.0275944
0.0260086
0.0260945
0.0206767
0.0207649
0.0196182
0.01971
0.0279815
0.0282521
0.0265015
0.0267887
0.0211209
0.0213241
0.0200856
0.0203055
0.0308464
0.0305965
0.0296181
0.0293553
0.0231079
0.0229267
0.022266
0.0220721
0.0302339
0.0301507
0.0289777
0.0288912
0.0225961
0.0225079
0.0217272
0.0216361
0.0301659
0.0301618
0.0289083
0.0289042
0.0225081
0.0225056
0.0216382
0.0216357
0.0301386
0.0302142
0.0288791
0.0289581
0.0225003
0.0225835
0.0216285
0.0217145
0.0305701
0.0308136
0.029329
0.0295854
0.0229093
0.0230855
0.0220546
0.0222436
0.0329894
0.0327612
0.031962
0.0317233
0.0245625
0.0244023
0.0238666
0.0236963
0.0324227
0.0323444
0.031373
0.0312918
0.0240946
0.0240106
0.0233776
0.0232911
0.0323565
0.0323524
0.0313049
0.0313008
0.0240078
0.0240053
0.0232893
0.0232868
0.0323324
0.0324032
0.0312797
0.0313533
0.0240031
0.0240822
0.0232836
0.023365
0.0327348
0.0329565
0.0316968
0.0319291
0.024385
0.0245401
0.023679
0.0238442
0.0347797
0.0345687
0.0339209
0.0337015
0.0257649
0.0256214
0.0251889
0.0250374
0.0342496
0.0341756
0.0333729
0.0332963
0.0253317
0.0252514
0.0247388
0.0246563
0.0341857
0.0341817
0.0333068
0.0333028
0.0252467
0.0252442
0.0246522
0.0246497
0.0341637
0.0342302
0.0332843
0.0333533
0.025244
0.0253195
0.0246489
0.0247265
0.0345424
0.0347466
0.0336751
0.0338878
0.0256044
0.0257427
0.0250202
0.0251666
0.0362726
0.0360753
0.0355561
0.0353521
0.0267584
0.0266286
0.026282
0.0261455
0.0357718
0.0357016
0.0350408
0.0349683
0.0263533
0.0262762
0.0258631
0.025784
0.0357104
0.0357064
0.0349773
0.0349733
0.0262703
0.0262679
0.0257784
0.0257759
0.0356897
0.0357524
0.0349564
0.0350214
0.0262689
0.0263412
0.0257767
0.0258509
0.036049
0.0362395
0.0353258
0.035523
0.0266117
0.0267363
0.0261285
0.0262598
0.0375141
0.0373279
0.0369181
0.0367263
0.0275787
0.0274604
0.0271849
0.027061
0.0370373
0.0369706
0.0364292
0.0363603
0.0271964
0.0271221
0.0267913
0.0267152
0.0369788
0.0369748
0.0363685
0.0363645
0.0271155
0.0271131
0.0267087
0.0267063
0.0369588
0.0370181
0.0363484
0.0364098
0.0271149
0.0271844
0.026708
0.0267792
0.0373017
0.037481
0.0367001
0.0368849
0.0274436
0.0275567
0.0270441
0.0271629
0.038542
0.0383649
0.0380484
0.0378668
0.0282532
0.0281444
0.0279292
0.0278157
0.0380852
0.0380215
0.0375814
0.0375158
0.0278898
0.0278179
0.0275563
0.0274828
0.0380295
0.0380256
0.0375236
0.0375196
0.0278109
0.0278085
0.0274758
0.0274734
0.0380098
0.038066
0.037504
0.0375622
0.0278107
0.0278778
0.0274757
0.0275443
0.0383388
0.0385089
0.0378406
0.0380152
0.0281277
0.0282312
0.0277989
0.0279072
0.0393876
0.0392182
0.0389816
0.0388083
0.0288043
0.0287034
0.0285395
0.0284346
0.0389475
0.0388867
0.0385329
0.0384703
0.0284566
0.0283869
0.0281837
0.0281126
0.0388947
0.0388908
0.038478
0.038474
0.0283798
0.0283775
0.0281054
0.028103
0.0388751
0.0389284
0.0384586
0.0385137
0.0283798
0.0284447
0.0281055
0.0281719
0.0391921
0.0393545
0.0387822
0.0389484
0.0286868
0.0287824
0.028418
0.0285176
0.0400762
0.0399132
0.0397458
0.0395795
0.0292499
0.0291555
0.0290358
0.0289381
0.0396503
0.0395921
0.0393125
0.0392526
0.0289152
0.0288476
0.0286944
0.0286254
0.0396003
0.0395964
0.0392604
0.0392565
0.0288407
0.0288383
0.0286182
0.0286158
0.0395805
0.0396312
0.0392409
0.0392934
0.0288406
0.0289035
0.0286184
0.0286826
0.0398872
0.0400431
0.0395534
0.0397125
0.0291389
0.0292281
0.0289215
0.0290139
0.0406291
0.0404714
0.0403641
0.0402036
0.0296047
0.0295156
0.0294343
0.0293425
0.0402151
0.0401593
0.0399438
0.0398864
0.0292809
0.0292152
0.0291048
0.0290378
0.0401678
0.0401639
0.0398945
0.0398906
0.0292085
0.0292062
0.0290308
0.0290285
0.0401477
0.0401961
0.0398748
0.0399247
0.0292082
0.0292692
0.0290308
0.0290931
0.0404454
0.0405958
0.0401776
0.0403308
0.0294991
0.0295828
0.0293259
0.0294124
0.0410631
0.04091
0.0408556
0.0407001
0.0298802
0.0297956
0.0297481
0.0296612
0.0406594
0.0406058
0.0404464
0.0403913
0.0295657
0.0295018
0.0294287
0.0293635
0.0406148
0.0406109
0.0403998
0.0403959
0.0294954
0.0294931
0.0293568
0.0293545
0.0405943
0.0406404
0.0403797
0.0404273
0.0294948
0.0295541
0.0293566
0.029417
0.040884
0.0410299
0.040674
0.0408223
0.0297792
0.0298584
0.0296447
0.0297263
0.0413925
0.0412433
0.0412357
0.0410844
0.0300861
0.0300053
0.0299877
0.029905
0.0409975
0.040946
0.0408359
0.0407829
0.0297795
0.0297171
0.0296769
0.0296134
0.0409555
0.0409516
0.0407919
0.040788
0.0297112
0.0297089
0.0296071
0.0296047
0.0409344
0.0409785
0.0407714
0.0408169
0.0297102
0.0297679
0.0296064
0.0296652
0.0412172
0.0413592
0.0410583
0.0412023
0.0299889
0.0300643
0.0298885
0.0299659
0.0416288
0.0414828
0.0415172
0.0413694
0.0302301
0.0301524
0.0301618
0.0300824
0.0412412
0.0411916
0.0411255
0.0410745
0.0299301
0.0298692
0.0298581
0.0297962
0.0412015
0.0411977
0.0410839
0.0410801
0.0298638
0.0298615
0.0297904
0.0297881
0.04118
0.0412222
0.0410629
0.0411065
0.0298623
0.0299185
0.0297892
0.0298465
0.0414568
0.0415955
0.0413433
0.0414838
0.030136
0.0302083
0.030066
0.0301399
0.0417801
0.041637
0.0417102
0.0415655
0.030318
0.0302431
0.0302772
0.0302007
0.0413994
0.0413518
0.0413255
0.0412763
0.0300239
0.0299643
0.0299796
0.029919
0.0413624
0.0413585
0.0412863
0.0412825
0.0299594
0.0299571
0.0299137
0.0299114
0.0413402
0.0413804
0.0412648
0.0413066
0.0299574
0.0300123
0.0299121
0.029968
0.041611
0.0417468
0.0415395
0.0416767
0.0302267
0.0302962
0.0301843
0.0302553
0.0418563
0.0417155
0.0418227
0.0416804
0.0303553
0.0302824
0.0303387
0.0302647
0.0414806
0.041434
0.0414438
0.0413964
0.0300654
0.0300069
0.0300466
0.0299875
0.041445
0.0414411
0.0414071
0.0414032
0.0300023
0.0300001
0.0299827
0.0299804
0.0414225
0.0414617
0.0413849
0.0414249
0.03
0.0300539
0.0299806
0.030035
0.0416895
0.0418229
0.0416544
0.0417892
0.0302661
0.0303335
0.0302483
0.0303169
0.0418612
0.0417224
0.0418627
0.0417228
0.0303454
0.0302743
0.0303523
0.0302803
0.0414904
0.0414454
0.0414891
0.041443
0.0300596
0.0300024
0.0300644
0.0300063
0.0414571
0.0414532
0.0414542
0.0414503
0.0299984
0.0299962
0.0300019
0.0299996
0.0414339
0.0414715
0.0414315
0.0414702
0.0299955
0.0300481
0.0299994
0.0300528
0.0416965
0.0418279
0.0416968
0.0418293
0.0302581
0.0303236
0.030264
0.0303305
0.0418003
0.0416633
0.0418342
0.0416961
0.0302916
0.030222
0.0303201
0.0302496
0.0414333
0.0413896
0.0414648
0.04142
0.0300088
0.0299527
0.0300354
0.0299784
0.0414019
0.0413981
0.0414317
0.0414279
0.0299492
0.029947
0.0299745
0.0299722
0.0413782
0.0414145
0.0414085
0.0414459
0.0299459
0.0299973
0.0299716
0.0300239
0.0416374
0.041767
0.0416702
0.0418008
0.0302058
0.0302699
0.0302334
0.0302983
0.0416771
0.0415417
0.0417418
0.0416054
0.0301963
0.0301279
0.0302453
0.0301762
0.0413135
0.0412709
0.0413759
0.0413324
0.0299159
0.0298608
0.0299633
0.0299074
0.0412837
0.0412799
0.0413447
0.0413408
0.0298577
0.0298555
0.0299039
0.0299016
0.0412595
0.0412947
0.0413209
0.0413571
0.0298539
0.0299044
0.0299005
0.0299518
0.0415159
0.041644
0.0415795
0.0417085
0.0301118
0.0301746
0.03016
0.0302236
0.0414942
0.0413601
0.0415885
0.0414535
0.0300609
0.0299936
0.0301298
0.0300618
0.0411333
0.0410916
0.0412256
0.0411831
0.0297824
0.0297281
0.0298499
0.0297949
0.041105
0.0411012
0.041196
0.0411921
0.0297255
0.0297233
0.0297919
0.0297896
0.0410803
0.0411145
0.0411717
0.0412069
0.0297213
0.029771
0.0297881
0.0298385
0.0413344
0.0414613
0.0414278
0.0415554
0.0299775
0.0300394
0.0300457
0.0301082
0.0412532
0.0411202
0.0413764
0.0412427
0.0298866
0.0298201
0.0299749
0.0299078
0.0408944
0.0408536
0.0410159
0.0409743
0.0296095
0.0295559
0.0296966
0.0296423
0.0408675
0.0408637
0.0409877
0.0409839
0.0295537
0.0295514
0.0296398
0.0296375
0.0408423
0.0408757
0.040963
0.0409972
0.0295491
0.0295981
0.0296356
0.0296853
0.0410947
0.0412204
0.041217
0.0413434
0.0298041
0.0298652
0.0298917
0.0299534
0.0409551
0.0408231
0.0411068
0.0409741
0.0296739
0.0296081
0.0297813
0.029715
0.0405978
0.0405577
0.0407481
0.0407073
0.0293977
0.0293446
0.0295042
0.0294506
0.0405721
0.0405683
0.0407212
0.0407174
0.0293428
0.0293406
0.0294484
0.0294461
0.0405464
0.0405793
0.040696
0.0407296
0.0293379
0.0293864
0.0294438
0.0294929
0.0407976
0.0409225
0.0409485
0.041074
0.0295922
0.0296526
0.029699
0.0297599
0.0406002
0.0404689
0.0407803
0.0406484
0.0294232
0.0293579
0.0295496
0.0294839
0.0402438
0.0402043
0.0404229
0.0403827
0.0291473
0.0290946
0.0292732
0.02922
0.0402191
0.0402154
0.040397
0.0403933
0.0290932
0.029091
0.0292181
0.0292159
0.0401931
0.0402254
0.0403714
0.0404044
0.0290879
0.0291361
0.0292132
0.0292619
0.0404436
0.0405678
0.0406231
0.0407477
0.029342
0.029402
0.029468
0.0295284
0.0401881
0.0400573
0.0403969
0.0402657
0.0291342
0.0290692
0.0292799
0.0292145
0.0398321
0.039793
0.0400402
0.0400004
0.0288581
0.0288057
0.0290034
0.0289505
0.0398082
0.0398045
0.0400152
0.0400115
0.0288045
0.0288023
0.0289491
0.0289468
0.0397818
0.0398138
0.0399893
0.0400219
0.028799
0.028847
0.0289439
0.0289922
0.0400323
0.0401561
0.0402405
0.0403646
0.0290535
0.0291132
0.0291987
0.0292588
0.039718
0.0395875
0.0399561
0.0398252
0.0288065
0.0287416
0.0289717
0.0289065
0.0393617
0.0393227
0.0395993
0.0395598
0.0285296
0.0284771
0.0286947
0.0286419
0.0393383
0.0393346
0.039575
0.0395713
0.0284763
0.0284741
0.0286407
0.0286385
0.0393117
0.0393435
0.0395487
0.0395811
0.0284705
0.0285185
0.0286353
0.0286836
0.0395627
0.0396863
0.0398003
0.0399241
0.028726
0.0287858
0.0288908
0.0289507
0.0391882
0.0390577
0.0394564
0.0393257
0.0284392
0.028374
0.0286244
0.0285591
0.0388307
0.0387918
0.0390989
0.0390596
0.0281606
0.0281081
0.0283461
0.0282933
0.0388078
0.0388041
0.0390751
0.0390714
0.0281075
0.0281053
0.0282924
0.0282902
0.0387808
0.0388127
0.0390486
0.0390809
0.0281015
0.0281496
0.0282867
0.0283351
0.0390332
0.0391569
0.039301
0.0394248
0.0283586
0.0284187
0.0285436
0.0286036
0.0385965
0.0384655
0.038896
0.0387651
0.028031
0.0279651
0.0282368
0.0281711
0.0382368
0.0381978
0.0385369
0.0384975
0.0277499
0.027697
0.0279565
0.0279035
0.0382141
0.0382105
0.0385134
0.0385097
0.0276966
0.0276944
0.0279028
0.0279006
0.038187
0.038219
0.0384866
0.038519
0.0276905
0.027739
0.0278969
0.0279456
0.0384412
0.0385655
0.0387407
0.0388648
0.0279498
0.0280106
0.0281557
0.0282163
0.0379396
0.0378078
0.0382722
0.0381406
0.02758
0.0275131
0.0278075
0.0277409
0.0375768
0.0375376
0.0379105
0.0378709
0.0272955
0.027242
0.0275242
0.0274708
0.0375542
0.0375506
0.0378872
0.0378835
0.0272419
0.0272397
0.0274703
0.0274681
0.0375268
0.0375592
0.0378601
0.0378927
0.0272356
0.0272846
0.0274643
0.0275134
0.0377838
0.037909
0.0381164
0.0382413
0.027498
0.0275599
0.0277256
0.0277872
0.0372137
0.0370805
0.0375815
0.0374488
0.0270841
0.0270158
0.0273345
0.0272668
0.0368465
0.0368068
0.037216
0.0371761
0.0267949
0.0267406
0.0270472
0.026993
0.0368237
0.0368201
0.0371926
0.037189
0.0267406
0.0267385
0.0269927
0.0269906
0.0367962
0.0368291
0.0371654
0.0371985
0.0267342
0.0267841
0.0269866
0.0270364
0.0370568
0.0371836
0.0374249
0.0375511
0.0270008
0.0270643
0.0272517
0.0273145
0.0364132
0.036278
0.0368192
0.0366848
0.0265398
0.0264694
0.0268149
0.0267455
0.0360406
0.036
0.0364488
0.0364082
0.0262445
0.0261893
0.0265223
0.0264672
0.0360171
0.0360136
0.036425
0.0364214
0.0261894
0.0261873
0.0264671
0.0264649
0.0359894
0.0360234
0.0363976
0.0364314
0.0261829
0.0262339
0.0264608