/*--------------------------------*- C++ -*----------------------------------*\
  =========                 |
  \\      /  F ield         | OpenFOAM: The Open Source CFD Toolbox
   \\    /   O peration     | Website:  https://openfoam.org
    \\  /    A nd           | Version:  9
     \\/     M anipulation  |
\*---------------------------------------------------------------------------*/
FoamFile
{
    format      ascii;
    class       surfaceScalarField;
    location    "4.7";
    object      phi;
}
// * * * * * * * * * * * * * * * * * * * * * * * * * * * * * * * * * * * * * //

dimensions      [0 3 -1 0 0 0 0];

internalField   nonuniform List<scalar> 
104044
(
1.08466e-06
-7.16219e-05
-4.05569e-06
6.88741e-05
5.71886e-06
-4.52205e-05
2.16745e-06
-4.3268e-07
4.77978e-05
-3.22742e-06
8.79494e-07
-7.62642e-06
7.638e-06
3.82067e-06
-3.62616e-07
-4.10465e-06
-4.71351e-07
-8.97723e-05
8.6188e-05
-2.95659e-05
2.57831e-07
3.10042e-05
-2.54287e-07
1.25511e-07
-3.41428e-08
-4.93688e-05
-2.75358e-06
4.92419e-05
2.48191e-06
-5.15262e-05
-2.19021e-06
-7.17912e-10
5.13015e-05
2.38148e-06
-2.68774e-08
-2.52932e-06
1.84307e-06
-2.28461e-06
4.66726e-11
2.04384e-06
3.00806e-09
-4.56045e-05
4.31057e-05
-5.29259e-05
-7.38052e-10
5.07395e-05
-9.34848e-09
-2.62932e-09
5.5709e-12
-5.25704e-05
-1.97114e-06
5.23602e-05
2.18061e-06
-5.2571e-05
-1.97106e-06
7.20091e-10
5.23608e-05
2.18057e-06
6.86237e-12
-2.08687e-06
1.91231e-06
-2.08667e-06
-4.14846e-11
1.91219e-06
1.59747e-12
-5.531e-05
5.33381e-05
-5.53113e-05
7.36569e-10
5.33395e-05
-1.97862e-12
2.62073e-09
3.41184e-08
-5.15276e-05
-2.19018e-06
5.13029e-05
2.38148e-06
-4.93699e-05
-2.75421e-06
4.32349e-07
4.92429e-05
2.48296e-06
2.68387e-08
-2.28418e-06
2.04362e-06
-2.52953e-06
3.62213e-07
1.84388e-06
-2.96474e-09
-5.29308e-05
5.07444e-05
-4.5614e-05
-2.57352e-07
4.31142e-05
9.34934e-09
-1.25186e-07
-1.08341e-06
-4.52177e-05
2.16051e-06
4.77936e-05
-3.22059e-06
-7.16151e-05
-4.05093e-06
6.88706e-05
5.712e-06
-8.78102e-07
3.8134e-06
-4.09862e-06
-7.61606e-06
7.62801e-06
4.70174e-07
-2.95724e-05
3.10054e-05
-8.97559e-05
8.61751e-05
2.5349e-07
2.87029e-07
-6.65845e-05
-5.3628e-06
6.47877e-05
6.8726e-06
-4.93294e-05
5.22115e-06
-1.12713e-07
5.02774e-05
-5.76939e-06
6.11372e-07
-4.67057e-06
6.34875e-06
3.91177e-06
-2.317e-07
-4.60026e-06
-1.56926e-06
-8.25518e-05
7.87583e-05
-3.33689e-05
7.23199e-07
3.62976e-05
-1.0344e-06
5.12639e-07
2.92794e-08
-4.91799e-05
-1.14463e-06
4.92236e-05
9.5903e-07
-5.09848e-05
-1.27489e-06
4.7146e-09
5.06645e-05
1.61976e-06
-5.85509e-09
-1.89963e-06
1.73579e-06
-1.74901e-06
7.01944e-10
2.05914e-06
8.02247e-08
-4.16828e-05
4.11811e-05
-4.90245e-05
7.2971e-09
4.78225e-05
3.5974e-08
1.92164e-09
6.82344e-12
-5.20366e-05
-1.17738e-06
5.16578e-05
1.56087e-06
-5.20371e-05
-1.17743e-06
-4.68574e-09
5.16582e-05
1.56095e-06
4.24805e-12
-1.61178e-06
1.93617e-06
-1.61183e-06
-6.90417e-10
1.93623e-06
6.09979e-12
-5.17283e-05
5.05582e-05
-5.17296e-05
-7.26014e-09
5.05594e-05
3.01332e-12
-1.90851e-09
-2.91346e-08
-5.09861e-05
-1.27519e-06
5.06655e-05
1.62019e-06
-4.91805e-05
-1.146e-06
1.1277e-07
4.92234e-05
9.61114e-07
5.91521e-09
-1.74929e-06
2.05947e-06
-1.90089e-06
2.31656e-07
1.73758e-06
-8.00046e-08
-4.9029e-05
4.78266e-05
-4.16894e-05
-7.22341e-07
4.11858e-05
-3.58535e-08
-5.11966e-07
-2.87229e-07
-4.93247e-05
5.21527e-06
5.02727e-05
-5.76328e-06
-6.65825e-05
-5.357e-06
6.47863e-05
6.86593e-06
-6.11096e-07
3.90519e-06
-4.5936e-06
-4.66521e-06
6.34225e-06
1.56685e-06
-3.33661e-05
3.62922e-05
-8.25424e-05
7.87523e-05
1.03248e-06
-2.37952e-07
-6.32915e-05
-5.45846e-06
6.20266e-05
6.96138e-06
-5.09533e-05
5.82556e-06
5.9528e-09
5.14845e-05
-6.60069e-06
8.03788e-09
-5.42107e-06
6.90921e-06
5.61761e-06
-3.74959e-08
-6.24801e-06
-2.46601e-06
-7.5362e-05
7.23696e-05
-3.90093e-05
1.01544e-06
4.13534e-05
-2.02483e-06
8.81089e-07
1.63003e-07
-4.93549e-05
-3.91526e-07
4.95922e-05
-2.84086e-09
-5.04321e-05
-6.25354e-07
2.48008e-08
5.03e-05
8.95632e-07
9.47221e-08
-6.66754e-07
4.03211e-07
-8.90571e-07
1.35731e-08
1.20409e-06
1.80283e-07
-4.12639e-05
4.17075e-05
-4.70468e-05
2.92224e-08
4.65726e-05
1.3161e-07
1.67359e-08
-4.41746e-11
-5.13256e-05
-6.43842e-07
5.107e-05
9.24248e-07
-5.1326e-05
-6.43953e-07
-2.49296e-08
5.10704e-05
9.24419e-07
2.66201e-11
-8.48486e-07
1.19422e-06
-8.48546e-07
-1.34566e-08
1.19432e-06
-3.03747e-10
-4.97264e-05
4.91121e-05
-4.97276e-05
-3.02831e-08
4.91136e-05
-2.46253e-11
-1.67183e-08
-1.6256e-07
-5.04328e-05
-6.26196e-07
5.03005e-05
8.96195e-07
-4.93542e-05
-3.92116e-07
-5.96105e-09
4.95909e-05
-1.25597e-09
-9.44081e-08
-8.90934e-07
1.20458e-06
-6.6787e-07
3.75676e-08
4.05164e-07
-1.82377e-07
-4.70501e-05
4.6576e-05
-4.1267e-05
-1.01543e-06
4.17079e-05
-1.31138e-07
-8.80227e-07
2.37244e-07
-5.09489e-05
5.82143e-06
5.14803e-05
-6.59607e-06
-6.32907e-05
-5.45366e-06
6.20261e-05
6.95551e-06
-8.52132e-09
5.61273e-06
-6.24276e-06
-5.4158e-06
6.90292e-06
2.46283e-06
-3.90026e-05
4.13458e-05
-7.53586e-05
7.23677e-05
2.02211e-06
-6.3025e-07
-6.09762e-05
-5.33833e-06
6.00889e-05
6.85589e-06
-5.19051e-05
5.89383e-06
3.54257e-08
5.22446e-05
-6.89903e-06
-4.45519e-07
-5.34239e-06
6.8383e-06
5.81366e-06
2.93072e-08
-6.70905e-06
-3.13993e-06
-6.98273e-05
6.76289e-05
-4.32713e-05
1.16647e-06
4.48587e-05
-2.80014e-06
1.09564e-06
2.73945e-07
-4.98447e-05
-1.92454e-07
5.01222e-05
-3.23616e-07
-5.02576e-05
-2.8107e-07
5.12737e-08
5.02855e-05
4.75908e-07
2.18994e-07
-2.49523e-07
-1.92634e-07
-4.21418e-07
3.70155e-08
6.45808e-07
2.48713e-07
-4.23351e-05
4.30604e-05
-4.63256e-05
5.2227e-08
4.6241e-05
2.1855e-07
4.41137e-08
5.33171e-11
-5.08977e-05
-3.8046e-07
5.07962e-05
5.33177e-07
-5.08978e-05
-3.81327e-07
-5.04273e-08
5.07963e-05
5.33347e-07
1.54179e-10
-4.89144e-07
6.98375e-07
-4.88777e-07
-3.7015e-08
6.98495e-07
-2.2452e-09
-4.86657e-05
4.83397e-05
-4.86657e-05
-5.90378e-08
4.83412e-05
1.4168e-09
-3.94508e-08
-2.73161e-07
-5.02578e-05
-2.81031e-07
5.02853e-05
4.76295e-07
-4.98435e-05
-1.91766e-07
-3.56708e-08
5.01205e-05
-3.22642e-07
-2.19007e-07
-4.21603e-07
6.46275e-07
-2.51049e-07
-2.91876e-08
-1.91365e-07
-2.54287e-07
-4.63281e-05
4.62423e-05
-4.23368e-05
-1.168e-06
4.30587e-05
-2.13177e-07
-1.09306e-06
6.29251e-07
-5.19014e-05
5.89078e-06
5.2241e-05
-6.89527e-06
-6.09762e-05
-5.3342e-06
6.00889e-05
6.85077e-06
4.44824e-07
5.80965e-06
-6.70481e-06
-5.33824e-06
6.83297e-06
3.13609e-06
-4.32646e-05
4.48513e-05
-6.98272e-05
6.76291e-05
2.79774e-06
-9.08341e-07
-5.93475e-05
-5.22377e-06
5.87198e-05
6.75983e-06
-5.25207e-05
5.89886e-06
1.43583e-08
5.27501e-05
-7.05089e-06
-7.73929e-07
-5.2202e-06
6.7355e-06
5.83498e-06
2.87865e-08
-6.91379e-06
-3.62238e-06
-6.57767e-05
6.41753e-05
-4.61305e-05
1.2299e-06
4.71771e-05
-3.36799e-06
1.19514e-06
3.56251e-07
-5.0406e-05
-1.83521e-07
5.06907e-05
-4.43009e-07
-5.03666e-05
-1.02233e-07
7.83943e-08
5.04888e-05
2.5783e-07
3.15694e-07
-1.73993e-07
-3.96717e-07
-1.75103e-07
6.40798e-08
3.45609e-07
3.0681e-07
-4.38024e-05
4.4542e-05
-4.62769e-05
7.98637e-08
4.64016e-05
2.79054e-07
6.80833e-08
6.65977e-11
-5.07569e-05
-2.1922e-07
5.0768e-05
2.86388e-07
-5.07569e-05
-2.19333e-07
-7.82189e-08
5.0768e-05
2.86521e-07
1.14813e-10
-2.89058e-07
3.92323e-07
-2.8905e-07
-6.38946e-08
3.92464e-07
1.02682e-10
-4.81182e-05
4.79788e-05
-4.81188e-05
-7.97169e-08
4.79793e-05
5.07703e-10
-6.61688e-08
-3.55879e-07
-5.03662e-05
-1.02566e-07
5.04883e-05
2.58122e-07
-5.04043e-05
-1.83759e-07
-1.45153e-08
5.06889e-05
-4.42198e-07
-3.15277e-07
-1.7552e-07
3.45973e-07
-1.74421e-07
-2.88552e-08
-3.95796e-07
-3.06497e-07
-4.6278e-05
4.64022e-05
-4.38011e-05
-1.22932e-06
4.45401e-05
-2.77399e-07
-1.19419e-06
9.07435e-07
-5.25175e-05
5.89579e-06
5.27471e-05
-7.04739e-06
-5.93477e-05
-5.22037e-06
5.87201e-05
6.7554e-06
7.73052e-07
5.8318e-06
-6.91019e-06
-5.21655e-06
6.7308e-06
3.61935e-06
-4.61239e-05
4.7171e-05
-6.57776e-05
6.41766e-05
3.36502e-06
-1.1019e-06
-5.81927e-05
-5.13776e-06
5.77456e-05
6.68675e-06
-5.29449e-05
5.90592e-06
-2.76395e-08
5.31125e-05
-7.14781e-06
-1.00382e-06
-5.12047e-06
6.65137e-06
5.83883e-06
-5.16188e-09
-7.03234e-06
-3.96151e-06
-6.28237e-05
6.16474e-05
-4.80189e-05
1.24302e-06
4.87203e-05
-3.76881e-06
1.22826e-06
4.09464e-07
-5.09648e-05
-2.36865e-07
5.12302e-05
-4.65617e-07
-5.0638e-05
-1.80608e-08
1.04263e-07
5.08101e-05
1.51202e-07
3.82274e-07
-2.05936e-07
-4.5569e-07
-5.10136e-08
9.07111e-08
1.93397e-07
3.46552e-07
-4.52391e-05
4.58987e-05
-4.65857e-05
1.01152e-07
4.6813e-05
3.25229e-07
9.01236e-08
5.31393e-11
-5.08198e-05
-1.09134e-07
5.09055e-05
1.27705e-07
-5.08197e-05
-1.09233e-07
-1.04094e-07
5.09053e-05
1.27793e-07
5.63443e-11
-1.57792e-07
1.96631e-07
-1.57899e-07
-9.0547e-08
1.96742e-07
5.80949e-11
-4.7911e-05
4.7903e-05
-4.79114e-05
-1.00994e-07
4.79032e-05
6.84702e-11
-8.99505e-08
-4.09148e-07
-5.06373e-05
-1.82638e-08
5.08093e-05
1.51377e-07
-5.0963e-05
-2.36942e-07
2.73851e-08
5.12284e-05
-4.64992e-07
-3.81934e-07
-5.12886e-08
1.93623e-07
-2.0608e-07
4.95003e-09
-4.54989e-07
-3.46269e-07
-4.65859e-05
4.68129e-05
-4.52369e-05
-1.24261e-06
4.58963e-05
-3.24926e-07
-1.22779e-06
1.101e-06
-5.29423e-05
5.90306e-06
5.31102e-05
-7.14456e-06
-5.8193e-05
-5.13473e-06
5.7746e-05
6.68278e-06
1.00291e-06
5.83591e-06
-7.02901e-06
-5.11728e-06
6.64722e-06
3.95857e-06
-4.80133e-05
4.87152e-05
-6.28251e-05
6.1649e-05
3.76585e-06
-1.23414e-06
-5.73682e-05
-5.06753e-06
5.70481e-05
6.62172e-06
-5.32606e-05
5.90527e-06
-7.4737e-08
5.33919e-05
-7.19605e-06
-1.16228e-06
-5.04344e-06
6.5831e-06
5.84151e-06
-5.05475e-08
-7.10128e-06
-4.19237e-06
-6.06501e-05
5.97749e-05
-4.92898e-05
1.22996e-06
4.97728e-05
-4.04607e-06
1.22589e-06
4.39796e-07
-5.14807e-05
-2.97252e-07
5.17203e-05
-4.56885e-07
-5.09939e-05
2.50232e-08
1.26117e-07
5.11856e-05
9.69326e-08
4.22535e-07
-2.65679e-07
-4.57883e-07
5.87355e-09
1.14608e-07
1.18218e-07
3.72247e-07
-4.65017e-05
4.70621e-05
-4.70671e-05
1.17863e-07
4.73466e-05
3.57242e-07
1.08968e-07
5.56113e-11
-5.10161e-05
-3.42367e-08
5.11488e-05
2.7517e-08
-5.10159e-05
-3.43024e-08
-1.25945e-07
5.11486e-05
2.75472e-08
5.27691e-11
-6.65274e-08
7.04921e-08
-6.66056e-08
-1.14441e-07
7.05485e-08
5.76133e-11
-4.79454e-05
4.80289e-05
-4.79455e-05
-1.17708e-07
4.80289e-05
5.52979e-11
-1.08816e-07
-4.39512e-07
-5.09931e-05
2.48815e-08
5.11848e-05
9.69872e-08
-5.1479e-05
-2.97239e-07
7.44357e-08
5.17186e-05
-4.56378e-07
-4.22238e-07
5.69277e-09
1.18324e-07
-2.65705e-07
5.02691e-08
-4.5733e-07
-3.71987e-07
-4.70668e-05
4.73459e-05
-4.64992e-05
-1.22965e-06
4.70596e-05
-3.56975e-07
-1.22554e-06
1.23327e-06
-5.32584e-05
5.90257e-06
5.339e-05
-7.19298e-06
-5.73686e-05
-5.06476e-06
5.70485e-05
6.61809e-06
1.16139e-06
5.83876e-06
-7.09815e-06
-5.04056e-06
6.57933e-06
4.18956e-06
-4.92852e-05
4.97686e-05
-6.06516e-05
5.97764e-05
4.04322e-06
-1.3235e-06
-5.67767e-05
-5.00686e-06
5.65474e-05
6.55964e-06
-5.35126e-05
5.89673e-06
-1.19595e-07
5.3623e-05
-7.21105e-06
-1.27072e-06
-4.98237e-06
6.52455e-06
5.84041e-06
-9.66748e-08
-7.13514e-06
-4.34625e-06
-5.90281e-05
5.83675e-05
-5.01712e-05
1.20469e-06
5.0517e-05
-4.23559e-06
1.20638e-06
4.53461e-07
-5.19457e-05
-3.48176e-07
5.21611e-05
-4.40261e-07
-5.13803e-05
3.82826e-08
1.43746e-07
5.15795e-05
7.21996e-08
4.43918e-07
-3.21887e-07
-4.44076e-07
3.37652e-08
1.34285e-07
8.11865e-08
3.87212e-07
-4.75695e-05
4.80388e-05
-4.76343e-05
1.29632e-07
4.79302e-05
3.77143e-07
1.23134e-07
6.14487e-11
-5.12924e-05
1.84684e-08
5.14531e-05
-3.55699e-08
-5.12921e-05
1.84291e-08
-1.43563e-07
5.14529e-05
-3.55755e-08
5.81627e-11
-5.10294e-09
-4.18342e-09
-5.15924e-09
-1.34109e-07
-4.16717e-09
6.32264e-11
-4.81469e-05
4.82949e-05
-4.81468e-05
-1.29473e-07
4.82948e-05
5.99518e-11
-1.22979e-07
-4.53207e-07
-5.13794e-05
3.82421e-08
5.15786e-05
7.21739e-08
-5.19441e-05
-3.4812e-07
1.19272e-07
5.21595e-05
-4.39826e-07
-4.43653e-07
3.36851e-08
8.11969e-08
-3.2185e-07
9.63625e-08
-4.43612e-07
-3.86962e-07
-4.76335e-05
4.79293e-05
-4.7567e-05
-1.20444e-06
4.80363e-05
-3.76891e-07
-1.20611e-06
1.32268e-06
-5.35109e-05
5.89414e-06
5.36214e-05
-7.20813e-06
-5.67771e-05
-5.00428e-06
5.65478e-05
6.55627e-06
1.26989e-06
5.83779e-06
-7.13218e-06
-4.97971e-06
6.52108e-06
4.34358e-06
-5.01674e-05
5.05135e-05
-5.90296e-05
5.83689e-05
4.23287e-06
-1.38139e-06
-5.63523e-05
-4.94519e-06
5.61888e-05
6.49007e-06
-5.37282e-05
5.87367e-06
-1.59099e-07
5.38272e-05
-7.195e-06
-1.34209e-06
-4.92126e-06
6.45843e-06
5.82362e-06
-1.38604e-07
-7.13226e-06
-4.44048e-06
-5.78017e-05
5.7297e-05
-5.08077e-05
1.17329e-06
5.10676e-05
-4.35547e-06
1.17749e-06
4.55738e-07
-5.23639e-05
-3.86123e-07
5.25578e-05
-4.22581e-07
-5.17772e-05
3.72466e-08
1.57411e-07
5.19758e-05
6.25279e-08
4.51058e-07
-3.65849e-07
-4.26666e-07
3.83337e-08
1.49439e-07
6.55664e-08
3.94159e-07
-4.84628e-05
4.88558e-05
-4.82237e-05
1.36793e-07
4.85183e-05
3.87576e-07
1.32393e-07
4.79748e-11
-5.16214e-05
5.32851e-08
5.17978e-05
-7.23403e-08
-5.16211e-05
5.32645e-08
-1.57251e-07
5.17975e-05
-7.23699e-08
6.055e-11
3.73823e-08
-5.6269e-08
3.73513e-08
-1.49255e-07
-5.6289e-08
5.84896e-11
-4.84646e-05
4.86547e-05
-4.84644e-05
-1.36647e-07
4.86544e-05
6.36137e-11
-1.32236e-07
-4.55523e-07
-5.17764e-05
3.72847e-08
5.19749e-05
6.24595e-08
-5.23625e-05
-3.86032e-07
1.58936e-07
5.25562e-05
-4.22175e-07
-4.50816e-07
3.83297e-08
6.55126e-08
-3.6578e-07
1.38295e-07
-4.26261e-07
-3.93908e-07
-4.82227e-05
4.85172e-05
-4.84605e-05
-1.17303e-06
4.88536e-05
-3.87329e-07
-1.17726e-06
1.38063e-06
-5.37267e-05
5.87116e-06
5.38261e-05
-7.19222e-06
-5.63527e-05
-4.94279e-06
5.61892e-05
6.48688e-06
1.34131e-06
5.8211e-06
-7.12942e-06
-4.91877e-06
6.45518e-06
4.43796e-06
-5.08045e-05
5.10646e-05
-5.7803e-05
5.72982e-05
4.35289e-06
-1.41663e-06
-5.60496e-05
-4.88331e-06
5.59337e-05
6.41576e-06
-5.39246e-05
5.83709e-06
-1.83485e-07
5.40146e-05
-7.16027e-06
-1.38861e-06
-4.86306e-06
6.39092e-06
5.7985e-06
-1.74278e-07
-7.11018e-06
-4.49292e-06
-5.68629e-05
5.64725e-05
-5.12913e-05
1.13987e-06
5.14956e-05
-4.42891e-06
1.14589e-06
4.52223e-07
-5.27404e-05
-4.09887e-07
5.29182e-05
-4.03669e-07
-5.21701e-05
2.905e-08
1.6819e-07
5.23635e-05
6.15914e-08
4.49655e-07
-3.97327e-07
-4.09188e-07
3.31545e-08
1.61426e-07
6.07294e-08
3.95852e-07
-4.92126e-05
4.95468e-05
-4.88056e-05
1.40355e-07
4.90902e-05
3.91775e-07
1.37614e-07
1.64864e-10
-5.19767e-05
7.47247e-08
5.21597e-05
-8.97298e-08
-5.19765e-05
7.46877e-08
-1.6767e-07
5.21594e-05
-8.98009e-08
-3.9066e-12
6.47244e-08
-8.21629e-08
6.47227e-08
-1.6147e-07
-8.21883e-08
1.03191e-10
-4.8857e-05
4.90719e-05
-4.88567e-05
-1.40135e-07
4.90716e-05
4.3276e-11
-1.37517e-07
-4.51158e-07
-5.21695e-05
2.89882e-08
5.23626e-05
6.13931e-08
-5.27397e-05
-4.10311e-07
1.86176e-07
5.29165e-05
-4.03781e-07
-4.50051e-07
3.32804e-08
6.07043e-08
-3.96972e-07
1.71888e-07
-4.08473e-07
-3.95602e-07
-4.88046e-05
4.9089e-05
-4.92105e-05
-1.14002e-06
4.95446e-05
-3.9157e-07
-1.1455e-06
1.41674e-06
-5.39227e-05
5.83521e-06
5.40141e-05
-7.15718e-06
-5.60495e-05
-4.88084e-06
5.59342e-05
6.41291e-06
1.38728e-06
5.79578e-06
-7.10773e-06
-4.86081e-06
6.38776e-06
4.49049e-06
-5.12885e-05
5.14932e-05
-5.68638e-05
5.64735e-05
4.42644e-06
-1.43634e-06
-5.58346e-05
-4.81832e-06
5.57535e-05
6.3358e-06
-5.4104e-05
5.78544e-06
-2.02071e-07
5.41884e-05
-7.10411e-06
-1.41442e-06
-4.79818e-06
6.31172e-06
5.75148e-06
-1.92796e-07
-7.06252e-06
-4.51259e-06
-5.61361e-05
5.58304e-05
-5.16731e-05
1.10661e-06
5.18393e-05
-4.46179e-06
1.11219e-06
4.43857e-07
-5.30864e-05
-4.23098e-07
5.32489e-05
-3.85313e-07
-5.25509e-05
1.60022e-08
1.76973e-07
5.27352e-05
6.65476e-08
4.43548e-07
-4.14199e-07
-3.90393e-07
2.2671e-08
1.70656e-07
6.28738e-08
3.93858e-07
-4.98534e-05
5.01431e-05
-4.93646e-05
1.41117e-07
4.96333e-05
3.91314e-07
1.39588e-07
7.09792e-11
-5.23417e-05
8.7208e-08
5.25257e-05
-9.42427e-08
-5.23415e-05
8.7199e-08
-1.7675e-07
5.25254e-05
-9.4306e-08
3.1853e-11
8.0966e-08
-9.23511e-08
8.09623e-08
-1.7059e-07
-9.24002e-08
6.5694e-11
-4.92924e-05
4.95207e-05
-4.92921e-05
-1.40974e-07
4.95203e-05
5.56158e-11
-1.39473e-07
-4.43581e-07
-5.25501e-05
1.60909e-08
5.27345e-05
6.64289e-08
-5.30855e-05
-4.23134e-07
2.02229e-07
5.32478e-05
-3.84998e-07
-4.43732e-07
2.27857e-08
6.28017e-08
-4.14011e-07
1.91069e-07
-3.89827e-07
-3.93643e-07
-4.93635e-05
4.96322e-05
-4.98515e-05
-1.1065e-06
5.01412e-05
-3.91124e-07
-1.11196e-06
1.43575e-06
-5.41028e-05
5.78322e-06
5.41875e-05
-7.10147e-06
-5.58348e-05
-4.8161e-06
5.57537e-05
6.33296e-06
1.41335e-06
5.74901e-06
-7.06005e-06
-4.79599e-06
6.30876e-06
4.51027e-06
-5.16708e-05
5.18372e-05
-5.61369e-05
5.58311e-05
4.45942e-06
-1.44398e-06
-5.56829e-05
-4.75085e-06
5.56257e-05
6.25207e-06
-5.42718e-05
5.72165e-06
-2.16188e-07
5.43504e-05
-7.02802e-06
-1.42768e-06
-4.73464e-06
6.23289e-06
5.69636e-06
-2.07622e-07
-6.99979e-06
-4.50737e-06
-5.55655e-05
5.53221e-05
-5.1986e-05
1.07419e-06
5.21261e-05
-4.46982e-06
1.07988e-06
4.33175e-07
-5.34031e-05
-4.31501e-07
5.35511e-05
-3.65862e-07
-5.29131e-05
2.30338e-09
1.8018e-07
5.30866e-05
7.71741e-08
4.34476e-07
-4.2442e-07
-3.71893e-07
8.33099e-09
1.77648e-07
7.06391e-08
3.89277e-07
-5.04104e-05
5.06638e-05
-4.98903e-05
1.40209e-07
5.01417e-05
3.88123e-07
1.3948e-07
6.37764e-11
-5.27058e-05
9.09384e-08
5.28841e-05
-8.91576e-08
-5.27056e-05
9.09449e-08
-1.80001e-07
5.28839e-05
-8.92234e-08
6.38852e-11
8.93298e-08
-9.1888e-08
8.93308e-08
-1.77468e-07
-9.19517e-08
6.47765e-11
-4.97494e-05
4.99805e-05
-4.97491e-05
-1.40071e-07
4.99802e-05
6.38067e-11
-1.39343e-07
-4.32995e-07
-5.29124e-05
2.39072e-09
5.30859e-05
7.70586e-08
-5.34022e-05
-4.31502e-07
2.15957e-07
5.35502e-05
-3.65505e-07
-4.34305e-07
8.40748e-09
7.05265e-08
-4.24413e-07
2.07319e-07
-3.71532e-07
-3.89074e-07
-4.98892e-05
5.01406e-05
-5.04086e-05
-1.07408e-06
5.06621e-05
-3.87918e-07
-1.07976e-06
1.44335e-06
-5.42709e-05
5.71945e-06
5.43496e-05
-7.02548e-06
-5.5683e-05
-4.74873e-06
5.56258e-05
6.24934e-06
1.42702e-06
5.69414e-06
-6.99724e-06
-4.73247e-06
6.23012e-06
4.50513e-06
-5.19841e-05
5.21243e-05
-5.55661e-05
5.53225e-05
4.46756e-06
-1.44284e-06
-5.55739e-05
-4.68158e-06
5.55313e-05
6.167e-06
-5.44273e-05
5.64616e-06
-2.2697e-07
5.44983e-05
-6.93306e-06
-1.42998e-06
-4.66473e-06
6.14644e-06
5.62495e-06
-2.19693e-07
-6.91215e-06
-4.4829e-06
-5.51101e-05
5.49114e-05
-5.22502e-05
1.04322e-06
5.23703e-05
-4.45277e-06
1.04804e-06
4.21254e-07
-5.36909e-05
-4.37754e-07
5.38239e-05
-3.43401e-07
-5.32521e-05
-1.21541e-08
1.79335e-07
5.34125e-05
9.36863e-08
4.2302e-07
-4.31252e-07
-3.51238e-07
-4.71454e-09
1.78249e-07
8.39378e-08
3.8295e-07
-5.08982e-05
5.11207e-05
-5.03814e-05
1.38283e-07
5.06139e-05
3.82461e-07
1.37974e-07
4.27048e-11
-5.3056e-05
8.67876e-08
5.32238e-05
-7.52707e-08
-5.30557e-05
8.68162e-08
-1.79236e-07
5.32235e-05
-7.53335e-08
5.91903e-11
8.87855e-08
-8.24353e-08
8.87981e-08
-1.78083e-07
-8.25007e-08
9.40216e-11
-5.02072e-05
5.04322e-05
-5.02069e-05
-1.38053e-07
5.04318e-05
6.86153e-11
-1.3783e-07
-4.21018e-07
-5.32514e-05
-1.23219e-08
5.34119e-05
9.3608e-08
-5.369e-05
-4.37738e-07
2.26755e-07
5.3823e-05
-3.43035e-07
-4.22844e-07
-4.60875e-09
8.38268e-08
-4.31252e-07
2.19461e-07
-3.50882e-07
-3.8283e-07
-5.03804e-05
5.06129e-05
-5.08965e-05
-1.04314e-06
5.11191e-05
-3.82269e-07
-1.04793e-06
1.44225e-06
-5.44266e-05
5.64402e-06
5.44976e-05
-6.93059e-06
-5.5574e-05
-4.67953e-06
5.55314e-05
6.16438e-06
1.42937e-06
5.6228e-06
-6.90967e-06
-4.66264e-06
6.14378e-06
4.48073e-06
-5.22486e-05
5.23687e-05
-5.51105e-05
5.49117e-05
4.45059e-06
-1.43571e-06
-5.54898e-05
-4.61427e-06
5.54534e-05
6.08638e-06
-5.45664e-05
5.56191e-06
-2.35007e-07
5.46267e-05
-6.82291e-06
-1.42536e-06
-4.59599e-06
6.06291e-06
5.54469e-06
-2.28912e-07
-6.80921e-06
-4.44526e-06
-5.47361e-05
5.45671e-05
-5.24761e-05
1.01423e-06
5.25785e-05
-4.42069e-06
1.01815e-06
4.09333e-07
-5.39478e-05
-4.44102e-07
5.40635e-05
-3.15929e-07
-5.35628e-05
-2.66161e-08
1.7617e-07
5.37056e-05
1.17029e-07
4.1105e-07
-4.37168e-07
-3.26758e-07
-1.87723e-08
1.76053e-07
1.03469e-07
3.75596e-07
-5.13261e-05
5.15206e-05
-5.0835e-05
1.35845e-07
5.10481e-05
3.75544e-07
1.35745e-07
5.90565e-11
-5.33827e-05
7.61883e-08
5.3535e-05
-5.24047e-08
-5.33825e-05
7.6204e-08
-1.76009e-07
5.35348e-05
-5.24716e-08
5.80487e-11
8.13644e-08
-6.43329e-08
8.13812e-08
-1.75894e-07
-6.43988e-08
5.894e-11
-5.06492e-05
5.08612e-05
-5.06489e-05
-1.35718e-07
5.08609e-05
6.38254e-11
-1.35612e-07
-4.09178e-07
-5.35622e-05
-2.65292e-08
5.3705e-05
1.16922e-07
-5.3947e-05
-4.44119e-07
2.34774e-07
5.40628e-05
-3.15566e-07
-4.10889e-07
-1.86611e-08
1.03361e-07
-4.37177e-07
2.28682e-07
-3.264e-07
-3.75409e-07
-5.0834e-05
5.10471e-05
-5.13246e-05
-1.01413e-06
5.15192e-05
-3.75356e-07
-1.01805e-06
1.43514e-06
-5.45658e-05
5.55981e-06
5.46261e-05
-6.82051e-06
-5.54898e-05
-4.61229e-06
5.54534e-05
6.08385e-06
1.42478e-06
5.54258e-06
-6.8068e-06
-4.59398e-06
6.06035e-06
4.44317e-06
-5.24747e-05
5.25772e-05
-5.47363e-05
5.45672e-05
4.41859e-06
-1.42236e-06
-5.54137e-05
-4.54396e-06
5.53748e-05
6.00516e-06
-5.46821e-05
5.46166e-06
-2.40374e-07
5.47274e-05
-6.68889e-06
-1.41505e-06
-4.52772e-06
5.98248e-06
5.45339e-06
-2.35506e-07
-6.6884e-06
-4.39226e-06
-5.44149e-05
5.42632e-05
-5.26666e-05
9.85993e-07
5.275e-05
-4.37549e-06
9.89829e-07
3.97238e-07
-5.41688e-05
-4.51982e-07
5.42638e-05
-2.80572e-07
-5.38368e-05
-4.50263e-08
1.72119e-07
5.3958e-05
1.48959e-07
3.99098e-07
-4.43978e-07
-2.9595e-07
-3.50948e-08
1.72364e-07
1.30582e-07
3.67378e-07
-5.16987e-05
5.18653e-05
-5.12477e-05
1.32923e-07
5.14372e-05
3.67792e-07
1.33067e-07
5.60262e-11
-5.36763e-05
5.88893e-08
5.38076e-05
-1.8101e-08
-5.36761e-05
5.89059e-08
-1.71966e-07
5.38074e-05
-1.8174e-08
5.7049e-11
6.76913e-08
-3.66272e-08
6.77076e-08
-1.72208e-07
-3.6694e-08
5.45646e-11
-5.10619e-05
5.12537e-05
-5.10616e-05
-1.32805e-07
5.12533e-05
5.60178e-11
-1.32945e-07
-3.97092e-07
-5.38363e-05
-4.49427e-08
5.39575e-05
1.48859e-07
-5.41681e-05
-4.52009e-07
2.40144e-07
5.42631e-05
-2.80206e-07
-3.98949e-07
-3.50105e-08
1.30479e-07
-4.44e-07
2.35277e-07
-2.95589e-07
-3.672e-07
-5.12468e-05
5.14362e-05
-5.16973e-05
-9.85896e-07
5.1864e-05
-3.67612e-07
-9.89732e-07
1.42181e-06
-5.46816e-05
5.4596e-06
5.47268e-05
-6.68654e-06
-5.54136e-05
-4.54204e-06
5.53748e-05
6.00272e-06
1.4145e-06
5.45133e-06
-6.68604e-06
-4.52577e-06
5.98001e-06
4.39024e-06
-5.26653e-05
5.27488e-05
-5.44149e-05
5.42631e-05
4.37346e-06
-1.40572e-06
-5.53285e-05
-4.47887e-06
5.52786e-05
5.93447e-06
-5.47653e-05
5.35264e-06
-2.43689e-07
5.47897e-05
-6.53915e-06
-1.40037e-06
-4.46146e-06
5.90817e-06
5.35099e-06
-2.3981e-07
-6.54944e-06
-4.33171e-06
-5.41216e-05
5.39745e-05
-5.28181e-05
9.59653e-07
5.28793e-05
-4.31993e-06
9.63031e-07
3.8583e-07
-5.43464e-05
-4.63405e-07
5.44159e-05
-2.35651e-07
-5.40653e-05
-6.77347e-08
1.6694e-07
5.41599e-05
1.92012e-07
3.87535e-07
-4.53435e-07
-2.56538e-07
-5.5371e-08
1.68247e-07
1.67343e-07
3.59066e-07
-5.20153e-05
5.21525e-05
-5.16114e-05
1.29792e-07
5.17729e-05
3.59655e-07
1.30095e-07
5.28418e-11
-5.39231e-05
3.71055e-08
5.40279e-05
2.49072e-08
-5.39229e-05
3.71162e-08
-1.66799e-07
5.40278e-05
2.48547e-08
5.55891e-11
4.78687e-08
4.83476e-09
4.78793e-08
-1.68104e-07
4.7929e-09
4.89289e-11
-5.14316e-05
5.15984e-05
-5.14312e-05
-1.29685e-07
5.15981e-05
5.17808e-11
-1.29982e-07
-3.85695e-07
-5.40648e-05
-6.76561e-08
5.41595e-05
1.9192e-07
-5.43458e-05
-4.63439e-07
2.43462e-07
5.44153e-05
-2.35282e-07
-3.87397e-07
-5.52911e-08
1.67247e-07
-4.53466e-07
2.39585e-07
-2.56175e-07
-3.58899e-07
-5.16104e-05
5.1772e-05
-5.2014e-05
-9.59563e-07
5.21512e-05
-3.59483e-07
-9.62938e-07
1.40519e-06
-5.47648e-05
5.35062e-06
5.47892e-05
-6.53685e-06
-5.53284e-05
-4.477e-06
5.52785e-05
5.9321e-06
1.39984e-06
5.34898e-06
-6.54714e-06
-4.45957e-06
5.90577e-06
4.32975e-06
-5.28169e-05
5.28782e-05
-5.41215e-05
5.39742e-05
4.31796e-06
-1.38596e-06
-5.52168e-05
-4.41846e-06
5.51466e-05
5.87462e-06
-5.48039e-05
5.23202e-06
-2.45174e-07
5.48009e-05
-6.36978e-06
-1.3823e-06
-4.39925e-06
5.84335e-06
5.23746e-06
-2.42152e-07
-6.39175e-06
-4.26373e-06
-5.38314e-05
5.36767e-05
-5.2923e-05
9.34717e-07
5.29565e-05
-4.25615e-06
9.37669e-07
3.75127e-07
-5.44707e-05
-4.79319e-07
5.45091e-05
-1.79346e-07
-5.42385e-05
-9.58079e-08
1.60584e-07
5.43008e-05
2.48013e-07
3.76551e-07
-4.66868e-07
-2.06585e-07
-8.03334e-08
1.6211e-07
2.16219e-07
3.5068e-07
-5.22719e-05
5.23766e-05
-5.1917e-05
1.265e-07
5.20454e-05
3.51382e-07
1.26895e-07
4.33405e-11
-5.41166e-05
8.45768e-09
5.41887e-05
8.00298e-08
-5.41165e-05
8.46613e-09
-1.6046e-07
5.41885e-05
7.99803e-08
4.847e-11
2.34486e-08
4.99192e-08
2.34586e-08
-1.61977e-07
4.98672e-08
3.49627e-11
-5.17487e-05
5.18836e-05
-5.17484e-05
-1.26423e-07
5.18833e-05
4.32755e-11
-1.26799e-07
-3.75008e-07
-5.4238e-05
-9.57373e-08
5.43004e-05
2.47937e-07
-5.44701e-05
-4.7936e-07
2.44939e-07
5.45085e-05
-1.78966e-07
-3.76424e-07
-8.02587e-08
2.16134e-07
-4.66906e-07
2.41927e-07
-2.06216e-07
-3.50539e-07
-5.19162e-05
5.20445e-05
-5.22707e-05
-9.34643e-07
5.23754e-05
-3.51226e-07
-9.37584e-07
1.38546e-06
-5.48034e-05
5.23004e-06
5.48004e-05
-6.36753e-06
-5.52167e-05
-4.41666e-06
5.51464e-05
5.87235e-06
1.38179e-06
5.23548e-06
-6.3895e-06
-4.39742e-06
5.84103e-06
4.26182e-06
-5.29218e-05
5.29554e-05
-5.38311e-05
5.36762e-05
4.25424e-06
-1.36394e-06
-5.50599e-05
-4.36422e-06
5.49597e-05
5.82836e-06
-5.47841e-05
5.09951e-06
-2.45246e-07
5.47462e-05
-6.18027e-06
-1.36151e-06
-4.34243e-06
5.79065e-06
5.11227e-06
-2.42849e-07
-6.21422e-06
-4.18834e-06
-5.35201e-05
5.33442e-05
-5.29693e-05
9.10819e-07
5.29697e-05
-4.18583e-06
9.13671e-07
3.65293e-07
-5.45298e-05
-4.99931e-07
5.4531e-05
-1.11848e-07
-5.43439e-05
-1.31257e-07
1.53539e-07
5.43666e-05
3.2035e-07
3.66384e-07
-4.84961e-07
-1.44999e-07
-1.11487e-07
1.55595e-07
2.79185e-07
3.42229e-07
-5.24622e-05
5.25309e-05
-5.21534e-05
1.23129e-07
5.22412e-05
3.43063e-07
1.23597e-07
9.70627e-12
-5.4241e-05
-3.04173e-08
5.42728e-05
1.52173e-07
-5.42408e-05
-3.04184e-08
-1.53485e-07
5.42726e-05
1.52158e-07
3.30481e-11
-9.55351e-09
1.12805e-07
-9.54816e-09
-1.55491e-07
1.12765e-07
-1.95541e-11
-5.19977e-05
5.20904e-05
-5.19974e-05
-1.23169e-07
5.20901e-05
1.96369e-11
-1.23559e-07
-3.65235e-07
-5.43435e-05
-1.31193e-07
5.4366e-05
3.20367e-07
-5.45292e-05
-4.99967e-07
2.44799e-07
5.45298e-05
-1.10675e-07
-3.66283e-07
-1.11425e-07
2.79132e-07
-4.85005e-07
2.42583e-07
-1.4457e-07
-3.42194e-07
-5.21525e-05
5.22404e-05
-5.24611e-05
-9.1079e-07
5.25297e-05
-3.42957e-07
-9.13616e-07
1.36344e-06
-5.47836e-05
5.09758e-06
5.47453e-05
-6.17793e-06
-5.50596e-05
-4.36243e-06
5.49593e-05
5.8262e-06
1.361e-06
5.11033e-06
-6.21199e-06
-4.34065e-06
5.78845e-06
4.18647e-06
-5.29682e-05
5.29685e-05
-5.35195e-05
5.33436e-05
4.18396e-06
-1.33973e-06
-5.48378e-05
-4.31724e-06
5.46973e-05
5.79756e-06
-5.46897e-05
4.95433e-06
-2.4347e-07
5.4608e-05
-5.9689e-06
-1.33783e-06
-4.29065e-06
5.75035e-06
4.97387e-06
-2.40797e-07
-6.01437e-06
-4.11026e-06
-5.31606e-05
5.29536e-05
-5.29461e-05
8.88836e-07
5.29013e-05
-4.10708e-06
8.90391e-07
3.55779e-07
-5.4513e-05
-5.28357e-07
5.44732e-05
-3.10441e-08
-5.43664e-05
-1.74948e-07
1.4634e-07
5.43415e-05
4.09281e-07
3.56353e-07
-5.08022e-07
-7.11324e-08
-1.50607e-07
1.48025e-07
3.59145e-07
3.33612e-07
-5.25788e-05
5.26057e-05
-5.23049e-05
1.19746e-07
5.23438e-05
3.34449e-07
1.20151e-07
-7.89082e-12
-5.42805e-05
-7.75745e-08
5.42622e-05
2.4228e-07
-5.42804e-05
-7.7575e-08
-1.46333e-07
5.4262e-05
2.42274e-07
-1.04876e-10
-5.26147e-08
1.92963e-07
-5.26076e-08
-1.48355e-07
1.93008e-07
-3.33153e-11
-5.2158e-05
5.22002e-05
-5.21577e-05
-1.19808e-07
5.21999e-05
-8.81134e-11
-1.20337e-07
-3.55815e-07
-5.43661e-05
-1.7488e-07
5.43411e-05
4.09322e-07
-5.45132e-05
-5.28368e-07
2.43243e-07
5.44729e-05
-3.02939e-08
-3.5744e-07
-1.50459e-07
3.59487e-07
-5.07473e-07
2.4309e-07
-7.64966e-08
-3.33602e-07
-5.23042e-05
5.23431e-05
-5.25779e-05
-8.88807e-07
5.26048e-05
-3.34621e-07
-8.90318e-07
1.33935e-06
-5.46897e-05
4.9525e-06
5.46077e-05
-5.96662e-06
-5.48378e-05
-4.31553e-06
5.46971e-05
5.79557e-06
1.33806e-06
4.9723e-06
-6.01159e-06
-4.2888e-06
5.74841e-06
4.10847e-06
-5.29451e-05
5.29004e-05
-5.31601e-05
5.29531e-05
4.10534e-06
-1.31436e-06
-5.45303e-05
-4.2798e-06
5.43379e-05
5.78658e-06
-5.45039e-05
4.79929e-06
-2.39166e-07
5.43673e-05
-5.73792e-06
-1.31388e-06
-4.24999e-06
5.73083e-06
4.82589e-06
-2.3923e-07
-5.79643e-06
-4.02715e-06
-5.27325e-05
5.24799e-05
-5.28288e-05
8.68191e-07
5.27327e-05
-4.02888e-06
8.69551e-07
3.44619e-07
-5.44092e-05
-5.75755e-07
5.43118e-05
8.93651e-08
-5.42895e-05
-2.28264e-07
1.41887e-07
5.42062e-05
5.14289e-07
3.46995e-07
-5.44249e-07
2.20249e-08
-1.98415e-07
1.42134e-07
4.55257e-07
3.24591e-07
-5.26051e-05
5.25729e-05
-5.23544e-05
1.16386e-07
5.23344e-05
3.2592e-07
1.16925e-07
3.11451e-11
-5.42159e-05
-1.33142e-07
5.41387e-05
3.52196e-07
-5.42158e-05
-1.33131e-07
-1.418e-07
5.41386e-05
3.52156e-07
2.18133e-11
-1.03423e-07
2.91823e-07
-1.03418e-07
-1.42058e-07
2.91791e-07
2.37333e-11
-5.22137e-05
5.21969e-05
-5.22134e-05
-1.1633e-07
5.21966e-05
1.10006e-11
-1.16907e-07
-3.44502e-07
-5.42891e-05
-2.28209e-07
5.42058e-05
5.14217e-07
-5.44088e-05
-5.75866e-07
2.38936e-07
5.43113e-05
8.99186e-08
-3.46911e-07
-1.98359e-07
4.5521e-07
-5.44323e-07
2.38983e-07
2.24641e-08
-3.24468e-07
-5.23537e-05
5.23336e-05
-5.26041e-05
-8.68127e-07
5.25719e-05
-3.25832e-07
-8.69506e-07
1.31387e-06
-5.45035e-05
4.79743e-06
5.43669e-05
-5.73578e-06
-5.453e-05
-4.2781e-06
5.43376e-05
5.78442e-06
1.31344e-06
4.82405e-06
-5.79431e-06
-4.24832e-06
5.7288e-06
4.02538e-06
-5.28278e-05
5.27317e-05
-5.27318e-05
5.24791e-05
4.02711e-06
-1.28776e-06
-5.41137e-05
-4.253e-06
5.38576e-05
5.79684e-06
-5.42036e-05
4.63225e-06
-2.32734e-07
5.40014e-05
-5.48513e-06
-1.2881e-06
-4.21779e-06
5.73008e-06
4.66643e-06
-2.33605e-07
-5.55722e-06
-3.94083e-06
-5.22069e-05
5.18947e-05
-5.26043e-05
8.49201e-07
5.24465e-05
-3.94479e-06
8.5008e-07
3.32126e-07
-5.41785e-05
-6.38747e-07
5.40077e-05
2.44682e-07
-5.40902e-05
-2.91995e-07
1.38949e-07
5.39371e-05
6.38245e-07
3.34813e-07
-6.01323e-07
1.66173e-07
-2.56264e-07
1.39148e-07
5.67925e-07
3.15287e-07
-5.25049e-05
5.24001e-05
-5.22813e-05
1.13001e-07