/*--------------------------------*- C++ -*----------------------------------*\
  =========                 |
  \\      /  F ield         | OpenFOAM: The Open Source CFD Toolbox
   \\    /   O peration     | Website:  https://openfoam.org
    \\  /    A nd           | Version:  9
     \\/     M anipulation  |
\*---------------------------------------------------------------------------*/
FoamFile
{
    format      ascii;
    class       surfaceScalarField;
    location    "0.7";
    object      phi;
}
// * * * * * * * * * * * * * * * * * * * * * * * * * * * * * * * * * * * * * //

dimensions      [0 3 -1 0 0 0 0];

internalField   nonuniform List<scalar> 
104044
(
-1.17489e-11
-1.13172e-05
-9.82833e-10
1.1315e-05
3.19148e-09
-1.13172e-05
-9.72763e-10
-2.98554e-13
1.1315e-05
3.17841e-09
1.27251e-11
-1.52292e-09
3.94098e-09
-1.53795e-09
7.90585e-13
3.95284e-09
-8.20077e-12
-3.95969e-06
3.95872e-06
-3.95971e-06
-5.69828e-13
3.95873e-06
1.20863e-11
9.26193e-13
1.12946e-13
-1.13172e-05
-9.70788e-10
1.1315e-05
3.17629e-09
-1.13172e-05
-9.70931e-10
2.77628e-14
1.1315e-05
3.17657e-09
-7.22024e-14
-1.54018e-09
3.95856e-09
-1.54092e-09
-2.78743e-14
3.96055e-09
1.95489e-14
-3.9597e-06
3.95873e-06
-3.9597e-06
3.39656e-14
3.95873e-06
-1.09643e-14
-5.24483e-15
2.21332e-14
-1.13172e-05
-9.71198e-10
1.1315e-05
3.1772e-09
-1.13172e-05
-9.71373e-10
1.20151e-14
1.1315e-05
3.17773e-09
3.03162e-14
-1.54129e-09
3.96156e-09
-1.54155e-09
8.6186e-14
3.9622e-09
3.27171e-14
-3.9597e-06
3.95873e-06
-3.9597e-06
3.0601e-14
3.95873e-06
3.5567e-14
7.74237e-14
-7.8719e-14
-1.13172e-05
-9.71449e-10
1.1315e-05
3.17812e-09
-1.13172e-05
-9.71589e-10
3.28144e-13
1.1315e-05
3.17868e-09
1.17063e-13
-1.54168e-09
3.96243e-09
-1.54136e-09
-7.57606e-13
3.96147e-09
2.7043e-14
-3.9597e-06
3.95873e-06
-3.9597e-06
6.06836e-13
3.95873e-06
6.22897e-14
-8.9006e-13
1.17728e-11
-1.13173e-05
-9.7378e-10
1.1315e-05
3.18143e-09
-1.13172e-05
-9.83965e-10
1.1315e-05
3.19485e-09
-1.27225e-11
-1.53943e-09
3.95652e-09
-1.52455e-09
3.94507e-09
8.22267e-12
-3.95972e-06
3.95873e-06
-3.9597e-06
3.95872e-06
-1.20819e-11
-2.39289e-12
-1.1313e-05
-7.09484e-10
1.13108e-05
2.83678e-09
-1.1313e-05
-7.10704e-10
-5.58094e-13
1.13109e-05
2.83678e-09
-3.75077e-12
-7.50389e-10
2.792e-09
-7.51911e-10
2.70828e-13
2.79084e-09
-1.34873e-12
-3.95797e-06
3.95726e-06
-3.95798e-06
-6.2532e-13
3.95727e-06
-2.84347e-12
-6.50681e-14
-1.51508e-13
-1.1313e-05
-7.10509e-10
1.13109e-05
2.83745e-09
-1.1313e-05
-7.10833e-10
-8.38316e-14
1.13109e-05
2.83798e-09
3.24693e-13
-7.5315e-10
2.79254e-09
-7.542e-10
5.48211e-14
2.79389e-09
-1.78648e-13
-3.95798e-06
3.95727e-06
-3.95798e-06
-6.27621e-14
3.95727e-06
1.98401e-13
4.41747e-14
2.80994e-14
-1.1313e-05
-7.11023e-10
1.13109e-05
2.83839e-09
-1.1313e-05
-7.11119e-10
1.39289e-13
1.13109e-05
2.83871e-09
2.42007e-14
-7.5466e-10
2.79469e-09
-7.5479e-10
-9.30039e-15
2.79511e-09
2.86969e-14
-3.95798e-06
3.95727e-06
-3.95798e-06
1.14093e-13
3.95727e-06
2.75988e-14
1.02557e-14
1.8533e-13
-1.1313e-05
-7.11103e-10
1.13109e-05
2.83889e-09
-1.1313e-05
-7.10935e-10
5.86848e-13
1.13109e-05
2.83888e-09
-2.74098e-13
-7.54573e-10
2.7951e-09
-7.53747e-10
-2.39346e-13
2.79443e-09
2.13133e-13
-3.95798e-06
3.95727e-06
-3.95798e-06
6.62878e-13
3.95727e-06
-1.21305e-13
1.01988e-13
2.4173e-12
-1.1313e-05
-7.11246e-10
1.13109e-05
2.83859e-09
-1.1313e-05
-7.10075e-10
1.13109e-05
2.83879e-09
3.76295e-12
-7.52663e-10
2.79323e-09
-7.51214e-10
2.79464e-09
1.36761e-12
-3.95798e-06
3.95727e-06
-3.95797e-06
3.95726e-06
2.85101e-12
-2.0325e-12
-1.13085e-05
-9.05775e-10
1.13057e-05
3.73058e-09
-1.13085e-05
-9.06589e-10
-8.08002e-13
1.13057e-05
3.72993e-09
-2.2659e-12
-7.60594e-10
3.1301e-09
-7.6109e-10
-7.46783e-13
3.12951e-09
-6.67209e-13
-3.9565e-06
3.9556e-06
-3.9565e-06
-1.25422e-12
3.9556e-06
-1.04975e-12
-1.10406e-12
-5.20161e-13
-1.13085e-05
-9.05545e-10
1.13057e-05
3.73013e-09
-1.13085e-05
-9.05591e-10
-2.78797e-13
1.13057e-05
3.73006e-09
-3.25479e-13
-7.60221e-10
3.12967e-09
-7.60383e-10
-1.48194e-13
3.12982e-09
-6.772e-13
-3.95651e-06
3.9556e-06
-3.95651e-06
-2.65839e-13
3.9556e-06
-3.9154e-13
-1.47542e-13
2.17532e-14
-1.13085e-05
-9.05683e-10
1.13057e-05
3.73014e-09
-1.13085e-05
-9.0572e-10
3.22231e-13
1.13057e-05
3.73028e-09
2.25308e-14
-7.60511e-10
3.13005e-09
-7.60573e-10
1.87551e-13
3.13027e-09
2.24177e-14
-3.9565e-06
3.9556e-06
-3.95651e-06
3.08811e-13
3.9556e-06
2.34772e-14
1.89016e-13
5.5483e-13
-1.13085e-05
-9.05693e-10
1.13057e-05
3.73047e-09
-1.13085e-05
-9.05707e-10
8.37191e-13
1.13057e-05
3.73077e-09
3.54522e-13
-7.60558e-10
3.13046e-09
-7.60497e-10
7.66924e-13
3.13067e-09
7.19773e-13
-3.95651e-06
3.9556e-06
-3.95651e-06
1.29175e-12
3.9556e-06
4.28753e-13
1.1339e-12
2.07352e-12
-1.13085e-05
-9.06802e-10
1.13057e-05
3.73072e-09
-1.13085e-05
-9.05997e-10
1.13057e-05
3.73148e-09
2.28291e-12
-7.61448e-10
3.13075e-09
-7.60976e-10
3.13149e-09
6.94292e-13
-3.95651e-06
3.9556e-06
-3.9565e-06
3.9556e-06
1.05322e-12
-2.08928e-12
-1.13023e-05
-1.32896e-09
1.12983e-05
5.37682e-09
-1.13023e-05
-1.33041e-09
-9.41629e-13
1.12983e-05
5.37586e-09
-1.98015e-12
-1.0876e-09
4.44028e-09
-1.08873e-09
-8.78579e-13
4.43953e-09
-1.63835e-13
-3.95451e-06
3.95318e-06
-3.95451e-06
-1.50586e-12
3.95318e-06
-3.88585e-13
-1.37707e-12
-9.98619e-13
-1.13023e-05
-1.32892e-09
1.12983e-05
5.37604e-09
-1.13023e-05
-1.3288e-09
-5.8865e-13
1.12983e-05
5.37563e-09
-7.90522e-13
-1.08748e-09
4.43972e-09
-1.08742e-09
-4.44978e-13
4.43946e-09
-1.13056e-12
-3.95451e-06
3.95318e-06
-3.95451e-06
-5.74973e-13
3.95318e-06
-9.24987e-13
-4.30476e-13
1.96435e-14
-1.13023e-05
-1.32876e-09
1.12983e-05
5.37546e-09
-1.13023e-05
-1.32877e-09
6.26537e-13
1.12983e-05
5.37549e-09
1.98507e-14
-1.08745e-09
4.43939e-09
-1.08747e-09
4.82568e-13
4.43947e-09
1.97917e-14
-3.95451e-06
3.95318e-06
-3.95451e-06
6.12709e-13
3.95318e-06
2.04085e-14
4.69741e-13
1.03256e-12
-1.13023e-05
-1.32881e-09
1.12983e-05
5.37574e-09
-1.13023e-05
-1.32894e-09
9.73918e-13
1.12983e-05
5.37621e-09
8.2081e-13
-1.08747e-09
4.43969e-09
-1.08755e-09
8.98542e-13
4.44007e-09
1.16557e-12
-3.95451e-06
3.95318e-06
-3.95451e-06
1.54153e-12
3.95318e-06
9.58006e-13
1.39983e-12
2.13652e-12
-1.13023e-05
-1.33045e-09
1.12983e-05
5.37607e-09
-1.13023e-05
-1.32899e-09
1.12983e-05
5.37707e-09
2.00241e-12
-1.08883e-09
4.43997e-09
-1.0877e-09
4.44078e-09
1.95642e-13
-3.95451e-06
3.95318e-06
-3.95451e-06
3.95318e-06
3.88419e-13
-2.53201e-12
-1.12935e-05
-1.86602e-09
1.12879e-05
7.45401e-09
-1.12935e-05
-1.86816e-09
-1.07668e-12
1.12879e-05
7.45268e-09
-2.26625e-12
-1.57115e-09
6.30965e-09
-1.57293e-09
-1.00177e-12
6.30855e-09
1.36757e-13
-3.95161e-06
3.94974e-06
-3.95161e-06
-1.77266e-12
3.94974e-06
-1.25667e-14
-1.6227e-12
-1.31668e-12
-1.12935e-05
-1.8662e-09
1.12879e-05
7.45291e-09
-1.12935e-05
-1.86599e-09
-8.24561e-13
1.12879e-05
7.45229e-09
-1.1561e-12
-1.57122e-09
6.30875e-09
-1.57105e-09
-7.05373e-13
6.30823e-09
-1.47048e-12
-3.95161e-06
3.94974e-06
-3.95161e-06
-8.06665e-13
3.94974e-06
-1.29401e-12
-6.89796e-13
2.27723e-14
-1.12935e-05
-1.86588e-09
1.12879e-05
7.45197e-09
-1.12935e-05
-1.86588e-09
8.68087e-13
1.12879e-05
7.45197e-09
1.98324e-14
-1.57098e-09
6.30798e-09
-1.57098e-09
7.42867e-13
6.30799e-09
2.18862e-14
-3.95161e-06
3.94974e-06
-3.95161e-06
8.48237e-13
3.94974e-06
1.94678e-14
7.26476e-13
1.35371e-12
-1.12935e-05
-1.86598e-09
1.12879e-05
7.45229e-09
-1.12935e-05
-1.86618e-09
1.10626e-12
1.12879e-05
7.45291e-09
1.18588e-12
-1.57105e-09
6.30827e-09
-1.57122e-09
1.0211e-12
6.30881e-09
1.50861e-12
-3.95161e-06
3.94974e-06
-3.95161e-06
1.81077e-12
3.94974e-06
1.32561e-12
1.64622e-12
2.5761e-12
-1.12935e-05
-1.86816e-09
1.12879e-05
7.45266e-09
-1.12935e-05
-1.86599e-09
1.12879e-05
7.45402e-09
2.28821e-12
-1.57293e-09
6.30861e-09
-1.57114e-09
6.30974e-09
-1.07075e-13
-3.95161e-06
3.94974e-06
-3.95161e-06
3.94974e-06
1.28609e-14
-3.2025e-12
-1.12816e-05
-2.48559e-09
1.12742e-05
9.86026e-09
-1.12816e-05
-2.48847e-09
-1.25666e-12
1.12742e-05
9.85851e-09
-2.82844e-12
-2.14398e-09
8.52984e-09
-2.14646e-09
-1.15371e-12
8.52836e-09
3.40997e-13
-3.9476e-06
3.94511e-06
-3.9476e-06
-2.10091e-12
3.94511e-06
2.27588e-13
-1.91445e-12
-1.60611e-12
-1.12816e-05
-2.48597e-09
1.12742e-05
9.85882e-09
-1.12816e-05
-2.4857e-09
-1.03371e-12
1.12742e-05
9.85804e-09
-1.44744e-12
-2.14426e-09
8.52863e-09
-2.14402e-09
-9.20139e-13
8.52794e-09
-1.79508e-12
-3.9476e-06
3.94511e-06
-3.9476e-06
-1.01101e-12
3.94511e-06
-1.61541e-12
-9.00355e-13
2.89241e-14
-1.12816e-05
-2.48555e-09
1.12742e-05
9.85762e-09
-1.12816e-05
-2.48555e-09
1.08909e-12
1.12742e-05
9.85761e-09
2.61092e-14
-2.14389e-09
8.52757e-09
-2.14389e-09
9.6988e-13
8.52756e-09
2.75368e-14
-3.9476e-06
3.94511e-06
-3.9476e-06
1.06349e-12
3.94511e-06
2.47199e-14
9.47382e-13
1.65179e-12
-1.12816e-05
-2.48569e-09
1.12742e-05
9.85803e-09
-1.12816e-05
-2.48596e-09
1.2849e-12
1.12742e-05
9.8588e-09
1.4869e-12
-2.14401e-09
8.52792e-09
-2.14424e-09
1.17532e-12
8.52861e-09
1.84312e-12
-3.9476e-06
3.94511e-06
-3.9476e-06
2.14573e-12
3.94511e-06
1.65687e-12
1.94591e-12
3.23842e-12
-1.12816e-05
-2.48847e-09
1.12742e-05
9.85846e-09
-1.12816e-05
-2.48557e-09
1.12742e-05
9.86023e-09
2.84653e-12
-2.14645e-09
8.52831e-09
-2.14395e-09
8.52982e-09
-3.14422e-13
-3.9476e-06
3.94511e-06
-3.9476e-06
3.94511e-06
-2.27749e-13
-3.98727e-12
-1.12659e-05
-3.1938e-09
1.12565e-05
1.26139e-08
-1.12659e-05
-3.19749e-09
-1.46737e-12
1.12565e-05
1.26117e-08
-3.55672e-12
-2.79859e-09
1.10745e-08
-2.80182e-09
-1.34631e-12
1.10726e-08
5.45524e-13
-3.94231e-06
3.93912e-06
-3.94231e-06
-2.48027e-12
3.93912e-06
4.20238e-13
-2.26522e-12
-1.90373e-12
-1.12659e-05
-3.19438e-09
1.12565e-05
1.26121e-08
-1.12659e-05
-3.19405e-09
-1.24375e-12
1.12565e-05
1.26112e-08
-1.73373e-12
-2.79905e-09
1.10729e-08
-2.79876e-09
-1.12446e-12
1.10721e-08
-2.13667e-12
-3.94231e-06
3.93912e-06
-3.94231e-06
-1.21641e-12
3.93912e-06
-1.94162e-12
-1.10003e-12
2.87275e-14
-1.12659e-05
-3.19387e-09
1.12565e-05
1.26106e-08
-1.12659e-05
-3.19387e-09
1.29917e-12
1.12565e-05
1.26106e-08
3.02257e-14
-2.79859e-09
1.10716e-08
-2.7986e-09
1.18273e-12
1.10716e-08
2.75257e-14
-3.94231e-06
3.93912e-06
-3.94231e-06
1.26915e-12
3.93912e-06
2.86171e-14
1.15498e-12
1.94907e-12
-1.12659e-05
-3.19405e-09
1.12565e-05
1.26111e-08
-1.12659e-05
-3.19438e-09
1.49243e-12
1.12565e-05
1.26121e-08
1.78117e-12
-2.79876e-09
1.10721e-08
-2.79905e-09
1.3713e-12
1.10729e-08
2.1855e-12
-3.94231e-06
3.93912e-06
-3.94231e-06
2.52617e-12
3.93912e-06
1.99136e-12
2.30357e-12
4.02372e-12
-1.12659e-05
-3.19751e-09
1.12565e-05
1.26116e-08
-1.12659e-05
-3.19379e-09
1.12565e-05
1.26139e-08
3.5717e-12
-2.80183e-09
1.10725e-08
-2.79858e-09
1.10745e-08
-5.20125e-13
-3.94232e-06
3.93912e-06
-3.94232e-06
3.93912e-06
-4.21097e-13
-4.86486e-12
-1.1246e-05
-4.01382e-09
1.12343e-05
1.57976e-08
-1.1246e-05
-4.01845e-09
-1.69781e-12
1.12343e-05
1.57949e-08
-4.38094e-12
-3.55371e-09
1.40089e-08
-3.55779e-09
-1.56519e-12
1.40065e-08
8.03761e-13
-3.93557e-06
3.93155e-06
-3.93557e-06
-2.89645e-12
3.93155e-06
6.44655e-13
-2.66186e-12
-2.21943e-12
-1.1246e-05
-4.01464e-09
1.12343e-05
1.57954e-08
-1.1246e-05
-4.01425e-09
-1.46214e-12
1.12343e-05
1.57943e-08
-2.03774e-12
-3.55438e-09
1.4007e-08
-3.55403e-09
-1.33719e-12
1.4006e-08
-2.50341e-12
-3.93556e-06
3.93155e-06
-3.93556e-06
-1.43078e-12
3.93155e-06
-2.29307e-12
-1.30826e-12
2.77023e-14
-1.1246e-05
-4.01404e-09
1.12343e-05
1.57937e-08
-1.1246e-05
-4.01404e-09
1.51547e-12
1.12343e-05
1.57937e-08
2.79657e-14
-3.55383e-09
1.40054e-08
-3.55383e-09
1.39123e-12
1.40054e-08
2.63602e-14
-3.93556e-06
3.93155e-06
-3.93556e-06
1.48106e-12
3.93155e-06
2.67523e-14
1.35959e-12
2.26257e-12
-1.1246e-05
-4.01425e-09
1.12343e-05
1.57943e-08
-1.1246e-05
-4.01464e-09
1.72075e-12
1.12343e-05
1.57954e-08
2.08092e-12
-3.55403e-09
1.4006e-08
-3.55438e-09
1.58563e-12
1.4007e-08
2.55018e-12
-3.93556e-06
3.93155e-06
-3.93557e-06
2.94194e-12
3.93155e-06
2.3397e-12
2.69793e-12
4.90518e-12
-1.1246e-05
-4.01847e-09
1.12343e-05
1.57948e-08
-1.1246e-05
-4.01382e-09
1.12343e-05
1.57976e-08
4.39546e-12
-3.55781e-09
1.40065e-08
-3.5537e-09
1.40089e-08
-7.77825e-13
-3.93557e-06
3.93155e-06
-3.93557e-06
3.93155e-06
-6.49979e-13
-5.85843e-12
-1.12213e-05
-4.96632e-09
1.12068e-05
1.94861e-08
-1.12213e-05
-4.97202e-09
-1.95767e-12
1.12068e-05
1.94828e-08
-5.30312e-12
-4.42771e-09
1.73976e-08
-4.43277e-09
-1.8055e-12
1.73947e-08
1.12446e-12
-3.92712e-06
3.92216e-06
-3.92712e-06
-3.35342e-12
3.92216e-06
9.28584e-13
-3.09141e-12
-2.5649e-12
-1.12213e-05
-4.96742e-09
1.12068e-05
1.94834e-08
-1.12213e-05
-4.96696e-09
-1.69665e-12
1.12068e-05
1.94821e-08
-2.36215e-12
-4.42862e-09
1.73953e-08
-4.42821e-09
-1.55923e-12
1.73941e-08
-2.90496e-12
-3.92712e-06
3.92215e-06
-3.92712e-06
-1.66099e-12
3.92215e-06
-2.67051e-12
-1.52653e-12
2.89736e-14
-1.12213e-05
-4.96672e-09
1.12068e-05
1.94814e-08
-1.12213e-05
-4.96672e-09
1.75209e-12
1.12068e-05
1.94814e-08
2.85985e-14
-4.42798e-09
1.73934e-08
-4.42799e-09
1.61429e-12
1.73934e-08
2.74482e-14
-3.92712e-06
3.92215e-06
-3.92712e-06
1.71313e-12
3.92215e-06
2.68788e-14
1.5779e-12
2.61014e-12
-1.12213e-05
-4.96696e-09
1.12068e-05
1.94821e-08
-1.12213e-05
-4.96742e-09
1.98396e-12
1.12068e-05
1.94834e-08
2.40632e-12
-4.42821e-09
1.73941e-08
-4.42863e-09
1.8276e-12
1.73953e-08
2.95332e-12
-3.92712e-06
3.92215e-06
-3.92712e-06
3.40131e-12
3.92215e-06
2.71724e-12
3.12756e-12
5.90132e-12
-1.12213e-05
-4.97204e-09
1.12068e-05
1.94828e-08
-1.12213e-05
-4.96632e-09
1.12068e-05
1.94861e-08
5.31866e-12
-4.4328e-09
1.73947e-08
-4.42771e-09
1.73976e-08
-1.09487e-12
-3.92712e-06
3.92216e-06
-3.92712e-06
3.92216e-06
-9.37111e-13
-7.01507e-12
-1.11909e-05
-6.07842e-09
1.11732e-05
2.37812e-08
-1.11909e-05
-6.08537e-09
-2.25214e-12
1.11732e-05
2.37772e-08
-6.35922e-12
-5.44963e-09
2.13495e-08
-5.45584e-09
-2.07875e-12
2.1346e-08
1.49434e-12
-3.9167e-06
3.91062e-06
-3.9167e-06
-3.87225e-12
3.91062e-06
1.27997e-12
-3.57403e-12
-2.94742e-12
-1.11909e-05
-6.07985e-09
1.11732e-05
2.3778e-08
-1.11909e-05
-6.07931e-09
-1.95482e-12
1.11732e-05
2.37765e-08
-2.72399e-12
-5.45084e-09
2.13467e-08
-5.45035e-09
-1.80398e-12
2.13453e-08
-3.35315e-12
-3.9167e-06
3.91062e-06
-3.9167e-06
-1.9144e-12
3.91062e-06
-3.09261e-12
-1.76684e-12
2.8465e-14
-1.11909e-05
-6.07904e-09
1.11732e-05
2.37757e-08
-1.11909e-05
-6.07904e-09
2.00983e-12
1.11732e-05
2.37757e-08
2.95796e-14
-5.4501e-09
2.13446e-08
-5.4501e-09
1.86063e-12
2.13446e-08
2.75797e-14
-3.9167e-06
3.91062e-06
-3.9167e-06
1.96721e-12
3.91062e-06
2.79111e-14
1.82009e-12
2.99251e-12
-1.11909e-05
-6.07931e-09
1.11732e-05
2.37765e-08
-1.11909e-05
-6.07984e-09
2.28035e-12
1.11732e-05
2.3778e-08
2.77039e-12
-5.45035e-09
2.13453e-08
-5.45084e-09
2.10747e-12
2.13467e-08
3.40249e-12
-3.9167e-06
3.91062e-06
-3.9167e-06
3.92389e-12
3.91062e-06
3.1413e-12
3.61462e-12
7.05538e-12
-1.11909e-05
-6.08537e-09
1.11732e-05
2.37772e-08
-1.11909e-05
-6.07839e-09
1.11732e-05
2.37812e-08
6.3807e-12
-5.45585e-09
2.1346e-08
-5.44961e-09
2.13495e-08
-1.45812e-12
-3.9167e-06
3.91062e-06
-3.91671e-06
3.91063e-06
-1.2749e-12
-8.38178e-12
-1.11539e-05
-7.37179e-09
1.11325e-05
2.87639e-08
-1.11539e-05
-7.38017e-09
-2.58285e-12
1.11325e-05
2.87591e-08
-7.59572e-12
-6.63571e-09
2.59238e-08
-6.64323e-09
-2.38789e-12
2.59196e-08
1.88582e-12
-3.90399e-06
3.89661e-06
-3.90399e-06
-4.45411e-12
3.89661e-06
1.66148e-12
-4.11776e-12
-3.35625e-12
-1.11539e-05
-7.3736e-09
1.11325e-05
2.876e-08
-1.11539e-05
-7.37298e-09
-2.22762e-12
1.11325e-05
2.87583e-08
-3.11612e-12
-6.63726e-09
2.59205e-08
-6.63669e-09
-2.06744e-12
2.59189e-08
-3.83851e-12
-3.90398e-06
3.89661e-06
-3.90398e-06
-2.18318e-12
3.89661e-06
-3.55447e-12
-2.02563e-12
3.34183e-14
-1.11539e-05
-7.37267e-09
1.11325e-05
2.87573e-08
-1.11539e-05
-7.37268e-09
2.29176e-12
1.11325e-05
2.87573e-08
3.02255e-14
-6.6364e-09
2.5918e-08
-6.6364e-09
2.12535e-12
2.5918e-08
3.19369e-14
-3.90398e-06
3.8966e-06
-3.90398e-06
2.24415e-12
3.8966e-06
2.90931e-14
2.08095e-12
3.40958e-12
-1.11539e-05
-7.37298e-09
1.11325e-05
2.87583e-08
-1.11539e-05
-7.37359e-09
2.61529e-12
1.11325e-05
2.876e-08
3.16342e-12
-6.63668e-09
2.59189e-08
-6.63725e-09
2.41761e-12
2.59204e-08
3.89661e-12
-3.90398e-06
3.89661e-06
-3.90398e-06
4.51486e-12
3.89661e-06
3.60586e-12
4.16389e-12
8.41508e-12
-1.11539e-05
-7.38018e-09
1.11325e-05
2.87591e-08
-1.11539e-05
-7.37177e-09
1.11325e-05
2.87639e-08
7.61942e-12
-6.64323e-09
2.59196e-08
-6.63567e-09
2.59239e-08
-1.85379e-12
-3.90399e-06
3.89661e-06
-3.90399e-06
3.89661e-06
-1.64735e-12
-9.95827e-12
-1.11093e-05
-8.87053e-09
1.10837e-05
3.4524e-08
-1.11093e-05
-8.88055e-09
-2.94704e-12
1.10837e-05
3.45184e-08
-9.05172e-12
-8.01823e-09
3.12433e-08
-8.02725e-09
-2.7322e-12
3.12383e-08
2.34323e-12
-3.88859e-06
3.87972e-06
-3.88859e-06
-5.09312e-12
3.87972e-06
2.08461e-12
-4.7245e-12
-3.79488e-12
-1.11093e-05
-8.87279e-09
1.10837e-05
3.45194e-08
-1.11093e-05
-8.87208e-09
-2.51776e-12
1.10836e-05
3.45175e-08
-3.53561e-12
-8.02018e-09
3.12393e-08
-8.01952e-09
-2.34576e-12
3.12375e-08
-4.36393e-12
-3.88859e-06
3.87972e-06
-3.88858e-06
-2.46897e-12
3.87971e-06
-4.05541e-12
-2.30007e-12
4.49096e-14
-1.11093e-05
-8.87174e-09
1.10836e-05
3.45164e-08
-1.11093e-05
-8.87174e-09
2.60483e-12
1.10836e-05
3.45164e-08
3.85927e-14
-8.0192e-09
3.12365e-08
-8.0192e-09
2.42072e-12
3.12365e-08
4.29972e-14
-3.88858e-06
3.87971e-06
-3.88858e-06
2.55204e-12
3.87971e-06
3.68151e-14
2.3713e-12
3.86892e-12
-1.11093e-05
-8.87208e-09
1.10836e-05
3.45175e-08
-1.11093e-05
-8.87279e-09
2.99014e-12
1.10837e-05
3.45194e-08
3.59896e-12
-8.01952e-09
3.12375e-08
-8.02018e-09
2.7724e-12
3.12393e-08
4.44331e-12
-3.88858e-06
3.87971e-06
-3.88859e-06
5.17159e-12
3.87972e-06
4.12345e-12
4.78783e-12
9.97064e-12
-1.11093e-05
-8.88058e-09
1.10837e-05
3.45184e-08
-1.11093e-05
-8.87051e-09
1.10837e-05
3.45241e-08
9.07415e-12
-8.02727e-09
3.12383e-08
-8.0182e-09
3.12434e-08
-2.31352e-12
-3.88859e-06
3.87972e-06
-3.88859e-06
3.87972e-06
-2.05811e-12
-1.16848e-11
-1.10559e-05
-1.05972e-08
1.10254e-05
4.11457e-08
-1.10559e-05
-1.06092e-08
-3.33277e-12
1.10254e-05
4.1139e-08
-1.06731e-11
-9.60933e-09
3.73507e-08
-9.62008e-09
-3.0996e-12
3.73447e-08
2.92799e-12
-3.87011e-06
3.85951e-06
-3.87011e-06
-5.77097e-12
3.85951e-06
2.60907e-12
-5.3737e-12
-4.26995e-12
-1.10559e-05
-1.06e-08
1.10254e-05
4.11403e-08
-1.10559e-05
-1.05992e-08
-2.8365e-12
1.10254e-05
4.11381e-08
-3.98463e-12
-9.61175e-09
3.73459e-08
-9.611e-09
-2.64389e-12
3.73438e-08
-4.93304e-12
-3.8701e-06
3.8595e-06
-3.8701e-06
-2.7823e-12
3.8595e-06
-4.59429e-12
-2.5937e-12
5.18228e-14
-1.10559e-05
-1.05989e-08
1.10254e-05
4.11368e-08
-1.10559e-05
-1.05989e-08
2.93688e-12
1.10254e-05
4.11368e-08
5.0574e-14
-9.61065e-09
3.73427e-08
-9.61065e-09
2.74239e-12
3.73427e-08
4.98748e-14
-3.87009e-06
3.85949e-06
-3.87009e-06
2.87843e-12
3.85949e-06
4.7988e-14
2.68675e-12
4.35559e-12
-1.10559e-05
-1.05992e-08
1.10254e-05
4.11381e-08
-1.10559e-05
-1.06001e-08
3.38317e-12
1.10254e-05
4.11403e-08
4.06961e-12
-9.611e-09
3.73438e-08
-9.61176e-09
3.15761e-12
3.73459e-08
5.02393e-12
-3.8701e-06
3.8595e-06
-3.8701e-06
5.85701e-12
3.8595e-06
4.68284e-12
5.4557e-12
1.16854e-11
-1.10559e-05
-1.06092e-08
1.10254e-05
4.11391e-08
-1.10559e-05
-1.05972e-08
1.10254e-05
4.11458e-08
1.06967e-11
-9.62011e-09
3.73448e-08
-9.60931e-09
3.73508e-08
-2.90166e-12
-3.87011e-06
3.85951e-06
-3.87011e-06
3.85951e-06
-2.56265e-12
-1.35646e-11
-1.09925e-05
-1.25798e-08
1.09564e-05
4.87336e-08
-1.09925e-05
-1.25938e-08
-3.73755e-12
1.09563e-05
4.87258e-08
-1.24452e-11
-1.14406e-08
4.43654e-08
-1.14533e-08
-3.48977e-12
4.43585e-08
3.66663e-12
-3.84807e-06
3.83548e-06
-3.84806e-06
-6.48569e-12
3.83548e-06
3.27047e-12
-6.06011e-12
-4.78377e-12
-1.09925e-05
-1.25832e-08
1.09563e-05
4.87272e-08
-1.09925e-05
-1.25823e-08
-3.18899e-12
1.09563e-05
4.87247e-08
-4.47382e-12
-1.14436e-08
4.43598e-08
-1.14427e-08
-2.97683e-12
4.43574e-08
-5.55065e-12
-3.84806e-06
3.83547e-06
-3.84805e-06
-3.12991e-12
3.83547e-06
-5.18119e-12
-2.92138e-12
4.62604e-14
-1.09925e-05
-1.25819e-08
1.09563e-05
4.87233e-08
-1.09925e-05
-1.25819e-08
3.27966e-12
1.09563e-05
4.87233e-08
4.9972e-14
-1.14423e-08
4.43561e-08
-1.14423e-08
3.07386e-12
4.43561e-08
4.47932e-14
-3.84805e-06
3.83546e-06
-3.84805e-06
3.21688e-12
3.83546e-06
4.77806e-14
3.0136e-12
4.86163e-12
-1.09925e-05
-1.25823e-08
1.09563e-05
4.87247e-08
-1.09925e-05
-1.25832e-08
3.78374e-12
1.09563e-05
4.87272e-08
4.55774e-12
-1.14427e-08
4.43575e-08
-1.14436e-08
3.54627e-12
4.43598e-08
5.63325e-12
-3.84805e-06
3.83547e-06
-3.84806e-06
6.56526e-12
3.83548e-06
5.26916e-12
6.14407e-12
1.35648e-11
-1.09925e-05
-1.25939e-08
1.09563e-05
4.87258e-08
-1.09925e-05
-1.25797e-08
1.09564e-05
4.87337e-08
1.24696e-11
-1.14534e-08
4.43585e-08
-1.14406e-08
4.43655e-08
-3.64068e-12
-3.84807e-06
3.83548e-06
-3.84807e-06
3.83548e-06
-3.21611e-12
-1.56301e-11
-1.09175e-05
-1.48237e-08
1.08751e-05
5.73058e-08
-1.09175e-05
-1.48403e-08
-4.1735e-12
1.08751e-05
5.72968e-08
-1.43916e-11
-1.35311e-08
5.23579e-08
-1.35461e-08
-3.9051e-12
5.23498e-08
4.53132e-12
-3.82195e-06
3.80712e-06
-3.82195e-06
-7.2376e-12
3.80712e-06
4.06705e-12
-6.78447e-12
-5.32921e-12
-1.09175e-05
-1.4828e-08
1.0875e-05
5.72984e-08
-1.09175e-05
-1.48269e-08
-3.56289e-12
1.0875e-05
5.72955e-08
-4.99903e-12
-1.35348e-08
5.23513e-08
-1.35338e-08
-3.33779e-12
5.23487e-08
-6.20653e-12
-3.82194e-06
3.80711e-06
-3.82193e-06
-3.49782e-12
3.8071e-06
-5.8119e-12
-3.2764e-12
4.33416e-14
-1.09175e-05
-1.48264e-08
1.0875e-05
5.72939e-08
-1.09175e-05
-1.48264e-08
3.64739e-12
1.0875e-05
5.72939e-08
4.42028e-14
-1.35334e-08
5.23472e-08
-1.35334e-08
3.42424e-12
5.23472e-08
4.26369e-14
-3.82193e-06
3.8071e-06
-3.82193e-06
3.58016e-12
3.8071e-06
4.31762e-14
3.3598e-12
5.40182e-12
-1.09175e-05
-1.48269e-08
1.0875e-05
5.72955e-08
-1.09175e-05
-1.4828e-08
4.22041e-12
1.0875e-05
5.72984e-08
5.07447e-12
-1.35338e-08
5.23487e-08
-1.35348e-08
3.96008e-12
5.23514e-08
6.28364e-12
-3.82193e-06
3.8071e-06
-3.82194e-06
7.31062e-12
3.80711e-06
5.89087e-12
6.85935e-12
1.5642e-11
-1.09175e-05
-1.48403e-08
1.08751e-05
5.72968e-08
-1.09175e-05
-1.48237e-08
1.08751e-05
5.73059e-08
1.44201e-11
-1.35461e-08
5.23499e-08
-1.35311e-08
5.2358e-08
-4.50256e-12
-3.82195e-06
3.80712e-06
-3.82195e-06
3.80712e-06
-4.01602e-12
-1.79522e-11
-1.08296e-05
-1.73621e-08
1.078e-05
6.69877e-08
-1.08296e-05
-1.73814e-08
-4.63342e-12
1.078e-05
6.69773e-08
-1.65623e-11
-1.58994e-08
6.13971e-08
-1.5917e-08
-4.34793e-12
6.13878e-08
5.49841e-12
-3.79122e-06
3.77385e-06
-3.79121e-06
-8.04641e-12
3.77385e-06
4.97378e-12
-7.55657e-12
-5.90404e-12
-1.08296e-05
-1.73672e-08
1.07799e-05
6.69791e-08
-1.08295e-05
-1.7366e-08
-3.95753e-12
1.07799e-05
6.69759e-08
-5.55232e-12
-1.59039e-08
6.13894e-08
-1.59027e-08
-3.71725e-12
6.13864e-08
-6.90857e-12
-3.79121e-06
3.77384e-06
-3.7912e-06
-3.88941e-12
3.77383e-06
-6.48336e-12
-3.65164e-12
4.51099e-14
-1.08295e-05
-1.73654e-08
1.07799e-05
6.6974e-08
-1.08295e-05
-1.73654e-08
4.0449e-12
1.07799e-05
6.6974e-08
4.46209e-14
-1.59022e-08
6.13847e-08
-1.59022e-08
3.80444e-12
6.13847e-08
4.34577e-14
-3.79119e-06
3.77382e-06
-3.79119e-06
3.97267e-12
3.77382e-06
4.33731e-14
3.7346e-12
5.98039e-12
-1.08295e-05
-1.7366e-08
1.07799e-05
6.69759e-08
-1.08296e-05
-1.73672e-08
4.68674e-12
1.07799e-05
6.69792e-08
5.62991e-12
-1.59027e-08
6.13864e-08
-1.59039e-08
4.40934e-12
6.13895e-08
6.98614e-12
-3.7912e-06
3.77383e-06
-3.79121e-06
8.11922e-12
3.77384e-06
6.56093e-12
7.62757e-12
1.79593e-11
-1.08296e-05
-1.73814e-08
1.078e-05
6.69774e-08
-1.08296e-05
-1.73621e-08
1.078e-05
6.69879e-08
1.65955e-11
-1.5917e-08
6.13878e-08
-1.58994e-08
6.13972e-08
-5.47277e-12
-3.79121e-06
3.77385e-06
-3.79122e-06
3.77385e-06
-4.92664e-12
-2.05166e-11
-1.0727e-05
-2.02051e-08
1.06694e-05
7.78162e-08
-1.0727e-05
-2.02274e-08
-5.1436e-12
1.06694e-05
7.78042e-08
-1.89814e-11
-1.85626e-08
7.15463e-08
-1.85829e-08
-4.83011e-12
7.15356e-08
6.58001e-12
-3.75528e-06
3.73507e-06
-3.75528e-06
-8.91895e-12
3.73507e-06
5.99028e-12
-8.38712e-12
-6.52636e-12
-1.0727e-05
-2.02112e-08
1.06694e-05
7.78062e-08
-1.0727e-05
-2.02098e-08
-4.38396e-12
1.06694e-05
7.78025e-08
-6.14462e-12
-1.8568e-08
7.15375e-08
-1.85666e-08
-4.12346e-12
7.15341e-08
-7.66704e-12
-3.75527e-06
3.73506e-06
-3.75526e-06
-4.3117e-12
3.73505e-06
-7.20552e-12
-4.05457e-12
4.66326e-14
-1.0727e-05
-2.02092e-08
1.06694e-05
7.78004e-08
-1.0727e-05
-2.02092e-08
4.47276e-12
1.06694e-05
7.78004e-08
4.5418e-14
-1.85661e-08
7.15321e-08
-1.85661e-08
4.21134e-12
7.15321e-08
4.49433e-14
-3.75525e-06
3.73504e-06
-3.75525e-06
4.39669e-12
3.73504e-06
4.34396e-14
4.13767e-12
6.60031e-12
-1.0727e-05
-2.02098e-08
1.06694e-05
7.78025e-08
-1.0727e-05
-2.02112e-08
5.18856e-12
1.06694e-05
7.78063e-08
6.22107e-12
-1.85666e-08
7.15341e-08
-1.8568e-08
4.88536e-12
7.15375e-08
7.74398e-12
-3.75526e-06
3.73505e-06
-3.75527e-06
8.99052e-12
3.73506e-06
7.28331e-12
8.46128e-12
2.05149e-11
-1.0727e-05
-2.02274e-08
1.06694e-05
7.78043e-08
-1.0727e-05
-2.02051e-08
1.06694e-05
7.78163e-08
1.9009e-11
-1.8583e-08
7.15357e-08
-1.85626e-08
7.15464e-08
-6.5549e-12
-3.75528e-06
3.73507e-06
-3.75528e-06
3.73507e-06
-5.93693e-12
-2.32947e-11
-1.06081e-05
-2.33632e-08
1.05417e-05
8.98296e-08
-1.06081e-05
-2.33889e-08
-5.67557e-12
1.05417e-05
8.9816e-08
-2.16271e-11
-2.15334e-08
8.28529e-08
-2.15569e-08
-5.34261e-12
8.28407e-08
7.78219e-12
-3.71353e-06
3.69016e-06
-3.71353e-06
-9.847e-12
3.69015e-06
7.11627e-12
-9.28223e-12
-7.18311e-12
-1.06081e-05
-2.33704e-08
1.05416e-05
8.98182e-08
-1.06081e-05
-2.33688e-08
-4.83841e-12
1.05416e-05
8.9814e-08
-6.77793e-12
-2.15398e-08
8.28427e-08
-2.15382e-08
-4.559e-12
8.28388e-08
-8.47543e-12
-3.71352e-06
3.69014e-06
-3.7135e-06
-4.76344e-12
3.69013e-06
-7.98254e-12
-4.48724e-12
4.57766e-14
-1.06081e-05
-2.33681e-08
1.05416e-05
8.98116e-08
-1.06081e-05
-2.33681e-08
4.92602e-12
1.05416e-05
8.98116e-08
4.71538e-14
-2.15376e-08
8.28366e-08
-2.15376e-08
4.64921e-12
8.28366e-08
4.42997e-14
-3.7135e-06
3.69012e-06
-3.7135e-06
4.84734e-12
3.69012e-06
4.48094e-14
4.57189e-12
7.25549e-12
-1.06081e-05
-2.33688e-08
1.05416e-05
8.9814e-08
-1.06081e-05
-2.33705e-08
5.72051e-12
1.05416e-05
8.98183e-08
6.85474e-12
-2.15383e-08
8.28389e-08
-2.15398e-08
5.40294e-12
8.28428e-08
8.55098e-12
-3.7135e-06
3.69013e-06
-3.71352e-06
9.91726e-12
3.69014e-06
8.05913e-12
9.35063e-12
2.33111e-11
-1.06081e-05
-2.33889e-08
1.05417e-05
8.98161e-08
-1.06081e-05
-2.33632e-08
1.05417e-05
8.98298e-08
2.16586e-11
-2.15569e-08
8.28408e-08
-2.15334e-08
8.2853e-08
-7.7533e-12
-3.71353e-06
3.69016e-06
-3.71353e-06
3.69016e-06
-7.06924e-12
-2.63055e-11
-1.04712e-05
-2.68343e-08
1.03951e-05
1.03019e-07
-1.04712e-05
-2.68636e-08
-6.24689e-12
1.0395e-05
1.03003e-07
-2.44961e-11
-2.48096e-08
9.53059e-08
-2.48364e-08
-5.89653e-12
9.52921e-08
9.11765e-12
-3.66534e-06
3.6385e-06
-3.66534e-06
-1.07926e-11
3.63849e-06
8.36232e-12
-1.0211e-11
-7.86907e-12
-1.04712e-05
-2.68428e-08
1.0395e-05
1.03006e-07
-1.04711e-05
-2.68409e-08
-5.31577e-12
1.0395e-05
1.03001e-07
-7.44523e-12
-2.4817e-08
9.52943e-08
-2.48153e-08
-5.02211e-12
9.52899e-08
-9.31544e-12
-3.66533e-06
3.63848e-06
-3.66531e-06
-5.23692e-12
3.63847e-06
-8.79856e-12
-4.94548e-12
4.29719e-14
-1.04711e-05
-2.68401e-08
1.0395e-05
1.02998e-07
-1.04711e-05
-2.68401e-08
5.39979e-12
1.0395e-05
1.02998e-07
4.2913e-14
-2.48146e-08
9.52873e-08
-2.48146e-08
5.1045e-12
9.52873e-08
4.2183e-14
-3.66531e-06
3.63846e-06
-3.66531e-06
5.318e-12
3.63846e-06
4.2137e-14
5.02579e-12
7.93979e-12
-1.04711e-05
-2.68409e-08
1.0395e-05
1.03001e-07
-1.04712e-05
-2.68428e-08
6.281e-12
1.0395e-05
1.03006e-07
7.51254e-12
-2.48153e-08
9.52899e-08
-2.4817e-08
5.9337e-12
9.52943e-08
9.39235e-12
-3.66531e-06
3.63847e-06
-3.66533e-06
1.08702e-11
3.63848e-06
8.87324e-12
1.02838e-11
2.63058e-11
-1.04712e-05
-2.68636e-08
1.0395e-05
1.03003e-07
-1.04712e-05
-2.68343e-08
1.03951e-05
1.03019e-07
2.45226e-11
-2.48365e-08
9.52921e-08
-2.48096e-08
9.5306e-08
-9.09565e-12
-3.66534e-06
3.63849e-06
-3.66534e-06
3.6385e-06
-8.31861e-12
-2.94587e-11
-1.03145e-05
-3.0622e-08
1.02278e-05
1.17397e-07
-1.03145e-05
-3.06552e-08
-6.80778e-12
1.02277e-05
1.1738e-07
-2.75541e-11
-2.84098e-08
1.08978e-07
-2.84404e-08
-6.46145e-12
1.08962e-07
1.06376e-11
-3.61008e-06
3.57944e-06
-3.61007e-06
-1.17502e-11
3.57944e-06
9.78785e-12
-1.11532e-11
-8.57266e-12
-1.03145e-05
-3.06318e-08
1.02277e-05
1.17383e-07
-1.03144e-05
-3.06296e-08
-5.80576e-12
1.02277e-05
1.17377e-07
-8.13512e-12
-2.84186e-08
1.08965e-07
-2.84165e-08
-5.50101e-12
1.0896e-07
-1.01821e-11
-3.61006e-06
3.57943e-06
-3.61005e-06
-5.72389e-12
3.57941e-06
-9.64392e-12
-5.42067e-12
4.88665e-14
-1.03144e-05
-3.06288e-08
1.02277e-05
1.17374e-07
-1.03144e-05
-3.06288e-08
5.90021e-12
1.02277e-05
1.17374e-07
4.65297e-14
-2.84157e-08
1.08957e-07
-2.84157e-08
5.59163e-12
1.08957e-07
4.77731e-14
-3.61004e-06
3.5794e-06
-3.61004e-06
5.81418e-12
3.5794e-06
4.57195e-14
5.5077e-12
8.65191e-12
-1.03144e-05
-3.06297e-08
1.02277e-05
1.17377e-07
-1.03145e-05
-3.06318e-08
6.85819e-12
1.02277e-05
1.17383e-07
8.21174e-12
-2.84165e-08
1.0896e-07
-2.84186e-08
6.51132e-12
1.08965e-07
1.02615e-11
-3.61005e-06
3.57941e-06
-3.61006e-06
1.18179e-11
3.57943e-06
9.7244e-12
1.12296e-11
2.94421e-11
-1.03145e-05
-3.06553e-08
1.02277e-05
1.1738e-07
-1.03145e-05
-3.0622e-08
1.02278e-05
1.17398e-07
2.75763e-11
-2.84405e-08
1.08962e-07
-2.84099e-08
1.08978e-07
-1.06257e-11
-3.61008e-06
3.57944e-06
-3.61008e-06
3.57945e-06
-9.73502e-12
-3.27422e-11
-1.01363e-05
-3.47126e-08
1.00382e-05
1.32914e-07
-1.01363e-05
-3.47501e-08
-7.36577e-12
1.00381e-05
1.32895e-07
-3.07082e-11
-3.23114e-08
1.23781e-07
-3.2346e-08
-7.00093e-12
1.23763e-07
1.23104e-11
-3.54712e-06
3.5124e-06
-3.54712e-06
-1.27203e-11
3.5124e-06
1.13909e-11
-1.21038e-11
-9.29342e-12
-1.01363e-05
-3.47239e-08
1.00381e-05
1.32897e-07
-1.01362e-05
-3.47214e-08
-6.31282e-12
1.00381e-05
1.32891e-07
-8.83289e-12
-3.23215e-08
1.23765e-07
-3.23191e-08
-5.99243e-12
1.2376e-07
-1.10769e-11
-3.54711e-06
3.51238e-06
-3.54709e-06
-6.2291e-12
3.51236e-06
-1.05145e-11
-5.91319e-12
5.35521e-14
-1.01362e-05
-3.47205e-08
1.00381e-05