/*--------------------------------*- C++ -*----------------------------------*\
  =========                 |
  \\      /  F ield         | OpenFOAM: The Open Source CFD Toolbox
   \\    /   O peration     | Website:  https://openfoam.org
    \\  /    A nd           | Version:  9
     \\/     M anipulation  |
\*---------------------------------------------------------------------------*/
FoamFile
{
    format      ascii;
    class       volVectorField;
    location    "0.7";
    object      U;
}
// * * * * * * * * * * * * * * * * * * * * * * * * * * * * * * * * * * * * * //

dimensions      [0 1 -1 0 0 0 0];

internalField   nonuniform List<vector> 
36360
(
(2.78041e-06 -0.0215003 -0.936525)
(2.75786e-06 -0.0215002 -6.99635e-09)
(3.90673e-06 -0.0215072 -0.945333)
(3.92757e-06 -0.0215072 7.85367e-09)
(4.76066e-07 -0.00752231 -0.924088)
(4.57443e-07 -0.00752224 -5.09647e-09)
(9.78928e-07 -0.0075262 -0.932478)
(9.82598e-07 -0.00752621 7.56352e-09)
(2.754e-06 -0.0215002 -1.09012e-10)
(2.7543e-06 -0.0215002 8.6913e-11)
(3.93414e-06 -0.0215072 4.22055e-10)
(3.93627e-06 -0.0215072 -5.68607e-11)
(4.54102e-07 -0.00752222 -3.23193e-10)
(4.53932e-07 -0.00752222 2.83038e-11)
(9.83489e-07 -0.00752622 5.37704e-10)
(9.83754e-07 -0.00752622 -9.52285e-12)
(2.75497e-06 -0.0215002 3.29944e-11)
(2.75545e-06 -0.0215002 1.93937e-11)
(3.9373e-06 -0.0215072 1.58498e-12)
(3.93795e-06 -0.0215072 6.11333e-11)
(4.54079e-07 -0.00752222 3.42066e-11)
(4.54172e-07 -0.00752222 3.42951e-11)
(9.83934e-07 -0.00752622 1.5153e-11)
(9.84101e-07 -0.00752622 5.48644e-11)
(2.75572e-06 -0.0215002 -3.92576e-11)
(2.7562e-06 -0.0215002 1.46494e-10)
(3.93819e-06 -0.0215072 1.13882e-10)
(3.9371e-06 -0.0215072 -3.76324e-10)
(4.5421e-07 -0.00752222 3.27939e-11)
(4.54536e-07 -0.00752223 3.72293e-10)
(9.84251e-07 -0.00752622 7.32258e-11)
(9.8426e-07 -0.00752622 -4.86321e-10)
(2.76064e-06 -0.0215003 7.02756e-09)
(2.78352e-06 -0.0215003 0.936525)
(3.93131e-06 -0.0215072 -7.83281e-09)
(3.91088e-06 -0.0215072 0.945333)
(4.58012e-07 -0.00752225 5.13092e-09)
(4.76702e-07 -0.00752232 0.924088)
(9.83584e-07 -0.00752622 -7.53972e-09)
(9.80016e-07 -0.00752621 0.932478)
(2.19868e-06 -0.0214927 -0.93581)
(2.19723e-06 -0.0214928 -1.81465e-09)
(2.27374e-06 -0.0214965 -0.935992)
(2.272e-06 -0.0214966 -2.0599e-09)
(2.18194e-07 -0.00751949 -0.923391)
(2.11999e-07 -0.0075195 -1.22555e-09)
(2.79955e-07 -0.00752078 -0.923569)
(2.73796e-07 -0.00752081 -1.72393e-09)
(2.1976e-06 -0.0214928 -5.0374e-10)
(2.19838e-06 -0.0214928 -1.52891e-10)
(2.27471e-06 -0.0214966 3.16937e-10)
(2.27692e-06 -0.0214966 1.89658e-10)
(2.10788e-07 -0.0075195 -5.5421e-10)
(2.10879e-07 -0.0075195 -1.72174e-10)
(2.74062e-07 -0.00752081 5.46852e-11)
(2.74916e-07 -0.00752082 1.26526e-10)
(2.19887e-06 -0.0214928 -3.14812e-11)
(2.19914e-06 -0.0214928 9.2397e-11)
(2.27799e-06 -0.0214966 5.08011e-11)
(2.27836e-06 -0.0214966 1.0179e-11)
(2.10997e-07 -0.0075195 -2.76995e-11)
(2.11041e-07 -0.0075195 9.62234e-11)
(2.75301e-07 -0.00752082 5.02707e-11)
(2.75364e-07 -0.00752082 2.35754e-11)
(2.19917e-06 -0.0214928 2.09151e-10)
(2.19883e-06 -0.0214928 5.48634e-10)
(2.278e-06 -0.0214966 -1.36695e-10)
(2.27641e-06 -0.0214966 -2.74577e-10)
(2.10998e-07 -0.0075195 2.36569e-10)
(2.10983e-07 -0.00751951 6.05984e-10)
(2.75095e-07 -0.00752082 -6.07049e-11)
(2.74363e-07 -0.00752082 -5.72384e-12)
(2.19879e-06 -0.0214928 1.84856e-09)
(2.20041e-06 -0.0214927 0.93581)
(2.27413e-06 -0.0214966 2.08598e-09)
(2.27611e-06 -0.0214965 0.935992)
(2.12262e-07 -0.00751951 1.25892e-09)
(2.18477e-07 -0.00751949 0.923391)
(2.74192e-07 -0.00752081 1.75053e-09)
(2.80384e-07 -0.00752079 0.923569)
(2.88367e-06 -0.0214837 -0.935075)
(2.88009e-06 -0.0214837 -1.83169e-09)
(2.42416e-06 -0.0214885 -0.935271)
(2.42097e-06 -0.0214885 -1.92934e-09)
(2.61322e-07 -0.00751658 -0.922675)
(2.52576e-07 -0.00751658 -1.01638e-09)
(2.18744e-07 -0.00751813 -0.922866)
(2.11128e-07 -0.00751813 -1.19743e-09)
(2.8791e-06 -0.0214837 -9.64235e-10)
(2.87916e-06 -0.0214837 -5.33246e-10)
(2.42015e-06 -0.0214886 -8.0395e-10)
(2.42048e-06 -0.0214886 -3.47439e-10)
(2.50107e-07 -0.00751658 -1.01418e-09)
(2.49863e-07 -0.00751658 -5.82227e-10)
(2.09054e-07 -0.00751813 -8.46781e-10)
(2.08957e-07 -0.00751813 -3.9164e-10)
(2.87932e-06 -0.0214837 -1.60592e-10)
(2.87944e-06 -0.0214837 2.08786e-10)
(2.42078e-06 -0.0214886 -9.10103e-11)
(2.42097e-06 -0.0214886 1.42935e-10)
(2.49917e-07 -0.00751658 -1.67995e-10)
(2.49928e-07 -0.00751658 2.21085e-10)
(2.09033e-07 -0.00751813 -9.33828e-11)
(2.09059e-07 -0.00751813 1.52467e-10)
(2.87949e-06 -0.0214837 5.78939e-10)
(2.87962e-06 -0.0214837 1.00815e-09)
(2.42101e-06 -0.0214886 3.96725e-10)
(2.42099e-06 -0.0214886 8.44562e-10)
(2.49891e-07 -0.00751658 6.31497e-10)
(2.50155e-07 -0.00751658 1.05439e-09)
(2.09025e-07 -0.00751813 4.4735e-10)
(2.09165e-07 -0.00751814 8.88218e-10)
(2.88075e-06 -0.0214837 1.87834e-09)
(2.88439e-06 -0.0214837 0.935075)
(2.42203e-06 -0.0214885 1.9569e-09)
(2.42534e-06 -0.0214885 0.935271)
(2.52641e-07 -0.00751658 1.05016e-09)
(2.61385e-07 -0.00751658 0.922675)
(2.11283e-07 -0.00751813 1.21503e-09)
(2.18903e-07 -0.00751813 0.922866)
(4.28387e-06 -0.0214709 -0.934311)
(4.27892e-06 -0.0214709 -2.00296e-09)
(3.51918e-06 -0.0214779 -0.934505)
(3.51504e-06 -0.0214779 -1.88565e-09)
(4.15996e-07 -0.00751242 -0.921931)
(4.03445e-07 -0.00751243 -8.3534e-10)
(3.3047e-07 -0.0075147 -0.92212)
(3.20043e-07 -0.00751471 -9.15583e-10)
(4.27741e-06 -0.0214709 -1.2694e-09)
(4.27706e-06 -0.0214709 -8.66685e-10)
(3.51379e-06 -0.0214779 -1.12971e-09)
(3.51361e-06 -0.0214779 -7.0967e-10)
(3.99876e-07 -0.00751243 -1.3393e-09)
(3.99354e-07 -0.00751243 -9.24358e-10)
(3.17059e-07 -0.00751471 -1.18409e-09)
(3.16665e-07 -0.00751471 -7.61092e-10)
(4.27693e-06 -0.0214709 -3.01344e-10)
(4.27695e-06 -0.0214709 3.45308e-10)
(3.51361e-06 -0.0214779 -2.33451e-10)
(3.51367e-06 -0.0214779 2.78157e-10)
(3.99284e-07 -0.00751243 -3.07809e-10)
(3.99281e-07 -0.00751243 3.52822e-10)
(3.16655e-07 -0.00751471 -2.41005e-10)
(3.16658e-07 -0.00751471 2.87893e-10)
(4.27714e-06 -0.0214709 9.0724e-10)
(4.27753e-06 -0.0214709 1.31274e-09)
(3.51379e-06 -0.0214779 7.49394e-10)
(3.51406e-06 -0.0214779 1.16393e-09)
(3.99344e-07 -0.00751243 9.65169e-10)
(3.99858e-07 -0.00751243 1.37361e-09)
(3.1667e-07 -0.00751471 8.02274e-10)
(3.17064e-07 -0.00751471 1.21152e-09)
(4.27907e-06 -0.0214709 2.05584e-09)
(4.28403e-06 -0.0214709 0.934311)
(3.51538e-06 -0.0214779 1.91538e-09)
(3.51956e-06 -0.0214779 0.934505)
(4.03422e-07 -0.00751243 8.70217e-10)
(4.15957e-07 -0.00751243 0.921931)
(3.20048e-07 -0.00751471 9.24575e-10)
(3.30464e-07 -0.0075147 0.92212)
(6.1079e-06 -0.0214528 -0.933518)
(6.10111e-06 -0.0214528 -2.4303e-09)
(5.15214e-06 -0.0214626 -0.933727)
(5.14635e-06 -0.0214626 -2.2021e-09)
(6.19056e-07 -0.00750643 -0.921158)
(6.01386e-07 -0.00750643 -7.91666e-10)
(5.13079e-07 -0.00750968 -0.921362)
(4.98103e-07 -0.00750968 -8.13104e-10)
(6.09911e-06 -0.0214528 -1.56004e-09)
(6.09853e-06 -0.0214528 -1.15745e-09)
(5.14461e-06 -0.0214626 -1.41744e-09)
(5.14413e-06 -0.0214626 -1.01624e-09)
(5.96482e-07 -0.00750643 -1.66668e-09)
(5.95713e-07 -0.00750643 -1.23093e-09)
(4.93895e-07 -0.00750968 -1.50355e-09)
(4.93251e-07 -0.00750968 -1.08062e-09)
(6.09821e-06 -0.0214528 -4.23e-10)
(6.0982e-06 -0.0214528 4.72714e-10)
(5.14389e-06 -0.0214626 -3.64771e-10)
(5.1439e-06 -0.0214626 4.08479e-10)
(5.95555e-07 -0.00750643 -4.29111e-10)
(5.95551e-07 -0.00750643 4.78119e-10)
(4.93133e-07 -0.00750968 -3.70801e-10)
(4.93128e-07 -0.00750968 4.14801e-10)
(6.09851e-06 -0.0214528 1.20192e-09)
(6.09908e-06 -0.0214528 1.60646e-09)
(5.14414e-06 -0.0214626 1.05403e-09)
(5.14462e-06 -0.0214626 1.45238e-09)
(5.95698e-07 -0.00750643 1.27469e-09)
(5.96453e-07 -0.00750643 1.70306e-09)
(4.93235e-07 -0.00750968 1.11871e-09)
(4.93866e-07 -0.00750968 1.52864e-09)
(6.10109e-06 -0.0214528 2.48338e-09)
(6.10787e-06 -0.0214528 0.933518)
(5.14638e-06 -0.0214626 2.23352e-09)
(5.15216e-06 -0.0214626 0.933727)
(6.01351e-07 -0.00750643 8.26401e-10)
(6.19003e-07 -0.00750643 0.921158)
(4.98061e-07 -0.00750968 8.21346e-10)
(5.13021e-07 -0.00750968 0.921362)
(8.27762e-06 -0.0214284 -0.932703)
(8.26859e-06 -0.0214284 -3.05024e-09)
(7.14903e-06 -0.0214415 -0.932911)
(7.1412e-06 -0.0214415 -2.73131e-09)
(8.56868e-07 -0.00749824 -0.920364)
(8.33051e-07 -0.00749824 -8.40025e-10)
(7.335e-07 -0.00750263 -0.920567)
(7.12889e-07 -0.00750263 -8.1977e-10)
(8.26602e-06 -0.0214284 -1.88814e-09)
(8.26528e-06 -0.0214284 -1.444e-09)
(7.13893e-06 -0.0214415 -1.72247e-09)
(7.13826e-06 -0.0214415 -1.29887e-09)
(8.26572e-07 -0.00749824 -2.03711e-09)
(8.25547e-07 -0.00749824 -1.53793e-09)
(7.07229e-07 -0.00750263 -1.8477e-09)
(7.06336e-07 -0.00750263 -1.38205e-09)
(8.26484e-06 -0.0214284 -5.3683e-10)
(8.26484e-06 -0.0214284 5.99667e-10)
(7.13788e-06 -0.0214415 -4.78997e-10)
(7.13788e-06 -0.0214415 5.36151e-10)
(8.25324e-07 -0.00749824 -5.43545e-10)
(8.25324e-07 -0.00749824 6.05187e-10)
(7.06144e-07 -0.00750263 -4.85669e-10)
(7.06141e-07 -0.00750263 5.41328e-10)
(8.26526e-06 -0.0214284 1.50042e-09)
(8.266e-06 -0.0214284 1.94072e-09)
(7.13824e-06 -0.0214415 1.34903e-09)
(7.13889e-06 -0.0214415 1.76529e-09)
(8.25544e-07 -0.00749824 1.59334e-09)
(8.26564e-07 -0.00749824 2.08341e-09)
(7.06325e-07 -0.00750263 1.43105e-09)
(7.07209e-07 -0.00750263 1.88321e-09)
(8.26856e-06 -0.0214284 3.09949e-09)
(8.27758e-06 -0.0214284 0.932703)
(7.14116e-06 -0.0214415 2.76274e-09)
(7.14898e-06 -0.0214415 0.932911)
(8.33054e-07 -0.00749824 8.77747e-10)
(8.5685e-07 -0.00749824 0.920364)
(7.12867e-07 -0.00750263 8.33014e-10)
(7.33461e-07 -0.00750263 0.920567)
(1.08353e-05 -0.0213968 -0.931848)
(1.08236e-05 -0.0213968 -3.79291e-09)
(9.50345e-06 -0.0214136 -0.932063)
(9.49318e-06 -0.0214136 -3.41898e-09)
(1.13553e-06 -0.00748755 -0.919532)
(1.10448e-06 -0.00748756 -9.17041e-10)
(9.90418e-07 -0.00749323 -0.919741)
(9.63139e-07 -0.00749323 -8.88596e-10)
(1.08204e-05 -0.0213968 -2.26e-09)
(1.08195e-05 -0.0213968 -1.75178e-09)
(9.4903e-06 -0.0214136 -2.072e-09)
(9.48948e-06 -0.0214136 -1.5927e-09)
(1.09614e-06 -0.00748755 -2.46111e-09)
(1.09483e-06 -0.00748755 -1.87229e-09)
(9.55774e-07 -0.00749323 -2.24316e-09)
(9.54612e-07 -0.00749323 -1.69977e-09)
(1.0819e-05 -0.0213968 -6.60706e-10)
(1.0819e-05 -0.0213968 7.23629e-10)
(9.489e-06 -0.0214136 -5.95484e-10)
(9.48899e-06 -0.0214136 6.6266e-10)
(1.09455e-06 -0.00748755 -6.69014e-10)
(1.09455e-06 -0.00748755 7.31141e-10)
(9.54359e-07 -0.00749323 -6.03416e-10)
(9.5436e-07 -0.00749323 6.68709e-10)
(1.08195e-05 -0.0213968 1.80856e-09)
(1.08204e-05 -0.0213968 2.31166e-09)
(9.48947e-06 -0.0214136 1.65349e-09)
(9.49028e-06 -0.0214136 2.12042e-09)
(1.09483e-06 -0.00748755 1.92827e-09)
(1.09615e-06 -0.00748755 2.50811e-09)
(9.54613e-07 -0.00749323 1.75837e-09)
(9.55775e-07 -0.00749323 2.28903e-09)
(1.08236e-05 -0.0213968 3.84176e-09)
(1.08353e-05 -0.0213968 0.931848)
(9.49316e-06 -0.0214136 3.44884e-09)
(9.50343e-06 -0.0214136 0.932063)
(1.1045e-06 -0.00748756 9.5475e-10)
(1.13554e-06 -0.00748756 0.919532)
(9.63158e-07 -0.00749323 9.07096e-10)
(9.90413e-07 -0.00749323 0.919741)
(1.38727e-05 -0.0213569 -0.930973)
(1.38578e-05 -0.0213569 -4.63693e-09)
(1.22882e-05 -0.021378 -0.931204)
(1.2275e-05 -0.021378 -4.21226e-09)
(1.4671e-06 -0.00747398 -0.918678)
(1.42749e-06 -0.00747399 -9.80781e-10)
(1.29392e-06 -0.00748115 -0.918904)
(1.25878e-06 -0.00748116 -9.63358e-10)
(1.38538e-05 -0.0213569 -2.66841e-09)
(1.38528e-05 -0.0213569 -2.08716e-09)
(1.22714e-05 -0.021378 -2.46262e-09)
(1.22704e-05 -0.021378 -1.91419e-09)
(1.41698e-06 -0.00747398 -2.93533e-09)
(1.41532e-06 -0.00747398 -2.23997e-09)
(1.2494e-06 -0.00748115 -2.69279e-09)
(1.24792e-06 -0.00748115 -2.05065e-09)
(1.38521e-05 -0.0213569 -7.95024e-10)
(1.38521e-05 -0.0213569 8.5549e-10)
(1.22699e-05 -0.021378 -7.25712e-10)
(1.22699e-05 -0.021378 7.87488e-10)
(1.41497e-06 -0.00747398 -8.06177e-10)
(1.41498e-06 -0.00747398 8.65779e-10)
(1.24761e-06 -0.00748115 -7.35596e-10)
(1.24761e-06 -0.00748115 7.96465e-10)
(1.38528e-05 -0.0213569 2.1417e-09)
(1.38538e-05 -0.0213569 2.71934e-09)
(1.22704e-05 -0.021378 1.9698e-09)
(1.22714e-05 -0.021378 2.50675e-09)
(1.41533e-06 -0.00747398 2.29336e-09)
(1.41698e-06 -0.00747398 2.98004e-09)
(1.24793e-06 -0.00748115 2.10485e-09)
(1.2494e-06 -0.00748115 2.73403e-09)
(1.38578e-05 -0.0213569 4.689e-09)
(1.38727e-05 -0.0213569 0.930973)
(1.2275e-05 -0.021378 4.24008e-09)
(1.22882e-05 -0.021378 0.931204)
(1.42753e-06 -0.00747399 1.01816e-09)
(1.4671e-06 -0.00747399 0.918678)
(1.25881e-06 -0.00748116 9.76392e-10)
(1.29392e-06 -0.00748116 0.918904)
(1.74956e-05 -0.0213074 -0.930052)
(1.7477e-05 -0.0213074 -5.61491e-09)
(1.56047e-05 -0.0213335 -0.93029)
(1.55881e-05 -0.0213335 -5.11954e-09)
(1.86452e-06 -0.00745708 -0.917781)
(1.81478e-06 -0.00745708 -1.02801e-09)
(1.65674e-06 -0.00746598 -0.918013)
(1.6123e-06 -0.00746598 -1.01941e-09)
(1.74721e-05 -0.0213074 -3.13131e-09)
(1.74709e-05 -0.0213074 -2.46239e-09)
(1.55837e-05 -0.0213335 -2.89576e-09)
(1.55825e-05 -0.0213335 -2.26678e-09)
(1.80169e-06 -0.00745707 -3.47302e-09)
(1.79964e-06 -0.00745707 -2.65311e-09)
(1.60055e-06 -0.00746598 -3.19553e-09)
(1.59871e-06 -0.00746597 -2.43856e-09)
(1.74701e-05 -0.0213074 -9.41704e-10)
(1.74701e-05 -0.0213074 1.00856e-09)
(1.55818e-05 -0.0213335 -8.64848e-10)
(1.55818e-05 -0.0213335 9.29598e-10)
(1.79921e-06 -0.00745707 -9.56539e-10)
(1.79921e-06 -0.00745707 1.022e-09)
(1.59832e-06 -0.00746597 -8.78322e-10)
(1.59833e-06 -0.00746597 9.41163e-10)
(1.74709e-05 -0.0213074 2.52324e-09)
(1.74721e-05 -0.0213074 3.18692e-09)
(1.55825e-05 -0.0213335 2.32577e-09)
(1.55837e-05 -0.0213335 2.94042e-09)
(1.79964e-06 -0.00745707 2.71193e-09)
(1.80169e-06 -0.00745707 3.5234e-09)
(1.59871e-06 -0.00746597 2.49438e-09)
(1.60056e-06 -0.00746598 3.23847e-09)
(1.7477e-05 -0.0213074 5.67082e-09)
(1.74956e-05 -0.0213074 0.930052)
(1.55881e-05 -0.0213335 5.14696e-09)
(1.56047e-05 -0.0213335 0.93029)
(1.81481e-06 -0.00745708 1.07136e-09)
(1.86451e-06 -0.00745708 0.917781)
(1.61233e-06 -0.00746598 1.03128e-09)
(1.65674e-06 -0.00746598 0.918013)
(2.18206e-05 -0.0212468 -0.929108)
(2.17975e-05 -0.0212468 -6.76928e-09)
(1.95637e-05 -0.0212786 -0.929365)
(1.9543e-05 -0.0212786 -6.17668e-09)
(2.34151e-06 -0.00743627 -0.916861)
(2.27975e-06 -0.00743627 -1.07736e-09)
(2.0922e-06 -0.00744719 -0.917112)
(2.03672e-06 -0.0074472 -1.06063e-09)
(2.17916e-05 -0.0212468 -3.66066e-09)
(2.17901e-05 -0.0212467 -2.88738e-09)
(1.95376e-05 -0.0212786 -3.39104e-09)
(1.95363e-05 -0.0212786 -2.666e-09)
(2.2636e-06 -0.00743626 -4.09298e-09)
(2.26108e-06 -0.00743626 -3.12359e-09)
(2.02216e-06 -0.00744719 -3.77256e-09)
(2.01988e-06 -0.00744719 -2.87977e-09)
(2.17893e-05 -0.0212467 -1.10803e-09)
(2.17893e-05 -0.0212467 1.17868e-09)
(1.95355e-05 -0.0212786 -1.02053e-09)
(1.95355e-05 -0.0212786 1.09234e-09)
(2.26057e-06 -0.00743626 -1.12718e-09)
(2.26056e-06 -0.00743626 1.19721e-09)
(2.01942e-06 -0.00744718 -1.03819e-09)
(2.01942e-06 -0.00744718 1.10774e-09)
(2.17901e-05 -0.0212467 2.95102e-09)
(2.17916e-05 -0.0212468 3.72274e-09)
(1.95363e-05 -0.0212786 2.73174e-09)
(1.95376e-05 -0.0212786 3.44379e-09)
(2.26107e-06 -0.00743626 3.1867e-09)
(2.26358e-06 -0.00743627 4.14755e-09)
(2.01988e-06 -0.00744719 2.94197e-09)
(2.02215e-06 -0.00744719 3.82272e-09)
(2.17975e-05 -0.0212468 6.82901e-09)
(2.18206e-05 -0.0212468 0.929108)
(1.9543e-05 -0.0212786 6.213e-09)
(1.95637e-05 -0.0212786 0.929365)
(2.27973e-06 -0.00743627 1.12759e-09)
(2.34145e-06 -0.00743627 0.916861)
(2.03671e-06 -0.0074472 1.08585e-09)
(2.09217e-06 -0.0074472 0.917112)
(2.69689e-05 -0.0211732 -0.928129)
(2.69406e-05 -0.0211731 -8.14163e-09)
(2.42847e-05 -0.0212117 -0.928382)
(2.42592e-05 -0.0212117 -7.43087e-09)
(2.91201e-06 -0.00741093 -0.915907)
(2.83601e-06 -0.00741093 -1.14782e-09)
(2.61409e-06 -0.00742421 -0.916154)
(2.54551e-06 -0.00742421 -1.11756e-09)
(2.69335e-05 -0.0211731 -4.25349e-09)
(2.69318e-05 -0.0211731 -3.35625e-09)
(2.42527e-05 -0.0212117 -3.95222e-09)
(2.42511e-05 -0.0212117 -3.11463e-09)
(2.81628e-06 -0.00741092 -4.79506e-09)
(2.81322e-06 -0.00741092 -3.64658e-09)
(2.52765e-06 -0.0074242 -4.43412e-09)
(2.52486e-06 -0.00742419 -3.37738e-09)
(2.69308e-05 -0.0211731 -1.28873e-09)
(2.69308e-05 -0.0211731 1.37031e-09)
(2.42501e-05 -0.0212117 -1.19599e-09)
(2.42501e-05 -0.0212117 1.2706e-09)
(2.81261e-06 -0.00741091 -1.31387e-09)
(2.81261e-06 -0.00741091 1.39451e-09)
(2.5243e-06 -0.00742419 -1.2183e-09)
(2.5243e-06 -0.00742419 1.29193e-09)
(2.69318e-05 -0.0211731 3.43114e-09)
(2.69335e-05 -0.0211731 4.32489e-09)
(2.42511e-05 -0.0212117 3.18272e-09)
(2.42526e-05 -0.0212117 4.01014e-09)
(2.81321e-06 -0.00741092 3.72065e-09)
(2.81627e-06 -0.00741092 4.8603e-09)
(2.52485e-06 -0.0074242 3.44389e-09)
(2.52762e-06 -0.0074242 4.48873e-09)
(2.69406e-05 -0.0211732 8.20047e-09)
(2.69689e-05 -0.0211732 0.928129)
(2.42592e-05 -0.0212117 7.47292e-09)
(2.42846e-05 -0.0212117 0.928382)
(2.83602e-06 -0.00741093 1.20067e-09)
(2.91197e-06 -0.00741093 0.915907)
(2.54549e-06 -0.00742421 1.15129e-09)
(2.61402e-06 -0.00742421 0.916154)
(3.30734e-05 -0.0210845 -0.927113)
(3.3039e-05 -0.0210845 -9.74429e-09)
(2.98943e-05 -0.0211308 -0.92739)
(2.98631e-05 -0.0211308 -8.91398e-09)
(3.59143e-06 -0.00738031 -0.914918)
(3.49866e-06 -0.00738031 -1.20608e-09)
(3.23706e-06 -0.00739633 -0.915187)
(3.15302e-06 -0.00739633 -1.18056e-09)
(3.30304e-05 -0.0210845 -4.91367e-09)
(3.30285e-05 -0.0210845 -3.87097e-09)
(2.98553e-05 -0.0211308 -4.57815e-09)
(2.98534e-05 -0.0211308 -3.60497e-09)
(3.47475e-06 -0.00738031 -5.58177e-09)
(3.47104e-06 -0.0073803 -4.2251e-09)
(3.13129e-06 -0.00739632 -5.17761e-09)
(3.12792e-06 -0.00739631 -3.92691e-09)
(3.30274e-05 -0.0210845 -1.48047e-09)
(3.30274e-05 -0.0210845 1.59496e-09)
(2.98524e-05 -0.0211308 -1.38136e-09)
(2.98524e-05 -0.0211308 1.47862e-09)
(3.47034e-06 -0.00738029 -1.51284e-09)
(3.47034e-06 -0.00738029 1.62598e-09)
(3.12727e-06 -0.00739631 -1.41039e-09)
(3.12727e-06 -0.00739631 1.50629e-09)
(3.30285e-05 -0.0210845 3.97733e-09)
(3.30305e-05 -0.0210845 5.00892e-09)
(2.98535e-05 -0.0211308 3.6958e-09)
(2.98553e-05 -0.0211308 4.65525e-09)
(3.47104e-06 -0.0073803 4.33032e-09)
(3.47475e-06 -0.00738031 5.67421e-09)
(3.12792e-06 -0.00739631 4.01574e-09)
(3.13128e-06 -0.00739632 5.25417e-09)
(3.30391e-05 -0.0210845 9.79724e-09)
(3.30735e-05 -0.0210845 0.927113)
(2.98631e-05 -0.0211308 8.96327e-09)
(2.98943e-05 -0.0211309 0.92739)
(3.4987e-06 -0.00738032 1.2699e-09)
(3.59141e-06 -0.00738032 0.914918)
(3.15305e-06 -0.00739633 1.23425e-09)
(3.23702e-06 -0.00739633 0.915187)
(4.027e-05 -0.0209787 -0.926058)
(4.02284e-05 -0.0209786 -1.15285e-08)
(3.65274e-05 -0.0210339 -0.926332)
(3.64896e-05 -0.0210339 -1.05988e-08)
(4.39553e-06 -0.00734362 -0.91389)
(4.28314e-06 -0.00734362 -1.19734e-09)
(3.97672e-06 -0.00736278 -0.914156)
(3.87454e-06 -0.00736278 -1.1976e-09)
(4.02182e-05 -0.0209786 -5.62985e-09)
(4.02159e-05 -0.0209786 -4.44308e-09)
(3.64802e-05 -0.0210339 -5.26482e-09)
(3.64781e-05 -0.0210338 -4.14479e-09)
(4.25434e-06 -0.00734361 -6.4498e-09)
(4.24989e-06 -0.0073436 -4.86953e-09)
(3.84827e-06 -0.00736277 -6.00227e-09)
(3.84422e-06 -0.00736276 -4.53554e-09)
(4.02147e-05 -0.0209786 -1.69924e-09)
(4.02147e-05 -0.0209786 1.83591e-09)
(3.64769e-05 -0.0210338 -1.58248e-09)
(3.64769e-05 -0.0210338 1.71609e-09)
(4.24907e-06 -0.00734359 -1.73965e-09)
(4.24907e-06 -0.00734359 1.8746e-09)
(3.84345e-06 -0.00736275 -1.61985e-09)
(3.84346e-06 -0.00736275 1.74992e-09)
(4.0216e-05 -0.0209786 4.57022e-09)
(4.02182e-05 -0.0209786 5.7374e-09)
(3.64782e-05 -0.0210338 4.27084e-09)
(3.64803e-05 -0.0210339 5.3677e-09)
(4.2499e-06 -0.0073436 4.99518e-09)
(4.25435e-06 -0.00734361 6.55913e-09)
(3.84422e-06 -0.00736276 4.65679e-09)
(3.84828e-06 -0.00736277 6.10951e-09)
(4.02285e-05 -0.0209786 1.15754e-08)
(4.027e-05 -0.0209787 0.926058)
(3.64896e-05 -0.0210339 1.06578e-08)
(3.65275e-05 -0.0210339 0.926332)
(4.28319e-06 -0.00734362 1.26632e-09)
(4.39552e-06 -0.00734362 0.91389)
(3.87458e-06 -0.00736278 1.28153e-09)
(3.9767e-06 -0.00736278 0.914156)
(4.87039e-05 -0.020853 -0.924983)
(4.8654e-05 -0.020853 -1.34972e-08)
(4.43242e-05 -0.0209184 -0.925253)
(4.42786e-05 -0.0209184 -1.24628e-08)
(5.34111e-06 -0.00729992 -0.912843)
(5.2059e-06 -0.00729992 -1.09863e-09)
(4.84938e-06 -0.0073227 -0.913105)
(4.72602e-06 -0.0073227 -1.13841e-09)
(4.86419e-05 -0.0208529 -6.40089e-09)
(4.86393e-05 -0.0208529 -5.07958e-09)
(4.42675e-05 -0.0209184 -6.00563e-09)
(4.42651e-05 -0.0209184 -4.75019e-09)
(5.17146e-06 -0.00729991 -7.40587e-09)
(5.16614e-06 -0.0072999 -5.59042e-09)
(4.6945e-06 -0.00732269 -6.9134e-09)
(4.68964e-06 -0.00732268 -5.21876e-09)
(4.86379e-05 -0.0208529 -1.95553e-09)
(4.86379e-05 -0.0208529 2.08169e-09)
(4.42637e-05 -0.0209184 -1.822e-09)
(4.42638e-05 -0.0209184 1.95647e-09)
(5.16517e-06 -0.00729989 -2.00539e-09)
(5.16518e-06 -0.00729989 2.1305e-09)
(4.68874e-06 -0.00732267 -1.86773e-09)
(4.68875e-06 -0.00732267 1.99965e-09)
(4.86394e-05 -0.0208529 5.19712e-09)
(4.8642e-05 -0.0208529 6.50339e-09)
(4.42651e-05 -0.0209184 4.87658e-09)
(4.42676e-05 -0.0209184 6.1124e-09)
(5.16615e-06 -0.0072999 5.70748e-09)
(5.17147e-06 -0.00729991 7.50711e-09)
(4.68965e-06 -0.00732268 5.34238e-09)
(4.69452e-06 -0.00732269 7.02278e-09)
(4.86541e-05 -0.020853 1.35431e-08)
(4.87039e-05 -0.020853 0.924983)
(4.42787e-05 -0.0209184 1.25266e-08)
(4.43242e-05 -0.0209185 0.925253)
(5.20595e-06 -0.00729992 1.16335e-09)
(5.3411e-06 -0.00729992 0.912843)
(4.72607e-06 -0.0073227 1.22959e-09)
(4.84936e-06 -0.0073227 0.913105)
(5.85205e-05 -0.0207048 -0.923837)
(5.84611e-05 -0.0207047 -1.57072e-08)
(5.34322e-05 -0.0207818 -0.924132)
(5.33778e-05 -0.0207818 -1.45447e-08)
(6.44456e-06 -0.00724824 -0.911725)
(6.28303e-06 -0.00724824 -9.26326e-10)
(5.87187e-06 -0.00727513 -0.912013)
(5.72397e-06 -0.00727513 -1.00004e-09)
(5.84469e-05 -0.0207047 -7.23976e-09)
(5.84439e-05 -0.0207047 -5.77732e-09)
(5.33647e-05 -0.0207818 -6.81022e-09)
(5.33619e-05 -0.0207818 -5.41839e-09)
(6.2421e-06 -0.00724822 -8.45561e-09)
(6.23577e-06 -0.00724821 -6.38185e-09)
(5.6864e-06 -0.00727512 -7.9152e-09)
(5.6806e-06 -0.00727511 -5.97539e-09)
(5.84423e-05 -0.0207047 -2.23458e-09)
(5.84423e-05 -0.0207047 2.35753e-09)
(5.33603e-05 -0.0207818 -2.09141e-09)
(5.33604e-05 -0.0207818 2.21554e-09)
(6.23463e-06 -0.0072482 -2.29436e-09)
(6.23464e-06 -0.0072482 2.41751e-09)
(5.67954e-06 -0.0072751 -2.14595e-09)
(5.67955e-06 -0.0072751 2.26974e-09)
(5.8444e-05 -0.0207047 5.89348e-09)
(5.8447e-05 -0.0207047 7.33358e-09)
(5.33619e-05 -0.0207818 5.53644e-09)
(5.33647e-05 -0.0207818 6.90673e-09)
(6.23577e-06 -0.00724821 6.49657e-09)
(6.2421e-06 -0.00724823 8.55554e-09)
(5.6806e-06 -0.00727511 6.09063e-09)
(5.68641e-06 -0.00727512 8.0175e-09)
(5.84612e-05 -0.0207047 1.57538e-08)
(5.85206e-05 -0.0207048 0.923837)
(5.33779e-05 -0.0207818 1.46051e-08)
(5.34323e-05 -0.0207818 0.924132)
(6.28304e-06 -0.00724824 9.93822e-10)
(6.44452e-06 -0.00724824 0.911725)
(5.724e-06 -0.00727513 1.0867e-09)
(5.87183e-06 -0.00727513 0.912013)
(6.98632e-05 -0.0205311 -0.922666)
(6.97931e-05 -0.0205311 -1.82173e-08)
(6.39937e-05 -0.0206213 -0.922969)
(6.39291e-05 -0.0206213 -1.68989e-08)
(7.72225e-06 -0.00718752 -0.910585)
(7.53054e-06 -0.00718752 -7.03856e-10)
(7.0603e-06 -0.00721907 -0.91088)
(6.88418e-06 -0.00721907 -8.01527e-10)
(6.97764e-05 -0.020531 -8.14793e-09)
(6.9773e-05 -0.020531 -6.53052e-09)
(6.39138e-05 -0.0206212 -7.68124e-09)
(6.39106e-05 -0.0206212 -6.14034e-09)
(7.48222e-06 -0.0071875 -9.6098e-09)
(7.47474e-06 -0.00718748 -7.24749e-09)
(6.83969e-06 -0.00721905 -9.01341e-09)
(6.8328e-06 -0.00721904 -6.80117e-09)
(6.97711e-05 -0.020531 -2.53337e-09)
(6.97711e-05 -0.020531 2.66338e-09)
(6.39088e-05 -0.0206212 -2.37811e-09)
(6.39088e-05 -0.0206212 2.50798e-09)
(7.47341e-06 -0.00718747 -2.60793e-09)
(7.47341e-06 -0.00718747 2.73488e-09)
(6.83157e-06 -0.00721903 -2.44551e-09)
(6.83157e-06 -0.00721903 2.57238e-09)
(6.9773e-05 -0.020531 6.6539e-09)
(6.97765e-05 -0.020531 8.24432e-09)
(6.39106e-05 -0.0206212 6.26609e-09)
(6.39138e-05 -0.0206212 7.77545e-09)
(7.47474e-06 -0.00718748 7.36574e-09)
(7.48222e-06 -0.0071875 9.7129e-09)
(6.8328e-06 -0.00721904 6.91875e-09)
(6.83968e-06 -0.00721906 9.11855e-09)
(6.97931e-05 -0.0205311 1.82594e-08)
(6.98633e-05 -0.0205311 0.922666)
(6.39292e-05 -0.0206213 1.6957e-08)
(6.39937e-05 -0.0206213 0.922969)
(7.53055e-06 -0.00718752 7.70946e-10)
(7.7222e-06 -0.00718752 0.910585)
(6.88419e-06 -0.00721907 8.88088e-10)
(7.06024e-06 -0.00721907 0.91088)
(8.2872e-05 -0.0203289 -0.921455)
(8.27896e-05 -0.0203288 -2.10428e-08)
(7.61528e-05 -0.0204337 -0.921768)
(7.60767e-05 -0.0204337 -1.95582e-08)
(9.18985e-06 -0.00711662 -0.909405)
(8.96383e-06 -0.00711662 -4.2613e-10)
(8.43097e-06 -0.0071534 -0.909709)
(8.22265e-06 -0.0071534 -5.492e-10)
(8.27702e-05 -0.0203288 -9.15068e-09)
(8.27663e-05 -0.0203288 -7.36568e-09)
(7.60587e-05 -0.0204337 -8.63043e-09)
(7.60551e-05 -0.0204336 -6.93401e-09)
(8.90715e-06 -0.0071166 -1.08918e-08)
(8.89835e-06 -0.00711658 -8.20695e-09)
(8.17028e-06 -0.00715339 -1.02294e-08)
(8.16216e-06 -0.00715337 -7.71241e-09)
(8.27641e-05 -0.0203287 -2.86498e-09)
(8.27641e-05 -0.0203287 2.99935e-09)
(7.6053e-05 -0.0204336 -2.69385e-09)
(7.6053e-05 -0.0204336 2.82627e-09)
(8.8968e-06 -0.00711657 -2.95446e-09)
(8.8968e-06 -0.00711657 3.08643e-09)
(8.16072e-06 -0.00715336 -2.77606e-09)
(8.16072e-06 -0.00715336 2.90484e-09)
(8.27663e-05 -0.0203288 7.4889e-09)
(8.27703e-05 -0.0203288 9.24677e-09)
(7.60551e-05 -0.0204336 7.05951e-09)
(7.60588e-05 -0.0204337 8.73016e-09)
(8.89835e-06 -0.00711658 8.32754e-09)
(8.90715e-06 -0.0071166 1.09933e-08)
(8.16216e-06 -0.00715337 7.83198e-09)
(8.17027e-06 -0.00715339 1.03356e-08)
(8.27897e-05 -0.0203288 2.10791e-08)
(8.28721e-05 -0.0203289 0.921455)
(7.60768e-05 -0.0204337 1.9619e-08)
(7.61529e-05 -0.0204338 0.921768)
(8.96386e-06 -0.00711662 4.91278e-10)
(9.18982e-06 -0.00711662 0.909405)
(8.22266e-06 -0.00715341 6.41304e-10)
(8.43093e-06 -0.00715341 0.909709)
(9.76742e-05 -0.0200948 -0.9202)
(9.7578e-05 -0.0200948 -2.41789e-08)
(9.00434e-05 -0.020216 -0.920526)
(8.99544e-05 -0.020216 -2.25458e-08)
(1.08614e-05 -0.00703438 -0.908181)
(1.05967e-05 -0.00703438 -7.67904e-11)
(9.99881e-06 -0.00707698 -0.908499)
(9.75403e-06 -0.00707698 -2.40928e-10)
(9.75556e-05 -0.0200947 -1.02438e-08)
(9.75511e-05 -0.0200947 -8.27219e-09)
(8.99335e-05 -0.0202159 -9.68622e-09)
(8.99293e-05 -0.0202159 -7.80301e-09)
(1.05306e-05 -0.00703436 -1.22946e-08)
(1.05203e-05 -0.00703434 -9.25888e-09)
(9.69278e-06 -0.00707697 -1.15733e-08)
(9.68327e-06 -0.00707694 -8.71842e-09)
(9.75485e-05 -0.0200947 -3.22908e-09)
(9.75485e-05 -0.0200947 3.36352e-09)
(8.99269e-05 -0.0202159 -3.03972e-09)
(8.99269e-05 -0.0202159 3.1784e-09)
(1.05185e-05 -0.00703432 -3.33635e-09)
(1.05185e-05 -0.00703432 3.46885e-09)
(9.6816e-06 -0.00707693 -3.13941e-09)
(9.6816e-06 -0.00707693 3.27335e-09)
(9.75511e-05 -0.0200947 8.39589e-09)
(9.75557e-05 -0.0200947 1.03393e-08)
(8.99293e-05 -0.0202159 7.93363e-09)
(8.99336e-05 -0.0202159 9.77886e-09)
(1.05203e-05 -0.00703434 9.37924e-09)
(1.05306e-05 -0.00703436 1.23932e-08)
(9.68328e-06 -0.00707694 8.84025e-09)
(9.69279e-06 -0.00707697 1.1678e-08)
(9.75781e-05 -0.0200948 2.42284e-08)
(9.76743e-05 -0.0200948 0.9202)
(8.99545e-05 -0.020216 2.26005e-08)
(9.00435e-05 -0.020216 0.920526)
(1.05967e-05 -0.00703438 1.4272e-10)
(1.08614e-05 -0.00703438 0.908181)
(9.75406e-06 -0.00707699 3.27216e-10)
(9.99879e-06 -0.00707699 0.908499)
(0.000114374 -0.0198257 -0.918891)
(0.000114263 -0.0198257 -2.76048e-08)
(0.000105783 -0.0199648 -0.91922)
(0.000105679 -0.0199648 -2.58278e-08)
(1.2748e-05 -0.00693961 -0.906905)
(1.24401e-05 -0.00693961 3.72146e-10)
(1.17765e-05 -0.00698863 -0.907227)
(1.14908e-05 -0.00698863 1.48537e-10)
(0.000114237 -0.0198256 -1.13786e-08)
(0.000114232 -0.0198256 -9.25527e-09)
(0.000105655 -0.0199647 -1.08012e-08)
(0.000105651 -0.0199647 -8.75539e-09)
(1.23636e-05 -0.00693959 -1.37999e-08)
(1.23517e-05 -0.00693957 -1.0391e-08)
(1.14196e-05 -0.00698861 -1.30311e-08)
(1.14086e-05 -0.00698858 -9.81295e-09)
(0.000114229 -0.0198255 -3.6267e-09)
(0.000114229 -0.0198255 3.75266e-09)
(0.000105648 -0.0199647 -3.42468e-09)
(0.000105648 -0.0199647 3.55091e-09)
(1.23496e-05 -0.00693955 -3.75069e-09)
(1.23496e-05 -0.00693955 3.87862e-09)
(1.14066e-05 -0.00698857 -3.5398e-09)
(1.14066e-05 -0.00698857 3.66723e-09)
(0.000114232 -0.0198256 9.37084e-09)
(0.000114237 -0.0198256 1.14855e-08)
(0.000105651 -0.0199647 8.86906e-09)
(0.000105656 -0.0199647 1.09014e-08)
(1.23517e-05 -0.00693957 1.05094e-08)
(1.23636e-05 -0.00693959 1.38977e-08)
(1.14086e-05 -0.00698858 9.93014e-09)
(1.14196e-05 -0.00698861 1.31282e-08)
(0.000114263 -0.0198257 2.76562e-08)
(0.000114374 -0.0198257 0.918891)
(0.00010568 -0.0199648 2.58964e-08)
(0.000105783 -0.0199648 0.91922)
(1.24402e-05 -0.00693961 -3.12499e-10)
(1.2748e-05 -0.00693961 0.906905)
(1.14908e-05 -0.00698863 -7.03619e-11)
(1.17765e-05 -0.00698863 0.907227)
(0.000133056 -0.0195182 -0.917541)
(0.000132928 -0.0195181 -3.13136e-08)
(0.000123466 -0.0196769 -0.917889)
(0.000123346 -0.0196769 -2.93936e-08)
(1.48584e-05 -0.0068311 -0.90559)
(1.45027e-05 -0.0068311 9.81573e-10)
(1.37741e-05 -0.00688714 -0.905929)
(1.34429e-05 -0.00688714 6.85784e-10)
(0.000132899 -0.0195181 -1.25916e-08)
(0.000132893 -0.019518 -1.02781e-08)
(0.000123319 -0.0196768 -1.19746e-08)
(0.000123313 -0.0196768 -9.75774e-09)
(1.44147e-05 -0.00683108 -1.53892e-08)
(1.44009e-05 -0.00683105 -1.15865e-08)
(1.33608e-05 -0.00688711 -1.45765e-08)
(1.33479e-05 -0.00688709 -1.09742e-08)
(0.000132889 -0.019518 -4.03352e-09)
(0.000132889 -0.019518 4.18605e-09)
(0.00012331 -0.0196767 -3.82478e-09)
(0.00012331 -0.0196767 3.96658e-09)
(1.43985e-05 -0.00683103 -4.17906e-09)
(1.43985e-05 -0.00683103 4.32993e-09)
(1.33457e-05 -0.00688707 -3.95872e-09)
(1.33457e-05 -0.00688707 4.10072e-09)
(0.000132893 -0.019518 1.04185e-08)
(0.000132899 -0.0195181 1.26768e-08)
(0.000123313 -0.0196768 9.88909e-09)
(0.000123319 -0.0196768 1.20735e-08)
(1.44009e-05 -0.00683105 1.17207e-08)
(1.44147e-05 -0.00683108 1.54967e-08)
(1.33479e-05 -0.00688709 1.11043e-08)