/*--------------------------------*- C++ -*----------------------------------*\
  =========                 |
  \\      /  F ield         | OpenFOAM: The Open Source CFD Toolbox
   \\    /   O peration     | Website:  https://openfoam.org
    \\  /    A nd           | Version:  9
     \\/     M anipulation  |
\*---------------------------------------------------------------------------*/
FoamFile
{
    format      ascii;
    class       volScalarField;
    location    "2";
    object      epsilon;
}
// * * * * * * * * * * * * * * * * * * * * * * * * * * * * * * * * * * * * * //

dimensions      [0 2 -3 0 0 0 0];

internalField   nonuniform List<scalar> 
4545
(
6.12039
10.4908
8.34474
10.4906
6.12014
16.7955
17.5839
14.9913
17.5837
16.7952
23.5022
22.7431
19.7564
22.7429
23.5019
27.8054
26.4841
23.3296
26.4839
27.8052
30.8506
29.3102
26.0706
29.3101
30.8504
33.1498
31.5057
28.2156
31.5056
33.1497
34.927
33.229
29.909
33.2296
34.9305
36.3047
34.5796
31.248
34.5812
36.3126
37.3664
35.6303
32.3
35.6333
37.3753
38.1716
36.4347
33.1149
36.4384
38.1843
38.757
37.0342
33.7314
37.0383
38.7926
39.1933
37.4667
34.1811
37.4666
39.2217
39.5048
37.7575
34.4892
37.7473
39.4937
39.66
37.9135
34.6725
37.8992
39.6416
39.7098
37.9609
34.7481
37.9457
39.6772
39.6796
37.9215
34.7355
37.9056
39.6454
39.5581
37.7957
34.6451
37.7813
39.5527
39.3583
37.5787
34.462
37.566
39.3433
39.0753
37.2832
34.2054
37.2767
39.0618
38.6987
36.9113
33.8791
36.9177
38.741
38.2631
36.4713
33.4851
36.4844
38.326
37.7603
35.9632
33.0258
35.9779
37.8215
37.1822
35.3892
32.5039
35.4051
37.2346
36.5564
34.7549
31.9228
34.7745
36.6006
35.878
34.06
31.2843
34.0884
35.9654
35.1446
33.3025
30.5783
33.3314
35.2355
34.3528
32.4881
29.8358
32.5061
34.4126
33.5221
31.6177
29.0433
31.627
33.5677
32.624
30.6858
28.1974
30.6907
32.6557
31.6283
29.6926
27.3007
29.6963
31.6733
30.6184
28.6494
26.3564
28.6504
30.6377
29.5567
27.5583
25.3676
27.5568
29.5539
28.4345
26.4219
24.3375
26.4219
28.4401
27.2834
25.247
23.2689
25.2477
27.2837
26.0809
24.0362
22.1642
24.0369
26.0823
24.8393
22.7937
21.0247
22.7941
24.84
23.5665
21.5214
19.8499
21.5215
23.5666
22.2666
20.2111
18.6353
20.211
22.2665
20.9217
18.8314
17.3743
18.8312
20.9214
12.9821
12.9226
9.98314
12.9227
12.9821
18.6519
16.9402
13.9107
16.9403
18.652
22.2454
20.0006
16.8007
20.0007
22.2455
24.5376
22.0403
18.8329
22.0405
24.5378
26.0531
23.4525
20.2854
23.4526
26.0533
27.1116
24.4581
21.3448
24.4584
27.1121
27.8643
25.183
22.1258
25.1838
27.8672
28.3975
25.7018
22.6998
25.7029
28.3972
28.7655
26.0641
23.1153
26.0657
28.764
29.0017
26.3032
23.4058
26.3051
28.9981
29.1321
26.4435
23.5959
26.4469
29.1328
29.1837
26.5073
23.7047
26.5106
29.2053
29.1764
26.5058
23.7448
26.5044
29.1922
29.1279
26.4522
23.7281
26.4455
29.1149
29.0193
26.3458
23.6627
26.3373
29.0072
28.8655
26.1996
23.5539
26.1913
28.8618
28.6828
26.0173
23.4079
26.0108
28.6813
28.4643
25.7998
23.2256
25.7948
28.4723
28.2044
25.5474
23.0094
25.5458
28.2188
27.9108
25.2616
22.7617
25.2677
27.9367
27.5814
24.9464
22.484
24.9596
27.6378
27.2148
24.6024
22.1771
24.6187
27.2837
26.8253
24.232
21.843
24.2486
26.8839
26.4098
23.8379
21.4841
23.8556
26.4601
25.9703
23.4206
21.1013
23.4431
26.0287
25.5136
22.9809
20.6934
23.0047
25.5868
25.0396
22.5198
20.2642
22.5377
25.0908
24.5347
22.0369
19.8137
22.0491
24.5689
23.9816
21.5282
19.3401
21.5392
24.0392
23.3975
20.994
18.8433
21.0052
23.4721
22.8261
20.4427
18.325
20.4487
22.8658
22.2308
19.8714
17.786
19.873
22.241
21.5816
19.2779
17.227
19.2797
21.5983
20.9241
18.6667
16.6485
18.6681
20.9351
20.2463
18.0368
16.0501
18.0376
20.2486
19.5365
17.3869
15.4312
17.3874
19.5376
18.8055
16.7153
14.7895
16.7157
18.8061
18.0576
16.0126
14.1201
16.0129
18.0581
17.2703
15.2437
13.4178
15.244
17.2706
15.8461
14.8678
12.3163
14.8679
15.8463
19.9226
18.1014
15.7051
18.1017
19.923
22.3857
20.4512
18.098
20.4515
22.3862
23.9557
21.986
19.7281
21.9863
23.9562
24.9574
23.0091
20.8466
23.0094
24.9579
25.6112
23.6935
21.6192
23.6938
25.6117
26.0337
24.1473
22.1517
24.1477
26.0346
26.2952
24.4385
22.5124
24.439
26.2962
26.4397
24.61
22.7452
24.6107
26.441
26.4958
24.6903
22.88
24.6911
26.4973
26.4834
24.6995
22.9378
24.7001
26.4856
26.4206
24.6548
22.9348
24.6551
26.4232
26.3125
24.5621
22.8828
24.5612
26.3121
26.1692
24.4317
22.7871
24.4294
26.1649
25.9933
24.268
22.6568
24.2651
25.9876
25.79
24.0762
22.496
24.0729
25.7841
25.5627
23.8595
22.3082
23.856
25.5575
25.3118
23.6188
22.0952
23.616
25.3079
25.0371
23.3553
21.8588
23.3542
25.0358
24.7391
23.0702
21.6002
23.0712
24.7428
24.4192
22.7648
21.3206
22.768
24.4283
24.078
22.4399
21.0209
22.4447
24.0901
23.7166
22.0966
20.7022
22.1024
23.7297
23.3359
21.7358
20.3653
21.7428
23.3503
22.9363
21.3579
20.0108
21.3662
22.9536
22.5184
20.9635
19.6388
20.9718
22.5367
22.0824
20.553
19.2498
20.5597
22.0974
21.6279
20.1264
18.8444
20.1312
21.639
21.1533
19.6833
18.4227
19.6869
21.1632
20.6598
19.2243
17.985
19.227
20.6691
20.1519
18.751
17.5322
18.7526
20.1575
19.6287
18.2639
17.0649
18.2647
19.6312
19.0894
17.7634
16.5836
17.7641
19.0916
18.5373
17.2505
16.0886
17.2513
18.5391
17.9726
16.7256
15.5801
16.7263
17.9739
17.3959
16.1885
15.0579
16.1891
17.397
16.8094
15.6385
14.5215
15.6391
16.8104
16.2177
15.0716
13.9696
15.0721
16.2186
15.6067
14.4714
13.4044
14.4718
15.6074
17.2568
16.1567
13.9577
16.157
17.2571
20.701
19.0036
17.0222
19.004
20.7015
22.6891
20.9946
19.1188
20.995
22.6897
23.9245
22.2639
20.5118
22.2643
23.9251
24.6821
23.0791
21.4371
23.0795
24.6828
25.1443
23.5959
22.0483
23.5963
25.1449
25.4108
23.9109
22.4435
23.9113
25.4115
25.543
24.085
22.6861
24.0855
25.5437
25.5798
24.158
22.8177
24.1585
25.5807
25.5479
24.1556
22.866
24.1562
25.5489
25.4628
24.0977
22.8514
24.0983
25.464
25.3357
23.9927
22.7861
23.9931
25.3366
25.1753
23.8513
22.679
23.8513
25.1754
24.9881
23.6805
22.5388
23.6801
24.9872
24.7772
23.4843
22.3707
23.4836
24.7757
24.5459
23.2664
22.1785
23.2654
24.544
24.2962
23.029
21.9649
23.028
24.2943
24.029
22.7736
21.7317
22.7727
24.0274
23.7449
22.5012
21.4805
22.5009
23.7442
23.444
22.2126
21.2123
22.213
23.4447
23.1267
21.9085
20.9278
21.9098
23.129
22.7936
21.5896
20.6279
21.5915
22.7971
22.4448
21.2564
20.3131
21.2588
22.4492
22.0805
20.9092
19.984
20.9122
22.0859
21.7012
20.5485
19.641
20.552
21.7075
21.307
20.1747
19.2844
20.1782
21.3135
20.8985
19.788
18.9144
19.791
20.9043
20.4759
19.3888
18.5316
19.3913
20.4806
20.0395
18.9775
18.1363
18.9794
20.0433
19.5897
18.5544
17.7288
18.5559
19.5929
19.128
18.1201
17.3096
18.1213
19.1304
18.6552
17.6755
16.8792
17.6764
18.6569
18.1721
17.221
16.4382
17.2218
18.1736
17.6799
16.7575
15.9871
16.7583
17.6813
17.1799
16.286
15.5265
16.2868
17.1813
16.674
15.8076
15.0573
15.8084
16.6754
16.1662
15.324
14.5803
15.3248
16.1675
15.6643
14.8359
14.0982
14.8366
15.6655
15.1643
14.3371
13.6184
14.3378
15.1654
18.0688
16.9903
15.0566
16.9907
18.0693
21.1894
19.6135
17.8998
19.614
21.1901
22.9416
21.4039
19.8087
21.4044
22.9423
24.0048
22.5214
21.0524
22.5219
24.0055
24.6333
23.2165
21.8565
23.2169
24.6339
24.992
23.6353
22.367
23.6357
24.9927
25.1735
23.8687
22.6769
23.8691
25.1741
25.2343
23.9739
22.8466
23.9744
25.2349
25.2122
23.9886
22.9157
23.989
25.2129
25.1305
23.9387
22.9111
23.9392
25.1313
25.0015
23.8372
22.8509
23.8376
25.0023
24.8379
23.6965
22.745
23.6969
24.8386
24.6468
23.5253
22.6044
23.5256
24.6473
24.4339
23.3295
22.4358
23.3297
24.4341
24.2021
23.1129
22.2438
23.1129
24.2021
23.954
22.8785
22.0317
22.8784
23.9538
23.6914
22.6284
21.802
22.6283
23.6911
23.4151
22.364
21.5566
22.3639
23.4148
23.1259
22.0863
21.2967
22.0864
23.126
22.824
21.796
21.0232
21.7964
22.8245
22.5098
21.4938
20.7371
21.4945
22.5108
22.1834
21.1801
20.439
21.1811
22.185
21.8452
20.8553
20.1293
20.8566
21.8472
21.4953
20.5199
19.8085
20.5214
21.4977
21.1339
20.1741
19.4769
20.1757
21.1367
20.7614
19.8182
19.135
19.82
20.7644
20.3783
19.4527
18.7831
19.4544
20.3812
19.9849
19.0779
18.4214
19.0794
19.9876
19.5816
18.6941
18.0502
18.6954
19.584
19.169
18.3014
17.6698
18.3026
19.1711
18.7475
17.9004
17.2803
17.9014
18.7494
18.3178
17.4913
16.882
17.4923
18.3195
17.8806
17.0747
16.475
17.0756
17.8823
17.4369
16.6514
16.0602
16.6523
17.4385
16.988
16.2227
15.6385
16.2236
16.9897
16.5368
15.7906
15.2117
15.7915
16.5384
16.088
15.3577
14.7829
15.3586
16.0895
15.6512
14.9271
14.3558
14.9279
15.6526
15.2262
14.4974
13.9389
14.4982
15.2276
18.5806
17.5391
15.7904
17.5395
18.5812
21.5081
20.0231
18.4827
20.0235
21.5089
23.1299
21.6946
20.2714
21.695
23.1306
24.0987
22.7228
21.4213
22.7233
24.0994
24.6545
23.3465
22.1493
23.3469
24.6551
24.9541
23.7062
22.5962
23.7065
24.9547
25.0859
23.8896
22.8522
23.89
25.0865
25.1042
23.9521
22.9754
23.9525
25.1048
25.0478
23.9314
23.0048
23.9318
25.0484
24.9336
23.8499
22.9666
23.8503
24.9343
24.7777
23.7208
22.875
23.7212
24.7784
24.5909
23.557
22.7433
23.5574
24.5916
24.3801
23.3661
22.5806
23.3665
24.3808
24.1506
23.1539
22.3932
23.1542
24.1512
23.9053
22.9238
22.1854
22.9241
23.9057
23.6465
22.6787
21.9605
22.679
23.6468
23.376
22.4207
21.7208
22.4209
23.3763
23.0948
22.1511
21.4681
22.1514
23.0951
22.8038
21.8712
21.2039
21.8715
22.8042
22.5034
21.5816
20.9291
21.582
22.504
22.194
21.2831
20.6446
21.2837
22.1948
21.876
20.9763
20.3511
20.977
21.8771
21.5498
20.6615
20.0492
20.6623
21.5511
21.2156
20.3393
19.7394
20.3403
21.2172
20.8739
20.0101
19.4222
20.0112
20.8757
20.525
19.6742
19.0978
19.6754
20.527
20.1694
19.332
18.7667
19.3331
20.1714
19.8073
18.9836
18.4289
18.9847
19.8093
19.439
18.6292
18.0845
18.6303
19.441
19.0648
18.2688
17.7333
18.2699
19.0667
18.6846
17.9023
17.3754
17.9033
18.6865
18.2985
17.5295
17.0106
17.5306
18.3003
17.9063
17.1507
16.6391
17.1517
17.9081
17.5085
16.7665
16.2613
16.7675
17.5103
17.1068
16.3782
15.8784
16.3792
17.1086
16.704
15.9885
15.4923
15.9895
16.7057
16.3059
15.6011
15.1065
15.602
16.3076
15.9234
15.2203
14.7258
15.2212
15.9252
15.5601
14.8467
14.3593
14.8477
15.5618
18.9097
17.8984
16.2753
17.8988
18.9104
21.7141
20.2924
18.8656
20.2929
21.7149
23.2593
21.8912
20.5774
21.8917
23.26
24.1743
22.8665
21.6687
22.8669
24.175
24.6887
23.4475
22.3494
23.4479
24.6893
24.9536
23.7715
22.7566
23.7718
24.9542
25.0555
23.9242
22.9784
23.9245
25.056
25.0482
23.96
23.0721
23.9603
25.0487
24.9696
23.917
23.076
23.9174
24.9702
24.8348
23.8143
23.0153
23.8146
24.8354
24.6612
23.6672
22.9031
23.6675
24.6618
24.4589
23.4878
22.754
23.4882
24.4595
24.2348
23.2837
22.5764
23.284
24.2354
23.994
23.0602
22.3763
23.0606
23.9946
23.7396
22.8211
22.158
22.8214
23.7401
23.4738
22.569
21.9247
22.5693
23.4743
23.1986
22.3062
21.6789
22.3065
23.1991
22.9153
22.0343
21.4225
22.0346
22.9158
22.6249
21.7544
21.1571
21.7548
22.6255
22.3281
21.4676
20.8837
21.4681
22.3287
22.0255
21.1748
20.6035
21.1753
22.0263
21.7178
20.8767
20.3173
20.8773
21.7188
21.4056
20.574
20.0259
20.5746
21.4067
21.0895
20.2673
19.7299
20.268
21.0907
20.7698
19.9571
19.4299
19.9579
20.7712
20.4473
19.6438
19.1263
19.6447
20.4488
20.1221
19.3278
18.8193
19.3288
20.1238
19.7946
19.0091
18.5091
19.01
19.7963
19.4645
18.6874
18.1954
18.6884
19.4662
19.1316
18.3627
17.8779
18.3637
19.1334
18.7956
18.0344
17.5561
18.0354
18.7974
18.4562
17.7023
17.2296
17.7033
18.458
18.1131
17.366
16.8979
17.367
18.1149
17.7662
17.0256
16.5612
17.0267
17.7681
17.4162
16.682
16.22
16.6831
17.4181
17.0657
16.3372
15.8762
16.3383
17.0676
16.7198
15.9947
15.5329
15.9958
16.7217
16.3893
15.6591
15.1951
15.6601
16.3912
16.0783
15.3315
14.8712
15.3325
16.0801
19.1138
18.1235
16.5815
18.124
19.1144
21.8399
20.4603
19.1055
20.4608
21.8407
23.3396
22.015
20.7692
22.0155
23.3403
24.2239
22.959
21.8249
22.9594
24.2245
24.7144
23.515
22.4771
23.5154
24.715
24.9591
23.8177
22.8601
23.818
24.9596
25.0429
23.9516
23.0608
23.9519
25.0434
25.0202
23.9709
23.1358
23.9712
25.0207
24.9268
23.9137
23.1237
23.914
24.9273
24.7787
23.7969
23.0477
23.7972
24.7792
24.5932
23.6379
22.9222
23.6382
24.5937
24.3803
23.4481
22.7615
23.4484
24.3809
24.147
23.2348
22.5737
23.2351
24.1475
23.8984
23.0037
22.365
23.004
23.8989
23.6376
22.7583
22.1397
22.7587
23.6382
23.3673
22.5018
21.9011
22.5022
23.3679
23.0896
22.2364
21.6519
22.2367
23.0902
22.806
21.9638
21.3941
21.9642
22.8066
22.5178
21.6857
21.1295
21.6861
22.5184
22.226
21.4032
20.8595
21.4036
22.2267
21.9317
21.1175
20.5855
21.118
21.9324
21.6358
20.8296
20.3084
20.8301
21.6366
21.3392
20.5405
20.0295
20.5411
21.3401
21.0428
20.251
19.7494
20.2516
21.0438
20.7473
19.9619
19.4691
19.9626
20.7485
20.4534
19.6737
19.189
19.6744
20.4547
20.1614
19.3867
18.9095
19.3875
20.1628
19.8717
19.1011
18.6306
19.102
19.8731
19.584
18.8166
18.3519
18.8175
19.5856
19.2978
18.5326
18.0729
18.5335
19.2995
19.0123
18.2481
17.7925
18.249
19.014
18.726
17.9621
17.5096
17.9631
18.7277
18.4379
17.6736
17.2234
17.6746
18.4397
18.1471
17.382
16.933
17.3831
18.149
17.8535
17.0874
16.6384
17.0885
17.8554
17.5587
16.7911
16.3407
16.7922
17.5607
17.2675
16.4959
16.0423
16.497
17.2695
16.9899
16.2058
15.7474
16.2069
16.9919
16.7298
15.9217
15.4639
15.9228
16.7318
19.224
18.2464
16.7498
18.2469
19.2247
21.9053
20.5503
19.2356
20.5508
21.9061
23.3799
22.0804
20.8722
22.0808
23.3806
24.2474
23.0072
21.9081
23.0075
24.248
24.7249
23.5494
22.5443
23.5498
24.7254
24.9581
23.8401
22.9137
23.8404
24.9586
25.0313
23.9632
23.1022
23.9635
25.0318
24.9995
23.9728
23.1662
23.973
24.9999
24.8967
23.9066
23.1446
23.9069
24.8971
24.74
23.7811
23.0589
23.7814
24.7405
24.5465
23.6144
22.9251
23.6146
24.547
24.3264
23.4175
22.7568
23.4178
24.3269
24.0867
23.1981
22.5625
23.1984
24.0871
23.8326
22.9618
22.3481
22.9621
23.8331
23.5675
22.7124
22.1182
22.7127
23.568
23.2942
22.453
21.8765
22.4534
23.2948
23.0152
22.1863
21.6255
22.1867
23.0158
22.7323
21.9143
21.3678
21.9147
22.7328
22.4471
21.6388
21.1054
21.6392
22.4477
22.161
21.3613
20.8398
21.3617
22.1617
21.8755
21.0833
20.5729
21.0838
21.8762
21.5919
20.8063
20.306
20.8068
21.5927
21.3115
20.5315
20.0405
20.532
21.3124
21.0356
20.2601
19.7776
20.2606
21.0366
20.7653
19.9932
19.5184
19.9938
20.7663
20.5016
19.7317
19.2637
19.7323
20.5027
20.2452
19.476
19.014
19.4767
20.2464
19.9963
19.2264
18.7694
19.2272
19.9977
19.7548
18.9825
18.5294
18.9833
19.7562
19.5198
18.7435
18.2933
18.7443
19.5212
19.2899
18.508
18.0597
18.5088
19.2914
19.0633
18.2743
17.8268
18.2752
19.0649
18.8379
18.0407
17.5928
18.0416
18.8396
18.6116
17.8054
17.3561
17.8064
18.6134
18.3831
17.5673
17.1154
17.5684
18.385
18.1526
17.3266
16.8704
17.3277
18.1546
17.9235
17.0847
16.6225
17.0859
17.9255
17.7048
16.8445
16.3746
16.8456
17.7068
17.4995
16.606
16.1333
16.6071
17.5015
19.2563
18.2836
16.8016
18.284
19.257
21.921
20.575
19.2733
20.5755
21.9218
23.3861
22.0958
20.8999
22.0963
23.3868
24.2468
23.0159
21.9283
23.0163
24.2474
24.7186
23.5525
22.5583
23.5529
24.7192
24.9466
23.838
22.922
23.8383
24.9471
25.0147
23.9562
23.1052
23.9565
25.0151
24.978
23.961
23.1642
23.9612
24.9784
24.8701
23.8903
23.1379
23.8905
24.8705
24.7084
23.76
23.0472
23.7603
24.7088
24.51
23.5889
22.9089
23.5891
24.5105
24.2853
23.3879
22.7364
23.3881
24.2857
24.0412
23.1646
22.5382
23.1649
24.0417
23.7834
22.925
22.3205
22.9253
23.7838
23.5153
22.6729
22.088
22.6732
23.5157
23.24
22.4119
21.8445
22.4122
23.2405
22.9603
22.1447
21.593
22.145
22.9608
22.6783
21.8736
21.3361
21.8739
22.6788
22.396
21.6008
21.0763
21.6011
22.3966
22.1154
21.3282
20.8154
21.3286
22.116
21.8382
21.0577
20.5557
21.0581
21.8389
21.5664
20.7912
20.2988
20.7916
21.567
21.3016
20.5302
20.0467
20.5307
21.3023
21.0456
20.2766
19.8009
20.2771
21.0464
20.8002
20.0318
19.5629
20.0323
20.8011
20.5667
19.7972
19.3341
19.7977
20.5677
20.3465
19.5737
19.1153
19.5743
20.3476
20.1403
19.3618
18.9069
19.3625
20.1414
19.9478
19.1613
18.7086
19.162
19.949
19.7683
18.9713
18.5195
18.9721
19.7696
19.6002
18.7903
18.3381
18.7911
19.6017
19.4413
18.6161
18.1621
18.6169
19.4428
19.2883
18.4459
17.9888
18.4468
19.2899
19.138
18.2768
17.8152
18.2778
19.1397
18.9872
18.1061
17.6386
18.1071
18.989
18.8342
17.9319
17.4568
17.9329
18.8361
18.68
17.7537
17.269
17.7548
18.682
18.5317
17.5722
17.0762
17.5733
18.5338
18.3907
17.3858
16.8829
17.3869
18.3927
19.2157
18.2401
16.7433
18.2406
19.2164
21.8906
20.5386
19.2241
20.5391
21.8915
23.3605
22.0644
20.8568
22.0648
23.3612
24.2233
22.9872
21.8889
22.9876
24.224
24.6961
23.5254
22.5215
23.5258
24.6967
24.9242
23.8119
22.8869
23.8122
24.9247
24.992
23.9305
23.0711
23.9308
24.9924
24.9545
23.9351
23.1305
23.9354
24.955
24.8453
23.8638
23.1041
23.8641
24.8457
24.6819
23.7326
23.013
23.7329
24.6823
24.4815
23.5601
22.8738
23.5604
24.4819
24.2545
23.3576
22.7002
23.3578
24.2549
24.0081
23.1326
22.5007
23.1329
24.0085
23.7479
22.8914
22.2817
22.8917
23.7484
23.4778
22.638
22.0483
22.6382
23.4783
23.2011
22.376
21.8042
22.3763
23.2016
22.9209
22.1087
21.5529
22.109
22.9214
22.6395
21.8385
21.2972
21.8388
22.64
22.3596
21.5681
21.0399
21.5684
22.3601
22.0833
21.2996
20.7834
21.2999
22.0838
21.813
21.0355
20.5301
21.0359
21.8136
21.5511
20.778
20.2822
20.7784
21.5517
21.3
20.5294
20.0422
20.5298
21.3006
21.0619
20.2918
19.8121
20.2923
21.0627
20.8395
20.0675
19.5942
20.068
20.8402
20.6347
19.8585
19.3902
19.859
20.6355
20.4497
19.6663
19.2018
19.6669
20.4506
20.2859
19.4922
19.0298
19.4928
20.2869
20.1439
19.3365
18.8748
19.3371
20.145
20.0235
19.1987
18.736
19.1994
20.0247
19.9234
19.0775
18.6121
19.0782
19.9246
19.841
18.9705
18.5005
18.9713
19.8424
19.7727
18.8742
18.3979
18.875
19.7741
19.7137
18.7844
18.2998
18.7852
19.7153
19.6588
18.6961
18.2015
18.697
19.6604
19.6031
18.6048
18.0982
18.6058
19.6049
19.5443
18.5068
17.9859
18.5079
19.5462
19.4858
18.3993
17.8621
18.4004
19.4878
19.4258
18.2772
17.728
18.2783
19.4278
19.0973
18.1109
16.5685
18.1114
19.098
21.8111
20.4373
19.0828
20.4378
21.812
23.3016
21.9837
20.7389
21.9842
23.3024
24.177
22.92
21.7875
22.9205
24.1777
24.6583
23.4684
22.4326
23.4688
24.659
24.8932
23.7629
22.808
23.7632
24.8938
24.9663
23.888
23.0005
23.8883
24.9668
24.9327
23.8978
23.0665
23.8981
24.9332
24.8267
23.8306
23.0452
23.8309
24.8272
24.6655
23.7026
22.9586
23.7029
24.6659
24.4662
23.5323
22.8225
23.5326
24.4667
24.2397
23.3312
22.6513
23.3314
24.2401
23.993
23.107
22.4534
23.1073
23.9935
23.7323
22.866
22.2356
22.8663
23.7327
23.4613
22.6126
22.003
22.6129
23.4618
23.1838
22.3507
21.7596
22.351
23.1843
22.9031
22.0836
21.5093
22.0839
22.9035
22.6219
21.8142
21.255
21.8144
22.6223
22.3431
21.5453
20.9999
21.5456
22.3436
22.0694
21.2797
20.7468
21.28
22.0699
21.8037
21.0202
20.4985
21.0205
21.8042
21.549
20.7694
20.2578
20.7698
21.5495
21.3082
20.5304
20.0275
20.5307
21.3088
21.0845
20.3059
19.8106
20.3062
21.0851
20.8812
20.0988
19.6098
20.0992
20.8818
20.7014
19.9121
19.4278
19.9125
20.7021
20.5483
19.7484
19.2673
19.7488
20.5491
20.4246
19.6099
19.1302
19.6104
20.4254
20.3323
19.4982
19.0179
19.4988
20.3332
20.2727
19.4141
18.931
19.4147
20.2737
20.2456
19.3571
18.8689
19.3577
20.2467
20.2496
19.3253
18.8294
19.326
20.2507
20.2803
19.3154
18.8093
19.3161
20.2815
20.3334
19.3218
18.803
19.3226
20.3347
20.4004
19.3376
18.8033
19.3384
20.4019
20.4729
19.3544
18.8019
19.3553
20.4745
20.5429
19.3633
18.7899
19.3642
20.5446
20.6073
19.3557
18.759
19.3567
20.6091
20.6578
19.32
18.704
19.321
20.6597
18.8854
17.8794
16.2556
17.8799
18.886
21.6722
20.2586
18.8321
20.2591
21.673
23.2044
21.846
20.5334
21.8465
23.2052
24.1069
22.8106
21.6149
22.8111
24.1077
24.6085
23.381
22.2859
23.3814
24.6092
24.8596
23.6936
22.6826
23.694
24.8603
24.9463
23.8338
22.8928
23.8342
24.947
24.9233
23.8562
22.9738
23.8565
24.9238
24.8267
23.7991
22.9645
23.7994
24.8273
24.6728
23.6802
22.8888
23.6805
24.6733
24.4792
23.5168
22.7612
23.517
24.4797
24.2567
23.3209
22.5968
23.3212
24.2572
24.0128
23.1007
22.4043
23.101
24.0133
23.7537
22.8626
22.1908
22.8629
23.7542
23.4835
22.6112
21.9614
22.6114
23.484
23.2061
22.3505
21.7205
22.3507
23.2065
22.9251
22.0842
21.4722
22.0844
22.9255
22.6435
21.8154
21.2198
21.8157
22.644
22.3647
21.5474
20.9666
21.5477
22.3651
22.0916
21.2831
20.7159
21.2834
22.092
21.8276
21.0258
20.4708
21.0261
21.828
21.5762
20.7788
20.2347
20.7791
21.5767
21.3412
20.5455
20.0111
20.5458
21.3417
21.1265
20.3295
19.8033
20.3298
21.127
20.9365
20.1347
19.6153
20.135
20.937
20.7754
19.9649
19.4507
19.9653
20.776
20.648
19.8243
19.3132
19.8247
20.6487
20.559
19.7166
19.2067
19.717
20.5596
20.5125
19.6455
19.1341
19.6459
20.5133
20.5125
19.6137
19.0982
19.6141
20.5133
20.5599
19.6227
19.1002
19.6232
20.5608
20.6589
19.6728
19.1393
19.6733
20.6598
20.8068
19.7636
19.2155
19.7642
20.8078
20.9988
19.8887
19.322
19.8894
20.9999
21.2259
20.0396
19.4499
20.0403
21.2272
21.4754
20.2037
19.5868
20.2045
21.4768
21.7313
20.3648
19.7165
20.3657
21.7329
21.9793
20.5036
19.8206
20.5045
21.981
22.1966
20.5955
19.8825
20.5965
22.1983
18.5483
17.5135
15.7635
17.5139
18.5489
21.454
19.9791
18.4389
19.9796
21.4548
23.0601
21.6368
20.2151
21.6373
23.061
24.0139
22.6526
21.3536
22.6531
24.0147
24.5544
23.2637
22.0702
23.2642
24.5551
24.8374
23.6099
22.5046
23.6103
24.8381
24.9507
23.7783
22.7466
23.7787
24.9513
24.9485
23.8242
22.8544
23.8245
24.9492
24.8708
23.7862
22.8672
23.7865
24.8713
24.7321
23.6847
22.8111
23.685
24.7326
24.5506
23.5348
22.6997
23.5352
24.5511
24.3376
23.35
22.5485
23.3503
24.3382
24.1009
23.1384
22.3668
23.1387
24.1015
23.847
22.907
22.1619
22.9073
23.8475
23.5801
22.6604
21.9393
22.6607
23.5806
23.3045
22.4031
21.7037
22.4033
23.3049
23.024
22.1388
21.4593
22.1391
23.0244
22.742
21.8712
21.2098
21.8714
22.7424
22.462
21.6036
20.9589
21.6039
22.4625
22.1875
21.3394
20.71
21.3396
22.1879
21.9221
21.0821
20.4667
21.0823
21.9225
21.6699
20.8355
20.2327
20.8357
21.6703
21.4353
20.6035
20.0121
20.6037
21.4357
21.2231
20.3906
19.809
20.3908
21.2234
21.0385
20.2015
19.6281
20.2017
21.0389
20.8874
20.0412
19.4743
20.0415
20.8878
20.7762
19.9155
19.3529
19.9158
20.7767
20.7122
19.8304
19.2696
19.8307
20.7127
20.7028
19.792
19.2301
19.7923
20.7033
20.7534
19.8059
19.2397
19.8062
20.754
20.8749
19.8778
19.3028
19.8782
20.8754
21.0744
20.0158
19.427
20.0162
21.0751
21.3558
20.2205
19.6123
20.221
21.3566
21.7199
20.4911
19.8569
20.4916
21.7208
22.1616
20.8205
20.1529
20.8211
22.1626
22.6667
21.1938
20.4849
21.1945
22.6679
23.2108
21.5858
20.8279
21.5866
23.2121
23.7604
21.9596
21.147
21.9605
23.7618
24.2619
22.2648
21.4021
22.2656
24.2635
18.0278
16.957
15.0213
16.9573
18.0283
21.1237
19.5595
17.8456
19.5599
21.1244
22.8589
21.3352
19.7412
21.3357
22.8597
23.906
22.4397
20.9733
22.4402
23.9068
24.5181
23.1217
21.7656
23.1221
24.5189
24.8587
23.526
22.2628
23.5265
24.8594
25.0196
23.7431
22.5577
23.7435
25.0203
25.0571
23.8299
22.7102
23.8303
25.0577
25.0106
23.8244
22.7603
23.8248
25.0112
24.9004
23.7527
22.7357
23.7531
24.901
24.7412
23.6268
22.6526
23.6271
24.7418
24.5462
23.4614
22.5238
23.4618
24.5469
24.3236
23.2656
22.3609
23.266
24.3243
24.0804
23.0467
22.1713
23.047
24.081
23.8213
22.8097
21.9612
22.81
23.8218
23.5507
22.5594
21.7355
22.5596
23.5511
23.2728
22.2999
21.4985
22.3001
23.2732
22.9913
22.0349
21.2546
22.0351
22.9917
22.7101
21.7684
21.0075
21.7686
22.7105
22.4329
21.5037
20.7609
21.5039
22.4332
22.1635
21.2449
20.5189
21.245
22.1638
21.9066
20.9959
20.2854
20.996
21.9068
21.6669
20.7611
20.0649
20.7613
21.6671
21.45
20.5457
19.8622
20.5458
21.4502
21.262
20.3552
19.6828
20.3553
21.2623
21.1102
20.1957
19.5327
20.1959
21.1105
21.0028
20.0746
19.4187
20.0748
21.003
20.9497
20.0002
19.3486
20.0003
20.9498
20.9616
19.9821
19.3316
19.9821
20.9617
21.0488
20.0284
19.375
20.0284
21.0489
21.2322
20.1547
19.493
20.1548
21.2323
21.5276
20.3756
19.6989
20.3758
21.5279
21.9522
20.7024
20.0021
20.7026
21.9526
22.5228
21.1458
20.4113
21.1462
22.5233
23.2508
21.7107
20.9287
21.7111
23.2516
24.1354
22.3889
21.5439
22.3895
24.1363
25.153
23.1512
22.226
23.1518
25.1541
26.2477
23.9365
22.9167
23.9372
26.2489
27.305
24.6426
23.5294
24.6433
27.3063
17.2052
16.1134
13.912
16.1136
17.2055
20.6229
18.9384
16.9566
18.9387
20.6234
22.5942
20.9152
19.0405
20.9156
22.5948
23.8144
22.1726
20.4231
22.173
23.815
24.5561
22.9758
21.3376
22.9761
24.5567
25
23.4786
21.9361
23.479
25.0007
25.2454
23.7773
22.3161
23.7776
25.246
25.3532
23.9324
22.5409
23.9327
25.3537
25.3621
23.9835
22.6522
23.9839
25.3627
25.3009
23.9584
22.6786
23.9589
25.3016
25.1812
23.8737
22.6402
23.8742
25.182
25.0183
23.7413
22.5492
23.742
25.0194
24.8214
23.5724
22.4172
23.5731
24.8226
24.5985
23.3754
22.2536
23.376
24.5996
24.3551
23.1559
22.065
23.1563
24.3559
24.096
22.9191
21.8567
22.9192
24.0964
23.8252
22.6692
21.6336
22.6693
23.8256
23.5472
22.4106
21.4002
22.4108
23.5477
23.2667
22.1477
21.161
22.1478
23.267
22.9874
21.8841
20.9198
21.884
22.9872
22.7132
21.6238
20.6808
21.6237
22.7131
22.4489
21.3712
20.4483
21.3712
22.4491
22.1999
21.131
20.2272
21.1311
22.2003
21.9725
20.909
20.0228
20.909
21.9727
21.7734
20.7111
19.8412
20.711
21.7734
21.6104
20.5443
19.689
20.5442
21.6102
21.4931
20.4172
19.5743
20.417
21.4927
21.4338
20.3401
19.5072
20.3398
21.4331
21.4468
20.3259
19.4997
20.3255
21.4459
21.5471
20.3864
19.5625
20.3858
21.5461
21.7664
20.5468
19.7196
20.5463
21.7654
22.1348
20.8336
19.9946
20.8332
22.1342
22.6909
21.2749
20.4127
21.2748
22.6906
23.4845
21.9071
21.0052
21.9071
23.4845
24.5735
22.7682
21.8033
22.7684
24.5738
26.014
23.8879
22.8281
23.8884
26.0146
27.8373
25.2657
24.0697
25.2662
27.8382
30.0047
26.8307
25.4544
26.8313
30.0057
32.3095
28.3853
26.808
28.386
32.3106
15.7797
14.8107
12.2577
14.8108
15.7798
19.8279
18.0216
15.6257
18.0218
19.8281
22.2758
20.3592
18.0078
20.3594
22.2761
23.8335
21.885
19.6299
21.8852
23.8338
24.8215
22.8983
20.7396
22.8985
24.8218
25.4582
23.5703
21.5006
23.5705
25.4586
25.86
24.0084
22.0183
24.0087
25.8604
26.0966
24.2806
22.3609
24.281
26.097
26.2121
24.43
22.5727
24.4305
26.2127
26.2347
24.4851
22.6838
24.4859
26.2363
26.1879
24.4674
22.716
24.4686
26.1897
26.0844
24.3929
22.6869
24.3944
26.0864
25.935
24.2702
22.6068
24.2719
25.938
25.7501
24.1113
22.4864
24.1127
25.7532
25.5384
23.9231
22.3343
23.9238
25.5406
25.3047
23.7112
22.1564
23.7114
25.3056
25.0503
23.4799
21.9577
23.48
25.0514
24.7826
23.2346
21.744
23.2349
24.7843
24.5091
22.9813
21.5205
22.9812
24.5095
24.2328
22.7233
21.2913
22.7227
24.2312
23.9565
22.4647
21.0608
22.4642
23.9563
23.6856
22.2101
20.8337
22.2102
23.6879
23.4272
21.9651
20.6153
21.9654
23.4299
23.1888
21.7361
20.4115
21.7362
23.1903
22.9772
21.5293
20.2288
21.529
22.9763
22.7982
21.3516
20.0742
21.351
22.7957
22.6616
21.212
19.9564
21.211
22.6587
22.5821
21.1225
19.8872
21.121
22.5786
22.5787
21.0989
19.8813
21.097
22.5746
22.6685
21.1562
19.9525
21.1541
22.6642
22.8901
21.3263
20.133
21.3242
22.8861
23.2876
21.6493
20.4585
21.6477
23.2849
23.9255
22.1738
20.974
22.1729
23.924
24.9027
22.9758
21.747
22.9753
24.902
26.3697
24.1621
22.8699
24.1621
26.3695
28.5408
25.875
24.4618
25.8752
28.5411
31.6978
28.2723
26.6434
28.2727
31.6985
36.1219
31.4452
29.459
31.4457
36.1227
41.7399
35.1317
32.6458
35.1323
41.7409
12.8948
12.8456
9.90834
12.8456
12.8948
18.5284
16.836
13.811
16.8361
18.5284
22.1091
19.8867
16.6921
19.8868
22.1091
24.3929
21.921
18.7188
21.9211
24.3929
25.8972
23.3256
20.1636
23.3256
25.8972
26.9391
24.3189
21.2108
24.3189
26.9391
27.6715
25.027
21.9749
25.0271
27.6716
28.1772
25.525
22.528
25.5251
28.1773
28.5121
25.8623
22.9188
25.8625
28.5134
28.7053
26.0721
23.1811
26.0739
28.7187
28.7961
26.1815
23.3406
26.1835
28.8054
28.8185
26.2103
23.4172
26.2132
28.8154
28.7738
26.1746
23.4254
26.1792
28.7755
28.6564
26.0854
23.3811
26.0897
28.6667
28.5163
25.955
23.2908
25.9582
28.5269
28.3497
25.7917
23.1647
25.7929
28.3546
28.129
25.5933
23.0068
25.5948
28.1312
27.887
25.3707
22.8251
25.3738
27.8944
27.6313
25.1372
22.6281
25.1376
27.6348
27.371
24.8936
22.42
24.8905
27.3622
27.1034
24.6417
22.2056
24.641
27.115
26.8323
24.3889
21.9909
24.3925
26.8641
26.5761
24.143
21.7818
24.1475
26.6007
26.3519
23.9132
21.586
23.9157
26.3639
26.1617
23.7065
21.4112
23.7058
26.1455
25.9863
23.5266
21.2643
23.5235
25.9531
25.8327
23.3823
21.1548
23.3785
25.8112
25.737
23.2899
21.0971
23.2848
25.722
25.7242
23.2677
21.1078
23.2619
25.7106
25.8316
23.3366
21.2063
23.3304
25.8172
26.0751
23.5338
21.4347
23.5282
26.0591
26.4874
23.9077
21.8383
23.9042
26.4777
27.1644
24.5298
22.4852
24.5278
27.1629
28.241
25.5239
23.4898
25.5229
28.241
30.0462
27.1057
25.0432
27.1053
30.0454
33.0611
29.6359
27.4652
29.636
33.0611
38.2877
33.7388
31.281
33.7392
38.2882
47.7369
40.4733
37.2885
40.4737
47.7376
64.2883
50.731
46.2152
50.7315
64.2892
6.00902
10.3593
8.21547
10.3592
6.00882
16.5933
17.395
14.8173
17.3949
16.5929
23.2835
22.5399
19.5676
22.5397
23.2832
27.5791
26.2693
23.1295
26.2691
27.5788
30.6063
29.0744
25.851
29.0742
30.606
32.8747
31.2371
27.9655
31.2369
32.8743
34.612
32.9163
29.6175
32.9162
34.6117
35.9417
34.2133
30.9053
34.2137
35.9386
36.9434
35.2014
31.8978
35.2016
36.9401
37.6819
35.9347
32.6463
35.9359
37.6817
38.2113
36.4579
33.1918
36.4609
38.2071
38.5598
36.808
33.5688
36.8149
38.5725
38.7493
37.0122
33.805
37.023
38.7781
38.8383
37.1004
33.923
37.1074
38.8558
38.8448
37.0955
33.949
37.1005
38.8616
38.7935
37.0196
33.9016
37.0215
38.8003
38.6304
36.8588
33.7809
36.86
38.646
38.3882
36.6422
33.6044
36.6463
38.4203
38.1696
36.3993
33.393
36.3982
38.1734
37.9259
36.1266
33.1534
36.1208
37.9028
37.6348
35.8319
32.8966
35.8274
37.6235
37.3379
35.5322
32.6345
35.5328
37.3601
37.0545
35.2382
32.3785
35.2426
37.0858
36.8006
34.9693
32.1433
34.9724
36.8163
36.6028
34.7405
31.9446
34.7436
36.6077
36.4532
34.5626
31.795
34.5643
36.4535
36.368
34.455
31.7149
34.4522
36.3595
36.3875
34.4555
31.7355
34.4489
36.3622
36.5084
34.5753
31.8667
34.568
36.4838
36.8541
34.8984
32.188
34.8886
36.8286
37.4615
35.5046
32.78
35.4958
37.4479
38.3878
36.4827
33.7272
36.478
38.3894
39.791
38.0074
35.1883
38.0029
39.7856
41.8101
40.3135
37.3936
40.3115
41.8104
45.603
43.8245
40.721
43.824
45.6015
51.5118
49.273
45.8599
49.273
51.5119
61.0748
58.0126
54.07
58.0126
61.0748
81.1152
73.7015
68.2253
73.7015
81.1153
164.078
126.11
114.149
126.11
164.078
16.3535
14.3643
13.0977
14.3641
16.3532
14.8938
13.187
11.3815
13.1871
14.894
14.0934
13.1376
12.0035
13.138
14.094
14.0947