/*--------------------------------*- C++ -*----------------------------------*\
  =========                 |
  \\      /  F ield         | OpenFOAM: The Open Source CFD Toolbox
   \\    /   O peration     | Website:  https://openfoam.org
    \\  /    A nd           | Version:  9
     \\/     M anipulation  |
\*---------------------------------------------------------------------------*/
FoamFile
{
    format      ascii;
    class       volScalarField;
    location    "2";
    object      k;
}
// * * * * * * * * * * * * * * * * * * * * * * * * * * * * * * * * * * * * * //

dimensions      [0 2 -2 0 0 0 0];

internalField   nonuniform List<scalar> 
4545
(
0.551726
0.786995
0.676859
0.786986
0.551711
1.07504
1.10749
0.996525
1.10748
1.07503
1.3417
1.31238
1.19538
1.31238
1.34169
1.4989
1.45104
1.33384
1.45103
1.4989
1.60519
1.5514
1.43522
1.5514
1.60519
1.68313
1.62712
1.51206
1.62712
1.68313
1.74215
1.6853
1.57134
1.68533
1.74225
1.78725
1.73021
1.61742
1.73027
1.7873
1.82167
1.76474
1.65316
1.76482
1.82172
1.84753
1.79092
1.68057
1.79104
1.84752
1.8663
1.81027
1.70115
1.81047
1.86657
1.87976
1.82415
1.71609
1.82428
1.88062
1.88908
1.83346
1.72627
1.83327
1.88933
1.89426
1.83842
1.73228
1.83809
1.89362
1.89584
1.83991
1.73474
1.83951
1.8952
1.89456
1.8386
1.73428
1.8382
1.89416
1.8908
1.83446
1.73123
1.83419
1.89062
1.88431
1.82741
1.72511
1.82716
1.88436
1.87513
1.81785
1.71653
1.81773
1.87533
1.86341
1.80576
1.70561
1.80607
1.86444
1.84946
1.7914
1.69237
1.79196
1.85155
1.83307
1.77475
1.67687
1.77536
1.83545
1.81459
1.75583
1.65914
1.75641
1.81654
1.79419
1.73479
1.63931
1.7354
1.79578
1.77184
1.7116
1.61739
1.7125
1.77418
1.74759
1.68617
1.59299
1.68712
1.75053
1.72153
1.65856
1.56711
1.65922
1.72337
1.69347
1.62878
1.53926
1.62921
1.69459
1.66249
1.59661
1.50925
1.59693
1.66413
1.62857
1.56193
1.47709
1.56226
1.63091
1.59401
1.52518
1.44284
1.52534
1.59515
1.55732
1.48625
1.40654
1.48626
1.55738
1.51745
1.44512
1.36821
1.44516
1.5179
1.47612
1.40199
1.32787
1.40201
1.47639
1.43264
1.3568
1.2855
1.35683
1.4327
1.38681
1.30963
1.24106
1.30964
1.38683
1.33901
1.26042
1.19438
1.26042
1.33902
1.2893
1.20872
1.14514
1.20871
1.2893
1.23684
1.15305
1.09287
1.15304
1.23683
2.37229
2.43953
2.11827
2.43951
2.37226
3.13016
3.02204
2.71402
3.02203
3.13014
3.573
3.43271
3.12497
3.4327
3.57299
3.86101
3.71032
3.41172
3.71032
3.86101
4.06315
3.90997
3.62009
3.90998
4.06316
4.21254
4.05819
3.7759
4.0582
4.21258
4.32482
4.16987
3.89422
4.16995
4.32502
4.40954
4.25424
3.98443
4.25434
4.40933
4.47294
4.31742
4.0528
4.31753
4.47251
4.51903
4.36358
4.1037
4.36373
4.51831
4.55104
4.39588
4.14039
4.39623
4.55046
4.57148
4.41702
4.16539
4.41749
4.57334
4.58312
4.42879
4.18048
4.42889
4.58511
4.588
4.43223
4.18702
4.43192
4.58755
4.58552
4.42883
4.18641
4.42839
4.58553
4.57624
4.41922
4.1798
4.41887
4.57713
4.56183
4.40364
4.16689
4.40358
4.56263
4.54208
4.38289
4.14863
4.38293
4.54387
4.51688
4.35709
4.1253
4.35727
4.51901
4.48718
4.32639
4.09717
4.3271
4.48926
4.45219
4.29112
4.0644
4.29239
4.45673
4.41186
4.25133
4.02706
4.2528
4.41747
4.36767
4.20723
3.98532
4.20857
4.37213
4.31883
4.15904
3.93942
4.16027
4.32222
4.26558
4.10676
3.88941
4.10831
4.26894
4.20856
4.0504
3.83501
4.05213
4.2134
4.14769
3.98984
3.77596
3.99124
4.15109
4.08131
3.92504
3.71239
3.92616
4.08373
4.00827
3.85571
3.64441
3.85694
4.01372
3.93091
3.78196
3.57204
3.78334
3.93818
3.85261
3.70463
3.49553
3.70544
3.85666
3.76994
3.6233
3.41491
3.62359
3.77123
3.67999
3.53766
3.33018
3.53791
3.68179
3.58715
3.44818
3.24135
3.44832
3.58832
3.49053
3.35464
3.14832
3.35469
3.49072
3.3888
3.2568
3.05086
3.25683
3.38886
3.28303
3.15434
2.94858
3.15437
3.28307
3.17381
3.04602
2.84062
3.04604
3.17383
3.05907
2.92783
2.72609
2.92784
3.05907
3.2928
3.22904
2.92195
3.22902
3.29277
4.04512
3.86456
3.5861
3.86455
4.04511
4.52002
4.32807
4.05972
4.32807
4.52002
4.84738
4.65398
4.39903
4.654
4.8474
5.08209
4.89183
4.64856
4.89185
5.08211
5.25618
5.06921
4.8358
5.06923
5.25621
5.38698
5.20294
4.97787
5.20297
5.38703
5.48534
5.30379
5.08583
5.30382
5.48538
5.55853
5.37904
5.1672
5.37909
5.55858
5.61159
5.43377
5.22728
5.43383
5.61164
5.64824
5.47179
5.27
5.47185
5.64833
5.67137
5.49598
5.29836
5.49604
5.67159
5.68313
5.5085
5.31459
5.50849
5.68325
5.6852
5.51103
5.32048
5.51091
5.68504
5.67915
5.50528
5.31771
5.50514
5.67895
5.66524
5.49172
5.30714
5.49157
5.66506
5.64438
5.47106
5.28912
5.47091
5.64422
5.61719
5.44406
5.26464
5.44397
5.61714
5.584
5.41114
5.23413
5.41114
5.58409
5.54508
5.37259
5.19793
5.37272
5.54537
5.50057
5.32867
5.15629
5.32895
5.50123
5.45063
5.27955
5.10939
5.27993
5.45149
5.39542
5.22538
5.05738
5.2258
5.39629
5.33495
5.16626
5.0004
5.16674
5.33584
5.26926
5.10226
4.9385
5.10281
5.27027
5.19838
5.03337
4.87165
5.03395
5.19953
5.12231
4.95961
4.79984
4.9601
5.1233
5.04093
4.88094
4.72309
4.88133
5.04173
4.95418
4.79732
4.64137
4.79767
4.95506
4.86224
4.7088
4.55469
4.70911
4.86312
4.76537
4.61548
4.46311
4.61569
4.76595
4.66345
4.51733
4.36662
4.51745
4.66374
4.55633
4.41429
4.26515
4.41438
4.55657
4.44422
4.30633
4.1586
4.3064
4.44439
4.32704
4.19331
4.0468
4.19336
4.32714
4.20462
4.07496
3.92946
4.07501
4.2047
4.07692
3.95081
3.80611
3.95085
4.07698
3.94404
3.81981
3.6761
3.81984
3.94409
3.80342
3.67903
3.53912
3.67905
3.80346
3.87915
3.78162
3.50015
3.78161
3.87913
4.62093
4.42603
4.17662
4.42604
4.62094
5.10737
4.90829
4.67222
4.90831
5.1074
5.45347
5.25649
5.03502
5.25652
5.45351
5.70627
5.51442
5.30535
5.51445
5.70632
5.89541
5.70834
5.50962
5.70838
5.89548
6.0381
5.85515
5.66505
5.8552
6.03817
6.14554
5.96606
5.78322
5.96611
6.14561
6.22542
6.04882
5.87215
6.04887
6.22551
6.28317
6.10893
5.93758
6.10899
6.28328
6.32285
6.15052
5.9838
6.15059
6.32297
6.34755
6.17676
6.01409
6.17683
6.34768
6.35955
6.19
6.03094
6.19005
6.35963
6.36072
6.19216
6.03631
6.19217
6.36074
6.35294
6.18512
6.03211
6.18511
6.35291
6.33642
6.16935
6.01911
6.16932
6.33637
6.3123
6.14582
5.99804
6.1458
6.31224
6.28126
6.11537
5.96989
6.11535
6.28121
6.24379
6.07851
5.93523
6.07853
6.24379
6.2002
6.03562
5.89444
6.03569
6.20028
6.15073
5.98701
5.84787
5.98713
6.15092
6.09559
5.93291
5.79575
5.93307
6.09586
6.03488
5.87346
5.73825
5.87365
6.0352
5.96868
5.80878
5.6755
5.80901
5.96906
5.89703
5.73895
5.60758
5.73922
5.89748
5.81997
5.66399
5.5345
5.66427
5.82046
5.73752
5.58392
5.45629
5.58418
5.73798
5.64966
5.49874
5.37295
5.49896
5.65007
5.55637
5.4084
5.28441
5.4086
5.55673
5.45762
5.31287
5.19064
5.31303
5.45794
5.35344
5.21208
5.09155
5.21221
5.35369
5.24377
5.10595
4.98704
5.10606
5.24396
5.12851
4.99437
4.87696
4.99446
5.12867
5.00756
4.87716
4.76113
4.87724
5.0077
4.88074
4.75412
4.63929
4.75419
4.88087
4.74789
4.62496
4.51113
4.62503
4.748
4.60892
4.48928
4.37623
4.48934
4.60903
4.46412
4.34629
4.23413
4.34634
4.46421
4.31153
4.19383
4.08476
4.19388
4.3116
4.29207
4.18541
3.92692
4.18541
4.29206
5.02397
4.82844
4.60091
4.82846
5.02399
5.51537
5.31838
5.10468
5.31841
5.51542
5.87252
5.67886
5.47964
5.6789
5.87259
6.1373
5.94927
5.76231
5.94932
6.13738
6.33722
6.15432
5.97752
6.15438
6.33731
6.48891
6.3104
6.14205
6.31046
6.48901
6.60353
6.42873
6.26744
6.42879
6.60364
6.68892
6.5172
6.3619
6.51727
6.68904
6.75074
6.58156
6.43137
6.58163
6.75087
6.79322
6.62613
6.48036
6.6262
6.79335
6.8196
6.65423
6.51232
6.65431
6.81973
6.83233
6.66839
6.5299
6.66846
6.83246
6.83345
6.67068
6.53523
6.67074
6.83355
6.82494
6.66309
6.53032
6.66315
6.82503
6.80717
6.64622
6.51602
6.64627
6.80723
6.78136
6.62118
6.49325
6.62121
6.78141
6.74832
6.58886
6.46307
6.5889
6.74836
6.70863
6.54991
6.42612
6.54996
6.70868
6.66269
6.50477
6.3829
6.50483
6.66276
6.61083
6.45382
6.3338
6.4539
6.61094
6.55329
6.39734
6.27912
6.39744
6.55344
6.49025
6.33553
6.21907
6.33565
6.49044
6.42182
6.26853
6.15382
6.26868
6.42205
6.34807
6.19645
6.08345
6.19661
6.34834
6.26905
6.11931
6.00801
6.11948
6.26934
6.18478
6.03713
5.92752
6.0373
6.18507
6.09522
5.94987
5.84191
5.95004
6.09551
6.00032
5.85746
5.7511
5.85761
6.00058
5.89996
5.75975
5.65495
5.75989
5.90021
5.79402
5.65658
5.55327
5.65671
5.79425
5.6823
5.54773
5.44583
5.54785
5.68251
5.56457
5.43295
5.33237
5.43307
5.56476
5.44053
5.31195
5.21256
5.31206
5.44071
5.30989
5.18442
5.08606
5.18452
5.31006
5.17237
5.05
4.95249
5.05009
5.17253
5.02787
4.90829
4.81143
4.90837
5.02802
4.87675
4.75862
4.66246
4.7587
4.87689
4.71742
4.59915
4.5055
4.59922
4.71754
4.59228
4.48267
4.24143
4.48268
4.59229
5.31551
5.12217
4.90995
5.1222
5.31555
5.80892
5.61535
5.41664
5.61539
5.80899
6.17301
5.98318
5.79847
5.98324
6.17311
6.44604
6.26188
6.08904
6.26195
6.44615
6.65382
6.47477
6.31179
6.47485
6.65394
6.81235
6.63768
6.48287
6.63776
6.81248
6.93261
6.76165
6.61366
6.76173
6.93275
7.02246
6.8546
6.71237
6.85468
7.02261
7.08768
6.92237
6.78505
6.92246
7.08783
7.13257
6.96941
6.83634
6.9695
7.13273
7.16053
6.99915
6.86978
6.99925
7.16069
7.17414
7.01427
6.88816
7.01436
7.1743
7.17556
7.01695
6.89373
7.01704
7.17571
7.16687
7.00927
6.88859
7.00935
7.16701
7.14859
6.99198
6.87373
6.99205
7.14871
7.12205
6.96626
6.85016
6.96634
7.12216
7.08815
6.93315
6.81904
6.93322
7.08826
7.04758
6.89334
6.78111
6.89342
7.04769
7.00084
6.84739
6.73694
6.84747
7.00096
6.94835
6.79576
6.68701
6.79585
6.94848
6.89043
6.7388
6.63169
6.7389
6.89059
6.82732
6.67675
6.57124
6.67686
6.8275
6.75918
6.60981
6.50587
6.60993
6.75938
6.68613
6.5381
6.43569
6.53824
6.68636
6.60822
6.46167
6.36077
6.46182
6.60847
6.52546
6.38052
6.28108
6.38067
6.52572
6.43778
6.29455
6.19653
6.2947
6.43805
6.34504
6.20361
6.10695
6.20376
6.3453
6.24701
6.10746
6.01211
6.10761
6.24727
6.14342
6.0058
5.91168
6.00595
6.14367
6.03388
5.89826
5.80527
5.8984
6.03412
5.91796
5.7844
5.69246
5.78454
5.9182
5.79517
5.66377
5.57276
5.6639
5.7954
5.66502
5.53588
5.44567
5.536
5.66524
5.52708
5.40027
5.3107
5.40039
5.52729
5.38114
5.25643
5.16732
5.25655
5.38133
5.22751
5.10367
5.01503
5.10377
5.22769
5.06464
4.94014
4.85356
4.94024
5.0648
4.80743
4.69659
4.46755
4.69661
4.80746
5.52359
5.33255
5.13084
5.33259
5.52365
6.01764
5.82702
5.63837
5.82708
6.01773
6.38613
6.19938
6.02423
6.19945
6.38624
6.66477
6.48361
6.31996
6.4837
6.66491
6.87811
6.70198
6.54788
6.70207
6.87825
7.04161
6.8698
6.72363
6.86989
7.04176
7.16606
6.99791
6.85836
6.998
7.16622
7.25928
7.09419
6.96022
7.0943
7.25945
7.32708
7.16455
7.03534
7.16466
7.32725
7.37384
7.21349
7.08838
7.21359
7.37401
7.40305
7.24453
7.123
7.24464
7.40323
7.41742
7.26046
7.14208
7.26057
7.4176
7.41921
7.26357
7.14798
7.26367
7.41939
7.41056
7.256
7.14286
7.2561
7.41073
7.3922
7.23866
7.12785
7.23876
7.39236
7.36549
7.21282
7.10407
7.21292
7.36565
7.33148
7.1796
7.07275
7.1797
7.33163
7.29095
7.13982
7.03474
7.13991
7.2911
7.2445
7.0941
6.99069
7.0942
7.24465
7.19266
7.043
6.94118
7.04311
7.19282
7.13584
6.98695
6.88665
6.98706
7.13601
7.07435
6.92628
6.82743
6.9264
7.07454
7.00842
6.86122
6.76377
6.86134
7.00863
6.93821
6.79193
6.69583
6.79207
6.93844
6.86379
6.71848
6.62368
6.71862
6.86404
6.78515
6.64083
6.54728
6.64098
6.78541
6.70217
6.55886
6.46648
6.55902
6.70244
6.61462
6.47231
6.38104
6.47247
6.61489
6.52214
6.38084
6.29058
6.38099
6.52242
6.42428
6.28397
6.19464
6.28412
6.42456
6.32046
6.18113
6.09264
6.18129
6.32072
6.20999
6.07171
5.98395
6.07186
6.21025
6.09214
5.95501
5.86788
5.95516
6.0924
5.96618
5.83034
5.74374
5.83048
5.96643
5.83145
5.69702
5.6108
5.69716
5.83169
5.68755
5.55438
5.46837
5.55451
5.68778
5.53462
5.40155
5.31574
5.40167
5.53484
5.37104
5.23657
5.15242
5.23669
5.37124
4.95244
4.84105
4.62006
4.84107
4.95247
5.66332
5.47413
5.27928
5.47417
5.6634
6.15738
5.96896
5.78681
5.96902
6.15748
6.52848
6.34399
6.17495
6.34407
6.52862
6.81069
6.63171
6.47388
6.6318
6.81084
7.02763
6.85363
6.70513
6.85372
7.0278
7.19441
7.02467
6.88393
7.02478
7.19458
7.32163
7.15553
7.02125
7.15563
7.32181
7.41707
7.25403
7.12521
7.25414
7.41726
7.48655
7.32609
7.20192
7.3262
7.48674
7.53451
7.37625
7.25611
7.37636
7.5347
7.56451
7.40813
7.29149
7.40824
7.5647
7.57934
7.42458
7.31103
7.42469
7.57953
7.58136
7.42798
7.31716
7.42809
7.58155
7.5728
7.42055
7.31212
7.42066
7.57298
7.5545
7.40333
7.29716
7.40344
7.55468
7.52795
7.37766
7.2735
7.37777
7.52813
7.49427
7.34477
7.24245
7.34488
7.49445
7.45437
7.30557
7.20495
7.30568
7.45455
7.40896
7.2608
7.16177
7.26091
7.40914
7.35867
7.2111
7.11356
7.21121
7.35886
7.304
7.15699
7.06086
7.15711
7.3042
7.24537
7.09887
7.00407
7.09899
7.24558
7.18307
7.03705
6.94351
7.03719
7.18329
7.11732
6.97175
6.87938
6.97189
7.11756
7.04822
6.90304
6.81178
6.90319
7.04847
6.97575
6.8309
6.74066
6.83105
6.97602
6.89976
6.75514
6.66582
6.7553
6.90003
6.81992
6.67543
6.58694
6.67559
6.8202
6.73575
6.5913
6.50353
6.59146
6.73603
6.6466
6.5021
6.41494
6.50226
6.64689
6.55168
6.40707
6.32042
6.40724
6.55196
6.45003
6.30533
6.21908
6.3055
6.45032
6.34063
6.19593
6.10998
6.19609
6.34092
6.22244
6.07789
5.99213
6.07805
6.22272
6.09449
5.95025
5.86455
5.9504
6.09476
5.95609
5.81205
5.72625
5.81219
5.95635
5.80712
5.66215
5.57625
5.66229
5.80736
5.64574
5.4984
5.41374
5.49853
5.64597
5.03589
4.92429
4.70788
4.92431
5.03592
5.74336
5.55537
5.36442
5.55542
5.74344
6.23712
6.05012
5.87164
6.05019
6.23724
6.60949
6.42644
6.26085
6.42653
6.60963
6.89353
6.71597
6.56141
6.71606
6.89369
7.11236
6.93975
6.79439
6.93985
7.11253
7.28082
7.11247
6.97477
7.11258
7.281
7.40942
7.24472
7.11341
7.24483
7.40961
7.50591
7.3443
7.21838
7.34441
7.5061
7.57611
7.41712
7.29582
7.41724
7.5763
7.6245
7.46778
7.35046
7.4679
7.6247
7.65471
7.49994
7.38608
7.50005
7.6549
7.66959
7.51651
7.40571
7.51662
7.66979
7.67157
7.51994
7.41185
7.52006
7.67177
7.66297
7.51254
7.40682
7.51265
7.66317
7.64474
7.49542
7.39195
7.49554
7.64493
7.61845
7.47005
7.36854
7.47016
7.61864
7.58533
7.43771
7.33802
7.43783
7.58552
7.5464
7.39944
7.3014
7.39955
7.54659
7.50247
7.35605
7.25956
7.35617
7.50267
7.45428
7.3083
7.21323
7.30842
7.45448
7.40245
7.2568
7.16304
7.25692
7.40266
7.34747
7.20203
7.1095
7.20216
7.34769
7.28976
7.14441
7.05301
7.14455
7.28999
7.2296
7.0842
6.99383
7.08434
7.22984
7.16715
7.02155
6.93209
7.02169
7.1674
7.10242
6.95643
6.86778
6.95658
7.10268
7.03523
6.88866
6.80069
6.88882
7.03551
6.96521
6.81784
6.73043
6.818
6.96549
6.89176
6.74339
6.6564
6.74355
6.89204
6.81406
6.66451
6.57779
6.66467
6.81435
6.73108
6.5802
6.49364
6.58037
6.73137
6.64158
6.48933
6.40279
6.48949
6.64187
6.54419
6.3906
6.30398
6.39077
6.54449
6.43749
6.2827
6.19588
6.28287
6.43778
6.3201
6.16427
6.07713
6.16443
6.32038
6.19091
6.03397
5.94636
6.03413
6.19119
6.04944
5.89031
5.8022
5.89045
6.0497
5.89352
5.73078
5.64347
5.73092
5.89376
5.06234
4.95079
4.73587
4.95081
5.06238
5.76828
5.58084
5.39116
5.58089
5.76836
6.26165
6.0753
5.89801
6.07536
6.26177
6.63416
6.45179
6.28734
6.45187
6.6343
6.9185
6.74164
6.58818
6.74174
6.91866
7.13761
6.96574
6.82146
6.96584
7.13779
7.30626
7.1387
7.00205
7.13881
7.30644
7.43489
7.27104
7.14078
7.27115
7.43508
7.53128
7.37058
7.2457
7.3707
7.53147
7.60124
7.44325
7.32298
7.44336
7.60143
7.64929
7.49365
7.37737
7.49376
7.64948
7.67909
7.52549
7.41268
7.5256
7.67928
7.69355
7.54173
7.432
7.54184
7.69374
7.69516
7.54488
7.43787
7.54499
7.69535
7.68629
7.53729
7.43266
7.53741
7.68649
7.66797
7.52016
7.41778
7.52027
7.66816
7.64188
7.49502
7.39462
7.49514
7.64207
7.60933
7.46327
7.36468
7.46339
7.60953
7.57145
7.42602
7.32907
7.42613
7.57164
7.52915
7.38418
7.28876
7.3843
7.52935
7.48329
7.33862
7.24458
7.33874
7.48349
7.43459
7.29003
7.19726
7.29016
7.4348
7.38367
7.23903
7.14741
7.23916
7.38389
7.33104
7.18612
7.09553
7.18625
7.33127
7.27711
7.13167
7.04198
7.1318
7.27735
7.22213
7.0759
6.98698
7.07605
7.22238
7.1662
7.01889
6.93058
7.01903
7.16645
7.10918
6.96045
6.87259
6.9606
7.10944
7.05068
6.90018
6.81261
6.90033
7.05095
6.99003
6.83743
6.74997
6.83758
6.9903
6.92629
6.77127
6.68375
6.77143
6.92657
6.85822
6.70052
6.61277
6.70069
6.85851
6.78429
6.62374
6.5356
6.6239
6.78458
6.70274
6.53928
6.4506
6.53944
6.70303
6.61166
6.44536
6.35602
6.44552
6.61195
6.50915
6.34013
6.24999
6.34029
6.50944
6.39353
6.22172
6.13063
6.22188
6.39381
6.26376
6.0881
5.99604
6.08825
6.26402
6.11719
5.93632
5.8445
5.93646
6.11744
5.03325
4.92197
4.70556
4.92199
5.03328
5.73957
5.55202
5.3611
5.55206
5.73964
6.23254
6.04603
5.86761
6.04609
6.23264
6.60414
6.42168
6.25618
6.42175
6.60427
6.88735
6.71048
6.55606
6.71057
6.8875
7.10523
6.93344
6.78826
6.93353
7.10539
7.27261
7.10523
6.96774
7.10533
7.27278
7.39998
7.23641
7.10536
7.23651
7.40016
7.49514
7.33482
7.20922
7.33493
7.49532
7.56391
7.40642
7.28547
7.40652
7.56409
7.61084
7.45582
7.33891
7.45592
7.61103
7.63962
7.48674
7.37336
7.48685
7.6398
7.65317
7.50219
7.39193
7.5023
7.65335
7.65403
7.5047
7.39721
7.50481
7.65422
7.64464
7.49669
7.39163
7.4968
7.64483
7.626
7.47933
7.37657
7.47944
7.62618
7.59995
7.45431
7.35357
7.45442
7.60013
7.56785
7.42305
7.32415
7.42316
7.56804
7.53091
7.38674
7.28952
7.38685
7.5311
7.49016
7.34642
7.25073
7.34653
7.49035
7.44657
7.30303
7.20873
7.30315
7.44676
7.40098
7.2574
7.16435
7.25752
7.40118
7.35414
7.21025
7.11831
7.21037
7.35435
7.3067
7.16219
7.07123
7.16232
7.30691
7.25919
7.11373
7.02358
7.11386
7.2594
7.21199
7.06521
6.97572
7.06534
7.21221
7.16534
7.01682
6.92779
7.01695
7.16557
7.11928
6.96852
6.87974
6.96866
7.11952
7.07347
6.91997
6.83124
6.92012
7.07371
7.02731
6.87056
6.78164
6.87071
7.02756
6.97981
6.81931
6.72997
6.81946
6.98007
6.92958
6.76487
6.6749
6.76503
6.92984
6.87481
6.70554
6.61471
6.70569
6.87508
6.81337
6.63929
6.5474
6.63944
6.81364
6.74276
6.5638
6.47067
6.56395
6.74303
6.66038
6.47655
6.38202
6.47671
6.66065
6.56374
6.37492
6.27881
6.37507
6.56401
6.45096
6.25609
6.15837
6.25624
6.45121
6.31865
6.11636
6.01822
6.1165
6.31889
4.94725
4.83647
4.61548
4.83648
4.94727
5.65594
5.46757
5.27278
5.4676
5.656
6.14848
5.961
5.77896
5.96105
6.14856
6.51812
6.33474
6.1659
6.33481
6.51824
6.79874
6.62109
6.46352
6.62117
6.79887
7.01386
6.84143
6.69327
6.84151
7.014
7.17853
7.01065
6.87032
7.01074
7.17868
7.30337
7.13944
7.00568
7.13953
7.30352
7.3962
7.23568
7.10746
7.23577
7.39636
7.46289
7.30533
7.18187
7.30542
7.46305
7.50798
7.35302
7.2337
7.35312
7.50814
7.53515
7.38249
7.26679
7.38259
7.53532
7.54735
7.39673
7.28424
7.39682
7.54752
7.54712
7.39828
7.28865
7.39838
7.54729
7.53695
7.38962
7.2825
7.38972
7.53712
7.51778
7.37184
7.2671
7.37194
7.51794
7.49158
7.34678
7.24413
7.34688
7.49175
7.45975
7.31587
7.21514
7.31597
7.45991
7.42356
7.28038
7.18139
7.28048
7.42372
7.38413
7.24141
7.14401
7.24151
7.3843
7.34254
7.2
7.10404
7.20011
7.34271
7.29976
7.15711
7.06244
7.15722
7.29993
7.25669
7.11358
7.02004
7.11369
7.25687
7.21413
7.07019
6.97761
7.0703
7.21432
7.17281
7.02759
6.9358
7.0277
7.173
7.13331
6.98631
6.89512
6.98643
7.1335
7.09603
6.9467
6.85588
6.94682
7.09624
7.06117
6.90888
6.81818
6.909
7.06139
7.02863
6.87268
6.78184
6.87281
7.02885
6.99799
6.83764
6.74636
6.83777
6.99822
6.9684
6.80288
6.71084
6.80301
6.96863
6.93858
6.76711
6.67399
6.76725
6.93881
6.90673
6.72866
6.63414
6.7288
6.90697
6.87029
6.68508
6.58887
6.68522
6.87053
6.82608
6.63339
6.53523
6.63353
6.82633
6.77061
6.57018
6.46982
6.57032
6.77085
6.7002
6.49178
6.38899
6.49192
6.70044
6.61165
6.39414
6.28886
6.39427
6.61188
6.50033
6.27228
6.16572
6.27241
6.50054
4.7999
4.68992
4.46085
4.68992
4.7999
5.51298
5.32311
5.12147
5.32314
5.51302
6.00495
5.81566
5.62716
5.8157
6.00502
6.37143
6.18627
6.01137
6.18632
6.37152
6.64787
6.46861
6.30531
6.46867
6.64798
6.85865
6.68479
6.53115
6.68485
6.85877
7.01919
6.85005
6.70446
6.85012
7.01931
7.14026
6.97524
6.8364
6.97531
7.14038
7.22975
7.06831
6.93518
7.06838
7.22988
7.29356
7.13523
7.00701
7.13531
7.29369
7.33618
7.18062
7.05668
7.1807
7.33632
7.36129
7.20819
7.088
7.20827
7.36143
7.37179
7.22089
7.10404
7.22097
7.37193
7.37028
7.22127
7.1074
7.22136
7.37042
7.3591
7.21181
7.10058
7.21189
7.35924
7.33927
7.19351
7.08477
7.19359
7.33941
7.31279
7.16831
7.06179
7.16839
7.31293
7.28106
7.13765
7.03315
7.13773
7.2812
7.2454
7.10281
7.00018
7.1029
7.24555
7.20701
7.06497
6.96404
7.06506
7.20716
7.16704
7.02526
6.92587
7.02534
7.16718
7.12657
6.9847
6.88669
6.98479
7.12671
7.08663
6.94428
6.84749
6.94437
7.08678
7.0482
6.90492
6.80917
6.90501
7.04836
7.01221
6.86747
6.77256
6.86757
7.01237
6.9795
6.8327
6.73841
6.83279
6.97966
6.95079
6.80123
6.70731
6.80133
6.95096
6.92665
6.77352
6.67968
6.77362
6.92682
6.90737
6.74978
6.65568
6.74988
6.90755
6.89295
6.72987
6.63516
6.72998
6.89313
6.88286
6.71323
6.61749
6.71334
6.88305
6.87602
6.69867
6.60147
6.69879
6.87621
6.87062
6.68438
6.58524
6.6845
6.87082
6.86419
6.66792
6.56634
6.66804
6.86439
6.85355
6.64617
6.54163
6.64629
6.85375
6.83414
6.615
6.50712
6.61512
6.83434
6.80043
6.56893
6.45742
6.56904
6.80063
6.74708
6.50191
6.38663
6.50202
6.74728
6.66702
6.4067
6.28888
6.40681
6.66721
4.58267
4.47411
4.23279
4.4741
4.58266
5.30221
5.11029
4.89812
5.1103
5.30223
5.79319
5.60125
5.40269
5.60127
5.79324
6.15494
5.96706
5.78261
5.96709
6.155
6.42536
6.24354
6.0711
6.24358
6.42543
6.63006
6.45381
6.29137
6.45386
6.63014
6.78498
6.61363
6.45951
6.61369
6.78507
6.9011
6.73405
6.5869
6.7341
6.90119
6.98634
6.82303
6.68182
6.82309
6.98644
7.04659
6.88655
6.75044
6.88661
7.04669
7.08629
6.92918
6.79752
6.92924
7.08639
7.10905
6.95455
6.82682
6.95461
7.10916
7.1177
6.96556
6.84134
6.96563
7.11781
7.11485
6.96475
6.84365
6.96482
7.11496
7.10266
6.95449
6.83621
6.95455
7.10277
7.08221
6.93573
6.8201
6.93579
7.08232
7.05546
6.91045
6.7972
6.91052
7.05557
7.02382
6.88005
6.769
6.88012
7.02393
6.98861
6.84585
6.73682
6.84591
6.98872
6.95104
6.80902
6.70186
6.80908
6.95115
6.91232
6.77073
6.6653
6.7708
6.91243
6.87362
6.7321
6.62823
6.73217
6.87374
6.83609
6.69421
6.59173
6.69428
6.8362
6.80084
6.65811
6.55685
6.65818
6.80096
6.76903
6.62487
6.52461
6.62494
6.76915
6.74175
6.59547
6.49599
6.59555
6.74188
6.72011
6.5709
6.47191
6.57097
6.72025
6.70512
6.552
6.45319
6.55208
6.70526
6.69766
6.5395
6.44048
6.53957
6.69779
6.69839
6.53387
6.43419
6.53395
6.69852
6.7075
6.53525
6.43442
6.53533
6.70764
6.72521
6.54325
6.44059
6.54333
6.72536
6.75029
6.55688
6.45173
6.55697
6.75044
6.78053
6.57367
6.46528
6.57376
6.78068
6.81226
6.58994
6.47754
6.59003
6.81241
6.84063
6.60072
6.48341
6.60082
6.84079
6.85938
6.59987
6.47695
6.59997
6.85954
6.85909
6.57871
6.44988
6.5788
6.85925
6.82858
6.52497
6.39143
6.52506
6.82873
4.28074
4.17523
3.9166
4.17522
4.28071
5.00867
4.81469
4.58716
4.81469
5.00867
5.49756
5.30236
5.08877
5.30237
5.49757
5.85227
5.66078
5.46181
5.66079
5.8523
6.11428
5.92887
5.74231
5.9289
6.11432
6.31087
6.13112
5.95487
6.13115
6.31092
6.45858
6.28383
6.11619
6.28387
6.45863
6.56859
6.39823
6.23783
6.39827
6.56865
6.64879
6.48229
6.32805
6.48233
6.64885
6.70497
6.54185
6.39293
6.54189
6.70504
6.74151
6.58142
6.43716
6.58146
6.74159
6.76187
6.6045
6.46437
6.60455
6.76195
6.76877
6.6139
6.47749
6.61395
6.76886
6.76482
6.6121
6.47898
6.61216
6.76491
6.75191
6.60129
6.47124
6.60134
6.752
6.73118
6.58243
6.45521
6.58248
6.73126
6.7045
6.55741
6.43278
6.55745
6.70458
6.67322
6.52759
6.40538
6.52764
6.6733
6.63865
6.49425
6.3743
6.4943
6.63873
6.60198
6.45857
6.34073
6.45861
6.60205
6.5644
6.4217
6.30583
6.42174
6.56448
6.52714
6.38478
6.27074
6.38483
6.52721
6.49138
6.34896
6.23659
6.34901
6.49146
6.45839
6.3154
6.20455
6.31545
6.45847
6.42946
6.28531
6.17577
6.28536
6.42955
6.40597
6.25992
6.15148
6.25997
6.40605
6.38935
6.24053
6.13291
6.24058
6.38943
6.38114
6.22847
6.12134
6.22851
6.38122
6.38286
6.22508
6.11804
6.22512
6.38294
6.39588
6.23145
6.12401
6.23149
6.39595
6.42234
6.24912
6.14063
6.24916
6.42241
6.46336
6.27907
6.16873
6.27912
6.46343
6.51974
6.32148
6.20831
6.32153
6.51982
6.59138
6.3757
6.2585
6.37576
6.59148
6.67638
6.4394
6.3168
6.43946
6.67648
6.77003
6.50745
6.37795
6.50751
6.77014
6.86447
6.57158
6.4336
6.57164
6.86458
6.9489
6.62034
6.47233
6.6204
6.94901
7.00152
6.63447
6.47792
6.63454
7.00163
3.86659
3.77022
3.48852
3.7702
3.86656
4.60446
4.41114
4.16162
4.41113
4.60445
5.08858
4.89133
4.6553
4.89133
5.08858
5.43243
5.23768
5.0164
5.23768
5.43243
5.68257
5.49344
5.28471
5.49345
5.68258
5.86841
5.68463
5.48639
5.68465
5.86843
6.00707
5.82807
5.6386
5.82808
6.0071
6.10977
5.93498
5.75293
5.935
6.1098
6.18425
6.01319
5.83749
6.01321
6.18429
6.23606
6.0683
5.89814
6.06833
6.23611
6.26945
6.10465
5.93934
6.10469
6.26951
6.28769
6.12557
5.9646
6.12563
6.28777
6.29332
6.1337
5.97665
6.13376
6.29342
6.28887
6.13142
5.97786
6.13148
6.28898
6.27603
6.12075
5.97049
6.1208
6.27612
6.25587
6.10253
5.95533
6.10257
6.25594
6.2301
6.07854
5.93418
6.07858
6.23016
6.19999
6.05008
5.9084
6.05011
6.20006
6.16682
6.01835
5.87921
6.01838
6.16687
6.1317
5.98446
5.84773
5.98448
6.13172
6.09575
5.94951
5.81507
5.94953
6.09579
6.06014
5.9146
5.78234
5.91463
6.06021
6.02609
5.88087
5.75068
5.88091
6.02617
5.99488
5.84953
5.72127
5.84956
5.99496
5.96791
5.82185
5.69537
5.82188
5.96795
5.94666
5.79922
5.67434
5.79923
5.94667
5.93284
5.78318
5.65968
5.78318
5.93284
5.92846
5.77548
5.65309
5.77547
5.92844
5.93541
5.77793
5.65628
5.77792
5.93538
5.95651
5.79262
5.67125
5.7926
5.95647
5.99526
5.82277
5.70102
5.82275
5.99523
6.05482
5.87079
5.74775
5.87078
6.0548
6.13898
5.93951
5.81395
5.93951
6.13898
6.25164
6.03154
5.90179
6.03155
6.25167
6.39609
6.14847
6.01228
6.1485
6.39613
6.57335
6.28937
6.14384
6.28941
6.5734
6.77936
6.44771
6.28934
6.44775
6.77942
7.00204
6.6088
6.4342
6.60885
7.00211
7.21051
6.74529
6.55336
6.74533
7.21057
3.27974
3.21709
2.90971
3.21707
3.2797
4.02853
3.84947
3.57083
3.84945
4.0285
4.50155
4.31138
4.043
4.31137
4.50153
4.82709
4.63588
4.38103
4.63587
4.82708
5.0595
4.87193
4.62888
4.87193
5.0595
5.2306
5.04687
4.81381
5.04687
5.2306
5.35764
5.17749
4.95288
5.1775
5.35764
5.45147
5.27459
5.05721
5.2746
5.45149
5.51946
5.34552
5.1344
5.34554
5.5195
5.56669
5.39546
5.18986
5.39551
5.56682
5.59714
5.42838
5.22769
5.42845
5.59728
5.61397
5.44739
5.2511
5.44747
5.61405
5.61936
5.45485
5.2626
5.45496
5.61949
5.61555
5.45294
5.26432
5.45306
5.61575
5.60433
5.44359
5.2584
5.44368
5.60451
5.58644
5.42737
5.24543
5.42743
5.58656
5.56328
5.40586
5.22696
5.4059
5.56336
5.53612
5.38025
5.20427
5.38029
5.53622
5.50611
5.35169
5.17849
5.3517
5.50615
5.47427
5.32111
5.15061
5.32108
5.47422
5.44156
5.28949
5.12163
5.2895
5.44166
5.40901
5.25782
5.09254
5.2579
5.4093
5.37782
5.22718
5.0644
5.22728
5.37812
5.34928
5.19874
5.03834
5.19881
5.34946
5.32465
5.17371
5.01561
5.17372
5.32457
5.30523
5.15342
4.99753
5.15337
5.30497
5.29276
5.13946
4.98571
5.13938
5.29252
5.28957
5.13384
4.98209
5.13373
5.28934
5.29789
5.13861
4.98858
5.13848
5.29765
5.32163
5.15684
5.00831
5.1567
5.32139
5.36521
5.19285
5.04534
5.19273
5.36498
5.4336
5.25076
5.10357
5.25067
5.43344
5.53417
5.3365
5.18854
5.33644
5.53409
5.67618
5.45748
5.30706
5.45745
5.67614
5.87189
5.62288
5.46725
5.62287
5.87186
6.13711
5.84298
5.67773
5.84298
6.13711
6.48888
6.12643
5.94486
6.12644
6.4889
6.93765
6.47268
6.26514
6.4727
6.93769
7.4623
6.84743
6.60456
6.84745
7.46234
2.36025
2.42847
2.10694
2.42845
2.36022
3.11508
3.00839
2.70006
3.00837
3.11506
3.55662
3.41811
3.11034
3.4181
3.5566
3.8434
3.69486
3.39635
3.69485
3.84339
4.04378
3.89322
3.6035
3.89321
4.04377
4.1907
4.03951
3.75746
4.0395
4.19069
4.29988
4.14867
3.87328
4.14866
4.29986
4.38052
4.22991
3.9604
4.22989
4.38053
4.43918
4.28941
4.02518
4.2894
4.43934
4.47952
4.33146
4.07208
4.33159
4.48082
4.50596
4.35952
4.10451
4.3596
4.50682
4.5227
4.37624
4.12516
4.37632
4.52194
4.52968
4.38336
4.13604
4.38362
4.5292
4.52724
4.38269
4.13886
4.38301
4.5278
4.52069
4.37645
4.13563
4.37678
4.52145
4.50913
4.36464
4.12677
4.36486
4.50959
4.49157
4.348
4.1131
4.34825
4.49158
4.47117
4.32782
4.09589
4.32816
4.47139
4.4475
4.30549
4.07623
4.30558
4.44779
4.42273
4.28152
4.05479
4.28131
4.4223
4.39743
4.25638
4.03234
4.25648
4.399
4.37174
4.231
4.00972
4.23158
4.37491
4.34767
4.20643
3.98774
4.20706
4.34988
4.327
4.18374
3.96742
4.18413
4.32806
4.31005
4.16393
3.94983
4.16387
4.30825
4.29563
4.14772
3.93601
4.14735
4.2921
4.28505
4.13643
3.92737
4.13605
4.28296
4.28248
4.13221
3.92582
4.13177
4.28148
4.29049
4.13697
3.93306
4.13654
4.28975
4.3149
4.15436
3.95285
4.15398
4.31416
4.35812
4.18883
3.98959
4.18853
4.35706
4.42459
4.245
4.04801
4.24486
4.4239
4.52537
4.331
4.13575
4.33093
4.52543
4.67094
4.45785
4.2637
4.45781
4.67107
4.8783
4.64267
4.44861
4.64263
4.87824
5.18925
4.91564
4.71798
4.91563
5.18922
5.67415
5.32311
5.1124
5.32312
5.67414
6.44353
5.92868
5.68235
5.92869
6.44354
7.64507
6.79072
6.48554
6.79073
7.6451
0.545446
0.780775
0.670281
0.780768
0.545434
1.0668
1.09987
0.989148
1.09986
1.06679
1.33362
1.30476
1.18796
1.30476
1.33361
1.49091
1.4433
1.32633
1.44329
1.49089
1.59679
1.54313
1.42721
1.54312
1.59677
1.67383
1.61788
1.50313
1.61787
1.67382
1.73163
1.67471
1.5611
1.6747
1.73162
1.77515
1.71793
1.60553
1.71792
1.77513
1.80765
1.75046
1.63933
1.75045
1.80764
1.83116
1.77439
1.66457
1.77442
1.83154
1.84775
1.79136
1.68283
1.79142
1.848
1.85919
1.80266
1.69536
1.80282
1.8592
1.86565
1.80915
1.70316
1.80945
1.86606
1.86808
1.81186
1.70699
1.81208
1.86855
1.86817
1.81163
1.70777
1.81182
1.86865
1.86634
1.80911
1.70612
1.8092
1.86658
1.86115
1.80378
1.70199
1.80388
1.86128
1.85386
1.79661
1.69599
1.7968
1.8544
1.84618
1.78857
1.68881
1.78858
1.84632
1.83777
1.77961
1.68068
1.77943
1.83721
1.82841
1.7699
1.67197
1.7698
1.82854
1.81878
1.75998
1.66306
1.76011
1.81986
1.80958
1.75028
1.65435
1.75051
1.8106
1.80168
1.74137
1.64632
1.74152
1.80222
1.79554
1.73379
1.63952
1.73385
1.79525
1.79061
1.72787
1.6344
1.72786
1.7898
1.78743
1.72428
1.63166
1.72416
1.7868
1.7877
1.72432
1.63237
1.72408
1.78709
1.79175
1.72829
1.63687
1.72804
1.79115
1.80328
1.73905
1.64787
1.73877
1.8026
1.82332
1.75916
1.66803
1.75893
1.8227
1.85328
1.7913
1.7
1.7912
1.85306
1.89817
1.84084
1.74873
1.84074
1.89807
1.96168
1.91453
1.82102
1.91449
1.9617
2.07843
2.02411
1.92747
2.02409
2.07838
2.25422
2.18853
2.08635
2.18852
2.25421
2.52512
2.44012
2.32837
2.44012
2.52511
3.05088
2.8622
2.71871
2.8622
3.05087
4.87937
4.09446
3.83143
4.09446
4.87938
1.04942
0.962551
0.90517
0.962543
1.04941
2.66001
2.54324
2.33824
2.54323
2.66
3.31006
3.21071
3.06651
3.21072
3.31008