/*--------------------------------*- C++ -*----------------------------------*\
  =========                 |
  \\      /  F ield         | OpenFOAM: The Open Source CFD Toolbox
   \\    /   O peration     | Website:  https://openfoam.org
    \\  /    A nd           | Version:  9
     \\/     M anipulation  |
\*---------------------------------------------------------------------------*/
FoamFile
{
    format      ascii;
    class       volScalarField;
    location    "2";
    object      p;
}
// * * * * * * * * * * * * * * * * * * * * * * * * * * * * * * * * * * * * * //

dimensions      [0 2 -2 0 0 0 0];

internalField   nonuniform List<scalar> 
4545
(
19.962
20.1604
20.1146
20.1604
19.962
19.9542
20.1949
20.1433
20.1949
19.9542
19.9181
20.2567
20.1998
20.2567
19.9181
19.8546
20.2963
20.2506
20.2962
19.8546
19.8063
20.3194
20.2908
20.3194
19.8062
19.7741
20.3337
20.3205
20.3335
19.7738
19.7521
20.3423
20.3413
20.3422
19.7513
19.7367
20.3472
20.3552
20.3475
19.7343
19.7258
20.3495
20.3638
20.3494
19.7234
19.718
20.3501
20.3689
20.3504
19.7135
19.7129
20.3487
20.3713
20.3508
19.7036
19.7059
20.3472
20.3712
20.3476
19.7005
19.6979
20.3453
20.3697
20.3443
19.6967
19.6942
20.3404
20.3665
20.3412
19.691
19.6897
20.3351
20.3614
20.3343
19.6901
19.6832
20.3301
20.3562
20.3289
19.6852
19.6793
20.323
20.3502
20.3244
19.6763
19.6747
20.3153
20.3419
20.3149
19.6743
19.6684
20.3078
20.3335
20.3063
19.6692
19.6644
20.2984
20.3248
20.2994
19.6599
19.6594
20.2888
20.3146
20.2891
19.6558
19.6526
20.2795
20.3042
20.279
19.6514
19.6483
20.2686
20.2928
20.2679
19.6485
19.6439
20.2579
20.2813
20.2568
19.6449
19.6387
20.2483
20.271
20.2488
19.6367
19.6336
20.2394
20.2606
20.2389
19.6341
19.6332
20.2298
20.25
20.23
19.6307
19.632
20.222
20.24
20.2232
19.626
19.6299
20.216
20.2305
20.2155
19.6293
19.6333
20.2097
20.222
20.2092
19.6345
19.6404
20.2055
20.2151
20.2049
19.6408
19.6503
20.2028
20.2097
20.2025
19.6495
19.6585
20.2027
20.2063
20.2024
19.6598
19.6703
20.2049
20.2047
20.2043
19.6728
19.6878
20.208
20.2045
20.2079
19.6884
19.7068
20.2127
20.2059
20.2128
19.7072
19.7285
20.219
20.2089
20.2191
19.7287
19.7526
20.2265
20.2137
20.2265
19.7528
19.7789
20.2346
20.2205
20.2346
19.779
20.2954
19.9513
20.0169
19.9513
20.2954
20.3734
19.9154
19.9741
19.9154
20.3734
20.2778
19.9912
20.0302
19.9912
20.2778
20.206
20.0194
20.0718
20.0194
20.2059
20.1645
20.0316
20.1029
20.0316
20.1645
20.1371
20.0376
20.125
20.0375
20.137
20.118
20.0402
20.1389
20.0402
20.1178
20.1044
20.0408
20.1474
20.0408
20.1042
20.0944
20.04
20.1521
20.0399
20.0942
20.0868
20.0382
20.1544
20.0382
20.0866
20.0804
20.0356
20.1549
20.036
20.0805
20.075
20.0327
20.1539
20.0327
20.0744
20.0697
20.0294
20.1519
20.0291
20.0691
20.0639
20.0251
20.1487
20.0252
20.0644
20.0583
20.0203
20.1446
20.0202
20.0587
20.0528
20.0154
20.1401
20.0152
20.053
20.0467
20.01
20.1351
20.0103
20.0473
20.0405
20.0043
20.1293
20.0042
20.0406
20.0343
19.9986
20.1233
19.9982
20.0342
20.0278
19.9925
20.1171
19.9926
20.028
20.0215
19.9866
20.1107
19.9865
20.0211
20.0157
19.981
20.1044
19.9807
20.0149
20.0099
19.9755
20.0981
19.9752
20.0094
20.0049
19.9708
20.0924
19.9705
20.0046
20.0007
19.9672
20.0877
19.9673
20.0007
19.9974
19.9647
20.0848
19.9647
19.997
19.9953
19.9632
20.0836
19.9632
19.995
19.9952
19.9636
20.0851
19.9636
19.9949
19.9973
19.9655
20.0856
19.9651
19.9962
20.001
19.9688
20.0872
19.9685
19.9999
20.0065
19.9741
20.0906
19.9738
20.0061
20.0146
19.9813
20.0956
19.9811
20.0145
20.0255
19.9905
20.1022
19.9903
20.0254
20.0385
20.0014
20.1101
20.0013
20.0387
20.0537
20.0136
20.1191
20.0136
20.054
20.0707
20.0269
20.129
20.027
20.071
20.0889
20.0414
20.1397
20.0415
20.0891
20.1078
20.0563
20.1512
20.0564
20.1079
20.1289
20.0692
20.1634
20.0693
20.129
20.3887
19.9077
19.9195
19.9077
20.3887
20.5531
19.8284
19.8035
19.8284
20.5531
20.4704
19.9056
19.8525
19.9057
20.4704
20.413
19.9281
19.884
19.9281
20.413
20.3856
19.9337
19.9043
19.9337
20.3856
20.3688
19.9338
19.9164
19.9337
20.3688
20.3575
19.9312
19.9224
19.931
20.3577
20.3498
19.9273
19.9245
19.927
20.3501
20.3441
19.9229
19.9242
19.9229
20.3441
20.3391
19.9184
19.9224
19.9182
20.34
20.334
19.9142
19.9195
19.9127
20.3372
20.3297
19.9095
19.9159
19.9076
20.3337
20.3266
19.9037
19.9115
19.9026
20.3298
20.3227
19.8981
19.9068
19.8972
20.3259
20.3187
19.8922
19.9018
19.8921
20.321
20.315
19.8859
19.8962
19.8858
20.3173
20.3104
19.88
19.8903
19.8785
20.3146
20.3056
19.8742
19.8848
19.873
20.3093
20.3013
19.8681
19.8794
19.8673
20.3047
20.2963
19.8626
19.874
19.8607
20.3018
20.2915
19.8578
19.8694
19.8553
20.2978
20.2876
19.8535
19.8656
19.8512
20.2933
20.2839
19.8503
19.863
19.849
20.2879
20.281
19.8482
19.8612
19.8476
20.2838
20.28
19.8465
19.8595
19.8453
20.2836
20.2811
19.8455
19.8585
19.8444
20.2842
20.2827
19.8465
19.8581
19.8451
20.2861
20.2858
19.8486
19.8606
19.8462
20.2905
20.2907
19.8547
19.8677
19.8522
20.2956
20.2965
19.8628
19.8766
19.8598
20.3019
20.3059
19.8709
19.8859
19.8693
20.3096
20.317
19.8809
19.8963
19.8801
20.3194
20.3296
19.8926
19.9078
19.8921
20.3314
20.3441
19.905
19.9199
19.9052
20.3449
20.359
19.9189
19.9326
19.9191
20.3595
20.374
19.9336
19.9456
19.9337
20.3744
20.3886
19.9488
19.9584
19.949
20.3889
20.4038
19.9632
19.9701
19.9633
20.404
20.4262
19.9691
19.9781
19.9692
20.4263
20.3792
19.9331
19.8977
19.9331
20.3792
20.5485
19.8592
19.7674
19.8592
20.5485
20.4558
19.9478
19.8247
19.9478
20.4559
20.3986
19.974
19.8615
19.9741
20.3986
20.3734
19.9812
19.8822
19.9812
20.3734
20.3586
19.9818
19.8929
19.9818
20.3587
20.3489
19.9795
19.8973
19.9794
20.349
20.3422
19.9757
19.8978
19.9756
20.3424
20.3372
19.9712
19.896
19.9712
20.3375
20.3329
19.9664
19.893
19.9664
20.3336
20.3289
19.9614
19.8891
19.9614
20.3303
20.3252
19.9562
19.8847
19.9562
20.3269
20.3217
19.9508
19.8799
19.951
20.3233
20.318
19.9453
19.875
19.9457
20.3194
20.3141
19.9397
19.8698
19.9403
20.3154
20.3101
19.9341
19.8645
19.9347
20.3115
20.3059
19.9286
19.8593
19.9289
20.3077
20.3016
19.9233
19.8544
19.9236
20.3035
20.2975
19.9181
19.8497
19.9186
20.2994
20.2934
19.9135
19.8456
19.9138
20.2959
20.2897
19.9095
19.8421
19.9096
20.2925
20.2866
19.9063
19.8395
19.9064
20.2893
20.2842
19.904
19.8379
19.9042
20.2864
20.2828
19.9027
19.8373
19.903
20.2848
20.2828
19.9026
19.8377
19.9026
20.2849
20.2843
19.9038
19.8399
19.9037
20.2863
20.2871
19.9068
19.8439
19.9067
20.2891
20.2916
19.912
19.8468
19.9118
20.2937
20.2973
19.916
19.852
19.9158
20.2995
20.3046
19.9224
19.8591
19.9221
20.3068
20.3139
19.9303
19.8674
19.9303
20.3157
20.3248
19.9396
19.8767
19.9397
20.3261
20.337
19.9499
19.8865
19.9501
20.338
20.3505
19.9608
19.8965
19.9611
20.3511
20.3646
19.9721
19.9062
19.9724
20.3651
20.3791
19.9834
19.9153
19.9836
20.3794
20.3931
19.9948
19.9232
19.9949
20.3933
20.4083
20.0044
19.9289
20.0045
20.4085
20.4324
20.0033
19.9292
20.0034
20.4326
20.3634
19.9502
19.8963
19.9502
20.3634
20.5213
19.8834
19.7649
19.8834
20.5213
20.4114
19.9783
19.8422
19.9783
20.4114
20.3478
20.0079
19.8887
20.008
20.3479
20.3205
20.0176
19.9125
20.0177
20.3206
20.3049
20.0203
19.9242
20.0203
20.305
20.2948
20.0194
19.9288
20.0195
20.2949
20.2878
20.0168
19.9294
20.0169
20.288
20.2825
20.0133
19.9276
20.0134
20.2828
20.2781
20.0093
19.9245
20.0094
20.2786
20.2742
20.0049
19.9206
20.0051
20.2749
20.2705
20.0002
19.9162
20.0005
20.2713
20.2669
19.9954
19.9115
19.9959
20.2677
20.2632
19.9906
19.9067
19.9911
20.264
20.2595
19.9856
19.9017
19.9861
20.2603
20.2558
19.9806
19.8967
19.9812
20.2566
20.252
19.9758
19.8917
19.9763
20.2529
20.2482
19.971
19.887
19.9716
20.2493
20.2447
19.9666
19.8826
19.9672
20.2459
20.2414
19.9625
19.8786
19.9631
20.2428
20.2386
19.959
19.8751
19.9596
20.2401
20.2364
19.9562
19.8724
19.9567
20.2379
20.235
19.9541
19.8705
19.9546
20.2364
20.2346
19.953
19.8694
19.9534
20.2359
20.2353
19.9528
19.8693
19.9532
20.2366
20.2372
19.9536
19.8701
19.954
20.2385
20.2405
19.9557
19.8721
19.956
20.2418
20.2452
19.959
19.875
19.9593
20.2465
20.2515
19.9633
19.8791
19.9636
20.2527
20.2592
19.9688
19.8842
19.9691
20.2604
20.2685
19.9753
19.89
19.9757
20.2695
20.2792
19.9826
19.8962
19.9829
20.28
20.2912
19.9903
19.9024
19.9906
20.2918
20.3043
19.9981
19.9082
19.9984
20.3049
20.3185
20.0057
19.9131
20.0059
20.319
20.3334
20.0129
19.9166
20.0131
20.3338
20.3486
20.0196
19.9183
20.0198
20.3488
20.3662
20.0243
19.9164
20.0244
20.3663
20.3955
20.0175
19.9066
20.0175
20.3956
20.3525
19.9603
19.9017
19.9603
20.3525
20.501
19.8969
19.7738
19.8969
20.5011
20.3781
19.9962
19.8659
19.9962
20.3781
20.3089
20.0288
19.919
20.0288
20.309
20.2793
20.0404
19.9462
20.0404
20.2794
20.2626
20.0444
19.96
20.0445
20.2627
20.2519
20.0448
19.9661
20.0448
20.252
20.2445
20.0432
19.9677
20.0432
20.2447
20.239
20.0405
19.9667
20.0406
20.2392
20.2344
20.0372
19.9644
20.0374
20.2347
20.2304
20.0336
19.9611
20.0338
20.2309
20.2267
20.0296
19.9573
20.0299
20.2272
20.2231
20.0255
19.9532
20.0259
20.2236
20.2195
20.0214
19.9489
20.0217
20.2201
20.216
20.0171
19.9445
20.0174
20.2166
20.2126
20.0128
19.94
20.0132
20.2132
20.2091
20.0086
19.9356
20.009
20.2098
20.2058
20.0045
19.9314
20.0049
20.2066
20.2027
20.0006
19.9273
20.0011
20.2036
20.2
19.997
19.9236
19.9975
20.2009
20.1976
19.9939
19.9203
19.9944
20.1986
20.1958
19.9913
19.9175
19.9918
20.1969
20.1948
19.9893
19.9153
19.9898
20.1958
20.1945
19.988
19.9138
19.9884
20.1955
20.1952
19.9874
19.9129
19.9878
20.1962
20.1969
19.9876
19.9127
19.988
20.1979
20.1997
19.9887
19.9132
19.9891
20.2007
20.2038
19.9906
19.9145
19.991
20.2047
20.2091
19.9933
19.9164
19.9937
20.21
20.2157
19.9968
19.9187
19.9972
20.2165
20.2236
20.0009
19.9214
20.0012
20.2243
20.2328
20.0052
19.9239
20.0056
20.2334
20.2434
20.0098
19.926
20.01
20.2439
20.2553
20.0141
19.9273
20.0143
20.2557
20.2685
20.0179
19.9271
20.0181
20.2688
20.283
20.0212
19.925
20.0213
20.2833
20.2985
20.024
19.9207
20.0241
20.2987
20.3177
20.0246
19.9122
20.0247
20.3178
20.3506
20.0135
19.8948
20.0135
20.3507
20.3449
19.9665
19.9079
19.9665
20.3449
20.4872
19.9046
19.7836
19.9046
20.4872
20.3557
20.0073
19.8847
20.0073
20.3557
20.2826
20.0418
19.9424
20.0418
20.2827
20.2514
20.0547
19.9724
20.0547
20.2514
20.2339
20.0597
19.988
20.0598
20.234
20.2228
20.061
19.9954
20.061
20.2229
20.2152
20.0602
19.9981
20.0603
20.2153
20.2095
20.0583
19.9982
20.0584
20.2097
20.2049
20.0558
19.9967
20.0559
20.2052
20.201
20.0528
19.9942
20.053
20.2013
20.1973
20.0496
19.9912
20.0498
20.1977
20.1939
20.0462
19.9879
20.0464
20.1942
20.1905
20.0427
19.9843
20.0429
20.1909
20.1873
20.0391
19.9806
20.0393
20.1877
20.1841
20.0355
19.9769
20.0357
20.1845
20.181
20.0319
19.9731
20.0322
20.1815
20.178
20.0284
19.9694
20.0287
20.1785
20.1752
20.025
19.9658
20.0253
20.1758
20.1727
20.0218
19.9624
20.0222
20.1733
20.1705
20.0189
19.9593
20.0193
20.1712
20.1687
20.0163
19.9564
20.0167
20.1694
20.1674
20.0141
19.9539
20.0145
20.1681
20.1668
20.0123
19.9517
20.0127
20.1674
20.1667
20.011
19.9499
20.0114
20.1674
20.1674
20.0101
19.9484
20.0105
20.1681
20.169
20.0097
19.9473
20.0101
20.1696
20.1714
20.0098
19.9465
20.0101
20.172
20.1748
20.0103
19.9458
20.0106
20.1754
20.1793
20.0111
19.9452
20.0114
20.1798
20.1848
20.0122
19.9444
20.0125
20.1853
20.1916
20.0133
19.9431
20.0135
20.192
20.1997
20.0142
19.941
20.0145
20.2001
20.2093
20.0148
19.9376
20.015
20.2096
20.2205
20.0149
19.9325
20.015
20.2208
20.2336
20.0142
19.9253
20.0144
20.2338
20.2485
20.0133
19.9156
20.0134
20.2487
20.2682
20.0105
19.9016
20.0105
20.2683
20.3033
19.9959
19.8784
19.9959
20.3034
20.3398
19.9699
19.9127
19.9699
20.3398
20.4783
19.9089
19.791
19.9089
20.4783
20.3414
20.0139
19.8974
20.0139
20.3414
20.266
20.0496
19.9582
20.0497
20.266
20.2337
20.0633
19.99
20.0633
20.2338
20.2158
20.0691
20.007
20.0692
20.2159
20.2046
20.071
20.0155
20.0711
20.2046
20.1969
20.071
20.0191
20.071
20.1971
20.1914
20.0698
20.0201
20.0699
20.1915
20.187
20.0679
20.0194
20.068
20.1871
20.1832
20.0656
20.0177
20.0657
20.1834
20.1798
20.063
20.0155
20.0631
20.18
20.1767
20.0603
20.013
20.0604
20.1769
20.1737
20.0575
20.0102
20.0576
20.1739
20.1708
20.0546
20.0072
20.0547
20.1711
20.168
20.0516
20.0042
20.0518
20.1683
20.1653
20.0487
20.0011
20.0489
20.1656
20.1626
20.0457
19.998
20.046
20.163
20.1601
20.0428
19.995
20.0431
20.1605
20.1577
20.04
19.9919
20.0402
20.1581
20.1555
20.0372
19.9889
20.0374
20.156
20.1535
20.0345
19.9859
20.0348
20.154
20.1518
20.032
19.983
20.0323
20.1523
20.1504
20.0295
19.9802
20.0298
20.1509
20.1493
20.0272
19.9773
20.0275
20.1498
20.1486
20.0249
19.9744
20.0252
20.1491
20.1484
20.0228
19.9714
20.023
20.1489
20.1487
20.0206
19.9683
20.0209
20.1491
20.1496
20.0185
19.9648
20.0188
20.15
20.1512
20.0163
19.961
20.0166
20.1516
20.1536
20.014
19.9565
20.0142
20.154
20.1571
20.0114
19.9512
20.0116
20.1574
20.1618
20.0084
19.9447
20.0086
20.1621
20.1682
20.0049
19.9367
20.005
20.1684
20.1766
20.0008
19.9268
20.0009
20.1768
20.1872
19.9962
19.9147
19.9963
20.1874
20.2005
19.9916
19.9
19.9916
20.2006
20.2195
19.9853
19.8812
19.9854
20.2195
20.2554
19.9677
19.8534
19.9677
20.2555
20.3369
19.9715
19.9154
19.9715
20.3369
20.4733
19.911
19.7953
19.911
20.4733
20.3336
20.0174
19.9047
20.0174
20.3337
20.257
20.0539
19.9671
20.0539
20.257
20.2243
20.0681
20.0001
20.0681
20.2243
20.2063
20.0744
20.018
20.0744
20.2063
20.1951
20.0768
20.0272
20.0769
20.1951
20.1876
20.0773
20.0315
20.0774
20.1877
20.1823
20.0767
20.0332
20.0767
20.1824
20.1782
20.0754
20.0332
20.0755
20.1783
20.1748
20.0737
20.0323
20.0738
20.1749
20.1718
20.0718
20.0308
20.0719
20.172
20.1691
20.0697
20.029
20.0698
20.1693
20.1666
20.0676
20.027
20.0677
20.1667
20.1642
20.0654
20.0248
20.0655
20.1644
20.162
20.0631
20.0225
20.0633
20.1621
20.1597
20.0608
20.0201
20.061
20.1599
20.1575
20.0585
20.0176
20.0586
20.1577
20.1553
20.056
20.015
20.0562
20.1555
20.1531
20.0535
20.0123
20.0537
20.1534
20.1509
20.0509
20.0095
20.0511
20.1512
20.1487
20.0481
20.0065
20.0483
20.1491
20.1465
20.0452
20.0032
20.0454
20.1469
20.1443
20.0421
19.9997
20.0423
20.1447
20.1421
20.0387
19.9957
20.0389
20.1424
20.1398
20.0349
19.9913
20.0351
20.1402
20.1375
20.0308
19.9864
20.031
20.1379
20.1353
20.0263
19.9808
20.0265
20.1357
20.1333
20.0213
19.9745
20.0215
20.1336
20.1315
20.0157
19.9672
20.0159
20.1318
20.1302
20.0096
19.9589
20.0098
20.1305
20.1297
20.0028
19.9492
20.003
20.1299
20.1302
19.9954
19.9381
19.9955
20.1305
20.1324
19.9873
19.9252
19.9874
20.1326
20.1368
19.9786
19.9103
19.9787
20.1369
20.1438
19.9695
19.8931
19.9695
20.144
20.1541
19.9606
19.8735
19.9607
20.1542
20.1711
19.9507
19.8501
19.9507
20.1712
20.2062
19.9301
19.8182
19.9301
20.2062
20.3357
19.9718
19.9161
19.9718
20.3357
20.4716
19.9116
19.7966
19.9116
20.4716
20.3312
20.0186
19.907
20.0186
20.3312
20.2543
20.0554
19.9702
20.0554
20.2544
20.2216
20.0699
20.0037
20.0699
20.2217
20.2038
20.0766
20.022
20.0766
20.2038
20.1928
20.0794
20.0317
20.0794
20.1928
20.1856
20.0803
20.0365
20.0803
20.1857
20.1807
20.0801
20.0386
20.0801
20.1807
20.177
20.0793
20.0392
20.0794
20.1771
20.1741
20.0782
20.0389
20.0783
20.1742
20.1717
20.0769
20.038
20.077
20.1717
20.1695
20.0755
20.0369
20.0756
20.1696
20.1676
20.0741
20.0356
20.0742
20.1677
20.1659
20.0726
20.0341
20.0727
20.166
20.1643
20.071
20.0326
20.0711
20.1644
20.1626
20.0694
20.0309
20.0695
20.1628
20.161
20.0677
20.0291
20.0678
20.1612
20.1592
20.0658
20.027
20.0659
20.1594
20.1574
20.0636
20.0248
20.0638
20.1576
20.1554
20.0612
20.0222
20.0614
20.1556
20.1531
20.0585
20.0192
20.0587
20.1534
20.1506
20.0553
20.0157
20.0555
20.1509
20.1477
20.0516
20.0115
20.0517
20.148
20.1444
20.0472
20.0066
20.0473
20.1446
20.1406
20.042
20.0009
20.0422
20.1408
20.1362
20.036
19.9941
20.0362
20.1365
20.1314
20.029
19.9861
20.0292
20.1317
20.1262
20.021
19.9767
20.0212
20.1264
20.1207
20.0119
19.9659
20.012
20.1209
20.1151
20.0016
19.9534
20.0017
20.1153
20.1098
19.9901
19.9391
19.9903
20.11
20.1052
19.9776
19.9229
19.9777
20.1054
20.102
19.9642
19.9046
19.9643
20.1022
20.101
19.95
19.884
19.9501
20.1011
20.103
19.9355
19.8613
19.9356
20.1031
20.1087
19.9216
19.8363
19.9216
20.1088
20.1219
19.9072
19.8081
19.9072
20.1219
20.1543
19.8831
19.7721
19.8832
20.1544
20.3362
19.9708
19.9147
19.9708
20.3362
20.4729
19.9108
19.7951
19.9108
20.4729
20.3337
20.0176
19.9049
20.0176
20.3338
20.2575
20.0544
19.9677
20.0544
20.2575
20.2253
20.0691
20.0011
20.0691
20.2253
20.2078
20.0759
20.0194
20.0759
20.2078
20.1972
20.0789
20.0293
20.079
20.1972
20.1904
20.0801
20.0343
20.0801
20.1905
20.1859
20.0803
20.0368
20.0803
20.186
20.1828
20.08
20.0377
20.08
20.1828
20.1805
20.0793
20.0379
20.0794
20.1805
20.1787
20.0786
20.0376
20.0786
20.1787
20.1772
20.0779
20.037
20.0779
20.1773
20.176
20.0771
20.0364
20.0771
20.1761
20.1751
20.0763
20.0356
20.0763
20.1752
20.1743
20.0754
20.0347
20.0755
20.1744
20.1734
20.0745
20.0337
20.0746
20.1736
20.1725
20.0735
20.0326
20.0736
20.1726
20.1714
20.0723
20.0313
20.0724
20.1716
20.1701
20.0707
20.0295
20.0708
20.1703
20.1685
20.0687
20.0274
20.0688
20.1687
20.1664
20.0662
20.0246
20.0663
20.1666
20.1638
20.063
20.0211
20.0631
20.1641
20.1606
20.0589
20.0166
20.059
20.1608
20.1565
20.0538
20.011
20.0539
20.1567
20.1514
20.0474
20.0041
20.0476
20.1516
20.1452
20.0397
19.9957
20.0399
20.1454
20.1379
20.0305
19.9854
20.0306
20.1381
20.1295
20.0195
19.9732
20.0196
20.1297
20.1201
20.0067
19.9588
20.0068
20.1202
20.1097
19.992
19.942
19.9921
20.1099
20.0989
19.9754
19.9227
19.9755
20.099
20.0881
19.957
19.9007
19.9571
20.0882
20.078
19.9372
19.8762
19.9372
20.0782
20.0699
19.9162
19.849
19.9163
20.07
20.0646
19.8949
19.8196
19.895
20.0647
20.0635
19.8744
19.7882
19.8745
20.0636
20.0706
19.8543
19.7542
19.8543
20.0707
20.0983
19.8258
19.7135
19.8259
20.0984
20.3384
19.9685
19.9114
19.9685
20.3384
20.4775
19.9084
19.7907
19.9084
20.4775
20.3416
20.0143
19.8979
20.0143
20.3416
20.267
20.0507
19.9592
20.0507
20.267
20.2356
20.0652
19.9919
20.0652
20.2357
20.2188
20.072
20.0099
20.072
20.2188
20.2087
20.0751
20.0195
20.0751
20.2087
20.2025
20.0764
20.0245
20.0764
20.2025
20.1985
20.0768
20.027
20.0768
20.1985
20.1959
20.0768
20.0282
20.0768
20.196
20.1943
20.0766
20.0286
20.0766
20.1943
20.1932
20.0763
20.0288
20.0763
20.1933
20.1926
20.0761
20.0287
20.0762
20.1926
20.1923
20.076
20.0286
20.0761
20.1923
20.1922
20.0759
20.0285
20.076
20.1923
20.1923
20.0758
20.0282
20.0759
20.1924
20.1924
20.0757
20.028
20.0758
20.1926
20.1924
20.0755
20.0277
20.0756
20.1925
20.1922
20.075
20.0272
20.0751
20.1923
20.1917
20.0742
20.0262
20.0743
20.1919
20.1908
20.0729
20.0246
20.073
20.191
20.1894
20.0709
20.0224
20.071
20.1896
20.1871
20.0681
20.0192
20.0682
20.1873
20.184
20.0641
20.0149
20.0642
20.1841
20.1796
20.0587
20.0091
20.0588
20.1798
20.1738
20.0518
20.0015
20.0518
20.1739
20.1663
20.0428
19.9919
20.0429
20.1665
20.157
20.0317
19.9799
20.0317
20.1571
20.1457
20.018
19.9651
20.0181
20.1458
20.1323
20.0017
19.9473
20.0017
20.1324
20.1169
19.9824
19.9261
19.9825
20.1171
20.0998
19.9602
19.9014
19.9603
20.1
20.0815
19.9351
19.8731
19.9352
20.0816
20.0628
19.9076
19.8411
19.9076
20.063
20.045
19.8781
19.8059
19.8782
20.0451
20.0296
19.8477
19.7678
19.8478
20.0297
20.0183
19.8183
19.728
19.8184
20.0184
20.016
19.7901
19.6864
19.7901
20.0161
20.0361
19.7554
19.6398
19.7554
20.0362
20.3429
19.9645
19.9061
19.9645
20.3429
20.4861
19.904
19.7833
19.904
20.4861
20.3559
20.0078
19.8853
20.0078
20.3559
20.284
20.0433
19.9439
20.0433
20.284
20.254
20.0574
19.9751
20.0574
20.254
20.238
20.0638
19.9921
20.0638
20.238
20.2286
20.0668
20.0012
20.0667
20.2286
20.223
20.068
20.0059
20.068
20.223
20.2197
20.0684
20.0082
20.0684
20.2197
20.2179
20.0686
20.0094
20.0686
20.2178
20.217
20.0686
20.01
20.0686
20.217
20.2167
20.0688
20.0104
20.0688
20.2167
20.2169
20.0691
20.0107
20.0691
20.217
20.2175
20.0696
20.0112
20.0696
20.2176
20.2185
20.0701
20.0116
20.0702
20.2186
20.2196
20.0708
20.0121
20.0709
20.2197
20.2208
20.0715
20.0126
20.0716
20.221
20.2219
20.0722
20.013
20.0723
20.2221
20.2228
20.0727
20.0135
20.0728
20.223
20.2235
20.0729
20.0135
20.073
20.2237
20.2238
20.0725
20.0129
20.0726
20.224
20.2234
20.0715
20.0116
20.0716
20.2236
20.2221
20.0695
20.0093
20.0696
20.2223
20.2197
20.0662
20.0056
20.0663
20.2198
20.2158
20.0613
20.0003
20.0614
20.2159
20.2101
20.0544
19.9929
20.0545
20.2102
20.2022
20.0451
19.983
20.0452
20.2023
20.1917
20.0329
19.97
20.033
20.1918
20.1782
20.0173
19.9534
20.0174
20.1783
20.1615
19.9979
19.9327
19.998
20.1615
20.1412
19.9743
19.9074
19.9743
20.1413
20.1174
19.9461
19.877
19.9462
20.1175
20.0903
19.9135
19.8415
19.9136
20.0904
20.0607
19.8766
19.8008
19.8767
20.0608
20.03
19.8361
19.7552
19.8362
20.0301
19.9999
19.7934
19.7056
19.7935
20
19.9731
19.7509
19.6537
19.751
19.9732
19.9556
19.7102
19.6006
19.7102
19.9557
19.9627
19.6655
19.5449
19.6655
19.9628
20.35
19.9581
19.8996
19.9581
20.35
20.4997
19.8963
19.7734
19.8963
20.4997
20.3784
19.9969
19.8667
19.9969
20.3784
20.3106
20.0306
19.9209
20.0306
20.3105
20.2825
20.0437
19.9496
20.0437
20.2825
20.2676
20.0495
19.9651
20.0495
20.2676
20.259
20.0519
19.9732
20.0519
20.259
20.2542
20.0528
19.9773
20.0528
20.2541
20.2516
20.0531
19.9793
20.0531
20.2515
20.2505
20.0532
19.9803
20.0532
20.2504
20.2504
20.0534
19.9809
20.0534
20.2503
20.251
20.0538
19.9815
20.0538
20.251
20.2521
20.0545
19.9821
20.0545
20.2521
20.2536
20.0554
19.983
20.0555
20.2537
20.2556
20.0566
19.984
20.0567
20.2558
20.2578
20.058
19.9852
20.0581
20.258
20.2602
20.0596
19.9866
20.0597
20.2604
20.2626
20.0612
19.9879
20.0613
20.2629
20.265
20.0628
19.9893
20.0629
20.2652
20.2671
20.0642
19.9906
20.0643
20.2673
20.2689
20.0651
19.9914
20.0653
20.2691
20.27
20.0655
19.9915
20.0656
20.2703
20.2704
20.0649
19.9907
20.065
20.2706
20.2696
20.0631
19.9885
20.0631
20.2697
20.2672
20.0595
19.9846
20.0596
20.2673
20.2628
20.0538
19.9785
20.0538
20.2628
20.2557
20.0453
19.9694
20.0453
20.2557
20.2454
20.0334
19.9568
20.0334
20.2454
20.2313
20.0172
19.9398
20.0172
20.2312
20.2125
19.996
19.9174
19.996
20.2125
20.1882
19.9689
19.8889
19.9689
20.1883
20.158
19.9352
19.8534
19.9353
20.1581
20.1215
19.8944
19.8102
19.8944
20.1216
20.0788
19.8463
19.7589
19.8464
20.0789
20.0309
19.7915
19.6999
19.7916
20.0311
19.9798
19.7314
19.634
19.7315
19.9799
19.9287
19.6691
19.5636
19.6692
19.9289
19.8855
19.6077
19.4913
19.6078
19.8856
19.8686
19.5445
19.4186
19.5446
19.8687
20.3606
19.9478
19.8942
19.9478
20.3606
20.5197
19.8829
19.7647
19.8829
20.5197
20.4116
19.9791
19.8433
19.9791
20.4116
20.3495
20.01
19.8909
20.01
20.3495
20.3239
20.0213
19.9163
20.0213
20.3239
20.3103
20.0259
19.93
20.0259
20.3103
20.3026
20.0275
19.937
20.0274
20.3025
20.2986
20.0277
19.9404
20.0277
20.2984
20.2967
20.0276
19.9419
20.0275
20.2966
20.2963
20.0275
19.9428
20.0275
20.2962
20.2969
20.0276
19.9435
20.0276
20.2969
20.2983
20.0281
19.9442
20.0281
20.2983
20.3002
20.029
19.9452
20.029
20.3003
20.3026
20.0303
19.9465
20.0303
20.3028
20.3056
20.0319
19.948
20.032
20.3058
20.3089
20.034
19.95
20.034
20.3091
20.3123
20.0364
19.9524
20.0364
20.3126
20.3159
20.039
19.955
20.039
20.3163
20.3198
20.0417
19.9576
20.0417
20.3201
20.3236
20.0443
19.9602
20.0444
20.3239
20.3271
20.0469
19.9629
20.047
20.3275
20.3303
20.049
19.965
20.0491
20.3307
20.3329
20.0505
19.9663
20.0505
20.3332
20.3345
20.0508
19.9666
20.0509
20.3347
20.3347
20.0497
19.9653
20.0497
20.3348
20.333
20.0464
19.9618
20.0464
20.3329
20.3286
20.0404
19.9554
20.0403
20.3284
20.3205
20.0306
19.9451
20.0306
20.3203
20.308
20.016
19.9298
20.016
20.3079
20.2895
19.9951
19.908
19.9951
20.2894
20.264
19.9666
19.8782
19.9666
20.264
20.2294
19.9288
19.8388
19.9288
20.2295
20.1841
19.8802
19.7882
19.8803
20.1842
20.1269
19.8195
19.7248
19.8196
20.127
20.0572
19.746
19.6478
19.7461
20.0574
19.9758
19.6606
19.5575
19.6607
19.976
19.8856
19.5661
19.4561
19.5662
19.8857
19.7957
19.467
19.3477
19.4671
19.7958
19.7289
19.3647
19.2375
19.3648
19.729
20.3763
19.931
19.8958
19.931
20.3762
20.5467
19.8589
19.7674
19.8589
20.5467
20.4559
19.9487
19.8259
19.9487
20.4559
20.4001
19.9762
19.8638
19.9762
20.4
20.3765
19.9849
19.8861
19.9849
20.3765
20.3638
19.9877
19.8989
19.9876
20.3637
20.3566
19.9878
19.9058
19.9878
20.3565
20.353
19.987
19.9094
19.9871
20.3528
20.3516
19.9862
19.9113
19.9863
20.3514
20.3517
19.9857
19.9126
19.9858
20.3515
20.353
19.9855
19.9137
19.9857
20.3528
20.3548
19.9859
19.9149
19.986
20.3549
20.3571
19.987
19.9166
19.9871
20.3573
20.3602
19.9886
19.9186
19.9886
20.3604
20.3642
19.9905
19.9209
19.9905
20.3645
20.3686
19.993
19.9237
19.9929
20.369
20.3728
19.9962
19.9273
19.996
20.3735
20.3772
20
19.9315
19.9997
20.378
20.3824
20.0038
19.9359
20.0038
20.3829
20.3882
20.0078
19.9404
20.0079
20.3883
20.3938
20.012
19.945
20.0121
20.3943
20.3992
20.0163
19.9496
20.0161
20.4002
20.4046
20.0203
19.9539
20.02
20.4054
20.4095
20.0236
19.9576
20.0234
20.4099
20.4137
20.0258
19.9601
20.0257
20.4135
20.4164
20.0263
19.9609
20.0264
20.416
20.4168
20.0245
19.9592
20.0246
20.4164
20.4141
20.0193
19.9538
20.0194
20.4136
20.4058
20.0092
19.9434
20.0093
20.4054
20.3904
19.9922
19.9258
19.9922
20.3902
20.371
19.9666
19.8987
19.9665
20.3712
20.3389
19.9292
19.8594
19.9291
20.3393
20.2909
19.8768
19.8047
19.8768
20.2913
20.2235
19.806
19.7308
19.806
20.2239
20.1324
19.7133
19.6343
19.7134
20.1327
20.0131
19.5957
19.5117
19.5959
20.0133
19.8633
19.4524
19.361
19.4525
19.8634
19.6883
19.2856
19.1845
19.2857
19.6884
19.511
19.0976
18.9884
19.0976
19.5111
20.386
19.906
19.918
19.906
20.3859
20.5513
19.8282
19.8035
19.8282
20.5513
20.4702
19.9064
19.8533
19.9064
20.4702
20.4139
19.9298
19.8857
19.9298
20.4138
20.3878
19.9369
19.9074
19.9369
20.3877
20.3727
19.9389
19.9215
19.9389
20.3727
20.3638
19.9386
19.93
19.9386
20.3636
20.3589
19.9376
19.9349
19.938
20.3584
20.3563
19.937
19.9383
19.9373
20.3561
20.3561
19.9366
19.9408
19.9367
20.3559
20.3576
19.9361
19.9427
19.9367
20.357
20.3591
19.9369
19.9448
19.937
20.3593
20.3604
19.9389
19.9474
19.9388
20.3609
20.3633
19.9412
19.9503
19.941
20.3638
20.3687
19.9427
19.9528
19.9423
20.3693
20.3748
19.9447
19.9558
19.9444
20.3754
20.379
19.9492
19.9603
19.9481
20.3808
20.3833
19.9548
19.966
19.9535
20.3853
20.39
19.9598
19.9718
19.9593
20.3907
20.3986
19.9644
19.9775
19.9648
20.3981
20.4065
19.9702
19.9837
19.97
20.4072
20.4142
19.9771
19.9904
19.9754
20.4171
20.4239
19.9831
19.9974
19.9817
20.4262
20.4334
19.9898
20.0047
19.9893
20.4342
20.4432
19.9963
20.0118
19.9968
20.4423
20.4529
20.002
20.0179
20.0028
20.4516
20.4617
20.0064
20.0226
20.0068
20.4608
20.469
20.0082
20.0247
20.009
20.4676
20.4728
20.0068
20.0226
20.0075
20.4716
20.474
19.9982
20.0132
19.9982
20.4738
20.4644
19.9797
19.9935
19.979
20.4654
20.4435
19.9474
19.9591
19.9467
20.4447
20.4042
19.8943
19.9035
19.8937
20.4053
20.3375
19.8124
19.8183
19.8119
20.3385
20.2291
19.6909
19.6925
19.6909
20.2295
20.0638
19.5185
19.5128
19.5186
20.064
19.8244
19.2818
19.2654
19.2819
19.8246
19.495
18.9743
18.9429
18.9744
19.4952
19.0573
18.574
18.5286
18.5741
19.0575
20.2932
19.9496
20.0153
19.9496
20.2932
20.372
19.9144
19.9734
19.9144
20.372
20.2775
19.9908
20.0295
19.9908
20.2775
20.2064
20.0196
20.0716
20.0196
20.2063
20.1658
20.0329
20.1038
20.0328
20.1657
20.1395
20.0403
20.1273
20.0403
20.1396
20.122
20.0448
20.1431
20.0449
20.1221
20.1105
20.0479
20.1539
20.0479
20.1107
20.1032
20.05
20.1617
20.05
20.1034
20.099
20.0521
20.1677
20.0519
20.099
20.0969
20.0543
20.1726
20.0541
20.0969
20.0959
20.0561
20.1766
20.0563
20.0961
20.0959
20.0581
20.18
20.0583
20.0961
20.0977
20.0611
20.1838
20.061
20.0974
20.1001
20.0649
20.1882
20.0646
20.0996
20.1032
20.0693
20.1932
20.0691
20.1027
20.1073
20.0741
20.1984
20.0741
20.107
20.112
20.0794
20.204
20.0795
20.1117
20.118
20.0862
20.2107
20.0861
20.1178
20.1249
20.0942
20.2187
20.0938
20.1249
20.1325
20.1026
20.2274
20.1022
20.1321
20.1414
20.1119
20.2369
20.1117
20.1407
20.1512
20.1223
20.2475
20.1222
20.1507
20.1618
20.1333
20.2586
20.1332
20.1615
20.1734
20.1453
20.2708
20.1455
20.1737
20.1865
20.1585
20.2841
20.1588
20.187
20.2007
20.1727
20.2976
20.1728
20.2009
20.2155
20.1869
20.311
20.1867
20.2153
20.23
20.1997
20.3241
20.1995
20.2299
20.2433
20.2107
20.3354
20.2105
20.2431
20.2535
20.218
20.342
20.2181
20.2534
20.2586
20.2174
20.3397
20.2175
20.2587
20.2545
20.2033
20.3227
20.2033
20.2544
20.233
20.168
20.2829
20.1679
20.2327
20.1674
20.0975
20.2056
20.0974
20.1674
20.0605
19.9746
20.0721
19.9746
20.0606
19.8965
19.7897
19.8687
19.7897
19.8966
19.5777
19.4667
19.5245
19.4668
19.5778
18.5923
18.4557
18.5058
18.4558
18.5924
19.9608
20.1587
20.113
20.1587
19.9608
19.9531
20.1928
20.1412
20.1928
19.9531
19.9175
20.2548
20.1978
20.2548
19.9175
19.8542
20.2945
20.2487
20.2945
19.8542
19.8064
20.3181
20.2893
20.3181
19.8064
19.7748
20.3331
20.3199
20.3332
19.7748
19.7534
20.3429
20.3418
20.343
19.7538
19.7385
20.3494
20.3572
20.3492
19.7403
19.7295
20.3535
20.3679
20.3534
19.7314
19.7215
20.3574
20.376
20.3567
19.7252
19.7151
20.3613
20.3825
20.3602
19.719
19.7167
20.3625
20.3868
20.3632
19.7145
19.7213
20.3626
20.389
20.3633
19.7182
19.7223
20.365
20.3918
20.3648
19.721
19.7235
20.3684
20.3959
20.3682
19.7221
19.7258
20.3724
20.4001
20.3719
19.724
19.7327
20.3753
20.4037
20.3761
19.7271
19.7426
20.3774
20.4069
20.3787
19.737
19.7471
20.3835
20.412
20.3834
19.7458
19.7509
20.3917
20.419
20.3906
19.7526
19.7602
20.3992
20.4266
20.3978
19.7626
19.7725
20.4074
20.4352
20.4073
19.7716
19.7846
20.4179
20.4455
20.4183
19.7824
19.8015
20.4284
20.4562
20.4285
19.8002
19.82
20.4409
20.4688
20.4414
19.8177
19.838
20.4569
20.4844
20.4581
19.8341
19.8559
20.4763
20.5029
20.4772
19.8534
19.876
20.4985
20.5232
20.4977
19.8772
19.9028
20.5213
20.5446
20.5203
19.9044
19.9332
20.5462
20.5683
20.5461
19.9326
19.9662
20.5721
20.593
20.5731
19.9633
19.9984
20.5973
20.6161
20.5981
19.9956
20.0267
20.6182
20.6338
20.6183
20.0248
20.043
20.6279
20.6379
20.6279
20.0416
20.035
20.6098
20.611
20.6095
20.0348
19.9708
20.5304
20.518
20.5302
19.9709
19.7809
20.3106
20.2762
20.3106
19.7811
19.3662
19.8163
19.7405
19.8163
19.3663
18.2394
18.5132
18.4261
18.5132
18.2395
19.8727
20.2734
20.2647
20.2734
19.8728
20.2056
20.104
20.208
20.104
20.2057
20.492
19.9703
20.0084
19.9703
20.4921
20.5186
19.9715
19.9348