/*--------------------------------*- C++ -*----------------------------------*\
  =========                 |
  \\      /  F ield         | OpenFOAM: The Open Source CFD Toolbox
   \\    /   O peration     | Website:  https://openfoam.org
    \\  /    A nd           | Version:  9
     \\/     M anipulation  |
\*---------------------------------------------------------------------------*/
FoamFile
{
    format      ascii;
    class       surfaceScalarField;
    location    "2";
    object      phi;
}
// * * * * * * * * * * * * * * * * * * * * * * * * * * * * * * * * * * * * * //

dimensions      [0 3 -1 0 0 0 0];

internalField   nonuniform List<scalar> 
12376
(
-7.50461e-05
0.00141052
0.000325802
1.71985e-05
0.000566646
-0.000247215
-1.7199e-05
0.000556374
-1.25566e-05
7.50439e-05
0.000566634
-0.000247216
0.0014105
0.000325792
-8.58372e-05
0.0012474
0.000248959
1.8438e-05
0.000663993
-0.000201624
-1.84394e-05
0.000588202
5.04871e-06
8.58346e-05
0.000663985
-0.000201626
0.00124738
0.000248949
-0.000119363
0.0011219
0.000244855
1.99605e-05
0.000733648
-0.000208979
-1.99612e-05
0.000639913
-1.17894e-05
0.000119361
0.000733645
-0.000208983
0.0011219
0.000244845
-0.000151614
0.00103205
0.000241472
1.55802e-05
0.000775488
-0.000209035
-1.55755e-05
0.000692004
-2.09356e-05
0.000151614
0.000775495
-0.000209039
0.00103205
0.000241463
-0.000171846
0.000972317
0.000231574
9.53397e-06
0.000800417
-0.00020631
-9.51409e-06
0.000735096
-2.4045e-05
0.000171851
0.000800447
-0.000206318
0.000972335
0.000231567
-0.000182992
0.00093356
0.000221749
4.27294e-06
0.000816567
-0.000203414
-4.23108e-06
0.000768446
-2.48457e-05
0.000183038
0.000816618
-0.00020344
0.000933632
0.00022174
-0.000188579
0.000908817
0.000213322
3.15818e-07
0.000828207
-0.000200536
-2.86439e-07
0.000793738
-2.46904e-05
0.000188811
0.000828179
-0.000200659
0.000909063
0.00021338
-0.000190726
0.000893604
0.000205939
-2.49012e-06
0.000837493
-0.000197522
2.40622e-06
0.000813171
-2.43293e-05
0.000190775
0.000837487
-0.000197677
0.000893742
0.000206096
-0.000190565
0.000884905
0.000199264
-4.33508e-06
0.000845518
-0.000194255
4.35286e-06
0.000828525
-2.40422e-05
0.000190503
0.000845553
-0.000194217
0.000884984
0.000199261
-0.000188689
0.000880632
0.000192962
-5.59123e-06
0.000853027
-0.000190607
5.50032e-06
0.000841207
-2.3774e-05
0.000188667
0.000853077
-0.000190691
0.00088051
0.000193141
-0.000185731
0.000879741
0.000186622
-6.57814e-06
0.000860306
-0.000186432
5.98055e-06
0.000852182
-2.35345e-05
0.000185885
0.000860595
-0.000187423
0.000878427
0.000187968
-0.000181899
0.000880452
0.000181188
-6.81378e-06
0.000867735
-0.000182515
6.7093e-06
0.000862081
-2.34218e-05
0.000183537
0.000867623
-0.000183856
0.00087957
0.000182394
-0.00017803
0.000882006
0.000176476
-6.77772e-06
0.000875431
-0.000178948
7.05635e-06
0.000871505
-2.32583e-05
0.000179715
0.000874817
-0.000179854
0.000882313
0.000176972
-0.000174983
0.000885578
0.000171412
-7.11467e-06
0.00088275
-0.000175189
6.89646e-06
0.000880466
-2.29729e-05
0.000175016
0.000882634
-0.000175936
0.000885072
0.000172257
-0.000171031
0.00088992
0.000166688
-7.01164e-06
0.000889996
-0.000171265
7.21616e-06
0.000888833
-2.25948e-05
0.000171308
0.000890106
-0.000171564
0.00088949
0.000166889
-0.000166762
0.0008941
0.000162583
-6.82021e-06
0.000897439
-0.000167384
7.14472e-06
0.000897
-2.21313e-05
0.000167553
0.000897416
-0.000167718
0.000894434
0.000162609
-0.000163006
0.000898828
0.000158277
-6.96357e-06
0.000904508
-0.000163112
6.59725e-06
0.000904991
-2.15517e-05
0.000163505
0.000904793
-0.000164285
0.000898553
0.000159386
-0.000158763
0.000903142
0.000154449
-6.66805e-06
0.000911153
-0.00015874
6.75567e-06
0.000912338
-2.07713e-05
0.000159814
0.000911381
-0.000159645
0.00090333
0.000155037
-0.00015456
0.000906518
0.000151184
-6.31544e-06
0.000917268
-0.000154359
6.67717e-06
0.000918974
-1.96288e-05
0.000155635
0.000917388
-0.000154965
0.000907464
0.000151502
-0.000150797
0.000909595
0.00014772
-6.33812e-06
0.000922179
-0.00014937
6.09203e-06
0.000924706
-1.81625e-05
0.000151297
0.000922799
-0.000150616
0.000909551
0.00014921
-0.000146571
0.000911296
0.00014487
-6.08225e-06
0.000925813
-0.000144122
6.00547e-06
0.000928963
-1.63444e-05
0.000148294
0.000926137
-0.000145627
0.000911453
0.000146392
-0.000142171
0.000910763
0.000142704
-5.69732e-06
0.000927949
-0.000138611
5.81048e-06
0.000931484
-1.40289e-05
0.000144115
0.000927813
-0.00013998
0.000911584
0.000143983
-0.000138298
0.000908443
0.000140618
-5.48495e-06
0.000927656
-0.00013252
5.63267e-06
0.000931628
-1.12611e-05
0.000139283
0.000927555
-0.000133394
0.000909259
0.000141609
-0.000134064
0.000903186
0.000139321
-5.18653e-06
0.000924905
-0.000126126
5.43064e-06
0.000929222
-8.21144e-06
0.000134587
0.000924811
-0.000126412
0.000903977
0.000139869
-0.000130138
0.000894504
0.000138819
-4.92819e-06
0.000919207
-0.000119512
4.81152e-06
0.000924529
-5.04702e-06
0.00013036
0.000919431
-0.000120169
0.000894298
0.000140039
-0.000126674
0.000882033
0.000139145
-4.49608e-06
0.000909857
-0.000112828
4.59512e-06
0.000916199
-7.61189e-07
0.000127618
0.00090978
-0.000113372
0.000881906
0.00014001
-0.000123337
0.00086573
0.00013964
-4.20345e-06
0.000896111
-0.000105387
4.17296e-06
0.00090407
3.75283e-06
0.000123898
0.000896066
-0.000106011
0.000865264
0.00014054
-0.000119525
0.000844306
0.000140949
-3.67633e-06
0.000877989
-9.77261e-05
3.41874e-06
0.000887423
9.55137e-06
0.000119853
0.000878363
-9.87308e-05
0.000842942
0.000142175
-0.000115018
0.000816479
0.000142844
-2.9001e-06
0.000855586
-8.97147e-05
3.00962e-06
0.000866159
1.53543e-05
0.000116609
0.000855522
-9.07588e-05
0.000815908
0.000143642
-0.000110879
0.000782943
0.000144416
-2.41438e-06
0.000828068
-8.09457e-05
2.50312e-06
0.000839708
2.15337e-05
0.000112844
0.000827531
-8.23493e-05
0.000783266
0.000145486
-0.000107762
0.000743771
0.000146934
-1.83446e-06
0.000794939
-7.2798e-05
1.94618e-06
0.000808182
2.77457e-05
0.000108538
0.000794444
-7.35053e-05
0.000744146
0.000147659
-0.000104477
0.000698507
0.000149742
-1.29793e-06
0.000756062
-6.43022e-05
1.35817e-06
0.000771486
3.404e-05
0.000104559
0.000755889
-6.46447e-05
0.000698667
0.000150038
-0.000100215
0.000646122
0.0001526
-6.65684e-07
0.000712097
-5.55842e-05
7.17035e-07
0.000729715
4.03886e-05
0.000100561
0.000711931
-5.58853e-05
0.000646424
0.000152804
-9.64859e-05
0.000587049
0.000155559
3.01236e-08
0.000662848
-4.7266e-05
7.67964e-08
0.000683002
4.66668e-05
9.65549e-05
0.000662713
-4.72603e-05
0.000587424
0.000155555
-9.26518e-05
0.000521715
0.000157986
6.06176e-07
0.00060853
-3.89398e-05
-5.90091e-07
0.000631389
5.28096e-05
9.25211e-05
0.000608543
-3.89409e-05
0.0005219
0.000158045
-8.83623e-05
0.000450123
0.000159954
1.19114e-06
0.000549999
-3.10224e-05
-1.20573e-06
0.000575046
5.87399e-05
8.83147e-05
0.00055004
-3.1017e-05
0.000450239
0.000159976
-8.40178e-05
0.000373031
0.00016111
1.72996e-06
0.000488
-2.37477e-05
-1.74717e-06
0.00051421
6.43142e-05
8.39901e-05
0.000488045
-2.37421e-05
0.000373108
0.000161121
-7.96107e-05
0.000292023
0.000160619
2.14157e-06
0.000423212
-1.69639e-05
-2.15772e-06
0.000448738
6.97712e-05
7.95946e-05
0.000423252
-1.69586e-05
0.000292077
0.000160626
-7.50019e-05
0.000156304
0.000210721
2.31354e-06
-9.37606e-06
0.000355273
-2.32732e-06
7.57059e-05
0.000377674
7.49919e-05
-9.37154e-06
0.000355304
0.000156308
0.000210761
0.000101454
0.00120819
0.000277867
-1.84195e-05
0.000714445
-0.000181262
1.8419e-05
0.000751096
-6.43042e-05
-0.000101453
0.000714442
-0.000181264
0.00120819
0.000277859
0.000119555
0.00108642
0.000251174
-1.46353e-05
0.000810002
-0.000162991
1.46342e-05
0.000778231
-5.13562e-05
-0.000119555
0.000809999
-0.000162994
0.00108642
0.000251164
7.17091e-05
0.00101352
0.00024604
-9.25156e-06
0.000847241
-0.000165258
9.25086e-06
0.000808109
-6.017e-05
-7.17095e-05
0.000847239
-0.000165262
0.00101352
0.00024603
4.4599e-05
0.00097328
0.000237117
-1.18446e-05
0.000862409
-0.000167759
1.18464e-05
0.00083158
-6.80984e-05
-4.4599e-05
0.000862409
-0.000167764
0.00097328
0.000237107
3.05123e-05
0.00094748
0.000226861
-1.5449e-05
0.000870628
-0.000168568
1.54566e-05
0.000848486
-7.18563e-05
-3.05104e-05
0.000870634
-0.000168577
0.000947485
0.00022685
2.20065e-05
0.000930579
0.000216643
-1.82214e-05
0.000876001
-0.00016856
1.82372e-05
0.000860829
-7.36478e-05
-2.19968e-05
0.000876008
-0.00016858
0.000930601
0.000216628
1.6602e-05
0.00091995
0.00020735
-2.03796e-05
0.00088037
-0.000167923
2.03994e-05
0.000870034
-7.46741e-05
-1.65704e-05
0.000880365
-0.000168046
0.000919958
0.000207451
1.3131e-05
0.000913721
0.000199037
-2.17276e-05
0.000884486
-0.00016678
2.17316e-05
0.000877415
-7.51696e-05
-1.30902e-05
0.000884483
-0.000166974
0.000913712
0.000199253
1.08928e-05
0.00091059
0.000191502
-2.24005e-05
0.000888683
-0.000165158
2.24026e-05
0.00088384
-7.52707e-05
-1.08606e-05
0.000888671
-0.000165142
0.000910568
0.000191544
9.42398e-06
0.000909704
0.000184424
-2.26462e-05
0.000893136
-0.00016299
2.26273e-05
0.000889817
-7.50251e-05
-9.38559e-06
0.000893112
-0.000163119
0.000909677
0.000184646
8.43862e-06
0.000910505
0.000177382
-2.26287e-05
0.000897864
-0.000160093
2.25565e-05
0.000895629
-7.45313e-05
-8.37475e-06
0.000897894
-0.000161273
0.000910489
0.000178781
7.73231e-06
0.0009125
0.00017146
-2.23767e-05
0.000902914
-0.000157456
2.2379e-05
0.000901395
-7.39436e-05
-7.63365e-06
0.000902884
-0.000158833
0.000912374
0.000172875
7.17076e-06
0.000915336
0.00016647
-2.20075e-05
0.000908229
-0.000155085
2.20476e-05
0.000907196
-7.31149e-05
-7.12265e-06
0.0009081
-0.0001559
0.000915151
0.000167072
6.71857e-06
0.00091871
0.000161319
-2.16434e-05
0.000913573
-0.00015217
2.16002e-05
0.000912978
-7.19985e-05
-6.78458e-06
0.000913537
-0.000152988
0.000918643
0.00016198
6.38905e-06
0.000922376
0.000156632
-2.11712e-05
0.000918897
-0.000149029
2.11587e-05
0.000918618
-7.0564e-05
-6.49487e-06
0.0009189
-0.000149274
0.000922409
0.000156628
6.12569e-06
0.000926159
0.000152674
-2.0677e-05
0.000924125
-0.000145809
2.06724e-05
0.000924053
-6.89159e-05
-6.20067e-06
0.000924107
-0.000146052
0.000926215
0.000152603
5.86203e-06
0.000929769
0.000148805
-2.01979e-05
0.00092897
-0.000141897
2.01322e-05
0.000929119
-6.69482e-05
-5.90543e-06
0.000929042
-0.000143182
0.000929795
0.000149901
5.6241e-06
0.000932863
0.000145732
-1.96491e-05
0.000933234
-0.000137731
1.96476e-05
0.000933541
-6.44897e-05
-5.661e-06
0.000933304
-0.000138599
0.000932858
0.000146312
5.40775e-06
0.000935176
0.000143463
-1.91098e-05
0.000936692
-0.0001333
1.91498e-05
0.000937116
-6.14634e-05
-5.45415e-06
0.000936715
-0.000133772
0.000935238
0.000143667
5.20278e-06
0.000936386
0.000141308
-1.8609e-05
0.000938984
-0.00012785
1.85912e-05
0.00093958
-5.78263e-05
-5.22551e-06
0.000939095
-0.000129179
0.000936528
0.000142695
5.02349e-06
0.000936101
0.000140131
-1.80709e-05
0.000939843
-0.000121887
1.80792e-05
0.000940576
-5.34907e-05
-4.9685e-06
0.000939923
-0.000123407
0.00093616
0.000141791
4.86057e-06
0.000934017
0.000139928
-1.75191e-05
0.000938945
-0.000115333
1.75564e-05
0.000939789
-4.83177e-05
-4.7871e-06
0.000938952
-0.000116665
0.000933964
0.000141392
4.69764e-06
0.000929683
0.000140254
-1.69803e-05
0.000935828
-0.000107724
1.70178e-05
0.00093681
-4.22796e-05
-4.67617e-06
0.000935827
-0.000108575
0.000929621
0.000141276
4.54141e-06
0.0009227
0.000141763
-1.64255e-05
0.000930166
-9.94975e-05
1.64625e-05
0.000931248
-3.55377e-05
-4.5521e-06
0.000930135
-9.97053e-05
0.000922745
0.000142193
4.36381e-06
0.000912698
0.000144457
-1.58935e-05
0.000921593
-9.06818e-05
1.58829e-05
0.000922572
-2.81478e-05
-4.347e-06
0.00092161
-9.14135e-05
0.000912785
0.000145652
4.16049e-06
0.000899252
0.000148431
-1.54782e-05
0.000909768
-8.13635e-05
1.54738e-05
0.000910745
-1.98859e-05
-4.10307e-06
0.000909762
-8.19467e-05
0.000899228
0.000149464
3.97501e-06
0.000882004
0.000152913
-1.51391e-05
0.000894328
-7.08339e-05
1.51419e-05
0.00089516
-1.09432e-05
-3.93837e-06
0.000894324
-7.14923e-05
0.000882005
0.000153824
3.83047e-06
0.000860595
0.000158527
-1.49478e-05
0.000875164
-5.97838e-05
1.49621e-05
0.000876916
-2.11428e-06
-3.79546e-06
0.000875206
-6.08552e-05
0.0008607
0.000159685
3.75806e-06
0.000834886
0.000164795
-1.4435e-05
0.000852063
-4.84203e-05
1.44928e-05
0.000854281
9.06154e-06
-3.67623e-06
0.000852032
-4.94159e-05
0.000834954
0.000165712
3.72208e-06
0.000804813
0.000170768
-1.39121e-05
0.000824669
-3.59173e-05
1.39585e-05
0.000827397
2.05469e-05
-3.62913e-06
0.000824607
-3.73364e-05
0.000804629
0.000172182
3.66358e-06
0.000769792
0.000178291
-1.33893e-05
0.000792982
-2.40579e-05
1.3424e-05
0.000796369
3.19613e-05
-3.64732e-06
0.000792938
-2.47654e-05
0.000769707
0.000178934
3.68144e-06
0.00073002
0.000185833
-1.28455e-05
0.00075707
-1.18631e-05
1.2875e-05
0.000761238
4.345e-05
-3.69882e-06
0.000757037
-1.21698e-05
0.000730064
0.000185981
3.79088e-06
0.000685781
0.000193048
-1.22823e-05
0.000717111
4.48397e-07
1.22933e-05
0.000722179
5.48726e-05
-3.80022e-06
0.000717099
1.46904e-07
0.000685784
0.000193284
3.94012e-06
0.000637063
0.000200338
-1.16928e-05
0.0006734
1.20783e-05
1.1694e-05
0.000679463
6.59961e-05
-3.96293e-06
0.000673393
1.21019e-05
0.0006371
0.000200277
4.16791e-06
0.000584311
0.000206571
-1.10966e-05
0.000626276
2.34484e-05
1.10876e-05
0.00063343
7.6659e-05
-4.19335e-06
0.000626289
2.34448e-05
0.000584379
0.000206573
4.46167e-06
0.000528121
0.000211683
-1.05026e-05
0.000576216
3.40027e-05
1.049e-05
0.000584536
8.66409e-05
-4.48015e-06
0.000576238
3.40042e-05
0.000528184
0.00021169
4.75129e-06
0.000469274
0.000215206
-9.90155e-06
0.000523676
4.34453e-05
9.88922e-06
0.000533281
9.57791e-05
-4.76424e-06
0.0005237
4.34494e-05
0.000469326
0.000215215
5.05703e-06
0.000408575
0.000216262
-9.35044e-06
0.000469338
5.17812e-05
9.33956e-06
0.000480221
0.000104141
-5.06618e-06
0.000469361
5.17862e-05
0.000408615
0.00021627
5.69945e-06
0.000213471
0.000345708
-8.98257e-06
5.95291e-05
0.000415115
8.97349e-06
0.000111843
0.000426127
-5.70581e-06
5.95345e-05
0.000415135
0.000213478
0.000345739
0.000122884
0.0011169
0.000192009
-2.83865e-06
0.00074833
-0.000103901
2.83785e-06
0.000803106
-6.96152e-05
-0.000122884
0.00074833
-0.000103904
0.0011169
0.000192004
0.000159357
0.00102896
0.000179749
5.14903e-06
0.000831953
-9.24063e-05
-5.15055e-06
0.000822373
-6.03238e-05
-0.000159357
0.000831951
-9.24098e-05
0.00102897
0.000179743
0.000116716
0.000982763
0.000175526
1.02417e-05
0.000865938
-9.27683e-05
-1.02433e-05
0.000847269
-6.45817e-05
-0.000116717
0.000865935
-9.27724e-05
0.00098276
0.000175519
9.43511e-05
0.000957691
0.000167837
7.98524e-06
0.000879832
-9.52876e-05
-7.9861e-06
0.000865473
-7.03309e-05
-9.43526e-05
0.000879828
-9.52917e-05
0.000957682
0.000167832
8.34616e-05
0.000942308
0.000158782
5.05455e-06
0.000887327
-9.76564e-05
-5.05326e-06
0.000877652
-7.3928e-05
-8.34646e-05
0.000887324
-9.76611e-05
0.000942289
0.000158779
7.6642e-05
0.000932589
0.000149719
2.83522e-06
0.000892231
-9.96572e-05
-2.82723e-06
0.000885989
-7.63224e-05
-7.66564e-05
0.00089224
-9.96669e-05
0.000932537
0.000149724
7.19312e-05
0.000926615
0.000141393
1.36688e-06
0.000896072
-0.000101199
-1.33988e-06
0.000892098
-7.80762e-05
-7.19882e-05
0.000896076
-0.000101234
0.000926553
0.000141446
6.84741e-05
0.000923272
0.000133905
4.19741e-07
0.000899565
-0.000102219
-3.85447e-07
0.000897043
-7.93099e-05
-6.85536e-05
0.000899541
-0.000102271
0.000923243
0.000134009
6.57119e-05
0.000921859
0.000127204
-1.89978e-07
0.00090306
-0.000102752
1.84251e-07
0.000901495
-8.00968e-05
-6.5708e-05
0.00090307
-0.000102779
0.000921764
0.000127314
6.33015e-05
0.000921884
0.000121097
-5.52709e-07
0.000906708
-0.000102784
5.80496e-07
0.000905807
-8.04701e-05
-6.34564e-05
0.000906825
-0.000102837
0.000921661
0.000121293
6.10085e-05
0.000922756
0.000115501
-7.11254e-07
0.000910705
-0.00010237
9.09044e-07
0.000910154
-8.04991e-05
-6.16935e-05
0.000910729
-0.000102575
0.000922805
0.000115944
5.90816e-05
0.000924478
0.000110656
-8.33844e-07
0.000914895
-0.00010173
1.07409e-06
0.000914553
-8.02504e-05
-5.99073e-05
0.000914828
-0.000101951
0.000924723
0.00011105
5.75368e-05
0.000927027
0.000106384
-9.83331e-07
0.000919098
-0.000100767
1.13094e-06
0.000918964
-7.96396e-05
-5.81365e-05
0.000919086
-0.000100891
0.000927135
0.000106524
5.60198e-05
0.000929787
0.000102539
-1.06754e-06
0.000923441
-9.94259e-05
1.17811e-06
0.0009234
-7.86799e-05
-5.65608e-05
0.000923361
-9.95241e-05
0.000929963
0.000102591
5.45446e-05
0.000932692
9.91827e-05
-1.13879e-06
0.000927712
-9.76173e-05
1.15546e-06
0.000927786
-7.72447e-05
-5.48553e-05
0.000927726
-9.76282e-05
0.00093266
9.90764e-05
5.32557e-05
0.000935624
9.64858e-05
-1.18206e-06
0.000931703
-9.53621e-05
1.19965e-06
0.000931881
-7.53926e-05
-5.35546e-05
0.00093184
-9.54108e-05
0.000935313
9.63949e-05
5.18748e-05
0.000938131
9.44233e-05
-1.15082e-06
0.000935346
-9.25141e-05
1.31946e-06
0.000935463
-7.29998e-05
-5.25571e-05
0.000935267
-9.27332e-05
0.000938089
9.45679e-05
5.04984e-05
0.00094018
9.31845e-05
-1.1609e-06
0.000938315
-8.90408e-05
1.28322e-06
0.000938424
-6.98947e-05
-5.10619e-05
0.000938219
-8.92059e-05
0.000940068
9.32724e-05
4.92854e-05
0.000941541
9.28167e-05
-1.19536e-06
0.000940337
-8.48404e-05
1.27635e-06
0.000940517
-6.6028e-05
-4.97655e-05
0.000940429
-8.49401e-05
0.000941072
9.28971e-05
4.79594e-05
0.000941635
9.32548e-05
-1.16685e-06
0.000941301
-7.96877e-05
1.37025e-06
0.000941425
-6.1272e-05
-4.87825e-05
0.000941308
-7.9905e-05
0.000941345
9.36392e-05
4.66458e-05
0.000940321
9.47994e-05
-1.15403e-06
0.000940832
-7.36181e-05
1.40728e-06
0.000940912
-5.55389e-05
-4.75957e-05
0.000940775
-7.38705e-05
0.000940217
9.53239e-05
4.54359e-05
0.00093733
9.74828e-05
-1.18388e-06
0.000938632
-6.65129e-05
1.40727e-06
0.000938728
-4.87248e-05
-4.62709e-05
0.000938522
-6.67339e-05
0.000937342
9.79967e-05
4.41563e-05
0.000932116
0.000101311
-1.20511e-06
0.000934554
-5.82849e-05
1.33625e-06
0.000934689
-4.0782e-05
-4.47146e-05
0.000934422
-5.84249e-05
0.000932158
0.000101746
4.2926e-05
0.000924505
0.000106448
-1.20493e-06
0.000928186
-4.89992e-05
1.25293e-06
0.000928454
-3.17603e-05
-4.3258e-05
0.00092827
-4.90413e-05
0.000924278
0.000106814
4.18832e-05
0.000914192
0.000112887
-1.17198e-06
0.000919209
-3.86496e-05
1.28198e-06
0.000919544
-2.16917e-05
-4.23487e-05
0.000919242
-3.8755e-05
0.000914168
0.000113413
4.10124e-05
0.000901024
0.000120587
-1.14325e-06
0.000907252
-2.72507e-05
1.23721e-06
0.000907772
-1.04938e-05
-4.14077e-05
0.000907312
-2.73718e-05
0.000901098
0.000121126
4.00435e-05
0.000884493
0.0001294
-1.00131e-06
0.00089225
-1.47871e-05
1.12267e-06
0.000892546
2.15828e-06
-4.04892e-05
0.000892361
-1.49293e-05
0.00088457
0.000129863
3.91536e-05
0.000864584
0.000139283
-1.00443e-06
0.000873467
-8.42252e-07
1.2032e-06
0.000873719
1.45053e-05
-3.97878e-05
0.000873522
-1.02531e-06
0.000864772
0.000139695
3.81127e-05
0.000841274
0.000149992
-1.06841e-06
0.000851635
1.25931e-05
1.27329e-06
0.000852026
2.84127e-05
-3.87586e-05
0.000851746
1.23917e-05
0.000841381
0.000150345
3.70267e-05
0.000813821
0.000161194
-1.10467e-06
0.000826668
2.71812e-05
1.33901e-06
0.00082718
4.29501e-05
-3.77398e-05
0.000826555
2.69336e-05
0.00081425
0.000161573
3.6287e-05
0.000782888
0.000172937
-1.17428e-06
0.00079806
4.20109e-05
1.30308e-06
0.000798909
5.7755e-05
-3.67359e-05
0.000797971
4.18581e-05
0.000783297
0.00017315
3.5583e-05
0.000748371
0.000184767
-1.18216e-06
0.000766082
5.68808e-05
1.24315e-06
0.000767339
7.2594e-05
-3.58446e-05
0.000766081
5.6808e-05
0.000748596
0.000184838
3.49032e-05
0.000710219
0.000196297
-1.14064e-06
0.000731069
7.1505e-05
1.1761e-06
0.000732704
8.71913e-05
-3.50842e-05
0.000731032
7.14559e-05
0.000710448
0.000196349
3.43643e-05
0.000668961
0.000207231
-1.09885e-06
0.000693118
8.54923e-05
1.08487e-06
0.000695286
0.00010123
-3.44069e-05
0.000693142
8.54843e-05
0.000669073
0.000207244
3.37791e-05
0.000624681
0.000217072
-9.97296e-07
0.000652785
9.85584e-05
9.83164e-07
0.000655552
0.000114413
-3.38034e-05
0.000652814
9.85595e-05
0.00062476
0.000217083
3.31954e-05
0.000577783
0.000225386
-8.57903e-07
0.000610508
0.000110333
8.45696e-07
0.000614055
0.000126434
-3.32106e-05
0.000610537
0.000110338
0.000577842
0.000225398
3.25936e-05
0.000528759
0.000231637
-6.70388e-07
0.000566738
0.000120479
6.60186e-07
0.00057147
0.000137033
-3.2603e-05
0.000566764
0.000120486
0.000528805
0.000231649
3.21742e-05
0.000477714
0.000235133
-4.79033e-07
0.000522355
0.000128818
4.71031e-07
0.000528592
0.00014607
-3.21805e-05
0.000522377
0.000128825
0.00047775
0.000235144
3.24907e-05
0.000234837
0.000423857
-6.07068e-07
0.000135435
0.000479547
6.00914e-07
0.000153401
0.000485827
-3.24949e-05
0.000135442
0.000479565
0.000234849
0.000423886
0.00010361
0.00108902
0.000132217
7.66104e-06
0.000755975
-6.17937e-05
-7.66176e-06
0.000809115
-5.59513e-05
-0.00010361
0.000755975
-6.17968e-05
0.00108902
0.000132214
0.000136292
0.00100886
0.000123619
1.6921e-05
0.000835958
-5.30187e-05
-1.69228e-05
0.000831178
-4.85429e-05
-0.000136293
0.000835957
-5.3022e-05
0.00100886
0.000123615
9.35545e-05
0.000971157
0.000119669
1.89786e-05
0.000869482
-5.17161e-05
-1.89809e-05
0.000856379
-5.18235e-05
-9.35559e-05
0.000869478
-5.17193e-05
0.000971155
0.000119666
7.3027e-05
0.000952447
0.000113519
1.64628e-05
0.000884275
-5.35167e-05
-1.64653e-05
0.000874828
-5.58521e-05
-7.30292e-05
0.00088427
-5.35192e-05
0.000952439
0.000113518
6.35988e-05
0.000941585
0.000106045
1.35705e-05
0.000892825
-5.6179e-05
-1.35723e-05
0.000886913
-5.88702e-05
-6.36027e-05
0.000892819
-5.61806e-05
0.000941567
0.000106047
5.79109e-05
0.000935003
9.83899e-05
1.15052e-05
0.000898563
-5.8989e-05
-1.15051e-05
0.000895007
-6.14071e-05
-5.79205e-05
0.000898558
-5.89904e-05
0.00093497
9.84009e-05
5.40789e-05
0.000931094
9.12234e-05
1.01309e-05
0.000902917
-6.16062e-05
-1.01264e-05
0.000900822
-6.3634e-05
-5.41055e-05
0.000902912
-6.16095e-05
0.000931055
9.12552e-05
5.12972e-05
0.000928991
8.47106e-05
9.20015e-06
0.000906636
-6.3841e-05
-9.19499e-06
0.000905422
-6.55141e-05
-5.13378e-05
0.000906628
-6.38445e-05
0.000928959
8.47672e-05
4.91216e-05
0.000928199
7.88737e-05
8.53831e-06
0.000910116
-6.56487e-05
-8.54113e-06
0.000909436
-6.70319e-05
-4.9162e-05
0.000910118
-6.56478e-05
0.000928159
7.89521e-05
4.72721e-05
0.000928381
7.36429e-05
8.04176e-06
0.00091356
-6.69973e-05
-8.04743e-06
0.000913214
-6.81584e-05
-4.73546e-05
0.000913584
-6.69954e-05
0.000928343
7.37545e-05
4.56246e-05
0.000929261
6.89966e-05
7.65429e-06
0.000917078
-6.79174e-05
-7.64922e-06
0.000916927
-6.8909e-05
-4.5809e-05
0.000917096
-6.79271e-05
0.000929327
6.91508e-05
4.41949e-05
0.000930741
6.49822e-05
7.32466e-06
0.000920659
-6.84418e-05
-7.32497e-06
0.000920621
-6.92951e-05
-4.43957e-05
0.000920669
-6.84533e-05
0.000930882
6.50996e-05
4.28978e-05
0.0009327
6.15275e-05
7.02626e-06
0.000924257
-6.84933e-05
-7.04694e-06
0.000924289
-6.92336e-05
-4.30412e-05
0.000924271
-6.84986e-05
0.000932808
6.1556e-05
4.16864e-05
0.000934875
5.86775e-05
6.76575e-06
0.000927839
-6.80871e-05
-6.79974e-06
0.000927907
-6.87323e-05
-4.17986e-05
0.000927838
-6.80915e-05
0.000934951
5.865e-05
4.05151e-05
0.000937107
5.64354e-05
6.52021e-06
0.000931293
-6.70765e-05
-6.56833e-06
0.000931387
-6.76368e-05
-4.05785e-05
0.000931297
-6.7077e-05
0.000937086
5.63633e-05
3.94109e-05
0.000939232
5.49504e-05
6.30041e-06
0.000934479
-6.54372e-05
-6.34518e-06
0.000934577
-6.59363e-05
-3.94883e-05
0.000934481
-6.54514e-05
0.000939112
5.48805e-05
3.83246e-05
0.000941027
5.43042e-05
6.10015e-06
0.000937241
-6.30524e-05
-6.12437e-06
0.000937304
-6.35023e-05
-3.848e-05
0.00093719
-6.30873e-05
0.000940918
5.42813e-05
3.72727e-05
0.000942329
5.46099e-05
5.89566e-06
0.000939377
-5.97992e-05
-5.92302e-06
0.00093941
-6.01823e-05
-3.74184e-05
0.000939306
-5.98265e-05
0.000942167
5.46051e-05
3.62679e-05
0.000942895
5.5983e-05
5.69793e-06
0.000940681
-5.55744e-05
-5.72912e-06
0.000940697
-5.58876e-05
-3.64095e-05
0.000940632
-5.55852e-05
0.000942636
5.6019e-05
3.52494e-05
0.00094241
5.84901e-05
5.51133e-06
0.00094095
-5.02188e-05
-5.52773e-06
0.000940931
-5.04664e-05
-3.54636e-05
0.000940893
-5.02304e-05
0.000942188
5.86241e-05
3.42662e-05
0.000940643
6.23009e-05
5.32766e-06
0.000939936
-4.36649e-05
-5.33451e-06
0.000939887
-4.38331e-05
-3.45131e-05
0.000939874
-4.36725e-05
0.000940497
6.2502e-05
3.33114e-05
0.000937324
6.74904e-05
5.14272e-06
0.000937398
-3.58057e-05
-5.14929e-06
0.000937341
-3.58865e-05
-3.35419e-05
0.000937337
-3.58035e-05
0.000937235
6.77162e-05
3.23705e-05
0.000932144
7.41199e-05
4.96113e-06
0.000933106
-2.65837e-05
-4.97491e-06
0.000933066
-2.65711e-05
-3.25545e-05
0.000933058
-2.65664e-05
0.000932076
7.43513e-05
3.14776e-05
0.000924868
8.22465e-05
4.79093e-06
0.000926785
-1.59914e-05
-4.80831e-06
0.000926789
-1.58845e-05
-3.162e-05
0.000926786
-1.59583e-05
0.000924781
8.24895e-05
3.06425e-05
0.000915253
9.18603e-05
4.63312e-06
0.000918182
-4.03714e-06
-4.64013e-06
0.000918203
-3.83203e-06
-3.08055e-05
0.000918204
-4.00751e-06
0.000915248
9.21403e-05
2.98509e-05
0.000903091
0.000102898
4.46169e-06
0.000907086
9.23453e-06
-4.46674e-06
0.000907131
9.50647e-06
-3.00162e-05
0.000907129
9.2536e-06
0.000903176
0.000103182
2.90589e-05
0.000888178
0.000115254
4.29629e-06
0.000893327
2.37344e-05
-4.29642e-06
0.000893781
2.41013e-05
-2.92252e-05
0.000893386
2.37418e-05
0.000888311
0.000115503
2.82711e-05
0.000870426
0.000128765
4.31526e-06
0.000877124
3.93167e-05
-4.30618e-06
0.000877259
3.96488e-05
-2.84484e-05
0.000877191
3.93125e-05
0.000870588
0.00012897
2.76935e-05
0.000849562
0.000143163
4.15912e-06
0.000857614
5.56374e-05
-4.14747e-06
0.000857877
5.61011e-05
-2.78713e-05
0.000857685
5.5621e-05
0.00084973
0.000143332
2.70911e-05
0.000825461
0.000158204
4.02858e-06
0.000835259
7.2599e-05
-4.01493e-06
0.000835669
7.32022e-05
-2.72692e-05
0.000835299
7.25749e-05
0.000825689
0.000158345
2.65514e-05
0.000798248
0.000173599
3.92481e-06
0.000810038
8.98581e-05
-3.92221e-06
0.00081066
9.06105e-05
-2.6678e-05
0.000810072
8.98404e-05
0.000798468
0.000173693
2.60644e-05
0.000767979
0.000188972
3.84765e-06
0.000782073
0.000107063
-3.85282e-06
0.000782974
0.000107981
-2.61424e-05
0.000782114
0.000107056
0.00076814
0.000189023
2.56305e-05
0.000734731
0.000203914
3.79647e-06
0.00075157
0.000123842
-3.80538e-06
0.000752816
0.000124951
-2.5683e-05
0.000751607
0.000123841
0.00073486
0.000203946
2.52716e-05
0.000698708
0.000217983
3.77022e-06
0.000718778
0.000139786
-3.78397e-06
0.000720472
0.000141129
-2.52993e-05
0.000718816
0.00013979
0.0006988
0.000218005
2.49759e-05
0.000660088
0.000230716
3.77799e-06
0.000684045
0.00015449
-3.79085e-06
0.000686322
0.000156132
-2.49924e-05
0.00068408
0.000154498
0.000660157
0.000230734
2.47353e-05
0.000619108
0.00024163
3.82637e-06
0.000647736
0.00016755
-3.83733e-06
0.000650833
0.000169587
-2.47459e-05
0.000647767
0.000167559
0.000619162
0.000241647
2.45152e-05
0.000576038
0.000250192
3.9331e-06
0.000610218
0.00017858
-3.94188e-06
0.000614587
0.000181155
-2.45222e-05
0.000610244
0.000178589
0.000576081
0.000250208
2.45339e-05
0.000530811
0.000255826
4.07574e-06
0.000572191
0.000187303
-4.08238e-06
0.000578205
0.000190609
-2.45385e-05
0.000572213
0.000187312
0.000530846
0.000255841
2.54142e-05
0.000257803
0.000482432
3.96672e-06
0.000193578
0.000535495
-3.9714e-06
0.000197742
0.000541802
-2.54172e-05
0.000193587
0.000535514
0.000257818
0.00048246
8.96153e-05
0.00107972
9.11162e-05
1.07811e-05
0.00075994
-3.89488e-05
-1.07818e-05
0.000806802
-4.05179e-05
-8.96157e-05
0.000759939
-3.89518e-05
0.00107972
9.11138e-05
0.000117156
0.00100155
8.46354e-05
1.86208e-05
0.000837949
-3.24932e-05
-1.86224e-05
0.000831023
-3.55212e-05
-0.000117157
0.000837947
-3.24961e-05
0.00100155
8.46332e-05
7.37789e-05
0.000966531
8.09052e-05
2.07868e-05
0.000870401
-3.11764e-05
-2.07898e-05
0.000857917
-3.71419e-05
-7.3781e-05
0.000870398
-3.11789e-05
0.00096653
8.0904e-05
5.38531e-05
0.000950334
7.58631e-05
1.77332e-05
0.000885536
-3.2532e-05
-1.77368e-05
0.000877271
-3.97363e-05
-5.38559e-05
0.000885531
-3.25338e-05
0.000950329
7.5864e-05
4.50491e-05
0.000941538
6.9791e-05
1.45717e-05
0.0008948
-3.49658e-05
-1.45758e-05
0.000889927
-4.23786e-05
-4.50532e-05
0.000894794
-3.49662e-05
0.000941527
6.97953e-05
3.9973e-05
0.000936499
6.34558e-05
1.24207e-05
0.000901205
-3.78427e-05
-1.2425e-05
0.000898424
-4.50581e-05
-3.99798e-05
0.000901199
-3.78412e-05
0.000936482
6.34662e-05
3.66976e-05
0.000933637
5.73878e-05
1.10078e-05
0.000906051
-4.07621e-05
-1.10122e-05
0.000904484
-4.7674e-05
-3.67099e-05
0.000906046
-4.07584e-05
0.000933619
5.74089e-05
3.44165e-05
0.000932155
5.17761e-05
1.00586e-05
0.000910044
-4.34763e-05
-1.00643e-05
0.000909172
-5.00798e-05
-3.44347e-05
0.000910041
-4.34695e-05
0.000932141
5.18101e-05
3.27031e-05
0.000931634
4.66913e-05
9.38513e-06
0.000913584
-4.58703e-05
-9.39421e-06
0.000913115
-5.21955e-05
-3.27271e-05
0.000913586
-4.58599e-05
0.000931629
4.67371e-05
3.13105e-05
0.000931823
4.2143e-05
8.87363e-06
0.000916898
-4.78749e-05
-8.88902e-06
0.000916671
-5.39517e-05
-3.13459e-05
0.00091691
-4.78623e-05
0.000931837
4.22004e-05
3.01298e-05
0.00093255
3.814e-05
8.46204e-06
0.000920113
-4.94638e-05
-8.48508e-06
0.00092003
-5.53212e-05
-3.0182e-05
0.000920133
-4.94532e-05
0.000932603
3.82028e-05
2.91092e-05
0.000933705
3.47187e-05
8.11458e-06
0.000923275
-5.06099e-05
-8.14692e-06
0.000923275
-5.62785e-05
-2.91621e-05
0.0009233
-5.06049e-05
0.000933781
3.47591e-05
2.81749e-05
0.000935176
3.18814e-05
7.80689e-06
0.000926382
-5.12316e-05
-7.84814e-06
0.000926426
-5.67297e-05
-2.8216e-05
0.000926403
-5.12338e-05
0.00093524
3.18816e-05
2.73287e-05
0.000936816
2.97091e-05
7.53656e-06
0.000929399
-5.13125e-05
-7.58389e-06
0.00092947
-5.66551e-05
-2.73611e-05
0.00092941
-5.13214e-05
0.000936851
2.96783e-05
2.65234e-05
0.000938482
2.82453e-05
7.28228e-06
0.000932259
-5.06947e-05
-7.33283e-06
0.000932339
-5.58905e-05
-2.65479e-05
0.000932256
-5.07081e-05
0.000938471
2.81949e-05
2.57679e-05
0.000940033
2.76321e-05
7.05051e-06
0.000934858
-4.93187e-05
-7.09956e-06
0.000934932
-5.43793e-05
-2.57964e-05
0.000934838
-4.93357e-05
0.000939975