/*--------------------------------*- C++ -*----------------------------------*\
  =========                 |
  \\      /  F ield         | OpenFOAM: The Open Source CFD Toolbox
   \\    /   O peration     | Website:  https://openfoam.org
    \\  /    A nd           | Version:  9
     \\/     M anipulation  |
\*---------------------------------------------------------------------------*/
FoamFile
{
    format      ascii;
    class       volVectorField;
    location    "2";
    object      U;
}
// * * * * * * * * * * * * * * * * * * * * * * * * * * * * * * * * * * * * * //

dimensions      [0 1 -1 0 0 0 0];

internalField   nonuniform List<vector> 
4545
(
(0.204551 -0.778958 -2.35268)
(-0.150915 -0.198736 -0.00875185)
(0.0131152 -0.241984 -7.48517e-08)
(-0.150915 -0.198729 0.00875143)
(0.204545 -0.778945 2.35269)
(0.143273 -0.642037 -2.24075)
(-0.122259 -0.309339 -0.0105402)
(0.0229226 -0.276631 -2.08315e-07)
(-0.12226 -0.309335 0.0105396)
(0.143268 -0.642028 2.24076)
(0.129461 -0.545286 -2.2772)
(-0.125551 -0.335848 -0.0157129)
(0.0139306 -0.292271 -1.01458e-07)
(-0.125553 -0.335845 0.0157124)
(0.129455 -0.545283 2.2772)
(0.127478 -0.505566 -2.26118)
(-0.126557 -0.35939 -0.0219471)
(0.00814247 -0.317341 7.68595e-07)
(-0.126559 -0.359391 0.0219478)
(0.127474 -0.505566 2.26118)
(0.12353 -0.474233 -2.24915)
(-0.126211 -0.375004 -0.0267029)
(0.00648759 -0.340092 3.30725e-06)
(-0.126213 -0.375011 0.0267071)
(0.123527 -0.47424 2.24915)
(0.119959 -0.451474 -2.23976)
(-0.125972 -0.384372 -0.0299925)
(0.00621118 -0.357863 7.10498e-06)
(-0.125977 -0.38439 0.0300072)
(0.119957 -0.451485 2.23974)
(0.117334 -0.436689 -2.23209)
(-0.125839 -0.390773 -0.0322241)
(0.0064936 -0.371512 5.08623e-06)
(-0.125837 -0.390787 0.0322689)
(0.117334 -0.436793 2.23202)
(0.115318 -0.427467 -2.22562)
(-0.125689 -0.395653 -0.0337316)
(0.00680769 -0.381961 -1.48122e-05)
(-0.12567 -0.395639 0.0338606)
(0.115237 -0.427517 2.20764)
(0.113679 -0.421986 -2.22004)
(-0.125475 -0.399736 -0.0346989)
(0.00697127 -0.390103 3.20401e-06)
(-0.125468 -0.399718 0.0348312)
(0.113615 -0.422102 2.2018)
(0.112244 -0.419042 -2.20982)
(-0.125177 -0.403374 -0.0353223)
(0.00701451 -0.396676 -1.67007e-05)
(-0.12515 -0.403422 0.0355687)
(0.112118 -0.41899 2.1757)
(0.110953 -0.417903 -2.20539)
(-0.124835 -0.406861 -0.0356649)
(0.00698141 -0.402244 -0.000111961)
(-0.124688 -0.40699 0.0361653)
(0.110772 -0.417543 2.1321)
(0.109633 -0.417878 -2.16621)
(-0.124331 -0.410411 -0.0359703)
(0.00689211 -0.407168 -1.99413e-05)
(-0.124228 -0.410406 0.0362629)
(0.109683 -0.417367 2.1658)
(0.108342 -0.418457 -2.12181)
(-0.123679 -0.413989 -0.0362659)
(0.00678687 -0.411736 5.43371e-05)
(-0.123678 -0.413808 0.0363282)
(0.108488 -0.418335 2.16119)
(0.107256 -0.419728 -2.14243)
(-0.123059 -0.417522 -0.0362378)
(0.00668247 -0.416098 -4.33767e-05)
(-0.122991 -0.417358 0.0364116)
(0.10726 -0.419679 2.11647)
(0.106111 -0.421619 -2.13754)
(-0.122311 -0.421023 -0.0361591)
(0.00661509 -0.420215 4.1468e-05)
(-0.122317 -0.420972 0.0361346)
(0.106251 -0.421433 2.15268)
(0.104954 -0.423683 -2.10613)
(-0.121408 -0.424515 -0.0361856)
(0.00661336 -0.424148 6.71239e-05)
(-0.121446 -0.424589 0.0360768)
(0.105143 -0.423613 2.14811)
(0.103943 -0.425838 -2.11649)
(-0.12043 -0.427973 -0.0360291)
(0.00668293 -0.427997 -7.72678e-05)
(-0.120337 -0.428066 0.036185)
(0.103939 -0.425811 2.10075)
(0.10291 -0.427973 -2.11155)
(-0.119277 -0.431294 -0.0357881)
(0.00684347 -0.431662 1.88773e-05)
(-0.119287 -0.431316 0.0358078)
(0.103036 -0.428039 2.13953)
(0.101901 -0.429884 -2.0907)
(-0.117958 -0.434316 -0.0356372)
(0.00717823 -0.435013 7.94086e-05)
(-0.118031 -0.434432 0.0355956)
(0.102123 -0.430135 2.13518)
(0.101116 -0.431446 -2.10786)
(-0.116528 -0.436957 -0.0353497)
(0.00770925 -0.437987 -5.5084e-05)
(-0.11642 -0.437202 0.0355868)
(0.10118 -0.4316 2.08532)
(0.100372 -0.432607 -2.10331)
(-0.114842 -0.439075 -0.0350413)
(0.00844889 -0.440402 -1.75009e-05)
(-0.114727 -0.439282 0.0352295)
(0.100546 -0.432648 2.1268)
(0.0997535 -0.432953 -2.07603)
(-0.112896 -0.440459 -0.0348157)
(0.0094525 -0.442055 2.64028e-05)
(-0.112822 -0.440497 0.0348785)
(0.100005 -0.433199 2.12872)
(0.0994307 -0.432343 -2.08888)
(-0.110756 -0.44093 -0.034411)
(0.010742 -0.442736 3.51325e-05)
(-0.110721 -0.4408 0.034397)
(0.0996642 -0.432785 2.12515)
(0.0992919 -0.430594 -2.08501)
(-0.108278 -0.440283 -0.0340053)
(0.0123536 -0.442252 5.91809e-05)
(-0.108297 -0.440273 0.0339517)
(0.0995532 -0.430915 2.11602)
(0.0993956 -0.427305 -2.07405)
(-0.105463 -0.438355 -0.0337109)
(0.0142587 -0.440616 -2.88266e-05)
(-0.105311 -0.438473 0.0338184)
(0.0995506 -0.427509 2.06347)
(0.0998076 -0.422376 -2.07089)
(-0.102357 -0.434805 -0.0334033)
(0.0161465 -0.437585 2.50099e-05)
(-0.102219 -0.434773 0.0333754)
(0.100064 -0.422349 2.10898)
(0.100641 -0.415659 -2.10655)
(-0.0990046 -0.429404 -0.0328464)
(0.0179581 -0.432771 -7.81873e-06)
(-0.0989231 -0.429355 0.0329762)
(0.100797 -0.415283 2.10724)
(0.101688 -0.406782 -2.10562)
(-0.0953038 -0.421955 -0.0323598)
(0.0193945 -0.425979 -6.75629e-05)
(-0.0952083 -0.422043 0.0326816)
(0.101661 -0.406453 2.06495)
(0.102918 -0.395055 -2.05492)
(-0.0912428 -0.412251 -0.0319591)
(0.0215821 -0.417044 2.93353e-05)
(-0.091227 -0.412332 0.0319893)
(0.103137 -0.394524 2.11236)
(0.104542 -0.380237 -2.05516)
(-0.0869948 -0.400427 -0.0313148)
(0.0243943 -0.405764 2.4252e-05)
(-0.0868969 -0.400385 0.0312512)
(0.104857 -0.380655 2.14119)
(0.106447 -0.364062 -2.10163)
(-0.0822191 -0.386272 -0.0305648)
(0.0276192 -0.392028 3.11129e-05)
(-0.0821882 -0.385843 0.0305406)
(0.1068 -0.363337 2.13978)
(0.108925 -0.342832 -2.15049)
(-0.0771298 -0.368999 -0.0297518)
(0.0312059 -0.37584 1.71084e-05)
(-0.0771812 -0.368921 0.0297921)
(0.108934 -0.343583 2.15037)
(0.111183 -0.32025 -2.12266)
(-0.0718339 -0.349428 -0.0291339)
(0.0351215 -0.357217 1.48727e-05)
(-0.0718236 -0.349365 0.0290637)
(0.1113 -0.32032 2.14988)
(0.113648 -0.29396 -2.12195)
(-0.0662378 -0.327316 -0.0284259)
(0.0393059 -0.3362 3.15819e-05)
(-0.0662562 -0.327212 0.028293)
(0.113809 -0.29397 2.1498)
(0.116291 -0.264114 -2.15016)
(-0.0605896 -0.302626 -0.0274966)
(0.0436635 -0.312835 4.84586e-06)
(-0.0605865 -0.302615 0.0274624)
(0.11633 -0.264293 2.1502)
(0.118703 -0.23168 -2.15111)
(-0.0549501 -0.275784 -0.0265687)
(0.0481746 -0.287156 -4.48825e-06)
(-0.0549454 -0.275796 0.0265497)
(0.118715 -0.231762 2.15114)
(0.120782 -0.196316 -2.1526)
(-0.0494285 -0.247083 -0.0255903)
(0.0527045 -0.259282 -5.39727e-06)
(-0.0494242 -0.247104 0.0255763)
(0.120787 -0.196362 2.15262)
(0.121706 -0.158505 -2.1547)
(-0.0437117 -0.217024 -0.0245813)
(0.0575339 -0.229363 -5.16567e-06)
(-0.0437074 -0.217044 0.0245711)
(0.12171 -0.158535 2.15472)
(0.118485 -0.119771 -2.15397)
(-0.0354108 -0.185374 -0.0235389)
(0.0634357 -0.197069 -4.49876e-06)
(-0.0354068 -0.185391 0.0235312)
(0.118488 -0.119793 2.15398)
(0.123294 -0.60887 -1.90851)
(-0.0890073 -0.306502 0.0119797)
(-0.0294339 -0.34626 -8.79141e-08)
(-0.0890073 -0.3065 -0.0119796)
(0.123291 -0.60887 1.90853)
(0.120143 -0.524343 -1.72236)
(-0.0845401 -0.383509 0.0155338)
(-0.0259232 -0.369437 -1.79609e-07)
(-0.0845414 -0.383507 -0.0155339)
(0.120138 -0.524343 1.72237)
(0.127317 -0.491657 -1.69315)
(-0.0891135 -0.396135 0.00935588)
(-0.0318998 -0.377148 -1.14233e-07)
(-0.0891155 -0.396133 -0.00935605)
(0.127312 -0.491656 1.69315)
(0.1278 -0.470695 -1.65128)
(-0.0920663 -0.406724 0.00493144)
(-0.036591 -0.390204 2.88329e-07)
(-0.0920685 -0.406724 -0.00493114)
(0.127796 -0.470694 1.65128)
(0.12618 -0.455303 -1.61831)
(-0.0938492 -0.411959 0.00221387)
(-0.0389024 -0.399648 1.26567e-06)
(-0.0938532 -0.41196 -0.00221231)
(0.126177 -0.455305 1.61831)
(0.124159 -0.445312 -1.59081)
(-0.0952625 -0.41495 0.000426421)
(-0.0401743 -0.406324 2.68138e-06)
(-0.0952768 -0.414954 -0.000422187)
(0.124159 -0.445318 1.5908)
(0.122224 -0.438989 -1.56732)
(-0.0963828 -0.417167 -0.000725963)
(-0.0410139 -0.41128 2.66605e-06)
(-0.0964963 -0.417168 0.000733749)
(0.122341 -0.438999 1.5673)
(0.120525 -0.435134 -1.54682)
(-0.0972791 -0.419135 -0.0014698)
(-0.0416145 -0.415122 2.55587e-07)
(-0.0974648 -0.419132 0.00147677)
(0.120715 -0.435132 1.5468)
(0.11895 -0.433011 -1.52864)
(-0.0978879 -0.421088 -0.00195112)
(-0.0420623 -0.41834 2.13526e-06)
(-0.0978831 -0.421084 0.00195863)
(0.118951 -0.433005 1.52864)
(0.117345 -0.432123 -1.51223)
(-0.0981646 -0.423132 -0.00226359)
(-0.0423878 -0.421249 -6.54107e-07)
(-0.0983079 -0.423125 0.00226948)
(0.117507 -0.432113 1.51221)
(0.115347 -0.432152 -1.49723)
(-0.0978559 -0.425314 -0.00246783)
(-0.0426356 -0.424034 -1.22066e-05)
(-0.0990559 -0.42532 0.00246661)
(0.116687 -0.43214 1.49715)
(0.114017 -0.432856 -1.48342)
(-0.0978914 -0.427643 -0.00259057)
(-0.0429185 -0.426776 1.80052e-06)
(-0.0993036 -0.427642 0.00260981)
(0.115608 -0.432817 1.48324)
(0.113442 -0.434023 -1.47038)
(-0.0983899 -0.430119 -0.00267261)
(-0.0431397 -0.429524 1.19199e-05)
(-0.0992168 -0.430076 0.00269317)
(0.114287 -0.433955 1.47018)
(0.112426 -0.435528 -1.45827)
(-0.0983325 -0.432661 -0.00274011)
(-0.0431721 -0.432283 -2.83875e-06)
(-0.099159 -0.432618 0.00272474)
(0.113186 -0.435468 1.45809)
(0.111636 -0.437239 -1.44647)
(-0.0982702 -0.435202 -0.00276805)
(-0.0430894 -0.435006 4.96926e-06)
(-0.0984951 -0.435194 0.00275276)
(0.111739 -0.437228 1.4463)
(0.111191 -0.439027 -1.43528)
(-0.098263 -0.437734 -0.00277905)
(-0.0429735 -0.437657 7.16532e-06)
(-0.0984941 -0.437734 0.00277141)
(0.111307 -0.439051 1.43505)
(0.11052 -0.44081 -1.42464)
(-0.0976998 -0.440156 -0.00279439)
(-0.0427484 -0.440176 -9.30482e-06)
(-0.0991055 -0.44017 0.00277594)
(0.111917 -0.440829 1.42434)
(0.110323 -0.442439 -1.4143)
(-0.0971252 -0.442347 -0.00278847)
(-0.0422621 -0.442455 4.0144e-06)
(-0.0980783 -0.442376 0.0027846)
(0.111235 -0.442444 1.41402)
(0.110519 -0.443766 -1.40437)
(-0.0964882 -0.444212 -0.00277807)
(-0.0414477 -0.444387 1.31289e-05)
(-0.0970061 -0.444234 0.00278142)
(0.111019 -0.443779 1.40416)
(0.110429 -0.444641 -1.39466)
(-0.0950502 -0.445615 -0.00277455)
(-0.0403283 -0.44586 -2.26711e-06)
(-0.0966229 -0.445653 0.00276726)
(0.112257 -0.444688 1.39451)
(0.11084 -0.444907 -1.38534)
(-0.0933434 -0.446408 -0.00275503)
(-0.0387778 -0.446724 1.99061e-06)
(-0.0952094 -0.446456 0.00276868)
(0.113133 -0.444954 1.38521)
(0.111776 -0.444395 -1.37642)
(-0.0913338 -0.446443 -0.00272635)
(-0.0366549 -0.446818 8.48322e-06)
(-0.0930065 -0.446462 0.00275089)
(0.113905 -0.444398 1.37634)
(0.112775 -0.442921 -1.36787)
(-0.0884688 -0.445539 -0.00269876)
(-0.0339234 -0.445973 9.51943e-06)
(-0.0895584 -0.445534 0.00271316)
(0.114286 -0.442894 1.36791)
(0.114565 -0.440288 -1.35977)
(-0.085283 -0.443507 -0.00266398)
(-0.0307778 -0.443995 9.87412e-06)
(-0.0855816 -0.443501 0.00267175)
(0.115243 -0.440279 1.35995)
(0.11721 -0.436305 -1.35214)
(-0.0818086 -0.440174 -0.00263644)
(-0.0272814 -0.440665 -3.05112e-06)
(-0.0828293 -0.44018 0.00263764)
(0.118832 -0.436337 1.3524)
(0.120942 -0.430788 -1.34502)
(-0.0781452 -0.435376 -0.00263849)
(-0.023149 -0.435833 -2.76614e-07)
(-0.0790029 -0.435375 0.0026521)
(0.122454 -0.430804 1.34524)
(0.12479 -0.42354 -1.33854)
(-0.0732952 -0.428939 -0.00265531)
(-0.0183128 -0.429364 -1.24715e-07)
(-0.0742397 -0.428929 0.00266413)
(0.126145 -0.423535 1.33862)
(0.129557 -0.414414 -1.33274)
(-0.0681199 -0.420757 -0.00269681)
(-0.0131474 -0.421358 -2.60689e-07)
(-0.0696233 -0.420769 0.00270513)
(0.131306 -0.414444 1.33264)
(0.134737 -0.403262 -1.32757)
(-0.0624814 -0.410754 -0.00264175)
(-0.00749395 -0.411676 1.1644e-05)
(-0.063903 -0.410757 0.00267386)
(0.136417 -0.403286 1.32732)
(0.139264 -0.390023 -1.32308)
(-0.0553495 -0.398788 -0.00257281)
(-0.00108201 -0.399959 9.83524e-06)
(-0.0574123 -0.398772 0.00260632)
(0.141777 -0.390029 1.32276)
(0.146077 -0.374635 -1.31921)
(-0.0491417 -0.384783 -0.00250505)
(0.00577851 -0.386215 9.28721e-06)
(-0.0501748 -0.384743 0.00251839)
(0.14731 -0.37453 1.31899)
(0.152962 -0.356831 -1.31612)
(-0.0422299 -0.368713 -0.00240984)
(0.0130918 -0.370496 8.07526e-06)
(-0.0426593 -0.3687 0.00241311)
(0.153349 -0.356847 1.31599)
(0.159504 -0.336904 -1.31388)
(-0.0346783 -0.350685 -0.00228024)
(0.0207662 -0.352862 3.96877e-06)
(-0.0351209 -0.350677 0.0022816)
(0.160022 -0.336909 1.31382)
(0.166783 -0.314805 -1.31248)
(-0.0275062 -0.330788 -0.00212723)
(0.0286283 -0.333414 2.35046e-06)
(-0.0274588 -0.330782 0.00212321)
(0.166781 -0.314814 1.31248)
(0.173289 -0.290666 -1.31201)
(-0.0198108 -0.309167 -0.00194546)
(0.0366244 -0.312294 -1.13626e-06)
(-0.0198106 -0.309169 0.00193709)
(0.173311 -0.290693 1.31204)
(0.179145 -0.264743 -1.31254)
(-0.0122138 -0.286028 -0.00173646)
(0.0445829 -0.289695 -2.67064e-06)
(-0.0122103 -0.286037 0.00172842)
(0.179158 -0.264774 1.31257)
(0.18408 -0.237268 -1.31408)
(-0.00500034 -0.261653 -0.00151865)
(0.0523846 -0.26585 -2.9174e-06)
(-0.00499552 -0.261665 0.00151189)
(0.184089 -0.237296 1.3141)
(0.187303 -0.208686 -1.31671)
(0.00183413 -0.236289 -0.00130097)
(0.0601018 -0.241014 -2.7092e-06)
(0.00183901 -0.2363 0.0012955)
(0.18731 -0.208708 1.31673)
(0.187441 -0.179792 -1.3027)
(0.0087533 -0.209784 -0.00102941)
(0.0679562 -0.215364 -2.34294e-06)
(0.00875808 -0.209794 0.0010251)
(0.187446 -0.179809 1.30272)
(0.0849656 -0.559182 -1.67931)
(-0.0485252 -0.32527 0.0172059)
(-0.0274231 -0.375856 -1.25106e-07)
(-0.0485261 -0.32527 -0.0172059)
(0.0849629 -0.559185 1.67933)
(0.0796559 -0.489608 -1.47531)
(-0.0434562 -0.393295 0.0241762)
(-0.0228243 -0.391787 -2.35296e-07)
(-0.0434576 -0.393295 -0.0241765)
(0.0796525 -0.489611 1.47532)
(0.0797287 -0.473271 -1.42182)
(-0.0449768 -0.405735 0.0189823)
(-0.0257067 -0.397045 -2.65947e-07)
(-0.0449786 -0.405733 -0.0189827)
(0.0797252 -0.473271 1.42183)
(0.0782117 -0.46017 -1.36772)
(-0.0472769 -0.415339 0.0155714)
(-0.0291094 -0.407511 -1.38316e-07)
(-0.0472789 -0.415337 -0.0155717)
(0.0782084 -0.460167 1.36773)
(0.0757863 -0.450652 -1.32531)
(-0.0492878 -0.420042 0.0136902)
(-0.0313982 -0.41451 2.14548e-07)
(-0.0492905 -0.420041 -0.0136905)
(0.0757827 -0.450645 1.32532)
(0.0732619 -0.444825 -1.29036)
(-0.0510821 -0.422782 0.0125045)
(-0.0331009 -0.419144 1.35302e-06)
(-0.0510874 -0.422783 -0.0125054)
(0.0732574 -0.444808 1.29036)
(0.0709733 -0.441243 -1.26082)
(-0.0526429 -0.424764 0.0117376)
(-0.0345145 -0.422435 4.66559e-06)
(-0.0526575 -0.424767 -0.011742)
(0.0709813 -0.441216 1.26083)
(0.0689676 -0.439117 -1.23537)
(-0.0539701 -0.426458 0.0112361)
(-0.0357077 -0.424977 6.04462e-06)
(-0.0539898 -0.426453 -0.0112429)
(0.0689932 -0.439095 1.23537)
(0.0672168 -0.438043 -1.21309)
(-0.0550798 -0.428093 0.0108872)
(-0.0367131 -0.427161 -1.02922e-06)
(-0.0550918 -0.428091 -0.0108875)
(0.0672505 -0.43801 1.21311)
(0.0656617 -0.437749 -1.19324)
(-0.0559826 -0.429782 0.0106294)
(-0.0375524 -0.429218 5.09529e-06)
(-0.0560013 -0.429808 -0.0106504)
(0.065721 -0.437674 1.19327)
(0.0642541 -0.437989 -1.17537)
(-0.0566896 -0.431598 0.0104171)
(-0.0382474 -0.431267 3.69942e-05)
(-0.0567613 -0.431629 -0.0104985)
(0.064391 -0.437951 1.17542)
(0.0630804 -0.438638 -1.15918)
(-0.0572783 -0.433542 0.0102625)
(-0.0388244 -0.433345 4.58253e-05)
(-0.0573669 -0.433538 -0.0103624)
(0.063182 -0.438704 1.15922)
(0.0620891 -0.439668 -1.14419)
(-0.0577329 -0.435548 0.0101664)
(-0.0392549 -0.435442 2.87258e-05)
(-0.05779 -0.43553 -0.0102459)
(0.062088 -0.439755 1.1442)
(0.0611826 -0.44095 -1.13045)
(-0.0579973 -0.437591 0.0100747)
(-0.0395067 -0.43755 2.19399e-05)
(-0.0580376 -0.437568 -0.0101523)
(0.0611633 -0.441021 1.13044)
(0.0604601 -0.442329 -1.11735)
(-0.0580596 -0.439647 0.00999245)
(-0.0395601 -0.43966 3.37656e-06)
(-0.0580694 -0.439636 -0.0100477)
(0.0603854 -0.442359 1.11733)
(0.0599794 -0.443731 -1.10512)
(-0.0578775 -0.441637 0.00994227)
(-0.0393879 -0.4417 3.63381e-06)
(-0.057907 -0.441668 -0.00999612)
(0.0598963 -0.443657 1.10508)
(0.059756 -0.445052 -1.09362)
(-0.0573926 -0.443474 0.00988383)
(-0.0389363 -0.443545 3.55184e-05)
(-0.057493 -0.443486 -0.00998172)
(0.059755 -0.444972 1.09358)
(0.0599023 -0.446171 -1.08265)
(-0.0565753 -0.445067 0.00981295)
(-0.0381264 -0.445124 2.62805e-05)
(-0.0566624 -0.445034 -0.00989918)
(0.0598703 -0.446123 1.08262)
(0.0604366 -0.447011 -1.07227)
(-0.0553327 -0.446288 0.00976057)
(-0.0368751 -0.446357 1.77451e-05)
(-0.0553948 -0.446283 -0.00984068)
(0.0604063 -0.446873 1.07229)
(0.0613916 -0.447396 -1.06227)
(-0.0535615 -0.447032 0.00969632)
(-0.035117 -0.447103 4.54543e-05)
(-0.0536705 -0.44705 -0.00982176)
(0.0615095 -0.447219 1.06235)
(0.0629322 -0.44715 -1.0528)
(-0.0512192 -0.447183 0.00962256)
(-0.0327692 -0.447232 5.77195e-05)
(-0.0513497 -0.447173 -0.00976606)
(0.0631122 -0.447053 1.05293)
(0.0651157 -0.446164 -1.04381)
(-0.0482174 -0.446589 0.00955463)
(-0.0297428 -0.446627 5.19274e-05)
(-0.0483392 -0.446549 -0.00968315)
(0.0652974 -0.446143 1.04396)
(0.0679916 -0.444261 -1.03528)
(-0.0444811 -0.445138 0.00946717)
(-0.025979 -0.445187 3.10902e-05)
(-0.0445644 -0.445083 -0.00955908)
(0.0681615 -0.444268 1.03545)
(0.0716943 -0.441261 -1.02725)
(-0.0399902 -0.442699 0.00938828)
(-0.0214531 -0.442794 1.15965e-05)
(-0.0400216 -0.442685 -0.00945118)
(0.0718576 -0.441215 1.02747)
(0.0762619 -0.437043 -1.01977)
(-0.0346924 -0.439098 0.00935331)
(-0.0161278 -0.439246 2.7121e-05)
(-0.034749 -0.43912 -0.0094328)
(0.0765252 -0.436989 1.02001)
(0.0817261 -0.431504 -1.01283)
(-0.0285582 -0.434172 0.00935264)
(-0.00993255 -0.43437 2.36327e-05)
(-0.0286272 -0.434197 -0.00942126)
(0.0819954 -0.431513 1.01306)
(0.0880748 -0.424492 -1.0065)
(-0.0215599 -0.427796 0.00935311)
(-0.00285603 -0.427988 3.11379e-05)
(-0.0216442 -0.427838 -0.00942847)
(0.0882773 -0.424529 1.00668)
(0.0953367 -0.415871 -1.00078)
(-0.0137349 -0.419787 0.00933072)
(0.00513182 -0.419923 5.2024e-05)
(-0.0138483 -0.419831 -0.00943391)
(0.0954819 -0.415935 1.00091)
(0.103398 -0.405614 -0.995747)
(-0.00505203 -0.410166 0.0092501)
(0.0138891 -0.410306 5.46983e-05)
(-0.0051814 -0.410203 -0.00935693)
(0.103491 -0.40569 0.995832)
(0.112079 -0.393581 -0.991393)
(0.00437022 -0.399059 0.00915777)
(0.023372 -0.399263 6.38121e-05)
(0.00421192 -0.399057 -0.0092761)
(0.112196 -0.393714 0.991455)
(0.121448 -0.37974 -0.987768)
(0.0143122 -0.386337 0.00913895)
(0.0334588 -0.386656 3.57728e-05)
(0.014208 -0.386295 -0.00922028)
(0.121496 -0.379929 0.987813)
(0.131263 -0.364179 -0.984942)
(0.0247028 -0.371947 0.00914267)
(0.0440171 -0.372438 1.72775e-05)
(0.0246456 -0.371924 -0.00919511)
(0.131245 -0.364336 0.984974)
(0.141273 -0.346911 -0.982991)
(0.0353756 -0.356014 0.00916339)
(0.0548776 -0.356693 1.02424e-05)
(0.0353347 -0.356003 -0.0092024)
(0.14127 -0.347021 0.983025)
(0.15128 -0.328034 -0.98198)
(0.0460766 -0.33865 0.00922067)
(0.0658349 -0.339545 -4.11933e-06)
(0.0460642 -0.338647 -0.0092366)
(0.151273 -0.328112 0.982016)
(0.160912 -0.307691 -0.982022)
(0.0565868 -0.32001 0.00928135)
(0.0766716 -0.321169 -4.24923e-06)
(0.0565839 -0.320022 -0.00929247)
(0.160914 -0.307736 0.982056)
(0.169796 -0.285997 -0.983252)
(0.0666163 -0.300333 0.0093527)
(0.0871571 -0.301809 -3.74362e-06)
(0.0666183 -0.300347 -0.0093608)
(0.169803 -0.286029 0.983283)
(0.177431 -0.263065 -0.985834)
(0.0758917 -0.279915 0.00943347)
(0.0971004 -0.281779 -3.19131e-06)
(0.0758957 -0.279927 -0.00943943)
(0.177439 -0.26309 0.985861)
(0.183052 -0.239124 -0.990071)
(0.0842706 -0.259037 0.00957013)
(0.10641 -0.261439 -2.55337e-06)
(0.0842755 -0.259048 -0.00957457)
(0.18306 -0.239143 0.990095)
(0.185522 -0.214876 -0.979881)
(0.0919084 -0.237503 0.00986201)
(0.115003 -0.240912 -2.00375e-06)
(0.0919137 -0.237512 -0.00986527)
(0.18553 -0.214891 0.979903)
(0.0621905 -0.547653 -1.53921)
(-0.0308085 -0.327986 0.0159201)
(-0.0254158 -0.3777 -1.05165e-07)
(-0.0308097 -0.327986 -0.0159202)
(0.0621887 -0.547656 1.53923)
(0.0588081 -0.479092 -1.33641)
(-0.027076 -0.394203 0.0224807)
(-0.0222222 -0.395141 -2.73216e-07)
(-0.0270774 -0.394202 -0.0224811)
(0.0588061 -0.479095 1.33642)
(0.0579965 -0.466472 -1.27567)
(-0.0272642 -0.407361 0.0171524)
(-0.0240397 -0.401414 -3.96746e-07)
(-0.0272657 -0.40736 -0.017153)
(0.0579947 -0.466472 1.27568)
(0.0561988 -0.456344 -1.2175)
(-0.0287259 -0.417222 0.0138755)
(-0.0265199 -0.411917 -4.19553e-07)
(-0.0287273 -0.41722 -0.0138763)
(0.0561977 -0.456342 1.21751)
(0.0537393 -0.449382 -1.17158)
(-0.0304547 -0.42243 0.0121773)
(-0.028493 -0.418934 -3.67864e-07)
(-0.030456 -0.422427 -0.0121783)
(0.0537396 -0.449376 1.17159)
(0.0511644 -0.445364 -1.13379)
(-0.0322297 -0.425639 0.0111502)
(-0.0302069 -0.423502 -9.60031e-08)
(-0.0322316 -0.425636 -0.0111518)
(0.0511686 -0.445352 1.13379)
(0.0487444 -0.442987 -1.10197)
(-0.0339154 -0.42794 0.0104961)
(-0.0317668 -0.426668 7.29982e-07)
(-0.0339209 -0.427937 -0.0104996)
(0.0487616 -0.442969 1.10197)
(0.04656 -0.44162 -1.07469)
(-0.0354462 -0.429804 0.0100674)
(-0.0331756 -0.429059 1.12761e-06)
(-0.0354533 -0.4298 -0.0100728)
(0.046593 -0.441603 1.07469)
(0.0446122 -0.440967 -1.05097)
(-0.0367995 -0.431484 0.00977069)
(-0.0344261 -0.431059 -8.64384e-08)
(-0.0368021 -0.431482 -0.00977744)
(0.0446554 -0.440949 1.05098)
(0.042876 -0.440847 -1.03001)
(-0.0379676 -0.433116 0.00955085)
(-0.0355217 -0.432885 -6.5486e-07)
(-0.0379726 -0.433121 -0.00956539)
(0.0429445 -0.440826 1.03003)
(0.0413367 -0.441118 -1.01129)
(-0.0389559 -0.434764 0.00937783)
(-0.0364663 -0.434655 1.44162e-06)
(-0.0389843 -0.434775 -0.00940806)
(0.0414546 -0.441124 1.01133)
(0.0400425 -0.441695 -0.994424)
(-0.0397899 -0.43645 0.0092436)
(-0.0372594 -0.436413 -4.67578e-07)
(-0.0398229 -0.436458 -0.00927924)
(0.0401402 -0.441748 0.994461)
(0.0389765 -0.442526 -0.978958)
(-0.0404416 -0.438164 0.00913579)
(-0.037874 -0.438165 -5.62794e-06)
(-0.0404625 -0.438171 -0.00916708)
(0.0390069 -0.44259 0.978987)
(0.0381093 -0.443531 -0.964887)
(-0.0408615 -0.439877 0.00903947)
(-0.0382678 -0.439902 -8.92681e-06)
(-0.0408793 -0.439881 -0.00906889)
(0.0381058 -0.443578 0.96491)
(0.0375092 -0.444601 -0.951625)
(-0.0410191 -0.44156 0.00895251)
(-0.0383983 -0.441601 -1.29303e-05)
(-0.041024 -0.441561 -0.00897726)
(0.0374636 -0.444615 0.951642)
(0.0372415 -0.445653 -0.939333)
(-0.0408585 -0.443159 0.00887598)
(-0.0382263 -0.443206 -1.17738e-05)
(-0.040875 -0.443161 -0.00890248)
(0.0371973 -0.445618 0.939345)
(0.0373612 -0.446608 -0.927844)
(-0.0403039 -0.444592 0.00880102)
(-0.0376731 -0.444632 -6.22674e-06)
(-0.0403522 -0.444581 -0.00883744)
(0.0373697 -0.446554 0.927858)
(0.037973 -0.447371 -0.91697)
(-0.0392861 -0.445779 0.00872619)
(-0.0366345 -0.445803 -7.31672e-06)
(-0.0393254 -0.44575 -0.00876238)
(0.037983 -0.447308 0.91699)
(0.0391436 -0.447846 -0.906757)
(-0.0377029 -0.446624 0.00865379)
(-0.0350264 -0.446635 -8.72406e-06)
(-0.0377262 -0.446594 -0.00869115)
(0.0391733 -0.447744 0.906792)
(0.0409463 -0.4479 -0.896983)
(-0.0354451 -0.447027 0.00857843)
(-0.0327534 -0.447026 -4.42107e-06)
(-0.0354849 -0.447 -0.00862705)
(0.041069 -0.447781 0.897044)
(0.0435179 -0.447399 -0.887763)
(-0.0324312 -0.446881 0.00850245)
(-0.0297076 -0.446864 -1.96457e-06)
(-0.0324746 -0.446853 -0.00855642)
(0.0436969 -0.447309 0.887845)
(0.0469496 -0.446226 -0.879039)
(-0.0285597 -0.44607 0.00842638)
(-0.0257939 -0.446042 -1.46148e-06)
(-0.028594 -0.44604 -0.00847739)
(0.0471435 -0.446172 0.879132)
(0.051321 -0.444245 -0.870775)
(-0.0237457 -0.444482 0.00834843)
(-0.0209327 -0.444457 -2.65231e-06)
(-0.0237604 -0.444455 -0.00839145)
(0.0515106 -0.444208 0.870874)
(0.0567366 -0.441323 -0.862996)
(-0.0179453 -0.441997 0.00827664)
(-0.0150829 -0.441987 -4.2168e-06)
(-0.0179365 -0.441985 -0.00831273)
(0.0569265 -0.441283 0.863103)
(0.0632506 -0.437344 -0.855719)
(-0.0111095 -0.438484 0.00821535)
(-0.00821492 -0.438488 -6.32414e-07)
(-0.0111111 -0.43849 -0.00825324)
(0.0634889 -0.43732 0.855835)
(0.0708899 -0.432201 -0.84895)
(-0.00320667 -0.433829 0.00815434)
(-0.000280239 -0.433853 1.40064e-06)
(-0.00321807 -0.433845 -0.00819153)
(0.0711376 -0.432221 0.849061)
(0.0796353 -0.425798 -0.84274)
(0.0057671 -0.427961 0.00808817)
(0.00872321 -0.428073 2.63656e-06)
(0.00574324 -0.427987 -0.00812521)
(0.0798588 -0.425853 0.842836)
(0.0894616 -0.41807 -0.837118)
(0.0157741 -0.420867 0.00807867)
(0.0188022 -0.421001 3.75729e-06)
(0.0157337 -0.420899 -0.00811811)
(0.0896578 -0.418143 0.837198)
(0.100269 -0.408923 -0.832011)
(0.0268027 -0.412394 0.00805582)
(0.0299272 -0.412495 4.2587e-06)
(0.0267514 -0.412428 -0.00809582)
(0.100436 -0.409003 0.832076)
(0.111897 -0.398255 -0.827585)
(0.0386864 -0.402464 0.00803148)
(0.0419228 -0.402615 5.0873e-06)
(0.0386232 -0.402491 -0.00807169)
(0.112052 -0.39835 0.827641)
(0.124244 -0.386072 -0.823872)
(0.0512131 -0.391159 0.00802858)
(0.0545933 -0.391397 1.14733e-06)
(0.0511698 -0.391177 -0.00806031)
(0.124343 -0.38618 0.823919)
(0.137059 -0.372416 -0.820933)
(0.0642029 -0.378516 0.00804536)
(0.0677445 -0.378871 -2.33283e-06)
(0.0641811 -0.378534 -0.0080684)
(0.137106 -0.372508 0.820972)
(0.150055 -0.357322 -0.818865)
(0.077417 -0.36461 0.00808345)
(0.0811423 -0.365111 -3.60636e-06)
(0.0774047 -0.364628 -0.00810125)
(0.150083 -0.357391 0.818902)
(0.162924 -0.340857 -0.81776)
(0.090557 -0.349547 0.00814998)
(0.0945142 -0.350233 -4.63534e-06)
(0.0905559 -0.349565 -0.00816226)
(0.162939 -0.340908 0.817794)
(0.175275 -0.323116 -0.81777)
(0.103312 -0.333468 0.00824581)
(0.107565 -0.334395 -4.2985e-06)
(0.103315 -0.333485 -0.00825476)
(0.175286 -0.323153 0.817802)
(0.18668 -0.304187 -0.819088)
(0.115329 -0.316549 0.00837324)
(0.11998 -0.317797 -3.65906e-06)
(0.115334 -0.316565 -0.00837993)
(0.186692 -0.304216 0.819118)
(0.196639 -0.284109 -0.821951)
(0.126251 -0.299042 0.00853122)
(0.131454 -0.300712 -2.94583e-06)
(0.126257 -0.299055 -0.00853621)
(0.19665 -0.284131 0.821979)
(0.204513 -0.263012 -0.826768)
(0.135783 -0.281166 0.00877466)
(0.141736 -0.283437 -2.26221e-06)
(0.135789 -0.281177 -0.0087783)
(0.204524 -0.263031 0.826795)
(0.209494 -0.241438 -0.819211)
(0.143773 -0.262666 0.00920267)
(0.150569 -0.266008 -1.68575e-06)
(0.14378 -0.262676 -0.00920525)
(0.209505 -0.241453 0.819236)
(0.0437665 -0.544406 -1.44485)
(-0.0191726 -0.329773 0.0143265)
(-0.0190176 -0.374866 -9.35206e-08)
(-0.0191739 -0.329773 -0.0143266)
(0.0437654 -0.544409 1.44486)
(0.0414857 -0.475759 -1.24696)
(-0.0164383 -0.394646 0.0201149)
(-0.0168418 -0.394543 -2.96909e-07)
(-0.0164396 -0.394646 -0.0201154)
(0.0414846 -0.475762 1.24697)
(0.0406385 -0.463863 -1.18459)
(-0.0161616 -0.407872 0.0142397)
(-0.0180939 -0.401847 -4.43792e-07)
(-0.0161628 -0.407871 -0.0142405)
(0.0406377 -0.463863 1.1846)
(0.0390563 -0.454762 -1.12555)
(-0.0171203 -0.417687 0.0108729)
(-0.0198237 -0.412842 -5.43924e-07)
(-0.0171211 -0.417685 -0.0108738)
(0.0390565 -0.454761 1.12555)
(0.0368795 -0.448916 -1.0785)
(-0.0185717 -0.423187 0.00923238)
(-0.0214516 -0.420223 -6.32128e-07)
(-0.0185721 -0.423185 -0.00923364)
(0.0368813 -0.448913 1.0785)
(0.0345186 -0.44576 -1.03964)
(-0.0202412 -0.426746 0.00828742)
(-0.0230736 -0.425036 -7.18996e-07)
(-0.0202408 -0.426743 -0.00828918)
(0.0345238 -0.445754 1.03964)
(0.0322128 -0.44399 -1.00692)
(-0.0219456 -0.429329 0.00770634)
(-0.0246743 -0.428359 -8.45864e-07)
(-0.0219448 -0.429326 -0.00770911)
(0.0322251 -0.443981 1.00692)
(0.0300603 -0.443009 -0.978911)
(-0.0235791 -0.431375 0.00733429)
(-0.0262038 -0.430831 -1.19493e-06)
(-0.0235773 -0.431373 -0.0073384)
(0.030081 -0.443001 0.978914)
(0.0280893 -0.442558 -0.954654)
(-0.0250882 -0.433134 0.00708213)
(-0.0276244 -0.432835 -1.93788e-06)
(-0.025084 -0.433133 -0.00708801)
(0.0281173 -0.442553 0.954661)
(0.0263151 -0.442499 -0.9333)
(-0.026447 -0.434744 0.00690023)
(-0.0289126 -0.43459 -3.14919e-06)
(-0.0264418 -0.434747 -0.0069093)
(0.0263539 -0.442499 0.933311)
(0.0247407 -0.442729 -0.91428)
(-0.027641 -0.436285 0.00676256)
(-0.0300504 -0.436219 -4.52274e-06)
(-0.0276393 -0.436293 -0.006776)
(0.0247917 -0.442745 0.914297)
(0.0233927 -0.443188 -0.897223)
(-0.0286493 -0.437798 0.00665537)
(-0.0310157 -0.437783 -6.04454e-06)
(-0.0286502 -0.437809 -0.00667064)
(0.0234317 -0.443221 0.897244)
(0.0222881 -0.443822 -0.881671)
(-0.0294403 -0.439291 0.00656697)
(-0.0317719 -0.439304 -7.51201e-06)
(-0.0294423 -0.439303 -0.00658177)
(0.0222974 -0.443858 0.88169)
(0.0214519 -0.444579 -0.867585)
(-0.0299674 -0.440751 0.00649148)
(-0.0322691 -0.44078 -8.66661e-06)
(-0.029972 -0.440759 -0.00650602)
(0.0214395 -0.444604 0.867603)
(0.020942 -0.445382 -0.85439)
(-0.0301711 -0.442155 0.00642533)
(-0.0324475 -0.442193 -9.4741e-06)
(-0.0301764 -0.442158 -0.00643933)
(0.0209129 -0.445389 0.854406)
(0.0208385 -0.446161 -0.842208)
(-0.0299823 -0.443468 0.00636638)
(-0.0322389 -0.443506 -9.4493e-06)
(-0.0299914 -0.443463 -0.00638122)
(0.0208087 -0.446144 0.842223)
(0.0212253 -0.446853 -0.83086)
(-0.0293128 -0.444626 0.00631118)
(-0.0315529 -0.444658 -9.13863e-06)
(-0.0293271 -0.444612 -0.00632833)
(0.021212 -0.446818 0.830878)
(0.0222037 -0.447378 -0.820162)
(-0.0280636 -0.445565 0.00625882)
(-0.0302829 -0.445589 -9.35553e-06)
(-0.0280733 -0.445541 -0.00627724)
(0.0222007 -0.447328 0.820183)
(0.0238763 -0.44765 -0.810144)
(-0.0261259 -0.446209 0.00620911)
(-0.0283205 -0.446227 -9.7504e-06)
(-0.0261275 -0.446179 -0.00622931)
(0.0238929 -0.447583 0.810172)
(0.0263506 -0.447567 -0.800583)
(-0.0233829 -0.446476 0.00616063)
(-0.0255521 -0.446488 -9.64088e-06)
(-0.0233804 -0.446445 -0.00618414)
(0.0264062 -0.447493 0.80062)
(0.0297506 -0.447023 -0.791573)
(-0.0197235 -0.446276 0.0061143)
(-0.0218627 -0.446285 -9.36046e-06)
(-0.0197159 -0.446248 -0.00613968)
(0.0298373 -0.446959 0.791619)
(0.0341885 -0.445916 -0.783046)
(-0.0150388 -0.445514 0.00607003)
(-0.0171429 -0.445524 -8.87977e-06)
(-0.0150246 -0.44549 -0.0060952)
(0.0342916 -0.445866 0.783097)
(0.0397627 -0.444135 -0.774958)
(-0.00923279 -0.444093 0.00602875)
(-0.0112994 -0.444111 -8.2713e-06)
(-0.00921068 -0.444074 -0.00605246)
(0.0398741 -0.444096 0.775013)
(0.0465616 -0.441568 -0.767323)
(-0.00223227 -0.44191 0.00599312)
(-0.00426219 -0.441942 -7.65092e-06)
(-0.00220296 -0.441899 -0.00601533)
(0.0466824 -0.44154 0.76738)
(0.0546437 -0.438111 -0.760147)
(0.00601727 -0.438863 0.00596282)
(0.00402204 -0.438917 -6.68414e-06)
(0.00604668 -0.438863 -0.00598474)