/*--------------------------------*- C++ -*----------------------------------*\
  =========                 |
  \\      /  F ield         | OpenFOAM: The Open Source CFD Toolbox
   \\    /   O peration     | Website:  https://openfoam.org
    \\  /    A nd           | Version:  9
     \\/     M anipulation  |
\*---------------------------------------------------------------------------*/
FoamFile
{
    format      ascii;
    class       surfaceScalarField;
    location    "0.6";
    object      phi;
}
// * * * * * * * * * * * * * * * * * * * * * * * * * * * * * * * * * * * * * //

dimensions      [0 3 -1 0 0 0 0];

internalField   nonuniform List<scalar> 
12376
(
3.96889e-10
0.000234169
1.27304e-07
-4.79069e-12
0.000234169
1.27734e-07
6.3564e-12
0.000234168
1.27678e-07
-3.94789e-10
0.000234169
1.27775e-07
0.000234169
1.27369e-07
-3.98457e-10
0.000234023
1.46736e-07
-3.28953e-11
0.000234022
1.46089e-07
3.45673e-11
0.000234022
1.45971e-07
4.02712e-10
0.000234022
1.46125e-07
0.000234023
1.46787e-07
-2.64605e-10
0.00023381
2.12368e-07
-2.13839e-11
0.00023381
2.12219e-07
2.34045e-11
0.00023381
2.12227e-07
2.70453e-10
0.00023381
2.12243e-07
0.00023381
2.12397e-07
-1.38479e-10
0.000233487
3.23561e-07
-3.19159e-11
0.000233486
3.23747e-07
3.29792e-11
0.000233486
3.23759e-07
1.4536e-10
0.000233486
3.23753e-07
0.000233487
3.23561e-07
-1.00588e-10
0.00023302
4.66661e-07
-7.02005e-11
0.000233019
4.66748e-07
7.10135e-11
0.000233019
4.66649e-07
1.07858e-10
0.000233019
4.6674e-07
0.00023302
4.66641e-07
-6.72079e-11
0.000232389
6.31054e-07
-8.198e-11
0.000232388
6.31087e-07
8.1419e-11
0.000232388
6.30908e-07
7.33874e-11
0.000232388
6.31077e-07
0.000232389
6.31033e-07
-3.20226e-11
0.000231578
8.11042e-07
-8.90677e-11
0.000231577
8.11108e-07
8.6302e-11
0.000231577
8.10876e-07
3.57118e-11
0.000231577
8.11101e-07
0.000231578
8.11031e-07
1.01056e-12
0.000230574
1.00401e-06
-9.43777e-11
0.000230573
1.00413e-06
8.9169e-11
0.000230573
1.00384e-06
-8.60755e-13
0.000230573
1.00412e-06
0.000230574
1.00401e-06
3.39857e-11
0.000229364
1.21028e-06
-9.78712e-11
0.000229363
1.21044e-06
9.07014e-11
0.000229362
1.21011e-06
-3.75719e-11
0.000229363
1.21044e-06
0.000229364
1.21029e-06
7.03634e-11
0.000227933
1.43095e-06
-9.85992e-11
0.000227932
1.43116e-06
9.05324e-11
0.000227932
1.43077e-06
-7.67561e-11
0.000227932
1.43116e-06
0.000227933
1.43096e-06
1.13676e-10
0.000226265
1.66805e-06
-9.64939e-11
0.000226263
1.66831e-06
9.45355e-11
0.000226263
1.66786e-06
-1.19566e-10
0.000226263
1.66831e-06
0.000226265
1.66806e-06
1.64819e-10
0.000224341
1.92363e-06
-9.93437e-11
0.00022434
1.92396e-06
1.00049e-10
0.00022434
1.92343e-06
-1.69926e-10
0.00022434
1.92395e-06
0.000224341
1.92363e-06
2.26239e-10
0.000222143
2.19764e-06
-1.00464e-10
0.000222142
2.19804e-06
1.0486e-10
0.000222142
2.19744e-06
-2.29107e-10
0.000222142
2.19804e-06
0.000222143
2.19765e-06
2.99334e-10
0.00021965
2.49283e-06
-1.00188e-10
0.000219649
2.49331e-06
1.08326e-10
0.00021965
2.49262e-06
-2.98871e-10
0.000219649
2.49331e-06
0.00021965
2.49283e-06
3.8439e-10
0.000216844
2.80616e-06
-9.85164e-11
0.000216843
2.80675e-06
1.09651e-10
0.000216843
2.80596e-06
-3.80196e-10
0.000216843
2.80675e-06
0.000216844
2.80617e-06
4.81258e-10
0.000213704
3.13876e-06
-9.56409e-11
0.000213704
3.13946e-06
1.08406e-10
0.000213705
3.13857e-06
-4.73723e-10
0.000213704
3.13946e-06
0.000213704
3.13875e-06
5.89248e-10
0.000210215
3.48862e-06
-9.16736e-11
0.000210215
3.48947e-06
1.04323e-10
0.000210216
3.48847e-06
-5.79455e-10
0.000210215
3.48947e-06
0.000210215
3.48862e-06
7.07042e-10
0.000206362
3.85266e-06
-8.66586e-11
0.000206362
3.85368e-06
9.7479e-11
0.000206363
3.85257e-06
-6.96531e-10
0.000206362
3.85367e-06
0.000206362
3.85265e-06
8.33366e-10
0.000202131
4.22961e-06
-8.05845e-11
0.000202133
4.23082e-06
8.82989e-11
0.000202133
4.2296e-06
-8.23794e-10
0.000202133
4.23082e-06
0.000202131
4.22961e-06
9.66039e-10
0.000197517
4.6133e-06
-7.32427e-11
0.000197519
4.61472e-06
7.73061e-11
0.00019752
4.61339e-06
-9.58813e-10
0.000197519
4.61472e-06
0.000197517
4.61329e-06
1.10367e-09
0.000192514
5.00153e-06
-6.44488e-11
0.000192517
5.0032e-06
6.52115e-11
0.000192518
5.00176e-06
-1.09957e-09
0.000192517
5.0032e-06
0.000192514
5.00153e-06
1.24453e-09
0.000187124
5.38864e-06
-5.39479e-11
0.000187127
5.39058e-06
5.25283e-11
0.000187129
5.38904e-06
-1.24358e-09
0.000187127
5.39058e-06
0.000187124
5.38865e-06
1.38702e-09
0.000181354
5.76911e-06
-4.15015e-11
0.000181358
5.77133e-06
3.96719e-11
0.000181359
5.76968e-06
-1.38837e-09
0.000181358
5.77133e-06
0.000181354
5.76911e-06
1.52964e-09
0.000175215
6.13767e-06
-2.71757e-11
0.000175219
6.1402e-06
2.65853e-11
0.00017522
6.13846e-06
-1.53187e-09
0.000175219
6.1402e-06
0.000175215
6.13768e-06
1.67079e-09
0.000168724
6.48884e-06
-1.08031e-11
0.000168729
6.49168e-06
1.31873e-11
0.000168731
6.48985e-06
-1.67231e-09
0.000168729
6.49168e-06
0.000168724
6.48884e-06
1.80851e-09
0.000161906
6.81691e-06
7.12443e-12
0.000161911
6.82007e-06
-1.07377e-12
0.000161912
6.81817e-06
-1.80792e-09
0.000161911
6.82007e-06
0.000161906
6.81691e-06
1.9406e-09
0.000154786
7.11727e-06
2.61145e-11
0.000154792
7.12076e-06
-1.65759e-11
0.000154794
7.11879e-06
-1.93736e-09
0.000154792
7.12075e-06
0.000154786
7.11727e-06
2.06483e-09
0.000147399
7.38543e-06
4.58677e-11
0.000147405
7.38923e-06
-3.35293e-11
0.000147407
7.38722e-06
-2.05877e-09
0.000147405
7.38923e-06
0.000147399
7.38543e-06
2.17828e-09
0.000139779
7.61723e-06
6.56204e-11
0.000139785
7.62133e-06
-5.21513e-11
0.000139787
7.61929e-06
-2.1703e-09
0.000139785
7.62133e-06
0.000139779
7.61723e-06
2.2789e-09
0.000131966
7.81099e-06
8.50923e-11
0.000131972
7.81537e-06
-7.18132e-11
0.000131974
7.81331e-06
-2.27026e-09
0.000131972
7.81537e-06
0.000131966
7.811e-06
2.36498e-09
0.000123999
7.96473e-06
1.03536e-10
0.000124005
7.96935e-06
-9.25861e-11
0.000124007
7.96729e-06
-2.35688e-09
0.000124005
7.96936e-06
0.000123999
7.96474e-06
2.43556e-09
0.000115918
8.07834e-06
1.21429e-10
0.000115924
8.08317e-06
-1.13154e-10
0.000115926
8.08111e-06
-2.429e-09
0.000115924
8.08318e-06
0.000115918
8.07835e-06
2.49117e-09
0.000107762
8.1533e-06
1.38304e-10
0.000107768
8.1583e-06
-1.33574e-10
0.00010777
8.15626e-06
-2.48648e-09
0.000107768
8.15831e-06
0.000107762
8.15331e-06
2.53233e-09
9.95682e-05
8.1917e-06
1.54935e-10
9.95738e-05
8.19684e-06
-1.52632e-10
9.95757e-05
8.19482e-06
-2.52974e-09
9.95738e-05
8.19685e-06
9.95682e-05
8.19172e-06
2.56083e-09
9.1368e-05
8.19771e-06
1.7083e-10
9.13733e-05
8.20294e-06
-1.7076e-10
9.13751e-05
8.20095e-06
-2.56009e-09
9.13733e-05
8.20295e-06
9.1368e-05
8.19773e-06
2.57821e-09
8.31888e-05
8.17653e-06
1.86683e-10
8.31938e-05
8.18182e-06
-1.87305e-10
8.31956e-05
8.17986e-06
-2.58026e-09
8.31938e-05
8.18183e-06
8.31888e-05
8.17655e-06
2.58553e-09
7.50523e-05
8.13391e-06
2.02024e-10
7.5057e-05
8.13925e-06
-2.02557e-10
7.50587e-05
8.13732e-06
-2.5918e-09
7.5057e-05
8.13925e-06
7.50523e-05
8.13393e-06
2.57858e-09
6.69728e-05
8.077e-06
2.16462e-10
6.69769e-05
8.08245e-06
-2.15818e-10
6.69785e-05
8.08056e-06
-2.5922e-09
6.69769e-05
8.08244e-06
6.69727e-05
8.07701e-06
2.55007e-09
8.01367e-06
5.89565e-05
2.28111e-10
8.01913e-06
5.89601e-05
-2.2308e-10
8.01729e-06
5.89617e-05
-2.57518e-09
8.01912e-06
5.89601e-05
8.01368e-06
5.89565e-05
3.87661e-10
0.000604136
3.08465e-07
-1.05883e-11
0.000604136
3.08133e-07
1.15713e-11
0.000604135
3.08065e-07
-3.86148e-10
0.000604136
3.08209e-07
0.000604136
3.08589e-07
-5.79927e-10
0.000603877
4.06087e-07
-2.08634e-11
0.000603876
4.05551e-07
2.22373e-11
0.000603875
4.05507e-07
5.83177e-10
0.000603876
4.05624e-07
0.000603877
4.06199e-07
-4.28341e-10
0.000603474
6.15782e-07
3.32415e-12
0.000603472
6.15539e-07
-1.21864e-12
0.000603472
6.15691e-07
4.3284e-10
0.000603472
6.15592e-07
0.000603474
6.1586e-07
-3.5019e-10
0.000602857
9.40797e-07
-1.50213e-11
0.000602855
9.40769e-07
1.71227e-11
0.000602855
9.41028e-07
3.55195e-10
0.000602855
9.40784e-07
0.000602857
9.40817e-07
-4.19735e-10
0.000601963
1.3615e-06
-3.0147e-11
0.00060196
1.36121e-06
3.07696e-11
0.00060196
1.36145e-06
4.23999e-10
0.00060196
1.3612e-06
0.000601963
1.36147e-06
-4.93457e-10
0.000600742
1.85297e-06
-3.31347e-11
0.000600738
1.8524e-06
3.14369e-11
0.000600738
1.85263e-06
4.95731e-10
0.000600738
1.85238e-06
0.000600741
1.85293e-06
-5.67192e-10
0.000599155
2.39814e-06
-3.27344e-11
0.000599151
2.39739e-06
2.89238e-11
0.000599151
2.39765e-06
5.66765e-10
0.000599151
2.39737e-06
0.000599155
2.39812e-06
-6.5081e-10
0.000597172
2.98809e-06
-3.14771e-11
0.000597168
2.98718e-06
2.60857e-11
0.000597167
2.98748e-06
6.47607e-10
0.000597168
2.98718e-06
0.000597171
2.98809e-06
-7.42027e-10
0.00059476
3.62278e-06
-2.8649e-11
0.000594756
3.62171e-06
2.27876e-11
0.000594755
3.62205e-06
7.36691e-10
0.000594756
3.6217e-06
0.00059476
3.62278e-06
-8.37125e-10
0.000591886
4.30508e-06
-2.3963e-11
0.000591882
4.30384e-06
1.89892e-11
0.000591882
4.30422e-06
8.30929e-10
0.000591882
4.30384e-06
0.000591886
4.30508e-06
-9.34146e-10
0.000588514
5.04138e-06
-1.74225e-11
0.00058851
5.03997e-06
1.44815e-11
0.000588509
5.04039e-06
9.28771e-10
0.00058851
5.03997e-06
0.000588514
5.04138e-06
-1.03174e-09
0.0005846
5.83872e-06
-8.7955e-12
0.000584595
5.83713e-06
9.20517e-12
0.000584595
5.83757e-06
1.02855e-09
0.000584595
5.83712e-06
0.0005846
5.83871e-06
-1.12767e-09
0.000580101
6.69817e-06
1.85936e-12
0.000580096
6.6964e-06
2.46262e-12
0.000580096
6.69687e-06
1.1277e-09
0.000580096
6.69639e-06
0.000580101
6.69816e-06
-1.22202e-09
0.000574965
7.62966e-06
1.4472e-11
0.00057496
7.6277e-06
-6.43728e-12
0.00057496
7.62819e-06
1.22566e-09
0.00057496
7.6277e-06
0.000574965
7.62965e-06
-1.31204e-09
0.000569147
8.62574e-06
2.88702e-11
0.000569142
8.62361e-06
-1.79549e-11
0.000569142
8.62411e-06
1.31894e-09
0.000569142
8.6236e-06
0.000569147
8.62573e-06
-1.39804e-09
0.000562595
9.69181e-06
4.49839e-11
0.000562591
9.68951e-06
-3.23944e-11
0.000562591
9.69003e-06
1.40713e-09
0.000562591
9.68951e-06
0.000562595
9.6918e-06
-1.47865e-09
0.000555261
1.0824e-05
6.254e-11
0.000555257
1.08216e-05
-5.00404e-11
0.000555257
1.08221e-05
1.48854e-09
0.000555257
1.08216e-05
0.000555261
1.0824e-05
-1.55251e-09
0.000547101
1.2015e-05
8.12588e-11
0.000547097
1.20125e-05
-7.06182e-11
0.000547097
1.2013e-05
1.5617e-09
0.000547097
1.20125e-05
0.0005471
1.2015e-05
-1.61941e-09
0.000538068
1.32636e-05
1.0109e-10
0.000538065
1.3261e-05
-9.35742e-11
0.000538065
1.32615e-05
1.62662e-09
0.000538065
1.32609e-05
0.000538068
1.32636e-05
-1.67732e-09
0.00052813
1.45527e-05
1.22012e-10
0.000528128
1.45501e-05
-1.18086e-10
0.000528128
1.45506e-05
1.68173e-09
0.000528128
1.45501e-05
0.00052813
1.45527e-05
-1.72605e-09
0.000517255
1.58781e-05
1.44181e-10
0.000517253
1.58755e-05
-1.43388e-10
0.000517254
1.58761e-05
1.72752e-09
0.000517253
1.58755e-05
0.000517255
1.58781e-05
-1.76391e-09
0.000505422
1.72243e-05
1.67623e-10
0.00050542
1.72218e-05
-1.68843e-10
0.000505421
1.72223e-05
1.76312e-09
0.00050542
1.72218e-05
0.000505422
1.72243e-05
-1.7898e-09
0.000492617
1.85755e-05
1.9274e-10
0.000492616
1.85732e-05
-1.93533e-10
0.000492618
1.85737e-05
1.78758e-09
0.000492616
1.85732e-05
0.000492617
1.85755e-05
-1.80225e-09
0.00047884
1.99167e-05
2.18134e-10
0.00047884
1.99146e-05
-2.18442e-10
0.000478841
1.99151e-05
1.80071e-09
0.00047884
1.99146e-05
0.00047884
1.99168e-05
-1.80144e-09
0.000464099
2.12312e-05
2.45711e-10
0.0004641
2.12293e-05
-2.41582e-10
0.000464102
2.12298e-05
1.80104e-09
0.0004641
2.12293e-05
0.000464099
2.12312e-05
-1.78661e-09
0.000448417
2.25007e-05
2.7295e-10
0.000448419
2.24992e-05
-2.65255e-10
0.000448421
2.24997e-05
1.78853e-09
0.000448419
2.24992e-05
0.000448417
2.25007e-05
-1.75816e-09
0.000431827
2.37096e-05
2.98811e-10
0.000431829
2.37085e-05
-2.89923e-10
0.000431831
2.3709e-05
1.76322e-09
0.000431829
2.37085e-05
0.000431827
2.37096e-05
-1.71831e-09
0.000414372
2.48416e-05
3.25578e-10
0.000414376
2.48408e-05
-3.13289e-10
0.000414378
2.48414e-05
1.72475e-09
0.000414376
2.48408e-05
0.000414372
2.48416e-05
-1.66719e-09
0.000396111
2.58801e-05
3.49413e-10
0.000396115
2.58798e-05
-3.37991e-10
0.000396118
2.58804e-05
1.67537e-09
0.000396115
2.58798e-05
0.000396111
2.58801e-05
-1.60843e-09
0.000377108
2.68159e-05
3.73112e-10
0.000377113
2.6816e-05
-3.60934e-10
0.000377115
2.68166e-05
1.61578e-09
0.000377113
2.6816e-05
0.000377108
2.68159e-05
-1.54223e-09
0.000357437
2.76372e-05
3.93132e-10
0.000357442
2.76379e-05
-3.8458e-10
0.000357445
2.76384e-05
1.54928e-09
0.000357442
2.76379e-05
0.000357437
2.76373e-05
-1.47189e-09
0.000337179
2.83379e-05
4.12779e-10
0.000337184
2.8339e-05
-4.05132e-10
0.000337187
2.83395e-05
1.47646e-09
0.000337184
2.8339e-05
0.000337179
2.83379e-05
-1.39679e-09
0.000316417
2.89158e-05
4.28854e-10
0.000316424
2.89173e-05
-4.25479e-10
0.000316426
2.89179e-05
1.40067e-09
0.000316424
2.89173e-05
0.000316417
2.89158e-05
-1.31952e-09
0.00029524
2.93701e-05
4.44966e-10
0.000295247
2.9372e-05
-4.41711e-10
0.000295249
2.93726e-05
1.32134e-09
0.000295247
2.9372e-05
0.00029524
2.93702e-05
-1.23846e-09
0.000273733
2.97061e-05
4.57738e-10
0.00027374
2.97082e-05
-4.57423e-10
0.000273742
2.97088e-05
1.24112e-09
0.00027374
2.97082e-05
0.000273733
2.97062e-05
-1.15578e-09
0.000251979
2.99316e-05
4.70433e-10
0.000251986
2.99338e-05
-4.69416e-10
0.000251989
2.99344e-05
1.15921e-09
0.000251986
2.99338e-05
0.000251979
2.99316e-05
-1.07066e-09
0.000230059
3.00549e-05
4.81469e-10
0.000230067
3.00571e-05
-4.78653e-10
0.00023007
3.00576e-05
1.07575e-09
0.000230067
3.00571e-05
0.000230059
3.00549e-05
-9.73928e-10
0.000208048
3.00892e-05
4.88117e-10
0.000208057
3.00911e-05
-4.8601e-10
0.00020806
3.00916e-05
9.81218e-10
0.000208057
3.00911e-05
0.000208048
3.00892e-05
-8.46383e-10
3.00395e-05
0.000186023
4.89625e-10
3.00409e-05
0.000186034
-4.8874e-10
3.00413e-05
0.000186036
8.52857e-10
3.00409e-05
0.000186034
3.00394e-05
0.000186023
4.21625e-10
0.00083328
4.89757e-07
-1.77359e-11
0.000833281
4.88878e-07
1.8137e-11
0.00083328
4.88707e-07
-4.20523e-10
0.00083328
4.88959e-07
0.00083328
4.89888e-07
-5.32685e-10
0.000833013
6.73439e-07
-2.09057e-11
0.000833013
6.73126e-07
2.21028e-11
0.000833012
6.73143e-07
5.3515e-10
0.000833012
6.73204e-07
0.000833013
6.73559e-07
-3.22164e-10
0.000832586
1.04313e-06
9.82433e-12
0.000832585
1.04292e-06
-7.84302e-12
0.000832584
1.04311e-06
3.25626e-10
0.000832585
1.04297e-06
0.000832586
1.04321e-06
-1.76832e-10
0.000831925
1.60267e-06
-1.06886e-11
0.000831923
1.60248e-06
1.23292e-11
0.000831923
1.60277e-06
1.80358e-10
0.000831923
1.60249e-06
0.000831924
1.60268e-06
-1.92434e-10
0.000830953
2.33284e-06
-2.80165e-11
0.000830951
2.3324e-06
2.90729e-11
0.000830951
2.33271e-06
1.95131e-10
0.000830951
2.33238e-06
0.000830953
2.3328e-06
-1.95037e-10
0.000829609
3.19726e-06
-2.90098e-11
0.000829607
3.19653e-06
3.02989e-11
0.000829607
3.19685e-06
1.96351e-10
0.000829607
3.1965e-06
0.000829609
3.19721e-06
-1.83456e-10
0.000827841
4.16625e-06
-2.9317e-11
0.000827839
4.16531e-06
2.81822e-11
0.000827839
4.16566e-06
1.82006e-10
0.000827839
4.16529e-06
0.000827841
4.16622e-06
-1.7402e-10
0.000825607
5.22239e-06
-2.8367e-11
0.000825605
5.22127e-06
2.64739e-11
0.000825605
5.22165e-06
1.70697e-10
0.000825605
5.22126e-06
0.000825607
5.22238e-06
-1.65652e-10
0.000822866
6.36394e-06
-2.68959e-11
0.000822864
6.36263e-06
2.46328e-11
0.000822864
6.36303e-06
1.61279e-10
0.000822864
6.36262e-06
0.000822866
6.36394e-06
-1.54362e-10
0.000819576
7.59516e-06
-2.44984e-11
0.000819574
7.59366e-06
2.25291e-11
0.000819574
7.59409e-06
1.50006e-10
0.000819574
7.59366e-06
0.000819576
7.59516e-06
-1.37976e-10
0.00081569
8.92759e-06
-2.14706e-11
0.000815688
8.92589e-06
1.92354e-11
0.000815688
8.92633e-06
1.34612e-10
0.000815688
8.92588e-06
0.00081569
8.92758e-06
-1.14327e-10
0.000811154
1.03748e-05
-1.60398e-11
0.000811152
1.03729e-05
1.57235e-11
0.000811152
1.03733e-05
1.13418e-10
0.000811152
1.03729e-05
0.000811154
1.03748e-05
-8.18443e-11
0.000805912
1.19404e-05
-7.4054e-12
0.00080591
1.19383e-05
1.10161e-11
0.00080591
1.19387e-05
8.40619e-11
0.00080591
1.19383e-05
0.000805912
1.19404e-05
-3.97796e-11
0.000799898
1.36443e-05
2.88663e-12
0.000799896
1.3642e-05
4.96612e-12
0.000799896
1.36424e-05
4.52507e-11
0.000799896
1.3642e-05
0.000799897
1.36443e-05
1.31052e-11
0.000793048
1.54758e-05
1.91805e-11
0.000793046
1.54733e-05
-4.65927e-12
0.000793046
1.54737e-05
-4.98665e-12
0.000793046
1.54733e-05
0.000793047
1.54758e-05
7.63579e-11
0.000785292
1.74474e-05
2.39005e-11
0.000785291
1.74447e-05
-1.36326e-11
0.000785291
1.74451e-05
-6.78758e-11
0.000785291
1.74447e-05
0.000785292
1.74473e-05
1.51309e-10
0.000776561
1.95552e-05
3.40067e-11
0.00077656
1.95525e-05
-2.61108e-11
0.000776561
1.95528e-05
-1.43429e-10
0.00077656
1.95525e-05
0.00077656
1.95552e-05
2.38701e-10
0.000766786
2.17897e-05
4.72414e-11
0.000766786
2.17869e-05
-4.06732e-11
0.000766787
2.17871e-05
-2.3205e-10
0.000766786
2.17869e-05
0.000766786
2.17897e-05
3.38477e-10
0.000755897
2.41518e-05
6.24552e-11
0.000755898
2.4149e-05
-5.70585e-11
0.000755899
2.41491e-05
-3.33511e-10
0.000755898
2.4149e-05
0.000755897
2.41518e-05
4.49931e-10
0.000743835
2.66146e-05
7.94355e-11
0.000743836
2.66119e-05
-7.48358e-11
0.000743838
2.6612e-05
-4.46764e-10
0.000743836
2.66119e-05
0.000743835
2.66146e-05
5.71753e-10
0.000730538
2.91738e-05
9.70131e-11
0.000730541
2.91713e-05
-9.4608e-11
0.000730543
2.91713e-05
-5.70296e-10
0.000730541
2.91713e-05
0.000730538
2.91738e-05
7.03774e-10
0.000715958
3.18044e-05
1.21604e-10
0.000715961
3.18021e-05
-1.10397e-10
0.000715963
3.1802e-05
-7.01567e-10
0.000715961
3.18022e-05
0.000715958
3.18044e-05
8.39667e-10
0.000700052
3.44806e-05
1.29225e-10
0.000700056
3.44788e-05
-1.44613e-10
0.000700059
3.44786e-05
-8.4341e-10
0.000700056
3.44788e-05
0.000700052
3.44807e-05
9.89413e-10
0.00068279
3.71771e-05
1.73934e-10
0.000682796
3.71757e-05
-1.44035e-10
0.000682799
3.71755e-05
-9.82472e-10
0.000682796
3.71757e-05
0.00068279
3.71771e-05
1.13194e-09
0.000664156
3.98644e-05
1.72812e-10
0.000664163
3.98636e-05
-1.87795e-10
0.000664166
3.98633e-05
-1.13518e-09
0.000664163
3.98636e-05
0.000664156
3.98644e-05
1.27962e-09
0.000644146
4.25093e-05
1.89515e-10
0.000644154
4.25092e-05
-2.14789e-10
0.000644157
4.25088e-05
-1.28376e-09
0.000644154
4.25092e-05
0.000644146
4.25093e-05
1.43467e-09
0.000622772
4.5082e-05
2.4681e-10
0.000622781
4.50826e-05
-2.03125e-10
0.000622784
4.50822e-05
-1.42226e-09
0.000622781
4.50826e-05
0.000622772
4.5082e-05
1.56879e-09
0.000600063
4.75497e-05
2.28064e-10
0.000600072
4.75511e-05
-2.62164e-10
0.000600075
4.75506e-05
-1.57123e-09
0.000600072
4.75511e-05
0.000600063
4.75497e-05
1.71186e-09
0.000576063
4.98777e-05
2.93825e-10
0.000576073
4.988e-05
-2.4221e-10
0.000576077
4.98795e-05
-1.69759e-09
0.000576073
4.988e-05
0.000576063
4.98777e-05
1.82713e-09
0.000550834
5.20434e-05
2.65937e-10
0.000550844
5.20466e-05
-3.08414e-10
0.000550848
5.20461e-05
-1.8313e-09
0.000550844
5.20466e-05
0.000550834
5.20434e-05
1.94937e-09
0.000524451
5.4018e-05
3.3693e-10
0.000524462
5.4022e-05
-2.77481e-10
0.000524465
5.40215e-05
-1.93535e-09
0.000524462
5.4022e-05
0.000524451
5.4018e-05
2.03836e-09
0.000497006
5.57813e-05
2.9801e-10
0.000497016
5.57861e-05
-3.51729e-10
0.00049702
5.57856e-05
-2.04602e-09
0.000497016
5.57861e-05
0.000497006
5.57813e-05
2.13505e-09
0.000468599
5.73202e-05
3.74599e-10
0.00046861
5.73258e-05
-3.081e-10
0.000468613
5.73253e-05
-2.12217e-09
0.00046861
5.73258e-05
0.000468599
5.73203e-05
2.19541e-09
0.000439345
5.86226e-05
3.2353e-10
0.000439355
5.86287e-05
-3.88587e-10
0.000439358
5.86283e-05
-2.207e-09
0.000439355
5.86288e-05
0.000439345
5.86226e-05
2.26552e-09
0.000409361
5.96873e-05
3.92722e-10
0.000409371
5.9694e-05
-3.41131e-10
0.000409374
5.96935e-05
-2.25548e-09
0.000409371
5.9694e-05
0.000409361
5.96874e-05
2.30877e-09
0.000378773
6.05177e-05
3.81976e-10
0.000378782
6.05246e-05
-3.66968e-10
0.000378785
6.05242e-05
-2.30568e-09
0.000378782
6.05246e-05
0.000378773
6.05177e-05
2.3372e-09
0.000347708
6.11176e-05
3.6645e-10
0.000347716
6.11248e-05
-4.01917e-10
0.000347719
6.11243e-05
-2.34496e-09
0.000347716
6.11247e-05
0.000347708
6.11176e-05
2.35828e-09
0.000316294
6.1501e-05
3.96361e-10
0.000316301
6.15082e-05
-3.7992e-10
0.000316304
6.15077e-05
-2.35588e-09
0.000316301
6.15082e-05
0.000316294
6.15009e-05
2.34484e-09
6.16707e-05
0.00028466
3.91088e-10
6.16779e-05
0.000284666
-3.91547e-10
6.16773e-05
0.000284669
-2.34302e-09
6.16778e-05
0.000284666
6.16706e-05
0.00028466
4.00819e-10
0.000947853
6.55865e-07
-2.20878e-11
0.000947853
6.54485e-07
2.20263e-11
0.000947852
6.54175e-07
-4.00035e-10
0.000947853
6.5455e-07
0.000947852
6.5597e-07
-5.1073e-10
0.000947614
9.13035e-07
-2.55768e-11
0.000947613
9.12937e-07
2.64848e-11
0.000947612
9.12993e-07
5.12555e-10
0.000947613
9.12995e-07
0.000947613
9.13125e-07
-2.99395e-10
0.00094723
1.42704e-06
5.27935e-12
0.000947228
1.42697e-06
-3.68325e-12
0.000947228
1.42719e-06
3.01916e-10
0.000947228
1.427e-06
0.00094723
1.42709e-06
-1.47425e-10
0.00094663
2.20247e-06
-1.79543e-11
0.000946629
2.20219e-06
1.89404e-11
0.000946628
2.20249e-06
1.4965e-10
0.000946628
2.20218e-06
0.00094663
2.20246e-06
-1.73018e-10
0.00094574
3.22298e-06
-3.42932e-11
0.000945738
3.22243e-06
3.41337e-11
0.000945738
3.22277e-06
1.73884e-10
0.000945738
3.2224e-06
0.00094574
3.22292e-06
-1.89699e-10
0.000944493
4.44417e-06
-4.10099e-11
0.000944491
4.44334e-06
3.89376e-11
0.000944491
4.44372e-06
1.88506e-10
0.000944491
4.4433e-06
0.000944493
4.44411e-06
-1.90761e-10
0.000942835
5.82504e-06
-4.49995e-11
0.000942833
5.82396e-06
4.10843e-11
0.000942832
5.82437e-06
1.87484e-10
0.000942832
5.82393e-06
0.000942835
5.82499e-06
-1.96295e-10
0.000940718
7.33938e-06
-4.95541e-11
0.000940716
7.33807e-06
4.43367e-11
0.000940715
7.33851e-06
1.91648e-10
0.000940715
7.33805e-06
0.000940718
7.33936e-06
-2.05296e-10
0.000938099
8.98294e-06
-5.27898e-11
0.000938097
8.9814e-06
4.75782e-11
0.000938096
8.98185e-06
2.00537e-10
0.000938096
8.98138e-06
0.000938099
8.98292e-06
-2.13856e-10
0.000934934
1.07609e-05
-5.43089e-11
0.000934931
1.07591e-05
5.04603e-11
0.000934931
1.07596e-05
2.10324e-10
0.000934931
1.07591e-05
0.000934933
1.07609e-05
-2.20703e-10
0.000931172
1.26899e-05
-5.45822e-11
0.000931169
1.26879e-05
5.3162e-11
0.000931169
1.26884e-05
2.19401e-10
0.000931169
1.26879e-05
0.000931171
1.26899e-05
-2.25178e-10
0.000926756
1.47907e-05
-5.40695e-11
0.000926753
1.47884e-05
5.54214e-11
0.000926753
1.47889e-05
2.26582e-10
0.000926753
1.47884e-05
0.000926756
1.47907e-05
-2.26478e-10
0.000921626
1.70705e-05
-5.29254e-11
0.000921623
1.7068e-05
5.68849e-11
0.000921623
1.70684e-05
2.30442e-10
0.000921623
1.7068e-05
0.000921626
1.70705e-05
-2.24691e-10
0.00091571
1.95606e-05
-5.11719e-11
0.000915707
1.95578e-05
5.72242e-11
0.000915707
1.95582e-05
2.30595e-10
0.000915707
1.95578e-05
0.00091571
1.95605e-05
-2.19018e-10
0.000908937
2.22487e-05
-4.86771e-11
0.000908935
2.22457e-05
5.61634e-11
0.000908935
2.22461e-05
2.25938e-10
0.000908935
2.22457e-05
0.000908937
2.22487e-05
-2.09762e-10
0.000901228
2.51567e-05
-4.52179e-11
0.000901226
2.51534e-05
5.34606e-11
0.000901226
2.51537e-05
2.1662e-10
0.000901226
2.51534e-05
0.000901228
2.51567e-05
-1.96467e-10
0.000892501
2.82831e-05
-4.08378e-11
0.000892499
2.82796e-05
4.88757e-11
0.000892499
2.82798e-05
2.02464e-10
0.000892499
2.82796e-05
0.0008925
2.8283e-05
-1.78999e-10
0.000882672
3.16182e-05
-3.54778e-11
0.000882671
3.16147e-05
4.24538e-11
0.000882671
3.16148e-05
1.8364e-10
0.000882671
3.16146e-05
0.000882672
3.16182e-05
-1.57406e-10
0.000871656
3.51683e-05
-2.90655e-11
0.000871655
3.51647e-05
3.45452e-11
0.000871656
3.51648e-05
1.60541e-10
0.000871655
3.51647e-05
0.000871656
3.51683e-05
-1.3093e-10
0.000859372
3.8899e-05
-2.16049e-11
0.000859371
3.88955e-05
2.57335e-11
0.000859372
3.88954e-05
1.32844e-10
0.000859371
3.88955e-05
0.000859371
3.8899e-05
-9.9076e-11
0.000845737
4.28088e-05
-1.28764e-11
0.000845737
4.28054e-05
1.71348e-11
0.000845738
4.28053e-05
1.00421e-10
0.000845737
4.28054e-05
0.000845737
4.28088e-05
-6.19232e-11
0.000830676
4.68656e-05
-1.28763e-12
0.000830677
4.68625e-05
4.60955e-12
0.000830678
4.68622e-05
6.26396e-11
0.000830677
4.68625e-05
0.000830675
4.68656e-05
-1.96487e-11
0.00081412
5.10358e-05
1.4484e-11
0.000814122
5.10331e-05
-9.92608e-12
0.000814124
5.10327e-05
2.03943e-11
0.000814122
5.10331e-05
0.00081412
5.10358e-05
2.79433e-11
0.000796012
5.52853e-05
3.88519e-11
0.000796015
5.52831e-05
-3.28004e-11
0.000796017
5.52826e-05
-2.56247e-11
0.000796015
5.52831e-05
0.000796012
5.52853e-05
7.83377e-11
0.000776303
5.95731e-05
6.33905e-11
0.000776307
5.95715e-05
-5.52054e-11
0.000776309
5.9571e-05
-7.53995e-11
0.000776307
5.95715e-05
0.000776303
5.95731e-05
1.3095e-10
0.000754962
6.3851e-05
8.85353e-11
0.000754966
6.38502e-05
-7.95065e-11
0.000754968
6.38497e-05
-1.27328e-10
0.000754966
6.38502e-05
0.000754961
6.3851e-05
1.84771e-10
0.000731969
6.8074e-05
1.142e-10
0.000731975
6.80741e-05
-1.06626e-10
0.000731977
6.80736e-05
-1.80163e-10
0.000731975
6.80741e-05
0.000731969
6.8074e-05
2.3717e-10
0.000707328
7.2191e-05
1.42743e-10
0.000707334
7.21921e-05
-1.34335e-10
0.000707337
7.21916e-05
-2.33513e-10
0.000707334
7.21921e-05
0.000707328
7.2191e-05
2.88547e-10
0.000681059
7.61458e-05
1.71103e-10
0.000681066
7.61479e-05
-1.6463e-10
0.000681069
7.61475e-05
-2.84645e-10
0.000681066
7.61479e-05
0.000681059
7.61458e-05
3.36478e-10
0.000653204
7.9898e-05
2.01766e-10
0.000653212
7.99012e-05
-1.94613e-10
0.000653215
7.99008e-05
-3.33986e-10
0.000653212
7.99012e-05
0.000653204
7.9898e-05
3.81833e-10
0.000623826
8.33959e-05
2.31512e-10
0.000623834
8.34002e-05
-2.26172e-10
0.000623837
8.34e-05
-3.78937e-10
0.000623834
8.34003e-05
0.000623826
8.3396e-05
4.22166e-10
0.000593008
8.6599e-05
2.62632e-10
0.000593016
8.66043e-05
-2.55921e-10
0.000593019
8.66042e-05
-4.20296e-10
0.000593016
8.66043e-05
0.000593008
8.6599e-05
4.58833e-10
0.000560852
8.94757e-05
2.91769e-10
0.00056086
8.94819e-05
-2.86166e-10
0.000560863
8.94819e-05
-4.55927e-10
0.00056086
8.9482e-05
0.000560852
8.94757e-05
4.89433e-10
0.00052748
9.19946e-05
3.21217e-10
0.000527487
9.20016e-05
-3.13367e-10
0.00052749
9.20017e-05
-4.87415e-10
0.000527487
9.20016e-05
0.000527479
9.19946e-05
5.15796e-10
0.000493026
9.41406e-05
3.47286e-10
0.000493033
9.41482e-05
-3.40074e-10
0.000493036
9.41484e-05
-5.12619e-10
0.000493033
9.41482e-05
0.000493026
9.41406e-05
5.36685e-10
0.000457638
9.59052e-05
3.72101e-10
0.000457644
9.59132e-05
-3.63385e-10
0.000457647
9.59135e-05
-5.33576e-10
0.000457644
9.59132e-05
0.000457638
9.59052e-05
5.52943e-10
0.000421474
9.72811e-05
3.94342e-10
0.00042148
9.72894e-05
-3.83686e-10
0.000421483
9.72897e-05
-5.50153e-10
0.00042148
9.72894e-05
0.000421474
9.72811e-05
5.677e-10
0.000384696
9.82785e-05
4.12361e-10
0.000384702
9.82867e-05
-4.01362e-10
0.000384704
9.8287e-05
-5.64451e-10
0.000384702
9.82867e-05
0.000384696
9.82785e-05
5.88947e-10
9.88924e-05
0.000347473
4.24511e-10
9.89001e-05
0.00034748
-4.13047e-10
9.89003e-05
0.000347482
-5.8547e-10
9.89e-05
0.00034748
9.88923e-05
0.000347473
3.6304e-10
0.000995973
8.01527e-07
-2.1213e-11
0.000995973
7.99723e-07
2.09937e-11
0.000995972
7.99275e-07
-3.62471e-10
0.000995973
7.99768e-07
0.000995972
8.01598e-07
-4.54729e-10
0.000995768
1.11779e-06
-2.44968e-11
0.000995768
1.11786e-06
2.51643e-11
0.000995767
1.11793e-06
4.56043e-10
0.000995768
1.1179e-06
0.000995768
1.11785e-06
-2.53476e-10
0.000995443
1.75282e-06
4.61919e-12
0.000995442
1.75295e-06
-3.58944e-12
0.000995441
1.75319e-06
2.55145e-10
0.000995441
1.75296e-06
0.000995442
1.75283e-06
-1.01769e-10
0.000994931
2.71389e-06
-1.46478e-11
0.00099493
2.71362e-06
1.67661e-11
0.00099493
2.71391e-06
1.03441e-10
0.00099493
2.71359e-06
0.000994931
2.71385e-06
-1.24735e-10
0.000994166
3.98801e-06
-3.58301e-11
0.000994165
3.98746e-06
3.50792e-11
0.000994165
3.9878e-06
1.243e-10
0.000994165
3.98742e-06
0.000994166
3.98794e-06
-1.4162e-10
0.000993086
5.52513e-06
-4.74203e-11
0.000993084
5.52431e-06
4.56154e-11
0.000993084
5.52468e-06
1.39421e-10
0.000993084
5.52426e-06
0.000993085
5.52505e-06
-1.4258e-10
0.000991636
7.27499e-06
-5.67528e-11
0.000991634
7.27391e-06
5.32987e-11
0.000991634
7.27429e-06
1.38977e-10
0.000991634
7.27387e-06
0.000991636
7.27494e-06
-1.4728e-10
0.000989772
9.20376e-06
-6.23925e-11
0.000989769
9.2024e-06
5.84458e-11
0.000989769
9.20281e-06
1.43246e-10
0.000989769
9.20238e-06
0.000989771
9.20372e-06
-1.55144e-10
0.00098745
1.13049e-05
-6.52774e-11
0.000987447
1.13033e-05
6.19753e-11
0.000987447
1.13037e-05
1.51887e-10
0.000987447
1.13032e-05
0.00098745
1.13049e-05
-1.62514e-10
0.000984626
1.35845e-05
-6.59907e-11
0.000984624
1.35826e-05
6.43169e-11
0.000984623
1.35831e-05
1.61038e-10
0.000984624
1.35826e-05
0.000984626
1.35845e-05
-1.68481e-10
0.000981252
1.60644e-05
-6.51769e-11
0.000981249
1.60622e-05
6.57878e-11
0.000981249
1.60626e-05
1.6931e-10
0.000981249
1.60622e-05
0.000981252
1.60644e-05
-1.7282e-10
0.000977271
1.87723e-05
-6.31798e-11
0.000977268
1.87698e-05
6.62164e-11
0.000977268
1.87702e-05
1.75888e-10
0.000977268
1.87698e-05
0.00097727
1.87723e-05
-1.75009e-10
0.000972621
2.17202e-05
-6.00981e-11
0.000972618
2.17174e-05
6.54471e-11
0.000972618
2.17178e-05
1.79766e-10
0.000972618
2.17174e-05
0.000972621
2.17202e-05
-1.75116e-10
0.000967231
2.4951e-05
-5.53571e-11
0.000967228
2.49479e-05
6.33442e-11
0.000967228
2.49483e-05
1.80812e-10
0.000967228
2.49479e-05
0.000967231
2.4951e-05
-1.72323e-10
0.000961026
2.84533e-05
-4.97027e-11
0.000961024
2.84499e-05
5.94979e-11
0.000961024
2.84502e-05
1.78097e-10
0.000961024
2.84499e-05
0.000961026
2.84533e-05
-1.66506e-10
0.000953924
3.22591e-05
-4.43118e-11
0.000953922
3.22554e-05
5.31423e-11
0.000953922
3.22556e-05
1.71712e-10
0.000953921
3.22554e-05
0.000953924
3.22591e-05
-1.56741e-10
0.000945836
3.63718e-05
-3.84017e-11
0.000945833
3.63678e-05
4.59106e-11
0.000945833
3.6368e-05
1.61114e-10
0.000945833
3.63678e-05
0.000945835
3.63718e-05
-1.42179e-10
0.00093667
4.07843e-05
-3.16552e-11
0.000936668
4.07801e-05
3.82263e-11
0.000936668
4.07802e-05
1.45602e-10
0.000936668
4.07801e-05
0.000936669
4.07843e-05
-1.22165e-10
0.000926328