/*--------------------------------*- C++ -*----------------------------------*\
  =========                 |
  \\      /  F ield         | OpenFOAM: The Open Source CFD Toolbox
   \\    /   O peration     | Website:  https://openfoam.org
    \\  /    A nd           | Version:  9
     \\/     M anipulation  |
\*---------------------------------------------------------------------------*/
FoamFile
{
    format      ascii;
    class       volVectorField;
    location    "0.6";
    object      U;
}
// * * * * * * * * * * * * * * * * * * * * * * * * * * * * * * * * * * * * * //

dimensions      [0 1 -1 0 0 0 0];

internalField   nonuniform List<vector> 
4545
(
(2.21276e-05 -0.111289 -0.968452)
(2.20667e-05 -0.111289 5.97636e-08)
(2.20412e-05 -0.111289 2.40101e-10)
(2.20751e-05 -0.111289 -5.92034e-08)
(2.21408e-05 -0.111289 0.968452)
(2.23378e-05 -0.111201 -0.961393)
(2.18615e-05 -0.1112 -6.70948e-08)
(2.17911e-05 -0.111199 2.61504e-10)
(2.18682e-05 -0.1112 6.80178e-08)
(2.23465e-05 -0.111201 0.961393)
(3.08958e-05 -0.111118 -0.960757)
(3.04047e-05 -0.111119 -4.53729e-08)
(3.03543e-05 -0.111119 3.2234e-10)
(3.04085e-05 -0.111119 4.66226e-08)
(3.08992e-05 -0.111118 0.960757)
(4.78588e-05 -0.110997 -0.960109)
(4.72286e-05 -0.110997 -2.8702e-08)
(4.71524e-05 -0.110997 3.21755e-10)
(4.72288e-05 -0.110997 3.0137e-08)
(4.78565e-05 -0.110996 0.960109)
(6.98956e-05 -0.110812 -0.959456)
(6.89371e-05 -0.110812 -2.55721e-08)
(6.87935e-05 -0.110812 6.5679e-11)
(6.8935e-05 -0.110812 2.68371e-08)
(6.98904e-05 -0.110812 0.959456)
(9.52939e-05 -0.110553 -0.958789)
(9.39741e-05 -0.110553 -2.21458e-08)
(9.3768e-05 -0.110553 -2.35874e-10)
(9.3972e-05 -0.110553 2.295e-08)
(9.52899e-05 -0.110553 0.958789)
(0.000123412 -0.110213 -0.958111)
(0.000121714 -0.110213 -1.79349e-08)
(0.000121448 -0.110213 -4.65284e-10)
(0.000121713 -0.110213 1.81029e-08)
(0.000123411 -0.110213 0.958111)
(0.000154103 -0.109783 -0.957424)
(0.00015199 -0.109783 -1.37896e-08)
(0.00015166 -0.109783 -5.46397e-10)
(0.00015199 -0.109783 1.32694e-08)
(0.000154104 -0.109783 0.957424)
(0.000187565 -0.109259 -0.956729)
(0.000184994 -0.10926 -9.33097e-09)
(0.000184593 -0.10926 -4.57677e-10)
(0.000184994 -0.10926 8.23284e-09)
(0.000187567 -0.109259 0.956729)
(0.000224174 -0.108634 -0.95602)
(0.000221099 -0.108634 -3.9108e-09)
(0.00022062 -0.108634 -2.64367e-10)
(0.000221098 -0.108634 2.48187e-09)
(0.000224176 -0.108634 0.95602)
(0.000264325 -0.107901 -0.955299)
(0.000260694 -0.107901 3.08622e-09)
(0.000260129 -0.107901 -3.66097e-10)
(0.000260694 -0.107901 -4.54674e-09)
(0.000264327 -0.107901 0.955299)
(0.000308358 -0.10705 -0.95457)
(0.000304117 -0.107051 1.22968e-08)
(0.000303455 -0.107051 1.34473e-10)
(0.000304117 -0.107051 -1.31303e-08)
(0.00030836 -0.10705 0.95457)
(0.000356508 -0.106074 -0.953824)
(0.000351598 -0.106075 2.42046e-08)
(0.000350828 -0.106075 8.54991e-10)
(0.000351598 -0.106075 -2.39042e-08)
(0.000356509 -0.106074 0.953824)
(0.000408898 -0.104963 -0.953078)
(0.000403257 -0.104964 3.91457e-08)
(0.00040237 -0.104964 1.61393e-09)
(0.000403258 -0.104964 -3.74406e-08)
(0.000408898 -0.104963 0.953078)
(0.000465512 -0.103707 -0.952309)
(0.00045908 -0.103708 5.73852e-08)
(0.000458065 -0.103708 2.25299e-09)
(0.000459081 -0.103708 -5.42887e-08)
(0.000465512 -0.103707 0.952308)
(0.000526174 -0.102298 -0.95153)
(0.000518891 -0.102299 7.90003e-08)
(0.000517736 -0.102299 2.63457e-09)
(0.000518891 -0.102299 -7.48199e-08)
(0.000526173 -0.102298 0.95153)
(0.000590569 -0.100727 -0.95074)
(0.000582378 -0.100728 1.0401e-07)
(0.000581075 -0.100728 2.66265e-09)
(0.000582378 -0.100728 -9.92977e-08)
(0.000590567 -0.100727 0.95074)
(0.000658203 -0.0989855 -0.949934)
(0.000649052 -0.0989866 1.32325e-07)
(0.00064759 -0.0989869 2.32354e-09)
(0.000649052 -0.0989866 -1.27758e-07)
(0.000658201 -0.0989855 0.949934)
(0.00072841 -0.097068 -0.949119)
(0.000718256 -0.0970693 1.63781e-07)
(0.000716628 -0.0970696 1.68941e-09)
(0.000718256 -0.0970693 -1.60008e-07)
(0.00072841 -0.097068 0.949119)
(0.000800346 -0.0949693 -0.948282)
(0.000789152 -0.0949708 1.98189e-07)
(0.000787351 -0.0949712 9.07807e-10)
(0.000789153 -0.0949708 -1.95676e-07)
(0.000800347 -0.0949693 0.948282)
(0.000873 -0.0926869 -0.947433)
(0.00086074 -0.0926885 2.35327e-07)
(0.00085876 -0.092689 1.73799e-10)
(0.000860741 -0.0926885 -2.34224e-07)
(0.000873002 -0.0926869 0.947433)
(0.000945228 -0.0902197 -0.946568)
(0.000931888 -0.0902215 2.75013e-07)
(0.000929726 -0.0902221 -3.29933e-10)
(0.00093189 -0.0902215 -2.75122e-07)
(0.000945231 -0.0902197 0.946568)
(0.00101576 -0.0875696 -0.945683)
(0.00100134 -0.0875715 3.1705e-07)
(0.000998998 -0.0875722 -4.33737e-10)
(0.00100134 -0.0875715 -3.17801e-07)
(0.00101577 -0.0875696 0.945683)
(0.00108327 -0.0847409 -0.944778)
(0.00106778 -0.084743 3.61142e-07)
(0.00106525 -0.0847437 -1.4276e-10)
(0.00106778 -0.084743 -3.61822e-07)
(0.00108327 -0.0847409 0.944778)
(0.00114638 -0.0817405 -0.943852)
(0.00112985 -0.0817428 4.07014e-07)
(0.00112715 -0.0817435 5.88066e-10)
(0.00112985 -0.0817428 -4.06797e-07)
(0.00114638 -0.0817405 0.943852)
(0.00120377 -0.0785782 -0.942902)
(0.00118625 -0.0785805 4.5412e-07)
(0.00118338 -0.0785813 1.52224e-09)
(0.00118625 -0.0785805 -4.52449e-07)
(0.00120377 -0.0785782 0.942902)
(0.00125424 -0.0752659 -0.941928)
(0.00123578 -0.0752683 5.01772e-07)
(0.00123274 -0.0752691 2.4477e-09)
(0.00123578 -0.0752683 -4.98497e-07)
(0.00125423 -0.0752659 0.941928)
(0.00129671 -0.0718179 -0.940927)
(0.00127738 -0.0718204 5.49291e-07)
(0.0012742 -0.0718212 3.22939e-09)
(0.00127738 -0.0718204 -5.44486e-07)
(0.00129671 -0.0718179 0.940927)
(0.00133038 -0.0682507 -0.939894)
(0.00131026 -0.0682531 5.95689e-07)
(0.00130694 -0.068254 3.596e-09)
(0.00131026 -0.0682531 -5.89975e-07)
(0.00133038 -0.0682507 0.939894)
(0.0013547 -0.0645819 -0.93883)
(0.00133388 -0.0645843 6.40138e-07)
(0.00133044 -0.0645852 3.61612e-09)
(0.00133388 -0.0645843 -6.34182e-07)
(0.0013547 -0.0645819 0.93883)
(0.00136947 -0.0608302 -0.937731)
(0.00134804 -0.0608325 6.81837e-07)
(0.00134449 -0.0608335 3.04156e-09)
(0.00134804 -0.0608325 -6.7656e-07)
(0.00136948 -0.0608302 0.937731)
(0.00137488 -0.0570149 -0.936593)
(0.00135293 -0.0570171 7.20437e-07)
(0.00134929 -0.057018 2.34429e-09)
(0.00135294 -0.0570171 -7.16246e-07)
(0.00137489 -0.0570149 0.936593)
(0.00137152 -0.0531547 -0.935416)
(0.00134914 -0.0531568 7.55694e-07)
(0.00134543 -0.0531578 1.36692e-09)
(0.00134915 -0.0531568 -7.52981e-07)
(0.00137152 -0.0531547 0.935416)
(0.00136042 -0.0492677 -0.934194)
(0.00133771 -0.0492697 7.87789e-07)
(0.00133394 -0.0492706 6.7875e-10)
(0.00133772 -0.0492697 -7.8635e-07)
(0.00136043 -0.0492677 0.934194)
(0.00134312 -0.0453705 -0.932926)
(0.00132017 -0.0453724 8.16851e-07)
(0.00131636 -0.0453732 2.12729e-11)
(0.00132018 -0.0453724 -8.16609e-07)
(0.00134313 -0.0453705 0.932926)
(0.0013217 -0.0414772 -0.931608)
(0.0012986 -0.041479 8.43342e-07)
(0.00129475 -0.0414798 -1.90684e-10)
(0.0012986 -0.041479 -8.44157e-07)
(0.00132171 -0.0414772 0.931608)
(0.00129878 -0.0375997 -0.930237)
(0.00127563 -0.0376013 8.67308e-07)
(0.00127178 -0.0376022 -1.66619e-10)
(0.00127563 -0.0376013 -8.69424e-07)
(0.00129879 -0.0375997 0.930237)
(0.00127731 -0.0337467 -0.928812)
(0.00125427 -0.0337482 8.87046e-07)
(0.00125044 -0.033749 2.05437e-10)
(0.00125427 -0.0337482 -8.91164e-07)
(0.00127732 -0.0337466 0.928812)
(0.00125992 -0.0299223 -0.926028)
(0.00123723 -0.0299238 8.99376e-07)
(0.00123344 -0.0299246 1.63723e-09)
(0.00123722 -0.0299238 -9.05861e-07)
(0.00125993 -0.0299222 0.926028)
(8.4889e-05 -0.28705 -0.97796)
(8.49355e-05 -0.28705 5.74647e-08)
(8.49203e-05 -0.287049 1.50746e-10)
(8.4962e-05 -0.28705 -5.70834e-08)
(8.49318e-05 -0.28705 0.97796)
(0.000106945 -0.286919 -0.968136)
(0.000106587 -0.286916 -9.34235e-08)
(0.000106542 -0.286916 2.14885e-10)
(0.000106611 -0.286916 9.41437e-08)
(0.000106981 -0.286919 0.968136)
(0.00016092 -0.286764 -0.967495)
(0.000160721 -0.286764 -6.73942e-08)
(0.000160751 -0.286764 3.35891e-10)
(0.000160739 -0.286764 6.84435e-08)
(0.000160944 -0.286764 0.967495)
(0.000249613 -0.286532 -0.96684)
(0.000249516 -0.286532 -5.90992e-08)
(0.000249574 -0.286532 3.42019e-10)
(0.000249521 -0.286532 6.02508e-08)
(0.000249618 -0.286532 0.96684)
(0.000366662 -0.286181 -0.966182)
(0.000366424 -0.28618 -7.42497e-08)
(0.000366445 -0.28618 1.03333e-10)
(0.000366419 -0.28618 7.50564e-08)
(0.000366652 -0.286181 0.966182)
(0.000506004 -0.285683 -0.965509)
(0.000505617 -0.285683 -8.86584e-08)
(0.000505615 -0.285683 -2.87463e-10)
(0.000505609 -0.285683 8.87536e-08)
(0.000505992 -0.285683 0.965509)
(0.000663969 -0.285021 -0.964826)
(0.000663471 -0.28502 -1.0302e-07)
(0.000663462 -0.28502 -6.58079e-10)
(0.000663466 -0.28502 1.02289e-07)
(0.000663963 -0.285021 0.964826)
(0.000839379 -0.284177 -0.964132)
(0.00083877 -0.284177 -1.19504e-07)
(0.000838758 -0.284177 -9.4972e-10)
(0.000838768 -0.284177 1.17993e-07)
(0.00083938 -0.284177 0.964132)
(0.00103315 -0.283138 -0.963432)
(0.00103242 -0.283137 -1.37659e-07)
(0.00103241 -0.283137 -1.05301e-09)
(0.00103242 -0.283137 1.35653e-07)
(0.00103316 -0.283138 0.963432)
(0.00124751 -0.281888 -0.962717)
(0.00124664 -0.281887 -1.56885e-07)
(0.00124662 -0.281887 -9.11476e-10)
(0.00124664 -0.281887 1.54845e-07)
(0.00124751 -0.281888 0.962717)
(0.00148513 -0.28041 -0.96199)
(0.00148412 -0.280409 -1.7684e-07)
(0.00148409 -0.280409 -5.49775e-10)
(0.00148411 -0.280409 1.75292e-07)
(0.00148514 -0.28041 0.96199)
(0.00174876 -0.278686 -0.961256)
(0.00174758 -0.278685 -1.97204e-07)
(0.00174754 -0.278685 7.81031e-11)
(0.00174757 -0.278685 1.96679e-07)
(0.00174876 -0.278686 0.961256)
(0.0020408 -0.276695 -0.960504)
(0.00203943 -0.276694 -2.17679e-07)
(0.00203939 -0.276694 8.40683e-10)
(0.00203943 -0.276694 2.18527e-07)
(0.0020408 -0.276695 0.960504)
(0.00236329 -0.274414 -0.959751)
(0.00236173 -0.274413 -2.38052e-07)
(0.00236166 -0.274413 1.59353e-09)
(0.00236173 -0.274413 2.40362e-07)
(0.00236329 -0.274414 0.959751)
(0.00271775 -0.271819 -0.958977)
(0.00271597 -0.271819 -2.58062e-07)
(0.00271588 -0.271818 2.20864e-09)
(0.00271597 -0.271818 2.61658e-07)
(0.00271775 -0.271819 0.958977)
(0.00310496 -0.268889 -0.958192)
(0.00310295 -0.268888 -2.77539e-07)
(0.00310285 -0.268888 2.59832e-09)
(0.00310295 -0.268888 2.82002e-07)
(0.00310496 -0.268889 0.958192)
(0.00352516 -0.265599 -0.957397)
(0.00352291 -0.265598 -2.96249e-07)
(0.00352278 -0.265598 2.63122e-09)
(0.00352291 -0.265598 3.0095e-07)
(0.00352515 -0.265599 0.957397)
(0.00397772 -0.261926 -0.956585)
(0.00397522 -0.261926 -3.13956e-07)
(0.00397507 -0.261926 2.28495e-09)
(0.00397522 -0.261926 3.18204e-07)
(0.00397771 -0.261926 0.956585)
(0.00446118 -0.25785 -0.955765)
(0.00445844 -0.25785 -3.30404e-07)
(0.00445827 -0.25785 1.64603e-09)
(0.00445844 -0.25785 3.3362e-07)
(0.00446118 -0.25785 0.955765)
(0.00497317 -0.253351 -0.954923)
(0.00497018 -0.253351 -3.4525e-07)
(0.00496998 -0.253351 8.77148e-10)
(0.00497018 -0.253351 3.47107e-07)
(0.00497317 -0.253351 0.954923)
(0.00551027 -0.248414 -0.954068)
(0.00550704 -0.248414 -3.58129e-07)
(0.00550682 -0.248414 1.80691e-10)
(0.00550704 -0.248414 3.58643e-07)
(0.00551027 -0.248414 0.954068)
(0.00606824 -0.243026 -0.953197)
(0.00606478 -0.243026 -3.6858e-07)
(0.00606453 -0.243026 -2.83535e-10)
(0.00606478 -0.243026 3.68113e-07)
(0.00606825 -0.243026 0.953197)
(0.00664186 -0.237178 -0.952307)
(0.00663819 -0.237178 -3.76105e-07)
(0.00663792 -0.237179 -1.87897e-10)
(0.00663819 -0.237178 3.75394e-07)
(0.00664187 -0.237178 0.952307)
(0.00722514 -0.230868 -0.951396)
(0.00722126 -0.230868 -3.80484e-07)
(0.00722097 -0.230869 -7.43974e-11)
(0.00722126 -0.230868 3.80041e-07)
(0.00722514 -0.230868 0.951396)
(0.00781141 -0.224096 -0.950464)
(0.00780735 -0.224097 -3.81093e-07)
(0.00780705 -0.224097 1.01846e-09)
(0.00780735 -0.224097 3.82015e-07)
(0.00781141 -0.224096 0.950464)
(0.00839359 -0.216871 -0.949508)
(0.00838937 -0.216872 -3.78163e-07)
(0.00838906 -0.216872 1.93604e-09)
(0.00838937 -0.216872 3.80579e-07)
(0.00839358 -0.216871 0.949508)
(0.00896441 -0.209205 -0.948527)
(0.00896007 -0.209205 -3.71833e-07)
(0.00895975 -0.209206 2.28075e-09)
(0.00896006 -0.209205 3.75403e-07)
(0.0089644 -0.209205 0.948527)
(0.00951672 -0.201116 -0.947519)
(0.00951228 -0.201117 -3.61888e-07)
(0.00951198 -0.201118 3.21636e-09)
(0.00951229 -0.201117 3.66778e-07)
(0.00951672 -0.201116 0.947519)
(0.0100438 -0.192629 -0.946478)
(0.0100393 -0.19263 -3.49209e-07)
(0.010039 -0.192631 3.04932e-09)
(0.0100393 -0.19263 3.5443e-07)
(0.0100438 -0.192629 0.946478)
(0.0105395 -0.183773 -0.945406)
(0.010535 -0.183774 -3.33829e-07)
(0.0105347 -0.183775 3.31625e-09)
(0.010535 -0.183774 3.39135e-07)
(0.0105395 -0.183773 0.945406)
(0.010999 -0.174581 -0.944297)
(0.0109944 -0.174582 -3.16667e-07)
(0.0109941 -0.174583 2.37556e-09)
(0.0109944 -0.174582 3.2099e-07)
(0.010999 -0.174581 0.944297)
(0.0114185 -0.165089 -0.943149)
(0.0114139 -0.165091 -2.97629e-07)
(0.0114137 -0.165093 2.16645e-09)
(0.0114139 -0.165091 3.01082e-07)
(0.0114185 -0.165089 0.943149)
(0.0117959 -0.155339 -0.94196)
(0.0117914 -0.155341 -2.77359e-07)
(0.0117912 -0.155342 9.75506e-10)
(0.0117914 -0.155341 2.79448e-07)
(0.0117959 -0.155339 0.94196)
(0.0121309 -0.145369 -0.940726)
(0.0121265 -0.145371 -2.55522e-07)
(0.0121263 -0.145373 9.59293e-10)
(0.0121265 -0.145371 2.57014e-07)
(0.0121309 -0.145369 0.940726)
(0.0124251 -0.135222 -0.939443)
(0.0124206 -0.135225 -2.32566e-07)
(0.0124205 -0.135226 9.45808e-11)
(0.0124206 -0.135224 2.33455e-07)
(0.0124251 -0.135222 0.939443)
(0.0126818 -0.124939 -0.938111)
(0.0126774 -0.124941 -2.08115e-07)
(0.0126773 -0.124942 3.12077e-10)
(0.0126774 -0.124941 2.09472e-07)
(0.0126818 -0.124939 0.938111)
(0.0129065 -0.114557 -0.936723)
(0.0129021 -0.114559 -1.82361e-07)
(0.012902 -0.114561 8.80737e-10)
(0.0129021 -0.114559 1.84824e-07)
(0.0129065 -0.114557 0.936723)
(0.0131052 -0.104113 -0.93528)
(0.0131009 -0.104117 -1.53202e-07)
(0.0131007 -0.104118 6.72415e-10)
(0.0131009 -0.104117 1.56187e-07)
(0.0131052 -0.104113 0.93528)
(0.0132832 -0.0936443 -0.932579)
(0.0132788 -0.093648 -1.14513e-07)
(0.0132786 -0.0936494 2.88058e-10)
(0.0132788 -0.0936481 1.16895e-07)
(0.0132832 -0.0936443 0.932579)
(0.000161726 -0.39589 -0.97965)
(0.000161715 -0.395889 6.15441e-08)
(0.000161684 -0.395889 6.15056e-11)
(0.00016175 -0.395889 -6.13147e-08)
(0.000161784 -0.39589 0.97965)
(0.000223552 -0.395759 -0.968168)
(0.000223701 -0.395757 -8.60844e-08)
(0.000223723 -0.395756 1.8723e-10)
(0.000223736 -0.395756 8.66549e-08)
(0.000223606 -0.395759 0.968168)
(0.00035021 -0.395595 -0.967527)
(0.000350627 -0.395595 -4.95194e-08)
(0.000350737 -0.395595 3.16076e-10)
(0.000350653 -0.395595 5.03845e-08)
(0.000350249 -0.395595 0.967527)
(0.000547223 -0.395349 -0.966872)
(0.000547947 -0.395349 -3.03475e-08)
(0.000548126 -0.395349 2.67011e-10)
(0.000547955 -0.395349 3.11849e-08)
(0.000547234 -0.395349 0.966872)
(0.000809496 -0.39497 -0.966214)
(0.000810418 -0.39497 -3.6714e-08)
(0.000810625 -0.39497 -1.42185e-10)
(0.000810411 -0.39497 3.70166e-08)
(0.000809484 -0.39497 0.966214)
(0.00112728 -0.394427 -0.965541)
(0.00112841 -0.394427 -3.87763e-08)
(0.00112865 -0.394427 -8.22275e-10)
(0.0011284 -0.394427 3.81751e-08)
(0.00112726 -0.394427 0.965541)
(0.00149248 -0.393694 -0.964858)
(0.00149388 -0.393694 -3.74943e-08)
(0.00149417 -0.393694 -1.13474e-09)
(0.00149387 -0.393694 3.61105e-08)
(0.00149247 -0.393694 0.964858)
(0.00190176 -0.392749 -0.964165)
(0.00190347 -0.392749 -3.6625e-08)
(0.00190381 -0.392749 -1.49052e-09)
(0.00190346 -0.392749 3.45527e-08)
(0.00190176 -0.392749 0.964165)
(0.00235665 -0.391573 -0.963464)
(0.00235868 -0.391573 -3.55733e-08)
(0.00235909 -0.391573 -1.56608e-09)
(0.00235868 -0.391573 3.32262e-08)
(0.00235665 -0.391573 0.963464)
(0.00286204 -0.390147 -0.962749)
(0.00286442 -0.390147 -3.34825e-08)
(0.00286489 -0.390147 -1.23514e-09)
(0.00286442 -0.390147 3.14539e-08)
(0.00286204 -0.390147 0.962749)
(0.00342448 -0.38845 -0.962022)
(0.00342723 -0.38845 -2.998e-08)
(0.00342777 -0.38845 -5.23736e-10)
(0.00342723 -0.38845 2.88311e-08)
(0.00342448 -0.38845 0.962022)
(0.00405105 -0.386458 -0.961288)
(0.00405421 -0.386458 -2.47242e-08)
(0.0040548 -0.386458 2.26448e-10)
(0.0040542 -0.386458 2.47783e-08)
(0.00405105 -0.386458 0.961288)
(0.00474852 -0.384144 -0.960536)
(0.00475209 -0.384144 -1.72653e-08)
(0.00475276 -0.384145 9.68129e-10)
(0.00475209 -0.384144 1.86622e-08)
(0.00474851 -0.384144 0.960536)
(0.00552307 -0.38148 -0.959783)
(0.00552709 -0.381481 -7.26999e-09)
(0.00552782 -0.381481 1.55742e-09)
(0.00552708 -0.381481 9.90603e-09)
(0.00552306 -0.38148 0.959783)
(0.00637998 -0.378435 -0.959009)
(0.00638446 -0.378435 5.52938e-09)
(0.00638527 -0.378435 1.95067e-09)
(0.00638446 -0.378435 -1.94577e-09)
(0.00637997 -0.378435 0.959009)
(0.00732314 -0.374976 -0.958224)
(0.00732811 -0.374977 2.13654e-08)
(0.00732899 -0.374977 2.41037e-09)
(0.00732811 -0.374977 -1.72148e-08)
(0.00732313 -0.374976 0.958224)
(0.00835539 -0.371071 -0.957429)
(0.00836087 -0.371072 4.0615e-08)
(0.00836181 -0.371073 2.4971e-09)
(0.00836087 -0.371072 -3.64691e-08)
(0.00835539 -0.371071 0.957429)
(0.00947784 -0.366687 -0.956617)
(0.00948383 -0.366688 6.3484e-08)
(0.00948484 -0.366688 2.14203e-09)
(0.00948382 -0.366688 -5.99223e-08)
(0.00947783 -0.366687 0.956617)
(0.0106899 -0.36179 -0.955797)
(0.0106964 -0.361792 9.01245e-08)
(0.0106974 -0.361792 1.48091e-09)
(0.0106964 -0.361792 -8.75626e-08)
(0.0106899 -0.36179 0.955797)
(0.0119888 -0.35635 -0.954956)
(0.0119958 -0.356352 1.20657e-07)
(0.011997 -0.356352 7.04027e-10)
(0.0119958 -0.356352 -1.19249e-07)
(0.0119888 -0.35635 0.954956)
(0.0133697 -0.350337 -0.954102)
(0.0133772 -0.350339 1.55019e-07)
(0.0133784 -0.35034 8.81491e-11)
(0.0133772 -0.350339 -1.54601e-07)
(0.0133697 -0.350337 0.954102)
(0.0148256 -0.343726 -0.953233)
(0.0148336 -0.343728 1.93161e-07)
(0.0148349 -0.343729 -7.43919e-10)
(0.0148336 -0.343728 -1.93395e-07)
(0.0148256 -0.343726 0.953233)
(0.016347 -0.336493 -0.952344)
(0.0163555 -0.336496 2.3527e-07)
(0.0163568 -0.336497 1.21618e-09)
(0.0163555 -0.336496 -2.34936e-07)
(0.016347 -0.336493 0.952344)
(0.0179223 -0.328623 -0.951435)
(0.0179312 -0.328626 2.79895e-07)
(0.0179326 -0.328627 -1.65848e-09)
(0.0179312 -0.328626 -2.79885e-07)
(0.0179223 -0.328623 0.951435)
(0.0195377 -0.320104 -0.950506)
(0.019547 -0.320107 3.28583e-07)
(0.0195484 -0.320108 3.29285e-09)
(0.019547 -0.320107 -3.26083e-07)
(0.0195377 -0.320104 0.950506)
(0.0211778 -0.31093 -0.949553)
(0.0211875 -0.310933 3.78933e-07)
(0.021189 -0.310934 4.86407e-09)
(0.0211875 -0.310933 -3.75102e-07)
(0.0211777 -0.310929 0.949553)
(0.0228257 -0.301103 -0.948575)
(0.0228358 -0.301107 4.29318e-07)
(0.0228374 -0.301108 -1.9937e-10)
(0.0228358 -0.301107 -4.2635e-07)
(0.0228257 -0.301103 0.948575)
(0.0244641 -0.290633 -0.947571)
(0.0244745 -0.290637 4.82163e-07)
(0.0244761 -0.290638 5.35122e-09)
(0.0244745 -0.290637 -4.77446e-07)
(0.0244641 -0.290633 0.947571)
(0.026075 -0.279538 -0.946535)
(0.0260857 -0.279542 5.32793e-07)
(0.0260874 -0.279543 -4.84264e-10)
(0.0260857 -0.279542 -5.29492e-07)
(0.0260751 -0.279538 0.946535)
(0.0276413 -0.267842 -0.945467)
(0.0276522 -0.267846 5.84221e-07)
(0.0276538 -0.267847 5.60067e-09)
(0.0276522 -0.267846 -5.79748e-07)
(0.0276413 -0.267842 0.945467)
(0.0291467 -0.255577 -0.944364)
(0.0291578 -0.255581 6.31869e-07)
(0.0291595 -0.255583 -1.68551e-09)
(0.0291578 -0.255581 -6.29683e-07)
(0.0291467 -0.255577 0.944364)
(0.0305772 -0.242785 -0.943221)
(0.0305884 -0.242789 6.79068e-07)
(0.0305901 -0.242791 5.29129e-09)
(0.0305884 -0.242789 -6.75933e-07)
(0.0305772 -0.242785 0.943221)
(0.031921 -0.22951 -0.942038)
(0.0319323 -0.229514 7.21635e-07)
(0.031934 -0.229516 -3.05995e-09)
(0.0319323 -0.229514 -7.20995e-07)
(0.0319211 -0.22951 0.942038)
(0.0331697 -0.215804 -0.940809)
(0.0331809 -0.215808 7.63196e-07)
(0.0331826 -0.21581 5.30426e-09)
(0.0331809 -0.215808 -7.61289e-07)
(0.0331697 -0.215804 0.940809)
(0.0343179 -0.201723 -0.939532)
(0.034329 -0.201726 7.99504e-07)
(0.0343307 -0.201728 -3.61617e-09)
(0.034329 -0.201726 -8.00117e-07)
(0.0343179 -0.201723 0.939532)
(0.035364 -0.187323 -0.938205)
(0.0353749 -0.187327 8.33951e-07)
(0.0353766 -0.187328 -9.55135e-10)
(0.0353749 -0.187327 -8.33965e-07)
(0.035364 -0.187323 0.938205)
(0.0363092 -0.172667 -0.936821)
(0.0363199 -0.17267 8.65141e-07)
(0.0363216 -0.172671 4.17547e-09)
(0.0363199 -0.17267 -8.63379e-07)
(0.0363092 -0.172667 0.936821)
(0.0371564 -0.157813 -0.935382)
(0.0371667 -0.157816 8.9036e-07)
(0.0371683 -0.157817 9.8204e-10)
(0.0371667 -0.157816 -8.88616e-07)
(0.0371564 -0.157813 0.935382)
(0.0379056 -0.142823 -0.932777)
(0.0379153 -0.142826 9.06184e-07)
(0.0379168 -0.142827 1.67045e-09)
(0.0379153 -0.142826 -9.03925e-07)
(0.0379055 -0.142823 0.932777)
(0.000232638 -0.450313 -0.980495)
(0.000232321 -0.450312 5.77063e-08)
(0.000232221 -0.450312 -9.42554e-12)
(0.000232351 -0.450312 -5.75962e-08)
(0.000232686 -0.450312 0.980495)
(0.000328878 -0.450194 -0.968182)
(0.000329035 -0.450192 -8.34033e-08)
(0.00032905 -0.450191 1.42024e-10)
(0.000329064 -0.450192 8.38291e-08)
(0.000328923 -0.450194 0.968182)
(0.000522587 -0.450046 -0.96754)
(0.000522921 -0.450047 -4.66349e-08)
(0.000523005 -0.450046 2.54627e-10)
(0.00052294 -0.450046 4.72893e-08)
(0.000522616 -0.450046 0.96754)
(0.000821378 -0.449825 -0.966884)
(0.000821825 -0.449825 -2.6773e-08)
(0.000821946 -0.449825 1.6051e-10)
(0.000821826 -0.449825 2.72934e-08)
(0.000821379 -0.449825 0.966884)
(0.00122283 -0.449481 -0.966224)
(0.00122333 -0.449481 -3.55852e-08)
(0.00122346 -0.449481 -1.29036e-10)
(0.00122331 -0.449481 3.55991e-08)
(0.00122281 -0.449481 0.966224)
(0.00171535 -0.448981 -0.96555)
(0.00171586 -0.44898 -4.05428e-08)
(0.00171599 -0.44898 -5.39176e-10)
(0.00171584 -0.44898 3.98028e-08)
(0.00171532 -0.44898 0.96555)
(0.00228697 -0.448297 -0.964866)
(0.0022875 -0.448297 -4.22817e-08)
(0.00228764 -0.448297 -8.67896e-10)
(0.00228749 -0.448297 4.08514e-08)
(0.00228695 -0.448297 0.964866)
(0.00293192 -0.447406 -0.964171)
(0.00293246 -0.447406 -4.48849e-08)
(0.00293261 -0.447406 -1.06268e-09)
(0.00293246 -0.447406 4.30084e-08)
(0.00293191 -0.447406 0.964171)
(0.00365184 -0.446288 -0.963468)
(0.00365239 -0.446287 -4.7995e-08)
(0.00365254 -0.446287 -1.04571e-09)
(0.00365239 -0.446287 4.60994e-08)
(0.00365184 -0.446287 0.963468)
(0.00445407 -0.44492 -0.962752)
(0.00445461 -0.44492 -5.08606e-08)
(0.00445475 -0.44492 -7.70607e-10)
(0.00445461 -0.44492 4.94466e-08)
(0.00445406 -0.44492 0.962752)
(0.00534908 -0.443282 -0.962023)
(0.0053496 -0.443282 -5.32634e-08)
(0.00534973 -0.443282 -2.62872e-10)
(0.00534959 -0.443282 5.27585e-08)
(0.00534907 -0.443282 0.962023)
(0.00634878 -0.441348 -0.961287)
(0.00634927 -0.441348 -5.50999e-08)
(0.00634938 -0.441348 3.47195e-10)
(0.00634926 -0.441348 5.57132e-08)
(0.00634877 -0.441348 0.961287)
(0.00746503 -0.439091 -0.960532)
(0.00746545 -0.439091 -5.6235e-08)
(0.00746553 -0.43909 9.45034e-10)
(0.00746545 -0.43909 5.79465e-08)
(0.00746502 -0.43909 0.960532)
(0.00870917 -0.436477 -0.959777)
(0.00870951 -0.436477 -5.66018e-08)
(0.00870955 -0.436477 1.44224e-09)
(0.0087095 -0.436477 5.92079e-08)
(0.00870916 -0.436477 0.959777)
(0.0100915 -0.433474 -0.959001)
(0.0100917 -0.433475 -5.60346e-08)
(0.0100917 -0.433475 1.79696e-09)
(0.0100917 -0.433475 5.92234e-08)
(0.0100915 -0.433474 0.959001)
(0.0116205 -0.430047 -0.958213)
(0.0116206 -0.430047 -5.44448e-08)
(0.0116205 -0.430047 2.0093e-09)
(0.0116206 -0.430047 5.78612e-08)
(0.0116205 -0.430047 0.958213)
(0.0133034 -0.426155 -0.957415)
(0.0133033 -0.426156 -5.16835e-08)
(0.0133031 -0.426156 2.01022e-09)
(0.0133032 -0.426155 5.49486e-08)
(0.0133034 -0.426155 0.957415)
(0.0151448 -0.421761 -0.9566)
(0.0151444 -0.421761 -4.76307e-08)
(0.0151442 -0.421761 1.80944e-09)
(0.0151444 -0.421761 5.04309e-08)
(0.0151448 -0.421761 0.9566)
(0.0171471 -0.416823 -0.955778)
(0.0171465 -0.416824 -4.21467e-08)
(0.0171462 -0.416824 1.47191e-09)
(0.0171465 -0.416824 4.43012e-08)
(0.0171471 -0.416823 0.955778)
(0.0193097 -0.411302 -0.954934)
(0.0193087 -0.411303 -3.49612e-08)
(0.0193083 -0.411304 1.08656e-09)
(0.0193087 -0.411303 3.64729e-08)
(0.0193097 -0.411302 0.954934)
(0.0216284 -0.405159 -0.954078)
(0.021627 -0.40516 -2.58483e-08)
(0.0216264 -0.405161 7.39779e-10)
(0.021627 -0.40516 2.68927e-08)
(0.0216284 -0.405159 0.954078)
(0.0240957 -0.398357 -0.953207)
(0.024094 -0.398358 -1.46063e-08)
(0.0240933 -0.398359 7.72075e-10)
(0.024094 -0.398358 1.55439e-08)
(0.0240958 -0.398357 0.953207)
(0.0267005 -0.39086 -0.952317)
(0.0266983 -0.390861 -1.19688e-09)
(0.0266975 -0.390862 1.08053e-09)
(0.0266983 -0.390861 2.45314e-09)
(0.0267005 -0.39086 0.952317)
(0.0294273 -0.382638 -0.951408)
(0.0294246 -0.38264 1.3935e-08)
(0.0294237 -0.382641 9.76878e-10)
(0.0294246 -0.38264 -1.24008e-08)
(0.0294273 -0.382638 0.951408)
(0.0322571 -0.373666 -0.950478)
(0.032254 -0.373668 3.12361e-08)
(0.032253 -0.373669 1.62784e-09)
(0.032254 -0.373668 -2.88878e-08)
(0.0322571 -0.373666 0.950478)
(0.0351674 -0.363924 -0.949526)
(0.0351638 -0.363927 5.00359e-08)
(0.0351627 -0.363928 1.89618e-09)
(0.0351638 -0.363927 -4.72338e-08)
(0.0351673 -0.363924 0.949526)
(0.0381322 -0.353401 -0.948551)
(0.0381283 -0.353403 6.99351e-08)
(0.038127 -0.353405 1.51249e-09)
(0.0381283 -0.353403 -6.72472e-08)
(0.0381322 -0.353401 0.948551)
(0.0411235 -0.342092 -0.947549)
(0.0411192 -0.342094 9.09574e-08)
(0.0411179 -0.342096 1.86531e-09)
(0.0411192 -0.342094 -8.81404e-08)
(0.0411235 -0.342092 0.947549)
(0.0441112 -0.330002 -0.946517)
(0.0441065 -0.330005 1.12283e-07)
(0.0441051 -0.330006 1.36667e-09)
(0.0441065 -0.330004 -1.0988e-07)
(0.0441112 -0.330002 0.946517)
(0.0470644 -0.317146 -0.945454)
(0.0470594 -0.317149 1.34057e-07)
(0.0470579 -0.31715 1.6727e-09)
(0.0470594 -0.317149 -1.3171e-07)
(0.0470644 -0.317146 0.945454)
(0.0499528 -0.303549 -0.944356)
(0.0499474 -0.303552 1.55517e-07)
(0.049946 -0.303553 1.11382e-09)
(0.0499474 -0.303552 -1.53603e-07)
(0.0499528 -0.303549 0.944356)
(0.0527472 -0.289246 -0.943219)
(0.0527416 -0.289248 1.76781e-07)
(0.0527401 -0.28925 1.5433e-09)
(0.0527416 -0.289248 -1.74711e-07)
(0.0527472 -0.289246 0.943219)
(0.0554213 -0.27428 -0.942043)
(0.0554154 -0.274282 1.9712e-07)
(0.055414 -0.274284 1.07335e-09)
(0.0554155 -0.274282 -1.95212e-07)
(0.0554213 -0.27428 0.942043)
(0.0579521 -0.258705 -0.940821)
(0.0579461 -0.258707 2.16685e-07)
(0.0579446 -0.258708 1.74087e-09)
(0.0579461 -0.258707 -2.14353e-07)
(0.0579521 -0.258704 0.940821)
(0.0603212 -0.242581 -0.939551)
(0.0603149 -0.242584 2.34711e-07)
(0.0603134 -0.242585 1.38953e-09)
(0.0603149 -0.242584 -2.32372e-07)
(0.0603212 -0.242581 0.939551)
(0.0625149 -0.225978 -0.938231)
(0.0625084 -0.22598 2.51558e-07)
(0.0625069 -0.225981 1.81196e-09)
(0.0625084 -0.22598 -2.48798e-07)
(0.0625149 -0.225978 0.938231)
(0.064524 -0.208967 -0.936854)
(0.0645172 -0.208969 2.67001e-07)
(0.0645157 -0.20897 2.43347e-09)
(0.0645172 -0.208969 -2.637e-07)
(0.064524 -0.208967 0.936854)
(0.0663412 -0.191624 -0.935421)
(0.0663342 -0.191626 2.81354e-07)
(0.0663327 -0.191627 2.42079e-09)
(0.0663342 -0.191626 -2.77902e-07)
(0.0663412 -0.191624 0.935421)
(0.067956 -0.174028 -0.932883)
(0.0679488 -0.17403 2.97002e-07)
(0.0679472 -0.174031 2.50802e-09)
(0.0679488 -0.17403 -2.93369e-07)
(0.0679559 -0.174028 0.932883)
(0.000295848 -0.473151 -0.980848)
(0.000295312 -0.473151 5.2081e-08)
(0.000295153 -0.473151 -3.36164e-11)
(0.000295333 -0.473151 -5.20279e-08)
(0.000295881 -0.473151 0.980848)
(0.000420478 -0.473048 -0.968185)
(0.000420685 -0.473046 -7.45266e-08)
(0.000420709 -0.473046 1.04398e-10)
(0.000420704 -0.473046 7.48352e-08)
(0.000420507 -0.473048 0.968185)
(0.000671783 -0.472922 -0.967542)
(0.00067216 -0.472922 -3.94577e-08)
(0.000672256 -0.472922 1.64274e-10)
(0.000672168 -0.472922 3.98867e-08)
(0.000671795 -0.472922 0.967542)
(0.00105992 -0.472734 -0.966883)
(0.00106031 -0.472735 -1.92979e-08)
(0.00106043 -0.472735 -1.05004e-10)
(0.0010603 -0.472735 1.94635e-08)
(0.00105991 -0.472734 0.966883)
(0.00158559 -0.47244 -0.966221)
(0.00158601 -0.47244 -2.72398e-08)
(0.00158615 -0.47244 -1.38058e-10)
(0.00158599 -0.47244 2.70301e-08)
(0.00158556 -0.47244 0.966221)
(0.00223647 -0.472009 -0.965545)
(0.00223692 -0.472009 -3.18562e-08)
(0.00223708 -0.472009 -3.89583e-10)
(0.0022369 -0.472009 3.10966e-08)
(0.00223644 -0.472009 0.965545)
(0.00299768 -0.471414 -0.964858)
(0.00299814 -0.471414 -3.31442e-08)
(0.00299832 -0.471414 -5.95845e-10)
(0.00299813 -0.471414 3.19299e-08)
(0.00299766 -0.471414 0.964858)
(0.00386129 -0.470632 -0.96416)
(0.00386177 -0.470632 -3.52021e-08)
(0.00386196 -0.470632 -6.75334e-10)
(0.00386176 -0.470632 3.38204e-08)
(0.00386127 -0.470632 0.96416)
(0.00482902 -0.469644 -0.963455)
(0.00482952 -0.469644 -3.77654e-08)
(0.00482972 -0.469644 -5.92115e-10)
(0.00482951 -0.469644 3.65918e-08)
(0.00482901 -0.469644 0.963455)
(0.00591051 -0.468428 -0.962735)
(0.00591102 -0.468428 -4.01222e-08)
(0.00591123 -0.468428 -3.40573e-10)
(0.00591101 -0.468428 3.95129e-08)
(0.0059105 -0.468428 0.962735)
(0.00712011 -0.466964 -0.962002)
(0.00712063 -0.466964 -4.21258e-08)
(0.00712084 -0.466963 3.80891e-11)
(0.00712062 -0.466964 4.23179e-08)
(0.0071201 -0.466964 0.962002)
(0.00847472 -0.465225 -0.961262)
(0.00847523 -0.465225 -4.37534e-08)
(0.00847543 -0.465225 4.50316e-10)
(0.00847522 -0.465225 4.47849e-08)
(0.00847471 -0.465225 0.961262)
(0.00999165 -0.463184 -0.960503)
(0.00999214 -0.463184 -4.49252e-08)
(0.00999234 -0.463184 8.14781e-10)
(0.00999213 -0.463184 4.66597e-08)
(0.00999164 -0.463184 0.960503)
(0.0116881 -0.46081 -0.959743)
(0.0116885 -0.46081 -4.55912e-08)
(0.0116887 -0.46081 1.09734e-09)
(0.0116885 -0.46081 4.78115e-08)
(0.0116881 -0.46081 0.959742)
(0.0135802 -0.458067 -0.958961)
(0.0135806 -0.458067 -4.55169e-08)
(0.0135808 -0.458067 1.31915e-09)
(0.0135806 -0.458067 4.79974e-08)
(0.0135802 -0.458067 0.958961)
(0.0156823 -0.454919 -0.958167)
(0.0156826 -0.454919 -4.45249e-08)
(0.0156827 -0.454919 1.46712e-09)
(0.0156826 -0.454919 4.70601e-08)
(0.0156823 -0.454919 0.958167)
(0.0180071 -0.451324 -0.957364)
(0.0180074 -0.451324 -4.23235e-08)
(0.0180075 -0.451324 1.51273e-09)