/*--------------------------------*- C++ -*----------------------------------*\
  =========                 |
  \\      /  F ield         | OpenFOAM: The Open Source CFD Toolbox
   \\    /   O peration     | Website:  https://openfoam.org
    \\  /    A nd           | Version:  9
     \\/     M anipulation  |
\*---------------------------------------------------------------------------*/
FoamFile
{
    format      ascii;
    class       volScalarField;
    location    "1.5";
    object      epsilon;
}
// * * * * * * * * * * * * * * * * * * * * * * * * * * * * * * * * * * * * * //

dimensions      [0 2 -3 0 0 0 0];

internalField   nonuniform List<scalar> 
36360
(
0.687908
0.685897
0.0768194
0.119051
0.0544284
0.0583821
0.00875235
0.0079724
0.0891177
0.00834301
0.00972653
0.00523646
0.00902178
0.00508735
0.00601544
0.00625635
0.00354208
0.00354207
0.00568751
0.00568751
0.00517851
0.00517849
0.00621076
0.00621077
0.00834304
0.0891172
0.00523645
0.00972656
0.00508733
0.00902179
0.00625634
0.00601542
0.685893
0.687895
0.119052
0.076818
0.058382
0.054426
0.0079724
0.0087523
2.80186
2.19173
1.89471
1.51634
1.31049
0.953781
0.437157
0.372487
0.777335
0.21794
0.391672
0.0587487
0.270321
0.0367924
0.0572138
0.00767167
0.0403253
0.0403282
0.00616236
0.00616264
0.00634208
0.00634247
0.00428822
0.00428822
0.217946
0.777338
0.0587504
0.391672
0.0367962
0.270334
0.00767192
0.0572158
2.19174
2.80187
1.51634
1.8947
0.953799
1.31049
0.37249
0.43715
3.95391
3.11641
3.46099
2.71092
2.73931
1.99468
2.10044
1.50957
1.4024
0.630197
1.11357
0.422505
0.905453
0.362655
0.586779
0.154428
0.329686
0.329694
0.156102
0.156108
0.14871
0.148721
0.0324649
0.0324683
0.630212
1.40242
0.422517
1.11358
0.362687
0.905496
0.154444
0.586806
3.11644
3.95395
2.71094
3.46101
1.99473
2.73934
1.5096
2.10046
4.64418
3.70855
4.33591
3.44072
3.70543
2.78758
3.26255
2.41639
1.86815
1.01196
1.65162
0.829102
1.48898
0.837314
1.20807
0.600581
0.674456
0.674464
0.506692
0.5067
0.579923
0.579941
0.358324
0.358339
1.01198
1.86817
0.829122
1.65164
0.837362
1.48904
0.600621
1.20812
3.70859
4.64425
3.44076
4.33596
2.78763
3.70547
2.41644
3.2626
5.10432
4.11789
4.89564
3.9309
4.41178
3.39943
4.08476
3.11358
2.21591
1.31781
2.05514
1.17509
1.97213
1.25758
1.74413
1.05809
0.960117
0.960125
0.826291
0.8263
0.976585
0.976605
0.788328
0.788346
1.31783
2.21593
1.17511
2.05516
1.25763
1.97219
1.05814
1.74419
4.11795
5.10441
3.93095
4.89571
3.39947
4.41179
3.11364
4.08479
5.41661
4.40179
5.2753
4.27276
4.92734
3.85726
4.69061
3.64604
2.4672
1.54467
2.3523
1.44051
2.34455
1.58621
2.17189
1.43354
1.1743
1.1743
1.07576
1.07577
1.28663
1.28665
1.14258
1.1426
1.54468
2.46722
1.44053
2.35232
1.58626
2.34459
1.43359
2.17194
4.40184
5.41671
4.27281
5.27538
3.85727
4.9273
3.64607
4.6906
5.62141
4.59087
5.52995
4.50614
5.28654
4.18087
5.12415
4.0341
2.6399
1.70322
2.5622
1.63164
2.61268
1.82464
2.49072
1.71603
1.32513
1.32513
1.25693
1.25693
1.51186
1.51187
1.40921
1.40922
1.70322
2.63991
1.63166
2.56222
1.82467
2.6127
1.71607
2.49075
4.59092
5.62151
4.50619
5.53004
4.18083
5.28644
4.03408
5.12409
5.74654
4.70782
5.69189
4.65656
5.51944
4.39312
5.41646
4.29898
2.75043
1.80652
2.70182
1.76092
2.79132
1.98465
2.71193
1.91342
1.42417
1.42417
1.38037
1.38037
1.66342
1.66343
1.5959
1.59591
1.80652
2.75043
1.76093
2.70183
1.98466
2.79131
1.91344
2.71193
4.70787
5.74665
4.65662
5.69198
4.39303
5.51928
4.29891
5.41634
5.81254
4.77117
5.78511
4.7446
5.6552
4.51835
5.59725
4.46468
2.81387
1.86747
2.78705
1.84152
2.89879
2.0819
2.85263
2.04002
1.48328
1.48328
1.45802
1.45802
1.75598
1.75598
1.71605
1.71606
1.86746
2.81386
1.84152
2.78705
2.08191
2.89877
2.04003
2.85261
4.77121
5.81265
4.74464
5.7852
4.51823
5.655
4.46457
5.59707
5.83611
4.79602
5.82812
4.78706
5.72007
4.57942
5.69459
4.55519
2.84318
1.89755
2.83198
1.88573
2.9533
2.13234
2.93148
2.11196
1.51325
1.51324
1.50133
1.50132
1.80449
1.8045
1.78479
1.7848
1.89754
2.84315
1.88572
2.83197
2.13235
2.95327
2.11197
2.93145
4.79604
5.83621
4.7871
5.8282
4.5793
5.71985
4.55506
5.69438
5.8301
4.79373
5.83561
4.79716
5.73393
4.59407
5.73178
4.59127
2.84854
1.90617
2.84826
1.90408
2.97015
2.14988
2.9655
2.14442
1.52302
1.52301
1.52022
1.52021
1.8222
1.82221
1.81644
1.81645
1.90614
2.84848
1.90406
2.84823
2.1499
2.97012
2.14443
2.96547
4.79365
5.83009
4.79717
5.83569
4.59396
5.73374
4.59114
5.73157
5.80123
4.77134
5.81806
4.78461
5.7162
4.58022
5.7294
4.59081
2.83832
1.90129
2.84529
1.90516
2.96403
2.14715
2.96942
2.15015
1.52017
1.52015
1.5228
1.52279
1.82075
1.82076
1.82292
1.82293
1.90124
2.83822
1.90512
2.84522
2.14717
2.96401
2.15017
2.96939
4.77142
5.80143
4.78455
5.81795
4.5801
5.71601
4.59069
5.72922
5.75894
4.73746
5.7808
4.75502
5.675
4.54545
5.69705
4.56413
2.81756
1.88694
2.82879
1.89494
2.94065
2.12972
2.95354
2.1396
1.50852
1.50849
1.51514
1.51512
1.80587
1.80588
1.81449
1.8145
1.88686
2.81744
1.89488
2.82868
2.12973
2.94061
2.13961
2.95351
4.73723
5.75882
4.75485
5.78077
4.54537
5.67483
4.56403
5.69687
5.7125
4.69974
5.73532
4.71845
5.62313
4.50115
5.64957
4.52376
2.79184
1.86795
2.80505
1.87788
2.90928
2.10517
2.92558
2.11803
1.49246
1.49243
1.50092
1.50089
1.78421
1.78421
1.79559
1.79559
1.86786
2.79169
1.87779
2.80492
2.10516
2.90924
2.11802
2.92552
4.69955
5.71231
4.71825
5.73518
4.50106
5.62296
4.52365
5.6494
5.66237
4.65892
5.687
4.67879
5.56613
4.45212
5.59462
4.47663
2.76391
1.84675
2.77798
1.85756
2.87391
2.07701
2.89182
2.09134
1.47424
1.47421
1.48357
1.48355
1.75911
1.75911
1.77191
1.7719
1.84666
2.76378
1.85748
2.77787
2.07698
2.87384
2.09132
2.89176
4.65926
5.66315
4.67913
5.68741
4.45202
5.56597
4.47655
5.59449
5.6119
4.61793
5.63664
4.63805
5.50629
4.40054
5.53611
4.4262
2.73484
1.82451
2.74943
1.83576
2.8366
2.0471
2.85534
2.06217
1.455
1.45495
1.46476
1.46472
1.73234
1.73232
1.74583
1.74582
1.82439
2.73464
1.83566
2.74927
2.04703
2.83644
2.06211
2.85522
4.61717
5.61125
4.63782
5.63683
4.40031
5.50596
4.42602
5.53587
5.55929
4.57516
5.58531
4.59623
5.44435
4.34722
5.47514
4.37369
2.70498
1.80162
2.71994
1.81316
2.79802
2.01616
2.81734
2.03169
1.43517
1.43513
1.44519
1.44515
1.70463
1.70461
1.71854
1.71852
1.8015
2.7048
1.81305
2.71975
2.01608
2.79785
2.03161
2.81717
4.57507
5.55925
4.5957
5.58458
4.34693
5.44396
4.37342
5.47477
5.5043
4.53101
5.53149
4.5527
5.38072
4.2925
5.41237
4.31967
2.67446
1.77824
2.68975
1.79002
2.75854
1.98448
2.77831
2.00037
1.41492
1.41488
1.42515
1.42511
1.67625
1.67623
1.69048
1.69046
1.7781
2.67424
1.78991
2.68956
1.9844
2.75833
2.00029
2.77812
4.53066
5.50397
4.55235
5.53125
4.29214
5.38022
4.31936
5.41194
5.44864
4.48654
5.47594
4.50842
5.31504
4.23613
5.34777
4.26417
2.64314
1.75428
2.65885
1.76637
2.718
1.95202
2.73832
1.96831
1.3942
1.39416
1.40467
1.40463
1.64719
1.64717
1.66177
1.66175
1.75414
2.64288
1.76624
2.65863
1.95194
2.71778
1.96822
2.73809
4.48625
5.44822
4.50812
5.47561
4.2357
5.31444
4.26377
5.34722
5.38956
4.43964
5.41882
4.46261
5.24737
4.17816
5.28111
4.20702
2.61095
1.72973
2.62711
1.74212
2.6764
1.91873
2.69726
1.93545
1.37298
1.37294
1.38371
1.38367
1.6174
1.61739
1.63236
1.63234
1.7296
2.61069
1.74199
2.62685
1.91867
2.67619
1.93537
2.69703
4.43981
5.38996
4.46278
5.41888
4.17768
5.2467
4.20654
5.28045
5.32926
4.39217
5.35901
4.41558
5.17719
4.11813
5.21223
4.14805
2.57772
1.70446
2.59442
1.71722
2.63353
1.88451
2.65504
1.9017
1.35119
1.35117
1.36221
1.36218
1.58681
1.58682
1.60218
1.60218
1.70439
2.57757
1.71713
2.59422
1.88451
2.63344
1.90167
2.65488
4.39152
5.32877
4.41535
5.35908
4.11789
5.17679
4.14767
5.21167
5.26651
4.34262
5.29767
4.36714
5.10479
4.05629
5.14089
4.08709
2.54352
1.6785
2.56069
1.6916
2.58945
1.84935
2.61156
1.86701
1.32881
1.32881
1.34012
1.34011
1.5554
1.55542
1.57118
1.57119
1.67847
2.54344
1.69156
2.56058
1.84939
2.58944
1.86703
2.61151
4.34238
5.26627
4.36656
5.29697
4.05614
5.10454
4.08689
5.14058
5.20145
4.29199
5.23303
4.31642
5.03042
3.99292
5.06723
4.02418
2.50862
1.65193
2.52601
1.6653
2.54427
1.8133
2.56685
1.83139
1.30589
1.3059
1.31746
1.31746
1.52316
1.52319
1.53934
1.53937
1.65195
2.50866
1.6653
2.526
1.81338
2.54436
1.83145
2.56689
4.29215
5.20148
4.31621
5.2328
3.99299
5.03043
4.02413
5.06709
5.13747
4.24268
5.16836
4.26631
4.95583
3.92945
4.99267
3.96074
2.47371
1.625
2.49108
1.63854
2.49848
1.77648
2.52136
1.79495
1.28252
1.28253
1.29431
1.29433
1.49014
1.49018
1.50672
1.50676
1.62505
2.47381
1.63859
2.49117
1.77659
2.49864
1.79505
2.52149
4.2433
5.13841
4.26699
5.16908
3.92963
4.95598
3.96087
4.99277
5.07282
4.19243
5.10521
4.21757
4.87947
3.86419
4.91779
3.89691
2.43794
1.59737
2.45601
1.61135
2.45146
1.73862
2.47512
1.75768
1.2585
1.25852
1.27066
1.27068
1.45615
1.45619
1.47326
1.4733
1.59744
2.43807
1.61142
2.45613
1.73873
2.45162
1.75779
2.47529
4.19268
5.07324
4.21794
5.10581
3.8644
4.87966
3.89713
4.91799
5.00219
4.13758
5.03762
4.16499
4.79846
3.79503
4.83926
3.82981
2.40004
1.56848
2.41924
1.58314
2.40227
1.69928
2.42709
1.71912
1.23352
1.23354
1.24619
1.24621
1.42093
1.42096
1.43868
1.43871
1.56854
2.40014
1.58321
2.41936
1.69938
2.4024
1.71922
2.42724
4.13778
5.00252
4.16522
5.03795
3.79517
4.79858
3.82997
4.83942
4.92716
4.07943
4.96456
4.10834
4.71312
3.72237
4.75594
3.75878
2.36006
1.53822
2.38025
1.55355
2.35085
1.65836
2.37675
1.67899
1.20746
1.20748
1.22067
1.22069
1.38437
1.3844
1.40279
1.40282
1.53828
2.36015
1.55361
2.38035
1.65845
2.35097
1.67908
2.37687
4.07961
4.92746
4.10854
4.96484
3.72247
4.7132
3.75889
4.75604
4.84914
4.01894
4.88792
4.04894
4.62453
3.64699
4.66888
3.6847
2.31845
1.50677
2.3394
1.52267
2.29755
1.61599
2.32435
1.63732
1.1804
1.18042
1.1941
1.19411
1.34654
1.34657
1.36558
1.36561
1.50682
2.31854
1.52272
2.3395
1.61608
2.29766
1.63741
2.32446
4.01911
4.84942
4.04912
4.88818
3.64709
4.62459
3.68479
4.66895
4.76889
3.95667
4.80871
3.98751
4.53331
3.56934
4.57893
3.60815
2.27553
1.4743
2.29711
1.49069
2.24264
1.57234
2.27022
1.59429
1.15246
1.15247
1.16658
1.1666
1.30756
1.30759
1.32716
1.32719
1.47434
2.27562
1.49074
2.2972
1.57242
2.24274
1.59437
2.27033
3.95684
4.76917
3.98769
4.80897
3.56943
4.53337
3.60824
4.57899
4.68687
3.8929
4.72755
3.92447
4.43975
3.48957
4.48653
3.52944
2.23145
1.4409
2.2536
1.45774
2.18624
1.52749
2.21456
1.55004
1.12369
1.12371
1.13822
1.13824
1.2675
1.26753
1.28764
1.28767
1.44094
2.23154
1.4578
2.25369
1.52757
2.18635
1.55012
2.21467
3.89307
4.68715
3.92465
4.7278
3.48967
4.43981
3.52953
4.48659
4.6032
3.82765
4.64471
3.85999
4.34391
3.4079
4.39184
3.44869
2.1862
1.40654
2.20895
1.42388
2.12837
1.48142
2.15745
1.5046
1.09407
1.09408
1.10903
1.10905
1.22633
1.22636
1.24705
1.24707
1.4066
2.18629
1.42393
2.20904
1.4815
2.12848
1.50468
2.15755
3.82783
4.60348
3.86017
4.64496
3.408
4.34398
3.44878
4.39192
4.51777
3.7607
4.5602
3.79392
4.24537
3.32409
4.29477
3.36608
2.13959
1.37104
2.16306
1.38899
2.0687
1.43382
2.09875
1.45782
1.06339
1.06341
1.07892
1.07894
1.18377
1.1838
1.20523
1.20526
1.37109
2.13968
1.38904
2.16316
1.43391
2.06881
1.4579
2.09886
3.76087
4.51805
3.7941
4.56045
3.3242
4.24546
3.36619
4.29485
4.43018
3.69167
4.47378
3.72602
4.14301
3.23684
4.19451
3.28074
2.09111
1.33391
2.1156
1.35275
2.00639
1.38403
2.0379
1.40924
1.03122
1.03123
1.04757
1.04758
1.1392
1.13923
1.16177
1.1618
1.33396
2.0912
1.35281
2.1157
1.38412
2.00652
1.40932
2.03801
3.69185
4.43046
3.7262
4.47403
3.23696
4.14311
3.28085
4.19461
4.33939
3.61957
4.38477
3.65562
4.03485
3.14444
4.08957
3.19118
2.03983
1.29433
2.06587
1.31452
1.94011
1.33092
1.97381
1.35796
0.996773
0.996792
1.01438
1.0144
1.0916
1.09163
1.11584
1.11587
1.29438
2.03993
1.31458
2.06597
1.33101
1.94024
1.35805
1.97394
3.61975
4.33967
3.6558
4.38502
3.14457
4.03496
3.1913
4.08968
4.24343
3.54261
4.29173
3.58139
3.9176
3.0443
3.97739
3.09531
1.98416
1.25092
2.01265
1.27324
1.86777
1.27277
1.90482
1.30259
0.958825
0.958846
0.978369
0.97839
1.03942
1.03945
1.06618
1.06621
1.25098
1.98427
1.2733
2.01276
1.27287
1.86791
1.30268
1.90495
3.5428
4.24371
3.58158
4.29199
3.04444
3.91774
3.09545
3.97751
4.13826
3.45727
4.19188
3.50085
3.78574
2.93239
3.85373
2.98991
1.92128
1.20145
1.95385
1.22715
1.78619
1.20714
1.82835
1.24105
0.915498
0.91552
0.938011
0.938033
0.980598
0.980634
1.01096
1.011
1.20151
1.92139
1.22722
1.95396
1.20724
1.78634
1.24115
1.82849
3.45745
4.13853
3.50104
4.19213
2.93255
3.7859
2.99006
3.85388
4.0149
3.35547
4.07927
3.40883
3.62939
2.80211
3.71127
2.86991
1.84533
1.14199
1.8855
1.17333
1.69029
1.13074
1.74043
1.1705
0.864045
0.864069
0.89102
0.891044
0.912834
0.912871
0.947944
0.94798
1.14206
1.84545
1.1734
1.88562
1.13085
1.69045
1.17061
1.74058
3.35566
4.01518
3.40903
4.07953
2.8023
3.62959
2.87008
3.71145
3.8517
3.21116
3.93989
3.29151
3.43055
2.63884
3.53657
2.7261
1.74086
1.06535
1.79837
1.10647
1.5704
1.03969
1.63422
1.08725
0.801039
0.801066
0.834197
0.834224
0.834884
0.834924
0.875061
0.875099
1.06543
1.74099
1.10655
1.7985
1.03981
1.57058
1.08736
1.63439
3.21137
3.852
3.29172
3.94016
2.63906
3.43079
2.72631
3.53679
3.60372
2.89454
3.74276
3.09474
3.14573
2.36444
3.30554
2.5279
1.56328
0.961643
1.66567
1.01716
1.40572
0.933258
1.4954
0.987936
0.726283
0.726311
0.764703
0.764732
0.750918
0.750959
0.792951
0.792991
0.961728
1.56343
1.01724
1.66582
0.93338
1.40592
0.988055
1.49559
2.89476
3.60406
3.09497
3.74306
2.36469
3.14604
2.52815
3.30582
1.45248
1.20666
0.19129
0.213837
1.14202
0.982625
0.136876
0.160414
0.243154
0.0288124
0.0178859
0.00578233
0.167693
0.0165563
0.0128976
0.00550223
0.00518164
0.00518183
0.00535271
0.00535269
0.00410511
0.00410513
0.00570591
0.00570591
0.0288136
0.243155
0.00578236
0.0178863
0.0165565
0.167692
0.00550223
0.0128976
1.20666
1.45247
0.21384
0.19129
0.982619
1.142
0.160413
0.136874
3.93986
3.07931
2.90437
2.26118
3.51031
2.73454
2.52255
1.96866
1.34275
0.522109
0.794841
0.19387
1.11103
0.386658
0.622864
0.1264
0.17931
0.179317
0.0322257
0.0322287
0.105059
0.105065
0.0156595
0.0156607
0.522114
1.34274
0.193875
0.79484
0.386665
1.11103
0.126403
0.622865
3.07931
3.9399
2.26119
2.90439
2.73454
3.51033
1.96866
2.52254
5.20521
4.15512
4.67036
3.68941
4.7151
3.74013
4.20574
3.30488
2.1813
1.16505
1.80027
0.855317
1.85421
0.926315
1.5167
0.664166
0.736412
0.736416
0.458962
0.458968
0.545688
0.545695
0.315113
0.315121
1.16506
2.1813
0.855326
1.80027
0.926328
1.85423
0.664179
1.51671
4.15515
5.20529
3.68943
4.67041
3.74016
4.71515
3.3049
4.20577
5.9202
4.80584
5.60723
4.51682
5.40365
4.35328
5.10043
4.07969
2.76591
1.68231
2.49903
1.44099
2.37651
1.37318
2.13702
1.16328
1.2189
1.21891
0.991587
0.991592
0.956936
0.956942
0.761707
0.761715
1.68232
2.76593
1.441
2.49905
1.37319
2.37654
1.16329
2.13704
4.8059
5.92033
4.51687
5.60732
4.35333
5.40373
4.07974
5.10048
6.35982
5.22486
6.16464
5.03693
5.83869
4.75646
5.64396
4.57449
3.17632
2.06803
2.98928
1.89035
2.74955
1.71325
2.57875
1.5559
1.58852
1.58852
1.41743
1.41743
1.2788
1.2788
1.12918
1.12919
2.06804
3.17635
1.89036
2.98931
1.71326
2.74958
1.55592
2.57877
5.22497
6.36003
5.03701
6.16479
4.75653
5.83882
4.57455
5.64405
6.63479
5.49664
6.51275
5.37503
6.11954
5.02423
5.99386
4.90366
3.45924
2.34345
3.33131
2.21804
3.01079
1.95932
2.89217
1.84692
1.85659
1.85659
1.73412
1.73413
1.515
1.51501
1.40682
1.40683
2.34346
3.45929
2.21805
3.33134
1.95933
3.01081
1.84693
2.8922
5.49679
6.63508
5.37516
6.51297
5.02432
6.11971
4.90375
5.99398
6.80102
5.66685
6.72822
5.59167
6.2951
5.19591
6.21753
5.1196
3.64667
2.53116
3.56311
2.44695
3.18607
2.12846
3.10765
2.05241
2.04155
2.04155
1.95832
1.95833
1.67904
1.67904
1.6051
1.6051
2.53117
3.64673
2.44696
3.56316
2.12846
3.1861
2.05242
3.10768
5.66705
6.80139
5.59184
6.72851
5.19603
6.29531
5.11971
6.21769
6.89217
5.76494
6.85348
5.72275
6.39522
5.29754
6.35219
5.25346
3.76288
2.6513
3.71226
2.59855
3.29592
2.23728
3.24788
2.1894
2.16152
2.16152
2.10865
2.10866
1.78576
1.78575
1.73866
1.73866
2.65132
3.76295
2.59857
3.71232
2.23728
3.29595
2.18941
3.24791
5.76519
6.89262
5.72297
6.85385
5.29768
6.39547
5.25358
6.35238
6.9312
5.81196
6.91616
5.79305
6.44224
5.34869
6.42338
5.32769
3.82705
2.72113
3.80034
2.6916
3.35733
2.30073
3.3316
2.27382
2.23263
2.23263
2.20236
2.20236
1.84904
1.84904
1.82205
1.82205
2.72115
3.82714
2.69162
3.80042
2.30072
3.35735
2.27382
3.33163
5.81225
6.9317
5.79331
6.91659
5.34884
6.44252
5.32783
6.4236
6.93418
5.82322
6.93551
5.82061
6.45199
5.36418
6.45019
5.35946
3.8542
2.75478
3.84439
2.74179
3.38407
2.33143
3.37418
2.3195
2.26843
2.26843
2.25432
2.25432
1.88085
1.88084
1.86826
1.86826
2.75479
3.85429
2.74181
3.84448
2.33143
3.38409
2.3195
3.37421
5.82352
6.93472
5.8209
6.93599
5.36432
6.45228
5.35962
6.45043
6.91348
5.81079
6.92581
5.81905
6.437
5.3557
6.44663
5.36191
3.85604
2.76338
3.85765
2.76174
3.38696
2.33948
3.38785
2.33779
2.27971
2.27971
2.2767
2.2767
1.89086
1.89085
1.88812
1.88812
2.7634
3.85613
2.76176
3.85775
2.33945
3.38696
2.33778
3.38787
5.81109
6.91402
5.81935
6.9263
5.35581
6.43725
5.36205
6.44686
6.87509
5.78116
6.89545
5.79725
6.40277
5.32931
6.42143
5.34401
3.84077
2.75565
3.8503
2.76137
3.37375
2.33288
3.38218
2.33779
2.2751
2.2751
2.27912
2.27911
1.88693
1.88692
1.89032
1.89031
2.75564
3.84082
2.76138
3.85037
2.33284
3.37371
2.33777
3.38216
5.7814
6.87556
5.79752
6.8959
5.32932
6.40296
5.34408
6.4216
6.82341
5.7388
6.85005
5.76082
6.35457
5.2901
6.37945
5.31045
3.81313
2.73623
3.82819
2.74717
3.34904
2.31593
3.36241
2.32539
2.25932
2.2593
2.2684
2.26839
1.87328
1.87325
1.88104
1.88102
2.73617
3.81309
2.74715
3.82821
2.31585
3.3489
2.32533
3.36235
5.73887
6.82368
5.76099
6.8504
5.28936
6.35411
5.31032
6.37957
6.76143
5.68694
6.79312
5.71349
6.29901
5.24446
6.3266
5.26713
3.77765
2.70997
3.79616
2.72385
3.31833
2.29348
3.33411
2.30523
2.23716
2.23713
2.24896
2.24893
1.85442
1.85439
1.86437
1.86434
2.7099
3.77761
2.72377
3.79608
2.29338
3.31812
2.30513
3.33393
5.68707
6.76167
5.71351
6.79324
5.24278
6.29755
5.26597
6.3256
6.69508
5.63182
6.72749
5.65874
6.2431
5.19819
6.27028
5.22079
3.73892
2.68055
3.75841
2.6956
3.28556
2.26856
3.30201
2.28125
2.2119
2.21188
2.22491
2.22489
1.83306
1.83303
1.84401
1.84398
2.68054
3.73906
2.69556
3.75846
2.26848
3.28536
2.28117
3.30182
5.63266
6.69607
5.65917
6.72792
5.19574
6.24021
5.21857
6.26809
6.63212
5.57898
6.66291
5.60501
6.18537
5.15025
6.2139
5.17389
3.70021
2.65015
3.71969
2.66559
3.25175
2.24257
3.26872
2.25571
2.18536
2.18533
2.19889
2.19887
1.81057
1.81052
1.82198
1.82195
2.65007
3.70019
2.66555
3.71976
2.24244
3.25156
2.25561
3.26848
5.57968
6.63304
5.60581
6.66392
5.14938
6.18414
5.17218
6.21143
6.56523
5.52358
6.59747
5.55017
6.12595
5.10156
6.15487
5.12517
3.66031
2.61899
3.68013
2.63472
3.21723
2.2159
3.23444
2.22933
2.15813
2.15808
2.17195
2.17191
1.78744
1.78739
1.79913
1.79908
2.61884
3.6602
2.63461
3.68009
2.21577
3.21712
2.22921
3.23431
5.52456
6.56638
5.55102
6.59846
5.10115
6.12568
5.12456
6.15416
6.5007
5.46996
6.53268
5.49655
6.06633
5.05273
6.09579
5.07685
3.6207
2.58753
3.64069
2.60348
3.18224
2.18877
3.19977
2.20246
2.13048
2.1304
2.14452
2.14445
1.76386
1.7638
1.77578
1.77572
2.58728
3.62034
2.60328
3.64047
2.18857
3.18188
2.20229
3.19953
5.47048
6.50211
5.49761
6.53406
5.05176
6.06517
5.07597
6.09487
6.43215
5.4136
6.46597
5.44137
6.00443
5.00245
6.03492
5.02716
3.57942
2.55519
3.60022
2.57158
3.1463
2.16096
3.16434
2.175
2.1022
2.10211
2.11656
2.11647
1.73975
1.73968
1.75194
1.75188
2.5549
3.57887
2.5713
3.59962
2.16075
3.14593
2.1748
3.16398
5.41279
6.43058
5.43999
6.46475
5.00183
6.00382
5.02639
6.03399
6.36308
5.35686
6.39711
5.38485
5.94044
4.95101
5.97171
4.97611
3.53764
2.52221
3.5587
2.53893
3.10932
2.13248
3.12786
2.14686
2.07333
2.07326
2.08799
2.08791
1.71507
1.71501
1.72755
1.72748
2.52198
3.53729
2.53866
3.55828
2.13227
3.10891
2.14664
3.12744
5.35813
6.36466
5.38575
6.39762
4.95044
5.93963
4.97524
5.97067
6.28925
5.29691
6.32566
5.32634
5.87493
4.89827
5.90701
4.92413
3.49398
2.48821
3.51594
2.50544
3.07121
2.10316
3.09036
2.11797
2.0437
2.04367
2.05875
2.0587
1.68974
1.6897
1.70255
1.7025
2.48812
3.49394
2.50529
3.51576
2.10305
3.07102
2.11781
3.09008
5.29812
6.2911
5.32771
6.32756
4.89784
5.87473
4.92398
5.9069
6.21575
5.23689
6.2521
5.26675
5.80496
4.84225
5.83965
4.86979
3.44967
2.45342
3.47201
2.47105
3.03189
2.07305
3.05161
2.08825
2.01332
2.01331
2.02875
2.02873
1.66373
1.66371
1.67688
1.67685
2.4534
3.44971
2.47101
3.47203
2.07299
3.03176
2.08817
3.05146
5.2376
6.21669
5.26764
6.25344
4.8415
5.80413
4.86913
5.83904
6.13571
5.17233
6.17543
5.20402
5.73421
4.78589
5.76891
4.81358
3.40368
2.41767
3.42676
2.43575
2.99176
2.04221
3.01184
2.05774
1.98217
1.98218
1.99797
1.99797
1.63708
1.63708
1.65053
1.65053
2.41772
3.40386
2.43577
3.42688
2.04222
2.99181
2.05772
3.0118
5.17367
6.13746
5.2051
6.17661
4.7861
5.73448
4.81322
5.76829
6.05926
5.11113
6.09612
5.14089
5.66243
4.72941
5.69708
4.75651
3.3579
2.38145
3.3808
2.39973
2.95147
2.01096
2.97149
2.02667
1.9504
1.95042
1.9665
1.96651
1.60991
1.60992
1.62362
1.62363
2.38151
3.35807
2.3998
3.38099
2.01099
2.95154
2.0267
2.97157
5.11172
6.06032
5.14197
6.09775
4.72936
5.66244
4.7565
5.69726
5.98032
5.0477
6.01907
5.07872
5.59163
4.6735
5.62647
4.70104
3.31099
2.34433
3.3346
2.36315
2.91053
1.97897
2.93113
1.99514
1.91779
1.91781
1.93436
1.93438
1.58203
1.58204
1.59614
1.59616
2.3444
3.31115
2.36322
3.33475
1.97902
2.91064
1.99519
2.93123
5.04787
5.98074
5.07913
6.01982
4.67379
5.59207
4.70124
5.62668
5.89767
4.98114
5.93904
5.01442
5.51518
4.61296
5.5535
4.64319
3.26202
2.30569
3.28687
2.32535
2.86728
1.94554
2.88919
1.9625
1.88391
1.88394
1.90116
1.90119
1.55302
1.55304
1.56774
1.56776
2.30578
3.26222
2.32543
3.28704
1.9456
2.86741
1.96256
2.88931
4.98154
5.89825
5.01471
5.93944
4.61324
5.51562
4.64348
5.55391
5.80901
4.90997
5.85328
4.94547
5.43335
4.54839
5.47408
4.58048
3.21022
2.26516
3.23646
2.28576
2.82158
1.91047
2.84466
1.92824
1.84853
1.84856
1.86654
1.86656
1.52272
1.52274
1.53808
1.5381
2.26526
3.21044
2.28586
3.23667
1.91054
2.82172
1.92831
2.8448
4.9104
5.80967
4.94588
5.85387
4.54868
5.43379
4.58077
5.47448
5.71635
4.83563
5.76238
4.87255
5.34807
4.48112
5.39036
4.51445
3.15618
2.22294
3.18346
2.24435
2.77397
1.87397
2.79794
1.89243
1.81171
1.81173
1.83041
1.83044
1.49121
1.49123
1.50716
1.50718
2.22304
3.1564
2.24445
3.18367
1.87404
2.77411
1.89249
2.79808
4.83606
5.71699
4.87298
5.76299
4.48141
5.34851
4.51473
5.39076
5.62103
4.75911
5.66828
4.79704
5.26034
4.4119
5.30378
4.44613
3.1004
2.17929
3.12851
2.20139
2.72487
1.83627
2.74955
1.8553
1.77361
1.77364
1.79293
1.79296
1.45864
1.45865
1.4751
1.47512
2.17939
3.10062
2.20148
3.12872
1.83633
2.725
1.85537
2.74969
4.75954
5.62167
4.79746
5.66888
4.41218
5.26077
4.44642
5.30417
5.52375
4.68083
5.57193
4.71962
5.17067
4.34112
5.21505
4.3761
3.04315
2.13436
3.07197
2.15709
2.67449
1.79748
2.69979
1.81705
1.73433
1.73436
1.75424
1.75426
1.42508
1.42509
1.44203
1.44205
2.13445
3.04336
2.15718
3.07218
1.79754
2.67462
1.81712
2.69993
4.68125
5.52437
4.72003
5.57252
4.3414
5.17109
4.37638
5.21544
5.42491
4.60108
5.47385
4.64055
5.0793
4.26888
5.1245
4.30463
2.98447
2.0881
3.01401
2.1115
2.62284
1.75757
2.64879
1.77771
1.69379
1.69381
1.71434
1.71437
1.39048
1.3905
1.40796
1.40798
2.08819
2.98468
2.1116
3.01421
1.75764
2.62297
1.77778
2.64893
4.60149
5.42551
4.64096
5.47442
4.26915
5.07972
4.3049
5.12489
5.32446
4.51993
5.37424
4.56017
4.98643
4.19499
5.0324
4.23157
2.92416
2.04024
2.95457
2.06449
2.56971
1.71631
2.59644
1.73717
1.65168
1.65171
1.67307
1.67309
1.3546
1.35462
1.37277
1.37279
2.04033
2.92437
2.06459
2.95477
1.71638
2.56984
1.73724
2.59658
4.52033
5.32506
4.56056
5.3748
4.19526
4.98684
4.23184
5.03278
5.22223
4.4368
5.27296
4.47811
4.89175
4.11924
4.93871
4.15683
2.86163
1.99015
2.89325
2.01562
2.51462
1.67317
2.54242
1.69506
1.6074
1.60743
1.62997
1.63
1.31693
1.31695
1.33608
1.3361
1.99025
2.86184
2.01572
2.89345
1.67324
2.51475
1.69513
2.54256
4.43719
5.22281
4.4785
5.27351
4.11951
4.89216
4.1571
4.93908
5.11743
4.35079
5.1696
4.3937
4.79439
4.04072
4.84285
4.07986
2.79578
1.93673
2.82923
1.96404
2.45658
1.62721
2.48602
1.65066
1.55985
1.55988
1.58422
1.58425
1.27655
1.27658
1.2972
1.29722
1.93683
2.79599
1.96414
2.82944
1.62728
2.45672
1.65073
2.48616
4.35118
5.11799
4.39409
5.17013
4.04098
4.79479
4.08012
4.84322
5.00812
4.25997
5.06291
4.30565
4.69249
3.95759
4.74356
3.99935
2.72457
1.87806
2.76105
1.9083
2.39382
1.57681
2.42592
1.60273
1.50723
1.50726
1.53441
1.53444
1.23198
1.232
1.25495
1.25498
1.87816
2.72478
1.9084
2.76125
1.57688
2.39396
1.6028
2.42606
4.26034
5.00866
4.30602
5.06343
3.95786
4.69288
3.99961
4.74392
4.88928
4.15958
4.94979
4.21092
4.58166
3.8658
4.63801
3.91264
2.64381
1.81069
2.6858
1.84585
2.32284
1.51915
2.35965
1.54916
1.44658
1.44661
1.47824
1.47827
1.18081
1.18084
1.20745
1.20748
1.81079
2.64402
1.84595
2.686
1.51923
2.32299
1.54924
2.3598
4.15995
4.88981
4.21129
4.95029
3.86606
4.58204
3.9129
4.63836
4.74813
4.03726
4.82223
4.102
4.45084
3.75481
4.51931
3.81333
2.54394
1.72803
2.59726
1.77194
2.23571
1.44893
2.28209
1.48612
1.37306
1.3731
1.41189
1.41192
1.11919
1.11922
1.15164
1.15167
1.72814
2.54416
1.77204
2.59746
1.44901
2.23586
1.48621
2.28224
4.03762
4.74864
4.10236
4.82271
3.75507
4.45121
3.81359
4.51965
4.55366
3.85484
4.65981
3.9576
4.27187
3.59038
4.3695
3.68298
2.40053
1.61776
2.48025
1.67741
2.11115
1.35566
2.1804
1.4061
1.28034
1.28038
1.32951
1.32955
1.04187
1.0419
1.08282
1.08285
1.61788
2.40075
1.67753
2.48047
1.35575
2.11131
1.40619
2.18056
3.85521
4.55416
3.95796
4.66029
3.59066
4.27226
3.68325
4.36985
4.25126
3.45605
4.42057
3.70511
3.98826
3.22144
4.14845
3.45387
2.15638
1.46679
2.29583
1.54735
1.8945
1.22648
2.01924
1.29573
1.16839
1.16844
1.22597
1.22601
0.948226
0.948259
0.996473
0.996505
1.46693
2.15664
1.54747
2.29607
1.22658
1.89469
1.29583
2.01941
3.45645
4.25183
3.70548
4.42108
3.22173
3.9887
3.45415
4.14883
1.79602
1.46098
0.261044
0.278494
1.65837
1.35556
0.231704
0.248414
0.342001
0.0504571
0.0257982
0.00657668
0.298637
0.0400462
0.0218946
0.00619067
0.00745696
0.00745764
0.00521714
0.00521716
0.00633535
0.00633566
0.00526665
0.00526665
0.0504619
0.342011
0.00657691
0.0257999
0.0400488
0.298642
0.00619075
0.0218954
1.46099
1.79605
0.278505
0.261051
1.35557
1.65838
0.24842
0.231707
4.39291
3.45398
3.30899
2.58221
4.21149
3.30227
3.14742
2.45187
1.61472
0.698035
1.00065
0.293623
1.50252
0.622824
0.915035
0.249446
0.304839
0.304849
0.0676287
0.0676355
0.248
0.248008
0.0503475
0.0503523
0.698041
1.61471
0.293637
1.00066
0.622833
1.50252
0.249457
0.915043
3.454
4.39298
2.58222
3.30903
3.30228
4.21153
2.45188
3.14744
5.74233
4.62568
5.16783
4.11435
5.52418
4.43257
4.96734
3.94135
2.5807
1.48515
2.13833
1.10689
2.41369
1.34767
1.99812
0.999432
1.01165
1.01165
0.664464
0.66447
0.890973
0.890978
0.574355
0.574363
1.48515
2.5807
1.1069
2.13834
1.34768
2.4137
0.999445
1.99813
4.62573
5.74246
4.11438
5.16791
4.43261
5.52427
3.94138
4.96739
6.51371
5.34616
6.17639
5.02598
6.2689
5.12073
5.94336
4.81522
3.26463
2.11414
2.95223
1.8212
3.05274
1.92622
2.76113
1.6568
1.60843
1.60844
1.32803
1.32804
1.43603
1.43604
1.17986
1.17987
2.11415
3.26466
1.82121
2.95225
1.92623
3.05276
1.65681
2.76115
5.34626
6.51393
5.02605
6.17654
5.12081
6.26905
4.81529
5.94346
6.98196
5.80737
6.77527
5.60126
6.72205
5.56109
6.52166
5.36411
3.74321
2.58
3.52557
2.36583
3.49938
2.35485
3.29618
2.15771
2.062
2.062
1.85242
1.85242
1.8506
1.8506
1.65897
1.65898
2.58002
3.74327
2.36584
3.52561
2.35486
3.49943
2.15773
3.29621
5.80756
6.9823
5.6014
6.77552
5.56123
6.72229
5.36422
6.52183
7.26763
6.10194
7.14181
5.97079
7.00072
5.84352
6.87762
5.71754
4.07038
2.91056
3.92281
2.76028
3.80525
2.65931
3.66717
2.52082
2.38929
2.38929
2.23994
2.23995
2.14992
2.14993
2.01329
2.01329
2.91059
4.07049
2.76031
3.92289
2.65933
3.80532
2.52084
3.66723
6.10223
7.2681
5.97102
7.14217
5.84373
7.00106
5.71771
6.87787
7.43496
6.2831
7.36237
6.20354
7.16578
6.0182
7.09388
5.9413
4.28551
3.13501
4.1898
3.03441
4.00672
2.86611
3.91701
2.77338
2.61466
2.61467
2.51329
2.5133
2.356
2.356
2.26329
2.26329
3.13506
4.28567
3.03445
4.18993
2.86614
4.00682
2.7734
3.91709
6.28349
7.43558
6.20386
7.36287
6.01848
7.16623
5.94154
7.09423
7.52279
6.38527
7.48607
6.34166
7.25382
6.11739
7.21675
6.07489
4.41821
3.27864
4.36052
3.21558
4.13109
2.99832
4.07695
2.94026
2.76107
2.76109
2.69652
2.69654
2.48966
2.48967
2.43072
2.43072
3.27871
4.41842
3.21565
4.36069
2.99837
4.13123
2.94029
4.07707
6.38576
7.52354
6.34208
7.48671
6.11774
7.25437
6.0752
7.21719
7.5565
6.43232
7.54424
6.41377
7.28907
6.16364
7.27589
6.14523
4.49124
3.36244
4.46093
3.32698
4.19949
3.07523
4.17104
3.04267
2.84838
2.8484
2.81115
2.81117
2.56907
2.56908
2.5352
2.53521
3.36253
4.4915
3.32706
4.46115
3.07528
4.19965
3.04271
4.17118
6.43289
7.55737
6.41428
7.54499
6.16405
7.2897
6.1456
7.27642
7.55358
6.44118
7.55775
6.43998
7.28826
6.17307
7.29132
6.1714
4.52199
3.40325
4.51097
3.38746
4.22819
3.11241
4.21785
3.09801
2.89293
2.89296
2.87529
2.87532
2.60928
2.6093
2.59335
2.59337
3.40336
4.52227
3.38756
4.51123
3.11248
4.22837
3.09807
4.21802
6.44181
7.55453
6.44056
7.5586
6.17352
7.28895
6.17182
7.29192
7.52634
6.42474
7.54181
6.43518
7.26365
6.15815
7.27777
6.16768
4.52376
3.41418
4.52585
3.41195
4.22975
3.12207
4.23167
3.12014
2.90763
2.90766
2.90354
2.90357
2.62221
2.62223
2.61864
2.61866
3.41431
4.52408
3.41207
4.52614
3.12213
4.22995
3.1202
4.23185
6.42542
7.52735
6.43582
7.54274
6.15863
7.26436
6.16813
7.27841
7.48164
6.39018
7.50506
6.40878
7.22171
6.12574
7.24368
6.14315
4.50585
3.40529
4.51697
3.41199
4.21292
3.11358
4.2233
3.11983
2.90259
2.90263
2.90726
2.90729
2.61724
2.61726
2.62161
2.62163
3.40543
4.50617
3.41212
4.51729
3.11364
4.2131
3.11989
4.22348
6.39086
7.48265
6.40944
7.50601
6.12617
7.22238
6.14359
7.24431
7.42268
6.34133
7.45333
6.36697
7.16614
6.07987
7.19486
6.10379
4.47328
3.38203
4.4912
3.3953
4.18257
3.09202
4.19914
3.10419
2.88352
2.88354
2.89466
2.89468
2.59962
2.59961
2.60978
2.60978
3.38214
4.47357
3.39542
4.49149
3.09203
4.18266
3.10422
4.19927
6.34198
7.42366
6.3676
7.45423
6.08023
7.16669
6.10416
7.19538
7.3515
6.28087
7.38788
6.31196
7.09899
6.02312
7.1333
6.05226
4.4306
3.3497
4.45299
3.3669
4.14303
3.0624
4.1637
3.07805
2.85588
2.85589
2.87071