/*--------------------------------*- C++ -*----------------------------------*\
  =========                 |
  \\      /  F ield         | OpenFOAM: The Open Source CFD Toolbox
   \\    /   O peration     | Website:  https://openfoam.org
    \\  /    A nd           | Version:  9
     \\/     M anipulation  |
\*---------------------------------------------------------------------------*/
FoamFile
{
    format      ascii;
    class       volScalarField;
    location    "1.5";
    object      k;
}
// * * * * * * * * * * * * * * * * * * * * * * * * * * * * * * * * * * * * * //

dimensions      [0 2 -2 0 0 0 0];

internalField   nonuniform List<scalar> 
36360
(
0.122429
0.121012
0.0164896
0.0235456
0.0147505
0.0154546
0.00435527
0.00409298
0.0251639
0.00435006
0.00434802
0.00307978
0.0044472
0.00303319
0.00339143
0.00348116
0.00252334
0.00252335
0.00324711
0.0032471
0.00306886
0.00306886
0.00346432
0.00346432
0.00435014
0.0251641
0.00307978
0.00434803
0.00303318
0.00444721
0.00348116
0.00339143
0.121011
0.122426
0.0235457
0.0164893
0.0154546
0.01475
0.00409299
0.00435525
0.432767
0.359486
0.305161
0.254828
0.122856
0.0994097
0.0591232
0.053138
0.175552
0.0707721
0.0962677
0.0219099
0.0429128
0.0113615
0.0152475
0.00399206
0.0198529
0.0198547
0.00394779
0.00394801
0.00351763
0.00351777
0.00270667
0.00270668
0.0707757
0.175555
0.0219111
0.096269
0.0113623
0.0429142
0.00399215
0.0152479
0.359489
0.432768
0.254829
0.305161
0.099411
0.122856
0.0531384
0.0591226
0.590974
0.50098
0.523063
0.438682
0.200807
0.162541
0.168234
0.13499
0.296928
0.178714
0.241327
0.125993
0.0960251
0.0522035
0.0719164
0.0295571
0.122804
0.122806
0.0669935
0.0669964
0.0288472
0.0288487
0.0104634
0.0104641
0.178719
0.296934
0.125998
0.241331
0.0522065
0.0960281
0.0295592
0.0719186
0.500984
0.590977
0.438686
0.523065
0.162543
0.200809
0.134991
0.168235
0.688795
0.593941
0.644664
0.551615
0.245614
0.203178
0.225627
0.184711
0.385169
0.267093
0.344406
0.225938
0.133784
0.0911764
0.116376
0.0730625
0.214089
0.214091
0.171862
0.171864
0.0713982
0.0713997
0.0518093
0.0518108
0.267098
0.385175
0.225943
0.344411
0.0911799
0.133788
0.0730657
0.11638
0.593945
0.688798
0.55162
0.644667
0.203181
0.245615
0.184714
0.225628
0.756255
0.659571
0.725459
0.629494
0.275929
0.231932
0.26211
0.218733
0.449672
0.332461
0.420003
0.302398
0.161362
0.119577
0.148666
0.10657
0.280486
0.280487
0.250032
0.250034
0.101047
0.101048
0.0876059
0.0876072
0.332465
0.449675
0.302402
0.420008
0.119581
0.161365
0.106573
0.14867
0.659572
0.756254
0.629496
0.72546
0.231934
0.27593
0.218735
0.262112
0.803237
0.705791
0.781871
0.684726
0.297049
0.252335
0.287446
0.243027
0.495693
0.379076
0.474696
0.35782
0.181101
0.139604
0.17209
0.130491
0.327532
0.327532
0.3061
0.306101
0.121441
0.121442
0.112196
0.112197
0.379077
0.495693
0.357823
0.474697
0.139606
0.181103
0.130493
0.172092
0.705788
0.803231
0.684726
0.781868
0.252335
0.297047
0.243028
0.287446
0.834921
0.737207
0.820681
0.723062
0.311337
0.266278
0.304918
0.259999
0.527285
0.411103
0.513055
0.396675
0.194676
0.153278
0.188561
0.147127
0.35981
0.35981
0.34527
0.34527
0.13524
0.135241
0.129041
0.129042
0.411102
0.527281
0.396675
0.513053
0.15328
0.194677
0.147129
0.188562
0.737199
0.834911
0.723057
0.820673
0.266276
0.311333
0.259998
0.304915
0.855018
0.757307
0.846156
0.748423
0.320435
0.275235
0.316428
0.27128
0.54775
0.431951
0.538703
0.422726
0.203469
0.162128
0.199584
0.158218
0.380858
0.380857
0.371538
0.371537
0.144147
0.144148
0.140213
0.140213
0.431947
0.547742
0.422723
0.538697
0.162129
0.203469
0.158219
0.199584
0.757296
0.855003
0.748414
0.846143
0.275231
0.320429
0.271277
0.316422
0.866523
0.768973
0.861618
0.763978
0.325686
0.280458
0.323448
0.278225
0.559883
0.444451
0.554684
0.439079
0.208674
0.167396
0.206446
0.165137
0.393548
0.393546
0.388084
0.388083
0.149458
0.149459
0.147178
0.147179
0.444447
0.559874
0.439075
0.554676
0.167396
0.208673
0.165137
0.206445
0.76896
0.866506
0.763965
0.861602
0.280453
0.325678
0.27822
0.323441
0.871839
0.774551
0.869769
0.772343
0.328185
0.282993
0.327204
0.281988
0.565998
0.450935
0.563552
0.448313
0.211295
0.170101
0.210247
0.16901
0.400221
0.40022
0.397505
0.397504
0.15221
0.152211
0.151095
0.151095
0.45093
0.565988
0.448308
0.563542
0.170101
0.211293
0.16901
0.210245
0.774538
0.871822
0.772328
0.869751
0.282988
0.328177
0.281982
0.327195
0.87274
0.775787
0.872697
0.775574
0.328725
0.283607
0.328639
0.283487
0.567884
0.453244
0.567361
0.452508
0.212108
0.171042
0.211882
0.170748
0.402739
0.402738
0.401897
0.401896
0.153214
0.153214
0.152886
0.152887
0.45324
0.567876
0.452503
0.567352
0.171043
0.212106
0.170748
0.21188
0.775768
0.872719
0.775561
0.872683
0.283602
0.328718
0.283482
0.328631
0.870643
0.774112
0.87206
0.775279
0.328056
0.283044
0.328556
0.283476
0.567051
0.452877
0.567744
0.453299
0.211823
0.170903
0.212075
0.171059
0.402585
0.402584
0.402894
0.402893
0.153138
0.153139
0.153257
0.153257
0.452874
0.567046
0.453296
0.567736
0.170904
0.211822
0.17106
0.212074
0.774124
0.870658
0.775269
0.87204
0.283039
0.328049
0.283471
0.328549
0.866456
0.770469
0.868694
0.772425
0.32648
0.281613
0.327325
0.282383
0.564301
0.450656
0.565833
0.451933
0.210712
0.169981
0.211325
0.170505
0.400624
0.400623
0.401779
0.401778
0.152307
0.152308
0.15279
0.152791
0.450652
0.564296
0.45193
0.565829
0.169982
0.21071
0.170506
0.211324
0.770449
0.866442
0.772412
0.868692
0.28161
0.326474
0.282379
0.327318
0.861391
0.765963
0.863934
0.768246
0.32449
0.279783
0.325505
0.280718
0.560561
0.447434
0.562506
0.449131
0.209212
0.168675
0.209992
0.16936
0.397651
0.39765
0.399225
0.399223
0.151089
0.151089
0.15173
0.15173
0.447429
0.560551
0.449126
0.562499
0.168674
0.20921
0.16936
0.20999
0.765947
0.861366
0.768229
0.863918
0.279779
0.324484
0.280714
0.325499
0.855696
0.760871
0.858529
0.763386
0.322293
0.277747
0.323392
0.278765
0.556328
0.443701
0.558473
0.445607
0.207513
0.167168
0.208374
0.167936
0.394161
0.394159
0.395949
0.395948
0.14967
0.149669
0.150394
0.150394
0.443696
0.55632
0.445603
0.558466
0.167166
0.20751
0.167935
0.208372
0.760909
0.855766
0.763424
0.858566
0.277743
0.322287
0.278763
0.323388
0.84984
0.755636
0.852735
0.758229
0.319978
0.275597
0.321132
0.276667
0.551841
0.439712
0.554097
0.441727
0.205713
0.165559
0.206618
0.16637
0.390408
0.390405
0.392307
0.392304
0.148147
0.148146
0.148915
0.148915
0.439702
0.551824
0.44172
0.554084
0.165555
0.205705
0.166367
0.206612
0.755554
0.849763
0.758204
0.852747
0.275586
0.319965
0.27666
0.321123
0.843706
0.750146
0.846754
0.752865
0.317573
0.273365
0.31877
0.274474
0.547197
0.43557
0.549524
0.437654
0.203842
0.163886
0.20478
0.164726
0.386503
0.386499
0.38847
0.388466
0.146563
0.146562
0.147359
0.147358
0.435556
0.547175
0.437642
0.549504
0.163881
0.203834
0.164722
0.204772
0.750133
0.843688
0.752807
0.846672
0.273353
0.317557
0.274462
0.318755
0.837291
0.744466
0.84048
0.747274
0.315091
0.271064
0.316327
0.272208
0.542425
0.431314
0.544816
0.433454
0.201919
0.162164
0.202883
0.163028
0.382488
0.382482
0.384508
0.384503
0.144931
0.14493
0.145751
0.145749
0.431295
0.542392
0.433437
0.544789
0.162159
0.201909
0.163024
0.202874
0.74441
0.837229
0.747223
0.840436
0.271049
0.315072
0.272194
0.31631
0.830777
0.738716
0.833991
0.741562
0.312521
0.268685
0.313803
0.26987
0.537513
0.426936
0.539977
0.429138
0.199935
0.16039
0.200931
0.161281
0.378361
0.378354
0.380438
0.380432
0.143251
0.14325
0.144095
0.144094
0.426914
0.537472
0.429117
0.53994
0.160385
0.199924
0.161276
0.20092
0.738666
0.830701
0.741509
0.833928
0.268667
0.312497
0.269853
0.313781
0.823862
0.732653
0.827303
0.735642
0.30986
0.266226
0.311188
0.267452
0.532449
0.422431
0.53499
0.424698
0.197889
0.158561
0.198916
0.15948
0.374116
0.37411
0.376254
0.376247
0.141518
0.141518
0.142389
0.142388
0.422409
0.532407
0.424675
0.534948
0.158557
0.197878
0.159476
0.198905
0.732655
0.823875
0.73564
0.82728
0.266206
0.309835
0.267432
0.311163
0.816799
0.7265
0.820301
0.729551
0.30709
0.263669
0.308475
0.264945
0.527212
0.41778
0.529842
0.420122
0.195769
0.156669
0.196834
0.157621
0.369739
0.369735
0.371944
0.371939
0.139728
0.139728
0.140629
0.140628
0.417766
0.527185
0.420104
0.529807
0.156669
0.195764
0.157619
0.196826
0.72641
0.816718
0.729507
0.820282
0.263658
0.307074
0.264929
0.308453
0.809436
0.720069
0.813109
0.723267
0.304219
0.261021
0.305653
0.262342
0.521806
0.412981
0.52452
0.415397
0.193577
0.154714
0.194678
0.155697
0.365224
0.365223
0.367499
0.367496
0.137877
0.137878
0.138808
0.138809
0.412975
0.521789
0.415387
0.524498
0.154716
0.193576
0.155698
0.194675
0.720027
0.809384
0.723185
0.813009
0.261015
0.304209
0.262333
0.305639
0.801788
0.713463
0.80554
0.716692
0.301255
0.258294
0.302724
0.259641
0.516256
0.408043
0.51903
0.410526
0.191317
0.152695
0.192449
0.15371
0.360572
0.360573
0.362914
0.362914
0.135965
0.135967
0.136927
0.136928
0.408044
0.516255
0.410523
0.519021
0.1527
0.191322
0.153713
0.19245
0.713465
0.801763
0.716653
0.805492
0.258297
0.301255
0.259639
0.302718
0.794132
0.70689
0.797875
0.710088
0.298268
0.255548
0.299745
0.256903
0.510622
0.402983
0.513437
0.405527
0.189014
0.150621
0.190167
0.151663
0.355786
0.355789
0.358196
0.358198
0.133992
0.133995
0.134985
0.134987
0.402988
0.510627
0.40553
0.51344
0.150627
0.189022
0.151669
0.190173
0.70694
0.794198
0.710146
0.797922
0.255555
0.298274
0.256909
0.299749
0.786323
0.700142
0.790243
0.703526
0.295194
0.252709
0.296739
0.254134
0.504807
0.397753
0.507741
0.400394
0.186633
0.148472
0.187833
0.149556
0.350833
0.350835
0.353334
0.353336
0.131947
0.131949
0.132978
0.13298
0.397759
0.504815
0.4004
0.507747
0.148478
0.186642
0.149562
0.187842
0.70015
0.786335
0.703546
0.790276
0.252717
0.295202
0.254143
0.296747
0.777876
0.692859
0.782121
0.696507
0.291916
0.249683
0.293569
0.251207
0.498667
0.392275
0.501772
0.395046
0.184127
0.146224
0.185394
0.14736
0.34566
0.345663
0.348275
0.348278
0.12981
0.129812
0.130889
0.130891
0.392282
0.498675
0.395053
0.50178
0.146229
0.184134
0.147365
0.185401
0.692866
0.777884
0.696515
0.782128
0.249688
0.291921
0.251213
0.293575
0.768925
0.685161
0.773403
0.689005
0.288443
0.246483
0.290188
0.248089
0.492203
0.386532
0.495465
0.389435
0.181489
0.143866
0.18282
0.145057
0.340248
0.34025
0.342984
0.342986
0.127573
0.127575
0.128702
0.128704
0.386538
0.49221
0.389441
0.495472
0.143871
0.181495
0.145062
0.182826
0.685168
0.768932
0.689012
0.773409
0.246488
0.288446
0.248094
0.290192
0.759584
0.67713
0.764247
0.681134
0.284815
0.243143
0.286634
0.244817
0.485456
0.380539
0.488855
0.383564
0.178734
0.141404
0.180122
0.142646
0.334602
0.334604
0.337453
0.337455
0.125238
0.12524
0.126416
0.126418
0.380544
0.485462
0.383569
0.488861
0.141409
0.17874
0.142651
0.180128
0.677136
0.75959
0.68114
0.764253
0.243147
0.284817
0.244821
0.286637
0.749913
0.668809
0.754736
0.672954
0.281055
0.239677
0.282938
0.241413
0.478454
0.374312
0.481978
0.377453
0.175873
0.138845
0.177313
0.140135
0.328732
0.328734
0.331694
0.331696
0.122809
0.122811
0.124033
0.124035
0.374317
0.47846
0.377458
0.481984
0.13885
0.175879
0.14014
0.177319
0.668815
0.749918
0.672959
0.754741
0.239681
0.281057
0.241417
0.282941
0.739938
0.660215
0.744913
0.664497
0.277172
0.236091
0.279117
0.237887
0.471207
0.367855
0.474854
0.371112
0.172911
0.136192
0.174402
0.137529
0.32264
0.322642
0.325714
0.325716
0.120287
0.120289
0.121558
0.12156
0.36786
0.471212
0.371117
0.47486
0.136196
0.172916
0.137533
0.174407
0.660222
0.739944
0.664502
0.744917
0.236095
0.277175
0.237891
0.279119
0.729653
0.651334
0.734786
0.655764
0.273166
0.23239
0.275173
0.234242
0.463696
0.361148
0.467479
0.364534
0.169844
0.133438
0.171388
0.134827
0.316302
0.316304
0.319504
0.319506
0.117668
0.11767
0.118989
0.118991
0.361153
0.463703
0.36454
0.467486
0.133443
0.16985
0.134831
0.171394
0.651341
0.72966
0.65577
0.734791
0.232395
0.273169
0.234246
0.275176
0.719014
0.642109
0.724334
0.646721
0.269016
0.228562
0.2711
0.230484
0.455866
0.354129
0.45982
0.357682
0.166652
0.130563
0.168264
0.132016
0.309656
0.309658
0.313023
0.313025
0.114928
0.11493
0.116314
0.116316
0.354135
0.455873
0.357688
0.459827
0.130568
0.166658
0.132021
0.168269
0.642117
0.719022
0.646729
0.724341
0.228566
0.26902
0.230488
0.271104
0.70791
0.632426
0.713482
0.637287
0.264671
0.224541
0.266862
0.226569
0.447594
0.346679
0.451789
0.350467
0.163287
0.127521
0.164993
0.129065
0.302584
0.302587
0.306183
0.306185
0.112024
0.112026
0.113499
0.113501
0.346685
0.447602
0.350473
0.451796
0.127526
0.163293
0.129071
0.164999
0.632435
0.707919
0.637295
0.71349
0.224547
0.264675
0.226574
0.266866
0.696137
0.622083
0.702076
0.627306
0.26004
0.220244
0.262388
0.222423
0.438683
0.338602
0.443228
0.342734
0.159668
0.124236
0.161513
0.125914
0.294892
0.294895
0.298831
0.298833
0.10888
0.108882
0.110487
0.110489
0.33861
0.438693
0.342741
0.443237
0.124241
0.159675
0.125919
0.16152
0.622093
0.696147
0.627315
0.702085
0.22025
0.260045
0.222428
0.262393
0.683352
0.610752
0.689853
0.61652
0.254974
0.215539
0.257564
0.217942
0.428819
0.329598
0.433889
0.334239
0.155671
0.120588
0.157724
0.122465
0.286289
0.286292
0.290726
0.290729
0.105381
0.105383
0.107183
0.107185
0.329606
0.42883
0.334247
0.4339
0.120594
0.155678
0.122471
0.157731
0.610764
0.683364
0.616531
0.689863
0.215546
0.25498
0.217948
0.257569
0.668939
0.597873
0.676356
0.604507
0.249215
0.21022
0.252193
0.212962
0.417497
0.319216
0.423377
0.324613
0.151101
0.116404
0.153471
0.118575
0.276362
0.276366
0.28152
0.281524
0.101365
0.101368
0.103448
0.10345
0.319225
0.41751
0.324622
0.423389
0.11641
0.15111
0.118581
0.153479
0.597888
0.668954
0.60452
0.676369
0.210228
0.249222
0.212969
0.252199
0.651716
0.582355
0.660743
0.590505
0.242302
0.203942
0.245934
0.207221
0.403799
0.306768
0.411023
0.313303
0.14564
0.111438
0.148507
0.114036
0.264581
0.264585
0.270738
0.270742
0.0966394
0.096642
0.099102
0.0991044
0.306779
0.403815
0.313314
0.411038
0.111445
0.145649
0.114042
0.148516
0.582373
0.651735
0.590521
0.660759
0.203952
0.24231
0.207229
0.245942
0.629285
0.561259
0.641312
0.572811
0.233365
0.195938
0.238151
0.200236
0.385674
0.291208
0.395497
0.299452
0.138667
0.105372
0.1424
0.108561
0.250446
0.250451
0.257821
0.257826
0.0910567
0.0910595
0.0939547
0.0939574
0.291221
0.385694
0.299465
0.395515
0.105379
0.138678
0.108568
0.14241
0.561282
0.629309
0.57283
0.641333
0.195949
0.233376
0.200246
0.23816
0.597761
0.521528
0.615006
0.545711
0.22026
0.182105
0.227659
0.190406
0.358194
0.27168
0.373531
0.281901
0.128795
0.0980521
0.134216
0.101845
0.234363
0.234369
0.24253
0.242536
0.0848453
0.0848484
0.0879821
0.087985
0.271695
0.358217
0.281915
0.373552
0.0980605
0.128807
0.101853
0.134227
0.521556
0.597794
0.545736
0.615034
0.182119
0.220274
0.190418
0.227672
0.250008
0.213918
0.0378204
0.0420866
0.19856
0.174412
0.0276689
0.03201
0.063622
0.0120091
0.00684563
0.00333486
0.0451397
0.00747711
0.00534558
0.00318988
0.00337574
0.00337587
0.00305734
0.00305733
0.00283513
0.00283517
0.00321069
0.00321068
0.0120101
0.0636237
0.00333489
0.00684579
0.00747738
0.0451401
0.00318988
0.0053456
0.213919
0.250008
0.0420873
0.0378204
0.174412
0.198558
0.03201
0.0276686
0.638541
0.531145
0.4731
0.38944
0.561024
0.46476
0.408725
0.336264
0.301548
0.156345
0.186687
0.0650215
0.250245
0.118863
0.148439
0.0435184
0.0760591
0.0760637
0.0163648
0.0163668
0.046344
0.046347
0.00856648
0.00856729
0.156351
0.301554
0.0650261
0.186691
0.118868
0.250249
0.0435207
0.148441
0.531149
0.638544
0.389442
0.473101
0.464763
0.561026
0.336266
0.408725
0.86213
0.73563
0.763525
0.643733
0.759343
0.644372
0.672923
0.564468
0.485559
0.329169
0.40034
0.246587
0.408322
0.264031
0.335617
0.194294
0.253565
0.253568
0.169238
0.169242
0.194719
0.194722
0.12287
0.122874
0.329175
0.485565
0.246594
0.400346
0.264037
0.408328
0.1943
0.335623
0.735635
0.862133
0.643738
0.763528
0.644377
0.759347
0.564472
0.672927
1.00865
0.876309
0.942117
0.811904
0.885726
0.765015
0.828547
0.709957
0.622269
0.465563
0.558962
0.402065
0.524119
0.379478
0.470577
0.325746
0.391764
0.391766
0.32755
0.327552
0.312498
0.3125
0.25786
0.257863
0.465567
0.622273
0.402071
0.558967
0.379482
0.524124
0.325751
0.470582
0.876312
1.00865
0.811908
0.94212
0.765018
0.885728
0.709962
0.82855
1.11092
0.976726
1.06418
0.930646
0.973259
0.850523
0.933284
0.811321
0.722979
0.567238
0.676558
0.520312
0.609076
0.465265
0.56995
0.425721
0.49432
0.494321
0.447021
0.447022
0.399274
0.399275
0.359334
0.359335
0.567238
0.722977
0.520314
0.676559
0.465267
0.609077
0.425725
0.569953
0.976724
1.11092
0.930646
1.06417
0.850523
0.973256
0.811323
0.933283
1.18231
1.0477
1.14982
1.01532
1.03422
0.910795
1.00649
0.883315
0.795363
0.640673
0.762274
0.607079
0.669947
0.526924
0.642144
0.498754
0.568304
0.568303
0.534462
0.534462
0.461436
0.461435
0.43305
0.43305
0.640668
0.795355
0.607077
0.76227
0.526923
0.669943
0.498754
0.642142
1.04769
1.1823
1.01532
1.14981
0.910789
1.03421
0.883312
1.00648
1.23058
1.09615
1.20885
1.07431
1.07535
0.951826
1.05685
0.933337
0.845443
0.691737
0.822831
0.668657
0.711913
0.569583
0.692985
0.55033
0.619798
0.619795
0.596516
0.596514
0.504433
0.504432
0.485024
0.485023
0.691728
0.84543
0.668651
0.82282
0.569578
0.711904
0.550326
0.692978
1.09614
1.23057
1.07429
1.20884
0.951815
1.07534
0.933328
1.05684
1.26137
1.12738
1.24775
1.11354
1.10151
0.978167
1.08995
0.966507
0.878238
0.725428
0.863691
0.710459
0.739257
0.597559
0.727146
0.585152
0.653868
0.653864
0.638718
0.638714
0.532693
0.53269
0.52015
0.520148
0.725415
0.87822
0.710448
0.863675
0.597552
0.739244
0.585145
0.727135
1.12736
1.26135
1.11353
1.24774
0.978151
1.10149
0.966493
1.08994
1.27915
1.14572
1.27154
1.13784
1.11653
0.993528
1.11011
0.986937
0.897998
0.746
0.889485
0.737107
0.755606
0.6145
0.74858
0.607196
0.674788
0.674783
0.665727
0.665722
0.549897
0.549894
0.542465
0.542462
0.745985
0.897977
0.737093
0.889465
0.61449
0.75559
0.607187
0.748565
1.1457
1.27913
1.13782
1.27152
0.993509
1.11651
0.986919
1.11009
1.28749
1.15467
1.28421
1.1511
1.12349
1.00093
1.12077
0.997986
0.908245
0.756995
0.904098
0.752495
0.763965
0.623429
0.7606
0.619794
0.686114
0.686109
0.681453
0.681448
0.559084
0.559081
0.555322
0.555319
0.75698
0.908223
0.75248
0.904076
0.623419
0.763949
0.619783
0.760584
1.15465
1.28747
1.15107
1.28419
1.00091
1.12347
0.997966
1.12075
1.28921
1.15704
1.28893
1.15645
1.12478
1.00273
1.12463
1.00233
0.911808
0.761271
0.910687
0.759814
0.766724
0.626768
0.765894
0.625659
0.690716
0.690711
0.6891
0.689095
0.562691
0.562688
0.561451
0.561448
0.761257
0.911788
0.759799
0.910666
0.626758
0.766709
0.62565
0.765878
1.15702
1.2892
1.15643
1.28891
1.00272
1.12476
1.00231
1.12461
1.28653
1.15504
1.28831
1.15646
1.12229
1.00082
1.12394
1.00216
0.910954
0.761095
0.911807
0.761607
0.765815
0.626451
0.766631
0.626948
0.69085
0.690845
0.691209
0.691204
0.562643
0.56264
0.563002
0.562999
0.76108
0.910934
0.761593
0.911787
0.626443
0.765802
0.62694
0.766618
1.15502
1.28652
1.15644
1.28829
1.0008
1.12228
1.00214
1.12393
1.28054
1.14981
1.28378
1.15268
1.11691
0.996139
1.11981
0.998684
0.90693
0.757851
0.909237
0.759782
0.762262
0.623608
0.764271
0.625271
0.687981
0.687975
0.689731
0.689725
0.560133
0.56013
0.561636
0.561633
0.757832
0.906903
0.759766
0.909214
0.623597
0.76224
0.625262
0.764257
1.14978
1.28051
1.15266
1.28376
0.996033
1.11683
0.998649
1.1198
1.27232
1.14244
1.2766
1.14628
1.1099
0.989917
1.11347
0.993089
0.900958
0.752737
0.904118
0.755464
0.757232
0.619311
0.759863
0.621585
0.68327
0.683263
0.685793
0.685786
0.556177
0.556173
0.558282
0.558278
0.752718
0.900935
0.755445
0.90409
0.619299
0.757199
0.621573
0.759835
1.14242
1.27229
1.14625
1.27657
0.989698
1.1097
0.992933
1.11333
1.26298
1.13407
1.26762
1.13823
1.10233
0.983122
1.10608
0.986503
0.89401
0.746659
0.897538
0.749775
0.751518
0.614281
0.754415
0.616854
0.677599
0.677594
0.680518
0.680512
0.551477
0.551473
0.553889
0.553886
0.746647
0.894008
0.74976
0.897527
0.61427
0.751483
0.616843
0.754382
1.13414
1.26304
1.13825
1.26761
0.9828
1.10195
0.986211
1.10579
1.25361
1.12559
1.25825
1.12981
1.09432
0.975908
1.09831
0.979501
0.886751
0.740158
0.890409
0.743449
0.745454
0.608895
0.748506
0.611618
0.671465
0.671457
0.674576
0.67457
0.546407
0.546401
0.548974
0.548969
0.740137
0.88673
0.743434
0.890399
0.608878
0.745424
0.611604
0.74847
1.12564
1.25367
1.12987
1.25831
0.975785
1.09415
0.979276
1.098
1.24368
1.11667
1.24853
1.12103
1.08599
0.968473
1.09008
0.972119
0.879192
0.733398
0.88296
0.736797
0.739186
0.603304
0.742319
0.606115
0.665078
0.665066
0.668297
0.668287
0.541133
0.541125
0.543789
0.543782
0.733364
0.879155
0.73677
0.882936
0.603281
0.73916
0.606096
0.742295
1.11677
1.24377
1.1211
1.2486
0.968388
1.0859
0.972019
1.08997
1.23384
1.10781
1.23873
1.11222
1.07758
0.96096
1.08176
0.964697
0.871552
0.726496
0.875392
0.729971
0.732787
0.597574
0.735995
0.600455
0.658532
0.658516
0.661828
0.661814
0.535718
0.535707
0.538442
0.538432
0.726447
0.871481
0.729929
0.875343
0.597538
0.732723
0.600425
0.735948
1.10785
1.23396
1.11232
1.23886
0.960814
1.0774
0.964557
1.08161
1.22353
1.0986
1.22863
1.10315
1.06884
0.953201
1.07318
0.95704
0.863631
0.719395
0.867609
0.72297
0.726202
0.591684
0.729506
0.594647
0.651816
0.651798
0.655198
0.65518
0.53016
0.530147
0.532957
0.532944
0.719337
0.863528
0.722913
0.8675
0.591644
0.726132
0.594609
0.729438
1.09846
1.22328
1.10295
1.22843
0.953088
1.06871
0.956908
1.07302
1.21302
1.08921
1.21824
1.09386
1.05983
0.945266
1.06427
0.949175
0.855551
0.712121
0.859611
0.715784
0.719414
0.585633
0.722817
0.588678
0.644934
0.644919
0.648401
0.648384
0.524453
0.524442
0.527326
0.527313
0.712073
0.855485
0.71573
0.859533
0.585595
0.719346
0.588637
0.722745
1.08935
1.21318
1.09395
1.21825
0.945178
1.05971
0.949041
1.06411
1.20196
1.07941
1.20744
1.08425
1.05059
0.937108
1.05515
0.941135
0.847156
0.704621
0.85137
0.708398
0.712415
0.579396
0.71593
0.582536
0.637858
0.637849
0.641424
0.641412
0.51858
0.518572
0.521538
0.521528
0.704594
0.847124
0.708362
0.851323
0.579373
0.712376
0.582506
0.715879
1.07953
1.20212
1.0844
1.20762
0.937028
1.05052
0.941095
1.0551
1.1908
1.06947
1.19635
1.07443
1.04078
0.928495
1.04566
0.932761
0.838575
0.696919
0.84289
0.7008
0.705183
0.572972
0.708812
0.576206
0.630579
0.630573
0.634248
0.634241
0.51253
0.512526
0.515577
0.515571
0.696903
0.838555
0.700779
0.842866
0.572958
0.705155
0.576188
0.708778
1.06953
1.19085
1.07451
1.19645
0.928381
1.04064
0.932655
1.04556
1.1788
1.05891
1.18478
1.06413
1.03078
0.919746
1.03573
0.924082
0.829681
0.68898
0.834142
0.692977
0.697765
0.566362
0.701483
0.569687
0.623084
0.623081
0.626861
0.626857
0.506302
0.5063
0.509438
0.509434
0.688972
0.829676
0.692965
0.834131
0.566357
0.697759
0.569677
0.701466
1.05904
1.17895
1.06423
1.18487
0.919744
1.03077
0.924012
1.03562
1.16705
1.04859
1.1728
1.05367
1.02054
0.91085
1.02556
0.915194
0.820674
0.680849
0.825186
0.684942
0.690209
0.559589
0.693984
0.562994
0.615377
0.615374
0.619262
0.619259
0.499896
0.499895
0.503122
0.503121
0.680843
0.820668
0.684936
0.825183
0.559586
0.690204
0.562991
0.69398
1.04862
1.16712
1.05376
1.17294
0.910814
1.0205
0.915164
1.02554
1.15486
1.03785
1.16089
1.04315
1.01026
0.901883
1.01535
0.906335
0.811372
0.672448
0.816051
0.676689
0.682445
0.552594
0.686354
0.556124
0.607405
0.607403
0.611431
0.611429
0.49327
0.49327
0.496615
0.496614
0.672443
0.811364
0.676683
0.816044
0.552594
0.682445
0.556123
0.686352
1.03782
1.15484
1.04316
1.16092
0.901887
1.01026
0.90633
1.01534
1.14208
1.02658
1.14849
1.03223
0.999258
0.892287
1.00478
0.897094
0.801651
0.663682
0.806566
0.668118
0.674275
0.545279
0.678406
0.548979
0.599095
0.599094
0.6033
0.603298
0.486356
0.486357
0.489852
0.489852
0.663679
0.801648
0.668114
0.806561
0.545281
0.674277
0.54898
0.678407
1.02658
1.14209
1.03221
1.14848
0.892291
0.999263
0.897099
1.00479
1.12848
1.01462
1.13529
1.0206
0.98756
0.882117
0.993409
0.887197
0.791409
0.654491
0.796584
0.659141
0.665667
0.537608
0.670012
0.541486
0.590402
0.590401
0.5948
0.594799
0.479122
0.479123
0.482779
0.48278
0.65449
0.791409
0.659139
0.796583
0.537611
0.665671
0.541488
0.670015
1.01463
1.12849
1.02061
1.1353
0.882123
0.987567
0.887202
0.993414
1.11424
1.00211
1.12135
1.00835
0.975339
0.871497
0.981434
0.876791
0.780701
0.644891
0.786101
0.649742
0.656677
0.529599
0.661207
0.533643
0.581325
0.581324
0.585913
0.585913
0.471571
0.471572
0.475385
0.475386
0.64489
0.780703
0.649741
0.786102
0.529601
0.65668
0.533646
0.661211
1.00212
1.11426
1.00836
1.12136
0.871503
0.975347
0.876797
0.98144
1.09949
0.98914
1.10684
0.995609
0.962686
0.860493
0.96899
0.865974
0.769575
0.634901
0.775181
0.639946
0.647342
0.521272
0.652041
0.525474
0.571873
0.571873
0.576649
0.576648
0.463715
0.463716
0.467681
0.467682
0.6349
0.769577
0.639945
0.775183
0.521274
0.647345
0.525476
0.652045
0.989149
1.0995
0.995618
1.10686
0.8605
0.962694
0.865981
0.968997
1.08426
0.975722
1.09185
0.982418
0.949633
0.849128
0.956137
0.85479
0.758035
0.624515
0.763851
0.629761
0.63767
0.512625
0.64254
0.516989
0.562035
0.562035
0.567007
0.567007
0.455549
0.45555
0.459672
0.459673
0.624515
0.758037
0.629761
0.763853
0.512628
0.637674
0.516991
0.642543
0.975733
1.08428
0.982427
1.09187
0.849135
0.949642
0.854796
0.956144
1.06855
0.961839
1.07639
0.96877
0.936167
0.837374
0.942882
0.843238
0.746039
0.613683
0.752091
0.619162
0.627632
0.503624
0.632692
0.508172
0.551755
0.551755
0.556958
0.556958
0.447033
0.447034
0.451339
0.45134
0.613684
0.746042
0.619162
0.752093
0.503627
0.627637
0.508175
0.632696
0.96185
1.06857
0.968779
1.07641
0.837382
0.936177
0.843245
0.94289
1.05226
0.94741
1.06041
0.954636
0.922233
0.82515
0.929195
0.831264
0.733482
0.602289
0.739834
0.608069
0.617141
0.494178
0.622442
0.498964
0.540914
0.540915
0.546418
0.546418
0.438076
0.438077
0.442618
0.442619
0.60229
0.733486
0.60807
0.739838
0.494182
0.617146
0.498967
0.622448
0.947422
1.05228
0.954647
1.06042
0.825159
0.922244
0.831272
0.929205
1.0352
0.932216
1.04376
0.939857
0.907679
0.812309
0.914978
0.818757
0.720151
0.590119
0.726923
0.59632
0.606031
0.484116
0.611669
0.489237
0.529297
0.529298
0.535223
0.535223
0.428506
0.428508
0.433382
0.433383
0.590121
0.720157
0.596322
0.726928
0.484121
0.606038
0.489241
0.611675
0.93223
1.03523
0.939869
1.04378
0.81232
0.907691
0.818767
0.914989
1.01709
0.915941
1.02623
0.924172
0.892239
0.798581
0.900024
0.805516
0.705713
0.576834
0.713091
0.583644
0.594027
0.473163
0.600155
0.478772
0.516565
0.516566
0.523099
0.5231
0.418048
0.41805
0.423409
0.423411
0.576838
0.705721
0.583647
0.713098
0.473169
0.594036
0.478777
0.600163
0.915957
1.01711
0.924186
1.02625
0.798594
0.892253
0.805527
0.900036
0.997399
0.898074
1.00741
0.907183
0.875474
0.783531
0.883992
0.791195
0.689645
0.56192
0.697919
0.569622
0.580694
0.460895
0.587554
0.467226
0.502217
0.502219
0.509633
0.509634
0.406291
0.406294
0.412363
0.412366
0.561926
0.689655
0.569626
0.697928
0.460903
0.580704
0.467232
0.587564
0.898092
0.997425
0.907199
1.00743
0.783546
0.875491
0.791209
0.884007
0.975208
0.877713
0.986625
0.888218
0.856592
0.766398
0.866301
0.77523
0.671086
0.544607
0.680742
0.553624
0.565317
0.446675
0.573313
0.454078
0.485551
0.485553
0.494226
0.494228
0.392655
0.392658
0.39975
0.399753
0.544615
0.6711
0.553631
0.680754
0.446684
0.565331
0.454086
0.573325
0.877735
0.975238
0.888238
0.986651
0.766416
0.856612
0.775246
0.866319
0.948686
0.853055
0.96259
0.866033
0.834023
0.745656
0.845853
0.756569
0.648491
0.52374
0.660427
0.534708
0.546595
0.42953
0.556487
0.438543
0.465675
0.465678
0.476072
0.476075
0.376391
0.376396
0.3849
0.384903
0.523751
0.648509
0.534717
0.660443
0.429542
0.546612
0.438554
0.556502
0.853083
0.948722
0.866057
0.96262
0.745678
0.834048
0.756589
0.845875
0.914036
0.819459
0.932639
0.837836
0.804403
0.717221
0.820336
0.732815
0.618646
0.497713
0.634776
0.511475
0.521714
0.408056
0.535196
0.419429
0.441844
0.441849
0.454265
0.45427
0.356844
0.35685
0.367041
0.367046
0.497729
0.618672
0.511488
0.634798
0.408072
0.521737
0.419443
0.535216
0.819495
0.914082
0.837867
0.932677
0.717251
0.804436
0.732841
0.820364
0.864996
0.759181
0.891826
0.795201
0.761575
0.664672
0.785196
0.696353
0.575257
0.465795
0.599094
0.482359
0.484742
0.381421
0.505194
0.39529
0.415023
0.41503
0.428591
0.428597
0.334734
0.334741
0.345932
0.345938
0.465816
0.575292
0.482377
0.599125
0.38144
0.484771
0.395307
0.50522
0.759231
0.865065
0.795243
0.891879
0.66471
0.761624
0.696386
0.785236
0.307663
0.259659
0.0509228
0.0546368
0.284373
0.240687
0.0453658
0.0488912
0.0880573
0.0198025
0.00923751
0.00371365
0.0771149
0.0160861
0.00806336
0.00352515
0.00452611
0.00452663
0.00305852
0.00305853
0.00390383
0.00390408
0.00306082
0.00306083
0.0198052
0.0880625
0.0037138
0.00923817
0.0160876
0.0771176
0.00352521
0.00806365
0.259665
0.307667
0.0546392
0.0509241
0.24069
0.284375
0.0488924
0.0453665
0.72346
0.606129
0.543952
0.44987
0.689019
0.57541
0.515335
0.425163
0.363178
0.205947
0.232484
0.0953537
0.337524
0.18461
0.213615
0.0821999
0.121669
0.121674
0.0319564
0.0319604
0.101426
0.101431
0.0244962
0.0244989
0.205956
0.363186
0.095362
0.232491
0.184618
0.337531
0.0822057
0.21362
0.606135
0.723464
0.449876
0.543957
0.575415
0.689022
0.425167
0.515338
0.977834
0.842007
0.863751
0.734382
0.930238
0.797805
0.822836
0.697007
0.581478
0.416176
0.479252
0.315717
0.540974
0.378702
0.44618
0.286067
0.336103
0.336106
0.234228
0.234232
0.300089
0.300092
0.205902
0.205905
0.416182
0.581484
0.315726
0.47926
0.378708
0.540981
0.286074
0.446186
0.842012
0.977838
0.734388
0.863755
0.79781
0.930242
0.697012
0.82284
1.15217
1.01096
1.07241
0.933095
1.09227
0.954195
1.0184
0.882351
0.74831
0.583285
0.670703
0.505257
0.694368
0.532051
0.62318
0.460572
0.504625
0.504626
0.426023
0.426025
0.45498
0.454981
0.382882
0.382884
0.583286
0.74831
0.505261
0.670707
0.532054
0.69437
0.460577
0.623184
1.01096
1.15217
0.933098
1.07241
0.954196
1.09227
0.882354
1.0184
1.27621
1.13367
1.21933
1.07719
1.20646
1.06679
1.15418
1.01505
0.872799
0.709205
0.815271
0.650931
0.808047
0.646921
0.755586
0.593836
0.631384
0.631382
0.572728
0.572727
0.570685
0.570685
0.51723
0.517231
0.709201
0.872792