/*--------------------------------*- C++ -*----------------------------------*\
  =========                 |
  \\      /  F ield         | OpenFOAM: The Open Source CFD Toolbox
   \\    /   O peration     | Website:  https://openfoam.org
    \\  /    A nd           | Version:  9
     \\/     M anipulation  |
\*---------------------------------------------------------------------------*/
FoamFile
{
    format      ascii;
    class       volScalarField;
    location    "1.5";
    object      nut;
}
// * * * * * * * * * * * * * * * * * * * * * * * * * * * * * * * * * * * * * //

dimensions      [0 2 -1 0 0 0 0];

internalField   nonuniform List<scalar> 
36360
(
0.00196102
0.0019215
0.000318559
0.000419113
0.000359773
0.000368196
0.000195051
0.000189118
0.000639491
0.000204132
0.000174931
0.000163021
0.000197299
0.00016276
0.000172084
0.000174329
0.000161785
0.000161785
0.000166845
0.000166845
0.000163679
0.000163679
0.000173913
0.000173913
0.000204138
0.000639502
0.000163021
0.000174932
0.00016276
0.000197299
0.000174329
0.000172084
0.0019215
0.00196096
0.000419114
0.000318554
0.000368196
0.000359767
0.000189118
0.000195051
0.00601595
0.00530664
0.00442342
0.00385427
0.00103657
0.000932505
0.00071965
0.000682249
0.00356818
0.00206837
0.00212952
0.000735403
0.000613108
0.000315761
0.000365713
0.000186959
0.000879659
0.00087975
0.000227616
0.000227632
0.000175594
0.000175598
0.000153758
0.000153758
0.00206853
0.00356829
0.000735461
0.00212957
0.000315772
0.000613118
0.000186961
0.000365717
0.0053067
0.00601595
0.0038543
0.00442342
0.000932511
0.00103657
0.000682252
0.000719646
0.00794974
0.00724816
0.0071146
0.00638891
0.00132483
0.00119205
0.00121271
0.0010864
0.00565812
0.00456124
0.00470691
0.00338145
0.000916529
0.000676313
0.000793275
0.000509144
0.00411684
0.00411693
0.00258762
0.00258773
0.000503627
0.00050364
0.00030351
0.00030352
0.00456141
0.00565826
0.00338162
0.00470703
0.000676332
0.000916543
0.000509161
0.000793287
0.00724822
0.00794973
0.00638897
0.00711461
0.00119206
0.00132483
0.00108641
0.00121271
0.00919419
0.00856103
0.0086264
0.00795913
0.00146524
0.00133281
0.00140432
0.00127075
0.00714719
0.00634462
0.0064636
0.0055413
0.00108184
0.000893551
0.00100898
0.000799944
0.00611615
0.0061162
0.00524636
0.00524642
0.000791128
0.000791136
0.00067419
0.0006742
0.00634474
0.00714729
0.00554144
0.00646371
0.000893567
0.00108186
0.000799962
0.00100899
0.00856104
0.00919412
0.00795917
0.00862638
0.00133282
0.00146525
0.00127076
0.00140432
0.0100842
0.00950802
0.00967517
0.00907264
0.00155319
0.00142415
0.00151372
0.00138296
0.00821264
0.0075487
0.00772516
0.00700372
0.00118825
0.00102331
0.00114048
0.000966026
0.00737462
0.00737464
0.00680925
0.00680928
0.000940972
0.000940978
0.000876198
0.000876204
0.00754875
0.00821266
0.0070038
0.00772521
0.00102332
0.00118826
0.00096604
0.0011405
0.00950794
0.010084
0.0090726
0.00967506
0.00142416
0.00155319
0.00138296
0.00151372
0.0107202
0.0101851
0.0104295
0.00987571
0.00161171
0.00148565
0.00158535
0.00145791
0.00896322
0.0083726
0.00862146
0.00799938
0.001259
0.0011058
0.0012272
0.00106903
0.00822187
0.00822187
0.0078389
0.0078389
0.00103162
0.00103162
0.000991535
0.00099154
0.00837259
0.00896314
0.00799938
0.00862142
0.00110581
0.00125901
0.00106904
0.00122721
0.0101849
0.0107198
0.00987556
0.0104293
0.00148565
0.0016117
0.00145791
0.00158535
0.0111606
0.0106543
0.0109615
0.0104421
0.00165018
0.00152632
0.001633
0.00150814
0.00947864
0.00893049
0.00924608
0.00867936
0.00130551
0.00115885
0.00128476
0.00113528
0.0087929
0.00879288
0.00853589
0.00853587
0.00108878
0.00108879
0.00106347
0.00106347
0.00893041
0.00947846
0.0086793
0.00924594
0.00115885
0.00130552
0.00113528
0.00128476
0.010654
0.0111601
0.0104419
0.0109611
0.00152632
0.00165017
0.00150813
0.00163299
0.0114495
0.010964
0.011321
0.0108261
0.00167428
0.00155195
0.0016637
0.00154068
0.00981761
0.00929538
0.00966683
0.00913312
0.00133484
0.001192
0.00132195
0.00117745
0.00916658
0.00916654
0.00900023
0.00900019
0.00112422
0.00112422
0.00110869
0.0011087
0.00929526
0.00981736
0.00913299
0.00966659
0.001192
0.00133484
0.00117746
0.00132195
0.0109635
0.0114489
0.0108257
0.0113205
0.00155194
0.00167426
0.00154067
0.00166369
0.0116262
0.0111542
0.0115494
0.0110715
0.00168807
0.00156675
0.0016822
0.00156043
0.0100261
0.00952003
0.00993548
0.00942221
0.00135196
0.00121136
0.00134465
0.00120308
0.00939753
0.00939749
0.00929673
0.00929668
0.00114489
0.00114489
0.00113605
0.00113606
0.00951987
0.0100258
0.00942204
0.00993518
0.00121136
0.00135195
0.00120308
0.00134464
0.0111538
0.0116255
0.011071
0.0115488
0.00156673
0.00168805
0.00156041
0.00168218
0.0117217
0.011258
0.0116821
0.0112149
0.00169465
0.00157393
0.00169206
0.00157107
0.0101407
0.00964441
0.010093
0.00959235
0.00136054
0.00122124
0.00135711
0.00121725
0.00952649
0.00952646
0.00947225
0.0094722
0.00115552
0.00115552
0.00115121
0.00115121
0.0096443
0.0101404
0.00959219
0.0100927
0.00122124
0.00136054
0.00121725
0.0013571
0.0112576
0.0117211
0.0112143
0.0116815
0.00157391
0.00169463
0.00157106
0.00169204
0.0117581
0.0112993
0.0117458
0.0112851
0.00169612
0.00157572
0.00169587
0.00157535
0.0101892
0.00969939
0.0101714
0.00967854
0.00136326
0.00122471
0.00136248
0.00122361
0.00958486
0.00958488
0.00956238
0.00956236
0.00115942
0.00115943
0.00115813
0.00115813
0.0096994
0.0101891
0.00967846
0.0101712
0.00122471
0.00136325
0.00122361
0.00136248
0.011299
0.0117575
0.0112847
0.0117453
0.0015757
0.0016961
0.00157533
0.00169585
0.0117599
0.0113034
0.0117641
0.0113061
0.00169446
0.00157422
0.00169571
0.00157538
0.0101959
0.00970855
0.0101958
0.00970689
0.00136241
0.00122428
0.00136318
0.0012248
0.00959548
0.00959555
0.00959361
0.00959364
0.0011592
0.0011592
0.00115962
0.00115962
0.00970872
0.0101961
0.00970696
0.0101958
0.00122428
0.0013624
0.00122481
0.00136317
0.0113036
0.0117599
0.0113059
0.0117637
0.00157421
0.00169444
0.00157537
0.0016957
0.0117326
0.0112774
0.0117486
0.0112928
0.00169041
0.00157026
0.00169258
0.00157239
0.0101716
0.00968666
0.0101864
0.00970051
0.00135886
0.00122102
0.00136083
0.00122289
0.00957558
0.00957569
0.00958879
0.00958888
0.00115611
0.00115611
0.00115792
0.00115792
0.00968692
0.0101719
0.00970071
0.0101866
0.00122102
0.00135886
0.00122289
0.00136082
0.0112773
0.0117324
0.0112928
0.0117487
0.00157026
0.00169039
0.00157239
0.00169257
0.0116901
0.0112353
0.0117124
0.0112576
0.00168526
0.00156517
0.00168789
0.00156777
0.0101297
0.00964572
0.0101521
0.00966764
0.00135404
0.00121634
0.00135655
0.0012188
0.00953554
0.00953566
0.00955696
0.00955707
0.0011515
0.0011515
0.00115393
0.00115393
0.00964597
0.0101299
0.00966787
0.0101523
0.00121634
0.00135403
0.0012188
0.00135655
0.0112353
0.0116898
0.0112575
0.0117123
0.00156516
0.00168524
0.00156777
0.00168788
0.0116381
0.0111835
0.0116646
0.0112098
0.00167954
0.00155946
0.00168241
0.00156232
0.0100782
0.00959433
0.0101046
0.00962065
0.00134853
0.0012109
0.00135133
0.00121368
0.00948467
0.00948479
0.00951069
0.0095108
0.00114608
0.00114608
0.00114885
0.00114885
0.00959458
0.0100783
0.00962088
0.0101047
0.00121089
0.00134852
0.00121367
0.00135132
0.0111839
0.0116384
0.0112101
0.0116647
0.00155945
0.00167953
0.00156231
0.0016824
0.0115826
0.0111281
0.0116105
0.011156
0.00167349
0.00155341
0.00167651
0.00155642
0.0100216
0.00953746
0.0100501
0.00956609
0.00134266
0.00120506
0.00134561
0.00120801
0.00942797
0.00942807
0.00945646
0.00945656
0.00114024
0.00114024
0.00114319
0.00114319
0.00953766
0.0100217
0.0095663
0.0100502
0.00120504
0.00134264
0.001208
0.0013456
0.0111275
0.0115819
0.0111558
0.0116104
0.00155337
0.00167345
0.0015564
0.00167649
0.011524
0.0110695
0.0115534
0.0110988
0.00166718
0.00154709
0.00167033
0.00155024
0.00996243
0.00947754
0.00999209
0.00950751
0.00133653
0.00119895
0.00133961
0.00120202
0.00936797
0.00936801
0.00939791
0.00939798
0.00113412
0.00113412
0.0011372
0.0011372
0.00947758
0.00996232
0.00950761
0.00999207
0.00119893
0.00133651
0.001202
0.00133958
0.0110693
0.0115236
0.0110984
0.0115527
0.00154706
0.00166714
0.0015502
0.00167028
0.0114629
0.0110087
0.0114936
0.0110391
0.00166064
0.00154055
0.0016639
0.00154381
0.00990115
0.00941543
0.00993185
0.00944646
0.0013302
0.00119262
0.00133338
0.0011958
0.00930567
0.00930565
0.00933671
0.00933671
0.00112779
0.00112778
0.00113097
0.00113097
0.00941529
0.00990077
0.00944637
0.00993156
0.00119261
0.00133017
0.00119579
0.00133335
0.0110079
0.0114619
0.0110384
0.0114929
0.00154051
0.00166058
0.00154377
0.00166385
0.0114005
0.0109468
0.0114316
0.0109777
0.00165384
0.00153377
0.00165723
0.00153715
0.00983786
0.00935122
0.00986957
0.0093833
0.00132364
0.00118608
0.00132694
0.00118937
0.00924126
0.0092412
0.00927336
0.0092733
0.00112123
0.00112122
0.00112453
0.00112452
0.00935098
0.00983732
0.00938308
0.00986908
0.00118606
0.00132361
0.00118935
0.0013269
0.010946
0.0113993
0.0109769
0.0114305
0.00153372
0.00165378
0.0015371
0.00165718
0.0113344
0.0108816
0.0113676
0.010914
0.00164677
0.00152672
0.0016503
0.00153024
0.00977236
0.00928485
0.00980519
0.00931803
0.00131684
0.00117929
0.00132026
0.0011827
0.00917468
0.00917461
0.00920788
0.0092078
0.00111442
0.00111442
0.00111785
0.00111784
0.00928458
0.00977181
0.00931774
0.0098046
0.00117927
0.0013168
0.00118269
0.00132022
0.0108812
0.0113339
0.0109136
0.0113668
0.00152666
0.00164671
0.00153018
0.00165024
0.0112669
0.0108152
0.0113007
0.0108484
0.00163938
0.00151936
0.00164308
0.00152304
0.00970458
0.00921615
0.00973857
0.00925052
0.00130976
0.00117222
0.00131332
0.00117578
0.00910578
0.00910571
0.00914016
0.00914008
0.00110734
0.00110734
0.00111091
0.00111091
0.00921594
0.00970415
0.00925025
0.00973806
0.00117222
0.00130974
0.00117577
0.00131329
0.0108141
0.0112657
0.0108477
0.0113
0.00151932
0.00163933
0.00152299
0.00164302
0.0111966
0.0107458
0.011232
0.0107806
0.00163169
0.0015117
0.00163554
0.00151553
0.0096344
0.00914499
0.0096696
0.00918061
0.00130239
0.00116488
0.0013061
0.00116858
0.00903438
0.00903434
0.00907003
0.00906997
0.00109998
0.00109998
0.00110369
0.00110369
0.00914485
0.00963409
0.00918041
0.00966921
0.00116488
0.00130239
0.00116858
0.00130609
0.0107451
0.0111956
0.0107796
0.0112307
0.00151168
0.00163166
0.00151549
0.00163549
0.0111234
0.010674
0.01116
0.0107099
0.00162371
0.00150376
0.00162767
0.00150769
0.00956175
0.00907118
0.00959823
0.00910818
0.00129476
0.00115725
0.00129859
0.00116109
0.00896026
0.00896023
0.00899732
0.00899728
0.00109232
0.00109233
0.00109618
0.00109619
0.00907109
0.00956156
0.00910805
0.00959798
0.00115726
0.00129477
0.0011611
0.00129859
0.0106736
0.0111226
0.0107092
0.0111591
0.00150377
0.0016237
0.00150768
0.00162765
0.0110478
0.0106
0.0110856
0.0106369
0.00161562
0.00149573
0.00161962
0.0014997
0.00948622
0.00899423
0.0095242
0.00903286
0.00128693
0.00114935
0.00129085
0.00115332
0.00888298
0.00888295
0.00892169
0.00892165
0.00108436
0.00108437
0.00108838
0.00108838
0.00899413
0.009486
0.00903274
0.00952397
0.00114937
0.00128695
0.00115334
0.00129087
0.0106
0.0110477
0.0106369
0.0110854
0.00149576
0.00161564
0.00149972
0.00161963
0.0109697
0.0105232
0.0110091
0.0105619
0.00160726
0.00148739
0.00161147
0.00149159
0.00940741
0.0089138
0.00944707
0.00895419
0.00127878
0.00114111
0.00128289
0.00114527
0.00880216
0.00880213
0.00884267
0.00884264
0.00107605
0.00107606
0.00108025
0.00108026
0.00891373
0.00940722
0.00895408
0.00944683
0.00114113
0.00127881
0.0011453
0.00128292
0.0105228
0.0109691
0.0105615
0.0110087
0.00148741
0.00160728
0.00149161
0.00161148
0.0108869
0.010442
0.0109286
0.0104829
0.00159829
0.00147844
0.00160282
0.00148295
0.00932495
0.00882969
0.00936647
0.00887195
0.00127015
0.00113243
0.00127452
0.00113683
0.00871755
0.00871754
0.00875999
0.00875996
0.0010673
0.00106731
0.00107173
0.00107173
0.00882964
0.00932482
0.00887187
0.0093663
0.00113245
0.00127018
0.00113685
0.00127455
0.0104418
0.0108864
0.0104825
0.0109281
0.00147846
0.0015983
0.00148297
0.00160284
0.0107998
0.0103569
0.0108436
0.0103997
0.00158874
0.00146892
0.00159355
0.00147371
0.00923865
0.00874167
0.00928212
0.00878592
0.00126101
0.00112326
0.00126563
0.0011279
0.00862898
0.00862896
0.00867343
0.0086734
0.00105806
0.00105807
0.00106273
0.00106274
0.00874163
0.00923854
0.00878586
0.00928198
0.00112327
0.00126103
0.00112792
0.00126565
0.0103566
0.0107993
0.0103994
0.0108432
0.00146894
0.00158875
0.00147372
0.00159356
0.0107085
0.0102677
0.0107544
0.0103125
0.0015787
0.00145892
0.00158374
0.00146394
0.00914837
0.00864954
0.00919385
0.00869587
0.00125139
0.0011136
0.00125625
0.00111848
0.00853626
0.00853624
0.00858281
0.00858278
0.00104833
0.00104833
0.00105325
0.00105325
0.00864949
0.00914825
0.0086958
0.00919371
0.00111361
0.00125141
0.0011185
0.00125626
0.0102675
0.0107081
0.0103123
0.010754
0.00145893
0.00157871
0.00146395
0.00158375
0.0106132
0.0101746
0.0106611
0.0102214
0.00156823
0.00144847
0.00157348
0.00145371
0.009054
0.00855314
0.00910155
0.00860164
0.00124132
0.00110347
0.0012464
0.00110858
0.00843921
0.00843919
0.00848796
0.00848793
0.0010381
0.00103811
0.00104327
0.00104328
0.00855308
0.00905387
0.00860156
0.00910139
0.00110348
0.00124134
0.0011086
0.00124642
0.0101743
0.0106127
0.0102211
0.0106607
0.00144848
0.00156823
0.00145372
0.00157349
0.0105136
0.0100772
0.0105637
0.0101262
0.00155734
0.00143757
0.0015628
0.00144304
0.00895526
0.00845209
0.00900505
0.00850298
0.0012308
0.00109286
0.00123611
0.00109822
0.00833743
0.0083374
0.00838862
0.00838859
0.00102739
0.00102739
0.0010328
0.00103281
0.00845203
0.00895514
0.00850289
0.0090049
0.00109288
0.00123082
0.00109823
0.00123612
0.010077
0.0105131
0.0101259
0.0105633
0.00143758
0.00155734
0.00144305
0.00156281
0.0104092
0.00997512
0.0104618
0.0100265
0.00154602
0.00142624
0.0015517
0.00143192
0.00885155
0.00834562
0.00890393
0.00839936
0.00121982
0.00108174
0.00122536
0.00108736
0.00823004
0.00823002
0.00828419
0.00828415
0.00101613
0.00101614
0.00102183
0.00102183
0.00834557
0.00885144
0.00839928
0.00890378
0.00108176
0.00121984
0.00108738
0.00122538
0.00997488
0.0104087
0.0100263
0.0104614
0.00142625
0.00154603
0.00143193
0.00155171
0.010299
0.00986715
0.0103547
0.00992177
0.00153421
0.00141441
0.00154015
0.00142036
0.00874151
0.00823219
0.0087973
0.00828968
0.00120828
0.00107001
0.00121412
0.00107596
0.0081154
0.00811538
0.00817345
0.00817342
0.00100422
0.00100423
0.00101026
0.00101027
0.00823215
0.00874141
0.00828961
0.00879718
0.00107003
0.0012083
0.00107597
0.00121414
0.00986693
0.0102986
0.00992152
0.0103543
0.00141443
0.00153421
0.00142037
0.00154016
0.0101807
0.00975077
0.0102408
0.00980997
0.00152174
0.00140189
0.00152804
0.00140822
0.00862254
0.00810907
0.0086832
0.00817182
0.00119599
0.00105745
0.00120224
0.00106384
0.00799072
0.00799071
0.00805423
0.0080542
0.000991439
0.000991448
0.000997953
0.000997961
0.00810904
0.00862247
0.00817176
0.00868309
0.00105747
0.00119602
0.00106386
0.00120226
0.00975058
0.0101803
0.00980975
0.0102405
0.0014019
0.00152175
0.00140823
0.00152805
0.0100509
0.00962235
0.0101173
0.00968812
0.00150833
0.00138838
0.00151514
0.00139524
0.00849084
0.00797221
0.00855844
0.00804244
0.00118263
0.00104371
0.00118946
0.00105075
0.00785187
0.00785187
0.00792308
0.00792306
0.00097741
0.000977419
0.000984605
0.000984614
0.0079722
0.0084908
0.0080424
0.00855836
0.00104374
0.00118266
0.00105077
0.00118949
0.00962219
0.0100505
0.00968793
0.010117
0.00138839
0.00150834
0.00139526
0.00151515
0.00990408
0.0094765
0.00997981
0.0095518
0.00149353
0.00137343
0.00150111
0.00138108
0.00834091
0.00781597
0.00841844
0.0078967
0.0011677
0.00102825
0.0011754
0.00103624
0.00769328
0.00769328
0.00777515
0.00777514
0.000961556
0.000961566
0.000969751
0.00096976
0.00781599
0.00834091
0.00789669
0.00841839
0.00102828
0.00116773
0.00103626
0.00117542
0.0094764
0.00990379
0.00955165
0.00997954
0.00137345
0.00149354
0.0013811
0.00150113
0.00973193
0.00930524
0.00982165
0.00939445
0.00147653
0.00135634
0.00148534
0.00136518
0.00816502
0.0076332
0.00825666
0.00772817
0.0011504
0.00101023
0.00115941
0.00101962
0.00750832
0.00750833
0.00760422
0.00760422
0.000943042
0.000943053
0.000952688
0.000952698
0.00763324
0.00816506
0.00772818
0.00825666
0.00101026
0.00115043
0.00101964
0.00115943
0.0093052
0.00973171
0.00939436
0.00982144
0.00135636
0.00147655
0.0013652
0.00148536
0.00952105
0.00909631
0.0096322
0.00920626
0.00145586
0.0013359
0.00146676
0.00134661
0.00795241
0.00741649
0.00806397
0.00752927
0.00112939
0.000988424
0.00114047
0.000999888
0.00729162
0.00729164
0.00740379
0.0074038
0.000920787
0.000920799
0.000932448
0.000932459
0.00741658
0.00795251
0.00752932
0.00806403
0.000988455
0.00112942
0.000999916
0.0011405
0.00909634
0.00952093
0.00920624
0.00963206
0.00133593
0.00145589
0.00134664
0.00146678
0.00925304
0.00882891
0.00939501
0.00897159
0.00142873
0.00130938
0.00144332
0.00132368
0.0076899
0.00716402
0.00782797
0.00729389
0.001102
0.000961136
0.00111674
0.000975576
0.00704722
0.00704726
0.00717152
0.00717155
0.000893799
0.000893813
0.000907907
0.00090792
0.00716415
0.00769009
0.00729398
0.0078281
0.00096117
0.00110204
0.000975608
0.00111678
0.00882904
0.00925303
0.00897165
0.00939497
0.00130942
0.00142876
0.00132372
0.00144335
0.00892374
0.00845705
0.00909514
0.00866049
0.00138801
0.00126229
0.00141114
0.00129075
0.00738656
0.00690785
0.00753887
0.00703147
0.00106204
0.000927159
0.00108416
0.000944917
0.00680638
0.00680643
0.00692281
0.00692285
0.000862791
0.000862806
0.000878587
0.000878601
0.00690803
0.00738682
0.00703161
0.00753908
0.000927198
0.00106208
0.000944954
0.0010842
0.00845729
0.00892389
0.00866067
0.00909523
0.00126234
0.00138805
0.00129079
0.00141118
0.00387296
0.00341311
0.000672981
0.0007455
0.00310709
0.00278617
0.000503383
0.000574875
0.00149822
0.000450492
0.000235808
0.000173099
0.00109357
0.000303911
0.0001994
0.000166438
0.00019793
0.000197939
0.000157165
0.000157165
0.000176223
0.000176227
0.000162598
0.000162597
0.000450546
0.0014983
0.000173101
0.000235815
0.000303929
0.00109359
0.000166439
0.000199401
0.00341316
0.00387296
0.000745514
0.000672982
0.00278617
0.00310707
0.000574876
0.000503379
0.00931407
0.00824545
0.00693577
0.00603652
0.00806976
0.00710912
0.00596026
0.00516932
0.00609484
0.00421354
0.00394632
0.00196267
0.0050728
0.0032886
0.00318381
0.00134848
0.00290362
0.00290386
0.000747929
0.000748047
0.00183991
0.00184005
0.000421763
0.00042181
0.00421386
0.00609508
0.00196289
0.00394648
0.00328882
0.00507296
0.00134858
0.00318389
0.00824557
0.00931405
0.00603661
0.00693578
0.0071092
0.00806977
0.00516936
0.00596027
0.0128514
0.0117214
0.0112341
0.0101087
0.011006
0.00999146
0.00969017
0.00867691
0.00972775
0.00837022
0.00801242
0.00639817
0.0080926
0.00677317
0.00668393
0.00511547
0.00785779
0.00785792
0.00561645
0.0056166
0.0062534
0.00625351
0.00431192
0.00431205
0.00837049
0.00972796
0.00639846
0.00801265
0.0067734
0.00809278
0.00511568
0.00668409
0.0117214
0.0128513
0.0101088
0.0112341
0.00999154
0.0110059
0.00867699
0.00969019
0.0154664
0.014381
0.0142464
0.0131346
0.0130664
0.0120994
0.0121135
0.0111193
0.0125997
0.0115956
0.0112521
0.0100966
0.0104031
0.00943816
0.00932598
0.0082095
0.0113324
0.0113325
0.00973792
0.00973801
0.00918445
0.00918452
0.0078564
0.00785648
0.0115957
0.0125998
0.0100968
0.0112523
0.0094383
0.0104032
0.00820966
0.00932611
0.0143809
0.0154661
0.0131346
0.0142462
0.0120994
0.0130662
0.0111194
0.0121135
0.0174649
0.0164329
0.0165334
0.0154756
0.014601
0.0136877
0.0138895
0.0129505
0.0148105
0.0140029
0.0137812
0.0128893
0.0121429
0.0113716
0.0113372
0.0104836
0.0138442
0.0138441
0.0126881
0.0126882
0.0112197
0.0112197
0.0102914
0.0102914
0.0140028
0.0148103
0.0128893
0.0137811
0.0113716
0.0121429
0.0104837
0.0113373
0.0164325
0.0174642
0.0154753
0.0165329
0.0136875
0.0146006
0.0129503
0.0138893
0.0189617
0.0179731
0.01827
0.0172612
0.0157307
0.0148599
0.0152108
0.0143203
0.0164586
0.0157637
0.0156982
0.0149542
0.0134166
0.0127536
0.0128317
0.0121218
0.0156563
0.0156562
0.0148251
0.014825
0.0126489
0.0126488
0.0119972
0.0119971
0.0157634
0.016458
0.0149541
0.0156979
0.0127535
0.0134164
0.0121217
0.0128315
0.0179723
0.0189606
0.0172606
0.0182691
0.0148594
0.01573
0.01432
0.0152104
0.0200395
0.0190829
0.0195475
0.0185762
0.0165326
0.0156926
0.0161678
0.0153138
0.0176407
0.0170139
0.0171015
0.0164446
0.0143166
0.013718
0.0139078
0.0132808
0.0169349
0.0169348
0.0163532
0.016353
0.0136392
0.0136392
0.0131906
0.0131906
0.0170134
0.0176398
0.0164442
0.0171008
0.0137178
0.0143161
0.0132806
0.0139074
0.0190817
0.020038
0.0185752
0.0195462
0.0156919
0.0165316
0.0153132
0.016167
0.0207763
0.0198422
0.0204451
0.0195008
0.017075
0.0162553
0.016832
0.0160032
0.0184479
0.0178637
0.0180851
0.0174819
0.014923
0.0143643
0.0146516
0.0140752
0.0178017
0.0178015
0.0174123
0.017412
0.0143013
0.0143011
0.014005
0.0140049
0.017863
0.0184468
0.0174813
0.0180841
0.0143639
0.0149224
0.0140748
0.014651
0.0198407
0.0207744
0.0194995
0.0204434
0.0162543
0.0170738
0.0160024
0.016831
0.021246
0.0203271
0.0210395
0.0201138
0.0174159
0.0166095
0.0172668
0.0164544
0.018964
0.0184065
0.0187369
0.0181674
0.0153052
0.0147714
0.0151379
0.014593
0.0183552
0.0183549
0.0181112
0.0181109
0.0147184
0.0147182
0.0145353
0.0145352
0.0184056
0.0189626
0.0181666
0.0187357
0.0147709
0.0153045
0.0145925
0.0151372
0.0203254
0.0212438
0.0201122
0.0210375
0.0166084
0.0174145
0.0164534
0.0172655
0.0215148
0.0206062
0.0214012
0.0204879
0.0176072
0.0168092
0.0175268
0.0167252
0.0192626
0.0187216
0.0191358
0.0185873
0.0155221
0.0150035
0.0154308
0.0149054
0.0186771
0.0186768
0.0185396
0.0185393
0.0149569
0.0149568
0.0148558
0.0148556
0.0187207
0.0192612
0.0185864
0.0191344
0.0150031
0.0155214
0.0149049
0.01543
0.0206044
0.0215125
0.0204861
0.021399
0.0168081
0.0176057
0.016724
0.0175255
0.0216368
0.020735
0.021589
0.0206843
0.0176887
0.0168965
0.0176575
0.0168633
0.0194048
0.0188747
0.0193489
0.0188137
0.0156211
0.0151125
0.0155832
0.01507
0.0188348
0.0188346
0.0187716
0.0187713
0.0150704
0.0150703
0.0150257
0.0150256
0.0188739
0.0194034
0.0188129
0.0193476
0.0151122
0.0156204
0.0150696
0.0155825
0.0207333
0.0216347
0.0206825
0.0215868
0.0168956
0.0176875
0.0168622
0.0176562
0.0216672
0.0207694
0.021663
0.0207625
0.0177045
0.0169155
0.0177051
0.016914
0.0194454
0.0189189
0.0194336
0.0189051
0.0156451
0.0151399
0.0156393
0.0151321
0.0188803
0.0188801
0.0188667
0.0188664
0.0150991
0.0150991
0.0150913
0.0150913
0.0189182
0.0194443
0.0189044
0.0194324
0.0151398
0.0156447
0.0151319
0.0156389
0.0207679
0.0216653
0.0207609
0.021661
0.0169148
0.0177035
0.0169132
0.0177042
0.0216285
0.0207335
0.0216537
0.0207574
0.0176683
0.0168818
0.0176908
0.0169031
0.0194137
0.0188911
0.0194358
0.0189119
0.0156146
0.0151126
0.0156346
0.0151316
0.0188546
0.0188545
0.0188747
0.0188745
0.0150738
0.0150738
0.0150922
0.0150922
0.0188906
0.0194128
0.0189113
0.0194348
0.0151126
0.0156143
0.0151315
0.0156343
0.0207322
0.0216267
0.020756
0.0216519
0.0168806
0.0176669
0.0169024
0.01769
0.0215474
0.0206552
0.0215915
0.0206979
0.0176011
0.0168166
0.0176372
0.0168517
0.0193388
0.0188176
0.0193798
0.0188576
0.0155518
0.015051
0.0155859
0.0150845
0.0187815
0.0187814
0.0188212
0.0188211
0.0150127
0.0150128
0.0150459
0.0150459
0.0188172
0.0193381
0.0188572
0.019379
0.015051
0.0155515
0.0150845
0.0155857
0.0206541
0.0215459
0.0206967
0.0215899
0.0168146
0.0175989
0.0168502
0.0176355
0.0214426
0.020553
0.0214963
0.0206056
0.0175171
0.0167342
0.0175602
0.0167766
0.019239
0.0187182
0.0192905
0.0187694
0.0154707
0.0149702
0.0155126
0.0150119
0.018682
0.0186818
0.018733
0.0187329
0.0149321
0.0149321
0.0149736
0.0149736
0.0187176
0.0192381
0.0187689
0.0192898
0.0149702
0.0154702
0.0150119
0.0155122
0.0205523
0.0214414
0.0206046
0.0214949
0.0167311
0.0175132
0.0167738
0.0175572
0.0213262
0.0204384
0.0213851
0.0204963
0.0174246
0.016643
0.0174714
0.0166892
0.0191258
0.0186046
0.019183
0.0186617
0.0153804
0.0148793
0.0154261
0.0149252
0.018568
0.0185679
0.0186252
0.018625
0.0148409
0.014841
0.0148868
0.0148869
0.0186041
0.019125
0.0186612
0.0191821
0.0148793
0.0153801
0.0149252
0.0154257
0.0204379
0.0213252
0.0204956
0.0213841
0.0166416
0.0174226
0.016687
0.0174684
0.0212037
0.0203177
0.021265
0.0203783
0.0173268
0.0165468
0.0173756
0.0165948
0.019006
0.0184837
0.0190661
0.018544
0.0152851
0.0147831
0.0153329
0.0148313
0.0184463
0.0184461
0.0185068
0.0185066
0.0147441
0.0147441
0.0147925
0.0147925
0.018483
0.0190051
0.0185434
0.0190652
0.0147828
0.0152846
0.0148311
0.0153325
0.0203175
0.021203
0.0203778
0.0212641
0.0165453
0.0173249
0.0165934
0.017374
0.0210765
0.0201924
0.0211401
0.0202549
0.0172273
0.0164485
0.0172772
0.0164979
0.0188815
0.0183579
0.0189436
0.0184204
0.0151868
0.0146834
0.0152361
0.0147332
0.0183197
0.0183195
0.0183824
0.0183822
0.0146437
0.0146436
0.0146937
0.0146936
0.0183572
0.0188803
0.0184197
0.0189426
0.0146829
0.0151858
0.0147328
0.0152353
0.0201919
0.0210761
0.0202549
0.0211399
0.0164467
0.0172249
0.016496
0.0172749
0.0209468
0.0200648
0.0210112
0.0201283
0.0171237
0.0163466
0.0171756
0.0163976
0.0187537
0.0182286
0.0188175
0.0182929
0.0150854
0.0145806
0.0151362
0.0146319
0.0181894
0.0181892
0.018254
0.0182537
0.0145402
0.01454
0.0145918
0.0145916
0.0182278
0.0187521
0.018292
0.0188159
0.0145801
0.0150843
0.0146314
0.0151351
0.0200626
0.0209434
0.0201259
0.0210084
0.0163448
0.0171213
0.0163956
0.0171732
0.020812
0.0199321
0.0208796
0.0199984
0.0170177
0.0162427
0.0170705
0.0162946
0.0186218
0.0180954
0.0186877
0.0181617
0.0149808
0.0144747
0.0150332
0.0145276
0.0180553
0.0180551
0.0181218
0.0181216
0.0144336
0.0144335
0.0144867
0.0144866
0.0180947
0.0186207
0.0181609
0.0186865
0.0144742
0.0149799
0.0145271
0.0150322
0.0199326
0.0208121
0.019998
0.0208783
0.0162415
0.0170158
0.0162929
0.0170683
0.0206739
0.0197968
0.0207427
0.0198643
0.0169084
0.0161354
0.0169629
0.0161889
0.0184863
0.0179584
0.018554
0.0180266
0.014873
0.0143655
0.0149271
0.0144201
0.0179173
0.0179171
0.0179858
0.0179855
0.0143237
0.0143236
0.0143785
0.0143784
0.0179576
0.0184851
0.0180258
0.0185529
0.0143652
0.0148723
0.0144197
0.0149263
0.0197965
0.0206736
0.0198645
0.0207429
0.016134
0.0169068
0.016188
0.0169618
0.0205316
0.0196567
0.0206031
0.019727
0.0167942
0.0160234
0.0168516
0.0160795
0.0183463
0.017817
0.0184164
0.0178875
0.0147616
0.0142528
0.0148175
0.0143092
0.017775
0.0177747
0.0178457
0.0178454
0.0142102
0.0142101
0.0142669
0.0142667
0.0178163
0.0183453
0.0178867
0.0184152
0.0142525
0.014761
0.0143089
0.0148169
0.019656
0.0205305
0.0197263
0.0206023
0.0160219
0.0167923
0.016078
0.0168498
0.0203827
0.0195108
0.0204574
0.0195838
0.0166765
0.015908
0.0167356
0.0159659
0.0182019
0.0176709
0.0182742
0.0177438
0.0146465
0.0141361
0.0147043
0.0141946
0.0176277
0.0176274
0.017701
0.0177007
0.0140926
0.0140925
0.0141514
0.0141513
0.0176701
0.0182007
0.0177431
0.0182731
0.0141358
0.014646
0.0141943
0.0147038
0.0195106
0.0203821
0.0195834
0.0204564
0.0159072
0.0166753
0.0159647
0.0167339
0.0202303
0.0193614
0.0203065
0.0194363
0.0165539
0.0157881
0.0166153
0.0158482
0.0180516
0.0175188
0.0181271
0.0175949
0.0145266
0.0140145
0.014587
0.0140756
0.0174744
0.0174741
0.0175508
0.0175505
0.0139701
0.01397
0.0140315
0.0140314
0.0175179
0.0180504
0.0175941
0.0181259
0.0140141
0.0145261
0.0140753
0.0145865
0.0193602
0.0202291
0.0194357
0.0203059
0.015787
0.0165524
0.0158472
0.0166142
0.0200714
0.0192051
0.020151
0.0192834
0.0164273
0.0156639
0.0164908
0.0157263
0.0178947
0.0173597
0.0179735
0.0174393
0.0144015
0.0138873
0.0144645
0.0139512
0.017314
0.0173137
0.0173941
0.0173938
0.013842
0.0138418
0.0139062
0.0139061
0.0173588
0.0178935
0.0174385
0.0179724
0.0138869
0.0144009
0.0139508
0.0144639
0.0192034
0.0200694
0.0192821
0.0201495
0.0156631
0.0164262
0.0157254
0.0164896
0.0199048
0.0190414
0.0199886
0.0191237
0.0162944
0.0155336
0.0163613
0.0155992
0.0177308
0.0171934
0.0178131
0.0172767
0.0142707
0.0137544
0.0143366
0.0138212
0.0171464
0.0171461
0.0172301
0.0172298
0.013708
0.0137079
0.0137752
0.0137751
0.0171926
0.0177295
0.0172758
0.0178119
0.013754
0.0142702
0.0138208
0.014336
0.0190399
0.019903
0.0191221
0.0199867
0.0155328
0.0162933
0.0155984
0.0163603
0.01973
0.0188699
0.0198179
0.0189561
0.0161548
0.015397
0.0162251
0.0154658
0.0175594
0.0170197
0.0176456
0.0171068
0.014134
0.0136155
0.0142029
0.0136853
0.0169712
0.0169709
0.0170588
0.0170585
0.013568
0.0135678
0.0136383
0.0136381
0.0170189
0.0175582
0.017106
0.0176444
0.0136152
0.0141334
0.013685
0.0142024
0.0188685
0.0197283
0.0189547
0.0198162
0.0153963
0.0161537
0.015465
0.0162241
0.019547
0.0186905
0.0196391
0.0187807
0.0160087
0.0152541
0.0160822
0.015326
0.01738
0.0168379
0.0174703
0.0169291
0.0139908
0.0134702
0.014063
0.0135433
0.0167877
0.0167875
0.0168796
0.0168793
0.0134214
0.0134213
0.0134951
0.0134949
0.0168371
0.0173789
0.0169283
0.0174692
0.0134698
0.0139903
0.013543
0.0140625
0.0186891
0.0195454
0.0187794
0.0196374
0.0152534
0.0160077
0.0153253
0.0160813
0.0193555
0.0185026
0.0194519
0.0185971
0.0158562
0.0151047
0.0159329
0.0151799
0.017192
0.0166471
0.0172867
0.016743
0.0138409
0.0133179
0.0139165
0.0133946
0.0165952
0.0165949
0.0166917
0.0166915
0.0132678
0.0132677
0.0133451
0.0133449
0.0166463
0.0171909
0.0167422
0.0172856
0.0133175
0.0138404
0.0133942
0.013916
0.0185013
0.019354
0.0185958
0.0194503
0.015104
0.0158551
0.0151792
0.015932
0.0191547
0.0183051
0.0192559
0.0184047
0.0156967
0.0149481
0.015777
0.0150271
0.0169941
0.016446
0.0170939
0.0165473
0.0136834
0.0131577
0.013763
0.0132385
0.0163922
0.0163919
0.0164942
0.0164939
0.0131061
0.013106
0.0131876
0.0131874
0.0164453
0.016993
0.0165465
0.0170929
0.0131573
0.0136829
0.0132381
0.0137624
0.0183039
0.0191532
0.0184034
0.0192544
0.0149474
0.0156957
0.0150263
0.0157761
0.0189426
0.0180962
0.0190498
0.0182018
0.0155291
0.0147832
0.0156137
0.0148665
0.0167841
0.0162323
0.0168903
0.0163403
0.013517
0.012988
0.0136013
0.0130738
0.0161762
0.0161759
0.0162851
0.0162849
0.0129347
0.0129346
0.0130214
0.0130212
0.0162316
0.0167831
0.0163395
0.0168893
0.0129877
0.0135165
0.0130735
0.0136008
0.018095
0.0189411
0.0182005
0.0190483
0.0147825
0.0155281
0.0148658
0.0156128
0.0187158
0.0178726
0.0188309
0.0179861
0.0153509