/*--------------------------------*- C++ -*----------------------------------*\
  =========                 |
  \\      /  F ield         | OpenFOAM: The Open Source CFD Toolbox
   \\    /   O peration     | Website:  https://openfoam.org
    \\  /    A nd           | Version:  9
     \\/     M anipulation  |
\*---------------------------------------------------------------------------*/
FoamFile
{
    format      ascii;
    class       volScalarField;
    location    "1.5";
    object      p;
}
// * * * * * * * * * * * * * * * * * * * * * * * * * * * * * * * * * * * * * //

dimensions      [0 2 -2 0 0 0 0];

internalField   nonuniform List<scalar> 
36360
(
20.1225
20.0849
20.1071
20.0946
20.0994
20.1009
20.1036
20.0937
20.1
20.101
20.1008
20.101
20.0996
20.0998
20.0987
20.0991
20.101
20.101
20.101
20.101
20.1
20.1
20.0991
20.0991
20.101
20.1
20.101
20.1008
20.0998
20.0996
20.0991
20.0987
20.0849
20.1225
20.0946
20.1071
20.1009
20.0994
20.0937
20.1036
20.1411
20.082
20.138
20.0788
20.0815
20.1208
20.0914
20.1097
20.0998
20.1013
20.0995
20.101
20.1009
20.0999
20.1004
20.1002
20.1015
20.1015
20.1011
20.101
20.1004
20.1004
20.1005
20.1005
20.1013
20.0998
20.101
20.0995
20.0999
20.1009
20.1002
20.1004
20.082
20.1411
20.0788
20.138
20.1208
20.0815
20.1097
20.0914
20.1276
20.095
20.1355
20.0884
20.0537
20.1491
20.0685
20.1351
20.102
20.1015
20.1005
20.1016
20.105
20.0995
20.1024
20.0996
20.102
20.102
20.1018
20.1018
20.0998
20.0998
20.1
20.1
20.1015
20.102
20.1016
20.1005
20.0995
20.105
20.0996
20.1024
20.095
20.1276
20.0884
20.1355
20.1491
20.0537
20.1351
20.0685
20.1124
20.105
20.1197
20.1006
20.0268
20.1718
20.0396
20.1615
20.1076
20.1015
20.1045
20.1014
20.1125
20.0999
20.1085
20.0995
20.1011
20.1011
20.1017
20.1017
20.0993
20.0993
20.0996
20.0996
20.1015
20.1076
20.1014
20.1045
20.0999
20.1125
20.0995
20.1085
20.105
20.1124
20.1006
20.1197
20.1718
20.0268
20.1615
20.0396
20.0998
20.1107
20.1057
20.1083
20.0055
20.187
20.0154
20.1802
20.114
20.1029
20.1109
20.1021
20.1206
20.1015
20.1166
20.1006
20.1002
20.1002
20.1006
20.1006
20.0991
20.0991
20.0991
20.0991
20.1029
20.114
20.102
20.1109
20.1015
20.1206
20.1006
20.1166
20.1107
20.0998
20.1083
20.1057
20.187
20.0055
20.1802
20.0154
20.0899
20.1138
20.0946
20.1125
19.9894
20.1967
19.9968
20.1924
20.1198
20.1051
20.117
20.1039
20.1277
20.1038
20.1243
20.1026
20.1001
20.1001
20.1001
20.1001
20.0993
20.0993
20.0991
20.0991
20.1051
20.1198
20.1039
20.117
20.1039
20.1277
20.1026
20.1243
20.1138
20.0899
20.1125
20.0946
20.1967
19.9894
20.1924
19.9969
20.0823
20.1153
20.0859
20.1147
19.9774
20.2027
19.9829
20.2001
20.1246
20.1076
20.1223
20.1063
20.1334
20.1065
20.1308
20.1052
20.1007
20.1007
20.1003
20.1003
20.1001
20.1001
20.0996
20.0996
20.1076
20.1246
20.1063
20.1223
20.1065
20.1334
20.1051
20.1308
20.1153
20.0823
20.1147
20.0859
20.2027
19.9774
20.2001
19.983
20.0763
20.116
20.0791
20.1157
19.9686
20.2063
19.9727
20.2047
20.1283
20.11
20.1265
20.1088
20.1377
20.109
20.1357
20.1077
20.1018
20.1018
20.1012
20.1012
20.1012
20.1012
20.1006
20.1006
20.11
20.1283
20.1088
20.1265
20.109
20.1377
20.1077
20.1357
20.116
20.0763
20.1157
20.0791
20.2063
19.9687
20.2047
19.9727
20.0717
20.1163
20.0738
20.1162
19.9623
20.2083
19.9652
20.2075
20.1311
20.1123
20.1298
20.1112
20.1409
20.1112
20.1394
20.1101
20.1032
20.1032
20.1025
20.1025
20.1026
20.1026
20.1019
20.1019
20.1123
20.1311
20.1112
20.1298
20.1112
20.1409
20.1101
20.1394
20.1163
20.0717
20.1162
20.0738
20.2083
19.9623
20.2074
19.9652
20.0681
20.1164
20.0698
20.1164
19.9578
20.2093
19.9598
20.2089
20.1333
20.1142
20.1323
20.1133
20.1432
20.1132
20.1421
20.1123
20.1047
20.1047
20.104
20.104
20.1041
20.1041
20.1034
20.1034
20.1142
20.1333
20.1133
20.1323
20.1132
20.1432
20.1123
20.1421
20.1164
20.0681
20.1164
20.0698
20.2093
19.9578
20.2089
19.9599
20.0653
20.1165
20.0666
20.1164
19.9547
20.2097
19.9561
20.2096
20.135
20.1159
20.1342
20.1151
20.1448
20.1149
20.1441
20.1141
20.1063
20.1063
20.1055
20.1055
20.1056
20.1056
20.1049
20.1049
20.1159
20.135
20.1151
20.1342
20.1149
20.1448
20.1141
20.1441
20.1165
20.0653
20.1164
20.0666
20.2097
19.9547
20.2096
19.9561
20.0633
20.1165
20.0642
20.1165
19.9527
20.2096
19.9536
20.2097
20.1362
20.1174
20.1356
20.1167
20.146
20.1164
20.1455
20.1157
20.1078
20.1078
20.1071
20.1071
20.1071
20.1071
20.1064
20.1064
20.1174
20.1362
20.1167
20.1356
20.1164
20.146
20.1157
20.1455
20.1165
20.0633
20.1165
20.0642
20.2096
19.9527
20.2097
19.9536
20.0618
20.1164
20.0625
20.1164
19.9516
20.2093
19.9521
20.2094
20.137
20.1186
20.1366
20.118
20.1468
20.1176
20.1464
20.117
20.1092
20.1092
20.1085
20.1085
20.1084
20.1084
20.1077
20.1077
20.1187
20.137
20.118
20.1366
20.1176
20.1467
20.117
20.1464
20.1165
20.0617
20.1165
20.0625
20.2093
19.9514
20.2094
19.952
20.0607
20.1166
20.0612
20.1165
19.9508
20.2089
19.9511
20.2091
20.1376
20.1198
20.1373
20.1192
20.1473
20.1187
20.1471
20.1182
20.1105
20.1105
20.1098
20.1098
20.1096
20.1096
20.109
20.109
20.1198
20.1376
20.1192
20.1373
20.1187
20.1473
20.1182
20.147
20.1166
20.0607
20.1165
20.0612
20.2089
19.9508
20.2091
19.951
20.0599
20.1167
20.0603
20.1166
19.9505
20.2084
19.9506
20.2087
20.1382
20.1207
20.1379
20.1203
20.1477
20.1196
20.1475
20.1192
20.1116
20.1116
20.1111
20.1111
20.1107
20.1107
20.1101
20.1101
20.1207
20.1381
20.1203
20.1379
20.1196
20.1477
20.1192
20.1475
20.1166
20.06
20.1166
20.0603
20.2084
19.9507
20.2087
19.9507
20.0596
20.1168
20.0597
20.1168
19.9507
20.208
19.9506
20.2082
20.1386
20.1216
20.1384
20.1212
20.148
20.1204
20.1478
20.12
20.1127
20.1127
20.1122
20.1122
20.1116
20.1116
20.1112
20.1112
20.1216
20.1386
20.1212
20.1384
20.1204
20.1479
20.12
20.1478
20.1168
20.0597
20.1167
20.0598
20.208
19.9509
20.2082
19.9507
20.0595
20.117
20.0595
20.1169
19.9512
20.2076
19.9509
20.2078
20.139
20.1223
20.1388
20.122
20.1482
20.1211
20.1481
20.1207
20.1136
20.1136
20.1132
20.1132
20.1125
20.1125
20.1121
20.1121
20.1223
20.139
20.122
20.1388
20.1211
20.1482
20.1207
20.1481
20.117
20.0595
20.1169
20.0595
20.2076
19.9512
20.2078
19.951
20.0595
20.1173
20.0595
20.1171
19.9518
20.2072
19.9515
20.2074
20.1393
20.123
20.1391
20.1227
20.1483
20.1217
20.1483
20.1214
20.1145
20.1145
20.1141
20.1141
20.1133
20.1133
20.1129
20.1129
20.123
20.1394
20.1227
20.1392
20.1217
20.1483
20.1214
20.1483
20.1174
20.0595
20.1172
20.0595
20.2072
19.9516
20.2074
19.9514
20.0598
20.1176
20.0596
20.1174
19.9525
20.2069
19.9522
20.207
20.1397
20.1237
20.1395
20.1234
20.1485
20.1222
20.1484
20.1219
20.1153
20.1153
20.1149
20.1149
20.114
20.114
20.1136
20.1136
20.1237
20.1397
20.1234
20.1395
20.1222
20.1485
20.1219
20.1484
20.1177
20.0597
20.1175
20.0596
20.2069
19.9525
20.207
19.952
20.06
20.1182
20.0599
20.1179
19.9533
20.2066
19.9529
20.2067
20.1401
20.1243
20.1399
20.124
20.1487
20.1227
20.1486
20.1225
20.1161
20.1161
20.1157
20.1157
20.1147
20.1147
20.1143
20.1143
20.1243
20.1401
20.124
20.1399
20.1227
20.1487
20.1225
20.1486
20.1181
20.0601
20.1179
20.0599
20.2066
19.9535
20.2067
19.953
20.0606
20.1186
20.0603
20.1184
19.9545
20.2063
19.9539
20.2064
20.1405
20.1249
20.1403
20.1246
20.1488
20.1232
20.1487
20.123
20.1169
20.1169
20.1165
20.1165
20.1153
20.1153
20.115
20.115
20.1249
20.1405
20.1246
20.1403
20.1232
20.1488
20.123
20.1487
20.1185
20.0606
20.1183
20.0604
20.2063
19.9546
20.2064
19.954
20.0612
20.1192
20.0609
20.1189
19.9557
20.2061
19.9551
20.2062
20.1409
20.1255
20.1407
20.1252
20.149
20.1237
20.1489
20.1234
20.1176
20.1176
20.1172
20.1172
20.1159
20.1159
20.1156
20.1156
20.1255
20.1409
20.1252
20.1407
20.1236
20.149
20.1234
20.1489
20.1191
20.0613
20.1188
20.0609
20.2061
19.9558
20.2062
19.9552
20.062
20.1198
20.0616
20.1195
19.9571
20.206
19.9564
20.206
20.1414
20.1261
20.1412
20.1258
20.1492
20.1241
20.1491
20.1239
20.1183
20.1183
20.1179
20.1179
20.1164
20.1164
20.1161
20.1161
20.1261
20.1414
20.1258
20.1412
20.1241
20.1492
20.1239
20.1491
20.1198
20.0619
20.1195
20.0616
20.2059
19.957
20.206
19.9563
20.0628
20.1205
20.0624
20.1201
19.9584
20.2058
19.9577
20.2059
20.1419
20.1268
20.1416
20.1264
20.1494
20.1246
20.1493
20.1243
20.119
20.119
20.1187
20.1187
20.117
20.117
20.1167
20.1167
20.1268
20.1419
20.1264
20.1417
20.1246
20.1494
20.1243
20.1493
20.1205
20.0628
20.1202
20.0623
20.2058
19.9585
20.2059
19.9577
20.0639
20.1213
20.0633
20.1209
19.9601
20.2058
19.9592
20.2058
20.1425
20.1274
20.1422
20.1271
20.1496
20.1251
20.1495
20.1248
20.1198
20.1198
20.1194
20.1194
20.1176
20.1176
20.1173
20.1173
20.1274
20.1424
20.1271
20.1422
20.125
20.1496
20.1248
20.1495
20.1213
20.0639
20.1209
20.0633
20.2058
19.9601
20.2058
19.9593
20.0649
20.1221
20.0644
20.1217
19.9618
20.2057
19.9609
20.2057
20.143
20.1281
20.1427
20.1278
20.1498
20.1255
20.1497
20.1253
20.1206
20.1206
20.1202
20.1202
20.1182
20.1182
20.1179
20.1179
20.1281
20.143
20.1277
20.1427
20.1255
20.1498
20.1253
20.1497
20.1221
20.065
20.1217
20.0644
20.2057
19.9619
20.2057
19.961
20.0662
20.123
20.0655
20.1225
19.9638
20.2057
19.9628
20.2057
20.1436
20.1288
20.1433
20.1284
20.1501
20.1261
20.15
20.1258
20.1214
20.1214
20.121
20.121
20.1188
20.1188
20.1185
20.1185
20.1288
20.1436
20.1284
20.1433
20.1261
20.1501
20.1258
20.15
20.123
20.0662
20.1225
20.0655
20.2057
19.9638
20.2057
19.9628
20.0675
20.124
20.0668
20.1235
19.9658
20.2056
19.9648
20.2057
20.1443
20.1295
20.144
20.1292
20.1503
20.1266
20.1502
20.1263
20.1222
20.1222
20.1218
20.1218
20.1195
20.1195
20.1192
20.1192
20.1295
20.1443
20.1292
20.144
20.1266
20.1503
20.1263
20.1502
20.124
20.0675
20.1235
20.0668
20.2056
19.9659
20.2056
19.9648
20.069
20.125
20.0682
20.1245
19.9681
20.2056
19.9669
20.2056
20.1449
20.1303
20.1446
20.1299
20.1506
20.1272
20.1505
20.1269
20.1231
20.1231
20.1227
20.1227
20.1203
20.1203
20.1199
20.1199
20.1303
20.1449
20.1299
20.1446
20.1272
20.1506
20.1269
20.1505
20.125
20.069
20.1245
20.0682
20.2056
19.9681
20.2056
19.967
20.0707
20.126
20.0698
20.1255
19.9706
20.2056
19.9693
20.2056
20.1455
20.1311
20.1452
20.1307
20.1509
20.1278
20.1507
20.1275
20.1241
20.1241
20.1236
20.1236
20.1211
20.1211
20.1207
20.1207
20.1311
20.1455
20.1307
20.1452
20.1278
20.1509
20.1275
20.1507
20.126
20.0707
20.1255
20.0698
20.2056
19.9706
20.2056
19.9693
20.0725
20.1271
20.0715
20.1266
19.9732
20.2056
19.9719
20.2056
20.1461
20.132
20.1458
20.1316
20.1511
20.1285
20.151
20.1282
20.1252
20.1252
20.1246
20.1246
20.122
20.122
20.1215
20.1215
20.132
20.1461
20.1316
20.1458
20.1285
20.1511
20.1282
20.151
20.1271
20.0725
20.1266
20.0715
20.2056
19.9732
20.2056
19.9719
20.0744
20.1282
20.0734
20.1277
19.9761
20.2055
19.9747
20.2055
20.1467
20.1329
20.1464
20.1324
20.1513
20.1292
20.1512
20.1289
20.1263
20.1263
20.1257
20.1257
20.123
20.123
20.1225
20.1225
20.1329
20.1467
20.1324
20.1464
20.1292
20.1513
20.1289
20.1512
20.1282
20.0744
20.1277
20.0734
20.2055
19.9762
20.2055
19.9747
20.0765
20.1293
20.0754
20.1288
19.9793
20.2054
19.9777
20.2055
20.1473
20.1338
20.147
20.1333
20.1515
20.13
20.1514
20.1296
20.1275
20.1275
20.1269
20.1269
20.1241
20.1241
20.1235
20.1235
20.1338
20.1473
20.1333
20.147
20.13
20.1515
20.1296
20.1514
20.1293
20.0765
20.1288
20.0754
20.2054
19.9793
20.2055
19.9777
20.0788
20.1304
20.0776
20.1299
19.9828
20.2051
19.981
20.2053
20.1478
20.1348
20.1475
20.1343
20.1517
20.1309
20.1516
20.1305
20.1288
20.1288
20.1282
20.1282
20.1253
20.1253
20.1247
20.1247
20.1348
20.1478
20.1343
20.1475
20.1309
20.1517
20.1305
20.1516
20.1304
20.0788
20.1299
20.0777
20.2051
19.9828
20.2053
19.981
20.0813
20.1315
20.08
20.131
19.9867
20.2047
19.9847
20.2049
20.1483
20.1358
20.1481
20.1353
20.1518
20.1318
20.1518
20.1313
20.1302
20.1302
20.1295
20.1295
20.1266
20.1266
20.1259
20.1259
20.1358
20.1483
20.1353
20.1481
20.1318
20.1518
20.1313
20.1518
20.1315
20.0813
20.131
20.08
20.2047
19.9867
20.2049
19.9847
20.0838
20.1326
20.0825
20.132
19.9911
20.2041
19.9888
20.2044
20.1488
20.1368
20.1485
20.1363
20.1519
20.1328
20.1519
20.1323
20.1317
20.1317
20.1309
20.1309
20.128
20.128
20.1273
20.1273
20.1368
20.1488
20.1363
20.1485
20.1328
20.1519
20.1323
20.1519
20.1326
20.0838
20.132
20.0825
20.2041
19.9911
20.2044
19.9888
20.0862
20.1339
20.085
20.1332
19.9961
20.203
19.9935
20.2036
20.1491
20.1379
20.149
20.1374
20.152
20.1339
20.152
20.1334
20.1331
20.1331
20.1324
20.1324
20.1294
20.1294
20.1287
20.1287
20.1379
20.1491
20.1374
20.149
20.1339
20.152
20.1334
20.152
20.1339
20.0862
20.1332
20.085
20.203
19.9961
20.2036
19.9935
20.0875
20.1362
20.0871
20.1348
20.002
20.2011
19.9989
20.2022
20.1494
20.139
20.1493
20.1384
20.1518
20.135
20.1519
20.1345
20.1347
20.1347
20.1339
20.1339
20.1309
20.1309
20.1302
20.1302
20.139
20.1494
20.1384
20.1493
20.135
20.1518
20.1345
20.1519
20.1362
20.0875
20.1348
20.0871
20.2011
20.002
20.2022
19.9989
20.0883
20.1383
20.0871
20.1384
20.0094
20.1977
20.0055
20.1997
20.1499
20.1403
20.1497
20.1396
20.1516
20.1363
20.1517
20.1357
20.1363
20.1363
20.1355
20.1355
20.1325
20.1325
20.1317
20.1317
20.1403
20.1499
20.1396
20.1497
20.1363
20.1516
20.1357
20.1517
20.1383
20.0883
20.1384
20.0871
20.1977
20.0094
20.1997
20.0055
20.1467
20.0655
20.1147
20.0864
20.1379
20.0694
20.1107
20.0881
20.0976
20.1009
20.1006
20.1006
20.0982
20.1005
20.0996
20.0998
20.101
20.101
20.1006
20.1006
20.1005
20.1005
20.0998
20.0998
20.1009
20.0976
20.1006
20.1006
20.1005
20.0982
20.0998
20.0996
20.0655
20.1467
20.0864
20.1147
20.0694
20.1379
20.0881
20.1107
20.1771
20.0616
20.1697
20.0581
20.1706
20.061
20.1617
20.0603
20.0883
20.0999
20.0924
20.1006
20.0918
20.1006
20.0951
20.1009
20.1016
20.1016
20.1012
20.1012
20.1015
20.1015
20.1012
20.1012
20.0999
20.0883
20.1006
20.0924
20.1006
20.0918
20.1009
20.0951
20.0616
20.1771
20.0581
20.1697
20.061
20.1706
20.0603
20.1617
20.1741
20.0732
20.1767
20.0677
20.1672
20.0702
20.1703
20.0655
20.0863
20.0978
20.0864
20.0988
20.0903
20.0995
20.0903
20.1
20.1016
20.1016
20.1018
20.1018
20.1015
20.1015
20.1015
20.1015
20.0978
20.0863
20.0988
20.0864
20.0995
20.0903
20.1
20.0903
20.0732
20.1741
20.0677
20.1767
20.0702
20.1672
20.0655
20.1703
20.1683
20.0797
20.1711
20.0771
20.1595
20.0763
20.1633
20.0738
20.0886
20.0972
20.0873
20.0973
20.0932
20.0995
20.0914
20.0994
20.1007
20.1007
20.1012
20.1012
20.1009
20.1009
20.1013
20.1013
20.0972
20.0886
20.0973
20.0873
20.0995
20.0932
20.0994
20.0914
20.0797
20.1683
20.0771
20.1711
20.0763
20.1595
20.0738
20.1633
20.1633
20.0822
20.1657
20.0813
20.1527
20.0788
20.1559
20.0778
20.0916
20.098
20.0901
20.0975
20.0976
20.1006
20.0953
20.0999
20.1
20.1
20.1003
20.1003
20.1003
20.1003
20.1005
20.1005
20.098
20.0916
20.0975
20.0901
20.1006
20.0976
20.0999
20.0953
20.0822
20.1633
20.0813
20.1657
20.0788
20.1527
20.0778
20.1559
20.1593
20.0827
20.1612
20.0826
20.1471
20.0794
20.1497
20.0792
20.0943
20.0997
20.093
20.0988
20.1017
20.1025
20.0998
20.1015
20.1
20.1
20.0999
20.0999
20.1003
20.1003
20.1002
20.1002
20.0997
20.0943
20.0988
20.093
20.1025
20.1017
20.1015
20.0998
20.0827
20.1593
20.0826
20.1612
20.0794
20.1471
20.0792
20.1498
20.1559
20.0824
20.1575
20.0826
20.1425
20.0792
20.1447
20.0793
20.0967
20.1017
20.0956
20.1007
20.105
20.1047
20.1035
20.1035
20.1007
20.1007
20.1003
20.1003
20.1011
20.1011
20.1006
20.1006
20.1017
20.0967
20.1007
20.0956
20.1047
20.105
20.1035
20.1035
20.0824
20.1559
20.0826
20.1575
20.0792
20.1425
20.0793
20.1447
20.1529
20.0819
20.1543
20.0822
20.1386
20.0788
20.1405
20.079
20.0987
20.1037
20.0977
20.1027
20.1076
20.1069
20.1064
20.1058
20.102
20.102
20.1013
20.1013
20.1023
20.1023
20.1016
20.1016
20.1037
20.0987
20.1027
20.0977
20.1069
20.1076
20.1058
20.1064
20.082
20.1529
20.0822
20.1543
20.0788
20.1386
20.079
20.1405
20.1502
20.0815
20.1515
20.0817
20.1354
20.0785
20.137
20.0786
20.1003
20.1057
20.0995
20.1047
20.1095
20.109
20.1086
20.108
20.1035
20.1035
20.1027
20.1027
20.1038
20.1038
20.103
20.103
20.1057
20.1003
20.1047
20.0995
20.109
20.1095
20.108
20.1086
20.0815
20.1502
20.0817
20.1515
20.0785
20.1354
20.0786
20.137
20.1478
20.0812
20.149
20.0814
20.1327
20.0783
20.134
20.0784
20.1017
20.1075
20.101
20.1066
20.1108
20.111
20.1102
20.11
20.1052
20.1052
20.1044
20.1044
20.1054
20.1054
20.1046
20.1046
20.1075
20.1017
20.1066
20.101
20.111
20.1108
20.11
20.1102
20.0812
20.1478
20.0814
20.149
20.0783
20.1327
20.0784
20.134
20.1457
20.081
20.1467
20.0811
20.1303
20.0782
20.1314
20.0782
20.1029
20.1092
20.1023
20.1084
20.112
20.1127
20.1114
20.1119
20.1069
20.1069
20.106
20.106
20.1071
20.1071
20.1063
20.1063
20.1092
20.1029
20.1084
20.1023
20.1127
20.112
20.1119
20.1114
20.081
20.1457
20.0811
20.1467
20.0782
20.1304
20.0782
20.1314
20.144
20.081
20.1448
20.081
20.1285
20.0782
20.1294
20.0782
20.104
20.1108
20.1034
20.11
20.113
20.1143
20.1125
20.1135
20.1084
20.1084
20.1077
20.1077
20.1086
20.1086
20.1078
20.1078
20.1108
20.104
20.11
20.1034
20.1143
20.113
20.1135
20.1125
20.081
20.144
20.081
20.1448
20.0782
20.1285
20.0782
20.1294
20.1425
20.081
20.1432
20.081
20.127
20.0782
20.1277
20.0782
20.105
20.1121
20.1045
20.1115
20.114
20.1156
20.1135
20.115
20.1099
20.1099
20.1092
20.1092
20.11
20.11
20.1093
20.1093
20.1121
20.105
20.1115
20.1045
20.1156
20.114
20.115
20.1136
20.081
20.1426
20.081
20.1432
20.0782
20.127
20.0782
20.1277
20.1414
20.081
20.1419
20.081
20.1258
20.0784
20.1264
20.0783
20.1059
20.1134
20.1055
20.1128
20.1149
20.1168
20.1145
20.1162
20.1113
20.1113
20.1106
20.1106
20.1114
20.1114
20.1107
20.1107
20.1134
20.1059
20.1128
20.1054
20.1168
20.1149
20.1162
20.1145
20.081
20.1414
20.081
20.142
20.0783
20.126
20.0782
20.1265
20.1406
20.0812
20.141
20.0811
20.125
20.0786
20.1254
20.0785
20.1068
20.1145
20.1064
20.1139
20.1156
20.1179
20.1153
20.1174
20.1125
20.1125
20.1119
20.1119
20.1126
20.1126
20.112
20.112
20.1145
20.1069
20.1139
20.1064
20.1179
20.1156
20.1174
20.1152
20.0812
20.1405
20.0811
20.141
20.0786
20.1251
20.0784
20.1256
20.1401
20.0815
20.1403
20.0813
20.1245
20.0789
20.1247
20.0787
20.1075
20.1155
20.1073
20.115
20.1164
20.1189
20.1159
20.1184
20.1137
20.1137
20.1131
20.1131
20.1137
20.1137
20.1131
20.1131
20.1155
20.1075
20.115
20.1073
20.1189
20.1164
20.1184
20.1159
20.0816
20.14
20.0814
20.1402
20.0789
20.1245
20.0787
20.1248
20.1397
20.0819
20.1399
20.0817
20.1242
20.0792
20.1243
20.0791
20.1081
20.1164
20.1078
20.116
20.1172
20.1197
20.1168
20.1193
20.1148
20.1148
20.1142
20.1142
20.1147
20.1147
20.1142
20.1142
20.1164
20.1081
20.116
20.1078
20.1197
20.1172
20.1193
20.1168
20.082
20.1396
20.0817
20.1398
20.0792
20.1243
20.079
20.1244
20.1396
20.0823
20.1397
20.0821
20.1241
20.0797
20.1241
20.0795
20.1086
20.1173
20.1083
20.1169
20.118
20.1205
20.1176
20.1201
20.1158
20.1158
20.1153
20.1153
20.1156
20.1156
20.1152
20.1152
20.1173
20.1086
20.1169
20.1084
20.1206
20.118
20.1201
20.1176
20.0824
20.1395
20.0822
20.1395
20.0797
20.1241
20.0794
20.1242
20.1397
20.0829
20.1396
20.0826
20.1243
20.0801
20.1242
20.0799
20.1093
20.1182
20.1089
20.1178
20.1187
20.1213
20.1183
20.1209
20.1167
20.1167
20.1162
20.1162
20.1165
20.1165
20.1161
20.1161
20.1182
20.1093
20.1178
20.1089
20.1213
20.1187
20.1209
20.1183
20.0828
20.1397
20.0825
20.1397
20.0801
20.1243
20.0799
20.1242
20.1398
20.0835
20.1397
20.0832
20.1243
20.0809
20.1243
20.0805
20.11
20.119
20.1096
20.1186
20.1195
20.1221
20.1191
20.1217
20.1176
20.1176
20.1172
20.1172
20.1174
20.1174
20.117
20.117
20.119
20.11
20.1186
20.1096
20.1221
20.1195
20.1217
20.1191
20.0837
20.1397
20.0833
20.1396
20.0809
20.1242
20.0805
20.1243
20.1401
20.0843
20.1399
20.0839
20.1246
20.0815
20.1244
20.0812
20.1108
20.1199
20.1104
20.1194
20.1202
20.1228
20.1198
20.1225
20.1185
20.1185
20.1181
20.1181
20.1182
20.1182
20.1178
20.1178
20.1199
20.1108
20.1194
20.1104
20.1228
20.1202
20.1225
20.1198
20.0844
20.1399
20.084
20.1398
20.0815
20.1246
20.0812
20.1244
20.1404
20.0852
20.1403
20.0847
20.125
20.0823
20.1248
20.0819
20.1116
20.1207
20.1112
20.1203
20.121
20.1236
20.1206
20.1232
20.1194
20.1194
20.119
20.119
20.119
20.119
20.1186
20.1186
20.1207
20.1116
20.1203
20.1112
20.1236
20.121
20.1232
20.1206
20.0852
20.1404
20.0848
20.1401
20.0822
20.1251
20.0818
20.1248
20.1411
20.0859
20.1408
20.0855
20.1257
20.0831
20.1253
20.0827
20.1124
20.1215
20.112
20.1211
20.1218
20.1243
20.1214
20.1239
20.1203
20.1203
20.1198
20.1198
20.1198
20.1198
20.1194
20.1194
20.1215
20.1125
20.1211
20.112
20.1243
20.1218
20.1239
20.1214
20.086
20.141
20.0856
20.1407
20.0831
20.1256
20.0826
20.1253
20.1416
20.087
20.1413
20.0865
20.1263
20.084
20.126
20.0835
20.1134
20.1224
20.1129
20.122
20.1226
20.1251
20.1222
20.1247
20.1212
20.1212
20.1207
20.1207
20.1207
20.1207
20.1203
20.1203
20.1224
20.1134
20.122
20.1129
20.1251
20.1226
20.1247
20.1222
20.087
20.1416
20.0865
20.1413
20.084
20.1263
20.0835
20.126
20.1424
20.0881
20.142
20.0875
20.1271
20.085
20.1267
20.0845
20.1144
20.1233
20.1139
20.1229
20.1235
20.1259
20.1231
20.1255
20.1221
20.1221
20.1216
20.1216
20.1215
20.1215
20.1211
20.1211
20.1233
20.1144
20.1229
20.1139
20.1259
20.1235
20.1255
20.1231
20.0881
20.1424
20.0875
20.142
20.085
20.1271
20.0845
20.1267
20.1432
20.0894
20.1428
20.0887
20.1279
20.0861
20.1275
20.0855
20.1154
20.1243
20.1149
20.1238
20.1245
20.1267
20.124
20.1263
20.1231
20.1231
20.1226
20.1226
20.1224
20.1224
20.122
20.122
20.1243
20.1154
20.1238
20.1149
20.1267
20.1245
20.1263
20.124
20.0894
20.1432
20.0887
20.1428
20.086
20.1279
20.0855
20.1275
20.1441
20.0907
20.1436
20.09
20.1289
20.0871
20.1284
20.0866
20.1165
20.1252
20.116
20.1248
20.1254
20.1276
20.1249
20.1272
20.124
20.124
20.1235
20.1235
20.1233
20.1233
20.1229
20.1229
20.1252
20.1165
20.1248
20.116
20.1276
20.1254
20.1272
20.1249
20.0907
20.1441
20.09
20.1436
20.0871
20.1289
20.0866
20.1284
20.1451
20.0921
20.1446
20.0914
20.13
20.0883
20.1294
20.0877
20.1176
20.1263
20.1171
20.1257
20.1264
20.1285
20.1259
20.128
20.1251
20.1251
20.1245
20.1245
20.1243
20.1243
20.1238
20.1238
20.1263
20.1176
20.1257
20.1171
20.1285
20.1264
20.128
20.1259
20.0921
20.1451
20.0914
20.1446
20.0883
20.13
20.0877
20.1294
20.1462
20.0937
20.1456
20.0929
20.1312
20.0894
20.1306
20.0888
20.1188
20.1273
20.1182
20.1268
20.1274
20.1294
20.1269
20.129
20.1262
20.1262
20.1256
20.1256
20.1253
20.1253
20.1248
20.1248
20.1273
20.1188
20.1268
20.1182
20.1294
20.1274
20.129
20.1269
20.0937
20.1462
20.0929
20.1456
20.0894
20.1312
20.0888
20.1306
20.1474
20.0954
20.1468
20.0945
20.1325
20.0905
20.1318
20.09
20.1199
20.1283
20.1193
20.1278
20.1284
20.1304
20.1279
20.1299
20.1273
20.1273
20.1267
20.1267
20.1264
20.1264
20.1259
20.1259
20.1283
20.1199
20.1278
20.1193
20.1304
20.1284
20.1299
20.1279
20.0954
20.1474
20.0945
20.1468
20.0905
20.1325
20.09
20.1318
20.1487
20.0971
20.148
20.0964
20.134
20.0916
20.1332
20.0909
20.1211
20.1294
20.1205
20.1289
20.1294
20.1314
20.1289
20.1309
20.1285
20.1285
20.1279
20.1279
20.1276
20.1276
20.127
20.127
20.1294
20.1211
20.1289
20.1205
20.1314
20.1294
20.1309
20.1289
20.0971
20.1487
20.0964
20.148
20.0916
20.134
20.0909
20.1332
20.1501
20.098
20.1494
20.0976
20.1355
20.0934
20.1347
20.0925
20.1223
20.1306
20.1217
20.13
20.1304
20.1324
20.1299
20.1319
20.1297
20.1297
20.1291
20.1291
20.1288
20.1288
20.1282
20.1282
20.1306
20.1223
20.13
20.1217
20.1324
20.1304
20.1319
20.1299
20.098
20.1501
20.0976
20.1494
20.0934
20.1355
20.0925
20.1347
20.1516
20.0991
20.1509
20.0985
20.1372
20.095
20.1363
20.0942
20.1234
20.1318
20.1228
20.1312
20.1314
20.1335
20.1309
20.1329
20.1311
20.1311
20.1304
20.1304
20.13
20.13
20.1294
20.1294
20.1318
20.1234
20.1312
20.1228
20.1335
20.1314
20.1329
20.1309
20.0991
20.1516
20.0985
20.1509
20.095
20.1372
20.0942
20.1363
20.1531
20.1003
20.1523
20.0996
20.1389
20.0966
20.138
20.0958
20.1246
20.133
20.124
20.1324
20.1323
20.1346
20.1318
20.134
20.1324
20.1324
20.1317
20.1317
20.1314
20.1314
20.1307
20.1307
20.133
20.1246
20.1324
20.124
20.1346
20.1323
20.134
20.1318
20.1003
20.1531
20.0996
20.1523
20.0966
20.1389
20.0958
20.138
20.1543
20.1016
20.1537
20.1009
20.1405
20.0982
20.1397
20.0974
20.1259
20.1343
20.1253
20.1336
20.1333
20.1357
20.1328
20.1352
20.1338
20.1338
20.1331
20.1331
20.1328
20.1328
20.1321
20.1321
20.1343
20.1259
20.1336
20.1253
20.1357
20.1333
20.1352
20.1328
20.1016
20.1543
20.1009
20.1537
20.0982
20.1405
20.0974
20.1397
20.1551
20.1033
20.1548
20.1024
20.1419
20.1
20.1413
20.0991
20.1272
20.1355
20.1265
20.1349
20.1343
20.1369
20.1338
20.1363
20.1353
20.1353
20.1346
20.1346
20.1342
20.1342
20.1335
20.1335
20.1355
20.1272
20.1349
20.1265
20.1369
20.1343
20.1363
20.1338
20.1033
20.1551
20.1024
20.1548
20.1
20.1419
20.0991
20.1413
20.1549
20.1058
20.1552
20.1044
20.1426
20.1023
20.1424
20.101
20.1286
20.1368
20.1279
20.1362
20.1353
20.138
20.1348
20.1374
20.1368
20.1368
20.1361
20.1361
20.1357
20.1357
20.1349
20.1349
20.1368
20.1286
20.1362
20.1279
20.138
20.1353
20.1374
20.1348
20.1058
20.1549
20.1044
20.1552
20.1023
20.1426
20.101
20.1424
20.1518
20.1111
20.154
20.1079
20.1411
20.1066
20.1424
20.104
20.1301
20.1381
20.1293
20.1375
20.1363
20.1392
20.1358
20.1386
20.1385
20.1385
20.1376
20.1376
20.1372
20.1372
20.1365
20.1365
20.1381
20.1301
20.1375
20.1293
20.1392
20.1363
20.1386
20.1358
20.1111
20.1518
20.1079
20.154
20.1066
20.1411
20.104
20.1424
20.1549
20.1095
20.1492
20.1149
20.1442
20.1059
20.1395
20.1098
20.1307
20.1398
20.1308
20.1389
20.1369
20.1407
20.1369
20.1399
20.1402
20.1402
20.1393
20.1393
20.1389
20.1389
20.1381
20.1381
20.1398
20.1307
20.1389
20.1308
20.1407
20.1368
20.1399
20.1369
20.1095
20.1549
20.1149
20.1492
20.1059
20.1442
20.1098
20.1395
20.155
20.0598
20.1198
20.0814
20.1518
20.0615
20.1175
20.0829
20.096
20.1006
20.1003
20.1005
20.0965
20.1005
20.1
20.1002
20.1008
20.1008
20.1004
20.1004
20.1006
20.1006
20.1001
20.1001
20.1006
20.096
20.1005
20.1003
20.1005
20.0965
20.1002
20.1
20.0598
20.155
20.0814
20.1198
20.0614
20.1518
20.0829
20.1175
20.1809
20.0652
20.1765
20.0571
20.18
20.063
20.1742
20.0568
20.0836
20.0979
20.0889
20.0998
20.0853
20.0989
20.0903
20.1003
20.1014
20.1014
20.1011
20.1011
20.1017
20.1017
20.1013
20.1013
20.0979
20.0836
20.0998
20.0889
20.0989
20.0853
20.1003
20.0903
20.0652
20.1809
20.0571
20.1765
20.063
20.18
20.0568
20.1742
20.175
20.0825
20.1786
20.0747
20.1756
20.0778
20.1786
20.071
20.0809
20.094
20.0812
20.0957
20.0825
20.0956
20.0829
20.097
20.1007
20.1007
20.1014
20.1014
20.1013
20.1013
20.1017
20.1017
20.094
20.0809
20.0957
20.0812
20.0956
20.0825
20.097
20.0829
20.0825
20.175
20.0747
20.1786
20.0778
20.1756
20.071
20.1786
20.1686
20.0919
20.1716
20.0881
20.1696
20.0859
20.1725
20.0827
20.0831
20.0925
20.0818
20.0929
20.0846
20.0945
20.0833
20.0948
20.0988
20.0988
20.0997
20.0997
20.0999
20.0999
20.1006
20.1006
20.0925
20.0831
20.0929
20.0818
20.0945
20.0846
20.0948
20.0833
20.0919
20.1686
20.0881
20.1716
20.0859
20.1696
20.0827
20.1725
20.1638
20.0959
20.166
20.0944
20.165
20.0892
20.1671
20.088
20.086
20.0926
20.0846
20.0924
20.0875
20.0949
20.0861
20.0946
20.0975
20.0975
20.098
20.098
20.0989
20.0989
20.0993
20.0993
20.0926
20.086
20.0924
20.0846
20.0949
20.0875
20.0946
20.0861
20.0959
20.1638
20.0944
20.166
20.0892
20.165
20.088
20.1671
20.1601
20.0975
20.1619
20.0969
20.1613
20.0903
20.163
20.0899
20.0885
20.0937
20.0873
20.0931
20.09
20.0961
20.0888
20.0955
20.0972
20.0972
20.0972
20.0972
20.0988
20.0988
20.0987
20.0987
20.0937
20.0885
20.0931
20.0873
20.0961
20.09
20.0955
20.0888
20.0975
20.1601
20.0969
20.1619
20.0903
20.1613
20.0899
20.163
20.1571
20.0979
20.1585
20.0978
20.1581
20.0904
20.1596
20.0904
20.0904
20.0951
20.0895
20.0943
20.092
20.0978
20.0911
20.0969
20.0978
20.0978
20.0974
20.0974
20.0995
20.0995
20.0991
20.0991
20.0951
20.0904
20.0943
20.0895
20.0978
20.092
20.0969
20.0911
20.0979
20.1571
20.0978
20.1585
20.0904
20.1581
20.0904
20.1596
20.1544
20.0979
20.1557
20.0979
20.1554
20.0901
20.1567
20.0903
20.092
20.0966
20.0913
20.0959
20.0937
20.0996
20.0929
20.0987
20.099
20.099
20.0983
20.0983
20.1007
20.1007
20.1
20.1
20.0966
20.092
20.0959
20.0913
20.0996
20.0937
20.0987
20.0929
20.0979
20.1543
20.0979
20.1557
20.0901
20.1553
20.0903
20.1567
20.1519
20.0977
20.1531
20.0978
20.1529
20.0898
20.1541
20.09
20.0934
20.0983
20.0927
20.0975
20.0951
20.1014
20.0944
20.1005
20.1005
20.1005
20.0997
20.0997
20.1023
20.1023
20.1015
20.1015
20.0983
20.0934
20.0975
20.0927
20.1014
20.0951
20.1005
20.0944
20.0977
20.1519
20.0978
20.1531
20.0898
20.1529
20.09
20.1541
20.1497
20.0975
20.1508
20.0976
20.1506
20.0896
20.1517
20.0897
20.0946
20.0999
20.094
20.0991
20.0964
20.1031
20.0958
20.1023
20.1022
20.1022
20.1014
20.1014
20.1039
20.1039
20.1031
20.1031
20.0999
20.0946
20.0991
20.094
20.1031
20.0964
20.1023
20.0958
20.0975
20.1497
20.0976
20.1508
20.0896
20.1506
20.0897
20.1517
20.1478
20.0973
20.1488
20.0974
20.1486
20.0894
20.1496
20.0894
20.0957
20.1014
20.0952
20.1007
20.0975
20.1047
20.097
20.1039
20.1039
20.1039
20.1031
20.1031
20.1056
20.1056
20.1048
20.1048
20.1014
20.0957
20.1007
20.0952
20.1047
20.0975
20.1039
20.097
20.0973
20.1478
20.0974
20.1487
20.0894
20.1486
20.0895
20.1496
20.1463
20.0971
20.147
20.0972
20.147
20.0892
20.1478
20.0893
20.0967
20.1029
20.0962
20.1022
20.0985
20.1062
20.098
20.1055
20.1055
20.1055
20.1047
20.1047
20.1072
20.1072
20.1064
20.1064
20.1029
20.0967
20.1022
20.0962
20.1062
20.0985
20.1055
20.098
20.0971
20.1463
20.0972
20.147
20.0892
20.147
20.0893
20.1478
20.1449
20.0971
20.1456
20.0971
20.1456
20.0892
20.1463
20.0892
20.0976
20.1042
20.0972
20.1036
20.0995
20.1076
20.099
20.1069
20.1071
20.1071
20.1063
20.1063
20.1087
20.1087
20.108
20.108
20.1042
20.0976
20.1036
20.0972
20.1076
20.0995
20.1069
20.099
20.0971
20.1449
20.0971
20.1455
20.0892
20.1456
20.0892
20.1463
20.144
20.097
20.1444
20.0971
20.1446
20.0892
20.1451
20.0892
20.0985
20.1055
20.0981
20.1049
20.1003
20.1088
20.0999
20.1082
20.1085
20.1085
20.1078
20.1078
20.1101
20.1101
20.1094
20.1094
20.1055
20.0985
20.1049
20.0981
20.1088
20.1003
20.1082
20.0999
20.097
20.144
20.0971
20.1444
20.0893
20.1445
20.0893
20.145
20.1432
20.0971
20.1437
20.097
20.1438
20.0893
20.1442
20.0892
20.0994
20.1067
20.099
20.1061
20.1011
20.11
20.1007
20.1094
20.1098
20.1098
20.1092
20.1092
20.1114
20.1114
20.1108
20.1108
20.1067
20.0993
20.1061
20.099
20.11
20.1011
20.1094
20.1007
20.0971
20.1433
20.097
20.1437
20.0894
20.1438
20.0893
20.1441
20.1428
20.0973
20.1429
20.0973
20.1433
20.0895