/*--------------------------------*- C++ -*----------------------------------*\
  =========                 |
  \\      /  F ield         | OpenFOAM: The Open Source CFD Toolbox
   \\    /   O peration     | Website:  https://openfoam.org
    \\  /    A nd           | Version:  9
     \\/     M anipulation  |
\*---------------------------------------------------------------------------*/
FoamFile
{
    format      ascii;
    class       volScalarField;
    location    "4.25";
    object      epsilon;
}
// * * * * * * * * * * * * * * * * * * * * * * * * * * * * * * * * * * * * * //

dimensions      [0 2 -3 0 0 0 0];

internalField   nonuniform List<scalar> 
36360
(
0.49529
0.401621
0.270471
0.23459
0.293943
0.235542
0.0657134
0.0792317
0.17896
0.0813084
0.0791912
0.0235833
0.0999098
0.0355972
0.0204636
0.0083428
0.0449107
0.0448887
0.0105812
0.0105763
0.0196947
0.0196913
0.00554004
0.00553991
0.0812265
0.178793
0.0235508
0.0790909
0.0355705
0.0998013
0.00834012
0.0204397
0.401373
0.495038
0.234406
0.270272
0.235293
0.293603
0.079123
0.0655987
0.813242
0.66845
0.668067
0.542754
0.748889
0.592907
0.528558
0.410893
0.379177
0.237784
0.279282
0.155249
0.359223
0.236035
0.219213
0.119523
0.180501
0.180452
0.106624
0.106587
0.18707
0.187028
0.0807109
0.0806917
0.237627
0.378904
0.155128
0.279059
0.235883
0.358903
0.119437
0.219004
0.668088
0.812895
0.542446
0.667765
0.59235
0.748151
0.410495
0.528017
1.07118
0.901326
0.946264
0.787273
1.17803
0.969566
0.963843
0.779355
0.57736
0.412672
0.478748
0.32442
0.672537
0.513094
0.51166
0.369234
0.343531
0.34346
0.260577
0.260516
0.447097
0.447007
0.311365
0.311298
0.412457
0.577002
0.324232
0.478429
0.512803
0.671988
0.369013
0.511226
0.900875
1.07077
0.786863
0.945879
0.968689
1.17689
0.778636
0.962899
1.30324
1.11704
1.19003
1.01132
1.59969
1.3518
1.39038
1.16099
0.769167
0.588437
0.67448
0.501142
1.00542
0.816807
0.837982
0.663228
0.511077
0.51099
0.427563
0.427484
0.736637
0.736504
0.589806
0.589694
0.588178
0.768748
0.500902
0.674088
0.816386
1.00466
0.66287
0.837324
1.11653
1.30279
1.01083
1.1896
1.35064
1.59818
1.15996
1.38904
1.51295
1.31476
1.411
1.21838
2.0006
1.72182
1.80343
1.53916
0.949051
0.756394
0.860989
0.673878
1.33551
1.1232
1.17179
0.970716
0.672965
0.672869
0.593264
0.593171
1.03148
1.03131
0.884461
0.884308
0.756107
0.948595
0.673604
0.860549
1.12267
1.33458
0.970238
1.17094
1.31422
1.5125
1.21785
1.41055
1.72041
1.99879
1.53786
1.80175
1.69947
1.49219
1.60922
1.40619
2.36901
2.0661
2.18916
1.89756
1.11289
0.911181
1.03325
0.835764
1.64757
1.41617
1.49432
1.27195
0.82318
0.823077
0.74989
0.74979
1.31518
1.31498
1.17533
1.17514
0.910878
1.11241
0.835468
1.03278
1.41555
1.6465
1.27137
1.49331
1.49164
1.69904
1.40564
1.60878
2.06451
2.36698
1.89605
2.18722
1.86252
1.64827
1.784
1.57302
2.69861
2.37691
2.53864
2.22575
1.25854
1.04992
1.18818
0.982788
1.9325
1.68583
1.79361
1.55415
0.958442
0.958336
0.89293
0.892825
1.57748
1.57726
1.44927
1.44906
1.04961
1.25806
0.98248
1.1877
1.68515
1.93132
1.55351
1.79248
1.64772
1.86212
1.57247
1.78358
2.37518
2.6964
2.22408
2.5365
2.0028
1.78308
1.93557
1.71844
2.98733
2.65103
2.84785
2.51837
1.38545
1.17155
1.32448
1.11304
2.18591
1.92709
2.06309
1.81001
1.07742
1.07731
1.02015
1.02004
1.81291
1.81267
1.69857
1.69834
1.17123
1.38497
1.11273
1.324
1.92637
2.18467
1.8093
2.06187
1.78256
2.00244
1.7179
1.93519
2.6492
2.98499
2.51659
2.84555
2.12149
1.89752
2.06488
1.8429
3.23552
2.88793
3.11613
2.77382
1.49396
1.27607
1.44211
1.22608
2.40634
2.13789
2.30004
2.03612
1.17993
1.17982
1.13087
1.13077
2.0191
2.01885
1.9195
1.91926
1.27576
1.49349
1.22577
1.44164
2.13712
2.40503
2.03538
2.29876
1.89701
2.12117
1.84238
2.06453
2.88603
3.23308
2.77194
3.11372
2.22034
1.99312
2.17344
1.94774
3.4452
3.0889
3.34474
2.9925
1.58516
1.36429
1.54183
1.32234
2.59433
2.31833
2.50408
2.23163
1.26664
1.26654
1.22539
1.22528
2.19595
2.19569
2.11093
2.11067
1.36398
1.5847
1.32203
1.54137
2.31755
2.59299
2.23085
2.50275
1.99264
2.22005
1.94724
2.17314
3.08694
3.44269
2.99056
3.34224
2.30113
2.07151
2.26304
2.03453
3.61907
3.25611
3.53612
3.17625
1.66039
1.43735
1.62488
1.40284
2.75151
2.46968
2.67639
2.3973
1.3386
1.33849
1.30459
1.30449
2.34454
2.34428
2.27345
2.27318
1.43704
1.65994
1.40253
1.62443
2.46888
2.75014
2.3965
2.67503
2.07104
2.30088
2.03406
2.26277
3.25412
3.61651
3.17426
3.53356
2.36576
2.13441
2.33554
2.10499
3.76038
3.39242
3.6933
3.32764
1.72114
1.49659
1.6927
1.46883
2.88021
2.59399
2.81901
2.53484
1.39706
1.39696
1.36966
1.36955
2.46676
2.46649
2.40858
2.40831
1.49629
1.7207
1.46853
1.69225
2.59318
2.87882
2.53403
2.81763
2.13397
2.36555
2.10453
2.33531
3.3904
3.75778
3.32563
3.69069
2.41596
2.18347
2.39275
2.16077
3.87228
3.5007
3.81949
3.44955
1.7689
1.54339
1.74678
1.52169
2.98295
2.69354
2.9344
2.64646
1.44335
1.44325
1.42188
1.42178
2.56477
2.5645
2.5184
2.51813
1.5431
1.76847
1.5214
1.74635
2.69272
2.98155
2.64564
2.933
2.18305
2.41578
2.16034
2.39255
3.49865
3.86966
3.44751
3.81685
2.45343
2.2203
2.43639
2.20353
3.95801
3.58392
3.91791
3.54493
1.80513
1.57913
1.78862
1.56281
3.06239
2.77079
3.02516
2.73455
1.47881
1.47871
1.4626
1.4625
2.64096
2.64069
2.60519
2.60492
1.57885
1.80471
1.56252
1.78819
2.76996
3.06098
2.73372
3.02375
2.21989
2.45329
2.20312
2.43623
3.58187
3.95537
3.54287
3.91524
2.47964
2.2463
2.46808
2.2348
4.02045
3.64481
3.99165
3.61666
1.83117
1.60507
1.81961
1.59351
3.12102
2.82808
3.09389
2.80153
1.50466
1.50456
1.49312
1.49302
2.69761
2.69734
2.67134
2.67106
1.60479
1.83076
1.59323
1.81919
2.82725
3.1196
2.8007
3.09248
2.24592
2.47952
2.2344
2.46794
3.64276
4.0178
3.6146
3.98897
2.49596
2.26281
2.48919
2.25591
4.0623
3.68593
4.04347
3.66736
1.84824
1.62237
1.84103
1.615
3.16116
2.86764
3.14299
2.84968
1.52205
1.52195
1.51461
1.51452
2.73689
2.73662
2.71904
2.71876
1.6221
1.84784
1.61473
1.84062
2.86681
3.15975
2.84885
3.14157
2.26244
2.49586
2.25553
2.48908
3.68388
4.05965
3.6653
4.04079
2.50354
2.27095
2.50102
2.26811
4.08594
3.70955
4.07593
3.69946
1.85742
1.63209
1.85403
1.6284
3.18494
2.8915
3.1747
2.88115
1.53199
1.53189
1.52817
1.52807
2.76077
2.7605
2.75038
2.75011
1.63182
1.85703
1.62813
1.85364
2.89068
3.18354
2.88033
3.17329
2.2706
2.50347
2.26775
2.50093
3.70751
4.08329
3.6974
4.07325
2.50344
2.27172
2.50462
2.27245
4.09323
3.71751
4.09124
3.71509
1.85962
1.63509
1.85963
1.63467
3.19419
2.90144
3.19103
2.89786
1.53535
1.53526
1.53473
1.53464
2.77102
2.77075
2.76724
2.76697
1.63483
1.85924
1.6344
1.85924
2.90062
3.19279
2.89703
3.18962
2.27138
2.50339
2.2721
2.50456
3.71548
4.0906
3.71304
4.08858
2.49657
2.26609
2.50108
2.26994
4.08677
3.71218
4.09151
3.7162
1.85587
1.63237
1.85875
1.63469
3.19092
2.89926
3.19373
2.90141
1.5331
1.53301
1.53515
1.53506
2.76933
2.76906
2.77119
2.77092
1.63212
1.8555
1.63443
1.85838
2.89845
3.18953
2.90059
3.19234
2.26576
2.49653
2.26961
2.50104
3.71017
4.08416
3.71417
4.08887
2.4835
2.25455
2.49102
2.26127
4.06705
3.69414
4.07808
3.70425
1.84655
1.62432
1.85215
1.62926
3.17591
2.88589
3.18449
2.89365
1.52563
1.52554
1.53027
1.53018
2.75671
2.75645
2.76409
2.76382
1.62407
1.84618
1.62901
1.85178
2.88509
3.17454
2.89284
3.18312
2.25423
2.48348
2.26095
2.49099
3.69215
4.06447
3.70224
4.07545
2.46489
2.23779
2.47512
2.24706
4.03585
3.66509
4.0525
3.6806
1.83236
1.61162
1.84034
1.61882
3.1507
2.86273
3.16426
2.87522
1.51361
1.51352
1.52046
1.52037
2.73448
2.73422
2.74648
2.74621
1.61137
1.83201
1.61857
1.83998
2.86194
3.14936
2.87442
3.1629
2.23749
2.46489
2.24675
2.47511
3.66313
4.0333
3.67862
4.04991
2.44122
2.21629
2.45394
2.22788
3.99408
3.62594
4.01591
3.64639
1.81377
1.5947
1.8239
1.60397
3.11617
2.83064
3.13429
2.84749
1.49747
1.49739
1.50633
1.50625
2.7035
2.70325
2.71978
2.71952
1.59446
1.81342
1.60372
1.82355
2.82986
3.11485
2.84671
3.13295
2.21599
2.44122
2.22758
2.45393
3.62401
3.99157
3.64444
4.01336
2.41285
2.1904
2.42788
2.20414
3.94257
3.57747
3.96919
3.6025
1.79112
1.57394
1.80324
1.58509
3.07306
2.79035
3.09539
2.81123
1.47757
1.47749
1.48828
1.48819
2.66451
2.66425
2.68472
2.68446
1.5737
1.79078
1.58485
1.8029
2.78959
3.07176
2.81046
3.09407
2.19011
2.41286
2.20385
2.42788
3.57558
3.94011
3.60058
3.96668
2.38007
2.16041
2.39727
2.17618
3.88193
3.52029
3.91305
3.54961
1.7647
1.54958
1.77867
1.5625
3.02197
2.74245
3.04822
2.76707
1.45418
1.4541
1.4666
1.46652
2.61805
2.61781
2.64193
2.64168
1.54935
1.76437
1.56227
1.77834
2.7417
3.0207
2.76632
3.04694
2.16013
2.38008
2.17589
2.39728
3.51844
3.87953
3.54774
3.91059
2.3431
2.12656
2.36236
2.14423
3.81268
3.4549
3.84806
3.48828
1.73472
1.52186
1.75045
1.53644
2.96335
2.68737
2.99333
2.71554
1.4275
1.42742
1.44154
1.44146
2.56458
2.56434
2.59193
2.59169
1.52163
1.7344
1.53621
1.75012
2.68664
2.96211
2.7148
2.99207
2.12629
2.34312
2.14396
2.36238
3.45309
3.81033
3.48645
3.84566
2.30211
2.08899
2.32337
2.1085
3.73519
3.38165
3.77465
3.41893
1.70133
1.49091
1.71875
1.50708
2.89756
2.62545
2.93109
2.65701
1.39768
1.3976
1.41327
1.41319
2.50443
2.50419
2.53509
2.53485
1.49068
1.70102
1.50686
1.71843
2.62474
2.89635
2.65629
2.92987
2.08873
2.30214
2.10824
2.32339
3.3799
3.7329
3.41714
3.77231
2.25726
2.04786
2.28043
2.06913
3.64975
3.30085
3.69316
3.34188
1.66466
1.45683
1.6837
1.47455
2.82486
2.55694
2.86183
2.59178
1.36481
1.36474
1.38192
1.38184
2.43782
2.4376
2.47169
2.47146
1.45662
1.66436
1.47434
1.68339
2.55625
2.82368
2.59108
2.86063
2.0476
2.25728
2.06888
2.28045
3.29914
3.64753
3.34015
3.69089
2.20864
2.00324
2.23367
2.02624
3.55661
3.21272
3.60386
3.25741
1.62477
1.41971
1.64541
1.43895
2.74543
2.48202
2.78574
2.52005
1.32897
1.3289
1.34755
1.34748
2.36496
2.36474
2.40194
2.40172
1.4195
1.62448
1.43873
1.64511
2.48135
2.74429
2.51937
2.78459
2.00299
2.20866
2.02599
2.23369
3.21107
3.55445
3.25572
3.60165
2.15637
1.95521
2.18321
1.9799
3.45593
3.11741
3.50694
3.16568
1.58173
1.37958
1.60393
1.40031
2.6594
2.40082
2.70301
2.44199
1.2902
1.29013
1.31024
1.31016
2.28596
2.28574
2.32601
2.32579
1.37937
1.58144
1.4001
1.60364
2.40017
2.6583
2.44133
2.70189
1.95497
2.15639
1.97966
2.18323
3.11581
3.45385
3.16405
3.5048
2.10053
1.90383
2.12914
1.93018
3.34787
3.01502
3.40257
3.06683
1.53555
1.33646
1.55931
1.35867
2.56689
2.31343
2.61374
2.35769
1.2485
1.24843
1.26999
1.26992
2.20091
2.20071
2.24398
2.24377
1.33626
1.53527
1.35847
1.55902
2.3128
2.56582
2.35705
2.61266
1.90359
2.10054
1.92994
2.12915
3.01347
3.34586
3.06525
3.4005
2.0412
1.84912
2.07153
1.87713
3.23257
2.90579
3.29087
2.96097
1.48625
1.29035
1.51156
1.31405
2.46798
2.21994
2.51803
2.26725
1.20387
1.2038
1.22682
1.22675
2.10992
2.10972
2.15596
2.15576
1.29015
1.48598
1.31385
1.51128
2.21933
2.46695
2.26663
2.51698
1.84889
2.0412
1.8769
2.07154
2.9043
3.23063
2.95945
3.28888
1.97847
1.79114
2.01048
1.82077
3.11013
2.78988
3.17201
2.84844
1.43385
1.24124
1.4607
1.26643
2.36275
2.12041
2.41597
2.17074
1.15631
1.15624
1.18072
1.18065
2.01303
2.01284
2.06202
2.06182
1.24105
1.43358
1.26624
1.46043
2.11983
2.36176
2.17015
2.41496
1.79091
1.97846
1.82053
2.01048
2.78844
3.10827
2.84697
3.1701
1.91243
1.72993
1.94608
1.76116
2.98057
2.66722
3.04602
2.72916
1.37834
1.18912
1.40674
1.21581
2.25123
2.01488
2.3076
2.06822
1.10578
1.10572
1.13167
1.1316
1.91031
1.91012
1.96222
1.96203
1.18893
1.37807
1.21562
1.40647
2.01433
2.25028
2.06765
2.30663
1.7297
1.91242
1.76093
1.94607
2.66585
2.97879
2.72775
3.04419
1.84319
1.66554
1.87842
1.69834
2.84391
2.53791
2.91293
2.60317
1.31972
1.13396
1.34966
1.16216
2.13345
1.90341
2.19295
1.95972
1.05225
1.05218
1.07963
1.07957
1.80179
1.80161
1.8566
1.85643
1.13378
1.31946
1.16198
1.3494
1.90287
2.13254
1.95918
2.19202
1.66531
1.84317
1.69811
1.8784
2.5366
2.84221
2.60183
2.91117
1.77097
1.5981
1.80763
1.63239
2.7002
2.40215
2.77274
2.47062
1.25801
1.07571
1.28948
1.10545
2.00948
1.78598
2.07208
1.84529
0.99563
0.995568
1.02456
1.0245
1.68745
1.68728
1.7452
1.74503
1.07553
1.25775
1.10527
1.28922
1.78547
2.00862
1.84477
2.0712
1.59787
1.77093
1.63216
1.8076
2.4009
2.69858
2.46934
2.77107
1.69631
1.52792
1.73407
1.56351
2.54974
2.26039
2.62558
2.33178
1.19323
1.01421
1.22622
1.0456
1.87936
1.66245
1.94504
1.72486
0.935704
0.935644
0.966321
0.96626
1.56707
1.56691
1.6279
1.62774
1.01404
1.19298
1.04543
1.22597
1.66198
1.87855
1.72437
1.94421
1.5277
1.69626
1.56328
1.73403
2.25921
2.54822
2.33057
2.62401
1.62103
1.45566
1.65871
1.49219
2.39429
2.1138
2.47222
2.18741
1.12515
0.94892
1.15986
0.982315
1.74281
1.5322
1.81181
1.59811
0.871851
0.871793
0.904534
0.904475
1.44
1.43985
1.5043
1.50415
0.948754
1.12491
0.982146
1.15962
1.53176
1.74207
1.59766
1.81103
1.45543
1.62097
1.49196
1.65866
2.11271
2.39288
2.18628
2.47075
1.55188
1.38055
1.58493
1.41894
2.24264
1.96327
2.31659
2.03906
1.05144
0.877951
1.08956
0.914545
1.59726
1.39331
1.67143
1.46389
0.802685
0.80263
0.838239
0.838182
1.30508
1.30496
1.37346
1.37332
0.877792
1.05121
0.914382
1.08932
1.39292
1.59659
1.46348
1.67073
1.38033
1.55182
1.41872
1.58487
1.96229
2.24137
2.03802
2.31523
1.52533
1.27658
1.52822
1.33798
2.11749
1.77402
2.17705
1.88066
0.960249
0.79703
1.00968
0.83921
1.43053
1.24347
1.51775
1.31957
0.726292
0.72624
0.765657
0.765603
1.16305
1.16294
1.23454
1.23443
0.79688
0.960028
0.839056
1.00945
1.24314
1.42995
1.31921
1.51713
1.27637
1.52526
1.33776
1.52815
1.77318
2.11639
1.87974
2.17584
0.744895
0.60938
0.500281
0.412843
0.637224
0.516973
0.401261
0.331651
0.333505
0.192527
0.191498
0.0898602
0.261239
0.137598
0.136584
0.0541276
0.134486
0.134429
0.0519583
0.0519227
0.0887573
0.0887172
0.0255955
0.0255768
0.19235
0.333209
0.0897314
0.191246
0.137466
0.261003
0.0540469
0.136405
0.609022
0.744586
0.41249
0.499939
0.516667
0.636943
0.331377
0.400983
1.07534
0.90387
0.928328
0.769317
0.955746
0.794487
0.8132
0.666824
0.582451
0.404496
0.46348
0.299369
0.484636
0.320675
0.376718
0.228313
0.326421
0.326349
0.22907
0.229003
0.250969
0.250906
0.166875
0.166821
0.404284
0.582132
0.299167
0.463164
0.320486
0.484336
0.228148
0.376444
0.903541
1.07511
0.768967
0.928052
0.794145
0.955472
0.666494
0.812917
1.31605
1.13249
1.20262
1.02372
1.19537
1.01762
1.08116
0.910345
0.796663
0.603769
0.693246
0.506368
0.685508
0.50288
0.587447
0.412749
0.516733
0.516659
0.42304
0.422965
0.422812
0.422738
0.337141
0.337072
0.60356
0.796372
0.506154
0.692936
0.502665
0.685184
0.412544
0.587131
1.13224
1.31594
1.02343
1.20244
1.01728
1.19514
0.910001
1.0809
1.51261
1.32428
1.41883
1.23235
1.3989
1.21203
1.3009
1.11801
0.983782
0.783879
0.893512
0.696493
0.867944
0.674431
0.77913
0.590421
0.692201
0.692134
0.606779
0.606707
0.588087
0.588009
0.506865
0.506789
0.783695
0.983547
0.696294
0.893247
0.67421
0.867626
0.590201
0.778806
1.32413
1.51265
1.23215
1.4188
1.21173
1.39875
1.11768
1.30071
1.67776
1.48765
1.59875
1.40931
1.57529
1.38277
1.49032
1.30032
1.14634
0.94307
1.06814
0.866249
1.03142
0.830939
0.952212
0.754855
0.848877
0.84882
0.773126
0.773063
0.74049
0.740414
0.666253
0.666176
0.942921
1.14617
0.866082
1.06794
0.830726
1.03113
0.754637
0.951903
1.48762
1.67796
1.40922
1.59888
1.38252
1.57524
1.30005
1.49022
1.81708
1.62657
1.75049
1.56008
1.72773
1.53144
1.65445
1.45988
1.28614
1.08139
1.21911
1.01494
1.17549
0.970349
1.10601
0.902979
0.985841
0.985796
0.919963
0.919912
0.877119
0.877048
0.811009
0.810935
1.08128
1.28605
1.01481
1.21898
0.970151
1.17523
0.902773
1.10573
1.62665
1.81743
1.5601
1.75077
1.53126
1.72778
1.45967
1.65445
1.93406
1.74383
1.87827
1.68787
1.85817
1.65929
1.79571
1.59801
1.40506
1.19985
1.34825
1.14319
1.30041
1.09213
1.24045
1.0336
1.10362
1.10359
1.04724
1.0472
0.996986
0.99692
0.939323
0.939254
1.19978
1.40503
1.1431
1.34819
1.09195
1.30019
1.03341
1.24021
1.74401
1.93455
1.688
1.8787
1.65918
1.85832
1.59786
1.79581
2.03152
1.84186
1.98521
1.79525
1.96831
1.7678
1.91579
1.71601
1.50507
1.30001
1.45749
1.25231
1.40713
1.19674
1.35615
1.14671
1.2035
1.20348
1.15591
1.15588
1.10029
1.10023
1.05085
1.05079
1.29997
1.50511
1.25226
1.4575
1.19658
1.40695
1.14654
1.35595
1.84213
2.03213
1.79548
1.98577
1.76775
1.96856
1.71593
1.91598
2.11161
1.9227
2.07373
1.88444
2.06009
1.85853
2.01653
1.81543
1.58806
1.38351
1.54877
1.34394
1.49691
1.28516
1.45425
1.2431
1.28699
1.28698
1.2474
1.24739
1.18782
1.18777
1.14616
1.1461
1.38351
1.58815
1.34392
1.54883
1.28502
1.49676
1.24295
1.45408
1.92306
2.11233
1.88476
2.0744
1.85854
2.06042
1.81541
2.01681
2.17644
1.98839
2.14597
1.95749
2.1354
1.93323
2.09986
1.89796
1.65595
1.45213
1.624
1.4198
1.57128
1.35871
1.53614
1.32393
1.35577
1.35577
1.32334
1.32334
1.26081
1.26076
1.22627
1.22622
1.45216
1.65609
1.41981
1.62411
1.35859
1.57116
1.3238
1.53601
1.98881
2.17725
1.95788
2.14674
1.93329
2.13581
1.89799
2.10023
2.2278
2.04068
2.20384
2.01627
2.196
1.99355
2.1676
1.96527
1.71046
1.50754
1.68499
1.48162
1.63175
1.41881
1.60338
1.39059
1.41146
1.41147
1.38539
1.38539
1.32058
1.32053
1.29249
1.29245
1.50759
1.71065
1.48166
1.68515
1.4187
1.63166
1.39048
1.60328
2.04117
2.22869
2.01672
2.2047
1.99366
2.19647
1.96535
2.16804
2.26739
2.08125
2.24914
2.06253
2.24358
2.04115
2.22151
2.01905
1.75325
1.55133
1.73347
1.53105
1.67987
1.46688
1.65751
1.44451
1.45561
1.45563
1.43514
1.43515
1.36852
1.36848
1.34619
1.34615
1.5514
1.75347
1.53111
1.73367
1.46679
1.67981
1.44442
1.65744
2.0818
2.26836
2.06304
2.25008
2.0413
2.24412
2.01918
2.22202
2.29664
2.11154
2.28339
2.09778
2.27966
2.07747
2.26316
2.06083
1.78576
1.58492
1.77095
1.56958
1.71705
1.50429
1.69999
1.4871
1.48963
1.48965
1.47406
1.47408
1.40595
1.40591
1.38873
1.38869
1.58501
1.78601
1.56966
1.77118
1.50422
1.71701
1.48702
1.69995
2.11213
2.29767
2.09835
2.28439
2.07766
2.28025
2.06101
2.26373
2.3169
2.13289
2.308
2.12345
2.30566
2.10393
2.29405
2.09207
1.80931
1.60962
1.79883
1.59858
1.74462
1.53232
1.73222
1.51968
1.5148
1.51483
1.50352
1.50354
1.43412
1.43409
1.42139
1.42136
1.60972
1.80959
1.59867
1.7991
1.53225
1.74461
1.51961
1.7322
2.13351
2.31799
2.12406
2.30906
2.10415
2.3063
2.09228
2.29466
2.32925
2.14638
2.32418
2.14075
2.32278
2.1217
2.31548
2.11406
1.82503
1.62655
1.81835
1.61927
1.76375
1.5521
1.75545
1.54346
1.53226
1.53229
1.52471
1.52474
1.45416
1.45414
1.44538
1.44535
1.62667
1.82534
1.61938
1.81864
1.55205
1.76376
1.5434
1.75544
2.14705
2.33038
2.1414
2.32529
2.12195
2.32346
2.1143
2.31614
2.33471
2.15306
2.33298
2.15072
2.33213
2.13189
2.32859
2.12792
1.83395
1.63673
1.83056
1.63271
1.7755
1.56468
1.77077
1.55953
1.543
1.54303
1.5387
1.53873
1.46709
1.46707
1.46175
1.46173
1.63686
1.83427
1.63284
1.83087
1.56464
1.77553
1.55948
1.77079
2.15375
2.33588
2.1514
2.33413
2.13216
2.33284
2.12818
2.32929
2.33414
2.15377
2.33532
2.15432
2.33463
2.1354
2.33442
2.13467
1.83692
1.64101
1.8364
1.63984
1.78079
1.57095
1.77919
1.56885
1.54788
1.54791
1.54641
1.54645
1.47379
1.47377
1.47147
1.47144
1.64115
1.83726
1.63998
1.83674
1.57091
1.78083
1.56881
1.77922
2.15448
2.33534
2.15502
2.3365
2.1357
2.33537
2.13495
2.33515
2.32826
2.14928
2.33203
2.15235
2.33119
2.13313
2.33385
2.13518
1.83474
1.64018
1.8367
1.64147
1.78044
1.5717
1.78156
1.57226
1.54767
1.54771
1.54865
1.54868
1.47503
1.47502
1.47535
1.47533
1.64033
1.8351
1.64161
1.83705
1.57167
1.78049
1.57223
1.7816
2.15001
2.32949
2.15308
2.33324
2.13345
2.33195
2.13549
2.3346
2.31763
2.14013
2.32371
2.14547
2.32236
2.12567
2.32765
2.13026
1.82796
1.63482
1.83217
1.63833
1.77513
1.56764
1.77867
1.57054
1.54298
1.54302
1.54615
1.54619
1.47156
1.47154
1.47415
1.47414
1.63498
1.82833
1.63848
1.83253
1.56762
1.77518
1.57051
1.77872
2.14088
2.31887
2.14621
2.32494
2.126
2.32314
2.13058
2.32842
2.30275
2.12686
2.3109
2.13421
2.30871
2.11359
2.31635
2.12043
1.81711
1.62545
1.8233
1.63091
1.76535
1.55923
1.77106
1.56426
1.53431
1.53435
1.53941
1.53946
1.46379
1.46378
1.46849
1.46847
1.62561
1.81748
1.63107
1.82367
1.55922
1.76541
1.56424
1.77113
2.12762
2.304
2.13496
2.31214
2.11393
2.3095
2.12077
2.31714
2.28401
2.10986
2.29405
2.11902
2.29071
2.09735
2.30048
2.10622
1.8026
1.61248
1.81057
1.61969
1.75159
1.54697
1.75924
1.55387
1.52208
1.52212
1.52891
1.52896
1.45224
1.45222
1.45877
1.45876
1.61265
1.80298
1.61985
1.81095
1.54696
1.75166
1.55386
1.75931
2.11062
2.28526
2.11978
2.2953
2.0977
2.29151
2.10656
2.30127
2.26174
2.08946
2.27351
2.10028
2.26872
2.07734
2.28044
2.08805
1.78478
1.59628
1.79437
1.60506
1.73423
1.53123
1.74365
1.53983
1.50664
1.50669
1.51504
1.51509
1.43726
1.43725
1.44547
1.44546
1.59644
1.78516
1.60523
1.79475
1.53122
1.73431
1.53982
1.74372
2.09022
2.26299
2.10105
2.27476
2.07769
2.26952
2.0884
2.28124
2.23618
2.06593
2.24956
2.07829
2.24303
2.05383
2.25657
2.06626
1.76392
1.57709
1.775
1.58734
1.71356
1.51231
1.7246
1.52246
1.48827
1.48831
1.4981
1.49815
1.41916
1.41915
1.4289
1.42889
1.57726
1.7643
1.5875
1.77538
1.5123
1.71364
1.52246
1.72468
2.06669
2.23743
2.07905
2.25081
2.05418
2.24383
2.06661
2.25737
2.20755
2.03947
2.22244
2.05327
2.21386
2.02706
2.22911
2.04109
1.74022
1.55514
1.75269
1.56674
1.6898
1.49041
1.70236
1.50203
1.46716
1.4672
1.47834
1.47838
1.39815
1.39814
1.40932
1.40931
1.5553
1.7406
1.56691
1.75307
1.4904
1.68989
1.50202
1.70244
2.04022
2.20878
2.05403
2.22368
2.02741
2.21465
2.04145
2.22991
2.17599
2.01024
2.19232
2.0254
2.18138
1.99721
2.19826
2.01276
1.71384
1.53057
1.72763
1.54346
1.66314
1.46572
1.67712
1.47871
1.44347
1.44352
1.45592
1.45597
1.3744
1.37439
1.38692
1.38691
1.53074
1.71421
1.54363
1.72801
1.46571
1.66322
1.4787
1.67721
2.01099
2.1772
2.02616
2.19355
1.99756
2.18216
2.01311
2.19905
2.14164
1.97838
2.15935
1.99484
2.14574
1.96441
2.16418
1.98141
1.68489
1.50351
1.69995
1.51763
1.63368
1.43835
1.64905
1.45266
1.41732
1.41737
1.43099
1.43103
1.34804
1.34803
1.36184
1.36183
1.50367
1.68526
1.51779
1.70032
1.43835
1.63377
1.45266
1.64913
1.97911
2.14284
1.99558
2.16056
1.96476
2.14651
1.98176
2.16496
2.10463
1.94398
2.12366
1.96169
2.10707
1.92877
2.12701
1.94718
1.65348
1.47402
1.66976
1.48934
1.60154
1.4084
1.61824
1.42399
1.38879
1.38883
1.40363
1.40367
1.31913
1.31913
1.33419
1.33419
1.47418
1.65384
1.4895
1.67013
1.40839
1.60162
1.42399
1.61832
1.9447
2.1058
1.96242
2.12483
1.92911
2.10782
1.94752
2.12777
2.06506
1.90713
2.08534
1.92605
2.06546
1.89038
2.08685
1.91015
1.61967
1.44218
1.63714
1.45867
1.56678
1.37591
1.58477
1.39276
1.35791
1.35796
1.37391
1.37396
1.28775
1.28774
1.30404
1.30403
1.44234
1.62002
1.45883
1.63749
1.37591
1.56686
1.39275
1.58485
1.90783
2.06619
1.92676
2.08649
1.89071
2.06619
1.91048
2.08759
2.02303
1.86792
2.04452
1.88801
2.02103
1.84931
2.04381
1.8704
1.58351
1.40802
1.60214
1.42565
1.52944
1.34093
1.54871
1.35902
1.32473
1.32477
1.34188
1.34192
1.25391
1.2539
1.27142
1.27141
1.40816
1.58385
1.42581
1.60248
1.34093
1.52952
1.35901
1.54878
1.8686
2.02412
1.8887
2.04564
1.84963
2.02174
1.87073
2.04453
1.97866
1.82641
2.0013
1.84763
1.97387
1.80564
1.998
1.82802
1.54503
1.37154
1.56481
1.39032
1.48957
1.30348
1.51009
1.32279
1.28926
1.28929
1.30754
1.30758
1.21763
1.21762
1.23635
1.23634
1.37169
1.54536
1.39047
1.56514
1.30347
1.48964
1.32278
1.51016
1.82707
1.97971
1.8483
2.00238
1.80594
1.97455
1.82833
1.99869
1.93207
1.78271
1.9558
1.805
1.92409
1.75941
1.9495
1.78305
1.50429
1.33278
1.52518
1.3527
1.44717
1.26355
1.46894
1.28408
1.25149
1.25152
1.27091
1.27095
1.17889
1.17888
1.19883
1.19882
1.33292
1.5046
1.35284
1.5255
1.26353
1.44723
1.28408
1.46901
1.78333
1.93309
1.80564
1.95684
1.75969
1.92474
1.78335
1.95017
1.8834
1.73689
1.90814
1.76023
1.87181
1.71067
1.89845
1.73554
1.46132
1.29174
1.48331
1.31279
1.40228
1.22114
1.42529
1.24291
1.21142
1.21145
1.23198
1.23202
1.1377
1.13769
1.15886
1.15885
1.29187
1.46161
1.31292
1.48361
1.22112
1.40233
1.24289
1.42535
1.73749
1.88436
1.76084
1.90913
1.71094
1.87242
1.73582
1.89908
1.83281
1.68907
1.85848
1.71338
1.81716
1.65954
1.84495
1.68559
1.41615
1.24842
1.43922
1.2706
1.35492
1.17624
1.37915
1.19925
1.16904
1.16907
1.19075
1.19078
1.09403
1.09401
1.11642
1.11641
1.24854
1.41642
1.27072
1.43951
1.17622
1.35496
1.19923
1.3792
1.68963
1.83373
1.71396
1.85942
1.65979
1.81773
1.68585
1.84554
1.7806
1.63944
1.80703
1.66462
1.76032
1.60613
1.78917
1.63329
1.36888
1.20283
1.39298
1.22613
1.30511
1.12884
1.33055
1.15309
1.12433
1.12435
1.1472
1.14723
1.04782
1.0478
1.07148
1.07146
1.20294
1.36913
1.22624
1.39325
1.12881
1.30514
1.15307
1.33058
1.63997
1.78146
1.66516
1.80792
1.60635
1.76086
1.63353
1.78972
1.72725
1.58835
1.75415
1.61419
1.70167
1.55066
1.73136
1.5788
1.31965
1.15499
1.3447
1.17941
1.25293
1.07886
1.27953
1.1044
1.07722
1.07724
1.10129
1.10132
0.99896
0.998944
1.02396
1.02394
1.15509
1.31988
1.17951
1.34494
1.07883
1.25295
1.10438
1.27956
1.58885
1.72806
1.6147
1.75499
1.55086
1.70217
1.57901
1.73187
1.67388
1.53652
1.70059
1.5626
1.64203
1.49362
1.67205
1.52245
1.26866
1.10477
1.29456
1.13041
1.19843
1.02615
1.22617
1.05308
1.02745
1.02747
1.05291
1.05293
0.947184
0.947166
0.973676
0.973659
1.10485
1.26886
1.13049
1.29477
1.02611
1.19843
1.05305
1.22619
1.53697
1.67463
1.56307
1.70136
1.4938
1.64248
1.52264
1.67252
1.62344
1.48525
1.64808
1.51083
1.58376
1.43596
1.61259
1.46495
1.21585
1.05147
1.24271
1.07879
1.14143
0.970067
1.17049
0.99881
0.974124
0.974138
1.00152
1.00153
0.891746
0.891726
0.920204
0.920185
1.05153
1.21602
1.07886
1.2429
0.970023
1.14142
0.99877
1.17049
1.48565
1.62412
1.51126
1.64879
1.43611
1.58416
1.46511
1.61302
1.58644
1.43525
1.60196
1.46037
1.53567
1.37755
1.55735
1.40724
1.15886
0.992665
1.18844
1.02321
1.07949
0.90837
1.11165
0.940359
0.915169
0.915177
0.945717
0.945728
0.830827
0.830804
0.862319
0.862298
0.992708
1.159
1.02326
1.18859
0.908318
1.07946
0.940311
1.11163
1.4356
1.58705
1.46075
1.60261
1.37767
1.53602
1.40737
1.55773
1.6136
1.36382
1.58533
1.40768
1.54463
1.29424
1.52662
1.3446
1.08518
0.923048
1.12581
0.959724
1.00015
0.836074
1.04369
0.874049
0.847751
0.847752
0.882798
0.882802
0.761899
0.761874
0.79764
0.797616
0.923068
1.08527
0.959756
1.12592
0.836013
1.0001
0.873992
1.04365
1.36411
1.61415
1.408
1.58592
1.2943
1.54492
1.34469
1.52694
0.90365
0.751298
0.651579
0.543334
0.831421
0.685915
0.58201
0.48234
0.45435
0.293361
0.291363
0.165282
0.39738
0.244668
0.243134
0.127561
0.224075
0.223992
0.114665
0.114598
0.180117
0.180047
0.0825178
0.0824659
0.293111
0.453959
0.165064
0.290981
0.244451
0.397032
0.127386
0.242814
0.750869
0.903315
0.542852
0.651144
0.685515
0.831093
0.481917
0.581615
1.25501
1.07388
1.09817
0.926143
1.1733
0.99582
1.0211
0.854215
0.742919
0.551202
0.605421
0.424578
0.668188
0.481756
0.539151
0.364989
0.464291
0.464208
0.344248
0.344161
0.398335
0.398256
0.288749
0.288671
0.550967
0.742592
0.424327
0.605053
0.481528
0.667861
0.36476
0.538804
1.07359
1.25488
0.925777
1.09793
0.995509
1.17311
0.853852
1.02084
1.50842
1.32089
1.38996
1.20434
1.41989
1.23354
1.30433
1.12107
0.98483
0.783733
0.869156
0.671343
0.896882
0.698568
0.787154
0.593337
0.69033
0.690262
0.580403
0.580326
0.60749
0.607419
0.5053
0.505223
0.783555
0.984617
0.671133
0.868882
0.698372
0.896628
0.593122
0.786858
1.32079
1.50853
1.20414
1.38994
1.23337
1.41989
1.12082
1.30423
1.70817
1.52083
1.61382
1.42595
1.6167
1.4285
1.52338
1.33562
1.18825
0.985319
1.0911
0.888527
1.09196
0.889575
0.998421
0.797478
0.889727
0.889683
0.793691
0.793635
0.79521
0.795154
0.704405
0.704341
0.985215
1.18817
0.888384
1.09095
0.889431
1.09181
0.797306
0.998215
1.52093
1.70852
1.42594
1.61405
1.42848
1.6169
1.33552
1.52348
1.8699
1.68504
1.79324
1.60701
1.77844
1.59099
1.70148
1.51348
1.35868
1.15698
1.27743
1.07489
1.25782
1.05472
1.17845
0.975447
1.06111
1.06109
0.97901
0.978979
0.959101
0.959064
0.880285
0.880238
1.15695
1.35873
1.07483
1.27741
1.05463
1.25777
0.975331
1.17835
1.68532
1.87047
1.6072
1.7937
1.59112
1.77884
1.51354
1.70178
2.00196
1.82026
1.93933
1.75604
1.91239
1.72665
1.84864
1.662
1.5007
1.30146
1.43313
1.23259
1.3979
1.1956
1.33103
1.12822
1.20618
1.20618
1.13695
1.13694
1.09973
1.09971
1.03239
1.03236
1.3015
1.50087
1.23259
1.43324
1.19557
1.39795
1.12816
1.33103
1.82071
2.00273
1.7564
1.94
1.72693
1.91297
1.66221
1.84914
2.10975
1.93126
2.0587
1.87864
2.02312
1.83941
1.97052
1.7858
1.61827
1.42189
1.56248
1.36467
1.51525
1.31443
1.4594
1.2578
1.32758
1.32761
1.26985
1.26987
1.21882
1.21882
1.16203
1.16202
1.422
1.61854
1.36474
1.5627
1.31445
1.51539
1.2578
1.4595
1.93185
2.11069
1.87916
2.05956
1.83982
2.02387
1.78614
1.97118
2.19723
2.02178
2.15592
1.97901
2.11408
1.93241
2.07101
1.88834
1.71484
1.52137
1.66918
1.47427
1.61267
1.4136
1.56648
1.36653
1.42816
1.42821
1.38051
1.38055
1.31851
1.31853
1.27116
1.27117
1.52153
1.71521
1.47441
1.66949
1.41367
1.61289
1.36657
1.56665
2.02249
2.19832
1.97966
2.15695
1.93292
2.11496
1.8888
2.07182
2.26738
2.09472
2.23441
2.0604
2.18787
2.00817
2.15309
1.97243
1.79329
1.60261
1.75636
1.56432
1.69258
1.49536
1.65486
1.45673
1.51054
1.5106
1.47169
1.47174
1.40091
1.40094
1.36196
1.36198
1.60281
1.79373
1.5645
1.75676
1.49547
1.69286
1.45682
1.65511
2.09553
2.2686
2.06117
2.23557
2.00878
2.18887
1.97299
2.15403
2.32275
2.15262
2.2969
2.12556
2.24682
2.06898
2.21921
2.04047
1.85615
1.6681
1.82673
1.63741
1.75723
1.56185
1.7269
1.53061
1.57714
1.57721
1.5459
1.54597
1.46811
1.46815
1.43652
1.43655
1.66834
1.85665
1.63764
1.8272
1.56199
1.75757
1.53074
1.72721
2.15353
2.32408
2.12642
2.29818
2.06967
2.24792
2.04112
2.22026
2.36538
2.19757
2.34566
2.17674
2.29283
2.11675
2.27146
2.09453
1.90557
1.71997
1.88263
1.69585
1.80857
1.61499
1.78467
1.59021
1.63007
1.63015
1.60543
1.60551
1.52198
1.52203
1.49684
1.49688
1.72025
1.90613
1.69611
1.88316
1.61517
1.80896
1.59037
1.78504
2.19854
2.3668
2.17768
2.34703
2.11751
2.29402
2.09526
2.27261
2.39705
2.23136
2.38263
2.21591
2.32763
2.15321
2.31169
2.13647
1.94343
1.76011
1.92607
1.74164
1.84836
1.65652
1.83004
1.63736
1.67121
1.67131
1.65226
1.65235
1.56425
1.56431
1.54472
1.54477
1.76041
1.94404
1.74194
1.92665
1.65673
1.84879
1.63754
1.83045
2.2324
2.39855
2.21692
2.38409
2.15403
2.3289
2.13726
2.31292
2.41924
2.25551
2.40938
2.24471
2.35265
2.17983
2.34142
2.16783
1.9713
1.79011
1.95875
1.77653
1.8781
1.68796
1.86463
1.67367
1.70218
1.70228
1.68813
1.68823
1.59642
1.59648
1.58177
1.58183
1.79044
1.97195
1.77685
1.95938
1.68818
1.87857
1.67388
1.86508
2.2566
2.42081
2.24577
2.41091
2.18071
2.35399
2.16869
2.34273
2.43328
2.27138