/*--------------------------------*- C++ -*----------------------------------*\
  =========                 |
  \\      /  F ield         | OpenFOAM: The Open Source CFD Toolbox
   \\    /   O peration     | Website:  https://openfoam.org
    \\  /    A nd           | Version:  9
     \\/     M anipulation  |
\*---------------------------------------------------------------------------*/
FoamFile
{
    format      ascii;
    class       volScalarField;
    location    "4.25";
    object      p;
}
// * * * * * * * * * * * * * * * * * * * * * * * * * * * * * * * * * * * * * //

dimensions      [0 2 -2 0 0 0 0];

internalField   nonuniform List<scalar> 
36360
(
20.1219
20.0847
20.1155
20.0889
20.0947
20.105
20.0964
20.1006
20.0993
20.1003
20.0998
20.1004
20.0991
20.0994
20.0986
20.099
20.1003
20.1003
20.1004
20.1004
20.0995
20.0995
20.0992
20.0992
20.1003
20.0993
20.1004
20.0998
20.0994
20.0991
20.099
20.0986
20.0847
20.1219
20.0889
20.1155
20.105
20.0947
20.1006
20.0964
20.1102
20.0951
20.1159
20.0904
20.0756
20.1239
20.0857
20.1145
20.0997
20.0995
20.0994
20.1001
20.1003
20.0986
20.0996
20.0991
20.0996
20.0996
20.1001
20.1001
20.0987
20.0987
20.0992
20.0992
20.0995
20.0997
20.1001
20.0994
20.0986
20.1003
20.0991
20.0995
20.0951
20.1102
20.0904
20.1159
20.1239
20.0756
20.1145
20.0857
20.0989
20.1036
20.1045
20.0996
20.0557
20.1417
20.0655
20.1331
20.1023
20.0989
20.1008
20.0991
20.1035
20.0982
20.1017
20.0983
20.0984
20.0984
20.099
20.099
20.0977
20.0977
20.0981
20.0981
20.0989
20.1023
20.0991
20.1008
20.0982
20.1035
20.0983
20.1017
20.1036
20.0989
20.0996
20.1046
20.1416
20.0557
20.1331
20.0656
20.0881
20.1102
20.0933
20.1072
20.0375
20.156
20.0463
20.1493
20.1064
20.099
20.1043
20.0988
20.1081
20.0984
20.1057
20.0982
20.0974
20.0974
20.0978
20.0978
20.0968
20.0968
20.0972
20.0972
20.099
20.1064
20.0988
20.1043
20.0984
20.1081
20.0982
20.1057
20.1102
20.0881
20.1072
20.0933
20.156
20.0375
20.1493
20.0463
20.0784
20.1147
20.0831
20.1127
20.0217
20.1669
20.0292
20.1618
20.1106
20.0998
20.1085
20.0993
20.1131
20.0993
20.1105
20.0988
20.0967
20.0967
20.097
20.097
20.0963
20.0964
20.0966
20.0965
20.0998
20.1106
20.0993
20.1085
20.0992
20.1129
20.0988
20.1106
20.1147
20.0784
20.1127
20.0831
20.1668
20.0217
20.1618
20.0293
20.0701
20.1177
20.0741
20.1164
20.0084
20.1749
20.0147
20.1712
20.1147
20.101
20.1127
20.1004
20.1175
20.1004
20.1153
20.0998
20.0964
20.0964
20.0965
20.0965
20.0961
20.0961
20.0962
20.0962
20.101
20.1146
20.1003
20.1127
20.1004
20.1175
20.0998
20.1153
20.1176
20.0701
20.1164
20.0741
20.1749
20.0084
20.1712
20.0148
20.063
20.1194
20.0664
20.1187
19.9972
20.1807
20.0025
20.178
20.1182
20.1024
20.1165
20.1017
20.1215
20.1018
20.1196
20.1011
20.0964
20.0964
20.0963
20.0963
20.0962
20.0962
20.0961
20.0961
20.1024
20.1182
20.1017
20.1165
20.1018
20.1215
20.1011
20.1196
20.1194
20.063
20.1186
20.0664
20.1807
19.9972
20.178
20.0026
20.057
20.1203
20.0599
20.1199
19.9879
20.1849
19.9923
20.183
20.1211
20.1038
20.1197
20.1031
20.1247
20.1031
20.1232
20.1025
20.0967
20.0967
20.0965
20.0965
20.0965
20.0965
20.0963
20.0963
20.1038
20.1211
20.1031
20.1197
20.1031
20.1247
20.1024
20.1232
20.1203
20.057
20.1199
20.0599
20.1849
19.9879
20.1829
19.9924
20.0519
20.1207
20.0543
20.1205
19.9801
20.1879
19.9838
20.1865
20.1234
20.1052
20.1223
20.1045
20.1274
20.1044
20.1261
20.1038
20.0971
20.0971
20.0969
20.0969
20.097
20.097
20.0967
20.0967
20.1051
20.1234
20.1045
20.1223
20.1044
20.1274
20.1038
20.1261
20.1207
20.0519
20.1205
20.0544
20.1879
19.9802
20.1865
19.9839
20.0476
20.1207
20.0497
20.1207
19.9737
20.19
19.9767
20.189
20.1253
20.1063
20.1244
20.1058
20.1295
20.1056
20.1285
20.105
20.0976
20.0976
20.0974
20.0974
20.0976
20.0975
20.0973
20.0973
20.1063
20.1253
20.1058
20.1244
20.1056
20.1294
20.105
20.1285
20.1206
20.0476
20.1207
20.0497
20.1899
19.9737
20.189
19.9768
20.0439
20.1204
20.0457
20.1206
19.9683
20.1914
19.9708
20.1908
20.1267
20.1073
20.126
20.1069
20.131
20.1066
20.1303
20.1061
20.0982
20.0982
20.0979
20.0979
20.0981
20.0981
20.0978
20.0978
20.1073
20.1267
20.1068
20.126
20.1066
20.131
20.1061
20.1303
20.1204
20.044
20.1205
20.0457
20.1914
19.9683
20.1907
19.9709
20.0408
20.12
20.0423
20.1202
19.9638
20.1923
19.9659
20.1919
20.1277
20.1082
20.1272
20.1078
20.1322
20.1074
20.1317
20.107
20.0988
20.0988
20.0985
20.0985
20.0986
20.0986
20.0984
20.0984
20.1081
20.1277
20.1078
20.1272
20.1074
20.1322
20.107
20.1316
20.12
20.0409
20.1202
20.0423
20.1922
19.9639
20.1919
19.966
20.0382
20.1195
20.0394
20.1198
19.9601
20.1928
19.9618
20.1926
20.1285
20.1088
20.1281
20.1085
20.133
20.108
20.1326
20.1078
20.0993
20.0993
20.099
20.099
20.0991
20.0991
20.0989
20.0989
20.1088
20.1284
20.1085
20.1281
20.108
20.133
20.1077
20.1326
20.1195
20.0382
20.1198
20.0395
20.1927
19.9601
20.1925
19.9619
20.0359
20.1189
20.037
20.1192
19.957
20.193
19.9584
20.1929
20.129
20.1093
20.1287
20.109
20.1335
20.1085
20.1333
20.1083
20.0997
20.0997
20.0995
20.0995
20.0995
20.0995
20.0993
20.0993
20.1093
20.1289
20.109
20.1287
20.1085
20.1335
20.1083
20.1333
20.1189
20.0359
20.1192
20.037
20.1929
19.957
20.1929
19.9585
20.0339
20.1183
20.0349
20.1187
19.9544
20.1929
19.9556
20.193
20.1293
20.1096
20.1292
20.1094
20.1338
20.1088
20.1337
20.1087
20.1
20.1
20.0998
20.0998
20.0997
20.0997
20.0996
20.0996
20.1096
20.1292
20.1094
20.1291
20.1088
20.1338
20.1086
20.1337
20.1183
20.0339
20.1186
20.0349
20.1929
19.9545
20.1929
19.9557
20.0322
20.1176
20.0331
20.1181
19.9523
20.1926
19.9533
20.1928
20.1294
20.1097
20.1293
20.1097
20.1339
20.1089
20.1339
20.1089
20.1002
20.1002
20.1001
20.1001
20.0998
20.0998
20.0998
20.0998
20.1097
20.1292
20.1097
20.1293
20.1089
20.1338
20.1089
20.1338
20.1178
20.0323
20.118
20.0331
20.1926
19.9524
20.1927
19.9534
20.0308
20.117
20.0315
20.1175
19.9506
20.1921
19.9514
20.1924
20.1292
20.1098
20.1292
20.1097
20.1337
20.1089
20.1338
20.1089
20.1003
20.1002
20.1002
20.1002
20.0999
20.0998
20.0999
20.0999
20.1097
20.129
20.1098
20.1293
20.1089
20.1337
20.1089
20.1338
20.1172
20.0309
20.1173
20.0315
20.1921
19.9507
20.1924
19.9515
20.0296
20.1163
20.0302
20.1169
19.9492
20.1915
19.9499
20.1919
20.1289
20.1097
20.1289
20.1097
20.1334
20.1087
20.1335
20.1088
20.1002
20.1002
20.1002
20.1003
20.0998
20.0997
20.0998
20.0998
20.1096
20.1287
20.1097
20.1291
20.1087
20.1333
20.1088
20.1335
20.1165
20.0297
20.1167
20.0302
20.1915
19.9493
20.1918
19.9499
20.0286
20.1157
20.0291
20.1162
19.9482
20.1908
19.9487
20.1912
20.1285
20.1095
20.1285
20.1095
20.1329
20.1084
20.1331
20.1086
20.1001
20.1001
20.1002
20.1002
20.0996
20.0995
20.0997
20.0997
20.1094
20.1282
20.1096
20.1287
20.1084
20.1328
20.1086
20.1331
20.1159
20.0287
20.116
20.0291
20.1908
19.9483
20.1912
19.9488
20.0277
20.1151
20.0282
20.1156
19.9474
20.19
19.9478
20.1904
20.1279
20.1092
20.128
20.1093
20.1323
20.108
20.1326
20.1082
20.0999
20.0999
20.1
20.1
20.0993
20.0992
20.0994
20.0994
20.1091
20.1277
20.1093
20.1282
20.108
20.1322
20.1082
20.1326
20.1153
20.0278
20.1154
20.0281
20.19
19.9475
20.1904
19.9479
20.0271
20.1145
20.0274
20.115
19.9469
20.189
19.9472
20.1895
20.1273
20.1088
20.1274
20.109
20.1315
20.1076
20.1319
20.1078
20.0997
20.0997
20.0998
20.0998
20.0989
20.0989
20.0991
20.0991
20.1088
20.1271
20.109
20.1276
20.1075
20.1315
20.1078
20.1319
20.1147
20.0272
20.1148
20.0274
20.189
19.947
20.1895
19.9472
20.0266
20.114
20.0269
20.1145
19.9467
20.188
19.9468
20.1885
20.1266
20.1084
20.1268
20.1086
20.1307
20.107
20.1311
20.1073
20.0994
20.0994
20.0995
20.0995
20.0984
20.0984
20.0987
20.0987
20.1083
20.1264
20.1086
20.127
20.107
20.1307
20.1073
20.1311
20.1142
20.0267
20.1143
20.0268
20.188
19.9467
20.1885
19.9468
20.0263
20.1135
20.0264
20.1139
19.9466
20.1869
19.9466
20.1875
20.1259
20.1079
20.1261
20.1081
20.1298
20.1064
20.1303
20.1067
20.0991
20.0991
20.0992
20.0992
20.0979
20.0979
20.0982
20.0982
20.1079
20.1258
20.1081
20.1263
20.1064
20.1298
20.1067
20.1303
20.1136
20.0263
20.1138
20.0264
20.1869
19.9467
20.1874
19.9467
20.0261
20.1131
20.0262
20.1134
19.9469
20.1857
19.9467
20.1863
20.1252
20.1074
20.1254
20.1077
20.1289
20.1057
20.1293
20.1061
20.0988
20.0988
20.0989
20.0989
20.0974
20.0974
20.0977
20.0977
20.1074
20.1251
20.1077
20.1255
20.1057
20.1288
20.106
20.1293
20.1131
20.0262
20.1133
20.0262
20.1857
19.9469
20.1863
19.9468
20.0262
20.1127
20.0261
20.1129
19.9473
20.1845
19.9471
20.1852
20.1244
20.107
20.1247
20.1072
20.1279
20.1051
20.1284
20.1054
20.0985
20.0985
20.0986
20.0986
20.0969
20.0969
20.0972
20.0972
20.107
20.1243
20.1072
20.1248
20.105
20.1278
20.1054
20.1284
20.1127
20.0262
20.1129
20.0262
20.1845
19.9474
20.1851
19.9471
20.0264
20.1123
20.0263
20.1125
19.9481
20.1833
19.9477
20.1839
20.1236
20.1065
20.124
20.1068
20.1268
20.1044
20.1274
20.1047
20.0982
20.0982
20.0983
20.0983
20.0965
20.0964
20.0967
20.0967
20.1065
20.1236
20.1067
20.124
20.1044
20.1268
20.1047
20.1273
20.1123
20.0265
20.1125
20.0263
20.1833
19.9482
20.1839
19.9477
20.0269
20.112
20.0266
20.1121
19.9491
20.182
19.9486
20.1826
20.1229
20.1062
20.1233
20.1063
20.1258
20.1038
20.1263
20.1041
20.0981
20.098
20.0981
20.0981
20.096
20.096
20.0962
20.0962
20.1062
20.1229
20.1063
20.1233
20.1038
20.1258
20.1041
20.1263
20.112
20.0269
20.1121
20.0267
20.182
19.9492
20.1826
19.9486
20.0276
20.1117
20.0272
20.1119
19.9504
20.1807
19.9497
20.1813
20.1223
20.1059
20.1226
20.106
20.1248
20.1032
20.1253
20.1035
20.098
20.098
20.098
20.098
20.0957
20.0957
20.0959
20.0959
20.1059
20.1223
20.106
20.1226
20.1032
20.1248
20.1035
20.1253
20.1117
20.0276
20.1118
20.0272
20.1806
19.9505
20.1813
19.9498
20.0285
20.1115
20.028
20.1116
19.9521
20.1793
19.9512
20.18
20.1217
20.1056
20.122
20.1057
20.1238
20.1028
20.1243
20.103
20.098
20.098
20.098
20.098
20.0955
20.0955
20.0956
20.0956
20.1056
20.1217
20.1057
20.122
20.1028
20.1238
20.103
20.1243
20.1115
20.0285
20.1116
20.028
20.1793
19.9522
20.18
19.9513
20.0297
20.1114
20.0291
20.1115
19.9541
20.178
19.9531
20.1786
20.1211
20.1056
20.1214
20.1056
20.1229
20.1024
20.1233
20.1026
20.0982
20.0982
20.0981
20.0981
20.0955
20.0955
20.0955
20.0955
20.1055
20.1211
20.1056
20.1214
20.1024
20.1229
20.1026
20.1233
20.1114
20.0297
20.1115
20.0291
20.1779
19.9542
20.1786
19.9531
20.0312
20.1114
20.0304
20.1114
19.9565
20.1766
19.9553
20.1773
20.1207
20.1056
20.1209
20.1056
20.122
20.1022
20.1225
20.1023
20.0986
20.0986
20.0984
20.0984
20.0956
20.0956
20.0955
20.0955
20.1056
20.1207
20.1055
20.1209
20.1022
20.122
20.1023
20.1224
20.1114
20.0312
20.1114
20.0304
20.1766
19.9566
20.1773
19.9553
20.0329
20.1114
20.032
20.1114
19.9593
20.1752
19.9579
20.1759
20.1203
20.1058
20.1205
20.1057
20.1213
20.1022
20.1216
20.1022
20.0991
20.0991
20.0989
20.0989
20.0959
20.0959
20.0957
20.0957
20.1058
20.1203
20.1057
20.1204
20.1022
20.1212
20.1022
20.1216
20.1114
20.0329
20.1114
20.032
20.1751
19.9594
20.1759
19.9579
20.0349
20.1114
20.0339
20.1114
19.9626
20.1737
19.9609
20.1744
20.12
20.1061
20.1201
20.1059
20.1206
20.1024
20.1209
20.1022
20.0999
20.0999
20.0995
20.0995
20.0964
20.0964
20.0961
20.0961
20.1061
20.1199
20.1059
20.1201
20.1024
20.1206
20.1022
20.1209
20.1114
20.0349
20.1114
20.0339
20.1737
19.9626
20.1744
19.9609
20.0373
20.1115
20.0361
20.1114
19.9663
20.1721
19.9644
20.1729
20.1198
20.1067
20.1198
20.1064
20.1201
20.1027
20.1203
20.1025
20.1007
20.1007
20.1003
20.1003
20.0971
20.0971
20.0967
20.0967
20.1066
20.1198
20.1064
20.1198
20.1027
20.1201
20.1025
20.1203
20.1115
20.0373
20.1114
20.0361
20.1721
19.9663
20.1729
19.9644
20.0399
20.1115
20.0386
20.1115
19.9705
20.1704
19.9683
20.1713
20.1197
20.1073
20.1197
20.107
20.1197
20.1033
20.1199
20.103
20.1018
20.1018
20.1013
20.1013
20.0981
20.0981
20.0976
20.0976
20.1073
20.1197
20.107
20.1197
20.1033
20.1197
20.103
20.1199
20.1115
20.0399
20.1115
20.0386
20.1704
19.9706
20.1712
19.9684
20.0428
20.1115
20.0413
20.1115
19.9754
20.1684
19.9729
20.1694
20.1197
20.1082
20.1197
20.1078
20.1195
20.1042
20.1196
20.1037
20.103
20.103
20.1024
20.1024
20.0992
20.0992
20.0986
20.0986
20.1082
20.1197
20.1078
20.1197
20.1042
20.1195
20.1037
20.1196
20.1115
20.0429
20.1115
20.0414
20.1684
19.9755
20.1694
19.9729
20.046
20.1115
20.0444
20.1115
19.9811
20.166
19.9781
20.1673
20.1199
20.1092
20.1198
20.1087
20.1195
20.1052
20.1195
20.1047
20.1043
20.1043
20.1036
20.1036
20.1005
20.1005
20.0998
20.0998
20.1092
20.1199
20.1087
20.1198
20.1052
20.1195
20.1047
20.1195
20.1115
20.046
20.1115
20.0444
20.166
19.9811
20.1673
19.9782
20.0484
20.1124
20.0474
20.1117
19.9879
20.1628
19.9843
20.1645
20.1202
20.1104
20.12
20.1098
20.1196
20.1065
20.1195
20.1058
20.1058
20.1058
20.105
20.105
20.102
20.102
20.1012
20.1012
20.1104
20.1202
20.1098
20.12
20.1065
20.1196
20.1058
20.1195
20.1124
20.0484
20.1117
20.0475
20.1628
19.9879
20.1645
19.9844
20.0505
20.1133
20.0483
20.1142
19.9958
20.1583
19.9917
20.1608
20.1211
20.1119
20.1206
20.1111
20.1202
20.108
20.1198
20.1072
20.1074
20.1074
20.1066
20.1066
20.1037
20.1037
20.1028
20.1028
20.1119
20.1211
20.1111
20.1206
20.108
20.1202
20.1072
20.1198
20.1133
20.0505
20.1142
20.0483
20.1583
19.9958
20.1607
19.9918
20.1456
20.0662
20.1282
20.0779
20.1369
20.0713
20.1223
20.0812
20.0945
20.0999
20.0974
20.1001
20.0965
20.0997
20.098
20.0995
20.1001
20.1001
20.1001
20.1001
20.0998
20.0998
20.0994
20.0994
20.0999
20.0945
20.1001
20.0974
20.0997
20.0965
20.0995
20.098
20.0663
20.1455
20.0779
20.1282
20.0713
20.1369
20.0812
20.1223
20.14
20.0758
20.1419
20.0721
20.1316
20.079
20.1341
20.0758
20.0917
20.0985
20.093
20.0993
20.0951
20.099
20.0958
20.0996
20.0996
20.0996
20.1
20.1
20.0995
20.0995
20.0998
20.0998
20.0985
20.0917
20.0993
20.093
20.099
20.0951
20.0996
20.0958
20.0759
20.14
20.0721
20.1419
20.079
20.1316
20.0758
20.134
20.1371
20.08
20.1386
20.0783
20.1265
20.0834
20.1291
20.0815
20.0916
20.0972
20.0913
20.0977
20.0959
20.0982
20.0952
20.0986
20.0985
20.0985
20.0991
20.0991
20.0985
20.0985
20.099
20.099
20.0972
20.0916
20.0977
20.0913
20.0982
20.0959
20.0986
20.0952
20.08
20.1371
20.0783
20.1385
20.0834
20.1265
20.0815
20.1291
20.1346
20.0815
20.1358
20.081
20.1214
20.0859
20.1239
20.0849
20.0929
20.0968
20.0922
20.0969
20.0981
20.0982
20.0969
20.0981
20.0974
20.0974
20.0979
20.0979
20.0974
20.0974
20.0979
20.0979
20.0968
20.0929
20.0969
20.0922
20.0982
20.0981
20.0981
20.0969
20.0815
20.1345
20.081
20.1358
20.0859
20.1214
20.0849
20.1239
20.1323
20.0815
20.1334
20.0816
20.1167
20.0868
20.119
20.0865
20.0946
20.0971
20.0937
20.0969
20.101
20.0987
20.0996
20.0984
20.0966
20.0966
20.097
20.097
20.0968
20.0968
20.0971
20.0971
20.0971
20.0946
20.0969
20.0937
20.0987
20.101
20.0984
20.0996
20.0815
20.1323
20.0816
20.1334
20.0868
20.1167
20.0865
20.119
20.1303
20.0808
20.1313
20.0812
20.1126
20.0869
20.1146
20.0869
20.096
20.0979
20.0953
20.0975
20.1035
20.0997
20.1023
20.0992
20.0964
20.0964
20.0964
20.0964
20.0965
20.0965
20.0966
20.0966
20.0979
20.096
20.0975
20.0953
20.0997
20.1035
20.0992
20.1023
20.0808
20.1303
20.0812
20.1312
20.0869
20.1126
20.0869
20.1146
20.1285
20.0796
20.1294
20.0802
20.109
20.0864
20.1107
20.0867
20.0972
20.0988
20.0966
20.0983
20.1055
20.1009
20.1046
20.1003
20.0965
20.0965
20.0964
20.0964
20.0966
20.0966
20.0965
20.0965
20.0988
20.0972
20.0983
20.0966
20.1009
20.1055
20.1003
20.1046
20.0796
20.1285
20.0802
20.1294
20.0864
20.109
20.0867
20.1107
20.1269
20.0783
20.1277
20.0789
20.1059
20.0855
20.1074
20.086
20.098
20.0998
20.0976
20.0993
20.1072
20.1021
20.1064
20.1015
20.0969
20.0969
20.0967
20.0967
20.097
20.097
20.0968
20.0968
20.0998
20.098
20.0993
20.0976
20.1021
20.1071
20.1015
20.1064
20.0783
20.1269
20.079
20.1277
20.0855
20.1059
20.086
20.1074
20.1255
20.0769
20.1262
20.0776
20.1032
20.0845
20.1045
20.085
20.0986
20.1007
20.0983
20.1002
20.1084
20.1032
20.1078
20.1027
20.0975
20.0975
20.0972
20.0972
20.0976
20.0976
20.0973
20.0973
20.1007
20.0986
20.1002
20.0983
20.1032
20.1084
20.1027
20.1078
20.0769
20.1254
20.0776
20.1262
20.0845
20.1032
20.085
20.1045
20.1241
20.0755
20.1248
20.0762
20.1008
20.0834
20.102
20.084
20.0989
20.1016
20.0988
20.1011
20.1092
20.1043
20.1088
20.1038
20.0982
20.0981
20.0978
20.0978
20.0983
20.0983
20.0979
20.0979
20.1015
20.0989
20.1011
20.0988
20.1043
20.1092
20.1038
20.1088
20.0755
20.1241
20.0762
20.1248
20.0834
20.1008
20.084
20.102
20.1229
20.0743
20.1235
20.0749
20.0988
20.0823
20.0998
20.0829
20.099
20.1023
20.099
20.1019
20.1098
20.1052
20.1096
20.1048
20.0988
20.0988
20.0985
20.0985
20.0989
20.0989
20.0986
20.0986
20.1023
20.099
20.1019
20.099
20.1052
20.1098
20.1048
20.1096
20.0743
20.1228
20.0749
20.1235
20.0823
20.0987
20.0829
20.0997
20.1217
20.0732
20.1223
20.0737
20.0969
20.0813
20.0978
20.0818
20.0991
20.103
20.0991
20.1027
20.1102
20.106
20.11
20.1056
20.0994
20.0994
20.0991
20.0991
20.0995
20.0995
20.0992
20.0992
20.103
20.099
20.1026
20.0991
20.106
20.1102
20.1056
20.11
20.0732
20.1217
20.0737
20.1223
20.0813
20.0969
20.0818
20.0978
20.1206
20.0721
20.1212
20.0726
20.0953
20.0803
20.0961
20.0808
20.0989
20.1035
20.099
20.1033
20.1103
20.1067
20.1103
20.1064
20.1
20.1
20.0997
20.0997
20.1001
20.1
20.0998
20.0998
20.1035
20.0989
20.1033
20.099
20.1066
20.1103
20.1064
20.1103
20.0721
20.1206
20.0726
20.1211
20.0803
20.0953
20.0808
20.0961
20.1196
20.0711
20.1201
20.0716
20.0938
20.0793
20.0945
20.0798
20.0988
20.104
20.0989
20.1038
20.1103
20.1071
20.1104
20.1069
20.1005
20.1005
20.1002
20.1002
20.1005
20.1005
20.1003
20.1003
20.104
20.0988
20.1038
20.0989
20.1071
20.1103
20.1069
20.1104
20.0712
20.1196
20.0716
20.1201
20.0793
20.0938
20.0798
20.0945
20.1187
20.0703
20.1192
20.0707
20.0925
20.0785
20.0932
20.0789
20.0986
20.1043
20.0987
20.1041
20.1102
20.1075
20.1103
20.1073
20.1008
20.1008
20.1007
20.1007
20.1008
20.1008
20.1007
20.1007
20.1042
20.0986
20.1041
20.0987
20.1075
20.1102
20.1073
20.1103
20.0703
20.1187
20.0707
20.1191
20.0785
20.0925
20.0789
20.0932
20.1178
20.0695
20.1182
20.0699
20.0914
20.0777
20.0919
20.0781
20.0984
20.1044
20.0985
20.1044
20.1101
20.1077
20.1102
20.1076
20.1011
20.1011
20.101
20.101
20.1011
20.1011
20.101
20.101
20.1044
20.0984
20.1044
20.0985
20.1077
20.1101
20.1076
20.1102
20.0695
20.1178
20.0699
20.1182
20.0777
20.0914
20.0781
20.0919
20.117
20.0688
20.1174
20.0691
20.0903
20.0769
20.0908
20.0773
20.0981
20.1045
20.0982
20.1045
20.1101
20.1078
20.1101
20.1077
20.1013
20.1013
20.1012
20.1012
20.1012
20.1012
20.1011
20.1011
20.1045
20.0981
20.1045
20.0982
20.1077
20.1101
20.1077
20.1101
20.0688
20.1169
20.0691
20.1173
20.0769
20.0903
20.0773
20.0908
20.1162
20.0681
20.1166
20.0684
20.0894
20.0762
20.0898
20.0766
20.0979
20.1045
20.098
20.1045
20.11
20.1077
20.11
20.1078
20.1014
20.1013
20.1013
20.1013
20.1012
20.1012
20.1012
20.1012
20.1045
20.0979
20.1045
20.098
20.1077
20.1099
20.1078
20.11
20.0681
20.1161
20.0684
20.1165
20.0763
20.0894
20.0766
20.0898
20.1155
20.0676
20.1158
20.0678
20.0885
20.0757
20.0889
20.076
20.0977
20.1045
20.0978
20.1045
20.1098
20.1076
20.1099
20.1077
20.1014
20.1014
20.1014
20.1014
20.1012
20.1012
20.1012
20.1012
20.1045
20.0977
20.1045
20.0978
20.1076
20.1097
20.1077
20.1099
20.0676
20.1154
20.0679
20.1158
20.0757
20.0885
20.076
20.0889
20.1148
20.0671
20.1151
20.0674
20.0878
20.0751
20.0882
20.0754
20.0974
20.1044
20.0976
20.1044
20.1095
20.1075
20.1096
20.1075
20.1014
20.1014
20.1014
20.1014
20.1011
20.1011
20.1011
20.1011
20.1044
20.0974
20.1044
20.0976
20.1074
20.1095
20.1075
20.1096
20.0672
20.1148
20.0674
20.1151
20.0752
20.0878
20.0754
20.0881
20.1143
20.0668
20.1145
20.067
20.0872
20.0747
20.0875
20.0749
20.0972
20.1042
20.0973
20.1043
20.1093
20.1072
20.1094
20.1073
20.1013
20.1013
20.1013
20.1013
20.1009
20.1009
20.101
20.101
20.1042
20.0972
20.1043
20.0973
20.1072
20.1093
20.1073
20.1094
20.0668
20.1142
20.067
20.1145
20.0747
20.0872
20.0749
20.0875
20.1138
20.0665
20.114
20.0667
20.0867
20.0744
20.0869
20.0745
20.097
20.1041
20.097
20.1042
20.109
20.107
20.1092
20.1071
20.1012
20.1012
20.1013
20.1013
20.1008
20.1008
20.1008
20.1008
20.1041
20.097
20.1042
20.0971
20.1069
20.109
20.1071
20.1092
20.0666
20.1137
20.0667
20.114
20.0744
20.0867
20.0745
20.0869
20.1134
20.0664
20.1136
20.0665
20.0863
20.0741
20.0865
20.0742
20.0968
20.104
20.0969
20.104
20.1088
20.1067
20.1089
20.1068
20.1011
20.1011
20.1012
20.1012
20.1006
20.1006
20.1007
20.1007
20.1039
20.0968
20.104
20.0969
20.1067
20.1088
20.1068
20.1089
20.0664
20.1134
20.0665
20.1135
20.0741
20.0863
20.0742
20.0864
20.1131
20.0663
20.1132
20.0664
20.086
20.0739
20.0861
20.074
20.0967
20.1038
20.0967
20.1039
20.1085
20.1064
20.1086
20.1065
20.1011
20.1011
20.1011
20.1011
20.1004
20.1004
20.1005
20.1005
20.1038
20.0967
20.1039
20.0967
20.1064
20.1085
20.1065
20.1086
20.0664
20.1131
20.0664
20.1132
20.0739
20.086
20.074
20.0861
20.1129
20.0664
20.113
20.0664
20.0859
20.0738
20.0859
20.0739
20.0966
20.1038
20.0967
20.1038
20.1083
20.1062
20.1084
20.1063
20.1011
20.1011
20.1011
20.1011
20.1003
20.1003
20.1003
20.1003
20.1038
20.0966
20.1038
20.0967
20.1062
20.1082
20.1063
20.1084
20.0664
20.1129
20.0664
20.113
20.0739
20.0859
20.0739
20.0859
20.1128
20.0666
20.1129
20.0665
20.0859
20.0739
20.0859
20.0738
20.0967
20.1037
20.0966
20.1037
20.1081
20.106
20.1081
20.1061
20.1012
20.1012
20.1011
20.1011
20.1002
20.1002
20.1002
20.1002
20.1037
20.0967
20.1037
20.0967
20.106
20.108
20.1061
20.1081
20.0666
20.1128
20.0665
20.1128
20.0739
20.0859
20.0739
20.0858
20.1129
20.0669
20.1128
20.0667
20.086
20.074
20.0859
20.0739
20.0968
20.1038
20.0967
20.1037
20.1079
20.1058
20.108
20.1059
20.1013
20.1013
20.1012
20.1012
20.1002
20.1002
20.1002
20.1002
20.1038
20.0968
20.1037
20.0967
20.1058
20.1079
20.1059
20.108
20.0669
20.1128
20.0667
20.1128
20.074
20.086
20.0739
20.0859
20.113
20.0676
20.1129
20.0672
20.0863
20.0742
20.0862
20.0741
20.0969
20.1039
20.0968
20.1038
20.1078
20.1058
20.1078
20.1058
20.1015
20.1015
20.1014
20.1014
20.1004
20.1004
20.1003
20.1003
20.1039
20.0969
20.1038
20.0969
20.1058
20.1078
20.1058
20.1078
20.0676
20.113
20.0672
20.1129
20.0742
20.0863
20.0741
20.0862
20.1133
20.0683
20.1131
20.0679
20.0868
20.0745
20.0866
20.0744
20.0972
20.1041
20.0971
20.104
20.1077
20.1058
20.1078
20.1058
20.1019
20.1019
20.1017
20.1017
20.1006
20.1006
20.1005
20.1005
20.1041
20.0972
20.104
20.0971
20.1058
20.1077
20.1058
20.1078
20.0683
20.1132
20.0679
20.1131
20.0745
20.0868
20.0744
20.0865
20.1136
20.0693
20.1134
20.0688
20.0875
20.0748
20.0871
20.0747
20.0975
20.1045
20.0974
20.1043
20.1078
20.106
20.1078
20.1059
20.1024
20.1024
20.1021
20.1021
20.101
20.101
20.1008
20.1008
20.1045
20.0975
20.1043
20.0974
20.106
20.1078
20.1059
20.1078
20.0694
20.1136
20.0688
20.1134
20.0748
20.0875
20.0747
20.0871
20.1141
20.0701
20.1138
20.0699
20.0883
20.0754
20.0879
20.075
20.098
20.1049
20.0977
20.1047
20.1079
20.1062
20.1078
20.1061
20.103
20.103
20.1027
20.1027
20.1015
20.1015
20.1012
20.1012
20.1049
20.098
20.1047
20.0977
20.1062
20.1079
20.1061
20.1078
20.0701
20.114
20.0699
20.1138
20.0755
20.0883
20.075
20.0878
20.1147
20.0706
20.1144
20.0703
20.0892
20.0764
20.0887
20.0759
20.0985
20.1055
20.0982
20.1052
20.1081
20.1066
20.108
20.1064
20.1037
20.1037
20.1034
20.1034
20.1022
20.1022
20.1018
20.1018
20.1055
20.0985
20.1052
20.0982
20.1066
20.1081
20.1064
20.108
20.0706
20.1146
20.0703
20.1143
20.0764
20.0892
20.0759
20.0887
20.1152
20.0714
20.115
20.071
20.0903
20.0773
20.0897
20.0768
20.0991
20.1062
20.0988
20.1058
20.1084
20.1072
20.1082
20.1069
20.1046
20.1046
20.1042
20.1042
20.103
20.103
20.1026
20.1026
20.1062
20.0991
20.1058
20.0988
20.1072
20.1083
20.1069
20.1082
20.0714
20.1152
20.071
20.1149
20.0773
20.0903
20.0769
20.0897
20.1158
20.0723
20.1155
20.0718
20.0915
20.0783
20.0909
20.0778
20.0999
20.107
20.0995
20.1066
20.1087
20.1079
20.1085
20.1075
20.1056
20.1056
20.1051
20.1051
20.1039
20.1039
20.1034
20.1034
20.107
20.0999
20.1066
20.0995
20.1078
20.1087
20.1075
20.1085
20.0723
20.1158
20.0719
20.1155
20.0783
20.0915
20.0778
20.0909
20.1162
20.0734
20.116
20.0729
20.0927
20.0793
20.0921
20.0788
20.1007
20.1079
20.1003
20.1074
20.1092
20.1087
20.1089
20.1082
20.1067
20.1067
20.1061
20.1061
20.105
20.105
20.1045
20.1045
20.1079
20.1007
20.1074
20.1003
20.1086
20.1092
20.1082
20.1089
20.0735
20.1161
20.0729
20.116
20.0793
20.0927
20.0788
20.0921
20.1161
20.0749
20.1162
20.0741
20.0939
20.0805
20.0933
20.0799
20.1017
20.1089
20.1012
20.1084
20.1098
20.1096
20.1095
20.1091
20.1079
20.1079
20.1073
20.1073
20.1062
20.1062
20.1056
20.1056
20.1089
20.1017
20.1084
20.1012
20.1096
20.1098
20.1091
20.1095
20.0749
20.1161
20.0741
20.1162
20.0805
20.0938
20.0799
20.0933
20.1153
20.077
20.1159
20.0758
20.0946
20.0821
20.0943
20.0812
20.1028
20.11
20.1022
20.1095
20.1105
20.1106
20.1101
20.1101
20.1091
20.1091
20.1085
20.1085
20.1075
20.1075
20.1068
20.1068
20.11
20.1028
20.1095
20.1022
20.1106
20.1105
20.1101
20.1101
20.077
20.1153
20.0758
20.1158
20.0821
20.0946
20.0812
20.0943
20.1112
20.082
20.1141
20.0788
20.0933
20.0855
20.0945
20.0833
20.104
20.1113
20.1034
20.1106
20.1112
20.1118
20.1108
20.1112
20.1104
20.1104
20.1098
20.1098
20.1088
20.1088
20.1081
20.1081
20.1113
20.104
20.1106
20.1034
20.1118
20.1112
20.1112
20.1108
20.082
20.1111
20.0788
20.114
20.0855
20.0933
20.0833
20.0945
20.1198
20.0742
20.1073
20.0862
20.0999
20.0807
20.091
20.0887
20.1053
20.113
20.105
20.1121
20.1124
20.1134
20.112
20.1126
20.1117
20.1117
20.1111
20.1111
20.1102
20.1102
20.1095
20.1095
20.113
20.1053
20.1121
20.105
20.1134
20.1124
20.1125
20.112
20.0742
20.1198
20.0862
20.1073
20.0808
20.0999
20.0887
20.091
20.1571
20.0596
20.1363
20.0725
20.152
20.0622
20.1326
20.0747
20.0899
20.0992
20.0948
20.0999
20.092
20.0995
20.0959
20.0999
20.1001
20.1001
20.1001
20.1001
20.1001
20.1001
20.1
20.1
20.0992
20.0899
20.0999
20.0948
20.0995
20.092
20.0999
20.096
20.0596
20.1571
20.0725
20.1362
20.0622
20.1519
20.0747
20.1326
20.1477
20.0764
20.1507
20.0699
20.1448
20.0754
20.1471
20.0703
20.0861
20.096
20.0879
20.0978
20.0885
20.0973
20.0901
20.0987
20.0994
20.0994
20.0999
20.0999
20.0995
20.0995
20.0999
20.0999
20.096
20.0861
20.0978
20.0879
20.0973
20.0885
20.0987
20.0901
20.0764
20.1477
20.0699
20.1506
20.0754
20.1448
20.0703
20.1471
20.1445
20.0834
20.1459
20.0806
20.1422
20.0808
20.1434
20.0787
20.0854
20.0937
20.0854
20.0947
20.0879
20.0954
20.0879
20.0962
20.0979
20.0979
20.0987
20.0987
20.0983
20.0983
20.099
20.099
20.0937
20.0854
20.0947
20.0855
20.0954
20.0879
20.0962
20.0879
20.0834
20.1445
20.0806
20.1459
20.0808
20.1421
20.0787
20.1434
20.1425
20.0865
20.1434
20.0853
20.1402
20.083
20.1411
20.0822
20.0862
20.0927
20.0857
20.0931
20.0887
20.0947
20.0883
20.0949
20.0962
20.0962
20.097
20.097
20.097
20.097
20.0976
20.0976
20.0927
20.0862
20.0931
20.0857
20.0947
20.0887
20.0949
20.0883
20.0865
20.1424
20.0853
20.1434
20.083
20.1401
20.0822
20.1411
20.141
20.0876
20.1417
20.0872
20.1386
20.0835
20.1394
20.0834
20.087
20.0924
20.0866
20.0925
20.0898
20.0947
20.0893
20.0946
20.0951
20.0951
20.0956
20.0956
20.0961
20.0961
20.0965
20.0965
20.0924
20.087
20.0925
20.0866
20.0947
20.0898
20.0946
20.0893
20.0876
20.141
20.0872
20.1417
20.0835
20.1386
20.0834
20.1393
20.1398
20.0877
20.1404
20.0877
20.1373
20.083
20.138
20.0833
20.0877
20.0925
20.0874
20.0924
20.0906
20.0951
20.0902
20.0949
20.0946
20.0946
20.0948
20.0948
20.0957
20.0957
20.0958
20.0958
20.0925
20.0877
20.0924
20.0874
20.0951
20.0906
20.0949
20.0902
20.0877
20.1398
20.0877
20.1403
20.083
20.1373
20.0833
20.1379
20.1388
20.0873
20.1393
20.0875
20.1362
20.0821
20.1367
20.0826
20.088
20.0928
20.0879
20.0926
20.0912
20.0958
20.0909
20.0954
20.0945
20.0945
20.0945
20.0945
20.0957
20.0957
20.0956
20.0956
20.0928
20.0881
20.0926
20.0879
20.0958
20.0912
20.0954
20.0909
20.0873
20.1387
20.0875
20.1392
20.0822
20.1361
20.0826
20.1367
20.1378
20.0866
20.1383
20.087
20.1351
20.0811
20.1356
20.0816
20.0882
20.0933
20.0882
20.0931
20.0915
20.0965
20.0914
20.0961
20.0948
20.0948
20.0946
20.0946
20.0961
20.0961
20.0959
20.0959
20.0933
20.0882
20.0931
20.0882
20.0965
20.0915
20.0961
20.0914
20.0866
20.1378
20.087
20.1382
20.0811
20.135
20.0816
20.1356
20.1369
20.0857
20.1373
20.0862
20.134
20.0799
20.1345
20.0805
20.0883
20.0938
20.0883
20.0935
20.0917
20.0972
20.0916
20.0968
20.0952
20.0952
20.095
20.095
20.0966
20.0966
20.0963
20.0963
20.0938
20.0883
20.0935
20.0883
20.0972
20.0917
20.0968
20.0916
20.0857
20.1368
20.0862
20.1373
20.0799
20.134
20.0805
20.1345
20.136
20.0849
20.1364
20.0853
20.1331
20.0788
20.1335
20.0793
20.0882
20.0942
20.0882
20.094
20.0917
20.0978
20.0917
20.0975
20.0958
20.0958
20.0955
20.0955
20.0972
20.0972
20.0969
20.0969
20.0942
20.0882
20.094
20.0883
20.0978
20.0917
20.0975
20.0917
20.0849
20.136
20.0853
20.1364
20.0788
20.133
20.0793
20.1335
20.1352
20.084
20.1356
20.0844
20.1321
20.0777
20.1326
20.0782
20.0881
20.0946
20.0881
20.0944
20.0917
20.0984
20.0917
20.0981
20.0964
20.0964
20.0961
20.0961
20.0979
20.0979
20.0976
20.0976
20.0946
20.0881
20.0944
20.0881
20.0984
20.0917
20.0981
20.0917
20.084
20.1351
20.0844
20.1355
20.0777
20.1321
20.0782
20.1325
20.1343
20.0831
20.1347
20.0836
20.1312
20.0766
20.1317
20.0771
20.0879
20.0949
20.088
20.0947
20.0915
20.0988
20.0916
20.0986
20.097
20.097
20.0967
20.0967
20.0985
20.0985
20.0982
20.0982
20.0949
20.0879
20.0947
20.088
20.0988
20.0915
20.0986
20.0916
20.0831
20.1343
20.0836
20.1347
20.0766
20.1312
20.0771
20.1316
20.1336
20.0823
20.1339
20.0827
20.1304
20.0757
20.1308
20.0761
20.0877
20.0952
20.0878
20.095
20.0913
20.0992
20.0914
20.099
20.0975
20.0975
20.0972
20.0972
20.099
20.099
20.0988
20.0988
20.0952
20.0877
20.095
20.0878
20.0992
20.0913
20.099
20.0914
20.0823
20.1335
20.0827
20.1339
20.0757
20.1303
20.0761
20.1307
20.1328
20.0816
20.1332
20.082
20.1295
20.0748
20.1299
20.0752
20.0874
20.0954
20.0876
20.0953
20.0911
20.0995
20.0912
20.0993
20.0979
20.0979
20.0977
20.0977
20.0995
20.0995
20.0993
20.0993
20.0954
20.0874
20.0953
20.0876
20.0995
20.0911
20.0993
20.0912
20.0816
20.1328
20.082
20.1331
20.0748
20.1295
20.0752
20.1299
20.1321
20.0809
20.1324
20.0812
20.1287
20.074
20.1291
20.0744
20.0872
20.0955
20.0873
20.0954
20.0909
20.0997
20.091
20.0996
20.0983
20.0983
20.0981
20.0981
20.0999
20.0999
20.0997
20.0997
20.0955
20.0872
20.0954
20.0873
20.0997
20.0909
20.0996
20.091
20.0809