/*--------------------------------*- C++ -*----------------------------------*\
  =========                 |
  \\      /  F ield         | OpenFOAM: The Open Source CFD Toolbox
   \\    /   O peration     | Website:  https://openfoam.org
    \\  /    A nd           | Version:  9
     \\/     M anipulation  |
\*---------------------------------------------------------------------------*/
FoamFile
{
    format      ascii;
    class       volScalarField;
    location    "3.55";
    object      epsilon;
}
// * * * * * * * * * * * * * * * * * * * * * * * * * * * * * * * * * * * * * //

dimensions      [0 2 -3 0 0 0 0];

internalField   nonuniform List<scalar> 
36360
(
0.374101
0.298062
0.182623
0.158749
0.171881
0.12941
0.0286298
0.0335733
0.109143
0.0340379
0.0389752
0.00947896
0.039093
0.010374
0.00976433
0.00523009
0.0113458
0.0113476
0.00469548
0.00469612
0.00484933
0.00485139
0.00469193
0.00469169
0.0340372
0.109124
0.00948011
0.0389743
0.0103799
0.0391016
0.00523096
0.0097665
0.298029
0.374078
0.158739
0.182617
0.129401
0.171858
0.0335763
0.0286292
0.621982
0.498045
0.513757
0.408185
0.472979
0.347925
0.331323
0.239358
0.241772
0.123218
0.177708
0.0760225
0.175489
0.0868935
0.101985
0.0348764
0.0769397
0.0769315
0.0373904
0.0373889
0.0519502
0.0519542
0.0148745
0.0148795
0.123186
0.241706
0.0760076
0.177667
0.0868901
0.175451
0.0348884
0.101979
0.497951
0.621899
0.408123
0.513707
0.347825
0.47283
0.239312
0.331247
0.793885
0.647847
0.713204
0.576684
0.7204
0.553657
0.60077
0.452343
0.359819
0.220666
0.30233
0.17209
0.332538
0.21733
0.253166
0.149865
0.164525
0.164503
0.120292
0.120277
0.171428
0.171413
0.108995
0.10899
0.220594
0.359692
0.172039
0.302234
0.217273
0.332406
0.149837
0.253085
0.647677
0.793729
0.576552
0.713085
0.553411
0.72006
0.452175
0.60053
0.934312
0.774101
0.867117
0.713368
0.942193
0.746989
0.833907
0.651893
0.465888
0.31332
0.414358
0.267929
0.490316
0.355138
0.411926
0.286238
0.250489
0.250453
0.208181
0.208152
0.300159
0.300122
0.23564
0.235615
0.313208
0.465697
0.267837
0.414199
0.355015
0.490069
0.286148
0.411738
0.773854
0.934084
0.713159
0.866923
0.74657
0.941632
0.651562
0.833457
1.05262
0.882515
0.99598
0.830414
1.14205
0.924907
1.04495
0.838108
0.559751
0.397342
0.51441
0.356575
0.639926
0.48832
0.56653
0.422736
0.329516
0.329467
0.291073
0.291031
0.425611
0.425552
0.363715
0.363667
0.397191
0.5595
0.356443
0.514188
0.488127
0.639557
0.422578
0.566222
0.882197
1.05232
0.83013
0.995718
0.92431
1.14126
0.8376
1.04427
1.15171
0.974378
1.10448
0.930498
1.31714
1.08288
1.23273
1.00649
0.640769
0.470943
0.601926
0.435549
0.775272
0.610346
0.70958
0.550956
0.399334
0.399273
0.3657
0.365645
0.54131
0.541228
0.484914
0.484843
0.470758
0.640464
0.435381
0.601648
0.610083
0.774785
0.550727
0.709151
0.973999
1.15136
0.930148
1.10416
1.08211
1.31613
1.00581
1.23183
1.23304
1.05039
1.19453
1.01434
1.4658
1.21836
1.39468
1.1534
0.70875
0.533359
0.676422
0.503613
0.892899
0.717363
0.836345
0.665807
0.458902
0.458831
0.430477
0.43041
0.643284
0.643181
0.594101
0.594008
0.533144
0.7084
0.503412
0.676094
0.717035
0.892301
0.665511
0.835801
1.04996
1.23266
1.01393
1.19416
1.21744
1.4646
1.15255
1.39357
1.2982
1.11166
1.26759
1.08284
1.58826
1.33081
1.53012
1.27732
0.76417
0.584659
0.738045
0.560435
0.991485
0.80766
0.944499
0.764558
0.508082
0.508001
0.484836
0.48476
0.729641
0.729518
0.688383
0.688269
0.584418
0.76378
0.560207
0.737673
0.807273
0.990788
0.7642
0.94385
1.11119
1.29778
1.08238
1.26718
1.32974
1.58687
1.27632
1.52881
1.34887
1.15958
1.32529
1.13725
1.68591
1.42101
1.63991
1.37845
0.807946
0.625457
0.787515
0.60639
1.07118
0.881035
1.03353
0.846328
0.547334
0.547246
0.528974
0.52889
0.800013
0.799873
0.766701
0.76657
0.625194
0.807522
0.606137
0.787107
0.880597
1.07039
0.845915
1.03279
1.15907
1.34842
1.13675
1.32485
1.41981
1.68437
1.37731
1.63844
1.38693
1.19579
1.36943
1.17912
1.76116
1.49084
1.72603
1.45819
0.841353
0.656788
0.825949
0.642322
1.13327
0.938457
1.10421
0.911547
0.577576
0.577481
0.563602
0.56351
0.855211
0.855056
0.829325
0.829177
0.656506
0.840901
0.642049
0.825511
0.937975
1.13241
0.911086
1.10338
1.19524
1.38646
1.17859
1.36897
1.48954
1.75948
1.45693
1.72441
1.41423
1.22195
1.40189
1.2101
1.81677
1.54269
1.79108
1.51869
0.865783
0.679861
0.854698
0.669375
1.17966
0.981526
1.15817
0.961555
0.599922
0.599822
0.589757
0.58966
0.896697
0.89653
0.877445
0.877285
0.679565
0.865309
0.669085
0.854235
0.981007
1.17874
0.961054
1.15728
1.22138
1.41374
1.20954
1.4014
1.5413
1.81498
1.51734
1.78933
1.43258
1.23972
1.42451
1.23188
1.85574
1.57918
1.838
1.56253
0.882674
0.695966
0.875195
0.688815
1.21255
1.0122
1.19753
0.998171
0.615588
0.615484
0.608623
0.608521
0.926316
0.92614
0.912754
0.912582
0.695658
0.882183
0.688513
0.874712
1.01166
1.21158
0.997637
1.19658
1.23914
1.43208
1.2313
1.42402
1.57772
1.85386
1.5611
1.83615
1.44361
1.25064
1.43901
1.24605
1.8809
1.60291
1.8697
1.59231
0.893375
0.706333
0.888836
0.70191
1.23418
1.03251
1.22451
1.02341
0.625744
0.625638
0.621399
0.621294
0.945987
0.945804
0.937154
0.936974
0.706017
0.892871
0.701598
0.888338
1.03194
1.23317
1.02285
1.22352
1.25004
1.4431
1.24546
1.43851
1.60139
1.87896
1.59082
1.86778
1.44878
1.25607
1.44695
1.25408
1.8949
1.61629
1.88898
1.61058
0.899111
0.712095
0.89692
0.709851
1.24667
1.04439
1.24131
1.03927
0.631476
0.631368
0.629224
0.629116
0.957569
0.95738
0.952556
0.95237
0.711773
0.898599
0.709531
0.896412
1.04381
1.24564
1.03869
1.24029
1.25547
1.44826
1.25348
1.44644
1.61474
1.89292
1.60905
1.887
1.44929
1.25713
1.44965
1.2572
1.89989
1.62134
1.89826
1.61958
0.900905
0.714213
0.900578
0.713687
1.25185
1.04956
1.24994
1.0476
0.633711
0.633602
0.633108
0.632998
0.962709
0.962518
0.960727
0.960537
0.713887
0.900389
0.713363
0.900063
1.04897
1.2508
1.04701
1.2489
1.25652
1.44877
1.25659
1.44914
1.61977
1.89788
1.61802
1.89624
1.44627
1.25495
1.44831
1.25654
1.89825
1.62017
1.89967
1.62126
0.899769
0.71359
0.900786
0.714311
1.25147
1.04955
1.25209
1.04995
0.633304
0.633194
0.633902
0.633792
0.962854
0.962661
0.963167
0.962975
0.713264
0.899251
0.713985
0.900269
1.04895
1.25042
1.04936
1.25104
1.25434
1.44575
1.25593
1.4478
1.6186
1.89622
1.61969
1.89764
1.44033
1.25005
1.44374
1.25292
1.89093
1.6138
1.89501
1.61737
0.896206
0.710752
0.898388
0.712553
1.24659
1.04547
1.24942
1.04788
0.630787
0.630677
0.632416
0.632306
0.959125
0.958932
0.961353
0.96116
0.710426
0.89569
0.712226
0.897871
1.04487
1.24554
1.04728
1.24836
1.24944
1.43983
1.2523
1.44323
1.61222
1.88891
1.61579
1.89297
1.43216
1.24311
1.43662
1.24694
1.87944
1.60356
1.88549
1.60894
0.890828
0.706241
0.893862
0.708822
1.23832
1.03825
1.2427
1.04207
0.626667
0.626558
0.62904
0.628931
0.952376
0.952184
0.955949
0.955757
0.705917
0.890314
0.708496
0.893347
1.03765
1.23728
1.04147
1.24165
1.24251
1.43165
1.24633
1.43612
1.60199
1.87742
1.60737
1.88346
1.42216
1.23453
1.42749
1.23914
1.8646
1.59025
1.87223
1.59708
0.884017
0.700429
0.887729
0.703624
1.2274
1.02861
1.23303
1.03357
0.621308
0.6212
0.624266
0.624157
0.943316
0.943126
0.94798
0.947789
0.700107
0.883509
0.703301
0.887218
1.02802
1.22636
1.03298
1.23198
1.23393
1.42166
1.23853
1.42699
1.58869
1.8626
1.59551
1.87021
1.41065
1.22461
1.41671
1.22986
1.84703
1.57444
1.85596
1.58246
0.876045
0.693567
0.880311
0.697262
1.21434
1.01703
1.22098
1.02291
0.614955
0.614848
0.618386
0.618278
0.932403
0.932215
0.937947
0.937758
0.69325
0.875543
0.696943
0.879806
1.01644
1.21331
1.02233
1.21995
1.22402
1.41016
1.22927
1.41622
1.5729
1.84506
1.58091
1.85397
1.39782
1.21354
1.40452
1.21935
1.82716
1.55653
1.8372
1.56557
0.867092
0.68583
0.871831
0.689946
1.1995
1.00384
1.207
1.0105
0.607776
0.607671
0.611603
0.611497
0.919957
0.919773
0.926238
0.926052
0.685518
0.866599
0.689632
0.871334
1.00326
1.19849
1.00992
1.20598
1.21296
1.39734
1.21876
1.40404
1.55502
1.82522
1.56404
1.83524
1.38379
1.20145
1.39108
1.20775
1.80525
1.53678
1.81629
1.54672
0.857278
0.67733
0.862437
0.681817
1.18311
0.989257
1.19137
0.996595
0.599879
0.599775
0.604055
0.60395
0.906191
0.90601
0.913114
0.912931
0.677023
0.856793
0.681507
0.861947
0.988696
1.18212
0.99603
1.19037
1.20088
1.38333
1.20718
1.39061
1.5353
1.80335
1.54522
1.81436
1.36865
1.1884
1.37649
1.19517
1.78148
1.51536
1.79344
1.52612
0.846674
0.668134
0.852221
0.672962
1.16533
0.973422
1.17427
0.981379
0.591331
0.59123
0.595826
0.595723
0.891232
0.891056
0.898742
0.898563
0.667834
0.846199
0.672658
0.85174
0.972874
1.16436
0.980824
1.17329
1.18784
1.3682
1.19461
1.37603
1.51391
1.77962
1.52465
1.79155
1.35244
1.17445
1.36081
1.18167
1.75595
1.49234
1.76879
1.5039
0.835319
0.658281
0.841237
0.663433
1.14622
0.956406
1.15582
0.96495
0.582168
0.582069
0.586966
0.586866
0.875154
0.874981
0.883221
0.883046
0.657987
0.834854
0.663136
0.840767
0.95587
1.14528
0.964408
1.15487
1.1739
1.35199
1.18112
1.36036
1.49092
1.75413
1.50246
1.76694
1.33517
1.1596
1.34407
1.16727
1.72869
1.46777
1.7424
1.4801
0.82323
0.647784
0.829513
0.653256
1.12583
0.938238
1.13608
0.94736
0.572404
0.572307
0.577501
0.577403
0.857985
0.857817
0.866599
0.866429
0.647496
0.822775
0.652965
0.829053
0.937716
1.12491
0.946832
1.13514
1.15907
1.33474
1.16673
1.34363
1.46639
1.72692
1.4787
1.74059
1.31685
1.14387
1.32627
1.15198
1.69971
1.44164
1.71428
1.45476
0.810402
0.636639
0.817054
0.642435
1.10414
0.918913
1.11504
0.928619
0.562034
0.561939
0.567434
0.567338
0.83972
0.839557
0.848888
0.848722
0.636359
0.809959
0.642151
0.816606
0.918406
1.10325
0.928105
1.11414
1.14335
1.31643
1.15145
1.32584
1.4403
1.69798
1.4534
1.71252
1.29748
1.12723
1.30742
1.13579
1.66895
1.41392
1.68442
1.42785
0.796818
0.624826
0.80385
0.630958
1.08113
0.898394
1.0927
0.908708
0.551037
0.550945
0.556752
0.556659
0.820324
0.820166
0.830067
0.829907
0.624553
0.796386
0.630681
0.803413
0.897903
1.08026
0.908209
1.09182
1.12673
1.29707
1.13528
1.30701
1.41262
1.66728
1.42653
1.68272
1.27702
1.10966
1.28751
1.11869
1.63636
1.38452
1.65277
1.39931
0.782439
0.612307
0.789872
0.618795
1.0567
0.876612
1.069
0.887572
0.539377
0.539288
0.545427
0.545336
0.799733
0.79958
0.810087
0.809932
0.612042
0.782021
0.618526
0.789447
0.876137
1.05586
0.887089
1.06814
1.10917
1.27663
1.11819
1.28711
1.38326
1.63474
1.39802
1.65111
1.25546
1.0911
1.26651
1.10063
1.60181
1.35331
1.61921
1.36902
0.767212
0.599026
0.775074
0.605901
1.03076
0.853469
1.04383
0.865127
0.526998
0.526911
0.533413
0.533325
0.777851
0.777703
0.788868
0.788718
0.59877
0.766806
0.60564
0.774662
0.853011
1.02995
0.864661
1.04301
1.09063
1.25507
1.10015
1.26611
1.35209
1.60024
1.36778
1.61762
1.23272
1.07147
1.24436
1.08155
1.56515
1.3202
1.58363
1.33687
0.751056
0.584907
0.759391
0.592209
1.00317
0.828831
1.01709
0.84126
0.513823
0.51374
0.520644
0.520558
0.754551
0.75441
0.7663
0.766156
0.584659
0.750665
0.591956
0.758992
0.828392
1.00239
0.840812
1.0163
1.07102
1.23234
1.08108
1.24398
1.31903
1.56365
1.33567
1.58209
1.20872
1.05068
1.22099
1.06134
1.52618
1.28502
1.54586
1.30278
0.733868
0.569846
0.74273
0.577629
0.973741
0.802525
0.988614
0.815817
0.499753
0.499673
0.507032
0.50695
0.729667
0.729533
0.742236
0.742098
0.569607
0.733492
0.577386
0.742345
0.802106
0.972998
0.815388
0.987854
1.05024
1.20836
1.06089
1.22063
1.2839
1.52474
1.30163
1.54438
1.18335
1.0286
1.19633
1.03992
1.48461
1.24744
1.50563
1.26644
0.715517
0.553713
0.724974
0.562046
0.942228
0.774329
0.958181
0.7886
0.48466
0.484583
0.492463
0.492384
0.702992
0.702864
0.716489
0.716357
0.553485
0.715156
0.561812
0.724605
0.77393
0.941521
0.788191
0.957456
1.02818
1.18301
1.03949
1.19597
1.24637
1.48324
1.26535
1.50422
1.15647
1.00507
1.17022
1.01713
1.44008
1.20715
1.46264
1.22755
0.695839
0.536351
0.705977
0.545315
0.908345
0.743985
0.925526
0.759369
0.468389
0.468316
0.476798
0.476722
0.67428
0.67416
0.688832
0.688708
0.536133
0.695494
0.545092
0.705624
0.74361
0.907676
0.758982
0.924838
1.00467
1.15615
1.01672
1.16988
1.20614
1.43878
1.22651
1.4613
1.1279
0.979902
1.14251
0.992805
1.39217
1.16379
1.41648
1.18578
0.674639
0.51757
0.685559
0.527264
0.871767
0.711199
0.890343
0.727849
0.450757
0.450687
0.459866
0.459795
0.643251
0.643139
0.659004
0.658888
0.517364
0.674312
0.527052
0.685223
0.710848
0.871141
0.727485
0.889696
0.979521
1.12758
0.992413
1.14219
1.16285
1.39095
1.1848
1.41521
1.09743
0.95288
1.113
0.966728
1.34037
1.117
1.3667
1.14076
0.651694
0.497143
0.663511
0.507686
0.83213
0.675629
0.852289
0.693722
0.431534
0.431469
0.441465
0.441398
0.609577
0.609474
0.626703
0.626595
0.496948
0.651386
0.507485
0.663193
0.675305
0.83155
0.693384
0.851685
0.952521
1.09713
0.966357
1.1127
1.11612
1.33924
1.13984
1.36551
1.06497
0.923826
1.08153
0.938701
1.28418
1.06644
1.31277
1.09212
0.626731
0.474758
0.63959
0.486321
0.789009
0.636852
0.810974
0.656614
0.410406
0.410345
0.421331
0.421268
0.572847
0.572753
0.591564
0.591465
0.474578
0.626444
0.486134
0.639293
0.636557
0.788479
0.656304
0.810419
0.923491
1.0647
0.938354
1.08125
1.06563
1.28314
1.09128
1.31167
1.03096
0.89258
1.04816
0.908577
1.22355
1.01195
1.25429
1.0396
0.599234
0.449859
0.613456
0.462773
0.741768
0.594241
0.765909
0.616024
0.386856
0.386801
0.399069
0.399011
0.532517
0.532435
0.553116
0.553028
0.449693
0.59897
0.462599
0.61318
0.59398
0.741294
0.615746
0.765407
0.89227
1.03071
0.908255
1.0479
1.01122
1.2226
1.03883
1.25329
0.998656
0.857497
1.01415
0.875918
1.16139
0.952871
1.19207
0.983108
0.567145
0.421075
0.584141
0.436181
0.68856
0.546699
0.716093
0.571127
0.360005
0.359955
0.373995
0.373942
0.488014
0.487944
0.510755
0.510679
0.420926
0.566906
0.436024
0.583889
0.546476
0.68815
0.570885
0.715651
0.857213
0.998426
0.875621
1.0139
0.952232
1.16055
0.982423
1.19118
0.991618
0.797046
0.98857
0.835026
1.10714
0.86809
1.13361
0.917887
0.521465
0.385691
0.547181
0.404449
0.62263
0.493255
0.657851
0.520606
0.328966
0.328923
0.345095
0.345048
0.439934
0.439876
0.46421
0.464146
0.38556
0.521254
0.404308
0.546955
0.493071
0.622291
0.520403
0.657477
0.796792
0.991399
0.834756
0.988347
0.86756
1.10643
0.917299
1.13283
0.56161
0.448289
0.334412
0.27066
0.485908
0.386205
0.272409
0.22197
0.204586
0.0892814
0.0940846
0.0265986
0.162777
0.0630423
0.0681933
0.0166264
0.0427105
0.0427069
0.0100307
0.0100318
0.025451
0.0254505
0.00683592
0.00683702
0.0892558
0.204527
0.026598
0.0940575
0.0630297
0.162739
0.016627
0.0681808
0.448211
0.561559
0.270609
0.334374
0.38615
0.485872
0.221941
0.272388
0.845566
0.6903
0.723129
0.583224
0.750818
0.607725
0.636672
0.509756
0.388494
0.229976
0.302375
0.160145
0.322706
0.179503
0.247514
0.12082
0.162837
0.162815
0.101175
0.101161
0.120643
0.120627
0.0697651
0.0697571
0.229906
0.388378
0.160096
0.302287
0.179451
0.322613
0.120787
0.247449
0.690169
0.845475
0.583118
0.723056
0.607612
0.750733
0.509672
0.636612
1.03205
0.860135
0.946175
0.781008
0.926312
0.764809
0.845068
0.691248
0.536309
0.35925
0.46595
0.296588
0.453943
0.291208
0.391075
0.236607
0.28214
0.282104
0.223722
0.223692
0.222413
0.222383
0.172107
0.172084
0.359142
0.536144
0.296497
0.465807
0.291116
0.453794
0.236534
0.390954
0.859963
1.03194
0.780854
0.94607
0.76464
0.926184
0.691106
0.844961
1.17311
0.99312
1.10692
0.930316
1.06206
0.890604
0.997933
0.830814
0.659248
0.47221
0.600577
0.417849
0.565831
0.391625
0.51209
0.342989
0.389282
0.389234
0.337481
0.337439
0.316595
0.316553
0.270768
0.270732
0.472073
0.659048
0.417725
0.600392
0.391499
0.565634
0.342879
0.511917
0.992925
1.17299
0.93013
1.10681
0.890389
1.0619
0.83062
0.997789
1.28452
1.10026
1.23201
1.04957
1.17217
0.994365
1.11995
0.944988
0.761557
0.568636
0.712865
0.522519
0.661044
0.479248
0.615481
0.437119
0.482041
0.481986
0.437555
0.437503
0.399934
0.399881
0.359756
0.359708
0.56848
0.761336
0.522371
0.712653
0.479093
0.660809
0.436978
0.615264
1.10006
1.28442
1.04937
1.23191
0.994117
1.172
0.944755
1.11978
1.373
1.18647
1.33136
1.1458
1.26152
1.07953
1.21926
1.03915
0.845613
0.64916
0.805799
0.610892
0.740725
0.553741
0.702811
0.518183
0.56021
0.56015
0.52299
0.522932
0.47142
0.471359
0.437233
0.437176
0.648991
0.845382
0.610729
0.805571
0.553564
0.740461
0.518016
0.70256
1.18628
1.37293
1.1456
1.33128
1.07926
1.26134
1.03889
1.21908
1.44259
1.25495
1.40998
1.2228
1.33303
1.14829
1.29939
1.11588
0.913436
0.714911
0.88151
0.683884
0.805997
0.615457
0.775154
0.586227
0.624462
0.624399
0.594099
0.594037
0.531025
0.530957
0.502755
0.502691
0.714736
0.913202
0.683711
0.881277
0.615262
0.80571
0.58604
0.774878
1.25477
1.44256
1.22262
1.40994
1.14801
1.33287
1.1156
1.29921
1.49634
1.30829
1.47133
1.28343
1.38913
1.2026
1.36293
1.1772
0.967007
0.767354
0.94198
0.742803
0.858192
0.665257
0.833727
0.64187
0.675978
0.675912
0.651831
0.651767
0.579361
0.579288
0.556636
0.556566
0.767175
0.966775
0.742625
0.941747
0.665048
0.857889
0.641668
0.833431
1.30813
1.49636
1.28326
1.47133
1.20231
1.38897
1.17691
1.36276
1.53676
1.34875
1.51814
1.33007
1.4319
1.24431
1.41211
1.22499
1.00821
0.808065
0.989148
0.789191
0.898761
0.70428
0.879933
0.686138
0.716157
0.716091
0.697508
0.697442
0.617398
0.617321
0.599697
0.599622
0.807885
1.00799
0.789011
0.988917
0.70406
0.898446
0.685924
0.879624
1.34861
1.53681
1.32992
1.51817
1.24402
1.43176
1.2247
1.41196
1.56607
1.37839
1.55276
1.36489
1.46339
1.27526
1.44902
1.26111
1.03892
0.838703
1.02489
0.824674
0.929272
0.733876
0.915292
0.720288
0.74654
0.746473
0.73261
0.732543
0.646367
0.646286
0.633053
0.632974
0.838523
1.0387
0.824494
1.02467
0.733648
0.928949
0.720064
0.914972
1.37827
1.56616
1.36476
1.55283
1.27496
1.46326
1.26082
1.44888
1.58619
1.39905
1.57725
1.38983
1.48542
1.29715
1.47557
1.28733
1.06083
0.860849
1.05101
0.850884
0.951256
0.75542
0.941361
0.745696
0.768628
0.768561
0.758671
0.758604
0.667556
0.667473
0.657979
0.657898
0.860669
1.06061
0.850704
1.05079
0.755186
0.950926
0.745465
0.941033
1.39894
1.58631
1.38972
1.57736
1.29686
1.4853
1.28704
1.47544
1.59882
1.41236
1.59345
1.40664
1.49969
1.31159
1.49353
1.30533
1.07553
0.875989
1.06914
0.869362
0.966179
0.770265
0.959652
0.76374
0.783857
0.78379
0.777171
0.777103
0.682254
0.682169
0.675778
0.675694
0.875811
1.07532
0.869183
1.06892
0.770026
0.965845
0.763503
0.959319
1.41228
1.59897
1.40655
1.59358
1.3113
1.49958
1.30503
1.49342
1.60541
1.41976
1.60289
1.41683
1.50764
1.31998
1.50448
1.31658
1.08438
0.885444
1.08076
0.881513
0.975356
0.779645
0.971554
0.775713
0.793509
0.793442
0.789467
0.7894
0.691648
0.691562
0.68769
0.687605
0.885267
1.08417
0.881335
1.08055
0.779403
0.975019
0.775473
0.971218
1.41968
1.60558
1.41676
1.60305
1.31969
1.50755
1.31629
1.50438
1.60718
1.42244
1.60694
1.42174
1.51057
1.32355
1.50979
1.32243
1.08858
0.890369
1.08716
0.888577
0.979949
0.784659
0.978314
0.782791
0.798712
0.798646
0.796772
0.796705
0.696801
0.696715
0.694848
0.694762
0.890194
1.08838
0.888401
1.08695
0.784415
0.979611
0.782548
0.977976
1.42238
1.60737
1.42168
1.60712
1.32327
1.51049
1.32214
1.5097
1.60521
1.42146
1.60672
1.42246
1.50957
1.32334
1.51061
1.32398
1.08913
0.89172
1.08942
0.891613
0.980926
0.786225
0.980992
0.785984
0.800404
0.800338
0.800121
0.800054
0.69861
0.698523
0.698234
0.698147
0.891547
1.08894
0.891439
1.08922
0.785981
0.980588
0.78574
0.980654
1.4214
1.60542
1.42241
1.60692
1.32306
1.5095
1.32369
1.51053
1.60023
1.41757
1.60317
1.41996
1.50545
1.3202
1.50798
1.32223
1.08688
0.890371
1.08848
0.891514
0.979175
0.785204
0.980512
0.786151
0.799449
0.799383
0.800383
0.800317
0.697897
0.69781
0.698673
0.698586
0.890199
1.08668
0.891342
1.08829
0.784961
0.978839
0.785907
0.980175
1.41752
1.60045
1.41991
1.60338
1.31992
1.50539
1.32195
1.50791
1.59286
1.41139
1.59693
1.41486
1.49886
1.31472
1.50256
1.31786
1.08237
0.886826
1.08504
0.889017
0.975196
0.782075
0.977591
0.784035
0.796346
0.796281
0.798311
0.798246
0.695152
0.695065
0.696912
0.696825
0.886657
1.08218
0.888846
1.08485
0.781832
0.974862
0.783792
0.977256
1.41135
1.59309
1.41482
1.59715
1.31445
1.4988
1.31758
1.5025
1.58358
1.40339
1.58856
1.40773
1.49029
1.30741
1.49493
1.31141
1.0761
0.881599
1.07961
0.884581
0.969513
0.777343
0.972711
0.780055
0.7916
0.791536
0.794336
0.794272
0.690857
0.690772
0.693342
0.693256
0.881432
1.07592
0.884413
1.07942
0.777103
0.969183
0.779814
0.972379
1.40336
1.58381
1.40769
1.58879
1.30714
1.49024
1.31114
1.49487
1.5727
1.39391
1.57844
1.39894
1.4801
1.29861
1.48551
1.30331
1.06844
0.87504
1.07261
0.878651
0.962478
0.771353
0.966316
0.774659
0.785561
0.785498
0.788908
0.788844
0.685353
0.685268
0.688409
0.688324
0.874876
1.06826
0.878486
1.07242
0.771115
0.962152
0.77442
0.965987
1.39388
1.57293
1.39892
1.57867
1.29835
1.48005
1.30305
1.48546
1.56046
1.38319
1.56686
1.38882
1.46855
1.28859
1.47462
1.29388
1.05963
0.867397
1.06434
0.871525
0.954335
0.764341
0.958702
0.768134
0.778474
0.778412
0.782319
0.782257
0.678872
0.678788
0.682392
0.682308
0.867236
1.05945
0.871362
1.06417
0.764107
0.954015
0.767898
0.958379
1.38317
1.5607
1.3888
1.5671
1.28834
1.4685
1.29362
1.47457
1.54702
1.37139
1.55401
1.37754
1.45578
1.27751
1.46244
1.28331
1.04983
0.858836
1.05502
0.863405
0.945249
0.756469
0.950071
0.760676
0.770507
0.770446
0.774775
0.774713
0.671573
0.671491
0.675486
0.675403
0.858678
1.04965
0.863246
1.05484
0.756239
0.944934
0.760443
0.949753
1.37137
1.54726
1.37752
1.55425
1.27726
1.45574
1.28306
1.46239
1.53247
1.3586
1.54
1.36524
1.4419
1.26546
1.4491
1.27173
1.03915
0.849468
1.04476
0.854429
0.935325
0.747842
0.940555
0.752415
0.761768
0.761708
0.766409
0.766349
0.66356
0.663479
0.667819
0.667737
0.849313
1.03898
0.854272
1.04459
0.747616
0.935015
0.752186
0.940242
1.35859
1.53271
1.36522
1.54024
1.26521
1.44186
1.27149
1.44906
1.51686
1.3449
1.52491
1.35199
1.42698
1.25251
1.43469
1.25923
1.02765
0.839358
1.03367
0.844682
0.924628
0.738524
0.930237
0.743435
0.752324
0.752265
0.75731
0.75725
0.654895
0.654815
0.659472
0.659392
0.839206
1.02749
0.844528
1.0335
0.738302
0.924325
0.74321
0.92993
1.34489
1.5171
1.35198
1.52515
1.25227
1.42694
1.25899
1.43466
1.50024
1.33031
1.50879
1.33784
1.41104
1.23871
1.41926
1.24585
1.01538
0.828543
1.02178
0.834214
0.913195
0.728549
0.919167
0.733783
0.74221
0.742153
0.747526
0.747468
0.645612
0.645534
0.650493
0.650415
0.828394
1.01522
0.834063
1.02162
0.728331
0.912898
0.733563
0.918867
1.3303
1.50047
1.33783
1.50902
1.23847
1.411
1.24561
1.41922
1.48261
1.31486
1.49166
1.32282
1.39411
1.22405
1.40282
1.23161
1.00235
0.817037
1.00913
0.82305
0.901039
0.71793
0.907369
0.723484
0.731441
0.731384
0.737081
0.737024
0.635724
0.635648
0.640906
0.640828
0.816891
1.00219
0.822903
1.00897
0.717717
0.900749
0.723268
0.907076
1.31485
1.48284
1.3228
1.49189
1.22383
1.39408
1.23138
1.40279
1.464
1.29855
1.47354
1.30693
1.3762
1.20856
1.3854
1.21654
0.988552
0.804834
0.99571
0.811194
0.888158
0.706664
0.89485
0.71254
0.720009
0.719954
0.725979
0.725924
0.625227
0.625152
0.630712
0.630636
0.804692
0.988401
0.811051
0.995557
0.706456
0.887875
0.71233
0.894563
1.29854
1.46423
1.30692
1.47377
1.20834
1.37617
1.21631
1.38537
1.44442
1.28137
1.45444
1.29018
1.3573
1.19221
1.36699
1.20062
0.973977
0.791915
0.981525
0.798634
0.874536
0.69473
0.881598
0.70094
0.707893
0.707839
0.714206
0.714151
0.614098
0.614026
0.619899
0.619826
0.791776
0.97383
0.798493
0.981375
0.694527
0.87426
0.700735
0.881319
1.28136
1.44464
1.29018
1.45466
1.192
1.35727
1.2004
1.36696
1.42386
1.26331
1.43437
1.27256
1.33743
1.175
1.3476
1.18384
0.958595
0.778242
0.966547
0.78534
0.860144
0.682094
0.867592
0.688657
0.695052
0.695
0.70173
0.701676
0.602304
0.602233
0.60844
0.608368
0.778107
0.958451
0.785203
0.966401
0.681897
0.859876
0.688457
0.86732
1.26331
1.42408
1.27256
1.43458
1.17479
1.3374
1.18362
1.34757
1.40233
1.24434
1.41332
1.25405
1.31655
1.1569
1.32722
1.16618
0.942357
0.763761
0.95074
0.771267
0.844936
0.668705
0.852795
0.675649
0.681429
0.681378
0.688502
0.688451
0.589788
0.589719
0.596289
0.596219
0.763629
0.942217
0.771133
0.950598
0.668513
0.844675
0.675454
0.852531
1.24434
1.40254
1.25405
1.41353
1.1567
1.31652
1.16597
1.3272
1.3798
1.22445
1.39128
1.23461
1.29463
1.13783
1.30583
1.14761
0.925206
0.748399
0.934049
0.756351
0.828841
0.654488
0.83715
0.661852
0.666947
0.666897
0.674456
0.674406
0.576478
0.576411
0.583382
0.583315
0.74827
0.925069
0.75622
0.93391
0.654302
0.828588
0.661663
0.836893
1.22444
1.38
1.23461
1.39149
1.13764
1.2946
1.14741
1.3058
1.35624
1.20356
1.36824
1.21424
1.27164
1.11773
1.28337
1.12802
0.907054
0.732056
0.916407
0.740508
0.811766
0.639347
0.820573
0.647182
0.651502
0.651453
0.659502
0.659453
0.562275
0.562211
0.569635
0.56957
0.73193
0.90692
0.740381
0.916272
0.639166
0.811521
0.646999
0.820324
1.20356
1.35643
1.21423
1.36844
1.11754
1.27161
1.12783
1.28334
1.33159
1.18159
1.34414
1.19281
1.24749
1.0965
1.25981
1.10736
0.887782
0.714606
0.897705
0.723623
0.7936
0.623159
0.802963
0.631529
0.634965
0.634917
0.643524
0.643476
0.547057
0.546995
0.554937
0.554873
0.714483
0.887651
0.723499
0.897573
0.622985
0.793363
0.631352
0.802722
1.18157
1.33177
1.1928
1.34432
1.09632
1.24746
1.10717
1.25978
1.30579
1.15842
1.31892
1.17025
1.2221
1.07404
1.23505
1.08553
0.867257
0.695898
0.877819
0.705559
0.774198
0.605776
0.784193
0.614759
0.617179
0.617133
0.626378
0.626331
0.530672
0.530612
0.53915
0.539089
0.695779
0.867128
0.705438
0.877689
0.605609
0.773969
0.614588
0.783961
1.15841
1.30596
1.17023
1.31909
1.07386
1.22207
1.08535
1.23502
1.2788
1.13398
1.29252
1.14645
1.19535
1.0502
1.20898
1.06239
0.84533
0.675755
0.856607
0.686152
0.753392
0.587018
0.764106
0.596707
0.597957
0.597912
0.607894
0.607849
0.512937
0.51288
0.522109
0.522051
0.67564
0.845203
0.686034
0.856479
0.586857
0.753173
0.596543
0.763882
1.13396
1.27896
1.14643
1.29268
1.05002
1.19531
1.06221
1.20895
1.25064
1.10822
1.26493
1.12134
1.16717
1.02486
1.18152
1.0378
0.821845
0.65396
0.833914
0.665208
0.730997
0.566663
0.742524
0.577175
0.577053
0.57701
0.587861
0.587817
0.493619
0.493564
0.503611
0.503555
0.653847
0.82172
0.665093
0.833789
0.56651
0.730787
0.577018
0.742309
1.1082
1.25078
1.12132
1.26508
1.02469
1.16713
1.03763
1.18148
1.22165
1.08124
1.23627
1.09494
1.13768
0.997962
1.15264
1.01168
0.79662
0.630179
0.809581
0.642468
0.706777
0.544388
0.719245
0.555906
0.554082
0.55404
0.56598
0.565937
0.472365
0.472314
0.483375
0.483321
0.630069
0.796496
0.642357
0.809457
0.544243
0.706576
0.555757
0.71904
1.08121
1.22177
1.09491
1.2364
0.997801
1.13764
1.01152
1.1526
1.19333
1.05339
1.20727
1.06746
1.10783
0.969572
1.12273
0.984028
0.769193
0.603687
0.783355
0.617463
0.680206
0.519525
0.693956
0.532455
0.528289
0.528249
0.541722
0.541681
0.448525
0.448476
0.460932
0.460881
0.603579
0.769069
0.617355
0.783232
0.519388
0.680016
0.532314
0.693761
1.05335
1.19343
1.06743
1.20738
0.969415
1.10778
0.98387
1.12269
1.17275
1.02398
1.18109
1.0392
1.08282
0.938336
1.09397
0.954688
0.737139
0.572514
0.754199
0.588998
0.6489
0.490321
0.665579
0.505747
0.498212
0.498172
0.51401
0.51397
0.42087
0.420824
0.435369
0.435322
0.572408
0.737012
0.588891
0.754074
0.490192
0.648719
0.505613
0.665394
1.02392
1.17282
1.03916
1.18118
0.938182
1.08277
0.954533
1.09393
1.20021
0.970445
1.17492
1.0053
1.09674
0.881758
1.08008
0.918102
0.689523
0.532836
0.71668
0.554046
0.602543
0.453363
0.628915
0.473087
0.462276
0.462238
0.481089
0.48105
0.388094
0.388052
0.405221
0.405177
0.532733
0.689393
0.553942
0.716551
0.453244
0.602372
0.472963
0.628739
0.970367
1.20025
1.00524
1.17499
0.881602
1.09668
0.917946
1.08003
0.657565
0.529472
0.415659
0.336922
0.616256
0.494154
0.380513
0.307634
0.263995
0.131266
0.134232
0.0477092
0.237517
0.111883
0.11589
0.0375656
0.0766439
0.0766311
0.0183787
0.0183773
0.0604137
0.0604058
0.0139686
0.0139688
0.131215
0.263898
0.047691
0.134172
0.111845
0.237438
0.0375572
0.115847
0.529351
0.657482
0.336828
0.415584
0.494054
0.616189
0.307561
0.380457
0.969725
0.801623
0.833792
0.68
0.915754
0.752794
0.785977
0.6378
0.483238
0.308835
0.3801
0.22125
0.440969
0.272881
0.345544
0.19338
0.232802
0.232768
0.153538
0.153514
0.200406
0.200377
0.129187
0.129168
0.308734
0.483082
0.221172
0.37997
0.272794
0.440832
0.193316
0.345434
0.80146
0.969621
0.679855
0.833696
0.752646
0.915656
0.637674
0.785892
1.17844
0.995968
1.08235
0.905438
1.11388
0.935544
1.02273
0.850478
0.660204
0.469017
0.576151
0.391723
0.604321
0.418614
0.526721
0.34821
0.383303
0.383257
0.310031
0.30999
0.336282
0.33624
0.27002
0.269984
0.468884
0.660013
0.391604
0.575974
0.418492
0.604141
0.348104
0.52656
0.995791
1.17835
0.905264
1.08225
0.935369
1.11378
0.850313
1.02263
1.33472
1.14666
1.26175
1.07582
1.26245
1.07746
1.19298
1.01065
0.805385
0.606411
0.736432
0.540633
0.738795
0.544312
0.674827
0.484026
0.51565
0.515597
0.452006
0.451956
0.456562
0.456512
0.398612
0.398565
0.606263
0.805185
0.54049
0.736233
0.544168
0.738593
0.483892
0.674633
1.1465
1.33467
1.07565
1.26168
1.07728
1.26237
1.01047
1.19289
1.4556
1.26577
1.39896
1.20972
1.37817
1.19034
1.32384
1.13712
0.923964
0.721462
0.867816
0.666714
0.84934
0.650292
0.796898
0.599765
0.628011
0.627956
0.574395
0.57434
0.559405
0.559349
0.510237
0.510183
0.721312
0.923775
0.666564
0.867619
0.650138
0.849134
0.599615
0.796692
1.26565
1.45562
1.20958
1.39895
1.19018
1.37813
1.13695
1.32378
1.54959
1.35978
1.5056
1.31564
1.46885
1.28007
1.42632
1.23786
1.01965
0.815856
0.974538
0.771198
0.939146
0.737828
0.896729
0.696342
0.721041
0.720987
0.676943
0.676888
0.64513
0.645073
0.604423
0.604366
0.815713
1.01948
0.77105
0.974358
0.737671
0.938947
0.696186
0.896525
1.35971
1.54969
1.31555
1.50566
1.27994
1.46887
1.23772
1.42631
1.62212
1.43316
1.5883
1.39886
1.53933
1.35058
1.5064
1.31757
1.09566
0.891779
1.06003
0.856089
1.01092
0.808649
0.977214
0.775307
0.796373
0.796322
0.760908
0.760856
0.714954
0.714896
0.682033
0.681975
0.891648
1.09552
0.855952
1.05987
0.808496
1.01073
0.775151
0.977021
1.43315
1.6223
1.39882
1.58844
1.35049
1.53942
1.31746
1.50646
1.6772
1.48947
1.65169
1.46333
1.59323
1.40501
1.56822
1.3797
1.15491
0.951591
1.12733
0.923679
1.06715
0.864714
1.04093
0.838518
0.856046
0.855999
0.828163
0.828114
0.770529
0.770473
0.744529
0.744472
0.951474
1.1548
0.923555
1.1272
0.864566
1.06698
0.838367
1.04076
1.48952
1.67747
1.46335
1.65192
1.40496
1.59337
1.37963
1.56833
1.71795
1.53159