/*--------------------------------*- C++ -*----------------------------------*\
  =========                 |
  \\      /  F ield         | OpenFOAM: The Open Source CFD Toolbox
   \\    /   O peration     | Website:  https://openfoam.org
    \\  /    A nd           | Version:  9
     \\/     M anipulation  |
\*---------------------------------------------------------------------------*/
FoamFile
{
    format      ascii;
    class       volScalarField;
    location    "3.55";
    object      k;
}
// * * * * * * * * * * * * * * * * * * * * * * * * * * * * * * * * * * * * * //

dimensions      [0 2 -2 0 0 0 0];

internalField   nonuniform List<scalar> 
36360
(
0.115744
0.0973085
0.0629136
0.0558104
0.0317028
0.0262384
0.00959831
0.0106742
0.049077
0.0221415
0.0204777
0.00616191
0.0118146
0.00487904
0.00468508
0.00308959
0.00995113
0.00995469
0.00336186
0.00336282
0.00293871
0.00293954
0.00287346
0.00287337
0.0221468
0.0490749
0.00616438
0.020481
0.00488089
0.0118164
0.00308993
0.00468577
0.0972996
0.11573
0.0558087
0.0629071
0.0262371
0.0317
0.0106748
0.00959816
0.180742
0.155172
0.152433
0.129194
0.0622526
0.05073
0.049102
0.0395344
0.0978359
0.0652037
0.0747722
0.0436423
0.0321471
0.0201232
0.0223877
0.0109506
0.0504744
0.0504724
0.0290149
0.0290162
0.014284
0.0142847
0.00620588
0.00620727
0.0651951
0.0978171
0.0436407
0.0747625
0.0201227
0.0321425
0.0109531
0.0223868
0.155143
0.180706
0.129176
0.152409
0.0507203
0.0622394
0.0395294
0.0490945
0.225811
0.198108
0.204654
0.177791
0.082411
0.0691473
0.0730136
0.0604304
0.138142
0.104342
0.118846
0.085505
0.049227
0.0370757
0.0410435
0.028939
0.0893112
0.0893044
0.070632
0.0706274
0.0316535
0.0316517
0.0234061
0.0234053
0.104321
0.138104
0.0854897
0.118818
0.0370692
0.0492139
0.0289354
0.0410347
0.198056
0.22575
0.17775
0.204605
0.0691268
0.082385
0.0604154
0.0729942
0.262252
0.233495
0.244878
0.21658
0.0985611
0.0844307
0.0908557
0.0771029
0.172245
0.13777
0.155892
0.121728
0.0637725
0.0514367
0.0567795
0.0445477
0.122407
0.122396
0.10653
0.106521
0.0459823
0.0459785
0.0391314
0.0391286
0.137736
0.172189
0.121701
0.155845
0.0514248
0.063751
0.0445384
0.0567622
0.23342
0.262165
0.216516
0.244803
0.0843992
0.098522
0.0770768
0.0908231
0.29252
0.263097
0.278083
0.248959
0.11205
0.0973568
0.105604
0.0911653
0.201037
0.166063
0.187264
0.152521
0.076163
0.0636038
0.0702213
0.0577728
0.150411
0.150396
0.137005
0.136992
0.0580364
0.058031
0.0522634
0.0522588
0.16602
0.200965
0.152482
0.1872
0.0635869
0.0761337
0.0577583
0.0701958
0.263001
0.29241
0.248873
0.277984
0.0973148
0.111998
0.0911284
0.105558
0.317474
0.287613
0.305609
0.275944
0.12323
0.108151
0.117907
0.103002
0.225017
0.189691
0.213593
0.178428
0.0865571
0.0738024
0.0815948
0.0689331
0.173821
0.173803
0.162658
0.162641
0.0681285
0.0681216
0.0633098
0.0633037
0.189638
0.224931
0.17838
0.213514
0.0737812
0.0865208
0.068914
0.081562
0.2875
0.317345
0.27584
0.305488
0.1081
0.123168
0.102955
0.117849
0.337731
0.307584
0.328142
0.298123
0.132339
0.116996
0.128022
0.112798
0.244638
0.209071
0.235338
0.19988
0.0951064
0.0821967
0.091046
0.0782089
0.193049
0.193029
0.183927
0.183908
0.0764376
0.0764294
0.0724895
0.0724819
0.209011
0.244539
0.199823
0.235245
0.0821716
0.095064
0.0781857
0.0910065
0.307456
0.337584
0.298002
0.328003
0.116936
0.132267
0.112742
0.127954
0.353864
0.323537
0.346268
0.316021
0.139614
0.12409
0.136184
0.120741
0.260369
0.224645
0.252954
0.217301
0.101986
0.0889587
0.098737
0.0857642
0.208522
0.208499
0.201223
0.201202
0.0831354
0.0831261
0.0799704
0.0799616
0.224578
0.26026
0.217237
0.25285
0.0889303
0.101938
0.0857374
0.0986918
0.323395
0.353703
0.315885
0.346113
0.124023
0.139532
0.120678
0.136107
0.36641
0.335977
0.360541
0.330154
0.145282
0.129638
0.142626
0.127035
0.27268
0.236861
0.266916
0.231139
0.107382
0.0942699
0.10485
0.0917768
0.220675
0.22065
0.21498
0.214956
0.0884001
0.0883897
0.085928
0.0859181
0.236788
0.272562
0.231068
0.266802
0.0942386
0.10733
0.0917469
0.1048
0.335825
0.366237
0.330006
0.360372
0.129565
0.145193
0.126965
0.14254
0.375899
0.345413
0.371495
0.34103
0.149575
0.133853
0.147578
0.13189
0.282051
0.246183
0.277698
0.24185
0.111495
0.0983244
0.109579
0.0964349
0.229962
0.229936
0.225644
0.225618
0.0924225
0.0924113
0.0905471
0.0905364
0.246105
0.281926
0.241775
0.277576
0.0982907
0.111438
0.0964023
0.109525
0.345251
0.375715
0.340872
0.371315
0.133775
0.14948
0.131815
0.147486
0.382813
0.352315
0.379637
0.349141
0.15271
0.136941
0.151265
0.135516
0.28894
0.253057
0.285773
0.249894
0.114519
0.101312
0.113123
0.0999321
0.23682
0.236793
0.233663
0.233636
0.0953893
0.0953775
0.0940183
0.0940068
0.252975
0.288808
0.249814
0.285644
0.101276
0.114459
0.0998973
0.113065
0.352145
0.38262
0.348975
0.379448
0.136858
0.152609
0.135436
0.151167
0.387601
0.357122
0.385437
0.354945
0.154887
0.139094
0.153898
0.138113
0.293772
0.2579
0.291583
0.255703
0.116639
0.103414
0.115673
0.102455
0.241665
0.241636
0.239466
0.239438
0.09748
0.0974676
0.0965254
0.0965133
0.257815
0.293635
0.25562
0.291448
0.103376
0.116577
0.102418
0.115612
0.356946
0.387402
0.354771
0.38524
0.139008
0.154783
0.138029
0.153795
0.390655
0.360221
0.389311
0.358852
0.156286
0.140485
0.155664
0.139864
0.296927
0.261088
0.295531
0.259675
0.118024
0.104794
0.117406
0.104176
0.244866
0.244836
0.243445
0.243416
0.0988565
0.0988438
0.0982396
0.098227
0.261
0.296786
0.259588
0.295393
0.104755
0.11796
0.104138
0.117342
0.36004
0.390451
0.358673
0.389108
0.140396
0.156178
0.139777
0.155558
0.39232
0.361953
0.391632
0.361229
0.157062
0.141267
0.156734
0.140934
0.298739
0.262951
0.297977
0.262162
0.11882
0.105597
0.118479
0.105251
0.246752
0.246722
0.245951
0.245921
0.0996629
0.0996498
0.0993142
0.0993013
0.262861
0.298596
0.262074
0.297835
0.105558
0.118754
0.105212
0.118414
0.361769
0.392112
0.361046
0.391424
0.141177
0.156952
0.140844
0.156624
0.392872
0.362595
0.392709
0.362384
0.157338
0.141562
0.157248
0.141459
0.299488
0.263766
0.299227
0.26347
0.11915
0.105946
0.119028
0.105813
0.247599
0.247569
0.247286
0.247256
0.10002
0.100007
0.0998824
0.0998692
0.263676
0.299344
0.263381
0.299083
0.105906
0.119083
0.105774
0.118962
0.362409
0.392662
0.362199
0.392499
0.141471
0.157227
0.141368
0.157137
0.392577
0.362407
0.392808
0.36258
0.157249
0.141495
0.157326
0.141558
0.29942
0.263773
0.299535
0.263851
0.119127
0.105946
0.119165
0.105973
0.247642
0.247612
0.247702
0.247672
0.100031
0.100018
0.100052
0.100039
0.263682
0.299275
0.263761
0.29939
0.105906
0.11906
0.105933
0.119099
0.36222
0.392366
0.362393
0.392597
0.141403
0.157137
0.141466
0.157215
0.391585
0.361542
0.392146
0.362038
0.156845
0.141124
0.15707
0.141332
0.298699
0.263144
0.299129
0.263529
0.118817
0.105672
0.118996
0.105834
0.247059
0.247028
0.247421
0.24739
0.0997731
0.0997597
0.0999273
0.099914
0.263054
0.298553
0.263438
0.298983
0.105631
0.11875
0.105794
0.11893
0.361355
0.391374
0.361851
0.391934
0.141032
0.156733
0.14124
0.156957
0.390054
0.360159
0.39087
0.360899
0.156209
0.140527
0.156544
0.140841
0.297473
0.262019
0.298138
0.262633
0.118292
0.105185
0.11857
0.105443
0.245983
0.245953
0.246572
0.246541
0.099305
0.0992916
0.099553
0.0995397
0.261929
0.297328
0.262542
0.297992
0.105145
0.118225
0.105403
0.118503
0.359973
0.389844
0.360712
0.390658
0.140435
0.156097
0.140749
0.156431
0.388088
0.358361
0.389111
0.359297
0.155386
0.139748
0.155809
0.140148
0.29585
0.260507
0.296702
0.261304
0.117595
0.104533
0.117954
0.104869
0.244526
0.244495
0.245294
0.245264
0.0986744
0.0986612
0.0989993
0.098986
0.260417
0.295706
0.261213
0.296558
0.104493
0.117529
0.104829
0.117888
0.358176
0.38788
0.359111
0.3889
0.139657
0.155275
0.140057
0.155698
0.385762
0.356223
0.386958
0.357322
0.154408
0.138821
0.154906
0.139292
0.293902
0.25868
0.294909
0.259627
0.116759
0.103747
0.117185
0.104147
0.242759
0.242729
0.243675
0.243645
0.097912
0.0978989
0.0982997
0.0982866
0.258591
0.293759
0.259537
0.294766
0.103708
0.116694
0.104108
0.117119
0.35604
0.385555
0.357138
0.386749
0.138731
0.154299
0.139201
0.154795
0.383124
0.353795
0.384471
0.355034
0.153299
0.137766
0.15386
0.138299
0.29168
0.25659
0.29282
0.257663
0.115806
0.102848
0.116289
0.103303
0.240733
0.240703
0.241773
0.241743
0.0970389
0.0970259
0.09748
0.097467
0.256501
0.291539
0.257575
0.292678
0.102809
0.115741
0.103264
0.116223
0.353614
0.38292
0.354852
0.384264
0.137677
0.15319
0.138209
0.153751
0.380205
0.35111
0.381689
0.352475
0.152071
0.136598
0.15269
0.137186
0.289216
0.254267
0.290474
0.255453
0.114749
0.10185
0.115282
0.102353
0.238479
0.238449
0.23963
0.239601
0.0960684
0.0960556
0.096557
0.0965442
0.25418
0.289077
0.255366
0.290334
0.101812
0.114685
0.102314
0.115218
0.350931
0.380004
0.352295
0.381486
0.136511
0.151964
0.137098
0.152582
0.377025
0.348185
0.378639
0.349668
0.150733
0.135326
0.151407
0.135966
0.28653
0.251731
0.287897
0.253023
0.113596
0.10076
0.114177
0.101309
0.236017
0.235988
0.237271
0.237242
0.0950082
0.0949956
0.0955412
0.0955285
0.251645
0.286393
0.252936
0.287759
0.100722
0.113533
0.10127
0.114113
0.34801
0.376828
0.349491
0.378438
0.135239
0.150628
0.135878
0.151301
0.373593
0.345031
0.375332
0.346629
0.149289
0.133952
0.150016
0.134642
0.28363
0.248991
0.285104
0.250384
0.112351
0.0995824
0.112978
0.100175
0.233355
0.233327
0.234708
0.23468
0.0938619
0.0938496
0.0944379
0.0944255
0.248907
0.283495
0.250299
0.284968
0.0995453
0.112289
0.100137
0.112915
0.344859
0.373399
0.346455
0.375135
0.133867
0.149186
0.134557
0.149912
0.369909
0.34165
0.371774
0.343361
0.14774
0.132477
0.14852
0.133218
0.280518
0.246049
0.282098
0.247543
0.111014
0.0983171
0.111687
0.0989534
0.230496
0.230468
0.231948
0.23192
0.0926301
0.092618
0.0932492
0.093237
0.245966
0.280386
0.24746
0.281965
0.0982807
0.110954
0.0989166
0.111626
0.341481
0.369719
0.34319
0.37158
0.132394
0.147639
0.133134
0.148417
0.36597
0.338036
0.367963
0.339864
0.146083
0.1309
0.146917
0.131693
0.277189
0.242899
0.278879
0.244498
0.109584
0.0969622
0.110304
0.0976439
0.227433
0.227406
0.228989
0.228961
0.0913106
0.0912987
0.0919741
0.0919621
0.242818
0.27706
0.244417
0.278748
0.0969265
0.109525
0.0976079
0.110244
0.33787
0.365784
0.339697
0.367774
0.130819
0.145984
0.131611
0.146817
0.361769
0.33418
0.363895
0.336131
0.144316
0.129216
0.145206
0.130063
0.273633
0.239531
0.275438
0.241241
0.108055
0.095513
0.108825
0.0962428
0.224158
0.224131
0.225822
0.225795
0.0898988
0.0898872
0.0906094
0.0905977
0.239452
0.273507
0.241162
0.27531
0.0954782
0.107997
0.0962076
0.108767
0.334019
0.361587
0.335967
0.36371
0.129137
0.144219
0.129983
0.145108
0.35729
0.330067
0.359557
0.332149
0.14243
0.127418
0.143381
0.128324
0.269833
0.235928
0.271763
0.237759
0.106421
0.0939626
0.107245
0.0947443
0.220652
0.220625
0.222433
0.222407
0.0883877
0.0883764
0.0891492
0.0891378
0.235851
0.26971
0.237681
0.271638
0.0939286
0.106365
0.0947099
0.107188
0.329909
0.357113
0.331989
0.359376
0.12734
0.142336
0.128245
0.143285
0.352516
0.325674
0.354933
0.327899
0.140417
0.125495
0.141433
0.126465
0.265767
0.232067
0.267833
0.23403
0.104672
0.092301
0.105555
0.0931399
0.216892
0.216866
0.218804
0.218778
0.0867676
0.0867566
0.0875852
0.0875741
0.231992
0.265647
0.233954
0.267711
0.092268
0.104617
0.0931064
0.1055
0.325521
0.352343
0.327744
0.354758
0.12542
0.140326
0.126389
0.14134
0.34742
0.320975
0.350002
0.323357
0.138266
0.123439
0.139353
0.124476
0.261405
0.227918
0.263623
0.230029
0.102795
0.0905155
0.103744
0.0914184
0.212848
0.212823
0.214906
0.214881
0.0850257
0.0850151
0.0859063
0.0858955
0.227845
0.261288
0.229955
0.263505
0.0904836
0.102742
0.0913859
0.10369
0.320826
0.347253
0.323206
0.349831
0.123366
0.138177
0.124402
0.139262
0.34197
0.315931
0.344734
0.318491
0.13596
0.121236
0.137127
0.12235
0.256709
0.223441
0.259099
0.225722
0.100774
0.0885895
0.101798
0.0895653
0.208481
0.208457
0.210706
0.210682
0.0831455
0.0831353
0.0840978
0.0840874
0.223371
0.256596
0.22565
0.258985
0.0885586
0.100723
0.0895339
0.101746
0.315787
0.341809
0.318344
0.344569
0.121165
0.135875
0.122279
0.13704
0.336123
0.310495
0.339092
0.313258
0.133479
0.11886
0.134737
0.120064
0.251629
0.218588
0.254218
0.221064
0.0985872
0.0865015
0.0996973
0.0875614
0.203741
0.203718
0.20616
0.206136
0.0811059
0.0810961
0.082141
0.082131
0.21852
0.25152
0.220995
0.254108
0.0864718
0.0985379
0.0875312
0.099647
0.310357
0.335967
0.313116
0.338932
0.118792
0.133397
0.119995
0.134653
0.329823
0.304611
0.333026
0.307606
0.130796
0.116285
0.132158
0.117592
0.246107
0.213298
0.248926
0.216
0.0962086
0.084226
0.0974183
0.0853835
0.198569
0.198547
0.201212
0.201189
0.0788817
0.0788723
0.0800129
0.0800033
0.213233
0.246003
0.215934
0.248819
0.0841977
0.0961614
0.0853545
0.0973701
0.304478
0.329674
0.30747
0.332873
0.116221
0.130717
0.117526
0.132078
0.323003
0.298209
0.326475
0.301472
0.127877
0.113483
0.129362
0.114908
0.240073
0.207501
0.243157
0.210467
0.0936073
0.0817324
0.0949328
0.0830034
0.192893
0.192872
0.195798
0.195776
0.0764421
0.0764332
0.0776854
0.0776763
0.207439
0.239974
0.210403
0.243055
0.0817055
0.0935625
0.0829757
0.0948868
0.298082
0.322861
0.301342
0.326329
0.113422
0.127802
0.114845
0.129285
0.315585
0.29121
0.319367
0.294782
0.124684
0.11042
0.126312
0.11198
0.233444
0.201109
0.236837
0.204384
0.0907471
0.0789832
0.0922073
0.0803874
0.186623
0.186604
0.189837
0.189817
0.0737498
0.0737414
0.075125
0.0751164
0.20105
0.233349
0.204324
0.23674
0.0789579
0.0907049
0.0803613
0.0921638
0.29109
0.31545
0.294658
0.319228
0.110362
0.124614
0.11192
0.126239
0.307491
0.283528
0.311619
0.287453
0.121174
0.107061
0.122966
0.108774
0.226116
0.194007
0.229873
0.197654
0.0875835
0.0759306
0.089202
0.0774938
0.179642
0.179623
0.183229
0.18321
0.070756
0.0707483
0.0722893
0.0722812
0.193952
0.226028
0.197597
0.229782
0.0759072
0.0875443
0.0774694
0.0891613
0.283416
0.307365
0.287336
0.311488
0.107007
0.121108
0.108717
0.122898
0.298723
0.275071
0.303175
0.279398
0.117328
0.103381
0.119286
0.105257
0.217922
0.186013
0.222142
0.190136
0.0840508
0.072504
0.0858652
0.0742656
0.171774
0.171757
0.175831
0.175813
0.0673941
0.0673872
0.0691215
0.0691141
0.185963
0.217841
0.190084
0.222058
0.0724828
0.0840151
0.0742433
0.0858277
0.274967
0.298606
0.279289
0.303053
0.103332
0.117267
0.105205
0.119222
0.289818
0.265469
0.294183
0.27047
0.113319
0.0993163
0.115307
0.101407
0.208367
0.176774
0.213376
0.18158
0.079981
0.0685828
0.0820995
0.0706112
0.162778
0.162763
0.167431
0.167415
0.0635843
0.0635782
0.065545
0.0655385
0.176729
0.208294
0.181533
0.213299
0.0685641
0.0799493
0.0705912
0.0820657
0.265375
0.289712
0.27037
0.294071
0.0992719
0.113264
0.10136
0.115249
0.285095
0.250744
0.286315
0.259553
0.109761
0.0933336
0.111504
0.09687
0.195657
0.165785
0.202602
0.171511
0.0747897
0.0640363
0.0775846
0.0663825
0.152547
0.152534
0.1578
0.157786
0.0593356
0.0593304
0.0614992
0.0614936
0.165746
0.195593
0.171468
0.202533
0.0640203
0.0747625
0.0663652
0.0775551
0.250662
0.285
0.259464
0.286214
0.0932956
0.109714
0.0968285
0.111453
0.181695
0.153706
0.113773
0.096371
0.155071
0.13042
0.0926199
0.0786447
0.0910648
0.0528399
0.0460223
0.018374
0.0727872
0.0386002
0.0341181
0.0110671
0.0338861
0.0338882
0.00764851
0.00765174
0.0211374
0.0211412
0.00492856
0.00493004
0.0528367
0.0910498
0.0183815
0.046019
0.0386016
0.0727792
0.0110725
0.0341189
0.153679
0.181661
0.0963567
0.113749
0.130403
0.155047
0.0786375
0.0926056
0.275088
0.2394
0.233047
0.200039
0.236953
0.204642
0.200596
0.170913
0.16736
0.123103
0.131181
0.0888418
0.137351
0.0969675
0.10685
0.068299
0.10233
0.102322
0.0687335
0.0687299
0.0782644
0.0782595
0.0501215
0.0501202
0.123079
0.167317
0.0888276
0.131153
0.0969508
0.13732
0.0682912
0.106831
0.239342
0.275021
0.199998
0.232997
0.204598
0.2369
0.170883
0.200558
0.344435
0.306014
0.311688
0.274361
0.296
0.261087
0.268197
0.234324
0.230875
0.184782
0.200436
0.155081
0.190703
0.148699
0.165149
0.12379
0.163214
0.1632
0.13386
0.133849
0.12941
0.1294
0.104765
0.104757
0.184739
0.230805
0.155047
0.20038
0.148666
0.190647
0.123765
0.165106
0.305923
0.344333
0.274287
0.311603
0.261014
0.295917
0.234265
0.268129
0.400956
0.361213
0.374027
0.334843
0.343921
0.307722
0.321087
0.285439
0.284683
0.237629
0.258893
0.212258
0.235882
0.192998
0.21422
0.17173
0.215538
0.215518
0.190405
0.190388
0.173263
0.173247
0.152206
0.152192
0.237569
0.284589
0.212206
0.25881
0.19295
0.235804
0.171689
0.214153
0.361094
0.400823
0.334738
0.373909
0.307622
0.343807
0.285352
0.320987
0.447664
0.407196
0.42542
0.385266
0.383569
0.346623
0.364677
0.328059
0.329981
0.282348
0.308338
0.260959
0.273975
0.230508
0.255764
0.21256
0.259898
0.259873
0.238671
0.238648
0.210432
0.210411
0.192641
0.192623
0.282275
0.329866
0.260893
0.308232
0.230448
0.273877
0.212506
0.255676
0.407052
0.447505
0.385133
0.425273
0.346499
0.38343
0.327947
0.364549
0.485966
0.445092
0.467778
0.42708
0.416149
0.378745
0.400669
0.363469
0.367568
0.319598
0.349683
0.301859
0.30564
0.261795
0.290564
0.246889
0.296913
0.296884
0.279278
0.279251
0.241477
0.241453
0.22668
0.226658
0.319513
0.367435
0.30178
0.349559
0.261724
0.305527
0.246823
0.290458
0.444928
0.485786
0.426925
0.467608
0.378601
0.415988
0.363334
0.400518
0.51693
0.475837
0.502288
0.461289
0.442531
0.40485
0.43005
0.392491
0.398222
0.350074
0.383707
0.335634
0.331505
0.287424
0.319252
0.275275
0.327247
0.327215
0.312869
0.312838
0.266945
0.266918
0.254868
0.254843
0.349981
0.398076
0.335544
0.383567
0.287344
0.331377
0.275199
0.319131
0.475657
0.516733
0.461116
0.502098
0.404689
0.442352
0.392338
0.429878
0.541524
0.50033
0.529953
0.4888
0.46351
0.425667
0.453636
0.415863
0.422751
0.374529
0.411199
0.363005
0.352219
0.308003
0.34246
0.298303
0.351623
0.351588
0.340132
0.340099
0.287423
0.287393
0.277767
0.277738
0.374428
0.422593
0.362908
0.411047
0.307915
0.35208
0.298218
0.342326
0.500137
0.541314
0.488613
0.529748
0.425492
0.463315
0.415695
0.453447
0.560626
0.519407
0.551694
0.510482
0.479809
0.441887
0.472185
0.434296
0.441939
0.393712
0.43296
0.384731
0.368426
0.324146
0.36084
0.316586
0.37077
0.370733
0.361802
0.361766
0.303507
0.303475
0.295973
0.295942
0.393604
0.441771
0.384626
0.432797
0.324051
0.368277
0.316495
0.360695
0.519202
0.560405
0.510282
0.551476
0.441699
0.479602
0.434114
0.471982
0.575072
0.533877
0.56837
0.52716
0.492134
0.454186
0.486414
0.448475
0.456563
0.408376
0.449773
0.401564
0.380771
0.336476
0.375038
0.330747
0.385429
0.38539
0.378616
0.378578
0.31581
0.315776
0.310091
0.310058
0.408263
0.456388
0.401453
0.449602
0.336376
0.380613
0.330649
0.374884
0.533664
0.574842
0.52695
0.568142
0.453989
0.491916
0.448282
0.4862
0.585611
0.544476
0.580772
0.539606
0.501117
0.463186
0.496991
0.459049
0.467342
0.419226
0.462389
0.414236
0.389857
0.345584
0.38568
0.341394
0.396294
0.396254
0.391294
0.391255
0.324914
0.324878
0.320724
0.320689
0.419109
0.467161
0.41412
0.46221
0.345479
0.389692
0.341292
0.385519
0.544256
0.585373
0.539388
0.580535
0.462981
0.50089
0.458847
0.496767
0.592927
0.551879
0.589622
0.54853
0.507343
0.469461
0.504529
0.466621
0.474941
0.426917
0.471501
0.42343
0.396246
0.352022
0.393353
0.349102
0.404016
0.403975
0.400512
0.400471
0.331364
0.331328
0.328437
0.328401
0.426796
0.474754
0.423311
0.471316
0.351914
0.396077
0.348996
0.393185
0.551653
0.592685
0.548306
0.589379
0.46925
0.50711
0.466412
0.504297
0.597613
0.556675
0.595553
0.554559
0.51132
0.473514
0.50957
0.471725
0.479943
0.432027
0.477732
0.429763
0.400436
0.356281
0.398584
0.354393
0.40917
0.409127
0.406883
0.406841
0.335649
0.335612
0.333747
0.33371
0.431904
0.479752
0.42964
0.477544
0.35617
0.400262
0.354283
0.398412
0.556444
0.597367
0.55433
0.595305
0.473297
0.511081
0.47151
0.509332
0.600188
0.559378
0.599125
0.55825
0.513492
0.475785
0.512594
0.474836
0.482861
0.435066
0.481634
0.43378
0.402862
0.358793
0.401842
0.357729
0.41226
0.412217
0.410947
0.410904
0.338198
0.33816
0.337115
0.337077
0.434941
0.482668
0.433655
0.481443
0.35868
0.402686
0.357618
0.401667
0.559145
0.599939
0.558018
0.598874
0.475566
0.513251
0.474618
0.512352
0.601073
0.560411
0.600807
0.56007
0.514221
0.476635
0.514004
0.476356
0.484121
0.43646
0.483675
0.435948
0.403888
0.359921
0.403527
0.359509
0.413715
0.413672
0.413172
0.413129
0.339373
0.339334
0.338936
0.338898
0.436334
0.483927
0.435822
0.483482
0.359807
0.403709
0.359395
0.403349
0.560176
0.600823
0.559835
0.600554
0.476414
0.513978
0.476136
0.513759
0.60065
0.560153
0.600994
0.560412
0.51384
0.476395
0.514141
0.476622
0.484095
0.436573
0.484248
0.436659
0.403832
0.359976
0.403973
0.360063
0.413892
0.413849
0.413947
0.413903
0.339479
0.33944
0.33954
0.339501
0.436446
0.4839
0.436532
0.484053
0.359862
0.403653
0.359948
0.403794
0.559918
0.600399
0.560177
0.600741
0.476173
0.513596
0.4764
0.513895
0.599168
0.558857
0.600015
0.559611
0.512556
0.475273
0.513285
0.47592
0.483048
0.435682
0.483688
0.436246
0.402917
0.359189
0.403469
0.359678
0.413076
0.413033
0.413604
0.41356
0.338754
0.338714
0.339212
0.339173
0.435555
0.482853
0.436119
0.483493
0.359074
0.402737
0.359564
0.403289
0.558622
0.598918
0.559376
0.599762
0.475051
0.512313
0.475698
0.513038
0.596855
0.556749
0.598094
0.557885
0.510567
0.473467
0.511629
0.474436
0.4812
0.433998
0.482215
0.434931
0.40133
0.35774
0.402195
0.358536
0.411471
0.411428
0.412364
0.412321
0.337371
0.337332
0.338133
0.338094
0.433871
0.481006
0.434804
0.48202
0.357626
0.401151
0.358422
0.402016
0.556516
0.596607
0.557651
0.597843
0.473246
0.510325
0.474214
0.511383
0.593872
0.553994
0.595429
0.555436
0.50801
0.471116
0.509341
0.472342
0.47872
0.431692
0.480033
0.432919
0.399214
0.355774
0.400329
0.356814
0.409251
0.409208
0.410434
0.410391
0.335477
0.335438
0.336481
0.336442
0.431567
0.478527
0.432793
0.47984
0.35566
0.399037
0.3567
0.400151
0.553763
0.593626
0.555204
0.595179
0.470896
0.50777
0.472122
0.509097
0.590337
0.55071
0.592158
0.552405
0.504983
0.468317
0.506539
0.469758
0.475725
0.428884
0.477284
0.43035
0.396668
0.353388
0.397989
0.354628
0.406534
0.406491
0.407953
0.40791
0.33317
0.333132
0.334371
0.334332
0.428759
0.475534
0.430225
0.477092
0.353276
0.396492
0.354515
0.397812
0.550481
0.590094
0.552175
0.591911
0.4681
0.504745
0.469539
0.506298
0.586327
0.546975
0.588378
0.548887
0.501551
0.465138
0.503303
0.466762
0.472297
0.425653
0.474064
0.427322
0.393759
0.350651
0.395254
0.35206
0.4034
0.403358
0.40502
0.404977
0.330518
0.33048
0.331884
0.331846
0.425531
0.472109
0.427198
0.473875
0.35054
0.393585
0.351949
0.39508
0.546749
0.586088
0.54866
0.588134
0.464923
0.501317
0.466546
0.503065
0.581893
0.542841
0.584152
0.544948
0.497758
0.461621
0.499687
0.46341
0.468488
0.422055
0.470441
0.423902
0.39053
0.347606
0.392181
0.349165
0.399905
0.399863
0.401701
0.401658
0.327563
0.327525
0.329076
0.329038
0.421933
0.468303
0.42378
0.470254
0.347497
0.390359
0.349055
0.392009
0.542619
0.581658
0.544724
0.583912
0.46141
0.497527
0.463197
0.499452
0.577067
0.538341
0.579519
0.540629
0.493627
0.457793
0.495722
0.459735
0.464331
0.418119
0.466455
0.420133
0.387008
0.34428
0.388803
0.345977
0.396079
0.396038
0.398037
0.397996
0.324332
0.324295
0.325981
0.325944
0.418
0.464148
0.420012
0.466271
0.344172
0.386839
0.345869
0.388633
0.538123
0.576836
0.540408
0.579283
0.457585
0.4934
0.459525
0.495491
0.571863
0.533488
0.574503
0.535951
0.489171
0.453665
0.491428
0.455757
0.45984
0.413862
0.46213
0.416036
0.383204
0.340683
0.38514
0.342515
0.391938
0.391897
0.394053
0.394012
0.320838
0.320801
0.322618
0.322581
0.413745
0.45966
0.415917
0.461949
0.340577
0.383039
0.342408
0.384973
0.533274
0.571636
0.535734
0.574271
0.453461
0.488948
0.45555
0.491201
0.566283
0.528287
0.569111
0.530924
0.484393
0.449241
0.486812
0.451481
0.455018
0.409286
0.457474
0.411619
0.379122
0.33682
0.381197
0.338786
0.387484
0.387444
0.389755
0.389715
0.317082
0.317046
0.318993
0.318957
0.409171
0.454842
0.411503
0.457296
0.336716
0.37896
0.338681
0.381033
0.528076
0.566061
0.530711
0.568884
0.449041
0.484175
0.451279
0.486589
0.560322
0.522728
0.563342
0.525546
0.479288
0.444514
0.481871
0.446907
0.449856
0.404382
0.452484
0.406881
0.374754
0.332682
0.376974
0.334786
0.382707
0.382668
0.385141
0.385102
0.313057
0.313022
0.315104
0.315069
0.404269
0.449683
0.406767
0.452309
0.33258
0.374595
0.334683
0.376813
0.522522
0.560105
0.525337
0.56312
0.444318
0.479074
0.446708
0.481653
0.553965
0.516795
0.557185
0.519803
0.473843
0.439469
0.476598
0.442023
0.444336
0.399131
0.447146
0.401806
0.370086
0.328255
0.372458
0.330506
0.377589
0.377551
0.380197
0.380158
0.308748
0.308714
0.310939
0.310905
0.399021
0.444167
0.401695
0.446975
0.328155
0.36993
0.330405
0.372301
0.516594
0.553753
0.519599
0.556968
0.439278
0.473634
0.441829
0.476385
0.547189
0.510463
0.550622
0.513674
0.46804
0.434088
0.470977
0.436813
0.438431
0.393504
0.441437
0.396371
0.365095
0.323515
0.367632
0.325926
0.3721
0.372063
0.374898
0.37486
0.304131
0.304098
0.30648
0.306446
0.393396
0.438266
0.396262
0.44127
0.323417
0.364943
0.325827
0.367478
0.510266
0.546982
0.513474
0.55041
0.433901
0.467837
0.436624
0.470769
0.539962
0.503694
0.543625
0.507128
0.461854
0.428342
0.464987
0.431253
0.432101
0.387461
0.435325
0.390542
0.359751
0.31843
0.362469
0.321018
0.3662
0.366163
0.369209
0.369172
0.299175
0.299142
0.301698
0.301665
0.387356
0.431941
0.390435
0.435162
0.318335
0.359603
0.320922
0.362319
0.503503
0.53976
0.506934
0.543418
0.42816
0.461656
0.431069
0.464784
0.532244
0.496449
0.536158
0.500125
0.455249
0.422191
0.458595
0.425311
0.4253
0.380952
0.428766
0.384273
0.354013
0.312959
0.356933
0.315746
0.359837
0.359801
0.363084
0.363048
0.293836
0.293804
0.296556
0.296524
0.380849
0.425144
0.384169
0.428607
0.312866
0.353869
0.315652
0.356788
0.496263
0.532048
0.499937
0.535957
0.422014
0.455057
0.425131
0.458398
0.523979
0.48867
0.528175
0.492624
0.448183
0.415585
0.451766
0.418939
0.417964
0.373911
0.421706
0.377507
0.347829
0.307047
0.35098
0.310062
0.352945
0.35291
0.356465
0.35643
0.288061
0.28803
0.291007
0.290976
0.373812
0.417813
0.377406
0.421552
0.306958
0.347689
0.309971
0.350838
0.48849
0.523789
0.492441
0.52798
0.415414
0.447997
0.418765
0.451576
0.515097
0.480277
0.519611
0.484548
0.440597
0.408466
0.444449
0.412085
0.410015
0.366259
0.414074
0.370171
0.341134
0.30063
0.344549
0.303907
0.345444
0.34541
0.34928
0.349246
0.281782
0.281753
0.284989
0.284959
0.366163
0.409868
0.370073
0.413925
0.300543
0.340999
0.303819
0.344412
0.480103
0.514914
0.48437
0.519422
0.408301
0.440418
0.411917
0.444265
0.505521
0.471184
0.510393
0.475816
0.432422
0.400757
0.436578
0.404681
0.40136
0.357901
0.405784
0.362179
0.333849
0.293626
0.33757
0.297207
0.337237
0.337205
0.341439
0.341406
0.27492
0.274892
0.27843
0.278401
0.357808
0.401219
0.362084
0.40564
0.293543
0.33372
0.297122
0.337438
0.471016
0.505345
0.475645
0.510211
0.400599
0.43225
0.404519
0.436401
0.495158
0.461294
0.500435
0.466337
0.423575
0.392372
0.428078
0.396646
0.391893
0.348723
0.396737
0.353426
0.325883
0.285939
0.329957
0.289875
0.32821
0.328179
0.332837
0.332806
0.267377
0.26735
0.271241
0.271213
0.348635
0.391757
0.353335
0.396599
0.28586
0.325759
0.289793
0.32983
0.461133
0.494989
0.466173
0.50026
0.39222
0.42341
0.396491
0.427908
0.483915
0.4505
0.489642
0.456008
0.413968
0.383213
0.418861
0.387886
0.381489
0.338591
0.386818
0.343789
0.317127
0.277454
0.32161
0.281805
0.31822
0.318191
0.323348
0.323318
0.259033
0.259007
0.263314
0.263287
0.338506
0.38136
0.343702
0.386686
0.277379
0.317009
0.281728
0.32149
0.450346
0.483754
0.455851
0.489475
0.383069
0.413811
0.387738
0.418699
0.471741
0.438705
0.477935
0.444725
0.403533
0.373182
0.408845
0.378304
0.370001
0.327326
0.375893
0.333116
0.307447
0.268017
0.312411
0.272866
0.30708
0.307052
0.312811
0.312782
0.249727
0.249703
0.254512
0.254487
0.327246
0.369879
0.333034
0.375767
0.267946
0.307336
0.272793
0.312297
0.43856
0.471589
0.444575
0.477776
0.373046
0.403385
0.378164
0.408692
0.458788
0.425833
0.465324
0.432401
0.392343
0.362175
0.398004
0.3678
0.357195
0.314651
0.363787
0.321191
0.296626
0.257386
0.302199
0.262871
0.294515
0.294489
0.300999
0.300973
0.239227
0.239205
0.244644
0.244621
0.314576
0.357081
0.321114
0.363669
0.25732
0.296524
0.262803
0.302093
0.425698
0.458645
0.43226
0.465174
0.36205
0.392206
0.367669
0.39786
0.446268
0.411538
0.452273
0.418922
0.381262
0.349779
0.386635
0.356214
0.34241
0.300044
0.350133
0.307637
0.28405
0.245108
0.290632
0.251492
0.280135
0.280111
0.287579
0.287554
0.227211
0.227191
0.233429
0.233407
0.299976
0.342306
0.307566
0.350024
0.245048
0.283957
0.25143
0.290534
0.411413
0.446137
0.418792
0.452134
0.349664
0.381137
0.356094
0.386502
0.442018
0.390968
0.441983
0.403071
0.376549
0.331423
0.377187
0.342284
0.323328
0.28276
0.333663
0.291763
0.26763
0.230561
0.276545
0.238133
0.263691
0.26367
0.272159
0.272137
0.213508
0.21349
0.220553
0.220534
0.2827
0.323235
0.291698
0.333564
0.230508
0.267548
0.238078
0.276457
0.390857
0.441899
0.402953
0.441857
0.331322
0.376436
0.342176
0.377067
0.216704
0.1853
0.142411
0.121329
0.201391
0.171347
0.129837
0.110178
0.117659
0.0758484
0.0644793
0.0313096
0.105693
0.0652442
0.0560311
0.025196
0.0560333
0.0560308
0.0148851
0.0148897
0.0457086
0.0457087
0.0111089
0.0111126
0.0758351
0.117629
0.0313117
0.0644653
0.0652362
0.10567
0.0252012
0.0560229
0.185254
0.216648
0.121298
0.142368
0.171311
0.201346
0.110156
0.129804
0.325606
0.286792
0.275648
0.239425
0.303405
0.265798
0.256987
0.222027
0.210645
0.163091
0.166161
0.120515
0.19121
0.144874
0.150473
0.106063
0.140559
0.140547
0.0988652
0.0988571
0.122985
0.122975
0.0849674
0.0849615
0.163053
0.21058
0.120488
0.166114
0.144843
0.191157
0.106042
0.150435
0.286709
0.325511
0.239361
0.275573
0.265727
0.303323
0.221974
0.256924
0.410151
0.368662
0.370003
0.329581
0.381048
0.340715
0.344275
0.305033
0.289712
0.240244
0.251718
0.203022
0.263156
0.21491
0.228634
0.181159
0.216722
0.216701
0.17992
0.179903
0.192102
0.192084
0.158745
0.158731
0.240183
0.289616
0.202972
0.251637
0.214858
0.263073
0.181117
0.228565
0.368542
0.410018
0.329479
0.369888
0.340609
0.380929
0.304944
0.344174
0.47986
0.437138
0.446616
0.404402
0.444691
0.403069
0.414357
0.373274
0.357061
0.306651