/*--------------------------------*- C++ -*----------------------------------*\
  =========                 |
  \\      /  F ield         | OpenFOAM: The Open Source CFD Toolbox
   \\    /   O peration     | Website:  https://openfoam.org
    \\  /    A nd           | Version:  9
     \\/     M anipulation  |
\*---------------------------------------------------------------------------*/
FoamFile
{
    format      ascii;
    class       volScalarField;
    location    "3.45";
    object      k;
}
// * * * * * * * * * * * * * * * * * * * * * * * * * * * * * * * * * * * * * //

dimensions      [0 2 -2 0 0 0 0];

internalField   nonuniform List<scalar> 
36360
(
0.112328
0.0941955
0.0602046
0.0533405
0.0304524
0.0250869
0.0091175
0.009981
0.046609
0.0201142
0.0188809
0.005677
0.0109701
0.00450739
0.00448976
0.00304317
0.00847758
0.00848175
0.00316593
0.00316683
0.00270766
0.00270855
0.00290552
0.00290541
0.0201219
0.0466104
0.00567973
0.0188863
0.00450948
0.0109727
0.00304351
0.00449063
0.0941913
0.112319
0.0533423
0.0602021
0.0250872
0.0304516
0.00998248
0.00911775
0.175897
0.150548
0.148369
0.125399
0.0603247
0.0488851
0.0475165
0.0380497
0.0935928
0.0610787
0.0714553
0.040499
0.0305076
0.0185387
0.0211524
0.00989143
0.0463019
0.0463012
0.0257094
0.0257122
0.0126212
0.0126225
0.00538054
0.0053821
0.0610736
0.0935795
0.0405006
0.0714501
0.0185395
0.0305051
0.00989485
0.0211531
0.150526
0.175869
0.125386
0.148352
0.0488782
0.0603148
0.038047
0.0475115
0.219052
0.191538
0.198892
0.172227
0.0796212
0.0664392
0.0706779
0.0581723
0.131895
0.0982497
0.113621
0.0804092
0.0467097
0.0346231
0.0389756
0.0269177
0.0832764
0.0832711
0.0655544
0.0655512
0.0292064
0.0292053
0.0213537
0.0213536
0.0982325
0.131864
0.080398
0.113599
0.0346184
0.0466996
0.0269157
0.0389694
0.191494
0.218999
0.172194
0.198852
0.0664225
0.0795997
0.0581607
0.0706623
0.253395
0.224824
0.23708
0.208968
0.0948046
0.0807676
0.0875901
0.0739235
0.163889
0.129607
0.148597
0.11461
0.0603133
0.0480759
0.0537967
0.0416481
0.114345
0.114336
0.0994957
0.0994884
0.0426658
0.0426628
0.036261
0.0362589
0.129578
0.16384
0.114587
0.148557
0.0480661
0.0602952
0.0416408
0.0537825
0.224758
0.253318
0.208913
0.237015
0.0807404
0.0947707
0.0739015
0.0875623
0.281549
0.252314
0.268163
0.239226
0.107302
0.0927174
0.101349
0.087013
0.19056
0.155797
0.177843
0.143305
0.0717442
0.059303
0.0662815
0.0539431
0.140265
0.140252
0.127902
0.127891
0.0537967
0.0537921
0.048488
0.0484842
0.155759
0.190496
0.143271
0.177786
0.0592884
0.0717185
0.0539309
0.0662596
0.252228
0.281449
0.23915
0.268074
0.0926802
0.107256
0.0869807
0.101309
0.304457
0.274779
0.293604
0.264126
0.117522
0.102562
0.112674
0.0978834
0.21248
0.177369
0.202076
0.167125
0.0812
0.0685736
0.0767031
0.0641651
0.161626
0.16161
0.151479
0.151464
0.062969
0.0629629
0.0586076
0.0586023
0.177321
0.212401
0.167081
0.202004
0.0685547
0.0811675
0.0641483
0.0766739
0.274675
0.304338
0.26403
0.293494
0.102515
0.117465
0.0978415
0.112622
0.322776
0.292807
0.314141
0.284302
0.125722
0.110504
0.121852
0.10675
0.230146
0.194795
0.221807
0.186565
0.0888557
0.0760808
0.0852355
0.0725303
0.178903
0.178885
0.170741
0.170724
0.0703964
0.070389
0.0668831
0.0668764
0.194739
0.230055
0.186513
0.221722
0.0760582
0.088817
0.0725095
0.0851999
0.292688
0.32264
0.28419
0.314012
0.110449
0.125655
0.1067
0.12179
0.337115
0.30696
0.330397
0.300324
0.132153
0.116761
0.129136
0.113822
0.244065
0.208556
0.237537
0.202098
0.0949053
0.0820179
0.0920628
0.0792275
0.192565
0.192544
0.186152
0.186132
0.0762729
0.0762644
0.0735103
0.0735023
0.208493
0.243963
0.202039
0.23744
0.0819919
0.0948613
0.0792031
0.0920214
0.306827
0.336963
0.300197
0.330251
0.116699
0.132077
0.113764
0.129064
0.348038
0.317772
0.342958
0.31274
0.137058
0.12155
0.134773
0.119317
0.254737
0.21913
0.24977
0.214206
0.0995497
0.0865815
0.0973836
0.0844522
0.203077
0.203054
0.19818
0.198158
0.080793
0.0807835
0.0786833
0.0786743
0.219061
0.254625
0.21414
0.249663
0.0865528
0.0995012
0.0844248
0.0973372
0.317627
0.347873
0.3126
0.342799
0.121483
0.136976
0.119252
0.134694
0.356091
0.325769
0.352381
0.322081
0.140679
0.125097
0.139007
0.123457
0.262661
0.227003
0.259006
0.22337
0.102999
0.0899765
0.101404
0.0884058
0.210915
0.21089
0.207296
0.207273
0.0841581
0.0841479
0.0826006
0.0825907
0.22693
0.262542
0.223299
0.258891
0.0899453
0.102947
0.0883758
0.101354
0.325614
0.355915
0.321931
0.35221
0.125024
0.14059
0.123387
0.138921
0.361769
0.331433
0.359186
0.328853
0.143236
0.12761
0.142069
0.126461
0.268306
0.232632
0.265735
0.230066
0.105455
0.0923984
0.104332
0.09129
0.216529
0.216503
0.213968
0.213943
0.0865615
0.0865506
0.0854609
0.0854503
0.232554
0.268181
0.22999
0.265612
0.0923653
0.105399
0.0912578
0.104278
0.331271
0.361586
0.328695
0.359006
0.127533
0.143142
0.126386
0.141977
0.365527
0.335209
0.363853
0.333523
0.144933
0.129285
0.144172
0.128532
0.272102
0.236438
0.270405
0.234734
0.107104
0.094031
0.106362
0.0932953
0.220337
0.22031
0.21863
0.218603
0.0881849
0.0881735
0.0874526
0.0874414
0.236357
0.271972
0.234655
0.270277
0.0939964
0.107046
0.0932615
0.106305
0.335041
0.365337
0.333357
0.363664
0.129205
0.144835
0.128453
0.144075
0.367754
0.337481
0.366799
0.336501
0.145947
0.130295
0.145507
0.129854
0.274426
0.238795
0.273421
0.237772
0.108111
0.0950369
0.107671
0.0945954
0.222708
0.22268
0.221677
0.221649
0.0891889
0.0891772
0.0887473
0.0887357
0.238712
0.274293
0.23769
0.273289
0.0950013
0.108052
0.0945602
0.107612
0.337309
0.367558
0.336331
0.366605
0.130212
0.145847
0.129773
0.145407
0.368782
0.338579
0.368389
0.338149
0.14643
0.130786
0.146238
0.130588
0.275604
0.240022
0.275136
0.239529
0.108621
0.0955563
0.108413
0.0953421
0.223959
0.22393
0.223452
0.223424
0.0897124
0.0897004
0.0894952
0.0894833
0.239938
0.275468
0.239445
0.275001
0.09552
0.10856
0.0953061
0.108353
0.338404
0.368583
0.337975
0.368191
0.130702
0.146327
0.130505
0.146136
0.36888
0.338767
0.36892
0.338762
0.146499
0.130872
0.146499
0.130864
0.275894
0.240379
0.275841
0.240292
0.108744
0.0956988
0.108718
0.0956624
0.224348
0.224319
0.224244
0.224215
0.0898642
0.089852
0.0898224
0.0898103
0.240294
0.275757
0.240207
0.275704
0.0956619
0.108682
0.0956258
0.108657
0.338589
0.36868
0.338585
0.368719
0.130787
0.146395
0.130779
0.146395
0.368285
0.338285
0.368658
0.3386
0.146271
0.130672
0.146419
0.130805
0.275535
0.240098
0.275789
0.240309
0.108594
0.0955762
0.1087
0.0956659
0.224104
0.224075
0.224294
0.224265
0.0897542
0.0897419
0.089836
0.0898238
0.240012
0.275397
0.240223
0.275651
0.0955392
0.108532
0.095629
0.108638
0.338107
0.368084
0.338422
0.368456
0.130587
0.146167
0.130719
0.146314
0.367133
0.337263
0.367759
0.337822
0.145799
0.130233
0.146052
0.130468
0.274652
0.239304
0.275144
0.239751
0.108216
0.0952315
0.10842
0.0954182
0.223355
0.223326
0.223779
0.22375
0.0894253
0.0894131
0.0896034
0.0895912
0.239218
0.274515
0.239665
0.275006
0.0951945
0.108154
0.0953812
0.108359
0.337085
0.366932
0.337643
0.367557
0.130147
0.145695
0.130382
0.145947
0.365559
0.335838
0.366384
0.336586
0.145146
0.129619
0.145484
0.129936
0.273384
0.238135
0.274057
0.238758
0.107675
0.0947295
0.107956
0.0949903
0.222235
0.222207
0.222833
0.222804
0.0889419
0.0889297
0.0891929
0.0891806
0.23805
0.273247
0.238672
0.273919
0.0946926
0.107613
0.0949534
0.107894
0.335661
0.365359
0.336409
0.366182
0.129534
0.145042
0.129851
0.14538
0.363643
0.334092
0.36463
0.334992
0.144348
0.128867
0.144755
0.12925
0.271811
0.236672
0.272627
0.237434
0.107004
0.0941033
0.107346
0.0944228
0.220827
0.220798
0.22156
0.221532
0.0883369
0.0883248
0.0886452
0.0886331
0.236588
0.271675
0.237349
0.272491
0.0940668
0.106943
0.0943861
0.107285
0.333917
0.363445
0.334816
0.36443
0.128782
0.144246
0.129165
0.144651
0.361444
0.332084
0.362568
0.33311
0.143432
0.128
0.143896
0.128438
0.26999
0.234971
0.270925
0.235846
0.106228
0.0933763
0.106621
0.093744
0.219184
0.219156
0.220029
0.220001
0.087633
0.087621
0.0879886
0.0879766
0.234887
0.269855
0.235762
0.27079
0.0933402
0.106168
0.0937077
0.10656
0.33191
0.361248
0.332935
0.362369
0.127916
0.14333
0.128354
0.143793
0.358997
0.329847
0.360241
0.330984
0.142411
0.127034
0.142926
0.12752
0.267957
0.233066
0.268995
0.23404
0.105362
0.0925631
0.105798
0.0929726
0.217342
0.217314
0.218284
0.218256
0.0868448
0.086833
0.0872413
0.0872294
0.232983
0.267824
0.233957
0.268861
0.0925274
0.105302
0.0929368
0.105738
0.329676
0.358803
0.330811
0.360045
0.126952
0.142311
0.127437
0.142824
0.356321
0.327404
0.357678
0.328642
0.141296
0.125978
0.141857
0.126508
0.265732
0.23098
0.266864
0.232042
0.104414
0.0916724
0.104891
0.09212
0.215323
0.215296
0.216352
0.216324
0.085981
0.0859694
0.0864147
0.086403
0.230898
0.265602
0.23196
0.266732
0.0916373
0.104355
0.0920846
0.104831
0.327236
0.356131
0.328472
0.357485
0.125897
0.141197
0.126427
0.141757
0.35343
0.324768
0.354894
0.326102
0.140091
0.124837
0.140697
0.12541
0.26333
0.228724
0.26455
0.229871
0.103389
0.0907089
0.103904
0.0911927
0.213139
0.213112
0.214249
0.214222
0.0850462
0.0850348
0.0855151
0.0855036
0.228644
0.263201
0.22979
0.26442
0.0906744
0.103331
0.0911579
0.103846
0.324602
0.353243
0.325935
0.354704
0.124757
0.139994
0.125329
0.140598
0.350327
0.321942
0.351897
0.32337
0.138798
0.123613
0.139448
0.124227
0.260753
0.226303
0.26206
0.227532
0.102289
0.0896744
0.102842
0.0901937
0.210795
0.210768
0.211985
0.211958
0.0840421
0.0840309
0.0845458
0.0845345
0.226224
0.260626
0.227453
0.261932
0.0896405
0.102233
0.0901596
0.102785
0.321779
0.350144
0.323206
0.35171
0.123535
0.138703
0.124148
0.139351
0.347013
0.318926
0.348689
0.32045
0.137417
0.122305
0.138111
0.122962
0.258001
0.223717
0.259396
0.225029
0.101115
0.0885687
0.101705
0.0891239
0.208289
0.208263
0.20956
0.209534
0.0829686
0.0829576
0.0835073
0.0834962
0.22364
0.257877
0.224951
0.259271
0.0885354
0.101059
0.0890904
0.101649
0.318767
0.346833
0.320289
0.348506
0.122229
0.137324
0.122884
0.138017
0.343485
0.315717
0.345268
0.317338
0.135947
0.120913
0.136686
0.121612
0.255071
0.220961
0.256556
0.222359
0.0998631
0.0873898
0.100492
0.0879821
0.205618
0.205592
0.206973
0.206947
0.0818237
0.081813
0.0823986
0.0823877
0.220885
0.25495
0.222282
0.256434
0.0873573
0.0998087
0.0879493
0.100437
0.315561
0.343309
0.317181
0.345089
0.120838
0.135856
0.121536
0.136594
0.339735
0.312307
0.34163
0.314031
0.134384
0.119432
0.13517
0.120176
0.251954
0.218026
0.253534
0.219515
0.0985309
0.0861341
0.0992013
0.0867656
0.202772
0.202747
0.204216
0.204191
0.0806038
0.0805933
0.0812169
0.0812063
0.217952
0.251835
0.21944
0.253414
0.0861024
0.0984778
0.0867335
0.0991477
0.312155
0.339563
0.313876
0.341455
0.119359
0.134295
0.120102
0.13508
0.335752
0.308682
0.337766
0.310515
0.132723
0.117856
0.13356
0.118649
0.248635
0.214899
0.250318
0.216486
0.0971122
0.0847958
0.097827
0.0854697
0.199738
0.199714
0.201278
0.201254
0.0793032
0.079293
0.0799577
0.0799474
0.214827
0.248519
0.216413
0.250201
0.0847649
0.0970605
0.0854384
0.0977746
0.308534
0.335584
0.310364
0.337595
0.117784
0.132636
0.118577
0.133471
0.33152
0.304824
0.333661
0.306776
0.130957
0.116177
0.131847
0.117023
0.245096
0.211559
0.246892
0.213255
0.095599
0.0833668
0.0963624
0.0840874
0.196496
0.196473
0.198143
0.198119
0.0779139
0.0779039
0.0786141
0.0786041
0.211488
0.244983
0.213184
0.246778
0.0833368
0.0955487
0.084057
0.0963114
0.30468
0.331357
0.306629
0.333495
0.116107
0.130872
0.116952
0.131761
0.327017
0.300708
0.329297
0.302793
0.129075
0.114389
0.130025
0.11529
0.24131
0.207979
0.243233
0.209799
0.0939808
0.081836
0.0947984
0.0826094
0.193019
0.192996
0.194787
0.194764
0.0764247
0.0764151
0.0771767
0.0771669
0.207911
0.2412
0.20973
0.243122
0.0818069
0.0939321
0.0825798
0.0947489
0.300568
0.326859
0.30265
0.329135
0.114322
0.128993
0.115222
0.129941
0.322212
0.296299
0.324648
0.298535
0.127063
0.112476
0.12808
0.113443
0.237241
0.204124
0.239311
0.206087
0.0922419
0.0801881
0.0931224
0.0810224
0.18927
0.189247
0.191179
0.191157
0.0748205
0.0748112
0.0756324
0.075623
0.204058
0.237135
0.20602
0.239204
0.08016
0.0921949
0.0809938
0.0930745
0.296163
0.322059
0.298397
0.324491
0.112411
0.126984
0.113377
0.128
0.317063
0.291552
0.319676
0.293964
0.1249
0.110414
0.125996
0.111459
0.232843
0.199947
0.235085
0.202078
0.0903619
0.0784031
0.0913159
0.0793089
0.185202
0.185181
0.187278
0.187256
0.0730818
0.0730729
0.0739639
0.0739548
0.199883
0.232741
0.202013
0.234981
0.0783761
0.0903167
0.0792814
0.0912698
0.291422
0.316915
0.293831
0.319525
0.110352
0.124824
0.111395
0.125918
0.311515
0.286411
0.314335
0.289028
0.122561
0.108181
0.123748
0.109315
0.228059
0.195389
0.230502
0.197718
0.088316
0.0764565
0.0893567
0.0774467
0.180759
0.180739
0.183031
0.18301
0.0711842
0.0711757
0.0721494
0.0721407
0.195328
0.227961
0.197656
0.230402
0.0764307
0.0882728
0.0774204
0.0893125
0.286286
0.311373
0.2889
0.31419
0.108121
0.122488
0.109254
0.123674
0.3055
0.280806
0.308563
0.283665
0.120012
0.105746
0.12131
0.106985
0.222818
0.19038
0.225498
0.192945
0.0860738
0.074318
0.087217
0.0754086
0.175869
0.175849
0.178374
0.178354
0.0690976
0.0690896
0.0701617
0.0701534
0.190322
0.222724
0.192885
0.225403
0.0742936
0.0860328
0.0753835
0.0871749
0.280687
0.305365
0.283542
0.308425
0.105689
0.119943
0.106927
0.121238
0.298935
0.274655
0.302285
0.277798
0.117214
0.103074
0.118642
0.104436
0.217035
0.184833
0.219998
0.187679
0.0835983
0.0719503
0.0848635
0.073161
0.170442
0.170423
0.173228
0.173209
0.0667847
0.0667772
0.0679675
0.0679597
0.184778
0.216947
0.187623
0.219907
0.0719274
0.0835598
0.0731373
0.0848237
0.274542
0.298808
0.277681
0.302153
0.103021
0.117149
0.104381
0.118575
0.291734
0.267865
0.295412
0.271339
0.114121
0.100128
0.115702
0.101632
0.210603
0.178629
0.213906
0.18182
0.0808436
0.069305
0.0822551
0.0706617
0.164359
0.164341
0.16749
0.167472
0.0641968
0.0641899
0.0655243
0.0655171
0.178578
0.210521
0.181768
0.213821
0.0692839
0.0808079
0.0706397
0.082218
0.26776
0.291615
0.27123
0.295288
0.100078
0.11406
0.101581
0.115639
0.283874
0.260328
0.287873
0.264193
0.110704
0.0968769
0.112447
0.098537
0.20335
0.171588
0.207094
0.175228
0.0777425
0.0663119
0.0793387
0.0678537
0.157448
0.157432
0.161019
0.161002
0.0612684
0.0612622
0.0627758
0.0627692
0.171541
0.203274
0.175179
0.207015
0.0662928
0.0777101
0.0678336
0.0793046
0.260231
0.283764
0.264091
0.287758
0.0968315
0.110649
0.0984894
0.112389
0.275822
0.251656
0.279777
0.256192
0.107109
0.093247
0.108896
0.0951199
0.194782
0.163364
0.19929
0.167653
0.074129
0.0628539
0.0760161
0.0646469
0.149477
0.149463
0.153608
0.153593
0.0579228
0.0579174
0.0596476
0.0596418
0.163322
0.194715
0.167609
0.199219
0.0628372
0.0741004
0.064629
0.0759855
0.251569
0.275723
0.256099
0.279671
0.0932065
0.10706
0.0950769
0.108843
0.271625
0.237944
0.272656
0.246216
0.103884
0.0877588
0.105472
0.0910279
0.183156
0.153475
0.18954
0.158638
0.0694417
0.0588077
0.0719762
0.0608994
0.140349
0.140337
0.14504
0.145027
0.0541701
0.0541655
0.0560826
0.0560776
0.153439
0.183097
0.1586
0.189477
0.0587936
0.0694173
0.060884
0.0719498
0.237868
0.271537
0.246134
0.272562
0.0877244
0.103841
0.0909902
0.105425
0.175527
0.148027
0.108506
0.0916464
0.150206
0.125981
0.0885408
0.0749918
0.086162
0.0483386
0.0424873
0.0157514
0.0690687
0.0352836
0.0315463
0.00981423
0.0291535
0.0291577
0.00644918
0.00645255
0.018035
0.0180398
0.00449535
0.00449672
0.0483404
0.0861542
0.0157621
0.0424893
0.0352897
0.0690661
0.00981932
0.0315509
0.14801
0.175503
0.0916398
0.108492
0.125971
0.15019
0.0749903
0.0885329
0.266522
0.231181
0.225778
0.193175
0.230131
0.198132
0.194843
0.165521
0.159586
0.115514
0.124875
0.0827532
0.131273
0.0910417
0.101992
0.0636222
0.0947587
0.0947533
0.0626005
0.062599
0.072317
0.072314
0.0453284
0.0453293
0.115496
0.159553
0.0827448
0.124855
0.0910301
0.13125
0.0636191
0.101979
0.231136
0.266468
0.193144
0.225739
0.198098
0.23009
0.1655
0.194815
0.33291
0.294783
0.301682
0.26467
0.286668
0.252027
0.260163
0.226575
0.219994
0.174107
0.191131
0.145968
0.181997
0.140179
0.157781
0.116587
0.152634
0.152622
0.124811
0.124803
0.120968
0.120959
0.0976013
0.0975953
0.17407
0.219934
0.145941
0.191084
0.140152
0.18195
0.116568
0.157747
0.294706
0.332823
0.264608
0.301611
0.251965
0.286597
0.226527
0.260106
0.386317
0.346839
0.360949
0.322043
0.331894
0.295953
0.310413
0.27503
0.270601
0.223765
0.246412
0.199993
0.224436
0.181768
0.204149
0.161864
0.2018
0.201783
0.178256
0.178241
0.16215
0.162136
0.142441
0.142429
0.223713
0.270517
0.199949
0.24634
0.181726
0.224367
0.161829
0.204091
0.346732
0.386198
0.321951
0.360844
0.295864
0.331793
0.274954
0.310326
0.429951
0.389721
0.409233
0.369329
0.368865
0.332161
0.351305
0.314936
0.31274
0.265317
0.292664
0.245503
0.2598
0.216557
0.242946
0.199965
0.243
0.242978
0.223346
0.223326
0.196613
0.196595
0.180173
0.180157
0.265251
0.312634
0.245443
0.292569
0.216503
0.259713
0.199917
0.242868
0.389589
0.429805
0.369209
0.4091
0.332048
0.368737
0.314835
0.351189
0.465305
0.424642
0.448572
0.408098
0.398858
0.361683
0.384657
0.347691
0.347294
0.299514
0.330905
0.283283
0.288831
0.245203
0.275057
0.231603
0.27696
0.276933
0.260834
0.26081
0.225022
0.225
0.21153
0.21151
0.299436
0.34717
0.28321
0.330791
0.245138
0.288726
0.231543
0.274961
0.424488
0.465136
0.407954
0.448414
0.361549
0.398709
0.347567
0.384517
0.493498
0.452592
0.480217
0.439416
0.422801
0.385334
0.411519
0.374181
0.375098
0.327116
0.361982
0.314087
0.312208
0.268334
0.301177
0.257413
0.304411
0.304381
0.291449
0.29142
0.247991
0.247966
0.237143
0.237119
0.327028
0.374959
0.314004
0.361851
0.268259
0.312089
0.257343
0.301065
0.452421
0.493311
0.439253
0.480037
0.385183
0.422632
0.374038
0.411358
0.515536
0.474507
0.505214
0.464237
0.441525
0.403884
0.432753
0.395189
0.396998
0.348918
0.38673
0.338691
0.330624
0.286603
0.321988
0.278032
0.326125
0.326092
0.315935
0.315903
0.266155
0.266127
0.25763
0.257604
0.348821
0.396847
0.338598
0.386585
0.28652
0.330491
0.277952
0.321862
0.474321
0.515333
0.464057
0.505017
0.403718
0.441339
0.39503
0.432575
0.532326
0.491254
0.524518
0.483461
0.455784
0.418053
0.449152
0.41146
0.41381
0.365703
0.405985
0.357887
0.344751
0.300655
0.338176
0.294111
0.342865
0.34283
0.335067
0.335033
0.280146
0.280115
0.273629
0.273599
0.365599
0.413648
0.357786
0.405829
0.300565
0.344608
0.294024
0.338038
0.491055
0.532111
0.483268
0.524307
0.417874
0.455585
0.411286
0.448958
0.544727
0.503664
0.539014
0.497942
0.466304
0.42854
0.461457
0.423705
0.426334
0.378247
0.420558
0.372458
0.355259
0.311138
0.350413
0.3063
0.355396
0.355359
0.349611
0.349574
0.290598
0.290566
0.285773
0.285741
0.378137
0.426163
0.372351
0.420392
0.311042
0.355107
0.306207
0.350265
0.503455
0.544501
0.497737
0.53879
0.42835
0.466094
0.42352
0.46125
0.553502
0.512487
0.549509
0.508469
0.473733
0.435981
0.470353
0.432592
0.435303
0.387269
0.431217
0.383155
0.362764
0.318656
0.359345
0.315228
0.364427
0.364388
0.360307
0.360268
0.298109
0.298075
0.294683
0.294649
0.387155
0.435125
0.383043
0.431042
0.318555
0.362605
0.31513
0.35919
0.51227
0.553267
0.508255
0.549277
0.435782
0.473513
0.432397
0.470136
0.559341
0.518404
0.556739
0.515761
0.47866
0.440953
0.476464
0.438732
0.441386
0.393429
0.438666
0.39067
0.367833
0.323766
0.365567
0.321477
0.370613
0.370573
0.36784
0.3678
0.30323
0.303195
0.300935
0.3009
0.393311
0.441202
0.390553
0.438485
0.323662
0.367669
0.321375
0.365405
0.51818
0.559101
0.51554
0.556498
0.440748
0.478433
0.43853
0.476238
0.562834
0.521999
0.561335
0.520448
0.48159
0.443957
0.480333
0.442661
0.445163
0.397303
0.443529
0.395621
0.37096
0.326956
0.369608
0.325571
0.374526
0.374484
0.372822
0.372781
0.306445
0.306409
0.305046
0.30501
0.397182
0.444976
0.395501
0.443343
0.32685
0.370792
0.325466
0.369441
0.521771
0.562589
0.520222
0.56109
0.443747
0.481358
0.442453
0.480101
0.564485
0.523775
0.563851
0.523078
0.482955
0.445421
0.482432
0.444847
0.447135
0.399386
0.446347
0.398543
0.372569
0.328646
0.371928
0.327964
0.376657
0.376614
0.375789
0.375747
0.308171
0.308134
0.30747
0.307433
0.399263
0.446945
0.398421
0.446159
0.328538
0.372398
0.327856
0.371758
0.523544
0.564237
0.522848
0.563602
0.445208
0.48272
0.444635
0.482196
0.564704
0.524137
0.564739
0.5241
0.483105
0.44569
0.483148
0.445674
0.447707
0.400083
0.447573
0.399887
0.373003
0.329179
0.37291
0.329037
0.377411
0.377368
0.377186
0.377144
0.308749
0.308711
0.308583
0.308546
0.399959
0.447516
0.399764
0.447383
0.329069
0.372831
0.328928
0.372739
0.523904
0.564454
0.523868
0.564488
0.445476
0.482869
0.445459
0.48291
0.56384
0.523438
0.564389
0.523903
0.482342
0.445071
0.482821
0.445477
0.44723
0.399742
0.447588
0.400028
0.372565
0.328851
0.372882
0.329109
0.377134
0.377091
0.377385
0.377343
0.308472
0.308435
0.308702
0.308665
0.399618
0.447039
0.399904
0.447396
0.328741
0.372392
0.328999
0.372709
0.523206
0.563591
0.52367
0.564137
0.444856
0.482105
0.445261
0.482582
0.562114
0.521897
0.56306
0.52275
0.48085
0.443742
0.481663
0.444472
0.445924
0.398582
0.446667
0.399252
0.371432
0.327841
0.37207
0.328417
0.376045
0.376002
0.376678
0.376636
0.307522
0.307484
0.308067
0.30803
0.398458
0.445733
0.399128
0.446475
0.327731
0.37126
0.328307
0.371897
0.521665
0.561866
0.522517
0.562808
0.443527
0.480613
0.444257
0.481423
0.559727
0.519716
0.560984
0.520869
0.478801
0.441878
0.479876
0.442859
0.443993
0.39681
0.445029
0.397767
0.369782
0.326325
0.370662
0.327138
0.374349
0.374306
0.375266
0.375224
0.306071
0.306034
0.30685
0.306813
0.396686
0.443802
0.397643
0.444838
0.326216
0.36961
0.327028
0.37049
0.519485
0.559481
0.520638
0.560734
0.441664
0.478565
0.442644
0.479637
0.55681
0.517027
0.558318
0.51842
0.476304
0.439588
0.477591
0.44077
0.441571
0.394558
0.442838
0.39574
0.367724
0.324413
0.368796
0.325413
0.37218
0.372138
0.37332
0.373278
0.30423
0.304193
0.305193
0.305156
0.394435
0.441382
0.395617
0.442648
0.324305
0.367553
0.325304
0.368625
0.516798
0.556566
0.51819
0.55807
0.439376
0.476071
0.440557
0.477355
0.553457
0.513924
0.555175
0.515515
0.473438
0.436951
0.474903
0.4383
0.43875
0.391919
0.440208
0.393286
0.365334
0.322181
0.366565
0.323333
0.36963
0.369588
0.370952
0.37091
0.302075
0.302038
0.303188
0.303151
0.391797
0.438563
0.393164
0.44002
0.322074
0.365165
0.323225
0.366395
0.513698
0.553216
0.515288
0.554929
0.436741
0.473207
0.438089
0.474669
0.549723
0.510465
0.551625
0.512228
0.470248
0.434014
0.47187
0.435508
0.435591
0.388953
0.437212
0.390478
0.362662
0.319677
0.364029
0.320961
0.366759
0.366718
0.368235
0.368194
0.299654
0.299618
0.300895
0.300859
0.388833
0.435407
0.390357
0.437027
0.319571
0.362495
0.320854
0.363861
0.510242
0.549486
0.512004
0.551383
0.433807
0.470021
0.435299
0.471639
0.545646
0.506686
0.547717
0.508606
0.466764
0.430806
0.46853
0.432433
0.432131
0.385698
0.4339
0.387364
0.359737
0.316933
0.361228
0.318334
0.363605
0.363564
0.36522
0.365179
0.296997
0.296961
0.298353
0.298317
0.38558
0.43195
0.387245
0.433716
0.316828
0.359573
0.318228
0.361063
0.506467
0.545412
0.508385
0.547478
0.430603
0.46654
0.432227
0.468303
0.541244
0.502609
0.543476
0.504677
0.463002
0.427345
0.464906
0.429097
0.428391
0.382174
0.430298
0.383973
0.356576
0.313963
0.358184
0.315475
0.360188
0.360148
0.361932
0.361892
0.294121
0.294086
0.295586
0.29555
0.382058
0.428212
0.383856
0.430117
0.31386
0.356415
0.315371
0.358021
0.502393
0.541015
0.504459
0.543241
0.427145
0.462782
0.428895
0.464683
0.536527
0.49824
0.538916
0.500453
0.458969
0.423637
0.461008
0.425513
0.424377
0.37839
0.42642
0.380319
0.353187
0.310776
0.354909
0.312397
0.356517
0.356477
0.358388
0.358348
0.291033
0.290998
0.292603
0.292568
0.378276
0.424202
0.380203
0.426243
0.310675
0.353028
0.312294
0.354749
0.498029
0.536302
0.500239
0.538686
0.423441
0.458753
0.425314
0.460789
0.531494
0.493582
0.534041
0.49594
0.454664
0.419683
0.45684
0.421682
0.420092
0.374345
0.422271
0.376405
0.349567
0.30737
0.351405
0.3091
0.35259
0.352552
0.35459
0.354551
0.287731
0.287697
0.289409
0.289375
0.374233
0.419919
0.376291
0.422097
0.307271
0.349412
0.309
0.351247
0.493374
0.531273
0.49573
0.533816
0.41949
0.454453
0.421487
0.456625
0.526138
0.488624
0.528848
0.491134
0.450083
0.415474
0.452398
0.417602
0.415524
0.37003
0.417846
0.372226
0.345712
0.303739
0.347669
0.305583
0.3484
0.348362
0.350533
0.350494
0.28421
0.284177
0.285999
0.285965
0.36992
0.415355
0.372115
0.417675
0.303642
0.345559
0.305485
0.347514
0.488421
0.525922
0.490928
0.528627
0.415286
0.449877
0.417411
0.452187
0.520449
0.483352
0.523327
0.486021
0.445217
0.411002
0.447676
0.413263
0.41066
0.365429
0.413133
0.36777
0.341608
0.29987
0.343691
0.301835
0.343928
0.343891
0.346204
0.346167
0.280456
0.280423
0.282363
0.28233
0.365321
0.410494
0.367662
0.412966
0.299775
0.341459
0.301739
0.34354
0.483153
0.520238
0.48582
0.523112
0.410817
0.445015
0.413076
0.44747
0.514404
0.477745
0.517463
0.480585
0.440048
0.406247
0.442661
0.408652
0.405473
0.360515
0.408111
0.363016
0.337237
0.295743
0.339456
0.29784
0.339149
0.339113
0.341583
0.341546
0.276449
0.276417
0.278486
0.278453
0.36041
0.405312
0.36291
0.407947
0.29565
0.337091
0.297746
0.339309
0.477551
0.514198
0.480388
0.517252
0.406067
0.439851
0.408469
0.44246
0.507976
0.471769
0.511231
0.474797
0.434554
0.401186
0.437333
0.403748
0.399931
0.355255
0.402751
0.357934
0.332571
0.29133
0.334941
0.293574
0.334029
0.333993
0.336638
0.336602
0.272161
0.27213
0.274342
0.274311
0.355152
0.399774
0.35783
0.402592
0.291239
0.332429
0.293483
0.334798
0.47158
0.507776
0.474606
0.511026
0.401011
0.434363
0.40357
0.437137
0.50113
0.46539
0.5046
0.468625
0.428706
0.395783
0.431666
0.398521
0.393991
0.349601
0.397016
0.352484
0.327574
0.286594
0.330115
0.289005
0.328518
0.328484
0.331329
0.331294
0.267553
0.267523
0.2699
0.269869
0.349502
0.393838
0.352383
0.396861
0.286506
0.327436
0.288916
0.329975
0.465207
0.500936
0.468439
0.5044
0.395613
0.42852
0.398348
0.431476
0.49381
0.45855
0.497524
0.462025
0.422462
0.38999
0.425627
0.392929
0.387592
0.343494
0.390855
0.346612
0.322197
0.281484
0.324935
0.284089
0.322557
0.322524
0.325602
0.325568
0.262576
0.262547
0.265115
0.265085
0.343397
0.387444
0.346514
0.390705
0.281399
0.322063
0.284003
0.3248
0.458372
0.493622
0.461844
0.497331
0.389826
0.422282
0.392762
0.425442
0.485949
0.451172
0.489943
0.454925
0.415765
0.383751
0.419164
0.386922
0.380658
0.336855
0.384199
0.340249
0.316378
0.275938
0.319346
0.27877
0.316067
0.316035
0.319387
0.319354
0.257166
0.257138
0.25993
0.259901
0.336762
0.380515
0.340154
0.384053
0.275856
0.316249
0.278686
0.319215
0.451
0.485768
0.45475
0.489756
0.383592
0.415591
0.38676
0.418986
0.47747
0.443171
0.481783
0.447247
0.408545
0.37699
0.412215
0.380432
0.373099
0.329592
0.376965
0.333311
0.31004
0.269877
0.313278
0.272978
0.308955
0.308924
0.312599
0.312567
0.251245
0.251218
0.254275
0.254247
0.329502
0.372961
0.33322
0.376824
0.269798
0.309916
0.272897
0.313152
0.443006
0.477295
0.447079
0.481604
0.376838
0.408378
0.380276
0.412044
0.468275
0.434447
0.472959
0.438899
0.400718
0.36962
0.404703
0.373379
0.364806
0.321591
0.369053
0.325695
0.30309
0.263206
0.306647
0.266624
0.301104
0.301074
0.305132
0.305102
0.244714
0.244689
0.248062
0.248036
0.321505
0.364674
0.325606
0.368918
0.26313
0.302972
0.266547
0.306526
0.43429
0.468108
0.438737
0.472786
0.369475
0.400559
0.37323
0.404539
0.458264
0.424888
0.463368
0.429771
0.39219
0.361539
0.396538
0.365666
0.355651
0.312714
0.360346
0.317274
0.295418
0.255805
0.299351
0.259605
0.292372
0.292344
0.296861
0.296832
0.237454
0.23743
0.241184
0.241159
0.312632
0.355525
0.31719
0.360218
0.255734
0.295306
0.259531
0.299236
0.424738
0.458106
0.429617
0.463204
0.361401
0.39204
0.365525
0.396382
0.447368
0.414381
0.452919
0.419751
0.382878
0.352635
0.387625
0.357188
0.345477
0.302779
0.350704
0.307895
0.286881
0.24752
0.291267
0.251785
0.282569
0.282542
0.287621
0.287593
0.229304
0.229281
0.233502
0.233478
0.302702
0.345359
0.307815
0.350582
0.247453
0.286776
0.251715
0.291158
0.41424
0.447218
0.419605
0.452763
0.352506
0.382737
0.357054
0.387478
0.435696
0.402824
0.441595
0.408733
0.372822
0.342786
0.377919
0.34783
0.334042
0.291509
0.339941
0.297336
0.277256
0.238108
0.282225
0.242975
0.271424
0.2714
0.277187
0.277162
0.220033
0.220012
0.224826
0.224804
0.291438
0.333932
0.297262
0.339828
0.238046
0.27716
0.242911
0.282124
0.402693
0.435557
0.408597
0.441449
0.342666
0.372692
0.347706
0.377782
0.424346
0.389833
0.429793
0.396569
0.362789
0.331548
0.367661
0.337406
0.320682
0.278394
0.327684
0.285228
0.26593
0.227126
0.271879
0.232851
0.258564
0.258542
0.265234
0.265211
0.209332
0.209313
0.21488
0.21486
0.278329
0.320583
0.28516
0.327579
0.227071
0.265843
0.232793
0.271787
0.389714
0.424219
0.396444
0.429659
0.331439
0.36267
0.337291
0.367535
0.420741
0.370618
0.420501
0.382015
0.358669
0.314416
0.359114
0.324635
0.303146
0.262733
0.312683
0.270904
0.250869
0.213987
0.259083
0.220839
0.243773
0.243753
0.251396
0.251375
0.197052
0.197036
0.203371
0.203354
0.262676
0.303057
0.270843
0.31259
0.213938
0.250792
0.220787
0.259001
0.370511
0.420626
0.381902
0.420379
0.314321
0.358562
0.324533
0.359
0.208073
0.177241
0.134909
0.114496
0.193972
0.164462
0.123433
0.104379
0.110401
0.0689145
0.0589972
0.027013
0.0995939
0.0594794
0.0514994
0.0217401
0.0488615
0.0488628
0.0120199
0.0120247
0.0396365
0.0396395
0.00914412
0.00914862
0.0689089
0.110381
0.0270213
0.0589923
0.0594777
0.0995806
0.0217503
0.0514984
0.177209
0.208032
0.114478
0.134879
0.164437
0.193939
0.104366
0.123411
0.31382
0.275388
0.265546
0.22978
0.293192
0.255952
0.248274
0.213748
0.199685
0.152349
0.157084
0.111664
0.181811
0.135678
0.142758
0.0985654
0.129879
0.12987
0.089996
0.0899909
0.11383
0.113822
0.0774302
0.0774269
0.152318
0.199633
0.111645
0.157049
0.135653
0.181768
0.0985519
0.14273
0.275319
0.313742
0.229731
0.265487
0.255895
0.293125
0.213707
0.248225
0.394679
0.353489
0.356403
0.316315
0.367491
0.327457
0.332425
0.29351
0.274851
0.225605
0.238821
0.190347
0.250231
0.202202
0.217491
0.170225
0.202203
0.202186
0.167346
0.167332
0.179503
0.179488
0.147895
0.147884
0.225553
0.274768
0.190305
0.238754
0.202158
0.25016
0.17019
0.217433
0.353384
0.394563
0.316228
0.356305