/*--------------------------------*- C++ -*----------------------------------*\
  =========                 |
  \\      /  F ield         | OpenFOAM: The Open Source CFD Toolbox
   \\    /   O peration     | Website:  https://openfoam.org
    \\  /    A nd           | Version:  9
     \\/     M anipulation  |
\*---------------------------------------------------------------------------*/
FoamFile
{
    format      ascii;
    class       surfaceScalarField;
    location    "3.45";
    object      phi;
}
// * * * * * * * * * * * * * * * * * * * * * * * * * * * * * * * * * * * * * //

dimensions      [0 3 -1 0 0 0 0];

internalField   nonuniform List<scalar> 
104044
(
6.12765e-07
-6.78466e-05
-2.20482e-06
6.64038e-05
3.03486e-06
-4.50951e-05
-1.25171e-06
-2.34994e-07
4.73005e-05
-1.05846e-07
3.9634e-07
-3.99326e-06
4.05968e-06
-2.71788e-07
-1.60153e-07
-6.77192e-07
-6.55096e-08
-7.84481e-05
7.63088e-05
-3.62412e-05
5.06765e-08
3.48733e-05
-1.37339e-08
6.594e-09
-1.26984e-08
-5.00946e-05
-2.90574e-06
5.03304e-05
2.44758e-06
-5.22547e-05
-1.68421e-06
4.09814e-10
5.24809e-05
1.44491e-06
-7.31667e-09
-2.3907e-06
1.71512e-06
-1.56862e-06
-3.37007e-10
9.49361e-07
-6.77425e-09
-5.11592e-05
4.83109e-05
-5.57459e-05
-2.76936e-10
5.40552e-05
-1.14729e-08
-2.70957e-09
-9.26834e-13
-5.3187e-05
-8.78755e-07
5.35499e-05
5.16313e-07
-5.31878e-05
-8.79097e-07
-4.10214e-10
5.35505e-05
5.16804e-07
-5.69183e-13
-1.1108e-06
3.2829e-07
-1.11101e-06
3.35695e-10
3.28574e-07
-4.91443e-13
-5.60093e-05
5.51303e-05
-5.60103e-05
2.78571e-10
5.51309e-05
2.01489e-12
2.70956e-09
1.27082e-08
-5.22566e-05
-1.6843e-06
5.24827e-05
1.44514e-06
-5.0097e-05
-2.90529e-06
2.3502e-07
5.03325e-05
2.44744e-06
7.31982e-09
-1.56887e-06
9.49669e-07
-2.3905e-06
1.60183e-07
1.71503e-06
6.78431e-09
-5.57477e-05
5.40569e-05
-5.11621e-05
-5.06587e-08
4.83143e-05
1.14755e-08
-6.58895e-09
-6.12785e-07
-4.5096e-05
-1.25173e-06
4.7301e-05
-1.0545e-07
-6.78418e-05
-2.20457e-06
6.63992e-05
3.03446e-06
-3.96357e-07
-2.7138e-07
-6.77079e-07
-3.99292e-06
4.0591e-06
6.54107e-08
-3.62446e-05
3.48768e-05
-7.84385e-05
7.62993e-05
1.37017e-08
3.4373e-07
-6.4843e-05
-2.71618e-06
6.34649e-05
3.75063e-06
-4.86629e-05
2.02885e-06
-9.3418e-08
4.9499e-05
-2.42775e-06
4.81086e-07
-2.41556e-06
3.49526e-06
5.28845e-07
-1.63535e-07
-1.24667e-06
-5.69239e-07
-7.41936e-05
7.20467e-05
-3.49215e-05
3.15601e-07
3.60656e-05
-3.00377e-07
1.80221e-07
-1.05289e-08
-5.04549e-05
-1.77655e-06
5.03838e-05
1.76477e-06
-5.25352e-05
-1.49314e-06
-2.54461e-09
5.23608e-05
1.65957e-06
-1.31757e-08
-2.52463e-06
2.24982e-06
-1.80909e-06
1.76431e-10
1.74147e-06
5.89494e-09
-4.59693e-05
4.45025e-05
-5.22439e-05
-2.89728e-09
5.07595e-05
-2.83929e-09
-6.17266e-10
-1.0973e-12
-5.35479e-05
-1.17925e-06
5.33703e-05
1.35428e-06
-5.35484e-05
-1.17917e-06
2.54366e-09
5.33708e-05
1.35425e-06
-1.18194e-12
-1.15032e-06
1.15251e-06
-1.15038e-06
-1.73229e-10
1.15262e-06
-2.04355e-12
-5.39794e-05
5.27972e-05
-5.39799e-05
2.90315e-09
5.27979e-05
-2.10722e-12
6.18362e-10
1.05452e-08
-5.25367e-05
-1.49286e-06
5.23621e-05
1.65946e-06
-5.04566e-05
-1.77645e-06
9.34316e-08
5.03853e-05
1.7649e-06
1.31904e-08
-1.80884e-06
1.74142e-06
-2.52425e-06
1.63554e-07
2.24977e-06
-5.87504e-09
-5.22458e-05
5.07617e-05
-4.59731e-05
-3.15547e-07
4.45063e-05
2.85363e-09
-1.80188e-07
-3.43819e-07
-4.86632e-05
2.02804e-06
4.9499e-05
-2.42662e-06
-6.48386e-05
-2.71564e-06
6.34606e-05
3.74976e-06
-4.81138e-07
5.28425e-07
-1.24586e-06
-2.41514e-06
3.4946e-06
5.68939e-07
-3.49249e-05
3.60684e-05
-7.41844e-05
7.20377e-05
3.00189e-07
4.83603e-08
-6.22818e-05
-2.97737e-06
6.12558e-05
3.95502e-06
-5.00899e-05
3.30371e-06
1.95232e-08
5.05832e-05
-3.76817e-06
1.92854e-07
-2.84123e-06
3.83144e-06
2.83431e-06
-2.8729e-08
-3.20362e-06
-1.09098e-06
-7.00339e-05
6.81475e-05
-3.76384e-05
5.39345e-07
3.93118e-05
-8.28474e-07
4.33003e-07
2.9614e-08
-5.02938e-05
-7.93648e-07
5.02531e-05
8.2429e-07
-5.20796e-05
-7.94309e-07
-2.9393e-09
5.18067e-05
1.09977e-06
2.58373e-09
-1.17362e-06
1.2323e-06
-1.08896e-06
-5.4369e-09
1.37815e-06
4.49084e-08
-4.37394e-05
4.34402e-05
-4.96964e-05
-2.04619e-09
4.8949e-05
2.24457e-08
-3.36086e-09
1.65787e-11
-5.30848e-05
-6.86017e-07
5.27748e-05
9.93072e-07
-5.30853e-05
-6.85973e-07
2.90148e-09
5.27752e-05
9.93126e-07
-1.48473e-12
-9.33944e-07
1.21401e-06
-9.33862e-07
5.44571e-09
1.21396e-06
-3.4152e-12
-5.18599e-05
5.11719e-05
-5.18606e-05
2.04542e-09
5.11726e-05
-2.87075e-12
3.36287e-09
-2.96177e-08
-5.20809e-05
-7.94243e-07
5.18079e-05
1.09975e-06
-5.02951e-05
-7.93752e-07
-1.95007e-08
5.02542e-05
8.24489e-07
-2.56451e-09
-1.08879e-06
1.37807e-06
-1.17366e-06
2.87373e-08
1.23255e-06
-4.48766e-08
-4.96987e-05
4.89514e-05
-4.37432e-05
-5.39255e-07
4.34438e-05
-2.24192e-08
-4.32931e-07
-4.85092e-08
-5.00897e-05
3.3026e-06
5.05829e-05
-3.76676e-06
-6.22778e-05
-2.97651e-06
6.1252e-05
3.95378e-06
-1.92979e-07
2.83334e-06
-3.20233e-06
-2.84051e-06
3.83038e-06
1.09044e-06
-3.76408e-05
3.93137e-05
-7.00252e-05
6.81392e-05
8.28057e-07
-2.11873e-07
-6.03808e-05
-3.09535e-06
5.96159e-05
4.07207e-06
-5.09926e-05
3.66842e-06
1.03116e-07
5.13526e-05
-4.34333e-06
-8.70903e-08
-3.01645e-06
3.97855e-06
3.49892e-06
7.88906e-08
-4.07437e-06
-1.53358e-06
-6.64417e-05
6.488e-05
-4.08844e-05
6.92649e-07
4.23266e-05
-1.31067e-06
6.15635e-07
9.10357e-08
-5.02932e-05
-3.7829e-07
5.0388e-05
2.95558e-07
-5.15938e-05
-4.35708e-07
5.80504e-09
5.14441e-05
6.70666e-07
5.86392e-08
-5.28944e-07
5.09051e-07
-5.77316e-07
5.87081e-10
8.48283e-07
9.74481e-08
-4.34571e-05
4.3674e-05
-4.84403e-05
5.99822e-09
4.80961e-05
6.97878e-08
1.15239e-09
5.12663e-12
-5.25031e-05
-3.92436e-07
5.22786e-05
6.22704e-07
-5.25035e-05
-3.92426e-07
-5.78014e-09
5.2279e-05
6.22703e-07
-7.62391e-13
-5.0263e-07
7.74952e-07
-5.02602e-07
-5.68422e-10
7.74916e-07
5.20139e-12
-5.06704e-05
5.02839e-05
-5.06712e-05
-5.97219e-09
5.02847e-05
7.86906e-13
-1.13833e-09
-9.09447e-08
-5.15949e-05
-4.35736e-07
5.14451e-05
6.70714e-07
-5.02942e-05
-3.78411e-07
-1.03153e-07
5.03889e-05
2.95935e-07
-5.85728e-08
-5.77312e-07
8.48317e-07
-5.29072e-07
-7.89083e-08
5.09428e-07
-9.73721e-08
-4.84427e-05
4.80984e-05
-4.34604e-05
-6.92461e-07
4.36771e-05
-6.97335e-08
-6.15475e-07
2.11631e-07
-5.09922e-05
3.6671e-06
5.1352e-05
-4.34168e-06
-6.03772e-05
-3.09424e-06
5.96125e-05
4.07053e-06
8.68864e-08
3.4977e-06
-4.07283e-06
-3.01542e-06
3.97714e-06
1.5328e-06
-4.08859e-05
4.23277e-05
-6.64338e-05
6.48723e-05
1.31001e-06
-4.18901e-07
-5.89545e-05
-3.14386e-06
5.83696e-05
4.14761e-06
-5.16651e-05
3.77901e-06
1.22549e-07
5.19329e-05
-4.58826e-06
-3.18991e-07
-3.09136e-06
4.07184e-06
3.70303e-06
1.10948e-07
-4.44554e-06
-1.88044e-06
-6.34902e-05
6.22268e-05
-4.35877e-05
7.89272e-07
4.4697e-05
-1.70162e-06
7.40262e-07
1.54586e-07
-5.05164e-05
-2.36064e-07
5.06757e-05
4.46546e-08
-5.13526e-05
-2.52146e-07
1.97739e-08
5.13053e-05
4.34188e-07
1.22099e-07
-2.85455e-07
1.45952e-07
-3.27194e-07
1.22258e-08
5.28554e-07
1.4247e-07
-4.40058e-05
4.44165e-05
-4.78799e-05
1.9073e-08
4.77512e-05
1.23031e-07
1.19948e-08
1.02056e-11
-5.21042e-05
-2.66862e-07
5.197e-05
4.20874e-07
-5.21046e-05
-2.66879e-07
-1.97329e-08
5.19703e-05
4.20899e-07
8.06783e-12
-3.14481e-07
5.01061e-07
-3.14485e-07
-1.21901e-08
5.01073e-07
-1.43828e-12
-4.99814e-05
4.97337e-05
-4.99822e-05
-1.90605e-08
4.97344e-05
7.44169e-12
-1.19594e-08
-1.54448e-07
-5.13535e-05
-2.52218e-07
5.13062e-05
4.34253e-07
-5.05171e-05
-2.36195e-07
-1.22573e-07
5.06763e-05
4.51511e-08
-1.21987e-07
-3.27239e-07
5.28613e-07
-2.8559e-07
-1.10962e-07
1.46349e-07
-1.4249e-07
-4.78821e-05
4.77533e-05
-4.40087e-05
-7.89083e-07
4.44191e-05
-1.2293e-07
-7.40057e-07
4.18588e-07
-5.16645e-05
3.77756e-06
5.19323e-05
-4.58646e-06
-5.89512e-05
-3.14253e-06
5.83665e-05
4.14581e-06
3.18717e-07
3.70165e-06
-4.44384e-06
-3.09009e-06
4.07013e-06
1.87944e-06
-4.35886e-05
4.46976e-05
-6.3483e-05
6.22199e-05
1.70074e-06
-5.76309e-07
-5.78558e-05
-3.1634e-06
5.73946e-05
4.2009e-06
-5.21584e-05
3.79732e-06
1.27328e-07
5.23475e-05
-4.68999e-06
-4.98131e-07
-3.12178e-06
4.13368e-06
3.7541e-06
1.25836e-07
-4.60357e-06
-2.14131e-06
-6.11053e-05
6.00832e-05
-4.56392e-05
8.41366e-07
4.64538e-05
-2.00025e-06
8.11672e-07
2.07393e-07
-5.08452e-05
-2.11539e-07
5.10119e-05
-3.52758e-08
-5.12929e-05
-1.49687e-07
3.16473e-08
5.1305e-05
3.13357e-07
1.8091e-07
-2.11178e-07
-1.33437e-08
-1.91395e-07
2.54582e-08
3.5924e-07
1.71072e-07
-4.48604e-05
4.53192e-05
-4.76899e-05
3.2357e-08
4.7679e-05
1.56627e-07
2.64375e-08
-9.20547e-12
-5.18702e-05
-2.01702e-07
5.17962e-05
3.07369e-07
-5.18705e-05
-2.01906e-07
-3.14988e-08
5.17964e-05
3.07418e-07
3.84753e-11
-2.28064e-07
3.53304e-07
-2.28085e-07
-2.53504e-08
3.53333e-07
-4.7652e-10
-4.9532e-05
4.93631e-05
-4.95325e-05
-3.41242e-08
4.93643e-05
1.96045e-11
-2.62334e-08
-2.07127e-07
-5.12937e-05
-1.49806e-07
5.13057e-05
3.13438e-07
-5.08457e-05
-2.11395e-07
-1.27447e-07
5.10122e-05
-3.48158e-08
-1.80767e-07
-1.91416e-07
3.59315e-07
-2.11316e-07
-1.25858e-07
-1.29643e-08
-1.7271e-07
-4.76919e-05
4.76807e-05
-4.48629e-05
-8.41704e-07
4.53205e-05
-1.56216e-07
-8.1137e-07
5.75895e-07
-5.21577e-05
3.7958e-06
5.23467e-05
-4.68807e-06
-5.78529e-05
-3.16192e-06
5.73918e-05
4.19891e-06
4.9779e-07
3.75261e-06
-4.60173e-06
-3.12033e-06
4.13174e-06
2.13996e-06
-4.56397e-05
4.64538e-05
-6.10987e-05
6.00768e-05
1.99919e-06
-6.9307e-07
-5.69826e-05
-3.16531e-06
5.66072e-05
4.23374e-06
-5.25027e-05
3.77844e-06
1.1847e-07
5.26286e-05
-4.71583e-06
-6.32516e-07
-3.13042e-06
4.175e-06
3.74951e-06
1.22945e-07
-4.66025e-06
-2.32975e-06
-5.91728e-05
5.83373e-05
-4.71355e-05
8.64283e-07
4.77199e-05
-2.22006e-06
8.47772e-07
2.46958e-07
-5.11708e-05
-2.40412e-07
5.13221e-05
-3.93754e-08
-5.13336e-05
-9.72535e-08
4.3093e-08
5.13733e-05
2.61352e-07
2.26144e-07
-2.20245e-07
-4.18392e-08
-1.17451e-07
3.67762e-08
2.78265e-07
1.93413e-07
-4.57629e-05
4.61934e-05
-4.77048e-05
4.2887e-08
4.7758e-05
1.83797e-07
4.05691e-08
-5.03734e-12
-5.17438e-05
-1.58659e-07
5.17075e-05
2.38141e-07
-5.17441e-05
-1.58967e-07
-4.28365e-08
5.17077e-05
2.3821e-07
-1.18795e-11
-1.76802e-07
2.65895e-07
-1.76419e-07
-3.72155e-08
2.65954e-07
-8.12388e-10
-4.92256e-05
4.91106e-05
-4.92257e-05
-4.55865e-08
4.91115e-05
1.31646e-09
-3.64906e-08
-2.46683e-07
-5.13342e-05
-9.71755e-08
5.13738e-05
2.61445e-07
-5.11712e-05
-2.40192e-07
-1.18666e-07
5.13219e-05
-3.85012e-08
-2.26272e-07
-1.17799e-07
2.78357e-07
-2.20882e-07
-1.22893e-07
-4.15625e-08
-1.95361e-07
-4.77068e-05
4.77594e-05
-4.57655e-05
-8.64746e-07
4.61947e-05
-1.8044e-07
-8.46323e-07
6.92604e-07
-5.25021e-05
3.77682e-06
5.26277e-05
-4.71373e-06
-5.698e-05
-3.16371e-06
5.66046e-05
4.23164e-06
6.32184e-07
3.74768e-06
-4.65819e-06
-3.12894e-06
4.17295e-06
2.32821e-06
-4.71359e-05
4.77198e-05
-5.91671e-05
5.83316e-05
2.21923e-06
-7.78555e-07
-5.62657e-05
-3.15642e-06
5.59498e-05
4.25085e-06
-5.27294e-05
3.74464e-06
1.03377e-07
5.28067e-05
-4.70382e-06
-7.31848e-07
-3.12829e-06
4.20166e-06
3.72385e-06
1.10789e-07
-4.66732e-06
-2.46188e-06
-5.75874e-05
5.68929e-05
-4.8205e-05
8.69634e-07
4.86181e-05
-2.37843e-06
8.60386e-07
2.74611e-07
-5.14608e-05
-2.88549e-07
5.15873e-05
-9.17494e-09
-5.14185e-05
-7.53536e-08
5.3112e-08
5.14663e-05
2.49062e-07
2.59169e-07
-2.61254e-07
-2.57781e-08
-8.26166e-08
4.76011e-08
2.48986e-07
2.10371e-07
-4.65913e-05
4.69621e-05
-4.7828e-05
5.34708e-08
4.79095e-05
2.01135e-07
4.85836e-08
-5.55735e-12
-5.16833e-05
-1.29459e-07
5.16674e-05
1.98479e-07
-5.16836e-05
-1.29505e-07
-5.31067e-08
5.16676e-05
1.98544e-07
-1.19047e-10
-1.41262e-07
2.13107e-07
-1.41296e-07
-4.79139e-08
2.13221e-07
-1.32072e-11
-4.9018e-05
4.89421e-05
-4.90186e-05
-5.35057e-08
4.89426e-05
-7.7655e-11
-4.85211e-08
-2.74498e-07
-5.14191e-05
-7.54323e-08
5.14667e-05
2.49168e-07
-5.14613e-05
-2.88568e-07
-1.03414e-07
5.15874e-05
-8.61443e-09
-2.59892e-07
-8.26281e-08
2.49306e-07
-2.60812e-07
-1.09887e-07
-2.85604e-08
-2.10317e-07
-4.78294e-05
4.79108e-05
-4.65928e-05
-8.69386e-07
4.69633e-05
-2.01146e-07
-8.60097e-07
7.78124e-07
-5.27288e-05
3.74284e-06
5.2806e-05
-4.70155e-06
-5.62633e-05
-3.15477e-06
5.59475e-05
4.24866e-06
7.31689e-07
3.72225e-06
-4.66489e-06
-3.12657e-06
4.19957e-06
2.46044e-06
-4.82049e-05
4.86179e-05
-5.75821e-05
5.68877e-05
2.37708e-06
-8.39536e-07
-5.56571e-05
-3.13609e-06
5.53817e-05
4.25101e-06
-5.28637e-05
3.69551e-06
8.68219e-08
5.28995e-05
-4.65768e-06
-8.03556e-07
-3.11279e-06
4.20909e-06
3.6817e-06
9.40963e-08
-4.63635e-06
-2.5485e-06
-5.6265e-05
5.56774e-05
-4.89561e-05
8.63127e-07
4.924e-05
-2.48495e-06
8.58754e-07
2.91361e-07
-5.16985e-05
-3.42807e-07
5.17921e-05
4.47402e-08
-5.15123e-05
-7.21653e-08
6.1501e-08
5.15547e-05
2.59602e-07
2.81397e-07
-3.12639e-07
1.40676e-08
-7.1429e-08
5.69742e-08
2.49883e-07
2.205e-07
-4.72942e-05
4.75941e-05
-4.79951e-05
6.10102e-08
4.80824e-05
2.13943e-07
5.69165e-08
2.48834e-11
-5.1657e-05
-1.10843e-07
5.16491e-05
1.80217e-07
-5.16571e-05
-1.10877e-07
-6.14282e-08
5.16492e-05
1.80257e-07
1.82472e-11
-1.17778e-07
1.85201e-07
-1.17818e-07
-5.69133e-08
1.85248e-07
2.24041e-11
-4.88812e-05
4.88313e-05
-4.88817e-05
-6.09453e-08
4.88318e-05
1.44176e-11
-5.6871e-08
-2.91171e-07
-5.15126e-05
-7.22364e-08
5.15549e-05
2.59628e-07
-5.16986e-05
-3.42866e-07
-8.69229e-08
5.1792e-05
4.52149e-08
-2.81224e-07
-7.15085e-08
2.4993e-07
-3.12695e-07
-9.41845e-08
1.44401e-08
-2.20371e-07
-4.79962e-05
4.80834e-05
-4.72953e-05
-8.62862e-07
4.75949e-05
-2.1383e-07
-8.58498e-07
8.39046e-07
-5.28629e-05
3.69362e-06
5.28987e-05
-4.6554e-06
-5.56549e-05
-3.13436e-06
5.53796e-05
4.24869e-06
8.03086e-07
3.67988e-06
-4.63412e-06
-3.11102e-06
4.20677e-06
2.54696e-06
-4.89558e-05
4.92396e-05
-5.62602e-05
5.56728e-05
2.48347e-06
-8.82249e-07
-5.51214e-05
-3.10877e-06
5.48724e-05
4.23994e-06
-5.29182e-05
3.63584e-06
7.12304e-08
5.29177e-05
-4.58885e-06
-8.54721e-07
-3.09055e-06
4.20562e-06
3.62964e-06
7.81701e-08
-4.58122e-06
-2.60129e-06
-5.51411e-05
5.46336e-05
-4.94662e-05
8.50168e-07
4.96506e-05
-2.55422e-06
8.49158e-07
2.99763e-07
-5.18668e-05
-3.93839e-07
5.1925e-05
1.07087e-07
-5.15907e-05
-8.03651e-08
6.79795e-08
5.16193e-05
2.83538e-07
2.93543e-07
-3.66231e-07
7.61574e-08
-7.44973e-08
6.43506e-08
2.67752e-07
2.25963e-07
-4.78554e-05
4.80857e-05
-4.81661e-05
6.66454e-08
4.8245e-05
2.21624e-07
6.3453e-08
2.85745e-11
-5.16419e-05
-1.01793e-07
5.16331e-05
1.78592e-07
-5.1642e-05
-1.01824e-07
-6.78993e-08
5.16332e-05
1.78625e-07
2.6914e-11
-1.04494e-07
1.7595e-07
-1.04524e-07
-6.42743e-08
1.75986e-07
2.86871e-11
-4.87903e-05
4.87551e-05
-4.87907e-05
-6.65692e-08
4.87554e-05
2.6352e-11
-6.33811e-08
-2.9957e-07
-5.15908e-05
-8.0426e-08
5.16194e-05
2.83545e-07
-5.18666e-05
-3.93868e-07
-7.13435e-08
5.19248e-05
1.07477e-07
-2.93353e-07
-7.45614e-08
2.67766e-07
-3.66268e-07
-7.82766e-08
7.65574e-08
-2.25822e-07
-4.8167e-05
4.82458e-05
-4.78561e-05
-8.49899e-07
4.80863e-05
-2.21488e-07
-8.48892e-07
8.81737e-07
-5.29174e-05
3.63389e-06
5.29169e-05
-4.5865e-06
-5.51193e-05
-3.10699e-06
5.48705e-05
4.23755e-06
8.54225e-07
3.62775e-06
-4.57894e-06
-3.08871e-06
4.2032e-06
2.59968e-06
-4.94658e-05
4.96501e-05
-5.51367e-05
5.46294e-05
2.55266e-06
-9.10749e-07
-5.46327e-05
-3.07495e-06
5.43997e-05
4.2187e-06
-5.29027e-05
3.56611e-06
5.70696e-08
5.28699e-05
-4.50111e-06
-8.89147e-07
-3.05875e-06
4.18765e-06
3.56364e-06
6.33258e-08
-4.50115e-06
-2.62722e-06
-5.41662e-05
5.37185e-05
-4.97892e-05
8.33179e-07
4.98949e-05
-2.59135e-06
8.33738e-07
3.0255e-07
-5.19662e-05
-4.38977e-07
5.19908e-05
1.68966e-07
-5.16387e-05
-9.61517e-08
7.26603e-08
5.16483e-05
3.16497e-07
2.98742e-07
-4.13487e-07
1.36806e-07
-8.67467e-08
6.98355e-08
2.96202e-07
2.27831e-07
-4.82809e-05
4.84473e-05
-4.83152e-05
7.05162e-08
4.83764e-05
2.2504e-07
6.81082e-08
3.08422e-11
-5.16208e-05
-1.0007e-07
5.16033e-05
1.90178e-07
-5.16209e-05
-1.00097e-07
-7.25751e-08
5.16034e-05
1.90204e-07
2.92392e-11
-9.90252e-08
1.81115e-07
-9.9054e-08
-6.97537e-08
1.81143e-07
3.11854e-11
-4.87241e-05
4.86945e-05
-4.87244e-05
-7.04356e-08
4.86948e-05
2.97564e-11
-6.80302e-08
-3.02356e-07
-5.16388e-05
-9.62041e-08
5.16483e-05
3.16494e-07
-5.1966e-05
-4.38994e-07
-5.71935e-08
5.19905e-05
1.6935e-07
-2.9855e-07
-8.6802e-08
2.96202e-07
-4.13505e-07
-6.34425e-08
1.37184e-07
-2.27686e-07
-4.83159e-05
4.83769e-05
-4.82813e-05
-8.32909e-07
4.84476e-05
-2.24898e-07
-8.33471e-07
9.10225e-07
-5.2902e-05
3.56411e-06
5.28692e-05
-4.49871e-06
-5.46308e-05
-3.07315e-06
5.43979e-05
4.21627e-06
8.88632e-07
3.5617e-06
-4.4988e-06
-3.05687e-06
4.18518e-06
2.62556e-06
-4.97886e-05
4.98943e-05
-5.41623e-05
5.37147e-05
2.58973e-06
-9.28399e-07
-5.41713e-05
-3.03662e-06
5.39459e-05
4.19041e-06
-5.28242e-05
3.48805e-06
4.47668e-08
5.27612e-05
-4.3982e-06
-9.12032e-07
-3.02393e-06
4.16433e-06
3.49173e-06
5.02288e-08
-4.4083e-06
-2.63251e-06
-5.33017e-05
5.28976e-05
-4.99636e-05
8.13907e-07
5.00052e-05
-2.60713e-06
8.15926e-07
3.01362e-07
-5.19987e-05
-4.79507e-07
5.19897e-05
2.31863e-07
-5.16467e-05
-1.16873e-07
7.57221e-08
5.16333e-05
3.55912e-07
2.99466e-07
-4.55995e-07
1.98839e-07
-1.05112e-07
7.36679e-08
3.32422e-07
2.27056e-07
-4.85817e-05
4.8689e-05
-4.84257e-05
7.28716e-08
4.8463e-05
2.25561e-07
7.11841e-08
3.25276e-11
-5.15795e-05
-1.05322e-07
5.15478e-05
2.128e-07
-5.15796e-05
-1.05346e-07
-7.56332e-08
5.15478e-05
2.1282e-07
3.11126e-11
-1.00947e-07
1.98362e-07
-1.00972e-07
-7.35819e-08
1.98384e-07
3.29616e-11
-4.86648e-05
4.86323e-05
-4.8665e-05
-7.27879e-08
4.86324e-05
3.18111e-11
-7.11026e-08
-3.01169e-07
-5.16467e-05
-1.16917e-07
5.16333e-05
3.559e-07
-5.19984e-05
-4.79522e-07
-4.48977e-08
5.19894e-05
2.32249e-07
-2.99274e-07
-1.0516e-07
3.32412e-07
-4.56007e-07
-5.03544e-08
1.99217e-07
-2.26909e-07
-4.84261e-05
4.84633e-05
-4.85818e-05
-8.13638e-07
4.8689e-05
-2.25416e-07
-8.15659e-07
9.27867e-07
-5.28235e-05
3.48601e-06
5.27604e-05
-4.39575e-06
-5.41696e-05
-3.0348e-06
5.39443e-05
4.18796e-06
9.11509e-07
3.48974e-06
-4.40591e-06
-3.02203e-06
4.16184e-06
2.63082e-06
-4.99629e-05
5.00044e-05
-5.32981e-05
5.28942e-05
2.60547e-06
-9.37521e-07
-5.37214e-05
-2.99557e-06
5.34963e-05
4.15817e-06
-5.26864e-05
3.40263e-06
3.43462e-08
5.25942e-05
-4.28224e-06
-9.24652e-07
-2.98314e-06
4.13235e-06
3.40897e-06
3.89704e-08
-4.29781e-06
-2.62116e-06
-5.25174e-05
5.2143e-05
-5.00153e-05
7.93231e-07
5.00036e-05
-2.603e-06
7.95847e-07
2.97446e-07
-5.19648e-05
-5.1613e-07
5.19227e-05
2.95124e-07
-5.16076e-05
-1.40989e-07
7.74133e-08
5.15684e-05
4.00231e-07
2.96694e-07
-4.93996e-07
2.61257e-07
-1.27389e-07
7.59596e-08
3.73871e-07
2.24394e-07
-4.87672e-05
4.88199e-05
-4.84864e-05
7.39871e-08
4.84958e-05
2.2369e-07
7.28406e-08
3.3698e-11
-5.15074e-05
-1.16538e-07
5.14565e-05
2.44805e-07
-5.15073e-05
-1.16558e-07
-7.73219e-08
5.14564e-05
2.44819e-07
3.2655e-11
-1.09165e-07
2.25496e-07
-1.09187e-07
-7.58705e-08
2.25512e-07
3.42156e-11
-4.85959e-05
4.85533e-05
-4.8596e-05
-7.39013e-08
4.85534e-05
3.33014e-11
-7.27566e-08
-2.97255e-07
-5.16075e-05
-1.41027e-07
5.15682e-05
4.00208e-07
-5.19643e-05
-5.16144e-07
-3.44818e-08
5.19222e-05
2.95507e-07
-2.96503e-07
-1.27429e-07
3.73853e-07
-4.94011e-07
-3.91019e-08
2.61638e-07
-2.24247e-07
-4.84866e-05
4.84959e-05
-4.8767e-05
-7.92965e-07
4.88196e-05
-2.23544e-07
-7.95582e-07
9.36983e-07
-5.26856e-05
3.40058e-06
5.25934e-05
-4.27977e-06
-5.37198e-05
-2.99375e-06
5.34948e-05
4.15573e-06
9.24123e-07
3.40696e-06
-4.29539e-06
-2.98123e-06
4.12985e-06
2.61945e-06
-5.00145e-05
5.00026e-05
-5.25142e-05
5.21399e-05
2.60131e-06
-9.40376e-07
-5.32686e-05
-2.95577e-06
5.30375e-05
4.12725e-06
-5.24898e-05
3.31291e-06
2.57588e-08
5.23674e-05
-4.15674e-06
-9.30168e-07
-2.94202e-06
4.09988e-06
3.32214e-06
2.95531e-08
-4.17745e-06
-2.60046e-06
-5.17863e-05
5.1431e-05
-4.99653e-05
7.72917e-07
4.99048e-05
-2.58536e-06
7.75085e-07
2.91775e-07
-5.18646e-05
-5.47497e-07
5.17889e-05
3.57198e-07
-5.15157e-05
-1.67329e-07
7.80041e-08
5.14476e-05
4.49169e-07
2.91795e-07
-5.27582e-07
3.2342e-07
-1.52426e-07
7.70456e-08
4.19896e-07
2.20501e-07
-4.88471e-05
4.8852e-05
-4.84903e-05
7.41491e-08
4.84694e-05
2.20323e-07
7.34189e-08
3.4569e-11
-5.13949e-05
-1.33144e-07
5.13205e-05
2.85511e-07
-5.13949e-05
-1.33162e-07
-7.79109e-08
5.13205e-05
2.85521e-07
3.37632e-11
-1.22922e-07
2.61459e-07
-1.2294e-07
-7.69542e-08
2.6147e-07
3.5027e-11
-4.85038e-05
4.84448e-05
-4.85038e-05
-7.40623e-08
4.84448e-05
3.43043e-11
-7.33334e-08
-2.91586e-07
-5.15154e-05
-1.67358e-07
5.14473e-05
4.49139e-07
-5.18641e-05
-5.47483e-07
-2.5897e-08
5.17883e-05
3.57552e-07
-2.91606e-07
-1.52454e-07
4.19868e-07
-5.27568e-07
-2.96887e-08
3.23773e-07
-2.20355e-07
-4.84903e-05
4.84693e-05
-4.88467e-05
-7.72654e-07
4.88515e-05
-2.20178e-07
-7.74824e-07
9.39836e-07
-5.24889e-05
3.31086e-06
5.23666e-05
-4.15426e-06
-5.32672e-05
-2.95397e-06
5.30362e-05
4.12483e-06
9.29634e-07
3.32012e-06
-4.17501e-06
-2.94012e-06
4.09739e-06
2.59875e-06
-4.99643e-05
4.99037e-05
-5.17835e-05
5.14283e-05
2.58367e-06
-9.37376e-07
-5.28008e-05
-2.91419e-06
5.25575e-05
4.0949e-06
-5.22332e-05
3.21492e-06
1.88192e-08
5.208e-05
-4.01791e-06
-9.29955e-07
-2.90162e-06
4.06827e-06
3.22874e-06
2.19049e-08
-4.04633e-06
-2.5678e-06
-5.10885e-05
5.07421e-05
-4.98198e-05
7.5176e-07
4.97152e-05
-2.55907e-06
7.54623e-07
2.84655e-07
-5.16975e-05
-5.76826e-07
5.15877e-05
4.20799e-07
-5.13651e-05
-1.96332e-07
7.76943e-08
5.12658e-05
5.02534e-07
2.85392e-07
-5.56998e-07
3.84908e-07
-1.79839e-07
7.71472e-08
4.70597e-07
2.15629e-07
-4.88336e-05
4.87929e-05
-4.84323e-05
7.35609e-08
4.8378e-05
2.15964e-07
7.31932e-08
3.49928e-11
-5.12337e-05
-1.54766e-07
5.11319e-05
3.34255e-07
-5.12337e-05
-1.54781e-07
-7.76005e-08
5.11318e-05
3.34261e-07
3.45662e-11
-1.41904e-07
3.05813e-07
-1.41921e-07
-7.70543e-08
3.0582e-07
3.53929e-11
-4.8376e-05
4.82948e-05
-4.8376e-05
-7.34738e-08
4.82947e-05
3.49373e-11
-7.3107e-08
-2.84471e-07
-5.13648e-05
-1.96357e-07
5.12655e-05
5.02504e-07
-5.16969e-05
-5.76812e-07
-1.89581e-08
5.15871e-05
4.21139e-07
-2.85208e-07
-1.79865e-07
4.70568e-07
-5.56982e-07
-2.20419e-08
3.85249e-07
-2.15484e-07
-4.84321e-05
4.83778e-05
-4.88331e-05
-7.51502e-07
4.87923e-05
-2.15821e-07
-7.54365e-07
9.36835e-07
-5.22323e-05
3.21289e-06
5.20791e-05
-4.01545e-06
-5.27995e-05
-2.9124e-06
5.25562e-05
4.0925e-06
9.2942e-07
3.22672e-06
-4.0439e-06
-2.89973e-06
4.06581e-06
2.56609e-06
-4.98187e-05
4.9714e-05
-5.10859e-05
5.07396e-05
2.55737e-06
-9.30578e-07
-5.23059e-05
-2.87663e-06
5.20445e-05
4.06864e-06
-5.19141e-05
3.11483e-06
1.32675e-08
5.17278e-05
-3.87243e-06
-9.25154e-07
-2.86324e-06
4.03999e-06
3.1314e-06
1.57424e-08
-3.90641e-06
-2.52946e-06
-5.0403e-05
5.00559e-05
-4.95882e-05
7.31333e-07
4.94423e-05
-2.5242e-06
7.34171e-07
2.76926e-07
-5.14614e-05
-6.06731e-07
5.13151e-05
4.89397e-07
-5.1151e-05
-2.27587e-07
7.68039e-08
5.10175e-05
5.61194e-07
2.78052e-07
-5.86468e-07
4.50426e-07
-2.09672e-07
7.65459e-08
5.26011e-07
2.10279e-07
-4.87297e-05
4.86441e-05
-4.83069e-05
7.24563e-08
4.82171e-05
2.10907e-07
7.23452e-08
3.49851e-11
-5.1016e-05
-1.80715e-07
5.08824e-05
3.91021e-07
-5.10158e-05
-1.80728e-07
-7.67105e-08
5.08823e-05
3.91024e-07
3.46598e-11
-1.65672e-07
3.58136e-07
-1.65686e-07
-7.64531e-08
3.5814e-07
3.53735e-11
-4.82014e-05
4.80931e-05
-4.82013e-05
-7.23697e-08
4.8093e-05
3.50674e-11
-7.22591e-08
-2.76745e-07
-5.11506e-05
-2.27607e-07
5.10171e-05
5.6116e-07
-5.14608e-05
-6.06713e-07
-1.34067e-08
5.13144e-05
4.89734e-07
-2.77871e-07
-2.09694e-07
5.2598e-07
-5.8645e-07
-1.58801e-08
4.50763e-07
-2.10137e-07
-4.83066e-05
4.82167e-05
-4.8729e-05
-7.3108e-07
4.86432e-05
-2.10765e-07
-7.33918e-07
9.30041e-07
-5.19132e-05
3.11282e-06
5.17269e-05
-3.87001e-06
-5.23047e-05
-2.87487e-06
5.20433e-05
4.06627e-06
9.2462e-07
3.12941e-06
-3.90401e-06
-2.86137e-06
4.03757e-06
2.52777e-06
-4.9587e-05
4.94409e-05
-5.04008e-05
5.00537e-05
2.52251e-06
-9.20684e-07
-5.1772e-05
-2.84283e-06
5.14869e-05
4.0487e-06
-5.15284e-05
3.01082e-06
8.99235e-09
5.13068e-05
-3.71891e-06
-9.16821e-07
-2.82766e-06
4.0169e-06
3.03009e-06
1.09094e-08
-3.75835e-06
-2.48619e-06
-4.97118e-05
4.93552e-05
-4.92745e-05
7.11498e-07
4.90876e-05
-2.48364e-06
7.14226e-07
2.68832e-07
-5.11518e-05
-6.37242e-07
5.09671e-05
5.62112e-07
-5.08673e-05
-2.61639e-07
7.54306e-08
5.06965e-05
6.2583e-07
2.70188e-07
-6.16309e-07
5.203e-07
-2.41922e-07
7.54158e-08
5.86937e-07
2.04614e-07
-4.85366e-05
4.84062e-05
-4.81096e-05
7.09694e-08
4.79816e-05
2.05431e-07
7.1046e-08
3.47127e-11
-5.0733e-05
-2.11381e-07
5.0564e-05
4.55866e-07
-5.07329e-05
-2.11393e-07
-7.53382e-08
5.05638e-05
4.55866e-07
3.45351e-11
-1.93518e-07
4.18286e-07
-1.9353e-07
-7.53237e-08
4.18287e-07
3.50884e-11
-4.79706e-05
4.78302e-05
-4.79705e-05
-7.08841e-08
4.783e-05
3.49221e-11
-7.09609e-08
-2.68656e-07
-5.08669e-05
-2.61654e-07
5.0696e-05
6.2579e-07
-5.11511e-05
-6.37218e-07
-9.13068e-09
5.09663e-05
5.62433e-07
-2.70011e-07
-2.41939e-07
5.869e-07
-6.16286e-07
-1.10468e-08
5.20624e-07
-2.04475e-07
-4.81091e-05
4.79811e-05
-4.85356e-05
-7.11251e-07
4.84052e-05
-2.05292e-07
-7.13979e-07
9.20152e-07
-5.15275e-05
3.00885e-06
5.13059e-05
-3.71653e-06
-5.17709e-05
-2.8411e-06
5.14858e-05
4.04638e-06
9.16292e-07
3.02813e-06
-3.75598e-06
-2.82583e-06
4.01451e-06
2.48453e-06
-4.92731e-05
4.90862e-05
-4.97098e-05
4.93532e-05
2.48198e-06
-9.08279e-07
-5.1188e-05
-2.81365e-06
5.08733e-05
4.03664e-06
-5.10709e-05
2.90348e-06
5.77293e-09
5.0811e-05
-3.55764e-06
-9.05716e-07
-2.7965e-06
4.00103e-06
2.92553e-06
7.2173e-09
-3.60259e-06
-2.43934e-06
-4.89976e-05
4.86233e-05
-4.88793e-05
6.92365e-07
4.86511e-05
-2.43892e-06
6.94938e-07
2.60592e-07
-5.07645e-05
-6.69177e-07
5.05387e-05
6.40156e-07
-5.05076e-05
-2.98839e-07
7.36861e-08
5.02961e-05
6.97289e-07
2.62084e-07
-6.47103e-07
5.9477e-07
-2.77147e-07
7.38584e-08
6.54224e-07
1.988e-07
-4.82543e-05
4.80787e-05
-4.78348e-05
6.92177e-08
4.76655e-05
1.99736e-07
6.94322e-08
3.41646e-11
-5.03774e-05
-2.46768e-07
5.01687e-05
5.29146e-07
-5.03772e-05
-2.46777e-07
-7.35955e-08
5.01685e-05
5.29144e-07
3.41323e-11
-2.26246e-07
4.86639e-07
-2.26257e-07
-7.37677e-08
4.86638e-07
3.44941e-11
-4.76733e-05
4.74957e-05
-4.76731e-05
-6.91342e-08
4.74955e-05
3.44861e-11
-6.93486e-08
-2.60421e-07
-5.05072e-05
-2.98849e-07
5.02956e-05
6.97245e-07
-5.07638e-05
-6.69148e-07
-5.90932e-09
5.0538e-05
6.40462e-07
-2.61912e-07
-2.7716e-07
6.54182e-07
-6.47074e-07
-7.35332e-09
5.95078e-07
-1.98665e-07
-4.78342e-05
4.76648e-05
-4.82532e-05
-6.92125e-07
4.80775e-05
-1.996e-07
-6.94697e-07
9.07753e-07
-5.107e-05
2.90156e-06
5.08101e-05
-3.55532e-06
-5.1187e-05
-2.81196e-06
5.08723e-05
4.03437e-06
9.05193e-07
2.92361e-06
-3.60027e-06
-2.7947e-06
3.99868e-06
2.4377e-06
-4.88778e-05
4.86495e-05
-4.89958e-05
4.86216e-05
2.43729e-06
-8.93716e-07
-5.05425e-05
-2.78913e-06
5.01926e-05
4.03279e-06
-5.05357e-05
2.79232e-06
3.46579e-09
5.02342e-05
-3.388e-06
-8.92059e-07
-2.76907e-06
3.99195e-06
2.81657e-06
4.49644e-09
-3.43783e-06
-2.3894e-06
-4.82445e-05
4.78448e-05
-4.84013e-05
6.7383e-07
4.81304e-05
-2.39026e-06
6.76107e-07
2.52291e-07
-5.02941e-05
-7.03205e-07
5.00241e-05
7.2441e-07
-5.00652e-05
-3.39487e-07
7.16588e-08
4.98092e-05
7.76109e-07
2.53812e-07
-6.79499e-07
6.74838e-07
-3.15564e-07
7.19609e-08
7.28358e-07
1.92903e-07
-4.78814e-05
4.76591e-05
-4.74762e-05
6.72674e-08
4.72624e-05
1.93875e-07
6.7573e-08
3.33559e-11
-4.99408e-05
-2.86802e-07
4.96882e-05
6.11047e-07
-4.99406e-05
-2.86809e-07
-7.15707e-08
4.9688e-05
6.11044e-07
3.34442e-11
-2.63506e-07
5.63288e-07
-2.63515e-07
-7.18724e-08
5.63285e-07
3.36248e-11
-4.72998e-05
4.70802e-05
-4.72995e-05
-6.71863e-08
4.70799e-05
3.37451e-11
-6.74915e-08
-2.52125e-07
-5.00646e-05
-3.39493e-07
4.98086e-05
7.76061e-07
-5.02933e-05
-7.03171e-07
-3.59946e-09
5.00232e-05
7.24701e-07
-2.53645e-07
-3.15572e-07
7.28313e-07
-6.79466e-07
-4.63009e-09
6.75132e-07
-1.92772e-07
-4.74755e-05
4.72616e-05
-4.78802e-05
-6.73597e-07
4.76578e-05
-1.93743e-07
-6.75873e-07
8.93199e-07
-5.05348e-05
2.79045e-06
5.02333e-05
-3.38574e-06
-5.05415e-05
-2.78747e-06
5.01916e-05
4.03056e-06
8.91543e-07
2.8147e-06
-3.43557e-06
-2.76732e-06
3.98966e-06
2.3878e-06
-4.83997e-05
4.81287e-05
-4.82429e-05
4.78432e-05
2.38866e-06
-8.77663e-07
-4.9824e-05
-2.77068e-06
4.94331e-05
4.03926e-06
-4.99158e-05
2.67819e-06
1.93614e-09
4.95689e-05
-3.21088e-06
-8.77056e-07
-2.74849e-06
3.99412e-06
2.70576e-06
2.61331e-09
-3.267e-06
-2.33778e-06
-4.74367e-05
4.70038e-05
-4.78374e-05
6.56076e-07
4.75217e-05
-2.34044e-06
6.58296e-07
2.44089e-07
-4.97338e-05
-7.39982e-07
4.94161e-05
8.15617e-07
-4.95322e-05
-3.83947e-07
6.94415e-08
4.92278e-05
8.63004e-07
2.45692e-07
-7.14627e-07
7.61771e-07
-3.57728e-07
6.98684e-08
8.10497e-07
1.87044e-07
-4.74147e-05
4.71438e-05
-4.70272e-05
6.51938e-08
4.67651e-05
1.88092e-07
6.55903e-08
3.23533e-11
-4.94146e-05
-3.31645e-07
4.91137e-05
7.02011e-07
-4.94144e-05
-3.31651e-07
-6.93561e-08
4.91135e-05
7.02005e-07
3.25478e-11
-3.05567e-07
6.48957e-07
-3.05574e-07
-6.97825e-08
6.48952e-07
3.25502e-11
-4.68402e-05
4.65737e-05
-4.68399e-05
-6.51153e-08
4.65734e-05
3.27831e-11
-6.55112e-08
-2.43929e-07
-4.95316e-05
-3.83949e-07
4.92272e-05
8.62952e-07
-4.9733e-05
-7.39942e-07
-2.06642e-09
4.94152e-05
8.15889e-07
-2.4553e-07
-3.57731e-07
8.10448e-07
-7.14589e-07
-2.74396e-09
7.62048e-07
-1.86917e-07
-4.70263e-05
4.67642e-05
-4.74133e-05
-6.5585e-07
4.71423e-05
-1.87965e-07
-6.58069e-07
8.77156e-07
-4.99148e-05
2.67637e-06
4.95679e-05
-3.20868e-06
-4.98231e-05
-2.76906e-06
4.94322e-05
4.03708e-06
8.76549e-07
2.70395e-06
-3.2648e-06
-2.74677e-06
3.99188e-06
2.33622e-06
-4.78357e-05
4.75201e-05
-4.74353e-05
4.70025e-05
2.33887e-06
-8.60364e-07
-4.90211e-05
-2.75826e-06
4.85835e-05
4.05621e-06
-4.92035e-05
2.56066e-06
1.06128e-09
4.88072e-05
-3.02577e-06
-8.60471e-07
-2.73311e-06
4.00554e-06
2.59102e-06
1.43608e-09
-3.0876e-06
-2.28481e-06
-4.65592e-05
4.60858e-05
-4.71832e-05
6.39012e-07
4.68201e-05
-2.28851e-06
6.41039e-07
2.36012e-07
-4.90768e-05
-7.79845e-07
4.87075e-05
9.14142e-07
-4.89009e-05
-4.32422e-07
6.70786e-08
4.8544e-05
9.58281e-07
2.37619e-07
-7.52483e-07
8.556e-07
-4.03693e-07
6.75931e-08
9.0061e-07
1.81244e-07
-4.685e-05
4.65279e-05
-4.64802e-05
6.30289e-08