/*--------------------------------*- C++ -*----------------------------------*\
  =========                 |
  \\      /  F ield         | OpenFOAM: The Open Source CFD Toolbox
   \\    /   O peration     | Website:  https://openfoam.org
    \\  /    A nd           | Version:  9
     \\/     M anipulation  |
\*---------------------------------------------------------------------------*/
FoamFile
{
    format      ascii;
    class       volVectorField;
    location    "3.45";
    object      U;
}
// * * * * * * * * * * * * * * * * * * * * * * * * * * * * * * * * * * * * * //

dimensions      [0 1 -1 0 0 0 0];

internalField   nonuniform List<vector> 
36360
(
(0.00436634 -0.125201 -0.496784)
(-0.00109976 -0.090249 0.000221797)
(0.00476801 -0.12991 -0.499578)
(-0.00253338 -0.082734 0.000138748)
(0.00377506 -0.145384 -0.500641)
(0.00421485 -0.0685768 -1.13699e-05)
(0.00911275 -0.156591 -0.501761)
(0.00312322 -0.0693832 -4.19475e-06)
(0.00300956 -0.0957197 -0.000145706)
(0.000988516 -0.0997005 -7.22939e-06)
(0.000975709 -0.0941887 -9.85143e-05)
(-0.000991074 -0.0981262 -4.50153e-06)
(0.00636586 -0.0946587 2.31553e-05)
(0.00447607 -0.104647 -4.14247e-06)
(0.00688214 -0.10169 -1.39605e-06)
(0.00618811 -0.108901 -7.25877e-06)
(-0.00113717 -0.101618 2.40395e-07)
(-0.00113557 -0.101619 -2.41719e-07)
(-0.00266091 -0.0995753 -1.98448e-07)
(-0.00265968 -0.0995769 1.96945e-07)
(0.0040337 -0.105753 -1.62887e-07)
(0.0040332 -0.105754 1.63439e-07)
(0.00636864 -0.108524 -1.98506e-06)
(0.00636811 -0.108526 1.98689e-06)
(0.000989525 -0.0997042 7.23494e-06)
(0.0030094 -0.095724 0.000145727)
(-0.000989492 -0.09813 4.50261e-06)
(0.000975928 -0.0941935 9.85336e-05)
(0.00447537 -0.104651 4.14934e-06)
(0.00636462 -0.0946647 -2.31353e-05)
(0.00618735 -0.108905 7.25971e-06)
(0.00688129 -0.101695 1.39981e-06)
(-0.0010991 -0.0902506 -0.000221793)
(0.0043662 -0.125192 0.496784)
(-0.00253315 -0.0827366 -0.000138741)
(0.00476781 -0.1299 0.499578)
(0.00421425 -0.0685837 1.13258e-05)
(0.00377422 -0.145366 0.500641)
(0.00312187 -0.0693888 4.1788e-06)
(0.00911175 -0.156572 0.501761)
(0.00663638 -0.12177 -0.494598)
(-0.00521357 -0.0934601 0.000149661)
(0.00591972 -0.124436 -0.49575)
(-0.00318631 -0.0914774 0.00019004)
(0.00356546 -0.138687 -0.500649)
(-0.00241546 -0.0673974 -0.000158569)
(0.00316112 -0.142181 -0.500886)
(0.000949374 -0.0655817 -7.75118e-05)
(0.00229391 -0.0958271 -6.23487e-05)
(0.002166 -0.0997006 -8.17757e-06)
(0.00303171 -0.0956928 -0.000106042)
(0.00216038 -0.0998893 -7.80206e-06)
(0.0036424 -0.0856301 0.000186106)
(0.00279624 -0.097615 1.79752e-06)
(0.00531612 -0.0884807 0.000100885)
(0.00381081 -0.100443 -2.14068e-06)
(0.00162322 -0.101638 -1.86707e-06)
(0.00162321 -0.101639 1.87e-06)
(0.0010046 -0.101956 1.05399e-07)
(0.00100498 -0.101957 -1.04398e-07)
(0.00231553 -0.101378 -1.73685e-06)
(0.00231525 -0.101379 1.7392e-06)
(0.00281986 -0.10346 -4.39456e-07)
(0.00281966 -0.103461 4.41232e-07)
(0.00216582 -0.0997034 8.19127e-06)
(0.00229399 -0.0958302 6.23666e-05)
(0.00216043 -0.0998924 7.81278e-06)
(0.00303155 -0.0956963 0.000106062)
(0.00279548 -0.097619 -1.78208e-06)
(0.00364194 -0.0856374 -0.00018605)
(0.00380996 -0.100447 2.15301e-06)
(0.00531502 -0.0884876 -0.000100849)
(-0.00521195 -0.0934604 -0.000149706)
(0.00663555 -0.121762 0.4946)
(-0.00318515 -0.091478 -0.00019006)
(0.00591916 -0.124427 0.495751)
(-0.0024142 -0.0674032 0.000158433)
(0.00356419 -0.13867 0.50065)
(0.00094978 -0.0655883 7.74268e-05)
(0.00316004 -0.142163 0.500887)
(0.00724364 -0.117265 -0.492707)
(-0.00733807 -0.0956947 4.42867e-05)
(0.0069929 -0.119328 -0.493586)
(-0.00651889 -0.094714 0.000100057)
(0.00422788 -0.131091 -0.50029)
(-0.00513157 -0.0731969 -0.000340358)
(0.00392075 -0.134749 -0.500454)
(-0.00419693 -0.0700989 -0.000247664)
(0.00091143 -0.0954991 2.85694e-05)
(0.00142417 -0.0986613 1.19442e-05)
(0.00151401 -0.0956425 -1.60063e-05)
(0.00182827 -0.0992185 -1.08378e-06)
(0.00187373 -0.082697 0.000353835)
(0.00129814 -0.0935666 2.62012e-05)
(0.0025383 -0.083644 0.000272409)
(0.00188304 -0.0952556 1.16673e-05)
(0.00125801 -0.100547 -1.78661e-06)
(0.00125803 -0.100548 1.78375e-06)
(0.00154921 -0.101139 -2.66577e-06)
(0.00154913 -0.101139 2.66142e-06)
(0.0010926 -0.0977601 -1.25111e-06)
(0.00109249 -0.0977615 1.24966e-06)
(0.00164372 -0.0993049 -2.05492e-06)
(0.00164351 -0.0993062 2.05466e-06)
(0.00142409 -0.0986637 -1.19854e-05)
(0.000911684 -0.0955014 -2.85743e-05)
(0.0018281 -0.099221 1.09002e-06)
(0.00151426 -0.0956451 1.6023e-05)
(0.00129796 -0.0935712 -2.61822e-05)
(0.00187371 -0.082704 -0.000353738)
(0.0018826 -0.0952601 -1.16498e-05)
(0.00253816 -0.0836512 -0.000272332)
(-0.00733601 -0.0956942 -4.43644e-05)
(0.00724206 -0.117258 0.49271)
(-0.00651702 -0.0947139 -0.000100129)
(0.00699165 -0.11932 0.493588)
(-0.00512954 -0.073201 0.000340104)
(0.00422607 -0.131075 0.50029)
(-0.00419525 -0.0701039 0.00024747)
(0.00391915 -0.134733 0.500454)
(0.00762961 -0.113941 -0.491121)
(-0.00819577 -0.0972521 -7.36796e-05)
(0.00744806 -0.115486 -0.49185)
(-0.0078539 -0.0965297 -1.4535e-05)
(0.00460852 -0.124655 -0.499998)
(-0.0059925 -0.079123 -0.000523974)
(0.00444756 -0.127731 -0.500133)
(-0.00564711 -0.0762734 -0.000433231)
(0.000221838 -0.0956349 0.000102499)
(0.000847475 -0.0978583 4.80584e-05)
(0.000491288 -0.0955015 6.83214e-05)
(0.00109445 -0.0981989 2.90118e-05)
(0.00119503 -0.0827497 0.000492632)
(0.000696639 -0.0916469 6.44992e-05)
(0.00144419 -0.0824915 0.000427516)
(0.000936984 -0.0924231 4.42472e-05)
(0.000783268 -0.0995178 3.62416e-06)
(0.000783259 -0.0995185 -3.59907e-06)
(0.000986158 -0.0999897 3.6513e-07)
(0.000986107 -0.0999905 -3.55561e-07)
(0.000590659 -0.0958527 3.74413e-06)
(0.000590628 -0.0958541 -3.71842e-06)
(0.000773246 -0.0966685 7.20428e-07)
(0.00077318 -0.09667 -7.08121e-07)
(0.000847522 -0.0978603 -4.80028e-05)
(0.000222243 -0.0956367 -0.000102462)
(0.00109446 -0.098201 -2.89718e-05)
(0.0004917 -0.0955036 -6.82977e-05)
(0.00069666 -0.0916513 -6.44356e-05)
(0.001195 -0.0827558 -0.000492467)
(0.00093694 -0.0924277 -4.42046e-05)
(0.00144419 -0.0824981 -0.000427382)
(-0.00819328 -0.0972512 7.35253e-05)
(0.00762737 -0.113934 0.491125)
(-0.00785161 -0.096529 1.44036e-05)
(0.00744608 -0.115479 0.491853)
(-0.00598992 -0.0791255 0.000523606)
(0.00460627 -0.12464 0.499999)
(-0.00564476 -0.0762766 0.00043292)
(0.00444542 -0.127715 0.500134)
(0.0079281 -0.111424 -0.489771)
(-0.00860423 -0.0984337 -0.000187571)
(0.00778534 -0.1126 -0.490385)
(-0.00843054 -0.0978845 -0.000131684)
(0.004815 -0.119371 -0.499747)
(-0.00639043 -0.0839192 -0.000693513)
(0.00471624 -0.121876 -0.499863)
(-0.00622132 -0.0816759 -0.000611029)
(-4.10253e-05 -0.0961303 0.000153706)
(0.000539474 -0.0975077 8.83562e-05)
(5.7907e-05 -0.0958523 0.000130868)
(0.000669282 -0.0976346 6.80855e-05)
(0.000981612 -0.084006 0.000597403)
(0.000390286 -0.0908198 0.00010752)
(0.00105739 -0.0832902 0.000549093)
(0.000524125 -0.0911347 8.58751e-05)
(0.000538821 -0.0988525 1.25842e-05)
(0.000538858 -0.0988532 -1.2542e-05)
(0.00064043 -0.0991422 7.7824e-06)
(0.000640446 -0.0991429 -7.7462e-06)
(0.000412481 -0.0947017 1.21314e-05)
(0.000412496 -0.0947031 -1.21188e-05)
(0.000482111 -0.0952148 7.6343e-06)
(0.000482107 -0.0952162 -7.59892e-06)
(0.000539566 -0.0975094 -8.82624e-05)
(-4.06146e-05 -0.0961315 -0.000153654)
(0.000669356 -0.0976364 -6.80112e-05)
(5.8349e-05 -0.0958538 -0.000130825)
(0.000390401 -0.0908239 -0.000107374)
(0.000981662 -0.0840111 -0.000597145)
(0.000524183 -0.091139 -8.57882e-05)
(0.00105738 -0.0832958 -0.000548898)
(-0.00860138 -0.0984324 0.000187357)
(0.00792532 -0.111418 0.489777)
(-0.00842788 -0.0978834 0.000131501)
(0.00778275 -0.112594 0.49039)
(-0.00638755 -0.0839205 0.000692997)
(0.00481234 -0.119358 0.499748)
(-0.00621857 -0.0816778 0.0006106)
(0.00471362 -0.121862 0.499864)
(0.00817423 -0.109466 -0.488624)
(-0.00884178 -0.0992933 -0.00028976)
(0.00805426 -0.110388 -0.489135)
(-0.00873478 -0.0989006 -0.000240369)
(0.00495072 -0.115092 -0.49953)
(-0.00660022 -0.0875221 -0.000842516)
(0.004881 -0.11712 -0.499629)
(-0.00650139 -0.0858585 -0.00077062)
(-0.00011994 -0.0967676 0.000185407)
(0.000382379 -0.0974604 0.000126212)
(-9.40379e-05 -0.0964457 0.000171644)
(0.000446869 -0.0974566 0.000107865)
(0.000989789 -0.0856853 0.000672383)
(0.000197186 -0.0905884 0.000149132)
(0.000961939 -0.0848237 0.000638077)
(0.000282719 -0.0906493 0.000128575)
(0.000405611 -0.0984719 2.33423e-05)
(0.000405823 -0.0984724 -2.33305e-05)
(0.000463906 -0.098634 1.7862e-05)
(0.000463954 -0.0986347 -1.78084e-05)
(0.000323894 -0.0939342 2.20878e-05)
(0.00032408 -0.0939358 -2.2521e-05)
(0.000363493 -0.0942815 1.71638e-05)
(0.000363506 -0.0942827 -1.70059e-05)
(0.000382535 -0.0974617 -0.000126014)
(-0.000119526 -0.0967682 -0.000185313)
(0.000446934 -0.0974581 -0.000107788)
(-9.34997e-05 -0.0964466 -0.000171585)
(0.000197375 -0.0905918 -0.000148078)
(0.000989281 -0.085689 -0.000671897)
(0.000282821 -0.0906532 -0.00012851)
(0.000961835 -0.0848284 -0.00063795)
(-0.00883859 -0.0992919 0.000289415)
(0.00817099 -0.109461 0.488631)
(-0.00873175 -0.0988993 0.000240134)
(0.00805115 -0.110382 0.489141)
(-0.00659712 -0.0875225 0.000841421)
(0.00494776 -0.11508 0.499531)
(-0.0064984 -0.0858595 0.000770124)
(0.00487803 -0.117107 0.49963)
(0.00838249 -0.107896 -0.487648)
(-0.00899607 -0.0998846 -0.000378279)
(0.00828004 -0.108642 -0.488071)
(-0.00892539 -0.0996183 -0.000335602)
(0.00505036 -0.111612 -0.499343)
(-0.00673983 -0.0901363 -0.00096894)
(0.00499476 -0.113265 -0.499426)
(-0.00666758 -0.088937 -0.000907664)
(-9.26631e-05 -0.0973742 0.000202829)
(0.000318259 -0.0975687 0.00015877)
(-0.000117968 -0.0970782 0.000195487)
(0.00034153 -0.0975017 0.000143021)
(0.0010929 -0.0873748 0.00072367)
(7.86172e-05 -0.0906861 0.00018504)
(0.00103986 -0.0865431 0.000700476)
(0.000130702 -0.090607 0.000166145)
(0.000323482 -0.0982724 3.42557e-05)
(0.000323793 -0.0982729 -3.42034e-05)
(0.000360179 -0.0983546 2.88565e-05)
(0.000359904 -0.0983551 -2.88499e-05)
(0.000257317 -0.0934098 3.26681e-05)
(0.000257632 -0.0934107 -3.28584e-05)
(0.00028944 -0.0936466 2.77857e-05)
(0.000289155 -0.0936478 -2.73683e-05)
(0.00031827 -0.0975697 -0.000158515)
(-9.22574e-05 -0.0973745 -0.000202783)
(0.00034188 -0.0975029 -0.000143153)
(-0.000116771 -0.0970789 -0.000195604)
(7.86872e-05 -0.0906893 -0.00018361)
(0.00109222 -0.0873786 -0.000723577)
(0.00013109 -0.0906106 -0.000168363)
(0.00103986 -0.0865468 -0.000700282)
(-0.0089925 -0.0998831 0.000377842)
(0.00837891 -0.107891 0.487656)
(-0.00892174 -0.099617 0.000335418)
(0.00827664 -0.108636 0.488078)
(-0.00673647 -0.0901366 0.00096761)
(0.00504716 -0.111601 0.499344)
(-0.00666416 -0.0889373 0.000908067)
(0.00499158 -0.113254 0.499428)
(0.00855736 -0.106596 -0.486821)
(-0.0091034 -0.100267 -0.000453298)
(0.00847128 -0.107218 -0.487172)
(-0.00905322 -0.100098 -0.000416978)
(0.0051279 -0.108742 -0.499183)
(-0.00684769 -0.091999 -0.00107367)
(0.00508221 -0.110111 -0.499254)
(-0.00678894 -0.0911476 -0.00102365)
(4.83323e-06 -0.0979027 0.00021063)
(0.000311016 -0.0977412 0.000185096)
(-4.69873e-05 -0.0976501 0.000207658)
(0.000309402 -0.0976513 0.000172252)
(0.00120778 -0.0888913 0.000757871)
(1.0435e-05 -0.0909519 0.000213416)
(0.00114933 -0.0881608 0.000742648)
(3.92021e-05 -0.0908054 0.000199734)
(0.00027269 -0.0981804 4.4144e-05)
(0.000272786 -0.0981808 -4.41194e-05)
(0.000294862 -0.0982168 3.92206e-05)
(0.00029499 -0.0982173 -3.94708e-05)
(0.000203787 -0.093057 4.24151e-05)
(0.000203872 -0.0930581 -4.24e-05)
(0.000229087 -0.0932148 3.76795e-05)
(0.000229163 -0.0932161 -3.77926e-05)
(0.000311137 -0.0977421 -0.000185028)
(5.39873e-06 -0.0979033 -0.000210617)
(0.000309679 -0.0976521 -0.000173031)
(-4.589e-05 -0.0976504 -0.00020771)
(1.06645e-05 -0.0909545 -0.000213259)
(0.00120741 -0.0888939 -0.000757599)
(3.93692e-05 -0.0908081 -0.000199643)
(0.00114854 -0.0881635 -0.000742361)
(-0.00909941 -0.100266 0.000452984)
(0.00855351 -0.106591 0.48683)
(-0.00904927 -0.100097 0.000417479)
(0.0084675 -0.107214 0.48718)
(-0.00684398 -0.0919987 0.00107287)
(0.00512452 -0.108732 0.499185)
(-0.00678548 -0.0911474 0.00102293)
(0.00507868 -0.1101 0.499255)
(0.00870253 -0.105481 -0.486116)
(-0.00917335 -0.100483 -0.000515583)
(0.0086306 -0.10602 -0.486403)
(-0.00914044 -0.100394 -0.000485968)
(0.00518608 -0.106336 -0.499047)
(-0.0069225 -0.0932995 -0.00115951)
(0.00514885 -0.107489 -0.499106)
(-0.00687978 -0.0927097 -0.0011188)
(0.000104159 -0.0983234 0.000212208)
(0.000335521 -0.0979166 0.000205034)
(5.77374e-05 -0.0981285 0.00021203)
(0.000320818 -0.0978315 0.000195873)
(0.00134845 -0.0901579 0.00077936)
(-1.90192e-05 -0.0912776 0.000235728)
(0.00127519 -0.0895575 0.000769924)
(-8.13338e-06 -0.0911117 0.00022537)
(0.000246192 -0.0981405 5.25284e-05)
(0.000246258 -0.0981408 -5.24231e-05)
(0.000256698 -0.0981567 4.85568e-05)
(0.000256774 -0.0981571 -4.84671e-05)
(0.000160839 -0.092825 5.07006e-05)
(0.000160924 -0.0928259 -5.05992e-05)
(0.000181254 -0.0929283 4.67611e-05)
(0.000181337 -0.0929293 -4.66821e-05)
(0.000335536 -0.0979171 -0.000204872)
(0.00010446 -0.0983234 -0.000212179)
(0.000320874 -0.0978321 -0.000195727)
(5.8158e-05 -0.0981287 -0.000212002)
(-1.87767e-05 -0.0912796 -0.000235545)
(0.00134826 -0.0901598 -0.000779056)
(-7.89182e-06 -0.0911139 -0.0002252)
(0.00127492 -0.0895597 -0.000769633)
(-0.00916917 -0.100481 0.000515178)
(0.00869834 -0.105477 0.486125)
(-0.00913639 -0.100393 0.000485584)
(0.00862642 -0.106016 0.486412)
(-0.00691855 -0.0932989 0.00115863)
(0.0051825 -0.106327 0.499049)
(-0.00687597 -0.0927092 0.00111796)
(0.00514513 -0.10748 0.499107)
(0.00882301 -0.104491 -0.485517)
(-0.00921138 -0.100551 -0.000566583)
(0.00876271 -0.104974 -0.485754)
(-0.0091944 -0.100534 -0.000542318)
(0.00522872 -0.104281 -0.498931)
(-0.00696725 -0.0941717 -0.00122877)
(0.00519849 -0.105271 -0.49898)
(-0.00693883 -0.0937821 -0.00119602)
(0.00019573 -0.0986096 0.000209976)
(0.000379455 -0.0980536 0.000219182)
(0.000150209 -0.0984831 0.000211452)
(0.000355477 -0.0979915 0.0002127)
(0.00148755 -0.0911565 0.000791821)
(-2.23594e-05 -0.0915959 0.000252076)
(0.00142236 -0.0906894 0.000786514)
(-2.30532e-05 -0.0914402 0.000244578)
(0.000241633 -0.098113 5.91437e-05)
(0.000241688 -0.0981132 -5.90253e-05)
(0.000241284 -0.0981272 5.60423e-05)
(0.000241344 -0.0981274 -5.59297e-05)
(0.000127116 -0.0926686 5.73498e-05)
(0.000127198 -0.0926693 -5.72314e-05)
(0.00014241 -0.0927394 5.42289e-05)
(0.000142499 -0.0927402 -5.41174e-05)
(0.000379442 -0.0980539 -0.000219009)
(0.000196043 -0.0986093 -0.000209952)
(0.000355474 -0.0979919 -0.000212532)
(0.000150497 -0.0984829 -0.000211425)
(-2.21303e-05 -0.0915974 -0.000251877)
(0.00148723 -0.0911576 -0.000791502)
(-2.28178e-05 -0.091442 -0.000244387)
(0.0014221 -0.0906909 -0.000786201)
(-0.00920695 -0.10055 0.000566144)
(0.00881858 -0.104487 0.485527)
(-0.00919012 -0.100532 0.000541897)
(0.00875824 -0.10497 0.485764)
(-0.00696308 -0.0941708 0.00122783)
(0.00522499 -0.104273 0.498933)
(-0.00693481 -0.0937814 0.00119511)
(0.00519457 -0.105263 0.498982)
(0.00892357 -0.10358 -0.485002)
(-0.00921991 -0.100491 -0.00060828)
(0.00887244 -0.104028 -0.485193)
(-0.00921681 -0.100536 -0.000588425)
(0.00525753 -0.102488 -0.498833)
(-0.00698661 -0.094709 -0.00128404)
(0.00523322 -0.103356 -0.498873)
(-0.006969 -0.0944771 -0.00125797)
(0.000291565 -0.0987666 0.000205577)
(0.000438513 -0.0981278 0.000228922)
(0.000243835 -0.0987038 0.000207973)
(0.000407545 -0.0980996 0.000224525)
(0.00160604 -0.0919031 0.000797923)
(-8.65187e-06 -0.0918633 0.000263491)
(0.00155047 -0.0915594 0.00079551)
(-1.69648e-05 -0.0917375 0.000258327)
(0.000257429 -0.0980662 6.41309e-05)
(0.000257474 -0.0980663 -6.40027e-05)
(0.00024719 -0.0980936 6.18234e-05)
(0.00024724 -0.0980937 -6.17003e-05)
(0.000107671 -0.0925501 6.24233e-05)
(0.000107743 -0.0925506 -6.22945e-05)
(0.000115817 -0.0926062 6.00716e-05)
(0.000115893 -0.0926068 -5.99477e-05)
(0.000438485 -0.0981279 -0.000228742)
(0.000291929 -0.0987662 -0.00020556)
(0.000407522 -0.0980998 -0.000224348)
(0.00024417 -0.0987035 -0.000207952)
(-8.44358e-06 -0.0918644 -0.000263281)
(0.00160562 -0.0919038 -0.000797593)
(-1.6747e-05 -0.0917388 -0.000258123)
(0.00155009 -0.0915603 -0.000795185)
(-0.00921526 -0.100489 0.000607817)
(0.00891896 -0.103576 0.485013)
(-0.00921229 -0.100535 0.000587972)
(0.00886775 -0.104025 0.485204)
(-0.00698228 -0.0947079 0.00128304)
(0.00525367 -0.102481 0.498835)
(-0.00696478 -0.0944761 0.001257)
(0.00522915 -0.103349 0.498875)
(0.00900932 -0.102712 -0.484556)
(-0.00920259 -0.100313 -0.000642237)
(0.00896494 -0.103142 -0.484715)
(-0.00921235 -0.100416 -0.00062613)
(0.00527565 -0.100889 -0.498749)
(-0.00698378 -0.094979 -0.00132764)
(0.00525603 -0.101668 -0.498782)
(-0.0069772 -0.0948737 -0.00130713)
(0.000391534 -0.0987966 0.000200087)
(0.000509182 -0.0981221 0.000235176)
(0.000341769 -0.0987973 0.000202926)
(0.000472722 -0.0981357 0.000232408)
(0.00170861 -0.0924178 0.00079959)
(1.59909e-05 -0.0920511 0.000270993)
(0.00166074 -0.0921877 0.000799194)
(2.81641e-06 -0.0919679 0.000267666)
(0.000291359 -0.0979754 6.7696e-05)
(0.000291394 -0.0979754 -6.75599e-05)
(0.000272287 -0.0980275 6.60681e-05)
(0.000272326 -0.0980275 -6.59364e-05)
(9.95094e-05 -0.092436 6.61113e-05)
(9.95772e-05 -0.0924363 -6.59742e-05)
(0.000102371 -0.0924939 6.44249e-05)
(0.000102441 -0.0924943 -6.42918e-05)
(0.000509142 -0.0981219 -0.00023499)
(0.000391958 -0.098796 -0.000200075)
(0.000472685 -0.0981356 -0.000232225)
(0.000342158 -0.0987967 -0.00020291)
(1.6176e-05 -0.0920518 -0.000270775)
(0.00170812 -0.0924179 -0.000799253)
(3.01172e-06 -0.0919688 -0.000267452)
(0.00166027 -0.0921881 -0.000798861)
(-0.00919774 -0.100312 0.000641755)
(0.00900457 -0.102709 0.484568)
(-0.00920762 -0.100415 0.000625658)
(0.00896008 -0.103139 0.484727)
(-0.00697931 -0.0949776 0.0013266)
(0.00527169 -0.100882 0.498751)
(-0.00697283 -0.0948724 0.00130611)
(0.00525182 -0.101661 0.498784)
(0.00908525 -0.101859 -0.484164)
(-0.00916092 -0.100024 -0.00066958)
(0.00904505 -0.102286 -0.484292)
(-0.00918223 -0.100182 -0.000656608)
(0.00528583 -0.0994287 -0.498676)
(-0.0069578 -0.0950244 -0.0013607)
(0.00526914 -0.100145 -0.498703)
(-0.00696219 -0.0950275 -0.00134566)
(0.000495339 -0.0987009 0.000194163)
(0.000589311 -0.0980239 0.000238767)
(0.00044408 -0.0987644 0.000197159)
(0.000548424 -0.0980851 0.000237238)
(0.00179806 -0.0927174 0.000798207)
(4.82992e-05 -0.0921404 0.000275467)
(0.00175635 -0.092593 0.000799191)
(3.13824e-05 -0.0921085 0.000273553)
(0.000341649 -0.0978212 7.00945e-05)
(0.000341672 -0.0978211 -6.99522e-05)
(0.000314601 -0.0979072 6.90172e-05)
(0.00031463 -0.0979072 -6.88782e-05)
(0.000101041 -0.0922968 6.86436e-05)
(0.000101108 -0.092297 -6.85e-05)
(9.91003e-05 -0.0923706 6.75056e-05)
(9.9167e-05 -0.0923709 -6.7365e-05)
(0.000589252 -0.0980236 -0.000238577)
(0.000495799 -0.0987001 -0.000194155)
(0.000548375 -0.0980849 -0.00023705)
(0.000444532 -0.0987636 -0.000197148)
(4.84713e-05 -0.0921406 -0.000275244)
(0.00179753 -0.092717 -0.000797865)
(3.15562e-05 -0.092109 -0.000273332)
(0.00175583 -0.0925929 -0.000798852)
(-0.00915593 -0.100022 0.00066908)
(0.00908039 -0.101856 0.484176)
(-0.00917733 -0.100181 0.000656117)
(0.00904007 -0.102283 0.484304)
(-0.00695322 -0.0950227 0.00135963)
(0.0052818 -0.0994228 0.498678)
(-0.00695769 -0.0950259 0.00134461)
(0.00526484 -0.100138 0.498705)
(0.00915771 -0.100994 -0.483817)
(-0.00909951 -0.0996217 -0.000691364)
(0.00911832 -0.10143 -0.48392)
(-0.00913038 -0.0998369 -0.000681045)
(0.0052942 -0.0980591 -0.498612)
(-0.00691763 -0.0948839 -0.00138751)
(0.00527669 -0.0987352 -0.498634)
(-0.00692928 -0.09498 -0.0013745)
(0.000589 -0.0984787 0.000188226)
(0.000675507 -0.0978225 0.000240319)
(0.000544674 -0.0986055 0.000191173)
(0.000631694 -0.0979367 0.000239736)
(0.00187872 -0.0928234 0.000794762)
(8.71364e-05 -0.09212 0.000277565)
(0.00184039 -0.0927927 0.000796676)
(6.71616e-05 -0.0921435 0.000276708)
(0.000407275 -0.0975863 7.15554e-05)
(0.000407288 -0.0975862 -7.1408e-05)
(0.000372501 -0.0977147 7.09199e-05)
(0.000372517 -0.0977146 -7.0775e-05)
(0.000112454 -0.0921073 7.02503e-05)
(0.000112524 -0.0921074 -7.01015e-05)
(0.000105442 -0.0922092 6.95446e-05)
(0.00010551 -0.0922094 -6.93983e-05)
(0.000675406 -0.0978221 -0.000240125)
(0.000589331 -0.0984778 -0.000188221)
(0.000631602 -0.0979363 -0.000239544)
(0.000545011 -0.0986046 -0.000191166)
(8.73078e-05 -0.0921199 -0.000277339)
(0.00187818 -0.0928226 -0.000794417)
(6.73252e-05 -0.0921436 -0.000276483)
(0.00183985 -0.0927921 -0.000796331)
(-0.00909443 -0.0996201 0.00069085)
(0.00915278 -0.100992 0.48383)
(-0.00912537 -0.0998354 0.000680539)
(0.00911325 -0.101427 0.483932)
(-0.00691295 -0.0948819 0.00138641)
(0.00529013 -0.0980538 0.498614)
(-0.00692468 -0.0949782 0.00137342)
(0.00527233 -0.0987296 0.498636)
(0.00923078 -0.100096 -0.483495)
(-0.00901696 -0.0991055 -0.000708526)
(0.00919034 -0.10055 -0.483584)
(-0.00905862 -0.0993786 -0.000700413)
(0.00529936 -0.0967435 -0.498555)
(-0.00685695 -0.0945663 -0.00140691)
(0.0052832 -0.0973969 -0.498574)
(-0.00687748 -0.0947461 -0.00139792)
(0.000685389 -0.0981295 0.000182546)
(0.000770976 -0.0975076 0.000240393)
(0.00063645 -0.0983202 0.000185349)
(0.000722206 -0.0976796 0.000240482)
(0.00195445 -0.0927549 0.000789942)
(0.000132803 -0.0919782 0.000278188)
(0.00191856 -0.0928105 0.000792451)
(0.000109736 -0.092064 0.000278092)
(0.000488901 -0.097255 7.23256e-05)
(0.000488907 -0.0972548 -7.21746e-05)
(0.000446123 -0.0974335 7.20045e-05)
(0.000446132 -0.0974333 -7.18548e-05)
(0.00013432 -0.0918444 7.11554e-05)
(0.000134388 -0.0918444 -7.10028e-05)
(0.000121985 -0.0919858 7.07789e-05)
(0.000122054 -0.0919858 -7.06279e-05)
(0.000770876 -0.097507 -0.000240198)
(0.000685744 -0.0981284 -0.000182544)
(0.000722105 -0.0976791 -0.000240288)
(0.000636789 -0.0983191 -0.000185346)
(0.000132957 -0.0919778 -0.000277958)
(0.00195389 -0.0927537 -0.000789596)
(0.000109898 -0.0920637 -0.000277864)
(0.00191799 -0.0928095 -0.000792106)
(-0.0090118 -0.0991039 0.000708001)
(0.0092258 -0.100093 0.483508)
(-0.00905351 -0.099377 0.000699895)
(0.0091852 -0.100548 0.483597)
(-0.00685222 -0.0945641 0.00140579)
(0.00529526 -0.0967388 0.498557)
(-0.0068728 -0.094744 0.00139681)
(0.0052788 -0.0973919 0.498576)
(0.00931014 -0.0991391 -0.483199)
(-0.00891452 -0.0984689 -0.000721721)
(0.00926648 -0.0996261 -0.483274)
(-0.00896624 -0.0988022 -0.000715497)
(0.00530701 -0.0954415 -0.498504)
(-0.00678594 -0.0940878 -0.00142087)
(0.0052901 -0.0960926 -0.498519)
(-0.00681153 -0.0943462 -0.00141447)
(0.000793152 -0.097647 0.000177207)
(0.000877231 -0.0970692 0.00023942)
(0.000738573 -0.0979054 0.000179821)
(0.000822765 -0.0973045 0.000239988)
(0.00202624 -0.0925151 0.000784364)
(0.000181782 -0.091707 0.000277466)
(0.00199248 -0.0926558 0.000787217)
(0.000157075 -0.0918589 0.000277954)
(0.000586664 -0.0968122 7.25898e-05)
(0.000586665 -0.0968119 -7.24366e-05)
(0.000535741 -0.0970484 7.25025e-05)
(0.000535745 -0.0970482 -7.23503e-05)
(0.000166981 -0.091488 7.15135e-05)
(0.000167048 -0.0914879 -7.13586e-05)
(0.000149386 -0.0916784 7.13927e-05)
(0.000149454 -0.0916783 -7.12388e-05)
(0.000877124 -0.0970685 -0.000239224)
(0.000793516 -0.0976458 -0.000177207)
(0.00082266 -0.0973038 -0.000239793)
(0.000738929 -0.0979042 -0.00017982)
(0.000181919 -0.0917063 -0.000277235)
(0.00202565 -0.0925135 -0.000784019)
(0.00015722 -0.0918583 -0.000277723)
(0.00199189 -0.0926544 -0.000786871)
(-0.00890932 -0.0984672 0.000721188)
(0.00930513 -0.0991368 0.483212)
(-0.00896108 -0.0988006 0.000714968)
(0.00926131 -0.0996238 0.483287)
(-0.00678119 -0.0940853 0.00141974)
(0.0053029 -0.0954373 0.498506)
(-0.00680684 -0.0943438 0.00141334)
(0.00528568 -0.0960881 0.498522)
(0.00939969 -0.0981039 -0.482919)
(-0.00879126 -0.097703 -0.000731635)
(0.00935015 -0.0986327 -0.482984)
(-0.00885312 -0.0981024 -0.000726986)
(0.00531834 -0.0941208 -0.498457)
(-0.00670211 -0.0934533 -0.00143034)
(0.00529858 -0.0947855 -0.49847)
(-0.0067328 -0.0937895 -0.00142608)
(0.000912931 -0.0970231 0.000172375)
(0.000996825 -0.0964956 0.000237697)
(0.000852239 -0.097353 0.000174735)
(0.000935389 -0.0967999 0.000238612)
(0.00209487 -0.092106 0.000778336)
(0.000235222 -0.0912966 0.00027584)
(0.00206243 -0.0923312 0.000781366)
(0.000208083 -0.0915193 0.000276742)
(0.00070144 -0.0962419 7.24573e-05)
(0.000701437 -0.0962416 -7.2303e-05)
(0.000641878 -0.0965437 7.25589e-05)
(0.000641876 -0.0965434 -7.2405e-05)
(0.000208004 -0.09102 7.14564e-05)
(0.000208065 -0.0910198 -7.13005e-05)
(0.000186632 -0.0912686 7.1528e-05)
(0.000186695 -0.0912684 -7.13724e-05)
(0.00099671 -0.0964948 -0.000237502)
(0.0009133 -0.0970217 -0.000172378)
(0.000935277 -0.0967991 -0.000238416)
(0.000852602 -0.0973517 -0.000174737)
(0.000235343 -0.0912956 -0.000275609)
(0.00209424 -0.0921041 -0.000777991)
(0.000208211 -0.0915185 -0.000276511)
(0.0020618 -0.0923294 -0.000781021)
(-0.00878605 -0.0977013 0.000731096)
(0.00939467 -0.0981018 0.482933)
(-0.00884794 -0.0981007 0.00072645)
(0.00934496 -0.0986305 0.482998)
(-0.00669737 -0.0934506 0.0014292)
(0.00531423 -0.094117 0.498459)
(-0.0067281 -0.0937869 0.00142494)
(0.00529414 -0.0947814 0.498473)
(0.00950299 -0.0969677 -0.48265)
(-0.00864718 -0.0967984 -0.000738712)
(0.00944624 -0.0975496 -0.482708)
(-0.00871953 -0.0972687 -0.000735421)
(0.00533515 -0.0927484 -0.498413)
(-0.00660717 -0.092664 -0.00143605)
(0.00531232 -0.0934427 -0.498425)
(-0.00664329 -0.0930779 -0.00143359)
(0.00104622 -0.0962492 0.000168044)
(0.0011317 -0.0957746 0.000235429)
(0.000978527 -0.0966554 0.000170151)
(0.00106238 -0.0961542 0.000236593)
(0.00216277 -0.0915274 0.000772118)
(0.000293684 -0.0907361 0.000273563)
(0.00213032 -0.0918376 0.000775218)
(0.000263896 -0.0910353 0.000274764)
(0.000834337 -0.0955297 7.20148e-05)
(0.000834328 -0.0955293 -7.18606e-05)
(0.000765539 -0.0959043 7.22599e-05)
(0.000765533 -0.095904 -7.21056e-05)
(0.000256225 -0.090421 7.10863e-05)
(0.000256281 -0.0904207 -7.09305e-05)
(0.000231101 -0.0907375 7.13041e-05)
(0.000231159 -0.0907372 -7.11481e-05)
(0.00113157 -0.0957737 -0.000235235)
(0.00104659 -0.0962477 -0.000168048)
(0.00106226 -0.0961533 -0.000236397)
(0.000978892 -0.096654 -0.000170154)
(0.000293792 -0.0907349 -0.000273332)
(0.00216211 -0.0915252 -0.000771776)
(0.000264009 -0.0910342 -0.000274533)
(0.00212967 -0.0918356 -0.000774875)
(-0.00864198 -0.0967966 0.000738169)
(0.00949797 -0.0969657 0.482664)
(-0.00871434 -0.097267 0.000734881)
(0.00944105 -0.0975476 0.482722)
(-0.00660246 -0.0926611 0.0014349)
(0.00533104 -0.092745 0.498415)
(-0.00663861 -0.0930751 0.00143244)
(0.00530789 -0.0934391 0.498427)
(0.00962306 -0.0957091 -0.482385)
(-0.00848173 -0.0957431 -0.000743349)
(0.00955748 -0.0963549 -0.482436)
(-0.00856482 -0.0962903 -0.000741224)
(0.00535883 -0.0912947 -0.498371)
(-0.00650107 -0.0917161 -0.00143858)
(0.00533195 -0.0920333 -0.498381)
(-0.00654238 -0.0922099 -0.00143764)
(0.00119491 -0.0953143 0.000164219)
(0.00128369 -0.0948928 0.000232769)
(0.00111929 -0.0958025 0.000166072)
(0.00120558 -0.0953545 0.000234111)
(0.0022323 -0.0907753 0.000765868)
(0.000358076 -0.0900135 0.000270809)
(0.00219882 -0.091173 0.000768969)
(0.000325207 -0.0903953 0.000272231)
(0.000986774 -0.0946597 7.13372e-05)
(0.000986761 -0.0946593 -7.1184e-05)
(0.000908017 -0.0951152 7.16917e-05)
(0.000908006 -0.0951149 -7.15379e-05)
(0.000312599 -0.0896726 7.04735e-05)
(0.000312652 -0.0896721 -7.03188e-05)
(0.000283286 -0.090066 7.08053e-05)
(0.000283341 -0.0900656 -7.06499e-05)
(0.00128355 -0.0948918 -0.000232576)
(0.00119527 -0.0953128 -0.000164224)
(0.00120545 -0.0953535 -0.000233917)
(0.00111965 -0.095801 -0.000166077)
(0.00035817 -0.0900121 -0.000270581)
(0.00223162 -0.0907729 -0.00076553)
(0.000325307 -0.090394 -0.000272001)
(0.00219814 -0.0911706 -0.000768628)
(-0.00847656 -0.0957413 0.000742805)
(0.00961806 -0.0957074 0.482399)
(-0.00855966 -0.0962885 0.000740681)
(0.0095523 -0.096353 0.48245)
(-0.00649641 -0.091713 0.00143744)
(0.00535474 -0.0912918 0.498374)
(-0.00653774 -0.0922069 0.0014365)
(0.00532754 -0.0920301 0.498384)
(0.00976289 -0.0943065 -0.482127)
(-0.00829383 -0.0945233 -0.000745874)
(0.00968725 -0.095027 -0.482175)
(-0.00838837 -0.0951545 -0.000744768)
(0.00539133 -0.0897299 -0.498332)
(-0.00638397 -0.0906033 -0.0014384)
(0.00536005 -0.0905277 -0.498341)
(-0.00643094 -0.0911805 -0.00143877)
(0.00136071 -0.0942056 0.000160879)
(0.00145459 -0.0938354 0.00022982)
(0.00127629 -0.0947824 0.000162494)
(0.0013668 -0.0943868 0.000231297)
(0.00230474 -0.0898432 0.000759674)
(0.00042912 -0.0891155 0.000267695)
(0.00226961 -0.0903318 0.000762741)
(0.000392807 -0.0895868 0.000269286)
(0.00116028 -0.0936153 7.04747e-05)
(0.00116026 -0.0936149 -7.03233e-05)
(0.00107079 -0.0941601 7.09168e-05)
(0.00107077 -0.0941597 -7.07645e-05)
(0.00037782 -0.088756 6.96665e-05)
(0.00037787 -0.0887555 -6.95139e-05)
(0.000343981 -0.0892359 7.00905e-05)
(0.000344032 -0.0892354 -6.99368e-05)
(0.00145445 -0.0938343 -0.000229629)
(0.00136105 -0.0942039 -0.000160885)
(0.00136666 -0.0943857 -0.000231105)
(0.00127664 -0.0947808 -0.000162499)
(0.000429202 -0.0891138 -0.00026747)
(0.00230404 -0.0898405 -0.000759339)
(0.000392894 -0.0895852 -0.000269059)
(0.00226892 -0.0903293 -0.000762404)
(-0.00828871 -0.0945214 0.00074533)
(0.00975792 -0.0943049 0.482141)
(-0.00838325 -0.0951527 0.000744224)
(0.00968209 -0.0950253 0.482189)
(-0.00637936 -0.0906001 0.00143726)
(0.00538726 -0.0897274 0.498334)
(-0.00642635 -0.0911774 0.00143762)
(0.00535566 -0.0905249 0.498343)
(0.00992448 -0.0927383 -0.48187)
(-0.00808201 -0.0931243 -0.000746539)
(0.00983772 -0.0935442 -0.481914)
(-0.00818871 -0.093847 -0.000746329)
(0.00543326 -0.0880257 -0.498294)
(-0.00625497 -0.0893163 -0.00143584)
(0.00539698 -0.0888966 -0.498301)
(-0.00630783 -0.0899819 -0.00143736)
(0.00154534 -0.0929094 0.000157985)
(0.00164607 -0.0925873 0.000226641)
(0.00145127 -0.0935816 0.000159382)
(0.00154778 -0.093236 0.000228226)
(0.00238119 -0.0887227 0.000753564)
(0.000507518 -0.0880279 0.00026429)
(0.00234391 -0.0893067 0.000756587)
(0.000467422 -0.0885958 0.00026602)
(0.00135629 -0.0923797 6.94584e-05)