/*--------------------------------*- C++ -*----------------------------------*\
  =========                 |
  \\      /  F ield         | OpenFOAM: The Open Source CFD Toolbox
   \\    /   O peration     | Website:  https://openfoam.org
    \\  /    A nd           | Version:  9
     \\/     M anipulation  |
\*---------------------------------------------------------------------------*/
FoamFile
{
    format      ascii;
    class       volScalarField;
    location    "2.8";
    object      k;
}
// * * * * * * * * * * * * * * * * * * * * * * * * * * * * * * * * * * * * * //

dimensions      [0 2 -2 0 0 0 0];

internalField   nonuniform List<scalar> 
36360
(
0.0930467
0.0768297
0.0445522
0.0393458
0.0230594
0.0185767
0.00701462
0.00661479
0.0335822
0.0106581
0.0101744
0.00384144
0.00703001
0.00310543
0.00354097
0.00288772
0.00351056
0.00351343
0.00265558
0.00265591
0.00214738
0.0021476
0.00297245
0.00297243
0.0106691
0.0335956
0.00384362
0.0101836
0.0031068
0.00703392
0.00288782
0.00354202
0.0768436
0.0930576
0.0393598
0.0445627
0.0185832
0.0230641
0.00661733
0.00701595
0.15075
0.126756
0.126493
0.10517
0.0502202
0.039357
0.0388155
0.0300737
0.0722319
0.040425
0.0544386
0.025278
0.022209
0.0107133
0.014709
0.00545811
0.0248728
0.0248807
0.0102437
0.010252
0.00515357
0.00515651
0.00252966
0.00253088
0.0404391
0.0722449
0.0252939
0.0544525
0.0107208
0.0222161
0.00546278
0.014716
0.126767
0.150757
0.105183
0.126503
0.0393629
0.0502241
0.0300799
0.0388201
0.184987
0.158591
0.169584
0.144103
0.0656063
0.0529332
0.0587755
0.0467796
0.100834
0.0677668
0.0875338
0.0548107
0.0342374
0.0222984
0.028656
0.0167245
0.0527389
0.0527432
0.0395717
0.0395773
0.0165896
0.0165925
0.0106831
0.0106868
0.0677766
0.100843
0.0548226
0.0875453
0.0223048
0.0342438
0.0167316
0.0286629
0.158596
0.184989
0.144111
0.169589
0.0529376
0.0656082
0.0467849
0.0587785
0.208935
0.18148
0.197913
0.170903
0.0760775
0.062624
0.0712707
0.0581456
0.122423
0.0890354
0.11239
0.0791435
0.0432813
0.0314211
0.0390781
0.0271923
0.0741321
0.0741348
0.0642147
0.0642181
0.0260755
0.0260777
0.0217222
0.0217247
0.0890412
0.122427
0.0791513
0.112396
0.0314261
0.0432861
0.0271981
0.0390838
0.181478
0.208929
0.170905
0.197911
0.0626259
0.0760761
0.0581489
0.071271
0.226341
0.198272
0.21833
0.190533
0.0836482
0.0697436
0.0801655
0.0664598
0.13847
0.104829
0.131065
0.0975473
0.0500015
0.0381088
0.0468996
0.0350333
0.0898709
0.0898722
0.0826265
0.0826284
0.0328368
0.0328385
0.0297425
0.0297444
0.104831
0.138467
0.097551
0.131065
0.0381125
0.0500041
0.0350377
0.0469033
0.198262
0.226325
0.190527
0.218319
0.0697421
0.0836424
0.0664601
0.0801618
0.238757
0.210296
0.233091
0.204805
0.0890354
0.074846
0.0865785
0.0725153
0.150009
0.11616
0.144738
0.110987
0.0548274
0.0428589
0.0526232
0.0406941
0.101113
0.101112
0.095984
0.0959846
0.0375789
0.0375801
0.0354222
0.0354236
0.116158
0.15
0.110987
0.144732
0.0428613
0.0548277
0.0406972
0.0526246
0.210278
0.238731
0.204791
0.23307
0.0748411
0.0890252
0.0725121
0.0865704
0.24726
0.218552
0.243428
0.214829
0.0927094
0.0783393
0.091055
0.0767648
0.157949
0.12395
0.15437
0.120439
0.0581347
0.0460934
0.0566444
0.0446378
0.108829
0.108827
0.105352
0.105351
0.0407896
0.0407905
0.039346
0.0393471
0.123945
0.157934
0.120435
0.154358
0.0460947
0.058133
0.0446396
0.0566437
0.218526
0.247225
0.214807
0.243398
0.0783313
0.0926951
0.0767583
0.0910426
0.252767
0.223913
0.250327
0.221536
0.0950763
0.0805945
0.0940281
0.0795949
0.163118
0.129026
0.160827
0.126776
0.0602732
0.0481772
0.0593256
0.0472544
0.113856
0.113854
0.111626
0.111625
0.042852
0.0428526
0.0419388
0.0419396
0.129018
0.163098
0.126769
0.16081
0.0481775
0.0602698
0.0472551
0.0593229
0.223881
0.252726
0.221507
0.250288
0.0805839
0.0950587
0.0795855
0.0940119
0.256068
0.227141
0.25464
0.225742
0.0964862
0.0819399
0.095876
0.0813569
0.166244
0.132107
0.16489
0.130771
0.0615547
0.0494241
0.0609992
0.0488834
0.116913
0.11691
0.115586
0.115584
0.0440847
0.0440851
0.04355
0.0435504
0.132096
0.166222
0.130761
0.164869
0.0494238
0.0615502
0.0488834
0.0609952
0.227104
0.256021
0.225708
0.254595
0.0819275
0.0964662
0.0813452
0.0958569
0.257821
0.228874
0.257094
0.228152
0.0972317
0.0826535
0.0969213
0.0823556
0.167943
0.133796
0.167235
0.133089
0.0622423
0.0500948
0.0619545
0.0498134
0.118599
0.118596
0.117892
0.117889
0.0447488
0.044749
0.0444695
0.0444698
0.133785
0.167918
0.133078
0.167211
0.0500942
0.062237
0.0498129
0.0619495
0.228835
0.257771
0.228114
0.257046
0.0826399
0.0972102
0.0823425
0.0969004
0.258536
0.229609
0.258274
0.229333
0.0975374
0.0829488
0.097423
0.0828371
0.168691
0.134563
0.168407
0.134267
0.062539
0.0503894
0.0624249
0.0502748
0.119376
0.119372
0.119073
0.11907
0.045043
0.0450432
0.0449275
0.0449278
0.13455
0.168665
0.134255
0.168382
0.0503886
0.0625334
0.050274
0.0624195
0.229568
0.258484
0.229293
0.258223
0.0829346
0.0975151
0.0828231
0.0974009
0.258581
0.229702
0.258613
0.229709
0.0975627
0.0829777
0.0975694
0.0829821
0.168832
0.134743
0.168817
0.134707
0.0625886
0.0504476
0.0625835
0.0504378
0.119577
0.119573
0.119529
0.119526
0.0451056
0.0451058
0.045093
0.0450933
0.13473
0.168806
0.134694
0.16879
0.0504468
0.0625829
0.0504369
0.0625778
0.229661
0.258528
0.229668
0.25856
0.0829634
0.0975401
0.0829677
0.0975467
0.258217
0.229413
0.258438
0.229595
0.0974225
0.0828523
0.0975091
0.0829305
0.168618
0.13458
0.168764
0.134697
0.0624984
0.0503742
0.0625592
0.0504253
0.119441
0.119438
0.119542
0.119539
0.0450397
0.0450399
0.0450862
0.0450864
0.134568
0.168592
0.134684
0.168737
0.0503734
0.0624928
0.0504245
0.0625535
0.229371
0.258164
0.229554
0.258385
0.0828379
0.0973999
0.0829161
0.0974863
0.25758
0.228868
0.257916
0.229157
0.097172
0.0826228
0.0973024
0.0827416
0.168166
0.13419
0.16841
0.134402
0.0623125
0.0502098
0.0624098
0.0502955
0.119082
0.119079
0.119278
0.119275
0.0448851
0.0448854
0.0449654
0.0449656
0.134178
0.16814
0.13439
0.168384
0.0502091
0.0623069
0.0502948
0.0624042
0.228827
0.257528
0.229115
0.257863
0.0826086
0.0971496
0.0827273
0.0972797
0.256768
0.228166
0.257184
0.228526
0.0968532
0.0823303
0.0970148
0.0824779
0.167573
0.133667
0.167881
0.133939
0.0620707
0.049994
0.0621933
0.0501031
0.118594
0.118591
0.118848
0.118845
0.0446811
0.0446814
0.0447838
0.0447841
0.133655
0.167548
0.133927
0.167855
0.0499934
0.0620653
0.0501025
0.0621879
0.228126
0.256717
0.228485
0.257132
0.0823164
0.0968311
0.0824638
0.0969924
0.255828
0.227352
0.256305
0.227765
0.0964843
0.0819921
0.0966694
0.0821612
0.166881
0.133051
0.167234
0.133366
0.0617889
0.0497415
0.0619302
0.0498678
0.118016
0.118013
0.118312
0.118308
0.0444417
0.0444421
0.044561
0.0445613
0.133039
0.166856
0.133354
0.167209
0.049741
0.0617838
0.0498672
0.061925
0.227313
0.255778
0.227725
0.256254
0.0819785
0.0964626
0.0821474
0.0966474
0.254782
0.226447
0.25531
0.226904
0.0960737
0.0816161
0.0962792
0.0818035
0.166109
0.132362
0.1665
0.132712
0.0614745
0.0494591
0.0616316
0.0495998
0.117367
0.117364
0.117697
0.117694
0.0441737
0.0441741
0.0443068
0.0443072
0.13235
0.166084
0.132701
0.166476
0.0494587
0.0614696
0.0495994
0.0616267
0.226409
0.254733
0.226864
0.25526
0.0816029
0.0960525
0.0817901
0.0962576
0.253636
0.225459
0.254214
0.225957
0.0956245
0.0812049
0.0958492
0.0814099
0.165265
0.131607
0.165692
0.13199
0.0611302
0.0491495
0.0613022
0.0493037
0.116656
0.116653
0.117016
0.117013
0.0438796
0.04388
0.0440256
0.044026
0.131596
0.165241
0.131979
0.165668
0.0491493
0.0611256
0.0493034
0.0612975
0.225422
0.253588
0.225918
0.254165
0.0811921
0.0956038
0.0813969
0.0958281
0.252393
0.22439
0.253019
0.224928
0.0951371
0.0807592
0.0953809
0.0809815
0.164352
0.130789
0.164814
0.131204
0.0607567
0.0488133
0.0609434
0.0489808
0.115884
0.115881
0.116275
0.116272
0.04356
0.0435605
0.0437188
0.0437193
0.130779
0.164329
0.131193
0.164791
0.0488133
0.0607524
0.0489807
0.0609389
0.224353
0.252346
0.22489
0.252971
0.0807468
0.095117
0.0809689
0.0953603
0.251053
0.22324
0.251728
0.223818
0.0946115
0.0802788
0.0948746
0.0805186
0.16337
0.129908
0.163867
0.130354
0.0603539
0.0484503
0.0605553
0.0486314
0.115051
0.115049
0.115473
0.11547
0.0432148
0.0432153
0.0433866
0.0433871
0.129898
0.163348
0.130344
0.163844
0.0484504
0.0603498
0.0486315
0.0605512
0.223204
0.251007
0.223782
0.251681
0.0802669
0.0945919
0.0805064
0.0948546
0.249613
0.222008
0.250338
0.222627
0.0940469
0.079763
0.0943296
0.0800206
0.162317
0.128964
0.162849
0.129442
0.059921
0.0480599
0.0601376
0.0482548
0.114158
0.114155
0.11461
0.114607
0.0428433
0.0428439
0.0430283
0.0430289
0.128954
0.162295
0.129432
0.162828
0.0480602
0.0599173
0.0482551
0.0601338
0.221973
0.249568
0.222592
0.250292
0.0797515
0.0940279
0.0800089
0.0943102
0.248072
0.220692
0.248848
0.221353
0.0934426
0.0792109
0.0937453
0.0794869
0.161192
0.127954
0.161761
0.128465
0.0594576
0.0476417
0.0596896
0.0478507
0.113202
0.1132
0.113686
0.113683
0.0424451
0.0424457
0.0426436
0.0426442
0.127944
0.161172
0.128455
0.16174
0.0476422
0.0594542
0.0478511
0.0596861
0.220658
0.248029
0.221319
0.248804
0.0791999
0.0934242
0.0794756
0.0937264
0.24643
0.219292
0.247257
0.219995
0.0927984
0.0786223
0.0931212
0.0789166
0.159995
0.126878
0.1606
0.127422
0.0589635
0.0471954
0.059211
0.0474185
0.112184
0.112182
0.112699
0.112697
0.0420199
0.0420206
0.042232
0.0422327
0.12687
0.159976
0.127413
0.16058
0.0471961
0.0589604
0.0474191
0.0592077
0.219259
0.246388
0.219963
0.247214
0.0786118
0.0927806
0.0789058
0.0931029
0.244688
0.217808
0.245565
0.218554
0.0921148
0.0779974
0.0924573
0.0783099
0.158727
0.125738
0.159367
0.126314
0.0584388
0.0467211
0.0587016
0.0469582
0.111104
0.111102
0.11165
0.111648
0.041568
0.0415687
0.0417935
0.0417942
0.12573
0.158708
0.126306
0.159348
0.046722
0.058436
0.046959
0.0586987
0.217777
0.244648
0.218522
0.245523
0.0779874
0.0920977
0.0782997
0.0924397
0.242849
0.216243
0.243774
0.217029
0.0913927
0.0773367
0.0917544
0.0776671
0.157388
0.124534
0.158064
0.125142
0.057884
0.0462194
0.0581618
0.0464702
0.109964
0.109962
0.110539
0.110537
0.0410897
0.0410906
0.0413284
0.0413292
0.124526
0.15737
0.125134
0.158046
0.0462205
0.0578817
0.0464712
0.0581593
0.216214
0.24281
0.216999
0.243734
0.0773272
0.0913763
0.0776574
0.0917374
0.240916
0.2146
0.241887
0.215425
0.0906336
0.0766411
0.0910136
0.0769889
0.155982
0.123268
0.156691
0.123906
0.0573003
0.0456912
0.0575925
0.0459552
0.108764
0.108763
0.109369
0.109367
0.0405861
0.040587
0.0408374
0.0408383
0.123261
0.155965
0.123899
0.156674
0.0456925
0.0572983
0.0459564
0.0575903
0.214571
0.240879
0.215396
0.241849
0.0766321
0.0906179
0.0769797
0.0909974
0.238894
0.212881
0.239909
0.213743
0.0898397
0.0759138
0.0902369
0.0762768
0.15451
0.121943
0.155252
0.122611
0.0566892
0.0451377
0.0569949
0.0454143
0.107508
0.107507
0.108141
0.10814
0.0400581
0.0400591
0.0403215
0.0403225
0.121937
0.154494
0.122604
0.155236
0.0451392
0.0566876
0.0454157
0.0569932
0.212854
0.238858
0.213716
0.239872
0.0759054
0.0898247
0.0762682
0.0902214
0.236787
0.211089
0.237844
0.211988
0.0890128
0.0751583
0.0894265
0.0755357
0.152975
0.12056
0.153749
0.121257
0.0560518
0.0445597
0.0563708
0.0448486
0.106197
0.106196
0.106858
0.106856
0.0395065
0.0395075
0.0397818
0.0397828
0.120554
0.152961
0.121251
0.153733
0.0445614
0.0560505
0.0448502
0.0563694
0.211063
0.236753
0.211961
0.237809
0.0751505
0.0889985
0.0755276
0.0894117
0.234597
0.209224
0.235696
0.210159
0.0881532
0.0743719
0.0885834
0.074765
0.151376
0.119118
0.152182
0.119845
0.0553876
0.0439569
0.0557202
0.0442584
0.104829
0.104828
0.105519
0.105518
0.0389312
0.0389324
0.0392185
0.0392196
0.119113
0.151363
0.11984
0.152168
0.0439589
0.0553867
0.0442602
0.0557191
0.209199
0.234565
0.210135
0.235663
0.0743647
0.0881397
0.0747575
0.0885693
0.232321
0.20728
0.233464
0.208256
0.0872596
0.073553
0.0877072
0.0739628
0.149707
0.117611
0.150549
0.118371
0.054695
0.0433278
0.0550422
0.0436429
0.103399
0.103398
0.104121
0.10412
0.0383308
0.038332
0.0386311
0.0386322
0.117606
0.149694
0.118367
0.150536
0.04333
0.0546945
0.0436449
0.0550416
0.207258
0.23229
0.208233
0.233432
0.0735464
0.0872469
0.0739559
0.0876939
0.229948
0.205247
0.231142
0.20627
0.0863276
0.0726976
0.0867954
0.0731266
0.147955
0.116026
0.148841
0.116828
0.0539695
0.042668
0.054334
0.0429993
0.101893
0.101893
0.102655
0.102654
0.0377007
0.037702
0.0380167
0.0380179
0.116022
0.147944
0.116824
0.148829
0.0426704
0.0539694
0.0430016
0.0543338
0.205225
0.22992
0.206248
0.231112
0.0726916
0.0863157
0.0731203
0.0867829
0.227457
0.203098
0.228713
0.204183
0.0853474
0.0717965
0.085841
0.0722499
0.146097
0.11434
0.14704
0.115196
0.0532018
0.0419686
0.053589
0.0423212
0.10029
0.10029
0.101104
0.101104
0.0370326
0.0370339
0.0373691
0.0373704
0.114337
0.146087
0.115193
0.147029
0.0419712
0.0532021
0.0423237
0.0535892
0.203079
0.22743
0.204162
0.228685
0.0717911
0.0853363
0.0722442
0.0858293
0.22481
0.200799
0.22615
0.201965
0.0843027
0.070833
0.0848311
0.0713204
0.144097
0.112518
0.145116
0.113448
0.0523771
0.0412153
0.0527952
0.0415971
0.0985528
0.0985527
0.0994396
0.0994394
0.036312
0.0363134
0.036677
0.0366783
0.112516
0.144088
0.113445
0.145106
0.0412181
0.0523778
0.0415999
0.0527958
0.200781
0.224785
0.201946
0.226123
0.0708283
0.0842924
0.0713154
0.0848203
0.221952
0.198294
0.223405
0.19957
0.083169
0.069785
0.0837456
0.0703176
0.141901
0.110507
0.143025
0.111539
0.0514739
0.040387
0.0519344
0.0408095
0.0966302
0.0966304
0.0976172
0.0976172
0.0355182
0.0355197
0.0359229
0.0359244
0.110506
0.141894
0.111537
0.143017
0.0403901
0.0514751
0.0408124
0.0519354
0.198278
0.221929
0.199553
0.223381
0.0697811
0.0831598
0.0703133
0.0837357
0.218807
0.195512
0.220415
0.196938
0.0819125
0.0686252
0.0825555
0.0692179
0.13944
0.108238
0.140707
0.109409
0.0504633
0.0394553
0.0509817
0.0399336
0.0944536
0.0944541
0.0955774
0.0955778
0.0346229
0.0346245
0.0350825
0.0350841
0.108238
0.139435
0.109408
0.140701
0.0394587
0.0504651
0.0399369
0.0509833
0.195498
0.218787
0.196923
0.220394
0.0686221
0.0819044
0.0692144
0.0825468
0.215276
0.192354
0.217091
0.193982
0.0804876
0.0673174
0.0812213
0.067989
0.136618
0.105617
0.13808
0.106978
0.0493066
0.0383823
0.0499038
0.0389368
0.0919305
0.0919315
0.0932409
0.0932417
0.0335893
0.033591
0.0341233
0.034125
0.105618
0.136614
0.106978
0.138076
0.0383861
0.0493092
0.0389405
0.0499061
0.192344
0.215259
0.193969
0.217073
0.0673155
0.080481
0.0679865
0.0812138
0.211256
0.188678
0.213325
0.190589
0.0788441
0.0658186
0.0796928
0.0665921
0.133271
0.102496
0.135024
0.10413
0.0479444
0.0371146
0.0486543
0.0377747
0.0889347
0.0889363
0.0904998
0.0905011
0.0323716
0.0323735
0.033004
0.0330059
0.102498
0.13327
0.104132
0.135022
0.037119
0.047948
0.0377788
0.0486574
0.188671
0.211243
0.19058
0.21331
0.0658181
0.0788391
0.0665909
0.0796868
0.206882
0.184042
0.209063
0.186539
0.077003
0.0640309
0.0779334
0.0649727
0.128964
0.0986077
0.131288
0.10067
0.0462409
0.0355702
0.0471486
0.0363811
0.08531
0.0853122
0.0872083
0.0872102
0.030925
0.0309272
0.031676
0.031678
0.0986122
0.128966
0.100673
0.131289
0.0355753
0.0462456
0.0363859
0.0471528
0.184039
0.206874
0.186534
0.209052
0.0640321
0.0770003
0.064973
0.0779294
0.20478
0.175027
0.205137
0.180749
0.0751884
0.0607776
0.0761203
0.0628153
0.122243
0.093603
0.126062
0.0962493
0.0437684
0.0336755
0.0451444
0.0346619
0.0810333
0.0810361
0.0832353
0.0832378
0.0292816
0.0292838
0.0301158
0.030118
0.0936094
0.122249
0.0962549
0.126066
0.0336811
0.0437743
0.0346673
0.0451498
0.175029
0.204778
0.180749
0.205132
0.060781
0.0751887
0.0628175
0.0761189
0.141905
0.117481
0.0789648
0.0655012
0.12315
0.101583
0.0651369
0.0543078
0.0607573
0.0264869
0.0241064
0.00684918
0.0494358
0.0190539
0.0175878
0.00515953
0.0100329
0.0100439
0.00333246
0.00333467
0.0063139
0.00632167
0.00291857
0.0029195
0.0265116
0.0607786
0.0068576
0.0241279
0.0190741
0.0494537
0.00516458
0.0176055
0.117501
0.141922
0.0655235
0.0789825
0.1016
0.123164
0.054327
0.0651518
0.222637
0.189412
0.187612
0.15753
0.194943
0.164834
0.164225
0.137138
0.120651
0.0774091
0.0929229
0.0521793
0.100725
0.0612769
0.0771774
0.0403229
0.0560643
0.0560721
0.0307242
0.0307367
0.0418083
0.041816
0.0206397
0.0206516
0.0774254
0.120667
0.0522002
0.0929421
0.0612925
0.10074
0.0403415
0.0771943
0.189425
0.222646
0.157547
0.187626
0.164846
0.194952
0.137154
0.164237
0.274776
0.238433
0.251009
0.215893
0.239601
0.206568
0.219369
0.187476
0.165834
0.120871
0.144756
0.100399
0.138687
0.0976498
0.121019
0.0804997
0.0995801
0.0995839
0.0791136
0.0791191
0.0784828
0.0784871
0.0612304
0.0612361
0.12088
0.165841
0.100411
0.144768
0.0976593
0.138696
0.0805122
0.121031
0.238436
0.274775
0.215901
0.251013
0.206572
0.239602
0.187485
0.219375
0.312292
0.274512
0.294966
0.257789
0.271281
0.236917
0.256678
0.222873
0.200272
0.154612
0.184232
0.138874
0.16745
0.125859
0.154068
0.112716
0.133197
0.133198
0.117533
0.117535
0.106696
0.106698
0.0935751
0.0935782
0.154613
0.200267
0.138878
0.184233
0.125863
0.16745
0.112722
0.154072
0.274501
0.312277
0.257785
0.294958
0.236911
0.27127
0.222873
0.256673
0.339785
0.301215
0.327114
0.288886
0.294378
0.259271
0.283742
0.24896
0.226098
0.179994
0.214152
0.16825
0.188934
0.14697
0.179006
0.137217
0.158409
0.158407
0.14675
0.14675
0.127696
0.127696
0.118004
0.118005
0.179986
0.226082
0.168247
0.214142
0.146967
0.188925
0.137217
0.179002
0.30119
0.339754
0.288869
0.327091
0.259253
0.294355
0.248949
0.283725
0.359515
0.320482
0.350495
0.311665
0.310899
0.275337
0.303353
0.267992
0.244859
0.198452
0.236266
0.189996
0.204471
0.162233
0.197363
0.155252
0.176721
0.176717
0.168334
0.168331
0.14284
0.142837
0.135916
0.135915
0.198438
0.244832
0.189985
0.236244
0.162225
0.204453
0.155246
0.197349
0.320444
0.35947
0.311633
0.350457
0.275309
0.310863
0.267969
0.303322
0.373139
0.333838
0.366985
0.3278
0.322257
0.28642
0.317132
0.281416
0.257929
0.211329
0.252018
0.205504
0.215235
0.172811
0.210374
0.168034
0.189494
0.189488
0.183715
0.18371
0.153325
0.153322
0.14859
0.148587
0.211308
0.257892
0.205486
0.251986
0.172798
0.215209
0.168023
0.210352
0.333787
0.373081
0.327755
0.366932
0.286382
0.322209
0.281382
0.31709
0.382068
0.342625
0.378098
0.338714
0.329655
0.293665
0.326371
0.290447
0.266574
0.219865
0.262726
0.216063
0.222302
0.179768
0.219163
0.176676
0.197968
0.19796
0.194193
0.194185
0.160224
0.160219
0.157157
0.157153
0.219839
0.266529
0.21604
0.262685
0.17975
0.22227
0.176661
0.219133
0.342565
0.381999
0.338659
0.378034
0.293618
0.329598
0.290404
0.326318
0.38751
0.348013
0.385145
0.345667
0.334123
0.298066
0.332186
0.296154
0.271918
0.225165
0.26959
0.222854
0.226628
0.184042
0.224749
0.182183
0.203239
0.203229
0.200938
0.20093
0.16447
0.164464
0.162622
0.162616
0.225136
0.271867
0.222826
0.269542
0.184022
0.226591
0.182164
0.224714
0.347946
0.387434
0.345603
0.385071
0.298013
0.33406
0.296104
0.332125
0.390482
0.35099
0.38924
0.34974
0.336528
0.300463
0.335527
0.299461
0.274918
0.228168
0.273656
0.226901
0.22902
0.186428
0.228018
0.185425
0.206239
0.206228
0.20497
0.20496
0.166851
0.166844
0.165848
0.165841
0.228136
0.274864
0.22687
0.273603
0.186406
0.22898
0.185404
0.227979
0.350919
0.390401
0.349671
0.38916
0.300406
0.33646
0.299406
0.335461
0.391771
0.35233
0.391285
0.351815
0.337537
0.301509
0.337162
0.301111
0.276329
0.229617
0.27578
0.229046
0.230113
0.187548
0.229692
0.187111
0.207702
0.207691
0.207122
0.207112
0.167982
0.167975
0.167538
0.167531
0.229583
0.276273
0.229014
0.275725
0.187525
0.230071
0.187088
0.229651
0.352256
0.391687
0.351742
0.391201
0.30145
0.337467
0.301053
0.337092
0.391958
0.352601
0.391962
0.352562
0.337639
0.30168
0.337665
0.301671
0.276707
0.230058
0.276617
0.229935
0.230368
0.187855
0.230318
0.187778
0.208173
0.208162
0.208033
0.208022
0.168315
0.168308
0.168224
0.168217
0.230024
0.27665
0.229901
0.27656
0.187831
0.230325
0.187755
0.230276
0.352526
0.391873
0.352487
0.391877
0.30162
0.337568
0.301611
0.337593
0.391468
0.35222
0.391779
0.352474
0.337186
0.301325
0.337465
0.301554
0.276458
0.229889
0.276645
0.230032
0.230122
0.187677
0.230296
0.187814
0.208041
0.20803
0.208163
0.208152
0.168169
0.168162
0.168287
0.16828
0.229855
0.276401
0.229998
0.276588
0.187653
0.230079
0.18779
0.230254
0.352145
0.391383
0.352398
0.391693
0.301265
0.337115
0.301494
0.337394
0.390525
0.351407
0.39103
0.351846
0.336362
0.300618
0.336799
0.300995
0.275796
0.22932
0.276163
0.22964
0.229545
0.18718
0.229861
0.187455
0.207517
0.207506
0.207814
0.207803
0.167711
0.167704
0.167966
0.167959
0.229286
0.275739
0.229606
0.276106
0.187157
0.229503
0.187432
0.229818
0.351332
0.39044
0.35177
0.390944
0.300558
0.336292
0.300936
0.336728
0.389292
0.350323
0.389928
0.350884
0.335302
0.299693
0.335847
0.300169
0.274882
0.228513
0.275362
0.22894
0.228768
0.186495
0.229174
0.186855
0.206761
0.20675
0.207161
0.207151
0.16707
0.167063
0.167407
0.1674
0.228479
0.274826
0.228906
0.275306
0.186472
0.228726
0.186831
0.229132
0.350249
0.389208
0.350809
0.389843
0.299635
0.335232
0.30011
0.335776
0.387855
0.349054
0.388586
0.349701
0.334071
0.298617
0.334696
0.299163
0.273798
0.227544
0.274357
0.228045
0.227853
0.185681
0.228323
0.1861
0.205847
0.205837
0.20632
0.206309
0.166304
0.166297
0.166698
0.166691
0.227511
0.273743
0.228012
0.274301
0.185658
0.227812
0.186077
0.228281
0.348981
0.387772
0.349627
0.388502
0.298559
0.334003
0.299105
0.334626
0.386252
0.347638
0.387063
0.348355
0.332702
0.297418
0.333393
0.298023
0.272582
0.226452
0.273203
0.227012
0.22683
0.184766
0.227352
0.185233
0.204815
0.204805
0.205344
0.205334
0.165441
0.165434
0.165882
0.165875
0.22642
0.272527
0.226979
0.273149
0.184744
0.22679
0.185211
0.227311
0.347566
0.386172
0.348282
0.386981
0.297361
0.332635
0.297966
0.333325
0.384502
0.346092
0.385386
0.346873
0.331204
0.296109
0.331959
0.296769
0.27125
0.225255
0.271928
0.225866
0.225712
0.183764
0.22628
0.184274
0.203682
0.203672
0.20426
0.20425
0.164494
0.164488
0.164976
0.164969
0.225223
0.271197
0.225834
0.271875
0.183742
0.225672
0.184252
0.22624
0.346022
0.384423
0.346802
0.385305
0.296054
0.331139
0.296713
0.331892
0.382607
0.344422
0.383563
0.345264
0.329583
0.294695
0.330399
0.295407
0.26981
0.223958
0.270542
0.224618
0.224501
0.182678
0.225115
0.18323
0.202453
0.202443
0.203079
0.203069
0.163468
0.163462
0.16399
0.163983
0.223927
0.269758
0.224587
0.27049
0.182657
0.224463
0.183209
0.225076
0.344354
0.38253
0.345195
0.383484
0.294642
0.329519
0.295353
0.330334
0.380571
0.34263
0.381598
0.343534
0.327837
0.293176
0.328716
0.293941
0.268263
0.222562
0.269049
0.223272
0.2232
0.18151
0.223859
0.182103
0.201131
0.201121
0.201803
0.201794
0.162363
0.162357
0.162924
0.162918
0.222533
0.268212
0.223242
0.268998
0.18149
0.223162
0.182082
0.223822
0.342564
0.380496
0.343466
0.381521
0.293124
0.327775
0.293888
0.328653
0.37839
0.340713
0.379489
0.341679
0.325966
0.291551
0.326908
0.292369
0.266607
0.221068
0.267448
0.221828
0.221806
0.180258
0.222512
0.180893
0.199714
0.199705
0.200434
0.200425
0.161178
0.161172
0.161779
0.161773
0.221039
0.266558
0.221798
0.267398
0.180238
0.22177
0.180873
0.222475
0.340648
0.378317
0.341614
0.379414
0.2915
0.325905
0.292317
0.326846
0.376062
0.33867
0.377235
0.3397
0.323966
0.289817
0.324973
0.290689
0.264841
0.219474
0.265737
0.220283
0.220318
0.178921
0.221072
0.179598
0.198201
0.198192
0.198969
0.19896
0.159912
0.159906
0.160554
0.160548
0.219446
0.264793
0.220255
0.265688
0.178902
0.220283
0.179579
0.221036
0.338607
0.375991
0.339636
0.377162
0.289768
0.323908
0.290639
0.324913
0.373587
0.336501
0.374834
0.337594
0.321839
0.287974
0.32291
0.288901
0.262964
0.217778
0.263915
0.218638
0.218737
0.177498
0.219537
0.178219
0.196592
0.196583
0.197409
0.1974
0.158564
0.158559
0.159247
0.159241
0.217751
0.262918
0.218611
0.263868
0.17748
0.218703
0.1782
0.219503
0.33644
0.373518
0.337532
0.374763
0.287927
0.321782
0.288853
0.322851
0.370965
0.334205
0.372285
0.335361
0.319584
0.286024
0.320718
0.287005
0.260977
0.215981
0.261983
0.216892
0.217061
0.17599
0.217909
0.176753
0.194886
0.194878
0.195751
0.195743
0.157135
0.15713
0.157859
0.157853
0.215955
0.260932
0.216866
0.261938
0.175972
0.217029
0.176735
0.217876
0.334146
0.370899
0.335301
0.372217
0.285978
0.319529
0.286958
0.320662
0.3682
0.331785
0.369592
0.333003
0.317205
0.283967
0.318401
0.285001
0.25888
0.214085
0.259941
0.215046
0.215294
0.174398
0.216187
0.175203
0.193086
0.193078
0.193998
0.19399
0.155627
0.155622
0.15639
0.156385
0.21406
0.258837
0.21502
0.259897
0.174382
0.215263
0.175186
0.216155
0.331728
0.368136
0.332944
0.369525
0.283923
0.317152
0.284955
0.318346
0.365297
0.329243
0.366757
0.330521
0.314706
0.281809
0.315961
0.282893
0.256677
0.212091
0.257791
0.213101
0.213437
0.172725
0.214374
0.17357
0.191192
0.191184
0.19215
0.192142
0.15404
0.154036
0.154842
0.154837
0.212067
0.256635
0.213076
0.257749
0.172709
0.213407
0.173554
0.214344
0.329188
0.365235
0.330465
0.366693
0.281766
0.314655
0.282849
0.315909
0.362262
0.326584
0.363787
0.32792
0.312091
0.279552
0.313404
0.280685
0.254371
0.210002
0.255536
0.211059
0.211494
0.170972
0.212474
0.171857
0.189206
0.189199
0.19021
0.190203
0.152378
0.152374
0.153217
0.153213
0.209979
0.254331
0.211035
0.255495
0.170958
0.211465
0.171842
0.212445
0.326531
0.362202
0.327866
0.363725
0.279511
0.312043
0.280644
0.313354
0.359097
0.323817
0.360687
0.325207
0.309367
0.277194
0.310734
0.278378
0.251962
0.207817
0.253179
0.208922
0.209464
0.169141
0.210488
0.170066
0.187128
0.187121
0.188179
0.188172
0.150641
0.150636
0.151518
0.151514
0.207795
0.251924
0.2089
0.25314
0.169127
0.209437
0.170052
0.210461
0.323766
0.35904
0.325155
0.360628
0.277155
0.30932
0.278338
0.310686
0.355799
0.320928
0.357456
0.322381
0.306534
0.274739
0.307956
0.275972
0.249445
0.205531
0.250717
0.206688
0.207347
0.167228
0.208415
0.168195
0.184952
0.184945
0.186053
0.186046
0.148824
0.14882
0.149742
0.149738
0.20551
0.249409
0.206666
0.25068
0.167215
0.207321
0.168181
0.208389
0.32088
0.355745
0.322331
0.3574
0.274702
0.306489
0.275934
0.30791
0.352359
0.317906
0.354089
0.319427
0.303584
0.272177
0.305066
0.273464
0.246805
0.203129
0.248141
0.204346
0.205132
0.165224
0.206251
0.166238
0.182663
0.182657
0.183823
0.183816
0.14692
0.146916
0.147883
0.147879
0.203109
0.246771
0.204325
0.248106
0.165212
0.205108
0.166225
0.206226
0.31786
0.352307
0.31938
0.354035
0.272142
0.303542
0.273428
0.305022
0.348756
0.314727
0.350571
0.316331
0.300502
0.269489
0.302053
0.270843
0.244018
0.200585
0.245432
0.201877
0.2028
0.163109
0.20398
0.164181
0.180236
0.180231
0.181469
0.181463
0.144907
0.144904
0.145928
0.145924
0.200567
0.243986
0.201858
0.245398
0.163098
0.202778
0.16417
0.203957
0.314684
0.348707
0.316286
0.35052
0.269457
0.300463
0.270809
0.302012
0.344952
0.311352
0.346874
0.31306
0.297257
0.266645
0.298895
0.268082
0.241042
0.197859
0.242557
0.199249
0.200318
0.16085
0.201579
0.161999
0.17763
0.177624
0.178959
0.178954
0.142753
0.14275
0.14385
0.143847
0.197841
0.241012
0.199231
0.242525
0.160839
0.200298
0.161989
0.201558
0.311312
0.344906
0.313019
0.346826
0.266614
0.29722
0.26805
0.298856
0.340888
0.307719
0.342948
0.309566
0.293799
0.263591
0.295551
0.265141
0.237815
0.194886
0.239464
0.196408
0.197636
0.158395
0.199005
0.15965
0.174779
0.174774
0.17624
0.176235
0.140407
0.140405
0.141607
0.141605
0.19487
0.237787
0.196392
0.239435
0.158386
0.197617
0.15964
0.198985
0.307682
0.340845
0.309526
0.342904
0.263563
0.293765
0.265112
0.295514
0.336482
0.303742
0.338725
0.305773
0.290059
0.260253
0.291962
0.261955
0.23425
0.19158
0.23608
0.193281
0.19468
0.155674
0.196196
0.157072
0.171599
0.171594
0.173237
0.173232
0.137798
0.137796
0.13914
0.139138
0.191566
0.234224
0.193266
0.236054
0.155666
0.194664
0.157064
0.196178
0.303708
0.336443
0.305737
0.338684
0.260227
0.290028
0.261928
0.291928
0.331628
0.299314
0.33411
0.301585
0.285943
0.256541
0.288047
0.258443
0.230234
0.187826
0.232306
0.189767
0.191357
0.152591
0.19307
0.154184
0.167972
0.167969
0.16985
0.169846
0.134831
0.134829
0.136365
0.136364
0.187814
0.230211
0.189754
0.232282
0.152585
0.191343
0.154177
0.193055
0.299283
0.331594
0.301553
0.334073
0.256519
0.285916
0.258419
0.288017
0.326207
0.294295
0.328988
0.296881
0.281339
0.252331
0.283702
0.2545
0.225613
0.183465
0.22801
0.185733
0.187534
0.149013
0.189517
0.150873
0.163745
0.163743
0.165945
0.165942
0.131375
0.131375
0.133173
0.133171
0.183456
0.225594
0.185723
0.22799
0.149009
0.187523
0.150868
0.189504
0.294269
0.326178
0.296852
0.328955
0.252313
0.281315
0.25448
0.283675
0.320153
0.288494
0.323247
0.291501
0.276153
0.247439
0.278812
0.24998
0.220135
0.178262
0.223004
0.180989
0.182991
0.144739
0.185372
0.146979
0.158708
0.158706
0.161343
0.161341
0.127258
0.127258
0.129412
0.129411
0.178255
0.220122
0.180981
0.222988
0.144738
0.182983
0.146977
0.185363
0.288474
0.32013
0.291478
0.32322
0.247425
0.276134
0.249964
0.27879
0.313957
0.28136
0.316962
0.285165
0.270672
0.241311
0.27337
0.2446
0.213181
0.17181
0.216913
0.175226
0.177163
0.139419
0.180301
0.142239
0.152605
0.152605
0.155803
0.155802
0.122268
0.122269
0.124882
0.124883
0.171808
0.213173
0.175221
0.216902
0.13942
0.177161
0.142238
0.180296
0.281348
0.313942
0.285148
0.316942
0.241303
0.27066
0.244589
0.273355
0.312631
0.268545
0.31192
0.276534
0.268765
0.229907
0.268659
0.237054
0.202868
0.16364
0.208641
0.167944
0.168345
0.132643
0.173304
0.136214
0.145382
0.145383
0.149111
0.149111
0.116374
0.116376
0.119411
0.119413
0.163641
0.202866
0.167943
0.208636
0.132647
0.168347
0.136217
0.173304
0.26854
0.312625
0.276525
0.311908
0.229906
0.268762
0.23705
0.268651
0.163002
0.135805
0.0950768
0.078881
0.154392
0.128257
0.0884804
0.0732518
0.0746194
0.0365606
0.0324558
0.00958814
0.0688149
0.0322033
0.0288755
0.00832885
0.0165111
0.0165268
0.00421995
0.00422307
0.0134723
0.013486
0.00383887
0.00384196
0.0365921
0.0746456
0.00960183
0.0324829
0.0322319
0.068839
0.00834018
0.0289002
0.135829
0.163022
0.0789081
0.0950982
0.128278
0.15441
0.0732769
0.0885
0.254418
0.218363
0.213983
0.181101
0.241274
0.206294
0.203164
0.171354
0.145557
0.0991672
0.112254
0.0681643
0.13502
0.089771
0.104137
0.0612737
0.0764008
0.0764086
0.0455389
0.0455522
0.0674892
0.067497
0.0389995
0.0390124