/*--------------------------------*- C++ -*----------------------------------*\
  =========                 |
  \\      /  F ield         | OpenFOAM: The Open Source CFD Toolbox
   \\    /   O peration     | Website:  https://openfoam.org
    \\  /    A nd           | Version:  9
     \\/     M anipulation  |
\*---------------------------------------------------------------------------*/
FoamFile
{
    format      ascii;
    class       volScalarField;
    location    "5";
    object      epsilon;
}
// * * * * * * * * * * * * * * * * * * * * * * * * * * * * * * * * * * * * * //

dimensions      [0 2 -3 0 0 0 0];

internalField   nonuniform List<scalar> 
36360
(
1.11841
0.963594
0.800755
0.713813
1.34525
1.18787
0.669748
0.749282
0.650532
0.487095
0.453238
0.322072
0.85137
0.670293
0.472058
0.341809
0.417771
0.417518
0.268515
0.268296
0.596864
0.59646
0.295092
0.294826
0.486328
0.649262
0.321388
0.452057
0.668999
0.848985
0.340907
0.470234
0.961984
1.11686
0.712252
0.799231
1.18416
1.34043
0.746155
0.666294
1.57285
1.37484
1.3638
1.18058
2.19074
1.92283
1.79975
1.56514
1.00911
0.813048
0.834925
0.651599
1.50242
1.2699
1.18028
0.969415
0.727308
0.727053
0.572365
0.572105
1.16963
1.16914
0.880411
0.879949
0.812288
1.00789
0.650821
0.833664
1.26838
1.49977
0.967969
1.1777
1.37335
1.57147
1.17901
1.36231
1.91888
2.18568
1.56125
1.79471
1.94813
1.731
1.7666
1.55803
2.91929
2.60351
2.56145
2.26796
1.33719
1.12404
1.17673
0.971172
2.13108
1.86683
1.81953
1.56977
1.0298
1.02956
0.880666
0.880419
1.75017
1.74966
1.46056
1.46005
1.12334
1.33609
0.970441
1.17557
1.86527
2.1284
1.56822
1.81685
1.72968
1.94694
1.55662
1.76531
2.59959
2.91433
2.26401
2.55643
2.27992
2.04947
2.11926
1.89495
3.58902
3.2378
3.2616
2.92674
1.6365
1.41169
1.49081
1.27137
2.72495
2.43707
2.43307
2.15626
1.3118
1.31158
1.17406
1.17383
2.30861
2.3081
2.03327
2.03275
1.41105
1.6355
1.2707
1.48977
2.43553
2.72231
2.1547
2.43041
2.0483
2.27891
1.89371
2.11816
3.234
3.58421
2.92287
3.25671
2.57219
2.33181
2.43106
2.19531
4.19215
3.81474
3.89878
3.53348
1.90463
1.67118
1.77475
1.54532
3.26933
2.96307
3.00354
2.70593
1.56717
1.56697
1.44322
1.44301
2.82574
2.82524
2.57273
2.57222
1.6706
1.90373
1.54472
1.77381
2.96157
3.26678
2.7044
3.00094
2.33077
2.57132
2.19421
2.43012
3.81106
4.18752
3.52974
3.89406
2.82689
2.57887
2.70424
2.45981
4.72577
4.32878
4.46712
4.07922
2.14095
1.90097
2.02692
1.78998
3.75724
3.43663
3.5201
3.20621
1.79383
1.79364
1.68431
1.68412
3.29242
3.29193
3.06527
3.06478
1.90044
2.14012
1.78943
2.02606
3.43517
3.75477
3.20473
3.51758
2.57793
2.82613
2.45882
2.70342
4.32524
4.7213
4.07561
4.46257
3.04668
2.79272
2.94112
2.68995
5.19171
4.77988
4.96649
4.56158
2.34658
2.10164
2.24769
2.00508
4.18743
3.8556
3.97908
3.65256
1.99211
1.99194
1.89665
1.89648
3.70603
3.70556
3.50546
3.50498
2.10114
2.34581
2.00456
2.2469
3.85418
4.18504
3.65112
3.97665
2.79186
3.04601
2.68905
2.94041
4.77645
5.18738
4.55809
4.96209
3.23473
2.9761
3.14465
2.88822
5.59437
5.17112
5.40018
4.98226
2.52364
2.27492
2.43875
2.1918
4.56202
4.22127
4.38109
4.04456
2.16363
2.16347
2.08133
2.08116
4.06775
4.06729
3.89288
3.89242
2.27445
2.52293
2.19132
2.43801
4.2199
4.55969
4.04316
4.37873
2.9753
3.23414
2.8874
3.14402
5.1678
5.59017
4.97888
5.39591
3.3941
3.13176
3.31797
3.05738
5.93877
5.50669
5.77304
5.34508
2.67451
2.42294
2.60241
2.35217
4.88439
4.53662
4.72908
4.38463
2.31034
2.31019
2.24018
2.24002
4.38006
4.37962
4.22949
4.22904
2.4225
2.67384
2.35172
2.60172
4.53527
4.88212
4.38327
4.72679
3.13102
3.39356
3.05662
3.3174
5.50346
5.93467
5.3418
5.76889
3.52791
3.26263
3.46419
3.20031
6.23047
5.79158
6.09042
5.6547
2.8018
2.54811
2.74118
2.48847
5.15885
4.80561
5.02695
4.67629
2.43454
2.43439
2.37535
2.3752
4.64673
4.6463
4.5185
4.51806
2.54769
2.80117
2.48804
2.74053
4.80429
5.15664
4.67496
5.02471
3.26194
3.52742
3.19959
3.46368
5.78842
6.22646
5.6515
6.08636
3.63889
3.37132
3.58625
3.31977
6.47461
6.03048
6.3577
5.916
2.90789
2.65268
2.85758
2.60307
5.38965
5.03223
5.27904
4.92359
2.53841
2.53827
2.48911
2.48897
4.87159
4.87116
4.76377
4.76334
2.65228
2.90728
2.60266
2.85696
5.03095
5.38748
4.92229
5.27686
3.37066
3.63844
3.31909
3.58578
6.02739
6.47067
5.91287
6.35372
3.72961
3.46025
3.68682
3.4183
6.6761
6.22801
6.57996
6.13369
2.99504
2.7388
2.95394
2.69817
5.58103
5.22052
5.48964
5.13058
2.62407
2.62394
2.58364
2.5835
5.05857
5.05815
4.96923
4.96881
2.73842
2.99446
2.69777
2.95335
5.21926
5.5789
5.1293
5.4875
3.45962
3.72919
3.41766
3.68639
6.22497
6.67224
6.13062
6.57605
3.80219
3.53151
3.7682
3.49815
6.8392
6.38819
6.76173
6.31204
3.06522
2.80837
3.03237
2.77579
5.73675
5.37406
5.66273
5.30105
2.69338
2.69325
2.6609
2.66077
5.2112
5.21079
5.13861
5.13819
2.808
3.06466
2.77541
3.0318
5.37282
5.73466
5.2998
5.66063
3.53091
3.8018
3.49753
3.7678
6.3852
6.83539
6.30903
6.75789
3.85859
3.58699
3.83247
3.5613
6.96781
6.51477
6.90713
6.45499
3.12021
2.86311
3.09475
2.83775
5.86032
5.4962
5.80197
5.4385
2.74801
2.74788
2.72268
2.72255
5.33281
5.3324
5.27534
5.27493
2.86274
3.11966
2.83738
3.0942
5.49498
5.85826
5.43727
5.7999
3.58641
3.85823
3.56071
3.8321
6.51182
6.96406
6.45202
6.90335
3.90037
3.62823
3.88139
3.60949
7.06518
6.61089
7.01977
6.56598
3.16151
2.90447
3.14273
2.88563
5.95473
5.58988
5.91063
5.54608
2.78942
2.7893
2.77054
2.77042
5.42624
5.42584
5.38254
5.38214
2.90412
3.16098
2.88527
3.14219
5.58868
5.9527
5.54487
5.90859
3.62767
3.90003
3.60892
3.88104
6.60798
7.06147
6.56305
7.01603
3.9289
3.65656
3.9164
3.64413
7.13413
6.67928
7.10261
6.64794
3.19041
2.93376
3.17768
2.92081
6.0226
5.65771
5.99147
5.62654
2.81886
2.81874
2.80582
2.8057
5.494
5.4936
5.46284
5.46244
2.93341
3.1899
2.92046
3.17716
5.65652
6.0206
5.62535
5.98946
3.65602
3.92858
3.64358
3.91607
6.67641
7.13047
6.64504
7.09892
3.94525
3.67307
3.93874
3.66644
7.17698
6.72219
7.15826
6.70335
3.208
2.95201
3.20082
2.94446
6.06617
5.70182
6.04694
5.68227
2.83739
2.83727
2.82969
2.82957
5.53823
5.53785
5.5186
5.51821
2.95168
3.20752
2.94412
3.20031
5.70065
6.06421
5.68109
6.04496
3.6726
3.945
3.66592
3.93843
6.7194
7.17341
6.70049
7.15463
3.95019
3.67854
3.94935
3.67738
7.19563
6.74143
7.18883
6.73425
3.21514
2.96011
3.21309
2.95754
6.08726
5.72405
6.07907
5.71523
2.84589
2.84578
2.84311
2.84299
5.56082
5.56044
5.5518
5.55141
2.9598
3.21469
2.95722
3.21262
5.72291
6.08536
5.71408
6.07714
3.67815
3.95004
3.67694
3.94913
6.73874
7.19217
6.7315
7.18531
3.94469
3.67402
3.94882
3.67762
7.19183
6.73874
7.19574
6.74203
3.21275
2.95895
3.21528
2.96086
6.0875
5.72587
6.08943
5.72706
2.84524
2.84513
2.84688
2.84677
5.56319
5.56281
5.56409
5.56371
2.95865
3.21232
2.96055
3.21485
5.72474
6.08562
5.72593
6.08755
3.67365
3.94459
3.67726
3.94873
6.73612
7.18846
6.73941
7.19235
3.92975
3.66033
3.93855
3.66849
7.16729
6.71594
7.18172
6.72947
3.20149
2.94918
3.20846
2.95539
6.06864
5.70912
6.08029
5.71975
2.83615
2.83604
2.84202
2.84191
5.54743
5.54706
5.55757
5.5572
2.94887
3.20104
2.95509
3.20801
5.708
6.06675
5.71862
6.0784
3.6599
3.92953
3.66809
3.93839
6.71321
7.16382
6.72679
7.17831
3.90559
3.63792
3.91891
3.65031
7.12305
6.67381
7.1471
6.69668
3.18196
2.93131
3.19297
2.94148
6.03138
5.67433
6.05186
5.69354
2.81907
2.81896
2.82884
2.82873
5.51379
5.51342
5.53241
5.53204
2.93102
3.18155
2.94118
3.19254
5.67324
6.02957
5.69244
6.05001
3.63763
3.9056
3.64997
3.9188
6.67133
7.11983
6.6941
7.14373
3.87359
3.60783
3.89083
3.6241
7.06086
6.61422
7.0938
6.64581
3.15479
2.9059
3.16959
2.9198
5.97699
5.6228
6.00595
5.6503
2.7945
2.79439
2.80796
2.80786
5.46359
5.46323
5.4904
5.49004
2.9056
3.15434
2.9195
3.16915
5.62171
5.97515
5.64921
6.00412
3.60736
3.87333
3.62367
3.89068
6.61155
7.05747
6.64318
7.09048
3.83304
3.56967
3.8545
3.5899
6.98061
6.53699
7.02252
6.57728
3.12008
2.87322
3.13862
2.89072
5.90611
5.55522
5.94323
5.59067
2.76278
2.76267
2.77978
2.77968
5.39753
5.39717
5.4322
5.43183
2.87292
3.11963
2.89042
3.13817
5.55414
5.90429
5.58958
5.94141
3.56922
3.83281
3.58946
3.85428
6.53438
6.97728
6.57467
7.01917
3.78406
3.52357
3.8098
3.5478
6.8827
6.44258
6.93345
6.49147
3.07804
2.83352
3.10022
2.85451
5.81925
5.47216
5.86432
5.51528
2.72417
2.72407
2.74459
2.74448
5.3162
5.31585
5.35843
5.35808
2.83323
3.07759
2.8542
3.09978
5.4711
5.81746
5.51422
5.86252
3.52311
3.78382
3.54734
3.80956
6.44
6.8794
6.48888
6.93012
3.72694
3.46988
3.75668
3.49785
6.76773
6.33167
6.82691
6.38872
3.02894
2.78707
3.05461
2.81139
5.71699
5.3742
5.76969
5.42471
2.67894
2.67884
2.70264
2.70253
5.22018
5.21983
5.26969
5.26935
2.78678
3.02851
2.8111
3.05417
5.37315
5.71523
5.42366
5.76792
3.46943
3.72671
3.4974
3.75644
6.32914
6.76449
6.38617
6.82363
3.66212
3.40896
3.69567
3.4405
6.63647
6.205
6.70372
6.26986
2.9731
2.73413
3.00211
2.76166
5.59997
5.26191
5.65998
5.31952
2.62735
2.62725
2.65419
2.65409
5.11003
5.10969
5.16655
5.16621
2.73385
2.97267
2.76137
3.00167
5.26089
5.59824
5.31849
5.65824
3.40852
3.66188
3.44006
3.69543
6.20251
6.63329
6.26735
6.7005
3.58989
3.34113
3.6271
3.3761
6.48959
6.06318
6.56458
6.13555
2.91078
2.67496
2.94299
2.70558
5.46875
5.13585
5.5358
5.20029
2.56963
2.56953
2.59951
2.59941
4.98629
4.98595
5.04955
5.04921
2.67468
2.91035
2.70529
2.94257
5.13485
5.46705
5.19928
5.53409
3.3407
3.58966
3.37566
3.62687
6.06075
6.48646
6.13309
6.56142
3.51057
3.26665
3.55129
3.3049
6.32771
5.90686
6.41013
5.98642
2.84222
2.60978
2.87752
2.64337
5.32389
4.99654
5.3977
5.06755
2.506
2.5059
2.5388
2.5387
4.84946
4.84914
4.91921
4.91888
2.6095
2.8418
2.64309
2.8771
4.99556
5.32223
5.06655
5.39602
3.26622
3.51034
3.30447
3.55106
5.90448
6.32465
5.984
6.40703
3.42446
3.1858
3.46853
3.2272
6.15146
5.73662
6.241
5.82308
2.76765
2.53879
2.80592
2.57525
5.16591
4.84449
5.24623
4.92181
2.43666
2.43656
2.47229
2.47219
4.70005
4.69973
4.77604
4.77572
2.53852
2.76724
2.57498
2.80551
4.84352
5.16429
4.92084
5.24459
3.18538
3.42424
3.22678
3.46831
5.73428
6.14846
5.82071
6.23796
3.33191
3.09885
3.37916
3.14326
5.96146
5.55299
6.0578
5.64608
2.68731
2.46221
2.72844
2.50144
4.99533
4.68018
5.0819
4.76358
2.36181
2.36171
2.40017
2.40007
4.53854
4.53822
4.62052
4.62021
2.46194
2.68691
2.50117
2.72803
4.67923
4.99374
4.76262
5.08029
3.09844
3.33169
3.14284
3.37893
5.5507
5.95852
5.64377
6.05484
3.23327
3.00609
3.28352
3.05337
5.75839
5.35673
5.86119
5.45601
2.60142
2.38024
2.64529
2.42214
4.8127
4.50412
4.90523
4.59334
2.28163
2.28153
2.32262
2.32253
4.36542
4.36511
4.45315
4.45284
2.37997
2.60103
2.42187
2.64489
4.50319
4.81115
4.5924
4.90365
3.00568
3.23304
3.05296
3.28329
5.3545
5.75553
5.45374
5.85829
3.12892
2.90781
3.18196
2.9578
5.54295
5.14866
5.65187
5.25383
2.51022
2.29306
2.55671
2.33753
4.61858
4.31681
4.7168
4.4116
2.1963
2.1962
2.23984
2.23974
4.18117
4.18087
4.27442
4.27412
2.2928
2.50983
2.33727
2.55632
4.3159
4.61706
4.41069
4.71526
2.90741
3.12869
2.9574
3.18173
5.14648
5.54016
5.25162
5.64905
3.0193
2.80436
3.07492
2.85689
5.31569
4.92915
5.43047
5.03998
2.41395
2.20088
2.46294
2.24783
4.41341
4.11869
4.51711
4.21885
2.10598
2.10589
2.15199
2.1519
3.98626
3.98596
4.0848
4.0845
2.20062
2.41356
2.24756
2.46255
4.11781
4.41193
4.21796
4.51561
2.80396
3.01906
2.85649
3.07469
4.92703
5.31298
5.03783
5.42771
2.90487
2.6961
2.96282
2.75099
5.0772
4.69887
5.19754
4.81501
2.31284
2.10385
2.36421
2.15319
4.1977
3.9102
4.30662
4.01551
2.01082
2.01073
2.05923
2.05914
3.78105
3.78076
3.8847
3.88442
2.10359
2.31245
2.15293
2.36382
3.90934
4.19625
4.01464
4.30515
2.6957
2.90462
2.75059
2.96258
4.69681
5.07456
4.81291
5.19485
2.78631
2.58352
2.84622
2.64048
4.82817
4.45867
4.95369
4.57966
2.20716
2.00211
2.26078
2.05379
3.97193
3.69164
4.08583
3.80196
1.91086
1.91077
1.96167
1.96158
3.56577
3.56549
3.67447
3.67418
2.00185
2.20678
2.05354
2.26039
3.6908
3.97053
3.80112
4.08441
2.58313
2.78606
2.64009
2.84597
4.45666
4.82561
4.57763
4.95109
2.6649
2.46745
2.726
2.52602
4.56984
4.20983
4.69979
4.33494
2.0972
1.89557
2.15292
1.94968
3.73655
3.46294
3.85522
3.57839
1.80587
1.80578
1.85924
1.85915
3.34013
3.33987
3.45411
3.45383
1.89532
2.09683
1.94942
2.15254
3.46213
3.73519
3.57758
3.85385
2.46705
2.66464
2.52562
2.72575
4.20789
4.56737
4.33296
4.69727
2.54387
2.34928
2.60413
2.40867
4.30616
3.95518
4.43794
4.08275
1.9829
1.78354
2.04085
1.84055
3.49138
3.22293
3.61509
3.34432
1.69492
1.69484
1.75145
1.75136
3.10271
3.10246
3.22287
3.22261
1.78329
1.98253
1.8403
2.04048
3.22216
3.49008
3.34354
3.61376
2.34888
2.54361
2.40828
2.60387
3.95332
4.30379
4.08085
4.43552
2.43385
2.22919
2.48627
2.28993
4.05341
3.69725
4.17597
3.8266
1.86146
1.66326
1.92373
1.72494
3.23212
2.96757
3.36403
3.09741
1.57571
1.57563
1.63676
1.63667
2.8504
2.85016
2.97847
2.97822
1.66301
1.86109
1.72469
1.92336
2.96684
3.23089
3.09666
3.36276
2.2288
2.43357
2.28954
2.486
3.69548
4.05115
3.82478
4.17365
2.38598
2.0764
2.39502
2.16393
3.85171
3.38232
3.94656
3.55817
1.71761
1.52819
1.79444
1.59826
2.93713
2.69012
3.09135
2.83164
1.44456
1.44447
1.51204
1.51195
2.58145
2.58123
2.71763
2.7174
1.52795
1.71724
1.59802
1.79407
2.68945
2.93599
2.83094
3.09016
2.076
2.38568
2.16354
2.39474
3.38068
3.84957
3.55645
3.94435
1.38396
1.21663
1.16598
1.02893
1.24462
1.08032
0.999182
0.873928
0.910406
0.729855
0.746405
0.584512
0.770947
0.596594
0.598863
0.448779
0.646976
0.646773
0.511681
0.511457
0.518972
0.518743
0.383591
0.38336
0.729292
0.909643
0.583871
0.745479
0.59593
0.769958
0.448096
0.597797
1.21601
1.38374
1.02805
1.16541
1.0793
1.2439
0.872741
0.998205
1.72265
1.53905
1.56639
1.38757
1.61833
1.42931
1.44591
1.26511
1.21165
1.01398
1.06669
0.874989
1.0869
0.888642
0.934406
0.745085
0.921595
0.921452
0.786071
0.785899
0.798396
0.798203
0.659686
0.659473
1.0136
1.21118
0.874518
1.06609
0.888094
1.08612
0.744476
0.93352
1.53882
1.72286
1.38717
1.56642
1.42858
1.61795
1.26424
1.44537
1.99474
1.80699
1.86475
1.67854
1.92229
1.7236
1.77651
1.58188
1.47441
1.27121
1.3477
1.14659
1.36721
1.15845
1.23134
1.027
1.17538
1.17529
1.0521
1.05198
1.06248
1.06233
0.933448
0.933274
1.27097
1.47417
1.14628
1.34736
1.15801
1.36662
1.02651
1.23066
1.80703
1.99522
1.67846
1.86512
1.7231
1.92216
1.58128
1.77627
2.22579
2.03677
2.11498
1.92641
2.18419
1.98015
2.0581
1.85643
1.7034
1.49822
1.59318
1.38875
1.61595
1.40112
1.4957
1.28355
1.40096
1.4009
1.29206
1.29199
1.30184
1.30172
1.18575
1.18561
1.49809
1.70331
1.38857
1.59302
1.40077
1.6155
1.28317
1.49518
2.03698
2.22646
1.92654
2.11556
1.97984
2.18426
1.85604
2.05808
2.42338
2.23411
2.32866
2.13945
2.41105
2.20348
2.30197
2.09602
1.90151
1.69577
1.8064
1.60084
1.83433
1.61554
1.72911
1.51211
1.5979
1.59787
1.50321
1.50316
1.51411
1.514
1.41165
1.41154
1.69571
1.90153
1.60074
1.80637
1.61527
1.83398
1.5118
1.72872
2.23444
2.42417
2.13973
2.32939
2.2033
2.41126
2.09577
2.30211
2.59167
2.40262
2.51114
2.32195
2.60633
2.39626
2.51263
2.30372
2.07143
1.86581
1.99005
1.78433
2.02387
1.80242
1.93282
1.71259
1.76776
1.76774
1.68634
1.68631
1.69951
1.69943
1.61034
1.61025
1.86579
2.07153
1.78429
1.99012
1.8022
2.02361
1.71234
1.93252
2.40304
2.59255
2.32233
2.51198
2.39618
2.60663
2.30359
2.51288
2.73403
2.54545
2.66605
2.47723
2.77307
2.56117
2.69326
2.48222
2.21597
2.01084
2.14693
1.94154
2.18673
1.96351
2.10873
1.88632
1.91285
1.91284
1.8435
1.84349
1.8596
1.85953
1.78286
1.78278
2.01086
2.21612
1.94155
2.14706
1.96333
2.18653
1.88612
2.1085
2.54594
2.73497
2.47768
2.66695
2.56115
2.77345
2.48218
2.69361
2.85363
2.66561
2.79667
2.60838
2.91436
2.70109
2.84691
2.63428
2.33796
2.13354
2.27986
2.07508
2.32545
2.10108
2.2592
2.03536
2.03576
2.03577
1.97718
1.97718
1.99652
1.99646
1.93108
1.93102
2.1336
2.33816
2.07512
2.28004
2.10093
2.32529
2.03519
2.25903
2.66614
2.85461
2.60889
2.79763
2.70114
2.91479
2.6343
2.84732
2.95309
2.76571
2.90587
2.71818
3.03294
2.81871
2.97649
2.76272
2.43996
2.2364
2.39154
2.18756
2.44247
2.21743
2.38677
2.16203
2.13892
2.13894
2.08992
2.08993
2.11246
2.11241
2.05723
2.05718
2.23647
2.44019
2.18762
2.39176
2.2173
2.44236
2.16189
2.38664
2.76627
2.95411
2.71873
2.90686
2.8188
3.03342
2.76279
2.97696
3.03494
2.8482
2.99624
2.8092
3.13151
2.9166
3.08477
2.87017
2.52438
2.32177
2.48447
2.28139
2.54023
2.31487
2.49387
2.26865
2.22466
2.22469
2.18409
2.18411
2.20968
2.20964
2.16355
2.1635
2.32186
2.52464
2.28147
2.48472
2.31477
2.54014
2.26853
2.49377
2.84879
3.03598
2.80977
2.99727
2.91672
3.13203
2.87028
3.08527
3.10124
2.91518
3.07006
2.88367
3.21233
2.99699
3.17418
2.95904
2.59331
2.3917
2.5609
2.3588
2.62086
2.39548
2.58281
2.35742
2.29502
2.29505
2.2619
2.26193
2.29022
2.29018
2.25218
2.25214
2.39181
2.59358
2.35889
2.56116
2.39538
2.6208
2.35732
2.58274
2.91579
3.10229
2.88427
3.0711
2.99714
3.21288
2.95918
3.17471
3.15386
2.96849
3.12931
2.94361
3.27748
3.06191
3.24694
3.03147
2.64858
2.44805
2.62279
2.42173
2.68634
2.46115
2.65564
2.43034
2.35183
2.35186
2.32528
2.32531
2.35594
2.35591
2.3251
2.32506
2.44816
2.64887
2.42184
2.62307
2.46107
2.6863
2.43025
2.65559
2.96911
3.15492
2.94423
3.13037
3.06209
3.27805
3.03163
3.2475
3.19432
3.00968
3.17566
2.99067
3.32867
3.11307
3.30489
3.0893
2.69177
2.49235
2.67183
2.47186
2.73831
2.51351
2.71417
2.48917
2.39663
2.39667
2.3759
2.37593
2.40847
2.40844
2.38403
2.384
2.49247
2.69207
2.47199
2.67213
2.51344
2.73828
2.48909
2.71413
3.01032
3.1954
2.9913
3.17673
3.11326
3.32926
3.08949
3.30547
3.22403
3.04015
3.21059
3.02634
3.36746
3.15199
3.34971
3.13416
2.72425
2.52598
2.70951
2.51068
2.77827
2.55404
2.75997
2.53544
2.43079
2.43083
2.41522
2.41526
2.44923
2.44921
2.43051
2.43048
2.52611
2.72456
2.5108
2.70981
2.55397
2.77826
2.53538
2.75995
3.0408
3.22512
3.02699
3.21168
3.1522
3.36807
3.13437
3.3503
3.24404
3.06098
3.23533
3.05187
3.39506
3.17988
3.38277
3.16743
2.74713
2.55007
2.73706
2.53941
2.80744
2.58393
2.79439
2.57051
2.45544
2.45548
2.4445
2.44453
2.47945
2.47943
2.46587
2.46584
2.55021
2.74745
2.53954
2.73738
2.58388
2.80744
2.57046
2.79439
3.06164
3.24514
3.05252
3.23643
3.1801
3.39568
3.16765
3.38338
3.25531
3.07314
3.25086
3.06825
3.41253
3.19783
3.40518
3.19023
2.76139
2.56559
2.75552
2.5591
2.82688
2.60424
2.81858
2.5955
2.47154
2.47158
2.46476
2.4648
2.50017
2.50014
2.49121
2.49119
2.56573
2.76172
2.55924
2.75584
2.6042
2.82689
2.59545
2.81858
3.0738
3.25641
3.06892
3.25196
3.19806
3.41317
3.19046
3.40581
3.25856
3.07737
3.25805
3.07637
3.42072
3.20668
3.41793
3.20354
2.7678
2.57333
2.76577
2.57064
2.83745
2.61585
2.83349
2.61136
2.47991
2.47995
2.4769
2.47694
2.51224
2.51222
2.50751
2.50749
2.57348
2.76814
2.57078
2.7661
2.61581
2.83748
2.61132
2.83351
3.07805
3.25968
3.07704
3.25916
3.20694
3.42138
3.20379
3.41857
3.25447
3.07438
3.25755
3.0769
3.42031
3.20713
3.42173
3.20811
2.76707
2.57398
2.76852
2.57475
2.83987
2.61946
2.8399
2.61889
2.48122
2.48126
2.48166
2.4817
2.51641
2.51639
2.51555
2.51553
2.57414
2.76742
2.5749
2.76886
2.61943
2.83992
2.61885
2.83994
3.07507
3.2556
3.07759
3.25867
3.20742
3.42101
3.20838
3.42241
3.24348
3.06465
3.24994
3.07048
3.4119
3.19984
3.41724
3.20462
2.75974
2.56814
2.76443
2.57209
2.83486
2.61582
2.83852
2.61877
2.4761
2.47614
2.47968
2.47973
2.51341
2.51339
2.51603
2.51601
2.5683
2.76009
2.57225
2.76478
2.6158
2.83492
2.61875
2.83858
3.06534
3.24461
3.07117
3.25107
3.20014
3.41261
3.20493
3.41797
3.22615
3.04874
3.23571
3.05759
3.39597
3.18533
3.40497
3.19359
2.74631
2.55628
2.75399
2.56318
2.82289
2.60537
2.82995
2.61168
2.46498
2.46503
2.47151
2.47155
2.50367
2.50366
2.50962
2.50961
2.55644
2.74666
2.56334
2.75434
2.60535
2.82294
2.61166
2.83001
3.04942
3.22727
3.05828
3.23684
3.18564
3.39668
3.19389
3.40566
3.20299
3.02713
3.21542
3.03878
3.37353
3.16447
3.38574
3.17589
2.72726
2.53884
2.7377
2.54848
2.80456
2.58864
2.81475
2.59803
2.44832
2.44836
2.45757
2.45761
2.4877
2.48769
2.49671
2.4967
2.539
2.72761
2.54864
2.73805
2.58862
2.80462
2.59801
2.81481
3.02782
3.20411
3.03947
3.21655
3.16477
3.37423
3.17619
3.38646
3.17427
3.00012
3.18945
3.01444
3.3447
3.13744
3.36008
3.1519
2.70289
2.51614
2.71595
2.52838
2.78025
2.566
2.7934
2.57831
2.42643
2.42647
2.43826
2.4383
2.46587
2.46586
2.47777
2.47776
2.5163
2.70323
2.52853
2.7163
2.56598
2.78029
2.57829
2.79345
3.0008
3.17536
3.01512
3.19056
3.13773
3.34537
3.15218
3.36075
3.14011
2.96788
3.158
2.9848
3.30962
3.10443
3.32811
3.12187
2.67341
2.48842
2.68901
2.50314
2.75011
2.53769
2.76616
2.55281
2.39957
2.39961
2.41385
2.4139
2.43844
2.43842
2.45311
2.45309
2.48858
2.67375
2.5033
2.68935
2.53766
2.75015
2.55278
2.7662
2.96855
3.14119
2.98547
3.15909
3.10469
3.31027
3.12214
3.32877
3.10056
2.93049
3.12114
2.94997
3.26811
3.06534
3.28983
3.0858
2.63897
2.45587
2.65703
2.47298
2.71428
2.50388
2.73315
2.52172
2.36792
2.36796
2.38457
2.38462
2.40561
2.40559
2.42295
2.42294
2.45602
2.63931
2.47313
2.65737
2.50386
2.71432
2.5217
2.73319
2.93115
3.10163
2.95063
3.12222
3.0656
3.26875
3.08606
3.29047
3.05578
2.88814
3.07894
2.91007
3.22041
3.02044
3.24519
3.04378
2.59976
2.41866
2.62018
2.43807
2.67297
2.4648
2.69455
2.48525
2.33169
2.33173
2.35061
2.35065
2.3676
2.36758
2.3875
2.38749
2.41881
2.60009
2.43822
2.62051
2.46478
2.67301
2.48523
2.69459
2.88879
3.05684
2.91072
3.08001
3.0207
3.22104
3.04404
3.24582
3.00604
2.84106
3.03165
2.86532
3.16683
2.97002
3.19451
2.99608
2.556
2.37701
2.57866
2.39861
2.62643
2.42067
2.65059
2.44361
2.29106
2.2911
2.31215
2.31219
2.32461
2.32459
2.34697
2.34696
2.37715
2.55632
2.39876
2.57899
2.42064
2.62647
2.44359
2.65063
2.84171
3.00709
2.86597
3.03271
2.97028
3.16746
2.99634
3.19513
2.9516
2.78951
2.97953
2.81598
3.10767
2.91435
3.1381
2.943
2.50788
2.33109
2.53269
2.3548
2.57487
2.37167
2.60151
2.39702
2.24622
2.24627
2.26939
2.26943
2.27684
2.27683
2.30157
2.30155
2.33124
2.5082
2.35495
2.53301
2.37165
2.57491
2.397
2.60155
2.79014
2.95263
2.81662
2.98057
2.9146
3.10828
2.94326
3.13872
2.89269
2.73368
2.92281
2.76226
3.04317
2.85364
3.07624
2.88478
2.45561
2.28111
2.48247
2.30683
2.51852
2.31802
2.54753
2.34567
2.19735
2.19739
2.22251
2.22255
2.22448
2.22446
2.25148
2.25146
2.28125
2.45593
2.30697
2.48279
2.31799
2.51855
2.34565
2.54756
2.73431
2.8937
2.76289
2.92383
2.85389
3.04377
2.88503
3.07684
2.82959
2.67383
2.86177
2.70439
2.97363
2.78815
3.00918
2.82165
2.39939
2.22722
2.42819
2.25486
2.45756
2.25988
2.48884
2.28974
2.1446
2.14464
2.17168
2.17172
2.16769
2.16767
2.19687
2.19686
2.22736
2.3997
2.255
2.4285
2.25985
2.45759
2.28972
2.48887
2.67444
2.83058
2.705
2.86277
2.78839
2.97422
2.82189
3.00977
2.76261
2.6102
2.79669
2.64261
2.89935
2.71814
2.93722
2.75386
2.33942
2.16962
2.37007
2.19909
2.39221
2.19744
2.42565
2.22943
2.08816
2.0882
2.11705
2.11709
2.10664
2.10663
2.13793
2.13791
2.16975
2.33972
2.19923
2.37037
2.19741
2.39224
2.2294
2.42569
2.61079
2.76358
2.64321
2.79767
2.71837
2.89991
2.75409
2.9378
2.69209
2.54309
2.72789
2.57719
2.82065
2.64385
2.86068
2.68168
2.27594
2.10849
2.30831
2.1397
2.32268
2.13088
2.35818
2.1649
2.02819
2.02822
2.05882
2.05886
2.04151
2.04149
2.07481
2.0748
2.10862
2.27623
2.13983
2.30861
2.13085
2.32271
2.16487
2.35821
2.54367
2.69303
2.57778
2.72885
2.64407
2.8212
2.68191
2.86124
2.6184
2.47282
2.65573
2.50846
2.73792
2.56557
2.77991
2.60534
2.20919
2.04405
2.24316
2.07688
2.24919
2.06039
2.28664
2.09634
1.96487
1.96491
1.99715
1.99718
1.97245
1.97243
2.00769
2.00767
2.04417
2.20947
2.07701
2.24345
2.06036
2.24921
2.09631
2.28666
2.47338
2.61931
2.50903
2.65666
2.56578
2.73845
2.60556
2.78045
2.54201
2.39976
2.58063
2.43674
2.65161
2.48367
2.69533
2.5252
2.13946
1.9765
2.17488
2.01085
2.17201
1.98615
2.21126
2.02395
1.8984
1.89844
1.93223
1.93226
1.89963
1.89962
1.93673
1.93671
1.97662
2.13973
2.01097
2.17515
1.98612
2.17202
2.02392
2.21128
2.4003
2.54289
2.43729
2.58152
2.48388
2.65211
2.52541
2.69585
2.46354
2.32439
2.5031
2.36245
2.56223
2.39858
2.6074
2.44164
2.06708
1.90608
2.10377
1.94183
2.0914
1.90838
2.13232
1.94791
1.82894
1.82897
1.86423
1.86426
1.82322
1.8232
1.86209
1.86207
1.90619
2.06734
1.94195
2.10403
1.90834
2.09141
1.94788
2.13234
2.32491
2.46439
2.36298
2.50397
2.39876
2.56271
2.44184
2.6079
2.3839
2.24746
2.4239
2.28618
2.47059
2.31088
2.51676
2.35515
1.9925
1.83302
2.03022
1.87006
2.00774
1.82724
2.05014
1.86843
1.75661
1.75664
1.79333
1.79335
1.74329
1.74327
1.78391
1.78389
1.83312
1.99274
1.87017
2.03047
1.8272
2.00774
1.8684
2.05014
2.24795
2.38472
2.28669
2.42473
2.31105
2.47104
2.35533
2.51723
2.30483
2.17015
2.34424
2.20886
2.37818
2.22158
2.42447
2.26648
1.91626
1.75739
1.95474
1.79572
1.92142
1.74274
1.96509
1.78563
1.6813
1.68132
1.71955
1.71957
1.65965
1.65963
1.70217
1.70215
1.75748
1.91648
1.79582
1.95497
1.74269
1.92141
1.78559
1.96508
2.17062
2.3056
2.20934
2.34503
2.22173
2.3786
2.26664
2.42491
2.23037
2.09455
2.26668
2.13208
2.28863
2.13241
2.33278
2.17698
1.83863
1.67861
1.87782
1.71867
1.83256
1.65421
1.87754
1.69927
1.6021
1.60211
1.64247
1.6425
1.57138
1.57135
1.6164
1.61638
1.67869
1.83883
1.71875
1.87803
1.65416
1.83254
1.69922
1.87752
2.09499
2.2311
2.13254
2.26744
2.13254
2.28901
2.17712
2.33318
2.17348
2.02247
2.19816
2.05826
2.214
2.04436
2.24797
2.08855
1.75744
1.59402
1.79905
1.63753
1.73862
1.55886
1.78685
1.60789
1.51652
1.51654
1.56051
1.56052
1.47599
1.47596
1.52499
1.52496
1.59408
1.75762
1.6376
1.79923
1.5588
1.73858
1.60784
1.78681
2.02288
2.17417
2.05868
2.19887
2.04447
2.21434
2.08867
2.24834
2.1912
1.93142
2.16571
1.98493
2.21296
1.93189
2.19638
1.99733
1.65931
1.49733
1.71233
1.54779
1.62514
1.45014
1.68629
1.50682
1.42087
1.42088
1.4703
1.47031
1.36965
1.36962
1.42456
1.42453
1.49737
1.65944
1.54784
1.71248
1.45007
1.62507
1.50675
1.68623
1.93177
2.19186
1.98531
2.16638
1.93195
2.21328
1.99741
2.19671
1.62843
1.46266
1.43485
1.29225
1.51317
1.34593
1.31004
1.16866
1.16582
0.982998
1.0084
0.83717
1.04402
0.861201
0.883942
0.715694
0.896462
0.896328
0.757381
0.757205
0.775691
0.775521
0.638371
0.638167
0.982659
1.16548
0.836698
1.00782
0.860747
1.04348
0.715128
0.883184
1.46268
1.62898
1.29194
1.43498
1.34566
1.51336
1.16806
1.30984
1.93571
1.76151
1.79401
1.62127
1.83251
1.65383
1.68525
1.50931
1.45556
1.26399
1.31649
1.12723
1.33813
1.14311
1.19686
1.00564
1.17217
1.17212
1.03702
1.03693
1.05052
1.05042
0.915445
0.915314
1.26389
1.45559
1.12702
1.31636
1.14288
1.33793
1.0053
1.1965
1.76198
1.93672
1.62155
1.79483
1.65398
1.83316
1.50928
1.68571
2.1794
2.00636
2.06361
1.88961
2.087
1.90743
1.96581
1.78624
1.70413
1.51301
1.58495
1.39311
1.592
1.395
1.47
1.27341
1.42076
1.42076
1.30078
1.30076
1.30071
1.30067
1.17965
1.17958
1.51307
1.70439
1.39309
1.58511
1.39492
1.59204
1.27327
1.46994
2.00709
2.18066
1.89023
2.06476
1.90785
2.08792
1.78654
1.96661
2.38181
2.2118
2.28529
2.11369
2.30044
2.12222
2.19839
2.01938
1.91602
1.72778
1.81462
1.62483
1.81043
1.61433
1.70564
1.50892
1.63653
1.63657
1.53299
1.53302
1.52002
1.52002
1.41452
1.4145
1.72795
1.91644
1.62495
1.81497
1.61436
1.81063
1.5089
1.70577
2.21268
2.38321
2.11451
2.28663
2.12282
2.30153
2.0199
2.19941
2.55133
2.38463
2.47047
2.30214
2.4809
2.30464
2.39462
2.21737
2.09559
1.91081
2.00983
1.82332
1.99724
1.80295
1.90781
1.71258
1.82095
1.82102
1.73275
1.7328
1.70921
1.70923
1.61852
1.61852
1.91104
2.0961
1.82352
2.0103
1.80305
1.99754
1.71264
1.90806
2.38561
2.55281
2.30308
2.47191
2.30534
2.48209
2.21802
2.39576
2.69313
2.52958
2.62555
2.46049
2.6332
2.45893
2.56046
2.38523
2.24683
2.06545
2.17474
1.9917
2.1559
1.96368
2.08011
1.88686
1.97707
1.97715
1.90259
1.90266
1.87071
1.87075
1.79349
1.79352
2.06573
2.2474
1.99195
2.17528
1.96382
2.15627
1.88698
2.08044
2.53061
2.69465
2.4615
2.62706
2.45971
2.63445
2.38597
2.56168
2.81113
2.65042
2.75501
2.59294
2.761
2.58861
2.70009
2.52681
2.37336
2.19517
2.31319
2.13346
2.28969
2.09955
2.22594
2.03478
2.1082
2.10829
2.0458
2.04589
2.00743
2.00748
1.94223
1.94228
2.19548
2.37397
2.13375
2.31378
2.09973
2.2901
2.03494
2.22633
2.65148
2.81267
2.59399
2.75655
2.58944
2.76229
2.52761
2.70137
2.90859
2.7504
2.86237
2.70298
2.86746
2.6968
2.81686
2.64538
2.47845
2.3032
2.42862
2.25195
2.40167
2.21355
2.34846
2.15935
2.21755
2.21764
2.16566
2.16575
2.12228
2.12234
2.06767
2.06772
2.30352
2.47908
2.25227
2.42924
2.21376
2.40212
2.15955
2.34889
2.75149
2.91014
2.70406
2.86392
2.69766
2.86878
2.64622
2.81817
2.98816
2.83224
2.95056
2.79356
2.9552
2.78613
2.91364
2.74381
2.56489
2.39232
2.52405
2.35019
2.49452
2.30833
2.45055
2.26343
2.30789
2.308
2.26517
2.26527
2.2179
2.21797
2.17259
2.17265
2.39266
2.56554
2.35052
2.52469
2.30855
2.49499
2.26364
2.45101
2.83334
2.98972
2.79465
2.95212
2.78701
2.95654
2.74468
2.91497
3.05227
2.89836
3.02214
2.86727
3.02662
2.85902
2.99295
2.82465
2.63516
2.46505
2.60212
2.43083
2.57068
2.38632
2.53477
2.34953
2.38176
2.38187
2.34698
2.34709
2.29671
2.29678
2.25952
2.25959
2.4654
2.63582
2.43117
2.60277
2.38656
2.57117
2.34976
2.53526
2.89947
3.05383
2.86837
3.0237
2.85992
3.02798
2.82554
2.9943
3.10284
2.95076
3.07924
2.92629
3.08373
2.9175
3.05697
2.89009
2.69134
2.5235
2.66509
2.49617
2.6322
2.4496
2.60337
2.41992
2.44127
2.44138
2.41342
2.41353
2.36079
2.36086
2.33071
2.33079
2.52386
2.69201
2.49652
2.66576
2.44985
2.63271
2.42016
2.60387
2.95187
3.10441
2.92739
3.0808
2.91841
3.08509
2.89099
3.05833
3.1416
2.99118
3.12372
2.97251
3.1283
2.96334
3.10762
2.94205
2.73523
2.5695
2.71493
2.54818
2.68092
2.5
2.65829
2.47655
2.48825
2.48837
2.46646
2.46657
2.41195
2.41203
2.38812
2.3882
2.56986
2.73591
2.54854
2.7156
2.50026
2.68144
2.4768
2.6588
2.99229
3.14317
2.97362
3.12529
2.96426
3.12967
2.94297
3.10899
3.16992
3.02104
3.15709
3.00747
3.16175
2.99802
3.14645
2.98213
2.76832
2.60456
2.75324
2.58853
2.71833
2.53903
2.70117
2.52108
2.52425
2.52437
2.50777
2.50788
2.45174
2.45182
2.43342
2.4335
2.60493
2.769
2.5889
2.75392
2.5393
2.71886
2.52134
2.70169
3.02216
3.17149
3.00858
3.15865
2.99895
3.16313
2.98305
3.14782
3.18905
3.04161
3.18067
3.03255
3.1854
3.02285
3.17485
3.01174
2.7919
2.63
2.78143
2.61864
2.74576
2.56803
2.73344
2.55495
2.55058
2.55069
2.53878
2.53889
2.48147
2.48155
2.46803
2.46811
2.63037
2.79259
2.61901
2.78212
2.5683
2.7463
2.55522
2.73397
3.04273
3.19061
3.03366
3.18223
3.02378
3.18678
3.01266
3.17623
3.1999
3.05385
3.19556
3.04884
3.20021
3.03882
3.19397
3.03202
2.80701
2.64689
2.80066
2.63968
2.76428
2.58809
2.75629
2.57936
2.56832
2.56843
2.56069
2.5608
2.50226
2.50234
2.49316
2.49325