/*--------------------------------*- C++ -*----------------------------------*\
  =========                 |
  \\      /  F ield         | OpenFOAM: The Open Source CFD Toolbox
   \\    /   O peration     | Website:  https://openfoam.org
    \\  /    A nd           | Version:  9
     \\/     M anipulation  |
\*---------------------------------------------------------------------------*/
FoamFile
{
    format      ascii;
    class       volScalarField;
    location    "5";
    object      k;
}
// * * * * * * * * * * * * * * * * * * * * * * * * * * * * * * * * * * * * * //

dimensions      [0 2 -2 0 0 0 0];

internalField   nonuniform List<scalar> 
36360
(
0.340409
0.312526
0.270425
0.253328
0.125061
0.115112
0.0785879
0.0846908
0.249924
0.21461
0.195668
0.16381
0.0922096
0.0786356
0.0622612
0.0502191
0.198834
0.198755
0.14998
0.149904
0.072789
0.0727561
0.0455383
0.0455109
0.214375
0.24954
0.163578
0.19528
0.0785344
0.0920374
0.0501308
0.0621008
0.312025
0.339831
0.252808
0.269819
0.114872
0.124763
0.0844551
0.0783175
0.435233
0.404752
0.391716
0.361604
0.173055
0.158648
0.151815
0.138324
0.339945
0.302667
0.297141
0.26036
0.1346
0.120337
0.114616
0.100534
0.285686
0.285615
0.243729
0.243653
0.113921
0.113889
0.0942879
0.0942549
0.302456
0.339606
0.260135
0.296778
0.120241
0.134442
0.100434
0.114449
0.404313
0.434732
0.361133
0.391177
0.158431
0.172788
0.138094
0.151532
0.511641
0.48085
0.474953
0.444292
0.209529
0.194138
0.192048
0.177089
0.416003
0.378562
0.379407
0.341976
0.169889
0.155545
0.152912
0.138586
0.361375
0.361313
0.324846
0.324779
0.148999
0.14897
0.132085
0.132055
0.378378
0.415709
0.341779
0.379092
0.155458
0.169747
0.138495
0.152762
0.48047
0.511206
0.443884
0.474487
0.193944
0.209292
0.176884
0.191797
0.576755
0.545876
0.545469
0.514614
0.240439
0.224491
0.225593
0.20988
0.48124
0.44394
0.449866
0.412482
0.200119
0.185771
0.18557
0.171221
0.426763
0.426708
0.395287
0.395228
0.179186
0.17916
0.164649
0.164622
0.443777
0.480981
0.41231
0.449591
0.185692
0.199991
0.171138
0.185435
0.545541
0.576372
0.514258
0.545061
0.224315
0.240225
0.209696
0.225367
0.63216
0.601317
0.60557
0.574698
0.266658
0.250408
0.254074
0.23795
0.536949
0.49986
0.510198
0.473001
0.22594
0.211605
0.213528
0.199185
0.482764
0.482715
0.45586
0.455808
0.205017
0.204993
0.192596
0.192571
0.499714
0.536717
0.472848
0.509953
0.211533
0.225822
0.19911
0.213406
0.601018
0.631818
0.574382
0.605208
0.250247
0.266462
0.237782
0.253869
0.679083
0.648342
0.656583
0.625787
0.288821
0.272415
0.278189
0.261846
0.584263
0.547397
0.561568
0.524593
0.247882
0.233577
0.237344
0.223021
0.530408
0.530363
0.507549
0.507502
0.226998
0.226976
0.216439
0.216415
0.547265
0.584052
0.524455
0.561348
0.23351
0.247773
0.222952
0.237231
0.64807
0.678771
0.625502
0.656257
0.272266
0.288639
0.261692
0.278
0.718662
0.688051
0.699701
0.669024
0.307498
0.291017
0.298543
0.282092
0.624265
0.587618
0.605099
0.568346
0.26645
0.252185
0.257541
0.243256
0.570738
0.570697
0.551412
0.551369
0.245622
0.245601
0.236683
0.236661
0.587497
0.624071
0.56822
0.604897
0.252123
0.266349
0.243192
0.257436
0.6878
0.718374
0.668763
0.699402
0.290878
0.307327
0.281948
0.298367
0.751926
0.72145
0.736005
0.705462
0.323192
0.306682
0.315672
0.299172
0.657952
0.621511
0.641829
0.605288
0.282106
0.267881
0.2746
0.260355
0.604733
0.604695
0.58846
0.588421
0.261348
0.261328
0.253807
0.253787
0.621397
0.657771
0.605171
0.641642
0.267823
0.28201
0.260295
0.274501
0.721216
0.751657
0.70522
0.735727
0.306551
0.32303
0.299037
0.315506
0.77973
0.749387
0.766439
0.736032
0.336319
0.319805
0.330035
0.313519
0.686167
0.649919
0.672682
0.636341
0.295238
0.281056
0.288949
0.274746
0.633238
0.633202
0.619613
0.619576
0.274554
0.274535
0.268228
0.268209
0.649812
0.685997
0.636231
0.672507
0.281001
0.295147
0.274689
0.288856
0.749166
0.779476
0.735804
0.766178
0.31968
0.336164
0.313391
0.329876
0.802836
0.772615
0.791809
0.76153
0.347239
0.330738
0.342018
0.325508
0.709659
0.67359
0.698451
0.662295
0.306193
0.292055
0.300953
0.286793
0.657001
0.656966
0.645662
0.645626
0.285583
0.285565
0.280307
0.280289
0.673489
0.709497
0.662191
0.698284
0.292001
0.306106
0.286739
0.300864
0.772404
0.802593
0.761314
0.791561
0.330618
0.347091
0.325385
0.341866
0.821861
0.791751
0.812802
0.782639
0.356249
0.339769
0.351949
0.335456
0.729046
0.693147
0.719818
0.683838
0.315255
0.301162
0.310929
0.296814
0.676643
0.67661
0.667292
0.667259
0.29472
0.294703
0.290357
0.29034
0.69305
0.72889
0.683739
0.719659
0.301111
0.315171
0.296761
0.310843
0.791549
0.821629
0.782433
0.812565
0.339653
0.356105
0.335338
0.351802
0.837343
0.807331
0.829998
0.799938
0.3636
0.347146
0.360101
0.343633
0.744864
0.709126
0.737361
0.701546
0.322672
0.308626
0.319141
0.305072
0.692702
0.69267
0.685083
0.68505
0.302211
0.302194
0.298643
0.298627
0.709032
0.744714
0.701451
0.737209
0.308576
0.32259
0.305022
0.319058
0.807136
0.837118
0.79974
0.829769
0.347033
0.363459
0.343518
0.359959
0.849711
0.819788
0.843871
0.813905
0.369495
0.353071
0.366701
0.35026
0.75755
0.721965
0.751563
0.715904
0.328644
0.314645
0.325813
0.31179
0.705618
0.705587
0.69952
0.699488
0.308258
0.308242
0.305389
0.305373
0.721874
0.757404
0.715812
0.751415
0.314597
0.328565
0.311741
0.325732
0.819599
0.849493
0.813713
0.843649
0.35296
0.369358
0.350149
0.366562
0.85934
0.829498
0.854828
0.824947
0.374112
0.357718
0.371938
0.355527
0.767479
0.732042
0.762828
0.72732
0.333345
0.319393
0.33113
0.317155
0.715769
0.715739
0.711011
0.71098
0.313033
0.313017
0.310781
0.310765
0.731953
0.767338
0.727231
0.762685
0.319346
0.333267
0.317107
0.331051
0.829314
0.859127
0.824761
0.854612
0.35761
0.373978
0.355418
0.371802
0.866522
0.836759
0.863201
0.8334
0.377588
0.361226
0.375969
0.359589
0.774955
0.739662
0.771498
0.736135
0.336915
0.323011
0.33525
0.321322
0.723461
0.723432
0.719898
0.719869
0.316677
0.316662
0.314975
0.31496
0.739575
0.774817
0.736047
0.771358
0.322965
0.336838
0.321275
0.335173
0.836579
0.866314
0.833218
0.862991
0.36112
0.377456
0.359482
0.375835
0.871505
0.841819
0.869257
0.839533
0.380039
0.363712
0.37892
0.362574
0.78023
0.745079
0.777844
0.742624
0.339469
0.325618
0.338298
0.324421
0.728952
0.728923
0.726461
0.726432
0.319307
0.319292
0.318099
0.318084
0.744995
0.780094
0.742539
0.777708
0.325572
0.339394
0.324375
0.338223
0.841644
0.871301
0.839355
0.869051
0.363608
0.379909
0.362469
0.378788
0.874482
0.844881
0.873218
0.843573
0.381559
0.365268
0.380896
0.364585
0.78351
0.748504
0.782099
0.747023
0.341103
0.327307
0.340382
0.326559
0.732452
0.732424
0.730933
0.730904
0.321018
0.321003
0.320259
0.320244
0.748422
0.783379
0.746939
0.781966
0.327262
0.34103
0.326514
0.340308
0.844714
0.874288
0.8434
0.873016
0.365167
0.381433
0.364482
0.380767
0.8756
0.846092
0.875254
0.845697
0.382219
0.365964
0.381979
0.365704
0.784957
0.750105
0.784446
0.749517
0.341893
0.328157
0.341586
0.32782
0.734132
0.734105
0.733504
0.733476
0.321889
0.321875
0.321541
0.321526
0.750025
0.784831
0.749436
0.784318
0.328113
0.341821
0.327776
0.341514
0.845935
0.875416
0.845534
0.875064
0.365866
0.382097
0.365605
0.381854
0.875004
0.845615
0.875482
0.84603
0.382084
0.365866
0.382223
0.365985
0.784727
0.750031
0.785028
0.750258
0.341901
0.328226
0.341974
0.328271
0.734138
0.734111
0.734327
0.7343
0.32198
0.321966
0.322015
0.322001
0.749953
0.784603
0.750179
0.784904
0.328183
0.341831
0.328228
0.341903
0.845462
0.874828
0.845878
0.875306
0.365771
0.381965
0.36589
0.382103
0.87283
0.843574
0.874089
0.844766
0.381214
0.36504
0.381726
0.36553
0.782931
0.748394
0.784012
0.7494
0.341194
0.327585
0.341631
0.327991
0.73258
0.732554
0.733548
0.733522
0.321371
0.321357
0.321763
0.321749
0.748316
0.782806
0.749321
0.783887
0.327542
0.341123
0.327948
0.34156
0.843416
0.872646
0.84461
0.873909
0.364941
0.381091
0.365433
0.381605
0.869148
0.840056
0.87115
0.841971
0.379643
0.363511
0.380498
0.364341
0.779661
0.745284
0.781466
0.747011
0.339796
0.326253
0.340565
0.326989
0.729549
0.729523
0.731237
0.73121
0.320071
0.320057
0.320791
0.320777
0.745208
0.779543
0.746934
0.781345
0.326211
0.339728
0.326946
0.340496
0.839916
0.868988
0.841824
0.870977
0.363421
0.379529
0.364248
0.380378
0.864104
0.835188
0.866786
0.837781
0.37743
0.361344
0.378603
0.362494
0.775003
0.740783
0.777496
0.743198
0.33775
0.324274
0.33884
0.325331
0.725126
0.7251
0.727503
0.727477
0.318125
0.318111
0.319165
0.319151
0.740706
0.774879
0.743122
0.777374
0.324232
0.337681
0.325289
0.338771
0.835027
0.863918
0.837625
0.86661
0.361247
0.37731
0.362398
0.378485
0.857641
0.828937
0.861025
0.832211
0.374565
0.358526
0.376063
0.359998
0.76899
0.734936
0.772155
0.738019
0.335074
0.32167
0.336477
0.323037
0.719362
0.719336
0.722404
0.722378
0.315555
0.315541
0.316905
0.316891
0.734859
0.768868
0.737943
0.772033
0.321629
0.335006
0.322996
0.336408
0.82878
0.857459
0.832055
0.860843
0.35843
0.374446
0.359902
0.375943
0.84977
0.821319
0.853866
0.825281
0.371054
0.355065
0.372876
0.356859
0.761647
0.727776
0.765476
0.731513
0.331781
0.318456
0.333492
0.320127
0.712291
0.712266
0.715983
0.715957
0.312377
0.312364
0.31403
0.314016
0.7277
0.761526
0.731437
0.765354
0.318415
0.331713
0.320086
0.333424
0.821162
0.849588
0.825123
0.853682
0.354971
0.370936
0.356764
0.372757
0.840521
0.812373
0.845299
0.816993
0.366911
0.350979
0.369047
0.353084
0.753006
0.719334
0.75748
0.723708
0.327883
0.314644
0.329895
0.316613
0.703946
0.70392
0.708271
0.708246
0.308605
0.308591
0.310553
0.31054
0.719259
0.752886
0.723633
0.757359
0.314604
0.327816
0.316572
0.329827
0.812218
0.84034
0.816837
0.845117
0.350885
0.366794
0.35299
0.368929
0.829934
0.802137
0.835377
0.807399
0.362151
0.346282
0.364594
0.348691
0.743097
0.709638
0.748202
0.714636
0.323393
0.310246
0.3257
0.312507
0.694352
0.694327
0.699299
0.699273
0.304248
0.304235
0.306488
0.306474
0.709564
0.742979
0.714562
0.748083
0.310206
0.323327
0.312466
0.325633
0.801984
0.829756
0.807244
0.835197
0.346189
0.362036
0.348598
0.364477
0.818039
0.790638
0.824133
0.796528
0.356788
0.340986
0.359531
0.343693
0.731946
0.698709
0.73767
0.704321
0.318322
0.305271
0.320918
0.307819
0.683531
0.683506
0.689089
0.689064
0.299317
0.299304
0.301843
0.30183
0.698636
0.731829
0.704248
0.737552
0.305232
0.318256
0.30778
0.320852
0.790486
0.817863
0.796375
0.823956
0.340894
0.356673
0.343601
0.359416
0.804857
0.777894
0.811592
0.784405
0.35083
0.335099
0.35387
0.338101
0.719569
0.686564
0.725903
0.692783
0.312675
0.299726
0.315559
0.302559
0.671497
0.671473
0.67766
0.677636
0.293816
0.293803
0.296627
0.296613
0.686492
0.719453
0.69271
0.725787
0.299687
0.312611
0.302519
0.315493
0.777744
0.804683
0.784253
0.811416
0.335009
0.350717
0.33801
0.353756
0.790409
0.763922
0.797775
0.771046
0.344285
0.32863
0.347618
0.331923
0.705977
0.673213
0.712918
0.680034
0.306459
0.293614
0.309628
0.29673
0.65826
0.658236
0.665024
0.665
0.28775
0.287737
0.290843
0.29083
0.673141
0.705862
0.679962
0.712803
0.293575
0.306395
0.296691
0.309563
0.763774
0.790237
0.770896
0.797601
0.32854
0.344173
0.331833
0.347505
0.774715
0.748734
0.782702
0.756464
0.337159
0.321579
0.340782
0.325163
0.69118
0.65866
0.698723
0.666082
0.299676
0.286938
0.303128
0.290336
0.643824
0.6438
0.651188
0.651163
0.28112
0.281107
0.284495
0.284482
0.658589
0.691066
0.66601
0.698609
0.286899
0.299612
0.290297
0.303064
0.748587
0.774544
0.756316
0.78253
0.32149
0.337048
0.325074
0.34067
0.757792
0.732339
0.766391
0.740672
0.329458
0.313957
0.333367
0.317824
0.675181
0.642906
0.683325
0.650929
0.292327
0.279696
0.296061
0.283377
0.628187
0.628163
0.636152
0.636128
0.273925
0.273913
0.277583
0.27757
0.642836
0.675068
0.650858
0.683211
0.279658
0.292264
0.283339
0.295998
0.732193
0.757623
0.740525
0.76622
0.31387
0.329349
0.317736
0.333258
0.73966
0.714745
0.748862
0.723677
0.321189
0.305774
0.325383
0.309923
0.65798
0.625947
0.666725
0.634574
0.284412
0.271887
0.28843
0.275853
0.611343
0.61132
0.619913
0.619889
0.266163
0.26615
0.270106
0.270093
0.625877
0.657868
0.634503
0.666613
0.271849
0.28435
0.275815
0.288368
0.7146
0.739492
0.723532
0.748693
0.305687
0.321081
0.309837
0.325274
0.72033
0.695951
0.73013
0.705484
0.312349
0.29702
0.316829
0.301456
0.639567
0.607767
0.64892
0.617007
0.275926
0.263504
0.280232
0.267759
0.593275
0.593251
0.60246
0.602436
0.257826
0.257813
0.262058
0.262045
0.607697
0.639456
0.616937
0.648809
0.263467
0.275865
0.267721
0.28017
0.695807
0.720163
0.70534
0.729963
0.296935
0.312243
0.30137
0.316722
0.699812
0.675954
0.710205
0.686089
0.302936
0.287696
0.307703
0.292417
0.619929
0.588342
0.629897
0.598208
0.266861
0.254535
0.271457
0.259085
0.573952
0.573928
0.583769
0.583745
0.248901
0.248888
0.253429
0.253416
0.588272
0.619818
0.598139
0.629786
0.254498
0.2668
0.259047
0.271396
0.675811
0.699647
0.685946
0.710039
0.287612
0.302831
0.292332
0.307598
0.678132
0.654759
0.689101
0.665491
0.292947
0.277806
0.298003
0.282809
0.599044
0.567626
0.609639
0.578146
0.257205
0.24496
0.262099
0.249817
0.553315
0.553291
0.563799
0.563776
0.239361
0.239349
0.244201
0.244189
0.567557
0.598934
0.578076
0.609529
0.244924
0.257145
0.24978
0.262038
0.654618
0.677968
0.665349
0.688937
0.277723
0.292844
0.282726
0.297898
0.655377
0.632407
0.666864
0.643709
0.282403
0.267372
0.287731
0.272643
0.576877
0.545525
0.58812
0.556755
0.246941
0.234736
0.252142
0.239925
0.531239
0.531215
0.542465
0.542442
0.229155
0.229143
0.234338
0.234326
0.545456
0.576768
0.556686
0.58801
0.2347
0.246881
0.239889
0.252082
0.632266
0.655215
0.643568
0.666701
0.26729
0.282301
0.27256
0.287628
0.631919
0.609016
0.643675
0.620818
0.271433
0.256478
0.276943
0.261964
0.55331
0.521799
0.565281
0.533887
0.236018
0.223762
0.24156
0.229346
0.507448
0.507425
0.51958
0.519557
0.218164
0.218152
0.22376
0.223748
0.521731
0.553202
0.533819
0.565173
0.223726
0.23596
0.22931
0.241501
0.608877
0.631759
0.620679
0.643514
0.256398
0.271333
0.261883
0.276842
0.609399
0.584508
0.620295
0.596941
0.260705
0.245203
0.265934
0.250889
0.527712
0.495825
0.540851
0.509152
0.224185
0.211781
0.230243
0.217914
0.481403
0.48138
0.494747
0.494724
0.206171
0.206159
0.212301
0.212289
0.495759
0.527606
0.509085
0.540744
0.211746
0.224128
0.217879
0.230186
0.584372
0.609242
0.596804
0.620136
0.245125
0.260608
0.25081
0.265836
0.596517
0.553886
0.600583
0.571051
0.251983
0.231074
0.256103
0.239015
0.497322
0.46644
0.513429
0.481622
0.210329
0.198367
0.217628
0.205264
0.45249
0.452468
0.467318
0.467295
0.19299
0.192978
0.199718
0.199707
0.466375
0.497219
0.481556
0.513324
0.198334
0.210274
0.20523
0.217572
0.553754
0.596362
0.570916
0.600427
0.230999
0.25189
0.238938
0.256008
0.559096
0.519429
0.483742
0.451061
0.462963
0.426746
0.388943
0.360666
0.443387
0.396099
0.378032
0.333564
0.354497
0.311055
0.29251
0.252441
0.37365
0.373533
0.312812
0.31269
0.290903
0.2908
0.234221
0.234116
0.395757
0.44285
0.333202
0.377456
0.310752
0.354014
0.252128
0.292002
0.518759
0.55835
0.450329
0.482915
0.426132
0.462271
0.360008
0.388189
0.683334
0.64153
0.62451
0.583082
0.577151
0.538511
0.523727
0.485533
0.563832
0.51492
0.505516
0.456947
0.464138
0.418758
0.411479
0.366565
0.491438
0.491339
0.433736
0.433628
0.397408
0.397319
0.345551
0.345455
0.514632
0.563385
0.456632
0.505025
0.418496
0.463724
0.366281
0.41103
0.640976
0.682723
0.582472
0.623834
0.53799
0.576569
0.484966
0.523091
0.788343
0.746543
0.737776
0.69591
0.671594
0.632767
0.626211
0.587422
0.669508
0.620795
0.618462
0.569572
0.558639
0.513222
0.513088
0.467609
0.597304
0.597221
0.546036
0.545946
0.491742
0.491666
0.446145
0.446062
0.620555
0.669136
0.569309
0.618055
0.512998
0.558288
0.467368
0.512708
0.746085
0.787838
0.695406
0.737221
0.632326
0.671101
0.586944
0.625676
0.878516
0.83705
0.835143
0.793496
0.752264
0.713562
0.713491
0.674709
0.761048
0.712878
0.716975
0.66852
0.64006
0.594951
0.600887
0.555609
0.689597
0.689527
0.645123
0.645047
0.573567
0.573501
0.534165
0.534094
0.712675
0.760734
0.6683
0.716634
0.594758
0.639757
0.555402
0.600562
0.836664
0.878092
0.793076
0.834681
0.713183
0.75184
0.674301
0.713034
0.955508
0.91445
0.918537
0.877276
0.820995
0.782514
0.788002
0.749407
0.839508
0.79194
0.801821
0.753955
0.709696
0.664971
0.676256
0.631339
0.76892
0.768859
0.730802
0.730738
0.643746
0.643688
0.610031
0.609969
0.791764
0.839238
0.753766
0.80153
0.664802
0.709431
0.631159
0.675974
0.914118
0.955143
0.876919
0.918144
0.782181
0.820623
0.749052
0.787605
1.02083
0.980178
0.989501
0.948653
0.879248
0.841014
0.851313
0.812957
0.906234
0.859249
0.874234
0.826965
0.768865
0.724531
0.74049
0.695964
0.836494
0.836441
0.804079
0.804022
0.703479
0.703427
0.674826
0.674771
0.859095
0.905996
0.826801
0.87398
0.72438
0.768628
0.695804
0.740239
0.979887
1.02051
0.948343
0.989159
0.840716
0.878915
0.812643
0.850962
1.07595
1.03568
1.04954
1.00909
0.928391
0.890402
0.90485
0.866743
0.962645
0.916206
0.935631
0.888928
0.818882
0.774921
0.794926
0.750785
0.893702
0.893654
0.866301
0.866251
0.754041
0.753994
0.72982
0.729771
0.916068
0.962432
0.888782
0.935406
0.774784
0.818666
0.750641
0.7947
1.03542
1.07566
1.00882
1.04924
0.890132
0.928088
0.866459
0.904533
1.12223
1.08231
1.10009
1.06
0.969672
0.931914
0.949919
0.91205
1.0101
0.964159
0.987404
0.941224
0.860972
0.817361
0.840837
0.797057
0.941889
0.941845
0.91884
0.918794
0.796643
0.7966
0.77626
0.776215
0.964033
1.0099
0.941092
0.987201
0.817234
0.860772
0.796925
0.84063
1.08207
1.12197
1.05975
1.09981
0.931664
0.969393
0.911791
0.949628
1.16084
1.12123
1.1424
1.10264
1.00414
0.966596
0.987671
0.950024
1.04977
1.00429
1.03083
0.985126
0.896186
0.852899
0.879366
0.835924
0.98223
0.98219
0.962966
0.962925
0.832335
0.832294
0.815285
0.815243
1.00417
1.04959
0.985005
1.03064
0.852781
0.896
0.835801
0.879174
1.12101
1.1606
1.10241
1.14215
0.966363
1.00388
0.949783
0.987401
1.19284
1.1535
1.17758
1.13812
1.03274
0.995386
1.0191
0.981655
1.08271
1.03764
1.06701
1.02175
0.925463
0.882476
0.911505
0.868374
1.01578
1.01575
0.999793
0.999754
0.862054
0.862015
0.847883
0.847843
1.03753
1.08254
1.02163
1.06684
0.882364
0.925287
0.868259
0.911325
1.1533
1.19261
1.13791
1.17735
0.995166
1.0325
0.981428
1.01885
1.21907
1.17998
1.20659
1.16739
1.05624
1.01906
1.04506
1.00779
1.1098
1.06511
1.09693
1.05206
0.94958
0.906871
0.938112
0.895269
1.04344
1.0434
1.03029
1.03026
0.886581
0.886544
0.874915
0.874878
1.06501
1.10964
1.05195
1.09677
0.906764
0.949413
0.89516
0.937941
1.17979
1.21886
1.16719
1.20638
1.01885
1.05601
1.00758
1.04482
1.24029
1.20142
1.23024
1.19127
1.07531
1.03827
1.06627
1.02916
1.1318
1.08746
1.12139
1.07688
0.969211
0.92676
0.959911
0.917336
1.06596
1.06592
1.05529
1.05526
0.906594
0.906559
0.89711
0.897074
1.08737
1.13165
1.07678
1.12124
0.926658
0.969051
0.917232
0.959748
1.20124
1.24009
1.19108
1.23003
1.03807
1.07508
1.02896
1.06604
1.25711
1.21844
1.24919
1.21043
1.09048
1.05358
1.08332
1.04636
1.14934
1.10532
1.14109
1.09692
0.984905
0.942697
0.97751
0.935185
1.08397
1.08394
1.07549
1.07545
0.922648
0.922614
0.915079
0.915045
1.10523
1.14919
1.09682
1.14094
0.942598
0.984751
0.935085
0.977353
1.21827
1.25692
1.21025
1.24899
1.05339
1.09026
1.04617
1.0831
1.27005
1.23157
1.26401
1.22544
1.10222
1.06545
1.09672
1.0599
1.16294
1.11923
1.1566
1.11274
0.997136
0.955156
0.991419
0.94933
1.09802
1.09799
1.09146
1.09143
0.935218
0.935186
0.929337
0.929304
1.11914
1.16281
1.11265
1.15646
0.955061
0.996987
0.949233
0.991268
1.23141
1.26987
1.22527
1.26382
1.06526
1.10201
1.05971
1.09651
1.27953
1.24123
1.27517
1.23679
1.11089
1.07426
1.10689
1.07019
1.17306
1.12963
1.16841
1.12484
1.00629
0.964526
1.00207
0.960201
1.10856
1.10853
1.10371
1.10368
0.944695
0.944663
0.940318
0.940286
1.12954
1.17292
1.12475
1.16827
0.964433
1.00614
0.960107
1.00192
1.24107
1.27935
1.23662
1.27499
1.07407
1.11069
1.07001
1.10668
1.28591
1.24779
1.28306
1.24486
1.11682
1.08031
1.11416
1.07759
1.18004
1.13688
1.17691
1.13363
1.01267
0.971128
1.0098
0.968151
1.11595
1.11592
1.11263
1.1126
0.951401
0.95137
0.948373
0.948341
1.1368
1.17991
1.13354
1.17678
0.971038
1.01253
0.968059
1.00966
1.24763
1.28574
1.2447
1.28289
1.08013
1.11662
1.07741
1.11396
1.28946
1.25152
1.288
1.24997
1.12025
1.08387
1.11881
1.08237
1.18419
1.1413
1.18244
1.13943
1.01656
0.975229
1.01491
0.973473
1.1205
1.12047
1.11856
1.11853
0.955606
0.955575
0.953798
0.953768
1.14122
1.18406
1.13935
1.18232
0.975141
1.01643
0.973383
1.01477
1.25137
1.2893
1.24981
1.28783
1.0837
1.12006
1.08219
1.11862
1.29043
1.25267
1.29023
1.25239
1.12137
1.08514
1.12107
1.08476
1.18575
1.14313
1.18527
1.14252
1.01816
0.977043
1.01763
0.976406
1.12245
1.12243
1.12178
1.12176
0.957525
0.957496
0.956836
0.956806
1.14305
1.18563
1.14244
1.18515
0.976957
1.01803
0.976319
1.0175
1.25253
1.29027
1.25224
1.29007
1.08497
1.12119
1.08459
1.12088
1.28901
1.25146
1.28999
1.25233
1.12037
1.0843
1.12111
1.08495
1.18495
1.14259
1.18563
1.14314
1.01767
0.976764
1.01816
0.977146
1.12204
1.12201
1.12253
1.1225
0.957352
0.957323
0.957682
0.957653
1.14251
1.18483
1.14306
1.18551
0.97668
1.01754
0.977061
1.01802
1.25132
1.28886
1.25219
1.28983
1.08413
1.12019
1.08479
1.12093
1.28535
1.24803
1.28743
1.24999
1.11734
1.08147
1.11907
1.08309
1.18192
1.13983
1.18369
1.14147
1.0152
0.974523
1.01666
0.975877
1.11941
1.11938
1.12099
1.12096
0.955222
0.955193
0.956523
0.956494
1.13975
1.1818
1.14139
1.18358
0.97444
1.01507
0.975794
1.01653
1.24789
1.2852
1.24985
1.28727
1.08131
1.11717
1.08293
1.11889
1.27962
1.24253
1.28271
1.24551
1.11252
1.07685
1.11513
1.07936
1.17683
1.13499
1.17962
1.13766
1.01091
0.970453
1.01327
0.972707
1.11471
1.11468
1.11731
1.11728
0.951259
0.951231
0.95346
0.953431
1.13492
1.17671
1.13758
1.1795
0.970371
1.01079
0.972625
1.01314
1.2424
1.27947
1.24537
1.28256
1.07669
1.11235
1.0792
1.11496
1.27189
1.23507
1.27597
1.23902
1.10593
1.07049
1.10942
1.07386
1.16977
1.1282
1.17353
1.13183
1.00489
0.964645
1.00811
0.967758
1.10804
1.10801
1.11161
1.11158
0.945559
0.945531
0.948619
0.948591
1.12812
1.16966
1.13176
1.17342
0.964564
1.00476
0.967677
1.00798
1.23494
1.27174
1.23888
1.27582
1.07033
1.10576
1.0737
1.10924
1.26223
1.22571
1.26727
1.2306
1.09763
1.06245
1.10197
1.06666
1.16082
1.11951
1.16552
1.12409
0.99718
0.957164
1.00123
0.961108
1.09948
1.09946
1.10399
1.10397
0.938189
0.938161
0.942077
0.942049
1.11944
1.1607
1.12401
1.16541
0.957083
0.997054
0.961027
1.00111
1.22558
1.26208
1.23047
1.26712
1.06229
1.09746
1.0665
1.1018
1.25066
1.21448
1.25666
1.22031
1.0876
1.05273
1.09281
1.05777
1.15002
1.10899
1.15564
1.11448
0.987826
0.948052
0.992701
0.952806
1.0891
1.08908
1.09452
1.09449
0.929196
0.929168
0.93389
0.933862
1.10892
1.14991
1.1144
1.15553
0.947972
0.987701
0.952726
0.992576
1.21435
1.25051
1.22017
1.25651
1.05257
1.08743
1.05762
1.09263
1.23722
1.20143
1.24415
1.20816
1.07588
1.04136
1.08193
1.04723
1.13742
1.09669
1.14394
1.10306
0.976864
0.937349
0.982538
0.942894
1.07694
1.07691
1.08324
1.08322
0.91862
0.918593
0.924101
0.924073
1.09661
1.13731
1.10299
1.14383
0.93727
0.97674
0.942814
0.982414
1.2013
1.23708
1.20803
1.244
1.04121
1.07571
1.04707
1.08176
1.22197
1.1866
1.22979
1.19421
1.06252
1.0284
1.06938
1.03506
1.12306
1.08263
1.13045
1.08987
0.964331
0.92509
0.970786
0.931409
1.06303
1.06301
1.0702
1.07018
0.906495
0.906468
0.912746
0.912719
1.08256
1.12295
1.0898
1.13034
0.925012
0.96421
0.931331
0.970664
1.18647
1.22183
1.19408
1.22965
1.02825
1.06235
1.03491
1.06921
1.20493
1.17003
1.21365
1.17851
1.04755
1.01389
1.05521
1.02132
1.10697
1.06685
1.11522
1.07495
0.950259
0.911303
0.957481
0.918384
1.04741
1.04739
1.05543
1.05541
0.892846
0.89282
0.899857
0.899831
1.06678
1.10686
1.07488
1.11512
0.911226
0.950139
0.918306
0.95736
1.1699
1.20479
1.17838
1.21351
1.01374
1.04739
1.02117
1.05505
1.18614
1.15175
1.19573
1.16108
1.03101
0.997833
1.03945
1.00603
1.08918
1.04938
1.09828
1.05833
0.934667
0.896005
0.942647
0.903839
1.03009
1.03007
1.03896
1.03894
0.877692
0.877666
0.885454
0.885428
1.04931
1.08907
1.05826
1.09817
0.895929
0.934548
0.903763
0.942527
1.15162
1.18601
1.16095
1.19559
0.997686
1.03084
1.00588
1.03929
1.16563
1.13177
1.17608
1.14195
1.01291
0.980263
1.02213
0.989218
1.06969
1.03022
1.07964
1.04001
0.917569
0.879208
0.926301
0.887791
1.01109
1.01106
1.0208
1.02078
0.861041
0.861015
0.869551
0.869525
1.03015
1.06959
1.03994
1.07954
0.879132
0.917451
0.887715
0.926182
1.13164
1.1655
1.14182
1.17594
0.980117
1.01275
0.989071
1.02197
1.14342
1.11011
1.15471
1.12113
0.993282
0.961192
1.00327
0.970895
1.04853
1.00937
1.05932
1.02
0.898973
0.860915
0.908453
0.870246
0.990398
0.990374
1.00095
1.00093
0.842895
0.842869
0.852152
0.852126
1.0093
1.04842
1.01993
1.05921
0.86084
0.898856
0.87017
0.908335
1.10998
1.14328
1.121
1.15458
0.961046
0.993119
0.970749
1.0031
1.11953
1.08678
1.13166
1.09863
0.972142
0.940627
0.982879
0.951076
1.02568
0.986832
1.03731
0.998311
0.878881
0.841123
0.889109
0.851204
0.968013
0.967989
0.979418
0.979394
0.823249
0.823224
0.833258
0.833232
0.986763
1.02557
0.998242
1.0372
0.841048
0.878764
0.851129
0.888992
1.08665
1.11939
1.0985
1.13152
0.940482
0.97198
0.950931
0.982716
1.09397
1.06179
1.10693
1.07447
0.949512
0.918574
0.960993
0.929768
1.00114
0.962589
1.01362
0.974923
0.857288
0.819822
0.868268
0.83066
0.943916
0.943892
0.956179
0.956155
0.80209
0.802064
0.812858
0.812832
0.96252
1.00104
0.974854
1.01351
0.819747
0.857172
0.830585
0.868152
1.06167
1.09383
1.07435
1.1068
0.918431
0.949351
0.929624
0.960831
1.06676
1.03513
1.08055
1.04865
0.925404
0.895035
0.937623
0.906973
0.974897
0.936613
0.98823
0.949818
0.834181
0.796989
0.845921
0.808596
0.918073
0.918049
0.931214
0.93119
0.779389
0.779364
0.790932
0.790906
0.936545
0.974793
0.94975
0.988126
0.796914
0.834065
0.808522
0.845805
1.03501
1.06663
1.04853
1.08041
0.894892
0.925244
0.906829
0.937462
1.03792
1.00681
1.05252
1.02116
0.899835
0.870008
0.912781
0.882689
0.946925
0.908864
0.961125
0.922962
0.809539
0.772587
0.822049
0.784984
0.890433
0.890409
0.904481
0.904457
0.755104
0.755078
0.767446
0.76742
0.908795
0.94682
0.922893
0.96102
0.772513
0.809423
0.78491
0.821933
1.00669
1.03779
1.02103
1.05239
0.869865
0.899676
0.882547
0.912621
1.00753
0.976851
1.02289
0.992013
0.872854
0.843507
0.886497
0.856922
0.917197
0.879272
0.932279
0.894303
0.783333
0.746555
0.796629
0.759778
0.860904
0.86088
0.875912
0.875888
0.729152
0.729127
0.742341
0.742316
0.879203
0.917092
0.894234
0.932174
0.746481
0.783218
0.759703
0.796514
0.976727
1.00739
0.991889
1.02276
0.843365
0.872696
0.856779
0.886338
0.975769
0.945347
0.991775
0.961263
0.844616
0.815597
0.858856
0.829703
0.885672
0.847697
0.90166
0.863745
0.75552
0.718767
0.769628
0.73289
0.829299
0.829274
0.845378
0.845353
0.701371
0.701345
0.715504
0.715478
0.847628
0.885566
0.863676
0.901555
0.718693
0.755405
0.732816
0.769513
0.945222
0.975634
0.961139
0.991639
0.815455
0.844458
0.829561
0.858697
0.943315
0.912532
0.959529
0.929065
0.815665
0.786457
0.830145
0.80115
0.852206
0.813806
0.869199
0.831075
0.725957
0.688924
0.740973
0.704131
0.795215
0.795191
0.812603
0.812579
0.671406
0.67138
0.686692
0.686667
0.813736
0.8521
0.831005
0.869093
0.68885
0.725843
0.704058
0.740859
0.912406
0.943179
0.92894
0.959393
0.786316
0.815507
0.801008
0.829987
0.912713
0.878502
0.927418
0.895693
0.78818
0.756064
0.801421
0.771451
0.816044
0.776757
0.834567
0.795758
0.693918
0.656268
0.710345
0.67302
0.757875
0.757851
0.777014
0.77699
0.638577
0.638552
0.655402
0.655376
0.776687
0.815938
0.795688
0.83446
0.656195
0.693805
0.672947
0.710231
0.878376
0.912577
0.895567
0.927281
0.755925
0.788024
0.77131
0.801263
0.896159
0.837822
0.901046
0.860234
0.773202
0.719105
0.777612
0.73959
0.773924
0.734967
0.796107
0.756552
0.656357
0.619402
0.676175
0.638441
0.716296
0.716271
0.737654
0.737629
0.602063
0.602038
0.620807
0.620782
0.734897
0.773818
0.756482
0.796001
0.61933
0.656246
0.638369
0.676062
0.837697
0.896027
0.860109
0.900911
0.718967
0.773048
0.739451
0.777456
0.714773
0.672864
0.639065
0.603349
0.641637
0.600418
0.565904
0.531179
0.595056
0.545186
0.527059
0.478905
0.522962
0.473875
0.455875
0.409016
0.520974
0.520845
0.455857
0.455717
0.450247
0.450122
0.386807
0.386674
0.544812
0.594477
0.478498
0.526424
0.473511
0.522396
0.408625
0.45526
0.672155
0.713994
0.602559
0.638183
0.59972
0.640865
0.530407
0.565038
0.848453
0.804995
0.784237
0.740931
0.771724
0.728684
0.709617
0.666837
0.726437
0.675682
0.662123
0.611428
0.650063
0.599734
0.588142
0.538009
0.650849
0.650744
0.586708
0.58659
0.575283
0.575179
0.513748
0.513634
0.675378
0.725972
0.611089
0.661603
0.599434
0.649601
0.537678
0.587629
0.804431
0.847838
0.740297
0.783543
0.728119
0.771104
0.666208
0.708924
0.965316
0.922239
0.908768
0.865446
0.883718
0.840886
0.829654
0.786656
0.845012
0.794907
0.787488
0.736992
0.763297
0.713409
0.708479
0.658299
0.770306
0.770221
0.712233
0.712138
0.689075
0.68899
0.63386
0.633766
0.794662
0.84464
0.736719
0.787072
0.713164
0.762921
0.658028
0.708063
0.921791
0.964829
0.864943
0.90822
0.840428
0.883217
0.786148
0.829096
1.06696
1.02455
1.01797
0.975215
0.980507
0.938188
0.933906
0.891318
0.948956
0.89979
0.898813
0.84917
0.861968
0.812839
0.814417
0.764898
0.875605
0.875535
0.824769
0.824692
0.788825
0.788754
0.740714
0.740637
0.899591
0.948653
0.848949
0.898478
0.812636
0.861657
0.764675
0.814075
1.02419
1.06657
0.974813
1.01753
0.93781
0.980094
0.890903
0.933452
1.15427
1.11255
1.1123
1.07024
1.06338
1.02163
1.02356
0.981533
1.03856
0.990349
0.995478
0.9468
0.946768
0.898434
0.906018
0.857292
0.966605
0.966547
0.922837
0.922773
0.874779
0.874719
0.833458
0.833393
0.990183
1.03831
0.946618
0.995203
0.898262
0.946504
0.857105
0.905732
1.11225
1.15395
1.06991
1.11195
1.02131
1.06303
0.981186
1.02318
1.22856
1.1875
1.19291
1.15154
1.13377
1.09257
1.1
1.05854
1.11497
1.06766
1.07831
1.03057
1.01897
0.971397
0.984339
0.936395
1.04434
1.04429
1.00704
1.00698
0.948091
0.948039
0.912918
0.912862
1.06752
1.11476
1.03041
1.07808
0.971248
1.01875
0.936235
0.984095
1.18725
1.22828
1.15126
1.19261
1.0923
1.13348
1.05824
1.09968
1.29131
1.25086
1.26125
1.22051
1.1932
1.15251
1.16473
1.1238
1.17965
1.13315
1.14868
1.10179
1.08005
1.03316
1.0508
1.00358
1.11022
1.11018
1.07866
1.07862
1.01018