/*--------------------------------*- C++ -*----------------------------------*\
  =========                 |
  \\      /  F ield         | OpenFOAM: The Open Source CFD Toolbox
   \\    /   O peration     | Website:  https://openfoam.org
    \\  /    A nd           | Version:  9
     \\/     M anipulation  |
\*---------------------------------------------------------------------------*/
FoamFile
{
    format      ascii;
    class       volScalarField;
    location    "5";
    object      nut;
}
// * * * * * * * * * * * * * * * * * * * * * * * * * * * * * * * * * * * * * //

dimensions      [0 2 -1 0 0 0 0];

internalField   nonuniform List<scalar> 
36360
(
0.00932488
0.00912264
0.00821934
0.00809138
0.00104637
0.00100396
0.000829932
0.000861529
0.00864149
0.00851002
0.0076025
0.00749843
0.000898828
0.000830263
0.000739064
0.000664045
0.00851694
0.00851537
0.00753946
0.00753798
0.000798911
0.000798731
0.000632468
0.000632278
0.00850478
0.00863185
0.00749314
0.00759213
0.000829729
0.000897989
0.000663462
0.000738113
0.00910863
0.00930615
0.00807588
0.00819814
0.00100291
0.00104512
0.00086033
0.000828504
0.0108392
0.0107243
0.0101259
0.00996814
0.00123032
0.00117807
0.00115256
0.00110023
0.0103067
0.0101405
0.00951743
0.0093629
0.00108528
0.0010263
0.00100172
0.000938336
0.0100995
0.010098
0.00934081
0.00933925
0.000998624
0.000998484
0.000908802
0.000908643
0.0101358
0.0102986
0.00935791
0.00950858
0.00102589
0.00108464
0.00093787
0.001001
0.0107127
0.0108238
0.00995546
0.0101091
0.00117726
0.00122937
0.00109932
0.00115148
0.0120936
0.0120217
0.0114922
0.0114026
0.00135348
0.00130289
0.00129592
0.00124449
0.0116478
0.0114745
0.0110097
0.0108377
0.00121892
0.00116641
0.00115656
0.00110115
0.0114132
0.0114119
0.0107841
0.0107827
0.00114164
0.00114153
0.00107506
0.00107493
0.0114705
0.0116409
0.0108334
0.0110023
0.00116608
0.00121841
0.00110078
0.00115599
0.0120118
0.0120804
0.011392
0.0114781
0.00130223
0.00135272
0.00124377
0.00129507
0.0131312
0.0130854
0.0126357
0.0125779
0.0014497
0.00140084
0.00140431
0.00135457
0.0127365
0.0125647
0.0122176
0.0120443
0.00132271
0.00127446
0.00127381
0.00122364
0.0124954
0.0124942
0.0119778
0.0119766
0.00125171
0.00125161
0.00119996
0.00119986
0.0125612
0.0127305
0.0120406
0.0122112
0.0012742
0.00132228
0.00122334
0.00127335
0.0130769
0.0131197
0.0125687
0.0126234
0.00140029
0.00144905
0.00135398
0.0014036
0.0139828
0.0139559
0.0135761
0.0135402
0.00152657
0.00147936
0.00149017
0.00144215
0.0136238
0.013456
0.0132002
0.0130301
0.0014053
0.00136004
0.00136622
0.00131959
0.0133843
0.0133833
0.012959
0.0129579
0.00133872
0.00133864
0.00129761
0.00129752
0.0134528
0.0136185
0.0130268
0.0131946
0.00135981
0.00140493
0.00131934
0.00136583
0.0139482
0.0139724
0.0135321
0.0135651
0.00147889
0.001526
0.00144164
0.00148956
0.0146818
0.0146697
0.0143475
0.0143283
0.00158865
0.0015429
0.00155917
0.00151272
0.01435
0.0141864
0.0140027
0.0138369
0.00147185
0.00142879
0.00144027
0.00139618
0.014115
0.0141141
0.013765
0.013764
0.00140855
0.00140848
0.00137545
0.00137537
0.0141836
0.0143452
0.0138339
0.0139976
0.00142859
0.00147153
0.00139597
0.00143993
0.0146627
0.0146723
0.014321
0.0143376
0.00154248
0.00158815
0.00151228
0.00155864
0.0152569
0.0152565
0.0149815
0.0149755
0.00163914
0.00159464
0.00161513
0.00157003
0.0149467
0.0147868
0.0146608
0.014499
0.00152591
0.00148453
0.00150021
0.00145805
0.0147165
0.0147156
0.0144281
0.0144272
0.00146511
0.00146504
0.00143823
0.00143817
0.0147842
0.0149423
0.0144963
0.0146562
0.00148435
0.00152562
0.00145786
0.00149991
0.0152501
0.015248
0.0149688
0.0149723
0.00159426
0.00163869
0.00156963
0.00161465
0.0157309
0.0157401
0.0155036
0.0155081
0.0016804
0.00163695
0.00166076
0.0016168
0.0154385
0.0152818
0.0152024
0.0150441
0.00157004
0.00152997
0.00154903
0.00150836
0.015212
0.0152112
0.014974
0.0149731
0.00151122
0.00151116
0.00148928
0.00148922
0.0152793
0.0154343
0.0150416
0.0151982
0.00152981
0.00156977
0.00150818
0.00154876
0.0157341
0.0157226
0.0155019
0.015495
0.0016366
0.00167998
0.00161644
0.00166032
0.0161216
0.0161386
0.0159341
0.0159472
0.00171415
0.00167156
0.00169807
0.00165507
0.0158437
0.0156898
0.015649
0.0154936
0.00160612
0.0015671
0.00158894
0.00154943
0.0156207
0.01562
0.0154241
0.0154234
0.00154888
0.00154883
0.00153095
0.0015309
0.0156875
0.0158398
0.0154913
0.015645
0.00156695
0.00160587
0.00154927
0.00158868
0.0161329
0.0161136
0.0159414
0.0159259
0.00167124
0.00171375
0.00165473
0.00169767
0.0164429
0.0164665
0.0162885
0.0163089
0.00174172
0.00169986
0.00172859
0.00168638
0.0161772
0.0160257
0.0160168
0.015864
0.00163561
0.00159743
0.00162157
0.00158299
0.0159573
0.0159565
0.0157952
0.0157945
0.00157965
0.0015796
0.001565
0.00156495
0.0160235
0.0161735
0.0158618
0.016013
0.00159729
0.00163538
0.00158284
0.00162133
0.016461
0.0164353
0.0163033
0.0162807
0.00169955
0.00174135
0.00168607
0.00172821
0.0167059
0.0167348
0.0165795
0.0166057
0.00176415
0.00172289
0.00175348
0.00171193
0.0164503
0.0163008
0.0163189
0.0161683
0.00165961
0.00162212
0.0016482
0.00161038
0.016233
0.0162323
0.0161001
0.0160994
0.00160469
0.00160464
0.00159278
0.00159273
0.0162987
0.0164467
0.0161661
0.0163152
0.00162198
0.00165939
0.00161024
0.00164797
0.0167295
0.0166985
0.0166004
0.016572
0.00172259
0.0017638
0.00171163
0.00175312
0.0169194
0.0169527
0.0168168
0.0168479
0.00178224
0.00174147
0.00177366
0.00173265
0.0166722
0.0165245
0.0165654
0.0164167
0.001679
0.00164207
0.0016698
0.0016326
0.0164573
0.0164567
0.0163492
0.0163485
0.00162493
0.00162489
0.00161532
0.00161528
0.0165225
0.0166687
0.0164146
0.0165619
0.00164194
0.00167879
0.00163247
0.00166958
0.0169475
0.0169122
0.0168427
0.0168095
0.00174119
0.0017819
0.00173236
0.00177331
0.0170904
0.0171271
0.0170083
0.0170432
0.00179662
0.00175626
0.00178982
0.00174926
0.0168501
0.016704
0.0167645
0.0166175
0.00169445
0.00165799
0.00168714
0.00165046
0.0166374
0.0166367
0.0165506
0.0165499
0.00164109
0.00164105
0.00163345
0.0016334
0.016702
0.0168468
0.0166155
0.0167611
0.00165787
0.00169425
0.00165033
0.00168693
0.0171222
0.0170833
0.0170382
0.0170011
0.00175598
0.00179629
0.00174898
0.00178948
0.0172244
0.0172641
0.0171601
0.0171983
0.0018078
0.00176776
0.00180254
0.00176235
0.01699
0.0168452
0.0169227
0.0167772
0.00170651
0.00167044
0.00170084
0.00166459
0.0167791
0.0167785
0.0167108
0.0167102
0.00165374
0.0016537
0.00164779
0.00164774
0.0168433
0.0169867
0.0167753
0.0169194
0.00167032
0.00170632
0.00166446
0.00170064
0.0172592
0.0172175
0.0171934
0.0171532
0.0017675
0.00180747
0.00176208
0.00180221
0.0173259
0.0173679
0.0172774
0.0173182
0.00181616
0.0017764
0.00181227
0.00177238
0.0170963
0.0169528
0.0170453
0.0169012
0.00171562
0.00167987
0.00171138
0.00167547
0.0168873
0.0168866
0.0168353
0.0168346
0.00166333
0.00166328
0.00165886
0.00165881
0.0169509
0.017093
0.0168992
0.017042
0.00167975
0.00171542
0.00167535
0.00171118
0.0173632
0.0173191
0.0173134
0.0172706
0.00177614
0.00181585
0.00177211
0.00181195
0.0173985
0.0174424
0.0173641
0.017407
0.00182204
0.0017825
0.00181936
0.00177971
0.0171728
0.0170303
0.0171363
0.0169933
0.0017221
0.00168662
0.00171913
0.00168352
0.0169655
0.0169649
0.016928
0.0169274
0.00167021
0.00167017
0.00166705
0.00166701
0.0170285
0.0171696
0.0169914
0.0171331
0.0016865
0.00172191
0.00168341
0.00171894
0.0174377
0.0173918
0.0174023
0.0173573
0.00178224
0.00182173
0.00177945
0.00181905
0.017445
0.0174906
0.0174233
0.017468
0.00182568
0.0017863
0.00182409
0.00178463
0.0172225
0.017081
0.0171991
0.0170571
0.00172623
0.00169098
0.00172441
0.00168905
0.0170169
0.0170163
0.0169925
0.0169919
0.00167467
0.00167463
0.00167269
0.00167265
0.0170792
0.0172194
0.0170552
0.0171959
0.00169087
0.00172605
0.00168894
0.00172422
0.0174859
0.0174383
0.0174633
0.0174166
0.00178605
0.00182538
0.00178438
0.00182378
0.0174677
0.0175147
0.0174576
0.0175038
0.00182725
0.00178799
0.00182668
0.00178736
0.0172479
0.0171072
0.0172364
0.0170952
0.00172822
0.00169317
0.00172745
0.00169231
0.0170441
0.0170434
0.0170315
0.0170309
0.00167694
0.0016769
0.00167603
0.00167599
0.0171053
0.0172447
0.0170934
0.0172332
0.00169306
0.00172804
0.00169219
0.00172727
0.01751
0.0174611
0.0174992
0.017451
0.00178776
0.00182696
0.00178712
0.00182638
0.0174683
0.0175165
0.0174691
0.0175165
0.00182693
0.00178775
0.00182726
0.00178805
0.0172506
0.0171105
0.0172502
0.0171098
0.00172824
0.00169335
0.00172843
0.00169347
0.0170482
0.0170476
0.0170472
0.0170466
0.00167717
0.00167713
0.00167726
0.00167723
0.0171087
0.0172474
0.017108
0.0172471
0.00169324
0.00172807
0.00169336
0.00172825
0.0175119
0.0174617
0.0175119
0.0174624
0.00178752
0.00182664
0.00178781
0.00182697
0.0174477
0.0174972
0.0174589
0.0175076
0.00182484
0.00178573
0.00182607
0.00178693
0.017232
0.0170924
0.0172421
0.0171023
0.00172645
0.00169169
0.00172756
0.00169274
0.0170303
0.0170298
0.0170402
0.0170396
0.00167558
0.00167554
0.0016766
0.00167657
0.0170906
0.017229
0.0171005
0.0172391
0.00169158
0.00172627
0.00169263
0.00172738
0.0174927
0.0174413
0.0175031
0.0174524
0.00178549
0.00182455
0.00178669
0.00182578
0.0174078
0.0174585
0.0174286
0.0174786
0.00182108
0.00178199
0.00182313
0.00178402
0.0171933
0.0170539
0.0172134
0.0170738
0.00172291
0.00168825
0.00172486
0.00169015
0.0169921
0.0169915
0.0170118
0.0170112
0.00167218
0.00167215
0.00167407
0.00167403
0.0170521
0.0171903
0.017072
0.0172104
0.00168814
0.00172274
0.00169004
0.00172468
0.017454
0.0174013
0.0174741
0.0174222
0.00178177
0.0018208
0.00178379
0.00182284
0.0173485
0.0174006
0.017379
0.0174302
0.00181576
0.00177667
0.00181858
0.00177949
0.0171348
0.0169958
0.0171647
0.0170254
0.00171771
0.00168312
0.00172048
0.00168586
0.0169342
0.0169337
0.0169637
0.0169631
0.00166709
0.00166706
0.00166982
0.00166978
0.0169941
0.0171318
0.0170237
0.0171617
0.00168301
0.00171754
0.00168575
0.00172031
0.0173962
0.0173422
0.0174258
0.0173726
0.00177643
0.00181547
0.00177926
0.0018183
0.0172707
0.0173244
0.0173104
0.0173631
0.00180886
0.00176972
0.00181247
0.00177335
0.0170576
0.0169189
0.0170967
0.0169579
0.0017109
0.00167635
0.00171447
0.00167991
0.0168574
0.0168569
0.0168963
0.0168957
0.00166035
0.00166031
0.00166389
0.00166386
0.0169172
0.0170546
0.0169561
0.0170937
0.00167624
0.00171072
0.0016798
0.0017143
0.01732
0.0172644
0.0173587
0.017304
0.00176949
0.00180857
0.00177312
0.00181218
0.0171746
0.0172299
0.0172234
0.0172777
0.00180036
0.00176116
0.00180477
0.00176561
0.016962
0.0168233
0.0170103
0.0168716
0.00170247
0.00166795
0.00170685
0.00167232
0.0167619
0.0167613
0.0168101
0.0168095
0.00165197
0.00165193
0.00165633
0.00165629
0.0168216
0.016959
0.0168698
0.0170074
0.00166784
0.00170229
0.00167221
0.00170668
0.0172256
0.0171684
0.0172734
0.0172171
0.00176093
0.00180007
0.00176537
0.00180448
0.0170603
0.0171175
0.0171182
0.0171743
0.00179028
0.001751
0.00179548
0.00175624
0.016848
0.0167092
0.0169055
0.0167667
0.00169244
0.00165794
0.00169762
0.00166312
0.0166478
0.0166473
0.0167053
0.0167047
0.00164196
0.00164192
0.00164713
0.0016471
0.0167075
0.0168451
0.016765
0.0169026
0.00165783
0.00169226
0.00166301
0.00169745
0.0171131
0.017054
0.0171699
0.0171119
0.00175077
0.00178999
0.00175601
0.00179519
0.0169277
0.016987
0.0169947
0.0170528
0.00177863
0.00173924
0.00178462
0.00174528
0.0167157
0.0165766
0.0167824
0.0166434
0.00168081
0.00164631
0.00168679
0.0016523
0.0165152
0.0165146
0.0165819
0.0165814
0.00163033
0.00163029
0.00163632
0.00163628
0.0165749
0.0167128
0.0166417
0.0167795
0.00164621
0.00168064
0.00165219
0.00168662
0.0169827
0.0169215
0.0170485
0.0169885
0.00173901
0.00177835
0.00174505
0.00178433
0.0167768
0.0168385
0.016853
0.0169134
0.00176541
0.00172589
0.00177218
0.00173273
0.016565
0.0164255
0.0166409
0.0165015
0.00166758
0.00163306
0.00167437
0.00163986
0.0163639
0.0163634
0.01644
0.0164395
0.00161707
0.00161703
0.00162387
0.00162384
0.0164238
0.0165621
0.0164998
0.016638
0.00163296
0.00166741
0.00163976
0.0016742
0.0168342
0.0167706
0.0169091
0.0168468
0.00172566
0.00176513
0.0017325
0.0017719
0.0166075
0.0166717
0.0166929
0.0167558
0.00175061
0.00171093
0.00175818
0.00171858
0.0163957
0.0162555
0.0164809
0.016341
0.00165273
0.00161816
0.00166033
0.00162579
0.0161938
0.0161933
0.0162794
0.0162788
0.00160214
0.0016021
0.00160978
0.00160975
0.0162539
0.0163928
0.0163393
0.016478
0.00161806
0.00165256
0.00162568
0.00166016
0.0166675
0.0166013
0.0167515
0.0166868
0.0017107
0.00175033
0.00171835
0.00175789
0.0164193
0.0164863
0.0165142
0.0165797
0.0017342
0.00169434
0.00174258
0.00170281
0.0162074
0.0160665
0.0163022
0.0161616
0.00163622
0.00160158
0.00164465
0.00161006
0.0160045
0.016004
0.0160997
0.0160992
0.00158552
0.00158548
0.00159402
0.00159398
0.0160648
0.0162045
0.0161599
0.0162993
0.00160148
0.00163605
0.00160995
0.00164448
0.016482
0.0164132
0.0165755
0.0165081
0.00169411
0.00173392
0.00170258
0.0017423
0.0162118
0.0162816
0.0163165
0.0163847
0.00171616
0.00167606
0.00172536
0.00168538
0.0159995
0.0158577
0.0161042
0.0159627
0.00161801
0.00158327
0.0016273
0.00159262
0.0157955
0.0157949
0.0159006
0.0159
0.00156715
0.00156711
0.00157653
0.00157649
0.015856
0.0159966
0.0159611
0.0161013
0.00158316
0.00161784
0.00159251
0.00162713
0.0162773
0.0162058
0.0163805
0.0163104
0.00167583
0.00171588
0.00168515
0.00172508
0.0159846
0.016057
0.0160992
0.0161702
0.00169645
0.00165608
0.00170649
0.00166625
0.0157714
0.0156285
0.0158863
0.0157439
0.00159805
0.00156317
0.00160822
0.00157342
0.015566
0.0155654
0.0156814
0.0156809
0.00154697
0.00154693
0.00155726
0.00155722
0.0156268
0.0157686
0.0157422
0.0158834
0.00156306
0.00159788
0.00157331
0.00160805
0.0160528
0.0159785
0.0161659
0.0160931
0.00165585
0.00169617
0.00166602
0.00170621
0.0157367
0.0158117
0.0158617
0.0159354
0.00167503
0.00163436
0.00168593
0.00164541
0.0155223
0.015378
0.0156478
0.0155042
0.00157627
0.0015412
0.00158737
0.00155239
0.0153152
0.0153146
0.0154414
0.0154409
0.0015249
0.00152486
0.00153615
0.00153611
0.0153764
0.0155194
0.0155025
0.015645
0.00154109
0.0015761
0.00155229
0.00158719
0.0158075
0.0157307
0.0159312
0.0158557
0.00163413
0.00167475
0.00164518
0.00168565
0.0154668
0.0155441
0.015603
0.0156792
0.00165182
0.0016108
0.00166362
0.00162278
0.0152506
0.015105
0.0153876
0.0152426
0.00155258
0.00151725
0.00156465
0.00152945
0.0150418
0.0150413
0.0151795
0.015179
0.00150083
0.00150079
0.00151309
0.00151306
0.0151033
0.0152477
0.0152409
0.0153848
0.00151715
0.00155241
0.00152934
0.00156447
0.0155399
0.0154608
0.015675
0.0155971
0.00161057
0.00165154
0.00162255
0.00166334
0.0151733
0.0152525
0.0153216
0.0153998
0.00162674
0.00158532
0.00163949
0.00159827
0.0149548
0.0148077
0.0151041
0.0149577
0.00152687
0.00149121
0.00153996
0.00150448
0.0147442
0.0147436
0.0148943
0.0148937
0.00147463
0.00147459
0.00148798
0.00148794
0.014806
0.014952
0.014956
0.0151013
0.0014911
0.00152669
0.00150437
0.00153979
0.0152483
0.0151674
0.0153956
0.0153157
0.00158509
0.00162646
0.00159804
0.00163921
0.0148539
0.0149346
0.0150155
0.0150954
0.0015997
0.00155783
0.00161344
0.0015718
0.0146327
0.0144837
0.0147955
0.0146474
0.00149899
0.0014629
0.00151319
0.00147733
0.0144198
0.0144192
0.0145836
0.0145831
0.0014461
0.00144606
0.00146064
0.0014606
0.014482
0.0146299
0.0146457
0.0147927
0.00146279
0.00149882
0.00147722
0.00151301
0.0149304
0.0148481
0.0150912
0.0150096
0.0015576
0.00159942
0.00157157
0.00161316
0.0145059
0.0145877
0.0146822
0.0147634
0.00157065
0.0015283
0.0015854
0.00154329
0.0142813
0.0141296
0.0144592
0.0143089
0.00146878
0.00143205
0.00148417
0.00144779
0.0140649
0.0140644
0.0142446
0.0142441
0.00141494
0.0014149
0.00143085
0.00143081
0.0141279
0.0142785
0.0143073
0.0144564
0.00143194
0.00146861
0.00144768
0.00148399
0.0145836
0.0145001
0.0147592
0.0146764
0.00152807
0.00157037
0.00154306
0.00158511
0.0141277
0.0142091
0.014319
0.0144011
0.00153984
0.00149685
0.00155539
0.00151277
0.0138957
0.0137394
0.0140916
0.0139377
0.00143594
0.00139818
0.0014527
0.00141552
0.0136733
0.0136728
0.0138724
0.0138718
0.00138059
0.00138055
0.00139818
0.00139815
0.0137377
0.0138929
0.0139361
0.0140888
0.00139807
0.00143576
0.00141541
0.00145252
0.014205
0.014122
0.0143969
0.0143133
0.00149661
0.00153956
0.00151253
0.00155511
0.0137326
0.0137935
0.0139281
0.014005
0.00150911
0.00146358
0.00152417
0.00148045
0.0134643
0.0133027
0.0136853
0.0135259
0.00139948
0.00136024
0.00141826
0.00137979
0.0132368
0.0132363
0.0134593
0.0134588
0.00134212
0.00134208
0.00136192
0.00136188
0.0133011
0.0134615
0.0135242
0.0136825
0.00136013
0.00139931
0.00137968
0.00141809
0.0137896
0.0137271
0.014001
0.0139224
0.00146335
0.00150883
0.00148022
0.00152389
0.0134221
0.0132976
0.0135544
0.0135628
0.00148365
0.00142079
0.00149573
0.00144499
0.0129597
0.0128132
0.0132213
0.0130619
0.00135555
0.00131647
0.00137887
0.00133915
0.0127563
0.0127558
0.0129988
0.0129983
0.00129851
0.00129847
0.00132095
0.00132091
0.0128116
0.0129571
0.0130604
0.0132186
0.00131636
0.00135538
0.00133904
0.00137869
0.0132938
0.0134168
0.0135589
0.0135489
0.00142056
0.00148338
0.00144476
0.00149545
0.0203279
0.0199589
0.0180626
0.0177961
0.0154988
0.0151715
0.013626
0.0133961
0.0194345
0.019347
0.0172316
0.0171319
0.0146704
0.0145961
0.0128587
0.0127799
0.0194216
0.0194155
0.0172112
0.0172053
0.0146755
0.0146717
0.0128714
0.0128676
0.0193285
0.0194037
0.0171136
0.0172005
0.0145839
0.0146492
0.0127677
0.0128369
0.0199175
0.0202768
0.0177537
0.0180097
0.0151422
0.0154615
0.0133654
0.0135866
0.0243956
0.0240671
0.022409
0.022052
0.0185248
0.0182601
0.0170731
0.0167707
0.0236138
0.0235337
0.0215613
0.0214769
0.017838
0.0177599
0.016308
0.0162307
0.0235852
0.0235794
0.0215393
0.0215333
0.0178032
0.0177995
0.0162903
0.0162865
0.0235163
0.0235854
0.0214589
0.0215315
0.0177487
0.017819
0.0162189
0.0162879
0.0240292
0.024349
0.0220123
0.0223601
0.0182341
0.0184919
0.016743
0.017038
0.0280406
0.0277585
0.0262707
0.0259666
0.0211173
0.0209071
0.0198662
0.0196322
0.0273612
0.0272848
0.0255432
0.0254643
0.0205433
0.0204633
0.0192419
0.0191619
0.0273183
0.0273129
0.0255052
0.0254996
0.0204831
0.0204797
0.0191913
0.0191878
0.0272689
0.0273354
0.0254476
0.025516
0.0204532
0.0205264
0.0191512
0.019224
0.027724
0.0279979
0.0259304
0.026226
0.020884
0.0210876
0.0196077
0.0198351
0.0312074
0.0309602
0.0296796
0.029416
0.023318
0.0231423
0.0222614
0.0220697
0.030602
0.0305279
0.0290392
0.0289632
0.0228168
0.0227369
0.0217262
0.0216454
0.0305498
0.0305449
0.0289897
0.0289846
0.0227433
0.0227402
0.0216571
0.021654
0.0305133
0.0305784
0.028948
0.0290145
0.0227277
0.0228017
0.0216358
0.0217103
0.0309285
0.0311679
0.0293828
0.0296386
0.0231214
0.0232911
0.0220477
0.0222331
0.033907
0.0336867
0.0326085
0.0323752
0.0251603
0.0250102
0.0242771
0.0241148
0.0333575
0.0332858
0.032032
0.0319583
0.0247121
0.0246337
0.0238036
0.0237237
0.0333008
0.0332963
0.031976
0.0319713
0.0246329
0.0246301
0.0237257
0.0237228
0.0332724
0.0333357
0.0319444
0.0320093
0.0246254
0.0246983
0.023715
0.0237891
0.0336572
0.0338701
0.0323447
0.0325703
0.024991
0.0251354
0.0240948
0.0242512
0.0361883
0.0359889
0.0350916
0.0348823
0.0266954
0.0265653
0.0259593
0.0258195
0.0356823
0.0356135
0.0345647
0.0344938
0.0262882
0.026212
0.0255322
0.0254544
0.0356243
0.0356201
0.0345061
0.0345017
0.0262072
0.0262047
0.0254511
0.0254485
0.0356009
0.0356619
0.0344809
0.0345435
0.0262043
0.0262754
0.0254464
0.025519
0.0359612
0.0361534
0.0348537
0.0350557
0.0265474
0.026672
0.025801
0.0259352
0.0381083
0.0379251
0.0371857
0.0369946
0.0279732
0.0278598
0.02736
0.0272384
0.0376367
0.0375709
0.0366972
0.0366294
0.0275988
0.0275248
0.0269696
0.0268942
0.0375792
0.0375753
0.0366385
0.0366344
0.0275178
0.0275154
0.0268879
0.0268855
0.0375591
0.0376174
0.0366172
0.0366773
0.0275176
0.0275868
0.0268867
0.0269572
0.0378988
0.038075
0.0369677
0.0371516
0.0278429
0.0279512
0.0272211
0.0273374
0.0397199
0.0395499
0.0389454
0.0387689
0.0290369
0.0289371
0.0285261
0.0284196
0.0392765
0.0392137
0.038488
0.0384232
0.0286889
0.0286171
0.0281651
0.0280919
0.0392207
0.0392169
0.0384305
0.0384267
0.0286087
0.0286064
0.0280838
0.0280815
0.0392025
0.0392581
0.0384117
0.0384691
0.0286103
0.0286775
0.0280849
0.0281534
0.0395248
0.0396879
0.0387432
0.0389127
0.0289211
0.0290158
0.0284032
0.0285045
0.0410688
0.0409097
0.0404205
0.040256
0.0299206
0.029832
0.029496
0.0294019
0.0406488
0.0405889
0.0399887
0.039927
0.0295944
0.0295248
0.0291589
0.029088
0.0405952
0.0405916
0.0399333
0.0399296
0.0295155
0.0295134
0.0290789
0.0290767
0.0405782
0.040631
0.039916
0.0399707
0.0295183
0.0295835
0.0290814
0.0291478
0.0408855
0.0410378
0.0402313
0.0403889
0.0298167
0.0299003
0.0293862
0.0294753
0.0421943
0.0420443
0.0416532
0.0414987
0.0306531
0.0305738
0.0303009
0.030217
0.0417938
0.0417368
0.0412429
0.0411841
0.030345
0.0302775
0.0299838
0.029915
0.0417428
0.0417393
0.04119
0.0411864
0.0302678
0.0302657
0.0299053
0.0299031
0.0417264
0.0417767
0.0411735
0.0412255
0.0302713
0.0303345
0.0299086
0.0299731
0.0420208
0.0421642
0.0414748
0.0416226
0.030559
0.0306334
0.030202
0.0302809
0.0431284
0.042986
0.0426794
0.0425332
0.0312572
0.0311856
0.0309667
0.0308912
0.0427444
0.0426901
0.042287
0.0422311
0.0309643
0.0308988
0.0306661
0.0305994
0.0426961
0.0426927
0.0422368
0.0422333
0.0308889
0.0308869
0.0305894
0.0305873
0.04268
0.0427277
0.0422208
0.0422701
0.0308927
0.0309541
0.0305932
0.0306558
0.042963
0.043099
0.0425099
0.0426496
0.0311712
0.031238
0.0308766
0.0309473
0.0438983
0.0437623
0.0435284
0.0433892
0.0317518
0.0316864
0.031514
0.0314455
0.0435282
0.0434764
0.0431512
0.0430978
0.0314716
0.0314079
0.0312273
0.0311625
0.0434825
0.0434792
0.0431037
0.0431003
0.0313981
0.0313961
0.0311525
0.0311505
0.0434665
0.0435119
0.0430878
0.0431347
0.031402
0.0314617
0.0311565
0.0312173
0.0437398
0.0438693
0.0433664
0.0434992
0.0316724
0.031733
0.0314313
0.031495
0.0445254
0.0443949
0.0442245
0.0440912
0.0321516
0.0320915
0.0319595
0.0318968
0.0441673
0.0441177
0.0438602
0.0438091
0.0318822
0.0318204
0.0316846
0.0316216
0.0441241
0.0441209
0.0438152
0.0438119
0.0318107
0.0318088
0.0316117
0.0316098
0.044108
0.0441513
0.0437993
0.043844
0.0318146
0.0318725
0.0316158
0.0316748
0.0443728
0.0444969
0.0440689
0.0441957
0.0320778
0.0321332
0.0318829
0.0319409
0.0450281
0.0449022
0.0447874
0.0446591
0.0324693
0.0324135
0.0323169
0.0322589
0.0446801
0.0446326
0.0444341
0.0443852
0.032209
0.0321488
0.0320519
0.0319906
0.0446395
0.0446363
0.0443917
0.0443885
0.0321394
0.0321376
0.031981
0.0319791
0.0446231
0.0446644
0.0443756
0.0444182
0.0321431
0.0321995
0.0319849
0.0320423
0.0448804
0.0449999
0.0446371
0.0447589
0.0323999
0.0324511
0.0322453
0.0322986
0.0454209
0.045299
0.0452335
0.0451095
0.0327144
0.0326623
0.0325972
0.0325432
0.0450817
0.0450362
0.0448897
0.0448429
0.0324619
0.0324033
0.0323407
0.032281
0.0450436
0.0450404
0.0448498
0.0448466
0.0323944
0.0323925
0.0322717
0.0322699
0.0450268
0.0450662
0.0448334
0.044874
0.0323977
0.0324526
0.0322754
0.0323312
0.0452775
0.0453931
0.0450879
0.0452054
0.032649
0.0326965
0.0325298
0.0325791
0.0457161
0.0455975
0.0455761
0.0454558
0.0328953
0.0328462
0.0328094
0.0327587
0.0453844
0.0453407
0.0452404
0.0451955
0.0326494
0.0325922
0.0325599
0.0325018
0.0453486
0.0453455
0.045203
0.0451998
0.0325838
0.0325819
0.032493
0.0324911
0.0453314
0.045369
0.0451862
0.045225
0.0325867
0.0326401
0.0324963
0.0325506
0.0455762
0.0456885
0.0454343
0.0455483
0.032833
0.0328775
0.0327454
0.0327915
0.0459235
0.0458077
0.0458263
0.045709
0.0330183
0.0329718
0.0329606
0.0329127
0.0455983
0.0455563
0.0454976
0.0454545
0.032778
0.0327222
0.0327173
0.0326605
0.0455648
0.0455617
0.0454625
0.0454594
0.0327143
0.0327125
0.0326522
0.0326504
0.0455471
0.045583
0.0454452
0.0454823
0.0327168
0.0327688
0.0326551
0.032708
0.0457865
0.045896
0.0456878
0.0457987
0.0329586
0.0330006
0.0328995
0.0329428
0.0460501
0.0459368
0.0459925
0.045878
0.0330884
0.0330441
0.0330568
0.0330112
0.0457309
0.0456907
0.0456702
0.0456288
0.0328533
0.0327988
0.0328186
0.0327632
0.0456999
0.0456968
0.0456373
0.0456343
0.0327915
0.0327897
0.0327555
0.0327537
0.0456815
0.0457157
0.0456196
0.0456549
0.0327934
0.0328442
0.0327578
0.0328094
0.0459158
0.0460228
0.0458569
0.0459651
0.0330311
0.0330708
0.0329981
0.0330391
0.0461047
0.0459935
0.0460826
0.0459701
0.0331108
0.0330681
0.0331024
0.0330586
0.0457902
0.0457512
0.045765
0.0457249
0.0328792
0.0328257
0.0328684
0.0328143
0.0457607
0.0457576
0.045734
0.045731
0.0328188
0.032817
0.0328073
0.0328055
0.0457421
0.0457751
0.0457158
0.0457498
0.0328203
0.0328701
0.0328089
0.0328593
0.0459726
0.0460775
0.0459491
0.0460553
0.0330551
0.0330932
0.0330456
0.0330848
0.0460897
0.0459802
0.0461017
0.0459912
0.0330866
0.0330455
0.0331011
0.0330591
0.0457793
0.0457415
0.0457889
0.0457502
0.0328588
0.0328063
0.0328712
0.0328181
0.0457516
0.0457486
0.0457599
0.0457569
0.0328
0.0327982
0.0328114
0.0328096
0.0457325
0.0457644
0.0457412
0.0457739
0.032801
0.0328499
0.0328127
0.0328622
0.0459595
0.0460628
0.0459704
0.0460745
0.0330328
0.0330694
0.0330462
0.0330837
0.0460095
0.0459016
0.0460537
0.0459449
0.0330199
0.03298
0.0330555
0.0330149
0.0457027
0.0456662
0.0457448
0.0457073
0.0327947
0.0327431
0.0328288
0.0327764
0.0456767
0.0456738
0.0457175
0.0457145
0.0327372
0.0327354
0.0327702
0.0327684
0.0456572
0.0456879
0.0456983
0.0457299
0.0327378
0.0327858
0.0327711
0.0328198
0.045881
0.0459827
0.0459242
0.0460268
0.0329672
0.0330026
0.0330021
0.0330382
0.0458668
0.0457603
0.0459419
0.0458346
0.0329112
0.0328724
0.0329676
0.0329282
0.0455633
0.0455279
0.0456365
0.0456002
0.0326883
0.0326378
0.0327433
0.032692
0.0455391
0.0455361
0.0456109
0.0456079
0.0326324
0.0326307
0.0326862
0.0326845
0.045519
0.0455486
0.0455913
0.0456217
0.0326326
0.0326796
0.0326868
0.0327344
0.04574
0.0458403
0.0458141
0.0459152
0.0328599
0.0328942
0.0329155
0.0329503
0.0456639
0.0455587
0.0457689
0.045663
0.0327627
0.0327249
0.0328388
0.0328004
0.0453633
0.045329
0.0454665
0.0454314
0.0325416
0.032492
0.0326165
0.0325663
0.0453407
0.0453378
0.0454427
0.0454397
0.0324871
0.0324854
0.032561
0.0325593
0.0453202
0.0453487
0.0454226
0.0454519
0.0324869
0.0325329
0.0325611
0.0326078
0.0455385
0.0456376
0.0456427
0.0457424
0.0327125
0.0327458
0.0327879
0.0328218
0.0454025
0.0452985
0.0455367
0.0454319
0.0325751
0.0325382
0.0326707
0.0326332
0.0451042
0.0450708
0.0452368
0.0452027
0.0323555
0.0323067
0.0324501
0.0324007
0.045083
0.0450801
0.0452146
0.0452116
0.0323022
0.0323005
0.0323958
0.0323941
0.0450621
0.0450897
0.045194
0.0452223
0.0323016
0.0323469
0.0323955
0.0324414
0.0452784
0.0453764
0.0454118
0.0455104
0.0325259
0.0325584
0.0326208
0.0326538
0.0450833
0.0449801
0.0452463
0.0451426
0.032349
0.0323128
0.0324639
0.0324272
0.0447866
0.044754
0.0449485
0.0449152
0.0321304
0.0320821
0.0322445
0.0321957
0.0447666
0.0447637
0.0449275
0.0449246
0.0320779
0.0320762
0.0321912
0.0321895
0.0447453
0.0447723
0.0449065
0.0449341
0.032077
0.0321218
0.0321906
0.0322358
0.0449602
0.0450573
0.0451226
0.0452202
0.0323006
0.0323324
0.0324149
0.0324471
0.044706
0.0446036
0.0448981
0.0447952
0.0320842
0.0320487
0.0322184
0.0321825
0.0444106
0.0443784
0.0446018
0.0445691
0.0318662
0.0318182
0.0319998
0.0319515
0.0443914
0.0443885
0.0445818
0.0445789
0.0318144
0.0318127
0.0319473
0.0319457
0.0443698
0.0443963
0.0445604
0.0445875
0.0318132
0.0318576
0.0319464
0.0319913
0.0445838
0.0446802
0.0447753
0.0448722
0.0320365
0.0320677
0.0321702
0.0322018
0.0442699
0.0441681
0.0444916
0.0443894
0.0317804
0.0317453
0.0319342
0.0318988
0.0439752
0.0439433
0.0441962
0.0441639
0.0315624
0.0315147
0.0317159
0.0316679
0.0439566
0.0439537
0.0441769
0.044174
0.0315111
0.0315094
0.031664
0.0316623
0.0439347
0.043961
0.0441553
0.044182
0.0315097
0.031554
0.0316628
0.0317074
0.0441485
0.0442444
0.0443696
0.0444659
0.0317332
0.031764
0.0318866
0.0319177
0.0437738
0.0436725
0.0440258
0.043924
0.0314369
0.0314021
0.0316107
0.0315757
0.0434791
0.0434473
0.0437307
0.0436986
0.0312185
0.0311707
0.0313922
0.0313443
0.0434607
0.0434579
0.0437118
0.0437089
0.0311673
0.0311656
0.0313406
0.0313389
0.0434387
0.043465
0.04369
0.0437166
0.0311657
0.03121
0.0313393
0.0313838
0.0436529
0.0437485
0.0439044
0.0440002
0.0313901
0.0314206
0.0315636
0.0315943
0.0432156
0.0431144
0.043499
0.0433976
0.0310526
0.0310179
0.031247
0.0312121
0.0429202
0.0428881
0.0432036
0.0431714
0.030833
0.0307851
0.0310277
0.0309797
0.0429017
0.0428988
0.0431847
0.0431819
0.0307817
0.0307801
0.0309761
0.0309745
0.0428797
0.0429062
0.0431629
0.0431895
0.0307801
0.0308246
0.0309747
0.0310193
0.0430951
0.0431905
0.0433781
0.0434737
0.0310059
0.0310364
0.0312001
0.0312307
0.0425925
0.0424911
0.0429088
0.0428074
0.0306258
0.0305908
0.0308417
0.0308068
0.0422954
0.0422629
0.0426122
0.0425797
0.0304044
0.0303561
0.030621
0.0305726
0.0422765
0.0422737
0.042593
0.0425902
0.0303528
0.0303511
0.0305692
0.0305675
0.0422545
0.0422815
0.0425712
0.0425982
0.0303512
0.0303961
0.0305677
0.0306126
0.0424719
0.0425676
0.0427881
0.0428837
0.0305789
0.0306097
0.0307948
0.0308255
0.0419008
0.0417987
0.0422519
0.04215
0.0301546
0.030119
0.030393
0.0303576
0.041601
0.0415678
0.0419532
0.0419201
0.0299305
0.0298816
0.03017
0.0301212
0.0415812
0.0415784
0.0419334
0.0419306
0.0298782
0.0298766
0.0301178
0.0301161
0.0415594
0.0415872
0.0419117
0.0419393
0.0298766
0.0299222
0.0301163
0.0301617
0.0417797
0.0418761
0.0421309
0.0422271
0.0301072
0.0301387
0.0303457
0.030377
0.0411354
0.0410324
0.0415241
0.0414215
0.0296362
0.0295997
0.0298986
0.0298626
0.0408318
0.0407975
0.0412222
0.0411881
0.0294083
0.0293585
0.0296724
0.0296228
0.0408107
0.0408079
0.0412013
0.0411985
0.029355
0.0293534
0.0296193
0.0296177
0.0407892
0.0408181
0.0411798
0.0412084
0.0293535
0.0294
0.0296179
0.0296642
0.0410135
0.0411111
0.0414025
0.0414995
0.029588
0.0296204
0.0298508
0.0298828
0.04029
0.0401852
0.0407197
0.0406157
0.0290667
0.0290287
0.0293553
0.029318
0.0399812
0.0399454
0.0404133
0.0403779
0.0288338
0.0287829
0.0291247
0.0290741
0.0399584
0.0399557
0.0403909
0.0403881
0.0287794
0.0287777
0.0290705
0.0290689
0.0399371
0.0399676
0.0403696
0.0403996
0.028778
0.0288256
0.0290692
0.0291165
0.0401665
0.040266
0.0405969
0.0406954
0.0290171
0.0290511
0.0293064