/*--------------------------------*- C++ -*----------------------------------*\
  =========                 |
  \\      /  F ield         | OpenFOAM: The Open Source CFD Toolbox
   \\    /   O peration     | Website:  https://openfoam.org
    \\  /    A nd           | Version:  9
     \\/     M anipulation  |
\*---------------------------------------------------------------------------*/
FoamFile
{
    format      ascii;
    class       volScalarField;
    location    "5";
    object      p;
}
// * * * * * * * * * * * * * * * * * * * * * * * * * * * * * * * * * * * * * //

dimensions      [0 2 -2 0 0 0 0];

internalField   nonuniform List<scalar> 
36360
(
20.1412
20.0677
20.1375
20.0708
20.0801
20.1191
20.0856
20.1095
20.0977
20.1
20.0986
20.1011
20.0995
20.0984
20.0977
20.0978
20.1
20.1
20.1012
20.1012
20.0983
20.0983
20.0979
20.0979
20.1
20.0977
20.1011
20.0986
20.0984
20.0995
20.0978
20.0977
20.0677
20.1412
20.0709
20.1374
20.119
20.0802
20.1095
20.0857
20.107
20.0955
20.1205
20.0852
20.0445
20.1517
20.0613
20.1377
20.1023
20.0989
20.0999
20.0994
20.105
20.0981
20.102
20.0982
20.0981
20.0981
20.099
20.099
20.0971
20.0971
20.0978
20.0978
20.0989
20.1023
20.0994
20.0999
20.0981
20.105
20.0982
20.102
20.0955
20.107
20.0852
20.1205
20.1516
20.0446
20.1376
20.0614
20.0866
20.1085
20.0962
20.103
20.0164
20.1729
20.0296
20.1633
20.109
20.0996
20.1055
20.0991
20.1125
20.0988
20.1085
20.0984
20.0969
20.0969
20.0974
20.0974
20.0961
20.0962
20.0966
20.0965
20.0995
20.1089
20.0991
20.1055
20.0988
20.1123
20.0982
20.1087
20.1085
20.0866
20.103
20.0962
20.1727
20.0165
20.1633
20.0298
20.0708
20.1154
20.0781
20.1125
19.9943
20.1863
20.0046
20.1803
20.1156
20.1013
20.1124
20.1003
20.1199
20.1006
20.1162
20.0996
20.0963
20.0963
20.0965
20.0965
20.0959
20.0959
20.096
20.0959
20.1013
20.1156
20.1003
20.1124
20.1005
20.1198
20.0996
20.1162
20.1154
20.0708
20.1125
20.0782
20.1863
19.9944
20.1803
20.0048
20.0586
20.1189
20.0643
20.1175
19.9771
20.1949
19.9852
20.1911
20.1213
20.1036
20.1186
20.1024
20.1262
20.1028
20.1232
20.1016
20.0964
20.0964
20.0963
20.0963
20.0961
20.0961
20.0959
20.0959
20.1036
20.1213
20.1024
20.1186
20.1027
20.1262
20.1016
20.1232
20.1188
20.0587
20.1175
20.0644
20.1948
19.9772
20.191
19.9853
20.0491
20.1203
20.0536
20.1197
19.9635
20.2004
19.9699
20.1979
20.1259
20.1059
20.1238
20.1048
20.1314
20.1051
20.129
20.1039
20.097
20.097
20.0967
20.0967
20.0969
20.0969
20.0965
20.0965
20.1059
20.1258
20.1047
20.1237
20.1051
20.1313
20.1039
20.1289
20.1203
20.0491
20.1197
20.0536
20.2003
19.9636
20.1979
19.97
20.0415
20.1205
20.0451
20.1205
19.9527
20.2038
19.9578
20.2023
20.1294
20.1081
20.1277
20.107
20.1353
20.1073
20.1335
20.1062
20.098
20.098
20.0975
20.0975
20.0979
20.0979
20.0974
20.0974
20.1081
20.1293
20.107
20.1277
20.1073
20.1353
20.1062
20.1335
20.1205
20.0416
20.1205
20.0451
20.2038
19.9528
20.2023
19.9579
20.0354
20.1201
20.0383
20.1204
19.9439
20.2061
19.948
20.2051
20.132
20.11
20.1308
20.1091
20.1384
20.1092
20.137
20.1083
20.0992
20.0992
20.0986
20.0986
20.0991
20.0991
20.0985
20.0985
20.11
20.132
20.1091
20.1308
20.1092
20.1384
20.1083
20.1369
20.1201
20.0354
20.1204
20.0383
20.206
19.944
20.205
19.9481
20.0303
20.1194
20.0327
20.1198
19.9367
20.2074
19.9401
20.2068
20.134
20.1116
20.1331
20.1109
20.1407
20.1109
20.1396
20.1101
20.1004
20.1004
20.0998
20.0998
20.1002
20.1002
20.0997
20.0997
20.1116
20.134
20.1109
20.1331
20.1109
20.1406
20.1101
20.1396
20.1194
20.0303
20.1198
20.0327
20.2074
19.9368
20.2068
19.9402
20.0261
20.1184
20.0281
20.1189
19.9307
20.2082
19.9335
20.2078
20.1354
20.1129
20.1348
20.1123
20.1423
20.1122
20.1416
20.1116
20.1014
20.1014
20.1009
20.1009
20.1013
20.1013
20.1008
20.1008
20.1129
20.1354
20.1123
20.1348
20.1122
20.1423
20.1116
20.1415
20.1184
20.0261
20.1189
20.0281
20.2081
19.9308
20.2078
19.9336
20.0225
20.1174
20.0242
20.1179
19.9258
20.2085
19.9281
20.2084
20.1364
20.114
20.136
20.1135
20.1435
20.1133
20.143
20.1128
20.1024
20.1024
20.1019
20.1019
20.1022
20.1022
20.1018
20.1018
20.114
20.1364
20.1135
20.136
20.1133
20.1435
20.1128
20.1429
20.1174
20.0225
20.1179
20.0242
20.2085
19.9259
20.2084
19.9282
20.0195
20.1164
20.0209
20.1169
19.9216
20.2085
19.9236
20.2086
20.137
20.1147
20.1368
20.1144
20.1443
20.114
20.1439
20.1137
20.1031
20.1031
20.1028
20.1027
20.103
20.103
20.1026
20.1026
20.1147
20.137
20.1144
20.1367
20.114
20.1442
20.1137
20.1439
20.1164
20.0195
20.1169
20.021
20.2085
19.9217
20.2085
19.9237
20.0168
20.1153
20.0181
20.1158
19.9182
20.2083
19.9198
20.2085
20.1373
20.1152
20.1372
20.115
20.1447
20.1145
20.1445
20.1143
20.1036
20.1036
20.1034
20.1034
20.1035
20.1035
20.1033
20.1033
20.1152
20.1373
20.115
20.1372
20.1145
20.1447
20.1143
20.1445
20.1153
20.0169
20.1158
20.0181
20.2083
19.9182
20.2084
19.9199
20.0145
20.1142
20.0156
20.1148
19.9152
20.2079
19.9166
20.2081
20.1374
20.1155
20.1374
20.1154
20.1448
20.1148
20.1448
20.1147
20.1039
20.1039
20.1038
20.1038
20.1038
20.1038
20.1037
20.1037
20.1154
20.1374
20.1153
20.1374
20.1148
20.1448
20.1147
20.1448
20.1142
20.0146
20.1148
20.0157
20.2079
19.9153
20.2081
19.9167
20.0125
20.1132
20.0135
20.1137
19.9127
20.2072
19.9139
20.2076
20.1372
20.1154
20.1373
20.1155
20.1447
20.1148
20.1448
20.1148
20.104
20.104
20.104
20.104
20.1038
20.1038
20.1038
20.1038
20.1154
20.1372
20.1155
20.1373
20.1148
20.1447
20.1148
20.1448
20.1132
20.0126
20.1137
20.0135
20.2072
19.9128
20.2076
19.914
20.0107
20.1121
20.0116
20.1126
19.9106
20.2064
19.9116
20.2069
20.1369
20.1152
20.1371
20.1154
20.1443
20.1145
20.1445
20.1147
20.1039
20.1039
20.1039
20.1039
20.1037
20.1037
20.1038
20.1038
20.1152
20.1368
20.1153
20.137
20.1145
20.1443
20.1147
20.1445
20.1121
20.0108
20.1126
20.0116
20.2064
19.9107
20.2068
19.9117
20.0091
20.111
20.0099
20.1116
19.9088
20.2055
19.9097
20.206
20.1363
20.1148
20.1366
20.115
20.1437
20.1141
20.144
20.1143
20.1035
20.1035
20.1037
20.1037
20.1033
20.1033
20.1035
20.1035
20.1148
20.1363
20.115
20.1366
20.1141
20.1437
20.1143
20.144
20.111
20.0092
20.1116
20.0099
20.2054
19.9089
20.206
19.9098
20.0077
20.11
20.0084
20.1105
19.9073
20.2043
19.9081
20.2049
20.1357
20.1142
20.136
20.1145
20.1429
20.1134
20.1433
20.1138
20.103
20.103
20.1033
20.1033
20.1027
20.1027
20.103
20.103
20.1142
20.1357
20.1145
20.136
20.1134
20.1429
20.1138
20.1433
20.11
20.0077
20.1105
20.0084
20.2043
19.9074
20.2049
19.9081
20.0064
20.1089
20.007
20.1094
19.9061
20.2031
19.9067
20.2037
20.1349
20.1134
20.1353
20.1138
20.142
20.1126
20.1425
20.113
20.1024
20.1024
20.1027
20.1027
20.102
20.102
20.1024
20.1024
20.1134
20.1349
20.1138
20.1353
20.1126
20.142
20.113
20.1425
20.1089
20.0065
20.1094
20.0071
20.2031
19.9062
20.2037
19.9068
20.0053
20.1078
20.0058
20.1084
19.905
20.2017
19.9055
20.2024
20.134
20.1126
20.1345
20.113
20.1408
20.1116
20.1414
20.1121
20.1016
20.1016
20.102
20.102
20.101
20.101
20.1015
20.1015
20.1125
20.134
20.113
20.1345
20.1116
20.1408
20.1121
20.1414
20.1078
20.0053
20.1084
20.0059
20.2017
19.9051
20.2024
19.9056
20.0044
20.1068
20.0048
20.1073
19.9043
20.2002
19.9046
20.201
20.1329
20.1116
20.1335
20.1121
20.1395
20.1104
20.1402
20.111
20.1007
20.1007
20.1012
20.1012
20.1
20.1
20.1005
20.1005
20.1116
20.1329
20.1121
20.1335
20.1104
20.1395
20.111
20.1402
20.1068
20.0044
20.1073
20.0048
20.2002
19.9043
20.2009
19.9047
20.0035
20.1058
20.0039
20.1063
19.9036
20.1986
19.9039
20.1994
20.1316
20.1105
20.1323
20.111
20.138
20.1092
20.1388
20.1098
20.0998
20.0998
20.1003
20.1003
20.0988
20.0988
20.0994
20.0994
20.1105
20.1315
20.111
20.1322
20.1092
20.138
20.1098
20.1388
20.1058
20.0035
20.1063
20.0039
20.1986
19.9037
20.1994
19.904
20.0029
20.1049
20.0031
20.1054
19.9032
20.197
19.9034
20.1978
20.1301
20.1094
20.1309
20.11
20.1364
20.1078
20.1372
20.1085
20.0988
20.0988
20.0993
20.0993
20.0976
20.0976
20.0982
20.0982
20.1094
20.1301
20.11
20.1308
20.1078
20.1364
20.1085
20.1372
20.1049
20.0029
20.1054
20.0032
20.197
19.9033
20.1978
19.9035
20.0024
20.104
20.0026
20.1045
19.9031
20.1953
19.9031
20.1962
20.1287
20.1083
20.1294
20.1088
20.1347
20.1064
20.1356
20.1071
20.0978
20.0978
20.0983
20.0983
20.0963
20.0963
20.0969
20.0969
20.1083
20.1287
20.1088
20.1294
20.1064
20.1347
20.1071
20.1356
20.104
20.0024
20.1045
20.0026
20.1953
19.9032
20.1961
19.9032
20.0021
20.1033
20.0022
20.1036
19.9032
20.1935
19.9031
20.1944
20.1274
20.1072
20.1281
20.1077
20.133
20.105
20.1338
20.1057
20.0969
20.0969
20.0973
20.0973
20.0949
20.0949
20.0956
20.0956
20.1072
20.1274
20.1077
20.128
20.1049
20.133
20.1057
20.1338
20.1033
20.0022
20.1037
20.0023
20.1935
19.9033
20.1944
19.9032
20.0021
20.1026
20.0021
20.1029
19.9037
20.1918
19.9034
20.1927
20.1261
20.1061
20.1267
20.1066
20.1312
20.1035
20.1321
20.1042
20.096
20.096
20.0964
20.0964
20.0937
20.0937
20.0943
20.0943
20.1061
20.1261
20.1066
20.1267
20.1035
20.1312
20.1042
20.1321
20.1026
20.0021
20.1029
20.0021
20.1918
19.9038
20.1926
19.9035
20.0024
20.1021
20.0022
20.1023
19.9045
20.19
19.9041
20.1909
20.1248
20.1052
20.1254
20.1056
20.1295
20.1021
20.1303
20.1028
20.0952
20.0952
20.0956
20.0956
20.0925
20.0925
20.0931
20.0931
20.1052
20.1248
20.1056
20.1254
20.1021
20.1295
20.1028
20.1303
20.1021
20.0024
20.1023
20.0022
20.19
19.9046
20.1909
19.9041
20.003
20.1017
20.0026
20.1019
19.9057
20.1882
19.905
20.1891
20.1237
20.1043
20.1243
20.1047
20.1278
20.1009
20.1286
20.1015
20.0946
20.0946
20.0949
20.0949
20.0914
20.0914
20.0919
20.0919
20.1043
20.1237
20.1047
20.1242
20.1009
20.1278
20.1015
20.1286
20.1017
20.003
20.1019
20.0027
20.1882
19.9057
20.1891
19.9051
20.0039
20.1014
20.0034
20.1015
19.9073
20.1865
19.9064
20.1874
20.1227
20.1037
20.1232
20.104
20.1262
20.0997
20.127
20.1003
20.0942
20.0942
20.0943
20.0943
20.0906
20.0906
20.091
20.091
20.1037
20.1227
20.104
20.1232
20.0997
20.1261
20.1003
20.1269
20.1014
20.0039
20.1015
20.0034
20.1865
19.9074
20.1874
19.9065
20.0052
20.1013
20.0045
20.1014
19.9094
20.1849
19.9083
20.1857
20.1218
20.1032
20.1222
20.1034
20.1246
20.0988
20.1254
20.0993
20.094
20.094
20.094
20.094
20.0899
20.0899
20.0902
20.0902
20.1032
20.1218
20.1034
20.1222
20.0988
20.1246
20.0993
20.1254
20.1013
20.0052
20.1014
20.0045
20.1849
19.9094
20.1857
19.9083
20.0069
20.1014
20.006
20.1014
19.912
20.1833
19.9106
20.1841
20.1211
20.103
20.1214
20.1031
20.1233
20.0981
20.1239
20.0984
20.0941
20.0941
20.094
20.094
20.0896
20.0896
20.0897
20.0897
20.103
20.1211
20.1031
20.1214
20.0981
20.1233
20.0984
20.1239
20.1014
20.0069
20.1014
20.006
20.1833
19.9121
20.1841
19.9107
20.0091
20.1017
20.0079
20.1015
19.9152
20.1818
19.9135
20.1825
20.1205
20.103
20.1208
20.103
20.1221
20.0977
20.1226
20.0979
20.0945
20.0945
20.0943
20.0943
20.0896
20.0896
20.0895
20.0895
20.103
20.1205
20.103
20.1208
20.0977
20.1221
20.0979
20.1226
20.1017
20.0091
20.1015
20.008
20.1818
19.9153
20.1825
19.9136
20.0117
20.102
20.0103
20.1018
19.9191
20.1803
19.9171
20.1811
20.1201
20.1034
20.1203
20.1032
20.1211
20.0976
20.1215
20.0976
20.0953
20.0953
20.0949
20.0949
20.0899
20.0899
20.0897
20.0897
20.1034
20.1201
20.1032
20.1203
20.0976
20.1211
20.0976
20.1215
20.102
20.0118
20.1018
20.0104
20.1803
19.9192
20.181
19.9171
20.0149
20.1025
20.0133
20.1022
19.9237
20.1788
19.9213
20.1796
20.12
20.104
20.12
20.1036
20.1203
20.0979
20.1207
20.0977
20.0964
20.0964
20.0958
20.0958
20.0907
20.0907
20.0902
20.0902
20.104
20.12
20.1036
20.12
20.0979
20.1203
20.0977
20.1207
20.1025
20.015
20.1022
20.0133
20.1788
19.9238
20.1796
19.9214
20.0187
20.1029
20.0167
20.1027
19.9291
20.1772
19.9263
20.178
20.12
20.1049
20.1199
20.1044
20.1198
20.0986
20.12
20.0982
20.0978
20.0978
20.0971
20.0971
20.0918
20.0918
20.0912
20.0912
20.1049
20.12
20.1044
20.1199
20.0986
20.1198
20.0982
20.12
20.1029
20.0187
20.1027
20.0168
20.1772
19.9292
20.178
19.9264
20.023
20.1033
20.0208
20.1031
19.9356
20.1754
19.9322
20.1764
20.1202
20.1061
20.12
20.1055
20.1195
20.0997
20.1196
20.0991
20.0995
20.0995
20.0986
20.0986
20.0934
20.0934
20.0925
20.0925
20.1061
20.1202
20.1055
20.12
20.0997
20.1195
20.0991
20.1196
20.1033
20.023
20.1031
20.0208
20.1754
19.9356
20.1763
19.9323
20.0278
20.1039
20.0253
20.1036
19.9432
20.1731
19.9392
20.1743
20.1205
20.1076
20.1203
20.1068
20.1195
20.1011
20.1195
20.1003
20.1016
20.1015
20.1005
20.1005
20.0953
20.0953
20.0943
20.0943
20.1076
20.1205
20.1068
20.1203
20.1011
20.1195
20.1003
20.1195
20.1039
20.0278
20.1036
20.0254
20.1731
19.9433
20.1743
19.9393
20.0317
20.1055
20.0301
20.1043
19.9527
20.1696
19.9477
20.1715
20.1211
20.1095
20.1208
20.1085
20.1198
20.103
20.1196
20.102
20.1039
20.1039
20.1027
20.1027
20.0976
20.0976
20.0964
20.0964
20.1095
20.1211
20.1085
20.1208
20.103
20.1198
20.102
20.1196
20.1055
20.0317
20.1043
20.0301
20.1696
19.9527
20.1715
19.9478
20.0349
20.1072
20.0317
20.1081
19.9638
20.1644
19.958
20.1673
20.1226
20.1118
20.1217
20.1106
20.1207
20.1054
20.1202
20.1042
20.1064
20.1064
20.1051
20.1051
20.1003
20.1003
20.0989
20.0989
20.1118
20.1226
20.1106
20.1217
20.1054
20.1207
20.1042
20.1201
20.1072
20.0349
20.1081
20.0317
20.1644
19.9639
20.1673
19.958
20.2
20.0295
20.1703
20.0471
20.1795
20.0388
20.157
20.0532
20.0783
20.0976
20.0862
20.0992
20.087
20.0989
20.0914
20.0994
20.1002
20.1002
20.1005
20.1005
20.0998
20.0998
20.0998
20.0998
20.0976
20.0783
20.0992
20.0862
20.099
20.087
20.0994
20.0914
20.0296
20.1998
20.0472
20.1701
20.0388
20.1793
20.0533
20.1569
20.1643
20.0651
20.1761
20.0537
20.1477
20.0682
20.1591
20.0584
20.0821
20.0944
20.0806
20.0959
20.09
20.0973
20.0888
20.0982
20.0982
20.0982
20.0994
20.0994
20.0983
20.0983
20.0992
20.0992
20.0944
20.0821
20.096
20.0807
20.0973
20.09
20.0982
20.0888
20.0651
20.1642
20.0538
20.176
20.0682
20.1477
20.0584
20.159
20.1527
20.0727
20.1576
20.0703
20.1336
20.0766
20.14
20.0735
20.0864
20.0944
20.0842
20.0941
20.0953
20.0975
20.0924
20.0972
20.0965
20.0965
20.0973
20.0973
20.0969
20.0969
20.0975
20.0975
20.0944
20.0864
20.0941
20.0843
20.0975
20.0953
20.0972
20.0924
20.0727
20.1526
20.0703
20.1575
20.0766
20.1335
20.0735
20.14
20.1459
20.0737
20.1489
20.0736
20.1236
20.0792
20.1282
20.0783
20.0901
20.0958
20.0884
20.095
20.1004
20.099
20.098
20.0982
20.0957
20.0957
20.0959
20.0959
20.0963
20.0963
20.0965
20.0965
20.0958
20.0901
20.095
20.0884
20.099
20.1003
20.0981
20.098
20.0738
20.1458
20.0736
20.1489
20.0792
20.1236
20.0783
20.1282
20.1412
20.0728
20.1433
20.0734
20.1163
20.0794
20.1197
20.0795
20.0925
20.0974
20.0914
20.0966
20.1041
20.1009
20.1024
20.0999
20.0959
20.0959
20.0957
20.0957
20.0965
20.0965
20.0963
20.0963
20.0974
20.0925
20.0966
20.0914
20.1009
20.1041
20.0999
20.1024
20.0728
20.1411
20.0734
20.1433
20.0794
20.1163
20.0795
20.1197
20.1377
20.0711
20.1393
20.072
20.1106
20.0786
20.1133
20.0791
20.0941
20.099
20.0934
20.0982
20.1068
20.1029
20.1056
20.1019
20.0967
20.0967
20.0962
20.0962
20.0974
20.0973
20.0969
20.0969
20.099
20.0941
20.0982
20.0934
20.1029
20.1068
20.1019
20.1055
20.0711
20.1376
20.072
20.1393
20.0786
20.1106
20.0791
20.1133
20.1349
20.0691
20.1362
20.0701
20.1061
20.0771
20.1082
20.0779
20.095
20.1006
20.0946
20.0998
20.1086
20.1048
20.1078
20.1038
20.0978
20.0978
20.0972
20.0972
20.0985
20.0985
20.0979
20.0979
20.1006
20.095
20.0998
20.0946
20.1048
20.1086
20.1038
20.1078
20.0691
20.1348
20.0701
20.1362
20.0771
20.1061
20.0779
20.1082
20.1326
20.0671
20.1337
20.0681
20.1024
20.0754
20.1042
20.0763
20.0955
20.1019
20.0953
20.1013
20.1099
20.1064
20.1093
20.1056
20.099
20.099
20.0984
20.0984
20.0997
20.0997
20.0991
20.099
20.1019
20.0954
20.1013
20.0953
20.1064
20.1099
20.1056
20.1093
20.0671
20.1325
20.0681
20.1336
20.0754
20.1024
20.0763
20.1042
20.1306
20.0652
20.1315
20.0661
20.0994
20.0737
20.1008
20.0746
20.0955
20.1031
20.0955
20.1025
20.1107
20.1078
20.1104
20.1072
20.1002
20.1002
20.0996
20.0996
20.1008
20.1008
20.1003
20.1003
20.1031
20.0955
20.1025
20.0955
20.1078
20.1107
20.1071
20.1104
20.0653
20.1306
20.0662
20.1315
20.0737
20.0994
20.0746
20.1008
20.1289
20.0635
20.1297
20.0644
20.0968
20.072
20.098
20.0729
20.0954
20.104
20.0955
20.1036
20.1112
20.109
20.111
20.1084
20.1013
20.1013
20.1008
20.1008
20.1019
20.1019
20.1014
20.1014
20.104
20.0954
20.1036
20.0955
20.109
20.1111
20.1084
20.111
20.0635
20.1288
20.0644
20.1297
20.0721
20.0968
20.0729
20.098
20.1273
20.0619
20.1281
20.0627
20.0946
20.0704
20.0956
20.0712
20.095
20.1047
20.0952
20.1044
20.1113
20.1099
20.1113
20.1095
20.1022
20.1022
20.1017
20.1017
20.1029
20.1029
20.1024
20.1024
20.1047
20.095
20.1044
20.0952
20.1099
20.1113
20.1095
20.1113
20.0619
20.1273
20.0627
20.1281
20.0704
20.0946
20.0712
20.0956
20.126
20.0604
20.1266
20.0611
20.0926
20.0689
20.0936
20.0697
20.0946
20.1052
20.0948
20.105
20.1113
20.1105
20.1113
20.1102
20.1029
20.1029
20.1026
20.1026
20.1036
20.1036
20.1032
20.1032
20.1052
20.0946
20.105
20.0948
20.1105
20.1113
20.1102
20.1113
20.0604
20.1259
20.0611
20.1266
20.0689
20.0926
20.0697
20.0935
20.1247
20.0589
20.1253
20.0596
20.0909
20.0675
20.0917
20.0682
20.0941
20.1055
20.0944
20.1054
20.1111
20.111
20.1112
20.1108
20.1034
20.1034
20.1032
20.1032
20.1041
20.1041
20.1039
20.1039
20.1055
20.0941
20.1054
20.0944
20.1109
20.1111
20.1108
20.1112
20.0589
20.1247
20.0596
20.1253
20.0675
20.0909
20.0682
20.0917
20.1235
20.0576
20.1241
20.0583
20.0893
20.0661
20.0901
20.0668
20.0936
20.1056
20.0938
20.1056
20.1107
20.1112
20.1109
20.1111
20.1037
20.1037
20.1036
20.1036
20.1044
20.1044
20.1043
20.1043
20.1056
20.0936
20.1056
20.0939
20.1111
20.1107
20.1111
20.1109
20.0576
20.1235
20.0583
20.1241
20.0661
20.0893
20.0668
20.0901
20.1224
20.0564
20.1229
20.057
20.0879
20.0649
20.0886
20.0655
20.0929
20.1056
20.0933
20.1056
20.1103
20.1112
20.1105
20.1112
20.1038
20.1038
20.1038
20.1038
20.1045
20.1045
20.1045
20.1045
20.1056
20.0929
20.1056
20.0933
20.1112
20.1103
20.1112
20.1105
20.0564
20.1224
20.057
20.1229
20.0649
20.0879
20.0655
20.0886
20.1213
20.0552
20.1219
20.0558
20.0866
20.0636
20.0872
20.0642
20.0923
20.1054
20.0926
20.1055
20.1097
20.1111
20.11
20.1112
20.1038
20.1038
20.1038
20.1038
20.1045
20.1045
20.1045
20.1045
20.1054
20.0923
20.1055
20.0926
20.1111
20.1097
20.1112
20.11
20.0552
20.1213
20.0558
20.1218
20.0637
20.0866
20.0643
20.0872
20.1203
20.0541
20.1208
20.0547
20.0854
20.0625
20.086
20.0631
20.0916
20.1051
20.0919
20.1052
20.109
20.1108
20.1093
20.1109
20.1036
20.1036
20.1037
20.1037
20.1043
20.1043
20.1044
20.1044
20.1051
20.0916
20.1052
20.0919
20.1108
20.109
20.1109
20.1093
20.0541
20.1203
20.0547
20.1208
20.0625
20.0854
20.0631
20.086
20.1194
20.0532
20.1199
20.0536
20.0842
20.0615
20.0848
20.062
20.0909
20.1047
20.0912
20.1049
20.1081
20.1103
20.1086
20.1106
20.1033
20.1033
20.1035
20.1035
20.1039
20.1039
20.1041
20.1041
20.1047
20.0909
20.1049
20.0912
20.1103
20.1081
20.1106
20.1086
20.0532
20.1194
20.0536
20.1198
20.0615
20.0842
20.062
20.0848
20.1185
20.0523
20.1189
20.0527
20.0832
20.0605
20.0837
20.061
20.0902
20.1043
20.0905
20.1045
20.1072
20.1098
20.1077
20.1101
20.1029
20.1029
20.1031
20.1031
20.1033
20.1033
20.1036
20.1036
20.1043
20.0902
20.1045
20.0905
20.1098
20.1072
20.1101
20.1077
20.0523
20.1185
20.0527
20.1189
20.0605
20.0832
20.061
20.0837
20.1177
20.0515
20.1181
20.0519
20.0823
20.0596
20.0828
20.06
20.0895
20.1037
20.0898
20.104
20.1062
20.1091
20.1067
20.1095
20.1024
20.1024
20.1026
20.1026
20.1027
20.1027
20.103
20.103
20.1037
20.0895
20.104
20.0898
20.1091
20.1062
20.1095
20.1067
20.0515
20.1176
20.0519
20.118
20.0595
20.0823
20.06
20.0827
20.1169
20.0508
20.1173
20.0511
20.0814
20.0587
20.0819
20.0591
20.0889
20.1031
20.0892
20.1034
20.1053
20.1084
20.1057
20.1088
20.1018
20.1018
20.1021
20.1021
20.102
20.102
20.1023
20.1023
20.1031
20.0889
20.1034
20.0892
20.1084
20.1053
20.1088
20.1057
20.0508
20.1169
20.0511
20.1173
20.0588
20.0814
20.0591
20.0818
20.1163
20.0502
20.1166
20.0505
20.0807
20.058
20.081
20.0583
20.0883
20.1024
20.0886
20.1028
20.1049
20.1076
20.1051
20.108
20.1012
20.1012
20.1015
20.1015
20.1012
20.1012
20.1016
20.1016
20.1024
20.0883
20.1028
20.0886
20.1076
20.1049
20.108
20.1051
20.0502
20.1163
20.0505
20.1165
20.058
20.0807
20.0584
20.081
20.1157
20.0497
20.116
20.0499
20.08
20.0574
20.0803
20.0577
20.0879
20.1019
20.0881
20.1021
20.1044
20.1068
20.1046
20.1072
20.1007
20.1007
20.101
20.101
20.1005
20.1005
20.1008
20.1008
20.1019
20.0879
20.1021
20.0881
20.1068
20.1044
20.1072
20.1046
20.0497
20.1157
20.0499
20.116
20.0574
20.08
20.0577
20.0803
20.1153
20.0494
20.1155
20.0495
20.0795
20.0569
20.0798
20.0571
20.0875
20.1013
20.0877
20.1016
20.1039
20.106
20.1042
20.1064
20.1002
20.1002
20.1004
20.1004
20.0997
20.0997
20.1001
20.1001
20.1013
20.0875
20.1016
20.0877
20.106
20.1039
20.1064
20.1042
20.0494
20.1153
20.0496
20.1155
20.0569
20.0795
20.0572
20.0797
20.1151
20.0493
20.1152
20.0493
20.0792
20.0566
20.0793
20.0567
20.0872
20.1009
20.0873
20.1011
20.1034
20.1052
20.1037
20.1056
20.0998
20.0998
20.1
20.1
20.0991
20.0991
20.0994
20.0994
20.1009
20.0872
20.1011
20.0874
20.1052
20.1034
20.1056
20.1037
20.0493
20.115
20.0494
20.1152
20.0566
20.0792
20.0568
20.0793
20.115
20.0494
20.115
20.0493
20.0791
20.0565
20.0791
20.0565
20.0871
20.1006
20.0872
20.1007
20.103
20.1046
20.1032
20.1049
20.0995
20.0995
20.0996
20.0996
20.0985
20.0985
20.0988
20.0988
20.1006
20.0871
20.1007
20.0872
20.1046
20.103
20.1049
20.1032
20.0494
20.115
20.0494
20.115
20.0565
20.0791
20.0565
20.0791
20.1151
20.0496
20.115
20.0495
20.0792
20.0565
20.0791
20.0565
20.0872
20.1004
20.0871
20.1005
20.1027
20.1041
20.1028
20.1043
20.0993
20.0993
20.0994
20.0994
20.0981
20.0981
20.0983
20.0983
20.1004
20.0872
20.1005
20.0871
20.1041
20.1027
20.1043
20.1028
20.0496
20.1151
20.0495
20.115
20.0565
20.0792
20.0565
20.0791
20.1154
20.0503
20.1152
20.0498
20.0795
20.0568
20.0793
20.0566
20.0874
20.1004
20.0872
20.1004
20.1025
20.1037
20.1026
20.1039
20.0994
20.0994
20.0993
20.0993
20.0979
20.0979
20.098
20.098
20.1004
20.0874
20.1004
20.0872
20.1037
20.1025
20.1039
20.1026
20.0503
20.1154
20.0498
20.1152
20.0568
20.0795
20.0566
20.0793
20.1159
20.0513
20.1156
20.0508
20.0801
20.0572
20.0798
20.0569
20.0877
20.1006
20.0875
20.1005
20.1024
20.1036
20.1024
20.1036
20.0996
20.0996
20.0995
20.0995
20.0979
20.0978
20.0978
20.0978
20.1006
20.0877
20.1005
20.0875
20.1035
20.1024
20.1036
20.1024
20.0513
20.1158
20.0508
20.1156
20.0572
20.0801
20.057
20.0798
20.1166
20.0526
20.1162
20.0519
20.081
20.0576
20.0806
20.0574
20.0883
20.1009
20.088
20.1007
20.1024
20.1036
20.1024
20.1035
20.1001
20.1001
20.0998
20.0998
20.0981
20.0981
20.0979
20.0979
20.1009
20.0883
20.1007
20.088
20.1036
20.1024
20.1035
20.1024
20.0526
20.1165
20.0519
20.1162
20.0577
20.081
20.0574
20.0806
20.1175
20.0539
20.117
20.0535
20.0822
20.0585
20.0816
20.0578
20.089
20.1015
20.0886
20.1012
20.1026
20.1038
20.1025
20.1037
20.1008
20.1008
20.1004
20.1004
20.0985
20.0985
20.0983
20.0983
20.1015
20.089
20.1012
20.0886
20.1038
20.1026
20.1037
20.1025
20.0539
20.1174
20.0535
20.117
20.0585
20.0822
20.0579
20.0816
20.1186
20.0547
20.118
20.0542
20.0837
20.0599
20.0829
20.0592
20.0898
20.1023
20.0894
20.1019
20.103
20.1043
20.1028
20.104
20.1017
20.1017
20.1012
20.1012
20.0993
20.0993
20.0989
20.0989
20.1023
20.0898
20.1019
20.0894
20.1043
20.103
20.104
20.1028
20.0547
20.1186
20.0543
20.118
20.0599
20.0837
20.0592
20.0829
20.1199
20.056
20.1192
20.0553
20.0855
20.0614
20.0845
20.0606
20.0908
20.1033
20.0903
20.1028
20.1035
20.105
20.1032
20.1046
20.1029
20.1029
20.1022
20.1022
20.1003
20.1003
20.0998
20.0998
20.1033
20.0908
20.1028
20.0903
20.105
20.1035
20.1046
20.1032
20.056
20.1198
20.0553
20.1192
20.0614
20.0854
20.0607
20.0845
20.1212
20.0575
20.1205
20.0567
20.0875
20.0629
20.0864
20.0621
20.092
20.1044
20.0914
20.1038
20.1042
20.1059
20.1038
20.1054
20.1042
20.1042
20.1035
20.1035
20.1016
20.1016
20.1009
20.1009
20.1044
20.092
20.1038
20.0914
20.1059
20.1042
20.1054
20.1038
20.0575
20.1211
20.0567
20.1205
20.0629
20.0875
20.0622
20.0864
20.1224
20.0592
20.1218
20.0583
20.0897
20.0646
20.0886
20.0637
20.0933
20.1058
20.0926
20.1051
20.105
20.107
20.1046
20.1064
20.1058
20.1058
20.105
20.105
20.1031
20.1031
20.1023
20.1023
20.1058
20.0933
20.1051
20.0926
20.107
20.105
20.1064
20.1046
20.0592
20.1223
20.0583
20.1218
20.0646
20.0897
20.0638
20.0886
20.1231
20.0612
20.1228
20.0601
20.0919
20.0666
20.0908
20.0655
20.0948
20.1073
20.094
20.1065
20.106
20.1084
20.1055
20.1077
20.1076
20.1076
20.1067
20.1067
20.1048
20.1048
20.1039
20.1039
20.1073
20.0948
20.1065
20.094
20.1084
20.106
20.1077
20.1055
20.0612
20.1231
20.0601
20.1228
20.0666
20.0919
20.0656
20.0908
20.1229
20.064
20.1232
20.0625
20.0938
20.0687
20.0929
20.0675
20.0964
20.1089
20.0956
20.1081
20.1071
20.11
20.1065
20.1092
20.1095
20.1095
20.1085
20.1085
20.1068
20.1068
20.1058
20.1058
20.1089
20.0964
20.1081
20.0956
20.11
20.1071
20.1092
20.1065
20.0641
20.1228
20.0625
20.1231
20.0687
20.0938
20.0675
20.0929
20.1179
20.0708
20.1216
20.0664
20.0927
20.0734
20.0941
20.0703
20.0982
20.1107
20.0972
20.1097
20.1083
20.1118
20.1076
20.1108
20.1115
20.1115
20.1105
20.1105
20.1089
20.1089
20.1078
20.1078
20.1107
20.0982
20.1097
20.0972
20.1118
20.1083
20.1108
20.1076
20.0708
20.1178
20.0664
20.1216
20.0734
20.0927
20.0703
20.0941
20.1322
20.0586
20.1129
20.0765
20.1032
20.0663
20.0897
20.0779
20.0995
20.1132
20.0996
20.1118
20.1099
20.1142
20.1094
20.1129
20.1135
20.1135
20.1125
20.1125
20.1112
20.1112
20.1101
20.1101
20.1132
20.0995
20.1118
20.0996
20.1142
20.1099
20.1129
20.1094
20.0586
20.1321
20.0765
20.1129
20.0663
20.1031
20.0779
20.0897
20.222
20.0253
20.1858
20.0425
20.2128
20.0262
20.1791
20.0441
20.0657
20.0922
20.0778
20.0967
20.071
20.0951
20.0814
20.0981
20.1001
20.1001
20.1008
20.1008
20.1002
20.1002
20.1007
20.1007
20.0923
20.0658
20.0967
20.0778
20.0951
20.0711
20.0981
20.0814
20.0253
20.2218
20.0426
20.1857
20.0263
20.2125
20.0441
20.1789
20.1731
20.0753
20.1888
20.0594
20.1706
20.0693
20.1842
20.0556
20.0726
20.0875
20.0701
20.0896
20.0761
20.0907
20.0743
20.0927
20.0961
20.0961
20.0984
20.0984
20.0975
20.0975
20.0991
20.0991
20.0875
20.0726
20.0896
20.0701
20.0907
20.0761
20.0927
20.0744
20.0753
20.173
20.0594
20.1886
20.0693
20.1705
20.0557
20.1841
20.1606
20.0851
20.1654
20.082
20.1591
20.0778
20.1637
20.0752
20.0777
20.0869
20.0753
20.0869
20.0807
20.0903
20.0785
20.0902
20.0931
20.0931
20.0944
20.0944
20.0951
20.0951
20.0962
20.0962
20.0869
20.0778
20.0869
20.0753
20.0903
20.0807
20.0902
20.0785
20.085
20.1605
20.082
20.1653
20.0778
20.159
20.0752
20.1636
20.1549
20.0866
20.1573
20.0863
20.1533
20.079
20.1558
20.0788
20.0809
20.0877
20.0796
20.0872
20.0838
20.0912
20.0824
20.0907
20.0919
20.0919
20.0923
20.0923
20.0942
20.0942
20.0945
20.0945
20.0877
20.0809
20.0873
20.0796
20.0912
20.0838
20.0907
20.0824
20.0866
20.1549
20.0863
20.1572
20.079
20.1532
20.0788
20.1557
20.1517
20.086
20.1531
20.0864
20.1497
20.0781
20.1513
20.0787
20.0824
20.0886
20.0818
20.0882
20.0855
20.0926
20.0848
20.0919
20.0919
20.0919
20.0918
20.0918
20.0943
20.0943
20.0941
20.0941
20.0886
20.0824
20.0882
20.0818
20.0926
20.0855
20.0919
20.0848
20.086
20.1517
20.0864
20.1531
20.0781
20.1496
20.0787
20.1513
20.1494
20.0847
20.1505
20.0854
20.1471
20.0765
20.1483
20.0773
20.0829
20.0895
20.0827
20.0891
20.0864
20.0939
20.086
20.0932
20.0926
20.0926
20.0922
20.0922
20.095
20.095
20.0946
20.0946
20.0895
20.0829
20.0891
20.0827
20.0939
20.0864
20.0932
20.086
20.0847
20.1494
20.0854
20.1504
20.0765
20.147
20.0773
20.1482
20.1476
20.0833
20.1485
20.084
20.145
20.0748
20.146
20.0756
20.0831
20.0903
20.083
20.0899
20.0867
20.095
20.0866
20.0945
20.0935
20.0935
20.093
20.093
20.096
20.096
20.0955
20.0955
20.0903
20.0831
20.0899
20.083
20.095
20.0867
20.0945
20.0866
20.0833
20.1476
20.084
20.1484
20.0748
20.1449
20.0756
20.1459
20.1461
20.0819
20.1468
20.0826
20.1432
20.073
20.1441
20.0739
20.0829
20.091
20.083
20.0907
20.0867
20.096
20.0867
20.0955
20.0945
20.0945
20.094
20.094
20.0972
20.0972
20.0966
20.0966
20.091
20.0829
20.0907
20.083
20.096
20.0867
20.0955
20.0867
20.0818
20.146
20.0826
20.1468
20.073
20.1432
20.0739
20.144
20.1447
20.0804
20.1454
20.0811
20.1417
20.0713
20.1425
20.0721
20.0826
20.0915
20.0828
20.0913
20.0865
20.0968
20.0866
20.0964
20.0955
20.0955
20.095
20.095
20.0983
20.0983
20.0977
20.0977
20.0915
20.0826
20.0913
20.0828
20.0968
20.0865
20.0964
20.0866
20.0804
20.1447
20.0811
20.1453
20.0713
20.1417
20.0721
20.1424
20.1435
20.0791
20.1441
20.0798
20.1404
20.0697
20.141
20.0705
20.0822
20.0919
20.0824
20.0917
20.0861
20.0974
20.0863
20.0971
20.0963
20.0963
20.0959
20.0959
20.0992
20.0992
20.0988
20.0988
20.0919
20.0822
20.0917
20.0824
20.0974
20.0861
20.0971
20.0863
20.0791
20.1435
20.0798
20.1441
20.0697
20.1403
20.0705
20.141
20.1424
20.0778
20.143
20.0784
20.1391
20.0682
20.1397
20.069
20.0817
20.0922
20.0819
20.0921
20.0857
20.0979
20.0859
20.0977
20.097
20.097
20.0967
20.0967
20.1001
20.1001
20.0997
20.0997
20.0922
20.0817
20.0921
20.0819
20.0979
20.0857
20.0977
20.0859
20.0778
20.1424
20.0784
20.1429
20.0683
20.1391
20.069
20.1397
20.1414
20.0766
20.1419
20.0772
20.138
20.0669
20.1386
20.0675
20.0811
20.0923
20.0814
20.0923
20.0852
20.0981
20.0854
20.098
20.0975
20.0975
20.0973
20.0973
20.1007
20.1007
20.1004
20.1004
20.0923
20.0811
20.0923
20.0814
20.0981
20.0852
20.098
20.0854
20.0766
20.1414
20.0772
20.1419
20.0669
20.138
20.0675
20.1385
20.1404
20.0755
20.1409
20.076
20.1369
20.0655
20.1375
20.0662
20.0805
20.0923
20.0808
20.0923
20.0846
20.0982
20.0849
20.0982
20.0979
20.0979
20.0977
20.0977
20.1012
20.1012
20.101
20.101
20.0923
20.0806
20.0923
20.0808
20.0982
20.0846
20.0982
20.0849
20.0755
20.1404
20.076
20.1409
20.0656
20.1369
20.0662
20.1374
20.1395
20.0744
20.14
20.0749
20.1359
20.0643
20.1364
20.0649
20.0799
20.0922
20.0803
20.0923
20.084
20.0982
20.0843
20.0982
20.0981
20.0981
20.098
20.098
20.1015
20.1015
20.1013
20.1013
20.0922
20.08
20.0923
20.0803
20.0982
20.084
20.0982
20.0843
20.0744
20.1395
20.0749
20.1399
20.0643
20.1359
20.0649
20.1364
20.1387
20.0734
20.1391
20.0739
20.135
20.0632
20.1355
20.0637
20.0793
20.0921
20.0796
20.0922
20.0834
20.0981
20.0837
20.0981
20.0982
20.0982
20.0982
20.0982
20.1016
20.1016
20.1015
20.1015
20.0921
20.0793
20.0922
20.0796
20.0981
20.0834
20.0981
20.0837
20.0734
20.1386
20.0739
20.139
20.0632