/*--------------------------------*- C++ -*----------------------------------*\
  =========                 |
  \\      /  F ield         | OpenFOAM: The Open Source CFD Toolbox
   \\    /   O peration     | Website:  https://openfoam.org
    \\  /    A nd           | Version:  9
     \\/     M anipulation  |
\*---------------------------------------------------------------------------*/
FoamFile
{
    format      ascii;
    class       surfaceScalarField;
    location    "5";
    object      phi;
}
// * * * * * * * * * * * * * * * * * * * * * * * * * * * * * * * * * * * * * //

dimensions      [0 3 -1 0 0 0 0];

internalField   nonuniform List<scalar> 
104044
(
1.50452e-06
-7.15069e-05
-5.15765e-06
6.80524e-05
7.10768e-06
-4.55735e-05
4.11221e-06
-6.10571e-07
4.86051e-05
-5.02881e-06
1.37622e-06
-9.99824e-06
9.54089e-06
6.25911e-06
-5.70641e-07
-5.84562e-06
-8.22005e-07
-9.05912e-05
8.62556e-05
-2.91389e-05
4.20897e-07
3.20082e-05
-5.05157e-07
2.5002e-07
-4.83945e-08
-4.93438e-05
-2.37939e-06
4.91591e-05
2.00189e-06
-5.13284e-05
-1.71008e-06
1.5387e-09
5.09549e-05
2.03366e-06
-5.28746e-08
-2.33275e-06
1.47526e-06
-2.27812e-06
-1.50674e-09
1.98027e-06
2.27762e-08
-4.38015e-05
4.18202e-05
-5.07795e-05
2.66385e-09
4.90895e-05
-2.75411e-09
-3.25185e-09
-8.77708e-12
-5.22804e-05
-1.4397e-06
5.19266e-05
1.7951e-06
-5.22808e-05
-1.43977e-06
-1.55757e-09
5.1927e-05
1.79513e-06
7.01327e-12
-2.11922e-06
1.88669e-06
-2.11908e-06
1.5097e-09
1.88662e-06
-1.49535e-11
-5.30306e-05
5.15935e-05
-5.30322e-05
-2.68611e-09
5.15951e-05
-1.17325e-11
3.22026e-09
4.83345e-08
-5.13293e-05
-1.7103e-06
5.09559e-05
2.03381e-06
-4.93442e-05
-2.38044e-06
6.09983e-07
4.91592e-05
2.00379e-06
5.27856e-08
-2.27784e-06
1.98025e-06
-2.33355e-06
5.69925e-07
1.47696e-06
-2.26961e-08
-5.0785e-05
4.90947e-05
-4.38109e-05
-4.20127e-07
4.18279e-05
2.77038e-09
-2.49419e-07
-1.50238e-06
-4.557e-05
4.10255e-06
4.85995e-05
-5.01965e-06
-7.15031e-05
-5.15101e-06
6.80529e-05
7.09877e-06
-1.37367e-06
6.24865e-06
-5.83756e-06
-9.98343e-06
9.5278e-06
8.19933e-07
-2.91415e-05
3.2004e-05
-9.05842e-05
8.62531e-05
5.0364e-07
2.28913e-07
-6.56349e-05
-6.53199e-06
6.38635e-05
8.07456e-06
-5.02459e-05
6.61033e-06
-1.34065e-07
5.11793e-05
-7.18072e-06
7.05739e-07
-5.80947e-06
7.52114e-06
5.60152e-06
-2.92618e-07
-6.24394e-06
-2.21712e-06
-8.20256e-05
7.77108e-05
-3.52928e-05
9.65527e-07
3.87205e-05
-1.57956e-06
7.37436e-07
7.05924e-08
-4.91663e-05
-7.65827e-07
4.93612e-05
3.66237e-07
-5.06249e-05
-9.70057e-07
1.41291e-08
5.03897e-05
1.26176e-06
1.11488e-08
-1.43849e-06
1.12758e-06
-1.29204e-06
1.00357e-08
1.62319e-06
1.42998e-07
-4.10402e-05
4.10969e-05
-4.78666e-05
2.03151e-08
4.70193e-05
7.89749e-08
9.80578e-09
-6.81944e-13
-5.15741e-05
-8.57127e-07
5.12532e-05
1.1921e-06
-5.15745e-05
-8.57177e-07
-1.41447e-08
5.12536e-05
1.19221e-06
-1.73101e-11
-1.09457e-06
1.45711e-06
-1.09466e-06
-1.00616e-08
1.45719e-06
6.96366e-11
-5.05088e-05
4.96719e-05
-5.05103e-05
-2.03085e-08
4.96735e-05
-1.66776e-11
-9.83324e-09
-7.03724e-08
-5.06258e-05
-9.70539e-07
5.03902e-05
1.26231e-06
-4.91657e-05
-7.67711e-07
1.34062e-07
4.93597e-05
3.69247e-07
-1.10864e-08
-1.29241e-06
1.62356e-06
-1.44021e-06
2.92471e-07
1.13015e-06
-1.43173e-07
-4.78713e-05
4.70236e-05
-4.10452e-05
-9.64393e-07
4.10987e-05
-7.88305e-08
-7.36359e-07
-2.29305e-07
-5.02397e-05
6.60301e-06
5.11734e-05
-7.17334e-06
-6.56368e-05
-6.52557e-06
6.38659e-05
8.06716e-06
-7.05334e-07
5.59309e-06
-6.23555e-06
-5.80307e-06
7.51387e-06
2.2135e-06
-3.52843e-05
3.87094e-05
-8.20265e-05
7.77144e-05
1.57645e-06
-4.26504e-07
-6.2419e-05
-6.31917e-06
6.12199e-05
7.94479e-06
-5.18158e-05
6.66845e-06
-9.6798e-09
5.22815e-05
-7.55102e-06
-1.32236e-07
-6.43085e-06
8.00754e-06
6.68153e-06
-6.46124e-08
-7.38566e-06
-3.17177e-06
-7.39909e-05
7.08435e-05
-4.15805e-05
1.22215e-06
4.3855e-05
-2.71097e-06
1.11051e-06
2.37688e-07
-4.96402e-05
-2.39588e-07
4.99478e-05
-3.15334e-07
-5.02676e-05
-4.68017e-07
4.33673e-08
5.02396e-05
6.90299e-07
1.60626e-07
-4.07876e-07
-9.63845e-08
-6.83394e-07
2.74191e-08
9.38647e-07
2.43037e-07
-4.1597e-05
4.23365e-05
-4.65025e-05
4.6865e-08
4.62307e-05
2.02508e-07
3.58556e-08
-4.54128e-11
-5.10048e-05
-5.32883e-07
5.08348e-05
7.46329e-07
-5.1005e-05
-5.33655e-07
-4.28733e-08
5.08349e-05
7.46538e-07
1.44059e-10
-6.67673e-07
9.43392e-07
-6.67476e-07
-2.72317e-08
9.43495e-07
-1.82485e-09
-4.90391e-05
4.85549e-05
-4.90395e-05
-5.25152e-08
4.85566e-05
9.68628e-10
-3.25574e-08
-2.368e-07
-5.02678e-05
-4.68687e-07
5.02395e-05
6.90948e-07
-4.96388e-05
-2.39384e-07
9.51011e-09
4.99455e-05
-3.13648e-07
-1.60804e-07
-6.83278e-07
9.39284e-07
-4.1012e-07
6.47782e-08
-9.45469e-08
-2.48931e-07
-4.6505e-05
4.62328e-05
-4.15989e-05
-1.22352e-06
4.23341e-05
-1.97264e-07
-1.10756e-06
4.253e-07
-5.18107e-05
6.66419e-06
5.22767e-05
-7.54596e-06
-6.24219e-05
-6.31403e-06
6.12227e-05
7.93858e-06
1.31511e-07
6.67547e-06
-7.37945e-06
-6.42528e-06
8.0008e-06
3.16702e-06
-4.15696e-05
4.38432e-05
-7.39969e-05
7.08499e-05
2.70775e-06
-8.47319e-07
-6.02396e-05
-5.97671e-06
5.94253e-05
7.6383e-06
-5.26298e-05
6.49518e-06
-3.94075e-09
5.28963e-05
-7.60511e-06
-6.53988e-07
-6.06834e-06
7.70264e-06
6.50134e-06
2.68037e-09
-7.50623e-06
-3.8136e-06
-6.82643e-05
6.61012e-05
-4.55943e-05
1.31951e-06
4.69564e-05
-3.48917e-06
1.27289e-06
3.52794e-07
-5.02644e-05
-1.55464e-07
5.05825e-05
-5.19419e-07
-5.02873e-05
-1.81761e-07
7.63386e-08
5.03921e-05
3.53361e-07
2.97674e-07
-1.69002e-07
-4.42583e-07
-2.99161e-07
5.89576e-08
4.9026e-07
3.18373e-07
-4.3157e-05
4.40027e-05
-4.6149e-05
7.95768e-08
4.6206e-05
2.83373e-07
6.5885e-08
2.41494e-11
-5.07421e-05
-3.16331e-07
5.07145e-05
4.20239e-07
-5.07421e-05
-3.16523e-07
-7.62076e-08
5.07145e-05
4.20441e-07
6.8081e-11
-4.11791e-07
5.63317e-07
-4.11675e-07
-5.89957e-08
5.63515e-07
-7.41155e-12
-4.82081e-05
4.79713e-05
-4.82087e-05
-7.98169e-08
4.7972e-05
9.38543e-10
-6.28399e-08
-3.52373e-07
-5.02868e-05
-1.82305e-07
5.03914e-05
3.53879e-07
-5.02621e-05
-1.55938e-07
3.79126e-09
5.05801e-05
-5.18248e-07
-2.97311e-07
-2.99901e-07
4.90871e-07
-1.70088e-07
-2.66273e-09
-4.41117e-07
-3.18304e-07
-4.61505e-05
4.62067e-05
-4.31548e-05
-1.31886e-06
4.39994e-05
-2.8045e-07
-1.27123e-06
8.46095e-07
-5.26256e-05
6.49176e-06
5.28927e-05
-7.60115e-06
-6.02424e-05
-5.97292e-06
5.94281e-05
7.63336e-06
6.5286e-07
6.49735e-06
-7.50179e-06
-6.06408e-06
7.6972e-06
3.80985e-06
-4.55838e-05
4.69468e-05
-6.82714e-05
6.61083e-05
3.48558e-06
-1.11544e-06
-5.87559e-05
-5.73422e-06
5.81997e-05
7.40591e-06
-5.31075e-05
6.40293e-06
-4.57702e-08
5.32807e-05
-7.64586e-06
-9.86421e-07
-5.78012e-06
7.43593e-06
6.37129e-06
-2.14625e-08
-7.54741e-06
-4.23739e-06
-6.43285e-05
6.28316e-05
-4.79997e-05
1.33492e-06
4.88304e-05
-4.00738e-06
1.32054e-06
4.24801e-07
-5.08877e-05
-2.03287e-07
5.11811e-05
-5.60726e-07
-5.05361e-05
-4.17062e-08
1.08343e-07
5.07111e-05
1.83246e-07
3.89813e-07
-1.70803e-07
-5.45628e-07
-9.71101e-08
9.17568e-08
2.51149e-07
3.69652e-07
-4.48093e-05
4.55712e-05
-4.63595e-05
1.06114e-07
4.65813e-05
3.43184e-07
9.2649e-08
4.71938e-11
-5.07417e-05
-1.62093e-07
5.08142e-05
1.97824e-07
-5.07415e-05
-1.62237e-07
-1.0817e-07
5.0814e-05
1.9796e-07
3.82287e-11
-2.30265e-07
2.94857e-07
-2.30426e-07
-9.16032e-08
2.95028e-07
4.78034e-11
-4.78337e-05
4.77777e-05
-4.78341e-05
-1.05958e-07
4.77779e-05
3.49685e-11
-9.25076e-08
-4.24422e-07
-5.05352e-05
-4.204e-08
5.071e-05
1.83528e-07
-5.08853e-05
-2.03419e-07
4.5503e-08
5.11788e-05
-5.60001e-07
-3.89411e-07
-9.75554e-08
2.51539e-07
-1.71079e-07
2.12483e-08
-5.4472e-07
-3.69334e-07
-4.63594e-05
4.65808e-05
-4.48055e-05
-1.33448e-06
4.55672e-05
-3.42863e-07
-1.32e-06
1.11425e-06
-5.31043e-05
6.4001e-06
5.3278e-05
-7.64254e-06
-5.87585e-05
-5.73114e-06
5.82022e-05
7.40178e-06
9.85213e-07
6.36824e-06
-7.54385e-06
-5.77673e-06
7.43145e-06
4.23396e-06
-4.79912e-05
4.88229e-05
-6.43354e-05
6.28382e-05
4.00382e-06
-1.28755e-06
-5.77411e-05
-5.57168e-06
5.73609e-05
7.23933e-06
-5.34295e-05
6.36283e-06
-1.00811e-07
5.35603e-05
-7.68032e-06
-1.19874e-06
-5.58319e-06
7.24055e-06
6.31052e-06
-7.20024e-08
-7.58606e-06
-4.51573e-06
-6.15954e-05
6.05395e-05
-4.94798e-05
1.31453e-06
5.00124e-05
-4.34697e-06
1.31408e-06
4.63767e-07
-5.14568e-05
-2.74946e-07
5.17198e-05
-5.52641e-07
-5.09063e-05
2.42062e-08
1.36093e-07
5.11141e-05
9.56794e-08
4.42948e-07
-2.37813e-07
-5.52866e-07
-5.45712e-09
1.21764e-07
1.3138e-07
4.02152e-07
-4.62634e-05
4.69009e-05
-4.68439e-05
1.2674e-07
4.71435e-05
3.84074e-07
1.1599e-07
5.83203e-11
-5.09216e-05
-5.53921e-08
5.10591e-05
5.39628e-08
-5.09213e-05
-5.54851e-08
-1.35904e-07
5.10588e-05
5.40179e-08
5.27393e-11
-1.01974e-07
1.16285e-07
-1.02096e-07
-1.21583e-07
1.1638e-07
5.96173e-11
-4.77916e-05
4.78629e-05
-4.77916e-05
-1.26572e-07
4.78628e-05
5.41608e-11
-1.15828e-07
-4.63445e-07
-5.09052e-05
2.39887e-08
5.11129e-05
9.57832e-08
-5.14546e-05
-2.74895e-07
1.00475e-07
5.17177e-05
-5.52165e-07
-4.426e-07
-5.74227e-09
1.31571e-07
-2.37842e-07
7.1699e-08
-5.52287e-07
-4.01863e-07
-4.6843e-05
4.71423e-05
-4.62593e-05
-1.31425e-06
4.68968e-05
-3.83772e-07
-1.31374e-06
1.28648e-06
-5.34272e-05
6.3603e-06
5.35583e-05
-7.67739e-06
-5.77434e-05
-5.56904e-06
5.73631e-05
7.23578e-06
1.19762e-06
6.30788e-06
-7.58298e-06
-5.58035e-06
7.23675e-06
4.51264e-06
-4.94733e-05
5.00067e-05
-6.16016e-05
6.05452e-05
4.34375e-06
-1.39704e-06
-5.70476e-05
-5.4507e-06
5.67903e-05
7.10497e-06
-5.36814e-05
6.33612e-06
-1.54921e-07
5.37953e-05
-7.69216e-06
-1.33459e-06
-5.44534e-06
7.09332e-06
6.27901e-06
-1.27004e-07
-7.60772e-06
-4.69223e-06
-5.96608e-05
5.89023e-05
-5.04405e-05
1.27869e-06
5.08057e-05
-4.56665e-06
1.28429e-06
4.80106e-07
-5.19669e-05
-3.34905e-07
5.22033e-05
-5.36535e-07
-5.13274e-05
5.01278e-08
1.58542e-07
5.15489e-05
4.99488e-08
4.69277e-07
-3.04895e-07
-5.38475e-07
4.08807e-08
1.46522e-07
6.85463e-08
4.20202e-07
-4.74719e-05
4.79955e-05
-4.74595e-05
1.40965e-07
4.77889e-05
4.08394e-07
1.33278e-07
6.54226e-11
-5.12146e-05
1.75196e-08
5.13921e-05
-3.6512e-08
-5.12143e-05
1.74628e-08
-1.58339e-07
5.13918e-05
-3.65117e-08
6.13729e-11
-1.6419e-08
7.30633e-09
-1.64957e-08
-1.46326e-07
7.3256e-09
6.59673e-11
-4.79797e-05
4.81381e-05
-4.79795e-05
-1.40799e-07
4.81378e-05
6.26444e-11
-1.33111e-07
-4.79843e-07
-5.13263e-05
5.00797e-08
5.15478e-05
4.99201e-08
-5.1965e-05
-3.34787e-07
1.54549e-07
5.22015e-05
-5.36196e-07
-4.6899e-07
4.07704e-08
6.85755e-08
-3.048e-07
1.26652e-07
-5.38081e-07
-4.19944e-07
-4.7458e-05
4.77873e-05
-4.74679e-05
-1.27852e-06
4.79917e-05
-4.08124e-07
-1.28407e-06
1.39609e-06
-5.36797e-05
6.3338e-06
5.37938e-05
-7.68949e-06
-5.70496e-05
-5.44836e-06
5.67922e-05
7.10183e-06
1.33359e-06
6.27662e-06
-7.60496e-06
-5.44286e-06
7.09e-06
4.68945e-06
-5.04355e-05
5.08013e-05
-5.96661e-05
5.89072e-05
4.56375e-06
-1.46536e-06
-5.65793e-05
-5.35286e-06
5.64096e-05
6.98787e-06
-5.39072e-05
6.3069e-06
-1.9226e-07
5.40144e-05
-7.68713e-06
-1.42131e-06
-5.34205e-06
6.97438e-06
6.25717e-06
-1.75597e-07
-7.61476e-06
-4.80026e-06
-5.82671e-05
5.77145e-05
-5.11098e-05
1.23797e-06
5.13784e-05
-4.70681e-06
1.24625e-06
4.82884e-07
-5.24276e-05
-3.71692e-07
5.26471e-05
-5.22974e-07
-5.17719e-05
5.47169e-08
1.76704e-07
5.19993e-05
2.40831e-08
4.77935e-07
-3.54126e-07
-5.23651e-07
5.32429e-08
1.66336e-07
3.53518e-08
4.28581e-07
-4.84664e-05
4.89041e-05
-4.8119e-05
1.49311e-07
4.8453e-05
4.21206e-07
1.44367e-07
6.98361e-11
-5.15825e-05
6.7817e-08
5.17859e-05
-9.45702e-08
-5.15821e-05
6.77873e-08
-1.76501e-07
5.17855e-05
-9.46089e-08
6.6785e-11
4.46298e-08
-6.87496e-08
4.45879e-08
-1.66136e-07
-6.87711e-08
6.91607e-11
-4.8327e-05
4.85441e-05
-4.83266e-05
-1.49154e-07
4.85436e-05
6.71347e-11
-1.44206e-07
-4.82658e-07
-5.17708e-05
5.47589e-08
5.19982e-05
2.39723e-08
-5.24259e-05
-3.71613e-07
1.92002e-07
5.26456e-05
-5.22706e-07
-4.77695e-07
5.32445e-08
3.52789e-08
-3.54032e-07
1.75335e-07
-5.23358e-07
-4.28349e-07
-4.81173e-05
4.84512e-05
-4.84629e-05
-1.23787e-06
4.89008e-05
-4.20963e-07
-1.24612e-06
1.46453e-06
-5.39059e-05
6.30479e-06
5.40133e-05
-7.68465e-06
-5.6581e-05
-5.35073e-06
5.64113e-05
6.98503e-06
1.42043e-06
6.25498e-06
-7.61221e-06
-5.33983e-06
6.97141e-06
4.79774e-06
-5.1106e-05
5.13752e-05
-5.82716e-05
5.77186e-05
4.70419e-06
-1.5053e-06
-5.62726e-05
-5.26144e-06
5.61674e-05
6.87195e-06
-5.41223e-05
6.26525e-06
-2.18348e-07
5.42298e-05
-7.65967e-06
-1.47315e-06
-5.24836e-06
6.85851e-06
6.21976e-06
-2.03759e-07
-7.59708e-06
-4.85644e-06
-5.72512e-05
5.68462e-05
-5.16083e-05
1.19626e-06
5.18208e-05
-4.78514e-06
1.20478e-06
4.7717e-07
-5.28584e-05
-3.89989e-07
5.30654e-05
-5.12545e-07
-5.22251e-05
4.90387e-08
1.94118e-07
5.24521e-05
7.01372e-09
4.7596e-07
-3.7917e-07
-5.1186e-07
5.20848e-08
1.83473e-07
1.46116e-08
4.30127e-07
-4.93039e-05
4.96801e-05
-4.87806e-05
1.53017e-07
4.91068e-05
4.25731e-07
1.50119e-07
7.13188e-11
-5.1996e-05
1.02703e-07
5.22159e-05
-1.28477e-07
-5.19957e-05
1.0269e-07
-1.93906e-07
5.22155e-05
-1.28542e-07
7.08437e-11
8.57791e-08
-1.12535e-07
8.57577e-08
-1.83267e-07
-1.12587e-07
6.92975e-11
-4.87799e-05
4.90356e-05
-4.87794e-05
-1.52871e-07
4.90351e-05
6.89213e-11
-1.49969e-07
-4.76987e-07
-5.22241e-05
4.91448e-08
5.24511e-05
6.8855e-09
-5.2857e-05
-3.89912e-07
2.18084e-07
5.30641e-05
-5.12305e-07
-4.75758e-07
5.21645e-08
1.44602e-08
-3.79095e-07
2.03497e-07
-5.11608e-07
-4.29919e-07
-4.87789e-05
4.91051e-05
-4.93009e-05
-1.19619e-06
4.96772e-05
-4.25513e-07
-1.2047e-06
1.50456e-06
-5.41214e-05
6.26326e-06
5.4229e-05
-7.65735e-06
-5.62741e-05
-5.25946e-06
5.61688e-05
6.86933e-06
1.47237e-06
6.21773e-06
-7.5947e-06
-5.24631e-06
6.8558e-06
4.85413e-06
-5.16054e-05
5.18184e-05
-5.7255e-05
5.68497e-05
4.78276e-06
-1.52692e-06
-5.60858e-05
-5.1746e-06
5.60291e-05
6.75822e-06
-5.43402e-05
6.21744e-06
-2.39885e-07
5.44513e-05
-7.61566e-06
-1.50358e-06
-5.16362e-06
6.74883e-06
6.17941e-06
-2.27441e-07
-7.56597e-06
-4.87791e-06
-5.65074e-05
5.62107e-05
-5.20104e-05
1.15665e-06
5.21933e-05
-4.82479e-06
1.165e-06
4.66226e-07
-5.3266e-05
-3.98501e-07
5.34639e-05
-5.05422e-07
-5.26759e-05
4.21386e-08
2.00747e-07
5.29005e-05
-1.27762e-09
4.67661e-07
-3.92322e-07
-5.03401e-07
4.4743e-08
1.96527e-07
2.57368e-09
4.2722e-07
-5.00277e-05
5.03586e-05
-4.94244e-05
1.53724e-07
4.974e-05
4.25069e-07
1.52212e-07
6.82042e-11
-5.24374e-05
1.23266e-07
5.26636e-05
-1.48772e-07
-5.24371e-05
1.23272e-07
-2.00557e-07
5.26633e-05
-1.4885e-07
6.92371e-11
1.13521e-07
-1.38649e-07
1.13518e-07
-1.96329e-07
-1.38721e-07
6.6869e-11
-4.93012e-05
4.95782e-05
-4.93007e-05
-1.5359e-07
4.95777e-05
6.76838e-11
-1.52073e-07
-4.66074e-07
-5.2675e-05
4.22607e-08
5.28997e-05
-1.42602e-09
-5.32649e-05
-3.98433e-07
2.39625e-07
5.34628e-05
-5.05192e-07
-4.67497e-07
4.48569e-08
2.43272e-09
-3.92249e-07
2.27181e-07
-5.03171e-07
-4.27032e-07
-4.94228e-05
4.97385e-05
-5.0025e-05
-1.15661e-06
5.03562e-05
-4.24873e-07
-1.16495e-06
1.52626e-06
-5.43395e-05
6.21555e-06
5.44508e-05
-7.61347e-06
-5.60871e-05
-5.17274e-06
5.60303e-05
6.75578e-06
1.50289e-06
6.17749e-06
-7.56374e-06
-5.1617e-06
6.74631e-06
4.87578e-06
-5.20083e-05
5.21915e-05
-5.65106e-05
5.62136e-05
4.8226e-06
-1.53522e-06
-5.5989e-05
-5.08789e-06
5.59686e-05
6.64351e-06
-5.45659e-05
6.15897e-06
-2.5702e-07
5.46813e-05
-7.5525e-06
-1.51724e-06
-5.07565e-06
6.63299e-06
6.12436e-06
-2.46447e-07
-7.50974e-06
-4.8722e-06
-5.59649e-05
5.57492e-05
-5.23614e-05
1.11948e-06
5.25286e-05
-4.8298e-06
1.1265e-06
4.5235e-07
-5.36566e-05
-4.00015e-07
5.38473e-05
-5.00071e-07
-5.31212e-05
3.61374e-08
2.01706e-07
5.33419e-05
-6.15527e-09
4.54912e-07
-3.96763e-07
-4.97328e-07
3.85061e-08
1.99657e-07
-3.9796e-09
4.21296e-07
-5.0668e-05
5.09662e-05
-5.00471e-05
1.52482e-07
5.03521e-05
4.2036e-07
1.51782e-07
6.41002e-11
-5.28887e-05
1.33542e-07
5.31161e-05
-1.59319e-07
-5.28884e-05
1.33557e-07
-2.01533e-07
5.31158e-05
-1.59399e-07
6.55868e-11
1.28034e-07
-1.53511e-07
1.28045e-07
-1.99478e-07
-1.53589e-07
6.29995e-11
-4.98579e-05
5.01439e-05
-4.98574e-05
-1.52358e-07
5.01434e-05
6.44076e-11
-1.51654e-07
-4.52221e-07
-5.31205e-05
3.62666e-08
5.33412e-05
-6.30174e-09
-5.36556e-05
-3.99965e-07
2.56766e-07
5.38465e-05
-4.99836e-07
-4.54774e-07
3.8632e-08
-4.12715e-09
-3.96705e-07
2.46193e-07
-4.97098e-07
-4.21124e-07
-5.00456e-05
5.03507e-05
-5.06658e-05
-1.11945e-06
5.09641e-05
-4.20183e-07
-1.12647e-06
1.53462e-06
-5.45655e-05
6.15715e-06
5.46809e-05
-7.55042e-06
-5.59901e-05
-5.08613e-06
5.59697e-05
6.64122e-06
1.51662e-06
6.12252e-06
-7.50764e-06
-5.07384e-06
6.63064e-06
4.87022e-06
-5.23598e-05
5.25272e-05
-5.59675e-05
5.57516e-05
4.82777e-06
-1.5339e-06
-5.59594e-05
-5.00096e-06
5.59654e-05
6.52887e-06
-5.47994e-05
6.08956e-06
-2.70171e-07
5.49175e-05
-7.47137e-06
-1.52089e-06
-4.99186e-06
6.52195e-06
6.06355e-06
-2.61481e-07
-7.44115e-06
-4.84589e-06
-5.55724e-05
5.54173e-05
-5.26857e-05
1.08485e-06
5.28445e-05
-4.8151e-06
1.09138e-06
4.37312e-07
-5.40334e-05
-3.97641e-07
5.42174e-05
-4.93776e-07
-5.35578e-05
3.00147e-08
1.99794e-07
5.37724e-05
-7.12771e-09
4.40602e-07
-3.96059e-07
-4.92153e-07
3.26342e-08
1.99051e-07
-7.0025e-09
4.13568e-07
-5.12479e-05
5.15215e-05
-5.06484e-05
1.50014e-07
5.0942e-05
4.13633e-07
1.49929e-07
5.94538e-11
-5.33403e-05
1.37279e-07
5.35647e-05
-1.61955e-07
-5.33401e-05
1.37297e-07
-1.99636e-07
5.35645e-05
-1.62032e-07
6.12181e-11
1.34771e-07
-1.60002e-07
1.34788e-07
-1.98887e-07
-1.60079e-07
5.8541e-11
-5.04285e-05
5.07157e-05
-5.04281e-05
-1.499e-07
5.07153e-05
6.02317e-11
-1.49811e-07
-4.37201e-07
-5.35572e-05
3.01402e-08
5.37718e-05
-7.26155e-09
-5.40327e-05
-3.97614e-07
2.69927e-07
5.42167e-05
-4.93527e-07
-4.40483e-07
3.27612e-08
-7.14205e-09
-3.96021e-07
2.61234e-07
-4.91914e-07
-4.1341e-07
-5.06471e-05
5.09407e-05
-5.1246e-05
-1.08482e-06
5.15198e-05
-4.1347e-07
-1.09135e-06
1.53335e-06
-5.47991e-05
6.08782e-06
5.49173e-05
-7.46938e-06
-5.59604e-05
-4.99929e-06
5.59664e-05
6.52671e-06
1.52033e-06
6.06179e-06
-7.43913e-06
-4.99014e-06
6.51973e-06
4.84403e-06
-5.26845e-05
5.28435e-05
-5.55747e-05
5.54194e-05
4.81319e-06
-1.52546e-06
-5.59777e-05
-4.9142e-06
5.60012e-05
6.41619e-06
-5.50372e-05
6.00915e-06
-2.79798e-07
5.51552e-05
-7.37282e-06
-1.51518e-06
-4.90358e-06
6.40644e-06
5.98682e-06
-2.72589e-07
-7.34913e-06
-4.80366e-06
-5.52925e-05
5.5182e-05
-5.29947e-05
1.05262e-06
5.31476e-05
-4.77878e-06
1.05787e-06
4.22167e-07
-5.43963e-05
-3.94107e-07
5.45722e-05
-4.83753e-07
-5.39811e-05
2.29332e-08
1.96328e-07
5.4187e-05
-3.03724e-09
4.25386e-07
-3.92715e-07
-4.84191e-07
2.61828e-08
1.9618e-07
-5.62357e-09
4.04883e-07
-5.17814e-05
5.2035e-05
-5.12264e-05
1.46811e-07
5.15074e-05
4.05261e-07
1.47014e-07
5.46816e-11
-5.37839e-05
1.35828e-07
5.40013e-05
-1.56932e-07
-5.37837e-05
1.35846e-07
-1.96181e-07
5.40011e-05
-1.57003e-07
5.64779e-11
1.35757e-07
-1.58788e-07
1.35775e-07
-1.9603e-07
-1.58861e-07
5.39302e-11
-5.09985e-05
5.1281e-05
-5.0998e-05
-1.46706e-07
5.12806e-05
5.56817e-11
-1.46906e-07
-4.2207e-07
-5.39805e-05
2.30516e-08
5.41865e-05
-3.15373e-09
-5.43957e-05
-3.94102e-07
2.79562e-07
5.45716e-05
-4.83488e-07
-4.25283e-07
2.63032e-08
-5.74763e-09
-3.927e-07
2.72351e-07
-4.83936e-07
-4.04736e-07
-5.12252e-05
5.15063e-05
-5.17798e-05
-1.05259e-06
5.20336e-05
-4.0511e-07
-1.05784e-06
1.52495e-06
-5.5037e-05
6.00745e-06
5.51551e-05
-7.3709e-06
-5.59786e-05
-4.9126e-06
5.6002e-05
6.41414e-06
1.51466e-06
5.98512e-06
-7.34719e-06
-4.90194e-06
6.40434e-06
4.8019e-06
-5.29937e-05
5.31467e-05
-5.52945e-05
5.51838e-05
4.77699e-06
-1.5123e-06
-5.60265e-05
-4.83141e-06
5.6059e-05
6.3112e-06
-5.5273e-05
5.92057e-06
-2.86493e-07
5.53867e-05
-7.26006e-06
-1.50399e-06
-4.81849e-06
6.29714e-06
5.90195e-06
-2.80547e-07
-7.24312e-06
-4.75095e-06
-5.5094e-05
5.50135e-05
-5.3292e-05
1.02297e-06
5.34386e-05
-4.73047e-06
1.02707e-06
4.07651e-07
-5.4742e-05
-3.91703e-07
5.49072e-05
-4.67648e-07
-5.43857e-05
1.19424e-08
1.92275e-07
5.45816e-05
7.53826e-09
4.10562e-07
-3.89421e-07
-4.71512e-07
1.80446e-08
1.92347e-07
1.47719e-09
3.95995e-07
-5.22762e-05
5.25115e-05
-5.17783e-05
1.43235e-07
5.2043e-05
3.9642e-07
1.43604e-07
5.12954e-11
-5.42115e-05
1.295e-07
5.44177e-05
-1.43566e-07
-5.42113e-05
1.29519e-07
-1.92141e-07
5.44176e-05
-1.4363e-07
5.20665e-11
1.31917e-07
-1.49805e-07
1.31935e-07
-1.92208e-07
-1.49872e-07
4.9266e-11
-5.15565e-05
5.18292e-05
-5.15561e-05
-1.43138e-07
5.18288e-05
5.11154e-11
-1.43504e-07
-4.07564e-07
-5.43853e-05
1.2038e-08
5.45812e-05
7.44433e-09
-5.47415e-05
-3.91721e-07
2.86267e-07
5.49068e-05
-4.67365e-07
-4.10471e-07
1.81723e-08
1.37169e-09
-3.89428e-07
2.80319e-07
-4.71241e-07
-3.95858e-07
-5.17773e-05
5.2042e-05
-5.22749e-05
-1.02294e-06
5.25103e-05
-3.96279e-07
-1.02704e-06
1.51184e-06
-5.52729e-05
5.91893e-06
5.53866e-05
-7.25821e-06
-5.60273e-05
-4.82985e-06
5.60598e-05
6.30922e-06
1.50351e-06
5.90029e-06
-7.24125e-06
-4.81692e-06
6.29513e-06
4.74928e-06
-5.32912e-05
5.34379e-05
-5.50956e-05
5.50151e-05
4.72877e-06
-1.49384e-06
-5.60889e-05
-4.74733e-06
5.61215e-05
6.20856e-06
-5.54975e-05
5.81594e-06
-2.90326e-07
5.56013e-05
-7.12326e-06
-1.48819e-06
-4.73573e-06
6.19403e-06
5.80636e-06
-2.85709e-07
-7.11972e-06
-4.68464e-06
-5.49491e-05
5.48864e-05
-5.35754e-05
9.94426e-07
5.37123e-05
-4.67129e-06
9.98295e-07
3.94303e-07
-5.50643e-05
-3.92255e-07
5.5214e-05
-4.42091e-07
-5.47662e-05
-1.57458e-09
1.86231e-07
5.49432e-05
3.25729e-08
3.96714e-07
-3.88239e-07
-4.51265e-07
5.70156e-09
1.87335e-07
1.913e-08
3.86676e-07
-5.27342e-05
5.29497e-05
-5.22962e-05
1.39418e-07
5.25418e-05
3.87397e-07
1.39905e-07
4.68272e-11
-5.46141e-05
1.17337e-07
5.48032e-05
-1.20254e-07
-5.46139e-05
1.17353e-07
-1.86113e-07
5.4803e-05
-1.20307e-07
4.9147e-11
1.22879e-07
-1.3192e-07
1.22897e-07
-1.87214e-07
-1.31977e-07
4.47447e-11
-5.20919e-05
5.23486e-05
-5.20916e-05
-1.39329e-07
5.23483e-05
4.63645e-11
-1.39813e-07
-3.94221e-07
-5.47658e-05
-1.48888e-09
5.49429e-05
3.24899e-08
-5.50639e-05
-3.92304e-07
2.90107e-07
5.52137e-05
-4.41786e-07
-3.96629e-07
5.79472e-09
1.90252e-08
-3.8827e-07
2.8549e-07
-4.50975e-07
-3.86547e-07
-5.22953e-05
5.2541e-05
-5.2733e-05
-9.944e-07
5.29485e-05
-3.87265e-07
-9.98268e-07
1.49341e-06
-5.54975e-05
5.81432e-06
5.56013e-05
-7.12145e-06
-5.60896e-05
-4.74578e-06
5.61222e-05
6.20663e-06
1.48775e-06
5.80475e-06
-7.1179e-06
-4.73418e-06
6.19209e-06
4.68305e-06
-5.35747e-05
5.37115e-05
-5.49506e-05
5.48878e-05
4.66968e-06
-1.47286e-06
-5.61472e-05
-4.67027e-06
5.61708e-05
6.11955e-06
-5.56991e-05
5.70249e-06
-2.92035e-07
5.57862e-05
-6.97038e-06
-1.46888e-06
-4.65697e-06
6.10017e-06
5.69988e-06
-2.88472e-07
-6.97806e-06
-4.61243e-06
-5.48329e-05
5.4775e-05
-5.38374e-05
9.67984e-07
5.39594e-05
-4.60348e-06
9.71311e-07
3.82299e-07
-5.53531e-05
-3.98148e-07
5.54816e-05
-4.04671e-07
-5.51088e-05
-1.99577e-08
1.79978e-07
5.52629e-05
6.81107e-08
3.84204e-07
-3.91239e-07
-4.20559e-07
-1.10821e-08
1.81354e-07
4.83773e-08
3.77534e-07
-5.31514e-05
5.33437e-05
-5.27729e-05
1.35732e-07
5.29947e-05
3.78333e-07
1.36198e-07
4.34713e-11
-5.49798e-05
9.83351e-08
5.51456e-05
-8.42896e-08
-5.49796e-05
9.8345e-08
-1.79866e-07
5.51455e-05
-8.4334e-08
4.39965e-11
1.0769e-07
-1.02975e-07
1.07702e-07
-1.81239e-07
-1.03023e-07
4.06958e-11
-5.25925e-05
5.28265e-05
-5.25922e-05
-1.35649e-07
5.28262e-05
4.2791e-11
-1.36114e-07
-3.82218e-07
-5.51085e-05
-1.99085e-08
5.52627e-05
6.80623e-08
-5.53528e-05
-3.98266e-07
2.91845e-07
5.54814e-05
-4.04331e-07
-3.84126e-07
-1.10054e-08
4.83133e-08
-3.91314e-07
2.88259e-07
-4.20239e-07
-3.77413e-07
-5.27721e-05
5.29939e-05
-5.31503e-05
-9.67968e-07
5.33426e-05
-3.78209e-07
-9.71289e-07
1.47246e-06
-5.56991e-05
5.70077e-06
5.57863e-05
-6.96858e-06
-5.61478e-05
-4.66854e-06
5.61712e-05
6.1176e-06
1.46846e-06
5.69825e-06
-6.97629e-06
-4.65538e-06
6.09825e-06
4.61092e-06
-5.38366e-05
5.39584e-05
-5.48344e-05
5.47768e-05
4.60195e-06
-1.44944e-06
-5.61829e-05
-4.59941e-06
5.61875e-05
6.04424e-06
-5.58633e-05
5.57694e-06
-2.91922e-07
5.59255e-05
-6.79664e-06
-1.44683e-06
-4.58406e-06
6.01877e-06
5.5821e-06
-2.89197e-07
-6.81684e-06
-4.53384e-06
-5.47197e-05
5.46542e-05
-5.40669e-05
9.43017e-07
5.4167e-05
-4.52876e-06
9.45903e-07
3.71498e-07
-5.55962e-05
-4.1081e-07
5.5696e-05
-3.52466e-07
-5.54014e-05
-4.39427e-08
1.73714e-07
5.55249e-05
1.18164e-07
3.72981e-07
-4.00217e-07
-3.76536e-07
-3.07067e-08
1.74953e-07
9.03221e-08
3.68485e-07
-5.35201e-05
5.36838e-05
-5.32007e-05
1.32212e-07
5.3393e-05
3.69312e-07
1.32639e-07
3.76612e-11
-5.52956e-05
7.04283e-08
5.54305e-05
-3.16247e-08
-5.52955e-05
7.04422e-08
-1.73618e-07
5.54304e-05
-3.16722e-08
4.04689e-11
8.48e-08
-5.98325e-08
8.48094e-08
-1.74848e-07
-5.98747e-08
3.60746e-11
-5.30439e-05
5.32465e-05
-5.30436e-05
-1.32137e-07
5.32462e-05
3.80933e-11
-1.32559e-07
-3.71435e-07
-5.54011e-05
-4.38827e-08
5.55247e-05
1.18113e-07
-5.5596e-05
-4.10888e-07
2.9172e-07
5.56959e-05
-3.52157e-07
-3.72906e-07
-3.06631e-08
9.02827e-08
-4.0037e-07
2.89016e-07
-3.76188e-07
-3.68374e-07
-5.31999e-05
5.33923e-05
-5.35189e-05
-9.43026e-07
5.36827e-05
-3.69196e-07
-9.45895e-07
1.44909e-06
-5.58637e-05
5.57576e-06
5.59258e-05
-6.7952e-06
-5.6183e-05
-4.59834e-06
5.61876e-05
6.04277e-06
1.44645e-06
5.58027e-06
-6.81508e-06
-4.5822e-06
6.01687e-06
4.53252e-06
-5.40655e-05
5.41657e-05
-5.47219e-05
5.46561e-05
4.52732e-06
-1.42401e-06
-5.61762e-05
-4.53566e-06
5.61509e-05
5.98497e-06
-5.5973e-05
5.43794e-06
-2.90047e-07
5.60011e-05
-6.60007e-06
-1.42269e-06
-4.51825e-06
5.95225e-06
5.45225e-06
-2.8828e-07
-6.63415e-06
-4.45031e-06
-5.45843e-05
5.44989e-05
-5.4249e-05
9.19279e-07
5.43174e-05
-4.44836e-06
9.21835e-07
3.61771e-07
-5.57781e-05
-4.31734e-07
5.5841e-05
-2.83e-07
-5.5629e-05
-7.6601e-08
1.67176e-07
5.57139e-05
1.86265e-07
3.62824e-07
-4.16536e-07
-3.16664e-07
-5.8594e-08
1.69112e-07
1.48238e-07
3.59685e-07
-5.38286e-05
5.39565e-05
-5.35657e-05
1.28742e-07
5.372e-05
3.60468e-07
1.292e-07
3.93287e-11
-5.55423e-05
3.50445e-08
5.56375e-05
3.68725e-08
-5.55422e-05
3.50675e-08
-1.67077e-07
5.56375e-05
3.68256e-08
3.86941e-11
5.25709e-08
4.6359e-09
5.25855e-08
-1.69021e-07
4.60466e-09
3.4828e-11
-5.34282e-05
5.3592e-05
-5.3428e-05
-1.28668e-07
5.35918e-05
3.48064e-11
-1.29127e-07
-3.61687e-07
-5.56288e-05
-7.65076e-08
5.57137e-05
1.86184e-07
-5.5778e-05
-4.31752e-07
2.89936e-07
5.58409e-05
-2.82754e-07
-3.62763e-07
-5.85268e-08
1.48179e-07
-4.16628e-07
2.88088e-07
-3.16368e-07
-3.59577e-07
-5.3565e-05
5.37194e-05
-5.38276e-05
-9.19325e-07
5.39555e-05
-3.60363e-07
-9.21864e-07
1.42364e-06
-5.59733e-05
5.43699e-06
5.60015e-05
-6.5988e-06
-5.61761e-05
-4.53491e-06
5.61509e-05
5.98383e-06
1.42233e-06
5.45093e-06
-6.63277e-06
-4.5171e-06
5.95093e-06
4.449e-06
-5.42477e-05
5.43163e-05
-5.45861e-05
5.45002e-05
4.44711e-06
-1.39736e-06
-5.61022e-05
-4.47694e-06
5.6034e-05
5.94246e-06
-5.60119e-05
5.28168e-06
-2.87149e-07
5.59972e-05
-6.37716e-06
-1.3963e-06
-4.45443e-06
5.89942e-06
5.30313e-06
-2.85618e-07
-6.42459e-06
-4.36144e-06
-5.44063e-05
5.42908e-05
-5.43601e-05
8.96622e-07
5.43837e-05
-4.36181e-06
8.98597e-07
3.52937e-07
-5.58824e-05
-4.61753e-07
5.58993e-05
-1.95296e-07
-5.57758e-05
-1.19225e-07
1.5987e-07
5.58133e-05
2.74804e-07
3.53541e-07
-4.41899e-07
-2.38596e-07
-9.57093e-08
1.61796e-07
2.25604e-07
3.51056e-07
-5.40614e-05
5.41452e-05
-5.38504e-05
1.25256e-07
5.39569e-05
3.51761e-07
1.2571e-07
2.91349e-11
-5.57089e-05
-1.09515e-08
5.57555e-05
1.24216e-07
-5.57088e-05
-1.09318e-08
-1.59794e-07
5.57554e-05
1.24175e-07
3.51116e-11
1.36827e-08
7.67244e-08
1.37134e-08
-1.61705e-07
7.6674e-08
2.78386e-11
-5.37314e-05
5.38456e-05
-5.37311e-05
-1.25196e-07
5.38454e-05
3.18387e-11
-1.25641e-07
-3.52888e-07
-5.57755e-05
-1.1913e-07
5.5813e-05
2.74739e-07
-5.58821e-05
-4.61701e-07
2.8696e-07
5.5899e-05
-1.95058e-07
-3.53455e-07
-9.55866e-08
2.25506e-07
-4.41777e-07
2.85543e-07
-2.38409e-07
-3.50965e-07
-5.38498e-05
5.39564e-05
-5.40608e-05
-8.96664e-07
5.41447e-05
-3.51656e-07
-8.98639e-07
1.39696e-06
-5.60117e-05
5.28126e-06
5.59966e-05
-6.37618e-06
-5.61027e-05
-4.47701e-06
5.60349e-05
5.94178e-06
1.39589e-06
5.30295e-06
-6.42356e-06
-4.45467e-06
5.89867e-06
4.36035e-06
-5.43601e-05
5.43843e-05
-5.44061e-05
5.42894e-05
4.36056e-06
-1.36872e-06
-5.59392e-05
-4.43754e-06
5.58199e-05
5.92559e-06
-5.59579e-05
5.11794e-06
-2.82933e-07
5.58857e-05
-6.13152e-06
-1.36931e-06
-4.40623e-06
5.87032e-06
5.14566e-06
-2.82327e-07
-6.19336e-06
-4.27002e-06
-5.41582e-05
5.39907e-05
-5.43787e-05
8.75319e-07
5.43513e-05
-4.27359e-06
8.77073e-07
3.45264e-07
-5.58905e-05
-4.984e-07
5.58543e-05
-9.36314e-08
-5.58226e-05
-1.73555e-07
1.52501e-07
5.58016e-05
3.87359e-07
3.45448e-07
-4.75205e-07
-1.43685e-07
-1.43762e-07
1.54622e-07
3.25238e-07
3.4254e-07
-5.42037e-05
5.42381e-05
-5.40342e-05
1.21843e-07
5.40814e-05
3.4338e-07
1.2232e-07
3.96083e-11
-5.57728e-05
-6.94926e-08
5.57587e-05
2.36068e-07
-5.57727e-05
-6.95065e-08
-1.52387e-07
5.57586e-05
2.36046e-07
3.09939e-11
-3.82194e-08
1.75487e-07
-3.82221e-08
-1.54538e-07
1.75462e-07
3.08004e-11
-5.39297e-05
5.3982e-05
-5.39295e-05
-1.21777e-07
5.39818e-05
2.74205e-11
-1.22262e-07
-3.45157e-07
-5.58224e-05
-1.73595e-07
5.58014e-05
3.87378e-07
-5.58903e-05
-4.98872e-07
2.82835e-07
5.58543e-05
-9.31262e-08
-3.45402e-07
-1.43757e-07
3.2524e-07
-4.75457e-07
2.82127e-07
-1.43329e-07
-3.42452e-07
-5.40337e-05
5.40808e-05
-5.42031e-05
-8.75446e-07
5.42372e-05
-3.43298e-07
-8.77131e-07
1.3687e-06
-5.59576e-05
5.11482e-06
5.58865e-05
-6.12957e-06
-5.59397e-05
-4.4339e-06
5.5819e-05
5.92332e-06
1.36918e-06
5.14409e-06
-6.19209e-06
-4.40459e-06
5.86897e-06
4.26889e-06
-5.43788e-05
5.43493e-05
-5.41573e-05
5.39922e-05
4.27243e-06
-1.33988e-06
-5.56637e-05
-4.40275e-06
5.54732e-05
5.93308e-06
-5.57877e-05
4.93403e-06
-2.77016e-07
5.56519e-05
-5.86111e-06
-1.34063e-06
-4.36837e-06
5.8652e-06
4.97266e-06
-2.77505e-07
-5.9378e-06
-4.17667e-06
-5.38036e-05
5.35775e-05
-5.42862e-05
8.55551e-07
5.4188e-05
-4.18132e-06
8.56428e-07
3.36434e-07
-5.57921e-05
-5.53051e-07
5.56952e-05
3.65579e-08
-5.57481e-05
-2.39591e-07
1.46194e-07
5.56572e-05
5.20733e-07
3.37837e-07
-5.18277e-07
-3.49002e-08
-2.03159e-07
1.47399e-07
4.47093e-07
3.33497e-07
-5.42415e-05
5.42105e-05
-5.4094e-05
1.18431e-07