/*--------------------------------*- C++ -*----------------------------------*\
  =========                 |
  \\      /  F ield         | OpenFOAM: The Open Source CFD Toolbox
   \\    /   O peration     | Website:  https://openfoam.org
    \\  /    A nd           | Version:  9
     \\/     M anipulation  |
\*---------------------------------------------------------------------------*/
FoamFile
{
    format      ascii;
    class       volVectorField;
    location    "5";
    object      U;
}
// * * * * * * * * * * * * * * * * * * * * * * * * * * * * * * * * * * * * * //

dimensions      [0 1 -1 0 0 0 0];

internalField   nonuniform List<vector> 
36360
(
(0.0107366 -0.126974 -0.485629)
(-0.00850242 -0.094082 0.000520972)
(0.0130848 -0.138145 -0.490008)
(-0.00968417 -0.0832636 0.000469796)
(0.00861689 -0.16306 -0.498685)
(-0.00703647 -0.0621413 -0.000239663)
(0.0225721 -0.189982 -0.499957)
(-0.0127947 -0.0449795 -0.000149777)
(0.0029186 -0.0941845 -0.000387342)
(0.00287261 -0.0972728 -2.7529e-05)
(0.00191986 -0.0930929 -0.0003666)
(0.00235042 -0.0970808 -3.19576e-05)
(0.00504792 -0.0814926 0.00025655)
(0.00282433 -0.0945277 1.4943e-05)
(0.0060046 -0.0871258 0.000145319)
(0.00537494 -0.100771 -3.07076e-06)
(0.00244088 -0.0990312 8.98206e-07)
(0.00244085 -0.0990319 -9.20281e-07)
(0.00207282 -0.0989211 -8.82494e-07)
(0.00207256 -0.0989219 8.89642e-07)
(0.00235187 -0.0990441 1.55614e-06)
(0.00235212 -0.0990474 -1.58614e-06)
(0.00512382 -0.104757 -1.45973e-06)
(0.00512355 -0.10476 1.43094e-06)
(0.0028726 -0.0972745 2.74823e-05)
(0.00292113 -0.0941842 0.000386958)
(0.00234986 -0.0970827 3.19068e-05)
(0.00192154 -0.0930942 0.000366123)
(0.00282491 -0.0945381 -1.4909e-05)
(0.00504831 -0.0815079 -0.000256023)
(0.00537439 -0.100781 3.06573e-06)
(0.00600514 -0.0871464 -0.000144956)
(-0.00848617 -0.0940708 -0.00052006)
(0.0107205 -0.126978 0.485665)
(-0.00967015 -0.0832593 -0.000468727)
(0.0130628 -0.138135 0.490037)
(-0.00701768 -0.062135 0.000238926)
(0.0086072 -0.163059 0.498691)
(-0.0127712 -0.045 0.000149239)
(0.0225394 -0.189944 0.499962)
(0.0136277 -0.123134 -0.483189)
(-0.0123009 -0.0964249 5.60919e-05)
(0.0124655 -0.127099 -0.484204)
(-0.0107253 -0.0939075 0.000245475)
(0.0108114 -0.151769 -0.498639)
(-0.0123526 -0.0704989 -0.000749227)
(0.00939997 -0.159691 -0.498928)
(-0.0103304 -0.0625882 -0.00050419)
(0.000516807 -0.0936115 -4.03352e-05)
(0.00178857 -0.0959363 5.00078e-05)
(0.00163032 -0.0931028 -0.000168879)
(0.00234519 -0.0963847 1.14321e-05)
(0.00225693 -0.077921 0.000664465)
(0.00153944 -0.090012 9.78664e-05)
(0.00338688 -0.0777611 0.000489641)
(0.00204278 -0.0915252 5.32196e-05)
(0.00164618 -0.0976679 9.91019e-06)
(0.00164628 -0.0976687 -9.90268e-06)
(0.00204505 -0.0983074 4.73773e-06)
(0.00204512 -0.0983083 -4.77039e-06)
(0.00123838 -0.0950767 1.22214e-05)
(0.00123849 -0.0950796 -1.2121e-05)
(0.00163465 -0.0965588 5.86766e-06)
(0.00163486 -0.0965618 -5.90411e-06)
(0.00178932 -0.0959378 -4.99897e-05)
(0.000520758 -0.0936095 4.0342e-05)
(0.00234563 -0.0963866 -1.14068e-05)
(0.00163393 -0.0931024 0.000168827)
(0.00154017 -0.0900205 -9.79674e-05)
(0.00225897 -0.0779272 -0.00066389)
(0.00204342 -0.0915346 -5.31495e-05)
(0.00338856 -0.0777731 -0.000488908)
(-0.0122879 -0.0964135 -5.63268e-05)
(0.0136143 -0.123138 0.483216)
(-0.0107104 -0.0938959 -0.000245318)
(0.0124518 -0.127101 0.484238)
(-0.0123388 -0.07048 0.000747734)
(0.0108 -0.151772 0.498645)
(-0.0103144 -0.0625764 0.00050297)
(0.00938879 -0.159687 0.498933)
(0.0138203 -0.117355 -0.480989)
(-0.0130292 -0.0989352 -0.000264757)
(0.0138631 -0.119835 -0.482153)
(-0.0128126 -0.0979098 -0.000110708)
(0.0105107 -0.137342 -0.498219)
(-0.012527 -0.0813145 -0.00119027)
(0.0107769 -0.143801 -0.498461)
(-0.012677 -0.0765854 -0.000977139)
(-0.000502367 -0.094609 0.000105725)
(0.000969163 -0.0954453 0.000143734)
(-0.000103901 -0.0940552 4.60584e-05)
(0.00133972 -0.0955796 9.63432e-05)
(0.00147713 -0.0797393 0.00091685)
(0.000734352 -0.0880133 0.000203315)
(0.00168708 -0.0785458 0.000804643)
(0.0010907 -0.0887402 0.000147733)
(0.0010511 -0.0967085 3.19688e-05)
(0.00105186 -0.0967089 -3.18741e-05)
(0.00132542 -0.0971035 1.98637e-05)
(0.00132535 -0.097104 -1.96339e-05)
(0.000783377 -0.0926394 3.2152e-05)
(0.000784064 -0.0926414 -3.34623e-05)
(0.000969477 -0.0936925 2.25992e-05)
(0.000969361 -0.0936944 -2.0362e-05)
(0.000970177 -0.0954453 -0.000142996)
(-0.000500177 -0.0946054 -0.000105268)
(0.00134015 -0.0955804 -9.65761e-05)
(-9.9313e-05 -0.0940524 -4.62023e-05)
(0.000735416 -0.0880176 -0.000199063)
(0.00147675 -0.0797386 -0.000914857)
(0.00109104 -0.0887466 -0.000150176)
(0.00168854 -0.0785491 -0.000806144)
(-0.0130203 -0.0989258 0.000263923)
(0.0138091 -0.117361 0.481011)
(-0.0128013 -0.0978994 0.000110377)
(0.013851 -0.119841 0.482177)
(-0.0125187 -0.0812931 0.00118653)
(0.0105021 -0.137354 0.498221)
(-0.012666 -0.0765648 0.000976977)
(0.0107669 -0.143811 0.498467)
(0.0136617 -0.113622 -0.478807)
(-0.013292 -0.100266 -0.000526652)
(0.0137298 -0.115314 -0.479797)
(-0.0131654 -0.0996919 -0.000403177)
(0.0100135 -0.127519 -0.497758)
(-0.0122808 -0.0879961 -0.00155305)
(0.0102217 -0.131986 -0.497974)
(-0.0123582 -0.0850764 -0.00138055)
(-0.000816377 -0.0958107 0.000166265)
(0.000495084 -0.0956263 0.000227621)
(-0.000716532 -0.0952061 0.000143984)
(0.000692412 -0.0954743 0.000187643)
(0.00149463 -0.0828353 0.00106164)
(0.000236657 -0.0877039 0.000296995)
(0.00144597 -0.081244 0.000999665)
(0.000455551 -0.0877079 0.000250603)
(0.000616134 -0.0963558 5.88047e-05)
(0.000616434 -0.0963558 -5.86588e-05)
(0.000816396 -0.0964649 4.52752e-05)
(0.000816453 -0.0964651 -4.51531e-05)
(0.000496082 -0.0913236 5.8027e-05)
(0.000496413 -0.0913248 -5.79144e-05)
(0.000630732 -0.0918661 4.54561e-05)
(0.000630785 -0.0918682 -4.50234e-05)
(0.000495855 -0.0956252 -0.000227316)
(-0.00081449 -0.0958063 -0.000166159)
(0.000693432 -0.0954737 -0.000187451)
(-0.000713824 -0.0952017 -0.000143818)
(0.000237793 -0.0877058 -0.000296568)
(0.00149448 -0.0828299 -0.00106096)
(0.000456778 -0.0877112 -0.000251555)
(0.00144636 -0.0812394 -0.000998764)
(-0.0132848 -0.100259 0.000525802)
(0.0136527 -0.113627 0.478827)
(-0.0131572 -0.0996833 0.00040249)
(0.0137199 -0.11532 0.479819)
(-0.0122745 -0.0879771 0.00155112)
(0.0100072 -0.127532 0.497762)
(-0.0123509 -0.0850553 0.00137935)
(0.0102144 -0.131998 0.497978)
(0.0135858 -0.111067 -0.476919)
(-0.0135606 -0.101075 -0.000732651)
(0.0136068 -0.112224 -0.477764)
(-0.0134187 -0.100714 -0.00063598)
(0.00972629 -0.120723 -0.497355)
(-0.0122715 -0.0920232 -0.00184355)
(0.00982862 -0.123811 -0.497543)
(-0.012236 -0.0902569 -0.00170663)
(-0.000828158 -0.0969714 0.000178775)
(0.000271839 -0.0961753 0.000291858)
(-0.000841443 -0.0964029 0.000176788)
(0.00036131 -0.0958685 0.000262357)
(0.00170767 -0.0858916 0.00113949)
(-5.97889e-05 -0.0882811 0.000372403)
(0.00159303 -0.084403 0.00110691)
(6.87537e-05 -0.087916 0.000337441)
(0.000305848 -0.0964596 8.38649e-05)
(0.000306064 -0.0964592 -8.36624e-05)
(0.000447704 -0.096361 7.18179e-05)
(0.000447962 -0.0963607 -7.16384e-05)
(0.000273842 -0.0908012 8.19573e-05)
(0.000274141 -0.0908018 -8.17522e-05)
(0.000377758 -0.0909777 7.04169e-05)
(0.000378072 -0.0909787 -7.02375e-05)
(0.000272234 -0.0961734 -0.000291539)
(-0.00082708 -0.0969669 -0.000178757)
(0.000361891 -0.0958669 -0.000262039)
(-0.000840018 -0.0963983 -0.000176726)
(-5.88282e-05 -0.0882806 -0.000372004)
(0.00170701 -0.0858841 -0.00113894)
(6.98303e-05 -0.0879165 -0.000337041)
(0.00159259 -0.0843962 -0.00110629)
(-0.0135544 -0.101069 0.000731736)
(0.0135781 -0.111071 0.476938)
(-0.013412 -0.100707 0.000635082)
(0.0135985 -0.112229 0.477783)
(-0.0122662 -0.0920081 0.00184165)
(0.00972111 -0.120736 0.497359)
(-0.0122303 -0.0902398 0.00170471)
(0.00982286 -0.123824 0.497546)
(0.0135921 -0.109318 -0.475279)
(-0.0138412 -0.101642 -0.000893195)
(0.013576 -0.11011 -0.475998)
(-0.0136983 -0.101378 -0.000817851)
(0.00960092 -0.115978 -0.497003)
(-0.0124061 -0.0945346 -0.00207348)
(0.00963203 -0.118145 -0.497165)
(-0.0123132 -0.0934179 -0.00196516)
(-0.000760958 -0.0980227 0.000167036)
(0.000173883 -0.0969149 0.000336106)
(-0.000795912 -0.0975113 0.000174861)
(0.000211928 -0.0965297 0.00031624)
(0.00194004 -0.0885278 0.00117747)
(-0.000198002 -0.089285 0.000426487)
(0.00182855 -0.0872675 0.00116215)
(-0.000152419 -0.0887461 0.000401917)
(8.71652e-05 -0.0968704 0.000103562)
(8.72749e-05 -0.0968698 -0.000103334)
(0.000186743 -0.0966347 9.45461e-05)
(0.00018691 -0.0966342 -9.43287e-05)
(0.000108458 -0.0908527 0.000101616)
(0.000108677 -0.0908526 -0.00010138)
(0.000182557 -0.0907683 9.23671e-05)
(0.00018283 -0.0907685 -9.21439e-05)
(0.000173969 -0.0969127 -0.000335804)
(-0.000760321 -0.0980186 -0.000167089)
(0.000212169 -0.0965276 -0.000315928)
(-0.000795082 -0.0975069 -0.000174881)
(-0.000197625 -0.0892829 -0.000426108)
(0.00193911 -0.08852 -0.00117705)
(-0.000151723 -0.0887447 -0.000401525)
(0.00182774 -0.0872597 -0.00116167)
(-0.0138356 -0.101638 0.000892288)
(0.0135854 -0.109323 0.475296)
(-0.0136924 -0.101373 0.000816935)
(0.0135688 -0.110115 0.476016)
(-0.0124014 -0.094523 0.00207166)
(0.00959643 -0.11599 0.497007)
(-0.0123082 -0.0934047 0.0019633)
(0.00962717 -0.118157 0.497168)
(0.0136432 -0.108126 -0.473836)
(-0.0141086 -0.102103 -0.00101852)
(0.0136091 -0.108665 -0.474453)
(-0.0139738 -0.10188 -0.000959585)
(0.00956578 -0.112602 -0.496696)
(-0.0125962 -0.0961917 -0.00225561)
(0.00955876 -0.114151 -0.496835)
(-0.0124831 -0.0954413 -0.0021697)
(-0.000693014 -0.0989647 0.000144178)
(0.000139508 -0.09773 0.000364006)
(-0.000724108 -0.0985062 0.00015653)
(0.000151688 -0.0973162 0.000351863)
(0.00213456 -0.0907091 0.00119273)
(-0.000227816 -0.090486 0.00046271)
(0.00204558 -0.0896713 0.00118712)
(-0.000216896 -0.0898713 0.00044654)
(-5.42411e-05 -0.097469 0.000117184)
(-5.42261e-05 -0.0974684 -0.000116944)
(5.69798e-06 -0.097151 0.000111136)
(5.75924e-06 -0.0971504 -0.000110901)
(-1.51299e-05 -0.091301 0.00011611)
(-1.4943e-05 -0.0913005 -0.000115863)
(4.47025e-05 -0.0910361 0.000109548)
(4.48951e-05 -0.0910358 -0.000109304)
(0.000139392 -0.0977278 -0.00036373)
(-0.000692605 -0.0989611 -0.000144284)
(0.000151659 -0.097314 -0.000351574)
(-0.000723603 -0.0985023 -0.000156613)
(-0.000227606 -0.0904831 -0.000462359)
(0.00213358 -0.0907019 -0.00119241)
(-0.000216614 -0.0898686 -0.000446174)
(0.0020446 -0.0896637 -0.00118676)
(-0.0141034 -0.102099 0.00101765)
(0.0136372 -0.108129 0.473852)
(-0.0139684 -0.101876 0.000958696)
(0.0136027 -0.108669 0.47447)
(-0.0125917 -0.0961829 0.00225388)
(0.00956174 -0.112611 0.496699)
(-0.0124785 -0.0954312 0.00216793)
(0.00955446 -0.114162 0.496838)
(0.0137105 -0.107325 -0.472559)
(-0.0143526 -0.102524 -0.00111729)
(0.0136713 -0.107684 -0.473097)
(-0.0142308 -0.102316 -0.00107067)
(0.00957618 -0.110159 -0.496427)
(-0.0127833 -0.0973674 -0.00240065)
(0.00955095 -0.111284 -0.496548)
(-0.0126799 -0.0968246 -0.00233213)
(-0.000643263 -0.0998226 0.000116815)
(0.00013164 -0.0985811 0.000380252)
(-0.00066439 -0.0994015 0.00013079)
(0.000134028 -0.0981527 0.000373231)
(0.00226472 -0.0925118 0.0011954)
(-0.000233377 -0.0917444 0.000485582)
(0.00221185 -0.0916503 0.00119516)
(-0.000232534 -0.0911126 0.000475527)
(-0.000138157 -0.0981951 0.000125622)
(-0.000138208 -0.0981944 -0.000125385)
(-0.000100846 -0.0978198 0.000121936)
(-0.000100868 -0.0978191 -0.000121698)
(-0.000119648 -0.0920209 0.000125658)
(-0.000119514 -0.0920201 -0.000125411)
(-7.12847e-05 -0.0916329 0.00012143)
(-7.11249e-05 -0.0916322 -0.000121181)
(0.000131423 -0.098579 -0.000379999)
(-0.000642945 -0.0998195 -0.000116958)
(0.000133851 -0.0981506 -0.000372968)
(-0.000664037 -0.0993982 -0.000130914)
(-0.000233307 -0.0917411 -0.000485261)
(0.00226395 -0.0925053 -0.00119515)
(-0.000232395 -0.0911095 -0.000475192)
(0.00221099 -0.0916435 -0.00119487)
(-0.0143476 -0.102522 0.00111647)
(0.0137049 -0.107328 0.472574)
(-0.0142257 -0.102314 0.00106983)
(0.0136655 -0.107688 0.473113)
(-0.0127793 -0.0973607 0.00239902)
(0.00957241 -0.110168 0.49643)
(-0.0126756 -0.0968169 0.00233045)
(0.00954701 -0.111293 0.496551)
(0.0137768 -0.106807 -0.471408)
(-0.0145703 -0.102932 -0.00119544)
(0.0137394 -0.107036 -0.471877)
(-0.014461 -0.102728 -0.0011585)
(0.00960457 -0.108376 -0.49619)
(-0.0129496 -0.0982585 -0.00251663)
(0.00957233 -0.109199 -0.496294)
(-0.0128527 -0.0978391 -0.00246177)
(-0.000610939 -0.100629 8.9191e-05)
(0.000133328 -0.0994426 0.000388469)
(-0.000624223 -0.100231 0.000102894)
(0.000132232 -0.099012 0.000385133)
(0.00234418 -0.0940416 0.00119132)
(-0.000221394 -0.0929947 0.000499021)
(0.00230984 -0.0933052 0.00119391)
(-0.000229077 -0.0923728 0.000493254)
(-0.000191614 -0.0989983 0.000130169)
(-0.000191714 -0.0989976 -0.000129939)
(-0.00016772 -0.0985889 0.000128274)
(-0.000167795 -0.0985883 -0.000128041)
(-0.000199952 -0.0929207 0.000131406)
(-0.000199848 -0.0929198 -0.000131167)
(-0.000161807 -0.0924522 0.000128921)
(-0.000161688 -0.0924514 -0.000128678)
(0.000133022 -0.0994408 -0.000388242)
(-0.000610658 -0.100626 -8.93527e-05)
(0.000131982 -0.0990101 -0.000384895)
(-0.000623923 -0.100229 -0.000103046)
(-0.000221413 -0.0929914 -0.000498729)
(0.00234346 -0.0940359 -0.00119111)
(-0.000229077 -0.0923695 -0.000492948)
(0.0023091 -0.0932991 -0.00119368)
(-0.0145656 -0.102931 0.00119467)
(0.0137716 -0.106809 0.471423)
(-0.0144562 -0.102726 0.0011577)
(0.0137339 -0.107039 0.471893)
(-0.0129457 -0.0982535 0.00251509)
(0.00960098 -0.108383 0.496193)
(-0.0128488 -0.0978334 0.00246019)
(0.0095686 -0.109206 0.496297)
(0.0138357 -0.1065 -0.47037)
(-0.0147613 -0.10335 -0.00125748)
(0.0138026 -0.106631 -0.470787)
(-0.0146661 -0.103139 -0.00122808)
(0.00963771 -0.10707 -0.49598)
(-0.0131016 -0.0989932 -0.00260965)
(0.00960479 -0.107672 -0.496072)
(-0.0130133 -0.0986396 -0.00256562)
(-0.000592772 -0.101394 6.31694e-05)
(0.000134844 -0.100297 0.000391526)
(-0.000599203 -0.101015 7.59645e-05)
(0.000134346 -0.0998711 0.000390449)
(0.00239922 -0.0953714 0.00118381)
(-0.000205965 -0.0942078 0.000506094)
(0.00237633 -0.0947274 0.00118781)
(-0.000212832 -0.0936058 0.000503182)
(-0.000225456 -0.0998444 0.000132524)
(-0.000225586 -0.0998439 -0.000132306)
(-0.000210559 -0.0994184 0.000131533)
(-0.000210678 -0.0994178 -0.000131309)
(-0.000251744 -0.0939336 0.00013461)
(-0.00025168 -0.0939326 -0.000134384)
(-0.000229375 -0.0934168 0.000133257)
(-0.000229293 -0.0934158 -0.000133024)
(0.000134493 -0.100296 -0.000391322)
(-0.000592494 -0.101392 -6.33404e-05)
(0.000134009 -0.0998693 -0.000390234)
(-0.000598927 -0.101013 -7.61321e-05)
(-0.00020598 -0.0942047 -0.000505826)
(0.00239853 -0.0953666 -0.00118363)
(-0.000212845 -0.0936026 -0.000502902)
(0.00237562 -0.0947222 -0.00118762)
(-0.0147567 -0.103349 0.00125675)
(0.0138307 -0.106503 0.470384)
(-0.0146615 -0.103138 0.00122733)
(0.0137974 -0.106633 0.470802)
(-0.0130978 -0.0989894 0.00260819)
(0.00963426 -0.107075 0.495983)
(-0.0130095 -0.0986352 0.00256411)
(0.00960122 -0.107678 0.496074)
(0.0138857 -0.106353 -0.46942)
(-0.0149228 -0.103783 -0.00130681)
(0.0138566 -0.10641 -0.469784)
(-0.0148422 -0.103565 -0.00128336)
(0.00966805 -0.106119 -0.495793)
(-0.0132321 -0.0996446 -0.00268427)
(0.00963595 -0.106556 -0.495873)
(-0.0131541 -0.0993261 -0.00264893)
(-0.000584407 -0.102129 3.96123e-05)
(0.000137609 -0.10114 0.000391326)
(-0.000586613 -0.101765 5.10981e-05)
(0.000136254 -0.10072 0.000391672)
(0.00243543 -0.0965554 0.00117479)
(-0.000194076 -0.0953808 0.000509009)
(0.0024213 -0.0959785 0.00117936)
(-0.000199392 -0.0947989 0.000507945)
(-0.000244815 -0.100704 0.000133462)
(-0.000244956 -0.100703 -0.000133258)
(-0.000236582 -0.100274 0.000133113)
(-0.00023672 -0.100273 -0.000132902)
(-0.000281861 -0.0950011 0.000136149)
(-0.000281822 -0.0950002 -0.000135936)
(-0.000268584 -0.0944628 0.000135543)
(-0.000268535 -0.0944618 -0.000135323)
(0.000137255 -0.101139 -0.000391139)
(-0.0005841 -0.102127 -3.97861e-05)
(0.000135898 -0.100719 -0.000391476)
(-0.000586322 -0.101763 -5.12711e-05)
(-0.000194103 -0.095378 -0.000508761)
(0.00243479 -0.0965514 -0.00117462)
(-0.000199414 -0.0947961 -0.000507688)
(0.00242064 -0.0959741 -0.00117919)
(-0.0149184 -0.103782 0.00130613)
(0.0138809 -0.106355 0.469434)
(-0.0148377 -0.103564 0.00128266)
(0.0138516 -0.106412 0.469799)
(-0.0132284 -0.0996418 0.00268287)
(0.00966471 -0.106124 0.495796)
(-0.0131503 -0.0993228 0.0026475)
(0.00963251 -0.106561 0.495875)
(0.0139283 -0.106324 -0.468543)
(-0.0150546 -0.10423 -0.00134606)
(0.013903 -0.106326 -0.468874)
(-0.0149891 -0.104005 -0.00132736)
(0.00969334 -0.105433 -0.495625)
(-0.0133392 -0.100253 -0.00274398)
(0.00966445 -0.105748 -0.495695)
(-0.0132734 -0.0999526 -0.00271572)
(-0.000579621 -0.102839 1.89102e-05)
(0.000143235 -0.101964 0.000389219)
(-0.000580943 -0.102487 2.89493e-05)
(0.000140193 -0.101555 0.00039038)
(0.00245846 -0.0976332 0.00116536)
(-0.00018468 -0.0965126 0.000509309)
(0.00245016 -0.0971056 0.00117003)
(-0.000188806 -0.0959517 0.000509396)
(-0.000252763 -0.10156 0.000133471)
(-0.000252903 -0.10156 -0.00013328)
(-0.000250061 -0.101133 0.000133532)
(-0.000250203 -0.101133 -0.000133335)
(-0.000299344 -0.0960875 0.000136596)
(-0.000299319 -0.0960867 -0.000136395)
(-0.000291769 -0.0955434 0.000136477)
(-0.000291738 -0.0955425 -0.000136271)
(0.000142901 -0.101963 -0.000389048)
(-0.000579267 -0.102837 -1.90829e-05)
(0.000139847 -0.101554 -0.000390201)
(-0.000580613 -0.102486 -2.91229e-05)
(-0.000184707 -0.0965102 -0.000509078)
(0.00245788 -0.0976298 -0.00116521)
(-0.000188833 -0.0959491 -0.000509157)
(0.00244955 -0.0971019 -0.00116988)
(-0.0150503 -0.10423 0.00134542)
(0.0139236 -0.106326 0.468557)
(-0.0149847 -0.104005 0.0013267)
(0.0138982 -0.106328 0.468888)
(-0.0133355 -0.100251 0.00274264)
(0.0096901 -0.105437 0.495628)
(-0.0132697 -0.0999501 0.00271435)
(0.00966111 -0.105752 0.495698)
(0.0139665 -0.106377 -0.467726)
(-0.0151558 -0.104683 -0.00137713)
(0.0139424 -0.106342 -0.468017)
(-0.0151054 -0.104456 -0.00136228)
(0.00971265 -0.104946 -0.495472)
(-0.0134212 -0.100835 -0.0027914)
(0.0096855 -0.105169 -0.495534)
(-0.013367 -0.100547 -0.00276899)
(-0.000572158 -0.103521 1.12422e-06)
(0.000153834 -0.102761 0.000386123)
(-0.000575487 -0.103184 9.71866e-06)
(0.00014803 -0.102367 0.00038768)
(0.00247326 -0.0986279 0.00115618)
(-0.000177924 -0.0975992 0.000508042)
(0.00246866 -0.0981397 0.00116067)
(-0.000180669 -0.0970615 0.000508804)
(-0.000249851 -0.102397 0.000132929)
(-0.000249985 -0.102397 -0.00013275)
(-0.00025261 -0.101982 0.000133222)
(-0.000252747 -0.101981 -0.000133037)
(-0.000307549 -0.0971669 0.000136338)
(-0.00030753 -0.0971662 -0.00013615)
(-0.000304356 -0.0966291 0.000136532)
(-0.000304334 -0.0966283 -0.000136338)
(0.000153529 -0.10276 -0.000385963)
(-0.000571752 -0.10352 -1.2946e-06)
(0.00014771 -0.102366 -0.000387514)
(-0.000575105 -0.103183 -9.89021e-06)
(-0.000177944 -0.0975971 -0.000507825)
(0.00247272 -0.098625 -0.00115604)
(-0.000180691 -0.0970593 -0.000508581)
(0.0024681 -0.0981366 -0.00116053)
(-0.0151515 -0.104682 0.00137653)
(0.0139619 -0.106379 0.46774)
(-0.0151011 -0.104456 0.00136166)
(0.0139378 -0.106344 0.468031)
(-0.0134176 -0.100833 0.00279011)
(0.00970948 -0.10495 0.495475)
(-0.0133633 -0.100545 0.00276767)
(0.00968225 -0.105173 0.495537)
(0.0140059 -0.10648 -0.466968)
(-0.0152255 -0.105128 -0.00140153)
(0.0139806 -0.106424 -0.467223)
(-0.015191 -0.104907 -0.00138983)
(0.00972908 -0.1046 -0.495334)
(-0.0134792 -0.101395 -0.00282858)
(0.0097026 -0.104759 -0.495388)
(-0.0134365 -0.101118 -0.00281106)
(-0.000556398 -0.104169 -1.39031e-05)
(0.000171424 -0.103521 0.000382644)
(-0.00056462 -0.10385 -6.6599e-06)
(0.000161955 -0.103146 0.000384327)
(0.00248369 -0.0995511 0.00114761)
(-0.000169483 -0.0986331 0.000505908)
(0.00248076 -0.0990979 0.00115176)
(-0.000174805 -0.0981235 0.000507034)
(-0.000235166 -0.1032 0.000132135)
(-0.000235288 -0.1032 -0.000131966)
(-0.000243995 -0.102804 0.000132525)
(-0.000244124 -0.102803 -0.000132351)
(-0.000307 -0.0982189 0.000135623)
(-0.000307002 -0.0982182 -0.000135446)
(-0.000308361 -0.0976973 0.000136025)
(-0.000308348 -0.0976966 -0.000135842)
(0.000171163 -0.103521 -0.000382495)
(-0.000555932 -0.104168 1.3736e-05)
(0.00016167 -0.103145 -0.000384173)
(-0.000564184 -0.103849 6.4906e-06)
(-0.000169637 -0.0986312 -0.000505704)
(0.00248319 -0.0995486 -0.00114747)
(-0.000174849 -0.0981215 -0.000506823)
(0.00248024 -0.0990952 -0.00115162)
(-0.0152213 -0.105127 0.00140096)
(0.0140014 -0.106482 0.466981)
(-0.0151868 -0.104907 0.00138924)
(0.0139761 -0.106426 0.467237)
(-0.0134756 -0.101393 0.00282733)
(0.00972593 -0.104603 0.495336)
(-0.0134329 -0.101116 0.00280979)
(0.00969939 -0.104762 0.49539)
(0.0140504 -0.106601 -0.466238)
(-0.0152603 -0.105547 -0.00142034)
(0.0140218 -0.106541 -0.466475)
(-0.0152436 -0.105342 -0.00141129)
(0.00974159 -0.104343 -0.495204)
(-0.0135101 -0.101925 -0.00285703)
(0.00971645 -0.104463 -0.495253)
(-0.0134807 -0.101665 -0.00284371)
(-0.000525678 -0.104768 -2.59128e-05)
(0.000198314 -0.104228 0.000379186)
(-0.000542354 -0.104476 -2.01702e-05)
(0.00018306 -0.103883 0.000380814)
(0.00249411 -0.100403 0.0011397)
(-0.000142901 -0.0996 0.00050336)
(0.00249088 -0.0999863 0.00114352)
(-0.000156954 -0.0991252 0.000504648)
(-0.000206259 -0.10395 0.000130836)
(-0.000206366 -0.10395 -0.00013068)
(-0.000222759 -0.103583 0.000131474)
(-0.000222872 -0.103583 -0.000131313)
(-0.000295968 -0.0992223 0.000134705)
(-0.000295966 -0.0992217 -0.00013454)
(-0.000302573 -0.0987279 0.000135173)
(-0.000302576 -0.0987272 -0.000135002)
(0.000198099 -0.104227 -0.000379046)
(-0.000525135 -0.104767 2.57496e-05)
(0.000182825 -0.103883 -0.000380669)
(-0.000541852 -0.104475 2.00065e-05)
(-0.000143062 -0.0995983 -0.000503166)
(0.00249368 -0.100401 -0.00113957)
(-0.000157127 -0.0991235 -0.000504448)
(0.00249041 -0.099984 -0.00114339)
(-0.0152561 -0.105546 0.00141979)
(0.0140459 -0.106602 0.466251)
(-0.0152394 -0.105342 0.00141073)
(0.0140173 -0.106542 0.466489)
(-0.0135065 -0.101924 0.00285582)
(0.00973836 -0.104346 0.495207)
(-0.0134771 -0.101663 0.00284248)
(0.00971323 -0.104466 0.495256)
(0.0141075 -0.106705 -0.465519)
(-0.0152574 -0.105916 -0.00143451)
(0.0140719 -0.106657 -0.465765)
(-0.0152601 -0.105739 -0.00142766)
(0.00975478 -0.10413 -0.495085)
(-0.0135147 -0.102411 -0.00287796)
(0.00972959 -0.104234 -0.495129)
(-0.0134991 -0.102175 -0.00286826)
(-0.000472034 -0.105298 -3.54106e-05)
(0.00024647 -0.104859 0.000376011)
(-0.000501185 -0.105043 -3.09182e-05)
(0.000219433 -0.104554 0.000377469)
(0.00250654 -0.101175 0.00113245)
(-0.000100629 -0.100485 0.000500685)
(0.0025019 -0.1008 0.00113595)
(-0.000124694 -0.100053 0.00050201)
(-0.000157893 -0.104625 0.000129467)
(-0.000157983 -0.104625 -0.000129318)
(-0.000184731 -0.104298 0.000130146)
(-0.000184828 -0.104298 -0.000129994)
(-0.000273318 -0.100153 0.000133767)
(-0.000273307 -0.100153 -0.00013361)
(-0.00028622 -0.0996983 0.000134224)
(-0.000286211 -0.0996977 -0.000134063)
(0.00024631 -0.104858 -0.00037587)
(-0.000471353 -0.105298 3.52666e-05)
(0.000219245 -0.104553 -0.000377332)
(-0.000500581 -0.105042 3.07569e-05)
(-0.000100771 -0.100483 -0.0005005)
(0.00250629 -0.101173 -0.00113234)
(-0.000124854 -0.100052 -0.000501821)
(0.00250154 -0.100798 -0.00113583)
(-0.0152531 -0.105916 0.00143395)
(0.0141028 -0.106706 0.465566)
(-0.0152559 -0.105739 0.00142712)
(0.0140673 -0.106659 0.465779)
(-0.0135107 -0.102409 0.00287677)
(0.00975095 -0.104133 0.495087)
(-0.0134953 -0.102173 0.00286707)
(0.00972613 -0.104237 0.495131)
(0.0141831 -0.106758 -0.464898)
(-0.0152119 -0.106206 -0.00144457)
(0.0141376 -0.10674 -0.465057)
(-0.0152366 -0.106072 -0.00143971)
(0.00976938 -0.10391 -0.494973)
(-0.0134901 -0.102828 -0.00289218)
(0.00974465 -0.104023 -0.495013)
(-0.0134906 -0.10263 -0.00288576)
(-0.000387516 -0.105735 -4.26763e-05)
(0.000322431 -0.105388 0.000373274)
(-0.000433153 -0.10553 -3.92151e-05)
(0.000280887 -0.105137 0.000374494)
(0.00252228 -0.10185 0.0011258)
(-4.44141e-05 -0.101271 0.000498027)
(0.00251583 -0.101526 0.001129)
(-7.30374e-05 -0.100892 0.000499333)
(-8.54657e-05 -0.105197 0.000128149)
(-8.55562e-05 -0.105197 -0.000128017)
(-0.000124925 -0.104926 0.000128742)
(-0.00012501 -0.104926 -0.000128599)
(-0.000233917 -0.100983 0.000132897)
(-0.000233916 -0.100983 -0.000132752)
(-0.000256104 -0.100583 0.000133324)
(-0.000256092 -0.100582 -0.000133173)
(0.000322276 -0.105387 -0.000373161)
(-0.000386797 -0.105734 4.2523e-05)
(0.000280747 -0.105137 -0.00037436)
(-0.000432405 -0.105529 3.90748e-05)
(-4.4594e-05 -0.10127 -0.000497857)
(0.00252183 -0.101848 -0.00112571)
(-7.31613e-05 -0.10089 -0.000499154)
(0.00251569 -0.101524 -0.0011289)
(-0.0152076 -0.106207 0.0014441)
(0.0141785 -0.106758 0.464912)
(-0.0152322 -0.106073 0.00143917)
(0.0141328 -0.106741 0.465104)
(-0.0134886 -0.102826 0.0028911)
(0.00976848 -0.103914 0.494975)
(-0.013486 -0.102627 0.00288461)
(0.00974022 -0.104027 0.495015)
(0.0142826 -0.10672 -0.463856)
(-0.0151185 -0.106384 -0.00145156)
(0.014225 -0.106753 -0.464447)
(-0.0151683 -0.106311 -0.00144801)
(0.00978345 -0.103637 -0.494868)
(-0.0134313 -0.103146 -0.00290065)
(0.00976317 -0.103783 -0.494904)
(-0.0134529 -0.103002 -0.00289696)
(-0.000263128 -0.106047 -4.78362e-05)
(0.000433712 -0.105785 0.00037091)
(-0.000330106 -0.105909 -4.54801e-05)
(0.00037302 -0.105605 0.000372071)
(0.0025419 -0.102405 0.00111969)
(1.69191e-05 -0.101931 0.00049539)
(0.00253303 -0.102144 0.00112263)
(-1.40506e-05 -0.101619 0.000496697)
(2.66676e-05 -0.105631 0.000126802)
(2.65523e-05 -0.105631 -0.000126663)
(-3.70696e-05 -0.105433 0.000127574)
(-3.71731e-05 -0.105433 -0.000127442)
(-0.000191355 -0.101679 0.000131989)
(-0.000191373 -0.101678 -0.000131846)
(-0.000210139 -0.101349 0.000132456)
(-0.000210133 -0.101348 -0.000132314)
(0.000433504 -0.105785 -0.00037077)
(-0.000262455 -0.106047 4.77721e-05)
(0.000372853 -0.105604 -0.000371959)
(-0.000329361 -0.105908 4.53332e-05)
(1.66172e-05 -0.101929 -0.000495223)
(0.00254118 -0.102403 -0.00111963)
(-1.42586e-05 -0.101617 -0.000496532)
(0.00253263 -0.102142 -0.00112256)
(-0.015114 -0.106385 0.00145093)
(0.0142782 -0.106719 0.464027)
(-0.0151638 -0.106312 0.00144753)
(0.0142205 -0.106753 0.46446)
(-0.0134312 -0.103144 0.00289954)
(0.00978481 -0.103639 0.494871)
(-0.0134508 -0.102999 0.0028959)
(0.00976188 -0.103786 0.494906)
(0.0144097 -0.106541 -0.463667)
(-0.0149693 -0.10642 -0.00145518)
(0.0143369 -0.106651 -0.463398)
(-0.0150476 -0.106422 -0.00145348)
(0.00979505 -0.103272 -0.494769)
(-0.01333 -0.103318 -0.00290346)
(0.0097648 -0.103469 -0.494801)
(-0.0133644 -0.103253 -0.00290263)
(-8.94372e-05 -0.106205 -5.15075e-05)
(0.000586761 -0.106022 0.000368734)
(-0.000181913 -0.106148 -4.97023e-05)
(0.000504948 -0.105926 0.000369669)
(0.00256358 -0.102808 0.0011142)
(8.63688e-05 -0.102429 0.000492731)
(0.00255538 -0.102627 0.00111681)
(5.05617e-05 -0.102202 0.000494045)
(0.000185233 -0.105904 0.000125303)
(0.000185135 -0.105904 -0.000125194)
(0.000101103 -0.10579 0.000125997)
(0.000100981 -0.10579 -0.000125867)
(-0.000138407 -0.10221 0.000130998)
(-0.000138446 -0.10221 -0.000130876)
(-0.000167563 -0.101967 0.000131494)
(-0.000167608 -0.101967 -0.000131358)
(0.000586594 -0.106022 -0.000368656)
(-8.87212e-05 -0.106204 5.13663e-05)
(0.000504705 -0.105925 -0.000369536)
(-0.000181345 -0.106147 4.96757e-05)
(8.6024e-05 -0.102428 -0.000492587)
(0.00256251 -0.102807 -0.00111415)
(5.01421e-05 -0.102201 -0.000493882)
(0.00255407 -0.102625 -0.00111675)
(-0.0149651 -0.10642 0.00145482)
(0.0144058 -0.106542 0.46358)
(-0.0150433 -0.106423 0.00145285)
(0.0143331 -0.106651 0.463571)
(-0.0133321 -0.103318 0.00290251)
(0.00979887 -0.103271 0.494771)
(-0.0133681 -0.103252 0.00290154)
(0.00977054 -0.10347 0.494803)
(0.0145757 -0.106186 -0.462383)
(-0.0147618 -0.106265 -0.00145669)
(0.01448 -0.106387 -0.463023)
(-0.0148678 -0.106371 -0.00145581)
(0.00985373 -0.102755 -0.494675)
(-0.0132225 -0.103306 -0.00290115)
(0.00980052 -0.103038 -0.494704)
(-0.0132617 -0.103337 -0.00290315)
(0.000136295 -0.106172 -5.33174e-05)
(0.000788869 -0.106058 0.000367265)
(1.8778e-05 -0.106213 -5.26025e-05)
(0.00068247 -0.106068 0.000367841)
(0.00257568 -0.103034 0.00110941)
(0.00016854 -0.102724 0.000489995)
(0.00257202 -0.102944 0.00111166)
(0.000126191 -0.102604 0.000491368)
(0.000387128 -0.10597 0.000123998)
(0.000387087 -0.10597 -0.000123851)
(0.000280612 -0.105966 0.0001246)
(0.000280557 -0.105966 -0.000124484)
(-6.039e-05 -0.102531 0.000129982)
(-6.03304e-05 -0.102531 -0.000129853)
(-0.000102 -0.1024 0.000130487)
(-0.000101978 -0.102399 -0.000130367)
(0.000788914 -0.106058 -0.000367079)
(0.000137535 -0.106172 5.3296e-05)
(0.000682466 -0.106067 -0.000367748)
(1.98788e-05 -0.106213 5.24395e-05)
(0.000168619 -0.102723 -0.000489848)
(0.00257654 -0.103032 -0.00110939)
(0.000126123 -0.102603 -0.000491232)
(0.00257208 -0.102943 -0.00111164)
(-0.0147561 -0.106266 0.0014559)
(0.0145696 -0.106185 0.462907)
(-0.0148629 -0.10637 0.00145537)
(0.0144749 -0.106389 0.46314)
(-0.0132137 -0.103305 0.00290028)
(0.00984332 -0.102756 0.494678)
(-0.0132586 -0.103338 0.00290211)
(0.00979783 -0.103036 0.494706)
(0.0147901 -0.105597 -0.462531)
(-0.0145014 -0.105887 -0.00145337)
(0.0146712 -0.105927 -0.462145)
(-0.014634 -0.106104 -0.00145544)
(0.00989076 -0.102028 -0.494587)
(-0.013045 -0.103068 -0.00289508)
(0.0098402 -0.102421 -0.494612)
(-0.0131139 -0.103221 -0.00289815)
(0.000383061 -0.105931 -5.39879e-05)
(0.00103247 -0.105854 0.000364549)
(0.000261934 -0.10608 -5.37133e-05)
(0.000906135 -0.105988 0.000366206)
(0.00265633 -0.103047 0.0011041)
(0.000274224 -0.102773 0.000486636)
(0.00260379 -0.10307 0.00110638)
(0.000217834 -0.102782 0.000488443)
(0.000636735 -0.105786 0.000122651)
(0.000636629 -0.105786 -0.000122537)
(0.000505836 -0.105912 0.000123306)
(0.000505752 -0.105912 -0.000123169)
(3.81319e-05 -0.102593 0.000128854)
(3.80852e-05 -0.102593 -0.000128733)
(-1.31871e-05 -0.102598 0.000129446)
(-1.31891e-05 -0.102597 -0.000129318)
(0.00103219 -0.105853 -0.000364428)
(0.000383299 -0.105931 5.39388e-05)
(0.000905975 -0.105988 -0.000366044)
(0.00026254 -0.10608 5.37275e-05)
(0.000273752 -0.102772 -0.000486491)