/*--------------------------------*- C++ -*----------------------------------*\
  =========                 |
  \\      /  F ield         | OpenFOAM: The Open Source CFD Toolbox
   \\    /   O peration     | Website:  https://openfoam.org
    \\  /    A nd           | Version:  9
     \\/     M anipulation  |
\*---------------------------------------------------------------------------*/
FoamFile
{
    format      ascii;
    class       surfaceScalarField;
    location    "0.2";
    object      phi;
}
// * * * * * * * * * * * * * * * * * * * * * * * * * * * * * * * * * * * * * //

dimensions      [0 3 -1 0 0 0 0];

internalField   nonuniform List<scalar> 
104044
(
-2.38819e-11
-5.17654e-05
-1.50356e-09
5.17609e-05
6.06983e-09
-5.17661e-05
-1.46159e-09
-7.28864e-12
5.17615e-05
5.99002e-09
1.8089e-11
-2.00778e-09
5.80732e-09
-2.02676e-09
-2.46888e-12
5.81457e-09
-1.74723e-11
-1.9296e-05
1.92946e-05
-1.92962e-05
-8.42781e-12
1.92947e-05
1.52715e-11
-2.77667e-12
-7.76064e-12
-5.17671e-05
-1.4285e-09
5.17626e-05
5.91494e-09
-5.17682e-05
-1.40186e-09
-5.24571e-12
5.17638e-05
5.8491e-09
-4.64455e-12
-2.00679e-09
5.76728e-09
-1.98062e-09
-2.77705e-12
5.70827e-09
-8.93381e-12
-1.92965e-05
1.92951e-05
-1.92969e-05
-5.78869e-12
1.92954e-05
-5.17375e-12
-3.16627e-12
2.27021e-13
-5.1769e-05
-1.38681e-09
5.17645e-05
5.81239e-09
-5.1769e-05
-1.38833e-09
5.67093e-12
5.17645e-05
5.81773e-09
3.80993e-13
-1.96503e-09
5.67394e-09
-1.968e-09
3.49576e-12
5.68168e-09
3.07347e-13
-1.92971e-05
1.92957e-05
-1.92971e-05
6.34046e-12
1.92957e-05
3.97973e-13
3.91963e-12
8.09346e-12
-5.17683e-05
-1.40614e-09
5.17638e-05
5.86421e-09
-5.17672e-05
-1.43482e-09
7.55617e-12
5.17627e-05
5.93753e-09
5.26591e-12
-1.98902e-09
5.73029e-09
-2.01939e-09
2.90143e-12
5.80039e-09
9.38224e-12
-1.92969e-05
1.92955e-05
-1.92965e-05
8.81649e-12
1.92951e-05
5.80113e-12
3.18722e-12
2.39429e-11
-5.17661e-05
-1.46922e-09
5.17616e-05
6.01733e-09
-5.17655e-05
-1.51138e-09
5.17609e-05
6.10034e-09
-1.80771e-11
-2.04201e-09
5.85472e-09
-2.02357e-09
5.85099e-09
1.76835e-11
-1.92962e-05
1.92948e-05
-1.92961e-05
1.92946e-05
-1.51282e-11
-1.71877e-11
-5.1754e-05
-3.71185e-09
5.17434e-05
1.43166e-08
-5.17546e-05
-3.70399e-09
-1.79912e-11
5.17441e-05
1.42827e-08
-1.61465e-11
-2.22621e-09
9.12535e-09
-2.21002e-09
-1.03603e-11
9.07873e-09
-1.20016e-11
-1.92923e-05
1.92886e-05
-1.92925e-05
-2.06677e-11
1.92888e-05
-1.30666e-11
-1.47738e-11
-1.76175e-11
-5.17558e-05
-3.68169e-09
5.17453e-05
1.4238e-08
-5.1757e-05
-3.66492e-09
-1.09018e-11
5.17465e-05
1.41936e-08
-1.20922e-11
-2.18538e-09
9.02215e-09
-2.16553e-09
-7.97082e-12
8.96836e-09
-1.86164e-11
-1.92929e-05
1.92892e-05
-1.92933e-05
-1.11028e-11
1.92896e-05
-1.34893e-11
-8.33657e-12
2.36477e-13
-5.17577e-05
-3.65512e-09
5.17472e-05
1.41683e-08
-5.17577e-05
-3.65608e-09
1.13383e-11
5.17472e-05
1.41715e-08
2.37182e-13
-2.15358e-09
8.93753e-09
-2.1546e-09
8.38958e-12
8.94133e-09
2.87487e-13
-1.92935e-05
1.92899e-05
-1.92935e-05
1.16244e-11
1.92899e-05
2.84409e-13
8.86212e-12
1.79624e-11
-5.1757e-05
-3.66773e-09
5.17465e-05
1.42028e-08
-5.17558e-05
-3.68605e-09
1.82703e-11
5.17453e-05
1.42522e-08
1.24419e-11
-2.16842e-09
8.97922e-09
-2.18972e-09
1.06887e-11
9.03859e-09
1.90498e-11
-1.92933e-05
1.92896e-05
-1.92929e-05
2.10134e-11
1.92892e-05
1.39303e-11
1.51349e-11
1.74245e-11
-5.17547e-05
-3.70951e-09
5.17441e-05
1.43006e-08
-5.1754e-05
-3.7181e-09
5.17434e-05
1.43363e-08
1.62889e-11
-2.21531e-09
9.09882e-09
-2.23167e-09
9.14765e-09
1.21839e-11
-1.92926e-05
1.92889e-05
-1.92924e-05
1.92887e-05
1.33111e-11
-2.40027e-11
-5.17288e-05
-7.05378e-09
5.17097e-05
2.61596e-08
-5.17295e-05
-7.05246e-09
-2.531e-11
5.17104e-05
2.61305e-08
-2.04619e-11
-5.32571e-09
1.996e-08
-5.32094e-09
-2.17111e-11
1.99291e-08
-1.37138e-11
-1.92833e-05
1.92763e-05
-1.92835e-05
-2.90988e-11
1.92765e-05
-1.26754e-11
-2.48356e-11
-2.61741e-11
-5.17307e-05
-7.03045e-09
5.17116e-05
2.60997e-08
-5.17319e-05
-7.01679e-09
-1.60798e-11
5.17128e-05
2.60661e-08
-2.18805e-11
-5.29949e-09
1.9893e-08
-5.28509e-09
-1.3408e-11
1.9856e-08
-2.69822e-11
-1.92839e-05
1.92769e-05
-1.92843e-05
-1.60119e-11
1.92773e-05
-2.27271e-11
-1.34667e-11
2.81682e-13
-5.17326e-05
-7.0087e-09
5.17136e-05
2.60467e-08
-5.17326e-05
-7.00915e-09
1.65965e-11
5.17136e-05
2.60481e-08
2.43676e-13
-5.27674e-09
1.98351e-08
-5.27749e-09
1.38574e-11
1.98374e-08
3.04783e-13
-1.92846e-05
1.92775e-05
-1.92846e-05
1.65888e-11
1.92775e-05
2.80054e-13
1.4e-11
2.65793e-11
-5.17319e-05
-7.01809e-09
5.17128e-05
2.60704e-08
-5.17307e-05
-7.03248e-09
2.556e-11
5.17116e-05
2.61065e-08
2.22415e-11
-5.28728e-09
1.9863e-08
-5.30292e-09
2.19573e-11
1.99039e-08
2.74656e-11
-1.92843e-05
1.92773e-05
-1.92839e-05
2.9449e-11
1.92769e-05
2.31827e-11
2.51867e-11
2.42161e-11
-5.17295e-05
-7.05506e-09
5.17104e-05
2.61391e-08
-5.17288e-05
-7.05683e-09
5.17097e-05
2.61691e-08
2.06716e-11
-5.32533e-09
1.99428e-08
-5.3308e-09
1.9975e-08
1.3868e-11
-1.92835e-05
1.92765e-05
-1.92833e-05
1.92763e-05
1.27661e-11
-3.10634e-11
-5.16865e-05
-1.03535e-08
5.16587e-05
3.82358e-08
-5.16872e-05
-1.03567e-08
-3.12552e-11
5.16593e-05
3.82064e-08
-2.72467e-11
-8.61662e-09
3.18466e-08
-8.61764e-09
-2.81063e-11
3.18184e-08
-1.58635e-11
-1.92677e-05
1.92573e-05
-1.92679e-05
-3.66256e-11
1.92576e-05
-1.46104e-11
-3.26106e-11
-3.33918e-11
-5.16884e-05
-1.03312e-08
5.16605e-05
3.818e-08
-5.16896e-05
-1.03171e-08
-2.07684e-11
5.16618e-05
3.81476e-08
-2.96066e-11
-8.59445e-09
3.17908e-08
-8.58089e-09
-1.82908e-11
3.17588e-08
-3.4334e-11
-1.92683e-05
1.9258e-05
-1.92687e-05
-2.0547e-11
1.92584e-05
-3.04422e-11
-1.81409e-11
2.68367e-13
-5.16904e-05
-1.03084e-08
5.16626e-05
3.81283e-08
-5.16904e-05
-1.03084e-08
2.13012e-11
5.16626e-05
3.81286e-08
2.83206e-13
-8.5727e-09
3.174e-08
-8.5729e-09
1.88433e-11
3.17407e-08
2.67585e-13
-1.92689e-05
1.92586e-05
-1.92689e-05
2.10773e-11
1.92586e-05
2.94936e-13
1.87192e-11
3.39e-11
-5.16896e-05
-1.03172e-08
5.16618e-05
3.81484e-08
-5.16884e-05
-1.03315e-08
3.1618e-11
5.16606e-05
3.81813e-08
3.00841e-11
-8.58148e-09
3.1761e-08
-8.59537e-09
2.84391e-11
3.17943e-08
3.48328e-11
-1.92687e-05
1.92584e-05
-1.92683e-05
3.7035e-11
1.9258e-05
3.09485e-11
3.29808e-11
3.12011e-11
-5.16872e-05
-1.0357e-08
5.16594e-05
3.82081e-08
-5.16865e-05
-1.03538e-08
5.16587e-05
3.82375e-08
2.7416e-11
-8.61882e-09
3.18227e-08
-8.61781e-09
3.18511e-08
1.60866e-11
-1.92679e-05
1.92576e-05
-1.92677e-05
1.92574e-05
1.48494e-11
-3.7839e-11
-5.16266e-05
-1.3779e-08
5.15896e-05
5.08512e-08
-5.16273e-05
-1.37859e-08
-3.58793e-11
5.15903e-05
5.08194e-08
-3.40241e-11
-1.1918e-08
4.39969e-08
-1.19231e-08
-3.35014e-11
4.39668e-08
-1.76816e-11
-1.92454e-05
1.92317e-05
-1.92457e-05
-4.34887e-11
1.92319e-05
-1.65813e-11
-3.97446e-11
-3.95973e-11
-5.16285e-05
-1.37559e-08
5.15915e-05
5.0795e-08
-5.16297e-05
-1.37409e-08
-2.48977e-11
5.15927e-05
5.07613e-08
-3.62697e-11
-1.18957e-08
4.39417e-08
-1.18812e-08
-2.2678e-11
4.3909e-08
-4.08206e-11
-1.92461e-05
1.92323e-05
-1.92465e-05
-2.45516e-11
1.92327e-05
-3.73188e-11
-2.23994e-11
2.46358e-13
-5.16305e-05
-1.37314e-08
5.15935e-05
5.07412e-08
-5.16305e-05
-1.37315e-08
2.53901e-11
5.15935e-05
5.07414e-08
2.44558e-13
-1.18721e-08
4.38895e-08
-1.18721e-08
2.31653e-11
4.38896e-08
2.3715e-13
-1.92467e-05
1.9233e-05
-1.92467e-05
2.50219e-11
1.9233e-05
2.35267e-13
2.28646e-11
4.00877e-11
-5.16298e-05
-1.37411e-08
5.15927e-05
5.0762e-08
-5.16285e-05
-1.37564e-08
3.64109e-11
5.15915e-05
5.07961e-08
3.67279e-11
-1.18812e-08
4.39095e-08
-1.18958e-08
3.38234e-11
4.39424e-08
4.12798e-11
-1.92465e-05
1.92327e-05
-1.92461e-05
4.38941e-11
1.92323e-05
3.77595e-11
4.01241e-11
3.80205e-11
-5.16273e-05
-1.37865e-08
5.15903e-05
5.08209e-08
-5.16266e-05
-1.37794e-08
5.15896e-05
5.0853e-08
3.42747e-11
-1.19233e-08
4.39678e-08
-1.19183e-08
4.3998e-08
1.79384e-11
-1.92457e-05
1.92319e-05
-1.92455e-05
1.92317e-05
1.6892e-11
-4.48889e-11
-5.15481e-05
-1.75185e-08
5.15011e-05
6.4578e-08
-5.15488e-05
-1.75295e-08
-3.91351e-11
5.15018e-05
6.45443e-08
-4.09022e-11
-1.54494e-08
5.69811e-08
-1.54579e-08
-3.73307e-11
5.6949e-08
-1.94876e-11
-1.92163e-05
1.91988e-05
-1.92165e-05
-4.97594e-11
1.9199e-05
-1.838e-11
-4.62351e-11
-4.48395e-11
-5.155e-05
-1.74946e-08
5.1503e-05
6.45222e-08
-5.15512e-05
-1.74789e-08
-2.84759e-11
5.15042e-05
6.4487e-08
-4.18831e-11
-1.54258e-08
5.69259e-08
-1.54106e-08
-2.64724e-11
5.68918e-08
-4.64801e-11
-1.92169e-05
1.91994e-05
-1.92173e-05
-2.79809e-11
1.91998e-05
-4.32875e-11
-2.6057e-11
2.77808e-13
-5.1552e-05
-1.74688e-08
5.1505e-05
6.4466e-08
-5.1552e-05
-1.74688e-08
2.90352e-11
5.1505e-05
6.44663e-08
2.60565e-13
-1.54009e-08
5.68715e-08
-1.5401e-08
2.69942e-11
5.68719e-08
3.0187e-13
-1.92175e-05
1.92e-05
-1.92175e-05
2.85809e-11
1.92e-05
2.64969e-13
2.6588e-11
4.5452e-11
-5.15512e-05
-1.74791e-08
5.15042e-05
6.44877e-08
-5.155e-05
-1.74949e-08
4.0169e-11
5.1503e-05
6.45232e-08
4.24364e-11
-1.54109e-08
5.68928e-08
-1.54264e-08
3.80165e-11
5.69273e-08
4.70725e-11
-1.92173e-05
1.91998e-05
-1.92169e-05
5.03148e-11
1.91994e-05
4.38161e-11
4.66838e-11
4.48325e-11
-5.15488e-05
-1.75297e-08
5.15018e-05
6.45457e-08
-5.15481e-05
-1.7518e-08
5.15011e-05
6.4581e-08
4.10271e-11
-1.54585e-08
5.69508e-08
-1.54493e-08
5.69841e-08
1.9589e-11
-1.92165e-05
1.9199e-05
-1.92163e-05
1.91988e-05
1.86509e-11
-5.11344e-11
-5.14492e-05
-2.16778e-08
5.13911e-05
7.98106e-08
-5.14499e-05
-2.16939e-08
-4.22929e-11
5.13918e-05
7.97723e-08
-4.75778e-11
-1.93541e-08
7.12969e-08
-1.9367e-08
-4.05462e-11
7.12616e-08
-1.99813e-11
-1.91794e-05
1.91578e-05
-1.91796e-05
-5.54911e-11
1.9158e-05
-1.95865e-11
-5.22691e-11
-4.94504e-11
-5.14511e-05
-2.16542e-08
5.1393e-05
7.97528e-08
-5.14523e-05
-2.16382e-08
-3.16264e-11
5.13942e-05
7.97164e-08
-4.67769e-11
-1.93301e-08
7.1241e-08
-1.93143e-08
-2.98037e-11
7.12054e-08
-5.15052e-11
-1.918e-05
1.91584e-05
-1.91805e-05
-3.10334e-11
1.91588e-05
-4.85911e-11
-2.92535e-11
2.26753e-13
-5.14531e-05
-2.16276e-08
5.1395e-05
7.96947e-08
-5.14531e-05
-2.16275e-08
3.20837e-11
5.1395e-05
7.96947e-08
2.70069e-13
-1.9304e-08
7.11842e-08
-1.9304e-08
3.03461e-11
7.11843e-08
2.34655e-13
-1.91807e-05
1.91591e-05
-1.91807e-05
3.15049e-11
1.91591e-05
2.91221e-13
2.98394e-11
4.99291e-11
-5.14523e-05
-2.1638e-08
5.13942e-05
7.97164e-08
-5.14511e-05
-2.16541e-08
4.28929e-11
5.1393e-05
7.97528e-08
4.73424e-11
-1.93142e-08
7.12057e-08
-1.93301e-08
4.12051e-11
7.12413e-08
5.19843e-11
-1.91805e-05
1.91588e-05
-1.91801e-05
5.59486e-11
1.91584e-05
4.91612e-11
5.27239e-11
5.11943e-11
-5.14499e-05
-2.16937e-08
5.13918e-05
7.97723e-08
-5.14492e-05
-2.16771e-08
5.13911e-05
7.98111e-08
4.76432e-11
-1.93669e-08
7.1262e-08
-1.93528e-08
7.12984e-08
2.01466e-11
-1.91797e-05
1.9158e-05
-1.91794e-05
1.91578e-05
1.99056e-11
-5.69959e-11
-5.13276e-05
-2.63645e-08
5.12571e-05
9.69242e-08
-5.13283e-05
-2.63861e-08
-4.45252e-11
5.12578e-05
9.68813e-08
-5.34251e-11
-2.37182e-08
8.72552e-08
-2.37369e-08
-4.31573e-11
8.72154e-08
-1.91953e-11
-1.91341e-05
1.91077e-05
-1.91343e-05
-6.0415e-11
1.91079e-05
-1.94235e-11
-5.74758e-11
-5.32327e-11
-5.13295e-05
-2.63418e-08
5.1259e-05
9.68648e-08
-5.13307e-05
-2.63258e-08
-3.42689e-11
5.12602e-05
9.68279e-08
-5.09336e-11
-2.36953e-08
8.71975e-08
-2.36793e-08
-3.26806e-11
8.71612e-08
-5.5763e-11
-1.91347e-05
1.91083e-05
-1.91351e-05
-3.36172e-11
1.91088e-05
-5.31968e-11
-3.20679e-11
1.80898e-13
-5.13315e-05
-2.63151e-08
5.12609e-05
9.68061e-08
-5.13315e-05
-2.63153e-08
3.46338e-11
5.12609e-05
9.68063e-08
1.8798e-13
-2.36688e-08
8.71396e-08
-2.36688e-08
3.30629e-11
8.71396e-08
1.45053e-13
-1.91354e-05
1.9109e-05
-1.91354e-05
3.39107e-11
1.9109e-05
1.66878e-13
3.24165e-11
5.35984e-11
-5.13307e-05
-2.63262e-08
5.12602e-05
9.68285e-08
-5.13295e-05
-2.63424e-08
4.48496e-11
5.1259e-05
9.68657e-08
5.13195e-11
-2.36794e-08
8.71614e-08
-2.36954e-08
4.35018e-11
8.71979e-08
5.60706e-11
-1.91351e-05
1.91088e-05
-1.91347e-05
6.06648e-11
1.91083e-05
5.35528e-11
5.78015e-11
5.72297e-11
-5.13283e-05
-2.6387e-08
5.12578e-05
9.68824e-08
-5.13276e-05
-2.63652e-08
5.12571e-05
9.69251e-08
5.36579e-11
-2.37371e-08
8.72159e-08
-2.37184e-08
8.72559e-08
1.95425e-11
-1.91343e-05
1.9108e-05
-1.91341e-05
1.91077e-05
1.97294e-11
-6.36075e-11
-5.11806e-05
-3.16629e-08
5.10961e-05
1.16212e-07
-5.11813e-05
-3.16914e-08
-4.61601e-11
5.10968e-05
1.16167e-07
-5.95241e-11
-2.8641e-08
1.052e-07
-2.86658e-08
-4.49183e-11
1.05157e-07
-1.86553e-11
-1.90791e-05
1.90475e-05
-1.90793e-05
-6.46823e-11
1.90477e-05
-1.87232e-11
-6.18994e-11
-5.64308e-11
-5.11825e-05
-3.16422e-08
5.10979e-05
1.16154e-07
-5.11837e-05
-3.16264e-08
-3.65098e-11
5.10991e-05
1.16117e-07
-5.42993e-11
-2.86195e-08
1.05143e-07
-2.86038e-08
-3.50555e-11
1.05106e-07
-5.94127e-11
-1.90797e-05
1.90481e-05
-1.90801e-05
-3.57427e-11
1.90485e-05
-5.70379e-11
-3.43696e-11
2.39637e-13
-5.11844e-05
-3.16157e-08
5.10999e-05
1.16096e-07
-5.11844e-05
-3.16157e-08
3.69909e-11
5.10999e-05
1.16096e-07
1.89341e-13
-2.85933e-08
1.05085e-07
-2.85934e-08
3.54408e-11
1.05085e-07
2.36749e-13
-1.90804e-05
1.90487e-05
-1.90804e-05
3.62158e-11
1.90487e-05
1.57784e-13
3.46957e-11
5.68952e-11
-5.11837e-05
-3.16264e-08
5.10992e-05
1.16117e-07
-5.11825e-05
-3.16422e-08
4.65707e-11
5.1098e-05
1.16154e-07
5.46878e-11
-2.86042e-08
1.05107e-07
-2.86201e-08
4.52537e-11
1.05144e-07
5.98766e-11
-1.90801e-05
1.90485e-05
-1.90797e-05
6.50989e-11
1.90481e-05
5.73826e-11
6.22422e-11
6.36863e-11
-5.11813e-05
-3.16914e-08
5.10968e-05
1.16167e-07
-5.11806e-05
-3.16628e-08
5.10961e-05
1.16213e-07
5.97262e-11
-2.86666e-08
1.05159e-07
-2.86421e-08
1.05202e-07
1.87875e-11
-1.90793e-05
1.90477e-05
-1.90791e-05
1.90475e-05
1.89413e-11
-7.06196e-11
-5.10049e-05
-3.76388e-08
5.09047e-05
1.37918e-07
-5.10056e-05
-3.76749e-08
-4.77353e-11
5.09054e-05
1.3787e-07
-6.63601e-11
-3.42197e-08
1.25481e-07
-3.42509e-08
-4.6509e-11
1.25435e-07
-1.77528e-11
-1.90133e-05
1.89757e-05
-1.90135e-05
-6.87649e-11
1.89759e-05
-1.80146e-11
-6.60999e-11
-5.93668e-11
-5.10067e-05
-3.76206e-08
5.09065e-05
1.37861e-07
-5.10079e-05
-3.7605e-08
-3.85641e-11
5.09077e-05
1.37824e-07
-5.73256e-11
-3.41998e-08
1.25424e-07
-3.41842e-08
-3.71606e-11
1.25387e-07
-6.28122e-11
-1.90139e-05
1.89762e-05
-1.90143e-05
-3.76793e-11
1.89766e-05
-6.04917e-11
-3.63355e-11
2.91018e-13
-5.10087e-05
-3.75943e-08
5.09084e-05
1.37802e-07
-5.10087e-05
-3.75941e-08
3.91353e-11
5.09084e-05
1.37802e-07
2.74084e-13
-3.41735e-08
1.25366e-07
-3.41734e-08
3.77104e-11
1.25365e-07
3.30519e-13
-1.90145e-05
1.89769e-05
-1.90145e-05
3.83275e-11
1.89769e-05
2.9901e-13
3.69312e-11
5.98888e-11
-5.10079e-05
-3.76046e-08
5.09077e-05
1.37823e-07
-5.10067e-05
-3.76199e-08
4.81634e-11
5.09065e-05
1.3786e-07
5.78431e-11
-3.41838e-08
1.25387e-07
-3.41991e-08
4.69197e-11
1.25423e-07
6.34193e-11
-1.90143e-05
1.89766e-05
-1.90139e-05
6.93477e-11
1.89763e-05
6.10647e-11
6.65716e-11
7.05832e-11
-5.10056e-05
-3.76741e-08
5.09054e-05
1.37869e-07
-5.10049e-05
-3.76381e-08
5.09047e-05
1.37918e-07
6.63971e-11
-3.42502e-08
1.25434e-07
-3.42183e-08
1.25479e-07
1.76788e-11
-1.90135e-05
1.89759e-05
-1.90133e-05
1.89757e-05
1.81516e-11
-7.75026e-11
-5.0797e-05
-4.43935e-08
5.0679e-05
1.62415e-07
-5.07976e-05
-4.44371e-08
-4.92374e-11
5.06797e-05
1.62361e-07
-7.32584e-11
-4.05182e-08
1.48339e-07
-4.0557e-08
-4.80604e-11
1.48289e-07
-1.53141e-11
-1.89352e-05
1.88908e-05
-1.89354e-05
-7.28234e-11
1.8891e-05
-1.63958e-11
-7.01711e-11
-6.20729e-11
-5.07987e-05
-4.43772e-08
5.06808e-05
1.62355e-07
-5.07999e-05
-4.4362e-08
-4.0499e-11
5.06819e-05
1.62318e-07
-6.01386e-11
-4.05005e-08
1.48282e-07
-4.04853e-08
-3.91374e-11
1.48245e-07
-6.60988e-11
-1.89357e-05
1.88914e-05
-1.89361e-05
-3.95958e-11
1.88917e-05
-6.38147e-11
-3.82396e-11
2.42061e-13
-5.08006e-05
-4.43516e-08
5.06826e-05
1.62296e-07
-5.08006e-05
-4.43518e-08
4.09552e-11
5.06827e-05
1.62296e-07
2.82008e-13
-4.04748e-08
1.48224e-07
-4.04748e-08
3.96847e-11
1.48224e-07
2.35514e-13
-1.89364e-05
1.8892e-05
-1.89364e-05
4.00376e-11
1.8892e-05
3.06459e-13
3.88365e-11
6.24497e-11
-5.07999e-05
-4.43625e-08
5.06819e-05
1.62319e-07
-5.07988e-05
-4.43779e-08
4.94482e-11
5.06808e-05
1.62356e-07
6.06063e-11
-4.04853e-08
1.48245e-07
-4.05005e-08
4.83524e-11
1.48282e-07
6.64763e-11
-1.89361e-05
1.88917e-05
-1.89357e-05
7.31013e-11
1.88914e-05
6.43475e-11
7.05522e-11
7.76992e-11
-5.07976e-05
-4.4438e-08
5.06797e-05
1.62363e-07
-5.0797e-05
-4.43945e-08
5.0679e-05
1.62416e-07
7.33388e-11
-4.05571e-08
1.4829e-07
-4.0518e-08
1.48339e-07
1.5518e-11
-1.89354e-05
1.8891e-05
-1.89352e-05
1.88908e-05
1.65477e-11
-8.49115e-11
-5.05527e-05
-5.19779e-08
5.04149e-05
1.89866e-07
-5.05533e-05
-5.203e-08
-5.05235e-11
5.04155e-05
1.89806e-07
-8.02592e-11
-4.76182e-08
1.74062e-07
-4.76657e-08
-4.94198e-11
1.74007e-07
-1.2325e-11
-1.88432e-05
1.87912e-05
-1.88434e-05
-7.6623e-11
1.87914e-05
-1.37613e-11
-7.3981e-11
-6.45124e-11
-5.05544e-05
-5.19642e-08
5.04166e-05
1.89803e-07
-5.05555e-05
-5.19493e-08
-4.22703e-11
5.04177e-05
1.89766e-07
-6.27066e-11
-4.76035e-08
1.74002e-07
-4.75886e-08
-4.09977e-11
1.73966e-07
-6.91535e-11
-1.88437e-05
1.87918e-05
-1.88441e-05
-4.13603e-11
1.87921e-05
-6.69992e-11
-4.01076e-11
1.70545e-13
-5.05562e-05
-5.19391e-08
5.04184e-05
1.89744e-07
-5.05562e-05
-5.19393e-08
4.25791e-11
5.04184e-05
1.89745e-07
1.96947e-13
-4.75784e-08
1.73944e-07
-4.75786e-08
4.13557e-11
1.73945e-07
1.2611e-13
-1.88444e-05
1.87924e-05
-1.88444e-05
4.15708e-11
1.87924e-05
1.58307e-13
4.03964e-11
6.47354e-11
-5.05555e-05
-5.19499e-08
5.04177e-05
1.89767e-07
-5.05544e-05
-5.19652e-08
5.05831e-11
5.04166e-05
1.89805e-07
6.29697e-11
-4.75892e-08
1.73967e-07
-4.76044e-08
4.95251e-11
1.74004e-07
6.92811e-11
-1.88441e-05
1.87921e-05
-1.88437e-05
7.65864e-11
1.87918e-05
6.7204e-11
7.40987e-11
8.5342e-11
-5.05533e-05
-5.20315e-08
5.04155e-05
1.89808e-07
-5.05527e-05
-5.19795e-08
5.04149e-05
1.89867e-07
8.05606e-11
-4.7667e-08
1.74009e-07
-4.76204e-08
1.74064e-07
1.27921e-11
-1.88434e-05
1.87914e-05
-1.88432e-05
1.87912e-05
1.39684e-11
-9.37946e-11
-5.02677e-05
-6.05205e-08
5.01076e-05
2.20735e-07
-5.02683e-05
-6.05829e-08
-5.16697e-11
5.01082e-05
2.20671e-07
-8.82796e-11
-5.55736e-08
2.02825e-07
-5.56302e-08
-5.05768e-11
2.02765e-07
-9.97058e-12
-1.87356e-05
1.86751e-05
-1.87358e-05
-8.01225e-11
1.86753e-05
-1.1133e-11
-7.75161e-11
-6.67374e-11
-5.02694e-05
-6.05103e-08
5.01092e-05
2.20671e-07
-5.02705e-05
-6.04955e-08
-4.38759e-11
5.01103e-05
2.20633e-07
-6.49844e-11
-5.55617e-08
2.02764e-07
-5.5547e-08
-4.26495e-11
2.02727e-07
-7.19418e-11
-1.87362e-05
1.86757e-05
-1.87366e-05
-4.28872e-11
1.8676e-05
-6.9861e-11
-4.17189e-11
1.77492e-13
-5.02712e-05
-6.04853e-08
5.0111e-05
2.20612e-07
-5.02712e-05
-6.04854e-08
4.42122e-11
5.0111e-05
2.20612e-07
1.7127e-13
-5.55369e-08
2.02705e-07
-5.55371e-08
4.29515e-11
2.02706e-07
1.66478e-13
-1.87368e-05
1.86763e-05
-1.87368e-05
4.31904e-11
1.86763e-05
1.33269e-13
4.1942e-11
6.70125e-11
-5.02705e-05
-6.04957e-08
5.01103e-05
2.20634e-07
-5.02694e-05
-6.05106e-08
5.18442e-11
5.01092e-05
2.20672e-07
6.52006e-11
-5.55475e-08
2.02728e-07
-5.55624e-08
5.06909e-11
2.02765e-07
7.21893e-11
-1.87366e-05
1.8676e-05
-1.87362e-05
8.03007e-11
1.86757e-05
7.00021e-11
7.76224e-11
9.40247e-11
-5.02683e-05
-6.05833e-08
5.01082e-05
2.20672e-07
-5.02677e-05
-6.05211e-08
5.01076e-05
2.20736e-07
8.85838e-11
-5.56312e-08
2.02767e-07
-5.55755e-08
2.02827e-07
1.01963e-11
-1.87358e-05
1.86753e-05
-1.87356e-05
1.86751e-05
1.12851e-11
-1.03291e-10
-4.99372e-05
-6.99905e-08
4.97523e-05
2.54913e-07
-4.99377e-05
-7.00639e-08
-5.2778e-11
4.97529e-05
2.54845e-07
-9.74669e-11
-6.4488e-08
2.35011e-07
-6.45541e-08
-5.16666e-11
2.34947e-07
-7.25996e-12
-1.86106e-05
1.85407e-05
-1.86108e-05
-8.34466e-11
1.85408e-05
-8.5562e-12
-8.09377e-11
-6.87386e-11
-4.99388e-05
-6.99841e-08
4.97539e-05
2.54848e-07
-4.99399e-05
-6.99692e-08
-4.53464e-11
4.9755e-05
2.5481e-07
-6.70454e-11
-6.44788e-08
2.34948e-07
-6.44641e-08
-4.41493e-11
2.34911e-07
-7.4499e-11
-1.86112e-05
1.85412e-05
-1.86115e-05
-4.42668e-11
1.85416e-05
-7.24588e-11
-4.31228e-11
1.57227e-13
-4.99405e-05
-6.99589e-08
4.97557e-05
2.54787e-07
-4.99405e-05
-6.99587e-08
4.5678e-11
4.97557e-05
2.54787e-07
1.77748e-13
-6.4454e-08
2.34889e-07
-6.44539e-08
4.44983e-11
2.34889e-07
1.82266e-13
-1.86118e-05
1.85418e-05
-1.86118e-05
4.46506e-11
1.85418e-05
1.83363e-13
4.34898e-11
6.90869e-11
-4.99399e-05
-6.99686e-08
4.9755e-05
2.54809e-07
-4.99388e-05
-6.99831e-08
5.30597e-11
4.97539e-05
2.54846e-07
6.73669e-11
-6.44639e-08
2.34911e-07
-6.44784e-08
5.19275e-11
2.34948e-07
7.49261e-11
-1.86116e-05
1.85416e-05
-1.86112e-05
8.39396e-11
1.85412e-05
7.28218e-11
8.12933e-11
1.03289e-10
-4.99377e-05
-7.00626e-08
4.97529e-05
2.54844e-07
-4.99372e-05
-6.99894e-08
4.97523e-05
2.54912e-07
9.75541e-11
-6.45536e-08
2.34946e-07
-6.44872e-08
2.35011e-07
7.16681e-12
-1.86108e-05
1.85409e-05
-1.86106e-05
1.85407e-05
8.67141e-12
-1.12961e-10
-4.95562e-05
-8.0504e-08
4.9344e-05
2.92832e-07
-4.95567e-05
-8.0589e-08
-5.40719e-11
4.93445e-05
2.92757e-07
-1.06893e-10
-7.43596e-08
2.70619e-07
-7.44364e-08
-5.2842e-11
2.7055e-07
-3.30337e-12
-1.84663e-05
1.83858e-05
-1.84665e-05
-8.70519e-11
1.8386e-05
-5.17448e-12
-8.4369e-11
-7.07878e-11
-4.95577e-05
-8.05014e-08
4.93455e-05
2.92762e-07
-4.95588e-05
-8.04867e-08
-4.68244e-11
4.93465e-05
2.92724e-07
-6.90158e-11
-7.43536e-08
2.70553e-07
-7.4339e-08
-4.56026e-11
2.70515e-07
-7.71812e-11
-1.84668e-05
1.83863e-05
-1.84672e-05
-4.56933e-11
1.83867e-05
-7.50108e-11
-4.45006e-11
1.11226e-13
-4.95594e-05
-8.04767e-08
4.93472e-05
2.92701e-07
-4.95594e-05
-8.04767e-08
4.70883e-11
4.93472e-05
2.92701e-07
1.14947e-13
-7.43289e-08
2.70493e-07
-7.43287e-08
4.58845e-11
2.70493e-07
1.4549e-13
-1.84674e-05
1.83869e-05
-1.84674e-05
4.60279e-11
1.83869e-05
1.54419e-13
4.48631e-11
7.10944e-11
-4.95588e-05
-8.04866e-08
4.93465e-05
2.92724e-07
-4.95577e-05
-8.05012e-08
5.4263e-11
4.93455e-05
2.92762e-07
6.93539e-11
-7.43384e-08
2.70515e-07
-7.43527e-08
5.31009e-11
2.70552e-07
7.75812e-11
-1.84672e-05
1.83867e-05
-1.84668e-05
8.74527e-11
1.83863e-05
7.54535e-11
8.47951e-11
1.13051e-10
-4.95567e-05
-8.05886e-08
4.93445e-05
2.92757e-07
-4.95562e-05
-8.05041e-08
4.9344e-05
2.92832e-07
1.06932e-10
-7.44353e-08
2.70548e-07
-7.4358e-08
2.70618e-07
3.23227e-12
-1.84665e-05
1.8386e-05
-1.84663e-05
1.83858e-05
5.22546e-12
-1.23324e-10
-4.91194e-05
-9.2038e-08
4.88771e-05
3.34401e-07
-4.91199e-05
-9.21349e-08
-5.54467e-11
4.88776e-05
3.34319e-07
-1.16803e-10
-8.52885e-08
3.10018e-07
-8.53772e-08
-5.41787e-11
3.09942e-07
1.34814e-12
-1.83005e-05
1.82085e-05
-1.83007e-05
-9.08478e-11
1.82087e-05
-9.5463e-13
-8.8019e-11
-7.29362e-11
-4.91209e-05
-9.20392e-08
4.88786e-05
3.34327e-07
-4.91219e-05
-9.20247e-08
-4.82968e-11
4.88796e-05
3.34288e-07
-7.10983e-11
-8.52866e-08
3.09948e-07
-8.52722e-08
-4.7068e-11
3.0991e-07
-8.00389e-11
-1.8301e-05
1.8209e-05
-1.83014e-05
-4.71459e-11
1.82093e-05
-7.77698e-11
-4.5938e-11
1.59345e-13
-4.91225e-05
-9.2015e-08
4.88802e-05
3.34266e-07
-4.91225e-05
-9.20151e-08
4.85825e-11
4.88802e-05
3.34266e-07
1.10782e-13
-8.52625e-08
3.09888e-07
-8.52626e-08
4.73207e-11
3.09889e-07
1.79915e-13
-1.83016e-05
1.82095e-05
-1.83016e-05
4.74741e-11
1.82095e-05
1.45806e-13
4.62532e-11
7.31244e-11
-4.91219e-05
-9.2025e-08
4.88796e-05
3.34289e-07
-4.91209e-05
-9.20397e-08
5.55004e-11
4.88786e-05
3.34328e-07
7.13525e-11
-8.52724e-08
3.09911e-07
-8.5287e-08
5.43072e-11
3.0995e-07
8.02642e-11
-1.83014e-05
1.82093e-05
-1.8301e-05
9.09175e-11
1.8209e-05
7.80883e-11
8.82499e-11
1.23447e-10
-4.91199e-05
-9.21356e-08
4.88776e-05
3.34321e-07
-4.91194e-05
-9.20387e-08
4.88771e-05
3.34403e-07
1.16893e-10
-8.53778e-08
3.09943e-07
-8.5289e-08
3.1002e-07
-1.27075e-12
-1.83007e-05
1.82087e-05
-1.83005e-05
1.82085e-05
9.8534e-13
-1.34629e-10
-4.86213e-05
-1.04684e-07
4.83462e-05
3.7996e-07
-4.86218e-05
-1.04794e-07
-5.68684e-11
4.83466e-05
3.79871e-07
-1.27571e-10
-9.72775e-08
3.53215e-07
-9.7379e-08
-5.56049e-11
3.53132e-07
6.26332e-12
-1.81112e-05
1.80065e-05
-1.81114e-05
-9.46477e-11
1.80067e-05
3.69412e-12
-9.18037e-11
-7.51909e-11
-4.86227e-05
-1.0469e-07
4.83476e-05
3.79881e-07
-4.86237e-05
-1.04675e-07
-4.98782e-11
4.83485e-05
3.79841e-07
-7.32997e-11
-9.72798e-08
3.53141e-07
-9.72653e-08
-4.85665e-11
3.53102e-07
-8.30619e-11
-1.81117e-05
1.8007e-05
-1.8112e-05
-4.873e-11
1.80073e-05
-8.07024e-11
-4.74363e-11
1.79592e-13
-4.86243e-05
-1.04665e-07
4.83491e-05
3.79819e-07
-4.86243e-05
-1.04665e-07
5.01334e-11
4.83491e-05
3.79819e-07
1.78801e-13
-9.72557e-08
3.5308e-07
-9.72558e-08
4.88583e-11
3.5308e-07
1.81445e-13
-1.81122e-05
1.80075e-05
-1.81122e-05
4.89908e-11
1.80075e-05
1.81871e-13
4.77347e-11
7.52426e-11
-4.86237e-05
-1.04675e-07
4.83485e-05
3.79842e-07
-4.86227e-05
-1.0469e-07
5.68605e-11
4.83476e-05
3.79882e-07
7.34207e-11
-9.72656e-08
3.53103e-07
-9.72801e-08
5.56007e-11
3.53141e-07
8.3095e-11
-1.8112e-05
1.80073e-05
-1.81117e-05
9.45472e-11
1.8007e-05
8.08298e-11
9.1778e-11
1.34666e-10
-4.86218e-05
-1.04795e-07
4.83466e-05
3.79872e-07
-4.86213e-05
-1.04684e-07
4.83462e-05
3.79961e-07
1.27632e-10
-9.73794e-08
3.53132e-07
-9.72778e-08
3.53215e-07
-6.13658e-12
-1.81114e-05
1.80067e-05
-1.81112e-05
1.80065e-05
-3.65389e-12
-1.46366e-10
-4.80565e-05
-1.18353e-07
4.77458e-05
4.2919e-07
-4.8057e-05
-1.18477e-07
-5.82677e-11
4.77463e-05
4.29093e-07
-1.38964e-10
-1.10291e-07
4.00081e-07
-1.10406e-07
-5.69808e-11
3.99991e-07
1.17606e-11
-1.78962e-05
1.77778e-05
-1.78964e-05
-9.82502e-11
1.7778e-05
8.8351e-12
-9.54563e-11
-7.73333e-11
-4.80579e-05
-1.18363e-07
4.77472e-05
4.29105e-07
-4.80588e-05
-1.18348e-07
-5.14732e-11
4.77481e-05
4.29064e-07
-7.54676e-11
-1.10297e-07
4.00002e-07
-1.10283e-07
-5.01304e-11
3.99963e-07
-8.60058e-11
-1.78967e-05
1.77783e-05
-1.7897e-05
-5.03605e-11
1.77786e-05
-8.36415e-11
-4.90199e-11
1.06243e-13
-4.80594e-05
-1.18339e-07
4.77487e-05
4.29041e-07
-4.80594e-05
-1.18339e-07
5.16078e-11
4.77487e-05
4.29041e-07
1.51525e-13
-1.10273e-07
3.9994e-07
-1.10274e-07
5.03457e-11
3.9994e-07
8.84517e-14
-1.78972e-05
1.77788e-05
-1.78972e-05
5.04594e-11
1.77788e-05
1.34866e-13
4.92011e-11
7.73575e-11
-4.80588e-05
-1.18349e-07
4.77481e-05
4.29065e-07
-4.80579e-05
-1.18364e-07
5.82968e-11
4.77472e-05
4.29107e-07
7.54986e-11
-1.10283e-07
3.99964e-07
-1.10298e-07
5.69748e-11
4.00003e-07
8.59699e-11
-1.7897e-05
1.77786e-05
-1.78967e-05
9.82126e-11
1.77783e-05
8.36388e-11
9.53706e-11
1.46385e-10
-4.8057e-05
-1.18479e-07
4.77463e-05
4.29095e-07
-4.80565e-05
-1.18354e-07
4.77458e-05
4.29192e-07
1.3901e-10
-1.10407e-07
3.99993e-07
-1.10292e-07
4.00083e-07
-1.15971e-11
-1.78964e-05
1.7778e-05
-1.78962e-05
1.77778e-05
-8.72076e-12
-1.58559e-10
-4.74195e-05
-1.33093e-07
4.70704e-05
4.82287e-07
-4.74199e-05
-1.33234e-07
-5.98428e-11
4.70709e-05
4.82182e-07
-1.50811e-10
-1.244e-07
4.50895e-07
-1.2453e-07
-5.84584e-11
4.50798e-07
1.77603e-11
-1.76534e-05
1.75203e-05
-1.76536e-05
-1.01977e-10
1.75205e-05
1.45637e-11
-9.91044e-11
-7.95206e-11
-4.74208e-05
-1.33109e-07
4.70717e-05
4.82195e-07
-4.74217e-05
-1.33094e-07
-5.3064e-11
4.70726e-05
4.82153e-07
-7.76479e-11
-1.24412e-07
4.5081e-07
-1.24397e-07
-5.17489e-11
4.50769e-07
-8.89804e-11
-1.76539e-05
1.75208e-05
-1.76542e-05
-5.19683e-11
1.7521e-05
-8.66161e-11
-5.06545e-11
4.60973e-14
-4.74222e-05
-1.33084e-07
4.70731e-05
4.82129e-07
-4.74222e-05
-1.33084e-07
5.31201e-11
4.70731e-05
4.82129e-07
6.63434e-14
-1.24387e-07
4.50746e-07
-1.24388e-07
5.18356e-11
4.50746e-07
2.60374e-14
-1.76543e-05
1.75212e-05
-1.76543e-05
5.19734e-11
1.75212e-05
5.00931e-14
5.07005e-11
7.95458e-11
-4.74217e-05
-1.33094e-07
4.70726e-05
4.82153e-07
-4.74208e-05
-1.33109e-07
5.98492e-11
4.70717e-05
4.82196e-07
7.76617e-11
-1.24397e-07
4.5077e-07
-1.24413e-07
5.84733e-11
4.50812e-07
8.89257e-11
-1.76542e-05
1.7521e-05
-1.76539e-05
1.01918e-10
1.75208e-05
8.65682e-11
9.90533e-11
1.58678e-10
-4.74199e-05
-1.33234e-07
4.70709e-05
4.82182e-07
-4.74195e-05
-1.33094e-07
4.70705e-05
4.82287e-07
1.50894e-10
-1.24531e-07
4.50799e-07
-1.24401e-07
4.50897e-07
-1.7609e-11
-1.76536e-05
1.75205e-05
-1.76534e-05
1.75203e-05
-1.44713e-11
-1.71619e-10
-4.67049e-05
-1.48804e-07
4.6315e-05
5.38898e-07
-4.67053e-05
-1.48961e-07
-6.14967e-11
4.63154e-05
5.38785e-07
-1.63299e-10
-1.39454e-07
5.05118e-07
-1.396e-07
-6.00427e-11
5.05013e-07
2.3856e-11
-1.73808e-05
1.7232e-05
-1.7381e-05
-1.05726e-10
1.72322e-05
2.05628e-11
-1.0276e-10
-8.17603e-11
-4.67062e-05
-1.48826e-07
4.63162e-05
5.388e-07
-4.6707e-05
-1.4881e-07
-5.46079e-11
4.63171e-05
5.38757e-07
-7.97992e-11
-1.39471e-07
5.05027e-07
-1.39456e-07
-5.32651e-11
5.04985e-07
-9.19562e-11
-1.73813e-05
1.72324e-05
-1.73815e-05
-5.35151e-11
1.72327e-05
-8.95212e-11
-5.21894e-11
5.05269e-14
-4.67076e-05
-1.48801e-07
4.63176e-05
5.38732e-07
-4.67076e-05
-1.48801e-07
5.46556e-11
4.63176e-05
5.38732e-07
4.71819e-14
-1.39446e-07
5.04961e-07
-1.39446e-07
5.33198e-11
5.04961e-07
2.87129e-15
-1.73817e-05
1.72329e-05
-1.73817e-05
5.34949e-11
1.72328e-05
1.22761e-14
5.21839e-11
8.17245e-11
-4.6707e-05
-1.48811e-07
4.63171e-05
5.38758e-07
-4.67062e-05
-1.48827e-07
6.14953e-11
4.63162e-05
5.38801e-07
7.97892e-11
-1.39456e-07
5.04985e-07
-1.39471e-07
6.0037e-11
5.05028e-07
9.18895e-11
-1.73815e-05
1.72327e-05
-1.73813e-05
1.05679e-10
1.72324e-05
8.94684e-11
1.02729e-10
1.71683e-10
-4.67053e-05
-1.48962e-07
4.63154e-05
5.38786e-07
-4.67049e-05
-1.48805e-07
4.6315e-05
5.38899e-07
1.63369e-10
-1.396e-07
5.05013e-07
-1.39455e-07
5.05118e-07
-2.37397e-11
-1.7381e-05
1.72322e-05
-1.73808e-05
1.7232e-05
-2.05229e-11
-1.85024e-10
-4.59078e-05
-1.65401e-07
4.54747e-05
5.98731e-07
-4.59082e-05
-1.65575e-07
-6.31601e-11
4.54751e-05
5.9861e-07
-1.76433e-10
-1.55465e-07
5.62812e-07
-1.55626e-07
-6.1701e-11
5.627e-07
3.03457e-11
-1.70765e-05
1.69111e-05
-1.70767e-05
-1.09475e-10
1.69112e-05
2.67878e-11
-1.06491e-10
-8.40239e-11
-4.5909e-05
-1.65428e-07
4.54758e-05
5.98626e-07
-4.59098e-05
-1.65412e-07
-5.62619e-11
4.54766e-05
5.98581e-07
-8.20098e-11
-1.55487e-07
5.62716e-07
-1.55471e-07
-5.48293e-11
5.62672e-07
-9.50389e-11
-1.70769e-05
1.69115e-05
-1.70772e-05
-5.5188e-11
1.69117e-05
-9.25046e-11
-5.37796e-11
-9.2927e-15