/*--------------------------------*- C++ -*----------------------------------*\
  =========                 |
  \\      /  F ield         | OpenFOAM: The Open Source CFD Toolbox
   \\    /   O peration     | Website:  https://openfoam.org
    \\  /    A nd           | Version:  9
     \\/     M anipulation  |
\*---------------------------------------------------------------------------*/
FoamFile
{
    format      ascii;
    class       volVectorField;
    location    "0.2";
    object      U;
}
// * * * * * * * * * * * * * * * * * * * * * * * * * * * * * * * * * * * * * //

dimensions      [0 1 -1 0 0 0 0];

internalField   nonuniform List<vector> 
36360
(
(4.67522e-06 -0.0983506 -0.93593)
(4.57087e-06 -0.0983516 -1.93268e-08)
(5.34181e-06 -0.0983613 -0.946129)
(5.36735e-06 -0.0983624 9.18107e-09)
(4.40725e-07 -0.0366612 -0.9235)
(3.91356e-07 -0.0366614 -1.63536e-08)
(1.16622e-06 -0.0366661 -0.9326)
(1.17354e-06 -0.0366664 7.34008e-09)
(4.48542e-06 -0.0983537 -9.40034e-09)
(4.41376e-06 -0.0983558 -6.70233e-09)
(5.31632e-06 -0.0983644 -3.64982e-09)
(5.24962e-06 -0.0983665 -3.50996e-09)
(3.65901e-07 -0.036662 -1.08129e-08)
(3.48309e-07 -0.0366627 -7.60953e-09)
(1.15942e-06 -0.036667 -4.09499e-09)
(1.14091e-06 -0.0366676 -3.96172e-09)
(4.37336e-06 -0.0983572 -2.43882e-09)
(4.3778e-06 -0.0983572 2.90314e-09)
(5.20995e-06 -0.0983678 -1.13207e-09)
(5.21757e-06 -0.0983678 1.89954e-09)
(3.38556e-07 -0.0366631 -2.69454e-09)
(3.3924e-07 -0.0366631 3.30929e-09)
(1.12982e-06 -0.036668 -1.31245e-09)
(1.13174e-06 -0.036668 2.11604e-09)
(4.42625e-06 -0.0983559 7.12751e-09)
(4.5039e-06 -0.0983538 9.82471e-09)
(5.27123e-06 -0.0983666 4.19217e-09)
(5.34867e-06 -0.0983646 4.22032e-09)
(3.50223e-07 -0.0366627 8.16094e-09)
(3.68674e-07 -0.036662 1.1321e-08)
(1.14633e-06 -0.0366676 4.66601e-09)
(1.16754e-06 -0.036667 4.65752e-09)
(4.59305e-06 -0.0983517 1.95852e-08)
(4.69947e-06 -0.0983507 0.93593)
(5.40637e-06 -0.0983626 -8.91633e-09)
(5.38343e-06 -0.0983615 0.946129)
(3.94678e-07 -0.0366615 1.67281e-08)
(4.43984e-07 -0.0366612 0.9235)
(1.18333e-06 -0.0366665 -7.01106e-09)
(1.1763e-06 -0.0366662 0.9326)
(1.16612e-05 -0.0983245 -0.935053)
(1.16139e-05 -0.0983257 -2.03489e-08)
(7.15372e-06 -0.0983405 -0.935327)
(7.09456e-06 -0.0983418 -1.69352e-08)
(1.20817e-06 -0.0366527 -0.922644)
(1.16329e-06 -0.0366531 -1.76136e-08)
(5.9709e-07 -0.0366581 -0.922913)
(5.61475e-07 -0.0366584 -1.57922e-08)
(1.15605e-05 -0.098328 -1.90514e-08)
(1.15135e-05 -0.0983302 -1.45072e-08)
(7.03043e-06 -0.098344 -1.35369e-08)
(6.97369e-06 -0.0983462 -1.02571e-08)
(1.14136e-06 -0.0366538 -1.99185e-08)
(1.12985e-06 -0.0366545 -1.51604e-08)
(5.41492e-07 -0.0366591 -1.4924e-08)
(5.29069e-07 -0.0366598 -1.11872e-08)
(1.14863e-05 -0.0983317 -5.35018e-09)
(1.14891e-05 -0.0983317 5.8413e-09)
(6.94029e-06 -0.0983476 -3.83225e-09)
(6.9434e-06 -0.0983476 4.30864e-09)
(1.12366e-06 -0.036655 -5.48868e-09)
(1.12411e-06 -0.036655 6.08274e-09)
(5.21732e-07 -0.0366603 -4.05221e-09)
(5.22137e-07 -0.0366603 4.64421e-09)
(1.15217e-05 -0.0983303 1.49394e-08)
(1.15733e-05 -0.098328 1.94159e-08)
(6.98251e-06 -0.0983463 1.06807e-08)
(7.04368e-06 -0.0983441 1.39168e-08)
(1.13119e-06 -0.0366545 1.56843e-08)
(1.14346e-06 -0.0366538 2.03437e-08)
(5.30195e-07 -0.0366599 1.17164e-08)
(5.43162e-07 -0.0366592 1.53717e-08)
(1.163e-05 -0.0983258 2.06588e-08)
(1.16789e-05 -0.0983245 0.935053)
(7.11068e-06 -0.0983419 1.72029e-08)
(7.17124e-06 -0.0983406 0.935327)
(1.16595e-06 -0.0366531 1.79087e-08)
(1.2112e-06 -0.0366527 0.922644)
(5.63464e-07 -0.0366585 1.61418e-08)
(5.99013e-07 -0.0366581 0.922913)
(2.22682e-05 -0.0982687 -0.93415)
(2.22175e-05 -0.09827 -2.92404e-08)
(1.68813e-05 -0.0983006 -0.934424)
(1.68322e-05 -0.0983019 -2.49115e-08)
(2.59295e-06 -0.0366324 -0.921762)
(2.51659e-06 -0.0366328 -2.31305e-08)
(1.90756e-06 -0.0366441 -0.92203)
(1.8467e-06 -0.0366445 -2.03979e-08)
(2.21726e-05 -0.0982722 -2.81004e-08)
(2.21352e-05 -0.0982746 -2.18157e-08)
(1.67844e-05 -0.0983041 -2.37509e-08)
(1.67441e-05 -0.0983064 -1.82628e-08)
(2.48656e-06 -0.0366335 -2.86919e-08)
(2.47445e-06 -0.0366343 -2.22748e-08)
(1.82103e-06 -0.0366453 -2.44278e-08)
(1.80967e-06 -0.036646 -1.87911e-08)
(2.21132e-05 -0.098276 -8.09544e-09)
(2.21146e-05 -0.098276 8.67979e-09)
(1.67209e-05 -0.0983079 -6.75066e-09)
(1.67231e-05 -0.0983079 7.26555e-09)
(2.46838e-06 -0.0366348 -8.14061e-09)
(2.46857e-06 -0.0366348 8.79212e-09)
(1.8039e-06 -0.0366465 -6.83606e-09)
(1.80426e-06 -0.0366465 7.44342e-09)
(2.21392e-05 -0.0982746 2.23255e-08)
(2.21789e-05 -0.0982723 2.85026e-08)
(1.67507e-05 -0.0983065 1.87137e-08)
(1.67948e-05 -0.0983042 2.4115e-08)
(2.47497e-06 -0.0366343 2.2856e-08)
(2.48737e-06 -0.0366336 2.91481e-08)
(1.81072e-06 -0.036646 1.93341e-08)
(1.8227e-06 -0.0366453 2.48578e-08)
(2.22255e-05 -0.09827 2.95441e-08)
(2.22771e-05 -0.0982687 0.93415)
(1.68453e-05 -0.0983019 2.51998e-08)
(1.68957e-05 -0.0983007 0.934424)
(2.51764e-06 -0.0366328 2.34155e-08)
(2.59417e-06 -0.0366324 0.921762)
(1.84884e-06 -0.0366445 2.06344e-08)
(1.90997e-06 -0.0366442 0.92203)
(3.32682e-05 -0.0981801 -0.933223)
(3.32084e-05 -0.0981814 -3.81493e-08)
(2.7711e-05 -0.0982285 -0.933493)
(2.76565e-05 -0.0982298 -3.36879e-08)
(3.91987e-06 -0.0365996 -0.920857)
(3.81037e-06 -0.0366 -2.87408e-08)
(3.25655e-06 -0.0366176 -0.921122)
(3.16391e-06 -0.0366179 -2.59282e-08)
(3.31615e-05 -0.0981837 -3.63826e-08)
(3.31232e-05 -0.098186 -2.84903e-08)
(2.76114e-05 -0.0982321 -3.23021e-08)
(2.75743e-05 -0.0982344 -2.52119e-08)
(3.76967e-06 -0.0366007 -3.69217e-08)
(3.75476e-06 -0.0366015 -2.89555e-08)
(3.12876e-06 -0.0366187 -3.28515e-08)
(3.11535e-06 -0.0366195 -2.56557e-08)
(3.30999e-05 -0.0981875 -1.06882e-08)
(3.31e-05 -0.0981875 1.12917e-08)
(2.7552e-05 -0.0982359 -9.40249e-09)
(2.75527e-05 -0.0982359 1.00269e-08)
(3.74735e-06 -0.036602 -1.07035e-08)
(3.74733e-06 -0.036602 1.13106e-08)
(3.10867e-06 -0.0366199 -9.42799e-09)
(3.10873e-06 -0.0366199 1.00869e-08)
(3.31237e-05 -0.0981861 2.90612e-08)
(3.31623e-05 -0.0981837 3.68628e-08)
(2.75762e-05 -0.0982344 2.57815e-08)
(2.76144e-05 -0.0982321 3.27639e-08)
(3.7547e-06 -0.0366015 2.95274e-08)
(3.76959e-06 -0.0366007 3.74158e-08)
(3.1155e-06 -0.0366195 2.62591e-08)
(3.12899e-06 -0.0366187 3.33422e-08)
(3.32096e-05 -0.0981814 3.8441e-08)
(3.32697e-05 -0.0981801 0.933223)
(2.76603e-05 -0.0982298 3.39906e-08)
(2.77151e-05 -0.0982285 0.933493)
(3.81036e-06 -0.0366 2.91004e-08)
(3.92006e-06 -0.0365996 0.920857)
(3.16423e-06 -0.036618 2.62873e-08)
(3.25696e-06 -0.0366176 0.921122)
(4.51305e-05 -0.0980578 -0.93227)
(4.50577e-05 -0.0980591 -4.68359e-08)
(3.90465e-05 -0.0981232 -0.932555)
(3.89806e-05 -0.0981245 -4.24341e-08)
(5.33053e-06 -0.0365542 -0.919927)
(5.18446e-06 -0.0365546 -3.4007e-08)
(4.60563e-06 -0.0365785 -0.920205)
(4.47857e-06 -0.0365789 -3.13735e-08)
(4.50057e-05 -0.0980614 -4.40935e-08)
(4.49645e-05 -0.0980637 -3.46201e-08)
(3.89313e-05 -0.0981268 -4.03049e-08)
(3.88914e-05 -0.0981292 -3.16303e-08)
(5.13176e-06 -0.0365553 -4.46819e-08)
(5.11405e-06 -0.0365561 -3.5177e-08)
(4.43201e-06 -0.0365796 -4.08631e-08)
(4.41561e-06 -0.0365804 -3.21335e-08)
(4.49391e-05 -0.0980652 -1.30907e-08)
(4.49393e-05 -0.0980652 1.36709e-08)
(3.8867e-05 -0.0981307 -1.19231e-08)
(3.88671e-05 -0.0981307 1.2491e-08)
(5.10541e-06 -0.0365566 -1.30842e-08)
(5.10547e-06 -0.0365566 1.36466e-08)
(4.40753e-06 -0.0365809 -1.19303e-08)
(4.40751e-06 -0.0365809 1.24818e-08)
(4.49653e-05 -0.0980637 3.51827e-08)
(4.5007e-05 -0.0980614 4.46032e-08)
(3.88917e-05 -0.0981292 3.2169e-08)
(3.89317e-05 -0.0981269 4.07779e-08)
(5.11423e-06 -0.0365561 3.57155e-08)
(5.13208e-06 -0.0365553 4.51699e-08)
(4.41557e-06 -0.0365804 3.26558e-08)
(4.43194e-06 -0.0365796 4.13309e-08)
(4.50592e-05 -0.0980591 4.71834e-08)
(4.51321e-05 -0.0980578 0.93227)
(3.89813e-05 -0.0981246 4.28067e-08)
(3.90475e-05 -0.0981233 0.932555)
(5.18479e-06 -0.0365546 3.43958e-08)
(5.33062e-06 -0.0365542 0.919927)
(4.47852e-06 -0.0365789 3.17872e-08)
(4.60592e-06 -0.0365785 0.920205)
(5.84885e-05 -0.0978993 -0.931289)
(5.84019e-05 -0.0979007 -5.57731e-08)
(5.15959e-05 -0.0979832 -0.931579)
(5.15162e-05 -0.0979845 -5.12651e-08)
(6.93118e-06 -0.0364953 -0.918969)
(6.74438e-06 -0.0364957 -3.91555e-08)
(6.10363e-06 -0.0365265 -0.919252)
(5.93755e-06 -0.0365269 -3.65822e-08)
(5.83448e-05 -0.097903 -5.13658e-08)
(5.83008e-05 -0.0979053 -4.02143e-08)
(5.14617e-05 -0.0979868 -4.77769e-08)
(5.14191e-05 -0.0979892 -3.74638e-08)
(6.67844e-06 -0.0364964 -5.1997e-08)
(6.65818e-06 -0.0364972 -4.0898e-08)
(5.87841e-06 -0.0365276 -4.83846e-08)
(5.85941e-06 -0.0365284 -3.80798e-08)
(5.82734e-05 -0.0979068 -1.52561e-08)
(5.82737e-05 -0.0979068 1.59326e-08)
(5.13927e-05 -0.0979907 -1.41907e-08)
(5.1393e-05 -0.0979907 1.48212e-08)
(6.64843e-06 -0.0364977 -1.5196e-08)
(6.64842e-06 -0.0364977 1.59223e-08)
(5.85022e-06 -0.0365289 -1.41583e-08)
(5.85028e-06 -0.0365289 1.48024e-08)
(5.83015e-05 -0.0979053 4.08885e-08)
(5.83459e-05 -0.097903 5.197e-08)
(5.14201e-05 -0.0979892 3.80859e-08)
(5.14633e-05 -0.0979869 4.8333e-08)
(6.65817e-06 -0.0364972 4.15986e-08)
(6.6785e-06 -0.0364964 5.26337e-08)
(5.8596e-06 -0.0365284 3.87009e-08)
(5.87876e-06 -0.0365276 4.89419e-08)
(5.8403e-05 -0.0979007 5.59991e-08)
(5.84899e-05 -0.0978994 0.931289)
(5.15181e-05 -0.0979846 5.159e-08)
(5.15977e-05 -0.0979833 0.931579)
(6.7441e-06 -0.0364957 3.95144e-08)
(6.92965e-06 -0.0364953 0.918969)
(5.93777e-06 -0.0365269 3.70111e-08)
(6.10273e-06 -0.0365265 0.919252)
(7.37863e-05 -0.0977013 -0.930279)
(7.36832e-05 -0.0977025 -6.40469e-08)
(6.58705e-05 -0.0978055 -0.930584)
(6.57756e-05 -0.0978068 -5.99558e-08)
(8.77121e-06 -0.0364215 -0.917982)
(8.53936e-06 -0.0364219 -4.32501e-08)
(7.81729e-06 -0.0364603 -0.918281)
(7.60837e-06 -0.0364607 -4.12824e-08)
(7.36213e-05 -0.0977048 -5.80708e-08)
(7.35752e-05 -0.0977072 -4.54212e-08)
(6.57161e-05 -0.0978091 -5.48029e-08)
(6.56709e-05 -0.0978114 -4.28654e-08)
(8.45932e-06 -0.0364226 -5.88563e-08)
(8.43669e-06 -0.0364234 -4.62792e-08)
(7.53557e-06 -0.0364615 -5.55078e-08)
(7.51408e-06 -0.0364623 -4.36228e-08)
(7.3546e-05 -0.0977086 -1.73275e-08)
(7.3546e-05 -0.0977086 1.78947e-08)
(6.56425e-05 -0.0978129 -1.62943e-08)
(6.56425e-05 -0.0978129 1.6961e-08)
(8.42607e-06 -0.0364239 -1.72653e-08)
(8.42602e-06 -0.0364239 1.78517e-08)
(7.50384e-06 -0.0364628 -1.6223e-08)
(7.50379e-06 -0.0364628 1.69412e-08)
(7.3575e-05 -0.0977072 4.59806e-08)
(7.36211e-05 -0.0977048 5.85933e-08)
(6.5671e-05 -0.0978114 4.3521e-08)
(6.57162e-05 -0.0978091 5.53928e-08)
(8.43655e-06 -0.0364234 4.68516e-08)
(8.45916e-06 -0.0364226 5.9391e-08)
(7.51393e-06 -0.0364623 4.43127e-08)
(7.53541e-06 -0.0364615 5.61152e-08)
(7.36829e-05 -0.0977026 6.4328e-08)
(7.37858e-05 -0.0977013 0.930279)
(6.57757e-05 -0.0978068 6.02612e-08)
(6.58699e-05 -0.0978055 0.930584)
(8.53906e-06 -0.0364219 4.36106e-08)
(8.77018e-06 -0.0364215 0.917982)
(7.60796e-06 -0.0364607 4.17652e-08)
(7.8152e-06 -0.0364603 0.918281)
(9.14583e-05 -0.0974589 -0.929248)
(9.13363e-05 -0.0974602 -7.17838e-08)
(8.23003e-05 -0.0975859 -0.92955)
(8.21885e-05 -0.0975872 -6.7861e-08)
(1.09089e-05 -0.036331 -0.916976)
(1.06252e-05 -0.0363314 -4.61176e-08)
(9.79867e-06 -0.0363784 -0.917271)
(9.54213e-06 -0.0363788 -4.4738e-08)
(9.12699e-05 -0.0974624 -6.39663e-08)
(9.12229e-05 -0.0974647 -5.00489e-08)
(8.21242e-05 -0.0975895 -6.11021e-08)
(8.20776e-05 -0.0975918 -4.78009e-08)
(1.05297e-05 -0.0363322 -6.50181e-08)
(1.05049e-05 -0.0363329 -5.11474e-08)
(9.45451e-06 -0.0363796 -6.20081e-08)
(9.43077e-06 -0.0363804 -4.8776e-08)
(9.11931e-05 -0.0974662 -1.91872e-08)
(9.11934e-05 -0.0974662 1.96417e-08)
(8.2048e-05 -0.0975932 -1.82899e-08)
(8.20481e-05 -0.0975932 1.87705e-08)
(1.04937e-05 -0.0363334 -1.91629e-08)
(1.04939e-05 -0.0363334 1.95356e-08)
(9.41988e-06 -0.0363809 -1.82497e-08)
(9.41992e-06 -0.0363809 1.86928e-08)
(9.12238e-05 -0.0974647 5.04971e-08)
(9.12714e-05 -0.0974624 6.44023e-08)
(8.20778e-05 -0.0975918 4.82733e-08)
(8.21247e-05 -0.0975895 6.15529e-08)
(1.05053e-05 -0.0363329 5.15175e-08)
(1.05304e-05 -0.0363322 6.53658e-08)
(9.43088e-06 -0.0363804 4.92126e-08)
(9.45472e-06 -0.0363796 6.24236e-08)
(9.13383e-05 -0.0974602 7.21534e-08)
(9.14599e-05 -0.0974589 0.929248)
(8.21891e-05 -0.0975872 6.82331e-08)
(8.23012e-05 -0.0975859 0.92955)
(1.06262e-05 -0.0363314 4.65142e-08)
(1.09097e-05 -0.036331 0.916976)
(9.54236e-06 -0.0363789 4.51426e-08)
(9.7988e-06 -0.0363784 0.917271)
(0.00011194 -0.0971667 -0.928189)
(0.0001118 -0.097168 -8.00118e-08)
(0.000101323 -0.0973194 -0.928487)
(0.000101192 -0.0973206 -7.57604e-08)
(1.3402e-05 -0.0362217 -0.915942)
(1.3059e-05 -0.0362221 -4.89345e-08)
(1.21069e-05 -0.0362788 -0.916233)
(1.17949e-05 -0.0362792 -4.75083e-08)
(0.000111729 -0.0971702 -6.94319e-08)
(0.000111682 -0.0971725 -5.42791e-08)
(0.000101124 -0.0973229 -6.67077e-08)
(0.000101077 -0.0973252 -5.21811e-08)
(1.29463e-05 -0.0362228 -7.07341e-08)
(1.29191e-05 -0.0362236 -5.55736e-08)
(1.1691e-05 -0.03628 -6.78747e-08)
(1.16651e-05 -0.0362808 -5.33889e-08)
(0.000111651 -0.0971739 -2.08177e-08)
(0.000111651 -0.0971739 2.1409e-08)
(0.000101046 -0.0973266 -2.00233e-08)
(0.000101047 -0.0973266 2.0504e-08)
(1.29074e-05 -0.0362241 -2.07494e-08)
(1.29073e-05 -0.0362241 2.13407e-08)
(1.16537e-05 -0.0362813 -1.9991e-08)
(1.16538e-05 -0.0362813 2.04075e-08)
(0.000111682 -0.0971725 5.48521e-08)
(0.000111729 -0.0971703 6.99532e-08)
(0.000101077 -0.0973252 5.26562e-08)
(0.000101125 -0.0973229 6.71608e-08)
(1.29191e-05 -0.0362236 5.61458e-08)
(1.29462e-05 -0.0362229 7.12501e-08)
(1.16654e-05 -0.0362808 5.38052e-08)
(1.16916e-05 -0.03628 6.82799e-08)
(0.0001118 -0.097168 8.03062e-08)
(0.000111941 -0.0971668 0.928189)
(0.000101194 -0.0973207 7.61153e-08)
(0.000101325 -0.0973194 0.928487)
(1.30589e-05 -0.0362221 4.92613e-08)
(1.34018e-05 -0.0362217 0.915942)
(1.17957e-05 -0.0362792 4.78541e-08)
(1.21079e-05 -0.0362788 0.916233)
(0.000135669 -0.0968185 -0.927087)
(0.000135507 -0.0968198 -8.86721e-08)
(0.000123377 -0.097 -0.927403)
(0.000123225 -0.0970013 -8.42596e-08)
(1.63016e-05 -0.0360911 -0.914866)
(1.58905e-05 -0.0360915 -5.14898e-08)
(1.47978e-05 -0.0361592 -0.915175)
(1.44215e-05 -0.0361596 -5.02146e-08)
(0.000135432 -0.096822 -7.47687e-08)
(0.000135384 -0.0968242 -5.84012e-08)
(0.000123153 -0.0970035 -7.20997e-08)
(0.000123105 -0.0970057 -5.63295e-08)
(1.57587e-05 -0.0360923 -7.641e-08)
(1.57289e-05 -0.036093 -5.99167e-08)
(1.42996e-05 -0.0361604 -7.3565e-08)
(1.42711e-05 -0.0361611 -5.77214e-08)
(0.000135353 -0.0968256 -2.24047e-08)
(0.000135352 -0.0968256 2.31208e-08)
(0.000123074 -0.0970072 -2.15971e-08)
(0.000123074 -0.0970072 2.22836e-08)
(1.57166e-05 -0.0360935 -2.22865e-08)
(1.57164e-05 -0.0360935 2.31107e-08)
(1.4259e-05 -0.0361616 -2.14949e-08)
(1.42589e-05 -0.0361616 2.22504e-08)
(0.000135383 -0.0968242 5.90696e-08)
(0.00013543 -0.096822 7.53372e-08)
(0.000123104 -0.0970058 5.69842e-08)
(0.000123151 -0.0970035 7.26693e-08)
(1.57285e-05 -0.036093 6.06928e-08)
(1.57579e-05 -0.0360923 7.70936e-08)
(1.42707e-05 -0.0361611 5.84419e-08)
(1.42989e-05 -0.0361604 7.41864e-08)
(0.000135505 -0.0968198 8.88969e-08)
(0.000135668 -0.0968186 0.927087)
(0.000123223 -0.0970013 8.45386e-08)
(0.000123374 -0.097 0.927403)
(1.58896e-05 -0.0360915 5.17494e-08)
(1.63008e-05 -0.0360911 0.914866)
(1.44207e-05 -0.0361596 5.05841e-08)
(1.47963e-05 -0.0361592 0.915175)
(0.000163095 -0.0964071 -0.925966)
(0.000162904 -0.0964083 -9.72942e-08)
(0.000148894 -0.0966212 -0.926287)
(0.000148717 -0.0966224 -9.29138e-08)
(1.96612e-05 -0.0359365 -0.913772)
(1.9171e-05 -0.0359369 -5.29116e-08)
(1.79192e-05 -0.036017 -0.914086)
(1.74697e-05 -0.0360174 -5.2242e-08)
(0.000162824 -0.0964105 -7.9884e-08)
(0.000162776 -0.0964127 -6.24259e-08)
(0.000148639 -0.0966246 -7.73383e-08)
(0.000148592 -0.0966268 -6.04043e-08)
(1.90179e-05 -0.0359376 -8.20937e-08)
(1.89856e-05 -0.0359384 -6.43182e-08)
(1.73276e-05 -0.0360181 -7.92546e-08)
(1.72966e-05 -0.0360189 -6.20879e-08)
(0.000162746 -0.0964141 -2.40352e-08)
(0.000162746 -0.0964141 2.46258e-08)
(0.000148561 -0.0966282 -2.32003e-08)
(0.000148561 -0.0966282 2.38989e-08)
(1.8973e-05 -0.0359388 -2.39887e-08)
(1.89731e-05 -0.0359388 2.45692e-08)
(1.72841e-05 -0.0360193 -2.31045e-08)
(1.72841e-05 -0.0360193 2.38746e-08)
(0.000162778 -0.0964127 6.29482e-08)
(0.000162826 -0.0964105 8.02933e-08)
(0.000148592 -0.0966268 6.10392e-08)
(0.00014864 -0.0966246 7.7846e-08)
(1.8986e-05 -0.0359384 6.48346e-08)
(1.90186e-05 -0.0359376 8.24984e-08)
(1.72966e-05 -0.0360189 6.27965e-08)
(1.73276e-05 -0.0360181 7.98221e-08)
(0.000162907 -0.0964084 9.76071e-08)
(0.000163098 -0.0964072 0.925966)
(0.000148718 -0.0966224 9.31847e-08)
(0.000148894 -0.0966212 0.926287)
(1.9172e-05 -0.0359369 5.32268e-08)
(1.96626e-05 -0.0359365 0.913772)
(1.74698e-05 -0.0360174 5.25868e-08)
(1.79193e-05 -0.036017 0.914086)
(0.000194711 -0.0959247 -0.924795)
(0.000194488 -0.0959259 -1.06435e-07)
(0.000178353 -0.0961752 -0.925139)
(0.000178148 -0.0961764 -1.01711e-07)
(2.35465e-05 -0.0357547 -0.912628)
(2.2966e-05 -0.0357551 -5.38393e-08)
(2.15331e-05 -0.0358492 -0.912964)
(2.1e-05 -0.0358496 -5.34204e-08)
(0.000194401 -0.095928 -8.48168e-08)
(0.000194354 -0.0959301 -6.6341e-08)
(0.000178064 -0.0961786 -8.23546e-08)
(0.000178017 -0.0961807 -6.43913e-08)
(2.27889e-05 -0.0357558 -8.77169e-08)
(2.27534e-05 -0.0357566 -6.86659e-08)
(2.08351e-05 -0.0358503 -8.48869e-08)
(2.08013e-05 -0.035851 -6.65001e-08)
(0.000194323 -0.0959315 -2.56429e-08)
(0.000194323 -0.0959315 2.60654e-08)
(0.000177986 -0.0961821 -2.48484e-08)
(0.000177987 -0.0961821 2.53284e-08)
(2.27404e-05 -0.035757 -2.56777e-08)
(2.27406e-05 -0.035757 2.59761e-08)
(2.07885e-05 -0.0358515 -2.48509e-08)
(2.07887e-05 -0.0358515 2.52459e-08)
(0.000194355 -0.0959301 6.66958e-08)
(0.000194404 -0.095928 8.50752e-08)
(0.000178019 -0.0961807 6.47968e-08)
(0.000178067 -0.0961786 8.2652e-08)
(2.2754e-05 -0.0357566 6.8892e-08)
(2.27898e-05 -0.0357558 8.7819e-08)
(2.08018e-05 -0.035851 6.68248e-08)
(2.0836e-05 -0.0358503 8.51066e-08)
(0.000194492 -0.0959259 1.06854e-07)
(0.000194713 -0.0959247 0.924795)
(0.000178152 -0.0961764 1.02052e-07)
(0.000178358 -0.0961753 0.925139)
(2.29674e-05 -0.0357551 5.41956e-08)
(2.35483e-05 -0.0357547 0.912628)
(2.10012e-05 -0.0358496 5.36545e-08)
(2.15357e-05 -0.0358492 0.912964)
(0.000230985 -0.0953627 -0.92362)
(0.00023073 -0.0953639 -1.16806e-07)
(0.000212238 -0.0956542 -0.923942)
(0.000212 -0.0956553 -1.11443e-07)
(2.80163e-05 -0.0355425 -0.911481)
(2.73334e-05 -0.0355429 -5.50977e-08)
(2.57033e-05 -0.0356526 -0.911796)
(2.50738e-05 -0.035653 -5.45122e-08)
(0.000230636 -0.0953659 -8.96099e-08)
(0.000230588 -0.095368 -7.01061e-08)
(0.00021191 -0.0956574 -8.72072e-08)
(0.000211862 -0.0956595 -6.82269e-08)
(2.71292e-05 -0.0355436 -9.31875e-08)
(2.70901e-05 -0.0355443 -7.28013e-08)
(2.48835e-05 -0.0356537 -9.04156e-08)
(2.48463e-05 -0.0356545 -7.0739e-08)
(0.000230556 -0.0953693 -2.7128e-08)
(0.000230557 -0.0953693 2.75985e-08)
(0.000211831 -0.0956609 -2.63902e-08)
(0.000211832 -0.0956609 2.68179e-08)
(2.70765e-05 -0.0355448 -2.71505e-08)
(2.70765e-05 -0.0355448 2.75843e-08)
(2.4833e-05 -0.0356549 -2.64281e-08)
(2.48331e-05 -0.0356549 2.67562e-08)
(0.000230588 -0.095368 7.05276e-08)
(0.000230637 -0.0953659 8.99662e-08)
(0.000211864 -0.0956595 6.85852e-08)
(0.000211912 -0.0956574 8.7485e-08)
(2.70902e-05 -0.0355443 7.31823e-08)
(2.71295e-05 -0.0355436 9.34844e-08)
(2.48467e-05 -0.0356545 7.0996e-08)
(2.48842e-05 -0.0356537 9.0589e-08)
(0.000230731 -0.0953639 1.17139e-07)
(0.000230986 -0.0953628 0.92362)
(0.000212003 -0.0956554 1.11791e-07)
(0.000212242 -0.0956542 0.923942)
(2.73338e-05 -0.0355429 5.53897e-08)
(2.80167e-05 -0.0355426 0.911481)
(2.50748e-05 -0.035653 5.46941e-08)
(2.57054e-05 -0.0356527 0.911796)
(0.000272386 -0.094712 -0.922378)
(0.000272093 -0.094713 -1.27943e-07)
(0.000251024 -0.0950489 -0.922728)
(0.00025075 -0.09505 -1.22242e-07)
(3.3122e-05 -0.0352963 -0.910269)
(3.23234e-05 -0.0352967 -5.60559e-08)
(3.04854e-05 -0.0354239 -0.91061)
(2.97459e-05 -0.0354243 -5.55825e-08)
(0.000271991 -0.094715 -9.43307e-08)
(0.000271942 -0.0947171 -7.38373e-08)
(0.000250652 -0.0950521 -9.19298e-08)
(0.000250604 -0.0950541 -7.19407e-08)
(3.20889e-05 -0.0352974 -9.86834e-08)
(3.20454e-05 -0.0352981 -7.69183e-08)
(2.95271e-05 -0.035425 -9.58857e-08)
(2.94858e-05 -0.0354257 -7.48182e-08)
(0.00027191 -0.0947183 -2.86244e-08)
(0.000271909 -0.0947183 2.90821e-08)
(0.000250572 -0.0950554 -2.78553e-08)
(0.000250571 -0.0950554 2.83457e-08)
(3.2031e-05 -0.0352985 -2.86228e-08)
(3.20308e-05 -0.0352985 2.91623e-08)
(2.94718e-05 -0.0354261 -2.78614e-08)
(2.94717e-05 -0.0354261 2.83829e-08)
(0.000271941 -0.0947171 7.43019e-08)
(0.000271989 -0.094715 9.48e-08)
(0.000250603 -0.0950541 7.24071e-08)
(0.000250651 -0.0950521 9.2374e-08)
(3.20448e-05 -0.0352981 7.74751e-08)
(3.20878e-05 -0.0352974 9.92573e-08)
(2.94855e-05 -0.0354257 7.53217e-08)
(2.95265e-05 -0.035425 9.63503e-08)
(0.00027209 -0.0947131 1.28174e-07)
(0.000272384 -0.094712 0.922378)
(0.000250748 -0.0950501 1.22526e-07)
(0.000251022 -0.095049 0.922728)
(3.23219e-05 -0.0352967 5.62717e-08)
(3.31206e-05 -0.0352964 0.910269)
(2.97453e-05 -0.0354243 5.58877e-08)
(3.04841e-05 -0.0354239 0.91061)
(0.000319353 -0.0939628 -0.921117)
(0.000319015 -0.0939639 -1.39565e-07)
(0.000295152 -0.0943503 -0.921456)
(0.000294836 -0.0943513 -1.33576e-07)
(3.89146e-05 -0.0350124 -0.909038)
(3.79853e-05 -0.0350128 -5.61735e-08)
(3.59277e-05 -0.0351593 -0.90937)
(3.50649e-05 -0.0351597 -5.60623e-08)
(0.000318904 -0.0939658 -9.91864e-08)
(0.000318855 -0.0939678 -7.76833e-08)
(0.000294729 -0.0943533 -9.66937e-08)
(0.00029468 -0.0943553 -7.57193e-08)
(3.77174e-05 -0.0350134 -1.04539e-07)
(3.76694e-05 -0.0350141 -8.12614e-08)
(3.48142e-05 -0.0351604 -1.01546e-07)
(3.47685e-05 -0.035161 -7.9033e-08)
(0.000318823 -0.093969 -3.01819e-08)
(0.000318823 -0.093969 3.05476e-08)
(0.000294648 -0.0943565 -2.93972e-08)
(0.000294647 -0.0943565 2.97897e-08)
(3.76546e-05 -0.0350145 -3.02122e-08)
(3.76545e-05 -0.0350145 3.0685e-08)
(3.47539e-05 -0.0351614 -2.94003e-08)
(3.47537e-05 -0.0351614 2.99095e-08)
(0.000318855 -0.0939678 7.8071e-08)
(0.000318904 -0.0939658 9.95625e-08)
(0.000294679 -0.0943553 7.61483e-08)
(0.000294727 -0.0943533 9.71483e-08)
(3.76692e-05 -0.0350141 8.1765e-08)
(3.7717e-05 -0.0350134 1.0504e-07)
(3.47679e-05 -0.035161 7.95846e-08)
(3.48131e-05 -0.0351604 1.02103e-07)
(0.000319014 -0.0939639 1.39808e-07)
(0.000319354 -0.0939629 0.921117)
(0.000294833 -0.0943513 1.33832e-07)
(0.000295148 -0.0943503 0.921456)
(3.79848e-05 -0.0350128 5.63562e-08)
(3.89146e-05 -0.0350124 0.909038)
(3.50636e-05 -0.0351597 5.63659e-08)
(3.59258e-05 -0.0351593 0.90937)
(0.000372318 -0.0931051 -0.919804)
(0.000371929 -0.0931061 -1.52184e-07)
(0.000345069 -0.0935481 -0.920167)
(0.000344706 -0.0935491 -1.45667e-07)
(4.54442e-05 -0.0346867 -0.907756)
(4.43682e-05 -0.0346871 -5.58622e-08)
(4.20827e-05 -0.034855 -0.90811)
(4.10817e-05 -0.0348554 -5.59832e-08)
(0.000371809 -0.093108 -1.04249e-07)
(0.00037176 -0.0931099 -8.17119e-08)
(0.00034459 -0.093551 -1.01647e-07)
(0.000344541 -0.0935529 -7.96469e-08)
(4.40634e-05 -0.0346877 -1.10849e-07)
(4.40105e-05 -0.0346884 -8.59016e-08)
(4.07959e-05 -0.034856 -1.07609e-07)
(4.07456e-05 -0.0348566 -8.35213e-08)
(0.000371727 -0.0931111 -3.17505e-08)
(0.000371728 -0.0931111 3.2165e-08)
(0.000344509 -0.0935541 -3.09594e-08)
(0.00034451 -0.0935541 3.13207e-08)
(4.39951e-05 -0.0346887 -3.18594e-08)
(4.39952e-05 -0.0346887 3.23366e-08)
(4.07306e-05 -0.034857 -3.10246e-08)
(4.07306e-05 -0.034857 3.14793e-08)
(0.000371761 -0.0931099 8.20433e-08)
(0.00037181 -0.093108 1.04438e-07)
(0.000344542 -0.0935529 8.00006e-08)
(0.000344592 -0.093551 1.01944e-07)
(4.40107e-05 -0.0346884 8.62867e-08)
(4.40638e-05 -0.0346877 1.1106e-07)
(4.07458e-05 -0.0348566 8.39638e-08)
(4.07962e-05 -0.034856 1.07974e-07)
(0.000371931 -0.0931061 1.52335e-07)
(0.00037232 -0.0931051 0.919804)
(0.000344708 -0.0935491 1.45861e-07)
(0.000345071 -0.0935481 0.920167)
(4.43689e-05 -0.0346871 5.59766e-08)
(4.5445e-05 -0.0346868 0.907756)
(4.10822e-05 -0.0348554 5.61566e-08)
(4.20832e-05 -0.034855 0.90811)
(0.00043166 -0.0921284 -0.91847)
(0.000431216 -0.0921293 -1.65887e-07)
(0.000401176 -0.0926322 -0.91884)
(0.00040076 -0.0926332 -1.58863e-07)
(5.27533e-05 -0.0343153 -0.906453)
(5.15149e-05 -0.0343157 -5.53066e-08)
(4.89962e-05 -0.034507 -0.906815)
(4.78412e-05 -0.0345073 -5.56286e-08)
(0.000431085 -0.0921311 -1.09424e-07)
(0.000431035 -0.0921329 -8.59546e-08)
(0.000400634 -0.092635 -1.06804e-07)
(0.000400585 -0.0926369 -8.37767e-08)
(5.11692e-05 -0.0343163 -1.17448e-07)
(5.11106e-05 -0.0343169 -9.08395e-08)
(4.75164e-05 -0.0345079 -1.14073e-07)
(4.74607e-05 -0.0345086 -8.83041e-08)
(0.000431002 -0.0921341 -3.34353e-08)
(0.000431003 -0.0921341 3.38375e-08)
(0.000400553 -0.092638 -3.25573e-08)
(0.000400553 -0.092638 3.29933e-08)
(5.10945e-05 -0.0343172 -3.3646e-08)
(5.10946e-05 -0.0343172 3.40553e-08)
(4.74449e-05 -0.0345089 -3.27242e-08)
(4.7445e-05 -0.0345089 3.31765e-08)
(0.000431036 -0.092133 8.61832e-08)
(0.000431086 -0.0921311 1.09471e-07)
(0.000400586 -0.0926369 8.40683e-08)
(0.000400636 -0.092635 1.06894e-07)
(5.11108e-05 -0.0343169 9.10561e-08)
(5.11697e-05 -0.0343163 1.17439e-07)
(4.74609e-05 -0.0345086 8.86098e-08)
(4.75168e-05 -0.0345079 1.14168e-07)
(0.000431218 -0.0921293 1.65907e-07)
(0.000431661 -0.0921284 0.91847)
(0.000400761 -0.0926332 1.58908e-07)
(0.000401177 -0.0926322 0.91884)
(5.15156e-05 -0.0343157 5.53576e-08)
(5.27535e-05 -0.0343153 0.906453)
(4.78417e-05 -0.0345073 5.56559e-08)
(4.89966e-05 -0.034507 0.906815)
(0.000497668 -0.0910223 -0.917076)
(0.000497164 -0.0910232 -1.80352e-07)
(0.000463822 -0.091592 -0.917456)
(0.00046335 -0.091593 -1.72942e-07)
(6.08682e-05 -0.0338942 -0.905093)
(5.94514e-05 -0.0338945 -5.41493e-08)
(5.67048e-05 -0.0341112 -0.905464)
(5.53796e-05 -0.0341115 -5.47893e-08)
(0.00049702 -0.0910249 -1.14583e-07)
(0.000496969 -0.0910267 -9.02955e-08)
(0.000463212 -0.0915947 -1.11966e-07)
(0.000463162 -0.0915965 -8.80722e-08)
(5.9061e-05 -0.0338951 -1.24169e-07)
(5.89959e-05 -0.0338956 -9.59521e-08)
(5.5012e-05 -0.0341121 -1.20736e-07)
(5.49503e-05 -0.0341127 -9.33324e-08)
(0.000496936 -0.0910278 -3.52413e-08)
(0.000496937 -0.0910278 3.5484e-08)
(0.000463129 -0.0915976 -3.43041e-08)
(0.00046313 -0.0915976 3.46523e-08)
(5.89791e-05 -0.033896 -3.55763e-08)
(5.89793e-05 -0.033896 3.57696e-08)
(5.49338e-05 -0.034113 -3.45851e-08)
(5.49341e-05 -0.034113 3.48907e-08)
(0.000496971 -0.0910267 9.0432e-08)
(0.000497023 -0.0910249 1.14652e-07)
(0.000463163 -0.0915965 8.82608e-08)
(0.000463215 -0.0915947 1.11999e-07)
(5.89966e-05 -0.0338956 9.60198e-08)
(5.90621e-05 -0.0338951 1.24143e-07)
(5.49509e-05 -0.0341127 9.34725e-08)
(5.5013e-05 -0.0341121 1.20705e-07)
(0.000497168 -0.0910232 1.80399e-07)
(0.000497672 -0.0910223 0.917076)
(0.000463353 -0.091593 1.72971e-07)
(0.000463826 -0.0915921 0.917456)
(5.9453e-05 -0.0338945 5.42636e-08)
(6.08694e-05 -0.0338942 0.905093)
(5.53809e-05 -0.0341115 5.48368e-08)
(5.67061e-05 -0.0341112 0.905464)
(0.000570564 -0.0897763 -0.915657)
(0.000569994 -0.0897772 -1.95738e-07)
(0.000533252 -0.0904173 -0.916052)
(0.000532716 -0.0904182 -1.87803e-07)
(6.98061e-05 -0.0334192 -0.903707)
(6.81949e-05 -0.0334195 -5.25913e-08)
(6.52298e-05 -0.0336636 -0.904094)
(6.37182e-05 -0.0336639 -5.33994e-08)
(0.000569836 -0.0897788 -1.19987e-07)
(0.000569783 -0.0897805 -9.47877e-08)
(0.000532565 -0.0904199 -1.1723e-07)
(0.000532513 -0.0904216 -9.2502e-08)
(6.77556e-05 -0.03342 -1.31217e-07)
(6.76832e-05 -0.0334206 -1.01234e-07)
(6.33038e-05 -0.0336645 -1.27618e-07)
(6.32352e-05 -0.033665 -9.85429e-08)
(0.000569748 -0.0897816 -3.70913e-08)
(0.000569748 -0.0897816 3.72071e-08)
(0.000532479 -0.0904227 -3.61561e-08)
(0.00053248 -0.0904227 3.63203e-08)
(6.76651e-05 -0.0334209 -3.75361e-08)
(6.76651e-05 -0.0334209 3.75825e-08)
(6.32177e-05 -0.0336654 -3.65415e-08)
(6.32178e-05 -0.0336654 3.66527e-08)
(0.000569783 -0.0897805 9.4857e-08)
(0.000569836 -0.0897788 1.20014e-07)
(0.000532514 -0.0904216 9.25935e-08)
(0.000532567 -0.0904199 1.17269e-07)
(6.76834e-05 -0.0334206 1.01214e-07)
(6.77559e-05 -0.03342 1.3115e-07)
(6.32356e-05 -0.033665 9.85599e-08)
(6.33045e-05 -0.0336645 1.27564e-07)
(0.000569995 -0.0897772 1.95843e-07)
(0.000570564 -0.0897763 0.915657)
(0.000532719 -0.0904182 1.87888e-07)
(0.000533255 -0.0904174 0.916052)
(6.81953e-05 -0.0334195 5.26815e-08)
(6.98066e-05 -0.0334192 0.903707)
(6.37192e-05 -0.0336639 5.34444e-08)
(6.52311e-05 -0.0336636 0.904094)
(0.000650431 -0.0883806 -0.914188)
(0.000649792 -0.0883814 -2.12399e-07)
(0.00060963 -0.0890977 -0.914584)
(0.000609026 -0.0890985 -2.03842e-07)
(7.95647e-05 -0.0328866 -0.902273)
(7.77427e-05 -0.0328869 -5.09167e-08)
(7.45785e-05 -0.0331603 -0.902661)
(7.28641e-05 -0.0331606 -5.17598e-08)
(0.000649619 -0.088383 -1.25565e-07)
(0.000649564 -0.0883846 -9.94333e-08)
(0.000608861 -0.0891001 -1.22709e-07)
(0.000608807 -0.0891018 -9.70449e-08)
(7.7251e-05 -0.0328874 -1.38565e-07)
(7.71707e-05 -0.0328879 -1.06687e-07)
(7.2399e-05 -0.0331611 -1.3479e-07)
(7.23226e-05 -0.0331616 -1.03888e-07)
(0.000649529 -0.0883856 -3.89452e-08)
(0.000649529 -0.0883856 3.90475e-08)
(0.000608772 -0.0891028 -3.79901e-08)
(0.000608772 -0.0891028 3.80991e-08)
(7.71514e-05 -0.0328883 -3.95129e-08)
(7.71516e-05 -0.0328883 3.95004e-08)
(7.23039e-05 -0.033162 -3.84997e-08)
(7.23041e-05 -0.033162 3.85147e-08)
(0.000649565 -0.0883846 9.94567e-08)
(0.00064962 -0.088383 1.25548e-07)
(0.000608807 -0.0891018 9.70885e-08)
(0.000608861 -0.0891001 1.22704e-07)
(7.71712e-05 -0.0328879 1.06629e-07)
(7.72517e-05 -0.0328874 1.38495e-07)
(7.23229e-05 -0.0331616 1.03855e-07)
(7.23992e-05 -0.0331611 1.34738e-07)
(0.000649794 -0.0883814 2.12448e-07)
(0.000650433 -0.0883807 0.914188)
(0.000609027 -0.0890985 2.03894e-07)
(0.00060963 -0.0890977 0.914584)
(7.77435e-05 -0.0328869 5.09876e-08)
(7.95653e-05 -0.0328866 0.902273)
(7.28643e-05 -0.0331606 5.17725e-08)
(7.4579e-05 -0.0331603 0.902661)
(0.00073724 -0.0868258 -0.912671)
(0.000736526 -0.0868266 -2.29866e-07)
(0.000692982 -0.0876236 -0.91308)