/*--------------------------------*- C++ -*----------------------------------*\
  =========                 |
  \\      /  F ield         | OpenFOAM: The Open Source CFD Toolbox
   \\    /   O peration     | Website:  https://openfoam.org
    \\  /    A nd           | Version:  9
     \\/     M anipulation  |
\*---------------------------------------------------------------------------*/
FoamFile
{
    format      ascii;
    class       volScalarField;
    location    "0.75";
    object      epsilon;
}
// * * * * * * * * * * * * * * * * * * * * * * * * * * * * * * * * * * * * * //

dimensions      [0 2 -3 0 0 0 0];

internalField   nonuniform List<scalar> 
36360
(
0.110337
0.0810825
0.0371024
0.0331921
0.0185924
0.00933561
0.00818114
0.0062403
0.010015
0.00277015
0.00613525
0.00454398
0.00375011
0.00322334
0.00508882
0.00502171
0.00244802
0.00244799
0.00452165
0.00452165
0.00318631
0.0031863
0.00501724
0.00501724
0.00276978
0.0100111
0.00454401
0.00613491
0.00322328
0.00374979
0.00502171
0.00508885
0.0810746
0.110351
0.0331939
0.0371013
0.00933462
0.0185949
0.00624026
0.00818122
0.182141
0.130304
0.157901
0.113278
0.0442852
0.0206486
0.0343426
0.0160974
0.0220652
0.00275863
0.0174206
0.00259355
0.00398831
0.00226988
0.00375782
0.00250451
0.00142372
0.00142339
0.00167708
0.0016769
0.00216335
0.00216331
0.00242468
0.00242465
0.00275366
0.0220393
0.00259058
0.0174048
0.00226941
0.00398466
0.00250422
0.00375556
0.130279
0.182188
0.11326
0.157933
0.0206403
0.0443043
0.0160924
0.034354
0.196156
0.140527
0.192559
0.137847
0.0499653
0.0238432
0.0484893
0.0229023
0.0250345
0.00297645
0.0242503
0.0029144
0.00426476
0.00219427
0.0041849
0.0022075
0.00133823
0.00133776
0.00135386
0.00135343
0.00207018
0.00207013
0.00208766
0.00208762
0.00296916
0.0250002
0.00290777
0.0242187
0.00219364
0.00425946
0.00220692
0.0041801
0.140496
0.196217
0.137818
0.192615
0.0238322
0.0499917
0.0228922
0.0485135
0.197304
0.141535
0.197196
0.141381
0.0504309
0.0242524
0.0503896
0.0241802
0.0253232
0.00299949
0.0252826
0.00299686
0.00429754
0.00219095
0.00429303
0.00219174
0.00133524
0.00133476
0.00133505
0.00133457
0.0020656
0.00206555
0.00206642
0.00206637
0.00299195
0.0252879
0.00298936
0.0252475
0.00219031
0.00429211
0.0021911
0.0042876
0.141503
0.197368
0.14135
0.197259
0.0242415
0.0504588
0.0241691
0.050417
0.197182
0.141518
0.197302
0.141571
0.0503646
0.0242499
0.0504228
0.0242687
0.0253226
0.00299841
0.0253354
0.00300009
0.00429543
0.0021896
0.00429797
0.00218988
0.00133537
0.00133489
0.00133499
0.0013345
0.00206472
0.00206467
0.00206459
0.00206454
0.0029909
0.0252874
0.00299256
0.0253001
0.00218896
0.00429001
0.00218924
0.00429254
0.141487
0.197246
0.14154
0.197366
0.0242391
0.0503927
0.0242579
0.0504508
0.196926
0.141394
0.197102
0.141492
0.0502414
0.0241827
0.0503217
0.024229
0.0252908
0.00299428
0.0253182
0.00299736
0.00428737
0.00218779
0.00429297
0.00218901
0.00133535
0.00133487
0.00133505
0.00133457
0.0020634
0.00206335
0.00206427
0.00206422
0.00298678
0.0252557
0.00298985
0.025283
0.00218715
0.00428199
0.00218837
0.00428757
0.141363
0.19699
0.141461
0.197166
0.024172
0.0502696
0.0242182
0.0503499
0.196585
0.141213
0.196804
0.141338
0.0500958
0.0240939
0.0501878
0.0241503
0.0252405
0.00298858
0.0252764
0.00299252
0.00427672
0.00218528
0.00428357
0.00218643
0.00133526
0.00133478
0.00133499
0.00133451
0.00206144
0.00206139
0.00206214
0.00206209
0.00298112
0.0252055
0.00298504
0.0252413
0.00218464
0.00427137
0.0021858
0.0042782
0.141183
0.196649
0.141307
0.196868
0.0240833
0.0501241
0.0241396
0.050216
0.196175
0.140997
0.196429
0.14114
0.0499329
0.0239946
0.0500341
0.0240564
0.0251798
0.00298182
0.0252209
0.00298612
0.00426461
0.00218261
0.00427222
0.00218386
0.00133513
0.00133465
0.00133486
0.00133438
0.00205949
0.00205944
0.00206032
0.00206027
0.0029744
0.0251449
0.00297867
0.0251859
0.00218198
0.00425929
0.00218323
0.00426688
0.140967
0.19624
0.141109
0.196493
0.0239841
0.0499612
0.0240458
0.0500623
0.195701
0.140751
0.195987
0.140909
0.0497536
0.0238866
0.0498636
0.023953
0.0251112
0.00297476
0.0251565
0.00297946
0.0042512
0.00217964
0.0042595
0.0021811
0.00133502
0.00133455
0.00133476
0.00133429
0.00205713
0.00205708
0.00205813
0.00205808
0.00296736
0.0250763
0.00297205
0.0251217
0.00217901
0.0042459
0.00218047
0.00425419
0.140721
0.195765
0.140879
0.196052
0.0238761
0.0497818
0.0239425
0.0498918
0.195161
0.140477
0.195482
0.14065
0.0495579
0.023769
0.0496769
0.0238403
0.0250356
0.00296684
0.0250847
0.00297177
0.00423657
0.00217617
0.00424548
0.00217782
0.00133489
0.00133441
0.00133462
0.00133415
0.00205437
0.00205432
0.00205557
0.00205552
0.00295946
0.0250007
0.00296438
0.0250499
0.00217554
0.00423128
0.00217719
0.00424019
0.140446
0.195225
0.140619
0.195546
0.0237583
0.0495857
0.0238298
0.0497049
0.194552
0.140173
0.194909
0.140361
0.0493439
0.0236434
0.0494731
0.023719
0.0249528
0.00295866
0.0250059
0.002964
0.00422069
0.00217228
0.00423028
0.0021742
0.00133478
0.00133431
0.00133452
0.00133405
0.00205117
0.00205112
0.0020526
0.00205255
0.00295129
0.0249179
0.00295662
0.024971
0.00217166
0.0042154
0.00217358
0.00422499
0.140142
0.194615
0.140331
0.194972
0.0236326
0.0493712
0.0237083
0.0495007
0.193869
0.139838
0.194264
0.140043
0.04911
0.0235093
0.0492503
0.0235895
0.0248627
0.00294954
0.0249198
0.00295513
0.0042034
0.0021678
0.00421372
0.00216995
0.00133465
0.00133418
0.00133438
0.00133391
0.00204745
0.0020474
0.00204913
0.00204908
0.0029422
0.0248278
0.00294777
0.0248849
0.00216718
0.00419812
0.00216933
0.00420843
0.139807
0.193931
0.140012
0.194327
0.0234984
0.0491369
0.0235787
0.0492774
0.193106
0.139469
0.193543
0.139692
0.0488534
0.0233643
0.0490057
0.0234503
0.0247643
0.00294009
0.0248258
0.00294605
0.00418454
0.0021628
0.00419568
0.00216525
0.00133456
0.00133409
0.00133428
0.00133381
0.00204319
0.00204314
0.00204515
0.0020451
0.0029328
0.0247295
0.00293873
0.024791
0.00216218
0.00417929
0.00216463
0.00419041
0.139438
0.193168
0.13966
0.193605
0.0233534
0.0488801
0.0234394
0.0490325
0.192261
0.139066
0.192739
0.139306
0.0485731
0.0232083
0.0487374
0.0232996
0.0246575
0.00292968
0.0247235
0.00293611
0.00416406
0.0021571
0.00417602
0.00215989
0.00133444
0.00133398
0.00133418
0.00133371
0.00203832
0.00203827
0.00204058
0.00204053
0.00292243
0.0246229
0.00292884
0.0246888
0.00215648
0.00415885
0.00215928
0.00417079
0.139035
0.192322
0.139275
0.192801
0.0231974
0.0485996
0.0232887
0.048764
0.191327
0.138628
0.191851
0.138886
0.0482677
0.0230417
0.0484447
0.0231381
0.0245416
0.00291841
0.0246125
0.00292532
0.00414192
0.00215067
0.00415474
0.00215383
0.00133431
0.00133385
0.00133405
0.00133359
0.00203277
0.00203272
0.00203537
0.00203532
0.00291122
0.0245072
0.00291809
0.024578
0.00215006
0.00413675
0.00215322
0.00414955
0.138597
0.191388
0.138855
0.191912
0.023031
0.048294
0.0231273
0.0484712
0.190298
0.138156
0.190871
0.138431
0.0479355
0.022866
0.0481259
0.0229667
0.0244155
0.00290622
0.024492
0.00291363
0.00411805
0.00214345
0.00413175
0.00214701
0.00133417
0.00133371
0.00133391
0.00133346
0.0020265
0.00202645
0.00202946
0.00202942
0.00289909
0.0243812
0.00290646
0.0244576
0.00214285
0.00411293
0.00214641
0.00412661
0.138124
0.190359
0.1384
0.190932
0.0228553
0.0479615
0.022956
0.048152
0.189166
0.137639
0.189791
0.137939
0.0475756
0.0226834
0.0477796
0.0227869
0.0242777
0.0028931
0.0243604
0.002901
0.00409238
0.00213539
0.004107
0.00213938
0.00133401
0.00133356
0.00133376
0.00133331
0.00201945
0.0020194
0.0020228
0.00202276
0.00288603
0.0242436
0.00289389
0.0243262
0.00213479
0.00408731
0.00213878
0.0041019
0.137607
0.189227
0.137908
0.189852
0.0226727
0.0476014
0.0227762
0.0478056
0.18793
0.137064
0.188607
0.137394
0.0471874
0.0224985
0.0474054
0.0226023
0.0241278
0.00287906
0.0242166
0.00288743
0.00406483
0.00212642
0.00408042
0.00213086
0.00133384
0.0013334
0.0013336
0.00133315
0.00201155
0.00201151
0.00201533
0.00201529
0.00287206
0.0240939
0.00288039
0.0241826
0.00212583
0.00405981
0.00213027
0.00407537
0.137033
0.18799
0.137363
0.188667
0.0224879
0.0472129
0.0225917
0.0474311
0.186589
0.136429
0.187317
0.136788
0.0467701
0.0223126
0.0470025
0.0224175
0.0239665
0.00286414
0.0240607
0.00287296
0.00403517
0.00211648
0.00405184
0.00212141
0.00133366
0.00133322
0.00133343
0.00133298
0.00200277
0.00200272
0.00200699
0.00200695
0.00285721
0.0239328
0.00286599
0.024027
0.0021159
0.0040302
0.00212083
0.00404685
0.136397
0.186648
0.136757
0.187377
0.022302
0.0467954
0.022407
0.0470279
0.185145
0.135748
0.185925
0.136129
0.0463234
0.0221151
0.0465702
0.0222264
0.0237947
0.00284835
0.0238942
0.00285761
0.00400323
0.00210552
0.00402104
0.00211097
0.00133346
0.00133302
0.00133323
0.00133279
0.00199303
0.00199298
0.00199773
0.00199769
0.0028415
0.0237613
0.00285071
0.0238607
0.00210495
0.00399832
0.00211038
0.00401611
0.135717
0.185203
0.136098
0.185984
0.0221046
0.0463483
0.0222158
0.0465952
0.183596
0.135022
0.184428
0.135425
0.0458474
0.0219047
0.0461083
0.0220222
0.0236123
0.00283168
0.023717
0.00284136
0.00396897
0.00209349
0.00398792
0.00209947
0.00133322
0.00133279
0.00133302
0.00133258
0.0019823
0.00198225
0.0019875
0.00198745
0.00282492
0.0235792
0.00283455
0.0236837
0.00209292
0.00396413
0.0020989
0.00398305
0.134991
0.183654
0.135394
0.184486
0.0218942
0.045872
0.0220117
0.0461331
0.181945
0.134251
0.182828
0.134677
0.0453429
0.0216815
0.0456175
0.0218052
0.0234196
0.00281417
0.0235292
0.00282425
0.00393238
0.00208035
0.00395247
0.00208688
0.00133296
0.00133253
0.00133277
0.00133234
0.00197053
0.00197049
0.00197625
0.0019762
0.0028075
0.0233868
0.00281753
0.0234963
0.00207979
0.00392761
0.00208632
0.00394766
0.13422
0.182003
0.134646
0.182886
0.0216711
0.0453671
0.0217947
0.0456419
0.180198
0.133438
0.181128
0.133884
0.0448114
0.0214462
0.0450989
0.0215756
0.0232171
0.00279587
0.0233314
0.00280632
0.0038935
0.00206608
0.00391469
0.00207317
0.00133265
0.00133223
0.00133248
0.00133206
0.0019577
0.00195765
0.00196394
0.0019639
0.00278929
0.0231846
0.00279968
0.0232988
0.00206552
0.0038888
0.00207261
0.00390995
0.133407
0.180255
0.133853
0.181185
0.0214358
0.0448352
0.0215652
0.0451229
0.17836
0.132584
0.179334
0.13305
0.0442552
0.0211994
0.0445543
0.0213341
0.0230057
0.00277683
0.0231242
0.00278761
0.00385239
0.00205065
0.00387465
0.00205831
0.00133229
0.00133188
0.00133215
0.00133173
0.00194377
0.00194373
0.00195056
0.00195052
0.00277035
0.0229735
0.00278107
0.0230919
0.0020501
0.00384776
0.00205776
0.00386998
0.132553
0.178417
0.133019
0.179391
0.0211891
0.0442786
0.0213239
0.0445779
0.176442
0.131695
0.177455
0.132177
0.0436768
0.0209421
0.0439862
0.0210817
0.0227861
0.00275715
0.0229083
0.00276821
0.00380915
0.00203406
0.00383241
0.0020423
0.00133187
0.00133146
0.00133176
0.00133135
0.00192876
0.00192872
0.00193609
0.00193605
0.00275076
0.0227543
0.00276177
0.0228764
0.00203353
0.0038046
0.00204176
0.00382782
0.131664
0.176497
0.132146
0.17751
0.020932
0.0436998
0.0210715
0.0440094
0.174453
0.130774
0.175499
0.131271
0.0430798
0.0206757
0.0433976
0.0208194
0.0225597
0.00273691
0.022685
0.00274821
0.00376393
0.00201633
0.00378811
0.00202513
0.00133137
0.00133097
0.0013313
0.00133089
0.00191265
0.00191261
0.00192052
0.00192048
0.00273063
0.0225283
0.00274187
0.0226534
0.0020158
0.00375945
0.0020246
0.0037836
0.130743
0.174508
0.13124
0.175554
0.0206656
0.0431024
0.0208093
0.0434204
0.172409
0.129828
0.173481
0.130336
0.0424683
0.0204017
0.0427923
0.0205487
0.0223281
0.00271625
0.0224556
0.00272771
0.00371691
0.00199747
0.00374192
0.00200682
0.0013308
0.0013304
0.00133076
0.00133036
0.00189546
0.00189542
0.00190386
0.00190382
0.00271007
0.022297
0.00272147
0.0224243
0.00199696
0.00371252
0.0020063
0.00373748
0.129797
0.172463
0.130306
0.173535
0.0203917
0.0424905
0.0205387
0.0428147
0.170324
0.128863
0.171414
0.129379
0.0418472
0.020122
0.0421749
0.0202713
0.0220928
0.00269531
0.0222216
0.00270686
0.00366833
0.00197754
0.00369404
0.00198742
0.00133012
0.00132973
0.00133013
0.00132974
0.00187724
0.0018772
0.00188615
0.00188611
0.00268924
0.0220621
0.00270073
0.0221908
0.00197704
0.00366402
0.00198691
0.00368969
0.128832
0.170377
0.129349
0.171467
0.0201121
0.0418689
0.0202614
0.0421969
0.168216
0.127887
0.169314
0.128408
0.0412215
0.0198386
0.0415505
0.0199893
0.0218558
0.00267424
0.0219851
0.0026858
0.00361845
0.0019566
0.00364472
0.00196696
0.00132932
0.00132894
0.00132941
0.00132902
0.00185802
0.00185798
0.00186742
0.00186738
0.00266827
0.0218255
0.00267978
0.0219546
0.0019561
0.00361422
0.00196646
0.00364045
0.127856
0.168268
0.128377
0.169367
0.0198288
0.0412428
0.0199794
0.0415719
0.166103
0.126908
0.167201
0.127429
0.0405967
0.0195537
0.0409241
0.0197046
0.0216191
0.00265319
0.0217477
0.00266469
0.00356754
0.00193471
0.00359424
0.00194553
0.00132839
0.00132802
0.00132857
0.00132819
0.00183787
0.00183783
0.00184772
0.00184768
0.00264734
0.0215891
0.00265877
0.0217176
0.00193422
0.0035634
0.00194504
0.00359005
0.126878
0.166154
0.127398
0.167253
0.019544
0.0406175
0.0196948
0.0409451
0.164004
0.125935
0.165093
0.126452
0.0399783
0.0192694
0.0403014
0.0194194
0.0213846
0.00263233
0.0215117
0.00264368
0.00351591
0.00191196
0.00354288
0.00192319
0.00132734
0.00132698
0.0013276
0.00132723
0.00181686
0.00181683
0.00182713
0.00182709
0.00262658
0.021355
0.00263788
0.0214819
0.00191148
0.00351185
0.00192271
0.00353878
0.125904
0.164054
0.126421
0.165144
0.0192598
0.0399987
0.0194098
0.040322
0.161938
0.124976
0.163008
0.125484
0.0393719
0.018988
0.0396879
0.019136
0.0211543
0.00261182
0.0212788
0.00262294
0.00346387
0.00188845
0.00349096
0.00190004
0.00132615
0.00132579
0.00132651
0.00132614
0.00179509
0.00179506
0.00180572
0.00180568
0.00260617
0.0211251
0.00261724
0.0212495
0.00188799
0.00345989
0.00189957
0.00348694
0.124945
0.161988
0.125454
0.163058
0.0189785
0.0393918
0.0191265
0.039708
0.159924
0.124039
0.160966
0.124535
0.0387828
0.0187117
0.0390891
0.0188566
0.0209303
0.00259181
0.0210513
0.00260264
0.00341175
0.00186431
0.00343879
0.0018762
0.00132482
0.00132446
0.00132527
0.00132491
0.00177265
0.00177262
0.0017836
0.00178356
0.00258626
0.0209015
0.00259704
0.0210223
0.00186385
0.00340785
0.00187574
0.00343485
0.124009
0.159973
0.124504
0.161015
0.0187023
0.0388023
0.0188473
0.0391088
0.157981
0.123133
0.158985
0.123612
0.0382162
0.0184426
0.0385103
0.0185835
0.0207145
0.00257246
0.020831
0.00258291
0.00335985
0.00183963
0.00338669
0.00185177
0.00132338
0.00132304
0.00132387
0.00132352
0.00174965
0.00174962
0.00176086
0.00176083
0.00256701
0.0206861
0.0025774
0.0208024
0.00183919
0.00335603
0.00185132
0.00338284
0.123103
0.158029
0.123582
0.159033
0.0184334
0.0382353
0.0185742
0.0385296
0.156122
0.122265
0.157082
0.122724
0.0376764
0.0181828
0.0379562
0.0183186
0.0205087
0.00255391
0.0206198
0.00256391
0.00330849
0.00181456
0.00333498
0.00182687
0.00132182
0.00132148
0.00132237
0.00132202
0.00172621
0.00172618
0.00173762
0.00173759
0.00254855
0.0204806
0.0025585
0.0205915
0.00181413
0.00330475
0.00182643
0.0033312
0.122235
0.15617
0.122694
0.15713
0.0181737
0.0376951
0.0183094
0.0379751
0.154361
0.121444
0.155271
0.121879
0.0371671
0.0179341
0.037431
0.0180639
0.0203145
0.0025363
0.0204194
0.00254578
0.00325796
0.00178921
0.00328395
0.00180164
0.00132013
0.00131979
0.00132072
0.00132039
0.00170244
0.0017024
0.001714
0.00171397
0.00253102
0.0202867
0.00254046
0.0203915
0.00178879
0.00325429
0.00180121
0.00328025
0.121414
0.154408
0.121849
0.155318
0.017925
0.0371854
0.0180548
0.0374495
0.152694
0.120672
0.153561
0.121083
0.0366877
0.0176972
0.0369372
0.0178211
0.0201327
0.00251972
0.0202314
0.00252865
0.00320851
0.00176372
0.0032339
0.0017762
0.00131831
0.00131798
0.00131896
0.00131863
0.00167846
0.00167842
0.00169011
0.00169007
0.00251452
0.0201053
0.00252341
0.0202038
0.0017633
0.00320491
0.00177578
0.00323026
0.120642
0.15274
0.121053
0.153607
0.0176883
0.0367056
0.0178121
0.0369553
0.15084
0.11967
0.151884
0.120295
0.0361661
0.0174315
0.0364595
0.017584
0.0199169
0.00250215
0.0200492
0.00251229
0.003158
0.00173814
0.0031847
0.00175067
0.00131635
0.00131603
0.00131708
0.00131675
0.00165437
0.00165434
0.00166606
0.00166603
0.00249704
0.0198899
0.00250713
0.0200219
0.00173773
0.00315447
0.00175025
0.00318113
0.11964
0.150885
0.120265
0.15193
0.0174227
0.0361836
0.0175751
0.0364773
0.148262
0.114535
0.149623
0.118466
0.034904
0.0165531
0.0357536
0.0171743
0.0189478
0.00243835
0.0196603
0.00248399
0.00305887
0.0017101
0.00312376
0.00172487
0.00131305
0.00131274
0.00131484
0.00131452
0.00162949
0.00162946
0.0016421
0.00164207
0.00243357
0.0189225
0.00247898
0.0196339
0.00170971
0.00305554
0.00172447
0.0031203
0.114506
0.148304
0.118437
0.149667
0.0165445
0.0349203
0.0171656
0.0357706
0.134253
0.0979716
0.0416399
0.0348341
0.13015
0.0943942
0.0420877
0.0334723
0.0125763
0.00287695
0.00644067
0.00455519
0.01198
0.00285562
0.00632864
0.00458054
0.0024336
0.00243356
0.00453526
0.00453526
0.00244415
0.00244412
0.00456222
0.00456223
0.00287603
0.0125695
0.00455527
0.00644018
0.0028549
0.0119741
0.00458061
0.00632821
0.0979592
0.134276
0.0348359
0.0416388
0.0943829
0.13017
0.0334738
0.0420865
0.22788
0.163805
0.195695
0.141058
0.21714
0.15604
0.1875
0.134932
0.0314434
0.003588
0.0241798
0.00308819
0.0292358
0.00338625
0.0226484
0.00298237
0.00141251
0.00141192
0.00165926
0.00165896
0.00140849
0.00140796
0.00165948
0.00165921
0.00357844
0.0314021
0.00308354
0.024154
0.00337795
0.0291989
0.00297812
0.0226255
0.163772
0.22795
0.141033
0.195744
0.156008
0.217203
0.134909
0.187544
0.247865
0.177975
0.242349
0.174073
0.235096
0.168902
0.230232
0.165427
0.0362321
0.00408435
0.0349189
0.00394549
0.0334833
0.00380855
0.0323366
0.0036928
0.00133468
0.00133381
0.00134812
0.00134733
0.00132805
0.00132728
0.00134223
0.00134153
0.00407072
0.0361774
0.00393314
0.0348684
0.00379666
0.0334344
0.00368202
0.0322915
0.177933
0.247956
0.174034
0.242433
0.168864
0.235176
0.16539
0.230306
0.25021
0.179642
0.249787
0.17934
0.237064
0.170344
0.236733
0.170089
0.0367729
0.0041398
0.0366847
0.00413232
0.0339489
0.00385525
0.0338736
0.00384877
0.00133233
0.00133143
0.00133219
0.00133129
0.00132551
0.00132472
0.00132537
0.00132457
0.00412562
0.0367162
0.00411824
0.0366285
0.00384291
0.0338986
0.00383651
0.0338236
0.1796
0.250307
0.179298
0.249882
0.170305
0.237149
0.170051
0.236816
0.25022
0.179682
0.250327
0.179743
0.237029
0.170369
0.237139
0.170425
0.0367809
0.00413936
0.0368031
0.00414252
0.0339544
0.00385496
0.0339741
0.00385759
0.00133224
0.00133133
0.00133203
0.00133113
0.00132547
0.00132467
0.00132523
0.00132443
0.00412518
0.0367242
0.00412833
0.0367465
0.00384263
0.0339042
0.00384525
0.0339238
0.17964
0.250317
0.179701
0.250424
0.17033
0.237114
0.170387
0.237224
0.249948
0.179537
0.250163
0.179665
0.236757
0.170236
0.236962
0.170351
0.0367302
0.00413189
0.0367746
0.00413786
0.0339098
0.00384861
0.0339486
0.00385368
0.00133191
0.00133101
0.00133181
0.00133091
0.00132521
0.00132441
0.00132506
0.00132427
0.00411771
0.0366735
0.00412368
0.036718
0.00383631
0.0338596
0.00384137
0.0338985
0.179495
0.250045
0.179623
0.25026
0.170197
0.236843
0.170313
0.237048
0.249532
0.1793
0.249814
0.179471
0.236357
0.170024
0.236623
0.170175
0.0366521
0.00412158
0.0367088
0.00412887
0.0338406
0.00383959
0.0338906
0.00384595
0.00133152
0.00133062
0.00133146
0.00133056
0.00132487
0.00132408
0.00132477
0.00132398
0.00410744
0.0365954
0.00411471
0.0366521
0.00382732
0.0337905
0.00383367
0.0338405
0.179258
0.249628
0.179428
0.249911
0.169986
0.236442
0.170137
0.236709
0.249026
0.179012
0.249352
0.179207
0.235872
0.169768
0.23618
0.169941
0.0365612
0.00410987
0.0366237
0.00411772
0.0337591
0.00382909
0.033815
0.00383607
0.00133107
0.00133018
0.00133102
0.00133012
0.00132447
0.00132369
0.00132438
0.00132359
0.00409577
0.0365046
0.0041036
0.036567
0.00381688
0.0337091
0.00382382
0.033765
0.17897
0.249122
0.179165
0.249448
0.16973
0.235957
0.169903
0.236264
0.248448
0.178688
0.24881
0.178901
0.235312
0.169478
0.235658
0.169668
0.0364623
0.00409782
0.0365289
0.00410595
0.0336688
0.00381817
0.0337293
0.0038255
0.00133064
0.00132975
0.0013306
0.00132971
0.00132409
0.00132331
0.00132401
0.00132323
0.00408377
0.0364057
0.00409187
0.0364723
0.003806
0.0336189
0.00381331
0.0336794
0.178645
0.248543
0.178858
0.248906
0.16944
0.235397
0.16963
0.235743
0.247802
0.178339
0.2482
0.178564
0.23468
0.169159
0.235063
0.169365
0.0363569
0.00408492
0.036427
0.00409341
0.0335708
0.00380628
0.0336356
0.003814
0.00133016
0.00132927
0.00133012
0.00132924
0.00132366
0.00132288
0.00132358
0.0013228
0.00407093
0.0363004
0.00407939
0.0363705
0.00379415
0.0335209
0.00380185
0.0335857
0.178297
0.247897
0.178521
0.248294
0.16912
0.234764
0.169326
0.235148
0.24708
0.177965
0.247517
0.178204
0.233968
0.168805
0.234393
0.16903
0.0362438
0.00407166
0.0363182
0.00408049
0.0334639
0.00379399
0.0335336
0.00380211
0.0013297
0.00132882
0.00132968
0.00132879
0.00132325
0.00132247
0.00132319
0.00132241
0.00405772
0.0361874
0.00406652
0.0362618
0.00378189
0.033414
0.00378999
0.0334837
0.177922
0.247174
0.178161
0.247611
0.168766
0.234051
0.168991
0.234476
0.246276
0.177562
0.246756
0.177816
0.233175
0.168408
0.233642
0.168656
0.0361225
0.00405729
0.0362016
0.00406662
0.0333478
0.00378056
0.0334225
0.00378914
0.00132919
0.00132832
0.00132917
0.00132829
0.00132279
0.00132202
0.00132273
0.00132196
0.00404342
0.0360663
0.00405271
0.0361453
0.00376852
0.033298
0.00377706
0.0333727
0.17752
0.24637
0.177773
0.24685
0.168369
0.233258
0.168617
0.233725
0.245381
0.177124
0.245908
0.177398
0.232298
0.167971
0.232808
0.168238
0.0359911
0.00404235
0.0360757
0.00405215
0.0332218
0.00376659
0.0333019
0.00377567
0.0013287
0.00132783
0.00132869
0.00132782
0.00132235
0.00132159
0.0013223
0.00132153
0.00402857
0.0359351
0.00403831
0.0360196
0.00375462
0.0331722
0.00376366
0.0332522
0.177081
0.245474
0.177355
0.246002
0.167931
0.23238
0.168199
0.232891
0.244392
0.176643
0.244967
0.176939
0.231327
0.167495
0.231886
0.167783
0.0358495
0.00402616
0.0359396
0.00403648
0.0330856
0.00375136
0.0331713
0.00376093
0.00132815
0.00132729
0.00132815
0.00132728
0.00132187
0.00132111
0.00132182
0.00132106
0.00401245
0.0357937
0.00402273
0.0358837
0.00373946
0.0330361
0.00374899
0.0331217
0.1766
0.244485
0.176896
0.245061
0.167456
0.231409
0.167744
0.231968
0.243304
0.176117
0.243931
0.176437
0.230254
0.166973
0.230866
0.167286
0.0356971
0.00400939
0.035793
0.00402012
0.0329377
0.00373552
0.0330296
0.00374554
0.00132764
0.00132678
0.00132763
0.00132677
0.00132142
0.00132066
0.00132136
0.0013206
0.00399577
0.0356415
0.00400645
0.0357373
0.0037237
0.0328885
0.00373368
0.0329803
0.176074
0.243397
0.176394
0.244024
0.166934
0.230336
0.167247
0.230947
0.242112
0.175545
0.242792
0.175888
0.229077
0.166397
0.22974
0.166738
0.0355336
0.00399159
0.0356353
0.00400288
0.0327781
0.00371854
0.0328759
0.00372916
0.00132711
0.00132626
0.00132711
0.00132626
0.00132093
0.00132018
0.0013209
0.00132015
0.00397806
0.0354783
0.00398931
0.0355798
0.00370681
0.0327291
0.00371737
0.0328268
0.175502
0.242204
0.175846
0.242885
0.166358
0.229158
0.166699
0.229822
0.24081
0.174925
0.241546
0.175293
0.227795
0.165772
0.228511
0.166136
0.0353588
0.0039727
0.0354663
0.00398456
0.0326074
0.00370051
0.0327108
0.00371166
0.00132654
0.0013257
0.00132657
0.00132572
0.00132042
0.00131968
0.0013204
0.00131965
0.00395926
0.0353037
0.00397108
0.0354111
0.00368886
0.0325586
0.00369997
0.0326619
0.174883
0.240902
0.17525
0.241638
0.165733
0.227875
0.166097
0.228592
0.239395
0.174259
0.240187
0.174649
0.226402
0.165103
0.227175
0.16549
0.0351722
0.00395272
0.0352857
0.00396513
0.0324251
0.00368143
0.0325345
0.00369312
0.00132595
0.00132511
0.00132599
0.00132515
0.00131989
0.00131915
0.00131988
0.00131914
0.00393939
0.0351173
0.00395174
0.0352307
0.00366988
0.0323766
0.00368152
0.0324859
0.174216
0.239486
0.174607
0.240278
0.165064
0.226481
0.165451
0.227255
0.237869
0.173546
0.238717
0.17396
0.224893
0.164384
0.225724
0.164795
0.0349739
0.00393169
0.0350933
0.00394463
0.0322307
0.0036613
0.0323463
0.00367354
0.00132535
0.00132452
0.00132539
0.00132456
0.00131935
0.00131862
0.00131934
0.00131861
0.00391847
0.0349193
0.00393135
0.0350386
0.00364986
0.0321825
0.00366204
0.0322979
0.173503
0.237959
0.173918
0.238808
0.164345
0.224972
0.164756
0.225803
0.236224
0.172782
0.237132
0.173222
0.223268
0.163617
0.224157
0.164053
0.0347636
0.00390962
0.0348891
0.00392309
0.0320244
0.00364012
0.032146
0.00365289
0.00132474
0.00132391
0.00132479
0.00132396
0.0013188
0.00131808
0.0013188
0.00131807
0.00389651
0.0347094
0.00390993
0.0348347
0.00362879
0.0319765
0.0036415
0.032098
0.172739
0.236313
0.17318
0.237222
0.163578
0.223347
0.164014
0.224236
0.234459
0.171967
0.235427
0.172433
0.221527
0.1628
0.222474
0.163261
0.0345411
0.00388651
0.0346728
0.00390051
0.0318059
0.0036179
0.0319336
0.0036312
0.00132412
0.0013233
0.00132417
0.00132335
0.00131825
0.00131753
0.00131824
0.00131752
0.00387353
0.0344872
0.00388747
0.0346187
0.00360668
0.0317584
0.00361991
0.0318858
0.171924
0.234547
0.17239
0.235516
0.162761
0.221605
0.163222
0.222552
0.232576
0.171101
0.233603
0.171592
0.219671
0.161935
0.220675
0.162419
0.0343063
0.00386238
0.034444
0.0038769
0.0315756
0.00359468
0.0317091
0.00360847
0.0013235
0.00132269
0.00132355
0.00132274
0.00131769
0.00131698
0.00131768
0.00131697
0.00384954
0.0342527
0.00386398
0.0343904
0.00358358
0.0315283
0.0035973
0.0316617
0.171058
0.232664
0.171549
0.233691
0.161896
0.219748
0.16238
0.220752
0.230581
0.170187
0.231663
0.170702
0.217706
0.161023
0.218764
0.16153
0.0340599
0.00383732
0.0342033
0.00385227
0.0313338
0.00357051
0.0314728
0.00358475
0.00132288
0.00132208
0.00132293
0.00132212
0.00131713
0.00131643
0.00131712
0.00131642
0.0038246
0.0340068
0.00383949
0.03415
0.00355954
0.031287
0.00357371
0.0314258
0.170144
0.230668
0.170659
0.23175
0.160984
0.217782
0.161491
0.21884
0.22848
0.169227
0.229614
0.169764
0.21564
0.160067
0.216747
0.160596
0.0338027
0.00381139
0.0339513
0.00382676
0.0310816
0.0035455
0.0312256
0.00356013
0.00132227
0.00132149
0.00132231
0.00132152
0.00131658
0.00131589
0.00131657
0.00131587
0.00379882
0.0337499
0.00381411
0.0338984
0.00353466
0.0310351
0.00354922
0.031179
0.169184
0.228566
0.169721
0.2297
0.160028
0.215715
0.160557
0.216822
0.22628
0.168223
0.227462
0.168782
0.21348
0.159071
0.214632
0.159619
0.0335348
0.0037846
0.0336887
0.00380039
0.0308195
0.00351971
0.0309682
0.00353469
0.00132168
0.0013209
0.00132171
0.00132092
0.00131604
0.00131536
0.00131602
0.00131533
0.00377218
0.0334825
0.00378789
0.0336362
0.00350901
0.0307735
0.00352392
0.0309219
0.16818
0.226365
0.168739
0.227547
0.159032
0.213554
0.15958
0.214707
0.223993
0.167179
0.225217
0.167757
0.211238
0.158039
0.212429
0.158604
0.0332573
0.00375703
0.0334156
0.00377316
0.0305488
0.00349326
0.0307014
0.00350852
0.00132109
0.00132033
0.00132112
0.00132034
0.00131551
0.00131484
0.00131549
0.00131481
0.00374476
0.0332054
0.00376081
0.0333636
0.00348271
0.0305032
0.00349789
0.0306556
0.167137
0.224076
0.167715
0.225301
0.158
0.211311
0.158565
0.212503
0.221633
0.166103
0.222891
0.166696
0.20893
0.156977
0.210152
0.157556
0.0329719
0.00372889
0.0331337
0.00374524
0.0302714
0.00346633
0.0304269
0.00348177
0.00132053
0.00131977
0.00132054
0.00131977
0.001315
0.00131434
0.00131497
0.0013143
0.00371678
0.0329205
0.00373305
0.0330821
0.00345593
0.0302262
0.00347129
0.0303815
0.16606
0.221716
0.166654
0.222974
0.156938
0.209002
0.157517
0.210225
0.21922
0.165001
0.220502
0.165606
0.206572
0.155892
0.207816
0.156481
0.032681
0.00370042
0.0328451
0.00371687
0.0299892
0.00343914
0.0301466
0.00345465
0.00132
0.00131925
0.00131999
0.00131923
0.00131452
0.00131386
0.00131447
0.00131381
0.00368847
0.0326302
0.00370483
0.032794
0.00342888
0.0299444
0.00344431
0.0301017
0.164959
0.219301
0.165563
0.220584
0.155854
0.206643
0.156442
0.207888
0.216772
0.163883
0.218069
0.164495
0.204184
0.154794
0.205441
0.155389
0.0323868
0.00367182
0.0325521
0.00368827
0.0297043
0.00341187
0.0298626
0.00342735
0.0013195
0.00131876
0.00131947
0.00131872
0.00131405
0.00131341
0.00131399
0.00131334
0.00366002
0.0323364
0.00367639
0.0325015
0.00340176
0.0296601
0.00341716
0.0298181
0.163841
0.216852
0.164452
0.218149
0.154755
0.204254
0.15535
0.205511
0.21431
0.162757
0.215611
0.163371
0.201786
0.15369
0.203045
0.154286
0.0320914
0.00364328
0.0322568
0.00365963
0.0294191
0.00338473
0.0295771
0.00340007
0.00131903
0.0013183
0.00131898
0.00131824
0.00131361
0.00131298
0.00131353
0.00131289
0.00363165
0.0320415
0.00364791
0.0322067
0.00337478
0.0293753
0.00339004
0.0295331
0.162715
0.214389
0.163329
0.21569
0.153652
0.201855
0.154248
0.203114
0.211855
0.161632
0.213149
0.162244
0.199399
0.152591
0.20065
0.153183
0.0317971
0.00361504
0.0319614
0.00363116
0.0291357
0.00335794
0.0292923
0.00337304
0.0013186
0.00131788
0.00131853
0.0013178
0.0013132
0.00131257
0.0013131
0.00131247
0.00360358
0.0317477
0.00361961
0.0319118
0.00334814
0.0290925
0.00336315
0.0292488
0.16159
0.211933
0.162202
0.213228
0.152552
0.199467
0.153145
0.200718
0.209429
0.160517
0.210706
0.161123
0.197045
0.151504
0.198276
0.152088
0.0315065
0.00358734
0.0316685
0.00360311
0.0288567
0.00333172
0.0290105
0.00334646
0.00131821
0.00131749
0.00131811
0.0013174
0.00131281
0.00131219
0.0013127
0.00131208
0.00357603
0.0314576
0.00359172
0.0316194
0.00332207
0.0288139
0.00333672
0.0289675
0.160475
0.209506
0.161081
0.210783
0.151465
0.197112
0.15205
0.198344
0.207056
0.159424
0.208304
0.160017
0.194746
0.15044
0.195947
0.151012
0.0312222
0.00356039
0.0313805
0.00357571
0.0285844
0.0033063
0.0287344
0.00332056
0.00131785
0.00131715
0.00131774
0.00131703
0.00131244
0.00131183
0.00131232
0.0013117
0.00354924
0.0311738
0.00356448
0.0313319
0.00329679
0.0285421
0.00331098
0.0286918
0.159382
0.207132
0.159975
0.20838
0.150402
0.194812
0.150974
0.196014
0.204757
0.15836
0.205965
0.158937
0.192523
0.149408
0.193684
0.149963
0.0309465
0.00353442
0.0311
0.00354917
0.0283212
0.00328186
0.0284661
0.00329556
0.00131754
0.00131684
0.0013174
0.0013167
0.00131209
0.00131149
0.00131196
0.00131135
0.00352343
0.0308987
0.0035381
0.0310519
0.00327249
0.0282793
0.00328612
0.028424
0.158318