/*--------------------------------*- C++ -*----------------------------------*\
  =========                 |
  \\      /  F ield         | OpenFOAM: The Open Source CFD Toolbox
   \\    /   O peration     | Website:  https://openfoam.org
    \\  /    A nd           | Version:  9
     \\/     M anipulation  |
\*---------------------------------------------------------------------------*/
FoamFile
{
    format      ascii;
    class       volScalarField;
    location    "0.75";
    object      nut;
}
// * * * * * * * * * * * * * * * * * * * * * * * * * * * * * * * * * * * * * //

dimensions      [0 2 -1 0 0 0 0];

internalField   nonuniform List<scalar> 
36360
(
0.00097592
0.00080218
0.000429221
0.000401404
0.000250807
0.000199353
0.000190654
0.000174207
0.000271784
0.000160072
0.000194877
0.000159406
0.000147008
0.000139751
0.000162742
0.000162025
0.000148233
0.000148232
0.000158228
0.000158229
0.000139212
0.000139212
0.000161977
0.000161977
0.000160057
0.000271759
0.000159408
0.000194865
0.000139751
0.000147004
0.000162025
0.000162742
0.000802158
0.000976008
0.000401397
0.000429231
0.000199346
0.000250818
0.000174206
0.000190654
0.00151425
0.00122187
0.00132905
0.00107371
0.000335442
0.000260162
0.000308022
0.000239302
0.000493165
0.000189031
0.000409225
0.000178052
0.000150227
0.000124289
0.000147205
0.000128451
0.000155465
0.000155455
0.000151078
0.000151071
0.000122289
0.000122288
0.000127058
0.000127057
0.000188957
0.000492948
0.00017803
0.000409089
0.000124281
0.000150181
0.000128446
0.000147175
0.00122187
0.00151447
0.0010737
0.00132921
0.000260127
0.00033549
0.000239277
0.000308056
0.00162848
0.00131524
0.0015975
0.00128977
0.00034936
0.000273066
0.000345837
0.000269386
0.000546975
0.000198394
0.000532567
0.000196107
0.000153701
0.000122886
0.000152713
0.000123134
0.000157847
0.000157835
0.000157369
0.000157357
0.00012049
0.000120489
0.000120832
0.000120832
0.000198304
0.000546695
0.000196027
0.00053231
0.000122874
0.000153638
0.000123123
0.000152654
0.00131525
0.00162877
0.00128979
0.00159777
0.000273024
0.000349421
0.000269347
0.000345894
0.00163993
0.00132521
0.00163802
0.0013234
0.000350465
0.000274641
0.000350364
0.000274362
0.000552384
0.000199169
0.000551489
0.000199054
0.000154105
0.000122824
0.000154049
0.000122839
0.000157903
0.00015789
0.000157931
0.000157919
0.0001204
0.000120399
0.000120416
0.000120415
0.000199078
0.000552098
0.000198962
0.000551203
0.000122812
0.00015404
0.000122827
0.000153983
0.00132523
0.00164023
0.00132341
0.00163832
0.000274599
0.00035053
0.00027432
0.000350428
0.00163947
0.00132518
0.00163997
0.00132541
0.000350314
0.000274632
0.000350448
0.000274703
0.000552334
0.000199108
0.000552458
0.000199149
0.00015408
0.000122798
0.000154111
0.000122804
0.000157873
0.000157861
0.000157908
0.000157896
0.000120383
0.000120382
0.00012038
0.000120379
0.000199016
0.00055205
0.000199057
0.000552174
0.000122786
0.000154015
0.000122792
0.000154045
0.0013252
0.00163978
0.00132543
0.00164028
0.000274592
0.000350379
0.000274662
0.000350513
0.00163802
0.00132409
0.00163887
0.00132477
0.000350029
0.000274379
0.000350215
0.000274554
0.000551693
0.000198915
0.00055211
0.000199017
0.000153984
0.000122765
0.000154051
0.000122787
0.000157835
0.000157822
0.00015787
0.000157857
0.000120357
0.000120356
0.000120374
0.000120373
0.000198825
0.000551411
0.000198925
0.000551828
0.000122753
0.000153919
0.000122775
0.000153986
0.00132411
0.00163833
0.00132479
0.00163918
0.000274339
0.000350095
0.000274514
0.000350281
0.00163624
0.00132266
0.00163724
0.00132348
0.000349691
0.000274043
0.000349905
0.000274257
0.00055079
0.000198734
0.000551347
0.000198851
0.000153856
0.000122717
0.000153938
0.000122739
0.000157793
0.000157781
0.000157838
0.000157826
0.000120319
0.000120318
0.000120332
0.000120331
0.000198644
0.00055051
0.000198761
0.000551066
0.000122705
0.000153791
0.000122727
0.000153873
0.00132268
0.00163655
0.00132351
0.00163755
0.000274003
0.000349757
0.000274217
0.00034997
0.00163419
0.00132105
0.00163532
0.00132195
0.000349312
0.000273667
0.000349548
0.000273901
0.000549776
0.000198495
0.000550392
0.000198623
0.000153709
0.000122667
0.000153801
0.000122691
0.000157749
0.000157737
0.000157793
0.000157781
0.000120281
0.00012028
0.000120297
0.000120296
0.000198405
0.000549496
0.000198533
0.000550112
0.000122655
0.000153645
0.000122679
0.000153737
0.00132108
0.0016345
0.00132198
0.00163563
0.000273627
0.000349378
0.000273861
0.000349614
0.00163189
0.00131928
0.00163314
0.00132026
0.000348894
0.000273256
0.000349151
0.000273508
0.000548664
0.000198285
0.000549329
0.00019842
0.000153547
0.000122611
0.000153648
0.000122639
0.000157707
0.000157695
0.000157755
0.000157743
0.000120234
0.000120233
0.000120254
0.000120253
0.000198196
0.000548384
0.000198331
0.00054905
0.000122599
0.000153483
0.000122627
0.000153584
0.0013193
0.0016322
0.00132028
0.00163345
0.000273216
0.00034896
0.000273469
0.000349217
0.00162933
0.00131733
0.00163071
0.0013184
0.000348436
0.000272806
0.000348715
0.000273079
0.000547458
0.000198017
0.00054817
0.000198161
0.00015337
0.000122546
0.000153478
0.000122577
0.000157654
0.000157642
0.000157703
0.000157691
0.000120181
0.00012018
0.000120204
0.000120203
0.000197928
0.000547177
0.000198072
0.000547891
0.000122534
0.000153306
0.000122565
0.000153414
0.00131735
0.00162963
0.00131843
0.00163102
0.000272766
0.000348501
0.000273039
0.00034878
0.00162649
0.00131521
0.00162802
0.00131637
0.000347934
0.000272325
0.000348237
0.000272615
0.000546153
0.000197777
0.000546918
0.000197928
0.000153177
0.000122473
0.000153294
0.000122509
0.000157604
0.000157591
0.000157657
0.000157645
0.000120118
0.000120117
0.000120146
0.000120145
0.000197687
0.00054587
0.000197839
0.000546636
0.000122461
0.000153113
0.000122497
0.000153229
0.00131523
0.00162679
0.00131639
0.00162832
0.000272284
0.000347998
0.000272574
0.000348302
0.00162336
0.00131289
0.00162504
0.00131415
0.000347383
0.000271809
0.000347714
0.000272118
0.000544736
0.000197476
0.00054556
0.000197635
0.000152966
0.000122388
0.000153092
0.000122429
0.000157542
0.000157529
0.000157595
0.000157583
0.000120045
0.000120044
0.000120078
0.000120077
0.000197387
0.000544452
0.000197546
0.000545276
0.000122376
0.000152902
0.000122417
0.000153028
0.0013129
0.00162366
0.00131417
0.00162534
0.000271767
0.000347447
0.000272076
0.000347778
0.00161989
0.00131034
0.00162174
0.00131172
0.000346777
0.000271249
0.000347137
0.000271581
0.000543196
0.000197205
0.000544085
0.00019737
0.000152736
0.000122294
0.000152872
0.00012234
0.000157485
0.000157473
0.00015754
0.000157527
0.000119962
0.000119961
0.00012
0.000119999
0.000197117
0.000542912
0.000197281
0.000543801
0.000122282
0.000152672
0.000122328
0.000152808
0.00131036
0.00162019
0.00131174
0.00162204
0.000271207
0.000346841
0.000271539
0.000347201
0.00161607
0.00130756
0.0016181
0.00130906
0.000346113
0.000270643
0.000346503
0.000270998
0.000541521
0.000196886
0.000542479
0.000197071
0.000152485
0.000122186
0.000152632
0.000122239
0.000157416
0.000157404
0.000157478
0.000157466
0.000119866
0.000119865
0.000119911
0.00011991
0.000196798
0.000541237
0.000196983
0.000542196
0.000122174
0.000152421
0.000122227
0.000152568
0.00130757
0.00161637
0.00130907
0.0016184
0.000270601
0.000346176
0.000270956
0.000346566
0.00161188
0.00130452
0.0016141
0.00130615
0.000345386
0.000269993
0.000345808
0.00027037
0.000539701
0.000196539
0.000540734
0.000196738
0.000152213
0.000122064
0.000152371
0.000122124
0.000157339
0.000157327
0.000157404
0.000157392
0.000119757
0.000119756
0.000119808
0.000119807
0.000196452
0.000539417
0.000196651
0.000540451
0.000122052
0.000152149
0.000122112
0.000152307
0.00130454
0.00161217
0.00130616
0.00161439
0.000269952
0.000345449
0.000270328
0.00034587
0.00160728
0.00130122
0.00160971
0.00130298
0.000344591
0.000269304
0.000345047
0.000269699
0.000537721
0.000196162
0.000538838
0.000196377
0.000151918
0.000121927
0.000152087
0.000121994
0.000157253
0.000157242
0.000157323
0.000157311
0.000119634
0.000119633
0.000119692
0.000119691
0.000196076
0.000537438
0.00019629
0.000538555
0.000121915
0.000151855
0.000121983
0.000152024
0.00130124
0.00160758
0.00130299
0.00161
0.000269262
0.000344654
0.000269658
0.00034511
0.00160225
0.00129762
0.0016049
0.00129954
0.000343727
0.000268583
0.000344217
0.000268992
0.00053557
0.000195757
0.000536776
0.000195986
0.0001516
0.000121773
0.000151781
0.000121849
0.000157159
0.000157146
0.000157233
0.000157221
0.000119494
0.000119494
0.000119561
0.00011956
0.000195672
0.000535288
0.000195901
0.000536494
0.000121762
0.000151537
0.000121838
0.000151718
0.00129763
0.00160254
0.00129955
0.00160519
0.000268541
0.000343789
0.00026895
0.00034428
0.00159675
0.00129364
0.00159963
0.00129575
0.000342789
0.000267848
0.000343316
0.000268261
0.000533239
0.000195324
0.000534535
0.000195568
0.000151257
0.000121602
0.000151451
0.000121687
0.000157057
0.000157045
0.000157134
0.000157122
0.000119338
0.000119337
0.000119413
0.000119412
0.00019524
0.000532957
0.000195483
0.000534254
0.00012159
0.000151194
0.000121675
0.000151388
0.00129365
0.00159704
0.00129576
0.00159992
0.000267806
0.00034285
0.000268219
0.000343378
0.0015908
0.00128924
0.0015939
0.00129155
0.000341775
0.000267106
0.00034234
0.000267525
0.000530732
0.000194864
0.000532114
0.000195121
0.000150886
0.000121412
0.000151095
0.000121506
0.000156947
0.000156935
0.000157028
0.000157016
0.000119164
0.000119163
0.000119248
0.000119247
0.00019478
0.000530451
0.000195037
0.000531833
0.0001214
0.000150824
0.000121495
0.000151032
0.00128924
0.00159109
0.00129156
0.00159419
0.000267064
0.000341836
0.000267483
0.000342402
0.00158439
0.00128451
0.00158773
0.00128698
0.000340683
0.000266314
0.000341287
0.000266761
0.000528058
0.000194375
0.000529522
0.000194647
0.000150485
0.000121201
0.000150709
0.000121306
0.000156829
0.000156817
0.000156914
0.000156902
0.00011897
0.000118969
0.000119064
0.000119063
0.000194292
0.000527777
0.000194564
0.000529242
0.00012119
0.000150423
0.000121294
0.000150647
0.00128451
0.00158468
0.00128698
0.00158801
0.000266272
0.000340744
0.000266719
0.000341348
0.00157752
0.00127945
0.00158109
0.00128209
0.000339511
0.000265465
0.000340154
0.00026594
0.000525214
0.000193858
0.00052676
0.000194144
0.000150052
0.000120969
0.000150292
0.000121084
0.000156702
0.00015669
0.000156791
0.000156779
0.000118756
0.000118755
0.00011886
0.000118859
0.000193777
0.000524934
0.000194061
0.00052648
0.000120958
0.000149991
0.000121073
0.00015023
0.00127945
0.00157781
0.00128209
0.00158137
0.000265424
0.000339571
0.000265898
0.000340215
0.0015702
0.00127407
0.00157399
0.00127686
0.00033826
0.000264559
0.000338942
0.000265062
0.000522202
0.000193315
0.000523828
0.000193613
0.000149587
0.000120715
0.000149843
0.000120841
0.000156568
0.000156556
0.00015666
0.000156648
0.00011852
0.000118519
0.000118635
0.000118634
0.000193234
0.000521923
0.000193531
0.000523549
0.000120704
0.000149526
0.00012083
0.000149782
0.00127407
0.00157048
0.00127687
0.00157427
0.000264517
0.00033832
0.00026502
0.000339003
0.00156242
0.00126837
0.00156643
0.00127132
0.000336932
0.000263597
0.000337652
0.000264127
0.00051903
0.000192745
0.000520731
0.000193055
0.00014909
0.000120437
0.000149361
0.000120575
0.000156426
0.000156414
0.000156521
0.000156509
0.000118261
0.000118261
0.000118387
0.000118386
0.000192665
0.000518752
0.000192974
0.000520453
0.000120426
0.00014903
0.000120564
0.000149301
0.00126837
0.0015627
0.00127132
0.00156671
0.000263555
0.000336992
0.000264085
0.000337712
0.00155423
0.00126237
0.00155845
0.00126547
0.000335531
0.00026258
0.000336286
0.000263136
0.000515707
0.000192152
0.000517478
0.000192472
0.000148561
0.000120136
0.000148848
0.000120286
0.000156276
0.000156265
0.000156375
0.000156363
0.00011798
0.000117979
0.000118117
0.000118116
0.000192073
0.00051543
0.000192393
0.000517201
0.000120125
0.000148501
0.000120275
0.000148788
0.00126237
0.00155451
0.00126546
0.00155873
0.000262538
0.000335591
0.000263094
0.000336346
0.00154565
0.0012561
0.00155006
0.00125933
0.000334062
0.000261511
0.00033485
0.000262092
0.000512246
0.000191537
0.00051408
0.000191867
0.000148
0.00011981
0.000148302
0.000119972
0.000156121
0.000156109
0.000156222
0.00015621
0.000117675
0.000117674
0.000117824
0.000117823
0.00019146
0.00051197
0.000191788
0.000513804
0.000119799
0.000147941
0.000119961
0.000148242
0.00125609
0.00154592
0.00125932
0.00155033
0.000261469
0.000334121
0.00026205
0.000334909
0.00153671
0.00124957
0.00154129
0.00125292
0.000332532
0.000260395
0.000333348
0.000260998
0.000508665
0.000190904
0.000510552
0.000191241
0.000147409
0.00011946
0.000147726
0.000119634
0.00015596
0.000155949
0.000156063
0.000156051
0.000117345
0.000117345
0.000117507
0.000117506
0.000190828
0.000508389
0.000191164
0.000510277
0.000119449
0.00014735
0.000119623
0.000147667
0.00124956
0.00153698
0.00125291
0.00154156
0.000260353
0.00033259
0.000260956
0.000333406
0.00152748
0.00124283
0.0015322
0.00124628
0.000330949
0.000259237
0.00033179
0.00025986
0.000504985
0.000190257
0.000506914
0.000190599
0.00014679
0.000119085
0.00014712
0.000119271
0.000155795
0.000155784
0.000155899
0.000155887
0.000116992
0.000116991
0.000117165
0.000117164
0.000190182
0.000504711
0.000190523
0.00050664
0.000119075
0.000146731
0.000119261
0.000147061
0.00124281
0.00152775
0.00124626
0.00153247
0.000259195
0.000331007
0.000259818
0.000331848
0.00151802
0.00123593
0.00152285
0.00123945
0.000329326
0.000258045
0.000330185
0.000258683
0.000501233
0.0001896
0.000503191
0.000189946
0.000146144
0.000118687
0.000146487
0.000118885
0.000155628
0.000155616
0.000155731
0.00015572
0.000116615
0.000116615
0.0001168
0.000116799
0.000189526
0.00050096
0.000189871
0.000502918
0.000118677
0.000146087
0.000118874
0.000146429
0.00123591
0.00151828
0.00123943
0.00152311
0.000258003
0.000329383
0.000258641
0.000330242
0.0015084
0.00122891
0.0015133
0.00123248
0.000327675
0.000256825
0.000328546
0.000257475
0.000497439
0.000188938
0.00049941
0.000189284
0.000145476
0.000118265
0.000145829
0.000118474
0.00015546
0.000155448
0.000155561
0.000155549
0.000116215
0.000116214
0.000116411
0.00011641
0.000188865
0.000497167
0.000189211
0.000499138
0.000118255
0.000145419
0.000118464
0.000145771
0.00122889
0.00150866
0.00123247
0.00151356
0.000256783
0.000327731
0.000257433
0.000328602
0.0014987
0.00122185
0.00150363
0.00122544
0.000326009
0.000255587
0.000326885
0.000256244
0.000493633
0.000188276
0.000495602
0.000188621
0.000144787
0.000117821
0.000145149
0.000118041
0.000155291
0.00015528
0.000155389
0.000155377
0.000115793
0.000115792
0.000116
0.000115999
0.000188204
0.000493363
0.000188548
0.000495332
0.000117811
0.000144731
0.000118031
0.000145092
0.00122182
0.00149896
0.00122542
0.00150389
0.000255545
0.000326065
0.000256202
0.000326941
0.00148901
0.00121479
0.00149393
0.00121837
0.000324344
0.00025434
0.000325216
0.000255
0.000489848
0.000187619
0.000491799
0.000187959
0.000144082
0.000117357
0.000144451
0.000117586
0.000155123
0.000155112
0.000155216
0.000155205
0.000115349
0.000115348
0.000115566
0.000115565
0.000187548
0.000489578
0.000187888
0.000491529
0.000117347
0.000144026
0.000117577
0.000144395
0.00121476
0.00148927
0.00121834
0.00149419
0.000254298
0.000324399
0.000254958
0.000325272
0.00147941
0.0012078
0.00148428
0.00121134
0.000322693
0.000253093
0.000323556
0.000253751
0.000486117
0.000186972
0.000488033
0.000187305
0.000143365
0.000116872
0.000143739
0.000117112
0.000154956
0.000154945
0.000155045
0.000155034
0.000114885
0.000114885
0.000115112
0.000115111
0.000186902
0.000485849
0.000187235
0.000487765
0.000116863
0.00014331
0.000117102
0.000143684
0.00120777
0.00147967
0.00121131
0.00148454
0.000253051
0.000322748
0.000253709
0.00032361
0.00147
0.00120095
0.00147477
0.00120442
0.000321074
0.000251857
0.000321918
0.000252507
0.000482474
0.00018634
0.000484339
0.000186664
0.000142639
0.000116371
0.000143017
0.000116618
0.000154788
0.000154777
0.000154875
0.000154864
0.000114404
0.000114403
0.000114639
0.000114638
0.000186271
0.000482207
0.000186595
0.000484072
0.000116361
0.000142585
0.000116609
0.000142962
0.00120092
0.00147025
0.00120438
0.00147502
0.000251815
0.000321128
0.000252465
0.000321972
0.00146086
0.0011943
0.00146549
0.00119766
0.0003195
0.000250641
0.000320319
0.000251279
0.000478952
0.000185727
0.000480749
0.00018604
0.000141909
0.000115854
0.000142288
0.000116109
0.000154607
0.000154597
0.0001547
0.000154689
0.000113906
0.000113905
0.000114149
0.000114148
0.00018566
0.000478686
0.000185972
0.000480483
0.000115844
0.000141855
0.000116099
0.000142233
0.00119427
0.0014611
0.00119763
0.00146573
0.0002506
0.000319554
0.000251238
0.000320373
0.00145205
0.00118792
0.00145651
0.00119114
0.000317987
0.000249456
0.000318774
0.000250077
0.000475582
0.00018514
0.000477296
0.000185438
0.00014118
0.000115324
0.000141557
0.000115585
0.000154432
0.000154421
0.000154522
0.000154511
0.000113393
0.000113393
0.000113643
0.000113643
0.000185073
0.000475318
0.000185371
0.000477032
0.000115315
0.000141126
0.000115575
0.000141503
0.00118788
0.0014523
0.0011911
0.00145675
0.000249415
0.000318039
0.000250036
0.000318826
0.00144364
0.00118185
0.0014479
0.00118491
0.000316545
0.000248311
0.000317294
0.00024891
0.000472393
0.000184581
0.00047401
0.000184864
0.000140455
0.000114783
0.000140829
0.000115049
0.000154263
0.000154253
0.000154351
0.00015434
0.000112869
0.000112869
0.000113125
0.000113124
0.000184516
0.00047213
0.000184798
0.000473747
0.000114774
0.000140402
0.00011504
0.000140776
0.00118181
0.00144388
0.00118487
0.00144814
0.00024827
0.000316597
0.000248869
0.000317347
0.00143535
0.00117598
0.00143965
0.001179
0.000315176
0.000247211
0.000315891
0.000247788
0.000469374
0.000184053
0.000470916
0.00018432
0.000139739
0.000114234
0.000140107
0.000114503
0.000154102
0.000154092
0.000154187
0.000154177
0.000112336
0.000112335
0.000112596
0.000112595
0.000183988
0.000469112
0.000184255
0.000470654
0.000114225
0.000139686
0.000114494
0.000140055
0.00117593
0.00143559
0.00117896
0.00143989
0.00024717
0.000315227
0.000247747
0.000315942
0.00142339
0.00116702
0.0014306
0.00117259
0.000313669
0.000245963
0.000314519
0.000246681
0.000465479
0.000183478
0.000467804
0.000183793
0.000138998
0.000113678
0.000139391
0.000113951
0.000153947
0.000153937
0.00015403
0.000154019
0.000111795
0.000111794
0.000112058
0.000112057
0.000183414
0.000465219
0.000183729
0.000467543
0.000113669
0.000138946
0.000113942
0.000139338
0.00116697
0.00142362
0.00117254
0.00143083
0.000245921
0.00031372
0.00024664
0.000314571
0.00138814
0.00113048
0.00141108
0.00115587
0.000309962
0.000241741
0.000312466
0.000244741
0.000450416
0.000181817
0.000460741
0.000182906
0.000137516
0.000113061
0.000138491
0.000113387
0.000153764
0.000153754
0.000153862
0.000153852
0.00011123
0.000111229
0.000111517
0.000111516
0.000181754
0.000450157
0.000182843
0.000460483
0.000113052
0.000137465
0.000113378
0.000138439
0.00113042
0.00138837
0.00115582
0.00141131
0.000241699
0.00031001
0.000244699
0.000312516
0.00119848
0.000976962
0.0004821
0.000434076
0.00115281
0.000938613
0.000478144
0.000422762
0.000324711
0.000167113
0.000202825
0.000159045
0.000311518
0.000165482
0.000201318
0.000159142
0.000148177
0.000148174
0.000157948
0.000157949
0.000148131
0.000148129
0.000158119
0.00015812
0.000167074
0.000324656
0.00015905
0.000202816
0.000165446
0.000311476
0.000159146
0.000201303
0.000976941
0.00119862
0.000434059
0.000482124
0.000938591
0.00115293
0.000422745
0.000478163
0.00193146
0.00155777
0.00167363
0.00135152
0.00182707
0.00147524
0.00159212
0.00128658
0.000666295
0.000219326
0.000537004
0.000191436
0.00062456
0.000212711
0.000507367
0.000188021
0.000158827
0.000158811
0.00015274
0.000152732
0.000158448
0.000158433
0.000152538
0.000152529
0.000219211
0.000666005
0.000191394
0.000536811
0.000212602
0.00062429
0.000187994
0.000507191
0.00155782
0.0019318
0.00135153
0.00167388
0.00147527
0.00182737
0.00128658
0.00159234
0.00210123
0.00169336
0.00205245
0.00165468
0.0019786
0.00159689
0.00193569
0.00156265
0.0007514
0.000235776
0.000727815
0.000231082
0.00070023
0.000226672
0.000679523
0.00022268
0.000162138
0.000162122
0.000161429
0.000161413
0.000161638
0.000161623
0.000160965
0.00016095
0.000235605
0.000751036
0.000230927
0.000727474
0.000226521
0.000699887
0.000222544
0.000679206
0.00169344
0.00210166
0.00165475
0.00205285
0.00159695
0.00197898
0.0015627
0.00193604
0.00212292
0.00171029
0.00211832
0.00170678
0.00199678
0.0016113
0.00199312
0.00160843
0.000761195
0.000237648
0.000759366
0.000237326
0.000708544
0.000228195
0.000707062
0.000227949
0.000162301
0.000162284
0.000162302
0.000162285
0.000161782
0.000161766
0.000161786
0.00016177
0.000237472
0.000760824
0.00023715
0.000758995
0.000228038
0.000708193
0.000227792
0.000706712
0.00171038
0.00212338
0.00170687
0.00211878
0.00161136
0.00199718
0.00160849
0.00199352
0.00212371
0.00171092
0.00212391
0.00171105
0.0019971
0.00161165
0.0019974
0.00161182
0.000761453
0.000237642
0.000761574
0.000237681
0.000708712
0.000228185
0.000708834
0.00022822
0.000162292
0.000162276
0.00016232
0.000162304
0.000161774
0.000161758
0.0001618
0.000161785
0.000237465
0.000761081
0.000237505
0.000761203
0.000228029
0.000708363
0.000228064
0.000708484
0.00171101
0.00212418
0.00171114
0.00212438
0.00161172
0.00199751
0.00161189
0.0019978
0.00212207
0.00170966
0.00212318
0.00171051
0.00199548
0.00161043
0.00199653
0.00161123
0.000760577
0.000237361
0.000761163
0.000237531
0.000707911
0.000227938
0.00070844
0.000228085
0.000162264
0.000162247
0.0001623
0.000162283
0.000161745
0.000161729
0.00016178
0.000161764
0.000237184
0.000760204
0.000237354
0.000760792
0.000227783
0.000707564
0.00022793
0.000708092
0.00170975
0.00212254
0.0017106
0.00212365
0.0016105
0.00199589
0.00161129
0.00199694
0.00211972
0.00170777
0.00212108
0.00170888
0.00199331
0.00160869
0.00199455
0.0016097
0.000759285
0.000237047
0.000760074
0.000237242
0.000706736
0.000227664
0.000707453
0.000227836
0.000162241
0.000162224
0.000162278
0.000162262
0.000161722
0.000161707
0.00016176
0.000161745
0.000236871
0.000758911
0.000237066
0.000759701
0.000227509
0.000706389
0.000227681
0.000707106
0.00170785
0.00212019
0.00170897
0.00212155
0.00160876
0.00199372
0.00160977
0.00199495
0.00211704
0.00170563
0.00211854
0.00170684
0.00199083
0.00160673
0.00199221
0.00160784
0.000757861
0.000236673
0.000758716
0.000236889
0.000705434
0.000227328
0.000706217
0.000227519
0.00016221
0.000162193
0.000162246
0.000162229
0.000161692
0.000161676
0.000161729
0.000161713
0.000236497
0.000757485
0.000236714
0.000758342
0.000227174
0.000705087
0.000227365
0.000705871
0.00170571
0.0021175
0.00170693
0.00211901
0.0016068
0.00199123
0.00160791
0.00199262
0.00211408
0.00170329
0.00211571
0.00170459
0.00198806
0.00160459
0.00198958
0.00160578
0.000756335
0.000236328
0.000757237
0.000236544
0.000704029
0.000227021
0.000704861
0.000227215
0.000162186
0.000162169
0.000162224
0.000162208
0.000161669
0.000161653
0.000161707
0.000161692
0.000236153
0.000755958
0.000236369
0.000756862
0.000226869
0.000703681
0.000227062
0.000704515
0.00170337
0.00211454
0.00170467
0.00211617
0.00160465
0.00198847
0.00160584
0.00198999
0.00211087
0.00170078
0.00211262
0.00170215
0.00198503
0.00160227
0.00198668
0.00160354
0.000754717
0.000235925
0.000755662
0.000236156
0.000702526
0.000226657
0.000703405
0.000226864
0.000162154
0.000162137
0.000162191
0.000162175
0.000161637
0.000161621
0.000161675
0.000161659
0.000235751
0.000754339
0.000235981
0.000755287
0.000226505
0.000702177
0.000226711
0.000703058
0.00170086
0.00211133
0.00170223
0.00211308
0.00160233
0.00198543
0.0016036
0.00198709
0.00210738
0.00169809
0.00210927
0.00169956
0.0019817
0.00159975
0.0019835
0.00160112
0.000752998
0.00023555
0.000753994
0.000235781
0.000700917
0.000226321
0.00070185
0.000226529
0.000162129
0.000162113
0.000162168
0.000162152
0.000161612
0.000161596
0.000161652
0.000161636
0.000235376
0.00075262
0.000235607
0.000753617
0.000226169
0.000700566
0.000226377
0.000701501
0.00169817
0.00210783
0.00169964
0.00210973
0.00159981
0.0019821
0.00160118
0.00198391
0.00210359
0.00169521
0.00210564
0.00169677
0.00197805
0.00159701
0.00198002
0.0015985
0.000751165
0.000235115
0.000752218
0.000235363
0.000699188
0.000225925
0.000700183
0.000226148
0.000162096
0.00016208
0.000162135
0.000162118
0.000161578
0.000161563
0.000161618
0.000161602
0.000234942
0.000750786
0.000235189
0.000751841
0.000225773
0.000698836
0.000225996
0.000699832
0.00169528
0.00210404
0.00169685
0.0021061
0.00159706
0.00197845
0.00159856
0.00198042
0.00209945
0.00169209
0.00210169
0.00169378
0.00197406
0.00159402
0.00197621
0.00159564
0.000749204
0.0002347
0.000750323
0.000234951
0.000697328
0.00022555
0.000698392
0.000225777
0.000162071
0.000162054
0.00016211
0.000162093
0.000161552
0.000161537
0.000161593
0.000161577
0.000234529
0.000748826
0.000234779
0.000749947
0.000225399
0.000696976
0.000225626
0.000698041
0.00169216
0.0020999
0.00169386
0.00210214
0.00159407
0.00197445
0.00159569
0.0019766
0.00209494
0.00168871
0.00209737
0.00169054
0.00196969
0.00159077
0.00197203
0.00159252
0.000747104
0.000234226
0.000748294
0.000234493
0.000695322
0.000225115
0.000696461
0.000225358
0.000162037
0.00016202
0.000162075
0.000162059
0.000161518
0.000161503
0.000161558
0.000161543
0.000234055
0.000746726
0.000234322
0.000747917
0.000224966
0.000694971
0.000225208
0.00069611
0.00168878
0.00209539
0.00169061
0.00209783
0.00159082
0.00197008
0.00159257
0.00197243
0.00209003
0.00168505
0.00209267
0.00168702
0.0019649
0.00158723
0.00196747
0.00158913
0.000744859
0.000233775
0.000746123
0.000234038
0.000693162
0.000224704
0.00069438
0.000224946
0.000162013
0.000161997
0.000162049
0.000162032
0.000161494
0.000161479
0.000161532
0.000161516
0.000233605
0.000744482
0.000233868
0.000745746
0.000224555
0.000692811
0.000224798
0.000694029
0.00168512
0.00209048
0.0016871
0.00209313
0.00158728
0.00196529
0.00158918
0.00196786
0.00208471
0.00168109
0.00208757
0.00168322
0.00195968
0.00158335
0.00196246
0.00158543
0.000742463
0.000233294
0.000743803
0.000233575
0.000690838
0.00022425
0.000692137
0.000224516
0.00016199
0.000161973
0.000162027
0.000162011
0.000161465
0.00016145
0.000161507
0.000161491
0.000233125
0.000742086
0.000233406
0.000743426
0.000224103
0.000690487
0.000224368
0.000691786
0.00168116
0.00208516
0.00168329
0.00208802
0.0015834
0.00196007
0.00158548
0.00196285
0.00207894
0.00167681
0.00208202
0.0016791
0.00195401
0.00157914
0.00195702
0.00158138
0.000739906
0.000232776
0.000741325
0.000233076
0.00068835
0.000223762
0.000689729
0.000224043
0.000161962
0.000161946
0.000162001
0.000161985
0.000161432
0.000161416
0.000161475
0.000161459
0.000232609
0.000739529
0.000232909
0.000740948
0.000223616
0.000687999
0.000223897
0.000689379
0.00167688
0.00207939
0.00167916
0.00208247
0.00157919
0.0019544
0.00158142
0.00195741
0.00207271
0.00167222
0.00207602
0.00167466
0.00194789
0.00157461
0.00195113
0.00157701
0.000737183
0.000232228
0.000738683
0.000232542
0.000685691
0.000223246
0.000687156
0.000223541
0.000161931
0.000161915
0.000161971
0.000161955
0.000161395
0.00016138
0.000161439
0.000161424
0.000232062
0.000736805
0.000232375
0.000738306
0.000223101
0.00068534
0.000223395
0.000686805
0.00167228
0.00207315
0.00167472
0.00207647
0.00157466
0.00194827
0.00157706
0.00195151
0.00206602
0.0016673
0.00206957
0.0016699
0.00194128
0.00156974
0.00194476
0.00157231
0.000734289
0.000231654
0.000735872
0.00023198
0.000682856
0.000222704
0.000684408
0.000223011
0.000161899
0.000161883
0.000161939
0.000161923
0.000161357
0.000161342
0.000161402
0.000161387
0.000231488
0.00073391
0.000231814
0.000735495
0.00022256
0.000682504
0.000222867
0.000684058
0.00166736
0.00206646
0.00166997
0.00207001
0.00156978
0.00194167
0.00157235
0.00194515
0.00205884
0.00166203
0.00206264
0.00166481
0.00193419
0.00156453
0.00193792
0.00156727
0.000731219
0.000231053
0.000732889
0.000231391
0.00067984
0.000222134
0.000681482
0.000222455
0.000161867
0.00016185
0.000161907
0.000161891
0.000161318
0.000161303
0.000161364
0.000161349
0.000230889
0.000730841
0.000231227
0.000732512
0.000221991
0.000679489
0.000222311
0.000681131
0.00166209
0.00205928
0.00166487
0.00206308
0.00156457
0.00193457
0.00156731
0.0019383
0.00205115
0.00165641
0.00205521
0.00165937
0.0019266
0.00155896
0.00193058
0.00156188
0.000727972
0.000230427
0.00072973
0.000230777
0.000676643
0.000221538
0.000678374
0.000221871
0.000161834
0.000161818
0.000161875
0.000161858
0.000161278
0.000161263
0.000161324
0.000161309
0.000230264
0.000727593
0.000230614
0.000729352
0.000221396
0.000676292
0.000221729
0.000678024
0.00165647
0.00205159
0.00165943
0.00205564
0.001559
0.00192697
0.00156192
0.00193095
0.00204297
0.00165044
0.00204728
0.00165357
0.00191851
0.00155304
0.00192273
0.00155613
0.000724544
0.000229775
0.00072639
0.000230138
0.000673265
0.000220916
0.000675083
0.000221261
0.000161802
0.000161785
0.000161842
0.000161826
0.000161237
0.000161222
0.000161284
0.000161269
0.000229614
0.000724165
0.000229976
0.000726012
0.000220775
0.000672914
0.00022112
0.000674733
0.00165049
0.0020434
0.00165363
0.00204771
0.00155308
0.00191888
0.00155617
0.00192311
0.0020343
0.00164412
0.00203885
0.00164743
0.00190993
0.00154679
0.0019144
0.00155005
0.000720944
0.0002291
0.000722873
0.000229473
0.000669712
0.000220269
0.000671613
0.000220625
0.00016177
0.000161753
0.00016181
0.000161794
0.000161195
0.00016118
0.000161243
0.000161228
0.00022894
0.000720564
0.000229312
0.000722495
0.00022013
0.000669361
0.000220486
0.000671263
0.00164417
0.00203472
0.00164748
0.00203928
0.00154682
0.0019103
0.00155008
0.00191477
0.00202515
0.00163746
0.00202994
0.00164094
0.00190089
0.0015402
0.00190559
0.00154362
0.000717177
0.000228403
0.000719185
0.000228785
0.000665994
0.0002196
0.000667973
0.000219966
0.000161739
0.000161722
0.000161779
0.000161763
0.000161153
0.000161138
0.000161201
0.000161186
0.000228244
0.000716797
0.000228626
0.000718806
0.000219463
0.000665643
0.000219828
0.000667623
0.00163751
0.00202557
0.00164099
0.00203037
0.00154023
0.00190126
0.00154365
0.00190596
0.00201556
0.00163049
0.00202057