/*--------------------------------*- C++ -*----------------------------------*\
  =========                 |
  \\      /  F ield         | OpenFOAM: The Open Source CFD Toolbox
   \\    /   O peration     | Website:  https://openfoam.org
    \\  /    A nd           | Version:  9
     \\/     M anipulation  |
\*---------------------------------------------------------------------------*/
FoamFile
{
    format      ascii;
    class       volVectorField;
    location    "0.75";
    object      U;
}
// * * * * * * * * * * * * * * * * * * * * * * * * * * * * * * * * * * * * * //

dimensions      [0 1 -1 0 0 0 0];

internalField   nonuniform List<vector> 
36360
(
(0.000978166 -0.121464 -0.500431)
(-0.00182538 -0.103037 7.60274e-05)
(0.000194919 -0.123302 -0.501796)
(-0.00324098 -0.0964732 3.19528e-05)
(-0.00188246 -0.111596 -0.501104)
(0.00880022 -0.107427 2.51124e-05)
(-0.000641098 -0.112019 -0.50217)
(0.0105782 -0.11272 2.10849e-05)
(-0.00140713 -0.111465 -4.36122e-05)
(-0.00139755 -0.112778 -1.4249e-06)
(-0.00219194 -0.109314 -2.2824e-05)
(-0.00191864 -0.110667 -1.84989e-07)
(0.00391946 -0.111166 -1.69333e-05)
(0.0032192 -0.109816 -2.15981e-06)
(0.00586146 -0.113944 -2.17117e-05)
(0.00535152 -0.112298 -1.28666e-06)
(-0.00138366 -0.112738 1.16787e-07)
(-0.00138366 -0.112737 -1.15677e-07)
(-0.00188479 -0.110644 6.1984e-08)
(-0.00188479 -0.110643 -6.16426e-08)
(0.00316525 -0.109491 -2.64258e-08)
(0.00316525 -0.10949 2.71692e-08)
(0.00530306 -0.111957 -3.73257e-08)
(0.00530305 -0.111956 3.74779e-08)
(-0.00139756 -0.112776 1.42677e-06)
(-0.00140716 -0.111462 4.36064e-05)
(-0.00191863 -0.110665 1.85598e-07)
(-0.00219193 -0.109311 2.28232e-05)
(0.00321922 -0.109814 2.16094e-06)
(0.00391941 -0.111163 1.69329e-05)
(0.0053515 -0.112295 1.28701e-06)
(0.00586143 -0.113941 2.17106e-05)
(-0.00182581 -0.103033 -7.60353e-05)
(0.000978163 -0.121462 0.500431)
(-0.00324128 -0.0964694 -3.19546e-05)
(0.000194663 -0.123299 0.501796)
(0.00880005 -0.107427 -2.51123e-05)
(-0.0018823 -0.111594 0.501104)
(0.0105777 -0.112718 -2.10853e-05)
(-0.000641243 -0.112017 0.50217)
(0.00131178 -0.118774 -0.5)
(-0.00198698 -0.10795 9.40505e-05)
(0.00117644 -0.120112 -0.500315)
(-0.00148162 -0.106042 9.23278e-05)
(-0.00194389 -0.113927 -0.501777)
(0.00316394 -0.101084 1.16312e-05)
(-0.00215316 -0.112958 -0.501395)
(0.00590259 -0.102146 1.87861e-05)
(-0.000136077 -0.112578 -3.75899e-05)
(-0.000206189 -0.113853 -5.07773e-06)
(-0.000367945 -0.112464 -4.35534e-05)
(-0.00046969 -0.113863 -3.27183e-06)
(0.00128677 -0.108666 5.35081e-06)
(0.000423877 -0.10849 -4.58057e-06)
(0.00236465 -0.109109 -6.60397e-06)
(0.00145139 -0.108439 -3.37113e-06)
(-0.00017835 -0.113823 -1.08736e-07)
(-0.000178352 -0.113822 1.11682e-07)
(-0.000454156 -0.113838 4.18081e-08)
(-0.000454161 -0.113838 -3.97527e-08)
(0.000346046 -0.108259 -1.71956e-07)
(0.000346046 -0.108258 1.74588e-07)
(0.00137707 -0.108168 -8.16964e-08)
(0.00137707 -0.108167 8.33972e-08)
(-0.000206189 -0.113851 5.082e-06)
(-0.000136247 -0.112575 3.75738e-05)
(-0.00046971 -0.11386 3.27509e-06)
(-0.000368103 -0.112461 4.35411e-05)
(0.00042388 -0.108487 4.58376e-06)
(0.00128689 -0.108662 -5.3519e-06)
(0.00145139 -0.108437 3.37319e-06)
(0.00236462 -0.109106 6.6031e-06)
(-0.00198776 -0.107946 -9.40661e-05)
(0.00131183 -0.118772 0.5)
(-0.00148237 -0.106038 -9.2341e-05)
(0.00117634 -0.12011 0.500315)
(0.00316578 -0.101083 -1.16323e-05)
(-0.00194341 -0.113924 0.501777)
(0.00590371 -0.102146 -1.87873e-05)
(-0.00215313 -0.112955 0.501395)
(0.0018737 -0.117086 -0.499772)
(-0.00271412 -0.10963 7.97074e-05)
(0.00158854 -0.117769 -0.499836)
(-0.00245126 -0.109022 8.8657e-05)
(-0.000934975 -0.113926 -0.501736)
(0.00102906 -0.1015 -7.91604e-06)
(-0.00143727 -0.114087 -0.501747)
(0.00165299 -0.101046 2.31456e-06)
(2.16032e-06 -0.11241 -1.66458e-05)
(-1.04468e-05 -0.113636 -6.42662e-06)
(-6.04393e-05 -0.112521 -2.80183e-05)
(-8.69629e-05 -0.113734 -6.11458e-06)
(0.00062245 -0.108073 3.1614e-05)
(-2.10339e-05 -0.108542 -5.36437e-06)
(0.000776312 -0.108328 1.86564e-05)
(3.54406e-05 -0.108545 -5.21828e-06)
(2.018e-05 -0.113627 -3.56604e-07)
(2.01846e-05 -0.113626 3.61314e-07)
(-5.44111e-05 -0.113707 -2.49374e-07)
(-5.44089e-05 -0.113706 2.53403e-07)
(-8.31144e-05 -0.108391 -3.45236e-07)
(-8.31145e-05 -0.108391 3.49581e-07)
(-3.45159e-05 -0.108356 -2.6024e-07)
(-3.45165e-05 -0.108355 2.63826e-07)
(-1.04277e-05 -0.113633 6.43187e-06)
(1.97597e-06 -0.112407 1.66251e-05)
(-8.69502e-05 -0.113731 6.1195e-06)
(-6.0635e-05 -0.112518 2.79998e-05)
(-2.10379e-05 -0.10854 5.36922e-06)
(0.000622613 -0.108069 -3.16165e-05)
(3.54441e-05 -0.108543 5.22248e-06)
(0.00077647 -0.108325 -1.8658e-05)
(-0.00271506 -0.109627 -7.97222e-05)
(0.00187371 -0.117083 0.499771)
(-0.00245212 -0.109019 -8.86728e-05)
(0.00158861 -0.117766 0.499836)
(0.00103073 -0.101497 7.91689e-06)
(-0.000934779 -0.113923 0.501736)
(0.0016547 -0.101044 -2.31475e-06)
(-0.00143692 -0.114085 0.501747)
(0.00223217 -0.116096 -0.499716)
(-0.00289233 -0.11042 6.05129e-05)
(0.00209393 -0.116555 -0.499728)
(-0.00284396 -0.110063 6.99334e-05)
(-0.000459677 -0.113046 -0.501726)
(0.000742437 -0.102841 -2.7598e-05)
(-0.000608707 -0.113563 -0.501728)
(0.000800393 -0.102158 -1.8076e-05)
(6.99442e-05 -0.112193 4.51774e-06)
(6.29629e-05 -0.11342 -5.60043e-06)
(4.43966e-05 -0.112296 -5.49295e-06)
(3.38793e-05 -0.113532 -6.20422e-06)
(0.000605549 -0.107691 5.35965e-05)
(4.00922e-05 -0.108474 -4.52424e-06)
(0.00060028 -0.107868 4.33433e-05)
(-3.3332e-06 -0.108528 -5.10944e-06)
(8.07716e-05 -0.113464 -4.49431e-07)
(8.07775e-05 -0.113464 4.56604e-07)
(5.94345e-05 -0.113551 -4.23148e-07)
(5.94399e-05 -0.11355 4.2831e-07)
(-1.48743e-05 -0.108384 -4.37016e-07)
(-1.48739e-05 -0.108383 4.42838e-07)
(-6.22417e-05 -0.108403 -4.12646e-07)
(-6.22424e-05 -0.108402 4.17598e-07)
(6.29657e-05 -0.113418 5.60164e-06)
(6.97221e-05 -0.112191 -4.54629e-06)
(3.38915e-05 -0.11353 6.20883e-06)
(4.41916e-05 -0.112293 5.46961e-06)
(4.00677e-05 -0.108472 4.52925e-06)
(0.000605668 -0.107688 -5.36026e-05)
(-3.34565e-06 -0.108526 5.11454e-06)
(0.000600418 -0.107865 -4.33472e-05)
(-0.00289344 -0.110417 -6.05261e-05)
(0.00223212 -0.116093 0.499715)
(-0.00284502 -0.110061 -6.99477e-05)
(0.0020939 -0.116552 0.499727)
(0.000743663 -0.102838 2.76004e-05)
(-0.000459591 -0.113043 0.501726)
(0.000801796 -0.102156 1.80777e-05)
(-0.000608568 -0.11356 0.501728)
(0.00236867 -0.115287 -0.499682)
(-0.00287872 -0.110939 4.39539e-05)
(0.00231852 -0.115678 -0.49969)
(-0.00289874 -0.11071 5.1809e-05)
(-0.000385612 -0.111885 -0.501721)
(0.000762197 -0.104005 -4.41798e-05)
(-0.000395481 -0.112465 -0.501722)
(0.000739076 -0.103465 -3.63013e-05)
(9.21258e-05 -0.112026 2.05026e-05)
(0.000104326 -0.113199 -3.51076e-06)
(8.27806e-05 -0.112104 1.31219e-05)
(8.47018e-05 -0.113312 -4.65953e-06)
(0.00060087 -0.107384 6.98791e-05)
(8.59739e-05 -0.10828 -2.57979e-06)
(0.000604939 -0.107531 6.23853e-05)
(6.97784e-05 -0.108386 -3.65845e-06)
(0.000114969 -0.113287 -4.07526e-07)
(0.000114972 -0.113286 4.08389e-07)
(9.79174e-05 -0.113378 -4.44411e-07)
(9.79328e-05 -0.113377 4.61466e-07)
(3.60019e-05 -0.108253 -3.74442e-07)
(3.60043e-05 -0.108252 3.84633e-07)
(1.80035e-05 -0.108329 -4.26075e-07)
(1.80069e-05 -0.108329 4.34166e-07)
(0.000104279 -0.113197 3.53346e-06)
(9.19861e-05 -0.112023 -2.05105e-05)
(8.47363e-05 -0.11331 4.65082e-06)
(8.25472e-05 -0.112101 -1.31625e-05)
(8.5942e-05 -0.108277 2.59238e-06)
(0.000600965 -0.107381 -6.98823e-05)
(6.97537e-05 -0.108384 3.66379e-06)
(0.000605032 -0.107528 -6.23931e-05)
(-0.0028798 -0.110936 -4.39674e-05)
(0.00236873 -0.115284 0.499682)
(-0.00289986 -0.110708 -5.18164e-05)
(0.00231852 -0.115676 0.499689)
(0.000763422 -0.104003 4.41867e-05)
(-0.000385443 -0.111881 0.501721)
(0.000740353 -0.103462 3.63052e-05)
(-0.000395329 -0.112463 0.501721)
(0.00242317 -0.114561 -0.49965)
(-0.0027976 -0.111229 3.05882e-05)
(0.0024014 -0.114915 -0.499657)
(-0.00284317 -0.11111 3.69101e-05)
(-0.000404088 -0.110803 -0.501715)
(0.000810502 -0.104819 -5.76139e-05)
(-0.000387224 -0.111328 -0.501716)
(0.000785687 -0.104455 -5.12619e-05)
(0.000108262 -0.111873 3.21377e-05)
(0.000144359 -0.112943 -9.07298e-07)
(9.92682e-05 -0.111951 2.6776e-05)
(0.000123959 -0.113077 -2.25411e-06)
(0.000596556 -0.107127 8.16352e-05)
(0.000106323 -0.108024 -6.09028e-08)
(0.000596824 -0.107251 7.62348e-05)
(9.69699e-05 -0.108158 -1.3657e-06)
(0.000152844 -0.11307 -1.7971e-07)
(0.000152859 -0.113069 1.93418e-07)
(0.000133255 -0.113185 -3.10706e-07)
(0.00013327 -0.113184 3.23496e-07)
(5.65338e-05 -0.108051 -1.60131e-07)
(5.65357e-05 -0.10805 1.73609e-07)
(4.7471e-05 -0.108159 -2.84112e-07)
(4.7473e-05 -0.108158 2.96242e-07)
(0.000144342 -0.112941 9.17227e-07)
(0.000108079 -0.11187 -3.21607e-05)
(0.000123947 -0.113075 2.26378e-06)
(9.90805e-05 -0.111948 -2.67977e-05)
(0.000106294 -0.108022 7.14017e-08)
(0.000596661 -0.107124 -8.1639e-05)
(9.69416e-05 -0.108156 1.37602e-06)
(0.000596924 -0.107248 -7.62379e-05)
(-0.00279873 -0.111227 -3.05946e-05)
(0.00242317 -0.114558 0.49965)
(-0.00284431 -0.111108 -3.69165e-05)
(0.00240139 -0.114913 0.499656)
(0.00081164 -0.104817 5.76238e-05)
(-0.000403968 -0.1108 0.501715)
(0.000786866 -0.104453 5.1271e-05)
(-0.000387072 -0.111325 0.501716)
(0.00246103 -0.113884 -0.499616)
(-0.00269399 -0.111332 1.98763e-05)
(0.00244391 -0.114218 -0.499623)
(-0.00274754 -0.111302 2.49333e-05)
(-0.000431603 -0.10984 -0.501709)
(0.000847761 -0.10532 -6.83597e-05)
(-0.000413661 -0.110308 -0.50171)
(0.00082844 -0.105105 -6.32896e-05)
(0.000129494 -0.111692 4.0618e-05)
(0.000185981 -0.112642 1.92086e-06)
(0.000117407 -0.111788 3.67083e-05)
(0.000164844 -0.112798 4.93282e-07)
(0.000602926 -0.106883 9.00989e-05)
(0.000123579 -0.10772 2.70993e-06)
(0.000598203 -0.107005 8.62084e-05)
(0.00011502 -0.107878 1.3095e-06)
(0.000195662 -0.1128 1.97862e-07)
(0.000195679 -0.112799 -1.81608e-07)
(0.000173686 -0.112942 -1.00666e-08)
(0.000173703 -0.112941 2.49186e-08)
(7.37388e-05 -0.107791 2.25207e-07)
(7.37413e-05 -0.10779 -2.08935e-07)
(6.52123e-05 -0.107928 1.53974e-08)
(6.52152e-05 -0.107927 -6.33483e-10)
(0.000185956 -0.11264 -1.9101e-06)
(0.000129329 -0.11169 -4.06413e-05)
(0.000164822 -0.112797 -4.83045e-07)
(0.00011723 -0.111785 -3.67317e-05)
(0.000123553 -0.107718 -2.69844e-06)
(0.000603071 -0.10688 -9.0103e-05)
(0.000114991 -0.107876 -1.29862e-06)
(0.000598327 -0.107003 -8.62125e-05)
(-0.00269508 -0.111329 -1.98811e-05)
(0.00246108 -0.113881 0.499615)
(-0.00274867 -0.1113 -2.4939e-05)
(0.00244391 -0.114215 0.499622)
(0.000848943 -0.105318 6.83711e-05)
(-0.000431417 -0.109838 0.501709)
(0.000829591 -0.105103 6.33002e-05)
(-0.000413508 -0.110305 0.50171)
(0.00250104 -0.113229 -0.499581)
(-0.00258753 -0.111274 1.13368e-05)
(0.00248144 -0.113555 -0.499589)
(-0.00264097 -0.111321 1.53636e-05)
(-0.000453928 -0.108967 -0.501703)
(0.000877814 -0.105565 -7.6899e-05)
(-0.000439198 -0.109394 -0.501704)
(0.000861595 -0.105471 -7.28765e-05)
(0.00015844 -0.11146 4.68507e-05)
(0.000231118 -0.112291 4.78477e-06)
(0.000142216 -0.111584 4.39683e-05)
(0.000207859 -0.112473 3.3552e-06)
(0.000617447 -0.106617 9.62437e-05)
(0.000141579 -0.107368 5.52961e-06)
(0.000608891 -0.106754 9.34104e-05)
(0.00013235 -0.10755 4.12152e-06)
(0.0002433 -0.112471 7.23592e-07)
(0.000243318 -0.11247 -7.04085e-07)
(0.000218818 -0.112643 4.40975e-07)
(0.000218836 -0.112642 -4.23132e-07)
(9.11993e-05 -0.107472 7.4899e-07)
(9.12012e-05 -0.107471 -7.28929e-07)
(8.23239e-05 -0.107639 4.69616e-07)
(8.23267e-05 -0.107638 -4.51644e-07)
(0.000231088 -0.112289 -4.77195e-06)
(0.000158267 -0.111458 -4.68736e-05)
(0.000207828 -0.112471 -3.34365e-06)
(0.000142043 -0.111581 -4.39914e-05)
(0.000141555 -0.107366 -5.51554e-06)
(0.000617607 -0.106615 -9.62477e-05)
(0.000132325 -0.107548 -4.10911e-06)
(0.000609043 -0.106752 -9.34142e-05)
(-0.00258862 -0.111271 -1.13397e-05)
(0.00250108 -0.113226 0.499581)
(-0.00264207 -0.111319 -1.53674e-05)
(0.00248148 -0.113552 0.499588)
(0.000878989 -0.105563 7.69116e-05)
(-0.000453783 -0.108964 0.501703)
(0.000862752 -0.105469 7.28887e-05)
(-0.000439022 -0.109391 0.501704)
(0.00254897 -0.112573 -0.499545)
(-0.00248397 -0.111077 4.57204e-06)
(0.00252487 -0.112902 -0.499553)
(-0.00253632 -0.111191 7.75673e-06)
(-0.000469137 -0.108146 -0.501697)
(0.000901534 -0.105603 -8.35225e-05)
(-0.000458006 -0.108551 -0.501698)
(0.000890172 -0.105606 -8.04185e-05)
(0.00019537 -0.111163 5.15238e-05)
(0.000281341 -0.111884 7.56817e-06)
(0.000175247 -0.111321 4.93468e-05)
(0.000255384 -0.112095 6.18952e-06)
(0.000638474 -0.106307 0.000100761)
(0.000161575 -0.106962 8.2831e-06)
(0.000626763 -0.106469 9.8664e-05)
(0.000151267 -0.107172 6.9251e-06)
(0.000297008 -0.112077 1.36383e-06)
(0.00029702 -0.112076 -1.34131e-06)
(0.000269387 -0.112282 1.03279e-06)
(0.000269405 -0.112282 -1.01197e-06)
(0.00011055 -0.10709 1.38882e-06)
(0.000110549 -0.10709 -1.36706e-06)
(0.00010062 -0.107289 1.06156e-06)
(0.000100624 -0.107289 -1.03893e-06)
(0.000281318 -0.111882 -7.55081e-06)
(0.000195193 -0.11116 -5.15493e-05)
(0.000255355 -0.112093 -6.17823e-06)
(0.000175077 -0.111318 -4.93672e-05)
(0.000161555 -0.10696 -8.27141e-06)
(0.000638645 -0.106304 -0.000100762)
(0.000151242 -0.10717 -6.90483e-06)
(0.000626931 -0.106466 -9.86722e-05)
(-0.00248505 -0.111074 -4.5752e-06)
(0.00254902 -0.11257 0.499545)
(-0.0025374 -0.111189 -7.75849e-06)
(0.00252492 -0.112899 0.499552)
(0.0009027 -0.1056 8.35361e-05)
(-0.000468932 -0.108143 0.501697)
(0.000891337 -0.105603 8.04293e-05)
(-0.000457821 -0.108548 0.501698)
(0.002607 -0.111894 -0.499509)
(-0.00237952 -0.110758 -7.47598e-07)
(0.00257778 -0.112237 -0.499517)
(-0.00243186 -0.110932 1.7496e-06)
(-0.000476484 -0.107345 -0.501691)
(0.000934452 -0.105462 -8.89091e-05)
(-0.000469021 -0.107744 -0.501692)
(0.000914853 -0.105556 -8.6373e-05)
(0.000239997 -0.110788 5.5176e-05)
(0.000338346 -0.111412 1.02075e-05)
(0.000216124 -0.110986 5.34552e-05)
(0.000308843 -0.111656 8.90856e-06)
(0.000665946 -0.105932 0.000104195)
(0.000184303 -0.106496 1.09123e-05)
(0.000651025 -0.106128 0.000102591)
(0.00017256 -0.106738 9.61682e-06)
(0.000357301 -0.111612 2.07236e-06)
(0.000357309 -0.111612 -2.0352e-06)
(0.00032626 -0.111854 1.70968e-06)
(0.000326271 -0.111853 -1.68628e-06)
(0.000132198 -0.10664 2.08865e-06)
(0.000132198 -0.106639 -2.06314e-06)
(0.000121066 -0.106874 1.73279e-06)
(0.000121066 -0.106874 -1.70971e-06)
(0.000338331 -0.11141 -1.02196e-05)
(0.000239819 -0.110786 -5.52228e-05)
(0.000308823 -0.111655 -8.89633e-06)
(0.000215943 -0.110983 -5.34823e-05)
(0.000184285 -0.106495 -1.09009e-05)
(0.000666099 -0.10593 -0.000104209)
(0.000172539 -0.106736 -9.59974e-06)
(0.000651189 -0.106126 -0.0001026)
(-0.0023806 -0.110756 7.54991e-07)
(0.00260703 -0.111891 0.499509)
(-0.00243295 -0.110929 -1.75246e-06)
(0.00257781 -0.112234 0.499516)
(0.000935573 -0.10546 8.89201e-05)
(-0.000476318 -0.107342 0.501691)
(0.000915991 -0.105553 8.6384e-05)
(-0.000468847 -0.107741 0.501692)
(0.00267531 -0.111175 -0.499472)
(-0.00227948 -0.110323 -5.05928e-06)
(0.00264065 -0.111541 -0.499479)
(-0.00232969 -0.110556 -2.87493e-06)
(-0.000476936 -0.106537 -0.501685)
(0.000975332 -0.105162 -9.29797e-05)
(-0.000472781 -0.106943 -0.501686)
(0.000951297 -0.105332 -9.10704e-05)
(0.000292833 -0.110327 5.82433e-05)
(0.000402583 -0.110867 1.29999e-05)
(0.00026456 -0.110569 5.66335e-05)
(0.000369473 -0.11115 1.13618e-05)
(0.000698924 -0.105481 0.000106845)
(0.000210106 -0.105962 1.3434e-05)
(0.000681303 -0.105717 0.000105587)
(0.000196807 -0.106238 1.21669e-05)
(0.000425289 -0.11107 2.62882e-06)
(0.000425294 -0.111069 -2.95919e-06)
(0.000390272 -0.111351 2.52277e-06)
(0.000390278 -0.111351 -2.31145e-06)
(0.000156602 -0.106114 2.81941e-06)
(0.000156552 -0.106113 -2.81489e-06)
(0.000144018 -0.106387 2.4609e-06)
(0.000144046 -0.106386 -2.42088e-06)
(0.000402577 -0.110866 -1.24817e-05)
(0.000292654 -0.110324 -5.79279e-05)
(0.000369465 -0.111148 -1.16289e-05)
(0.000264381 -0.110566 -5.68118e-05)
(0.00021001 -0.10596 -1.33601e-05)
(0.000699201 -0.105479 -0.000106805)
(0.000196824 -0.106237 -1.21734e-05)
(0.000681391 -0.105715 -0.000105612)
(-0.00228056 -0.11032 4.74998e-06)
(0.00267533 -0.111172 0.499471)
(-0.00233078 -0.110553 3.04829e-06)
(0.00264068 -0.111538 0.499479)
(0.000976476 -0.105159 9.29795e-05)
(-0.000476722 -0.106534 0.501685)
(0.000952399 -0.105329 9.10947e-05)
(-0.000472596 -0.10694 0.501685)
(0.0027548 -0.110398 -0.499434)
(-0.00219678 -0.109769 -8.14066e-06)
(0.00271459 -0.110795 -0.499442)
(-0.00223399 -0.110061 -6.45764e-06)
(-0.000470203 -0.105697 -0.50168)
(0.00103279 -0.104712 -9.60526e-05)
(-0.000469395 -0.106122 -0.50168)
(0.000999745 -0.104954 -9.46133e-05)
(0.000354673 -0.109769 6.05052e-05)
(0.000475371 -0.11024 1.5215e-05)
(0.000322016 -0.11006 5.91502e-05)
(0.000437721 -0.110565 1.37344e-05)
(0.000737944 -0.104942 0.000108894)
(0.000238989 -0.105349 1.57648e-05)
(0.000717336 -0.105223 0.000107882)
(0.000224048 -0.105666 1.45774e-05)
(0.000502047 -0.110441 3.51904e-06)
(0.000502045 -0.11044 -3.60845e-06)
(0.000462525 -0.110766 3.37173e-06)
(0.000462526 -0.110766 -2.98619e-06)
(0.000184106 -0.105505 3.59945e-06)
(0.000184091 -0.105504 -3.57172e-06)
(0.000169916 -0.10582 3.22965e-06)
(0.000169955 -0.10582 -3.17038e-06)
(0.000475372 -0.110239 -1.50333e-05)
(0.000354482 -0.109767 -6.04039e-05)
(0.000437721 -0.110563 -1.4175e-05)
(0.000321829 -0.110058 -5.9508e-05)
(0.000238945 -0.105347 -1.57249e-05)
(0.000738135 -0.104939 -0.000108882)
(0.000224115 -0.105664 -1.45995e-05)
(0.000717373 -0.105221 -0.000107923)
(-0.00219783 -0.109766 8.0379e-06)
(0.0027548 -0.110395 0.499433)
(-0.00223506 -0.110058 6.75477e-06)
(0.00271459 -0.110792 0.499441)
(0.00103388 -0.10471 9.60659e-05)
(-0.000469984 -0.105694 0.501679)
(0.00100081 -0.104952 9.46447e-05)
(-0.000469195 -0.106119 0.50168)
(0.00284585 -0.109547 -0.499395)
(-0.00213239 -0.109094 -1.04801e-05)
(0.00279978 -0.109983 -0.499402)
(-0.00216563 -0.109447 -9.36121e-06)
(-0.00045648 -0.104806 -0.501674)
(0.00110311 -0.104133 -9.83193e-05)
(-0.000458969 -0.105259 -0.501674)
(0.0010654 -0.104438 -9.72736e-05)
(0.000426063 -0.109106 6.24229e-05)
(0.00055798 -0.109521 1.73841e-05)
(0.000388432 -0.109451 6.14599e-05)
(0.000515298 -0.109893 1.62648e-05)
(0.000782141 -0.104303 0.000110712)
(0.000271344 -0.104648 1.79842e-05)
(0.00075902 -0.104635 0.000109821)
(0.000254693 -0.10501 1.68851e-05)
(0.000588411 -0.109716 4.35904e-06)
(0.000588406 -0.109716 -4.31715e-06)
(0.000543984 -0.110091 3.98157e-06)
(0.00054398 -0.11009 -3.91924e-06)
(0.00021504 -0.104803 4.38366e-06)
(0.000215036 -0.104803 -4.33923e-06)
(0.000199134 -0.105166 3.99413e-06)
(0.000199133 -0.105166 -3.95212e-06)
(0.000557987 -0.109519 -1.73479e-05)
(0.00042586 -0.109103 -6.24301e-05)
(0.000515303 -0.109891 -1.62587e-05)
(0.000388234 -0.109449 -6.14918e-05)
(0.000271328 -0.104646 -1.79498e-05)
(0.000782294 -0.104301 -0.000110702)
(0.000254685 -0.105008 -1.68553e-05)
(0.000759166 -0.104633 -0.000109815)
(-0.00213345 -0.109091 1.04877e-05)
(0.00284583 -0.109544 0.499394)
(-0.00216669 -0.109444 9.38781e-06)
(0.00279976 -0.109979 0.499401)
(0.0011042 -0.104131 9.83444e-05)
(-0.000456264 -0.104803 0.501674)
(0.00106649 -0.104436 9.72975e-05)
(-0.000458759 -0.105256 0.501674)
(0.00294951 -0.108609 -0.499356)
(-0.00205592 -0.108296 -1.22265e-05)
(0.00289705 -0.10909 -0.499362)
(-0.0020964 -0.10871 -1.14241e-05)
(-0.000437083 -0.103845 -0.501669)
(0.00117623 -0.103427 -9.99206e-05)
(-0.000442297 -0.104335 -0.501668)
(0.00113763 -0.103796 -9.91947e-05)
(0.000508609 -0.108329 6.42278e-05)
(0.000651469 -0.108699 1.95132e-05)
(0.000465244 -0.108732 6.33317e-05)
(0.000603214 -0.109124 1.84598e-05)
(0.000830508 -0.103556 0.000112381)
(0.00030746 -0.103849 2.01052e-05)
(0.000805363 -0.103944 0.000111562)
(0.000288902 -0.104261 1.90563e-05)
(0.000685248 -0.108888 5.13759e-06)
(0.000685245 -0.108887 -5.08667e-06)
(0.000635472 -0.109316 4.74958e-06)
(0.000635467 -0.109315 -4.7018e-06)
(0.0002497 -0.104001 5.16175e-06)
(0.000249695 -0.104001 -5.11044e-06)
(0.000231897 -0.104416 4.77352e-06)
(0.000231892 -0.104415 -4.72557e-06)
(0.000651479 -0.108698 -1.94738e-05)
(0.000508395 -0.108326 -6.4233e-05)
(0.000603223 -0.109122 -1.84235e-05)
(0.000465035 -0.108729 -6.33391e-05)
(0.000307446 -0.103847 -2.00649e-05)
(0.000830662 -0.103553 -0.000112366)
(0.000288887 -0.10426 -1.9019e-05)
(0.000805517 -0.103941 -0.00011155)
(-0.00205699 -0.108293 1.22395e-05)
(0.00294949 -0.108606 0.499355)
(-0.00209748 -0.108707 1.14357e-05)
(0.00289702 -0.109086 0.499362)
(0.00117732 -0.103424 9.99492e-05)
(-0.000436863 -0.103842 0.501669)
(0.00113872 -0.103794 9.92218e-05)
(-0.000442085 -0.104332 0.501668)
(0.00306648 -0.10757 -0.499315)
(-0.001968 -0.107381 -1.34423e-05)
(0.00300732 -0.108102 -0.499322)
(-0.00201298 -0.107852 -1.28936e-05)
(-0.000413312 -0.102798 -0.501664)
(0.00125637 -0.102588 -0.000100963)
(-0.000420623 -0.103332 -0.501663)
(0.00121266 -0.103024 -0.000100504)
(0.000603265 -0.10743 6.60886e-05)
(0.000756649 -0.107764 2.15629e-05)
(0.000553789 -0.107895 6.51345e-05)
(0.000702481 -0.108246 2.0546e-05)
(0.000882821 -0.10269 0.000113935)
(0.00034758 -0.102941 2.21425e-05)
(0.000855687 -0.103138 0.000113169)
(0.000326994 -0.103409 2.11329e-05)
(0.000793377 -0.107945 5.90455e-06)
(0.000793376 -0.107944 -5.8472e-06)
(0.00073787 -0.108431 5.52313e-06)
(0.000737867 -0.10843 -5.46895e-06)
(0.000288364 -0.103089 5.92753e-06)
(0.00028836 -0.103088 -5.86974e-06)
(0.000268528 -0.10356 5.54701e-06)
(0.000268523 -0.103559 -5.4924e-06)
(0.000756661 -0.107763 -2.15166e-05)
(0.000603036 -0.107428 -6.60879e-05)
(0.000702493 -0.108245 -2.05034e-05)
(0.000553567 -0.107893 -6.51373e-05)
(0.000347566 -0.10294 -2.20959e-05)
(0.000882976 -0.102688 -0.000113917)
(0.00032698 -0.103408 -2.10896e-05)
(0.000855842 -0.103136 -0.000113153)
(-0.00196907 -0.107379 1.3458e-05)
(0.00306645 -0.107567 0.499314)
(-0.00201406 -0.107849 1.2908e-05)
(0.00300729 -0.108099 0.499322)
(0.00125743 -0.102586 0.000100993)
(-0.000413081 -0.102795 0.501663)
(0.00121374 -0.103022 0.000100534)
(-0.000420403 -0.103329 0.501663)
(0.00319671 -0.106419 -0.499275)
(-0.00189044 -0.106368 -1.42063e-05)
(0.00313088 -0.107009 -0.499281)
(-0.00192547 -0.106888 -1.38765e-05)
(-0.00038537 -0.101651 -0.501659)
(0.00136728 -0.101612 -0.000101545)
(-0.000395041 -0.102237 -0.501658)
(0.00130334 -0.102118 -0.000101304)
(0.000710389 -0.106401 6.81914e-05)
(0.000874021 -0.106705 2.35733e-05)
(0.000654683 -0.106932 6.71379e-05)
(0.00081371 -0.107251 2.25683e-05)
(0.000939615 -0.101697 0.000115411)
(0.000391882 -0.101915 2.41235e-05)
(0.000910084 -0.10221 0.00011468)
(0.000369191 -0.102444 2.31375e-05)
(0.000913505 -0.106877 6.65103e-06)
(0.000913505 -0.106877 -6.58814e-06)
(0.000851911 -0.107427 6.28045e-06)
(0.00085191 -0.107427 -6.22008e-06)
(0.000331284 -0.102057 6.66943e-06)
(0.000331281 -0.102056 -6.59787e-06)
(0.000309289 -0.102589 6.30172e-06)
(0.000309285 -0.102588 -6.24064e-06)
(0.000874038 -0.106704 -2.35226e-05)
(0.000710146 -0.106399 -6.81913e-05)
(0.000813724 -0.107249 -2.25171e-05)
(0.000654444 -0.10693 -6.71248e-05)
(0.00039187 -0.101914 -2.40826e-05)
(0.000939769 -0.101695 -0.000115407)
(0.000369178 -0.102442 -2.30886e-05)
(0.000910242 -0.102208 -0.000114661)
(-0.00189145 -0.106365 1.42214e-05)
(0.00319668 -0.106416 0.499274)
(-0.00192654 -0.106885 1.38928e-05)
(0.00313083 -0.107006 0.499281)
(0.00136828 -0.101609 0.000101573)
(-0.000385127 -0.101648 0.501658)
(0.00130438 -0.102115 0.000101333)
(-0.000394809 -0.102234 0.501658)
(0.00334017 -0.105141 -0.499233)
(-0.00183015 -0.105191 -1.45776e-05)
(0.00326745 -0.105796 -0.49924)
(-0.00186227 -0.105803 -1.44322e-05)
(-0.000351453 -0.100392 -0.501654)
(0.0015117 -0.100491 -0.000101837)
(-0.000364478 -0.101036 -0.501653)
(0.00143723 -0.101069 -0.000101621)
(0.000830695 -0.105229 6.94794e-05)
(0.00100376 -0.105511 2.5541e-05)
(0.000768203 -0.105833 6.88348e-05)
(0.000937249 -0.106126 2.45565e-05)
(0.00100206 -0.100569 0.000117007)
(0.000440307 -0.10076 2.62154e-05)
(0.000969657 -0.10115 0.000116043)
(0.00041558 -0.101355 2.50222e-05)
(0.00104623 -0.105675 7.36896e-06)
(0.00104625 -0.105674 -7.31261e-06)
(0.000978283 -0.106293 7.01899e-06)
(0.000978275 -0.106293 -6.94541e-06)
(0.000378672 -0.100895 7.23018e-06)
(0.000378687 -0.100894 -7.45688e-06)
(0.000354428 -0.101493 7.10203e-06)
(0.000354416 -0.101492 -6.879e-06)
(0.00100387 -0.10551 -2.54653e-05)
(0.000830336 -0.105227 -6.94468e-05)
(0.000937219 -0.106124 -2.45107e-05)
(0.000768 -0.105831 -6.88413e-05)
(0.000440389 -0.100759 -2.58567e-05)
(0.00100212 -0.100567 -0.000116648)
(0.000415521 -0.101353 -2.51281e-05)
(0.000969858 -0.101148 -0.000116195)
(-0.00183125 -0.105188 1.45955e-05)
(0.00334011 -0.105138 0.499232)
(-0.00186331 -0.105801 1.44533e-05)
(0.00326741 -0.105793 0.499239)
(0.00151272 -0.100488 0.000101652)
(-0.000351214 -0.100389 0.501654)
(0.00143827 -0.101067 0.00010177)
(-0.000364234 -0.101033 0.501653)
(0.00349756 -0.103723 -0.499191)
(-0.00174932 -0.103841 -1.4639e-05)
(0.0034177 -0.10445 -0.499198)
(-0.00179289 -0.104537 -1.46346e-05)
(-0.000311358 -0.0990075 -0.50165)
(0.00164769 -0.0992256 -0.000101768)
(-0.000327632 -0.0997161 -0.501649)
(0.00157961 -0.0998753 -0.000101525)
(0.000964858 -0.103905 7.07206e-05)
(0.0011468 -0.104172 2.74435e-05)
(0.000895316 -0.104586 7.00742e-05)
(0.00107363 -0.10486 2.64744e-05)
(0.00106915 -0.0992963 0.000118603)
(0.000493295 -0.0994647 2.82094e-05)
(0.00103444 -0.0999513 0.000117318)
(0.000466334 -0.100131 2.67976e-05)
(0.00119196 -0.104327 8.07385e-06)
(0.001192 -0.104327 -8.02219e-06)
(0.00111749 -0.10502 7.74465e-06)
(0.00111748 -0.105019 -7.6474e-06)
(0.000430684 -0.099593 7.81501e-06)
(0.000430711 -0.0995926 -8.27961e-06)
(0.000404129 -0.100262 7.94581e-06)
(0.000404106 -0.100262 -7.4504e-06)
(0.00114698 -0.10417 -2.73414e-05)
(0.00096441 -0.103903 -7.06449e-05)
(0.00107351 -0.104859 -2.64363e-05)
(0.000895182 -0.104584 -7.00945e-05)
(0.000493453 -0.0994633 -2.7614e-05)
(0.00106914 -0.0992942 -0.000117984)
(0.000466193 -0.100129 -2.71575e-05)
(0.00103472 -0.0999494 -0.000117758)
(-0.0017505 -0.103839 1.46576e-05)
(0.00349749 -0.10372 0.49919)
(-0.00179396 -0.104535 1.46672e-05)
(0.00341766 -0.104447 0.499197)
(0.00164876 -0.0992233 0.000101403)
(-0.000311111 -0.0990045 0.501649)
(0.00158071 -0.099873 0.000101877)
(-0.000327373 -0.099713 0.501648)
(0.00366859 -0.102157 -0.499148)
(-0.00165362 -0.102324 -1.44576e-05)
(0.00358182 -0.102959 -0.499154)
(-0.00170229 -0.103101 -1.45608e-05)
(-0.000266014 -0.0974854 -0.501646)
(0.00175166 -0.0978152 -0.000101398)
(-0.00028493 -0.0982639 -0.501644)
(0.00170276 -0.0985415 -0.000101136)
(0.00111308 -0.102421 7.2007e-05)
(0.00130363 -0.102676 2.92857e-05)
(0.00103649 -0.103183 7.11764e-05)
(0.00122361 -0.103444 2.8329e-05)
(0.00113991 -0.09787 0.000120219)
(0.00055099 -0.0980198 3.01329e-05)
(0.00110348 -0.0986028 0.000118814)
(0.000521745 -0.0987617 2.85494e-05)
(0.00135079 -0.102825 8.76745e-06)
(0.00135086 -0.102824 -8.72397e-06)
(0.00126978 -0.103596 8.45738e-06)
(0.00126977 -0.103595 -8.33779e-06)
(0.000487382 -0.0981427 8.41414e-06)
(0.000487419 -0.0981423 -9.07007e-06)
(0.000458485 -0.0988871 8.75674e-06)
(0.000458456 -0.0988866 -8.03855e-06)
(0.00130386 -0.102675 -2.91688e-05)
(0.00111255 -0.102419 -7.19266e-05)
(0.00122341 -0.103443 -2.8297e-05)
(0.0010364 -0.103181 -7.12064e-05)
(0.000551209 -0.0980185 -2.9339e-05)
(0.00113984 -0.097868 -0.00011935)
(0.000521535 -0.0987602 -2.91096e-05)
(0.00110382 -0.098601 -0.000119499)
(-0.00165487 -0.102321 1.44692e-05)
(0.0036685 -0.102154 0.499147)
(-0.00170339 -0.103099 1.46038e-05)
(0.00358178 -0.102956 0.499153)
(0.0017528 -0.0978129 0.000100886)
(-0.00026577 -0.0974824 0.501645)
(0.00170397 -0.0985392 0.000101651)
(-0.000284657 -0.0982609 0.501644)
(0.00385355 -0.100433 -0.499106)
(-0.00154329 -0.100655 -1.40656e-05)
(0.00375964 -0.101315 -0.499111)
(-0.00160109 -0.10151 -1.42667e-05)
(-0.000216306 -0.0958147 -0.501641)
(0.00184271 -0.0962268 -0.000100688)
(-0.00023764 -0.0966689 -0.50164)
(0.0017949 -0.0970421 -0.000100494)
(0.00127522 -0.10077 7.35708e-05)
(0.00147393 -0.101015 3.10896e-05)
(0.00119159 -0.101617 7.27201e-05)
(0.00138734 -0.101867 3.01431e-05)
(0.00121394 -0.0962809 0.000121432)
(0.000613296 -0.0964161 3.18794e-05)
(0.00117573 -0.0970963 0.000119937)
(0.000581821 -0.0972384 3.02526e-05)
(0.00152318 -0.101158 9.46961e-06)
(0.00152323 -0.101158 -9.41578e-06)
(0.00143531 -0.102013 9.16602e-06)
(0.00143528 -0.102012 -9.02355e-06)
(0.0005489 -0.0965348 9.14087e-06)
(0.000548927 -0.0965343 -9.72489e-06)
(0.000517584 -0.0973591 9.56026e-06)
(0.000517544 -0.0973586 -8.61637e-06)
(0.00147417 -0.101013 -3.09686e-05)
(0.0012747 -0.100769 -7.34882e-05)
(0.00138707 -0.101865 -3.01218e-05)
(0.00119156 -0.101615 -7.27736e-05)
(0.000613502 -0.0964146 -3.11469e-05)
(0.00121388 -0.0962792 -0.000120619)
(0.000581546 -0.097237 -3.1006e-05)
(0.00117613 -0.0970944 -0.000120869)
(-0.00154458 -0.100653 1.40827e-05)
(0.00385345 -0.10043 0.499105)
(-0.00160221 -0.101508 1.43166e-05)
(0.00375959 -0.101312 0.499111)
(0.00184393 -0.0962246 0.000100234)
(-0.000216055 -0.0958117 0.501641)
(0.0017962 -0.0970398 0.000101161)
(-0.000237355 -0.0966658 0.50164)
(0.00405214 -0.0985408 -0.499063)
(-0.00141441 -0.0988149 -1.34959e-05)
(0.00395139 -0.0995081 -0.499068)
(-0.00148129 -0.099757 -1.37881e-05)
(-0.000162065 -0.0939861 -0.501637)
(0.00193581 -0.0944679 -9.96397e-05)
(-0.000185903 -0.0949203 -0.501635)
(0.00188687 -0.0953687 -9.98614e-05)
(0.00145123 -0.0989438 7.51277e-05)
(0.00165727 -0.0991788 3.28444e-05)
(0.00136085 -0.0998795 7.43113e-05)
(0.00156405 -0.100119 3.1946e-05)
(0.00129165 -0.0945222 0.000122425)
(0.000680088 -0.0946454 3.34032e-05)
(0.00125171 -0.0954233 0.000121437)
(0.000646262 -0.095552 3.22304e-05)
(0.00170915 -0.0993184 1.01785e-05)
(0.00170917 -0.099318 -1.00874e-05)
(0.00161455 -0.100261 9.85169e-06)
(0.00161453 -0.10026 -9.72595e-06)
(0.000615195 -0.0947608 1.00562e-05)
(0.000615199 -0.0947604 -1.01747e-05)
(0.000581492 -0.0956691 1.00382e-05)
(0.000581469 -0.0956687 -9.50401e-06)
(0.00165737 -0.0991775 -3.27435e-05)