/*--------------------------------*- C++ -*----------------------------------*\
  =========                 |
  \\      /  F ield         | OpenFOAM: The Open Source CFD Toolbox
   \\    /   O peration     | Website:  https://openfoam.org
    \\  /    A nd           | Version:  9
     \\/     M anipulation  |
\*---------------------------------------------------------------------------*/
FoamFile
{
    format      ascii;
    class       volScalarField;
    location    "0.25";
    object      nut;
}
// * * * * * * * * * * * * * * * * * * * * * * * * * * * * * * * * * * * * * //

dimensions      [0 2 -1 0 0 0 0];

internalField   nonuniform List<scalar> 
36360
(
0.000465548
0.000404103
0.000353745
0.000322008
0.000191959
0.000165695
0.000186403
0.000169184
0.000180833
0.000163183
0.000172352
0.000161555
0.000155689
0.000155113
0.000164033
0.000163732
0.000162279
0.000162279
0.000161106
0.000161106
0.000155091
0.000155091
0.000163718
0.000163718
0.000163178
0.000180799
0.000161553
0.000172338
0.000155113
0.000155687
0.000163732
0.000164033
0.000404025
0.000465614
0.000321984
0.000353767
0.000165689
0.00019196
0.000169182
0.000186403
0.000491662
0.000423701
0.000488629
0.000421166
0.000192918
0.000165257
0.000192986
0.000165304
0.000182925
0.000163813
0.000182684
0.000163762
0.000154101
0.000153468
0.000154275
0.000153644
0.000162798
0.000162797
0.000162759
0.000162759
0.000153445
0.000153445
0.000153621
0.000153621
0.000163807
0.000182883
0.000163756
0.000182644
0.000153468
0.000154098
0.000153644
0.000154272
0.000423601
0.000491756
0.000421068
0.00048871
0.00016525
0.000192919
0.000165296
0.000192987
0.000491825
0.000423951
0.00049214
0.000424168
0.00019266
0.000165223
0.000192767
0.000165248
0.000182893
0.000163705
0.000182938
0.000163813
0.000154074
0.00015346
0.000154079
0.000153448
0.000162783
0.000162783
0.000162797
0.000162796
0.000153439
0.000153439
0.000153426
0.000153426
0.000163699
0.000182852
0.000163807
0.000182896
0.00015346
0.000154071
0.000153448
0.000154076
0.000423853
0.000491915
0.000424068
0.000492229
0.000165215
0.00019266
0.00016524
0.000192768
0.000491083
0.000423472
0.000491591
0.000423814
0.000192541
0.000165167
0.000192603
0.000165197
0.00018281
0.000163758
0.000182859
0.000163772
0.00015406
0.000153439
0.000154065
0.000153445
0.000162781
0.00016278
0.000162787
0.000162786
0.00015342
0.00015342
0.000153423
0.000153423
0.000163751
0.000182769
0.000163765
0.000182818
0.000153439
0.000154057
0.000153444
0.000154062
0.000423379
0.00049118
0.000423721
0.000491688
0.00016516
0.000192542
0.00016519
0.000192603
0.000490242
0.000422898
0.00049077
0.00042326
0.000192428
0.000165103
0.000192489
0.000165137
0.000182723
0.000163682
0.000182775
0.000163777
0.000154045
0.000153429
0.000154051
0.000153432
0.000162778
0.000162777
0.000162785
0.000162785
0.00015341
0.00015341
0.000153411
0.000153411
0.000163675
0.000182682
0.00016377
0.000182734
0.000153429
0.000154042
0.000153431
0.000154048
0.000422806
0.000490339
0.000423166
0.000490867
0.000165097
0.000192428
0.000165131
0.00019249
0.00048935
0.000422301
0.000489902
0.000422668
0.000192312
0.000165036
0.000192374
0.000165071
0.000182635
0.000163738
0.000182686
0.000163753
0.000154027
0.000153414
0.000154034
0.000153419
0.000162778
0.000162777
0.000162784
0.000162783
0.000153395
0.000153395
0.0001534
0.0001534
0.000163732
0.000182595
0.000163747
0.000182646
0.000153414
0.000154024
0.000153419
0.000154031
0.000422212
0.000489451
0.000422577
0.00049
0.00016503
0.000192313
0.000165065
0.000192374
0.000488442
0.000421713
0.000489008
0.000422081
0.000192197
0.000164967
0.00019226
0.000165003
0.000182546
0.000163663
0.000182599
0.000163759
0.000154006
0.000153397
0.000154015
0.000153404
0.000162775
0.000162775
0.000162783
0.000162782
0.000153378
0.000153378
0.000153384
0.000153384
0.000163656
0.000182506
0.000163752
0.000182559
0.000153397
0.000154004
0.000153403
0.000154012
0.000421627
0.000488547
0.000421993
0.00048911
0.000164961
0.000192199
0.000164997
0.000192261
0.000487513
0.000421132
0.000488089
0.000421496
0.000192082
0.000164895
0.000192144
0.000164932
0.000182462
0.000163718
0.000182512
0.000163736
0.000153983
0.000153377
0.000153993
0.000153385
0.000162774
0.000162774
0.000162781
0.00016278
0.000153358
0.000153358
0.000153365
0.000153365
0.000163711
0.000182421
0.000163729
0.000182472
0.000153377
0.00015398
0.000153385
0.00015399
0.000421043
0.000487612
0.000421409
0.000488193
0.000164889
0.000192084
0.000164926
0.000192146
0.000486557
0.000420557
0.000487152
0.000420921
0.000191967
0.000164821
0.00019203
0.00016486
0.000182376
0.000163645
0.000182427
0.00016374
0.000153955
0.000153353
0.000153967
0.000153363
0.000162771
0.000162771
0.000162779
0.000162779
0.000153334
0.000153334
0.000153343
0.000153343
0.000163638
0.000182336
0.000163734
0.000182387
0.000153353
0.000153953
0.000153362
0.000153964
0.000420465
0.000486653
0.00042083
0.00048725
0.000164814
0.000191969
0.000164853
0.000192032
0.000485571
0.000419988
0.000486185
0.000420352
0.000191852
0.000164744
0.000191915
0.000164784
0.000182295
0.000163696
0.000182344
0.000163718
0.000153924
0.000153325
0.000153938
0.000153337
0.00016277
0.00016277
0.000162776
0.000162776
0.000153306
0.000153306
0.000153317
0.000153317
0.000163689
0.000182254
0.000163711
0.000182303
0.000153325
0.000153921
0.000153336
0.000153935
0.000419892
0.000485662
0.000420258
0.000486279
0.000164737
0.000191853
0.000164777
0.000191917
0.000484543
0.000419416
0.000485185
0.000419787
0.000191734
0.000164663
0.000191799
0.000164705
0.000182212
0.000163627
0.000182263
0.000163721
0.000153888
0.000153292
0.000153904
0.000153306
0.000162766
0.000162766
0.000162774
0.000162774
0.000153273
0.000153273
0.000153287
0.000153287
0.00016362
0.000182171
0.000163714
0.000182221
0.000153292
0.000153885
0.000153306
0.000153901
0.000419316
0.000484629
0.000419688
0.000485273
0.000164656
0.000191735
0.000164698
0.0001918
0.000483451
0.000418829
0.000484129
0.000419209
0.000191612
0.000164577
0.000191679
0.000164622
0.000182132
0.000163715
0.00018218
0.000163701
0.000153846
0.000153254
0.000153865
0.00015327
0.000162766
0.000162766
0.000162771
0.000162771
0.000153235
0.000153235
0.000153251
0.000153251
0.000163709
0.000182091
0.000163695
0.000182138
0.000153254
0.000153844
0.00015327
0.000153862
0.000418729
0.000483535
0.000419109
0.000484214
0.000164569
0.000191613
0.000164614
0.00019168
0.000482299
0.000418235
0.00048301
0.000418621
0.000191486
0.000164485
0.000191555
0.000164533
0.00018205
0.000163713
0.000182099
0.000163723
0.000153799
0.000153211
0.000153821
0.00015323
0.000162763
0.000162763
0.00016277
0.000162769
0.000153191
0.000153191
0.00015321
0.00015321
0.000163707
0.000182009
0.000163716
0.000182057
0.00015321
0.000153797
0.00015323
0.000153818
0.000418135
0.000482383
0.000418521
0.000483095
0.000164478
0.000191488
0.000164526
0.000191556
0.000481086
0.000417635
0.000481832
0.000418027
0.000191357
0.000164389
0.000191428
0.000164439
0.000181968
0.000163706
0.000182017
0.000163715
0.000153746
0.000153161
0.000153771
0.000153183
0.00016276
0.000162759
0.000162766
0.000162766
0.000153141
0.000153141
0.000153164
0.000153164
0.000163699
0.000181927
0.000163709
0.000181975
0.00015316
0.000153743
0.000153183
0.000153768
0.000417536
0.00048117
0.000417927
0.000481917
0.000164382
0.000191359
0.000164432
0.000191429
0.000479807
0.000417028
0.000480591
0.000417426
0.000191225
0.000164287
0.000191298
0.00016434
0.000181886
0.000163698
0.000181935
0.000163707
0.000153686
0.000153104
0.000153714
0.000153129
0.000162755
0.000162755
0.000162763
0.000162762
0.000153085
0.000153085
0.00015311
0.00015311
0.000163691
0.000181845
0.0001637
0.000181894
0.000153104
0.000153683
0.000153129
0.000153711
0.000416929
0.000479891
0.000417327
0.000480675
0.00016428
0.000191226
0.000164333
0.000191299
0.000478457
0.000416413
0.000479281
0.000416819
0.000191088
0.000164179
0.000191163
0.000164235
0.000181805
0.000163688
0.000181854
0.000163698
0.000153619
0.00015304
0.00015365
0.000153069
0.000162751
0.00016275
0.000162758
0.000162758
0.00015302
0.00015302
0.00015305
0.00015305
0.000163682
0.000181764
0.000163692
0.000181813
0.000153039
0.000153616
0.000153069
0.000153647
0.000416315
0.000478541
0.00041672
0.000479365
0.000164172
0.000191089
0.000164228
0.000191165
0.000477031
0.000415789
0.000477897
0.000416202
0.000190947
0.000164063
0.000191025
0.000164124
0.000181724
0.000163679
0.000181773
0.000163689
0.000153543
0.000152967
0.000153579
0.000153
0.000162746
0.000162745
0.000162754
0.000162753
0.000152948
0.000152948
0.000152981
0.000152981
0.000163672
0.000181683
0.000163682
0.000181732
0.000152967
0.00015354
0.000153
0.000153576
0.000415691
0.000477114
0.000416104
0.000477981
0.000164056
0.000190948
0.000164116
0.000191026
0.000475525
0.000415155
0.000476435
0.000415576
0.000190801
0.000163941
0.000190881
0.000164005
0.000181642
0.000163669
0.000181692
0.000163679
0.000153459
0.000152886
0.000153499
0.000152924
0.00016274
0.00016274
0.000162749
0.000162748
0.000152867
0.000152867
0.000152905
0.000152905
0.000163662
0.000181602
0.000163673
0.000181651
0.000152886
0.000153456
0.000152923
0.000153496
0.000415057
0.000475608
0.000415478
0.000476518
0.000163934
0.000190802
0.000163997
0.000190882
0.000473935
0.00041451
0.000474891
0.000414939
0.00019065
0.00016381
0.000190733
0.000163878
0.000181561
0.000163658
0.000181611
0.000163669
0.000153366
0.000152796
0.00015341
0.000152838
0.000162735
0.000162734
0.000162744
0.000162743
0.000152777
0.000152777
0.000152819
0.000152819
0.000163652
0.00018152
0.000163662
0.00018157
0.000152795
0.000153363
0.000152838
0.000153407
0.000414413
0.000474018
0.000414842
0.000474974
0.000163803
0.000190651
0.000163871
0.000190734
0.000472261
0.000413853
0.000473263
0.000414292
0.000190494
0.00016367
0.00019058
0.000163743
0.000181479
0.000163647
0.000181529
0.000163658
0.000153262
0.000152695
0.000153311
0.000152742
0.000162728
0.000162728
0.000162738
0.000162737
0.000152676
0.000152676
0.000152723
0.000152723
0.000163641
0.000181439
0.000163652
0.000181489
0.000152695
0.00015326
0.000152742
0.000153309
0.000413757
0.000472343
0.000414195
0.000473345
0.000163663
0.000190495
0.000163736
0.000190581
0.000470502
0.000413186
0.00047155
0.000413633
0.000190333
0.000163522
0.000190421
0.000163599
0.000181398
0.000163636
0.000181448
0.000163647
0.000153149
0.000152585
0.000153203
0.000152637
0.000162722
0.000162721
0.000162732
0.000162731
0.000152566
0.000152566
0.000152618
0.000152618
0.000163629
0.000181357
0.000163641
0.000181408
0.000152584
0.000153146
0.000152636
0.0001532
0.00041309
0.000470584
0.000413537
0.000471632
0.000163515
0.000190334
0.000163592
0.000190422
0.00046866
0.000412508
0.000469753
0.000412963
0.000190167
0.000163363
0.000190258
0.000163445
0.000181316
0.000163624
0.000181367
0.000163636
0.000153024
0.000152463
0.000153084
0.00015252
0.000162715
0.000162715
0.000162725
0.000162725
0.000152444
0.000152444
0.000152502
0.000152502
0.000163617
0.000181276
0.00016363
0.000181326
0.000152463
0.000153022
0.00015252
0.000153081
0.000412413
0.000468741
0.000412867
0.000469834
0.000163356
0.000190168
0.000163438
0.000190259
0.00046674
0.00041182
0.000467875
0.000412283
0.000189996
0.000163195
0.000190089
0.000163282
0.000181234
0.000163612
0.000181285
0.000163624
0.000152889
0.00015233
0.000152954
0.000152393
0.000162708
0.000162708
0.000162718
0.000162718
0.000152311
0.000152311
0.000152374
0.000152374
0.000163606
0.000181194
0.000163618
0.000181245
0.00015233
0.000152886
0.000152393
0.000152951
0.000411726
0.00046682
0.000412188
0.000467956
0.000163188
0.000189997
0.000163275
0.00019009
0.000464746
0.000411125
0.00046592
0.000411595
0.000189821
0.000163017
0.000189916
0.000163109
0.000181153
0.0001636
0.000181204
0.000163613
0.000152742
0.000152186
0.000152812
0.000152254
0.000162701
0.0001627
0.000162711
0.000162711
0.000152167
0.000152167
0.000152236
0.000152236
0.000163593
0.000181113
0.000163606
0.000181164
0.000152185
0.000152739
0.000152254
0.00015281
0.000411031
0.000464827
0.0004115
0.000466001
0.00016301
0.000189822
0.000163102
0.000189917
0.000462689
0.000410424
0.000463897
0.000410899
0.000189642
0.000162829
0.00018974
0.000162926
0.000181072
0.000163588
0.000181123
0.0001636
0.000152583
0.00015203
0.000152659
0.000152104
0.000162693
0.000162693
0.000162704
0.000162704
0.000152011
0.000152011
0.000152085
0.000152085
0.000163581
0.000181032
0.000163594
0.000181083
0.000152029
0.000152581
0.000152104
0.000152657
0.000410331
0.000462769
0.000410806
0.000463978
0.000162822
0.000189643
0.000162919
0.000189741
0.000460578
0.00040972
0.000461815
0.0004102
0.000189461
0.00016263
0.00018956
0.000162733
0.000180991
0.000163575
0.000181042
0.000163588
0.000152413
0.000151862
0.000152495
0.000151942
0.000162687
0.000162686
0.000162697
0.000162696
0.000151843
0.000151843
0.000151923
0.000151923
0.000163569
0.000180951
0.000163582
0.000181003
0.000151861
0.000152411
0.000151941
0.000152492
0.000409628
0.000460657
0.000410107
0.000461895
0.000162624
0.000189462
0.000162726
0.000189561
0.000458425
0.000409016
0.000459685
0.000409499
0.000189277
0.000162422
0.000189377
0.000162529
0.000180911
0.000163563
0.000180962
0.000163576
0.000152231
0.000151682
0.000152319
0.000151768
0.00016268
0.00016268
0.00016269
0.000162689
0.000151664
0.000151664
0.000151749
0.000151749
0.000163557
0.000180871
0.00016357
0.000180923
0.000151682
0.000152229
0.000151767
0.000152316
0.000408925
0.000458504
0.000409407
0.000459764
0.000162415
0.000189278
0.000162522
0.000189378
0.000456246
0.000408316
0.00045752
0.0004088
0.000189093
0.000162204
0.000189193
0.000162316
0.000180831
0.000163551
0.000180883
0.000163564
0.000152038
0.000151491
0.000152131
0.000151582
0.000162673
0.000162673
0.000162682
0.000162682
0.000151473
0.000151473
0.000151564
0.000151564
0.000163545
0.000180792
0.000163557
0.000180844
0.000151491
0.000152035
0.000151582
0.000152128
0.000408226
0.000456324
0.000408708
0.000457599
0.000162197
0.000189094
0.000162309
0.000189194
0.000454057
0.000407624
0.000455338
0.000408106
0.000188909
0.000161977
0.000189009
0.000162093
0.000180751
0.000163539
0.000180805
0.000163551
0.000151834
0.000151289
0.000151932
0.000151385
0.000162666
0.000162666
0.000162675
0.000162675
0.000151271
0.000151271
0.000151367
0.000151367
0.000163533
0.000180712
0.000163545
0.000180766
0.000151289
0.000151831
0.000151385
0.000151929
0.000407534
0.000454134
0.000408016
0.000455415
0.00016197
0.00018891
0.000162087
0.00018901
0.000451875
0.000406944
0.000453153
0.000407422
0.000188727
0.000161742
0.000188826
0.000161862
0.000180672
0.000163527
0.000180727
0.000163539
0.000151619
0.000151076
0.000151722
0.000151177
0.000162658
0.000162658
0.000162667
0.000162667
0.000151058
0.000151058
0.000151159
0.000151159
0.000163521
0.000180633
0.000163533
0.000180688
0.000151076
0.000151616
0.000151177
0.000151719
0.000406855
0.000451952
0.000407332
0.00045323
0.000161735
0.000188728
0.000161855
0.000188827
0.000449718
0.000406279
0.000450984
0.00040675
0.000188548
0.000161498
0.000188645
0.000161622
0.000180595
0.000163514
0.000180651
0.000163527
0.000151394
0.000150853
0.000151502
0.000150959
0.000162649
0.000162649
0.000162658
0.000162658
0.000150835
0.000150835
0.000150941
0.000150941
0.000163508
0.000180556
0.00016352
0.000180612
0.000150853
0.000151392
0.000150959
0.000151499
0.000406191
0.000449794
0.000406661
0.000451061
0.000161492
0.000188548
0.000161616
0.000188646
0.000447605
0.000405634
0.00044885
0.000406097
0.000188373
0.000161248
0.000188468
0.000161375
0.000180519
0.000163501
0.000180576
0.000163514
0.00015116
0.000150621
0.000151272
0.000150731
0.00016264
0.00016264
0.000162649
0.000162649
0.000150603
0.000150603
0.000150713
0.000150713
0.000163495
0.000180481
0.000163507
0.000180538
0.00015062
0.000151158
0.000150731
0.000151269
0.000405547
0.000447681
0.000406008
0.000448927
0.000161241
0.000188373
0.000161369
0.000188469
0.000445555
0.000405015
0.00044677
0.000405467
0.000188203
0.000160992
0.000188296
0.000161122
0.000180436
0.000163488
0.000180505
0.0001635
0.000150918
0.00015038
0.000151034
0.000150494
0.000162631
0.00016263
0.000162639
0.000162639
0.000150362
0.000150362
0.000150476
0.000150476
0.000163481
0.000180397
0.000163494
0.000180466
0.00015038
0.000150915
0.000150494
0.000151031
0.000404928
0.00044563
0.000405379
0.000446846
0.000160985
0.000188203
0.000161115
0.000188296
0.000443583
0.000404421
0.000444761
0.000404864
0.00018804
0.00016073
0.000188129
0.000160863
0.000180366
0.000163474
0.000180429
0.000163486
0.000150668
0.000150131
0.000150787
0.000150249
0.00016262
0.00016262
0.000162629
0.000162629
0.000150114
0.000150114
0.000150231
0.000150231
0.000163468
0.000180327
0.00016348
0.000180391
0.000150131
0.000150666
0.000150249
0.000150785
0.000404335
0.000443658
0.000404777
0.000444836
0.000160723
0.00018804
0.000160856
0.00018813
0.000441703
0.000403856
0.000442836
0.000404287
0.000187884
0.000160465
0.00018797
0.000160599
0.0001803
0.00016346
0.000180363
0.000163473
0.000150412
0.000149877
0.000150534
0.000149997
0.00016261
0.000162609
0.000162618
0.000162618
0.000149859
0.000149859
0.000149979
0.000149979
0.000163454
0.000180262
0.000163466
0.000180325
0.000149876
0.00015041
0.000149997
0.000150531
0.000403771
0.000441778
0.0004042
0.00044291
0.000160458
0.000187885
0.000160592
0.00018797
0.000439934
0.000403327
0.000441013
0.000403743
0.000187738
0.000160196
0.000187819
0.000160332
0.000180239
0.000163446
0.000180299
0.000163458
0.000150151
0.000149616
0.000150275
0.000149739
0.000162598
0.000162598
0.000162607
0.000162607
0.000149599
0.000149599
0.000149721
0.000149721
0.00016344
0.000180201
0.000163452
0.000180261
0.000149616
0.000150149
0.000149739
0.000150272
0.000403242
0.000440008
0.000403657
0.000441087
0.00016019
0.000187738
0.000160325
0.000187819
0.000438288
0.000402834
0.000439307
0.000403235
0.000187601
0.000159926
0.000187677
0.000160063
0.000180181
0.000163432
0.00018024
0.000163444
0.000149886
0.000149352
0.000150011
0.000149476
0.000162587
0.000162586
0.000162595
0.000162595
0.000149334
0.000149334
0.000149458
0.000149458
0.000163426
0.000180144
0.000163438
0.000180202
0.000149352
0.000149883
0.000149476
0.000150009
0.00040275
0.000438362
0.00040315
0.000439381
0.00015992
0.000187602
0.000160056
0.000187678
0.000436802
0.000402374
0.000437731
0.000402766
0.000187477
0.000159655
0.000187546
0.000159792
0.000180128
0.000163418
0.000180184
0.000163429
0.000149617
0.000149084
0.000149744
0.000149209
0.000162574
0.000162574
0.000162583
0.000162582
0.000149066
0.000149066
0.000149192
0.000149192
0.000163412
0.00018009
0.000163423
0.000180146
0.000149084
0.000149615
0.000149209
0.000149741
0.00040229
0.000436875
0.000402682
0.000437805
0.000159649
0.000187477
0.000159786
0.000187547
0.000435079
0.000400029
0.000436292
0.000402132
0.000187338
0.000159329
0.000187427
0.00015952
0.000179964
0.000163413
0.000180112
0.000163414
0.00014934
0.000148809
0.000149474
0.00014894
0.000162574
0.000162573
0.00016257
0.00016257
0.000148791
0.000148791
0.000148923
0.000148923
0.000163407
0.000179927
0.000163408
0.000180075
0.000148808
0.000149337
0.00014894
0.000149471
0.000399945
0.00043515
0.000402048
0.000436365
0.000159322
0.000187339
0.000159513
0.000187427
0.00048756
0.000422523
0.000366006
0.000331026
0.000486655
0.000421339
0.000366656
0.000329273
0.000182436
0.000163032
0.000172911
0.000161334
0.000182344
0.000163037
0.000172803
0.000161336
0.000162056
0.000162056
0.000160856
0.000160856
0.000162065
0.000162064
0.000160862
0.000160862
0.000163025
0.000182394
0.000161331
0.000172895
0.000163031
0.000182303
0.000161334
0.000172787
0.00042243
0.000487639
0.000330997
0.000366032
0.000421247
0.000486733
0.000329244
0.000366681
0.000516478
0.000443623
0.000513075
0.000441142
0.000515137
0.000442433
0.000512025
0.000440284
0.000184771
0.000163701
0.000184502
0.000163646
0.000184675
0.000163708
0.000184419
0.000163654
0.000162604
0.000162603
0.000162562
0.000162561
0.000162614
0.000162614
0.000162573
0.000162572
0.000163694
0.00018472
0.000163638
0.000184453
0.000163701
0.000184625
0.000163646
0.000184371
0.000443502
0.00051658
0.000441026
0.000513173
0.000442316
0.000515239
0.000440169
0.000512122
0.000516662
0.000443732
0.000517018
0.000444023
0.000514745
0.000442235
0.000515141
0.000442403
0.000184728
0.00016359
0.000184783
0.000163702
0.000184622
0.000163596
0.000184677
0.000163708
0.000162589
0.000162588
0.000162603
0.000162603
0.0001626
0.000162599
0.000162614
0.000162614
0.000163582
0.000184677
0.000163694
0.000184731
0.000163589
0.000184571
0.0001637
0.000184627
0.00044361
0.000516763
0.000443901
0.00051712
0.000442111
0.000514839
0.000442285
0.000515244
0.000515896
0.00044317
0.000516454
0.000443567
0.00051432
0.00044195
0.000514785
0.000442304
0.000184628
0.000163633
0.000184688
0.000163658
0.000184533
0.000163641
0.00018459
0.000163665
0.000162587
0.000162586
0.000162594
0.000162593
0.000162598
0.000162597
0.000162605
0.000162604
0.000163626
0.000184577
0.000163651
0.000184637
0.000163635
0.000184483
0.000163658
0.00018454
0.000443052
0.000516003
0.000443449
0.00051656
0.000441835
0.000514428
0.000442191
0.000514894
0.00051497
0.000442523
0.00051556
0.000442931
0.000513454
0.00044135
0.000514039
0.000441754
0.000184527
0.000163566
0.000184587
0.00016366
0.000184434
0.000163573
0.000184494
0.000163667
0.000162585
0.000162585
0.000162593
0.000162592
0.000162596
0.000162596
0.000162604
0.000162603
0.000163558
0.000184475
0.000163652
0.000184535
0.000163565
0.000184383
0.00016366
0.000184443
0.000442401
0.000515071
0.000442809
0.000515662
0.000441232
0.000513556
0.000441633
0.000514141
0.000513983
0.000441854
0.000514602
0.000442269
0.000512466
0.000440681
0.000513086
0.000441098
0.000184427
0.000163613
0.000184485
0.00016364
0.000184334
0.000163619
0.000184393
0.000163647
0.000162586
0.000162585
0.000162592
0.000162591
0.000162597
0.000162596
0.000162603
0.000162603
0.000163607
0.000184376
0.000163632
0.000184434
0.000163613
0.000184283
0.000163639
0.000184341
0.000441741
0.000514095
0.000442151
0.000514707
0.000440558
0.000512563
0.000440975
0.000513184
0.000512998
0.000441213
0.000513621
0.000441619
0.000511462
0.000440024
0.000512095
0.000440438
0.00018433
0.000163548
0.000184388
0.000163642
0.000184235
0.000163555
0.000184294
0.000163649
0.000162584
0.000162584
0.000162592
0.000162591
0.000162596
0.000162595
0.000162603
0.000162602
0.00016354
0.000184279
0.000163635
0.000184337
0.000163547
0.000184185
0.000163642
0.000184243
0.000441093
0.0005131
0.000441501
0.000513727
0.000439908
0.000511566
0.000440319
0.000512195
0.000511983
0.000440577
0.000512624
0.000440982
0.000510432
0.000439374
0.000511079
0.000439784
0.000184235
0.000163594
0.000184292
0.000163623
0.00018414
0.000163602
0.000184197
0.00016363
0.000162585
0.000162584
0.000162591
0.00016259
0.000162596
0.000162596
0.000162602
0.000162602
0.000163589
0.000184185
0.000163616
0.000184241
0.000163594
0.00018409
0.000163623
0.000184147
0.000440461
0.000512089
0.000440865
0.00051273
0.000439259
0.000510536
0.000439669
0.000511184
0.000510958
0.000439963
0.00051161
0.000440362
0.000509386
0.000438743
0.000510045
0.000439147
0.000184143
0.000163531
0.0001842
0.000163625
0.000184047
0.000163538
0.000184103
0.000163633
0.000162583
0.000162583
0.00016259
0.00016259
0.000162595
0.000162595
0.000162602
0.000162602
0.000163523
0.000184092
0.000163619
0.000184149
0.000163531
0.000183997
0.000163625
0.000184053
0.000439843
0.000511059
0.000440243
0.000511714
0.000438626
0.000509489
0.000439032
0.000510149
0.000509894
0.000439349
0.000510572
0.000439752
0.000508308
0.000438118
0.000508991
0.000438524
0.000184054
0.000163574
0.000184109
0.000163607
0.000183958
0.000163584
0.000184013
0.000163615
0.000162584
0.000162583
0.00016259
0.000162589
0.000162596
0.000162595
0.000162601
0.000162601
0.000163569
0.000184003
0.0001636
0.000184057
0.000163575
0.000183907
0.000163607
0.000183962
0.000439227
0.000509992
0.000439629
0.00051067
0.000437997
0.000508405
0.000438405
0.00050909
0.000508789
0.000438739
0.000509491
0.000439142
0.000507187
0.000437495
0.000507896
0.000437904
0.000183965
0.000163515
0.00018402
0.000163609
0.000183869
0.000163523
0.000183924
0.000163617
0.000162583
0.000162582
0.000162589
0.000162589
0.000162595
0.000162594
0.000162601
0.000162601
0.000163508
0.000183914
0.000163602
0.000183969
0.000163515
0.000183819
0.000163609
0.000183874
0.00043862
0.000508889
0.000439022
0.000509591
0.000437376
0.000507285
0.000437783
0.000507992
0.000507633
0.000438128
0.000508367
0.000438535
0.000506011
0.000436869
0.000506753
0.000437282
0.000183878
0.000163553
0.000183932
0.000163592
0.000183783
0.000163563
0.000183837
0.0001636
0.000162583
0.000162583
0.000162589
0.000162588
0.000162595
0.000162595
0.000162601
0.000162601
0.000163546
0.000183827
0.000163585
0.000183881
0.000163555
0.000183733
0.000163592
0.000183787
0.00043801
0.000507734
0.000438417
0.000508468
0.000436752
0.000506111
0.000437165
0.000506852
0.000506423
0.000437517
0.000507188
0.000437927
0.00050478
0.000436242
0.000505553
0.000436659
0.000183792
0.0001635
0.000183846
0.000163592
0.000183696
0.00016351
0.000183751
0.000163601
0.000162582
0.000162582
0.000162589
0.000162588
0.000162595
0.000162594
0.000162601
0.000162601
0.000163493
0.000183741
0.000163585
0.000183795
0.000163503
0.000183647
0.000163593
0.000183701
0.000437399
0.000506523
0.000437809
0.000507289
0.000436125
0.000504879
0.000436542
0.000505653
0.000505157
0.00043691
0.000505954
0.000437321
0.00050349
0.000435617
0.000504297
0.000436036
0.000183708
0.000163537
0.000183761
0.000163578
0.000183615
0.000163594
0.000183666
0.000163588
0.000162582
0.000162582
0.000162588
0.000162588
0.000162597
0.000162597
0.000162601
0.0001626
0.000163531
0.000183658
0.00016357
0.000183711
0.000163587
0.000183565
0.00016358
0.000183616
0.000436793
0.000505258
0.000437203
0.000506055
0.000435501
0.000503589
0.000435919
0.000504396
0.000503833
0.000436307
0.000504665
0.00043672
0.000502139
0.000434995
0.000502982
0.000435416
0.000183629
0.000163592
0.000183679
0.000163578
0.000183534
0.000163605
0.000183584
0.000163607
0.000162585
0.000162584
0.000162588
0.000162588
0.000162598
0.000162598
0.000162602
0.000162602
0.000163584
0.000183579
0.00016357
0.000183628
0.000163598
0.000183484
0.0001636
0.000183534
0.00043619
0.000503933
0.000436602
0.000504765
0.000434879
0.000502238
0.0004353
0.000503081
0.000502445
0.000435708
0.000503314
0.000436122
0.000500722
0.000434375
0.000501603
0.000434798
0.00018355
0.000163595
0.000183599
0.000163602
0.000183454
0.000163603
0.000183504
0.000163611
0.000162585
0.000162585
0.000162589
0.000162589
0.000162598
0.000162598
0.000162603
0.000162602
0.000163587
0.0001835
0.000163594
0.000183549
0.000163596
0.000183405
0.000163603
0.000183454
0.000435591
0.000502545
0.000436005
0.000503414
0.00043426
0.000500821
0.000434683
0.000501702
0.000500988
0.000435111
0.000501897
0.000435528
0.000499235
0.000433757
0.000500156
0.000434183
0.000183472
0.00016359
0.000183521
0.000163598
0.000183376
0.000163599
0.000183425
0.000163607
0.000162585
0.000162584
0.000162589
0.000162589
0.000162599
0.000162598
0.000162603
0.000162602
0.000163583
0.000183422
0.000163591
0.000183471
0.000163592
0.000183327
0.000163599
0.000183375
0.000434995
0.000501088
0.000435411
0.000501996
0.000433642
0.000499333
0.000434068
0.000500254
0.000499456
0.000434516
0.000500407
0.000434935
0.000497672
0.000433139
0.000498635
0.000433568
0.000183396
0.000163586
0.000183445
0.000163594
0.0001833
0.000163595
0.000183348
0.000163602
0.000162584
0.000162584
0.000162589
0.000162588
0.000162599
0.000162598
0.000162603
0.000162603
0.000163579
0.000183346
0.000163586
0.000183395
0.000163587
0.00018325
0.000163595
0.000183299
0.0004344
0.000499555
0.000434819
0.000500506
0.000433025
0.000497769
0.000433454
0.000498733
0.000497847
0.000433922
0.000498841
0.000434344
0.00049603
0.00043252
0.000497038
0.000432954
0.000183323
0.000163582
0.00018337
0.000163589
0.000183225
0.000163591
0.000183273
0.000163598
0.000162584
0.000162584
0.000162589
0.000162588
0.000162599
0.000162599
0.000162604
0.000162603
0.000163574
0.000183273
0.000163582
0.00018332
0.000163583
0.000183176
0.000163591
0.000183224
0.000433807
0.000497946
0.000434229
0.00049894
0.000432407
0.000496127
0.00043284
0.000497135
0.000496163
0.000433331
0.000497199
0.000433756
0.000494308
0.000431903
0.000495361
0.000432339
0.000183251
0.000163578
0.000183298
0.000163585
0.000183153
0.000163587
0.0001832
0.000163594
0.000162584
0.000162584
0.000162589
0.000162588
0.0001626
0.000162599
0.000162604
0.000162604
0.000163571
0.000183201
0.000163578
0.000183248
0.00016358
0.000183104
0.000163587
0.000183151
0.000433216
0.000496261
0.000433641
0.000497298
0.00043179
0.000494405
0.000432226
0.000495458
0.0004944
0.000432741
0.000495481
0.000433169
0.000492506
0.000431285
0.000493603
0.000431725
0.000183181
0.000163574
0.000183228
0.000163582
0.000183082
0.000163584
0.000183129
0.000163591
0.000162584
0.000162584
0.000162589
0.000162589
0.000162601
0.0001626
0.000162605
0.000162605
0.000163567
0.000183132
0.000163574
0.000183178
0.000163577
0.000183033
0.000163584
0.00018308
0.000432628
0.000494498
0.000433055
0.000495579
0.000431172
0.000492602
0.000431612
0.0004937
0.000492562
0.000432154
0.000493684
0.000432584
0.000490624
0.000430667
0.000491765
0.000431111
0.000183114
0.00016357
0.000183159
0.000163577
0.000183013
0.000163581
0.000183059
0.000163588
0.000162585
0.000162584
0.00016259
0.000162589
0.000162602
0.000162602
0.000162607
0.000162606
0.000163562
0.000183064
0.00016357
0.00018311
0.000163573
0.000182964
0.000163581
0.00018301
0.000432041
0.000492659
0.000432471
0.000493782
0.000430555
0.000490719
0.000430999
0.000491861
0.000490645
0.000431564
0.00049181
0.000431999
0.000488665
0.00043005
0.000489848
0.000430497
0.000183048
0.000163566
0.000183093
0.000163574
0.000182946
0.000163578
0.000182992
0.000163586
0.000162586
0.000162585
0.000162591
0.00016259
0.000162604
0.000162604
0.000162609
0.000162608
0.000163559
0.000182999
0.000163566
0.000183044