/*--------------------------------*- C++ -*----------------------------------*\
  =========                 |
  \\      /  F ield         | OpenFOAM: The Open Source CFD Toolbox
   \\    /   O peration     | Website:  https://openfoam.org
    \\  /    A nd           | Version:  9
     \\/     M anipulation  |
\*---------------------------------------------------------------------------*/
FoamFile
{
    format      ascii;
    class       surfaceScalarField;
    location    "0.1";
    object      phi;
}
// * * * * * * * * * * * * * * * * * * * * * * * * * * * * * * * * * * * * * //

dimensions      [0 3 -1 0 0 0 0];

internalField   nonuniform List<scalar> 
104044
(
-2.78504e-11
-2.38268e-05
2.35251e-09
2.38282e-05
-3.75697e-09
-2.38306e-05
2.56383e-09
-6.83384e-11
2.38322e-05
-4.17442e-09
-4.16281e-11
3.7842e-09
-6.46922e-09
3.96268e-09
-2.1187e-11
-6.74242e-09
-3.5228e-11
-9.85069e-06
9.85308e-06
-9.85165e-06
-7.75243e-11
9.85426e-06
-5.3502e-11
-2.92839e-11
-5.13971e-11
-2.38367e-05
2.81734e-09
2.38385e-05
-4.67661e-09
-2.38418e-05
3.00192e-09
-2.39616e-11
2.38439e-05
-5.04958e-09
-2.3785e-11
4.21095e-09
-7.20525e-09
4.41428e-09
-1.3096e-11
-7.57894e-09
-5.92976e-11
-9.85354e-06
9.85634e-06
-9.85515e-06
-2.78284e-11
9.85812e-06
-3.08078e-11
-1.65891e-11
4.05522e-13
-2.38446e-05
3.08209e-09
2.38467e-05
-5.21902e-09
-2.38446e-05
3.07257e-09
2.49361e-11
2.38467e-05
-5.19997e-09
5.51706e-13
4.51117e-09
-7.75674e-09
4.50278e-09
1.45556e-11
-7.73767e-09
7.31219e-13
-9.856e-06
9.85906e-06
-9.85601e-06
2.94802e-11
9.85906e-06
7.49753e-13
1.85374e-11
5.25245e-11
-2.38419e-05
2.97318e-09
2.38439e-05
-4.99029e-09
-2.38367e-05
2.7695e-09
6.95722e-11
2.38385e-05
-4.57355e-09
2.59351e-11
4.38445e-09
-7.51217e-09
4.14947e-09
2.32483e-11
-7.07061e-09
6.14202e-11
-9.85517e-06
9.85812e-06
-9.85358e-06
7.96374e-11
9.85633e-06
3.38408e-11
3.23832e-11
2.93401e-11
-2.38307e-05
2.49864e-09
2.38322e-05
-4.03138e-09
-2.38269e-05
2.27725e-09
2.38282e-05
-3.59081e-09
4.22938e-11
3.86486e-09
-6.53136e-09
3.66154e-09
-6.20132e-09
3.70657e-11
-9.85171e-06
9.85425e-06
-9.85075e-06
9.85306e-06
5.47957e-11
-8.97616e-11
-2.38264e-05
-1.9983e-09
2.38216e-05
6.88416e-09
-2.38306e-05
-1.86798e-09
-1.25176e-10
2.38259e-05
6.63709e-09
-5.4378e-11
-3.68313e-10
2.19692e-09
-2.34068e-10
-1.03937e-10
1.91821e-09
-8.71356e-11
-9.85277e-06
9.85086e-06
-9.85408e-06
-1.30244e-10
9.85225e-06
-5.89218e-11
-1.09284e-10
-1.03596e-10
-2.3837e-05
-1.71053e-09
2.38324e-05
6.32889e-09
-2.38425e-05
-1.60305e-09
-5.22024e-11
2.38379e-05
6.10227e-09
-7.87525e-11
-4.00357e-11
1.54896e-09
8.65461e-11
-3.67661e-11
1.28009e-09
-1.07084e-10
-9.85627e-06
9.85454e-06
-9.85816e-06
-5.40807e-11
9.8565e-06
-8.42169e-11
-3.97426e-11
3.9107e-13
-2.38453e-05
-1.55679e-09
2.38408e-05
5.99673e-09
-2.38453e-05
-1.55372e-09
5.31239e-11
2.38408e-05
5.99238e-09
6.04591e-13
1.35737e-10
1.16246e-09
1.3025e-10
3.81798e-11
1.17256e-09
3.51886e-13
-9.85915e-06
9.85754e-06
-9.85915e-06
5.48923e-11
9.85754e-06
7.3705e-13
4.1149e-11
1.04725e-10
-2.38424e-05
-1.59447e-09
2.38379e-05
6.09073e-09
-2.3837e-05
-1.69799e-09
1.26388e-10
2.38323e-05
6.31362e-09
7.98216e-11
7.19041e-11
1.30903e-09
-6.39078e-11
1.05065e-10
1.59362e-09
1.08284e-10
-9.85814e-06
9.85649e-06
-9.85624e-06
1.31394e-10
9.85452e-06
8.61135e-11
1.10523e-10
9.06047e-11
-2.38306e-05
-1.85383e-09
2.38258e-05
6.62072e-09
-2.38264e-05
-1.98312e-09
2.38216e-05
6.86729e-09
5.5296e-11
-2.59419e-10
1.97221e-09
-3.93592e-10
2.25373e-09
8.80781e-11
-9.85404e-06
9.85223e-06
-9.85273e-06
9.85083e-06
5.99161e-11
-1.14552e-10
-2.38144e-05
-3.96895e-09
2.3805e-05
1.35421e-08
-2.38187e-05
-3.89579e-09
-1.65342e-10
2.38093e-05
1.33913e-08
-1.00313e-10
-3.03655e-09
1.03369e-08
-2.94928e-09
-1.42322e-10
1.01583e-08
-1.09162e-10
-9.84792e-06
9.84406e-06
-9.84935e-06
-1.66926e-10
9.84552e-06
-9.71339e-11
-1.45997e-10
-1.43748e-10
-2.38252e-05
-3.78644e-09
2.38158e-05
1.31927e-08
-2.38308e-05
-3.71172e-09
-7.65134e-11
2.38214e-05
1.30414e-08
-1.22381e-10
-2.83322e-09
9.93093e-09
-2.75557e-09
-6.38738e-11
9.7622e-09
-1.44283e-10
-9.85168e-06
9.84788e-06
-9.85369e-06
-7.69737e-11
9.84991e-06
-1.24311e-10
-6.49518e-11
4.58802e-13
-2.38338e-05
-3.68104e-09
2.38245e-05
1.2972e-08
-2.38338e-05
-3.67999e-09
7.75467e-11
2.38245e-05
1.29701e-08
3.29311e-13
-2.72351e-09
9.68423e-09
-2.72008e-09
6.46512e-11
9.67853e-09
4.17389e-13
-9.85475e-06
9.85099e-06
-9.85475e-06
7.79152e-11
9.851e-06
2.75236e-13
6.563e-11
1.44988e-10
-2.38308e-05
-3.70868e-09
2.38214e-05
1.30357e-08
-2.38252e-05
-3.78186e-09
1.66753e-10
2.38158e-05
1.31837e-08
1.23516e-10
-2.74654e-09
9.74705e-09
-2.82168e-09
1.43707e-10
9.91108e-09
1.45402e-10
-9.85369e-06
9.84991e-06
-9.85168e-06
1.68125e-10
9.84788e-06
1.25392e-10
1.4731e-10
1.15064e-10
-2.38187e-05
-3.89028e-09
2.38093e-05
1.33799e-08
-2.38144e-05
-3.96209e-09
2.3805e-05
1.35294e-08
1.01132e-10
-2.93827e-09
1.01382e-08
-3.02677e-09
1.03183e-08
1.09774e-10
-9.84934e-06
9.84551e-06
-9.8479e-06
9.84405e-06
9.79757e-11
-1.37186e-10
-2.37936e-05
-5.54434e-09
2.37801e-05
1.92148e-08
-2.37979e-05
-5.47444e-09
-1.97147e-10
2.37843e-05
1.90802e-08
-1.26039e-10
-4.72432e-09
1.62442e-08
-4.65068e-09
-1.81176e-10
1.61008e-08
-1.27786e-10
-9.83946e-06
9.83404e-06
-9.84093e-06
-1.97676e-10
9.83552e-06
-1.18478e-10
-1.82061e-10
-1.76924e-10
-2.38044e-05
-5.36533e-09
2.37909e-05
1.89052e-08
-2.38101e-05
-5.28718e-09
-9.81048e-11
2.37965e-05
1.87644e-08
-1.59799e-10
-4.53797e-09
1.59112e-08
-4.45841e-09
-8.68222e-11
1.57623e-08
-1.76073e-10
-9.84332e-06
9.83793e-06
-9.84538e-06
-9.76519e-11
9.84001e-06
-1.59644e-10
-8.68596e-11
3.08525e-13
-2.38131e-05
-5.25259e-09
2.37996e-05
1.86977e-08
-2.38131e-05
-5.25485e-09
9.88045e-11
2.37996e-05
1.87014e-08
4.33964e-13
-4.42455e-09
1.56931e-08
-4.42607e-09
8.77011e-11
1.56954e-08
4.0289e-13
-9.84648e-06
9.84113e-06
-9.84648e-06
9.84801e-11
9.84113e-06
4.87496e-13
8.77954e-11
1.77749e-10
-2.38101e-05
-5.29296e-09
2.37965e-05
1.87741e-08
-2.38044e-05
-5.37248e-09
1.97886e-10
2.37908e-05
1.89173e-08
1.60697e-10
-4.46146e-09
1.57671e-08
-4.53947e-09
1.81948e-10
1.59139e-08
1.76962e-10
-9.84538e-06
9.84001e-06
-9.84331e-06
1.98534e-10
9.83792e-06
1.60512e-10
1.82782e-10
1.38042e-10
-2.37979e-05
-5.48152e-09
2.37843e-05
1.90923e-08
-2.37936e-05
-5.55212e-09
2.378e-05
1.92268e-08
1.2672e-10
-4.64878e-09
1.60984e-08
-4.72003e-09
1.62383e-08
1.28499e-10
-9.84093e-06
9.83551e-06
-9.83945e-06
9.83403e-06
1.19104e-10
-1.50838e-10
-2.37646e-05
-7.17703e-09
2.37469e-05
2.50491e-08
-2.37689e-05
-7.1151e-09
-2.17729e-10
2.37511e-05
2.493e-08
-1.43458e-10
-6.2735e-09
2.18506e-08
-6.20841e-09
-2.06485e-10
2.1726e-08
-1.38261e-10
-9.8279e-06
9.82086e-06
-9.82939e-06
-2.17945e-10
9.82235e-06
-1.32532e-10
-2.0679e-10
-2.01202e-10
-2.37754e-05
-7.00963e-09
2.37576e-05
2.47737e-08
-2.3781e-05
-6.92854e-09
-1.15148e-10
2.37632e-05
2.46372e-08
-1.88254e-10
-6.10308e-09
2.1564e-08
-6.02472e-09
-1.06192e-10
2.1428e-08
-1.99449e-10
-9.8318e-06
9.82478e-06
-9.83391e-06
-1.14084e-10
9.82689e-06
-1.86895e-10
-1.05423e-10
2.80423e-13
-2.37841e-05
-6.88604e-09
2.37663e-05
2.45635e-08
-2.37841e-05
-6.88416e-09
1.15893e-10
2.37663e-05
2.45605e-08
3.03559e-13
-5.98638e-09
2.13586e-08
-5.98629e-09
1.06968e-10
2.13587e-08
2.19121e-13
-9.83504e-06
9.82804e-06
-9.83504e-06
1.14711e-10
9.82804e-06
2.7844e-13
1.06152e-10
2.02328e-10
-2.3781e-05
-6.92408e-09
2.37632e-05
2.46301e-08
-2.37754e-05
-7.00524e-09
2.19113e-10
2.37576e-05
2.47666e-08
1.89352e-10
-6.0252e-09
2.14294e-08
-6.1058e-09
2.0778e-10
2.15689e-08
2.00514e-10
-9.8339e-06
9.82689e-06
-9.83179e-06
2.19257e-10
9.82477e-06
1.8797e-10
2.08059e-10
1.51512e-10
-2.37688e-05
-7.11261e-09
2.37511e-05
2.4926e-08
-2.37646e-05
-7.17564e-09
2.37469e-05
2.50476e-08
1.44184e-10
-6.21425e-09
2.17357e-08
-6.28118e-09
2.18629e-08
1.39071e-10
-9.82938e-06
9.82234e-06
-9.82788e-06
9.82085e-06
1.3332e-10
-1.58607e-10
-2.37271e-05
-8.99253e-09
2.37048e-05
3.14501e-08
-2.37313e-05
-8.93815e-09
-2.29335e-10
2.3709e-05
3.13421e-08
-1.5375e-10
-7.9827e-09
2.7889e-08
-7.92517e-09
-2.22465e-10
2.77777e-08
-1.42891e-10
-9.81302e-06
9.80417e-06
-9.81451e-06
-2.29624e-10
9.80566e-06
-1.39726e-10
-2.22619e-10
-2.17097e-10
-2.37378e-05
-8.83712e-09
2.37154e-05
3.1203e-08
-2.37434e-05
-8.75798e-09
-1.27111e-10
2.3721e-05
3.10762e-08
-2.08123e-10
-7.82274e-09
2.76315e-08
-7.74304e-09
-1.20604e-10
2.7501e-08
-2.14493e-10
-9.81694e-06
9.80809e-06
-9.81907e-06
-1.25246e-10
9.81022e-06
-2.05911e-10
-1.19117e-10
3.69662e-13
-2.37464e-05
-8.71527e-09
2.3724e-05
3.10068e-08
-2.37464e-05
-8.71531e-09
1.27982e-10
2.3724e-05
3.1007e-08
2.58877e-13
-7.70056e-09
2.74299e-08
-7.69956e-09
1.21275e-10
2.74282e-08
3.83072e-13
-9.82022e-06
9.81138e-06
-9.82022e-06
1.26129e-10
9.81138e-06
2.49988e-13
1.19778e-10
2.18215e-10
-2.37434e-05
-8.75788e-09
2.3721e-05
3.10762e-08
-2.37378e-05
-8.83639e-09
2.30512e-10
2.37154e-05
3.12021e-08
2.0911e-10
-7.74038e-09
2.74967e-08
-7.81922e-09
2.23538e-10
2.76259e-08
2.1559e-10
-9.81907e-06
9.81022e-06
-9.81694e-06
2.30741e-10
9.80809e-06
2.06895e-10
2.23684e-10
1.5929e-10
-2.37313e-05
-8.93646e-09
2.3709e-05
3.13398e-08
-2.37271e-05
-8.99007e-09
2.37048e-05
3.14474e-08
1.54502e-10
-7.92157e-09
2.77722e-08
-7.97942e-09
2.78853e-08
1.43573e-10
-9.81451e-06
9.80566e-06
-9.81301e-06
9.80416e-06
1.40563e-10
-1.61027e-10
-2.36803e-05
-1.1026e-08
2.36529e-05
3.85748e-08
-2.36845e-05
-1.09819e-08
-2.32548e-10
2.3657e-05
3.84775e-08
-1.58638e-10
-9.87662e-09
3.45526e-08
-9.82748e-09
-2.29207e-10
3.44507e-08
-1.4209e-10
-9.79443e-06
9.78355e-06
-9.79592e-06
-2.33327e-10
9.78503e-06
-1.41547e-10
-2.29781e-10
-2.24307e-10
-2.36908e-05
-1.08887e-08
2.36633e-05
3.83579e-08
-2.36963e-05
-1.08153e-08
-1.33513e-10
2.36688e-05
3.82437e-08
-2.19177e-10
-9.73141e-09
3.43228e-08
-9.65583e-09
-1.29433e-10
3.42035e-08
-2.21235e-10
-9.79835e-06
9.78744e-06
-9.80048e-06
-1.31126e-10
9.78957e-06
-2.16392e-10
-1.27355e-10
4.40172e-13
-2.36994e-05
-1.0774e-08
2.36718e-05
3.81794e-08
-2.36994e-05
-1.07744e-08
1.34526e-10
2.36718e-05
3.81801e-08
4.95292e-13
-9.61407e-09
3.41371e-08
-9.61413e-09
1.30549e-10
3.41373e-08
4.42845e-13
-9.80164e-06
9.79073e-06
-9.80164e-06
1.32132e-10
9.79073e-06
4.75675e-13
1.2841e-10
2.25543e-10
-2.36963e-05
-1.08165e-08
2.36688e-05
3.82458e-08
-2.36908e-05
-1.08911e-08
2.33719e-10
2.36633e-05
3.83616e-08
2.20486e-10
-9.65589e-09
3.42037e-08
-9.73123e-09
2.30531e-10
3.43224e-08
2.22453e-10
-9.80048e-06
9.78957e-06
-9.79834e-06
2.34483e-10
9.78744e-06
2.17612e-10
2.30939e-10
1.61871e-10
-2.36844e-05
-1.09855e-08
2.3657e-05
3.84828e-08
-2.36803e-05
-1.10304e-08
2.36529e-05
3.85805e-08
1.59305e-10
-9.82665e-09
3.44492e-08
-9.87452e-09
3.4549e-08
1.42901e-10
-9.79592e-06
9.78502e-06
-9.79443e-06
9.78354e-06
1.42202e-10
-1.60514e-10
-2.36231e-05
-1.33075e-08
2.359e-05
4.65611e-08
-2.36271e-05
-1.32722e-08
-2.29404e-10
2.3594e-05
4.64728e-08
-1.59381e-10
-1.20182e-08
4.2039e-08
-1.19797e-08
-2.29541e-10
4.19487e-08
-1.38198e-10
-9.77167e-06
9.7585e-06
-9.77314e-06
-2.31017e-10
9.75996e-06
-1.39013e-10
-2.30533e-10
-2.24773e-10
-2.36334e-05
-1.31845e-08
2.36002e-05
4.63685e-08
-2.36388e-05
-1.31163e-08
-1.35441e-10
2.36056e-05
4.62646e-08
-2.2317e-10
-1.18903e-08
4.18385e-08
-1.18199e-08
-1.33758e-10
4.17308e-08
-2.2145e-10
-9.77554e-06
9.76235e-06
-9.77766e-06
-1.32646e-10
9.76446e-06
-2.19918e-10
-1.3113e-10
4.05636e-13
-2.36418e-05
-1.30765e-08
2.36085e-05
4.62046e-08
-2.36418e-05
-1.30762e-08
1.36403e-10
2.36085e-05
4.62041e-08
3.43466e-13
-1.17795e-08
4.16692e-08
-1.17796e-08
1.34576e-10
4.16696e-08
3.9776e-13
-9.77882e-06
9.76561e-06
-9.77882e-06
1.33586e-10
9.76561e-06
3.70885e-13
1.32001e-10
2.26001e-10
-2.36388e-05
-1.31154e-08
2.36056e-05
4.62636e-08
-2.36334e-05
-1.31838e-08
2.30709e-10
2.36002e-05
4.63679e-08
2.24261e-10
-1.18205e-08
4.17324e-08
-1.18922e-08
2.30575e-10
4.18425e-08
2.2265e-10
-9.77766e-06
9.76445e-06
-9.77553e-06
2.32283e-10
9.76234e-06
2.21057e-10
2.31727e-10
1.61214e-10
-2.36271e-05
-1.32721e-08
2.3594e-05
4.64733e-08
-2.36231e-05
-1.33077e-08
2.359e-05
4.65624e-08
1.60287e-10
-1.19836e-08
4.19558e-08
-1.20246e-08
4.20492e-08
1.38944e-10
-9.77313e-06
9.75995e-06
-9.77166e-06
9.75849e-06
1.39857e-10
-1.57837e-10
-2.35541e-05
-1.58974e-08
2.35146e-05
5.55687e-08
-2.35581e-05
-1.58685e-08
-2.21861e-10
2.35186e-05
5.5484e-08
-1.57776e-10
-1.44101e-08
5.04094e-08
-1.43775e-08
-2.23551e-10
5.03236e-08
-1.31905e-10
-9.74423e-06
9.72846e-06
-9.74568e-06
-2.24777e-10
9.72991e-06
-1.33877e-10
-2.25871e-10
-2.19987e-10
-2.35642e-05
-1.57827e-08
2.35246e-05
5.53884e-08
-2.35696e-05
-1.57182e-08
-1.33602e-10
2.35299e-05
5.52908e-08
-2.20504e-10
-1.42923e-08
5.02251e-08
-1.42272e-08
-1.33437e-10
5.0126e-08
-2.16751e-10
-9.74805e-06
9.73226e-06
-9.75014e-06
-1.30577e-10
9.73434e-06
-2.17265e-10
-1.30568e-10
5.31768e-13
-2.35725e-05
-1.56809e-08
2.35328e-05
5.52352e-08
-2.35725e-05
-1.56816e-08
1.34705e-10
2.35328e-05
5.52363e-08
4.94703e-13
-1.41895e-08
5.00692e-08
-1.41897e-08
1.34544e-10
5.00696e-08
5.55075e-13
-9.75129e-06
9.73548e-06
-9.75129e-06
1.31713e-10
9.73548e-06
4.79977e-13
1.31627e-10
2.21172e-10
-2.35696e-05
-1.57199e-08
2.35299e-05
5.52935e-08
-2.35642e-05
-1.57844e-08
2.23036e-10
2.35246e-05
5.53911e-08
2.21797e-10
-1.42277e-08
5.01267e-08
-1.42926e-08
2.24951e-10
5.02253e-08
2.1795e-10
-9.75014e-06
9.73434e-06
-9.74804e-06
2.25956e-10
9.73225e-06
2.18491e-10
2.27091e-10
1.58419e-10
-2.35581e-05
-1.58693e-08
2.35186e-05
5.54855e-08
-2.35541e-05
-1.58976e-08
2.35146e-05
5.55705e-08
1.58383e-10
-1.43771e-08
5.03226e-08
-1.44077e-08
5.04069e-08
1.32529e-10
-9.74567e-06
9.7299e-06
-9.74421e-06
9.72845e-06
1.34649e-10
-1.5396e-10
-2.3472e-05
-1.88506e-08
2.34252e-05
6.57814e-08
-2.34759e-05
-1.88314e-08
-2.11541e-10
2.34291e-05
6.57027e-08
-1.54373e-10
-1.71705e-08
5.99549e-08
-1.71459e-08
-2.15008e-10
5.98737e-08
-1.23737e-10
-9.71142e-06
9.69269e-06
-9.71286e-06
-2.1602e-10
9.69412e-06
-1.26668e-10
-2.18608e-10
-2.11749e-10
-2.34819e-05
-1.87529e-08
2.3435e-05
6.56241e-08
-2.34872e-05
-1.86968e-08
-1.29339e-10
2.34402e-05
6.55394e-08
-2.14146e-10
-1.70633e-08
5.97855e-08
-1.70021e-08
-1.30462e-10
5.96933e-08
-2.0874e-10
-9.71519e-06
9.69643e-06
-9.71726e-06
-1.26205e-10
9.69848e-06
-2.11044e-10
-1.27404e-10
5.65796e-13
-2.349e-05
-1.86631e-08
2.34431e-05
6.54897e-08
-2.349e-05
-1.86626e-08
1.30536e-10
2.34431e-05
6.54888e-08
5.18501e-13
-1.69661e-08
5.964e-08
-1.69663e-08
1.31542e-10
5.96403e-08
5.44173e-13
-9.71839e-06
9.6996e-06
-9.71839e-06
1.2736e-10
9.6996e-06
5.34398e-13
1.28518e-10
2.13038e-10
-2.34872e-05
-1.86956e-08
2.34402e-05
6.55373e-08
-2.34819e-05
-1.87517e-08
2.12767e-10
2.3435e-05
6.56219e-08
2.15291e-10
-1.70026e-08
5.96942e-08
-1.7064e-08
2.16011e-10
5.97867e-08
2.0999e-10
-9.71725e-06
9.69847e-06
-9.71518e-06
2.1717e-10
9.69642e-06
2.12227e-10
2.19677e-10
1.54649e-10
-2.34759e-05
-1.88309e-08
2.34291e-05
6.57012e-08
-2.3472e-05
-1.88503e-08
2.34252e-05
6.57802e-08
1.55069e-10
-1.71467e-08
5.9875e-08
-1.71715e-08
5.99574e-08
1.24498e-10
-9.71285e-06
9.69411e-06
-9.71141e-06
9.69268e-06
1.27412e-10
-1.49769e-10
-2.3375e-05
-2.21795e-08
2.332e-05
7.72706e-08
-2.33788e-05
-2.21707e-08
-1.99998e-10
2.33238e-05
7.71977e-08
-1.50308e-10
-2.02631e-08
7.06522e-08
-2.025e-08
-2.03695e-10
7.05788e-08
-1.14947e-10
-9.67255e-06
9.65048e-06
-9.67396e-06
-2.06158e-10
9.65187e-06
-1.1819e-10
-2.08892e-10
-2.01752e-10
-2.33847e-05
-2.20983e-08
2.33297e-05
7.71351e-08
-2.33899e-05
-2.20511e-08
-1.23724e-10
2.33348e-05
7.70637e-08
-2.04738e-10
-2.01766e-08
7.05109e-08
-2.01266e-08
-1.25322e-10
7.04355e-08
-1.99091e-10
-9.67624e-06
9.65414e-06
-9.67827e-06
-1.20546e-10
9.65614e-06
-2.01899e-10
-1.22185e-10
5.91197e-13
-2.33927e-05
-2.20226e-08
2.33375e-05
7.7022e-08
-2.33927e-05
-2.2022e-08
1.24948e-10
2.33375e-05
7.70211e-08
5.92733e-13
-2.00963e-08
7.0391e-08
-2.00955e-08
1.26562e-10
7.03896e-08
5.47277e-13
-9.67938e-06
9.65723e-06
-9.67938e-06
1.21683e-10
9.65723e-06
5.42338e-13
1.23328e-10
2.03e-10
-2.33898e-05
-2.20496e-08
2.33348e-05
7.70612e-08
-2.33847e-05
-2.20966e-08
2.01034e-10
2.33297e-05
7.71321e-08
2.06047e-10
-2.01245e-08
7.04319e-08
-2.01743e-08
2.04921e-10
7.05067e-08
2.00271e-10
-9.67827e-06
9.65614e-06
-9.67624e-06
2.07165e-10
9.65413e-06
2.03121e-10
2.10033e-10
1.50569e-10
-2.33788e-05
-2.21694e-08
2.33238e-05
7.7195e-08
-2.3375e-05
-2.21787e-08
2.332e-05
7.72678e-08
1.51046e-10
-2.0248e-08
7.0575e-08
-2.02615e-08
7.06481e-08
1.15726e-10
-9.67395e-06
9.65187e-06
-9.67254e-06
9.65048e-06
1.18896e-10
-1.46463e-10
-2.32612e-05
-2.59256e-08
2.31971e-05
9.01719e-08
-2.3265e-05
-2.59227e-08
-1.88026e-10
2.32008e-05
9.00977e-08
-1.46526e-10
-2.37733e-08
8.2746e-08
-2.37676e-08
-1.92115e-10
8.26741e-08
-1.06721e-10
-9.62681e-06
9.601e-06
-9.62819e-06
-1.965e-10
9.60236e-06
-1.09675e-10
-1.99269e-10
-1.91385e-10
-2.32708e-05
-2.58497e-08
2.32066e-05
9.00407e-08
-2.32758e-05
-2.58059e-08
-1.1774e-10
2.32115e-05
8.99729e-08
-1.94622e-10
-2.36957e-08
8.26152e-08
-2.36508e-08
-1.19548e-10
8.25467e-08
-1.89354e-10
-9.63043e-06
9.60458e-06
-9.63241e-06
-1.1463e-10
9.60653e-06
-1.92279e-10
-1.16421e-10
6.52719e-13
-2.32785e-05
-2.57798e-08
2.32143e-05
8.99343e-08
-2.32785e-05
-2.57799e-08
1.19065e-10
2.32142e-05
8.99344e-08
6.10988e-13
-2.36239e-08
8.25073e-08
-2.36239e-08
1.20794e-10
8.25072e-08
6.34541e-13
-9.63349e-06
9.6076e-06
-9.63349e-06
1.15907e-10
9.6076e-06
5.90486e-13
1.17614e-10
1.92682e-10
-2.32758e-05
-2.5806e-08
2.32115e-05
8.99732e-08
-2.32707e-05
-2.58499e-08
1.89105e-10
2.32066e-05
9.00408e-08
1.95851e-10
-2.36508e-08
8.25466e-08
-2.3696e-08
1.93096e-10
8.26154e-08
1.90603e-10
-9.63241e-06
9.60653e-06
-9.63043e-06
1.97571e-10
9.60457e-06
1.93461e-10
2.00288e-10
1.47113e-10
-2.3265e-05
-2.59229e-08
2.32008e-05
9.00976e-08
-2.32612e-05
-2.59261e-08
2.31971e-05
9.01717e-08
1.47241e-10
-2.37685e-08
8.2675e-08
-2.37753e-08
8.27473e-08
1.07304e-10
-9.62819e-06
9.60236e-06
-9.62681e-06
9.60099e-06
1.10312e-10
-1.44256e-10
-2.31287e-05
-3.01475e-08
2.30544e-05
1.04634e-07
-2.31324e-05
-3.01531e-08
-1.77237e-10
2.3058e-05
1.04561e-07
-1.43699e-10
-2.77024e-08
9.62434e-08
-2.77029e-08
-1.80597e-10
9.61705e-08
-9.89832e-11
-9.5734e-06
9.54335e-06
-9.57475e-06
-1.88186e-10
9.54468e-06
-1.0168e-10
-1.90197e-10
-1.81951e-10
-2.31381e-05
-3.00808e-08
2.30637e-05
1.04513e-07
-2.3143e-05
-3.00415e-08
-1.12219e-10
2.30685e-05
1.0445e-07
-1.84588e-10
-2.76306e-08
9.61176e-08
-2.7589e-08
-1.13707e-10
9.60523e-08
-1.8053e-10
-9.57694e-06
9.54685e-06
-9.57887e-06
-1.09134e-10
9.54876e-06
-1.82887e-10
-1.10651e-10
7.16516e-13
-2.31457e-05
-3.00178e-08
2.30712e-05
1.04414e-07
-2.31457e-05
-3.00174e-08
1.13646e-10
2.30712e-05
1.04414e-07
6.80185e-13
-2.75639e-08
9.60149e-08
-2.75634e-08
1.15075e-10
9.60143e-08
7.3624e-13
-9.57992e-06
9.5498e-06
-9.57992e-06
1.1059e-10
9.5498e-06
6.79424e-13
1.11999e-10
1.833e-10
-2.3143e-05
-3.00401e-08
2.30685e-05
1.04448e-07
-2.31381e-05
-3.00783e-08
1.78352e-10
2.30637e-05
1.0451e-07
1.85901e-10
-2.75875e-08
9.60504e-08
-2.7628e-08
1.81681e-10
9.6114e-08
1.81895e-10
-9.57887e-06
9.54876e-06
-9.57694e-06
1.89316e-10
9.54685e-06
1.84171e-10
1.91245e-10
1.44831e-10
-2.31324e-05
-3.01496e-08
2.3058e-05
1.04557e-07
-2.31287e-05
-3.01436e-08
2.30544e-05
1.04629e-07
1.44285e-10
-2.76994e-08
9.61654e-08
-2.76982e-08
9.62373e-08
9.94936e-11
-9.57475e-06
9.54469e-06
-9.57339e-06
9.54335e-06
1.02245e-10
-1.43951e-10
-2.29753e-05
-3.48698e-08
2.28895e-05
1.20787e-07
-2.29789e-05
-3.48831e-08
-1.68059e-10
2.28931e-05
1.20712e-07
-1.42345e-10
-3.2121e-08
1.11364e-07
-3.213e-08
-1.70612e-10
1.11292e-07
-9.23214e-11
-9.51132e-06
9.47655e-06
-9.51264e-06
-1.82036e-10
9.47785e-06
-9.44687e-11
-1.82873e-10
-1.74388e-10
-2.29845e-05
-3.48112e-08
2.28986e-05
1.20673e-07
-2.29893e-05
-3.47775e-08
-1.07805e-10
2.29034e-05
1.20617e-07
-1.76024e-10
-3.20593e-08
1.1125e-07
-3.20237e-08
-1.08692e-10
1.11192e-07
-1.73623e-10
-9.51479e-06
9.47997e-06
-9.51667e-06
-1.04717e-10
9.48182e-06
-1.74922e-10
-1.05629e-10
8.21683e-13
-2.29919e-05
-3.47576e-08
2.2906e-05
1.20586e-07
-2.29919e-05
-3.47589e-08
1.09414e-10
2.2906e-05
1.20588e-07
7.59624e-13
-3.20025e-08
1.11159e-07
-3.20029e-08
1.102e-10
1.1116e-07
8.72495e-13
-9.51769e-06
9.48283e-06
-9.51769e-06
1.06428e-10
9.48283e-06
8.08589e-13
1.0722e-10
1.75854e-10
-2.29893e-05
-3.47813e-08
2.29034e-05
1.20623e-07
-2.29845e-05
-3.48176e-08
1.69258e-10
2.28986e-05
1.20683e-07
1.77429e-10
-3.2025e-08
1.11194e-07
-3.20613e-08
1.71737e-10
1.11253e-07
1.75186e-10
-9.51667e-06
9.48182e-06
-9.51479e-06
1.83304e-10
9.47996e-06
1.764e-10
1.84048e-10
1.44489e-10
-2.29789e-05
-3.48918e-08
2.28931e-05
1.20726e-07
-2.29753e-05
-3.48799e-08
2.28895e-05
1.20803e-07
1.42923e-10
-3.21326e-08
1.11297e-07
-3.21235e-08
1.11369e-07
9.28833e-11
-9.51264e-06
9.47784e-06
-9.51132e-06
9.47654e-06
9.50417e-11
-1.45246e-10
-2.27985e-05
-4.01004e-08
2.27002e-05
1.38599e-07
-2.28021e-05
-4.01208e-08
-1.61493e-10
2.27037e-05
1.38521e-07
-1.42829e-10
-3.70477e-08
1.28174e-07
-3.70639e-08
-1.62757e-10
1.28099e-07
-8.66731e-11
-9.43959e-06
9.39957e-06
-9.44088e-06
-1.78717e-10
9.40085e-06
-8.83838e-11
-1.78136e-10
-1.69347e-10
-2.28076e-05
-4.00453e-08
2.27091e-05
1.38486e-07
-2.28123e-05
-4.00126e-08
-1.0495e-10
2.27138e-05
1.3843e-07
-1.69725e-10
-3.69911e-08
1.28062e-07
-3.69585e-08
-1.0505e-10
1.28007e-07
-1.69345e-10
-9.44297e-06
9.40291e-06
-9.4448e-06
-1.01941e-10
9.40472e-06
-1.69338e-10
-1.02033e-10
8.63783e-13
-2.28148e-05
-3.99921e-08
2.27163e-05
1.38397e-07
-2.28148e-05
-3.99906e-08
1.06584e-10
2.27163e-05
1.38395e-07
8.32999e-13
-3.69391e-08
1.27976e-07
-3.69397e-08
1.06664e-10
1.27977e-07
8.20074e-13
-9.44579e-06
9.40569e-06
-9.44578e-06
1.03482e-10
9.40569e-06
8.47614e-13
1.03678e-10
1.70718e-10
-2.28123e-05
-4.0008e-08
2.27138e-05
1.38423e-07
-2.28075e-05
-4.00377e-08
1.62467e-10
2.27091e-05
1.38475e-07
1.71151e-10
-3.69606e-08
1.2801e-07
-3.69949e-08
1.63855e-10
1.28068e-07
1.70632e-10
-9.44479e-06
9.40471e-06
-9.44296e-06
1.79632e-10
9.40291e-06
1.7081e-10
1.79293e-10
1.45798e-10
-2.28021e-05
-4.01107e-08
2.27037e-05
1.38506e-07
-2.27985e-05
-4.00885e-08
2.27002e-05
1.38582e-07
1.43405e-10
-3.70692e-08
1.28107e-07
-3.70542e-08
1.28183e-07
8.72794e-11
-9.44087e-06
9.40085e-06
-9.43957e-06
9.39957e-06
8.89792e-11
-1.48876e-10
-2.25961e-05
-4.58786e-08
2.24839e-05
1.58254e-07
-2.25996e-05
-4.59066e-08
-1.57198e-10
2.24873e-05
1.58171e-07
-1.45234e-10
-4.25008e-08
1.46736e-07
-4.25245e-08
-1.57455e-10
1.46658e-07
-8.27912e-11
-9.35716e-06
9.31136e-06
-9.35842e-06
-1.7841e-10
9.31261e-06
-8.36466e-11
-1.76336e-10
-1.67229e-10
-2.2605e-05
-4.5828e-08
2.24927e-05
1.58143e-07
-2.26096e-05
-4.5799e-08
-1.03938e-10
2.24972e-05
1.58089e-07
-1.66194e-10
-4.24479e-08
1.46626e-07
-4.24168e-08
-1.03137e-10
1.4657e-07
-1.67999e-10
-9.36046e-06
9.31462e-06
-9.36223e-06
-1.00892e-10
9.31636e-06
-1.66579e-10
-1.00176e-10
9.81316e-13
-2.26121e-05
-4.57818e-08
2.24997e-05
1.5806e-07
-2.26121e-05
-4.57829e-08
1.05774e-10
2.24997e-05
1.58062e-07
9.04787e-13
-4.2397e-08
1.46538e-07
-4.2395e-08
1.04825e-10
1.46535e-07
9.58499e-13
-9.36319e-06
9.31731e-06
-9.36319e-06
1.0268e-10
9.31731e-06
8.2318e-13
1.01704e-10
1.6872e-10
-2.26096e-05
-4.58024e-08
2.24972e-05
1.58094e-07
-2.2605e-05
-4.58334e-08
1.58257e-10
2.24926e-05
1.58151e-07
1.6756e-10
-4.24106e-08
1.46561e-07
-4.24374e-08
1.58357e-10
1.46611e-07
1.69466e-10
-9.36224e-06
9.31637e-06
-9.36047e-06
1.79464e-10
9.31462e-06
1.67814e-10
1.77175e-10
1.49418e-10
-2.25996e-05
-4.59136e-08
2.24873e-05
1.58182e-07
-2.25961e-05
-4.58861e-08
2.24838e-05
1.58266e-07
1.45798e-10
-4.25099e-08
1.46637e-07
-4.24833e-08
1.46712e-07
8.3411e-11
-9.35843e-06
9.31261e-06
-9.35717e-06
9.31137e-06
8.42501e-11
-1.55039e-10
-2.23654e-05
-5.22252e-08
2.2238e-05
1.79773e-07
-2.23688e-05
-5.22613e-08
-1.55873e-10
2.22414e-05
1.79684e-07
-1.50079e-10
-4.85063e-08
1.67122e-07
-4.85377e-08
-1.54583e-10
1.67039e-07
-8.08809e-11
-9.26293e-06
9.21079e-06
-9.26416e-06
-1.81597e-10
9.21201e-06
-8.07283e-11
-1.77718e-10
-1.68314e-10
-2.23741e-05
-5.21773e-08
2.22466e-05
1.79661e-07
-2.23786e-05
-5.21497e-08
-1.04985e-10
2.22511e-05
1.79607e-07
-1.65646e-10
-4.84578e-08
1.67014e-07
-4.84308e-08
-1.03129e-10
1.66962e-07
-1.6993e-10
-9.26615e-06
9.21396e-06
-9.26787e-06
-1.01891e-10
9.21565e-06
-1.66811e-10
-1.00072e-10
1.00187e-12
-2.23811e-05
-5.21329e-08
2.22535e-05
1.79578e-07
-2.23811e-05
-5.21335e-08
1.0688e-10
2.22535e-05
1.79579e-07
1.0042e-12
-4.84156e-08
1.66936e-07
-4.84189e-08
1.05018e-10
1.66941e-07
9.74632e-13
-9.26879e-06
9.21656e-06
-9.26879e-06
1.0373e-10
9.21655e-06
1.01584e-12
1.01989e-10
1.69872e-10
-2.23786e-05
-5.21515e-08
2.22511e-05
1.7961e-07
-2.23741e-05
-5.21802e-08
1.56935e-10
2.22466e-05
1.79666e-07
1.67197e-10
-4.84408e-08
1.66977e-07
-4.84742e-08
1.55687e-10
1.67039e-07
1.71468e-10
-9.26786e-06
9.21564e-06
-9.26614e-06
1.82715e-10
9.21395e-06
1.68421e-10
1.78941e-10
1.55551e-10
-2.23688e-05
-5.22654e-08
2.22414e-05
1.79692e-07
-2.23654e-05
-5.223e-08
2.2238e-05
1.79781e-07
1.50611e-10
-4.85598e-08
1.67072e-07
-4.85321e-08
1.6716e-07
8.14648e-11
-9.26415e-06
9.21199e-06
-9.26292e-06
9.21077e-06
8.1338e-11
-1.63586e-10
-2.21039e-05
-5.91265e-08
2.196e-05
2.03146e-07
-2.21073e-05
-5.91699e-08
-1.57418e-10
2.19634e-05
2.03049e-07
-1.57391e-10
-5.50648e-08
1.89348e-07
-5.51035e-08
-1.54733e-10
1.89257e-07
-8.0834e-11
-9.15581e-06
9.09676e-06
-9.157e-06
-1.88312e-10
9.09794e-06
-7.97874e-11
-1.82667e-10
-1.72614e-10
-2.21124e-05
-5.9078e-08
2.19685e-05
2.03028e-07
-2.21169e-05
-5.905e-08
-1.08016e-10
2.19729e-05
2.0297e-07
-1.68343e-10
-5.50165e-08
1.89235e-07
-5.49884e-08
-1.0519e-10
1.89179e-07
-1.75154e-10
-9.15893e-06
9.09984e-06
-9.16059e-06
-1.04847e-10
9.10147e-06
-1.70406e-10
-1.02112e-10
1.06973e-12
-2.21192e-05
-5.90319e-08
2.19752e-05
2.02938e-07
-2.21192e-05
-5.90305e-08
1.10011e-10
2.19752e-05
2.02936e-07
1.0017e-12
-5.497e-08
1.89147e-07
-5.49675e-08
1.07077e-10
1.89144e-07
1.01177e-12
-9.16148e-06
9.10235e-06
-9.16148e-06
1.06723e-10
9.10235e-06
9.32515e-13
1.03843e-10
1.74202e-10
-2.21169e-05
-5.90457e-08
2.19729e-05
2.02964e-07
-2.21124e-05
-5.90705e-08
1.5848e-10
2.19685e-05
2.03017e-07
1.69872e-10
-5.49809e-08
1.89169e-07
-5.50039e-08
1.55715e-10
1.89218e-07
1.76648e-10
-9.16059e-06
9.10148e-06
-9.15893e-06
1.89295e-10
9.09985e-06
1.71795e-10
1.83578e-10
1.64142e-10
-2.21072e-05
-5.91592e-08
2.19634e-05
2.03034e-07
-2.21039e-05
-5.91137e-08
2.196e-05
2.03127e-07
1.57918e-10
-5.50865e-08
1.89234e-07
-5.50447e-08
1.8932e-07
8.13467e-11
-9.157e-06
9.09795e-06
-9.15581e-06
9.09677e-06
8.0342e-11
-1.74422e-10
-2.1809e-05
-6.65938e-08
2.16474e-05
2.28341e-07
-2.18123e-05
-6.66438e-08
-1.6229e-10
2.16507e-05
2.28234e-07
-1.66974e-10
-6.21639e-08
2.13342e-07
-6.22093e-08
-1.57768e-10
2.13243e-07
-8.24561e-11
-9.03468e-06
8.96817e-06
-9.03584e-06
-1.98138e-10
8.96931e-06
-8.0583e-11
-1.90816e-10
-1.79945e-10
-2.18174e-05
-6.65423e-08
2.16558e-05
2.28213e-07
-2.18217e-05
-6.65134e-08
-1.12866e-10
2.166e-05
2.2815e-07
-1.74042e-10
-6.2114e-08
2.13222e-07
-6.20864e-08
-1.09038e-10
2.13163e-07
-1.83363e-10
-9.03771e-06
8.97116e-06
-9.03932e-06
-1.09533e-10
8.97273e-06
-1.7699e-10
-1.05816e-10
1.20827e-12
-2.1824e-05
-6.64961e-08
2.16623e-05
2.28119e-07
-2.1824e-05
-6.64986e-08
1.15096e-10
2.16623e-05
2.28123e-07
1.13869e-12
-6.20696e-08
2.13133e-07
-6.20711e-08
1.11152e-10
2.13135e-07
1.22932e-12
-9.04017e-06
8.97356e-06
-9.04017e-06
1.11822e-10
8.97356e-06
1.13808e-12
1.07939e-10
1.81668e-10
-2.18217e-05
-6.65209e-08
2.166e-05
2.28162e-07
-2.18174e-05
-6.65548e-08
1.63312e-10
2.16557e-05
2.28232e-07
1.75695e-10
-6.20906e-08
2.1317e-07
-6.21208e-08
1.5882e-10
2.13233e-07
1.85214e-10
-9.03932e-06
8.97272e-06
-9.03771e-06
1.99452e-10
8.97114e-06
1.78714e-10
1.92011e-10
1.75011e-10
-2.18123e-05
-6.6661e-08
2.16507e-05
2.2826e-07
-2.1809e-05
-6.66142e-08
2.16474e-05
2.28371e-07
1.6752e-10
-6.22181e-08
2.13256e-07
-6.2174e-08
2.13357e-07
8.30044e-11
-9.03585e-06
8.9693e-06
-9.03468e-06
8.96815e-06
8.109e-11
-1.87361e-10
-2.14782e-05
-7.4586e-08
2.12977e-05
2.55288e-07
-2.14815e-05
-7.46431e-08
-1.70394e-10
2.13009e-05
2.55172e-07
-1.78808e-10
-6.98431e-08
2.39226e-07
-6.9895e-08
-1.64275e-10
2.39116e-07
-8.55147e-11
-8.8984e-06
8.8239e-06
-8.89954e-06
-2.10827e-10
8.82502e-06
-8.29435e-11
-2.02056e-10
-1.90301e-10
-2.14865e-05
-7.4531e-08
2.13059e-05
2.55149e-07
-2.14907e-05
-7.44989e-08
-1.19617e-10
2.131e-05
2.5508e-07
-1.82859e-10
-6.97892e-08
2.39094e-07
-6.97588e-08
-1.14821e-10
2.39029e-07
-1.94524e-10
-8.90135e-06
8.8268e-06
-8.90289e-06
-1.16171e-10
8.82832e-06
-1.86651e-10
-1.11463e-10
1.22263e-12
-2.14929e-05
-7.44775e-08
2.13123e-05
2.55041e-07
-2.14929e-05
-7.44751e-08
1.21886e-10
2.13123e-05
2.55037e-07
1.21235e-12
-6.97398e-08
2.38994e-07
-6.97404e-08
1.17063e-10
2.38995e-07
1.16491e-12
-8.90371e-06
8.82911e-06
-8.90371e-06
1.18304e-10
8.82911e-06
1.20407e-12
1.13693e-10
1.92041e-10
-2.14907e-05
-7.44914e-08
2.131e-05
2.55069e-07
-2.14864e-05
-7.45185e-08
1.71331e-10
2.13058e-05
2.55132e-07
1.8459e-10
-6.97607e-08
2.39032e-07
-6.97925e-08
1.65338e-10
2.391e-07
1.96172e-10
-8.90289e-06
8.82832e-06
-8.90134e-06
2.11866e-10
8.8268e-06
1.88423e-10
2.03251e-10
1.87917e-10
-2.14815e-05
-7.46261e-08
2.13009e-05
2.55148e-07
-2.14782e-05
-7.45663e-08
2.12977e-05
2.55261e-07
1.79363e-10
-6.99e-08
2.39124e-07
-6.98495e-08
2.39235e-07
8.601e-11
-8.89952e-06
8.82502e-06
-8.89838e-06
8.8239e-06
8.34478e-11
-2.02334e-10
-2.11092e-05
-8.30742e-08
2.09086e-05
2.8387e-07
-2.11124e-05
-8.31388e-08
-1.81132e-10
2.09118e-05
2.83744e-07
-1.92608e-10
-7.79945e-08
2.66706e-07
-7.80536e-08
-1.73601e-10
2.66588e-07
-9.00838e-11
-8.746e-06
8.66301e-06
-8.7471e-06
-2.26124e-10
8.66409e-06
-8.66775e-11
-2.15887e-10
-2.03442e-10
-2.11173e-05
-8.30177e-08
2.09166e-05
2.83723e-07
-2.11214e-05
-8.29857e-08
-1.28036e-10
2.09206e-05
2.83651e-07
-1.94503e-10
-7.79382e-08
2.66566e-07
-7.79061e-08
-1.22363e-10
2.66496e-07
-2.08298e-10
-8.74885e-06
8.66581e-06
-8.75033e-06
-1.24338e-10
8.66726e-06
-1.99033e-10
-1.18847e-10
1.27315e-12
-2.11236e-05