/*--------------------------------*- C++ -*----------------------------------*\
  =========                 |
  \\      /  F ield         | OpenFOAM: The Open Source CFD Toolbox
   \\    /   O peration     | Website:  https://openfoam.org
    \\  /    A nd           | Version:  9
     \\/     M anipulation  |
\*---------------------------------------------------------------------------*/
FoamFile
{
    format      ascii;
    class       volVectorField;
    location    "0.1";
    object      U;
}
// * * * * * * * * * * * * * * * * * * * * * * * * * * * * * * * * * * * * * //

dimensions      [0 1 -1 0 0 0 0];

internalField   nonuniform List<vector> 
36360
(
(-5.7932e-06 -0.0452719 -0.936473)
(-6.31353e-06 -0.0452799 -4.78441e-08)
(-9.15095e-06 -0.0452658 -0.945644)
(-9.52942e-06 -0.045273 -3.92357e-08)
(-2.01419e-06 -0.0187189 -0.924036)
(-2.15511e-06 -0.0187214 -5.67609e-08)
(-3.2541e-06 -0.0187093 -0.932611)
(-3.37728e-06 -0.0187109 -5.1473e-08)
(-6.95039e-06 -0.0452918 -5.73766e-08)
(-7.41796e-06 -0.0453017 -3.89307e-08)
(-1.014e-05 -0.0452842 -2.7113e-08)
(-1.06356e-05 -0.0452937 -1.86435e-08)
(-2.35014e-06 -0.0187253 -6.60019e-08)
(-2.49111e-06 -0.0187285 -4.497e-08)
(-3.58387e-06 -0.018714 -3.62494e-08)
(-3.75245e-06 -0.0187167 -2.43567e-08)
(-7.62557e-06 -0.045307 -1.29623e-08)
(-7.6024e-06 -0.045307 1.40602e-08)
(-1.08731e-05 -0.0452987 -6.2112e-09)
(-1.08538e-05 -0.0452987 7.84188e-09)
(-2.54953e-06 -0.0187302 -1.4795e-08)
(-2.54127e-06 -0.0187302 1.67577e-08)
(-3.83155e-06 -0.0187182 -7.98585e-09)
(-3.82382e-06 -0.0187182 1.0235e-08)
(-7.34732e-06 -0.0453018 4.00985e-08)
(-6.83106e-06 -0.0452918 5.86122e-08)
(-1.0566e-05 -0.0452938 2.06319e-08)
(-9.99472e-06 -0.0452844 2.94864e-08)
(-2.46672e-06 -0.0187285 4.70793e-08)
(-2.31072e-06 -0.0187253 6.81746e-08)
(-3.72593e-06 -0.0187168 2.71492e-08)
(-3.53126e-06 -0.0187142 3.96018e-08)
(-6.15029e-06 -0.04528 4.93407e-08)
(-5.60439e-06 -0.0452719 0.936473)
(-9.2966e-06 -0.0452734 4.08729e-08)
(-8.85456e-06 -0.0452662 0.945644)
(-2.10199e-06 -0.0187214 5.88964e-08)
(-1.95214e-06 -0.0187189 0.924036)
(-3.29566e-06 -0.0187112 5.39893e-08)
(-3.15252e-06 -0.0187096 0.932611)
(5.8645e-06 -0.045267 -0.935686)
(5.53421e-06 -0.0452748 -1.15729e-07)
(1.12883e-06 -0.0452745 -0.935905)
(7.83568e-07 -0.0452823 -8.2075e-08)
(9.02953e-07 -0.018719 -0.923267)
(7.74632e-07 -0.0187215 -1.16337e-07)
(2.27386e-09 -0.018722 -0.923481)
(-9.04811e-08 -0.0187244 -8.77429e-08)
(5.13954e-06 -0.0452869 -1.15035e-07)
(4.86098e-06 -0.0452974 -8.04721e-08)
(3.20254e-07 -0.0452944 -9.01091e-08)
(-1.15761e-08 -0.0453047 -6.09968e-08)
(6.45109e-07 -0.0187258 -1.19171e-07)
(5.62776e-07 -0.0187294 -8.35459e-08)
(-2.23082e-07 -0.0187285 -9.59436e-08)
(-3.13507e-07 -0.018732 -6.53772e-08)
(4.73659e-06 -0.0453029 -2.77403e-08)
(4.72925e-06 -0.0453029 2.88106e-08)
(-1.50211e-07 -0.0453102 -2.03979e-08)
(-1.36447e-07 -0.0453102 2.17899e-08)
(5.30248e-07 -0.0187314 -2.88563e-08)
(5.27411e-07 -0.0187313 2.9847e-08)
(-3.46128e-07 -0.0187339 -2.18108e-08)
(-3.41058e-07 -0.0187339 2.36091e-08)
(4.84069e-06 -0.0452974 8.16328e-08)
(5.1105e-06 -0.0452869 1.16276e-07)
(2.63094e-08 -0.0453047 6.23087e-08)
(3.73918e-07 -0.0452944 9.1307e-08)
(5.54693e-07 -0.0187294 8.46858e-08)
(6.32976e-07 -0.0187257 1.20413e-07)
(-3.00347e-07 -0.018732 6.72147e-08)
(-2.06626e-07 -0.0187285 9.75629e-08)
(5.50122e-06 -0.0452747 1.16857e-07)
(5.829e-06 -0.0452669 0.935686)
(8.46888e-07 -0.0452823 8.32022e-08)
(1.19434e-06 -0.0452744 0.935905)
(7.6087e-07 -0.0187215 1.17511e-07)
(8.87958e-07 -0.018719 0.923267)
(-7.07693e-08 -0.0187243 8.90103e-08)
(2.34222e-08 -0.0187219 0.923481)
(1.20669e-05 -0.0452395 -0.93488)
(1.18616e-05 -0.0452476 -1.5364e-07)
(9.18825e-06 -0.0452552 -0.935112)
(8.94908e-06 -0.0452633 -1.33351e-07)
(1.7143e-06 -0.0187078 -0.922481)
(1.60592e-06 -0.0187106 -1.50862e-07)
(1.34374e-06 -0.0187142 -0.922707)
(1.23634e-06 -0.0187169 -1.32968e-07)
(1.15953e-05 -0.0452601 -1.58138e-07)
(1.14039e-05 -0.0452708 -1.14366e-07)
(8.65496e-06 -0.0452757 -1.35593e-07)
(8.44878e-06 -0.0452863 -9.71168e-08)
(1.50422e-06 -0.018715 -1.59192e-07)
(1.44157e-06 -0.0187189 -1.15336e-07)
(1.13561e-06 -0.0187213 -1.38423e-07)
(1.07529e-06 -0.0187251 -9.91437e-08)
(1.13212e-05 -0.0452765 -4.0364e-08)
(1.13182e-05 -0.0452765 4.15818e-08)
(8.35902e-06 -0.045292 -3.40463e-08)
(8.35037e-06 -0.045292 3.49997e-08)
(1.41878e-06 -0.0187209 -4.07758e-08)
(1.41817e-06 -0.0187209 4.18835e-08)
(1.05367e-06 -0.0187271 -3.48054e-08)
(1.05078e-06 -0.0187271 3.56372e-08)
(1.13952e-05 -0.0452708 1.15652e-07)
(1.15819e-05 -0.0452601 1.59489e-07)
(8.42584e-06 -0.0452863 9.82313e-08)
(8.62511e-06 -0.0452757 1.3691e-07)
(1.43986e-06 -0.0187189 1.16505e-07)
(1.50185e-06 -0.018715 1.60409e-07)
(1.06782e-06 -0.0187251 1.00171e-07)
(1.12655e-06 -0.0187213 1.39676e-07)
(1.18449e-05 -0.0452476 1.54627e-07)
(1.20474e-05 -0.0452394 0.93488)
(8.91943e-06 -0.0452633 1.34542e-07)
(9.16086e-06 -0.0452551 0.935112)
(1.60336e-06 -0.0187105 1.51838e-07)
(1.71074e-06 -0.0187078 0.922481)
(1.22856e-06 -0.0187169 1.34143e-07)
(1.33754e-06 -0.0187142 0.922707)
(1.733e-05 -0.045196 -0.934047)
(1.71294e-05 -0.0452041 -1.87793e-07)
(1.47193e-05 -0.0452196 -0.934276)
(1.4511e-05 -0.0452278 -1.72364e-07)
(2.33047e-06 -0.0186902 -0.921668)
(2.19863e-06 -0.018693 -1.81609e-07)
(2.03055e-06 -0.0186997 -0.921892)
(1.90692e-06 -0.0187025 -1.67667e-07)
(1.68727e-05 -0.0452166 -1.95529e-07)
(1.66783e-05 -0.0452273 -1.44576e-07)
(1.42398e-05 -0.0452402 -1.78178e-07)
(1.40382e-05 -0.0452509 -1.30191e-07)
(2.08435e-06 -0.0186976 -1.95042e-07)
(2.01018e-06 -0.0187015 -1.44461e-07)
(1.7935e-06 -0.018707 -1.78373e-07)
(1.72065e-06 -0.0187109 -1.30617e-07)
(1.65897e-05 -0.0452331 -5.21047e-08)
(1.65952e-05 -0.0452331 5.29216e-08)
(1.3949e-05 -0.0452567 -4.6428e-08)
(1.39524e-05 -0.0452567 4.74524e-08)
(1.97947e-06 -0.0187036 -5.20311e-08)
(1.98181e-06 -0.0187036 5.29994e-08)
(1.69223e-06 -0.018713 -4.65907e-08)
(1.6941e-06 -0.018713 4.76826e-08)
(1.66924e-05 -0.0452273 1.45442e-07)
(1.68901e-05 -0.0452165 1.96427e-07)
(1.40448e-05 -0.0452509 1.31197e-07)
(1.42422e-05 -0.0452402 1.7912e-07)
(2.01621e-06 -0.0187015 1.45439e-07)
(2.09198e-06 -0.0186976 1.96016e-07)
(1.72473e-06 -0.0187109 1.31642e-07)
(1.79656e-06 -0.018707 1.79284e-07)
(1.71465e-05 -0.0452041 1.88765e-07)
(1.73478e-05 -0.0451959 0.934047)
(1.45047e-05 -0.0452278 1.73227e-07)
(1.47071e-05 -0.0452196 0.934276)
(2.20649e-06 -0.018693 1.82526e-07)
(2.33944e-06 -0.0186902 0.921668)
(1.90698e-06 -0.0187025 1.68474e-07)
(2.02847e-06 -0.0186997 0.921892)
(2.29462e-05 -0.045137 -0.933186)
(2.27569e-05 -0.0451451 -2.11628e-07)
(2.00424e-05 -0.0451685 -0.93343)
(1.98483e-05 -0.0451766 -2.00757e-07)
(3.01571e-06 -0.0186667 -0.920829)
(2.86738e-06 -0.0186696 -2.02813e-07)
(2.65166e-06 -0.0186792 -0.921066)
(2.51179e-06 -0.0186821 -1.9321e-07)
(2.25128e-05 -0.0451574 -2.23578e-07)
(2.23129e-05 -0.0451681 -1.6866e-07)
(1.96005e-05 -0.045189 -2.10594e-07)
(1.9405e-05 -0.0451997 -1.5739e-07)
(2.74743e-06 -0.0186742 -2.22143e-07)
(2.6644e-06 -0.0186782 -1.67859e-07)
(2.3953e-06 -0.0186867 -2.09577e-07)
(2.31691e-06 -0.0186906 -1.56896e-07)
(2.22066e-05 -0.0451739 -6.16885e-08)
(2.2202e-05 -0.0451739 6.25681e-08)
(1.93074e-05 -0.0452055 -5.71568e-08)
(1.93073e-05 -0.0452055 5.8079e-08)
(2.62253e-06 -0.0186804 -6.14412e-08)
(2.62041e-06 -0.0186804 6.21755e-08)
(2.28021e-06 -0.0186928 -5.70057e-08)
(2.27988e-06 -0.0186928 5.78723e-08)
(2.23022e-05 -0.0451681 1.69747e-07)
(2.25025e-05 -0.0451574 2.24903e-07)
(1.94066e-05 -0.0451997 1.5848e-07)
(1.96078e-05 -0.0451889 2.11878e-07)
(2.65924e-06 -0.0186782 1.68847e-07)
(2.74192e-06 -0.0186742 2.23416e-07)
(2.31676e-06 -0.0186906 1.5795e-07)
(2.3972e-06 -0.0186866 2.10841e-07)
(2.27516e-05 -0.0451451 2.12753e-07)
(2.29445e-05 -0.045137 0.933186)
(1.98633e-05 -0.0451765 2.01886e-07)
(2.0062e-05 -0.0451684 0.93343)
(2.86338e-06 -0.0186696 2.04007e-07)
(3.01247e-06 -0.0186667 0.920829)
(2.51674e-06 -0.018682 1.94372e-07)
(2.65848e-06 -0.0186792 0.921066)
(2.9342e-05 -0.0450616 -0.932304)
(2.91601e-05 -0.0450696 -2.27663e-07)
(2.60446e-05 -0.0451015 -0.932546)
(2.58598e-05 -0.0451095 -2.2058e-07)
(3.82729e-06 -0.0186368 -0.919968)
(3.66111e-06 -0.0186397 -2.16261e-07)
(3.40901e-06 -0.0186526 -0.920205)
(3.2521e-06 -0.0186555 -2.10432e-07)
(2.89292e-05 -0.0450818 -2.43258e-07)
(2.87343e-05 -0.0450924 -1.86417e-07)
(2.5622e-05 -0.0451218 -2.34551e-07)
(2.54238e-05 -0.0451324 -1.78428e-07)
(3.53793e-06 -0.0186443 -2.40963e-07)
(3.4526e-06 -0.0186483 -1.84802e-07)
(3.13018e-06 -0.0186601 -2.32621e-07)
(3.04547e-06 -0.0186641 -1.77174e-07)
(2.86282e-05 -0.0450982 -6.88902e-08)
(2.86283e-05 -0.0450982 6.99482e-08)
(2.5317e-05 -0.0451383 -6.5673e-08)
(2.53146e-05 -0.0451383 6.64826e-08)
(3.40837e-06 -0.0186505 -6.82243e-08)
(3.40847e-06 -0.0186505 6.92957e-08)
(3.00207e-06 -0.0186663 -6.51857e-08)
(3.00097e-06 -0.0186663 6.5979e-08)
(2.87341e-05 -0.0450924 1.87584e-07)
(2.89274e-05 -0.0450817 2.4452e-07)
(2.54175e-05 -0.0451324 1.79405e-07)
(2.56137e-05 -0.0451217 2.35698e-07)
(3.45264e-06 -0.0186483 1.85965e-07)
(3.53738e-06 -0.0186443 2.42198e-07)
(3.0425e-06 -0.0186641 1.78147e-07)
(3.12607e-06 -0.0186601 2.33776e-07)
(2.91558e-05 -0.0450695 2.28733e-07)
(2.93363e-05 -0.0450616 0.932304)
(2.58517e-05 -0.0451095 2.21655e-07)
(2.60383e-05 -0.0451015 0.932546)
(3.6596e-06 -0.0186396 2.17312e-07)
(3.82506e-06 -0.0186368 0.919968)
(3.24759e-06 -0.0186555 2.11569e-07)
(3.4047e-06 -0.0186526 0.920205)
(3.67083e-05 -0.044968 -0.931385)
(3.65372e-05 -0.0449758 -2.36137e-07)
(3.28921e-05 -0.0450172 -0.931632)
(3.27147e-05 -0.0450251 -2.32557e-07)
(4.77772e-06 -0.0185996 -0.919072)
(4.59417e-06 -0.0186025 -2.22173e-07)
(4.28283e-06 -0.0186192 -0.919313)
(4.10795e-06 -0.018622 -2.19949e-07)
(3.63273e-05 -0.0449878 -2.54307e-07)
(3.61456e-05 -0.0449983 -1.97226e-07)
(3.24942e-05 -0.0450372 -2.49529e-07)
(3.23056e-05 -0.0450477 -1.92425e-07)
(4.47173e-06 -0.0186071 -2.5149e-07)
(4.38864e-06 -0.0186111 -1.95085e-07)
(3.98522e-06 -0.0186266 -2.47017e-07)
(3.90092e-06 -0.0186307 -1.90585e-07)
(3.6043e-05 -0.045004 -7.34382e-08)
(3.60439e-05 -0.045004 7.4684e-08)
(3.22006e-05 -0.0450535 -7.13294e-08)
(3.22007e-05 -0.0450535 7.27026e-08)
(4.34402e-06 -0.0186133 -7.25213e-08)
(4.3445e-06 -0.0186133 7.3766e-08)
(3.8563e-06 -0.0186329 -7.05753e-08)
(3.85648e-06 -0.0186329 7.18795e-08)
(3.61486e-05 -0.0449983 1.98566e-07)
(3.6333e-05 -0.0449878 2.55709e-07)
(3.23053e-05 -0.0450477 1.93871e-07)
(3.2493e-05 -0.0450372 2.51012e-07)
(4.39019e-06 -0.0186111 1.96417e-07)
(4.4746e-06 -0.0186071 2.52867e-07)
(3.90132e-06 -0.0186307 1.91945e-07)
(3.98558e-06 -0.0186266 2.48382e-07)
(3.65456e-05 -0.0449758 2.37377e-07)
(3.67182e-05 -0.044968 0.931385)
(3.27114e-05 -0.0450251 2.33719e-07)
(3.28852e-05 -0.0450172 0.931632)
(4.59846e-06 -0.0186025 2.23376e-07)
(4.78326e-06 -0.0185996 0.919072)
(4.1078e-06 -0.018622 2.21034e-07)
(4.28153e-06 -0.0186192 0.919313)
(4.51859e-05 -0.044854 -0.930446)
(4.5022e-05 -0.0448617 -2.39356e-07)
(4.08028e-05 -0.0449137 -0.930709)
(4.06376e-05 -0.0449214 -2.38298e-07)
(5.87013e-06 -0.0185543 -0.918156)
(5.66412e-06 -0.0185571 -2.22723e-07)
(5.30757e-06 -0.018578 -0.918413)
(5.11416e-06 -0.0185808 -2.22985e-07)
(4.48281e-05 -0.0448734 -2.58454e-07)
(4.46581e-05 -0.0448838 -2.02242e-07)
(4.04363e-05 -0.0449333 -2.57273e-07)
(4.02602e-05 -0.0449437 -2.00519e-07)
(5.5399e-06 -0.0185616 -2.55287e-07)
(5.459e-06 -0.0185656 -1.99712e-07)
(4.99086e-06 -0.0185854 -2.54168e-07)
(4.90837e-06 -0.0185895 -1.981e-07)
(4.4559e-05 -0.0448894 -7.57862e-08)
(4.4558e-05 -0.0448894 7.69887e-08)
(4.01589e-05 -0.0449494 -7.49864e-08)
(4.01593e-05 -0.0449494 7.60141e-08)
(5.4144e-06 -0.0185678 -7.46664e-08)
(5.4139e-06 -0.0185678 7.58439e-08)
(4.86332e-06 -0.0185917 -7.39115e-08)
(4.86336e-06 -0.0185917 7.50108e-08)
(4.4656e-05 -0.0448837 2.0357e-07)
(4.48266e-05 -0.0448734 2.599e-07)
(4.02622e-05 -0.0449437 2.01679e-07)
(4.0442e-05 -0.0449333 2.58549e-07)
(5.45783e-06 -0.0185656 2.01014e-07)
(5.53881e-06 -0.0185616 2.56712e-07)
(4.90889e-06 -0.0185894 1.99329e-07)
(4.9927e-06 -0.0185854 2.55528e-07)
(4.50221e-05 -0.0448616 2.4055e-07)
(4.51872e-05 -0.0448539 0.930446)
(4.06485e-05 -0.0449214 2.39541e-07)
(4.08198e-05 -0.0449136 0.930709)
(5.66355e-06 -0.0185571 2.23939e-07)
(5.86977e-06 -0.0185543 0.918156)
(5.11811e-06 -0.0185808 2.24237e-07)
(5.31451e-06 -0.018578 0.918413)
(5.50531e-05 -0.0447171 -0.929462)
(5.48875e-05 -0.0447246 -2.38695e-07)
(4.99171e-05 -0.0447886 -0.929731)
(4.97515e-05 -0.0447962 -2.39311e-07)
(7.16343e-06 -0.0184998 -0.917196)
(6.92827e-06 -0.0185025 -2.19301e-07)
(6.48159e-06 -0.0185282 -0.917459)
(6.26099e-06 -0.018531 -2.21327e-07)
(5.46999e-05 -0.0447362 -2.57294e-07)
(5.45368e-05 -0.0447463 -2.02472e-07)
(4.95619e-05 -0.0448078 -2.58231e-07)
(4.93968e-05 -0.0448181 -2.02708e-07)
(6.79821e-06 -0.018507 -2.54116e-07)
(6.71854e-06 -0.018511 -1.998e-07)
(6.13462e-06 -0.0185355 -2.55097e-07)
(6.0551e-06 -0.0185395 -2.00126e-07)
(5.44425e-05 -0.0447519 -7.61079e-08)
(5.44446e-05 -0.0447519 7.7508e-08)
(4.93012e-05 -0.0448237 -7.60641e-08)
(4.93018e-05 -0.0448237 7.74709e-08)
(6.6754e-06 -0.0185132 -7.48401e-08)
(6.67617e-06 -0.0185132 7.62881e-08)
(6.01177e-06 -0.0185417 -7.48988e-08)
(6.01204e-06 -0.0185417 7.62465e-08)
(5.45416e-05 -0.0447463 2.03882e-07)
(5.47047e-05 -0.0447362 2.58675e-07)
(4.93982e-05 -0.0448181 2.04189e-07)
(4.95626e-05 -0.0448078 2.59778e-07)
(6.72031e-06 -0.018511 2.01246e-07)
(6.79982e-06 -0.018507 2.55525e-07)
(6.05564e-06 -0.0185395 2.01539e-07)
(6.13486e-06 -0.0185355 2.56553e-07)
(5.48902e-05 -0.0447246 2.39757e-07)
(5.50551e-05 -0.0447171 0.929462)
(4.97501e-05 -0.0447961 2.40492e-07)
(4.99119e-05 -0.0447885 0.929731)
(6.9288e-06 -0.0185025 2.20405e-07)
(7.16313e-06 -0.0184998 0.917196)
(6.2602e-06 -0.018531 2.2257e-07)
(6.47844e-06 -0.0185282 0.917459)
(6.65394e-05 -0.0445544 -0.928457)
(6.63782e-05 -0.0445618 -2.35364e-07)
(6.05986e-05 -0.0446392 -0.928745)
(6.0434e-05 -0.0446466 -2.37194e-07)
(8.691e-06 -0.0184347 -0.916216)
(8.42573e-06 -0.0184375 -2.12666e-07)
(7.90314e-06 -0.0184686 -0.916497)
(7.65282e-06 -0.0184714 -2.16232e-07)
(6.62118e-05 -0.0445731 -2.52293e-07)
(6.60682e-05 -0.0445831 -1.99241e-07)
(6.02534e-05 -0.0446581 -2.55196e-07)
(6.00961e-05 -0.0446681 -2.01217e-07)
(8.29559e-06 -0.0184419 -2.49197e-07)
(8.22291e-06 -0.0184458 -1.96552e-07)
(7.52127e-06 -0.0184758 -2.52048e-07)
(7.4434e-06 -0.0184798 -1.98525e-07)
(6.59821e-05 -0.0445885 -7.50544e-08)
(6.59806e-05 -0.0445885 7.66071e-08)
(6.00038e-05 -0.0446736 -7.5748e-08)
(6.00044e-05 -0.0446736 7.7149e-08)
(8.18303e-06 -0.0184479 -7.37384e-08)
(8.18244e-06 -0.0184479 7.5254e-08)
(7.40087e-06 -0.0184819 -7.44383e-08)
(7.40106e-06 -0.0184819 7.58948e-08)
(6.60645e-05 -0.0445831 2.00811e-07)
(6.62083e-05 -0.0445731 2.53828e-07)
(6.00978e-05 -0.0446681 2.02619e-07)
(6.02555e-05 -0.0446581 2.56537e-07)
(8.22153e-06 -0.0184458 1.98084e-07)
(8.29434e-06 -0.0184418 2.50685e-07)
(7.44388e-06 -0.0184798 1.99984e-07)
(7.52189e-06 -0.0184758 2.53455e-07)
(6.63762e-05 -0.0445617 2.36578e-07)
(6.6538e-05 -0.0445544 0.928457)
(6.04365e-05 -0.0446466 2.3831e-07)
(6.06026e-05 -0.0446391 0.928745)
(8.42524e-06 -0.0184374 2.13903e-07)
(8.69076e-06 -0.0184347 0.916216)
(7.65357e-06 -0.0184714 2.17419e-07)
(7.90426e-06 -0.0184686 0.916497)
(7.98013e-05 -0.0443626 -0.927417)
(7.96436e-05 -0.0443698 -2.30885e-07)
(7.2928e-05 -0.0444623 -0.927701)
(7.27713e-05 -0.0444696 -2.33095e-07)
(1.04603e-05 -0.0183578 -0.915202)
(1.01601e-05 -0.0183605 -2.04535e-07)
(9.5393e-06 -0.0183978 -0.915479)
(9.25845e-06 -0.0184005 -2.08626e-07)
(7.94973e-05 -0.044381 -2.45289e-07)
(7.93751e-05 -0.0443907 -1.94052e-07)
(7.26185e-05 -0.0444809 -2.48836e-07)
(7.24886e-05 -0.0444907 -1.96721e-07)
(1.00277e-05 -0.0183648 -2.42327e-07)
(9.96261e-06 -0.0183686 -1.91435e-07)
(9.12886e-06 -0.0184049 -2.45766e-07)
(9.06124e-06 -0.0184088 -1.94041e-07)
(7.93016e-05 -0.044396 -7.32054e-08)
(7.92999e-05 -0.044396 7.4814e-08)
(7.24102e-05 -0.0444961 -7.41492e-08)
(7.24077e-05 -0.0444961 7.57881e-08)
(9.92783e-06 -0.0183707 -7.18674e-08)
(9.92721e-06 -0.0183707 7.33762e-08)
(9.02447e-06 -0.0184109 -7.28243e-08)
(9.02359e-06 -0.0184109 7.43557e-08)
(7.93707e-05 -0.0443907 1.95639e-07)
(7.94922e-05 -0.0443809 2.46778e-07)
(7.24825e-05 -0.0444907 1.98364e-07)
(7.26113e-05 -0.0444809 2.50428e-07)
(9.96105e-06 -0.0183686 1.92932e-07)
(1.00259e-05 -0.0183648 2.43736e-07)
(9.05901e-06 -0.0184088 1.95579e-07)
(9.12628e-06 -0.0184049 2.47256e-07)
(7.96392e-05 -0.0443698 2.32148e-07)
(7.97974e-05 -0.0443625 0.927417)
(7.27648e-05 -0.0444696 2.34378e-07)
(7.29219e-05 -0.0444623 0.927701)
(1.01587e-05 -0.0183605 2.05745e-07)
(1.04596e-05 -0.0183578 0.915202)
(9.25628e-06 -0.0184005 2.09836e-07)
(9.53753e-06 -0.0183978 0.915479)
(9.50788e-05 -0.044138 -0.926343)
(9.49105e-05 -0.0441451 -2.26778e-07)
(8.71758e-05 -0.0442546 -0.926649)
(8.70139e-05 -0.0442618 -2.28662e-07)
(1.25056e-05 -0.0182675 -0.914155)
(1.21591e-05 -0.0182701 -1.9657e-07)
(1.14463e-05 -0.0183144 -0.914453)
(1.11241e-05 -0.018317 -2.00443e-07)
(9.47662e-05 -0.044156 -2.37715e-07)
(9.46501e-05 -0.0441655 -1.8818e-07)
(8.68689e-05 -0.0442728 -2.41442e-07)
(8.67502e-05 -0.0442824 -1.91092e-07)
(1.20159e-05 -0.0182743 -2.35222e-07)
(1.19524e-05 -0.018278 -1.85877e-07)
(1.09866e-05 -0.0183213 -2.38685e-07)
(1.09223e-05 -0.0183251 -1.88607e-07)
(9.45815e-05 -0.0441707 -7.1024e-08)
(9.45817e-05 -0.0441707 7.27944e-08)
(8.66798e-05 -0.0442876 -7.21157e-08)
(8.66797e-05 -0.0442876 7.37801e-08)
(1.19198e-05 -0.0182801 -6.97109e-08)
(1.19199e-05 -0.0182801 7.14194e-08)
(1.08888e-05 -0.0183272 -7.0775e-08)
(1.08888e-05 -0.0183272 7.23785e-08)
(9.46506e-05 -0.0441655 1.89884e-07)
(9.47668e-05 -0.044156 2.39245e-07)
(8.67502e-05 -0.0442824 1.92703e-07)
(8.68697e-05 -0.0442728 2.42901e-07)
(1.19527e-05 -0.018278 1.87522e-07)
(1.20163e-05 -0.0182743 2.36702e-07)
(1.09225e-05 -0.0183251 1.90161e-07)
(1.09871e-05 -0.0183213 2.401e-07)
(9.4911e-05 -0.0441451 2.27944e-07)
(9.50796e-05 -0.044138 0.926343)
(8.7016e-05 -0.0442617 2.29846e-07)
(8.718e-05 -0.0442546 0.926649)
(1.21596e-05 -0.0182701 1.97669e-07)
(1.25066e-05 -0.0182675 0.914155)
(1.11254e-05 -0.018317 2.01555e-07)
(1.14491e-05 -0.0183144 0.914453)
(0.000112673 -0.0438768 -0.92523)
(0.000112498 -0.0438838 -2.24052e-07)
(0.000103574 -0.0440122 -0.925533)
(0.000103401 -0.0440193 -2.25106e-07)
(1.48916e-05 -0.0181621 -0.913069)
(1.44946e-05 -0.0181646 -1.89341e-07)
(1.36537e-05 -0.0182168 -0.913364)
(1.32822e-05 -0.0182193 -1.92737e-07)
(0.000112361 -0.0438945 -2.31164e-07)
(0.000112254 -0.0439039 -1.82893e-07)
(0.00010326 -0.0440301 -2.34177e-07)
(0.000103147 -0.0440395 -1.85351e-07)
(1.43411e-05 -0.0181688 -2.2909e-07)
(1.42807e-05 -0.0181724 -1.80875e-07)
(1.31336e-05 -0.0182235 -2.31916e-07)
(1.3071e-05 -0.0182272 -1.83203e-07)
(0.000112191 -0.0439089 -6.90236e-08)
(0.000112189 -0.0439089 7.09732e-08)
(0.000103079 -0.0440446 -6.99556e-08)
(0.000103078 -0.0440446 7.18196e-08)
(1.42504e-05 -0.0181744 -6.76946e-08)
(1.42499e-05 -0.0181744 6.96891e-08)
(1.3039e-05 -0.0182292 -6.86445e-08)
(1.30385e-05 -0.0182292 7.04846e-08)
(0.000112251 -0.0439038 1.84735e-07)
(0.000112354 -0.0438945 2.32772e-07)
(0.000103143 -0.0440395 1.87128e-07)
(0.000103253 -0.0440301 2.35747e-07)
(1.42789e-05 -0.0181724 1.82749e-07)
(1.43381e-05 -0.0181688 2.30706e-07)
(1.30692e-05 -0.0182272 1.84946e-07)
(1.31305e-05 -0.0182235 2.33437e-07)
(0.000112489 -0.0438838 2.25197e-07)
(0.000112663 -0.0438768 0.92523)
(0.000103392 -0.0440192 2.26245e-07)
(0.000103563 -0.0440122 0.925533)
(1.44902e-05 -0.0181646 1.90436e-07)
(1.48867e-05 -0.0181621 0.913069)
(1.3278e-05 -0.0182193 1.93832e-07)
(1.36487e-05 -0.0182167 0.913364)
(0.000132767 -0.0435748 -0.9241)
(0.000132579 -0.0435816 -2.23813e-07)
(0.000122391 -0.0437312 -0.924397)
(0.00012221 -0.0437381 -2.23478e-07)
(1.76243e-05 -0.0180398 -0.911966)
(1.71683e-05 -0.0180423 -1.83821e-07)
(1.62096e-05 -0.0181032 -0.912257)
(1.57841e-05 -0.0181057 -1.86216e-07)
(0.00013245 -0.0435922 -2.26697e-07)
(0.000132356 -0.0436013 -1.7913e-07)
(0.000122079 -0.0437487 -2.28516e-07)
(0.00012198 -0.0437579 -1.80695e-07)
(1.70027e-05 -0.0180463 -2.25078e-07)
(1.69464e-05 -0.0180499 -1.77423e-07)
(1.56256e-05 -0.0181098 -2.26655e-07)
(1.5568e-05 -0.0181134 -1.78813e-07)
(0.000132302 -0.0436062 -6.75568e-08)
(0.000132306 -0.0436062 6.97955e-08)
(0.000121922 -0.0437629 -6.8171e-08)
(0.000121923 -0.0437629 7.02691e-08)
(1.69205e-05 -0.0180518 -6.62037e-08)
(1.69221e-05 -0.0180518 6.86035e-08)
(1.55403e-05 -0.0181153 -6.68153e-08)
(1.55408e-05 -0.0181153 6.9044e-08)
(0.000132368 -0.0436013 1.8121e-07)
(0.000132469 -0.0435921 2.28469e-07)
(0.000121984 -0.0437579 1.82665e-07)
(0.000122085 -0.0437487 2.30212e-07)
(1.69512e-05 -0.0180499 1.79651e-07)
(1.70107e-05 -0.0180463 2.26962e-07)
(1.55695e-05 -0.0181134 1.80895e-07)
(1.56281e-05 -0.0181098 2.28423e-07)
(0.000132605 -0.0435816 2.25001e-07)
(0.000132797 -0.0435747 0.9241)
(0.000122218 -0.0437381 2.24666e-07)
(0.000122399 -0.0437311 0.924397)
(1.71791e-05 -0.0180423 1.85071e-07)
(1.76369e-05 -0.0180398 0.911966)
(1.57872e-05 -0.0181057 1.87423e-07)
(1.62126e-05 -0.0181032 0.912257)
(0.000155652 -0.0432273 -0.922898)
(0.000155446 -0.0432341 -2.26696e-07)
(0.000143857 -0.0434069 -0.923221)
(0.000143661 -0.0434138 -2.24737e-07)
(2.0765e-05 -0.0178987 -0.910794)
(2.02411e-05 -0.0179011 -1.807e-07)
(1.91439e-05 -0.0179717 -0.91111)
(1.86549e-05 -0.0179742 -1.81853e-07)
(0.000155314 -0.0432444 -2.25605e-07)
(0.000155221 -0.0432534 -1.77943e-07)
(0.000143531 -0.0434242 -2.2564e-07)
(0.000143438 -0.0434332 -1.78135e-07)
(2.00568e-05 -0.0179051 -2.24471e-07)
(1.99991e-05 -0.0179085 -1.76685e-07)
(1.84805e-05 -0.0179782 -2.24258e-07)
(1.84238e-05 -0.0179817 -1.76643e-07)
(0.000155163 -0.0432582 -6.71187e-08)
(0.000155158 -0.0432582 6.94415e-08)
(0.000143383 -0.0434381 -6.71824e-08)
(0.000143385 -0.0434381 6.94733e-08)
(1.99719e-05 -0.0179104 -6.59043e-08)
(1.99698e-05 -0.0179104 6.81246e-08)
(1.83978e-05 -0.0179835 -6.58861e-08)
(1.83987e-05 -0.0179835 6.82465e-08)
(0.000155207 -0.0432533 1.80017e-07)
(0.000155292 -0.0432444 2.2727e-07)
(0.000143444 -0.0434332 1.80232e-07)
(0.000143542 -0.0434242 2.27385e-07)
(1.9993e-05 -0.0179085 1.78653e-07)
(2.00468e-05 -0.017905 2.26018e-07)
(1.84264e-05 -0.0179816 1.78811e-07)
(1.84851e-05 -0.0179781 2.26064e-07)
(0.000155416 -0.043234 2.27831e-07)
(0.000155616 -0.0432273 0.922898)
(0.000143676 -0.0434137 2.25941e-07)
(0.000143876 -0.0434069 0.923221)
(2.02277e-05 -0.0179011 1.81814e-07)
(2.07491e-05 -0.0178986 0.910794)
(1.86617e-05 -0.0179741 1.83096e-07)
(1.91521e-05 -0.0179717 0.91111)
(0.000181481 -0.0428299 -0.921674)
(0.000181255 -0.0428365 -2.33371e-07)
(0.00016818 -0.0430351 -0.922004)
(0.000167965 -0.0430418 -2.29415e-07)
(2.43152e-05 -0.0177367 -0.9096)
(2.37152e-05 -0.0177391 -1.80692e-07)
(2.24819e-05 -0.0178204 -0.909922)
(2.19213e-05 -0.0178228 -1.8021e-07)
(0.000181124 -0.0428467 -2.2825e-07)
(0.000181038 -0.0428554 -1.79679e-07)
(0.000167832 -0.0430521 -2.26347e-07)
(0.00016774 -0.0430609 -1.78359e-07)
(2.35109e-05 -0.0177429 -2.27587e-07)
(2.34548e-05 -0.0177463 -1.78816e-07)
(2.1727e-05 -0.0178267 -2.25453e-07)
(2.16693e-05 -0.0178301 -1.77325e-07)
(0.000180988 -0.0428601 -6.77338e-08)
(0.000180991 -0.0428601 7.03945e-08)
(0.000167683 -0.0430657 -6.72623e-08)
(0.000167677 -0.0430657 6.97117e-08)
(2.34313e-05 -0.0177481 -6.65139e-08)
(2.34327e-05 -0.0177481 6.91345e-08)
(2.16424e-05 -0.017832 -6.61019e-08)
(2.16396e-05 -0.017832 6.83492e-08)
(0.000181048 -0.0428554 1.82018e-07)
(0.00018114 -0.0428467 2.30078e-07)
(0.000167721 -0.0430609 1.80508e-07)
(0.0001678 -0.043052 2.28025e-07)
(2.3459e-05 -0.0177463 1.8112e-07)
(2.35177e-05 -0.017743 2.29379e-07)
(2.16608e-05 -0.0178301 1.79285e-07)
(2.17126e-05 -0.0178267 2.26951e-07)
(0.000181276 -0.0428365 2.34564e-07)
(0.000181504 -0.0428298 0.921674)
(0.00016792 -0.0430418 2.30563e-07)
(0.000168127 -0.0430351 0.922004)
(2.3724e-05 -0.0177391 1.81926e-07)
(2.43248e-05 -0.0177367 0.9096)
(2.19014e-05 -0.0178228 1.813e-07)
(2.24579e-05 -0.0178204 0.909922)
(0.000210517 -0.0423775 -0.920411)
(0.000210267 -0.042384 -2.44676e-07)
(0.000195597 -0.0426108 -0.92075)
(0.000195359 -0.0426174 -2.38324e-07)
(2.83314e-05 -0.0175518 -0.908368)
(2.76464e-05 -0.0175541 -1.84543e-07)
(2.62649e-05 -0.0176472 -0.908699)
(2.56239e-05 -0.0176496 -1.82027e-07)
(0.000210132 -0.042394 -2.35544e-07)
(0.000210047 -0.0424026 -1.84988e-07)
(0.000195228 -0.0426275 -2.31209e-07)
(0.000195146 -0.0426361 -1.81802e-07)
(2.74171e-05 -0.0175579 -2.35325e-07)
(2.73594e-05 -0.0175611 -1.84574e-07)
(2.54082e-05 -0.0176534 -2.30766e-07)
(2.53527e-05 -0.0176567 -1.81135e-07)
(0.000209997 -0.0424072 -6.97816e-08)
(0.000209999 -0.0424072 7.25822e-08)
(0.000195101 -0.0426408 -6.85359e-08)
(0.000195111 -0.0426408 7.13289e-08)
(2.7336e-05 -0.0175629 -6.85847e-08)
(2.73365e-05 -0.0175629 7.13292e-08)
(2.53314e-05 -0.0176585 -6.72817e-08)
(2.53357e-05 -0.0176585 7.01443e-08)
(0.000210053 -0.0424026 1.87459e-07)
(0.000210142 -0.042394 2.37458e-07)
(0.000195176 -0.0426361 1.84266e-07)
(0.000195279 -0.0426274 2.33134e-07)
(2.73612e-05 -0.0175611 1.87006e-07)
(2.74201e-05 -0.0175579 2.37229e-07)
(2.53657e-05 -0.0176567 1.83681e-07)
(2.54297e-05 -0.0176534 2.3279e-07)
(0.00021028 -0.042384 2.45878e-07)
(0.000210534 -0.0423775 0.920411)
(0.000195427 -0.0426174 2.39555e-07)
(0.000195676 -0.0426108 0.92075)
(2.76507e-05 -0.0175541 1.85805e-07)
(2.83365e-05 -0.0175518 0.908368)
(2.5653e-05 -0.0176496 1.83374e-07)
(2.62994e-05 -0.0176472 0.908699)
(0.00024288 -0.0418654 -0.919105)
(0.000242598 -0.0418718 -2.60689e-07)
(0.000226269 -0.0421292 -0.919456)
(0.000226004 -0.0421356 -2.52002e-07)
(3.2812e-05 -0.0173419 -0.907094)
(3.20316e-05 -0.0173441 -1.92394e-07)
(3.05075e-05 -0.0174501 -0.907437)
(2.97761e-05 -0.0174524 -1.87902e-07)
(0.000242452 -0.0418816 -2.47674e-07)
(0.000242362 -0.04189 -1.9401e-07)
(0.000225864 -0.0421455 -2.40942e-07)
(0.000225774 -0.042154 -1.88994e-07)
(3.17725e-05 -0.0173478 -2.47951e-07)
(3.17108e-05 -0.0173509 -1.94106e-07)
(2.9532e-05 -0.0174561 -2.40985e-07)
(2.94717e-05 -0.0174593 -1.88853e-07)
(0.000242306 -0.0418944 -7.32137e-08)
(0.000242302 -0.0418944 7.62281e-08)
(0.000225718 -0.0421585 -7.13261e-08)
(0.00022571 -0.0421585 7.41734e-08)
(3.16853e-05 -0.0173526 -7.20631e-08)
(3.16834e-05 -0.0173526 7.49173e-08)
(2.94456e-05 -0.017461 -7.01923e-08)
(2.9442e-05 -0.017461 7.28308e-08)
(0.000242348 -0.0418899 1.96632e-07)
(0.000242428 -0.0418816 2.49673e-07)
(0.000225751 -0.042154 1.9149e-07)
(0.000225825 -0.0421455 2.42854e-07)
(3.17047e-05 -0.0173509 1.96574e-07)
(3.17619e-05 -0.0173478 2.49776e-07)
(2.94609e-05 -0.0174592 1.91142e-07)
(2.9514e-05 -0.017456 2.42689e-07)
(0.000242564 -0.0418718 2.61966e-07)
(0.000242839 -0.0418653 0.919105)
(0.000225951 -0.0421356 2.53218e-07)
(0.000226207 -0.0421291 0.919456)
(3.20168e-05 -0.0173442 1.93539e-07)
(3.27939e-05 -0.0173419 0.907094)
(2.97516e-05 -0.0174524 1.89036e-07)
(3.04784e-05 -0.01745 0.907437)
(0.000278801 -0.0412887 -0.917746)
(0.000278481 -0.041295 -2.81461e-07)
(0.000260393 -0.0415853 -0.918101)
(0.000260093 -0.0415917 -2.704e-07)
(3.78205e-05 -0.0171048 -0.90577)
(3.69341e-05 -0.017107 -2.04083e-07)
(3.52473e-05 -0.0172268 -0.906116)
(3.44153e-05 -0.0172291 -1.97683e-07)
(0.00027832 -0.0413046 -2.64629e-07)
(0.000278223 -0.0413128 -2.06741e-07)
(0.00025994 -0.0416014 -2.55459e-07)
(0.000259848 -0.0416097 -1.99822e-07)
(3.66406e-05 -0.0171105 -2.65295e-07)
(3.65739e-05 -0.0171135 -2.0727e-07)
(3.41397e-05 -0.0172327 -2.55931e-07)
(3.40764e-05 -0.0172357 -2.00123e-07)
(0.000278168 -0.0413171 -7.79847e-08)
(0.000278176 -0.0413171 8.14234e-08)
(0.000259795 -0.0416141 -7.53783e-08)
(0.0002598 -0.0416141 7.86333e-08)
(3.65491e-05 -0.0171151 -7.67248e-08)
(3.65524e-05 -0.0171151 8.02763e-08)
(3.40523e-05 -0.0172374 -7.41523e-08)
(3.40543e-05 -0.0172374 7.74439e-08)
(0.000278247 -0.0413127 2.09695e-07)
(0.000278361 -0.0413045 2.66835e-07)
(0.000259862 -0.0416097 2.02634e-07)
(0.000259963 -0.0416014 2.57575e-07)
(3.6584e-05 -0.0171135 2.10368e-07)
(3.66577e-05 -0.0171105 2.67647e-07)
(3.40822e-05 -0.0172357 2.02996e-07)
(3.41491e-05 -0.0172327 2.58097e-07)
(0.000278537 -0.0412949 2.82848e-07)
(0.000278867 -0.0412886 0.917746)
(0.000260122 -0.0415917 2.71718e-07)
(0.000260425 -0.0415853 0.918101)
(3.69577e-05 -0.017107 2.05499e-07)
(3.78489e-05 -0.0171048 0.90577)
(3.44275e-05 -0.0172291 1.98981e-07)
(3.52615e-05 -0.0172269 0.906116)
(0.000318248 -0.0406425 -0.916349)
(0.000317888 -0.0406487 -3.06784e-07)
(0.000298096 -0.0409745 -0.916721)
(0.000297756 -0.0409807 -2.93469e-07)
(4.33182e-05 -0.0168384 -0.904407)
(4.23167e-05 -0.0168406 -2.19413e-07)
(4.05106e-05 -0.0169754 -0.90477)
(3.95675e-05 -0.0169775 -2.11221e-07)
(0.000317708 -0.0406581 -2.86344e-07)
(0.000317597 -0.0406661 -2.23374e-07)
(0.000297585 -0.0409902 -2.74808e-07)
(0.000297481 -0.0409983 -2.14503e-07)
(4.19856e-05 -0.016844 -2.87375e-07)
(4.19101e-05 -0.0168469 -2.24379e-07)
(3.92552e-05 -0.016981 -2.75669e-07)
(3.91839e-05 -0.016984 -2.15272e-07)
(0.000317528 -0.0406704 -8.43492e-08)
(0.00031752 -0.0406704 8.79101e-08)
(0.000297419 -0.0410026 -8.09459e-08)
(0.000297421 -0.0410026 8.44718e-08)
(4.1879e-05 -0.0168484 -8.31641e-08)
(4.18754e-05 -0.0168484 8.65497e-08)
(3.91562e-05 -0.0169855 -7.97117e-08)
(3.9157e-05 -0.0169855 8.32461e-08)
(0.000317573 -0.0406661 2.26419e-07)
(0.000317668 -0.0406581 2.88562e-07)
(0.000297487 -0.0409983 2.17528e-07)
(0.000297596 -0.0409902 2.7705e-07)
(4.18992e-05 -0.0168469 2.27259e-07)
(4.19672e-05 -0.016844 2.89433e-07)
(3.91864e-05 -0.016984 2.18322e-07)
(3.92596e-05 -0.016981 2.77922e-07)
(0.000317833 -0.0406487 3.08133e-07)
(0.000318183 -0.0406425 0.916349)
(0.000297773 -0.0409807 2.94843e-07)
(0.000298117 -0.0409744 0.916721)
(4.22918e-05 -0.0168406 2.20628e-07)
(4.32891e-05 -0.0168384 0.904407)
(3.95741e-05 -0.0169775 2.12547e-07)
(4.05192e-05 -0.0169753 0.90477)
(0.000361272 -0.0399227 -0.914905)