/*--------------------------------*- C++ -*----------------------------------*\
  =========                 |
  \\      /  F ield         | OpenFOAM: The Open Source CFD Toolbox
   \\    /   O peration     | Website:  https://openfoam.org
    \\  /    A nd           | Version:  9
     \\/     M anipulation  |
\*---------------------------------------------------------------------------*/
FoamFile
{
    format      ascii;
    class       volScalarField;
    location    "2";
    object      epsilon;
}
// * * * * * * * * * * * * * * * * * * * * * * * * * * * * * * * * * * * * * //

dimensions      [0 2 -3 0 0 0 0];

internalField   nonuniform List<scalar> 
36360
(
0.217944
0.167657
0.0726388
0.0656679
0.0539636
0.0343141
0.0113152
0.00922917
0.0364955
0.0062411
0.0101283
0.00435117
0.00768854
0.00329803
0.00508435
0.00495605
0.00235649
0.00235597
0.0044152
0.00441524
0.00308115
0.0030811
0.00497189
0.00497188
0.00623796
0.0364936
0.00435072
0.0101269
0.00329742
0.00768743
0.00495603
0.00508402
0.167688
0.218024
0.0656744
0.0726707
0.0343253
0.0539987
0.00922994
0.0113183
0.416705
0.321501
0.332148
0.254386
0.231275
0.148952
0.14476
0.0907244
0.118426
0.036549
0.0796661
0.0169367
0.049169
0.00949748
0.0212346
0.0043112
0.00744309
0.00743822
0.00304075
0.00303851
0.00236677
0.00236567
0.00214543
0.0021452
0.0365452
0.118451
0.0169295
0.0796762
0.00949305
0.0491804
0.0043093
0.021235
0.321588
0.416867
0.254444
0.332271
0.149026
0.231428
0.0907624
0.144854
0.524725
0.4102
0.478839
0.372161
0.355474
0.240646
0.301301
0.199763
0.175492
0.0709493
0.150274
0.0548436
0.102613
0.0347342
0.0776619
0.0212648
0.029433
0.0294352
0.0175958
0.0175919
0.00976803
0.0097654
0.00427655
0.00427411
0.0709676
0.175556
0.054849
0.150317
0.0347408
0.102666
0.021262
0.0776913
0.410349
0.52497
0.372278
0.479041
0.240801
0.355752
0.199876
0.301515
0.58338
0.459544
0.558572
0.438581
0.427543
0.296711
0.396694
0.272515
0.209842
0.0950807
0.195035
0.0843969
0.139157
0.0585242
0.123094
0.0475901
0.0491901
0.0492033
0.0402355
0.0402435
0.0258848
0.0258916
0.0178264
0.0178279
0.0951278
0.209952
0.0844297
0.195122
0.0585617
0.139266
0.0476113
0.123175
0.459762
0.583717
0.438765
0.558863
0.296959
0.427954
0.272717
0.397038
0.614062
0.48565
0.601358
0.474819
0.466532
0.327599
0.450292
0.314709
0.228719
0.109198
0.220844
0.103259
0.1602
0.0735905
0.151363
0.0671981
0.0613241
0.0613459
0.0561944
0.0562122
0.0380539
0.0380707
0.0327919
0.032804
0.10927
0.22887
0.103319
0.220975
0.0736572
0.160359
0.0672511
0.151499
0.485929
0.614484
0.475069
0.60174
0.327932
0.467065
0.315002
0.450767
0.628705
0.498174
0.62288
0.493188
0.485514
0.342657
0.477942
0.336669
0.237922
0.116192
0.234258
0.113411
0.170594
0.0811206
0.16646
0.0781431
0.06737
0.0673973
0.0649734
0.0649983
0.0443252
0.0443486
0.0418512
0.0418718
0.116281
0.238102
0.113492
0.234425
0.0812068
0.170789
0.0782209
0.166639
0.498499
0.62919
0.493493
0.623336
0.343051
0.486137
0.337036
0.478525
0.634661
0.503304
0.632478
0.501417
0.493442
0.348866
0.490513
0.346596
0.241738
0.119087
0.240337
0.118031
0.174906
0.0841656
0.173329
0.0830735
0.0698449
0.0698752
0.0689502
0.0689792
0.0468181
0.0468448
0.0459394
0.0459648
0.119185
0.241935
0.118125
0.240527
0.0842621
0.175121
0.0831659
0.173536
0.503656
0.635183
0.501758
0.632984
0.349296
0.494118
0.347012
0.491167
0.636302
0.504787
0.635887
0.504388
0.495922
0.350731
0.495207
0.350224
0.242907
0.119988
0.24258
0.119734
0.176259
0.0850723
0.175875
0.0848308
0.0706039
0.0706354
0.0703953
0.0704264
0.0475212
0.0475491
0.0473488
0.0473763
0.120089
0.243111
0.119834
0.242782
0.085173
0.176483
0.08493
0.176096
0.505153
0.636844
0.504749
0.636421
0.351178
0.496624
0.350664
0.495899
0.636041
0.504681
0.636335
0.504871
0.496006
0.350721
0.496172
0.350892
0.242938
0.120059
0.243033
0.12011
0.176364
0.0851313
0.176432
0.0851868
0.0706719
0.0707038
0.0707132
0.0707451
0.0475543
0.0475824
0.0476075
0.0476356
0.120162
0.243145
0.120212
0.243239
0.0852329
0.17659
0.0852883
0.176658
0.505051
0.636588
0.50524
0.63688
0.351172
0.496716
0.351343
0.49688
0.634936
0.503912
0.63561
0.504398
0.495164
0.349996
0.49575
0.350493
0.242527
0.119831
0.242812
0.120003
0.176021
0.0849104
0.17628
0.0850813
0.0705086
0.0705405
0.0706394
0.0706713
0.0473762
0.0474042
0.0475155
0.0475436
0.119933
0.242734
0.120106
0.243019
0.0850119
0.176247
0.0851829
0.176506
0.504282
0.635484
0.504768
0.636158
0.350449
0.495876
0.350945
0.496462
0.633386
0.502805
0.634252
0.503434
0.493824
0.3489
0.494622
0.349554
0.241888
0.119439
0.242272
0.119688
0.175424
0.0845223
0.1758
0.084778
0.0702154
0.070247
0.0704103
0.0704421
0.0470691
0.0470969
0.0472761
0.0473041
0.119541
0.242094
0.11979
0.242478
0.0846232
0.175649
0.0848794
0.176026
0.503174
0.633932
0.503804
0.634799
0.34935
0.494533
0.350006
0.495333
0.631549
0.501496
0.632549
0.502218
0.492201
0.347599
0.493129
0.348347
0.241123
0.118962
0.241564
0.119249
0.174696
0.0840495
0.175132
0.0843436
0.0698545
0.069886
0.0700796
0.0701112
0.0466953
0.0467228
0.0469344
0.0469621
0.119064
0.241328
0.119351
0.241769
0.0841494
0.174919
0.0844441
0.175357
0.501863
0.632093
0.502586
0.633095
0.348047
0.492907
0.348797
0.493837
0.629474
0.500026
0.630588
0.500824
0.490357
0.346141
0.49139
0.346964
0.240263
0.118422
0.240749
0.118739
0.173867
0.0835123
0.174351
0.083837
0.0694449
0.069476
0.069693
0.0697244
0.0462732
0.0463003
0.0465352
0.0465626
0.118523
0.240466
0.11884
0.240953
0.0836112
0.174088
0.0839365
0.174574
0.500391
0.630014
0.501189
0.63113
0.346586
0.491058
0.34741
0.492094
0.627179
0.498413
0.628402
0.499281
0.488313
0.34454
0.489445
0.345433
0.239318
0.117826
0.239845
0.118171
0.172947
0.0829168
0.173476
0.0832702
0.0689915
0.0690224
0.0692611
0.0692922
0.0458067
0.0458335
0.0460905
0.0461175
0.117926
0.239519
0.118271
0.240048
0.0830145
0.173166
0.0833686
0.173697
0.498774
0.627715
0.499644
0.62894
0.344982
0.489009
0.345877
0.490144
0.624653
0.496647
0.625993
0.497592
0.486063
0.342789
0.487299
0.343758
0.238285
0.117174
0.238856
0.117547
0.171935
0.0822623
0.17251
0.0826451
0.0684942
0.0685247
0.0687857
0.0688165
0.0452954
0.0453218
0.0456014
0.045628
0.117272
0.238484
0.117646
0.239057
0.0823587
0.172152
0.0827422
0.172729
0.497005
0.625186
0.497952
0.626528
0.343226
0.486754
0.344198
0.487993
0.621893
0.494729
0.623351
0.49575
0.483603
0.340881
0.484944
0.341929
0.237162
0.116463
0.237779
0.116865
0.170828
0.0815469
0.171451
0.08196
0.0679515
0.0679816
0.0682657
0.0682961
0.0447376
0.0447635
0.0450668
0.0450929
0.116561
0.23736
0.116963
0.237977
0.0816419
0.171043
0.0820559
0.171667
0.495084
0.622422
0.496107
0.623881
0.341315
0.484289
0.342365
0.485633
0.618889
0.492651
0.62047
0.493753
0.480926
0.338813
0.482377
0.339941
0.235946
0.115692
0.23661
0.116124
0.169623
0.0807681
0.170295
0.0812128
0.0673616
0.0673913
0.0676994
0.0677294
0.0441315
0.0441568
0.0444846
0.0445102
0.115789
0.236142
0.116221
0.236807
0.0808616
0.169835
0.0813072
0.170509
0.493003
0.619413
0.494107
0.620996
0.339242
0.481606
0.340373
0.48306
0.61563
0.490407
0.617339
0.491593
0.47802
0.336571
0.479586
0.337787
0.234633
0.114858
0.235346
0.115322
0.168316
0.0799233
0.169039
0.080401
0.0667225
0.0667518
0.0670849
0.0671145
0.0434751
0.0434999
0.0438531
0.0438782
0.114953
0.234826
0.115418
0.23554
0.0800152
0.168525
0.0804938
0.16925
0.490755
0.616149
0.491943
0.617861
0.336995
0.478693
0.338214
0.480263
0.612104
0.487986
0.613946
0.489259
0.474877
0.334147
0.476562
0.335454
0.233217
0.113959
0.233981
0.114455
0.166902
0.0790103
0.167678
0.0795218
0.0660325
0.0660614
0.0664203
0.0664494
0.0427671
0.0427913
0.0431706
0.0431951
0.114052
0.233407
0.114549
0.234173
0.0791005
0.167108
0.079613
0.167886
0.488331
0.612618
0.489606
0.614463
0.334566
0.475543
0.335876
0.477231
0.608309
0.485388
0.610287
0.486751
0.471492
0.331533
0.473298
0.332936
0.231696
0.112992
0.232513
0.113522
0.165378
0.0780277
0.166209
0.0785737
0.0652905
0.0653188
0.0657041
0.0657327
0.0420067
0.0420302
0.0424359
0.0424598
0.113084
0.231884
0.113615
0.232702
0.078116
0.165581
0.078663
0.166414
0.485728
0.608817
0.487094
0.610798
0.331947
0.47215
0.333352
0.47396
0.604238
0.482607
0.606353
0.484061
0.467861
0.328726
0.469789
0.330225
0.230068
0.111958
0.230938
0.112521
0.163743
0.0769748
0.164629
0.0775554
0.0644958
0.0645236
0.0649355
0.0649636
0.0411936
0.0412164
0.0416486
0.0416718
0.112048
0.230254
0.112613
0.231125
0.0770611
0.163942
0.0776428
0.164831
0.482943
0.604741
0.484399
0.606859
0.329134
0.468511
0.330636
0.470444
0.599891
0.479644
0.602144
0.481188
0.463985
0.325724
0.466035
0.327319
0.228334
0.110855
0.229257
0.111452
0.161997
0.075852
0.162938
0.0764669
0.0636483
0.0636755
0.064114
0.0641415
0.0403284
0.0403505
0.0408087
0.0408312
0.110944
0.228516
0.111542
0.229441
0.0759362
0.162193
0.0765522
0.163136
0.479975
0.600388
0.481522
0.602644
0.326127
0.464626
0.327725
0.466681
0.59527
0.476495
0.597659
0.478133
0.459869
0.322552
0.462037
0.324227
0.226492
0.109685
0.227469
0.110315
0.160144
0.0746606
0.161138
0.075309
0.0627487
0.0627753
0.0632399
0.0632669
0.0394126
0.0394339
0.0399174
0.0399391
0.109771
0.226671
0.110403
0.227649
0.0747425
0.160336
0.0753922
0.161332
0.476822
0.59576
0.478462
0.598152
0.322947
0.460501
0.324626
0.462674
0.590388
0.473168
0.592905
0.474892
0.45552
0.31921
0.457803
0.320972
0.224547
0.108448
0.225574
0.109111
0.158186
0.0734027
0.159232
0.0740833
0.0617985
0.0618245
0.0623144
0.0623407
0.0384483
0.0384687
0.0389762
0.0389971
0.108533
0.224722
0.109197
0.225751
0.0734822
0.158374
0.0741642
0.159422
0.473489
0.590871
0.475216
0.593392
0.319598
0.456143
0.321364
0.458431
0.585263
0.469676
0.587898
0.47148
0.450954
0.315696
0.453342
0.317541
0.222504
0.10715
0.223578
0.107843
0.156127
0.0720822
0.157221
0.0727929
0.0608008
0.0608261
0.0613396
0.0613653
0.0374392
0.0374588
0.0379883
0.0380083
0.107233
0.222676
0.107927
0.223752
0.0721593
0.156311
0.0728713
0.157407
0.469992
0.585739
0.471799
0.588378
0.316077
0.451567
0.317926
0.453961
0.579917
0.466032
0.582659
0.46791
0.446188
0.312028
0.448673
0.313947
0.220371
0.105796
0.221489
0.106515
0.153976
0.0707048
0.155115
0.0714424
0.0597594
0.059784
0.060319
0.060344
0.0363903
0.036409
0.0369578
0.036977
0.105876
0.22054
0.106597
0.22166
0.0707793
0.154155
0.0715184
0.155296
0.466343
0.580385
0.468224
0.583132
0.312402
0.446791
0.314325
0.449281
0.574376
0.462251
0.577211
0.464195
0.441246
0.308224
0.443815
0.310208
0.218159
0.10439
0.219315
0.105134
0.151742
0.0692773
0.15292
0.0700383
0.0586793
0.0587031
0.0592571
0.0592814
0.0353075
0.0353252
0.0358904
0.0359086
0.104469
0.218324
0.105214
0.219482
0.0693491
0.151917
0.0701116
0.153097
0.462556
0.574837
0.464503
0.577676
0.30859
0.441839
0.310579
0.444413
0.568678
0.458359
0.571586
0.460352
0.436158
0.304293
0.438795
0.306339
0.215879
0.102942
0.217066
0.103706
0.149438
0.0678082
0.150649
0.0685881
0.0575667
0.0575898
0.0581595
0.058183
0.0341978
0.0342146
0.0347923
0.0348096
0.103018
0.21604
0.103783
0.217229
0.0678773
0.149608
0.0686587
0.150821
0.458658
0.569131
0.460654
0.572043
0.304652
0.436739
0.306702
0.439382
0.562854
0.454392
0.565821
0.456421
0.430956
0.300268
0.433645
0.302353
0.213547
0.101461
0.214759
0.102239
0.147078
0.0663071
0.148313
0.0671011
0.0564287
0.056451
0.0570328
0.0570555
0.0330692
0.033085
0.0336713
0.0336877
0.101535
0.213705
0.102315
0.214918
0.0663735
0.147243
0.0671689
0.148481
0.454685
0.563299
0.456717
0.56627
0.300619
0.431525
0.302708
0.434221
0.556938
0.450354
0.559946
0.452416
0.42567
0.296182
0.428396
0.298295
0.211175
0.0999548
0.212405
0.100744
0.144676
0.0647837
0.14593
0.0655868
0.0552726
0.0552942
0.0558843
0.0559063
0.0319301
0.0319449
0.0325355
0.0325509
0.100026
0.211328
0.100817
0.21256
0.0648472
0.144837
0.0656518
0.146093
0.45064
0.557374
0.452706
0.560386
0.296525
0.426228
0.298642
0.42896
0.550967
0.446263
0.553997
0.448348
0.420328
0.292054
0.423078
0.294185
0.208772
0.0984318
0.210015
0.0992283
0.142246
0.0632472
0.143512
0.064055
0.0541055
0.0541262
0.0547214
0.0547426
0.0307888
0.0308026
0.0313933
0.0314077
0.0985011
0.208921
0.0992989
0.210166
0.0633078
0.142401
0.0641172
0.14367
0.446543
0.551394
0.448632
0.55443
0.292388
0.420875
0.294524
0.423632
0.544959
0.442131
0.548007
0.444236
0.414938
0.287891
0.417713
0.290038
0.206343
0.0968957
0.207599
0.0976982
0.139791
0.0617039
0.141069
0.0625138
0.0529316
0.0529516
0.0535501
0.0535705
0.0296523
0.0296652
0.0302528
0.0302662
0.0969626
0.206488
0.0977664
0.207746
0.0617617
0.139941
0.0625731
0.141222
0.442404
0.545378
0.444514
0.54843
0.288217
0.415474
0.290369
0.418254
0.5389
0.437937
0.541978
0.440078
0.409466
0.283675
0.41229
0.285853
0.203872
0.0953389
0.205152
0.0961534
0.1373
0.0601517
0.138599
0.0609664
0.0517484
0.0517674
0.0523722
0.0523917
0.0285227
0.0285345
0.0291192
0.0291316
0.0954034
0.204013
0.0962191
0.205296
0.0602066
0.137446
0.0610228
0.138746
0.438205
0.53931
0.440349
0.542393
0.283993
0.409989
0.286175
0.412819
0.532698
0.433596
0.535864
0.435827
0.403786
0.279317
0.406736
0.281584
0.201303
0.0937289
0.202643
0.0945757
0.134724
0.0585681
0.136074
0.0594023
0.0505348
0.050553
0.0511775
0.0511961
0.027389
0.0273998
0.0279892
0.0280006
0.0937907
0.20144
0.094639
0.202782
0.05862
0.134864
0.0594558
0.136217
0.433856
0.533099
0.436091
0.53627
0.279625
0.404296
0.281897
0.407252
0.526145
0.428915
0.529522
0.431346
0.397624
0.274664
0.40086
0.277096
0.19851
0.0919862
0.199982
0.0929127
0.131945
0.0568886
0.133416
0.0577817
0.0492326
0.0492498
0.0499297
0.0499474
0.0262112
0.026221
0.0268401
0.0268505
0.092045
0.198642
0.0929731
0.200116
0.0569373
0.132079
0.0578321
0.133553
0.429168
0.526535
0.431603
0.529917
0.27496
0.398118
0.277398
0.401363
0.518844
0.423571
0.522659
0.426385
0.390446
0.269303
0.394275
0.272167
0.195258
0.0899452
0.196998
0.0910484
0.12872
0.0549668
0.130454
0.0560053
0.0477116
0.0477276
0.0485398
0.0485564
0.0248919
0.0249004
0.0256075
0.0256167
0.0900004
0.195384
0.0911056
0.197127
0.0550115
0.128847
0.0560522
0.130584
0.423815
0.51922
0.426633
0.523042
0.269586
0.390921
0.272456
0.39476
0.510127
0.416954
0.514749
0.420516
0.381357
0.262514
0.386277
0.266202
0.191057
0.0872626
0.193362
0.0887462
0.124578
0.0525102
0.126849
0.0538636
0.0457138
0.0457281
0.0468222
0.0468375
0.0232376
0.0232446
0.0241505
0.0241583
0.0873132
0.191175
0.0887994
0.193484
0.05255
0.124695
0.0539062
0.126972
0.417185
0.510487
0.420754
0.515117
0.262781
0.381809
0.266478
0.386742
0.499432
0.406882
0.505014
0.412679
0.369282
0.253109
0.375785
0.258305
0.184432
0.0831483
0.188262
0.0854917
0.118495
0.0489854
0.12192
0.0509549
0.0427857
0.0427979
0.0444272
0.0444406
0.020955
0.0209599
0.0222189
0.0222249
0.0831928
0.184539
0.0855395
0.188375
0.0490187
0.1186
0.0509918
0.122032
0.407098
0.499776
0.412903
0.505366
0.253359
0.369708
0.258565
0.376225
0.494463
0.378662
0.494844
0.397966
0.353578
0.23332
0.362319
0.246038
0.169784
0.0760251
0.178846
0.0800904
0.107912
0.0437565
0.114063
0.0466271
0.0384572
0.0384667
0.0408235
0.0408344
0.0178822
0.0178846
0.0195284
0.0195321
0.0760613
0.169877
0.0801311
0.178947
0.0437817
0.108001
0.0466566
0.114161
0.378855
0.494803
0.398173
0.495183
0.23354
0.353979
0.246276
0.362733
0.320435
0.245519
0.126641
0.101092
0.283793
0.217217
0.10612
0.0856563
0.0711316
0.0138051
0.0164677
0.00509275
0.0570894
0.0102501
0.0134673
0.00476524
0.0033244
0.00332182
0.00431453
0.00431487
0.00282782
0.00282629
0.00447146
0.00447169
0.0137977
0.0711374
0.0050913
0.0164666
0.0102444
0.0570906
0.00476431
0.0134657
0.245585
0.320587
0.101118
0.126728
0.217267
0.283912
0.0856718
0.106181
0.569803
0.446265
0.465263
0.36029
0.512524
0.39947
0.416784
0.321556
0.194804
0.0751863
0.138067
0.0412855
0.164858
0.059016
0.115423
0.0308096
0.0242773
0.0242707
0.0082942
0.00828694
0.0159848
0.0159773
0.00555932
0.00555414
0.0751925
0.19486
0.0412762
0.138097
0.0590166
0.164899
0.0308002
0.115443
0.446408
0.57005
0.360395
0.465464
0.399585
0.512728
0.321638
0.416948
0.701993
0.558596
0.646002
0.510551
0.632992
0.500719
0.582048
0.457492
0.275707
0.131745
0.240166
0.105751
0.235019
0.105678
0.204265
0.0842349
0.0698439
0.0698581
0.0479178
0.0479222
0.0514726
0.0514809
0.0340857
0.0340859
0.131797
0.275829
0.10578
0.240254
0.105713
0.235112
0.0842514
0.204331
0.558823
0.70234
0.510735
0.646296
0.500906
0.633286
0.457642
0.582296
0.773339
0.620897
0.743172
0.594402
0.697647
0.556488
0.670355
0.532823
0.324056
0.16964
0.303191
0.152972
0.276584
0.136945
0.258694
0.123199
0.103353
0.103383
0.0884564
0.0884795
0.0784784
0.0785006
0.0664402
0.0664559
0.169738
0.324246
0.153048
0.303347
0.137018
0.276733
0.123253
0.258815
0.621213
0.773797
0.594673
0.743574
0.556752
0.69804
0.533048
0.670698
0.810786
0.654147
0.795233
0.640287
0.731352
0.585987
0.717387
0.573728
0.350947
0.191719
0.339657
0.182385
0.299456
0.15505
0.289888
0.147421
0.123338
0.123382
0.114866
0.114904
0.0945797
0.0946124
0.0877747
0.0878026
0.191854
0.351197
0.182502
0.339879
0.155153
0.299655
0.14751
0.290064
0.654544
0.811344
0.640645
0.795743
0.586321
0.731834
0.574029
0.717827
0.828887
0.670418
0.821642
0.663884
0.747488
0.600252
0.741053
0.594548
0.364431
0.202985
0.358999
0.198441
0.310759
0.16415
0.30623
0.160502
0.133589
0.133641
0.129457
0.129505
0.102708
0.102747
0.0994547
0.0994914
0.203146
0.364724
0.19859
0.359273
0.164274
0.310994
0.160617
0.306449
0.670875
0.829522
0.664314
0.822243
0.600637
0.748038
0.59491
0.741573
0.836371
0.677273
0.833605
0.674717
0.754072
0.606166
0.751653
0.603975
0.370266
0.207908
0.36808
0.206063
0.315554
0.168034
0.313773
0.166594
0.138065
0.138122
0.136392
0.136447
0.106162
0.106206
0.104887
0.104929
0.208084
0.370585
0.206233
0.368388
0.16817
0.31581
0.166726
0.31402
0.677766
0.837053
0.675194
0.834268
0.606583
0.754664
0.604379
0.752227
0.838448
0.679336
0.837916
0.678754
0.75585
0.607895
0.755411
0.607422
0.37219
0.209587
0.371612
0.209072
0.317081
0.169308
0.316636
0.16893
0.139604
0.139664
0.13913
0.139189
0.107297
0.107343
0.106961
0.107006
0.209771
0.372522
0.209253
0.371939
0.16945
0.317348
0.16907
0.316899
0.679847
0.839156
0.679259
0.838613
0.608327
0.756464
0.607848
0.756016
0.838056
0.679216
0.83847
0.679471
0.755475
0.607757
0.755852
0.60799
0.372341
0.209818
0.372448
0.209862
0.317162
0.169449
0.317267
0.169501
0.139849
0.13991
0.139875
0.139935
0.107446
0.107492
0.107482
0.107528
0.210004
0.372678
0.210048
0.372784
0.169593
0.317431
0.169644
0.317536
0.679734
0.838772
0.679988
0.839183
0.608194
0.756096
0.608426
0.75647
0.836538
0.678148
0.837443
0.678811
0.754117
0.606814
0.754926
0.607398
0.371775
0.2095
0.372174
0.209752
0.316661
0.169169
0.317009
0.169385
0.139629
0.139689
0.139822
0.139883
0.107248
0.107295
0.107413
0.107459
0.209687
0.372113
0.209939
0.372511
0.169313
0.316932
0.169529
0.317279
0.678668
0.837256
0.67933
0.83816
0.607252
0.754739
0.607836
0.755548
0.83445
0.676613
0.835599
0.677473
0.752254
0.605468
0.753281
0.606222
0.370853
0.208906
0.371406
0.209284
0.315869
0.16867
0.316342
0.168986
0.139173
0.139233
0.139477
0.139537
0.10687
0.106916
0.107121
0.107167
0.209092
0.37119
0.209471
0.371743
0.168813
0.316139
0.16913
0.316612
0.677131
0.835166
0.677992
0.836317
0.605905
0.752874
0.60666
0.753902
0.832005
0.674805
0.833321
0.67579
0.750069
0.603884
0.751247
0.604748
0.36974
0.208172
0.370378
0.208612
0.314918
0.168058
0.315462
0.168424
0.138599
0.138659
0.138954
0.139015
0.106399
0.106445
0.106691
0.106737
0.208357
0.370075
0.208798
0.370713
0.168201
0.315186
0.168567
0.315731
0.67532
0.832717
0.676306
0.834035
0.604318
0.750686
0.605183
0.751865
0.829267
0.672786
0.830722
0.673869
0.747615
0.602112
0.74892
0.603064
0.368489
0.207341
0.369191
0.207826
0.313849
0.167366
0.314449
0.16777
0.137946
0.138005
0.138338
0.138398
0.105865
0.10591
0.106186
0.106232
0.207525
0.368822
0.208011
0.369525
0.167508
0.314114
0.167912
0.314716
0.673298
0.829975
0.674383
0.831432
0.602543
0.748228
0.603497
0.749536
0.826266
0.670583
0.82785
0.671756
0.744916
0.600172
0.746342
0.601207
0.36712
0.206428
0.367881
0.206953
0.312675
0.166605
0.313326
0.167043
0.137226
0.137285
0.137651
0.137711
0.105274
0.10532
0.105623
0.105668
0.20661
0.36745
0.207137
0.368212
0.166745
0.312939
0.167184
0.313591
0.671091
0.826969
0.672266
0.828556
0.6006
0.745524
0.601636
0.746953
0.822982
0.668184
0.82471
0.669456
0.741955
0.598055
0.743515
0.599179
0.365629
0.205432
0.366451
0.205999
0.311395
0.165772
0.3121
0.166246
0.136441
0.136499
0.136898
0.136957
0.104629
0.104673
0.105005
0.10505
0.205613
0.365956
0.206181
0.36678
0.165912
0.311656
0.166386
0.312362
0.668688
0.82368
0.669962
0.825411
0.59848
0.74256
0.599605
0.744122
0.819412
0.66559
0.821284
0.66696
0.738731
0.595763
0.740423
0.596975
0.364015
0.204352
0.364898
0.204961
0.310006
0.164868
0.310766
0.165378
0.135587
0.135645
0.136079
0.136138
0.103926
0.10397
0.104331
0.104375
0.204531
0.364339
0.205141
0.365224
0.165006
0.310265
0.165516
0.311026
0.666089
0.820104
0.667462
0.821979
0.596183
0.73933
0.597398
0.741025
0.815541
0.662785
0.817565
0.664262
0.735229
0.593285
0.737061
0.59459
0.36227
0.203184
0.363219
0.203837
0.308505
0.163889
0.309321
0.164436
0.134663
0.134721
0.13519
0.135248
0.103163
0.103207
0.103598
0.103642
0.203361
0.362591
0.204016
0.363542
0.164025
0.308761
0.164573
0.309579
0.66328
0.816228
0.664759
0.818255
0.593702
0.735824
0.595009
0.737658
0.811356
0.659763
0.813539
0.661349
0.731438
0.590614
0.733416
0.592017
0.360388
0.201923
0.361407
0.202623
0.306885
0.162831
0.307761
0.163417
0.133665
0.133722
0.13423
0.134287
0.102339
0.102382
0.102805
0.102848
0.202098
0.360706
0.202799
0.361726
0.162966
0.307139
0.163553
0.308016
0.660252
0.812036
0.661842
0.814222
0.591026
0.732027
0.592432
0.734008
0.806841
0.656511
0.809187
0.658211
0.727344
0.58774
0.729472
0.589243
0.358365
0.200566
0.359454
0.201314
0.305142
0.161691
0.306079
0.162319
0.13259
0.132646
0.133193
0.13325
0.101449
0.101492
0.101948
0.101991
0.200739
0.358679
0.201488
0.35977
0.161824
0.305392
0.162452
0.306332
0.656996
0.807514
0.658698
0.809864
0.588148
0.727927
0.589653
0.730058
0.801996
0.653038
0.804509
0.654849
0.722945
0.584664
0.725228
0.586269
0.356198
0.19911
0.357359
0.199907
0.303274
0.160468
0.304274
0.161137
0.131436
0.131491
0.132078
0.132134
0.100494
0.100536
0.101025
0.101068
0.199282
0.356508
0.20008
0.357671
0.1606
0.303521
0.161269
0.304523
0.653516
0.802661
0.655331
0.805179
0.585068
0.723522
0.586674
0.725808
0.796806
0.649327
0.799491
0.651258
0.718234
0.581382
0.720672
0.583089
0.353883
0.197555
0.355118
0.198402
0.301278
0.159161
0.302342
0.159872
0.130201
0.130256
0.130883
0.130939
0.0994714
0.0995127
0.100036
0.100078
0.197724
0.354189
0.198572
0.355427
0.15929
0.301521
0.160002
0.302587
0.6498
0.797464
0.651734
0.800153
0.58178
0.718804
0.58349
0.721246
0.79128
0.645373
0.794131
0.647425
0.713207
0.577895
0.715804
0.579704
0.351418
0.195898
0.352727
0.196795
0.299153
0.157767
0.300281
0.158521
0.128885
0.128939
0.129608
0.129662
0.0983812
0.0984218
0.0989791
0.0990201
0.196064
0.35172
0.196963
0.353032
0.157894
0.299394
0.158649
0.300523
0.645839
0.79193
0.647895
0.794785
0.578287
0.713771
0.580099
0.716371
0.785433
0.641208
0.788443
0.643357
0.707865
0.574185
0.710617
0.57611
0.348814
0.194144
0.350191
0.195088
0.296898
0.156289
0.298091
0.157085
0.12749
0.127543
0.128251
0.128305
0.097224
0.0972639
0.0978549
0.0978952
0.194307
0.349111
0.195254
0.350491
0.156414
0.297135
0.157211
0.29833
0.641667
0.786075
0.64382
0.789089
0.574572
0.70842
0.5765
0.711176
0.779257
0.636839
0.782432
0.639096
0.702232
0.570253
0.705126
0.572282
0.34607
0.192292
0.347518
0.193285
0.294515
0.154728
0.295771
0.155564
0.126016
0.126068
0.126816
0.126869
0.0960012
0.0960404
0.0966643
0.0967038
0.192453
0.346363
0.193448
0.347813
0.15485
0.294748
0.155688
0.296005
0.637291
0.77989
0.639552
0.783069
0.570635
0.70278
0.572666
0.705678
0.772767
0.632243
0.776095
0.634611
0.696325
0.566137
0.699353
0.568256
0.343187
0.190346
0.344703
0.191385
0.292015
0.153088
0.293328
0.153962
0.124465
0.124516
0.125302
0.125354
0.094716
0.0947544
0.0954094
0.0954481
0.190504
0.343475
0.191545
0.344993
0.153208
0.292243
0.154084
0.293558
0.632688
0.773391
0.63506
0.776723
0.566512
0.696865
0.568634
0.699897
0.765994
0.627443
0.769459
0.62991
0.690164
0.561848
0.693316
0.564051
0.340175
0.188312
0.341753
0.189393
0.289406
0.151375
0.290771
0.152285
0.122843
0.122893
0.123715
0.123766
0.0933729
0.0934103
0.0940941
0.094132
0.188467
0.340458
0.18955
0.342039
0.151493
0.28963
0.152404
0.290998
0.627881
0.766608
0.630351
0.770078
0.562216
0.690695
0.564423
0.693852
0.75897
0.622461
0.762555
0.625015
0.683775
0.557404
0.687037
0.559681
0.337047
0.186197
0.338681
0.187318
0.286698
0.149597
0.288111
0.150538
0.121157
0.121206
0.122059
0.122109
0.0919774
0.0920141
0.0927235
0.0927606
0.186349
0.337324
0.187471
0.338961
0.149712
0.286918
0.150654
0.288333
0.622891
0.759573
0.625449
0.763164
0.557766
0.684299
0.560046
0.687564
0.751728
0.617317
0.755417
0.619949
0.677189
0.552816
0.680545
0.555165
0.333815
0.184013
0.335498
0.185166
0.283902
0.147761
0.285358
0.148729
0.119413
0.119461
0.120343
0.120391
0.0905367
0.0905724
0.091304
0.0913402
0.184161
0.334086
0.185317
0.335773
0.147873
0.284118
0.148843
0.285576
0.617739
0.752322
0.620375
0.756015
0.553171
0.677704
0.555524
0.681063
0.744316
0.612036
0.748083
0.614731
0.670454
0.548093
0.673876
0.550503
0.330497
0.18177
0.33222
0.18295
0.281032
0.145878
0.282522
0.146868
0.117623
0.11767
0.118574
0.118622
0.0890594
0.0890942
0.0898433
0.0898785
0.181916
0.330763
0.183097
0.332489
0.145988
0.281243
0.146978
0.282735
0.612449
0.744899
0.615149
0.748672
0.548441
0.670959
0.550855
0.674386
0.736781
0.606654
0.740603
0.609395
0.663617
0.543294
0.667085
0.545736
0.327114
0.179483
0.328867
0.180683
0.278111
0.143961
0.279623
0.144966
0.115797
0.115843
0.116764
0.116811
0.0875549
0.0875887
0.0883507
0.088385
0.179625
0.327374
0.180827
0.329131
0.144068
0.278317
0.145074
0.279831
0.60706
0.737353
0.609805
0.741181
0.543635
0.664113
0.546081
0.667585
0.729162
0.601197
0.733021
0.603973
0.656712
0.538437
0.660209
0.540906
0.32368
0.177161
0.325457
0.178377
0.275151
0.142018
0.276681
0.143034
0.113943
0.113987
0.114922
0.114968
0.0860308
0.0860637
0.0868351
0.0868684
0.177299
0.323934
0.178517
0.325714
0.142122
0.275351
0.143139
0.276884
0.601594
0.729723
0.604374
0.733588
0.53877
0.657199
0.541243
0.6607
0.721481
0.595672
0.72537
0.598482
0.64976
0.533527
0.653279
0.536022
0.320196
0.174804
0.321999
0.176038
0.272153
0.140053
0.273702
0.14108
0.112062
0.112106
0.113055
0.113099
0.0844907
0.0845226
0.0853025
0.0853349
0.174939
0.320444
0.176174
0.32225
0.140153
0.272349
0.141182
0.2739
0.59606
0.722031
0.598874
0.725926
0.533853
0.650237
0.536353
0.653761
0.71372
0.590049
0.717655
0.592914
0.642747
0.528541
0.646301
0.53108
0.316634
0.172392
0.318481
0.173658
0.269098
0.13805
0.27068
0.139099
0.110139
0.110181
0.111156
0.111199
0.0829255
0.0829563
0.0837517
0.083783
0.172523
0.316875
0.17379
0.318726
0.138147
0.269288
0.139198
0.270873
0.590427
0.714258
0.593297
0.718199
0.52886
0.643213
0.531403
0.646773
0.705774
0.584225
0.709821
0.587209
0.635578
0.523388
0.639228
0.526028
0.312904
0.169856
0.314851
0.171196
0.265912
0.13596
0.267572
0.137061
0.108116
0.108157
0.109193
0.109235
0.0812967
0.0813264
0.0821615
0.0821918
0.169983
0.313138
0.171324
0.315089
0.136054
0.266096
0.137157
0.26776
0.584593
0.706298
0.587583
0.710352
0.523698
0.636033
0.526342
0.639689
0.697393
0.577967
0.701698
0.581207
0.628032
0.517863
0.631908
0.520723
0.308809
0.167038
0.310971
0.168545
0.262434
0.133664
0.264267
0.134888
0.105859
0.105898
0.107076
0.107116
0.0795076
0.0795359
0.0804691
0.0804982
0.16716
0.309035
0.168669
0.311202
0.133754
0.262612
0.134981
0.264449
0.578324
0.697902
0.58157
0.702216
0.518164
0.628475
0.521028
0.632357
0.688116
0.570833
0.692941
0.574583
0.619682
0.511574
0.624028
0.514879
0.303962
0.163624
0.306564
0.165481
0.258348
0.130918
0.260538
0.132408
0.103094
0.103131
0.104609
0.104647
0.0773543
0.077381
0.0785315
0.0785591
0.16374
0.304179
0.1656
0.306786
0.131003
0.258518
0.132496
0.260712
0.571176
0.688609
0.574933
0.693443
0.511863
0.620109
0.515174
0.624463
0.677301
0.561968
0.682974
0.566734
0.609858
0.503737
0.615034
0.507958
0.297574
0.159001
0.301089
0.161566
0.252982
0.127227
0.255934
0.129274
0.0993307
0.0993653
0.101422
0.101458
0.0744518
0.0744764
0.0760653
0.0760911
0.159109
0.297779
0.161678
0.301299
0.127306
0.253142
0.129357
0.256099
0.562296
0.677775
0.567069
0.683458
0.504012
0.610268
0.50824
0.615453
0.665357
0.548691
0.671276
0.556281
0.598436
0.491776
0.604243
0.498655
0.287451
0.15188
0.293289
0.155918
0.244404
0.121503
0.249369
0.124761
0.093786
0.0938172
0.0968788
0.0969118
0.0701558
0.0701776
0.07256
0.0725833
0.151978
0.28764
0.156021
0.293486
0.121575
0.244552
0.124837
0.249523
0.549001
0.665816
0.5566
0.671742
0.492035
0.598831
0.498923
0.604646
0.667929
0.512303
0.662319
0.537136
0.597549
0.458333
0.594621
0.481166
0.265973
0.140109
0.27907
0.146715
0.225699
0.111785
0.237181
0.11728
0.0858685
0.0858954
0.0901375
0.0901667
0.063902
0.0639203
0.0672935
0.0673137
0.140195
0.26614
0.146807
0.279249
0.111845
0.225828
0.117346
0.23732
0.512587
0.668401
0.537436
0.662777
0.458567
0.59795
0.481416
0.595014
0.353257
0.270918
0.145435
0.114295
0.341355
0.261522
0.138736
0.10903
0.0844034
0.0176432
0.0193231
0.0055203
0.0793914
0.0161295
0.0181579
0.00536379
0.003994
0.00399024
0.00425718
0.00425757
0.00373626
0.003733
0.00431767
0.00431806
0.0176345
0.0844173
0.0055183
0.0193234
0.0161213
0.0794017
0.00536202
0.0181575
0.27101
0.353456
0.114336
0.145557
0.261603
0.341533
0.109065
0.138844
0.624324
0.491453
0.509821
0.396331
0.603733
0.474296
0.493296
0.382859
0.22523
0.0928643
0.16028
0.0523002
0.213595
0.0859774
0.151904
0.0480592
0.034765
0.0347616
0.0118899
0.0118811
0.0305158
0.0305107
0.010417
0.0104087
0.0928816
0.225312
0.0522932
0.160326
0.0859895
0.213665
0.0480509
0.151943
0.491641
0.624638
0.396472
0.510079
0.474463
0.604016
0.382984
0.493528
0.772024
0.618155
0.709
0.563548