/*--------------------------------*- C++ -*----------------------------------*\
  =========                 |
  \\      /  F ield         | OpenFOAM: The Open Source CFD Toolbox
   \\    /   O peration     | Website:  https://openfoam.org
    \\  /    A nd           | Version:  9
     \\/     M anipulation  |
\*---------------------------------------------------------------------------*/
FoamFile
{
    format      ascii;
    class       volScalarField;
    location    "2";
    object      k;
}
// * * * * * * * * * * * * * * * * * * * * * * * * * * * * * * * * * * * * * //

dimensions      [0 2 -2 0 0 0 0];

internalField   nonuniform List<scalar> 
36360
(
0.0691029
0.0556058
0.0270834
0.0241924
0.0146467
0.0108315
0.00516863
0.00451222
0.0183514
0.00449945
0.00555728
0.0028531
0.00399549
0.00227198
0.00303184
0.00298044
0.00205608
0.00205554
0.00278007
0.00278012
0.00217103
0.00217101
0.0029868
0.00298679
0.00449732
0.0183507
0.00285276
0.00555668
0.0022717
0.00399511
0.00298043
0.00303171
0.0556171
0.0691291
0.0241954
0.0270952
0.0108338
0.0146531
0.00451248
0.00516957
0.122777
0.100879
0.100338
0.0813628
0.0386396
0.028818
0.0282747
0.0207079
0.0506611
0.0218993
0.0358655
0.0113681
0.0137663
0.004601
0.00786616
0.00271694
0.00663339
0.00663015
0.00286252
0.00286058
0.0018216
0.00182103
0.00170562
0.0017055
0.0218981
0.0506717
0.0113637
0.0358702
0.00459957
0.0137684
0.00271614
0.00786625
0.100907
0.122825
0.0813824
0.100375
0.0288274
0.0386567
0.0207137
0.028287
0.150975
0.126251
0.139025
0.115392
0.0514608
0.039677
0.04609
0.0350455
0.0714947
0.038994
0.0623705
0.0311284
0.0224803
0.0109215
0.0186699
0.00787447
0.0223068
0.0223099
0.0144382
0.0144371
0.0046907
0.00468987
0.00270386
0.00270283
0.0390056
0.0715206
0.0311329
0.0623882
0.0109229
0.0224881
0.00787378
0.0186747
0.126298
0.151044
0.115429
0.139082
0.0396941
0.0514876
0.0350587
0.0461119
0.166346
0.140428
0.159821
0.134385
0.058201
0.0456228
0.0553661
0.0431072
0.0838596
0.0504214
0.0785323
0.0454139
0.0275432
0.015465
0.0253802
0.0134729
0.0341592
0.0341682
0.0289539
0.0289603
0.00898247
0.00898406
0.00700505
0.00700544
0.0504466
0.0839027
0.0454326
0.0785668
0.0154716
0.0275575
0.0134769
0.0253912
0.140496
0.16644
0.134442
0.159903
0.0456483
0.0582383
0.0431285
0.0553982
0.174529
0.148049
0.171121
0.144872
0.061689
0.0487379
0.0602484
0.0474503
0.0906748
0.0569344
0.0878262
0.0542059
0.0302553
0.0180177
0.0291317
0.0169581
0.0408866
0.0408996
0.0380795
0.0380907
0.0116138
0.0116172
0.0105167
0.0105193
0.0569701
0.0907328
0.0542368
0.0878772
0.0180286
0.0302754
0.016967
0.0291491
0.148136
0.174647
0.14495
0.171228
0.048771
0.061736
0.0474798
0.0602907
0.178541
0.151788
0.176931
0.150289
0.0633524
0.0502213
0.0626914
0.049634
0.0940338
0.0601443
0.0926908
0.058866
0.0315513
0.0192276
0.031039
0.0187538
0.0441546
0.0441701
0.0428608
0.0428752
0.0128576
0.0128621
0.0123743
0.0123784
0.0601871
0.0941023
0.0589057
0.0927546
0.0192413
0.0315753
0.0187663
0.0310613
0.151889
0.178676
0.150384
0.177058
0.0502598
0.0634066
0.0496701
0.0627424
0.180252
0.153378
0.179612
0.152784
0.064041
0.050827
0.063787
0.0506059
0.0954574
0.0614899
0.0949295
0.0609948
0.0320814
0.0197065
0.031888
0.0195354
0.0455009
0.0455179
0.04501
0.0450264
0.0133357
0.0133408
0.0131681
0.013173
0.0615367
0.0955322
0.0610399
0.0950016
0.0197215
0.0321077
0.0195499
0.0319134
0.153487
0.180399
0.15289
0.179754
0.0508688
0.0640995
0.0506463
0.0638437
0.180805
0.153892
0.18064
0.153738
0.0642559
0.0510084
0.064194
0.050959
0.0959213
0.0619275
0.0957837
0.0617987
0.032247
0.0198481
0.0322
0.0198104
0.0459304
0.0459479
0.0458068
0.0458242
0.0134692
0.0134745
0.0134365
0.0134417
0.0619761
0.095999
0.0618467
0.0958603
0.0198638
0.0322743
0.0198258
0.0322269
0.154006
0.180957
0.15385
0.18079
0.0510517
0.0643165
0.0510017
0.0642538
0.180827
0.153923
0.180867
0.153955
0.0642633
0.0510075
0.0642776
0.0510241
0.0959639
0.0619807
0.0959867
0.0619966
0.03226
0.0198574
0.0322682
0.019866
0.045983
0.0460007
0.0459994
0.0460171
0.0134756
0.0134809
0.0134856
0.0134909
0.0620299
0.0960426
0.0620457
0.0960651
0.0198732
0.0322876
0.0198818
0.0322958
0.154038
0.180981
0.15407
0.181021
0.0510513
0.0643247
0.0510678
0.0643388
0.180632
0.153765
0.180764
0.153875
0.0641907
0.0509373
0.0642413
0.0509855
0.0958495
0.0618978
0.0959347
0.0619651
0.0322182
0.0198231
0.0322497
0.0198496
0.0459095
0.0459273
0.0459719
0.0459896
0.013442
0.0134473
0.0134683
0.0134736
0.0619471
0.0959283
0.0620144
0.0960135
0.0198389
0.0322458
0.0198655
0.0322773
0.15388
0.180786
0.15399
0.180918
0.0509812
0.0642523
0.0510294
0.0643028
0.180319
0.153509
0.180502
0.153661
0.0640749
0.0508309
0.0641439
0.0508944
0.0956532
0.0617415
0.095775
0.0618437
0.0321453
0.0197627
0.0321912
0.0198025
0.0457676
0.0457853
0.0458634
0.0458812
0.0133839
0.0133892
0.0134231
0.0134284
0.0617906
0.0957318
0.061893
0.0958538
0.0197784
0.0321728
0.0198183
0.0322188
0.153624
0.180473
0.153776
0.180656
0.0508747
0.0641363
0.0509383
0.0642054
0.179937
0.153199
0.180151
0.153375
0.0639344
0.0507045
0.0640147
0.0507773
0.0954142
0.0615472
0.0955551
0.0616663
0.0320563
0.0196889
0.0321096
0.0197348
0.0455894
0.045607
0.0457017
0.0457194
0.013313
0.0133182
0.0133584
0.0133636
0.061596
0.0954924
0.0617153
0.0956335
0.0197045
0.0320836
0.0197505
0.0321371
0.153313
0.180091
0.15349
0.180305
0.0507481
0.0639956
0.050821
0.0640761
0.179501
0.152848
0.179741
0.153044
0.0637746
0.0505626
0.0638642
0.0506427
0.0951443
0.0613258
0.0952997
0.0614577
0.0319548
0.0196049
0.0320141
0.0196557
0.045386
0.0454036
0.0455102
0.0455278
0.0132327
0.0132379
0.0132825
0.0132878
0.0613744
0.095222
0.0615064
0.0953777
0.0196204
0.0319819
0.0196713
0.0320414
0.152962
0.179654
0.153158
0.179894
0.050606
0.0638355
0.0506862
0.0639252
0.179016
0.152463
0.17928
0.152675
0.0635972
0.0504066
0.0636955
0.0504937
0.0948471
0.0610809
0.095016
0.0612243
0.031842
0.0195116
0.0319069
0.019567
0.0451602
0.0451777
0.0452955
0.045313
0.0131437
0.0131488
0.0131978
0.013203
0.0611291
0.0949243
0.0612728
0.0950935
0.019527
0.0318689
0.0195824
0.031934
0.152576
0.179168
0.152789
0.179432
0.0504497
0.0636577
0.0505369
0.0637562
0.17848
0.15204
0.17877
0.152271
0.0634017
0.0502356
0.0635092
0.0503303
0.0945222
0.0608121
0.094705
0.0609675
0.0317176
0.0194088
0.0317883
0.019469
0.0449119
0.0449292
0.0450584
0.0450758
0.0130457
0.0130508
0.0131044
0.0131095
0.06086
0.0945988
0.0610155
0.094782
0.019424
0.0317443
0.0194843
0.0318152
0.152152
0.178631
0.152384
0.178921
0.0502784
0.0634619
0.0503732
0.0635695
0.177894
0.15158
0.178209
0.15183
0.0631877
0.0500491
0.0633044
0.0501516
0.0941689
0.0605189
0.094366
0.0606865
0.0315813
0.0192962
0.031658
0.0193613
0.0446402
0.0446574
0.0447985
0.0448157
0.0129385
0.0129434
0.0130018
0.0130068
0.0605664
0.0942449
0.0607342
0.0944423
0.0193112
0.0316078
0.0193764
0.0316847
0.151691
0.178044
0.151942
0.17836
0.0500916
0.0632474
0.0501942
0.0633644
0.177254
0.151081
0.177596
0.15135
0.0629542
0.0498464
0.0630808
0.049957
0.0937859
0.0602002
0.0939979
0.0603806
0.0314327
0.0191731
0.0315156
0.0192434
0.0443441
0.0443611
0.0445146
0.0445317
0.0128214
0.0128263
0.0128896
0.0128946
0.0602472
0.0938612
0.0604279
0.0940736
0.0191879
0.0314589
0.0192584
0.031542
0.151191
0.177403
0.151461
0.177746
0.0498885
0.0630135
0.0499993
0.0631403
0.176559
0.15054
0.176929
0.150831
0.0627004
0.0496263
0.0628372
0.0497457
0.0933713
0.0598546
0.0935993
0.0600485
0.031271
0.0190392
0.0313605
0.019115
0.0440223
0.0440392
0.0442058
0.0442227
0.012694
0.0126988
0.0127674
0.0127723
0.0599011
0.0934459
0.0600953
0.0936743
0.0190538
0.0312969
0.0191297
0.0313866
0.15065
0.176707
0.150941
0.177078
0.049668
0.0627593
0.0497877
0.0628963
0.175806
0.149957
0.176205
0.150269
0.0624252
0.0493877
0.0625728
0.0495165
0.0929238
0.059481
0.0931682
0.059689
0.0310955
0.018894
0.0311919
0.0189754
0.0436739
0.0436906
0.0438707
0.0438875
0.0125559
0.0125606
0.0126347
0.0126395
0.059527
0.0929976
0.0597353
0.0932425
0.0189083
0.0311212
0.0189899
0.0312177
0.150065
0.175952
0.150378
0.176352
0.049429
0.0624836
0.049558
0.0626314
0.174993
0.149329
0.175422
0.149663
0.0621282
0.0491298
0.0622867
0.0492683
0.0924423
0.0590787
0.0927038
0.0593011
0.030906
0.018737
0.0310095
0.0188243
0.043298
0.0433145
0.0435085
0.0435251
0.0124067
0.0124113
0.012491
0.0124957
0.0591242
0.0925153
0.0593468
0.0927773
0.0187512
0.0309313
0.0188386
0.0310349
0.149436
0.175139
0.149772
0.175568
0.0491707
0.062186
0.0493094
0.0623449
0.17412
0.148656
0.174579
0.149013
0.0618088
0.0488521
0.0619785
0.0490005
0.0919262
0.058647
0.092205
0.058884
0.0307019
0.0185681
0.0308126
0.0186613
0.042894
0.0429103
0.0431185
0.0431349
0.0122462
0.0122507
0.0123361
0.0123407
0.0586919
0.0919983
0.0589292
0.0922776
0.018582
0.0307269
0.0186754
0.0308378
0.148762
0.174264
0.14912
0.174724
0.0488925
0.0618661
0.0490412
0.0620361
0.173187
0.147937
0.173676
0.148317
0.0614669
0.0485543
0.0616479
0.0487126
0.0913751
0.0581856
0.0916712
0.0584373
0.0304834
0.0183871
0.0306013
0.0184863
0.0424617
0.0424777
0.0427002
0.0427164
0.0120742
0.0120786
0.0121698
0.0121743
0.0582299
0.0914462
0.0584819
0.0917429
0.0184007
0.0305079
0.0185001
0.0306261
0.148042
0.173329
0.148423
0.173819
0.0485942
0.0615236
0.0487529
0.0617049
0.172192
0.147173
0.172712
0.147575
0.0611029
0.0482385
0.0612948
0.0484054
0.0907892
0.0576948
0.0911026
0.0579611
0.0302505
0.0181941
0.0303755
0.0182993
0.0420011
0.0420169
0.0422536
0.0422696
0.0118908
0.0118951
0.0119921
0.0119964
0.0577384
0.0908593
0.0580051
0.0911733
0.0182074
0.0302747
0.0183128
0.0303999
0.147277
0.172333
0.14768
0.172853
0.0482779
0.0611589
0.0484451
0.0613512
0.17114
0.146364
0.171688
0.146788
0.0607171
0.0479047
0.0609197
0.0480808
0.0901691
0.057175
0.0904993
0.0574556
0.0300034
0.0179892
0.0301354
0.0181002
0.0415127
0.0415282
0.0417789
0.0417946
0.0116962
0.0117003
0.0118029
0.0118072
0.0572179
0.0902382
0.0574988
0.090569
0.0180022
0.0300272
0.0181134
0.0301594
0.146467
0.171279
0.146892
0.171828
0.0479436
0.0607725
0.04812
0.0609755
0.170032
0.145513
0.170607
0.145958
0.0603106
0.0475524
0.0605234
0.0477376
0.0895163
0.0566274
0.0898626
0.0569215
0.0297425
0.0177728
0.0298813
0.0178894
0.0409975
0.0410128
0.0412768
0.0412923
0.0114907
0.0114948
0.0116027
0.0116068
0.0566696
0.0895843
0.0569641
0.0899311
0.0177855
0.0297658
0.0179023
0.0299048
0.145614
0.170169
0.14606
0.170745
0.0475908
0.0603653
0.0477762
0.0605784
0.168873
0.144623
0.169473
0.145087
0.0598849
0.0471834
0.060107
0.0473767
0.0888333
0.056054
0.0891942
0.0563606
0.0294687
0.0175457
0.0296137
0.0176675
0.0404573
0.0404723
0.0407487
0.0407639
0.0112752
0.0112791
0.0113921
0.011396
0.0560953
0.0889001
0.0564023
0.0892616
0.0175581
0.0294915
0.01768
0.0296369
0.144723
0.169008
0.145187
0.169609
0.0472211
0.0599388
0.0474147
0.0601614
0.167668
0.143697
0.16829
0.144178
0.0594419
0.0467991
0.0596724
0.0469998
0.0881226
0.0554571
0.0884968
0.0557749
0.029183
0.0173088
0.0293338
0.0174353
0.0398942
0.039909
0.0401966
0.0402115
0.0110506
0.0110543
0.0111718
0.0111756
0.0554976
0.0881882
0.0558159
0.0885631
0.0173208
0.0292054
0.0174475
0.0293564
0.143795
0.167801
0.144277
0.168424
0.0468362
0.0594951
0.0470372
0.059726
0.166425
0.142741
0.167065
0.143236
0.0589841
0.0464003
0.0592216
0.0466081
0.0873882
0.0548398
0.0877736
0.0551672
0.0288867
0.0170632
0.0290425
0.0171938
0.0393113
0.0393257
0.0396231
0.0396377
0.0108179
0.0108215
0.0109429
0.0109465
0.0548794
0.0874525
0.0552073
0.0878386
0.0170749
0.0289086
0.0172056
0.0290647
0.142838
0.166556
0.143334
0.167197
0.0464368
0.0590365
0.046645
0.0592744
0.16515
0.141762
0.165805
0.142268
0.0585141
0.0459903
0.0587573
0.046203
0.0866345
0.0542058
0.0870288
0.0545409
0.0285818
0.0168105
0.0287416
0.0169444
0.0387117
0.0387259
0.0390312
0.0390455
0.0105787
0.0105821
0.0107067
0.0107102
0.0542445
0.0866976
0.0545802
0.0870926
0.0168218
0.0286032
0.0169559
0.0287633
0.141857
0.165279
0.142363
0.165935
0.0460261
0.0585657
0.0462392
0.0588093
0.16385
0.140762
0.164516
0.141278
0.0580346
0.0455722
0.0582822
0.0457886
0.0858655
0.0535587
0.0862669
0.0538998
0.0282698
0.0165521
0.0284329
0.0166886
0.0380992
0.038113
0.0384246
0.0384386
0.0103345
0.0103377
0.0104647
0.010468
0.0535966
0.0859272
0.0539381
0.0863293
0.0165629
0.0282907
0.0166996
0.0284541
0.140855
0.163978
0.141372
0.164645
0.0456073
0.0580854
0.0458242
0.0583334
0.162533
0.139747
0.163207
0.14027
0.057548
0.0451476
0.0577988
0.045367
0.0850841
0.0529017
0.0854912
0.0532472
0.0279523
0.0162893
0.028118
0.0164277
0.037477
0.0374905
0.0378067
0.0378203
0.0100869
0.0100899
0.0102184
0.0102216
0.0529386
0.0851444
0.0532847
0.0855523
0.0162998
0.0279726
0.0164384
0.0281386
0.139838
0.162658
0.140362
0.163334
0.0451821
0.057598
0.0454019
0.0578492
0.161198
0.138715
0.161881
0.139246
0.057055
0.0447176
0.0573091
0.0449397
0.0842904
0.0522356
0.0847038
0.0525856
0.0276298
0.0160233
0.0277979
0.0161632
0.0368469
0.03686
0.0371803
0.0371936
0.00983728
0.00984013
0.00996958
0.00997253
0.0522716
0.0843494
0.0526221
0.0847636
0.0160333
0.0276496
0.0161734
0.027818
0.138805
0.161321
0.139337
0.162006
0.0447514
0.0571041
0.0449739
0.0573586
0.159837
0.137658
0.160536
0.138204
0.0565523
0.0442799
0.056812
0.0445063
0.0834771
0.0515558
0.0839019
0.0519137
0.0273006
0.0157535
0.0274724
0.0158954
0.0362059
0.0362187
0.0365454
0.0365584
0.00958596
0.00958862
0.00971907
0.00972184
0.0515907
0.0835346
0.0519492
0.0839602
0.0157631
0.0273199
0.0159052
0.027492
0.137746
0.159958
0.138293
0.160658
0.044313
0.0566004
0.0445398
0.0568606
0.158417
0.136544
0.159151
0.137124
0.056028
0.0438252
0.0563006
0.044062
0.0826202
0.0508447
0.083071
0.0512213
0.026958
0.0154758
0.0271377
0.0156224
0.0355399
0.0355522
0.0358946
0.0359071
0.00933035
0.00933282
0.0094661
0.00946868
0.0508785
0.0826762
0.0512557
0.0831278
0.0154849
0.0269767
0.0156318
0.0271567
0.13663
0.158535
0.137211
0.159271
0.0438574
0.0560752
0.0440947
0.0563482
0.156869
0.135308
0.157678
0.13596
0.0554564
0.043337
0.055757
0.0435925
0.0816689
0.0500611
0.0821751
0.0504809
0.0265859
0.0151785
0.0267832
0.0153369
0.0348113
0.0348232
0.0352037
0.0352159
0.009061
0.00906327
0.00920532
0.0092077
0.0500936
0.081723
0.0505141
0.0822302
0.0151871
0.0266039
0.0153459
0.0268015
0.135391
0.156984
0.136044
0.157795
0.0433682
0.0555023
0.0436242
0.0558036
0.155069
0.133841
0.156023
0.134624
0.0547869
0.0427711
0.0551446
0.0430738
0.0805303
0.0491216
0.081145
0.0496331
0.0261509
0.0148346
0.0263852
0.0150209
0.0339396
0.0339509
0.034417
0.0344286
0.00875441
0.00875642
0.00892136
0.00892351
0.0491526
0.0805821
0.0496649
0.0811981
0.0148427
0.026168
0.0150293
0.0264028
0.133922
0.155181
0.134706
0.156137
0.0428011
0.0548313
0.0431044
0.0551898
0.152818
0.13196
0.154029
0.132983
0.0539332
0.0420491
0.0543962
0.0424421
0.0790235
0.0478651
0.0798541
0.0485618
0.0255867
0.0143892
0.0258968
0.0146354
0.032775
0.0327855
0.0334223
0.0334332
0.00836218
0.00836386
0.00857973
0.00858159
0.047894
0.0790724
0.0485918
0.0799046
0.0143965
0.0256028
0.0146432
0.0259135
0.132037
0.152925
0.133062
0.154138
0.0420777
0.0539758
0.0424714
0.0544397
0.1499
0.129115
0.151453
0.130737
0.0527886
0.0410387
0.0534066
0.0415985
0.0766948
0.0459847
0.0780246
0.047043
0.0247468
0.0137378
0.0252214
0.0141036
0.0310913
0.0311008
0.0320282
0.0320382
0.00780534
0.00780657
0.008116
0.00811748
0.0460108
0.0767399
0.0470707
0.0780717
0.0137441
0.0247615
0.0141104
0.0252369
0.129187
0.150003
0.130811
0.151558
0.0410657
0.0528292
0.0416264
0.0534482
0.147552
0.122399
0.148434
0.126794
0.0512814
0.0388708
0.052123
0.0402708
0.0722473
0.0430666
0.0748868
0.0446813
0.0232506
0.0127421
0.0241258
0.0132933
0.0287368
0.028745
0.0300069
0.0300157
0.00702267
0.00702331
0.00744708
0.00744804
0.0430893
0.0722874
0.0447058
0.0749297
0.012747
0.0232634
0.013299
0.0241396
0.122465
0.147651
0.126863
0.148534
0.0388952
0.0513201
0.0402968
0.0521627
0.101987
0.0822273
0.045233
0.0371397
0.0901369
0.0724777
0.0382734
0.0316908
0.0338497
0.00933089
0.00886276
0.00341677
0.0276392
0.00709152
0.00732065
0.00314157
0.0029317
0.00293002
0.00267111
0.00267119
0.00249117
0.00248979
0.00275819
0.0027584
0.00932649
0.0338529
0.00341569
0.00886253
0.00708797
0.0276402
0.00314087
0.00732007
0.0822516
0.102037
0.0371501
0.045263
0.0724958
0.0901762
0.0316973
0.0382949
0.176037
0.146141
0.144493
0.11834
0.156657
0.129456
0.128576
0.104862
0.0826683
0.0421576
0.0604235
0.0250348
0.070318
0.0338091
0.0509852
0.0193001
0.0191476
0.0191448
0.00721062
0.00720542
0.013234
0.0132299
0.00498563
0.0049817
0.0421627
0.0826925
0.0250303
0.0604365
0.0338106
0.0703355
0.0192951
0.0509941
0.146192
0.17612
0.118378
0.144559
0.129496
0.156724
0.104891
0.128629
0.217623
0.183928
0.199722
0.167513
0.192911
0.162217
0.177416
0.148083
0.114889
0.0705194
0.100613
0.0575212
0.0977821
0.0573677
0.0856922
0.0465913
0.0476381
0.0476479
0.0343977
0.0344022
0.0365276
0.0365343
0.0255715
0.0255733
0.0705484
0.114942
0.0575383
0.10065
0.0573883
0.0978219
0.046602
0.0857203
0.184013
0.217744
0.167581
0.199823
0.162284
0.193008
0.148137
0.177497
0.24132
0.206004
0.231161
0.196494
0.213134
0.180956
0.204507
0.172924
0.134738
0.0893535
0.126107
0.0810843
0.114376
0.0729315
0.107193
0.0661108
0.0668529
0.0668708
0.0584273
0.0584415
0.0525003
0.052514
0.0455033
0.0455138
0.0894038
0.13482
0.0811245
0.126174
0.0729699
0.11444
0.0661407
0.107245
0.206125
0.241484
0.196597
0.231304
0.181052
0.213266
0.173006
0.204622
0.254349
0.218299
0.248874
0.213121
0.224075
0.191218
0.219497
0.186916
0.146057
0.10031
0.141275
0.0956743
0.123691
0.0818889
0.119774
0.0781155
0.0779686
0.0779924
0.0732753
0.0732964
0.0616439
0.0616627
0.0578024
0.0578189
0.100377
0.146164
0.0957336
0.141371
0.0819414
0.123775
0.0781615
0.119849
0.218452
0.254552
0.213259
0.249059
0.19134
0.224239
0.187026
0.219647
0.260935
0.224554
0.258266
0.222017
0.229521
0.196352
0.227325
0.194281
0.151865
0.105943
0.14951
0.103663
0.128387
0.0864111
0.126494
0.084593
0.0836437
0.0836716
0.0813528
0.0813788
0.0662169
0.0662391
0.0643853
0.064406
0.106022
0.151991
0.103736
0.149627
0.0864734
0.128486
0.084651
0.126587
0.224731
0.261168
0.222183
0.258486
0.196494
0.22971
0.194414
0.227503
0.263842
0.227332
0.26274
0.226276
0.231882
0.198587
0.230993
0.197745
0.154457
0.108448
0.153474
0.107501
0.130437
0.0883729
0.129667
0.0876396
0.08615
0.0861804
0.0852063
0.0852356
0.0681798
0.068204
0.0674501
0.0674734
0.108534
0.154594
0.107584
0.153606
0.0884409
0.130545
0.0877052
0.129771
0.227524
0.264094
0.226462
0.262984
0.198741
0.232086
0.197893
0.23119
0.264834
0.228301
0.264524
0.227993
0.232662
0.199341
0.232424
0.199108
0.155381
0.109344
0.155085
0.109058
0.131142
0.0890472
0.130923
0.0888387
0.087043
0.0870745
0.0867591
0.0867902
0.0688488
0.0688739
0.0686438
0.0686686
0.109433
0.155524
0.109146
0.155226
0.0891179
0.131254
0.0889083
0.131033
0.228501
0.265096
0.22819
0.264782
0.199501
0.232873
0.199266
0.232633
0.264922
0.228425
0.264971
0.228452
0.232707
0.199415
0.232757
0.199447
0.155534
0.10951
0.155543
0.109511
0.131239
0.0891541
0.131256
0.089165
0.0872149
0.0872469
0.087214
0.0872459
0.0689587
0.0689842
0.0689687
0.068994
0.109601
0.155679
0.109602
0.155688
0.0892257
0.131353
0.0892364
0.13137
0.228628
0.265188
0.228654
0.265235
0.199577
0.232922
0.199609
0.232971
0.264637
0.228208
0.264835
0.228368
0.232449
0.199217
0.232625
0.199359
0.15539
0.109406
0.155511
0.109504
0.131103
0.0890552
0.13121
0.0891412
0.0871276
0.0871597
0.0872167
0.0872488
0.0688734
0.0688989
0.0689522
0.0689777
0.109498
0.155535
0.109595
0.155656
0.089127
0.131218
0.089213
0.131324
0.228412
0.264904
0.228571
0.265102
0.19938
0.232665
0.199521
0.23284
0.264164
0.227822
0.264443
0.228055
0.232037
0.198883
0.232278
0.199083
0.155097
0.109169
0.155284
0.109328
0.130851
0.088851
0.13101
0.0889862
0.0869137
0.0869458
0.0870616
0.0870937
0.068689
0.0687145
0.0688148
0.0688403
0.10926
0.155242
0.10942
0.155429
0.0889226
0.130965
0.089058
0.131124
0.228025
0.26443
0.228258
0.26471
0.199045
0.232252
0.199245
0.232494
0.263586
0.227346
0.263912
0.227619
0.231535
0.198475
0.231817
0.198707
0.154729
0.108864
0.154949
0.109053
0.130538
0.0885934
0.130723
0.088752
0.0866345
0.0866665
0.0868115
0.0868436
0.0684532
0.0684785
0.068602
0.0686274
0.108955
0.154874
0.109144
0.155094
0.0886647
0.130651
0.0888235
0.130837
0.227549
0.263852
0.227822
0.264178
0.198636
0.23175
0.19887
0.232032
0.262933
0.226809
0.263294
0.22711
0.230967
0.198013
0.23128
0.198271
0.154312
0.108516
0.154555
0.108725
0.130183
0.0882999
0.130388
0.0884752
0.0863148
0.0863465
0.0865105
0.0865424
0.0681837
0.0682089
0.0683482
0.0683735
0.108606
0.154456
0.108815
0.154699
0.0883708
0.130296
0.0885463
0.130501
0.227011
0.263197
0.227312
0.263559
0.198174
0.23118
0.198432
0.231494
0.262214
0.22622
0.262607
0.226547
0.230339
0.197506
0.230681
0.197786
0.153853
0.108132
0.154116
0.108358
0.129792
0.0879755
0.130015
0.0881659
0.0859612
0.0859928
0.0861734
0.0862051
0.0678853
0.0679103
0.068064
0.0680891
0.108221
0.153996
0.108448
0.154259
0.088046
0.129904
0.0882366
0.130128
0.22642
0.262477
0.226748
0.262871
0.197666
0.230551
0.197947
0.230894
0.261426
0.225578
0.261854
0.225931
0.22965
0.196952
0.230024
0.197256
0.153352
0.107712
0.153636
0.107956
0.129365
0.0876206
0.129606
0.0878263
0.0855745
0.0856059
0.0858032
0.0858347
0.0675582
0.0675831
0.0677513
0.0677762
0.107801
0.153494
0.108046
0.153778
0.0876905
0.129476
0.0878965
0.129718
0.225776
0.261688
0.22613
0.262117
0.197111
0.229861
0.197415
0.230235
0.26057
0.224881
0.261033
0.225262
0.228899
0.196351
0.229304
0.196678
0.152808
0.107256
0.153113
0.107518
0.128901
0.0872342
0.129161
0.0874557
0.0851537
0.0851849
0.0853996
0.0854309
0.0672016
0.0672263
0.0674095
0.0674343
0.107344
0.152949
0.107607
0.153255
0.0873036
0.129012
0.0875254
0.129272
0.225079
0.26083
0.22546
0.261293
0.196509
0.229109
0.196837
0.229514
0.259641
0.224128
0.26014
0.224537
0.228083
0.1957
0.22852
0.196052
0.15222
0.106762
0.152548
0.107043
0.128398
0.086815
0.128677
0.087053
0.0846973
0.0847283
0.0849611
0.0849922
0.0668139
0.0668384
0.0670374
0.067062
0.10685
0.15236
0.107131
0.152688
0.0868838
0.128508
0.0871221
0.128788
0.224324
0.259899
0.224734
0.260399
0.195856
0.228291
0.196209
0.228729
0.258636
0.223314
0.259174
0.223753
0.227198
0.194996
0.22767
0.195375
0.151584
0.106227
0.151936
0.106529
0.127855
0.086361
0.128155
0.0866165
0.0842033
0.084234
0.084486
0.0845168
0.0663936
0.0664179
0.0666335
0.0666579
0.106314
0.151723
0.106617
0.152075
0.0864292
0.127964
0.0866851
0.128264
0.223508
0.258892
0.223949
0.25943
0.195151
0.227404
0.195531
0.227877
0.25755
0.222437
0.258128
0.222908
0.226241
0.194238
0.226749
0.194644
0.150899
0.105651
0.151276
0.105974
0.127269
0.085871
0.12759
0.0861445
0.08367
0.0837004
0.0839723
0.0840029
0.0659393
0.0659634
0.0661962
0.0662204
0.105737
0.151037
0.106061
0.151414
0.0859385
0.127377
0.0862124
0.127698
0.22263
0.257804
0.223102
0.258383
0.194391
0.226446
0.194798
0.226954
0.256383
0.221498
0.257002
0.222
0.225211
0.193424
0.225756
0.193858
0.150164
0.105031
0.150566
0.105376
0.12664
0.0853438
0.126982
0.0856359
0.083096
0.0831261
0.0834187
0.083449
0.0654499
0.0654737
0.0657244
0.0657484
0.105117
0.1503
0.105462
0.150703
0.0854106
0.126746
0.0857031
0.127089
0.221689
0.256635
0.222192
0.257255
0.193576
0.225414
0.194011
0.22596
0.255132
0.220492
0.255793
0.221028
0.224107
0.192553
0.224689
0.193015
0.149377
0.104367
0.149805
0.104734
0.125965
0.0847785
0.12633
0.0850896
0.0824804
0.0825102
0.0828239
0.0828539
0.0649246
0.0649481
0.065217
0.0652407
0.104452
0.149512
0.104819
0.14994
0.0848445
0.126071
0.0851561
0.126436
0.220681
0.255381
0.221218
0.256043
0.192704
0.224308
0.193167
0.224891
0.253797
0.219419
0.254499
0.219988
0.222927
0.191625
0.223546
0.192116
0.148537
0.103659
0.148991
0.104047
0.125246
0.0841748
0.125633
0.084505
0.0818225
0.081852
0.082187
0.0822166
0.0643629
0.0643862
0.0646733
0.0646968
0.103742
0.14867
0.104132
0.149125
0.08424
0.12535
0.0845706
0.125738
0.219606
0.254043
0.220176
0.254747
0.191774
0.223126
0.192266
0.223746
0.252381
0.218284
0.253123
0.218882
0.221671
0.190638
0.222328
0.191159
0.147647
0.102905
0.148125
0.103316
0.124481
0.0835327
0.124891
0.0838819
0.0811225
0.0811516
0.0815078
0.0815371
0.0637649
0.0637879
0.0640933
0.0641165
0.102988
0.147778
0.103399
0.148257
0.083597
0.124584
0.0839467
0.124995
0.218468
0.252624
0.219068
0.253368
0.190785
0.221867
0.191307
0.222526
0.250882
0.217088
0.251666
0.217718
0.220343
0.189591
0.221035
0.190141
0.146706
0.102108
0.147209
0.102541
0.123672
0.0828527
0.124104
0.0832206
0.0803805
0.0804093
0.0807866
0.0808156
0.0631309
0.0631535
0.0634771
0.0634999
0.102189
0.146835
0.102623
0.14734
0.0829161
0.123773
0.0832845
0.124206
0.217271
0.251123
0.217901
0.251908
0.189736
0.220537
0.190287
0.221231
0.249304
0.215829
0.250126
0.21649
0.218947
0.188491
0.219673
0.189067
0.145714
0.101267
0.146243
0.101721
0.12282
0.0821361
0.123273
0.0825219
0.0795976
0.079626
0.0800238
0.0800523
0.0624621
0.0624844
0.0628253
0.0628478
0.101348
0.145842
0.101802
0.146371
0.0821985
0.12292
0.0825848
0.123373
0.216008
0.249542
0.216671
0.250366
0.188634
0.219139
0.189211
0.219866
0.247651
0.214509
0.24851
0.215199
0.217486
0.187341
0.218243
0.187941
0.144675
0.100386
0.145227
0.10086
0.121928
0.0813852
0.1224
0.0817876
0.0787758
0.0788037
0.0792208
0.079249
0.0617604
0.0617823
0.0621396
0.0621617
0.100465
0.144801
0.100939
0.145354
0.0814466
0.122026
0.0818496
0.122499
0.214686
0.247886
0.215378
0.248746
0.187482
0.217675
0.188083
0.218434
0.245932
0.213135
0.246823
0.213852
0.215967
0.186146
0.216752
0.186767
0.143593
0.0994666
0.144165
0.0999585
0.121
0.0806029
0.12149
0.0810204
0.0779179
0.0779455
0.0783804
0.0784081
0.0610285
0.0610501
0.0614222
0.061444
0.0995443
0.143716
0.100037
0.14429
0.0806632
0.121096
0.0810813
0.121587
0.21331
0.246164
0.214028
0.247056
0.186285
0.216153
0.186908
0.216941
0.244153
0.211713
0.245073
0.212452
0.214396
0.184908
0.215206
0.185551
0.142471
0.0985135
0.143063
0.0990215
0.120039
0.0797925
0.120545
0.0802234
0.0770279
0.0770549
0.0775057
0.077533
0.0602697
0.0602909
0.0606762
0.0606976
0.09859
0.142593
0.0990987
0.143186
0.0798517
0.120134
0.0802832
0.12064
0.211884
0.244382
0.212626
0.245303
0.185045
0.21458
0.185689
0.215392
0.242326
0.210247
0.243268
0.211007
0.212782
0.183632
0.213612
0.184292
0.141316
0.0975316
0.141924
0.0980531
0.11905
0.0789585
0.119568
0.0794004
0.0761101
0.0761367
0.0766009
0.0766278
0.0594883
0.0595091
0.0599054
0.0599264
0.0976067
0.141436
0.0981289
0.142044
0.0790165
0.119143
0.079459
0.119662
0.210417
0.242551
0.211178
0.243495
0.183766
0.212964
0.184428
0.213795
0.24046
0.208749
0.24142
0.209524
0.211138
0.182329
0.211982
0.183002
0.140134
0.096526
0.140754
0.0970585
0.118039
0.0781059
0.118567
0.0785563
0.0751696
0.0751957
0.0756709
0.0756973
0.0586886
0.058709
0.059114
0.0591346
0.0965997
0.140252
0.0971329
0.140873
0.0781627
0.11813
0.0786137
0.11866
0.208915
0.240681
0.209692
0.241643
0.182462
0.211316
0.183135
0.212162
0.238562
0.207221
0.239537
0.208011
0.209468
0.181005
0.210324
0.181688
0.138929
0.0955002
0.13956
0.0960423
0.11701
0.077238
0.117547
0.0776955
0.0742098
0.0742354
0.0747202
0.0747461
0.0578744
0.0578944
0.0583065
0.0583267
0.0955724
0.139044
0.0961153
0.139676
0.0772936
0.1171
0.0777518
0.117638
0.207385
0.238779
0.208175
0.239756
0.181135
0.209644
0.181819
0.210501
0.236631
0.205662
0.237623
0.206468
0.207774
0.179657
0.208643
0.180352
0.137697
0.0944527
0.138342
0.0950061
0.115963
0.076355
0.11651
0.0768202
0.07323
0.0732551
0.0737507
0.0737761
0.0570464
0.0570659
0.0574854
0.0575052
0.0945234
0.13781
0.0950776
0.138456
0.0764093
0.11605
0.0768752
0.116598
0.205822
0.236845
0.20663
0.237839
0.179784
0.207946
0.180481
0.208817
0.234649
0.204052
0.235671
0.204887
0.20604
0.178271
0.206932
0.178988
0.136423
0.0933697
0.137092
0.0939435
0.114884
0.0754476
0.115449
0.0759268
0.0722181
0.0722427
0.0727572
0.072782
0.0561974
0.0562164
0.0566484
0.0566677
0.0934387
0.136533
0.0940134
0.137204
0.0755005
0.11497
0.0759805
0.115535
0.204209
0.234859
0.205046
0.235882
0.178396
0.206209
0.179114
0.207102
0.232565
0.202341
0.233647
0.203235
0.204226
0.176806
0.205165
0.17757
0.135062
0.0922117
0.135782
0.0928298
0.11374
0.0744871
0.114344
0.0749979
0.0711374
0.0711613
0.0717174
0.0717417
0.0553017
0.0553203
0.0557807
0.0557995
0.0922789
0.135169
0.092898
0.135891
0.0745386
0.113823
0.0750502
0.114428
0.202494
0.23277
0.20339
0.233854
0.176928
0.204391
0.177693
0.205332
0.230267
0.200425
0.231473
0.201439
0.20224
0.175176
0.20328
0.176036
0.133518
0.0908919
0.134345
0.0916053
0.112456
0.0734083
0.113141
0.0739892
0.0699045
0.0699277
0.0705746
0.0705981
0.0542979
0.0543158
0.0548414
0.0548596
0.0909568
0.133622
0.0916714
0.134451
0.073458
0.112536
0.0740399
0.113223
0.200573
0.230467
0.201589
0.231676
0.175294
0.202401
0.176156
0.203443
0.227566
0.198114
0.229003
0.199355
0.19992
0.173227
0.201152
0.174271
0.131615
0.0892453
0.13265
0.0901484
0.11089
0.0720821
0.11174
0.0728077
0.0683597
0.0683818
0.069211
0.0692336
0.0530618
0.0530789
0.0537415
0.053759
0.0893074
0.131715
0.0902121
0.132752
0.0721296
0.110967
0.0728564
0.111819
0.198257
0.227759
0.199501
0.2292
0.173341
0.200075
0.174387
0.20131
0.224178
0.195084
0.225997
0.196737
0.197011
0.170678
0.198574
0.172069
0.129034
0.0869859
0.130461
0.0882399
0.108777
0.0702733
0.109946
0.0712778
0.0662416
0.0662625
0.0674177
0.0674393
0.0513784
0.0513944
0.0523142
0.0523308
0.0870445
0.129129
0.0883004
0.130558
0.0703178
0.10885
0.0713239
0.110021
0.195221
0.224363
0.196877
0.226186
0.170786
0.197161
0.17218
0.198727
0.219944
0.190591
0.222163
0.193125
0.193299
0.16684
0.195262
0.169017
0.125108
0.083657
0.127329
0.085513
0.105522
0.0675784
0.107372
0.0690875
0.0632216
0.0632409
0.0648871
0.0649072
0.0489561
0.0489708
0.0502972
0.0503126
0.0837113
0.125196
0.0855696
0.12742
0.0676193
0.10559
0.0691304
0.107443
0.19072
0.220121
0.193258
0.222344
0.166943
0.193442
0.169123
0.195408
0.217328
0.180896
0.218016
0.187112
0.190624