/*--------------------------------*- C++ -*----------------------------------*\
  =========                 |
  \\      /  F ield         | OpenFOAM: The Open Source CFD Toolbox
   \\    /   O peration     | Website:  https://openfoam.org
    \\  /    A nd           | Version:  9
     \\/     M anipulation  |
\*---------------------------------------------------------------------------*/
FoamFile
{
    format      ascii;
    class       volScalarField;
    location    "2";
    object      nut;
}
// * * * * * * * * * * * * * * * * * * * * * * * * * * * * * * * * * * * * * //

dimensions      [0 2 -1 0 0 0 0];

internalField   nonuniform List<scalar> 
36360
(
0.00197193
0.00165982
0.000908828
0.000802133
0.000357786
0.000307713
0.000212486
0.000198546
0.000830503
0.000291944
0.000274429
0.000168372
0.00018687
0.000140863
0.000162712
0.000161312
0.000161457
0.000161408
0.000157544
0.000157549
0.000137677
0.000137677
0.000161485
0.000161485
0.000291815
0.000830488
0.000168349
0.000274407
0.000140854
0.000186861
0.000161312
0.000162709
0.00166019
0.00197269
0.000802255
0.000909218
0.000307746
0.000357864
0.000198551
0.000212505
0.00325575
0.0028488
0.00272797
0.00234208
0.000581005
0.00050179
0.00049704
0.000425393
0.0019505
0.00118094
0.00145319
0.000686741
0.000346885
0.000200604
0.000262255
0.0001541
0.00053206
0.000531888
0.000242526
0.000242376
0.00012618
0.000126161
0.000122037
0.000122033
0.00118093
0.00195089
0.000686499
0.00145338
0.000200573
0.000346912
0.000154078
0.000262256
0.0028496
0.00325699
0.00234267
0.00272899
0.000501872
0.000581134
0.000425453
0.000497148
0.00390948
0.00349717
0.00363277
0.00322005
0.000670484
0.000588765
0.000634535
0.00055334
0.0026214
0.00192881
0.00232979
0.00159012
0.000443244
0.000309065
0.000403943
0.000262436
0.00152154
0.00152185
0.00106626
0.00106632
0.000202727
0.000202709
0.000153857
0.000153828
0.00192946
0.00262233
0.00159043
0.00233044
0.000309085
0.000443321
0.000262425
0.000403994
0.00349849
0.00391124
0.0032211
0.00363425
0.000588892
0.000670659
0.000553443
0.000634686
0.00426889
0.00386211
0.00411559
0.0037059
0.000713057
0.000631356
0.000695465
0.000613693
0.00301616
0.00240647
0.00284594
0.00219935
0.000490641
0.000367797
0.000470971
0.000343279
0.00213491
0.00213547
0.0018752
0.00187566
0.000280537
0.000280562
0.000247742
0.00024775
0.00240768
0.00301768
0.0022003
0.00284717
0.000367876
0.000490769
0.00034333
0.000471074
0.00386401
0.00427128
0.00370751
0.00411767
0.000631532
0.000713285
0.000613844
0.000695666
0.00446444
0.00406192
0.00438244
0.00397816
0.000734137
0.00065258
0.000725502
0.000643889
0.00323529
0.00267163
0.00314344
0.002561
0.00051426
0.000397026
0.000504606
0.000385159
0.00245343
0.00245411
0.00232237
0.002323
0.000319
0.000319047
0.000303552
0.00030359
0.00267323
0.0032373
0.00256243
0.00314522
0.000397147
0.000514431
0.00038526
0.000504757
0.00406434
0.00446741
0.00398034
0.00438513
0.000652801
0.000734417
0.000644089
0.000725757
0.00456321
0.00416233
0.00452319
0.0041218
0.00074399
0.000662459
0.000740089
0.000658563
0.00334484
0.00280191
0.00330082
0.0027499
0.000525185
0.00041017
0.000520892
0.000405071
0.00260452
0.00260529
0.00254465
0.00254538
0.000335668
0.000335728
0.000329289
0.000329343
0.00280377
0.00334719
0.00275164
0.00330301
0.000410316
0.000525385
0.000405206
0.000521079
0.00416514
0.00456663
0.00412443
0.0045264
0.000662713
0.000744309
0.000658803
0.00074039
0.00460747
0.00420665
0.00459057
0.00418988
0.000748038
0.000666457
0.000746546
0.000664999
0.00339247
0.00285749
0.00337461
0.00283682
0.000529596
0.000415265
0.000527989
0.00041345
0.00266777
0.0026686
0.00264439
0.0026452
0.000341871
0.000341937
0.000339707
0.00033977
0.0028595
0.00339503
0.00283877
0.00337708
0.000415425
0.000529813
0.000413604
0.0005282
0.0042097
0.00461117
0.00419283
0.00459415
0.000666731
0.00074838
0.000665265
0.000746878
0.00462381
0.00422247
0.00461838
0.00421738
0.0007493
0.000667653
0.000748935
0.000667327
0.00340904
0.00287656
0.00340385
0.00287067
0.00053097
0.000416765
0.000530579
0.000416365
0.00268914
0.00269
0.00268262
0.00268346
0.00034359
0.000343657
0.000343167
0.000343233
0.00287864
0.0034117
0.00287272
0.00340647
0.00041693
0.000531195
0.000416528
0.000530801
0.00422564
0.00462766
0.0042205
0.00462217
0.000667938
0.000749654
0.000667607
0.000749284
0.00462684
0.00422506
0.00462676
0.00422522
0.000749346
0.000667651
0.000749429
0.000667759
0.00341163
0.00287979
0.00341192
0.00288004
0.00053108
0.000416867
0.000531147
0.000416956
0.00269271
0.00269358
0.00269306
0.00269393
0.000343675
0.000343743
0.000343801
0.000343869
0.0028819
0.00341433
0.00288215
0.00341461
0.000417033
0.000531307
0.000417122
0.000531374
0.00422828
0.00463075
0.00422842
0.00463065
0.000667938
0.000749704
0.000668045
0.000749786
0.00462487
0.00422282
0.00462675
0.0042248
0.000748924
0.000667193
0.000749219
0.000667508
0.00340927
0.00287756
0.00341133
0.00287968
0.000530737
0.000416508
0.000530996
0.000416786
0.00269033
0.00269119
0.00269265
0.00269352
0.000343249
0.000343317
0.000343583
0.000343651
0.00287968
0.00341197
0.0028818
0.00341403
0.000416675
0.000530965
0.000416953
0.000531224
0.00422605
0.00462879
0.00422802
0.00463066
0.000667481
0.000749284
0.000667796
0.000749578
0.00462017
0.00421804
0.0046232
0.00422112
0.000748248
0.000666496
0.000748651
0.000666912
0.00340429
0.00287244
0.00340757
0.00287597
0.000530137
0.000415874
0.000530516
0.000416292
0.00268489
0.00268576
0.00268868
0.00268955
0.000342509
0.000342577
0.000343008
0.000343077
0.00287455
0.00340699
0.00287808
0.00341027
0.00041604
0.000530364
0.000416459
0.000530743
0.00422126
0.00462409
0.00422435
0.00462712
0.000666784
0.000748607
0.0006672
0.00074901
0.00461399
0.00421198
0.00461768
0.00421562
0.000747428
0.000665667
0.000747897
0.000666145
0.00339805
0.00286582
0.00340187
0.00287
0.000529402
0.000415098
0.000529843
0.000415581
0.00267778
0.00267865
0.00268235
0.00268322
0.000341602
0.000341669
0.000342182
0.00034225
0.00286793
0.00340074
0.00287212
0.00340457
0.000415263
0.000529629
0.000415747
0.00053007
0.0042152
0.0046179
0.00421884
0.00462159
0.000665954
0.000747786
0.000666432
0.000748256
0.00460678
0.00420506
0.00461095
0.0042091
0.000746493
0.000664735
0.000747017
0.000665261
0.00339094
0.00285822
0.00339517
0.00286286
0.000528564
0.000414212
0.000529054
0.000414748
0.0026696
0.00267047
0.00267467
0.00267554
0.000340572
0.000340639
0.000341212
0.000341279
0.00286032
0.00339362
0.00286497
0.00339785
0.000414376
0.000528789
0.000414912
0.00052928
0.00420826
0.00461067
0.00421231
0.00461485
0.000665021
0.00074685
0.000665547
0.000747375
0.00459868
0.00419739
0.00460329
0.0042018
0.000745454
0.000663709
0.00074603
0.000664282
0.00338311
0.00284977
0.00338769
0.00285483
0.00052763
0.000413226
0.000528167
0.000413811
0.00266048
0.00266134
0.00266602
0.00266688
0.000339426
0.000339493
0.000340124
0.000340191
0.00285186
0.00338577
0.00285693
0.00339036
0.000413389
0.000527854
0.000413975
0.000528392
0.00420058
0.00460255
0.004205
0.00460717
0.000663993
0.000745809
0.000664567
0.000746386
0.00458969
0.00418899
0.00459474
0.00419377
0.000744308
0.000662582
0.000744938
0.000663206
0.00337454
0.00284048
0.00337949
0.00284596
0.000526598
0.000412136
0.000527185
0.000412774
0.0026504
0.00265126
0.00265642
0.00265728
0.000338162
0.000338227
0.000338919
0.000338986
0.00284256
0.00337718
0.00284805
0.00338215
0.000412298
0.000526821
0.000412936
0.000527408
0.00419216
0.00459355
0.00419695
0.00459861
0.000662864
0.000744661
0.000663489
0.000745292
0.00457982
0.00417982
0.00458532
0.00418498
0.00074305
0.000661351
0.000743736
0.000662027
0.00336521
0.00283032
0.00337055
0.00283624
0.000525466
0.000410938
0.000526104
0.000411631
0.00263935
0.00264021
0.00264586
0.00264672
0.000336771
0.000336836
0.000337593
0.000337658
0.00283239
0.00336784
0.00283832
0.00337319
0.000411099
0.000525687
0.000411792
0.000526325
0.00418297
0.00458366
0.00418814
0.00458917
0.000661632
0.000743401
0.000662309
0.000744089
0.00456902
0.00416984
0.00457499
0.00417541
0.000741676
0.00066001
0.000742421
0.000660742
0.00335509
0.00281925
0.00336082
0.00282562
0.000524228
0.000409627
0.000524919
0.000410377
0.00262725
0.00262811
0.00263429
0.00263515
0.000335246
0.000335311
0.000336136
0.000336201
0.00282131
0.0033577
0.00282769
0.00336345
0.000409786
0.000524447
0.000410536
0.000525139
0.00417297
0.00457283
0.00417856
0.00457881
0.000660289
0.000742026
0.000661022
0.000742772
0.00455725
0.00415902
0.00456371
0.00416502
0.000740179
0.000658551
0.000740986
0.000659343
0.00334411
0.00280721
0.00335028
0.00281407
0.000522877
0.000408194
0.000523625
0.000409005
0.00261407
0.00261492
0.00262165
0.00262251
0.00033358
0.000333643
0.000334541
0.000334606
0.00280925
0.0033467
0.00281613
0.00335288
0.000408352
0.000523095
0.000409163
0.000523844
0.00416213
0.00456104
0.00416814
0.00456751
0.000658828
0.000740527
0.000659621
0.000741335
0.00454447
0.00414731
0.00455143
0.00415376
0.000738553
0.000656966
0.000739425
0.000657822
0.00333224
0.00279416
0.00333886
0.00280153
0.000521409
0.000406635
0.000522216
0.00040751
0.00259973
0.00260058
0.0026079
0.00260875
0.000331763
0.000331826
0.000332801
0.000332864
0.00279619
0.00333481
0.00280357
0.00334144
0.00040679
0.000521624
0.000407666
0.000522433
0.0041504
0.00454824
0.00415685
0.00455521
0.000657241
0.000738898
0.000658098
0.000739772
0.00453066
0.00413467
0.00453814
0.00414158
0.000736794
0.000655248
0.000737733
0.000656171
0.00331945
0.00278007
0.00332653
0.00278796
0.000519817
0.000404943
0.000520686
0.000405885
0.00258421
0.00258506
0.00259298
0.00259382
0.00032979
0.000329852
0.000330906
0.000330969
0.00278208
0.003322
0.00278999
0.00332909
0.000405097
0.00052003
0.000406039
0.000520901
0.00413773
0.00453439
0.00414466
0.00454189
0.000655521
0.000737137
0.000656445
0.000738078
0.00451579
0.00412109
0.0045238
0.00412847
0.000734897
0.000653394
0.000735905
0.000654385
0.0033057
0.0027649
0.00331326
0.00277333
0.000518098
0.000403115
0.000519031
0.000404125
0.00256746
0.00256831
0.00257684
0.00257769
0.000327653
0.000327714
0.000328852
0.000328913
0.0027669
0.00330823
0.00277534
0.0033158
0.000403266
0.000518309
0.000404277
0.000519244
0.00412412
0.00451949
0.00413152
0.00452752
0.000653665
0.000735238
0.000654657
0.000736248
0.00449985
0.00410655
0.00450839
0.00411441
0.000732862
0.000651399
0.00073394
0.00065246
0.003291
0.00274865
0.00329903
0.00275762
0.000516251
0.000401146
0.000517248
0.000402226
0.00254947
0.00255031
0.00255947
0.00256031
0.000325348
0.000325408
0.000326631
0.000326692
0.00275063
0.00329349
0.00275961
0.00330154
0.000401295
0.000516459
0.000402377
0.000517458
0.00410956
0.00450353
0.00411743
0.00451208
0.000651667
0.0007332
0.00065273
0.000734279
0.00448287
0.00409109
0.00449193
0.0040994
0.000730688
0.000649277
0.000731835
0.000650399
0.00327535
0.00273131
0.00328384
0.00274082
0.000514275
0.000399036
0.000515336
0.000400187
0.00253023
0.00253106
0.00254085
0.00254169
0.000322872
0.000322931
0.000324241
0.000324301
0.00273328
0.00327782
0.0027428
0.00328633
0.000399183
0.000514481
0.000400335
0.000515544
0.00409406
0.00448651
0.00410239
0.00449559
0.000649543
0.000731023
0.000650666
0.000732171
0.00446484
0.00407471
0.00447442
0.00408348
0.000728378
0.000647026
0.000729592
0.000648215
0.00325875
0.00271289
0.00326772
0.00272294
0.00051217
0.000396783
0.000513296
0.000398005
0.00250972
0.00251055
0.00252098
0.00252181
0.000320223
0.000320281
0.000321679
0.000321737
0.00271484
0.00326119
0.0027249
0.00327018
0.000396928
0.000512374
0.000398151
0.000513501
0.00407765
0.00446845
0.00408644
0.00447804
0.000647289
0.00072871
0.000648479
0.000729926
0.00444581
0.00405741
0.00445588
0.00406663
0.000725935
0.000644643
0.000727215
0.000645897
0.00324123
0.00269341
0.00325065
0.00270398
0.000509938
0.000394391
0.000511127
0.000395682
0.00248799
0.00248881
0.00249985
0.00250067
0.000317404
0.00031746
0.000318944
0.000319001
0.00269534
0.00324364
0.00270592
0.00325308
0.000394533
0.000510139
0.000395825
0.000511329
0.00406032
0.00444937
0.00406956
0.00445947
0.000644903
0.000726264
0.000646159
0.000727546
0.00442583
0.00403926
0.00443636
0.00404889
0.000723369
0.000642137
0.000724709
0.000643451
0.00322284
0.00267293
0.00323268
0.00268399
0.000507586
0.000391864
0.000508834
0.000393222
0.00246507
0.00246589
0.00247751
0.00247834
0.000314418
0.000314473
0.000316041
0.000316096
0.00267484
0.00322522
0.00268591
0.00323508
0.000392003
0.000507783
0.000393361
0.000509033
0.00404213
0.00442936
0.00405179
0.00443991
0.000642394
0.000723695
0.000643709
0.000725037
0.00440499
0.00402033
0.00441594
0.00403034
0.000720688
0.000639516
0.000722084
0.000640886
0.00320365
0.00265153
0.00321388
0.00266304
0.000505119
0.000389211
0.000506423
0.00039063
0.00244106
0.00244187
0.00245404
0.00245485
0.000311276
0.000311328
0.000312975
0.000313029
0.00265341
0.00320599
0.00266493
0.00321624
0.000389346
0.000505314
0.000390767
0.000506619
0.00402317
0.00440848
0.0040332
0.00441945
0.000639771
0.000721011
0.000641142
0.000722408
0.00438339
0.0040007
0.00439471
0.00401105
0.000717907
0.000636786
0.000719351
0.00063821
0.00318374
0.0026293
0.00319432
0.0026412
0.000502549
0.000386441
0.000503903
0.000387917
0.00241605
0.00241685
0.00242951
0.00243032
0.000307988
0.000308039
0.000309758
0.00030981
0.00263115
0.00318605
0.00264307
0.00319665
0.000386574
0.00050274
0.00038805
0.000504095
0.00400349
0.00438684
0.00401387
0.00439818
0.000637037
0.000718226
0.000638463
0.000719672
0.00436116
0.00398043
0.00437277
0.00399107
0.000715041
0.000633966
0.000716525
0.00063543
0.00316323
0.00260636
0.00317408
0.0026186
0.000499889
0.00038357
0.000501286
0.000385094
0.00239016
0.00239096
0.00240404
0.00240484
0.000304569
0.000304619
0.000306402
0.000306452
0.00260819
0.0031655
0.00262044
0.00317638
0.000383699
0.000500077
0.000385225
0.000501475
0.00398319
0.00436457
0.00399385
0.0043762
0.000634213
0.000715356
0.00063568
0.000716843
0.0043384
0.0039597
0.00435026
0.00397057
0.000712105
0.000631077
0.000713622
0.000632574
0.00314223
0.00258285
0.00315331
0.00259535
0.000497154
0.000380611
0.000498586
0.000382177
0.00236355
0.00236434
0.00237777
0.00237857
0.00030104
0.000301087
0.000302926
0.000302974
0.00258465
0.00314447
0.00259717
0.00315557
0.000380737
0.000497338
0.000382304
0.000498772
0.00396242
0.00434176
0.0039733
0.00435365
0.000631321
0.000712417
0.00063282
0.000713936
0.00431517
0.00393854
0.00432726
0.00394962
0.000709113
0.000628131
0.000710657
0.000629655
0.00312081
0.00255886
0.0031321
0.00257159
0.000494354
0.00037758
0.000495817
0.00037918
0.00233631
0.0023371
0.00235083
0.00235162
0.000297417
0.000297463
0.000299347
0.000299393
0.00256063
0.00312301
0.00257337
0.00313432
0.000377702
0.000494535
0.000379303
0.000495999
0.00394122
0.00431849
0.00395231
0.0043306
0.000628371
0.000709421
0.000629898
0.000710967
0.0042914
0.00391688
0.00430378
0.00392822
0.000706069
0.000625131
0.000707639
0.000626682
0.00309892
0.00253438
0.00311045
0.00254736
0.000491494
0.000374485
0.000492987
0.000376116
0.0023085
0.00230927
0.00232332
0.0023241
0.00029372
0.000293763
0.000295685
0.00029573
0.00253612
0.00310107
0.00254911
0.00311263
0.000374603
0.000491671
0.000376235
0.000493165
0.0039195
0.00429466
0.00393088
0.00430707
0.000625368
0.000706373
0.000626921
0.000707945
0.00426667
0.00389434
0.00427961
0.00390619
0.00070295
0.000622064
0.000704563
0.000623653
0.00307624
0.00250915
0.00308823
0.00252256
0.000488557
0.000371319
0.000490092
0.000372988
0.00227985
0.00228061
0.00229514
0.00229591
0.00028995
0.000289991
0.000291953
0.000291995
0.00251086
0.00307835
0.00252428
0.00309036
0.000371433
0.00048873
0.000373103
0.000490267
0.00389691
0.00426988
0.00390879
0.00428284
0.000622297
0.00070325
0.000623887
0.000704865
0.00423998
0.00386994
0.00425408
0.0038829
0.000699683
0.000618861
0.000701384
0.000620532
0.00305187
0.00248233
0.00306486
0.00249669
0.000485481
0.000368032
0.000487097
0.000369771
0.00224949
0.00225024
0.0022658
0.00226656
0.000286063
0.000286102
0.000288134
0.000288174
0.002484
0.00305393
0.00249837
0.00306695
0.000368142
0.00048565
0.000369883
0.000487268
0.00387247
0.00424313
0.00388545
0.00425726
0.000619089
0.000699978
0.000620761
0.000701681
0.00420929
0.00384163
0.00422571
0.00385688
0.000696103
0.000615402
0.000697988
0.000617214
0.00302394
0.002452
0.00303901
0.00246843
0.000482118
0.000364479
0.000483903
0.000366377
0.00221528
0.00221602
0.00223389
0.00223464
0.000281909
0.000281944
0.000284142
0.000284179
0.00245362
0.00302594
0.00247008
0.00304105
0.000364584
0.000482281
0.000366485
0.00048407
0.00384409
0.00421236
0.00385937
0.00422882
0.000615623
0.000696392
0.000617439
0.00069828
0.00417118
0.00380625
0.00419183
0.00382548
0.000691886
0.000611368
0.000694142
0.000613529
0.00298918
0.00241441
0.00300819
0.00243508
0.000478154
0.000360325
0.000480292
0.000362582
0.00217286
0.00217358
0.00219629
0.00219702
0.000277101
0.000277134
0.000279729
0.000279763
0.00241597
0.0029911
0.00243667
0.00301015
0.000360424
0.000478311
0.000362684
0.000480453
0.00380863
0.00417416
0.00382791
0.00419486
0.000611583
0.000692167
0.000613747
0.000694427
0.00412017
0.00375871
0.0041481
0.00378488
0.000686472
0.000606183
0.000689413
0.000609011
0.00294165
0.00236294
0.00296802
0.00239157
0.000472965
0.000354872
0.000475824
0.000357897
0.00211485
0.00211554
0.00214715
0.00214786
0.000270826
0.000270854
0.000274324
0.000274354
0.00236442
0.00294348
0.00239309
0.0029699
0.000354963
0.000473114
0.000357992
0.000475978
0.00376099
0.00412304
0.00378721
0.00415103
0.00060639
0.000686744
0.000609221
0.00068969
0.00404923
0.00368746
0.00408785
0.00372757
0.000679148
0.000598855
0.000683112
0.000602926
0.00287037
0.00228884
0.00291033
0.00232975
0.000465136
0.000346746
0.000469576
0.000351332
0.0020334
0.00203405
0.00207806
0.00207873
0.000261661
0.000261682
0.000266812
0.000266837
0.00229022
0.00287208
0.00233118
0.0029121
0.000346825
0.000465274
0.000351418
0.00046972
0.0036896
0.00405196
0.00372978
0.00409065
0.000599053
0.000679409
0.000603129
0.000683378
0.00396277
0.0035608
0.0040072
0.00363577
0.000669386
0.000582825
0.000674854
0.000593226
0.00276687
0.00219566
0.00282211
0.00224343
0.000450859
0.00033395
0.000459263
0.000341092
0.0019326
0.00193322
0.00198506
0.0019857
0.000248214
0.000248226
0.000255593
0.000255609
0.00219693
0.00276843
0.00224476
0.00282374
0.000334015
0.000450983
0.000341165
0.000459395
0.0035628
0.00396538
0.00363784
0.00400987
0.000583008
0.000669639
0.000593418
0.000675111
0.0029214
0.00247851
0.00145405
0.00122801
0.00257659
0.00217649
0.00124234
0.00105523
0.00144974
0.000567609
0.000429287
0.000206311
0.00120431
0.000441562
0.000358146
0.000186402
0.000232685
0.0002326
0.000148831
0.000148828
0.000197514
0.000197401
0.000153124
0.000153139
0.000567377
0.0014499
0.000206239
0.000429294
0.000441365
0.00120437
0.000186355
0.000358132
0.0024793
0.0029229
0.00122839
0.00145498
0.00217708
0.00257776
0.00105548
0.00124302
0.00489471
0.00430716
0.00403864
0.00349826
0.00430952
0.00377573
0.00356987
0.00307768
0.00315735
0.00212743
0.00237994
0.00136626
0.00269939
0.00174317
0.00202693
0.00108811
0.00135916
0.00135914
0.000564175
0.000563854
0.000986098
0.000985942
0.000402403
0.000402144
0.00212777
0.00315828
0.00136608
0.00238045
0.00174331
0.00270007
0.00108788
0.00202728
0.00430882
0.0048972
0.00349947
0.00404063
0.003777
0.00431147
0.0030786
0.00357143
0.00607183
0.00545057
0.00555727
0.00494654
0.00529124
0.00472977
0.00486709
0.00431392
0.00430875
0.00339724
0.00379347
0.00281587
0.00366149
0.00280281
0.00323542
0.00231931
0.0029243
0.00292492
0.0022223
0.00222269
0.00233297
0.00233345
0.00172656
0.0017268
0.00339869
0.0043108
0.00281679
0.00379493
0.00280389
0.00366303
0.00231993
0.0032365
0.00545337
0.00607558
0.00494873
0.00556035
0.00473191
0.00529413
0.0043156
0.00486949
0.00677731
0.00615142
0.00647118
0.00584606
0.00586017
0.0052958
0.00561507
0.00505092
0.00504197
0.00423583
0.00472064
0.00386815
0.00425684
0.00349563
0.00399748
0.00319286
0.0038919
0.00389282
0.00347332
0.0034741
0.00316094
0.0031617
0.00280477
0.0028054
0.00423815
0.00504516
0.00387007
0.00472327
0.00349747
0.00425929
0.00319434
0.00399948
0.00615549
0.00678251
0.0058495
0.00647565
0.00529891
0.00586416
0.00505354
0.0056185
0.00718119
0.00655648
0.00700984
0.00638443
0.00617878
0.00561581
0.00604433
0.00548064
0.00547072
0.00472354
0.00528851
0.00451694
0.00459818
0.00389242
0.0044539
0.00372525
0.00443593
0.00443706
0.00420693
0.00420797
0.00361597
0.00361692
0.00342583
0.00342669
0.00472654
0.00547488
0.00451963
0.00529221
0.00389483
0.00460139
0.0037274
0.00445675
0.00656169
0.00718772
0.0063891
0.00701574
0.0056198
0.00618377
0.00548421
0.00604884
0.00739286
0.00676919
0.00730627
0.00668222
0.00634283
0.00578071
0.00627605
0.00571366
0.00569562
0.00497644
0.00560386
0.00487368
0.00477376
0.00409394
0.00470257
0.00401265
0.00471344
0.00471474
0.0046011
0.00460233
0.00384218
0.00384327
0.00375138
0.0037524
0.00497992
0.00570048
0.00487695
0.00560841
0.00409673
0.00477753
0.00401527
0.00470609
0.00677526
0.00740041
0.0066879
0.00731336
0.00578535
0.0063486
0.00571801
0.00628147
0.00749086
0.00686749
0.00745305
0.00682964
0.00641746
0.00585537
0.00638885
0.00582684
0.00579887
0.00509111
0.00575928
0.00504739
0.00485256
0.00418296
0.00482263
0.00414939
0.00483804
0.00483944
0.00479069
0.00479205
0.00394082
0.00394199
0.00390378
0.00390492
0.00509488
0.00580416
0.00505104
0.00576439
0.004186
0.00485667
0.00415232
0.00482659
0.0068741
0.00749906
0.00683601
0.00746097
0.00586042
0.00642371
0.00583171
0.00639489
0.00752857
0.00690518
0.00751577
0.00689245
0.0064455
0.00588314
0.0064361
0.00587394
0.00583811
0.00513411
0.00582498
0.00511988
0.00488149
0.00421507
0.00487204
0.00420475
0.00488441
0.00488586
0.00486915
0.00487058
0.003976
0.00397721
0.00396478
0.00396598
0.00513803
0.00584363
0.00512374
0.00583041
0.00421822
0.00488577
0.00420785
0.00487625
0.00691207
0.00753711
0.00689923
0.00752418
0.0058884
0.006452
0.00587912
0.00644251
0.00753713
0.00691388
0.00753616
0.0069129
0.0064512
0.00588882
0.00645078
0.00588848
0.00584727
0.00514409
0.00584628
0.00514311
0.00488747
0.00422169
0.00488717
0.00422143
0.00489512
0.0048966
0.00489413
0.0048956
0.0039832
0.00398443
0.003983
0.00398422
0.00514807
0.00585288
0.00514708
0.00585186
0.00422488
0.00489181
0.00422462
0.00489149
0.00692088
0.00754582
0.00691987
0.00754482
0.00589417
0.00645781
0.0058938
0.00645737
0.00753456
0.00691162
0.00753771
0.00691456
0.00644853
0.00588629
0.00645133
0.00588897
0.00584531
0.00514214
0.00584812
0.00514513
0.00488513
0.00421931
0.00488772
0.00422207
0.00489306
0.00489454
0.00489628
0.00489776
0.00398066
0.00398189
0.00398367
0.0039849
0.00514614
0.00585094
0.00514912
0.00585375
0.00422251
0.00488948
0.00422527
0.00489207
0.00691866
0.0075433
0.00692159
0.00754644
0.00589166
0.00645518
0.00589433
0.00645797
0.00752641
0.00690386
0.00753195
0.00690922
0.00644157
0.00587957
0.00644618
0.00588407
0.00583778
0.00513439
0.00584316
0.00514008
0.00487851
0.0042124
0.00488307
0.00421733
0.004885
0.00488649
0.00489095
0.00489244
0.00397339
0.00397462
0.00397862
0.00397985
0.00513839
0.00584341
0.00514409
0.0058488
0.00421561
0.00488286
0.00422054
0.00488743
0.0069109
0.00753516
0.00691627
0.0075407
0.00588493
0.00644821
0.00588944
0.00645283
0.00751557
0.00689351
0.00752226
0.00689998
0.00643244
0.00587082
0.00643799
0.0058762
0.00582763
0.00512376
0.00583412
0.0051307
0.00486986
0.00420325
0.0048753
0.00420915
0.00487378
0.00487526
0.00488118
0.00488266
0.00396361
0.00396484
0.00396999
0.00397122
0.00512775
0.00583324
0.0051347
0.00583975
0.00420645
0.0048742
0.00421235
0.00487965
0.00690053
0.00752429
0.00690701
0.007531
0.00587617
0.00643907
0.00588156
0.00644463
0.00750305
0.00688157
0.0075105
0.00688876
0.00642191
0.00586077
0.0064281
0.00586674
0.00581589
0.00511144
0.00582311
0.00511915
0.00485992
0.0041927
0.00486595
0.00419924
0.00486076
0.00486224
0.00486899
0.00487046
0.00395232
0.00395355
0.0039594
0.00396062
0.00511541
0.00582149
0.00512313
0.00582872
0.00419589
0.00486424
0.00420243
0.00487029
0.00688856
0.00751173
0.00689577
0.00751921
0.00586609
0.00642851
0.00587208
0.00643472
0.00748916
0.00686836
0.00749728
0.00687616
0.0064102
0.00584964
0.00641697
0.00585614
0.00580289
0.00509776
0.00581072
0.00510613
0.00484891
0.00418099
0.00485547
0.0041881
0.0048463
0.00484777
0.00485523
0.0048567
0.00393977
0.00394099
0.00394746
0.00394869
0.00510172
0.00580845
0.0051101
0.0058163
0.00418416
0.00485321
0.00419127
0.00485978
0.00687531
0.00749781
0.00688314
0.00750595
0.00585494
0.00641677
0.00586145
0.00642356
0.00747397
0.00685391
0.00748274
0.00686233
0.00639733
0.00583745
0.00640468
0.00584448
0.00578866
0.00508278
0.0057971
0.0050918
0.00483686
0.00416814
0.00484394
0.00417581
0.00483045
0.00483191
0.00484007
0.00484153
0.00392598
0.0039272
0.00393429
0.00393551
0.00508672
0.0057942
0.00509575
0.00580265
0.0041713
0.00484114
0.00417898
0.00484823
0.00686083
0.00748257
0.00686927
0.00749137
0.00584272
0.00640387
0.00584976
0.00641124
0.00745743
0.00683821
0.00746688
0.00684725
0.00638329
0.00582418
0.00639123
0.00583175
0.0057732
0.00506647
0.00578226
0.00507616
0.00482374
0.00415412
0.00483136
0.00416239
0.00481317
0.00481463
0.00482351
0.00482497
0.00391091
0.00391212
0.00391987
0.00392108
0.00507039
0.0057787
0.00508009
0.00578778
0.00415726
0.00482799
0.00416553
0.00483562
0.00684509
0.007466
0.00685416
0.00747546
0.00582942
0.0063898
0.00583701
0.00639776
0.0074395
0.00682119
0.00744965
0.0068309
0.00636803
0.00580978
0.00637659
0.00581792
0.00575642
0.00504876
0.00576614
0.00505915
0.00480949
0.00413887
0.00481768
0.00414776
0.00479438
0.00479583
0.00480548
0.00480693
0.00389449
0.0038957
0.00390413
0.00390534
0.00505265
0.00576189
0.00506306
0.00577163
0.00414199
0.00481371
0.00415089
0.00482191
0.00682803
0.00744801
0.00683777
0.00745819
0.00581498
0.00637449
0.00582315
0.00638308
0.00742007
0.00680278
0.00743097
0.00681319
0.00635146
0.00579417
0.00636067
0.00580292
0.00573826
0.00502956
0.00574868
0.0050407
0.00479405
0.00412232
0.00480283
0.00413186
0.004774
0.00477544
0.0047859
0.00478735
0.00387664
0.00387784
0.003887
0.0038882
0.00503343
0.00574369
0.00504459
0.00575413
0.00412542
0.00479824
0.00413497
0.00480704
0.00680957
0.00742853
0.00682001
0.00743946
0.00579934
0.00635788
0.00580811
0.00636712
0.00739909
0.0067829
0.00741077
0.00679405
0.00633353
0.0057773
0.00634342
0.00578669
0.00571864
0.0050088
0.00572979
0.00502072
0.00477735
0.00410439
0.00478676
0.00411462
0.00475194
0.00475338
0.00476469
0.00476613
0.00385729
0.00385848
0.0038684
0.0038696
0.00501264
0.00572404
0.00502459
0.00573521
0.00410747
0.0047815
0.00411771
0.00479094
0.00678965
0.0074075
0.00680083
0.00741921
0.00578243
0.00633991
0.00579184
0.00634983
0.0073765
0.0067615
0.00738899
0.00677342
0.0063142
0.00575912
0.0063248
0.00576917
0.00569751
0.0049864
0.00570942
0.00499915
0.00475934
0.00408505
0.00476941
0.00409599
0.00472813
0.00472956
0.00474175
0.00474319
0.00383637
0.00383756
0.00384827
0.00384947
0.00499022
0.00570286
0.00500299
0.00571479
0.0040881
0.00476346
0.00409906
0.00477355
0.0067682
0.00738484
0.00678014
0.00739737
0.00576422
0.00632054
0.00577428
0.00633116
0.00735224
0.00673854
0.00736556
0.00675124
0.00629343
0.0057396
0.00630475
0.00575031
0.00567481
0.00496233
0.0056875
0.00497592
0.00473999
0.00406423
0.00475073
0.00407591
0.00470251
0.00470393
0.00471704
0.00471846
0.00381384
0.00381502
0.00382655
0.00382774
0.00496612
0.00568012
0.00497973
0.00569283
0.00406726
0.00474408
0.00407895
0.00475484
0.00674518
0.00736052
0.00675791
0.00737388
0.00574465
0.00629972
0.00575539
0.00631106
0.0073263
0.00671397
0.00734046
0.00672747
0.0062712
0.00571872
0.00628325
0.00573011
0.00565052
0.00493655
0.005664
0.00495099
0.00471929
0.00404193
0.0047307
0.00405435
0.00467503
0.00467644
0.00469049
0.0046919
0.00378967
0.00379085
0.0038032
0.00380438
0.00494031
0.00565578
0.00495477
0.00566929
0.00404494
0.00472333
0.00405737
0.00473477
0.00672055
0.00733451
0.00673408
0.00734871
0.00572373
0.00627744
0.00573514
0.00628951
0.0072987
0.00668784
0.00731367
0.00670209
0.00624754
0.00569651
0.0062603
0.00570855
0.00562465
0.00490903
0.00563892
0.00492433
0.00469725
0.00401815
0.00470932
0.0040313
0.00464568
0.00464708
0.00466207
0.00466348
0.00376385
0.00376502
0.00377821
0.00377937
0.00491276
0.00562986
0.00492808
0.00564415
0.00402113
0.00470125
0.00403429
0.00471335
0.00669436
0.00730684
0.00670864
0.00732185
0.00570147
0.00625372
0.00571353
0.00626651
0.00726944
0.00666018
0.00728525
0.00667521
0.00622244
0.00567297
0.00623591
0.00568568
0.0055972
0.00487979
0.00561225
0.00489594
0.00467387
0.00399289
0.00468661
0.00400677
0.00461445
0.00461584
0.00463178
0.00463317
0.00373637
0.00373753
0.00375155
0.00375271
0.00488348
0.00560235
0.00489966
0.00561743
0.00399583
0.00467783
0.00400974
0.0046906
0.00666663
0.0072775
0.00668169
0.00729335
0.00567786
0.00622856
0.00569061
0.00624206
0.00723853
0.00663095
0.00725515
0.00664675
0.00619594
0.0056481
0.0062101
0.00566146
0.00556819
0.00484885
0.005584
0.00486584
0.00464917
0.00396615
0.00466256
0.00398076
0.00458137
0.00458275
0.00459961
0.00460099
0.00370725
0.0037084
0.00372324
0.00372439
0.0048525
0.00557328
0.00486951
0.00558913
0.00396907
0.00465308
0.00398369
0.0046665
0.00663733
0.00724652
0.00665317
0.00726318
0.00565294
0.006202
0.00566633
0.00621619
0.00720606
0.00660023
0.00722344
0.00661676
0.00616812
0.00562198
0.00618292
0.00563595
0.00553767
0.00481627
0.00555422
0.00483406
0.00462321
0.00393802
0.00463721
0.00395331
0.0045465
0.00454786
0.00456561
0.00456698
0.00367656
0.0036777
0.00369332
0.00369446
0.00481988
0.0055427
0.0048377
0.00555929
0.0039409
0.00462707
0.00395621
0.0046411
0.00660653
0.00721396
0.0066231
0.00723138
0.00562676
0.00617411
0.00564076
0.00618895
0.00717212
0.00656811
0.00719022
0.00658532
0.00613907
0.00559472
0.00615447
0.00560924
0.00550576
0.00478215
0.00552299
0.00480069
0.00459608
0.00390859
0.00461065
0.00392451
0.00450994
0.00451129
0.00452987