/*--------------------------------*- C++ -*----------------------------------*\
  =========                 |
  \\      /  F ield         | OpenFOAM: The Open Source CFD Toolbox
   \\    /   O peration     | Website:  https://openfoam.org
    \\  /    A nd           | Version:  9
     \\/     M anipulation  |
\*---------------------------------------------------------------------------*/
FoamFile
{
    format      ascii;
    class       surfaceScalarField;
    location    "2";
    object      phi;
}
// * * * * * * * * * * * * * * * * * * * * * * * * * * * * * * * * * * * * * //

dimensions      [0 3 -1 0 0 0 0];

internalField   nonuniform List<scalar> 
104044
(
3.98538e-07
-6.54446e-05
-4.7797e-07
6.43959e-05
1.12812e-06
-4.58983e-05
-2.98123e-06
-1.44653e-07
4.85424e-05
8.80261e-07
1.9968e-07
-9.43243e-07
1.2669e-06
-2.62328e-06
-7.83597e-08
6.34746e-07
1.40827e-08
-6.7977e-05
6.74849e-05
-4.48715e-05
6.24299e-09
4.18981e-05
4.80729e-08
-2.34114e-08
-8.7696e-09
-5.23029e-05
-2.02414e-06
5.28132e-05
1.37796e-06
-5.47471e-05
-6.22411e-07
-4.51106e-11
5.5154e-05
2.06849e-07
-3.90224e-09
-1.604e-06
7.40303e-07
-1.02402e-06
-7.76838e-12
2.04631e-07
-8.50725e-09
-5.62733e-05
5.42639e-05
-5.64481e-05
-2.64932e-09
5.58198e-05
-5.31845e-09
-6.73123e-10
-6.03435e-13
-5.54437e-05
-5.9425e-07
5.59205e-05
1.17447e-07
-5.54434e-05
-5.94264e-07
4.44305e-11
5.59201e-05
1.17478e-07
-4.73822e-13
-1.07009e-06
2.20538e-07
-1.0701e-06
7.7936e-12
2.2055e-07
-1.08188e-12
-5.57196e-05
5.51227e-05
-5.57191e-05
2.64986e-09
5.51222e-05
-1.31232e-13
6.72358e-10
8.76778e-09
-5.47458e-05
-6.22312e-07
5.51525e-05
2.06857e-07
-5.23e-05
-2.0245e-06
1.44651e-07
5.28104e-05
1.37829e-06
3.90319e-09
-1.02399e-06
2.04654e-07
-1.60413e-06
7.83597e-08
7.40499e-07
8.49788e-09
-5.64464e-05
5.58183e-05
-5.62698e-05
-6.30441e-09
5.42601e-05
5.31799e-09
2.34067e-08
-3.98603e-07
-4.58957e-05
-2.9813e-06
4.85405e-05
8.79727e-07
-6.54485e-05
-4.78273e-07
6.43997e-05
1.12849e-06
-1.99727e-07
-2.62356e-06
6.34609e-07
-9.44065e-07
1.26785e-06
-1.40005e-08
-4.48658e-05
4.18922e-05
-6.79862e-05
6.74939e-05
-4.80455e-08
3.78537e-07
-6.32798e-05
-1.33554e-06
6.22417e-05
1.99515e-06
-5.04033e-05
5.14618e-07
-1.06915e-07
5.1389e-05
-1.0148e-06
4.10855e-07
-9.39665e-07
1.64491e-06
-1.23701e-06
-1.331e-07
-7.99472e-08
-2.07463e-07
-6.66263e-05
6.54982e-05
-4.05099e-05
1.47922e-07
4.06692e-05
-8.10288e-08
7.01849e-08
-1.53826e-08
-5.33156e-05
-1.95265e-06
5.35345e-05
1.64226e-06
-5.53925e-05
-9.28776e-07
-3.4857e-09
5.54631e-05
8.46265e-07
-1.14461e-08
-2.39425e-06
1.77015e-06
-8.59313e-07
-1.88805e-09
6.11272e-07
-9.86834e-09
-5.19477e-05
5.01529e-05
-5.49591e-05
-7.85325e-09
5.40283e-05
-7.89824e-09
-6.54449e-09
2.11457e-12
-5.63458e-05
-3.19282e-07
5.65043e-05
1.57226e-07
-5.63453e-05
-3.19162e-07
3.48693e-09
5.65039e-05
1.57144e-07
-1.11487e-13
-4.59405e-07
3.22475e-08
-4.5933e-07
1.88735e-09
3.22084e-08
1.63903e-12
-5.46568e-05
5.43296e-05
-5.46563e-05
7.85741e-09
5.43293e-05
-1.12128e-12
6.54638e-09
1.53658e-08
-5.53909e-05
-9.28793e-07
5.54614e-05
8.46386e-07
-5.3313e-05
-1.95286e-06
1.06884e-07
5.3532e-05
1.64234e-06
1.14373e-08
-8.59239e-07
6.11322e-07
-2.39463e-06
1.33088e-07
1.77038e-06
9.85046e-09
-5.49577e-05
5.40269e-05
-5.19436e-05
-1.48019e-07
5.01486e-05
7.8873e-09
-7.02463e-08
-3.78488e-07
-5.04016e-05
5.15558e-07
5.13875e-05
-1.01602e-06
-6.32834e-05
-1.33614e-06
6.22451e-05
1.99596e-06
-4.10872e-07
-1.23638e-06
-8.07364e-08
-9.40124e-07
1.64554e-06
2.0775e-07
-4.05044e-05
4.06642e-05
-6.6635e-05
6.55066e-05
8.12019e-08
2.26158e-07
-6.13495e-05
-1.71317e-06
6.05754e-05
2.26108e-06
-5.2065e-05
1.97689e-06
-2.21923e-08
5.26002e-05
-2.26382e-06
3.06245e-07
-1.56894e-06
2.15487e-06
1.42766e-06
-6.49507e-08
-1.73245e-06
-4.86347e-07
-6.4274e-05
6.30472e-05
-4.1526e-05
3.01051e-07
4.27155e-05
-3.44705e-07
2.26094e-07
-1.07338e-08
-5.35555e-05
-9.22059e-07
5.35293e-05
9.36812e-07
-5.54233e-05
-5.55963e-07
-1.12198e-08
5.53079e-05
6.71822e-07
-1.4359e-08
-1.3487e-06
1.27707e-06
-7.71685e-07
-5.22101e-09
8.02344e-07
-3.26383e-09
-4.90385e-05
4.84208e-05
-5.32581e-05
-1.17265e-08
5.27106e-05
-8.24814e-09
-9.69537e-09
-1.43629e-11
-5.64384e-05
-1.67409e-07
5.62961e-05
2.98463e-07
-5.64378e-05
-1.67385e-07
1.12964e-08
5.62955e-05
2.98393e-07
8.30855e-12
-2.25236e-07
2.85958e-07
-2.25153e-07
5.21433e-09
2.85992e-07
9.7146e-12
-5.40947e-05
5.39156e-05
-5.40944e-05
1.17394e-08
5.39153e-05
5.79848e-12
9.70041e-09
1.07566e-08
-5.54216e-05
-5.56098e-07
5.53062e-05
6.72033e-07
-5.35531e-05
-9.22058e-07
2.21116e-08
5.3527e-05
9.36817e-07
1.42658e-08
-7.7177e-07
8.02524e-07
-1.34874e-06
6.48932e-08
1.27692e-06
3.23769e-09
-5.32566e-05
5.2709e-05
-4.90343e-05
-3.01221e-07
4.84167e-05
8.22695e-09
-2.26227e-07
-2.26012e-07
-5.20636e-05
1.97809e-06
5.2599e-05
-2.26533e-06
-6.13528e-05
-1.71409e-06
6.05785e-05
2.26234e-06
-3.06134e-07
1.42878e-06
-1.73389e-06
-1.56967e-06
2.15586e-06
4.86871e-07
-4.15216e-05
4.27116e-05
-6.42821e-05
6.30548e-05
3.45107e-07
5.90543e-08
-5.99161e-05
-1.80693e-06
5.93393e-05
2.32473e-06
-5.30507e-05
2.37032e-06
6.45174e-08
5.34402e-05
-2.76529e-06
1.39224e-07
-1.75965e-06
2.27972e-06
2.23329e-06
1.68583e-08
-2.56142e-06
-7.2549e-07
-6.18946e-05
6.08132e-05
-4.39836e-05
4.09747e-07
4.52187e-05
-6.07089e-07
3.58126e-07
4.54577e-09
-5.35231e-05
-4.40083e-07
5.35596e-05
4.63603e-07
-5.51722e-05
-2.67002e-07
-1.36852e-08
5.50514e-05
4.06034e-07
-6.48305e-09
-6.20921e-07
6.50442e-07
-3.72448e-07
-1.35602e-08
5.15221e-07
1.47708e-08
-4.81532e-05
4.81081e-05
-5.23554e-05
-1.18131e-08
5.21149e-05
4.72009e-09
-1.24856e-08
1.37041e-12
-5.61404e-05
-5.16412e-08
5.59913e-05
1.87076e-07
-5.61398e-05
-5.17072e-08
1.36695e-08
5.59907e-05
1.87165e-07
7.63507e-12
-9.88608e-08
2.40976e-07
-9.89083e-08
1.35647e-08
2.41056e-07
1.28498e-12
-5.38042e-05
5.37408e-05
-5.38039e-05
1.17889e-08
5.37404e-05
5.95423e-12
1.24803e-08
-4.6004e-09
-5.51705e-05
-2.67133e-07
5.50498e-05
4.06185e-07
-5.3521e-05
-4.40003e-07
-6.46268e-08
5.35576e-05
4.63422e-07
6.41484e-09
-3.72574e-07
5.15378e-07
-6.20885e-07
-1.69185e-08
6.5028e-07
-1.48344e-08
-5.23537e-05
5.21132e-05
-4.81494e-05
-4.09974e-07
4.81045e-05
-4.76465e-09
-3.58324e-07
-5.88091e-08
-5.30496e-05
2.37168e-06
5.34392e-05
-2.76709e-06
-5.9919e-05
-1.80816e-06
5.9342e-05
2.32642e-06
-1.39019e-07
2.23457e-06
-2.56308e-06
-1.76072e-06
2.28118e-06
7.26238e-07
-4.39801e-05
4.52156e-05
-6.19018e-05
6.08199e-05
6.07722e-07
-8.31485e-08
-5.88403e-05
-1.81531e-06
5.83947e-05
2.34406e-06
-5.37704e-05
2.35464e-06
1.21147e-07
5.40527e-05
-2.84129e-06
-1.57735e-08
-1.80062e-06
2.31537e-06
2.36656e-06
9.82218e-08
-2.81071e-06
-9.02704e-07
-5.98262e-05
5.89136e-05
-4.63305e-05
4.70847e-07
4.73116e-05
-8.13616e-07
4.41133e-07
2.20463e-08
-5.36298e-05
-2.64839e-07
5.37194e-05
2.74284e-07
-5.49547e-05
-1.84677e-07
-9.21777e-09
5.48782e-05
2.92382e-07
1.34979e-08
-3.24081e-07
3.38617e-07
-2.08105e-07
-1.13604e-08
3.29727e-07
3.67807e-08
-4.81997e-05
4.8369e-05
-5.19424e-05
-9.16126e-09
5.18037e-05
2.54653e-08
-1.00831e-08
-3.30576e-12
-5.58629e-05
-4.77081e-08
5.57485e-05
1.52844e-07
-5.58622e-05
-4.77709e-08
9.20046e-09
5.57479e-05
1.52923e-07
-1.99499e-12
-3.83909e-08
1.55461e-07
-3.84539e-08
1.13259e-08
1.55548e-07
-2.86961e-12
-5.36923e-05
5.36354e-05
-5.36919e-05
9.1442e-09
5.3635e-05
-6.9473e-13
1.00731e-08
-2.21089e-08
-5.4953e-05
-1.848e-07
5.48766e-05
2.92517e-07
-5.36279e-05
-2.6475e-07
-1.21204e-07
5.37177e-05
2.7406e-07
-1.35421e-08
-2.08242e-07
3.29866e-07
-3.23995e-07
-9.82902e-08
3.38422e-07
-3.68721e-08
-5.19406e-05
5.18018e-05
-4.81964e-05
-4.71112e-07
4.83659e-05
-2.55427e-08
-4.4138e-07
8.3459e-08
-5.37694e-05
2.35622e-06
5.40519e-05
-2.84333e-06
-5.88428e-05
-1.81676e-06
5.83969e-05
2.34606e-06
1.60493e-08
2.36802e-06
-2.81261e-06
-1.80195e-06
2.31721e-06
9.03641e-07
-4.63278e-05
4.73093e-05
-5.98324e-05
5.89193e-05
8.14454e-07
-1.93268e-07
-5.80004e-05
-1.7839e-06
5.76399e-05
2.3376e-06
-5.42812e-05
2.21814e-06
1.4527e-07
5.44634e-05
-2.7388e-06
-1.40729e-07
-1.78627e-06
2.32133e-06
2.27068e-06
1.34479e-07
-2.77439e-06
-1.02409e-06
-5.80871e-05
5.73273e-05
-4.81398e-05
4.97154e-07
4.88367e-05
-9.59849e-07
4.8256e-07
3.87295e-08
-5.38143e-05
-2.22303e-07
5.39064e-05
2.36673e-07
-5.48179e-05
-1.72038e-07
-5.24181e-09
5.47658e-05
2.68108e-07
3.01539e-08
-2.31148e-07
2.40607e-07
-1.72915e-07
-7.36828e-09
2.70716e-07
5.71362e-08
-4.85735e-05
4.87912e-05
-5.16851e-05
-5.43927e-09
5.15756e-05
4.68954e-08
-7.45284e-09
-6.45935e-12
-5.56456e-05
-9.23186e-08
5.55482e-05
1.84503e-07
-5.5645e-05
-9.2362e-08
5.21177e-09
5.55475e-05
1.84555e-07
-4.90255e-12
-6.78392e-08
1.6341e-07
-6.78935e-08
7.34469e-09
1.63475e-07
-6.2312e-12
-5.35601e-05
5.34624e-05
-5.35597e-05
5.40973e-09
5.34619e-05
-4.4895e-12
7.42989e-09
-3.88216e-08
-5.48164e-05
-1.72118e-07
5.47643e-05
2.68212e-07
-5.38127e-05
-2.2222e-07
-1.45309e-07
5.3905e-05
2.36414e-07
-3.02287e-08
-1.73014e-07
2.70833e-07
-2.31061e-07
-1.34526e-07
2.40367e-07
-5.72491e-08
-5.16832e-05
5.15737e-05
-4.85706e-05
-4.97438e-07
4.87886e-05
-4.69972e-08
-4.82835e-07
1.93641e-07
-5.42805e-05
2.21989e-06
5.44627e-05
-2.74105e-06
-5.80024e-05
-1.78548e-06
5.76417e-05
2.33979e-06
1.41068e-07
2.27234e-06
-2.77653e-06
-1.78778e-06
2.32341e-06
1.02518e-06
-4.81379e-05
4.88352e-05
-5.80924e-05
5.73321e-05
9.60855e-07
-2.7349e-07
-5.73141e-05
-1.72777e-06
5.70101e-05
2.30528e-06
-5.45979e-05
2.06385e-06
1.52645e-07
5.46924e-05
-2.5845e-06
-2.34338e-07
-1.74087e-06
2.30101e-06
2.11899e-06
1.48973e-07
-2.63685e-06
-1.10128e-06
-5.66428e-05
5.60163e-05
-4.94033e-05
5.05258e-07
4.98606e-05
-1.05637e-06
4.96034e-07
5.48426e-08
-5.39873e-05
-2.29241e-07
5.40552e-05
2.59128e-07
-5.47175e-05
-1.70282e-07
-2.08569e-11
5.46682e-05
2.74487e-07
4.6323e-08
-2.19504e-07
2.41295e-07
-1.69465e-07
-2.70361e-09
2.66788e-07
7.34593e-08
-4.90025e-05
4.92051e-05
-5.14743e-05
-4.10812e-10
5.13779e-05
6.5173e-08
-2.99199e-09
-9.65992e-12
-5.54544e-05
-1.2945e-07
5.53593e-05
2.24565e-07
-5.54538e-05
-1.29477e-07
-2.3698e-11
5.53587e-05
2.24602e-07
-8.0701e-12
-1.11812e-07
2.02893e-07
-1.11846e-07
2.66712e-09
2.02936e-07
-1.00317e-11
-5.33476e-05
5.32177e-05
-5.33471e-05
3.66215e-10
5.32172e-05
-7.81604e-12
2.95599e-09
-5.49822e-08
-5.4716e-05
-1.70313e-07
5.46667e-05
2.74572e-07
-5.3986e-05
-2.29205e-07
-1.5267e-07
5.4054e-05
2.58852e-07
-4.6434e-08
-1.69521e-07
2.66878e-07
-2.19435e-07
-1.49004e-07
2.41027e-07
-7.35912e-08
-5.14725e-05
5.13761e-05
-4.90002e-05
-5.05629e-07
4.9203e-05
-6.52938e-08
-4.96316e-07
2.73923e-07
-5.45973e-05
2.06571e-06
5.46919e-05
-2.5869e-06
-5.73157e-05
-1.7294e-06
5.70114e-05
2.30756e-06
2.34738e-07
2.12078e-06
-2.63917e-06
-1.74247e-06
2.30324e-06
1.10247e-06
-4.94021e-05
4.98598e-05
-5.66471e-05
5.60202e-05
1.05751e-06
-3.29339e-07
-5.67298e-05
-1.66356e-06
5.64637e-05
2.25904e-06
-5.47486e-05
1.92708e-06
1.50387e-07
5.47723e-05
-2.43052e-06
-3.01089e-07
-1.68022e-06
2.26158e-06
1.97439e-06
1.50882e-07
-2.48249e-06
-1.14698e-06
-5.54525e-05
5.49359e-05
-5.02172e-05
5.05133e-07
5.04922e-05
-1.11637e-06
5.01445e-07
7.80982e-08
-5.41068e-05
-2.57803e-07
5.41374e-05
2.99503e-07
-5.46162e-05
-1.63558e-07
5.717e-09
5.45629e-05
2.8923e-07
6.27171e-08
-2.38603e-07
2.75166e-07
-1.66245e-07
2.78834e-09
2.78162e-07
8.49728e-08
-4.93888e-05
4.95511e-05
-5.12886e-05
4.94209e-09
5.1205e-05
7.91618e-08
2.26479e-09
-8.04283e-12
-5.5263e-05
-1.51937e-07
5.51625e-05
2.581e-07
-5.52624e-05
-1.51959e-07
-5.77491e-09
5.5162e-05
2.58132e-07
-1.12126e-11
-1.40787e-07
2.399e-07
-1.40812e-07
-2.84102e-09
2.39932e-07
-1.19722e-11
-5.30792e-05
5.29322e-05
-5.30787e-05
-5.05377e-09
5.29318e-05
-1.30105e-11
-2.32073e-09
-7.85854e-08
-5.46148e-05
-1.63493e-07
5.45617e-05
2.89343e-07
-5.41057e-05
-2.57877e-07
-1.504e-07
5.41362e-05
2.9922e-07
-6.2908e-08
-1.66234e-07
2.78249e-07
-2.38615e-07
-1.50901e-07
2.74887e-07
-8.55003e-08
-5.12868e-05
5.12038e-05
-4.93869e-05
-5.0558e-07
4.95491e-05
-7.92995e-08
-5.01823e-07
3.29828e-07
-5.47481e-05
1.92896e-06
5.47719e-05
-2.43296e-06
-5.6731e-05
-1.66522e-06
5.64646e-05
2.26137e-06
3.01545e-07
1.97626e-06
-2.48489e-06
-1.68185e-06
2.26387e-06
1.14824e-06
-5.02166e-05
5.04917e-05
-5.54559e-05
5.4939e-05
1.11759e-06
-3.66329e-07
-5.62134e-05
-1.60105e-06
5.59712e-05
2.20957e-06
-5.47671e-05
1.8093e-06
1.42094e-07
5.47373e-05
-2.288e-06
-3.46306e-07
-1.6157e-06
2.21228e-06
1.84828e-06
1.45359e-07
-2.33474e-06
-1.17018e-06
-5.44692e-05
5.40384e-05
-5.06941e-05
4.96745e-07
5.08364e-05
-1.14902e-06
4.9738e-07
9.67908e-08
-5.41483e-05
-2.96202e-07
5.41416e-05
3.48222e-07
-5.45061e-05
-1.56039e-07
1.07997e-08
5.44412e-05
3.06947e-07
8.85095e-08
-2.73551e-07
3.1953e-07
-1.57605e-07
8.32517e-09
2.94602e-07
8.72145e-08
-4.96872e-05
4.98005e-05
-5.11273e-05
9.08821e-09
5.10494e-05
8.77783e-08
7.91959e-09
-6.83277e-11
-5.50592e-05
-1.65847e-07
5.495e-05
2.85904e-07
-5.50586e-05
-1.65982e-07
-1.09457e-08
5.49495e-05
2.85951e-07
3.15363e-11
-1.58127e-07
2.69773e-07
-1.58083e-07
-8.32744e-09
2.69801e-07
-5.64797e-10
-5.27817e-05
5.26255e-05
-5.27811e-05
-1.0812e-08
5.26253e-05
3.0498e-10
-7.02942e-09
-9.66872e-08
-5.45049e-05
-1.56566e-07
5.44402e-05
3.07027e-07
-5.41473e-05
-2.95628e-07
-1.4216e-07
5.41404e-05
3.47947e-07
-8.88907e-08
-1.57202e-07
2.94629e-07
-2.73988e-07
-1.45299e-07
3.19291e-07
-9.14643e-08
-5.1125e-05
5.10491e-05
-4.96867e-05
-4.98553e-07
4.97981e-05
-8.54009e-08
-4.96913e-07
3.66793e-07
-5.47668e-05
1.81138e-06
5.4737e-05
-2.2905e-06
-5.62143e-05
-1.60257e-06
5.59718e-05
2.21183e-06
3.4685e-07
1.85004e-06
-2.33714e-06
-1.61739e-06
2.21459e-06
1.17103e-06
-5.06943e-05
5.08361e-05
-5.44721e-05
5.40406e-05
1.15055e-06
-3.89383e-07
-5.57389e-05
-1.54848e-06
5.5509e-05
2.16772e-06
-5.46837e-05
1.70877e-06
1.37343e-07
5.46088e-05
-2.16067e-06
-3.75631e-07
-1.55959e-06
2.16759e-06
1.74203e-06
1.38584e-07
-2.20256e-06
-1.17818e-06
-5.3643e-05
5.32727e-05
-5.09263e-05
4.85741e-07
5.09711e-05
-1.16427e-06
4.8795e-07
1.06529e-07
-5.41186e-05
-3.31404e-07
5.40789e-05
4.01923e-07
-5.43687e-05
-1.56834e-07
1.4711e-08
5.42865e-05
3.30858e-07
1.01145e-07
-3.10376e-07
3.7077e-07
-1.54243e-07
1.30105e-08
3.14869e-07
9.0451e-08
-4.98868e-05
4.99507e-05
-5.09738e-05
1.38226e-08
5.08936e-05
9.13197e-08
1.2626e-08
-1.23661e-10
-5.48365e-05
-1.7594e-07
5.47156e-05
3.11598e-07
-5.4836e-05
-1.75969e-07
-1.51213e-08
5.47153e-05
3.1162e-07
3.84067e-11
-1.69459e-07
2.95958e-07
-1.69382e-07
-1.29871e-08
2.95962e-07
-2.02936e-10
-5.24683e-05
5.23064e-05
-5.24678e-05
-1.45107e-08
5.23061e-05
3.90337e-10
-1.14586e-08
-1.06695e-07
-5.43676e-05
-1.57024e-07
5.42854e-05
3.30875e-07
-5.41178e-05
-3.31233e-07
-1.3742e-07
5.4078e-05
4.01718e-07
-1.01556e-07
-1.53763e-07
3.14865e-07
-3.10888e-07
-1.38579e-07
3.70592e-07
-9.24335e-08
-5.0972e-05
5.08929e-05
-4.98863e-05
-4.86664e-07
4.99493e-05
-8.81458e-08
-4.87217e-07
3.89923e-07
-5.46834e-05
1.71063e-06
5.46086e-05
-2.16308e-06
-5.57394e-05
-1.55004e-06
5.55094e-05
2.16997e-06
3.76216e-07
1.74369e-06
-2.20493e-06
-1.56124e-06
2.16987e-06
1.17935e-06
-5.09267e-05
5.09713e-05
-5.36452e-05
5.32746e-05
1.1659e-06
-4.02885e-07
-5.52842e-05
-1.50664e-06
5.50576e-05
2.13615e-06
-5.45156e-05
1.62026e-06
1.3144e-07
5.4404e-05
-2.04302e-06
-3.93142e-07
-1.51222e-06
2.13016e-06
1.64763e-06
1.33228e-07
-2.08079e-06
-1.17606e-06
-5.29269e-05
5.25963e-05
-5.09773e-05
4.7256e-07
5.09489e-05
-1.16642e-06
4.75061e-07
1.12106e-07
-5.40227e-05
-3.65012e-07
5.39491e-05
4.57924e-07
-5.41953e-05
-1.65342e-07
1.66931e-08
5.40929e-05
3.63104e-07
1.08758e-07
-3.4451e-07
4.25233e-07
-1.58759e-07
1.63774e-08
3.42368e-07
9.11245e-08
-4.99895e-05
5.00059e-05
-5.08106e-05
1.64096e-08
5.072e-05
9.17035e-08
1.59814e-08
-1.97901e-10
-5.45892e-05
-1.86041e-07
5.44535e-05
3.38606e-07
-5.45886e-05
-1.86104e-07
-1.72828e-08
5.44532e-05
3.38629e-07
2.95009e-10
-1.79043e-07
3.21582e-07
-1.7911e-07
-1.53932e-08
3.21478e-07
-3.55348e-10
-5.21432e-05
5.19739e-05
-5.21428e-05
-1.77087e-08
5.1974e-05
1.09723e-10
-1.56603e-08
-1.1232e-07
-5.41946e-05
-1.65519e-07
5.4092e-05
3.63092e-07
-5.4022e-05
-3.64817e-07
-1.31539e-07
5.39483e-05
4.57733e-07
-1.08744e-07
-1.58398e-07
3.42543e-07
-3.44683e-07
-1.33154e-07
4.25103e-07
-9.33979e-08
-5.08093e-05
5.07195e-05
-4.99892e-05
-4.73575e-07
5.00045e-05
-9.04645e-08
-4.75002e-07
4.0343e-07
-5.45154e-05
1.62206e-06
5.44038e-05
-2.04538e-06
-5.52845e-05
-1.50814e-06
5.50578e-05
2.13834e-06
3.93748e-07
1.64935e-06
-2.08313e-06
-1.51377e-06
2.13238e-06
1.1772e-06
-5.09778e-05
5.09491e-05
-5.29286e-05
5.25977e-05
1.16785e-06
-4.09824e-07
-5.48318e-05
-1.47515e-06
5.46008e-05
2.11603e-06
-5.42764e-05
1.54094e-06
1.25224e-07
5.41321e-05
-1.93163e-06
-4.031e-07
-1.47644e-06
2.10529e-06
1.56607e-06
1.27161e-07
-1.9687e-06
-1.16729e-06
-5.22808e-05
5.1973e-05
-5.08918e-05
4.58652e-07
5.08068e-05
-1.16093e-06
4.62198e-07
1.14956e-07
-5.38594e-05
-3.97407e-07
5.3752e-05
5.15093e-07
-5.39801e-05
-1.80753e-07
1.85469e-08
5.3854e-05
4.03273e-07
1.1262e-07
-3.77251e-07
4.81434e-07
-1.70831e-07
1.76515e-08
3.78621e-07
8.99386e-08
-4.99979e-05
4.99692e-05
-5.06234e-05
1.68878e-08
5.05157e-05
9.30146e-08
1.87482e-08
-7.56448e-11
-5.43109e-05
-1.98092e-07
5.41575e-05
3.70085e-07
-5.43105e-05
-1.9836e-07
-1.85132e-08
5.41572e-05
3.70064e-07
3.55154e-11
-1.90058e-07
3.50271e-07
-1.89843e-07
-1.76448e-08
3.50216e-07
-8.51524e-10
-5.1802e-05
5.16217e-05
-5.18013e-05
-2.00948e-08
5.16221e-05
6.08839e-10
-1.64564e-08
-1.14948e-07
-5.39793e-05
-1.80905e-07
5.38533e-05
4.0333e-07
-5.38589e-05
-3.96945e-07
-1.25317e-07
5.37513e-05
5.14912e-07
-1.12972e-07
-1.70582e-07
3.78652e-07
-3.77766e-07
-1.27138e-07
4.81318e-07
-9.42602e-08
-5.06222e-05
5.05155e-05
-4.99984e-05
-4.60309e-07
4.99675e-05
-8.97828e-08
-4.61455e-07
4.10359e-07
-5.42763e-05
1.54279e-06
5.41318e-05
-1.93396e-06
-5.4832e-05
-1.47656e-06
5.46008e-05
2.11815e-06
4.03718e-07
1.56761e-06
-1.97097e-06
-1.47799e-06
2.10746e-06
1.16823e-06
-5.08927e-05
5.08069e-05
-5.22823e-05
5.19739e-05
1.16256e-06
-4.12267e-07
-5.43673e-05
-1.45249e-06
5.41253e-05
2.10679e-06
-5.39732e-05
1.4676e-06
1.192e-07
5.37978e-05
-1.82368e-06
-4.07365e-07
-1.44919e-06
2.09002e-06
1.48999e-06
1.21023e-07
-1.85951e-06
-1.15387e-06
-5.1673e-05
5.13743e-05
-5.06987e-05
4.45267e-07
5.05672e-05
-1.14917e-06
4.48917e-07
1.15735e-07
-5.3629e-05
-4.29702e-07
5.3488e-05
5.74088e-07
-5.37164e-05
-2.01483e-07
1.96831e-08
5.35639e-05
4.50076e-07
1.14191e-07
-4.08803e-07
5.3869e-07
-1.88847e-07
1.88579e-08
4.21712e-07
8.86736e-08
-4.99162e-05
4.9843e-05
-5.03992e-05
1.76935e-08
5.02687e-05
9.31228e-08
2.07563e-08
-8.44113e-11
-5.39957e-05
-2.13665e-07
5.38211e-05
4.08001e-07
-5.39953e-05
-2.14001e-07
-1.95933e-08
5.38209e-05
4.07973e-07
3.02203e-11
-2.03745e-07
3.8441e-07
-2.03397e-07
-1.90366e-08
3.84353e-07
-1.06938e-09
-5.14378e-05
5.12429e-05
-5.14368e-05
-2.17999e-08
5.12436e-05
9.23153e-10
-1.7157e-08
-1.15706e-07
-5.37157e-05
-2.01604e-07
5.35633e-05
4.50135e-07
-5.36286e-05
-4.2918e-07
-1.19299e-07
5.34874e-05
5.73928e-07
-1.146e-07
-1.88617e-07
4.21736e-07
-4.09478e-07
-1.20976e-07
5.38604e-07
-9.37592e-08
-5.03982e-05
5.02686e-05
-4.99173e-05
-4.47119e-07
4.98414e-05
-8.85562e-08
-4.47768e-07
4.12797e-07
-5.39731e-05
1.46944e-06
5.37975e-05
-1.82597e-06
-5.43674e-05
-1.45385e-06
5.41252e-05
2.10885e-06
4.08001e-07
1.49144e-06
-1.86172e-06
-1.4507e-06
2.09213e-06
1.15474e-06
-5.06997e-05
5.05673e-05
-5.16741e-05
5.1375e-05
1.15089e-06
-4.118e-07
-5.3878e-05
-1.4379e-06
5.36194e-05
2.10838e-06
-5.36085e-05
1.39889e-06
1.13668e-07
5.34023e-05
-1.71811e-06
-4.08115e-07
-1.43054e-06
2.0859e-06
1.41965e-06
1.15272e-07
-1.75376e-06
-1.13788e-06
-5.1078e-05
5.0778e-05
-5.04166e-05
4.32585e-07
5.02451e-05
-1.13421e-06
4.36006e-07
1.15181e-07
-5.33312e-05
-4.61639e-07
5.31557e-05
6.35599e-07
-5.33988e-05
-2.26353e-07
2.04245e-08
5.32171e-05
5.02862e-07
1.14211e-07
-4.40308e-07
5.98191e-07
-2.11417e-07
1.97453e-08
4.70956e-07
8.71624e-08
-4.97466e-05
4.96303e-05
-5.01273e-05
1.84081e-08
4.99697e-05
9.21784e-08
2.21604e-08
-9.49569e-11
-5.36366e-05
-2.33019e-07
5.34374e-05
4.52802e-07
-5.36363e-05
-2.33383e-07
-2.03289e-08
5.34371e-05
4.5277e-07
2.9685e-11
-2.21037e-07
4.25263e-07
-2.20634e-07
-1.99522e-08
4.25195e-07
-1.17915e-09
-5.10429e-05
5.08295e-05
-5.10419e-05
-2.29766e-08
5.08303e-05
1.06139e-09
-1.79405e-08
-1.15156e-07
-5.33982e-05
-2.26446e-07
5.32166e-05
5.02924e-07
-5.33309e-05
-4.61113e-07
-1.13769e-07
5.31552e-05
6.35456e-07
-1.14615e-07
-2.11233e-07
4.70987e-07
-4.41036e-07
-1.15213e-07
5.98135e-07
-9.25086e-08
-5.01266e-05
4.99697e-05
-4.9748e-05
-4.34486e-07
4.96288e-05
-8.71674e-08
-4.34739e-07
4.12324e-07
-5.36084e-05
1.40069e-06
5.3402e-05
-1.72035e-06
-5.3878e-05
-1.43921e-06
5.36191e-05
2.11037e-06
4.08752e-07
1.42106e-06
-1.75594e-06
-1.43201e-06
2.08794e-06
1.13872e-06
-5.04177e-05
5.02452e-05
-5.10789e-05
5.07784e-05
1.13594e-06
-4.08874e-07
-5.33532e-05
-1.42841e-06
5.30731e-05
2.11736e-06
-5.31822e-05
1.33057e-06
1.08583e-07
5.29444e-05
-1.61016e-06
-4.06343e-07
-1.41871e-06
2.09121e-06
1.352e-06
1.10008e-07
-1.64829e-06
-1.1189e-06
-5.04761e-05
5.01666e-05
-5.00566e-05
4.20379e-07
4.98479e-05
-1.11683e-06
4.23588e-07
1.13599e-07
-5.29644e-05
-4.93129e-07
5.27536e-05
6.98888e-07
-5.30218e-05
-2.54647e-07
2.08064e-08
5.28085e-05
5.60821e-07
1.13127e-07
-4.71738e-07
6.59962e-07
-2.37751e-07
2.02979e-08
5.2581e-07
8.59173e-08
-4.94917e-05
4.9333e-05
-4.97995e-05
1.92251e-08
4.96116e-05
9.05342e-08
2.29549e-08
-8.25242e-11
-5.32268e-05
-2.55907e-07
5.29996e-05
5.04015e-07
-5.32265e-05
-2.56164e-07
-2.07664e-08
5.29994e-05
5.03976e-07
2.5393e-11
-2.41967e-07
4.72806e-07
-2.41546e-07
-2.05184e-08
4.72733e-07
-8.96416e-10
-5.06094e-05
5.03736e-05
-5.06085e-05
-2.27184e-08
5.03742e-05
1.08885e-09
-1.86375e-08
-1.13631e-07
-5.30213e-05
-2.5472e-07
5.2808e-05
5.60886e-07
-5.29641e-05
-4.92773e-07
-1.08661e-07
5.27532e-05
6.98768e-07
-1.13518e-07
-2.37622e-07
5.25853e-07
-4.72463e-07
-1.09947e-07
6.59921e-07
-9.0025e-08
-4.97991e-05
4.96116e-05
-4.94931e-05
-4.21871e-07
4.93321e-05
-8.56474e-08
-4.22343e-07
4.09406e-07
-5.31821e-05
1.33228e-06
5.29441e-05
-1.61234e-06
-5.3353e-05
-1.4297e-06
5.30729e-05
2.1193e-06
4.06975e-07
1.35338e-06
-1.65042e-06
-1.42013e-06
2.0932e-06
1.11983e-06
-5.00577e-05
4.98482e-05
-5.04768e-05
5.0167e-05
1.11853e-06
-4.04646e-07
-5.27835e-05
-1.42513e-06
5.24775e-05
2.13573e-06
-5.26922e-05
1.26319e-06
1.04085e-07
5.24209e-05
-1.50062e-06
-4.02845e-07
-1.41276e-06
2.10523e-06
1.28505e-06
1.05258e-07
-1.54099e-06
-1.09902e-06
-4.98518e-05
4.95257e-05
-4.96236e-05
4.09111e-07
4.93787e-05
-1.09794e-06
4.11439e-07
1.11454e-07
-5.25268e-05
-5.25063e-07
5.22793e-05
7.6514e-07
-5.25806e-05
-2.86197e-07
2.09261e-08
5.2333e-05
6.24352e-07
1.11362e-07
-5.03458e-07
7.24194e-07
-2.67465e-07
2.06226e-08
5.86084e-07
8.49926e-08
-4.91535e-05
4.89525e-05
-4.94097e-05
2.0125e-08
4.91884e-05
8.75062e-08
2.19046e-08
-5.08196e-11
-5.27596e-05
-2.82668e-07
5.2501e-05
5.62199e-07
-5.27593e-05
-2.82752e-07
-2.09561e-08
5.25008e-05
5.62158e-07
3.28484e-12
-2.66416e-07
5.27051e-07
-2.66183e-07
-2.07459e-08
5.26989e-07
-3.88508e-10
-5.01286e-05
4.98664e-05
-5.01281e-05
-2.16522e-08
4.98667e-05
5.40029e-10
-1.9609e-08
-1.1157e-07
-5.25802e-05
-2.86233e-07
5.23326e-05
6.24417e-07
-5.25265e-05
-5.24978e-07
-1.04123e-07
5.2279e-05
7.65046e-07
-1.11645e-07
-2.67369e-07
5.86137e-07
-5.03894e-07
-1.0523e-07
7.24135e-07
-8.69066e-08
-4.94095e-05
4.91885e-05
-4.91543e-05
-4.09912e-07
4.89524e-05
-8.48096e-08
-4.10894e-07
4.05195e-07
-5.2692e-05
1.26477e-06
5.24207e-05
-1.50274e-06
-5.27833e-05
-1.42641e-06
5.24772e-05
2.13762e-06
4.03439e-07
1.28648e-06
-1.54309e-06
-1.4141e-06
2.10715e-06
1.10012e-06
-4.96244e-05
4.93792e-05
-4.98523e-05
4.9526e-05
1.0994e-06
-3.99419e-07
-5.21603e-05
-1.4268e-06
5.18244e-05
2.16206e-06
-5.21348e-05
1.19592e-06
1.00083e-07
5.18284e-05
-1.38896e-06
-3.98141e-07
-1.41202e-06
2.12743e-06
1.21834e-06
1.0103e-07
-1.43146e-06
-1.07835e-06
-4.91916e-05
4.88432e-05
-4.9119e-05
3.98262e-07
4.88384e-05
-1.07797e-06
3.99988e-07
1.0895e-07
-5.20155e-05
-5.57754e-07
5.17299e-05
8.34573e-07
-5.20699e-05
-3.20574e-07
2.08598e-08
5.17854e-05
6.93113e-07
1.09107e-07
-5.35626e-07
7.91345e-07
-3.00104e-07
2.06911e-08
6.516e-07
8.34798e-08
-4.87323e-05
4.84893e-05
-4.89518e-05
2.04782e-08
4.86943e-05
8.46061e-08
2.10555e-08
-3.35834e-11
-5.22283e-05
-3.13121e-07
5.19352e-05
6.27105e-07
-5.22281e-05
-3.13124e-07
-2.0915e-08
5.19351e-05
6.27065e-07
-1.26377e-11
-2.94644e-07
5.88016e-07
-2.94539e-07
-2.07674e-08
5.87968e-07
-1.5316e-10
-4.95926e-05
4.93002e-05
-4.95925e-05
-2.10431e-08
4.93003e-05
1.69143e-10
-2.02511e-08
-1.09102e-07
-5.20695e-05
-3.20584e-07
5.17851e-05
6.9318e-07
-5.20153e-05
-5.57799e-07
-1.00101e-07
5.17296e-05
8.34493e-07
-1.09319e-07
-3.0005e-07
6.5166e-07
-5.3586e-07
-1.01024e-07
7.91276e-07
-8.425e-08
-4.89518e-05
4.86944e-05
-4.87328e-05
-3.98717e-07
4.84895e-05
-8.36132e-08
-3.99946e-07
3.99969e-07
-5.21347e-05
1.19742e-06
5.18282e-05
-1.39101e-06
-5.216e-05
-1.42805e-06
5.18241e-05
2.1639e-06
3.98707e-07
1.21979e-06
-1.43351e-06
-1.4133e-06
2.12929e-06
1.07951e-06
-4.91198e-05
4.88389e-05
-4.91919e-05
4.88434e-05
1.07927e-06
-3.93507e-07
-5.14756e-05
-1.43302e-06
5.11062e-05
2.19597e-06
-5.15065e-05
1.12786e-06
9.65387e-08
5.11628e-05
-1.27414e-06
-3.92609e-07
-1.41597e-06
2.15734e-06
1.15142e-06
9.72913e-08
-1.31948e-06
-1.05718e-06
-4.84845e-05
4.81087e-05
-4.85432e-05
3.87836e-07
4.82261e-05
-1.0573e-06
3.89259e-07
1.06224e-07
-5.14274e-05
-5.91644e-07
5.11016e-05
9.07709e-07
-5.14846e-05
-3.576e-07
2.06428e-08
5.11608e-05
7.67003e-07
1.0653e-07
-5.68653e-07
8.61917e-07
-3.3547e-07
2.05602e-08
7.2226e-07
8.15231e-08
-4.82278e-05
4.79424e-05
-4.84204e-05
2.03706e-08
4.81239e-05
8.21661e-08
2.05868e-08
-2.70269e-11
-5.16268e-05
-3.47079e-07
5.12961e-05
6.98493e-07
-5.16266e-05
-3.47059e-07
-2.07021e-08
5.12959e-05
6.98457e-07
-1.68184e-11
-3.26527e-07
6.55543e-07
-3.26466e-07
-2.06238e-08
6.55503e-07
-8.89478e-11
-4.89942e-05
4.86676e-05
-4.89942e-05
-2.06516e-08
4.86677e-05
3.8374e-11
-2.03321e-08
-1.06383e-07
-5.14843e-05
-3.57603e-07
5.11605e-05
7.67071e-07
-5.14271e-05
-5.91726e-07
-9.65493e-08
5.11014e-05
9.07633e-07
-1.06714e-07
-3.3544e-07
7.22325e-07
-5.68811e-07
-9.72928e-08
8.61846e-07
-8.19333e-08
-4.84205e-05
4.81242e-05
-4.82283e-05
-3.88181e-07
4.79428e-05
-8.18438e-08
-3.89402e-07
3.94049e-07
-5.15064e-05
1.12931e-06
5.11626e-05
-1.27614e-06
-5.14753e-05
-1.43425e-06
5.11058e-05
2.19776e-06
3.93158e-07
1.15285e-06
-1.32149e-06
-1.41721e-06
2.15914e-06
1.05834e-06
-4.85439e-05
4.82267e-05
-4.84847e-05
4.81088e-05
1.05851e-06
-3.87033e-07
-5.07226e-05
-1.44304e-06
5.03162e-05
2.23644e-06
-5.08031e-05
1.05792e-06
9.33838e-08
5.04201e-05
-1.15527e-06
-3.86353e-07
-1.42362e-06
2.19361e-06
1.08283e-06
9.39533e-08
-1.2035e-06
-1.03549e-06
-4.77208e-05
4.73133e-05
-4.78941e-05
3.77765e-07
4.75388e-05
-1.03579e-06
3.78967e-07
1.03345e-07
-5.07586e-05
-6.26828e-07
5.0391e-05
9.84504e-07
-5.08199e-05
-3.96996e-07
2.03007e-08
5.04543e-05
8.45632e-07
1.03723e-07
-6.02717e-07
9.35907e-07
-3.73241e-07
2.02763e-08
7.97598e-07
7.93589e-08
-4.76387e-05
4.73103e-05
-4.78104e-05
2.0018e-08
4.74727e-05
7.99222e-08
2.02063e-08
-2.61058e-11
-5.0949e-05
-3.84224e-07
5.05777e-05
7.75839e-07
-5.09488e-05
-3.84204e-07
-2.03596e-08
5.05776e-05
7.75806e-07
-1.82995e-11
-3.61666e-07
7.29044e-07
-3.61616e-07
-2.0337e-08
7.29008e-07
-7.96349e-11
-4.83261e-05
4.7962e-05
-4.83262e-05
-2.02673e-08
4.79622e-05
9.76171e-12
-2.00772e-08
-1.035e-07
-5.08197e-05
-3.97003e-07
5.04541e-05
8.45702e-07
-5.07585e-05
-6.26912e-07
-9.33926e-08
5.03909e-05
9.84433e-07
-1.03897e-07
-3.73221e-07
7.97666e-07
-6.02856e-07
-9.39553e-08
9.35838e-07
-7.9737e-08
-4.78106e-05
4.74731e-05
-4.76393e-05
-3.78092e-07
4.73108e-05
-7.97555e-08
-3.79145e-07
3.87563e-07
-5.0803e-05
1.05934e-06
5.04199e-05
-1.15722e-06
-5.07222e-05
-1.44424e-06
5.03158e-05
2.23818e-06
3.86889e-07
1.08424e-06
-1.20545e-06
-1.42482e-06
2.19536e-06
1.03662e-06
-4.78948e-05
4.75394e-05
-4.77209e-05
4.73133e-05
1.03697e-06
-3.80236e-07
-4.98942e-05
-1.45692e-06
4.94475e-05
2.28388e-06
-5.00201e-05
9.85481e-07
9.05826e-08
4.95945e-05
-1.03071e-06
-3.79858e-07
-1.43581e-06
2.23765e-06
1.01263e-06
9.1036e-08
-1.08354e-06
-1.01369e-06
-4.68919e-05
4.64487e-05
-4.71676e-05
3.68112e-07
4.67713e-05
-1.01447e-06
3.69315e-07
1.00404e-07
-5.00054e-05
-6.6352e-07
4.95937e-05
1.06546e-06
-5.00707e-05
-4.38636e-07
1.98686e-08
4.96609e-05
9.28966e-07
1.00857e-07
-6.38443e-07
1.0142e-06
-4.13479e-07
1.98945e-08
8.77999e-07
7.70782e-08
-4.69634e-05
4.65909e-05
-4.71173e-05
1.95018e-08
4.67362e-05
7.78259e-08
1.98259e-08
-2.8568e-11
-5.0189e-05
-4.24384e-07
4.97744e-05
8.58908e-07
-5.01889e-05
-4.24378e-07
-1.9926e-08
4.97743e-05
8.58877e-07
-1.76238e-11
-4.00063e-07
8.08685e-07
-4.00013e-07
-1.99536e-08
8.08651e-07
-1.04249e-10
-4.75817e-05
4.71769e-05
-4.75818e-05
-1.98749e-08
4.71772e-05
1.9919e-11
-1.96493e-08
-1.00548e-07
-5.00706e-05
-4.38656e-07
4.96608e-05
9.29039e-07
-5.00053e-05
-6.63584e-07
-9.05929e-08
4.95936e-05
1.06539e-06
-1.01028e-07
-4.13459e-07
8.78068e-07
-6.38589e-07
-9.10362e-08
1.01413e-06
-7.76586e-08
-4.71176e-05
4.67367e-05
-4.69641e-05
-3.68485e-07
4.65913e-05
-7.7574e-08
-3.69465e-07
3.80754e-07
-5.002e-05
9.86883e-07
4.95944e-05
-1.03264e-06
-4.98938e-05
-1.45808e-06
4.94471e-05
2.28558e-06
3.80383e-07
1.01401e-06
-1.08546e-06
-1.43698e-06
2.23935e-06
1.01478e-06
-4.71683e-05
4.6772e-05
-4.6892e-05
4.64487e-05
1.01563e-06
-3.73203e-07
-4.8984e-05
-1.47405e-06
4.84941e-05
2.33719e-06
-4.91509e-05
9.10596e-07
8.80947e-08
4.86802e-05
-9.01225e-07
-3.72975e-07
-1.45107e-06
2.28754e-06
9.39607e-07
8.84173e-08
-9.57386e-07
-9.91824e-07
-4.59904e-05
4.55082e-05
-4.63581e-05
3.58783e-07
4.59181e-05
-9.9278e-07
3.60012e-07
9.74266e-08
-4.91634e-05
-7.01735e-07
4.87056e-05
1.15019e-06
-4.92325e-05
-4.82339e-07
1.93691e-08
4.87764e-05
1.01653e-06
9.7909e-08
-6.75454e-07
1.09624e-06
-4.55756e-07
1.94293e-08
9.62629e-07
7.46048e-08
-4.61996e-05
4.5782e-05
-4.63369e-05
1.88021e-08
4.59103e-05