/*--------------------------------*- C++ -*----------------------------------*\
  =========                 |
  \\      /  F ield         | OpenFOAM: The Open Source CFD Toolbox
   \\    /   O peration     | Website:  https://openfoam.org
    \\  /    A nd           | Version:  9
     \\/     M anipulation  |
\*---------------------------------------------------------------------------*/
FoamFile
{
    format      ascii;
    class       volVectorField;
    location    "2";
    object      U;
}
// * * * * * * * * * * * * * * * * * * * * * * * * * * * * * * * * * * * * * //

dimensions      [0 1 -1 0 0 0 0];

internalField   nonuniform List<vector> 
36360
(
(0.00162621 -0.122308 -0.498779)
(-0.000321044 -0.0912069 0.000149174)
(0.00109021 -0.125385 -0.501037)
(-0.00172302 -0.0828736 7.1288e-05)
(0.000329742 -0.128236 -0.501147)
(0.0087863 -0.0826261 1.11638e-05)
(0.00230436 -0.131047 -0.502045)
(0.0100039 -0.0900643 1.49834e-05)
(0.00035453 -0.0999266 -9.02364e-05)
(-0.00239304 -0.104452 -5.18332e-06)
(-0.0020813 -0.0978819 -4.837e-05)
(-0.00315624 -0.102477 -2.29805e-06)
(0.00614619 -0.105575 -9.91207e-07)
(0.00444164 -0.106751 -5.69687e-06)
(0.00738146 -0.109988 -1.70436e-05)
(0.00657418 -0.109197 -4.17803e-06)
(-0.00267232 -0.105735 -2.67442e-08)
(-0.00267233 -0.105735 2.5868e-08)
(-0.00299826 -0.103736 -4.74289e-09)
(-0.00299816 -0.103735 4.40049e-09)
(0.00460576 -0.105315 -1.81142e-06)
(0.00460582 -0.105314 1.80996e-06)
(0.00656065 -0.107892 -3.95592e-07)
(0.0065606 -0.107891 3.9489e-07)
(-0.00239341 -0.104449 5.18185e-06)
(0.000355088 -0.0999212 9.02342e-05)
(-0.00315631 -0.102475 2.29862e-06)
(-0.00208104 -0.0978766 4.83705e-05)
(0.00444168 -0.106748 5.69375e-06)
(0.00614675 -0.105568 9.70842e-07)
(0.00657416 -0.109194 4.17734e-06)
(0.00738161 -0.109981 1.70391e-05)
(-0.000321581 -0.0912028 -0.000149214)
(0.00162639 -0.122315 0.498778)
(-0.0017228 -0.0828678 -7.13158e-05)
(0.00109102 -0.125392 0.501036)
(0.00878699 -0.0826144 -1.11334e-05)
(0.000330767 -0.128254 0.501147)
(0.0100046 -0.090054 -1.49715e-05)
(0.00230643 -0.131066 0.502045)
(0.00413797 -0.119036 -0.497013)
(-0.00313093 -0.0970279 0.000162636)
(0.00324492 -0.120913 -0.497944)
(-0.00137673 -0.094526 0.000166441)
(0.00102362 -0.125354 -0.501116)
(0.0010532 -0.0770287 -4.30321e-05)
(0.000469617 -0.127185 -0.501329)
(0.00468305 -0.077132 -1.1186e-05)
(0.00198186 -0.101594 -7.33816e-05)
(0.000629056 -0.105396 -1.17505e-05)
(0.00199711 -0.100954 -8.67731e-05)
(-0.000363332 -0.105251 -8.00267e-06)
(0.00446841 -0.0966248 7.54222e-05)
(0.00244916 -0.103555 -9.6551e-06)
(0.0058326 -0.10025 3.2676e-05)
(0.0031969 -0.104931 -7.8286e-06)
(-0.000767952 -0.107368 -2.52137e-06)
(-0.00076831 -0.107368 2.52394e-06)
(-0.00175817 -0.107038 -1.13275e-06)
(-0.00175852 -0.107038 1.1324e-06)
(0.00184871 -0.103456 -3.74099e-06)
(0.00184867 -0.103455 3.7433e-06)
(0.00326647 -0.103776 -3.09434e-06)
(0.00326657 -0.103775 3.09368e-06)
(0.000629121 -0.105393 1.17394e-05)
(0.00198201 -0.101589 7.33529e-05)
(-0.000363582 -0.105248 7.99696e-06)
(0.00199752 -0.100949 8.6761e-05)
(0.00244915 -0.103553 9.64517e-06)
(0.00446897 -0.0966167 -7.54947e-05)
(0.00319691 -0.104928 7.82208e-06)
(0.00583344 -0.100243 -3.27211e-05)
(-0.00313299 -0.0970249 -0.000162626)
(0.0041389 -0.119043 0.497011)
(-0.00137825 -0.0945228 -0.000166458)
(0.00324555 -0.12092 0.497942)
(0.0010518 -0.0770187 4.31423e-05)
(0.00102502 -0.12537 0.501115)
(0.00468261 -0.0771212 1.12513e-05)
(0.000470779 -0.127202 0.501329)
(0.00481901 -0.115718 -0.495791)
(-0.00529295 -0.0995246 0.000124478)
(0.00459362 -0.117249 -0.4963)
(-0.00442248 -0.0984575 0.000147302)
(0.00186515 -0.120803 -0.500865)
(-0.00213363 -0.0800658 -0.000124201)
(0.00153958 -0.123072 -0.500966)
(-0.00101631 -0.0780737 -8.20805e-05)
(0.00102419 -0.101733 -2.15799e-05)
(0.000749046 -0.105206 -1.33838e-05)
(0.00152407 -0.101751 -4.977e-05)
(0.000841539 -0.105358 -1.39788e-05)
(0.00214019 -0.0924161 0.000171124)
(0.00114668 -0.100555 -7.38815e-06)
(0.00306108 -0.093971 0.000123621)
(0.00177911 -0.101847 -9.53657e-06)
(0.000114469 -0.107106 -5.39595e-06)
(0.000114418 -0.107105 5.43424e-06)
(-0.000101393 -0.107338 -3.95482e-06)
(-0.000101443 -0.107337 3.96212e-06)
(0.000481568 -0.102604 -5.39118e-06)
(0.000481451 -0.102604 5.41469e-06)
(0.000894857 -0.103042 -4.49363e-06)
(0.000894651 -0.103042 4.50289e-06)
(0.000749293 -0.105202 1.34487e-05)
(0.00102412 -0.101728 2.15398e-05)
(0.000841731 -0.105355 1.39738e-05)
(0.00152389 -0.101747 4.97365e-05)
(0.00114694 -0.100552 7.38682e-06)
(0.00214038 -0.0924083 -0.000171249)
(0.00177925 -0.101845 9.52735e-06)
(0.00306137 -0.0939629 -0.000123719)
(-0.00529538 -0.0995221 -0.000124438)
(0.00482065 -0.115724 0.495788)
(-0.00442483 -0.0984548 -0.000147269)
(0.00459486 -0.117255 0.496297)
(-0.00213563 -0.0800579 0.000124411)
(0.00186706 -0.120818 0.500864)
(-0.00101806 -0.0780648 8.22404e-05)
(0.00154119 -0.123088 0.500966)
(0.00503238 -0.11324 -0.495062)
(-0.00610261 -0.101202 6.77197e-05)
(0.00494859 -0.114392 -0.49536)
(-0.00582296 -0.100422 9.71732e-05)
(0.00216664 -0.116505 -0.500726)
(-0.00295605 -0.0847952 -0.000207772)
(0.00205791 -0.118594 -0.500783)
(-0.00270934 -0.0824185 -0.000166642)
(0.000365324 -0.101723 3.39107e-05)
(0.000434326 -0.104699 -3.87804e-06)
(0.000629019 -0.101694 7.0713e-06)
(0.000570571 -0.104944 -9.82923e-06)
(0.00121667 -0.0914048 0.000253787)
(0.000499634 -0.0991945 2.68774e-06)
(0.00157133 -0.0916556 0.000214967)
(0.000730526 -0.0997224 -3.20178e-06)
(9.76984e-05 -0.106513 -6.72499e-06)
(9.78163e-05 -0.106511 6.72476e-06)
(0.000125521 -0.106804 -6.36518e-06)
(0.00012562 -0.106803 6.38036e-06)
(9.59578e-05 -0.102148 -6.52589e-06)
(9.60772e-05 -0.102147 6.52669e-06)
(0.000238807 -0.102302 -6.14648e-06)
(0.000238882 -0.102302 6.15889e-06)
(0.000434541 -0.104696 3.84404e-06)
(0.000365106 -0.10172 -3.39827e-05)
(0.000570782 -0.10494 9.82224e-06)
(0.000628808 -0.10169 -7.12467e-06)
(0.000499892 -0.0991912 -2.72655e-06)
(0.00121668 -0.0913977 -0.000253985)
(0.000730772 -0.0997193 3.18124e-06)
(0.00157147 -0.0916481 -0.000215129)
(-0.00610536 -0.1012 -6.7605e-05)
(0.00503474 -0.113246 0.495058)
(-0.00582556 -0.100419 -9.70832e-05)
(0.0049506 -0.114398 0.495357)
(-0.00295852 -0.0847891 0.000208079)
(0.00216915 -0.116518 0.500725)
(-0.00271161 -0.0824115 0.000166903)
(0.00206012 -0.118608 0.500782)
(0.00514237 -0.111345 -0.494609)
(-0.00622253 -0.102456 8.73363e-06)
(0.00509698 -0.112233 -0.494786)
(-0.00621657 -0.101878 3.78449e-05)
(0.00224938 -0.112776 -0.50064)
(-0.00300086 -0.0889959 -0.000282487)
(0.00222758 -0.114564 -0.500674)
(-0.00302841 -0.0870131 -0.000246579)
(0.000132247 -0.101983 7.90007e-05)
(0.000319013 -0.104334 1.14572e-05)
(0.000209964 -0.101828 5.7997e-05)
(0.00035504 -0.104495 3.46002e-06)
(0.000865444 -0.0917422 0.000315021)
(0.000335605 -0.0985475 1.75716e-05)
(0.000996331 -0.0914822 0.000287086)
(0.000386099 -0.0988296 9.78807e-06)
(0.000121221 -0.106024 -5.86776e-06)
(0.000121335 -0.106023 5.85068e-06)
(9.44014e-05 -0.106252 -6.54462e-06)
(9.45227e-05 -0.10625 6.53487e-06)
(5.37788e-05 -0.101962 -5.82918e-06)
(5.38912e-05 -0.101961 5.81305e-06)
(5.12909e-05 -0.102054 -6.41417e-06)
(5.14005e-05 -0.102053 6.40523e-06)
(0.000319227 -0.104331 -1.15218e-05)
(0.000132049 -0.10198 -7.9094e-05)
(0.000355258 -0.104492 -3.51096e-06)
(0.000209757 -0.101824 -5.80817e-05)
(0.000335843 -0.098544 -1.76406e-05)
(0.000865401 -0.091736 -0.000315279)
(0.00038638 -0.0988262 -9.84368e-06)
(0.000996308 -0.0914756 -0.000287316)
(-0.00622567 -0.102454 -8.57628e-06)
(0.00514528 -0.11135 0.494603)
(-0.00621951 -0.101876 -3.77089e-05)
(0.00509965 -0.112237 0.494781)
(-0.00300394 -0.0889912 0.000282883)
(0.00225234 -0.112787 0.500639)
(-0.0030312 -0.0870076 0.000246932)
(0.00223034 -0.114576 0.500673)
(0.00519361 -0.109843 -0.494319)
(-0.00608295 -0.103326 -4.45867e-05)
(0.00517661 -0.110555 -0.494422)
(-0.00616988 -0.102939 -1.88826e-05)
(0.00222771 -0.109633 -0.500583)
(-0.0028279 -0.0921546 -0.00034464)
(0.00224974 -0.111134 -0.500605)
(-0.00292915 -0.0907105 -0.00031518)
(0.000101675 -0.102342 0.000111739)
(0.000314967 -0.104104 2.76245e-05)
(0.000102319 -0.102162 9.68387e-05)
(0.000309726 -0.104208 1.96263e-05)
(0.000760586 -0.0925087 0.000356604)
(0.000300868 -0.0980977 3.35366e-05)
(0.00079258 -0.0921049 0.000337991)
(0.000312267 -0.0983109 2.55969e-05)
(0.000213315 -0.105632 -3.40559e-06)
(0.000213393 -0.105631 3.3768e-06)
(0.00016489 -0.105821 -4.78629e-06)
(0.000164987 -0.105819 4.76304e-06)
(0.000115179 -0.101676 -3.53207e-06)
(0.000115258 -0.101675 3.5044e-06)
(8.12378e-05 -0.101841 -4.83903e-06)
(8.13377e-05 -0.10184 4.81697e-06)
(0.000315143 -0.104101 -2.77099e-05)
(0.000101486 -0.102339 -0.000111845)
(0.000309921 -0.104205 -1.97015e-05)
(0.000102135 -0.102159 -9.69385e-05)
(0.000301005 -0.0980941 -3.3629e-05)
(0.000760549 -0.0925036 -0.000356905)
(0.000312452 -0.0983073 -2.56779e-05)
(0.000792523 -0.0920993 -0.000338272)
(-0.00608647 -0.103325 4.47877e-05)
(0.0051969 -0.109847 0.494313)
(-0.00617322 -0.102937 1.90617e-05)
(0.00517974 -0.110559 0.494416)
(-0.00283141 -0.0921513 0.000345117)
(0.00223097 -0.109642 0.500582)
(-0.00293248 -0.0907065 0.000315618)
(0.00225287 -0.111144 0.500603)
(0.0051948 -0.1086 -0.494121)
(-0.00588416 -0.103841 -8.94478e-05)
(0.00520112 -0.109195 -0.494183)
(-0.00598609 -0.103625 -6.81207e-05)
(0.00215264 -0.10702 -0.500542)
(-0.00261708 -0.0943195 -0.000394276)
(0.00219666 -0.108264 -0.500557)
(-0.00272388 -0.0933506 -0.000370931)
(0.000135705 -0.102649 0.000133688)
(0.000335818 -0.103919 4.23088e-05)
(0.000114211 -0.102507 0.000123906)
(0.000325061 -0.10401 3.5227e-05)
(0.000766231 -0.0933099 0.000382984)
(0.000283088 -0.0977119 4.83422e-05)
(0.000753378 -0.0929175 0.000371402)
(0.00029209 -0.0978992 4.11655e-05)
(0.000296795 -0.105274 -2.01959e-08)
(0.000296849 -0.105273 -2.20764e-08)
(0.000258053 -0.105452 -1.7955e-06)
(0.000258119 -0.105451 1.76066e-06)
(0.000165359 -0.101241 -2.78463e-07)
(0.000165405 -0.10124 2.3568e-07)
(0.000143603 -0.101473 -1.9856e-06)
(0.000143662 -0.101472 1.95143e-06)
(0.000335939 -0.103916 -4.24139e-05)
(0.000135485 -0.102646 -0.000133807)
(0.000325208 -0.104007 -3.53223e-05)
(0.000114002 -0.102504 -0.000124019)
(0.000283123 -0.0977084 -4.8459e-05)
(0.000766381 -0.0933057 -0.000383316)
(0.000292179 -0.0978956 -4.12693e-05)
(0.000753403 -0.0929129 -0.00037172)
(-0.00588798 -0.10384 8.96907e-05)
(0.00519832 -0.108603 0.494114)
(-0.00598978 -0.103624 6.83433e-05)
(0.00520455 -0.109199 0.494177)
(-0.00262089 -0.0943176 0.000394821)
(0.00215606 -0.107028 0.500541)
(-0.00272755 -0.093348 0.000371443)
(0.00220002 -0.108272 0.500555)
(0.00516832 -0.10753 -0.493971)
(-0.00569558 -0.104056 -0.000125546)
(0.00518505 -0.108048 -0.494014)
(-0.00578876 -0.103982 -0.000108548)
(0.00206093 -0.104865 -0.500509)
(-0.0024332 -0.0956879 -0.000433031)
(0.00210911 -0.105891 -0.50052)
(-0.00252317 -0.0950899 -0.000414874)
(0.000193422 -0.102841 0.000147176)
(0.000353131 -0.103724 5.45617e-05)
(0.000161625 -0.102763 0.000141333)
(0.000344952 -0.103823 4.87682e-05)
(0.000828362 -0.0940043 0.000398579)
(0.000255376 -0.0973715 6.09825e-05)
(0.000790552 -0.0936764 0.000391873)
(0.000271506 -0.0975358 5.49574e-05)
(0.000355235 -0.104906 3.85208e-06)
(0.000355278 -0.104905 -3.90573e-06)
(0.000328784 -0.105093 1.87475e-06)
(0.000328832 -0.105092 -1.92545e-06)
(0.00019543 -0.100714 3.32915e-06)
(0.000195464 -0.100713 -3.41644e-06)
(0.000182279 -0.100985 1.51959e-06)
(0.000182319 -0.100984 -1.5749e-06)
(0.000353184 -0.103721 -5.46956e-05)
(0.000193197 -0.102838 -0.000147326)
(0.000345034 -0.10382 -4.88841e-05)
(0.0001614 -0.10276 -0.000141461)
(0.000255139 -0.0973687 -6.1117e-05)
(0.000828936 -0.0940006 -0.00039894)
(0.000271445 -0.0975325 -5.50881e-05)
(0.000790871 -0.0936726 -0.000392221)
(-0.00569955 -0.104056 0.00012582)
(0.00517197 -0.107532 0.493964)
(-0.00579268 -0.103981 0.000108808)
(0.00518864 -0.10805 0.494007)
(-0.00243711 -0.0956869 0.000433582)
(0.00206443 -0.104872 0.500508)
(-0.00252706 -0.0950885 0.000415442)
(0.00211258 -0.105898 0.500519)
(0.00513725 -0.106575 -0.49384)
(-0.00553035 -0.104038 -0.000154225)
(0.00515342 -0.107041 -0.493874)
(-0.00561183 -0.104073 -0.000140695)
(0.00197334 -0.103081 -0.500481)
(-0.00228243 -0.0964642 -0.000463562)
(0.00201643 -0.103933 -0.500489)
(-0.00235592 -0.0961388 -0.00044856)
(0.000266142 -0.102884 0.000154999)
(0.000372219 -0.103504 6.47286e-05)
(0.000227591 -0.10288 0.000151562)
(0.000361658 -0.10362 5.98119e-05)
(0.00091824 -0.0945234 0.000408074)
(0.000221978 -0.097071 7.22616e-05)
(0.000872691 -0.0942874 0.000402955)
(0.000237103 -0.0972187 6.58984e-05)
(0.000398452 -0.104512 7.38051e-06)
(0.000398611 -0.104511 -7.59697e-06)
(0.000378023 -0.104713 5.75089e-06)
(0.000378002 -0.104712 -5.71887e-06)
(0.000214616 -0.100139 5.91293e-06)
(0.000214748 -0.100139 -7.78899e-06)
(0.000206307 -0.100431 5.62335e-06)
(0.000206285 -0.10043 -4.66953e-06)
(0.000372798 -0.103502 -6.46359e-05)
(0.00026533 -0.102882 -0.000154845)
(0.000361363 -0.103617 -6.0045e-05)
(0.000227704 -0.102878 -0.000151816)
(0.000222284 -0.0970685 -7.04287e-05)
(0.000918242 -0.0945207 -0.000406301)
(0.000236571 -0.0972153 -6.70968e-05)
(0.000873577 -0.0942851 -0.000404444)
(-0.00553464 -0.104037 0.000154505)
(0.00514081 -0.106577 0.493832)
(-0.00561575 -0.104072 0.000141047)
(0.00515715 -0.107042 0.493867)
(-0.00228651 -0.0964641 0.000462904)
(0.00197674 -0.103086 0.500478)
(-0.00235979 -0.0961386 0.000449936)
(0.00202 -0.103938 0.500488)
(0.00511877 -0.105687 -0.493717)
(-0.00538768 -0.103835 -0.000176648)
(0.00512777 -0.106125 -0.493749)
(-0.00545855 -0.103958 -0.000166077)
(0.00190381 -0.10157 -0.500453)
(-0.00215946 -0.0968117 -0.000486152)
(0.00193857 -0.102296 -0.500461)
(-0.00222134 -0.096684 -0.00047466)
(0.000347059 -0.102796 0.000158396)
(0.000404411 -0.103228 7.26181e-05)
(0.000304641 -0.102855 0.000156942)
(0.000386717 -0.103374 6.87776e-05)
(0.00099527 -0.0948551 0.000411154)
(0.000204792 -0.0967783 7.96958e-05)
(0.000957125 -0.0947128 0.000408613)
(0.000211395 -0.0969259 7.4883e-05)
(0.000437295 -0.104078 1.05955e-05)
(0.000437339 -0.104078 -1.07098e-05)
(0.000417917 -0.104301 9.156e-06)
(0.000417846 -0.1043 -9.10091e-06)
(0.000226378 -0.0995389 9.57829e-06)
(0.000226415 -0.0995382 -1.03194e-05)
(0.000220791 -0.0998416 9.08594e-06)
(0.000220727 -0.0998409 -7.8218e-06)
(0.000404635 -0.103226 -7.26284e-05)
(0.000346669 -0.102794 -0.000158519)
(0.000386323 -0.103372 -6.90461e-05)
(0.000304886 -0.102853 -0.000157223)
(0.000204818 -0.0967758 -7.91435e-05)
(0.000995544 -0.0948534 -0.000410769)
(0.000210813 -0.0969238 -7.64079e-05)
(0.000958016 -0.0947101 -0.00041044)
(-0.00539182 -0.103835 0.000176972)
(0.00512242 -0.105688 0.493709)
(-0.00546247 -0.103957 0.00016649)
(0.0051315 -0.106126 0.493741)
(-0.00216326 -0.0968122 0.000486325)
(0.00190726 -0.101574 0.500452)
(-0.00222503 -0.0966841 0.000476323)
(0.0019421 -0.102301 0.500461)
(0.005119 -0.104828 -0.493595)
(-0.00525967 -0.103481 -0.000194055)
(0.00511815 -0.105256 -0.493623)
(-0.00532373 -0.103676 -0.000185809)
(0.00185412 -0.100249 -0.500427)
(-0.00205738 -0.0968375 -0.000503775)
(0.00187895 -0.10089 -0.500435)
(-0.00210769 -0.0968591 -0.000495094)
(0.000434653 -0.102581 0.000159344)
(0.000452065 -0.10288 7.86409e-05)
(0.000389474 -0.102704 0.000159282)
(0.000426258 -0.103063 7.55833e-05)
(0.00106453 -0.0950049 0.000411967)
(0.000202842 -0.096459 8.59283e-05)
(0.00102986 -0.0949522 0.000411252)
(0.000202069 -0.0966236 8.23684e-05)
(0.000478935 -0.103595 1.33042e-05)
(0.000479006 -0.103594 -1.33804e-05)
(0.00045749 -0.103844 1.19465e-05)
(0.000457447 -0.103843 -1.21815e-05)
(0.000237269 -0.0989149 1.22022e-05)
(0.000237344 -0.0989146 -1.29918e-05)
(0.000231616 -0.0992301 1.15054e-05)
(0.000231693 -0.0992295 -1.11597e-05)
(0.000452252 -0.102878 -7.8565e-05)
(0.000434243 -0.10258 -0.000159546)
(0.000426132 -0.103061 -7.60927e-05)
(0.00038946 -0.102703 -0.000159082)
(0.000202867 -0.0964573 -8.50749e-05)
(0.00106479 -0.0950033 -0.000411667)
(0.000201595 -0.0966217 -8.30059e-05)
(0.00103044 -0.0949506 -0.000412076)
(-0.00526382 -0.10348 0.000194373)
(0.0051226 -0.104828 0.493587)
(-0.00532776 -0.103675 0.000186295)
(0.00512182 -0.105256 0.493616)
(-0.00206109 -0.0968382 0.000503862)
(0.00185752 -0.100252 0.500426)
(-0.00211138 -0.0968598 0.00049616)
(0.0018824 -0.100894 0.500433)
(0.00514034 -0.103965 -0.493472)
(-0.00513977 -0.102995 -0.000207533)
(0.00512872 -0.104398 -0.493502)
(-0.00520102 -0.103254 -0.000201138)
(0.00182295 -0.0990441 -0.500403)
(-0.00197398 -0.0966212 -0.000517573)
(0.00183843 -0.0996357 -0.500409)
(-0.00201713 -0.0967571 -0.000510131)
(0.000527541 -0.102239 0.000158938)
(0.000515175 -0.102449 8.29517e-05)
(0.00047939 -0.102426 0.000159204)
(0.000481911 -0.102676 8.07844e-05)
(0.00112888 -0.0949785 0.000411194)
(0.000214345 -0.096088 9.09526e-05)
(0.00109717 -0.0950114 0.000410818)
(0.000207246 -0.0962816 8.69488e-05)
(0.00052853 -0.103051 1.54392e-05)
(0.000528752 -0.10305 -1.56089e-05)
(0.000502563 -0.103331 1.44891e-05)
(0.000502295 -0.10333 -1.44948e-05)
(0.000250022 -0.098257 1.40769e-05)
(0.000250284 -0.0982567 -1.54501e-05)
(0.000243417 -0.098591 1.42487e-05)
(0.000243226 -0.0985903 -1.32429e-05)
(0.000515407 -0.102448 -8.29192e-05)
(0.000526876 -0.102238 -0.000158917)
(0.000481745 -0.102674 -8.11159e-05)
(0.000479705 -0.102425 -0.000159427)
(0.000214355 -0.0960867 -8.89069e-05)
(0.00112891 -0.0949775 -0.000410527)
(0.000206879 -0.09628 -8.88692e-05)
(0.00109809 -0.0950107 -0.000412093)
(-0.00514401 -0.102995 0.000207856)
(0.00514385 -0.103965 0.493464)
(-0.00520493 -0.103253 0.000201605)
(0.00513239 -0.104399 0.493494)
(-0.00197772 -0.0966221 0.000517052)
(0.00182627 -0.0990463 0.5004)
(-0.00202064 -0.0967581 0.000511866)
(0.00184188 -0.0996383 0.500408)
(0.00518195 -0.103073 -0.493347)
(-0.00502264 -0.10239 -0.000217988)
(0.00516032 -0.103524 -0.493375)
(-0.00508283 -0.102707 -0.000212983)
(0.00180716 -0.0978991 -0.500378)
(-0.00190239 -0.0962102 -0.000527942)
(0.0018152 -0.0984672 -0.500384)
(-0.00193961 -0.0964377 -0.000521721)
(0.000626989 -0.101769 0.000157585)
(0.000591913 -0.101924 8.59862e-05)
(0.000575328 -0.10202 0.000158177)
(0.00055208 -0.102199 8.44075e-05)
(0.00119243 -0.0947798 0.000409431)
(0.000236382 -0.0956411 9.4263e-05)
(0.00116031 -0.0948995 0.000409413)
(0.00022444 -0.0958754 9.02907e-05)
(0.000590156 -0.102432 1.71545e-05)
(0.000590444 -0.102432 -1.73327e-05)
(0.000558118 -0.102751 1.64426e-05)
(0.000557714 -0.102751 -1.64317e-05)
(0.000267054 -0.0975519 1.57193e-05)
(0.000267375 -0.0975517 -1.72285e-05)
(0.000258323 -0.0979112 1.6337e-05)
(0.000257985 -0.0979107 -1.50186e-05)
(0.000592123 -0.101922 -8.59306e-05)
(0.000626283 -0.101768 -0.000157551)
(0.000551917 -0.102197 -8.47686e-05)
(0.000575831 -0.102019 -0.000158447)
(0.00023637 -0.0956401 -9.17661e-05)
(0.00119241 -0.0947793 -0.000408771)
(0.000224089 -0.0958743 -9.29577e-05)
(0.00116141 -0.094899 -0.000410801)
(-0.00502695 -0.10239 0.000218308)
(0.00518539 -0.103073 0.493339)
(-0.00508671 -0.102707 0.000213491)
(0.00516395 -0.103524 0.493368)
(-0.00190609 -0.0962112 0.000527212)
(0.00181045 -0.0979009 0.500376)
(-0.00194302 -0.0964388 0.000523859)
(0.00181862 -0.0984692 0.500383)
(0.00524251 -0.102129 -0.493222)
(-0.00490498 -0.101668 -0.000226106)
(0.00521149 -0.102609 -0.493248)
(-0.00496613 -0.102044 -0.000222182)
(0.00180418 -0.0967685 -0.500354)
(-0.00183884 -0.0956364 -0.000535771)
(0.00180593 -0.0973344 -0.500359)
(-0.0018725 -0.0959423 -0.000530598)
(0.000734095 -0.101171 0.000155794)
(0.000681325 -0.101293 8.7986e-05)
(0.000678458 -0.101487 0.000156567)
(0.000635122 -0.101622 8.68719e-05)
(0.00125207 -0.0944169 0.000407005)
(0.000265993 -0.0950995 9.63884e-05)
(0.00122126 -0.0946189 0.00040729)
(0.000250407 -0.0953832 9.26664e-05)
(0.000664751 -0.101728 1.84686e-05)
(0.000665071 -0.101727 -1.86524e-05)
(0.000626196 -0.102092 1.79482e-05)
(0.000625723 -0.102091 -1.79467e-05)
(0.000289133 -0.096785 1.70189e-05)
(0.00028948 -0.0967849 -1.85573e-05)
(0.000277881 -0.097177 1.78623e-05)
(0.000277472 -0.0971768 -1.65022e-05)
(0.000681517 -0.101292 -8.79232e-05)
(0.000733387 -0.10117 -0.000155769)
(0.000635012 -0.101621 -8.72545e-05)
(0.000679063 -0.101486 -0.00015683)
(0.00026596 -0.0950988 -9.37016e-05)
(0.00125205 -0.0944168 -0.000406424)
(0.0002501 -0.0953824 -9.5623e-05)
(0.00122244 -0.0946187 -0.000408607)
(-0.00490932 -0.101668 0.000226427)
(0.0052459 -0.102129 0.493214)
(-0.00497004 -0.102043 0.00022271)
(0.00521507 -0.102609 0.493241)
(-0.0018425 -0.0956374 0.000534966)
(0.00180743 -0.0967698 0.500352)
(-0.00187584 -0.0959434 0.000532874)
(0.00180932 -0.0973359 0.500358)
(0.00532108 -0.101112 -0.493091)
(-0.00478035 -0.100829 -0.000232397)
(0.00528111 -0.101631 -0.493119)
(-0.00484561 -0.101263 -0.000229333)
(0.00181121 -0.0956169 -0.50033)
(-0.00177884 -0.0949175 -0.000541457)
(0.00180812 -0.0961971 -0.500335)
(-0.00181106 -0.0952946 -0.000537362)
(0.000848398 -0.100441 0.000153821)
(0.000783401 -0.100548 8.9171e-05)
(0.000789197 -0.100823 0.000154674)
(0.000730836 -0.100935 8.84424e-05)
(0.00131019 -0.0938926 0.00040424)
(0.000302371 -0.0944487 9.72893e-05)
(0.00128008 -0.0941749 0.000404793)
(0.000283439 -0.0947885 9.42237e-05)
(0.000753008 -0.100923 1.94509e-05)
(0.000753222 -0.100923 -1.96198e-05)
(0.000707578 -0.101339 1.90767e-05)
(0.000707073 -0.101338 -1.90958e-05)
(0.000316663 -0.0959409 1.81768e-05)
(0.000316899 -0.0959406 -1.93854e-05)
(0.000302697 -0.0963734 1.89575e-05)
(0.000302253 -0.0963733 -1.76814e-05)
(0.000783581 -0.100547 -8.91663e-05)
(0.000847858 -0.100441 -0.000153835)
(0.000730794 -0.100934 -8.88381e-05)
(0.000789819 -0.100822 -0.00015493)
(0.000302334 -0.0944483 -9.52877e-05)
(0.00131036 -0.0938931 -0.000403886)
(0.000283193 -0.094788 -9.72449e-05)
(0.00128129 -0.0941748 -0.000406002)
(-0.00478466 -0.100828 0.000232748)
(0.00532444 -0.101112 0.493083)
(-0.00484954 -0.101263 0.000229869)
(0.00528464 -0.10163 0.493112)
(-0.0017824 -0.0949188 0.000541024)
(0.00181446 -0.0956179 0.500328)
(-0.00181434 -0.0952956 0.000539643)
(0.00181149 -0.0961982 0.500334)
(0.00541719 -0.100006 -0.492959)
(-0.00464548 -0.0998666 -0.00023726)
(0.00536853 -0.100571 -0.492987)
(-0.00471592 -0.100363 -0.000234909)
(0.00182733 -0.0944158 -0.500306)
(-0.00172044 -0.0940608 -0.00054547)
(0.00181976 -0.0950241 -0.500311)
(-0.00175185 -0.0945064 -0.00054277)
(0.000970546 -0.0995756 0.000151831)
(0.000897981 -0.0996774 8.97367e-05)
(0.000907594 -0.100026 0.000152738)
(0.000839169 -0.100129 8.93911e-05)
(0.00136767 -0.0932102 0.000401313)
(0.000344883 -0.093677 9.72684e-05)
(0.00133804 -0.0935715 0.00040226)
(0.000322982 -0.0940787 9.57835e-05)
(0.00085567 -0.100007 2.01524e-05)
(0.00085571 -0.100006 -2.02873e-05)
(0.000802757 -0.10048 1.98812e-05)
(0.000802449 -0.100479 -1.99363e-05)
(0.000350053 -0.0950032 1.91629e-05)
(0.000350108 -0.095003 -1.97733e-05)
(0.000332931 -0.0954844 1.949e-05)
(0.000332662 -0.0954845 -1.88067e-05)
(0.000898123 -0.0996766 -8.98303e-05)
(0.000970287 -0.099575 -0.0001519)
(0.000839167 -0.100128 -8.96754e-05)
(0.000907905 -0.100025 -0.000152919)
(0.00034482 -0.0936769 -9.65074e-05)
(0.00136811 -0.0932109 -0.000401314)
(0.000322781 -0.0940785 -9.74672e-05)
(0.001339 -0.0935715 -0.000403101)
(-0.00464971 -0.0998663 0.000237663)
(0.00542053 -0.100006 0.492951)
(-0.00471998 -0.100363 0.000235401)
(0.00537195 -0.100571 0.492979)
(-0.00172385 -0.0940621 0.000545705)
(0.00183059 -0.0944166 0.500304)
(-0.00175516 -0.0945075 0.000544358)
(0.00182307 -0.095025 0.50031)
(0.00553009 -0.0987948 -0.492825)
(-0.00449991 -0.0987749 -0.000241015)
(0.00547305 -0.0994145 -0.492853)
(-0.00457574 -0.0993373 -0.000239221)
(0.0018515 -0.0931413 -0.500282)
(-0.0016627 -0.0930687 -0.000548432)
(0.00183991 -0.0937891 -0.500287)
(-0.00169372 -0.0935817 -0.000546734)
(0.00110165 -0.0985685 0.000149938)
(0.00102517 -0.0986728 8.98752e-05)
(0.00103428 -0.09909 0.000150832)
(0.000959971 -0.0991924 8.98022e-05)
(0.0014255 -0.0923705 0.000398463)
(0.000392905 -0.0927734 9.70866e-05)
(0.00139583 -0.0928103 0.000399651)
(0.000368291 -0.0932424 9.66101e-05)
(0.00097327 -0.0989654 2.06087e-05)
(0.000973229 -0.098965 -2.07263e-05)
(0.000912717 -0.0995022 2.04252e-05)
(0.000912553 -0.0995018 -2.05119e-05)
(0.000389639 -0.093957 1.9766e-05)
(0.000389607 -0.0939571 -2.00616e-05)
(0.000369297 -0.0944943 1.98168e-05)
(0.000369152 -0.0944945 -1.96064e-05)
(0.00102529 -0.0986722 -9.00162e-05)
(0.00110153 -0.0985681 -0.000150031)
(0.000960016 -0.0991917 -9.00109e-05)
(0.00103437 -0.0990895 -0.000150966)
(0.000392825 -0.0927735 -9.69338e-05)
(0.00142609 -0.0923712 -0.00039866)
(0.00036814 -0.0932425 -9.73486e-05)
(0.0013966 -0.0928107 -0.000400197)
(-0.00450411 -0.0987746 0.000241443)
(0.0055334 -0.0987942 0.492817)
(-0.00457987 -0.099337 0.000239682)
(0.00547641 -0.0994139 0.492845)
(-0.00166601 -0.09307 0.000549002)
(0.00185475 -0.0931418 0.500281)
(-0.00169702 -0.0935829 0.000547812)
(0.00184318 -0.0937897 0.500286)
(0.0056601 -0.097463 -0.492688)
(-0.00433987 -0.0975465 -0.000243878)
(0.00559443 -0.0981446 -0.492716)
(-0.00442348 -0.0981783 -0.00024252)
(0.00188273 -0.0917728 -0.500259)
(-0.00160453 -0.0919407 -0.000550522)
(0.00186764 -0.0924699 -0.500264)
(-0.00163574 -0.092522 -0.000549447)
(0.00124361 -0.0974136 0.000148188)
(0.00116545 -0.0975242 8.9693e-05)
(0.00117069 -0.0980099 0.000149023)
(0.00109364 -0.098117 8.97976e-05)
(0.00148416 -0.0913723 0.000395723)
(0.00044603 -0.0917274 9.67663e-05)
(0.00145416 -0.0918915 0.000396984)
(0.000418908 -0.0922688 9.67285e-05)
(0.00110605 -0.0977876 2.08689e-05)
(0.00110599 -0.0977873 -2.09826e-05)
(0.00103785 -0.0983941 2.07657e-05)
(0.00103774 -0.0983938 -2.08669e-05)
(0.000435446 -0.0927884 2.00717e-05)
(0.000435387 -0.0927886 -2.02686e-05)
(0.000411978 -0.0933887 2.00695e-05)
(0.000411876 -0.0933889 -2.00517e-05)
(0.00116556 -0.0975237 -8.9847e-05)
(0.00124352 -0.0974132 -0.000148287)
(0.00109371 -0.0981165 -8.99787e-05)
(0.00117069 -0.0980095 -0.000149139)
(0.000445951 -0.0917278 -9.67928e-05)
(0.00148481 -0.0913731 -0.000395983)
(0.000418791 -0.0922691 -9.71164e-05)
(0.00145488 -0.0918921 -0.000397402)
(-0.00434409 -0.0975462 0.000244314)
(0.00566337 -0.0974624 0.49268)
(-0.00442766 -0.098178 0.00024297)
(0.00559773 -0.098144 0.492708)
(-0.00160775 -0.0919419 0.000551193)
(0.00188597 -0.0917731 0.500258)
(-0.00163898 -0.0925232 0.00055033)
(0.0018709 -0.0924703 0.500262)
(0.00580707 -0.095998 -0.492547)
(-0.0041622 -0.0961735 -0.000246007)
(0.00573293 -0.0967478 -0.492574)
(-0.00425479 -0.0968784 -0.000245001)
(0.00192021 -0.0902926 -0.500236)
(-0.00154421 -0.090672 -0.000551837)
(0.00190178 -0.0910476 -0.50024)
(-0.00157667 -0.0913244 -0.000551182)
(0.00139751 -0.096104 0.000146601)
(0.00131901 -0.0962223 8.9265e-05)
(0.00131863 -0.0967785 0.000147357)
(0.00124057 -0.0968929 8.94901e-05)
(0.00154417 -0.0902129 0.000393075)
(0.000504032 -0.0905301 9.62587e-05)
(0.00151347 -0.090813 0.000394322)
(0.00047451 -0.0911482 9.63977e-05)
(0.00125405 -0.0964621 2.09761e-05)
(0.00125399 -0.0964618 -2.10907e-05)
(0.00117825 -0.0971438 2.09423e-05)
(0.00117815 -0.0971436 -2.10475e-05)
(0.00048741 -0.0914843 2.01788e-05)
(0.000487354 -0.0914846 -2.03702e-05)
(0.000460892 -0.0921539 2.02238e-05)
(0.000460801 -0.0921542 -2.02518e-05)
(0.00131913 -0.0962219 -8.94191e-05)
(0.00139741 -0.0961037 -0.000146698)
(0.00124066 -0.0968924 -8.96644e-05)
(0.00131859 -0.0967781 -0.000147467)
(0.000503966 -0.0905306 -9.63003e-05)
(0.00154483 -0.0902138 -0.000393333)
(0.000474412 -0.0911487 -9.67047e-05)
(0.00151418 -0.0908138 -0.000394707)
(-0.00416647 -0.0961732 0.000246444)
(0.0058103 -0.0959973 0.492539)
(-0.00425902 -0.0968781 0.000245448)
(0.00573619 -0.0967471 0.492566)
(-0.00154737 -0.0906732 0.000552514)
(0.00192344 -0.0902928 0.500234)
(-0.00157984 -0.0913256 0.000552019)
(0.00190503 -0.0910478 0.500239)
(0.00597041 -0.0943868 -0.492405)
(-0.00396463 -0.0946462 -0.000247522)
(0.00588815 -0.0952114 -0.492432)
(-0.00406751 -0.0954299 -0.000246808)
(0.00196401 -0.0886848 -0.500212)
(-0.0014784 -0.0892536 -0.000552486)
(0.00194251 -0.0895055 -0.500216)
(-0.00151367 -0.0899822 -0.000552125)
(0.0015636 -0.0946317 0.000145166)
(0.00148581 -0.0947577 8.865e-05)
(0.00147858 -0.0953886 0.000145847)
(0.00140077 -0.0955108 8.89598e-05)
(0.00160606 -0.0888885 0.000390509)
(0.00056679 -0.0891726 9.55962e-05)
(0.00157444 -0.0895715 0.000391693)
(0.000534932 -0.0898718 9.57663e-05)
(0.00141718 -0.0949777 2.09626e-05)
(0.00141713 -0.0949775 -2.10812e-05)
(0.00133384 -0.0957402 2.09874e-05)
(0.00133375 -0.09574 -2.10916e-05)
(0.000545459 -0.0900322 2.01299e-05)
(0.000545422 -0.0900326 -2.03846e-05)
(0.000515948 -0.0907773 2.02768e-05)
(0.000515859 -0.0907776 -2.0279e-05)
(0.00148595 -0.0947574 -8.87958e-05)
(0.00156347 -0.0946315 -0.000145257)
(0.00140086 -0.0955105 -8.91355e-05)
(0.00147855 -0.0953884 -0.000145958)
(0.000566747 -0.0891734 -9.55428e-05)
(0.00160671 -0.0888895 -0.000390714)
(0.000534841 -0.0898725 -9.61095e-05)
(0.00157518 -0.0895726 -0.000392095)
(-0.00396896 -0.0946459 0.000247955)
(0.00597361 -0.094386 0.492396)
(-0.00407179 -0.0954296 0.000247257)
(0.00589137 -0.0952106 0.492424)
(-0.00148152 -0.0892548 0.000553102)
(0.00196723 -0.0886848 0.500211)
(-0.0015168 -0.0899834 0.000552983)
(0.00194574 -0.0895056 0.500215)
(0.00614998 -0.0926171 -0.492259)
(-0.00374368 -0.0929526 -0.000248517)
(0.00605948 -0.0935222 -0.492286)
(-0.00385883 -0.0938206 -0.000248046)
(0.00201295 -0.0869358 -0.500189)
(-0.00140986 -0.087675 -0.000552588)
(0.00198877 -0.0878286 -0.500193)
(-0.00144594 -0.0884849 -0.000552374)
(0.00174287 -0.0929888 0.00014389)
(0.00166595 -0.0931218 8.78909e-05)
(0.00165105 -0.0938319 0.000144478)
(0.00157427 -0.0939615 8.82542e-05)
(0.00166964 -0.0873951 0.000388046)
(0.000634319 -0.0876473 9.48596e-05)
(0.00163715 -0.0881631 0.000389077)
(0.000600105 -0.0884315 9.48735e-05)
(0.00159516 -0.0933247 2.08508e-05)
(0.00159516 -0.0933246 -2.09806e-05)
(0.00150448 -0.0941727 2.09296e-05)
(0.00150437 -0.0941726 -2.10261e-05)