/*--------------------------------*- C++ -*----------------------------------*\
  =========                 |
  \\      /  F ield         | OpenFOAM: The Open Source CFD Toolbox
   \\    /   O peration     | Website:  https://openfoam.org
    \\  /    A nd           | Version:  9
     \\/     M anipulation  |
\*---------------------------------------------------------------------------*/
FoamFile
{
    format      ascii;
    class       volScalarField;
    location    "4.2";
    object      epsilon;
}
// * * * * * * * * * * * * * * * * * * * * * * * * * * * * * * * * * * * * * //

dimensions      [0 2 -3 0 0 0 0];

internalField   nonuniform List<scalar> 
36360
(
11.642
10.5447
9.23346
8.71754
18.7567
17.8325
11.7807
13.7936
8.53608
7.47177
6.92382
5.96407
15.127
13.6866
11.1595
9.74482
7.00718
7.00691
5.54891
5.54864
13.0682
13.0672
9.18156
9.18073
7.47102
8.53501
5.96327
6.92264
13.6838
15.1223
9.74228
11.1551
10.5437
11.6416
8.71638
9.23274
17.8257
18.7482
13.7871
11.7733
13.8613
12.5288
13.0145
11.7396
23.0722
21.4952
21.4837
20.0143
10.3258
9.17169
9.59154
8.46639
18.509
16.9665
17.1153
15.6146
8.66896
8.66875
7.97612
7.97588
16.2991
16.2982
14.9664
14.9655
9.1711
10.325
8.46572
9.59061
16.9639
18.5047
15.6119
17.1108
12.5282
13.8614
11.7388
13.0144
21.4891
23.0645
20.0078
21.4754
14.9022
13.536
14.4538
13.0991
25.151
23.4909
24.2306
22.604
11.2969
10.123
10.8721
9.70452
20.4323
18.8571
19.5754
18.0113
9.61164
9.61147
9.19596
9.19577
18.174
18.1732
17.3335
17.3327
10.1225
11.2963
9.70399
10.8714
18.8548
20.4284
18.0088
19.5713
13.5356
14.9026
13.0987
14.454
23.4854
25.1439
22.5982
24.2232
15.5368
14.1601
15.2529
13.8804
26.5159
24.8188
25.8953
24.2126
11.9161
10.7399
11.6376
10.4618
21.7243
20.1391
21.134
19.5532
10.227
10.2268
9.94931
9.94916
19.4523
19.4516
18.8676
18.8668
10.7395
11.9156
10.4614
11.637
20.1371
21.7209
19.5511
21.1303
14.1599
15.5373
13.8801
15.2534
24.8139
26.5095
24.2074
25.8885
15.9609
14.5801
15.7682
14.3891
27.473
25.7604
27.0323
25.3255
12.341
11.1673
12.1477
10.9725
22.6474
21.0579
22.2215
20.6337
10.6551
10.655
10.4598
10.4597
20.3708
20.3702
19.9466
19.9459
11.167
12.3406
10.9722
12.1473
21.056
22.6443
20.6317
22.2182
14.58
15.9615
14.389
15.7687
25.756
27.4672
25.3208
27.0261
16.2548
14.8724
16.1203
14.7387
28.1643
26.4458
27.8439
26.1275
12.6417
11.4726
12.5043
11.3329
23.3231
21.7337
23.0097
21.4201
10.9625
10.9624
10.8217
10.8216
21.0482
21.0477
20.7338
20.7332
11.4724
12.6414
11.3326
12.504
21.732
23.3203
21.4183
23.0067
14.8724
16.2554
14.7386
16.1209
26.4418
28.159
26.1232
27.8383
16.4595
15.077
16.366
14.9835
28.6671
26.9479
28.434
26.7144
12.8564
11.6929
12.7584
11.5923
23.822
22.2354
23.5904
22.0023
11.1853
11.1852
11.0834
11.0833
21.552
21.5515
21.3179
21.3174
11.6927
12.8561
11.592
12.7582
22.2339
23.8195
22.0007
23.5877
15.077
16.4598
14.9835
16.3665
26.9442
28.6615
26.7105
28.4286
16.5991
15.2177
16.5356
15.1537
29.0291
27.3124
28.8615
27.1431
13.0078
11.8505
12.9392
11.779
24.1881
22.6061
24.0185
22.4343
11.3457
11.3456
11.2727
11.2727
21.9252
21.9248
21.7522
21.7517
11.8503
13.0076
11.7788
12.9389
22.6047
24.1858
22.4328
24.016
15.2176
16.599
15.1536
16.5356
27.3088
29.023
27.1393
28.8555
16.6899
15.3097
16.6492
15.2685
29.2836
27.5701
29.1661
27.451
13.1109
11.96
13.0649
11.911
24.4507
22.8744
24.3299
22.7508
11.4582
11.4581
11.4077
11.4077
22.1966
22.1962
22.0715
22.0711
11.9599
13.1107
11.9109
13.0647
22.8731
24.4485
22.7495
24.3276
15.3095
16.6896
15.2683
16.6489
27.5665
29.2769
27.4473
29.1595
16.7415
15.3626
16.7195
15.3401
29.4511
27.7413
29.3752
27.6635
13.1754
12.0312
13.1478
12.0004
24.6297
23.0601
24.5487
22.9759
11.5326
11.5325
11.5001
11.5001
22.386
22.3856
22.2999
22.2995
12.0311
13.1753
12.0002
13.1476
23.059
24.6278
22.9747
24.5467
15.3629
16.7422
15.3401
16.7197
27.7386
29.4476
27.6605
29.3707
16.7602
15.382
16.7549
15.3762
29.5473
27.8395
29.5065
27.7975
13.2076
12.0707
13.1956
12.0551
24.739
23.1774
24.6916
23.126
11.5755
11.5754
11.5581
11.558
22.5074
22.5071
22.4539
22.4536
12.0706
13.2076
12.0549
13.1955
23.1763
24.7373
23.1249
24.6898
15.3822
16.7607
15.3764
16.7554
27.8371
29.5438
27.7949
29.5026
16.7469
15.3712
16.7562
15.3792
29.5776
27.8728
29.5682
27.8616
13.2119
12.0832
13.2131
12.0804
24.7882
23.2361
24.7697
23.2129
11.5917
11.5916
11.5871
11.587
22.571
22.5707
22.5454
22.545
12.0831
13.2118
12.0804
13.2131
23.2352
24.7866
23.2119
24.768
15.3722
16.7481
15.3797
16.7569
27.8705
29.5743
27.8593
29.5643
16.7173
15.3424
16.7334
15.3587
29.5608
27.8585
29.5739
27.8697
13.1946
12.0732
13.206
12.0811
24.7877
23.2446
24.7927
23.2457
11.5853
11.5853
11.5914
11.5914
22.5844
22.584
22.5832
22.5828
12.0731
13.1942
12.081
13.2058
23.2436
24.7859
23.2447
24.791
15.3415
16.7163
15.3587
16.7338
27.8553
29.556
27.8667
29.5698
16.663
15.2901
16.6921
15.318
29.4949
27.797
29.5316
27.8323
13.1567
12.0429
13.1784
12.061
24.742
23.2091
24.7703
23.2326
11.5587
11.5586
11.5749
11.5748
22.5541
22.5539
22.5748
22.5745
12.0429
13.1567
12.0609
13.1783
23.2083
24.7407
23.2317
24.7688
15.2902
16.6642
15.3179
16.6924
27.7954
29.4934
27.8299
29.5288
16.5947
15.2221
16.6298
15.2576
29.3854
27.6899
29.4439
27.7464
13.0999
11.9938
13.1306
12.0209
24.6528
23.1311
24.7015
23.1744
11.5133
11.5132
11.5385
11.5385
22.4816
22.4813
22.5222
22.522
11.9937
13.0998
12.0208
13.1306
23.1304
24.6516
23.1737
24.7003
15.2216
16.5946
15.2575
16.6306
27.6882
29.3841
27.7449
29.4427
16.5049
15.1336
16.5516
15.1795
29.2363
27.5439
29.3143
27.6202
13.0261
11.928
13.0652
11.9632
24.5261
23.0156
24.5934
23.0774
11.4511
11.4511
11.4846
11.4846
22.3715
22.3713
22.4307
22.4305
11.928
13.0263
11.9632
13.0652
23.0149
24.5252
23.0768
24.5923
15.1349
16.5061
15.1791
16.5512
27.5432
29.2341
27.6186
29.3125
16.3991
15.0302
16.4531
15.083
29.0475
27.3588
29.1453
27.4541
12.9362
11.8461
12.9832
11.8893
24.3626
22.864
24.4481
22.9438
11.373
11.373
11.4144
11.4144
22.2253
22.2251
22.3024
22.3022
11.8461
12.9367
11.8893
12.9837
22.8633
24.3617
22.9431
24.4474
15.0322
16.4028
15.0854
16.4562
27.359
29.0474
27.4543
29.1441
16.2771
14.9106
16.3395
14.9717
28.8221
27.1385
28.9371
27.2519
12.8312
11.7489
12.8859
11.7997
24.1638
22.6773
24.2671
22.7746
11.2794
11.2793
11.3284
11.3284
22.0439
22.0437
22.1386
22.1384
11.7487
12.8307
11.7997
12.8859
22.6765
24.1622
22.7739
24.2659
14.9106
16.2773
14.9725
16.3412
27.1356
28.8192
27.2507
28.9367
16.1351
14.773
16.2078
14.8433
28.5536
26.875
28.6925
27.0099
12.7091
11.6359
12.7723
11.6946
23.9278
22.4552
24.0497
22.5703
11.1702
11.1701
11.227
11.2269
21.8273
21.827
21.9396
21.9394
11.6354
12.7082
11.6943
12.7715
22.4542
23.9255
22.5694
24.0477
14.7709
16.1336
14.8423
16.2072
26.8706
28.5492
27.0055
28.6863
15.9782
14.6198
16.0581
14.6982
28.2484
26.5743
28.4045
26.7282
12.5716
11.5073
12.6426
11.5738
23.6552
22.1976
23.7956
22.3305
11.0456
11.0455
11.1101
11.11
21.5752
21.5749
21.7053
21.705
11.5068
12.5701
11.5734
12.6413
22.1966
23.6527
22.3295
23.7931
14.6161
15.9744
14.6952
16.0555
26.568
28.2417
26.7227
28.3996
15.7965
14.4456
15.8884
14.5336
27.8972
26.2308
28.0762
26.4058
12.4169
11.3627
12.4964
11.4373
23.345
21.9038
23.5042
22.0549
10.9051
10.905
10.9776
10.9775
21.2864
21.2862
21.4352
21.4349
11.3623
12.4156
11.4368
12.4949
21.9029
23.3427
22.0539
23.5018
14.4424
15.7926
14.5299
15.8841
26.225
27.8902
26.3994
28.0692
15.5974
14.2545
15.6991
14.3521
27.5043
25.8457
27.7047
26.0419
12.2454
11.202
12.3335
11.2847
22.996
21.5724
23.1748
21.7426
10.7492
10.7491
10.8294
10.8293
20.9625
20.9622
21.1286
21.1284
11.2018
12.2446
11.2843
12.3325
21.5716
22.9944
21.7417
23.173
14.2519
15.5941
14.349
15.6955
25.8419
27.4996
26.0377
27.6999
15.3742
14.043
15.4879
14.1504
27.0658
25.417
27.2891
25.6352
12.0562
11.0247
12.1531
11.1157
22.6075
21.2025
22.8062
21.3919
10.5771
10.5771
10.6655
10.6654
20.601
20.6009
20.7862
20.786
11.0245
12.0558
11.1155
12.1524
21.2019
22.6063
21.3913
22.8049
14.0415
15.3722
14.148
15.4847
25.4143
27.0624
25.6319
27.2849
15.1332
13.8144
15.2553
13.9306
26.5825
24.9436
26.8287
25.1841
11.8494
10.8304
11.9552
10.9299
22.1786
20.7939
22.3975
21.0027
10.3886
10.3885
10.4852
10.4852
20.2014
20.2012
20.4057
20.4055
10.8304
11.8495
10.9298
11.9551
20.7935
22.1779
21.0022
22.3966
13.8138
15.1333
13.9298
15.2549
24.943
26.5814
25.1827
26.8262
14.8672
13.565
15.0018
13.6908
26.054
24.4282
26.3225
24.6897
11.6248
10.6191
11.7394
10.7271
21.7099
20.3462
21.9488
20.5747
10.1832
10.1832
10.2883
10.2882
19.763
19.7628
19.9868
19.9866
10.6189
11.6245
10.7271
11.7394
20.3456
21.7089
20.5742
21.9481
13.5633
14.866
13.6898
15.0015
24.4266
26.0542
24.6893
26.3228
14.5814
13.2975
14.7258
13.4329
25.4785
23.8654
25.7707
24.1513
11.3817
10.3901
11.5057
10.507
21.1991
19.8583
21.4594
20.107
9.96065
9.96058
10.0743
10.0743
19.2853
19.2851
19.5288
19.5286
10.3898
11.3808
10.5068
11.505
19.8577
21.1976
20.1064
21.458
13.2935
14.5774
13.4307
14.7245
23.8611
25.4743
24.148
25.769
14.2716
13.0085
14.429
13.155
24.8562
23.2573
25.1721
23.5652
11.12
10.1434
11.2532
10.2692
20.646
19.3304
20.9272
19.5991
9.72088
9.72083
9.84315
9.84309
18.7683
18.7681
19.0314
19.0312
10.1432
11.1196
10.2689
11.2525
19.3299
20.645
19.5985
20.926
13.0065
14.2688
13.1513
14.4241
23.2556
24.8534
23.5623
25.1675
13.9392
12.7011
14.107
12.8562
24.1863
22.6066
24.5256
22.9355
10.8406
9.87925
10.9827
10.0138
20.0524
18.7629
20.3537
19.0513
9.46382
9.46378
9.59475
9.5947
18.2121
18.2119
18.4948
18.4946
9.87909
10.8401
10.0136
10.9822
18.7624
20.0514
19.0508
20.3527
12.7002
13.9376
12.8543
14.1042
22.6044
24.1834
22.9332
24.5228
13.5815
12.3714
13.7633
12.5387
23.4672
21.9087
23.8323
22.2626
10.5415
9.59695
10.6937
9.74062
19.4173
18.1556
19.7398
18.464
9.18917
9.18914
9.32894
9.3289
17.6168
17.6166
17.9191
17.9189
9.59686
10.5414
9.7405
10.6934
18.1551
19.4165
18.4635
19.7389
12.3713
13.5816
12.5383
13.7629
21.9075
23.4655
22.2611
23.83
13.1952
12.0174
13.3911
12.1966
22.6963
21.1615
23.0869
21.5397
10.2221
9.29615
10.3844
9.44904
18.7399
17.5086
19.0834
17.8367
8.89676
8.89674
9.04539
9.04536
16.9828
16.9827
17.3043
17.3042
9.29609
10.222
9.44897
10.3843
17.5082
18.7393
17.8363
19.0827
12.0174
13.1955
12.1966
13.3913
21.1605
22.695
21.5386
23.0855
12.7842
11.642
12.9919
11.8315
21.8787
20.3699
22.292
20.7697
9.88346
8.9774
10.0552
9.13916
18.0226
16.8235
18.3857
17.1705
8.58693
8.58691
8.7442
8.74418
16.3114
16.3113
16.6514
16.6513
8.97735
9.88342
9.13911
10.0551
16.8232
18.022
17.1701
18.3851
11.6421
12.7845
11.8316
12.9922
20.369
21.8775
20.7688
22.2907
12.3518
11.2474
12.5698
11.4463
21.0194
19.5392
21.4531
19.9581
9.52694
8.64143
9.70746
8.81171
17.2681
16.1022
17.6495
16.467
8.26019
8.26017
8.42585
8.42583
15.6041
15.604
15.9619
15.9618
8.64138
9.5269
8.81167
9.70743
16.1018
17.2675
16.4667
17.6489
11.2475
12.3521
11.4464
12.5701
19.5383
21.0182
19.9572
21.4518
11.9004
10.8353
12.1277
11.0428
20.1214
18.6712
20.5742
19.1086
9.15334
8.28868
9.34233
8.46732
16.4781
15.346
16.8771
15.7282
7.91681
7.91679
8.09077
8.09075
14.8622
14.8621
15.2372
15.2371
8.28863
9.1533
8.46727
9.3423
15.3457
16.4775
15.7278
16.8765
10.8354
11.9006
11.0429
12.128
18.6703
20.1202
19.1077
20.573
11.4315
10.4065
11.6674
10.6223
19.1866
17.7677
19.6576
18.2227
8.76292
7.91913
8.96033
8.1062
15.6536
14.5559
16.0698
14.955
7.55666
7.55664
7.73905
7.73903
14.0863
14.0862
14.4783
14.4782
7.91909
8.76288
8.10616
8.96029
14.5555
15.6531
14.9546
16.0692
10.4065
11.4318
10.6224
11.6677
17.7669
19.1855
18.2219
19.6565
10.946
9.9609
11.1903
10.1852
18.2155
16.83
18.7048
17.3021
8.35509
7.532
8.56135
7.72802
14.7951
13.7316
15.2284
14.1479
7.17887
7.17886
7.37024
7.37022
13.2763
13.2762
13.6855
13.6854
7.53195
8.35504
7.72798
8.56131
13.7313
14.7945
14.1475
15.2278
9.96095
10.9462
10.1853
11.1905
16.8292
18.2144
17.3013
18.7037
10.4426
9.49669
10.6961
9.73074
17.2055
15.8573
17.7149
16.3472
7.92755
7.12507
8.14411
7.33138
13.9004
12.8711
14.3522
13.3059
6.78139
6.78137
6.98294
6.98293
12.4301
12.43
12.8578
12.8577
7.12502
7.92751
7.33133
8.14407
12.8708
13.8999
13.3056
14.3517
9.49673
10.4428
9.73079
10.6963
15.8565
17.2044
16.3464
17.7138
9.9165
9.00725
10.1823
9.25533
16.1492
14.8454
16.683
15.3558
7.47392
6.69345
7.70477
6.91295
12.963
11.9687
13.4376
12.4256
6.3604
6.36039
6.57429
6.57427
11.5432
11.5431
11.992
11.9919
6.69341
7.47388
6.91291
7.70473
11.9684
12.9625
12.4253
13.4371
9.00729
9.9167
9.25537
10.1826
14.8446
16.1482
15.3551
16.6819
9.35687
8.46594
9.64107
8.74614
15.0412
13.775
15.6004
14.32
6.97516
6.2275
7.23242
6.4657
11.9598
11.0114
12.4722
11.4978
5.91123
5.91122
6.13967
6.13965
10.6094
10.6093
11.0822
11.0821
6.22745
6.97511
6.46565
7.23237
11.0111
11.9593
11.4975
12.4717
8.46597
9.35705
8.74617
9.64126
13.7743
15.0403
14.3193
15.5995
8.7686
7.71683
9.06403
8.14299
13.86
12.4319
14.4723
13.1749
6.3781
5.71759
6.69401
5.9779
10.8186
9.98626
11.4132
10.5067
5.4373
5.43729
5.67633
5.67631
9.63465
9.63456
10.1251
10.125
5.71754
6.37805
5.97785
6.69396
9.986
10.8182
10.5064
11.4127
7.71685
8.76877
8.14302
9.0642
12.4313
13.8591
13.1742
14.4714
10.0723
9.26541
9.10798
8.41867
10.473
9.52849
9.10833
8.37764
7.94935
7.13723
7.12774
6.34747
7.93333
7.0017
6.87032
6.00349
6.75286
6.75304
5.98365
5.98377
6.57505
6.57505
5.61135
5.6113
7.13784
7.9506
6.3479
7.12871
7.00176
7.93369
6.00341
6.87042
9.26773
10.0757
8.42059
9.11087
9.52964
10.4752
8.37841
9.10999
11.306
10.4612
10.788
9.95202
12.0452
11.0099
11.4095
10.3979
9.10419
8.26311
8.60363
7.77039
9.31776
8.32801
8.73208
7.7601
7.86324
7.86348
7.37501
7.37522
7.87351
7.87356
7.31444
7.31447
8.26388
9.1057
7.7711
8.60505
8.32824
9.31839
7.76027
8.73261
10.4638
11.3098
9.95454
10.7916
11.0114
12.0478
10.3993
11.412
11.9766
11.1333
11.6879
10.8424
12.8421
11.7964
12.5004
11.4572
9.78588
8.94792
9.48826
8.64709
10.0974
9.10092
9.75803
8.76229
8.54858
8.54883
8.24658
8.24682
8.6425
8.64258
8.30453
8.3046
8.94873
9.78743
8.64789
9.4898
9.10122
10.0981
8.76257
9.75872
11.1359
11.9803
10.845
11.6916
11.798
12.8447
11.4588
12.5031
12.3679
11.5334
12.1962
11.3572
13.3107
12.2677
13.1037
12.0589
10.2065
9.37965
10.0203
9.18774
10.5811
9.59041
10.3658
9.37181
8.98506
8.98531
8.79063
8.79088
9.13419
9.13429
8.91422
8.9143
9.38045
10.208
9.18855
10.0219
9.59074
10.5818
9.37213
10.3666
11.5359
12.3715
11.3598
12.1999
12.2693
13.3133
12.0605
13.1063
12.608
11.7832
12.5015
11.6721
13.6086
12.571
13.475
12.4348
10.4777
9.66311
10.3567
9.53619
10.9009
9.91891
10.757
9.77073
9.27403
9.27427
9.1444
9.14465
9.4664
9.4665
9.31634
9.31643
9.66388
10.4792
9.53698
10.3582
9.91926
10.9016
9.77107
10.7577
11.7856
12.6114
11.6746
12.505
12.5726
13.6112
12.4364
13.4776
12.7574
11.9415
12.691
11.871
13.804
12.7721
13.7159
12.6813
10.6562
9.85323
10.5765
9.76802
11.1187
10.1459
11.0203
10.0432
9.46951
9.46974
9.38171
9.38195
9.69747
9.69757
9.59277
9.59287
9.85397
10.6575
9.76878
10.5779
10.1463
11.1194
10.0436
11.0211
11.9438
12.7606
11.8733
12.6944
12.7736
13.8065
12.6829
13.7184
12.8476
12.0396
12.8081
11.9964
13.9314
12.9049
13.8742
12.8452
10.7726
9.98056
10.7211
9.92389
11.2676
10.3038
11.2006
10.2326
9.60183
9.60205
9.54276
9.54298
9.85944
9.85954
9.78627
9.78637
9.98126
10.774
9.92461
10.7225
10.3042
11.2683
10.233
11.2014
12.0418
12.8507
11.9986
12.8112
12.9063
13.9337
12.8467
13.8766
12.8966
12.0955
12.8759
12.0717
14.0106
12.989
13.9755
12.9517
10.8453
10.0632
10.8139
10.0271
11.3669
10.4119
11.3228
10.3637
9.68907
9.68928
9.65075
9.65096
9.9714
9.9715
9.92134
9.92143
10.0638
10.8465
10.0277
10.8152
10.4122
11.3676
10.3641
11.3236
12.0975
12.8995
12.0737
12.8788
12.9904
14.0127
12.9531
13.9777
12.9154
12.1203
12.9086
12.1109
14.0539
13.0367
14.0355
13.0164
10.8854
10.1124
10.8691
10.0919
11.429
10.4823
11.4023
10.4517
9.74264
9.74284
9.71999
9.72019
10.0456
10.0457
10.0131
10.0132
10.1131
10.8865
10.0925
10.8703
10.4826
11.4297
10.452
11.403
12.1222
12.9181
12.1128
12.9114
13.038
14.0559
13.0177
14.0375
12.9108
12.1209
12.9151
12.1229
14.069
13.0557
14.064
13.049
10.9002
10.1358
10.8958
10.1274
11.4618
10.523
11.4489
10.5064
9.77001
9.7702
9.75969
9.75988
10.09
10.0901
10.0716
10.0717
10.1364
10.9013
10.128
10.897
10.5233
11.4624
10.5067
11.4496
12.1227
12.9134
12.1247
12.9177
13.057
14.071
13.0503
14.066
12.8873
12.1019
12.9007
12.1133
14.0607
13.0509
14.0671
13.0556
10.8945
10.1382
10.8999
10.1397
11.4703
10.5394
11.4691
10.5344
9.77617
9.77635
9.77592
9.7761
10.1101
10.1102
10.1033
10.1034
10.1387
10.8955
10.1403
10.9009
10.5398
11.4709
10.5347
11.4697
12.1036
12.8897
12.1151
12.9032
13.0521
14.0626
13.0569
14.069
12.8472
12.066
12.8685
12.0855
14.0313
13.0251
14.0477
13.0399
10.8714
10.1229
10.8851
10.1329
11.4583
10.5354
11.4669
10.5401
9.76468
9.76485
9.77287
9.77305
10.1097
10.1098
10.1127
10.1127
10.1235
10.8724
10.1335
10.8861
10.5357
11.4589
10.5404
11.4675
12.0676
12.8495
12.0872
12.8709
13.0263
14.0332
13.0411
14.0496
12.7937
12.0161
12.8215
12.0423
13.9867
12.9833
14.0102
13.0057
10.8336
10.0927
10.8544
10.1099
11.4292
10.514
11.4459
10.5271
9.73799
9.73814
9.75346
9.75362
10.092
10.092
10.1033
10.1034
10.0932
10.8345
10.1104
10.8553
10.5143
11.4297
10.5274
11.4464
12.0176
12.7957
12.0438
12.8235
12.9841
13.988
13.0066
14.0117
12.7275
11.9533
12.7616
11.9859
13.9265
12.9255
13.958
12.9561
10.7827
10.0491
10.8099
10.0728
11.3846
10.4771
11.4091
10.4979
9.69788
9.69803
9.71988
9.72003
10.0587
10.0587
10.0776
10.0776
10.0496
10.7835
10.0733
10.8108
10.4774
11.3851
10.4981
11.4096
11.9546
12.7294
11.9874
12.7638
12.9261
13.9277
12.957
13.9597
12.6489
11.8779
12.6891
11.9167
13.8494
12.8518
13.8885
12.8892
10.7194
9.9933
10.7526
10.0229
11.3254
10.426
11.3567
10.4535
9.64559
9.64573
9.6735
9.67365
10.0112
10.0113
10.0369
10.037
9.99375
10.7203
10.0234
10.7535
10.4262
11.3259
10.4538
11.3572
11.8795
12.6511
11.9179
12.6907
12.8534
13.8515
12.8901
13.8896
12.5597
11.7922
12.6044
11.8354
13.7643
12.7691
13.8073
12.8114
10.6455
9.92656
10.6838
9.9615
11.2542
10.3623
11.2915
10.396
9.58228
9.58242
9.61556
9.6157
9.951
9.95108
9.98297
9.98304
9.92699
10.6463
9.96195
10.6846
10.3625
11.2548
10.3962
11.292
11.793
12.561
11.8367
12.6066
12.7696
13.7654
12.8124
13.8094
12.4612
11.6968
12.5112
11.7452
13.6652
12.6728
13.7156
12.7216
10.5616
9.84959
10.6048
9.88959
11.171
10.2866
11.2142
10.3262
9.50862
9.50875
9.54701
9.54714
9.87878
9.87885
9.91669
9.91677
9.85
10.5623
9.89001
10.6056
10.2868
11.1716
10.3264
11.2148
11.6986
12.4636
11.7465
12.5125
12.6748
13.6679
12.7229
13.7171
12.3545
11.5932
12.4082
11.6457
13.5569
12.5672
13.6115
12.621
10.468
9.76267
10.5161
9.80763
11.0765
10.1992
11.1254
10.2446
9.42493
9.42504
9.4683
9.46842
9.79486
9.79491
9.83859
9.83865
9.76302
10.4686
9.80801
10.5168
10.1993
11.0767
10.2448
11.1258
11.5937
12.3554
11.6469
12.4104
12.567
13.5573
12.6219
13.6138
12.2357
11.478
12.2962
11.5364
13.4327
12.4466
13.4961
12.5078
10.3641
9.66561
10.4174
9.71565
10.9695
10.1
11.0246
10.1513
9.33115
9.33125
9.37957
9.37967
9.69923
9.69924
9.74881
9.74884
9.6659
10.3646
9.71596
10.418
10.1
10.9694
10.1514
11.0247
11.4793
12.2375
11.5373
12.2969
12.4473
13.4336
12.508
13.496
12.1069
11.3533
12.1719
11.4165
13.2975
12.3156
13.3657
12.3822
10.2498
9.55832
10.3084
9.6135
10.8506
9.98889
10.9117
10.0462
9.22721
9.2273
9.28072
9.28081
9.59185
9.59185
9.64731
9.64731
9.55857
10.2503
9.61376
10.3088
9.98884
10.8503
10.0462
10.9115
11.3535
12.1074
11.4172
12.1735
12.3144
13.2963
12.3819
13.3664
11.9648
11.2162
12.0371
11.2857
13.1452
12.169
13.2228
12.2433
10.1247
9.44047
10.1888
9.50095
10.7188
9.86556
10.7864
9.92902
9.11287
9.11295
9.1716
9.17168
9.47245
9.47246
9.53394
9.53394
9.44072
10.1252
9.5012
10.1892
9.86555
10.7186
9.92898
10.7862
11.2174
11.9664
11.2864
12.0375
12.1694
13.1455
12.2428
13.2214
11.811
11.0685
11.8886
11.1434
12.9797
12.0106
13.0633
12.091
9.98848
9.31181
10.0581
9.37772
10.5741
9.7298
10.6482
9.7995
8.98789
8.98798
9.05196
9.05204
9.34089
9.34091
9.40847
9.40849
9.31207
9.98895
9.37798
10.0586
9.72985
10.5742
9.79951
10.6482
11.0688
11.8116
11.1441
11.8903
12.0098
12.979
12.0908
13.0639
11.6425
10.9075
11.7282
10.9891
12.7962
11.836
12.8897
11.9245
9.84068
9.17207
9.91614
9.24355
10.416
9.58126
10.4969
9.65738
8.85204
8.85213
8.92157
8.92165
9.19686
9.19689
9.27071
9.27074
9.17235
9.84118
9.24382
9.91663
9.58136
10.4162
9.65746
10.497
10.9088
11.6443
10.9899
11.7287
11.8369
12.7972
11.9245
12.8889
11.4613
10.7352
11.5528
10.8224
12.5984
11.6486
12.6983
11.7436
9.68122
9.02104
9.76253
9.09818
10.2443
9.41968
10.332
9.50234
8.70508
8.70517
8.78018
8.78027
9.04006
9.0401
9.12031
9.12035
9.02131
9.68174
9.09846
9.76305
9.41983
10.2446
9.50247
10.3323
10.7356
11.4621
10.8233
11.5547
11.6486
12.5988
11.7442
12.6999
11.2652
10.5494
11.3649
10.6436
12.3816
11.4447
12.4918
11.5479
9.50978
8.85848
9.59713
8.94142
10.0588
9.24487
10.1534
9.33417
8.54681
8.54689
8.62759
8.62767
8.87028
8.87031
8.95705
8.95709
8.85872
9.51024
8.94168
9.59763
9.24496
10.0589
9.3343
10.1537
10.5506
11.2667
10.6443
11.3655
11.4456
12.3826
11.5484
12.4918
11.0548
10.3512
11.1611
10.4515
12.1496
11.2274
12.2668
11.3375
9.32611
8.68417
9.41959
8.77299
9.85908
9.05648
9.96085
9.1526
8.37703
8.3771
8.46357
8.46364
8.68726
8.68727
8.78067
8.78068
8.68438
9.32649
8.77321
9.41999
9.0565
9.85904
9.15264
9.96089
10.3515
11.0555
10.4523
11.1628
11.2266
12.149
11.3377
12.2679
10.8297
10.1399
10.9436
10.2467
11.8979
10.9928
12.0257
11.1114
9.1303
8.49809
9.22981
8.59279
9.64508
8.85452
9.75392
8.9574
8.19567
8.19574
8.288
8.28807
8.49096
8.49097
8.59099
8.591
8.4983
9.1307
8.59299
9.23019
8.85457
9.64518
8.95742
9.75393
10.1408
10.8308
10.2472
10.944
10.9934
11.8983
11.1111
12.0247
10.5914
9.91651
10.7116
10.0294
11.6316
10.746
11.7655
10.8704
8.92233
8.30014
9.02797
8.4008
9.41746
8.63902
9.53311
8.74869
8.00261
8.00267
8.10081
8.10087
8.28127
8.28129
8.38802
8.38803
8.30034
8.92272
8.401
9.02836
8.63908
9.41756
8.74874
9.5332
9.91717
10.5924
10.0302
10.7129
10.746
11.632
10.8708
11.7664
10.3369
9.67858
10.4658
9.79896
11.3471
10.4822
11.4914
10.6158
8.70139
8.08996
8.8136
8.19677
9.17483
8.40944
9.2982
8.52622
7.79765
7.79772
7.90181
7.90188
8.05791
8.05794
8.17153
8.17155
8.09017
8.7018
8.19698
8.814
8.40953
9.17502
8.5263
9.29835
9.67928
10.338
9.79964
10.4668
10.4826
11.3477
10.616
11.4917
10.0662
9.42644
10.203
9.5538
11.0411
10.2002
11.1961
10.3428
8.46749
7.86756
8.58612
7.98044
8.91655
8.16551
9.0477
8.28944
7.5808
7.58087
7.69088
7.69095
7.82074
7.82077
7.94124
7.94127
7.86777
8.4679
7.98065
8.58653
8.16561
8.91678
8.28954
9.04792
9.42715
10.0673
9.55451
10.2041
10.2007
11.042
10.3433
11.1968
9.78148
9.16155
9.92498
9.29509
10.7168
9.90222
10.8805
10.0525
8.22143
7.63341
8.34601
7.75208
8.6436
7.90771
8.78193
8.03848
7.35241
7.35247
7.4682
7.46826
7.57008
7.57011
7.69726
7.69729
7.63362
8.22184
7.75229
8.34643
7.90782
8.64384
8.03859
8.78217
9.16226
9.78254
9.2958
9.92605
9.9027
10.7176
10.053
10.8813
9.48472
8.88545
9.63404
9.02444
10.3772
9.59011
10.5482
9.74731
7.96415
7.38809
8.09424
7.51227
8.35709
7.6367
8.50208
7.774
7.11289
7.11295
7.23418
7.23425
7.30637
7.3064
7.44001
7.44004
7.38829
7.96455
7.51248
8.09464
7.6368
8.35732
7.7741
8.50231
8.88613
9.48575
9.02513
9.63508
9.59057
10.378
9.74779
10.549
9.17766
8.59926
9.33194
8.74318
10.0243
9.2654
10.2018
9.42877
7.69633
7.13201
7.83162
7.26154
8.05781
7.3529
8.20911
7.49656
6.8625
6.86256
6.98921
6.98927
7.02988
7.02991
7.1699
7.16993
7.1322
7.69672
7.26174
7.83201
7.353
8.05803
7.49666
8.20934
8.59992
9.17865
8.74385
9.33294
9.26584
10.0251
9.42923
10.2025
8.86162
8.30377
9.02027
8.45228
9.65956
8.92882
9.84282
9.09808
7.41829
6.86519
7.55868
7.00011
7.74602
7.05629
7.90358
7.20638
6.60118
6.60124
6.73339
6.73345
6.74046
6.74049
6.88699
6.88702
6.86538
7.41865
7.0003
7.55906
7.05638
7.74623
7.20648
7.90379
8.30441
8.86257
8.45293
9.02124
8.92925
9.66029
9.09852
9.84356
8.53722
7.9991
8.70004
8.15225
9.28354
8.58036
9.47243
8.75565
7.12962
6.587
7.27543
6.72773
7.42118
6.7461
7.5854
6.90314
6.3282
6.32825
6.46638
6.46643
6.43727
6.4373
6.59085
6.59087
6.58718
7.12997
6.72792
7.27579
6.74618
7.42138
6.90323
7.58561
7.99971
8.53813
8.15288
8.70097
8.58077
9.28424
8.75607
9.47314
8.20366
7.68387
8.37127
7.84261
8.8951
8.21814
9.09052
8.40071
6.82858
6.29569
6.98092
6.44329
7.0811
6.4202
7.25336
6.58546
6.04185
6.0419
6.18699
6.18704
6.11831
6.11833
6.2801
6.28012
6.29586
6.82892
6.44347
6.98127
6.42028
7.08129
6.58555
7.25356
7.68446
8.20453
7.84321
8.37217
8.21853
8.89576
8.40111
9.09119
7.85807
7.35353
8.03221
7.52075
8.48966
7.83587
8.69446
8.02977
6.51041
5.9875
6.67222
6.14417
6.71977
6.07396
6.90382
6.25018
5.73926
5.73931
5.89293
5.89298
5.78
5.78002
5.95199
5.95202
5.98766
6.51073
6.14433
6.67255
6.07403
6.71994
6.25026
6.904
7.35409
7.8589
7.52133
8.03306
7.83624
8.49028
8.03015
8.69509
7.49835
6.99215
7.67916
7.17843
8.05926
7.41107
8.2773
7.63125
6.1623
5.65611
6.34154
5.82527
6.3203
5.69882
6.52671
5.89079
5.41781
5.41786
5.58102
5.58106
5.41835
5.41837
5.60233
5.60235
5.65626
6.1626
5.82542
6.34185
5.69889
6.32046
5.89086
6.52688
6.99267
7.49914
7.17897
7.67997
7.41141
8.05985
7.63161
8.2779
7.15151
6.51249
7.32025
6.78132
7.62099
6.82543
7.83831
7.15722
5.75397
5.29927
5.96816
5.48019
5.84064
5.28869
6.09413
5.49766
5.08403
5.08407
5.25122
5.25127
5.03846
5.03848
5.22954
5.22956
5.2994
5.75423
5.48033
5.96844
5.28874
5.84078
5.49772
6.09428
6.51296
7.15225
6.78182
7.32102
6.82573
7.62153
7.15755
7.83887
9.83757
9.21352
9.18609
8.62212
9.90602
9.20422
9.14044
8.51818
8.23569
7.60488
7.62852
6.99935
8.08447
7.37313
7.3954
6.69644
7.2973
7.29769
6.69679
6.69712
7.02996
7.03027
6.36423
6.36447
7.60611
8.23788
7.00041
7.63045
7.37411
8.0863
6.69724
7.39694
9.21687
9.84191
8.62515
9.19003
9.20721
9.91006
8.5208
9.14402
10.7304
10.1051
10.342
9.71423
10.9332
10.2178
10.492
9.77809
9.13217
8.50283
8.73456
8.10227
9.08705
8.36589
8.646
7.92595
8.1948
8.19524
7.79327
7.79369
8.0164
8.01676
7.57764
7.57798
8.50418
9.13453
8.10358
8.73688
8.36702
9.0891
7.92703
8.64799
10.1086
10.7349
9.71772
10.3465
10.221
10.9375
9.78125
10.4963
11.2585
10.6443
11.0283
10.4083
11.5207
10.8131
11.2661
10.5539
9.69443
9.07814
9.44663
8.82334
9.70086
8.98907
9.43156
8.71414
8.77586
8.77629
8.51787
8.51831
8.64332
8.64369
8.36597
8.36633
9.07947
9.69674
8.82469
9.44898
8.9902
9.7029
8.71528
9.43361
10.6477
11.2629
10.4118
11.0328
10.8162
11.5248
10.5571
11.2703
11.571
10.9696
11.4345
10.8269
11.8652
11.1693
11.7145
11.0129
10.0451
9.44413
9.89035
9.28189
10.0811
9.38327
9.91318
9.20841
9.14899
9.1494
8.98321
8.98364
9.04385
9.0442
8.86578
8.86614
9.4454
10.0473
9.28319
9.8926
9.38437
10.0831
9.20953
9.91518
10.9728
11.5751
10.8302
11.4387
11.1723
11.8692
11.0159
11.7186
11.7556
11.1661
11.6751
11.08
12.0718
11.3872
11.9811
11.2911
10.2652
9.6787
10.1681
9.57472
10.3223
9.63836
10.2154
9.52479
9.39044
9.39084
9.28315
9.28355
9.30539
9.30573
9.18869
9.18903
9.6799
10.2672
9.57596
10.1702
9.6394
10.3241
9.52586
10.2173
11.1692
11.7595
11.0831
11.6791
11.3901
12.0756
11.2941
11.985
11.8608
11.2819
11.8155
11.2317
12.1945
11.5201
12.1409
11.4617
10.4019
9.82856
10.3421
9.76252
10.4762
9.80503
10.4082
9.73099
9.54653
9.5469
9.47751
9.47789
9.47805
9.47837
9.40113
9.40146
9.82968
10.4039
9.76368
10.3441
9.80601
10.4779
9.732
10.41
11.2848
11.8645
11.2346
11.8193
11.5227
12.198
11.4645
12.1445
11.9145
11.3447
11.8925
11.3184
12.2626
11.5971
12.2336
11.564
10.4832
9.92147
10.4485
9.88125
10.572
9.9124
10.5303
9.86526
9.64501
9.64535
9.60213
9.60248
9.59086
9.59116
9.54111
9.54142
9.92252
10.4851
9.88234
10.4504
9.91333
10.5737
9.86621
10.532
11.3473
11.9179
11.3212
11.896
11.5996
12.266
11.5666
12.2371
11.9328
11.3707
11.9269
11.3612
12.2932
11.6353
12.2814
11.6199
10.5258
9.97434
10.5088
9.95247
10.6271
9.97791
10.6041
9.94998
9.70286
9.70318
9.67861
9.67894
9.6613
9.66158
9.63101
9.6313
9.97533
10.5275
9.95349
10.5105
9.97878
10.6287
9.95088
10.6057
11.3732
11.936
11.3638
11.9302
11.6377
12.2964
11.6223
12.2846
11.9257
11.3703
11.9314
11.373
12.2967
11.6453
12.2973
11.643
10.54
9.99789
10.5361
9.9896
10.6523
10.0125
10.6432
9.99893
9.73088
9.73118
9.72046
9.72077
9.70039
9.70066
9.68465
9.68492
9.99881
10.5416
9.99056
10.5377
10.0133
10.6538
9.99978
10.6447
11.3726
11.9287
11.3754
11.9345
11.6475
12.2996
11.6452
12.3004
11.8995
11.3498
11.9142
11.362
12.2795
11.6337
12.2899
11.6416
10.5328
9.99907
10.5389
10.0012
10.6546
10.0234
10.6562
10.0209
9.73609
9.73637
9.73634
9.73664
9.71533
9.71558
9.71093
9.71118
9.99993
10.5343
10.0021
10.5405
10.0241
10.6559
10.0217
10.6576
11.352
11.9023
11.3642
11.9171
11.6358
12.2822
11.6437
12.2927
11.8581
11.3134
11.88
11.3331
12.2456
11.6048
12.2639
11.6209
10.5085
9.98245
10.5227
9.99306
10.6384
10.0152
10.6488
10.0217
9.72322
9.72349
9.73204
9.73232
9.71097
9.71121
9.71567
9.71591
9.98325
10.5099
9.9939
10.5242
10.0159
10.6396
10.0225
10.6501
11.3154
11.8607
11.3352
11.8827
11.6067
12.2482
11.6229
12.2666
11.804
11.2637
11.8321
11.2898
12.1977
11.5611
12.2228
11.5843
10.4699
9.95108
10.491
9.96872
10.6067
9.99104
10.6245
10.0052
9.69532
9.69557
9.71128
9.71154
9.69046
9.69068
9.7029
9.70312
9.95183
10.4712
9.9695
10.4923
9.99172
10.6079
10.0059
10.6257
11.2656
11.8065
11.2917
11.8346
11.563
12.2001
11.5862
12.2253
11.7392
11.2027
11.7724
11.2342
12.1378
11.5051
12.1686
11.5342
10.4194
9.9072
10.4462
9.93085
10.562
9.9534
10.586
9.97408
9.6547
9.65493
9.67678
9.67702
9.65624
9.65644
9.67527
9.67548
9.90791
10.4206
9.93158
10.4475
9.95403
10.5631
9.97474
10.5872
11.2045
11.7415
11.236
11.7748
11.5068
12.1401
11.536
12.1709
11.6647
11.1316
11.7027
11.168
12.0671
11.4379
12.1033
11.4725
10.3581
9.85231
10.3902
9.8813
10.5055
9.90376
10.5353
9.93028
9.60291
9.60312
9.63039
9.63061
9.6099
9.6101
9.63481
9.63501
9.85297
10.3593
9.88198
10.3913
9.90436
10.5066
9.93089
10.5364
11.1332
11.6668
11.1697
11.7049
11.4395
12.0693
11.4741
12.1055
11.5811
11.0512
11.6235
11.0922
11.9862
11.3602
12.0274
11.4
10.2872
9.78749
10.3239
9.82131
10.4383
9.84325
10.4733
9.87506
9.54107
9.54127
9.57344
9.57365
9.55263
9.55282
9.58285
9.58304
9.78812
10.2883
9.82196
10.3251
9.84382
10.4393
9.87564
10.4743
11.0528
11.5832
11.0938
11.6256
11.3619
11.9883