/*--------------------------------*- C++ -*----------------------------------*\
  =========                 |
  \\      /  F ield         | OpenFOAM: The Open Source CFD Toolbox
   \\    /   O peration     | Website:  https://openfoam.org
    \\  /    A nd           | Version:  9
     \\/     M anipulation  |
\*---------------------------------------------------------------------------*/
FoamFile
{
    format      ascii;
    class       volScalarField;
    location    "4.2";
    object      nut;
}
// * * * * * * * * * * * * * * * * * * * * * * * * * * * * * * * * * * * * * //

dimensions      [0 2 -1 0 0 0 0];

internalField   nonuniform List<scalar> 
36360
(
0.0231759
0.0233512
0.0220265
0.0222554
0.00251484
0.00247288
0.00215388
0.00227012
0.0228145
0.0225694
0.0217042
0.02148
0.00234102
0.0022643
0.00211544
0.00202208
0.0224837
0.022483
0.0214131
0.0214123
0.00222971
0.00222966
0.00198238
0.00198233
0.0225671
0.0228107
0.0214776
0.0217
0.00226415
0.00234078
0.0020219
0.00211517
0.0233458
0.0231683
0.0222493
0.0220178
0.00247257
0.00251447
0.00226977
0.00215343
0.0243593
0.0246352
0.023834
0.0240752
0.0026944
0.00263161
0.00263115
0.00256979
0.0241779
0.023935
0.0235843
0.0233335
0.00250372
0.00243221
0.0024393
0.00236589
0.0238352
0.0238345
0.0232373
0.0232366
0.00239992
0.00239988
0.00233272
0.00233268
0.023933
0.0241746
0.0233315
0.0235809
0.00243209
0.00250353
0.00236576
0.00243909
0.0246306
0.0243528
0.0240703
0.023827
0.00263137
0.00269411
0.00256952
0.00263082
0.025179
0.0254594
0.024804
0.025085
0.00277292
0.00271056
0.00273871
0.00267606
0.025031
0.0248058
0.0246453
0.0244123
0.0025875
0.00251928
0.00255086
0.00248108
0.0247094
0.0247089
0.0243131
0.0243125
0.00248851
0.00248847
0.00244959
0.00244955
0.0248041
0.0250282
0.0244105
0.0246423
0.00251918
0.00258734
0.00248097
0.00255068
0.0254554
0.0251732
0.0250807
0.0247978
0.00271036
0.00277266
0.00267583
0.00273844
0.02575
0.0260312
0.0254881
0.0257681
0.00282213
0.00276063
0.00279997
0.002738
0.0256171
0.0254017
0.025348
0.025128
0.00264084
0.00257503
0.00261674
0.00254986
0.0253129
0.0253124
0.0250353
0.0250347
0.00254544
0.00254542
0.00251972
0.00251969
0.0254002
0.0256146
0.0251264
0.0253454
0.00257495
0.00264071
0.00254976
0.00261659
0.0260276
0.0257447
0.0257643
0.0254825
0.00276045
0.0028219
0.00273781
0.00279973
0.0261572
0.0264424
0.0259685
0.0262513
0.00285562
0.00279505
0.0028403
0.00277926
0.0260369
0.0258286
0.0258417
0.0256302
0.00267766
0.00261353
0.0026608
0.0025959
0.0257459
0.0257455
0.0255447
0.0255443
0.00258482
0.00258479
0.00256678
0.00256676
0.0258273
0.0260346
0.0256288
0.0258393
0.00261346
0.00267754
0.00259582
0.00266067
0.0264392
0.0261524
0.0262478
0.0259635
0.00279489
0.00285542
0.00277909
0.00284009
0.0264549
0.026745
0.0263161
0.0266034
0.00287932
0.00281956
0.00286839
0.00280823
0.0263467
0.026143
0.0262016
0.0259958
0.00270397
0.00264113
0.00269183
0.0026284
0.0260635
0.0260631
0.0259149
0.0259145
0.00261309
0.00261307
0.00260004
0.00260002
0.0261419
0.0263447
0.0259946
0.0261995
0.00264107
0.00270386
0.00262833
0.00269172
0.026742
0.0264505
0.0266003
0.0263114
0.00281942
0.00287914
0.00280808
0.0028682
0.0266756
0.0269697
0.0265722
0.0268642
0.00289632
0.00283725
0.00288846
0.00282905
0.0265779
0.0263775
0.0264693
0.0262673
0.00272306
0.00266125
0.00271423
0.00265194
0.0262998
0.0262994
0.0261887
0.0261883
0.00263372
0.0026337
0.00262417
0.00262415
0.0263765
0.026576
0.0262662
0.0264673
0.00266119
0.00272296
0.00265188
0.00271413
0.026967
0.0266717
0.0268613
0.0265679
0.00283711
0.00289611
0.00282892
0.00288828
0.026839
0.0271359
0.0267624
0.0270578
0.00290841
0.00284994
0.00290281
0.00284406
0.0267498
0.026552
0.0266689
0.0264699
0.00273689
0.0026759
0.0027305
0.00266913
0.0264753
0.026475
0.0263927
0.0263923
0.00264878
0.00264876
0.00264182
0.0026418
0.0265511
0.0267481
0.0264689
0.0266671
0.00267585
0.0027368
0.00266907
0.00273041
0.0271334
0.0268356
0.0270551
0.0267586
0.00284981
0.0029082
0.00284392
0.00290258
0.0269573
0.0272562
0.0269021
0.0271998
0.00291685
0.00285883
0.00291298
0.00285473
0.0268754
0.0266798
0.0268165
0.0266198
0.00274671
0.0026864
0.0027422
0.00268158
0.0266037
0.0266034
0.0265433
0.026543
0.00265962
0.0026596
0.00265463
0.00265462
0.0266789
0.0268738
0.0266188
0.0268148
0.00268635
0.00274663
0.00268153
0.00274212
0.0272539
0.0269543
0.0271974
0.0268989
0.0028587
0.00291664
0.0028546
0.00291279
0.0270395
0.0273396
0.0270014
0.0273008
0.00292234
0.00286469
0.00291985
0.00286203
0.0269638
0.0267701
0.0269226
0.0267279
0.00275336
0.00269361
0.00275036
0.00269035
0.0266942
0.0266939
0.0266519
0.0266516
0.00266712
0.0026671
0.00266371
0.0026637
0.0267693
0.0269624
0.0267271
0.0269211
0.00269357
0.00275329
0.0026903
0.00275028
0.0273375
0.0270362
0.0272985
0.0269981
0.0028646
0.0029222
0.00286193
0.00291967
0.0270923
0.0273927
0.0270682
0.0273684
0.0029255
0.00286803
0.0029242
0.00286661
0.0270214
0.0268294
0.0269949
0.0268021
0.00275739
0.00269813
0.00275564
0.00269615
0.0267535
0.0267533
0.0267262
0.0267259
0.00267189
0.00267188
0.00266979
0.00266978
0.0268286
0.0270201
0.0268013
0.0269936
0.00269809
0.00275732
0.00269611
0.00275558
0.0273907
0.0270891
0.0273663
0.0270649
0.00286795
0.00292536
0.00286652
0.002924
0.0271205
0.0274205
0.0271079
0.0274082
0.00292648
0.00286914
0.00292614
0.00286877
0.0270533
0.0268626
0.0270391
0.0268478
0.00275918
0.00270037
0.00275851
0.00269949
0.0267866
0.0267863
0.0267719
0.0267717
0.00267437
0.00267436
0.00267338
0.00267336
0.0268618
0.0270521
0.026847
0.0270378
0.00270034
0.00275912
0.00269945
0.00275845
0.027419
0.027118
0.0274064
0.027105
0.00286908
0.00292632
0.0028687
0.00292603
0.0271288
0.0274276
0.027127
0.0274262
0.00292591
0.00286866
0.00292639
0.00286905
0.027063
0.0268731
0.0270598
0.0268693
0.00275914
0.00270067
0.00275934
0.00270073
0.0267968
0.0267966
0.0267933
0.0267931
0.00267487
0.00267486
0.00267484
0.00267482
0.0268724
0.0270619
0.0268686
0.0270587
0.00270064
0.00275908
0.00270069
0.00275928
0.0274259
0.0271262
0.0274248
0.0271246
0.00286855
0.00292573
0.00286895
0.00292618
0.0271124
0.0274102
0.027122
0.02742
0.00292368
0.00286648
0.00292492
0.00286772
0.02705
0.0268621
0.0270579
0.0268691
0.00275741
0.00269927
0.00275848
0.00270019
0.0267861
0.026786
0.026793
0.0267928
0.00267365
0.00267364
0.00267448
0.00267447
0.0268615
0.0270489
0.0268684
0.0270568
0.00269924
0.00275736
0.00270016
0.00275842
0.0274084
0.0271098
0.0274184
0.0271195
0.00286642
0.00292367
0.00286764
0.00292483
0.0270816
0.0273773
0.0270982
0.0273949
0.00292007
0.00286281
0.00292199
0.00286476
0.027019
0.0268324
0.0270358
0.0268486
0.00275408
0.00269622
0.0027559
0.00269791
0.0267566
0.0267565
0.0267727
0.0267725
0.00267075
0.00267074
0.00267237
0.00267236
0.026832
0.0270181
0.0268481
0.0270348
0.00269619
0.00275404
0.00269789
0.00275585
0.0273754
0.0270785
0.027393
0.0270952
0.00286275
0.00291995
0.0028647
0.00292193
0.027031
0.0273249
0.0270576
0.0273523
0.00291506
0.00285772
0.00291763
0.00286039
0.0269695
0.0267847
0.0269956
0.0268099
0.00274932
0.0026917
0.00275185
0.00269412
0.0267094
0.0267092
0.0267342
0.0267341
0.00266636
0.00266636
0.00266872
0.00266872
0.0267843
0.0269688
0.0268094
0.0269947
0.00269168
0.00274929
0.0026941
0.00275181
0.0273239
0.0270292
0.0273505
0.0270549
0.00285771
0.00291502
0.00286033
0.00291757
0.0269658
0.0272569
0.0269994
0.0272918
0.00290877
0.0028513
0.00291208
0.00285461
0.0269034
0.02672
0.0269376
0.0267536
0.00274318
0.00268576
0.0027464
0.00268889
0.0266452
0.026645
0.0266785
0.0266783
0.00266053
0.00266052
0.00266361
0.0026636
0.0267197
0.0269031
0.0267532
0.0269372
0.00268574
0.00274316
0.00268887
0.00274638
0.0272565
0.0269645
0.0272914
0.0269981
0.00285133
0.00290884
0.00285463
0.00291207
0.0268835
0.0271724
0.0269262
0.0272157
0.0029012
0.0028436
0.00290508
0.00284756
0.0268207
0.0266385
0.0268633
0.0266805
0.00273569
0.00267842
0.00273959
0.00268225
0.0265644
0.0265641
0.026606
0.0266058
0.00265325
0.00265324
0.00265706
0.00265705
0.0266379
0.0268199
0.0266801
0.0268627
0.00267839
0.00273563
0.00268222
0.00273955
0.0271719
0.0268824
0.027215
0.0269244
0.00284351
0.00290105
0.00284753
0.00290506
0.0267863
0.0270723
0.0268362
0.0271236
0.00289217
0.00283436
0.00289683
0.0028391
0.0267202
0.0265393
0.0267719
0.0265903
0.00272674
0.00266963
0.00273137
0.00267419
0.0264664
0.0264662
0.0265167
0.0265165
0.00264452
0.00264451
0.00264906
0.00264905
0.0265388
0.0267197
0.0265897
0.0267713
0.00266959
0.00272666
0.00267415
0.0027313
0.0270713
0.0267849
0.0271231
0.0268357
0.00283422
0.00289203
0.00283897
0.00289667
0.0266707
0.0269543
0.0267301
0.0270147
0.00288177
0.00282376
0.00288708
0.0028292
0.026602
0.0264224
0.0266626
0.0264823
0.00271634
0.00265938
0.00272171
0.00266468
0.0263511
0.0263509
0.0264102
0.0264099
0.00263429
0.00263427
0.00263958
0.00263957
0.0264217
0.026601
0.0264817
0.0266619
0.00265933
0.00271624
0.00266463
0.00272162
0.026953
0.026669
0.0270136
0.0267284
0.00282355
0.00288161
0.00282902
0.00288697
0.0265356
0.0268172
0.0266046
0.0268869
0.00286979
0.0028115
0.00287589
0.00281775
0.0264646
0.0262868
0.0265349
0.0263562
0.0027044
0.00264758
0.00271054
0.00265366
0.0262177
0.0262175
0.026286
0.0262857
0.00262247
0.00262246
0.00262857
0.00262856
0.0262861
0.0264635
0.0263554
0.0265337
0.00264754
0.00270431
0.00265361
0.00271044
0.0268159
0.0265339
0.0268855
0.0266028
0.0028113
0.00286959
0.00281754
0.00287572
0.0263824
0.026662
0.0264611
0.0267413
0.00285627
0.00279768
0.00286319
0.00280475
0.0263081
0.0261311
0.0263881
0.0262109
0.00269085
0.00263415
0.00269781
0.00264106
0.0260632
0.026063
0.0261425
0.0261423
0.00260909
0.00260908
0.00261597
0.00261596
0.0261306
0.026307
0.0262104
0.026387
0.00263412
0.00269078
0.00264102
0.00269773
0.0266599
0.0263794
0.0267393
0.0264584
0.00279752
0.00285604
0.00280457
0.00286296
0.0262073
0.0264866
0.026297
0.026576
0.00284094
0.0027821
0.0028488
0.00279005
0.0261311
0.0259544
0.0262214
0.0260446
0.0026756
0.002619
0.00268342
0.00262678
0.025887
0.0258869
0.025977
0.0259768
0.002594
0.00259399
0.00260175
0.00260174
0.0259538
0.02613
0.026044
0.0262203
0.00261897
0.00267555
0.00262675
0.00268336
0.0264848
0.0262052
0.026574
0.0262941
0.00278199
0.00284087
0.0027899
0.00284858
0.0260129
0.0262921
0.0261123
0.0263913
0.00282408
0.00276475
0.00283269
0.0027736
0.0259332
0.0257563
0.0260342
0.0258574
0.00265857
0.00260206
0.00266729
0.00261074
0.0256893
0.0256892
0.0257902
0.0257901
0.00257711
0.0025771
0.00258577
0.00258577
0.025756
0.0259325
0.025857
0.0260334
0.00260204
0.00265854
0.00261072
0.00266726
0.0262902
0.0260107
0.0263897
0.0261106
0.00276471
0.00282397
0.00277354
0.00283266
0.0257927
0.026074
0.025905
0.0261847
0.00280513
0.00274552
0.00281482
0.0027553
0.0257127
0.0255357
0.0258249
0.0256482
0.00263969
0.00258324
0.00264935
0.00259288
0.0254691
0.025469
0.0255814
0.0255813
0.00255832
0.00255832
0.00256795
0.00256794
0.0255354
0.0257119
0.0256478
0.0258242
0.00258322
0.00263965
0.00259286
0.00264932
0.0260719
0.0257898
0.0261828
0.0259022
0.00274546
0.00280509
0.00275527
0.00281467
0.0255522
0.0258359
0.0256745
0.0259567
0.00278439
0.00272431
0.00279492
0.00273512
0.0254702
0.0252921
0.0255937
0.0254162
0.00261883
0.00256242
0.0026295
0.00257308
0.0252254
0.0252253
0.0253495
0.0253494
0.00253754
0.00253753
0.00254818
0.00254817
0.0252917
0.0254693
0.0254158
0.025593
0.0025624
0.00261877
0.00257305
0.00262945
0.0258337
0.0255499
0.0259554
0.0256729
0.00272413
0.00278418
0.002735
0.00279491
0.0252861
0.0255733
0.0254221
0.0257071
0.00276146
0.00270098
0.00277313
0.00271285
0.0252015
0.0250238
0.0253384
0.0251604
0.00259585
0.00253951
0.00260759
0.00255122
0.0249573
0.0249572
0.0250938
0.0250937
0.00251465
0.00251465
0.00252635
0.00252635
0.0250234
0.0252006
0.02516
0.0253374
0.00253949
0.0025958
0.0025512
0.00260753
0.0255708
0.0252823
0.0257044
0.0254187
0.00270088
0.00276135
0.0027127
0.00277294
0.0249932
0.0252856
0.0251422
0.0254316
0.00273645
0.00267553
0.0027492
0.00268845
0.0249079
0.0247301
0.0250571
0.0248795
0.00257073
0.00251441
0.00258354
0.00252723
0.0246636
0.0246635
0.024813
0.0248129
0.00248956
0.00248955
0.00250238
0.00250237
0.0247298
0.0249073
0.0248792
0.0250564
0.00251438
0.00257068
0.0025272
0.00258349
0.0252845
0.0249914
0.0254298
0.0251394
0.00267544
0.00273634
0.00268835
0.00274905
0.0246749
0.0249725
0.0248367
0.0251315
0.00270904
0.0026477
0.00272302
0.00266189
0.0245884
0.02441
0.0247508
0.0245728
0.00254329
0.00248698
0.00255729
0.00250098
0.0243434
0.0243433
0.0245062
0.0245061
0.00246213
0.00246212
0.00247613
0.00247613
0.0244097
0.0245878
0.0245724
0.0247502
0.00248696
0.00254326
0.00250096
0.00255726
0.0249716
0.0246734
0.0251306
0.0248352
0.00264765
0.00270898
0.00266183
0.00272294
0.0243301
0.0246333
0.0245053
0.0248055
0.00267905
0.00261725
0.00269433
0.00263275
0.0242421
0.0240626
0.024418
0.0242391
0.00251336
0.00245707
0.00252863
0.00247233
0.0239958
0.0239957
0.0241724
0.0241723
0.00243223
0.00243222
0.00244749
0.00244748
0.0240623
0.0242415
0.0242388
0.0244175
0.00245706
0.00251333
0.00247231
0.0025286
0.0246324
0.0243286
0.0248046
0.0245038
0.00261721
0.00267899
0.00263271
0.00269427
0.0239576
0.0242671
0.0241468
0.0244529
0.00264648
0.0025842
0.00266304
0.002601
0.0238681
0.0236871
0.024058
0.0238778
0.00248087
0.0024246
0.00249743
0.00244115
0.0236199
0.0236198
0.0238108
0.0238107
0.00239975
0.00239974
0.00241631
0.0024163
0.0236868
0.0238675
0.0238775
0.0240574
0.00242458
0.00248085
0.00244113
0.0024974
0.0242662
0.0239562
0.024452
0.0241453
0.00258416
0.00264643
0.00260096
0.00266299
0.0235568
0.0238729
0.0237603
0.0240729
0.00261136
0.00254858
0.0026292
0.00256666
0.0234652
0.0232823
0.0236697
0.0234878
0.00244576
0.00238944
0.00246363
0.00240735
0.0232144
0.0232143
0.0234203
0.0234202
0.00236454
0.00236454
0.00238248
0.00238248
0.023282
0.0234647
0.0234875
0.0236692
0.00238942
0.00244573
0.00240733
0.00246361
0.0238721
0.0235554
0.024072
0.0237589
0.00254854
0.00261131
0.00256663
0.00262915
0.0231258
0.0234486
0.0233446
0.023664
0.00257363
0.00251026
0.00259279
0.00252972
0.0230317
0.0228464
0.0232518
0.0230678
0.00240787
0.00235143
0.00242716
0.00237079
0.0227776
0.0227775
0.0229994
0.0229993
0.00232646
0.00232645
0.00234586
0.00234586
0.0228461
0.0230311
0.0230674
0.0232513
0.00235141
0.00240784
0.00237077
0.00242713
0.0234477
0.0231244
0.0236631
0.0233432
0.00251022
0.00257358
0.00252968
0.00259274
0.0226623
0.0229916
0.0228977
0.0232236
0.00253314
0.0024691
0.0025537
0.00249
0.0225651
0.0223771
0.0228021
0.0226155
0.00236703
0.00231036
0.00238782
0.00233128
0.0223071
0.022307
0.0225461
0.022546
0.00228525
0.00228524
0.00230625
0.00230625
0.0223768
0.0225645
0.0226152
0.0228015
0.00231034
0.002367
0.00233127
0.00238779
0.0229907
0.022661
0.0232228
0.0228964
0.00246906
0.00253309
0.00248996
0.00255365
0.022163
0.0224984
0.0224169
0.022749
0.00248966
0.00242487
0.00251176
0.00244734
0.0220623
0.0218713
0.0223179
0.0221284
0.00232293
0.00226589
0.00234539
0.00228856
0.0217998
0.0217997
0.0220577
0.0220576
0.00224058
0.00224057
0.00226336
0.00226336
0.021871
0.0220618
0.0221281
0.0223173
0.00226588
0.0023229
0.00228855
0.00234536
0.0224975
0.0221617
0.0227482
0.0224155
0.00242484
0.00248961
0.0024473
0.00251171
0.0216222
0.021964
0.0218977
0.022236
0.00244276
0.00237723
0.00246664
0.00240146
0.021519
0.0213242
0.0217955
0.0216027
0.00227513
0.00221754
0.00229952
0.00224223
0.0212509
0.0212508
0.0215303
0.0215302
0.00219192
0.00219192
0.00221678
0.00221677
0.0213239
0.0215185
0.0216023
0.0217949
0.00221752
0.0022751
0.00224222
0.00229949
0.0219632
0.0216209
0.0222352
0.0218964
0.00237719
0.00244271
0.00240142
0.00246659
0.0210323
0.0213809
0.0213333
0.0216785
0.00239171
0.00232554
0.00241778
0.0023519
0.0209279
0.0207286
0.0212295
0.0210325
0.00222279
0.00216445
0.0022496
0.00219165
0.0206533
0.0206532
0.0209581
0.020958
0.0021385
0.00213849
0.00216586
0.00216585
0.0207282
0.0209274
0.0210322
0.021229
0.00216443
0.00222276
0.00219163
0.00224957
0.0213801
0.021031
0.0216776
0.021332
0.0023255
0.00239166
0.00235186
0.00241773
0.0203947
0.0207362
0.0207172
0.021067
0.00233571
0.00226825
0.00236431
0.00229778
0.0202738
0.0200721
0.0206098
0.0204083
0.00216391
0.00210513
0.00219437
0.00213569
0.0199976
0.0199975
0.0203327
0.0203326
0.0020792
0.00207919
0.00210964
0.00210964
0.0200718
0.0202733
0.020408
0.0206093
0.00210512
0.00216388
0.00213567
0.00219435
0.0207353
0.0203934
0.0210662
0.020716
0.00226821
0.00233567
0.00229774
0.00236426
0.0197875
0.0199716
0.020078
0.0203772
0.00227289
0.00219199
0.00230589
0.00223482
0.0195217
0.0193423
0.0199119
0.0197157
0.00209276
0.00203767
0.00213042
0.00207246
0.0192794
0.0192793
0.0196453
0.0196452
0.00201347
0.00201346
0.00204707
0.00204707
0.0193419
0.0195211
0.0197154
0.0199113
0.00203765
0.00209274
0.00207245
0.00213039
0.0199709
0.0197863
0.0203764
0.0200768
0.00219196
0.00227285
0.00223478
0.00230584
0.058737
0.0585391
0.055709
0.0557121
0.0426846
0.0426227
0.0404178
0.0405114
0.0581981
0.0582174
0.0552962
0.0552765
0.0422869
0.0422735
0.0401076
0.0400757
0.0583097
0.0583059
0.0553593
0.0553554
0.0423346
0.0423323
0.0401399
0.0401375
0.0582065
0.0581809
0.0552652
0.0552783
0.0422669
0.0422761
0.0400687
0.0400962
0.0585169
0.0587097
0.0556888
0.05568
0.0426082
0.0426658
0.0404958
0.0403974
0.0624693
0.0623028
0.0608229
0.0606313
0.0452084
0.0452099
0.0441003
0.044069
0.0620247
0.0620679
0.0603228
0.0603565
0.044948
0.0449513
0.0437736
0.0437691
0.0621617
0.0621583
0.0604506
0.060447
0.0450057
0.0450037
0.0438261
0.043824
0.0620581
0.0620092
0.0603461
0.0603063
0.0449454
0.0449385
0.0437628
0.0437634
0.0622828
0.0624447
0.0606101
0.0607967
0.0451971
0.0451917
0.0440554
0.0440824
0.0650022
0.0648706
0.0638329
0.063686
0.0469108
0.0469433
0.0461264
0.0461464
0.0646342
0.0646875
0.0634312
0.0634797
0.0467206
0.0467345
0.045907
0.045916
0.0647795
0.0647765
0.0635722
0.063569
0.046787
0.0467852
0.0459687
0.0459668
0.0646788
0.0646203
0.0634704
0.0634165
0.0467293
0.0467121
0.0459104
0.045898
0.0648526
0.0649799
0.063667
0.0638092
0.0469318
0.0468957
0.0461343
0.0461104
0.0668797
0.0667704
0.0660038
0.0658841
0.0481502
0.0482008
0.0475746
0.0476166
0.0665608
0.0666205
0.065662
0.0657184
0.0480018
0.0480222
0.0474066
0.0474237
0.0667115
0.0667088
0.0658094
0.0658066
0.0480752
0.0480737
0.0474761
0.0474744
0.0666127
0.0665483
0.06571
0.0656488
0.0480176
0.0479942
0.0474188
0.0473986
0.066754
0.0668593
0.0658669
0.0659821
0.0481904
0.0481364
0.0476056
0.04756
0.0683075
0.0682145
0.0676379
0.0675371
0.0490731
0.049138
0.0486417
0.0486997
0.0680248
0.0680898
0.0673378
0.0673999
0.0489562
0.0489818
0.0485096
0.0485325
0.0681806
0.0681781
0.0674904
0.0674879
0.0490358
0.0490344
0.0485858
0.0485843
0.0680827
0.0680134
0.0673924
0.0673259
0.0489776
0.0489493
0.0485281
0.0485024
0.0681996
0.0682887
0.0675214
0.067618
0.0491286
0.0490604
0.0486897
0.0486283
0.0694062
0.069326
0.0688893
0.0688029
0.0497704
0.0498471
0.049443
0.049514
0.0691522
0.0692219
0.0686214
0.0686884
0.0496791
0.0497089
0.0493393
0.0493668
0.0693128
0.0693105
0.068779
0.0687767
0.0497636
0.0497623
0.049421
0.0494197
0.0692154
0.0691418
0.0686816
0.0686105
0.0497051
0.0496728
0.0493628
0.0493327
0.0693123
0.0693889
0.0687885
0.0688709
0.0498385
0.0497587
0.0495049
0.0494307
0.0702557
0.0701856
0.0698555
0.0697804
0.0503008
0.050387
0.0500511
0.0501328
0.0700248
0.0700987
0.0696133
0.0696848
0.0502304
0.0502638
0.0499706
0.050002
0.0701901
0.0701881
0.0697757
0.0697736
0.050319
0.0503179
0.0500568
0.0500556
0.0700928
0.0700152
0.0696786
0.0696033
0.0502603
0.0502247
0.0499983
0.0499646
0.070173
0.0702397
0.0697672
0.0698385
0.0503791
0.0502901
0.0501244
0.0500398
0.0709106
0.0708485
0.0706021
0.0705361
0.0507033
0.0507969
0.0505138
0.0506038
0.0706986
0.0707764
0.0703809
0.0704564
0.0506498
0.0506863
0.050452
0.0504868
0.0708683
0.0708665
0.0705479
0.0705459
0.0507421
0.050741
0.0505422
0.050541
0.0707709
0.0706898
0.0704507
0.0703717
0.0506831
0.0506445
0.0504834
0.0504465
0.0708369
0.0708957
0.0705239
0.0705864
0.0507896
0.0506936
0.0505962
0.0505035
0.0714096
0.071354
0.071175
0.0711163
0.0510041
0.0511036
0.0508628
0.0509594
0.0712134
0.0712946
0.0709711
0.0710504
0.0509647
0.0510041
0.0508165
0.0508542
0.0713873
0.0713856
0.0711425
0.0711407
0.0510604
0.0510594
0.0509101
0.0509091
0.0712895
0.0712052
0.0710451
0.0709626
0.0510011
0.0509598
0.0508511
0.0508114
0.0713432
0.0713958
0.071105
0.0711605
0.0510969
0.0509951
0.0509524
0.0508534
0.0717806
0.0717305
0.0716073
0.0715544
0.0512224
0.0513267
0.0511204
0.0512223
0.0715982
0.0716826
0.0714179
0.0715005
0.051195
0.051237
0.0510871
0.0511277
0.0717761
0.0717745
0.0715935
0.0715918
0.0512939
0.0512929
0.0511841
0.0511832
0.0716779
0.0715906
0.0714956
0.0714101
0.0512343
0.0511905
0.0511248
0.0510824
0.0717205
0.0717678
0.0715439
0.0715937
0.0513204
0.0512138
0.0512158
0.0511114
0.072046
0.072
0.071923
0.0718749
0.0513726
0.0514808
0.0513031
0.0514095
0.0718746
0.0719621
0.0717465
0.0718322
0.0513555
0.0513998
0.051281
0.051324
0.0720566
0.0720551
0.0719259
0.0719244
0.0514571
0.0514562
0.051381
0.0513801
0.0719577
0.0718675
0.0718277
0.0717392
0.0513972
0.0513512
0.0513214
0.0512766
0.0719906
0.0720341
0.0718652
0.0719103
0.0514749
0.0513646
0.0514034
0.0512947
0.0722236
0.0721804
0.0721427
0.0720981
0.0514677
0.051578
0.0514245
0.0515338
0.0720604
0.0721497
0.0719757
0.072064
0.051457
0.0515029
0.0514109
0.0514563
0.0722445
0.0722431
0.0721584
0.072157
0.0515605
0.0515597
0.0515136
0.0515128
0.0721456
0.0720538
0.0720597
0.0719689
0.0515005
0.051453
0.0514537
0.0514068
0.0721716
0.0722124
0.072089
0.072131
0.0515726
0.0514602
0.0515281
0.0514166
0.0723217
0.0722811
0.0722804
0.0722385
0.0515114
0.0516237
0.0514945
0.0516058
0.0721669
0.0722587
0.0721215
0.0722117
0.0515076
0.0515555
0.0514871
0.0515333
0.0723543
0.072353
0.0723065
0.0723051
0.0516134
0.0516127
0.0515906
0.0515898
0.072255
0.0721609
0.0722078
0.0721152
0.0515533
0.0515042
0.051531
0.0514834
0.0722734
0.0723116
0.0722301
0.0722694
0.0516191
0.0515047
0.0516007
0.0514873
0.0723486
0.0723102
0.0723411
0.0723018
0.0515069
0.0516209
0.0515126
0.0516259
0.0722006
0.0722947
0.0721901
0.0722829
0.0515096
0.0515597
0.0515123
0.0515611
0.0723911
0.0723899
0.0723788
0.0723776
0.0516184
0.0516177
0.0516193
0.0516186
0.0722912
0.0721949
0.0722793
0.0721843
0.0515577
0.0515061
0.051559
0.0515088
0.0723021
0.0723384
0.0722942
0.0723314
0.0516156
0.0514996
0.0516212
0.0515061
0.0723114
0.0722745
0.0723366
0.0722986
0.0514601
0.0515756
0.0514872
0.0516016
0.07217
0.0722662
0.0721913
0.0722862
0.0514697
0.051522
0.0514931
0.0515442
0.0723633
0.0723622
0.0723828
0.0723817
0.0515814
0.0515808
0.0516031
0.0516024
0.072263
0.0721649
0.0722829
0.0721858
0.0515202
0.0514668
0.0515422
0.0514898
0.0722683
0.0723032
0.0722908
0.072326
0.0515723
0.0514548
0.0515968
0.0514799
0.0722144
0.0721788
0.0722676
0.0722318
0.0513759
0.0514922
0.0514206
0.0515369
0.0720781
0.0721767
0.0721296
0.0722269
0.0513896
0.0514444
0.0514328
0.0514863
0.0722747
0.0722737
0.0723243
0.0723232
0.0515047
0.0515041
0.0515461
0.0515455
0.0721736
0.0720728
0.0722237
0.0721245
0.0514426
0.0513865
0.0514845
0.0514299
0.0721705
0.072204
0.0722252
0.0722596
0.0514872
0.0513694
0.051533
0.0514155
0.0720578
0.0720237
0.072142
0.0721065
0.0512535
0.0513702
0.051318
0.0514341
0.0719285
0.0720296
0.0720086
0.0721083
0.051272
0.051329
0.0513338
0.0513896
0.0721286
0.0721276
0.0722067
0.0722057
0.0513903
0.0513897
0.0514504
0.0514498
0.0720266
0.0719241
0.0721053
0.0720038
0.0513274
0.0512696
0.0513879
0.0513311
0.0720192
0.0720514
0.0720997
0.0721319
0.0513676
0.0512489
0.0514299
0.0513114
0.0718504
0.0718167
0.0719584
0.0719252
0.0510975
0.0512142
0.0511781
0.0512951
0.0717237
0.0718267
0.0718313
0.0719332
0.051118
0.0511769
0.0511981
0.0512559
0.0719266
0.0719256
0.0720326
0.0720316
0.0512391
0.0512385
0.0513176
0.051317
0.0718237
0.0717186
0.0719302
0.0718266
0.0511752
0.0511152
0.0512542
0.0511954
0.0718087
0.0718405
0.0719192
0.0719517
0.0512097
0.0510919
0.0512917
0.0511736
0.0715846
0.0715516
0.0717236
0.0716895
0.0509041
0.05102
0.0510044
0.0511202
0.0714632
0.0715683
0.0715987
0.0717027
0.050927
0.0509877
0.0510257
0.0510854
0.0716693
0.0716683
0.071803
0.071802
0.0510509
0.0510504
0.051148
0.0511475
0.0715655
0.0714591
0.0716998
0.0715942
0.0509862
0.050925
0.0510838
0.0510234
0.0715477
0.071579
0.0716831
0.0717141
0.0510184
0.0509008
0.051117
0.0509991
0.0712672
0.0712343
0.0714304
0.0713981
0.0506749
0.0507903
0.0507923
0.0509083
0.0711473
0.0712543
0.0713106
0.0714166
0.0506985
0.050761
0.0508161
0.0508776
0.0713563
0.0713553
0.071518
0.071517
0.0508254
0.0508248
0.0509413
0.0509407
0.0712515
0.0711426
0.0714138
0.0713063
0.0507594
0.050696
0.0508761
0.0508139
0.0712268
0.071258
0.0713929
0.0714246
0.0507864
0.0506699
0.0509058
0.0507891
0.0708896
0.0708574
0.0710848
0.0710514
0.0504055
0.0505204
0.0505441
0.0506587
0.0707747
0.0708839
0.0709666
0.0710745
0.0504314
0.0504959
0.0505685
0.0506319
0.0709869
0.070986
0.071177
0.071176
0.0505615
0.0505609
0.0506968
0.0506962
0.0708812
0.0707708
0.0710718
0.0709622
0.0504944
0.0504292
0.0506303
0.0505661
0.0708537
0.0708844
0.0710454
0.0710757
0.0505186
0.0504027
0.0506557
0.0505392
0.0704585
0.0704265
0.0706788
0.0706475
0.050099
0.0502134
0.0502554
0.0503704
0.0703448
0.0704555
0.0705655
0.0706754
0.0501249
0.0501907
0.0502819
0.0503471
0.0705594
0.0705586
0.0707788
0.070778
0.0502573
0.0502568
0.0504131
0.0504126
0.070453
0.0703404
0.0706728
0.0705614
0.0501893
0.0501223
0.0503456
0.0502795
0.0704192
0.0704494
0.0706424
0.0706734
0.0502089
0.0500934
0.0503675
0.0502521
0.0699638
0.0699329
0.0702181
0.0701858
0.0497493
0.0498635
0.0499286
0.0500423
0.0698548
0.0699671
0.0701059
0.0702173
0.0497772
0.049844
0.049955
0.0500212
0.0700718
0.070071
0.0703216
0.0703208
0.0499113
0.0499109
0.0500881
0.0500877
0.0699647
0.0698512
0.0702149
0.0701019
0.0498426
0.049775
0.0500198
0.0499526
0.0699294
0.0699587
0.07018
0.0702091
0.0498615
0.0497459
0.0500388
0.0499231
0.069411
0.0693807
0.0696929
0.0696631
0.0493592
0.0494733
0.049558
0.0496725
0.069303
0.0694164
0.0695854
0.0696981
0.0493868
0.0494543
0.0495862
0.0496533
0.0695218
0.0695211
0.0698032
0.0698024
0.0495223
0.0495219
0.0497209
0.0497205
0.0694142
0.069299
0.0696958
0.0695816
0.049453
0.0493844
0.049652
0.049584
0.0693739
0.0694025
0.0696583
0.0696878
0.049469
0.0493535
0.0496697
0.0495546
0.0687894
0.0687604
0.0691079
0.0690775
0.0489209
0.0490356
0.0491451
0.0492589
0.0686858
0.0688004
0.0690012
0.0691152
0.0489511
0.0490195
0.0491734
0.0492413
0.0689065
0.0689058
0.0692209
0.0692202
0.0490882
0.0490878
0.0493096
0.0493092
0.0687983
0.0686825
0.069113
0.0689976
0.0490183
0.0489493
0.0492401
0.0491713
0.0687571
0.0687841
0.0690718
0.069099
0.0490338
0.0489172
0.0492554
0.0491391
0.0681029
0.0680755
0.0684523
0.0684248
0.0484387
0.0485543
0.0486839
0.0487994
0.0680009
0.0681162
0.0683506
0.0684656
0.0484692
0.0485379
0.048715
0.0487834
0.0682228
0.0682221
0.0685718
0.0685712
0.048607
0.0486066
0.0488522
0.0488519
0.0681143
0.0679974
0.0684635
0.0683473
0.0485368
0.0484674
0.0487823
0.0487132
0.0680697
0.0680959
0.0684209
0.068448
0.0485512
0.0484346
0.0487975
0.0486813
0.0673433
0.0673172
0.0677314
0.0677042
0.0479055
0.0480221
0.0481777
0.0482933
0.0672439
0.0673599
0.0676303
0.0677458
0.0479371
0.0480066
0.0482084
0.0482773
0.0674669
0.0674663
0.0678526
0.0678519
0.0480762
0.0480759
0.0483466
0.0483463
0.067358
0.0672407
0.0677439
0.0676269
0.0480055
0.0479353
0.0482762
0.0482065
0.0673132
0.0673371
0.0676988
0.0677234
0.04802
0.0479016
0.0482903
0.0481727
0.066508
0.066484
0.0669335
0.0669087
0.0473213
0.0474395
0.0476183
0.0477359
0.066411
0.0665277
0.0668357
0.066952
0.0473531
0.0474233
0.0476505
0.0477203
0.0666352
0.0666346
0.0670592
0.0670586
0.0474936
0.0474932
0.0477902
0.0477899
0.0665258
0.0664077
0.0669501
0.0668326
0.0474223
0.0473513
0.0477192
0.0476488
0.0664796
0.0665024
0.0669048
0.0669283
0.0474369
0.0473178
0.0477339
0.0476153
0.0655941
0.0655719
0.0660597
0.0660365
0.0466842
0.0468034
0.0470083
0.0471269
0.0654992
0.0656163
0.0659637
0.0660806
0.0467156
0.0467862
0.0470399
0.0471104
0.0657241
0.0657235
0.0661883
0.0661876
0.0468569
0.0468566
0.0471808
0.0471805
0.0656143
0.0654959
0.0660787
0.0659605
0.0467851
0.0467138
0.0471093
0.0470381
0.0655674
0.065588
0.0660319
0.0660534
0.0468006
0.0466801
0.047124
0.0470041
0.0645992
0.0645787
0.0651055
0.0650842
0.0459928
0.0461129
0.0463441
0.0464638
0.0645051
0.0646217
0.0650114
0.0651283
0.0460231
0.0460933
0.0463752
0.0464457
0.0647293
0.0647287
0.065236
0.0652353
0.0461641
0.0461637
0.0465164
0.0465161
0.0646198
0.0645019
0.0651263
0.0650081
0.0460922
0.0460212
0.0464446
0.0463734
0.0645742
0.0645931
0.0650797
0.0650993
0.0461102
0.0459888
0.046461
0.0463401
0.0635183
0.0634987
0.0640684
0.0640485
0.0452447
0.0453651
0.0456248
0.0457452
0.0634231
0.0635382
0.0639742
0.06409
0.0452723
0.0453413
0.045654
0.0457237
0.063645
0.0636444
0.0641973
0.0641967
0.0454118
0.0454114
0.0457943
0.045794
0.0635362
0.0634199
0.0640881
0.0639709
0.0453402
0.0452704
0.0457226
0.0456522
0.0634942
0.0635122
0.064044
0.0640623
0.0453625
0.0452408
0.0457424
0.0456209
0.0623437
0.0623248
0.0629418
0.0629226
0.0444358
0.0445565
0.044847
0.0449676
0.0622454
0.0623579
0.0628454
0.0629592
0.0444589
0.044526
0.0448726
0.0449407
0.0624637
0.062463
0.0630655
0.0630649
0.0445958
0.0445955
0.0450108
0.0450105
0.062356
0.0622422
0.0629573
0.0628422
0.044525
0.0444571
0.0449396
0.0448708
0.0623204
0.0623378
0.0629182
0.0629357
0.0445538
0.044432
0.0449649
0.0448431
0.0610661
0.0610468
0.061717
0.061698
0.0435606
0.0436806
0.0440057
0.0441261
0.0609623
0.0610714
0.0616164
0.0617272
0.0435773
0.0436418
0.044026
0.0440917
0.0611756
0.061175
0.0618322
0.0618315
0.0437106
0.0437102
0.044161
0.0441607
0.0610696
0.0609591
0.0617253
0.0616132
0.0436407
0.0435755
0.0440907
0.0440241
0.0610425
0.0610603
0.0616937
0.0617111
0.043678
0.0435569
0.0441235
0.0440019
0.0596743
0.0596535
0.0603839
0.0603639
0.0426125
0.0427307
0.043095
0.0432142