/*--------------------------------*- C++ -*----------------------------------*\
  =========                 |
  \\      /  F ield         | OpenFOAM: The Open Source CFD Toolbox
   \\    /   O peration     | Website:  https://openfoam.org
    \\  /    A nd           | Version:  9
     \\/     M anipulation  |
\*---------------------------------------------------------------------------*/
FoamFile
{
    format      ascii;
    class       volScalarField;
    location    "4.2";
    object      p;
}
// * * * * * * * * * * * * * * * * * * * * * * * * * * * * * * * * * * * * * //

dimensions      [0 2 -2 0 0 0 0];

internalField   nonuniform List<scalar> 
36360
(
20.2398
19.9957
20.2299
20.0072
19.9956
20.1835
20.0177
20.1513
20.0814
20.0985
20.0875
20.1057
20.1105
20.0953
20.0988
20.0919
20.1005
20.1005
20.1079
20.1079
20.0937
20.0937
20.0915
20.0915
20.0985
20.0814
20.1057
20.0875
20.0953
20.1105
20.0919
20.0988
19.9957
20.2397
20.0072
20.2298
20.1835
19.9956
20.1512
20.0178
20.1165
20.0694
20.1614
20.0469
19.8998
20.2533
19.9452
20.2267
20.1114
20.1024
20.0983
20.0993
20.1447
20.1033
20.1289
20.0993
20.097
20.097
20.0976
20.0976
20.0951
20.0951
20.0947
20.0947
20.1024
20.1114
20.0993
20.0983
20.1033
20.1447
20.0993
20.1289
20.0694
20.1165
20.0469
20.1613
20.2533
19.8999
20.2266
19.9453
20.0669
20.0839
20.0881
20.0795
19.8421
20.2768
19.8667
20.2685
20.1323
20.1127
20.123
20.1074
20.1688
20.1138
20.158
20.1083
20.0997
20.0997
20.0979
20.0979
20.0984
20.0984
20.0964
20.0964
20.1127
20.1323
20.1073
20.123
20.1138
20.1688
20.1083
20.158
20.0839
20.0669
20.0795
20.0881
20.2768
19.8422
20.2685
19.8667
20.0384
20.0848
20.0508
20.0852
19.8092
20.2825
19.8235
20.2808
20.1445
20.1224
20.1393
20.1178
20.1829
20.1242
20.177
20.1192
20.1052
20.1052
20.1023
20.1023
20.1037
20.1037
20.1009
20.1009
20.1224
20.1445
20.1177
20.1393
20.1242
20.1829
20.1192
20.177
20.0848
20.0384
20.0852
20.0508
20.2824
19.8092
20.2808
19.8236
20.0209
20.0818
20.0287
20.0835
19.789
20.2821
19.7979
20.2827
20.1509
20.1302
20.1483
20.1265
20.1902
20.1327
20.1872
20.1288
20.1113
20.1113
20.1083
20.1083
20.1097
20.1097
20.1067
20.1067
20.1301
20.1509
20.1265
20.1483
20.1327
20.1902
20.1288
20.1872
20.0818
20.0209
20.0835
20.0287
20.2821
19.789
20.2826
19.798
20.0093
20.078
20.0145
20.0799
19.7757
20.2799
19.7817
20.2811
20.1539
20.1359
20.1527
20.1333
20.1939
20.1388
20.1924
20.1361
20.1169
20.1169
20.1142
20.1142
20.1153
20.1153
20.1126
20.1126
20.1359
20.1539
20.1333
20.1527
20.1388
20.1939
20.136
20.1923
20.078
20.0093
20.0799
20.0145
20.2799
19.7758
20.2811
19.7817
20.0012
20.0744
20.0049
20.0762
19.7666
20.2774
19.7708
20.2787
20.1551
20.1399
20.1547
20.1381
20.1958
20.1431
20.195
20.1412
20.1215
20.1215
20.1194
20.1194
20.12
20.12
20.1178
20.1178
20.1399
20.1551
20.1381
20.1547
20.1431
20.1958
20.1411
20.195
20.0744
20.0012
20.0762
20.0049
20.2774
19.7666
20.2786
19.7709
19.9953
20.0712
19.998
20.0728
19.7601
20.275
19.763
20.2762
20.1554
20.1426
20.1554
20.1414
20.1966
20.1459
20.1963
20.1447
20.125
20.125
20.1234
20.1234
20.1237
20.1237
20.122
20.122
20.1425
20.1554
20.1414
20.1554
20.1459
20.1965
20.1447
20.1963
20.0712
19.9953
20.0728
19.998
20.275
19.7601
20.2763
19.7627
19.9907
20.0684
19.9928
20.0698
19.7556
20.2726
19.7577
20.2737
20.1551
20.1441
20.1553
20.1435
20.1966
20.1476
20.1967
20.1469
20.1275
20.1275
20.1264
20.1264
20.1263
20.1263
20.1251
20.1251
20.1441
20.1551
20.1434
20.1553
20.1476
20.1966
20.1468
20.1965
20.0684
19.9907
20.0698
19.9928
20.2725
19.7559
20.2735
19.7583
19.9871
20.066
19.9888
20.0672
19.7519
20.2704
19.7537
20.2715
20.1544
20.1449
20.1548
20.1446
20.1962
20.1486
20.1965
20.1482
20.129
20.129
20.1283
20.1283
20.128
20.128
20.1273
20.1273
20.1449
20.1544
20.1446
20.1548
20.1486
20.1963
20.1482
20.1965
20.066
19.9871
20.0673
19.9888
20.2705
19.7517
20.2716
19.7533
19.9841
20.0637
19.9855
20.0648
19.7493
20.2682
19.7507
20.2692
20.1533
20.145
20.1539
20.145
20.1954
20.1489
20.1959
20.1488
20.1297
20.1297
20.1294
20.1294
20.1289
20.1289
20.1286
20.1286
20.145
20.1533
20.145
20.1539
20.1489
20.1954
20.1488
20.1959
20.0638
19.984
20.0649
19.9855
20.2682
19.7492
20.2693
19.7504
19.9814
20.0616
19.9827
20.0627
19.7477
20.2657
19.7481
20.2671
20.1519
20.1445
20.1526
20.1448
20.1942
20.1485
20.1949
20.1488
20.1296
20.1296
20.1297
20.1297
20.1291
20.1291
20.1291
20.1291
20.1445
20.1519
20.1448
20.1527
20.1485
20.1943
20.1488
20.1949
20.0617
19.9812
20.0627
19.9826
20.266
19.7468
20.267
19.7481
19.9789
20.0595
19.98
20.0605
19.7456
20.2635
19.7469
20.2645
20.1502
20.1435
20.1511
20.144
20.1927
20.1476
20.1935
20.1481
20.1289
20.1289
20.1293
20.1294
20.1286
20.1286
20.129
20.129
20.1435
20.1502
20.1441
20.1511
20.1476
20.1927
20.1481
20.1936
20.0596
19.9788
20.0607
19.9799
20.2635
19.7453
20.2647
19.746
19.9765
20.0574
19.9777
20.0584
19.744
20.2608
19.7449
20.2621
20.1483
20.142
20.1493
20.1428
20.1908
20.1462
20.1918
20.1469
20.1277
20.1277
20.1284
20.1284
20.1276
20.1276
20.1282
20.1282
20.1419
20.1482
20.1428
20.1492
20.1462
20.1907
20.1469
20.1918
20.0572
19.9766
20.0584
19.9777
20.2606
19.7443
20.2622
19.7447
19.9742
20.055
19.9753
20.0563
19.7422
20.2583
19.743
20.2596
20.1461
20.14
20.1472
20.1411
20.1886
20.1443
20.1898
20.1453
20.126
20.126
20.1269
20.1269
20.126
20.126
20.1269
20.1269
20.14
20.1461
20.141
20.1472
20.1444
20.1887
20.1453
20.1897
20.0552
19.9742
20.0562
19.9754
20.2585
19.7413
20.2595
19.7429
19.9719
20.0525
19.9731
20.0538
19.741
20.2551
19.7414
20.2569
20.1435
20.1376
20.1448
20.1389
20.1858
20.1419
20.1873
20.1432
20.1237
20.1237
20.1249
20.1249
20.1238
20.1238
20.125
20.125
20.1376
20.1435
20.1389
20.1449
20.1419
20.1858
20.1432
20.1874
20.0526
19.9717
20.0539
19.973
20.2551
19.741
20.2569
19.7408
19.9693
20.0501
19.9705
20.0513
19.7395
20.2518
19.7405
20.2533
20.1407
20.1348
20.1421
20.1363
20.1827
20.139
20.1843
20.1405
20.121
20.121
20.1224
20.1224
20.1211
20.1211
20.1225
20.1225
20.1348
20.1407
20.1363
20.1421
20.139
20.1826
20.1405
20.1842
20.05
19.9693
20.0513
19.9705
20.2516
19.7401
20.2533
19.7408
19.9668
20.0475
19.9681
20.0488
19.7381
20.248
19.7388
20.2499
20.1377
20.1316
20.1392
20.1333
20.1792
20.1357
20.181
20.1374
20.1179
20.1179
20.1195
20.1195
20.1178
20.1179
20.1195
20.1195
20.1317
20.1377
20.1333
20.1392
20.1357
20.1793
20.1374
20.181
20.0473
19.967
20.0487
19.9682
20.2483
19.7378
20.25
19.7389
19.964
20.0446
19.9654
20.0461
19.7363
20.2441
19.737
20.2461
20.1345
20.1282
20.1361
20.13
20.1753
20.1319
20.1773
20.1339
20.1144
20.1144
20.1162
20.1162
20.1142
20.1142
20.1161
20.1161
20.1281
20.1344
20.1299
20.1361
20.1319
20.1753
20.1339
20.1773
20.0446
19.9643
20.0459
19.9656
20.244
19.7368
20.246
19.7376
19.9614
20.0417
19.9627
20.0432
19.7344
20.24
19.7353
20.2421
20.1311
20.1244
20.1329
20.1263
20.1711
20.1278
20.1733
20.1299
20.1107
20.1107
20.1126
20.1126
20.1101
20.1101
20.1122
20.1122
20.1244
20.1312
20.1263
20.1329
20.1278
20.1711
20.1299
20.1733
20.0419
19.9611
20.0433
19.9627
20.2398
19.7345
20.242
19.7356
19.9587
20.0386
19.9601
20.0402
19.7332
20.2352
19.7338
20.2376
20.1276
20.1204
20.1294
20.1224
20.1664
20.1232
20.1688
20.1255
20.1067
20.1067
20.1087
20.1087
20.1055
20.1055
20.1078
20.1078
20.1204
20.1276
20.1225
20.1294
20.1232
20.1663
20.1256
20.1688
20.0387
19.9586
20.0404
19.9597
20.2349
19.7337
20.2374
19.7341
19.956
20.0358
19.9573
20.0372
19.7315
20.2304
19.7322
20.2329
20.124
20.1162
20.1258
20.1184
20.1616
20.1184
20.1641
20.1209
20.1025
20.1024
20.1046
20.1046
20.1007
20.1007
20.1032
20.1032
20.1161
20.1239
20.1184
20.1257
20.1184
20.1615
20.1208
20.164
20.0357
19.9561
20.0372
19.9574
20.2304
19.7315
20.2328
19.7324
19.9533
20.0329
19.9546
20.0343
19.7299
20.2255
19.7308
20.2279
20.1205
20.1118
20.1222
20.114
20.1565
20.1133
20.159
20.1158
20.0981
20.0981
20.1003
20.1003
20.0957
20.0957
20.0982
20.0982
20.1117
20.1204
20.1139
20.1222
20.1132
20.1564
20.1158
20.1589
20.0329
19.9533
20.0343
19.9547
20.2252
19.7303
20.2278
19.731
19.9505
20.0304
19.9518
20.0317
19.7295
20.22
19.7296
20.2228
20.117
20.1075
20.1187
20.1096
20.1511
20.108
20.1538
20.1106
20.0938
20.0938
20.096
20.096
20.0905
20.0905
20.0931
20.0931
20.1075
20.117
20.1096
20.1187
20.1081
20.1513
20.1107
20.1538
20.0304
19.9507
20.0317
19.9518
20.2203
19.7282
20.2226
19.7294
19.9487
20.0277
19.9495
20.029
19.7282
20.2151
19.7291
20.2174
20.1138
20.1034
20.1154
20.1054
20.146
20.1027
20.1485
20.1053
20.0897
20.0897
20.0917
20.0917
20.0852
20.0853
20.0878
20.0879
20.1034
20.1139
20.1054
20.1154
20.1028
20.1461
20.1054
20.1487
20.028
19.9485
20.0291
19.9497
20.2152
19.7271
20.2178
19.7274
19.9467
20.0259
19.9477
20.0268
19.7271
20.2103
19.7274
20.2128
20.111
20.0996
20.1124
20.1015
20.141
20.0976
20.1435
20.1002
20.0858
20.0858
20.0877
20.0877
20.0801
20.0801
20.0827
20.0827
20.0996
20.111
20.1015
20.1125
20.0976
20.141
20.1002
20.1436
20.0259
19.9468
20.0269
19.9475
20.2103
19.7265
20.2127
19.7269
19.9454
20.0244
19.946
20.0251
19.7259
20.2061
19.7263
20.2082
20.1077
20.0961
20.1093
20.0978
20.1362
20.0927
20.1386
20.0951
20.0823
20.0823
20.084
20.084
20.0752
20.0752
20.0776
20.0776
20.0961
20.1076
20.0978
20.1093
20.0926
20.136
20.0951
20.1385
20.0244
19.9456
20.0251
19.9461
20.2057
19.7265
20.208
19.7265
19.945
20.0234
19.9451
20.0239
19.7267
20.2017
19.7263
20.2038
20.105
20.0931
20.1063
20.0946
20.1315
20.088
20.1338
20.0903
20.0793
20.0793
20.0807
20.0807
20.0707
20.0707
20.0729
20.0729
20.0931
20.105
20.0945
20.1062
20.088
20.1314
20.0902
20.1337
20.0235
19.945
20.0239
19.9451
20.2017
19.7268
20.2037
19.7264
19.9454
20.0233
19.9451
20.0233
19.728
20.198
19.7273
20.1998
20.103
20.0907
20.1039
20.0918
20.1273
20.0838
20.1293
20.0858
20.0769
20.0769
20.078
20.078
20.0667
20.0667
20.0686
20.0686
20.0907
20.103
20.0918
20.1039
20.0838
20.1273
20.0858
20.1293
20.0233
19.9454
20.0233
19.9451
20.198
19.7281
20.1998
19.7273
19.9466
20.0239
19.9458
20.0235
19.7304
20.1948
19.7291
20.1963
20.1018
20.089
20.1024
20.0898
20.1237
20.0802
20.1254
20.0819
20.0752
20.0752
20.076
20.076
20.0633
20.0633
20.0649
20.0649
20.089
20.1018
20.0898
20.1024
20.0802
20.1237
20.0819
20.1254
20.0239
19.9466
20.0235
19.9458
20.1948
19.7305
20.1963
19.7291
19.9489
20.0255
19.9476
20.0246
19.7341
20.1923
19.7321
20.1935
20.1014
20.0881
20.1016
20.0885
20.1207
20.0774
20.1221
20.0787
20.0745
20.0745
20.0747
20.0747
20.0608
20.0608
20.062
20.062
20.0881
20.1014
20.0885
20.1016
20.0774
20.1207
20.0787
20.1221
20.0255
19.9489
20.0246
19.9476
20.1923
19.7341
20.1935
19.7321
19.9523
20.028
19.9504
20.0267
19.7391
20.1906
19.7364
20.1914
20.1018
20.088
20.1015
20.088
20.1185
20.0754
20.1195
20.0763
20.0747
20.0747
20.0745
20.0745
20.0593
20.0593
20.0599
20.0599
20.088
20.1018
20.088
20.1015
20.0754
20.1185
20.0763
20.1195
20.028
19.9523
20.0267
19.9504
20.1906
19.7391
20.1914
19.7364
19.957
20.0314
19.9544
20.0296
19.7457
20.1898
19.7422
20.1901
20.103
20.0889
20.1023
20.0884
20.1171
20.0744
20.1177
20.0748
20.076
20.076
20.0752
20.0752
20.0589
20.0589
20.059
20.059
20.0889
20.103
20.0884
20.1023
20.0744
20.1171
20.0748
20.1177
20.0314
19.957
20.0296
19.9545
20.1898
19.7457
20.1901
19.7422
19.9631
20.0357
19.9598
20.0334
19.754
20.1897
19.7496
20.1896
20.1049
20.0907
20.1039
20.0897
20.1165
20.0745
20.1167
20.0743
20.0783
20.0783
20.077
20.077
20.0598
20.0598
20.0592
20.0592
20.0907
20.1049
20.0897
20.1039
20.0745
20.1165
20.0743
20.1167
20.0357
19.9631
20.0335
19.9598
20.1897
19.754
20.1896
19.7496
19.9706
20.0407
19.9666
20.0381
19.7643
20.1902
19.7589
20.1899
20.1075
20.0935
20.1061
20.092
20.1166
20.0757
20.1164
20.0749
20.0818
20.0818
20.0799
20.0799
20.062
20.062
20.0607
20.0607
20.0935
20.1075
20.092
20.1061
20.0757
20.1166
20.0749
20.1164
20.0407
19.9706
20.0381
19.9666
20.1902
19.7643
20.1899
19.7589
19.9797
20.0463
19.975
20.0435
19.777
20.1912
19.7703
20.1907
20.1107
20.0971
20.109
20.0952
20.1175
20.0781
20.117
20.0767
20.0864
20.0864
20.084
20.084
20.0656
20.0656
20.0636
20.0636
20.0971
20.1107
20.0952
20.109
20.0781
20.1175
20.0767
20.117
20.0463
19.9797
20.0435
19.975
20.1912
19.7771
20.1907
19.7704
19.9901
20.0523
19.9848
20.0493
19.7929
20.192
19.7845
20.1917
20.1142
20.1017
20.1124
20.0993
20.1189
20.0817
20.1181
20.0797
20.0922
20.0922
20.0892
20.0892
20.0705
20.0705
20.0679
20.0679
20.1017
20.1142
20.0993
20.1124
20.0817
20.1189
20.0797
20.1181
20.0523
19.9901
20.0493
19.9848
20.192
19.7929
20.1917
19.7845
19.9996
20.0609
19.9954
20.056
19.813
20.1912
19.8023
20.1919
20.1182
20.1072
20.1161
20.1043
20.1206
20.0865
20.1197
20.0839
20.099
20.099
20.0954
20.0954
20.0769
20.0769
20.0736
20.0736
20.1072
20.1182
20.1043
20.1161
20.0865
20.1206
20.0839
20.1197
20.0609
19.9996
20.056
19.9954
20.1911
19.813
20.1919
19.8024
20.0075
20.0707
20.0016
20.0677
19.8382
20.1864
19.8248
20.1895
20.1239
20.114
20.1208
20.1104
20.1232
20.0929
20.1217
20.0895
20.1069
20.1069
20.1028
20.1028
20.0847
20.0847
20.0806
20.0806
20.114
20.1239
20.1104
20.1208
20.0929
20.1232
20.0895
20.1217
20.0707
20.0075
20.0677
20.0016
20.1864
19.8382
20.1895
19.8248
20.4218
19.9452
20.3256
19.9787
20.3767
19.9321
20.3035
19.9678
19.9928
20.0623
20.0298
20.081
20.0209
20.0802
20.0471
20.0918
20.0944
20.0944
20.102
20.102
20.099
20.099
20.1034
20.1034
20.0623
19.9929
20.081
20.0298
20.0802
20.0209
20.0918
20.0471
19.9452
20.4217
19.9787
20.3255
19.9322
20.3766
19.9678
20.3034
20.2862
20.0379
20.3301
20.0152
20.2503
20.0145
20.2933
19.993
20.033
20.0656
20.0185
20.0638
20.0561
20.0837
20.0428
20.0814
20.0851
20.0851
20.089
20.089
20.0938
20.0938
20.0959
20.0959
20.0656
20.033
20.0638
20.0185
20.0837
20.0562
20.0815
20.0428
20.0379
20.2862
20.0152
20.33
20.0145
20.2503
19.993
20.2932
20.2496
20.0432
20.2645
20.0433
20.2094
20.0221
20.2266
20.021
20.0497
20.0744
20.043
20.0699
20.0741
20.0935
20.0663
20.0884
20.0866
20.0866
20.085
20.085
20.0957
20.0957
20.0941
20.0941
20.0744
20.0497
20.0699
20.043
20.0935
20.0741
20.0884
20.0664
20.0432
20.2495
20.0433
20.2644
20.0222
20.2094
20.021
20.2266
20.2301
20.0385
20.2385
20.0411
20.1865
20.019
20.1965
20.0211
20.0567
20.0824
20.054
20.0787
20.0834
20.1027
20.0797
20.0984
20.0924
20.0924
20.0893
20.0893
20.1012
20.1012
20.0982
20.0982
20.0824
20.0567
20.0787
20.054
20.1027
20.0834
20.0984
20.0797
20.0385
20.23
20.0411
20.2384
20.019
20.1865
20.0211
20.1964
20.2181
20.0328
20.2235
20.0356
20.1726
20.014
20.1788
20.0164
20.0591
20.0884
20.0583
20.0856
20.0872
20.1098
20.0859
20.1065
20.0986
20.0986
20.0955
20.0955
20.1074
20.1074
20.1043
20.1043
20.0884
20.0592
20.0856
20.0583
20.1098
20.0872
20.1065
20.0859
20.0328
20.2181
20.0356
20.2234
20.014
20.1725
20.0164
20.1787
20.2101
20.0277
20.2138
20.0301
20.1633
20.0093
20.1675
20.0116
20.0596
20.0925
20.0595
20.0907
20.0883
20.1149
20.088
20.1125
20.1041
20.1041
20.1015
20.1015
20.113
20.113
20.1104
20.1104
20.0925
20.0597
20.0907
20.0596
20.1149
20.0883
20.1125
20.088
20.0277
20.2101
20.0301
20.2137
20.0094
20.1633
20.0116
20.1675
20.2043
20.0232
20.207
20.0254
20.1568
20.0052
20.1598
20.0072
20.0593
20.0953
20.0595
20.0941
20.0883
20.1183
20.0884
20.1168
20.1084
20.1084
20.1064
20.1064
20.1176
20.1176
20.1155
20.1155
20.0953
20.0593
20.0941
20.0595
20.1184
20.0883
20.1168
20.0884
20.0233
20.2042
20.0254
20.207
20.0053
20.1566
20.0072
20.1597
20.1999
20.0195
20.202
20.0213
20.1518
20.0016
20.1542
20.0033
20.0584
20.0971
20.0589
20.0963
20.0877
20.1206
20.088
20.1196
20.1114
20.1115
20.1101
20.1101
20.1209
20.1209
20.1194
20.1194
20.0971
20.0585
20.0963
20.0589
20.1206
20.0878
20.1196
20.0881
20.0195
20.1998
20.0213
20.2019
20.0017
20.1516
20.0034
20.154
20.1963
20.0162
20.198
20.0177
20.1478
19.9985
20.1497
19.9999
20.0573
20.0979
20.0579
20.0976
20.0868
20.122
20.0873
20.1214
20.1135
20.1135
20.1126
20.1126
20.1232
20.1232
20.1222
20.1222
20.098
20.0574
20.0976
20.0579
20.122
20.0869
20.1214
20.0874
20.0162
20.1961
20.0178
20.1979
19.9986
20.1476
20.0001
20.1494
20.1933
20.0132
20.1947
20.0146
20.1446
19.9957
20.1461
19.9971
20.056
20.0982
20.0567
20.0981
20.0857
20.1226
20.0863
20.1224
20.1146
20.1146
20.1141
20.1141
20.1246
20.1246
20.124
20.124
20.0982
20.056
20.0982
20.0567
20.1226
20.0857
20.1224
20.0863
20.0132
20.1932
20.0146
20.1946
19.9957
20.1445
19.9971
20.146
20.1905
20.0104
20.1919
20.0117
20.142
19.9929
20.1433
19.9943
20.0545
20.0978
20.0552
20.0981
20.0843
20.1225
20.085
20.1226
20.1149
20.1149
20.1148
20.1148
20.1251
20.1251
20.1249
20.1249
20.0979
20.0545
20.0981
20.0553
20.1225
20.0843
20.1226
20.0851
20.0104
20.1905
20.0118
20.1918
19.9931
20.1418
19.9944
20.1431
20.1879
20.0078
20.1892
20.0091
20.1395
19.9905
20.1408
19.9917
20.0528
20.097
20.0537
20.0975
20.0827
20.1219
20.0835
20.1222
20.1146
20.1146
20.1148
20.1148
20.1249
20.1249
20.1251
20.1251
20.097
20.0528
20.0975
20.0537
20.1219
20.0827
20.1223
20.0836
20.0078
20.188
20.0091
20.1892
19.9905
20.1394
19.9918
20.1405
20.1856
20.0051
20.1868
20.0064
20.1372
19.988
20.1384
19.9891
20.0509
20.0958
20.0519
20.0965
20.0809
20.1208
20.0818
20.1214
20.1137
20.1137
20.1142
20.1142
20.1242
20.1242
20.1246
20.1246
20.0958
20.0509
20.0965
20.0519
20.1208
20.0809
20.1214
20.0819
20.0051
20.1856
20.0064
20.1868
19.988
20.1371
19.9892
20.1382
20.1833
20.0024
20.1844
20.0038
20.1349
19.9855
20.136
19.9868
20.0488
20.0942
20.0499
20.0951
20.0789
20.1192
20.0799
20.1201
20.1124
20.1124
20.1131
20.1131
20.1229
20.1229
20.1236
20.1236
20.0943
20.0489
20.0951
20.0499
20.1192
20.0788
20.12
20.0799
20.0026
20.1831
20.0038
20.1843
19.9854
20.135
19.9867
20.136
20.1808
19.9998
20.1821
20.001
20.1329
19.9828
20.134
19.984
20.0466
20.0924
20.0477
20.0933
20.0766
20.1173
20.0778
20.1183
20.1106
20.1106
20.1116
20.1116
20.1211
20.1211
20.122
20.122
20.0923
20.0465
20.0933
20.0477
20.1173
20.0765
20.1183
20.0777
19.9996
20.1811
20.0011
20.182
19.9826
20.1331
19.984
20.1341
20.1786
19.9969
20.1798
19.9983
20.1306
19.98
20.1317
19.9814
20.0442
20.0902
20.0454
20.0913
20.0741
20.115
20.0754
20.1162
20.1085
20.1085
20.1096
20.1096
20.1189
20.1189
20.12
20.12
20.0902
20.0442
20.0913
20.0454
20.115
20.0742
20.1162
20.0754
19.997
20.1785
19.9982
20.1799
19.9802
20.1305
19.9813
20.1319
20.1758
19.9944
20.1773
19.9956
20.128
19.9775
20.1294
19.9787
20.0418
20.0878
20.043
20.089
20.0716
20.1124
20.0728
20.1137
20.1062
20.1062
20.1074
20.1074
20.1163
20.1163
20.1176
20.1176
20.0878
20.0417
20.089
20.0429
20.1124
20.0715
20.1137
20.0729
19.9942
20.1762
19.9956
20.1774
19.9774
20.128
19.9788
20.1293
20.1736
19.9915
20.1747
19.9929
20.1253
19.9748
20.1267
19.9762
20.0392
20.0852
20.0405
20.0865
20.0688
20.1095
20.0702
20.111
20.1036
20.1036
20.1049
20.1049
20.1134
20.1134
20.1149
20.1149
20.0853
20.0393
20.0866
20.0405
20.1095
20.0689
20.111
20.0702
19.9919
20.173
19.993
20.1746
19.975
20.1253
19.9762
20.1266
20.1706
19.9891
20.1721
19.9903
20.1225
19.9723
20.124
19.9735
20.0368
20.0826
20.0379
20.0839
20.066
20.1064
20.0674
20.108
20.1008
20.1008
20.1022
20.1022
20.1103
20.1103
20.1119
20.1119
20.0826
20.0367
20.084
20.038
20.1064
20.066
20.108
20.0674
19.989
20.1707
19.9904
20.1718
19.9722
20.1226
19.9736
20.1239
20.1682
19.9864
20.1694
19.9877
20.1198
19.9695
20.1212
19.9709
20.0342
20.0799
20.0355
20.0813
20.063
20.1031
20.0645
20.1048
20.098
20.098
20.0994
20.0994
20.107
20.107
20.1086
20.1086
20.08
20.0343
20.0813
20.0355
20.1031
20.0631
20.1048
20.0645
19.9866
20.1679
19.9878
20.1693
19.9696
20.1199
19.9708
20.1213
20.1651
19.9845
20.1666
19.9854
20.1169
19.9672
20.1184
19.9684
20.032
20.0773
20.0331
20.0786
20.0602
20.0996
20.0616
20.1014
20.0952
20.0952
20.0966
20.0966
20.1035
20.1035
20.1052
20.1052
20.0773
20.0319
20.0786
20.0331
20.0996
20.0601
20.1014
20.0616
19.9842
20.1656
19.9853
20.1668
19.967
20.1171
19.9683
20.1185
20.1632
19.9821
20.1641
19.9832
20.1146
19.9646
20.1158
19.9658
20.0298
20.0748
20.0309
20.0761
20.0572
20.0965
20.0586
20.0979
20.0925
20.0925
20.0938
20.0938
20.1001
20.1001
20.1018
20.1018
20.0749
20.0299
20.076
20.0309
20.0965
20.0573
20.0978
20.0586
19.9825
20.1626
19.9833
20.164
19.9648
20.1144
19.9658
20.1158
20.1607
19.9806
20.1619
19.9813
20.1119
19.9626
20.1132
19.9636
20.028
20.0726
20.0288
20.0736
20.0545
20.0936
20.0559
20.0951
20.0899
20.0899
20.0911
20.0911
20.0967
20.0967
20.0984
20.0984
20.0726
20.0279
20.0736
20.0289
20.0936
20.0544
20.0951
20.0558
19.9804
20.1611
19.9814
20.1618
19.9624
20.1121
19.9636
20.1132
20.1596
19.9789
20.1601
19.9797
20.1099
19.9607
20.1108
19.9616
20.0264
20.0707
20.0271
20.0716
20.0518
20.0907
20.0531
20.0921
20.0876
20.0876
20.0887
20.0887
20.0935
20.0935
20.0951
20.0951
20.0707
20.0265
20.0716
20.0271
20.0907
20.0518
20.0921
20.0531
19.9792
20.1591
19.9797
20.1601
19.9607
20.1099
19.9615
20.111
20.1577
19.9785
20.1586
19.9786
20.108
19.9594
20.1089
19.96
20.0255
20.0693
20.0258
20.0699
20.0492
20.088
20.0505
20.0893
20.0857
20.0857
20.0866
20.0866
20.0906
20.0906
20.092
20.092
20.0692
20.0254
20.0699
20.0259
20.088
20.049
20.0893
20.0504
19.9782
20.1583
19.9787
20.1586
19.9591
20.1085
19.9598
20.1092
20.1577
19.978
20.1576
19.9782
20.1072
19.9583
20.1075
19.9588
20.0254
20.0683
20.0253
20.0687
20.0465
20.0858
20.0477
20.0868
20.0842
20.0842
20.0849
20.0849
20.0881
20.0881
20.0893
20.0893
20.0683
20.0255
20.0687
20.0253
20.0858
20.0465
20.0868
20.0476
19.9782
20.1571
19.9781
20.1578
19.9584
20.107
19.9586
20.1078
20.1573
19.9784
20.1575
19.978
20.1065
19.9581
20.1068
19.9581
20.0252
20.0677
20.0251
20.0679
20.0471
20.0842
20.0467
20.0849
20.0833
20.0833
20.0837
20.0837
20.086
20.086
20.087
20.087
20.0677
20.0252
20.0679
20.0252
20.0841
20.0471
20.0849
20.0467
19.9785
20.1574
19.9782
20.1572
19.9581
20.1066
19.9582
20.1067
20.1579
19.9797
20.1575
19.9789
20.1065
19.9587
20.1064
19.9583
20.026
20.0679
20.0255
20.0677
20.0476
20.083
20.0474
20.0835
20.083
20.083
20.0831
20.0831
20.0845
20.0845
20.0852
20.0852
20.0679
20.0261
20.0677
20.0255
20.083
20.0476
20.0835
20.0473
19.9797
20.1578
19.9789
20.1576
19.9588
20.1063
19.9583
20.1065
20.1592
19.9819
20.1585
19.9806
20.107
19.9602
20.1067
19.9593
20.0277
20.0687
20.0268
20.0682
20.0485
20.0826
20.048
20.0827
20.0834
20.0834
20.0831
20.0831
20.0837
20.0837
20.084
20.084
20.0687
20.0277
20.0682
20.0268
20.0826
20.0485
20.0827
20.048
19.9819
20.1592
19.9807
20.1584
19.9602
20.107
19.9594
20.1066
20.1611
19.9851
20.1601
19.9833
20.1084
19.9624
20.1076
19.9612
20.0302
20.0704
20.0289
20.0695
20.05
20.0829
20.0492
20.0827
20.0846
20.0846
20.0839
20.0839
20.0837
20.0837
20.0836
20.0836
20.0704
20.0302
20.0695
20.0289
20.0829
20.0501
20.0827
20.0492
19.9851
20.1611
19.9833
20.1601
19.9624
20.1084
19.9612
20.1076
20.1639
19.99
20.1624
19.9873
20.1107
19.9649
20.1095
19.9636
20.0335
20.0727
20.0318
20.0715
20.0523
20.084
20.0511
20.0834
20.0865
20.0865
20.0855
20.0855
20.0846
20.0846
20.0841
20.0841
20.0727
20.0335
20.0715
20.0318
20.084
20.0523
20.0834
20.0511
19.9901
20.1638
19.9873
20.1624
19.9649
20.1107
19.9636
20.1095
20.1672
19.9933
20.1654
19.9915
20.1139
19.9701
20.1122
19.9674
20.0375
20.0759
20.0354
20.0743
20.0554
20.0859
20.0537
20.0849
20.0893
20.0893
20.0878
20.0878
20.0863
20.0863
20.0854
20.0854
20.0759
20.0375
20.0743
20.0354
20.0859
20.0554
20.0849
20.0537
19.9934
20.1672
19.9915
20.1654
19.9701
20.1139
19.9674
20.1122
20.1712
19.9982
20.1692
19.9956
20.118
19.9756
20.1158
19.9727
20.0422
20.0799
20.0397
20.0778
20.0591
20.0886
20.0572
20.0872
20.0928
20.0928
20.091
20.091
20.089
20.089
20.0876
20.0876
20.0799
20.0422
20.0778
20.0397
20.0886
20.0591
20.0872
20.0572
19.9982
20.1712
19.9956
20.1691
19.9756
20.118
19.9727
20.1158
20.1757
20.0039
20.1734
20.0009
20.1229
19.9818
20.1204
19.9786
20.0475
20.0844
20.0447
20.0821
20.0636
20.0921
20.0613
20.0903
20.0971
20.0971
20.0949
20.0949
20.0926
20.0926
20.0907
20.0907
20.0844
20.0475
20.0821
20.0447
20.0921
20.0636
20.0903
20.0613
20.0039
20.1757
20.0009
20.1734
19.9818
20.1229
19.9786
20.1204
20.1803
20.0103
20.1781
20.007
20.1286
19.9887
20.1257
19.9851
20.0533
20.0895
20.0503
20.0869
20.0686
20.0963
20.066
20.0941
20.102
20.102
20.0995
20.0995
20.097
20.097
20.0947
20.0947
20.0895
20.0534
20.0869
20.0504
20.0963
20.0686
20.0941
20.066
20.0103
20.1803
20.007
20.178
19.9887
20.1286
19.9851
20.1257
20.1845
20.0174
20.1826
20.0137
20.1346
19.9966
20.1316
19.9925
20.0597
20.095
20.0565
20.0922
20.0741
20.1011
20.0713
20.0987
20.1075
20.1075
20.1047
20.1047
20.1022
20.1022
20.0995
20.0995
20.095
20.0597
20.0922
20.0565
20.1011
20.0741
20.0987
20.0713
20.0174
20.1845
20.0137
20.1825
19.9966
20.1346
19.9925
20.1316
20.1868
20.0261
20.186
20.0215
20.1402
20.0059
20.1376
20.0009
20.0665
20.1008
20.0631
20.0979
20.08
20.1064
20.077
20.1037
20.1135
20.1135
20.1104
20.1104
20.1082
20.1082
20.1051
20.1051
20.1008
20.0665
20.0979
20.0631
20.1064
20.08
20.1037
20.077
20.0261
20.1867
20.0215
20.186
20.0059
20.1401
20.0009
20.1375
20.1806
20.0412
20.1857
20.032
20.1404
20.0187
20.1417
20.0112
20.0738
20.1068
20.07
20.1038
20.0862
20.1122
20.083
20.1092
20.1201
20.1201
20.1167
20.1167
20.1149
20.1149
20.1115
20.1115
20.1068
20.0738
20.1038
20.07
20.1122
20.0862
20.1092
20.083
20.0412
20.1806
20.032
20.1857
20.0187
20.1404
20.0112
20.1417
20.198
20.0354
20.1745
20.0518
20.1564
20.0165
20.1377
20.0275
20.0763
20.1138
20.0772
20.1101
20.0905
20.1193
20.0895
20.1156
20.1274
20.1274
20.1236
20.1236
20.1225
20.1225
20.1186
20.1186
20.1138
20.0763
20.1101
20.0772
20.1193
20.0905
20.1156
20.0895
20.0354
20.198
20.0518
20.1745
20.0165
20.1564
20.0275
20.1377
20.4392
19.985
20.3329
20.0064
20.4345
19.9676
20.3311
19.9945
19.9767
20.0393
20.0198
20.0671
19.9807
20.0486
20.0221
20.0727
20.0781
20.0781
20.0934
20.0934
20.0863
20.0863
20.098
20.098
20.0393
19.9768
20.0671
20.0198
20.0486
19.9807
20.0727
20.0221
19.985
20.4391
20.0064
20.3328
19.9676
20.4344
19.9945
20.3311
20.2793
20.0948
20.3288
20.0693
20.2864
20.0702
20.3328
20.0454
20.0303
20.0439
20.0113
20.0419
20.0274
20.0522
20.0113
20.0504
20.0627
20.0627
20.0693
20.0693
20.0736
20.0736
20.079
20.079
20.0439
20.0303
20.0419
20.0114
20.0522
20.0274
20.0504
20.0113
20.0948
20.2792
20.0692
20.3287
20.0702
20.2863
20.0454
20.3328
20.2433
20.0996
20.2573
20.1001
20.2508
20.0748
20.2649
20.0754
20.0482
20.0522
20.0417
20.048
20.0444
20.0607
20.0378
20.0564
20.0625
20.0625
20.0613
20.0613
20.0742
20.0742
20.0727
20.0727
20.0522
20.0482
20.048
20.0417
20.0607
20.0445
20.0564
20.0378
20.0995
20.2433
20.1001
20.2573
20.0748
20.2507
20.0754
20.2649
20.226
20.0944
20.2334
20.0972
20.2329
20.0695
20.2406
20.0723
20.0536
20.0591
20.0517
20.056
20.0506
20.0678
20.0484
20.0646
20.0678
20.0678
20.0649
20.0649
20.0797
20.0797
20.0767
20.0767
20.0591
20.0536
20.056
20.0517
20.0679
20.0506
20.0646
20.0484
20.0944
20.226
20.0972
20.2334
20.0695
20.2328
20.0723
20.2405
20.2156
20.0888
20.2203
20.0915
20.2219
20.0639
20.2268
20.0666
20.0548
20.0639
20.0545
20.0617
20.0524
20.0729
20.0518
20.0706
20.0736
20.0736
20.0708
20.0708
20.0858
20.0858
20.0828
20.0829
20.0639
20.0548
20.0617
20.0545
20.073
20.0524
20.0706
20.0518
20.0887
20.2156
20.0915
20.2202
20.0639
20.2219
20.0666
20.2268
20.2085
20.0839
20.2118
20.0862
20.2145
20.0589
20.2179
20.0613
20.0548
20.0669
20.0549
20.0656
20.0525
20.0764
20.0525
20.0749
20.0783
20.0783
20.0761
20.0761
20.0909
20.0909
20.0885
20.0885
20.0669
20.0548
20.0656
20.0549
20.0764
20.0525
20.0749
20.0525
20.0839
20.2084
20.0862
20.2117
20.0589
20.2145
20.0613
20.2179
20.2032
20.0797
20.2057
20.0817
20.2091
20.0546
20.2116
20.0567
20.0542
20.0688
20.0545
20.068
20.0518
20.0787
20.0522
20.0777
20.0818
20.0818
20.0802
20.0802
20.0948
20.0948
20.093
20.093
20.0688
20.0542
20.068
20.0545
20.0787
20.0519
20.0777
20.0522
20.0797
20.2032
20.0817
20.2056
20.0546
20.209
20.0567
20.2116
20.1991
20.0762
20.2011
20.0779
20.2049
20.051
20.2069
20.0527
20.0532
20.0698
20.0537
20.0694
20.0509
20.08
20.0514
20.0795
20.0842
20.0842
20.0831
20.0831
20.0975
20.0975
20.0963
20.0963
20.0698
20.0532
20.0694
20.0538
20.08
20.0509
20.0795
20.0514
20.0762
20.1991
20.0779
20.201
20.051
20.2048
20.0527
20.2068
20.1958
20.0731
20.1974
20.0746
20.2015
20.0478
20.2031
20.0493
20.052
20.0702
20.0526
20.0701
20.0496
20.0806
20.0503
20.0804
20.0856
20.0856
20.085
20.085
20.0992
20.0992
20.0985
20.0985
20.0702
20.052
20.0701
20.0527
20.0806
20.0497
20.0804
20.0503
20.0731
20.1957
20.0746
20.1973
20.0478
20.2014
20.0493
20.203
20.1929
20.0702
20.1943
20.0716
20.1985
20.0449
20.2
20.0463
20.0506
20.07
20.0513
20.0702
20.0482
20.0806
20.0489
20.0807
20.0862
20.0862
20.086
20.086
20.1
20.1001
20.0997
20.0997
20.07
20.0506
20.0702
20.0514
20.0806
20.0482
20.0807
20.049
20.0702
20.1928
20.0716
20.1942
20.0449
20.1985
20.0463
20.1999
20.1902
20.0675
20.1915
20.0688
20.1958
20.0421
20.1972
20.0434
20.049
20.0694
20.0498
20.0697
20.0466
20.0801
20.0474
20.0804
20.0862
20.0862
20.0863
20.0863
20.1002
20.1002
20.1002
20.1002
20.0694
20.049
20.0697
20.0498
20.0801
20.0466
20.0804
20.0474
20.0675
20.1902
20.0688
20.1915
20.0421
20.1958
20.0434
20.1971
20.1878
20.0649
20.189
20.0662
20.1933
20.0395
20.1946
20.0408
20.0473
20.0683
20.0482
20.0689
20.0448
20.0792
20.0457
20.0797
20.0857
20.0857
20.086
20.086
20.0998
20.0998
20.1
20.1001
20.0683
20.0473
20.0689
20.0482
20.0792
20.0448
20.0797
20.0457
20.0649
20.1878
20.0662
20.189
20.0395
20.1933
20.0408
20.1946
20.1854
20.0623
20.1866
20.0636
20.191
20.0368
20.1922
20.0381
20.0454
20.067
20.0463
20.0677
20.0429
20.0779
20.0439
20.0786
20.0847
20.0847
20.0852
20.0852
20.0988
20.0988
20.0994
20.0994
20.067
20.0454
20.0677
20.0463
20.0779
20.0429
20.0786
20.0439
20.0623
20.1854
20.0636
20.1866
20.0368
20.1909
20.0381
20.1921
20.183
20.0598
20.1842
20.061
20.1885
20.0342
20.1898
20.0355
20.0433
20.0654
20.0443
20.0662
20.0408
20.0763
20.0418
20.0771
20.0833
20.0833
20.0841
20.0841
20.0975
20.0975
20.0982
20.0982
20.0654
20.0433
20.0662
20.0443
20.0763
20.0408
20.0771
20.0419
20.0597
20.183
20.061
20.1842
20.0342
20.1885
20.0355
20.1897
20.1806
20.0572
20.1818
20.0585
20.1861
20.0316
20.1873
20.0329
20.0411
20.0635
20.0422
20.0645
20.0386
20.0744
20.0397
20.0754
20.0817
20.0817
20.0826
20.0826
20.0958
20.0958
20.0967
20.0967
20.0635
20.0411
20.0645
20.0422
20.0744
20.0386
20.0754
20.0397
20.0573
20.1806
20.0585
20.1818
20.0317