/*--------------------------------*- C++ -*----------------------------------*\
  =========                 |
  \\      /  F ield         | OpenFOAM: The Open Source CFD Toolbox
   \\    /   O peration     | Website:  https://openfoam.org
    \\  /    A nd           | Version:  9
     \\/     M anipulation  |
\*---------------------------------------------------------------------------*/
FoamFile
{
    format      ascii;
    class       volScalarField;
    location    "1.9";
    object      k;
}
// * * * * * * * * * * * * * * * * * * * * * * * * * * * * * * * * * * * * * //

dimensions      [0 2 -2 0 0 0 0];

internalField   nonuniform List<scalar> 
36360
(
0.0658913
0.0528192
0.0251266
0.0224379
0.0136634
0.009957
0.00499838
0.00433548
0.0165353
0.00404005
0.00518936
0.00280499
0.00373974
0.00223543
0.00300139
0.00298292
0.00199822
0.00199782
0.00279042
0.00279045
0.00217316
0.00217315
0.00298846
0.00298845
0.00403796
0.0165331
0.00280468
0.0051885
0.00223522
0.00373923
0.00298291
0.00300126
0.0528277
0.0659146
0.0224391
0.0251362
0.00995851
0.0136687
0.00433555
0.00499911
0.118911
0.0973609
0.0967166
0.0781273
0.0370434
0.0273923
0.026872
0.0194905
0.0478993
0.0198871
0.0335215
0.00991857
0.0127278
0.00408866
0.00714232
0.00254252
0.00549231
0.00548854
0.00254927
0.00254765
0.00169278
0.0016921
0.00170422
0.00170419
0.0198836
0.0479069
0.00991356
0.0335238
0.00408701
0.0127289
0.00254178
0.00714186
0.0973856
0.118955
0.0781439
0.0967509
0.0274004
0.0370594
0.0194951
0.026883
0.146422
0.122004
0.134855
0.111546
0.0495306
0.0379129
0.0443366
0.0334598
0.0678511
0.0356789
0.0591992
0.0285018
0.0210008
0.00966766
0.0174062
0.00696202
0.0187332
0.0187334
0.0118867
0.0118831
0.00368927
0.0036877
0.00226747
0.00226629
0.0356855
0.067872
0.0285025
0.059213
0.00966716
0.0210065
0.00696022
0.0174095
0.122046
0.146488
0.111579
0.13491
0.0379282
0.049556
0.0334714
0.0443573
0.160864
0.135236
0.154821
0.129679
0.0558567
0.0434467
0.0532353
0.0411423
0.0791624
0.0457443
0.0743678
0.0413988
0.0256047
0.0135692
0.0236727
0.0118878
0.0289903
0.0289965
0.0245251
0.0245287
0.00695427
0.00695415
0.00544487
0.00544394
0.0457627
0.0791979
0.0414115
0.074396
0.0135725
0.0256158
0.0118892
0.0236812
0.135296
0.160953
0.12973
0.154898
0.0434692
0.0558916
0.0411612
0.0532655
0.168132
0.141945
0.165165
0.139205
0.0589421
0.0461686
0.0576947
0.0450687
0.0850209
0.0511505
0.0826244
0.0489342
0.0279067
0.0156145
0.0269759
0.0147868
0.0345349
0.0345448
0.0322709
0.0322791
0.00891359
0.00891486
0.00811184
0.00811248
0.0511778
0.0850685
0.0489575
0.0826665
0.0156211
0.0279223
0.0147919
0.0269894
0.142022
0.168241
0.139274
0.165264
0.0461973
0.0589853
0.0450945
0.0577341
0.171442
0.144998
0.17015
0.143809
0.0603023
0.0473619
0.0597781
0.0469047
0.0876899
0.0536073
0.0866546
0.0526606
0.0289152
0.0164977
0.0285298
0.0161649
0.0370105
0.0370225
0.0360655
0.0360766
0.00976778
0.00976982
0.009449
0.00945073
0.0536402
0.0877455
0.0526912
0.0867068
0.0165062
0.0289336
0.0161726
0.028547
0.145086
0.171565
0.143892
0.170267
0.0473948
0.0603512
0.0469358
0.0598245
0.172718
0.146169
0.172264
0.145754
0.0608075
0.0477956
0.0606315
0.0476473
0.0887081
0.0545279
0.0883508
0.0542094
0.0292832
0.0168051
0.0291571
0.0167034
0.0379119
0.0379248
0.037606
0.0376186
0.0100534
0.0100558
0.00996236
0.0099646
0.0545634
0.088768
0.054244
0.088409
0.0168144
0.0293031
0.0167124
0.0291764
0.146262
0.172849
0.145845
0.172392
0.0478307
0.0608596
0.0476815
0.0606823
0.173045
0.14647
0.172973
0.146403
0.060929
0.047891
0.060906
0.0478771
0.0889756
0.0547685
0.088916
0.0547162
0.029374
0.016874
0.029356
0.0168631
0.0381369
0.0381502
0.0380928
0.038106
0.0101094
0.0101118
0.0101044
0.0101069
0.0548051
0.0890373
0.0547525
0.088977
0.0168836
0.0293944
0.0168726
0.0293762
0.146567
0.17318
0.146498
0.173106
0.0479271
0.0609825
0.0479129
0.0609589
0.172989
0.146429
0.173053
0.146482
0.0609087
0.0478655
0.0609316
0.0478904
0.0889545
0.0547605
0.0889949
0.0547924
0.0293656
0.0168652
0.0293796
0.0168781
0.0381281
0.0381414
0.0381608
0.0381741
0.0101001
0.0101025
0.0101134
0.0101158
0.0547973
0.0890165
0.0548292
0.0890568
0.0168749
0.0293861
0.0168877
0.0294001
0.146526
0.173125
0.146579
0.173188
0.0479019
0.0609625
0.0479266
0.0609853
0.172768
0.146249
0.172909
0.146366
0.0608256
0.0477871
0.0608798
0.0478378
0.0888223
0.0546633
0.0889137
0.0547351
0.0293177
0.0168273
0.0293514
0.0168547
0.03804
0.0380533
0.0381072
0.0381206
0.0100644
0.0100668
0.0100906
0.010093
0.0547
0.0888843
0.0547719
0.0889757
0.0168369
0.0293381
0.0168643
0.0293719
0.146346
0.172904
0.146463
0.173045
0.0478234
0.0608795
0.0478742
0.0609336
0.172459
0.145998
0.172638
0.146145
0.060712
0.0476836
0.0607792
0.0477448
0.0886333
0.0545156
0.0887491
0.0546109
0.0292485
0.0167721
0.0292918
0.0168081
0.0379049
0.0379181
0.0379952
0.0380086
0.0100131
0.0100155
0.0100475
0.01005
0.0545521
0.088695
0.0546476
0.088811
0.0167816
0.0292688
0.0168177
0.0293122
0.146095
0.172595
0.146242
0.172774
0.0477198
0.0607657
0.0477811
0.060833
0.172093
0.145705
0.172299
0.145872
0.0605782
0.0475642
0.0606549
0.0476331
0.088412
0.0543399
0.0885427
0.0544482
0.0291667
0.0167072
0.029216
0.0167479
0.0377438
0.037757
0.0378464
0.0378596
0.00995303
0.00995537
0.00999196
0.00999432
0.0543762
0.0884733
0.0544846
0.0886043
0.0167166
0.0291869
0.0167573
0.0292363
0.145801
0.172228
0.145968
0.172434
0.0476002
0.0606317
0.0476692
0.0607085
0.171679
0.145377
0.171908
0.14556
0.0604273
0.0474313
0.0605123
0.0475067
0.0881646
0.0541421
0.0883078
0.054261
0.0290743
0.0166339
0.0291287
0.0166786
0.0375623
0.0375754
0.0376747
0.0376878
0.00988565
0.00988793
0.00992813
0.00993044
0.0541781
0.0882255
0.0542972
0.088369
0.0166432
0.0290943
0.016688
0.0291488
0.145472
0.171813
0.145656
0.172042
0.0474671
0.0604805
0.0475426
0.0605657
0.171219
0.145016
0.17147
0.145216
0.06026
0.0472853
0.0603532
0.0473672
0.087893
0.0539237
0.0880483
0.0540528
0.0289718
0.0165527
0.0290312
0.0166014
0.0373614
0.0373744
0.0374835
0.0374965
0.00981116
0.00981338
0.00985717
0.00985943
0.0539594
0.0879535
0.0540887
0.088109
0.0165619
0.0289916
0.0166106
0.0290512
0.145111
0.171352
0.145311
0.171604
0.0473209
0.060313
0.0474029
0.0604063
0.170711
0.144621
0.170986
0.144838
0.0600757
0.0471253
0.0601775
0.0472144
0.087596
0.0536842
0.0877641
0.0538239
0.0288587
0.0164632
0.0289235
0.0165161
0.0371406
0.0371534
0.0372726
0.0372855
0.0097293
0.00973145
0.009779
0.00978119
0.0537195
0.087656
0.0538594
0.0878243
0.0164722
0.0288784
0.0165252
0.0289433
0.144715
0.170843
0.144933
0.171119
0.0471607
0.0601283
0.0472498
0.0602303
0.170154
0.144191
0.170454
0.144426
0.0598736
0.0469509
0.0599843
0.0470472
0.0872728
0.0534227
0.0874541
0.0535734
0.0287348
0.0163651
0.028805
0.0164223
0.0368989
0.0369116
0.0370414
0.0370542
0.00963968
0.00964177
0.00969327
0.0096954
0.0534577
0.0873323
0.0536086
0.0875138
0.016374
0.0287543
0.0164313
0.0288246
0.144284
0.170286
0.14452
0.170586
0.046986
0.0599259
0.0470824
0.0600368
0.169546
0.143724
0.169872
0.143977
0.0596531
0.0467612
0.0597732
0.0468653
0.0869221
0.0531383
0.0871172
0.0533005
0.0285994
0.0162579
0.0286754
0.0163197
0.0366354
0.0366479
0.0367889
0.0368015
0.00954194
0.00954396
0.00959959
0.00960165
0.0531728
0.086981
0.0533353
0.0871764
0.0162666
0.0286187
0.0163285
0.0286948
0.143817
0.169677
0.14407
0.170003
0.0467959
0.0597051
0.0469002
0.0598253
0.168885
0.143218
0.169238
0.143491
0.0594132
0.0465549
0.0595431
0.0466674
0.0865424
0.0528298
0.0867521
0.0530041
0.028452
0.0161412
0.0285341
0.0162077
0.036349
0.0363613
0.036514
0.0365264
0.00943568
0.00943761
0.00949759
0.00949957
0.0528639
0.0866006
0.0530385
0.0868107
0.0161497
0.0284711
0.0162163
0.0285533
0.14331
0.169015
0.143583
0.169368
0.0465894
0.0594648
0.046702
0.0595949
0.168168
0.142671
0.168549
0.142964
0.059153
0.046331
0.0592931
0.0464523
0.0861322
0.0524963
0.0863572
0.0526831
0.028292
0.0160146
0.0283804
0.0160861
0.0360388
0.036051
0.0362157
0.036228
0.00932058
0.00932242
0.00938688
0.00938878
0.05253
0.0861898
0.0527171
0.0864151
0.0160229
0.0283108
0.0160945
0.0283993
0.142762
0.168297
0.143056
0.168678
0.0463651
0.0592042
0.0464866
0.0593444
0.167395
0.142082
0.167804
0.142397
0.058872
0.0460887
0.0590225
0.0462193
0.0856907
0.0521371
0.0859314
0.0523368
0.028119
0.0158777
0.0282138
0.0159543
0.0357042
0.0357162
0.0358933
0.0359054
0.00919637
0.00919812
0.00926719
0.00926899
0.0521702
0.0857476
0.0523702
0.0859887
0.0158858
0.0281375
0.0159625
0.0282325
0.142172
0.167523
0.142487
0.167933
0.0461225
0.0589227
0.0462532
0.0590734
0.166564
0.141451
0.167002
0.141786
0.0585696
0.0458277
0.0587308
0.0459676
0.0852173
0.0517516
0.085474
0.0519643
0.0279326
0.0157304
0.0280342
0.0158122
0.0353446
0.0353563
0.0355461
0.035558
0.00906291
0.00906455
0.0091383
0.00914
0.0517842
0.0852735
0.0519972
0.0855305
0.0157383
0.0279509
0.0158202
0.0280526
0.14154
0.16669
0.141876
0.167129
0.0458611
0.0586199
0.0460013
0.0587813
0.165674
0.140776
0.166141
0.141133
0.0582459
0.0455484
0.0584177
0.0456971
0.0847117
0.0513397
0.0849843
0.0515655
0.027733
0.0155726
0.0278411
0.0156596
0.0349597
0.0349713
0.0351737
0.0351854
0.00892014
0.00892167
0.00900011
0.00900171
0.0513717
0.084767
0.0515979
0.0850401
0.0155802
0.027751
0.0156673
0.0278592
0.140864
0.165799
0.141222
0.166267
0.0455814
0.0582956
0.0457304
0.0584677
0.164726
0.140058
0.165222
0.140437
0.057901
0.0452525
0.0580833
0.0454096
0.0841738
0.0509014
0.0844624
0.0511403
0.0275202
0.0154042
0.0276349
0.0154964
0.0345498
0.0345611
0.0347762
0.0347877
0.00876811
0.00876953
0.00885261
0.0088541
0.0509328
0.0842282
0.051172
0.0845174
0.0154116
0.0275378
0.0155039
0.0276527
0.140146
0.164851
0.140525
0.165347
0.0452851
0.0579502
0.0454425
0.0581328
0.163723
0.139299
0.164247
0.139698
0.0575354
0.0449387
0.0577279
0.0451048
0.0836045
0.0504373
0.0839086
0.0506888
0.0272942
0.0152255
0.0274154
0.0153227
0.0341151
0.0341262
0.0343537
0.0343649
0.00860709
0.00860838
0.00869596
0.00869732
0.050468
0.083658
0.0507199
0.0839626
0.0152326
0.0273115
0.01533
0.0274329
0.139385
0.163846
0.139785
0.16437
0.0449708
0.0575841
0.0451371
0.0577769
0.162667
0.1385
0.163217
0.138918
0.0571502
0.0446077
0.0573523
0.0447821
0.0830052
0.0499486
0.083324
0.0502121
0.0270556
0.0150368
0.027183
0.0151389
0.0336569
0.0336677
0.0339069
0.0339179
0.00843753
0.00843869
0.00853051
0.00853174
0.0499787
0.0830579
0.0502425
0.0833771
0.0150437
0.0270725
0.0151459
0.0272001
0.138585
0.162789
0.139004
0.163339
0.0446394
0.0571983
0.044814
0.0574008
0.161563
0.137664
0.162136
0.1381
0.0567467
0.0442609
0.0569578
0.044443
0.0823782
0.0494372
0.0827104
0.0497117
0.0268051
0.0148389
0.0269382
0.0149455
0.0331768
0.0331873
0.0334374
0.033448
0.0082601
0.00826112
0.00835682
0.00835792
0.0494665
0.0824298
0.0497414
0.0827626
0.0148455
0.0268216
0.0149522
0.026955
0.137747
0.161683
0.138185
0.162256
0.0442921
0.0567942
0.0444745
0.0570056
0.160416
0.136795
0.161009
0.137247
0.056327
0.0438991
0.0565459
0.0440886
0.081726
0.0489051
0.0820702
0.0491894
0.0265436
0.0146326
0.0266821
0.0147432
0.0326767
0.0326869
0.0329468
0.0329572
0.00807564
0.00807652
0.00817565
0.00817661
0.0489337
0.0817766
0.0492184
0.0821214
0.0146388
0.0265598
0.0147496
0.0266984
0.136877
0.160534
0.13733
0.161128
0.0439298
0.0563739
0.0441196
0.0565931
0.159232
0.135899
0.159843
0.136363
0.0558933
0.0435238
0.0561188
0.0437195
0.0810526
0.0483555
0.0814068
0.048648
0.0262727
0.0144189
0.0264156
0.0145329
0.0321594
0.0321693
0.0324376
0.0324477
0.00788522
0.00788595
0.00798796
0.00798877
0.0483832
0.0811022
0.0486762
0.0814569
0.0144248
0.0262885
0.014539
0.0264316
0.13598
0.159349
0.136445
0.15996
0.043554
0.0559396
0.04375
0.0561654
0.158019
0.13498
0.158643
0.135456
0.0554481
0.0431389
0.055679
0.0433391
0.0803617
0.0477915
0.0807241
0.0480906
0.0259938
0.014199
0.0261405
0.0143159
0.031628
0.0316375
0.0319127
0.0319224
0.00769004
0.00769062
0.00779488
0.00779554
0.0478184
0.0804102
0.048118
0.0807732
0.0142046
0.0260091
0.0143217
0.026156
0.13506
0.158133
0.135536
0.158759
0.0431686
0.0554937
0.043369
0.0557249
0.156783
0.134043
0.157417
0.134527
0.0549941
0.0427463
0.055229
0.04295
0.0796569
0.0472164
0.0800257
0.0475205
0.0257084
0.0139743
0.0258581
0.0140934
0.0310857
0.0310949
0.0313752
0.0313846
0.0074915
0.00749192
0.00759772
0.00759823
0.0472424
0.0797043
0.047547
0.0800736
0.0139795
0.0257234
0.0140988
0.0258732
0.134121
0.156896
0.134606
0.157531
0.0427754
0.055039
0.0429794
0.0552743
0.155531
0.133092
0.156172
0.133583
0.0545336
0.0423482
0.0547714
0.0425543
0.0789416
0.0466334
0.0793151
0.0469409
0.0254181
0.0137461
0.02557
0.0138666
0.0305361
0.030545
0.0308287
0.0308378
0.0072911
0.00729137
0.00739794
0.00739829
0.0466586
0.0789878
0.0469666
0.079362
0.013751
0.0254326
0.0138718
0.0255847
0.133169
0.155642
0.13366
0.156285
0.0423768
0.0545779
0.0425832
0.054816
0.154265
0.132128
0.154914
0.132625
0.054068
0.0419466
0.0543083
0.0421543
0.0782168
0.0460443
0.0785951
0.0463546
0.0251237
0.0135156
0.0252775
0.0136371
0.029982
0.0299905
0.0302764
0.0302851
0.00709033
0.00709044
0.00719706
0.00719726
0.0460687
0.0782619
0.0463795
0.0786408
0.0135202
0.0251378
0.0136419
0.0252918
0.132204
0.154375
0.132701
0.155024
0.0419746
0.0541115
0.0421826
0.0543522
0.152979
0.131143
0.15364
0.131653
0.0535952
0.0415404
0.0538396
0.0417508
0.0774767
0.045447
0.0778638
0.045762
0.0248248
0.0132833
0.024981
0.0134057
0.0294233
0.0294314
0.0297201
0.0297284
0.00689012
0.00689008
0.00699639
0.00699643
0.0454705
0.0775206
0.0457859
0.0779084
0.0132876
0.0248384
0.0134101
0.0249949
0.131217
0.153087
0.131727
0.153749
0.0415678
0.053638
0.0417785
0.0538828
0.151646
0.130107
0.152335
0.130647
0.0531071
0.0411276
0.0533608
0.041341
0.0767028
0.04483
0.0771101
0.0451569
0.0245171
0.0130472
0.0246785
0.0131719
0.0288522
0.0288599
0.0291567
0.0291647
0.00668967
0.00668947
0.00679623
0.00679611
0.0448525
0.0767455
0.0451799
0.0771534
0.0130511
0.0245303
0.013176
0.024692
0.130179
0.151752
0.13072
0.152442
0.0411542
0.0531491
0.0413681
0.0534032
0.150207
0.128967
0.150959
0.129567
0.0525809
0.0406866
0.0528577
0.0409191
0.0758551
0.0441619
0.076306
0.0445199
0.0241875
0.0127988
0.0243623
0.0129312
0.0282418
0.0282491
0.028571
0.0285785
0.00648347
0.00648311
0.00659391
0.00659364
0.0441834
0.0758963
0.044542
0.0763481
0.0128024
0.0242002
0.0129349
0.0243752
0.129038
0.15031
0.129638
0.151063
0.0407124
0.0526219
0.0409453
0.0528992
0.148543
0.127631
0.149427
0.128346
0.0519677
0.0401745
0.0522961
0.0404491
0.0748485
0.0433702
0.0753934
0.0438025
0.023806
0.0125166
0.0240119
0.0126697
0.027526
0.0275327
0.0279193
0.0279263
0.00625549
0.00625495
0.00637964
0.0063792
0.0433903
0.0748879
0.0438233
0.0754338
0.0125197
0.023818
0.0126731
0.0240243
0.127699
0.148643
0.128415
0.149529
0.0401995
0.0520075
0.0404745
0.0523366
0.146444
0.125904
0.147577
0.126847
0.0511799
0.0395166
0.0516092
0.0398764
0.0735053
0.0423045
0.0742495
0.0428991
0.0233093
0.0121523
0.0235836
0.0123547
0.0265687
0.0265747
0.0271049
0.0271113
0.00596886
0.00596809
0.00612851
0.00612787
0.042323
0.0735423
0.0429185
0.0742879
0.0121549
0.0233206
0.0123576
0.0235953
0.125969
0.14654
0.126913
0.147675
0.0395404
0.0512182
0.0399009
0.0516483
0.143668
0.123247
0.145157
0.124776
0.0501004
0.0385687
0.0506878
0.0390951
0.0713817
0.0406643
0.0726039
0.0415962
0.0225544
0.0116076
0.0229843
0.0119165
0.0251445
0.0251495
0.0259457
0.0259513
0.00555593
0.00555484
0.00578856
0.00578765
0.0406804
0.0714156
0.0416136
0.0726395
0.0116094
0.0225645
0.0119187
0.022995
0.123308
0.14376
0.124839
0.145251
0.0385913
0.050137
0.0391183
0.0507252
0.141296
0.116783
0.14223
0.12103
0.0486285
0.0365177
0.0494568
0.0378441
0.067186
0.0380157
0.0696929
0.0394941
0.0211658
0.0107373
0.021984
0.0112246
0.0230728
0.0230764
0.0242008
0.0242052
0.00495373
0.00495222
0.00528335
0.00528207
0.0380287
0.0672157
0.0395088
0.069725
0.0107381
0.0211744
0.0112259
0.0219935
0.116839
0.141386
0.121089
0.14232
0.036538
0.0486634
0.0378659
0.0494926
0.0966182
0.0775646
0.0412066
0.0338239
0.0856835
0.0686191
0.0351127
0.0290386
0.0304066
0.00793927
0.00788057
0.00321068
0.0248909
0.00614062
0.00663198
0.00302304
0.00261593
0.00261401
0.00271691
0.00271716
0.00230025
0.00229912
0.00279321
0.00279336
0.00793418
0.0304062
0.00320968
0.00787937
0.00613678
0.0248892
0.00302241
0.00663081
0.0775841
0.0966633
0.0338304
0.0412318
0.0686333
0.0857187
0.0290422
0.0351305
0.16975
0.14042
0.13861
0.113092
0.151417
0.1247
0.123665
0.100491
0.0779417
0.0382978
0.0562925
0.0219831
0.0664663
0.0307995
0.0476289
0.0169391
0.0155297
0.0155237
0.00575186
0.00574642
0.0107204
0.0107141
0.00412257
0.00411869
0.0382975
0.0779601
0.0219757
0.056301
0.0307972
0.0664794
0.0169321
0.0476343
0.140466
0.169828
0.113124
0.138672
0.124737
0.15148
0.100516
0.123714
0.210186
0.17697
0.192925
0.161232
0.18674
0.156465
0.171765
0.142879
0.10866
0.0645501
0.095186
0.0526216
0.0927259
0.0526182
0.0812825
0.0427396
0.0412842
0.0412906
0.029286
0.0292869
0.0314468
0.0314503
0.021638
0.0216368
0.0645711
0.108703
0.0526317
0.0952164
0.0526321
0.0927587
0.0427448
0.0813049
0.177046
0.2103
0.161293
0.193021
0.156525
0.186832
0.142927
0.171842
0.232375
0.1975
0.222992
0.188779
0.205719
0.173933
0.197734
0.166552
0.126802
0.0813853
0.119024
0.0740832
0.107915
0.0664725
0.101437
0.0604805
0.0583956
0.05841
0.0509716
0.0509824
0.0455472
0.0455577
0.0394335
0.0394409
0.0814261
0.126872
0.0741147
0.119081
0.0665026
0.107969
0.0605029
0.101481
0.197609
0.232528
0.188871
0.223125
0.17402
0.205842
0.166626
0.197842
0.243939
0.208327
0.23917
0.203853
0.215441
0.182979
0.211451
0.179261
0.13659
0.0906874
0.132534
0.0868264
0.115959
0.0740222
0.112645
0.0709054
0.0678191
0.067839
0.0639175
0.0639348
0.0532252
0.0532404
0.050065
0.0500781
0.0907431
0.136681
0.0868753
0.132616
0.0740645
0.11603
0.0709422
0.112708
0.208463
0.244126
0.203976
0.239341
0.183087
0.215593
0.179359
0.21159
0.24939
0.21346
0.247239
0.211433
0.219946
0.187188
0.218178
0.185536
0.141263
0.0951328
0.13942
0.0933851
0.119723
0.0775541
0.118249
0.0761768
0.0722824
0.0723057
0.0705353
0.0705571
0.0567744
0.0567924
0.0553987
0.0554155
0.0951982
0.141369
0.0934463
0.13952
0.0776042
0.119806
0.0762236
0.118326
0.213616
0.249601
0.21158
0.247439
0.187312
0.220118
0.185653
0.218341
0.251573
0.215532
0.250784
0.214781
0.221714
0.188848
0.221081
0.188253
0.143157
0.0969207
0.142472
0.0962792
0.121209
0.0789334
0.120679
0.0784457
0.074056
0.0740811
0.0734244
0.0734488
0.0581365
0.058156
0.0576602
0.0576791
0.0969913
0.143271
0.0963477
0.142583
0.0789875
0.121298
0.0784982
0.120765
0.215698
0.251799
0.214942
0.251004
0.188981
0.221897
0.188382
0.221259
0.252181
0.216131
0.252029
0.215974
0.222183
0.189305
0.222074
0.189193
0.143723
0.0974573
0.143572
0.0973151
0.121632
0.0793249
0.121526
0.0792281
0.0745828
0.0746087
0.0744458
0.0744714
0.0585155
0.0585356
0.0584253
0.0584451
0.0975301
0.143841
0.0973871
0.143688
0.0793807
0.121723
0.0792834
0.121616
0.216303
0.252414
0.216144
0.252259
0.189442
0.222371
0.189328
0.222259
0.252122
0.216113
0.252217
0.216184
0.222113
0.18927
0.2222
0.189336
0.143743
0.0974926
0.143793
0.0975334
0.121629
0.0793349
0.121676
0.0793737
0.0746223
0.0746483
0.0746616
0.0746877
0.0585274
0.0585476
0.0585657
0.0585858
0.097566
0.143862
0.0976067
0.143911
0.0793911
0.121721
0.0794299
0.121768
0.216286
0.252356
0.216357
0.252451
0.189408
0.222303
0.189473
0.222389
0.251791
0.215854
0.252006
0.21603
0.221821
0.18904
0.222008
0.189193
0.143559
0.0973525
0.143694
0.0974626
0.121465
0.0792105
0.121582
0.079305
0.0744986
0.0745247
0.0746002
0.0746263
0.058417
0.0584371
0.0585043
0.0585245
0.0974259
0.143678
0.0975361
0.143813
0.0792667
0.121557
0.0793613
0.121674
0.216027
0.252026
0.216203
0.252241
0.189178
0.22201
0.189331
0.222198
0.251323
0.215474
0.251595
0.2157
0.221413
0.188712
0.221649
0.188906
0.143273
0.0971212
0.143452
0.0972734
0.12122
0.0790142
0.121372
0.079142
0.0742894
0.0743154
0.0744314
0.0744575
0.0582389
0.058259
0.0583587
0.0583788
0.0971944
0.143392
0.0973467
0.143571
0.0790702
0.121312
0.0791981
0.121464
0.215647
0.251558
0.215873
0.25183
0.188849
0.221602
0.189043
0.221838
0.250774
0.215027
0.251084
0.215283
0.220934
0.188327
0.221203
0.188546
0.142932
0.0968426
0.143136
0.097016
0.120929
0.0787796
0.121102
0.0789247
0.0740349
0.0740607
0.0741977
0.0742236
0.0580246
0.0580445
0.0581611
0.0581811
0.0969154
0.14305
0.097089
0.143255
0.0788352
0.121021
0.0789805
0.121194
0.215198
0.251007
0.215456
0.251318
0.188463
0.221122
0.188684
0.221392
0.250159
0.214527
0.2505
0.214808
0.220396
0.187896
0.220693
0.188137
0.142551
0.0965298
0.142774
0.0967194
0.120605
0.078516
0.120794
0.0786749
0.0737486
0.0737743
0.0739264
0.0739522
0.0577835
0.0578033
0.0579328
0.0579527
0.0966022
0.142668
0.0967919
0.142892
0.0785712
0.120695
0.0787304
0.120885
0.214698
0.250391
0.21498
0.250733
0.188032
0.220584
0.188274
0.220881
0.249484
0.213981
0.249854
0.214286
0.219804
0.187424
0.220128
0.187686
0.142133
0.0961862
0.142374
0.0963909
0.120248
0.0782259
0.120453
0.078398
0.0734335
0.0734591
0.0736256
0.0736512
0.0575175
0.0575372
0.0576792
0.0576989
0.096258
0.14225
0.0964631
0.142491
0.0782807
0.120338
0.078453
0.120543
0.214151
0.249715
0.214456
0.250086
0.18756
0.21999
0.187822
0.220315
0.248745
0.213386
0.249148
0.213715
0.219154
0.186909
0.219507
0.187193
0.141678
0.095811
0.141938
0.0960316
0.119858
0.0779085
0.12008
0.0780943
0.0730892
0.0731146
0.0732959
0.0733214
0.0572262
0.0572457
0.0574006
0.0574202
0.0958823
0.141793
0.0961032
0.142054
0.0779628
0.119948
0.0781489
0.12017
0.213555
0.248974
0.213885
0.249378
0.187043
0.219339
0.187327
0.219693
0.24794
0.21274
0.248376
0.213095
0.218444
0.186348
0.218827
0.186655
0.141183
0.0954032
0.141463
0.0956402
0.119435
0.0775628
0.119673
0.0777628
0.0727145
0.0727396
0.0729365
0.0729618
0.0569084
0.0569277
0.0570961
0.0571155
0.0954739
0.141298
0.0957112
0.141578
0.0776167
0.119523
0.0778169
0.119762
0.212908
0.248168
0.213263
0.248606
0.186482
0.218628
0.186788
0.219012
0.247067
0.212041
0.247538
0.212422
0.217672
0.185741
0.218087
0.186071
0.140647
0.094961
0.140948
0.0952153
0.118976
0.0771875
0.119232
0.0774024
0.0723077
0.0723327
0.0725459
0.0725709
0.0565628
0.056582
0.0567645
0.0567837
0.0950311
0.140761
0.0952857
0.141062
0.0772409
0.119063
0.077456
0.11932
0.212207
0.247293
0.212589
0.247765
0.185874
0.217855
0.186204
0.218271
0.246121
0.211285
0.246628
0.211695
0.216835
0.185085
0.217283
0.18544
0.140068
0.0944827
0.140391
0.0947551
0.118479
0.0767811
0.118754
0.0770116
0.0718673
0.0718919
0.0721223
0.0721472
0.056188
0.0562069
0.0564044
0.0564234
0.0945521
0.140181
0.0948249
0.140504
0.0768338
0.118566
0.0770647
0.118842
0.21145
0.246346
0.211861
0.246854
0.185216
0.217017
0.185572
0.217465
0.245099
0.210471
0.245645
0.21091
0.21593
0.184378
0.216411
0.184758
0.139444
0.0939666
0.139789
0.0942579
0.117943
0.0763422
0.118238
0.0765889
0.0713916
0.071416
0.0716643
0.0716888
0.0557828
0.0558015
0.0560143
0.0560331
0.0940353
0.139556
0.094327
0.139901
0.0763943
0.118029
0.0766414
0.118324
0.210635
0.245323
0.211074
0.245869
0.184508
0.21611
0.184888
0.216592
0.244
0.209599
0.244585
0.210067
0.214955
0.183618
0.215472
0.184025
0.138774
0.0934117
0.139142
0.0937224
0.117367
0.0758699
0.117682
0.0761333
0.0708795
0.0709037
0.0711704
0.0711947
0.0553461
0.0553646
0.0555934
0.055612
0.0934795
0.138885
0.0937908
0.139253
0.0759213
0.117452
0.0761851
0.117768
0.209761
0.244221
0.21023
0.244807
0.183747
0.215133
0.184154
0.215651
0.242821
0.208663
0.243445
0.209163
0.213909
0.182806
0.214461
0.183239
0.138056
0.0928168
0.138448
0.0931475
0.11675
0.0753634
0.117086
0.0756438
0.0703302
0.070354
0.0706396
0.0706636
0.0548774
0.0548956
0.0551406
0.055159
0.0928838
0.138165
0.093215
0.138558
0.0754141
0.116834
0.075695
0.11717
0.208824
0.24304
0.209324
0.243666
0.182933
0.214085
0.183367
0.214639
0.241564
0.207666
0.242227
0.208196
0.212789
0.181939
0.213378
0.182399
0.137291
0.0921819
0.137706
0.0925324
0.116092
0.0748224
0.116448
0.07512
0.0697431
0.0697667
0.0700713
0.070095
0.0543762
0.0543941
0.0546555
0.0546736
0.0922481
0.137398
0.092599
0.137814
0.0748724
0.116175
0.0751704
0.116532
0.207825
0.241781
0.208355
0.242445
0.182065
0.212964
0.182526
0.213555
0.24023
0.206615
0.240932
0.207172
0.211599
0.181013
0.212223
0.181503
0.136479
0.0915073
0.136917
0.0918775
0.115391
0.0742469
0.115768
0.0745616
0.0691183
0.0691415
0.0694652
0.0694886
0.0538423
0.05386
0.0541378
0.0541556
0.0915725
0.136586
0.0919432
0.137025
0.0742961
0.115473
0.0746113
0.115851
0.206772
0.240444
0.207329
0.241148
0.181138
0.211772
0.181628
0.212397
0.238816
0.205502
0.239557
0.20609
0.210341
0.180035
0.210998
0.18055
0.13562
0.0907926
0.136082
0.0911826
0.11465
0.0736374
0.115047
0.0739688
0.0684557
0.0684786
0.0688212
0.0688442
0.0532764
0.0532937
0.0535877
0.0536051
0.0908568
0.135725
0.0912473
0.136188
0.0736857
0.11473
0.0740176
0.115128
0.205657
0.239028
0.206246
0.23977
0.180158
0.210512
0.180674
0.211171
0.237327
0.20433
0.238104
0.204947
0.209017
0.179007
0.209707
0.179546
0.134715
0.0900391
0.1352
0.0904481
0.113869
0.0729953
0.114285
0.0733426
0.0677565
0.067779
0.0681399
0.0681626
0.0526794
0.0526964
0.0530058
0.053023
0.0901022
0.134819
0.0905118
0.135304
0.0730427
0.113949
0.0733905
0.114366
0.204482
0.237537
0.2051
0.238316
0.179128
0.209186
0.179668
0.209877
0.235768
0.203102
0.23658
0.203746
0.207632
0.177932
0.208352
0.178494
0.133767
0.089249
0.134272
0.0896757
0.113052
0.0723225
0.113486
0.0726847
0.0670226
0.0670447
0.0674229
0.0674452
0.0520533
0.0520699
0.0523938
0.0524107
0.089311
0.133869
0.0897383
0.134375
0.072369
0.11313
0.0727317
0.113565
0.203252
0.235975
0.203897
0.236788
0.178051
0.207799
0.178614
0.20852
0.234146
0.201823
0.234989
0.202492
0.206191
0.176814
0.206938
0.177397
0.132779
0.0884252
0.133303
0.0888682
0.112202
0.0716216
0.112652
0.0719974
0.0662567
0.0662784
0.0666724
0.0666943
0.0514003
0.0514166
0.0517538
0.0517702
0.0884861
0.132879
0.0889296
0.133404
0.0716671
0.112279
0.0720434
0.11273
0.201972
0.234351
0.202641
0.235194
0.176932
0.206356
0.177516
0.207104
0.232469
0.200499
0.233338
0.201189
0.204701
0.175653
0.205471
0.176257
0.131755
0.0875715
0.132297
0.0880287
0.111321
0.0708959
0.111786
0.0712834
0.0654624
0.0654837
0.0658915
0.065913
0.0507238
0.0507397
0.0510884
0.0511045
0.0876312
0.131853
0.0880889
0.132396
0.0709404
0.111396
0.0713284
0.111862
0.200644
0.232671
0.201336
0.233541
0.175769
0.204864
0.176374
0.205635
0.230747
0.199136
0.231636
0.199844
0.203174
0.174461
0.203961
0.175079
0.130702
0.0866928
0.131257
0.0871616
0.110415
0.07015
0.110891
0.0705467
0.064644
0.0646648
0.0650844
0.0651054
0.0500277
0.0500432
0.0504014
0.0504171
0.0867512
0.130798
0.0872206
0.131354
0.0701934
0.110489
0.0705907
0.110966
0.19928
0.230946
0.199989
0.231837
0.174574
0.203334
0.175193
0.204122
0.22899
0.197744
0.229895
0.198466
0.201617
0.173245
0.202418
0.173874
0.129625
0.085794
0.130191
0.0862719
0.109491
0.0693882
0.109976
0.0697921
0.0638063
0.0638266
0.0642555
0.0642761
0.0493162
0.0493313
0.0496968
0.0497121
0.085851
0.129719
0.0863297
0.130287
0.0694305
0.109563
0.069835
0.110049
0.197885
0.229185
0.198608
0.230092
0.173357
0.201775
0.173986
0.202577
0.227205
0.196327
0.228123
0.19706
0.200039
0.17201
0.200849
0.172648
0.128529
0.0848793
0.129104
0.0853645
0.108552
0.0686144
0.109044
0.0690237
0.0629536
0.0629734
0.0634095
0.0634296
0.0485934
0.0486081
0.048979
0.0489939
0.084935
0.128621
0.0854209
0.129197
0.0686556
0.108622
0.0690655
0.109115
0.196466
0.227398
0.1972
0.228318
0.17212
0.200194
0.172758
0.201006
0.225397
0.194886
0.226327
0.195632
0.198442
0.170757
0.199261
0.171404
0.127414
0.0839497
0.127999
0.0844423
0.107599
0.0678302
0.108097
0.0682445
0.0620878
0.0621071
0.0625501
0.0625697
0.0478619
0.0478761
0.0482514
0.0482659
0.0840041
0.127504
0.0844975
0.12809
0.0678703
0.107667
0.0682852
0.108167
0.195022
0.225586
0.195769
0.226518
0.170864
0.198595
0.171512
0.199416
0.223551
0.193408
0.224502
0.194175
0.196816
0.169475
0.197652
0.170138
0.126269
0.0829974
0.126871
0.0835031
0.106623
0.067031
0.107134
0.0674539
0.0612028
0.0612217
0.061676
0.0616951
0.047119
0.0471328
0.0475149
0.0475289
0.0830504
0.126357
0.0835568
0.12696
0.0670699
0.10669
0.0674934
0.107203
0.193541
0.223737
0.19431
0.22469
0.16958
0.196966
0.170245
0.197804
0.221624
0.191851
0.222624
0.192665
0.195127
0.16813
0.196001
0.168831
0.125058
0.0819929
0.125699
0.08253
0.105599
0.0661963
0.106139
0.0666407
0.0602731
0.0602913
0.0607735
0.060792
0.0463481
0.0463614
0.0467612
0.0467748
0.0820443
0.125143
0.0825823
0.125786
0.0662339
0.105664
0.066679
0.106206
0.191981
0.221806
0.192796
0.222808
0.168233
0.195274
0.168935
0.19615
0.219516
0.190119
0.220624
0.191036
0.193293
0.166648
0.194254
0.16743
0.123697
0.0808634
0.124428
0.0814755
0.104461
0.0652727
0.105069
0.0657709
0.059231
0.0592486
0.0597993
0.0598173
0.0455012
0.045514
0.0459609
0.0459739
0.0809129
0.123781
0.0815261
0.124512
0.0653088
0.104524
0.0658078
0.105134
0.190245
0.219694
0.191164
0.220804
0.166748
0.193437
0.167532
0.194399
0.217037
0.18803
0.21836
0.189155
0.191155
0.164878
0.192294
0.165829
0.122022
0.0794587
0.122937
0.0802332
0.103079
0.0641448
0.103831
0.0647645
0.0579339
0.0579507
0.0586532
0.0586704
0.0444706
0.0444827
0.0450403
0.0450527
0.0795059
0.122101
0.0802816
0.123019
0.064179
0.103139
0.0647998
0.103893
0.188152
0.217209
0.189279
0.218535
0.164974
0.191294
0.165927
0.192435
0.213892
0.185253
0.21559
0.186777
0.188448
0.162536
0.18991
0.163821
0.119715
0.0775013
0.120998
0.0785964
0.101189
0.0625875
0.10224
0.0634588
0.0561283
0.0561439
0.0571403
0.0571565
0.0430524
0.0430634
0.0438478
0.0438594
0.0775454
0.11979
0.0786421
0.121076
0.0626193
0.101246
0.0634919
0.102299
0.185369
0.214058
0.186896
0.215759
0.162629
0.188582
0.163915
0.190047
0.209858
0.181031
0.211991
0.183429
0.18491
0.158929
0.186796
0.160989
0.116108
0.0745277
0.118163
0.0762001
0.098201
0.0601961
0.0999119
0.0615474
0.0534707
0.0534848
0.0549505
0.0549654
0.0409462
0.040956
0.0421243