/*--------------------------------*- C++ -*----------------------------------*\
  =========                 |
  \\      /  F ield         | OpenFOAM: The Open Source CFD Toolbox
   \\    /   O peration     | Website:  https://openfoam.org
    \\  /    A nd           | Version:  9
     \\/     M anipulation  |
\*---------------------------------------------------------------------------*/
FoamFile
{
    format      ascii;
    class       volScalarField;
    location    "1.9";
    object      nut;
}
// * * * * * * * * * * * * * * * * * * * * * * * * * * * * * * * * * * * * * //

dimensions      [0 2 -1 0 0 0 0];

internalField   nonuniform List<scalar> 
36360
(
0.00188455
0.00157882
0.000853029
0.000749562
0.000345574
0.000295034
0.000208955
0.000194614
0.000755762
0.000263335
0.000257311
0.000164854
0.000180783
0.000139718
0.000161891
0.00016138
0.000155337
0.000155296
0.000158291
0.000158294
0.000137744
0.000137743
0.00016153
0.00016153
0.000263204
0.000755672
0.000164833
0.000257275
0.000139712
0.000180771
0.00016138
0.000161887
0.00157911
0.00188523
0.000749625
0.000853353
0.000295057
0.000345641
0.000194616
0.00020897
0.00315889
0.00275343
0.00263423
0.00225196
0.000568891
0.000489235
0.000484565
0.000412711
0.00185608
0.00108912
0.00136765
0.000605031
0.00033356
0.000189108
0.000249901
0.00014906
0.000449824
0.00044961
0.000216531
0.000216406
0.000121641
0.000121617
0.000121978
0.000121977
0.00108902
0.00185638
0.000604726
0.00136775
0.00018907
0.000333575
0.000149039
0.000249893
0.00275415
0.00316006
0.00225246
0.00263517
0.000489307
0.000569014
0.00041276
0.000484664
0.00379894
0.00338467
0.0035304
0.00311748
0.000657807
0.000575546
0.000622364
0.000540693
0.00250138
0.00178174
0.00222425
0.00147152
0.000428432
0.000290811
0.000390053
0.000246786
0.00131177
0.00131195
0.000899325
0.00089923
0.000179805
0.000179767
0.000140877
0.000140841
0.00178218
0.00250214
0.00147165
0.00222476
0.000290804
0.000428492
0.000246755
0.00039009
0.00338586
0.00380062
0.00311843
0.00353181
0.000575662
0.000657976
0.000540787
0.000622509
0.00413699
0.00372514
0.0039949
0.0035816
0.000698569
0.000616136
0.00068197
0.000599563
0.00286286
0.00220818
0.00270947
0.00202529
0.000473088
0.000344556
0.000454877
0.000322487
0.00187354
0.00187404
0.0016366
0.00163697
0.000246926
0.000246924
0.000218475
0.000218457
0.00220917
0.00286415
0.00202603
0.00271049
0.000344599
0.000473191
0.000322507
0.000454959
0.00372684
0.00413922
0.00358305
0.00399685
0.000616296
0.000698788
0.000599702
0.000682164
0.00431079
0.00390097
0.00423931
0.00382873
0.000717628
0.000635169
0.000709982
0.000627544
0.00305182
0.00243389
0.00297423
0.0023415
0.000493926
0.00036965
0.000485604
0.000359702
0.00215512
0.00215578
0.00204146
0.00204205
0.000279585
0.000279606
0.000266701
0.000266712
0.00243526
0.00305353
0.00234271
0.00297574
0.000369729
0.000494064
0.000359765
0.000485726
0.00390312
0.00431352
0.00383067
0.00424181
0.000635367
0.000717891
0.000627725
0.000710224
0.00439258
0.0039831
0.00436029
0.00395085
0.000725881
0.000643346
0.00072271
0.000640223
0.00313943
0.00253679
0.00310524
0.00249699
0.000502795
0.00037999
0.000499422
0.000376125
0.00227865
0.0022794
0.0022314
0.00223211
0.000292702
0.000292734
0.000287874
0.000287901
0.0025384
0.00314141
0.0024985
0.0031071
0.000380089
0.000502956
0.000376215
0.000499574
0.00398556
0.00439567
0.00395317
0.00436323
0.00064357
0.000726176
0.000640436
0.000722991
0.00442605
0.00401603
0.00441381
0.00400414
0.000728928
0.000646298
0.000727867
0.000645289
0.0031739
0.00257617
0.00316162
0.00256238
0.000505999
0.000383531
0.000504902
0.000382361
0.00232448
0.00232527
0.00230867
0.00230945
0.000296969
0.000297005
0.000295613
0.000295647
0.00257789
0.00317603
0.00256405
0.00316369
0.000383638
0.000506171
0.000382465
0.00050507
0.00401866
0.00442935
0.0040067
0.00441702
0.000646536
0.000729241
0.000645521
0.000728172
0.00443664
0.00402596
0.00443358
0.00402325
0.000729663
0.000646949
0.000729522
0.000646853
0.00318393
0.00258726
0.00318136
0.00258457
0.000506789
0.000384324
0.000506632
0.000384196
0.00233685
0.00233766
0.00233406
0.00233487
0.000297805
0.000297841
0.000297728
0.000297764
0.00258903
0.00318612
0.00258632
0.00318352
0.000384435
0.000506966
0.000384306
0.000506807
0.00402867
0.00444005
0.00402593
0.00443695
0.000647194
0.000729984
0.000647095
0.00072984
0.0044375
0.00402632
0.00443784
0.00402697
0.000729543
0.00064678
0.00072968
0.000646946
0.00318419
0.00258768
0.00318508
0.00258872
0.000506719
0.000384226
0.000506839
0.000384372
0.00233711
0.00233793
0.00233848
0.00233929
0.00029767
0.000297706
0.000297865
0.000297901
0.00258946
0.00318639
0.0025905
0.00318729
0.000384337
0.000506897
0.000384482
0.000507017
0.00402905
0.00444093
0.0040297
0.00444127
0.000647025
0.000729866
0.000647192
0.000730001
0.00443468
0.0040233
0.00443688
0.0040256
0.000729047
0.00064625
0.000729371
0.000646593
0.00318108
0.0025846
0.00318345
0.00258707
0.000506307
0.000383795
0.000506597
0.000384107
0.00233359
0.00233441
0.00233644
0.00233726
0.000297146
0.000297183
0.000297531
0.000297567
0.00258638
0.00318329
0.00258885
0.00318566
0.000383905
0.000506484
0.000384217
0.000506775
0.00402604
0.00443813
0.00402834
0.00444032
0.000646496
0.00072937
0.000646839
0.000729694
0.00442989
0.00401851
0.00443291
0.00402153
0.000728366
0.000645551
0.000728768
0.000645965
0.00317616
0.00257945
0.00317932
0.00258291
0.000505709
0.000383166
0.000506083
0.000383577
0.0023278
0.00232862
0.00233177
0.00233259
0.00029639
0.000296425
0.000296898
0.000296934
0.00258122
0.00317836
0.00258469
0.00318153
0.000383275
0.000505886
0.000383687
0.00050626
0.00402124
0.00443333
0.00402426
0.00443635
0.000645796
0.000728688
0.000646211
0.000729091
0.00442395
0.00401275
0.00442749
0.00401621
0.000727563
0.000644742
0.000728023
0.000645209
0.0031703
0.00257321
0.00317389
0.00257717
0.000505002
0.000382424
0.000505428
0.000382889
0.00232076
0.00232158
0.00232533
0.00232615
0.000295501
0.000295536
0.000296077
0.000296112
0.00257497
0.00317249
0.00257894
0.00317608
0.000382532
0.000505178
0.000382998
0.000505604
0.00401547
0.00442738
0.00401893
0.00443092
0.000644986
0.000727884
0.000645454
0.000728345
0.00441711
0.00400627
0.00442108
0.00401007
0.000726656
0.00064384
0.000727167
0.000644352
0.00316373
0.00256614
0.00316766
0.0025705
0.000504201
0.000381585
0.000504673
0.000382097
0.0023128
0.00231361
0.00231781
0.00231863
0.0002945
0.000294535
0.000295131
0.000295166
0.0025679
0.00316591
0.00257226
0.00316985
0.000381692
0.000504376
0.000382205
0.000504848
0.00400897
0.00442053
0.00401278
0.0044245
0.000644084
0.000726976
0.000644596
0.000727488
0.00440946
0.00399912
0.00441383
0.00400325
0.00072565
0.000642849
0.00072621
0.000643406
0.00315652
0.00255832
0.00316077
0.00256305
0.000503311
0.000380653
0.000503827
0.000381212
0.00230396
0.00230477
0.00230941
0.00231022
0.000293391
0.000293424
0.000294076
0.000294111
0.00256007
0.00315868
0.00256481
0.00316294
0.000380759
0.000503485
0.000381319
0.000504001
0.00400181
0.00441286
0.00400595
0.00441724
0.000643091
0.000725969
0.000643648
0.00072653
0.00440097
0.00399127
0.00440577
0.00399575
0.000724539
0.000641761
0.000725152
0.000642367
0.00314863
0.00254972
0.00315322
0.00255484
0.000502329
0.000379623
0.000502892
0.000380231
0.00229421
0.00229502
0.00230012
0.00230093
0.000292166
0.000292199
0.00029291
0.000292943
0.00255146
0.00315078
0.00255659
0.00315538
0.000379728
0.000502501
0.000380337
0.000503065
0.00399395
0.00440436
0.00399844
0.00440916
0.000642002
0.000724856
0.000642608
0.000725471
0.00439164
0.00398271
0.00439686
0.00398755
0.000723319
0.000640572
0.000723988
0.000641228
0.00314004
0.00254032
0.00314498
0.00254585
0.000501249
0.00037849
0.000501861
0.000379151
0.00228351
0.00228431
0.0022899
0.00229071
0.00029082
0.000290852
0.000291625
0.000291658
0.00254204
0.00314217
0.00254758
0.00314713
0.000378594
0.00050142
0.000379255
0.000502032
0.00398537
0.00439501
0.00399022
0.00440023
0.000640812
0.000723636
0.000641469
0.000724305
0.00438143
0.00397339
0.00438709
0.00397862
0.000721986
0.000639276
0.000722712
0.000639987
0.0031307
0.00253006
0.00313602
0.00253602
0.000500067
0.000377249
0.000500731
0.000377965
0.0022718
0.0022726
0.0022787
0.0022795
0.000289344
0.000289375
0.000290215
0.000290247
0.00253178
0.00313282
0.00253774
0.00313815
0.000377351
0.000500236
0.000378067
0.000500901
0.00397604
0.00438478
0.00398127
0.00439045
0.000639514
0.000722301
0.000640226
0.000723028
0.00437029
0.00396327
0.00437642
0.00396891
0.000720533
0.000637865
0.00072132
0.000638635
0.00312058
0.00251892
0.00312629
0.00252532
0.000498777
0.000375893
0.000499495
0.000376667
0.00225904
0.00225983
0.00226647
0.00226727
0.000287731
0.000287761
0.000288672
0.000288702
0.00252061
0.00312268
0.00252703
0.00312841
0.000375993
0.000498944
0.000376768
0.000499664
0.0039659
0.00437362
0.00397154
0.00437976
0.000638101
0.000720846
0.000638872
0.000721634
0.00435819
0.00395232
0.0043648
0.00395837
0.000718953
0.000636329
0.000719804
0.000637162
0.00310962
0.00250684
0.00311576
0.00251371
0.000497372
0.000374416
0.000498148
0.000375251
0.00224516
0.00224595
0.00225315
0.00225395
0.000285974
0.000286003
0.000286987
0.000287017
0.00250852
0.00311171
0.0025154
0.00311785
0.000374515
0.000497538
0.00037535
0.000498315
0.00395492
0.0043615
0.00396098
0.00436812
0.000636564
0.000719265
0.000637397
0.000720116
0.00434511
0.00394049
0.00435222
0.00394698
0.000717244
0.000634663
0.00071816
0.000635561
0.00309782
0.00249379
0.00310438
0.00250115
0.000495849
0.000372814
0.000496685
0.000373711
0.00223013
0.00223091
0.0022387
0.00223949
0.000284065
0.000284093
0.000285155
0.000285183
0.00249546
0.00309988
0.00250283
0.00310645
0.00037291
0.000496013
0.000373808
0.00049685
0.00394307
0.00434839
0.00394957
0.00435551
0.000634897
0.000717553
0.000635795
0.00071847
0.00433103
0.00392777
0.00433864
0.0039347
0.0007154
0.000632864
0.000716383
0.000633829
0.00308513
0.00247976
0.00309213
0.00248761
0.000494204
0.000371081
0.000495101
0.000372044
0.00221391
0.00221469
0.00222308
0.00222386
0.000282
0.000282026
0.000283168
0.000283195
0.0024814
0.00308717
0.00248927
0.00309418
0.000371175
0.000494366
0.000372139
0.000495264
0.00393033
0.00433429
0.00393728
0.0043419
0.000633095
0.000715707
0.000634061
0.000716691
0.00431594
0.00391417
0.00432404
0.00392154
0.00071342
0.000630932
0.000714471
0.000631962
0.00307156
0.00246472
0.003079
0.00247307
0.000492435
0.000369216
0.000493394
0.000370245
0.00219649
0.00219727
0.00220626
0.00220704
0.000279773
0.000279798
0.000281023
0.000281048
0.00246635
0.00307358
0.00247471
0.00308103
0.000369307
0.000492595
0.000370338
0.000493555
0.0039167
0.00431916
0.00392409
0.00432729
0.000631161
0.000713725
0.000632192
0.000714777
0.00429984
0.00389969
0.00430845
0.0039075
0.000711304
0.00062888
0.000712423
0.000629971
0.00305712
0.00244869
0.00306499
0.00245754
0.000490542
0.000367215
0.000491563
0.000368312
0.00217785
0.00217862
0.00218823
0.002189
0.000277383
0.000277406
0.000278714
0.000278738
0.0024503
0.00305911
0.00245916
0.003067
0.000367304
0.0004907
0.000368402
0.000491722
0.0039022
0.00430304
0.00391003
0.00431166
0.000629107
0.000711607
0.000630199
0.000712727
0.00428274
0.00388433
0.00429184
0.00389258
0.000709055
0.000626696
0.000710241
0.000627852
0.00304179
0.00243166
0.0030501
0.002441
0.000488524
0.00036508
0.000489607
0.000366243
0.00215798
0.00215874
0.00216897
0.00216974
0.000274829
0.00027485
0.000276241
0.000276263
0.00243324
0.00304375
0.00244259
0.00305208
0.000365166
0.00048868
0.000366331
0.000489764
0.00388682
0.00428591
0.00389508
0.00429503
0.00062692
0.000709356
0.000628078
0.000710542
0.00426469
0.00386812
0.00427426
0.00387679
0.000706678
0.000624384
0.000707927
0.000625603
0.00302561
0.00241366
0.00303434
0.00242347
0.000486384
0.000362812
0.000487528
0.000364041
0.00213693
0.00213768
0.00214851
0.00214926
0.000272113
0.000272132
0.000273605
0.000273625
0.00241522
0.00302755
0.00242505
0.00303629
0.000362896
0.000486537
0.000364126
0.000487682
0.00387058
0.00426783
0.00387926
0.00427742
0.000624606
0.000706976
0.000625826
0.000708226
0.00424575
0.00385112
0.00425576
0.00386017
0.000704179
0.000621952
0.000705487
0.00062323
0.00300864
0.00239475
0.00301775
0.00240501
0.000484128
0.000360418
0.000485329
0.000361709
0.00211474
0.00211549
0.00212687
0.00212762
0.000269241
0.000269258
0.00027081
0.000270828
0.00239629
0.00301054
0.00240656
0.00301967
0.000360498
0.000484278
0.000361791
0.00048548
0.00385354
0.00424886
0.00386261
0.00425888
0.000622172
0.000704474
0.000623451
0.000705784
0.00422599
0.00383338
0.00423639
0.00384279
0.000701571
0.000619405
0.000702932
0.000620741
0.00299093
0.00237501
0.0030004
0.00238567
0.000481762
0.000357904
0.000483016
0.000359253
0.00209149
0.00209223
0.00210414
0.00210488
0.000266223
0.000266238
0.000267863
0.00026788
0.00237652
0.0029928
0.00238719
0.00300229
0.000357981
0.000481909
0.000359332
0.000483165
0.00383577
0.00422907
0.0038452
0.00423949
0.000619622
0.000701863
0.000620959
0.000703226
0.00420553
0.00381495
0.00421627
0.00382469
0.000698864
0.000616752
0.000700273
0.000618137
0.00297256
0.00235453
0.00298234
0.00236554
0.000479297
0.000355282
0.000480598
0.000356684
0.00206729
0.00206802
0.0020804
0.00208113
0.00026307
0.000263083
0.000264776
0.00026479
0.00235601
0.0029744
0.00236704
0.0029842
0.000355356
0.000479441
0.000356759
0.000480744
0.00381731
0.00420857
0.00382706
0.00421933
0.000616966
0.000699154
0.000618353
0.000700564
0.00418449
0.003796
0.0041955
0.00380598
0.000696076
0.000614019
0.000697523
0.000615442
0.00295367
0.00233344
0.0029637
0.00234473
0.000476746
0.000352564
0.000478089
0.000354012
0.00204227
0.00204298
0.00205577
0.00205649
0.000259799
0.00025981
0.000261561
0.000261573
0.00233489
0.00295548
0.0023462
0.00296552
0.000352634
0.000476888
0.000354084
0.000478232
0.00379832
0.00418749
0.00380832
0.00419852
0.000614231
0.000696362
0.000615655
0.000697811
0.00416296
0.00377661
0.0041742
0.0037868
0.00069322
0.000611219
0.000694699
0.000612673
0.00293434
0.00231185
0.00294457
0.00232337
0.000474123
0.000349764
0.0004755
0.000351251
0.00201657
0.00201727
0.00203038
0.00203109
0.000256429
0.000256437
0.000258238
0.000258247
0.00231326
0.00293612
0.0023248
0.00294636
0.000349831
0.000474261
0.000351319
0.00047564
0.0037789
0.00416592
0.00378911
0.00417718
0.000611427
0.000693503
0.000612883
0.000694984
0.00414102
0.00375686
0.00415245
0.00376722
0.000690312
0.000608366
0.000691816
0.000609845
0.00291466
0.00228987
0.00292506
0.00230157
0.000471438
0.000346898
0.000472844
0.000348416
0.00199034
0.00199103
0.0020044
0.0020051
0.000252982
0.000252987
0.000254825
0.000254832
0.00229126
0.0029164
0.00230297
0.00292682
0.000346961
0.000471573
0.00034848
0.000472981
0.00375911
0.00414394
0.00376949
0.0041554
0.000608572
0.000690592
0.000610052
0.000692097
0.00411863
0.00373669
0.00413031
0.00374727
0.000687359
0.000605475
0.000688885
0.000606972
0.00289462
0.00226757
0.00290521
0.00227943
0.000468701
0.000343979
0.000470133
0.000345521
0.00196368
0.00196437
0.00197795
0.00197863
0.000249479
0.000249482
0.000251347
0.000251351
0.00226893
0.00289633
0.0022808
0.00290693
0.000344039
0.000468833
0.000345582
0.000470267
0.00373891
0.00412152
0.00374951
0.00413322
0.000605677
0.000687636
0.000607176
0.000689163
0.00409547
0.0037158
0.0041076
0.00372681
0.000684347
0.000602536
0.000685905
0.00060406
0.00287398
0.00224479
0.00288491
0.00225692
0.000465904
0.000341011
0.000467368
0.000342578
0.00193654
0.00193721
0.00195107
0.00195175
0.000245937
0.000245937
0.000247823
0.000247825
0.00224611
0.00287564
0.00225826
0.0028866
0.000341067
0.000466033
0.000342635
0.000467498
0.00371799
0.00409832
0.00372901
0.00411047
0.000602735
0.00068462
0.000604261
0.000686181
0.00407063
0.00369319
0.00408375
0.00370524
0.000681223
0.000599532
0.000682848
0.000601087
0.00285198
0.00222096
0.00286372
0.00223372
0.000463008
0.000337967
0.00046453
0.000339578
0.00190837
0.00190902
0.00192352
0.00192418
0.000242337
0.000242334
0.000244257
0.000244256
0.00222224
0.00285361
0.00223502
0.00286536
0.000338019
0.000463133
0.000339632
0.000464657
0.00369533
0.00407343
0.0037074
0.00408657
0.000599727
0.000681492
0.000601284
0.00068312
0.00404236
0.00366722
0.00405748
0.00368117
0.000677838
0.000596308
0.000679621
0.00059801
0.00282714
0.00219456
0.00284055
0.00220887
0.000459884
0.000334735
0.000461543
0.000336462
0.00187752
0.00187816
0.00189432
0.00189496
0.000238577
0.000238571
0.000240598
0.000240594
0.00219579
0.00282872
0.00221013
0.00284215
0.000334782
0.000460005
0.000336511
0.000461666
0.00366931
0.0040451
0.00368329
0.00406025
0.000596498
0.000678103
0.000598203
0.000679888
0.00400736
0.00363515
0.00402639
0.00365263
0.000673872
0.000592542
0.000675999
0.000594564
0.00279643
0.00216226
0.00281328
0.00218008
0.00045624
0.000331022
0.000458211
0.000333042
0.00184014
0.00184075
0.00186087
0.00186149
0.000234346
0.000234337
0.000236659
0.000236652
0.00216344
0.00279795
0.00218129
0.00281483
0.000331064
0.000456356
0.000333087
0.000458329
0.00363717
0.00401002
0.00365468
0.00402909
0.000592726
0.00067413
0.000594752
0.000676261
0.00395998
0.00359158
0.00398606
0.00361567
0.000668743
0.000587668
0.000671543
0.000590339
0.00275395
0.00211763
0.00277767
0.00214264
0.000451454
0.000326168
0.000454104
0.000328874
0.00178879
0.00178936
0.00181766
0.00181825
0.000228915
0.000228901
0.000231956
0.000231944
0.00211873
0.00275538
0.00214379
0.00277914
0.000326203
0.000451564
0.000328912
0.000454217
0.00359352
0.00396255
0.00361766
0.00398867
0.000587845
0.000668993
0.00059052
0.000671797
0.00389274
0.00352507
0.0039296
0.00356289
0.000661652
0.000580577
0.000665519
0.000584525
0.00268846
0.00205114
0.00272551
0.00208825
0.000444082
0.000318773
0.000448294
0.000322986
0.00171394
0.00171446
0.00175554
0.00175609
0.000220857
0.000220836
0.000225431
0.000225415
0.00205214
0.00268978
0.00208931
0.00272689
0.000318798
0.000444182
0.000323017
0.0004484
0.0035269
0.00389519
0.00356478
0.00393211
0.000580747
0.000661894
0.000584698
0.000665765
0.00380804
0.00340282
0.00385202
0.0034756
0.000651865
0.000564931
0.00065739
0.000575098
0.00259004
0.00196436
0.00264292
0.00200913
0.000430199
0.000306596
0.000438432
0.00031347
0.00161715
0.00161761
0.00166798
0.00166848
0.000208556
0.000208525
0.000215375
0.00021535
0.00196524
0.00259124
0.00201007
0.00264418
0.000306608
0.000430287
0.000313489
0.000438527
0.00340452
0.00381039
0.00347736
0.00385442
0.000565089
0.000652099
0.000575264
0.000657628
0.00277088
0.00233897
0.00134088
0.00113045
0.00245252
0.0020619
0.00115339
0.000977328
0.00131698
0.000490094
0.000385475
0.000192241
0.00109636
0.000386621
0.000326919
0.000178203
0.00020916
0.000209006
0.000151536
0.000151554
0.000180844
0.00018075
0.000155689
0.000155701
0.000489816
0.00131699
0.000192175
0.000385436
0.000386401
0.00109631
0.00017816
0.000326876
0.00233961
0.00277222
0.0011307
0.00134167
0.00206237
0.00245357
0.000977483
0.00115396
0.00471173
0.00413035
0.00387099
0.00333901
0.00416172
0.0036329
0.00343257
0.00294748
0.00298413
0.00194663
0.00222753
0.00121874
0.00256
0.00160193
0.00190299
0.000970093
0.00112559
0.00112536
0.000456442
0.000456095
0.00081287
0.000812514
0.00033654
0.00033627
0.00194671
0.00298484
0.0012184
0.00222787
0.00160188
0.00256051
0.000969754
0.00190321
0.00413182
0.00471406
0.00334005
0.00387282
0.00363403
0.00416355
0.00294828
0.00343401
0.0058473
0.00522699
0.00535555
0.00474844
0.00511393
0.00455306
0.00470623
0.00415588
0.00407415
0.00312045
0.00359199
0.00258734
0.00347605
0.00258211
0.00307521
0.00213954
0.00258231
0.00258281
0.00192942
0.00192965
0.00204861
0.00204897
0.00149059
0.00149069
0.00312158
0.00407585
0.00258795
0.00359317
0.00258291
0.00347732
0.0021399
0.00307607
0.00522949
0.0058508
0.00475039
0.00535843
0.00455497
0.00511664
0.00415739
0.00470848
0.00650035
0.00587081
0.00622099
0.00559434
0.00564384
0.00507607
0.00541882
0.00485313
0.00473784
0.00387167
0.00445106
0.00354595
0.00401688
0.0032007
0.00378477
0.00293343
0.00346431
0.00346514
0.00308698
0.00308767
0.00280074
0.00280142
0.00248025
0.00248079
0.00387367
0.00474058
0.00354755
0.0044533
0.00320225
0.00401896
0.00293463
0.00378645
0.00587444
0.00650513
0.00559741
0.00622514
0.00507885
0.00564753
0.00485548
0.00542202
0.00685397
0.00622256
0.00670676
0.00607598
0.00592438
0.00535526
0.00580825
0.00523962
0.00510507
0.00428788
0.00495195
0.00411482
0.00430958
0.00353792
0.00418829
0.00339854
0.00393638
0.00393744
0.00374147
0.00374242
0.00319527
0.00319615
0.00303361
0.00303441
0.00429052
0.00510865
0.00411717
0.00495515
0.00354
0.00431233
0.00340038
0.00419073
0.00622716
0.0068599
0.00608012
0.00671215
0.00535878
0.00592893
0.00524279
0.0058124
0.00702685
0.00639472
0.00695793
0.00632615
0.006059
0.00548915
0.00600562
0.00543615
0.00528445
0.00448887
0.00521323
0.00440952
0.0044495
0.00369707
0.00439434
0.00363477
0.0041601
0.0041613
0.00407222
0.00407336
0.00337704
0.00337805
0.00330638
0.00330733
0.00449192
0.00528861
0.00441238
0.00521714
0.00369949
0.00445269
0.00363704
0.00439734
0.00640001
0.00703361
0.00633113
0.00696432
0.00549319
0.00606418
0.00543997
0.00601052
0.00710003
0.00646737
0.00707296
0.00644057
0.0061149
0.00554438
0.00609438
0.0055242
0.00535944
0.00457145
0.00533197
0.0045415
0.0045065
0.0037605
0.00448586
0.00373783
0.00425071
0.004252
0.00421806
0.00421932
0.00344809
0.00344917
0.00342294
0.00342399
0.00457472
0.00536392
0.00454468
0.00533632
0.0037631
0.00450994
0.00374036
0.0044892
0.00647305
0.00710728
0.00644609
0.00708
0.00554871
0.00612044
0.00552841
0.00609977
0.00712448
0.00649153
0.00711709
0.00648428
0.00613295
0.005562
0.00612765
0.00555691
0.005384
0.00459784
0.00537681
0.00459035
0.00452433
0.00377973
0.00451935
0.00377458
0.00427921
0.00428053
0.00427128
0.00427259
0.00346911
0.00347022
0.00346368
0.00346477
0.00460122
0.00538862
0.00459369
0.00538138
0.0037824
0.00452788
0.00377723
0.00452286
0.0064974
0.00713196
0.00649008
0.00712448
0.00556648
0.00613867
0.00556133
0.0061333
0.00712757
0.00649468
0.007128
0.00649524
0.00613475
0.00556368
0.00613524
0.00556436
0.00538735
0.00460135
0.00538811
0.00460241
0.00452611
0.00378155
0.00452701
0.00378274
0.00428286
0.00428419
0.00428418
0.00428551
0.00347094
0.00347205
0.00347244
0.00347355
0.00460476
0.00539201
0.00460581
0.00539277
0.00378425
0.00452969
0.00378543
0.00453058
0.00650061
0.00713513
0.00650116
0.00713555
0.0055682
0.00614052
0.00556887
0.006141
0.00712302
0.00649049
0.00712695
0.00649421
0.00613064
0.00555976
0.00613398
0.00556301
0.00538346
0.0045973
0.00538701
0.00460108
0.00452241
0.00377768
0.00452554
0.00378102
0.00427847
0.0042798
0.0042826
0.00428393
0.00346668
0.00346779
0.00347039
0.00347151
0.00460071
0.00538813
0.00460449
0.00539169
0.00378038
0.00452599
0.00378372
0.00452912
0.00649643
0.0071306
0.00650015
0.00713453
0.00556429
0.00613642
0.00556753
0.00613976
0.00711467
0.00648257
0.00712014
0.00648784
0.00612354
0.00555297
0.0061281
0.00555739
0.00537578
0.00458929
0.00538104
0.00459495
0.00451577
0.00377069
0.0045202
0.00377552
0.00426996
0.00427129
0.00427602
0.00427736
0.00345909
0.0034602
0.00346441
0.00346552
0.0045927
0.00538044
0.00459836
0.00538571
0.00377338
0.00451934
0.00377822
0.00452378
0.00648851
0.00712224
0.00649378
0.00712772
0.00555749
0.00612931
0.00556191
0.00613388
0.00710437
0.00647282
0.00711069
0.00647889
0.00611483
0.0055447
0.00612011
0.00554977
0.00536629
0.00457932
0.00537235
0.00458585
0.00450769
0.00376212
0.00451276
0.00376766
0.00425925
0.00426058
0.00426634
0.00426768
0.00344971
0.00345082
0.00345587
0.00345697
0.00458272
0.00537094
0.00458925
0.00537701
0.0037648
0.00451125
0.00377035
0.00451633
0.00647873
0.00711192
0.00648481
0.00711826
0.0055492
0.00612059
0.00555428
0.00612588
0.00709272
0.00646181
0.00709968
0.00646846
0.00610497
0.00553538
0.00611079
0.00554095
0.00535558
0.00456804
0.00536221
0.00457518
0.00449859
0.00375244
0.00450415
0.0037585
0.00424713
0.00424845
0.00425489
0.00425622
0.00343911
0.00344021
0.00344585
0.00344695
0.00457142
0.00536021
0.00457856
0.00536685
0.00375511
0.00450212
0.00376118
0.00450769
0.00646769
0.00710025
0.00647436
0.00710722
0.00553986
0.00611071
0.00554544
0.00611654
0.0070799
0.00644969
0.00708744
0.00645689
0.00609406
0.00552511
0.0061004
0.00553115
0.00534378
0.0045556
0.00535094
0.00456331
0.00448855
0.00374174
0.00449457
0.00374831
0.00423375
0.00423507
0.00424213
0.00424345
0.00342739
0.00342849
0.00343468
0.00343578
0.00455896
0.00534838
0.00456668
0.00535556
0.0037444
0.00449207
0.00375097
0.0044981
0.00645555
0.00708738
0.00646277
0.00709494
0.00552957
0.00609977
0.00553562
0.00610613
0.00706586
0.00643647
0.00707401
0.00644422
0.00608208
0.00551387
0.00608896
0.00552039
0.0053309
0.00454199
0.0053386
0.00455028
0.00447758
0.00373002
0.00448407
0.0037371
0.0042191
0.00422042
0.00422812
0.00422944
0.00341452
0.00341561
0.00342239
0.00342349
0.00454533
0.00533547
0.00455363
0.0053432
0.00373267
0.00448108
0.00373975
0.00448758
0.0064423
0.00707332
0.00645007
0.00708148
0.0055183
0.00608776
0.00552484
0.00609466
0.0070506
0.0064221
0.00705936
0.00643043
0.006069
0.00550163
0.00607643
0.00550865
0.00531689
0.00452718
0.00532516
0.00453608
0.00446563
0.00371724
0.00447261
0.00372485
0.00420314
0.00420445
0.00421283
0.00421414
0.00340046
0.00340155
0.00340893
0.00341002
0.0045305
0.00532144
0.00453941
0.00532972
0.00371986
0.0044691
0.00372749
0.0044761
0.00642789
0.00705801
0.00643625
0.0070668
0.00550604
0.00607465
0.00551308
0.0060821
0.00703402
0.00640652
0.00704345
0.00641546
0.00605476
0.00548833
0.00606278
0.00549589
0.00530169
0.00451108
0.00531056
0.00452063
0.00445264
0.00370333
0.00446015
0.00371151
0.00418578
0.00418708
0.00419617
0.00419748
0.00338513
0.00338621
0.00339424
0.00339533
0.00451438
0.0053062
0.00452394
0.0053151
0.00370593
0.00445609
0.00371413
0.00446361
0.00641227
0.0070414
0.00642124
0.00705085
0.00549271
0.00606039
0.00550029
0.00606842
0.00701606
0.00638964
0.00702619
0.00639924
0.0060393
0.00547392
0.00604794
0.00548204
0.00528522
0.00449363
0.00529473
0.00450386
0.00443856
0.00368822
0.00444662
0.003697
0.00416694
0.00416823
0.00417807
0.00417937
0.00336846
0.00336954
0.00337825
0.00337933
0.00449691
0.0052897
0.00450715
0.00529923
0.0036908
0.00444198
0.0036996
0.00445005
0.00639536
0.00702339
0.00640498
0.00703354
0.00547827
0.00604489
0.00548641
0.00605355
0.00699665
0.00637142
0.0070075
0.00638169
0.00602257
0.00545833
0.00603184
0.00546704
0.00526742
0.00447475
0.0052776
0.0044857
0.00442332
0.00367186
0.00443196
0.00368127
0.00414653
0.00414782
0.00415845
0.00415974
0.00335038
0.00335145
0.00336088
0.00336195
0.00447801
0.00527187
0.00448897
0.00528207
0.00367442
0.00442672
0.00368385
0.00443537
0.00637709
0.00700393
0.00638739
0.00701481
0.00546264
0.00602812
0.00547137
0.00603741
0.00697574
0.00635179
0.00698734
0.00636276
0.00600452
0.00544152
0.00601445
0.00545084
0.00524825
0.00445439
0.00525912
0.00446608
0.00440689
0.0036542
0.00441613
0.00366426
0.0041245
0.00412578
0.00413724
0.00413852
0.00333084
0.00333191
0.00334207
0.00334314
0.00445762
0.00525266
0.00446932
0.00526355
0.00365674
0.00441026
0.00366682
0.00441951
0.00635742
0.00698297
0.00636842
0.0069946
0.00544581
0.00601003
0.00545515
0.00601999
0.00695328
0.00633072
0.00696566
0.00634242
0.00598512
0.00542348
0.00599573
0.00543342
0.00522766
0.0044325
0.00523923
0.00444495
0.00438924
0.00363521
0.00439909
0.00364593
0.0041008
0.00410207
0.00411437
0.00411565
0.0033098
0.00331085
0.00332178
0.00332284
0.0044357
0.00523202
0.00444817
0.00524362
0.00363772
0.00439257
0.00364846
0.00440243
0.0063363
0.00696045
0.00634803
0.00697286
0.00542772
0.00599059
0.00543768
0.00600122
0.00692927
0.00630817
0.00694241
0.0063206
0.00596436
0.00540418
0.00597565
0.00541474
0.00520562
0.00440906
0.00521792
0.00442228
0.00437037
0.00361487
0.00438082
0.00362626
0.00407537
0.00407663
0.00408981
0.00409107
0.00328722
0.00328827
0.00329997
0.00330102
0.00441222
0.00520995
0.00442547
0.00522226
0.00361736
0.00437366
0.00362877
0.00438413
0.00631371
0.00693638
0.00632616
0.00694956
0.00540838
0.00596979
0.00541897
0.0059811
0.00690372
0.00628425
0.00691764
0.00629736
0.00594225
0.00538365
0.00595421
0.00539483
0.00518216
0.00438404
0.00519516
0.00439805
0.00435027
0.00359318
0.00436133
0.00360525
0.0040482
0.00404945
0.00406351
0.00406476
0.00326309
0.00326413
0.00327661
0.00327765
0.00438717
0.00518643
0.0044012
0.00519946
0.00359564
0.00435352
0.00360772
0.0043646
0.00628972
0.00691078
0.00630287
0.00692473
0.00538781
0.00594763
0.00539901
0.00595961
0.00687661
0.00625885
0.0068913
0.0062727
0.00591878
0.00536184
0.00593141
0.00537365
0.00515724
0.00435745
0.00517096
0.00437223
0.00432893
0.00357012
0.00434061
0.00358287
0.00401929
0.00402052
0.00403546
0.0040367
0.0032374
0.00323843
0.0032517
0.00325273
0.00436055
0.00516147
0.00437535
0.00517522
0.00357255
0.00433214
0.00358531
0.00434384
0.00626427
0.0068836
0.00627815
0.00689833
0.00536596
0.00592411
0.00537779
0.00593676
0.00684796
0.00623201
0.00686341
0.00624657
0.005894
0.00533882
0.00590727
0.00535123
0.00513091
0.00432931
0.00514532
0.00434486
0.00430638
0.00354574
0.00431865
0.00355914
0.00398865
0.00398988
0.00400567
0.0040069
0.00321019
0.0032112
0.00322524
0.00322626
0.00433237
0.00513508
0.00434794
0.00514953
0.00354814
0.00430955
0.00356155
0.00432184
0.00623737
0.00685488
0.00625196
0.00687037
0.00534289
0.00589927
0.00535532
0.00591258
0.00681786
0.00620379
0.00683401
0.00621902
0.00586798
0.00531466
0.00588186
0.00532762
0.00510321
0.0042997
0.00511829
0.00431597
0.00428269
0.0035201
0.00429552
0.00353411
0.00395637
0.00395758
0.00397419
0.00397541
0.00318152
0.00318252
0.00319728
0.00319829
0.00430272
0.00510733
0.00431901
0.00512244
0.00352246
0.00428581
0.00353649
0.00429866
0.00620909
0.00682471
0.00622435
0.0068409
0.00531867
0.0058732
0.00533166
0.00588711
0.0067864
0.00617431
0.00680322
0.00619015
0.00584081
0.00528943
0.00585525
0.00530291
0.00507426
0.00426871
0.00508995
0.00428564
0.00425795
0.00349329
0.00427128
0.00350786