/*--------------------------------*- C++ -*----------------------------------*\
  =========                 |
  \\      /  F ield         | OpenFOAM: The Open Source CFD Toolbox
   \\    /   O peration     | Website:  https://openfoam.org
    \\  /    A nd           | Version:  9
     \\/     M anipulation  |
\*---------------------------------------------------------------------------*/
FoamFile
{
    format      ascii;
    class       surfaceScalarField;
    location    "1.9";
    object      phi;
}
// * * * * * * * * * * * * * * * * * * * * * * * * * * * * * * * * * * * * * //

dimensions      [0 3 -1 0 0 0 0];

internalField   nonuniform List<scalar> 
104044
(
3.7987e-07
-6.53499e-05
-3.21977e-07
6.43247e-05
9.67345e-07
-4.59973e-05
-3.09092e-06
-1.36733e-07
4.86559e-05
9.4902e-07
1.86923e-07
-6.66881e-07
1.00318e-06
-2.73916e-06
-7.32136e-08
7.18835e-07
1.65792e-08
-6.71586e-05
6.68201e-05
-4.56977e-05
3.04461e-09
4.26203e-05
5.0815e-08
-2.4682e-08
-8.54807e-09
-5.25673e-05
-1.90363e-06
5.30664e-05
1.27633e-06
-5.49998e-05
-5.96053e-07
-5.01215e-11
5.54141e-05
1.73261e-07
-3.55877e-09
-1.52973e-06
6.71526e-07
-1.02306e-06
-7.7085e-11
1.95195e-07
-8.93126e-09
-5.65309e-05
5.46393e-05
-5.64842e-05
-2.43156e-09
5.58816e-05
-5.13771e-09
-5.7467e-10
-5.85588e-13
-5.56747e-05
-6.16969e-07
5.61572e-05
1.345e-07
-5.56744e-05
-6.16997e-07
4.87375e-11
5.61568e-05
1.34537e-07
-5.67831e-13
-1.07506e-06
2.20651e-07
-1.07508e-06
7.68767e-11
2.20662e-07
-1.39529e-12
-5.58175e-05
5.51981e-05
-5.5817e-05
2.43062e-09
5.51976e-05
-2.03018e-13
5.7379e-10
8.54485e-09
-5.49987e-05
-5.95968e-07
5.54129e-05
1.73265e-07
-5.25648e-05
-1.90389e-06
1.36726e-07
5.30639e-05
1.27658e-06
3.5588e-09
-1.02305e-06
1.9522e-07
-1.52981e-06
7.32099e-08
6.71677e-07
8.92193e-09
-5.64827e-05
5.58802e-05
-5.65279e-05
-3.07117e-09
5.4636e-05
5.13674e-09
2.46795e-08
-3.79925e-07
-4.59948e-05
-3.09111e-06
4.8654e-05
9.48595e-07
-6.53536e-05
-3.2213e-07
6.43282e-05
9.67559e-07
-1.8696e-07
-2.73958e-06
7.18857e-07
-6.67463e-07
1.00388e-06
-1.65066e-08
-4.56928e-05
4.26151e-05
-6.71669e-05
6.68282e-05
-5.07935e-08
3.73987e-07
-6.32383e-05
-1.2033e-06
6.22158e-05
1.8518e-06
-5.05819e-05
3.87027e-07
-1.05412e-07
5.15846e-05
-9.10412e-07
3.9898e-07
-8.03343e-07
1.49079e-06
-1.40508e-06
-1.2785e-07
5.90888e-09
-1.89582e-07
-6.60887e-05
6.5075e-05
-4.10783e-05
1.38277e-07
4.11375e-05
-7.19921e-08
6.49468e-08
-1.54082e-08
-5.35655e-05
-1.93355e-06
5.38012e-05
1.60778e-06
-5.56669e-05
-8.60962e-07
-3.50085e-09
5.57413e-05
7.74614e-07
-1.15557e-08
-2.32427e-06
1.70895e-06
-8.01513e-07
-1.8352e-09
5.39013e-07
-1.04484e-08
-5.23883e-05
5.06035e-05
-5.50783e-05
-8.21187e-09
5.42151e-05
-8.3508e-09
-6.59518e-09
4.13381e-13
-5.65975e-05
-3.22079e-07
5.67953e-05
1.20806e-07
-5.65972e-05
-3.21973e-07
3.49801e-09
5.6795e-05
1.20697e-07
-4.51012e-13
-4.95731e-07
5.35317e-08
-4.95699e-07
1.83332e-09
5.35202e-08
-4.93417e-13
-5.46958e-05
5.43655e-05
-5.46953e-05
8.21508e-09
5.43651e-05
-2.1121e-12
6.59616e-09
1.53895e-08
-5.56656e-05
-8.60927e-07
5.57399e-05
7.74687e-07
-5.35631e-05
-1.93376e-06
1.05381e-07
5.3799e-05
1.60786e-06
1.15456e-08
-8.01411e-07
5.39015e-07
-2.32461e-06
1.27834e-07
1.70915e-06
1.04309e-08
-5.50771e-05
5.42139e-05
-5.23847e-05
-1.38361e-07
5.05998e-05
8.3398e-09
-6.49984e-08
-3.73955e-07
-5.05803e-05
3.8785e-07
5.15833e-05
-9.11483e-07
-6.32416e-05
-1.20382e-06
6.2219e-05
1.8525e-06
-3.98998e-07
-1.4046e-06
5.09686e-09
-8.03689e-07
1.49129e-06
1.89831e-07
-4.10733e-05
4.1133e-05
-6.60967e-05
6.50827e-05
7.21415e-08
2.32665e-07
-6.13447e-05
-1.61355e-06
6.05903e-05
2.13529e-06
-5.22675e-05
1.88645e-06
-2.53804e-08
5.28053e-05
-2.16621e-06
3.07989e-07
-1.46415e-06
2.02719e-06
1.3234e-06
-6.63513e-08
-1.63189e-06
-4.53419e-07
-6.39298e-05
6.27697e-05
-4.1929e-05
2.84955e-07
4.3077e-05
-3.18959e-07
2.1294e-07
-1.1473e-08
-5.38327e-05
-9.11474e-07
5.38099e-05
9.2035e-07
-5.57088e-05
-5.05716e-07
-1.08515e-08
5.56048e-05
6.09056e-07
-1.46504e-08
-1.33867e-06
1.25547e-06
-7.12041e-07
-5.2029e-09
7.35155e-07
-5.1215e-09
-4.94871e-05
4.88657e-05
-5.35037e-05
-1.19575e-08
5.30049e-05
-9.32778e-09
-9.96808e-09
-1.53724e-11
-5.67627e-05
-9.85909e-08
5.66349e-05
2.15601e-07
-5.67623e-05
-9.85059e-08
1.09267e-08
5.66344e-05
2.15496e-07
7.05595e-12
-1.84018e-07
2.11368e-07
-1.83902e-07
5.17785e-09
2.11369e-07
9.21604e-12
-5.41715e-05
5.4061e-05
-5.41713e-05
1.19709e-08
5.40608e-05
3.46097e-12
9.97162e-09
1.15046e-08
-5.57073e-05
-5.05813e-07
5.56033e-05
6.09232e-07
-5.38306e-05
-9.11512e-07
2.53038e-08
5.38079e-05
9.20413e-07
1.44923e-08
-7.12067e-07
7.35333e-07
-1.33875e-06
6.62845e-08
1.25531e-06
5.09927e-09
-5.35025e-05
5.30036e-05
-4.94834e-05
-2.85106e-07
4.88621e-05
9.31054e-09
-2.13058e-07
-2.32552e-07
-5.22663e-05
1.88753e-06
5.28042e-05
-2.16758e-06
-6.13478e-05
-1.6144e-06
6.05932e-05
2.13646e-06
-3.07907e-07
1.32439e-06
-1.6332e-06
-1.46481e-06
2.02808e-06
4.53881e-07
-4.1925e-05
4.30736e-05
-6.39372e-05
6.27767e-05
3.19312e-07
7.15997e-08
-5.99483e-05
-1.71553e-06
5.93866e-05
2.20557e-06
-5.32566e-05
2.28513e-06
5.6504e-08
5.3648e-05
-2.66139e-06
1.49098e-07
-1.66494e-06
2.15791e-06
2.14903e-06
1.28313e-08
-2.46412e-06
-6.81067e-07
-6.16732e-05
6.06388e-05
-4.43175e-05
3.90077e-07
4.55315e-05
-5.68458e-07
3.40135e-07
1.7062e-09
-5.38045e-05
-4.3997e-07
5.3837e-05
4.62237e-07
-5.54785e-05
-2.39466e-07
-1.39873e-08
5.53654e-05
3.68254e-07
-9.45233e-09
-6.1323e-07
6.40944e-07
-3.33433e-07
-1.34615e-08
4.63753e-07
1.1099e-08
-4.85906e-05
4.85296e-05
-5.26863e-05
-1.26729e-08
5.24706e-05
1.99776e-09
-1.28854e-08
2.62563e-12
-5.64898e-05
-5.67407e-09
5.6351e-05
1.30399e-07
-5.64892e-05
-5.70504e-09
1.39747e-08
5.63505e-05
1.30468e-07
8.86521e-12
-3.70705e-08
1.68739e-07
-3.70671e-08
1.34683e-08
1.68793e-07
2.20386e-12
-5.4011e-05
5.39926e-05
-5.40108e-05
1.26524e-08
5.39925e-05
6.37023e-12
1.28822e-08
-1.75571e-09
-5.54771e-05
-2.39584e-07
5.5364e-05
3.68395e-07
-5.38026e-05
-4.39916e-07
-5.66377e-08
5.38353e-05
4.62114e-07
9.39966e-09
-3.33537e-07
4.63893e-07
-6.13229e-07
-1.28868e-08
6.40837e-07
-1.11554e-08
-5.2685e-05
5.24692e-05
-4.85871e-05
-3.90282e-07
4.85264e-05
-2.03741e-09
-3.40313e-07
-7.13921e-08
-5.32556e-05
2.28635e-06
5.36471e-05
-2.66303e-06
-5.99509e-05
-1.71667e-06
5.93891e-05
2.20713e-06
-1.48928e-07
2.15018e-06
-2.46562e-06
-1.66593e-06
2.15927e-06
6.81729e-07
-4.43144e-05
4.55288e-05
-6.16798e-05
6.06448e-05
5.69019e-07
-6.6805e-08
-5.89008e-05
-1.73205e-06
5.84664e-05
2.23325e-06
-5.39768e-05
2.25775e-06
1.17152e-07
5.42565e-05
-2.72137e-06
-1.30393e-09
-1.7149e-06
2.20198e-06
2.27658e-06
9.33867e-08
-2.70007e-06
-8.494e-07
-5.96888e-05
5.88061e-05
-4.66225e-05
4.49446e-07
4.75814e-05
-7.64936e-07
4.20625e-07
1.88536e-08
-5.39028e-05
-2.73557e-07
5.39864e-05
2.88257e-07
-5.5274e-05
-1.76121e-07
-9.66402e-09
5.51994e-05
2.79225e-07
1.11133e-08
-3.2905e-07
3.45563e-07
-1.9111e-07
-1.23011e-08
3.05937e-07
3.14413e-08
-4.86002e-05
4.87446e-05
-5.23109e-05
-9.66457e-09
5.21758e-05
2.09634e-08
-1.03793e-08
-2.54818e-12
-5.62307e-05
-2.54375e-08
5.61215e-05
1.2499e-07
-5.62301e-05
-2.54833e-08
9.6483e-09
5.61209e-05
1.25056e-07
-1.05193e-13
-7.14931e-09
1.15215e-07
-7.1886e-09
1.22753e-08
1.15286e-07
-1.95621e-12
-5.39751e-05
5.394e-05
-5.39749e-05
9.64823e-09
5.39398e-05
6.51906e-13
1.03683e-08
-1.89055e-08
-5.52726e-05
-1.76233e-07
5.5198e-05
2.79347e-07
-5.39012e-05
-2.73495e-07
-1.17217e-07
5.39849e-05
2.88091e-07
-1.11453e-08
-1.91237e-07
3.06067e-07
-3.28992e-07
-9.3458e-08
3.45423e-07
-3.1523e-08
-5.23094e-05
5.21743e-05
-4.85972e-05
-4.49687e-07
4.87419e-05
-2.10326e-08
-4.20848e-07
6.7075e-08
-5.3976e-05
2.25918e-06
5.42557e-05
-2.72323e-06
-5.89031e-05
-1.73337e-06
5.84685e-05
2.23507e-06
1.54147e-09
2.27791e-06
-2.70181e-06
-1.71614e-06
2.20368e-06
8.50229e-07
-4.66201e-05
4.75794e-05
-5.96944e-05
5.88112e-05
7.65679e-07
-1.73953e-07
-5.80814e-05
-1.70316e-06
5.77288e-05
2.22973e-06
-5.44808e-05
2.11396e-06
1.42663e-07
5.46577e-05
-2.60748e-06
-1.23027e-07
-1.70584e-06
2.21388e-06
2.17049e-06
1.31251e-07
-2.6491e-06
-9.64184e-07
-5.80039e-05
5.72649e-05
-4.83873e-05
4.75195e-07
4.90619e-05
-9.03548e-07
4.60982e-07
3.38017e-08
-5.40742e-05
-2.3244e-07
5.41587e-05
2.56748e-07
-5.51388e-05
-1.72653e-07
-6.28545e-09
5.5085e-05
2.66627e-07
2.6169e-08
-2.41399e-07
2.58709e-07
-1.70241e-07
-8.08989e-09
2.65074e-07
5.05354e-08
-4.89233e-05
4.91155e-05
-5.20547e-05
-6.50751e-09
5.19391e-05
4.09293e-08
-8.21588e-09
-5.50303e-12
-5.60216e-05
-8.25971e-08
5.59257e-05
1.72145e-07
-5.6021e-05
-8.26319e-08
6.26015e-09
5.59252e-05
1.72189e-07
-4.16221e-12
-5.32246e-08
1.4503e-07
-5.32672e-08
8.06938e-09
1.45087e-07
-5.22983e-12
-5.38786e-05
5.37895e-05
-5.38783e-05
6.48247e-09
5.37892e-05
-3.73261e-12
8.19559e-09
-3.38778e-08
-5.51375e-05
-1.72729e-07
5.50836e-05
2.66719e-07
-5.40728e-05
-2.32371e-07
-1.42715e-07
5.41574e-05
2.56548e-07
-2.62318e-08
-1.70332e-07
2.65178e-07
-2.41331e-07
-1.31309e-07
2.58525e-07
-5.06371e-08
-5.20532e-05
5.19376e-05
-4.89207e-05
-4.75451e-07
4.91132e-05
-4.10209e-08
-4.6123e-07
1.74285e-07
-5.44802e-05
2.11553e-06
5.46572e-05
-2.60953e-06
-5.80832e-05
-1.70458e-06
5.77304e-05
2.23171e-06
1.23324e-07
2.17199e-06
-2.65104e-06
-1.7072e-06
2.21577e-06
9.65144e-07
-4.83857e-05
4.90607e-05
-5.80085e-05
5.7269e-05
9.04439e-07
-2.51554e-07
-5.74096e-05
-1.64654e-06
5.71113e-05
2.19641e-06
-5.47866e-05
1.95768e-06
1.51125e-07
5.48755e-05
-2.44929e-06
-2.13888e-07
-1.66094e-06
2.19401e-06
2.01456e-06
1.46966e-07
-2.50428e-06
-1.03683e-06
-5.65985e-05
5.59888e-05
-4.96075e-05
4.81285e-07
5.00471e-05
-9.94601e-07
4.74345e-07
4.76619e-08
-5.42321e-05
-2.34886e-07
5.42925e-05
2.77946e-07
-5.50339e-05
-1.73046e-07
-1.74605e-09
5.49813e-05
2.75026e-07
4.0446e-08
-2.27859e-07
2.61054e-07
-1.71565e-07
-4.06847e-09
2.67118e-07
6.60402e-08
-4.93038e-05
4.94842e-05
-5.18301e-05
-2.11184e-09
5.17252e-05
5.8186e-08
-4.36151e-09
-7.64834e-12
-5.58323e-05
-1.23531e-07
5.57364e-05
2.17707e-07
-5.58318e-05
-1.23554e-07
1.71133e-09
5.57359e-05
2.17737e-07
-6.57612e-12
-1.04753e-07
1.94099e-07
-1.04778e-07
4.03888e-09
1.94128e-07
-7.55199e-12
-5.36804e-05
5.35547e-05
-5.36801e-05
2.07748e-09
5.35545e-05
-6.35616e-12
4.33217e-09
-4.77673e-08
-5.50326e-05
-1.7309e-07
5.49801e-05
2.75096e-07
-5.42308e-05
-2.34843e-07
-1.51165e-07
5.42913e-05
2.77737e-07
-4.05348e-08
-1.71626e-07
2.67201e-07
-2.27796e-07
-1.47012e-07
2.60848e-07
-6.61567e-08
-5.18286e-05
5.17237e-05
-4.93017e-05
-4.81611e-07
4.94823e-05
-5.82944e-08
-4.746e-07
2.51945e-07
-5.47861e-05
1.95933e-06
5.48751e-05
-2.45144e-06
-5.7411e-05
-1.648e-06
5.71125e-05
2.19844e-06
2.14246e-07
2.01616e-06
-2.50636e-06
-1.66237e-06
2.19601e-06
1.03788e-06
-4.96066e-05
5.00465e-05
-5.66023e-05
5.59921e-05
9.95602e-07
-3.05163e-07
-5.68362e-05
-1.58191e-06
5.65742e-05
2.14906e-06
-5.49263e-05
1.82191e-06
1.49641e-07
5.49454e-05
-2.29589e-06
-2.78194e-07
-1.59986e-06
2.15314e-06
1.86976e-06
1.49794e-07
-2.34853e-06
-1.07966e-06
-5.54399e-05
5.49377e-05
-5.03882e-05
4.81245e-07
5.06493e-05
-1.05095e-06
4.77673e-07
6.11091e-08
-5.43369e-05
-2.558e-07
5.43653e-05
3.15861e-07
-5.49262e-05
-1.69063e-07
3.24011e-09
5.4866e-05
2.87135e-07
5.37685e-08
-2.40775e-07
2.92384e-07
-1.69819e-07
7.19639e-10
2.78056e-07
7.74556e-08
-4.96495e-05
4.97975e-05
-5.16267e-05
2.70409e-09
5.15324e-05
7.15475e-08
2.81895e-10
-6.76608e-12
-5.56385e-05
-1.4717e-07
5.55356e-05
2.53254e-07
-5.56379e-05
-1.47187e-07
-3.28129e-09
5.55351e-05
2.53279e-07
-8.14535e-12
-1.35629e-07
2.34322e-07
-1.3565e-07
-7.58356e-10
2.3435e-07
4.79979e-13
-5.34194e-05
5.32749e-05
-5.34191e-05
-2.73331e-09
5.32747e-05
-7.22872e-12
-3.19285e-10
-6.12695e-08
-5.49249e-05
-1.69054e-07
5.48648e-05
2.87192e-07
-5.43359e-05
-2.55814e-07
-1.49668e-07
5.43644e-05
3.15652e-07
-5.38926e-08
-1.69841e-07
2.78112e-07
-2.40756e-07
-1.49827e-07
2.92179e-07
-7.76235e-08
-5.16252e-05
5.15311e-05
-4.96479e-05
-4.81566e-07
4.9796e-05
-7.16711e-08
-4.77998e-07
3.05605e-07
-5.4926e-05
1.82357e-06
5.49452e-05
-2.29806e-06
-5.68372e-05
-1.58337e-06
5.65751e-05
2.15111e-06
2.78607e-07
1.8714e-06
-2.35068e-06
-1.6013e-06
2.15517e-06
1.08078e-06
-5.03878e-05
5.06491e-05
-5.54429e-05
5.49403e-05
1.05203e-06
-3.40396e-07
-5.63278e-05
-1.52098e-06
5.6089e-05
2.10027e-06
-5.4936e-05
1.7072e-06
1.42653e-07
5.49016e-05
-2.15587e-06
-3.21472e-07
-1.53538e-06
2.10325e-06
1.74507e-06
1.45194e-07
-2.20231e-06
-1.10125e-06
-5.44839e-05
5.40641e-05
-5.08392e-05
4.73645e-07
5.09715e-05
-1.08158e-06
4.73593e-07
8.36221e-08
-5.43759e-05
-2.89221e-07
5.43644e-05
3.59747e-07
-5.4801e-05
-1.62182e-07
8.09719e-09
5.47326e-05
3.06124e-07
6.89226e-08
-2.68047e-07
3.33729e-07
-1.64196e-07
5.68785e-09
2.92409e-07
8.14926e-08
-4.99224e-05
5.00253e-05
-5.14437e-05
6.82003e-09
5.13562e-05
8.06906e-08
5.11286e-09
-4.27492e-11
-5.54294e-05
-1.61869e-07
5.53169e-05
2.82464e-07
-5.54289e-05
-1.61954e-07
-8.19768e-09
5.53165e-05
2.82503e-07
-2.06701e-12
-1.53644e-07
2.65549e-07
-1.53652e-07
-5.72e-09
2.65574e-07
-3.1194e-10
-5.31263e-05
5.29716e-05
-5.3126e-05
-7.81615e-09
5.29715e-05
5.35305e-11
-4.93001e-09
-8.36887e-08
-5.47999e-05
-1.62453e-07
5.47316e-05
3.06195e-07
-5.43751e-05
-2.88938e-07
-1.42715e-07
5.43635e-05
3.59535e-07
-6.92211e-08
-1.64076e-07
2.92476e-07
-2.68174e-07
-1.45201e-07
3.33519e-07
-8.4108e-08
-5.14421e-05
5.13559e-05
-4.99215e-05
-4.74801e-07
5.00233e-05
-8.00215e-08
-4.73702e-07
3.40839e-07
-5.49358e-05
1.70894e-06
5.49014e-05
-2.15805e-06
-5.63285e-05
-1.52235e-06
5.60894e-05
2.10227e-06
3.21936e-07
1.74668e-06
-2.20445e-06
-1.5368e-06
2.10527e-06
1.10214e-06
-5.08393e-05
5.09713e-05
-5.44862e-05
5.4066e-05
1.08275e-06
-3.62423e-07
-5.58593e-05
-1.47024e-06
5.56317e-05
2.06023e-06
-5.48456e-05
1.61052e-06
1.35208e-07
5.47685e-05
-2.03106e-06
-3.49366e-07
-1.48103e-06
2.06008e-06
1.64293e-06
1.36628e-07
-2.07288e-06
-1.10895e-06
-5.36788e-05
5.33175e-05
-5.10535e-05
4.62694e-07
5.10923e-05
-1.09569e-06
4.65245e-07
9.4866e-08
-5.43357e-05
-3.24816e-07
5.4291e-05
4.09815e-07
-5.46564e-05
-1.61114e-07
1.21718e-08
5.45702e-05
3.30027e-07
8.89668e-08
-3.03499e-07
3.79908e-07
-1.59345e-07
1.02212e-08
3.1423e-07
8.29117e-08
-5.01019e-05
5.01568e-05
-5.1272e-05
1.05201e-08
5.11833e-05
8.5198e-08
1.00426e-08
-5.65347e-11
-5.51998e-05
-1.7364e-07
5.50751e-05
3.10567e-07
-5.51993e-05
-1.73755e-07
-1.23134e-08
5.50747e-05
3.10599e-07
5.68564e-11
-1.66301e-07
2.93623e-07
-1.6621e-07
-1.01866e-08
2.93636e-07
-4.94678e-10
-5.28149e-05
5.26522e-05
-5.28144e-05
-1.20818e-08
5.26522e-05
4.95595e-10
-8.57443e-09
-9.47923e-08
-5.46554e-05
-1.61583e-07
5.45694e-05
3.30092e-07
-5.4335e-05
-3.24323e-07
-1.35316e-07
5.42902e-05
4.09626e-07
-8.94236e-08
-1.58756e-07
3.1422e-07
-3.04153e-07
-1.36548e-07
3.79773e-07
-8.69976e-08
-5.12699e-05
5.11833e-05
-5.0102e-05
-4.64334e-07
5.0155e-05
-8.13459e-08
-4.64226e-07
3.62875e-07
-5.48455e-05
1.61226e-06
5.47683e-05
-2.0332e-06
-5.58598e-05
-1.47154e-06
5.5632e-05
2.06219e-06
3.49914e-07
1.64433e-06
-2.07494e-06
-1.48249e-06
2.06209e-06
1.1097e-06
-5.10541e-05
5.10924e-05
-5.36808e-05
5.33189e-05
1.09725e-06
-3.75297e-07
-5.54088e-05
-1.43081e-06
5.51835e-05
2.0314e-06
-5.46731e-05
1.5256e-06
1.2964e-07
5.45592e-05
-1.91667e-06
-3.66084e-07
-1.43604e-06
2.02508e-06
1.5521e-06
1.31268e-07
-1.95408e-06
-1.10679e-06
-5.29791e-05
5.26551e-05
-5.10936e-05
4.50617e-07
5.10618e-05
-1.09761e-06
4.53236e-07
1.00881e-07
-5.42305e-05
-3.57763e-07
5.41531e-05
4.63958e-07
-5.4475e-05
-1.68676e-07
1.4285e-08
5.43686e-05
3.61695e-07
9.72558e-08
-3.37521e-07
4.32023e-07
-1.62686e-07
1.38058e-08
3.41334e-07
8.44944e-08
-5.01865e-05
5.01949e-05
-5.10933e-05
1.41576e-08
5.09949e-05
8.60396e-08
1.33867e-08
-2.83858e-10
-5.49447e-05
-1.85829e-07
5.48047e-05
3.40365e-07
-5.49442e-05
-1.85815e-07
-1.5238e-08
5.48045e-05
3.4044e-07
5.31454e-11
-1.77809e-07
3.21939e-07
-1.77769e-07
-1.35911e-08
3.21917e-07
-2.29652e-10
-5.24875e-05
5.2316e-05
-5.24872e-05
-1.49472e-08
5.23161e-05
3.24839e-10
-1.24062e-08
-1.0117e-07
-5.44743e-05
-1.69008e-07
5.43676e-05
3.61625e-07
-5.423e-05
-3.5759e-07
-1.29785e-07
5.41524e-05
4.63796e-07
-9.75773e-08
-1.62263e-07
3.4135e-07
-3.37967e-07
-1.31276e-07
4.31914e-07
-8.68687e-08
-5.10918e-05
5.09947e-05
-5.01864e-05
-4.51601e-07
5.01936e-05
-8.31999e-08
-4.52607e-07
3.75769e-07
-5.4673e-05
1.52716e-06
5.4559e-05
-1.91875e-06
-5.5409e-05
-1.43211e-06
5.51836e-05
2.03331e-06
3.66621e-07
1.55349e-06
-1.95613e-06
-1.43742e-06
2.02702e-06
1.10776e-06
-5.10942e-05
5.1062e-05
-5.29806e-05
5.26562e-05
1.09903e-06
-3.81995e-07
-5.49587e-05
-1.40189e-06
5.47282e-05
2.01439e-06
-5.44296e-05
1.44856e-06
1.23741e-07
5.42834e-05
-1.8081e-06
-3.75607e-07
-1.4027e-06
2.00308e-06
1.47344e-06
1.25584e-07
-1.845e-06
-1.09866e-06
-5.2345e-05
5.20418e-05
-5.10018e-05
4.3752e-07
5.09141e-05
-1.09265e-06
4.40791e-07
1.04162e-07
-5.40597e-05
-3.89641e-07
5.39488e-05
5.20062e-07
-5.42516e-05
-1.83497e-07
1.6007e-08
5.41216e-05
4.01657e-07
1.01884e-07
-3.69633e-07
4.86757e-07
-1.73894e-07
1.58856e-08
3.76913e-07
8.3546e-08
-5.01797e-05
5.01441e-05
-5.08914e-05
1.48288e-08
5.07766e-05
8.62923e-08
1.59778e-08
-1.84334e-10
-5.46577e-05
-1.99683e-07
5.44994e-05
3.7418e-07
-5.46572e-05
-1.99869e-07
-1.64398e-08
5.44991e-05
3.74202e-07
2.85836e-10
-1.90691e-07
3.5336e-07
-1.90663e-07
-1.49721e-08
3.53266e-07
-6.66015e-10
-5.21409e-05
5.19567e-05
-5.21405e-05
-1.72652e-08
5.19572e-05
3.9679e-10
-1.46705e-08
-1.04216e-07
-5.4251e-05
-1.83796e-07
5.41209e-05
4.01674e-07
-5.40593e-05
-3.89205e-07
-1.23859e-07
5.39482e-05
5.19912e-07
-1.01975e-07
-1.73456e-07
3.77055e-07
-3.70039e-07
-1.25515e-07
4.86697e-07
-8.76445e-08
-5.08901e-05
5.07767e-05
-5.01802e-05
-4.39074e-07
5.01424e-05
-8.35239e-08
-4.40181e-07
3.82463e-07
-5.44295e-05
1.45017e-06
5.42832e-05
-1.81014e-06
-5.49588e-05
-1.40311e-06
5.47282e-05
2.01623e-06
3.76174e-07
1.4748e-06
-1.84699e-06
-1.40403e-06
2.00497e-06
1.09944e-06
-5.10026e-05
5.09142e-05
-5.23462e-05
5.20426e-05
1.09406e-06
-3.8447e-07
-5.4495e-05
-1.38162e-06
5.42529e-05
2.00822e-06
-5.41227e-05
1.37736e-06
1.1798e-07
5.39454e-05
-1.70254e-06
-3.79797e-07
-1.37794e-06
1.99094e-06
1.39972e-06
1.19698e-07
-1.73849e-06
-1.08615e-06
-5.17455e-05
5.145e-05
-5.08039e-05
4.24716e-07
5.06704e-05
-1.08163e-06
4.28323e-07
1.05399e-07
-5.38224e-05
-4.21327e-07
5.36782e-05
5.78118e-07
-5.398e-05
-2.04045e-07
1.72679e-08
5.38233e-05
4.48843e-07
1.03749e-07
-4.00776e-07
5.43171e-07
-1.91586e-07
1.66482e-08
4.20268e-07
8.21436e-08
-5.00848e-05
5.0006e-05
-5.06539e-05
1.52833e-08
5.05167e-05
8.68406e-08
1.79627e-08
-9.82102e-11
-5.43326e-05
-2.16388e-07
5.41529e-05
4.13468e-07
-5.43322e-05
-2.16694e-07
-1.72889e-08
5.41527e-05
4.13462e-07
5.8316e-11
-2.05859e-07
3.89203e-07
-2.05595e-07
-1.66186e-08
3.89147e-07
-9.61585e-10
-5.1768e-05
5.15679e-05
-5.17673e-05
-1.89624e-08
5.15686e-05
8.06593e-10
-1.48911e-08
-1.05329e-07
-5.39793e-05
-2.04321e-07
5.38228e-05
4.48902e-07
-5.38221e-05
-4.20744e-07
-1.18096e-07
5.36776e-05
5.77977e-07
-1.04135e-07
-1.91218e-07
4.20295e-07
-4.01465e-07
-1.19659e-07
5.4312e-07
-8.75866e-08
-5.06527e-05
5.0517e-05
-5.00859e-05
-4.26648e-07
5.00043e-05
-8.21053e-08
-4.27083e-07
3.84928e-07
-5.41226e-05
1.37899e-06
5.39452e-05
-1.70454e-06
-5.4495e-05
-1.38279e-06
5.42527e-05
2.01001e-06
3.8037e-07
1.40094e-06
-1.74043e-06
-1.37926e-06
1.99278e-06
1.08681e-06
-5.08049e-05
5.06704e-05
-5.17465e-05
5.14505e-05
1.0832e-06
-3.84216e-07
-5.40053e-05
-1.36921e-06
5.3746e-05
2.01272e-06
-5.37541e-05
1.31027e-06
1.12678e-07
5.35458e-05
-1.59883e-06
-3.80679e-07
-1.36156e-06
1.9898e-06
1.3312e-06
1.14185e-07
-1.63473e-06
-1.07122e-06
-5.11561e-05
5.08581e-05
-5.05178e-05
4.12649e-07
5.03442e-05
-1.06763e-06
4.1612e-07
1.05234e-07
-5.35182e-05
-4.52642e-07
5.33396e-05
6.38644e-07
-5.36541e-05
-2.28816e-07
1.80155e-08
5.34681e-05
5.02023e-07
1.04146e-07
-4.31572e-07
6.01573e-07
-2.14052e-07
1.74475e-08
4.69943e-07
8.06948e-08
-4.99043e-05
4.97836e-05
-5.03695e-05
1.58632e-08
5.02055e-05
8.62357e-08
1.93548e-08
-9.77617e-11
-5.39632e-05
-2.36689e-07
5.37585e-05
4.59457e-07
-5.39629e-05
-2.37038e-07
-1.79834e-08
5.37584e-05
4.59446e-07
4.85328e-11
-2.24181e-07
4.31281e-07
-2.2383e-07
-1.75544e-08
4.31226e-07
-1.09201e-09
-5.13621e-05
5.11423e-05
-5.13613e-05
-2.01286e-08
5.11433e-05
9.87256e-10
-1.5463e-08
-1.0515e-07
-5.36535e-05
-2.29064e-07
5.34677e-05
5.02084e-07
-5.3518e-05
-4.52032e-07
-1.12794e-07
5.33391e-05
6.38522e-07
-1.0456e-07
-2.13716e-07
4.69964e-07
-4.32348e-07
-1.14133e-07
6.01541e-07
-8.66187e-08
-5.03685e-05
5.0206e-05
-4.99059e-05
-4.14686e-07
4.97819e-05
-8.07077e-08
-4.14659e-07
3.84667e-07
-5.3754e-05
1.31187e-06
5.35455e-05
-1.6008e-06
-5.40052e-05
-1.37033e-06
5.37458e-05
2.01445e-06
3.81255e-07
1.33237e-06
-1.63662e-06
-1.36284e-06
1.99158e-06
1.07184e-06
-5.05189e-05
5.03442e-05
-5.11569e-05
5.08584e-05
1.06924e-06
-3.8167e-07
-5.34791e-05
-1.36182e-06
5.3198e-05
2.02457e-06
-5.33235e-05
1.24381e-06
1.0778e-07
5.30835e-05
-1.4932e-06
-3.79204e-07
-1.35183e-06
1.99798e-06
1.26526e-06
1.09138e-07
-1.53135e-06
-1.05355e-06
-5.05577e-05
5.02494e-05
-5.01537e-05
4.00852e-07
4.99431e-05
-1.0514e-06
4.04378e-07
1.04042e-07
-5.31452e-05
-4.84064e-07
5.29313e-05
7.01664e-07
-5.32687e-05
-2.56953e-07
1.84409e-08
5.3051e-05
5.60274e-07
1.03427e-07
-4.62613e-07
6.62775e-07
-2.40287e-07
1.79917e-08
5.25142e-07
7.89692e-08
-4.96404e-05
4.94782e-05
-5.003e-05
1.62851e-08
4.98357e-05
8.49956e-08
2.02896e-08
-1.01427e-10
-5.35426e-05
-2.60441e-07
5.33098e-05
5.1174e-07
-5.35423e-05
-2.60811e-07
-1.83982e-08
5.33097e-05
5.11726e-07
4.75856e-11
-2.46032e-07
4.79944e-07
-2.45644e-07
-1.81259e-08
4.79884e-07
-1.15522e-09
-5.09155e-05
5.06725e-05
-5.09147e-05
-2.08757e-08
5.06736e-05
1.07091e-09
-1.59752e-08
-1.03958e-07
-5.32682e-05
-2.57184e-07
5.30506e-05
5.60338e-07
-5.3145e-05
-4.83451e-07
-1.07895e-07
5.29309e-05
7.01554e-07
-1.03835e-07
-2.39983e-07
5.25166e-07
-4.63421e-07
-1.09077e-07
6.62765e-07
-8.51485e-08
-5.00291e-05
4.98362e-05
-4.96422e-05
-4.02926e-07
4.94765e-05
-7.91376e-08
-4.0284e-07
3.82114e-07
-5.33235e-05
1.24538e-06
5.30832e-05
-1.49513e-06
-5.34789e-05
-1.36291e-06
5.31977e-05
2.02625e-06
3.79776e-07
1.2664e-06
-1.53321e-06
-1.35308e-06
1.9997e-06
1.05415e-06
-5.01548e-05
4.99431e-05
-5.05583e-05
5.02496e-05
1.05299e-06
-3.77906e-07
-5.29072e-05
-1.36046e-06
5.25999e-05
2.0456e-06
-5.28289e-05
1.17858e-06
1.03428e-07
5.25555e-05
-1.38644e-06
-3.76098e-07
-1.34783e-06
2.01472e-06
1.20032e-06
1.04586e-07
-1.42649e-06
-1.03508e-06
-4.99352e-05
4.96098e-05
-4.97166e-05
3.89802e-07
4.94703e-05
-1.03365e-06
3.93192e-07
1.02272e-07
-5.27012e-05
-5.16201e-07
5.24507e-05
7.67912e-07
-5.28188e-05
-2.88349e-07
1.86323e-08
5.25667e-05
6.24088e-07
1.01955e-07
-4.94169e-07
7.26898e-07
-2.69839e-07
1.82906e-08
5.85689e-07
7.70963e-08
-4.92938e-05
4.90903e-05
-4.96284e-05
1.65235e-08
4.94007e-05
8.34504e-08
2.08686e-08
-1.0482e-10
-5.30643e-05
-2.87899e-07
5.28001e-05
5.70834e-07
-5.30641e-05
-2.88277e-07
-1.85939e-08
5.28e-05
5.70818e-07
4.76178e-11
-2.71466e-07
5.35191e-07
-2.71062e-07
-1.84293e-08
5.35128e-07
-1.18456e-09
-5.04208e-05
5.01506e-05
-5.04199e-05
-2.13114e-08
5.01518e-05
1.11084e-09
-1.63098e-08
-1.02188e-07
-5.28184e-05
-2.88582e-07
5.25664e-05
6.24156e-07
-5.27011e-05
-5.15585e-07
-1.03542e-07
5.24502e-05
7.6781e-07
-1.02354e-07
-2.69553e-07
5.85719e-07
-4.94989e-07
-1.0452e-07
7.26898e-07
-8.34908e-08
-4.96277e-05
4.94013e-05
-4.92958e-05
-3.919e-07
4.90886e-05
-7.73658e-08
-3.91609e-07
3.78341e-07
-5.28289e-05
1.18011e-06
5.25552e-05
-1.38832e-06
-5.2907e-05
-1.36151e-06
5.25996e-05
2.04723e-06
3.76662e-07
1.20143e-06
-1.4283e-06
-1.34904e-06
2.0164e-06
1.03565e-06
-4.97177e-05
4.94703e-05
-4.99358e-05
4.96099e-05
1.03523e-06
-3.73195e-07
-5.22812e-05
-1.36397e-06
5.19439e-05
2.07451e-06
-5.22671e-05
1.11337e-06
9.95528e-08
5.19585e-05
-1.27749e-06
-3.71864e-07
-1.34892e-06
2.03949e-06
1.13587e-06
1.00519e-07
-1.31987e-06
-1.0158e-06
-4.92758e-05
4.89277e-05
-4.92087e-05
3.79318e-07
4.89269e-05
-1.01493e-06
3.82566e-07
1.00093e-07
-5.21835e-05
-5.49206e-07
5.18946e-05
8.37526e-07
-5.22992e-05
-3.22694e-07
1.86334e-08
5.20102e-05
6.93196e-07
9.99838e-08
-5.2638e-07
7.94112e-07
-3.02423e-07
1.83869e-08
6.51521e-07
7.51616e-08
-4.88647e-05
4.86197e-05
-4.91588e-05
1.66087e-08
4.88947e-05
8.17437e-08
2.11646e-08
-1.05281e-10
-5.25219e-05
-3.18841e-07
5.22231e-05
6.3642e-07
-5.25217e-05
-3.19201e-07
-1.86096e-08
5.2223e-05
6.364e-07
4.84106e-11
-3.00421e-07
5.96956e-07
-3.00007e-07
-1.85219e-08
5.96889e-07
-1.15771e-09
-4.98702e-05
4.95692e-05
-4.98694e-05
-2.13316e-08
4.95703e-05
1.13001e-09
-1.64665e-08
-1.00011e-07
-5.22988e-05
-3.22947e-07
5.20099e-05
6.93269e-07
-5.21834e-05
-5.48601e-07
-9.96629e-08
5.18942e-05
8.3743e-07
-1.00375e-07
-3.02143e-07
6.51557e-07
-5.27211e-07
-1.00449e-07
7.94118e-07
-8.16047e-08
-4.91582e-05
4.88955e-05
-4.88669e-05
-3.81397e-07
4.86181e-05
-7.54533e-08
-3.80942e-07
3.73622e-07
-5.2267e-05
1.11486e-06
5.19582e-05
-1.27931e-06
-5.2281e-05
-1.36499e-06
5.19435e-05
2.0761e-06
3.72419e-07
1.13693e-06
-1.32163e-06
-1.35009e-06
2.04112e-06
1.01635e-06
-4.92098e-05
4.89269e-05
-4.92763e-05
4.89277e-05
1.01648e-06
-3.67826e-07
-5.15935e-05
-1.37192e-06
5.12225e-05
2.11081e-06
-5.16342e-05
1.04709e-06
9.6115e-08
5.12884e-05
-1.16517e-06
-3.66855e-07
-1.35464e-06
2.07186e-06
1.07084e-06
9.69017e-08
-1.21038e-06
-9.95993e-07
-4.85686e-05
4.81927e-05
-4.86298e-05
3.694e-07
4.83115e-05
-9.95598e-07
3.72405e-07
9.76525e-08
-5.15886e-05
-5.83425e-07
5.12597e-05
9.1086e-07
-5.17049e-05
-3.59773e-07
1.84759e-08
5.13764e-05
7.67431e-07
9.76966e-08
-5.59694e-07
8.64892e-07
-3.37847e-07
1.8328e-08
7.22531e-07
7.33287e-08
-4.83527e-05
4.80653e-05
-4.86157e-05
1.65745e-08
4.83126e-05
7.97341e-08
2.09044e-08
-1.00004e-10
-5.1909e-05
-3.53103e-07
5.15725e-05
7.08264e-07
-5.19088e-05
-3.53414e-07
-1.84823e-08
5.15724e-05
7.08241e-07
4.44932e-11
-3.32704e-07
6.65041e-07
-3.32318e-07
-1.84374e-08
6.64973e-07
-1.0255e-09
-4.92563e-05
4.89208e-05
-4.92556e-05
-2.08445e-08
4.8922e-05
1.03181e-09
-1.65037e-08
-9.75893e-08
-5.17045e-05
-3.60044e-07
5.13762e-05
7.67509e-07
-5.15886e-05
-5.8288e-07
-9.62157e-08
5.12593e-05
9.10775e-07
-9.80665e-08
-3.37566e-07
7.22574e-07
-5.60484e-07
-9.68355e-08
8.64899e-07
-7.94455e-08
-4.86151e-05
4.83136e-05
-4.83548e-05
-3.71339e-07
4.80638e-05
-7.36359e-08
-3.70866e-07
3.68249e-07
-5.16342e-05
1.04854e-06
5.12881e-05
-1.16695e-06
-5.15932e-05
-1.37292e-06
5.12221e-05
2.11235e-06
3.67395e-07
1.07189e-06
-1.2121e-06
-1.35577e-06
2.07344e-06
9.96568e-07
-4.86308e-05
4.83115e-05
-4.8569e-05
4.81926e-05
9.97091e-07
-3.61916e-07
-5.08371e-05
-1.38356e-06
5.04289e-05
2.15365e-06
-5.09265e-05
9.78392e-07
9.30337e-08
5.05412e-05
-1.04798e-06
-3.61161e-07
-1.36396e-06
2.11046e-06
1.00384e-06
9.36524e-08
-1.09679e-06
-9.75687e-07
-4.78042e-05
4.73964e-05
-4.79772e-05
3.59796e-07
4.76201e-05
-9.7549e-07
3.62571e-07
9.50536e-08
-5.09132e-05
-6.18925e-07
5.05421e-05
9.87924e-07
-5.10309e-05
-3.9919e-07
1.82031e-08
5.06606e-05
8.46376e-07
9.51791e-08
-5.94106e-07
9.3907e-07
-3.75683e-07
1.81295e-08
7.98197e-07
7.13007e-08
-4.77561e-05
4.74257e-05
-4.79942e-05
1.63404e-08
4.76499e-05
7.76429e-08
2.04394e-08
-9.79993e-11
-5.12197e-05
-3.90425e-07
5.08425e-05
7.85894e-07
-5.12195e-05
-3.90717e-07
-1.82274e-08
5.08425e-05
7.85872e-07
3.98408e-11
-3.6805e-07
7.389e-07
-3.677e-07
-1.82168e-08
7.38834e-07
-9.70228e-10
-4.85723e-05
4.81992e-05
-4.85716e-05
-2.04405e-08
4.82003e-05
9.35348e-10
-1.63766e-08
-9.49918e-08
-5.10306e-05
-3.99488e-07
5.06604e-05
8.46458e-07
-5.09132e-05
-6.18391e-07
-9.31311e-08
5.05418e-05
9.87842e-07
-9.55307e-08
-3.75394e-07
7.98243e-07
-5.94856e-07
-9.35905e-08
9.39078e-07
-7.74589e-08
-4.79936e-05
4.76511e-05
-4.77583e-05
-3.61709e-07
4.74242e-05
-7.17288e-08
-3.61112e-07
3.62331e-07
-5.09264e-05
9.79809e-07
5.05409e-05
-1.04974e-06
-5.08368e-05
-1.38454e-06
5.04285e-05
2.15515e-06
3.61685e-07
1.00488e-06
-1.09847e-06
-1.36506e-06
2.11199e-06
9.7625e-07
-4.79783e-05
4.76202e-05
-4.78045e-05
4.73962e-05
9.76927e-07
-3.55685e-07
-5.0005e-05
-1.39884e-06
4.95563e-05
2.20322e-06
-5.01381e-05
9.07108e-07
9.02681e-08
4.97096e-05
-9.2455e-07
-3.55215e-07
-1.37763e-06
2.15681e-06
9.34651e-07
9.07838e-08
-9.77635e-07
-9.55286e-07
-4.69743e-05
4.65307e-05
-4.72459e-05
3.50545e-07
4.68472e-05
-9.55534e-07
3.53371e-07
9.2387e-08
-5.01528e-05
-6.5587e-07
4.97375e-05
1.06906e-06
-5.02724e-05
-4.40841e-07
1.7844e-08
4.98578e-05
9.29945e-07
9.25858e-08
-6.30097e-07
1.01767e-06
-4.15955e-07
1.78341e-08
8.78884e-07
6.90699e-08
-4.70731e-05
4.66987e-05
-4.72897e-05
1.59247e-08
4.6902e-05
7.58381e-08
2.01092e-08
-9.96893e-11
-5.04482e-05
-4.30678e-07
5.00277e-05
8.69084e-07
-5.0448e-05
-4.30975e-07
-1.78817e-08
5.00277e-05
8.69066e-07
4.11775e-11
-4.06569e-07
8.18746e-07
-4.06228e-07
-1.79046e-08
8.18682e-07
-9.87633e-10
-4.78118e-05
4.7398e-05
-4.78111e-05
-2.01619e-08
4.73993e-05
9.21192e-10
-1.60517e-08
-9.23099e-08
-5.02722e-05
-4.41187e-07
4.98578e-05
9.3003e-07
-5.01528e-05
-6.55297e-07
-9.03678e-08
4.97372e-05
1.06898e-06
-9.29364e-08
-4.15636e-07
8.7893e-07
-6.30863e-07
-9.07196e-08
1.01768e-06
-7.57506e-08
-4.7289e-05
4.69034e-05
-4.70756e-05
-3.52564e-07
4.66971e-05
-6.96307e-08
-3.51856e-07
3.56086e-07
-5.01381e-05
9.0851e-07
4.97094e-05
-9.26272e-07
-5.00047e-05
-1.39979e-06
4.95559e-05
2.20468e-06
3.55729e-07
9.35669e-07
-9.79305e-07
-1.3787e-06
2.1583e-06
9.55802e-07
-4.7247e-05
4.68472e-05
-4.69745e-05
4.65305e-05
9.56952e-07
-3.49248e-07
-4.90909e-05
-1.41742e-06
4.85992e-05
2.25834e-06
-4.9263e-05
8.33043e-07
8.7818e-08
4.87897e-05
-7.96812e-07
-3.48909e-07
-1.39429e-06
2.2086e-06
8.6275e-07
8.8203e-08
-8.53201e-07
-9.34822e-07
-4.60716e-05
4.5589e-05
-4.64302e-05
3.41608e-07
4.59868e-05
-9.35219e-07
3.4452e-07
8.96694e-08
-4.93034e-05
-6.94453e-07
4.88422e-05
1.15376e-06
-4.94249e-05
-4.84572e-07
1.74169e-08
4.89641e-05
1.01763e-06
8.98975e-08
-6.67388e-07
1.09977e-06
-4.58299e-07
1.7457e-08
9.63698e-07
6.66874e-08
-4.63016e-05
4.58821e-05
-4.64981e-05
1.53833e-08
4.60648e-05