/*--------------------------------*- C++ -*----------------------------------*\
  =========                 |
  \\      /  F ield         | OpenFOAM: The Open Source CFD Toolbox
   \\    /   O peration     | Website:  https://openfoam.org
    \\  /    A nd           | Version:  9
     \\/     M anipulation  |
\*---------------------------------------------------------------------------*/
FoamFile
{
    format      ascii;
    class       volVectorField;
    location    "1.9";
    object      U;
}
// * * * * * * * * * * * * * * * * * * * * * * * * * * * * * * * * * * * * * //

dimensions      [0 1 -1 0 0 0 0];

internalField   nonuniform List<vector> 
36360
(
(0.00138615 -0.122236 -0.498926)
(-0.000304729 -0.0913088 0.000142864)
(0.000736241 -0.1252 -0.501126)
(-0.0017563 -0.0830384 6.68152e-05)
(-7.90067e-06 -0.126824 -0.501187)
(0.00913221 -0.0840772 1.19601e-05)
(0.00171075 -0.128974 -0.502061)
(0.0104755 -0.091846 1.57908e-05)
(7.24756e-05 -0.10039 -8.54455e-05)
(-0.00248265 -0.104934 -5.0556e-06)
(-0.00229339 -0.0983859 -4.514e-05)
(-0.00314139 -0.10294 -2.13682e-06)
(0.00604456 -0.106172 -1.81263e-06)
(0.00444426 -0.106829 -5.77269e-06)
(0.00735386 -0.110339 -1.7602e-05)
(0.00655571 -0.109263 -3.87516e-06)
(-0.00259902 -0.10617 -2.98256e-08)
(-0.00259899 -0.106169 2.82583e-08)
(-0.00294402 -0.104166 -4.55296e-08)
(-0.00294394 -0.104165 4.49288e-08)
(0.00460298 -0.105497 -1.73642e-06)
(0.00460303 -0.105496 1.73414e-06)
(0.00652328 -0.108087 -3.37792e-07)
(0.00652324 -0.108087 3.36938e-07)
(-0.00248299 -0.104932 5.05289e-06)
(7.28002e-05 -0.100386 8.54394e-05)
(-0.00314142 -0.102938 2.13672e-06)
(-0.00229327 -0.0983813 4.51379e-05)
(0.00444431 -0.106827 5.76861e-06)
(0.006045 -0.106166 1.79429e-06)
(0.00655571 -0.109261 3.8739e-06)
(0.00735398 -0.110334 1.75984e-05)
(-0.000305156 -0.0913045 -0.000142901)
(0.00138609 -0.122242 0.498925)
(-0.00175598 -0.0830328 -6.6839e-05)
(0.000736735 -0.125208 0.501125)
(0.00913317 -0.0840668 -1.19327e-05)
(-7.18465e-06 -0.12684 0.501186)
(0.0104766 -0.0918374 -1.57811e-05)
(0.00171232 -0.12899 0.502061)
(0.0039087 -0.118975 -0.497183)
(-0.00297427 -0.0973888 0.000160823)
(0.00298796 -0.120818 -0.498106)
(-0.00124958 -0.0948054 0.00016248)
(0.000772379 -0.124516 -0.501081)
(0.00137154 -0.0779864 -3.78961e-05)
(0.000227566 -0.126106 -0.501294)
(0.00507404 -0.0782583 -8.71989e-06)
(0.00191222 -0.102091 -7.24923e-05)
(0.000492753 -0.105916 -1.17777e-05)
(0.00185359 -0.101432 -8.3686e-05)
(-0.000533916 -0.105777 -8.03672e-06)
(0.00446918 -0.0974833 6.95017e-05)
(0.00236089 -0.103846 -1.01843e-05)
(0.00574113 -0.101078 2.94556e-05)
(0.00317628 -0.105077 -8.15449e-06)
(-0.00082609 -0.107878 -2.53403e-06)
(-0.00082651 -0.107878 2.53405e-06)
(-0.00169978 -0.107506 -1.10127e-06)
(-0.00170002 -0.107505 1.09957e-06)
(0.00191084 -0.103508 -3.92339e-06)
(0.00191091 -0.103507 3.92323e-06)
(0.00331798 -0.103883 -3.14932e-06)
(0.0033181 -0.103882 3.147e-06)
(0.000492711 -0.105914 1.1765e-05)
(0.00191236 -0.102087 7.24626e-05)
(-0.000534267 -0.105775 8.02952e-06)
(0.00185388 -0.101428 8.36703e-05)
(0.00236082 -0.103844 1.01738e-05)
(0.00446975 -0.0974763 -6.95661e-05)
(0.00317629 -0.105074 8.14724e-06)
(0.00574191 -0.101072 -2.9495e-05)
(-0.0029761 -0.097386 -0.000160822)
(0.00390949 -0.118981 0.497181)
(-0.00125072 -0.0948023 -0.000162501)
(0.00298842 -0.120825 0.498105)
(0.00137032 -0.0779776 3.79917e-05)
(0.000773625 -0.124531 0.501081)
(0.00507368 -0.0782486 8.7766e-06)
(0.000228491 -0.126121 0.501294)
(0.00462808 -0.115725 -0.495989)
(-0.00515624 -0.0999161 0.000126515)
(0.00439732 -0.117214 -0.496482)
(-0.00427419 -0.0988404 0.000147523)
(0.0016823 -0.120213 -0.500904)
(-0.00192812 -0.0807872 -0.000113784)
(0.00134471 -0.122333 -0.501003)
(-0.000775487 -0.0788928 -7.42045e-05)
(0.000996333 -0.102264 -2.41359e-05)
(0.000654796 -0.105759 -1.3923e-05)
(0.00148554 -0.102268 -5.07932e-05)
(0.000731735 -0.105891 -1.41416e-05)
(0.0021286 -0.0932644 0.000160281)
(0.0010697 -0.101077 -8.61159e-06)
(0.00306154 -0.0948268 0.000115101)
(0.00168642 -0.102272 -1.03534e-05)
(-5.35918e-06 -0.107739 -5.33063e-06)
(-5.47383e-06 -0.107738 5.36517e-06)
(-0.00021522 -0.10793 -3.95213e-06)
(-0.000215358 -0.107929 3.9459e-06)
(0.000363854 -0.102812 -5.47934e-06)
(0.000363588 -0.102811 5.50126e-06)
(0.000865621 -0.103124 -4.65171e-06)
(0.000865403 -0.103123 4.65685e-06)
(0.000654991 -0.105756 1.39904e-05)
(0.000996333 -0.10226 2.41032e-05)
(0.00073188 -0.105888 1.4142e-05)
(0.00148538 -0.102264 5.07692e-05)
(0.00106987 -0.101075 8.61153e-06)
(0.00212886 -0.0932575 -0.000160392)
(0.00168645 -0.10227 1.03449e-05)
(0.00306189 -0.0948197 -0.000115188)
(-0.00515848 -0.0999139 -0.000126493)
(0.00462961 -0.11573 0.495986)
(-0.00427635 -0.098838 -0.000147514)
(0.00439843 -0.11722 0.49648)
(-0.00192984 -0.0807803 0.00011397)
(0.0016841 -0.120227 0.500903)
(-0.000777003 -0.0788848 7.43439e-05)
(0.0013462 -0.122347 0.501003)
(0.00485025 -0.113315 -0.495303)
(-0.00596339 -0.101598 7.28542e-05)
(0.00476133 -0.114435 -0.495579)
(-0.00568947 -0.100815 0.000100822)
(0.00199434 -0.116133 -0.500772)
(-0.00275974 -0.0854095 -0.000192467)
(0.00188041 -0.118124 -0.500825)
(-0.00251347 -0.0830775 -0.000153745)
(0.000360211 -0.102255 2.94588e-05)
(0.00038084 -0.10529 -5.66694e-06)
(0.000611931 -0.102229 3.40368e-06)
(0.00049562 -0.105518 -1.0935e-05)
(0.00121725 -0.0922225 0.000239116)
(0.000456248 -0.0998522 2.92833e-07)
(0.00155817 -0.0924948 0.000202079)
(0.000669072 -0.100323 -4.96339e-06)
(1.62506e-05 -0.107187 -6.74233e-06)
(1.63364e-05 -0.107186 6.74363e-06)
(2.07032e-05 -0.107459 -6.31515e-06)
(2.07563e-05 -0.107458 6.33198e-06)
(9.74956e-06 -0.102591 -6.63061e-06)
(9.78809e-06 -0.102591 6.6324e-06)
(0.000123738 -0.102642 -6.20992e-06)
(0.000123679 -0.102642 6.22225e-06)
(0.000381036 -0.105287 5.63613e-06)
(0.000360048 -0.102252 -2.95265e-05)
(0.000495802 -0.105515 1.09287e-05)
(0.000611784 -0.102226 -3.45342e-06)
(0.000456472 -0.0998495 -3.28322e-07)
(0.00121729 -0.0922161 -0.000239293)
(0.000669266 -0.100321 4.94512e-06)
(0.00155837 -0.0924881 -0.000202223)
(-0.00596598 -0.101596 -7.27617e-05)
(0.00485244 -0.113319 0.495299)
(-0.0056919 -0.100813 -0.00010075)
(0.00476321 -0.11444 0.495576)
(-0.00276183 -0.085404 0.000192738)
(0.00199668 -0.116145 0.500772)
(-0.00251542 -0.0830714 0.000153976)
(0.00188249 -0.118137 0.500825)
(0.00497052 -0.111471 -0.494893)
(-0.00605989 -0.102847 1.65273e-05)
(0.004921 -0.112335 -0.495049)
(-0.00606627 -0.102274 4.43477e-05)
(0.00208693 -0.112547 -0.500695)
(-0.00277435 -0.0895295 -0.000262727)
(0.00206181 -0.114271 -0.500725)
(-0.00281711 -0.087588 -0.000228978)
(0.000144288 -0.102497 7.35649e-05)
(0.000300882 -0.104944 8.31218e-06)
(0.000214982 -0.102352 5.29643e-05)
(0.000321326 -0.105098 9.82204e-07)
(0.000880192 -0.0924802 0.0002975)
(0.000321359 -0.0992538 1.38549e-05)
(0.00100475 -0.0922644 0.000270877)
(0.000358106 -0.0995216 6.73561e-06)
(8.24232e-05 -0.106729 -6.15187e-06)
(8.25163e-05 -0.106728 6.13695e-06)
(3.6525e-05 -0.106943 -6.67263e-06)
(3.66174e-05 -0.106942 6.66702e-06)
(1.27341e-05 -0.102524 -6.14756e-06)
(1.28077e-05 -0.102524 6.13366e-06)
(-5.81767e-06 -0.102568 -6.60045e-06)
(-5.75662e-06 -0.102567 6.59341e-06)
(0.000301069 -0.104941 -8.37012e-06)
(0.000144113 -0.102494 -7.36537e-05)
(0.000321527 -0.105095 -1.0308e-06)
(0.000214815 -0.102349 -5.30472e-05)
(0.000321579 -0.0992509 -1.39173e-05)
(0.00088021 -0.0924746 -0.000297731)
(0.000358352 -0.0995188 -6.78663e-06)
(0.00100478 -0.0922585 -0.000271083)
(-0.00606284 -0.102846 -1.63967e-05)
(0.00497318 -0.111475 0.494888)
(-0.00606904 -0.102272 -4.42346e-05)
(0.00492345 -0.112339 0.495045)
(-0.00277701 -0.0895254 0.000263076)
(0.00208964 -0.112557 0.500694)
(-0.00281951 -0.0875832 0.000229289)
(0.00206435 -0.114282 0.500724)
(0.0050224 -0.110005 -0.494639)
(-0.00590168 -0.103701 -3.43967e-05)
(0.00500643 -0.1107 -0.494726)
(-0.00599682 -0.103323 -9.86063e-06)
(0.00206553 -0.109496 -0.500644)
(-0.00258222 -0.0926028 -0.00032104)
(0.00208873 -0.110955 -0.500663)
(-0.00269165 -0.0912014 -0.000293417)
(0.000117202 -0.102828 0.000105765)
(0.000312456 -0.104712 2.3267e-05)
(0.000117354 -0.102663 9.11001e-05)
(0.000301839 -0.104819 1.5848e-05)
(0.000777632 -0.0931485 0.00033709)
(0.000302764 -0.0987949 2.85632e-05)
(0.000810526 -0.092794 0.000319374)
(0.000307981 -0.0990173 2.12314e-05)
(0.000196988 -0.106349 -4.08286e-06)
(0.000197054 -0.106348 4.05789e-06)
(0.000139783 -0.106533 -5.25482e-06)
(0.000139865 -0.106532 5.23454e-06)
(9.54286e-05 -0.10229 -4.22478e-06)
(9.54876e-05 -0.10229 4.20056e-06)
(5.30232e-05 -0.102436 -5.33375e-06)
(5.30949e-05 -0.102436 5.3143e-06)
(0.000312605 -0.10471 -2.33434e-05)
(0.000117013 -0.102826 -0.000105868)
(0.000302004 -0.104816 -1.59155e-05)
(0.000117173 -0.10266 -9.11963e-05)
(0.000302905 -0.0987919 -2.86454e-05)
(0.000777635 -0.0931438 -0.000337358)
(0.00030816 -0.0990144 -2.1304e-05)
(0.000810525 -0.0927889 -0.000319625)
(-0.00590496 -0.1037 3.45683e-05)
(0.00502535 -0.110009 0.494633)
(-0.00599995 -0.103321 1.00115e-05)
(0.00500926 -0.110704 0.494721)
(-0.00258522 -0.0926001 0.00032146)
(0.00206846 -0.109504 0.500643)
(-0.00269451 -0.091198 0.000293802)
(0.00209157 -0.110964 0.500662)
(0.00501788 -0.108788 -0.494466)
(-0.00569369 -0.104193 -7.71201e-05)
(0.00502744 -0.109371 -0.494518)
(-0.00579943 -0.103989 -5.68272e-05)
(0.00198653 -0.106953 -0.500608)
(-0.00236306 -0.0946896 -0.00036752)
(0.0020329 -0.108163 -0.50062)
(-0.00247343 -0.0937576 -0.000345668)
(0.000148331 -0.103107 0.00012739)
(0.00033544 -0.104517 3.70001e-05)
(0.000128826 -0.102979 0.000117749)
(0.000324577 -0.104614 3.03582e-05)
(0.000770616 -0.0938603 0.000362213)
(0.000290339 -0.0983796 4.23086e-05)
(0.000765588 -0.0935109 0.000351177)
(0.000297276 -0.0985825 3.56351e-05)
(0.000287056 -0.105992 -1.16171e-06)
(0.000287102 -0.105991 1.12704e-06)
(0.000246364 -0.10617 -2.69932e-06)
(0.000246414 -0.106169 2.66957e-06)
(0.000151899 -0.101878 -1.40314e-06)
(0.000151936 -0.101877 1.36894e-06)
(0.000127957 -0.102101 -2.89188e-06)
(0.000128001 -0.1021 2.86275e-06)
(0.000335549 -0.104515 -3.7092e-05)
(0.000148128 -0.103104 -0.000127504)
(0.000324712 -0.104612 -3.04427e-05)
(0.000128624 -0.102977 -0.000117857)
(0.000290414 -0.0983767 -4.24084e-05)
(0.000770723 -0.0938565 -0.000362507)
(0.000297384 -0.0985796 -3.57262e-05)
(0.000765622 -0.0935067 -0.000351459)
(-0.00569721 -0.104193 7.73329e-05)
(0.005021 -0.10879 0.49446)
(-0.00580285 -0.103988 5.70196e-05)
(0.00503049 -0.109374 0.494512)
(-0.00236627 -0.0946882 0.000368)
(0.00198957 -0.10696 0.500607)
(-0.00247655 -0.0937555 0.000346119)
(0.0020359 -0.108171 0.500619)
(0.00498595 -0.107736 -0.494332)
(-0.00550187 -0.104389 -0.000111443)
(0.00500536 -0.108245 -0.494369)
(-0.0055962 -0.104324 -9.52767e-05)
(0.00189145 -0.104856 -0.500579)
(-0.00217726 -0.0959987 -0.000403747)
(0.00194244 -0.105853 -0.500588)
(-0.00226854 -0.0954287 -0.000386792)
(0.000201118 -0.103276 0.000140767)
(0.000352118 -0.104306 4.86272e-05)
(0.000171635 -0.103206 0.000134944)
(0.000344259 -0.104415 4.31013e-05)
(0.000810796 -0.0944851 0.00037709)
(0.000271349 -0.0980036 5.41037e-05)
(0.000785348 -0.0941885 0.000370693)
(0.000281641 -0.0981867 4.8482e-05)
(0.000346727 -0.105618 2.18098e-06)
(0.000346763 -0.105617 -2.222e-06)
(0.000319833 -0.105808 4.79215e-07)
(0.000319876 -0.105807 -5.18666e-07)
(0.000185108 -0.101363 1.82297e-06)
(0.000185137 -0.101362 -1.84652e-06)
(0.00017059 -0.101629 1.83751e-07)
(0.000170623 -0.101628 -2.21962e-07)
(0.000352166 -0.104304 -4.87327e-05)
(0.000200928 -0.103274 -0.00014089)
(0.000344337 -0.104413 -4.31998e-05)
(0.00017144 -0.103204 -0.000135062)
(0.000271318 -0.098001 -5.42367e-05)
(0.000811079 -0.0944821 -0.00037742)
(0.000281675 -0.0981839 -4.85906e-05)
(0.000785529 -0.0941851 -0.000370997)
(-0.00550549 -0.104389 0.000111696)
(0.00498915 -0.107738 0.494326)
(-0.00559978 -0.104323 9.55089e-05)
(0.00500852 -0.108247 0.494363)
(-0.00218053 -0.0959982 0.000404286)
(0.00189455 -0.104861 0.500578)
(-0.00227179 -0.0954277 0.000387297)
(0.00194549 -0.105859 0.500587)
(0.00495309 -0.106797 -0.494211)
(-0.00533597 -0.104354 -0.000138284)
(0.00496922 -0.107256 -0.494242)
(-0.00541686 -0.104397 -0.000125691)
(0.00180527 -0.10312 -0.500552)
(-0.00203053 -0.0967299 -0.000432034)
(0.00184737 -0.103949 -0.50056)
(-0.00210056 -0.0964251 -0.00041853)
(0.000268341 -0.103311 0.000148265)
(0.000370417 -0.104061 5.79817e-05)
(0.000232901 -0.103312 0.000145083)
(0.000360394 -0.104188 5.3543e-05)
(0.000886124 -0.09496 0.000385726)
(0.000243466 -0.0976631 6.42572e-05)
(0.000843378 -0.0947441 0.000381698)
(0.000258831 -0.0978301 5.90872e-05)
(0.000391287 -0.105212 5.54399e-06)
(0.000391394 -0.105211 -5.68095e-06)
(0.000369879 -0.105419 3.91375e-06)
(0.000369905 -0.105418 -3.94468e-06)
(0.000205771 -0.100796 4.50737e-06)
(0.000205865 -0.100795 -5.57046e-06)
(0.000196647 -0.101084 3.54581e-06)
(0.000196669 -0.101083 -3.36926e-06)
(0.000370743 -0.10406 -5.79801e-05)
(0.000267825 -0.103309 -0.000148252)
(0.000360348 -0.104186 -5.36601e-05)
(0.000232778 -0.103311 -0.000145213)
(0.000243565 -0.0976612 -6.33012e-05)
(0.000886344 -0.0949572 -0.000384882)
(0.000258637 -0.0978274 -5.9415e-05)
(0.000843869 -0.0947418 -0.000382227)
(-0.00533975 -0.104353 0.000138532)
(0.00495624 -0.106798 0.494204)
(-0.00542051 -0.104397 0.000125975)
(0.00497243 -0.107257 0.494236)
(-0.00203386 -0.0967299 0.000431854)
(0.00180829 -0.103124 0.50055)
(-0.00210381 -0.0964251 0.000419262)
(0.00185043 -0.103953 0.500559)
(0.00493463 -0.105918 -0.494095)
(-0.00519306 -0.104141 -0.000159292)
(0.00494323 -0.106351 -0.494124)
(-0.00526421 -0.104268 -0.000149351)
(0.00173661 -0.101647 -0.500527)
(-0.00191517 -0.0970478 -0.000453745)
(0.00177067 -0.102355 -0.500534)
(-0.00197341 -0.0969329 -0.000442487)
(0.000345277 -0.103203 0.00015185)
(0.00040058 -0.10377 6.54408e-05)
(0.000304291 -0.103273 0.000150238)
(0.000383877 -0.103924 6.17586e-05)
(0.000966737 -0.095255 0.000389758)
(0.000222638 -0.0973367 7.21665e-05)
(0.000926644 -0.0951303 0.000386473)
(0.000230967 -0.0975005 6.68684e-05)
(0.000433501 -0.104765 8.50417e-06)
(0.000433632 -0.104764 -8.69952e-06)
(0.000412249 -0.104994 7.21279e-06)
(0.000412171 -0.104993 -7.12074e-06)
(0.000220383 -0.100197 7.08667e-06)
(0.000220497 -0.100196 -8.78659e-06)
(0.000213237 -0.1005 7.33861e-06)
(0.000213166 -0.100499 -5.73123e-06)
(0.000401091 -0.103769 -6.53778e-05)
(0.000344587 -0.103202 -0.000151765)
(0.000383365 -0.103922 -6.2058e-05)
(0.000304673 -0.103272 -0.000150586)
(0.000222928 -0.0973347 -7.0554e-05)
(0.000966728 -0.0952534 -0.000388204)
(0.00023029 -0.0974983 -6.87565e-05)
(0.000927682 -0.0951285 -0.000388673)
(-0.00519692 -0.104141 0.000159533)
(0.00493773 -0.105919 0.494088)
(-0.00526768 -0.104267 0.000149711)
(0.00494652 -0.106352 0.494118)
(-0.00191843 -0.0970485 0.000453125)
(0.00173957 -0.10165 0.500525)
(-0.00197646 -0.0969333 0.000444292)
(0.00177377 -0.102359 0.500533)
(0.00493665 -0.105066 -0.493978)
(-0.00506555 -0.103778 -0.000175664)
(0.0049349 -0.105491 -0.494006)
(-0.00512949 -0.103977 -0.000167912)
(0.00168887 -0.100354 -0.500502)
(-0.0018193 -0.0970558 -0.000469881)
(0.00171315 -0.100983 -0.500509)
(-0.00186593 -0.097084 -0.000461447)
(0.000430086 -0.102972 0.000152724)
(0.000446847 -0.103407 7.11977e-05)
(0.000385983 -0.103103 0.000152461)
(0.000421962 -0.103598 6.83233e-05)
(0.00103595 -0.0953711 0.000390187)
(0.000218558 -0.0969887 7.74833e-05)
(0.00100155 -0.0953349 0.000388907)
(0.000219047 -0.0971673 7.37824e-05)
(0.000479645 -0.104267 1.11329e-05)
(0.000479697 -0.104266 -1.11237e-05)
(0.000455888 -0.104523 9.94678e-06)
(0.000455826 -0.104522 -9.90544e-06)
(0.000234555 -0.0995671 9.99845e-06)
(0.000234568 -0.0995669 -1.08502e-05)
(0.000227246 -0.0998859 9.7766e-06)
(0.000227218 -0.0998857 -8.69966e-06)
(0.000447112 -0.103406 -7.1007e-05)
(0.000429709 -0.102971 -0.000153052)
(0.000421615 -0.103597 -6.85994e-05)
(0.00038622 -0.103102 -0.000152679)
(0.000218735 -0.0969871 -7.67885e-05)
(0.0010362 -0.0953699 -0.000389636)
(0.000218527 -0.0971659 -7.51058e-05)
(0.00100235 -0.0953332 -0.000390484)
(-0.00506928 -0.103778 0.000175898)
(0.00493977 -0.105066 0.493972)
(-0.00513303 -0.103976 0.00016829)
(0.00493811 -0.105491 0.493999)
(-0.00182235 -0.0970566 0.000469866)
(0.00169183 -0.100357 0.5005)
(-0.00186888 -0.0970846 0.000462906)
(0.00171619 -0.100985 0.500508)
(0.00496061 -0.104207 -0.493861)
(-0.00494498 -0.103284 -0.000188368)
(0.00494772 -0.104639 -0.49389)
(-0.00500667 -0.103546 -0.000182294)
(0.00165985 -0.0991705 -0.500478)
(-0.00173862 -0.0968274 -0.000482908)
(0.00167458 -0.0997526 -0.500484)
(-0.00178049 -0.0969687 -0.000475937)
(0.000521533 -0.102616 0.000152485)
(0.000509319 -0.102961 7.53569e-05)
(0.000473964 -0.10281 0.000152872)
(0.000476229 -0.103195 7.30962e-05)
(0.00109901 -0.095317 0.000389608)
(0.000228393 -0.0965903 8.22947e-05)
(0.00106723 -0.095364 0.000388984)
(0.000222049 -0.0967975 7.87127e-05)
(0.000533277 -0.103705 1.31373e-05)
(0.000533461 -0.103704 -1.32795e-05)
(0.000505414 -0.103994 1.21473e-05)
(0.000505286 -0.103994 -1.22948e-05)
(0.000250366 -0.0988973 1.17637e-05)
(0.00025058 -0.0988974 -1.32004e-05)
(0.000242226 -0.099238 1.19722e-05)
(0.000242236 -0.0992377 -1.10556e-05)
(0.000509642 -0.10296 -7.5219e-05)
(0.00052091 -0.102615 -0.000152561)
(0.000475985 -0.103194 -7.36251e-05)
(0.000474215 -0.102809 -0.000152787)
(0.000228555 -0.0965893 -8.04783e-05)
(0.00109901 -0.0953159 -0.000388666)
(0.000221517 -0.0967961 -8.01553e-05)
(0.00106801 -0.0953632 -0.000390292)
(-0.00494881 -0.103284 0.000188623)
(0.00496363 -0.104207 0.493854)
(-0.00501021 -0.103546 0.000182757)
(0.00495088 -0.104639 0.493883)
(-0.00174169 -0.0968282 0.000482346)
(0.00166274 -0.0991724 0.500476)
(-0.00178336 -0.0969697 0.000477409)
(0.00167757 -0.0997549 0.500484)
(0.00500497 -0.103316 -0.493741)
(-0.00482608 -0.102672 -0.000198267)
(0.00498203 -0.103767 -0.493768)
(-0.00488749 -0.102993 -0.000193512)
(0.00164558 -0.09804 -0.500455)
(-0.0016703 -0.0964081 -0.000492819)
(0.00165322 -0.0986016 -0.50046)
(-0.00170613 -0.0966396 -0.000486762)
(0.000619441 -0.102134 0.000151378)
(0.000586484 -0.10242 7.83046e-05)
(0.000568632 -0.102391 0.000151871)
(0.000546524 -0.102703 7.67092e-05)
(0.00116057 -0.0950947 0.000388128)
(0.000249291 -0.0961186 8.56771e-05)
(0.00112929 -0.0952257 0.000387603)
(0.00023798 -0.0963651 8.17457e-05)
(0.000597426 -0.103068 1.47561e-05)
(0.0005977 -0.103067 -1.49512e-05)
(0.000564153 -0.103396 1.40954e-05)
(0.000563824 -0.103396 -1.40613e-05)
(0.000269479 -0.0981745 1.32221e-05)
(0.000269804 -0.0981745 -1.50129e-05)
(0.000259729 -0.0985433 1.41253e-05)
(0.000259507 -0.0985431 -1.25847e-05)
(0.000586831 -0.102419 -7.82016e-05)
(0.000618669 -0.102133 -0.000151326)
(0.000546224 -0.102702 -7.70927e-05)
(0.000569166 -0.10239 -0.00015213)
(0.000249445 -0.0961177 -8.31292e-05)
(0.00116045 -0.0950942 -0.000386993)
(0.000237512 -0.0963641 -8.43265e-05)
(0.00113036 -0.0952253 -0.000389322)
(-0.00482997 -0.102672 0.000198522)
(0.00500792 -0.103316 0.493735)
(-0.00489095 -0.102993 0.000193967)
(0.00498517 -0.103767 0.493762)
(-0.00167336 -0.0964091 0.000491875)
(0.00164842 -0.0980415 0.500453)
(-0.00170888 -0.0966406 0.000488853)
(0.00165621 -0.0986033 0.50046)
(0.00506843 -0.10237 -0.493622)
(-0.00470497 -0.101943 -0.000205987)
(0.00503603 -0.102851 -0.493647)
(-0.00476785 -0.102322 -0.00020224)
(0.00164349 -0.0969189 -0.500432)
(-0.00160975 -0.0958268 -0.000500303)
(0.00164512 -0.0974806 -0.500436)
(-0.00164217 -0.0961365 -0.000495139)
(0.000724571 -0.101524 0.0001498)
(0.000676239 -0.101774 8.03103e-05)
(0.000669593 -0.101845 0.00015044)
(0.000630032 -0.102111 7.916e-05)
(0.00121855 -0.0947123 0.000385959)
(0.000278142 -0.0955536 8.78465e-05)
(0.00118844 -0.0949235 0.000385648)
(0.000263053 -0.0958488 8.40086e-05)
(0.000674282 -0.102343 1.60282e-05)
(0.000674602 -0.102343 -1.62294e-05)
(0.000634579 -0.102717 1.55544e-05)
(0.000634161 -0.102717 -1.55114e-05)
(0.000293229 -0.0973854 1.4448e-05)
(0.000293588 -0.0973855 -1.63209e-05)
(0.00028115 -0.0977891 1.5652e-05)
(0.000280822 -0.097789 -1.39468e-05)
(0.000676568 -0.101773 -8.01997e-05)
(0.000723779 -0.101523 -0.000149737)
(0.000629749 -0.10211 -7.95505e-05)
(0.000670239 -0.101844 -0.000150726)
(0.000278277 -0.095553 -8.50098e-05)
(0.0012184 -0.0947121 -0.000384851)
(0.000262615 -0.0958482 -8.7038e-05)
(0.00118962 -0.0949233 -0.000387392)
(-0.00470891 -0.101942 0.000206241)
(0.00507132 -0.10237 0.493615)
(-0.00477131 -0.102322 0.000202716)
(0.00503912 -0.102851 0.49364)
(-0.00161277 -0.0958278 0.000499227)
(0.00164631 -0.09692 0.50043)
(-0.00164484 -0.0961375 0.000497465)
(0.00164809 -0.0974819 0.500436)
(0.00514975 -0.101351 -0.493496)
(-0.00457767 -0.101095 -0.000212015)
(0.0051085 -0.101871 -0.493523)
(-0.00464427 -0.101534 -0.000209054)
(0.00165119 -0.0957731 -0.500409)
(-0.00155293 -0.0951002 -0.000505959)
(0.00164806 -0.0963508 -0.500413)
(-0.00158375 -0.0954811 -0.000501554)
(0.000838806 -0.100782 0.000148045)
(0.000778549 -0.101013 8.15715e-05)
(0.000779347 -0.101169 0.00014875)
(0.000726056 -0.101408 8.07609e-05)
(0.00127531 -0.0941718 0.00038353)
(0.000313653 -0.0948804 8.91815e-05)
(0.00124565 -0.0944617 0.000383362)
(0.000295351 -0.0952314 8.5522e-05)
(0.000764752 -0.101518 1.69861e-05)
(0.000765099 -0.101518 -1.71902e-05)
(0.000718218 -0.101944 1.66636e-05)
(0.000717755 -0.101943 -1.66239e-05)
(0.000322256 -0.0965157 1.53794e-05)
(0.000322637 -0.0965158 -1.72947e-05)
(0.00030755 -0.0969614 1.6777e-05)
(0.000307168 -0.0969615 -1.50281e-05)
(0.000778872 -0.101012 -8.14561e-05)
(0.000838003 -0.100781 -0.000147983)
(0.000725806 -0.101407 -8.11601e-05)
(0.000780064 -0.101169 -0.000149033)
(0.000313781 -0.0948801 -8.61904e-05)
(0.00127517 -0.0941718 -0.00038245)
(0.000294942 -0.095231 -8.8755e-05)
(0.0012469 -0.0944618 -0.000385059)
(-0.00458166 -0.101095 0.000212269)
(0.00515259 -0.10135 0.493489)
(-0.00464777 -0.101534 0.000209543)
(0.00511155 -0.10187 0.493516)
(-0.0015559 -0.0951012 0.000504813)
(0.00165399 -0.0957739 0.500407)
(-0.00158637 -0.0954821 0.00050398)
(0.00165101 -0.0963518 0.500413)
(0.00524823 -0.10024 -0.493369)
(-0.00444119 -0.100124 -0.000216721)
(0.00519848 -0.100808 -0.493396)
(-0.00451241 -0.100626 -0.000214377)
(0.00166793 -0.0945751 -0.500386)
(-0.0014984 -0.0942362 -0.000510196)
(0.0016603 -0.0951821 -0.50039)
(-0.00152809 -0.0946851 -0.000506392)
(0.000961503 -0.0999041 0.000146267)
(0.000893421 -0.100126 8.22659e-05)
(0.000897829 -0.10036 0.000146974)
(0.000834635 -0.100585 8.17143e-05)
(0.00133185 -0.0934744 0.000381011)
(0.000355198 -0.0940864 8.99069e-05)
(0.00130221 -0.0938427 0.000380888)
(0.000333945 -0.0944993 8.64027e-05)
(0.000869383 -0.10058 1.76798e-05)
(0.000869745 -0.10058 -1.78887e-05)
(0.000815741 -0.101064 1.74834e-05)
(0.000815251 -0.101064 -1.74468e-05)
(0.000356915 -0.0955507 1.60428e-05)
(0.00035731 -0.095551 -1.80136e-05)
(0.000339414 -0.096046 1.76115e-05)
(0.000339003 -0.0960461 -1.5824e-05)
(0.000893757 -0.100125 -8.21475e-05)
(0.000960684 -0.0999036 -0.000146206)
(0.000834403 -0.100585 -8.212e-05)
(0.000898577 -0.10036 -0.00014725)
(0.000355338 -0.0940864 -8.68081e-05)
(0.0013317 -0.0934746 -0.000379921)
(0.000333553 -0.0944991 -8.97623e-05)
(0.0013035 -0.0938429 -0.000382566)
(-0.00444518 -0.100124 0.000216975)
(0.00525103 -0.10024 0.493362)
(-0.00451594 -0.100625 0.000214874)
(0.00520148 -0.100807 0.493389)
(-0.00150131 -0.0942372 0.000508989)
(0.00167072 -0.0945758 0.500384)
(-0.00153065 -0.0946862 0.000508886)
(0.00166324 -0.0951829 0.50039)
(0.00536358 -0.0990232 -0.493241)
(-0.0042934 -0.0990241 -0.000220378)
(0.00530527 -0.0996458 -0.493267)
(-0.00437087 -0.0995908 -0.000218525)
(0.0016925 -0.0933017 -0.500364)
(-0.0014449 -0.0932381 -0.000513284)
(0.00168099 -0.0939491 -0.500367)
(-0.00147414 -0.0937539 -0.000509967)
(0.00109367 -0.0988846 0.000144553)
(0.00102119 -0.0991042 8.25297e-05)
(0.001025 -0.0994124 0.000145221)
(0.000955915 -0.0996324 8.2174e-05)
(0.00138888 -0.0926202 0.000378486)
(0.000402396 -0.0931603 9.01532e-05)
(0.00135895 -0.093067 0.000378332)
(0.000378397 -0.0936406 8.67824e-05)
(0.000988558 -0.0995178 1.81595e-05)
(0.000988904 -0.0995175 -1.83726e-05)
(0.000927638 -0.100065 1.80662e-05)
(0.000927125 -0.100065 -1.80304e-05)
(0.000397323 -0.0944762 1.65113e-05)
(0.000397703 -0.0944765 -1.85205e-05)
(0.00037699 -0.095028 1.82211e-05)
(0.000376559 -0.0950283 -1.63769e-05)
(0.00102156 -0.0991037 -8.24132e-05)
(0.00109284 -0.0988842 -0.000144493)
(0.000955691 -0.0996317 -8.25868e-05)
(0.00102578 -0.0994119 -0.000145494)
(0.000402573 -0.0931605 -8.70423e-05)
(0.00138875 -0.0926207 -0.000377357)
(0.000378012 -0.0936406 -9.02498e-05)
(0.00136029 -0.0930674 -0.000380034)
(-0.00429742 -0.0990238 0.000220633)
(0.00536634 -0.0990227 0.493233)
(-0.00437439 -0.0995905 0.000219029)
(0.00530823 -0.0996453 0.49326)
(-0.00144774 -0.0932391 0.000512055)
(0.00169528 -0.0933021 0.500361)
(-0.00147663 -0.093755 0.000512527)
(0.00168391 -0.0939496 0.500367)
(0.00549606 -0.0976855 -0.493109)
(-0.0041297 -0.0977871 -0.000223187)
(0.00542919 -0.0983701 -0.493136)
(-0.00421549 -0.0984232 -0.000221741)
(0.00172383 -0.0919326 -0.500341)
(-0.00139121 -0.0921041 -0.000515379)
(0.00170893 -0.0926302 -0.500345)
(-0.00142064 -0.0926884 -0.000512582)
(0.00123696 -0.097717 0.000142949)
(0.00116218 -0.0979383 8.24557e-05)
(0.00116264 -0.0983197 0.000143564)
(0.00109032 -0.0985398 8.22698e-05)
(0.00144673 -0.0916077 0.000375959)
(0.000454896 -0.0920921 8.99107e-05)
(0.00141639 -0.092134 0.000375784)
(0.000428333 -0.0926446 8.68947e-05)
(0.00112251 -0.0983184 1.84634e-05)
(0.00112281 -0.0983181 -1.86753e-05)
(0.00105416 -0.0989358 1.84526e-05)
(0.00105366 -0.0989355 -1.84205e-05)
(0.000443508 -0.0932779 1.68438e-05)
(0.000443838 -0.0932783 -1.87874e-05)
(0.000420284 -0.0938933 1.85883e-05)
(0.000419869 -0.0938936 -1.67762e-05)
(0.00116258 -0.0979378 -8.23632e-05)
(0.00123618 -0.0977166 -0.0001429)
(0.00109009 -0.0985392 -8.26674e-05)
(0.00116338 -0.0983193 -0.000143827)
(0.000455111 -0.0920925 -8.70538e-05)
(0.00144666 -0.0916083 -0.00037484)
(0.000427955 -0.0926449 -9.01968e-05)
(0.00141771 -0.0921345 -0.000377492)
(-0.00413374 -0.0977868 0.000223453)
(0.00549879 -0.0976848 0.493102)
(-0.00421907 -0.0984229 0.000222239)
(0.0054321 -0.0983695 0.493129)
(-0.00139397 -0.0921051 0.000514258)
(0.00172661 -0.0919329 0.500339)
(-0.00142306 -0.0926894 0.000515075)
(0.00171183 -0.0926305 0.500344)
(0.00564491 -0.0962141 -0.492974)
(-0.00394787 -0.0964058 -0.00022531)
(0.00556991 -0.0969671 -0.492999)
(-0.00404294 -0.097115 -0.000224196)
(0.00176159 -0.0904509 -0.500318)
(-0.00133327 -0.0908283 -0.000516759)
(0.00174324 -0.0912068 -0.500322)
(-0.00136534 -0.0914846 -0.000514355)
(0.0013918 -0.0963945 0.000141486)
(0.00131622 -0.0966188 8.21449e-05)
(0.00131177 -0.0970755 0.000142037)
(0.0012379 -0.0972982 8.20826e-05)
(0.00150625 -0.0904341 0.000373513)
(0.000512387 -0.0908729 8.9502e-05)
(0.00147504 -0.0910413 0.00037327)
(0.000483405 -0.091502 8.67106e-05)
(0.00127137 -0.0969709 1.86183e-05)
(0.00127166 -0.0969707 -1.88348e-05)
(0.00119554 -0.0976636 1.86767e-05)
(0.00119508 -0.0976634 -1.86487e-05)
(0.000495555 -0.0919434 1.69678e-05)
(0.00049587 -0.0919438 -1.89568e-05)
(0.000469394 -0.0926284 1.87923e-05)
(0.000469007 -0.0926288 -1.70122e-05)
(0.00131666 -0.0966184 -8.20573e-05)
(0.00139102 -0.0963942 -0.000141436)
(0.00123767 -0.0972978 -8.24658e-05)
(0.00131248 -0.0970751 -0.000142291)
(0.000512646 -0.0908735 -8.66848e-05)
(0.0015062 -0.0904347 -0.000372319)
(0.000483023 -0.0915024 -8.98514e-05)
(0.00147635 -0.0910419 -0.000374994)
(-0.00395195 -0.0964055 0.000225576)
(0.00564762 -0.0962134 0.492966)
(-0.00404656 -0.0971147 0.000224687)
(0.00557278 -0.0969665 0.492992)
(-0.00133601 -0.0908294 0.000515627)
(0.00176436 -0.090451 0.500316)
(-0.00136773 -0.0914856 0.000516785)
(0.00174613 -0.091207 0.500321)
(0.00580968 -0.0945954 -0.492836)
(-0.00374517 -0.0948677 -0.000226862)
(0.00572669 -0.0954237 -0.492863)
(-0.00385108 -0.0956571 -0.000226017)
(0.0018053 -0.0888409 -0.500296)
(-0.00127058 -0.0894001 -0.000517556)
(0.00178412 -0.0896627 -0.500299)
(-0.00130433 -0.0901339 -0.00051535)
(0.00155862 -0.0949083 0.00014015)
(0.00148336 -0.0951364 8.16539e-05)
(0.00147243 -0.0956722 0.000140631)
(0.0013985 -0.0958984 8.1672e-05)
(0.0015675 -0.0890953 0.000371167)
(0.000574755 -0.0894939 8.89954e-05)
(0.00153548 -0.0897854 0.00037074)
(0.000543405 -0.0902039 8.61689e-05)
(0.00143512 -0.0954646 1.86517e-05)
(0.00143542 -0.0954644 -1.88813e-05)
(0.00135187 -0.096238 1.87758e-05)
(0.00135141 -0.0962378 -1.87405e-05)
(0.000553475 -0.0904607 1.68947e-05)
(0.000553804 -0.0904612 -1.90772e-05)
(0.000524421 -0.0912212 1.89349e-05)
(0.000524037 -0.0912216 -1.70362e-05)
(0.00148387 -0.0951361 -8.15521e-05)
(0.00155778 -0.0949081 -0.000140087)
(0.00139823 -0.095898 -8.20587e-05)
(0.00147317 -0.095672 -0.00014089)
(0.00057508 -0.0894946 -8.59858e-05)
(0.0015674 -0.089096 -0.000369777)
(0.00054299 -0.0902044 -8.93887e-05)
(0.00153684 -0.0897863 -0.000372594)
(-0.00374932 -0.0948674 0.00022712)
(0.00581236 -0.0945947 0.492829)
(-0.00385475 -0.0956568 0.000226512)
(0.00572953 -0.095423 0.492856)
(-0.00127327 -0.0894012 0.000516271)
(0.00180806 -0.0888409 0.500294)
(-0.00130669 -0.090135 0.000517859)
(0.001787 -0.0896628 0.500299)
(0.00599059 -0.0928186 -0.492696)
(-0.00351695 -0.0931633 -0.000227929)
(0.00589951 -0.0937271 -0.492722)
(-0.00363614 -0.0940365 -0.000227306)
(0.00185457 -0.0870897 -0.500273)
(-0.0012054 -0.0878089 -0.000517843)
(0.0018303 -0.0879837 -0.500276)
(-0.0012406 -0.0886256 -0.00051567)
(0.00173865 -0.0932516 0.000138977)
(0.00166362 -0.0934828 8.10191e-05)
(0.00164577 -0.0941015 0.000139356)
(0.00157235 -0.0943313 8.10851e-05)
(0.00163102 -0.0875871 0.00036892)
(0.00064219 -0.0879473 8.84007e-05)
(0.0015976 -0.0883625 0.000368191)
(0.000608357 -0.0887421 8.5332e-05)
(0.0016134 -0.0937901 1.8587e-05)
(0.00161374 -0.0937899 -1.88367e-05)
(0.001523 -0.0946487 1.87749e-05)
(0.00152252 -0.0946486 -1.87217e-05)
(0.000617126 -0.0888194 1.66587e-05)