/*--------------------------------*- C++ -*----------------------------------*\
  =========                 |
  \\      /  F ield         | OpenFOAM: The Open Source CFD Toolbox
   \\    /   O peration     | Website:  https://openfoam.org
    \\  /    A nd           | Version:  9
     \\/     M anipulation  |
\*---------------------------------------------------------------------------*/
FoamFile
{
    format      ascii;
    class       surfaceScalarField;
    location    "0.8";
    object      phi;
}
// * * * * * * * * * * * * * * * * * * * * * * * * * * * * * * * * * * * * * //

dimensions      [0 3 -1 0 0 0 0];

internalField   nonuniform List<scalar> 
104044
(
-3.56642e-11
-2.99068e-05
-3.4598e-09
2.98994e-05
1.09377e-08
-2.99069e-05
-3.43136e-09
-2.43389e-13
2.98994e-05
1.09023e-08
3.86273e-11
-4.91281e-09
1.26138e-08
-4.95594e-09
2.26716e-12
1.26412e-08
-2.43298e-11
-1.04392e-05
1.04358e-05
-1.04393e-05
-1.11512e-12
1.04358e-05
3.69681e-11
2.67807e-12
1.05579e-12
-2.99069e-05
-3.42531e-09
2.98994e-05
1.0896e-08
-2.99069e-05
-3.42537e-09
4.31274e-13
2.98994e-05
1.08959e-08
-1.94483e-13
-4.96026e-09
1.26532e-08
-4.96111e-09
-4.1653e-14
1.2656e-08
5.72342e-13
-1.04392e-05
1.04358e-05
-1.04392e-05
4.34896e-13
1.04358e-05
-2.32686e-14
-9.47912e-15
-1.40689e-14
-2.99069e-05
-3.4259e-09
2.98994e-05
1.08967e-08
-2.99069e-05
-3.42607e-09
-4.84231e-13
2.98994e-05
1.08972e-08
-6.8433e-15
-4.96142e-09
1.26571e-08
-4.96165e-09
1.04864e-15
1.26576e-08
-1.975e-14
-1.04392e-05
1.04358e-05
-1.04392e-05
-4.88755e-13
1.04358e-05
-1.56584e-14
-1.67312e-14
-1.14007e-12
-2.99069e-05
-3.42586e-09
2.98994e-05
1.08973e-08
-2.99069e-05
-3.42607e-09
1.86054e-13
2.98994e-05
1.08983e-08
1.38168e-13
-4.96179e-09
1.26577e-08
-4.96132e-09
-2.30274e-12
1.26558e-08
-6.27367e-13
-1.04392e-05
1.04358e-05
-1.04392e-05
1.0768e-12
1.04358e-05
-9.87437e-15
-2.71318e-12
3.5664e-11
-2.99069e-05
-3.43232e-09
2.98994e-05
1.09051e-08
-2.99068e-05
-3.4609e-09
2.98994e-05
1.09409e-08
-3.86241e-11
-4.95728e-09
1.26445e-08
-4.91432e-09
1.26175e-08
2.43483e-11
-1.04393e-05
1.04358e-05
-1.04392e-05
1.04358e-05
-3.69854e-11
-6.66088e-12
-2.9892e-05
-2.97388e-09
2.9884e-05
1.09776e-08
-2.9892e-05
-2.97994e-09
-4.04705e-13
2.9884e-05
1.09794e-08
-1.18256e-11
-2.90601e-09
1.02652e-08
-2.9108e-09
1.95511e-12
1.02612e-08
-2.49333e-12
-1.04329e-05
1.04299e-05
-1.04329e-05
-5.81652e-13
1.04299e-05
-8.07763e-12
8.08841e-13
9.67432e-13
-2.9892e-05
-2.97981e-09
2.9884e-05
1.09827e-08
-2.9892e-05
-2.98115e-09
6.02436e-13
2.9884e-05
1.09849e-08
2.00182e-12
-2.91414e-09
1.0266e-08
-2.91726e-09
6.20388e-13
1.02696e-08
7.48551e-13
-1.04329e-05
1.04299e-05
-1.04329e-05
5.99145e-13
1.04299e-05
1.64903e-12
6.97671e-13
-2.19433e-14
-2.9892e-05
-2.98188e-09
2.9884e-05
1.09862e-08
-2.9892e-05
-2.98199e-09
-6.46845e-13
2.9884e-05
1.09866e-08
-1.50208e-14
-2.91861e-09
1.02714e-08
-2.91875e-09
-6.65521e-13
1.02718e-08
-1.21051e-14
-1.04329e-05
1.04299e-05
-1.04329e-05
-6.18862e-13
1.04299e-05
-2.20568e-14
-7.2274e-13
-9.94892e-13
-2.9892e-05
-2.98146e-09
2.9884e-05
1.0986e-08
-2.98921e-05
-2.9803e-09
4.09477e-13
2.9884e-05
1.09845e-08
-2.04781e-12
-2.91764e-09
1.02708e-08
-2.91474e-09
-1.9663e-12
1.02679e-08
-7.53258e-13
-1.04329e-05
1.04299e-05
-1.04329e-05
5.70134e-13
1.04299e-05
-1.67134e-12
-8.46763e-13
6.73547e-12
-2.9892e-05
-2.98057e-09
2.9884e-05
1.09816e-08
-2.9892e-05
-2.9746e-09
2.9884e-05
1.09799e-08
1.1835e-11
-2.91157e-09
1.02636e-08
-2.90689e-09
1.02679e-08
2.53477e-12
-1.04329e-05
1.04299e-05
-1.04329e-05
1.04299e-05
8.03899e-12
-5.7467e-12
-2.98749e-05
-3.95777e-09
2.9864e-05
1.48602e-08
-2.98749e-05
-3.96224e-09
-8.14336e-13
2.9864e-05
1.48594e-08
-6.36102e-12
-3.30581e-09
1.23983e-08
-3.30927e-09
-9.58017e-13
1.23979e-08
4.00724e-14
-1.04266e-05
1.04226e-05
-1.04266e-05
-1.43906e-12
1.04226e-05
-1.38105e-12
-1.52866e-12
3.72125e-13
-2.98749e-05
-3.9593e-09
2.9864e-05
1.48606e-08
-2.98749e-05
-3.96001e-09
4.81196e-13
2.9864e-05
1.48617e-08
5.36939e-13
-3.30689e-09
1.23992e-08
-3.30769e-09
5.35475e-13
1.24005e-08
7.55545e-14
-1.04266e-05
1.04226e-05
-1.04266e-05
4.15172e-13
1.04226e-05
2.51903e-13
4.85766e-13
3.51191e-14
-2.9875e-05
-3.96056e-09
2.9864e-05
1.48626e-08
-2.9875e-05
-3.96063e-09
-4.33533e-13
2.9864e-05
1.48629e-08
-2.86436e-14
-3.30829e-09
1.24015e-08
-3.30837e-09
-5.82193e-13
1.24019e-08
3.73578e-14
-1.04266e-05
1.04226e-05
-1.04266e-05
-3.45226e-13
1.04226e-05
-1.45496e-14
-4.95317e-13
-3.22532e-13
-2.9875e-05
-3.96023e-09
2.9864e-05
1.48625e-08
-2.98749e-05
-3.95965e-09
8.7013e-13
2.9864e-05
1.48618e-08
-5.67135e-13
-3.30794e-09
1.24015e-08
-3.30729e-09
9.10831e-13
1.24007e-08
-2.96096e-16
-1.04266e-05
1.04226e-05
-1.04266e-05
1.48384e-12
1.04226e-05
-2.76233e-13
1.45436e-12
5.86509e-12
-2.98749e-05
-3.9627e-09
2.9864e-05
1.48609e-08
-2.98749e-05
-3.9584e-09
2.9864e-05
1.48618e-08
6.39293e-12
-3.30982e-09
1.23998e-08
-3.30652e-09
1.24003e-08
-6.69773e-14
-1.04266e-05
1.04226e-05
-1.04266e-05
1.04226e-05
1.25218e-12
-6.88042e-12
-2.98511e-05
-5.76915e-09
2.98354e-05
2.14747e-08
-2.98511e-05
-5.77583e-09
-6.85718e-13
2.98354e-05
2.14734e-08
-5.75878e-12
-4.73445e-09
1.77022e-08
-4.73999e-09
-7.04243e-13
1.77013e-08
1.98938e-12
-1.04179e-05
1.04121e-05
-1.04179e-05
-1.04517e-12
1.04121e-05
1.3397e-12
-1.23305e-12
1.9377e-13
-2.98511e-05
-5.77162e-09
2.98354e-05
2.14747e-08
-2.98511e-05
-5.77197e-09
4.51777e-13
2.98354e-05
2.14753e-08
2.49488e-13
-4.73649e-09
1.77026e-08
-4.73698e-09
4.81208e-13
1.77034e-08
-4.10395e-14
-1.04179e-05
1.04121e-05
-1.04179e-05
4.03804e-13
1.04121e-05
1.09071e-16
3.91852e-13
2.77703e-13
-2.98511e-05
-5.77232e-09
2.98354e-05
2.14759e-08
-2.98511e-05
-5.77237e-09
3.55417e-14
2.98354e-05
2.14761e-08
1.73196e-13
-4.73741e-09
1.77041e-08
-4.73748e-09
-1.61636e-13
1.77043e-08
2.80137e-13
-1.04179e-05
1.04121e-05
-1.04179e-05
1.19662e-13
1.04121e-05
1.62384e-13
-6.28888e-14
2.12001e-13
-2.98511e-05
-5.77207e-09
2.98354e-05
2.14758e-08
-2.98511e-05
-5.77178e-09
9.29633e-13
2.98354e-05
2.14754e-08
3.17904e-14
-4.73714e-09
1.7704e-08
-4.73674e-09
9.44234e-13
1.77035e-08
5.38783e-13
-1.04179e-05
1.04121e-05
-1.04179e-05
1.47019e-12
1.04121e-05
3.18304e-13
1.48686e-12
6.29889e-12
-2.98511e-05
-5.77599e-09
2.98354e-05
2.14743e-08
-2.98511e-05
-5.7691e-09
2.98354e-05
2.1476e-08
5.82565e-12
-4.74027e-09
1.77025e-08
-4.73468e-09
1.77036e-08
-1.9721e-12
-1.04179e-05
1.04121e-05
-1.04179e-05
1.04121e-05
-9.77126e-13
-7.91126e-12
-2.98169e-05
-8.11475e-09
2.9795e-05
3.00129e-08
-2.98169e-05
-8.12448e-09
-3.24972e-13
2.9795e-05
3.00102e-08
-6.92599e-12
-6.82094e-09
2.52941e-08
-6.82892e-09
-3.96172e-13
2.52923e-08
4.00632e-12
-1.04053e-05
1.03972e-05
-1.04053e-05
-9.66017e-13
1.03972e-05
3.41305e-12
-9.03344e-13
1.5349e-13
-2.98169e-05
-8.11873e-09
2.9795e-05
3.00117e-08
-2.98169e-05
-8.11901e-09
2.7237e-13
2.9795e-05
3.00123e-08
1.87029e-13
-6.82404e-09
2.52937e-08
-6.82433e-09
4.03761e-13
2.52943e-08
-2.2287e-13
-1.04053e-05
1.03972e-05
-1.04053e-05
1.77959e-13
1.03972e-05
-7.24857e-14
3.04597e-13
1.49638e-13
-2.98169e-05
-8.11932e-09
2.9795e-05
3.00127e-08
-2.98169e-05
-8.11936e-09
-2.33072e-14
2.9795e-05
3.00128e-08
2.38233e-13
-6.82467e-09
2.52948e-08
-6.82472e-09
4.76452e-14
2.52949e-08
1.24137e-13
-1.04053e-05
1.03972e-05
-1.04053e-05
6.18887e-14
1.03972e-05
2.12594e-13
1.52356e-13
7.03517e-14
-2.98169e-05
-8.11907e-09
2.9795e-05
3.00125e-08
-2.98169e-05
-8.11883e-09
4.74975e-13
2.9795e-05
3.00121e-08
2.42512e-13
-6.82442e-09
2.52946e-08
-6.82418e-09
8.07175e-13
2.52942e-08
4.86653e-13
-1.04053e-05
1.03972e-05
-1.04053e-05
1.20584e-12
1.03972e-05
6.0346e-13
1.45355e-12
7.50709e-12
-2.98169e-05
-8.12458e-09
2.9795e-05
3.00107e-08
-2.98169e-05
-8.1147e-09
2.9795e-05
3.00137e-08
6.90542e-12
-6.82905e-09
2.52931e-08
-6.82073e-09
2.52953e-08
-4.03564e-12
-1.04053e-05
1.03972e-05
-1.04053e-05
1.03972e-05
-2.64763e-12
-9.62442e-12
-2.97699e-05
-1.08277e-08
2.97408e-05
3.99314e-08
-2.97699e-05
-1.08409e-08
-7.90586e-14
2.97408e-05
3.99272e-08
-8.22836e-12
-9.33922e-09
3.44777e-08
-9.35056e-09
-1.65654e-13
3.44744e-08
5.90177e-12
-1.03878e-05
1.0377e-05
-1.03878e-05
-1.00677e-12
1.0377e-05
5.17124e-12
-9.47782e-13
1.89356e-13
-2.97699e-05
-1.08334e-08
2.97408e-05
3.99292e-08
-2.97699e-05
-1.08337e-08
2.06446e-13
2.97408e-05
3.99297e-08
1.38231e-13
-9.34403e-09
3.44761e-08
-9.34426e-09
2.23825e-13
3.44767e-08
-3.44945e-13
-1.03878e-05
1.0377e-05
-1.03878e-05
1.12318e-13
1.0377e-05
-2.72124e-13
1.1007e-13
1.35719e-13
-2.97699e-05
-1.0834e-08
2.97408e-05
3.99301e-08
-2.97699e-05
-1.0834e-08
1.71949e-14
2.97408e-05
3.99301e-08
9.22198e-14
-9.34457e-09
3.44771e-08
-9.34459e-09
-4.10872e-14
3.44771e-08
1.33188e-13
-1.03878e-05
1.0377e-05
-1.03879e-05
1.45426e-13
1.0377e-05
8.36506e-14
1.11497e-13
1.01695e-14
-2.97699e-05
-1.08336e-08
2.97408e-05
3.99298e-08
-2.97699e-05
-1.08334e-08
2.19698e-13
2.97408e-05
3.99293e-08
5.68728e-14
-9.34426e-09
3.44768e-08
-9.34402e-09
3.42588e-13
3.44764e-08
5.76826e-13
-1.03878e-05
1.0377e-05
-1.03878e-05
1.178e-12
1.0377e-05
5.22412e-13
1.18e-12
9.42768e-12
-2.97699e-05
-1.08409e-08
2.97408e-05
3.99273e-08
-2.97699e-05
-1.08277e-08
2.97408e-05
3.99315e-08
8.3328e-12
-9.35055e-09
3.44747e-08
-9.33915e-09
3.44782e-08
-5.93039e-12
-1.03878e-05
1.0377e-05
-1.03878e-05
1.0377e-05
-4.81921e-12
-1.18574e-11
-2.97081e-05
-1.38425e-08
2.96709e-05
5.10055e-08
-2.97081e-05
-1.38593e-08
2.77588e-13
2.96709e-05
5.1e-08
-1.0452e-11
-1.21816e-08
4.48941e-08
-1.21964e-08
9.94046e-14
4.48895e-08
7.9369e-12
-1.03648e-05
1.0351e-05
-1.03648e-05
-8.95709e-13
1.0351e-05
6.96967e-12
-9.12648e-13
4.06469e-13
-2.97081e-05
-1.38498e-08
2.96709e-05
5.10025e-08
-2.97081e-05
-1.385e-08
2.50628e-13
2.96709e-05
5.10031e-08
3.00241e-13
-1.2188e-08
4.48918e-08
-1.21882e-08
2.88121e-13
4.48923e-08
-2.69026e-13
-1.03648e-05
1.0351e-05
-1.03648e-05
1.48955e-13
1.0351e-05
-2.43429e-13
1.68504e-13
1.07967e-13
-2.97081e-05
-1.38504e-08
2.96709e-05
5.10034e-08
-2.97081e-05
-1.38504e-08
-8.51542e-14
2.96709e-05
5.10033e-08
1.63417e-13
-1.21885e-08
4.48926e-08
-1.21885e-08
2.63899e-14
4.48926e-08
8.3796e-14
-1.03648e-05
1.0351e-05
-1.03648e-05
1.82455e-14
1.0351e-05
1.44356e-13
1.71286e-13
-2.53847e-13
-2.97081e-05
-1.385e-08
2.96709e-05
5.1003e-08
-2.97081e-05
-1.38498e-08
-1.64686e-13
2.96709e-05
5.10025e-08
-1.17922e-14
-1.21881e-08
4.48923e-08
-1.21879e-08
8.78242e-14
4.48917e-08
4.24595e-13
-1.03648e-05
1.0351e-05
-1.03648e-05
1.01501e-12
1.0351e-05
5.57704e-13
1.12556e-12
1.16214e-11
-2.97081e-05
-1.38593e-08
2.96709e-05
5.09999e-08
-2.97081e-05
-1.38424e-08
2.96709e-05
5.10055e-08
1.04169e-11
-1.21963e-08
4.48895e-08
-1.21815e-08
4.48941e-08
-7.93233e-12
-1.03648e-05
1.0351e-05
-1.03648e-05
1.0351e-05
-6.74905e-12
-1.42281e-11
-2.96298e-05
-1.71746e-08
2.95837e-05
6.3289e-08
-2.96298e-05
-1.71954e-08
5.42086e-13
2.95837e-05
6.32819e-08
-1.25501e-11
-1.5317e-08
5.64331e-08
-1.53355e-08
4.41589e-13
5.64271e-08
1.00336e-11
-1.03356e-05
1.03185e-05
-1.03356e-05
-9.47971e-13
1.03185e-05
9.0025e-12
-8.90098e-13
5.04964e-13
-2.96298e-05
-1.71838e-08
2.95837e-05
6.32851e-08
-2.96298e-05
-1.7184e-08
1.58999e-13
2.95837e-05
6.32856e-08
4.37253e-13
-1.53251e-08
5.64298e-08
-1.53253e-08
1.91449e-13
5.64304e-08
-3.57381e-13
-1.03357e-05
1.03185e-05
-1.03357e-05
4.32555e-14
1.03185e-05
-2.90464e-13
3.80578e-14
-3.24732e-14
-2.96298e-05
-1.71845e-08
2.95837e-05
6.32859e-08
-2.96298e-05
-1.71845e-08
-2.70361e-13
2.95837e-05
6.32859e-08
-4.828e-14
-1.53258e-08
5.64307e-08
-1.53258e-08
-2.79623e-13
5.64307e-08
-8.91266e-14
-1.03357e-05
1.03185e-05
-1.03357e-05
-2.06829e-13
1.03185e-05
-1.08181e-13
-1.55059e-13
-5.87452e-13
-2.96298e-05
-1.71841e-08
2.95837e-05
6.32856e-08
-2.96298e-05
-1.71838e-08
-5.5504e-13
2.95837e-05
6.32851e-08
-4.72829e-13
-1.53254e-08
5.64304e-08
-1.53252e-08
-4.38245e-13
5.64299e-08
2.61152e-13
-1.03357e-05
1.03185e-05
-1.03357e-05
9.33731e-13
1.03185e-05
2.5739e-13
8.93223e-13
1.40736e-11
-2.96298e-05
-1.71955e-08
2.95837e-05
6.32819e-08
-2.96298e-05
-1.71747e-08
2.95837e-05
6.3289e-08
1.26103e-11
-1.53356e-08
5.64271e-08
-1.53171e-08
5.64331e-08
-1.00367e-11
-1.03356e-05
1.03185e-05
-1.03356e-05
1.03185e-05
-8.84138e-12
-1.76694e-11
-2.95333e-05
-2.08704e-08
2.94773e-05
7.69433e-08
-2.95333e-05
-2.08956e-08
5.79322e-13
2.94772e-05
7.69349e-08
-1.55e-11
-1.87827e-08
6.92231e-08
-1.88052e-08
5.85584e-13
6.92158e-08
1.17949e-11
-1.02997e-05
1.02788e-05
-1.02997e-05
-1.16443e-12
1.02788e-05
1.10651e-11
-1.01867e-12
6.48378e-13
-2.95333e-05
-2.08815e-08
2.94772e-05
7.69388e-08
-2.95333e-05
-2.08818e-08
3.09338e-13
2.94772e-05
7.69395e-08
5.57431e-13
-1.87925e-08
6.92193e-08
-1.87928e-08
2.73487e-13
6.92199e-08
-3.91864e-13
-1.02997e-05
1.02788e-05
-1.02997e-05
1.85163e-13
1.02788e-05
-3.28427e-13
1.18718e-13
1.72937e-13
-2.95333e-05
-2.08823e-08
2.94773e-05
7.69399e-08
-2.95333e-05
-2.08823e-08
-1.39083e-14
2.94773e-05
7.69399e-08
7.88318e-14
-1.87933e-08
6.92203e-08
-1.87933e-08
-1.22507e-13
6.92202e-08
1.72698e-13
-1.02997e-05
1.02788e-05
-1.02997e-05
1.38173e-13
1.02788e-05
3.63953e-14
2.65871e-14
-4.11478e-13
-2.95333e-05
-2.08817e-08
2.94773e-05
7.69395e-08
-2.95333e-05
-2.08814e-08
-4.58997e-13
2.94772e-05
7.69388e-08
-4.08564e-13
-1.87928e-08
6.92199e-08
-1.87925e-08
-4.37442e-13
6.92193e-08
7.29767e-13
-1.02997e-05
1.02788e-05
-1.02997e-05
1.43361e-12
1.02788e-05
5.6171e-13
1.26281e-12
1.71562e-11
-2.95333e-05
-2.08954e-08
2.94772e-05
7.69348e-08
-2.95333e-05
-2.08701e-08
2.94773e-05
7.69433e-08
1.54878e-11
-1.88051e-08
6.92157e-08
-1.87824e-08
6.92232e-08
-1.18988e-11
-1.02997e-05
1.02788e-05
-1.02997e-05
1.02788e-05
-1.05828e-11
-2.02438e-11
-2.94164e-05
-2.49811e-08
2.93493e-05
9.21562e-08
-2.94164e-05
-2.50112e-08
9.22598e-13
2.93492e-05
9.2146e-08
-1.8516e-11
-2.26437e-08
8.34991e-08
-2.26707e-08
8.01633e-13
8.34903e-08
1.43523e-11
-1.02561e-05
1.02311e-05
-1.02561e-05
-1.26053e-12
1.02311e-05
1.32388e-11
-1.16154e-12
8.31185e-13
-2.94164e-05
-2.49946e-08
2.93493e-05
9.21507e-08
-2.94164e-05
-2.49949e-08
2.70372e-13
2.93493e-05
9.21515e-08
7.43503e-13
-2.26556e-08
8.34946e-08
-2.26559e-08
3.40343e-13
8.34953e-08
-4.38409e-13
-1.02561e-05
1.02311e-05
-1.02561e-05
1.23751e-13
1.02311e-05
-3.45541e-13
2.0379e-13
-8.51184e-15
-2.94164e-05
-2.49955e-08
2.93493e-05
9.21518e-08
-2.94164e-05
-2.49955e-08
-3.09419e-13
2.93493e-05
9.21518e-08
1.10075e-13
-2.26564e-08
8.34957e-08
-2.26564e-08
-1.27321e-13
8.34956e-08
1.02571e-14
-1.02561e-05
1.02311e-05
-1.02561e-05
-9.23602e-14
1.02311e-05
1.36922e-13
1.10892e-13
-8.30719e-13
-2.94164e-05
-2.49948e-08
2.93493e-05
9.21513e-08
-2.94164e-05
-2.49945e-08
-8.94247e-13
2.93493e-05
9.21505e-08
-5.36822e-13
-2.26557e-08
8.34952e-08
-2.26554e-08
-6.30895e-13
8.34944e-08
5.10009e-13
-1.02561e-05
1.02311e-05
-1.02561e-05
1.32696e-12
1.02311e-05
6.7561e-13
1.40846e-12
2.01826e-11
-2.94164e-05
-2.50111e-08
2.93493e-05
9.21457e-08
-2.94164e-05
-2.49811e-08
2.93493e-05
9.21559e-08
1.84592e-11
-2.26705e-08
8.349e-08
-2.26433e-08
8.3499e-08
-1.44919e-11
-1.02561e-05
1.02311e-05
-1.02561e-05
1.02311e-05
-1.28942e-11
-2.41165e-11
-2.92768e-05
-2.95827e-08
2.91972e-05
1.09207e-07
-2.92768e-05
-2.9618e-08
1.04581e-12
2.91972e-05
1.09195e-07
-2.16181e-11
-2.6954e-08
9.94597e-08
-2.69862e-08
9.75986e-13
9.9449e-08
1.7076e-11
-1.02042e-05
1.01746e-05
-1.02042e-05
-1.42315e-12
1.01746e-05
1.5672e-11
-1.32036e-12
9.74575e-13
-2.92768e-05
-2.95983e-08
2.91972e-05
1.092e-07
-2.92768e-05
-2.95986e-08
3.88819e-13
2.91972e-05
1.09201e-07
8.57154e-13
-2.69682e-08
9.94541e-08
-2.69685e-08
2.96762e-13
9.94549e-08
-4.20536e-13
-1.02042e-05
1.01746e-05
-1.02042e-05
2.47336e-13
1.01746e-05
-4.2091e-13
1.38362e-13
1.26953e-13
-2.92768e-05
-2.95994e-08
2.91972e-05
1.09201e-07
-2.92768e-05
-2.95994e-08
-1.84707e-13
2.91972e-05
1.09201e-07
-2.63325e-14
-2.69692e-08
9.94552e-08
-2.69692e-08
-3.33277e-13
9.94552e-08
9.3914e-14
-1.02042e-05
1.01746e-05
-1.02042e-05
-7.12638e-14
1.01746e-05
-2.50416e-14
-1.21224e-13
-7.98173e-13
-2.92768e-05
-2.95987e-08
2.91972e-05
1.09201e-07
-2.92768e-05
-2.95983e-08
-8.75254e-13
2.91972e-05
1.092e-07
-8.37377e-13
-2.69685e-08
9.94548e-08
-2.69681e-08
-9.15062e-13
9.9454e-08
6.16272e-13
-1.02042e-05
1.01746e-05
-1.02042e-05
1.60003e-12
1.01746e-05
5.13935e-13
1.38996e-12
2.39462e-11
-2.92768e-05
-2.9618e-08
2.91972e-05
1.09195e-07
-2.92768e-05
-2.95826e-08
2.91972e-05
1.09207e-07
2.17361e-11
-2.69861e-08
9.94489e-08
-2.6954e-08
9.94596e-08
-1.69592e-11
-1.02042e-05
1.01746e-05
-1.02042e-05
1.01746e-05
-1.55571e-11
-2.81522e-11
-2.91117e-05
-3.47058e-08
2.90182e-05
1.28213e-07
-2.91116e-05
-3.47468e-08
1.32541e-12
2.90182e-05
1.28199e-07
-2.56864e-11
-3.177e-08
1.17314e-07
-3.18075e-08
1.15975e-12
1.17302e-07
1.98657e-11
-1.01428e-05
1.01081e-05
-1.01428e-05
-1.55749e-12
1.01081e-05
1.83824e-11
-1.43076e-12
1.2576e-12
-2.91116e-05
-3.47239e-08
2.90182e-05
1.28205e-07
-2.91117e-05
-3.47243e-08
5.77689e-13
2.90182e-05
1.28206e-07
1.12499e-12
-3.17864e-08
1.17308e-07
-3.17868e-08
5.59657e-13
1.17309e-07
-3.64084e-13
-1.01428e-05
1.01081e-05
-1.01428e-05
4.06192e-13
1.01081e-05
-3.30615e-13
3.51231e-13
2.51715e-13
-2.91117e-05
-3.47251e-08
2.90182e-05
1.28207e-07
-2.91117e-05
-3.47251e-08
-1.52925e-13
2.90182e-05
1.28207e-07
2.61448e-13
-3.17876e-08
1.17309e-07
-3.17876e-08
-7.90206e-14
1.17309e-07
2.13925e-13
-1.01428e-05
1.01081e-05
-1.01428e-05
-1.15765e-14
1.01081e-05
1.68172e-13
3.0559e-14
-9.36353e-13
-2.91117e-05
-3.47243e-08
2.90182e-05
1.28206e-07
-2.91116e-05
-3.4724e-08
-1.10647e-12
2.90182e-05
1.28205e-07
-7.18547e-13
-3.17869e-08
1.17309e-07
-3.17866e-08
-8.43306e-13
1.17308e-07
6.88136e-13
-1.01428e-05
1.01081e-05
-1.01428e-05
1.80056e-12
1.01081e-05
7.26779e-13
1.78111e-12
2.78144e-11
-2.91116e-05
-3.47469e-08
2.90182e-05
1.28199e-07
-2.91117e-05
-3.47056e-08
2.90182e-05
1.28213e-07
2.57072e-11
-3.18076e-08
1.17302e-07
-3.177e-08
1.17315e-07
-1.98178e-11
-1.01428e-05
1.01081e-05
-1.01428e-05
1.01081e-05
-1.79734e-11
-3.1735e-11
-2.89182e-05
-4.04319e-08
2.88091e-05
1.49488e-07
-2.89181e-05
-4.04799e-08
1.77409e-12
2.88091e-05
1.49471e-07
-2.93444e-11
-3.71224e-08
1.37183e-07
-3.71661e-08
1.57264e-12
1.37168e-07
2.3299e-11
-1.00709e-05
1.00305e-05
-1.00709e-05
-1.70594e-12
1.00305e-05
2.14848e-11
-1.56231e-12
1.50055e-12
-2.89181e-05
-4.04534e-08
2.88091e-05
1.49479e-07
-2.89181e-05
-4.04539e-08
5.17567e-13
2.88091e-05
1.4948e-07
1.39127e-12
-3.71417e-08
1.37175e-07
-3.71421e-08
5.68674e-13
1.37176e-07
-4.89369e-13
-1.00709e-05
1.00305e-05
-1.00709e-05
2.63228e-13
1.00305e-05
-3.84893e-13
3.13584e-13
-3.29491e-14
-2.89181e-05
-4.04549e-08
2.88091e-05
1.4948e-07
-2.89181e-05
-4.04549e-08
-6.09157e-13
2.88091e-05
1.4948e-07
7.73517e-14
-3.7143e-08
1.37177e-07
-3.7143e-08
-4.39246e-13
1.37177e-07
-3.74036e-14
-1.00709e-05
1.00305e-05
-1.00709e-05
-3.27215e-13
1.00305e-05
3.44328e-14
-1.98353e-13
-1.57428e-12
-2.89181e-05
-4.04539e-08
2.88091e-05
1.4948e-07
-2.89181e-05
-4.04534e-08
-1.7933e-12
2.88091e-05
1.49479e-07
-1.27683e-12
-3.71421e-08
1.37176e-07
-3.71418e-08
-1.47556e-12
1.37175e-07
4.59606e-13
-1.00709e-05
1.00305e-05
-1.00709e-05
1.70675e-12
1.00305e-05
5.43709e-13
1.72859e-12
3.17426e-11
-2.89181e-05
-4.04799e-08
2.88091e-05
1.49471e-07
-2.89182e-05
-4.0432e-08
2.88091e-05
1.49488e-07
2.93882e-11
-3.71662e-08
1.37168e-07
-3.71224e-08
1.37183e-07
-2.33295e-11
-1.00709e-05
1.00305e-05
-1.00709e-05
1.00305e-05
-2.12224e-11
-3.64504e-11
-2.86929e-05
-4.6736e-08
2.85667e-05
1.72945e-07
-2.86929e-05
-4.67912e-08
1.92897e-12
2.85667e-05
1.72927e-07
-3.36442e-11
-4.30769e-08
1.59319e-07
-4.31275e-08
1.83455e-12
1.59303e-07
2.68589e-11
-9.98735e-06
9.94059e-06
-9.98736e-06
-2.05558e-12
9.9406e-06
2.4816e-11
-1.85401e-12
1.58542e-12
-2.86929e-05
-4.67608e-08
2.85667e-05
1.72935e-07
-2.86929e-05
-4.67613e-08
5.27119e-13
2.85667e-05
1.72936e-07
1.52252e-12
-4.30994e-08
1.59311e-07
-4.30999e-08
5.10462e-13
1.59312e-07
-6.92546e-13
-9.98737e-06
9.94061e-06
-9.98737e-06
2.5235e-13
9.94061e-06
-5.63684e-13
2.44354e-13
4.12607e-14
-2.86929e-05
-4.67624e-08
2.85667e-05
1.72937e-07
-2.86929e-05
-4.67624e-08
-4.68748e-13
2.85667e-05
1.72937e-07
-4.94809e-14
-4.31009e-08
1.59312e-07
-4.31009e-08
-5.97503e-13
1.59312e-07
5.07303e-14
-9.98737e-06
9.94061e-06
-9.98737e-06
-1.58285e-13
9.94061e-06
-1.67693e-14
-2.29199e-13
-1.51655e-12
-2.86929e-05
-4.67612e-08
2.85667e-05
1.72936e-07
-2.86929e-05
-4.67607e-08
-1.82933e-12
2.85667e-05
1.72935e-07
-1.565e-12
-4.30998e-08
1.59312e-07
-4.30993e-08
-1.84487e-12
1.5931e-07
7.81084e-13
-9.98737e-06
9.94061e-06
-9.98737e-06
2.0906e-12
9.94061e-06
6.03229e-13
1.84361e-12
3.65185e-11
-2.86929e-05
-4.67912e-08
2.85667e-05
1.72927e-07
-2.86929e-05
-4.67359e-08
2.85668e-05
1.72945e-07
3.36577e-11
-4.31274e-08
1.59303e-07
-4.30768e-08
1.59319e-07
-2.68483e-11
-9.98736e-06
9.9406e-06
-9.98736e-06
9.94059e-06
-2.47957e-11
-4.13479e-11
-2.84327e-05
-5.36838e-08
2.82876e-05
1.98846e-07
-2.84327e-05
-5.37469e-08
2.24479e-12
2.82876e-05
1.98825e-07
-3.85651e-11
-4.96246e-08
1.83702e-07
-4.96826e-08
1.99528e-12
1.83683e-07
3.08939e-11
-9.89094e-06
9.83722e-06
-9.89095e-06
-2.26201e-12
9.83723e-06
2.83895e-11
-2.18577e-12
1.8032e-12
-2.84327e-05
-5.37123e-08
2.82876e-05
1.98834e-07
-2.84327e-05
-5.37128e-08
6.08694e-13
2.82876e-05
1.98835e-07
1.64969e-12
-4.96504e-08
1.83692e-07
-4.96508e-08
5.9188e-13
1.83693e-07
-7.60191e-13
-9.89095e-06
9.83724e-06
-9.89096e-06
2.84418e-13
9.83724e-06
-7.02284e-13
3.04092e-13
6.78526e-14
-2.84327e-05
-5.3714e-08
2.82876e-05
1.98836e-07
-2.84327e-05
-5.3714e-08
-5.14062e-13
2.82876e-05
1.98836e-07
9.95173e-14
-4.9652e-08
1.83694e-07
-4.9652e-08
-4.03658e-13
1.83694e-07
3.98376e-14
-9.89096e-06
9.83724e-06
-9.89096e-06
-2.17227e-13
9.83724e-06
1.07397e-13
-8.43218e-14
-1.731e-12
-2.84327e-05
-5.37127e-08
2.82876e-05
1.98836e-07
-2.84327e-05
-5.37122e-08
-2.165e-12
2.82876e-05
1.98834e-07
-1.49169e-12
-4.96508e-08
1.83693e-07
-4.96503e-08
-1.91921e-12
1.83692e-07
7.95375e-13
-9.89096e-06
9.83724e-06
-9.89095e-06
2.24137e-12
9.83724e-06
8.29984e-13
2.107e-12
4.14952e-11
-2.84327e-05
-5.3747e-08
2.82876e-05
1.98825e-07
-2.84327e-05
-5.36838e-08
2.82876e-05
1.98846e-07
3.85018e-11
-4.96825e-08
1.83683e-07
-4.96246e-08
1.83702e-07
-3.08357e-11
-9.89095e-06
9.83724e-06
-9.89094e-06
9.83722e-06
-2.86233e-11
-4.66659e-11
-2.81339e-05
-6.12423e-08
2.79681e-05
2.27081e-07
-2.81339e-05
-6.1314e-08
2.76931e-12
2.79681e-05
2.27057e-07
-4.35301e-11
-5.68181e-08
2.10542e-07
-5.68842e-08
2.47626e-12
2.10521e-07
3.52355e-11
-9.78037e-06
9.71909e-06
-9.78038e-06
-2.30591e-12
9.71911e-06
3.2501e-11
-2.29429e-12
2.24034e-12
-2.81339e-05
-6.12747e-08
2.79681e-05
2.27068e-07
-2.81339e-05
-6.12752e-08
7.94537e-13
2.79681e-05
2.27069e-07
2.00903e-12
-5.68476e-08
2.10531e-07
-5.68481e-08
6.98387e-13
2.10532e-07
-6.64543e-13
-9.78039e-06
9.71911e-06
-9.78039e-06
3.91358e-13
9.71912e-06
-7.03867e-13
3.18935e-13
3.12195e-14
-2.81339e-05
-6.12766e-08
2.79681e-05
2.2707e-07
-2.81339e-05
-6.12766e-08
-7.60252e-13
2.79681e-05
2.2707e-07
8.96153e-15
-5.68494e-08
2.10533e-07
-5.68494e-08
-6.862e-13
2.10533e-07
-2.23638e-14
-9.78039e-06
9.71912e-06
-9.78039e-06
-4.36718e-13
9.71912e-06
-2.81609e-14
-3.46433e-13
-2.23233e-12
-2.81339e-05
-6.12752e-08
2.79681e-05
2.27069e-07
-2.81339e-05
-6.12747e-08
-2.76107e-12
2.79681e-05
2.27068e-07
-1.98013e-12
-5.68481e-08
2.10532e-07
-5.68476e-08
-2.4623e-12
2.10531e-07
6.35163e-13
-9.78039e-06
9.71912e-06
-9.78039e-06
2.294e-12
9.71911e-06
6.7025e-13
2.18382e-12
4.67331e-11
-2.81339e-05
-6.1314e-08
2.79681e-05
2.27057e-07
-2.81339e-05
-6.12423e-08
2.79681e-05
2.27081e-07
4.35498e-11
-5.68842e-08
2.10521e-07
-5.68182e-08
2.10542e-07
-3.50554e-11
-9.78039e-06
9.71911e-06
-9.78037e-06
9.7191e-06
-3.26597e-11
-5.25742e-11
-2.7793e-05
-6.945e-08
2.76047e-05
2.57815e-07
-2.7793e-05
-6.95309e-08
3.08182e-12
2.76047e-05
2.57788e-07
-4.9016e-11
-6.46388e-08
2.39787e-07
-6.47136e-08
2.9529e-12
2.39763e-07
3.95446e-11
-9.65442e-06
9.58493e-06
-9.65443e-06
-2.65579e-12
9.58494e-06
3.68791e-11
-2.43337e-12
2.41521e-12
-2.7793e-05
-6.94866e-08
2.76047e-05
2.578e-07
-2.7793e-05
-6.94871e-08
8.23663e-13
2.76047e-05
2.57801e-07
2.3598e-12
-6.46722e-08
2.39774e-07
-6.46728e-08
8.27305e-13
2.39775e-07
-8.23421e-13
-9.65444e-06
9.58495e-06
-9.65444e-06
4.37249e-13
9.58495e-06
-6.98834e-13
4.24852e-13
1.07939e-13
-2.7793e-05
-6.94887e-08
2.76047e-05
2.57802e-07
-2.7793e-05
-6.94887e-08
-6.13804e-13
2.76047e-05
2.57802e-07
4.38115e-14
-6.46742e-08
2.39776e-07
-6.46742e-08
-7.44243e-13
2.39776e-07
1.23979e-13
-9.65444e-06
9.58495e-06
-9.65444e-06
-2.08651e-13
9.58495e-06
2.08831e-14
-3.6497e-13
-2.19104e-12
-2.7793e-05
-6.94872e-08
2.76047e-05
2.57801e-07
-2.7793e-05
-6.94866e-08
-2.85254e-12
2.76047e-05
2.578e-07
-2.24785e-12
-6.46728e-08
2.39775e-07
-6.46722e-08
-2.82834e-12
2.39774e-07
1.02169e-12
-9.65444e-06
9.58495e-06
-9.65444e-06
2.8175e-12
9.58495e-06
7.61822e-13
2.47101e-12
5.26842e-11
-2.7793e-05
-6.95309e-08
2.76047e-05
2.57788e-07
-2.7793e-05
-6.945e-08
2.76047e-05
2.57814e-07
4.91169e-11
-6.47136e-08
2.39763e-07
-6.46388e-08
2.39787e-07
-3.93733e-11
-9.65443e-06
9.58495e-06
-9.65442e-06
9.58493e-06
-3.68498e-11
-5.86867e-11
-2.74065e-05
-7.82233e-08
2.7194e-05
2.90756e-07
-2.74065e-05
-7.83139e-08
3.23913e-12
2.7194e-05
2.90726e-07
-5.50489e-11
-7.30392e-08
2.71279e-07
-7.31231e-08
3.0519e-12
2.71253e-07
4.40906e-11
-9.51185e-06
9.43358e-06
-9.51187e-06
-3.17306e-12
9.4336e-06
4.1219e-11
-2.95137e-12
2.41164e-12
-2.74065e-05
-7.82644e-08
2.7194e-05
2.9074e-07
-2.74065e-05
-7.82649e-08
7.02763e-13
2.7194e-05
2.90741e-07
2.34902e-12
-7.30768e-08
2.71265e-07
-7.30773e-08
7.63864e-13
2.71267e-07
-1.1493e-12
-9.51187e-06
9.43361e-06
-9.51187e-06
3.31092e-13
9.43361e-06
-9.89328e-13
4.10638e-13
2.81187e-14
-2.74065e-05
-7.82666e-08
2.7194e-05
2.90742e-07
-2.74065e-05
-7.82666e-08
-6.4017e-13
2.7194e-05
2.90742e-07
1.30478e-13
-7.30789e-08
2.71267e-07
-7.30789e-08
-5.20721e-13
2.71267e-07
1.00721e-13
-9.51188e-06
9.43361e-06
-9.51188e-06
-1.45121e-13
9.43361e-06
1.59895e-13
-1.14176e-13
-2.2855e-12
-2.74065e-05
-7.82649e-08
2.7194e-05
2.90741e-07
-2.74065e-05
-7.82644e-08
-3.02549e-12
2.7194e-05
2.9074e-07
-2.10666e-12
-7.30773e-08
2.71267e-07
-7.30768e-08
-2.85229e-12
2.71265e-07
1.31479e-12
-9.51187e-06
9.43361e-06
-9.51187e-06
3.32919e-12
9.43361e-06
1.20073e-12
3.01767e-12
5.8897e-11
-2.74065e-05
-7.83139e-08
2.7194e-05
2.90726e-07
-2.74065e-05
-7.82233e-08
2.71941e-05
2.90756e-07
5.51106e-11
-7.31232e-08
2.71253e-07
-7.30393e-08
2.71279e-07
-4.39815e-11
-9.51187e-06
9.4336e-06
-9.51185e-06
9.43358e-06
-4.13573e-11
-6.49096e-11
-2.6971e-05
-8.75673e-08
2.67327e-05
3.25951e-07
-2.6971e-05
-8.76682e-08
3.76813e-12
2.67327e-05
3.25918e-07
-6.12178e-11
-8.20419e-08
3.05128e-07
-8.21357e-08
3.39465e-12
3.05099e-07
4.91187e-11
-9.35149e-06
9.26388e-06
-9.35151e-06
-3.3184e-12
9.2639e-06
4.60938e-11
-3.2215e-12
2.83633e-12
-2.6971e-05
-8.76133e-08
2.67327e-05
3.25933e-07
-2.6971e-05
-8.76138e-08
8.96614e-13
2.67327e-05
3.25934e-07
2.56612e-12
-8.20839e-08
3.05113e-07
-8.20845e-08
7.79697e-13
3.05114e-07
-1.10656e-12
-9.35152e-06
9.2639e-06
-9.35152e-06
4.43389e-13
9.26391e-06
-1.10312e-12
3.87237e-13
-1.94568e-15
-2.6971e-05
-8.76157e-08
2.67327e-05
3.25935e-07
-2.6971e-05
-8.76157e-08
-9.57079e-13
2.67327e-05
3.25935e-07
-9.20501e-15
-8.20862e-08
3.05115e-07
-8.20862e-08
-8.02354e-13
3.05115e-07
2.03499e-14
-9.35152e-06
9.26391e-06
-9.35152e-06
-4.21317e-13
9.26391e-06
4.19138e-14
-2.6832e-13
-2.94949e-12
-2.6971e-05
-8.76138e-08
2.67327e-05
3.25934e-07
-2.6971e-05
-8.76132e-08
-3.83737e-12
2.67327e-05
3.25933e-07
-2.53354e-12
-8.20844e-08
3.05114e-07
-8.20839e-08
-3.30415e-12
3.05113e-07
1.10847e-12
-9.35152e-06
9.26391e-06
-9.35152e-06
3.34215e-12
9.26391e-06
1.27278e-12
3.39791e-12
6.49836e-11
-2.6971e-05
-8.76682e-08
2.67327e-05
3.25918e-07
-2.6971e-05
-8.75672e-08
2.67327e-05
3.25951e-07
6.13434e-11
-8.21356e-08
3.05099e-07
-8.20418e-08
3.05128e-07
-4.91124e-11
-9.35151e-06
9.2639e-06
-9.3515e-06
9.26388e-06
-4.5935e-11
-7.14541e-11
-2.64834e-05
-9.73845e-08
2.62178e-05
3.6306e-07
-2.64834e-05
-9.74962e-08
4.29712e-12
2.62178e-05
3.63025e-07
-6.7491e-11
-9.15175e-08
3.40876e-07
-9.16215e-08
4.013e-12
3.40843e-07
5.43388e-11
-9.17231e-06
9.07487e-06
-9.17233e-06
-3.51566e-12
9.07489e-06
5.12245e-11
-3.36392e-12
3.15887e-12
-2.64834e-05
-9.74356e-08
2.62178e-05
3.63041e-07
-2.64834e-05
-9.74361e-08
9.83549e-13
2.62178e-05
3.63042e-07
3.02354e-12
-9.15643e-08
3.40859e-07
-9.15649e-08
9.78386e-13
3.4086e-07
-1.19833e-12
-9.17234e-06
9.0749e-06
-9.17234e-06
4.94563e-13
9.0749e-06
-1.09091e-12
4.93014e-13
5.58446e-14
-2.64834e-05
-9.74381e-08
2.62178e-05
3.63043e-07
-2.64834e-05
-9.74381e-08
-9.26417e-13
2.62178e-05
3.63043e-07
1.25522e-14
-9.15668e-08
3.40861e-07
-9.15668e-08
-1.01642e-12
3.40861e-07
8.8593e-14
-9.17234e-06
9.07491e-06
-9.17234e-06
-3.67594e-13
9.07491e-06
2.45155e-14
-4.35441e-13
-3.15411e-12
-2.64834e-05
-9.74361e-08
2.62178e-05
3.63042e-07
-2.64834e-05
-9.74356e-08
-4.29289e-12
2.62178e-05
3.63041e-07
-3.12399e-12
-9.15649e-08
3.4086e-07
-9.15643e-08
-4.14125e-12
3.40859e-07
1.24312e-12
-9.17234e-06
9.0749e-06
-9.17234e-06
3.5351e-12
9.0749e-06
1.13396e-12
3.33829e-12
7.14521e-11
-2.64834e-05
-9.74962e-08
2.62178e-05
3.63025e-07
-2.64834e-05
-9.73844e-08
2.62178e-05
3.6306e-07
6.7333e-11
-9.16214e-08
3.40843e-07
-9.15173e-08
3.40876e-07
-5.44131e-11
-9.17233e-06
9.07489e-06
-9.17231e-06
9.07487e-06
-5.13823e-11
-7.80703e-11
-2.59409e-05
-1.07587e-07
2.56467e-05
4.01783e-07
-2.59408e-05
-1.0771e-07
4.77946e-12
2.56467e-05
4.01744e-07
-7.41075e-11
-1.01443e-07
3.78462e-07
-1.01557e-07
4.46934e-12
3.78427e-07
5.98303e-11
-8.97337e-06
8.86573e-06
-8.9734e-06
-3.76364e-12
8.86575e-06
5.64362e-11
-3.6817e-12
3.40529e-12
-2.59408e-05
-1.07643e-07
2.56467e-05
4.01762e-07
-2.59408e-05
-1.07644e-07
9.62501e-13
2.56467e-05
4.01763e-07
3.22023e-12
-1.01495e-07
3.78444e-07
-1.01495e-07
9.71744e-13
3.78445e-07
-1.38858e-12
-8.9734e-06
8.86576e-06
-8.97341e-06
3.87981e-13
8.86576e-06
-1.28691e-12
4.79976e-13
-4.20965e-14
-2.59408e-05
-1.07646e-07