/*--------------------------------*- C++ -*----------------------------------*\
  =========                 |
  \\      /  F ield         | OpenFOAM: The Open Source CFD Toolbox
   \\    /   O peration     | Website:  https://openfoam.org
    \\  /    A nd           | Version:  9
     \\/     M anipulation  |
\*---------------------------------------------------------------------------*/
FoamFile
{
    format      ascii;
    class       volVectorField;
    location    "0.8";
    object      U;
}
// * * * * * * * * * * * * * * * * * * * * * * * * * * * * * * * * * * * * * //

dimensions      [0 1 -1 0 0 0 0];

internalField   nonuniform List<vector> 
36360
(
(9.86989e-06 -0.0568153 -0.935998)
(9.80345e-06 -0.056815 -2.11558e-08)
(1.27727e-05 -0.0568372 -0.945572)
(1.2828e-05 -0.0568372 2.40973e-08)
(1.7553e-06 -0.0198308 -0.923572)
(1.69543e-06 -0.0198306 -1.50001e-08)
(3.2103e-06 -0.0198435 -0.932395)
(3.21792e-06 -0.0198435 2.33686e-08)
(9.79169e-06 -0.0568149 3.43981e-10)
(9.79162e-06 -0.0568149 7.34433e-10)
(1.28423e-05 -0.0568372 1.2349e-09)
(1.28454e-05 -0.0568372 -1.43354e-10)
(1.6845e-06 -0.0198305 -3.51613e-10)
(1.68365e-06 -0.0198305 5.24674e-10)
(3.21858e-06 -0.0198435 1.58172e-09)
(3.21834e-06 -0.0198435 -1.93864e-11)
(9.79278e-06 -0.0568149 2.36269e-10)
(9.79324e-06 -0.0568149 -2.90615e-10)
(1.28464e-05 -0.0568372 -3.0607e-11)
(1.2847e-05 -0.0568372 5.71202e-12)
(1.68399e-06 -0.0198305 1.99103e-10)
(1.68408e-06 -0.0198305 -2.61369e-10)
(3.21833e-06 -0.0198435 -1.57601e-11)
(3.21848e-06 -0.0198435 -2.35985e-11)
(9.79297e-06 -0.0568149 -8.25338e-10)
(9.7938e-06 -0.0568149 -4.32964e-10)
(1.28472e-05 -0.0568372 9.11579e-11)
(1.2845e-05 -0.0568372 -1.28964e-09)
(1.6839e-06 -0.0198305 -6.04832e-10)
(1.6849e-06 -0.0198305 2.85707e-10)
(3.21879e-06 -0.0198435 -1.92447e-11)
(3.21927e-06 -0.0198435 -1.62239e-09)
(9.80614e-06 -0.056815 2.11215e-08)
(9.87289e-06 -0.0568153 0.935998)
(1.28315e-05 -0.0568372 -2.41166e-08)
(1.27765e-05 -0.0568372 0.945572)
(1.69594e-06 -0.0198306 1.49881e-08)
(1.7559e-06 -0.0198308 0.923572)
(3.21882e-06 -0.0198435 -2.33997e-08)
(3.2113e-06 -0.0198435 0.932395)
(9.13647e-06 -0.0567877 -0.93522)
(9.13152e-06 -0.0567878 -4.24794e-09)
(8.80462e-06 -0.0568017 -0.935445)
(8.79573e-06 -0.0568019 -5.91477e-09)
(1.13333e-06 -0.0198198 -0.922812)
(1.10845e-06 -0.0198198 -1.93354e-09)
(1.21782e-06 -0.019825 -0.923032)
(1.19282e-06 -0.0198251 -4.36088e-09)
(9.13423e-06 -0.0567878 2.13363e-10)
(9.13756e-06 -0.0567878 7.54621e-10)
(8.80344e-06 -0.0568019 2.19547e-09)
(8.80995e-06 -0.0568019 1.4491e-09)
(1.10416e-06 -0.0198198 -6.81888e-11)
(1.10458e-06 -0.0198198 6.5499e-10)
(1.19246e-06 -0.0198251 1.2835e-09)
(1.19495e-06 -0.0198251 1.1938e-09)
(9.13934e-06 -0.0567878 2.81486e-10)
(9.13967e-06 -0.0567878 -3.39178e-10)
(8.81291e-06 -0.0568019 4.31438e-10)
(8.8133e-06 -0.0568019 -4.78427e-10)
(1.10512e-06 -0.0198198 2.78888e-10)
(1.10516e-06 -0.0198198 -3.13082e-10)
(1.1962e-06 -0.0198251 3.87133e-10)
(1.19626e-06 -0.0198251 -4.36768e-10)
(9.13853e-06 -0.0567878 -8.02266e-10)
(9.13574e-06 -0.0567878 -2.27996e-10)
(8.81107e-06 -0.0568019 -1.50337e-09)
(8.80521e-06 -0.0568019 -2.22983e-09)
(1.10471e-06 -0.0198198 -6.76794e-10)
(1.10436e-06 -0.0198198 5.62296e-11)
(1.19513e-06 -0.0198251 -1.23019e-09)
(1.19273e-06 -0.0198251 -1.32255e-09)
(9.13342e-06 -0.0567878 4.29566e-09)
(9.13853e-06 -0.0567877 0.93522)
(8.79794e-06 -0.0568019 5.91361e-09)
(8.80706e-06 -0.0568017 0.935445)
(1.10872e-06 -0.0198198 1.95211e-09)
(1.13365e-06 -0.0198198 0.922812)
(1.19317e-06 -0.0198251 4.31463e-09)
(1.21824e-06 -0.019825 0.923032)
(1.24486e-05 -0.0567529 -0.934412)
(1.24338e-05 -0.056753 -4.02626e-09)
(1.04033e-05 -0.0567717 -0.934639)
(1.0391e-05 -0.0567717 -4.49177e-09)
(1.48847e-06 -0.0198071 -0.922025)
(1.45135e-06 -0.0198071 -6.72603e-10)
(1.24216e-06 -0.0198139 -0.922246)
(1.21061e-06 -0.0198139 -1.58374e-09)
(1.24316e-05 -0.056753 -2.74127e-10)
(1.24334e-05 -0.056753 4.71709e-10)
(1.03895e-05 -0.0567717 -2.9917e-10)
(1.03916e-05 -0.0567717 5.53299e-10)
(1.4426e-06 -0.0198071 -6.50326e-10)
(1.44206e-06 -0.0198071 2.62373e-10)
(1.20328e-06 -0.0198139 -5.81183e-10)
(1.20298e-06 -0.0198139 3.89937e-10)
(1.24347e-05 -0.056753 2.59455e-10)
(1.24349e-05 -0.056753 -1.83288e-10)
(1.0393e-05 -0.0567717 2.38803e-10)
(1.03933e-05 -0.0567717 -3.07228e-10)
(1.44237e-06 -0.0198071 2.33918e-10)
(1.4424e-06 -0.0198071 -1.35756e-10)
(1.20337e-06 -0.0198139 2.24763e-10)
(1.2034e-06 -0.0198139 -2.46828e-10)
(1.24341e-05 -0.056753 -3.60472e-10)
(1.24326e-05 -0.056753 3.80638e-10)
(1.03924e-05 -0.0567717 -5.83891e-10)
(1.03908e-05 -0.0567717 2.68173e-10)
(1.44215e-06 -0.0198071 -1.5432e-10)
(1.44274e-06 -0.0198071 7.38184e-10)
(1.20309e-06 -0.0198139 -4.09046e-10)
(1.20343e-06 -0.0198139 5.22046e-10)
(1.24351e-05 -0.056753 4.13339e-09)
(1.24501e-05 -0.056753 0.934412)
(1.03927e-05 -0.0567717 4.48206e-09)
(1.04051e-05 -0.0567717 0.934639)
(1.45156e-06 -0.0198071 6.97319e-10)
(1.4888e-06 -0.0198071 0.922025)
(1.21085e-06 -0.0198139 1.46071e-09)
(1.24251e-06 -0.0198139 0.922246)
(1.84319e-05 -0.0567035 -0.933579)
(1.84106e-05 -0.0567035 -4.73396e-09)
(1.51611e-05 -0.0567305 -0.933803)
(1.51435e-05 -0.0567305 -4.04597e-09)
(2.26548e-06 -0.019789 -0.921213)
(2.21148e-06 -0.019789 5.82749e-10)
(1.8381e-06 -0.0197989 -0.921431)
(1.79352e-06 -0.0197989 1.96292e-10)
(1.84072e-05 -0.0567035 -3.11049e-10)
(1.84084e-05 -0.0567035 3.83159e-10)
(1.51407e-05 -0.0567305 -2.87628e-10)
(1.51422e-05 -0.0567305 4.27403e-10)
(2.19886e-06 -0.019789 -7.17337e-10)
(2.19746e-06 -0.019789 1.98818e-10)
(1.78301e-06 -0.0197989 -6.41383e-10)
(1.78202e-06 -0.0197989 2.47478e-10)
(1.84093e-05 -0.0567035 4.30731e-10)
(1.84095e-05 -0.0567035 2.40029e-10)
(1.51433e-05 -0.0567305 3.74294e-10)
(1.51435e-05 -0.0567305 6.04368e-11)
(2.19751e-06 -0.019789 4.2579e-10)
(2.19753e-06 -0.019789 2.87297e-10)
(1.7822e-06 -0.0197989 3.42365e-10)
(1.78223e-06 -0.0197989 1.04342e-10)
(1.84088e-05 -0.0567035 2.36427e-10)
(1.84078e-05 -0.0567035 7.54276e-10)
(1.51427e-05 -0.0567305 1.34687e-11)
(1.51415e-05 -0.0567305 6.5494e-10)
(2.19749e-06 -0.019789 4.57485e-10)
(2.1989e-06 -0.019789 1.27023e-09)
(1.78208e-06 -0.0197989 2.1071e-10)
(1.7831e-06 -0.0197989 1.09131e-09)
(1.84114e-05 -0.0567035 4.52471e-09)
(1.84328e-05 -0.0567035 0.933579)
(1.51445e-05 -0.0567305 4.23957e-09)
(1.51622e-05 -0.0567305 0.933803)
(2.21151e-06 -0.019789 -3.03212e-10)
(2.26532e-06 -0.019789 0.921213)
(1.79361e-06 -0.0197989 2.78971e-10)
(1.83815e-06 -0.0197989 0.921431)
(2.63718e-05 -0.056633 -0.932719)
(2.6342e-05 -0.056633 -5.25336e-09)
(2.21922e-05 -0.0566711 -0.932958)
(2.21669e-05 -0.0566711 -4.67111e-09)
(3.30093e-06 -0.019763 -0.920374)
(3.22459e-06 -0.019763 1.93156e-09)
(2.75685e-06 -0.0197771 -0.920607)
(2.69227e-06 -0.0197771 1.59369e-09)
(2.63371e-05 -0.056633 -1.26048e-10)
(2.63382e-05 -0.056633 2.34515e-10)
(2.21628e-05 -0.0566712 -1.34885e-10)
(2.21639e-05 -0.0566712 3.58299e-10)
(3.20684e-06 -0.019763 -8.039e-10)
(3.20467e-06 -0.019763 -6.61017e-11)
(2.67723e-06 -0.0197771 -6.65101e-10)
(2.67545e-06 -0.0197771 1.13951e-10)
(2.63391e-05 -0.056633 2.43472e-10)
(2.63392e-05 -0.056633 1.03843e-10)
(2.21648e-05 -0.0566712 3.85759e-10)
(2.21649e-05 -0.0566712 2.14704e-10)
(3.20458e-06 -0.019763 1.92711e-10)
(3.2046e-06 -0.019763 1.29473e-10)
(2.67544e-06 -0.0197771 3.29185e-10)
(2.67546e-06 -0.0197771 2.61374e-10)
(2.63384e-05 -0.056633 8.18803e-11)
(2.63374e-05 -0.056633 3.76866e-10)
(2.21642e-05 -0.0566712 2.52847e-10)
(2.21632e-05 -0.0566712 7.06807e-10)
(3.20469e-06 -0.019763 3.83312e-10)
(3.20687e-06 -0.019763 1.10947e-09)
(2.67548e-06 -0.0197771 5.17834e-10)
(2.67728e-06 -0.0197771 1.32665e-09)
(2.63425e-05 -0.056633 5.09242e-09)
(2.63723e-05 -0.056633 0.932719)
(2.21676e-05 -0.0566711 4.92307e-09)
(2.21929e-05 -0.0566711 0.932958)
(3.2246e-06 -0.019763 -1.79558e-09)
(3.30081e-06 -0.019763 0.920374)
(2.69228e-06 -0.0197771 -7.50772e-10)
(2.7566e-06 -0.0197771 0.920607)
(3.58459e-05 -0.056537 -0.931829)
(3.58064e-05 -0.056537 -6.31128e-09)
(3.09337e-05 -0.0565884 -0.932073)
(3.08993e-05 -0.0565884 -5.46031e-09)
(4.52168e-06 -0.0197273 -0.919505)
(4.41873e-06 -0.0197273 3.17647e-09)
(3.89062e-06 -0.0197464 -0.919743)
(3.80154e-06 -0.0197464 2.74009e-09)
(3.57998e-05 -0.056537 3.87684e-11)
(3.58011e-05 -0.056537 2.06754e-10)
(3.08935e-05 -0.0565884 -4.33149e-11)
(3.08948e-05 -0.0565884 1.90432e-10)
(4.39489e-06 -0.0197273 -9.26683e-10)
(4.39185e-06 -0.0197273 -1.90444e-10)
(3.78086e-06 -0.0197464 -8.41987e-10)
(3.77825e-06 -0.0197464 -1.46032e-10)
(3.5802e-05 -0.0565371 2.02277e-10)
(3.5802e-05 -0.0565371 1.14233e-10)
(3.08956e-05 -0.0565884 1.81824e-10)
(3.08957e-05 -0.0565884 4.98742e-11)
(4.39166e-06 -0.0197273 1.60711e-10)
(4.39166e-06 -0.0197273 1.82493e-10)
(3.77812e-06 -0.0197464 1.2559e-10)
(3.77813e-06 -0.0197464 1.28973e-10)
(3.58011e-05 -0.0565371 6.46986e-11)
(3.57998e-05 -0.056537 1.81307e-10)
(3.08949e-05 -0.0565884 5.60284e-11)
(3.08937e-05 -0.0565884 2.886e-10)
(4.39182e-06 -0.0197273 5.07129e-10)
(4.39484e-06 -0.0197273 1.18646e-09)
(3.77823e-06 -0.0197464 4.46927e-10)
(3.78083e-06 -0.0197464 1.14744e-09)
(3.58064e-05 -0.056537 6.27586e-09)
(3.5846e-05 -0.056537 0.931829)
(3.08995e-05 -0.0565884 5.64463e-09)
(3.0934e-05 -0.0565884 0.932073)
(4.4187e-06 -0.0197273 -3.08243e-09)
(4.52164e-06 -0.0197273 0.919505)
(3.8015e-06 -0.0197464 -2.35834e-09)
(3.89052e-06 -0.0197464 0.919743)
(4.67221e-05 -0.0564122 -0.930907)
(4.66713e-05 -0.0564122 -7.68057e-09)
(4.11084e-05 -0.0564784 -0.931168)
(4.10635e-05 -0.0564784 -6.86525e-09)
(5.90465e-06 -0.0196808 -0.918606)
(5.77105e-06 -0.0196808 4.66542e-09)
(5.1927e-06 -0.0197055 -0.918861)
(5.07494e-06 -0.0197055 4.01081e-09)
(4.66628e-05 -0.0564122 4.13879e-10)
(4.66643e-05 -0.0564122 3.84617e-10)
(4.1056e-05 -0.0564784 2.28349e-10)
(4.10574e-05 -0.0564784 3.38106e-10)
(5.74018e-06 -0.0196808 -8.18997e-10)
(5.73617e-06 -0.0196808 -1.1788e-10)
(5.04771e-06 -0.0197055 -8.14611e-10)
(5.04417e-06 -0.0197055 -8.92611e-11)
(4.66653e-05 -0.0564122 2.29223e-10)
(4.66653e-05 -0.0564122 2.50189e-11)
(4.10583e-05 -0.0564784 2.84427e-10)
(4.10583e-05 -0.0564784 1.39341e-10)
(5.7359e-06 -0.0196808 1.5602e-10)
(5.73591e-06 -0.0196808 6.82951e-11)
(5.04395e-06 -0.0197055 2.09147e-10)
(5.04395e-06 -0.0197055 2.11013e-10)
(4.66643e-05 -0.0564122 -1.75905e-10)
(4.66628e-05 -0.0564122 -2.39265e-10)
(4.10573e-05 -0.0564784 5.98752e-11)
(4.10559e-05 -0.0564784 8.74355e-11)
(5.73617e-06 -0.0196808 3.34006e-10)
(5.74018e-06 -0.0196808 1.00297e-09)
(5.04414e-06 -0.0197055 5.22307e-10)
(5.04766e-06 -0.0197055 1.16253e-09)
(4.66713e-05 -0.0564122 7.59975e-09)
(4.6722e-05 -0.0564122 0.930907)
(4.10634e-05 -0.0564784 6.96758e-09)
(4.11083e-05 -0.0564784 0.931168)
(5.77106e-06 -0.0196808 -4.58232e-09)
(5.90456e-06 -0.0196808 0.918606)
(5.07492e-06 -0.0197055 -3.72163e-09)
(5.19259e-06 -0.0197055 0.918861)
(5.91062e-05 -0.0562553 -0.929963)
(5.90426e-05 -0.0562553 -9.25579e-09)
(5.27136e-05 -0.0563379 -0.930222)
(5.26567e-05 -0.0563379 -8.18922e-09)
(7.4624e-06 -0.0196223 -0.917686)
(7.29426e-06 -0.0196223 6.14098e-09)
(6.65966e-06 -0.0196531 -0.917938)
(6.50941e-06 -0.0196531 5.48283e-09)
(5.90321e-05 -0.0562553 6.63509e-10)
(5.90339e-05 -0.0562553 4.13127e-10)
(5.26472e-05 -0.0563379 5.50106e-10)
(5.26489e-05 -0.056338 3.8229e-10)
(7.25545e-06 -0.0196223 -9.3326e-10)
(7.25038e-06 -0.0196223 -2.54828e-10)
(6.47471e-06 -0.0196531 -8.4799e-10)
(6.47018e-06 -0.0196531 -2.12725e-10)
(5.90351e-05 -0.0562553 1.00136e-10)
(5.90351e-05 -0.0562553 -2.15522e-10)
(5.265e-05 -0.056338 1.02292e-10)
(5.265e-05 -0.056338 -2.27076e-10)
(7.25006e-06 -0.0196223 -3.13123e-11)
(7.25009e-06 -0.0196223 -1.85375e-10)
(6.46991e-06 -0.0196531 -4.7828e-11)
(6.46995e-06 -0.0196531 -1.80004e-10)
(5.90339e-05 -0.0562553 -5.41762e-10)
(5.90321e-05 -0.0562553 -7.26636e-10)
(5.26489e-05 -0.056338 -4.7223e-10)
(5.26473e-05 -0.0563379 -5.77238e-10)
(7.25043e-06 -0.0196223 8.75882e-11)
(7.25552e-06 -0.0196223 8.51127e-10)
(6.47023e-06 -0.0196531 1.05589e-10)
(6.47477e-06 -0.0196531 8.23073e-10)
(5.90427e-05 -0.0562553 9.1424e-09)
(5.91062e-05 -0.0562553 0.929963)
(5.26568e-05 -0.0563379 8.23226e-09)
(5.27137e-05 -0.0563379 0.930222)
(7.29433e-06 -0.0196223 -6.15283e-09)
(7.46244e-06 -0.0196223 0.917686)
(6.50949e-06 -0.0196531 -5.37167e-09)
(6.65969e-06 -0.0196531 0.917938)
(7.32478e-05 -0.0560627 -0.928989)
(7.31701e-05 -0.0560627 -1.17882e-08)
(6.59406e-05 -0.0561637 -0.929245)
(6.58703e-05 -0.0561637 -1.02906e-08)
(9.22752e-06 -0.0195505 -0.916736)
(9.02016e-06 -0.0195505 7.32734e-09)
(8.31645e-06 -0.0195881 -0.916986)
(8.12936e-06 -0.0195881 6.92794e-09)
(7.31573e-05 -0.0560627 7.96657e-10)
(7.31595e-05 -0.0560627 6.18026e-10)
(6.58587e-05 -0.0561637 7.4055e-10)
(6.58607e-05 -0.0561637 5.32924e-10)
(8.97233e-06 -0.0195505 -1.13137e-09)
(8.96606e-06 -0.0195505 -1.89335e-10)
(8.08619e-06 -0.0195881 -9.8631e-10)
(8.08051e-06 -0.0195881 -1.92106e-10)
(7.3161e-05 -0.0560627 3.50238e-10)
(7.3161e-05 -0.0560627 9.47802e-11)
(6.58621e-05 -0.0561637 2.591e-10)
(6.58621e-05 -0.0561637 -4.39581e-11)
(8.96563e-06 -0.0195505 2.50583e-10)
(8.96562e-06 -0.0195505 2.6427e-10)
(8.08015e-06 -0.0195881 1.08371e-10)
(8.08017e-06 -0.0195881 8.55479e-11)
(7.31594e-05 -0.0560627 -2.45067e-10)
(7.31572e-05 -0.0560627 -5.35742e-10)
(6.58607e-05 -0.0561637 -3.24629e-10)
(6.58587e-05 -0.0561637 -5.28295e-10)
(8.96597e-06 -0.0195505 6.68858e-10)
(8.97221e-06 -0.0195505 1.52661e-09)
(8.08047e-06 -0.0195881 4.70447e-10)
(8.08613e-06 -0.0195881 1.29216e-09)
(7.31699e-05 -0.0560627 1.1518e-08)
(7.32476e-05 -0.0560627 0.928989)
(6.58702e-05 -0.0561637 1.03856e-08)
(6.59406e-05 -0.0561637 0.929245)
(9.01999e-06 -0.0195505 -7.21114e-09)
(9.22729e-06 -0.0195505 0.916736)
(8.12926e-06 -0.0195881 -6.42453e-09)
(8.31625e-06 -0.0195881 0.916986)
(8.94547e-05 -0.0558304 -0.927971)
(8.93606e-05 -0.0558304 -1.35949e-08)
(8.10762e-05 -0.0559518 -0.928245)
(8.09906e-05 -0.0559518 -1.24646e-08)
(1.12377e-05 -0.019464 -0.915743)
(1.09857e-05 -0.019464 9.20805e-09)
(1.01994e-05 -0.0195092 -0.916011)
(9.97039e-06 -0.0195092 8.49444e-09)
(8.93453e-05 -0.0558304 1.16566e-09)
(8.93479e-05 -0.0558304 7.30173e-10)
(8.09766e-05 -0.0559518 1.02657e-09)
(8.0979e-05 -0.0559518 7.20092e-10)
(1.09277e-05 -0.019464 -1.2601e-09)
(1.09201e-05 -0.019464 -2.74296e-10)
(9.91762e-06 -0.0195092 -1.12412e-09)
(9.91066e-06 -0.0195092 -1.5181e-10)
(8.93496e-05 -0.0558304 2.171e-10)
(8.93496e-05 -0.0558304 -2.52342e-10)
(8.09806e-05 -0.0559518 3.45e-10)
(8.09805e-05 -0.0559518 -3.5923e-11)
(1.09196e-05 -0.019464 9.39907e-11)
(1.09195e-05 -0.019464 -4.68201e-11)
(9.9102e-06 -0.0195092 2.41321e-10)
(9.91018e-06 -0.0195092 2.10273e-10)
(8.93477e-05 -0.0558304 -7.52903e-10)
(8.9345e-05 -0.0558304 -1.14183e-09)
(8.09788e-05 -0.0559518 -4.2183e-10)
(8.09762e-05 -0.0559518 -7.54596e-10)
(1.092e-05 -0.019464 3.54344e-10)
(1.09276e-05 -0.019464 1.35201e-09)
(9.91053e-06 -0.0195092 6.26229e-10)
(9.91743e-06 -0.0195092 1.51518e-09)
(8.93603e-05 -0.0558304 1.3572e-08)
(8.94544e-05 -0.0558304 0.927971)
(8.09901e-05 -0.0559518 1.25462e-08)
(8.10758e-05 -0.0559518 0.928245)
(1.09856e-05 -0.019464 -9.25898e-09)
(1.12376e-05 -0.019464 0.915743)
(9.97017e-06 -0.0195092 -8.07599e-09)
(1.0199e-05 -0.0195092 0.916011)
(0.000108047 -0.0555537 -0.926932)
(0.000107934 -0.0555537 -1.65564e-08)
(9.84352e-05 -0.0556979 -0.927212)
(9.83321e-05 -0.0556979 -1.48132e-08)
(1.35315e-05 -0.019361 -0.91473)
(1.32285e-05 -0.0193611 1.1229e-08)
(1.23464e-05 -0.0194147 -0.915003)
(1.20698e-05 -0.0194147 1.02954e-08)
(0.000107916 -0.0555537 1.36405e-09)
(0.000107919 -0.0555537 9.23737e-10)
(9.83152e-05 -0.0556979 1.23389e-09)
(9.83181e-05 -0.0556979 7.73221e-10)
(1.31588e-05 -0.0193611 -1.39561e-09)
(1.31495e-05 -0.0193611 -1.82339e-10)
(1.20061e-05 -0.0194147 -1.3183e-09)
(1.19977e-05 -0.0194147 -2.58837e-10)
(0.000107921 -0.0555537 4.13572e-10)
(0.000107921 -0.0555537 -7.42997e-11)
(9.83199e-05 -0.0556979 2.30904e-10)
(9.83199e-05 -0.0556979 -2.90405e-10)
(1.31489e-05 -0.0193611 2.4739e-10)
(1.3149e-05 -0.0193611 4.51123e-11)
(1.19972e-05 -0.0194147 8.14203e-11)
(1.19972e-05 -0.0194147 -8.18534e-11)
(0.000107919 -0.0555537 -6.41416e-10)
(0.000107916 -0.0555537 -1.1085e-09)
(9.8318e-05 -0.0556979 -7.84174e-10)
(9.83151e-05 -0.0556979 -1.17566e-09)
(1.31496e-05 -0.0193611 4.71587e-10)
(1.31588e-05 -0.0193611 1.65633e-09)
(1.19977e-05 -0.0194147 3.52891e-10)
(1.2006e-05 -0.0194147 1.4252e-09)
(0.000107934 -0.0555537 1.6558e-08)
(0.000108047 -0.0555537 0.926932)
(9.83319e-05 -0.0556979 1.49422e-08)
(9.8435e-05 -0.0556979 0.927212)
(1.32286e-05 -0.0193611 -1.10167e-08)
(1.35314e-05 -0.019361 0.91473)
(1.20698e-05 -0.0194147 -1.01623e-08)
(1.23463e-05 -0.0194147 0.915003)
(0.000129342 -0.0552272 -0.925841)
(0.000129208 -0.0552272 -1.96417e-08)
(0.000118341 -0.055397 -0.926144)
(0.000118218 -0.0553969 -1.7951e-08)
(1.61447e-05 -0.0192397 -0.913666)
(1.57839e-05 -0.0192397 1.34014e-08)
(1.47954e-05 -0.0193028 -0.913962)
(1.44645e-05 -0.0193028 1.24036e-08)
(0.000129186 -0.0552272 1.80167e-09)
(0.00012919 -0.0552272 1.29513e-09)
(0.000118198 -0.0553969 1.58208e-09)
(0.000118201 -0.055397 1.17934e-09)
(1.57008e-05 -0.0192397 -1.49165e-09)
(1.56898e-05 -0.0192397 -3.65057e-11)
(1.43883e-05 -0.0193028 -1.37009e-09)
(1.43782e-05 -0.0193028 -5.00985e-11)
(0.000129192 -0.0552272 6.62159e-10)
(0.000129192 -0.0552272 2.95185e-11)
(0.000118203 -0.055397 6.52301e-10)
(0.000118203 -0.055397 9.71902e-11)
(1.56891e-05 -0.0192397 4.588e-10)
(1.56891e-05 -0.0192397 1.49221e-10)
(1.43776e-05 -0.0193028 3.83767e-10)
(1.43776e-05 -0.0193028 1.49848e-10)
(0.00012919 -0.0552272 -7.38516e-10)
(0.000129186 -0.0552272 -1.40143e-09)
(0.000118201 -0.055397 -5.202e-10)
(0.000118198 -0.055397 -1.04609e-09)
(1.56899e-05 -0.0192397 5.72079e-10)
(1.57009e-05 -0.0192397 1.91493e-09)
(1.43783e-05 -0.0193028 6.24535e-10)
(1.43884e-05 -0.0193028 1.91762e-09)
(0.000129208 -0.0552272 1.95565e-08)
(0.000129342 -0.0552272 0.925841)
(0.000118218 -0.0553969 1.82006e-08)
(0.000118341 -0.055397 0.926144)
(1.5784e-05 -0.0192397 -1.31862e-08)
(1.61446e-05 -0.0192397 0.913666)
(1.44647e-05 -0.0193028 -1.18445e-08)
(1.47954e-05 -0.0193028 0.913962)
(0.000153637 -0.0548452 -0.924745)
(0.00015348 -0.0548452 -2.23616e-08)
(0.000141098 -0.0550435 -0.925027)
(0.000140953 -0.0550435 -2.07365e-08)
(1.91097e-05 -0.0190979 -0.912597)
(1.86839e-05 -0.0190979 1.61151e-08)
(1.75803e-05 -0.0191715 -0.912873)
(1.71881e-05 -0.0191715 1.48743e-08)
(0.000153454 -0.0548452 2.34491e-09)
(0.000153459 -0.0548452 1.45425e-09)
(0.000140929 -0.0550435 2.11985e-09)
(0.000140933 -0.0550435 1.41425e-09)
(1.85858e-05 -0.0190979 -1.73499e-09)
(1.85729e-05 -0.0190979 -2.47349e-10)
(1.70977e-05 -0.0191715 -1.54573e-09)
(1.70858e-05 -0.0191715 -1.27988e-10)
(0.000153462 -0.0548452 4.26699e-10)
(0.000153462 -0.0548452 -5.36144e-10)
(0.000140936 -0.0550435 5.4112e-10)
(0.000140936 -0.0550435 -3.2004e-10)
(1.8572e-05 -0.0190979 1.68837e-10)
(1.8572e-05 -0.0190979 -2.77223e-10)
(1.7085e-05 -0.0191715 2.5917e-10)
(1.7085e-05 -0.0191715 -1.27736e-10)
(0.000153459 -0.0548452 -1.57389e-09)
(0.000153454 -0.0548452 -2.41544e-09)
(0.000140933 -0.0550435 -1.22749e-09)
(0.000140929 -0.0550435 -1.96446e-09)
(1.85729e-05 -0.0190979 1.79994e-10)
(1.85858e-05 -0.0190979 1.71659e-09)
(1.70858e-05 -0.0191715 3.35136e-10)
(1.70978e-05 -0.0191715 1.79145e-09)
(0.00015348 -0.0548452 2.23527e-08)
(0.000153637 -0.0548452 0.924745)
(0.000140953 -0.0550435 2.08426e-08)
(0.000141098 -0.0550435 0.925027)
(1.86839e-05 -0.0190979 -1.61373e-08)
(1.91098e-05 -0.0190979 0.912597)
(1.71882e-05 -0.0191715 -1.45526e-08)
(1.75803e-05 -0.0191715 0.912873)
(0.000181218 -0.0544015 -0.92358)
(0.000181035 -0.0544014 -2.62894e-08)
(0.000167005 -0.0546314 -0.923891)
(0.000166836 -0.0546314 -2.42236e-08)
(2.24552e-05 -0.0189333 -0.911461)
(2.19559e-05 -0.0189333 1.88859e-08)
(2.07326e-05 -0.0190185 -0.911764)
(2.02711e-05 -0.0190186 1.74842e-08)
(0.000181005 -0.0544015 2.55031e-09)
(0.00018101 -0.0544015 1.5386e-09)
(0.000166808 -0.0546314 2.4408e-09)
(0.000166813 -0.0546314 1.48362e-09)
(2.18409e-05 -0.0189333 -2.2029e-09)
(2.18257e-05 -0.0189333 -4.23974e-10)
(2.01649e-05 -0.0190186 -1.94667e-09)
(2.01508e-05 -0.0190186 -3.29267e-10)
(0.000181013 -0.0544015 5.10395e-10)
(0.000181013 -0.0544015 -3.91483e-10)
(0.000166816 -0.0546314 4.20803e-10)
(0.000166816 -0.0546314 -5.57281e-10)
(2.18247e-05 -0.0189333 2.35077e-10)
(2.18247e-05 -0.0189333 -6.39079e-11)
(2.01499e-05 -0.0190186 1.73944e-10)
(2.01499e-05 -0.0190186 -1.91067e-10)
(0.00018101 -0.0544015 -1.4356e-09)
(0.000181005 -0.0544015 -2.41888e-09)
(0.000166812 -0.0546314 -1.58203e-09)
(0.000166808 -0.0546314 -2.48283e-09)
(2.18256e-05 -0.0189333 5.80307e-10)
(2.18408e-05 -0.0189333 2.2962e-09)
(2.01507e-05 -0.0190186 3.6835e-10)
(2.01648e-05 -0.0190186 1.96605e-09)
(0.000181035 -0.0544015 2.64181e-08)
(0.000181218 -0.0544015 0.92358)
(0.000166835 -0.0546314 2.4226e-08)
(0.000167005 -0.0546314 0.923891)
(2.19558e-05 -0.0189333 -1.88508e-08)
(2.24552e-05 -0.0189333 0.911461)
(2.02711e-05 -0.0190186 -1.74767e-08)
(2.07325e-05 -0.0190185 0.911764)
(0.000212325 -0.0538896 -0.922394)
(0.000212112 -0.0538895 -3.03698e-08)
(0.000196319 -0.0541544 -0.922696)
(0.000196122 -0.0541544 -2.84148e-08)
(2.62035e-05 -0.0187437 -0.910305)
(2.56221e-05 -0.0187437 2.22352e-08)
(2.42764e-05 -0.0188417 -0.910599)
(2.37372e-05 -0.0188418 2.03569e-08)
(0.000212078 -0.0538896 3.01157e-09)
(0.000212083 -0.0538896 1.8092e-09)
(0.00019609 -0.0541544 2.69655e-09)
(0.000196095 -0.0541544 1.66974e-09)
(2.54882e-05 -0.0187437 -2.47268e-09)
(2.54705e-05 -0.0187437 -4.70939e-10)
(2.3613e-05 -0.0188418 -2.36236e-09)
(2.35965e-05 -0.0188418 -4.0427e-10)
(0.000212087 -0.0538896 6.16068e-10)
(0.000212087 -0.0538896 -4.29264e-10)
(0.000196099 -0.0541544 6.25478e-10)
(0.000196099 -0.0541544 -3.07335e-10)
(2.54693e-05 -0.0187437 2.55125e-10)
(2.54693e-05 -0.0187437 -1.39218e-10)
(2.35954e-05 -0.0188418 3.23185e-10)
(2.35954e-05 -0.0188418 1.77269e-11)
(0.000212084 -0.0538896 -1.67456e-09)
(0.000212078 -0.0538896 -2.89338e-09)
(0.000196095 -0.0541544 -1.39558e-09)
(0.00019609 -0.0541544 -2.5144e-09)
(2.54705e-05 -0.0187437 5.55488e-10)
(2.54882e-05 -0.0187437 2.48819e-09)
(2.35965e-05 -0.0188418 6.7812e-10)
(2.3613e-05 -0.0188418 2.40143e-09)
(0.000212112 -0.0538896 3.0547e-08)
(0.000212325 -0.0538896 0.922394)
(0.000196122 -0.0541544 2.84254e-08)
(0.000196319 -0.0541544 0.922696)
(2.56221e-05 -0.0187437 -2.22063e-08)
(2.62035e-05 -0.0187437 0.910305)
(2.37372e-05 -0.0188418 -2.06006e-08)
(2.42764e-05 -0.0188417 0.910599)
(0.00024717 -0.0533027 -0.921155)
(0.000246925 -0.0533027 -3.47817e-08)
(0.000229274 -0.0536059 -0.921481)
(0.000229046 -0.0536058 -3.25302e-08)
(3.03715e-05 -0.0185266 -0.909097)
(2.96991e-05 -0.0185266 2.6094e-08)
(2.8233e-05 -0.0186387 -0.909414)
(2.76073e-05 -0.0186387 2.39347e-08)
(0.000246885 -0.0533027 3.8384e-09)
(0.000246892 -0.0533027 2.34992e-09)
(0.000229009 -0.0536058 3.42135e-09)
(0.000229015 -0.0536059 2.08585e-09)
(2.95442e-05 -0.0185266 -2.49222e-09)
(2.95236e-05 -0.0185266 -3.28935e-10)
(2.74632e-05 -0.0186387 -2.50813e-09)
(2.7444e-05 -0.0186387 -4.12251e-10)
(0.000246896 -0.0533027 7.60597e-10)
(0.000246896 -0.0533027 -6.74431e-10)
(0.000229019 -0.0536059 6.59259e-10)
(0.000229019 -0.0536059 -6.27852e-10)
(2.95222e-05 -0.0185266 2.94322e-10)
(2.95222e-05 -0.0185266 -3.69817e-10)
(2.74427e-05 -0.0186387 2.28187e-10)
(2.74427e-05 -0.0186387 -3.05454e-10)
(0.000246892 -0.0533027 -2.31214e-09)
(0.000246885 -0.0533027 -3.82414e-09)
(0.000229015 -0.0536059 -2.05318e-09)
(0.000229009 -0.0536058 -3.39142e-09)
(2.95236e-05 -0.0185266 2.72774e-10)
(2.95442e-05 -0.0185266 2.46288e-09)
(2.7444e-05 -0.0186387 3.66716e-10)
(2.74632e-05 -0.0186387 2.39604e-09)
(0.000246925 -0.0533027 3.48416e-08)
(0.000247169 -0.0533028 0.921155)
(0.000229046 -0.0536058 3.2557e-08)
(0.000229274 -0.0536059 0.921481)
(2.96991e-05 -0.0185266 -2.59608e-08)
(3.03715e-05 -0.0185266 0.909097)
(2.76073e-05 -0.0186387 -2.41491e-08)
(2.82331e-05 -0.0186387 0.909414)
(0.000285903 -0.0526342 -0.919893)
(0.000285623 -0.0526341 -3.99932e-08)
(0.000266046 -0.052979 -0.920227)
(0.000265785 -0.052979 -3.72211e-08)
(3.49671e-05 -0.0182797 -0.907865)
(3.41944e-05 -0.0182797 2.98101e-08)
(3.2614e-05 -0.018407 -0.908192)
(3.18926e-05 -0.018407 2.78361e-08)
(0.000285577 -0.0526341 4.28967e-09)
(0.000285585 -0.0526342 2.55746e-09)
(0.000265742 -0.052979 4.14939e-09)
(0.000265749 -0.052979 2.51581e-09)
(3.40165e-05 -0.0182797 -2.96742e-09)
(3.39928e-05 -0.0182797 -4.37608e-10)
(3.17265e-05 -0.018407 -2.67754e-09)
(3.17044e-05 -0.018407 -3.3978e-10)
(0.000285589 -0.0526342 8.78377e-10)
(0.000285589 -0.0526342 -5.19423e-10)
(0.000265753 -0.052979 8.18489e-10)
(0.000265753 -0.052979 -6.72884e-10)
(3.39912e-05 -0.0182797 4.5754e-10)
(3.39912e-05 -0.0182797 -7.07463e-11)
(3.17029e-05 -0.018407 3.60199e-10)
(3.17029e-05 -0.018407 -2.85802e-10)
(0.000285585 -0.0526342 -2.19391e-09)
(0.000285577 -0.0526341 -3.91766e-09)
(0.000265749 -0.052979 -2.35184e-09)
(0.000265742 -0.052979 -3.9554e-09)
(3.39928e-05 -0.0182797 7.939e-10)
(3.40165e-05 -0.0182797 3.26902e-09)
(3.17044e-05 -0.018407 4.46706e-10)
(3.17265e-05 -0.018407 2.76628e-09)
(0.000285623 -0.0526341 4.02696e-08)
(0.000285902 -0.0526342 0.919893)
(0.000265784 -0.052979 3.74046e-08)
(0.000266046 -0.0529791 0.920227)
(3.41945e-05 -0.0182797 -2.95392e-08)
(3.49671e-05 -0.0182797 0.907865)
(3.18926e-05 -0.018407 -2.77816e-08)
(3.2614e-05 -0.018407 0.908192)
(0.000328597 -0.0518774 -0.91857)
(0.00032828 -0.0518773 -4.57133e-08)
(0.000306757 -0.0522671 -0.918914)
(0.000306459 -0.0522671 -4.28681e-08)
(3.99864e-05 -0.0180006 -0.906575)
(3.91045e-05 -0.0180007 3.37321e-08)
(3.74221e-05 -0.0181443 -0.906911)
(3.6596e-05 -0.0181443 3.15475e-08)
(0.000328228 -0.0518773 4.49292e-09)
(0.000328236 -0.0518774 2.51277e-09)
(0.000306411 -0.0522671 4.2858e-09)
(0.000306418 -0.0522671 2.50295e-09)
(3.89015e-05 -0.0180007 -3.73965e-09)
(3.88744e-05 -0.0180007 -8.1568e-10)
(3.64057e-05 -0.0181443 -3.41541e-09)
(3.63804e-05 -0.0181443 -6.10046e-10)
(0.000328242 -0.0518774 7.51679e-10)
(0.000328242 -0.0518774 -6.22197e-10)
(0.000306423 -0.0522671 8.74082e-10)
(0.000306423 -0.0522671 -4.37668e-10)
(3.88725e-05 -0.0180007 3.62436e-10)
(3.88725e-05 -0.0180007 -3.49307e-11)
(3.63786e-05 -0.0181443 4.73398e-10)
(3.63786e-05 -0.0181443 3.54775e-11)
(0.000328236 -0.0518774 -2.34069e-09)
(0.000328228 -0.0518774 -4.21405e-09)
(0.000306418 -0.0522671 -2.08801e-09)
(0.000306411 -0.0522671 -3.92005e-09)
(3.88744e-05 -0.0180007 1.11643e-09)
(3.89015e-05 -0.0180007 4.01551e-09)
(3.63804e-05 -0.0181443 1.04387e-09)
(3.64058e-05 -0.0181443 3.65718e-09)
(0.00032828 -0.0518774 4.6065e-08)
(0.000328597 -0.0518774 0.91857)
(0.000306459 -0.0522671 4.30856e-08)
(0.000306757 -0.0522672 0.918914)
(3.91046e-05 -0.0180007 -3.35118e-08)
(3.99864e-05 -0.0180006 0.906575)
(3.65961e-05 -0.0181443 -3.16064e-08)
(3.74222e-05 -0.0181443 0.906911)
(0.000375261 -0.0510259 -0.917218)
(0.000374903 -0.0510258 -5.1409e-08)
(0.000351441 -0.0514638 -0.917579)
(0.000351103 -0.0514637 -4.86116e-08)
(4.54168e-05 -0.0176872 -0.905257)
(4.4417e-05 -0.0176873 3.85111e-08)
(4.26493e-05 -0.0178483 -0.90561)
(4.17095e-05 -0.0178484 3.60414e-08)
(0.000374844 -0.0510258 5.38601e-09)
(0.000374854 -0.0510258 3.09731e-09)
(0.000351048 -0.0514637 4.84011e-09)
(0.000351057 -0.0514637 2.76181e-09)
(4.41869e-05 -0.0176873 -3.90978e-09)
(4.41561e-05 -0.0176873 -7.08403e-10)
(4.14931e-05 -0.0178484 -3.81745e-09)
(4.14642e-05 -0.0178484 -7.46877e-10)
(0.00037486 -0.0510259 9.25379e-10)
(0.00037486 -0.0510259 -9.42014e-10)
(0.000351063 -0.0514638 8.11453e-10)
(0.000351062 -0.0514638 -8.05209e-10)
(4.41539e-05 -0.0176873 4.00115e-10)
(4.41539e-05 -0.0176873 -3.35772e-10)
(4.14621e-05 -0.0178484 3.65534e-10)
(4.14621e-05 -0.0178484 -1.92263e-10)
(0.000374853 -0.0510259 -3.23109e-09)
(0.000374844 -0.0510258 -5.54746e-09)
(0.000351057 -0.0514638 -2.74283e-09)
(0.000351048 -0.0514637 -4.74768e-09)
(4.41561e-05 -0.0176873 7.339e-10)
(4.41868e-05 -0.0176873 3.93671e-09)
(4.14642e-05 -0.0178484 9.96875e-10)
(4.14931e-05 -0.0178484 4.11637e-09)
(0.000374902 -0.0510258 5.14123e-08)
(0.000375261 -0.0510259 0.917218)
(0.000351103 -0.0514637 4.87942e-08)
(0.00035144 -0.0514638 0.917579)
(4.4417e-05 -0.0176873 -3.84857e-08)
(4.54167e-05 -0.0176872 0.905257)
(4.17095e-05 -0.0178484 -3.57578e-08)
(4.26492e-05 -0.0178483 0.90561)
(0.000425786 -0.050074 -0.915815)
(0.000425385 -0.0500739 -5.75938e-08)
(0.000400054 -0.0505627 -0.916178)
(0.000399675 -0.0505627 -5.44414e-08)
(5.12293e-05 -0.0173376 -0.903889)
(5.01035e-05 -0.0173376 4.35901e-08)
(4.82744e-05 -0.017517 -0.904243)
(4.72125e-05 -0.0175171 4.10504e-08)
(0.00042532 -0.0500739 6.22255e-09)
(0.00042533 -0.0500739 3.52253e-09)
(0.000399613 -0.0505627 5.86278e-09)
(0.000399623 -0.0505627 3.39353e-09)
(4.98444e-05 -0.0173377 -4.24652e-09)
(4.98097e-05 -0.0173377 -7.65578e-10)
(4.69681e-05 -0.0175171 -4.01614e-09)
(4.69355e-05 -0.0175171 -6.68113e-10)
(0.000425337 -0.0500739 1.0857e-09)
(0.000425337 -0.0500739 -9.0497e-10)
(0.000399629 -0.0505627 1.03328e-09)
(0.000399629 -0.0505627 -1.00925e-09)
(4.98072e-05 -0.0173377 5.0488e-10)
(4.98072e-05 -0.0173377 -2.43485e-10)
(4.69332e-05 -0.0175171 4.49176e-10)
(4.69332e-05 -0.0175171 -3.56774e-10)
(0.00042533 -0.0500739 -3.44844e-09)
(0.00042532 -0.0500739 -6.21401e-09)
(0.000399623 -0.0505627 -3.50206e-09)
(0.000399613 -0.0505627 -6.06861e-09)
(4.98098e-05 -0.0173377 9.2419e-10)
(4.98444e-05 -0.0173377 4.31178e-09)
(4.69355e-05 -0.0175171 7.63486e-10)
(4.69681e-05 -0.0175171 4.03929e-09)
(0.000425385 -0.0500739 5.75957e-08)
(0.000425786 -0.050074 0.915815)
(0.000399675 -0.0505627 5.41945e-08)
(0.000400054 -0.0505628 0.916178)
(5.01036e-05 -0.0173377 -4.3637e-08)
(5.12292e-05 -0.0173376 0.903889)
(4.72125e-05 -0.0175171 -4.12081e-08)
(4.82742e-05 -0.017517 0.904243)
(0.000479974 -0.0490164 -0.914362)
(0.000479528 -0.0490164 -6.41139e-08)
(0.000452443 -0.0495586 -0.914739)