/*--------------------------------*- C++ -*----------------------------------*\
  =========                 |
  \\      /  F ield         | OpenFOAM: The Open Source CFD Toolbox
   \\    /   O peration     | Website:  https://openfoam.org
    \\  /    A nd           | Version:  9
     \\/     M anipulation  |
\*---------------------------------------------------------------------------*/
FoamFile
{
    format      ascii;
    class       volScalarField;
    location    "3.4";
    object      p;
}
// * * * * * * * * * * * * * * * * * * * * * * * * * * * * * * * * * * * * * //

dimensions      [0 2 -2 0 0 0 0];

internalField   nonuniform List<scalar> 
36360
(
20.2214
20.0137
20.2057
20.0242
20.025
20.1631
20.0397
20.1368
20.0863
20.099
20.0917
20.1042
20.1042
20.0946
20.0965
20.0927
20.1005
20.1005
20.1055
20.1055
20.0939
20.0939
20.0929
20.0929
20.099
20.0863
20.1042
20.0917
20.0946
20.1042
20.0927
20.0965
20.0137
20.2213
20.0243
20.2057
20.1631
20.0251
20.1368
20.0397
20.1234
20.0761
20.161
20.0562
19.943
20.2283
19.9839
20.2021
20.1079
20.0998
20.098
20.0985
20.1304
20.0989
20.1178
20.0968
20.0961
20.0961
20.0976
20.0976
20.0935
20.0935
20.094
20.094
20.0998
20.1079
20.0985
20.098
20.0988
20.1303
20.0968
20.1178
20.0761
20.1234
20.0562
20.161
20.2282
19.943
20.2021
19.984
20.0794
20.0906
20.0986
20.086
19.8864
20.2557
19.9112
20.2451
20.1254
20.1066
20.1172
20.1028
20.1521
20.106
20.1419
20.102
20.0965
20.0965
20.0959
20.0959
20.0945
20.0945
20.0937
20.0937
20.1066
20.1254
20.1028
20.1172
20.106
20.152
20.102
20.1419
20.0906
20.0794
20.086
20.0986
20.2557
19.8865
20.2451
19.9113
20.0521
20.0923
20.0642
20.0923
19.8506
20.2659
19.8666
20.2621
20.1374
20.1144
20.1321
20.1105
20.1669
20.1143
20.1603
20.1101
20.0997
20.0997
20.0978
20.0978
20.0979
20.0979
20.096
20.096
20.1144
20.1374
20.1105
20.1321
20.1143
20.1669
20.1101
20.1603
20.0923
20.0521
20.0923
20.0642
20.2659
19.8507
20.2621
19.8667
20.0342
20.0896
20.0422
20.0912
19.8265
20.2692
19.8375
20.2681
20.1445
20.1212
20.1414
20.118
20.1761
20.1218
20.1721
20.1182
20.1042
20.1042
20.1018
20.1018
20.1024
20.1024
20.1001
20.1001
20.1212
20.1445
20.118
20.1414
20.1218
20.1761
20.1182
20.1721
20.0896
20.0342
20.0912
20.0423
20.2692
19.8266
20.2681
19.8375
20.0217
20.0858
20.0274
20.0878
19.8095
20.2697
19.8173
20.2696
20.1485
20.1268
20.1468
20.1242
20.1817
20.128
20.1792
20.1251
20.109
20.109
20.1066
20.1066
20.1071
20.1071
20.1048
20.1048
20.1268
20.1485
20.1242
20.1468
20.128
20.1817
20.1251
20.1792
20.0859
20.0217
20.0878
20.0274
20.2697
19.8095
20.2696
19.8174
20.0125
20.082
20.0168
20.0839
19.7968
20.2691
19.8027
20.2695
20.1505
20.1312
20.1497
20.1291
20.185
20.1327
20.1835
20.1305
20.1133
20.1133
20.1112
20.1112
20.1115
20.1115
20.1094
20.1094
20.1312
20.1505
20.1291
20.1497
20.1327
20.185
20.1305
20.1835
20.082
20.0126
20.0839
20.0168
20.2691
19.7969
20.2695
19.8028
20.0055
20.0784
20.0088
20.0802
19.787
20.2681
19.7917
20.2686
20.1514
20.1343
20.1511
20.1329
20.1871
20.1362
20.1862
20.1346
20.1169
20.1169
20.1152
20.1152
20.1153
20.1153
20.1135
20.1135
20.1343
20.1514
20.1329
20.1511
20.1362
20.187
20.1346
20.1861
20.0784
20.0056
20.0802
20.0088
20.268
19.7871
20.2685
19.7918
20
20.0752
20.0026
20.0768
19.7794
20.2668
19.783
20.2674
20.1517
20.1366
20.1516
20.1356
20.1882
20.1388
20.1877
20.1376
20.1197
20.1197
20.1184
20.1184
20.1182
20.1182
20.1169
20.1169
20.1366
20.1517
20.1356
20.1517
20.1387
20.1882
20.1376
20.1877
20.0752
20
20.0768
20.0026
20.2668
19.7793
20.2675
19.7827
19.9955
20.0723
19.9977
20.0738
19.7736
20.2653
19.7759
20.2662
20.1514
20.138
20.1516
20.1374
20.1886
20.1404
20.1885
20.1397
20.1217
20.1217
20.1208
20.1208
20.1204
20.1204
20.1194
20.1194
20.138
20.1515
20.1373
20.1516
20.1404
20.1886
20.1396
20.1884
20.0724
19.9955
20.0738
19.9976
20.2654
19.7732
20.2659
19.7765
19.9917
20.0696
19.9935
20.0709
19.7697
20.2635
19.7718
20.2643
20.1508
20.1387
20.1511
20.1384
20.1884
20.1412
20.1885
20.1409
20.1229
20.123
20.1224
20.1224
20.1218
20.1218
20.1212
20.1212
20.1387
20.1508
20.1384
20.1512
20.1413
20.1886
20.1409
20.1887
20.0697
19.9916
20.071
19.9935
20.2638
19.7685
20.2646
19.7706
19.9884
20.0672
19.99
20.0684
19.7649
20.262
19.7671
20.2628
20.1499
20.1388
20.1504
20.1388
20.188
20.1416
20.1883
20.1415
20.1236
20.1236
20.1233
20.1233
20.1225
20.1225
20.1222
20.1223
20.1388
20.1499
20.1388
20.1504
20.1416
20.188
20.1416
20.1884
20.0672
19.9883
20.0684
19.9899
20.262
19.7646
20.263
19.7662
19.9853
20.0648
19.9868
20.066
19.7615
20.26
19.7629
20.2611
20.1486
20.1384
20.1493
20.1387
20.1871
20.1413
20.1877
20.1416
20.1235
20.1235
20.1236
20.1236
20.1226
20.1226
20.1227
20.1227
20.1384
20.1486
20.1387
20.1493
20.1413
20.1871
20.1415
20.1876
20.0648
19.9854
20.066
19.9868
20.2601
19.7614
20.261
19.7631
19.9826
20.0625
19.9839
20.0636
19.7588
20.258
19.7603
20.2589
20.1471
20.1375
20.1479
20.138
20.1857
20.1405
20.1864
20.141
20.1229
20.1229
20.1233
20.1233
20.1221
20.1221
20.1224
20.1224
20.1375
20.1471
20.138
20.1479
20.1405
20.1857
20.141
20.1864
20.0624
19.9826
20.0636
19.9839
20.2579
19.7586
20.259
19.76
19.9799
20.06
19.9812
20.0612
19.7575
20.2551
19.758
20.2566
20.1452
20.1361
20.1462
20.1369
20.1837
20.1391
20.1848
20.1398
20.1218
20.1218
20.1224
20.1224
20.121
20.121
20.1216
20.1216
20.1361
20.1453
20.1369
20.1462
20.1391
20.1838
20.1399
20.1848
20.06
19.9799
20.0612
19.9812
20.2553
19.7567
20.2566
19.7577
19.9773
20.0576
19.9786
20.0588
19.7548
20.2525
19.7564
20.2537
20.1431
20.1343
20.1442
20.1353
20.1816
20.1373
20.1827
20.1382
20.1202
20.1202
20.121
20.121
20.1194
20.1194
20.1202
20.1202
20.1344
20.1432
20.1353
20.1443
20.1373
20.1816
20.1383
20.1828
20.0578
19.9773
20.0589
19.9786
20.2524
19.7545
20.2539
19.7556
19.9748
20.0552
19.9761
20.0565
19.7518
20.2497
19.7529
20.2513
20.1409
20.1322
20.1421
20.1333
20.1792
20.1351
20.1805
20.1363
20.1182
20.1182
20.1192
20.1192
20.1173
20.1173
20.1184
20.1184
20.1322
20.1409
20.1333
20.1421
20.1351
20.1791
20.1363
20.1805
20.0553
19.9747
20.0566
19.976
20.2494
19.7523
20.2512
19.753
19.972
20.0528
19.9734
20.054
19.7501
20.2463
19.751
20.248
20.1384
20.1298
20.1397
20.131
20.1762
20.1324
20.1777
20.1338
20.1158
20.1158
20.117
20.117
20.1147
20.1147
20.1161
20.1161
20.1297
20.1383
20.131
20.1396
20.1324
20.1762
20.1338
20.1776
20.0527
19.9724
20.0539
19.9735
20.2463
19.7501
20.2477
19.7515
19.9695
20.05
19.9707
20.0514
19.7487
20.2427
19.7496
20.2444
20.1356
20.1269
20.137
20.1284
20.1728
20.1293
20.1745
20.1309
20.113
20.113
20.1144
20.1144
20.1117
20.1117
20.1133
20.1133
20.1269
20.1356
20.1284
20.137
20.1292
20.1728
20.1309
20.1745
20.0501
19.9696
20.0515
19.9709
20.2425
19.7488
20.2446
19.7492
19.967
20.0474
19.9682
20.0487
19.7469
20.2389
19.7478
20.2408
20.1327
20.1237
20.1342
20.1254
20.1691
20.1257
20.171
20.1276
20.1099
20.1099
20.1115
20.1115
20.1083
20.1083
20.11
20.11
20.1237
20.1327
20.1254
20.1341
20.1257
20.1691
20.1275
20.171
20.0474
19.967
20.0487
19.9684
20.2387
19.7472
20.2407
19.748
19.9644
20.0448
19.9657
20.0461
19.7451
20.2349
19.746
20.237
20.1297
20.1203
20.1312
20.122
20.1652
20.1219
20.1672
20.1239
20.1066
20.1066
20.1083
20.1083
20.1046
20.1046
20.1065
20.1064
20.1203
20.1298
20.122
20.1312
20.1219
20.1653
20.1238
20.1672
20.045
19.9643
20.0462
19.9656
20.235
19.7446
20.2368
19.7462
19.962
20.0424
19.9631
20.0436
19.744
20.2304
19.7446
20.2326
20.1267
20.1167
20.1282
20.1185
20.1609
20.1178
20.1631
20.1199
20.1031
20.1031
20.1048
20.1049
20.1005
20.1005
20.1026
20.1026
20.1168
20.1267
20.1185
20.1283
20.1178
20.1611
20.1199
20.1632
20.0423
19.9619
20.0436
19.9631
20.2308
19.7431
20.2329
19.7438
19.9596
20.0399
19.9609
20.0411
19.7428
20.226
19.7432
20.2283
20.1237
20.1132
20.1252
20.115
20.1566
20.1135
20.1588
20.1157
20.0995
20.0996
20.1013
20.1013
20.0963
20.0963
20.0984
20.0985
20.1132
20.1238
20.115
20.1253
20.1136
20.1568
20.1157
20.159
20.0399
19.9595
20.0412
19.9606
20.2263
19.7419
20.2288
19.7421
19.9576
20.0376
19.9584
20.0388
19.7409
20.2221
19.7419
20.224
20.121
20.1097
20.1223
20.1114
20.1524
20.1092
20.1545
20.1113
20.096
20.096
20.0978
20.0978
20.0919
20.0919
20.0941
20.0941
20.1097
20.121
20.1114
20.1223
20.1092
20.1525
20.1114
20.1546
20.0376
19.9577
20.0386
19.9586
20.2223
19.74
20.2242
19.7412
19.9558
20.0358
19.9566
20.0366
19.7402
20.2176
19.7407
20.2197
20.1185
20.1063
20.1197
20.108
20.148
20.1047
20.1502
20.1069
20.0926
20.0926
20.0943
20.0943
20.0875
20.0876
20.0897
20.0897
20.1063
20.1185
20.108
20.1197
20.1047
20.148
20.107
20.1503
20.0358
19.9556
20.0367
19.9565
20.2176
19.7401
20.22
19.7399
19.9543
20.0341
19.955
20.0349
19.7397
20.2136
19.7396
20.2157
20.1156
20.1032
20.1171
20.1047
20.1437
20.1004
20.1458
20.1025
20.0894
20.0894
20.091
20.091
20.0833
20.0833
20.0854
20.0854
20.1032
20.1155
20.1047
20.1171
20.1004
20.1436
20.1025
20.1458
20.034
19.9545
20.0348
19.955
20.2134
19.74
20.2155
19.7401
19.9537
20.033
19.9539
20.0335
19.7397
20.2098
19.7396
20.2116
20.1128
20.1004
20.1141
20.1017
20.1395
20.0962
20.1415
20.0983
20.0866
20.0866
20.088
20.088
20.0792
20.0792
20.0812
20.0812
20.1003
20.1128
20.1017
20.1141
20.0962
20.1394
20.0982
20.1414
20.0331
19.9536
20.0335
19.954
20.2097
19.7399
20.2115
19.74
19.9534
20.0325
19.9534
20.0327
19.7405
20.2062
19.74
20.2079
20.1108
20.0979
20.1117
20.0991
20.1355
20.0923
20.1375
20.0942
20.0842
20.0842
20.0853
20.0853
20.0755
20.0755
20.0773
20.0773
20.0979
20.1108
20.0991
20.1117
20.0923
20.1355
20.0942
20.1374
20.0326
19.9535
20.0327
19.9534
20.2062
19.7406
20.2079
19.7401
19.9541
20.0327
19.9536
20.0325
19.7423
20.203
19.7413
20.2045
20.1093
20.0961
20.1099
20.0969
20.132
20.0889
20.1337
20.0906
20.0824
20.0824
20.0832
20.0832
20.0722
20.0722
20.0738
20.0738
20.0961
20.1093
20.0969
20.11
20.0889
20.132
20.0906
20.1337
20.0327
19.9541
20.0326
19.9537
20.203
19.7423
20.2046
19.7413
19.9555
20.0336
19.9547
20.033
19.7451
20.2004
19.7436
20.2016
20.1084
20.0948
20.1088
20.0953
20.129
20.086
20.1305
20.0874
20.0812
20.0812
20.0817
20.0817
20.0696
20.0696
20.0708
20.0708
20.0948
20.1084
20.0954
20.1088
20.086
20.129
20.0874
20.1305
20.0336
19.9556
20.0331
19.9547
20.2004
19.7451
20.2016
19.7436
19.958
20.0353
19.9566
20.0343
19.749
20.1984
19.7469
20.1993
20.1083
20.0942
20.1083
20.0944
20.1266
20.0837
20.1277
20.0848
20.0808
20.0808
20.0809
20.0809
20.0677
20.0677
20.0685
20.0685
20.0942
20.1083
20.0944
20.1083
20.0837
20.1266
20.0848
20.1277
20.0353
19.958
20.0344
19.9566
20.1984
19.749
20.1993
19.7469
19.9614
20.0378
19.9596
20.0365
19.7542
20.197
19.7514
20.1976
20.1087
20.0944
20.1084
20.0942
20.1248
20.0823
20.1256
20.0829
20.0812
20.0812
20.0809
20.0809
20.0666
20.0666
20.067
20.067
20.0944
20.1087
20.0942
20.1084
20.0823
20.1248
20.0829
20.1256
20.0378
19.9614
20.0365
19.9596
20.197
19.7542
20.1976
19.7514
19.966
20.0411
19.9636
20.0394
19.7608
20.1964
19.7573
20.1966
20.1099
20.0953
20.1093
20.0947
20.1237
20.0816
20.1242
20.0818
20.0825
20.0825
20.0818
20.0818
20.0666
20.0666
20.0665
20.0665
20.0953
20.1099
20.0947
20.1093
20.0816
20.1237
20.0818
20.1242
20.0411
19.966
20.0394
19.9636
20.1964
19.7608
20.1966
19.7573
19.9719
20.0451
19.9688
20.0431
19.769
20.1964
19.7647
20.1963
20.1117
20.097
20.1107
20.0961
20.1233
20.0819
20.1234
20.0816
20.0849
20.0849
20.0836
20.0836
20.0677
20.0677
20.067
20.067
20.097
20.1117
20.0961
20.1107
20.0819
20.1233
20.0816
20.1234
20.0451
19.9719
20.0431
19.9688
20.1964
19.769
20.1963
19.7647
19.979
20.0498
19.9753
20.0474
19.7791
20.1969
19.7738
20.1966
20.114
20.0996
20.1128
20.0982
20.1235
20.0832
20.1233
20.0824
20.0881
20.0881
20.0864
20.0864
20.07
20.07
20.0687
20.0687
20.0996
20.114
20.0982
20.1128
20.0832
20.1235
20.0824
20.1233
20.0498
19.979
20.0474
19.9753
20.1969
19.7791
20.1966
19.7738
19.9875
20.055
19.9831
20.0524
19.7914
20.1977
19.785
20.1973
20.1167
20.1029
20.1153
20.1011
20.1242
20.0855
20.1238
20.0842
20.0924
20.0924
20.0901
20.0901
20.0734
20.0734
20.0715
20.0715
20.1029
20.1167
20.1011
20.1153
20.0855
20.1242
20.0842
20.1238
20.055
19.9875
20.0524
19.9831
20.1977
19.7914
20.1973
19.785
19.9972
20.0607
19.9922
20.0578
19.8066
20.1981
19.7986
20.198
20.1197
20.1069
20.1182
20.1048
20.1254
20.0889
20.1248
20.0871
20.0976
20.0976
20.0948
20.0948
20.0781
20.0781
20.0756
20.0756
20.1069
20.1197
20.1048
20.1182
20.0889
20.1254
20.0871
20.1248
20.0606
19.9972
20.0578
19.9922
20.1981
19.8066
20.198
19.7986
20.0058
20.0681
20.0021
20.0639
19.8258
20.1969
19.8157
20.1978
20.123
20.1117
20.1213
20.1092
20.1267
20.0934
20.126
20.091
20.1037
20.1037
20.1005
20.1005
20.084
20.084
20.0809
20.0809
20.1117
20.123
20.1092
20.1213
20.0934
20.1267
20.091
20.126
20.0681
20.0058
20.0639
20.0021
20.1969
19.8258
20.1978
19.8157
20.0129
20.0769
20.0075
20.0743
19.8498
20.1918
19.8371
20.1951
20.128
20.1178
20.1253
20.1146
20.1288
20.0992
20.1276
20.0961
20.1108
20.1108
20.1072
20.1072
20.0911
20.0911
20.0874
20.0874
20.1178
20.128
20.1146
20.1253
20.0992
20.1288
20.0961
20.1276
20.0769
20.0129
20.0743
20.0075
20.1918
19.8498
20.1951
19.8371
20.356
19.9678
20.2756
19.9975
20.3225
19.961
20.2576
19.992
20.021
20.0756
20.0488
20.0881
20.041
20.0877
20.0607
20.0949
20.0979
20.0979
20.1017
20.1017
20.0996
20.0996
20.1015
20.1015
20.0756
20.021
20.0881
20.0488
20.0877
20.041
20.0949
20.0607
19.9679
20.3559
19.9975
20.2755
19.9611
20.3224
19.992
20.2576
20.2549
20.047
20.2885
20.0261
20.2289
20.0296
20.2622
20.0107
20.0476
20.0746
20.0377
20.0748
20.0652
20.0876
20.0556
20.0871
20.0897
20.0897
20.0936
20.0936
20.0948
20.0948
20.0973
20.0973
20.0746
20.0476
20.0748
20.0377
20.0876
20.0652
20.0871
20.0556
20.047
20.2548
20.0261
20.2884
20.0296
20.2289
20.0107
20.2621
20.2273
20.053
20.2384
20.0527
20.1965
20.0368
20.2102
20.0356
20.0602
20.0795
20.055
20.0768
20.0794
20.0938
20.073
20.0905
20.0887
20.0887
20.0884
20.0884
20.0944
20.0944
20.094
20.094
20.0795
20.0602
20.0768
20.055
20.0938
20.0794
20.0905
20.073
20.0531
20.2272
20.0527
20.2384
20.0368
20.1964
20.0356
20.2102
20.2128
20.0488
20.219
20.0514
20.1777
20.0334
20.1859
20.0357
20.0654
20.085
20.0635
20.0823
20.0873
20.1002
20.0841
20.0971
20.0917
20.0917
20.0899
20.0899
20.0975
20.0975
20.0957
20.0957
20.085
20.0654
20.0823
20.0635
20.1002
20.0873
20.0971
20.0841
20.0488
20.2128
20.0514
20.219
20.0334
20.1777
20.0357
20.1859
20.2042
20.043
20.208
20.046
20.166
20.0278
20.1712
20.0307
20.0669
20.0893
20.0665
20.0873
20.0908
20.1056
20.0895
20.103
20.096
20.096
20.0939
20.0939
20.102
20.102
20.0997
20.0997
20.0893
20.0669
20.0873
20.0665
20.1056
20.0908
20.103
20.0895
20.0431
20.2042
20.046
20.208
20.0278
20.166
20.0307
20.1712
20.1985
20.0375
20.2011
20.0402
20.1581
20.0223
20.1617
20.025
20.0666
20.0926
20.0669
20.0911
20.0916
20.11
20.0914
20.1079
20.1003
20.1003
20.0982
20.0982
20.1066
20.1066
20.1043
20.1043
20.0926
20.0666
20.0911
20.0669
20.11
20.0916
20.1079
20.0914
20.0375
20.1984
20.0402
20.201
20.0224
20.1581
20.025
20.1617
20.1944
20.0326
20.1963
20.035
20.1526
20.0173
20.1551
20.0197
20.0656
20.0949
20.0662
20.0938
20.0913
20.1134
20.0915
20.1118
20.1041
20.1041
20.1023
20.1023
20.1107
20.1107
20.1087
20.1087
20.0949
20.0656
20.0938
20.0662
20.1134
20.0913
20.1118
20.0916
20.0326
20.1944
20.035
20.1963
20.0173
20.1525
20.0197
20.1551
20.1913
20.0282
20.1928
20.0303
20.1484
20.0127
20.1503
20.0149
20.0643
20.0964
20.065
20.0957
20.0905
20.1158
20.091
20.1147
20.107
20.107
20.1056
20.1057
20.1141
20.1141
20.1125
20.1125
20.0964
20.0643
20.0957
20.065
20.1158
20.0906
20.1147
20.091
20.0282
20.1913
20.0303
20.1927
20.0128
20.1482
20.015
20.1503
20.1888
20.0244
20.19
20.0262
20.1449
20.0088
20.1466
20.0107
20.0628
20.0973
20.0635
20.0969
20.0895
20.1176
20.09
20.1168
20.1092
20.1092
20.1082
20.1082
20.1167
20.1167
20.1155
20.1155
20.0973
20.0628
20.0969
20.0636
20.1176
20.0895
20.1168
20.0901
20.0244
20.1887
20.0262
20.19
20.0089
20.1448
20.0108
20.1465
20.1866
20.0209
20.1877
20.0226
20.142
20.0053
20.1435
20.007
20.0612
20.0977
20.062
20.0975
20.0883
20.1186
20.0889
20.1182
20.1107
20.1107
20.11
20.1101
20.1185
20.1185
20.1177
20.1177
20.0977
20.0612
20.0976
20.062
20.1186
20.0883
20.1182
20.089
20.0209
20.1866
20.0226
20.1876
20.0053
20.142
20.0071
20.1433
20.1847
20.0177
20.1856
20.0193
20.1395
20.0021
20.1407
20.0037
20.0595
20.0976
20.0603
20.0977
20.0869
20.119
20.0876
20.1189
20.1115
20.1115
20.1112
20.1112
20.1196
20.1196
20.1192
20.1192
20.0976
20.0595
20.0977
20.0603
20.119
20.0869
20.1189
20.0876
20.0177
20.1847
20.0193
20.1856
20.0021
20.1395
20.0036
20.1408
20.1829
20.0148
20.1838
20.0162
20.1373
19.9991
20.1384
20.0006
20.0577
20.0971
20.0586
20.0974
20.0854
20.1189
20.0862
20.119
20.1117
20.1117
20.1117
20.1117
20.1201
20.1201
20.1199
20.1199
20.0971
20.0577
20.0974
20.0586
20.1189
20.0854
20.119
20.0862
20.0148
20.1828
20.0162
20.1838
19.9991
20.1373
20.0005
20.1384
20.1811
20.012
20.182
20.0133
20.1353
19.9962
20.1364
19.9976
20.0558
20.0962
20.0567
20.0967
20.0837
20.1183
20.0845
20.1187
20.1114
20.1114
20.1116
20.1116
20.12
20.12
20.1201
20.1201
20.0962
20.0558
20.0967
20.0568
20.1183
20.0837
20.1187
20.0846
20.012
20.181
20.0134
20.1819
19.9963
20.1351
19.9977
20.1362
20.1792
20.0093
20.1801
20.0106
20.1331
19.9936
20.1341
19.9949
20.0538
20.0951
20.0548
20.0957
20.0818
20.1173
20.0828
20.1179
20.1107
20.1107
20.1111
20.1111
20.1193
20.1193
20.1197
20.1197
20.0951
20.0539
20.0957
20.0549
20.1173
20.0819
20.1179
20.0828
20.0093
20.1792
20.0106
20.1801
19.9936
20.1331
19.9949
20.1341
20.1771
20.0067
20.1782
20.0079
20.1309
19.9909
20.132
19.9922
20.0518
20.0936
20.0528
20.0944
20.0798
20.1159
20.0808
20.1167
20.1096
20.1096
20.1102
20.1102
20.1182
20.1182
20.1188
20.1188
20.0936
20.0518
20.0944
20.0529
20.1159
20.0798
20.1167
20.0809
20.0067
20.1772
20.0079
20.1782
19.9909
20.131
19.9922
20.1321
20.175
20.0042
20.1761
20.0054
20.1289
19.9882
20.1299
19.9896
20.0497
20.0919
20.0508
20.0928
20.0776
20.1141
20.0787
20.1151
20.1081
20.1081
20.1089
20.1089
20.1166
20.1166
20.1174
20.1174
20.0919
20.0497
20.0928
20.0508
20.1141
20.0776
20.1151
20.0788
20.0041
20.1751
20.0054
20.1762
19.9882
20.1289
19.9896
20.13
20.1732
20.0015
20.1741
20.0028
20.1271
19.9853
20.1281
19.9867
20.0475
20.09
20.0486
20.091
20.0752
20.1121
20.0764
20.1131
20.1064
20.1063
20.1073
20.1073
20.1147
20.1147
20.1157
20.1157
20.09
20.0476
20.091
20.0487
20.1121
20.0753
20.1132
20.0765
20.0016
20.1731
20.0029
20.1741
19.9855
20.127
19.9868
20.1281
20.1712
19.9989
20.1723
20.0001
20.1248
19.9829
20.1259
19.9841
20.0453
20.088
20.0464
20.089
20.0729
20.1097
20.0741
20.1109
20.1044
20.1044
20.1054
20.1054
20.1125
20.1125
20.1137
20.1137
20.088
20.0454
20.0891
20.0465
20.1097
20.0728
20.1109
20.0741
19.9992
20.1709
20.0004
20.172
19.9828
20.1249
19.9842
20.126
20.1694
19.9964
20.1703
19.9976
20.1227
19.9802
20.1238
19.9814
20.043
20.0858
20.0441
20.0869
20.0703
20.107
20.0716
20.1084
20.1023
20.1023
20.1034
20.1034
20.1101
20.1101
20.1113
20.1113
20.0859
20.0431
20.087
20.0442
20.107
20.0704
20.1084
20.0716
19.9965
20.1691
19.9978
20.1701
19.9804
20.1225
19.9816
20.1238
20.1668
19.9944
20.1681
19.9953
20.1201
19.978
20.1214
19.9791
20.041
20.0837
20.042
20.0848
20.0678
20.1046
20.0691
20.1057
20.1001
20.1001
20.1012
20.1012
20.1075
20.1075
20.1088
20.1088
20.0837
20.041
20.0848
20.0421
20.1046
20.0678
20.1057
20.0691
19.9944
20.1669
19.9955
20.168
19.9779
20.1202
19.9791
20.1214
20.1652
19.9921
20.166
19.9932
20.1181
19.9755
20.1191
19.9767
20.0389
20.0816
20.0399
20.0827
20.0652
20.1022
20.0665
20.1034
20.0978
20.0978
20.099
20.099
20.1047
20.1047
20.1061
20.1061
20.0816
20.0389
20.0827
20.0399
20.1023
20.0654
20.1035
20.0666
19.9921
20.1653
19.9932
20.1661
19.9758
20.1178
19.9769
20.1189
20.1629
19.9906
20.164
19.9913
20.1155
19.9737
20.1168
19.9746
20.0372
20.0797
20.038
20.0806
20.0629
20.0997
20.0641
20.101
20.0957
20.0957
20.0967
20.0967
20.102
20.102
20.1034
20.1034
20.0797
20.0372
20.0806
20.038
20.0997
20.0628
20.101
20.0641
19.9905
20.1632
19.9912
20.1642
19.9735
20.1158
19.9745
20.1168
20.1617
19.9889
20.1622
19.9898
20.1139
19.9717
20.1147
19.9726
20.0357
20.078
20.0364
20.0788
20.0603
20.0972
20.0616
20.0984
20.0937
20.0937
20.0947
20.0947
20.0993
20.0993
20.1006
20.1006
20.0779
20.0356
20.0788
20.0364
20.0972
20.0604
20.0984
20.0616
19.9888
20.1618
19.9896
20.1625
19.9718
20.1137
19.9726
20.1148
20.16
19.9881
20.1609
19.9884
20.112
19.9703
20.113
19.9709
20.0346
20.0766
20.0351
20.0772
20.058
20.0949
20.0592
20.096
20.092
20.092
20.0928
20.0928
20.0968
20.0968
20.098
20.098
20.0765
20.0346
20.0772
20.035
20.0948
20.0579
20.096
20.0592
19.9881
20.1602
19.9884
20.1609
19.97
20.1125
19.9708
20.113
20.1596
19.9873
20.1597
19.9877
20.1109
19.9691
20.1114
19.9697
20.034
20.0755
20.0342
20.076
20.0554
20.0927
20.0567
20.0938
20.0905
20.0905
20.0912
20.0912
20.0945
20.0945
20.0956
20.0956
20.0754
20.034
20.0759
20.0341
20.0927
20.0553
20.0937
20.0566
19.9873
20.1597
19.9876
20.1599
19.9691
20.111
19.9694
20.1117
20.1589
19.9873
20.1593
19.9872
20.11
19.9685
20.1105
19.9687
20.0338
20.0747
20.0341
20.0751
20.055
20.091
20.0546
20.0918
20.0894
20.0894
20.0899
20.0899
20.0925
20.0925
20.0934
20.0934
20.0747
20.0338
20.0751
20.0341
20.091
20.0549
20.0918
20.0546
19.9874
20.1589
19.9872
20.1593
19.9684
20.1103
19.9686
20.1106
20.1593
19.9878
20.159
19.9874
20.1098
19.9685
20.1098
19.9684
20.034
20.0745
20.0338
20.0745
20.0555
20.0898
20.0553
20.0904
20.0888
20.0888
20.0891
20.0891
20.0908
20.0908
20.0916
20.0916
20.0745
20.034
20.0745
20.0338
20.0898
20.0555
20.0903
20.0553
19.9878
20.1592
19.9875
20.159
19.9687
20.1096
19.9684
20.1099
20.1598
19.9892
20.1595
19.9882
20.1098
19.9695
20.1098
19.9689
20.035
20.0748
20.0344
20.0746
20.056
20.089
20.0557
20.0893
20.0887
20.0887
20.0887
20.0887
20.0897
20.0897
20.0902
20.0902
20.0748
20.035
20.0746
20.0344
20.089
20.056
20.0893
20.0557
19.9892
20.1598
19.9883
20.1594
19.9695
20.1098
19.9689
20.1096
20.1611
19.9914
20.1604
19.9902
20.1105
19.971
20.1101
19.9701
20.0367
20.0758
20.0358
20.0752
20.057
20.0888
20.0565
20.0889
20.0893
20.0893
20.0889
20.0889
20.0893
20.0893
20.0894
20.0894
20.0758
20.0367
20.0752
20.0358
20.0889
20.057
20.0889
20.0565
19.9914
20.1611
19.9902
20.1604
19.971
20.1105
19.9701
20.1101
20.163
19.9945
20.162
19.9928
20.112
19.9731
20.1112
19.972
20.0391
20.0774
20.0378
20.0765
20.0585
20.0893
20.0577
20.089
20.0905
20.0905
20.0898
20.0898
20.0895
20.0895
20.0893
20.0893
20.0774
20.0391
20.0765
20.0378
20.0893
20.0586
20.089
20.0577
19.9945
20.163
19.9928
20.162
19.9731
20.112
19.972
20.1112
20.1655
19.9992
20.1642
19.9967
20.1143
19.9756
20.1131
19.9743
20.0422
20.0796
20.0406
20.0784
20.0607
20.0904
20.0596
20.0898
20.0923
20.0923
20.0913
20.0913
20.0904
20.0904
20.0899
20.0899
20.0796
20.0422
20.0784
20.0406
20.0905
20.0607
20.0898
20.0596
19.9992
20.1655
19.9967
20.1642
19.9756
20.1143
19.9743
20.1131
20.1686
20.0022
20.167
20.0005
20.1173
19.9805
20.1157
19.9779
20.0458
20.0825
20.0439
20.081
20.0636
20.0923
20.0621
20.0913
20.0949
20.0949
20.0935
20.0935
20.0921
20.0921
20.0912
20.0912
20.0825
20.0458
20.081
20.0439
20.0923
20.0636
20.0913
20.0621
20.0022
20.1686
20.0005
20.167
19.9805
20.1173
19.978
20.1157
20.1722
20.0065
20.1703
20.0042
20.1211
19.9856
20.1191
19.983
20.0501
20.0861
20.0479
20.0842
20.067
20.0947
20.0652
20.0934
20.0981
20.0981
20.0964
20.0964
20.0946
20.0946
20.0933
20.0933
20.0861
20.0501
20.0842
20.0479
20.0947
20.067
20.0934
20.0652
20.0065
20.1722
20.0042
20.1703
19.9856
20.1211
19.983
20.1191
20.1761
20.0116
20.1741
20.009
20.1256
19.9913
20.1233
19.9884
20.0548
20.0901
20.0524
20.088
20.0711
20.0979
20.069
20.0962
20.1019
20.1019
20.0999
20.0999
20.0979
20.0979
20.0962
20.0962
20.0901
20.0548
20.088
20.0524
20.0979
20.0711
20.0962
20.069
20.0116
20.1761
20.009
20.1741
19.9913
20.1256
19.9884
20.1233
20.1802
20.0174
20.1782
20.0144
20.1308
19.9976
20.1282
19.9944
20.06
20.0946
20.0574
20.0923
20.0755
20.1016
20.0732
20.0997
20.1063
20.1063
20.104
20.104
20.1019
20.1019
20.0998
20.0998
20.0946
20.0601
20.0923
20.0574
20.1016
20.0755
20.0997
20.0732
20.0174
20.1801
20.0144
20.1782
19.9976
20.1307
19.9944
20.1282
20.1836
20.0238
20.182
20.0204
20.1361
20.0045
20.1335
20.001
20.0657
20.0995
20.0628
20.097
20.0804
20.1058
20.0779
20.1037
20.1111
20.1111
20.1086
20.1086
20.1065
20.1065
20.1041
20.1041
20.0995
20.0657
20.097
20.0628
20.1058
20.0804
20.1037
20.0779
20.0238
20.1836
20.0204
20.182
20.0045
20.1361
20.001
20.1335
20.1853
20.0315
20.1848
20.0274
20.141
20.0125
20.1387
20.0083
20.0717
20.1045
20.0687
20.102
20.0855
20.1105
20.0829
20.1081
20.1164
20.1164
20.1137
20.1137
20.1118
20.1118
20.1091
20.1091
20.1045
20.0717
20.102
20.0687
20.1105
20.0855
20.1081
20.0829
20.0315
20.1852
20.0274
20.1848
20.0125
20.1409
20.0083
20.1387
20.1787
20.0456
20.1839
20.037
20.1406
20.0248
20.1422
20.0175
20.0781
20.1098
20.0748
20.1071
20.0908
20.1155
20.0881
20.1129
20.1222
20.1222
20.1192
20.1192
20.1178
20.1178
20.1147
20.1147
20.1098
20.0781
20.1071
20.0748
20.1155
20.0908
20.1129
20.0881
20.0456
20.1787
20.037
20.1839
20.0248
20.1406
20.0175
20.1422
20.1949
20.0395
20.1725
20.0557
20.1554
20.0224
20.1377
20.0333
20.08
20.116
20.0811
20.1127
20.0944
20.1218
20.0937
20.1185
20.1287
20.1287
20.1254
20.1254
20.1245
20.1245
20.1211
20.1211
20.116
20.08
20.1127
20.0811
20.1218
20.0944
20.1185
20.0937
20.0395
20.1948
20.0556
20.1725
20.0224
20.1554
20.0333
20.1377
20.3751
19.9925
20.2877
20.0132
20.3681
19.9815
20.283
20.0063
20.0038
20.0578
20.0373
20.0772
20.0093
20.0652
20.041
20.0817
20.0881
20.0881
20.0973
20.0973
20.0934
20.0934
20.1
20.1
20.0579
20.0038
20.0772
20.0373
20.0653
20.0094
20.0817
20.0411
19.9925
20.375
20.0132
20.2876
19.9815
20.368
20.0063
20.2829
20.2503
20.0908
20.2897
20.0652
20.255
20.0713
20.2913
20.0478
20.0419
20.0576
20.0285
20.0576
20.0419
20.0643
20.0302
20.0646
20.0743
20.0743
20.0806
20.0806
20.0821
20.0821
20.0873
20.0873
20.0576
20.0419
20.0576
20.0285
20.0643
20.0419
20.0646
20.0302
20.0908
20.2502
20.0652
20.2896
20.0713
20.2549
20.0478
20.2912
20.2224
20.0984
20.2331
20.0975
20.228
20.0781
20.2385
20.0776
20.0566
20.062
20.0511
20.0596
20.0551
20.069
20.0498
20.0664
20.0712
20.0712
20.0717
20.0717
20.08
20.08
20.0801
20.0801
20.062
20.0567
20.0596
20.0511
20.069
20.0551
20.0664
20.0498
20.0984
20.2224
20.0975
20.233
20.0781
20.228
20.0776
20.2385
20.2098
20.0951
20.2151
20.0971
20.2151
20.0743
20.2206
20.0766
20.0611
20.0663
20.0596
20.0643
20.0596
20.0735
20.058
20.0714
20.0735
20.0735
20.072
20.072
20.0826
20.0826
20.081
20.081
20.0663
20.0611
20.0643
20.0596
20.0735
20.0596
20.0714
20.058
20.0951
20.2097
20.0971
20.2151
20.0743
20.215
20.0766
20.2205
20.2025
20.0905
20.2057
20.0928
20.2075
20.0692
20.2108
20.0718
20.0617
20.0693
20.0617
20.068
20.0604
20.0769
20.0602
20.0753
20.077
20.077
20.0752
20.0752
20.0865
20.0865
20.0844
20.0844
20.0693
20.0617
20.068
20.0617
20.0769
20.0604
20.0753
20.0602
20.0905
20.2024
20.0928
20.2057
20.0692
20.2074
20.0718
20.2108
20.1976
20.0862
20.1998
20.0883
20.2024
20.0644
20.2047
20.0667
20.061
20.0712
20.0614
20.0704
20.0597
20.0792
20.0601
20.0782
20.0803
20.0803
20.0787
20.0787
20.0903
20.0903
20.0885
20.0885
20.0712
20.0611
20.0704
20.0614
20.0792
20.0597
20.0782
20.0601
20.0862
20.1976
20.0883
20.1998
20.0644
20.2024
20.0667
20.2047
20.194
20.0823
20.1957
20.0842
20.1988
20.0601
20.2005
20.0621
20.0599
20.0723
20.0605
20.0718
20.0584
20.0808
20.0591
20.0801
20.0829
20.0829
20.0817
20.0817
20.0935
20.0935
20.092
20.092
20.0723
20.06
20.0718
20.0605
20.0808
20.0584
20.0801
20.0591
20.0823
20.194
20.0842
20.1957
20.0601
20.1988
20.0621
20.2005
20.1913
20.0789
20.1926
20.0805
20.196
20.0563
20.1974
20.0581
20.0586
20.0729
20.0593
20.0727
20.0569
20.0817
20.0577
20.0813
20.0849
20.0849
20.084
20.084
20.0959
20.0959
20.0948
20.0948
20.0729
20.0586
20.0727
20.0593
20.0817
20.057
20.0813
20.0577
20.0789
20.1913
20.0806
20.1926
20.0563
20.196
20.0581
20.1973
20.189
20.0759
20.1901
20.0774
20.1937
20.0529
20.1949
20.0545
20.0571
20.073
20.0579
20.073
20.0553
20.0821
20.0561
20.082
20.0861
20.0861
20.0856
20.0856
20.0976
20.0976
20.0968
20.0968
20.073
20.0572
20.073
20.0579
20.0822
20.0554
20.082
20.0562
20.0759
20.189
20.0774
20.1901
20.0529
20.1937
20.0545
20.1948
20.187
20.0731
20.188
20.0745
20.1918
20.0498
20.1927
20.0513
20.0556
20.0728
20.0564
20.0729
20.0537
20.0821
20.0545
20.0822
20.0868
20.0868
20.0865
20.0865
20.0986
20.0986
20.0982
20.0982
20.0728
20.0556
20.0729
20.0564
20.0822
20.0537
20.0822
20.0545
20.0731
20.187
20.0745
20.188
20.0498
20.1917
20.0513
20.1927
20.1852
20.0706
20.1861
20.0718
20.1899
20.047
20.1909
20.0484
20.0539
20.0722
20.0547
20.0725
20.0519
20.0817
20.0528
20.082
20.087
20.087
20.087
20.087
20.0991
20.0991
20.0989
20.0989
20.0722
20.0539
20.0725
20.0548
20.0818
20.0519
20.082
20.0528
20.0706
20.1852
20.0718
20.1861
20.047
20.1899
20.0484
20.1908
20.1835
20.0681
20.1843
20.0693
20.1882
20.0443
20.1891
20.0456
20.0521
20.0713
20.053
20.0718
20.05
20.081
20.051
20.0814
20.0868
20.0868
20.0869
20.0869
20.0991
20.0991
20.0991
20.0991
20.0713
20.0522
20.0718
20.0531
20.081
20.0501
20.0814
20.051
20.0681
20.1835
20.0693
20.1843
20.0443
20.1882
20.0456
20.1891
20.1818
20.0657
20.1827
20.0669
20.1865
20.0417
20.1874
20.0429
20.0503
20.0702
20.0512
20.0708
20.0481
20.08
20.0491
20.0805
20.0862
20.0862
20.0865
20.0865
20.0986
20.0986
20.0989
20.0989
20.0702
20.0503
20.0708
20.0512
20.08
20.0482
20.0806
20.0491
20.0657
20.1818
20.0669
20.1826
20.0417
20.1865
20.043
20.1874
20.18
20.0634
20.1809
20.0645
20.1847
20.0392
20.1856
20.0404
20.0484
20.0688
20.0493
20.0695
20.0462
20.0787
20.0471
20.0794
20.0852
20.0852
20.0857
20.0857
20.0978
20.0978
20.0982
20.0982
20.0689
20.0484
20.0696
20.0494
20.0787
20.0462
20.0794
20.0472
20.0634
20.18
20.0646
20.1809
20.0392
20.1847
20.0404
20.1856
20.1783
20.0611
20.1792
20.0622
20.1828
20.0367
20.1838
20.0379
20.0464
20.0674
20.0474
20.0681
20.0441
20.0773
20.0451
20.078
20.0841
20.0841
20.0847
20.0847
20.0966
20.0966
20.0972
20.0972
20.0674
20.0464
20.0681
20.0474
20.0773
20.0441
20.078
20.0452
20.0611
20.1783
20.0622
20.1792
20.0367
20.1829
20.0379
20.1838
20.1765
20.0588
20.1774
20.0599
20.1809
20.0343