/*--------------------------------*- C++ -*----------------------------------*\
  =========                 |
  \\      /  F ield         | OpenFOAM: The Open Source CFD Toolbox
   \\    /   O peration     | Website:  https://openfoam.org
    \\  /    A nd           | Version:  9
     \\/     M anipulation  |
\*---------------------------------------------------------------------------*/
FoamFile
{
    format      ascii;
    class       surfaceScalarField;
    location    "3.4";
    object      phi;
}
// * * * * * * * * * * * * * * * * * * * * * * * * * * * * * * * * * * * * * //

dimensions      [0 3 -1 0 0 0 0];

internalField   nonuniform List<scalar> 
104044
(
7.55387e-06
-0.000145545
-2.10449e-05
0.000134304
2.47319e-05
-9.29999e-05
1.87346e-05
-2.59821e-06
0.000102248
-1.78309e-05
6.78988e-06
-3.17475e-05
2.87935e-05
2.27286e-05
-2.48433e-06
-1.84477e-05
-5.6201e-06
-0.000177782
0.000162358
-6.99056e-05
2.39887e-06
8.06212e-05
-3.98469e-06
1.65137e-06
-4.51607e-07
-9.9731e-05
-3.06989e-06
0.000100216
4.38547e-07
-0.000103047
-2.99654e-06
-5.24503e-08
0.000102306
3.3381e-06
-4.38031e-07
-3.24295e-06
-8.16892e-08
-4.70192e-06
-4.86686e-08
3.51225e-06
3.88959e-07
-8.57206e-05
8.46606e-05
-9.8529e-05
2.78946e-08
9.58935e-05
1.56556e-07
-7.37878e-09
9.18815e-12
-0.000104513
-2.36158e-06
0.000103737
3.08512e-06
-0.000104513
-2.36165e-06
5.24631e-08
0.000103737
3.08519e-06
-1.59518e-11
-4.50005e-06
3.71203e-06
-4.50008e-06
4.85681e-08
3.71215e-06
-1.26595e-11
-0.0001028
0.000100467
-0.000102801
-2.78825e-08
0.000100467
-2.04508e-11
7.36327e-09
4.5169e-07
-0.000103046
-2.99686e-06
0.000102305
3.33841e-06
-9.97295e-05
-3.07156e-06
2.5978e-06
0.000100213
4.41492e-07
4.37599e-07
-4.70217e-06
3.51285e-06
-3.24465e-06
2.48376e-06
-7.95051e-08
-3.88667e-07
-9.853e-05
9.58939e-05
-8.57216e-05
-2.39802e-06
8.46594e-05
-1.56375e-07
-1.65065e-06
-7.55232e-06
-9.29962e-05
1.87284e-05
0.000102244
-1.78258e-05
-0.000145545
-2.10385e-05
0.000134306
2.4725e-05
-6.78798e-06
2.27218e-05
-1.84428e-05
-3.17381e-05
2.87853e-05
5.61716e-06
-6.9901e-05
8.06141e-05
-0.000177781
0.00016236
3.98245e-06
1.66465e-06
-0.000127591
-2.17157e-05
0.000123393
2.42494e-05
-0.000105974
2.13663e-05
-1.15399e-06
0.000107439
-2.00121e-05
3.71402e-06
-2.11722e-05
2.41711e-05
2.0532e-05
-1.4547e-06
-1.90893e-05
-1.13907e-05
-0.000149909
0.000139584
-8.90679e-05
3.8997e-06
9.51438e-05
-8.72317e-06
3.36216e-06
2.82117e-07
-0.00010114
-5.42091e-07
0.000102183
-1.93719e-06
-0.000101928
-1.49957e-06
1.11012e-07
0.0001019
1.69917e-06
-1.76912e-08
-1.42866e-06
-9.32633e-07
-2.13893e-06
3.79938e-08
2.46102e-06
1.02279e-06
-8.58724e-05
8.82072e-05
-9.43662e-05
2.12098e-07
9.36773e-05
7.21697e-07
1.10069e-07
8.78118e-13
-0.000103096
-1.48989e-06
0.000102648
2.0489e-06
-0.000103095
-1.48997e-06
-1.1095e-07
0.000102647
2.04896e-06
-5.55784e-12
-1.79186e-06
2.47137e-06
-1.79193e-06
-3.79718e-08
2.47143e-06
-2.63042e-11
-9.8785e-05
9.75072e-05
-9.8785e-05
-2.12105e-07
9.75071e-05
-4.49218e-12
-1.1001e-07
-2.81991e-07
-0.000101927
-1.49986e-06
0.000101898
1.69957e-06
-0.000101138
-5.42917e-07
1.15361e-06
0.000102181
-1.93576e-06
1.7761e-08
-2.13927e-06
2.46145e-06
-1.42969e-06
1.45443e-06
-9.31034e-07
-1.02245e-06
-9.4366e-05
9.36765e-05
-8.58696e-05
-3.89902e-06
8.82033e-05
-7.2138e-07
-3.36132e-06
-1.66489e-06
-0.00010597
2.1362e-05
0.000107435
-2.00085e-05
-0.000127593
-2.17107e-05
0.000123395
2.42444e-05
-3.71378e-06
2.05267e-05
-1.90849e-05
-2.11673e-05
2.41658e-05
1.13869e-05
-8.906e-05
9.51361e-05
-0.000149912
0.000139588
8.71958e-06
-3.8475e-07
-0.000120319
-2.01791e-05
0.000117967
2.29159e-05
-0.000108101
2.0825e-05
-1.43657e-06
0.000108388
-2.006e-05
4.33415e-07
-2.07368e-05
2.33777e-05
2.09052e-05
-1.23941e-06
-1.98948e-05
-1.44276e-05
-0.000131903
0.000126151
-9.89633e-05
4.04379e-06
0.000101317
-1.3056e-05
4.02971e-06
7.07881e-07
-0.000103054
-2.92229e-07
0.000103784
-2.58172e-06
-0.000102083
-7.43387e-07
3.69527e-07
0.000102393
7.71087e-07
5.14553e-07
-2.58409e-07
-2.36666e-06
-1.01886e-06
2.22025e-07
1.12815e-06
1.46544e-06
-9.07231e-05
9.30093e-05
-9.36177e-05
3.80995e-07
9.39587e-05
1.25539e-06
2.96163e-07
2.54879e-11
-0.000102413
-9.00946e-07
0.000102381
1.30211e-06
-0.000102412
-9.01018e-07
-3.69388e-07
0.000102381
1.30214e-06
1.58226e-11
-1.17944e-06
1.63638e-06
-1.17951e-06
-2.21922e-07
1.63643e-06
2.78642e-11
-9.66239e-05
9.61039e-05
-9.66237e-05
-3.80864e-07
9.61035e-05
2.38449e-11
-2.96018e-07
-7.07755e-07
-0.000102081
-7.43525e-07
0.000102392
7.7132e-07
-0.000103052
-2.92571e-07
1.43607e-06
0.000103781
-2.58084e-06
-5.14412e-07
-1.0191e-06
1.12848e-06
-2.58986e-07
1.23896e-06
-2.36552e-06
-1.46502e-06
-9.36163e-05
9.3957e-05
-9.07185e-05
-4.04345e-06
9.30044e-05
-1.25497e-06
-4.0292e-06
3.8425e-07
-0.000108098
2.0822e-05
0.000108385
-2.00574e-05
-0.000120321
-2.01755e-05
0.000117968
2.2912e-05
-4.33848e-07
2.09016e-05
-1.98917e-05
-2.07332e-05
2.33735e-05
1.44241e-05
-9.89563e-05
0.000101311
-0.000131907
0.000126156
1.30523e-05
-1.33235e-06
-0.000116186
-1.91334e-05
0.000114806
2.18452e-05
-0.000108488
2.04875e-05
-1.83943e-06
0.000108502
-1.99936e-05
-9.37145e-07
-1.93715e-05
2.20894e-05
2.03983e-05
-1.62424e-06
-1.98118e-05
-1.58825e-05
-0.00012191
0.000118659
-0.000102697
3.78004e-06
0.000103522
-1.51298e-05
3.88806e-06
8.37889e-07
-0.000104388
-4.83716e-07
0.0001049
-2.7053e-06
-0.000102772
-5.14129e-07
5.63472e-07
0.000103192
3.69118e-07
7.96774e-07
-3.88162e-07
-2.63729e-06
-5.83854e-07
4.76286e-07
5.25593e-07
1.72296e-06
-9.49104e-05
9.64838e-05
-9.45265e-05
5.09113e-07
9.52262e-05
1.59875e-06
4.47069e-07
3.83107e-11
-0.000102504
-4.52229e-07
0.000102743
7.76612e-07
-0.000102504
-4.52264e-07
-5.63323e-07
0.000102743
7.76589e-07
3.27275e-11
-6.45631e-07
9.98702e-07
-6.45689e-07
-4.76139e-07
9.98706e-07
3.75202e-11
-9.59053e-05
9.59622e-05
-9.59048e-05
-5.08972e-07
9.59616e-05
3.40297e-11
-4.46929e-07
-8.37842e-07
-0.000102771
-5.14077e-07
0.00010319
3.69156e-07
-0.000104386
-4.83813e-07
1.8389e-06
0.000104898
-2.70478e-06
-7.96685e-07
-5.83899e-07
5.25722e-07
-3.88368e-07
1.62372e-06
-2.63661e-06
-1.72257e-06
-9.45245e-05
9.5224e-05
-9.49056e-05
-3.77995e-06
9.64791e-05
-1.59834e-06
-3.88787e-06
1.33185e-06
-0.000108486
2.04853e-05
0.0001085
-1.99917e-05
-0.000116188
-1.91306e-05
0.000114808
2.18422e-05
9.36618e-07
2.03956e-05
-1.98095e-05
-1.93688e-05
2.20862e-05
1.58795e-05
-0.000102692
0.000103518
-0.000121914
0.000118663
1.51266e-05
-1.78709e-06
-0.000113744
-1.8508e-05
0.000112919
2.11202e-05
-0.00010849
2.03381e-05
-2.16984e-06
0.000108478
-1.99432e-05
-1.58395e-06
-1.85879e-05
2.1234e-05
2.01883e-05
-1.99583e-06
-1.97647e-05
-1.65732e-05
-0.000116202
0.000114267
-0.00010399
3.47893e-06
0.000104276
-1.61311e-05
3.58989e-06
7.86108e-07
-0.000105338
-6.00879e-07
0.000105728
-2.74505e-06
-0.000103625
-4.80871e-07
6.52204e-07
0.000104069
1.70957e-07
8.1806e-07
-5.5091e-07
-2.70087e-06
-4.80538e-07
6.12346e-07
2.52884e-07
1.83564e-06
-9.77465e-05
9.87889e-05
-9.59741e-05
5.85611e-07
9.67432e-05
1.7763e-06
5.47913e-07
3.88748e-11
-0.000103062
-1.90923e-07
0.00010344
4.64829e-07
-0.000103062
-1.90907e-07
-6.5209e-07
0.00010344
4.64768e-07
3.98584e-11
-2.9909e-07
5.92629e-07
-2.99099e-07
-6.12212e-07
5.92585e-07
3.2994e-11
-9.62109e-05
9.66056e-05
-9.62103e-05
-5.85492e-07
9.66049e-05
3.70185e-11
-5.4778e-07
-7.86144e-07
-0.000103624
-4.80686e-07
0.000104067
1.70858e-07
-0.000105336
-6.00882e-07
2.16934e-06
0.000105726
-2.74476e-06
-8.18056e-07
-4.80415e-07
2.52849e-07
-5.50961e-07
1.99532e-06
-2.70047e-06
-1.83533e-06
-9.59717e-05
9.67409e-05
-9.77421e-05
-3.47895e-06
9.87848e-05
-1.77595e-06
-3.58987e-06
1.78667e-06
-0.000108488
2.03363e-05
0.000108476
-1.99418e-05
-0.000113746
-1.85058e-05
0.00011292
2.11178e-05
1.58347e-06
2.01863e-05
-1.9763e-05
-1.85858e-05
2.12315e-05
1.65708e-05
-0.000103986
0.000104272
-0.000116205
0.00011427
1.61284e-05
-2.01261e-06
-0.000112285
-1.80663e-05
0.000111804
2.05602e-05
-0.000108491
2.02317e-05
-2.40262e-06
0.000108529
-1.98796e-05
-1.90028e-06
-1.80787e-05
2.0613e-05
2.00737e-05
-2.27367e-06
-1.97133e-05
-1.68726e-05
-0.000112779
0.000111585
-0.000104448
3.2214e-06
0.000104586
-1.65906e-05
3.31028e-06
6.65858e-07
-0.000106085
-6.37988e-07
0.000106426
-2.77134e-06
-0.000104509
-4.99354e-07
6.72112e-07
0.00010495
5.1432e-08
7.20494e-07
-6.23482e-07
-2.72781e-06
-4.84882e-07
6.61362e-07
1.04035e-07
1.85134e-06
-9.9641e-05
0.000100373
-9.74924e-05
6.18556e-07
9.82258e-05
1.83468e-06
6.00645e-07
2.07836e-11
-0.000103853
-5.99659e-08
0.000104296
2.8855e-07
-0.000103852
-5.99215e-08
-6.72054e-07
0.000104296
2.88465e-07
3.38134e-11
-1.12511e-07
3.61306e-07
-1.12476e-07
-6.61279e-07
3.61234e-07
1.38249e-11
-9.70937e-05
9.76523e-05
-9.7093e-05
-6.18493e-07
9.76516e-05
2.38853e-11
-6.00552e-07
-6.65924e-07
-0.000104508
-4.99134e-07
0.000104949
5.12771e-08
-0.000106083
-6.3793e-07
2.40219e-06
0.000106424
-2.77116e-06
-7.20572e-07
-4.84662e-07
1.03876e-07
-6.23474e-07
2.27321e-06
-2.72758e-06
-1.85116e-06
-9.74901e-05
9.82236e-05
-9.96372e-05
-3.22148e-06
0.00010037
-1.83442e-06
-3.31033e-06
2.01235e-06
-0.00010849
2.02303e-05
0.000108528
-1.98785e-05
-0.000112286
-1.80644e-05
0.000111805
2.05583e-05
1.89993e-06
2.00721e-05
-1.9712e-05
-1.8077e-05
2.0611e-05
1.68709e-05
-0.000104445
0.000104583
-0.000112782
0.000111588
1.65886e-05
-2.12296e-06
-0.000111444
-1.76985e-05
0.00011119
2.0075e-05
-0.0001086
2.00923e-05
-2.55182e-06
0.0001087
-1.97637e-05
-2.05786e-06
-1.76929e-05
2.01103e-05
1.99628e-05
-2.46033e-06
-1.96317e-05
-1.69551e-05
-0.000110663
0.00010992
-0.000104697
3.01234e-06
0.000104822
-1.67706e-05
3.08134e-06
5.7884e-07
-0.000106752
-6.38775e-07
0.000107075
-2.81518e-06
-0.000105389
-5.02611e-07
6.59325e-07
0.00010583
-1.93397e-08
6.16449e-07
-6.38523e-07
-2.76437e-06
-4.98305e-07
6.61604e-07
1.50267e-08
1.80693e-06
-0.000100999
0.000101566
-9.89273e-05
6.20988e-07
9.96106e-05
1.81661e-06
6.16821e-07
1.5584e-11
-0.000104754
7.18493e-09
0.000105226
1.80011e-07
-0.000104754
7.28158e-09
-6.59317e-07
0.000105226
1.79894e-07
8.23115e-12
-2.28133e-08
2.26538e-07
-2.27458e-08
-6.61587e-07
2.26442e-07
3.0789e-11
-9.82463e-05
9.88744e-05
-9.82456e-05
-6.20901e-07
9.88738e-05
3.59752e-12
-6.16788e-07
-5.78995e-07
-0.000105387
-5.0232e-07
0.000105829
-1.95952e-08
-0.00010675
-6.38638e-07
2.55136e-06
0.000107074
-2.81514e-06
-6.16559e-07
-4.98075e-07
1.48364e-08
-6.38444e-07
2.45992e-06
-2.76425e-06
-1.80691e-06
-9.89253e-05
9.9609e-05
-0.000100996
-3.01281e-06
0.000101563
-1.81652e-06
-3.08152e-06
2.12294e-06
-0.000108599
2.00909e-05
0.000108699
-1.97627e-05
-0.000111445
-1.76963e-05
0.000111191
2.00734e-05
2.05773e-06
1.99615e-05
-1.96307e-05
-1.76913e-05
2.01087e-05
1.69536e-05
-0.000104694
0.000104818
-0.000110666
0.000109923
1.67692e-05
-2.17324e-06
-0.000111018
-1.73578e-05
0.000110925
1.9624e-05
-0.000108834
1.9915e-05
-2.64464e-06
0.000108997
-1.96059e-05
-2.13245e-06
-1.73425e-05
1.9647e-05
1.98021e-05
-2.57717e-06
-1.94912e-05
-1.69091e-05
-0.000109358
0.00010891
-0.000104948
2.84451e-06
0.00010511
-1.67812e-05
2.89442e-06
4.98442e-07
-0.0001074
-6.10699e-07
0.000107732
-2.8642e-06
-0.000106268
-4.9446e-07
6.30667e-07
0.000106711
-8.03725e-08
5.31797e-07
-6.22894e-07
-2.81115e-06
-4.94681e-07
6.39651e-07
-5.15373e-08
1.73966e-06
-0.00010208
0.000102575
-0.000100264
6.05384e-07
0.000100904
1.75699e-06
6.08795e-07
4.61903e-11
-0.000105702
4.40099e-08
0.000106184
1.03769e-07
-0.000105701
4.41816e-08
-6.30563e-07
0.000106184
1.03623e-07
5.34964e-11
2.62354e-08
1.38169e-07
2.63756e-08
-6.39564e-07
1.38026e-07
7.27024e-11
-9.95093e-05
0.000100159
-9.95087e-05
-6.04958e-07
0.000100158
1.51779e-10
-6.08344e-07
-4.98515e-07
-0.000106267
-4.94053e-07
0.00010671
-8.05165e-08
-0.000107399
-6.11521e-07
2.64438e-06
0.000107731
-2.86319e-06
-5.31916e-07
-4.94266e-07
-5.18384e-08
-6.23011e-07
2.57669e-06
-2.81084e-06
-1.73834e-06
-0.000100263
0.000100902
-0.000102079
-2.84328e-06
0.000102572
-1.7563e-06
-2.89442e-06
2.17295e-06
-0.000108833
1.9905e-05
0.000108996
-1.9596e-05
-0.000111019
-1.73466e-05
0.000110926
1.96127e-05
2.13222e-06
1.97967e-05
-1.94862e-05
-1.73371e-05
1.96416e-05
1.69006e-05
-0.000104946
0.000105107
-0.000109361
0.000108915
1.67749e-05
-2.18815e-06
-0.000110889
-1.70072e-05
0.000110915
1.91692e-05
-0.00010919
1.96874e-05
-2.69686e-06
0.00010941
-1.93983e-05
-2.16162e-06
-1.69951e-05
1.91928e-05
1.95928e-05
-2.64602e-06
-1.93019e-05
-1.67695e-05
-0.000108592
0.000108354
-0.000105283
2.70351e-06
0.000105497
-1.66778e-05
2.74176e-06
4.30502e-07
-0.000108072
-5.68859e-07
0.000108422
-2.90905e-06
-0.00010715
-4.79223e-07
5.95137e-07
0.000107596
-1.31355e-07
4.58207e-07
-5.86472e-07
-2.85756e-06
-4.83264e-07
6.06494e-07
-1.04259e-07
1.66726e-06
-0.000103044
0.000103511
-0.000101519
5.81087e-07
0.000102126
1.68582e-06
5.87426e-07
5.60411e-11
-0.000106665
6.53843e-08
0.000107154
4.12311e-08
-0.000106665
6.55175e-08
-5.95065e-07
0.000107153
4.11117e-08
-3.50488e-11
5.4958e-08
7.07576e-08
5.50344e-08
-6.06596e-07
7.06691e-08
8.98639e-11
-0.000100801
0.000101448
-0.000100801
-5.80877e-07
0.000101447
-2.28798e-10
-5.8791e-07
-4.3063e-07
-0.000107149
-4.79032e-07
0.000107595
-1.31423e-07
-0.000108071
-5.70257e-07
2.69667e-06
0.000108422
-2.90769e-06
-4.58571e-07
-4.83253e-07
-1.04165e-07
-5.886e-07
2.64551e-06
-2.8557e-06
-1.66694e-06
-0.000101517
0.000102124
-0.000103042
-2.70405e-06
0.000103509
-1.6864e-06
-2.74482e-06
2.18827e-06
-0.00010919
1.96799e-05
0.000109409
-1.9391e-05
-0.000110891
-1.69973e-05
0.000110916
1.91599e-05
2.16156e-06
1.95844e-05
-1.92948e-05
-1.69872e-05
1.91838e-05
1.6763e-05
-0.000105283
0.000105496
-0.000108592
0.000108357
1.66637e-05
-2.18049e-06
-0.000110985
-1.66469e-05
0.000111104
1.87084e-05
-0.000109658
1.94188e-05
-2.71845e-06
0.000109927
-1.91507e-05
-2.16427e-06
-1.66484e-05
1.8743e-05
1.93487e-05
-2.68147e-06
-1.90794e-05
-1.65679e-05
-0.000108204
0.000108125
-0.000105729
2.58353e-06
0.000105997
-1.64985e-05
2.61814e-06
3.74227e-07
-0.000108784
-5.21766e-07
0.000109157
-2.94386e-06
-0.000108042
-4.55862e-07
5.60221e-07
0.000108495
-1.8364e-07
3.97227e-07
-5.43346e-07
-2.89685e-06
-4.64246e-07
5.71327e-07
-1.5551e-07
1.5983e-06
-0.000103969
0.000104432
-0.000102716
5.5481e-07
0.000103304
1.61728e-06
5.62878e-07
-3.09446e-11
-0.00010764
8.26618e-08
0.000108133
-1.55274e-08
-0.00010764
8.28174e-08
-5.604e-07
0.000108133
-1.56647e-08
1.7224e-10
7.33596e-08
1.14373e-08
7.36253e-08
-5.70989e-07
1.1231e-08
1.74923e-11
-0.000102083
0.000102721
-0.000102083
-5.54756e-07
0.00010272
5.2797e-10
-5.61371e-07
-3.74516e-07
-0.000108041
-4.55531e-07
0.000108495
-1.84141e-07
-0.000108783
-5.20639e-07
2.71799e-06
0.000109156
-2.94519e-06
-3.9691e-07
-4.63468e-07
-1.56027e-07
-5.42645e-07
2.68176e-06
-2.89708e-06
-1.59898e-06
-0.000102714
0.000103302
-0.000103964
-2.58574e-06
0.000104431
-1.61424e-06
-2.61274e-06
2.1815e-06
-0.000109657
1.94137e-05
0.000109927
-1.91478e-05
-0.000110986
-1.66451e-05
0.000111106
1.87073e-05
2.16411e-06
1.93351e-05
-1.90648e-05
-1.66341e-05
1.87283e-05
1.65556e-05
-0.000105726
0.000105998
-0.000108216
0.000108126
1.64924e-05
-2.16067e-06
-0.000111254
-1.62963e-05
0.000111445
1.82664e-05
-0.000110221
1.91328e-05
-2.71885e-06
0.000110533
-1.88867e-05
-2.14969e-06
-1.62959e-05
1.82957e-05
1.90751e-05
-2.69254e-06
-1.88254e-05
-1.63379e-05
-0.000108124
0.000108166
-0.000106276
2.47765e-06
0.000106593
-1.62944e-05
2.50148e-06
3.28681e-07
-0.00010954
-4.69463e-07
0.000109935
-2.97302e-06
-0.000108949
-4.27519e-07
5.28934e-07
0.000109411
-2.35155e-07
3.46607e-07
-4.92416e-07
-2.93003e-06
-4.37764e-07
5.38341e-07
-2.07637e-07
1.53506e-06
-0.000104892
0.000105365
-0.00010388
5.2852e-07
0.000104459
1.54939e-06
5.35659e-07
-2.88142e-10
-0.000108623
9.88237e-08
0.00010912
-6.66689e-08
-0.000108623
9.87639e-08
-5.29559e-07
0.00010912
-6.66742e-08
-2.61878e-10
8.96765e-08
-4.08842e-08
8.96385e-08
-5.39021e-07
-4.09164e-08
-6.67902e-10
-0.000103347
0.000103975
-0.000103346
-5.30075e-07
0.000103975
-4.86813e-10
-5.37167e-07
-3.29271e-07
-0.000108949
-4.27934e-07
0.000109412
-2.35076e-07
-0.00010954
-4.70297e-07
2.71865e-06
0.000109935
-2.97285e-06
-3.47374e-07
-4.38098e-07
-2.07823e-07
-4.91847e-07
2.69193e-06
-2.9313e-06
-1.53777e-06
-0.00010388
0.00010446
-0.000104894
-2.48243e-06
0.000105368
-1.55327e-06
-2.50802e-06
2.1631e-06
-0.00011022
1.91349e-05
0.000110533
-1.88916e-05
-0.000111253
-1.62981e-05
0.000111444
1.82702e-05
2.15249e-06
1.90821e-05
-1.88357e-05
-1.6302e-05
1.83069e-05
1.63335e-05
-0.000106276
0.000106595
-0.00010812
0.000108155
1.62957e-05
-2.13334e-06
-0.000111658
-1.59493e-05
0.000111904
1.78359e-05
-0.000110864
1.88241e-05
-2.70128e-06
0.000111211
-1.86031e-05
-2.12679e-06
-1.59562e-05
1.787e-05
1.87853e-05
-2.6835e-06
-1.85603e-05
-1.60669e-05
-0.000108254
0.000108371
-0.000106922
2.3928e-06
0.000107287
-1.60446e-05
2.41178e-06
2.92912e-07
-0.00011034
-4.2049e-07
0.000110754
-2.98806e-06
-0.000109874
-3.98727e-07
5.01828e-07
0.000110345
-2.81104e-07
3.06995e-07
-4.42428e-07
-2.95275e-06
-4.09448e-07
5.09705e-07
-2.56345e-07
1.48278e-06
-0.00010584
0.00010633
-0.000105031
5.06625e-07
0.000105609
1.49437e-06
5.12309e-07
-3.53878e-11
-0.000109614
1.14476e-07
0.000110115
-1.13168e-07
-0.000109614
1.14569e-07
-5.01747e-07
0.000110115
-1.13278e-07
-1.99687e-10
1.05598e-07
-8.98531e-08
1.05583e-07
-5.10009e-07
-8.98925e-08
-2.98696e-10
-0.000104593
0.000105215
-0.000104593
-5.06915e-07
0.000105214
-7.02386e-10
-5.13657e-07
-2.92748e-07
-0.000109875
-3.98533e-07
0.000110345
-2.81018e-07
-0.00011034
-4.22554e-07
2.70181e-06
0.000110753
-2.98584e-06
-3.07161e-07
-4.0964e-07
-2.56162e-07
-4.44049e-07
2.68383e-06
-2.95141e-06
-1.48165e-06
-0.000105032
0.000105608
-0.000105842
-2.39136e-06
0.000106329
-1.49545e-06
-2.41351e-06
2.13397e-06
-0.000110864
1.88212e-05
0.00011121
-1.85997e-05
-0.000111657
-1.59403e-05
0.000111903
1.78282e-05
2.12838e-06
1.87876e-05
-1.85635e-05
-1.59547e-05
1.78701e-05
1.60697e-05
-0.000106922
0.000107282
-0.000108248
0.000108377
1.60472e-05
-2.10149e-06
-0.000112164
-1.56111e-05
0.00011245
1.74263e-05
-0.000111572
1.85134e-05
-2.67437e-06
0.000111942
-1.8311e-05
-2.09657e-06
-1.56132e-05
1.74505e-05
1.84748e-05
-2.66012e-06
-1.82716e-05
-1.58047e-05
-0.000108538
0.000108732
-0.000107652
2.31349e-06
0.000108047
-1.57802e-05
2.32905e-06
2.64428e-07
-0.000111175
-3.76931e-07
0.000111602
-2.98906e-06
-0.000110815
-3.71277e-07
4.78418e-07
0.000111291
-3.18319e-07
2.75141e-07
-3.95448e-07
-2.96056e-06
-3.81076e-07
4.84568e-07
-2.98001e-07
1.43441e-06
-0.000106819
0.000107321
-0.00010618
4.86792e-07
0.000106756
1.44425e-06
4.9186e-07
7.94415e-11
-0.000110611
1.28582e-07
0.000111112
-1.51386e-07
-0.000110611
1.28771e-07
-4.78275e-07
0.000111112
-1.51552e-07
1.09552e-10
1.20504e-07
-1.32233e-07
1.20654e-07
-4.84287e-07
-1.32358e-07
4.81145e-11
-0.000105827
0.000106442
-0.000105826
-4.8638e-07
0.000106441
2.23862e-10
-4.90967e-07
-2.64551e-07
-0.000110814
-3.7097e-07
0.00011129
-3.18421e-07
-0.000111174
-3.79661e-07
2.67405e-06
0.000111602
-2.98666e-06
-2.74995e-07
-3.80803e-07
-2.97904e-07
-3.98833e-07
2.66032e-06
-2.9573e-06
-1.43321e-06
-0.000106178
0.000106754
-0.000106816
-2.31466e-06
0.000107317
-1.44155e-06
-2.32696e-06
2.10108e-06
-0.000111571
1.84997e-05
0.000111942
-1.82982e-05
-0.000112164
-1.5598e-05
0.000112452
1.74115e-05
2.09612e-06
1.84591e-05
-1.82557e-05
-1.55957e-05
1.74307e-05
1.57858e-05
-0.000107649
0.000108048
-0.000108547
0.000108735
1.57656e-05
-2.0627e-06
-0.000112744
-1.52588e-05
0.000113061
1.7004e-05
-0.000112321
1.81533e-05
-2.63416e-06
0.000112705
-1.79657e-05
-2.06098e-06
-1.52625e-05
1.70298e-05
1.81367e-05
-2.627e-06
-1.79493e-05
-1.54774e-05
-0.000108958
0.000109176
-0.000108443
2.2448e-06
0.000108874
-1.54884e-05
2.25296e-06
2.42526e-07
-0.000112032
-3.43178e-07
0.000112465
-2.96662e-06
-0.000111762
-3.4776e-07
4.57746e-07
0.000112236
-3.41634e-07
2.50216e-07
-3.58059e-07
-2.94943e-06
-3.55574e-07
4.62703e-07
-3.28388e-07
1.38908e-06
-0.00010782
0.000108332
-0.000107325
4.68422e-07
0.000107898
1.39649e-06
4.72249e-07
2.61789e-11
-0.000111606
1.38293e-07
0.000112102
-1.765e-07
-0.000111606
1.3853e-07
-4.57728e-07
0.000112102
-1.76727e-07
3.526e-11
1.32688e-07
-1.64201e-07
1.32938e-07
-4.62661e-07
-1.64438e-07
1.22259e-11
-0.000107047
0.000107654
-0.000107047
-4.68264e-07
0.000107653
-8.15733e-11
-4.72258e-07
-2.42501e-07
-0.000111762
-3.4724e-07
0.000112236
-3.42188e-07
-0.000112033
-3.42301e-07
2.63412e-06
0.000112465
-2.96729e-06
-2.50372e-07
-3.55007e-07
-3.28874e-07
-3.58296e-07
2.62649e-06
-2.94911e-06
-1.38898e-06
-0.000107323
0.000107897
-0.000107818
-2.24425e-06
0.000108331
-1.39642e-06
-2.25496e-06
2.06302e-06
-0.000112322
1.81537e-05
0.000112706
-1.79664e-05
-0.000112746
-1.52572e-05
0.000113061
1.70049e-05
2.06103e-06
1.8131e-05
-1.7945e-05
-1.52588e-05
1.70257e-05
1.54815e-05
-0.000108447
0.000108875
-0.000108954
0.000109178
1.54774e-05
-2.02083e-06
-0.000113378
-1.49144e-05
0.000113702
1.66109e-05
-0.000113087
1.77896e-05
-2.58926e-06
0.000113472
-1.76058e-05
-2.02092e-06
-1.49269e-05
1.66312e-05
1.77836e-05
-2.58346e-06
-1.76034e-05
-1.51815e-05
-0.000109423
0.000109691
-0.000109299
2.17184e-06
0.000109735
-1.51739e-05
2.18501e-06
2.2452e-07
-0.000112895
-3.16553e-07
0.000113322
-2.9238e-06
-0.000112702
-3.31288e-07
4.3936e-07
0.000113165
-3.46417e-07
2.30757e-07
-3.25588e-07
-2.91867e-06
-3.34847e-07
4.43407e-07
-3.43416e-07
1.34479e-06
-0.000108839
0.00010935
-0.000108461
4.51269e-07
0.000109023
1.35249e-06
4.54881e-07
-2.12166e-10
-0.000112587
1.40491e-07
0.000113069
-1.82883e-07
-0.000112587
1.40673e-07
-4.39936e-07
0.000113069
-1.83059e-07
-9.27687e-11
1.39098e-07
-1.80671e-07
1.39281e-07
-4.43633e-07
-1.80865e-07
-3.28826e-10
-0.000108248
0.00010884
-0.000108248
-4.52142e-07
0.00010884
-1.56992e-10
-4.55186e-07
-2.2526e-07
-0.000112702
-3.31067e-07
0.000113165
-3.46831e-07
-0.000112895
-3.15798e-07
2.58848e-06
0.000113322
-2.92462e-06
-2.30848e-07
-3.34526e-07
-3.43914e-07
-3.24623e-07
2.58373e-06
-2.91957e-06
-1.34706e-06
-0.00010846
0.000109024
-0.000108838
-2.17621e-06
0.000109351
-1.3531e-06
-2.18476e-06
2.02377e-06
-0.000113088
1.77926e-05
0.000113473
-1.76129e-05
-0.000113376
-1.492e-05
0.000113701
1.66192e-05
2.02157e-06
1.77854e-05
-1.76057e-05
-1.49274e-05
1.66339e-05
1.51766e-05
-0.000109297
0.000109736
-0.000109429
0.000109686
1.51787e-05
-1.98071e-06
-0.000114012
-1.45594e-05
0.000114323
1.62291e-05
-0.000113856
1.73835e-05
-2.5368e-06
0.000114236
-1.72074e-05
-1.97963e-06
-1.45758e-05
1.62456e-05
1.74006e-05
-2.53604e-06
-1.72284e-05
-1.48457e-05
-0.00010998
0.000110267
-0.000110152
2.11381e-06
0.000110576
-1.48653e-05
2.11808e-06
2.12168e-07
-0.000113741
-3.12745e-07
0.00011415
-2.84537e-06
-0.000113614
-3.2792e-07
4.23716e-07
0.000114054
-3.2373e-07
2.15475e-07
-3.10441e-07
-2.85963e-06
-3.24752e-07
4.26558e-07
-3.35316e-07
1.3077e-06
-0.000109845
0.000110339
-0.000109571
4.37638e-07
0.000110113
1.31202e-06
4.39548e-07
-1.65129e-10
-0.000113535
1.30335e-07
0.000113992
-1.62993e-07
-0.000113535
1.30617e-07
-4.2409e-07
0.000113992
-1.63231e-07
-2.22113e-10
1.35661e-07
-1.74809e-07
1.3589e-07
-4.27184e-07
-1.74988e-07
-2.48389e-10
-0.000109416
0.000109984
-0.000109416
-4.37873e-07
0.000109984
-3.56988e-10
-4.40418e-07
-2.13043e-07
-0.000113614
-3.27134e-07
0.000114054
-3.24086e-07
-0.000113741
-3.11754e-07
2.53397e-06
0.00011415
-2.84472e-06
-2.1663e-07
-3.24382e-07
-3.35623e-07
-3.09692e-07
2.53359e-06
-2.85972e-06
-1.30681e-06
-0.000109573
0.000110115
-0.00010985
-2.11172e-06
0.000110343
-1.31422e-06
-2.12245e-06
1.98042e-06
-0.000113855
1.73875e-05
0.00011423
-1.72091e-05
-0.000114012
-1.45645e-05
0.000114328
1.62295e-05
1.98281e-06
1.7407e-05
-1.72377e-05
-1.45837e-05
1.6255e-05
1.48522e-05
-0.000110154
0.000110578
-0.000109969
0.000110257
1.48671e-05
-1.94068e-06
-0.000114615
-1.42527e-05
0.000114904
1.59035e-05
-0.000114602
1.69983e-05
-2.482e-06
0.000114944
-1.67994e-05
-1.94121e-06
-1.42517e-05
1.59013e-05
1.70121e-05
-2.48241e-06
-1.68369e-05
-1.45306e-05
-0.000110556
0.000110834
-0.000110976
2.06297e-06
0.000111381
-1.45414e-05
2.07039e-06
2.0419e-07
-0.000114544
-3.25958e-07
0.000114919
-2.73473e-06
-0.000114474
-3.37709e-07
4.10475e-07
0.000114876
-2.70819e-07
2.06023e-07
-3.16431e-07
-2.76666e-06
-3.28339e-07
4.12557e-07
-2.98154e-07
1.2716e-06
-0.000110814
0.000111279
-0.000110635
4.26262e-07
0.000111143
1.2786e-06
4.27879e-07
3.57353e-11
-0.000114426
1.0554e-07
0.000114843
-1.11895e-07
-0.000114426
1.05802e-07
-4.10251e-07
0.000114843
-1.12263e-07
-7.79477e-11
1.1853e-07
-1.40214e-07
1.18786e-07
-4.12657e-07
-1.40492e-07
2.50754e-10
-0.00011053
0.000111062
-0.000110531
-4.25324e-07
0.000111062
-2.05387e-11
-4.27544e-07
-2.03885e-07
-0.000114474
-3.36905e-07
0.000114876
-2.71479e-07
-0.000114545
-3.25653e-07
2.48142e-06
0.000114919
-2.73367e-06
-2.06285e-07
-3.27619e-07
-2.98496e-07
-3.16746e-07
2.481e-06
-2.76466e-06
-1.26914e-06
-0.000110637
0.000111144
-0.000110817
-2.05771e-06
0.00011128
-1.27672e-06
-2.06761e-06
1.94077e-06
-0.000114593
1.69928e-05
0.000114935
-1.67944e-05
-0.000114626
-1.42449e-05
0.000114914
1.58969e-05
1.94174e-06
1.70061e-05
-1.68297e-05
-1.42482e-05
1.58919e-05
1.45345e-05
-0.000110982
0.000111383
-0.000110543
0.000110832
1.45339e-05
-1.89754e-06
-0.000115169
-1.39645e-05
0.000115413
1.56181e-05
-0.000115267
1.65808e-05
-2.42302e-06
0.00011556
-1.63489e-05
-1.89786e-06
-1.39501e-05
1.55835e-05
1.66039e-05
-2.42616e-06
-1.6398e-05
-1.42144e-05
-0.000111096
0.000111346
-0.000111759
2.00792e-06
0.000112117
-1.4212e-05
2.01426e-06
1.991e-07
-0.000115269
-3.57912e-07
0.00011559
-2.58536e-06
-0.000115249
-3.61253e-07
3.9887e-07
0.000115595
-1.84697e-07
1.99361e-07
-3.38514e-07
-2.63714e-06
-3.44304e-07
4.00116e-07
-2.29543e-07
1.23267e-06
-0.000111716
0.000112133
-0.000111622
4.14918e-07
0.000112078
1.23896e-06
4.15952e-07
3.88082e-10
-0.000115229
6.33739e-08
0.000115588
-2.4464e-08
-0.000115229
6.36198e-08
-3.97957e-07
0.000115589
-2.48702e-08
2.35836e-10
8.59982e-08
-7.2313e-08
8.62695e-08
-3.99435e-07
-7.27372e-08
2.4009e-10
-0.000111563
0.000112041
-0.000111564
-4.14336e-07
0.000112042
2.01938e-10
-4.15182e-07
-1.9799e-07
-0.000115249
-3.60724e-07
0.000115595
-1.85465e-07
-0.000115268
-3.58602e-07
2.42336e-06
0.00011559
-2.58423e-06
-1.98301e-07
-3.43524e-07
-2.30446e-07
-3.37912e-07
2.4266e-06
-2.63665e-06
-1.23226e-06
-0.000111622
0.000112079
-0.000111714
-2.01049e-06
0.000112134
-1.23708e-06
-2.00924e-06
1.88927e-06
-0.000115264
1.65605e-05
0.000115564
-1.63269e-05
-0.000115169
-1.39453e-05
0.000115409
1.55951e-05
1.89457e-06
1.65894e-05
-1.63862e-05
-1.39298e-05
1.55696e-05
1.41847e-05
-0.000111747
0.000112113
-0.000111118
0.000111358
1.42156e-05
-1.85727e-06
-0.000115617
-1.37067e-05
0.000115796
1.53844e-05
-0.000115816
1.61546e-05
-2.36637e-06
0.000116028
-1.58576e-05
-1.85996e-06
-1.36874e-05
1.53436e-05
1.62052e-05
-2.36971e-06
-1.59514e-05
-1.38815e-05
-0.000111586
0.000111761
-0.000112432
1.96207e-06
0.000112743
-1.3928e-05
1.96244e-06
1.94695e-07
-0.000115877
-4.11118e-07
0.000116123
-2.39572e-06
-0.000115904
-4.01349e-07
3.88614e-07
0.00011618
-6.79812e-08
1.94789e-07
-3.78751e-07
-2.47233e-06
-3.75343e-07
3.89286e-07
-1.27997e-07
1.19523e-06
-0.000112516
0.000112871
-0.000112499
4.04256e-07
0.000112888
1.2014e-06
4.05425e-07
9.8456e-11
-0.000115911
-5.31688e-09
0.000116199
1.06366e-07
-0.000115911
-5.09876e-09
-3.88482e-07
0.000116199
1.06089e-07
2.64918e-10
3.14034e-08
3.4907e-08
3.16932e-08
-3.88823e-07
3.45539e-08
8.87236e-11
-0.000112478
0.000112877
-0.000112479
-4.03778e-07
0.000112878
9.35901e-11
-4.05155e-07
-1.94948e-07
-0.000115905
-4.00642e-07
0.000116181
-6.88696e-08
-0.000115878
-4.12252e-07
2.36411e-06
0.000116125
-2.39375e-06
-1.94992e-07
-3.74817e-07
-1.2853e-07
-3.79956e-07
2.3671e-06
-2.47094e-06
-1.19382e-06
-0.000112501
0.00011289
-0.000112519
-1.95943e-06
0.000112873
-1.20148e-06
-1.96699e-06
1.85055e-06
-0.000115823
1.61411e-05
0.000116038
-1.58429e-05
-0.000115615
-1.36931e-05
0.00011579
1.53683e-05
1.8515e-06
1.61923e-05
-1.5935e-05
-1.36827e-05
1.53282e-05
1.38808e-05
-0.00011244
0.000112741
-0.000111572
0.00011176
1.38975e-05
-1.81295e-06
-0.000115915
-1.34409e-05
0.000115989
1.51805e-05
-0.000116207
1.566e-05
-2.30575e-06
0.000116335
-1.52954e-05
-1.81681e-06
-1.34163e-05
1.51138e-05
1.57325e-05
-2.3106e-06
-1.54175e-05
-1.35233e-05
-0.000111909
0.000111992
-0.000112989
1.92064e-06
0.000113206
-1.35644e-05
1.92152e-06
1.97275e-07
-0.000116326
-4.95215e-07
0.000116474
-2.15635e-06
-0.00011641
-4.8018e-07
3.77245e-07
0.000116581
1.29288e-07
1.92894e-07
-4.48648e-07
-2.25784e-06
-4.30397e-07
3.79869e-07
1.33458e-08
1.16562e-06
-0.000113176
0.000113436
-0.000113231
3.93252e-07
0.000113523
1.16826e-06
3.95115e-07
6.69329e-11
-0.000116434
-8.65058e-08
0.000116616
2.81643e-07
-0.000116434
-8.63436e-08
-3.77018e-07
0.000116616
2.81471e-07
1.27855e-10
-4.19784e-08
1.86292e-07
-4.18558e-08
-3.7952e-07
1.86059e-07
1.31003e-11
-0.00011323
0.000113537
-0.00011323
-3.9296e-07
0.000113537
1.94963e-10
-3.94447e-07
-1.97346e-07
-0.000116411
-4.79276e-07
0.000116581
1.29056e-07
-0.000116328
-4.95159e-07
2.30504e-06
0.000116475
-2.15444e-06
-1.92665e-07
-4.29589e-07
1.28965e-08
-4.48294e-07
2.31008e-06
-2.2567e-06
-1.16348e-06
-0.000113232
0.000113524
-0.000113177
-1.91691e-06
0.000113435
-1.16631e-06
-1.9188e-06
1.8083e-06
-0.00011622
1.56634e-05
0.000116344
-1.52908e-05
-0.000115907
-1.34373e-05
0.000115981
1.51708e-05
1.80446e-06
1.57338e-05
-1.54108e-05
-1.34169e-05
1.51048e-05
1.35346e-05
-0.000112987
0.000113199
-0.000111912
0.00011201
1.35691e-05
-1.77071e-06
-0.000115998
-1.32358e-05
0.000115951
1.50538e-05
-0.0001164
1.51828e-05
-2.24291e-06
0.000116393
-1.47037e-05
-1.7738e-06
-1.31979e-05
1.49626e-05
1.52702e-05
-2.24977e-06
-1.48586e-05
-1.32096e-05
-0.000112035
0.000112009
-0.000113353
1.8795e-06
0.000113447
-1.32415e-05
1.88119e-06
2.0353e-07
-0.000116564
-6.01535e-07
0.000116585
-1.86569e-06
-0.000116689
-5.88941e-07
3.649e-07
0.000116731
3.85327e-07
1.98512e-07
-5.39646e-07
-1.99877e-06
-5.26947e-07
3.6668e-07