/*--------------------------------*- C++ -*----------------------------------*\
  =========                 |
  \\      /  F ield         | OpenFOAM: The Open Source CFD Toolbox
   \\    /   O peration     | Website:  https://openfoam.org
    \\  /    A nd           | Version:  9
     \\/     M anipulation  |
\*---------------------------------------------------------------------------*/
FoamFile
{
    format      ascii;
    class       volVectorField;
    location    "3.4";
    object      U;
}
// * * * * * * * * * * * * * * * * * * * * * * * * * * * * * * * * * * * * * //

dimensions      [0 1 -1 0 0 0 0];

internalField   nonuniform List<vector> 
36360
(
(0.0404034 -0.252923 -0.887539)
(-0.0318629 -0.195958 0.00287523)
(0.0437936 -0.286609 -0.912478)
(-0.0328902 -0.165277 0.00249791)
(0.0424463 -0.316683 -0.975396)
(-0.0409511 -0.152046 -0.00191894)
(0.0760793 -0.388907 -0.984996)
(-0.0519934 -0.101067 -0.00138531)
(0.000824355 -0.191484 -0.00182101)
(0.00489913 -0.195285 -0.000302506)
(-0.000126797 -0.186904 -0.00176007)
(0.00446547 -0.194457 -0.000305832)
(0.00953813 -0.163458 0.00166265)
(0.00596984 -0.185027 0.000248518)
(0.0119061 -0.165965 0.00107838)
(0.0127622 -0.195573 8.89259e-05)
(0.0043036 -0.197898 -3.12629e-05)
(0.00430363 -0.197897 3.12766e-05)
(0.00435126 -0.197394 -2.9008e-05)
(0.00435129 -0.197393 2.89329e-05)
(0.0041956 -0.193283 1.66223e-05)
(0.0041958 -0.193283 -1.6625e-05)
(0.0120777 -0.203649 -4.40763e-06)
(0.0120777 -0.20365 4.37733e-06)
(0.00489949 -0.195283 0.000302432)
(0.000827547 -0.19148 0.00182068)
(0.00446596 -0.194456 0.000305853)
(-0.000123341 -0.186902 0.0017598)
(0.00597029 -0.185029 -0.000248337)
(0.00954016 -0.163457 -0.00166196)
(0.0127625 -0.195576 -8.88272e-05)
(0.0119083 -0.165971 -0.00107785)
(-0.0318531 -0.19595 -0.00287457)
(0.0403903 -0.252926 0.887583)
(-0.0328806 -0.165271 -0.00249714)
(0.0437788 -0.286606 0.912522)
(-0.0409373 -0.152034 0.00191769)
(0.0424344 -0.316687 0.975404)
(-0.051978 -0.101066 0.00138441)
(0.0760585 -0.388892 0.985005)
(0.0431851 -0.238451 -0.877995)
(-0.0362785 -0.202971 0.000324814)
(0.0424818 -0.247489 -0.883559)
(-0.0347203 -0.198691 0.00132933)
(0.0421751 -0.274149 -0.977018)
(-0.0471827 -0.1755 -0.00453643)
(0.0409472 -0.291162 -0.978594)
(-0.0455297 -0.161541 -0.00324506)
(-0.00355563 -0.193239 -0.000497561)
(0.00254256 -0.193567 0.000248445)
(-0.00168204 -0.190986 -0.000895406)
(0.00374224 -0.193748 8.2682e-06)
(0.00496036 -0.16515 0.00313201)
(0.00313566 -0.178326 0.000895162)
(0.00627581 -0.16108 0.00255191)
(0.00416179 -0.179585 0.000578038)
(0.00304107 -0.195376 7.68078e-05)
(0.00304114 -0.195375 -7.67631e-05)
(0.00366901 -0.196394 1.90405e-05)
(0.00366907 -0.196394 -1.90354e-05)
(0.0022911 -0.18625 0.000130298)
(0.00229121 -0.18625 -0.000130215)
(0.00273286 -0.188385 6.68909e-05)
(0.00273299 -0.188385 -6.68608e-05)
(0.00254312 -0.193565 -0.000248324)
(-0.00355308 -0.193234 0.000497471)
(0.00374284 -0.193746 -8.21683e-06)
(-0.00167892 -0.190982 0.000895285)
(0.003136 -0.178325 -0.000894734)
(0.00496051 -0.165143 -0.00313129)
(0.00416216 -0.179586 -0.000577734)
(0.00627665 -0.161076 -0.00255112)
(-0.0362715 -0.202964 -0.000325112)
(0.0431756 -0.238455 0.878031)
(-0.0347118 -0.198683 -0.00132935)
(0.0424717 -0.247492 0.883598)
(-0.0471733 -0.175485 0.0045345)
(0.0421655 -0.274157 0.977025)
(-0.045518 -0.161527 0.0032434)
(0.040938 -0.291167 0.978602)
(0.042016 -0.22612 -0.868252)
(-0.0367947 -0.205725 -0.000952562)
(0.0426899 -0.23125 -0.872563)
(-0.0366209 -0.204893 -0.000387177)
(0.0396686 -0.244694 -0.974442)
(-0.0466682 -0.190431 -0.00641777)
(0.040866 -0.257451 -0.975607)
(-0.0469306 -0.184764 -0.00557862)
(-0.00452385 -0.196561 -0.000330949)
(0.00122304 -0.19422 0.000601377)
(-0.00427842 -0.195081 -0.000352306)
(0.00173126 -0.193739 0.000446805)
(0.00508392 -0.174718 0.00362448)
(0.00185489 -0.178143 0.00139309)
(0.00479255 -0.170263 0.00346672)
(0.00233941 -0.177844 0.00117058)
(0.00198726 -0.194475 0.000209912)
(0.00198731 -0.194474 -0.000209801)
(0.00249083 -0.194713 0.00014595)
(0.0024909 -0.194713 -0.000145871)
(0.00138504 -0.182955 0.000277024)
(0.00138519 -0.182954 -0.000276883)
(0.00185156 -0.184284 0.000203589)
(0.00185169 -0.184284 -0.000203481)
(0.00122335 -0.194217 -0.000601225)
(-0.00452231 -0.196556 0.000330783)
(0.00173172 -0.193737 -0.000446661)
(-0.00427641 -0.195076 0.000352183)
(0.001855 -0.17814 -0.00139269)
(0.00508338 -0.174709 -0.00362399)
(0.00233968 -0.177842 -0.00117018)
(0.00479222 -0.170254 -0.00346608)
(-0.0367894 -0.20572 0.000952023)
(0.0420088 -0.226124 0.868282)
(-0.0366148 -0.204887 0.000386714)
(0.0426823 -0.231253 0.872596)
(-0.0466615 -0.190418 0.00641579)
(0.0396617 -0.244703 0.974448)
(-0.0469225 -0.18475 0.00557663)
(0.0408592 -0.25746 0.975614)
(0.0411351 -0.219311 -0.860239)
(-0.0372611 -0.206143 -0.00174713)
(0.0414741 -0.222272 -0.863697)
(-0.0369961 -0.206055 -0.00139794)
(0.0383257 -0.228316 -0.972374)
(-0.0467046 -0.195954 -0.00762903)
(0.0388044 -0.235339 -0.973304)
(-0.0465551 -0.193894 -0.00708903)
(-0.00463049 -0.198853 -0.000453829)
(0.000745414 -0.195656 0.000776222)
(-0.00460331 -0.197806 -0.00037525)
(0.000920319 -0.19489 0.000709098)
(0.00569587 -0.181917 0.00366416)
(0.00152889 -0.18026 0.00166939)
(0.00541805 -0.17864 0.00367498)
(0.00161773 -0.179027 0.00155676)
(0.00122313 -0.194945 0.000302491)
(0.00122311 -0.194944 -0.000302353)
(0.00156132 -0.194585 0.000262508)
(0.00156133 -0.194584 -0.000262378)
(0.000603282 -0.182203 0.000396295)
(0.000603394 -0.182202 -0.000396121)
(0.000962571 -0.182303 0.000342483)
(0.000962717 -0.182302 -0.000342319)
(0.000745401 -0.195654 -0.000776099)
(-0.00462957 -0.198848 0.000453595)
(0.000920456 -0.194887 -0.000708955)
(-0.0046021 -0.197801 0.000375044)
(0.00152865 -0.180256 -0.00166907)
(0.00569528 -0.181908 -0.0036639)
(0.00161768 -0.179023 -0.00155639)
(0.00541748 -0.178631 -0.0036746)
(-0.0372572 -0.206139 0.00174655)
(0.0411294 -0.219314 0.860264)
(-0.0369914 -0.20605 0.00139735)
(0.0414682 -0.222276 0.863724)
(-0.0466996 -0.195945 0.00762723)
(0.0383203 -0.228324 0.972379)
(-0.0465491 -0.193883 0.00708713)
(0.0387994 -0.235347 0.973309)
(0.0407963 -0.215248 -0.853535)
(-0.0378417 -0.206105 -0.00223913)
(0.0409085 -0.217022 -0.856383)
(-0.0375364 -0.206134 -0.002021)
(0.0378317 -0.218821 -0.970687)
(-0.0472148 -0.197854 -0.00841907)
(0.0379658 -0.222958 -0.971437)
(-0.0468881 -0.197154 -0.00806368)
(-0.00465889 -0.200523 -0.000643796)
(0.000590707 -0.197306 0.000822061)
(-0.00464137 -0.199744 -0.000546548)
(0.00064625 -0.196471 0.000810658)
(0.0060753 -0.186756 0.00355563)
(0.00158862 -0.183088 0.00177974)
(0.00591857 -0.184584 0.00361817)
(0.00153477 -0.181642 0.00174008)
(0.000772286 -0.196158 0.000348127)
(0.00077219 -0.196157 -0.000348013)
(0.000964182 -0.195487 0.000330209)
(0.000964119 -0.195486 -0.000330078)
(0.000102623 -0.183142 0.000468933)
(0.000102634 -0.18314 -0.000468781)
(0.000324067 -0.182511 0.000438119)
(0.000324132 -0.18251 -0.000437948)
(0.0005905 -0.197304 -0.000821996)
(-0.00465834 -0.200519 0.000643535)
(0.000646129 -0.196468 -0.000810563)
(-0.00464064 -0.19974 0.000546295)
(0.00158809 -0.183083 -0.00177952)
(0.00607477 -0.186748 -0.00355553)
(0.00153438 -0.181638 -0.00173981)
(0.00591803 -0.184575 -0.00361799)
(-0.0378385 -0.206102 0.00223862)
(0.0407916 -0.21525 0.853555)
(-0.0375328 -0.20613 0.00202043)
(0.0409038 -0.217025 0.856405)
(-0.0472108 -0.197846 0.00841754)
(0.0378274 -0.218827 0.970692)
(-0.0468834 -0.197146 0.00806201)
(0.0379619 -0.222965 0.971442)
(0.0406973 -0.212829 -0.847785)
(-0.0384336 -0.206152 -0.00255381)
(0.0407154 -0.213878 -0.850165)
(-0.0381352 -0.206103 -0.00241273)
(0.0376969 -0.213068 -0.969288)
(-0.0478394 -0.19857 -0.00895305)
(0.0376909 -0.215598 -0.9699)
(-0.0474853 -0.198279 -0.00871001)
(-0.00470938 -0.201886 -0.000827694)
(0.000544524 -0.198984 0.000799833)
(-0.00467408 -0.201227 -0.000737771)
(0.000563894 -0.198147 0.000816431)
(0.00626826 -0.190035 0.00341511)
(0.00173914 -0.18594 0.00179692)
(0.00619297 -0.18854 0.00348553)
(0.00166535 -0.184532 0.00179615)
(0.00052925 -0.197732 0.000361615)
(0.000529103 -0.197731 -0.000361564)
(0.000632775 -0.196915 0.000357688)
(0.000632655 -0.196914 -0.000357605)
(-0.000183055 -0.184994 0.000502183)
(-0.000183125 -0.184993 -0.000502113)
(-6.05527e-05 -0.183993 0.000489509)
(-6.05957e-05 -0.183991 -0.000489391)
(0.000544188 -0.198982 -0.00079985)
(-0.00470904 -0.201883 0.000827415)
(0.000563631 -0.198145 -0.000816401)
(-0.00467363 -0.201224 0.000737504)
(0.00173857 -0.185936 -0.00179683)
(0.00626776 -0.190028 -0.00341513)
(0.00166473 -0.184528 -0.001796)
(0.0061925 -0.188533 -0.00348549)
(-0.0384311 -0.206149 0.00255342)
(0.0406934 -0.212831 0.847802)
(-0.0381323 -0.206101 0.00241226)
(0.0407115 -0.21388 0.850183)
(-0.0478363 -0.198565 0.00895183)
(0.0376932 -0.213074 0.969292)
(-0.0474817 -0.198273 0.00870863)
(0.0376878 -0.215604 0.969904)
(0.0406921 -0.211464 -0.842754)
(-0.0389538 -0.206419 -0.00276044)
(0.0406762 -0.21204 -0.844794)
(-0.038695 -0.206256 -0.0026665)
(0.0376925 -0.209502 -0.968108)
(-0.0483865 -0.199028 -0.00932798)
(0.0376397 -0.211074 -0.968617)
(-0.0480821 -0.198805 -0.00915538)
(-0.0048147 -0.203132 -0.000986399)
(0.000496295 -0.200655 0.000747867)
(-0.00475431 -0.202517 -0.000910105)
(0.000521886 -0.19982 0.000775277)
(0.00639933 -0.192445 0.00328236)
(0.00183642 -0.188615 0.00176995)
(0.0063462 -0.191317 0.00334639)
(0.0017941 -0.187301 0.00178666)
(0.000392728 -0.199476 0.000359275)
(0.000392507 -0.199475 -0.000359252)
(0.000451146 -0.198591 0.000361563)
(0.000450975 -0.19859 -0.000361548)
(-0.000320085 -0.187259 0.000510294)
(-0.000320201 -0.187258 -0.000510189)
(-0.000272286 -0.186094 0.000508546)
(-0.00027237 -0.186093 -0.000508516)
(0.000495745 -0.200653 -0.000747965)
(-0.00481457 -0.203129 0.000986027)
(0.000521475 -0.199818 -0.000775346)
(-0.00475408 -0.202514 0.000909798)
(0.0018358 -0.188612 -0.00176994)
(0.00639877 -0.19244 -0.00328272)
(0.00179356 -0.187297 -0.00178665)
(0.00634571 -0.191311 -0.00334653)
(-0.0389511 -0.206417 0.00276016)
(0.0406876 -0.211465 0.842768)
(-0.0386926 -0.206254 0.00266619)
(0.0406728 -0.212042 0.844809)
(-0.0483837 -0.199022 0.00932668)
(0.0376885 -0.209509 0.968112)
(-0.048079 -0.1988 0.00915432)
(0.0376367 -0.21108 0.968621)
(0.040692 -0.210817 -0.838294)
(-0.0393901 -0.206924 -0.00290226)
(0.0406836 -0.211065 -0.840035)
(-0.0391735 -0.206643 -0.00283694)
(0.03771 -0.207314 -0.965364)
(-0.0488262 -0.199539 -0.00960601)
(0.0376542 -0.208271 -0.967521)
(-0.0485726 -0.199266 -0.00947448)
(-0.0049477 -0.204369 -0.00111504)
(0.000436589 -0.202327 0.000690318)
(-0.004877 -0.203746 -0.00105384)
(0.00046918 -0.201491 0.000718773)
(0.00646624 -0.194422 0.00317044)
(0.00189822 -0.191112 0.00172744)
(0.00644303 -0.193467 0.00322267)
(0.00186939 -0.189884 0.00174932)
(0.000310335 -0.201288 0.000349119)
(0.00031006 -0.201287 -0.000348986)
(0.000347507 -0.200377 0.000354728)
(0.000347223 -0.200377 -0.000354593)
(-0.000347676 -0.189683 0.000504881)
(-0.000347825 -0.189682 -0.000504467)
(-0.000344622 -0.188462 0.000508762)
(-0.000344793 -0.18846 -0.000508275)
(0.00043614 -0.202325 -0.000690298)
(-0.00494352 -0.204367 0.00111489)
(0.00046854 -0.201489 -0.000718787)
(-0.0048756 -0.203744 0.00105351)
(0.00189723 -0.191109 -0.00172673)
(0.00646501 -0.194418 -0.00316918)
(0.00186855 -0.189881 -0.00174881)
(0.00644218 -0.193463 -0.00322242)
(-0.0393516 -0.206922 0.00290197)
(0.0406435 -0.210818 0.838307)
(-0.0391549 -0.20664 0.00283654)
(0.0406608 -0.211066 0.840048)
(-0.0488259 -0.199534 0.00960127)
(0.0377019 -0.207322 0.965334)
(-0.0485705 -0.19926 0.00947017)
(0.0376493 -0.208277 0.967527)
(0.0406186 -0.210691 -0.834271)
(-0.0397099 -0.207656 -0.0030017)
(0.0406504 -0.210698 -0.835766)
(-0.0395519 -0.207263 -0.0029553)
(0.0377031 -0.206067 -0.962666)
(-0.0491642 -0.200226 -0.00980823)
(0.0376597 -0.206596 -0.964809)
(-0.0489557 -0.199858 -0.00971061)
(-0.00508509 -0.205662 -0.00121666)
(0.00036126 -0.204005 0.000635838)
(-0.00501504 -0.205007 -0.00116811)
(0.000400367 -0.203164 0.000662154)
(0.00649291 -0.196224 0.00307644)
(0.00194255 -0.193463 0.00168179)
(0.00648777 -0.195336 0.00312002)
(0.00192455 -0.192303 0.00170385)
(0.000245844 -0.203124 0.000335336)
(0.000245608 -0.203124 -0.000335187)
(0.000277121 -0.202204 0.000342115)
(0.000276982 -0.202203 -0.000342239)
(-0.000341596 -0.192136 0.000493423)
(-0.000341739 -0.192135 -0.000493114)
(-0.000344705 -0.190911 0.000499111)
(-0.000344798 -0.19091 -0.000499645)
(0.000361189 -0.204003 -0.000635864)
(-0.0050797 -0.205661 0.00121646)
(0.000400664 -0.203163 -0.000662486)
(-0.00500794 -0.205005 0.00116749)
(0.0019419 -0.193459 -0.00168154)
(0.00649214 -0.196219 -0.00307673)
(0.00192379 -0.192299 -0.00170481)
(0.00648707 -0.195331 -0.00312285)
(-0.0396801 -0.207655 0.00300167)
(0.0405767 -0.210693 0.834282)
(-0.0395217 -0.207262 0.0029549)
(0.0406042 -0.2107 0.835779)
(-0.0491639 -0.200223 0.0098081)
(0.0376939 -0.206073 0.961889)
(-0.048954 -0.199856 0.00972008)
(0.0376466 -0.206599 0.96126)
(0.0405178 -0.210966 -0.830568)
(-0.0399618 -0.208594 -0.00307163)
(0.0405538 -0.210785 -0.831905)
(-0.0398357 -0.208101 -0.00303831)
(0.0376713 -0.205491 -0.961526)
(-0.0494064 -0.201127 -0.00995064)
(0.037635 -0.205706 -0.958573)
(-0.0492425 -0.200651 -0.00989667)
(-0.00521505 -0.207036 -0.0012961)
(0.000280045 -0.205706 0.000588205)
(-0.0051459 -0.206339 -0.0012575)
(0.000322374 -0.204852 0.000611196)
(0.00649467 -0.197976 0.00299971)
(0.00195864 -0.195717 0.00163956)
(0.0065009 -0.197102 0.0030393)
(0.00195409 -0.194599 0.00166127)
(0.000184171 -0.204981 0.000321648)
(0.000183807 -0.20498 -0.000321807)
(0.000215821 -0.204051 0.000328394)
(0.00021534 -0.20405 -0.000327892)
(-0.000334779 -0.194563 0.000480597)
(-0.000334861 -0.194562 -0.00048058)
(-0.000338373 -0.193353 0.000487699)
(-0.000338603 -0.193352 -0.000486013)
(0.000278436 -0.205704 -0.00058851)
(-0.00521963 -0.207034 0.00129568)
(0.000320818 -0.20485 -0.000610701)
(-0.00514577 -0.206337 0.0012581)
(0.00195915 -0.195713 -0.00163996)
(0.00649589 -0.19797 -0.00300167)
(0.00195359 -0.194595 -0.00165856)
(0.00650016 -0.197095 -0.00303376)
(-0.0399517 -0.208593 0.00307212)
(0.0405045 -0.210968 0.830579)
(-0.0397789 -0.2081 0.00303857)
(0.0404933 -0.210787 0.831914)
(-0.0494011 -0.201126 0.00996025)
(0.037656 -0.205501 0.95828)
(-0.0492436 -0.200646 0.00987927)
(0.0376315 -0.205719 0.961351)
(0.0404336 -0.211549 -0.827167)
(-0.0401739 -0.209705 -0.00312102)
(0.0404541 -0.211223 -0.828347)
(-0.0400527 -0.20913 -0.00309713)
(0.0376181 -0.205456 -0.964759)
(-0.049564 -0.202214 -0.010034)
(0.0376039 -0.205416 -0.964675)
(-0.0494425 -0.201647 -0.00998747)
(-0.00534892 -0.208494 -0.00135747)
(0.00019435 -0.207438 0.000548261)
(-0.00528042 -0.207755 -0.00132821)
(0.000237434 -0.206567 0.000566918)
(0.00648284 -0.199738 0.00293343)
(0.00195643 -0.197919 0.0016007)
(0.00649382 -0.198852 0.00296237)
(0.0019595 -0.196822 0.00161829)
(0.00011959 -0.206852 0.000309322)
(0.000119626 -0.206852 -0.000310205)
(0.000151757 -0.205915 0.000314966)
(0.000151684 -0.205915 -0.000315831)
(-0.000327249 -0.196954 0.000467202)
(-0.000327192 -0.196954 -0.00046925)
(-0.000329943 -0.195763 0.000473247)
(-0.000329818 -0.195762 -0.000475121)
(0.000194547 -0.207438 -0.00054915)
(-0.00534879 -0.208494 0.00135689)
(0.000236725 -0.206567 -0.000567947)
(-0.00528583 -0.207754 0.00132722)
(0.00195688 -0.197921 -0.00160365)
(0.00648402 -0.199742 -0.00293872)
(0.00196068 -0.196821 -0.00162155)
(0.00649608 -0.198852 -0.00296926)
(-0.0401932 -0.209704 0.0031226)
(0.0404407 -0.211548 0.827176)
(-0.0400954 -0.209129 0.00309868)
(0.0404918 -0.211224 0.828357)
(-0.0495586 -0.202216 0.0100659)
(0.0375983 -0.205444 0.958488)
(-0.0494342 -0.201648 0.01002)
(0.0375835 -0.205413 0.95875)
(0.0403739 -0.212372 -0.823958)
(-0.040381 -0.210963 -0.00315585)
(0.0403894 -0.211934 -0.825042)
(-0.040272 -0.210318 -0.00313863)
(0.0375097 -0.20578 -0.958583)
(-0.0496361 -0.20349 -0.0101341)
(0.0375176 -0.205581 -0.960641)
(-0.0495541 -0.202829 -0.0100885)
(-0.00546896 -0.210033 -0.00140284)
(0.000112646 -0.209205 0.000516725)
(-0.00540802 -0.209255 -0.00138051)
(0.000153225 -0.208317 0.000531661)
(0.0064653 -0.201556 0.00288849)
(0.0019432 -0.200105 0.00157223)
(0.00647926 -0.200639 0.00291082)
(0.00195144 -0.199013 0.00158598)
(5.79556e-05 -0.208739 0.000299655)
(5.78148e-05 -0.208739 -0.000299678)
(8.83412e-05 -0.207794 0.000304112)
(8.83539e-05 -0.207794 -0.000304683)
(-0.000325598 -0.199316 0.000457521)
(-0.00032588 -0.199315 -0.000458081)
(-0.000325493 -0.198138 0.000462054)
(-0.000325607 -0.198138 -0.000463877)
(0.000113237 -0.209205 -0.000516588)
(-0.00545977 -0.210032 0.00140333)
(0.000153871 -0.208318 -0.000532065)
(-0.00540286 -0.209255 0.00138059)
(0.00194115 -0.200106 -0.00157225)
(0.00646222 -0.201557 -0.00288732)
(0.00195056 -0.199015 -0.00158796)
(0.00647828 -0.200643 -0.00291321)
(-0.0403632 -0.210962 0.00315668)
(0.0403396 -0.212371 0.823963)
(-0.0402827 -0.210317 0.00313997)
(0.0403853 -0.211933 0.825049)
(-0.049638 -0.203484 0.0101411)
(0.0375045 -0.20578 0.957948)
(-0.0495522 -0.202832 0.0101122)
(0.0375072 -0.205565 0.956908)
(0.0403029 -0.213375 -0.820986)
(-0.0405335 -0.212331 -0.00317922)
(0.0403421 -0.212854 -0.821908)
(-0.0404675 -0.211637 -0.00316757)
(0.0373947 -0.206399 -0.959168)
(-0.0496525 -0.204906 -0.010186)
(0.0374036 -0.206048 -0.958086)
(-0.049593 -0.204184 -0.0101678)
(-0.00556444 -0.211634 -0.00143703)
(4.14446e-05 -0.210997 0.000491099)
(-0.0055191 -0.210827 -0.00142016)
(7.53975e-05 -0.210099 0.00050317)
(0.00643925 -0.203429 0.00284645)
(0.00192106 -0.202287 0.00154662)
(0.00645762 -0.202486 0.00286714)
(0.00193332 -0.201197 0.00155935)
(2.90085e-06 -0.210635 0.000291403)
(2.57135e-06 -0.210634 -0.000291177)
(2.92594e-05 -0.209687 0.000295317)
(2.90773e-05 -0.209686 -0.000294937)
(-0.000328723 -0.201654 0.000448897)
(-0.000329064 -0.201653 -0.000448427)
(-0.00032643 -0.200487 0.000453473)
(-0.000326772 -0.200487 -0.000452538)
(4.16452e-05 -0.210997 -0.000491077)
(-0.0055539 -0.211633 0.00143674)
(7.63535e-05 -0.210098 -0.000502837)
(-0.00550521 -0.210826 0.00142048)
(0.00191929 -0.202283 -0.0015463)
(0.00643723 -0.203422 -0.00284726)
(0.00193112 -0.201194 -0.00155784)
(0.00645467 -0.202482 -0.00286461)
(-0.0404767 -0.212332 0.00317874)
(0.0402271 -0.213376 0.820993)
(-0.0403973 -0.211635 0.00316745)
(0.0402499 -0.212854 0.821914)
(-0.0496535 -0.204906 0.0101884)
(0.0373821 -0.206406 0.956342)
(-0.0495971 -0.204176 0.0101623)
(0.037397 -0.206066 0.957448)
(0.0401622 -0.214507 -0.817762)
(-0.0405731 -0.213773 -0.00319132)
(0.040199 -0.213927 -0.818969)
(-0.0405332 -0.213044 -0.00318492)
(0.037241 -0.20722 -0.955206)
(-0.0495997 -0.206447 -0.0102146)
(0.0372731 -0.206797 -0.958709)
(-0.04958 -0.205658 -0.0101962)
(-0.00562461 -0.213271 -0.00145942)
(-1.10073e-05 -0.212797 0.000471436)
(-0.00559334 -0.212449 -0.00144869)
(1.34596e-05 -0.211898 0.000480417)
(0.00641056 -0.205341 0.00281556)
(0.00189615 -0.204461 0.00152555)
(0.00642969 -0.20438 0.0028276)
(0.00190898 -0.203376 0.00153476)
(-3.81434e-05 -0.212523 0.000284531)
(-3.86886e-05 -0.212522 -0.000284499)
(-1.98019e-05 -0.211581 0.000287595)
(-2.03598e-05 -0.211581 -0.000287529)
(-0.000333712 -0.203965 0.000441088)
(-0.000334013 -0.203965 -0.000440991)
(-0.000330957 -0.202814 0.000444531)
(-0.000331319 -0.202813 -0.000444568)
(-1.26342e-05 -0.212797 -0.000471404)
(-0.0056268 -0.213271 0.00145954)
(1.21103e-05 -0.211897 -0.000480517)
(-0.00559111 -0.212449 0.00144826)
(0.00189557 -0.204458 -0.00152536)
(0.00640989 -0.205338 -0.00281508)
(0.0019076 -0.203371 -0.00153514)
(0.006428 -0.204374 -0.00282956)
(-0.0405771 -0.213775 0.00319165)
(0.0401654 -0.21451 0.817782)
(-0.0405136 -0.213046 0.00318465)
(0.0401713 -0.213931 0.818977)
(-0.0495974 -0.206451 0.0102182)
(0.0372362 -0.207219 0.955203)
(-0.0495772 -0.205663 0.0102041)
(0.0372633 -0.206794 0.955824)
(0.0401031 -0.215729 -0.815368)
(-0.0406044 -0.215228 -0.00319576)
(0.0401176 -0.215112 -0.815781)
(-0.0405836 -0.214499 -0.00319301)
(0.0370462 -0.208159 -0.962472)
(-0.0494488 -0.208078 -0.0101936)
(0.0371262 -0.207661 -0.958629)
(-0.0495016 -0.20726 -0.0102063)
(-0.0056598 -0.214907 -0.00147592)
(-3.64808e-05 -0.214575 0.00045505)
(-0.00564654 -0.214092 -0.00146714)
(-2.85304e-05 -0.213691 0.000462739)
(0.00638141 -0.207279 0.00277862)
(0.00187482 -0.206611 0.00150438)
(0.00639787 -0.206311 0.00279641)
(0.00188449 -0.20554 0.0015145)
(-5.48011e-05 -0.214376 0.000278408)
(-5.53017e-05 -0.214376 -0.000279175)
(-5.04921e-05 -0.213456 0.000281219)
(-5.09836e-05 -0.213455 -0.000281529)
(-0.000337179 -0.206235 0.000433613)
(-0.000337361 -0.206235 -0.000434891)
(-0.000335718 -0.205107 0.000437144)
(-0.000335912 -0.205106 -0.000437654)
(-3.80135e-05 -0.214575 -0.00045605)
(-0.00566373 -0.214906 0.0014747)
(-3.01247e-05 -0.213691 -0.000462976)
(-0.00565008 -0.214092 0.00146731)
(0.00187491 -0.206611 -0.00150661)
(0.00638225 -0.207279 -0.00278353)
(0.00188452 -0.205538 -0.00151506)
(0.00639807 -0.206308 -0.00279652)
(-0.0406288 -0.215231 0.00319738)
(0.0401265 -0.215726 0.815377)
(-0.0405946 -0.214501 0.00319374)
(0.0401294 -0.215111 0.815802)
(-0.0494418 -0.208079 0.0102159)
(0.0370335 -0.20816 0.957691)
(-0.0494988 -0.207259 0.010215)
(0.0371209 -0.207667 0.957869)
(0.0400438 -0.216924 -0.812713)
(-0.0405811 -0.21669 -0.00319634)
(0.0400514 -0.21633 -0.813431)
(-0.040581 -0.215959 -0.00319473)
(0.0367236 -0.209237 -0.957852)
(-0.0491561 -0.209694 -0.0102036)
(0.036844 -0.208684 -0.962131)
(-0.0492579 -0.20889 -0.0101903)
(-0.00563294 -0.2165 -0.00148277)
(-1.33721e-05 -0.216289 0.000444446)
(-0.00565156 -0.215711 -0.00147936)
(-3.12888e-05 -0.215443 0.000448872)
(0.00636704 -0.209178 0.00275795)
(0.0018655 -0.208703 0.00149117)
(0.00637598 -0.208236 0.00276471)
(0.00186871 -0.207666 0.00149636)
(-3.19452e-05 -0.216156 0.000274181)
(-3.25794e-05 -0.216156 -0.000274724)
(-4.90078e-05 -0.215278 0.000275897)
(-4.95526e-05 -0.215278 -0.000276717)
(-0.000334442 -0.208434 0.000429185)
(-0.000334819 -0.208435 -0.000429745)
(-0.000336549 -0.207346 0.000430965)
(-0.000336842 -0.207346 -0.000432277)
(-1.50159e-05 -0.21629 -0.000445431)
(-0.00563149 -0.216501 0.00148011)
(-3.26869e-05 -0.215443 -0.000450245)
(-0.00565343 -0.215712 0.0014768)
(0.00186391 -0.208708 -0.00149116)
(0.00636416 -0.209186 -0.0027561)
(0.00186804 -0.20767 -0.0014986)
(0.00637546 -0.208242 -0.00276969)
(-0.0405685 -0.216682 0.00319862)
(0.0400263 -0.216931 0.808174)
(-0.0406102 -0.215965 0.00319719)
(0.0400775 -0.216324 0.811796)
(-0.0491726 -0.209696 0.0102104)
(0.0367349 -0.20922 0.957845)
(-0.0492543 -0.208893 0.0102137)
(0.0368358 -0.208668 0.958023)
(0.0400296 -0.218055 -0.81018)
(-0.0404969 -0.218075 -0.00319315)
(0.0400332 -0.217485 -0.810832)
(-0.0405552 -0.217406 -0.0031933)
(0.0365382 -0.210332 -0.953535)
(-0.0489297 -0.211244 -0.0102135)
(0.0365548 -0.209775 -0.953301)
(-0.048969 -0.21048 -0.0102187)
(-0.00554329 -0.217999 -0.00148388)
(6.55151e-05 -0.217891 0.000438178)
(-0.00559441 -0.217266 -0.00148216)
(1.90871e-05 -0.217108 0.000441014)
(0.0063551 -0.210996 0.00274375)
(0.00186661 -0.210697 0.00148197)
(0.00636713 -0.2101 0.00275346)
(0.00186558 -0.209716 0.00148721)
(4.05523e-05 -0.217815 0.000271255)
(3.98729e-05 -0.217815 -0.000271048)
(-2.33521e-06 -0.217004 0.000272472)
(-2.92501e-06 -0.217004 -0.000272727)
(-0.000324204 -0.21052 0.000426575)
(-0.000324522 -0.210521 -0.000425363)
(-0.00032982 -0.209494 0.000427967)
(-0.000330167 -0.209495 -0.000427663)
(6.37992e-05 -0.217892 -0.000437835)
(-0.0055416 -0.217998 0.00148286)
(1.79209e-05 -0.217109 -0.000441355)
(-0.0055891 -0.217267 0.00148039)
(0.00186512 -0.210699 -0.00147928)
(0.00635211 -0.210999 -0.00273755)
(0.00186393 -0.20972 -0.00148588)
(0.00636379 -0.210107 -0.00275016)
(-0.0404939 -0.218057 0.00319465)
(0.0400241 -0.218075 0.807442)
(-0.0405275 -0.217388 0.0031951)
(0.0399984 -0.217505 0.807879)
(-0.0488974 -0.211253 0.0101975)
(0.0365017 -0.21031 0.957318)
(-0.0489586 -0.210486 0.0102147)
(0.0365384 -0.209757 0.953303)
(0.0400776 -0.219064 -0.801433)
(-0.04032 -0.219302 -0.00318949)
(0.0399913 -0.218581 -0.805157)
(-0.0403732 -0.218708 -0.00318889)
(0.0363519 -0.211329 -0.956739)
(-0.0486176 -0.212694 -0.0101789)
(0.0363838 -0.210839 -0.953027)
(-0.0487185 -0.211989 -0.0101954)
(-0.00538375 -0.21933 -0.00147865)
(0.000211899 -0.219316 0.000435211)
(-0.00546716 -0.218689 -0.00148071)
(0.000129899 -0.21863 0.000436181)
(0.00635119 -0.212668 0.00272452)
(0.00187691 -0.212527 0.00147172)
(0.00635558 -0.211854 0.00273296)
(0.00187072 -0.211636 0.00147599)
(0.000173804 -0.21929 0.000269406)
(0.000173047 -0.21929 -0.000268076)
(9.87091e-05 -0.218579 0.000270073)
(9.78863e-05 -0.218579 -0.000269158)
(-0.000310652 -0.212437 0.00042365)
(-0.000310969 -0.212437 -0.000422672)
(-0.000317226 -0.211504 0.000424828)
(-0.000317534 -0.211504 -0.000423587)
(0.000209936 -0.219315 -0.00043356)
(-0.00538098 -0.219329 0.00148042)
(0.000127318 -0.21863 -0.000434813)
(-0.00546876 -0.218687 0.00148165)
(0.00187538 -0.212528 -0.00147102)
(0.00634926 -0.212666 -0.00272664)
(0.00186936 -0.211637 -0.00147356)
(0.00635423 -0.211853 -0.00272716)
(-0.040291 -0.219309 0.00318057)
(0.0400392 -0.219051 0.804547)
(-0.0403733 -0.218692 0.00318595)
(0.0399921 -0.218596 0.805505)
(-0.0485591 -0.212679 0.0101784)
(0.0362753 -0.211363 0.952467)
(-0.0486438 -0.21198 0.0101788)
(0.0363028 -0.21086 0.956884)
(0.0401931 -0.219864 -0.805297)
(-0.0400336 -0.22027 -0.00317585)
(0.0401342 -0.219487 -0.80264)
(-0.0401959 -0.219825 -0.00318251)
(0.0362677 -0.2122 -0.957618)
(-0.0483192 -0.213931 -0.0101292)
(0.0362574 -0.211796 -0.960681)
(-0.048413 -0.213336 -0.0101484)
(-0.0051429 -0.220418 -0.00147416)
(0.000442171 -0.220499 0.000433155)
(-0.00527486 -0.21991 -0.00147573)
(0.000315921 -0.21994 0.00043363)
(0.00636011 -0.214134 0.00271332)
(0.00189705 -0.214135 0.00146361)
(0.00635765 -0.21343 0.00271529)
(0.00188456 -0.213362 0.0014667)
(0.000384932 -0.220524 0.000267585)
(0.000384343 -0.220524 -0.000267309)
(0.000268162 -0.21994 0.000268122)
(0.000267489 -0.219941 -0.000267341)
(-0.000274524 -0.214105 0.000421017)
(-0.000274975 -0.214106 -0.000420261)
(-0.000302723 -0.213308 0.000422093)
(-0.000303071 -0.213309 -0.000421559)
(0.000441226 -0.220501 -0.000433284)
(-0.00513543 -0.220422 0.00147217)
(0.000314552 -0.219941 -0.000433435)
(-0.00526854 -0.219911 0.00147376)
(0.0018948 -0.214138 -0.00146233)
(0.00635765 -0.214139 -0.00271029)
(0.00188269 -0.213365 -0.00146695)
(0.00635527 -0.213433 -0.0027198)
(-0.0399977 -0.220277 0.00317406)
(0.0401379 -0.219865 0.799653)
(-0.0401552 -0.219839 0.00317679)
(0.040075 -0.21948 0.799502)
(-0.0482789 -0.213938 0.0101257)
(0.0362084 -0.212186 0.958452)
(-0.0483928 -0.213338 0.0101587)
(0.0362151 -0.211794 0.954197)
(0.0403061 -0.220333 -0.802971)
(-0.0395768 -0.220942 -0.00316017)
(0.0401981 -0.220153 -0.803446)
(-0.0397862 -0.22064 -0.00316669)
(0.0360251 -0.212726 -0.953489)
(-0.0478009 -0.214912 -0.0100797)
(0.0360644 -0.212509 -0.955106)
(-0.0479849 -0.214462 -0.0101057)
(-0.00479894 -0.221186 -0.00145949)
(0.000740861 -0.221367 0.000436345)
(-0.00497641 -0.220847 -0.00146655)
(0.000586101 -0.220982 0.000434319)
(0.00641295 -0.215305 0.00270693)
(0.00203435 -0.21544 0.0014569)
(0.00638823 -0.214765 0.00270955)
(0.00194387 -0.214833 0.00146034)
(0.000688452 -0.221424 0.000265184)
(0.000688111 -0.221425 -0.000264852)
(0.000525361 -0.221024 0.000266995)
(0.000524867 -0.221025 -0.000266461)
(-0.00012031 -0.215452 0.000417952)
(-0.000120944 -0.215453 -0.000417549)
(-0.000208429 -0.214822 0.00041978)
(-0.000208995 -0.214823 -0.000418828)
(0.000740597 -0.221368 -0.000436192)
(-0.00478972 -0.221189 0.00145889)
(0.000585198 -0.220984 -0.000433776)
(-0.00497143 -0.220852 0.00146671)
(0.00203054 -0.215442 -0.00145546)
(0.00640541 -0.215304 -0.00270263)
(0.0019409 -0.214836 -0.00145857)
(0.00638242 -0.214766 -0.00270603)
(-0.0395432 -0.220969 0.00315887)
(0.0402572 -0.220312 0.79975)
(-0.0397836 -0.220664 0.00316183)
(0.0401832 -0.220136 0.797708)
(-0.0478364 -0.214899 0.0100727)
(0.0360545 -0.21275 0.956756)
(-0.0479865 -0.214461 0.0100986)
(0.0360581 -0.212507 0.957319)
(0.0406003 -0.220388 -0.798901)
(-0.0390653 -0.221182 -0.00314458)
(0.0404568 -0.220411 -0.801134)
(-0.0393532 -0.221131 -0.00315041)
(0.0359559 -0.212874 -0.955083)
(-0.0473297 -0.215486 -0.0100279)
(0.0359577 -0.212851 -0.955192)
(-0.0475333 -0.215258 -0.0100546)
(-0.00434495 -0.221524 -0.00143866)
(0.00113341 -0.221781 0.0004421)
(-0.00458989 -0.221415 -0.00144814)
(0.000920926 -0.221635 0.000438816)
(0.00648883 -0.21607 0.00270144)
(0.0022333 -0.216321 0.00145213)
(0.00644969 -0.215744 0.00270417)
(0.00213398 -0.215939 0.00145448)
(0.00109707 -0.221882 0.000261802)
(0.0010972 -0.221882 -0.000262283)
(0.000877849 -0.221713 0.000263064)
(0.000877755 -0.221714 -0.000263077)
(8.10302e-05 -0.216394 0.0004156)
(8.04823e-05 -0.216393 -0.000415684)
(-2.3046e-05 -0.21598 0.000416852)
(-2.36813e-05 -0.21598 -0.00041601)
(0.00113537 -0.221782 -0.000443195)
(-0.00433146 -0.221529 0.00143685)
(0.00092211 -0.221635 -0.000439408)
(-0.00457361 -0.221418 0.00144602)
(0.00223036 -0.216318 -0.00145267)
(0.00648749 -0.216062 -0.00270429)
(0.00213043 -0.215938 -0.00145261)
(0.00644617 -0.21574 -0.00269991)
(-0.0390103 -0.221199 0.00314752)
(0.0405191 -0.220387 0.795719)
(-0.0392485 -0.221146 0.00315314)
(0.0403267 -0.220404 0.797856)
(-0.0473586 -0.215489 0.0100398)
(0.0359738 -0.212889 0.950572)
(-0.047554 -0.215245 0.0100481)
(0.0359664 -0.212886 0.954781)
(0.0409316 -0.219915 -0.791892)
(-0.0383387 -0.220903 -0.00312698)
(0.0407186 -0.22022 -0.793748)
(-0.0386945 -0.221117 -0.00313459)
(0.0358213 -0.212502 -0.954593)
(-0.0466835 -0.215561 -0.0099495)
(0.0358051 -0.212769 -0.954674)
(-0.0469319 -0.215592 -0.00998728)
(-0.00374639 -0.221336 -0.00141562)
(0.00167282 -0.221666 0.000449602)
(-0.00406051 -0.221502 -0.00142543)
(0.00138349 -0.221796 0.000445601)
(0.00662145 -0.216303 0.00268105)
(0.00245999 -0.216675 0.00144491)