/*--------------------------------*- C++ -*----------------------------------*\
  =========                 |
  \\      /  F ield         | OpenFOAM: The Open Source CFD Toolbox
   \\    /   O peration     | Website:  https://openfoam.org
    \\  /    A nd           | Version:  9
     \\/     M anipulation  |
\*---------------------------------------------------------------------------*/
FoamFile
{
    format      ascii;
    class       volScalarField;
    location    "1.5";
    object      k;
}
// * * * * * * * * * * * * * * * * * * * * * * * * * * * * * * * * * * * * * //

dimensions      [0 2 -2 0 0 0 0];

internalField   nonuniform List<scalar> 
4545
(
0.00521083
0.0148439
0.00524212
0.0148428
0.0052107
0.0776267
0.170071
0.0881278
0.170064
0.0776216
0.404724
0.52234
0.39682
0.52233
0.404711
0.813671
0.829049
0.706784
0.829042
0.813658
1.07513
1.04477
0.922807
1.04477
1.07512
1.24622
1.19816
1.07752
1.19816
1.24621
1.36483
1.30986
1.19081
1.30986
1.36482
1.45073
1.39281
1.27527
1.39281
1.45072
1.51399
1.45485
1.33873
1.45486
1.514
1.56051
1.50107
1.38625
1.5011
1.56054
1.59421
1.53484
1.42132
1.5349
1.59398
1.61744
1.55868
1.44648
1.55877
1.61736
1.63305
1.57458
1.46358
1.5746
1.63296
1.64239
1.58383
1.47404
1.58394
1.64244
1.64597
1.58729
1.47877
1.58746
1.64619
1.64551
1.58671
1.47905
1.58678
1.6452
1.64139
1.58248
1.47595
1.58257
1.64099
1.63311
1.57407
1.46864
1.57417
1.63323
1.62182
1.56268
1.45817
1.56269
1.62189
1.60797
1.5485
1.44502
1.5484
1.6077
1.59174
1.53183
1.42947
1.53169
1.59126
1.57367
1.51299
1.41167
1.51284
1.57265
1.55367
1.49221
1.39182
1.49207
1.55295
1.53134
1.46947
1.3703
1.46935
1.53091
1.50714
1.4449
1.34739
1.44475
1.50605
1.48139
1.41871
1.32295
1.41863
1.48055
1.45405
1.39104
1.2971
1.39106
1.45377
1.42613
1.36212
1.2699
1.362
1.42512
1.39687
1.33182
1.24139
1.33162
1.39585
1.36576
1.30011
1.21166
1.29996
1.36535
1.33376
1.2672
1.1808
1.26707
1.33314
1.30045
1.23313
1.14884
1.23306
1.3003
1.26618
1.19796
1.11585
1.19792
1.26621
1.2308
1.16172
1.08184
1.1617
1.23076
1.19419
1.12445
1.04676
1.12444
1.19418
1.1565
1.0861
1.01051
1.0861
1.15649
1.11768
1.0465
0.972891
1.04649
1.11768
1.07762
1.00502
0.933473
1.00502
1.07761
1.03536
0.959994
0.891744
0.959992
1.03535
0.0718391
0.272355
0.0602516
0.272335
0.0718333
0.849591
1.04372
0.649173
1.0437
0.849555
1.94945
1.88616
1.50025
1.88614
1.94943
2.61593
2.48081
2.1186
2.4808
2.61591
3.05223
2.89968
2.55927
2.89967
3.05222
3.35655
3.1999
2.87606
3.1999
3.35653
3.57669
3.41894
3.10796
3.41893
3.57667
3.73864
3.58052
3.27974
3.58052
3.73864
3.85783
3.69978
3.40734
3.6998
3.85784
3.94453
3.78674
3.50133
3.78677
3.94442
4.00597
3.84846
3.56907
3.84841
4.00474
4.04605
3.89
3.61596
3.89
4.04507
4.07043
3.91544
3.64601
3.91541
4.07012
4.08319
3.92767
3.66225
3.92773
4.08262
4.08474
3.92852
3.6668
3.92865
4.08416
4.07734
3.92112
3.66249
3.92102
4.07582
4.06095
3.90497
3.6496
3.90489
4.05888
4.03646
3.88165
3.62909
3.88176
4.03607
4.00566
3.85213
3.60222
3.85216
4.0058
3.97038
3.81709
3.56966
3.81698
3.97008
3.9308
3.77717
3.53211
3.77692
3.9296
3.88747
3.73304
3.49011
3.73256
3.88425
3.83886
3.68491
3.44406
3.68454
3.83669
3.78519
3.63285
3.39408
3.63256
3.78379
3.72797
3.57721
3.34036
3.57672
3.7246
3.66739
3.51832
3.28329
3.51792
3.66421
3.60313
3.45653
3.22333
3.45631
3.60081
3.53693
3.39234
3.16057
3.3919
3.53342
3.46803
3.32562
3.09511
3.3251
3.46527
3.39554
3.25623
3.02712
3.25587
3.39453
3.32102
3.18458
2.95673
3.18422
3.31934
3.24373
3.11068
2.88405
3.11053
3.24326
3.16464
3.03465
2.8091
3.03461
3.16506
3.08346
2.95643
2.73187
2.95641
3.08343
2.9994
2.87595
2.65225
2.87596
2.99939
2.91302
2.79301
2.56997
2.79303
2.91304
2.82433
2.70701
2.48442
2.70703
2.82435
2.73336
2.61643
2.39458
2.61643
2.73337
2.63761
2.51688
2.29944
2.51689
2.63761
0.218351
0.50088
0.173549
0.50085
0.218332
1.49933
1.52404
1.12529
1.52401
1.49928
2.64639
2.48646
2.11176
2.48644
2.64636
3.38076
3.17397
2.83244
3.17395
3.38073
3.87654
3.66539
3.35279
3.66538
3.87652
4.22852
4.02199
3.73204
4.02198
4.2285
4.48513
4.28419
4.01176
4.28418
4.48511
4.6742
4.47826
4.21955
4.47826
4.67419
4.81337
4.62162
4.37387
4.62162
4.81337
4.91431
4.72605
4.48726
4.72605
4.91431
4.98525
4.79992
4.56862
4.79994
4.98521
5.0322
4.84942
4.62444
4.84946
5.03219
5.05969
4.87909
4.65955
4.87916
5.05976
5.07132
4.89254
4.67769
4.89262
5.07141
5.06959
4.89232
4.68163
4.89241
5.06969
5.05722
4.88152
4.67444
4.88161
5.05726
5.03426
4.86007
4.65647
4.86011
5.03424
5.0027
4.82999
4.62941
4.83004
5.00277
4.96364
4.79243
4.59464
4.79245
4.96369
4.91789
4.74819
4.55303
4.74817
4.91786
4.86616
4.69806
4.50537
4.698
4.86602
4.80902
4.64263
4.45229
4.64255
4.80875
4.74682
4.58236
4.39429
4.58229
4.74659
4.67988
4.51764
4.33176
4.51757
4.6797
4.60858
4.44879
4.26505
4.44872
4.60831
4.53323
4.37616
4.1945
4.37611
4.53299
4.45411
4.30002
4.12041
4.29999
4.45393
4.37154
4.2206
4.04293
4.22054
4.3713
4.28565
4.13803
3.96223
4.13798
4.28542
4.19651
4.05247
3.87849
4.05244
4.19638
4.10431
3.96404
3.79181
3.96403
4.1042
4.00918
3.87283
3.70227
3.87285
4.00917
3.91122
3.77889
3.60987
3.77894
3.9113
3.81045
3.68218
3.51455
3.68223
3.81052
3.70677
3.58256
3.41614
3.58261
3.70685
3.60008
3.47975
3.3143
3.47979
3.60014
3.49013
3.37312
3.20848
3.37315
3.49019
3.37675
3.2614
3.09789
3.26143
3.37679
3.257
3.14129
2.98216
3.14131
3.25703
0.401459
0.737776
0.333741
0.737746
0.401431
1.9853
1.90651
1.52042
1.90648
1.98525
3.10685
2.90593
2.54889
2.90591
3.10682
3.86248
3.63223
3.31318
3.63222
3.86245
4.38581
4.1589
3.87203
4.15889
4.38579
4.76291
4.54522
4.28344
4.54522
4.7629
5.04023
4.83146
4.589
4.83146
5.04022
5.24567
5.04444
4.817
5.04444
5.24566
5.39732
5.20228
4.98673
5.20228
5.39732
5.50747
5.3175
5.11156
5.31751
5.50748
5.58487
5.39911
5.20107
5.39914
5.5849
5.63605
5.45378
5.26233
5.45383
5.63611
5.66579
5.48651
5.30065
5.48658
5.66588
5.67785
5.50117
5.32011
5.50124
5.67797
5.67518
5.50065
5.32379
5.50074
5.67532
5.66055
5.48817
5.31495
5.48826
5.66069
5.63438
5.46396
5.29415
5.46403
5.6345
5.5988
5.43023
5.26338
5.43029
5.59892
5.55499
5.38824
5.22412
5.38829
5.55509
5.50385
5.33894
5.17735
5.33897
5.50392
5.44616
5.28317
5.12396
5.28319
5.44621
5.38257
5.2216
5.06465
5.22162
5.3826
5.31358
5.15478
4.99999
5.1548
5.31362
5.23961
5.08315
4.93046
5.08318
5.23965
5.16101
5.00709
4.85643
5.00713
5.16105
5.07811
4.92693
4.77826
4.92698
5.07817
4.99116
4.84295
4.69623
4.843
4.99124
4.90041
4.75534
4.61052
4.7554
4.90049
4.80599
4.66428
4.52129
4.66434
4.80607
4.70803
4.56986
4.42865
4.56993
4.70812
4.60665
4.47217
4.33268
4.47225
4.60676
4.50192
4.37125
4.2334
4.37134
4.50205
4.39386
4.2671
4.13076
4.26719
4.394
4.28244
4.15963
4.02467
4.15971
4.28258
4.16756
4.04869
3.91492
4.04877
4.16769
4.04906
3.934
3.80122
3.93408
4.04918
3.92683
3.81511
3.6831
3.81517
3.92694
3.80097
3.69107
3.56006
3.69113
3.80105
3.66926
3.55942
3.43207
3.55947
3.66934
0.610659
0.936417
0.518685
0.93639
0.610615
2.32231
2.19419
1.81642
2.19417
2.32227
3.42883
3.20966
2.86826
3.20965
3.4288
4.19285
3.95482
3.65353
3.95481
4.19282
4.73235
4.50172
4.23361
4.50171
4.73233
5.12619
4.90686
4.66451
4.90686
5.12617
5.41834
5.20935
4.98678
5.20935
5.41833
5.63611
5.43573
5.22851
5.43573
5.63612
5.79764
5.60426
5.40915
5.60428
5.79766
5.91542
5.72778
5.54239
5.7278
5.91545
5.99855
5.81561
5.63816
5.81564
5.9986
6.05379
5.87476
5.70388
5.87481
6.05386
6.08614
5.91044
5.74513
5.9105
6.08624
6.09959
5.92676
5.76618
5.92683
6.09971
6.09724
5.92681
5.77036
5.9269
6.09737
6.08208
5.91398
5.76106
5.91407
6.08223
6.05469
5.88869
5.73909
5.88878
6.05484
6.01732
5.85329
5.70655
5.85337
6.01747
5.97127
5.80913
5.665
5.80922
5.97142
5.91755
5.75729
5.61558
5.75737
5.9177
5.85703
5.69868
5.55922
5.69876
5.85716
5.7904
5.63403
5.49671
5.63411
5.79054
5.71823
5.56394
5.42866
5.56403
5.71837
5.641
5.48892
5.35559
5.48901
5.64115
5.55909
5.40936
5.27793
5.40945
5.55924
5.47281
5.32559
5.19602
5.32569
5.47297
5.38241
5.23787
5.1101
5.23797
5.38258
5.28807
5.14638
5.02037
5.14649
5.28825
5.18991
5.05123
4.92695
5.05134
5.1901
5.08802
4.9525
4.82987
4.95261
5.08821
4.98241
4.85018
4.72916
4.8503
4.98261
4.87305
4.74423
4.62474
4.74435
4.87326
4.75988
4.63457
4.5165
4.63469
4.76009
4.64276
4.52104
4.40427
4.52116
4.64297
4.52154
4.40345
4.28783
4.40357
4.52174
4.39606
4.28155
4.16686
4.28166
4.39624
4.26629
4.15496
4.041
4.15505
4.26645
4.13255
4.02296
3.90986
4.02305
4.13269
3.99311
3.8835
3.7735
3.88357
3.99323
0.825537
1.10314
0.690576
1.10311
0.82549
2.55541
2.40363
2.0344
2.40361
2.55537
3.65722
3.42949
3.0999
3.42948
3.65718
4.42632
4.18567
3.89698
4.18567
4.4263
4.97643
4.74535
4.49002
4.74535
4.97642
5.38211
5.16333
4.93379
5.16333
5.3821
5.68537
5.47753
5.26779
5.47753
5.68537
5.91279
5.71399
5.5196
5.71401
5.91281
6.08233
5.89089
5.70857
5.89091
6.08237
6.20657
6.02112
5.84848
6.02115
6.20662
6.29478
6.11421
5.94944
6.11426
6.29484
6.35385
6.17736
6.01908
6.17741
6.35394
6.38896
6.21593
6.06314
6.216
6.38907
6.40429
6.23421
6.08607
6.23429
6.40442
6.40302
6.23547
6.09136
6.23556
6.40317
6.38841
6.22314
6.08246
6.22324
6.38858
6.36111
6.19798
6.06051
6.19809
6.36128
6.32348
6.16228
6.02756
6.16239
6.32366
6.27694
6.11757
5.98535
6.11768
6.27713
6.22259
6.065
5.93509
6.06512
6.22279
6.16139
6.00557
5.87779
6.00569
6.16159
6.09411
5.94007
5.81429
5.94019
6.09431
6.02136
5.86916
5.74528
5.86928
6.02157
5.94366
5.79337
5.6713
5.7935
5.94388
5.86142
5.71313
5.59281
5.71326
5.86164
5.77494
5.62875
5.51013
5.62889
5.77517
5.68445
5.54048
5.4235
5.54063
5.68469
5.5901
5.44845
5.33307
5.4486
5.59035
5.49192
5.35273
5.23889
5.35288
5.49218
5.38992
5.25328
5.14094
5.25344
5.39018
5.28399
5.15002
5.03912
5.15018
5.28426
5.17397
5.04279
4.93326
5.04296
5.17424
5.05965
4.93138
4.82314
4.93154
5.05992
4.94077
4.81554
4.70847
4.81569
4.94104
4.81706
4.69498
4.58895
4.69513
4.81732
4.68831
4.56939
4.46422
4.56953
4.68855
4.55449
4.43842
4.33389
4.43855
4.55471
4.41601
4.30141
4.1976
4.30153
4.41621
4.27133
4.15645
4.05535
4.15655
4.2715
0.99703
1.23192
0.825451
1.23189
0.996984
2.71664
2.55088
2.18881
2.55086
2.7166
3.81599
3.58373
3.26267
3.58372
3.81596
4.58885
4.34727
4.06731
4.34726
4.58882
5.14643
4.91565
4.66895
4.91565
5.14642
5.56069
5.3427
5.12166
5.34271
5.56069
5.87225
5.66549
5.46412
5.6655
5.87227
6.10711
5.90958
5.72345
5.9096
6.10714
6.283
6.09297
5.91882
6.093
6.28305
6.41252
6.22858
6.06401
6.22862
6.41259
6.50502
6.32604
6.16926
6.3261
6.50511
6.5675
6.39265
6.24228
6.39271
6.5676
6.60527
6.43391
6.28894
6.43399
6.6054
6.62264
6.45425
6.31384
6.45434
6.62279
6.62286
6.45703
6.32058
6.45714
6.62303
6.60943
6.44578
6.31266
6.44589
6.60961
6.58307
6.42154
6.29153
6.42165
6.58327
6.54623
6.38653
6.25919
6.38665
6.54644
6.50044
6.34243
6.21749
6.34256
6.50067
6.4469
6.29048
6.16774
6.29062
6.44713
6.38664
6.23176
6.11104
6.2319
6.38688
6.3205
6.16713
6.04828
6.16728
6.32075
6.24918
6.0973
5.98021
6.09745
6.24943
6.17321
6.02283
5.90741
6.02299
6.17348
6.09303
5.94418
5.83035
5.94434
6.09331
6.00895
5.86167
5.74936
5.86184
6.00924
5.92118
5.77551
5.66466
5.77569
5.92148
5.82979
5.68579
5.57635
5.68598
5.8301
5.73477
5.5925
5.4844
5.59269
5.73508
5.63597
5.49551
5.38871
5.4957
5.63629
5.53316
5.3946
5.28903
5.39479
5.53349
5.42602
5.28946
5.18506
5.28966
5.42635
5.31414
5.17973
5.07642
5.17992
5.31446
5.19707
5.06498
4.96268
5.06517
5.19739
5.07439
4.94478
4.84337
4.94496
5.0747
4.94573
4.81871
4.71802
4.81888
4.94603
4.81098
4.6863
4.58615
4.68646
4.81126
4.67054
4.54685
4.44726
4.54699
4.67079
4.52285
4.39842
4.30123
4.39855
4.52307
1.11281
1.31982
0.917418
1.31979
1.11276
2.82041
2.6465
2.28939
2.64649
2.82037
3.91892
3.68423
3.3688
3.68422
3.91889
4.69493
4.45305
4.17878
4.45305
4.69491
5.25794
5.02755
4.7864
5.02755
5.25793
5.67832
5.461
5.24535
5.461
5.67832
5.99586
5.7899
5.5938
5.78992
5.99589
6.23616
6.03952
5.85855
6.03955
6.2362
6.41679
6.22771
6.05864
6.22775
6.41685
6.55035
6.36739
6.20783
6.36744
6.55043
6.64623
6.46826
6.3164
6.46832
6.64633
6.7115
6.53767
6.39217
6.53774
6.71162
6.75159
6.58124
6.44108
6.58133
6.75173
6.7709
6.6035
6.46783
6.6036
6.77107
6.7728
6.60792
6.47614
6.60803
6.77298
6.76078
6.59801
6.46949
6.59813
6.76098
6.73593
6.57517
6.44969
6.5753
6.73614
6.70057
6.54151
6.41861
6.54165
6.7008
6.65639
6.49885
6.37827
6.49899
6.65663
6.60468
6.44851
6.33003
6.44866
6.60493
6.54655
6.39165
6.27508
6.3918
6.54682
6.48294
6.3292
6.21439
6.32936
6.48322
6.41458
6.26193
6.14875
6.2621
6.41487
6.34209
6.19046
6.0788
6.19064
6.34239
6.26592
6.11527
6.00503
6.11546
6.26624
6.18641
6.03669
5.92779
6.03688
6.18673
6.10373
5.95492
5.84728
5.95512
6.10407
6.01793
5.87
5.76355
5.87021
6.01828
5.92889
5.78185
5.67652
5.78207
5.92925
5.83636
5.69023
5.58596
5.69045
5.83673
5.73995
5.59477
5.49149
5.59499
5.74032
5.63911
5.49498
5.39262
5.4952
5.63949
5.53322
5.39028
5.28877
5.3905
5.5336
5.42158
5.28002
5.1793
5.28024
5.42196
5.30351
5.16355
5.06351
5.16377
5.30388
5.17842
5.04023
4.94073
5.04044
5.17876
5.04597
4.90939
4.81025
4.90958
5.04629
4.90644
4.77016
4.67141
4.77034
4.90674
4.75817
4.62047
4.52383
4.62063
4.75844
1.17216
1.36577
0.965517
1.36575
1.17211
2.87469
2.69682
2.34243
2.69681
2.87465
3.97424
3.73837
3.42602
3.73836
3.9742
4.75313
4.51114
4.23997
4.51113
4.75311
5.31999
5.08985
4.85173
5.08985
5.31998
5.74445
5.52752
5.31483
5.52753
5.74446
6.06592
5.86042
5.6672
5.86043
6.06594
6.30976
6.11363
5.93549
6.11366
6.30981
6.49352
6.30497
6.13868
6.30502
6.49359
6.62979
6.44738
6.29055
6.44744
6.62988
6.728
6.55059
6.40143
6.55066
6.72811
6.7953
6.62203
6.47918
6.6221
6.79543
6.83718
6.66738
6.52982
6.66747
6.83734
6.85814
6.69124
6.55814
6.69134
6.85831
6.86161
6.69718
6.56793
6.69729
6.8618
6.85109
6.68869
6.56265
6.68881
6.85129
6.82798
6.66748
6.54442
6.66761
6.8282
6.79449
6.63554
6.51501
6.63568
6.79473
6.75246
6.59483
6.47655
6.59498
6.75271
6.70326
6.54676
6.4305
6.54692
6.70353
6.6481
6.49257
6.37812
6.49273
6.64838
6.58799
6.43326
6.32046
6.43343
6.58828
6.52376
6.36967
6.25837
6.36985
6.52406
6.45607
6.30248
6.19256
6.30267
6.45639
6.38544
6.23222
6.12356
6.23242
6.38577
6.31224
6.15925
6.05174
6.15946
6.31258
6.23666
6.08379
5.97733
6.084
6.23702
6.15872
6.00585
5.90035
6.00607
6.15909
6.07824
5.92528
5.82066
5.92551
6.07863
5.99486
5.84176
5.73792
5.84199
5.99526
5.90802
5.75474
5.65161
5.75498
5.90842
5.81695
5.66355
5.56104
5.66379
5.81736
5.72075
5.56734
5.46539
5.56758
5.72116
5.6184
5.46518
5.36372
5.46542
5.61881
5.50887
5.35609
5.25503
5.35632
5.50927
5.39119
5.23909
5.13831
5.23931
5.39158
5.26472
5.1132
5.01254
5.11341
5.26508
5.12944
4.97725
4.87674
4.97744
5.12978
4.98345
4.82891
4.73021
4.82908
4.98375
1.1775
1.37094
0.970971
1.37092
1.17745
2.88394
2.70562
2.3518
2.70561
2.8839
3.98648
3.75039
3.43877
3.75039
3.98645
4.7681
4.52605
4.25567
4.52604
4.76808
5.33745
5.10733
4.87005
5.10733
5.33744
5.76414
5.54729
5.33544
5.54729
5.76415
6.08755
5.88218
5.68981
5.88219
6.08758
6.3331
6.13712
5.95984
6.13715
6.33315
6.51835
6.32998
6.16454
6.33002
6.51841
6.65594
6.47372
6.31774
6.47377
6.65603
6.75535
6.57813
6.42981
6.5782
6.75546
6.82378
6.6507
6.50869
6.65078
6.82391
6.8668
6.69716
6.56043
6.69725
6.86694
6.88893
6.72216
6.58988
6.72227
6.8891
6.8937
6.72934
6.60088
6.72945
6.89388
6.88455
6.72214
6.59688
6.72227
6.88475
6.8632
6.70257
6.58026
6.7027
6.86341
6.83172
6.6725
6.55267
6.67264
6.83195
6.79208
6.634
6.51638
6.63415
6.79233
6.74576
6.58858
6.47292
6.58873
6.74602
6.69404
6.53753
6.42362
6.5377
6.69432
6.63804
6.48197
6.36961
6.48214
6.63833
6.57868
6.4228
6.31183
6.42299
6.57899
6.51671
6.36079
6.25105
6.36098
6.51703
6.45271
6.29652
6.18788
6.29672
6.45305
6.38713
6.23044
6.12277
6.23065
6.38748
6.32023
6.1628
6.05598
6.16301
6.3206
6.25206
6.09365
5.98755
6.09387
6.25243
6.18241
6.02282
5.91733
6.02306
6.1828
6.11086
5.94992
5.84491
5.95015
6.11127
6.03671
5.87427
5.76964
5.87451
6.03712
5.95897
5.79498
5.69063
5.79523
5.95939
5.87644
5.71094
5.60677
5.71119
5.87686
5.78769
5.62084
5.51678
5.62109
5.78811
5.69122
5.52328
5.41924
5.52352
5.69163
5.58555
5.41679
5.31266
5.41702
5.58595
5.46949
5.2999
5.19556
5.30013
5.46987
5.34256
5.17098
5.06645
5.17119
5.34292
5.20239
5.02729
4.92419
5.02748
5.20271
1.13068
1.33655
0.935054
1.33652
1.13063
2.84973
2.67429
2.31893
2.67428
2.84969
3.95718
3.72174
3.40856
3.72173
3.95714
4.74139
4.49927
4.22747
4.49926
4.74137
5.3119
5.08156
4.84299
5.08156
5.31189
5.73898
5.52189
5.30888
5.5219
5.73899
6.0624
5.8568
5.66336
5.85682
6.06243
6.30779
6.11162
5.93332
6.11164
6.30784
6.49285
6.30431
6.13791
6.30435
6.49292
6.63032
6.44795
6.29105
6.448
6.63041
6.72973
6.55237
6.40317
6.55243
6.72984
6.79834
6.6251
6.48223
6.62517
6.79845
6.84172
6.67192
6.53435
6.672
6.84186
6.86446
6.69751
6.5644
6.69761
6.86462
6.87011
6.70553
6.57625
6.70563
6.87029
6.86211
6.69941
6.57332
6.69952
6.8623
6.84236
6.68134
6.5582
6.68146
6.84255
6.81285
6.65311
6.53245
6.65324
6.81306
6.77566
6.61689
6.49841
6.61703
6.77588
6.73233
6.57424
6.45769
6.57438
6.73256
6.68423
6.52654
6.4117
6.52669
6.68448
6.63257
6.47498
6.36162
6.47514
6.63283
6.57838
6.42056
6.30851
6.42073
6.57866
6.52253
6.36416
6.25324
6.36434
6.52283
6.46576
6.30649
6.19654
6.30668
6.46607
6.40861
6.24809
6.13895
6.24829
6.40894
6.35146
6.18933
6.08083
6.18953
6.35181
6.29447
6.13033
6.02233
6.13055
6.29484
6.23753
6.07101
5.96333
6.07123
6.23791
6.18019
6.01095
5.90344
6.01118
6.18058
6.1217
5.94943
5.84193
5.94967
6.12211
6.06094
5.88541
5.77777
5.88565
6.06135
5.99639
5.81749
5.70958
5.81773
5.99681
5.92619
5.74394
5.63564
5.74419
5.92661
5.84822
5.66282
5.55403
5.66306
5.84863
5.76029
5.572
5.4626
5.57223
5.76069
5.66038
5.46926
5.35913
5.46948
5.66076
5.54722
5.35221
5.24142
5.35242
5.54757
5.41771
5.21744
5.10758
5.21763
5.41803
1.03287
1.26375
0.858779
1.26372
1.03282
2.77099
2.60197
2.24296
2.60195
2.77095
3.88507
3.65128
3.33422
3.65127
3.88504
4.67171
4.42959
4.15406
4.42958
4.67168
5.24198
5.01119
4.76913
5.01119
5.24197
5.66753
5.44989
5.23361
5.4499
5.66753
5.98892
5.78276
5.58622
5.78278
5.98894
6.23222
6.03551
5.85424
6.03553
6.23226
6.41539
6.22632
6.05705
6.22635
6.41544
6.55126
6.36838
6.20869
6.36842
6.55133
6.64945
6.47159
6.31966
6.47164
6.64953
6.71722
6.5435
6.39796
6.54356
6.71732
6.76018
6.58989
6.44971
6.58996
6.7603
6.78292
6.61547
6.47978
6.61555
6.78305
6.78899
6.62387
6.49206
6.62396
6.78913
6.7818
6.61852
6.48993
6.61862
6.78196
6.76337
6.60172
6.47611
6.60183
6.76354
6.73566
6.5752
6.45208
6.57531
6.73584
6.7008
6.54118
6.42025
6.5413
6.70099
6.66038
6.50127
6.38227
6.5014
6.66059
6.61586
6.45692
6.33961
6.45705
6.61607
6.56852
6.40939
6.29355
6.40953
6.56875
6.5195
6.35979
6.24522
6.35994
6.51974
6.46981
6.30911
6.19562
6.30927
6.47007
6.42034
6.25819
6.14559
6.25836
6.42062
6.37183
6.20774
6.09583
6.20792
6.37213
6.32485
6.15828
6.04686
6.15847
6.32516
6.27973
6.11013
5.999
6.11033
6.28006
6.23658
6.06335
5.95229
6.06356
6.23693
6.19526
6.01778
5.90653
6.01799
6.19562
6.1551
5.9728
5.86115
5.97302
6.15547
6.11492
5.92732
5.81505
5.92755
6.1153
6.073
5.87972
5.76663
5.87995
6.07338
6.02706
5.82786
5.71374
5.82808
6.02745
5.97433
5.76916
5.65385
5.76939
5.97471
5.91161
5.70062
5.58396
5.70084
5.91198
5.83569
5.61892
5.50078
5.61913
5.83604
5.74393
5.52044
5.4009
5.52064
5.74426
5.63201
5.40053
5.28121
5.40071
5.63232
0.886149
1.15438
0.743861
1.15436
0.886095
2.64355
2.48535
2.12061
2.48533
2.64351
3.76586
3.53515
3.2117
3.53514
3.76582
4.55467
4.31283
4.03102
4.31283
4.55464
5.12306
4.89173
4.64369
4.89172
5.12304
5.5449
5.32648
5.10449
5.32648
5.5449
5.86204
5.65502
5.453
5.65503
5.86205
6.10124
5.90362
5.71705
5.90364
6.10126
6.28075
6.09076
5.91632
6.09079
6.28078
6.41354
6.22975
6.06501
6.22979
6.41359
6.50929
6.33053
6.17365
6.33057
6.50935
6.57526
6.40064
6.25023
6.40068
6.57534
6.61704
6.44585
6.30088
6.4459
6.61713
6.63918
6.47082
6.33042
6.47088
6.63929
6.6452
6.47917
6.34271
6.47924
6.64532
6.63848
6.47426
6.34109
6.47434
6.63861
6.62107
6.45844
6.32831
6.45853
6.6212
6.59489
6.43339
6.30581
6.43348
6.59503
6.56209
6.40136
6.27601
6.40145
6.56224
6.52429
6.36396
6.24059
6.36406
6.52445
6.483
6.3227
6.20105
6.32281
6.48317
6.43959
6.2789
6.15876
6.27902
6.43977
6.39532
6.23379
6.11493
6.23391
6.39551
6.35135
6.18849
6.07072
6.18862
6.35156
6.30878
6.14403
6.02712
6.14417
6.30901
6.2686
6.10133
5.98507
6.10148
6.26884
6.23167
6.06118
5.94534
6.06135
6.23193
6.19867
6.0242
5.9085
6.02437
6.19895
6.17001
5.99072
5.8749
5.9909
6.17031
6.14575
5.96075
5.84451
5.96094
6.14607
6.12562
5.93393
5.81691
5.93412
6.12594
6.10878
5.90944
5.7913
5.90964
6.10912
6.09399
5.88596
5.76624
5.88616
6.09433
6.07883
5.86144
5.73985
5.86165
6.07917
6.05975
5.83257
5.70881
5.83277
6.06009
6.03238
5.79509
5.6689
5.79528
6.03271
5.99177
5.7442
5.61538
5.74438
5.99208
5.93305
5.67427
5.54287
5.67445
5.93335
5.84952
5.57838
5.44608
5.57854
5.84979
0.698809
1.01152
0.594638
1.01149
0.698755
2.45878
2.31793
1.94581
2.31791
2.45874
3.59143
3.36628
3.03367
3.36627
3.5914
4.38203
4.14126
3.85016
4.14125
4.38201
4.94637
4.71466
4.45757
4.71465
4.94635
5.36183
5.14253
4.91176
5.14252
5.36183
5.67219
5.46405
5.25347
5.46406
5.67219
5.90507
5.7062
5.51123
5.7062
5.90508
6.0791
5.88777
5.70508
5.88778
6.07912
6.20736
6.02217
5.84931
6.02219
6.20739
6.29952
6.11931
5.95443
6.11934
6.29956
6.36281
6.18671
6.02841
6.18674
6.36287
6.40274
6.23006
6.07729
6.2301
6.40281
6.4238
6.25393
6.10584
6.25397
6.42387
6.42941
6.26187
6.11782
6.26192
6.42949
6.42292
6.25718
6.1165
6.25723
6.423
6.4063
6.24214
6.10462
6.2422
6.40638
6.38144
6.21841
6.08353
6.21847
6.38153
6.35047
6.18818
6.05564
6.18825
6.35056
6.315
6.15309
6.02262
6.15316
6.3151
6.27656
6.11463
5.98599
6.1147
6.27666
6.23657
6.07418
5.94714
6.07426
6.23669
6.19639
6.03304
5.90738
6.03312
6.19652
6.1573
5.99244
5.86796
5.99254
6.15746
6.12062
5.9536
5.83006
5.95371
6.12079
6.08758
5.91767
5.79485
5.9178
6.08778
6.05943
5.88577
5.76339
5.88591
6.05966
6.03733
5.85893
5.73668
5.85907
6.03757
6.02232
5.83803
5.71557
5.83818
6.02258
6.01517
5.82372
5.70066
5.82388
6.01543
6.01634
5.81626
5.69213
5.81642
6.01661
6.02544
5.81543
5.68974
5.81559
6.02572
6.04193
5.81998
5.69219
5.82015
6.04221
6.0637
5.82818
5.69752
5.82834
6.06398
6.08797
5.83695
5.7027
5.83711
6.08825
6.10979
5.84207
5.70358
5.84223
6.11005
6.12157
5.83641
5.69354
5.83656
6.12182
6.11508
5.8111
5.66356
5.81124
6.11532
6.07893
5.75459
5.60413
5.75472
6.07915
0.497003
0.838001
0.422669
0.837965
0.496958
2.19946
2.08868
1.70867
2.08866
2.19941
3.34819
3.13344
2.78857
3.13343
3.34815
4.13973
3.90197
3.5978
3.90196
4.1397
4.69665
4.46541
4.1952
4.4654
4.69663
5.10217
4.88229
4.63846
4.88228
5.10215
5.40265
5.19335
4.96977
5.19335
5.40264
5.62672
5.4263
5.2184
5.4263
5.62672
5.79336
5.60018
5.40463
5.60019
5.79337
5.91566
5.7284
5.54275
5.72841
5.91567
6.00316
5.82075
5.64318
5.82076
6.00318
6.06303
5.88461
5.71372
5.88462
6.06306
6.10063
5.92554
5.76029
5.92556
6.10067
6.12031
5.94798
5.78751
5.94799
6.12034
6.12537
5.95532
5.79903
5.95535
6.1254
6.11906
5.95079
5.798
5.95082
6.11909
6.10323
5.93656
5.78706
5.93658
6.10326
6.07969
5.91416
5.76745
5.91419
6.07973
6.05051
5.88575
5.74154
5.88579
6.05055
6.01725
5.8529
5.71092
5.85294
6.01729
5.9814
5.81708
5.6771
5.81712
5.98145
5.94441
5.77967
5.64147
5.77972
5.94447
5.90764
5.74199
5.60537
5.74205
5.90772
5.87249
5.70535
5.57012
5.70543
5.87261
5.84042
5.67111
5.53704
5.67121
5.84058
5.81293
5.64064
5.50749
5.64076
5.81313
5.79163
5.61538
5.48288
5.61551
5.79184
5.77819
5.59681
5.46464
5.59695
5.77842
5.77437
5.58643
5.4542
5.58657
5.77461
5.7816
5.5857
5.45297
5.58584
5.78184
5.80189
5.59568
5.46184
5.59581
5.80212
5.83702
5.61818
5.48248
5.61831
5.83725
5.88756
5.65342
5.51501
5.65354
5.88778
5.95312
5.70051
5.55836
5.70063
5.95333
6.03167
5.75707
5.60996
5.75719
6.03188
6.1194
5.81856
5.66502
5.81867
6.11959
6.20981
5.87848
5.71685
5.87859
6.20999
6.28867
5.92368
5.75364
5.92378
6.28884
6.33496
5.93421
5.75752
5.9343
6.33511
0.324588
0.637296
0.26281
0.637257
0.324556
1.82725
1.78436
1.39285
1.78433
1.82718
3.01361
2.82019
2.45924
2.82017
3.01357
3.80264
3.57338
3.25113
3.57337
3.80262
4.34599
4.11867
3.82945
4.11866
4.34597
4.73619
4.51804
4.25461
4.51803
4.73617
5.02268
4.81369
4.57009
4.81368
5.02267
5.23494
5.03377
4.80556
5.03376
5.23493
5.39203
5.1973
4.98124
5.1973
5.39202
5.5069
5.31747
5.11121
5.31746
5.50689
5.58881
5.40377
5.20557
5.40376
5.5888
5.64469
5.46328
5.2718
5.46328
5.64469
5.67973
5.50135
5.31557
5.50135
5.67972
5.69805
5.52222
5.34132
5.52221
5.69803
5.70277
5.52907
5.35246
5.52905
5.70274
5.69699
5.52494
5.35194
5.52492
5.69695
5.68239
5.51186
5.34234
5.51185
5.68235
5.66059
5.49118
5.32464
5.49118
5.66057
5.63358
5.46497
5.30112
5.46498
5.63359
5.60284
5.43469
5.2733
5.4347
5.60285
5.56977
5.40173
5.24259
5.40175
5.56979
5.53572
5.3674
5.21032
5.36745
5.53578
5.50205
5.33299
5.17779
5.33307
5.50217
5.47015
5.29981
5.14633
5.29994
5.47036
5.44155
5.26927
5.11733
5.26944
5.44185
5.41792
5.24288
5.09226
5.24307
5.41827
5.40111
5.22231
5.07278
5.22252
5.40148
5.39327
5.20945
5.06071
5.20965
5.39362
5.39662
5.2064
5.05812
5.20659
5.39695
5.41359
5.21504
5.06673
5.2152
5.41388
5.44838
5.23874
5.08976
5.23887
5.44863
5.50438
5.28073
5.13023
5.28085
5.50459
5.58541
5.34369
5.19049
5.34379
5.58559
5.69542
5.43038
5.27288
5.43046
5.69558
5.83715
5.54222
5.37839
5.54229
5.83729
6.01123
5.6778
5.50489
5.67787
6.01136
6.21407
5.83147
5.64624
5.83153
6.21418
6.43657
5.99107
5.78952
5.99113
6.43667
6.64081
6.12478
5.9084
6.12482
6.6409
0.163713
0.40742
0.125981
0.407386
0.163694
1.33052
1.39955
0.99622
1.39952
1.33047
2.54664
2.39721
2.01884
2.39719
2.54661
3.31738
3.11272
2.76801
3.11271
3.31736
3.83476
3.62374
3.30882
3.62373
3.83474
4.20061
3.99393
3.70236
3.99392
4.20059
4.46672
4.26579
3.99222
4.26578
4.4667
4.6627
4.46702
4.20751
4.46701
4.66268
4.80727
4.61602
4.36772
4.61601
4.80726
4.91282
4.72527
4.48612
4.72525
4.91275
4.98809
4.80367
4.57215
4.80364
4.98797
5.03952
4.85778
4.63271
4.85776
5.03939
5.07196
4.89251
4.67299
4.89248
5.07179
5.08937
4.9118
4.69707
4.91174
5.08915
5.09453
4.91854
4.70808
4.91847
5.09433
5.0903
4.91545
4.70863
4.91535
5.09001
5.07816
4.90443
4.70117
4.90434
5.07784
5.0592
4.88641
4.68631
4.88638
5.0591
5.03553
4.86341
4.66621
4.86343
5.03557
5.00856
4.83676
4.64224
4.83678
5.00857
4.97936
4.80766
4.61564
4.8077
4.97947
4.94916
4.77726
4.58763
4.77737
4.94946
4.91929
4.74675
4.55938
4.74695
4.91972
4.89095
4.71733
4.53212
4.71765
4.89161
4.86561
4.69033
4.50716
4.69078
4.86653
4.84493
4.66726
4.48596
4.66776
4.84595
4.83086
4.64985
4.47025
4.65031
4.83176
4.82581
4.64014
4.46206
4.64056
4.82649
4.83192
4.64053
4.46371
4.6409
4.8325
4.85266
4.65326
4.47744
4.65356
4.85312
4.89368
4.68358
4.50827
4.68378
4.89392
4.96029
4.73625
4.56075
4.73639
4.96043
5.05994
4.81706
4.64029
4.81715
5.06011
5.20213
4.93363
4.75392
4.93369
5.20228
5.39903
5.09525
4.90991
5.09529
5.39911
5.66571
5.31177
5.11673
5.3118
5.66576
6.01906
5.59191
5.38073
5.59194
6.01911
6.4701
5.93539
5.69914
5.93541
6.47014
6.99927
6.31329
6.04295
6.3133
6.99931
0.0512624
0.214903
0.0412272
0.214883
0.0512568
0.707829
0.94033
0.545694
0.940302
0.707782
1.85264
1.80288
1.41454
1.80286
1.85262
2.55492
2.42377
2.05876
2.42376
2.5549
3.01274
2.86145
2.51919
2.86145
3.01272
3.33035
3.17439
2.84925
3.17438
3.33033
3.55924
3.40216
3.09026
3.40215
3.55922
3.72741
3.57008
3.26862
3.57006
3.72739
3.85155
3.69429
3.4013
3.69427
3.85151
3.94238
3.78543
3.49956
3.78536
3.94159
4.00762
3.85105
3.57125
3.85084
4.00606
4.05208
3.89657
3.62213
3.89631
4.05031
4.08083
3.9261
3.65645
3.92588
4.07869
4.09762
3.94312
3.67761
3.94277
4.09517
4.10436
3.95001
3.68823
3.94968
4.10281
4.10447
3.949
3.69035
3.94852
4.10183
4.09777
3.94172
3.68608
3.94123
4.09435
4.08285
3.92803
3.67571
3.928
4.08211
4.06439
3.91026
3.66088
3.91047
4.06491
4.04485
3.88962
3.6429
3.88986
4.04449
4.02236
3.86681
3.6227
3.86713
4.02317
3.99835
3.84284
3.60128
3.84349
4.00091
3.9758
3.81872
3.57959
3.81968
3.97811
3.95399
3.79528
3.55855
3.79655
3.95699
3.93453
3.77372
3.53927
3.77534
3.93918
3.91909
3.75524
3.52296
3.75695
3.92365
3.90906
3.74142
3.51112
3.74286
3.91201
3.90835
3.73422
3.50569
3.73519
3.90895
3.91559
3.7354
3.50865
3.73613
3.91601
3.93493
3.74718
3.52246
3.7478
3.93501
3.97484
3.77564
3.5527
3.77597
3.97238
4.03944
3.82647
3.60496
3.82667
4.03731
4.1387
3.90735
3.68673
3.90758
4.13877
4.28597
4.02974
3.80921
4.02988
4.28656
4.49694
4.21082
3.9895
4.21087
4.49699
4.81322
4.48166
4.25587
4.48167
4.81325
5.30467
4.88683
4.64726
4.88683
5.30468
6.08288
5.4899
5.2131
5.4899
6.08288
7.30183
6.34924
6.01028
6.34924
7.30184
0.0048056
0.0109134
0.00456824
0.0109125
0.00480551
0.0572713
0.137071
0.0647917
0.137064
0.0572665
0.351053
0.475687
0.351326
0.475678
0.351043
0.774088
0.79719
0.675195
0.797185
0.774079
1.05048
1.02382
0.90181
1.02381
1.05047
1.23097
1.18432
1.0636
1.18431
1.23096
1.35516
1.30063
1.18153
1.30063
1.35515
1.44465
1.38677
1.2692
1.38676
1.44463
1.5106
1.45121
1.33507
1.4512
1.51059
1.55929
1.49941
1.38456
1.49941
1.55911
1.59497
1.53503
1.42144
1.535
1.59451
1.62035
1.56073
1.44843
1.56071
1.61983
1.63769
1.57849
1.4675
1.57852
1.63725
1.64911
1.5901
1.48026
1.59004
1.64835
1.6557
1.5967
1.48796
1.59658
1.65513
1.65881
1.59925
1.49145
1.59911
1.65789
1.65848
1.59869
1.49175
1.59857
1.6574
1.6547
1.5954
1.48962
1.59543
1.6546
1.64861
1.58963
1.48493
1.58975
1.64901
1.64186
1.58248
1.47867
1.58263
1.64204
1.63367
1.5742
1.47128
1.57429
1.63391
1.6247
1.56521
1.4632
1.56544
1.62562
1.61596
1.55598
1.45486
1.55643
1.61724
1.60733
1.54691
1.44669
1.54757
1.60908
1.59961
1.53854
1.43916
1.53942
1.60221
1.5934
1.53144
1.43279
1.53239
1.59614
1.5895
1.52637
1.4283
1.52716
1.59146
1.58946
1.52439
1.42684
1.52508
1.59065
1.59237
1.52622
1.42894
1.52681
1.59333
1.60015
1.533
1.43602
1.53353
1.60104
1.61657
1.54835
1.45134
1.54873
1.61659
1.64362
1.576
1.47838
1.57626
1.64348
1.68557
1.62048
1.5215
1.6206
1.68576
1.74613
1.6889
1.58785
1.68894
1.7463
1.85952
1.79328
1.68843
1.79333
1.85963
2.03444
1.95333
1.84174
1.95335
2.0345
2.30516
2.20132
2.07902
2.20132
2.30515
2.82261
2.61061
2.45551