/*--------------------------------*- C++ -*----------------------------------*\
  =========                 |
  \\      /  F ield         | OpenFOAM: The Open Source CFD Toolbox
   \\    /   O peration     | Website:  https://openfoam.org
    \\  /    A nd           | Version:  9
     \\/     M anipulation  |
\*---------------------------------------------------------------------------*/
FoamFile
{
    format      ascii;
    class       volScalarField;
    location    "1.6";
    object      k;
}
// * * * * * * * * * * * * * * * * * * * * * * * * * * * * * * * * * * * * * //

dimensions      [0 2 -2 0 0 0 0];

internalField   nonuniform List<scalar> 
36360
(
0.0562321
0.0446961
0.0195665
0.0175967
0.0110678
0.00780055
0.00457237
0.00393215
0.0119066
0.00316772
0.00437408
0.00272221
0.00320875
0.00222057
0.00295005
0.00298455
0.00195802
0.00195808
0.00279978
0.00279977
0.00218994
0.00218995
0.00299514
0.00299514
0.00316665
0.0119034
0.00272208
0.00437329
0.00222059
0.00320834
0.00298454
0.00294999
0.044698
0.0562471
0.0175949
0.0195711
0.00780069
0.0110705
0.00393202
0.00457267
0.106281
0.0859722
0.0853599
0.068105
0.0319499
0.0228812
0.0226989
0.0158396
0.0392215
0.0138135
0.0266085
0.0065836
0.00958984
0.00283629
0.00533474
0.00215133
0.00307781
0.00307423
0.00201725
0.00201617
0.00145663
0.00145632
0.00170063
0.00170057
0.0138052
0.0392214
0.00657918
0.0266053
0.00283461
0.0095885
0.0021506
0.00533365
0.0859877
0.106318
0.0681135
0.0853856
0.0228856
0.0319622
0.0158414
0.0227064
0.130848
0.107621
0.120836
0.0987216
0.0429066
0.0319283
0.0384782
0.0282089
0.0559163
0.0257007
0.048917
0.020544
0.0161371
0.00602853
0.0133594
0.00441466
0.00920158
0.0091929
0.00582975
0.00582242
0.00181819
0.00181626
0.0015397
0.00153878
0.0256927
0.0559228
0.0205353
0.0489201
0.00602411
0.0161374
0.00441132
0.0133588
0.10765
0.130905
0.0987442
0.120883
0.0319381
0.042928
0.028216
0.0384951
0.142057
0.11768
0.137617
0.113688
0.0477259
0.0360292
0.0458428
0.0344243
0.063972
0.0318278
0.060766
0.0293737
0.0192638
0.00806914
0.0180382
0.00724986
0.0139685
0.0139601
0.0119842
0.0119754
0.00256152
0.00255821
0.00222918
0.00222644
0.0318221
0.0639846
0.0293668
0.0607758
0.00806389
0.0192659
0.00724487
0.0180395
0.117721
0.142132
0.113724
0.137683
0.0360435
0.047755
0.0344365
0.0458683
0.146618
0.121781
0.144903
0.120242
0.0495945
0.0376129
0.0489049
0.0370317
0.0672602
0.0343274
0.0660321
0.0334024
0.0204654
0.00887085
0.0200274
0.00858257
0.0160229
0.0160151
0.0152691
0.0152611
0.0029232
0.00291936
0.00279079
0.00278715
0.0343233
0.0672768
0.0333978
0.0660471
0.00886541
0.0204687
0.00857719
0.0200302
0.12183
0.146705
0.120288
0.144985
0.0376301
0.0496286
0.0370477
0.0489368
0.148163
0.123161
0.147637
0.122694
0.0501895
0.0381056
0.0499933
0.0379466
0.0683518
0.0351271
0.0679864
0.0348664
0.0208344
0.00910196
0.0207158
0.00903112
0.0166443
0.0166366
0.016452
0.0164443
0.00302821
0.00302421
0.0029974
0.00299345
0.0351235
0.0683703
0.0348627
0.0680041
0.00909644
0.0208381
0.00902564
0.0207193
0.123214
0.148257
0.122745
0.147728
0.0381242
0.0502261
0.0379646
0.050029
0.148523
0.123478
0.148443
0.123409
0.0503132
0.0381967
0.0502912
0.0381859
0.0686031
0.0352988
0.0685503
0.035268
0.020909
0.00914023
0.0208969
0.00913775
0.0167517
0.0167439
0.0167444
0.0167367
0.00304154
0.00303749
0.00304266
0.00303862
0.0352953
0.0686222
0.0352645
0.0685692
0.00913464
0.0209128
0.0091322
0.0209007
0.123533
0.148619
0.123463
0.148539
0.0382158
0.0503507
0.0382049
0.0503285
0.148489
0.123451
0.148541
0.123496
0.0502964
0.0381734
0.0503169
0.0381963
0.0685917
0.0352922
0.0686236
0.0353152
0.0209027
0.00913511
0.0209141
0.00914341
0.0167414
0.0167335
0.0167632
0.0167553
0.0030374
0.00303334
0.00304244
0.00303839
0.0352886
0.0686109
0.0353117
0.0686427
0.00912951
0.0209065
0.00913783
0.020918
0.123506
0.148586
0.123551
0.148638
0.0381926
0.0503341
0.0382155
0.0503546
0.148325
0.123318
0.148436
0.12341
0.0502342
0.0381123
0.0502772
0.0381534
0.0685025
0.0352345
0.068568
0.0352794
0.020871
0.00911441
0.0208945
0.00912997
0.0166926
0.0166847
0.0167313
0.0167234
0.00302576
0.00302169
0.00303435
0.00303029
0.0352308
0.0685215
0.0352758
0.0685871
0.00910878
0.0208749
0.00912436
0.0208984
0.123373
0.148422
0.123465
0.148533
0.0381314
0.050272
0.0381726
0.050315
0.148091
0.123132
0.148233
0.123247
0.0501483
0.0380335
0.050202
0.0380827
0.0683719
0.0351471
0.068457
0.0352067
0.0208246
0.00908453
0.0208557
0.0091049
0.0166215
0.0166135
0.0166713
0.0166634
0.00300995
0.00300588
0.00302073
0.00301667
0.0351433
0.0683908
0.035203
0.068476
0.00907887
0.0208284
0.00909927
0.0208595
0.123186
0.148188
0.123302
0.148331
0.0380526
0.0501859
0.0381018
0.0502397
0.147811
0.122913
0.147975
0.123043
0.0500471
0.0379438
0.0501081
0.0379979
0.0682183
0.0350428
0.068314
0.0351111
0.0207696
0.00904918
0.0208048
0.00907264
0.0165374
0.0165293
0.0165943
0.0165862
0.00299162
0.00298756
0.00300384
0.00299978
0.0350389
0.068237
0.0351072
0.0683328
0.0090435
0.0207733
0.00906698
0.0208086
0.122967
0.147908
0.123098
0.148072
0.0379628
0.0500846
0.038017
0.0501456
0.147491
0.122667
0.147675
0.122811
0.0499321
0.0378435
0.0499999
0.037903
0.0680454
0.0349249
0.0681505
0.0349999
0.0207067
0.00900916
0.0207458
0.00903498
0.0164426
0.0164344
0.0165055
0.0164974
0.00297109
0.00296703
0.00298452
0.00298046
0.0349209
0.0680639
0.0349959
0.0681691
0.00900344
0.0207104
0.00902929
0.0207496
0.122721
0.147587
0.122865
0.147771
0.0378623
0.0499694
0.037922
0.0500374
0.147132
0.122395
0.147335
0.122552
0.0498035
0.037733
0.0498781
0.0377976
0.0678545
0.0347939
0.0679686
0.0348755
0.0206364
0.00896452
0.0206793
0.00899266
0.0163376
0.0163293
0.0164058
0.0163975
0.00294833
0.00294428
0.00296289
0.00295883
0.0347896
0.0678729
0.0348713
0.0679871
0.00895878
0.02064
0.00898694
0.0206829
0.122448
0.147227
0.122605
0.147431
0.0377517
0.0498407
0.0378165
0.0499154
0.146733
0.122096
0.146956
0.122266
0.0496612
0.0376118
0.0497427
0.0376819
0.0676452
0.0346492
0.0677686
0.0347376
0.0205586
0.00891514
0.0206052
0.00894568
0.016222
0.0162136
0.0162955
0.0162872
0.0029233
0.00291925
0.002939
0.00293495
0.0346448
0.0676633
0.0347333
0.0677868
0.00890936
0.0205621
0.00893992
0.0206088
0.122149
0.146828
0.12232
0.147051
0.0376305
0.0496983
0.0377006
0.0497799
0.146292
0.121768
0.146536
0.121953
0.0495043
0.0374792
0.0495933
0.0375551
0.0674161
0.0344902
0.0675495
0.0345858
0.0204727
0.00886068
0.0205235
0.00889378
0.0160951
0.0160866
0.0161743
0.0161659
0.00289583
0.00289179
0.00291275
0.0029087
0.0344856
0.067434
0.0345814
0.0675675
0.00885487
0.0204762
0.008888
0.020527
0.121821
0.146387
0.122006
0.146631
0.0374977
0.0495412
0.0375737
0.0496302
0.145808
0.12141
0.146074
0.12161
0.0493321
0.0373342
0.0494288
0.0374164
0.0671662
0.0343163
0.0673101
0.0344194
0.0203784
0.00880087
0.0204334
0.00883667
0.0159565
0.0159479
0.0160415
0.016033
0.00286582
0.00286179
0.00288399
0.00287996
0.0343115
0.0671839
0.0344148
0.0673279
0.00879504
0.0203818
0.00883086
0.0204368
0.121463
0.145902
0.121663
0.146168
0.0373526
0.0493688
0.0374348
0.0494655
0.145279
0.121021
0.145567
0.121237
0.0491439
0.0371757
0.0492487
0.0372647
0.0668945
0.0341268
0.0670494
0.0342377
0.0202751
0.00873545
0.0203346
0.00877408
0.0158055
0.0157968
0.0158967
0.0158881
0.00283315
0.00282914
0.00285263
0.00284861
0.0341219
0.0669118
0.034233
0.0670669
0.00872958
0.0202784
0.00876823
0.020338
0.121074
0.145373
0.12129
0.145662
0.0371939
0.0491803
0.037283
0.0492852
0.144702
0.120599
0.145015
0.120831
0.0489386
0.0370026
0.049052
0.037099
0.0665994
0.033921
0.0667661
0.0340401
0.0201623
0.00866412
0.0202267
0.00870572
0.0156418
0.0156329
0.0157394
0.0157306
0.00279774
0.00279374
0.00281857
0.00281457
0.0339158
0.0666165
0.0340352
0.0667834
0.00865821
0.0201655
0.00869983
0.0202299
0.12065
0.144796
0.120884
0.145108
0.0370207
0.0489749
0.0371172
0.0490884
0.144076
0.120141
0.144413
0.120391
0.0487156
0.0368143
0.0488379
0.0369183
0.0662801
0.0336981
0.0664589
0.0338258
0.0200396
0.00858662
0.0201089
0.0086313
0.0154647
0.0154557
0.0155689
0.01556
0.00275951
0.00275553
0.00278172
0.00277773
0.0336927
0.0662969
0.0338206
0.0664759
0.00858067
0.0200427
0.00862538
0.0201121
0.120192
0.144169
0.120443
0.144506
0.0368322
0.0487515
0.0369363
0.048874
0.143399
0.119647
0.143762
0.119916
0.0484743
0.0366108
0.0486058
0.0367223
0.0659357
0.0334576
0.0661272
0.0335941
0.0199069
0.00850277
0.0199812
0.00855062
0.015274
0.0152648
0.0153849
0.0153759
0.00271841
0.00271444
0.00274201
0.00273804
0.033452
0.0659522
0.0335887
0.0661438
0.00849678
0.0199099
0.00854466
0.0199843
0.119698
0.143491
0.119967
0.143854
0.0366285
0.04851
0.0367401
0.0486416
0.14267
0.119116
0.143059
0.119403
0.0482145
0.0363932
0.0483552
0.0365118
0.0655656
0.0331993
0.0657699
0.0333446
0.0197638
0.00841245
0.0198433
0.00846352
0.0150695
0.0150602
0.0151872
0.015178
0.00267443
0.00267049
0.00269942
0.00269547
0.0331934
0.0655817
0.033339
0.0657862
0.00840642
0.0197667
0.00845752
0.0198463
0.119167
0.142761
0.119454
0.14315
0.0364107
0.0482499
0.0365294
0.0483908
0.141889
0.118549
0.142303
0.118854
0.047936
0.03616
0.048086
0.0362865
0.0651697
0.0329229
0.0653868
0.0330772
0.0196103
0.00831559
0.019695
0.0083699
0.0148513
0.0148418
0.0149757
0.0149663
0.00262763
0.00262371
0.00265398
0.00265005
0.0329168
0.0651854
0.0330713
0.0654027
0.00830951
0.019613
0.00836385
0.0196978
0.118598
0.141979
0.118904
0.142394
0.0361773
0.0479711
0.0363039
0.0481213
0.141057
0.117945
0.141497
0.118268
0.0476391
0.0359112
0.0477982
0.0360454
0.0647483
0.0326289
0.064978
0.0327919
0.0194463
0.00821223
0.0195362
0.00826974
0.0146196
0.01461
0.0147506
0.014741
0.00257809
0.0025742
0.00260574
0.00260183
0.0326225
0.0647636
0.0327857
0.0649936
0.00820611
0.0194489
0.00826364
0.0195389
0.117994
0.141147
0.118317
0.141587
0.0359283
0.0476739
0.0360626
0.0478332
0.140177
0.117305
0.140641
0.117646
0.0473245
0.0356472
0.0474924
0.0357889
0.0643021
0.0323175
0.064544
0.032489
0.019272
0.00810253
0.019367
0.00816314
0.0143751
0.0143653
0.0145123
0.0145025
0.00252597
0.00252211
0.00255483
0.00255095
0.0323108
0.064317
0.0324825
0.0645592
0.00809636
0.0192744
0.008157
0.0193695
0.117354
0.140266
0.117695
0.14073
0.035664
0.0473589
0.0358059
0.047527
0.139251
0.116633
0.139737
0.116989
0.0469931
0.0353679
0.0471692
0.0355172
0.0638325
0.0319899
0.0640858
0.0321693
0.0190878
0.00798678
0.0191876
0.00805033
0.0141186
0.0141086
0.0142614
0.0142515
0.00247148
0.00246765
0.00250143
0.00249758
0.0319829
0.0638469
0.0321624
0.0641005
0.00798056
0.0190901
0.00804414
0.01919
0.116681
0.139339
0.117038
0.139826
0.0353845
0.0470272
0.0355339
0.0472035
0.138284
0.115932
0.138791
0.116302
0.0466461
0.035075
0.0468299
0.0352307
0.0633415
0.0316472
0.0636052
0.0318338
0.0188945
0.00786537
0.0189987
0.00793165
0.0138512
0.0138409
0.0139991
0.013989
0.00241488
0.0024111
0.00244578
0.00244197
0.0316399
0.0633556
0.0318267
0.0636194
0.00785911
0.0188966
0.00792542
0.019001
0.115979
0.138371
0.11635
0.138878
0.0350913
0.0466798
0.0352471
0.0468637
0.137279
0.115204
0.137804
0.115588
0.0462849
0.0347704
0.0464755
0.0349317
0.0628308
0.0312908
0.0631041
0.031484
0.0186927
0.00773879
0.018801
0.00780754
0.0135743
0.0135638
0.0137266
0.0137163
0.00235653
0.00235278
0.00238819
0.00238442
0.0312831
0.0628444
0.0314765
0.0631179
0.00773249
0.0186947
0.00780126
0.0188031
0.11525
0.137365
0.115634
0.13789
0.0347864
0.0463182
0.0349479
0.046509
0.136241
0.114451
0.136781
0.114846
0.0459112
0.0344559
0.0461078
0.0346218
0.0623024
0.0309221
0.0625841
0.0311211
0.0184834
0.00760768
0.0185953
0.00767855
0.0132895
0.0132789
0.0134453
0.0134348
0.00229681
0.0022931
0.00232903
0.00232531
0.0309141
0.0623155
0.0311133
0.0625975
0.00760133
0.0184852
0.00767222
0.0185973
0.114496
0.136326
0.114892
0.136867
0.0344716
0.0459441
0.0346377
0.0461409
0.135176
0.113677
0.135729
0.114082
0.0455272
0.0341343
0.0457286
0.0343033
0.0617585
0.0305432
0.0620476
0.030747
0.0182677
0.00747286
0.0183826
0.00754541
0.012999
0.0129882
0.0131572
0.0131465
0.00223619
0.00223254
0.00226873
0.00226505
0.0305348
0.0617711
0.0307388
0.0620605
0.00746647
0.0182694
0.00753904
0.0183844
0.113722
0.13526
0.114128
0.135814
0.0341497
0.0455597
0.0343189
0.0457613
0.134089
0.112883
0.134652
0.113298
0.0451356
0.033809
0.0453404
0.0339794
0.0612008
0.0301564
0.0614965
0.0303636
0.0180472
0.00733545
0.0181642
0.00740908
0.0127054
0.0126943
0.0128646
0.0128536
0.00217521
0.00217161
0.00220779
0.00220416
0.0301477
0.0612129
0.0303551
0.0615089
0.00732903
0.0180487
0.00740268
0.0181659
0.112927
0.134172
0.113343
0.134736
0.0338241
0.0451677
0.0339947
0.0453727
0.132989
0.112067
0.133557
0.112493
0.0447402
0.0334881
0.0449463
0.0336554
0.0606328
0.0297654
0.0609328
0.029974
0.0178239
0.00719672
0.017942
0.0072708
0.0124114
0.0124002
0.0125702
0.0125591
0.00211438
0.00211083
0.00214675
0.00214317
0.0297564
0.0606444
0.0299652
0.0609447
0.00719027
0.0178252
0.00726436
0.0179435
0.11211
0.133071
0.112537
0.13364
0.0335028
0.0447718
0.0336703
0.0449782
0.131887
0.111243
0.132455
0.11167
0.0443444
0.0331678
0.0445503
0.0333352
0.0600631
0.0293747
0.0603628
0.0295826
0.0175996
0.00705786
0.017718
0.0071318
0.01212
0.0121085
0.0122769
0.0122656
0.00205419
0.0020507
0.00208611
0.00208259
0.0293654
0.0600742
0.0295735
0.0603742
0.00705138
0.0176008
0.00712534
0.0177193
0.111286
0.131968
0.111714
0.132536
0.0331822
0.0443756
0.0333498
0.0445818
0.130789
0.110423
0.131355
0.110849
0.04395
0.032848
0.0441551
0.0330151
0.059495
0.0289865
0.0597938
0.0291929
0.0173757
0.00691984
0.0174938
0.0069932
0.0118331
0.0118215
0.0119873
0.0119759
0.00199507
0.00199164
0.00202633
0.00202287
0.0289768
0.0595056
0.0291834
0.0598048
0.00691333
0.0173767
0.00698671
0.0174949
0.110465
0.130869
0.110891
0.131435
0.0328621
0.0439807
0.0330294
0.0441861
0.129685
0.109596
0.130256
0.110027
0.0435547
0.0325271
0.0437609
0.0326952
0.0589237
0.0285995
0.0592253
0.0288057
0.0171516
0.00678306
0.0172699
0.00685575
0.0115516
0.0115399
0.011703
0.0116914
0.00193731
0.00193394
0.0019678
0.0019644
0.0285895
0.0589338
0.0287959
0.0592357
0.00677654
0.0171525
0.00684924
0.0172709
0.109637
0.129764
0.110069
0.130335
0.0325409
0.043585
0.0327092
0.0437914
0.128536
0.108729
0.129138
0.109186
0.043146
0.0321957
0.0433615
0.032371
0.0583273
0.0282022
0.0586459
0.0284159
0.0169227
0.00664602
0.0170445
0.00671919
0.0112715
0.0112597
0.0114231
0.0114113
0.00188074
0.00187744
0.00191065
0.00190731
0.028192
0.0583369
0.0284058
0.0586558
0.00663949
0.0169234
0.00671267
0.0170453
0.108769
0.128613
0.109227
0.129215
0.0322092
0.0431757
0.0323846
0.0433915
0.127236
0.107736
0.127931
0.108272
0.0426864
0.0318254
0.0429343
0.0320255
0.0576429
0.0277562
0.0580171
0.0280017
0.0166714
0.00650112
0.0168077
0.00657976
0.0109741
0.0109622
0.011138
0.0111261
0.00182368
0.00182045
0.00185416
0.00185089
0.0277457
0.0576518
0.0279913
0.0580264
0.0064946
0.0166719
0.00657323
0.0168084
0.107775
0.127311
0.108311
0.128007
0.0318385
0.0427154
0.0320387
0.0429636
0.12557
0.106425
0.126483
0.107153
0.0420914
0.0313482
0.0424213
0.0316137
0.0567176
0.0271587
0.05724
0.0274989
0.0163502
0.00632426
0.0165303
0.00642353
0.0106012
0.0105893
0.0108138
0.0108019
0.00175984
0.0017567
0.00179491
0.00179172
0.0271478
0.0567257
0.0274882
0.0572486
0.00631777
0.0163505
0.00641702
0.0165307
0.106462
0.125642
0.107191
0.126557
0.0313606
0.0421194
0.0316265
0.0424498
0.123206
0.104295
0.124507
0.105539
0.0412152
0.0305997
0.0417058
0.0310326
0.0551512
0.026157
0.0560735
0.026745
0.0158348
0.00604966
0.016136
0.00620999
0.0100079
0.0099959
0.0103556
0.0103436
0.0016713
0.00166832
0.00172193
0.00171885
0.0261457
0.0551581
0.026734
0.0560811
0.00604323
0.0158347
0.00620352
0.0161361
0.10433
0.123276
0.105575
0.124578
0.0306114
0.041242
0.0310447
0.0417332
0.120721
0.0986341
0.121846
0.102407
0.0398618
0.0289068
0.0406443
0.0299976
0.051698
0.0242749
0.0538123
0.0253644
0.0147768
0.00554057
0.0154167
0.00583788
0.00898492
0.00897287
0.0095655
0.00955352
0.00152648
0.00152376
0.00160885
0.00160598
0.0242627
0.0517028
0.0253528
0.0538183
0.00553422
0.0147762
0.00583149
0.0154164
0.0986652
0.120789
0.102441
0.121915
0.0289171
0.0398873
0.0300089
0.0406704
0.0803285
0.0636729
0.0297623
0.0244175
0.0722183
0.057184
0.0261503
0.0215682
0.0208397
0.00485568
0.00560079
0.00285576
0.0173761
0.00409302
0.00504776
0.0028137
0.00207698
0.00207628
0.00280595
0.00280601
0.00201601
0.00201563
0.00283847
0.00283849
0.00485161
0.0208331
0.00285527
0.00559876
0.00409027
0.0173705
0.00281338
0.00504625
0.0636799
0.0803587
0.0244158
0.0297754
0.0571886
0.0722416
0.0215662
0.0261595
0.149323
0.122008
0.120128
0.0968057
0.134337
0.109334
0.108236
0.0869218
0.0631714
0.0271239
0.0440006
0.0137403
0.0543616
0.0219497
0.0376672
0.010735
0.00742326
0.0074133
0.00309427
0.00309074
0.00543861
0.00543209
0.00257718
0.00257506
0.0271118
0.0631748
0.0137295
0.0439984
0.0219391
0.0543632
0.0107267
0.0376645
0.122038
0.149386
0.0968235
0.120175
0.109357
0.134388
0.0869352
0.108273
0.185122
0.1538
0.170302
0.140535
0.165769
0.137131
0.152844
0.125609
0.0886457
0.0465738
0.0778633
0.0381088
0.0763053
0.0382791
0.0670697
0.031206
0.022562
0.0225531
0.0153625
0.0153515
0.0168055
0.016796
0.0112139
0.0112033
0.0465678
0.0886624
0.0380988
0.0778732
0.0382716
0.0763171
0.0311962
0.0670763
0.153853
0.185219
0.140577
0.170382
0.137173
0.165848
0.125642
0.152909
0.202296
0.169333
0.195396
0.163074
0.180519
0.150416
0.174629
0.145097
0.10151
0.0570849
0.096303
0.052787
0.0871441
0.0468897
0.0827887
0.0433989
0.0322449
0.0322407
0.0282294
0.0282231
0.024393
0.0243866
0.0212539
0.021246
0.0570872
0.101539
0.0527854
0.0963265
0.0468877
0.0871655
0.0433942
0.0828056
0.169406
0.202423
0.163137
0.195508
0.150475
0.180623
0.145148
0.174722
0.209628
0.176005
0.206827
0.173454
0.186681
0.155996
0.184344
0.153879
0.107077
0.0617006
0.104954
0.059947
0.0917176
0.050559
0.0899881
0.0491795
0.0365571
0.0365555
0.0349317
0.0349291
0.0277022
0.0276975
0.0264689
0.0264636
0.0617081
0.107115
0.0599525
0.104988
0.0505604
0.0917454
0.0491796
0.0900132
0.176092
0.209775
0.173535
0.206965
0.156066
0.186802
0.153944
0.184457
0.212247
0.178396
0.211336
0.177563
0.188829
0.157942
0.188089
0.157272
0.109062
0.0633139
0.108376
0.0627658
0.0933004
0.0517971
0.0927602
0.0513831
0.0380135
0.0380127
0.0375321
0.0375311
0.0287729
0.0287686
0.0284272
0.0284228
0.0633237
0.109105
0.0627748
0.108417
0.0518
0.0933312
0.0513855
0.09279
0.17849
0.212405
0.177655
0.211489
0.158018
0.188959
0.157345
0.188216
0.212909
0.179014
0.212747
0.178858
0.189348
0.158422
0.189228
0.158308
0.109578
0.0637163
0.10945
0.0636236
0.0936915
0.0520885
0.0936001
0.0520268
0.038347
0.0383463
0.0382826
0.0382819
0.0289964
0.0289921
0.0289614
0.0289572
0.0637266
0.109621
0.0636338
0.109493
0.0520916
0.0937234
0.0520298
0.0936317
0.179111
0.213073
0.178955
0.212909
0.1585
0.189482
0.158385
0.18936
0.212881
0.179013
0.21296
0.179073
0.189307
0.158405
0.189379
0.15846
0.109595
0.0637324
0.109638
0.0637671
0.0936924
0.0520911
0.0937316
0.0521216
0.0383536
0.0383528
0.0383897
0.038389
0.0289918
0.0289875
0.0290224
0.0290182
0.0637426
0.109639
0.0637774
0.109682
0.0520941
0.0937245
0.0521247
0.0937637
0.179112
0.213045
0.179171
0.213124
0.158484
0.189442
0.158539
0.189513
0.212633
0.178825
0.212802
0.17896
0.189087
0.158237
0.189236
0.158355
0.109469
0.063644
0.109567
0.0637177
0.0935805
0.0520146
0.0936651
0.0520762
0.0382767
0.0382759
0.0383439
0.0383431
0.0289259
0.0289215
0.0289811
0.0289768
0.0636541
0.109513
0.0637279
0.109611
0.0520175
0.0936125
0.0520792
0.0936972
0.178923
0.212797
0.179058
0.212967
0.158315
0.189222
0.158434
0.189371
0.212281
0.178549
0.212497
0.178723
0.188778
0.157995
0.188966
0.158146
0.109274
0.0635028
0.109404
0.0636016
0.093412
0.0518957
0.0935231
0.0519778
0.0381547
0.0381538
0.0382435
0.0382427
0.0288249
0.0288204
0.0288972
0.0288928
0.0635127
0.109318
0.0636116
0.109448
0.0518984
0.0934437
0.0519807
0.093555
0.178646
0.212445
0.17882
0.212661
0.158074
0.188912
0.158224
0.1891
0.211868
0.178223
0.212111
0.178419
0.188413
0.157712
0.188627
0.157881
0.109043
0.0633333
0.10919
0.0634461
0.0932126
0.0517534
0.0933379
0.0518473
0.0380079
0.0380069
0.0381093
0.0381083
0.0287043
0.0286997
0.0287868
0.0287823
0.0633429
0.109087
0.0634559
0.109233
0.0517559
0.0932441
0.0518499
0.0933695
0.17832
0.212031
0.178517
0.212275
0.157789
0.188547
0.157959
0.188761
0.211404
0.177859
0.211672
0.178074
0.188002
0.157393
0.188238
0.15758
0.108784
0.0631429
0.108944
0.0632662
0.0929887
0.0515932
0.093126
0.051696
0.0378431
0.0378419
0.0379541
0.037953
0.0285685
0.0285638
0.0286593
0.0286547
0.0631523
0.108827
0.0632757
0.108988
0.0515955
0.0930199
0.0516985
0.0931574
0.177956
0.211566
0.178171
0.211835
0.157471
0.188135
0.157658
0.188372
0.21089
0.177459
0.211182
0.177691
0.187544
0.157042
0.187803
0.157245
0.108499
0.0629329
0.108672
0.063066
0.0927413
0.0514157
0.0928902
0.0515271
0.0376613
0.0376599
0.0377816
0.0377803
0.0284184
0.0284136
0.0285169
0.0285122
0.062942
0.108542
0.0630753
0.108715
0.0514178
0.0927722
0.0515294
0.0929213
0.177555
0.211052
0.177788
0.211345
0.157118
0.187676
0.157322
0.187936
0.210326
0.177021
0.210644
0.177272
0.18704
0.156657
0.187322
0.156877
0.108187
0.062703
0.108373
0.0628461
0.0924702
0.0512209
0.092631
0.051341
0.0374624
0.0374609
0.0375916
0.0375902
0.0282537
0.0282488
0.0283597
0.0283548
0.0627118
0.108229
0.0628551
0.108416
0.0512228
0.0925008
0.0513431
0.0926618
0.177117
0.210487
0.177368
0.210805
0.156733
0.187172
0.156953
0.187455
0.209707
0.176542
0.210053
0.176814
0.186485
0.156236
0.186793
0.156474
0.107846
0.0624519
0.108047
0.0626057
0.0921737
0.0510077
0.0923474
0.0511371
0.0372453
0.0372437
0.0373837
0.0373822
0.0280736
0.0280685
0.0281873
0.0281823
0.0624603
0.107888
0.0626144
0.108089
0.0510093
0.092204
0.0511389
0.0923779
0.176637
0.209867
0.17691
0.210214
0.156312
0.186617
0.15655
0.186925
0.209032
0.176022
0.209406
0.176315
0.185879
0.155777
0.186213
0.156034
0.107475
0.0621787
0.107691
0.0623436
0.0918509
0.0507753
0.0920378
0.0509144
0.0370091
0.0370073
0.0371571
0.0371554
0.0278772
0.027872
0.0279991
0.0279939
0.0621868
0.107517
0.0623519
0.107733
0.0507766
0.0918808
0.0509159
0.092068
0.176116
0.209192
0.17641
0.209566
0.155853
0.18601
0.15611
0.186344
0.208299
0.175457
0.208702
0.175772
0.185219
0.15528
0.18558
0.155557
0.107073
0.0618823
0.107305
0.0620588
0.0915004
0.0505228
0.0917013
0.050672
0.0367528
0.0367508
0.0369108
0.0369089
0.0276639
0.0276584
0.0277942
0.0277889
0.06189
0.107114
0.0620668
0.107346
0.0505238
0.0915299
0.0506732
0.091731
0.175551
0.208457
0.175867
0.208861
0.155355
0.185349
0.155632
0.185711
0.207503
0.174848
0.207938
0.175186
0.184502
0.154742
0.184892
0.155039
0.106639
0.0615615
0.106887
0.0617503
0.0911207
0.0502491
0.0913363
0.0504089
0.0364754
0.0364732
0.036644
0.0366419
0.0274326
0.027427
0.0275719
0.0275664
0.0615688
0.106679
0.0617579
0.106927
0.0502498
0.0911498
0.0504098
0.0913657
0.174941
0.20766
0.175279
0.208096
0.154816
0.184631
0.155114
0.185021
0.20664
0.174191
0.207108
0.174553
0.183724
0.154161
0.184145
0.15448
0.106169
0.0612152
0.106435
0.0614168
0.0907105
0.0499534
0.0909414
0.0501242
0.036176
0.0361735
0.0363555
0.0363532
0.0271828
0.0271769
0.0273314
0.0273257
0.0612221
0.106209
0.0614239
0.106475
0.0499537
0.0907392
0.0501248
0.0909703
0.174283
0.206797
0.174645
0.207266
0.154235
0.183853
0.154554
0.184273
0.205713
0.173483
0.206214
0.17387
0.182885
0.153537
0.183337
0.153878
0.105664
0.060843
0.105948
0.0610574
0.0902689
0.0496348
0.0905156
0.049817
0.035854
0.0358512
0.0360447
0.0360422
0.0269138
0.0269077
0.0270719
0.027066
0.0608494
0.105703
0.0610641
0.105987
0.0496348
0.090297
0.0498172
0.0905441
0.173574
0.205869
0.173961
0.20637
0.15361
0.183012
0.153951
0.183465
0.20472
0.172731
0.205254
0.173139
0.181982
0.152863
0.182465
0.153229
0.105125
0.0604443
0.105426
0.0606719
0.0897941
0.0492929
0.0900574
0.0494867
0.0355087
0.0355057
0.035711
0.0357082
0.0266252
0.0266189
0.026793
0.0267868
0.0604502
0.105164
0.0606781
0.105464
0.0492924
0.0898217
0.0494865
0.0900854
0.172821
0.204874
0.17323
0.205408
0.152935
0.182108
0.153301
0.182592
0.203655
0.171929
0.204225
0.172363
0.181018
0.152142
0.181532
0.15253
0.104549
0.0600182
0.104868
0.0602595
0.0892865
0.0489273
0.0895661
0.0491328
0.0351397
0.0351365
0.0353537
0.0353506
0.0263168
0.0263103
0.0264943
0.0264879
0.0600236
0.104587
0.0602651
0.104906
0.0489264
0.0893136
0.0491322
0.0895934
0.172018
0.203808
0.172453
0.204378
0.152213
0.181143
0.152602
0.181657
0.202522
0.171073
0.203125
0.171534
0.179992
0.151377
0.180537
0.151787
0.103936
0.0595647
0.104273
0.0598195
0.0887467
0.0485383
0.0890422
0.0487554
0.0347472
0.0347436
0.0349727
0.0349693
0.0259889
0.0259821
0.026176
0.0261694
0.0595695
0.103973
0.0598246
0.104311
0.048537
0.0887732
0.0487543
0.089069
0.171162
0.202673
0.171623
0.203278
0.151448
0.180116
0.151858
0.180661
0.201322
0.170168
0.201958
0.170653
0.178906
0.150568
0.17948
0.151
0.103286
0.0590844
0.103641
0.0593523
0.0881753
0.0481264
0.0884864
0.0483548
0.0343315
0.0343275
0.0345683
0.0345646
0.025642
0.0256349
0.0258383
0.0258314
0.0590885
0.103322
0.0593568
0.103678
0.0481247
0.0882011
0.0483532
0.0885126
0.170255
0.201472
0.170741
0.202109
0.150638
0.179029
0.15107
0.179604
0.200057
0.169213
0.200725
0.169723
0.177762
0.149717
0.178365
0.15017
0.1026
0.058578
0.102973
0.0588586
0.0875727
0.0476924
0.0878992
0.0479315
0.0338936
0.0338893
0.0341411
0.034137
0.0252769
0.0252695
0.025482
0.0254747
0.0585815
0.102636
0.0588624
0.103009
0.0476901
0.0875979
0.0479295
0.0879248
0.169299
0.200206
0.16981
0.200874
0.149785
0.177884
0.150239
0.178487
0.198733
0.168212
0.19943
0.168744
0.176564
0.148819
0.177192
0.149295
0.101882
0.0580475
0.102271
0.0583397
0.0869403
0.0472376
0.0872812
0.0474867
0.0334351
0.0334305
0.0336925
0.0336881
0.0248951
0.0248874
0.0251081
0.0251006
0.0580503
0.101916
0.0583429
0.102306
0.0472348
0.0869648
0.0474842
0.0873061
0.168297
0.19888
0.16883
0.199578
0.148887
0.176684
0.149363
0.177313
0.197357
0.16717
0.198079
0.167722
0.17532
0.147888
0.175971
0.148379
0.101133
0.0574953
0.101537
0.0577978
0.0862826
0.0467646
0.0866355
0.0470223
0.0329582
0.0329531
0.0332243
0.0332194
0.0244985
0.0244904
0.0247184
0.0247106
0.0574974
0.101167
0.0578003
0.101571
0.0467612
0.0863064
0.0470193
0.0866597
0.167254
0.197502
0.167806
0.198225
0.147955
0.175439
0.148447
0.17609
0.195935
0.166093
0.196679
0.166661
0.174036
0.146926
0.174706
0.147432
0.100359
0.0569241
0.100775
0.0572355
0.0856025
0.0462756
0.0859661
0.0465408
0.0324652
0.0324598
0.0327387
0.0327335
0.0240892
0.0240809
0.0243149
0.0243068
0.0569255
0.100392
0.0572373
0.100808
0.0462717
0.0856256
0.0465372
0.0859896
0.166175
0.196079
0.166744
0.196823
0.146992
0.174153
0.147498
0.174824
0.194476
0.164985
0.195237
0.165568
0.172719
0.145939
0.173404
0.146457
0.0995632
0.0563373
0.0999889
0.0566559
0.0849035
0.0457733
0.085276
0.0460446
0.0319595
0.0319536
0.0322386
0.032233
0.0236702
0.0236615
0.0239002
0.0238917
0.056338
0.0995949
0.0566569
0.100021
0.0457689
0.0849258
0.0460405
0.0852988
0.165066
0.194618
0.165649
0.19538
0.146003
0.172835
0.146522
0.173521
0.19299
0.163856
0.193763
0.164448
0.171377
0.144931
0.172073
0.145458
0.0987508
0.0557391
0.0991838
0.0560626
0.0841896
0.0452614
0.0845688
0.0455369
0.0314445
0.0314383
0.0317275
0.0317215
0.0232446
0.0232355
0.0234771
0.0234683
0.055739
0.0987815
0.0560629
0.099215
0.0452564
0.0842112
0.0455322
0.0845909
0.163935
0.19313
0.164528
0.193904
0.144994
0.171492
0.145522
0.172189
0.191488
0.162711
0.192267
0.16331
0.170021
0.143909
0.170723
0.144442
0.0979277
0.0551339
0.0983651
0.05546
0.0834665
0.0447442
0.0838494
0.0450216
0.0309245
0.0309178
0.0312092
0.0312028
0.0228161
0.0228067
0.0230494
0.0230402
0.055133
0.0979574
0.0554596
0.0983954
0.0447386
0.0834873
0.0450163
0.0838707
0.162789
0.191626
0.163389
0.192406
0.143972
0.170134
0.144505
0.170837
0.189978
0.161558
0.19076
0.16216
0.168661
0.142882
0.169364
0.143416
0.097099
0.0545257
0.0975385
0.0548527
0.0827398
0.0442258
0.0831238
0.0445032
0.0304033
0.0303962
0.0306879
0.030681
0.0223882
0.0223785
0.0226205
0.022611
0.0545241
0.0971277
0.0548515
0.0975678
0.0442196
0.0827599
0.0444973
0.0831443
0.161635
0.190114
0.162237
0.190897
0.142943
0.168773
0.143478
0.169476
0.188465
0.160398
0.189249
0.161004
0.167301
0.141851
0.168004
0.142388
0.0962656
0.0539164
0.0967077
0.0542438
0.0820117
0.0437082
0.0823964
0.0439849
0.0298837
0.0298761
0.030167
0.0301597
0.0219638
0.0219537
0.0221939
0.022184
0.0539141
0.0962933
0.0542419
0.096736
0.0437015
0.0820311
0.0439785
0.0824162
0.160473
0.188599
0.16108
0.189384
0.141911
0.167411
0.142448
0.168115
0.186929
0.159213
0.187728
0.159835
0.165928
0.140805
0.166641
0.141352
0.0954149
0.053299
0.0958685
0.053632
0.0812735
0.0431876
0.0816653
0.0434668
0.0293632
0.0293552
0.0296475
0.0296398
0.0215422
0.0215318
0.021771
0.0217608
0.0532959
0.0954416
0.0536294
0.0958958
0.0431804
0.0812921
0.0434599
0.0816843
0.159287
0.187061
0.15991
0.187861
0.140864
0.166037
0.141412
0.16675
0.185302
0.157941
0.18616
0.158619
0.164487
0.139695
0.165244
0.140284
0.0944994
0.0526423
0.0949945
0.0530011
0.0804896
0.0426423
0.0809113
0.0429382
0.0288226
0.0288143
0.0291209
0.0291128
0.0211123
0.0211016
0.0213476
0.0213371
0.0526385
0.094525
0.0529978
0.0950207
0.0426346
0.0805074
0.0429308
0.0809295
0.158013
0.185431
0.158692
0.186291
0.139752
0.164593
0.140342
0.165351
0.183416
0.156429
0.184433
0.157254
0.162837
0.138394
0.163723
0.1391
0.0933944
0.0518564
0.0940067
0.0522964
0.079562
0.0420061
0.0800734
0.0423599
0.0281974
0.0281887
0.0285503
0.0285418
0.020632
0.020621
0.0209007
0.0208899
0.0518518
0.0934187
0.0522923
0.0940317
0.0419978
0.0795787
0.042352
0.0800907
0.156498
0.183542
0.157325
0.18456
0.138449
0.162941
0.139157
0.163828
0.180946
0.154344
0.182306
0.155512
0.160696
0.136623
0.161874
0.137613
0.091817
0.0507279
0.0927155
0.0513767
0.0782596
0.0411127
0.0789999
0.041625
0.0273216
0.0273123
0.027829
0.02782
0.0199837