/*--------------------------------*- C++ -*----------------------------------*\
  =========                 |
  \\      /  F ield         | OpenFOAM: The Open Source CFD Toolbox
   \\    /   O peration     | Website:  https://openfoam.org
    \\  /    A nd           | Version:  9
     \\/     M anipulation  |
\*---------------------------------------------------------------------------*/
FoamFile
{
    format      ascii;
    class       surfaceScalarField;
    location    "1.6";
    object      phi;
}
// * * * * * * * * * * * * * * * * * * * * * * * * * * * * * * * * * * * * * //

dimensions      [0 3 -1 0 0 0 0];

internalField   nonuniform List<scalar> 
104044
(
3.25253e-07
-6.50619e-05
8.35685e-08
6.4111e-05
5.42097e-07
-4.65349e-05
-3.31432e-06
-1.14829e-07
4.91721e-05
1.11715e-06
1.51183e-07
7.37211e-08
2.54475e-07
-2.99728e-06
-5.91668e-08
9.6754e-07
2.57326e-08
-6.45949e-05
6.46528e-05
-4.84118e-05
-1.04114e-09
4.51242e-05
5.79445e-08
-2.97449e-08
-7.50493e-09
-5.35458e-05
-1.52087e-06
5.40039e-05
9.55383e-07
-5.58444e-05
-5.83878e-07
-1.35996e-10
5.62888e-05
1.32109e-07
-2.50158e-09
-1.33296e-06
4.85217e-07
-1.03552e-06
-1.79171e-10
1.80919e-07
-9.64838e-09
-5.71668e-05
5.56545e-05
-5.66422e-05
-1.98133e-09
5.60507e-05
-4.6557e-09
-4.11018e-10
1.76811e-12
-5.64588e-05
-6.76102e-07
5.69622e-05
1.72583e-07
-5.64587e-05
-6.76141e-07
1.40715e-10
5.6962e-05
1.72613e-07
3.773e-13
-1.08391e-06
2.16969e-07
-1.08391e-06
1.80678e-10
2.1698e-07
-3.26039e-13
-5.6226e-05
5.55479e-05
-5.62257e-05
1.98301e-09
5.55476e-05
2.04245e-13
4.11355e-10
7.50618e-09
-5.58437e-05
-5.83886e-07
5.62881e-05
1.3215e-07
-5.35442e-05
-1.52088e-06
1.14813e-07
5.40023e-05
9.55457e-07
2.50221e-09
-1.03554e-06
1.80949e-07
-1.33295e-06
5.91577e-08
4.85273e-07
9.64414e-09
-5.66412e-05
5.60496e-05
-5.71648e-05
1.02597e-09
5.56526e-05
4.65455e-09
2.97467e-08
-3.25275e-07
-4.65329e-05
-3.31459e-06
4.91706e-05
1.11693e-06
-6.50649e-05
8.37834e-08
6.41139e-05
5.4195e-07
-1.51196e-07
-2.99776e-06
9.67858e-07
7.36587e-08
2.54565e-07
-2.56851e-08
-4.8409e-05
4.51211e-05
-6.46007e-05
6.46588e-05
-5.79336e-08
3.54053e-07
-6.3102e-05
-7.98204e-07
6.21339e-05
1.41226e-06
-5.12013e-05
-3.81852e-09
-9.90091e-08
5.22638e-05
-6.05647e-07
3.61498e-07
-4.12652e-07
1.06019e-06
-1.90458e-06
-1.13143e-07
3.50097e-07
-1.37782e-07
-6.42856e-05
6.36252e-05
-4.31246e-05
1.09822e-07
4.28732e-05
-4.54847e-08
4.95356e-08
-1.55011e-08
-5.44675e-05
-1.75405e-06
5.47235e-05
1.41451e-06
-5.66087e-05
-6.29966e-07
-3.40207e-09
5.67131e-05
5.13541e-07
-1.15884e-08
-2.01759e-06
1.45251e-06
-6.7212e-07
-1.61668e-09
3.42226e-07
-1.21198e-08
-5.36962e-05
5.20641e-05
-5.53742e-05
-8.72444e-09
5.47409e-05
-9.76577e-09
-5.44031e-09
-3.02451e-12
-5.74511e-05
-3.51214e-07
5.77321e-05
6.67929e-08
-5.7451e-05
-3.51211e-07
3.37821e-09
5.77321e-05
6.67452e-08
2.51748e-12
-6.07945e-07
1.17418e-07
-6.08015e-07
1.62251e-09
1.17434e-07
-6.20326e-12
-5.49345e-05
5.45746e-05
-5.49341e-05
8.72371e-09
5.45741e-05
-2.36277e-12
5.45535e-09
1.54582e-08
-5.6608e-05
-6.29858e-07
5.67123e-05
5.13499e-07
-5.44658e-05
-1.75417e-06
9.89619e-08
5.4722e-05
1.41453e-06
1.15852e-08
-6.72067e-07
3.42182e-07
-2.0177e-06
1.13124e-07
1.45262e-06
1.21018e-08
-5.53733e-05
5.474e-05
-5.36942e-05
-1.09877e-07
5.2062e-05
9.75839e-09
-4.95673e-08
-3.54059e-07
-5.12001e-05
-3.32914e-09
5.22629e-05
-6.06387e-07
-6.31048e-05
-7.98465e-07
6.21366e-05
1.41264e-06
-3.61515e-07
-1.90444e-06
3.49568e-07
-4.12717e-07
1.06034e-06
1.37937e-07
-4.31215e-05
4.28704e-05
-6.42917e-05
6.36311e-05
4.55798e-08
2.42431e-07
-6.13324e-05
-1.26379e-06
6.06447e-05
1.70903e-06
-5.29717e-05
1.59059e-06
-3.22131e-08
5.35125e-05
-1.85667e-06
3.04452e-07
-1.10118e-06
1.59821e-06
9.94775e-07
-6.76543e-08
-1.33063e-06
-3.55338e-07
-6.27671e-05
6.18586e-05
-4.34523e-05
2.34629e-07
4.44529e-05
-2.43087e-07
1.72604e-07
-1.30175e-08
-5.47747e-05
-8.21915e-07
5.47571e-05
8.20273e-07
-5.66802e-05
-2.95589e-07
-1.01417e-08
5.65876e-05
3.85287e-07
-1.52015e-08
-1.21652e-06
1.11287e-06
-4.57525e-07
-5.24197e-09
4.8043e-07
-9.74998e-09
-5.10323e-05
5.04547e-05
-5.42822e-05
-1.29933e-08
5.39899e-05
-1.2051e-08
-1.09261e-08
-3.69845e-11
-5.77944e-05
3.05177e-08
5.77389e-05
1.49159e-08
-5.77944e-05
3.06125e-08
1.02122e-08
5.77389e-05
1.46864e-08
-4.247e-12
-1.06336e-07
3.88283e-08
-1.06264e-07
5.12066e-09
3.88334e-08
8.40937e-13
-5.44573e-05
5.44748e-05
-5.44569e-05
1.30058e-08
5.44746e-05
-8.18287e-12
1.09193e-08
1.31011e-08
-5.66794e-05
-2.95541e-07
5.65867e-05
3.85306e-07
-5.47733e-05
-8.22035e-07
3.21373e-08
5.47557e-05
8.20507e-07
1.47114e-08
-4.57367e-07
4.80677e-07
-1.21664e-06
6.75201e-08
1.11253e-06
9.7415e-09
-5.42815e-05
5.39893e-05
-5.10301e-05
-2.34726e-07
5.04525e-05
1.20468e-08
-1.72685e-07
-2.42415e-07
-5.2971e-05
1.5913e-06
5.35119e-05
-1.85758e-06
-6.1335e-05
-1.26449e-06
6.06471e-05
1.70996e-06
-3.04443e-07
9.95407e-07
-1.33161e-06
-1.10167e-06
1.59882e-06
3.55635e-07
-4.34498e-05
4.44507e-05
-6.27728e-05
6.18639e-05
2.43307e-07
9.9915e-08
-6.00628e-05
-1.41476e-06
5.95545e-05
1.82317e-06
-5.39561e-05
1.98524e-06
2.73825e-08
5.43465e-05
-2.30319e-06
1.69067e-07
-1.34248e-06
1.75532e-06
1.86099e-06
2.88672e-09
-2.13839e-06
-5.47333e-07
-6.09688e-05
6.01013e-05
-4.55782e-05
3.27079e-07
4.6689e-05
-4.52594e-07
2.83087e-07
-5.55813e-09
-5.47496e-05
-4.29241e-07
5.47584e-05
4.53386e-07
-5.64782e-05
-1.52962e-07
-1.47997e-08
5.63811e-05
2.59231e-07
-1.5688e-08
-5.62941e-07
5.89045e-07
-1.91901e-07
-1.33468e-08
2.99033e-07
1.42151e-09
-5.01798e-05
5.00763e-05
-5.38072e-05
-1.48265e-08
5.36705e-05
-4.96733e-09
-1.42132e-08
-1.80083e-13
-5.76488e-05
6.77264e-08
5.75555e-05
1.08272e-08
-5.76487e-05
6.77513e-08
1.47972e-08
5.75554e-05
1.08304e-08
2.92729e-12
7.52718e-08
1.44244e-09
7.53391e-08
1.33594e-08
1.41327e-09
-1.46971e-12
-5.45359e-05
5.45888e-05
-5.45357e-05
1.48198e-08
5.45886e-05
6.37863e-13
1.42162e-08
5.52692e-09
-5.64773e-05
-1.5302e-07
5.63802e-05
2.59315e-07
-5.47483e-05
-4.293e-07
-2.74241e-08
5.47572e-05
4.5337e-07
1.56602e-08
-1.91922e-07
2.991e-07
-5.63028e-07
-2.9304e-09
5.89052e-07
-1.45658e-09
-5.38066e-05
5.36699e-05
-5.01777e-05
-3.27212e-07
5.00741e-05
4.94351e-09
-2.83201e-07
-9.9818e-08
-5.39556e-05
1.98613e-06
5.43462e-05
-2.30434e-06
-6.0065e-05
-1.41565e-06
5.95565e-05
1.82436e-06
-1.68998e-07
1.86179e-06
-2.13944e-06
-1.34329e-06
1.75639e-06
5.47766e-07
-4.55764e-05
4.66875e-05
-6.09736e-05
6.01057e-05
4.5296e-07
-2.51197e-08
-5.91142e-05
-1.46638e-06
5.8718e-05
1.88771e-06
-5.4659e-05
1.92897e-06
1.03727e-07
5.49195e-05
-2.31837e-06
3.37992e-08
-1.4387e-06
1.84517e-06
1.96339e-06
7.83629e-08
-2.32039e-06
-6.88711e-07
-5.92808e-05
5.85031e-05
-4.76798e-05
3.80086e-07
4.854e-05
-6.18166e-07
3.54458e-07
1.04569e-08
-5.48054e-05
-3.01897e-07
5.48637e-05
3.36908e-07
-5.62987e-05
-1.54289e-07
-1.32392e-08
5.62277e-05
2.49005e-07
2.29048e-09
-3.42585e-07
3.7164e-07
-1.45004e-07
-1.45023e-08
2.44246e-07
1.67482e-08
-5.00793e-05
5.01408e-05
-5.35484e-05
-1.24111e-08
5.34232e-05
8.81271e-09
-1.40511e-08
-3.17106e-12
-5.74691e-05
-2.37366e-09
5.73865e-05
7.17208e-08
-5.7469e-05
-2.38209e-09
1.32181e-08
5.73864e-05
7.17487e-08
-2.34496e-12
3.51837e-08
3.6676e-08
3.51839e-08
1.44902e-08
3.66958e-08
-3.40622e-12
-5.46099e-05
5.45951e-05
-5.46098e-05
1.23851e-08
5.4595e-05
-3.29832e-12
1.40355e-08
-1.05056e-08
-5.62978e-05
-1.54359e-07
5.62268e-05
2.49079e-07
-5.48043e-05
-3.01883e-07
-1.03801e-07
5.48627e-05
3.36835e-07
-2.33107e-09
-1.45072e-07
2.44328e-07
-3.42602e-07
-7.8439e-08
3.71595e-07
-1.67999e-08
-5.35477e-05
5.34225e-05
-5.00773e-05
-3.80242e-07
5.01388e-05
-8.85633e-09
-3.54603e-07
2.5268e-08
-5.46587e-05
1.92995e-06
5.49193e-05
-2.31967e-06
-5.9116e-05
-1.46732e-06
5.87196e-05
1.88902e-06
-3.36785e-08
1.96433e-06
-2.32161e-06
-1.43962e-06
1.84641e-06
6.89251e-07
-4.76786e-05
4.8539e-05
-5.92847e-05
5.85067e-05
6.18651e-07
-1.21322e-07
-5.83648e-05
-1.44744e-06
5.8039e-05
1.89463e-06
-5.51229e-05
1.77968e-06
1.31573e-07
5.52786e-05
-2.18827e-06
-7.61414e-08
-1.45056e-06
1.87989e-06
1.8402e-06
1.19183e-07
-2.23888e-06
-7.84244e-07
-5.77866e-05
5.71234e-05
-4.92553e-05
4.03756e-07
4.98469e-05
-7.34067e-07
3.90869e-07
2.17996e-08
-5.49243e-05
-2.64209e-07
5.49817e-05
3.16538e-07
-5.61638e-05
-1.71061e-07
-9.03508e-09
5.61025e-05
2.63128e-07
1.64233e-08
-2.74464e-07
3.16636e-07
-1.62503e-07
-1.05293e-08
2.53356e-07
3.17965e-08
-5.02329e-05
5.03407e-05
-5.32952e-05
-9.27814e-09
5.31653e-05
2.42339e-08
-1.02838e-08
-4.44896e-12
-5.73043e-05
-6.47646e-08
5.72203e-05
1.39734e-07
-5.73042e-05
-6.47786e-08
9.02018e-09
5.72202e-05
1.39756e-07
-3.66854e-12
-3.47681e-08
1.065e-07
-3.47784e-08
1.04977e-08
1.06527e-07
-4.53679e-12
-5.45501e-05
5.44761e-05
-5.45499e-05
9.26273e-09
5.44759e-05
-3.7935e-12
1.02718e-08
-2.18415e-08
-5.61629e-05
-1.71123e-07
5.61017e-05
2.63185e-07
-5.49233e-05
-2.64156e-07
-1.31646e-07
5.49809e-05
3.16432e-07
-1.64555e-08
-1.62576e-07
2.53419e-07
-2.74425e-07
-1.19255e-07
3.16545e-07
-3.18601e-08
-5.32945e-05
5.31645e-05
-5.02311e-05
-4.03919e-07
5.0339e-05
-2.42915e-08
-3.91028e-07
1.21523e-07
-5.51228e-05
1.78071e-06
5.52785e-05
-2.18964e-06
-5.83662e-05
-1.4484e-06
5.80401e-05
1.89597e-06
7.63146e-08
1.84121e-06
-2.24021e-06
-1.45151e-06
1.88121e-06
7.84862e-07
-4.92546e-05
4.98465e-05
-5.77898e-05
5.71262e-05
7.34643e-07
-1.89621e-07
-5.77428e-05
-1.39302e-06
5.74643e-05
1.86113e-06
-5.53872e-05
1.63184e-06
1.42127e-07
5.54579e-05
-2.03434e-06
-1.56969e-07
-1.4096e-06
1.86272e-06
1.68759e-06
1.37035e-07
-2.09019e-06
-8.44322e-07
-5.65234e-05
5.59747e-05
-5.03212e-05
4.08618e-07
5.07001e-05
-8.09558e-07
4.03748e-07
3.12496e-08
-5.50297e-05
-2.54192e-07
5.50664e-05
3.28364e-07
-5.60425e-05
-1.73703e-07
-6.03994e-09
5.598e-05
2.7345e-07
2.64332e-08
-2.53819e-07
3.16457e-07
-1.71734e-07
-7.54419e-09
2.6574e-07
4.44878e-08
-5.04525e-05
5.05624e-05
-5.30394e-05
-6.36608e-09
5.29166e-05
3.80972e-08
-7.82312e-09
-5.90969e-12
-5.71325e-05
-1.01017e-07
5.70381e-05
1.89385e-07
-5.71324e-05
-1.01025e-07
6.01892e-09
5.7038e-05
1.89394e-07
-5.11667e-12
-8.48499e-08
1.65038e-07
-8.48612e-08
7.52633e-09
1.65053e-07
-5.98698e-12
-5.43834e-05
5.4276e-05
-5.43832e-05
6.34477e-09
5.42758e-05
-5.20535e-12
7.8049e-09
-3.13026e-08
-5.60417e-05
-1.73748e-07
5.59793e-05
2.73495e-07
-5.50289e-05
-2.54136e-07
-1.42196e-07
5.50657e-05
3.28252e-07
-2.64802e-08
-1.71786e-07
2.65789e-07
-2.53761e-07
-1.37106e-07
3.16347e-07
-4.45607e-08
-5.30387e-05
5.29158e-05
-5.0451e-05
-4.08776e-07
5.05611e-05
-3.81651e-08
-4.03907e-07
1.89866e-07
-5.53872e-05
1.63287e-06
5.5458e-05
-2.03572e-06
-5.77438e-05
-1.39397e-06
5.74652e-05
1.86247e-06
1.57191e-07
1.68861e-06
-2.09156e-06
-1.41054e-06
1.86405e-06
8.44991e-07
-5.0321e-05
5.07001e-05
-5.65259e-05
5.59769e-05
8.10197e-07
-2.35857e-07
-5.7206e-05
-1.3323e-06
5.69588e-05
1.81539e-06
-5.54935e-05
1.50666e-06
1.42651e-07
5.54997e-05
-1.89132e-06
-2.13e-07
-1.35e-06
1.82127e-06
1.55201e-06
1.41903e-07
-1.9425e-06
-8.79678e-07
-5.54808e-05
5.50282e-05
-5.09931e-05
4.06098e-07
5.1214e-05
-8.5609e-07
4.02909e-07
3.9262e-08
-5.50892e-05
-2.60468e-07
5.50979e-05
3.55201e-07
-5.59147e-05
-1.71628e-07
-2.62498e-09
5.5844e-05
2.84185e-07
3.50795e-08
-2.52568e-07
3.3653e-07
-1.70982e-07
-4.3126e-09
2.75703e-07
5.42873e-08
-5.06635e-05
5.07549e-05
-5.27996e-05
-3.05063e-09
5.26853e-05
4.92666e-08
-4.68328e-09
-7.62084e-12
-5.69387e-05
-1.22929e-07
5.6832e-05
2.26954e-07
-5.69386e-05
-1.22936e-07
2.59768e-09
5.68319e-05
2.26964e-07
-6.65207e-12
-1.1182e-07
2.0698e-07
-1.11827e-07
4.28872e-09
2.06991e-07
-7.76923e-12
-5.41595e-05
5.40335e-05
-5.41593e-05
3.02305e-09
5.40334e-05
-6.75285e-12
4.65917e-09
-3.93258e-08
-5.5914e-05
-1.71657e-07
5.58434e-05
2.84213e-07
-5.50886e-05
-2.60434e-07
-1.42712e-07
5.50973e-05
3.55098e-07
-3.51373e-08
-1.71019e-07
2.75738e-07
-2.52525e-07
-1.41968e-07
3.36425e-07
-5.43667e-08
-5.27988e-05
5.26846e-05
-5.06623e-05
-4.063e-07
5.07538e-05
-4.93424e-08
-4.0311e-07
2.36136e-07
-5.54936e-05
1.50767e-06
5.54998e-05
-1.89268e-06
-5.72068e-05
-1.33321e-06
5.69594e-05
1.8167e-06
2.1326e-07
1.55303e-06
-1.94387e-06
-1.35093e-06
1.82259e-06
8.80377e-07
-5.09933e-05
5.12143e-05
-5.54828e-05
5.50299e-05
8.56769e-07
-2.65872e-07
-5.6725e-05
-1.27879e-06
5.6496e-05
1.77363e-06
-5.5479e-05
1.40329e-06
1.37663e-07
5.54355e-05
-1.76332e-06
-2.49966e-07
-1.29273e-06
1.77651e-06
1.4396e-06
1.39186e-07
-1.80812e-06
-8.97625e-07
-5.46169e-05
5.42358e-05
-5.13724e-05
4.00395e-07
5.14777e-05
-8.81476e-07
3.99728e-07
4.60121e-08
-5.50913e-05
-2.78478e-07
5.50691e-05
3.92307e-07
-5.57686e-05
-1.70915e-07
7.97861e-10
5.56856e-05
2.99084e-07
4.23404e-08
-2.65321e-07
3.68748e-07
-1.68902e-07
-8.84251e-10
2.8757e-07
6.12457e-08
-5.08318e-05
5.08924e-05
-5.25752e-05
2.72177e-10
5.24653e-05
5.75153e-08
-1.35771e-09
-1.01133e-11
-5.67201e-05
-1.40124e-07
5.66004e-05
2.60639e-07
-5.67201e-05
-1.4013e-07
-8.32658e-10
5.66004e-05
2.60647e-07
-8.65077e-12
-1.30447e-07
2.41469e-07
-1.30453e-07
8.53743e-10
2.41478e-07
-1.05858e-11
-5.39017e-05
5.37619e-05
-5.39016e-05
-3.07931e-10
5.37618e-05
-8.94518e-12
1.32673e-09
-4.60885e-08
-5.5768e-05
-1.70927e-07
5.5685e-05
2.991e-07
-5.50908e-05
-2.78467e-07
-1.37715e-07
5.50687e-05
3.9222e-07
-4.24094e-08
-1.6892e-07
2.87588e-07
-2.65299e-07
-1.39242e-07
3.68656e-07
-6.13317e-08
-5.25746e-05
5.24647e-05
-5.08309e-05
-4.00595e-07
5.08917e-05
-5.75966e-08
-3.99927e-07
2.66171e-07
-5.54791e-05
1.40426e-06
5.54356e-05
-1.76464e-06
-5.67255e-05
-1.27968e-06
5.64965e-05
1.77491e-06
2.50254e-07
1.44058e-06
-1.80944e-06
-1.29363e-06
1.77779e-06
8.98337e-07
-5.13727e-05
5.14781e-05
-5.46185e-05
5.42371e-05
8.82176e-07
-2.84983e-07
-5.62749e-05
-1.23778e-06
5.6054e-05
1.74362e-06
-5.5371e-05
1.31668e-06
1.3032e-07
5.52874e-05
-1.6484e-06
-2.73909e-07
-1.24653e-06
1.74155e-06
1.34702e-06
1.32891e-07
-1.68926e-06
-9.04404e-07
-5.38829e-05
5.35495e-05
-5.15385e-05
3.91824e-07
5.15589e-05
-8.93633e-07
3.92603e-07
5.19078e-08
-5.50313e-05
-3.03498e-07
5.49772e-05
4.36023e-07
-5.55956e-05
-1.75202e-07
3.97175e-09
5.54959e-05
3.22873e-07
4.85771e-08
-2.87147e-07
4.09294e-07
-1.70713e-07
2.40091e-09
3.06907e-07
6.57856e-08
-5.09347e-05
5.09572e-05
-5.23559e-05
3.36816e-09
5.22432e-05
6.31968e-08
1.83806e-09
-8.61896e-12
-5.64748e-05
-1.56618e-07
5.63404e-05
2.95022e-07
-5.64748e-05
-1.56619e-07
-4.01163e-09
5.63403e-05
2.95031e-07
-1.11192e-11
-1.46911e-07
2.74939e-07
-1.46916e-07
-2.43967e-09
2.74947e-07
1.00912e-12
-5.36168e-05
5.34636e-05
-5.36167e-05
-3.39336e-09
5.34635e-05
-1.02073e-11
-1.87789e-09
-5.20149e-08
-5.55951e-05
-1.7519e-07
5.54954e-05
3.22884e-07
-5.50309e-05
-3.03525e-07
-1.30364e-07
5.49768e-05
4.3595e-07
-4.86625e-08
-1.70718e-07
3.06922e-07
-2.87147e-07
-1.3294e-07
4.09213e-07
-6.59717e-08
-5.23554e-05
5.22427e-05
-5.0934e-05
-3.92014e-07
5.09565e-05
-6.32941e-08
-3.92802e-07
2.85297e-07
-5.53711e-05
1.31761e-06
5.52875e-05
-1.64967e-06
-5.62753e-05
-1.23864e-06
5.60544e-05
1.74486e-06
2.74213e-07
1.34796e-06
-1.69055e-06
-1.24739e-06
1.7428e-06
9.05131e-07
-5.15389e-05
5.15594e-05
-5.38841e-05
5.35506e-05
8.94341e-07
-2.96569e-07
-5.58366e-05
-1.2074e-06
5.56152e-05
1.72534e-06
-5.51867e-05
1.24265e-06
1.22157e-07
5.50684e-05
-1.54302e-06
-2.88644e-07
-1.21086e-06
1.71697e-06
1.26691e-06
1.25039e-07
-1.57994e-06
-9.03401e-07
-5.32343e-05
5.29303e-05
-5.1547e-05
3.81465e-07
5.15047e-05
-8.95617e-07
3.83251e-07
5.77159e-08
-5.49077e-05
-3.3195e-07
5.48211e-05
4.83009e-07
-5.53873e-05
-1.83574e-07
6.78968e-09
5.52668e-05
3.54989e-07
5.41513e-08
-3.13952e-07
4.54325e-07
-1.77078e-07
5.38917e-09
3.34422e-07
6.55764e-08
-5.09603e-05
5.09443e-05
-5.21274e-05
5.72069e-09
5.20037e-05
6.62098e-08
4.91885e-09
-3.92321e-11
-5.61992e-05
-1.74069e-07
5.60476e-05
3.32416e-07
-5.61991e-05
-1.74128e-07
-6.85637e-09
5.60477e-05
3.32423e-07
3.26949e-12
-1.63522e-07
3.10112e-07
-1.63503e-07
-5.40474e-09
3.10118e-07
-2.39834e-10
-5.33049e-05
5.31368e-05
-5.33047e-05
-6.48838e-09
5.31368e-05
1.20379e-10
-4.56021e-09
-5.77161e-08
-5.53868e-05
-1.83804e-07
5.52664e-05
3.55054e-07
-5.49074e-05
-3.31725e-07
-1.22226e-07
5.48207e-05
4.82927e-07
-5.43169e-08
-1.76928e-07
3.34429e-07
-3.14129e-07
-1.25056e-07
4.54265e-07
-6.765e-08
-5.21265e-05
5.20038e-05
-5.09603e-05
-3.82292e-07
5.09432e-05
-6.51939e-08
-3.83086e-07
2.96858e-07
-5.51869e-05
1.24364e-06
5.50684e-05
-1.54429e-06
-5.58369e-05
-1.20819e-06
5.56154e-05
1.72652e-06
2.8897e-07
1.26777e-06
-1.58118e-06
-1.21171e-06
1.71818e-06
9.03925e-07
-5.15476e-05
5.1505e-05
-5.32353e-05
5.2931e-05
8.96431e-07
-3.02968e-07
-5.53935e-05
-1.18706e-06
5.51647e-05
1.71879e-06
-5.49352e-05
1.17387e-06
1.15827e-07
5.47852e-05
-1.44262e-06
-2.97405e-07
-1.18634e-06
1.70545e-06
1.19761e-06
1.17073e-07
-1.47893e-06
-8.97451e-07
-5.26362e-05
5.23465e-05
-5.14366e-05
3.70959e-07
5.1342e-05
-8.92234e-07
3.73535e-07
6.85741e-08
-5.47184e-05
-3.63908e-07
5.45965e-05
5.33103e-07
-5.51364e-05
-1.96336e-07
9.20129e-09
5.49951e-05
3.97065e-07
6.09e-08
-3.43699e-07
5.02534e-07
-1.87982e-07
8.03674e-09
3.71224e-07
6.49726e-08
-5.09067e-05
5.08488e-05
-5.18754e-05
7.78698e-09
5.17362e-05
6.73987e-08
7.70603e-09
-4.73072e-11
-5.58882e-05
-1.93481e-07
5.57169e-05
3.73982e-07
-5.58882e-05
-1.93567e-07
-9.30477e-09
5.5717e-05
3.74009e-07
2.87716e-11
-1.81849e-07
3.49325e-07
-1.81795e-07
-8.02394e-09
3.49341e-07
-3.77837e-10
-5.29623e-05
5.2777e-05
-5.29621e-05
-9.00608e-09
5.27771e-05
2.97136e-10
-6.77443e-09
-6.85522e-08
-5.5136e-05
-1.96706e-07
5.49948e-05
3.97128e-07
-5.47182e-05
-3.63532e-07
-1.15921e-07
5.45961e-05
5.3301e-07
-6.12327e-08
-1.8761e-07
3.71232e-07
-3.44101e-07
-1.1709e-07
5.02484e-07
-6.83712e-08
-5.18742e-05
5.17368e-05
-5.09072e-05
-3.72182e-07
5.08475e-05
-6.47252e-08
-3.72841e-07
3.03248e-07
-5.49353e-05
1.17488e-06
5.47852e-05
-1.44387e-06
-5.53937e-05
-1.1878e-06
5.51648e-05
1.71992e-06
2.97752e-07
1.19838e-06
-1.48015e-06
-1.18718e-06
1.70662e-06
8.97855e-07
-5.14374e-05
5.13422e-05
-5.26371e-05
5.23471e-05
8.93189e-07
-3.05795e-07
-5.49326e-05
-1.17411e-06
5.46904e-05
1.72211e-06
-5.46202e-05
1.1098e-06
1.1103e-07
5.44387e-05
-1.3451e-06
-3.01676e-07
-1.16945e-06
1.70326e-06
1.13178e-06
1.12343e-07
-1.38082e-06
-8.87796e-07
-5.20609e-05
5.17746e-05
-5.12267e-05
3.6041e-07
5.10883e-05
-8.83842e-07
3.63235e-07
7.26487e-08
-5.44596e-05
-3.94598e-07
5.43053e-05
5.87216e-07
-5.48423e-05
-2.14633e-07
1.06844e-08
5.46741e-05
4.44738e-07
7.02343e-08
-3.7475e-07
5.53783e-07
-2.03186e-07
1.01562e-08
4.16067e-07
6.40946e-08
-5.07695e-05
5.06713e-05
-5.15908e-05
9.45432e-09
5.14308e-05
6.77097e-08
9.90506e-09
-1.27417e-10
-5.55366e-05
-2.15145e-07
5.53426e-05
4.19952e-07
-5.55366e-05
-2.15234e-07
-1.10591e-08
5.53428e-05
4.19987e-07
3.86982e-11
-2.02097e-07
3.92517e-07
-2.0202e-07
-1.01082e-08
3.92518e-07
-4.61533e-10
-5.25844e-05
5.23792e-05
-5.25841e-05
-1.09534e-08
5.23794e-05
4.02281e-10
-8.62061e-09
-7.25929e-08
-5.48419e-05
-2.15135e-07
5.46738e-05
4.44771e-07
-5.44594e-05
-3.94128e-07
-1.11141e-07
5.43049e-05
5.87129e-07
-7.05662e-08
-2.02704e-07
4.16058e-07
-3.75283e-07
-1.12343e-07
5.53761e-07
-6.83742e-08
-5.15894e-05
5.14317e-05
-5.07705e-05
-3.61879e-07
5.06699e-05
-6.39626e-08
-3.62215e-07
3.06064e-07
-5.46203e-05
1.11081e-06
5.44386e-05
-1.34633e-06
-5.49327e-05
-1.17481e-06
5.46904e-05
1.7232e-06
3.02032e-07
1.13248e-06
-1.382e-06
-1.17027e-06
1.7044e-06
8.88123e-07
-5.12276e-05
5.10884e-05
-5.20617e-05
5.1775e-05
8.84875e-07
-3.06318e-07
-5.44423e-05
-1.1682e-06
5.41816e-05
1.7353e-06
-5.42428e-05
1.04859e-06
1.06468e-07
5.40297e-05
-1.24836e-06
-3.03144e-07
-1.1599e-06
1.71113e-06
1.06964e-06
1.07705e-07
-1.28456e-06
-8.76118e-07
-5.14876e-05
5.11956e-05
-5.09319e-05
3.50269e-07
5.07541e-05
-8.72931e-07
3.53127e-07
7.40839e-08
-5.41359e-05
-4.25191e-07
5.39481e-05
6.45321e-07
-5.44934e-05
-2.38051e-07
1.10621e-08
5.42961e-05
4.98348e-07
7.27332e-08
-4.04819e-07
6.09257e-07
-2.24021e-07
1.14981e-08
4.65979e-07
6.287e-08
-5.05521e-05
5.04143e-05
-5.12628e-05
1.00201e-08
5.10776e-05
6.74558e-08
1.15119e-08
-3.46958e-10
-5.51383e-05
-2.39308e-07
5.4918e-05
4.70992e-07
-5.51381e-05
-2.39425e-07
-1.21663e-08
5.49183e-05
4.71084e-07
1.92071e-10
-2.24733e-07
4.40412e-07
-2.24695e-07
-1.07814e-08
4.4034e-07
-5.92434e-10
-5.21655e-05
5.19368e-05
-5.2165e-05
-1.21633e-08
5.19372e-05
5.0137e-10
-9.85762e-09
-7.41631e-08
-5.44933e-05
-2.38647e-07
5.42957e-05
4.98291e-07
-5.41358e-05
-4.24654e-07
-1.06635e-07
5.39477e-05
6.45223e-07
-7.29317e-08
-2.23408e-07
4.66052e-07
-4.05414e-07
-1.07649e-07
6.09271e-07
-6.79447e-08
-5.12614e-05
5.10785e-05
-5.05534e-05
-3.51961e-07
5.04128e-05
-6.29251e-08
-3.5188e-07
3.06564e-07
-5.42428e-05
1.0496e-06
5.40296e-05
-1.24957e-06
-5.44424e-05
-1.16887e-06
5.41815e-05
1.73635e-06
3.03517e-07
1.07031e-06
-1.2857e-06
-1.1607e-06
1.71223e-06
8.76372e-07
-5.09328e-05
5.07541e-05
-5.14883e-05
5.11958e-05
8.7401e-07
-3.0491e-07
-5.39128e-05
-1.16697e-06
5.36292e-05
1.75556e-06
-5.38024e-05
9.882e-07
1.02212e-07
5.35573e-05
-1.15024e-06
-3.02617e-07
-1.15641e-06
1.72773e-06
1.00952e-06
1.0337e-07
-1.18814e-06
-8.62133e-07
-5.08992e-05
5.05944e-05
-5.05602e-05
3.40289e-07
5.0346e-05
-8.60103e-07
3.43348e-07
7.42892e-08
-5.37447e-05
-4.55955e-07
5.35221e-05
7.06497e-07
-5.40849e-05
-2.65484e-07
1.16825e-08
5.38557e-05
5.57319e-07
7.35422e-08
-4.3509e-07
6.68302e-07
-2.49342e-07
1.24027e-08
5.21685e-07
6.14533e-08
-5.02558e-05
5.00786e-05
-5.08826e-05
1.01413e-08
5.06684e-05
6.68165e-08
1.24216e-08
-2.87738e-10
-5.46864e-05
-2.65986e-07
5.44372e-05
5.27196e-07
-5.46863e-05
-2.6617e-07
-1.25118e-08
5.44374e-05
5.27259e-07
3.65107e-10
-2.49902e-07
4.93511e-07
-2.49819e-07
-1.12081e-08
4.93399e-07
-7.54872e-10
-5.16986e-05
5.14435e-05
-5.16981e-05
-1.29563e-08
5.14441e-05
6.77388e-10
-1.00134e-08
-7.42988e-08
-5.40849e-05
-2.66018e-07
5.38555e-05
5.57297e-07
-5.37447e-05
-4.55365e-07
-1.02366e-07
5.35218e-05
7.0641e-07
-7.36224e-08
-2.48702e-07
5.21833e-07
-4.35745e-07
-1.03258e-07
6.68346e-07
-6.70758e-08
-5.08814e-05
5.06695e-05
-5.02573e-05
-3.4211e-07
5.0077e-05
-6.15653e-08
-3.41892e-07
3.05152e-07
-5.38025e-05
9.89203e-07
5.35572e-05
-1.15141e-06
-5.39128e-05
-1.16762e-06
5.3629e-05
1.75658e-06
3.03005e-07
1.01014e-06
-1.18925e-06
-1.15719e-06
1.72881e-06
8.62344e-07
-5.05611e-05
5.03459e-05
-5.08999e-05
5.05946e-05
8.61222e-07
-3.02465e-07
-5.33356e-05
-1.17134e-06
5.3025e-05
1.78447e-06
-5.32975e-05
9.2856e-07
9.84086e-08
5.30189e-05
-1.05086e-06
-3.00731e-07
-1.15822e-06
1.75249e-06
9.50458e-07
9.93641e-08
-1.09075e-06
-8.47432e-07
-5.02822e-05
4.99583e-05
-5.01165e-05
3.30934e-07
4.98667e-05
-8.46013e-07
3.33937e-07
7.37586e-08
-5.32834e-05
-4.87913e-07
5.30242e-05
7.71733e-07
-5.36117e-05
-2.96542e-07
1.22364e-08
5.33477e-05
6.22111e-07
7.32146e-08
-4.66152e-07
7.31025e-07
-2.783e-07
1.23244e-08
5.83173e-07
6.00176e-08
-4.98806e-05
4.96636e-05
-5.04429e-05
1.02538e-08
5.01961e-05
6.58231e-08
1.30825e-08
-1.36318e-10
-5.41752e-05
-2.95662e-07
5.3894e-05
5.89267e-07
-5.41752e-05
-2.95908e-07
-1.24915e-08
5.38942e-05
5.89287e-07
1.29012e-10
-2.77953e-07
5.52117e-07
-2.77758e-07
-1.19366e-08
5.52052e-07
-8.27894e-10
-5.11779e-05
5.08933e-05
-5.11772e-05
-1.34806e-08
5.0894e-05
7.66249e-10
-1.01171e-08
-7.3651e-08
-5.36116e-05
-2.96989e-07
5.33476e-05
6.22153e-07
-5.32834e-05
-4.87297e-07
-9.85318e-08
5.30239e-05
7.71662e-07
-7.34811e-08
-2.77801e-07
5.83218e-07
-4.66861e-07
-9.9304e-08
7.31056e-07
-6.59353e-08
-5.04417e-05
5.01972e-05
-4.98824e-05
-3.32805e-07
4.9662e-05
-6.01695e-08
-3.32391e-07
3.02709e-07
-5.32975e-05
9.29551e-07
5.30188e-05
-1.05201e-06
-5.33356e-05
-1.17196e-06
5.30248e-05
1.78547e-06
3.01098e-07
9.51046e-07
-1.09183e-06
-1.15898e-06
1.75353e-06
8.47621e-07
-5.01174e-05
4.98665e-05
-5.02827e-05
4.99584e-05
8.47132e-07
-2.99209e-07
-5.27028e-05
-1.18019e-06
5.23615e-05
1.82074e-06
-5.27254e-05
8.67877e-07
9.49764e-08
5.2412e-05
-9.4867e-07
-2.97884e-07
-1.1648e-06
1.78481e-06
8.91012e-07
9.57761e-08
-9.91139e-07
-8.32021e-07
-4.96246e-05
4.92764e-05
-4.96016e-05
3.22031e-07
4.93155e-05
-8.3108e-07
3.24938e-07
7.26537e-08
-5.27485e-05
-5.21276e-07
5.24509e-05
8.41128e-07
-5.30681e-05
-3.30711e-07
1.24323e-08
5.27666e-05
6.92392e-07
7.23262e-08
-4.98473e-07
7.97656e-07
-3.10598e-07
1.2385e-08
6.50117e-07
5.85385e-08
-4.94255e-05
4.91677e-05
-4.99366e-05
1.03297e-08
4.96541e-05
6.45867e-08
1.34775e-08
-1.0802e-10
-5.35987e-05
-3.28214e-07
5.32825e-05
6.5696e-07
-5.35988e-05
-3.28479e-07
-1.25622e-08
5.32827e-05
6.5697e-07
7.45084e-11
-3.08821e-07
6.16359e-07
-3.08578e-07
-1.22667e-08
6.16308e-07
-8.59211e-10
-5.05971e-05
5.02801e-05
-5.05964e-05
-1.37683e-08
5.02808e-05
8.09809e-10
-1.02179e-08
-7.2529e-08
-5.3068e-05
-3.31124e-07
5.27666e-05
6.92446e-07
-5.27485e-05
-5.20663e-07
-9.50926e-08
5.24507e-05
8.41066e-07
-7.26318e-08
-3.10155e-07
6.50142e-07
-4.99195e-07
-9.57237e-08
7.9769e-07
-6.459e-08
-4.99355e-05
4.96552e-05
-4.94274e-05
-3.23906e-07
4.9166e-05
-5.87223e-08
-3.23356e-07
2.99449e-07
-5.27254e-05
8.68855e-07
5.24118e-05
-9.49795e-07
-5.27028e-05
-1.1808e-06
5.23613e-05
1.82171e-06
2.98243e-07
8.91586e-07
-9.92201e-07
-1.16554e-06
1.78582e-06
8.32201e-07
-4.96026e-05
4.93153e-05
-4.96251e-05
4.92765e-05
8.32187e-07
-2.95345e-07
-5.2007e-05
-1.19294e-06
5.1631e-05
1.86425e-06
-5.20823e-05
8.0471e-07
9.18582e-08
5.17299e-05
-8.3959e-07
-2.94346e-07
-1.17553e-06
1.82437e-06
8.29729e-07
9.25406e-08
-8.86898e-07
-8.16138e-07
-4.89165e-05
4.85397e-05
-4.90133e-05
3.13529e-07
4.86883e-05
-8.15587e-07
3.16323e-07
7.11969e-08
-5.21361e-05
-5.56082e-07
5.17978e-05
9.15036e-07
-5.24488e-05
-3.67622e-07
1.24722e-08
5.21074e-05
7.67718e-07
7.10378e-08
-5.32278e-07
8.68663e-07
-3.45811e-07
1.24228e-08
7.22294e-07
5.70362e-08
-4.88886e-05
4.8589e-05
-4.93578e-05
1.03411e-08
4.90369e-05
6.31812e-08
1.36672e-08
-9.74639e-11
-5.29512e-05
-3.63653e-07
5.2597e-05
7.30419e-07
-5.29512e-05
-3.63923e-07
-1.25593e-08
5.25972e-05
7.30425e-07
6.19234e-11
-3.42509e-07
6.86243e-07
-3.42249e-07
-1.23721e-08
6.86197e-07
-8.63319e-10
-4.99504e-05
4.9598e-05
-4.99497e-05
-1.38729e-08
4.95988e-05
8.22986e-10
-1.02631e-08
-7.10735e-08
-5.24487e-05
-3.68009e-07
5.21074e-05
7.67775e-07
-5.21361e-05
-5.55486e-07
-9.19701e-08
5.17975e-05
9.14978e-07
-7.13415e-08
-3.45402e-07
7.22315e-07
-5.32994e-07
-9.24898e-08
8.68699e-07
-6.31043e-08
-4.93568e-05
4.9038e-05
-4.88906e-05
-3.15374e-07
4.85873e-05
-5.7244e-08
-3.14747e-07
2.95582e-07
-5.20823e-05
8.05673e-07
5.17298e-05
-8.40715e-07
-5.20069e-05
-1.19353e-06
5.16308e-05
1.8652e-06
2.94698e-07
8.30302e-07
-8.87963e-07
-1.17625e-06
1.82535e-06
8.16319e-07
-4.90142e-05
4.86882e-05
-4.89169e-05
4.85397e-05
8.16669e-07
-2.9101e-07
-5.12408e-05
-1.20906e-06
5.08273e-05
1.91358e-06
-5.13604e-05
7.38792e-07
8.90296e-08
5.09671e-05
-7.25525e-07
-2.90183e-07
-1.18943e-06
1.8699e-06
7.65626e-07
8.95628e-08
-7.75822e-07
-7.99794e-07
-4.81497e-05
4.77404e-05
-4.83466e-05
3.05329e-07
4.79803e-05
-7.99415e-07
3.07935e-07
6.94806e-08
-5.14417e-05
-5.92421e-07
5.1061e-05
9.92654e-07
-5.1749e-05
-4.07022e-07
1.24052e-08
5.13656e-05
8.47538e-07
6.94482e-08
-5.67336e-07
9.4349e-07
-3.83493e-07
1.23726e-08
7.98942e-07
5.55138e-08
-4.82679e-05
4.79253e-05
-4.87014e-05
1.02814e-08
4.83396e-05
6.16383e-08
1.36888e-08
-9.06185e-11
-5.22267e-05
-4.01773e-07
5.18317e-05
8.09219e-07
-5.22267e-05
-4.0204e-07
-1.24705e-08
5.18319e-05
8.09223e-07
5.47918e-11
-3.78869e-07
7.61484e-07
-3.78604e-07
-1.23516e-08
7.6144e-07
-8.48938e-10
-4.9232e-05
4.88414e-05
-4.92312e-05
-1.38256e-08
4.88421e-05
8.14805e-10
-1.02368e-08
-6.93643e-08
-5.17489e-05
-4.07384e-07
5.13656e-05
8.47596e-07
-5.14418e-05
-5.91847e-07
-8.91359e-08
5.10608e-05
9.92601e-07
-6.97409e-08
-3.83113e-07
7.98963e-07
-5.68032e-07
-8.95138e-08
9.43526e-07
-6.15113e-08
-4.87004e-05
4.83407e-05
-4.827e-05
-3.0712e-07
4.79237e-05
-5.57285e-08
-3.06394e-07
2.91243e-07
-5.13604e-05
7.39739e-07
5.09669e-05
-7.26628e-07
-5.12406e-05
-1.20964e-06
5.0827e-05
1.91451e-06
2.90526e-07
7.66196e-07
-7.7687e-07
-1.19013e-06
1.87086e-06
7.99981e-07
-4.83475e-05
4.79802e-05
-4.815e-05
4.77403e-05
8.00465e-07
-2.86428e-07
-5.03985e-05
-1.22892e-06
4.99451e-05
1.96876e-06
-5.05566e-05
6.69929e-07
8.65026e-08
5.01219e-05
-6.08136e-07
-2.85835e-07
-1.2075e-06
1.92206e-06
6.98828e-07
8.69429e-08
-6.61108e-07
-7.83355e-07
-4.73163e-05
4.68707e-05
-4.75957e-05
2.97499e-07
4.71848e-05
-7.83371e-07
3.00011e-07
6.75798e-08
-5.06623e-05
-6.30663e-07
5.02379e-05
1.07398e-06
-5.09644e-05
-4.48776e-07
1.22588e-08
5.05367e-05
9.31815e-07
6.76775e-08
-6.0445e-07
1.02243e-06
-4.2378e-07
1.22507e-08
8.80378e-07
5.39965e-08
-4.75609e-05
4.71737e-05
-4.79622e-05
1.0158e-08
4.75573e-05
6.00418e-08
1.35821e-08
-8.49427e-11
-5.14196e-05
-4.42431e-07
5.09813e-05
8.93147e-07
-5.14197e-05
-4.42691e-07
-1.23111e-08
5.09815e-05
8.93149e-07
4.89964e-11
-4.1799e-07
8.42268e-07
-4.17728e-07
-1.22463e-08
8.42226e-07
-8.2183e-10
-4.84362e-05
4.80047e-05
-4.84354e-05
-1.36569e-08
4.80055e-05
7.92653e-10
-1.01478e-08
-6.74744e-08
-5.09644e-05
-4.49114e-07
5.05368e-05
9.31872e-07
-5.06624e-05
-6.3012e-07
-8.6601e-08
5.02377e-05
1.07393e-06
-6.79554e-08
-4.23428e-07
8.804e-07
-6.05118e-07
-8.68942e-08
1.02246e-06
-5.98529e-08
-4.79614e-05
4.75585e-05
-4.75629e-05
-2.99217e-07
4.71722e-05
-5.4235e-08
-2.98526e-07
2.86654e-07
-5.05566e-05
6.70859e-07
5.01217e-05
-6.09211e-07
-5.03983e-05
-1.22949e-06
4.99448e-05
1.96966e-06
2.86166e-07
6.99405e-07
-6.62143e-07
-1.20818e-06
1.92299e-06
7.83552e-07
-4.75967e-05
4.71848e-05
-4.73165e-05
4.68706e-05
7.84385e-07
-2.81509e-07
-4.94752e-05
-1.25168e-06
4.89781e-05
2.03021e-06
-4.96688e-05
6.06222e-07
8.40807e-08
4.91887e-05
-4.91742e-07
-2.81127e-07
-1.22855e-06
1.97962e-06
6.32323e-07
8.45022e-08
-5.44857e-07
-7.66871e-07
-4.64092e-05
4.59244e-05
-4.67577e-05
2.90004e-07
4.63071e-05
-7.67047e-07
2.92329e-07
6.55459e-08
-4.97947e-05
-6.70047e-07
4.93238e-05
1.15948e-06
-5.00905e-05
-4.9256e-07
1.20473e-08
4.96162e-05
1.02038e-06
6.57376e-08
-6.42937e-07
1.10491e-06
-4.66115e-07
1.20605e-08
9.65965e-07
5.24897e-08
-4.67647e-05
4.63322e-05
-4.71362e-05