/*--------------------------------*- C++ -*----------------------------------*\
  =========                 |
  \\      /  F ield         | OpenFOAM: The Open Source CFD Toolbox
   \\    /   O peration     | Website:  https://openfoam.org
    \\  /    A nd           | Version:  9
     \\/     M anipulation  |
\*---------------------------------------------------------------------------*/
FoamFile
{
    format      ascii;
    class       volScalarField;
    location    "2.15";
    object      epsilon;
}
// * * * * * * * * * * * * * * * * * * * * * * * * * * * * * * * * * * * * * //

dimensions      [0 2 -3 0 0 0 0];

internalField   nonuniform List<scalar> 
36360
(
0.233681
0.180596
0.0820443
0.0737176
0.062617
0.0411154
0.0122476
0.0101667
0.0427639
0.00747785
0.0113521
0.00446759
0.00901657
0.003483
0.00522995
0.00493504
0.00248276
0.00248211
0.00438378
0.00438387
0.00307834
0.0030783
0.00496414
0.00496413
0.00747622
0.0427718
0.00446719
0.0113528
0.00348251
0.00901816
0.00493507
0.00522987
0.180641
0.233766
0.0737363
0.0820832
0.0411381
0.0626566
0.0101693
0.0122515
0.436687
0.338381
0.350504
0.269722
0.252342
0.165312
0.16102
0.102935
0.129013
0.0424353
0.0883651
0.020936
0.0577504
0.0123203
0.0261796
0.00513359
0.0101156
0.0101136
0.00377787
0.00377587
0.0028319
0.00283121
0.00221343
0.00221311
0.0424419
0.129053
0.0209345
0.088388
0.0123203
0.0577792
0.00513277
0.0261894
0.33848
0.436844
0.269794
0.350626
0.165409
0.25249
0.102992
0.161114
0.548579
0.43073
0.500558
0.390693
0.384271
0.263967
0.326176
0.219525
0.189859
0.0811609
0.162635
0.0627425
0.117711
0.0443495
0.0894656
0.0272744
0.0381103
0.0381199
0.023525
0.0235276
0.0160299
0.0160328
0.00646239
0.00646206
0.0811978
0.189945
0.0627627
0.162697
0.0443756
0.117797
0.0272836
0.0895199
0.430894
0.548817
0.390822
0.500753
0.264156
0.384533
0.219665
0.326378
0.612459
0.48491
0.584904
0.461414
0.464966
0.327831
0.429657
0.299623
0.228783
0.110172
0.211623
0.0970525
0.161282
0.075662
0.141655
0.0609915
0.0630266
0.0630488
0.0515611
0.0515772
0.0409899
0.0410084
0.0285911
0.0286015
0.110244
0.228925
0.0971072
0.211737
0.0757319
0.161441
0.0610391
0.141776
0.48515
0.612792
0.461615
0.585188
0.328128
0.465361
0.299865
0.429984
0.64855
0.515959
0.633184
0.502705
0.512461
0.366288
0.492044
0.349702
0.252085
0.128615
0.242069
0.120623
0.188844
0.0972062
0.176874
0.0877672
0.0794597
0.0794922
0.072311
0.0723387
0.0601738
0.0602063
0.0516933
0.0517193
0.128718
0.252278
0.120711
0.242237
0.0973169
0.189073
0.0878586
0.177069
0.516272
0.648976
0.502983
0.633564
0.366689
0.512985
0.350054
0.492505
0.667603
0.532465
0.659719
0.525627
0.538205
0.387258
0.527462
0.378513
0.26472
0.138795
0.259477
0.134569
0.204134
0.109321
0.197756
0.104281
0.0885875
0.0886277
0.0848012
0.0848379
0.0710982
0.0711407
0.0665628
0.0666009
0.138922
0.264953
0.134685
0.259692
0.109462
0.204417
0.104408
0.198014
0.532836
0.668103
0.525971
0.660184
0.387743
0.538832
0.37896
0.528042
0.676501
0.540224
0.673004
0.537168
0.55055
0.397269
0.545619
0.393287
0.270733
0.143655
0.268366
0.141746
0.211476
0.115065
0.208564
0.112809
0.0929301
0.0929753
0.0912299
0.091273
0.0762257
0.0762743
0.0742255
0.0742715
0.143797
0.270993
0.141882
0.268613
0.115226
0.211793
0.112961
0.208866
0.540634
0.677051
0.537561
0.673532
0.397809
0.551247
0.393803
0.546285
0.679787
0.543156
0.678659
0.542134
0.555433
0.401166
0.553641
0.399754
0.273075
0.145567
0.272252
0.144894
0.21438
0.117286
0.213328
0.116496
0.0946326
0.0946804
0.0940352
0.094082
0.0781673
0.078219
0.0774862
0.0775367
0.145717
0.273349
0.145041
0.27252
0.117456
0.214716
0.116662
0.213656
0.543588
0.680366
0.542557
0.679225
0.401737
0.556169
0.400312
0.55436
0.680195
0.543636
0.68025
0.543622
0.556517
0.401974
0.556292
0.401827
0.273574
0.146027
0.273505
0.145944
0.215088
0.117821
0.214923
0.117699
0.0950611
0.0951101
0.0949757
0.0950243
0.0786208
0.0786737
0.078522
0.0785745
0.146181
0.273854
0.146096
0.273783
0.117995
0.215432
0.117872
0.215264
0.544078
0.680786
0.54406
0.680837
0.402559
0.557271
0.402407
0.557038
0.679335
0.54308
0.679913
0.543481
0.55601
0.401504
0.556396
0.401846
0.273316
0.145905
0.273533
0.14603
0.214907
0.117703
0.215062
0.117807
0.0949841
0.0950333
0.0950761
0.0951253
0.0785192
0.0785724
0.0786077
0.0786607
0.14606
0.273598
0.146185
0.273814
0.117879
0.215253
0.117982
0.215408
0.543525
0.67993
0.543924
0.680507
0.402093
0.556769
0.402433
0.557152
0.677774
0.541956
0.678638
0.542588
0.554639
0.400363
0.555383
0.400984
0.272656
0.145489
0.273047
0.145751
0.21426
0.117252
0.214631
0.11752
0.0946676
0.0947168
0.0948756
0.0949248
0.0781385
0.0781915
0.0783673
0.0784205
0.145644
0.272938
0.145906
0.273329
0.117427
0.214606
0.117695
0.214977
0.5424
0.678369
0.543033
0.679233
0.400951
0.555397
0.401573
0.556142
0.675821
0.540537
0.676862
0.541301
0.552843
0.398899
0.553777
0.399662
0.271798
0.144927
0.272276
0.145252
0.213394
0.116646
0.213861
0.116982
0.094228
0.0942769
0.0944883
0.0945374
0.077628
0.0776807
0.0779154
0.0779682
0.145081
0.272078
0.145407
0.272557
0.116819
0.213738
0.117156
0.214207
0.54098
0.676413
0.541744
0.677456
0.399484
0.553598
0.400249
0.554534
0.673578
0.538912
0.674755
0.539771
0.55075
0.397215
0.551821
0.398078
0.270809
0.144273
0.271347
0.14464
0.21238
0.115936
0.212915
0.116319
0.0937126
0.0937611
0.0940074
0.0940562
0.0770322
0.0770844
0.0773579
0.0774104
0.144426
0.271087
0.144793
0.271627
0.116108
0.212722
0.116492
0.213258
0.539352
0.674167
0.540212
0.675346
0.397797
0.551502
0.398662
0.552574
0.671088
0.537119
0.672386
0.53806
0.548416
0.395353
0.549603
0.396303
0.269714
0.143545
0.270304
0.143947
0.211246
0.115142
0.211838
0.115565
0.0931371
0.0931853
0.0934609
0.0935093
0.0763675
0.0764193
0.0767261
0.0767781
0.143696
0.269991
0.1441
0.270582
0.115313
0.211585
0.115737
0.212179
0.537556
0.671674
0.538498
0.672973
0.39593
0.549162
0.396882
0.550351
0.668348
0.535156
0.669773
0.536182
0.545844
0.393312
0.54715
0.394351
0.268517
0.142746
0.269158
0.143184
0.209997
0.114269
0.210646
0.114731
0.0925049
0.0925526
0.0928569
0.0929049
0.0756369
0.0756881
0.0760277
0.0760792
0.142897
0.268791
0.143335
0.269434
0.114438
0.210333
0.114901
0.210984
0.535589
0.668929
0.536617
0.670356
0.393885
0.546584
0.394926
0.547892
0.665356
0.533025
0.666908
0.534135
0.543034
0.39109
0.544459
0.39222
0.267217
0.141878
0.26791
0.142351
0.208633
0.113315
0.209339
0.113817
0.0918152
0.0918625
0.0921961
0.0922436
0.0748391
0.0748897
0.0752631
0.075314
0.142027
0.267489
0.1425
0.268183
0.113482
0.208965
0.113985
0.209673
0.533454
0.665933
0.534567
0.667486
0.391658
0.543768
0.39279
0.545195
0.662103
0.530718
0.663787
0.531917
0.539977
0.38868
0.541526
0.389904
0.26581
0.140936
0.266558
0.141446
0.207149
0.112276
0.207915
0.11282
0.0910661
0.091113
0.0914769
0.091524
0.0739714
0.0740213
0.07443
0.0744803
0.141083
0.266079
0.141594
0.266828
0.112441
0.207478
0.112986
0.208246
0.531144
0.662674
0.532345
0.664361
0.389242
0.540704
0.390468
0.542256
0.658576
0.528228
0.660399
0.52952
0.536663
0.386073
0.538342
0.387396
0.264291
0.139918
0.265095
0.140466
0.205541
0.11115
0.206369
0.111737
0.090255
0.0903013
0.090697
0.0907436
0.0730309
0.0730801
0.0735257
0.0735752
0.140063
0.264558
0.140613
0.265363
0.111313
0.205866
0.111902
0.206696
0.52865
0.659142
0.529944
0.660967
0.386629
0.537383
0.387955
0.539065
0.654764
0.525546
0.656729
0.526934
0.533082
0.383258
0.534894
0.384685
0.262655
0.13882
0.263518
0.139408
0.203803
0.109933
0.204696
0.110566
0.0893797
0.0894254
0.0898539
0.0898999
0.0720153
0.0720637
0.0725472
0.072596
0.138964
0.262918
0.139553
0.263783
0.110094
0.204123
0.110728
0.205018
0.525963
0.655324
0.527353
0.657292
0.383808
0.533794
0.385238
0.535609
0.650664
0.522669
0.652775
0.524156
0.529227
0.380229
0.531177
0.381764
0.260899
0.137641
0.261823
0.13827
0.201932
0.108624
0.202891
0.109302
0.0884383
0.0884834
0.0889456
0.0889911
0.0709225
0.0709702
0.0714926
0.0715406
0.137783
0.261159
0.138413
0.262084
0.108782
0.202248
0.109462
0.20321
0.523081
0.651218
0.52457
0.653332
0.380772
0.529931
0.38231
0.531884
0.646268
0.519592
0.648527
0.521179
0.525095
0.376977
0.527183
0.378623
0.259021
0.136379
0.260006
0.13705
0.199926
0.10722
0.200952
0.107945
0.08743
0.0874744
0.0879707
0.0880155
0.069752
0.0697987
0.0703603
0.0704075
0.136519
0.259278
0.137191
0.260264
0.107376
0.200237
0.108102
0.201266
0.519998
0.646815
0.521588
0.649077
0.377513
0.52579
0.379162
0.527882
0.641576
0.516314
0.643983
0.518001
0.520685
0.373503
0.522911
0.37526
0.25702
0.135034
0.258066
0.135746
0.197784
0.105723
0.198877
0.106494
0.0863545
0.0863983
0.0869286
0.0869727
0.0685038
0.0685497
0.0691503
0.0691966
0.135172
0.257273
0.135885
0.258321
0.105875
0.19809
0.106648
0.199186
0.516715
0.642117
0.518405
0.644527
0.374031
0.521371
0.375791
0.523601
0.636594
0.512838
0.639146
0.514624
0.516003
0.36981
0.518364
0.371674
0.254898
0.133608
0.256004
0.13436
0.19551
0.104133
0.196668
0.104949
0.0852128
0.0852558
0.0858197
0.0858631
0.0671797
0.0672245
0.0678633
0.0679086
0.133743
0.255147
0.134497
0.256255
0.104283
0.195811
0.105101
0.196972
0.513234
0.637128
0.515022
0.639683
0.37033
0.516679
0.372198
0.519045
0.631327
0.509164
0.63402
0.511049
0.511061
0.36593
0.51355
0.367883
0.252656
0.132101
0.253822
0.132893
0.193109
0.102455
0.19433
0.103314
0.0840066
0.0840488
0.0846453
0.084688
0.065782
0.0658258
0.0665014
0.0665458
0.132234
0.252901
0.133028
0.254069
0.102601
0.193405
0.103463
0.194628
0.509554
0.631853
0.511442
0.634549
0.366441
0.511726
0.368398
0.51422
0.625796
0.505304
0.628617
0.507279
0.50587
0.361861
0.508481
0.36391
0.250302
0.130518
0.251523
0.131347
0.190586
0.100691
0.191867
0.101592
0.0827389
0.0827804
0.0834076
0.0834495
0.0643149
0.0643577
0.0650679
0.0651112
0.130648
0.250542
0.131479
0.251765
0.100834
0.190876
0.101737
0.192159
0.505688
0.626313
0.507666
0.629139
0.362363
0.506525
0.364416
0.509141
0.620024
0.501277
0.622963
0.503333
0.500452
0.35761
0.503173
0.359747
0.247843
0.128864
0.249115
0.129728
0.18795
0.0988496
0.189285
0.0997882
0.0814145
0.0814551
0.0821107
0.0821518
0.0627845
0.062826
0.0635677
0.0636099
0.128993
0.248079
0.129858
0.249353
0.0989893
0.188234
0.0999297
0.189572
0.501654
0.620533
0.503713
0.623476
0.358102
0.501096
0.360244
0.503822
0.614041
0.497099
0.617081
0.499229
0.494834
0.3532
0.497652
0.355413
0.245292
0.127148
0.246609
0.128042
0.185213
0.0969389
0.186596
0.0979104
0.0800395
0.0800792
0.08076
0.0808002
0.0611983
0.0612387
0.0620079
0.0620488
0.127274
0.245524
0.128169
0.246843
0.097075
0.18549
0.0980484
0.186877
0.497469
0.614541
0.499602
0.617586
0.353683
0.495466
0.355901
0.498289
0.607878
0.49279
0.611003
0.494982
0.489045
0.348656
0.491944
0.350933
0.242661
0.125378
0.244016
0.126298
0.182388
0.0949694
0.183813
0.0959684
0.0786213
0.0786601
0.0793621
0.0794014
0.0595658
0.0596049
0.0603968
0.0604366
0.125501
0.242888
0.126422
0.244245
0.0951018
0.182659
0.0961027
0.184087
0.493152
0.608369
0.495349
0.611499
0.349129
0.489665
0.351411
0.492569
0.601577
0.488378
0.604766
0.490616
0.483121
0.343992
0.486083
0.346328
0.239965
0.123564
0.24135
0.124504
0.179491
0.092953
0.18095
0.0939734
0.0771682
0.0772061
0.0779252
0.0779636
0.0578974
0.0579352
0.0587445
0.058783
0.123684
0.240187
0.124625
0.241574
0.0930815
0.179755
0.094104
0.181218
0.488734
0.60206
0.490975
0.605253
0.344455
0.483729
0.346796
0.486697
0.595173
0.483902
0.59841
0.48617
0.477096
0.339241
0.480105
0.341613
0.237221
0.121717
0.238628
0.122672
0.176541
0.0909023
0.178024
0.091938
0.0756887
0.0757256
0.0764577
0.0764951
0.056204
0.0562406
0.0570618
0.057099
0.121834
0.237437
0.12279
0.238847
0.091027
0.176798
0.0920647
0.178285
0.48425
0.595646
0.486522
0.598888
0.339693
0.477691
0.342071
0.480705
0.588693
0.479358
0.591964
0.48166
0.470993
0.334432
0.474039
0.336833
0.234436
0.119843
0.235863
0.120811
0.173549
0.0888272
0.175051
0.0898738
0.0741894
0.0742254
0.0749674
0.0750039
0.0544954
0.0545307
0.0553594
0.0553953
0.119957
0.234647
0.120926
0.236077
0.0889479
0.173799
0.0899965
0.175305
0.479698
0.589156
0.482004
0.592432
0.334874
0.471575
0.33728
0.474627
0.58215
0.474748
0.585453
0.477084
0.464809
0.329558
0.467898
0.331994
0.231608
0.117944
0.233057
0.118925
0.170513
0.0867306
0.172039
0.0877879
0.0726715
0.0727064
0.073459
0.0734944
0.0527764
0.0528103
0.0536451
0.0536797
0.118054
0.231814
0.119037
0.233266
0.0868473
0.170756
0.0879066
0.172286
0.475081
0.582603
0.47742
0.585911
0.329989
0.465377
0.33243
0.468473
0.575515
0.470041
0.578872
0.472433
0.458484
0.324575
0.461656
0.327075
0.228711
0.116001
0.2302
0.117007
0.167408
0.0845988
0.168974
0.0856766
0.0711223
0.0711561
0.071928
0.0719624
0.0510394
0.0510719
0.0519189
0.0519521
0.116108
0.228911
0.117116
0.230404
0.0847112
0.167644
0.0857912
0.169214
0.470365
0.575957
0.472761
0.579319
0.324993
0.459037
0.327499
0.462217
0.568674
0.465136
0.572155
0.467644
0.451851
0.319359
0.455208
0.321997
0.225672
0.113962
0.227245
0.115025
0.164154
0.0823834
0.165809
0.0835117
0.0695012
0.0695339
0.07035
0.0703833
0.0492502
0.0492812
0.0501621
0.0501939
0.114066
0.225866
0.115131
0.227443
0.0824912
0.164382
0.083622
0.16604
0.465451
0.569104
0.467964
0.572591
0.319765
0.452389
0.322409
0.455753
0.561387
0.459825
0.565131
0.462571
0.444569
0.313669
0.448307
0.316584
0.222336
0.111717
0.224083
0.112901
0.160584
0.0799745
0.162424
0.0812181
0.0677171
0.0677484
0.0686626
0.0686947
0.0473241
0.0473534
0.048319
0.0483491
0.111816
0.222523
0.113003
0.224274
0.0800772
0.160802
0.0813235
0.162647
0.46013
0.561803
0.46288
0.565554
0.314059
0.445088
0.316982
0.448835
0.553223
0.453733
0.557471
0.456928
0.436046
0.307082
0.440496
0.310509
0.218425
0.109056
0.220504
0.110482
0.156398
0.0771611
0.158594
0.0786411
0.0655947
0.0656244
0.0667375
0.066768
0.045092
0.0451193
0.0462673
0.0462956
0.10915
0.218604
0.110579
0.220687
0.0772576
0.156605
0.078741
0.158807
0.454026
0.553624
0.457227
0.55788
0.307456
0.436544
0.310892
0.441005
0.543545
0.44619
0.548639
0.450228
0.425372
0.298952
0.431032
0.303254
0.213401
0.105585
0.216133
0.107483
0.151061
0.0735716
0.153921
0.0754988
0.0628249
0.0628525
0.06434
0.0643687
0.0422662
0.0422909
0.0437817
0.0438077
0.105673
0.213569
0.107574
0.216307
0.0736604
0.151254
0.0755917
0.154122
0.446467
0.543928
0.450513
0.549031
0.299305
0.425845
0.303618
0.431517
0.532094
0.435101
0.537971
0.441397
0.411698
0.288052
0.41889
0.293964
0.205752
0.100467
0.210114
0.103336
0.143491
0.0686055
0.147661
0.071309
0.0589172
0.0589421
0.0610707
0.061097
0.0384768
0.0384982
0.040517
0.0405402
0.100547
0.205907
0.103421
0.210276
0.0686845
0.143667
0.0713932
0.147846
0.435361
0.53246
0.441666
0.538345
0.288381
0.412143
0.294305
0.419348
0.528118
0.405376
0.527578
0.425613
0.395419
0.266002
0.40416
0.280009
0.189797
0.092204
0.199548
0.0968315
0.131122
0.0617582
0.13815
0.0654028
0.0535142
0.0535357
0.0564039
0.0564272
0.0336834
0.0337011
0.0361706
0.0361902
0.0922735
0.189934
0.0969067
0.199695
0.0618252
0.131275
0.0654761
0.138316
0.40561
0.528481
0.425863
0.527939
0.266295
0.395843
0.280324
0.404592
0.34571
0.266247
0.146063
0.116418
0.304931
0.234545
0.121396
0.0979528
0.0834132
0.0177233
0.0198506
0.00564511
0.0667754
0.0128696
0.015811
0.00507204
0.00412477
0.00412266
0.0041941
0.00419436
0.00326797
0.00326644
0.00438227
0.00438256
0.017723
0.0834396
0.00564424
0.0198569
0.0128681
0.0667926
0.00507136
0.0158141
0.266333
0.345863
0.116468
0.146162
0.234611
0.305053
0.0979877
0.121467
0.597526
0.470135
0.492103
0.382923
0.536436
0.419916
0.439673
0.340764
0.211807
0.0865811
0.153059
0.0501129
0.17884
0.0678089
0.127595
0.0375025
0.0330604
0.0330644
0.0117762
0.0117734
0.0219333
0.0219333
0.00760479
0.00760169
0.0866093
0.211886
0.0501199
0.15311
0.0678259
0.1789
0.0375046
0.127632
0.470288
0.597761
0.383041
0.492297
0.420042
0.536632
0.340859
0.439832
0.73305
0.586065
0.67506
0.53595
0.660188
0.524536
0.60732
0.479394
0.29736
0.149175
0.259321
0.120116
0.253002
0.119524
0.220097
0.0954669
0.0858491
0.0858742
0.0605232
0.0605385
0.0639118
0.0639294
0.0434973
0.0435065
0.149255
0.297508
0.12017
0.259433
0.119582
0.253119
0.095504
0.220184
0.586301
0.733381
0.536142
0.675339
0.524733
0.660469
0.479553
0.607556
0.809683
0.653574
0.776703
0.624338
0.72985
0.585105
0.699898
0.558911
0.351267
0.193051
0.327562
0.17343
0.299453
0.156035
0.279053
0.139687
0.125441
0.125484
0.107594
0.107628
0.09633
0.0963622
0.0816676
0.0816929
0.19318
0.351489
0.173534
0.327747
0.156136
0.299633
0.139767
0.279202
0.653902
0.810124
0.624619
0.777088
0.585384
0.730231
0.559148
0.700228
0.852776
0.692241
0.834429
0.675714
0.768876
0.619602
0.752281
0.604884
0.383515
0.220425
0.369623
0.208555
0.327075
0.178802
0.315201
0.168946
0.150603
0.150659
0.139664
0.139714
0.117001
0.117045
0.108028
0.108066
0.220596
0.383804
0.208705
0.36988
0.178939
0.327314
0.169065
0.315411
0.692656
0.853322
0.676087
0.834923
0.619959
0.769353
0.605203
0.752711
0.875603
0.712989
0.866136
0.704359
0.789428
0.637965
0.780923
0.630348
0.401274
0.235772
0.393855
0.229345
0.342138
0.191441
0.335868
0.18617
0.164794
0.164861
0.158848
0.15891
0.128539
0.128592
0.123727
0.123777
0.235974
0.401615
0.229533
0.394172
0.191605
0.342422
0.186322
0.336131
0.713473
0.876235
0.704811
0.866728
0.638385
0.789983
0.630738
0.781441
0.886358
0.722916
0.88212
0.718983
0.799026
0.64665
0.795255
0.643223
0.409982
0.243382
0.406516
0.240347
0.349414
0.1976
0.346533
0.19516
0.17185
0.171924
0.169035
0.169107
0.134163
0.134222
0.131937
0.131994
0.243607
0.410359
0.240562
0.406877
0.197782
0.349728
0.195335
0.346834
0.723448
0.887049
0.719493
0.882784
0.647112
0.799634
0.643665
0.79584
0.890342
0.726747
0.888981
0.725404
0.802533
0.649947
0.801343
0.648799
0.413533
0.246558
0.412258
0.245406
0.352314
0.200103
0.351284
0.199207
0.174816
0.174895
0.173736
0.173813
0.136458
0.136521
0.135635
0.135697
0.246795
0.413931
0.245638
0.412647
0.200295
0.352646
0.199395
0.351609
0.727307
0.891068
0.725952
0.889692
0.650433
0.803173
0.649275
0.801969
0.890775
0.727392
0.890884
0.727372
0.802884
0.650463
0.802993
0.650465
0.414402
0.247452
0.414239
0.24724
0.352975
0.200761
0.352869
0.20062
0.175697
0.175777
0.175472
0.175552
0.137094
0.137159
0.136947
0.137011
0.247696
0.41481
0.247481
0.414643
0.200959
0.353315
0.200816
0.353206
0.727965
0.891517
0.72794
0.89162
0.65096
0.803537
0.650957
0.803642
0.889568
0.726609
0.890359
0.727166
0.801796
0.649762
0.802505
0.650257
0.414083
0.247337
0.414377
0.247506
0.352671
0.200632
0.352934
0.200783
0.175658
0.17574
0.17578
0.175861
0.137029
0.137094
0.137138
0.137203
0.247582
0.414494
0.24775
0.414787
0.200831
0.353014
0.200981
0.353276
0.727187
0.890317
0.727742
0.891105
0.650263
0.802455
0.650756
0.803162
0.887475
0.725063
0.88863
0.725932
0.799927
0.648403
0.800956
0.649165
0.413159
0.246746
0.413717
0.247129
0.351869
0.200123
0.352348
0.200448
0.175209
0.17529
0.175514
0.175596
0.136643
0.136708
0.136901
0.136966
0.246992
0.41357
0.247374
0.414128
0.200322
0.352211
0.200647
0.352691
0.72564
0.888223
0.72651
0.889378
0.648903
0.800585
0.649666
0.801615
0.884887
0.723117
0.886266
0.724165
0.797616
0.646698
0.798846
0.647615
0.411934
0.245914
0.412622
0.246399
0.350817
0.199423
0.351405
0.199829
0.174546
0.174627
0.174941
0.175023
0.136091
0.136156
0.136419
0.136484
0.246159
0.412343
0.246644
0.413033
0.199621
0.351158
0.200028
0.351747
0.723692
0.885633
0.724741
0.887013
0.647196
0.798272
0.648114
0.799503
0.88194
0.720899
0.883485
0.722071
0.794979
0.644751
0.796361
0.645779
0.410516
0.244937
0.411292
0.245488
0.349602
0.198605
0.350265
0.199065
0.17376
0.17384
0.174211
0.174292
0.135441
0.135506
0.135814
0.135878
0.245181
0.410923
0.245732
0.4117
0.198802
0.349941
0.199262
0.350605
0.721471
0.882682
0.722645
0.884228
0.645246
0.795631
0.646275
0.797015
0.878694
0.718464
0.880385
0.719741
0.792067
0.64261
0.793583
0.643732
0.40895
0.243852
0.409798
0.244455
0.348259
0.197695
0.348984
0.198199
0.172883
0.172963
0.173378
0.173458
0.134716
0.13478
0.135124
0.135189
0.244094
0.409354
0.244697
0.410204
0.197891
0.348596
0.198396
0.349322
0.719032
0.87943
0.720311
0.881124
0.643102
0.792715
0.644225
0.794233
0.87514
0.715809
0.876987
0.717197
0.788873
0.640274
0.790533
0.641494
0.407242
0.242666
0.408161
0.243319
0.346794
0.1967
0.347581
0.197247
0.171923
0.172003
0.172459
0.172539
0.133921
0.133984
0.134364
0.134428
0.242906
0.407643
0.24356
0.408564
0.196894
0.347127
0.197442
0.347916
0.716373
0.875871
0.717763
0.877721
0.640761
0.789516
0.641984
0.791178
0.871282
0.712942
0.873282
0.714437
0.785397
0.637745
0.787199
0.639062
0.405393
0.24138
0.406383
0.242083
0.345205
0.195619
0.346054
0.196209
0.170881
0.170959
0.171458
0.171537
0.133055
0.133118
0.133534
0.133597
0.241618
0.405791
0.242322
0.406783
0.195811
0.345536
0.196402
0.346387
0.713501
0.872007
0.714998
0.87401
0.638228
0.786035
0.639548
0.787839
0.867103
0.709851
0.869266
0.71146
0.781627
0.635014
0.783577
0.636434
0.403399
0.23999
0.404463
0.240746
0.343489
0.19445
0.344403
0.195084
0.169753
0.169831
0.170373
0.170452
0.132118
0.13218
0.132633
0.132695
0.240226
0.403793
0.240983
0.404859
0.19464
0.343817
0.195276
0.344732
0.710405
0.867822
0.712016
0.869988
0.635494
0.782259
0.636915
0.784212
0.862588
0.706517
0.864921
0.708249
0.777547
0.632072
0.779654
0.633599
0.401248
0.238492
0.402392
0.239303
0.341639
0.193187
0.34262
0.193869
0.168535
0.168613
0.169201
0.169279
0.131104
0.131166
0.131658
0.13172
0.238725
0.401639
0.239537
0.402784
0.193376
0.341963
0.194058
0.342947
0.707066
0.8633
0.7088
0.865637
0.632547
0.778174
0.634076
0.780283
0.85772
0.702936
0.860229
0.70479
0.773144
0.628909
0.775413
0.630546
0.398938
0.23688
0.400162
0.237748
0.339648
0.191828
0.3407
0.192558
0.167225
0.167302
0.167938
0.168015
0.130012
0.130073
0.130605
0.130666
0.237111
0.399324
0.23798
0.40055
0.192014
0.339969
0.192746
0.341023
0.703479
0.858425
0.705336
0.860938
0.629379
0.773764
0.631018
0.776036
0.8525
0.699104
0.855187
0.701085
0.768417
0.625523
0.77085
0.627272
0.396464
0.235152
0.39777
0.236079
0.337516
0.19037
0.33864
0.19115
0.16582
0.165895
0.16658
0.166657
0.128839
0.1289
0.129473
0.129533
0.23538
0.396846
0.236308
0.398155
0.190554
0.337833
0.191335
0.338959
0.699641
0.853198
0.701625
0.855888
0.625987
0.76903
0.627739
0.771466
0.846916
0.695022
0.849786
0.697128
0.763357
0.621911
0.765956
0.623773
0.393824
0.233306
0.395214
0.234292
0.335238
0.188811
0.336435
0.189641
0.164316
0.164391
0.165126
0.165201
0.127584
0.127644
0.128259
0.128319
0.233532
0.394201
0.234519
0.395593
0.188993
0.335552
0.189825
0.33675
0.695552
0.847606
0.697662
0.850479
0.62237
0.763963
0.624235
0.766565
0.840966
0.690678
0.844018
0.692916
0.757963
0.618072
0.760729
0.620047
0.391014
0.23134
0.392489
0.232386
0.332815
0.187151
0.334085
0.188032
0.162715
0.162789
0.163574
0.163648
0.126247
0.126306
0.126963
0.127022
0.231563
0.391387
0.23261
0.392864
0.18733
0.333125
0.188213
0.334396
0.691202
0.841647
0.693443
0.844704
0.618524
0.758561
0.620503
0.761331
0.834663
0.686074
0.837889
0.688441
0.752237
0.614013
0.755169
0.616098
0.388038
0.229257
0.389595
0.230361
0.330249
0.18539
0.33159
0.186321
0.161016
0.161089
0.161923
0.161997
0.124828
0.124886
0.125584
0.125643
0.229477
0.388406
0.230582
0.389966
0.185567
0.330554
0.186499
0.331897
0.686591
0.835335
0.688961
0.838565
0.614459
0.752828
0.616547
0.755764
0.828026
0.68125
0.831418
0.683719
0.746187
0.609713
0.749278
0.611922
0.384908
0.227062
0.386541
0.228221
0.327537
0.183532
0.328951
0.184512
0.159224
0.159295
0.160177
0.16025
0.123329
0.123386
0.124125
0.124183
0.227278
0.38527
0.228439
0.386905
0.183706
0.327838
0.184687
0.329253
0.681758
0.828689
0.684231
0.832085
0.610153
0.746769
0.612365
0.749864
0.821052
0.676205
0.824611
0.67879
0.739844
0.60519
0.743078
0.607503
0.381626
0.224756
0.383335
0.22597
0.324689
0.181579
0.326169
0.182605
0.157339
0.15741
0.158338
0.158409
0.121754
0.12181
0.122587
0.122644
0.224969
0.381983
0.226184
0.383694
0.18175
0.324985
0.182778
0.326467
0.676706
0.821706
0.679295
0.825269
0.605622
0.740418
0.607939
0.743656
0.81377
0.67093
0.817479
0.673626
0.73323
0.600479
0.736597
0.602884
0.378196
0.222345
0.379977
0.22361
0.321717
0.179539
0.323258
0.180608
0.155368
0.155437
0.156409
0.156479
0.120107
0.120162
0.120975
0.121031
0.222554
0.378547
0.223821
0.380331
0.179707
0.322007
0.180777
0.32355
0.671422
0.814412
0.674123
0.818127
0.600904
0.733795
0.603313
0.737166
0.806215
0.665452
0.810055
0.668247
0.726373
0.595597
0.729857
0.598085
0.374633
0.219839
0.376478
0.22115
0.318634
0.177421
0.320228
0.178528
0.153318
0.153386
0.154397
0.154466
0.118396
0.11845
0.119295
0.11935
0.220045
0.374977
0.221358
0.376826
0.177586
0.318918
0.178694
0.320516
0.665936
0.806847
0.668735
0.810693
0.596015
0.726928
0.598506
0.730417
0.798426
0.6598
0.802378
0.662678
0.719306
0.590567
0.72289
0.593125
0.370953
0.21725
0.372855
0.218601
0.315452
0.175234
0.317094
0.176373
0.151198
0.151265
0.152311
0.152378
0.116628
0.116681
0.117554
0.117608
0.217451
0.371291
0.218805
0.373196
0.175396
0.315732
0.176537
0.317376
0.660275
0.799048
0.663157
0.803005
0.590977
0.719852
0.593539
0.723441
0.790447
0.653998
0.794488
0.656948
0.712067
0.585406
0.715733
0.588029
0.367173
0.214589
0.369123
0.215974
0.312186
0.172989
0.313869
0.174156
0.149019
0.149085
0.15016
0.150226
0.114812
0.114864
0.115761
0.115813
0.214787
0.367505
0.216174
0.369458
0.173147
0.31246
0.174316
0.314145
0.654464
0.791057
0.657418
0.795104
0.585808
0.712603
0.588435
0.716273
0.78232
0.648069
0.786429
0.651077
0.704702
0.580121
0.708423
0.5828
0.36331
0.211869
0.365299
0.213282
0.30885
0.170697
0.310564
0.171886
0.146791
0.146855
0.147955
0.14802
0.112959
0.11301
0.113925
0.113977
0.212063
0.363635
0.213478
0.365627
0.170852
0.309118
0.172042
0.310835
0.648526
0.782919
0.651539
0.787033
0.580515
0.705228
0.583198
0.708953
0.774087
0.642043
0.778245
0.645097
0.697253
0.574764
0.701013
0.577476
0.359378
0.209097
0.3614
0.210535
0.305461
0.168368
0.3072
0.169574
0.14452
0.144583
0.145705
0.145769
0.111076
0.111125
0.112056
0.112106
0.209287
0.359696
0.210727
0.361722
0.168519
0.305723
0.169727
0.307465
0.64249
0.774673
0.64555
0.778837
0.57515
0.697768
0.577866
0.701533
0.765756
0.635917
0.769964
0.639023
0.689728
0.569332
0.693526
0.572084
0.355367
0.206267
0.357431
0.207737
0.302013
0.165997
0.303784
0.167225
0.1422
0.142261
0.143411
0.143473
0.109159
0.109207
0.110157
0.110206
0.206452
0.355678
0.207924
0.357745
0.166144
0.302269
0.167375
0.304043
0.636354
0.76633
0.639466
0.770544
0.569709
0.690231
0.572465
0.694035
0.757291
0.629644
0.761575
0.632834
0.682094
0.563782
0.685954
0.566601
0.351231
0.203338
0.353366
0.204864
0.298472
0.163557
0.300297
0.164825
0.139795
0.139855
0.141055
0.141116
0.107186
0.107233
0.108217
0.108264
0.203518
0.351534
0.205047
0.353673
0.1637
0.298721
0.164971
0.300549
0.630071
0.757852
0.633266
0.762142
0.56415
0.682585
0.566974
0.686452
0.748561
0.623096
0.753001
0.626445
0.674235
0.558002
0.678229
0.560956
0.346854
0.200212
0.34913
0.201853
0.294741
0.160972
0.296676
0.162325
0.137218
0.137277
0.138579
0.138638
0.105093
0.105139
0.106195
0.106241
0.200387
0.347149
0.202031
0.349428
0.161111
0.294982
0.162467
0.296922
0.62351
0.749107
0.626866
0.753554
0.558359
0.674713
0.561319
0.678714
0.739298
0.616016
0.744047
0.619672
0.665903
0.551762
0.670174
0.554983
0.342008
0.196695
0.344555
0.198563
0.29063
0.158091
0.292787
0.159618
0.134294
0.13435
0.135857
0.135914
0.102748
0.102791
0.103997
0.104042
0.196864
0.342292
0.198735
0.344845
0.158225
0.290863
0.159754
0.293024
0.616417
0.739827
0.62008
0.744584
0.552108
0.666367
0.555335
0.670645
0.729057
0.607962
0.73436
0.612174
0.656667
0.544654
0.661456
0.548374
0.336283
0.192432
0.339335
0.19473
0.285791
0.154629
0.288368
0.156492
0.130706
0.13076
0.13265
0.132705
0.0999017
0.0999434
0.101441
0.101484
0.192594
0.336555
0.194895
0.339614
0.154757
0.286014
0.156623
0.288597
0.608348
0.729567
0.612568
0.73488
0.544986
0.657114
0.548713
0.661911
0.717326
0.598138
0.723423
0.603374
0.645941
0.535915
0.651547
0.540586
0.328882
0.186779
0.332914
0.189879
0.279532
0.150052
0.282944
0.152562
0.125925
0.125975
0.128547
0.128599
0.0961277
0.0961668
0.0981976
0.0982382
0.186931
0.329141
0.190037
0.333179
0.150172
0.279743
0.152687
0.283161
0.598506
0.717817
0.603751
0.723922
0.536232
0.64637
0.54091
0.651985
0.705129
0.58402
0.710999
0.591996
0.634056
0.523062
0.639965
0.530372
0.317617
0.178436
0.324038
0.183103
0.269896
0.14324
0.275408
0.147063
0.119171
0.119217
0.122883
0.122932
0.0907653
0.0908012
0.0937208
0.0937584
0.178577
0.317859
0.18325
0.324288
0.14335
0.270093
0.147179
0.275612
0.584369
0.705604
0.592355
0.71148
0.523361
0.634469
0.530679
0.640385
0.710741
0.546508
0.702881
0.572077
0.635291
0.488297
0.630711
0.511977
0.294776
0.165387
0.308592
0.172615
0.24987
0.132343
0.262051
0.138414
0.110056
0.110097
0.114892
0.114936
0.0834166
0.0834483
0.0873303
0.0873642
0.165514
0.294995
0.172749
0.308823
0.132441
0.250046
0.138518
0.262239
0.546831
0.71123
0.572416
0.703356
0.488571
0.635711
0.512265
0.631121
0.384179
0.296436
0.170135
0.13377
0.3698
0.284961
0.161207
0.126787
0.100212
0.0233482
0.0241213
0.00638722
0.0937062
0.0210725
0.0223396
0.00609131
0.00518254
0.00518072
0.00418307
0.00418296
0.0047718
0.00476998
0.00420774
0.00420775
0.0233511
0.100253
0.00638665
0.0241335
0.0210738
0.0937412
0.00609056
0.022349
0.296552
0.384381
0.133845
0.170274
0.285063
0.36998
0.126851
0.161329
0.658018
0.520636
0.542454
0.424005
0.634709
0.501068
0.523334
0.408287
0.246789
0.108241
0.179292
0.0641664
0.233107
0.0995736
0.169151
0.0586048
0.0477283
0.0477395
0.0176087
0.0176078
0.0416405
0.0416484
0.0151438
0.0151418
0.108289
0.2469
0.0641831
0.179365
0.0996124
0.233203
0.0586169
0.169214
0.520836
0.658318
0.424162
0.542705
0.501246
0.634979
0.408427
0.523559
0.80981
0.651897
0.744349
0.594683
0.779532
0.625778
0.717312
0.571632
0.347477
0.185466
0.302328
0.149451
0.327375
0.170586
0.285281
0.137561
0.114848
0.114885
0.0827419
0.0827672
0.102701
0.102733
0.073506
0.0735268
0.18558
0.347679
0.149533