/*--------------------------------*- C++ -*----------------------------------*\
  =========                 |
  \\      /  F ield         | OpenFOAM: The Open Source CFD Toolbox
   \\    /   O peration     | Website:  https://openfoam.org
    \\  /    A nd           | Version:  9
     \\/     M anipulation  |
\*---------------------------------------------------------------------------*/
FoamFile
{
    format      ascii;
    class       volScalarField;
    location    "2.15";
    object      k;
}
// * * * * * * * * * * * * * * * * * * * * * * * * * * * * * * * * * * * * * //

dimensions      [0 2 -2 0 0 0 0];

internalField   nonuniform List<scalar> 
36360
(
0.0738474
0.0597639
0.0301329
0.0268837
0.0161731
0.0122189
0.00544886
0.00481293
0.0211738
0.00533512
0.00618514
0.00294925
0.00444335
0.00235627
0.0030895
0.00297199
0.00219407
0.00219361
0.00275316
0.00275326
0.00216971
0.00216969
0.00298369
0.00298368
0.00533522
0.0211806
0.00294908
0.00618649
0.00235605
0.00444388
0.002972
0.00308947
0.0597819
0.0738708
0.0268924
0.0301455
0.0122233
0.0161799
0.00481375
0.00545001
0.128359
0.105978
0.105607
0.0861026
0.0409511
0.0308905
0.0303536
0.022526
0.0547273
0.0249935
0.0394005
0.0137462
0.0153242
0.00547253
0.00904406
0.00305248
0.00881142
0.00881149
0.00353379
0.00353292
0.00205326
0.00205293
0.00174161
0.00174144
0.0250009
0.0547476
0.0137481
0.0394139
0.00547254
0.0153293
0.00305216
0.00904633
0.106011
0.128398
0.0861283
0.105638
0.0309025
0.0409671
0.0225344
0.0303655
0.1575
0.132373
0.144997
0.120927
0.0542029
0.0421998
0.0485922
0.0373194
0.0768473
0.0440557
0.067013
0.0351609
0.0246336
0.0128531
0.020516
0.00929517
0.0278168
0.027824
0.0186352
0.0186391
0.00652516
0.00652595
0.00356056
0.00356045
0.0440773
0.0768843
0.0351752
0.0670411
0.0128581
0.0246457
0.00929726
0.0205243
0.132425
0.157558
0.120968
0.145045
0.0422199
0.0542275
0.0373353
0.0486122
0.174272
0.147989
0.167
0.141185
0.0615485
0.0487586
0.0583912
0.0459194
0.0908239
0.0574675
0.0846664
0.0514853
0.0303891
0.0183516
0.0278703
0.0158951
0.0417858
0.0417982
0.0355705
0.0355804
0.0122001
0.0122038
0.00959589
0.00959824
0.0575028
0.0908794
0.051514
0.0847126
0.0183629
0.0304091
0.0159033
0.0278863
0.148062
0.174352
0.141247
0.167068
0.048788
0.0615833
0.0459442
0.0584207
0.183924
0.157079
0.179783
0.153173
0.065673
0.0525022
0.0639162
0.0509045
0.0991755
0.0656676
0.095577
0.0621312
0.0337608
0.0216888
0.0323181
0.0202606
0.0502249
0.0502412
0.0465996
0.046614
0.0157583
0.015764
0.0142406
0.0142453
0.0657144
0.099248
0.0621726
0.0956414
0.0217052
0.033788
0.0202746
0.0323418
0.157172
0.184026
0.153256
0.179874
0.0525406
0.0657177
0.0509385
0.063956
0.189144
0.162008
0.186957
0.159944
0.0678559
0.0544888
0.0669492
0.0536648
0.103732
0.0701367
0.101826
0.0682724
0.0355606
0.0234563
0.0348154
0.0227292
0.0547691
0.0547884
0.0528798
0.0528977
0.0176125
0.0176195
0.016855
0.0168614
0.0701923
0.103817
0.068324
0.101906
0.0234765
0.0355934
0.0227478
0.0348456
0.162117
0.189263
0.160045
0.187068
0.0545343
0.0679085
0.053707
0.0669982
0.191676
0.164396
0.190655
0.163433
0.0688907
0.0554249
0.0684782
0.0550534
0.105936
0.0722871
0.105052
0.0714269
0.0364091
0.0242717
0.0360736
0.0239529
0.0569342
0.0569556
0.0560707
0.0560912
0.01845
0.0184578
0.0181255
0.018133
0.0723487
0.106031
0.0714859
0.105143
0.0242943
0.0364455
0.0239745
0.0361084
0.164516
0.191808
0.163549
0.190781
0.0554751
0.0689488
0.0551015
0.0685339
0.192698
0.16536
0.192316
0.164999
0.0692981
0.0557874
0.0691486
0.0556561
0.106829
0.0731592
0.106497
0.0728345
0.0367422
0.0245835
0.0366216
0.0244727
0.0578061
0.0578286
0.0574819
0.057504
0.0187624
0.0187707
0.018653
0.0186611
0.0732241
0.106929
0.072898
0.106595
0.0246073
0.0367806
0.024496
0.0366592
0.165487
0.192836
0.165123
0.192451
0.0558403
0.0693592
0.0557079
0.0692085
0.192934
0.165595
0.192878
0.165535
0.0693886
0.0558626
0.0693697
0.0558489
0.10706
0.0733991
0.106999
0.0733307
0.0368233
0.0246584
0.0368043
0.0246414
0.0580497
0.0580728
0.0579786
0.0580014
0.0188352
0.0188436
0.0188192
0.0188276
0.0734655
0.107163
0.0733966
0.1071
0.0246828
0.0368626
0.0246655
0.0368433
0.165725
0.193076
0.165663
0.193018
0.0559168
0.0694512
0.0559026
0.0694317
0.192817
0.165508
0.192902
0.165573
0.0693466
0.0558192
0.0693786
0.0558508
0.107007
0.0733723
0.107053
0.073402
0.0368028
0.0246422
0.0368205
0.0246565
0.058033
0.0580562
0.0580564
0.0580795
0.018819
0.0188275
0.0188331
0.0188416
0.0734392
0.107111
0.0734687
0.107156
0.0246666
0.0368423
0.0246809
0.0368599
0.165639
0.19296
0.165704
0.193044
0.0558737
0.0694096
0.0559051
0.0694414
0.192514
0.165258
0.192676
0.165392
0.0692326
0.0557134
0.0692945
0.055771
0.106814
0.0732185
0.106921
0.0733057
0.036729
0.0245792
0.0367712
0.0246165
0.0578958
0.0579191
0.0579746
0.0579978
0.0187582
0.0187667
0.0187948
0.0188033
0.0732854
0.106918
0.0733728
0.107024
0.0246036
0.0367685
0.024641
0.0368108
0.165389
0.192657
0.165523
0.192819
0.055768
0.0692956
0.0558256
0.0693575
0.192112
0.164927
0.192318
0.165096
0.069083
0.0555775
0.0691608
0.0556484
0.106553
0.0730024
0.106689
0.0731162
0.03663
0.0244944
0.0366833
0.0245414
0.057699
0.0577222
0.057803
0.0578262
0.0186765
0.0186849
0.0187225
0.018731
0.0730691
0.106656
0.0731831
0.106792
0.0245187
0.0366693
0.0245658
0.0367228
0.165057
0.192255
0.165227
0.192461
0.0556319
0.0691459
0.0557028
0.0692238
0.191642
0.164541
0.191879
0.164735
0.0689086
0.055421
0.0689979
0.0555013
0.106248
0.0727473
0.106404
0.0728787
0.0365138
0.024395
0.036575
0.0244486
0.0574652
0.0574883
0.0575858
0.0576089
0.0185808
0.0185892
0.0186331
0.0186416
0.0728137
0.106351
0.0729453
0.106507
0.0244192
0.036553
0.0244729
0.0366143
0.164671
0.191784
0.164865
0.192021
0.0554751
0.0689712
0.0555555
0.0690605
0.191115
0.164113
0.191379
0.164327
0.0687138
0.0552477
0.0688129
0.0553361
0.105909
0.0724619
0.106081
0.0726078
0.0363837
0.0242835
0.0364516
0.0243429
0.0572026
0.0572255
0.057337
0.05736
0.0184739
0.0184822
0.0185316
0.01854
0.072528
0.106011
0.0726741
0.106184
0.0243076
0.0364226
0.024367
0.0364907
0.164242
0.191256
0.164457
0.191521
0.0553014
0.068776
0.05539
0.0688753
0.190533
0.163643
0.190825
0.163878
0.0684987
0.0550574
0.0686079
0.0551542
0.105538
0.0721483
0.105726
0.0723082
0.0362402
0.0241606
0.0363148
0.0242256
0.0569131
0.0569359
0.0570608
0.0570836
0.0183559
0.0183642
0.018419
0.0184273
0.0722139
0.10564
0.072374
0.105828
0.0241844
0.0362788
0.0242496
0.0363535
0.163772
0.190673
0.164007
0.190966
0.0551108
0.0685606
0.0552078
0.0686699
0.189895
0.163132
0.190215
0.163388
0.0682634
0.0548498
0.0683828
0.0549553
0.105135
0.0718061
0.105339
0.0719803
0.036083
0.0240259
0.0361644
0.0240968
0.0565963
0.056619
0.0567576
0.0567803
0.0182267
0.0182349
0.0182954
0.0183036
0.0718713
0.105235
0.0720457
0.10544
0.0240495
0.0361213
0.0241205
0.0362029
0.16326
0.190035
0.163516
0.190355
0.0549028
0.0683249
0.0550086
0.0684444
0.189201
0.162578
0.18955
0.162855
0.068007
0.0546242
0.068137
0.0547388
0.104698
0.0714344
0.104919
0.0716234
0.0359117
0.0238789
0.0360001
0.0239559
0.0562513
0.0562737
0.0564268
0.0564493
0.0180856
0.0180937
0.0181602
0.0181684
0.071499
0.104797
0.0716884
0.105019
0.0239023
0.0359497
0.0239794
0.0360383
0.162704
0.18934
0.162982
0.189689
0.0546768
0.068068
0.0547916
0.0681981
0.188447
0.161978
0.188826
0.162279
0.0677285
0.0543797
0.0678696
0.0545038
0.104225
0.0710315
0.104464
0.0712362
0.0357256
0.023719
0.0358215
0.0238024
0.0558766
0.0558989
0.056067
0.0560893
0.017932
0.0179401
0.0180128
0.0180209
0.0710956
0.104324
0.0713007
0.104564
0.0237422
0.0357632
0.0238258
0.0358593
0.162104
0.188584
0.162405
0.188964
0.0544319
0.067789
0.0545562
0.0679303
0.18763
0.161331
0.18804
0.161656
0.0674268
0.054115
0.0675795
0.0542492
0.103715
0.0705962
0.103973
0.0708172
0.0355239
0.0235456
0.0356275
0.0236358
0.0554711
0.0554931
0.0556769
0.0556991
0.0177654
0.0177734
0.0178527
0.0178608
0.0706598
0.103813
0.0708811
0.104072
0.0235686
0.0355612
0.0236589
0.035665
0.161456
0.187766
0.161781
0.188177
0.0541667
0.0674868
0.0543012
0.0676397
0.186749
0.160636
0.187192
0.160985
0.0671013
0.0538295
0.067266
0.0539742
0.103166
0.0701275
0.103444
0.0703653
0.0353062
0.0233583
0.0354178
0.0234554
0.0550336
0.0550555
0.0552554
0.0552774
0.0175854
0.0175932
0.0176794
0.0176873
0.0701904
0.103263
0.0704286
0.103542
0.023381
0.035343
0.0234782
0.0354549
0.160759
0.186884
0.161109
0.187327
0.0538807
0.0671608
0.0540257
0.0673257
0.185803
0.15989
0.186279
0.160264
0.0667516
0.0535221
0.0669284
0.0536777
0.102578
0.0696245
0.102876
0.0698794
0.0350719
0.0231566
0.0351918
0.0232609
0.0545635
0.0545851
0.0548016
0.0548234
0.0173914
0.0173992
0.0174923
0.0175001
0.0696867
0.102674
0.0699421
0.102972
0.023179
0.0351083
0.0232834
0.0352285
0.160012
0.185937
0.160387
0.186413
0.0535728
0.0668104
0.0537287
0.0669875
0.184792
0.159094
0.1853
0.159493
0.0663773
0.0531928
0.0665663
0.0533594
0.10195
0.0690868
0.102268
0.0693591
0.034821
0.0229406
0.0349492
0.0230519
0.0540604
0.0540818
0.054315
0.0543365
0.0171834
0.0171911
0.0172913
0.017299
0.0691484
0.102046
0.069421
0.102363
0.0229627
0.034857
0.0230742
0.0349854
0.159215
0.184924
0.159615
0.185433
0.0532429
0.0664355
0.0534098
0.0666248
0.183715
0.158249
0.184256
0.158673
0.0659788
0.0528416
0.0661798
0.0530189
0.101283
0.0685149
0.10162
0.0688042
0.0345535
0.0227101
0.0346899
0.0228286
0.0535245
0.0535457
0.0537954
0.0538167
0.0169614
0.0169689
0.0170762
0.0170838
0.0685757
0.101377
0.0688654
0.101715
0.0227318
0.034589
0.0228505
0.0347256
0.158368
0.183846
0.158793
0.184388
0.052891
0.0660363
0.0530687
0.0662377
0.182576
0.157354
0.183148
0.157802
0.0655567
0.0524713
0.0657694
0.0526578
0.100577
0.0679091
0.100933
0.0682152
0.0342701
0.0224654
0.0344143
0.0225909
0.0529564
0.0529773
0.0532433
0.0532643
0.0167254
0.0167329
0.0168471
0.0168545
0.0679692
0.10067
0.0682757
0.101027
0.0224868
0.0343051
0.0226125
0.0344496
0.157472
0.182705
0.157921
0.183278
0.0525201
0.0656136
0.0527069
0.0658266
0.181375
0.156412
0.181977
0.156884
0.065112
0.0520815
0.0653359
0.0522779
0.0998339
0.0672708
0.100209
0.067593
0.033971
0.0222069
0.0341229
0.0223391
0.0523569
0.0523776
0.0526593
0.0526801
0.0164759
0.0164832
0.0166042
0.0166116
0.06733
0.0999253
0.0676526
0.100301
0.022228
0.0340054
0.0223604
0.0341576
0.156528
0.181503
0.157001
0.182106
0.0521297
0.0651682
0.0523264
0.0653924
0.18012
0.155426
0.180749
0.155919
0.0646463
0.0516728
0.0648804
0.0518784
0.0990556
0.0666017
0.0994474
0.0669389
0.033657
0.0219354
0.0338162
0.0220739
0.051728
0.0517483
0.0520448
0.0520653
0.0162136
0.0162208
0.0163481
0.0163553
0.0666601
0.0991458
0.0669978
0.0995382
0.021956
0.0336908
0.0220948
0.0338503
0.155541
0.180246
0.156035
0.180875
0.0517202
0.0647017
0.0519262
0.0649361
0.178814
0.154401
0.179467
0.154914
0.0641615
0.0512471
0.0644049
0.0514609
0.0982457
0.0659047
0.0986529
0.0662555
0.0333294
0.0216518
0.0334951
0.0217962
0.051072
0.051092
0.051402
0.0514222
0.0159395
0.0159466
0.0160797
0.0160868
0.0659621
0.0983345
0.0663134
0.0987424
0.0216721
0.0333626
0.0218167
0.0335287
0.154514
0.178938
0.155028
0.179592
0.0512938
0.0642161
0.051508
0.0644598
0.177464
0.153341
0.178139
0.15387
0.0636601
0.0508066
0.0639114
0.0510276
0.0974078
0.065183
0.0978285
0.0655457
0.0329896
0.0213576
0.0331612
0.0215071
0.0503922
0.0504119
0.0507336
0.0507535
0.0156549
0.0156618
0.0158001
0.015807
0.0652395
0.0974951
0.0656027
0.0979166
0.0213774
0.0330223
0.0215271
0.0331942
0.153453
0.177587
0.153983
0.178262
0.0508526
0.0637139
0.0510739
0.0639656
0.176079
0.152252
0.17677
0.152795
0.0631449
0.0503524
0.0634028
0.0505801
0.0965463
0.0644404
0.0969783
0.0648131
0.0326393
0.0210542
0.032816
0.021208
0.049692
0.0497114
0.0500432
0.0500627
0.0153614
0.0153681
0.0155108
0.0155175
0.0644959
0.0966322
0.0648691
0.0970649
0.0210737
0.0326714
0.0212276
0.0328483
0.152362
0.1762
0.152906
0.176892
0.0503976
0.0631978
0.0506257
0.0634561
0.174666
0.151141
0.175371
0.151694
0.0626188
0.0498877
0.0628818
0.05012
0.0956658
0.0636807
0.0961068
0.0640615
0.0322807
0.0207435
0.0324612
0.0209007
0.0489753
0.0489943
0.0493343
0.0493535
0.0150605
0.0150671
0.0152133
0.0152199
0.0637353
0.0957501
0.0641166
0.0961919
0.0207624
0.032312
0.0209199
0.0324929
0.151248
0.174784
0.151803
0.17549
0.049932
0.0626708
0.0501647
0.0629342
0.173228
0.150008
0.173945
0.150572
0.0620836
0.0494151
0.062351
0.0496513
0.0947684
0.0629065
0.0952178
0.0632944
0.0319149
0.0204266
0.0320988
0.0205867
0.0482444
0.0482631
0.0486103
0.0486292
0.0147539
0.0147602
0.0149093
0.0149158
0.0629599
0.0948511
0.0633485
0.0953014
0.0204451
0.0319455
0.0206054
0.0321299
0.150114
0.173344
0.150679
0.174062
0.0494586
0.0621346
0.0496952
0.0624025
0.171765
0.148851
0.172495
0.149428
0.0615389
0.0489338
0.0618113
0.0491746
0.0938515
0.062116
0.0943115
0.0625127
0.0315417
0.0201039
0.0317295
0.020267
0.0474986
0.0475169
0.0478724
0.0478909
0.0144421
0.0144483
0.0146001
0.0146063
0.0621684
0.0939325
0.0625656
0.0943933
0.020122
0.0315716
0.0202852
0.0317598
0.148955
0.171879
0.149533
0.17261
0.0489764
0.061589
0.0492176
0.0618618
0.170261
0.147656
0.171015
0.148255
0.0609792
0.0484391
0.0612603
0.0486876
0.0929029
0.0612995
0.0933812
0.0617113
0.0311575
0.0197732
0.0313515
0.0199407
0.046729
0.0467469
0.0471166
0.0471347
0.0141236
0.0141296
0.0142853
0.0142914
0.0613507
0.0929821
0.061763
0.0934613
0.0197907
0.0311868
0.0199585
0.0313811
0.147757
0.170373
0.148358
0.171127
0.0484808
0.0610283
0.0487297
0.0613098
0.168678
0.146385
0.169478
0.147029
0.0603896
0.0479187
0.0606884
0.0481822
0.0918921
0.0604303
0.0924069
0.0608732
0.0307524
0.0194264
0.0309587
0.0196034
0.0459108
0.0459282
0.0463272
0.0463449
0.0137917
0.0137975
0.0139613
0.0139672
0.0604801
0.0919691
0.0609237
0.0924851
0.0194434
0.0307808
0.0196207
0.0309875
0.146484
0.168787
0.147129
0.169588
0.0479593
0.0604375
0.0482234
0.0607368
0.166939
0.144971
0.16783
0.145698
0.0597389
0.0473477
0.0600733
0.0476407
0.090758
0.0594535
0.0913445
0.0599594
0.0303048
0.0190458
0.0305359
0.0192428
0.044991
0.0450079
0.0454672
0.0454843
0.0134298
0.0134354
0.0136173
0.013623
0.0595017
0.0908327
0.0600084
0.0914205
0.0190622
0.0303322
0.0192594
0.0305638
0.145067
0.167045
0.145795
0.167937
0.047387
0.0597854
0.0476806
0.0601205
0.164911
0.143288
0.165967
0.144168
0.0589727
0.0466824
0.0593734
0.0470291
0.0893928
0.0582692
0.0901122
0.0588949
0.0297757
0.0185965
0.0300538
0.0188335
0.0438719
0.0438881
0.0444634
0.04448
0.0130042
0.0130095
0.0132292
0.0132346
0.0583154
0.0894646
0.0589422
0.0901855
0.018612
0.0298019
0.0188495
0.0300807
0.143381
0.165013
0.144263
0.166071
0.0467202
0.0590176
0.0470678
0.0594191
0.162397
0.141133
0.163723
0.142284
0.0580063
0.0458546
0.0585197
0.0462935
0.0876028
0.0567039
0.0885676
0.0575481
0.0290943
0.0180151
0.0294604
0.0183284
0.0423939
0.0424092
0.043189
0.0432048
0.0124552
0.0124601
0.0127511
0.0127562
0.0567478
0.0876711
0.0575932
0.0886378
0.0180296
0.0291191
0.0183434
0.029486
0.141222
0.162494
0.142374
0.163823
0.0458906
0.0580492
0.0463305
0.0585636
0.159275
0.138014
0.160892
0.139749
0.0567563
0.044733
0.0574153
0.045343
0.0849533
0.0544647
0.0864302
0.0556906
0.0281138
0.017195
0.028656
0.0176438
0.0403507
0.040365
0.0414527
0.0414675
0.0116994
0.0117038
0.0121092
0.0121139
0.0545056
0.0850174
0.055733
0.0864965
0.0172082
0.0281369
0.0176577
0.0286799
0.138097
0.159368
0.139835
0.160987
0.0447671
0.0567972
0.0453781
0.0574571
0.157224
0.131107
0.157824
0.135575
0.0552508
0.0424204
0.0560616
0.0438965
0.0802749
0.0512968
0.0829865
0.052984
0.0264744
0.0160314
0.0274119
0.0166557
0.0377653
0.0377784
0.0390914
0.0391051
0.0107071
0.0107108
0.0112274
0.0112314
0.0513339
0.0803335
0.0530231
0.0830481
0.016043
0.0264951
0.0166682
0.0274339
0.131185
0.157316
0.135657
0.157916
0.0424516
0.0552902
0.0439294
0.0561015
0.109916
0.0891595
0.0514203
0.0422241
0.0966999
0.0782073
0.0431444
0.0357585
0.039112
0.0117216
0.0105295
0.00383109
0.0318512
0.00874591
0.00849369
0.00338113
0.00343875
0.00343843
0.00266533
0.00266526
0.0028818
0.00288122
0.00268977
0.00268992
0.0117251
0.0391305
0.00383102
0.0105353
0.00874749
0.0318641
0.00338093
0.00849712
0.089194
0.109958
0.0422463
0.0514501
0.078234
0.0967337
0.0357743
0.0431663
0.185174
0.1545
0.153079
0.126048
0.164232
0.13636
0.135718
0.111254
0.0896992
0.0481968
0.0666022
0.0297851
0.0760033
0.0384734
0.0559953
0.0229986
0.0253431
0.0253489
0.00999639
0.00999723
0.0176542
0.017657
0.00670235
0.00670176
0.0482182
0.0897396
0.0297957
0.0666308
0.038488
0.0760343
0.0230049
0.0560168
0.154558
0.18524
0.126093
0.153133
0.136406
0.164285
0.11129
0.135762
0.228421
0.194095
0.209562
0.176661
0.201798
0.17055
0.185539
0.155603
0.124139
0.0795557
0.10866
0.0650442
0.105234
0.064554
0.092176
0.0524855
0.0571935
0.057209
0.0423605
0.0423717
0.0442033
0.044215
0.0317799
0.0317877
0.0795998
0.124207
0.0650773
0.108714
0.0645877
0.105288
0.0525097
0.0922179
0.194182
0.228517
0.176732
0.209642
0.17062
0.201876
0.155661
0.185604
0.254427
0.21854
0.243048
0.207791
0.22391
0.191227
0.21428
0.182176
0.146571
0.101266
0.136621
0.0915711
0.123962
0.0825871
0.115684
0.0745457
0.0792999
0.0793226
0.0694494
0.0694687
0.0627209
0.0627389
0.0544837
0.0544988
0.10133
0.146669
0.0916256
0.136704
0.0826382
0.12404
0.0745884
0.11575
0.21866
0.254559
0.207895
0.243162
0.191326
0.224018
0.18226
0.214373
0.269817
0.233197
0.263165
0.226848
0.236808
0.203445
0.231254
0.198173
0.160325
0.114754
0.154349
0.108888
0.135302
0.093696
0.130393
0.0888824
0.0929399
0.0929686
0.0870186
0.0870444
0.0740285
0.0740516
0.0691408
0.0691615
0.114836
0.160448
0.108962
0.15446
0.0937621
0.135402
0.0889414
0.130483
0.233348
0.269982
0.226984
0.263314
0.20357
0.236945
0.198285
0.231377
0.278354
0.24138
0.274749
0.237921
0.24387
0.210173
0.2409
0.207341
0.16807
0.122361
0.164796
0.119147
0.141599
0.0998687
0.138949
0.0972747
0.10059
0.100624
0.0973628
0.0973941
0.0802634
0.0802906
0.0776486
0.077674
0.122457
0.168215
0.119237
0.16493
0.0999464
0.141717
0.0973471
0.139059
0.241556
0.278546
0.238086
0.274929
0.210319
0.24403
0.207478
0.241049
0.282616
0.245487
0.28088
0.243812
0.247343
0.213494
0.245936
0.212147
0.171978
0.126194
0.170386
0.124634
0.144718
0.102918
0.143455
0.101686
0.104431
0.104468
0.102869
0.102904
0.0833248
0.0833548
0.0820896
0.0821183
0.1263
0.172137
0.124735
0.170539
0.103003
0.144849
0.101768
0.14358
0.245681
0.282827
0.243998
0.281083
0.213655
0.247519
0.212301
0.246104
0.284406
0.247234
0.283725
0.246566
0.248769
0.214873
0.248232
0.214351
0.173662
0.127852
0.173017
0.127216
0.146028
0.104199
0.145532
0.103713
0.10609
0.106129
0.105453
0.105491
0.0846083
0.0846399
0.0841215
0.0841524
0.127963
0.173829
0.127324
0.173181
0.10429
0.146165
0.103802
0.145666
0.247439
0.284629
0.246766
0.283943
0.215043
0.248954
0.214517
0.248412
0.28488
0.247732
0.284748
0.247583
0.249119
0.215239
0.249029
0.215136
0.174179
0.12838
0.174017
0.128209
0.146404
0.104584
0.146292
0.104465
0.106628
0.106668
0.106451
0.106491
0.0849995
0.0850318
0.0848762
0.0849082
0.128494
0.174351
0.128322
0.174187
0.104676
0.146545
0.104557
0.146431
0.247943
0.285109
0.247791
0.284974
0.215413
0.249308
0.215308
0.249216
0.28474
0.247651
0.284851
0.247728
0.248974
0.215146
0.249081
0.215222
0.17416
0.128396
0.174206
0.128424
0.146363
0.104573
0.146411
0.104604
0.10666
0.106701
0.106679
0.106719
0.0850024
0.0850349
0.0850255
0.085058
0.128511
0.174333
0.128538
0.174378
0.104666
0.146505
0.104697
0.146552
0.247863
0.284971
0.24794
0.285081
0.215321
0.249166
0.215397
0.249271
0.28429
0.247286
0.284532
0.247485
0.248578
0.214825
0.248789
0.214997
0.173888
0.12818
0.174043
0.128308
0.146121
0.10438
0.146256
0.104492
0.106469
0.10651
0.106585
0.106625
0.084831
0.0848636
0.0849314
0.0849641
0.128295
0.174061
0.128423
0.174217
0.104474
0.146263
0.104585
0.146399
0.247498
0.284521
0.247697
0.284763
0.215
0.248769
0.215173
0.248981
0.283681
0.246779
0.283993
0.247039
0.24805
0.214389
0.248319
0.214611
0.17349
0.127848
0.173698
0.128023
0.145781
0.104097
0.145958
0.104246
0.106165
0.106206
0.106326
0.106366
0.0845724
0.0846049
0.0847084
0.084741
0.127962
0.173664
0.128138
0.173872
0.10419
0.145923
0.104339
0.1461
0.246991
0.283912
0.247251
0.284224
0.214564
0.248241
0.214787
0.248511
0.28297
0.246185
0.283328
0.246484
0.247434
0.21388
0.247744
0.214136
0.173019
0.127449
0.17326
0.127654
0.145381
0.10376
0.145585
0.103933
0.105798
0.105838
0.105987
0.106027
0.0842626
0.084295
0.0844216
0.084454
0.127563
0.173191
0.127768
0.173433
0.103853
0.145522
0.104026
0.145727
0.246396
0.2832
0.246695
0.283558
0.214055
0.247624
0.214311
0.247934
0.28218
0.245525
0.282576
0.245856
0.246749
0.213315
0.247092
0.213598
0.172493
0.127001
0.17276
0.127229
0.144935
0.103383
0.145161
0.103575
0.105385
0.105425
0.105595
0.105635
0.0839149
0.0839471
0.0840919
0.0841243
0.127115
0.172665
0.127343
0.172932
0.103475
0.145075
0.103668
0.145302
0.245735
0.282408
0.246066
0.282805
0.213489
0.246938
0.213772
0.247282
0.281312
0.244804
0.281747
0.245165
0.245995
0.212697
0.246373
0.213006
0.171917
0.126511
0.172209
0.12676
0.144446
0.102969
0.144694
0.103179
0.104931
0.104971
0.105162
0.105201
0.0835324
0.0835644
0.0837266
0.0837587
0.126624
0.172088
0.126874
0.17238
0.103061
0.144586
0.103271
0.144834
0.245012
0.281539
0.245374
0.281975
0.21287
0.246183
0.21318
0.246561
0.280369
0.244022
0.280842
0.244414
0.245173
0.212026
0.245585
0.212362
0.171293
0.125977
0.171609
0.126248
0.143916
0.102518
0.144184
0.102747
0.104437
0.104477
0.104688
0.104727
0.0831152
0.0831471
0.0833268
0.0833588
0.12609
0.171462
0.126361
0.171779
0.102609
0.144054
0.102838
0.144323
0.244229
0.280595
0.244622
0.281068
0.212198
0.24536
0.212534
0.245773
0.279346
0.243177
0.279859
0.243601
0.244281
0.2113
0.244729
0.211664
0.170617
0.1254
0.17096
0.125693
0.143341
0.102029
0.143632
0.102277
0.103902
0.103941
0.104174
0.104213
0.082662
0.0826936
0.0828918
0.0829235
0.125511
0.170785
0.125805
0.171129
0.10212
0.143478
0.102368
0.14377
0.243383
0.27957
0.243808
0.280084
0.21147
0.244467
0.211835
0.244915
0.27824
0.242265
0.278796
0.242723
0.243314
0.210516
0.2438
0.210909
0.169888
0.124775
0.170257
0.125092
0.14272
0.1015
0.143034
0.101769
0.103323
0.103361
0.103616
0.103655
0.082171
0.0822024
0.0824199
0.0824514
0.124886
0.170055
0.125204
0.170425
0.10159
0.142856
0.101859
0.143171
0.242469
0.278462
0.242928
0.279019
0.210685
0.243499
0.211079
0.243985
0.277046
0.241283
0.277646
0.241776
0.24227
0.209671
0.242795
0.210095
0.169102
0.124103
0.1695
0.124444
0.142051
0.100929
0.142389
0.101219
0.102698
0.102736
0.103015
0.103053
0.0816406
0.0816717
0.0819093
0.0819406
0.124212
0.169268
0.124554
0.169666
0.101018
0.142186
0.101308
0.142525
0.241486
0.277267
0.241979
0.277867
0.209839
0.242453
0.210263
0.242978
0.275764
0.24023
0.276408
0.240759
0.241147
0.208764
0.241711
0.209219
0.168259
0.123379
0.168686
0.123746
0.141331
0.100315
0.141695
0.100627
0.102025
0.102064
0.102366
0.102404
0.0810693
0.0811001
0.0813586
0.0813896
0.123488
0.168423
0.123856
0.168851
0.100404
0.141465
0.100715
0.14183
0.240431
0.275983
0.240961
0.276628
0.20893
0.241328
0.209386
0.241893
0.27439
0.239104
0.27508
0.239669
0.239942
0.207794
0.240547
0.208281
0.167356
0.122604
0.167813
0.122997
0.140561
0.0996569
0.140951
0.0999904
0.101305
0.101342
0.10167
0.101708
0.0804562
0.0804867
0.0807665
0.0807972
0.122712
0.167519
0.123106
0.167976
0.0997443
0.140694
0.100078
0.141084
0.239303
0.274607
0.23987
0.275298
0.207959
0.240122
0.208446
0.240727
0.272923
0.237904
0.27366
0.238507
0.238656
0.20676
0.239302
0.207279
0.166393
0.121777
0.16688
0.122196
0.13974
0.0989537
0.140155
0.0993096
0.100534
0.100572
0.100924
0.100962
0.0798007
0.0798309
0.0801322
0.0801626
0.121884
0.166554
0.122304
0.167042
0.0990402
0.139871
0.0993966
0.140287
0.238101
0.273138
0.238705
0.273876
0.206923
0.238833
0.207443
0.23948
0.271365
0.236629
0.272147
0.237269
0.237287
0.205664
0.237975
0.206214
0.16537
0.120898
0.165887
0.121343
0.138867
0.0982059
0.139308
0.0985841
0.0997147
0.0997517
0.100129
0.100167
0.079103
0.0791328
0.0794556
0.0794856
0.121003
0.165529
0.121449
0.166048
0.0982914
0.138997
0.0986702
0.139439
0.236824
0.271578
0.237465
0.272361
0.205825
0.237463
0.206376
0.238151
0.26972
0.235286
0.270546
0.235958
0.235839
0.204502
0.236566
0.205085
0.16429
0.119967
0.164836
0.120438
0.137944
0.0974142
0.13841
0.0978143
0.0988466
0.0988832
0.0992854
0.0993222
0.0783635
0.0783931
0.0787369
0.0787666
0.120071
0.164448
0.120543
0.164994
0.0974987
0.138072
0.0978993
0.138539
0.235479
0.269931
0.236152
0.270757
0.204661
0.236013
0.205245
0.23674
0.267989
0.233878
0.268858
0.234585
0.234317
0.203278
0.23508
0.203891
0.163154
0.118987
0.163728
0.119482
0.136972
0.0965799
0.137462
0.0970011
0.0979309
0.097967
0.0983933
0.0984297
0.0775835
0.0776127
0.077977
0.0780064
0.11909
0.16331
0.119586
0.163884
0.0966633
0.137098
0.097085
0.137589
0.234068
0.268196
0.234776
0.269066
0.203435
0.234488
0.204049
0.235252
0.266175
0.232401
0.267084
0.233141
0.232724
0.201998
0.233522
0.202638
0.161964
0.117958
0.162564
0.118477
0.135953
0.0957052
0.136466
0.0961462
0.0969696
0.0970053
0.0974545
0.0974905
0.076765
0.0767938
0.0771775
0.0772064
0.11806
0.162117
0.11858
0.162719
0.0957874
0.136078
0.0962291
0.136592
0.232589
0.26638
0.23333
0.26729
0.202153
0.232893
0.202794
0.233692
0.264287
0.230863
0.265232
0.231633
0.231067
0.200667
0.231896
0.201332
0.160722
0.116885
0.161348
0.117426
0.134893
0.0947934
0.135427
0.0952525
0.095966
0.0960013
0.0964717
0.0965072
0.075911
0.0759393
0.0763408
0.0763694
0.116986
0.160874
0.117527
0.1615
0.0948744
0.135017
0.0953342
0.135551
0.231049
0.264489
0.23182
0.265435
0.20082
0.231234
0.201486
0.232064
0.262333
0.229271
0.26331
0.230067
0.229354
0.199291
0.23021
0.199978
0.159436
0.115772
0.160083
0.116333
0.133796
0.0938485
0.134348
0.0943237
0.0949243
0.094959
0.0954485
0.0954835
0.0750251
0.0750531
0.0754704
0.0754985
0.115871
0.159585
0.116432
0.160234
0.0939283
0.133917
0.0944042
0.13447
0.229453
0.262532
0.230251
0.26351
0.199441
0.229518
0.20013
0.230375
0.260323
0.22763
0.261327
0.22845
0.227592
0.197874
0.228472
0.198582
0.15811
0.114624
0.158777
0.115202
0.132666
0.0928748
0.133233
0.0933639
0.0938489
0.0938831
0.0943894
0.0944239
0.0741117
0.0741392
0.0745702
0.0745979
0.114722
0.158257
0.1153
0.158925
0.0929533
0.132785
0.0934432
0.133354
0.22781
0.260519
0.228631
0.261525
0.198023
0.227754
0.198731
0.228635
0.258265
0.225946
0.259293
0.226786
0.225791
0.196419
0.226689
0.197145
0.156749
0.113445
0.157433
0.114038
0.131507
0.0918765
0.132088
0.0923774
0.092744
0.0927777
0.0932989
0.0933329
0.0731748
0.0732018
0.0736446
0.0736719
0.113541
0.156894
0.114135
0.157579
0.0919537
0.131624
0.0924554
0.132207
0.226123
0.258459
0.226965
0.259487
0.196565
0.22595
0.197292
0.226849
0.256166
0.224223
0.257214
0.225083
0.223957
0.194935
0.224871
0.195675
0.155356
0.112237
0.156056
0.112844
0.130324
0.0908562
0.130917
0.0913682
0.0916111
0.0916442
0.0921802
0.0922136
0.0722167
0.0722433
0.0726971
0.0727239
0.112331
0.155497
0.11294
0.156199
0.090932
0.130439
0.0914447
0.131033
0.224397
0.256356
0.225258
0.257405
0.195078
0.224114
0.195819
0.225029
0.254017
0.222453
0.255092
0.223339
0.222086
0.193416
0.223021
0.194175
0.153921
0.110993
0.154643
0.11162
0.12911
0.0898099
0.12972
0.090336
0.0904436
0.0904761
0.0910316
0.0910644
0.0712341
0.0712601
0.0717278
0.0717541
0.111085
0.15406
0.111713
0.154784
0.0898842
0.129223
0.0904111
0.129834
0.222623
0.254204
0.223511
0.255279
0.193556
0.22224
0.194317
0.223175
0.251792
0.220607
0.25291
0.221536
0.220157
0.19184
0.221125
0.192631
0.152419
0.109687
0.15318
0.110349
0.127847
0.0887203
0.128485
0.0892714
0.0892183
0.0892501
0.0898397
0.0898719
0.0702109
0.0702365
0.0707281
0.0707539
0.109778
0.152555
0.110441
0.153318
0.088793
0.127957
0.089345
0.128597
0.220774
0.251974
0.221705
0.253094
0.191977
0.220307
0.19277
0.221276
0.249425
0.218622
0.250625
0.219631
0.218116
0.190155
0.219149
0.19101
0.15079
0.108266
0.151625
0.108996
0.126489
0.0875458
0.127183
0.0881467
0.0878812
0.0879122
0.0885679
0.0885993
0.0691075
0.0691323
0.0696718
0.069697
0.108354
0.150923
0.109085
0.151759
0.0876167
0.126596
0.0882186
0.127292
0.218785
0.249603
0.219797
0.250805
0.190289
0.218263
0.191146
0.219297
0.246795
0.216379
0.248146
0.217536
0.215862
0.188266
0.217018
0.189239
0.148924
0.106621
0.149895
0.10748
0.124947
0.0862038
0.125747
0.0869021
0.0863277
0.0863578
0.0871396
0.0871702
0.067843
0.0678671
0.0685012
0.0685258
0.106707
0.149053
0.107567
0.150026
0.0862725
0.125051
0.086972
0.125853
0.216537
0.246967
0.217697
0.248321
0.188396
0.216005
0.189371
0.217162
0.243707
0.213685
0.245316
0.215098
0.213228
0.186007
0.2146
0.18719
0.146632
0.104573
0.147846
0.105662
0.123067
0.0845482
0.124061
0.0854266
0.0843807
0.0844097
0.0854167
0.0854463
0.0662754
0.0662986
0.0671076
0.0671313
0.104655
0.146756
0.105746
0.147972
0.0846142
0.123167
0.085494
0.124163
0.213837
0.243874
0.215253
0.245486
0.186132
0.213366
0.187318
0.21474
0.239916
0.210232
0.241907
0.212072
0.20998
0.183105
0.21169
0.184654
0.143598
0.101834
0.145233
0.103312
0.120578
0.0823369
0.121921
0.0835309
0.0817808
0.0818085
0.0831798
0.0832082
0.064185
0.0642071
0.0653106
0.0653333
0.101913
0.143716
0.103392
0.145355
0.0823998
0.120674
0.0835954
0.122019
0.210378
0.240076
0.212222
0.24207
0.183225
0.210112
0.184777
0.211824
0.235452
0.205377
0.237712
0.208048
0.206045
0.178942
0.208063
0.181249
0.139219
0.098011
0.141634
0.100083
0.116927
0.0792051
0.118952
0.0809105
0.0782672
0.0782933
0.080145
0.0801719
0.0613248
0.0613455
0.0628599
0.0628813
0.0980851
0.139332
0.100159
0.14175
0.079264
0.117017
0.0809715
0.119045
0.205516
0.235607
0.208191
0.237869
0.179056
0.206172
0.181366
0.208191
0.233553
0.195536
0.233648
0.20178
0.203888
0.170179
0.204319
0.175771
0.132114
0.0929493
0.136139
0.0955983
0.110797
0.0749508
0.114296
0.0771895
0.0740559
0.07408
0.076188
0.0762131
0.0578274
0.0578464
0.0596042
0.0596241
0.0930179
0.132218
0.0956699
0.136248
0.075005
0.110881
0.0772463
0.114383
0.195668
0.233709
0.201917