/*--------------------------------*- C++ -*----------------------------------*\
  =========                 |
  \\      /  F ield         | OpenFOAM: The Open Source CFD Toolbox
   \\    /   O peration     | Website:  https://openfoam.org
    \\  /    A nd           | Version:  9
     \\/     M anipulation  |
\*---------------------------------------------------------------------------*/
FoamFile
{
    format      ascii;
    class       surfaceScalarField;
    location    "2.15";
    object      phi;
}
// * * * * * * * * * * * * * * * * * * * * * * * * * * * * * * * * * * * * * //

dimensions      [0 3 -1 0 0 0 0];

internalField   nonuniform List<scalar> 
104044
(
4.25632e-07
-6.55704e-05
-7.29957e-07
6.44952e-05
1.37954e-06
-4.57701e-05
-2.80065e-06
-1.56181e-07
4.83699e-05
7.82586e-07
2.1856e-07
-1.34887e-06
1.65277e-06
-2.44475e-06
-8.57075e-08
5.0919e-07
1.00429e-08
-6.91567e-05
6.84167e-05
-4.36917e-05
9.20682e-09
4.08919e-05
4.3888e-08
-2.20127e-08
-9.04622e-09
-5.19351e-05
-2.191e-06
5.24556e-05
1.52329e-06
-5.43733e-05
-6.84162e-07
-2.85297e-11
5.47708e-05
2.77693e-07
-4.40289e-09
-1.71727e-06
8.48316e-07
-1.03398e-06
1.00627e-10
2.25855e-07
-7.82957e-09
-5.58262e-05
5.36522e-05
-5.6379e-05
-3.55366e-09
5.56906e-05
-5.62316e-09
-8.78828e-10
1.40945e-12
-5.50999e-05
-5.60087e-07
5.55681e-05
9.18134e-08
-5.50994e-05
-5.60058e-07
3.20129e-11
5.55676e-05
9.18151e-08
4.17223e-13
-1.06105e-06
2.17514e-07
-1.06104e-06
-9.91744e-11
2.17522e-07
1.33011e-12
-5.5583e-05
5.50194e-05
-5.55825e-05
3.56449e-09
5.50188e-05
3.04342e-13
8.79857e-10
9.05236e-09
-5.43718e-05
-6.8411e-07
5.47691e-05
2.7777e-07
-5.19322e-05
-2.19156e-06
1.56213e-07
5.24528e-05
1.52379e-06
4.4076e-09
-1.03393e-06
2.2588e-07
-1.71757e-06
8.57259e-08
8.4865e-07
7.82595e-09
-5.63773e-05
5.5689e-05
-5.58223e-05
-9.25374e-09
5.36478e-05
5.62514e-09
2.19967e-08
-4.25738e-07
-4.57676e-05
-2.80048e-06
4.8368e-05
7.82072e-07
-6.55736e-05
-7.30507e-07
6.44982e-05
1.38015e-06
-2.1863e-07
-2.44466e-06
5.0862e-07
-1.35003e-06
1.65398e-06
-9.99971e-09
-4.36848e-05
4.08851e-05
-6.91662e-05
6.84257e-05
-4.38662e-08
3.82368e-07
-6.33359e-05
-1.51427e-06
6.22681e-05
2.19974e-06
-5.01352e-05
6.92682e-07
-1.07907e-07
5.10965e-05
-1.16367e-06
4.26237e-07
-1.14309e-06
1.87611e-06
-9.99123e-07
-1.3985e-07
-2.00067e-07
-2.36301e-07
-6.737e-05
6.6092e-05
-3.97178e-05
1.62984e-07
4.00112e-05
-9.63009e-08
7.87224e-08
-1.53458e-08
-5.29476e-05
-1.9575e-06
5.31354e-05
1.6771e-06
-5.49915e-05
-1.0175e-06
-3.45922e-09
5.50555e-05
9.41545e-07
-1.13291e-08
-2.47104e-06
1.8506e-06
-9.53865e-07
-1.89823e-09
7.23749e-07
-8.92616e-09
-5.12672e-05
4.94816e-05
-5.47357e-05
-7.37442e-09
5.37166e-05
-7.2821e-09
-6.2494e-09
4.12056e-12
-5.59679e-05
-3.347e-07
5.60669e-05
2.32223e-07
-5.59674e-05
-3.34623e-07
3.45924e-09
5.60663e-05
2.32243e-07
8.60897e-12
-4.16451e-07
1.47503e-08
-4.16353e-07
1.92013e-09
1.47089e-08
6.26397e-12
-5.45967e-05
5.42546e-05
-5.45962e-05
7.38494e-09
5.42542e-05
3.00795e-12
6.25688e-09
1.53383e-08
-5.49896e-05
-1.01761e-06
5.50536e-05
9.41755e-07
-5.29448e-05
-1.95768e-06
1.07894e-07
5.31328e-05
1.67719e-06
1.13367e-08
-9.53884e-07
7.23931e-07
-2.47145e-06
1.39866e-07
1.8509e-06
8.91674e-09
-5.47341e-05
5.37149e-05
-5.12624e-05
-1.6312e-07
4.94768e-05
7.27854e-09
-7.88082e-08
-3.82371e-07
-5.01333e-05
6.93717e-07
5.10947e-05
-1.16486e-06
-6.33388e-05
-1.51488e-06
6.22708e-05
2.20051e-06
-4.26292e-07
-9.98234e-07
-2.00918e-07
-1.14366e-06
1.87684e-06
2.36506e-07
-3.97117e-05
4.00057e-05
-6.73785e-05
6.61001e-05
9.64155e-08
2.13432e-07
-6.13459e-05
-1.85405e-06
6.05446e-05
2.44196e-06
-5.17612e-05
2.10944e-06
-1.66821e-08
5.22898e-05
-2.40799e-06
3.00629e-07
-1.71625e-06
2.33777e-06
1.57706e-06
-6.18169e-08
-1.8793e-06
-5.378e-07
-6.47609e-05
6.34447e-05
-4.09569e-05
3.25258e-07
4.22033e-05
-3.85181e-07
2.46164e-07
-9.25426e-09
-5.31392e-05
-9.25967e-07
5.31073e-05
9.50459e-07
-5.49983e-05
-6.16074e-07
-1.18943e-08
5.48632e-05
7.53857e-07
-1.37544e-08
-1.34591e-06
1.29406e-06
-8.39418e-07
-5.41433e-09
8.88283e-07
-9.60058e-11
-4.83882e-05
4.77876e-05
-5.28803e-05
-1.14945e-08
5.22756e-05
-6.38705e-09
-9.45514e-09
-7.43058e-12
-5.5963e-05
-2.75921e-07
5.58051e-05
4.21947e-07
-5.59623e-05
-2.75978e-07
1.1946e-08
5.58044e-05
4.21956e-07
9.40058e-12
-3.04079e-07
4.02563e-07
-3.04068e-07
5.40788e-09
4.02662e-07
9.04893e-12
-5.3941e-05
5.36536e-05
-5.39407e-05
1.15133e-08
5.36532e-05
8.24948e-12
9.46663e-09
9.26171e-09
-5.49964e-05
-6.1625e-07
5.48613e-05
7.54079e-07
-5.31367e-05
-9.25949e-07
1.66209e-08
5.31048e-05
9.504e-07
1.36943e-08
-8.39578e-07
8.88496e-07
-1.34593e-06
6.17769e-08
1.29394e-06
7.54461e-11
-5.28784e-05
5.22736e-05
-4.83836e-05
-3.25481e-07
4.77832e-05
6.37316e-09
-2.46344e-07
-2.13364e-07
-5.17595e-05
2.11062e-06
5.22883e-05
-2.4094e-06
-6.13485e-05
-1.85483e-06
6.0547e-05
2.44297e-06
-3.00586e-07
1.5782e-06
-1.88066e-06
-1.7169e-06
2.33861e-06
5.38189e-07
-4.09521e-05
4.21991e-05
-6.47687e-05
6.3452e-05
3.85477e-07
3.74434e-08
-5.98608e-05
-1.94062e-06
5.92623e-05
2.50172e-06
-5.27376e-05
2.49504e-06
7.46089e-08
5.31218e-05
-2.91641e-06
1.21517e-07
-1.89386e-06
2.45614e-06
2.35521e-06
2.16751e-08
-2.70311e-06
-7.94637e-07
-6.22181e-05
6.10721e-05
-4.35063e-05
4.38876e-07
4.47678e-05
-6.67272e-07
3.84937e-07
8.55503e-09
-5.30985e-05
-4.40122e-07
5.31398e-05
4.64911e-07
-5.47126e-05
-3.07111e-07
-1.29873e-08
5.45801e-05
4.61144e-07
-2.26323e-09
-6.26867e-07
6.59573e-07
-4.23675e-07
-1.36646e-08
5.85681e-07
2.08047e-08
-4.75364e-05
4.75144e-05
-5.1873e-05
-1.02431e-08
5.1597e-05
9.26574e-09
-1.1844e-08
8.09625e-12
-5.56356e-05
-1.25542e-07
5.5474e-05
2.74154e-07
-5.56349e-05
-1.25633e-07
1.29931e-08
5.54733e-05
2.7425e-07
7.61029e-12
-1.92829e-07
3.48676e-07
-1.92927e-07
1.36802e-08
3.48771e-07
1.02919e-11
-5.34489e-05
5.33131e-05
-5.34485e-05
1.02527e-08
5.33126e-05
9.96923e-12
1.18548e-08
-8.57581e-09
-5.47107e-05
-3.07268e-07
5.45782e-05
4.61306e-07
-5.30962e-05
-4.40069e-07
-7.46771e-08
5.31376e-05
4.64747e-07
2.23981e-09
-4.23837e-07
5.85853e-07
-6.26833e-07
-2.16924e-08
6.59414e-07
-2.08528e-08
-5.18709e-05
5.15948e-05
-4.75322e-05
-4.39161e-07
4.75105e-05
-9.30023e-09
-3.85191e-07
-3.73122e-08
-5.27361e-05
2.4963e-06
5.31204e-05
-2.91794e-06
-5.9863e-05
-1.94163e-06
5.92643e-05
2.50304e-06
-1.2141e-07
2.35643e-06
-2.70457e-06
-1.89473e-06
2.45728e-06
7.95195e-07
-4.35026e-05
4.47645e-05
-6.2225e-05
6.10786e-05
6.67743e-07
-1.10221e-07
-5.87437e-05
-1.94167e-06
5.82817e-05
2.51391e-06
-5.34513e-05
2.49623e-06
1.26454e-07
5.37348e-05
-3.01641e-06
-4.01414e-08
-1.92699e-06
2.48566e-06
2.49581e-06
1.04997e-07
-2.97052e-06
-9.85799e-07
-6.00345e-05
5.90786e-05
-4.59028e-05
5.02348e-07
4.69109e-05
-8.89386e-07
4.71363e-07
2.76533e-08
-5.32151e-05
-2.54474e-07
5.33122e-05
2.56189e-07
-5.44757e-05
-2.00536e-07
-8.33171e-09
5.43965e-05
3.15741e-07
1.7715e-08
-3.18632e-07
3.30538e-07
-2.35562e-07
-9.85028e-09
3.67499e-07
4.53566e-08
-4.76343e-05
4.78368e-05
-5.14037e-05
-8.20616e-09
5.12567e-05
3.27737e-08
-9.54424e-09
7.76409e-12
-5.5335e-05
-8.53062e-08
5.52131e-05
1.98936e-07
-5.53343e-05
-8.53818e-08
8.33375e-09
5.52124e-05
1.9902e-07
7.89518e-12
-9.07711e-08
2.19856e-07
-9.08538e-08
9.85502e-09
2.19948e-07
9.17704e-12
-5.32128e-05
5.31193e-05
-5.32122e-05
8.20968e-09
5.31186e-05
9.49987e-12
9.5504e-09
-2.77007e-08
-5.44739e-05
-2.00659e-07
5.43947e-05
3.15873e-07
-5.32131e-05
-2.54431e-07
-1.26499e-07
5.33104e-05
2.5601e-07
-1.77504e-08
-2.35705e-07
3.67646e-07
-3.18581e-07
-1.0505e-07
3.30368e-07
-4.54263e-08
-5.14015e-05
5.12544e-05
-4.76307e-05
-5.02674e-07
4.78335e-05
-3.28327e-08
-4.71668e-07
1.10391e-07
-5.34501e-05
2.4976e-06
5.37337e-05
-3.01807e-06
-5.87456e-05
-1.94285e-06
5.82834e-05
2.51545e-06
4.02909e-08
2.4971e-06
-2.9721e-06
-1.92806e-06
2.48706e-06
9.865e-07
-4.58999e-05
4.69084e-05
-6.00406e-05
5.90842e-05
8.90013e-07
-2.24529e-07
-5.7873e-05
-1.90837e-06
5.7501e-05
2.5049e-06
-5.39678e-05
2.37499e-06
1.4802e-07
5.41556e-05
-2.93537e-06
-1.69704e-07
-1.90764e-06
2.48601e-06
2.41737e-06
1.3842e-07
-2.95843e-06
-1.11787e-06
-5.82187e-05
5.74282e-05
-4.77662e-05
5.29445e-07
4.84939e-05
-1.04777e-06
5.14299e-07
4.7781e-08
-5.34164e-05
-2.096e-07
5.35193e-05
2.0692e-07
-5.43364e-05
-1.72633e-07
-3.29397e-09
5.42868e-05
2.73309e-07
3.7236e-08
-2.18671e-07
2.1565e-07
-1.79675e-07
-5.99407e-09
2.82956e-07
6.7608e-08
-4.80761e-05
4.83283e-05
-5.11395e-05
-3.48707e-09
5.1038e-05
5.64044e-08
-6.03513e-09
9.70824e-12
-5.51059e-05
-1.08785e-07
5.50068e-05
2.04555e-07
-5.51052e-05
-1.08836e-07
3.29338e-09
5.50062e-05
2.04615e-07
7.97545e-12
-9.30411e-08
1.94191e-07
-9.3105e-08
5.99434e-09
1.94263e-07
9.69381e-12
-5.30202e-05
5.29079e-05
-5.30195e-05
3.48645e-09
5.29072e-05
8.69847e-12
6.03622e-09
-4.78597e-08
-5.43347e-05
-1.72698e-07
5.42851e-05
2.73418e-07
-5.34147e-05
-2.09582e-07
-1.4805e-07
5.35177e-05
2.06735e-07
-3.72964e-08
-1.79769e-07
2.83071e-07
-2.18636e-07
-1.38457e-07
2.15467e-07
-6.76924e-08
-5.11372e-05
5.10357e-05
-4.8073e-05
-5.29795e-07
4.83256e-05
-5.64814e-08
-5.14636e-07
2.24736e-07
-5.39667e-05
2.37648e-06
5.41546e-05
-2.93717e-06
-5.78745e-05
-1.90965e-06
5.75023e-05
2.50657e-06
1.6989e-07
2.4188e-06
-2.96015e-06
-1.90884e-06
2.48758e-06
1.11868e-06
-4.7764e-05
4.8492e-05
-5.82239e-05
5.74329e-05
1.04852e-06
-3.08496e-07
-5.71648e-05
-1.85413e-06
5.68524e-05
2.475e-06
-5.42977e-05
2.22853e-06
1.53449e-07
5.43994e-05
-2.79214e-06
-2.67186e-07
-1.86253e-06
2.46595e-06
2.27712e-06
1.50644e-07
-2.83705e-06
-1.20267e-06
-5.6719e-05
5.60675e-05
-4.90864e-05
5.41517e-07
4.95707e-05
-1.15327e-06
5.3138e-07
7.57293e-08
-5.36119e-05
-2.25163e-07
5.36869e-05
2.2784e-07
-5.42423e-05
-1.62793e-07
3.22893e-09
5.42017e-05
2.75915e-07
5.79336e-08
-2.10339e-07
2.1051e-07
-1.65935e-07
-1.64147e-10
2.6854e-07
8.52226e-08
-4.85731e-05
4.88042e-05
-5.09488e-05
2.5868e-09
5.08686e-05
7.62464e-08
-5.31523e-10
1.33677e-11
-5.49135e-05
-1.37389e-07
5.48208e-05
2.3333e-07
-5.49128e-05
-1.37419e-07
-3.23233e-09
5.48201e-05
2.33368e-07
1.05811e-11
-1.22701e-07
2.1586e-07
-1.22742e-07
1.59533e-10
2.15908e-07
1.96697e-11
-5.27847e-05
5.26499e-05
-5.27839e-05
-2.57456e-09
5.26491e-05
1.20996e-11
5.31458e-10
-7.61617e-08
-5.42407e-05
-1.62731e-07
5.42003e-05
2.76037e-07
-5.36104e-05
-2.25242e-07
-1.53457e-07
5.36854e-05
2.27584e-07
-5.80476e-08
-1.65953e-07
2.68643e-07
-2.10349e-07
-1.50665e-07
2.10286e-07
-8.53329e-08
-5.09466e-05
5.08666e-05
-4.85706e-05
-5.4187e-07
4.88019e-05
-7.63348e-08
-5.31736e-07
3.08745e-07
-5.42967e-05
2.23011e-06
5.43985e-05
-2.79406e-06
-5.71659e-05
-1.85546e-06
5.68534e-05
2.47673e-06
2.67411e-07
2.27865e-06
-2.8389e-06
-1.8638e-06
2.46761e-06
1.20359e-06
-4.90848e-05
4.95694e-05
-5.67233e-05
5.60714e-05
1.15413e-06
-3.67703e-07
-5.65642e-05
-1.79145e-06
5.62915e-05
2.43181e-06
-5.44637e-05
2.09241e-06
1.48846e-07
5.44954e-05
-2.64071e-06
-3.375e-07
-1.8041e-06
2.42985e-06
2.13653e-06
1.50648e-07
-2.68899e-06
-1.25361e-06
-5.5483e-05
5.49451e-05
-4.99502e-05
5.40819e-07
5.02482e-05
-1.21955e-06
5.37499e-07
1.00929e-07
-5.37417e-05
-2.64363e-07
5.37792e-05
2.74753e-07
-5.41618e-05
-1.52141e-07
9.58962e-09
5.41168e-05
2.88459e-07
8.99939e-08
-2.41257e-07
2.47156e-07
-1.55697e-07
6.44012e-09
2.79137e-07
9.35863e-08
-4.90092e-05
4.91921e-05
-5.07985e-05
8.08234e-09
5.07318e-05
9.12498e-08
5.71469e-09
-3.51352e-11
-5.47282e-05
-1.5673e-07
5.46323e-05
2.62311e-07
-5.47276e-05
-1.56838e-07
-9.66728e-09
5.46317e-05
2.62352e-07
1.26807e-11
-1.46864e-07
2.45848e-07
-1.46879e-07
-6.43322e-09
2.45875e-07
-4.12593e-10
-5.25087e-05
5.23604e-05
-5.25078e-05
-9.33599e-09
5.23599e-05
3.51254e-11
-5.55209e-09
-1.00836e-07
-5.41604e-05
-1.52533e-07
5.41156e-05
2.88533e-07
-5.37403e-05
-2.63941e-07
-1.48899e-07
5.37778e-05
2.74525e-07
-9.01498e-08
-1.55587e-07
2.79199e-07
-2.41377e-07
-1.50632e-07
2.46932e-07
-9.6623e-08
-5.07961e-05
5.07308e-05
-4.90076e-05
-5.42255e-07
4.91893e-05
-9.06031e-08
-5.37689e-07
3.67933e-07
-5.44629e-05
2.0942e-06
5.44946e-05
-2.64272e-06
-5.6565e-05
-1.79271e-06
5.62921e-05
2.43353e-06
3.37768e-07
2.13813e-06
-2.69093e-06
-1.80538e-06
2.43155e-06
1.25423e-06
-4.99494e-05
5.02471e-05
-5.54865e-05
5.49481e-05
1.22052e-06
-4.07168e-07
-5.60352e-05
-1.72867e-06
5.57879e-05
2.3832e-06
-5.44979e-05
1.97089e-06
1.44216e-07
5.4473e-05
-2.49733e-06
-3.85601e-07
-1.74095e-06
2.38287e-06
2.00901e-06
1.44318e-07
-2.54146e-06
-1.27936e-06
-5.44602e-05
5.40109e-05
-5.04682e-05
5.32684e-07
5.0627e-05
-1.25601e-06
5.32997e-07
1.15229e-07
-5.37983e-05
-3.03841e-07
5.38009e-05
3.30169e-07
-5.40664e-05
-1.48024e-07
1.52024e-08
5.40082e-05
3.06245e-07
1.07551e-07
-2.81362e-07
2.99049e-07
-1.47948e-07
1.24491e-08
2.93479e-07
9.86148e-08
-4.93456e-05
4.94759e-05
-5.067e-05
1.39022e-08
5.06066e-05
9.80862e-08
1.20248e-08
-2.22422e-11
-5.45339e-05
-1.68313e-07
5.44305e-05
2.86966e-07
-5.45334e-05
-1.68354e-07
-1.53245e-08
5.44301e-05
2.86974e-07
5.59197e-11
-1.61694e-07
2.72409e-07
-1.61614e-07
-1.24121e-08
2.72414e-07
-1.80776e-10
-5.22104e-05
5.20561e-05
-5.22095e-05
-1.4533e-08
5.20555e-05
4.03077e-10
-1.08698e-08
-1.153e-07
-5.40651e-05
-1.48165e-07
5.40069e-05
3.06297e-07
-5.37971e-05
-3.03693e-07
-1.44249e-07
5.37997e-05
3.29998e-07
-1.0793e-07
-1.47482e-07
2.93479e-07
-2.8188e-07
-1.44288e-07
2.98901e-07
-1.00378e-07
-5.06677e-05
5.06053e-05
-4.93446e-05
-5.33586e-07
4.94741e-05
-9.51856e-08
-5.32336e-07
4.07464e-07
-5.44973e-05
1.97254e-06
5.44723e-05
-2.49931e-06
-5.60357e-05
-1.72999e-06
5.57882e-05
2.38497e-06
3.85938e-07
2.01045e-06
-2.54338e-06
-1.74231e-06
2.38461e-06
1.28021e-06
-5.04679e-05
5.06266e-05
-5.44631e-05
5.40133e-05
1.25731e-06
-4.3224e-07
-5.55507e-05
-1.67438e-06
5.53176e-05
2.33974e-06
-5.4425e-05
1.86521e-06
1.3917e-07
5.43546e-05
-2.36617e-06
-4.17217e-07
-1.68318e-06
2.33757e-06
1.89695e-06
1.40665e-07
-2.40684e-06
-1.28875e-06
-5.36012e-05
5.32155e-05
-5.07283e-05
5.20424e-07
5.07843e-05
-1.27348e-06
5.22225e-07
1.24133e-07
-5.3786e-05
-3.40374e-07
5.37536e-05
3.87817e-07
-5.39425e-05
-1.51192e-07
1.80848e-08
5.38674e-05
3.32277e-07
1.19194e-07
-3.1922e-07
3.55615e-07
-1.47494e-07
1.72312e-08
3.15208e-07
1.01307e-07
-4.95786e-05
4.96573e-05
-5.05429e-05
1.84478e-08
5.04746e-05
1.00323e-07
1.65822e-08
-1.81451e-10
-5.43231e-05
-1.76294e-07
5.42086e-05
3.09005e-07
-5.43225e-05
-1.76282e-07
-1.87085e-08
5.42082e-05
3.09047e-07
2.29622e-10
-1.70874e-07
2.95301e-07
-1.70925e-07
-1.64949e-08
2.95231e-07
-1.09446e-10
-5.19018e-05
5.1744e-05
-5.19011e-05
-1.89859e-08
5.17437e-05
7.43235e-11
-1.64167e-08
-1.24417e-07
-5.39415e-05
-1.51318e-07
5.38663e-05
3.32239e-07
-5.3785e-05
-3.40366e-07
-1.39252e-07
5.37526e-05
3.87654e-07
-1.19198e-07
-1.47237e-07
3.15347e-07
-3.19365e-07
-1.40604e-07
3.55496e-07
-1.02455e-07
-5.05413e-05
5.04734e-05
-4.95775e-05
-5.21097e-07
4.96558e-05
-9.9586e-08
-5.22349e-07
4.32553e-07
-5.44244e-05
1.86677e-06
5.4354e-05
-2.36811e-06
-5.5551e-05
-1.67569e-06
5.53177e-05
2.34148e-06
4.17568e-07
1.89848e-06
-2.40877e-06
-1.68446e-06
2.33929e-06
1.2897e-06
-5.07282e-05
5.07842e-05
-5.36034e-05
5.32174e-05
1.27456e-06
-4.46965e-07
-5.50893e-05
-1.62927e-06
5.48609e-05
2.30466e-06
-5.42661e-05
1.77225e-06
1.32841e-07
5.41582e-05
-2.24415e-06
-4.3629e-07
-1.63295e-06
2.29745e-06
1.79846e-06
1.34798e-07
-2.28105e-06
-1.2868e-06
-5.28586e-05
5.25162e-05
-5.07978e-05
5.05811e-07
5.07774e-05
-1.27604e-06
5.08938e-07
1.29337e-07
-5.3704e-05
-3.75612e-07
5.36368e-05
4.46267e-07
-5.37832e-05
-1.61117e-07
2.0729e-08
5.36875e-05
3.65393e-07
1.25808e-07
-3.544e-07
4.13012e-07
-1.53908e-07
1.93965e-08
3.44563e-07
1.00945e-07
-4.97092e-05
4.97385e-05
-5.04028e-05
1.92673e-08
5.03233e-05
1.02608e-07
2.04781e-08
-3.33902e-11
-5.40888e-05
-1.83693e-07
5.39604e-05
3.32892e-07
-5.40884e-05
-1.83956e-07
-2.0606e-08
5.396e-05
3.32887e-07
3.13463e-11
-1.7809e-07
3.1726e-07
-1.7791e-07
-1.94235e-08
3.17235e-07
-8.06881e-10
-5.15859e-05
5.14223e-05
-5.15849e-05
-2.22797e-08
5.14224e-05
5.01933e-10
-1.86432e-08
-1.29328e-07
-5.37822e-05
-1.6117e-07
5.36866e-05
3.65436e-07
-5.37032e-05
-3.75241e-07
-1.32914e-07
5.36359e-05
4.46108e-07
-1.26105e-07
-1.53759e-07
3.44582e-07
-3.54816e-07
-1.34784e-07
4.12902e-07
-1.04555e-07
-5.04013e-05
5.03225e-05
-4.97092e-05
-5.07313e-07
4.97367e-05
-1.0033e-07
-5.08531e-07
4.47275e-07
-5.42656e-05
1.77389e-06
5.41576e-05
-2.24607e-06
-5.50895e-05
-1.63048e-06
5.48609e-05
2.30634e-06
4.36661e-07
1.79986e-06
-2.28294e-06
-1.63424e-06
2.29914e-06
1.2875e-06
-5.07982e-05
5.07773e-05
-5.28604e-05
5.25175e-05
1.2773e-06
-4.5448e-07
-5.46332e-05
-1.59401e-06
5.44015e-05
2.2801e-06
-5.40346e-05
1.68945e-06
1.26211e-07
5.38935e-05
-2.12897e-06
-4.47122e-07
-1.5938e-06
2.2687e-06
1.71287e-06
1.28353e-07
-2.16481e-06
-1.27733e-06
-5.21926e-05
5.18759e-05
-5.07251e-05
4.91092e-07
5.06461e-05
-1.27024e-06
4.94996e-07
1.31562e-07
-5.35532e-05
-4.09361e-07
5.34518e-05
5.05388e-07
-5.35815e-05
-1.76892e-07
2.24504e-08
5.34623e-05
4.05225e-07
1.29307e-07
-3.88564e-07
4.71254e-07
-1.66831e-07
2.12615e-08
3.80887e-07
1.00173e-07
-4.97412e-05
4.97227e-05
-5.02369e-05
2.05179e-08
5.01397e-05
1.03746e-07
2.33531e-08
-5.5185e-11
-5.38251e-05
-1.93973e-07
5.36793e-05
3.62226e-07
-5.38247e-05
-1.94333e-07
-2.22773e-08
5.3679e-05
3.62217e-07
3.13441e-11
-1.86952e-07
3.43503e-07
-1.86596e-07
-2.14994e-08
3.43473e-07
-1.12155e-09
-5.12577e-05
5.10854e-05
-5.12565e-05
-2.47557e-08
5.10858e-05
9.55408e-10
-1.97296e-08
-1.31538e-07
-5.35806e-05
-1.76893e-07
5.34615e-05
4.05267e-07
-5.35525e-05
-4.08916e-07
-1.26301e-07
5.3451e-05
5.0525e-07
-1.29677e-07
-1.66711e-07
3.80899e-07
-3.89196e-07
-1.28305e-07
4.7118e-07
-1.04722e-07
-5.02358e-05
5.01388e-05
-4.97418e-05
-4.92853e-07
4.9721e-05
-9.97657e-08
-4.94057e-07
4.54792e-07
-5.40343e-05
1.69108e-06
5.38929e-05
-2.13086e-06
-5.46332e-05
-1.59517e-06
5.44014e-05
2.28172e-06
4.4753e-07
1.71416e-06
-2.16665e-06
-1.59507e-06
2.27034e-06
1.27796e-06
-5.07257e-05
5.0646e-05
-5.21941e-05
5.18768e-05
1.27165e-06
-4.57007e-07
-5.41672e-05
-1.56759e-06
5.39257e-05
2.2661e-06
-5.37387e-05
1.61329e-06
1.19845e-07
5.35666e-05
-2.018e-06
-4.51693e-07
-1.56279e-06
2.24879e-06
1.63361e-06
1.21839e-07
-2.05241e-06
-1.26256e-06
-5.15707e-05
5.12656e-05
-5.05417e-05
4.76993e-07
5.04154e-05
-1.25754e-06
4.80479e-07
1.31755e-07
-5.33341e-05
-4.42575e-07
5.31986e-05
5.66205e-07
-5.33315e-05
-1.97876e-07
2.35852e-08
5.3186e-05
4.51561e-07
1.30367e-07
-4.21278e-07
5.30433e-07
-1.84949e-07
2.26388e-08
4.23429e-07
9.97351e-08
-4.96788e-05
4.96135e-05
-5.00325e-05
2.2252e-08
4.99121e-05
1.03088e-07
2.53558e-08
-5.10114e-11
-5.35252e-05
-2.08011e-07
5.33587e-05
3.98201e-07
-5.35249e-05
-2.08252e-07
-2.34927e-08
5.33584e-05
3.98184e-07
2.4986e-11
-1.98922e-07
3.75633e-07
-1.985e-07
-2.29302e-08
3.75593e-07
-7.90978e-10
-5.09107e-05
5.07257e-05
-5.09095e-05
-2.52431e-08
5.07257e-05
1.16928e-09
-2.10529e-08
-1.31808e-07
-5.33308e-05
-1.97839e-07
5.31853e-05
4.51599e-07
-5.33336e-05
-4.42335e-07
-1.19909e-07
5.31979e-05
5.66099e-07
-1.30741e-07
-1.84925e-07
4.23455e-07
-4.21979e-07
-1.21779e-07
5.30394e-07
-1.02816e-07
-5.00317e-05
4.99114e-05
-4.96796e-05
-4.78266e-07
4.96127e-05
-9.88348e-08
-4.79419e-07
4.57344e-07
-5.37384e-05
1.61483e-06
5.35662e-05
-2.01985e-06
-5.41671e-05
-1.56872e-06
5.39255e-05
2.26767e-06
4.52116e-07
1.63485e-06
-2.0542e-06
-1.56402e-06
2.25039e-06
1.26332e-06
-5.05424e-05
5.04157e-05
-5.15718e-05
5.12664e-05
1.25898e-06
-4.56282e-07
-5.36787e-05
-1.54949e-06
5.34214e-05
2.26304e-06
-5.33816e-05
1.5415e-06
1.14016e-07
5.31785e-05
-1.90876e-06
-4.5237e-07
-1.54061e-06
2.24002e-06
1.56025e-06
1.15714e-07
-1.94332e-06
-1.24485e-06
-5.09663e-05
5.06617e-05
-5.02684e-05
4.63755e-07
5.01012e-05
-1.2413e-06
4.66022e-07
1.3065e-07
-5.30472e-05
-4.74756e-07
5.2877e-05
6.28309e-07
-5.30279e-05
-2.22954e-07
2.42541e-08
5.28533e-05
5.0394e-07
1.29952e-07
-4.54038e-07
5.91199e-07
-2.07857e-07
2.36722e-08
4.72268e-07
9.93237e-08
-4.95254e-05
4.94151e-05
-4.97799e-05
2.40147e-08
4.96323e-05
1.00113e-07
2.43982e-08
-1.56985e-11
-5.31822e-05
-2.26138e-07
5.29912e-05
4.41364e-07
-5.31819e-05
-2.26146e-07
-2.42867e-08
5.29909e-05
4.41341e-07
4.38751e-12
-2.14511e-07
4.14679e-07
-2.14383e-07
-2.37555e-08
4.14649e-07
-1.08861e-10
-5.05353e-05
5.03333e-05
-5.05348e-05
-2.4472e-08
5.0333e-05
2.9813e-10
-2.31274e-08
-1.30804e-07
-5.30272e-05
-2.22928e-07
5.28527e-05
5.03981e-07
-5.30466e-05
-4.74846e-07
-1.14031e-07
5.28765e-05
6.28239e-07
-1.30163e-07
-2.07808e-07
4.72303e-07
-4.54319e-07
-1.15703e-07
5.91135e-07
-9.98937e-08
-4.97794e-05
4.96318e-05
-4.95255e-05
-4.64214e-07
4.9415e-05
-9.88483e-08
-4.65966e-07
4.56652e-07
-5.33812e-05
1.5429e-06
5.31782e-05
-1.91055e-06
-5.36785e-05
-1.55061e-06
5.34212e-05
2.26457e-06
4.52753e-07
1.56159e-06
-1.9451e-06
-1.54174e-06
2.24154e-06
1.24583e-06
-5.02689e-05
5.01017e-05
-5.09671e-05
5.06623e-05
1.24241e-06
-4.52842e-07
-5.31563e-05
-1.53662e-06
5.28783e-05
2.26741e-06
-5.29628e-05
1.46997e-06
1.08651e-07
5.27283e-05
-1.79694e-06
-4.50215e-07
-1.52542e-06
2.24079e-06
1.48944e-06
1.10145e-07
-1.83407e-06
-1.22399e-06
-5.03585e-05
5.00458e-05
-4.9916e-05
4.50457e-07
4.97115e-05
-1.22221e-06
4.52469e-07
1.28599e-07
-5.26912e-05
-5.06155e-07
5.24858e-05
6.91601e-07
-5.26651e-05
-2.51269e-07
2.45835e-08
5.2459e-05
5.61417e-07
1.28394e-07
-4.85597e-07
6.53192e-07
-2.34339e-07
2.42122e-08
5.26685e-07
9.74863e-08
-4.92843e-05
4.91311e-05
-4.94714e-05
2.4473e-08
4.92931e-05
9.76336e-08
2.42007e-08
-1.17386e-11
-5.27889e-05
-2.4808e-07
5.25703e-05
4.91319e-07
-5.27886e-05
-2.48062e-07
-2.4625e-08
5.257e-05
4.91297e-07
-8.02558e-12
-2.34244e-07
4.60782e-07
-2.34216e-07
-2.42531e-08
4.6076e-07
-1.68102e-11
-5.01232e-05
4.98996e-05
-5.01229e-05
-2.45378e-08
4.98994e-05
6.00546e-12
-2.41376e-08
-1.28761e-07
-5.26646e-05
-2.51242e-07
5.24585e-05
5.61463e-07
-5.26907e-05
-5.06293e-07
-1.08657e-07
5.24853e-05
6.91542e-07
-1.28559e-07
-2.34305e-07
5.26728e-07
-4.85743e-07
-1.10151e-07
6.53128e-07
-9.76201e-08
-4.9471e-05
4.92929e-05
-4.92844e-05
-4.50788e-07
4.91313e-05
-9.76149e-08
-4.52765e-07
4.53214e-07
-5.29625e-05
1.47132e-06
5.2728e-05
-1.79868e-06
-5.3156e-05
-1.53771e-06
5.2878e-05
2.26889e-06
4.50586e-07
1.4908e-06
-1.83582e-06
-1.5265e-06
2.24226e-06
1.22499e-06
-4.99166e-05
4.97121e-05
-5.0359e-05
5.00463e-05
1.22321e-06
-4.47965e-07
-5.25903e-05
-1.53022e-06
5.2287e-05
2.28146e-06
-5.24806e-05
1.3994e-06
1.03916e-07
5.22128e-05
-1.68355e-06
-4.46118e-07
-1.51629e-06
2.25045e-06
1.41953e-06
1.05168e-07
-1.72312e-06
-1.20217e-06
-4.97308e-05
4.94028e-05
-4.949e-05
4.37967e-07
4.92493e-05
-1.20127e-06
4.39754e-07
1.26034e-07
-5.22645e-05
-5.37846e-07
5.20226e-05
7.57621e-07
-5.22383e-05
-2.82735e-07
2.46219e-08
5.1998e-05
6.24446e-07
1.26109e-07
-5.16877e-07
7.17239e-07
-2.64014e-07
2.43929e-08
5.86456e-07
9.52726e-08
-4.89585e-05
4.87634e-05
-4.91003e-05
2.44714e-08
4.88884e-05
9.54621e-08
2.42726e-08
-1.1385e-11
-5.23388e-05
-2.74095e-07
5.2089e-05
5.48493e-07
-5.23385e-05
-2.74075e-07
-2.46634e-08
5.20888e-05
5.48472e-07
-1.08829e-11
-2.58041e-07
5.1393e-07
-2.58022e-07
-2.44339e-08
5.13909e-07
-1.26333e-11
-4.96659e-05
4.94163e-05
-4.96657e-05
-2.45146e-08
4.94161e-05
-8.5782e-12
-2.43056e-08
-1.26193e-07
-5.22378e-05
-2.82715e-07
5.19976e-05
6.24499e-07
-5.22641e-05
-5.37989e-07
-1.03919e-07
5.20222e-05
7.57568e-07
-1.26268e-07
-2.6399e-07
5.86506e-07
-5.17017e-07
-1.05172e-07
7.17183e-07
-9.53763e-08
-4.91001e-05
4.88883e-05
-4.89588e-05
-4.38282e-07
4.87637e-05
-9.55554e-08
-4.40068e-07
4.48334e-07
-5.24803e-05
1.40071e-06
5.22126e-05
-1.68525e-06
-5.259e-05
-1.53127e-06
5.22867e-05
2.28289e-06
4.46486e-07
1.42085e-06
-1.72483e-06
-1.51733e-06
2.25188e-06
1.20315e-06
-4.94907e-05
4.92499e-05
-4.97312e-05
4.94031e-05
1.20225e-06
-4.41979e-07
-5.19718e-05
-1.52899e-06
5.1639e-05
2.30374e-06
-5.19313e-05
1.32861e-06
9.97405e-08
5.16282e-05
-1.56731e-06
-4.40692e-07
-1.51262e-06
2.26856e-06
1.34955e-06
1.00762e-07
-1.60942e-06
-1.17942e-06
-4.90693e-05
4.87198e-05
-4.8992e-05
4.26127e-07
4.8715e-05
-1.17916e-06
4.27717e-07
1.23105e-07
-5.17644e-05
-5.70189e-07
5.14844e-05
8.26833e-07
-5.17421e-05
-3.17064e-07
2.44218e-08
5.14651e-05
6.92801e-07
1.23371e-07
-5.48533e-07
7.84115e-07
-2.96612e-07
2.43051e-08
6.51507e-07
9.29254e-08
-4.85494e-05
4.83124e-05
-4.86608e-05
2.42404e-08
4.84124e-05
9.31849e-08
2.41406e-08
-1.20521e-11
-5.18251e-05
-3.03925e-07
5.1541e-05
6.12484e-07
-5.18249e-05
-3.03905e-07
-2.44637e-08
5.15408e-05
6.12463e-07
-1.16006e-11
-2.8572e-07
5.7396e-07
-2.857e-07
-2.43464e-08
5.73939e-07
-1.16435e-11
-4.91547e-05
4.8875e-05
-4.91546e-05
-2.42809e-08
4.88749e-05
-1.09848e-11
-2.41801e-08
-1.2326e-07
-5.17418e-05
-3.17049e-07
5.14648e-05
6.92861e-07
-5.17641e-05
-5.70334e-07
-9.97413e-08
5.14841e-05
8.2679e-07
-1.23526e-07
-2.96595e-07
6.51563e-07
-5.48675e-07
-1.00763e-07
7.84065e-07
-9.3024e-08
-4.86608e-05
4.84125e-05
-4.85497e-05
-4.26432e-07
4.83128e-05
-9.3283e-08
-4.28023e-07
4.42343e-07
-5.1931e-05
1.32988e-06
5.1628e-05
-1.56896e-06
-5.19714e-05
-1.53002e-06
5.16386e-05
2.30513e-06
4.41055e-07
1.35083e-06
-1.61109e-06
-1.51362e-06
2.26994e-06
1.18038e-06
-4.89926e-05
4.87157e-05
-4.90696e-05
4.872e-05
1.18012e-06
-4.35246e-07
-5.12926e-05
-1.53242e-06
5.09266e-05
2.33369e-06
-5.13109e-05
1.25764e-06
9.6083e-08
5.09708e-05
-1.44891e-06
-4.34367e-07
-1.51378e-06
2.29452e-06
1.27947e-06
9.68931e-08
-1.49339e-06
-1.15609e-06
-4.83623e-05
4.7986e-05
-4.84219e-05
4.14893e-07
4.81085e-05
-1.15633e-06
4.16309e-07
1.19944e-07
-5.11875e-05
-6.03632e-07
5.08675e-05
8.99785e-07
-5.11715e-05
-3.54122e-07
2.40526e-08
5.08551e-05
7.66495e-07
1.20345e-07
-5.81062e-07
8.54447e-07
-3.31983e-07
2.40144e-08
7.2186e-07
9.05168e-08
-4.80568e-05
4.77776e-05
-4.81474e-05
2.38507e-08
4.786e-05
9.08252e-08
2.38252e-08
-1.24847e-11
-5.12415e-05
-3.37367e-07
5.09199e-05
6.82998e-07
-5.12413e-05
-3.37347e-07
-2.40946e-08
5.09198e-05
6.82976e-07
-1.21946e-11
-3.17074e-07
6.40588e-07
-3.17053e-07
-2.40558e-08
6.40566e-07
-1.18827e-11
-4.85818e-05
4.82683e-05
-4.85817e-05
-2.38909e-08
4.82683e-05
-1.16521e-11
-2.38652e-08
-1.20095e-07
-5.11713e-05
-3.54113e-07
5.08548e-05
7.6656e-07
-5.11873e-05
-6.03778e-07
-9.60825e-08
5.08673e-05
8.99746e-07
-1.20497e-07
-3.31971e-07
7.21922e-07
-5.81205e-07
-9.68931e-08
8.54406e-07
-9.06125e-08
-4.81476e-05
4.78602e-05
-4.80573e-05
-4.15189e-07
4.77781e-05
-9.09214e-08
-4.16606e-07
4.35604e-07
-5.13107e-05
1.25888e-06
5.09706e-05
-1.45054e-06
-5.12923e-05
-1.53341e-06
5.09262e-05
2.33504e-06
4.34724e-07
1.28072e-06
-1.49501e-06
-1.51475e-06
2.29586e-06
1.15703e-06
-4.84225e-05
4.81092e-05
-4.83625e-05
4.79861e-05
1.15727e-06
-4.27896e-07
-5.05456e-05
-1.53979e-06
5.01428e-05
2.37049e-06
-5.06158e-05
1.18515e-06
9.2849e-08
5.02364e-05
-1.32647e-06
-4.27257e-07
-1.51875e-06
2.32703e-06
1.20819e-06
9.34643e-08
-1.37387e-06
-1.13218e-06
-4.75999e-05
4.71922e-05
-4.77788e-05
4.04107e-07
4.74276e-05
-1.13262e-06
4.05308e-07
1.16614e-07
-5.05302e-05
-6.38368e-07
5.01683e-05
9.76513e-07
-5.05214e-05
-3.93536e-07
2.35694e-08
5.01631e-05
8.44832e-07
1.17089e-07
-6.14646e-07
9.28309e-07
-3.69792e-07
2.35817e-08
7.96992e-07
8.8067e-08
-4.74798e-05
4.71575e-05
-4.75552e-05
2.33492e-08
4.72264e-05
8.83924e-08
2.33732e-08
-1.26947e-11
-5.05819e-05
-3.74233e-07
5.02198e-05
7.59891e-07
-5.05818e-05
-3.74215e-07
-2.36112e-08
5.02197e-05
7.59873e-07
-1.24848e-11
-3.51808e-07
7.13391e-07
-3.51789e-07
-2.36232e-08
7.13372e-07
-1.19554e-11
-4.79399e-05
4.7589e-05
-4.79399e-05
-2.33889e-08
4.7589e-05
-1.18487e-11
-2.34128e-08
-1.16761e-07
-5.05211e-05
-3.93531e-07
5.01629e-05
8.44898e-07
-5.053e-05
-6.38513e-07
-9.28472e-08
5.01682e-05
9.76478e-07
-1.17236e-07
-3.69785e-07
7.97057e-07
-6.14789e-07
-9.34632e-08
9.28272e-07
-8.81598e-08
-4.75554e-05
4.72267e-05
-4.74804e-05
-4.04394e-07
4.71581e-05
-8.84858e-08
-4.05596e-07
4.28246e-07
-5.06156e-05
1.18637e-06
5.02362e-05
-1.32805e-06
-5.05452e-05
-1.54076e-06
5.01424e-05
2.37181e-06
4.27607e-07
1.20941e-06
-1.37546e-06
-1.51969e-06
2.32833e-06
1.13309e-06
-4.77795e-05
4.74284e-05
-4.76e-05
4.71923e-05
1.13354e-06
-4.20201e-07
-4.97236e-05
-1.55125e-06
4.92807e-05
2.4143e-06
-4.98411e-05
1.11091e-06
9.00032e-08
4.94201e-05
-1.20008e-06
-4.19888e-07
-1.52849e-06
2.36755e-06
1.13593e-06
9.04821e-08
-1.25106e-06
-1.10815e-06
-4.67729e-05
4.63298e-05
-4.70595e-05
3.93813e-07
4.66684e-05
-1.10913e-06
3.9497e-07
1.13228e-07
-4.97885e-05
-6.74666e-07
4.93827e-05
1.05724e-06
-4.97868e-05
-4.35189e-07
2.30036e-08
4.93844e-05
9.27817e-07
1.13783e-07
-6.4994e-07
1.00646e-06
-4.10029e-07
2.3065e-08
8.77045e-07
8.56267e-08
-4.68165e-05
4.64501e-05
-4.68795e-05
2.2771e-08
4.65072e-05
8.59886e-08
2.2841e-08
-1.28173e-11
-4.98402e-05
-4.14357e-07
4.94347e-05
8.42887e-07
-4.98401e-05
-4.14341e-07
-2.3045e-08
4.94346e-05
8.42872e-07
-1.26571e-11
-3.90046e-07
7.92783e-07
-3.90029e-07
-2.31062e-08
7.92767e-07
-1.19534e-11
-4.72218e-05
4.68302e-05
-4.72219e-05
-2.28098e-08
4.68303e-05
-1.18998e-11
-2.288e-08
-1.13371e-07
-4.97867e-05
-4.35187e-07
4.93843e-05
9.27885e-07
-4.97884e-05
-6.74809e-07
-9.00003e-08
4.93826e-05
1.05721e-06
-1.13926e-07
-4.10025e-07
8.77111e-07
-6.50082e-07
-9.04797e-08
1.00642e-06
-8.57166e-08
-4.68799e-05
4.65076e-05
-4.68172e-05
-3.94091e-07
4.64508e-05
-8.60792e-08
-3.95249e-07
4.20544e-07
-4.9841e-05
1.1121e-06
4.942e-05
-1.20163e-06
-4.97232e-05
-1.55219e-06
4.92804e-05
2.41558e-06
4.20231e-07
1.13713e-06
-1.25262e-06
-1.52941e-06
2.36881e-06
1.10904e-06
-4.70602e-05
4.66692e-05
-4.67729e-05
4.63298e-05
1.11002e-06
-4.12231e-07
-4.88203e-05
-1.56618e-06
4.83342e-05
2.46455e-06
-4.89821e-05
1.03412e-06
8.74829e-08
4.85161e-05
-1.06787e-06
-4.12104e-07
-1.54155e-06
2.41412e-06
1.06111e-06
8.78275e-08
-1.12305e-06
-1.08402e-06
-4.58735e-05
4.53913e-05
-4.62593e-05
3.83923e-07
4.58255e-05
-1.08523e-06
3.84968e-07
1.09821e-07
-4.89584e-05
-7.12472e-07
4.85065e-05
1.14201e-06
-4.89633e-05
-4.78874e-07
2.23745e-08
4.85144e-05
1.01515e-06
1.10412e-07
-6.8662e-07
1.08837e-06
-4.52282e-07
2.24701e-08
9.61374e-07
8.32038e-08
-4.60648e-05
4.56531e-05
-4.61162e-05
2.21346e-08
4.56984e-05