/*--------------------------------*- C++ -*----------------------------------*\
  =========                 |
  \\      /  F ield         | OpenFOAM: The Open Source CFD Toolbox
   \\    /   O peration     | Website:  https://openfoam.org
    \\  /    A nd           | Version:  9
     \\/     M anipulation  |
\*---------------------------------------------------------------------------*/
FoamFile
{
    format      ascii;
    class       volScalarField;
    location    "0.6";
    object      nut;
}
// * * * * * * * * * * * * * * * * * * * * * * * * * * * * * * * * * * * * * //

dimensions      [0 2 -1 0 0 0 0];

internalField   nonuniform List<scalar> 
36360
(
0.000855395
0.000702913
0.000422423
0.00038916
0.000237019
0.000188685
0.000190157
0.000172998
0.000239822
0.000159162
0.000188619
0.000158858
0.000146438
0.000141322
0.000162669
0.000161879
0.000151235
0.000151232
0.000157525
0.000157525
0.000140979
0.000140979
0.000161821
0.000161821
0.000159138
0.000239713
0.000158858
0.000188598
0.000141321
0.00014643
0.000161879
0.000162669
0.000702767
0.000855569
0.000389158
0.000422432
0.000188668
0.000237034
0.000172997
0.000190157
0.00119028
0.00095314
0.00109062
0.000877279
0.000282025
0.000217641
0.000269551
0.000208929
0.000337123
0.000171733
0.000306346
0.000167669
0.000141639
0.000129929
0.000142166
0.000132581
0.000157193
0.000157182
0.00015482
0.000154813
0.000129183
0.000129182
0.000131966
0.000131965
0.000171641
0.000336675
0.000167604
0.000306028
0.000129924
0.000141601
0.000132578
0.00014214
0.000952784
0.00119073
0.000877002
0.00109096
0.000217582
0.000282076
0.000208884
0.000269589
0.0012339
0.000987309
0.00122523
0.00098033
0.000285718
0.000221829
0.000285189
0.000220742
0.000350757
0.000173145
0.000348071
0.000172939
0.000141787
0.000129192
0.000141721
0.000129297
0.000157889
0.000157876
0.000157802
0.000157791
0.000128399
0.000128398
0.000128507
0.000128507
0.000173039
0.000350228
0.00017284
0.000347566
0.000129187
0.000141743
0.000129291
0.000141678
0.000986895
0.00123443
0.000979938
0.00122574
0.000221761
0.000285778
0.000220677
0.000285247
0.00123518
0.000988809
0.00123587
0.00098924
0.000285685
0.000222211
0.000285815
0.000222226
0.000351229
0.000173163
0.000351459
0.000173183
0.0001418
0.000129154
0.000141814
0.000129166
0.000157878
0.000157866
0.000157886
0.000157873
0.000128362
0.000128361
0.000128371
0.000128371
0.000173057
0.000350697
0.000173076
0.000350927
0.000129149
0.000141756
0.000129161
0.00014177
0.000988396
0.00123572
0.000988825
0.00123641
0.000222145
0.000285747
0.000222159
0.000285876
0.00123414
0.000988344
0.00123511
0.000988996
0.000285469
0.000222132
0.000285638
0.000222244
0.000351001
0.000173096
0.000351294
0.000173173
0.000141757
0.000129142
0.000141788
0.000129136
0.000157856
0.000157844
0.000157871
0.000157858
0.000128355
0.000128355
0.000128344
0.000128343
0.00017299
0.000350472
0.000173067
0.000350764
0.000129136
0.000141713
0.00012913
0.000141743
0.000987934
0.00123469
0.000988585
0.00123566
0.000222066
0.000285531
0.000222177
0.0002857
0.00123278
0.000987425
0.00123389
0.000988239
0.000285201
0.000221908
0.000285395
0.000222075
0.000350578
0.000173036
0.000350946
0.000173062
0.000141692
0.000129105
0.000141733
0.000129124
0.000157839
0.000157827
0.000157846
0.000157833
0.000128321
0.000128321
0.000128339
0.000128338
0.000172931
0.000350051
0.000172956
0.000350418
0.000129099
0.000141648
0.000129119
0.000141689
0.000987017
0.00123332
0.000987831
0.00123444
0.000221842
0.000285263
0.000222009
0.000285457
0.00123118
0.000986309
0.00123241
0.00098721
0.000284902
0.000221634
0.000285113
0.000221823
0.000350053
0.000172954
0.000350467
0.000173042
0.000141616
0.000129068
0.000141662
0.000129083
0.000157818
0.000157806
0.000157833
0.000157821
0.000128289
0.000128289
0.000128299
0.000128298
0.000172849
0.000349528
0.000172937
0.000349941
0.000129063
0.000141573
0.000129077
0.000141619
0.000985902
0.00123172
0.000986801
0.00123295
0.000221569
0.000284965
0.000221758
0.000285175
0.0012294
0.000985073
0.00123072
0.000986035
0.000284579
0.000221334
0.000284803
0.000221538
0.000349477
0.000172881
0.000349914
0.000172913
0.000141532
0.00012903
0.000141583
0.000129045
0.000157798
0.000157786
0.000157807
0.000157794
0.000128254
0.000128254
0.000128268
0.000128268
0.000172777
0.000348954
0.000172808
0.00034939
0.000129024
0.000141489
0.00012904
0.000141539
0.000984667
0.00122994
0.000985628
0.00123126
0.000221269
0.000284642
0.000221473
0.000284866
0.00122744
0.000983734
0.00122886
0.00098475
0.000284232
0.000221013
0.000284471
0.000221229
0.000348861
0.000172793
0.000349322
0.000172885
0.000141441
0.000128984
0.000141495
0.000129004
0.000157774
0.000157762
0.000157791
0.000157779
0.000128212
0.000128212
0.000128229
0.000128228
0.000172689
0.000348338
0.000172781
0.000348798
0.000128979
0.000141397
0.000128999
0.000141451
0.000983328
0.00122798
0.000984345
0.0012294
0.000220948
0.000284294
0.000221164
0.000284534
0.00122531
0.000982297
0.00122684
0.00098337
0.00028386
0.000220676
0.000284115
0.000220902
0.000348209
0.000172711
0.000348688
0.000172748
0.000141341
0.000128932
0.000141399
0.000128955
0.000157749
0.000157737
0.00015776
0.000157748
0.000128164
0.000128163
0.000128183
0.000128183
0.000172607
0.000347686
0.000172644
0.000348165
0.000128927
0.000141297
0.000128949
0.000141356
0.000981889
0.00122585
0.000982963
0.00122738
0.000220611
0.000283922
0.000220837
0.000284177
0.00122298
0.000980749
0.00122464
0.000981888
0.00028346
0.000220318
0.000283732
0.000220556
0.000347515
0.000172615
0.000348021
0.000172712
0.000141231
0.000128872
0.000141295
0.000128899
0.00015772
0.000157708
0.000157739
0.000157727
0.000128107
0.000128106
0.000128131
0.00012813
0.000172511
0.000346992
0.000172608
0.000347497
0.000128866
0.000141188
0.000128894
0.000141251
0.000980339
0.00122351
0.000981479
0.00122518
0.000220252
0.00028352
0.00022049
0.000283794
0.00122043
0.000979079
0.00122224
0.000980291
0.000283026
0.000219941
0.00028332
0.000220189
0.000346774
0.000172528
0.000347306
0.000172564
0.000141112
0.000128803
0.00014118
0.000128833
0.00015769
0.000157678
0.000157703
0.000157691
0.000128041
0.00012804
0.000128069
0.000128069
0.000172425
0.000346252
0.00017246
0.000346783
0.000128798
0.000141069
0.000128828
0.000141137
0.000978667
0.00122096
0.00097988
0.00122278
0.000219874
0.000283086
0.000220123
0.00028338
0.00121763
0.00097727
0.0012196
0.000978562
0.000282553
0.000219544
0.00028287
0.000219801
0.000345976
0.000172461
0.000346543
0.00017252
0.000140981
0.000128725
0.000141056
0.00012876
0.000157662
0.00015765
0.000157677
0.000157665
0.000127965
0.000127965
0.000127998
0.000127998
0.000172358
0.000345455
0.000172417
0.00034602
0.000128719
0.000140938
0.000128755
0.000141012
0.000976859
0.00121816
0.000978151
0.00122013
0.000219478
0.000282613
0.000219735
0.00028293
0.00121457
0.000975296
0.00121668
0.000976685
0.000282041
0.000219142
0.00028238
0.0002194
0.000345114
0.000172357
0.000345717
0.000172424
0.000140839
0.000128635
0.000140919
0.000128676
0.000157625
0.000157613
0.000157644
0.000157632
0.000127878
0.000127878
0.000127917
0.000127917
0.000172255
0.000344595
0.000172322
0.000345197
0.000128629
0.000140796
0.00012867
0.000140876
0.000974885
0.00121509
0.000976274
0.00121721
0.000219076
0.0002821
0.000219334
0.000282439
0.00121122
0.000973101
0.00121348
0.00097462
0.000281488
0.000218747
0.000281848
0.000218999
0.000344186
0.000172243
0.000344827
0.000172316
0.000140683
0.000128532
0.00014077
0.00012858
0.000157583
0.000157571
0.000157604
0.000157593
0.000127779
0.000127779
0.000127824
0.000127824
0.000172142
0.00034367
0.000172214
0.000344309
0.000128527
0.00014064
0.000128574
0.000140727
0.00097269
0.00121174
0.000974209
0.00121401
0.000218681
0.000281547
0.000218933
0.000281908
0.00120758
0.000970682
0.00120999
0.000972325
0.000280889
0.000218352
0.000281274
0.000218609
0.000343197
0.000172119
0.000343874
0.000172197
0.000140512
0.000128417
0.000140607
0.000128471
0.000157536
0.000157525
0.00015756
0.000157548
0.000127667
0.000127667
0.000127719
0.000127718
0.000172018
0.000342683
0.000172095
0.000343358
0.000128411
0.00014047
0.000128465
0.000140565
0.000970272
0.0012081
0.000971915
0.00121051
0.000218286
0.000280948
0.000218544
0.000281332
0.00120363
0.000968084
0.0012062
0.000969839
0.000280243
0.000217926
0.000280652
0.000218201
0.000342144
0.000171985
0.00034286
0.000172068
0.000140324
0.000128287
0.000140428
0.000128348
0.000157485
0.000157473
0.000157511
0.000157499
0.000127541
0.000127541
0.000127599
0.000127599
0.000171885
0.000341633
0.000171967
0.000342347
0.000128282
0.000140282
0.000128343
0.000140386
0.000967675
0.00120415
0.00096943
0.00120672
0.000217861
0.000280302
0.000218135
0.000280711
0.00119937
0.000965296
0.0012021
0.000967161
0.000279548
0.000217469
0.000279982
0.000217761
0.000341026
0.000171843
0.000341782
0.00017193
0.000140118
0.000128142
0.000140231
0.000128211
0.000157429
0.000157417
0.000157457
0.000157446
0.0001274
0.000127399
0.000127466
0.000127465
0.000171743
0.000340518
0.000171831
0.000341272
0.000128136
0.000140076
0.000128205
0.000140189
0.000964889
0.00119989
0.000966752
0.00120262
0.000217404
0.000279605
0.000217696
0.000280041
0.00119478
0.000962309
0.00119768
0.00096428
0.0002788
0.000216978
0.000279261
0.000217288
0.000339839
0.000171691
0.000340639
0.000171784
0.000139893
0.00012798
0.000140016
0.000128057
0.000157368
0.000157356
0.000157399
0.000157387
0.000127242
0.000127241
0.000127316
0.000127315
0.000171593
0.000339335
0.000171685
0.000340132
0.000127974
0.000139851
0.000128051
0.000139974
0.000961903
0.00119529
0.000963873
0.00119819
0.000216913
0.000278857
0.000217223
0.000279319
0.00118985
0.000959119
0.00119292
0.000961195
0.000277999
0.000216452
0.000278487
0.00021678
0.000338584
0.000171531
0.000339426
0.000171629
0.000139647
0.0001278
0.000139781
0.000127886
0.000157302
0.000157291
0.000157335
0.000157324
0.000127066
0.000127066
0.000127149
0.000127149
0.000171433
0.000338083
0.000171531
0.000338923
0.000127795
0.000139606
0.000127881
0.000139739
0.000958713
0.00119036
0.000960789
0.00119343
0.000216388
0.000278056
0.000216716
0.000278545
0.00118458
0.000955724
0.00118782
0.000957904
0.000277145
0.00021589
0.00027766
0.000216237
0.000337262
0.000171361
0.000338142
0.000171465
0.00013938
0.000127602
0.000139524
0.000127697
0.000157232
0.00015722
0.000157267
0.000157256
0.000126872
0.000126872
0.000126964
0.000126964
0.000171265
0.000336765
0.000171367
0.000337642
0.000127597
0.000139339
0.000127692
0.000139483
0.00095532
0.00118509
0.000957499
0.00118833
0.000215827
0.000277201
0.000216173
0.000277717
0.00117898
0.000952128
0.00118238
0.000954408
0.000276238
0.000215294
0.00027678
0.000215659
0.000335873
0.000171183
0.000336787
0.000171291
0.000139091
0.000127384
0.000139247
0.000127489
0.000157156
0.000157145
0.000157194
0.000157183
0.000126659
0.000126659
0.00012676
0.00012676
0.000171087
0.00033538
0.000171195
0.000336291
0.000127379
0.000139051
0.000127484
0.000139206
0.000951726
0.00117949
0.000954005
0.00118289
0.00021523
0.000276294
0.000215595
0.000276836
0.00117306
0.000948339
0.00117662
0.000950713
0.00027528
0.000214662
0.000275847
0.000215044
0.000334421
0.000170996
0.000335366
0.000171108
0.00013878
0.000127146
0.000138946
0.000127261
0.000157076
0.000157065
0.000157116
0.000157105
0.000126425
0.000126425
0.000126537
0.000126536
0.000170901
0.000333932
0.000171012
0.000334874
0.000127141
0.00013874
0.000127256
0.000138906
0.000947938
0.00117356
0.000950311
0.00117712
0.000214599
0.000275336
0.000214981
0.000275903
0.00116684
0.000944369
0.00117054
0.000946829
0.000274274
0.000213996
0.000274865
0.000214395
0.000332909
0.0001708
0.000333883
0.000170916
0.000138446
0.000126887
0.000138624
0.000127012
0.000156992
0.000156981
0.000157034
0.000157023
0.000126171
0.000126171
0.000126293
0.000126292
0.000170707
0.000332424
0.000170822
0.000333395
0.000126882
0.000138406
0.000127007
0.000138583
0.000943969
0.00116733
0.000946429
0.00117104
0.000213933
0.000274329
0.000214333
0.00027492
0.00116033
0.000940231
0.00116417
0.00094277
0.000273225
0.000213297
0.000273837
0.000213713
0.000331344
0.000170597
0.000332343
0.000170717
0.000138089
0.000126607
0.000138278
0.000126742
0.000156904
0.000156894
0.000156948
0.000156937
0.000125896
0.000125895
0.000126028
0.000126027
0.000170505
0.000330864
0.000170624
0.00033186
0.000126601
0.000138049
0.000126737
0.000138238
0.000939833
0.00116082
0.000942371
0.00116466
0.000213235
0.000273279
0.000213651
0.000273892
0.00115358
0.000935948
0.00115753
0.000938553
0.000272137
0.000212569
0.000272767
0.000212999
0.000329734
0.000170388
0.000330753
0.000170511
0.000137709
0.000126305
0.000137909
0.000126451
0.000156813
0.000156803
0.000156859
0.000156848
0.000125599
0.000125599
0.000125741
0.000125741
0.000170296
0.000329258
0.000170418
0.000330275
0.0001263
0.00013767
0.000126446
0.00013787
0.000935552
0.00115406
0.000938156
0.00115802
0.000212508
0.00027219
0.000212937
0.000272821
0.00114663
0.000931546
0.00115067
0.000934204
0.000271017
0.000211814
0.000271662
0.000212257
0.000328088
0.000170173
0.000329123
0.000170298
0.000137307
0.000125981
0.000137518
0.000126138
0.00015672
0.000156709
0.000156766
0.000156755
0.000125281
0.00012528
0.000125434
0.000125433
0.000170083
0.000327618
0.000170207
0.000328649
0.000125976
0.000137268
0.000126133
0.000137479
0.000931152
0.00114711
0.000933809
0.00115115
0.000211753
0.00027107
0.000212196
0.000271715
0.00113952
0.000927057
0.00114363
0.00092975
0.000269874
0.000211036
0.000270529
0.00021149
0.000326419
0.000169954
0.000327462
0.000170081
0.000136884
0.000125637
0.000137105
0.000125804
0.000156623
0.000156613
0.000156671
0.00015666
0.000124941
0.000124941
0.000125105
0.000125104
0.000169865
0.000325954
0.000169991
0.000326994
0.000125632
0.000136846
0.000125799
0.000137067
0.000926665
0.00113999
0.000929357
0.0011441
0.000210976
0.000269926
0.000211429
0.000270582
0.00113232
0.000922516
0.00113646
0.000925226
0.000268715
0.00021024
0.000269377
0.000210702
0.000324737
0.000169732
0.000325783
0.00016986
0.000136441
0.000125272
0.000136672
0.000125449
0.000156525
0.000156515
0.000156574
0.000156563
0.000124581
0.000124581
0.000124755
0.000124754
0.000169644
0.000324277
0.000169771
0.00032532
0.000125267
0.000136403
0.000125444
0.000136634
0.000922125
0.00113279
0.000924835
0.00113693
0.00021018
0.000268767
0.000210641
0.000269429
0.00112508
0.000917958
0.00112923
0.000920667
0.000267551
0.00020943
0.000268214
0.000209897
0.000323057
0.000169509
0.000324098
0.000169637
0.00013598
0.000124887
0.000136219
0.000125073
0.000156426
0.000156415
0.000156475
0.000156464
0.000124202
0.000124201
0.000124384
0.000124384
0.000169422
0.000322602
0.000169549
0.00032364
0.000124882
0.000135942
0.000125069
0.000136181
0.00091757
0.00112554
0.000920278
0.00112969
0.000209371
0.000267602
0.000209838
0.000268265
0.00111787
0.000913427
0.00112199
0.000916112
0.000266392
0.000208612
0.00026705
0.000209082
0.000321391
0.000169285
0.000322421
0.000169413
0.000135502
0.000124484
0.000135749
0.000124679
0.000156325
0.000156315
0.000156374
0.000156364
0.000123803
0.000123803
0.000123995
0.000123994
0.000169199
0.000320941
0.000169326
0.000321968
0.000124479
0.000135464
0.000124674
0.000135711
0.000913041
0.00111832
0.000915725
0.00112245
0.000208553
0.000266443
0.000209023
0.000267101
0.00111076
0.000908965
0.00111481
0.000911606
0.000265249
0.000207792
0.000265897
0.000208262
0.000319754
0.000169062
0.000320766
0.000169189
0.000135009
0.000124063
0.000135263
0.000124266
0.000156221
0.000156211
0.000156274
0.000156263
0.000123387
0.000123387
0.000123587
0.000123587
0.000168977
0.000319309
0.000169103
0.000320318
0.000124058
0.000134972
0.000124262
0.000135226
0.000908581
0.00111121
0.000911222
0.00111527
0.000207733
0.000265299
0.000208203
0.000265947
0.0011038
0.000904608
0.00110777
0.000907188
0.000264132
0.000206975
0.000264766
0.000207442
0.000318161
0.000168842
0.000319148
0.000168967
0.000134503
0.000123626
0.000134763
0.000123837
0.000156116
0.000156106
0.000156172
0.000156162
0.000122955
0.000122955
0.000123163
0.000123162
0.000168758
0.000317721
0.000168883
0.000318705
0.000123621
0.000134467
0.000123832
0.000134726
0.000904227
0.00110425
0.000906805
0.00110822
0.000206917
0.000264181
0.000207384
0.000264815
0.00109707
0.000900396
0.00110092
0.000902893
0.000263051
0.000206168
0.000263665
0.000206629
0.000316623
0.000168626
0.000317577
0.000168748
0.000133987
0.000123175
0.000134251
0.000123393
0.000156013
0.000156003
0.000156071
0.000156061
0.000122509
0.000122508
0.000122723
0.000122723
0.000168544
0.000316188
0.000168665
0.000317139
0.000123171
0.000133951
0.000123388
0.000134215
0.000900017
0.00109752
0.000902513
0.00110136
0.00020611
0.0002631
0.000206572
0.000263713
0.00109062
0.000896365
0.00109431
0.000898763
0.000262017
0.000205375
0.000262605
0.000205828
0.000315156
0.000168417
0.000316071
0.000168535
0.000133464
0.000122712
0.000133731
0.000122936
0.000155912
0.000155902
0.00015597
0.00015596
0.00012205
0.00012205
0.00012227
0.00012227
0.000168335
0.000314726
0.000168453
0.000315638
0.000122708
0.000133428
0.000122931
0.000133695
0.000895988
0.00109106
0.000898384
0.00109475
0.000205319
0.000262064
0.000205771
0.000262653
0.0010845
0.000892553
0.00108802
0.000894832
0.000261036
0.000204604
0.000261596
0.000205045
0.000313771
0.000168215
0.000314641
0.000168329
0.000132935
0.000122239
0.000133204
0.000122467
0.000155814
0.000155804
0.000155872
0.000155862
0.000121581
0.000121581
0.000121806
0.000121805
0.000168134
0.000313345
0.000168248
0.000314212
0.000122235
0.0001329
0.000122462
0.000133169
0.000892178
0.00108494
0.000894456
0.00108845
0.000204547
0.000261083
0.000204988
0.000261644
0.00107873
0.000888983
0.00108207
0.000891139
0.000260118
0.000203859
0.000260646
0.000204285
0.000312477
0.000168021
0.000313298
0.00016813
0.000132404
0.000121758
0.000132674
0.000121989
0.000155717
0.000155707
0.000155776
0.000155766
0.000121104
0.000121103
0.000121332
0.000121331
0.000167941
0.000312054
0.00016805
0.000312873
0.000121754
0.000132369
0.000121985
0.000132639
0.00088861
0.00107916
0.000890764
0.0010825
0.000203803
0.000260165
0.000204229
0.000260693
0.0010723
0.00088469
0.00107634
0.000887562
0.000259234
0.000203102
0.000259757
0.000203551
0.000311103
0.000167831
0.000312022
0.000167939
0.000131869
0.000121271
0.000132142
0.000121505
0.000155621
0.000155612
0.000155678
0.000155669
0.00012062
0.000120619
0.000120851
0.00012085
0.000167752
0.000310685
0.00016786
0.000311602
0.000121266
0.000131835
0.0001215
0.000132107
0.000884321
0.00107272
0.00088719
0.00107676
0.000203047
0.00025928
0.000203495
0.000259803
0.00104919
0.000862622
0.00106618
0.00087923
0.000257287
0.000200848
0.000258697
0.000202515
0.000305082
0.000167397
0.000309558
0.000167689
0.000131126
0.000120754
0.000131573
0.000121016
0.000155561
0.000155552
0.000155583
0.000155574
0.000120114
0.000120113
0.000120366
0.000120366
0.000167321
0.000304685
0.000167611
0.000309146
0.00012075
0.000131092
0.000121011
0.000131539
0.000862264
0.00104959
0.000878865
0.00106659
0.000200794
0.00025733
0.00020246
0.000258742
0.0010076
0.000821447
0.000464069
0.000415656
0.000983904
0.000800244
0.000463538
0.000406822
0.000268495
0.000161302
0.000194706
0.000158722
0.000263193
0.000160905
0.000193078
0.000158735
0.000151128
0.000151124
0.000157211
0.000157212
0.000151112
0.000151108
0.000157315
0.000157315
0.000161267
0.00026832
0.000158722
0.000194675
0.000160872
0.000263034
0.000158735
0.00019305
0.000821229
0.00100787
0.000415646
0.000464086
0.000800044
0.000984147
0.000406813
0.000463551
0.00144728
0.00115302
0.00131318
0.00105233
0.00139575
0.0011144
0.00127125
0.00101975
0.000411236
0.000178991
0.000366108
0.000173455
0.000398016
0.00017794
0.000355651
0.000172582
0.000158535
0.000158519
0.000155641
0.00015563
0.000158494
0.000158479
0.000155608
0.000155597
0.000178853
0.000410538
0.000173343
0.000365612
0.000177812
0.000397379
0.000172479
0.000355198
0.00115252
0.00144798
0.00105193
0.00131371
0.00111394
0.00139637
0.00101939
0.00127173
0.00151058
0.00119968
0.00149679
0.00118973
0.00145362
0.00115783
0.00144116
0.00114863
0.000431455
0.000181333
0.000427412
0.000181008
0.000416651
0.000180093
0.000412949
0.000179782
0.000159424
0.000159406
0.000159309
0.000159291
0.000159373
0.000159356
0.000159259
0.000159243
0.000181158
0.000430634
0.000180837
0.000426622
0.000179933
0.000415899
0.000179627
0.00041223
0.00119911
0.00151139
0.00118917
0.00149757
0.0011573
0.00145434
0.00114811
0.00144185
0.00151426
0.0012023
0.00151486
0.00120281
0.00145683
0.00116027
0.00145738
0.0011607
0.000432348
0.000181394
0.000432688
0.000181432
0.000417491
0.000180139
0.000417791
0.000180172
0.000159436
0.000159418
0.000159438
0.00015942
0.000159384
0.000159367
0.000159386
0.000159368
0.000181219
0.00043152
0.000181256
0.000431859
0.000179978
0.000416733
0.00018001
0.000417032
0.00120172
0.00151509
0.00120223
0.00151568
0.00115973
0.00145757
0.00116016
0.00145812
0.00151371
0.00120193
0.00151483
0.00120278
0.00145617
0.00115988
0.00145724
0.00116067
0.000432111
0.00018134
0.00043255
0.000181427
0.00041729
0.000180085
0.00041768
0.000180166
0.000159427
0.000159409
0.000159438
0.00015942
0.000159375
0.000159358
0.000159386
0.000159369
0.000181164
0.000431283
0.000181251
0.000431721
0.000179925
0.000416536
0.000180006
0.000416925
0.00120135
0.00151454
0.0012022
0.00151566
0.00115935
0.00145691
0.00116013
0.00145799
0.00151214
0.00120078
0.00151361
0.0012019
0.00145466
0.00115881
0.00145602
0.00115983
0.000431503
0.000181262
0.000432061
0.000181313
0.000416737
0.000180014
0.000417245
0.000180058
0.00015942
0.000159402
0.000159424
0.000159406
0.000159368
0.000159351
0.000159372
0.000159355
0.000181087
0.000430675
0.000181137
0.000431232
0.000179854
0.000415985
0.000179897
0.000416492
0.0012002
0.00151297
0.00120132
0.00151444
0.00115829
0.0014554
0.0011593
0.00145677
0.00151018
0.00119934
0.00151182
0.00120058
0.00145279
0.00115749
0.00145431
0.00115862
0.000430778
0.000181161
0.000431383
0.000181266
0.000416057
0.00017992
0.000416618
0.00018002
0.000159411
0.000159393
0.000159422
0.000159404
0.000159359
0.000159342
0.00015937
0.000159353
0.000180987
0.00042995
0.000181091
0.000430554
0.00017976
0.000415306
0.00017986
0.000415865
0.00119876
0.00151101
0.00119999
0.00151264
0.00115696
0.00145353
0.00115809
0.00145505
0.00150801
0.00119777
0.00150974
0.00119906
0.00145068
0.00115602
0.00145232
0.00115721
0.000430008
0.000181073
0.000430631
0.000181127
0.00041532
0.000179836
0.000415905
0.000179884
0.000159405
0.000159387
0.000159408
0.00015939
0.000159352
0.000159335
0.000159355
0.000159338
0.000180899
0.000429182
0.000180953
0.000429803
0.000179677
0.000414571
0.000179725
0.000415154
0.00119718
0.00150883
0.00119848
0.00151056
0.00115549
0.00145143
0.00115669
0.00145306
0.00150565
0.00119611
0.00150748
0.00119745
0.00144839
0.00115443
0.00145012
0.00115569
0.000429205
0.000180971
0.000429846
0.000181075
0.000414546
0.000179739
0.000415151
0.00017984
0.000159396
0.000159378
0.000159407
0.000159389
0.000159343
0.000159326
0.000159354
0.000159337
0.000180798
0.000428381
0.000180902
0.00042902
0.00017958
0.000413798
0.000179681
0.000414402
0.00119552
0.00150647
0.00119686
0.0015083
0.0011539
0.00144913
0.00115516
0.00145087
0.00150312
0.00119436
0.00150504
0.00119575
0.00144593
0.00115273
0.00144775
0.00115405
0.000428374
0.000180879
0.000429029
0.000180935
0.000413742
0.000179651
0.000414362
0.000179701
0.000159389
0.000159371
0.000159393
0.000159375
0.000159335
0.000159319
0.000159339
0.000159322
0.000180706
0.000427551
0.000180761
0.000428205
0.000179493
0.000412994
0.000179543
0.000413614
0.00119378
0.00150393
0.00119516
0.00150585
0.0011522
0.00144666
0.00115352
0.00144849
0.00150039
0.0011925
0.00150241
0.00119395
0.00144326
0.00115092
0.0014452
0.0011523
0.000427506
0.000180776
0.000428183
0.00018088
0.000412899
0.000179553
0.000413543
0.000179654
0.000159381
0.000159363
0.000159391
0.000159373
0.000159326
0.00015931
0.000159337
0.00015932
0.000180605
0.000426685
0.000180708
0.00042736
0.000179395
0.000412152
0.000179496
0.000412795
0.00119191
0.0015012
0.00119336
0.00150322
0.00115038
0.00144399
0.00115177
0.00144594
0.00149744
0.00119051
0.00149958
0.00119203
0.00144036
0.00114897
0.00144246
0.00115043
0.0004266
0.000180679
0.000427298
0.000180738
0.000412011
0.00017946
0.00041268
0.000179513
0.000159374
0.000159356
0.000159378
0.00015936
0.000159319
0.000159302
0.000159323
0.000159306
0.000180508
0.000425781
0.000180566
0.000426477
0.000179303
0.000411266
0.000179355
0.000411933
0.00118992
0.00149825
0.00119145
0.0015004
0.00114844
0.00144109
0.0011499
0.00144319
0.00149425
0.00118838
0.00149656
0.00118998
0.00143719
0.00114685
0.00143947
0.00114841
0.000425649
0.000180574
0.000426374
0.000180679
0.000411072
0.000179361
0.000411772
0.000179461
0.000159366
0.000159348
0.000159376
0.000159358
0.000159311
0.000159294
0.00015932
0.000159304
0.000180404
0.000424833
0.000180508
0.000425556
0.000179205
0.00041033
0.000179305
0.000411028
0.00118779
0.00149506
0.0011894
0.00149737
0.00114632
0.00143792
0.00114788
0.0014402
0.0014908
0.0011861
0.00149329
0.00118779
0.00143377
0.00114456
0.00143622
0.00114622
0.000424654
0.000180475
0.000425402
0.000180534
0.000410085
0.00017927
0.000410811
0.00017932
0.00015936
0.000159342
0.000159363
0.000159345
0.000159304
0.000159288
0.000159307
0.00015929
0.000180305
0.000423841
0.000180363
0.000424588
0.000179115
0.000409346
0.000179164
0.000410069
0.00118552
0.00149161
0.00118721
0.0014941
0.00114403
0.0014345
0.00114569
0.00143695
0.00148708
0.00118367
0.00148975
0.00118545
0.00143008
0.00114212
0.0014327
0.00114387
0.000423613
0.000180405
0.000424389
0.000180468
0.000409048
0.000179206
0.000409803
0.000179267
0.000159359
0.000159342
0.000159362
0.000159344
0.000159303
0.000159287
0.000159306
0.00015929
0.000180236
0.000422804
0.000180298
0.000423577
0.000179051
0.000408312
0.000179112
0.000409065
0.00118309
0.00148788
0.00118487
0.00149056
0.00114159
0.0014308
0.00114334
0.00143343
0.00148307
0.00118108
0.00148594
0.00118296
0.00142609
0.00113951
0.00142887
0.00114135
0.000422525
0.000180319
0.000423328
0.000180391
0.000407958
0.000179111
0.000408743
0.000179185
0.000159358
0.00015934
0.000159361
0.000159344
0.000159298
0.000159281
0.000159303
0.000159286
0.000180152
0.000421719
0.000180223
0.00042252
0.000178958
0.000407224
0.000179031
0.000408008
0.0011805
0.00148387
0.00118238
0.00148674
0.00113898
0.0014268
0.00114082
0.00142959
0.00147877
0.00117832
0.00148179
0.00118029
0.00142179
0.00113672
0.00142473
0.00113866
0.000421386
0.000180216
0.000422218
0.000180296
0.000406811
0.000179004
0.000407628
0.000179082
0.000159354
0.000159336
0.000159358
0.000159341
0.00015929
0.000159274
0.000159296
0.00015928
0.000180049
0.000420584
0.000180128
0.000421413
0.000178852
0.000406081
0.000178929
0.000406896
0.00117774
0.00147956
0.00117971
0.00148259
0.00113619
0.0014225
0.00113813
0.00142544
0.00147414
0.00117538
0.00147733
0.00117745
0.00141716
0.00113374
0.00142026
0.00113578
0.000420193
0.000180105
0.000421055
0.000180188
0.000405604
0.000178893
0.000406456
0.000178973
0.000159348
0.000159331
0.000159353
0.000159336
0.000159282
0.000159266
0.000159288
0.000159272
0.00017994
0.000419394
0.000180021
0.000420254
0.000178741
0.000404878
0.000178821
0.000405727
0.0011748
0.00147494
0.00117687
0.00147812
0.00113321
0.00141787
0.00113526
0.00142098
0.00146919
0.00117225
0.00147254
0.00117442
0.00141219
0.00113056
0.00141547
0.00113272
0.000418943
0.000179992
0.000419837
0.000180076
0.000404336
0.000178778
0.000405224
0.00017886
0.000159343
0.000159326
0.000159348
0.00015933
0.000159274
0.000159258
0.00015928
0.000159264
0.000179827
0.000418148
0.00017991
0.000419039
0.000178627
0.000403614
0.000178709
0.000404499
0.00117167
0.00146998
0.00117384
0.00147333
0.00113003
0.0014129
0.0011322
0.00141618
0.00146389
0.00116893
0.00146741
0.0011712
0.00140688
0.00112718
0.00141033
0.00112947
0.000417636
0.000179876
0.000418562
0.000179961
0.000403005
0.00017866
0.00040393
0.000178744
0.000159338
0.000159321
0.000159343
0.000159326
0.000159266
0.00015925
0.000159272
0.000159256
0.000179713
0.000416846
0.000179797
0.000417769
0.000178511
0.000402287
0.000178594
0.000403209
0.00116835
0.00146468
0.00117063
0.0014682
0.00112666
0.00140758
0.00112894
0.00141103
0.00145827
0.00116543
0.00146195
0.00116781
0.00140121
0.00112361
0.00140484
0.001126
0.000416273
0.000179759
0.000417232
0.000179845
0.000401611
0.000178539
0.000402573
0.000178625
0.000159335
0.000159318
0.000159339
0.000159322
0.000159259
0.000159243
0.000159265
0.000159249
0.000179596
0.000415487
0.000179681
0.000416443
0.000178391
0.000400897
0.000178475
0.000401857
0.00116485
0.00145905
0.00116723
0.00146273
0.00112308
0.00140191
0.00112548
0.00140554
0.00145231
0.00116173
0.00145616
0.00116422
0.0013952
0.00111983
0.001399
0.00112233
0.000414853
0.000179638
0.000415845
0.000179726
0.000400155
0.000178415
0.000401153
0.000178502
0.000159332
0.000159315
0.000159335
0.000159318
0.000159252
0.000159236
0.000159258
0.000159242
0.000179477
0.000414072
0.000179564
0.000415061
0.000178268
0.000399446
0.000178355
0.000400441
0.00116115
0.00145308
0.00116365
0.00145694
0.00111931
0.00139589
0.00112181
0.00139969
0.00144602
0.00115784
0.00145003
0.00116044
0.00138885
0.00111587
0.00139281
0.00111846
0.000413382
0.000179516
0.000414404
0.000179605
0.00039864
0.000178289
0.000399672
0.000178378
0.00015933
0.000159313
0.000159333
0.000159316
0.000159246
0.00015923
0.000159251
0.000159235
0.000179356
0.000412606
0.000179444
0.000413625
0.000178143
0.000397937
0.000178231
0.000398965
0.00115727
0.00144678
0.00115987
0.0014508
0.00111535
0.00138954
0.00111794
0.0013935
0.0014394
0.00115378
0.00144357
0.00115648
0.00138219
0.00111172
0.0013863
0.00111441
0.000411862
0.000179393
0.000412912
0.000179483
0.000397071
0.000178161
0.000398135
0.000178251
0.00015933
0.000159313
0.000159332
0.000159315
0.000159241
0.000159225
0.000159245
0.000159229
0.000179235
0.000411092
0.000179323