/*--------------------------------*- C++ -*----------------------------------*\
  =========                 |
  \\      /  F ield         | OpenFOAM: The Open Source CFD Toolbox
   \\    /   O peration     | Website:  https://openfoam.org
    \\  /    A nd           | Version:  9
     \\/     M anipulation  |
\*---------------------------------------------------------------------------*/
FoamFile
{
    format      ascii;
    class       volVectorField;
    location    "0.6";
    object      U;
}
// * * * * * * * * * * * * * * * * * * * * * * * * * * * * * * * * * * * * * //

dimensions      [0 1 -1 0 0 0 0];

internalField   nonuniform List<vector> 
36360
(
(0.00100027 -0.122678 -0.500627)
(-0.00201738 -0.108136 6.66717e-05)
(0.000523291 -0.124675 -0.501824)
(-0.00327145 -0.101736 3.039e-05)
(-0.00213221 -0.112669 -0.501138)
(0.00791068 -0.11198 2.64904e-05)
(-0.000592433 -0.113444 -0.502178)
(0.0097897 -0.11634 2.08484e-05)
(-0.00117929 -0.115174 -4.00515e-05)
(-0.00111222 -0.11589 -2.01215e-06)
(-0.0018523 -0.113065 -2.14462e-05)
(-0.00162017 -0.113857 -5.09923e-07)
(0.00318184 -0.113708 -1.99123e-05)
(0.00255515 -0.112635 -2.29657e-06)
(0.00535115 -0.11632 -2.18195e-05)
(0.00489096 -0.11496 -1.37207e-06)
(-0.00110243 -0.115811 -1.54061e-07)
(-0.00110243 -0.115811 1.55229e-07)
(-0.0015994 -0.113791 -2.67844e-08)
(-0.0015994 -0.113791 2.74357e-08)
(0.00250905 -0.112408 -2.05652e-07)
(0.00250905 -0.112408 2.05458e-07)
(0.00485441 -0.114715 -9.81955e-08)
(0.0048544 -0.114715 9.82568e-08)
(-0.00111224 -0.115889 2.01415e-06)
(-0.00117938 -0.115173 4.0043e-05)
(-0.00162017 -0.113857 5.10976e-07)
(-0.00185231 -0.113064 2.1446e-05)
(0.00255517 -0.112634 2.29551e-06)
(0.00318185 -0.113707 1.99161e-05)
(0.00489096 -0.114959 1.37181e-06)
(0.00535117 -0.116319 2.18203e-05)
(-0.00201768 -0.108137 -6.66804e-05)
(0.00100031 -0.122679 0.500627)
(-0.00327178 -0.101736 -3.03908e-05)
(0.000523061 -0.124676 0.501824)
(0.00791137 -0.111983 -2.6487e-05)
(-0.00213202 -0.11267 0.501138)
(0.00978928 -0.116341 -2.08476e-05)
(-0.000592506 -0.113445 0.502178)
(0.00124557 -0.120469 -0.500541)
(-0.00189793 -0.11191 7.33481e-05)
(0.00114843 -0.121659 -0.500711)
(-0.00163015 -0.110531 7.5289e-05)
(-0.00212256 -0.115524 -0.50191)
(0.00283272 -0.106881 1.37964e-05)
(-0.00244304 -0.114285 -0.501486)
(0.00505183 -0.107602 1.99935e-05)
(-0.000173262 -0.115891 -3.1817e-05)
(-0.000120144 -0.116563 -5.16754e-06)
(-0.000343086 -0.115945 -3.80434e-05)
(-0.00029887 -0.116677 -3.66949e-06)
(0.000757567 -0.112027 -3.25827e-06)
(0.000148434 -0.111818 -4.60136e-06)
(0.0015677 -0.112154 -1.18715e-05)
(0.000867703 -0.111631 -3.43472e-06)
(-9.86731e-05 -0.116481 -5.333e-07)
(-9.86732e-05 -0.116481 5.17334e-07)
(-0.00028438 -0.1166 -3.32411e-07)
(-0.000284382 -0.1166 3.2805e-07)
(0.00010187 -0.111655 -5.3514e-07)
(0.000101869 -0.111655 5.27943e-07)
(0.000814213 -0.111447 -3.55006e-07)
(0.000814214 -0.111447 3.51476e-07)
(-0.000120131 -0.116562 5.16622e-06)
(-0.00017342 -0.115891 3.17802e-05)
(-0.000298876 -0.116676 3.66561e-06)
(-0.000343218 -0.115945 3.80126e-05)
(0.000148431 -0.111817 4.59358e-06)
(0.000757537 -0.112026 3.26862e-06)
(0.000867708 -0.111631 3.42964e-06)
(0.00156768 -0.112154 1.18783e-05)
(-0.00189875 -0.11191 -7.33862e-05)
(0.00124565 -0.120469 0.50054)
(-0.00163085 -0.110531 -7.53096e-05)
(0.00114831 -0.12166 0.500711)
(0.00283534 -0.106883 -1.37885e-05)
(-0.00212177 -0.115525 0.50191)
(0.00505398 -0.107604 -1.99892e-05)
(-0.00244307 -0.114286 0.501486)
(0.0017122 -0.119068 -0.500446)
(-0.00223227 -0.113143 5.9971e-05)
(0.00149329 -0.119605 -0.500466)
(-0.00211798 -0.112686 6.74285e-05)
(-0.00113104 -0.11559 -0.501901)
(0.00125433 -0.107223 -9.26931e-07)
(-0.00156101 -0.115705 -0.501901)
(0.00169237 -0.106913 6.60938e-06)
(-2.28124e-05 -0.115641 -1.56702e-05)
(2.79959e-05 -0.116295 -6.64636e-06)
(-8.65215e-05 -0.115758 -2.39284e-05)
(-2.41235e-05 -0.116391 -6.14087e-06)
(0.000404232 -0.111728 1.43578e-05)
(-4.40746e-05 -0.111906 -5.82249e-06)
(0.000460851 -0.111881 5.78256e-06)
(-4.28304e-05 -0.111905 -5.37414e-06)
(4.59174e-05 -0.116228 -8.87348e-07)
(4.59161e-05 -0.116228 8.76976e-07)
(-4.14351e-06 -0.116313 -7.14997e-07)
(-4.14333e-06 -0.116312 7.06913e-07)
(-7.76945e-05 -0.11179 -8.66405e-07)
(-7.76964e-05 -0.11179 8.5969e-07)
(-8.02774e-05 -0.11177 -6.99357e-07)
(-8.02793e-05 -0.11177 6.92318e-07)
(2.8013e-05 -0.116294 6.63405e-06)
(-2.30032e-05 -0.115641 1.56262e-05)
(-2.41075e-05 -0.11639 6.1305e-06)
(-8.67248e-05 -0.115758 2.38836e-05)
(-4.40802e-05 -0.111905 5.81486e-06)
(0.000404097 -0.111727 -1.43443e-05)
(-4.28338e-05 -0.111905 5.36432e-06)
(0.00046077 -0.11188 -5.7685e-06)
(-0.00223312 -0.113143 -5.99985e-05)
(0.00171203 -0.119068 0.500445)
(-0.00211888 -0.112686 -6.74584e-05)
(0.00149325 -0.119605 0.500466)
(0.00125664 -0.107224 9.39422e-07)
(-0.00113091 -0.11559 0.5019)
(0.00169462 -0.106914 -6.59601e-06)
(-0.00156071 -0.115706 0.501901)
(0.00196198 -0.118296 -0.500421)
(-0.00230376 -0.113734 4.56273e-05)
(0.00187357 -0.118658 -0.500424)
(-0.00229237 -0.113471 5.25355e-05)
(-0.000783479 -0.114952 -0.501899)
(0.0010571 -0.108071 -1.52047e-05)
(-0.000880807 -0.115326 -0.501898)
(0.00109762 -0.107643 -8.31596e-06)
(3.75902e-05 -0.11542 -1.51761e-06)
(7.66538e-05 -0.116092 -6.79014e-06)
(1.5032e-05 -0.115525 -8.0818e-06)
(5.66667e-05 -0.116196 -6.83278e-06)
(0.000429465 -0.11143 2.86271e-05)
(3.65298e-05 -0.111816 -6.0075e-06)
(0.000415837 -0.111573 2.20007e-05)
(-5.74516e-06 -0.111882 -6.023e-06)
(8.89468e-05 -0.11606 -1.15722e-06)
(8.89463e-05 -0.11606 1.14597e-06)
(7.21258e-05 -0.116147 -1.04026e-06)
(7.21246e-05 -0.116147 1.0196e-06)
(5.7655e-06 -0.111741 -1.14646e-06)
(5.76461e-06 -0.11174 1.13373e-06)
(-3.80131e-05 -0.111784 -1.0184e-06)
(-3.80107e-05 -0.111784 1.00804e-06)
(7.66659e-05 -0.116092 6.77443e-06)
(3.73377e-05 -0.11542 1.46338e-06)
(5.66811e-05 -0.116196 6.80026e-06)
(1.47995e-05 -0.115525 8.05221e-06)
(3.6513e-05 -0.111815 5.98946e-06)
(0.000429308 -0.11143 -2.86074e-05)
(-5.76359e-06 -0.111882 6.01226e-06)
(0.000415675 -0.111573 -2.19853e-05)
(-0.0023047 -0.113734 -4.56528e-05)
(0.00196175 -0.118297 0.50042)
(-0.0022933 -0.113472 -5.25569e-05)
(0.00187336 -0.118659 0.500423)
(0.00105908 -0.108072 1.52221e-05)
(-0.000783414 -0.114952 0.501899)
(0.00109968 -0.107644 8.33029e-06)
(-0.000880691 -0.115327 0.501898)
(0.0020705 -0.117643 -0.500401)
(-0.00227745 -0.11411 3.35566e-05)
(0.00203236 -0.11796 -0.500404)
(-0.0023012 -0.113947 3.93325e-05)
(-0.000738769 -0.114122 -0.501899)
(0.00105759 -0.108783 -2.73002e-05)
(-0.000738285 -0.114537 -0.501897)
(0.00104236 -0.108457 -2.15298e-05)
(6.33808e-05 -0.115216 8.80754e-06)
(0.000112718 -0.115877 -6.18537e-06)
(5.08087e-05 -0.115318 4.07404e-06)
(9.41115e-05 -0.115988 -6.58271e-06)
(0.00044085 -0.111157 3.9077e-05)
(6.83529e-05 -0.111626 -5.48192e-06)
(0.000437722 -0.111292 3.42848e-05)
(5.65069e-05 -0.11173 -5.81101e-06)
(0.000121669 -0.115875 -1.35544e-06)
(0.000121644 -0.115875 1.32837e-06)
(0.000104694 -0.115972 -1.25907e-06)
(0.000104709 -0.115972 1.25152e-06)
(4.04712e-05 -0.111588 -1.34322e-06)
(4.04716e-05 -0.111588 1.32519e-06)
(2.75146e-05 -0.111674 -1.25542e-06)
(2.75179e-05 -0.111674 1.24079e-06)
(0.000112697 -0.115877 6.18523e-06)
(6.32004e-05 -0.115216 -8.83705e-06)
(9.41388e-05 -0.115988 6.54852e-06)
(5.05484e-05 -0.115318 -4.12937e-06)
(6.83343e-05 -0.111625 5.4624e-06)
(0.000440682 -0.111157 -3.90534e-05)
(5.64869e-05 -0.11173 5.79003e-06)
(0.000437579 -0.111291 -3.42654e-05)
(-0.00227829 -0.11411 -3.35865e-05)
(0.00207039 -0.117644 0.5004)
(-0.00230207 -0.113948 -3.93497e-05)
(0.00203224 -0.117961 0.500403)
(0.00105956 -0.108783 2.73215e-05)
(-0.000738594 -0.114121 0.501899)
(0.00104442 -0.108458 2.15497e-05)
(-0.00073806 -0.114538 0.501897)
(0.00213617 -0.117042 -0.50038)
(-0.00221831 -0.114291 2.35497e-05)
(0.00211151 -0.117338 -0.500383)
(-0.00225365 -0.114221 2.83279e-05)
(-0.000751619 -0.113333 -0.501898)
(0.00108744 -0.109249 -3.73337e-05)
(-0.000735278 -0.113719 -0.501896)
(0.00106806 -0.109046 -3.25573e-05)
(8.58706e-05 -0.115013 1.62246e-05)
(0.000153649 -0.115622 -5.22543e-06)
(7.40088e-05 -0.115117 1.28034e-05)
(0.000132722 -0.115756 -5.75473e-06)
(0.000449521 -0.110897 4.65241e-05)
(8.6193e-05 -0.111376 -4.58065e-06)
(0.000444007 -0.111026 4.31181e-05)
(7.74878e-05 -0.111508 -5.06448e-06)
(0.000159414 -0.115647 -1.45416e-06)
(0.00015942 -0.115647 1.42881e-06)
(0.000139984 -0.115768 -1.41293e-06)
(0.000140028 -0.115768 1.39725e-06)
(5.75569e-05 -0.111371 -1.44369e-06)
(5.7559e-05 -0.111371 1.41941e-06)
(4.9551e-05 -0.111487 -1.40682e-06)
(4.95566e-05 -0.111486 1.3843e-06)
(0.000153649 -0.115622 5.19184e-06)
(8.56133e-05 -0.115013 -1.62753e-05)
(0.000132745 -0.115756 5.69778e-06)
(7.36853e-05 -0.115117 -1.28696e-05)
(8.61742e-05 -0.111375 4.55261e-06)
(0.000449345 -0.110896 -4.65048e-05)
(7.74712e-05 -0.111507 5.0352e-06)
(0.000443824 -0.111026 -4.31017e-05)
(-0.00221921 -0.114291 -2.35693e-05)
(0.00213601 -0.117042 0.50038)
(-0.00225458 -0.114222 -2.83385e-05)
(0.0021113 -0.117338 0.500382)
(0.00108935 -0.10925 3.73564e-05)
(-0.000751468 -0.113333 0.501898)
(0.00107002 -0.109046 3.25787e-05)
(-0.000735091 -0.11372 0.501896)
(0.00219367 -0.116462 -0.500358)
(-0.00214711 -0.114321 1.5263e-05)
(0.00217109 -0.11675 -0.500361)
(-0.00218661 -0.114323 1.92157e-05)
(-0.000770273 -0.112601 -0.501896)
(0.00111693 -0.109496 -4.56217e-05)
(-0.000753106 -0.112961 -0.501895)
(0.00109801 -0.109397 -4.16781e-05)
(0.000110643 -0.114778 2.15166e-05)
(0.000197481 -0.115316 -4.16036e-06)
(9.71282e-05 -0.114901 1.90812e-05)
(0.000175228 -0.115476 -4.71115e-06)
(0.000464952 -0.110625 5.17566e-05)
(0.00010372 -0.111074 -3.53404e-06)
(0.000456293 -0.110764 4.93742e-05)
(9.50273e-05 -0.111231 -4.06588e-06)
(0.00020127 -0.115364 -1.47328e-06)
(0.000201279 -0.115363 1.44914e-06)
(0.000179656 -0.115513 -1.47553e-06)
(0.000179664 -0.115513 1.45096e-06)
(7.33521e-05 -0.111095 -1.46009e-06)
(7.33554e-05 -0.111095 1.4361e-06)
(6.52763e-05 -0.111241 -1.45946e-06)
(6.52793e-05 -0.111241 1.4354e-06)
(0.000197454 -0.115316 4.13354e-06)
(0.000110407 -0.114778 -2.15577e-05)
(0.000175214 -0.115476 4.6827e-06)
(9.68864e-05 -0.114901 -1.91255e-05)
(0.000103697 -0.111074 3.50796e-06)
(0.000464809 -0.110625 -5.17308e-05)
(9.50057e-05 -0.111231 4.03912e-06)
(0.000456135 -0.110764 -4.93512e-05)
(-0.00214797 -0.114322 -1.52774e-05)
(0.0021936 -0.116463 0.500358)
(-0.00218749 -0.114323 -1.92327e-05)
(0.00217098 -0.116751 0.500361)
(0.00111891 -0.109497 4.56499e-05)
(-0.000770045 -0.112601 0.501896)
(0.00109997 -0.109398 4.17037e-05)
(-0.000752893 -0.112962 0.501895)
(0.00225365 -0.115882 -0.500336)
(-0.00207317 -0.114219 8.39253e-06)
(0.00222886 -0.116173 -0.50034)
(-0.00211355 -0.114287 1.16705e-05)
(-0.000785408 -0.111905 -0.501895)
(0.00115257 -0.109555 -5.24371e-05)
(-0.00077037 -0.11225 -0.501894)
(0.00113024 -0.109547 -4.92112e-05)
(0.000140899 -0.114492 2.53095e-05)
(0.000244265 -0.114956 -3.07106e-06)
(0.000124328 -0.114642 2.35759e-05)
(0.000220372 -0.115143 -3.6114e-06)
(0.00048604 -0.110318 5.53589e-05)
(0.000121937 -0.110719 -2.47133e-06)
(0.000474561 -0.110477 5.37379e-05)
(0.000112654 -0.110903 -2.9987e-06)
(0.000249044 -0.115017 -1.4314e-06)
(0.000249054 -0.115017 1.40611e-06)
(0.000224367 -0.115199 -1.45863e-06)
(0.000224377 -0.115198 1.43418e-06)
(9.06664e-05 -0.110758 -1.42097e-06)
(9.06694e-05 -0.110758 1.39579e-06)
(8.1768e-05 -0.110934 -1.44668e-06)
(8.17713e-05 -0.110934 1.42227e-06)
(0.000244227 -0.114955 3.04468e-06)
(0.000140665 -0.114492 -2.53473e-05)
(0.000220338 -0.115143 3.58502e-06)
(0.000124087 -0.114642 -2.36152e-05)
(0.000121911 -0.110718 2.44533e-06)
(0.000485915 -0.110318 -5.53299e-05)
(0.000112628 -0.110903 2.9728e-06)
(0.000474423 -0.110477 -5.37103e-05)
(-0.00207407 -0.11422 -8.40388e-06)
(0.00225356 -0.115883 0.500336)
(-0.00211444 -0.114287 -1.16831e-05)
(0.00222877 -0.116173 0.500339)
(0.00115456 -0.109555 5.24686e-05)
(-0.00078523 -0.111906 0.501895)
(0.0011322 -0.109547 4.92413e-05)
(-0.000770168 -0.11225 0.501894)
(0.00231989 -0.115283 -0.500313)
(-0.00201026 -0.113992 2.67572e-06)
(0.00229171 -0.115586 -0.500316)
(-0.00204119 -0.114121 5.40696e-06)
(-0.000794403 -0.111221 -0.501893)
(0.00120505 -0.109449 -5.81576e-05)
(-0.000782348 -0.111563 -0.501892)
(0.00117179 -0.109523 -5.54059e-05)
(0.000177534 -0.114142 2.78962e-05)
(0.000295713 -0.114534 -2.05833e-06)
(0.000157605 -0.114325 2.67463e-05)
(0.000269168 -0.114753 -2.54719e-06)
(0.000512694 -0.109958 5.77642e-05)
(0.000141884 -0.110305 -1.47341e-06)
(0.000498431 -0.110146 5.66833e-05)
(0.00013163 -0.110519 -1.95936e-06)
(0.000303618 -0.114604 -1.35218e-06)
(0.000303626 -0.114604 1.32496e-06)
(0.000275517 -0.114819 -1.39435e-06)
(0.000275526 -0.114819 1.36782e-06)
(0.000110219 -0.110355 -1.34345e-06)
(0.000110221 -0.110355 1.3163e-06)
(0.000100182 -0.110565 -1.38537e-06)
(0.000100185 -0.110565 1.35918e-06)
(0.000295671 -0.114534 2.03128e-06)
(0.000177307 -0.114142 -2.79325e-05)
(0.000269128 -0.114753 2.52036e-06)
(0.000157378 -0.114326 -2.67831e-05)
(0.000141857 -0.110304 1.44653e-06)
(0.000512598 -0.109958 -5.77339e-05)
(0.000131604 -0.110519 1.93302e-06)
(0.000498323 -0.110146 -5.66534e-05)
(-0.00201123 -0.113992 -2.685e-06)
(0.0023198 -0.115284 0.500312)
(-0.00204209 -0.114121 -5.41764e-06)
(0.00229167 -0.115586 0.500315)
(0.00120701 -0.10945 5.81915e-05)
(-0.000794154 -0.111221 0.501893)
(0.0011738 -0.109523 5.54385e-05)
(-0.000782083 -0.111563 0.501892)
(0.0023941 -0.114648 -0.500288)
(-0.00197043 -0.113644 -2.11142e-06)
(0.00236172 -0.114971 -0.500292)
(-0.00199303 -0.113833 1.8086e-07)
(-0.000797589 -0.110524 -0.501891)
(0.00126771 -0.109202 -6.29158e-05)
(-0.000787913 -0.110875 -0.50189)
(0.00123097 -0.109342 -6.06463e-05)
(0.000221863 -0.113716 2.95546e-05)
(0.000354154 -0.114044 -1.1561e-06)
(0.000197955 -0.113939 2.88186e-05)
(0.000323959 -0.114298 -1.59439e-06)
(0.000544224 -0.109533 5.93684e-05)
(0.00016435 -0.109824 -5.67039e-07)
(0.000527673 -0.109755 5.86443e-05)
(0.000152785 -0.110073 -1.00795e-06)
(0.000365225 -0.114116 -1.25022e-06)
(0.000365234 -0.114116 1.22089e-06)
(0.000333489 -0.11437 -1.30387e-06)
(0.000333497 -0.11437 1.27568e-06)
(0.000132169 -0.10988 -1.24253e-06)
(0.000132172 -0.10988 1.21312e-06)
(0.000120871 -0.110127 -1.29551e-06)
(0.000120874 -0.110127 1.26727e-06)
(0.000354112 -0.114044 1.12785e-06)
(0.000221647 -0.113716 -2.95903e-05)
(0.000323916 -0.114298 1.56676e-06)
(0.000197733 -0.113939 -2.88546e-05)
(0.000164321 -0.109824 5.38968e-07)
(0.000544143 -0.109533 -5.93384e-05)
(0.000152756 -0.110073 9.80503e-07)
(0.000527585 -0.109755 -5.86141e-05)
(-0.00197144 -0.113644 2.104e-06)
(0.00239399 -0.114649 0.500288)
(-0.00199403 -0.113833 -1.89114e-07)
(0.00236161 -0.114971 0.500292)
(0.00126961 -0.109203 6.29511e-05)
(-0.000797365 -0.110525 0.501891)
(0.0012329 -0.109343 6.0681e-05)
(-0.000787687 -0.110875 0.50189)
(0.00247839 -0.113962 -0.500263)
(-0.00192541 -0.113179 -6.15079e-06)
(0.00244082 -0.114312 -0.500267)
(-0.00195299 -0.113425 -4.21155e-06)
(-0.000795862 -0.109795 -0.501889)
(0.00133287 -0.108827 -6.68974e-05)
(-0.00078809 -0.110164 -0.501888)
(0.00129561 -0.10903 -6.49959e-05)
(0.000275173 -0.113206 3.06152e-05)
(0.00042065 -0.113477 -3.58346e-07)
(0.000246587 -0.113472 3.01389e-05)
(0.000386285 -0.113771 -7.44203e-07)
(0.000579516 -0.10903 6.04309e-05)
(0.000189598 -0.10927 2.3493e-07)
(0.000561122 -0.109292 5.99606e-05)
(0.000176612 -0.109557 -1.52144e-07)
(0.000434773 -0.113548 -1.13078e-06)
(0.000434783 -0.113548 1.0989e-06)
(0.000398955 -0.113843 -1.19231e-06)
(0.000398965 -0.113843 1.16177e-06)
(0.000156948 -0.109327 -1.12453e-06)
(0.000156952 -0.109326 1.0923e-06)
(0.000144193 -0.109614 -1.18533e-06)
(0.000144196 -0.109614 1.15461e-06)
(0.000420612 -0.113477 3.28623e-07)
(0.000274961 -0.113207 -3.06507e-05)
(0.000386245 -0.113771 7.15284e-07)
(0.000246376 -0.113472 -3.01745e-05)
(0.000189569 -0.10927 -2.64781e-07)
(0.000579445 -0.10903 -6.04016e-05)
(0.000176583 -0.109557 1.23317e-07)
(0.000561047 -0.109292 -5.99308e-05)
(-0.00192643 -0.113179 6.14457e-06)
(0.00247827 -0.113962 0.500263)
(-0.00195399 -0.113426 4.2048e-06)
(0.00244072 -0.114312 0.500266)
(0.00133472 -0.108828 6.69335e-05)
(-0.000795584 -0.109795 0.501889)
(0.00129749 -0.109031 6.50317e-05)
(-0.000787817 -0.110165 0.501888)
(0.00257389 -0.113208 -0.500238)
(-0.00187014 -0.112607 -9.58281e-06)
(0.00253076 -0.113593 -0.500242)
(-0.00190225 -0.112906 -7.93295e-06)
(-0.000790297 -0.109016 -0.501888)
(0.00140128 -0.108328 -7.02399e-05)
(-0.000783942 -0.109413 -0.501886)
(0.00136133 -0.108593 -6.86435e-05)
(0.000338756 -0.112604 3.13512e-05)
(0.000496414 -0.112823 3.43948e-07)
(0.00030491 -0.112917 3.10071e-05)
(0.000457295 -0.113162 2.82672e-09)
(0.000618797 -0.108439 6.10612e-05)
(0.00021804 -0.108631 9.35297e-07)
(0.000598339 -0.108746 6.07949e-05)
(0.000203399 -0.108962 5.96168e-07)
(0.000513191 -0.112891 -9.94951e-07)
(0.0005132 -0.112891 9.5899e-07)
(0.000472835 -0.113231 -1.06546e-06)
(0.000472846 -0.113231 1.03193e-06)
(0.000184878 -0.108687 -9.89125e-07)
(0.00018488 -0.108687 9.52251e-07)
(0.000170513 -0.109018 -1.05966e-06)
(0.000170516 -0.109018 1.02544e-06)
(0.000496386 -0.112823 -3.77714e-07)
(0.000338544 -0.112604 -3.13898e-05)
(0.00045726 -0.113162 -3.38355e-08)
(0.000304698 -0.112918 -3.10432e-05)
(0.000218015 -0.108631 -9.6955e-07)
(0.00061873 -0.108439 -6.10344e-05)
(0.000203372 -0.108962 -6.27667e-07)
(0.000598272 -0.108746 -6.07664e-05)
(-0.0018712 -0.112608 9.57594e-06)
(0.00257373 -0.113209 0.500237)
(-0.00190329 -0.112906 7.92687e-06)
(0.00253062 -0.113593 0.500241)
(0.00140308 -0.108328 7.02755e-05)
(-0.000790001 -0.109016 0.501887)
(0.00136316 -0.108593 6.86797e-05)
(-0.000783638 -0.109413 0.501886)
(0.00268125 -0.112376 -0.500211)
(-0.00182089 -0.111947 -1.25111e-05)
(0.00263254 -0.112803 -0.500215)
(-0.0018461 -0.112289 -1.10926e-05)
(-0.000780737 -0.10817 -0.501886)
(0.0014911 -0.107703 -7.30678e-05)
(-0.000776101 -0.108602 -0.501884)
(0.00143648 -0.108031 -7.17082e-05)
(0.000412992 -0.111899 3.19475e-05)
(0.000582343 -0.112074 9.68888e-07)
(0.000373837 -0.112265 3.17327e-05)
(0.00053803 -0.112461 6.82879e-07)
(0.000662249 -0.10775 6.13685e-05)
(0.000250064 -0.1079 1.55509e-06)
(0.000639689 -0.108107 6.12534e-05)
(0.000233586 -0.108278 1.25996e-06)
(0.000601194 -0.112136 -8.45596e-07)
(0.000601186 -0.112136 8.07727e-07)
(0.00055595 -0.112527 -9.15518e-07)
(0.000555949 -0.112526 8.75861e-07)
(0.000216167 -0.107952 -8.37208e-07)
(0.00021616 -0.107952 7.98405e-07)
(0.000200089 -0.108332 -9.11911e-07)
(0.000200084 -0.108332 8.72366e-07)
(0.000582338 -0.112074 -1.00424e-06)
(0.00041278 -0.111899 -3.19875e-05)
(0.000538018 -0.112461 -7.24935e-07)
(0.000373631 -0.112265 -3.17998e-05)
(0.000250047 -0.1079 -1.59053e-06)
(0.00066218 -0.10775 -6.13422e-05)
(0.000233568 -0.108278 -1.29749e-06)
(0.00063962 -0.108107 -6.12314e-05)
(-0.00182198 -0.111947 1.25045e-05)
(0.00268109 -0.112376 0.500211)
(-0.00184715 -0.112289 1.10825e-05)
(0.00263239 -0.112803 0.500214)
(0.00149286 -0.107704 7.31036e-05)
(-0.000780439 -0.10817 0.501885)
(0.00143826 -0.108032 7.17422e-05)
(-0.0007758 -0.108602 0.501884)
(0.00280068 -0.111451 -0.500185)
(-0.00178976 -0.111152 -1.50154e-05)
(0.00274618 -0.111926 -0.500188)
(-0.00180953 -0.11157 -1.3808e-05)
(-0.000766054 -0.107244 -0.501884)
(0.00161214 -0.106951 -7.54829e-05)
(-0.000763984 -0.107718 -0.501882)
(0.00154578 -0.107344 -7.43263e-05)
(0.000498118 -0.111081 3.20372e-05)
(0.000679336 -0.111218 1.5292e-06)
(0.000453419 -0.111505 3.20887e-05)
(0.000629357 -0.11166 1.25747e-06)
(0.000709853 -0.106954 6.14807e-05)
(0.000285905 -0.107066 2.10408e-06)
(0.000685257 -0.107366 6.14493e-05)
(0.000267486 -0.107497 1.83785e-06)
(0.000699764 -0.111274 -6.95509e-07)
(0.000699747 -0.111274 6.57526e-07)
(0.000649104 -0.111719 -7.71024e-07)
(0.000649091 -0.111719 7.33465e-07)
(0.000251236 -0.107113 -6.86574e-07)
(0.000251228 -0.107113 6.48188e-07)
(0.000233217 -0.107546 -7.6203e-07)
(0.00023321 -0.107546 7.23748e-07)
(0.00067934 -0.111217 -1.56295e-06)
(0.000497902 -0.111081 -3.2072e-05)
(0.000629358 -0.111659 -1.29128e-06)
(0.000453205 -0.111505 -3.21247e-05)
(0.00028589 -0.107066 -2.13802e-06)
(0.000709784 -0.106954 -6.14523e-05)
(0.000267471 -0.107496 -1.87207e-06)
(0.000685189 -0.107366 -6.14214e-05)
(-0.00179091 -0.111152 1.50112e-05)
(0.00280051 -0.111451 0.500184)
(-0.00181064 -0.111571 1.38031e-05)
(0.00274601 -0.111926 0.500187)
(0.00161385 -0.106952 7.55209e-05)
(-0.000765748 -0.107244 0.501884)
(0.00154753 -0.107344 7.43635e-05)
(-0.000763674 -0.107718 0.501882)
(0.00293288 -0.110418 -0.500156)
(-0.00174362 -0.110207 -1.71836e-05)
(0.00287218 -0.110948 -0.50016)
(-0.0017726 -0.110698 -1.61335e-05)
(-0.000745981 -0.106221 -0.501882)
(0.00172908 -0.106073 -7.75386e-05)
(-0.000746398 -0.106745 -0.50188)
(0.00166703 -0.106527 -7.65538e-05)
(0.000595086 -0.110139 3.17276e-05)
(0.000788159 -0.110245 2.01367e-06)
(0.000544335 -0.110626 3.1909e-05)
(0.00073221 -0.110746 1.78118e-06)
(0.000761115 -0.10604 6.14556e-05)
(0.000325847 -0.106119 2.58304e-06)
(0.000734741 -0.106512 6.14761e-05)
(0.000305352 -0.106607 2.35237e-06)
(0.000809846 -0.110295 -5.43715e-07)
(0.000809831 -0.110295 5.04318e-07)
(0.000753326 -0.1108 -6.19603e-07)
(0.000753307 -0.1108 5.80963e-07)
(0.000290398 -0.10616 -5.35646e-07)
(0.000290391 -0.10616 4.96049e-07)
(0.000270299 -0.106652 -6.10894e-07)
(0.000270291 -0.106651 5.72011e-07)
(0.00078816 -0.110245 -2.04867e-06)
(0.000594867 -0.110139 -3.17617e-05)
(0.000732215 -0.110746 -1.81543e-06)
(0.000544118 -0.110626 -3.19432e-05)
(0.00032583 -0.106119 -2.61764e-06)
(0.000761045 -0.10604 -6.14273e-05)
(0.000305337 -0.106607 -2.3865e-06)
(0.000734673 -0.106512 -6.14479e-05)
(-0.00174483 -0.110207 1.71803e-05)
(0.0029327 -0.110418 0.500155)
(-0.00177378 -0.110698 1.61299e-05)
(0.00287201 -0.110948 0.500159)
(0.00173076 -0.106073 7.75773e-05)
(-0.000745667 -0.106221 0.501882)
(0.00166874 -0.106527 7.65922e-05)
(-0.000746079 -0.106745 0.50188)
(0.00307853 -0.109266 -0.500127)
(-0.00168443 -0.109126 -1.90841e-05)
(0.00301102 -0.109857 -0.500131)
(-0.00171961 -0.109682 -1.81619e-05)
(-0.000721144 -0.10509 -0.50188)
(0.00182515 -0.105057 -7.9293e-05)
(-0.000723782 -0.10567 -0.501878)
(0.00177299 -0.105584 -7.84515e-05)
(0.000704861 -0.109065 3.14409e-05)
(0.000909375 -0.109144 2.42223e-06)
(0.00064759 -0.109619 3.15642e-05)
(0.000847143 -0.109711 2.2255e-06)
(0.000815814 -0.104998 6.12339e-05)
(0.000370108 -0.105048 2.99846e-06)
(0.000787715 -0.105536 6.13847e-05)
(0.000347424 -0.1056 2.79892e-06)
(0.000932219 -0.109187 -3.96343e-07)
(0.000932206 -0.109187 3.55151e-07)
(0.00086947 -0.109758 -4.69165e-07)
(0.000869457 -0.109758 4.28902e-07)
(0.000333915 -0.105084 -3.89793e-07)
(0.00033391 -0.105084 3.48529e-07)
(0.000311608 -0.105638 -4.6197e-07)
(0.000311602 -0.105638 4.21586e-07)
(0.000909375 -0.109144 -2.45854e-06)
(0.000704638 -0.109065 -3.14764e-05)
(0.000847143 -0.109711 -2.26112e-06)
(0.00064737 -0.109619 -3.15992e-05)
(0.00037009 -0.105048 -3.03467e-06)
(0.000815743 -0.104998 -6.1205e-05)
(0.000347406 -0.105599 -2.83429e-06)
(0.000787645 -0.105536 -6.13559e-05)
(-0.00168569 -0.109126 1.90811e-05)
(0.00307835 -0.109266 0.500127)
(-0.00172085 -0.109682 1.81588e-05)
(0.00301084 -0.109857 0.50013)
(0.00182692 -0.105057 7.93319e-05)
(-0.000720824 -0.10509 0.50188)
(0.00177471 -0.105585 7.84903e-05)
(-0.000723457 -0.10567 0.501878)
(0.00323818 -0.107984 -0.500098)
(-0.00160719 -0.107907 -2.07562e-05)
(0.00316356 -0.108641 -0.500102)
(-0.00165161 -0.108535 -1.99434e-05)
(-0.000691599 -0.103836 -0.501878)
(0.00191916 -0.103892 -8.08013e-05)
(-0.000696592 -0.104479 -0.501876)
(0.00186673 -0.104493 -8.00771e-05)
(0.000828262 -0.107849 3.1167e-05)
(0.00104359 -0.107906 2.77736e-06)
(0.000764087 -0.108475 3.13068e-05)
(0.000974794 -0.108543 2.60592e-06)
(0.000874281 -0.103818 6.08558e-05)
(0.000418896 -0.103844 3.35314e-06)
(0.000844233 -0.104426 6.10558e-05)
(0.000393926 -0.104463 3.18302e-06)
(0.00106747 -0.107942 -2.55103e-07)
(0.00106746 -0.107942 2.11965e-07)
(0.000998216 -0.108583 -3.25042e-07)
(0.000998204 -0.108583 2.82893e-07)
(0.000381999 -0.103873 -2.49523e-07)
(0.000381995 -0.103873 2.06339e-07)
(0.000357385 -0.104496 -3.18939e-07)
(0.00035738 -0.104496 2.76733e-07)
(0.00104359 -0.107906 -2.81522e-06)
(0.000828033 -0.107849 -3.12028e-05)
(0.000974794 -0.108543 -2.64298e-06)
(0.000763861 -0.108475 -3.13425e-05)
(0.000418876 -0.103844 -3.39093e-06)
(0.00087421 -0.103818 -6.08274e-05)
(0.000393906 -0.104463 -3.22002e-06)
(0.000844162 -0.104426 -6.10271e-05)
(-0.00160847 -0.107907 2.07534e-05)
(0.00323799 -0.107984 0.500097)
(-0.00165288 -0.108535 1.99406e-05)
(0.00316338 -0.108641 0.500101)
(0.00192105 -0.103892 8.08403e-05)
(-0.000691271 -0.103836 0.501877)
(0.00186857 -0.104493 8.0116e-05)
(-0.00069626 -0.104479 0.501876)
(0.00341204 -0.106559 -0.500068)
(-0.00151197 -0.106536 -2.22374e-05)
(0.00333021 -0.107289 -0.500072)
(-0.0015653 -0.107241 -2.15157e-05)
(-0.000656984 -0.102448 -0.501876)
(0.00201447 -0.102576 -8.21019e-05)
(-0.000664514 -0.103159 -0.501874)
(0.00196099 -0.103254 -8.14772e-05)
(0.000965743 -0.10648 3.08576e-05)
(0.00119122 -0.106518 3.08613e-06)
(0.000894509 -0.107184 3.10136e-05)
(0.00111568 -0.107231 2.93713e-06)
(0.000936847 -0.102491 6.0418e-05)
(0.000472366 -0.102495 3.65654e-06)
(0.000904715 -0.103174 6.06443e-05)
(0.000445039 -0.103188 3.51081e-06)
(0.00121606 -0.106548 -1.19296e-07)
(0.00121605 -0.106548 7.4113e-08)
(0.00114009 -0.107264 -1.86517e-07)
(0.00114008 -0.107264 1.42372e-07)
(0.000434809 -0.102519 -1.14998e-07)
(0.000434805 -0.102519 6.9799e-08)
(0.000407816 -0.103215 -1.81524e-07)
(0.000407812 -0.103215 1.37342e-07)
(0.00119122 -0.106518 -3.12558e-06)
(0.000965509 -0.106481 -3.08936e-05)
(0.00111567 -0.107231 -2.97578e-06)
(0.000894278 -0.107184 -3.10495e-05)
(0.000472345 -0.102495 -3.69594e-06)
(0.000936776 -0.102491 -6.03902e-05)
(0.000445018 -0.103188 -3.5494e-06)
(0.000904645 -0.103174 -6.06161e-05)
(-0.00151328 -0.106536 2.22347e-05)
(0.00341184 -0.106559 0.500068)
(-0.00156659 -0.107241 2.15129e-05)
(0.00333002 -0.107289 0.500071)
(0.00201647 -0.102576 8.21408e-05)
(-0.000656646 -0.102448 0.501876)
(0.00196295 -0.103254 8.15162e-05)
(-0.000664173 -0.103159 0.501874)
(0.00360004 -0.10498 -0.500038)
(-0.00139947 -0.105003 -2.35586e-05)
(0.00351106 -0.105789 -0.500041)
(-0.00146141 -0.10579 -2.29135e-05)
(-0.000617162 -0.100914 -0.501874)
(0.00211168 -0.101101 -8.32244e-05)
(-0.000627293 -0.101699 -0.501872)
(0.00205699 -0.101859 -8.26853e-05)
(0.0011174 -0.104951 3.05276e-05)
(0.00135249 -0.104972 3.35468e-06)
(0.00103906 -0.105736 3.06922e-05)
(0.00127011 -0.105766 3.225e-06)
(0.00100364 -0.101007 5.99385e-05)
(0.000530592 -0.100994 3.91732e-06)
(0.000969383 -0.10177 6.0184e-05)
(0.000500883 -0.101764 3.79197e-06)
(0.0013782 -0.104996 1.11699e-08)
(0.00137819 -0.104995 -5.84939e-08)
(0.00129544 -0.105792 -5.34183e-08)
(0.00129543 -0.105792 7.17854e-09)
(0.000492424 -0.101011 1.39195e-08)
(0.00049242 -0.101011 -6.12116e-08)
(0.000463024 -0.101785 -4.98504e-08)
(0.00046302 -0.101785 3.61533e-09)
(0.00135248 -0.104972 -3.39574e-06)
(0.00111716 -0.104951 -3.05639e-05)
(0.00127011 -0.105766 -3.26525e-06)
(0.00103882 -0.105736 -3.07284e-05)
(0.00053057 -0.100994 -3.95835e-06)
(0.00100357 -0.101007 -5.99115e-05)
(0.000500861 -0.101764 -3.83218e-06)
(0.000969313 -0.101769 -6.01566e-05)
(-0.0014008 -0.105003 2.35558e-05)
(0.00359984 -0.10498 0.500037)
(-0.00146273 -0.10579 2.29107e-05)
(0.00351086 -0.105789 0.50004)
(0.00211377 -0.101101 8.3263e-05)
(-0.000616814 -0.100914 0.501873)
(0.00205905 -0.101859 8.27241e-05)
(-0.000626942 -0.101699 0.501872)
(0.00380211 -0.103238 -0.500007)
(-0.00127009 -0.103301 -2.47448e-05)
(0.00370601 -0.10413 -0.50001)
(-0.0013405 -0.104174 -2.41644e-05)
(-0.000572066 -0.0992233 -0.501872)
(0.00221105 -0.0994588 -8.41934e-05)
(-0.000584813 -0.100088 -0.50187)
(0.0021551 -0.100301 -8.37282e-05)
(0.00128328 -0.10325 3.01886e-05)
(0.00152742 -0.103257 3.58907e-06)
(0.00119783 -0.104122 3.03567e-05)
(0.00143822 -0.104136 3.47578e-06)
(0.00107467 -0.0993585 5.94275e-05)
(0.000593589 -0.0993294 4.14205e-06)
(0.0010383 -0.100204 5.96876e-05)
(0.000561498 -0.100183 4.03401e-06)
(0.00155397 -0.103275 1.36705e-07)
(0.00155396 -0.103275 -1.86254e-07)
(0.00146441 -0.104157 7.45305e-08)
(0.0014644 -0.104157 -1.22958e-07)
(0.000554861 -0.0993417 1.37676e-07)
(0.000554857 -0.0993416 -1.87144e-07)
(0.000523053 -0.100197 7.64332e-08)
(0.000523049 -0.100197 -1.24806e-07)
(0.00152742 -0.103257 -3.63177e-06)
(0.00128304 -0.10325 -3.02253e-05)
(0.00143822 -0.104136 -3.51765e-06)
(0.00119759 -0.104122 -3.03932e-05)
(0.000593566 -0.0993293 -4.18474e-06)
(0.0010746 -0.0993584 -5.94013e-05)
(0.000561476 -0.100182 -4.07586e-06)
(0.00103823 -0.100204 -5.9661e-05)
(-0.00127144 -0.103301 2.47416e-05)
(0.0038019 -0.103238 0.500006)
(-0.00134184 -0.104174 2.41614e-05)
(0.00370581 -0.10413 0.500009)
(0.00221323 -0.0994588 8.42316e-05)
(-0.000571709 -0.0992232 0.501871)
(0.00215725 -0.100301 8.37666e-05)
(-0.000584452 -0.100088 0.501869)
(0.00401782 -0.101322 -0.499975)
(-0.00112424 -0.101419 -2.58169e-05)
(0.00391488 -0.102302 -0.499978)
(-0.00120287 -0.102383 -2.52912e-05)
(-0.000521822 -0.0973674 -0.50187)
(0.00231276 -0.0976432 -8.50285e-05)
(-0.000537148 -0.0983163 -0.501867)
(0.00225554 -0.0985731 -8.4628e-05)
(0.00146321 -0.101371 2.98487e-05)
(0.00171579 -0.101365 3.79432e-06)
(0.00137079 -0.102333 3.00165e-05)
(0.00161992 -0.102334 3.69503e-06)
(0.00114982 -0.0975364 5.88928e-05)
(0.000661267 -0.0974941 4.33586e-06)
(0.0011114 -0.0984696 5.91638e-05)
(0.000626852 -0.0984337 4.24269e-06)
(0.0017431 -0.101378 2.57567e-07)
(0.00174309 -0.101378 -3.09403e-07)
(0.0016469 -0.102349 1.9771e-07)
(0.00164689 -0.102349 -2.48395e-07)
(0.000622034 -0.0975016 2.56543e-07)
(0.00062203 -0.0975015 -3.08251e-07)
(0.000587874 -0.0984434 1.97726e-07)
(0.00058787 -0.0984434 -2.48311e-07)
(0.00171577 -0.101365 -3.83875e-06)
(0.00146296 -0.101371 -2.98858e-05)
(0.00161991 -0.102334 -3.73857e-06)