/*--------------------------------*- C++ -*----------------------------------*\
  =========                 |
  \\      /  F ield         | OpenFOAM: The Open Source CFD Toolbox
   \\    /   O peration     | Website:  https://openfoam.org
    \\  /    A nd           | Version:  9
     \\/     M anipulation  |
\*---------------------------------------------------------------------------*/
FoamFile
{
    format      ascii;
    class       volScalarField;
    location    "3.5";
    object      k;
}
// * * * * * * * * * * * * * * * * * * * * * * * * * * * * * * * * * * * * * //

dimensions      [0 2 -2 0 0 0 0];

internalField   nonuniform List<scalar> 
36360
(
1.33568
1.253
1.11182
1.07065
0.528718
0.503865
0.35515
0.400707
1.05906
0.950933
0.886713
0.784837
0.430049
0.387997
0.325035
0.282752
0.902774
0.902719
0.740227
0.740169
0.369679
0.36965
0.265749
0.265721
0.950772
1.05881
0.784668
0.886449
0.387913
0.429915
0.28267
0.324902
1.25269
1.33534
1.07032
1.11145
0.503691
0.528517
0.400531
0.354965
1.55962
1.46865
1.46789
1.37774
0.64664
0.606078
0.601521
0.563335
1.27104
1.16046
1.17952
1.06893
0.529347
0.486953
0.487141
0.444714
1.11078
1.11074
1.01946
1.0194
0.468149
0.468125
0.426007
0.42598
1.16033
1.27084
1.06878
1.17929
0.486882
0.529235
0.444636
0.487017
1.46841
1.55935
1.37746
1.46759
0.605932
0.646473
0.563174
0.601338
1.69209
1.60152
1.63181
1.54096
0.710204
0.668596
0.681281
0.639995
1.40696
1.29841
1.34486
1.23518
0.59242
0.550697
0.563498
0.521403
1.24954
1.24951
1.18582
1.18578
0.532131
0.532112
0.502679
0.502657
1.29831
1.4068
1.23507
1.34468
0.55064
0.59233
0.521339
0.563397
1.60133
1.69188
1.54075
1.63157
0.668478
0.71007
0.639864
0.681133
1.7882
1.69857
1.74339
1.65325
0.756621
0.714955
0.734946
0.693236
1.50715
1.40084
1.46035
1.35297
0.639466
0.598461
0.61743
0.576084
1.35307
1.35304
1.30466
1.30463
0.580262
0.580247
0.557704
0.557686
1.40076
1.50703
1.35288
1.46021
0.598417
0.639395
0.576034
0.61735
1.69842
1.78804
1.65309
1.74321
0.714861
0.756513
0.693131
0.734827
1.86246
1.77388
1.82746
1.73836
0.792712
0.751338
0.775688
0.734142
1.58531
1.48092
1.54847
1.44317
0.676471
0.636083
0.658992
0.618314
1.43414
1.43412
1.39592
1.39589
0.618213
0.618201
0.600286
0.600273
1.48086
1.58523
1.4431
1.54836
0.636048
0.676415
0.618274
0.65893
1.77377
1.86234
1.73823
1.82732
0.751265
0.792627
0.734059
0.775593
1.92139
1.8338
1.89348
1.80541
0.8215
0.780521
0.807858
0.766674
1.64776
1.545
1.61821
1.51468
0.706209
0.666355
0.692112
0.652005
1.49905
1.49903
1.46833
1.46831
0.648765
0.648755
0.634282
0.634272
1.54496
1.64769
1.51462
1.61813
0.666327
0.706165
0.651974
0.692063
1.83372
1.9213
1.80531
1.89337
0.780463
0.821432
0.766609
0.807783
1.96865
1.88191
1.94623
1.85908
0.844692
0.80411
0.833687
0.792904
1.69811
1.59676
1.67425
1.57224
0.730308
0.69093
0.718872
0.679268
1.5515
1.55149
1.52665
1.52664
0.673583
0.673576
0.661803
0.661794
1.59673
1.69806
1.5722
1.6742
0.690908
0.730274
0.679243
0.718833
1.88186
1.96858
1.85901
1.94615
0.804065
0.844642
0.792852
0.833628
2.00652
1.92052
1.98855
1.9022
0.86335
0.823164
0.854502
0.814113
1.73871
1.63859
1.71948
1.61878
0.749845
0.710894
0.740577
0.701424
1.59394
1.59393
1.57384
1.57383
0.693769
0.693763
0.684192
0.684186
1.63857
1.73868
1.61876
1.71944
0.710878
0.74982
0.701405
0.740547
1.92049
2.00648
1.90215
1.9885
0.823135
0.863332
0.814076
0.854468
2.03667
1.95129
2.02236
1.9367
0.878304
0.838474
0.871196
0.831205
1.77125
1.67223
1.75587
1.65634
0.765606
0.72704
0.758142
0.719395
1.6281
1.62809
1.61195
1.61194
0.710109
0.710105
0.70237
0.702365
1.67221
1.77123
1.65632
1.75584
0.727027
0.765585
0.71938
0.75812
1.95126
2.03664
1.93668
2.02235
0.838448
0.878287
0.831183
0.871208
2.06036
1.97545
2.04918
1.96404
0.890172
0.850626
0.88458
0.844881
1.79701
1.69897
1.78489
1.68639
0.778182
0.739967
0.772248
0.733867
1.6553
1.6553
1.64249
1.64249
0.723214
0.72321
0.717029
0.717024
1.69895
1.79698
1.68637
1.78486
0.739956
0.778163
0.733855
0.772227
1.97542
2.06031
1.96401
2.04912
0.850599
0.890129
0.844849
0.88452
2.07853
1.99396
2.06998
1.98527
0.899405
0.860083
0.89505
0.855629
1.81696
1.71981
1.80763
1.71006
0.788036
0.750143
0.783411
0.745367
1.67656
1.67656
1.66662
1.66661
0.733553
0.73355
0.728698
0.728694
1.7198
1.81694
1.71005
1.80761
0.750134
0.78802
0.745357
0.783395
1.99393
2.07849
1.98524
2.06996
0.860057
0.899362
0.855607
0.89503
2.09185
2.00756
2.08569
2.00125
0.90631
0.867192
0.903114
0.863879
1.83189
1.73555
1.82499
1.72827
0.795531
0.757939
0.792047
0.754313
1.69269
1.69269
1.68522
1.68522
0.741501
0.741498
0.737801
0.737798
1.73554
1.83187
1.72826
1.82497
0.75793
0.795516
0.754304
0.792031
2.00753
2.0918
2.00122
2.08562
0.867166
0.906254
0.863849
0.903044
2.10093
2.01685
2.09679
2.01262
0.911175
0.872242
0.908947
0.869924
1.84241
1.74683
1.83764
1.74171
0.800961
0.763652
0.798476
0.761034
1.70433
1.70433
1.69903
1.69903
0.747358
0.747355
0.74467
0.744667
1.74682
1.8424
1.7417
1.83763
0.763644
0.800949
0.761025
0.798463
2.01683
2.10089
2.0126
2.09675
0.872224
0.91114
0.869903
0.908906
2.10615
2.02223
2.10392
2.01992
0.914207
0.875444
0.912872
0.874029
1.84899
1.75414
1.84615
1.75095
0.804551
0.767516
0.802964
0.765798
1.71198
1.71197
1.70862
1.70862
0.751359
0.751356
0.749574
0.749571
1.75413
1.84898
1.75094
1.84613
0.767509
0.80454
0.76579
0.802952
2.02223
2.10616
2.01991
2.1039
0.875431
0.914207
0.874013
0.912849
2.10779
2.02395
2.10737
2.02349
0.915586
0.876923
0.915089
0.876375
1.85195
1.75784
1.85089
1.75641
0.806461
0.769707
0.8057
0.768806
1.71602
1.71602
1.71442
1.71442
0.753686
0.753684
0.752717
0.752715
1.75783
1.85194
1.75641
1.85088
0.769701
0.806451
0.7688
0.80569
2.02396
2.10783
2.02349
2.10738
0.876916
0.915597
0.876367
0.915103
2.10601
2.02233
2.10722
2.02344
0.915387
0.876813
0.915627
0.877005
1.85162
1.75826
1.85214
1.75843
0.806822
0.770364
0.806815
0.770217
1.71679
1.71679
1.71679
1.71679
0.754478
0.754475
0.754265
0.754262
1.75825
1.8516
1.75842
1.85212
0.770355
0.806806
0.77021
0.806803
2.02224
2.10593
2.02339
2.10722
0.876799
0.915397
0.876996
0.915641
2.10167
2.01803
2.1041
2.02049
0.913911
0.875444
0.914785
0.876277
1.84839
1.75573
1.85035
1.75737
0.805858
0.769677
0.806517
0.770189
1.7146
1.7146
1.71608
1.71607
0.753917
0.753914
0.754359
0.754355
1.75572
1.84837
1.75735
1.85033
0.769668
0.805841
0.770179
0.806499
2.01803
2.1017
2.02044
2.10407
0.875422
0.913919
0.876254
0.914794
2.0943
2.01083
2.09816
2.01461
0.911028
0.872629
0.912589
0.874154
1.84233
1.75039
1.84566
1.75338
0.803537
0.767641
0.804839
0.768805
1.7096
1.7096
1.71243
1.71243
0.752001
0.752
0.753108
0.753106
1.75039
1.84232
1.75338
1.84565
0.767639
0.803534
0.7688
0.80483
2.01073
2.09421
2.01459
2.0982
0.87263
0.911053
0.874143
0.912613
2.08465
2.00122
2.08977
2.0063
0.907059
0.868712
0.909181
0.870791
1.83377
1.74247
1.83835
1.74674
0.800045
0.764411
0.801929
0.76617
1.702
1.702
1.70611
1.70612
0.74887
0.74887
0.750583
0.750583
1.74247
1.83377
1.74674
1.83835
0.764411
0.800043
0.766169
0.801929
2.00126
2.08458
2.00624
2.08962
0.868703
0.907024
0.870791
0.909165
2.0721
1.98897
2.0786
1.99528
0.901785
0.863507
0.904557
0.866233
1.82264
1.73203
1.8285
1.73756
0.795355
0.759999
0.797839
0.762348
1.69188
1.69188
1.69725
1.69725
0.744571
0.744572
0.746857
0.746857
1.73204
1.82268
1.73757
1.82852
0.760001
0.795361
0.762349
0.797841
1.98924
2.0724
1.99547
2.0787
0.863536
0.901821
0.866242
0.904546
2.05734
1.97445
2.06496
1.98196
0.895305
0.857097
0.898663
0.860414
1.80906
1.71912
1.81614
1.72587
0.7895
0.754427
0.79256
0.757351
1.6793
1.6793
1.68589
1.68589
0.739133
0.739133
0.741991
0.741991
1.71913
1.80909
1.72588
1.81617
0.754428
0.789506
0.757352
0.792566
1.97445
2.0574
1.98208
2.06518
0.857118
0.895311
0.860434
0.898692
2.03975
1.9573
2.0487
1.96603
0.88766
0.849555
0.891565
0.853419
1.79309
1.70383
1.80133
1.71176
0.782527
0.747732
0.786142
0.751215
1.66433
1.66433
1.67211
1.67211
0.73257
0.732569
0.735988
0.735988
1.70383
1.7931
1.71177
1.80137
0.747731
0.782525
0.751215
0.786146
1.95727
2.03975
1.96604
2.04875
0.849557
0.88768
0.853442
0.891591
2.02001
1.93811
2.03004
1.94787
0.878984
0.840919
0.883455
0.845363
1.77483
1.68619
1.78425
1.6953
0.774443
0.739924
0.778619
0.743964
1.64701
1.647
1.65596
1.65596
0.724893
0.724891
0.728867
0.728866
1.68618
1.77478
1.69529
1.78422
0.739919
0.774431
0.74396
0.778612
1.93783
2.01974
1.94774
2.02997
0.840881
0.878965
0.845338
0.883456
1.99757
1.9163
2.00912
1.92745
0.869071
0.831059
0.874154
0.836109
1.75412
1.66617
1.76476
1.67647
0.765224
0.730996
0.769967
0.735597
1.62732
1.62732
1.63746
1.63745
0.716101
0.716098
0.720633
0.720631
1.66616
1.75408
1.67646
1.76471
0.730989
0.765207
0.735589
0.769951
1.91615
1.99743
1.92725
2.00885
0.83102
0.869048
0.836063
0.874105
1.9728
1.8922
1.98545
1.90454
0.857956
0.819999
0.863642
0.825646
1.73104
1.64379
1.74287
1.65527
0.754868
0.720944
0.760179
0.726107
1.60528
1.60528
1.6166
1.61659
0.706189
0.706186
0.711282
0.71128
1.64378
1.73102
1.65526
1.74284
0.720937
0.754856
0.7261
0.760167
1.8921
1.97261
1.90435
1.98526
0.819984
0.857957
0.825628
0.863651
1.94487
1.86544
1.95897
1.8789
0.84566
0.807768
0.851912
0.813991
1.70553
1.61902
1.71856
1.63169
0.743357
0.709758
0.749251
0.71549
1.58087
1.58086
1.59337
1.59336
0.69515
0.695147
0.700808
0.700805
1.619
1.70548
1.63168
1.71854
0.709748
0.743335
0.715481
0.749235
1.86541
1.94487
1.87894
1.95897
0.807709
0.845594
0.813963
0.851898
1.91493
1.8366
1.93021
1.85132
0.832151
0.794355
0.83903
0.801174
1.67762
1.59186
1.69186
1.60573
0.730691
0.697434
0.737157
0.703734
1.55407
1.55407
1.56777
1.56776
0.682978
0.682976
0.689203
0.689201
1.59185
1.67758
1.60572
1.69181
0.697428
0.730679
0.703726
0.737138
1.83648
1.91477
1.85114
1.93002
0.794327
0.832107
0.801118
0.838959
1.88198
1.80504
1.89874
1.82106
0.817385
0.779726
0.824905
0.787165
1.64727
1.56228
1.66274
1.57737
0.716871
0.683959
0.72392
0.690838
1.52487
1.52487
1.53977
1.53977
0.669658
0.669657
0.67646
0.676458
1.56228
1.64724
1.57736
1.66271
0.683956
0.716863
0.690834
0.72391
1.80497
1.88188
1.82095
1.8986
0.779704
0.817357
0.787137
0.824874
1.84613
1.7708
1.86435
1.78818
0.801291
0.763783
0.809486
0.771894
1.61436
1.53022
1.63112
1.54656
0.701846
0.669308
0.709504
0.676779
1.49321
1.49321
1.50935
1.50934
0.65517
0.655169
0.662558
0.662557
1.53022
1.61436
1.54656
1.63111
0.669305
0.701841
0.676776
0.709499
1.77079
1.84611
1.78816
1.86431
0.763775
0.801277
0.771882
0.809467
1.80737
1.73386
1.82703
1.75258
0.783866
0.746531
0.792719
0.75529
1.57888
1.49565
1.59693
1.51324
0.6856
0.653466
0.693868
0.661532
1.45907
1.45907
1.47644
1.47644
0.639502
0.639501
0.647481
0.64748
1.49565
1.57887
1.51324
1.59692
0.653462
0.685594
0.661529
0.693862
1.73386
1.80737
1.75258
1.82703
0.746522
0.783853
0.755282
0.792707
1.76588
1.69435
1.78689
1.71434
0.765175
0.728025
0.774654
0.737404
1.54087
1.45858
1.56017
1.47742
0.668154
0.63644
0.677019
0.645097
1.42244
1.42244
1.44106
1.44106
0.622654
0.622653
0.631223
0.631222
1.45858
1.54087
1.47742
1.56017
0.636435
0.668147
0.645093
0.677013
1.69434
1.76587
1.71434
1.78688
0.728014
0.765161
0.737394
0.774641
1.7218
1.65235
1.74409
1.67358
0.745275
0.708331
0.755354
0.7183
1.50038
1.41903
1.52092
1.43911
0.649527
0.61823
0.658982
0.62748
1.38332
1.38332
1.40319
1.40319
0.60462
0.604618
0.613783
0.613782
1.41902
1.50037
1.43911
1.52092
0.618225
0.649519
0.627475
0.658974
1.65234
1.72179
1.67357
1.74408
0.708319
0.74526
0.718288
0.75534
1.67519
1.60789
1.69874
1.63035
0.724183
0.687441
0.734859
0.698011
1.45738
1.37694
1.47919
1.3983
0.629709
0.598819
0.639763
0.608674
1.34165
1.34165
1.36281
1.36281
0.585377
0.585375
0.595149
0.595147
1.37693
1.45737
1.39829
1.47918
0.598814
0.6297
0.608668
0.639754
1.60788
1.67518
1.63035
1.69873
0.687428
0.724167
0.697999
0.734844
1.62606
1.5609
1.65088
1.58464
0.70188
0.665335
0.713166
0.676518
1.41179
1.3322
1.43491
1.3549
0.608662
0.578162
0.619337
0.588647
1.29731
1.29731
1.31982
1.31982
0.564877
0.564875
0.575285
0.575284
1.33219
1.41178
1.3549
1.4349
0.578157
0.608653
0.588642
0.619328
1.56089
1.62604
1.58463
1.65087
0.665322
0.701863
0.676505
0.71315
1.57428
1.51123
1.60045
1.53634
0.678298
0.641967
0.690238
0.65379
1.3634
1.2846
1.38795
1.30877
0.586316
0.556177
0.597653
0.56734
1.25007
1.25007
1.27407
1.27407
0.543034
0.543032
0.554128
0.554126
1.28459
1.36339
1.30877
1.38794
0.556171
0.586307
0.567335
0.597644
1.51122
1.57426
1.53633
1.60044
0.641953
0.678281
0.653777
0.690221
1.51949
1.45849
1.54723
1.4852
0.65327
0.617222
0.665963
0.629754
1.31183
1.23374
1.33804
1.25961
0.562522
0.532708
0.574608
0.544639
1.19955
1.19955
1.22525
1.22525
0.519692
0.51969
0.531561
0.531559
1.23373
1.31182
1.2596
1.33803
0.532702
0.562513
0.544633
0.574599
1.45847
1.51948
1.48519
1.54722
0.617208
0.653253
0.62974
0.665946
1.46095
1.40179
1.4907
1.43066
0.626469
0.590867
0.640101
0.604247
1.2562
1.17888
1.2846
1.20687
0.536963
0.507463
0.54999
0.520331
1.1451
1.1451
1.17286
1.17286
0.494596
0.494594
0.507381
0.507379
1.17887
1.25619
1.20686
1.28459
0.507457
0.536954
0.520325
0.549981
1.40178
1.46093
1.43064
1.49068
0.590854
0.626452
0.604233
0.640084
1.39755
1.33835
1.42982
1.37121
0.597505
0.562143
0.612247
0.576893
1.19422
1.11865
1.22625
1.14954
0.508795
0.479901
0.523295
0.494013
1.08594
1.08594
1.11615
1.11614
0.467411
0.467409
0.481279
0.481277
1.11864
1.19421
1.14953
1.22624
0.479895
0.508786
0.494007
0.523286
1.33834
1.39753
1.3712
1.42981
0.56213
0.597489
0.57688
0.612231
1.33146
1.25293
1.36444
1.30084
0.565345
0.524566
0.582204
0.545575
1.11988
1.05173
1.15912
1.086
0.475605
0.449434
0.493054
0.465026
1.02224
1.02224
1.05453
1.05453
0.438162
0.43816
0.452995
0.452993
1.05172
1.11987
1.08599
1.15911
0.449429
0.475597
0.465021
0.493045
1.25292
1.33145
1.30083
1.36443
0.524555
0.565331
0.545562
0.582189
2.0326
1.91433
1.82866
1.73145
1.74654
1.63531
1.53274
1.44792
1.70401
1.57232
1.52126
1.3924
1.42416
1.29719
1.24129
1.11962
1.5095
1.50943
1.33206
1.33199
1.23819
1.23813
1.06408
1.06401
1.57214
1.70375
1.3922
1.52096
1.29701
1.42389
1.11942
1.24099
1.91404
2.03229
1.7311
1.82827
1.63499
1.74618
1.44755
1.53233
2.29997
2.17934
2.18324
2.06208
2.00256
1.88663
1.89347
1.77765
1.97087
1.83969
1.85113
1.71879
1.67455
1.54637
1.56403
1.4353
1.77672
1.77667
1.65541
1.65535
1.48637
1.48632
1.37522
1.37517
1.83957
1.97069
1.71864
1.85091
1.54622
1.67434
1.43514
1.56379
2.17915
2.29976
2.06184
2.18298
1.88638
2.00229
1.77737
1.89316
2.47487
2.35704
2.39483
2.27556
2.16266
2.04861
2.08966
1.97461
2.15521
2.02791
2.07043
1.94114
1.84166
1.71645
1.76508
1.63829
1.96667
1.96664
1.87898
1.87894
1.65773
1.65769
1.57887
1.57882
2.02782
2.15508
1.94103
2.07028
1.71634
1.8415
1.63817
1.7649
2.35691
2.47474
2.27539
2.39465
2.04843
2.16247
1.9744
2.08943
2.60302
2.48804
2.54322
2.42687
2.27912
2.16717
2.2248
2.11183
2.2925
2.16907
2.22838
2.10309
1.96528
1.84319
1.90756
1.78397
2.10964
2.10962
2.04278
2.04276
1.78592
1.7859
1.726
1.72596
2.16901
2.29242
2.10302
2.22827
1.84311
1.96517
1.78388
1.90743
2.48796
2.60294
2.42677
2.54311
2.16705
2.27899
2.11168
2.22464
2.70194
2.58944
2.65533
2.54166
2.36902
2.25896
2.32665
2.2157
2.39933
2.27926
2.34903
2.22737
2.0615
1.94213
2.01618
1.89552
2.22143
2.22141
2.16878
2.16876
1.88616
1.88614
1.83893
1.83891
2.27923
2.39928
2.22733
2.34897
1.94207
2.06142
1.89545
2.01608
2.5894
2.7019
2.5416
2.65527
2.25887
2.36893
2.21559
2.32654
2.78011
2.66971
2.74312
2.63173
2.4402
2.33174
2.40649
2.29728
2.48424
2.36706
2.44412
2.32557
2.13811
2.02109
2.10188
1.98375
2.31059
2.31058
2.26845
2.26844
1.96623
1.96622
1.92837
1.92835
2.36703
2.48422
2.32554
2.44408
2.02105
2.13805
1.98371
2.10181
2.66969
2.7801
2.6317
2.74309
2.33168
2.44013
2.2972
2.40641
2.84242
2.73377
2.81289
2.70342
2.49708
2.38998
2.4701
2.36237
2.55229
2.43758
2.52011
2.40423
2.19966
2.08467
2.17052
2.05457
2.3823
2.38229
2.34838
2.34837
2.03078
2.03077
2.00022
2.00021
2.43757
2.55228
2.40421
2.52009
2.08464
2.19962
2.05454
2.17048
2.73377
2.84242
2.70342
2.81289
2.38994
2.49704
2.36232
2.47005
2.89197
2.78479
2.86849
2.76063
2.54248
2.43653
2.52094
2.41446
2.60678
2.49423
2.58103
2.46746
2.2491
2.13588
2.22571
2.11166
2.43997
2.43997
2.41271
2.41271
2.08283
2.08282
2.0582
2.0582
2.49422
2.60678
2.46745
2.58102
2.13586
2.24907
2.11164
2.22568
2.78481
2.89199
2.76064
2.8685
2.4365
2.54246
2.41443
2.52091
2.93099
2.82506
2.91253
2.80603
2.57842
2.47341
2.56139
2.45595
2.65007
2.53941
2.62967
2.51812
2.28853
2.17689
2.26992
2.15754
2.48606
2.48606
2.46433
2.46433
2.12458
2.12457
2.10487
2.10487
2.53941
2.65008
2.51811
2.62967
2.17687
2.28852
2.15752
2.2699
2.82508
2.93102
2.80605
2.91256
2.4734
2.5784
2.45593
2.56138
2.96112
2.85624
2.94694
2.84158
2.60636
2.50215
2.59318
2.48861
2.68393
2.57495
2.66806
2.55828
2.31955
2.2093
2.30498
2.19407
2.5224
2.5224
2.50535
2.50535
2.15765
2.15765
2.14211
2.1421
2.57496
2.68395
2.55829
2.66807
2.20929
2.31954
2.19406
2.30497
2.85627
2.96116
2.8416
2.94697
2.50215
2.60636
2.4886
2.59317
2.98367
2.87968
2.97314
2.86875
2.62749
2.52394
2.61759
2.51374
2.70975
2.60227
2.69775
2.58956
2.34338
2.23438
2.33227
2.22268
2.55043
2.55044
2.53738
2.53738
2.18333
2.18333
2.17134
2.17134
2.60227
2.70977
2.58956
2.69776
2.23438
2.34337
2.22267
2.33226
2.87971
2.98371
2.86877
2.97318
2.52394
2.62749
2.51374
2.61759
2.9996
2.89636
2.99228
2.8887
2.64269
2.53968
2.63566
2.53241
2.7286
2.62246
2.71996
2.61319
2.36097
2.25312
2.35287
2.24448
2.57128
2.57128
2.56169
2.5617
2.20261
2.20261
2.19371
2.19371
2.62247
2.72861
2.6132
2.71998
2.25312
2.36097
2.24448
2.35287
2.8964
2.99965
2.88873
2.99232
2.53968
2.64269
2.53241
2.63567
3.00976
2.90716
3.00522
2.90234
2.65268
2.55013
2.64817
2.54542
2.74134
2.63643
2.73566
2.63017
2.37311
2.26631
2.36765
2.26036
2.58584
2.58585
2.5793
2.5793
2.2163
2.2163
2.21011
2.21011
2.63644
2.74136
2.63018
2.73567
2.26631
2.37311
2.26036
2.36765
2.90719
3.0098
2.90237
3.00526
2.55014
2.65269
2.54542
2.64817
3.01469
2.91264
3.01272
2.91042
2.65797
2.55581
2.65577
2.55343
2.74863
2.64487
2.74561
2.6413
2.38038
2.27457
2.3773
2.27102
2.59483
2.59483
2.591
2.591
2.22503
2.22503
2.22125
2.22125
2.64488
2.74865
2.64131
2.74563
2.27457
2.38038
2.27102
2.3773
2.91268
3.01473
2.91045
3.01276
2.55581
2.65797
2.55344
2.65577
3.01484
2.91331
3.01521
2.91344
2.65888
2.55708
2.65886
2.55688
2.751
2.64832
2.75038
2.64719
2.38322
2.27836
2.38231
2.27699
2.59881
2.59881
2.59741
2.59742
2.22928
2.22928
2.22769
2.22768
2.64833
2.75102
2.64719
2.7504
2.27836
2.38321
2.27699
2.38231
2.91332
3.01487
2.91347
3.01525
2.55708
2.65889
2.55689
2.65886
3.01059
2.90954
3.01316
2.91188
2.65581
2.55435
2.65774
2.55612
2.7489
2.64726
2.75047
2.64832
2.38203
2.27812
2.38308
2.27871
2.59825
2.59825
2.59906
2.59906
2.22948
2.22948
2.22986
2.22986
2.64727
2.7489
2.64833
2.75048
2.27811
2.382
2.2787
2.38307
2.90956
3.01061
2.91189
3.01316
2.55431
2.65578
2.55611
2.65772
3.00219
2.9016
3.00676
2.90597
2.64886
2.5478
2.65262
2.55138
2.74258
2.64199
2.74622
2.64513
2.37706
2.27413
2.37996
2.27657
2.59348
2.59348
2.59637
2.59637
2.22595
2.22595
2.22818
2.22817
2.642
2.74259
2.64513
2.74622
2.27412
2.37704
2.27656
2.37993
2.90157
3.00215
2.90599
3.00679
2.54766
2.6487
2.55128
2.65255
2.98967
2.88969
2.99627
2.89596
2.63856
2.53791
2.64399
2.54312
2.73242
2.63286
2.73792
2.63788
2.36872
2.2667
2.37326
2.27082
2.58484
2.58484
2.58962
2.58963
2.21896
2.21897
2.22287
2.22287
2.63287
2.73245
2.63789
2.73794
2.26671
2.36873
2.27082
2.37326
2.88983
2.98983
2.89599
2.99624
2.53803
2.63865
2.54311
2.64389
2.97414
2.87466
2.98216
2.8825
2.62552
2.52525
2.63226
2.53186
2.71876
2.62014
2.726
2.62694
2.35727
2.25609
2.36336
2.26178
2.57258
2.57259
2.57915
2.57916
2.20876
2.20876
2.21425
2.21425
2.62016
2.71879
2.62695
2.72604
2.2561
2.35728
2.26179
2.36338
2.87462
2.97409
2.88255
2.98231
2.52517
2.62545
2.53188
2.63237
2.9549
2.856
2.96488
2.86565
2.6091
2.50927
2.61762
2.51754
2.70165
2.60397
2.71061
2.61248
2.34272
2.24238
2.35035
2.24961
2.55687
2.55687
2.56515
2.56516
2.19545
2.19546
2.20248
2.20249
2.60399
2.7017
2.6125
2.71065
2.24239
2.34275
2.24962
2.35038
2.85619
2.95512
2.86572
2.96486
2.50945
2.60931
2.51759
2.6176
2.9325
2.83424
2.94395
2.84543
2.58983
2.49051
2.59969
2.50016
2.68122
2.58446
2.69183
2.59462
2.32517
2.22566
2.33429
2.23439
2.53781
2.53781
2.54775
2.54776
2.17915
2.17915
2.18767
2.18767
2.58448
2.68125
2.59464
2.69187
2.22568
2.32519
2.2344
2.33432
2.83419
2.93245
2.8455
2.94414
2.49045
2.58978
2.50022
2.59987
2.9065
2.809
2.91986
2.82192
2.56724
2.46857
2.57884
2.47979
2.65752
2.56169
2.66976
2.57347
2.30468
2.20603
2.31526
2.2162
2.51549
2.51549
2.52705
2.52706
2.15992
2.15992
2.16989
2.1699
2.56171
2.65756
2.57349
2.66979
2.20604
2.30471
2.21622
2.31529
2.80914
2.90668
2.82197
2.91981
2.46872
2.56737
2.47984
2.57878
2.87737
2.78073
2.89219
2.79517
2.54196
2.44402
2.55481
2.45657
2.63062
2.53571
2.64445
2.5491
2.28133
2.18351
2.29336
2.19513
2.48996
2.48997
2.50313
2.50313
2.13781
2.13781
2.14922
2.14922
2.53572
2.63064
2.54911
2.64448
2.18351
2.28133
2.19513
2.29336
2.78068
2.87731
2.79522
2.89236
2.4439
2.54182
2.45659
2.55492
2.84464
2.74903
2.86138
2.76521
2.51322
2.41621
2.52794
2.43039
2.60048
2.50653
2.61594
2.52152
2.25504
2.1581
2.26853
2.17116
2.46125
2.46125
2.476
2.47601
2.11282
2.11282
2.12567
2.12567
2.50654
2.60051
2.52153
2.61596
2.1581
2.25504
2.17116
2.26853
2.74917
2.84479
2.76523
2.86132
2.41631
2.51328
2.43036
2.52779
2.80864
2.71422
2.82693
2.73194
2.48168
2.38572
2.49771
2.40126
2.56712
2.47414
2.58419
2.49073
2.22585
2.1298
2.2408
2.14431
2.42933
2.42933
2.44569
2.44569
2.08496
2.08496
2.09925
2.09925
2.47415
2.56714
2.49075
2.58422
2.1298
2.22585
2.14431
2.2408
2.7142
2.80864
2.73201
2.8271
2.38564
2.48161
2.40128
2.49779
2.76899
2.67593
2.7892
2.69541
2.44656
2.35193
2.46443
2.36909
2.53049
2.43852
2.54919
2.45673
2.19369
2.09859
2.21012
2.11455
2.3942
2.3942
2.41217
2.41217
2.0542
2.0542
2.06994
2.06994
2.43853
2.53053
2.45674
2.54922
2.09858
2.19369
2.11455
2.21011
2.67608
2.76913
2.69544
2.78915
2.35202
2.44663
2.36908
2.46435
2.72603
2.63455
2.74778
2.65554
2.40867
2.31547
2.42789
2.33399
2.49061
2.39965
2.51094
2.41949
2.15862
2.06446
2.17651
2.08189
2.35583
2.35583
2.37542
2.37543
2.02053
2.02053
2.03773
2.03773
2.39966
2.49065
2.4195
2.51098
2.06446
2.15861
2.08188
2.1765
2.63461
2.72615
2.65567
2.74799
2.31541
2.40863
2.33402
2.42797
2.67957
2.58974
2.70315
2.61248
2.36738
2.27586
2.38831
2.29591
2.4474
2.35748
2.46941
2.37898
2.12056
2.02737
2.13994
2.04628
2.31417
2.31417
2.33541
2.33542
1.98392
1.98392
2.0026
2.0026
2.35749
2.44743
2.37899
2.46944
2.02737
2.12056
2.04628
2.13994
2.58979
2.67964
2.61253
2.70321
2.27589
2.36739
2.29588
2.38822
2.62936
2.54136
2.65485
2.56591
2.32291
2.23317
2.34548
2.25484
2.40075
2.31193
2.4245
2.33513
2.07942
1.98725
2.10037
2.00769
2.26916
2.26916
2.29208
2.29209
1.94429
1.94429
1.96448
1.96448
2.31194
2.40078
2.33514
2.42452
1.98725
2.07943
2.00769
2.10037
2.5414
2.6294
2.56595
2.6549
2.23319
2.32293
2.25486
2.34552
2.57537
2.48943
2.60272
2.51575
2.27483
2.18712
2.29921
2.21046
2.35064
2.26296
2.37611
2.28787
2.03513
1.94405
2.05765
1.96603
2.22075
2.22075
2.24538
2.24538
1.90162
1.90162
1.92334
1.92334
2.26297
2.35066
2.28788
2.37614
1.94406
2.03513
1.96604
2.05766
2.48947
2.57542
2.51579
2.60277
2.18713
2.27484
2.21047
2.29922
2.51782
2.43405
2.54693
2.46208
2.2234
2.13791
2.24942
2.16281
2.29708
2.21057
2.32428
2.23719
1.98772
1.89778
2.01179
1.92129
2.16892
2.16892
2.19526
2.19527
1.85589
1.85589
1.87914
1.87914
2.21058
2.2971
2.2372
2.3243
1.89778
1.98773
1.9213
2.0118
2.43409
2.51786
2.46212
2.54698
2.13792
2.22342
2.16282
2.24943
2.4568
2.37529
2.48765
2.40501
2.16884
2.08565
2.19641
2.11207
2.24009
2.15469
2.26901
2.18307
1.93724
1.8484
1.96285
1.87348
2.11359
2.11359
2.14169
2.1417
1.80705
1.80705
1.83185
1.83185
2.1547
2.2401
2.18308
2.26902
1.8484
1.93724
1.87348
1.96286
2.37532
2.45684
2.40504
2.48769
2.08566
2.16886
2.11208
2.19643
2.39235
2.3131
2.42492
2.34455
2.11121
2.03034
2.14032
2.05829
2.17956
2.09523
2.21026
2.12542
1.88363
1.79585
1.91082
1.82253
2.05465
2.05465
2.08458
2.08458
1.75501
1.75501
1.78143
1.78143
2.09524
2.17958
2.12543
2.21028
1.79585
1.88363
1.82253
1.91082
2.31313
2.39239
2.34458
2.42495
2.03035
2.11122
2.0583
2.14033
2.32442
2.24737
2.35874
2.28061
2.05046
1.97189
2.08114
2.00143
2.11534
2.03197
2.14792
2.06409
1.82675
1.73996
1.8556
1.76834
1.99186
1.99186
2.02375
2.02375
1.69958
1.69958
1.72773
1.72773
2.03198
2.11535
2.0641
2.14793
1.73996
1.82675
1.76833
1.8556
2.2474
2.32445
2.28064
2.35878
1.9719
2.05047
2.00144
2.08115
2.25279
2.17783
2.289
2.21302
1.98643
1.91007
2.01879
1.94134
2.04708
1.96456
2.08173
1.99881
1.76631
1.6804
1.79699
1.71066
1.92486
1.92487
1.95892
1.95892
1.64046
1.64046
1.67051
1.67051
1.96457
2.0471
1.99882
2.08174
1.6804
1.76631
1.71066
1.79699
2.17786
2.25282
2.21305
2.28903
1.91008
1.98644
1.94135
2.01879
2.17699
2.10394
2.21537
2.1414
1.91868
1.84437
1.95298
1.87767
1.9742
1.89239
2.01126
1.92911
1.70177
1.61665
1.73459
1.64909
1.85307
1.85307
1.88961
1.88961
1.5771
1.5771
1.60935
1.60935
1.89239
1.97421
1.92912
2.01127
1.61664
1.70177
1.64909
1.73459
2.10396
2.17702
2.14142
2.2154
1.84438
1.91869
1.87767
1.95298
2.09615
2.02457
2.13719
2.06497
1.8463
1.77367
1.88307
1.80968
1.89553
1.81448
1.93568
1.85423
1.63201
1.54775
1.66764
1.58291
1.77565
1.77565
1.81511
1.81512
1.50872
1.50872
1.54359
1.54359
1.81449
1.89554
1.85423
1.93569
1.54774
1.632
1.58291
1.66764
2.02459
2.09618
2.06499
2.13721
1.77367
1.8463
1.80968
1.88307
2.00928
1.93669
2.05338
1.98198
1.76789
1.69464
1.80782
1.73552
1.80859
1.72942
1.85333
1.77294
1.55438
1.4722
1.59443
1.51091
1.69181
1.69181
1.73454
1.73455
1.43446
1.43446
1.47235
1.47235
1.72943
1.8086
1.77294
1.85334
1.4722
1.55438
1.5109
1.59443
1.93672
2.00932
1.982
2.05341
1.69465
1.7679
1.73552
1.80783
1.91905
1.82602
1.96422
1.88644
1.68475
1.59152
1.72665
1.64854
1.70816
1.63652
1.76045
1.68384
1.46303
1.389
1.51087
1.43147
1.60232
1.60232
1.64757
1.64757
1.35485
1.35485
1.39514
1.39514
1.63653
1.70817
1.68384
1.76046
1.38899
1.46303
1.43146
1.51087
1.82605
1.91909
1.88646
1.96425
1.59153
1.68476
1.64855
1.72665
2.44557
2.32914
2.25584
2.15574
2.25815
2.13968
2.0622
1.96194
2.13306
2.00591
1.9554
1.82752
1.9358
1.80526
1.75543
1.62563
1.94373
1.94368
1.76595
1.76589
1.74201
1.74195
1.56382
1.56375
2.00577
2.13287
1.82735
1.95516
1.8051
1.93557
1.62544
1.75515
2.32896
2.44538
2.15548
2.25555
2.13943
2.25789
1.96162
2.06185
2.71742
2.60137
2.59535
2.47799
2.52927
2.41008
2.40892
2.28874
2.41042
2.28635
2.28347
2.15735
2.21004
2.08149
2.08554
1.95532
2.22543
2.2254
2.09553
2.09549
2.01888
2.01884
1.89202
1.89197
2.28627
2.41032
2.15724
2.28333
2.08139
2.20989
1.95518
2.08536
2.6013
2.71735
2.47786
2.59522
2.40994
2.52912
2.28854
2.40873
2.90682
2.79452
2.81942
2.70526
2.71305
2.59725
2.62858
2.51107
2.61173
2.49265
2.51848
2.3969
2.4048
2.28081
2.31489
2.1886
2.43406
2.43405
2.33713
2.3371
2.22029
2.22026
2.127
2.12696
2.49261
2.61169
2.39684
2.51841
2.28074
2.40471
2.18851
2.31477
2.79451
2.90683
2.70521
2.81939
2.59718
2.71298
2.51096
2.62847
3.04826
2.93954
2.98212
2.87169
2.84897
2.73648
2.78548
2.67141
2.7642
2.64982
2.69285
2.57622
2.55106
2.43146
2.48269
2.36099
2.59349
2.59349
2.5188
2.51879
2.37302
2.373
2.30154
2.30152
2.64981
2.7642
2.57619
2.69283
2.43142
2.55102
2.36093
2.48262
2.93957
3.04832
2.8717
2.98214
2.73645
2.84895
2.67135
2.78543
3.15797
3.05231
3.10629
2.99919
2.95408
2.84444
2.90456
2.79358
2.88334
2.77301
2.82725
2.715
2.66506
2.54924
2.61139
2.49378
2.71864
2.71864
2.65969
2.65969
2.49261
2.4926
2.43628
2.43627
2.77302
2.88337
2.71499
2.82726
2.54922
2.66504
2.49375
2.61136
3.05238
3.15805
2.99923
3.10635
2.84445
2.9541
2.79357
2.90456
3.24461
3.14155
3.20365
3.09937
3.03708
2.92985
2.99782
2.88946
2.97798
2.87109
2.9333
2.82478
2.75559
2.643
2.71283
2.59871
2.81839
2.8184
2.77128
2.77128
2.58793
2.58793
2.5429
2.54289
2.87111
2.97802
2.82479
2.93333
2.643
2.7556
2.5987
2.71283
3.14163
3.24472
3.09944
3.20374
2.92987
3.03712
2.88947
2.99785
3.31346
3.21256
3.28089
3.17898
3.10311
2.99789
3.07185
2.96568
3.05361
2.94968
3.01789
2.91256
2.82802
2.71821
2.79379
2.68266
2.89841
2.89841
2.8606
2.86061
2.66447
2.66447
2.62828
2.62828
2.9497
3.05367
2.91258
3.01794
2.71821
2.82804
2.68266
2.7938
3.21266
3.31358
3.17906
3.28099
2.99793
3.10316
2.96571
3.07189
3.36796
3.26889
3.3422
3.24228
3.15548
3.05195
3.13069
3.02638
3.11392
3.01253
3.08547
2.98287
2.88588
2.77846
2.85856
2.75001
2.96249
2.9625
2.93225
2.93226
2.72588
2.72588
2.69688
2.69688
3.01256
3.11397
2.9829
3.08553
2.77847
2.88591
2.75002
2.85858
3.26899
3.36808
3.24237
3.34231
3.052
3.15554
3.02642
3.13075
3.41059
3.31307
3.3905
3.29226
3.19656
3.09447
3.17716
3.07441
3.16154
3.06236
3.13915
3.03893
2.93169
2.82637
2.91013
2.80382
3.01341
3.01342
2.98946
2.98947
2.7748
2.77481
2.75176
2.75177
3.0624
3.1616
3.03896
3.13921
2.82639
2.93173
2.80383
2.91016
3.31317
3.41071
3.29235
3.39061
3.09452
3.19663
3.07446
3.17723
3.44319
3.34698
3.42792
3.3311
3.22811
3.12723
3.2133
3.11186
3.19848
3.10125
3.18122
3.08307
2.96737
2.8639
2.95067
2.84632
3.05325
3.05326
3.03461
3.03462
2.81322
2.81323
2.79522
2.79523
3.10128
3.19854
3.0831
3.18128
2.86392
2.9674
2.84634
2.9507
3.34708
3.44331
3.33119
3.42804
3.12729
3.22819
3.11191
3.21337
3.46721
3.37211
3.45607
3.36046
3.25152
3.15167
3.24063
3.14031
3.22628
3.13078
3.21342
3.1171
2.99438
2.89255
2.98185
2.87925
3.08361
3.08362
3.06953
3.06954
2.84267
2.84268
2.82898
2.82899
3.13081
3.22635
3.11713
3.21348
2.89257
2.99442
2.87926
2.98189
3.37221
3.46733
3.36055
3.45619
3.15173
3.2516
3.14036
3.2407
3.48375
3.3896
3.47624
3.38165
3.26783
3.16886
3.26038
3.161
3.24617
3.15221
3.23713
3.14244
3.01389
2.91353
3.00499
2.90393
3.1058
3.10581
3.09566
3.09567
2.86437
2.86438
2.85442
2.85443
3.15224
3.24623
3.14247
3.23719
2.91356
3.01393
2.90395
3.00502
3.3897
3.48387
3.38174
3.47635
3.16892
3.26791
3.16106
3.26046
3.49375
3.40042
3.48939
3.39569
3.27794
3.17972
3.27348
3.17492
3.25913
3.16655
3.25344
3.16021
3.02683
2.92781
3.0211
2.92145
3.12082