/*--------------------------------*- C++ -*----------------------------------*\
  =========                 |
  \\      /  F ield         | OpenFOAM: The Open Source CFD Toolbox
   \\    /   O peration     | Website:  https://openfoam.org
    \\  /    A nd           | Version:  9
     \\/     M anipulation  |
\*---------------------------------------------------------------------------*/
FoamFile
{
    format      ascii;
    class       volScalarField;
    location    "3.5";
    object      p;
}
// * * * * * * * * * * * * * * * * * * * * * * * * * * * * * * * * * * * * * //

dimensions      [0 2 -2 0 0 0 0];

internalField   nonuniform List<scalar> 
36360
(
20.226
20.0092
20.2117
20.0199
20.0183
20.1679
20.0346
20.1402
20.0853
20.0987
20.0906
20.1047
20.1054
20.0947
20.0969
20.0924
20.1004
20.1004
20.1062
20.1062
20.0938
20.0938
20.0925
20.0925
20.0987
20.0853
20.1047
20.0906
20.0947
20.1054
20.0924
20.0969
20.0093
20.2259
20.0199
20.2116
20.1679
20.0184
20.1402
20.0346
20.1217
20.0747
20.1611
20.054
19.9331
20.2342
19.9751
20.208
20.1086
20.1002
20.0981
20.0985
20.1335
20.0996
20.1202
20.0972
20.0961
20.0961
20.0975
20.0975
20.0937
20.0937
20.094
20.094
20.1002
20.1086
20.0985
20.0981
20.0996
20.1335
20.0972
20.1202
20.0747
20.1217
20.0541
20.1611
20.2342
19.9332
20.2079
19.9752
20.0763
20.0894
20.096
20.0847
19.8765
20.2606
19.9012
20.2506
20.1269
20.1077
20.1184
20.1036
20.1558
20.1075
20.1455
20.1032
20.097
20.097
20.0961
20.0961
20.0952
20.0952
20.0941
20.0941
20.1077
20.1269
20.1036
20.1184
20.1075
20.1557
20.1032
20.1455
20.0894
20.0763
20.0847
20.096
20.2606
19.8765
20.2506
19.9012
20.0487
20.0909
20.0608
20.091
19.8415
20.2696
19.8571
20.2664
20.1391
20.116
20.1338
20.112
20.1704
20.1163
20.164
20.1119
20.1007
20.1007
20.0986
20.0986
20.099
20.099
20.0969
20.0969
20.116
20.1391
20.112
20.1338
20.1163
20.1704
20.1119
20.1639
20.0909
20.0487
20.091
20.0609
20.2696
19.8416
20.2664
19.8571
20.0309
20.0881
20.0389
20.0898
19.8185
20.2719
19.8289
20.2712
20.146
20.1231
20.143
20.1197
20.1791
20.124
20.1753
20.1203
20.1055
20.1055
20.103
20.103
20.1038
20.1038
20.1013
20.1013
20.1231
20.146
20.1197
20.143
20.124
20.1791
20.1203
20.1753
20.0881
20.0309
20.0898
20.0389
20.2719
19.8185
20.2712
19.829
20.0187
20.0843
20.0243
20.0863
19.8024
20.2717
19.8098
20.2719
20.1497
20.1286
20.1482
20.126
20.1841
20.1301
20.1819
20.1272
20.1105
20.1105
20.1081
20.1081
20.1087
20.1087
20.1063
20.1063
20.1286
20.1497
20.126
20.1482
20.1301
20.1841
20.1272
20.1819
20.0843
20.0187
20.0863
20.0243
20.2716
19.8025
20.2719
19.8098
20.0098
20.0805
20.0139
20.0824
19.7908
20.2705
19.7961
20.2712
20.1515
20.1329
20.1508
20.1309
20.187
20.1347
20.1858
20.1326
20.1149
20.1149
20.1128
20.1128
20.1131
20.1131
20.111
20.111
20.1329
20.1515
20.1309
20.1507
20.1347
20.187
20.1326
20.1858
20.0805
20.0099
20.0824
20.0139
20.2705
19.7907
20.2711
19.7962
20.0031
20.077
20.0063
20.0787
19.782
20.269
19.7861
20.2698
20.1522
20.1359
20.1519
20.1345
20.1887
20.138
20.188
20.1365
20.1184
20.1184
20.1168
20.1168
20.1168
20.1169
20.1151
20.1151
20.1359
20.1522
20.1345
20.1519
20.138
20.1887
20.1365
20.188
20.077
20.0031
20.0787
20.0063
20.2691
19.7818
20.2698
19.786
19.9979
20.0739
20.0003
20.0754
19.7742
20.2678
19.778
20.2684
20.1523
20.138
20.1523
20.137
20.1897
20.1404
20.1893
20.1393
20.1212
20.1211
20.1199
20.1199
20.1197
20.1197
20.1184
20.1184
20.138
20.1523
20.137
20.1523
20.1404
20.1896
20.1393
20.1893
20.0739
19.9979
20.0754
20.0003
20.2676
19.7748
20.2683
19.7781
19.9935
20.071
19.9956
20.0724
19.7697
20.2659
19.7719
20.2668
20.1519
20.1392
20.1522
20.1387
20.1898
20.1418
20.1898
20.1412
20.123
20.123
20.1222
20.1222
20.1218
20.1218
20.1208
20.1208
20.1392
20.1519
20.1387
20.1522
20.1418
20.1898
20.1412
20.1899
20.071
19.9936
20.0725
19.9957
20.2659
19.7696
20.267
19.7716
19.9899
20.0684
19.9917
20.0697
19.7655
20.2641
19.7675
20.265
20.1511
20.1397
20.1516
20.1395
20.1896
20.1426
20.1897
20.1423
20.1241
20.1241
20.1237
20.1237
20.123
20.123
20.1225
20.1225
20.1397
20.1511
20.1395
20.1516
20.1425
20.1895
20.1422
20.1897
20.0684
19.9899
20.0697
19.9917
20.2641
19.7657
20.2649
19.7678
19.9867
20.066
19.9882
20.0672
19.7613
20.2625
19.7635
20.2633
20.1501
20.1398
20.1507
20.1398
20.189
20.1428
20.1893
20.1427
20.1246
20.1246
20.1244
20.1244
20.1237
20.1237
20.1234
20.1234
20.1397
20.1501
20.1398
20.1507
20.1427
20.1889
20.1427
20.1893
20.066
19.9868
20.0672
19.9883
20.2623
19.7619
20.2632
19.7639
19.9838
20.0636
19.9853
20.0648
19.7583
20.2604
19.7592
20.2617
20.1488
20.1392
20.1495
20.1396
20.1879
20.1424
20.1886
20.1427
20.1244
20.1244
20.1246
20.1246
20.1237
20.1237
20.1238
20.1237
20.1392
20.1488
20.1396
20.1495
20.1424
20.188
20.1426
20.1885
20.0637
19.9839
20.0648
19.9853
20.2606
19.758
20.2615
19.7598
19.9812
20.0613
19.9825
20.0624
19.7557
20.2583
19.7573
20.2592
20.1472
20.1382
20.148
20.1388
20.1864
20.1414
20.1872
20.1419
20.1237
20.1237
20.1241
20.1241
20.123
20.123
20.1234
20.1234
20.1382
20.1472
20.1388
20.1481
20.1414
20.1864
20.1419
20.1873
20.0613
19.9812
20.0625
19.9825
20.2582
19.7558
20.2595
19.7568
19.9787
20.0589
19.9799
20.0602
19.7539
20.2556
19.7547
20.257
20.1452
20.1367
20.1463
20.1375
20.1845
20.1399
20.1855
20.1407
20.1224
20.1224
20.1231
20.1231
20.1218
20.1218
20.1225
20.1225
20.1367
20.1453
20.1375
20.1463
20.1399
20.1845
20.1407
20.1855
20.0589
19.9786
20.0601
19.9799
20.2556
19.7537
20.2569
19.7549
19.9761
20.0565
19.9773
20.0577
19.7522
20.2527
19.753
20.2542
20.1431
20.1348
20.1442
20.1358
20.1822
20.138
20.1834
20.139
20.1207
20.1207
20.1216
20.1216
20.1201
20.1201
20.121
20.121
20.1348
20.1432
20.1358
20.1442
20.1381
20.1823
20.139
20.1835
20.0567
19.976
20.0578
19.9773
20.2529
19.7512
20.2543
19.7525
19.9736
20.0541
19.9749
20.0553
19.7498
20.2498
19.7508
20.2514
20.1407
20.1325
20.1419
20.1337
20.1796
20.1356
20.1809
20.1369
20.1185
20.1185
20.1197
20.1197
20.1178
20.1179
20.119
20.119
20.1325
20.1407
20.1337
20.142
20.1356
20.1796
20.1369
20.181
20.0541
19.9735
20.0554
19.9747
20.2498
19.7496
20.2513
19.7504
19.971
20.0514
19.9724
20.0527
19.7479
20.2464
19.749
20.2481
20.138
20.1299
20.1394
20.1312
20.1765
20.1328
20.1781
20.1342
20.116
20.116
20.1173
20.1173
20.1151
20.1151
20.1165
20.1165
20.1299
20.138
20.1312
20.1394
20.1327
20.1764
20.1342
20.178
20.0513
19.9712
20.0527
19.9723
20.2461
19.7487
20.248
19.7491
19.9685
20.0488
19.9697
20.0501
19.746
20.2428
19.7467
20.2448
20.1352
20.127
20.1366
20.1285
20.1731
20.1296
20.1749
20.1313
20.1131
20.1131
20.1146
20.1146
20.112
20.112
20.1136
20.1136
20.127
20.1353
20.1285
20.1367
20.1296
20.1731
20.1312
20.1748
20.049
19.9683
20.0502
19.9697
20.2429
19.7459
20.2446
19.7473
19.9657
20.0462
19.967
20.0475
19.7442
20.2388
19.7453
20.2407
20.1322
20.1238
20.1337
20.1254
20.1693
20.126
20.1712
20.1278
20.1099
20.1099
20.1116
20.1116
20.1084
20.1085
20.1102
20.1103
20.1238
20.1323
20.1255
20.1338
20.126
20.1695
20.1278
20.1713
20.0463
19.9657
20.0477
19.9669
20.2391
19.7437
20.2409
19.7449
19.9631
20.0435
19.9644
20.0448
19.7426
20.2347
19.7435
20.2368
20.1292
20.1201
20.1307
20.122
20.1653
20.122
20.1673
20.124
20.1064
20.1065
20.1082
20.1082
20.1046
20.1046
20.1065
20.1066
20.1202
20.1292
20.122
20.1308
20.122
20.1653
20.124
20.1674
20.0435
19.9632
20.0448
19.9644
20.2347
19.7424
20.2369
19.7432
19.9606
20.041
19.9618
20.0423
19.7405
20.2306
19.7416
20.2326
20.1261
20.1165
20.1276
20.1183
20.161
20.1178
20.1632
20.1199
20.1028
20.1028
20.1047
20.1047
20.1004
20.1004
20.1025
20.1025
20.1165
20.1261
20.1183
20.1277
20.1178
20.161
20.1199
20.1632
20.041
19.9606
20.0423
19.9618
20.2304
19.7407
20.2327
19.7411
19.9583
20.0384
19.9595
20.0396
19.7393
20.226
19.7398
20.2283
20.123
20.1128
20.1245
20.1146
20.1565
20.1133
20.1588
20.1156
20.0991
20.0991
20.101
20.101
20.096
20.096
20.0982
20.0982
20.1127
20.1229
20.1146
20.1245
20.1133
20.1564
20.1155
20.1587
20.0384
19.9583
20.0396
19.9595
20.2257
19.7399
20.2281
19.7402
19.9559
20.0361
19.9569
20.0373
19.7385
20.2214
19.739
20.2237
20.1201
20.1091
20.1215
20.1109
20.1519
20.1087
20.1542
20.111
20.0955
20.0954
20.0973
20.0973
20.0915
20.0915
20.0937
20.0937
20.1091
20.12
20.1109
20.1215
20.1087
20.152
20.111
20.1542
20.036
19.9562
20.0372
19.9572
20.2215
19.7384
20.2235
19.7393
19.9542
20.034
19.9549
20.0351
19.7371
20.2172
19.7377
20.2193
20.1175
20.1056
20.1188
20.1074
20.1475
20.1042
20.1497
20.1065
20.0919
20.0919
20.0937
20.0937
20.0869
20.0869
20.0892
20.0892
20.1057
20.1175
20.1074
20.1188
20.1042
20.1475
20.1065
20.1497
20.0342
19.9541
20.0351
19.9551
20.2171
19.7373
20.2192
19.7379
19.9528
20.0323
19.9535
20.0331
19.7366
20.2128
19.7366
20.215
20.1145
20.1024
20.1161
20.104
20.143
20.0997
20.1453
20.1019
20.0886
20.0886
20.0902
20.0902
20.0825
20.0825
20.0847
20.0847
20.1024
20.1146
20.104
20.1162
20.0997
20.143
20.1019
20.1452
20.0325
19.9527
20.0333
19.9533
20.2127
19.7372
20.2149
19.7371
19.9518
20.0313
19.9521
20.0318
19.7368
20.2089
19.7367
20.2108
20.1117
20.0994
20.1131
20.1009
20.1386
20.0954
20.1408
20.0975
20.0856
20.0856
20.0871
20.0871
20.0783
20.0783
20.0804
20.0803
20.0994
20.1117
20.1008
20.1131
20.0953
20.1386
20.0975
20.1407
20.0312
19.9519
20.0318
19.9522
20.2088
19.7372
20.2107
19.7372
19.9517
20.0306
19.9517
20.0309
19.7376
20.2052
19.7371
20.207
20.1095
20.0969
20.1106
20.0981
20.1346
20.0913
20.1366
20.0933
20.0831
20.0831
20.0843
20.0843
20.0744
20.0744
20.0763
20.0763
20.0969
20.1095
20.0981
20.1106
20.0913
20.1346
20.0933
20.1366
20.0306
19.9518
20.0309
19.9517
20.2052
19.7377
20.207
19.7373
19.9523
20.0307
19.9519
20.0306
19.7393
20.202
19.7384
20.2035
20.108
20.0949
20.1087
20.0958
20.131
20.0878
20.1327
20.0895
20.0812
20.0812
20.0821
20.0821
20.071
20.071
20.0726
20.0726
20.0949
20.108
20.0958
20.1087
20.0878
20.131
20.0895
20.1328
20.0308
19.9523
20.0306
19.9519
20.202
19.7394
20.2035
19.7384
19.9537
20.0316
19.9528
20.0311
19.742
20.1992
19.7406
20.2005
20.1071
20.0936
20.1074
20.0942
20.1279
20.0848
20.1294
20.0862
20.0799
20.0799
20.0805
20.0805
20.0682
20.0682
20.0695
20.0695
20.0936
20.1071
20.0942
20.1075
20.0848
20.1279
20.0862
20.1294
20.0316
19.9537
20.0311
19.9529
20.1992
19.7421
20.2005
19.7406
19.9561
20.0333
19.9548
20.0324
19.7459
20.1972
19.7438
20.1981
20.1069
20.093
20.1069
20.0932
20.1254
20.0824
20.1266
20.0835
20.0795
20.0795
20.0796
20.0796
20.0662
20.0662
20.0671
20.0671
20.093
20.1069
20.0932
20.1069
20.0824
20.1254
20.0835
20.1266
20.0333
19.9561
20.0324
19.9548
20.1972
19.7459
20.1981
19.7438
19.9596
20.0358
19.9577
20.0345
19.7511
20.1958
19.7483
20.1964
20.1074
20.0931
20.107
20.0929
20.1235
20.0808
20.1244
20.0815
20.0799
20.0799
20.0796
20.0796
20.0651
20.0651
20.0656
20.0656
20.0931
20.1074
20.0929
20.107
20.0808
20.1235
20.0815
20.1244
20.0358
19.9596
20.0345
19.9577
20.1958
19.7511
20.1964
19.7483
19.9642
20.0391
19.9617
20.0374
19.7577
20.1951
19.7542
20.1953
20.1085
20.094
20.1079
20.0934
20.1224
20.0802
20.1229
20.0804
20.0812
20.0812
20.0804
20.0804
20.065
20.065
20.065
20.065
20.094
20.1085
20.0934
20.1079
20.0801
20.1224
20.0804
20.1229
20.0391
19.9642
20.0374
19.9617
20.1951
19.7577
20.1953
19.7542
19.9701
20.0432
19.967
20.0411
19.7659
20.1951
19.7616
20.195
20.1103
20.0958
20.1094
20.0948
20.1219
20.0804
20.122
20.0802
20.0835
20.0835
20.0823
20.0823
20.0661
20.0661
20.0654
20.0654
20.0958
20.1103
20.0948
20.1094
20.0804
20.1219
20.0802
20.122
20.0432
19.9701
20.0411
19.967
20.195
19.7659
20.195
19.7616
19.9773
20.048
19.9735
20.0456
19.7761
20.1956
19.7707
20.1953
20.1127
20.0983
20.1115
20.097
20.1221
20.0817
20.1219
20.0809
20.0869
20.0869
20.0851
20.0851
20.0684
20.0684
20.0671
20.0671
20.0983
20.1127
20.097
20.1115
20.0817
20.1221
20.0809
20.1219
20.048
19.9773
20.0455
19.9735
20.1956
19.7761
20.1953
19.7708
19.986
20.0533
19.9815
20.0506
19.7885
20.1964
19.782
20.196
20.1155
20.1017
20.1141
20.0999
20.1229
20.084
20.1225
20.0827
20.0912
20.0912
20.0889
20.0889
20.0719
20.0719
20.0699
20.0699
20.1017
20.1155
20.0999
20.1141
20.084
20.1229
20.0827
20.1224
20.0533
19.9859
20.0506
19.9815
20.1964
19.7885
20.196
19.782
19.9958
20.059
19.9907
20.0561
19.8038
20.1969
19.7957
20.1968
20.1186
20.1058
20.117
20.1037
20.1241
20.0875
20.1235
20.0856
20.0965
20.0965
20.0937
20.0937
20.0766
20.0766
20.0741
20.0741
20.1058
20.1186
20.1037
20.117
20.0875
20.1241
20.0856
20.1235
20.059
19.9958
20.0561
19.9907
20.1969
19.8038
20.1968
19.7957
20.0045
20.0666
20.0007
20.0623
19.8231
20.1958
19.8129
20.1967
20.122
20.1108
20.1202
20.1082
20.1255
20.092
20.1248
20.0896
20.1027
20.1027
20.0995
20.0995
20.0826
20.0826
20.0794
20.0794
20.1108
20.122
20.1082
20.1202
20.092
20.1255
20.0896
20.1248
20.0666
20.0045
20.0623
20.0007
20.1958
19.8231
20.1967
19.8129
20.0117
20.0756
20.0063
20.0728
19.8474
20.1908
19.8345
20.194
20.1272
20.117
20.1244
20.1137
20.1277
20.0979
20.1265
20.0948
20.11
20.11
20.1063
20.1063
20.0898
20.0898
20.0861
20.0861
20.117
20.1272
20.1137
20.1244
20.0979
20.1277
20.0948
20.1265
20.0756
20.0117
20.0728
20.0063
20.1908
19.8474
20.194
19.8345
20.3713
19.9622
20.2875
19.9928
20.3353
19.954
20.2687
19.9859
20.0144
20.0726
20.0443
20.0865
20.036
20.0859
20.0573
20.0942
20.0973
20.0973
20.1019
20.1019
20.0995
20.0995
20.102
20.102
20.0727
20.0144
20.0865
20.0443
20.0859
20.036
20.0942
20.0573
19.9622
20.3712
19.9928
20.2874
19.954
20.3352
19.986
20.2687
20.2615
20.045
20.2978
20.0235
20.2334
20.0263
20.2692
20.0066
20.0444
20.0726
20.0333
20.0724
20.0632
20.0867
20.0527
20.0858
20.0887
20.0887
20.0926
20.0927
20.0945
20.0945
20.0969
20.0969
20.0727
20.0444
20.0724
20.0333
20.0867
20.0632
20.0858
20.0527
20.045
20.2615
20.0236
20.2977
20.0263
20.2334
20.0066
20.2692
20.2315
20.051
20.2437
20.0507
20.1987
20.0338
20.2134
20.0325
20.0581
20.0785
20.0525
20.0753
20.0784
20.0938
20.0717
20.0901
20.0882
20.0882
20.0876
20.0876
20.0946
20.0946
20.0939
20.0939
20.0785
20.0581
20.0753
20.0525
20.0938
20.0784
20.0901
20.0717
20.051
20.2314
20.0507
20.2436
20.0338
20.1987
20.0325
20.2134
20.2157
20.0467
20.2225
20.0493
20.1789
20.0305
20.1875
20.0327
20.0638
20.0845
20.0617
20.0816
20.0868
20.1006
20.0833
20.0973
20.0919
20.0919
20.0898
20.0898
20.0982
20.0982
20.0961
20.0961
20.0845
20.0639
20.0816
20.0617
20.1006
20.0868
20.0973
20.0834
20.0467
20.2157
20.0493
20.2225
20.0305
20.1789
20.0327
20.1875
20.2063
20.041
20.2105
20.0439
20.1666
20.0251
20.1721
20.0279
20.0656
20.0893
20.065
20.0871
20.0903
20.1064
20.089
20.1037
20.0966
20.0966
20.0942
20.0942
20.103
20.103
20.1006
20.1006
20.0893
20.0656
20.0871
20.0651
20.1064
20.0903
20.1037
20.089
20.041
20.2062
20.0439
20.2104
20.0251
20.1666
20.0279
20.1721
20.2
20.0356
20.2028
20.0382
20.1585
20.0198
20.1622
20.0224
20.0655
20.0927
20.0657
20.0911
20.0911
20.111
20.0909
20.1088
20.1012
20.1012
20.099
20.099
20.1079
20.1079
20.1055
20.1055
20.0927
20.0655
20.0911
20.0657
20.111
20.0911
20.1088
20.0909
20.0356
20.2
20.0382
20.2028
20.0198
20.1585
20.0224
20.1622
20.1956
20.0307
20.1976
20.033
20.1527
20.015
20.1554
20.0173
20.0645
20.0951
20.0651
20.094
20.0908
20.1144
20.0911
20.1128
20.105
20.105
20.1032
20.1032
20.1121
20.1121
20.1101
20.1101
20.0951
20.0645
20.094
20.0651
20.1144
20.0908
20.1128
20.0911
20.0307
20.1956
20.033
20.1976
20.0149
20.1527
20.0173
20.1554
20.1922
20.0265
20.1938
20.0285
20.1482
20.0107
20.1503
20.0127
20.0633
20.0966
20.0639
20.096
20.0901
20.1168
20.0905
20.1157
20.108
20.108
20.1066
20.1066
20.1155
20.1155
20.1139
20.1139
20.0966
20.0633
20.096
20.0639
20.1168
20.0901
20.1157
20.0905
20.0265
20.1923
20.0285
20.1938
20.0106
20.1484
20.0127
20.1504
20.1896
20.0227
20.1908
20.0245
20.1449
20.0068
20.1464
20.0087
20.0618
20.0975
20.0626
20.0972
20.089
20.1185
20.0896
20.1177
20.1101
20.1101
20.1091
20.1091
20.118
20.118
20.1168
20.1168
20.0975
20.0618
20.0972
20.0626
20.1185
20.089
20.1177
20.0896
20.0227
20.1896
20.0245
20.1909
20.0069
20.1448
20.0086
20.1465
20.1873
20.0193
20.1884
20.021
20.142
20.0034
20.1434
20.0051
20.0602
20.0978
20.061
20.0977
20.0878
20.1193
20.0884
20.119
20.1115
20.1115
20.1109
20.1109
20.1196
20.1196
20.1189
20.1189
20.0978
20.0602
20.0977
20.0611
20.1194
20.0878
20.119
20.0885
20.0194
20.1873
20.021
20.1884
20.0035
20.1419
20.0051
20.1434
20.1853
20.0162
20.1863
20.0177
20.1396
20.0002
20.1407
20.0018
20.0585
20.0976
20.0594
20.0978
20.0863
20.1196
20.0871
20.1196
20.1121
20.1121
20.1119
20.1119
20.1206
20.1206
20.1202
20.1202
20.0976
20.0585
20.0978
20.0594
20.1196
20.0864
20.1196
20.0871
20.0163
20.1853
20.0178
20.1863
20.0003
20.1395
20.0018
20.1407
20.1835
20.0133
20.1844
20.0147
20.1375
19.9973
20.1385
19.9987
20.0567
20.0971
20.0576
20.0974
20.0848
20.1194
20.0856
20.1196
20.1122
20.1122
20.1123
20.1123
20.1209
20.1209
20.1209
20.1209
20.0971
20.0567
20.0974
20.0577
20.1194
20.0848
20.1196
20.0856
20.0134
20.1834
20.0148
20.1843
19.9974
20.1373
19.9988
20.1384
20.1815
20.0106
20.1825
20.0119
20.1353
19.9945
20.1365
19.9958
20.0548
20.0961
20.0558
20.0966
20.083
20.1187
20.0839
20.1191
20.1118
20.1118
20.1121
20.1121
20.1207
20.1207
20.1209
20.1209
20.0961
20.0549
20.0966
20.0558
20.1187
20.0831
20.1191
20.084
20.0106
20.1815
20.0119
20.1825
19.9946
20.1352
19.996
20.1362
20.1796
20.0079
20.1805
20.0092
20.1331
19.992
20.1341
19.9933
20.0529
20.0949
20.0539
20.0955
20.0812
20.1176
20.0822
20.1182
20.111
20.111
20.1114
20.1115
20.1199
20.1199
20.1203
20.1203
20.0949
20.0529
20.0955
20.0539
20.1176
20.0812
20.1182
20.0822
20.0079
20.1796
20.0092
20.1806
19.9919
20.1331
19.9933
20.1341
20.1774
20.0053
20.1786
20.0065
20.1309
19.9893
20.132
19.9906
20.0508
20.0933
20.0518
20.0941
20.0791
20.1161
20.0802
20.1169
20.1097
20.1097
20.1104
20.1104
20.1186
20.1186
20.1193
20.1193
20.0933
20.0508
20.0941
20.0518
20.1161
20.0791
20.1169
20.0802
20.0053
20.1776
20.0065
20.1786
19.9893
20.131
19.9906
20.1321
20.1753
20.0028
20.1764
20.004
20.1288
19.9867
20.1298
19.988
20.0487
20.0915
20.0497
20.0925
20.0769
20.1142
20.0781
20.1152
20.1081
20.1081
20.1089
20.1089
20.1169
20.1169
20.1178
20.1178
20.0915
20.0486
20.0924
20.0497
20.1142
20.0768
20.1152
20.078
20.0026
20.1756
20.0039
20.1766
19.9864
20.1292
19.9879
20.1301
20.1734
20
20.1743
20.0014
20.1269
19.9838
20.1279
19.9852
20.0464
20.0895
20.0475
20.0906
20.0745
20.112
20.0757
20.1132
20.1062
20.1062
20.1072
20.1072
20.1149
20.1149
20.116
20.116
20.0895
20.0463
20.0905
20.0475
20.112
20.0745
20.1131
20.0756
20
20.1734
20.0013
20.1745
19.9838
20.1271
19.9851
20.1282
20.1711
19.9975
20.1723
19.9987
20.1246
19.9812
20.1257
19.9826
20.0441
20.0874
20.0452
20.0885
20.072
20.1096
20.0733
20.1108
20.1041
20.1041
20.1052
20.1052
20.1126
20.1126
20.1138
20.1138
20.0874
20.044
20.0885
20.0452
20.1095
20.0719
20.1108
20.0732
19.9974
20.1714
19.9987
20.1725
19.9812
20.1247
19.9824
20.1259
20.1693
19.9949
20.1702
19.9962
20.1226
19.9784
20.1238
19.9797
20.0417
20.0851
20.0429
20.0863
20.0693
20.1068
20.0706
20.1082
20.1019
20.1019
20.103
20.1031
20.11
20.11
20.1113
20.1113
20.0852
20.0418
20.0863
20.0429
20.1069
20.0695
20.1082
20.0707
19.9951
20.1691
19.9962
20.1703
19.9788
20.1222
19.98
20.1234
20.1669
19.9928
20.1681
19.9938
20.12
19.9761
20.1213
19.9772
20.0396
20.0829
20.0407
20.084
20.0668
20.104
20.068
20.1054
20.0996
20.0996
20.1008
20.1008
20.1073
20.1073
20.1086
20.1087
20.0829
20.0396
20.084
20.0407
20.104
20.0668
20.1054
20.0681
19.9926
20.1673
19.9938
20.1682
19.9761
20.1201
19.9775
20.1211
20.1651
19.9905
20.166
19.9916
20.1177
19.9737
20.1189
19.9749
20.0375
20.0807
20.0385
20.0818
20.0641
20.1016
20.0654
20.1028
20.0972
20.0973
20.0984
20.0984
20.1044
20.1044
20.1058
20.1058
20.0807
20.0376
20.0818
20.0385
20.1016
20.0642
20.1028
20.0655
19.9908
20.1647
19.9916
20.166
19.9739
20.1175
19.9749
20.1189
20.1627
19.9889
20.1639
19.9897
20.1152
19.9718
20.1164
19.9728
20.0357
20.0786
20.0366
20.0796
20.0617
20.099
20.0629
20.1004
20.095
20.095
20.0961
20.0961
20.1015
20.1015
20.1029
20.1029
20.0786
20.0357
20.0796
20.0366
20.099
20.0616
20.1004
20.0629
19.9887
20.1631
19.9897
20.1639
19.9716
20.1156
19.9727
20.1166
20.1616
19.9871
20.1621
19.988
20.1134
19.9698
20.1143
19.9708
20.034
20.0768
20.0349
20.0777
20.0591
20.0964
20.0604
20.0977
20.0929
20.0929
20.0939
20.0939
20.0987
20.0987
20.1001
20.1001
20.0769
20.0342
20.0777
20.0349
20.0964
20.0592
20.0977
20.0604
19.9875
20.1611
19.9881
20.1621
19.97
20.1132
19.9707
20.1144
20.1599
19.9862
20.1608
19.9865
20.1114
19.9684
20.1124
19.969
20.0329
20.0753
20.0334
20.076
20.0567
20.0939
20.0579
20.0951
20.091
20.091
20.0919
20.0919
20.096
20.096
20.0973
20.0973
20.0753
20.0329
20.0761
20.0335
20.0939
20.0566
20.0951
20.0579
19.9862
20.1602
19.9867
20.1605
19.9681
20.1119
19.969
20.1124
20.1595
19.9854
20.1596
19.9857
20.1106
19.9669
20.1109
19.9676
20.0322
20.0742
20.0324
20.0747
20.054
20.0917
20.0554
20.0928
20.0895
20.0895
20.0902
20.0902
20.0936
20.0936
20.0948
20.0948
20.0742
20.0323
20.0747
20.0325
20.0917
20.054
20.0928
20.0553
19.9856
20.1591
19.9857
20.1597
19.9671
20.1103
19.9674
20.1112
20.1586
19.9855
20.159
19.9854
20.1095
19.9664
20.11
19.9665
20.0321
20.0734
20.0324
20.0738
20.0532
20.0899
20.053
20.0907
20.0884
20.0884
20.0889
20.0889
20.0915
20.0915
20.0925
20.0925
20.0734
20.032
20.0738
20.0324
20.0899
20.0532
20.0907
20.053
19.9853
20.159
19.9854
20.159
19.9664
20.1096
19.9666
20.1099
20.1591
19.9858
20.1588
19.9855
20.1092
19.9664
20.1092
19.9663
20.0322
20.0731
20.032
20.0732
20.0538
20.0886
20.0536
20.0892
20.0877
20.0877
20.088
20.088
20.0898
20.0898
20.0906
20.0906
20.0731
20.0322
20.0732
20.032
20.0886
20.0538
20.0892
20.0536
19.9859
20.1588
19.9855
20.1589
19.9665
20.1089
19.9664
20.1092
20.1595
19.9872
20.1592
19.9862
20.1091
19.9672
20.1092
19.9666
20.0332
20.0734
20.0326
20.0732
20.0543
20.0878
20.054
20.0881
20.0876
20.0876
20.0876
20.0876
20.0887
20.0887
20.0892
20.0892
20.0734
20.0332
20.0732
20.0326
20.0878
20.0543
20.0881
20.054
19.9873
20.1595
19.9863
20.159
19.9672
20.1092
19.9667
20.109
20.1608
19.9895
20.16
19.9883
20.1098
19.9688
20.1094
19.9679
20.0349
20.0743
20.034
20.0738
20.0553
20.0876
20.0547
20.0876
20.0881
20.0881
20.0878
20.0878
20.0881
20.0881
20.0883
20.0883
20.0744
20.0349
20.0738
20.034
20.0876
20.0553
20.0876
20.0547
19.9895
20.1608
19.9883
20.1601
19.9688
20.1098
19.9679
20.1094
20.1627
19.9927
20.1617
19.9909
20.1113
19.971
20.1105
19.9698
20.0373
20.076
20.036
20.0751
20.0568
20.088
20.056
20.0877
20.0893
20.0893
20.0886
20.0886
20.0883
20.0883
20.0881
20.0882
20.076
20.0373
20.0751
20.036
20.088
20.0568
20.0877
20.056
19.9927
20.1627
19.9909
20.1617
19.971
20.1113
19.9698
20.1105
20.1653
19.9974
20.1639
19.9948
20.1136
19.9734
20.1124
19.9721
20.0405
20.0782
20.0388
20.077
20.059
20.0892
20.0579
20.0885
20.0912
20.0912
20.0902
20.0902
20.0893
20.0893
20.0887
20.0887
20.0782
20.0405
20.077
20.0388
20.0892
20.059
20.0885
20.0579
19.9974
20.1652
19.9948
20.1639
19.9735
20.1136
19.9721
20.1124
20.1684
20.0004
20.1668
19.9987
20.1167
19.9784
20.115
19.9758
20.0442
20.0812
20.0422
20.0797
20.0619
20.091
20.0604
20.09
20.0938
20.0938
20.0924
20.0924
20.091
20.091
20.09
20.09
20.0812
20.0442
20.0797
20.0422
20.091
20.0619
20.09
20.0604
20.0004
20.1684
19.9987
20.1667
19.9784
20.1167
19.9758
20.115
20.1721
20.0048
20.1702
20.0025
20.1205
19.9836
20.1185
19.9809
20.0485
20.0848
20.0462
20.083
20.0655
20.0935
20.0636
20.0922
20.0971
20.0971
20.0954
20.0954
20.0935
20.0935
20.0922
20.0922
20.0848
20.0485
20.083
20.0463
20.0935
20.0655
20.0922
20.0636
20.0048
20.1721
20.0025
20.1702
19.9836
20.1205
19.9809
20.1185
20.1761
20.0101
20.1741
20.0073
20.1252
19.9894
20.1228
19.9864
20.0533
20.089
20.0509
20.0868
20.0696
20.0967
20.0674
20.0951
20.101
20.101
20.0989
20.0989
20.0968
20.0968
20.0951
20.0951
20.089
20.0533
20.0868
20.0509
20.0967
20.0696
20.0951
20.0674
20.0101
20.1761
20.0073
20.1741
19.9894
20.1251
19.9864
20.1228
20.1803
20.0159
20.1782
20.0129
20.1304
19.9958
20.1277
19.9925
20.0587
20.0936
20.056
20.0912
20.0741
20.1006
20.0718
20.0986
20.1054
20.1054
20.1031
20.1031
20.1009
20.1009
20.0988
20.0988
20.0936
20.0587
20.0912
20.056
20.1006
20.0741
20.0986
20.0718
20.0159
20.1803
20.0129
20.1782
19.9958
20.1304
19.9925
20.1277
20.1839
20.0224
20.1822
20.0191
20.1359
20.0029
20.1332
19.9992
20.0645
20.0986
20.0615
20.096
20.0791
20.1049
20.0766
20.1027
20.1103
20.1103
20.1078
20.1078
20.1057
20.1057
20.1032
20.1032
20.0986
20.0645
20.096
20.0615
20.1049
20.0791
20.1027
20.0766
20.0224
20.1838
20.0191
20.1822
20.0029
20.1359
19.9992
20.1331
20.1856
20.0304
20.1851
20.0261
20.1408
20.011
20.1385
20.0068
20.0706
20.1038
20.0675
20.1011
20.0843
20.1096
20.0817
20.1072
20.1158
20.1158
20.113
20.113
20.1111
20.1111
20.1083
20.1083
20.1037
20.0706
20.1011
20.0675
20.1096
20.0843
20.1072
20.0817
20.0304
20.1856
20.0261
20.1851
20.011
20.1408
20.0067
20.1385
20.1791
20.0446
20.1843
20.0359
20.1406
20.0236
20.1421
20.0161
20.0772
20.1091
20.0738
20.1064
20.0898
20.1148
20.087
20.1122
20.1217
20.1217
20.1187
20.1187
20.1172
20.1172
20.114
20.114
20.1091
20.0772
20.1064
20.0738
20.1148
20.0898
20.1122
20.087
20.0446
20.1791
20.0359
20.1843
20.0236
20.1405
20.0161
20.1421
20.1955
20.0386
20.1729
20.0548
20.1556
20.0211
20.1377
20.0323
20.0791
20.1155
20.0802
20.1121
20.0936
20.1212
20.0928
20.1178
20.1283
20.1283
20.125
20.125
20.124
20.124
20.1206
20.1206
20.1155
20.0791
20.1121
20.0802
20.1212
20.0936
20.1178
20.0928
20.0386
20.1955
20.0548
20.1729
20.0211
20.1556
20.0323
20.1377
20.3897
19.9904
20.2981
20.0114
20.3834
19.9779
20.2943
20.0032
19.9975
20.0537
20.0331
20.0749
20.0027
20.0616
20.0366
20.0797
20.0861
20.0861
20.0965
20.0965
20.092
20.092
20.0997
20.0997
20.0538
19.9975
20.075
20.0332
20.0616
20.0027
20.0797
20.0366
19.9904
20.3896
20.0114
20.2981
19.9779
20.3833
20.0032
20.2942
20.2562
20.0917
20.2982
20.0661
20.2615
20.0711
20.3004
20.0472
20.0394
20.0547
20.0246
20.0541
20.0387
20.0617
20.0259
20.0615
20.0718
20.0718
20.0783
20.0783
20.0803
20.0803
20.0856
20.0856
20.0547
20.0394
20.0542
20.0246
20.0617
20.0387
20.0615
20.0259
20.0917
20.2562
20.066
20.2981
20.0711
20.2615
20.0472
20.3004
20.2262
20.0987
20.2378
20.0982
20.2323
20.0774
20.2438
20.0772
20.055
20.0601
20.0492
20.0572
20.053
20.0673
20.0473
20.0643
20.0694
20.0694
20.0695
20.0695
20.0788
20.0788
20.0785
20.0786
20.0601
20.0551
20.0572
20.0492
20.0673
20.053
20.0643
20.0474
20.0987
20.2262
20.0981
20.2377
20.0774
20.2322
20.0772
20.2437
20.2124
20.0949
20.2183
20.0971
20.218
20.0733
20.2241
20.0757
20.0598
20.065
20.0582
20.0627
20.058
20.0725
20.0562
20.0701
20.0724
20.0724
20.0706
20.0706
20.082
20.082
20.0801
20.0801
20.065
20.0598
20.0628
20.0582
20.0725
20.058
20.0701
20.0562
20.0949
20.2124
20.0971
20.2182
20.0733
20.218
20.0757
20.2241
20.2043
20.0901
20.2079
20.0925
20.2096
20.0681
20.2134
20.0707
20.0605
20.0684
20.0604
20.0669
20.059
20.0763
20.0587
20.0745
20.0765
20.0765
20.0745
20.0745
20.0865
20.0865
20.0842
20.0842
20.0684
20.0605
20.0669
20.0604
20.0763
20.059
20.0745
20.0588
20.0901
20.2043
20.0925
20.2079
20.0681
20.2096
20.0707
20.2133
20.199
20.0856
20.2014
20.0877
20.2041
20.0632
20.2066
20.0656
20.06
20.0706
20.0603
20.0697
20.0585
20.0789
20.0588
20.0777
20.0801
20.0801
20.0784
20.0784
20.0906
20.0906
20.0886
20.0886
20.0706
20.06
20.0697
20.0603
20.0789
20.0585
20.0777
20.0588
20.0856
20.199
20.0877
20.2014
20.0632
20.204
20.0656
20.2066
20.1951
20.0816
20.1969
20.0835
20.2001
20.0589
20.2019
20.061
20.059
20.0718
20.0595
20.0713
20.0573
20.0806
20.0579
20.0798
20.0829
20.0829
20.0816
20.0816
20.0939
20.0939
20.0923
20.0923
20.0719
20.059
20.0713
20.0595
20.0806
20.0573
20.0798
20.0579
20.0817
20.1951
20.0835
20.1969
20.0589
20.2001
20.061
20.2019
20.1921
20.0782
20.1935
20.0799
20.197
20.0551
20.1985
20.0569
20.0577
20.0725
20.0584
20.0722
20.0559
20.0816
20.0566
20.0811
20.0849
20.0849
20.084
20.084
20.0963
20.0963
20.0952
20.0952
20.0725
20.0577
20.0722
20.0584
20.0816
20.0559
20.0811
20.0566
20.0782
20.1921
20.0799
20.1935
20.0551
20.197
20.0569
20.1985
20.1897
20.0752
20.1908
20.0766
20.1946
20.0518
20.1957
20.0534
20.0563
20.0726
20.057
20.0726
20.0543
20.082
20.0551
20.0818
20.0862
20.0862
20.0856
20.0856
20.098
20.098
20.0973
20.0973
20.0726
20.0563
20.0726
20.057
20.082
20.0544
20.0818
20.0551
20.0752
20.1897
20.0767
20.1908
20.0518
20.1946
20.0534
20.1958
20.1876
20.0724
20.1886
20.0737
20.1925
20.0487
20.1935
20.0502
20.0547
20.0723
20.0555
20.0725
20.0527
20.0819
20.0535
20.082
20.0868
20.0868
20.0866
20.0866
20.099
20.099
20.0986
20.0986
20.0724
20.0547
20.0725
20.0555
20.0819
20.0527
20.082
20.0535
20.0724
20.1876
20.0738
20.1886
20.0487
20.1925
20.0502
20.1935
20.1857
20.0698
20.1866
20.0711
20.1906
20.0459
20.1915
20.0473
20.053
20.0717
20.0538
20.0721
20.0509
20.0815
20.0518
20.0818
20.0869
20.0869
20.0869
20.087
20.0993
20.0994
20.0992
20.0992
20.0717
20.053
20.0721
20.0539
20.0815
20.0509
20.0818
20.0518
20.0698
20.1857
20.0711
20.1866
20.0459
20.1906
20.0473
20.1915
20.1839
20.0673
20.1848
20.0685
20.1888
20.0432
20.1897
20.0445
20.0512
20.0708
20.0521
20.0713
20.049
20.0807
20.05
20.0811
20.0866
20.0866
20.0868
20.0868
20.0992
20.0992
20.0993
20.0994
20.0708
20.0512
20.0713
20.0521
20.0807
20.0491
20.0811
20.05
20.0673
20.1839
20.0685
20.1848
20.0432
20.1888
20.0445
20.1897
20.1821
20.0649
20.183
20.0661
20.187
20.0406
20.1879
20.0419
20.0493
20.0696
20.0503
20.0702
20.0471
20.0796
20.0481
20.0802
20.0859
20.0859
20.0863
20.0863
20.0986
20.0986
20.099
20.099
20.0696
20.0494
20.0702
20.0503
20.0796
20.0471
20.0802
20.0481
20.0649
20.1821
20.0661
20.183
20.0406
20.1869
20.0419
20.1879
20.1803
20.0626
20.1812
20.0637
20.1851
20.0381
20.186
20.0393
20.0474
20.0682
20.0484
20.0689
20.0451
20.0782
20.0461
20.079
20.0849
20.0849
20.0854
20.0854
20.0977
20.0977
20.0982
20.0982
20.0682
20.0474
20.0689
20.0484
20.0783
20.0451
20.079
20.0461
20.0626
20.1803
20.0637
20.1812
20.0381
20.1851
20.0394
20.186
20.1784
20.0602
20.1794
20.0614
20.1832
20.0356
20.1841
20.0368
20.0454
20.0666
20.0464
20.0674
20.043
20.0767
20.0441
20.0775
20.0836
20.0836
20.0843
20.0843
20.0964
20.0964
20.0971
20.0971
20.0666
20.0454
20.0674
20.0464
20.0767
20.043
20.0775
20.0441
20.0602
20.1785
20.0614
20.1794
20.0356
20.1832