/*--------------------------------*- C++ -*----------------------------------*\
  =========                 |
  \\      /  F ield         | OpenFOAM: The Open Source CFD Toolbox
   \\    /   O peration     | Website:  https://openfoam.org
    \\  /    A nd           | Version:  9
     \\/     M anipulation  |
\*---------------------------------------------------------------------------*/
FoamFile
{
    format      ascii;
    class       volScalarField;
    location    "1.3";
    object      epsilon;
}
// * * * * * * * * * * * * * * * * * * * * * * * * * * * * * * * * * * * * * //

dimensions      [0 2 -3 0 0 0 0];

internalField   nonuniform List<scalar> 
36360
(
0.14936
0.113267
0.0382275
0.0375077
0.0270371
0.0152805
0.00859828
0.00677441
0.0170356
0.00341076
0.00682644
0.00440092
0.00464945
0.00320636
0.00495769
0.00500764
0.00240503
0.00240499
0.00448629
0.00448631
0.00313942
0.00313941
0.00502308
0.00502308
0.00340931
0.0170308
0.00440115
0.00682552
0.00320628
0.00464848
0.00500767
0.00495782
0.113265
0.149386
0.0375051
0.0382303
0.0152801
0.0270426
0.00677415
0.00859857
0.307641
0.230407
0.24202
0.180206
0.129635
0.0734679
0.0782079
0.0423014
0.0659889
0.0120864
0.0417038
0.00577711
0.0161935
0.00286303
0.00765199
0.00250159
0.00180717
0.00180487
0.00161381
0.00161325
0.00164488
0.00164465
0.00212764
0.0021276
0.0120716
0.0659725
0.00577188
0.0416916
0.0028607
0.0161845
0.00250087
0.00764888
0.230427
0.307733
0.180214
0.242076
0.073478
0.1297
0.0423033
0.0782374
0.377706
0.285809
0.350811
0.264375
0.194392
0.116339
0.168653
0.0988409
0.0958145
0.0240355
0.0839519
0.0189873
0.032591
0.00500311
0.025547
0.00384817
0.00340724
0.00339658
0.00249517
0.00248885
0.00144296
0.00144179
0.00146678
0.00146614
0.0240019
0.095795
0.018962
0.0839335
0.00499233
0.0325725
0.00384172
0.0255323
0.285854
0.377864
0.264408
0.350938
0.116372
0.194529
0.0988623
0.168756
0.402329
0.305613
0.393596
0.298574
0.218374
0.132908
0.209892
0.127045
0.107025
0.0289992
0.103032
0.0272316
0.039533
0.00632625
0.0370716
0.00584198
0.00444939
0.00443323
0.00406614
0.00405213
0.00148364
0.00148182
0.00146222
0.00146069
0.0289559
0.107004
0.0271922
0.103012
0.00630995
0.0395109
0.00582781
0.0370508
0.305676
0.402531
0.29863
0.39378
0.132957
0.218558
0.127087
0.210056
0.408957
0.310996
0.406898
0.309322
0.224653
0.137206
0.222745
0.135921
0.11008
0.0303023
0.109138
0.0299165
0.0413198
0.00667228
0.0407951
0.00657519
0.00472729
0.00470935
0.00464875
0.00463138
0.00150178
0.00149976
0.00149662
0.00149466
0.0302555
0.110059
0.029871
0.109117
0.00665429
0.0412968
0.00655772
0.0407723
0.311067
0.409179
0.30939
0.407114
0.137262
0.224857
0.135975
0.222942
0.410024
0.311907
0.409869
0.311756
0.225613
0.137805
0.225479
0.137754
0.110604
0.0304959
0.110519
0.0304778
0.0415804
0.00671244
0.041552
0.00671266
0.00475944
0.00474118
0.00476064
0.00474243
0.00150326
0.00150121
0.00150362
0.00150156
0.0304482
0.110583
0.0304304
0.110498
0.00669419
0.0415571
0.00669443
0.0415288
0.31198
0.410253
0.311828
0.410096
0.137864
0.225823
0.137812
0.225688
0.409815
0.311793
0.410026
0.311934
0.225467
0.137654
0.225624
0.137797
0.110576
0.0304844
0.110641
0.0305134
0.0415545
0.00670471
0.0415952
0.00671479
0.00475533
0.00473705
0.00476285
0.00474456
0.0015009
0.00149884
0.00150249
0.00150043
0.0304367
0.110555
0.0304657
0.11062
0.00668644
0.0415312
0.0066965
0.0415719
0.311866
0.410045
0.312007
0.410256
0.137712
0.225678
0.137856
0.225834
0.409233
0.311411
0.409616
0.311673
0.225044
0.137295
0.225332
0.137533
0.11041
0.030418
0.110535
0.0304706
0.0414497
0.00668027
0.0415273
0.00669816
0.00473859
0.00472034
0.00475153
0.00473326
0.00149735
0.0014953
0.00149948
0.00149743
0.0303702
0.110388
0.0304228
0.110514
0.00666204
0.0414264
0.00667989
0.041504
0.311484
0.409462
0.311746
0.409845
0.137354
0.225254
0.137591
0.225543
0.40844
0.310887
0.408923
0.311217
0.22448
0.13685
0.22484
0.13713
0.110166
0.0303199
0.11033
0.0303884
0.0413008
0.00664698
0.0414015
0.00666957
0.00471502
0.00469684
0.00473138
0.00471316
0.00149303
0.001491
0.00149556
0.00149352
0.0302722
0.110145
0.0303407
0.110308
0.00662881
0.0412774
0.00665136
0.0413782
0.31096
0.408668
0.311289
0.409151
0.136908
0.224689
0.137189
0.22505
0.407487
0.310269
0.408047
0.310644
0.223817
0.136348
0.224225
0.136656
0.109875
0.0302025
0.110063
0.0302815
0.041125
0.00660818
0.0412404
0.00663399
0.00468751
0.00466941
0.00470615
0.004688
0.00148804
0.00148603
0.00149095
0.00148892
0.0301548
0.109854
0.0302338
0.110041
0.0065901
0.0411015
0.00661586
0.041217
0.310341
0.407714
0.310716
0.408274
0.136406
0.224026
0.136714
0.224434
0.406385
0.309566
0.407019
0.309983
0.223062
0.135796
0.223517
0.136132
0.109543
0.0300688
0.109752
0.0301569
0.0409254
0.00656456
0.0410541
0.00659303
0.00465661
0.00463861
0.00467723
0.00465917
0.00148239
0.00148039
0.00148563
0.00148362
0.0300211
0.109522
0.0301092
0.10973
0.00654656
0.0409018
0.00657498
0.0410306
0.309637
0.406611
0.310054
0.407245
0.135853
0.22327
0.136189
0.223725
0.40514
0.308781
0.405845
0.309238
0.222216
0.135189
0.222715
0.13555
0.109173
0.0299195
0.109401
0.030016
0.0407025
0.00651602
0.040843
0.00654717
0.00462242
0.00460452
0.00464499
0.00462702
0.00147601
0.00147402
0.00147965
0.00147766
0.0298719
0.109151
0.0299684
0.109379
0.00649811
0.0406788
0.00652921
0.0408194
0.308851
0.405364
0.309309
0.406071
0.135245
0.222422
0.135606
0.222922
0.403746
0.307913
0.404525
0.308411
0.221276
0.134527
0.221822
0.134916
0.108765
0.0297544
0.109011
0.029859
0.0404557
0.00646232
0.0406083
0.00649613
0.00458484
0.00456705
0.0046092
0.00459134
0.00146885
0.00146689
0.00147288
0.00147091
0.0297069
0.108743
0.0298115
0.108989
0.00644453
0.0404319
0.00647827
0.0405846
0.307982
0.40397
0.308481
0.40475
0.134582
0.221481
0.134972
0.222028
0.402202
0.30696
0.403057
0.307501
0.220237
0.133802
0.220833
0.134223
0.108316
0.0295726
0.108583
0.0296857
0.0401832
0.00640321
0.0403487
0.00643976
0.00454375
0.0045261
0.00456992
0.00455219
0.00146086
0.00145892
0.00146532
0.00146337
0.0295253
0.108294
0.0296382
0.108561
0.00638556
0.0401593
0.00642203
0.0403249
0.307029
0.402424
0.30757
0.40328
0.133857
0.220441
0.134278
0.221038
0.400496
0.305913
0.401433
0.306502
0.219093
0.133005
0.219743
0.133463
0.107825
0.0293732
0.108113
0.0294952
0.0398832
0.00633833
0.0400625
0.00637776
0.00449886
0.00448136
0.00452693
0.00450934
0.00145197
0.00145005
0.00145688
0.00145495
0.029326
0.107802
0.0294479
0.108091
0.00632083
0.0398593
0.00636017
0.0400387
0.305981
0.400717
0.306571
0.401655
0.133059
0.219296
0.133517
0.219946
0.39862
0.304767
0.399643
0.305406
0.217838
0.13213
0.218543
0.132627
0.107287
0.0291552
0.107599
0.0292865
0.0395544
0.00626743
0.0397481
0.00630984
0.00445004
0.00443271
0.00448006
0.00446263
0.0014421
0.00144021
0.0014475
0.0014456
0.0291081
0.107265
0.0292394
0.107576
0.00625011
0.0395305
0.00629242
0.0397243
0.304834
0.398839
0.305474
0.399864
0.132184
0.218038
0.132681
0.218745
0.396564
0.303517
0.397678
0.304209
0.216464
0.131175
0.217229
0.131712
0.106702
0.0289178
0.107038
0.0290588
0.0391958
0.00619029
0.0394044
0.00623578
0.00439715
0.00438
0.00442917
0.00441191
0.00143121
0.00142935
0.00143712
0.00143524
0.0288708
0.106679
0.0290118
0.107015
0.00617316
0.0391719
0.00621854
0.0393805
0.303584
0.396782
0.304276
0.397897
0.131228
0.216663
0.131765
0.217429
0.394319
0.302157
0.395529
0.302905
0.214969
0.130141
0.215795
0.130716
0.106066
0.0286598
0.106427
0.0288111
0.0388065
0.00610668
0.0390303
0.00615535
0.00434007
0.00432312
0.00437413
0.00435707
0.00141923
0.0014174
0.00142568
0.00142383
0.0286131
0.106042
0.0287643
0.106404
0.00608976
0.0387825
0.00613831
0.0390064
0.302223
0.394535
0.302971
0.395746
0.130193
0.215166
0.130769
0.215993
0.39188
0.300681
0.393187
0.301486
0.213347
0.12903
0.214236
0.129644
0.105376
0.028381
0.105764
0.0285426
0.0383851
0.00601645
0.0386248
0.00606835
0.00427875
0.00426202
0.00431486
0.00429801
0.00140612
0.00140433
0.00141313
0.00141132
0.0283345
0.105353
0.028496
0.105741
0.00599975
0.0383611
0.00605152
0.0386009
0.300745
0.392094
0.301551
0.393402
0.129081
0.213542
0.129696
0.214432
0.389249
0.299092
0.390652
0.299953
0.211598
0.12783
0.21255
0.128489
0.104635
0.0280811
0.105049
0.0282531
0.0379312
0.00591953
0.038187
0.00597467
0.00421322
0.00419672
0.00425136
0.00423473
0.00139184
0.00139008
0.00139942
0.00139765
0.0280348
0.104611
0.0282067
0.105025
0.00590307
0.0379071
0.00595808
0.038163
0.299155
0.38946
0.300017
0.390865
0.12788
0.211791
0.128539
0.212744
0.386423
0.297388
0.387922
0.298306
0.209721
0.126542
0.210737
0.127244
0.103839
0.0277599
0.10428
0.0279424
0.0374443
0.00581595
0.0377162
0.00587431
0.00414351
0.00412725
0.00418364
0.00416725
0.00137636
0.00137465
0.00138453
0.0013828
0.0277138
0.103815
0.0278962
0.104256
0.00579976
0.0374202
0.00585797
0.0376922
0.29745
0.386632
0.298369
0.388133
0.12659
0.209912
0.127294
0.210929
0.383409
0.29557
0.385001
0.296545
0.207718
0.125163
0.208796
0.12591
0.102992
0.0274176
0.103458
0.0276104
0.0369249
0.00570583
0.0372127
0.00576732
0.00406972
0.00405374
0.00411179
0.00409565
0.00135966
0.00135799
0.00136843
0.00136674
0.0273718
0.102968
0.0275645
0.103434
0.00568991
0.0369008
0.00575124
0.0371887
0.295631
0.383616
0.296606
0.38521
0.125211
0.207906
0.125959
0.208985
0.380212
0.293657
0.381896
0.294676
0.205589
0.123699
0.206729
0.124487
0.102094
0.0270545
0.102585
0.0272575
0.036374
0.0055894
0.036677
0.00565387
0.00399206
0.00397635
0.00403594
0.00402008
0.00134175
0.00134013
0.00135112
0.00134947
0.027009
0.10207
0.0272119
0.102561
0.00557377
0.0363499
0.00563809
0.036653
0.293716
0.380417
0.294737
0.382102
0.123745
0.205775
0.124534
0.206916
0.376829
0.291642
0.378606
0.292715
0.203339
0.122158
0.204539
0.122983
0.101145
0.0266709
0.101662
0.026884
0.035793
0.00546706
0.0361105
0.0055343
0.00391079
0.00389538
0.00395632
0.00394075
0.00132265
0.00132107
0.00133259
0.00133099
0.0266257
0.10112
0.0268386
0.101637
0.00545174
0.0357689
0.00551882
0.0360865
0.2917
0.377032
0.292774
0.378809
0.122204
0.203522
0.123029
0.204723
0.373272
0.28952
0.375133
0.290645
0.200975
0.120553
0.20223
0.121407
0.100145
0.0262674
0.100687
0.0264901
0.0351841
0.00533938
0.0355149
0.00540906
0.00382635
0.00381125
0.00387329
0.00385803
0.00130241
0.00130088
0.0013129
0.00131134
0.0262226
0.100119
0.026445
0.100662
0.00532439
0.03516
0.0053939
0.0354908
0.289577
0.373472
0.290703
0.375334
0.120597
0.201155
0.121452
0.202412
0.369556
0.287294
0.371495
0.288471
0.198509
0.118902
0.199812
0.119775
0.0990933
0.0258459
0.0996606
0.0260771
0.0345506
0.00520716
0.0348928
0.00527885
0.00373935
0.00372458
0.00378737
0.00377242
0.00128108
0.0012796
0.00129209
0.00129058
0.0258014
0.0990677
0.0260324
0.0996352
0.00519252
0.0345266
0.00526403
0.0348688
0.287349
0.369753
0.288527
0.371693
0.118944
0.198686
0.119818
0.199991
0.365703
0.284955
0.367706
0.286191
0.19596
0.117235
0.197301
0.118109
0.0979949
0.0254098
0.0985846
0.0256475
0.0338973
0.00507139
0.0342484
0.00514458
0.00365059
0.00363616
0.00369927
0.00368466
0.00125877
0.00125734
0.00127024
0.00126878
0.0253657
0.097969
0.0256032
0.0985589
0.0050571
0.0338732
0.00513011
0.0342243
0.285009
0.365897
0.286246
0.367901
0.117276
0.196134
0.118151
0.197477
0.361752
0.282519
0.363798
0.283794
0.193349
0.115564
0.194718
0.116446
0.0968644
0.0249636
0.0974674
0.0252056
0.0332286
0.0049331
0.0335865
0.00500726
0.00356085
0.00354677
0.0036098
0.00359554
0.00123555
0.00123417
0.00124744
0.00124604
0.0249199
0.0968381
0.0251616
0.0974413
0.00491917
0.0332045
0.00499315
0.0335625
0.282571
0.361943
0.283847
0.363991
0.115603
0.193519
0.116486
0.194891
0.357738
0.280047
0.359812
0.281337
0.190694
0.113864
0.192082
0.114758
0.095715
0.0245111
0.0963263
0.0247556
0.0325488
0.00479332
0.0329112
0.00486794
0.00347087
0.00345714
0.00351973
0.00350581
0.00121155
0.00121023
0.00122381
0.00122245
0.0244678
0.0956883
0.024712
0.0962999
0.00477976
0.0325248
0.00485419
0.0328872
0.280097
0.357926
0.281388
0.360002
0.113901
0.190861
0.114797
0.192252
0.353689
0.27755
0.355776
0.27885
0.188016
0.112145
0.189413
0.113047
0.0945542
0.0240558
0.0951698
0.0243009
0.031863
0.00465314
0.0322273
0.00472767
0.00338143
0.00336806
0.0034298
0.00341624
0.0011869
0.00118563
0.00119945
0.00119815
0.0240129
0.0945272
0.0242578
0.0951431
0.00463996
0.031839
0.00471429
0.0322034
0.277599
0.353873
0.2789
0.355963
0.112181
0.18818
0.113084
0.189579
0.349637
0.275047
0.351721
0.276347
0.185336
0.110421
0.186731
0.111323
0.0933911
0.0236015
0.0940065
0.0238453
0.0311767
0.0045137
0.0315402
0.00458756
0.0032933
0.00328028
0.00334079
0.00332759
0.00116174
0.00116051
0.00117451
0.00117326
0.0235591
0.0933638
0.0238027
0.0939794
0.00450089
0.0311528
0.00457456
0.0315163
0.275094
0.349818
0.276396
0.351904
0.110456
0.185498
0.111359
0.186893
0.345615
0.272557
0.34768
0.273848
0.182678
0.108706
0.184059
0.109601
0.0922352
0.0231522
0.0928455
0.0233928
0.0304955
0.00437607
0.0308553
0.00444873
0.00320722
0.00319455
0.00325348
0.00324062
0.0011362
0.00113502
0.00114912
0.00114792
0.0231102
0.0922076
0.0233506
0.0928181
0.00436363
0.0304717
0.0044361
0.0308315
0.272602
0.345794
0.273895
0.34786
0.108739
0.182836
0.109636
0.184218
0.341657
0.270098
0.343686
0.271371
0.180063
0.107013
0.181419
0.107895
0.0910958
0.0227116
0.0916965
0.0229471
0.0298249
0.0042413
0.0301784
0.00431226
0.00312389
0.00311156
0.00316857
0.00315606
0.00111043
0.0011093
0.00112344
0.00112228
0.0226701
0.0910679
0.0229054
0.0916688
0.00422923
0.0298012
0.0043
0.0301547
0.270142
0.341832
0.271416
0.343862
0.107045
0.180218
0.107928
0.181575
0.337784
0.267684
0.339768
0.268933
0.177505
0.105354
0.178831
0.106218
0.08998
0.0222832
0.090568
0.022512
0.0291696
0.00411033
0.0295145
0.00417915
0.00304391
0.00303191
0.00308674
0.00307456
0.00108459
0.00108351
0.00109761
0.0010965
0.0222422
0.0899518
0.0224707
0.09054
0.00409861
0.029146
0.00416724
0.0294909
0.267727
0.337956
0.268977
0.339942
0.105385
0.177657
0.106249
0.178984
0.333982
0.265306
0.335937
0.266541
0.174992
0.103723
0.1763
0.104575
0.0888845
0.0218676
0.089464
0.02209
0.0285307
0.00398374
0.0288674
0.0040502
0.00296761
0.00295593
0.00300849
0.00299664
0.00105881
0.00105777
0.00107177
0.0010707
0.021827
0.0888561
0.0220492
0.0894357
0.00397236
0.0285073
0.00403864
0.0288439
0.265347
0.33415
0.266583
0.336107
0.103753
0.175141
0.104605
0.17645
0.330099
0.262856
0.332129
0.264152
0.172405
0.102056
0.173778
0.102941
0.08776
0.0214527
0.0883657
0.0216778
0.0278927
0.00386043
0.0282328
0.00392547
0.00289396
0.0028826
0.00293372
0.00292219
0.00103316
0.00103216
0.00104604
0.00104502
0.0214127
0.0877313
0.0216375
0.0883372
0.00384939
0.0278694
0.00391427
0.0282094
0.262895
0.330264
0.264192
0.332296
0.102085
0.172549
0.10297
0.173924
0.32559
0.259918
0.328041
0.261545
0.169278
0.100074
0.171014
0.101175
0.0863902
0.0209722
0.087165
0.0212449
0.0271699
0.00373135
0.0275713
0.00380134
0.00281538
0.0028044
0.00285933
0.00284813
0.00100744
0.00100649
0.00102042
0.00101944
0.0209329
0.0863614
0.0212052
0.0871363
0.00372071
0.0271469
0.00379049
0.0275481
0.259955
0.32575
0.261583
0.328203
0.1001
0.169418
0.101203
0.171156
0.31916
0.254865
0.322765
0.257925
0.164408
0.0968415
0.167219
0.0987588
0.0839529
0.0201591
0.0854417
0.0206552
0.0260291
0.00355487
0.0267098
0.00365756
0.00269739
0.00268702
0.00276851
0.00275777
0.000979962
0.000979064
0.000994217
0.000993286
0.0201213
0.083924
0.0206166
0.0854129
0.00354482
0.0260065
0.00364716
0.026687
0.254899
0.319312
0.257961
0.322921
0.0968651
0.16454
0.0987841
0.167355
0.312551
0.237087
0.315382
0.249679
0.155629
0.0887198
0.160852
0.0939875
0.0767724
0.0180959
0.0815135
0.0193996
0.0233492
0.00319318
0.0250272
0.0034142
0.00242533
0.00241628
0.00259472
0.00258489
0.000943601
0.000942816
0.00096395
0.000963098
0.0180611
0.0767432
0.0193631
0.0814846
0.00318435
0.0233276
0.00340464
0.025005
0.237111
0.312697
0.249709
0.31553
0.0887376
0.15575
0.0940089
0.160979
0.204399
0.153347
0.0516174
0.0435173
0.188152
0.141027
0.0481264
0.0402355
0.0272453
0.00466669
0.00782418
0.00428599
0.0236176
0.00425184
0.00743032
0.00436242
0.00239633
0.00239647
0.00450852
0.00450854
0.00243624
0.0024363
0.0045641
0.00456413
0.00466384
0.0272347
0.00428604
0.0078223
0.00424919
0.0236094
0.00436275
0.0074285
0.153348
0.20445
0.0435106
0.0516295
0.141026
0.188192
0.04023
0.0481343
0.412615
0.313277
0.327062
0.24606
0.377825
0.2859
0.300132
0.225171
0.107414
0.0257891
0.0699311
0.011294
0.0929945
0.0205966
0.0602814
0.00917123
0.00334554
0.00333763
0.00205937
0.00205688
0.00268266
0.00267734
0.00187203
0.00187037
0.0257567
0.107393
0.0112802
0.0699107
0.0205714
0.0929749
0.00916121
0.0602641
0.313317
0.412763
0.246079
0.327161
0.28593
0.377948
0.225184
0.300212
0.504701
0.387979
0.469032
0.358764
0.46056
0.352559
0.428686
0.326662
0.153053
0.0484787
0.134777
0.038995
0.132339
0.0391199
0.116682
0.0314008
0.00926981
0.0092412
0.00632514
0.00630613
0.00674414
0.00672303
0.00468236
0.00466888
0.0484221
0.153034
0.0389487
0.134757
0.0390724
0.132319
0.0313628
0.116662
0.388059
0.504938
0.358825
0.469227
0.352623
0.460761
0.32671
0.42885
0.53862
0.416073
0.526322
0.405853
0.490354
0.377038
0.47965
0.368214
0.171047
0.0580875
0.164477
0.0545786
0.147464
0.0468019
0.141997
0.0440272
0.01269
0.01265
0.0114048
0.0113693
0.00910042
0.00907013
0.00822466
0.00819797
0.0580185
0.171031
0.0545147
0.16446
0.0467431
0.147446
0.043973
0.141979
0.416181
0.538919
0.405949
0.526594
0.377125
0.490608
0.368291
0.479882
0.548524
0.424359
0.545329
0.421675
0.498767
0.384029
0.496094
0.381797
0.176376
0.0608771
0.174663
0.0600019
0.15179
0.0489433
0.150421
0.0482854
0.0137023
0.0136582
0.0133956
0.013353
0.00976769
0.0097342
0.00957056
0.00953815
0.060803
0.176361
0.0599298
0.174648
0.04888
0.151772
0.0482238
0.150403
0.42448
0.548852
0.421792
0.545646
0.384126
0.499046
0.381891
0.496363
0.550389
0.425994
0.550029
0.425651
0.500253
0.385335
0.499995
0.38508
0.177433
0.0613896
0.177216
0.0613023
0.1526
0.0493073
0.152447
0.0492546
0.013862
0.0138169
0.0138471
0.0138023
0.00986182
0.00982759
0.0098575
0.00982347
0.0613138
0.177419
0.0612271
0.177202
0.0492427
0.152582
0.0491904
0.152429
0.426119
0.550727
0.425775
0.550364
0.385436
0.500539
0.38518
0.500279
0.55015
0.425908
0.550437
0.426091
0.500008
0.385234
0.50027
0.385399
0.177429
0.0613911
0.177526
0.061441
0.152579
0.0493001
0.152665
0.0493417
0.0138599
0.0138147
0.0138799
0.0138347
0.009858
0.00982373
0.00987253
0.00983826
0.061315
0.177414
0.0613651
0.177512
0.0492353
0.152561
0.049277
0.152647
0.426033
0.550489
0.426216
0.550776
0.385335
0.500295
0.3855
0.500557
0.54935
0.425397
0.54988
0.425756
0.499281
0.384777
0.499757
0.385094
0.177184
0.0612811
0.177375
0.0613735
0.152364
0.0492069
0.152529
0.0492832
0.0138184
0.0137732
0.0138539
0.0138087
0.00982663
0.00979238
0.0098524
0.00981813
0.0612049
0.177169
0.0612974
0.17736
0.049142
0.152346
0.0492183
0.152511
0.425522
0.549689
0.425881
0.550219
0.384877
0.499568
0.385195
0.500045
0.548269
0.424677
0.548926
0.425132
0.498301
0.384136
0.498894
0.384539
0.17682
0.061114
0.177067
0.0612338
0.152049
0.0490677
0.152262
0.0491665
0.0137563
0.0137112
0.0138016
0.0137564
0.0097808
0.00974662
0.00981353
0.00977931
0.0610377
0.176805
0.0611576
0.177052
0.0490027
0.15203
0.0491015
0.152243
0.424801
0.548606
0.425256
0.549264
0.384236
0.498587
0.384639
0.49918
0.546996
0.423829
0.547745
0.424345
0.497142
0.38338
0.497821
0.383839
0.176388
0.060914
0.17667
0.0610509
0.151673
0.0489006
0.151916
0.0490141
0.0136829
0.0136378
0.0137342
0.013689
0.00972686
0.00969278
0.00976405
0.00972991
0.0608376
0.176372
0.0609746
0.176654
0.0488356
0.151654
0.0489491
0.151898
0.423952
0.547333
0.424469
0.548082
0.383479
0.497427
0.383938
0.498106
0.54555
0.422869
0.546384
0.423439
0.495815
0.382521
0.496576
0.383029
0.1759
0.0606878
0.176209
0.0608389
0.151246
0.0487109
0.151515
0.0488368
0.0136008
0.0135558
0.0136569
0.0136119
0.00966635
0.00963239
0.0097073
0.00967326
0.0606115
0.175884
0.0607626
0.176194
0.0486459
0.151227
0.0487718
0.151496
0.422992
0.545885
0.423563
0.546719
0.38262
0.496099
0.383128
0.496861
0.543935
0.421803
0.544855
0.422428
0.494328
0.381565
0.495171
0.382122
0.175358
0.0604372
0.175695
0.0606016
0.150772
0.0484999
0.151065
0.0486373
0.0135106
0.0134658
0.0135714
0.0135265
0.00959966
0.00956583
0.00964423
0.00961032
0.0603609
0.175341
0.0605254
0.175679
0.048435
0.150753
0.0485724
0.151046
0.421925
0.544268
0.42255
0.545189
0.381663
0.49461
0.382221
0.495454
0.542139
0.420622
0.543148
0.421304
0.492672
0.380509
0.493598
0.381115
0.17476
0.0601613
0.175125
0.060339
0.150249
0.0482673
0.150566
0.048416
0.0134122
0.0133676
0.0134777
0.013433
0.00952668
0.009493
0.00957485
0.00954108
0.060085
0.174743
0.0602628
0.175109
0.0482024
0.150229
0.0483511
0.150547
0.420743
0.54247
0.421425
0.543481
0.380606
0.492953
0.381212
0.49388
0.540163
0.419328
0.541262
0.420066
0.490847
0.379353
0.491858
0.380009
0.174105
0.0598598
0.174499
0.0600507
0.149676
0.0480124
0.150018
0.0481725
0.0133053
0.0132609
0.0133757
0.0133311
0.00944721
0.00941371
0.00949902
0.00946541
0.0597836
0.174088
0.0599746
0.174482
0.0479476
0.149656
0.0481077
0.149998
0.419448
0.540492
0.420186
0.541593
0.379449
0.491126
0.380106
0.492138
0.537994
0.417912
0.539191
0.418711
0.488837
0.378088
0.489942
0.3788
0.173391
0.0595313
0.173815
0.0597361
0.14905
0.047734
0.149419
0.047906
0.0131896
0.0131453
0.0132648
0.0132204
0.0093608
0.0093275
0.00941622
0.0093828
0.0594552
0.173373
0.05966
0.173798
0.0476694
0.14903
0.0478413
0.149399
0.41803
0.538321
0.41883
0.53952
0.378183
0.489114
0.378895
0.49022
0.535622
0.416385
0.536924
0.417239
0.486637
0.376716
0.487838
0.377481
0.172617
0.0591747
0.173071
0.0593937
0.148369
0.0474309
0.148766
0.0476154
0.0130646
0.0130206
0.0131446
0.0131005
0.00926722
0.00923414
0.00932623
0.00929303
0.0590987
0.172599
0.0593177
0.173054
0.0473663
0.148349
0.0475508
0.148746
0.416502
0.535948
0.417357
0.53725
0.37681
0.486912
0.377576
0.488115
0.533034
0.414724
0.534444
0.415648
0.484231
0.375227
0.485537
0.376051
0.171776
0.0587883
0.172264
0.0590222
0.147629
0.0471012
0.148056
0.0472991
0.0129299
0.0128862
0.0130148
0.0129709
0.00916599
0.00913315
0.0092288
0.00919582
0.0587124
0.171758
0.0589463
0.172246
0.0470368
0.147608
0.0472346
0.148035
0.41484
0.533357
0.415765
0.534768
0.375319
0.484504
0.376145
0.485811
0.530232
0.41293
0.531748
0.413917
0.481602
0.373605
0.483022
0.3745
0.17087
0.0583716
0.17139
0.0586206
0.146824
0.0467433
0.147284
0.0469554
0.0127852
0.0127417
0.012875
0.0128314
0.00905679
0.0090242
0.0091235
0.00909077
0.0582958
0.170851
0.0585448
0.171372
0.046679
0.146803
0.046891
0.147264
0.413045
0.530552
0.414032
0.53207
0.373696
0.481874
0.374592
0.483294
0.527193
0.411022
0.528831
0.412068
0.478754
0.371827
0.48028
0.372798
0.169896
0.0579225
0.170451
0.0581878
0.14595
0.0463564
0.146444
0.0465828
0.0126302
0.012587
0.012725
0.0126817
0.00893949
0.00890719
0.00901013
0.00897767
0.0578469
0.169877
0.0581122
0.170432
0.0462923
0.145929
0.0465186
0.146423
0.411134
0.527511
0.412182
0.52915
0.371917
0.479023
0.372888
0.48055
0.52391
0.408962
0.52567
0.410086
0.47569
0.36992
0.477326
0.370954
0.168847
0.0574391
0.16944
0.0577215
0.145011
0.0459404
0.145538
0.0461813
0.0124642
0.0124213
0.0125644
0.0125214
0.00881406
0.00878206
0.00888864
0.00885648
0.0573636
0.168827
0.057646
0.16942
0.0458765
0.144989
0.0461172
0.145516
0.409073
0.524224
0.410198
0.525986
0.370009
0.475957
0.371044
0.477593
0.520382
0.406749
0.522264
0.407949
0.472402
0.367882
0.47415
0.368982
0.16772
0.056921
0.168352
0.0572206
0.144006
0.0454946
0.144566
0.0457503
0.0122872
0.0122447
0.0123927
0.01235
0.00868045
0.00864878
0.00875897
0.00872712
0.0568457
0.1677
0.0571453
0.168332
0.0454308
0.143983
0.0456864
0.144544
0.406859
0.520694
0.40806
0.522577
0.367969
0.472666
0.36907
0.474415
0.516613
0.404384
0.518615
0.40566
0.468884
0.365709
0.470747
0.366877
0.166517
0.0563681
0.167187
0.0566849
0.142931
0.0450184
0.143526
0.0452891
0.0120996
0.0120575
0.0122102
0.0121679
0.00853881
0.0085075
0.00862115
0.00858964
0.0562929
0.166496
0.0566097
0.167166
0.0449548
0.142908
0.0452254
0.143503
0.404492
0.516921
0.405769
0.518925
0.365795
0.469144
0.366963
0.471009
0.512607
0.401867
0.514726
0.403219
0.46514
0.363381
0.467113
0.36463
0.165237
0.055781
0.165945
0.0561145
0.141784
0.0445122
0.142414
0.0447975
0.0119019
0.0118602
0.0120172
0.0119753
0.00838959
0.00835866
0.00847548
0.00844434
0.055706
0.165216
0.0560394
0.165924
0.0444488
0.14176
0.044734
0.142391
0.401973
0.512912
0.403326
0.515032
0.363465
0.465397
0.364715
0.467373
0.508378
0.399206
0.510607
0.400628
0.461193
0.360917
0.463266
0.362227
0.163886
0.0551616
0.164628
0.0555108
0.140573
0.0439782
0.141234
0.044277
0.0116946
0.0116534
0.0118144
0.0117729
0.0082334
0.00820287
0.00832251
0.00829177
0.0550868
0.163864
0.055436
0.164607
0.0439151
0.140549
0.0442137
0.141211
0.39931
0.508679
0.400732
0.510909
0.361
0.461448
0.36231
0.463522
0.503941
0.396413
0.506271
0.397899
0.457055
0.35834
0.459222
0.359706
0.162466
0.0545117
0.163242
0.0548756
0.139302
0.0434181
0.139993
0.0437294
0.0114788
0.011438
0.0116024
0.0115614
0.00807097
0.00804087
0.0081629
0.00813257
0.0544371
0.162443
0.0548009
0.16322
0.0433552
0.139278
0.0436665
0.139969
0.396514
0.504238
0.398001
0.50657
0.35842
0.457306
0.359787
0.459475
0.499314
0.393499
0.501735
0.395043
0.45274
0.355653
0.454992
0.357072
0.160985
0.053834
0.161791
0.0542111
0.137975
0.0428342
0.138693
0.0431568
0.0112554
0.0112151
0.0113824
0.0113418
0.00790326
0.00787361
0.00799749
0.0079676
0.0537597
0.160961
0.0541367
0.161768
0.0427716
0.13795
0.0430941
0.138669
0.393598
0.499607
0.395143
0.50203
0.355731
0.452988
0.357152
0.455242
0.494526
0.390478
0.497024
0.392073
0.448276
0.352867
0.450599
0.354334
0.159449
0.0531321
0.160281
0.0535205
0.136599
0.0422301
0.13734
0.042562
0.0110258
0.010986
0.0111554
0.0111154
0.00773145
0.00770227
0.00782736
0.00779794
0.053058
0.159425
0.0534464
0.160257
0.0421678
0.136574
0.0424996
0.137315
0.390575
0.494815
0.392171
0.497315
0.352944
0.44852
0.354411
0.450845
0.489606
0.387371
0.492165
0.389006
0.443694
0.350002
0.446071
0.351505
0.157869
0.0524102
0.158721
0.0528077
0.135185
0.04161
0.135944
0.0419491
0.0107915
0.0107522
0.010923
0.0108834
0.00755674
0.00752806
0.00765373
0.00762479
0.0523364
0.157844
0.0527339
0.158697
0.0415481
0.135159
0.041887
0.135918
0.387465
0.489891
0.389102
0.492452
0.350077
0.443935
0.35158
0.446314
0.48459
0.384196
0.487193
0.385862
0.439029
0.347081
0.441443
0.348609
0.156253
0.0516732
0.157122
0.0520773
0.133742
0.0409785
0.134514
0.0413225
0.0105543
0.0105157
0.0106867
0.0106478
0.00738053
0.00735235
0.00747787
0.00744942
0.0515997
0.156228
0.0520038
0.157096
0.040917
0.133715
0.0412608
0.134487
0.384288
0.48487
0.385955
0.487475
0.347153
0.439265
0.348682
0.441681
0.479515
0.380976
0.482142
0.382662
0.434315
0.344124
0.436748
0.345667
0.154615
0.0509266
0.155493
0.0513345
0.132282
0.0403404
0.13306
0.0406867
0.0103163
0.0102782
0.0104486
0.0104102
0.00720433
0.00717666
0.00730124
0.00727331
0.0508535
0.154589
0.0512613
0.155467
0.0402792
0.132254
0.0406254
0.133033
0.381065
0.479791
0.382752
0.48242
0.344194
0.434548
0.345738
0.436983
0.474422
0.377735
0.477052
0.379427
0.429591
0.341153
0.432024
0.342699
0.152966
0.0501763
0.153848
0.050585
0.130815
0.0397009
0.131595
0.0400469
0.0100793
0.0100418
0.0102105
0.0101727
0.00702967
0.00700252
0.00712539
0.00709797
0.0501036
0.152939
0.0505121
0.153821
0.0396401
0.130787
0.039986
0.131567
0.377822
0.474693
0.379515
0.477325
0.341221
0.42982
0.342769
0.432255
0.469352
0.374497
0.471965
0.376184
0.424896
0.338191
0.427309
0.33973
0.15132
0.0494286
0.152198
0.0498349
0.129353
0.0390653
0.130129
0.0394084
0.00984548
0.00980856
0.00997455
0.00993732
0.00685806
0.00683143
0.00695185
0.00692495
0.0493562
0.151292
0.0497623
0.15217
0.0390049
0.129324
0.0393478
0.1301
0.374581
0.469619
0.37627
0.472234
0.338257
0.425121
0.339797
0.427536
0.464346
0.371286
0.466922
0.372956
0.420268
0.335261
0.422643
0.336781
0.149689
0.0486896
0.150557
0.0490905
0.127908
0.0384391
0.128674
0.0387766
0.0096168
0.00958048
0.00974276
0.00970612
0.00669098
0.00666487
0.00678211
0.00675573
0.0486176
0.14966
0.0490183
0.150529
0.0383791
0.127879
0.0387164
0.128645
0.371368
0.464609
0.37304
0.467186
0.335325
0.420489
0.336846
0.422866
0.459432
0.368118
0.461959
0.369766
0.415733
0.332377
0.418059
0.333872
0.14808
0.0479639
0.148937
0.0483575
0.126488
0.0378265
0.12724
0.0381565
0.00939497
0.00935924
0.00951705
0.00948101
0.00652969
0.00650408
0.00661757
0.00659171
0.0478923
0.148051
0.0482857
0.148908
0.037767
0.126458
0.0380967
0.127211
0.368198
0.459689
0.369847
0.462219
0.332439
0.41595
0.333935
0.418279
0.454574
0.364959
0.457085
0.366613
0.411269
0.329517
0.413568
0.331007
0.146476
0.0472468
0.147336
0.0476377
0.125081
0.0372259
0.125831
0.0375506
0.00917993
0.0091448
0.00929859
0.00926314
0.00637451
0.00634941
0.00645922
0.00643386
0.0471756
0.146446
0.0475663
0.147307
0.0371668
0.125051
0.0374913
0.125801
0.365036
0.454827
0.366691
0.45734
0.329576
0.411482
0.331068
0.413784
0.449527
0.361603
0.452186
0.3634
0.406674
0.326518
0.409084
0.328114
0.144753
0.0464911
0.1457
0.0469121
0.123598
0.036607
0.124407
0.036948
0.00896286
0.00892838
0.00908454
0.00904971
0.00622099
0.00619643
0.00630588
0.00628103
0.0464206
0.144722
0.0468413
0.14567
0.0365485
0.123568
0.0368892
0.124376
0.361676
0.449774
0.363476
0.452436
0.326575
0.406883
0.328173
0.409295
0.44348
0.35731
0.446793
0.359726
0.401256
0.32277
0.404213
0.324868
0.142449
0.0454986
0.143782
0.0460798
0.121681
0.0358306
0.122782
0.0362805
0.00869867
0.00866512
0.00885366
0.00881958
0.00604351
0.00601966
0.00614606
0.0061218
0.0454291
0.142418
0.0460097
0.143751
0.035773
0.12165
0.0362224
0.122751
0.35738
0.443719
0.359798
0.447036
0.322824
0.401458
0.324924
0.404418
0.434829
0.349461
0.439641
0.354232
0.393499
0.315986
0.397832
0.320116
0.138026
0.0436145
0.140739
0.0447717
0.118061
0.0344006
0.120283
0.0352788