/*--------------------------------*- C++ -*----------------------------------*\
  =========                 |
  \\      /  F ield         | OpenFOAM: The Open Source CFD Toolbox
   \\    /   O peration     | Website:  https://openfoam.org
    \\  /    A nd           | Version:  9
     \\/     M anipulation  |
\*---------------------------------------------------------------------------*/
FoamFile
{
    format      ascii;
    class       surfaceScalarField;
    location    "1";
    object      phi;
}
// * * * * * * * * * * * * * * * * * * * * * * * * * * * * * * * * * * * * * //

dimensions      [0 3 -1 0 0 0 0];

internalField   nonuniform List<scalar> 
104044
(
-3.89358e-11
-2.77987e-05
-3.80206e-09
2.77906e-05
1.19795e-08
-2.77988e-05
-3.77119e-09
-3.54639e-13
2.77906e-05
1.19407e-08
4.20455e-11
-5.38151e-09
1.38084e-08
-5.42795e-09
2.43712e-12
1.38368e-08
-2.67304e-11
-9.6741e-06
9.67032e-06
-9.67416e-06
-1.29924e-12
9.67037e-06
4.02848e-11
2.87255e-12
1.09939e-12
-2.77988e-05
-3.76451e-09
2.77906e-05
1.19337e-08
-2.77988e-05
-3.76447e-09
4.15923e-13
2.77906e-05
1.19331e-08
-2.29524e-13
-5.43226e-09
1.38489e-08
-5.43293e-09
-7.52303e-14
1.38514e-08
5.45072e-13
-9.67413e-06
9.67036e-06
-9.67413e-06
3.95312e-13
9.67036e-06
-7.42938e-14
-5.14132e-14
-4.9786e-14
-2.77988e-05
-3.76494e-09
2.77906e-05
1.19336e-08
-2.77988e-05
-3.765e-09
-4.97248e-13
2.77906e-05
1.19338e-08
-2.70823e-14
-5.43306e-09
1.38521e-08
-5.43315e-09
2.58609e-14
1.38523e-08
-4.64004e-14
-9.67413e-06
9.67036e-06
-9.67413e-06
-4.84545e-13
9.67036e-06
-1.90358e-14
8.83268e-15
-1.17237e-12
-2.77988e-05
-3.76466e-09
2.77906e-05
1.19337e-08
-2.77988e-05
-3.7648e-09
2.70189e-13
2.77906e-05
1.19345e-08
1.94042e-13
-5.4332e-09
1.38521e-08
-5.43267e-09
-2.47489e-12
1.385e-08
-6.17031e-13
-9.67413e-06
9.67036e-06
-9.67413e-06
1.25329e-12
9.67037e-06
2.86351e-14
-2.94275e-12
3.90508e-11
-2.77988e-05
-3.77153e-09
2.77906e-05
1.19418e-08
-2.77987e-05
-3.80251e-09
2.77906e-05
1.19806e-08
-4.2093e-11
-5.42848e-09
1.38382e-08
-5.38208e-09
1.38098e-08
2.66782e-11
-9.67417e-06
9.67037e-06
-9.6741e-06
9.67033e-06
-4.03848e-11
-7.61483e-12
-2.77826e-05
-3.22833e-09
2.7774e-05
1.17988e-08
-2.77826e-05
-3.23465e-09
-5.83098e-13
2.77741e-05
1.18004e-08
-1.29776e-11
-3.19239e-09
1.11874e-08
-3.19768e-09
2.0241e-12
1.11829e-08
-2.99477e-12
-9.66714e-06
9.66391e-06
-9.66716e-06
-7.52362e-13
9.66392e-06
-8.8753e-12
7.82586e-13
9.75723e-13
-2.77826e-05
-3.23435e-09
2.77741e-05
1.18036e-08
-2.77826e-05
-3.23568e-09
6.68145e-13
2.77741e-05
1.18057e-08
2.10425e-12
-3.20123e-09
1.11878e-08
-3.20452e-09
6.19746e-13
1.11914e-08
7.42154e-13
-9.66716e-06
9.66393e-06
-9.66716e-06
6.52878e-13
9.66392e-06
1.69393e-12
6.86235e-13
5.71013e-14
-2.77826e-05
-3.23639e-09
2.77741e-05
1.18068e-08
-2.77826e-05
-3.23644e-09
-5.62309e-13
2.77741e-05
1.18069e-08
-3.07408e-14
-3.20589e-09
1.11931e-08
-3.20594e-09
-6.84442e-13
1.11932e-08
5.43024e-14
-9.66716e-06
9.66392e-06
-9.66716e-06
-5.37465e-13
9.66392e-06
-1.81573e-14
-7.29125e-13
-8.80299e-13
-2.77826e-05
-3.23583e-09
2.77741e-05
1.18062e-08
-2.77826e-05
-3.23456e-09
6.52557e-13
2.77741e-05
1.18044e-08
-2.14815e-12
-3.20468e-09
1.11919e-08
-3.20145e-09
-2.04816e-12
1.11886e-08
-6.19075e-13
-9.66716e-06
9.66393e-06
-9.66716e-06
8.36566e-13
9.66393e-06
-1.72674e-12
-8.10042e-13
7.49445e-12
-2.77826e-05
-3.2349e-09
2.77741e-05
1.18013e-08
-2.77826e-05
-3.22849e-09
2.77741e-05
1.17999e-08
1.29655e-11
-3.19795e-09
1.11838e-08
-3.19263e-09
1.11885e-08
2.98653e-12
-9.66716e-06
9.66393e-06
-9.66714e-06
9.66392e-06
8.8751e-12
-6.36627e-12
-2.77645e-05
-4.1182e-09
2.77533e-05
1.53437e-08
-2.77645e-05
-4.12263e-09
-9.89183e-13
2.77533e-05
1.53427e-08
-7.2101e-12
-3.51661e-09
1.30658e-08
-3.51997e-09
-1.15068e-12
1.3065e-08
-1.33133e-13
-9.6604e-06
9.65628e-06
-9.66041e-06
-1.76421e-12
9.65628e-06
-1.63068e-12
-1.77182e-12
2.096e-13
-2.77645e-05
-4.11944e-09
2.77533e-05
1.53438e-08
-2.77645e-05
-4.12015e-09
4.33913e-13
2.77533e-05
1.53448e-08
4.93567e-13
-3.51727e-09
1.30661e-08
-3.51808e-09
6.10922e-13
1.30674e-08
-8.26754e-14
-9.66041e-06
9.65629e-06
-9.66041e-06
3.67284e-13
9.65629e-06
2.26506e-13
5.41471e-13
7.03084e-14
-2.77645e-05
-4.12067e-09
2.77533e-05
1.53456e-08
-2.77645e-05
-4.12072e-09
-3.10725e-13
2.77533e-05
1.53457e-08
1.04487e-13
-3.51866e-09
1.30682e-08
-3.51871e-09
-4.1175e-13
1.30684e-08
5.57002e-14
-9.66041e-06
9.65629e-06
-9.66041e-06
-2.46508e-13
9.65629e-06
9.05179e-14
-3.57736e-13
-1.06556e-13
-2.77645e-05
-4.12028e-09
2.77533e-05
1.53452e-08
-2.77645e-05
-4.11961e-09
1.13352e-12
2.77533e-05
1.53445e-08
-3.18918e-13
-3.51824e-09
1.30678e-08
-3.51747e-09
1.24936e-12
1.30669e-08
1.71784e-13
-9.66041e-06
9.65629e-06
-9.66041e-06
1.8536e-12
9.65629e-06
-5.0464e-14
1.93048e-12
6.34785e-12
-2.77645e-05
-4.12291e-09
2.77533e-05
1.53435e-08
-2.77645e-05
-4.11847e-09
2.77533e-05
1.53447e-08
7.17761e-12
-3.52025e-09
1.3066e-08
-3.51678e-09
1.30669e-08
1.95764e-13
-9.66041e-06
9.65629e-06
-9.6604e-06
9.65628e-06
1.8032e-12
-6.13669e-12
-2.77402e-05
-5.80368e-09
2.77245e-05
2.15081e-08
-2.77402e-05
-5.8107e-09
-8.52364e-13
2.77245e-05
2.15065e-08
-5.84044e-12
-4.83202e-09
1.79613e-08
-4.83778e-09
-1.00936e-12
1.79602e-08
2.22014e-12
-9.65145e-06
9.64564e-06
-9.65145e-06
-1.4681e-12
9.64564e-06
1.12084e-12
-1.63036e-12
-1.75807e-13
-2.77402e-05
-5.80641e-09
2.77245e-05
2.15078e-08
-2.77402e-05
-5.8068e-09
1.10806e-13
2.77245e-05
2.15084e-08
-5.14892e-14
-4.83411e-09
1.79614e-08
-4.83463e-09
2.40806e-13
1.79621e-08
-4.05238e-13
-9.65145e-06
9.64564e-06
-9.65145e-06
4.99141e-14
9.64564e-06
-2.892e-13
1.57567e-13
-4.14699e-14
-2.77402e-05
-5.80718e-09
2.77245e-05
2.1509e-08
-2.77402e-05
-5.80722e-09
-1.91017e-13
2.77245e-05
2.15091e-08
-1.1805e-14
-4.83505e-09
1.79628e-08
-4.83509e-09
-2.43259e-13
1.79629e-08
-3.20329e-14
-9.65145e-06
9.64564e-06
-9.65145e-06
-1.13127e-13
9.64564e-06
-6.72357e-15
-1.5867e-13
9.67158e-14
-2.77402e-05
-5.80689e-09
2.77245e-05
2.15087e-08
-2.77402e-05
-5.80654e-09
8.52006e-13
2.77245e-05
2.15082e-08
4.49912e-14
-4.83473e-09
1.79625e-08
-4.83425e-09
9.98614e-13
1.7962e-08
3.53367e-13
-9.65145e-06
9.64564e-06
-9.65145e-06
1.48125e-12
9.64564e-06
2.90777e-13
1.62917e-12
6.23485e-12
-2.77402e-05
-5.81095e-09
2.77245e-05
2.15071e-08
-2.77402e-05
-5.80402e-09
2.77245e-05
2.15087e-08
5.92411e-12
-4.83803e-09
1.79609e-08
-4.83239e-09
1.7962e-08
-2.1884e-12
-9.65145e-06
9.64564e-06
-9.65145e-06
9.64564e-06
-1.12839e-12
-7.52494e-12
-2.77061e-05
-8.04524e-09
2.76845e-05
2.96671e-08
-2.77061e-05
-8.05506e-09
-5.23909e-13
2.76845e-05
2.96648e-08
-6.69415e-12
-6.79789e-09
2.51197e-08
-6.80615e-09
-6.94145e-13
2.5118e-08
4.04622e-12
-9.63884e-06
9.63079e-06
-9.63884e-06
-1.21647e-12
9.63079e-06
3.10457e-12
-1.24563e-12
-9.5151e-14
-2.77061e-05
-8.04937e-09
2.76845e-05
2.96664e-08
-2.77061e-05
-8.04963e-09
1.00248e-13
2.76845e-05
2.96669e-08
-1.38118e-13
-6.80128e-09
2.51194e-08
-6.80158e-09
9.48083e-14
2.512e-08
-4.5622e-13
-9.63884e-06
9.63079e-06
-9.63884e-06
1.54081e-14
9.63079e-06
-4.23234e-13
2.72418e-14
5.19329e-14
-2.77061e-05
-8.04998e-09
2.76845e-05
2.96674e-08
-2.77061e-05
-8.05001e-09
1.59584e-15
2.76845e-05
2.96675e-08
2.91858e-15
-6.80194e-09
2.51205e-08
-6.80198e-09
-7.75896e-14
2.51206e-08
4.23933e-14
-9.63884e-06
9.63079e-06
-9.63884e-06
7.17367e-14
9.63079e-06
6.72697e-15
-1.62162e-14
1.7782e-13
-2.77061e-05
-8.04968e-09
2.76845e-05
2.96671e-08
-2.77061e-05
-8.04947e-09
6.11387e-13
2.76845e-05
2.96666e-08
1.56386e-13
-6.80166e-09
2.51202e-08
-6.80141e-09
7.25492e-13
2.51198e-08
5.52383e-13
-9.63884e-06
9.63079e-06
-9.63884e-06
1.29067e-12
9.63079e-06
4.70254e-13
1.31537e-12
7.54799e-12
-2.77061e-05
-8.0552e-09
2.76845e-05
2.96651e-08
-2.77062e-05
-8.04532e-09
2.76845e-05
2.96676e-08
6.69137e-12
-6.80637e-09
2.51185e-08
-6.79811e-09
2.51203e-08
-3.97123e-12
-9.63884e-06
9.63079e-06
-9.63884e-06
9.63079e-06
-3.07815e-12
-9.31759e-12
-2.76598e-05
-1.07107e-08
2.76311e-05
3.9397e-08
-2.76597e-05
-1.0724e-08
-3.20521e-13
2.76311e-05
3.93934e-08
-8.24594e-12
-9.2397e-09
3.4017e-08
-9.25106e-09
-4.25114e-13
3.40143e-08
5.74841e-12
-9.62155e-06
9.61083e-06
-9.62155e-06
-1.262e-12
9.61083e-06
4.80576e-12
-1.22838e-12
-6.67634e-14
-2.76597e-05
-1.07165e-08
2.76311e-05
3.93955e-08
-2.76597e-05
-1.07168e-08
3.64223e-14
2.76311e-05
3.9396e-08
-8.46269e-14
-9.24461e-09
3.40161e-08
-9.24485e-09
6.02151e-14
3.40166e-08
-5.77547e-13
-9.62155e-06
9.61083e-06
-9.62155e-06
-5.89042e-14
9.61083e-06
-5.20305e-13
-2.92071e-14
5.10919e-14
-2.76597e-05
-1.07171e-08
2.76311e-05
3.93964e-08
-2.76598e-05
-1.07171e-08
6.59609e-14
2.76311e-05
3.93965e-08
4.6905e-14
-9.2452e-09
3.40171e-08
-9.2452e-09
2.55124e-14
3.40171e-08
6.04772e-14
-9.62155e-06
9.61083e-06
-9.62155e-06
1.65992e-13
9.61083e-06
4.16881e-14
1.02684e-13
1.56351e-13
-2.76597e-05
-1.07167e-08
2.76311e-05
3.93961e-08
-2.76597e-05
-1.07165e-08
4.0737e-13
2.76311e-05
3.93955e-08
1.5186e-13
-9.24486e-09
3.40167e-08
-9.24464e-09
4.63117e-13
3.40162e-08
6.68838e-13
-9.62155e-06
9.61083e-06
-9.62155e-06
1.31907e-12
9.61083e-06
5.88153e-13
1.23514e-12
9.48861e-12
-2.76598e-05
-1.07239e-08
2.76311e-05
3.93934e-08
-2.76598e-05
-1.07107e-08
2.76311e-05
3.9397e-08
8.30314e-12
-9.25111e-09
3.40144e-08
-9.23974e-09
3.40172e-08
-5.7382e-12
-9.62155e-06
9.61083e-06
-9.62155e-06
9.61083e-06
-4.88923e-12
-1.21095e-11
-2.75988e-05
-1.37266e-08
2.75621e-05
5.04496e-08
-2.75988e-05
-1.37433e-08
-2.38821e-13
2.75621e-05
5.04446e-08
-1.05271e-11
-1.2062e-08
4.43391e-08
-1.20767e-08
-2.43416e-13
4.4335e-08
7.41954e-12
-9.59876e-06
9.58503e-06
-9.59876e-06
-1.32147e-12
9.58503e-06
6.59736e-12
-1.25423e-12
2.4763e-14
-2.75988e-05
-1.37338e-08
2.75621e-05
5.04473e-08
-2.75988e-05
-1.37341e-08
6.91219e-14
2.75621e-05
5.04478e-08
-2.07657e-14
-1.20684e-08
4.43373e-08
-1.20686e-08
6.47363e-14
4.43379e-08
-5.74424e-13
-9.59876e-06
9.58503e-06
-9.59876e-06
-3.39438e-15
9.58503e-06
-5.52835e-13
-8.46079e-16
9.23503e-14
-2.75988e-05
-1.37345e-08
2.75621e-05
5.04482e-08
-2.75988e-05
-1.37345e-08
1.087e-13
2.75621e-05
5.04481e-08
9.4525e-14
-1.2069e-08
4.43383e-08
-1.2069e-08
1.12092e-13
4.43383e-08
1.16026e-13
-9.59876e-06
9.58503e-06
-9.59876e-06
2.30952e-13
9.58503e-06
1.1448e-13
2.2699e-13
1.42792e-13
-2.75988e-05
-1.3734e-08
2.75621e-05
5.04477e-08
-2.75988e-05
-1.37338e-08
3.0777e-13
2.75621e-05
5.04471e-08
1.84853e-13
-1.20686e-08
4.43378e-08
-1.20683e-08
3.71088e-13
4.43373e-08
7.80853e-13
-9.59876e-06
9.58503e-06
-9.59876e-06
1.50334e-12
9.58503e-06
7.40439e-13
1.41018e-12
1.19313e-11
-2.75988e-05
-1.37432e-08
2.75621e-05
5.04445e-08
-2.75988e-05
-1.37263e-08
2.75621e-05
5.04496e-08
1.05603e-11
-1.20766e-08
4.43349e-08
-1.20618e-08
4.4339e-08
-7.40076e-12
-9.59876e-06
9.58503e-06
-9.59876e-06
9.58503e-06
-6.49156e-12
-1.45195e-11
-2.75214e-05
-1.70787e-08
2.74757e-05
6.27811e-08
-2.75214e-05
-1.70994e-08
-5.25774e-14
2.74757e-05
6.27745e-08
-1.31313e-11
-1.52118e-08
5.59043e-08
-1.52301e-08
-8.07825e-14
5.58988e-08
9.42878e-12
-9.56981e-06
9.55272e-06
-9.56981e-06
-1.47833e-12
9.55272e-06
8.45278e-12
-1.3495e-12
7.64269e-14
-2.75214e-05
-1.70878e-08
2.74757e-05
6.27776e-08
-2.75214e-05
-1.7088e-08
-2.42775e-15
2.74757e-05
6.27781e-08
5.81373e-14
-1.52197e-08
5.59016e-08
-1.52199e-08
3.1588e-14
5.59021e-08
-7.0033e-13
-9.56981e-06
9.55272e-06
-9.56981e-06
-1.29975e-13
9.55272e-06
-6.20431e-13
-7.16974e-14
-2.47083e-14
-2.75214e-05
-1.70884e-08
2.74757e-05
6.27784e-08
-2.75214e-05
-1.70884e-08
-2.87222e-14
2.74757e-05
6.27784e-08
2.88744e-14
-1.52204e-08
5.59025e-08
-1.52203e-08
3.0716e-14
5.59025e-08
-3.81991e-14
-9.56981e-06
9.55272e-06
-9.56981e-06
4.65294e-14
9.55272e-06
3.1605e-14
1.44806e-13
-1.01803e-13
-2.75214e-05
-1.70879e-08
2.74757e-05
6.2778e-08
-2.75214e-05
-1.70877e-08
3.61223e-14
2.74757e-05
6.27774e-08
2.09723e-14
-1.52199e-08
5.5902e-08
-1.52196e-08
1.9124e-13
5.59015e-08
6.63153e-13
-9.56981e-06
9.55272e-06
-9.56981e-06
1.48598e-12
9.55272e-06
7.28322e-13
1.5173e-12
1.45398e-11
-2.75214e-05
-1.70993e-08
2.74757e-05
6.27742e-08
-2.75214e-05
-1.70785e-08
2.74757e-05
6.2781e-08
1.31103e-11
-1.523e-08
5.58986e-08
-1.52115e-08
5.59042e-08
-9.44822e-12
-9.56981e-06
9.55272e-06
-9.56981e-06
9.55272e-06
-8.24863e-12
-1.74381e-11
-2.74257e-05
-2.07862e-08
2.73701e-05
7.646e-08
-2.74257e-05
-2.08112e-08
5.45019e-14
2.737e-05
7.64516e-08
-1.57482e-11
-1.86958e-08
6.87398e-08
-1.87183e-08
-9.96241e-15
6.87327e-08
1.15366e-11
-9.53402e-06
9.51322e-06
-9.53401e-06
-1.7134e-12
9.51321e-06
1.03296e-11
-1.61481e-12
1.34746e-13
-2.74257e-05
-2.07971e-08
2.737e-05
7.64553e-08
-2.74257e-05
-2.07973e-08
1.64662e-14
2.737e-05
7.64558e-08
5.50749e-14
-1.87055e-08
6.87361e-08
-1.87058e-08
-4.03969e-14
6.87365e-08
-8.2292e-13
-9.53401e-06
9.51321e-06
-9.53401e-06
-1.32897e-13
9.51321e-06
-7.94438e-13
-1.61474e-13
2.70615e-14
-2.74257e-05
-2.07979e-08
2.737e-05
7.64562e-08
-2.74257e-05
-2.07978e-08
4.53614e-14
2.737e-05
7.64562e-08
-2.84741e-14
-1.87063e-08
6.87369e-08
-1.87063e-08
-1.82391e-14
6.87369e-08
2.62463e-14
-9.53401e-06
9.51321e-06
-9.53401e-06
1.81163e-13
9.51321e-06
-4.45253e-14
6.27564e-14
-5.32191e-14
-2.74257e-05
-2.07973e-08
2.737e-05
7.64558e-08
-2.74257e-05
-2.0797e-08
1.41509e-14
2.737e-05
7.64553e-08
-1.08412e-13
-1.87057e-08
6.87365e-08
-1.87055e-08
-2.35721e-14
6.87359e-08
8.62747e-13
-9.53401e-06
9.51321e-06
-9.53401e-06
1.7515e-12
9.51321e-06
7.05081e-13
1.53953e-12
1.75508e-11
-2.74257e-05
-2.08111e-08
2.737e-05
7.64515e-08
-2.74257e-05
-2.0786e-08
2.73701e-05
7.646e-08
1.57751e-11
-1.87182e-08
6.87325e-08
-1.86957e-08
6.87397e-08
-1.15069e-11
-9.53401e-06
9.51322e-06
-9.53402e-06
9.51322e-06
-1.0462e-11
-2.08552e-11
-2.73096e-05
-2.48851e-08
2.72429e-05
9.16168e-08
-2.73096e-05
-2.49148e-08
2.15129e-13
2.72429e-05
9.16065e-08
-1.89572e-11
-2.25579e-08
8.30049e-08
-2.25847e-08
1.49035e-13
8.2996e-08
1.38174e-11
-9.49065e-06
9.46575e-06
-9.49064e-06
-1.86247e-12
9.46575e-06
1.2528e-11
-1.77099e-12
3.29641e-13
-2.73096e-05
-2.48979e-08
2.72429e-05
9.16109e-08
-2.73096e-05
-2.48982e-08
1.41573e-13
2.72429e-05
9.16114e-08
2.38426e-13
-2.25694e-08
8.3e-08
-2.25697e-08
1.03784e-13
8.30006e-08
-8.28434e-13
-9.49064e-06
9.46575e-06
-9.49064e-06
-4.89173e-14
9.46575e-06
-8.05624e-13
-5.8961e-14
1.01566e-13
-2.73096e-05
-2.48988e-08
2.72429e-05
9.16118e-08
-2.73096e-05
-2.48988e-08
5.90747e-14
2.72429e-05
9.16118e-08
1.14265e-13
-2.25703e-08
8.3001e-08
-2.25703e-08
1.12441e-13
8.3001e-08
1.04317e-13
-9.49064e-06
9.46575e-06
-9.49064e-06
2.4249e-13
9.46575e-06
1.11594e-13
2.58974e-13
-1.576e-13
-2.73096e-05
-2.48982e-08
2.72429e-05
9.16114e-08
-2.73096e-05
-2.48979e-08
-1.14984e-13
2.72429e-05
9.16108e-08
-4.66924e-14
-2.25697e-08
8.30005e-08
-2.25694e-08
-6.39896e-16
8.3e-08
9.95369e-13
-9.49064e-06
9.46575e-06
-9.49064e-06
2.00037e-12
9.46575e-06
9.61291e-13
1.89055e-12
2.07803e-11
-2.73096e-05
-2.49147e-08
2.72429e-05
9.16065e-08
-2.73096e-05
-2.48849e-08
2.72429e-05
9.16169e-08
1.89512e-11
-2.25847e-08
8.29959e-08
-2.25577e-08
8.30049e-08
-1.37742e-11
-9.49065e-06
9.46575e-06
-9.49065e-06
9.46575e-06
-1.25004e-11
-2.39374e-11
-2.71709e-05
-2.94432e-08
2.70919e-05
1.08503e-07
-2.71709e-05
-2.94782e-08
4.68761e-13
2.70919e-05
1.08491e-07
-2.21728e-11
-2.68416e-08
9.88587e-08
-2.68733e-08
3.61269e-13
9.88479e-08
1.66051e-11
-9.43889e-06
9.40943e-06
-9.43889e-06
-2.03552e-12
9.40943e-06
1.50158e-11
-1.90927e-12
4.29942e-13
-2.71709e-05
-2.94584e-08
2.70919e-05
1.08496e-07
-2.71709e-05
-2.94586e-08
6.43943e-14
2.70919e-05
1.08496e-07
3.97e-13
-2.68552e-08
9.88525e-08
-2.68555e-08
1.22759e-13
9.88531e-08
-9.46032e-13
-9.43889e-06
9.40943e-06
-9.43889e-06
-1.36723e-13
9.40943e-06
-8.52535e-13
-6.7354e-14
-7.47884e-14
-2.71709e-05
-2.94593e-08
2.70919e-05
1.08497e-07
-2.71709e-05
-2.94593e-08
-2.26896e-13
2.70919e-05
1.08497e-07
3.0663e-14
-2.68561e-08
9.88535e-08
-2.68561e-08
-6.98313e-14
9.88534e-08
-6.76312e-14
-9.43889e-06
9.40943e-06
-9.43889e-06
-5.62191e-15
9.40943e-06
3.85737e-14
1.29809e-13
-5.77237e-13
-2.71709e-05
-2.94586e-08
2.70919e-05
1.08496e-07
-2.71709e-05
-2.94584e-08
-5.89422e-13
2.70919e-05
1.08496e-07
-3.4916e-13
-2.68555e-08
9.8853e-08
-2.68552e-08
-3.27807e-13
9.88525e-08
7.87966e-13
-9.43889e-06
9.40943e-06
-9.43889e-06
1.90022e-12
9.40943e-06
9.04759e-13
1.95922e-12
2.40475e-11
-2.71709e-05
-2.94782e-08
2.70919e-05
1.08491e-07
-2.71709e-05
-2.94432e-08
2.70919e-05
1.08503e-07
2.21447e-11
-2.68733e-08
9.88478e-08
-2.68415e-08
9.88587e-08
-1.66258e-11
-9.43889e-06
9.40943e-06
-9.4389e-06
9.40944e-06
-1.50038e-11
-2.75329e-11
-2.7007e-05
-3.44873e-08
2.69143e-05
1.27222e-07
-2.7007e-05
-3.45281e-08
7.34686e-13
2.69143e-05
1.27208e-07
-2.55499e-11
-3.15976e-08
1.16491e-07
-3.16347e-08
5.61913e-13
1.16478e-07
1.9635e-11
-9.37782e-06
9.34331e-06
-9.37782e-06
-2.18817e-12
9.34331e-06
1.77321e-11
-2.1296e-12
5.96876e-13
-2.7007e-05
-3.4505e-08
2.69143e-05
1.27213e-07
-2.7007e-05
-3.45052e-08
6.69231e-14
2.69143e-05
1.27214e-07
4.69092e-13
-3.16135e-08
1.16484e-07
-3.16138e-08
3.11137e-14
1.16484e-07
-1.02919e-12
-9.37781e-06
9.34331e-06
-9.37781e-06
-1.6929e-13
9.34331e-06
-9.995e-13
-1.74178e-13
-1.32833e-13
-2.7007e-05
-3.4506e-08
2.69143e-05
1.27214e-07
-2.7007e-05
-3.4506e-08
-3.3321e-13
2.69143e-05
1.27214e-07
-1.3556e-13
-3.16145e-08
1.16485e-07
-3.16145e-08
-3.34713e-13
1.16485e-07
-1.39202e-13
-9.37782e-06
9.34331e-06
-9.37782e-06
-1.18533e-13
9.34331e-06
-1.44408e-13
-1.14428e-13
-8.00713e-13
-2.7007e-05
-3.45053e-08
2.69143e-05
1.27214e-07
-2.7007e-05
-3.45051e-08
-8.79688e-13
2.69143e-05
1.27213e-07
-7.51545e-13
-3.16138e-08
1.16484e-07
-3.16136e-08
-8.11685e-13
1.16484e-07
7.60095e-13
-9.37782e-06
9.34331e-06
-9.37782e-06
1.98329e-12
9.34331e-06
7.00849e-13
1.83846e-12
2.77614e-11
-2.7007e-05
-3.45282e-08
2.69143e-05
1.27208e-07
-2.7007e-05
-3.44874e-08
2.69143e-05
1.27222e-07
2.54844e-11
-3.16348e-08
1.16478e-07
-3.15976e-08
1.16491e-07
-1.95993e-11
-9.37782e-06
9.34331e-06
-9.37782e-06
9.34331e-06
-1.80545e-11
-3.18766e-11
-2.68152e-05
-4.00964e-08
2.67072e-05
1.48074e-07
-2.68151e-05
-4.01435e-08
9.94857e-13
2.67072e-05
1.48057e-07
-2.95078e-11
-3.68531e-08
1.3601e-07
-3.68962e-08
8.57109e-13
1.35995e-07
2.2769e-11
-9.30644e-06
9.26632e-06
-9.30643e-06
-2.34991e-12
9.26632e-06
2.0765e-11
-2.28175e-12
8.31407e-13
-2.68151e-05
-4.01168e-08
2.67072e-05
1.48063e-07
-2.68151e-05
-4.01171e-08
1.69726e-13
2.67072e-05
1.48064e-07
7.02195e-13
-3.68717e-08
1.36001e-07
-3.68719e-08
1.13834e-13
1.36001e-07
-1.07138e-12
-9.30643e-06
9.26632e-06
-9.30643e-06
-1.34003e-13
9.26632e-06
-1.0549e-12
-1.57133e-13
-7.81366e-14
-2.68151e-05
-4.0118e-08
2.67072e-05
1.48064e-07
-2.68151e-05
-4.0118e-08
-2.91669e-13
2.67072e-05
1.48064e-07
-1.01065e-13
-3.68728e-08
1.36002e-07
-3.68728e-08
-3.17477e-13
1.36002e-07
-1.09236e-13
-9.30643e-06
9.26632e-06
-9.30644e-06
-4.39746e-14
9.26632e-06
-1.36274e-13
-8.31847e-14
-8.39773e-13
-2.68151e-05
-4.01171e-08
2.67072e-05
1.48064e-07
-2.68151e-05
-4.01169e-08
-9.55805e-13
2.67072e-05
1.48063e-07
-8.27065e-13
-3.6872e-08
1.36001e-07
-3.68718e-08
-9.4371e-13
1.36001e-07
9.91519e-13
-9.30643e-06
9.26632e-06
-9.30644e-06
2.35743e-12
9.26632e-06
8.44206e-13
2.10631e-12
3.20656e-11
-2.68152e-05
-4.01435e-08
2.67072e-05
1.48057e-07
-2.68152e-05
-4.00964e-08
2.67072e-05
1.48074e-07
2.94686e-11
-3.68964e-08
1.35995e-07
-3.68533e-08
1.3601e-07
-2.26385e-11
-9.30644e-06
9.26632e-06
-9.30644e-06
9.26632e-06
-2.1043e-11
-3.63507e-11
-2.65923e-05
-4.62415e-08
2.64676e-05
1.70962e-07
-2.65922e-05
-4.62955e-08
1.22803e-12
2.64676e-05
1.70943e-07
-3.38452e-11
-4.26714e-08
1.57657e-07
-4.27209e-08
1.1065e-12
1.57639e-07
2.61343e-11
-9.22362e-06
9.17735e-06
-9.22362e-06
-2.61981e-12
9.17735e-06
2.40562e-11
-2.49152e-12
9.28959e-13
-2.65922e-05
-4.6265e-08
2.64676e-05
1.7095e-07
-2.65922e-05
-4.62652e-08
1.41926e-13
2.64676e-05
1.7095e-07
8.5502e-13
-4.26927e-08
1.57646e-07
-4.26929e-08
1.33344e-13
1.57647e-07
-1.23456e-12
-9.22362e-06
9.17736e-06
-9.22362e-06
-1.55974e-13
9.17736e-06
-1.16754e-12
-1.60277e-13
-1.05632e-13
-2.65922e-05
-4.62662e-08
2.64676e-05
1.7095e-07
-2.65922e-05
-4.62662e-08
-3.34034e-13
2.64676e-05
1.7095e-07
-1.01902e-13
-4.26939e-08
1.57647e-07
-4.26939e-08
-3.10931e-13
1.57647e-07
-9.48616e-14
-9.22362e-06
9.17736e-06
-9.22362e-06
-1.16638e-14
9.17736e-06
-1.10776e-13
-9.35515e-15
-1.03265e-12
-2.65922e-05
-4.62652e-08
2.64676e-05
1.7095e-07
-2.65922e-05
-4.6265e-08
-1.26166e-12
2.64676e-05
1.7095e-07
-9.07439e-13
-4.26929e-08
1.57647e-07
-4.26927e-08
-1.08292e-12
1.57646e-07
1.13271e-12
-9.22362e-06
9.17736e-06
-9.22362e-06
2.60301e-12
9.17736e-06
1.06396e-12
2.46171e-12
3.65088e-11
-2.65922e-05
-4.62955e-08
2.64676e-05
1.70943e-07
-2.65923e-05
-4.62414e-08
2.64676e-05
1.70962e-07
3.38634e-11
-4.2721e-08
1.57639e-07
-4.26714e-08
1.57657e-07
-2.60713e-11
-9.22362e-06
9.17736e-06
-9.22362e-06
9.17736e-06
-2.42063e-11
-4.13436e-11
-2.63353e-05
-5.29832e-08
2.61922e-05
1.96127e-07
-2.63352e-05
-5.30449e-08
1.52156e-12
2.61921e-05
1.96105e-07
-3.84066e-11
-4.90392e-08
1.81397e-07
-4.90959e-08
1.36171e-12
1.81377e-07
2.98271e-11
-9.12829e-06
9.07528e-06
-9.12829e-06
-2.7928e-12
9.07528e-06
2.76759e-11
-2.70632e-12
1.17889e-12
-2.63352e-05
-5.30101e-08
2.61921e-05
1.96113e-07
-2.63352e-05
-5.30103e-08
2.8208e-13
2.61921e-05
1.96113e-07
1.00359e-12
-4.90636e-08
1.81384e-07
-4.90638e-08
1.88915e-13
1.81385e-07
-1.26183e-12
-9.12829e-06
9.07528e-06
-9.12829e-06
-2.01336e-14
9.07528e-06
-1.25365e-12
-8.67994e-14
4.71928e-14
-2.63352e-05
-5.30113e-08
2.61921e-05
1.96113e-07
-2.63352e-05
-5.30113e-08
-2.06975e-13
2.61921e-05
1.96113e-07
-3.85367e-14
-4.90648e-08
1.81385e-07
-4.90648e-08
-3.01327e-13
1.81385e-07
8.72642e-14
-9.12829e-06
9.07528e-06
-9.12829e-06
1.61294e-13
9.07528e-06
-8.86798e-15
6.72573e-14
-1.11617e-12
-2.63352e-05
-5.30103e-08
2.61921e-05
1.96113e-07
-2.63352e-05
-5.30101e-08
-1.55312e-12
2.61921e-05
1.96113e-07
-1.09703e-12
-4.90638e-08
1.81385e-07
-4.90636e-08
-1.4293e-12
1.81384e-07
1.35637e-12
-9.12829e-06
9.07528e-06
-9.12829e-06
2.85219e-12
9.07528e-06
1.20188e-12
2.69462e-12
4.12767e-11
-2.63352e-05
-5.30449e-08
2.61921e-05
1.96105e-07
-2.63353e-05
-5.29831e-08
2.61922e-05
1.96127e-07
3.83984e-11
-4.90958e-08
1.81377e-07
-4.90391e-08
1.81396e-07
-2.9882e-11
-9.12829e-06
9.07528e-06
-9.12829e-06
9.07528e-06
-2.76802e-11
-4.65689e-11
-2.60408e-05
-6.02836e-08
2.58777e-05
2.23443e-07
-2.60408e-05
-6.03533e-08
1.98181e-12
2.58777e-05
2.23418e-07
-4.34706e-11
-5.60035e-08
2.07419e-07
-5.60677e-08
1.82964e-12
2.07397e-07
3.39992e-11
-9.01924e-06
8.95893e-06
-9.01925e-06
-2.8764e-12
8.95893e-06
3.17453e-11
-2.7733e-12
1.51208e-12
-2.60408e-05
-6.0314e-08
2.58777e-05
2.23427e-07
-2.60408e-05
-6.03141e-08
3.95357e-13
2.58777e-05
2.23427e-07
1.33409e-12
-5.60311e-08
2.07405e-07
-5.60312e-08
3.71177e-13
2.07406e-07
-1.26569e-12
-9.01925e-06
8.95893e-06
-9.01925e-06
5.20231e-14
8.95894e-06
-1.21345e-12
8.93674e-14
9.40641e-14
-2.60408e-05
-6.03152e-08
2.58777e-05
2.23427e-07
-2.60408e-05
-6.03152e-08
-1.77633e-13
2.58777e-05
2.23427e-07
1.54702e-13
-5.60323e-08
2.07406e-07
-5.60323e-08
-9.80095e-14
2.07406e-07
1.57069e-13
-9.01925e-06
8.95894e-06
-9.01925e-06
2.5193e-13
8.95894e-06
2.00577e-13
2.79452e-13
-1.23741e-12
-2.60408e-05
-6.0314e-08
2.58777e-05
2.23427e-07
-2.60408e-05
-6.03139e-08
-1.84307e-12
2.58777e-05
2.23427e-07
-1.08364e-12
-5.60311e-08
2.07406e-07
-5.6031e-08
-1.61874e-12
2.07405e-07
1.54529e-12
-9.01925e-06
8.95894e-06
-9.01925e-06
3.08813e-12
8.95893e-06
1.47795e-12
3.02707e-12
4.64008e-11
-2.60408e-05
-6.03532e-08
2.58777e-05
2.23418e-07
-2.60408e-05
-6.02833e-08
2.58777e-05
2.23443e-07
4.34292e-11
-5.60676e-08
2.07397e-07
-5.60031e-08
2.0742e-07
-3.40013e-11
-9.01925e-06
8.95893e-06
-9.01924e-06
8.95893e-06
-3.14306e-11
-5.08007e-11
-2.57056e-05
-6.81746e-08
2.55208e-05
2.53053e-07
-2.57056e-05
-6.82533e-08
2.53677e-12
2.55208e-05
2.53025e-07
-4.84025e-11
-6.35401e-08
2.35655e-07
-6.36127e-08
2.34558e-12
2.35629e-07
3.90685e-11
-8.89535e-06
8.82713e-06
-8.89536e-06
-3.01514e-12
8.82714e-06
3.60084e-11
-2.94954e-12
1.72325e-12
-2.57056e-05
-6.82092e-08
2.55208e-05
2.53035e-07
-2.57056e-05
-6.82093e-08
2.8354e-13
2.55208e-05
2.53035e-07
1.58129e-12
-6.35715e-08
2.35639e-07
-6.35716e-08
3.4121e-13
2.35639e-07
-1.42435e-12
-8.89536e-06
8.82715e-06
-8.89536e-06
-1.12717e-13
8.82715e-06
-1.32812e-12
1.37958e-14
-2.43711e-13
-2.57056e-05
-6.82105e-08
2.55208e-05
2.53035e-07
-2.57056e-05
-6.82105e-08
-7.43368e-13
2.55208e-05
2.53035e-07
-1.22654e-14
-6.35727e-08
2.35639e-07
-6.35727e-08
-3.55387e-13
2.35639e-07
-1.88293e-13
-8.89536e-06
8.82715e-06
-8.89536e-06
-2.53834e-13
8.82715e-06
5.09968e-14
7.8451e-14
-2.06337e-12
-2.57056e-05
-6.82092e-08
2.55208e-05
2.53035e-07
-2.57056e-05
-6.82092e-08
-2.86053e-12
2.55208e-05
2.53035e-07
-1.51986e-12
-6.35714e-08
2.35639e-07
-6.35714e-08
-2.27629e-12
2.35639e-07
1.07007e-12
-8.89536e-06
8.82715e-06
-8.89536e-06
2.68481e-12
8.82715e-06
1.33271e-12
2.90011e-12
5.13023e-11
-2.57056e-05
-6.82533e-08
2.55208e-05
2.53025e-07
-2.57056e-05
-6.81749e-08
2.55208e-05
2.53053e-07
4.8327e-11
-6.36127e-08
2.35629e-07
-6.35401e-08
2.35655e-07
-3.89749e-11
-8.89536e-06
8.82714e-06
-8.89535e-06
8.82713e-06
-3.6179e-11
-5.57764e-11
-2.53265e-05
-7.65682e-08
2.51185e-05
2.84647e-07
-2.53265e-05
-7.66563e-08
3.1665e-12
2.51185e-05
2.84615e-07
-5.31408e-11
-7.15969e-08
2.65927e-07
-7.16787e-08
2.89178e-12
2.65898e-07
4.41409e-11
-8.75549e-06
8.67887e-06
-8.7555e-06
-3.09294e-12
8.67889e-06
4.06389e-11
-3.04317e-12
2.03745e-12
-2.53265e-05
-7.66072e-08
2.51185e-05
2.84626e-07
-2.53265e-05
-7.66071e-08
3.12985e-13
2.51185e-05
2.84625e-07
1.82729e-12
-7.16325e-08
2.65908e-07
-7.16325e-08
2.52849e-13
2.65908e-07
-1.48674e-12
-8.75551e-06
8.67889e-06
-8.75551e-06
-1.61414e-13
8.6789e-06
-1.41703e-12
-1.4732e-13
-4.22104e-13
-2.53265e-05
-7.66085e-08
2.51185e-05
2.84625e-07
-2.53265e-05
-7.66085e-08
-1.18963e-12
2.51185e-05
2.84625e-07
-4.16214e-13
-7.16338e-08
2.65908e-07
-7.16337e-08
-1.10661e-12
2.65908e-07
-4.33837e-13
-8.75551e-06
8.6789e-06
-8.75551e-06
-7.1477e-13
8.6789e-06
-3.79034e-13
-5.82163e-13
-2.84233e-12
-2.53265e-05
-7.66072e-08
2.51185e-05
2.84625e-07
-2.53265e-05
-7.66073e-08
-3.84759e-12
2.51185e-05
2.84625e-07
-2.59839e-12
-7.16324e-08
2.65908e-07
-7.16325e-08
-3.55801e-12
2.65908e-07
6.2949e-13
-8.75551e-06
8.6789e-06
-8.75551e-06
2.37262e-12
8.67889e-06
7.04833e-13
2.32372e-12
5.66152e-11
-2.53265e-05
-7.66565e-08
2.51185e-05
2.84614e-07
-2.53265e-05
-7.65688e-08
2.51185e-05
2.84646e-07
5.302e-11
-7.16787e-08
2.65898e-07
-7.15974e-08
2.65926e-07
-4.39673e-11
-8.7555e-06
8.67889e-06
-8.75549e-06
8.67887e-06
-4.15565e-11
-6.29331e-11
-2.49004e-05
-8.54632e-08
2.46677e-05
3.18241e-07
-2.49004e-05
-8.55605e-08
3.50461e-12
2.46677e-05
3.18206e-07
-5.90993e-11
-8.01892e-08
2.98317e-07
-8.028e-08
3.34193e-12
2.98285e-07
4.83205e-11
-8.59863e-06
8.51312e-06
-8.59865e-06
-3.31481e-12
8.51314e-06
4.52265e-11
-3.2975e-12
2.30165e-12
-2.49004e-05
-8.5506e-08
2.46677e-05
3.18218e-07
-2.49004e-05
-8.55058e-08
5.13768e-13
2.46677e-05
3.18217e-07
2.09213e-12
-8.02288e-08
2.98297e-07
-8.02286e-08
3.61608e-13
2.98296e-07
-1.55866e-12
-8.59866e-06
8.51315e-06
-8.59866e-06
2.27229e-14
8.51316e-06
-1.54659e-12
-1.29327e-13
-7.87619e-14
-2.49004e-05
-8.55073e-08
2.46677e-05
3.18217e-07
-2.49004e-05
-8.55073e-08
-6.95304e-13
2.46677e-05
3.18217e-07
-3.32735e-13
-8.02301e-08
2.98296e-07
-8.02301e-08
-1.10253e-12
2.98296e-07
-7.36858e-14
-8.59867e-06
8.51316e-06
-8.59867e-06
-2.11337e-13
8.51316e-06
-3.86104e-13
-5.85735e-13
-2.41745e-12
-2.49004e-05
-8.55059e-08
2.46677e-05
3.18217e-07
-2.49004e-05
-8.55061e-08
-3.64583e-12
2.46677e-05
3.18218e-07
-2.79693e-12
-8.02287e-08
2.98296e-07
-8.02288e-08
-3.9384e-12
2.98296e-07
1.34303e-12
-8.59866e-06
8.51316e-06
-8.59866e-06
3.16523e-12
8.51315e-06
8.14054e-13
2.55796e-12
6.30611e-11
-2.49004e-05
-8.55605e-08
2.46677e-05
3.18206e-07
-2.49004e-05
-8.54631e-08
2.46677e-05
3.18241e-07
5.8991e-11
-8.02801e-08
2.98285e-07
-8.01895e-08
2.98316e-07
-4.82435e-11
-8.59866e-06
8.51315e-06
-8.59864e-06
8.51313e-06
-4.59967e-11
-6.99886e-11
-2.44246e-05
-9.47565e-08
2.4166e-05
3.53482e-07
-2.44246e-05
-9.48634e-08
4.04413e-12
2.41659e-05
3.53444e-07
-6.57782e-11
-8.91838e-08
3.32351e-07
-8.92835e-08
3.86697e-12
3.32317e-07
5.30686e-11
-8.42389e-06
8.32909e-06
-8.42392e-06
-3.32063e-12
8.32911e-06
5.02619e-11
-3.33671e-12
2.81839e-12
-2.44246e-05
-9.48035e-08
2.41659e-05
3.53458e-07
-2.44246e-05
-9.48032e-08
9.58298e-13
2.41659e-05
3.53457e-07
2.46859e-12
-8.9227e-08
3.3233e-07
-8.92267e-08
7.65335e-13
3.32329e-07
-1.40758e-12
-8.42393e-06
8.32913e-06
-8.42393e-06
4.13326e-13
8.32913e-06
-1.43638e-12
2.87881e-13
4.8189e-13
-2.44246e-05
-9.48048e-08
2.41659e-05
3.53456e-07
-2.44246e-05
-9.48048e-08
-3.55653e-14
2.41659e-05
3.53456e-07
3.00596e-13
-8.92282e-08
3.32329e-07
-8.92282e-08
-2.51248e-13
3.32329e-07
4.77421e-13
-8.42393e-06
8.32913e-06
-8.42393e-06
4.52977e-13
8.32913e-06
2.58011e-13
2.3725e-13
-1.94893e-12
-2.44246e-05
-9.48032e-08
2.41659e-05
3.53457e-07
-2.44246e-05
-9.48035e-08
-3.58555e-12
2.41659e-05
3.53458e-07
-2.0229e-12
-8.92267e-08
3.32329e-07
-8.9227e-08
-3.46965e-12
3.3233e-07
2.15693e-12
-8.42393e-06
8.32913e-06
-8.42393e-06
3.90648e-12
8.32913e-06
1.81769e-12
3.61235e-12
6.93619e-11
-2.44246e-05
-9.48633e-08
2.41659e-05
3.53445e-07
-2.44246e-05
-9.47559e-08
2.4166e-05
3.53483e-07
6.57807e-11
-8.92836e-08
3.32317e-07
-8.91833e-08
3.32352e-07
-5.29093e-11
-8.42392e-06
8.32911e-06
-8.42389e-06
8.32909e-06
-4.9823e-11
-7.46122e-11
-2.38966e-05
-1.04355e-07
2.3611e-05
3.90054e-07
-2.38966e-05
-1.04472e-07
4.90159e-12
2.3611e-05
3.90012e-07
-7.11976e-11
-9.85509e-08
3.6795e-07
-9.86609e-08
4.78855e-12
3.67912e-07
5.90591e-11
-8.23048e-06
8.12606e-06
-8.23051e-06
-3.21841e-12
8.1261e-06
5.5795e-11
-3.24579e-12
3.29402e-12
-2.38966e-05
-1.04407e-07
2.3611e-05
3.90026e-07
-2.38966e-05
-1.04407e-07
1.0334e-12
2.3611e-05
3.90025e-07
3.04756e-12
-9.8599e-08
3.67926e-07
-9.85987e-08
1.13288e-12
3.67925e-07
-1.38527e-12
-8.23052e-06
8.12611e-06
-8.23053e-06
4.05226e-13