/*--------------------------------*- C++ -*----------------------------------*\
  =========                 |
  \\      /  F ield         | OpenFOAM: The Open Source CFD Toolbox
   \\    /   O peration     | Website:  https://openfoam.org
    \\  /    A nd           | Version:  9
     \\/     M anipulation  |
\*---------------------------------------------------------------------------*/
FoamFile
{
    format      ascii;
    class       volVectorField;
    location    "1";
    object      U;
}
// * * * * * * * * * * * * * * * * * * * * * * * * * * * * * * * * * * * * * //

dimensions      [0 1 -1 0 0 0 0];

internalField   nonuniform List<vector> 
36360
(
(1.08348e-05 -0.0528093 -0.936003)
(1.07625e-05 -0.0528089 -2.31495e-08)
(1.39904e-05 -0.0528332 -0.945518)
(1.40491e-05 -0.0528332 2.62115e-08)
(1.93916e-06 -0.0183767 -0.923577)
(1.8737e-06 -0.0183765 -1.65243e-08)
(3.51855e-06 -0.0183906 -0.932377)
(3.52622e-06 -0.0183907 2.54379e-08)
(1.07494e-05 -0.0528088 2.95347e-10)
(1.0749e-05 -0.0528088 7.55845e-10)
(1.40637e-05 -0.0528332 1.31528e-09)
(1.40664e-05 -0.0528332 -1.84944e-10)
(1.86172e-06 -0.0183764 -4.70294e-10)
(1.86073e-06 -0.0183764 4.92005e-10)
(3.52661e-06 -0.0183907 1.6672e-09)
(3.52618e-06 -0.0183907 -7.4049e-11)
(1.07499e-05 -0.0528088 2.17427e-10)
(1.07501e-05 -0.0528088 -3.30649e-10)
(1.4067e-05 -0.0528332 -6.33527e-11)
(1.40672e-05 -0.0528332 1.06765e-11)
(1.86105e-06 -0.0183764 1.58553e-10)
(1.86108e-06 -0.0183764 -2.7615e-10)
(3.52603e-06 -0.0183907 -4.24438e-11)
(3.52608e-06 -0.0183907 -9.13472e-12)
(1.07496e-05 -0.0528088 -8.60451e-10)
(1.07502e-05 -0.0528088 -4.00485e-10)
(1.40671e-05 -0.0528332 1.41444e-10)
(1.40648e-05 -0.0528332 -1.35892e-09)
(1.86082e-06 -0.0183764 -6.14276e-10)
(1.86183e-06 -0.0183764 3.79396e-10)
(3.52635e-06 -0.0183907 2.05846e-11)
(3.52686e-06 -0.0183907 -1.73622e-09)
(1.07635e-05 -0.0528089 2.31669e-08)
(1.08359e-05 -0.0528093 0.936003)
(1.40505e-05 -0.0528332 -2.62619e-08)
(1.39918e-05 -0.0528332 0.945518)
(1.87382e-06 -0.0183765 1.64662e-08)
(1.93927e-06 -0.0183767 0.923577)
(3.52653e-06 -0.0183907 -2.55386e-08)
(3.51883e-06 -0.0183906 0.932377)
(9.88176e-06 -0.0527793 -0.935232)
(9.8762e-06 -0.0527793 -4.92952e-09)
(9.64467e-06 -0.0527944 -0.935454)
(9.63508e-06 -0.0527946 -6.56476e-09)
(1.2604e-06 -0.0183646 -0.922824)
(1.2333e-06 -0.0183647 -2.35348e-09)
(1.3607e-06 -0.0183704 -0.923041)
(1.33333e-06 -0.0183705 -4.85601e-09)
(9.87872e-06 -0.0527793 1.16015e-10)
(9.88203e-06 -0.0527793 8.035e-10)
(9.64322e-06 -0.0527946 2.28659e-09)
(9.64998e-06 -0.0527946 1.50319e-09)
(1.22854e-06 -0.0183647 -1.79269e-10)
(1.22894e-06 -0.0183647 6.92899e-10)
(1.33287e-06 -0.0183705 1.28194e-09)
(1.33555e-06 -0.0183705 1.20786e-09)
(9.8837e-06 -0.0527793 3.67504e-10)
(9.88384e-06 -0.0527793 -2.3995e-10)
(9.65289e-06 -0.0527946 4.26831e-10)
(9.65304e-06 -0.0527946 -5.01395e-10)
(1.22948e-06 -0.0183647 3.52178e-10)
(1.2295e-06 -0.0183647 -2.22667e-10)
(1.33685e-06 -0.0183705 3.88762e-10)
(1.33687e-06 -0.0183705 -4.4477e-10)
(9.88244e-06 -0.0527793 -7.02213e-10)
(9.87935e-06 -0.0527793 -3.12057e-11)
(9.65042e-06 -0.0527946 -1.56894e-09)
(9.64387e-06 -0.0527946 -2.33167e-09)
(1.22901e-06 -0.0183647 -5.80848e-10)
(1.22863e-06 -0.0183647 2.82812e-10)
(1.33562e-06 -0.0183705 -1.26678e-09)
(1.33297e-06 -0.0183705 -1.32687e-09)
(9.87698e-06 -0.0527793 4.89941e-09)
(9.88262e-06 -0.0527793 0.935232)
(9.63587e-06 -0.0527946 6.54286e-09)
(9.64547e-06 -0.0527944 0.935454)
(1.2334e-06 -0.0183647 2.40171e-09)
(1.26041e-06 -0.0183646 0.922824)
(1.33343e-06 -0.0183705 4.8392e-09)
(1.36069e-06 -0.0183704 0.923041)
(1.29151e-05 -0.0527428 -0.934431)
(1.28997e-05 -0.0527428 -4.58055e-09)
(1.10278e-05 -0.0527623 -0.934654)
(1.10147e-05 -0.0527623 -5.15779e-09)
(1.58066e-06 -0.0183512 -0.922044)
(1.54204e-06 -0.0183512 -9.36651e-10)
(1.3538e-06 -0.0183583 -0.922261)
(1.32012e-06 -0.0183583 -1.85866e-09)
(1.28972e-05 -0.0527428 -5.49509e-10)
(1.2899e-05 -0.0527428 3.42395e-10)
(1.10127e-05 -0.0527623 -4.37264e-10)
(1.10147e-05 -0.0527623 6.07859e-10)
(1.53282e-06 -0.0183512 -9.06308e-10)
(1.53226e-06 -0.0183512 1.34672e-10)
(1.31221e-06 -0.0183583 -7.18849e-10)
(1.3119e-06 -0.0183583 4.08101e-10)
(1.29002e-05 -0.0527428 2.55658e-10)
(1.29003e-05 -0.0527428 -9.53761e-11)
(1.10161e-05 -0.0527623 3.68299e-10)
(1.10162e-05 -0.0527623 -1.2583e-10)
(1.53257e-06 -0.0183512 2.20165e-10)
(1.5326e-06 -0.0183512 -8.30625e-11)
(1.31229e-06 -0.0183583 3.20558e-10)
(1.31231e-06 -0.0183583 -1.13075e-10)
(1.28994e-05 -0.0527428 -2.04625e-10)
(1.28978e-05 -0.0527428 6.82737e-10)
(1.10151e-05 -0.0527623 -3.86312e-10)
(1.10133e-05 -0.0527623 6.48036e-10)
(1.53233e-06 -0.0183512 -1.08154e-11)
(1.5329e-06 -0.0183512 1.01303e-09)
(1.31198e-06 -0.0183583 -1.97226e-10)
(1.3123e-06 -0.0183583 9.17936e-10)
(1.29005e-05 -0.0527428 4.63862e-09)
(1.29161e-05 -0.0527428 0.934431)
(1.10155e-05 -0.0527623 5.24401e-09)
(1.10288e-05 -0.0527623 0.934654)
(1.5422e-06 -0.0183512 1.02652e-09)
(1.58088e-06 -0.0183512 0.922044)
(1.32027e-06 -0.0183583 2.05435e-09)
(1.35389e-06 -0.0183583 0.922261)
(1.85116e-05 -0.0526927 -0.933605)
(1.84904e-05 -0.0526927 -4.37448e-09)
(1.5439e-05 -0.0527198 -0.933825)
(1.54213e-05 -0.0527198 -4.29444e-09)
(2.30677e-06 -0.0183327 -0.921238)
(2.25286e-06 -0.0183327 5.5537e-10)
(1.90577e-06 -0.0183427 -0.921453)
(1.86054e-06 -0.0183427 -1.44306e-10)
(1.84868e-05 -0.0526927 -6.50092e-10)
(1.8488e-05 -0.0526927 -6.09866e-11)
(1.54182e-05 -0.0527198 -6.75414e-10)
(1.54197e-05 -0.0527198 8.43384e-11)
(2.2401e-06 -0.0183327 -1.13859e-09)
(2.23873e-06 -0.0183327 -2.74563e-10)
(1.8497e-06 -0.0183427 -1.06327e-09)
(1.84874e-06 -0.0183427 -1.20584e-10)
(1.8489e-05 -0.0526927 2.39523e-11)
(1.84891e-05 -0.0526927 -1.256e-10)
(1.54207e-05 -0.0527198 1.09438e-10)
(1.54209e-05 -0.0527198 -1.2342e-10)
(2.23882e-06 -0.0183327 9.41095e-12)
(2.23886e-06 -0.0183327 -9.36767e-11)
(1.84893e-06 -0.0183427 9.32449e-11)
(1.84895e-06 -0.0183427 -9.00041e-11)
(1.84883e-05 -0.0526927 -3.82281e-11)
(1.84872e-05 -0.0526927 5.99857e-10)
(1.542e-05 -0.0527199 -8.74968e-11)
(1.54187e-05 -0.0527199 6.6007e-10)
(2.23879e-06 -0.0183327 2.00299e-10)
(2.24018e-06 -0.0183327 1.10868e-09)
(1.84879e-06 -0.0183427 1.16975e-10)
(1.84976e-06 -0.0183427 1.05655e-09)
(1.84911e-05 -0.0526927 4.43561e-09)
(1.85123e-05 -0.0526927 0.933605)
(1.5422e-05 -0.0527198 4.33552e-09)
(1.54399e-05 -0.0527198 0.933825)
(2.25308e-06 -0.0183327 -5.31143e-10)
(2.30714e-06 -0.0183327 0.921238)
(1.8607e-06 -0.0183427 1.4822e-10)
(1.90614e-06 -0.0183427 0.921453)
(2.61168e-05 -0.0526227 -0.932752)
(2.60878e-05 -0.0526227 -5.13536e-09)
(2.20877e-05 -0.0526605 -0.932987)
(2.2063e-05 -0.0526605 -4.71548e-09)
(3.29991e-06 -0.0183067 -0.920406)
(3.22444e-06 -0.0183067 1.79548e-09)
(2.77439e-06 -0.0183208 -0.920636)
(2.71039e-06 -0.0183208 1.17624e-09)
(2.60829e-05 -0.0526227 -4.14048e-10)
(2.6084e-05 -0.0526227 -1.71664e-11)
(2.20589e-05 -0.0526605 -5.46543e-10)
(2.206e-05 -0.0526605 -4.43086e-11)
(3.20686e-06 -0.0183067 -1.12733e-09)
(3.20469e-06 -0.0183067 -3.32842e-10)
(2.69541e-06 -0.0183208 -1.12905e-09)
(2.69364e-06 -0.0183208 -3.08121e-10)
(2.6085e-05 -0.0526227 9.3163e-11)
(2.6085e-05 -0.0526227 3.52015e-11)
(2.20609e-05 -0.0526605 5.45612e-11)
(2.2061e-05 -0.0526605 -5.00301e-11)
(3.20465e-06 -0.0183067 3.77534e-11)
(3.20466e-06 -0.0183067 7.40823e-11)
(2.69367e-06 -0.0183208 2.00692e-11)
(2.69369e-06 -0.0183208 -7.95893e-12)
(2.60842e-05 -0.0526227 1.47563e-10)
(2.60832e-05 -0.0526227 5.40843e-10)
(2.20602e-05 -0.0526605 6.89945e-11)
(2.20592e-05 -0.0526605 5.86936e-10)
(3.20471e-06 -0.0183067 4.49363e-10)
(3.20693e-06 -0.0183067 1.2355e-09)
(2.69368e-06 -0.0183208 3.41823e-10)
(2.6955e-06 -0.0183208 1.19101e-09)
(2.60881e-05 -0.0526227 5.20648e-09)
(2.61172e-05 -0.0526228 0.932752)
(2.20636e-05 -0.0526605 4.73392e-09)
(2.20884e-05 -0.0526605 0.932987)
(3.22457e-06 -0.0183067 -1.69981e-09)
(3.29998e-06 -0.0183067 0.920406)
(2.71059e-06 -0.0183208 -1.12401e-09)
(2.77466e-06 -0.0183208 0.920636)
(3.54241e-05 -0.0525282 -0.931868)
(3.53855e-05 -0.0525282 -6.27059e-09)
(3.05727e-05 -0.0525788 -0.932108)
(3.05392e-05 -0.0525788 -5.64244e-09)
(4.50525e-06 -0.0182714 -0.919544)
(4.40364e-06 -0.0182714 2.9088e-09)
(3.87844e-06 -0.0182903 -0.919779)
(3.79049e-06 -0.0182904 2.31776e-09)
(3.5379e-05 -0.0525282 -2.7316e-10)
(3.53803e-05 -0.0525282 -3.83287e-11)
(3.05336e-05 -0.0525788 -3.51903e-10)
(3.05348e-05 -0.0525788 -3.52705e-11)
(4.38004e-06 -0.0182714 -1.2465e-09)
(4.37703e-06 -0.0182714 -4.54986e-10)
(3.77004e-06 -0.0182904 -1.19241e-09)
(3.76746e-06 -0.0182904 -4.03474e-10)
(3.53813e-05 -0.0525282 5.7333e-11)
(3.53813e-05 -0.0525282 7.68538e-11)
(3.05357e-05 -0.0525788 6.87961e-11)
(3.05357e-05 -0.0525788 6.04929e-11)
(4.37688e-06 -0.0182714 1.07956e-12)
(4.37685e-06 -0.0182714 1.49038e-10)
(3.76736e-06 -0.0182904 1.00351e-11)
(3.76736e-06 -0.0182904 1.13268e-10)
(3.53803e-05 -0.0525282 1.67065e-10)
(3.5379e-05 -0.0525282 3.91589e-10)
(3.05348e-05 -0.0525788 1.56582e-10)
(3.05337e-05 -0.0525788 4.32615e-10)
(4.37697e-06 -0.0182714 5.86035e-10)
(4.37998e-06 -0.0182714 1.34464e-09)
(3.76744e-06 -0.0182904 5.12131e-10)
(3.77004e-06 -0.0182904 1.2407e-09)
(3.53855e-05 -0.0525282 6.43895e-09)
(3.54241e-05 -0.0525282 0.931868)
(3.05393e-05 -0.0525788 5.70464e-09)
(3.05729e-05 -0.0525788 0.932108)
(4.40358e-06 -0.0182714 -2.86461e-09)
(4.50517e-06 -0.0182714 0.919544)
(3.79051e-06 -0.0182904 -2.36761e-09)
(3.87841e-06 -0.0182903 0.919779)
(4.62857e-05 -0.052405 -0.930952)
(4.62358e-05 -0.052405 -8.19439e-09)
(4.06652e-05 -0.0524704 -0.93121)
(4.06212e-05 -0.0524704 -7.14505e-09)
(5.89641e-06 -0.0182254 -0.918652)
(5.76418e-06 -0.0182254 4.03638e-09)
(5.17826e-06 -0.0182498 -0.918903)
(5.06188e-06 -0.0182498 3.53468e-09)
(4.62274e-05 -0.052405 -1.53045e-10)
(4.62288e-05 -0.052405 5.1883e-11)
(4.06138e-05 -0.0524704 -1.90465e-10)
(4.06152e-05 -0.0524704 7.1269e-12)
(5.73351e-06 -0.0182254 -1.30749e-09)
(5.72953e-06 -0.0182254 -4.46972e-10)
(5.03488e-06 -0.0182498 -1.25042e-09)
(5.0314e-06 -0.0182498 -4.33808e-10)
(4.62299e-05 -0.052405 1.0589e-10)
(4.62299e-05 -0.052405 1.3865e-10)
(4.06163e-05 -0.0524704 9.92905e-11)
(4.06162e-05 -0.0524704 1.49199e-10)
(5.7293e-06 -0.0182254 5.58164e-11)
(5.72928e-06 -0.0182254 2.37186e-10)
(5.0312e-06 -0.0182498 5.83035e-11)
(5.03118e-06 -0.0182498 2.35447e-10)
(4.62287e-05 -0.052405 1.73239e-10)
(4.62272e-05 -0.052405 3.0239e-10)
(4.06151e-05 -0.0524704 2.08209e-10)
(4.06137e-05 -0.0524704 3.72982e-10)
(5.7295e-06 -0.0182254 7.20395e-10)
(5.73346e-06 -0.0182254 1.57435e-09)
(5.03135e-06 -0.0182498 6.86624e-10)
(5.03481e-06 -0.0182498 1.48043e-09)
(4.62355e-05 -0.052405 8.12242e-09)
(4.62854e-05 -0.052405 0.930952)
(4.0621e-05 -0.0524704 7.25278e-09)
(4.0665e-05 -0.0524704 0.93121)
(5.76407e-06 -0.0182254 -3.90186e-09)
(5.89617e-06 -0.0182254 0.918652)
(5.06179e-06 -0.0182498 -3.35988e-09)
(5.17807e-06 -0.0182498 0.918903)
(5.87194e-05 -0.0522497 -0.930015)
(5.86565e-05 -0.0522497 -9.85994e-09)
(5.23002e-05 -0.0523316 -0.93027)
(5.2244e-05 -0.0523316 -8.94e-09)
(7.47198e-06 -0.0181673 -0.917737)
(7.30496e-06 -0.0181673 5.36871e-09)
(6.66017e-06 -0.0181979 -0.917987)
(6.51108e-06 -0.0181979 4.7964e-09)
(5.86458e-05 -0.0522497 6.4472e-16)
(5.86475e-05 -0.0522497 4.33277e-11)
(5.22346e-05 -0.0523315 -1.54992e-11)
(5.22361e-05 -0.0523315 6.14114e-11)
(7.2663e-06 -0.0181673 -1.53361e-09)
(7.26124e-06 -0.0181673 -6.10743e-10)
(6.47656e-06 -0.0181979 -1.38877e-09)
(6.47207e-06 -0.0181979 -5.14192e-10)
(5.86488e-05 -0.0522497 -1.13892e-11)
(5.86487e-05 -0.0522497 -4.72848e-11)
(5.22373e-05 -0.0523315 4.21804e-11)
(5.22373e-05 -0.0523315 3.61696e-11)
(7.26092e-06 -0.0181673 -1.17391e-10)
(7.26091e-06 -0.0181673 4.43682e-11)
(6.47179e-06 -0.0181979 -2.5779e-11)
(6.47178e-06 -0.0181979 1.22404e-10)
(5.86474e-05 -0.0522497 -8.53223e-11)
(5.86456e-05 -0.0522497 -3.20444e-11)
(5.2236e-05 -0.0523315 2.99639e-11)
(5.22344e-05 -0.0523315 1.45247e-10)
(7.26119e-06 -0.0181673 5.67748e-10)
(7.26624e-06 -0.0181673 1.51201e-09)
(6.47203e-06 -0.0181979 6.37766e-10)
(6.47651e-06 -0.0181979 1.57716e-09)
(5.86561e-05 -0.0522497 9.86243e-09)
(5.87189e-05 -0.0522497 0.930015)
(5.22437e-05 -0.0523316 9.00136e-09)
(5.22998e-05 -0.0523316 0.93027)
(7.30484e-06 -0.0181673 -5.37663e-09)
(7.47167e-06 -0.0181673 0.917737)
(6.51097e-06 -0.0181979 -4.54341e-09)
(6.65983e-06 -0.0181979 0.917987)
(7.2885e-05 -0.0520587 -0.929047)
(7.28075e-05 -0.0520586 -1.19949e-08)
(6.55734e-05 -0.0521589 -0.9293)
(6.55035e-05 -0.0521588 -1.08778e-08)
(9.2504e-06 -0.0180958 -0.916794)
(9.04404e-06 -0.0180958 6.76589e-09)
(8.33386e-06 -0.0181333 -0.91704)
(8.14778e-06 -0.0181333 6.00393e-09)
(7.27944e-05 -0.0520586 1.02849e-10)
(7.27964e-05 -0.0520586 8.44147e-11)
(6.54917e-05 -0.0521588 1.04706e-11)
(6.54935e-05 -0.0521588 1.35323e-12)
(8.99634e-06 -0.0180958 -1.82423e-09)
(8.99009e-06 -0.0180958 -7.21008e-10)
(8.10477e-06 -0.0181333 -1.73241e-09)
(8.09913e-06 -0.0181333 -7.17586e-10)
(7.27979e-05 -0.0520586 3.79471e-11)
(7.27979e-05 -0.0520586 5.0001e-11)
(6.54949e-05 -0.0521588 -3.62132e-11)
(6.54949e-05 -0.0521588 -4.28925e-11)
(8.98968e-06 -0.0180958 -7.54186e-11)
(8.98967e-06 -0.0180958 1.56262e-10)
(8.09877e-06 -0.0181333 -1.4726e-10)
(8.09876e-06 -0.0181333 5.06215e-11)
(7.27963e-05 -0.0520586 9.60545e-12)
(7.27943e-05 -0.0520586 -1.21798e-11)
(6.54934e-05 -0.0521588 -9.84533e-11)
(6.54915e-05 -0.0521588 -9.21604e-11)
(8.99006e-06 -0.0180958 7.9426e-10)
(8.9963e-06 -0.0180958 1.87792e-09)
(8.09908e-06 -0.0181333 6.23688e-10)
(8.10471e-06 -0.0181333 1.61357e-09)
(7.28073e-05 -0.0520586 1.21205e-08)
(7.28847e-05 -0.0520587 0.929047)
(6.55032e-05 -0.0521588 1.08729e-08)
(6.5573e-05 -0.0521589 0.9293)
(9.044e-06 -0.0180959 -6.71881e-09)
(9.2502e-06 -0.0180959 0.916794)
(8.14771e-06 -0.0181333 -6.14787e-09)
(8.33356e-06 -0.0181333 0.91704)
(8.90327e-05 -0.0518279 -0.928035)
(8.89387e-05 -0.0518279 -1.45291e-08)
(8.06964e-05 -0.0519485 -0.928306)
(8.06109e-05 -0.0519485 -1.32399e-08)
(1.12623e-05 -0.0180097 -0.915807)
(1.10115e-05 -0.0180097 8.40275e-09)
(1.02247e-05 -0.0180547 -0.916072)
(9.99683e-06 -0.0180547 7.55994e-09)
(8.89229e-05 -0.0518279 3.49196e-10)
(8.89252e-05 -0.0518279 2.96813e-10)
(8.05965e-05 -0.0519484 2.44641e-10)
(8.05987e-05 -0.0519484 2.12416e-10)
(1.09535e-05 -0.0180097 -1.97396e-09)
(1.09459e-05 -0.0180097 -6.82443e-10)
(9.94418e-06 -0.0180547 -1.89202e-09)
(9.93728e-06 -0.0180547 -6.72807e-10)
(8.8927e-05 -0.0518279 1.76738e-10)
(8.8927e-05 -0.0518279 1.05516e-10)
(8.06004e-05 -0.0519485 1.5631e-10)
(8.06003e-05 -0.0519485 1.51563e-10)
(1.09454e-05 -0.0180097 4.39116e-11)
(1.09454e-05 -0.0180097 2.51435e-10)
(9.93682e-06 -0.0180547 3.81086e-11)
(9.93682e-06 -0.0180547 2.64524e-10)
(8.89252e-05 -0.0518279 -3.93899e-11)
(8.89229e-05 -0.0518279 -1.50874e-10)
(8.05987e-05 -0.0519485 6.92997e-11)
(8.05965e-05 -0.0519485 -3.181e-13)
(1.09459e-05 -0.0180097 9.45276e-10)
(1.09535e-05 -0.0180097 2.19714e-09)
(9.93727e-06 -0.0180547 9.28241e-10)
(9.94419e-06 -0.0180547 2.09016e-09)
(8.89387e-05 -0.0518279 1.45477e-08)
(8.90327e-05 -0.0518279 0.928035)
(8.06108e-05 -0.0519485 1.33414e-08)
(8.06962e-05 -0.0519485 0.928306)
(1.10115e-05 -0.0180097 -8.27412e-09)
(1.12622e-05 -0.0180097 0.915807)
(9.99686e-06 -0.0180547 -7.45538e-09)
(1.02246e-05 -0.0180547 0.916072)
(0.000107451 -0.0515531 -0.927002)
(0.000107339 -0.051553 -1.68469e-08)
(9.7942e-05 -0.0516963 -0.927279)
(9.7839e-05 -0.0516962 -1.56579e-08)
(1.35421e-05 -0.0179071 -0.9148)
(1.32409e-05 -0.0179071 1.04461e-08)
(1.23662e-05 -0.0179605 -0.91507)
(1.20909e-05 -0.0179605 9.39645e-09)
(0.00010732 -0.051553 5.95138e-10)
(0.000107322 -0.051553 3.24114e-10)
(9.78216e-05 -0.0516962 5.0344e-10)
(9.78241e-05 -0.0516962 3.34702e-10)
(1.31713e-05 -0.0179071 -2.22981e-09)
(1.31621e-05 -0.0179071 -8.50717e-10)
(1.20274e-05 -0.0179605 -2.0696e-09)
(1.2019e-05 -0.0179605 -7.31815e-10)
(0.000107324 -0.051553 1.85968e-11)
(0.000107324 -0.051553 -2.22604e-10)
(9.7826e-05 -0.0516962 1.19094e-10)
(9.7826e-05 -0.0516962 -4.00477e-11)
(1.31614e-05 -0.0179071 -1.45164e-10)
(1.31614e-05 -0.0179071 -4.99456e-11)
(1.20184e-05 -0.0179605 -1.81362e-11)
(1.20184e-05 -0.0179605 1.25063e-10)
(0.000107322 -0.051553 -5.42018e-10)
(0.000107319 -0.051553 -7.98351e-10)
(9.78241e-05 -0.0516962 -2.72783e-10)
(9.78216e-05 -0.0516962 -4.45379e-10)
(1.31621e-05 -0.0179071 6.38119e-10)
(1.31713e-05 -0.0179071 2.02233e-09)
(1.2019e-05 -0.0179605 8.19314e-10)
(1.20274e-05 -0.0179605 2.14801e-09)
(0.000107339 -0.051553 1.68383e-08)
(0.000107451 -0.0515531 0.927002)
(9.78389e-05 -0.0516962 1.5662e-08)
(9.79418e-05 -0.0516963 0.927279)
(1.3241e-05 -0.0179071 -1.05592e-08)
(1.35421e-05 -0.0179071 0.9148)
(1.2091e-05 -0.0179606 -9.35156e-09)
(1.2366e-05 -0.0179605 0.91507)
(0.000128434 -0.0512291 -0.925918)
(0.000128301 -0.051229 -1.96257e-08)
(0.000117608 -0.0513975 -0.926218)
(0.000117485 -0.0513974 -1.82939e-08)
(1.61225e-05 -0.0177864 -0.913742)
(1.57645e-05 -0.0177864 1.2765e-08)
(1.47923e-05 -0.0178492 -0.914035)
(1.44636e-05 -0.0178492 1.14096e-08)
(0.000128278 -0.051229 9.10363e-10)
(0.000128281 -0.051229 4.4882e-10)
(0.000117464 -0.0513974 6.98294e-10)
(0.000117467 -0.0513974 3.34608e-10)
(1.56818e-05 -0.0177864 -2.45794e-09)
(1.56708e-05 -0.0177864 -9.6189e-10)
(1.43876e-05 -0.0178492 -2.38774e-09)
(1.43775e-05 -0.0178492 -9.39283e-10)
(0.000128283 -0.051229 -1.37692e-11)
(0.000128283 -0.051229 -3.4357e-10)
(0.000117469 -0.0513974 -4.72869e-11)
(0.000117469 -0.0513974 -3.47768e-10)
(1.567e-05 -0.0177864 -2.29205e-10)
(1.567e-05 -0.0177864 -1.78723e-10)
(1.43768e-05 -0.0178492 -2.34694e-10)
(1.43769e-05 -0.0178492 -1.8124e-10)
(0.000128281 -0.051229 -7.79688e-10)
(0.000128278 -0.051229 -1.18464e-09)
(0.000117467 -0.0513974 -7.51812e-10)
(0.000117464 -0.0513974 -1.10512e-09)
(1.56708e-05 -0.0177864 5.6379e-10)
(1.56819e-05 -0.0177864 2.10843e-09)
(1.43776e-05 -0.0178492 5.14413e-10)
(1.43877e-05 -0.0178492 1.9518e-09)
(0.000128301 -0.051229 1.96857e-08)
(0.000128434 -0.0512291 0.925918)
(0.000117485 -0.0513974 1.80609e-08)
(0.000117608 -0.0513975 0.926218)
(1.57647e-05 -0.0177864 -1.28906e-08)
(1.61227e-05 -0.0177864 0.913742)
(1.44637e-05 -0.0178492 -1.18614e-08)
(1.47924e-05 -0.0178492 0.914035)
(0.000152261 -0.0508505 -0.924827)
(0.000152105 -0.0508505 -2.3056e-08)
(0.000139977 -0.0510469 -0.925107)
(0.000139832 -0.0510469 -2.13994e-08)
(1.90345e-05 -0.0176456 -0.912679)
(1.86124e-05 -0.0176456 1.52327e-08)
(1.75344e-05 -0.0177187 -0.912952)
(1.71453e-05 -0.0177187 1.37926e-08)
(0.000152078 -0.0508505 1.28929e-09)
(0.000152081 -0.0508505 7.08338e-10)
(0.000139808 -0.0510469 1.09495e-09)
(0.000139811 -0.0510469 5.71214e-10)
(1.85149e-05 -0.0176456 -2.6649e-09)
(1.8502e-05 -0.0176456 -9.90858e-10)
(1.70555e-05 -0.0177187 -2.59972e-09)
(1.70435e-05 -0.0177187 -9.93998e-10)
(0.000152084 -0.0508505 1.16672e-10)
(0.000152084 -0.0508505 -2.89836e-10)
(0.000139813 -0.0510469 5.2038e-11)
(0.000139813 -0.0510469 -3.11944e-10)
(1.85011e-05 -0.0176456 -1.83578e-10)
(1.85011e-05 -0.0176456 -1.15564e-10)
(1.70427e-05 -0.0177187 -2.20079e-10)
(1.70427e-05 -0.0177187 -1.60759e-10)
(0.000152081 -0.0508505 -7.8839e-10)
(0.000152078 -0.0508505 -1.27459e-09)
(0.000139811 -0.0510469 -7.93612e-10)
(0.000139808 -0.0510469 -1.2669e-09)
(1.8502e-05 -0.0176456 7.97585e-10)
(1.8515e-05 -0.0176456 2.61177e-09)
(1.70436e-05 -0.0177187 6.58503e-10)
(1.70556e-05 -0.0177187 2.30982e-09)
(0.000152105 -0.0508505 2.32267e-08)
(0.000152261 -0.0508505 0.924827)
(0.000139832 -0.0510469 2.13046e-08)
(0.000139977 -0.051047 0.925107)
(1.86125e-05 -0.0176456 -1.51296e-08)
(1.90345e-05 -0.0176456 0.912679)
(1.71455e-05 -0.0177187 -1.4133e-08)
(1.75345e-05 -0.0177187 0.912952)
(0.000179194 -0.0504116 -0.923669)
(0.000179012 -0.0504115 -2.67536e-08)
(0.00016533 -0.0506389 -0.923976)
(0.00016516 -0.0506389 -2.4938e-08)
(2.23033e-05 -0.0174826 -0.911549)
(2.18096e-05 -0.0174826 1.78987e-08)
(2.06222e-05 -0.017567 -0.911849)
(2.01653e-05 -0.017567 1.64137e-08)
(0.000178981 -0.0504115 1.55962e-09)
(0.000178984 -0.0504115 7.79751e-10)
(0.000165131 -0.0506388 1.41579e-09)
(0.000165135 -0.0506388 7.14752e-10)
(2.16956e-05 -0.0174826 -3.05438e-09)
(2.16803e-05 -0.0174826 -1.15528e-09)
(2.00598e-05 -0.017567 -2.90455e-09)
(2.00457e-05 -0.017567 -1.10765e-09)
(0.000178987 -0.0504115 9.29503e-11)
(0.000178987 -0.0504115 -3.66343e-10)
(0.000165138 -0.0506389 8.33344e-11)
(0.000165138 -0.0506389 -3.36317e-10)
(2.16792e-05 -0.0174826 -1.91455e-10)
(2.16792e-05 -0.0174826 -8.02218e-11)
(2.00447e-05 -0.017567 -2.0715e-10)
(2.00447e-05 -0.017567 -9.08214e-11)
(0.000178984 -0.0504115 -9.88434e-10)
(0.000178981 -0.0504115 -1.6683e-09)
(0.000165135 -0.0506388 -8.7489e-10)
(0.000165131 -0.0506388 -1.44178e-09)
(2.16803e-05 -0.0174826 9.51791e-10)
(2.16956e-05 -0.0174826 2.96716e-09)
(2.00457e-05 -0.017567 8.9815e-10)
(2.00598e-05 -0.017567 2.80283e-09)
(0.000179012 -0.0504115 2.68482e-08)
(0.000179194 -0.0504116 0.923669)
(0.00016516 -0.0506389 2.497e-08)
(0.00016533 -0.0506389 0.923976)
(2.18096e-05 -0.0174826 -1.78636e-08)
(2.23032e-05 -0.0174826 0.911549)
(2.01653e-05 -0.017567 -1.65511e-08)
(2.06221e-05 -0.017567 0.911849)
(0.000209444 -0.0499063 -0.922489)
(0.000209232 -0.0499062 -3.0935e-08)
(0.000193895 -0.0501676 -0.922787)
(0.000193698 -0.0501675 -2.87899e-08)
(2.59476e-05 -0.0172952 -0.910399)
(2.53741e-05 -0.0172953 2.09888e-08)
(2.40762e-05 -0.0173921 -0.91069)
(2.35436e-05 -0.0173921 1.93927e-08)
(0.000209196 -0.0499062 2.01214e-09)
(0.000209201 -0.0499062 1.1098e-09)
(0.000193665 -0.0501675 1.75286e-09)
(0.000193669 -0.0501675 8.93835e-10)
(2.52417e-05 -0.0172953 -3.27384e-09)
(2.52239e-05 -0.0172953 -1.09425e-09)
(2.34207e-05 -0.0173921 -3.20217e-09)
(2.34042e-05 -0.0173921 -1.14212e-09)
(0.000209204 -0.0499062 3.31247e-10)
(0.000209204 -0.0499062 -1.78671e-10)
(0.000193672 -0.0501675 1.88972e-10)
(0.000193672 -0.0501675 -3.03786e-10)
(2.52226e-05 -0.0172953 5.40994e-11)
(2.52225e-05 -0.0172953 1.96719e-10)
(2.3403e-05 -0.0173921 -7.48524e-11)
(2.3403e-05 -0.0173921 4.63013e-11)
(0.000209201 -0.0499062 -9.80904e-10)
(0.000209196 -0.0499062 -1.98564e-09)
(0.000193669 -0.0501675 -1.03691e-09)
(0.000193665 -0.0501675 -1.88005e-09)
(2.52239e-05 -0.0172953 1.27877e-09)
(2.52417e-05 -0.0172953 3.39408e-09)
(2.34042e-05 -0.0173921 1.08525e-09)
(2.34207e-05 -0.0173921 3.15147e-09)
(0.000209232 -0.0499062 3.08581e-08)
(0.000209443 -0.0499063 0.922489)
(0.000193698 -0.0501675 2.87304e-08)
(0.000193895 -0.0501676 0.922787)
(2.53741e-05 -0.0172953 -2.09848e-08)
(2.59474e-05 -0.0172952 0.910399)
(2.35436e-05 -0.0173921 -1.94052e-08)
(2.4076e-05 -0.0173921 0.91069)
(0.000243188 -0.0493282 -0.921255)
(0.000242945 -0.0493282 -3.53364e-08)
(0.000225875 -0.0496266 -0.921578)
(0.000225648 -0.0496266 -3.30016e-08)
(2.99799e-05 -0.0170813 -0.909196)
(2.93182e-05 -0.0170813 2.4656e-08)
(2.79135e-05 -0.0171917 -0.909511)
(2.72968e-05 -0.0171917 2.29511e-08)
(0.000242904 -0.0493282 2.69326e-09)
(0.000242908 -0.0493282 1.50174e-09)
(0.00022561 -0.0496266 2.42223e-09)
(0.000225614 -0.0496266 1.32899e-09)
(2.91654e-05 -0.0170813 -3.4099e-09)
(2.91448e-05 -0.0170813 -1.06122e-09)
(2.71545e-05 -0.0171917 -3.28865e-09)
(2.71353e-05 -0.0171917 -9.92716e-10)
(0.000242912 -0.0493282 4.72409e-10)
(0.000242912 -0.0493282 -1.26409e-10)
(0.000225618 -0.0496266 5.00304e-10)
(0.000225618 -0.0496266 -1.08559e-11)
(2.91432e-05 -0.0170813 1.68132e-10)
(2.91432e-05 -0.0170813 3.28462e-10)
(2.71338e-05 -0.0171917 2.35862e-10)
(2.71338e-05 -0.0171917 3.88315e-10)
(0.000242908 -0.0493282 -1.07595e-09)
(0.000242904 -0.0493282 -2.35327e-09)
(0.000225614 -0.0496266 -8.9194e-10)
(0.00022561 -0.0496266 -2.05323e-09)
(2.91447e-05 -0.0170813 1.53006e-09)
(2.91653e-05 -0.0170813 3.80477e-09)
(2.71353e-05 -0.0171917 1.49561e-09)
(2.71544e-05 -0.0171917 3.69926e-09)
(0.000242945 -0.0493282 3.53144e-08)
(0.000243188 -0.0493282 0.921255)
(0.000225648 -0.0496266 3.31379e-08)
(0.000225875 -0.0496266 0.921578)
(2.9318e-05 -0.0170813 -2.44879e-08)
(2.99795e-05 -0.0170813 0.909196)
(2.72967e-05 -0.0171917 -2.24981e-08)
(2.7913e-05 -0.0171917 0.909511)
(0.000280543 -0.0486712 -0.919998)
(0.000280266 -0.0486712 -3.90048e-08)
(0.000261412 -0.0490099 -0.92033)
(0.000261153 -0.0490099 -3.72218e-08)
(3.44031e-05 -0.0168385 -0.90797)
(3.36454e-05 -0.0168386 2.91311e-08)
(3.21409e-05 -0.0169636 -0.908294)
(3.14322e-05 -0.0169637 2.67097e-08)
(0.000280218 -0.0486712 3.3782e-09)
(0.000280224 -0.0486712 1.62251e-09)
(0.000261109 -0.0490099 3.09066e-09)
(0.000261114 -0.0490099 1.5368e-09)
(3.34704e-05 -0.0168386 -3.71558e-09)
(3.34468e-05 -0.0168386 -1.34167e-09)
(3.12686e-05 -0.0169637 -3.58928e-09)
(3.12466e-05 -0.0169637 -1.16555e-09)
(0.000280227 -0.0486712 1.21809e-10)
(0.000280227 -0.0486712 -8.67549e-10)
(0.000261117 -0.0490099 3.53502e-10)
(0.000261117 -0.0490099 -3.5588e-10)
(3.34449e-05 -0.0168386 -2.43731e-10)
(3.34449e-05 -0.0168386 -3.59152e-10)
(3.12448e-05 -0.0169637 5.62873e-11)
(3.12448e-05 -0.0169637 1.09169e-10)
(0.000280223 -0.0486712 -2.24707e-09)
(0.000280218 -0.0486712 -3.91652e-09)
(0.000261114 -0.0490099 -1.47105e-09)
(0.000261109 -0.0490099 -2.98807e-09)
(3.34467e-05 -0.0168386 7.53671e-10)
(3.34704e-05 -0.0168386 3.15721e-09)
(3.12464e-05 -0.0169637 1.23532e-09)
(3.12686e-05 -0.0169637 3.54317e-09)
(0.000280266 -0.0486712 3.91456e-08)
(0.000280543 -0.0486712 0.919998)
(0.000261153 -0.0490099 3.72174e-08)
(0.000261413 -0.0490099 0.92033)
(3.36454e-05 -0.0168386 -2.93255e-08)
(3.44036e-05 -0.0168385 0.90797)
(3.14322e-05 -0.0169637 -2.68881e-08)
(3.21411e-05 -0.0169636 0.908294)
(0.000321541 -0.0479294 -0.918681)
(0.000321227 -0.0479293 -4.33729e-08)
(0.000300591 -0.0483112 -0.919022)
(0.000300296 -0.0483111 -4.14276e-08)
(3.92099e-05 -0.016565 -0.906686)
(3.83477e-05 -0.016565 3.38405e-08)
(3.67577e-05 -0.0167057 -0.907018)
(3.59488e-05 -0.0167058 3.09923e-08)
(0.000321174 -0.0479293 4.23293e-09)
(0.000321179 -0.0479293 1.94509e-09)
(0.000300246 -0.0483111 3.82177e-09)
(0.000300251 -0.0483111 1.70968e-09)
(3.81487e-05 -0.016565 -3.90175e-09)
(3.81218e-05 -0.016565 -1.45559e-09)
(3.57621e-05 -0.0167058 -3.80979e-09)
(3.57368e-05 -0.0167058 -1.39341e-09)
(0.000321183 -0.0479293 8.40244e-12)
(0.000321183 -0.0479293 -1.42178e-09)
(0.000300255 -0.0483111 -5.00643e-11)
(0.000300255 -0.0483111 -1.33978e-09)
(3.81196e-05 -0.0165651 -4.88095e-10)
(3.81196e-05 -0.0165651 -9.49832e-10)
(3.57348e-05 -0.0167058 -4.42162e-10)
(3.57347e-05 -0.0167058 -8.05009e-10)
(0.000321179 -0.0479293 -3.3382e-09)
(0.000321173 -0.0479293 -5.47295e-09)
(0.000300251 -0.0483111 -3.04701e-09)
(0.000300246 -0.0483111 -5.02711e-09)
(3.81218e-05 -0.0165651 2.86489e-12)
(3.81489e-05 -0.016565 2.57907e-09)
(3.57367e-05 -0.0167058 1.79408e-10)
(3.57621e-05 -0.0167058 2.60417e-09)
(0.000321227 -0.0479293 4.34966e-08)
(0.000321541 -0.0479294 0.918681)
(0.000300296 -0.0483111 4.0772e-08)
(0.000300591 -0.0483112 0.919022)
(3.8348e-05 -0.016565 -3.42983e-08)
(3.92108e-05 -0.016565 0.906686)
(3.59489e-05 -0.0167058 -3.23497e-08)
(3.67585e-05 -0.0167057 0.907018)
(0.000366145 -0.0470968 -0.917335)
(0.000365791 -0.0470967 -4.99702e-08)
(0.000343402 -0.0475247 -0.917693)
(0.000343069 -0.0475246 -4.68743e-08)
(4.43833e-05 -0.0162587 -0.905373)
(4.3408e-05 -0.0162587 3.78425e-08)
(4.17504e-05 -0.016416 -0.905723)
(4.08327e-05 -0.0164161 3.5247e-08)
(0.000365731 -0.0470967 4.83362e-09)
(0.000365737 -0.0470967 2.41956e-09)
(0.000343012 -0.0475246 4.51778e-09)
(0.000343018 -0.0475246 2.09321e-09)
(4.3183e-05 -0.0162587 -4.23118e-09)
(4.31524e-05 -0.0162587 -1.39086e-09)
(4.06209e-05 -0.0164161 -4.20659e-09)
(4.05922e-05 -0.0164161 -1.51088e-09)
(0.000365742 -0.0470967 5.08968e-10)
(0.000365742 -0.0470967 -7.39654e-10)
(0.000343022 -0.0475246 1.44572e-10)
(0.000343022 -0.0475246 -1.29843e-09)
(4.31499e-05 -0.0162587 -3.23904e-11)
(4.31499e-05 -0.0162587 -2.31581e-10)
(4.05899e-05 -0.0164161 -4.27125e-10)
(4.05899e-05 -0.0164161 -8.1547e-10)
(0.000365737 -0.0470967 -2.63134e-09)
(0.000365731 -0.0470967 -5.05386e-09)
(0.000343018 -0.0475246 -3.29353e-09)
(0.000343012 -0.0475246 -5.62059e-09)
(4.31525e-05 -0.0162587 1.03998e-09)
(4.31831e-05 -0.0162587 3.91353e-09)
(4.05923e-05 -0.0164161 2.7487e-10)
(4.06211e-05 -0.0164161 2.94975e-09)
(0.000365791 -0.0470967 4.99577e-08)
(0.000366145 -0.0470968 0.917335)
(0.000343069 -0.0475246 4.62756e-08)
(0.000343402 -0.0475247 0.917693)
(4.3408e-05 -0.0162587 -3.7905e-08)
(4.4383e-05 -0.0162587 0.905373)
(4.08329e-05 -0.0164161 -3.65243e-08)
(4.17509e-05 -0.016416 0.905723)
(0.000414206 -0.0461685 -0.915937)
(0.000413811 -0.0461684 -5.65557e-08)
(0.000389758 -0.0466448 -0.916297)
(0.000389385 -0.0466448 -5.30981e-08)
(4.98878e-05 -0.015918 -0.904009)
(4.87925e-05 -0.015918 4.26692e-08)
(4.70932e-05 -0.0160927 -0.904361)
(4.60586e-05 -0.0160927 4.02477e-08)
(0.000413744 -0.0461684 5.89075e-09)
(0.000413751 -0.0461685 3.36142e-09)
(0.000389321 -0.0466448 5.40207e-09)
(0.000389328 -0.0466448 2.85678e-09)
(4.85399e-05 -0.015918 -4.18301e-09)
(4.85056e-05 -0.0159181 -9.4188e-10)
(4.58201e-05 -0.0160928 -4.22734e-09)
(4.57876e-05 -0.0160928 -1.081e-09)
(0.000413756 -0.0461685 1.39967e-09)
(0.000413756 -0.0461685 2.47135e-10)
(0.000389332 -0.0466448 1.08428e-09)
(0.000389332 -0.0466448 -5.42761e-11)
(4.85027e-05 -0.0159181 7.71403e-10)
(4.85027e-05 -0.0159181 8.05821e-10)
(4.57849e-05 -0.0160928 4.81615e-10)
(4.57849e-05 -0.0160928 4.37664e-10)
(0.000413751 -0.0461685 -1.76985e-09)
(0.000413745 -0.0461684 -4.71066e-09)
(0.000389328 -0.0466448 -1.97635e-09)
(0.000389322 -0.0466448 -4.66108e-09)
(4.85054e-05 -0.0159181 2.33718e-09)
(4.85398e-05 -0.015918 5.33487e-09)
(4.57875e-05 -0.0160928 1.84236e-09)
(4.58201e-05 -0.0160928 4.77213e-09)
(0.000413811 -0.0461684 5.64159e-08)
(0.000414206 -0.0461685 0.915937)
(0.000389385 -0.0466448 5.34451e-08)
(0.000389758 -0.0466448 0.916297)
(4.87922e-05 -0.015918 -4.20239e-08)
(4.98868e-05 -0.015918 0.904009)
(4.60585e-05 -0.0160927 -3.96318e-08)
(4.70925e-05 -0.0160927 0.904361)
(0.000465484 -0.0451401 -0.914489)