/*--------------------------------*- C++ -*----------------------------------*\
  =========                 |
  \\      /  F ield         | OpenFOAM: The Open Source CFD Toolbox
   \\    /   O peration     | Website:  https://openfoam.org
    \\  /    A nd           | Version:  9
     \\/     M anipulation  |
\*---------------------------------------------------------------------------*/
FoamFile
{
    format      ascii;
    class       volScalarField;
    location    "4.3";
    object      p;
}
// * * * * * * * * * * * * * * * * * * * * * * * * * * * * * * * * * * * * * //

dimensions      [0 2 -2 0 0 0 0];

internalField   nonuniform List<scalar> 
36360
(
20.2405
19.995
20.2308
20.0065
19.9943
20.1844
20.0168
20.1518
20.0812
20.0985
20.0873
20.1058
20.1108
20.0953
20.0989
20.0918
20.1005
20.1005
20.108
20.108
20.0937
20.0937
20.0915
20.0915
20.0985
20.0812
20.1058
20.0873
20.0953
20.1108
20.0918
20.0989
19.995
20.2404
20.0065
20.2308
20.1843
19.9943
20.1518
20.0168
20.1162
20.0691
20.1613
20.0465
19.8979
20.2543
19.9436
20.2276
20.1116
20.1026
20.0984
20.0994
20.1454
20.1035
20.1294
20.0994
20.0971
20.0971
20.0977
20.0977
20.0952
20.0952
20.0947
20.0947
20.1026
20.1116
20.0994
20.0984
20.1035
20.1454
20.0994
20.1294
20.0691
20.1162
20.0465
20.1613
20.2543
19.898
20.2276
19.9436
20.0664
20.0836
20.0876
20.0792
19.8401
20.2777
19.8647
20.2695
20.1326
20.113
20.1232
20.1076
20.1696
20.1142
20.1588
20.1086
20.0999
20.0999
20.098
20.098
20.0986
20.0986
20.0966
20.0966
20.113
20.1326
20.1076
20.1232
20.1142
20.1696
20.1086
20.1588
20.0836
20.0664
20.0792
20.0876
20.2777
19.8402
20.2694
19.8648
20.0378
20.0844
20.0502
20.0849
19.8073
20.2832
19.8216
20.2816
20.1448
20.1228
20.1396
20.1181
20.1837
20.1248
20.1777
20.1197
20.1055
20.1055
20.1025
20.1025
20.104
20.104
20.1012
20.1012
20.1227
20.1448
20.1181
20.1396
20.1248
20.1837
20.1197
20.1777
20.0844
20.0378
20.0849
20.0502
20.2832
19.8073
20.2816
19.8216
20.0204
20.0814
20.0281
20.0831
19.7872
20.2827
19.7961
20.2833
20.1511
20.1306
20.1485
20.1269
20.1909
20.1333
20.1879
20.1293
20.1117
20.1117
20.1086
20.1086
20.1101
20.1101
20.1071
20.1071
20.1306
20.1511
20.1269
20.1485
20.1333
20.1909
20.1293
20.1879
20.0814
20.0204
20.0831
20.0281
20.2827
19.7872
20.2833
19.7961
20.0088
20.0776
20.014
20.0795
19.7741
20.2805
19.78
20.2817
20.1541
20.1364
20.1529
20.1337
20.1946
20.1394
20.193
20.1366
20.1173
20.1173
20.1146
20.1146
20.1158
20.1158
20.113
20.113
20.1364
20.1541
20.1337
20.1529
20.1394
20.1946
20.1366
20.193
20.0776
20.0088
20.0795
20.014
20.2805
19.7741
20.2817
19.78
20.0008
20.074
20.0044
20.0758
19.7649
20.278
19.7692
20.2792
20.1554
20.1404
20.1549
20.1386
20.1964
20.1436
20.1956
20.1417
20.122
20.122
20.1198
20.1198
20.1205
20.1205
20.1183
20.1183
20.1404
20.1554
20.1386
20.1549
20.1436
20.1964
20.1417
20.1956
20.074
20.0007
20.0758
20.0044
20.2779
19.7651
20.2792
19.7691
19.9948
20.0709
19.9976
20.0724
19.7588
20.2754
19.7617
20.2766
20.1557
20.143
20.1556
20.1418
20.1971
20.1464
20.1968
20.1452
20.1255
20.1255
20.1239
20.1239
20.1242
20.1242
20.1225
20.1225
20.143
20.1557
20.1418
20.1556
20.1465
20.1972
20.1452
20.1968
20.0709
19.9948
20.0724
19.9975
20.2756
19.7581
20.2766
19.7616
19.9903
20.0681
19.9924
20.0695
19.7539
20.2731
19.7561
20.2742
20.1553
20.1446
20.1556
20.1439
20.1972
20.1482
20.1972
20.1474
20.1279
20.1279
20.1268
20.1268
20.1268
20.1268
20.1256
20.1256
20.1446
20.1553
20.1439
20.1556
20.1482
20.1972
20.1475
20.1973
20.0681
19.9903
20.0695
19.9924
20.2731
19.7539
20.2743
19.7558
19.9867
20.0657
19.9884
20.0669
19.7499
20.271
19.7517
20.272
20.1546
20.1454
20.155
20.1451
20.1969
20.1492
20.1971
20.1488
20.1294
20.1294
20.1288
20.1288
20.1285
20.1285
20.1278
20.1278
20.1454
20.1546
20.1451
20.155
20.1491
20.1968
20.1488
20.1971
20.0657
19.9868
20.0669
19.9884
20.2708
19.7505
20.272
19.7519
19.9837
20.0634
19.9851
20.0646
19.7488
20.2683
19.7491
20.2697
20.1534
20.1454
20.1541
20.1455
20.1958
20.1493
20.1964
20.1493
20.1301
20.1301
20.1298
20.1298
20.1294
20.1294
20.1291
20.1291
20.1454
20.1535
20.1455
20.1541
20.1494
20.196
20.1493
20.1964
20.0635
19.9837
20.0645
19.9851
20.2686
19.7478
20.2696
19.7493
19.9811
20.0613
19.9824
20.0624
19.7463
20.2662
19.7475
20.2673
20.152
20.1449
20.1528
20.1452
20.1947
20.149
20.1953
20.1492
20.13
20.13
20.1301
20.1301
20.1295
20.1295
20.1295
20.1295
20.1449
20.152
20.1452
20.1528
20.1489
20.1947
20.1492
20.1954
20.0613
19.9809
20.0624
19.9823
20.266
19.7466
20.2674
19.747
19.9787
20.0591
19.9798
20.0602
19.7443
20.2639
19.7453
20.265
20.1503
20.1438
20.1512
20.1444
20.1932
20.1481
20.194
20.1486
20.1293
20.1293
20.1297
20.1297
20.1291
20.1291
20.1294
20.1294
20.1438
20.1503
20.1444
20.1512
20.148
20.1931
20.1486
20.1939
20.0592
19.9787
20.0603
19.9797
20.2638
19.7445
20.2649
19.7456
19.9763
20.0572
19.9775
20.0582
19.7429
20.2612
19.7438
20.2625
20.1484
20.1423
20.1494
20.1431
20.1912
20.1466
20.1922
20.1474
20.128
20.128
20.1287
20.1287
20.128
20.128
20.1286
20.1286
20.1423
20.1484
20.1431
20.1494
20.1466
20.1913
20.1474
20.1922
20.057
19.9765
20.0581
19.9775
20.2613
19.7426
20.2625
19.7437
19.974
20.0547
19.9751
20.056
19.7418
20.2583
19.7421
20.2599
20.1461
20.1403
20.1473
20.1414
20.1889
20.1447
20.1901
20.1457
20.1262
20.1263
20.1272
20.1272
20.1263
20.1263
20.1272
20.1272
20.1403
20.1462
20.1414
20.1473
20.1447
20.1889
20.1457
20.1902
20.0548
19.9739
20.056
19.9752
20.2584
19.7413
20.2601
19.7415
19.9716
20.0523
19.9728
20.0535
19.7402
20.2555
19.7411
20.2569
20.1436
20.1379
20.1449
20.1391
20.1862
20.1423
20.1876
20.1435
20.124
20.124
20.1252
20.1252
20.1241
20.1241
20.1253
20.1253
20.1379
20.1436
20.1391
20.1449
20.1423
20.1862
20.1435
20.1876
20.0524
19.9715
20.0536
19.9727
20.2555
19.7397
20.2569
19.7408
19.9693
20.0497
19.9705
20.051
19.7391
20.252
19.7397
20.2538
20.1408
20.135
20.1422
20.1365
20.183
20.1393
20.1846
20.1408
20.1212
20.1212
20.1226
20.1226
20.1213
20.1214
20.1228
20.1228
20.135
20.1408
20.1365
20.1423
20.1393
20.1831
20.1409
20.1847
20.0499
19.9691
20.0511
19.9703
20.2521
19.7384
20.2539
19.7389
19.9665
20.0473
19.9679
20.0485
19.7374
20.2483
19.7381
20.2503
20.1378
20.1319
20.1393
20.1335
20.1795
20.136
20.1813
20.1377
20.1181
20.1181
20.1197
20.1197
20.1181
20.1181
20.1198
20.1198
20.1318
20.1377
20.1335
20.1393
20.136
20.1795
20.1377
20.1813
20.0471
19.9668
20.0485
19.968
20.2484
19.737
20.2503
19.7377
19.9638
20.0443
19.9651
20.0458
19.7361
20.2442
19.7369
20.2462
20.1344
20.1283
20.1361
20.1301
20.1755
20.1321
20.1775
20.1341
20.1146
20.1146
20.1164
20.1164
20.1144
20.1144
20.1163
20.1163
20.1283
20.1344
20.1301
20.1361
20.1321
20.1755
20.1341
20.1776
20.0443
19.9638
20.0457
19.9653
20.244
19.7362
20.2462
19.7367
19.9611
20.0413
19.9624
20.0428
19.7341
20.2399
19.7351
20.2421
20.131
20.1245
20.1327
20.1264
20.1713
20.128
20.1735
20.1301
20.1108
20.1108
20.1127
20.1127
20.1102
20.1102
20.1124
20.1123
20.1245
20.131
20.1264
20.1328
20.128
20.1713
20.1301
20.1734
20.0414
19.9611
20.0429
19.9624
20.24
19.734
20.242
19.7353
19.9584
20.0386
19.9598
20.04
19.7318
20.2355
19.7329
20.2377
20.1276
20.1205
20.1293
20.1225
20.1667
20.1234
20.169
20.1257
20.1068
20.1068
20.1088
20.1088
20.1057
20.1057
20.108
20.108
20.1205
20.1275
20.1225
20.1293
20.1234
20.1666
20.1258
20.1691
20.0385
19.9583
20.04
19.9598
20.2352
19.7323
20.2379
19.7326
19.9557
20.0354
19.957
20.037
19.7307
20.2303
19.7313
20.2329
20.1239
20.1162
20.1257
20.1185
20.1616
20.1185
20.1642
20.121
20.1025
20.1025
20.1047
20.1047
20.1008
20.1008
20.1033
20.1033
20.1162
20.1239
20.1184
20.1257
20.1185
20.1616
20.1209
20.1641
20.0354
19.9555
20.037
19.9569
20.2302
19.7312
20.2326
19.7321
19.9527
20.0327
19.9542
20.0341
19.7288
20.2254
19.7297
20.2279
20.1204
20.1118
20.1221
20.114
20.1566
20.1134
20.1591
20.116
20.0981
20.0981
20.1003
20.1003
20.0957
20.0957
20.0983
20.0983
20.1117
20.1203
20.114
20.1221
20.1133
20.1565
20.1159
20.1591
20.0326
19.9528
20.0341
19.9541
20.2253
19.7294
20.2279
19.73
19.9502
20.0299
19.9514
20.0314
19.7278
20.2203
19.7281
20.2229
20.1168
20.1074
20.1186
20.1096
20.1513
20.1081
20.1539
20.1107
20.0938
20.0938
20.0959
20.0959
20.0905
20.0905
20.0931
20.0931
20.1074
20.1168
20.1096
20.1185
20.1081
20.1514
20.1107
20.1539
20.0298
19.9506
20.0311
19.9517
20.2205
19.7273
20.2227
19.7287
19.9483
20.0273
19.9492
20.0285
19.7271
20.215
19.7276
20.2176
20.1136
20.1033
20.1151
20.1053
20.146
20.1027
20.1486
20.1054
20.0895
20.0896
20.0916
20.0916
20.0852
20.0852
20.0878
20.0878
20.1033
20.1137
20.1053
20.1152
20.1028
20.1461
20.1054
20.1487
20.0275
19.948
20.0287
19.9492
20.2151
19.7266
20.2178
19.7268
19.9463
20.0255
19.9471
20.0264
19.7258
20.2103
19.7265
20.2126
20.1107
20.0994
20.1122
20.1013
20.1409
20.0975
20.1435
20.1001
20.0856
20.0856
20.0875
20.0875
20.08
20.08
20.0826
20.0826
20.0994
20.1108
20.1013
20.1122
20.0975
20.141
20.1001
20.1435
20.0255
19.9463
20.0264
19.9471
20.2103
19.7255
20.2127
19.7259
19.9452
20.0238
19.9456
20.0246
19.7257
20.2056
19.7258
20.2079
20.1073
20.0959
20.109
20.0976
20.1359
20.0924
20.1384
20.0949
20.082
20.082
20.0838
20.0838
20.075
20.075
20.0775
20.0775
20.0959
20.1074
20.0976
20.1091
20.0925
20.136
20.095
20.1384
20.0239
19.945
20.0247
19.9455
20.2058
19.7251
20.208
19.7252
19.9445
20.0229
19.9448
20.0233
19.7259
20.2014
19.7255
20.2036
20.1047
20.0928
20.1059
20.0943
20.1312
20.0878
20.1335
20.0901
20.079
20.079
20.0804
20.0804
20.0704
20.0704
20.0727
20.0727
20.0928
20.1047
20.0943
20.106
20.0878
20.1312
20.0901
20.1336
20.0229
19.9445
20.0233
19.9446
20.2014
19.7259
20.2035
19.7255
19.9448
20.0227
19.9446
20.0227
19.7272
20.1977
19.7265
20.1995
20.1027
20.0904
20.1036
20.0915
20.127
20.0835
20.129
20.0856
20.0765
20.0765
20.0777
20.0777
20.0664
20.0664
20.0683
20.0683
20.0904
20.1027
20.0915
20.1036
20.0835
20.127
20.0856
20.129
20.0227
19.9449
20.0227
19.9446
20.1977
19.7273
20.1995
19.7265
19.9461
20.0234
19.9453
20.023
19.7296
20.1945
19.7283
20.196
20.1014
20.0887
20.102
20.0894
20.1233
20.0799
20.1251
20.0816
20.0749
20.0749
20.0756
20.0756
20.063
20.063
20.0646
20.0646
20.0886
20.1014
20.0894
20.102
20.0799
20.1233
20.0816
20.1251
20.0234
19.9461
20.0229
19.9453
20.1945
19.7296
20.196
19.7283
19.9483
20.0249
19.947
20.024
19.7332
20.192
19.7313
20.1931
20.101
20.0877
20.1011
20.0881
20.1204
20.077
20.1218
20.0783
20.0741
20.0741
20.0744
20.0744
20.0604
20.0604
20.0616
20.0616
20.0877
20.101
20.0881
20.1011
20.077
20.1204
20.0783
20.1218
20.0249
19.9483
20.024
19.947
20.192
19.7333
20.1931
19.7313
19.9517
20.0274
19.9499
20.0261
19.7382
20.1902
19.7356
20.191
20.1014
20.0877
20.1011
20.0876
20.1181
20.075
20.1191
20.0759
20.0743
20.0743
20.0741
20.0741
20.0589
20.0589
20.0595
20.0595
20.0877
20.1014
20.0876
20.1011
20.075
20.1181
20.0759
20.1191
20.0274
19.9517
20.0261
19.9499
20.1902
19.7382
20.191
19.7356
19.9564
20.0308
19.9539
20.029
19.7448
20.1893
19.7413
20.1897
20.1025
20.0885
20.1019
20.088
20.1167
20.074
20.1173
20.0743
20.0755
20.0755
20.0748
20.0748
20.0585
20.0585
20.0585
20.0585
20.0885
20.1025
20.088
20.1019
20.074
20.1167
20.0743
20.1173
20.0308
19.9564
20.029
19.9539
20.1893
19.7448
20.1897
19.7413
19.9625
20.0351
19.9593
20.0329
19.7531
20.1892
19.7487
20.1892
20.1045
20.0903
20.1034
20.0893
20.116
20.074
20.1162
20.0738
20.0779
20.0779
20.0766
20.0766
20.0593
20.0593
20.0587
20.0587
20.0903
20.1045
20.0893
20.1034
20.074
20.116
20.0738
20.1162
20.0351
19.9625
20.0329
19.9593
20.1892
19.7531
20.1892
19.7487
19.9701
20.0401
19.9661
20.0375
19.7634
20.1898
19.758
20.1894
20.1071
20.0931
20.1057
20.0916
20.1162
20.0752
20.116
20.0745
20.0814
20.0814
20.0795
20.0795
20.0615
20.0615
20.0602
20.0602
20.0931
20.1071
20.0916
20.1057
20.0752
20.1162
20.0745
20.116
20.0401
19.9701
20.0375
19.9661
20.1898
19.7635
20.1894
19.758
19.9792
20.0458
19.9745
20.0429
19.7762
20.1908
19.7695
20.1903
20.1103
20.0968
20.1086
20.0948
20.1171
20.0776
20.1166
20.0763
20.0861
20.0861
20.0836
20.0836
20.0651
20.0651
20.0631
20.0631
20.0968
20.1103
20.0948
20.1086
20.0776
20.1171
20.0763
20.1166
20.0458
19.9792
20.0429
19.9745
20.1908
19.7762
20.1903
19.7695
19.9897
20.0519
19.9843
20.0488
19.7921
20.1916
19.7837
20.1913
20.1139
20.1013
20.112
20.099
20.1185
20.0812
20.1177
20.0793
20.0918
20.0918
20.0888
20.0888
20.0701
20.0701
20.0674
20.0674
20.1013
20.1138
20.099
20.112
20.0812
20.1185
20.0793
20.1177
20.0519
19.9897
20.0488
19.9843
20.1916
19.7921
20.1913
19.7837
19.9992
20.0605
19.995
20.0556
19.8122
20.1908
19.8016
20.1915
20.1179
20.1069
20.1158
20.104
20.1202
20.0861
20.1193
20.0835
20.0987
20.0987
20.0951
20.0951
20.0765
20.0765
20.0731
20.0731
20.1069
20.1179
20.104
20.1158
20.0861
20.1202
20.0835
20.1193
20.0605
19.9992
20.0556
19.995
20.1908
19.8122
20.1915
19.8016
20.0071
20.0703
20.0013
20.0673
19.8376
20.1861
19.8241
20.1892
20.1237
20.1138
20.1205
20.1101
20.1228
20.0925
20.1213
20.0891
20.1067
20.1067
20.1026
20.1026
20.0843
20.0843
20.0802
20.0802
20.1138
20.1237
20.1101
20.1205
20.0925
20.1228
20.0891
20.1213
20.0703
20.0071
20.0673
20.0013
20.1861
19.8376
20.1892
19.8241
20.4246
19.9444
20.3277
19.978
20.3789
19.931
20.3054
19.9668
19.9917
20.0617
20.029
20.0807
20.0201
20.0799
20.0465
20.0916
20.0942
20.0942
20.102
20.102
20.0989
20.0989
20.1035
20.1035
20.0617
19.9917
20.0807
20.029
20.0799
20.0201
20.0916
20.0465
19.9444
20.4245
19.978
20.3276
19.931
20.3788
19.9668
20.3053
20.2877
20.0375
20.3319
20.0148
20.2513
20.0138
20.2946
19.9923
20.0324
20.0652
20.0177
20.0633
20.0557
20.0835
20.0422
20.0812
20.085
20.085
20.0888
20.0888
20.0937
20.0937
20.0959
20.0959
20.0652
20.0324
20.0633
20.0177
20.0835
20.0557
20.0812
20.0422
20.0375
20.2876
20.0148
20.3318
20.0138
20.2513
19.9923
20.2945
20.2507
20.0427
20.2658
20.0429
20.2101
20.0215
20.2274
20.0203
20.0492
20.0742
20.0424
20.0696
20.0739
20.0935
20.066
20.0883
20.0866
20.0866
20.0849
20.0849
20.0958
20.0958
20.0941
20.0941
20.0742
20.0492
20.0696
20.0424
20.0935
20.0739
20.0883
20.066
20.0427
20.2506
20.0429
20.2657
20.0215
20.2101
20.0203
20.2274
20.231
20.038
20.2395
20.0406
20.1871
20.0182
20.1971
20.0203
20.0562
20.0823
20.0535
20.0785
20.0832
20.1029
20.0794
20.0985
20.0924
20.0924
20.0893
20.0893
20.1014
20.1014
20.0984
20.0984
20.0823
20.0562
20.0785
20.0535
20.1029
20.0832
20.0985
20.0794
20.038
20.231
20.0406
20.2395
20.0182
20.1871
20.0203
20.1971
20.219
20.0323
20.2244
20.0351
20.173
20.0133
20.1793
20.0157
20.0587
20.0883
20.0578
20.0855
20.087
20.11
20.0857
20.1067
20.0988
20.0988
20.0956
20.0956
20.1077
20.1077
20.1046
20.1046
20.0883
20.0587
20.0855
20.0578
20.11
20.087
20.1067
20.0857
20.0323
20.219
20.0351
20.2243
20.0133
20.173
20.0157
20.1793
20.2109
20.0272
20.2146
20.0296
20.1637
20.0087
20.168
20.0109
20.0592
20.0925
20.0591
20.0906
20.0881
20.1151
20.0877
20.1128
20.1043
20.1043
20.1017
20.1017
20.1134
20.1134
20.1107
20.1107
20.0925
20.0592
20.0906
20.0591
20.1151
20.0881
20.1128
20.0877
20.0272
20.2109
20.0296
20.2146
20.0087
20.1637
20.0109
20.1679
20.205
20.0228
20.2078
20.0249
20.1571
20.0046
20.1602
20.0065
20.0589
20.0953
20.0591
20.0941
20.0881
20.1186
20.0882
20.117
20.1086
20.1086
20.1066
20.1066
20.1179
20.1179
20.1158
20.1158
20.0953
20.0589
20.0941
20.0591
20.1186
20.0881
20.117
20.0882
20.0228
20.205
20.0249
20.2077
20.0046
20.157
20.0065
20.1601
20.2005
20.019
20.2026
20.0208
20.152
20.0011
20.1544
20.0028
20.0581
20.0971
20.0585
20.0963
20.0876
20.1209
20.0879
20.1199
20.1117
20.1117
20.1103
20.1103
20.1213
20.1213
20.1198
20.1198
20.0971
20.0581
20.0963
20.0585
20.1209
20.0876
20.1199
20.0879
20.019
20.2005
20.0208
20.2026
20.0011
20.152
20.0028
20.1543
20.1969
20.0157
20.1986
20.0173
20.1483
19.9979
20.15
19.9994
20.057
20.098
20.0576
20.0976
20.0866
20.1222
20.0871
20.1217
20.1137
20.1137
20.1128
20.1128
20.1236
20.1236
20.1226
20.1226
20.098
20.057
20.0976
20.0576
20.1222
20.0867
20.1217
20.0872
20.0158
20.1968
20.0173
20.1986
19.998
20.148
19.9995
20.1499
20.1939
20.0127
20.1954
20.0142
20.1452
19.995
20.1466
19.9964
20.0556
20.0982
20.0563
20.0981
20.0855
20.1228
20.0861
20.1226
20.1148
20.1148
20.1143
20.1143
20.1249
20.1249
20.1244
20.1244
20.0982
20.0557
20.0982
20.0564
20.1228
20.0855
20.1226
20.0862
20.0128
20.1938
20.0142
20.1953
19.9952
20.1449
19.9965
20.1464
20.1911
20.01
20.1925
20.0113
20.1423
19.9924
20.1438
19.9936
20.0542
20.0978
20.0549
20.0981
20.0841
20.1227
20.0848
20.1228
20.1151
20.1151
20.115
20.115
20.1254
20.1254
20.1253
20.1253
20.0978
20.0541
20.0981
20.0549
20.1227
20.0841
20.1228
20.0848
20.01
20.1911
20.0113
20.1924
19.9923
20.1425
19.9937
20.1436
20.1885
20.0074
20.1897
20.0087
20.1399
19.9899
20.1411
19.9912
20.0525
20.097
20.0533
20.0975
20.0825
20.122
20.0833
20.1224
20.1147
20.1147
20.115
20.115
20.1252
20.1252
20.1254
20.1254
20.097
20.0524
20.0975
20.0533
20.122
20.0825
20.1224
20.0833
20.0073
20.1885
20.0086
20.1898
19.9899
20.1399
19.9911
20.1412
20.1861
20.0047
20.1873
20.006
20.1378
19.9873
20.1389
19.9885
20.0506
20.0958
20.0515
20.0964
20.0807
20.1209
20.0816
20.1215
20.1138
20.1138
20.1143
20.1143
20.1244
20.1244
20.1249
20.1249
20.0958
20.0506
20.0964
20.0515
20.1209
20.0808
20.1215
20.0817
20.0047
20.1861
20.006
20.1873
19.9875
20.1375
19.9887
20.1386
20.1838
20.002
20.1849
20.0034
20.1355
19.9849
20.1366
19.9861
20.0484
20.0942
20.0496
20.095
20.0787
20.1193
20.0797
20.1202
20.1125
20.1125
20.1132
20.1132
20.1231
20.1231
20.1238
20.1238
20.0942
20.0485
20.095
20.0496
20.1193
20.0786
20.1202
20.0797
20.0022
20.1836
20.0034
20.1848
19.9847
20.1356
19.9861
20.1366
20.1815
19.9993
20.1828
20.0005
20.1333
19.9821
20.1345
19.9835
20.0462
20.0922
20.0473
20.0932
20.0763
20.1174
20.0775
20.1184
20.1107
20.1107
20.1116
20.1116
20.1213
20.1213
20.1222
20.1222
20.0922
20.0462
20.0933
20.0474
20.1174
20.0764
20.1184
20.0775
19.9992
20.1815
20.0006
20.1826
19.9823
20.1331
19.9835
20.1344
20.1789
19.9965
20.1802
19.9979
20.1309
19.9796
20.1322
19.9808
20.0438
20.0901
20.045
20.0912
20.074
20.1151
20.0752
20.1163
20.1086
20.1086
20.1097
20.1097
20.119
20.119
20.1202
20.1202
20.0901
20.0439
20.0912
20.0451
20.1151
20.074
20.1163
20.0753
19.9967
20.1788
19.9979
20.1802
19.9797
20.1306
19.981
20.1318
20.1762
19.994
20.1776
19.9952
20.1281
19.9771
20.1295
19.9784
20.0414
20.0877
20.0426
20.0889
20.0714
20.1124
20.0727
20.1138
20.1062
20.1062
20.1074
20.1074
20.1164
20.1164
20.1178
20.1178
20.0877
20.0414
20.0889
20.0426
20.1125
20.0714
20.1138
20.0727
19.9938
20.1764
19.9952
20.1776
19.9772
20.1279
19.9784
20.1293
20.1738
19.9911
20.175
19.9925
20.1254
19.9745
20.1268
19.9757
20.0388
20.0851
20.0401
20.0864
20.0686
20.1095
20.07
20.111
20.1035
20.1035
20.1049
20.1049
20.1135
20.1135
20.115
20.115
20.0851
20.039
20.0864
20.0402
20.1095
20.0686
20.111
20.07
19.9914
20.1733
19.9926
20.1749
19.9743
20.1255
19.9758
20.1268
20.1708
19.9887
20.1723
19.9898
20.1227
19.9717
20.124
19.9731
20.0364
20.0824
20.0376
20.0838
20.0657
20.1064
20.0672
20.108
20.1007
20.1007
20.1021
20.1021
20.1103
20.1103
20.1119
20.1119
20.0824
20.0363
20.0838
20.0376
20.1064
20.0657
20.108
20.0672
19.9885
20.171
19.9899
20.1722
19.9718
20.1227
19.9731
20.124
20.1682
19.986
20.1695
19.9873
20.1199
19.9691
20.1213
19.9703
20.0338
20.0797
20.0351
20.0811
20.0628
20.1031
20.0643
20.1047
20.0979
20.0979
20.0993
20.0993
20.1069
20.1069
20.1086
20.1086
20.0797
20.0339
20.0811
20.0351
20.103
20.0627
20.1047
20.0642
19.9862
20.1681
19.9873
20.1696
19.9689
20.1202
19.9703
20.1215
20.1654
19.9839
20.1668
19.9849
20.1172
19.9665
20.1185
19.9678
20.0316
20.0771
20.0327
20.0784
20.0598
20.0995
20.0613
20.1013
20.095
20.095
20.0964
20.0964
20.1035
20.1035
20.1052
20.1052
20.077
20.0314
20.0784
20.0327
20.0995
20.0598
20.1013
20.0613
19.9837
20.1658
19.9849
20.167
19.9666
20.1173
19.9676
20.1188
20.1631
19.9817
20.1642
19.9828
20.1143
19.9642
20.1157
19.9653
20.0293
20.0745
20.0304
20.0758
20.0569
20.0963
20.0584
20.0977
20.0923
20.0923
20.0936
20.0936
20.1
20.1
20.1017
20.1017
20.0745
20.0294
20.0757
20.0304
20.0962
20.0568
20.0977
20.0583
19.9818
20.1631
19.9827
20.1644
19.964
20.1148
19.9653
20.1159
20.1609
19.98
20.162
19.9808
20.112
19.962
20.1132
19.963
20.0275
20.0722
20.0284
20.0733
20.0541
20.0934
20.0555
20.0949
20.0896
20.0896
20.0909
20.0909
20.0966
20.0966
20.0983
20.0982
20.0722
20.0274
20.0733
20.0283
20.0934
20.0541
20.0948
20.0555
19.9798
20.1613
19.9807
20.1622
19.962
20.1121
19.9629
20.1135
20.1596
19.9784
20.1603
19.9791
20.1099
19.9601
20.1109
19.961
20.0259
20.0703
20.0266
20.0713
20.0514
20.0904
20.0528
20.0919
20.0873
20.0873
20.0884
20.0884
20.0933
20.0933
20.0949
20.0949
20.0704
20.026
20.0713
20.0266
20.0904
20.0513
20.0919
20.0527
19.9787
20.1591
19.9792
20.1601
19.9599
20.1103
19.9609
20.1111
20.1578
19.9779
20.1586
19.978
20.1085
19.9584
20.1092
19.9591
20.0249
20.0689
20.0253
20.0695
20.0486
20.0877
20.05
20.089
20.0854
20.0854
20.0863
20.0863
20.0904
20.0904
20.0918
20.0918
20.0688
20.0248
20.0695
20.0253
20.0877
20.0487
20.089
20.05
19.9776
20.1584
19.9781
20.1587
19.9586
20.1083
19.9592
20.1093
20.1576
19.9774
20.1577
19.9775
20.1069
19.9578
20.1077
19.958
20.0249
20.0679
20.0247
20.0683
20.046
20.0854
20.0473
20.0865
20.0839
20.0839
20.0846
20.0846
20.0879
20.0879
20.0891
20.0891
20.0679
20.0249
20.0683
20.0247
20.0854
20.046
20.0865
20.0473
19.9775
20.1574
19.9774
20.1578
19.9575
20.1073
19.9579
20.1078
20.157
19.978
20.1572
19.9776
20.1063
19.9575
20.1064
19.9576
20.0247
20.0673
20.0246
20.0675
20.0466
20.0838
20.0462
20.0846
20.083
20.083
20.0834
20.0834
20.0857
20.0857
20.0867
20.0867
20.0673
20.0246
20.0675
20.0246
20.0838
20.0466
20.0846
20.0462
19.9778
20.1574
19.9775
20.1574
19.9575
20.1063
19.9574
20.1067
20.1576
19.9791
20.1572
19.9785
20.1061
19.9581
20.1063
19.9576
20.0255
20.0674
20.025
20.0673
20.0471
20.0827
20.0468
20.0832
20.0826
20.0826
20.0827
20.0827
20.0842
20.0842
20.0849
20.0849
20.0674
20.0255
20.0673
20.0249
20.0827
20.0471
20.0832
20.0468
19.9791
20.1578
19.9783
20.1575
19.9581
20.1063
19.9577
20.1062
20.159
19.9813
20.1582
19.9801
20.1068
19.9596
20.1064
19.9587
20.0272
20.0683
20.0262
20.0678
20.048
20.0822
20.0475
20.0824
20.083
20.083
20.0827
20.0827
20.0834
20.0834
20.0837
20.0837
20.0683
20.0272
20.0678
20.0262
20.0822
20.048
20.0824
20.0475
19.9813
20.159
19.9801
20.1583
19.9596
20.1067
19.9587
20.1064
20.161
19.9845
20.1599
19.9827
20.1082
19.9617
20.1074
19.9605
20.0297
20.0699
20.0283
20.069
20.0495
20.0825
20.0487
20.0823
20.0842
20.0842
20.0835
20.0835
20.0834
20.0834
20.0833
20.0833
20.0699
20.0297
20.069
20.0283
20.0825
20.0495
20.0823
20.0487
19.9845
20.161
19.9827
20.1599
19.9617
20.1081
19.9606
20.1074
20.1637
19.9895
20.1622
19.9868
20.1104
19.9643
20.1092
19.963
20.033
20.0723
20.0312
20.071
20.0518
20.0836
20.0506
20.083
20.0862
20.0862
20.0851
20.0851
20.0842
20.0842
20.0837
20.0837
20.0723
20.033
20.071
20.0312
20.0836
20.0518
20.083
20.0506
19.9895
20.1637
19.9868
20.1622
19.9643
20.1104
19.963
20.1092
20.1671
19.9928
20.1653
19.991
20.1136
19.9694
20.1119
19.9668
20.037
20.0755
20.0349
20.0738
20.0548
20.0855
20.0532
20.0845
20.0889
20.0889
20.0875
20.0875
20.086
20.086
20.085
20.085
20.0755
20.037
20.0738
20.0349
20.0855
20.0548
20.0845
20.0532
19.9928
20.167
19.991
20.1653
19.9694
20.1136
19.9668
20.1119
20.1711
19.9976
20.169
19.9951
20.1177
19.975
20.1156
19.9721
20.0417
20.0795
20.0392
20.0774
20.0586
20.0882
20.0566
20.0868
20.0925
20.0925
20.0906
20.0906
20.0886
20.0886
20.0872
20.0872
20.0795
20.0417
20.0774
20.0392
20.0882
20.0586
20.0868
20.0567
19.9976
20.1711
19.9951
20.169
19.975
20.1177
19.9721
20.1156
20.1756
20.0034
20.1733
20.0004
20.1227
19.9812
20.1201
19.978
20.047
20.084
20.0443
20.0817
20.0631
20.0918
20.0608
20.0899
20.0968
20.0968
20.0946
20.0946
20.0922
20.0922
20.0903
20.0903
20.084
20.047
20.0817
20.0443
20.0918
20.0631
20.0899
20.0608
20.0034
20.1756
20.0004
20.1733
19.9812
20.1227
19.978
20.1201
20.1803
20.0099
20.178
20.0065
20.1284
19.9882
20.1255
19.9846
20.0529
20.0892
20.0499
20.0865
20.0682
20.096
20.0656
20.0938
20.1017
20.1017
20.0992
20.0992
20.0967
20.0967
20.0943
20.0943
20.0892
20.0529
20.0865
20.0499
20.096
20.0682
20.0938
20.0656
20.0099
20.1803
20.0065
20.178
19.9882
20.1284
19.9846
20.1255
20.1845
20.0171
20.1825
20.0133
20.1345
19.9961
20.1315
19.992
20.0594
20.0947
20.0561
20.0919
20.0737
20.1008
20.0709
20.0983
20.1072
20.1072
20.1044
20.1044
20.1019
20.1019
20.0992
20.0992
20.0947
20.0594
20.0919
20.0561
20.1008
20.0737
20.0983
20.0709
20.0171
20.1845
20.0133
20.1825
19.9961
20.1345
19.992
20.1315
20.1868
20.0258
20.186
20.0211
20.1401
20.0054
20.1374
20.0005
20.0662
20.1006
20.0627
20.0977
20.0796
20.1062
20.0767
20.1034
20.1133
20.1133
20.1102
20.1102
20.108
20.108
20.1049
20.1049
20.1006
20.0662
20.0977
20.0627
20.1062
20.0796
20.1034
20.0767
20.0258
20.1868
20.0211
20.186
20.0054
20.1401
20.0005
20.1374
20.1807
20.0409
20.1858
20.0317
20.1404
20.0182
20.1417
20.0107
20.0736
20.1067
20.0698
20.1036
20.0859
20.112
20.0827
20.109
20.12
20.12
20.1165
20.1165
20.1148
20.1148
20.1113
20.1113
20.1067
20.0736
20.1036
20.0698
20.112
20.0859
20.109
20.0827
20.0409
20.1807
20.0317
20.1858
20.0182
20.1404
20.0107
20.1417
20.1982
20.0352
20.1746
20.0516
20.1564
20.0161
20.1377
20.0271
20.0761
20.1137
20.077
20.11
20.0903
20.1192
20.0892
20.1154
20.1273
20.1273
20.1236
20.1236
20.1224
20.1224
20.1185
20.1185
20.1137
20.0761
20.11
20.077
20.1192
20.0903
20.1154
20.0892
20.0352
20.1981
20.0516
20.1746
20.0161
20.1564
20.0271
20.1377
20.442
19.9847
20.3347
20.0062
20.4373
19.9671
20.3331
19.9941
19.9756
20.0385
20.0191
20.0666
19.9795
20.0478
20.0213
20.0723
20.0776
20.0777
20.0932
20.0932
20.086
20.086
20.0979
20.0979
20.0385
19.9756
20.0667
20.0191
20.0478
19.9795
20.0723
20.0213
19.9847
20.4419
20.0062
20.3347
19.9671
20.4372
19.9941
20.3331
20.2807
20.0949
20.3306
20.0695
20.2878
20.0701
20.3347
20.0453
20.0298
20.0433
20.0106
20.0412
20.0267
20.0516
20.0105
20.0497
20.0621
20.0621
20.0687
20.0687
20.0732
20.0732
20.0786
20.0787
20.0433
20.0298
20.0412
20.0106
20.0516
20.0267
20.0498
20.0105
20.0949
20.2806
20.0694
20.3305
20.0701
20.2878
20.0453
20.3346
20.2445
20.0996
20.2585
20.1002
20.252
20.0746
20.2662
20.0753
20.0478
20.0517
20.0413
20.0475
20.0439
20.0603
20.0372
20.0559
20.062
20.062
20.0608
20.0608
20.0739
20.0739
20.0723
20.0723
20.0517
20.0478
20.0475
20.0413
20.0603
20.0439
20.0559
20.0372
20.0996
20.2444
20.1002
20.2585
20.0746
20.2519
20.0753
20.2662
20.227
20.0944
20.2345
20.0972
20.2339
20.0693
20.2417
20.0721
20.0532
20.0587
20.0513
20.0555
20.0502
20.0675
20.0479
20.0642
20.0675
20.0675
20.0645
20.0645
20.0796
20.0796
20.0765
20.0765
20.0587
20.0532
20.0555
20.0513
20.0675
20.0502
20.0642
20.0479
20.0944
20.227
20.0972
20.2344
20.0693
20.2338
20.0721
20.2416
20.2164
20.0887
20.2212
20.0914
20.2228
20.0636
20.2278
20.0664
20.0544
20.0636
20.0541
20.0614
20.0519
20.0727
20.0513
20.0704
20.0734
20.0734
20.0705
20.0705
20.0857
20.0857
20.0827
20.0827
20.0636
20.0544
20.0614
20.0541
20.0727
20.0519
20.0704
20.0513
20.0887
20.2164
20.0914
20.2211
20.0636
20.2228
20.0664
20.2277
20.2092
20.0838
20.2126
20.0861
20.2153
20.0586
20.2188
20.061
20.0544
20.0667
20.0545
20.0653
20.052
20.0762
20.0521
20.0747
20.0782
20.0782
20.0759
20.0759
20.0909
20.0909
20.0885
20.0885
20.0667
20.0544
20.0653
20.0545
20.0762
20.052
20.0747
20.0521
20.0838
20.2092
20.0861
20.2125
20.0586
20.2153
20.061
20.2187
20.2039
20.0796
20.2064
20.0816
20.2098
20.0544
20.2124
20.0564
20.0538
20.0685
20.0542
20.0677
20.0515
20.0785
20.0518
20.0775
20.0817
20.0817
20.0801
20.0801
20.0948
20.0948
20.093
20.093
20.0686
20.0538
20.0677
20.0542
20.0785
20.0515
20.0775
20.0518
20.0796
20.2039
20.0816
20.2064
20.0544
20.2098
20.0564
20.2124
20.1997
20.0761
20.2017
20.0778
20.2056
20.0507
20.2076
20.0525
20.0529
20.0696
20.0534
20.0692
20.0505
20.0799
20.051
20.0793
20.0841
20.0841
20.083
20.083
20.0975
20.0975
20.0963
20.0963
20.0696
20.0529
20.0692
20.0534
20.0799
20.0505
20.0793
20.051
20.0761
20.1997
20.0778
20.2017
20.0508
20.2055
20.0525
20.2075
20.1963
20.073
20.198
20.0745
20.2021
20.0475
20.2038
20.0491
20.0517
20.07
20.0523
20.0699
20.0493
20.0805
20.0499
20.0803
20.0855
20.0855
20.0849
20.0849
20.0992
20.0992
20.0985
20.0985
20.07
20.0517
20.0699
20.0523
20.0805
20.0493
20.0803
20.0499
20.073
20.1963
20.0745
20.198
20.0475
20.202
20.0491
20.2037
20.1934
20.0701
20.1948
20.0715
20.1991
20.0446
20.2006
20.046
20.0503
20.0698
20.051
20.0699
20.0478
20.0805
20.0486
20.0805
20.0861
20.0861
20.0859
20.0859
20.1001
20.1001
20.0998
20.0998
20.0698
20.0503
20.0699
20.051
20.0805
20.0479
20.0806
20.0486
20.0701
20.1934
20.0715
20.1948
20.0446
20.1991
20.046
20.2005
20.1907
20.0674
20.1921
20.0687
20.1964
20.0419
20.1978
20.0432
20.0487
20.0691
20.0495
20.0695
20.0462
20.0799
20.0471
20.0803
20.0861
20.0861
20.0862
20.0862
20.1002
20.1002
20.1002
20.1002
20.0691
20.0487
20.0695
20.0495
20.0799
20.0463
20.0803
20.0471
20.0674
20.1907
20.0687
20.192
20.0419
20.1964
20.0432
20.1977
20.1882
20.0647
20.1895
20.066
20.1938
20.0392
20.1951
20.0405
20.0469
20.0681
20.0478
20.0687
20.0445
20.079
20.0454
20.0795
20.0855
20.0855
20.0859
20.0859
20.0998
20.0998
20.1001
20.1001
20.0681
20.047
20.0687
20.0478
20.079
20.0445
20.0795
20.0454
20.0647
20.1882
20.066
20.1894
20.0392
20.1938
20.0405
20.1951
20.1858
20.0622
20.187
20.0634
20.1913
20.0366
20.1926
20.0379
20.045
20.0667
20.046
20.0675
20.0426
20.0777
20.0435
20.0784
20.0845
20.0845
20.0851
20.0851
20.0988
20.0988
20.0993
20.0993
20.0667
20.0451
20.0675
20.046
20.0777
20.0426
20.0784
20.0435
20.0622
20.1857
20.0634
20.187
20.0366
20.1913
20.0379
20.1926
20.1833
20.0596
20.1846
20.0609
20.189
20.034
20.1901
20.0353
20.043
20.0651
20.044
20.066
20.0404
20.0761
20.0415
20.0769
20.0832
20.0832
20.0839
20.0839
20.0974
20.0975
20.0982
20.0982
20.0651
20.043
20.066
20.044
20.0761
20.0405
20.0769
20.0416
20.0596
20.1833
20.0609
20.1845
20.0341
20.1887
20.0353
20.19
20.1809
20.057
20.1821
20.0583
20.1864
20.0314
20.1877
20.0326
20.0408
20.0633
20.0419
20.0642
20.0382
20.0742
20.0393
20.0752
20.0815
20.0815
20.0824
20.0824
20.0957
20.0957
20.0966
20.0966
20.0633
20.0408
20.0642
20.0419
20.0742
20.0382
20.0752
20.0394
20.0571
20.1808
20.0583