/*--------------------------------*- C++ -*----------------------------------*\
  =========                 |
  \\      /  F ield         | OpenFOAM: The Open Source CFD Toolbox
   \\    /   O peration     | Website:  https://openfoam.org
    \\  /    A nd           | Version:  9
     \\/     M anipulation  |
\*---------------------------------------------------------------------------*/
FoamFile
{
    format      ascii;
    class       volVectorField;
    location    "4.3";
    object      U;
}
// * * * * * * * * * * * * * * * * * * * * * * * * * * * * * * * * * * * * * //

dimensions      [0 1 -1 0 0 0 0];

internalField   nonuniform List<vector> 
36360
(
(0.0472828 -0.243532 -0.854678)
(-0.0379 -0.194463 0.00322594)
(0.0525053 -0.28031 -0.880008)
(-0.0382925 -0.16213 0.00299079)
(0.0482514 -0.300651 -0.968791)
(-0.0502331 -0.153497 -0.00280056)
(0.0869398 -0.382638 -0.978127)
(-0.0615951 -0.0973812 -0.00198719)
(-0.00217903 -0.188586 -0.00209962)
(0.00349591 -0.191414 -0.000391674)
(-0.00245406 -0.183187 -0.00207658)
(0.00394931 -0.190219 -0.000432179)
(0.00816433 -0.158522 0.00214335)
(0.00465727 -0.176996 0.000411573)
(0.0106043 -0.15702 0.00145448)
(0.012299 -0.185898 0.00018053)
(0.00322878 -0.193636 -4.02857e-05)
(0.00322883 -0.193636 4.02981e-05)
(0.00427594 -0.192881 -4.58027e-05)
(0.00427599 -0.192881 4.58176e-05)
(0.00268885 -0.18446 3.98797e-05)
(0.00268892 -0.18446 -3.9844e-05)
(0.0117655 -0.193965 8.26744e-06)
(0.0117656 -0.193965 -8.25602e-06)
(0.00349634 -0.191414 0.000391664)
(-0.00217687 -0.188585 0.00209955)
(0.00394968 -0.190219 0.000432148)
(-0.00245208 -0.183187 0.00207647)
(0.00465746 -0.176997 -0.000411414)
(0.00816492 -0.158523 -0.00214295)
(0.0122994 -0.1859 -0.000180451)
(0.0106056 -0.157025 -0.00145417)
(-0.0378944 -0.194461 -0.00322541)
(0.047276 -0.243535 0.854709)
(-0.0382878 -0.162127 -0.00299016)
(0.0524964 -0.28031 0.88004)
(-0.0502255 -0.153494 0.00279967)
(0.0482457 -0.300656 0.968797)
(-0.0615872 -0.097382 0.00198652)
(0.086928 -0.382633 0.978133)
(0.0475987 -0.229696 -0.848798)
(-0.0411028 -0.201579 9.29886e-05)
(0.0476372 -0.238416 -0.852473)
(-0.040202 -0.19747 0.00127001)
(0.0470819 -0.259502 -0.970751)
(-0.0541827 -0.17854 -0.00594767)
(0.0464555 -0.276768 -0.972044)
(-0.0536171 -0.164591 -0.00447136)
(-0.00604069 -0.191605 -0.00067395)
(0.00108179 -0.190886 0.000291744)
(-0.00459929 -0.188769 -0.00106765)
(0.00209363 -0.190373 1.40588e-05)
(0.00447724 -0.165109 0.00362409)
(0.00230327 -0.174278 0.00120544)
(0.00534552 -0.158974 0.00308441)
(0.00303118 -0.173877 0.000835153)
(0.00181687 -0.192108 0.000110825)
(0.00181688 -0.192108 -0.000110744)
(0.00234697 -0.19251 3.48838e-05)
(0.002347 -0.19251 -3.484e-05)
(0.00127812 -0.180845 0.000199621)
(0.00127816 -0.180845 -0.000199514)
(0.00154094 -0.181609 0.000114028)
(0.00154098 -0.18161 -0.000113955)
(0.00108204 -0.190885 -0.000291638)
(-0.00603914 -0.191603 0.000673906)
(0.00209399 -0.190372 -1.40032e-05)
(-0.00459741 -0.188767 0.00106762)
(0.00230328 -0.174278 -0.00120518)
(0.00447754 -0.165107 -0.00362369)
(0.00303134 -0.173877 -0.00083493)
(0.00534571 -0.158972 -0.00308398)
(-0.0410985 -0.201576 -9.30086e-05)
(0.0475936 -0.229698 0.848825)
(-0.040197 -0.197467 -0.00126987)
(0.0476315 -0.238418 0.852502)
(-0.0541772 -0.178535 0.00594637)
(0.0470768 -0.259507 0.970756)
(-0.0536108 -0.164586 0.0044702)
(0.0464496 -0.276772 0.97205)
(0.0455349 -0.21894 -0.842266)
(-0.0407621 -0.204363 -0.00131806)
(0.0465655 -0.223252 -0.844983)
(-0.0409634 -0.203472 -0.000711231)
(0.0436487 -0.232284 -0.968704)
(-0.0524084 -0.192666 -0.0079088)
(0.0451875 -0.243679 -0.969599)
(-0.0532031 -0.187437 -0.00706338)
(-0.00630513 -0.195839 -0.000586995)
(0.000269426 -0.192878 0.0006525)
(-0.00636428 -0.193935 -0.000568709)
(0.000542257 -0.191757 0.000505525)
(0.00504726 -0.176822 0.00392994)
(0.00150469 -0.176846 0.00170751)
(0.00458209 -0.17155 0.00386912)
(0.0017344 -0.1753 0.00149749)
(0.0010792 -0.192601 0.000261376)
(0.00107917 -0.192601 -0.000261238)
(0.00141637 -0.192151 0.000192474)
(0.00141637 -0.192151 -0.000192361)
(0.000611367 -0.180109 0.000375007)
(0.000611412 -0.180109 -0.000374831)
(0.000950823 -0.180201 0.00029083)
(0.000950884 -0.180201 -0.000290685)
(0.0002695 -0.192877 -0.000652376)
(-0.00630402 -0.195838 0.000586893)
(0.000542401 -0.191757 -0.000505404)
(-0.006363 -0.193933 0.000568633)
(0.00150455 -0.176845 -0.00170722)
(0.00504723 -0.176819 -0.00392966)
(0.00173445 -0.175299 -0.00149719)
(0.0045822 -0.171547 -0.00386878)
(-0.0407584 -0.204361 0.00131794)
(0.0455306 -0.218942 0.842291)
(-0.0409595 -0.20347 0.000711144)
(0.0465608 -0.223254 0.845009)
(-0.0524037 -0.192662 0.00790745)
(0.0436444 -0.232288 0.968708)
(-0.0531981 -0.187433 0.00706203)
(0.0451826 -0.243684 0.969604)
(0.0442088 -0.21363 -0.837081)
(-0.0406059 -0.205043 -0.00211569)
(0.0447426 -0.215869 -0.839127)
(-0.0406298 -0.204807 -0.00177238)
(0.0418584 -0.218464 -0.967163)
(-0.051632 -0.197379 -0.00902676)
(0.0425311 -0.224262 -0.967824)
(-0.0518431 -0.195686 -0.00854486)
(-0.00601063 -0.198692 -0.000760117)
(0.000123669 -0.195286 0.000780634)
(-0.00615194 -0.197403 -0.000660586)
(0.0001517 -0.194084 0.000738087)
(0.00584978 -0.184671 0.00380482)
(0.00166233 -0.180721 0.00191399)
(0.00553514 -0.18119 0.0038914)
(0.00153442 -0.17873 0.00184111)
(0.000599961 -0.194218 0.000343076)
(0.000599885 -0.194218 -0.000342915)
(0.000803886 -0.193321 0.000310116)
(0.000803836 -0.193321 -0.000309966)
(6.49293e-05 -0.1813 0.000498286)
(6.49272e-05 -0.1813 -0.000498074)
(0.000322144 -0.180493 0.000444693)
(0.000322172 -0.180493 -0.000444495)
(0.000123569 -0.195285 -0.000780524)
(-0.00600977 -0.198691 0.000759987)
(0.000151685 -0.194083 -0.000737971)
(-0.00615097 -0.197401 0.000660466)
(0.00166191 -0.180719 -0.00191372)
(0.00584956 -0.184668 -0.00380463)
(0.00153412 -0.178728 -0.00184083)
(0.00553496 -0.181187 -0.00389118)
(-0.0406026 -0.205042 0.00211557)
(0.044205 -0.213632 0.837104)
(-0.0406263 -0.204805 0.00177226)
(0.0447384 -0.215871 0.839151)
(-0.0516279 -0.197376 0.0090255)
(0.0418545 -0.218468 0.967167)
(-0.0518388 -0.195683 0.00854354)
(0.0425268 -0.224266 0.967829)
(0.0435225 -0.210823 -0.832842)
(-0.0407136 -0.205348 -0.00257376)
(0.0438008 -0.212 -0.834464)
(-0.0406244 -0.205202 -0.00237483)
(0.0409975 -0.211052 -0.965977)
(-0.0515245 -0.198825 -0.00967372)
(0.0413034 -0.214208 -0.966476)
(-0.0514816 -0.198311 -0.00939136)
(-0.0058072 -0.200746 -0.000971316)
(0.000177428 -0.197605 0.000778893)
(-0.00589485 -0.199791 -0.00086636)
(0.000141638 -0.196462 0.000790372)
(0.00616084 -0.1895 0.00358604)
(0.00193071 -0.184612 0.00193993)
(0.00603938 -0.187391 0.00369696)
(0.00180345 -0.182696 0.00194165)
(0.000373339 -0.196295 0.000373722)
(0.000373226 -0.196294 -0.000373572)
(0.000462065 -0.195223 0.00036304)
(0.000461967 -0.195223 -0.000362879)
(-0.00025072 -0.183634 0.000557243)
(-0.000250766 -0.183633 -0.000557049)
(-0.000126614 -0.18237 0.000534917)
(-0.000126643 -0.18237 -0.000534704)
(0.000177224 -0.197604 -0.0007788)
(-0.00580645 -0.200745 0.000971201)
(0.000141471 -0.196461 -0.000790273)
(-0.00589406 -0.199789 0.000866231)
(0.00193015 -0.184611 -0.00193969)
(0.00616054 -0.189497 -0.00358586)
(0.00180294 -0.182694 -0.0019414)
(0.00603906 -0.187388 -0.00369679)
(-0.0407107 -0.205347 0.0025737)
(0.043519 -0.210824 0.832863)
(-0.0406213 -0.205201 0.00237473)
(0.0437971 -0.212002 0.834486)
(-0.0515208 -0.198823 0.00967263)
(0.040994 -0.211054 0.965981)
(-0.0514777 -0.198308 0.00939017)
(0.0412995 -0.214211 0.96648)
(0.0431147 -0.209433 -0.82922)
(-0.040921 -0.205742 -0.0028473)
(0.0432808 -0.209993 -0.830541)
(-0.0408028 -0.205523 -0.00272639)
(0.0405287 -0.206944 -0.965033)
(-0.0516116 -0.199354 -0.0100694)
(0.0406777 -0.208699 -0.965418)
(-0.0515093 -0.199132 -0.00989346)
(-0.00571089 -0.202391 -0.0011545)
(0.000238252 -0.199773 0.000723255)
(-0.00574124 -0.2016 -0.00106698)
(0.000213589 -0.198709 0.000754302)
(0.00634555 -0.192539 0.00338334)
(0.00209891 -0.188106 0.0018909)
(0.00626802 -0.191162 0.00347993)
(0.00202898 -0.186426 0.00192033)
(0.000287322 -0.198503 0.00037457)
(0.000287214 -0.198503 -0.000374484)
(0.000319816 -0.197396 0.00037662)
(0.0003197 -0.197396 -0.000376497)
(-0.000334474 -0.186457 0.00056772)
(-0.000334502 -0.186457 -0.000567631)
(-0.000314228 -0.185015 0.000566914)
(-0.000314278 -0.185014 -0.000566763)
(0.000238069 -0.199772 -0.000723211)
(-0.0057102 -0.20239 0.00115441)
(0.000213376 -0.198708 -0.000754222)
(-0.00574054 -0.201599 0.00106689)
(0.00209839 -0.188104 -0.00189077)
(0.00634525 -0.192537 -0.0033832)
(0.00202843 -0.186424 -0.00192012)
(0.00626771 -0.19116 -0.00347972)
(-0.0409183 -0.205742 0.00284742)
(0.043111 -0.209435 0.829239)
(-0.0408 -0.205522 0.0027264)
(0.0432772 -0.209994 0.830561)
(-0.0516083 -0.199352 0.0100691)
(0.0405253 -0.206948 0.965036)
(-0.0515058 -0.19913 0.00989259)
(0.0406742 -0.208702 0.965422)
(0.0427665 -0.208928 -0.826015)
(-0.0411017 -0.206352 -0.00301807)
(0.0429281 -0.209091 -0.827147)
(-0.041007 -0.206017 -0.00294161)
(0.0402012 -0.204696 -0.961813)
(-0.0517146 -0.19979 -0.0103278)
(0.0403046 -0.20564 -0.964566)
(-0.0516145 -0.199558 -0.0102083)
(-0.0057055 -0.203894 -0.00129788)
(0.000249411 -0.201807 0.000653994)
(-0.00569699 -0.203149 -0.00123033)
(0.000251037 -0.200802 0.000688712)
(0.0064501 -0.194799 0.00322004)
(0.00217664 -0.191112 0.00182042)
(0.00641066 -0.19373 0.00329539)
(0.00214674 -0.18966 0.00185604)
(0.00024473 -0.2007 0.000360445)
(0.000244635 -0.2007 -0.000360273)
(0.000264779 -0.199605 0.000368427)
(0.000264683 -0.199604 -0.000368364)
(-0.000342725 -0.18938 0.000555053)
(-0.000342778 -0.189379 -0.000554474)
(-0.000340894 -0.187921 0.000562847)
(-0.000340926 -0.18792 -0.000562805)
(0.000249248 -0.201806 -0.000653801)
(-0.00570503 -0.203893 0.00129812)
(0.000250902 -0.200801 -0.000688721)
(-0.00569626 -0.203148 0.00123013)
(0.00217618 -0.19111 -0.00181941)
(0.00644964 -0.194797 -0.00321775)
(0.00214629 -0.189658 -0.00185613)
(0.0064105 -0.193728 -0.00329619)
(-0.0410878 -0.206352 0.00301854)
(0.0427507 -0.20893 0.826032)
(-0.0410035 -0.206017 0.00294163)
(0.042922 -0.209093 0.827166)
(-0.0517129 -0.199788 0.0103208)
(0.040199 -0.204702 0.963271)
(-0.0516108 -0.199557 0.0102103)
(0.0402986 -0.205641 0.963577)
(0.0424134 -0.209039 -0.823119)
(-0.0412376 -0.207215 -0.00312761)
(0.0425653 -0.208918 -0.82408)
(-0.0411535 -0.206752 -0.00307772)
(0.0399305 -0.20361 -0.960186)
(-0.0517927 -0.200426 -0.0104842)
(0.0400091 -0.204039 -0.961364)
(-0.0517045 -0.200074 -0.0104122)
(-0.00576156 -0.205404 -0.00140609)
(0.000207662 -0.203778 0.000588705)
(-0.00572373 -0.204642 -0.00135504)
(0.000235293 -0.202796 0.000620195)
(0.00649664 -0.196742 0.00308957)
(0.00220108 -0.193792 0.00174859)
(0.00648332 -0.195792 0.00314974)
(0.00219417 -0.192482 0.00178349)
(0.000191395 -0.20287 0.000342027)
(0.000191443 -0.20287 -0.000342497)
(0.000221191 -0.201789 0.000351194)
(0.000221222 -0.201788 -0.000351267)
(-0.000328765 -0.192233 0.000533642)
(-0.000328737 -0.192233 -0.000534938)
(-0.000338031 -0.190819 0.000544797)
(-0.00033802 -0.190818 -0.000544732)
(0.00020822 -0.203777 -0.000589282)
(-0.00575867 -0.205402 0.00140555)
(0.000235671 -0.202795 -0.000620331)
(-0.00572207 -0.204641 0.0013549)
(0.00220104 -0.193791 -0.00175054)
(0.00649707 -0.196738 -0.00309348)
(0.00219404 -0.19248 -0.00178349)
(0.0064835 -0.195788 -0.00315009)
(-0.0412478 -0.207213 0.00312846)
(0.0424123 -0.20904 0.823136)
(-0.041144 -0.206751 0.00307835)
(0.0425487 -0.208919 0.824097)
(-0.0517879 -0.200421 0.0105026)
(0.0399155 -0.203625 0.956807)
(-0.0517015 -0.200071 0.0104146)
(0.0399992 -0.204047 0.960458)
(0.0421751 -0.209613 -0.820433)
(-0.0414523 -0.208326 -0.00319977)
(0.0422863 -0.209275 -0.821259)
(-0.0413437 -0.20774 -0.00316642)
(0.0396827 -0.203348 -0.959547)
(-0.0518226 -0.201334 -0.0106013)
(0.0397555 -0.203388 -0.959749)
(-0.0517576 -0.200848 -0.0105494)
(-0.005865 -0.206997 -0.00148633)
(0.000122548 -0.20575 0.000533112)
(-0.00580576 -0.206187 -0.00144813)
(0.000170647 -0.204761 0.00055959)
(0.00650748 -0.198606 0.00298949)
(0.0021909 -0.1963 0.00168719)
(0.00651016 -0.197674 0.00303676)
(0.00220021 -0.19506 0.00171671)
(0.000115621 -0.205029 0.000324616)
(0.000115094 -0.205029 -0.000324591)
(0.000156609 -0.203949 0.000332945)
(0.000156371 -0.203948 -0.000333236)
(-0.000315154 -0.194992 0.000513357)
(-0.000315446 -0.194991 -0.000512695)
(-0.000320307 -0.193623 0.000523242)
(-0.000320454 -0.193622 -0.000523822)
(0.000121316 -0.205749 -0.000533421)
(-0.00586128 -0.206996 0.00148554)
(0.000170407 -0.20476 -0.000559956)
(-0.0058 -0.206186 0.0014479)
(0.00218989 -0.196298 -0.00168675)
(0.006507 -0.198603 -0.0029905)
(0.00219954 -0.195058 -0.00171725)
(0.00650987 -0.19767 -0.00303744)
(-0.0413927 -0.208326 0.00319975)
(0.0421037 -0.209614 0.820308)
(-0.0412988 -0.207739 0.00316696)
(0.0422265 -0.209275 0.821277)
(-0.0518197 -0.201334 0.0106005)
(0.0396676 -0.203349 0.956977)
(-0.0517552 -0.200839 0.0105568)
(0.0397388 -0.203402 0.95717)
(0.0419183 -0.210568 -0.817421)
(-0.041638 -0.20968 -0.00324571)
(0.042003 -0.210047 -0.818637)
(-0.0415104 -0.208974 -0.00322351)
(0.039423 -0.203664 -0.95546)
(-0.0518039 -0.202551 -0.0106839)
(0.0395025 -0.203446 -0.955644)
(-0.051766 -0.201903 -0.0106482)
(-0.00599176 -0.208714 -0.00154281)
(6.64205e-06 -0.207771 0.00048866)
(-0.00592097 -0.207838 -0.00151613)
(6.83176e-05 -0.206752 0.000509516)
(0.00649777 -0.200524 0.00291614)
(0.00215619 -0.198747 0.00163739)
(0.0065086 -0.199553 0.00295006)
(0.00217624 -0.197525 0.0016608)
(1.69162e-05 -0.207213 0.000309732)
(1.63147e-05 -0.207213 -0.000309073)
(6.91069e-05 -0.206116 0.000316701)
(6.85023e-05 -0.206116 -0.000316376)
(-0.000313029 -0.197694 0.00049528)
(-0.0003134 -0.197694 -0.000493317)
(-0.000312244 -0.196347 0.000503996)
(-0.00031259 -0.196347 -0.000502637)
(5.18392e-06 -0.207771 -0.000488184)
(-0.00598828 -0.208714 0.00154307)
(6.68482e-05 -0.206752 -0.000509658)
(-0.00592007 -0.207838 0.00151522)
(0.00215482 -0.198748 -0.00163502)
(0.00649668 -0.200527 -0.00291366)
(0.00217518 -0.197525 -0.00165993)
(0.00650791 -0.199553 -0.00295103)
(-0.0415638 -0.209679 0.00324433)
(0.0418364 -0.210568 0.817891)
(-0.0414799 -0.208972 0.00322354)
(0.0419667 -0.210048 0.818509)
(-0.0518012 -0.20255 0.0106676)
(0.0394106 -0.203654 0.955474)
(-0.0517629 -0.201901 0.0106413)
(0.0394911 -0.203441 0.955652)
(0.0416454 -0.211855 -0.815448)
(-0.041777 -0.21124 -0.00327187)
(0.0417902 -0.211173 -0.815677)
(-0.0417169 -0.210433 -0.00325976)
(0.0391218 -0.204465 -0.962071)
(-0.0517104 -0.204046 -0.0106823)
(0.0392609 -0.204 -0.958582)
(-0.0517363 -0.203265 -0.0106883)
(-0.00614232 -0.21057 -0.00158393)
(-0.000131984 -0.209874 0.000452149)
(-0.00606504 -0.209624 -0.00156383)
(-6.06652e-05 -0.208811 0.000469438)
(0.00647746 -0.202565 0.00284721)
(0.00210542 -0.201212 0.00159168)
(0.00648994 -0.201527 0.00288065)
(0.00213207 -0.199974 0.00161359)
(-0.000101569 -0.209451 0.000296554)
(-0.000101465 -0.209451 -0.000297143)
(-4.04853e-05 -0.208324 0.000302759)
(-4.08087e-05 -0.208324 -0.000302516)
(-0.000323887 -0.200386 0.000477129)
(-0.000323967 -0.200386 -0.000478964)
(-0.000316822 -0.199038 0.000485892)
(-0.0003171 -0.199038 -0.000485499)
(-0.000131084 -0.209873 -0.000453009)
(-0.00613994 -0.21057 0.00158245)
(-6.12992e-05 -0.208811 -0.000469124)
(-0.00606057 -0.209624 0.00156452)
(0.00210445 -0.201213 -0.00159467)
(0.0064764 -0.202567 -0.00285341)
(0.00213066 -0.199974 -0.00161268)
(0.00648838 -0.201529 -0.00287843)
(-0.0418294 -0.211247 0.0032734)
(0.0416904 -0.211851 0.814128)
(-0.0416728 -0.210438 0.00325914)
(0.0417377 -0.21117 0.816152)
(-0.0517122 -0.204053 0.0107082)
(0.0391192 -0.204449 0.958415)
(-0.0517341 -0.203274 0.0106838)
(0.0392534 -0.20398 0.958587)
(0.0414065 -0.213367 -0.81306)
(-0.0419553 -0.213047 -0.00328642)
(0.0414935 -0.212583 -0.813732)
(-0.0418409 -0.212111 -0.00327846)
(0.0387066 -0.205674 -0.957937)
(-0.0515051 -0.205787 -0.0107115)
(0.038844 -0.205019 -0.958083)
(-0.0515437 -0.204888 -0.0106972)
(-0.00628385 -0.212581 -0.0016092)
(-0.000274608 -0.212075 0.00042525)
(-0.00621001 -0.211555 -0.00159628)
(-0.000202235 -0.210961 0.000437885)
(0.00646553 -0.204741 0.00280532)
(0.0020475 -0.203739 0.00156058)
(0.00647684 -0.203635 0.00282601)
(0.00207835 -0.202466 0.00157502)
(-0.000229534 -0.211762 0.000287078)
(-0.000229653 -0.211762 -0.000286915)
(-0.00016458 -0.210597 0.000291319)
(-0.000164497 -0.210597 -0.000291692)
(-0.000345429 -0.203105 0.000465229)
(-0.00034577 -0.203105 -0.000464635)
(-0.000332929 -0.20174 0.00047062)
(-0.000333092 -0.20174 -0.000471618)
(-0.000274028 -0.212074 -0.000425243)
(-0.00627522 -0.21258 0.00160922)
(-0.0002013 -0.210961 -0.000438461)
(-0.00620642 -0.211556 0.00159529)
(0.00204497 -0.203739 -0.00155891)
(0.0064614 -0.204739 -0.00280009)
(0.00207676 -0.202468 -0.0015761)
(0.0064743 -0.203638 -0.0028268)
(-0.0419207 -0.213044 0.00328957)
(0.0413641 -0.213364 0.813056)
(-0.0418736 -0.212116 0.0032812)
(0.0415214 -0.212577 0.812388)
(-0.0515246 -0.205773 0.0107012)
(0.0387296 -0.205694 0.96163)
(-0.0515545 -0.204886 0.0107091)
(0.0388569 -0.205011 0.958051)
(0.0411241 -0.215115 -0.81069)
(-0.0420679 -0.215008 -0.00329003)
(0.0412851 -0.214189 -0.811353)
(-0.0420292 -0.214018 -0.00328854)
(0.0385414 -0.207234 -0.956509)
(-0.0514948 -0.207756 -0.0107195)
(0.0385955 -0.206414 -0.959955)
(-0.0514595 -0.206731 -0.0107145)
(-0.0064097 -0.214717 -0.00162698)
(-0.000415914 -0.214372 0.000404186)
(-0.0063496 -0.213637 -0.00161843)
(-0.000346657 -0.213212 0.000413845)
(0.00643423 -0.207073 0.00277019)
(0.00197644 -0.206352 0.00153495)
(0.00645142 -0.205884 0.00278415)
(0.00201231 -0.205034 0.00154676)
(-0.000359913 -0.214151 0.000279501)
(-0.000360241 -0.21415 -0.000279359)
(-0.000295447 -0.212947 0.000282946)
(-0.000295757 -0.212947 -0.000282691)
(-0.000378192 -0.205876 0.000455006)
(-0.000378553 -0.205875 -0.000453553)
(-0.000360754 -0.204482 0.000459965)
(-0.000361161 -0.204482 -0.000458653)
(-0.000416643 -0.214371 -0.000404592)
(-0.00640684 -0.214717 0.00162505)
(-0.000346958 -0.213212 -0.000414027)
(-0.00634244 -0.213636 0.00161737)
(0.0019745 -0.20635 -0.00153329)
(0.00643233 -0.207071 -0.00276959)
(0.00200991 -0.205032 -0.00154506)
(0.00644859 -0.205879 -0.0027831)
(-0.0420054 -0.215 0.00329129)
(0.0410516 -0.215127 0.80896)
(-0.0419595 -0.214012 0.0032901)
(0.041204 -0.214193 0.811353)
(-0.0515019 -0.207764 0.0107121)
(0.0385362 -0.207224 0.954595)
(-0.0514701 -0.20672 0.0107063)
(0.0385988 -0.206442 0.95853)
(0.0408082 -0.217033 -0.802758)
(-0.0421155 -0.217124 -0.00329252)
(0.0409216 -0.216053 -0.806101)
(-0.0420609 -0.216043 -0.00328922)
(0.0381394 -0.209032 -0.957133)
(-0.0512565 -0.209936 -0.0107004)
(0.038257 -0.208058 -0.957514)
(-0.05129 -0.208827 -0.0107042)
(-0.00651578 -0.216964 -0.00163128)
(-0.000541601 -0.216751 0.00039117)
(-0.00646035 -0.215825 -0.00162924)
(-0.000480242 -0.215552 0.000396643)
(0.00639956 -0.209537 0.00273957)
(0.00190602 -0.209047 0.00151243)
(0.00643009 -0.208293 0.00275136)
(0.00194261 -0.207691 0.00152192)
(-0.000478508 -0.216605 0.000273822)
(-0.000478408 -0.216605 -0.000273585)
(-0.000421068 -0.215371 0.000276218)
(-0.000421012 -0.215371 -0.000276143)
(-0.000413744 -0.208704 0.000445228)
(-0.000413905 -0.208704 -0.000446348)
(-0.000395539 -0.207284 0.00044941)
(-0.000395755 -0.207283 -0.000449737)
(-0.000540717 -0.21675 -0.000390157)
(-0.00651509 -0.216963 0.00163464)
(-0.000479201 -0.215552 -0.000396442)
(-0.00645537 -0.215826 0.00162976)
(0.00190499 -0.209045 -0.00151385)
(0.00639894 -0.209534 -0.00274118)
(0.0019413 -0.207689 -0.00152248)
(0.00642921 -0.208293 -0.00275218)
(-0.0421515 -0.217121 0.00328797)
(0.0408393 -0.217039 0.80561)
(-0.0420537 -0.216029 0.00328888)
(0.040905 -0.216073 0.807204)
(-0.0512279 -0.209934 0.0107096)
(0.0381107 -0.209033 0.956842)
(-0.0512823 -0.208843 0.0107075)
(0.0382452 -0.208048 0.957002)
(0.0406508 -0.219104 -0.806259)
(-0.0422186 -0.219307 -0.00328375)
(0.0407255 -0.218039 -0.803813)
(-0.0421747 -0.218208 -0.00328779)
(0.0379629 -0.211017 -0.960391)
(-0.0511529 -0.212272 -0.010668)
(0.0380126 -0.209959 -0.956763)
(-0.0511613 -0.211077 -0.0106927)
(-0.00660675 -0.219285 -0.00163723)
(-0.000644536 -0.219183 0.000380293)
(-0.00656369 -0.21812 -0.0016328)
(-0.000596886 -0.217963 0.000385589)
(0.0063219 -0.212109 0.00271686)
(0.00183168 -0.211808 0.00149583)
(0.00636413 -0.210809 0.00273018)
(0.00186807 -0.210421 0.00150442)
(-0.000575771 -0.2191 0.000268967)
(-0.000576125 -0.2191 -0.000269515)
(-0.000530824 -0.21785 0.000271206)
(-0.000531008 -0.217849 -0.000271329)
(-0.00044953 -0.211579 0.000438699)
(-0.000449897 -0.211579 -0.000438943)
(-0.000431874 -0.210137 0.000441913)
(-0.00043211 -0.210136 -0.00044275)
(-0.000645267 -0.219182 -0.00038145)
(-0.00660503 -0.219283 0.00163477)
(-0.000597316 -0.217962 -0.000385557)
(-0.00656561 -0.218118 0.00163352)
(0.00183012 -0.211809 -0.00149645)
(0.0063207 -0.212108 -0.00271846)
(0.00186685 -0.21042 -0.00150581)
(0.00636331 -0.210805 -0.00273331)
(-0.0421875 -0.219317 0.00328693)
(0.0406036 -0.219093 0.8033)
(-0.0421884 -0.218223 0.00328568)
(0.0407326 -0.21802 0.803828)
(-0.0511609 -0.212259 0.0106798)
(0.0379542 -0.211029 0.957481)
(-0.0511466 -0.211064 0.0107065)
(0.0379881 -0.209999 0.953583)
(0.0404394 -0.221187 -0.804016)
(-0.0422013 -0.22156 -0.00327257)
(0.0405201 -0.220146 -0.804516)
(-0.0422017 -0.220419 -0.00327727)
(0.0375276 -0.213171 -0.956455)
(-0.050797 -0.214677 -0.0106409)
(0.0376688 -0.212038 -0.960095)
(-0.050897 -0.213469 -0.0106502)
(-0.00663693 -0.221631 -0.00163159)
(-0.000702782 -0.221624 0.000375086)
(-0.00662345 -0.220456 -0.00163384)
(-0.000678514 -0.220405 0.0003771)
(0.00628353 -0.214735 0.00270574)
(0.00177622 -0.214602 0.0014847)
(0.00630879 -0.213419 0.00270832)
(0.00180273 -0.213204 0.00148936)
(-0.000634308 -0.221595 0.000265752)
(-0.000634441 -0.221595 -0.000266263)
(-0.000610413 -0.22035 0.000267093)
(-0.000610774 -0.22035 -0.000267509)
(-0.000476619 -0.21447 0.000433738)
(-0.000476915 -0.21447 -0.000434111)
(-0.000464098 -0.213025 0.000436218)
(-0.000464504 -0.213025 -0.000435741)
(-0.000702416 -0.221624 -0.00037593)
(-0.0066269 -0.221632 0.00163034)
(-0.000679101 -0.220405 -0.000378131)
(-0.0066178 -0.220456 0.00163147)
(0.00177467 -0.214603 -0.00148506)
(0.00628282 -0.214738 -0.00270664)
(0.00180107 -0.213205 -0.00148895)
(0.00630778 -0.213421 -0.00270886)
(-0.0421129 -0.221562 0.00327535)
(0.0403281 -0.221189 0.803898)
(-0.0421226 -0.220423 0.00327988)
(0.0404208 -0.220138 0.801508)
(-0.0508132 -0.214684 0.0106528)
(0.0375247 -0.213144 0.951714)
(-0.050911 -0.213465 0.0106575)
(0.0376591 -0.212056 0.955972)
(0.0402307 -0.223272 -0.801537)
(-0.0420469 -0.223779 -0.00325585)
(0.0403092 -0.222206 -0.802295)
(-0.0421145 -0.222688 -0.00326262)
(0.0373896 -0.215291 -0.95528)
(-0.0506445 -0.217146 -0.0105872)
(0.0374142 -0.214208 -0.956093)
(-0.0506743 -0.215893 -0.0106123)
(-0.00661525 -0.22394 -0.00162289)
(-0.000708479 -0.224017 0.000372717)
(-0.00663401 -0.222797 -0.00162649)
(-0.000714461 -0.222831 0.000373406)
(0.00622956 -0.217382 0.00269208)
(0.00173549 -0.217383 0.00147372)
(0.00625734 -0.216056 0.00269744)
(0.00175229 -0.215998 0.00147847)
(-0.000640703 -0.224034 0.000263293)
(-0.000640518 -0.224034 -0.000263865)
(-0.000645599 -0.222825 0.0002642)
(-0.00064544 -0.222825 -0.00026493)
(-0.000491076 -0.217333 0.000429134)
(-0.000491171 -0.217333 -0.000430169)
(-0.000486025 -0.215909 0.000431007)
(-0.000486161 -0.215909 -0.000432224)
(-0.000706941 -0.224018 -0.000373745)
(-0.00660761 -0.223941 0.00162092)
(-0.00071301 -0.222831 -0.000374472)
(-0.00662458 -0.222798 0.00162508)
(0.00173462 -0.217383 -0.00147526)
(0.00622957 -0.217382 -0.00269461)
(0.00175124 -0.215998 -0.00148004)
(0.00625715 -0.216059 -0.00269999)
(-0.0420388 -0.223768 0.00326013)
(0.040203 -0.223284 0.79986)
(-0.0420847 -0.222685 0.00326705)
(0.0402569 -0.222216 0.802174)
(-0.05065 -0.217148 0.0106058)
(0.0373793 -0.215281 0.95229)
(-0.050685 -0.215903 0.0106319)
(0.0374088 -0.214199 0.952437)
(0.0401184 -0.225244 -0.793295)
(-0.0418585 -0.225894 -0.00324472)
(0.0401443 -0.224275 -0.796615)
(-0.0419509 -0.224849 -0.00324772)
(0.0370244 -0.217344 -0.95608)
(-0.0502231 -0.219552 -0.010541)
(0.0371298 -0.216283 -0.954883)
(-0.0503603 -0.218369 -0.0105686)
(-0.00649523 -0.226134 -0.00160536)
(-0.000630035 -0.226288 0.000374837)
(-0.00655923 -0.225055 -0.00161337)
(-0.00067847 -0.225172 0.000373482)
(0.00623173 -0.219955 0.00268195)
(0.00173409 -0.220076 0.0014669)
(0.00623424 -0.218687 0.00268791)
(0.00173131 -0.218746 0.0014707)
(-0.000572506 -0.226346 0.000262257)
(-0.000572616 -0.226346 -0.000261547)
(-0.000616358 -0.225211 0.000262646)
(-0.000616452 -0.225211 -0.000262402)
(-0.000481954 -0.2201 0.000426698)
(-0.000482142 -0.2201 -0.000427049)
(-0.00048923 -0.218733 0.000428213)
(-0.000489405 -0.218733 -0.000428224)
(-0.00062981 -0.226288 -0.000373396)
(-0.00649077 -0.226136 0.00160857)
(-0.000678477 -0.225173 -0.000373122)
(-0.00655807 -0.225056 0.00161389)
(0.00173269 -0.220077 -0.00146765)
(0.00623066 -0.219957 -0.00268542)
(0.00173015 -0.218746 -0.00147095)
(0.00623378 -0.218687 -0.00268942)
(-0.0418578 -0.225896 0.00323748)
(0.0401084 -0.225245 0.796428)
(-0.0419465 -0.224831 0.00324663)
(0.0401297 -0.224289 0.798059)
(-0.0501883 -0.219557 0.0105512)
(0.036979 -0.217343 0.951802)
(-0.0503417 -0.218372 0.0105775)
(0.0371013 -0.216272 0.951947)
(0.0401063 -0.227034 -0.797427)
(-0.0415599 -0.227792 -0.00322386)
(0.0400876 -0.226157 -0.794622)
(-0.0417084 -0.226874 -0.00323344)
(0.0368263 -0.219277 -0.954682)
(-0.0498495 -0.221797 -0.010475)
(0.0368733 -0.218315 -0.955718)
(-0.0499869 -0.22069 -0.010504)
(-0.00629115 -0.228121 -0.00159112)
(-0.000462871 -0.228348 0.000376695)
(-0.00640674 -0.227162 -0.00159674)
(-0.000559439 -0.227351 0.000375482)
(0.0062328 -0.222367 0.00267523)
(0.00176075 -0.222599 0.00146099)
(0.00623562 -0.221183 0.00267676)
(0.00174372 -0.221364 0.00146291)
(-0.000417869 -0.228445 0.000260611)
(-0.000417958 -0.228445 -0.00026045)
(-0.000507249 -0.227428 0.0002612)
(-0.000507231 -0.227428 -0.000260827)
(-0.000448544 -0.222686 0.000424722)
(-0.00044886 -0.222686 -0.000424642)
(-0.000468438 -0.221421 0.000425105)
(-0.000468675 -0.221421 -0.000425861)
(-0.000462527 -0.228349 -0.000376789)
(-0.00628778 -0.228122 0.00159047)
(-0.000558018 -0.227351 -0.0003747)
(-0.00639303 -0.227163 0.00159851)
(0.00175882 -0.222596 -0.00146035)
(0.00622909 -0.222361 -0.00267172)
(0.00174167 -0.221363 -0.00146324)
(0.00623278 -0.221183 -0.00267589)
(-0.04158 -0.227807 0.00322494)
(0.0401267 -0.227031 0.794177)
(-0.0416669 -0.226895 0.00322965)
(0.0400329 -0.226139 0.794635)
(-0.0498758 -0.221806 0.0104709)
(0.0368648 -0.219257 0.958751)
(-0.049989 -0.220698 0.010508)
(0.0368741 -0.218302 0.954346)
(0.0402095 -0.228505 -0.795273)
(-0.0411748 -0.229401 -0.0032042)
(0.0401089 -0.227812 -0.79565)
(-0.0413539 -0.228635 -0.00321214)
(0.0365828 -0.220943 -0.954005)
(-0.0493514 -0.223777 -0.0104178)
(0.0366421 -0.220118 -0.954282)
(-0.0495385 -0.22283 -0.0104465)
(-0.00597206 -0.229797 -0.00157206)
(-0.00018208 -0.230099 0.000383441)
(-0.00613868 -0.229001 -0.00158065)
(-0.000336572 -0.229268 0.000379633)
(0.00621777 -0.224508 0.00267161)
(0.00181676 -0.224847 0.00145795)
(0.00623117 -0.22348 0.00267258)
(0.00178538 -0.223764 0.00145951)
(-0.000157006 -0.230232 0.000259859)
(-0.000157037 -0.230233 -0.000259616)
(-0.000301563 -0.229384 0.000260089)
(-0.000301744 -0.229384 -0.000259725)
(-0.000387581 -0.224996 0.000424105)
(-0.000387723 -0.224995 -0.000423869)
(-0.000421016 -0.223882 0.000424789)
(-0.00042129 -0.223882 -0.000423683)
(-0.000182151 -0.2301 -0.000383676)
(-0.00597616 -0.2298 0.00157065)
(-0.000337596 -0.229269 -0.000379851)
(-0.00614917 -0.229003 0.00157878)
(0.0018164 -0.224846 -0.00145834)
(0.00621791 -0.224509 -0.00267342)
(0.00178454 -0.223762 -0.00145862)
(0.00622961 -0.223475 -0.00267164)
(-0.0412066 -0.229396 0.00320355)
(0.0402536 -0.22851 0.795281)
(-0.0414326 -0.228642 0.00321275)
(0.0402036 -0.227805 0.792349)
(-0.0493642 -0.223777 0.0104193)
(0.036607 -0.220951 0.953735)
(-0.0495589 -0.222825 0.0104412)
(0.0366753 -0.220135 0.95843)
(0.040411 -0.229565 -0.786446)
(-0.0406286 -0.230593 -0.00318348)
(0.0402754 -0.229078 -0.790143)
(-0.0409033 -0.230066 -0.00319131)
(0.0363904 -0.222186 -0.948433)
(-0.0487973 -0.22539 -0.0103617)
(0.0364144 -0.221626 -0.948912)
(-0.0490119 -0.224633 -0.0103897)
(-0.00552653 -0.231076 -0.00154521)
(0.000230011 -0.23144 0.000392842)
(-0.00576654 -0.230494 -0.00155668)
(6.53356e-06 -0.230826 0.000388097)
(0.00623526 -0.22627 0.00267384)
(0.00189534 -0.22671 0.00145646)
(0.00622532 -0.225442 0.00267352)
(0.00185556 -0.225833 0.00145653)
(0.00022578 -0.231609 0.00025982)
(0.000225495 -0.231609 -0.000259612)
(1.8258e-05 -0.230977 0.000259425)
(1.83101e-05 -0.230977 -0.000259538)
(-0.000310273 -0.226906 0.000423763)
(-0.000310561 -0.226906 -0.00042325)
(-0.00034955 -0.226009 0.000423173)
(-0.000349625 -0.22601 -0.000424459)
(0.000229874 -0.231441 -0.00039244)
(-0.00552192 -0.231079 0.00154588)
(7.45515e-06 -0.230828 -0.000388232)
(-0.0057627 -0.230497 0.00155656)
(0.00189392 -0.226711 -0.00145504)
(0.00623553 -0.226268 -0.00266895)
(0.00185504 -0.225834 -0.00145854)
(0.00622582 -0.225444 -0.00267692)
(-0.0406337 -0.230608 0.00318425)
(0.040424 -0.229551 0.786458)
(-0.040953 -0.23006 0.00319059)
(0.0403314 -0.229085 0.790156)
(-0.0487734 -0.225376 0.0103465)
(0.0363828 -0.222205 0.953178)
(-0.0489982 -0.224636 0.0103993)
(0.0364116 -0.221619 0.948636)
(0.0406657 -0.230042 -0.78764)
(-0.0398551 -0.231296 -0.00315825)
(0.0405144 -0.229889 -0.787936)
(-0.0402559 -0.231005 -0.00316859)
(0.0362 -0.222933 -0.948681)
(-0.0480985 -0.226475 -0.0102636)
(0.0361882 -0.222632 -0.948779)
(-0.0483486 -0.226003 -0.010312)
(-0.00492548 -0.231831 -0.00152098)
(0.000764832 -0.23228 0.000403167)
(-0.0052423 -0.231528 -0.00153391)
(0.000487643 -0.231935 0.000396945)
(0.00631628 -0.227524 0.00266688)
(0.00207974 -0.228071 0.00145166)
(0.00627207 -0.226971 0.00266889)