/*--------------------------------*- C++ -*----------------------------------*\
  =========                 |
  \\      /  F ield         | OpenFOAM: The Open Source CFD Toolbox
   \\    /   O peration     | Website:  https://openfoam.org
    \\  /    A nd           | Version:  9
     \\/     M anipulation  |
\*---------------------------------------------------------------------------*/
FoamFile
{
    format      ascii;
    class       volScalarField;
    location    "4.9";
    object      epsilon;
}
// * * * * * * * * * * * * * * * * * * * * * * * * * * * * * * * * * * * * * //

dimensions      [0 2 -3 0 0 0 0];

internalField   nonuniform List<scalar> 
36360
(
12.5125
11.3963
10.0142
9.49825
20.6657
19.7298
13.2669
15.4763
9.37005
8.29493
7.68147
6.70389
16.9432
15.4637
12.7291
11.242
7.8248
7.82482
6.27933
6.27934
14.8274
14.8274
10.6474
10.6474
8.29502
9.37022
6.70395
7.68159
15.4637
16.9432
11.242
12.729
11.3967
12.513
9.49849
10.0146
19.7298
20.6655
15.4761
13.2667
14.7687
13.4176
13.9143
12.6193
25.0634
23.4697
23.4629
21.9725
11.2004
10.0392
10.4554
9.32217
20.4109
18.8369
18.9961
17.4624
9.53341
9.53345
8.82807
8.82811
18.1565
18.1565
16.7997
16.7997
10.0394
11.2006
9.32228
10.4556
18.837
20.4109
17.4625
18.9961
13.4181
14.7694
12.6197
13.9149
23.4698
25.0634
21.9726
23.4628
15.7981
14.4156
15.3576
13.9857
27.1199
25.4467
26.2169
24.5759
12.1645
10.9848
11.7457
10.5718
22.3221
20.7192
21.4782
19.8848
10.471
10.4711
10.0606
10.0606
20.025
20.0251
19.1951
19.1951
10.985
12.1647
10.5719
11.746
20.7193
22.3222
19.8849
21.4784
14.416
15.7988
13.9861
15.3582
25.4469
27.12
24.576
26.217
16.4062
15.0147
16.1362
14.7482
28.4301
26.722
27.8403
26.1457
12.7599
11.5789
12.4942
11.3131
23.5662
21.9567
23.004
21.3969
11.0639
11.0639
10.7983
10.7984
21.2602
21.2603
20.7009
20.701
11.579
12.7602
11.3133
12.4945
21.9568
23.5664
21.397
23.0042
15.0152
16.407
14.7486
16.1369
26.7222
28.4303
26.1459
27.8404
16.7969
15.4023
16.621
15.2276
29.316
27.5939
28.913
27.1961
13.1534
11.9755
12.9759
11.7964
24.4241
22.8125
24.0332
22.4222
11.4615
11.4615
11.2817
11.2817
22.117
22.117
21.7259
21.726
11.9757
13.1537
11.7965
12.9762
22.8126
24.4243
22.4223
24.0334
15.4028
16.7976
15.2281
16.6217
27.5941
29.3162
27.1963
28.9132
17.0539
15.6584
16.9376
15.5426
29.9275
28.2005
29.6483
27.9229
13.4187
12.2459
13.2989
12.1236
25.0249
23.4154
24.7504
23.1398
11.7341
11.7341
11.6106
11.6107
22.7224
22.7225
22.4456
22.4457
12.246
13.419
12.1237
13.2992
23.4155
25.0251
23.1399
24.7506
15.6589
17.0545
15.543
16.9383
28.2007
29.9277
27.9231
29.6486
17.2197
15.8251
17.1452
15.7502
30.3459
28.6195
30.1558
28.4284
13.5961
12.4292
13.5165
12.3467
25.4443
23.8393
25.2533
23.6461
11.9201
11.9202
11.8363
11.8363
23.149
23.1491
22.9546
22.9546
12.4294
13.5964
12.3469
13.5168
23.8394
25.4445
23.6463
25.2535
15.8256
17.2204
15.7506
17.1459
28.6197
30.346
28.4286
30.156
17.3205
15.9275
17.2758
15.8822
30.6228
28.8998
30.4981
28.773
13.7098
12.5493
13.6596
12.4961
25.7294
24.1303
25.6009
23.9989
12.0431
12.0432
11.9885
11.9885
23.4432
23.4432
23.3103
23.3103
12.5495
13.7101
12.4962
13.6599
24.1304
25.7296
23.9991
25.6011
15.9279
17.3211
15.8826
17.2765
28.9001
30.6231
28.7733
30.4984
17.3731
15.9813
17.3509
15.9588
30.7941
29.074
30.7187
28.9971
13.7753
12.6216
13.7477
12.5907
25.9113
24.3192
25.8313
24.2358
12.1186
12.1186
12.0862
12.0862
23.6358
23.6359
23.5505
23.5506
12.6218
13.7757
12.5909
13.748
24.3194
25.9117
24.2359
25.8315
15.9821
17.374
15.9593
17.3517
29.0746
30.7952
28.9974
30.7192
17.3857
15.9955
17.3834
15.9924
30.8799
29.1624
30.8455
29.1268
13.8026
12.6562
13.7932
12.6432
26.0111
24.4273
25.9701
24.3821
12.1567
12.1568
12.1419
12.142
23.7481
23.7482
23.7008
23.7009
12.6566
13.8036
12.6435
13.7938
24.4276
26.012
24.3824
25.9706
15.9978
17.3884
15.9935
17.3848
29.1644
30.882
29.1276
30.8472
17.3654
15.977
17.3784
15.9892
30.8936
29.1786
30.894
29.1771
13.7987
12.6603
13.804
12.6617
26.0432
24.4693
26.0345
24.4556
12.1646
12.1648
12.1641
12.1643
23.7952
23.7953
23.779
23.7791
12.6611
13.8004
12.6624
13.8055
24.4699
26.0448
24.4561
26.0359
15.9806
17.3698
15.9928
17.3828
29.1827
30.8968
29.1809
30.8962
17.3173
15.9322
17.3421
15.9553
30.8509
29.14
30.8777
29.1641
13.7701
12.6401
13.7868
12.6531
26.022
24.458
26.0384
24.4691
12.1482
12.1484
12.1594
12.1596
23.7889
23.7891
23.7975
23.7977
12.6409
13.7719
12.6539
13.7888
24.4586
26.0234
24.4697
26.0401
15.9378
17.324
15.9605
17.3477
29.1438
30.8551
29.1689
30.8821
17.2607
15.875
17.2906
15.9057
30.7686
29.0595
30.8138
29.1044
13.7227
12.5994
13.7488
12.6222
25.954
24.3995
25.9929
24.4339
12.111
12.1111
12.1321
12.1323
23.7357
23.7358
23.7677
23.7678
12.6
13.724
12.6228
13.7502
24.3999
25.9551
24.4344
25.994
15.8784
17.2651
15.9097
17.296
29.0622
30.7704
29.1069
30.8168
17.1801
15.7963
17.2208
15.836
30.6386
28.933
30.7073
28.9995
13.6568
12.5408
13.6917
12.5723
25.8452
24.3009
25.904
24.3548
12.0559
12.056
12.0856
12.0858
23.6425
23.6426
23.6937
23.6939
12.5412
13.6577
12.5727
13.6928
24.3012
25.846
24.3552
25.9049
15.7978
17.1827
15.839
17.2252
28.9348
30.6414
29.0017
30.7098
17.0897
15.7047
17.1363
15.7521
30.4752
28.7711
30.5608
28.8555
13.5755
12.4662
13.618
12.5054
25.7004
24.1658
25.7768
24.2375
11.9847
11.9849
12.0223
12.0224
23.5129
23.513
23.5819
23.5821
12.4667
13.5765
12.5059
13.6189
24.1663
25.7015
24.238
25.7778
15.706
17.0911
15.753
17.1373
28.7735
30.4772
28.8574
30.5622
16.9761
15.5933
17.0339
15.6497
30.2704
28.5699
30.3758
28.6729
13.4785
12.3768
13.5286
12.4233
25.5208
23.9971
25.6142
24.0854
11.8989
11.899
11.9437
11.9438
23.3498
23.3499
23.4353
23.4355
12.3772
13.4794
12.4238
13.5296
23.9976
25.5217
24.0859
25.6153
15.5955
16.9788
15.651
17.0354
28.5716
30.2728
28.6751
30.3782
16.855
15.4722
16.9155
15.5335
30.0362
28.3391
30.1556
28.4572
13.3684
12.2736
13.4251
12.3269
25.3093
23.7967
25.4186
23.9007
11.7991
11.7992
11.8508
11.8509
23.1546
23.1548
23.2561
23.2562
12.274
13.3691
12.3274
13.426
23.7972
25.3102
23.9012
25.4197
15.4728
16.8562
15.5354
16.9186
28.3406
30.0378
28.4591
30.1581
16.7128
15.3317
16.7856
15.4029
29.7664
28.0706
29.9052
28.2082
13.2431
12.1564
13.3075
12.2168
25.0645
23.5647
25.1908
23.6845
11.6855
11.6856
11.7441
11.7442
22.928
22.9281
23.0452
23.0453
12.1567
13.2435
12.2171
13.3079
23.565
25.0647
23.6849
25.1911
15.331
16.7111
15.4026
16.7848
28.0696
29.7636
28.2077
29.9039
16.5542
15.1765
16.6344
15.2552
29.4553
27.7648
29.6138
27.9204
13.103
12.0252
13.1748
12.0926
24.7859
23.3006
24.9289
23.4365
11.558
11.5582
11.6236
11.6237
22.6694
22.6695
22.8026
22.8027
12.0257
13.1044
12.093
13.1757
23.3012
24.7873
23.437
24.9299
15.1796
16.5582
15.2565
16.6351
27.7691
29.4592
27.9226
29.6142
16.3792
15.0057
16.4679
15.092
29.1111
27.4259
29.2866
27.5984
12.9489
11.8799
13.0277
11.9544
24.4748
23.0043
24.6341
23.1565
11.4164
11.4164
11.4891
11.4892
22.3782
22.3782
22.5278
22.5279
11.8799
12.9488
11.9547
13.0285
23.0043
24.4745
23.1568
24.6348
15.0063
16.3799
15.0943
16.4706
27.4242
29.1105
27.6004
29.2891
16.1876
14.8196
16.2849
14.9142
28.7279
27.0471
28.9242
27.2405
12.7793
11.7197
12.8661
11.8017
24.1282
22.6739
24.3058
22.8433
11.26
11.26
11.3401
11.3401
22.0531
22.0531
22.2199
22.2198
11.7193
12.778
11.8015
12.8651
22.6736
24.127
22.8431
24.3048
14.8165
16.1841
14.9123
16.2829
27.0421
28.7219
27.2361
28.9195
15.9729
14.6127
16.0815
14.7176
28.2972
26.6241
28.5156
26.8388
12.5927
11.544
12.6879
11.6338
23.7443
22.3083
23.9405
22.4954
11.0887
11.0887
11.1763
11.1762
21.6931
21.6931
21.8773
21.8772
11.5439
12.5924
11.6335
12.6871
22.3083
23.7444
22.4953
23.94
14.611
15.9703
14.715
16.0791
26.624
28.2958
26.8368
28.5129
15.7393
14.3894
15.8574
14.502
27.8278
26.164
28.0674
26.398
12.3904
11.3529
12.4935
11.4505
23.3236
21.906
23.5385
22.1117
10.9027
10.9027
10.9977
10.9977
21.2992
21.2992
21.5007
21.5007
11.3529
12.3903
11.4504
12.4933
21.906
23.3237
22.1118
23.5385
14.389
15.7377
14.5012
15.8549
26.1638
27.8262
26.3976
28.0653
15.4828
14.1464
15.6129
14.2693
27.3115
25.658
27.5741
25.9151
12.1703
11.1454
12.2824
11.2513
22.8631
21.4659
23.098
21.6906
10.7009
10.7009
10.8039
10.8039
20.8681
20.8682
21.0883
21.0883
11.1455
12.1709
11.2513
12.2828
21.466
22.8637
21.6907
23.0984
14.1493
15.4879
14.271
15.6146
25.6609
27.3155
25.917
27.5754
15.2098
13.8871
15.3479
14.0184
26.7551
25.1124
27.0373
25.3892
11.9335
10.9215
12.054
11.0356
22.364
20.9879
22.6182
21.2316
10.4829
10.4829
10.594
10.594
20.3996
20.3996
20.6385
20.6385
10.9215
11.9334
11.0356
12.0542
20.9879
22.3638
21.2316
22.6184
13.8849
15.2069
14.0185
15.35
25.1115
26.7535
25.3901
27.0388
14.9089
13.6044
15.0617
13.7474
26.1486
24.5185
26.4571
24.8199
11.6779
10.6804
11.8079
10.8031
21.8241
20.471
22.0988
20.7343
10.2482
10.2483
10.3677
10.3677
19.8928
19.8929
20.1509
20.1509
10.6806
11.6786
10.8032
11.8081
20.4712
21.8246
20.7343
22.0989
13.6069
14.9116
13.7473
15.06
24.5208
26.1509
24.82
26.4567
14.5841
13.3022
14.7483
13.4545
25.4944
23.8804
25.8261
24.204
11.4045
10.422
11.5433
10.5534
21.2423
19.9147
21.5383
20.1977
9.99673
9.99683
10.1247
10.1247
19.3475
19.3476
19.6249
19.625
10.4223
11.4054
10.5537
11.5442
19.9151
21.2434
20.1981
21.5392
13.3054
14.5887
13.4576
14.7524
23.8831
25.4985
24.2067
25.8297
14.2412
12.9847
14.4128
13.144
24.7963
23.2003
25.149
23.5432
11.1135
10.1463
11.261
10.2863
20.6205
19.3193
20.9359
19.6217
9.72819
9.72828
9.86465
9.86475
18.7635
18.7636
19.0602
19.0603
10.1467
11.1144
10.2867
11.262
19.3197
20.6215
19.6222
20.937
12.9865
14.244
13.1466
14.4171
23.2027
24.7993
23.5463
25.1529
13.876
12.6461
14.0616
12.8177
24.0517
22.4763
24.4297
22.8435
10.8039
9.85291
10.9612
10.0019
19.9584
18.6847
20.2945
19.0069
9.44227
9.44234
9.58749
9.58757
18.1408
18.1409
18.4569
18.457
9.85311
10.8043
10.0022
10.9618
18.6849
19.9588
19.0072
20.2952
12.6468
13.8771
12.8189
14.0633
22.4771
24.0528
22.845
24.4316
13.4791
12.2812
13.6804
12.4658
23.2531
21.701
23.658
22.0936
10.4734
9.54095
10.6411
9.69927
19.2537
18.0105
19.611
18.3524
9.13865
9.13868
9.29272
9.29276
17.4796
17.4796
17.8149
17.8149
9.54105
10.4736
9.69942
10.6414
18.0105
19.2538
18.3525
19.6113
12.2815
13.4796
12.4663
13.6811
21.7012
23.2534
22.0941
23.6586
13.0557
11.894
13.2695
12.0894
22.406
20.8802
22.8343
21.2948
10.1234
9.21089
10.3007
9.37816
18.5086
17.298
18.8858
17.6588
8.81755
8.81757
8.9803
8.98032
16.781
16.781
17.1348
17.1348
9.21094
10.1235
9.37824
10.3008
17.2981
18.5087
17.6589
18.8859
11.8942
13.056
12.0896
13.2699
20.8803
22.4061
21.295
22.8345
12.6101
11.4872
12.8347
11.6921
21.5165
20.0196
21.9655
20.4536
9.75515
8.86347
9.9414
9.03934
17.7261
16.5493
18.1217
16.928
8.47948
8.47949
8.65066
8.65067
16.0465
16.0465
16.4181
16.4181
8.86351
9.75523
9.03939
9.94149
16.5493
17.7261
16.928
18.1217
11.4873
12.6104
11.6923
12.8349
20.0197
21.5165
20.4537
21.9656
12.145
11.0624
12.3791
11.2762
20.5878
19.1215
21.0561
19.5742
9.36964
8.49916
9.56446
8.68345
16.9079
15.7656
17.3212
16.1616
8.12469
8.1247
8.30421
8.30422
15.2773
15.2773
15.6661
15.6661
8.4992
9.36971
8.68348
9.56453
15.7656
16.908
16.1617
17.3212
11.0625
12.1452
11.2763
12.3793
19.1215
20.5878
19.5742
21.0561
11.662
10.6207
11.9049
10.8429
19.6219
18.1877
20.1086
18.658
8.96715
8.11795
9.17047
8.31072
16.0553
14.9478
16.4857
15.3609
7.75304
7.75305
7.94104
7.94105
14.4741
14.4741
14.8798
14.8799
8.11798
8.96721
8.31076
9.17053
14.9478
16.0553
15.3609
16.4857
10.6208
11.6622
10.843
11.9051
18.1877
19.6219
18.658
20.1086
11.162
10.1621
11.4133
10.3928
18.6195
17.2194
19.1246
17.7069
8.54715
7.71907
8.75937
7.92084
15.1683
14.0959
15.6159
14.5261
7.36369
7.3637
7.56071
7.56072
13.6367
13.6367
14.0597
14.0597
7.7191
8.54721
7.92087
8.75942
14.0959
15.1683
14.5261
15.6159
10.1622
11.1622
10.3929
11.4135
17.2194
18.6195
17.7069
19.1246
10.6441
9.68484
10.9047
9.92524
17.5782
16.2161
18.1034
16.7214
8.10743
7.30035
8.32994
7.51243
14.2454
13.2077
14.7114
13.6565
6.95458
6.95458
7.16182
7.16183
12.763
12.763
13.2045
13.2045
7.30037
8.10748
7.51245
8.32999
13.2077
14.2454
13.6565
14.7114
9.68493
10.6443
9.92534
10.9049
16.2161
17.5782
16.7214
18.1033
10.104
9.18264
10.3766
9.43691
16.4913
15.1741
17.0403
15.6995
7.6417
6.85692
7.87845
7.0822
13.2797
12.2775
13.7685
12.7484
6.52189
6.52189
6.74151
6.74151
11.8485
11.8485
12.3112
12.3112
6.85694
7.64174
7.08222
7.8785
12.2775
13.2797
12.7484
13.7685
9.18272
10.1042
9.437
10.3768
15.1741
16.4912
15.6995
17.0403
9.53216
8.6294
9.82196
8.91526
15.3546
14.0749
15.9278
14.6344
7.13105
6.37909
7.3941
6.62313
12.2484
11.2922
12.7749
11.7928
6.06085
6.06085
6.29512
6.29513
10.8865
10.8865
11.3736
11.3736
6.3791
7.13108
6.62314
7.39414
11.2921
12.2484
11.7928
12.7749
8.62947
9.53229
8.91533
9.8221
14.0749
15.3545
14.6344
15.9278
8.93799
7.86893
9.23492
8.30081
14.1496
12.7022
14.7732
13.4605
6.52183
5.857
6.84383
6.12334
11.0775
10.2376
11.6874
10.7731
5.57483
5.57483
5.8198
5.8198
9.88271
9.8827
10.388
10.388
5.85701
6.52185
6.12335
6.84386
10.2376
11.0774
10.7731
11.6874
7.86899
8.93811
8.30088
9.23504
12.7021
14.1495
13.4605
14.7731
10.5534
9.76125
9.58836
8.90965
11.0819
10.1405
9.69458
8.96587
8.47605
7.67996
7.64531
6.87735
8.55928
7.63296
7.46716
6.60097
7.30219
7.30227
6.5181
6.51817
7.2078
7.20786
6.20784
6.20789
7.68021
8.4765
6.87757
7.6457
7.63314
8.55962
6.60112
7.46743
9.76193
10.5544
8.91027
9.5892
10.1411
11.0827
8.96634
9.69527
11.7913
10.9626
11.2712
10.4512
12.6706
11.64
12.0299
11.0226
9.63718
8.81358
9.13493
8.31902
9.96381
8.98174
9.37238
8.40754
8.4213
8.42139
7.93105
7.93114
8.53026
8.53033
7.96447
7.96453
8.81386
9.63767
8.31929
9.1354
8.98195
9.9642
8.40774
9.37275
10.9633
11.7923
10.452
11.2722
11.6406
12.6715
11.0232
12.0308
12.4582
11.63
12.1719
11.3421
13.4615
12.4207
13.1241
12.0857
10.3121
9.49072
10.0186
9.19455
10.7371
9.74832
10.4023
9.41439
9.09865
9.09875
8.80152
8.80162
9.29304
9.29312
8.95977
8.95984
9.49101
10.3126
9.19484
10.0191
9.74855
10.7375
9.41461
10.4027
11.6308
12.4592
11.3428
12.173
12.4213
13.4624
12.0864
13.125
12.8389
12.0182
12.6728
11.8482
13.9138
12.8753
13.7153
12.6751
10.7184
9.90683
10.5396
9.72293
11.2031
10.2197
10.9971
10.0106
9.51901
9.5191
9.33283
9.33292
9.76653
9.76661
9.55607
9.55614
9.90712
10.7189
9.72322
10.5401
10.22
11.2035
10.0108
10.9975
12.019
12.8399
11.849
12.6738
12.8759
13.9147
12.6758
13.7162
13.064
12.2518
12.965
12.1488
14.1901
13.1565
14.0672
13.0313
10.9711
10.1705
10.8593
10.0534
11.4997
10.5246
11.3673
10.3882
9.78765
9.78774
9.66807
9.66816
10.0749
10.075
9.93669
9.93677
10.1708
10.9716
10.0537
10.8598
10.5248
11.5001
10.3884
11.3678
12.2525
13.0649
12.1495
12.966
13.1572
14.191
13.0319
14.0681
13.1957
12.3913
13.138
12.33
14.3609
13.3326
14.2848
13.2541
11.1287
10.3386
11.0592
10.2642
11.6915
10.7251
11.6059
10.6353
9.96061
9.9607
9.88381
9.8839
10.2792
10.2793
10.1876
10.1877
10.3389
11.1291
10.2644
11.0597
10.7253
11.6919
10.6356
11.6063
12.392
13.1966
12.3307
13.139
13.3332
14.3618
13.2547
14.2857
13.2668
12.4692
13.2365
12.4358
14.4624
13.439
14.4178
13.3921
11.2231
10.4429
11.1823
10.3974
11.813
10.8551
11.7594
10.7975
10.0694
10.0695
10.0217
10.0218
10.4131
10.4132
10.3536
10.3537
10.4431
11.2236
10.3977
11.1827
10.8553
11.8134
10.7977
11.7598
12.4699
13.2677
12.4365
13.2375
13.4396
14.4632
13.3928
14.4186
13.296
12.5044
13.2848
12.4906
14.5152
13.4963
14.4928
13.472
11.2733
10.5021
11.2528
10.4773
11.8846
10.935
11.854
10.9004
10.1328
10.1329
10.106
10.1061
10.4967
10.4968
10.4604
10.4605
10.5024
11.2738
10.4776
11.2532
10.9352
11.885
10.9007
11.8543
12.5051
13.2969
12.4913
13.2858
13.4969
14.516
13.4726
14.4937
13.2948
12.5083
13.2977
12.5089
14.532
13.5171
14.5264
13.5098
11.291
10.5282
11.2856
10.5188
11.9191
10.9774
11.9058
10.9603
10.1628
10.1629
10.1515
10.1516
10.5428
10.5429
10.5239
10.524
10.5285
11.2915
10.519
11.2861
10.9776
11.9195
10.9605
11.9062
12.509
13.2958
12.5097
13.2987
13.5178
14.533
13.5104
14.5273
13.2702
12.4881
13.2843
12.5002
14.5205
13.5092
14.5286
13.5156
11.2839
10.5289
11.2901
10.5314
11.9245
10.9907
11.925
10.9873
10.1672
10.1674
10.1679
10.1681
10.5597
10.5599
10.5546
10.5547
10.5292
11.2845
10.5317
11.2907
10.9911
11.9253
10.9876
11.9255
12.4891
13.2715
12.5011
13.2854
13.5105
14.5223
13.5165
14.5298
13.227
12.4488
13.2498
12.4699
14.4858
13.4779
14.5048
13.4954
11.2568
10.5094
11.2725
10.5215
11.9068
10.9808
11.9182
10.9884
10.1514
10.1516
10.1617
10.1619
10.5536
10.5537
10.5593
10.5595
10.5099
11.2576
10.5219
11.2732
10.9814
11.9079
10.9889
11.9193
12.4501
13.2286
12.4711
13.2513
13.4798
14.4883
13.4972
14.5073
13.1686
12.3938
13.1987
12.4224
14.4323
13.4274
14.4602
13.4541
11.2137
10.4736
11.237
10.4934
11.87
10.952
11.8904
10.9686
10.1191
10.1192
10.1372
10.1374
10.5284
10.5286
10.5432
10.5434
10.4741
11.2146
10.4939
11.2379
10.9526
11.8712
10.9692
11.8917
12.3951
13.1702
12.4237
13.2004
13.4297
14.4355
13.4562
14.4629
13.0983
12.3266
13.1337
12.3608
14.3649
13.363
14.3985
13.3954
11.1576
10.4244
11.187
10.4506
11.8183
10.9077
11.8457
10.9317
10.0732
10.0733
10.0978
10.0979
10.4875
10.4877
10.5098
10.51
10.4249
11.1583
10.4511
11.1878
10.9082
11.8192
10.9322
11.8467
12.3277
13.0997
12.362
13.1352
13.3639
14.3664
13.3971
14.4013
13.0182
12.2485
13.059
12.2884
14.2873
13.2868
14.3268
13.3258
11.0903
10.3638
11.1253
10.3955
11.7538
10.8501
11.7876
10.8806
10.0157
10.0158
10.0459
10.046
10.4332
10.4334
10.4621
10.4622
10.3642
11.091
10.3959
11.126
10.8506
11.7546
10.881
11.7884
12.2495
13.0195
12.2894
13.0603
13.2886
14.2895
13.3271
14.3281
12.9272
12.1602
12.9723
12.2043
14.1981
13.1994
14.2427
13.2433
11.0127
10.2927
11.0525
10.3295
11.6774
10.7805
11.7168
10.8168
9.94777
9.9479
9.98302
9.98315
10.3669
10.367
10.4016
10.4017
10.2931
11.0134
10.3299
11.0532
10.781
11.6782
10.8172
11.7176
12.1612
12.9285
12.2054
12.9736
13.2
14.199
13.2445
14.2447
12.8285
12.0635
12.8783
12.1122
14.0986
13.1009
14.149
13.1508
10.9262
10.2125
10.9705
10.2538
11.5902
10.7
11.635
10.7417
9.87047
9.87061
9.91033
9.91047
10.2895
10.2897
10.3296
10.3298
10.2129
10.927
10.2542
10.9712
10.7005
11.591
10.7421
11.6359
12.0646
12.83
12.1132
12.8797
13.1028
14.1009
13.152
14.1499
12.7228
11.9595
12.7755
12.0118
13.9889
12.993
14.0435
13.0471
10.8312
10.1234
10.8797
10.1691
11.4927
10.6091
11.5426
10.6559
9.78426
9.7844
9.82855
9.82869
10.2018
10.2019
10.247
10.2472
10.1238
10.8319
10.1695
10.8805
10.6095
11.4934
10.6564
11.5434
11.9606
12.7241
12.013
12.777
12.9933
13.9895
13.0483
14.0458
12.6071
11.8459
12.6657
11.9032
13.8682
12.8736
13.9295
12.9341
10.7274
10.0255
10.7803
10.0756
11.3847
10.5078
11.44
10.5599
9.68921
9.68933
9.73792
9.73805
10.1037
10.1038
10.1541
10.1542
10.0258
10.728
10.076
10.781
10.5082
11.3853
10.5602
11.4406
11.8468
12.6083
11.9041
12.6669
12.8749
13.8694
12.9347
13.9296
12.4827
11.7238
12.5451
11.7853
13.7346
12.743
13.8015
12.8087
10.6143
9.91847
10.6719
9.97317
11.2656
10.3959
11.3264
10.4533
9.58513
9.58524
9.63839
9.6385
9.99505
9.99516
10.0508
10.0509
9.91879
10.6149
9.97352
10.6726
10.3963
11.2664
10.4536
11.3271
11.7247
12.4838
11.7863
12.5462
12.7437
13.7358
12.8098
13.8034
12.3468
11.591
12.4156
11.658
13.5893
12.6007
13.6629
12.6726
10.4917
9.80213
10.5542
9.86155
11.1356
10.2732
11.2019
10.336
9.47178
9.47184
9.52971
9.5298
9.8757
9.87574
9.93682
9.93691
9.80229
10.4921
9.8618
10.5547
10.2733
11.1358
10.3362
11.2025
11.5914
12.3474
11.6587
12.4166
12.6015
13.5904
12.6735
13.6636
12.2003
11.4484
12.274
11.5204
13.4303
12.4464
13.5103
12.5243
10.359
9.67595
10.4266
9.74034
10.9936
10.139
11.0661
10.2076
9.34876
9.34878
9.41157
9.4116
9.74518
9.74516
9.81193
9.81193
9.67599
10.359
9.74043
10.4268
10.1389
10.9933
10.2076
11.0659
11.4484
12.2003
11.5206
12.2742
12.4448
13.4284
12.5237
13.5104
12.0401
11.2935
12.1214
11.3718
13.2551
12.2774
13.3441
12.3628
10.2156
9.53956
10.2886
9.6091
10.8392
9.99308
10.9179
10.0676
9.21576
9.21577
9.2836
9.28361
9.60322
9.6032
9.67571
9.67569
9.53959
10.2157
9.60913
10.2886
9.99304
10.8391
10.0675
10.9176
11.2936
12.0404
11.3718
12.1215
12.2779
13.2554
12.3622
13.3424
11.8681
11.1279
11.9548
11.2116
13.066
12.0958
13.1619
12.188
10.0612
9.39258
10.1398
9.46747
10.6722
9.8351
10.7573
9.9157
9.07242
9.07243
9.14548
9.14549
9.44951
9.44951
9.52794
9.52793
9.39264
10.0613
9.46752
10.1399
9.83511
10.6722
9.91569
10.7573
11.128
11.8684
11.2118
11.9551
12.0959
13.0659
12.1881
13.1624
11.6806
10.9486
11.7757
11.0392
12.8586
11.8987
12.9634
11.9982
9.89516
9.23463
9.97956
9.31504
10.4915
9.66445
10.5834
9.75141
8.91836
8.91838
8.99681
8.99683
9.28352
9.28354
9.36814
9.36814
9.23471
9.89536
9.3151
9.97971
9.66452
10.4918
9.75146
10.5836
10.949
11.6812
11.0394
11.7762
11.8996
12.8602
11.9989
12.9642
11.481
10.7585
11.5815
10.8545
12.6369
11.689
12.7482
11.7945
9.71766
9.06551
9.80784
9.15153
10.2979
9.48104
10.3963
9.5744
8.75334
8.75336
8.83729
8.83732
9.10501
9.10503
9.19592
9.19593
9.0656
9.71781
9.15162
9.80802
9.48109
10.298
9.57446
10.3964
10.7588
11.4813
10.8549
11.582
11.6885
12.6362
11.7948
12.7492
11.2651
10.5542
11.3746
10.6575
12.3962
11.4624
12.5186
11.577
9.52804
8.88491
9.62432
8.97671
10.0901
9.28443
10.1957
9.38445
8.57709
8.57714
8.66669
8.66673
8.91366
8.91371
9.01103
9.01105
8.88505
9.52833
8.97682
9.62453
9.28458
10.0905
9.38454
10.1959
10.5547
11.2659
10.6578
11.3751
11.464
12.3983
11.5774
12.5182
11.0358
10.3384
11.1512
10.4472
12.1383
11.2219
12.2682
11.3432
9.32644
8.69267
9.4287
8.79029
9.86841
9.07444
9.98092
9.18115
8.38943
8.38949
8.48476
8.48481
8.70924
8.70932
8.81316
8.81322
8.69287
9.3268
8.79047
9.42904
9.0747
9.86896
9.18137
9.98142
10.339
11.0366
10.4478
11.152
11.2224
12.1396
11.3444
12.2708
10.7923
10.1093
10.9152
10.2249
11.8647
10.9669
12.0025
11.0953
9.11263
8.48861
9.22104
8.59218
9.63299
8.85104
9.75233
8.96446
8.19014
8.1902
8.2913
8.29137
8.49158
8.49166
8.60214
8.60222
8.48882
9.11301
8.59239
9.22142
8.85131
9.63354
8.96475
9.75291
10.1099
10.7932
10.2255
10.916
10.968
11.8659
11.096
12.0032
10.5329
9.86615
10.6641
9.98903
11.5739
10.6966
11.7209
10.8332
8.88593
8.27238
9.00089
8.38208
9.38299
8.61374
9.50988
8.73422
7.97898
7.97904
8.08611
8.08617
8.26036
8.26042
8.37775
8.37782
8.27255
8.88623
8.38227
9.00124
8.61392
9.38335
8.73445
9.51034
9.86663
10.5336
9.98958
10.6649
10.6972
11.5748
10.8341
11.7222
10.2567
9.6084
10.3962
9.7385
11.2609
10.4073
11.4193
10.5535
8.64607
8.04383
8.76758
8.15967
9.1171
8.362
9.25195
8.4897
7.75589
7.75593
7.86897
7.86901
8.0153
8.01534
8.1396
8.13965
8.04396
8.6463
8.15981
8.76784
8.36212
9.11732
8.48985
9.25223
9.60876
10.2572
9.73891
10.3967
10.4076
11.2614
10.554
11.42
9.9658
9.33742
10.1123
9.47393
10.9283
10.1014
11.096
10.2556
8.39379
7.80336
8.52139
7.92509
8.83619
8.09624
8.97839
8.23087
7.52114
7.52117
7.63999
7.64003
7.75666
7.75669
7.8877
7.88773
7.80347
8.39397
7.9252
8.52159
8.09632
8.83634
8.23096
8.97857
9.33773
9.96623
9.47425
10.1128
10.1016
10.9287
10.2559
11.0965
9.66231
9.05483
9.81492
9.19699
10.5798
9.78083
10.7552
9.94214
8.13002
7.55156
8.26325
7.67888
8.54143
7.81709
8.69043
7.95833
7.27514
7.27517
7.39957
7.3996
7.48486
7.48488
7.62243
7.62245
7.55166
8.13019
7.67898
8.26343
7.81716
8.54156
7.95841
8.69057
9.0551
9.6627
9.19727
9.81534
9.78105
10.5801
9.94238
10.7555
9.34805
8.76183
9.50585
8.90907
10.2175
9.44733
10.3995
9.61499
7.8555
7.28885
7.99404
7.42159
8.23368
7.525
8.3891
7.67268
7.01816
7.01819
7.14806
7.14809
7.20017
7.20019
7.34417
7.34419
7.28894
7.85566
7.42168
7.99421
7.52506
8.2338
7.67275
8.38923
8.76209
9.34842
8.90934
9.50623
9.44754
10.2178
9.6152
10.3998
9.02447
8.45929
9.1868
8.61124
9.84284
9.10172
10.0309
9.27538
7.57059
7.01529
7.71432
7.15347
7.91325
7.21999
8.07501
7.37416
6.75014
6.75017
6.88559
6.88562
6.90246
6.90248
7.05301
7.05303
7.01537
7.57074
7.15356
7.71447
7.22004
7.91336
7.37422
8.07513
8.45954
9.02483
8.61149
9.18716
9.10191
9.84313
9.27558
10.0312
8.69233
8.14744
8.85892
8.30408
9.45672
8.74405
9.65053
8.92382
7.27498
6.7303
7.42416
6.87432
7.57967
6.90132
7.74814
7.06248
6.47042
6.47044
6.61186
6.61188
6.59091
6.59093
6.74854
6.74856
6.73037
7.27512
6.8744
7.42431
6.90137
7.57978
7.06253
7.74825
8.14767
8.69267
8.30432
8.85926
8.74423
9.457
8.924
9.65082
8.35109
7.82508
8.52242
7.98725
9.05821
8.37266
9.2585
8.55968
6.96703
6.43218
7.12271
6.58307
7.23087
6.56693
7.40736
6.73632
6.17733
6.17735
6.32572
6.32575
6.26356
6.26358
6.42942
6.42944
6.43225
6.96716
6.58314
7.12284
6.56698
7.23096
6.73637
7.40746
7.8253
8.35141
7.98748
8.52275
8.37283
9.05847
8.55985
9.25877
7.99826
7.48793
8.17582
7.65839
8.64318
7.98159
8.85254
8.17969
6.64213
6.11729
6.80717
6.27719
6.86098
6.21226
7.04916
6.39258
5.86804
5.86806
6.02495
6.02497
5.91687
5.91688
6.09294
6.09295
6.11736
6.64225
6.27726
6.80729
6.21231
6.86107
6.39262
7.04925
7.48814
7.99856
7.6586
8.17614
7.98175
8.64342
8.17985
8.85279
7.63263
7.12049
7.81603
7.30959
8.20478
7.54882
8.42637
7.77274
6.28761
5.77932
6.46992
5.95166
6.45327
5.82876
6.66366
6.0248
5.53996
5.53998
5.70637
5.70639
5.54683
5.54684
5.7349
5.73491
5.77938
6.28772
5.95172
6.47004
5.8288
6.45335
6.02484
6.66374
7.12068
7.63292
7.30979
7.81632
7.54896
8.205
7.77289
8.4266
7.28333
6.63527
7.45264
6.90685
7.76322
6.95575
7.98123
7.29125
5.87283
5.41589
6.09021
5.60003
5.96526
5.41016
6.22291
5.62329
5.19958
5.1996
5.36999
5.37
5.1585
5.15851
5.35368
5.35369
5.41594
5.87293
5.60008
6.09032
5.41019
5.96533
5.62333
6.22298
6.63545
7.2836
6.90703
7.45292
6.95587
7.76342
7.29138
7.98144
10.1825
9.5825
9.54405
8.99985
10.3065
9.62553
9.54948
8.94353
8.64899
8.04451
8.04875
7.44383
8.54552
7.85673
7.85757
7.17832
7.74894
7.74904
7.152
7.1521
7.5235
7.52359
6.85443
6.85451
8.04484
8.64955
7.44413
8.04926
7.85702
8.54604
7.17859
7.85803
9.58331
10.1835
9.0006
9.54502
9.6263
10.3075
8.94423
9.55041
11.0663
10.4654
10.6801
10.0772
11.33
10.6363
10.8891
10.1971
9.53597
8.93305
9.1422
8.53674
9.54509
8.84713
9.10547
8.40881
8.63727
8.63739
8.24012
8.24023
8.50816
8.50826
8.071
8.0711
8.9334
9.53657
8.53709
9.14278
8.84745
9.54565
8.40912
9.10601
10.4663
11.0674
10.0781
10.6812
10.6371
11.331
10.1979
10.8902
11.5912
10.9995
11.3623
10.7658
11.9145
11.227
11.6615
10.9702
10.0896
9.49777
9.84593
9.24813
10.1513
9.46116
9.886
9.19108
9.20692
9.20704
8.95453
8.95465
9.12531
9.12542
8.85316
8.85327
9.49812
10.0902
9.24848
9.84653
9.46149
10.1518
9.19141
9.88656
11.0003
11.5922
10.7667
11.3634
11.2278
11.9155
10.971
11.6625
11.8986
11.3178
11.7646
11.1785
12.2519
11.5743
12.1049
11.4224
10.4296
9.85096
10.2801
9.69502
10.5194
9.84145
10.3576
9.67358
9.56628
9.56639
9.40727
9.40739
9.51111
9.51122
9.34043
9.34054
9.8513
10.4302
9.69536
10.2807
9.84177
10.52
9.6739
10.3582
11.3186
11.8997
11.1794
11.7657
11.5751
12.2529
11.4232
12.1059
12.0756
11.5048
11.9989
11.4234
12.4478
11.78
12.3624
11.69
10.6369
10.0708
10.5461
9.97403
10.7454
10.0796
10.646
9.97438
9.79207
9.79218
9.69243
9.69254
9.75497
9.75507
9.64696
9.64707
10.0711
10.6375
9.97437
10.5467
10.0799
10.7459
9.9747
10.6466
11.5056
12.0766
11.4242
12
11.7808
12.4489
11.6908
12.3635
12.1712
11.6093
12.1307
11.5647
12.5575
11.8983
12.5103
11.8471
10.7594
10.2046
10.7065
10.1464
10.8821
10.2276
10.8225
10.1627
9.93123
9.93134
9.87044
9.87055
9.90824
9.90834
9.84076
9.84087
10.2049
10.7599
10.1467
10.7071
10.2279
10.8827
10.163
10.8231
11.6101
12.1722
11.5655
12.1317
11.8991
12.5585
11.8479
12.5113
12.2138
11.6594
12.1972
11.6393
12.6112
11.9595
12.5892
11.9341
10.8254
10.2806
10.7981
10.2486
10.9598
10.3154
10.9269
10.2777
10.0121
10.0122
9.97774
9.97784
10.0008
10.0009
9.96086
9.96096
10.2809
10.8259
10.2489
10.7986
10.3157
10.9603
10.278
10.9274
11.6601
12.2147
11.6401
12.1982
11.9602
12.6121
11.9348
12.5902
12.22
11.672
12.2199
11.669
12.6265
11.9812
12.622
11.9738
10.8522
10.3163
10.8428
10.3027
10.9962
10.361
10.9822
10.3426
10.0521
10.0522
10.0364
10.0366
10.0508
10.0509
10.0304
10.0305
10.3166
10.8527
10.303
10.8433
10.3613
10.9967
10.3429
10.9827
11.6728
12.2209
11.6698
12.2209
11.9819
12.6274
11.9745
12.623
12.2005
11.658
12.2124
11.6673
12.6144
11.9744
12.6226
11.9802
10.8506
10.3227
10.8543
10.3227
11.0028
10.3758
11.0026
10.3717
10.0624
10.0625
10.0605
10.0606
10.0696
10.0697
10.0636
10.0637
10.323
10.8512
10.323
10.8549
10.3761
11.0033
10.372
11.0031
11.6587
12.2015
11.6681
12.2133
11.9752
12.6153
11.9809
12.6235
12.1616
11.6236
12.1825
11.6425
12.5814
11.9461
12.5994
11.962
10.8278
10.3071
10.8415
10.3174
10.9867
10.3673
10.9972
10.3742
10.0503
10.0504
10.0589
10.059
10.0648
10.0649
10.0698
10.0699
10.3075
10.8283
10.3177
10.842
10.3677
10.9873
10.3745
10.9977
11.6244
12.1626
11.6432
12.1835
11.9469
12.5825
11.9628
12.6004
12.1079
11.5737
12.1358
11.5999
12.5321
11.9008
12.5578
11.9247
10.7883
10.2743
10.8098
10.2927
10.9527
10.3405
10.9716
10.356
10.0208
10.0209
10.0376
10.0377
10.0414
10.0415
10.0552
10.0554
10.2746
10.7888
10.293
10.8104
10.3409
10.9534
10.3564
10.9722
11.5746
12.1089
11.6007
12.1368
11.9018
12.5334
11.9256
12.559
12.0421
11.5113
12.0757
11.5434
12.4698
11.8419
12.5017
11.8723
10.7355
10.2277
10.7633
10.2526
10.9043
10.2988
10.9301
10.3214
9.97721
9.97732
10.0006
10.0008
10.003
10.0031
10.0239
10.0241
10.2281
10.7361
10.253
10.7639
10.2992
10.905
10.3218
10.9307
11.5121
12.0432
11.5443
12.0768
11.8428
12.471
11.8733
12.503
11.9667
11.4387
12.0049
11.4757
12.3969
11.7718
12.4338
11.8075
10.6718
10.1698
10.7049
10.2001
10.8443
10.2451
10.8756
10.2734
9.92214
9.92225
9.95107
9.95118
9.95223
9.95235
9.97909
9.97922
10.1702
10.6724
10.2005
10.7054
10.2454
10.8449
10.2738
10.8762
11.4395
11.9677
11.4765
12.0059
11.7728
12.3981
11.8085
12.435
11.8828
11.3573
11.9252
11.3986
12.3148
11.6922
12.3563
11.7326
10.5988
10.1023
10.6364
10.1372
10.774
10.1808
10.8103
10.2142
9.85725
9.85736
9.89092
9.89103
9.89093
9.89105
9.9229
9.92302
10.1026
10.5994
10.1376
10.6369
10.1812
10.7747
10.2146
10.8109
11.3581
11.8838
11.3993
11.9262
11.6931
12.316
11.7336
12.3575
11.7911
11.2678
11.8373
11.313
12.2238
11.6034
12.2697
11.6484
10.5174
10.0261
10.559
10.0653
10.6945
10.1073
10.7353
10.1452
9.78366
9.78378
9.82156
9.82167
9.82024
9.82037
9.85678
9.8569
10.0264
10.518
10.0656
10.5596
10.1077
10.6952
10.1456
10.736
11.2686
11.7922
11.3138
11.8384
11.6045
12.2252