/*--------------------------------*- C++ -*----------------------------------*\
  =========                 |
  \\      /  F ield         | OpenFOAM: The Open Source CFD Toolbox
   \\    /   O peration     | Website:  https://openfoam.org
    \\  /    A nd           | Version:  9
     \\/     M anipulation  |
\*---------------------------------------------------------------------------*/
FoamFile
{
    format      ascii;
    class       volScalarField;
    location    "4.9";
    object      p;
}
// * * * * * * * * * * * * * * * * * * * * * * * * * * * * * * * * * * * * * //

dimensions      [0 2 -2 0 0 0 0];

internalField   nonuniform List<scalar> 
36360
(
20.2423
19.9929
20.2333
20.0046
19.9906
20.1866
20.0141
20.1534
20.0806
20.0985
20.0868
20.1059
20.1116
20.0954
20.0992
20.0917
20.1005
20.1005
20.1082
20.1082
20.0936
20.0936
20.0913
20.0913
20.0985
20.0806
20.1059
20.0868
20.0954
20.1116
20.0917
20.0992
19.9929
20.2423
20.0046
20.2333
20.1866
19.9906
20.1534
20.0141
20.1153
20.0681
20.1612
20.0453
19.8925
20.257
19.9387
20.2303
20.112
20.103
20.0984
20.0995
20.1471
20.1041
20.1308
20.0998
20.0973
20.0973
20.0977
20.0977
20.0954
20.0954
20.0948
20.0948
20.103
20.112
20.0995
20.0984
20.1041
20.1471
20.0998
20.1308
20.0681
20.1153
20.0453
20.1612
20.257
19.8925
20.2303
19.9387
20.0649
20.0825
20.0864
20.0782
19.8344
20.28
19.859
20.272
20.1334
20.1138
20.1239
20.1083
20.1717
20.1153
20.1607
20.1095
20.1005
20.1005
20.0984
20.0984
20.0992
20.0992
20.0969
20.0969
20.1138
20.1334
20.1083
20.1239
20.1153
20.1717
20.1095
20.1607
20.0825
20.0649
20.0782
20.0864
20.28
19.8344
20.272
19.859
20.0363
20.0832
20.0487
20.0837
19.8017
20.2851
19.8159
20.2838
20.1456
20.1239
20.1405
20.119
20.1857
20.1262
20.1798
20.1209
20.1063
20.1063
20.1032
20.1032
20.1049
20.1049
20.1019
20.1019
20.1239
20.1456
20.119
20.1404
20.1262
20.1857
20.121
20.1799
20.0832
20.0363
20.0837
20.0487
20.2852
19.8017
20.2838
19.8159
20.0188
20.0801
20.0266
20.0818
19.782
20.2844
19.7907
20.2851
20.1518
20.1319
20.1492
20.1282
20.1928
20.1349
20.1899
20.1309
20.1128
20.1128
20.1096
20.1096
20.1112
20.1112
20.1081
20.108
20.1319
20.1518
20.1282
20.1492
20.1349
20.1928
20.1309
20.1899
20.0801
20.0188
20.0818
20.0266
20.2844
19.782
20.2851
19.7907
20.0074
20.0763
20.0125
20.0782
19.7693
20.282
19.775
20.2833
20.1548
20.1377
20.1536
20.1351
20.1964
20.1411
20.1949
20.1383
20.1186
20.1186
20.1158
20.1158
20.1171
20.1171
20.1142
20.1142
20.1377
20.1548
20.1351
20.1536
20.1411
20.1964
20.1383
20.1949
20.0763
20.0074
20.0782
20.0125
20.282
19.7693
20.2833
19.775
19.9995
20.0728
20.0031
20.0745
19.7604
20.2794
19.7645
20.2807
20.156
20.1418
20.1556
20.1399
20.1982
20.1453
20.1975
20.1434
20.1233
20.1233
20.1211
20.1211
20.1219
20.1219
20.1196
20.1196
20.1418
20.156
20.1399
20.1556
20.1453
20.1982
20.1434
20.1975
20.0728
19.9995
20.0745
20.0031
20.2793
19.7607
20.2806
19.7646
19.9937
20.0697
19.9964
20.0712
19.7547
20.2767
19.7573
20.2781
20.1563
20.1444
20.1563
20.1432
20.1989
20.1481
20.1987
20.1469
20.1268
20.1268
20.1252
20.1252
20.1256
20.1256
20.1239
20.1239
20.1444
20.1563
20.1432
20.1563
20.1481
20.1989
20.1469
20.1987
20.0697
19.9937
20.0712
19.9963
20.2768
19.7546
20.2781
19.7572
19.9893
20.067
19.9914
20.0684
19.7509
20.2742
19.7527
20.2755
20.1559
20.1459
20.1562
20.1453
20.1988
20.1498
20.1989
20.1491
20.1293
20.1293
20.1282
20.1282
20.1282
20.1283
20.1271
20.1271
20.1459
20.1559
20.1453
20.1562
20.1498
20.1989
20.1491
20.1989
20.0671
19.9893
20.0684
19.9914
20.2744
19.7503
20.2755
19.7524
19.9858
20.0648
19.9875
20.0659
19.747
20.2721
19.7488
20.2732
20.1552
20.1467
20.1556
20.1464
20.1984
20.1507
20.1987
20.1504
20.1307
20.1307
20.1301
20.1301
20.13
20.13
20.1292
20.1292
20.1466
20.1551
20.1464
20.1556
20.1507
20.1984
20.1504
20.1988
20.0647
19.9858
20.0659
19.9874
20.2721
19.7474
20.2733
19.7485
19.9829
20.0626
19.9842
20.0638
19.7453
20.2696
19.7457
20.271
20.154
20.1466
20.1547
20.1467
20.1975
20.1509
20.1981
20.1509
20.1313
20.1313
20.1311
20.1311
20.1308
20.1308
20.1305
20.1305
20.1466
20.154
20.1467
20.1546
20.1508
20.1974
20.1508
20.1979
20.0626
19.9829
20.0636
19.9843
20.2695
19.7458
20.2706
19.7469
19.9804
20.0605
19.9816
20.0615
19.7438
20.2671
19.7449
20.2682
20.1525
20.146
20.1532
20.1464
20.1962
20.1505
20.1968
20.1507
20.1312
20.1312
20.1313
20.1313
20.1309
20.1309
20.1309
20.1309
20.1461
20.1526
20.1464
20.1533
20.1505
20.1963
20.1507
20.1969
20.0605
19.9803
20.0616
19.9815
20.2674
19.7433
20.2685
19.7444
19.978
20.0585
19.9792
20.0595
19.7409
20.2652
19.7424
20.2661
20.1509
20.145
20.1517
20.1456
20.1947
20.1496
20.1955
20.1501
20.1305
20.1305
20.1309
20.1309
20.1304
20.1304
20.1308
20.1308
20.145
20.1509
20.1456
20.1518
20.1495
20.1947
20.1501
20.1956
20.0584
19.978
20.0595
19.9791
20.265
19.7417
20.2663
19.7422
19.9756
20.0564
19.9768
20.0575
19.7402
20.2623
19.7407
20.2636
20.1489
20.1433
20.1499
20.1442
20.1926
20.148
20.1937
20.1488
20.1291
20.1291
20.1298
20.1298
20.1293
20.1292
20.1299
20.1299
20.1433
20.1488
20.1442
20.1499
20.1479
20.1925
20.1488
20.1936
20.0562
19.9759
20.0573
19.9769
20.2622
19.741
20.2635
19.7416
19.9734
20.0539
19.9744
20.0552
19.7393
20.2594
19.7395
20.261
20.1465
20.1412
20.1478
20.1423
20.1902
20.146
20.1915
20.147
20.1272
20.1272
20.1282
20.1282
20.1275
20.1275
20.1285
20.1285
20.1413
20.1466
20.1423
20.1477
20.146
20.1903
20.147
20.1914
20.0541
19.9734
20.0552
19.9747
20.2597
19.7389
20.261
19.7399
19.9711
20.0515
19.9722
20.0528
19.7379
20.2564
19.7388
20.2579
20.1439
20.1387
20.1453
20.14
20.1874
20.1435
20.1888
20.1448
20.1248
20.1248
20.126
20.1261
20.1252
20.1252
20.1265
20.1265
20.1387
20.1439
20.14
20.1453
20.1435
20.1874
20.1448
20.1889
20.0516
19.9709
20.0529
19.9721
20.2563
19.7381
20.2579
19.7386
19.9686
20.0489
19.9699
20.0503
19.7371
20.2528
19.7375
20.2547
20.141
20.1357
20.1425
20.1373
20.1841
20.1404
20.1858
20.142
20.1219
20.1219
20.1234
20.1234
20.1224
20.1224
20.1239
20.1239
20.1358
20.141
20.1373
20.1425
20.1404
20.1841
20.142
20.1859
20.049
19.9685
20.0503
19.9697
20.253
19.7367
20.2548
19.7372
19.9658
20.0464
19.9673
20.0477
19.7353
20.249
19.7362
20.251
20.1379
20.1324
20.1395
20.1341
20.1805
20.1369
20.1823
20.1387
20.1187
20.1186
20.1203
20.1203
20.119
20.119
20.1207
20.1207
20.1324
20.1378
20.1341
20.1394
20.1369
20.1804
20.1387
20.1823
20.0462
19.9661
20.0476
19.9673
20.2488
19.736
20.2509
19.7365
19.9632
20.0434
19.9644
20.045
19.7336
20.2449
19.7344
20.247
20.1344
20.1288
20.1362
20.1307
20.1765
20.1331
20.1785
20.1351
20.115
20.115
20.1169
20.1169
20.1152
20.1152
20.1172
20.1172
20.1288
20.1345
20.1306
20.1362
20.133
20.1765
20.135
20.1784
20.0435
19.9631
20.0448
19.9646
20.245
19.7336
20.2469
19.735
19.9603
20.0405
19.9618
20.042
19.7321
20.2404
19.733
20.2427
20.1309
20.1248
20.1327
20.1268
20.172
20.1287
20.1743
20.1309
20.1111
20.1111
20.1131
20.1131
20.1109
20.1109
20.1131
20.1131
20.1248
20.1309
20.1268
20.1327
20.1287
20.1721
20.1309
20.1744
20.0405
19.9603
20.0421
19.9618
20.2407
19.7315
20.2429
19.7325
19.9576
20.0373
19.959
20.039
19.7301
20.2358
19.7308
20.2383
20.1272
20.1206
20.1291
20.1227
20.1672
20.124
20.1697
20.1264
20.1069
20.1069
20.109
20.109
20.1062
20.1061
20.1086
20.1086
20.1206
20.1272
20.1227
20.1291
20.1239
20.1671
20.1264
20.1696
20.0374
19.9573
20.039
19.9587
20.2354
19.7311
20.2381
19.7313
19.9545
20.0344
19.9561
20.0358
19.7286
20.2307
19.7294
20.2333
20.1235
20.1163
20.1254
20.1185
20.1621
20.1189
20.1647
20.1215
20.1025
20.1025
20.1047
20.1047
20.1011
20.1011
20.1037
20.1036
20.1163
20.1234
20.1184
20.1253
20.1189
20.162
20.1214
20.1646
20.0342
19.9548
20.0357
19.956
20.2305
19.7291
20.2329
19.7303
19.9517
20.0315
19.9531
20.0329
19.7269
20.2254
19.7275
20.2282
20.1198
20.1116
20.1217
20.114
20.1568
20.1136
20.1595
20.1163
20.0979
20.0979
20.1002
20.1002
20.0959
20.0959
20.0985
20.0985
20.1116
20.1198
20.114
20.1216
20.1136
20.1567
20.1163
20.1595
20.0315
19.9516
20.0329
19.9533
20.2254
19.7274
20.2282
19.7276
19.9492
20.0284
19.9504
20.03
19.7259
20.2201
19.7265
20.2227
20.1161
20.1071
20.1179
20.1094
20.1513
20.1081
20.154
20.1108
20.0934
20.0934
20.0957
20.0957
20.0904
20.0904
20.0932
20.0931
20.1071
20.1161
20.1094
20.1179
20.1081
20.1512
20.1108
20.154
20.0284
19.9492
20.03
19.9503
20.2201
19.7264
20.2226
19.7271
19.9469
20.0259
19.948
20.0271
19.7249
20.2148
19.7256
20.2174
20.1127
20.1028
20.1143
20.1049
20.1459
20.1026
20.1486
20.1053
20.089
20.089
20.0912
20.0912
20.0849
20.0849
20.0877
20.0877
20.1028
20.1127
20.1049
20.1143
20.1026
20.1458
20.1053
20.1485
20.0259
19.947
20.0271
19.9482
20.2147
19.7255
20.2174
19.726
19.9451
20.0238
19.9458
20.0249
19.7236
20.2099
19.7244
20.2122
20.1098
20.0987
20.1112
20.1007
20.1406
20.0972
20.1432
20.0999
20.0849
20.0849
20.0869
20.0869
20.0796
20.0795
20.0822
20.0822
20.0987
20.1099
20.1007
20.1113
20.0971
20.1406
20.0998
20.1432
20.0239
19.945
20.0249
19.9458
20.2098
19.7242
20.2122
19.7248
19.9436
20.0224
19.9443
20.023
19.723
20.205
19.7233
20.2073
20.1065
20.0951
20.1082
20.0969
20.1354
20.0919
20.138
20.0945
20.0812
20.0812
20.083
20.083
20.0744
20.0744
20.0769
20.0769
20.0951
20.1064
20.0969
20.1083
20.0919
20.1354
20.0945
20.138
20.0221
19.9437
20.023
19.9442
20.205
19.7234
20.2073
19.7237
19.9431
20.0212
19.9432
20.0218
19.7235
20.2006
19.7229
20.2029
20.1036
20.0919
20.1049
20.0934
20.1306
20.0871
20.133
20.0894
20.078
20.078
20.0796
20.0796
20.0696
20.0696
20.072
20.072
20.0919
20.1036
20.0934
20.1049
20.0871
20.1306
20.0894
20.1329
20.0212
19.943
20.0216
19.9433
20.2008
19.7233
20.2028
19.7233
19.9432
20.0209
19.943
20.021
19.7247
20.1967
19.724
20.1986
20.1014
20.0893
20.1024
20.0905
20.1262
20.0826
20.1283
20.0848
20.0755
20.0755
20.0767
20.0767
20.0654
20.0654
20.0675
20.0675
20.0893
20.1015
20.0905
20.1024
20.0826
20.1262
20.0848
20.1283
20.0209
19.9432
20.021
19.943
20.1968
19.7247
20.1987
19.7239
19.9444
20.0215
19.9437
20.0211
19.727
20.1934
19.7257
20.195
20.1001
20.0875
20.1007
20.0883
20.1224
20.0788
20.1242
20.0807
20.0737
20.0737
20.0745
20.0745
20.0619
20.0619
20.0635
20.0635
20.0875
20.1001
20.0883
20.1007
20.0789
20.1224
20.0807
20.1242
20.0215
19.9444
20.0211
19.9436
20.1934
19.727
20.195
19.7257
19.9466
20.023
19.9454
20.0221
19.7306
20.1908
19.7286
20.192
20.0996
20.0865
20.0998
20.0869
20.1192
20.0758
20.1207
20.0772
20.0729
20.0729
20.0732
20.0732
20.0592
20.0592
20.0604
20.0604
20.0865
20.0996
20.0869
20.0998
20.0758
20.1192
20.0772
20.1207
20.023
19.9466
20.0221
19.9453
20.1908
19.7306
20.192
19.7286
19.95
20.0255
19.9482
20.0242
19.7355
20.189
19.7329
20.1898
20.1
20.0864
20.0997
20.0863
20.1169
20.0737
20.118
20.0747
20.073
20.073
20.0728
20.0728
20.0575
20.0575
20.0582
20.0582
20.0864
20.1
20.0863
20.0997
20.0737
20.1169
20.0747
20.118
20.0255
19.95
20.0242
19.9482
20.189
19.7355
20.1898
19.7329
19.9548
20.029
19.9522
20.0271
19.7421
20.188
19.7386
20.1884
20.1012
20.0873
20.1005
20.0867
20.1154
20.0726
20.116
20.073
20.0743
20.0743
20.0735
20.0735
20.057
20.057
20.0571
20.0571
20.0872
20.1012
20.0867
20.1005
20.0726
20.1154
20.073
20.116
20.0289
19.9548
20.0271
19.9522
20.188
19.7421
20.1884
19.7386
19.9609
20.0333
19.9576
20.031
19.7504
20.1879
19.746
20.1879
20.1031
20.0891
20.1021
20.0881
20.1147
20.0726
20.1149
20.0725
20.0767
20.0767
20.0753
20.0753
20.0579
20.0579
20.0573
20.0573
20.0891
20.1031
20.0881
20.1021
20.0726
20.1147
20.0725
20.1149
20.0333
19.9609
20.031
19.9576
20.1879
19.7504
20.1879
19.746
19.9686
20.0385
19.9646
20.0358
19.7609
20.1885
19.7554
20.1881
20.1059
20.0919
20.1044
20.0904
20.1149
20.0738
20.1147
20.0731
20.0803
20.0803
20.0783
20.0783
20.06
20.06
20.0588
20.0588
20.0919
20.1059
20.0904
20.1044
20.0738
20.1149
20.0731
20.1147
20.0385
19.9686
20.0358
19.9646
20.1885
19.7609
20.1881
19.7554
19.9779
20.0442
19.973
20.0413
19.7737
20.1895
19.767
20.189
20.1092
20.0957
20.1075
20.0937
20.1158
20.0762
20.1153
20.0749
20.085
20.085
20.0825
20.0825
20.0637
20.0637
20.0617
20.0617
20.0957
20.1092
20.0937
20.1075
20.0762
20.1158
20.0749
20.1152
20.0442
19.9779
20.0413
19.973
20.1895
19.7737
20.189
19.767
19.9885
20.0506
19.9831
20.0473
19.7898
20.1904
19.7813
20.19
20.1129
20.1005
20.111
20.098
20.1173
20.0799
20.1165
20.0779
20.0909
20.0909
20.0878
20.0878
20.0688
20.0688
20.066
20.066
20.1005
20.1129
20.098
20.111
20.0799
20.1173
20.0779
20.1165
20.0506
19.9885
20.0473
19.9831
20.1904
19.7898
20.19
19.7813
19.9982
20.0595
19.9939
20.0545
19.8101
20.1897
19.7993
20.1904
20.1171
20.1062
20.1149
20.1032
20.1191
20.085
20.1181
20.0823
20.098
20.098
20.0943
20.0943
20.0753
20.0753
20.0718
20.0718
20.1062
20.1171
20.1032
20.1149
20.085
20.1191
20.0823
20.1181
20.0595
19.9982
20.0545
19.9939
20.1897
19.8101
20.1904
19.7993
20.0064
20.0695
20.0004
20.0664
19.8357
20.1851
19.8222
20.1882
20.1232
20.1133
20.1199
20.1096
20.1219
20.0916
20.1203
20.0881
20.1062
20.1062
20.102
20.102
20.0833
20.0833
20.0791
20.0791
20.1133
20.1232
20.1096
20.1199
20.0916
20.1219
20.0881
20.1203
20.0695
20.0064
20.0664
20.0004
20.1851
19.8357
20.1882
19.8222
20.4323
19.942
20.3333
19.9759
20.3851
19.9278
20.3105
19.9641
19.9884
20.0601
20.0267
20.0798
20.0177
20.0789
20.0448
20.0911
20.0937
20.0937
20.1019
20.1019
20.0988
20.0988
20.1036
20.1036
20.0601
19.9884
20.0798
20.0267
20.0789
20.0177
20.0911
20.0448
19.942
20.4322
19.9759
20.3333
19.9278
20.385
19.9641
20.3104
20.2917
20.0364
20.337
20.0135
20.254
20.0119
20.2983
19.9902
20.0305
20.064
20.0154
20.0619
20.0545
20.0831
20.0406
20.0805
20.0844
20.0844
20.0882
20.0882
20.0937
20.0937
20.0957
20.0957
20.064
20.0305
20.0619
20.0154
20.0831
20.0545
20.0805
20.0406
20.0364
20.2917
20.0135
20.337
20.0119
20.254
19.9902
20.2983
20.2539
20.0414
20.2693
20.0416
20.2121
20.0194
20.2297
20.0183
20.0476
20.0735
20.0408
20.0686
20.073
20.0936
20.065
20.0881
20.0863
20.0863
20.0844
20.0844
20.096
20.096
20.0942
20.0942
20.0735
20.0476
20.0686
20.0408
20.0936
20.073
20.0881
20.065
20.0414
20.2539
20.0416
20.2693
20.0194
20.2121
20.0183
20.2297
20.2338
20.0365
20.2425
20.0392
20.1887
20.0161
20.1989
20.0182
20.0548
20.0818
20.052
20.0779
20.0824
20.1033
20.0786
20.0988
20.0924
20.0924
20.0891
20.0891
20.102
20.102
20.0988
20.0988
20.0818
20.0548
20.0779
20.052
20.1033
20.0824
20.0988
20.0786
20.0365
20.2338
20.0392
20.2425
20.0161
20.1887
20.0182
20.1988
20.2216
20.0308
20.227
20.0336
20.1745
20.0112
20.1808
20.0136
20.0574
20.088
20.0565
20.0852
20.0863
20.1106
20.0849
20.1072
20.0991
20.0991
20.0958
20.0958
20.1085
20.1085
20.1053
20.1053
20.088
20.0574
20.0852
20.0565
20.1106
20.0863
20.1072
20.0849
20.0308
20.2215
20.0336
20.227
20.0112
20.1745
20.0136
20.1808
20.2133
20.0257
20.2171
20.0281
20.1651
20.0066
20.1694
20.0088
20.058
20.0923
20.0578
20.0904
20.0874
20.1157
20.0871
20.1134
20.1047
20.1047
20.102
20.102
20.1143
20.1143
20.1115
20.1115
20.0923
20.058
20.0904
20.0578
20.1157
20.0874
20.1134
20.0871
20.0257
20.2133
20.0281
20.217
20.0066
20.1651
20.0089
20.1694
20.2073
20.0214
20.2101
20.0234
20.1585
20.0026
20.1615
20.0045
20.0577
20.0952
20.0579
20.0939
20.0875
20.1193
20.0875
20.1177
20.1091
20.1091
20.1071
20.1071
20.119
20.119
20.1168
20.1168
20.0952
20.0577
20.0939
20.0579
20.1193
20.0875
20.1177
20.0875
20.0214
20.2072
20.0234
20.21
20.0026
20.1584
20.0045
20.1615
20.2026
20.0177
20.2048
20.0194
20.1533
19.9992
20.1557
20.0008
20.057
20.097
20.0574
20.0962
20.087
20.1216
20.0873
20.1206
20.1122
20.1122
20.1108
20.1108
20.1224
20.1224
20.1208
20.1208
20.097
20.057
20.0962
20.0574
20.1216
20.087
20.1206
20.0873
20.0177
20.2026
20.0194
20.2048
19.9992
20.1533
20.0008
20.1558
20.1989
20.0144
20.2007
20.016
20.1494
19.9962
20.1513
19.9976
20.0559
20.0979
20.0565
20.0975
20.0861
20.1229
20.0866
20.1224
20.1142
20.1142
20.1133
20.1133
20.1246
20.1246
20.1236
20.1236
20.0979
20.0559
20.0975
20.0565
20.1229
20.0861
20.1224
20.0866
20.0144
20.1989
20.016
20.2007
19.9961
20.1495
19.9976
20.1512
20.1957
20.0115
20.1972
20.0129
20.1462
19.9935
20.1478
19.9948
20.0546
20.0981
20.0553
20.0981
20.085
20.1234
20.0856
20.1233
20.1153
20.1153
20.1149
20.1149
20.1259
20.1259
20.1254
20.1254
20.0981
20.0546
20.0981
20.0553
20.1234
20.085
20.1232
20.0856
20.0115
20.1957
20.0129
20.1973
19.9934
20.1463
19.9947
20.1479
20.1927
20.0088
20.1942
20.0101
20.1435
19.9909
20.1449
19.9921
20.0532
20.0978
20.0539
20.098
20.0836
20.1233
20.0844
20.1234
20.1155
20.1155
20.1155
20.1155
20.1264
20.1264
20.1263
20.1262
20.0977
20.0531
20.098
20.0539
20.1233
20.0837
20.1234
20.0844
20.0088
20.1928
20.0101
20.1942
19.991
20.1433
19.9922
20.1447
20.19
20.0063
20.1913
20.0076
20.1411
19.9884
20.1422
19.9896
20.0515
20.0969
20.0524
20.0974
20.082
20.1226
20.0829
20.123
20.1151
20.1151
20.1154
20.1154
20.1261
20.1261
20.1263
20.1263
20.0969
20.0515
20.0974
20.0523
20.1226
20.082
20.123
20.0829
20.0061
20.1902
20.0074
20.1915
19.9884
20.1411
19.9897
20.1421
20.1877
20.0035
20.1888
20.0048
20.139
19.9857
20.1401
19.987
20.0495
20.0956
20.0506
20.0963
20.0801
20.1214
20.0811
20.122
20.1142
20.1142
20.1147
20.1147
20.1252
20.1252
20.1257
20.1258
20.0956
20.0495
20.0963
20.0505
20.1214
20.0802
20.1221
20.0811
20.0034
20.1877
20.0047
20.189
19.9859
20.1389
19.987
20.1401
20.1852
20.0008
20.1864
20.0022
20.1364
19.9834
20.1377
19.9846
20.0474
20.0939
20.0485
20.0948
20.0782
20.1197
20.0792
20.1206
20.1127
20.1127
20.1135
20.1135
20.1238
20.1238
20.1246
20.1246
20.0939
20.0475
20.0948
20.0485
20.1197
20.0781
20.1206
20.0792
20.0009
20.185
20.0022
20.1863
19.9834
20.1364
19.9846
20.1376
20.1829
19.9979
20.1842
19.9993
20.1343
19.9806
20.1355
19.9819
20.0451
20.0919
20.0463
20.0929
20.0757
20.1176
20.077
20.1187
20.1108
20.1108
20.1118
20.1118
20.1218
20.1218
20.1229
20.1229
20.0919
20.0451
20.093
20.0463
20.1177
20.0758
20.1187
20.077
19.9979
20.1829
19.9994
20.184
19.9808
20.1342
19.9821
20.1353
20.1799
19.9954
20.1814
19.9966
20.1316
19.9782
20.1329
19.9794
20.0428
20.0896
20.0439
20.0908
20.0734
20.1153
20.0746
20.1165
20.1086
20.1086
20.1097
20.1097
20.1195
20.1195
20.1207
20.1207
20.0896
20.0427
20.0908
20.0439
20.1152
20.0733
20.1165
20.0746
19.9953
20.18
19.9966
20.1815
19.9781
20.1317
19.9794
20.133
20.1774
19.9925
20.1786
19.9939
20.129
19.9754
20.1303
19.9768
20.0401
20.0871
20.0415
20.0884
20.0706
20.1125
20.072
20.1139
20.106
20.106
20.1073
20.1073
20.1167
20.1167
20.1182
20.1182
20.0871
20.0401
20.0884
20.0414
20.1125
20.0707
20.1139
20.072
19.9924
20.1774
19.9938
20.1788
19.9756
20.1289
19.9767
20.1304
20.1744
19.9898
20.1759
19.9911
20.1261
19.9729
20.1276
19.9741
20.0376
20.0845
20.0389
20.0858
20.0679
20.1095
20.0693
20.111
20.1033
20.1033
20.1047
20.1047
20.1137
20.1137
20.1152
20.1152
20.0845
20.0377
20.0858
20.0389
20.1095
20.0678
20.111
20.0693
19.99
20.1741
19.9912
20.1757
19.9728
20.126
19.9742
20.1275
20.1717
19.9871
20.1731
19.9884
20.1234
19.9699
20.1248
19.9714
20.035
20.0817
20.0363
20.0831
20.0648
20.1062
20.0663
20.1079
20.1004
20.1004
20.1018
20.1018
20.1104
20.1104
20.1121
20.1121
20.0817
20.0349
20.0831
20.0363
20.1063
20.0649
20.1079
20.0664
19.987
20.1717
19.9885
20.1729
19.9702
20.1232
19.9715
20.1247
20.1686
19.9846
20.1701
19.9858
20.1201
19.9676
20.1217
19.9688
20.0325
20.0789
20.0337
20.0803
20.0619
20.1029
20.0634
20.1046
20.0974
20.0974
20.0989
20.0989
20.1069
20.1069
20.1086
20.1087
20.0789
20.0325
20.0803
20.0337
20.1028
20.0618
20.1046
20.0634
19.9846
20.1686
19.9858
20.1702
19.9674
20.1204
19.9688
20.1217
20.166
19.9821
20.1673
19.9833
20.1175
19.9647
20.1189
19.9661
20.03
20.0761
20.0312
20.0775
20.0587
20.0992
20.0603
20.1011
20.0944
20.0944
20.0959
20.0959
20.1032
20.1032
20.1051
20.1051
20.0761
20.0299
20.0775
20.0312
20.0992
20.0588
20.101
20.0603
19.982
20.1661
19.9833
20.1674
19.9648
20.1174
19.9661
20.1189
20.1632
19.9801
20.1646
19.981
20.1145
19.9624
20.1159
19.9636
20.0278
20.0735
20.0289
20.0748
20.0558
20.0955
20.0573
20.0974
20.0915
20.0915
20.0929
20.0929
20.0996
20.0996
20.1014
20.1014
20.0735
20.0278
20.0748
20.0289
20.0955
20.0557
20.0973
20.0572
19.9802
20.1631
19.981
20.1645
19.9622
20.1147
19.9635
20.116
20.1614
19.9779
20.1623
19.9789
20.1123
19.9599
20.1135
19.961
20.0257
20.071
20.0267
20.0722
20.0528
20.0926
20.0543
20.094
20.0887
20.0887
20.0901
20.0901
20.096
20.096
20.0978
20.0978
20.071
20.0257
20.0722
20.0267
20.0926
20.0529
20.094
20.0543
19.9779
20.1613
19.979
20.1622
19.9602
20.1118
19.9612
20.1133
20.159
19.9768
20.1602
19.9772
20.1097
19.9581
20.1109
19.959
20.0242
20.069
20.0249
20.07
20.0501
20.0895
20.0515
20.091
20.0863
20.0863
20.0875
20.0875
20.0927
20.0927
20.0943
20.0943
20.069
20.0242
20.07
20.0249
20.0895
20.0501
20.0911
20.0515
19.9767
20.159
19.9772
20.1602
19.9579
20.1099
19.959
20.1108
20.158
19.9757
20.1584
19.9762
20.1081
19.9565
20.1089
19.9572
20.023
20.0674
20.0235
20.0682
20.0474
20.0867
20.0487
20.0881
20.0843
20.0843
20.0852
20.0852
20.0896
20.0896
20.0911
20.0911
20.0674
20.023
20.0682
20.0236
20.0868
20.0475
20.0881
20.0488
19.9758
20.1578
19.9762
20.1583
19.9568
20.1076
19.9572
20.1088
20.1567
19.9756
20.1574
19.9755
20.1065
19.9557
20.1072
19.956
20.0228
20.0664
20.0227
20.0668
20.0446
20.0843
20.046
20.0855
20.0827
20.0827
20.0834
20.0834
20.0869
20.0869
20.0882
20.0882
20.0664
20.0228
20.0668
20.0227
20.0844
20.0446
20.0855
20.0461
19.9756
20.1568
19.9755
20.1573
19.9557
20.1065
19.9562
20.1069
20.1568
19.9759
20.1566
19.9757
20.1058
19.9554
20.106
19.9555
20.0228
20.0658
20.0228
20.0661
20.0447
20.0826
20.0442
20.0834
20.0817
20.0817
20.0822
20.0822
20.0847
20.0847
20.0858
20.0858
20.0658
20.0228
20.0661
20.0228
20.0826
20.0447
20.0834
20.0442
19.9759
20.1566
19.9757
20.1567
19.9555
20.1056
19.9554
20.106
20.157
19.9772
20.1569
19.9764
20.1054
19.956
20.1056
19.9555
20.0236
20.0659
20.0231
20.0658
20.0454
20.0814
20.045
20.0819
20.0813
20.0813
20.0814
20.0814
20.0831
20.0831
20.0838
20.0838
20.0659
20.0236
20.0658
20.0231
20.0814
20.0453
20.0819
20.045
19.9771
20.157
19.9764
20.1567
19.9559
20.1056
19.9556
20.1055
20.1584
19.9793
20.1576
19.9781
20.106
19.9574
20.1056
19.9566
20.0253
20.0668
20.0243
20.0662
20.0462
20.0809
20.0457
20.0811
20.0817
20.0817
20.0814
20.0814
20.0822
20.0822
20.0825
20.0825
20.0668
20.0253
20.0662
20.0243
20.0809
20.0462
20.0811
20.0457
19.9793
20.1583
19.9781
20.1576
19.9574
20.1059
19.9565
20.1057
20.1603
19.9826
20.1593
19.9808
20.1074
19.9596
20.1066
19.9584
20.0278
20.0684
20.0264
20.0675
20.0478
20.0812
20.0469
20.0809
20.0829
20.0829
20.0822
20.0822
20.0821
20.0821
20.0821
20.0821
20.0684
20.0278
20.0675
20.0264
20.0812
20.0478
20.0809
20.0469
19.9826
20.1603
19.9807
20.1593
19.9596
20.1073
19.9584
20.1065
20.1631
19.9876
20.1616
19.9848
20.1096
19.9622
20.1084
19.9608
20.0312
20.0708
20.0294
20.0695
20.05
20.0823
20.0488
20.0816
20.0849
20.0849
20.0838
20.0838
20.083
20.083
20.0824
20.0824
20.0708
20.0312
20.0695
20.0294
20.0823
20.05
20.0816
20.0488
19.9876
20.1631
19.9848
20.1616
19.9622
20.1096
19.9608
20.1084
20.1665
19.9911
20.1647
19.9892
20.1128
19.9674
20.1111
19.9647
20.0353
20.0741
20.0331
20.0724
20.0532
20.0842
20.0515
20.0831
20.0877
20.0877
20.0862
20.0862
20.0848
20.0848
20.0837
20.0837
20.0741
20.0353
20.0724
20.0331
20.0842
20.0532
20.0831
20.0515
19.9911
20.1665
19.9892
20.1647
19.9674
20.1128
19.9647
20.1111
20.1706
19.996
20.1685
19.9934
20.117
19.973
20.1148
19.9701
20.0401
20.0782
20.0376
20.0761
20.0571
20.087
20.055
20.0855
20.0914
20.0914
20.0895
20.0895
20.0875
20.0875
20.086
20.086
20.0782
20.0401
20.0761
20.0376
20.087
20.0571
20.0855
20.055
19.996
20.1706
19.9934
20.1685
19.973
20.117
19.9701
20.1148
20.1753
20.002
20.1729
19.9989
20.1221
19.9794
20.1195
19.9761
20.0456
20.0829
20.0428
20.0805
20.0617
20.0906
20.0593
20.0887
20.0958
20.0958
20.0935
20.0935
20.0912
20.0912
20.0892
20.0892
20.0829
20.0456
20.0805
20.0428
20.0906
20.0617
20.0887
20.0593
20.0019
20.1753
19.9989
20.1729
19.9794
20.1221
19.9761
20.1195
20.1801
20.0086
20.1777
20.0052
20.1279
19.9866
20.1249
19.9829
20.0517
20.0882
20.0486
20.0855
20.0669
20.095
20.0642
20.0927
20.1009
20.1009
20.0983
20.0983
20.0958
20.0958
20.0934
20.0934
20.0882
20.0517
20.0855
20.0486
20.095
20.0669
20.0927
20.0642
20.0086
20.1801
20.0052
20.1777
19.9866
20.1279
19.9829
20.1249
20.1845
20.016
20.1824
20.0122
20.1342
19.9948
20.1311
19.9905
20.0584
20.094
20.055
20.0911
20.0727
20.1
20.0697
20.0974
20.1067
20.1067
20.1037
20.1037
20.1012
20.1012
20.0984
20.0984
20.094
20.0584
20.0911
20.055
20.1
20.0727
20.0974
20.0697
20.016
20.1845
20.0122
20.1824
19.9948
20.1342
19.9905
20.131
20.187
20.025
20.1862
20.0202
20.14
20.0042
20.1372
19.9994
20.0655
20.1001
20.0619
20.097
20.0788
20.1056
20.0757
20.1027
20.1129
20.1129
20.1097
20.1097
20.1074
20.1074
20.1042
20.1042
20.1001
20.0655
20.097
20.0619
20.1056
20.0788
20.1027
20.0757
20.025
20.187
20.0202
20.1861
20.0042
20.14
19.9994
20.1372
20.1811
20.0405
20.1861
20.031
20.1404
20.0172
20.1417
20.0095
20.0731
20.1064
20.0692
20.1032
20.0853
20.1117
20.0819
20.1085
20.1198
20.1198
20.1163
20.1163
20.1145
20.1145
20.1109
20.1109
20.1064
20.0731
20.1032
20.0692
20.1117
20.0853
20.1085
20.0819
20.0405
20.1811
20.031
20.1861
20.0172
20.1404
20.0095
20.1417
20.1988
20.0349
20.1751
20.0513
20.1568
20.0155
20.1378
20.0263
20.0759
20.1137
20.0767
20.1099
20.09
20.1191
20.0888
20.1152
20.1274
20.1274
20.1236
20.1236
20.1224
20.1224
20.1184
20.1184
20.1137
20.0759
20.1099
20.0767
20.1191
20.09
20.1152
20.0888
20.0349
20.1988
20.0513
20.175
20.0155
20.1568
20.0263
20.1378
20.4496
19.9841
20.3399
20.0055
20.4451
19.9657
20.3386
19.9928
19.9724
20.0361
20.017
20.0653
19.9761
20.0457
20.019
20.0711
20.0762
20.0762
20.0925
20.0925
20.085
20.085
20.0975
20.0975
20.0361
19.9724
20.0653
20.017
20.0457
19.9761
20.0711
20.019
19.9841
20.4496
20.0055
20.3399
19.9657
20.4451
19.9928
20.3386
20.2845
20.0954
20.3354
20.07
20.2919
20.07
20.3398
20.0451
20.0283
20.0415
20.0085
20.0391
20.0249
20.05
20.0082
20.0479
20.0605
20.0605
20.0672
20.0672
20.0721
20.0721
20.0775
20.0775
20.0415
20.0283
20.0391
20.0085
20.05
20.0249
20.0479
20.0082
20.0954
20.2845
20.07
20.3354
20.07
20.2919
20.0451
20.3398
20.2476
20.0998
20.262
20.1005
20.2553
20.0742
20.2698
20.075
20.0465
20.0503
20.04
20.0459
20.0424
20.0591
20.0356
20.0545
20.0607
20.0607
20.0593
20.0593
20.0731
20.0731
20.0714
20.0714
20.0503
20.0465
20.0459
20.04
20.0591
20.0424
20.0545
20.0356
20.0997
20.2476
20.1005
20.2619
20.0742
20.2553
20.075
20.2698
20.2297
20.0943
20.2374
20.0972
20.2368
20.0686
20.2447
20.0715
20.052
20.0575
20.0501
20.0542
20.0487
20.0666
20.0465
20.0632
20.0665
20.0665
20.0634
20.0634
20.0791
20.0791
20.0759
20.0759
20.0575
20.052
20.0542
20.0501
20.0666
20.0487
20.0631
20.0465
20.0943
20.2297
20.0972
20.2374
20.0686
20.2368
20.0715
20.2447
20.2189
20.0885
20.2237
20.0913
20.2255
20.0629
20.2305
20.0657
20.0532
20.0625
20.0529
20.0603
20.0506
20.0719
20.0499
20.0695
20.0726
20.0726
20.0697
20.0697
20.0855
20.0855
20.0824
20.0824
20.0625
20.0532
20.0603
20.0529
20.0719
20.0506
20.0695
20.0499
20.0885
20.2189
20.0913
20.2237
20.0629
20.2255
20.0657
20.2305
20.2115
20.0835
20.2149
20.0859
20.2177
20.0579
20.2213
20.0603
20.0533
20.0657
20.0533
20.0644
20.0508
20.0756
20.0508
20.074
20.0776
20.0776
20.0753
20.0753
20.0908
20.0908
20.0883
20.0883
20.0658
20.0533
20.0644
20.0533
20.0756
20.0508
20.074
20.0508
20.0835
20.2115
20.0859
20.2149
20.0579
20.2177
20.0603
20.2213
20.206
20.0794
20.2085
20.0813
20.2121
20.0536
20.2147
20.0556
20.0527
20.0677
20.053
20.0669
20.0502
20.078
20.0505
20.0769
20.0812
20.0812
20.0796
20.0796
20.0948
20.0948
20.093
20.093
20.0677
20.0527
20.0669
20.053
20.078
20.0502
20.0769
20.0506
20.0794
20.206
20.0813
20.2085
20.0536
20.2121
20.0556
20.2147
20.2017
20.0758
20.2037
20.0775
20.2077
20.05
20.2098
20.0517
20.0518
20.0688
20.0523
20.0684
20.0493
20.0794
20.0498
20.0788
20.0836
20.0836
20.0826
20.0826
20.0976
20.0976
20.0963
20.0963
20.0688
20.0518
20.0684
20.0523
20.0794
20.0493
20.0788
20.0498
20.0758
20.2016
20.0775
20.2037
20.05
20.2076
20.0517
20.2098
20.1981
20.0726
20.1998
20.0741
20.204
20.0468
20.2058
20.0483
20.0507
20.0692
20.0513
20.0691
20.0481
20.08
20.0488
20.0798
20.0851
20.0851
20.0845
20.0845
20.0993
20.0993
20.0985
20.0985
20.0692
20.0506
20.0691
20.0513
20.08
20.0481
20.0798
20.0487
20.0726
20.1981
20.0741
20.1998
20.0468
20.204
20.0483
20.2058
20.195
20.0697
20.1965
20.0711
20.2009
20.0439
20.2024
20.0453
20.0493
20.069
20.05
20.0692
20.0468
20.08
20.0475
20.0801
20.0857
20.0857
20.0855
20.0855
20.1001
20.1001
20.0998
20.0998
20.069
20.0492
20.0692
20.05
20.08
20.0467
20.08
20.0475
20.0697
20.195
20.0711
20.1965
20.0439
20.2009
20.0453
20.2024
20.1921
20.067
20.1936
20.0683
20.198
20.0412
20.1995
20.0425
20.0477
20.0684
20.0485
20.0688
20.0452
20.0794
20.046
20.0798
20.0856
20.0856
20.0857
20.0857
20.1002
20.1002
20.1002
20.1002
20.0684
20.0477
20.0687
20.0485
20.0794
20.0452
20.0798
20.046
20.067
20.1922
20.0683
20.1936
20.0411
20.1981
20.0425
20.1995
20.1895
20.0643
20.1908
20.0656
20.1953
20.0385
20.1966
20.0398
20.0459
20.0673
20.0468
20.0679
20.0434
20.0785
20.0443
20.079
20.085
20.085
20.0854
20.0854
20.0997
20.0997
20.1
20.1
20.0673
20.0459
20.0679
20.0468
20.0785
20.0434
20.079
20.0443
20.0643
20.1895
20.0656
20.1908
20.0385
20.1953
20.0398
20.1967
20.1868
20.0617
20.1882
20.063
20.1926
20.0359
20.1939
20.0372
20.044
20.0659
20.045
20.0666
20.0415
20.0771
20.0425
20.0779
20.084
20.084
20.0846
20.0846
20.0987
20.0987
20.0992
20.0992
20.0659
20.044
20.0666
20.0449
20.0771
20.0414
20.0778
20.0424
20.0617
20.1869
20.063
20.1882
20.0358
20.1927
20.0372
20.194
20.1844
20.059
20.1856
20.0603
20.1902
20.0331
20.1914
20.0345
20.0419
20.0642
20.0429
20.0651
20.0393
20.0754
20.0404
20.0763
20.0826
20.0826
20.0833
20.0833
20.0972
20.0972
20.098
20.098
20.0642
20.0419
20.0651
20.0429
20.0754
20.0394
20.0763
20.0404
20.059
20.1843
20.0603
20.1856
20.0332
20.19
20.0345
20.1914
20.1816
20.0565
20.183
20.0577
20.1875
20.0305
20.1889
20.0318
20.0396
20.0623
20.0407
20.0633
20.037
20.0735
20.0382
20.0745
20.0808
20.0808
20.0817
20.0817
20.0954
20.0954
20.0963
20.0964
20.0623
20.0396
20.0633
20.0407
20.0735
20.037
20.0745
20.0382
20.0564
20.1817
20.0577
20.183
20.0303
20.1877
20.0318
20.1888
20.1794
20.0536