/*--------------------------------*- C++ -*----------------------------------*\
  =========                 |
  \\      /  F ield         | OpenFOAM: The Open Source CFD Toolbox
   \\    /   O peration     | Website:  https://openfoam.org
    \\  /    A nd           | Version:  9
     \\/     M anipulation  |
\*---------------------------------------------------------------------------*/
FoamFile
{
    format      ascii;
    class       surfaceScalarField;
    location    "4.9";
    object      phi;
}
// * * * * * * * * * * * * * * * * * * * * * * * * * * * * * * * * * * * * * //

dimensions      [0 3 -1 0 0 0 0];

internalField   nonuniform List<scalar> 
104044
(
8.63824e-06
-0.000140924
-2.46779e-05
0.000128635
2.83282e-05
-9.14754e-05
2.31056e-05
-2.9647e-06
0.000101286
-2.13129e-05
8.15891e-06
-3.74484e-05
3.34931e-05
2.70822e-05
-2.86493e-06
-2.13727e-05
-7.9111e-06
-0.000170307
0.00015354
-6.96073e-05
3.02464e-06
8.17772e-05
-5.66959e-06
2.19862e-06
-5.60232e-07
-9.74613e-05
-1.94695e-06
9.84194e-05
-1.41561e-06
-0.000100467
-2.12671e-06
-6.93524e-08
9.98888e-05
2.21422e-06
-5.90801e-07
-2.18368e-06
-1.443e-06
-4.34157e-06
-8.00077e-08
2.87472e-06
5.8844e-07
-8.18232e-05
8.23124e-05
-9.32703e-05
7.22813e-08
9.16597e-05
3.05382e-07
1.68851e-08
-6.01726e-13
-0.000101761
-1.564e-06
0.000101072
2.18325e-06
-0.000101761
-1.564e-06
6.93526e-08
0.000101072
2.18325e-06
8.94549e-14
-4.345e-06
3.36995e-06
-4.34501e-06
8.00074e-08
3.36996e-06
-9.17385e-13
-9.72465e-05
9.57547e-05
-9.72465e-05
-7.22792e-08
9.57548e-05
-1.85311e-13
-1.68833e-08
5.60232e-07
-0.000100467
-2.12673e-06
9.98888e-05
2.21424e-06
-9.74613e-05
-1.94704e-06
2.9647e-06
9.84194e-05
-1.41549e-06
5.90798e-07
-4.34159e-06
2.87475e-06
-2.18378e-06
2.86493e-06
-1.44289e-06
-5.88425e-07
-9.32704e-05
9.16598e-05
-8.18234e-05
-3.02459e-06
8.23125e-05
-3.05368e-07
-2.19858e-06
-8.63812e-06
-9.14753e-05
2.31051e-05
0.000101285
-2.13125e-05
-0.000140924
-2.46776e-05
0.000128636
2.83279e-05
-8.15876e-06
2.70818e-05
-2.13725e-05
-3.74477e-05
3.34927e-05
7.91088e-06
-6.96075e-05
8.17772e-05
-0.000170307
0.00015354
5.66941e-06
1.59301e-06
-0.000122056
-2.43635e-05
0.000118255
2.65719e-05
-0.000104901
2.46945e-05
-1.61833e-06
0.000106292
-2.28742e-05
3.92849e-06
-2.42193e-05
2.687e-05
2.43492e-05
-1.75311e-06
-2.22834e-05
-1.44457e-05
-0.00014089
0.000130972
-9.0621e-05
4.34123e-06
9.65285e-05
-1.15695e-05
3.93593e-06
2.96244e-07
-9.97331e-05
3.82286e-07
0.000101054
-3.61773e-06
-9.9861e-05
-7.99982e-07
2.21077e-07
0.000100232
5.04485e-07
-3.85083e-08
-2.79632e-07
-2.74866e-06
-1.27858e-06
7.22217e-08
1.19567e-06
1.37074e-06
-8.49643e-05
8.83171e-05
-9.11878e-05
3.14524e-07
9.1444e-05
1.00436e-06
1.97734e-07
2.95064e-12
-0.000100712
-8.01889e-07
0.000100641
1.09352e-06
-0.000100712
-8.01893e-07
-2.21064e-07
0.000100641
1.09352e-06
1.51141e-12
-1.02585e-06
1.4582e-06
-1.02586e-06
-7.22125e-08
1.4582e-06
-4.72238e-12
-9.49266e-05
9.44393e-05
-9.49266e-05
-3.14534e-07
9.44393e-05
-2.7765e-13
-1.97727e-07
-2.96226e-07
-9.9861e-05
-7.99991e-07
0.000100232
5.04495e-07
-9.97331e-05
3.82233e-07
1.61832e-06
0.000101054
-3.61765e-06
3.85199e-08
-1.27859e-06
1.19569e-06
-2.79708e-07
1.75311e-06
-2.74856e-06
-1.37072e-06
-9.11878e-05
9.1444e-05
-8.49644e-05
-4.34119e-06
8.83171e-05
-1.00433e-06
-3.93588e-06
-1.59299e-06
-0.000104901
2.46941e-05
0.000106292
-2.2874e-05
-0.000122056
-2.43633e-05
0.000118255
2.65717e-05
-3.92844e-06
2.43489e-05
-2.22831e-05
-2.4219e-05
2.68698e-05
1.44454e-05
-9.06209e-05
9.65284e-05
-0.000140891
0.000130973
1.15693e-05
-5.76774e-07
-0.000115622
-2.22648e-05
0.000113721
2.47421e-05
-0.000106941
2.35332e-05
-2.01021e-06
0.000107267
-2.24255e-05
2.69503e-07
-2.30144e-05
2.53782e-05
2.3846e-05
-1.76635e-06
-2.24589e-05
-1.72934e-05
-0.000123994
0.000119023
-0.000100027
4.19606e-06
0.000102071
-1.60363e-05
4.31133e-06
6.3895e-07
-0.000102183
2.77531e-07
0.000103117
-3.86086e-06
-0.000100795
-3.74736e-07
5.06522e-07
0.000101433
-1.30525e-07
5.0234e-07
4.12941e-07
-3.81087e-06
-4.89279e-07
3.71849e-07
5.62663e-08
1.86485e-06
-9.14078e-05
9.40166e-05
-9.21711e-05
5.15295e-07
9.31459e-05
1.63357e-06
4.17226e-07
2.85896e-11
-0.0001008
-3.90785e-07
0.000101132
5.64472e-07
-0.0001008
-3.90829e-07
-5.06448e-07
0.000101132
5.64467e-07
7.13432e-12
-5.79465e-07
7.93226e-07
-5.79474e-07
-3.71825e-07
7.93223e-07
-9.41348e-11
-9.4277e-05
9.44016e-05
-9.4277e-05
-5.15488e-07
9.44016e-05
-2.07292e-11
-4.17261e-07
-6.3885e-07
-0.000100795
-3.7486e-07
0.000101433
-1.30531e-07
-0.000102183
2.76994e-07
2.01013e-06
0.000103118
-3.86083e-06
-5.02317e-07
-4.89297e-07
5.62693e-08
4.1287e-07
1.76634e-06
-3.8108e-06
-1.865e-06
-9.2171e-05
9.31457e-05
-9.14077e-05
-4.19601e-06
9.40157e-05
-1.63357e-06
-4.31131e-06
5.76738e-07
-0.000106941
2.35327e-05
0.000107267
-2.24253e-05
-0.000115622
-2.22648e-05
0.000113721
2.47419e-05
-2.69489e-07
2.38456e-05
-2.24586e-05
-2.30142e-05
2.53779e-05
1.72932e-05
-0.000100027
0.00010207
-0.000123995
0.000119023
1.6036e-05
-1.50104e-06
-0.000112366
-2.0949e-05
0.000111385
2.34316e-05
-0.00010744
2.27863e-05
-2.42231e-06
0.000107544
-2.19699e-05
-1.12238e-06
-2.12867e-05
2.37641e-05
2.28588e-05
-2.20482e-06
-2.1949e-05
-1.8376e-05
-0.000115521
0.000112948
-0.0001032
3.77123e-06
0.000103839
-1.77853e-05
3.94421e-06
6.78906e-07
-0.000103872
-1.31308e-08
0.000104513
-3.7294e-06
-0.000102082
-3.8751e-07
6.64074e-07
0.00010273
-2.45305e-07
6.82025e-07
1.21513e-07
-3.76293e-06
-3.55064e-07
5.95176e-07
-2.07312e-07
2.12681e-06
-9.60825e-05
9.77138e-05
-9.42048e-05
6.52544e-07
9.52915e-05
1.9998e-06
5.85852e-07
-1.82693e-11
-0.000101582
-1.13965e-07
0.00010211
2.49985e-07
-0.000101582
-1.13956e-07
-6.63961e-07
0.000102109
2.49988e-07
1.55549e-10
-2.30416e-07
3.76137e-07
-2.30601e-07
-5.94603e-07
3.76121e-07
-2.68692e-11
-9.47574e-05
9.5296e-05
-9.47575e-05
-6.52743e-07
9.52962e-05
-3.55314e-10
-5.86847e-07
-6.78733e-07
-0.000102082
-3.87613e-07
0.00010273
-2.45325e-07
-0.000103871
-1.34729e-08
2.4222e-06
0.000104513
-3.72941e-06
-6.80138e-07
-3.5585e-07
-2.07573e-07
1.27565e-07
2.2029e-06
-3.76379e-06
-2.12702e-06
-9.42049e-05
9.52916e-05
-9.60832e-05
-3.77113e-06
9.77138e-05
-2.00196e-06
-3.94192e-06
1.50099e-06
-0.000107439
2.27859e-05
0.000107544
-2.19697e-05
-0.000112366
-2.09489e-05
0.000111385
2.34314e-05
1.12186e-06
2.28577e-05
-2.19489e-05
-2.12869e-05
2.37639e-05
1.83759e-05
-0.0001032
0.000103839
-0.000115522
0.000112949
1.77858e-05
-1.91264e-06
-0.000110682
-2.01088e-05
0.000110188
2.25151e-05
-0.000107633
2.23222e-05
-2.71273e-06
0.000107729
-2.16181e-05
-1.72921e-06
-2.02749e-05
2.27069e-05
2.22963e-05
-2.55531e-06
-2.15585e-05
-1.87111e-05
-0.000111091
0.000109693
-0.000104177
3.40352e-06
0.000104385
-1.84175e-05
3.54059e-06
6.06902e-07
-0.000105055
-2.0942e-07
0.000105543
-3.59854e-06
-0.000103358
-4.68015e-07
7.15533e-07
0.000103974
-2.55923e-07
6.43075e-07
-1.15177e-07
-3.62489e-06
-4.25435e-07
6.92956e-07
-2.53196e-07
2.21854e-06
-9.89604e-05
9.99359e-05
-9.63559e-05
7.23067e-07
9.73833e-05
2.1788e-06
6.89015e-07
-5.64104e-11
-0.000102681
1.70724e-08
0.000103281
9.84902e-08
-0.000102681
1.71369e-08
-7.15521e-07
0.000103281
9.8495e-08
-7.13619e-10
-3.63563e-08
1.58662e-07
-3.89551e-08
-6.92439e-07
1.58907e-07
4.33076e-11
-9.59479e-05
9.6688e-05
-9.59477e-05
-7.23104e-07
9.6688e-05
7.66852e-10
-6.89651e-07
-6.0689e-07
-0.000103358
-4.67971e-07
0.000103974
-2.55931e-07
-0.000105055
-2.09423e-07
2.71273e-06
0.000105543
-3.59851e-06
-6.42932e-07
-4.25219e-07
-2.53137e-07
-1.15152e-07
2.55532e-06
-3.62486e-06
-2.21856e-06
-9.63557e-05
9.73832e-05
-9.89603e-05
-3.40352e-06
9.99358e-05
-2.17903e-06
-3.54066e-06
1.91269e-06
-0.000107633
2.23219e-05
0.000107729
-2.1618e-05
-0.000110682
-2.01086e-05
0.000110188
2.25149e-05
1.72925e-06
2.22961e-05
-2.15584e-05
-2.02747e-05
2.27067e-05
1.87109e-05
-0.000104177
0.000104385
-0.000111091
0.000109694
1.84173e-05
-2.1015e-06
-0.000109854
-1.94746e-05
0.000109652
2.17783e-05
-0.000107851
2.19517e-05
-2.891e-06
0.000108
-2.13117e-05
-2.00525e-06
-1.95642e-05
2.1904e-05
2.19002e-05
-2.78422e-06
-2.12432e-05
-1.87086e-05
-0.00010868
0.000107914
-0.000104517
3.11545e-06
0.000104644
-1.85508e-05
3.21776e-06
5.07442e-07
-0.00010599
-3.09331e-07
0.000106416
-3.51494e-06
-0.000104562
-5.13359e-07
7.03607e-07
0.000105135
-2.56739e-07
5.52193e-07
-2.7034e-07
-3.5129e-06
-4.915e-07
7.07725e-07
-2.51865e-07
2.11863e-06
-0.000100729
0.000101416
-9.83201e-05
7.31353e-07
9.9194e-05
2.15446e-06
7.26144e-07
1.77365e-11
-0.000103882
7.32561e-08
0.00010449
2.21152e-08
-0.000103882
7.32619e-08
-7.03602e-07
0.00010449
2.21123e-08
-1.54274e-11
5.17314e-08
5.48298e-08
5.17389e-08
-7.0775e-07
5.48243e-08
4.01358e-11
-9.74659e-05
9.82704e-05
-9.74659e-05
-7.31306e-07
9.82704e-05
-1.17662e-11
-7.26179e-07
-5.07494e-07
-0.000104562
-5.13358e-07
0.000105136
-2.56745e-07
-0.00010599
-3.09377e-07
2.89088e-06
0.000106416
-3.5149e-06
-5.52221e-07
-4.91494e-07
-2.51871e-07
-2.70367e-07
2.78419e-06
-3.51286e-06
-2.11871e-06
-9.83201e-05
9.91941e-05
-0.000100729
-3.1158e-06
0.000101417
-2.15451e-06
-3.21783e-06
2.10147e-06
-0.000107851
2.19513e-05
0.000108
-2.13115e-05
-0.000109854
-1.94744e-05
0.000109652
2.17781e-05
2.00531e-06
2.19e-05
-2.1243e-05
-1.95639e-05
2.19038e-05
1.8708e-05
-0.000104516
0.000104644
-0.00010868
0.000107914
1.85506e-05
-2.18486e-06
-0.000109549
-1.89187e-05
0.000109539
2.11127e-05
-0.000108184
2.15907e-05
-2.98899e-06
0.000108402
-2.10043e-05
-2.13155e-06
-1.89919e-05
2.12264e-05
2.15504e-05
-2.9182e-06
-2.09479e-05
-1.85323e-05
-0.000107382
0.000106995
-0.000104767
2.89541e-06
0.00010493
-1.84597e-05
2.96765e-06
4.14835e-07
-0.000106831
-3.40611e-07
0.000107247
-3.47907e-06
-0.00010569
-5.21564e-07
6.63782e-07
0.00010624
-2.77304e-07
4.54913e-07
-3.30322e-07
-3.45786e-06
-5.16483e-07
6.78241e-07
-2.61278e-07
1.9929e-06
-0.000102018
0.00010258
-9.99995e-05
7.04862e-07
0.000100766
2.03581e-06
7.13795e-07
9.18165e-11
-0.000105091
9.13629e-08
0.000105693
-2.94979e-08
-0.000105091
9.14136e-08
-6.6351e-07
0.000105693
-2.95108e-08
7.33225e-11
8.40222e-08
-6.74463e-09
8.4036e-08
-6.78112e-07
-6.73419e-09
1.97908e-10
-9.9068e-05
9.98641e-05
-9.90681e-05
-7.04294e-07
9.98639e-05
1.63276e-10
-7.13477e-07
-4.14524e-07
-0.00010569
-5.21402e-07
0.00010624
-2.77359e-07
-0.000106831
-3.40395e-07
2.98937e-06
0.000107247
-3.479e-06
-4.54877e-07
-5.1642e-07
-2.61305e-07
-3.30372e-07
2.91805e-06
-3.4578e-06
-1.99146e-06
-9.99997e-05
0.000100765
-0.000102019
-2.89222e-06
0.000102579
-2.03551e-06
-2.96789e-06
2.18444e-06
-0.000108185
2.15896e-05
0.000108402
-2.10019e-05
-0.000109549
-1.89156e-05
0.00010954
2.11093e-05
2.13112e-06
2.15489e-05
-2.09466e-05
-1.89914e-05
2.1225e-05
1.85371e-05
-0.000104769
0.00010493
-0.000107378
0.000107
1.84555e-05
-2.21378e-06
-0.000109599
-1.84008e-05
0.000109731
2.04821e-05
-0.000108656
2.1228e-05
-3.03375e-06
0.000108944
-2.06959e-05
-2.18243e-06
-1.84593e-05
2.05824e-05
2.11865e-05
-2.98528e-06
-2.0638e-05
-1.8271e-05
-0.000106763
0.000106633
-0.000105114
2.72199e-06
0.000105349
-1.82267e-05
2.77601e-06
3.38157e-07
-0.000107668
-3.28598e-07
0.000108101
-3.47666e-06
-0.00010678
-5.03347e-07
6.17494e-07
0.000107326
-3.21348e-07
3.70874e-07
-3.37914e-07
-3.43953e-06
-5.10453e-07
6.34119e-07
-2.93412e-07
1.87295e-06
-0.000103106
0.000103626
-0.000101489
6.64356e-07
0.000102195
1.91222e-06
6.78519e-07
-8.2767e-12
-0.000106286
1.0566e-07
0.000106884
-8.62937e-08
-0.000106286
1.05583e-07
-6.17553e-07
0.000106884
-8.62303e-08
1.021e-11
9.66132e-08
-5.55756e-08
9.65636e-08
-6.34102e-07
-5.55554e-08
-4.73325e-11
-0.000100639
0.000101409
-0.000100639
-6.64472e-07
0.000101409
-1.45347e-10
-6.78836e-07
-3.38186e-07
-0.00010678
-5.03582e-07
0.000107326
-3.21167e-07
-0.000107668
-3.29157e-07
3.0339e-06
0.000108101
-3.47634e-06
-3.70797e-07
-5.10589e-07
-2.93298e-07
-3.38195e-07
2.98549e-06
-3.43929e-06
-1.87313e-06
-0.000101489
0.000102194
-0.000103104
-2.72206e-06
0.000103624
-1.91259e-06
-2.77634e-06
2.21406e-06
-0.000108657
2.12269e-05
0.000108945
-2.06953e-05
-0.000109599
-1.83991e-05
0.000109732
2.04805e-05
2.18253e-06
2.11893e-05
-2.06406e-05
-1.84607e-05
2.0584e-05
1.82701e-05
-0.000105113
0.000105348
-0.000106769
0.00010664
1.82298e-05
-2.21269e-06
-0.000109916
-1.79132e-05
0.00011016
1.98818e-05
-0.000109268
2.0867e-05
-3.04137e-06
0.000109624
-2.03948e-05
-2.1927e-06
-1.79582e-05
1.99662e-05
2.08194e-05
-3.0081e-06
-2.03274e-05
-1.79687e-05
-0.000106606
0.000106661
-0.000105615
2.58186e-06
0.000105932
-1.79313e-05
2.6221e-06
2.77376e-07
-0.000108549
-2.86556e-07
0.000109014
-3.49736e-06
-0.00010787
-4.66311e-07
5.73708e-07
0.000108426
-3.86088e-07
3.02944e-07
-3.09544e-07
-3.44861e-06
-4.81969e-07
5.88624e-07
-3.47736e-07
1.76855e-06
-0.000104139
0.000104665
-0.000102876
6.22012e-07
0.000103557
1.80012e-06
6.36403e-07
-1.16575e-10
-0.000107478
1.28466e-07
0.000108081
-1.57826e-07
-0.000107478
1.28346e-07
-5.74014e-07
0.000108081
-1.57733e-07
-4.52162e-11
1.14528e-07
-1.19013e-07
1.14438e-07
-5.88752e-07
-1.18905e-07
-3.17246e-10
-0.00010216
0.000102911
-0.00010216
-6.23014e-07
0.000102911
8.09089e-11
-6.36428e-07
-2.77847e-07
-0.00010787
-4.66826e-07
0.000108426
-3.85738e-07
-0.000108549
-2.87672e-07
3.04102e-06
0.000109015
-3.49704e-06
-3.03186e-07
-4.82353e-07
-3.4748e-07
-3.10242e-07
3.00795e-06
-3.44843e-06
-1.77085e-06
-0.000102876
0.000103557
-0.000104137
-2.58604e-06
0.000104664
-1.80079e-06
-2.62345e-06
2.21396e-06
-0.000109269
2.0871e-05
0.000109626
-2.04009e-05
-0.000109916
-1.79185e-05
0.00011016
1.98877e-05
2.19347e-06
2.08175e-05
-2.03274e-05
-1.79563e-05
1.99659e-05
1.79672e-05
-0.000105614
0.000105932
-0.000106611
0.00010666
1.79277e-05
-2.1963e-06
-0.000110448
-1.74346e-05
0.00011079
1.92881e-05
-0.000110012
2.04919e-05
-3.02007e-06
0.000110432
-2.00888e-05
-2.18294e-06
-1.7487e-05
1.93821e-05
2.04642e-05
-3.00148e-06
-2.00331e-05
-1.7615e-05
-0.000106788
0.000106968
-0.000106282
2.47305e-06
0.000106686
-1.76133e-05
2.50064e-06
2.31332e-07
-0.000109497
-2.30872e-07
0.000110002
-3.52596e-06
-0.000108987
-4.18333e-07
5.35975e-07
0.000109565
-4.64391e-07
2.50375e-07
-2.59862e-07
-3.47487e-06
-4.3925e-07
5.48205e-07
-4.19523e-07
1.68426e-06
-0.000105199
0.000105757
-0.000104228
5.85118e-07
0.000104909
1.70745e-06
5.96922e-07
1.49093e-10
-0.000108684
1.60212e-07
0.000109301
-2.41859e-07
-0.000108684
1.60347e-07
-5.35613e-07
0.000109301
-2.41946e-07
-5.42799e-11
1.41707e-07
-1.96567e-07
1.41693e-07
-5.48335e-07
-1.96569e-07
1.61145e-10
-0.00010365
0.000104395
-0.00010365
-5.84563e-07
0.000104396
-4.32156e-10
-5.97826e-07
-2.30703e-07
-0.000108987
-4.17993e-07
0.000109565
-4.64758e-07
-0.000109498
-2.30688e-07
3.02167e-06
0.000110003
-3.52706e-06
-2.50464e-07
-4.39376e-07
-4.19473e-07
-2.60028e-07
3.00169e-06
-3.47538e-06
-1.68337e-06
-0.000104228
0.000104909
-0.000105197
-2.47252e-06
0.000105755
-1.7089e-06
-2.50182e-06
2.19392e-06
-0.000110014
2.04984e-05
0.000110437
-2.00938e-05
-0.000110445
-1.74392e-05
0.000110785
1.92938e-05
2.18393e-06
2.0473e-05
-2.00436e-05
-1.74933e-05
1.93924e-05
1.7623e-05
-0.000106274
0.000106677
-0.000106796
0.000106979
1.76291e-05
-2.16922e-06
-0.000111164
-1.69522e-05
0.000111583
1.87028e-05
-0.000110881
2.01126e-05
-2.98256e-06
0.000111364
-1.97828e-05
-2.16416e-06
-1.70195e-05
1.88097e-05
2.00985e-05
-2.97056e-06
-1.97408e-05
-1.72607e-05
-0.000107221
0.00010753
-0.000107111
2.37372e-06
0.00010759
-1.72729e-05
2.39985e-06
1.94922e-07
-0.000110528
-1.66038e-07
0.000111076
-3.55995e-06
-0.000110152
-3.6423e-07
5.03746e-07
0.000110758
-5.50655e-07
2.10498e-07
-1.98513e-07
-3.50803e-06
-3.88081e-07
5.13999e-07
-5.01928e-07
1.61188e-06
-0.000106326
0.000106922
-0.000105589
5.5208e-07
0.000106285
1.63161e-06
5.63004e-07
7.08602e-11
-0.000109922
1.99e-07
0.000110561
-3.33549e-07
-0.000109922
1.991e-07
-5.03742e-07
0.000110561
-3.33541e-07
2.8656e-10
1.77073e-07
-2.84337e-07
1.77318e-07
-5.1333e-07
-2.84447e-07
5.00225e-10
-0.000105135
0.000105886
-0.000105135
-5.5094e-07
0.000105885
7.74762e-10
-5.60842e-07
-1.95068e-07
-0.000110151
-3.63886e-07
0.000110757
-5.50689e-07
-0.000110527
-1.67047e-07
2.98409e-06
0.000111075
-3.56038e-06
-2.09345e-07
-3.87369e-07
-5.02411e-07
-1.98855e-07
2.97413e-06
-3.50846e-06
-1.61024e-06
-0.000105588
0.000106284
-0.000106323
-2.37241e-06
0.000106918
-1.62708e-06
-2.39359e-06
2.16537e-06
-0.000110886
2.01192e-05
0.00011137
-1.97843e-05
-0.00011116
-1.69574e-05
0.000111577
1.87052e-05
2.15808e-06
2.00983e-05
-1.97313e-05
-1.70176e-05
1.88004e-05
1.72727e-05
-0.000107106
0.00010758
-0.000107237
0.000107552
1.72749e-05
-2.12571e-06
-0.000112013
-1.64707e-05
0.000112486
1.8123e-05
-0.000111887
1.97241e-05
-2.9332e-06
0.000112437
-1.94659e-05
-2.12763e-06
-1.65181e-05
1.82158e-05
1.9698e-05
-2.92912e-06
-1.94194e-05
-1.69101e-05
-0.000107931
0.000108371
-0.000108065
2.28693e-06
0.000108593
-1.69193e-05
2.30291e-06
1.67125e-07
-0.000111644
-9.99395e-08
0.000112232
-3.58815e-06
-0.000111373
-3.0825e-07
4.76868e-07
0.000112009
-6.37474e-07
1.77965e-07
-1.36292e-07
-3.53859e-06
-3.33463e-07
4.84499e-07
-5.88418e-07
1.55084e-06
-0.000107524
0.000108161
-0.000106984
5.23616e-07
0.000107703
1.56425e-06
5.31948e-07
-2.95409e-10
-0.000111205
2.41262e-07
0.000111867
-4.26772e-07
-0.000111205
2.4122e-07
-4.77554e-07
0.000111867
-4.26613e-07
-1.62416e-10
2.17549e-07
-3.76637e-07
2.17613e-07
-4.85101e-07
-3.76533e-07
-3.04189e-10
-0.000106635
0.0001074
-0.000106635
-5.24503e-07
0.0001074
5.45612e-11
-5.31966e-07
-1.68249e-07
-0.000111373
-3.08509e-07
0.000112009
-6.37001e-07
-0.000111644
-1.01494e-07
2.934e-06
0.000112232
-3.58856e-06
-1.79422e-07
-3.33325e-07
-5.88213e-07
-1.36698e-07
2.92838e-06
-3.53988e-06
-1.55266e-06
-0.000106983
0.000107703
-0.000107526
-2.2929e-06
0.000108164
-1.56527e-06
-2.30971e-06
2.13511e-06
-0.000111887
1.97305e-05
0.000112431
-1.94759e-05
-0.000112016
-1.64775e-05
0.000112495
1.81334e-05
2.12922e-06
1.97127e-05
-1.94309e-05
-1.65407e-05
1.82312e-05
1.69054e-05
-0.000108073
0.000108605
-0.000107922
0.000108349
1.69103e-05
-2.08973e-06
-0.000112996
-1.60704e-05
0.000113545
1.76115e-05
-0.000112994
1.93914e-05
-2.88028e-06
0.000113576
-1.91827e-05
-2.08635e-06
-1.61024e-05
1.7679e-05
1.93573e-05
-2.87633e-06
-1.91244e-05
-1.65475e-05
-0.000108827
0.000109305
-0.000109158
2.22752e-06
0.000109774
-1.65593e-05
2.23295e-06
1.50129e-07
-0.000112837
-4.1683e-08
0.000113463
-3.61474e-06
-0.000112654
-2.49427e-07
4.55772e-07
0.000113319
-7.21559e-07
1.56431e-07
-7.20709e-08
-3.56583e-06
-2.76181e-07
4.60862e-07
-6.73424e-07
1.49959e-06
-0.000108813
0.000109499
-0.000108428
5.01385e-07
0.000109177
1.5085e-06
5.06602e-07
6.27851e-12
-0.000112536
2.85499e-07
0.000113223
-5.16926e-07
-0.000112536
2.85503e-07
-4.55707e-07
0.000113223
-5.16855e-07
-2.18103e-10
2.60654e-07
-4.67939e-07
2.60517e-07
-4.61339e-07
-4.67781e-07
3.4974e-10
-0.000108168
0.000108954
-0.000108168
-5.00461e-07
0.000108954
-3.34376e-10
-5.0757e-07
-1.49897e-07
-0.000112654
-2.49505e-07
0.00011332
-7.2145e-07
-0.000112837
-4.27427e-08
2.88202e-06
0.000113463
-3.61478e-06
-1.56859e-07
-2.7675e-07
-6.72915e-07
-7.42538e-08
2.87803e-06
-3.56567e-06
-1.49755e-06
-0.000108429
0.000109177
-0.000108816
-2.22414e-06
0.0001095
-1.51035e-06
-2.23588e-06
2.09124e-06
-0.000112989
1.93927e-05
0.000113567
-1.91804e-05
-0.000113001
-1.60706e-05
0.000113554
1.76087e-05
2.09349e-06
1.93618e-05
-1.91346e-05
-1.61002e-05
1.76872e-05
1.65495e-05
-0.00010916
0.000109779
-0.00010882
0.000109299
1.65712e-05
-2.04845e-06
-0.000114097
-1.5624e-05
0.000114682
1.70868e-05
-0.000114182
1.89959e-05
-2.81794e-06
0.000114805
-1.88495e-05
-2.04463e-06
-1.56698e-05
1.71629e-05
1.89844e-05
-2.81851e-06
-1.88167e-05
-1.61829e-05
-0.00010984
0.000110399
-0.000110387
2.15778e-06
0.000111042
-1.6205e-05
2.16678e-06
1.37737e-07
-0.000114103
9.92137e-09
0.00011476
-3.62245e-06
-0.000113991
-1.94995e-07
4.37391e-07
0.000114679
-7.9284e-07
1.41963e-07
-1.6186e-08
-3.58431e-06
-2.18977e-07
4.41409e-07
-7.51921e-07
1.4485e-06
-0.000110192
0.000110911
-0.000109931
4.80026e-07
0.000110704
1.45771e-06
4.85266e-07
2.98278e-10
-0.000113913
3.25982e-07
0.000114619
-5.94841e-07
-0.000113913
3.26132e-07
-4.36788e-07
0.000114619
-5.94948e-07
2.12158e-10
3.03435e-07
-5.52471e-07
3.0351e-07
-4.40971e-07
-5.52493e-07
5.46132e-10
-0.000109743
0.000110548
-0.000109743
-4.7876e-07
0.000110548
5.03724e-10
-4.84082e-07
-1.36537e-07
-0.000113991
-1.94802e-07
0.000114679
-7.93408e-07
-0.000114102
9.65561e-09
2.81994e-06
0.000114759
-3.62317e-06
-1.41137e-07
-2.18952e-07
-7.52169e-07
-1.66801e-08
2.82081e-06
-3.58495e-06
-1.44747e-06
-0.00010993
0.000110704
-0.000110192
-2.15706e-06
0.000110911
-1.45647e-06
-2.1653e-06
2.03961e-06
-0.000114174
1.89847e-05
0.000114807
-1.8837e-05
-0.000114103
-1.56091e-05
0.000114677
1.70745e-05
2.04547e-06
1.89801e-05
-1.88121e-05
-1.5661e-05
1.71579e-05
1.61794e-05
-0.000110388
0.000111036
-0.000109844
0.000110414
1.62054e-05
-2.00434e-06
-0.000115276
-1.52258e-05
0.000115894
1.66123e-05
-0.000115432
1.86337e-05
-2.75652e-06
0.000116071
-1.852e-05
-2.00723e-06
-1.52619e-05
1.66753e-05
1.86193e-05
-2.75634e-06
-1.84973e-05
-1.58313e-05
-0.000110978
0.000111583
-0.000111709
2.10293e-06
0.000112409
-1.58409e-05
2.11092e-06
1.28347e-07
-0.000115423
5.27873e-08
0.000116095
-3.61001e-06
-0.000115369
-1.50951e-07
4.21582e-07
0.000116069
-8.43212e-07
1.31705e-07
3.1266e-08
-3.58244e-06
-1.70095e-07
4.24636e-07
-8.12568e-07
1.40591e-06
-0.00011164
0.00011239
-0.000111481
4.62053e-07
0.000112274
1.41308e-06
4.66095e-07
-1.52964e-10
-0.000115324
3.57587e-07
0.00011604
-6.5214e-07
-0.000115324
3.57768e-07
-4.2206e-07
0.000116041
-6.52271e-07
1.27044e-10
3.3944e-07
-6.20084e-07
3.39674e-07
-4.24445e-07
-6.20235e-07
-2.00372e-10
-0.000111353
0.000112173
-0.000111353
-4.62518e-07
0.000112173
2.93383e-10
-4.65258e-07
-1.29333e-07
-0.000115369
-1.50514e-07
0.00011607
-8.4345e-07
-0.000115423
5.2384e-08
2.75501e-06
0.000116096
-3.6097e-06
-1.31419e-07
-1.69658e-07
-8.13061e-07
3.02708e-08
2.75656e-06
-3.5819e-06
-1.4069e-06
-0.000111481
0.000112275
-0.00011164
-2.1072e-06
0.000112393
-1.41182e-06
-2.11106e-06
2.00413e-06
-0.00011544
1.86333e-05
0.000116077
-1.85189e-05
-0.000115269
-1.5233e-05
0.000115892
1.66142e-05
1.99952e-06
1.86015e-05
-1.84777e-05
-1.52506e-05
1.66579e-05
1.58166e-05
-0.000111708
0.000112417
-0.000110982
0.000111566
1.58186e-05
-1.95786e-06
-0.000116495
-1.48048e-05
0.00011711
1.61485e-05
-0.000116723
1.82022e-05
-2.68793e-06
0.000117382
-1.81318e-05
-1.96141e-06
-1.48442e-05
1.62046e-05
1.82183e-05
-2.69276e-06
-1.81389e-05
-1.54362e-05
-0.000112221
0.000112852
-0.000113091
2.05329e-06
0.000113804
-1.54815e-05
2.05437e-06
1.23358e-07
-0.000116769
7.54291e-08
0.000117446
-3.56373e-06
-0.000116765
-1.19996e-07
4.08248e-07
0.000117466
-8.65147e-07
1.24204e-07
6.38493e-08
-3.55469e-06
-1.32391e-07
4.10162e-07
-8.49629e-07
1.36723e-06
-0.000113136
0.000113898
-0.000113064
4.47173e-07
0.000113864
1.37191e-06
4.49657e-07
-6.38948e-11
-0.00011675
3.76193e-07
0.000117463
-6.81169e-07
-0.00011675
3.76289e-07
-4.08348e-07
0.000117463
-6.81235e-07
-1.48809e-10
3.64944e-07
-6.6397e-07
3.6507e-07
-4.10539e-07
-6.64049e-07
-4.04056e-11
-0.000112988
0.000113811
-0.000112988
-4.47017e-07
0.000113811
-1.62261e-10
-4.49922e-07
-1.23603e-07
-0.000116766
-1.1963e-07
0.000117466
-8.65223e-07
-0.00011677
7.61238e-08
2.68796e-06
0.000117446
-3.56393e-06
-1.24988e-07
-1.32038e-07
-8.49692e-07
6.39128e-08
2.69162e-06
-3.55441e-06
-1.36604e-06
-0.000113065
0.000113864
-0.000113139
-2.04933e-06
0.000113899
-1.37204e-06
-2.05453e-06
1.96251e-06
-0.000116725
1.82084e-05
0.00011738
-1.81381e-05
-0.000116496
-1.4806e-05
0.000117111
1.61533e-05
1.96253e-06
1.82248e-05
-1.81438e-05
-1.48516e-05
1.62101e-05
1.54543e-05
-0.000113099
0.000113803
-0.000112203
0.000112852
1.54891e-05
-1.91084e-06
-0.000117716
-1.44523e-05
0.00011833
1.57497e-05
-0.000118029
1.78062e-05
-2.61942e-06
0.000118662
-1.773e-05
-1.91396e-06
-1.44688e-05
1.57759e-05
1.78122e-05
-2.62542e-06
-1.77476e-05
-1.50789e-05
-0.000113478
0.000114104
-0.000114512
2.00432e-06
0.000115235
-1.50945e-05
2.00902e-06
1.21781e-07
-0.000118114
8.42837e-08
0.000118772
-3.48413e-06
-0.000118153
-1.05161e-07
3.96837e-07
0.000118835
-8.51528e-07
1.21161e-07
7.91281e-08
-3.4934e-06
-1.09446e-07
3.98128e-07
-8.54803e-07
1.32926e-06
-0.000114652
0.000115411
-0.000114653
4.33355e-07
0.000115444
1.33448e-06
4.35616e-07
-6.50564e-11
-0.000118162
3.78043e-07
0.000118855
-6.74385e-07
-0.000118162
3.78085e-07
-3.96933e-07
0.000118855
-6.74456e-07
-9.21657e-11
3.75661e-07
-6.7609e-07
3.75701e-07
-3.98316e-07
-6.76163e-07
-6.06287e-11
-0.000114623
0.000115434
-0.000114623
-4.3362e-07
0.000115435
-1.50097e-10
-4.36096e-07
-1.22339e-07
-0.000118153
-1.04912e-07
0.000118835
-8.51521e-07
-0.000118113
8.42974e-08
2.61789e-06
0.000118772
-3.4837e-06
-1.21582e-07
-1.09185e-07
-8.54868e-07
8.02201e-08
2.62511e-06
-3.49395e-06
-1.32991e-06
-0.000114654
0.000115446
-0.000114654
-2.00712e-06
0.000115415
-1.33532e-06
-2.0099e-06
1.91329e-06
-0.000118021
1.78092e-05
0.00011865
-1.77342e-05
-0.000117721
-1.44605e-05
0.000118339
1.57553e-05
1.91929e-06
1.78265e-05
-1.77613e-05
-1.44795e-05
1.57894e-05
1.50705e-05
-0.00011451
0.000115241
-0.000113482
0.000114092
1.51102e-05
-1.86779e-06
-0.000118912
-1.41143e-05
0.000119487
1.54071e-05
-0.000119279
1.73674e-05
-2.54438e-06
0.000119876
-1.72874e-05
-1.86803e-06
-1.41268e-05
1.54122e-05
1.74022e-05
-2.55397e-06
-1.73335e-05
-1.47094e-05
-0.000114724
0.000115319
-0.000115929
1.95958e-06
0.000116628
-1.47466e-05
1.96185e-06
1.23795e-07
-0.000119413
6.85353e-08
0.000120034
-3.35854e-06
-0.000119493
-1.11267e-07
3.86802e-07
0.000120135
-7.93496e-07
1.21338e-07
7.80333e-08
-3.39353e-06
-1.04288e-07
3.87505e-07
-8.20474e-07
1.2943e-06
-0.000116152
0.000116886
-0.000116215
4.21774e-07
0.000116977
1.29871e-06
4.23063e-07
3.12425e-10
-0.000119523
3.57656e-07
0.000120175
-6.22923e-07
-0.000119524
3.5764e-07
-3.85933e-07
0.000120175
-6.22979e-07
1.37756e-10
3.67105e-07
-6.48224e-07
3.67055e-07
-3.87087e-07
-6.4824e-07
3.987e-10
-0.000116224
0.000117003
-0.000116225
-4.20612e-07
0.000117003
1.70892e-10
-4.22619e-07
-1.22122e-07
-0.000119494
-1.11554e-07
0.000120135
-7.93517e-07
-0.000119413
6.47929e-08
2.5469e-06
0.000120035
-3.3559e-06
-1.20813e-07
-1.04547e-07
-8.20229e-07
7.49049e-08
2.55424e-06
-3.39104e-06
-1.29225e-06
-0.000116216
0.000116977
-0.000116153
-1.95671e-06
0.000116882
-1.29784e-06
-1.96034e-06
1.85852e-06
-0.000119275
1.73344e-05
0.000119888
-1.7259e-05
-0.000118914
-1.40788e-05
0.000119475
1.53769e-05
1.8672e-06
1.73809e-05
-1.73183e-05
-1.41034e-05
1.53955e-05
1.46904e-05
-0.000115926
0.000116614
-0.000114724
0.000115336
1.47354e-05
-1.82519e-06
-0.000120018
-1.37704e-05
0.000120522
1.50917e-05
-0.000120443
1.68843e-05
-2.47614e-06
0.000120983
-1.67733e-05
-1.83054e-06
-1.37901e-05
1.50899e-05
1.69535e-05
-2.48335e-06
-1.6868e-05
-1.43298e-05
-0.000115918
0.000116478
-0.000117273
1.91862e-06
0.000117909
-1.43891e-05
1.91904e-06
1.25688e-07
-0.000120624
1.88441e-08
0.00012118
-3.17575e-06
-0.000120742
-1.43216e-07
3.76892e-07
0.000121317
-6.8319e-07
1.23597e-07
4.43543e-08
-3.24132e-06
-1.23228e-07
3.77856e-07
-7.37668e-07
1.26117e-06
-0.000117584
0.00011826
-0.000117706
4.12022e-07
0.000118412
1.26569e-06
4.12882e-07
-4.11703e-11
-0.000120791
3.10857e-07
0.000121377
-5.19293e-07
-0.000120791
3.11084e-07
-3.77074e-07
0.000121377
-5.19557e-07
2.19088e-10
3.34273e-07
-5.72395e-07
3.34479e-07
-3.77361e-07
-5.72628e-07
1.90361e-10
-0.00011775
0.000118473
-0.00011775
-4.11651e-07
0.000118473
3.97407e-10
-4.11751e-07
-1.26455e-07
-0.000120742
-1.41876e-07
0.000121317
-6.84245e-07
-0.000120625
2.3126e-08
2.47492e-06
0.000121179
-3.17899e-06
-1.2287e-07
-1.22366e-07
-7.38569e-07
4.54884e-08
2.48463e-06
-3.24231e-06
-1.26046e-06
-0.000117706
0.000118413
-0.000117582
-1.92079e-06
0.000118265
-1.2633e-06
-1.91768e-06
1.82474e-06
-0.000120456
1.69105e-05
0.00012098
-1.67846e-05
-0.000120007
-1.38018e-05
0.000120524
1.51091e-05
1.8227e-06
1.69493e-05
-1.68555e-05
-1.37898e-05
1.50805e-05
1.43359e-05
-0.000117268
0.000117921
-0.000115923
0.000116457
1.43774e-05
-1.77811e-06
-0.000120972
-1.35031e-05
0.000121388
1.48652e-05
-0.000121478
1.63993e-05
-2.40182e-06
0.000121919
-1.62163e-05
-1.78161e-06
-1.34829e-05
1.48143e-05
1.64651e-05
-2.41234e-06
-1.63298e-05
-1.39572e-05
-0.000116994
0.000117448
-0.000118496
1.87902e-06
0.000119059
-1.39997e-05
1.87858e-06
1.31556e-07
-0.00012169
-5.29887e-08
0.00012215
-2.93997e-06
-0.000121844
-2.00888e-07
3.68375e-07
0.000122325
-5.17094e-07
1.27038e-07
-1.52894e-08
-3.03497e-06
-1.66879e-07
3.68453e-07
-6.01663e-07
1.2255e-06
-0.000118892
0.000119493
-0.000119073
4.02099e-07
0.000119696
1.23075e-06
4.02736e-07
-8.89656e-11
-0.000121913
2.34492e-07
0.000122404
-3.56917e-07
-0.000121913
2.34241e-07
-3.68462e-07
0.000122404
-3.56773e-07
-1.28714e-10
2.73828e-07
-4.41483e-07
2.7384e-07
-3.68748e-07
-4.41551e-07
-4.53717e-10
-0.00011915
0.000119787
-0.00011915
-4.03407e-07
0.000119787
-1.6081e-10
-4.03317e-07
-1.31619e-07
-0.000121844
-2.01663e-07
0.000122325
-5.16247e-07
-0.00012169
-5.51187e-08
2.40271e-06
0.000122148
-2.93797e-06
-1.27725e-07
-1.66514e-07
-6.01823e-07
-1.43403e-08
2.41169e-06
-3.03564e-06
-1.22844e-06
-0.000119075
0.000119698
-0.000118902
-1.88445e-06
0.000119503
-1.23193e-06
-1.88344e-06
1.78467e-06
-0.000121471
1.63933e-05
0.000121916
-1.62204e-05
-0.000120982
-1.3493e-05
0.000121394
1.48652e-05
1.78429e-06
1.64709e-05
-1.63348e-05
-1.34954e-05
1.48217e-05
1.39485e-05
-0.00011852
0.00011908
-0.000116951
0.000117406
1.39891e-05
-1.73488e-06
-0.000121734
-1.32508e-05
0.000122019
1.47005e-05
-0.000122303
1.588e-05
-2.33774e-06
0.000122624
-1.55984e-05
-1.739e-06
-1.32336e-05
1.46267e-05
1.59746e-05
-2.34332e-06
-1.57545e-05
-1.35864e-05
-0.000117846
0.000118182
-0.000119556
1.84572e-06
0.000120004
-1.36316e-05
1.84594e-06
1.39436e-07
-0.000122552
-1.78742e-07
0.00012289
-2.63644e-06
-0.000122744
-2.87685e-07
3.60531e-07
0.000123101
-2.90084e-07
1.34195e-07
-1.10745e-07
-2.76899e-06
-2.38526e-07
3.60531e-07