/*--------------------------------*- C++ -*----------------------------------*\
  =========                 |
  \\      /  F ield         | OpenFOAM: The Open Source CFD Toolbox
   \\    /   O peration     | Website:  https://openfoam.org
    \\  /    A nd           | Version:  9
     \\/     M anipulation  |
\*---------------------------------------------------------------------------*/
FoamFile
{
    format      ascii;
    class       volScalarField;
    location    "3.7";
    object      k;
}
// * * * * * * * * * * * * * * * * * * * * * * * * * * * * * * * * * * * * * //

dimensions      [0 2 -2 0 0 0 0];

internalField   nonuniform List<scalar> 
36360
(
0.121361
0.102446
0.0673311
0.0598307
0.0337042
0.0281252
0.0105344
0.0118392
0.0532089
0.0256221
0.0231195
0.00709328
0.0132355
0.00555676
0.00503042
0.00318143
0.0127375
0.0127398
0.00379441
0.00379535
0.00330409
0.00330466
0.00286049
0.00286053
0.0256229
0.0532005
0.00709514
0.0231187
0.005558
0.0132353
0.00318176
0.00503069
0.102429
0.121337
0.0598224
0.0673167
0.0281208
0.0336978
0.0118381
0.0105328
0.188901
0.162983
0.159215
0.135556
0.065493
0.053847
0.0517216
0.042014
0.105048
0.0722067
0.0803896
0.0489858
0.0349356
0.0228278
0.0244785
0.0128017
0.0575021
0.0574979
0.0345464
0.0345455
0.0171355
0.0171353
0.00773057
0.00773143
0.0721919
0.10502
0.0489786
0.0803718
0.0228249
0.0349273
0.0128023
0.0244748
0.162942
0.188852
0.135527
0.159179
0.0538323
0.0654742
0.042005
0.0517094
0.237239
0.209238
0.214391
0.187214
0.0871403
0.0737499
0.076966
0.0642633
0.148762
0.114693
0.127733
0.0941601
0.0535189
0.0412476
0.0445668
0.0323732
0.0995462
0.099537
0.0792248
0.079218
0.0357981
0.0357952
0.0268699
0.0268683
0.114665
0.148713
0.0941382
0.127695
0.0412381
0.0535011
0.0323669
0.0445538
0.209172
0.237162
0.18716
0.214328
0.0737232
0.0871071
0.0642427
0.07694
0.277186
0.248137
0.258049
0.229458
0.104927
0.0906511
0.096392
0.0825049
0.1864
0.15161
0.168274
0.133814
0.0696605
0.0571568
0.0618631
0.049484
0.136076
0.136062
0.118465
0.118454
0.051622
0.0516172
0.0440074
0.0440035
0.15157
0.186333
0.133779
0.168215
0.0571416
0.0696337
0.0494716
0.0618407
0.248047
0.277083
0.22938
0.257958
0.0906125
0.10488
0.0824721
0.0963515
0.310926
0.28122
0.294765
0.265352
0.120056
0.105197
0.112795
0.0981999
0.218701
0.183399
0.203185
0.168117
0.0836534
0.0709028
0.0769135
0.064283
0.167555
0.167538
0.152417
0.152401
0.0652341
0.0652275
0.0586806
0.0586749
0.183348
0.218618
0.168071
0.20311
0.0708825
0.0836186
0.0642652
0.0768826
0.28111
0.310801
0.265252
0.29465
0.105147
0.119995
0.0981558
0.112741
0.339212
0.309084
0.325702
0.295762
0.132812
0.117554
0.126709
0.111632
0.246058
0.210406
0.232966
0.197473
0.0956002
0.0826431
0.0898694
0.0770099
0.19434
0.19432
0.181507
0.181489
0.076858
0.0768499
0.0712796
0.0712722
0.210346
0.245961
0.197417
0.232876
0.0826183
0.0955584
0.0769873
0.0898309
0.308957
0.339068
0.295644
0.325566
0.117496
0.13274
0.111578
0.126643
0.3626
0.332204
0.351473
0.321196
0.143405
0.127875
0.138358
0.12295
0.268858
0.232975
0.257996
0.222217
0.105618
0.0925
0.100835
0.087792
0.216758
0.216736
0.206067
0.206046
0.0866246
0.0866152
0.0819585
0.0819497
0.232908
0.268749
0.222153
0.257892
0.0924714
0.10557
0.0877653
0.10079
0.332063
0.362439
0.321061
0.351319
0.127808
0.143323
0.122888
0.138281
0.381626
0.351066
0.372614
0.342126
0.15205
0.136336
0.147949
0.132317
0.287527
0.251499
0.278675
0.242712
0.113858
0.100619
0.109943
0.0967598
0.235185
0.23516
0.226441
0.226417
0.0946766
0.0946661
0.0908479
0.0908379
0.251426
0.287408
0.242641
0.278561
0.100588
0.113805
0.0967296
0.109892
0.350913
0.381452
0.341979
0.372446
0.136262
0.15196
0.132247
0.147863
0.3968
0.366147
0.38965
0.359037
0.158963
0.143125
0.1557
0.139917
0.302506
0.266395
0.295443
0.259368
0.120492
0.107165
0.117356
0.10407
0.250022
0.249995
0.24302
0.242995
0.101174
0.101162
0.0981007
0.0980896
0.266316
0.30238
0.259292
0.29532
0.107131
0.120434
0.104037
0.117301
0.365984
0.396615
0.358879
0.38947
0.143045
0.158866
0.13984
0.155606
0.408633
0.377939
0.403093
0.372415
0.164366
0.148447
0.16183
0.145947
0.314258
0.278107
0.308752
0.272617
0.125707
0.112321
0.123257
0.109897
0.261703
0.261675
0.256225
0.256198
0.106295
0.106283
0.103887
0.103875
0.278024
0.314125
0.272536
0.308622
0.112284
0.125646
0.109861
0.123197
0.377768
0.408439
0.372247
0.402902
0.148362
0.164263
0.145864
0.16173
0.417597
0.386899
0.413433
0.382734
0.168469
0.1525
0.166557
0.150609
0.323223
0.287067
0.319056
0.2829
0.129692
0.116268
0.127833
0.114425
0.27065
0.270621
0.266487
0.266458
0.110221
0.110208
0.108387
0.108375
0.28698
0.323085
0.282815
0.31892
0.116229
0.129628
0.114387
0.12777
0.386721
0.417396
0.382558
0.413234
0.152411
0.16836
0.150522
0.166451
0.424136
0.393462
0.421134
0.390444
0.171471
0.155476
0.170086
0.154101
0.329826
0.293688
0.32679
0.290641
0.132631
0.119186
0.131272
0.117836
0.277275
0.277245
0.274225
0.274195
0.113126
0.113113
0.111781
0.111768
0.293599
0.329683
0.290553
0.326649
0.119146
0.132564
0.117796
0.131207
0.393278
0.423928
0.390263
0.420928
0.155384
0.171359
0.15401
0.169975
0.428641
0.398015
0.426608
0.395955
0.173552
0.157547
0.172606
0.156603
0.334448
0.298348
0.332356
0.296237
0.13469
0.12124
0.133751
0.120302
0.28195
0.281919
0.27983
0.2798
0.115175
0.115161
0.114239
0.114225
0.298257
0.334301
0.296146
0.332211
0.121198
0.134621
0.120261
0.133683
0.397827
0.428429
0.395769
0.426397
0.157452
0.173436
0.156509
0.172491
0.431468
0.400909
0.430233
0.399639
0.174872
0.158871
0.174287
0.158282
0.337432
0.301387
0.33612
0.300047
0.136024
0.122579
0.13543
0.121981
0.285013
0.284981
0.28366
0.283628
0.116516
0.116502
0.115916
0.115902
0.301294
0.337283
0.299954
0.335972
0.122537
0.135953
0.121939
0.13536
0.400718
0.431252
0.399449
0.430018
0.158774
0.174754
0.158186
0.17417
0.432911
0.402439
0.432334
0.401817
0.175568
0.159581
0.175279
0.159284
0.339074
0.303098
0.338399
0.302388
0.136762
0.123334
0.13645
0.123013
0.286756
0.286724
0.286029
0.285997
0.117278
0.117264
0.116952
0.116938
0.303003
0.338923
0.302294
0.338249
0.123291
0.136691
0.12297
0.136379
0.402246
0.432693
0.401625
0.432116
0.159483
0.175448
0.159186
0.17516
0.433224
0.402859
0.433184
0.402765
0.175749
0.159788
0.175707
0.159732
0.339625
0.303731
0.339467
0.303532
0.137015
0.123613
0.136935
0.123519
0.287429
0.287397
0.287209
0.287177
0.117569
0.117555
0.117467
0.117453
0.303636
0.339473
0.303437
0.339316
0.12357
0.136943
0.123475
0.136863
0.402665
0.433005
0.40257
0.432964
0.159689
0.175629
0.159633
0.175587
0.432651
0.40241
0.433038
0.40273
0.175546
0.159614
0.175691
0.159741
0.33932
0.303517
0.339566
0.303714
0.136898
0.123527
0.136992
0.123602
0.287258
0.287226
0.287431
0.287398
0.117497
0.117482
0.117563
0.117549
0.303422
0.339168
0.303618
0.339414
0.123483
0.136826
0.123558
0.13692
0.402216
0.432431
0.402536
0.432818
0.159515
0.175425
0.159642
0.17557
0.431316
0.401219
0.432057
0.401886
0.174996
0.159102
0.175297
0.159383
0.33829
0.302589
0.33888
0.303128
0.136456
0.123123
0.136701
0.123349
0.286381
0.286348
0.286894
0.286861
0.117112
0.117097
0.117328
0.117313
0.302494
0.338138
0.303032
0.338728
0.123079
0.136383
0.123305
0.136629
0.401025
0.431098
0.401691
0.431837
0.159003
0.174875
0.159283
0.175175
0.429372
0.399439
0.430403
0.400386
0.17418
0.158329
0.174608
0.158734
0.336687
0.301101
0.337549
0.301906
0.135765
0.122477
0.136129
0.122818
0.284948
0.284916
0.285724
0.285692
0.116487
0.116472
0.116816
0.116802
0.301006
0.336536
0.301811
0.337398
0.122433
0.135693
0.122774
0.136057
0.399246
0.429155
0.400192
0.430184
0.158231
0.174059
0.158635
0.174487
0.426918
0.397171
0.428194
0.398352
0.17314
0.157339
0.173675
0.157848
0.334612
0.299149
0.335701
0.300175
0.134867
0.12163
0.13533
0.122067
0.283057
0.283025
0.284052
0.28402
0.115664
0.115649
0.116088
0.116074
0.299055
0.334462
0.300081
0.33555
0.121587
0.134796
0.122023
0.135258
0.396979
0.426702
0.398159
0.427976
0.157241
0.173021
0.15775
0.173555
0.424024
0.394485
0.425513
0.395867
0.17191
0.156164
0.172537
0.156762
0.332137
0.296808
0.333418
0.298022
0.133796
0.120614
0.134343
0.121132
0.280782
0.28075
0.281962
0.28193
0.114674
0.11466
0.115179
0.115164
0.296715
0.331988
0.297928
0.333269
0.120571
0.133725
0.121089
0.134271
0.394296
0.423811
0.395676
0.425297
0.156067
0.171792
0.156664
0.172418
0.42074
0.391433
0.422419
0.392993
0.170511
0.154825
0.17122
0.155503
0.329311
0.294127
0.330762
0.295506
0.132572
0.119451
0.133193
0.12004
0.278172
0.278141
0.279514
0.279483
0.113539
0.113525
0.114114
0.1141
0.294035
0.329165
0.295413
0.330615
0.119408
0.132502
0.119998
0.133122
0.391246
0.42053
0.392805
0.422206
0.15473
0.170394
0.155407
0.171102
0.417097
0.388047
0.418953
0.389771
0.168958
0.153339
0.169744
0.15409
0.326169
0.29114
0.327775
0.292668
0.13121
0.118154
0.131899
0.118809
0.275261
0.27523
0.276751
0.27672
0.112274
0.11226
0.112913
0.112899
0.291049
0.326025
0.292577
0.32763
0.118113
0.131141
0.118767
0.131829
0.387863
0.416891
0.389586
0.418743
0.153245
0.168844
0.153995
0.169627
0.413114
0.384345
0.415139
0.386226
0.16726
0.151712
0.168118
0.152532
0.322727
0.287864
0.324482
0.289535
0.129718
0.116732
0.130471
0.11745
0.272066
0.272036
0.273696
0.273666
0.110885
0.110872
0.111586
0.111572
0.287775
0.322586
0.289446
0.324339
0.116691
0.12965
0.117409
0.130403
0.384165
0.412911
0.386044
0.414933
0.15162
0.167148
0.152439
0.168004
0.408797
0.380335
0.410988
0.38237
0.165419
0.149948
0.166348
0.150837
0.318994
0.284306
0.320895
0.286118
0.128099
0.115188
0.128916
0.115967
0.268594
0.268564
0.270363
0.270333
0.109376
0.109362
0.110137
0.110123
0.284218
0.318855
0.28603
0.320754
0.115148
0.128032
0.115926
0.128849
0.380158
0.408598
0.382191
0.410786
0.149857
0.165309
0.150745
0.166237
0.404144
0.376013
0.406504
0.378205
0.163435
0.148044
0.164436
0.149004
0.314965
0.280463
0.317015
0.282419
0.126351
0.113519
0.127233
0.114361
0.264842
0.264813
0.266752
0.266723
0.107744
0.107731
0.108567
0.108554
0.280377
0.314829
0.282333
0.316877
0.11348
0.126286
0.114321
0.127167
0.375839
0.403949
0.378029
0.406306
0.147956
0.163327
0.148914
0.164327
0.399146
0.37137
0.401681
0.373724
0.161302
0.145998
0.162379
0.14703
0.310631
0.276324
0.312835
0.27843
0.124469
0.111721
0.125419
0.112629
0.260799
0.260771
0.262857
0.262828
0.105986
0.105973
0.106873
0.10686
0.27624
0.310498
0.278346
0.312701
0.111683
0.124406
0.11259
0.125355
0.371201
0.398956
0.373553
0.401487
0.145912
0.161197
0.146942
0.162271
0.393789
0.366388
0.396505
0.368915
0.159013
0.1438
0.160169
0.144909
0.305972
0.271869
0.308342
0.274136
0.122445
0.109786
0.123468
0.110763
0.256445
0.256418
0.258661
0.258633
0.104092
0.104079
0.105048
0.105036
0.271788
0.305842
0.274054
0.30821
0.109748
0.122383
0.110725
0.123405
0.366223
0.393604
0.368747
0.396317
0.143716
0.158911
0.144824
0.160065
0.38805
0.361043
0.390961
0.363755
0.156558
0.141438
0.157799
0.142631
0.300963
0.267073
0.303511
0.269515
0.120268
0.1077
0.121369
0.108755
0.251754
0.251727
0.254143
0.254115
0.102051
0.102039
0.103083
0.10307
0.266993
0.300836
0.269434
0.303383
0.107664
0.120208
0.108718
0.121308
0.360882
0.38787
0.363592
0.390777
0.141356
0.156458
0.142548
0.157697
0.381902
0.355304
0.385021
0.358217
0.153923
0.1389
0.155256
0.140183
0.29557
0.261901
0.298315
0.264535
0.117922
0.105452
0.11911
0.10659
0.246691
0.246665
0.24927
0.249244
0.099848
0.0998362
0.100963
0.100951
0.261823
0.295447
0.264456
0.29819
0.105416
0.117864
0.106554
0.119051
0.355148
0.381727
0.358058
0.384842
0.138821
0.153826
0.140102
0.155157
0.375311
0.349131
0.378656
0.352267
0.151092
0.136175
0.152525
0.137554
0.289754
0.256311
0.292716
0.25916
0.115391
0.103021
0.116674
0.104253
0.241216
0.24119
0.244007
0.243981
0.0974655
0.0974542
0.0986732
0.0986616
0.256236
0.289635
0.259084
0.292595
0.102987
0.115335
0.104218
0.116617
0.348981
0.375142
0.352113
0.378483
0.136098
0.150999
0.137476
0.15243
0.368234
0.342479
0.371828
0.345861
0.148043
0.133235
0.149589
0.134725
0.283465
0.250254
0.28667
0.253344
0.112652
0.100385
0.114043
0.101723
0.235276
0.235252
0.238306
0.238281
0.0948814
0.0948705
0.0961932
0.096182
0.250182
0.28335
0.25327
0.286553
0.100353
0.112598
0.10169
0.113988
0.342334
0.368071
0.345712
0.371661
0.133161
0.147953
0.13465
0.149497
0.360618
0.33529
0.364489
0.338948
0.14475
0.130055
0.146422
0.131669
0.276643
0.24367
0.280123
0.247031
0.109679
0.0975201
0.111191
0.0989769
0.228813
0.228789
0.232113
0.232089
0.0920699
0.0920594
0.0934991
0.0934885
0.243601
0.276533
0.24696
0.28001
0.0974887
0.109627
0.0989449
0.111138
0.33515
0.360461
0.338805
0.364328
0.129984
0.144664
0.131597
0.146334
0.352401
0.3275
0.356581
0.331467
0.141181
0.126606
0.142995
0.128359
0.269222
0.236489
0.27301
0.240158
0.106442
0.0943943
0.10809
0.0959857
0.221755
0.221733
0.225362
0.225339
0.0890007
0.0889908
0.0905632
0.090553
0.236423
0.269117
0.24009
0.272902
0.0943644
0.106392
0.0959551
0.108039
0.327366
0.352251
0.33133
0.356427
0.126539
0.141099
0.12829
0.142911
0.343512
0.319035
0.348037
0.323349
0.1373
0.122858
0.139275
0.124765
0.261124
0.228628
0.265262
0.232648
0.102905
0.0909722
0.104708
0.092717
0.214018
0.213996
0.217977
0.217955
0.0856376
0.0856282
0.0873525
0.0873429
0.228565
0.261024
0.232584
0.265159
0.0909441
0.102859
0.0926881
0.10466
0.318908
0.34337
0.323218
0.34789
0.122795
0.137223
0.124699
0.139196
0.333892
0.309826
0.338788
0.314521
0.133069
0.118784
0.135224
0.120857
0.252256
0.219977
0.256792
0.224409
0.0990293
0.0872075
0.101008
0.0891308
0.205483
0.205463
0.209858
0.209837
0.0819325
0.0819239
0.0838258
0.0838168
0.219918
0.252161
0.224348
0.256695
0.0871813
0.0989859
0.0891036
0.100963
0.309707
0.333758
0.314397
0.338649
0.118724
0.132997
0.120795
0.135149
0.323582
0.299803
0.328803
0.304915
0.128486
0.114368
0.130813
0.116612
0.242458
0.210354
0.247488
0.215302
0.0947512
0.0830296
0.0969416
0.0851712
0.195975
0.195956
0.200864
0.200845
0.0778178
0.0778099
0.0799263
0.079918
0.210299
0.242371
0.215245
0.247397
0.0830058
0.0947114
0.0851462
0.0969
0.299692
0.323458
0.3048
0.328673
0.114313
0.12842
0.116555
0.130743
0.313234
0.288631
0.318294
0.294416
0.123772
0.109561
0.126102
0.112022
0.23123
0.199391
0.237086
0.205073
0.0898999
0.0783118
0.0924141
0.0807443
0.185235
0.185219
0.190775
0.190757
0.0732079
0.073201
0.0755743
0.0755669
0.199341
0.231151
0.205021
0.237003
0.0782906
0.0898644
0.0807218
0.0923764
0.28853
0.313121
0.29431
0.318174
0.109512
0.123712
0.11197
0.126038
0.307607
0.272216
0.309158
0.281916
0.119651
0.102746
0.121656
0.10673
0.2167
0.186543
0.224583
0.193217
0.0838532
0.0729111
0.0870889
0.0756912
0.173135
0.173121
0.179339
0.179323
0.0681097
0.0681036
0.0707028
0.0706964
0.186499
0.21663
0.193171
0.224509
0.0728928
0.0838226
0.0756716
0.0870558
0.272127
0.307505
0.281821
0.30905
0.102703
0.119599
0.106684
0.121599
0.192015
0.163255
0.122541
0.104286
0.163143
0.137818
0.099329
0.0846735
0.0994366
0.0606713
0.0521066
0.0229204
0.0790592
0.0441709
0.0384458
0.0138868
0.0420741
0.0420724
0.0100991
0.0101013
0.0269368
0.0269377
0.00597066
0.00597235
0.0606591
0.0994087
0.0229214
0.0520931
0.0441652
0.0790414
0.013891
0.0384396
0.163212
0.191963
0.104258
0.122502
0.137788
0.163104
0.0846558
0.0993023
0.289558
0.25332
0.245291
0.211644
0.248457
0.215651
0.210244
0.179988
0.180589
0.136016
0.141924
0.0992401
0.147685
0.107028
0.115094
0.076213
0.115172
0.115161
0.0791701
0.079163
0.0882989
0.0882911
0.0580686
0.0580644
0.135982
0.18053
0.0992161
0.141881
0.107003
0.147641
0.0761973
0.115063
0.253243
0.28947
0.211584
0.245221
0.215592
0.248387
0.179944
0.21019
0.36387
0.324991
0.32859
0.290768
0.311758
0.276417
0.28177
0.247444
0.249322
0.202888
0.216247
0.170564
0.20548
0.16316
0.177673
0.136025
0.181149
0.181131
0.14921
0.149196
0.143726
0.143712
0.116904
0.116893
0.202834
0.249235
0.17052
0.216174
0.163118
0.205411
0.135991
0.177616
0.324881
0.363746
0.290674
0.328483
0.276326
0.311655
0.247369
0.281683
0.425505
0.385365
0.396026
0.356416
0.364133
0.327542
0.339074
0.303015
0.308416
0.261022
0.279991
0.233011
0.25522
0.211992
0.231279
0.188453
0.238728
0.238704
0.210965
0.210944
0.192063
0.192044
0.168753
0.168736
0.260952
0.308305
0.232948
0.279891
0.211935
0.255128
0.188403
0.231198
0.385226
0.425352
0.35629
0.395886
0.327424
0.364
0.30291
0.338954
0.477183
0.436375
0.452482
0.411958
0.408154
0.370849
0.387095
0.350102
0.358853
0.310914
0.334668
0.286964
0.29779
0.253986
0.27736
0.233812
0.288263
0.288235
0.264471
0.264445
0.233703
0.233679
0.21369
0.213669
0.310832
0.358724
0.286887
0.334547
0.253917
0.297679
0.233749
0.277258
0.436214
0.477007
0.411807
0.452315
0.370709
0.407997
0.349972
0.386948
0.520199
0.479038
0.499691
0.458679
0.444906
0.407177
0.42737
0.389827
0.401316
0.353089
0.381031
0.332924
0.333733
0.289573
0.316548
0.272545
0.330219
0.330187
0.31015
0.31012
0.269051
0.269024
0.25213
0.252105
0.352996
0.401172
0.332837
0.380893
0.289493
0.333607
0.27247
0.316429
0.47886
0.520005
0.458509
0.499504
0.407018
0.444729
0.389676
0.427201
0.555559
0.514229
0.538761
0.4975
0.475195
0.43722
0.460796
0.422928
0.43652
0.388167
0.419774
0.37147
0.363605
0.319238
0.349385
0.305108
0.365175
0.36514
0.34853
0.348497
0.298566
0.298536
0.284502
0.284474
0.388066
0.436364
0.371373
0.419624
0.319151
0.363466
0.305024
0.349252
0.514038
0.555352
0.497315
0.538558
0.437046
0.475002
0.422761
0.460609
0.5842
0.542812
0.570651
0.529283
0.499776
0.461668
0.48814
0.450088
0.465232
0.416856
0.451637
0.403263
0.388013
0.343542
0.376448
0.332021
0.393806
0.393769
0.380237
0.380201
0.322779
0.322747
0.311297
0.311266
0.416749
0.465068
0.40316
0.451476
0.343448
0.387865
0.331929
0.376304
0.542611
0.583984
0.529087
0.570437
0.461482
0.499571
0.449908
0.487939
0.606972
0.565595
0.596253
0.554866
0.519346
0.481181
0.510129
0.471987
0.488211
0.439875
0.477388
0.429028
0.407571
0.363063
0.398354
0.353859
0.41681
0.416772
0.405967
0.405929
0.342253
0.342219
0.333069
0.333036
0.439764
0.488039
0.428919
0.477219
0.362964
0.407414
0.353762
0.398201
0.565387
0.606748
0.554661
0.596031
0.480986
0.51913
0.471795
0.509916
0.624694
0.583373
0.616404
0.575053
0.534589
0.496419
0.527455
0.489284
0.506216
0.457961
0.497788
0.449492
0.422904
0.378407
0.415724
0.371218
0.434909
0.434869
0.426431
0.426392
0.35758
0.357544
0.350396
0.350362
0.457846
0.506038
0.449378
0.497613
0.378303
0.422741
0.371116
0.415563
0.583158
0.624464
0.574841
0.616175
0.496216
0.534365
0.489084
0.527233
0.6381
0.596865
0.631879
0.5906
0.546125
0.507988
0.540768
0.502613
0.519952
0.471804
0.513574
0.465373
0.434602
0.390148
0.429167
0.38469
0.448784
0.448743
0.442335
0.442294
0.369325
0.369288
0.363863
0.363827
0.471686
0.51977
0.465255
0.513394
0.39004
0.434432
0.384584
0.429
0.596646
0.637866
0.590383
0.631644
0.507778
0.545894
0.502406
0.540538
0.647872
0.606743
0.643391
0.602209
0.554534
0.516457
0.550675
0.512566
0.53008
0.482056
0.52543
0.477344
0.443221
0.398835
0.43926
0.39484
0.45908
0.459038
0.454345
0.454303
0.378032
0.377994
0.374025
0.373988
0.481934
0.529895
0.477224
0.525245
0.398724
0.443048
0.39473
0.439089
0.60652
0.647635
0.601987
0.643152
0.516242
0.554298
0.512353
0.550439
0.654601
0.613596
0.65157
0.610504
0.560324
0.52233
0.557713
0.519676
0.537187
0.489297
0.533978
0.486021
0.449262
0.404961
0.446532
0.402187
0.466375
0.466333
0.463072
0.46303
0.38419
0.384151
0.381399
0.381361
0.489174
0.536999
0.485899
0.533791
0.404847
0.449085
0.402075
0.446356
0.613371
0.654361
0.610279
0.651328
0.522111
0.560084
0.519459
0.557472
0.658818
0.617953
0.656982
0.616048
0.563951
0.52606
0.562369
0.524426
0.541798
0.49405
0.539777
0.491959
0.453173
0.408969
0.451456
0.407203
0.471189
0.471146
0.469067
0.469024
0.38824
0.3882
0.386452
0.386413
0.493925
0.541608
0.491835
0.539587
0.408854
0.452993
0.407089
0.451277
0.617726
0.658577
0.615821
0.656739
0.525839
0.563709
0.524205
0.562125
0.660962
0.620253
0.660113
0.619327
0.565795
0.528028
0.565061
0.527232
0.544358
0.496761
0.543312
0.49564
0.455334
0.411243
0.454448
0.410301
0.473969
0.473925
0.472813
0.47277
0.390563
0.390523
0.389595
0.389556
0.496636
0.544167
0.495515
0.543121
0.411127
0.455153
0.410185
0.454267
0.620025
0.660722
0.619098
0.659869
0.527805
0.565551
0.527009
0.564815
0.661421
0.620884
0.661371
0.620748
0.566187
0.528563
0.566142
0.528445
0.545252
0.497814
0.544995
0.497479
0.456075
0.412108
0.455862
0.411833
0.475096
0.475052
0.474723
0.474679
0.391485
0.391445
0.391181
0.391141
0.497689
0.545061
0.497353
0.544803
0.411991
0.455893
0.411716
0.45568
0.620656
0.661181
0.62052
0.661127
0.528339
0.565943
0.528221
0.565895
0.660532
0.620184
0.661128
0.620682
0.565427
0.527962
0.565935
0.528386
0.54482
0.497547
0.545189
0.49783
0.455692
0.411856
0.456009
0.412103
0.474905
0.474861
0.475149
0.475105
0.391296
0.391255
0.39151
0.39147
0.497421
0.544629
0.497705
0.544997
0.41174
0.45551
0.411987
0.455827
0.619956
0.660293
0.620454
0.660885
0.527739
0.565183
0.528162
0.565688
0.658509
0.618367
0.659638
0.619393
0.563689
0.526406
0.564654
0.52728
0.543281
0.496182
0.544177
0.496992
0.454365
0.410674
0.455131
0.411368
0.473625
0.473581
0.474392
0.474349
0.390182
0.390142
0.390841
0.390801
0.496057
0.543091
0.496867
0.543986
0.410557
0.454184
0.411251
0.454949
0.618141
0.658272
0.619165
0.659396
0.526183
0.563446
0.527056
0.564408
0.655563
0.615651
0.657131
0.617104
0.561162
0.524082
0.562502
0.52532
0.540855
0.49394
0.542173
0.495166
0.452288
0.408751
0.45341
0.409796
0.471472
0.471429
0.472653
0.47261
0.388335
0.388295
0.389342
0.389302
0.493816
0.540666
0.495042
0.541983
0.408635
0.452107
0.40968
0.453229
0.615427
0.655329
0.616878
0.656891
0.523861
0.560921
0.525098
0.562258
0.651849
0.612188
0.653786
0.613998
0.557975
0.521123
0.559633
0.522666
0.537695
0.490974
0.539364
0.492546
0.449589
0.406219
0.451008
0.407555
0.468601
0.468558
0.470125
0.470082
0.385883
0.385844
0.387179
0.387139
0.490851
0.537508
0.492422
0.539175
0.406104
0.449411
0.40744
0.450829
0.611966
0.651617
0.613775
0.653549
0.520904
0.557737
0.522445
0.55939
0.647474
0.608088
0.64973
0.610206
0.554222
0.517621
0.556153
0.519425
0.533914
0.487399
0.535882
0.489264
0.446366
0.403173
0.448038
0.404756
0.465127
0.465084
0.466941
0.466898
0.382925
0.382885
0.384464
0.384424
0.487277
0.53373
0.489141
0.535695
0.403059
0.446189
0.404642
0.44786
0.60787
0.647246
0.609985
0.649496
0.517404
0.553987
0.519207
0.555913
0.642515
0.60343
0.645056
0.605819
0.549966
0.513643
0.552142
0.515678
0.529592
0.483293
0.531822
0.485415
0.442683
0.39968
0.444578
0.40148
0.461128
0.461086
0.463196
0.463154
0.379525
0.379486
0.381278
0.381239
0.483173
0.529409
0.485294
0.531638
0.399568
0.442509
0.401367
0.444402
0.603215
0.64229
0.605601
0.644825
0.513429
0.549734
0.515463
0.551906
0.63702
0.598264
0.639824
0.600902
0.54525
0.509231
0.547652
0.511479
0.524778
0.478709
0.527249
0.481065
0.438585
0.395784
0.440684
0.397781
0.456656
0.456615
0.458956
0.458914
0.375728
0.37569
0.377675
0.377637
0.47859
0.524599
0.480946
0.527068
0.395673
0.438413
0.39767
0.44051
0.598052
0.6368
0.600688
0.639598
0.509021
0.545022
0.511267
0.54742
0.631018
0.592617
0.634073
0.595493
0.540097
0.504409
0.542716
0.50686
0.519502
0.473674
0.522202
0.476253
0.434096
0.391509
0.436388
0.393694
0.451741
0.451701
0.45426
0.45422
0.371558
0.37152
0.37369
0.373652
0.473558
0.519326
0.476136
0.522024
0.3914
0.433927
0.393584
0.436218
0.592409
0.630802
0.595283
0.633851
0.504203
0.539873
0.506652
0.542487
0.624521
0.586502
0.627823
0.589612
0.534516
0.499187
0.537348
0.501838
0.513775
0.4682
0.5167
0.470999
0.429225
0.386863
0.431708
0.389233
0.446393
0.446353
0.449128
0.449088
0.367023
0.366987
0.369337
0.3693
0.468086
0.513602
0.470884
0.516525
0.386756
0.429059
0.389125
0.43154
0.586298
0.624309
0.589405
0.627605
0.498985
0.534297
0.501634
0.537124
0.617523
0.579914
0.621077
0.583262
0.528505
0.493561
0.531554
0.496416
0.507592
0.462282
0.510747
0.465304
0.423967
0.381843
0.426645
0.384402
0.440606
0.440567
0.443562
0.443523
0.36212
0.362085
0.36462
0.364584
0.46217
0.507423
0.465191
0.510575
0.381738
0.423805
0.384296
0.426481
0.579714
0.617316
0.583059
0.620864
0.493363
0.528291
0.496215
0.531334
0.610013
0.572835
0.613825
0.576431
0.522052
0.487517
0.525324
0.490583
0.500934
0.455899
0.504329
0.459156
0.418309
0.376433
0.421189
0.379189
0.43436
0.434322
0.437548
0.43751
0.356833
0.356798
0.359527
0.359492
0.455789
0.500768
0.459045
0.504161
0.37633
0.41815
0.379086
0.421029
0.57264
0.609811
0.576233
0.613617
0.487324
0.521843
0.490387
0.525109
0.601965
0.565239
0.60605
0.569097
0.515137
0.481033
0.518643
0.484322
0.493772
0.44902
0.497423
0.45253
0.412224
0.370606
0.415321
0.373575
0.427623
0.427586
0.431062
0.431024
0.351134
0.3511
0.354038
0.354003
0.448913
0.493609
0.452422
0.497259
0.370506
0.412069
0.373473
0.415164
0.565049
0.601768
0.568904
0.605847
0.480844
0.514933
0.484131
0.518433
0.593345
0.557087
0.597721
0.561229
0.50773
0.474077
0.511486
0.477607
0.486062
0.441603
0.489993
0.445388
0.405679
0.364328
0.409011
0.367527
0.420351
0.420315
0.424063
0.424027
0.344988
0.344955
0.348121
0.348087
0.441498
0.485904
0.445282
0.489833
0.364231
0.405528
0.367429
0.408858
0.556902
0.593153
0.561041
0.597523
0.473893
0.507532
0.47742
0.511282
0.584111
0.548331
0.588799
0.552781
0.499796
0.466609
0.503821
0.470401
0.477755
0.433591
0.481991
0.437681
0.39863
0.357552
0.40222
0.361006
0.412489
0.412453
0.416504
0.416468
0.338349
0.338316
0.341735
0.341701
0.433489
0.477601
0.437578
0.481835
0.357457
0.398483
0.36091
0.402071
0.548151
0.583924
0.552597
0.588607
0.46643
0.499603
0.470219
0.503623
0.574207
0.538921
0.579238
0.543706
0.49129
0.458576
0.495607
0.462657
0.468785
0.424919
0.473361
0.429348
0.391022
0.350223
0.394899
0.353962
0.403967
0.403933
0.408321
0.408286
0.331159
0.331128
0.334828
0.334796
0.42482
0.468636
0.429248
0.47321
0.350131
0.390879
0.353868
0.394754
0.538745
0.574025
0.543528
0.579051
0.458403
0.491103
0.462481
0.495415
0.563564
0.528772
0.568973
0.533936
0.482155
0.449918
0.486795
0.454319
0.459075
0.415505
0.464032
0.420316
0.38279
0.342272
0.386988
0.346331
0.394705
0.394672
0.39944
0.399406
0.323351
0.32332
0.327338
0.327307
0.415409
0.45893
0.420218
0.463884
0.342183
0.382652
0.34624
0.386848
0.528602
0.563388
0.533764
0.568792
0.44975
0.481975
0.454149
0.486609
0.552108
0.517804
0.557934
0.523389
0.472325
0.440563
0.477321
0.445323
0.448533
0.405256
0.453917
0.410496
0.373856
0.333621
0.378415
0.33804
0.384607
0.384574
0.389772
0.389739
0.314843
0.314814
0.319191
0.31916
0.405163
0.448393
0.410402
0.453775
0.333535
0.373723
0.337953
0.37828
0.51764
0.551939
0.523221
0.557759
0.440401
0.472151
0.445158
0.477142
0.539757
0.505924
0.546041
0.511976
0.461723
0.430428
0.467115
0.435589
0.437058
0.394063
0.442922
0.399789
0.364133
0.324175
0.369099
0.329004
0.37356
0.373529
0.379214
0.379182
0.305541
0.305513
0.310298
0.31027
0.393973
0.436923
0.399698
0.442784
0.324093
0.364005
0.32892
0.368968
0.505766
0.539594
0.511815
0.545872
0.430273
0.461556
0.43543
0.466943
0.526434
0.493043
0.533212
0.499607
0.450275
0.419428
0.456099
0.425032
0.424537
0.381796
0.430939
0.388077
0.353519
0.313825
0.358944
0.319122
0.361429
0.3614
0.367644
0.367614
0.295329
0.295302
0.300558
0.30053
0.381711
0.424408
0.387989
0.430807
0.313747
0.353398
0.319041
0.358819
0.492891
0.526277
0.499452
0.533049
0.419281
0.450116
0.424881
0.455934
0.512118
0.479085
0.519387
0.486193
0.437938
0.407484
0.444207
0.413569
0.410836
0.368287
0.417847
0.375214
0.341893
0.302423
0.347841
0.308267
0.34803
0.348002
0.354906
0.354877
0.28405
0.284024
0.289835
0.289809
0.368206
0.410713
0.37513
0.41772
0.302349
0.341779
0.308191
0.347723
0.47894
0.511968
0.486045
0.519232
0.407344
0.437787
0.413425
0.44405
0.497027
0.464017
0.504624
0.471683
0.42484
0.394526
0.43145
0.401128
0.39574
0.353259
0.403487
0.360991
0.329053
0.289728
0.335645
0.296258
0.333082
0.333056
0.340776
0.340748
0.271466
0.271442
0.27794
0.277915
0.353183
0.395624
0.360912
0.403367
0.289659
0.328945
0.296187
0.335534
0.463881
0.496886
0.471543
0.504477
0.394395
0.424699
0.400993
0.431302
0.482554
0.447554
0.489491
0.456015
0.412
0.38019
0.418215
0.387591
0.378585
0.336167
0.387506
0.345024
0.31438
0.275268
0.322022
0.282761
0.316167
0.316142
0.324902
0.324876
0.257233
0.257212
0.264578
0.264556
0.336097
0.378479
0.34495
0.387395
0.275206
0.314282
0.282695
0.321919
0.447428
0.482423
0.455884
0.489353
0.38007
0.411871
0.387465
0.418078
0.477168
0.424754
0.477522
0.438014
0.406255
0.359806
0.407246
0.371725
0.356951
0.316192
0.3686
0.326574
0.295694
0.258365
0.305776
0.267143
0.296978
0.296956
0.306849
0.306826
0.241141
0.241122
0.249405
0.249384
0.316129
0.356854
0.326507
0.368499
0.258309
0.295607
0.267083
0.305683
0.424641
0.477048
0.437894
0.477395
0.359699
0.406137
0.371611
0.407121
0.23134
0.199031
0.15515
0.132993
0.213896
0.183009
0.140613
0.119991
0.130132
0.0876521
0.0740308
0.0391322
0.116148
0.0751595
0.0638639
0.0313186
0.0676095
0.0676022
0.0221532
0.0221548
0.0558643
0.0558595
0.015313
0.0153157
0.0876258
0.130083
0.0391231
0.0739998
0.0751403
0.11611
0.0313149
0.0638421
0.198962
0.231258
0.13294
0.155082
0.182953
0.213828
0.11995
0.140559
0.345583
0.306172
0.292792
0.255848
0.320687
0.282504
0.271722
0.236078
0.229338
0.181404
0.181697
0.135622
0.207225
0.16054
0.163652
0.118869
0.15872
0.158702
0.113867
0.113855
0.138539
0.138524
0.0977608
0.0977508
0.181352
0.229253
0.135582
0.18163
0.160496
0.207153
0.118837
0.163597
0.306063
0.345461
0.255759
0.29269
0.28241
0.320581
0.236004
0.271636
0.436207
0.394268
0.392988
0.352052
0.40389
0.3631
0.364296
0.324545
0.314864
0.265045
0.273632
0.22457
0.285046
0.23645
0.247567
0.199742
0.241319
0.241295
0.201281
0.201259
0.213451
0.21343
0.177165
0.177147
0.264972
0.314749
0.224507
0.273532
0.236386
0.284944
0.199687
0.24748
0.394125
0.436049
0.351925
0.392846
0.362972
0.403748
0.324434
0.36417
0.511994
0.468931
0.475734
0.433127
0.473172
0.431177
0.440034
0.398536
0.388587
0.337887
0.353134
0.302795
0.352007
0.302472
0.319805
0.270666
0.313595
0.313565
0.278746
0.278718
0.278898
0.278871
0.247343
0.247319
0.337798
0.388449
0.302714