/*--------------------------------*- C++ -*----------------------------------*\
  =========                 |
  \\      /  F ield         | OpenFOAM: The Open Source CFD Toolbox
   \\    /   O peration     | Website:  https://openfoam.org
    \\  /    A nd           | Version:  9
     \\/     M anipulation  |
\*---------------------------------------------------------------------------*/
FoamFile
{
    format      ascii;
    class       volScalarField;
    location    "3.7";
    object      nut;
}
// * * * * * * * * * * * * * * * * * * * * * * * * * * * * * * * * * * * * * //

dimensions      [0 2 -1 0 0 0 0];

internalField   nonuniform List<scalar> 
36360
(
0.00337808
0.0030121
0.00208325
0.00189241
0.000542638
0.000495717
0.000303426
0.00032168
0.00214221
0.00147734
0.00107962
0.000421008
0.000340136
0.000220415
0.000209652
0.000166693
0.00099299
0.000993369
0.000253346
0.000253445
0.000169953
0.000169967
0.000158037
0.000158038
0.0014778
0.00214218
0.000421246
0.00107981
0.000220439
0.000340133
0.000166702
0.000209658
0.00301164
0.00337718
0.00189222
0.00208265
0.000495679
0.000542586
0.000321665
0.000303402
0.00493998
0.00457301
0.0042511
0.00386479
0.000756387
0.000685879
0.000672179
0.000605851
0.00380637
0.00338468
0.00303192
0.00249873
0.000552526
0.000446728
0.000462514
0.000334587
0.00328201
0.00328203
0.00232347
0.00232366
0.000387143
0.000387141
0.000260083
0.000260097
0.00338449
0.00380571
0.00249881
0.00303158
0.000446699
0.000552461
0.000334595
0.000462478
0.00457189
0.00493834
0.00386401
0.00424986
0.000685786
0.000756279
0.000605786
0.000672099
0.00606694
0.00575317
0.00553456
0.00519443
0.000872505
0.00080271
0.000819976
0.000749295
0.00509761
0.00478768
0.00448895
0.0041358
0.00068387
0.000600438
0.000624055
0.000531953
0.00471848
0.00471835
0.00405704
0.00405698
0.000559413
0.000559391
0.000484693
0.000484678
0.00478712
0.00509641
0.00413541
0.00448801
0.000600369
0.000683756
0.000531901
0.000623964
0.00575135
0.00606447
0.00519296
0.0055325
0.000802564
0.000872339
0.000749174
0.000819837
0.00698526
0.00671594
0.00654682
0.00625746
0.000957452
0.000889977
0.000917669
0.000849033
0.00613213
0.00586957
0.00564184
0.00535994
0.000780231
0.000706806
0.000735259
0.000657655
0.0058047
0.00580446
0.00529398
0.0052938
0.000671747
0.000671715
0.000620232
0.000620205
0.00586872
0.00613049
0.00535923
0.00564041
0.000706712
0.000780081
0.000657572
0.000735126
0.00671351
0.00698201
0.00625533
0.00654395
0.000889787
0.000957236
0.000848864
0.000917476
0.00774444
0.00750566
0.00738272
0.00712976
0.00102418
0.000958751
0.000992718
0.000926306
0.00696901
0.0067308
0.00657183
0.00632295
0.000855032
0.000787235
0.000819854
0.000749578
0.00666547
0.00666515
0.0062579
0.00625762
0.000755139
0.000755101
0.000716202
0.000716167
0.0067297
0.00696699
0.00632197
0.00656999
0.000787122
0.000854854
0.000749474
0.000819689
0.00750272
0.00774049
0.00712706
0.00737909
0.000958527
0.00102393
0.000926097
0.000992479
0.00836672
0.00815105
0.00807058
0.00784405
0.00107725
0.00101353
0.0010522
0.000987656
0.00764637
0.00742318
0.00732471
0.00709464
0.000914074
0.000849932
0.000886242
0.000820445
0.00735706
0.00735666
0.00702875
0.00702839
0.000819674
0.000819631
0.000789361
0.00078932
0.00742189
0.00764403
0.00709344
0.00732252
0.000849805
0.000913874
0.000820325
0.000886052
0.00814766
0.00836217
0.00784087
0.0080663
0.00101328
0.00107696
0.000987416
0.00105192
0.00887243
0.00867463
0.00863214
0.00842589
0.00111942
0.00105711
0.00109953
0.00103655
0.00819265
0.00797967
0.00793337
0.00771554
0.000960798
0.000899211
0.000938779
0.000876019
0.00791323
0.00791277
0.00764907
0.00764864
0.000870213
0.000870166
0.000846443
0.000846398
0.00797821
0.00819004
0.00771416
0.00793089
0.000899072
0.00096058
0.000875885
0.000938569
0.00867086
0.00886736
0.0084223
0.0086273
0.00105684
0.0011191
0.00103628
0.00109922
0.00927929
0.00909542
0.00908628
0.00889579
0.00115269
0.00109155
0.00113703
0.00107533
0.00863001
0.00842446
0.00842258
0.0082134
0.000997598
0.000937867
0.000980283
0.000919693
0.00835817
0.00835767
0.00814686
0.00814638
0.000909779
0.000909728
0.000891184
0.000891135
0.00842286
0.00862718
0.00821187
0.00841986
0.000937719
0.000997365
0.000919549
0.000980057
0.00909132
0.00927376
0.00889184
0.00908094
0.00109126
0.00115235
0.00107505
0.0011367
0.00960236
0.00942937
0.00944939
0.0092712
0.00117863
0.00111842
0.00116646
0.00110581
0.00897633
0.00877637
0.00881227
0.00860951
0.00102627
0.000967915
0.00101282
0.000953824
0.00871055
0.00871
0.00854329
0.00854277
0.000940498
0.000940444
0.000926094
0.000926042
0.00877465
0.0089733
0.00860784
0.00880933
0.000967759
0.00102602
0.000953672
0.00101258
0.00942499
0.00959643
0.00926695
0.00944362
0.00111811
0.00117827
0.0011055
0.00116611
0.00985498
0.00969046
0.00973561
0.00956702
0.00119852
0.00113905
0.00118922
0.00112941
0.00924669
0.00905112
0.00911878
0.00892094
0.00104827
0.000990945
0.00103799
0.000980185
0.00898596
0.00898538
0.00885529
0.00885473
0.00096403
0.000963974
0.000953035
0.00095298
0.0090493
0.00924349
0.00891917
0.00911567
0.000990782
0.00104801
0.000980026
0.00103774
0.00968584
0.00984871
0.00956251
0.00972946
0.00113873
0.00119814
0.00112909
0.00118886
0.0100485
0.00989054
0.00995727
0.00979613
0.00121341
0.00115452
0.00120649
0.00114733
0.00945365
0.00926163
0.00935589
0.00916197
0.00106478
0.00100823
0.00105711
0.0010002
0.00919723
0.00919662
0.00909704
0.00909644
0.000981689
0.000981632
0.000973481
0.000973424
0.00925972
0.00945031
0.0091601
0.00935261
0.00100806
0.00106451
0.00100003
0.00105685
0.00988571
0.0100419
0.0097914
0.0099508
0.00115418
0.00121302
0.001147
0.00120611
0.0101928
0.0100399
0.010125
0.0099696
0.00122419
0.00116575
0.00121923
0.00116057
0.00960817
0.00941898
0.00953529
0.00934454
0.00107679
0.00102082
0.00107125
0.00101502
0.00935534
0.00935471
0.00928038
0.00927976
0.000994566
0.000994507
0.000988625
0.000988567
0.009417
0.00960471
0.0093426
0.00953189
0.00102065
0.00107652
0.00101484
0.00107099
0.0100349
0.010186
0.00996468
0.0101182
0.00116541
0.00122379
0.00116023
0.00121883
0.0102963
0.0101472
0.0102478
0.0100969
0.00123161
0.00117351
0.00122824
0.00116998
0.00971933
0.00953238
0.009667
0.00947876
0.00108514
0.0010296
0.00108134
0.0010256
0.00946949
0.00946883
0.00941536
0.00941471
0.00100355
0.00100349
0.000999453
0.000999393
0.00953035
0.00971577
0.00947675
0.0096635
0.00102942
0.00108486
0.00102543
0.00108107
0.0101421
0.0102892
0.0100918
0.0102409
0.00117315
0.0012312
0.00116963
0.00122784
0.0103661
0.01022
0.0103336
0.010186
0.00123631
0.00117845
0.00123423
0.00117625
0.00979486
0.0096097
0.00975939
0.00957315
0.00109051
0.00103529
0.00108812
0.00103275
0.0095475
0.00954683
0.00951046
0.0095098
0.00100939
0.00100933
0.00100678
0.00100672
0.00960762
0.00979123
0.00957109
0.0097558
0.00103511
0.00109023
0.00103257
0.00108784
0.0102147
0.0103589
0.0101808
0.0103264
0.00117809
0.00123589
0.0011759
0.00123381
0.0104083
0.0102644
0.0103889
0.0102438
0.00123878
0.00118109
0.00123775
0.00117998
0.00984124
0.00965751
0.00981956
0.0096349
0.00109349
0.00103849
0.00109223
0.00103712
0.00959594
0.00959526
0.00957287
0.00957219
0.0010127
0.00101264
0.00101129
0.00101123
0.00965539
0.00983756
0.0096328
0.0098159
0.0010383
0.0010932
0.00103694
0.00109195
0.0102591
0.010401
0.0102385
0.0103816
0.00118073
0.00123836
0.00117962
0.00123733
0.0104275
0.0102854
0.0104193
0.0102761
0.00123943
0.00118187
0.00123928
0.00118165
0.00986381
0.0096814
0.00985343
0.00967003
0.00109451
0.00103967
0.00109418
0.00103927
0.0096205
0.00961981
0.00960861
0.00960792
0.00101397
0.00101391
0.00101353
0.00101346
0.00967926
0.00986008
0.0096679
0.00984972
0.00103949
0.00109422
0.00103909
0.0010939
0.01028
0.0104201
0.0102708
0.0104119
0.0011815
0.001239
0.00118129
0.00123885
0.0104292
0.0102884
0.0104292
0.0102875
0.00123872
0.00118124
0.00123923
0.0011817
0.00986728
0.00968549
0.00986576
0.00968331
0.00109405
0.00103932
0.00109442
0.00103963
0.00962499
0.0096243
0.00962243
0.00962174
0.00101367
0.00101361
0.00101395
0.00101389
0.00968334
0.00986354
0.00968116
0.00986203
0.00103913
0.00109376
0.00103945
0.00109413
0.0102829
0.0104218
0.0102821
0.0104217
0.00118087
0.00123829
0.00118133
0.0012388
0.0104154
0.0102756
0.0104225
0.010282
0.00123679
0.00117935
0.00123785
0.00118038
0.00985485
0.00967369
0.00986092
0.0096792
0.00109229
0.00103763
0.00109327
0.00103858
0.00961363
0.00961294
0.00961878
0.00961809
0.00101201
0.00101195
0.00101295
0.00101288
0.00967153
0.0098511
0.00967705
0.00985717
0.00103744
0.001092
0.00103839
0.00109298
0.0102702
0.010408
0.0102766
0.010415
0.00117898
0.00123636
0.00118001
0.00123742
0.0103893
0.0102504
0.0104022
0.0102627
0.0012339
0.00117648
0.00123542
0.00117798
0.00982964
0.00964892
0.00984178
0.00966058
0.00108953
0.00103491
0.00109098
0.00103634
0.00958924
0.00958855
0.00960055
0.00959986
0.00100932
0.00100925
0.00101074
0.00101068
0.00964677
0.00982589
0.00965842
0.00983802
0.00103472
0.00108924
0.00103616
0.00109069
0.010245
0.0103819
0.0102573
0.0103947
0.00117612
0.00123348
0.00117762
0.00123499
0.010353
0.0102148
0.0103708
0.0102321
0.00123022
0.0011728
0.00123212
0.0011747
0.00979378
0.00961335
0.009811
0.00963016
0.00108592
0.00103133
0.00108778
0.00103318
0.00955399
0.0095533
0.00957048
0.00956978
0.00100575
0.00100569
0.00100759
0.00100753
0.0096112
0.00979005
0.00962801
0.00980725
0.00103114
0.00108564
0.00103299
0.00108749
0.0102094
0.0103456
0.0102267
0.0103633
0.00117244
0.00122979
0.00117433
0.00123169
0.0103078
0.0101704
0.0103299
0.0101919
0.00122584
0.00116841
0.00122807
0.00117065
0.00974886
0.00956858
0.00977043
0.00958981
0.0010816
0.00102701
0.00108381
0.00102922
0.0095095
0.00950881
0.00953042
0.00952973
0.00100144
0.00100138
0.00100364
0.00100358
0.00956645
0.00974514
0.00958767
0.00976671
0.00102683
0.00108132
0.00102903
0.00108352
0.010165
0.0103004
0.0101865
0.0103224
0.00116805
0.00122542
0.00117029
0.00122765
0.0102548
0.0101182
0.0102807
0.0101435
0.00122084
0.0011634
0.00122338
0.00116594
0.00969597
0.00951573
0.00972141
0.00954088
0.00107664
0.00102205
0.00107916
0.00102457
0.00945687
0.00945619
0.00948174
0.00948105
0.000996475
0.000996413
0.000998994
0.000998932
0.00951361
0.00969229
0.00953875
0.00971771
0.00102187
0.00107636
0.00102439
0.00107888
0.0101129
0.0102475
0.0101382
0.0102733
0.00116304
0.00122043
0.00116558
0.00122296
0.0101947
0.010059
0.0102241
0.0100878
0.00121527
0.0011578
0.00121809
0.00116063
0.00963581
0.00945549
0.00966482
0.00948427
0.0010711
0.00101649
0.00107391
0.0010193
0.00939683
0.00939615
0.00942533
0.00942466
0.000990906
0.000990845
0.000993723
0.000993662
0.0094534
0.00963217
0.00948216
0.00966116
0.00101631
0.00107082
0.00101912
0.00107363
0.0100537
0.0101875
0.0100825
0.0102168
0.00115744
0.00121486
0.00116027
0.00121768
0.0101278
0.00999302
0.0101605
0.0100251
0.00120915
0.00115164
0.00121224
0.00115475
0.00956873
0.00938823
0.00960118
0.0094205
0.00106499
0.00101035
0.00106808
0.00101345
0.00932972
0.00932905
0.00936174
0.00936107
0.000984758
0.000984697
0.000987864
0.000987803
0.00938616
0.00956514
0.00941842
0.00959757
0.00101017
0.00106471
0.00101327
0.0010678
0.00998784
0.0101207
0.0100199
0.0101533
0.00115129
0.00120874
0.00115439
0.00121183
0.0100541
0.00992036
0.0100903
0.00995585
0.00120247
0.00114492
0.00120584
0.00114831
0.0094948
0.009314
0.0095307
0.00934977
0.00105832
0.00100364
0.00106169
0.00100703
0.00925561
0.00925495
0.00929114
0.00929048
0.00097803
0.000977971
0.000981427
0.000981367
0.00931197
0.00949125
0.00934772
0.00952713
0.00100347
0.00105805
0.00100686
0.00106142
0.00991526
0.0100471
0.0099507
0.0100832
0.00114457
0.00120207
0.00114796
0.00120544
0.00997351
0.00984086
0.0100132
0.00987982
0.00119523
0.00113762
0.00119889
0.0011413
0.00941381
0.00923261
0.00945329
0.00927201
0.00105107
0.000996343
0.00105473
0.00100003
0.0091743
0.00917365
0.00921349
0.00921284
0.000970706
0.000970647
0.000974406
0.000974346
0.0092306
0.00941032
0.00926999
0.00944977
0.00099617
0.0010508
0.000999858
0.00105446
0.00983584
0.00996664
0.00987476
0.0100062
0.00113728
0.00119484
0.00114096
0.00119849
0.00988563
0.0097541
0.00992901
0.00979678
0.0011874
0.00112973
0.00119136
0.00113372
0.00932535
0.00914362
0.00936865
0.00918691
0.00104321
0.000988417
0.00104718
0.000992425
0.00908536
0.00908473
0.00912845
0.00912781
0.000962748
0.00096269
0.000966771
0.000966713
0.00914164
0.00932193
0.00918492
0.0093652
0.000988247
0.00104294
0.000992254
0.00104692
0.00974917
0.0098789
0.0097918
0.00992215
0.00112939
0.00118701
0.00113338
0.00119097
0.00978991
0.00965947
0.00983732
0.0097062
0.00117894
0.00112118
0.00118322
0.0011255
0.00922878
0.00904637
0.00927626
0.00909391
0.00103469
0.000979811
0.001039
0.000984168
0.00898814
0.00898752
0.00903549
0.00903486
0.000954102
0.000954044
0.000958478
0.00095842
0.00904444
0.00922542
0.00909195
0.00927286
0.000979645
0.00103443
0.000984
0.00103874
0.00965464
0.00978332
0.00970131
0.0098306
0.00112086
0.00117856
0.00112517
0.00118283
0.00968557
0.00955613
0.00973741
0.00960735
0.00116979
0.00111193
0.00117443
0.00111662
0.00912322
0.00894
0.00917534
0.00899225
0.00102544
0.000970456
0.00103013
0.000975198
0.00888178
0.00888117
0.00893384
0.00893323
0.000944695
0.000944638
0.000949462
0.000949405
0.00893811
0.00911993
0.00899033
0.00917201
0.000970292
0.00102518
0.000975033
0.00102987
0.00955141
0.00967913
0.00960257
0.00973084
0.00111161
0.00116942
0.00111629
0.00117405
0.00957171
0.00944312
0.00962846
0.00949933
0.0011599
0.0011019
0.00116491
0.00110698
0.00900766
0.00882345
0.00906495
0.00888097
0.00101538
0.000960263
0.00102049
0.000965437
0.00876522
0.00876463
0.00882257
0.00882196
0.000934436
0.000934381
0.000939643
0.000939587
0.0088216
0.00900445
0.0088791
0.0090617
0.000960102
0.00101513
0.000965275
0.00102023
0.00943852
0.00956545
0.00949466
0.00962206
0.00110159
0.00115954
0.00110666
0.00116455
0.00944727
0.00931935
0.00950951
0.00938116
0.00114917
0.00109103
0.00115462
0.00109654
0.00888085
0.00869543
0.00894398
0.0087589
0.00100442
0.000949121
0.00100999
0.000954786
0.00863717
0.00863659
0.00870048
0.0086999
0.000923212
0.000923159
0.000928919
0.000928864
0.00869363
0.00887772
0.00875708
0.00894081
0.000948965
0.00100417
0.000954628
0.00100974
0.00931487
0.00944118
0.00937661
0.00950328
0.00109072
0.00114882
0.00109623
0.00115426
0.00931077
0.00918315
0.00937927
0.00925143
0.00113751
0.00107918
0.00114344
0.0010852
0.00874118
0.00855435
0.008811
0.00862461
0.000992416
0.000936895
0.000998527
0.000943122
0.00849606
0.0084955
0.00856616
0.00856559
0.000910882
0.00091083
0.000917162
0.000917109
0.0085526
0.00873814
0.00862284
0.00880792
0.000936742
0.000992178
0.000942967
0.000998286
0.00917881
0.00930488
0.00924701
0.00937323
0.00107888
0.00113716
0.0010849
0.00114309
0.0091605
0.00903271
0.00923616
0.00910839
0.00112477
0.00106621
0.00113126
0.00107281
0.00858677
0.00839831
0.00866426
0.00847636
0.00097922
0.000923416
0.00098595
0.000930293
0.00834002
0.00833948
0.00841789
0.00841734
0.000897275
0.000897224
0.000904218
0.000904167
0.00839663
0.00858383
0.00847465
0.00866128
0.000923268
0.000978989
0.000930143
0.000985716
0.00902851
0.00915483
0.00910412
0.00923034
0.00106592
0.00112444
0.00107251
0.00113092
0.00899438
0.0088659
0.00907831
0.00895011
0.00111081
0.00105196
0.00111793
0.00105923
0.00841544
0.00822512
0.00850174
0.00831211
0.000964647
0.000908485
0.000972092
0.000916117
0.00816684
0.00816632
0.00825364
0.00825312
0.000882183
0.000882133
0.000889898
0.000889848
0.0082235
0.00841262
0.00831046
0.00849887
0.000908342
0.000964424
0.000915971
0.000971865
0.00886187
0.00898895
0.00894599
0.0090727
0.00105168
0.00111049
0.00105894
0.0011176
0.00880981
0.00868018
0.00890337
0.00877425
0.00109542
0.00103626
0.00110328
0.00104428
0.00822458
0.00803204
0.00832107
0.00812941
0.000948475
0.000891854
0.000956751
0.000900372
0.00797379
0.0079733
0.00807098
0.00807047
0.000865343
0.000865296
0.00087397
0.000873922
0.0080305
0.00822189
0.00812784
0.00831832
0.000891716
0.000948261
0.000900232
0.000956533
0.00867634
0.00880463
0.00877031
0.00889802
0.00103599
0.00109511
0.001044
0.00110296
0.00860356
0.00847249
0.00870844
0.00857802
0.0010784
0.00101892
0.0010871
0.00102778
0.00801088
0.00781561
0.00811932
0.00792522
0.000930428
0.000873193
0.000939682
0.000882776
0.00775742
0.00775697
0.00786683
0.00786636
0.000846406
0.000846361
0.000856135
0.000856089
0.00781417
0.00800835
0.00792374
0.00811672
0.000873062
0.000930224
0.000882641
0.000939473
0.00846886
0.00859867
0.00857428
0.00870336
0.00101866
0.0010781
0.00102752
0.0010868
0.00837269
0.00823912
0.00849019
0.00835806
0.00105965
0.000999784
0.00106921
0.00100955
0.00776973
0.00757125
0.00789269
0.00769555
0.000910096
0.000852009
0.000920562
0.000862933
0.00751353
0.00751312
0.00763732
0.00763688
0.000824867
0.000824825
0.000835973
0.00083593
0.00756994
0.0077674
0.00769417
0.00789025
0.000851887
0.000909905
0.000862806
0.000920364
0.00823576
0.00836814
0.00835456
0.00848542
0.000999545
0.00105937
0.00100931
0.00106892
0.00812171
0.00797407
0.00824736
0.0081101
0.00104001
0.000978537
0.00104976
0.000989471
0.00749333
0.00729423
0.00763524
0.00743535
0.000886479
0.000827438
0.000898796
0.000840196
0.0072394
0.00723905
0.00737838
0.00737799
0.000800051
0.000800013
0.000812884
0.000812844
0.00729308
0.00749125
0.00743411
0.00763304
0.000827326
0.000886304
0.000840079
0.000898612
0.00797105
0.00811757
0.0081069
0.00824297
0.000978317
0.00103976
0.000989241
0.0010495
0.00790418
0.00764255
0.00800139
0.00782156
0.00102254
0.000947603
0.00103108
0.000965805
0.00717384
0.00699186
0.00733701
0.0071427
0.000856137
0.000798385
0.000872504
0.00081347
0.00694562
0.00694533
0.00709133
0.00709101
0.000771679
0.000771645
0.000786238
0.000786202
0.00699089
0.00717206
0.00714164
0.00733509
0.000798285
0.000855981
0.000813364
0.000872338
0.00763997
0.00790061
0.00781875
0.00799748
0.000947408
0.00102232
0.000965597
0.00103084
0.00562637
0.00507507
0.00376254
0.00335595
0.00470495
0.0042102
0.00304249
0.00270609
0.00399261
0.00321506
0.00228089
0.00140037
0.00318114
0.00240614
0.00171765
0.000862726
0.00291271
0.00291305
0.00072101
0.000721391
0.00199577
0.00199619
0.000391186
0.000391388
0.00321517
0.00399198
0.00140106
0.00228082
0.00240644
0.00318084
0.000863422
0.00171777
0.00507369
0.00562417
0.00335513
0.00376093
0.00420931
0.0047034
0.00270563
0.00304141
0.00855981
0.00798628
0.00717278
0.00659179
0.00710272
0.00658215
0.00599428
0.00546597
0.00703459
0.0065264
0.00556426
0.00493347
0.00566976
0.00516982
0.00448048
0.00385247
0.0064147
0.00641451
0.00474582
0.00474584
0.0050553
0.00505524
0.0036526
0.00365271
0.00652549
0.00703261
0.00493305
0.00556299
0.00516929
0.00566845
0.00385233
0.00447969
0.00798332
0.00855585
0.00658968
0.00716976
0.00658007
0.00709983
0.00546453
0.0059921
0.0110576
0.010525
0.00984708
0.00929264
0.00903538
0.00855779
0.00810615
0.00760594
0.00970758
0.00935583
0.00841298
0.00799537
0.00777979
0.00743988
0.00676549
0.0063595
0.00931808
0.00931754
0.0079293
0.00792894
0.00739977
0.00739945
0.00629261
0.00629242
0.00935397
0.00970416
0.00799398
0.00841029
0.00743867
0.00777743
0.00635863
0.00676366
0.0105202
0.0110515
0.00928878
0.00984205
0.00855437
0.00903087
0.0076032
0.00810245
0.0132595
0.0127677
0.0121936
0.0116821
0.0106982
0.0102619
0.00989801
0.00944129
0.0120448
0.0117755
0.0109162
0.0106115
0.00957749
0.0093175
0.00871435
0.00842039
0.0117663
0.0117654
0.0105909
0.0105902
0.00930219
0.00930165
0.00839549
0.00839507
0.0117728
0.01204
0.0106092
0.010912
0.00931567
0.00957415
0.00841887
0.00871149
0.0127611
0.0132512
0.0116764
0.0121864
0.0102571
0.0106921
0.0094372
0.00989266
0.0151739
0.0147162
0.0142512
0.0137773
0.0121168
0.0117158
0.0114357
0.0110179
0.0140594
0.0138371
0.0130901
0.0128469
0.0110969
0.0108816
0.0103689
0.0101338
0.0138399
0.0138387
0.0128446
0.0128436
0.0108759
0.0108752
0.0101241
0.0101235
0.0138334
0.0140532
0.0128437
0.0130845
0.0108792
0.0110927
0.0101317
0.0103651
0.0147079
0.0151636
0.0137698
0.0142419
0.0117099
0.0121092
0.0110126
0.0114288
0.0168084
0.0163781
0.0160238
0.0155805
0.0133115
0.0129389
0.0127397
0.0123535
0.0157689
0.015576
0.014949
0.0147426
0.012367
0.0121795
0.0117598
0.0115595
0.0155844
0.015583
0.0147484
0.0147471
0.012178
0.0121771
0.0115561
0.0115552
0.0155715
0.0157615
0.0147386
0.0149422
0.0121766
0.012362
0.0115569
0.0117551
0.0163682
0.0167962
0.0155714
0.0160125
0.0129319
0.0133026
0.0123471
0.0127313
0.0181801
0.0177717
0.0175242
0.0171053
0.0143032
0.0139532
0.01383
0.0134692
0.0171979
0.0170247
0.0165147
0.0163322
0.0134161
0.0132472
0.0129157
0.012738
0.0170362
0.0170345
0.0163421
0.0163405
0.013248
0.0132469
0.0127375
0.0127365
0.0170196
0.0171894
0.0163274
0.0165068
0.0132439
0.0134104
0.0127349
0.0129103
0.0177604
0.0181662
0.0170947
0.017511
0.0139452
0.014293
0.0134617
0.0138203
0.0193129
0.018922
0.0187731
0.0183738
0.0151147
0.0147827
0.0147285
0.0143879
0.018375
0.0182159
0.0178139
0.0176479
0.0142719
0.0141163
0.0138646
0.0137025
0.0182292
0.0182273
0.01766
0.0176582
0.0141185
0.0141173
0.0137037
0.0137026
0.0182101
0.0183655
0.0176424
0.0178049
0.0141125
0.0142655
0.0136989
0.0138585
0.0189094
0.0192974
0.0183618
0.0187582
0.0147739
0.0151035
0.0143795
0.0147177
0.0202325
0.0198555
0.0197958
0.0194121
0.0157683
0.0154506
0.0154581
0.0151335
0.0193292
0.0191805
0.0188757
0.0187217
0.0149599
0.0148141
0.0146332
0.0144824
0.0191952
0.0191931
0.0187355
0.0187335
0.0148174
0.0148161
0.0144849
0.0144837
0.0191742
0.0193189
0.0187157
0.0188658
0.01481
0.014953
0.0144785
0.0146265
0.0198418
0.0202157
0.0193989
0.0197795
0.0154411
0.0157561
0.0151244
0.0154463
0.0209659
0.0205999
0.0206188
0.0202475
0.0162858
0.0159793
0.0160409
0.015729
0.0200896
0.019949
0.0197293
0.0195844
0.0155041
0.0153659
0.0152462
0.015104
0.0199648
0.0199626
0.0195993
0.0195972
0.0153703
0.0153689
0.0151076
0.0151062
0.0199422
0.0200785
0.0195778
0.0197186
0.0153615
0.0154967
0.0150998
0.0152391
0.0205852
0.0209478
0.0202333
0.0206012
0.0159692
0.0162728
0.0157192
0.0160282
0.0215383
0.0211811
0.0212685
0.020907
0.016687
0.0163893
0.0164978
0.0161958
0.0206832
0.0205489
0.0204029
0.020265
0.015926
0.0157937
0.0157266
0.015591
0.0205658
0.0205634
0.0202811
0.0202787
0.0157991
0.0157976
0.0155956
0.0155942
0.0205417
0.0206715
0.020258
0.0203915
0.0157891
0.0159182
0.0155865
0.015719
0.0211656
0.0215193
0.0208919
0.0212498
0.0163786
0.0166732
0.0161854
0.0164842
0.021974
0.0216235
0.0217697
0.0214158
0.0169899
0.0166991
0.0168476
0.0165534
0.0211353
0.0210059
0.0209226
0.0207903
0.016245
0.0161174
0.0160946
0.0159643
0.0210238
0.0210213
0.0208074
0.0208049
0.0161238
0.0161222
0.0159699
0.0159684
0.0209984
0.0211231
0.020783
0.0209106
0.0161126
0.0162368
0.0159596
0.0160866
0.0216073
0.0219541
0.0213999
0.02175
0.016688
0.0169755
0.0165425
0.0168334
0.0222943
0.021949
0.022145
0.021797
0.0172104
0.016925
0.0171073
0.0168193
0.0214683
0.0213428
0.0213124
0.0211845
0.0164779
0.0163541
0.0163684
0.0162423
0.0213616
0.021359
0.0212024
0.0211999
0.0163614
0.0163598
0.0162489
0.0162473
0.021335
0.0214556
0.0211768
0.0212999
0.0163491
0.0164695
0.0162374
0.0163602
0.0219322
0.0222737
0.0217805
0.0221245
0.0169135
0.0171955
0.0168079
0.0170925
0.0225184
0.0221771
0.0224149
0.0220715
0.0173627
0.0170814
0.017292
0.0170086
0.0217021
0.0215798
0.0215933
0.0214689
0.0166396
0.0165188
0.0165639
0.0164412
0.0215994
0.0215967
0.0214877
0.0214851
0.016527
0.0165253
0.0164486
0.016447
0.0215718
0.021689
0.021461
0.0215804
0.0165136
0.016631
0.0164361
0.0165554
0.0221598
0.0224972
0.0220544
0.0223937
0.0170696
0.0173475
0.0169969
0.0172768
0.0226627
0.0223247
0.0225973
0.0222573
0.017459
0.0171807
0.0174148
0.017135
0.021854
0.0217342
0.0217841
0.0216625
0.0167427
0.0166243
0.0166948
0.0165747
0.0217547
0.021752
0.0216822
0.0216795
0.0166333
0.0166316
0.016583
0.0165813
0.021726
0.0218407
0.0216544
0.0217709
0.016619
0.0167339
0.0165695
0.0166861
0.0223071
0.0226411
0.0222399
0.0225757
0.0171687
0.0174435
0.017123
0.0173993
0.022741
0.0224053
0.0227067
0.0223697
0.017508
0.0172321
0.0174863
0.0172093
0.0219381
0.0218207
0.0219006
0.0217814
0.0167974
0.0166812
0.0167727
0.0166547
0.0218421
0.0218393
0.0218019
0.0217991
0.0166913
0.0166895
0.0166639
0.0166621
0.0218123
0.0219246
0.0217732
0.0218872
0.0166759
0.0167885
0.0166495
0.0167638
0.0223875
0.0227192
0.022352
0.0226848
0.0172199
0.0174923
0.0171972
0.0174706
0.0227681
0.0224341
0.0227584
0.0224232
0.0175214
0.0172471
0.0175169
0.0172415
0.0219693
0.0218532
0.0219563
0.0218387
0.0168143
0.0166992
0.016807
0.0166907
0.021875
0.0218722
0.0218599
0.0218571
0.0167097
0.016708
0.0167006
0.0166988
0.0218448
0.0219557
0.0218304
0.0219428
0.0166939
0.0168054
0.0166853
0.0167981
0.0224162
0.0227461
0.0224053
0.0227363
0.0172349
0.0175056
0.0172292
0.017501
0.0227511
0.0224185
0.0227619
0.0224284
0.0175036
0.0172305
0.0175135
0.0172396
0.0219554
0.0218405
0.021964
0.0218478
0.016799
0.016685
0.016807
0.016692
0.0218629
0.0218601
0.0218696
0.0218668
0.0166962
0.0166944
0.0167025
0.0167007
0.021832
0.0219417
0.0218394
0.0219503
0.0166796
0.01679
0.0166866
0.016798
0.0224005
0.022729
0.0224104
0.0227396
0.0172181
0.0174877
0.0172273
0.0174974
0.0226991
0.0223676
0.0227265
0.0223943
0.017461
0.0171887
0.0174826
0.0172098
0.0219057
0.0217917
0.0219312
0.0218161
0.0167581
0.0166449
0.0167783
0.0166642
0.0218146
0.0218118
0.0218384
0.0218356
0.0166566
0.0166548
0.0166752
0.0166735
0.0217832
0.021892
0.0218077
0.0219176
0.0166396
0.0167491
0.0166588
0.0167693
0.0223497
0.0226771
0.0223763
0.0227042
0.0171764
0.0174452
0.0171974
0.0174666
0.0226182
0.0222877
0.0226594
0.0223282
0.017398
0.0171263
0.0174294
0.0171572
0.0218265
0.0217131
0.0218661
0.0217518
0.0166961
0.0165835
0.0167263
0.0166129
0.0217365
0.0217337
0.0217745
0.0217717
0.0165956
0.0165939
0.0166245
0.0166227
0.0217047
0.0218129
0.0217433
0.0218525
0.0165782
0.0166871
0.0166076
0.0167174
0.0222698
0.0225964
0.0223102
0.0226372
0.017114
0.0173822
0.0171449
0.0174134
0.0225131
0.0221833
0.022566
0.0222356
0.0173176
0.0170464
0.0173573
0.0170857
0.0217226
0.0216096
0.0217741
0.0216602
0.0166163
0.0165041
0.0166551
0.0165421
0.0216334
0.0216306
0.0216834
0.0216806
0.0165166
0.0165148
0.0165541
0.0165523
0.0216013
0.0217091
0.0216518
0.0217605
0.0164988
0.0166074
0.0165368
0.0166462
0.0221656
0.0224914
0.0222177
0.0225439
0.0170342
0.017302
0.0170735
0.0173415
0.022387
0.0220578
0.0224501
0.0221203
0.0172222
0.0169513
0.0172693
0.016998
0.0215972
0.0214845
0.0216591
0.0215456
0.016521
0.016409
0.0165673
0.0164547
0.0215086
0.0215058
0.0215691
0.0215663
0.0164218
0.0164201
0.016467
0.0164652
0.0214762
0.0215838
0.0215373
0.0216456
0.0164037
0.0165122
0.0164493
0.0165585
0.0220402
0.0223655
0.0221026
0.0224282
0.0169393
0.0172068
0.0169859
0.0172535
0.0222419
0.0219133
0.0223143
0.0219852
0.0171132
0.0168425
0.0171669
0.0168959
0.0214526
0.02134
0.0215239
0.0214106
0.0164118
0.0162998
0.016465
0.0163524
0.0213642
0.0213615
0.0214343
0.0214316
0.0163129
0.0163111
0.016365
0.0163632
0.0213317
0.0214393
0.0214023
0.0215106
0.0162945
0.016403
0.0163471
0.0164562
0.0218959
0.0222207
0.0219676
0.0222927
0.0168306
0.0170979
0.0168839
0.0171514
0.0220789
0.0217508
0.0221602
0.0218316
0.0169912
0.0167207
0.0170514
0.0167806
0.0212898
0.021177
0.0213702
0.0212568
0.0162893
0.0161772
0.0163491
0.0162364
0.0212015
0.0211988
0.0212808
0.021278
0.0161905
0.0161888
0.0162493
0.0162476
0.0211689
0.0212767
0.0212486
0.021357
0.016172
0.0162807
0.0162312
0.0163404
0.0217337
0.022058
0.0218143
0.0221389
0.0167089
0.0169762
0.0167687
0.017036
0.0218983
0.0215707
0.0219884
0.0216604
0.0168565
0.016586
0.0169231
0.0166524
0.021109
0.020996
0.0211984
0.0210849
0.0161538
0.0160414
0.0162201
0.0161073
0.0210206
0.0210179
0.021109
0.0211063
0.0160548
0.0160532
0.0161203
0.0161186
0.020988
0.0210961
0.0210768
0.0211854
0.0160363
0.0161453
0.0161022
0.0162116
0.0215538
0.0218778
0.0216433
0.0219675
0.0165745
0.0168417
0.0166407
0.016908
0.0216995
0.0213722
0.0217989
0.0214712
0.0167087
0.0164382
0.0167819
0.0165113
0.0209098
0.0207963
0.0210086
0.0208947
0.0160048
0.0158919
0.016078
0.0159648
0.0208209
0.0208183
0.0209189
0.0209162
0.0159055
0.0159038
0.0159779
0.0159763
0.0207884
0.0208971
0.0208867
0.0209958
0.0158869
0.0159965
0.0159597
0.0160696
0.0213557
0.0216794
0.0214545
0.0217783
0.0164269
0.0166942
0.0164998
0.0167671
0.0214813
0.0211544
0.0215906
0.0212633
0.016547
0.0162764
0.0166273
0.0163566
0.0206908
0.0205766
0.0207997
0.0206852
0.0158416
0.015728
0.0159221
0.0158083
0.0206012
0.0205986
0.0207094
0.0207068
0.0157416
0.01574
0.0158215
0.0158199
0.0205689
0.0206783
0.0206774
0.0207871
0.0157231
0.0158334
0.0158033
0.0159138
0.0211382
0.0214617
0.0212469
0.0215705
0.0162653
0.0165328
0.0163454
0.0166128
0.021242
0.0209152
0.0213622
0.0210351
0.0163702
0.0160992
0.0164583
0.0161874
0.0204501
0.020335
0.0205702
0.0204549
0.0156627
0.0155482
0.0157512
0.0156367
0.0203595
0.020357
0.0204791
0.0204765
0.0155617
0.0155602
0.0156499
0.0156483
0.0203274
0.0204379
0.0204473
0.0205579
0.0155434
0.0156547
0.0156318
0.0157431
0.0208994
0.0212228
0.0210191
0.0213425
0.0160884
0.0163563
0.0161764
0.0164441
0.0209792
0.0206523
0.0211115
0.0207845
0.0161766
0.0159051
0.0162734
0.016002
0.0201851
0.0200689
0.0203178
0.0202015
0.0154663
0.0153507
0.0155639
0.0154483
0.0200932
0.0200907
0.0202255
0.020223
0.0153641
0.0153626
0.0154615
0.0154599
0.0200615
0.0201733
0.020194
0.0203058
0.015346
0.0154585
0.0154436
0.015556
0.0206368
0.0209605
0.0207688
0.0210923
0.0158945
0.0161631
0.0159913
0.0162595
0.0206898
0.0203624
0.0208358
0.0205085
0.0159642
0.0156918
0.0160707
0.0157986
0.0198928
0.0197751
0.0200397
0.019922
0.0152504
0.0151333
0.0153581
0.0152413
0.0197991
0.0197966
0.0199458
0.0199433
0.0151465
0.015145
0.0152542
0.0152527
0.0197679
0.0198813
0.0199148
0.020028
0.0151287
0.0152427
0.0152366
0.0153504
0.0203475
0.0206716
0.0204933
0.0208172
0.0156815
0.0159511
0.0157882
0.0160573
0.0203704
0.0200423
0.020532
0.0202042
0.0157306
0.015457
0.0158482
0.015575
0.0195694
0.0194496
0.0197324