/*--------------------------------*- C++ -*----------------------------------*\
  =========                 |
  \\      /  F ield         | OpenFOAM: The Open Source CFD Toolbox
   \\    /   O peration     | Website:  https://openfoam.org
    \\  /    A nd           | Version:  9
     \\/     M anipulation  |
\*---------------------------------------------------------------------------*/
FoamFile
{
    format      ascii;
    class       volScalarField;
    location    "3.7";
    object      p;
}
// * * * * * * * * * * * * * * * * * * * * * * * * * * * * * * * * * * * * * //

dimensions      [0 2 -2 0 0 0 0];

internalField   nonuniform List<scalar> 
36360
(
20.1185
20.0876
20.1121
20.0915
20.0976
20.1022
20.0981
20.0994
20.0995
20.1002
20.0999
20.1003
20.0992
20.0996
20.0988
20.0992
20.1002
20.1002
20.1003
20.1003
20.0996
20.0996
20.0994
20.0994
20.1002
20.0995
20.1003
20.0999
20.0996
20.0992
20.0992
20.0988
20.0876
20.1185
20.0915
20.1121
20.1022
20.0976
20.0994
20.0981
20.111
20.0949
20.115
20.0913
20.0841
20.1163
20.0915
20.1091
20.0994
20.0997
20.0994
20.1001
20.0996
20.099
20.0994
20.0994
20.0999
20.0999
20.1001
20.1001
20.0991
20.0991
20.0994
20.0994
20.0997
20.0994
20.1001
20.0994
20.099
20.0996
20.0994
20.0994
20.0949
20.111
20.0913
20.115
20.1163
20.0841
20.1091
20.0915
20.1025
20.1021
20.1068
20.0986
20.0692
20.1305
20.0766
20.1236
20.1007
20.0991
20.0998
20.0994
20.1014
20.0985
20.1003
20.0987
20.0991
20.0991
20.0995
20.0995
20.0984
20.0984
20.0988
20.0988
20.0991
20.1007
20.0994
20.0998
20.0985
20.1014
20.0987
20.1003
20.1021
20.1025
20.0986
20.1068
20.1305
20.0692
20.1236
20.0766
20.0941
20.1082
20.0982
20.1053
20.0553
20.1425
20.062
20.1368
20.1034
20.0988
20.102
20.0989
20.1044
20.0984
20.1028
20.0984
20.0982
20.0982
20.0986
20.0986
20.0978
20.0978
20.0981
20.0981
20.0988
20.1034
20.0989
20.102
20.0984
20.1044
20.0984
20.1028
20.1082
20.0941
20.1053
20.0982
20.1425
20.0553
20.1368
20.0621
20.0866
20.1126
20.0902
20.1106
20.0431
20.1519
20.0489
20.1475
20.1065
20.0991
20.1049
20.0989
20.1079
20.0986
20.1061
20.0985
20.0975
20.0975
20.0978
20.0978
20.0972
20.0972
20.0975
20.0975
20.0991
20.1065
20.0989
20.1049
20.0987
20.1079
20.0985
20.1061
20.1126
20.0866
20.1106
20.0903
20.1519
20.0431
20.1475
20.049
20.0801
20.1157
20.0832
20.1143
20.0327
20.159
20.0376
20.1557
20.1096
20.0997
20.1081
20.0993
20.1113
20.0993
20.1096
20.0989
20.0971
20.0971
20.0973
20.0973
20.0968
20.0969
20.097
20.097
20.0997
20.1096
20.0993
20.1081
20.0992
20.1112
20.0989
20.1096
20.1157
20.0801
20.1143
20.0832
20.1589
20.0327
20.1557
20.0377
20.0745
20.1178
20.0772
20.1169
20.0239
20.1643
20.0281
20.1618
20.1124
20.1005
20.111
20.1001
20.1143
20.1001
20.1128
20.0996
20.0968
20.0968
20.0969
20.0969
20.0966
20.0966
20.0967
20.0967
20.1005
20.1124
20.1001
20.111
20.1
20.1143
20.0996
20.1128
20.1178
20.0745
20.1168
20.0772
20.1642
20.024
20.1618
20.0281
20.0697
20.1191
20.072
20.1185
20.0166
20.1681
20.0201
20.1664
20.1148
20.1014
20.1136
20.1009
20.1169
20.1009
20.1157
20.1005
20.0968
20.0968
20.0968
20.0968
20.0966
20.0966
20.0966
20.0966
20.1014
20.1148
20.1009
20.1136
20.1009
20.1169
20.1005
20.1157
20.1191
20.0698
20.1185
20.072
20.1681
20.0167
20.1663
20.0202
20.0657
20.1199
20.0676
20.1196
20.0106
20.1709
20.0135
20.1697
20.1168
20.1023
20.1158
20.1019
20.1191
20.1018
20.1181
20.1014
20.0969
20.0969
20.0968
20.0968
20.0968
20.0968
20.0967
20.0967
20.1023
20.1168
20.1019
20.1158
20.1018
20.1191
20.1014
20.118
20.1199
20.0658
20.1195
20.0677
20.1709
20.0107
20.1696
20.0136
20.0623
20.1203
20.064
20.1202
20.0057
20.1729
20.008
20.172
20.1184
20.1032
20.1176
20.1028
20.1208
20.1026
20.12
20.1022
20.0972
20.0972
20.097
20.097
20.097
20.097
20.0969
20.0969
20.1032
20.1183
20.1027
20.1176
20.1026
20.1208
20.1022
20.12
20.1203
20.0624
20.1201
20.064
20.1729
20.0057
20.172
20.0081
20.0595
20.1205
20.0608
20.1204
20.0016
20.1743
20.0035
20.1737
20.1196
20.1039
20.119
20.1036
20.1221
20.1034
20.1215
20.103
20.0975
20.0975
20.0973
20.0973
20.0974
20.0973
20.0972
20.0972
20.1039
20.1195
20.1036
20.119
20.1034
20.1221
20.103
20.1215
20.1205
20.0595
20.1204
20.0609
20.1742
20.0017
20.1736
20.0036
20.057
20.1205
20.0582
20.1205
19.9983
20.1752
19.9999
20.1748
20.1204
20.1046
20.12
20.1043
20.1231
20.104
20.1226
20.1037
20.0978
20.0978
20.0977
20.0977
20.0977
20.0977
20.0975
20.0975
20.1046
20.1204
20.1043
20.12
20.104
20.1231
20.1037
20.1226
20.1205
20.0571
20.1205
20.0582
20.1751
19.9984
20.1747
19.9999
20.055
20.1204
20.056
20.1205
19.9956
20.1757
19.9969
20.1754
20.1211
20.1052
20.1208
20.1049
20.1238
20.1046
20.1235
20.1043
20.0982
20.0982
20.098
20.098
20.098
20.098
20.0979
20.0978
20.1052
20.1211
20.1049
20.1208
20.1046
20.1238
20.1043
20.1234
20.1204
20.055
20.1205
20.056
20.1756
19.9957
20.1754
19.9969
20.0533
20.1203
20.0541
20.1204
19.9934
20.1759
19.9945
20.1758
20.1215
20.1056
20.1213
20.1054
20.1243
20.105
20.1241
20.1048
20.0985
20.0985
20.0984
20.0984
20.0983
20.0983
20.0982
20.0982
20.1056
20.1215
20.1054
20.1213
20.105
20.1242
20.1048
20.124
20.1202
20.0533
20.1203
20.0541
20.1758
19.9935
20.1758
19.9945
20.0519
20.12
20.0525
20.1201
19.9917
20.1759
19.9925
20.1759
20.1218
20.106
20.1217
20.1058
20.1246
20.1053
20.1244
20.1052
20.0988
20.0988
20.0987
20.0987
20.0986
20.0986
20.0984
20.0984
20.106
20.1218
20.1058
20.1217
20.1053
20.1245
20.1052
20.1244
20.12
20.0519
20.1201
20.0526
20.1758
19.9918
20.1759
19.9926
20.0507
20.1198
20.0512
20.1199
19.9904
20.1757
19.991
20.1758
20.122
20.1062
20.1219
20.1061
20.1247
20.1056
20.1246
20.1055
20.0991
20.0991
20.099
20.099
20.0988
20.0988
20.0987
20.0987
20.1062
20.122
20.1061
20.1219
20.1056
20.1247
20.1055
20.1246
20.1197
20.0507
20.1199
20.0513
20.1756
19.9905
20.1757
19.9911
20.0497
20.1195
20.0501
20.1196
19.9894
20.1753
19.9898
20.1755
20.122
20.1064
20.122
20.1063
20.1247
20.1057
20.1247
20.1056
20.0993
20.0993
20.0992
20.0992
20.0989
20.0989
20.0989
20.0989
20.1064
20.122
20.1063
20.122
20.1057
20.1247
20.1056
20.1247
20.1195
20.0497
20.1196
20.0502
20.1753
19.9894
20.1755
19.9899
20.0489
20.1192
20.0492
20.1193
19.9886
20.1749
19.9889
20.1751
20.122
20.1065
20.122
20.1065
20.1246
20.1058
20.1247
20.1057
20.0994
20.0994
20.0994
20.0994
20.099
20.099
20.099
20.099
20.1065
20.1219
20.1065
20.122
20.1057
20.1246
20.1057
20.1246
20.1192
20.0489
20.1193
20.0493
20.1749
19.9887
20.1751
19.989
20.0482
20.1189
20.0485
20.119
19.9881
20.1744
19.9883
20.1747
20.1218
20.1066
20.1219
20.1066
20.1244
20.1057
20.1245
20.1058
20.0995
20.0995
20.0995
20.0995
20.0991
20.0991
20.0991
20.0991
20.1066
20.1218
20.1066
20.1219
20.1057
20.1244
20.1057
20.1245
20.1189
20.0482
20.119
20.0485
20.1743
19.9881
20.1746
19.9884
20.0477
20.1186
20.0479
20.1187
19.9878
20.1738
19.9879
20.1741
20.1216
20.1066
20.1217
20.1066
20.1241
20.1057
20.1243
20.1057
20.0996
20.0996
20.0996
20.0996
20.0991
20.0991
20.0991
20.0991
20.1066
20.1216
20.1066
20.1217
20.1057
20.1241
20.1057
20.1243
20.1186
20.0477
20.1187
20.048
20.1738
19.9878
20.1741
19.988
20.0474
20.1183
20.0475
20.1184
19.9876
20.1732
19.9877
20.1735
20.1214
20.1065
20.1215
20.1065
20.1238
20.1055
20.124
20.1056
20.0997
20.0997
20.0996
20.0996
20.099
20.099
20.0991
20.0991
20.1065
20.1214
20.1065
20.1215
20.1055
20.1238
20.1056
20.1239
20.1183
20.0474
20.1184
20.0476
20.1731
19.9877
20.1734
19.9877
20.0472
20.118
20.0472
20.1181
19.9877
20.1725
19.9876
20.1728
20.1211
20.1064
20.1212
20.1065
20.1234
20.1054
20.1236
20.1055
20.0997
20.0997
20.0997
20.0997
20.099
20.099
20.099
20.099
20.1064
20.1211
20.1065
20.1212
20.1054
20.1234
20.1054
20.1236
20.118
20.0472
20.1181
20.0473
20.1724
19.9877
20.1728
19.9877
20.0471
20.1177
20.0471
20.1179
19.9879
20.1717
19.9877
20.1721
20.1208
20.1063
20.1209
20.1064
20.1229
20.1052
20.1232
20.1053
20.0997
20.0997
20.0997
20.0997
20.0989
20.0989
20.0989
20.0989
20.1063
20.1208
20.1064
20.1209
20.1052
20.1229
20.1053
20.1231
20.1177
20.0471
20.1179
20.0471
20.1717
19.9879
20.1721
19.9878
20.0471
20.1175
20.0471
20.1176
19.9882
20.171
19.988
20.1714
20.1204
20.1062
20.1206
20.1063
20.1225
20.1049
20.1227
20.1051
20.0997
20.0997
20.0997
20.0997
20.0988
20.0988
20.0988
20.0988
20.1062
20.1204
20.1063
20.1206
20.1049
20.1224
20.105
20.1227
20.1175
20.0471
20.1176
20.0471
20.1709
19.9883
20.1713
19.9881
20.0473
20.1173
20.0472
20.1174
19.9888
20.1702
19.9885
20.1706
20.1201
20.1061
20.1203
20.1062
20.1219
20.1047
20.1222
20.1048
20.0998
20.0998
20.0997
20.0997
20.0987
20.0987
20.0987
20.0987
20.1061
20.1201
20.1061
20.1203
20.1047
20.1219
20.1048
20.1222
20.1172
20.0473
20.1174
20.0472
20.1702
19.9888
20.1706
19.9886
20.0476
20.117
20.0474
20.1171
19.9895
20.1694
19.9891
20.1698
20.1197
20.106
20.1199
20.106
20.1214
20.1045
20.1217
20.1046
20.0998
20.0998
20.0998
20.0998
20.0986
20.0986
20.0987
20.0987
20.106
20.1197
20.106
20.1199
20.1045
20.1214
20.1046
20.1217
20.117
20.0476
20.1171
20.0475
20.1693
19.9895
20.1697
19.9892
20.0481
20.1168
20.0478
20.1169
19.9904
20.1685
19.9899
20.1689
20.1194
20.1059
20.1196
20.106
20.1209
20.1043
20.1211
20.1044
20.0999
20.0999
20.0999
20.0999
20.0986
20.0986
20.0986
20.0986
20.1059
20.1194
20.1059
20.1195
20.1043
20.1209
20.1044
20.1211
20.1168
20.0481
20.1169
20.0479
20.1685
19.9904
20.1689
19.99
20.0487
20.1167
20.0484
20.1168
19.9914
20.1676
19.9909
20.1681
20.119
20.1059
20.1192
20.1059
20.1203
20.1041
20.1206
20.1042
20.1001
20.1001
20.1
20.1
20.0986
20.0986
20.0986
20.0986
20.1059
20.119
20.1059
20.1192
20.1041
20.1203
20.1042
20.1206
20.1167
20.0487
20.1167
20.0484
20.1676
19.9915
20.168
19.9909
20.0495
20.1165
20.0491
20.1166
19.9927
20.1667
19.992
20.1672
20.1187
20.1059
20.1189
20.1059
20.1198
20.104
20.1201
20.104
20.1003
20.1003
20.1002
20.1002
20.0987
20.0987
20.0986
20.0986
20.1059
20.1187
20.1059
20.1189
20.104
20.1198
20.104
20.12
20.1165
20.0495
20.1166
20.0491
20.1667
19.9928
20.1671
19.9921
20.0504
20.1164
20.0499
20.1164
19.9942
20.1658
19.9934
20.1662
20.1184
20.106
20.1186
20.1059
20.1193
20.1039
20.1195
20.104
20.1006
20.1006
20.1005
20.1005
20.0989
20.0989
20.0988
20.0988
20.106
20.1184
20.1059
20.1185
20.1039
20.1193
20.1039
20.1195
20.1164
20.0504
20.1164
20.0499
20.1657
19.9943
20.1662
19.9935
20.0515
20.1162
20.0509
20.1163
19.9959
20.1648
19.9951
20.1653
20.1181
20.1061
20.1183
20.106
20.1188
20.104
20.119
20.1039
20.101
20.101
20.1008
20.1008
20.0991
20.0991
20.099
20.099
20.1061
20.1181
20.106
20.1183
20.104
20.1188
20.1039
20.119
20.1162
20.0515
20.1163
20.0509
20.1647
19.996
20.1652
19.9951
20.0527
20.1161
20.0521
20.1162
19.9979
20.1637
19.9969
20.1642
20.1179
20.1064
20.118
20.1062
20.1183
20.1041
20.1186
20.104
20.1015
20.1015
20.1012
20.1012
20.0994
20.0994
20.0993
20.0993
20.1063
20.1179
20.1062
20.118
20.1041
20.1183
20.104
20.1185
20.1161
20.0528
20.1162
20.0521
20.1637
19.998
20.1642
19.997
20.0542
20.116
20.0534
20.1161
20.0002
20.1625
19.999
20.1631
20.1177
20.1067
20.1178
20.1065
20.118
20.1043
20.1181
20.1042
20.102
20.102
20.1017
20.1017
20.0999
20.0999
20.0997
20.0997
20.1067
20.1177
20.1065
20.1178
20.1043
20.1179
20.1042
20.1181
20.116
20.0542
20.1161
20.0535
20.1625
20.0003
20.1631
19.9991
20.0558
20.1158
20.055
20.1159
20.0028
20.1613
20.0015
20.1619
20.1176
20.1071
20.1176
20.1069
20.1177
20.1046
20.1178
20.1045
20.1027
20.1027
20.1023
20.1023
20.1004
20.1004
20.1002
20.1002
20.1071
20.1175
20.1069
20.1176
20.1046
20.1176
20.1044
20.1178
20.1158
20.0558
20.1159
20.055
20.1613
20.0028
20.1619
20.0015
20.0576
20.1157
20.0567
20.1158
20.0057
20.1599
20.0042
20.1606
20.1175
20.1076
20.1175
20.1073
20.1174
20.1051
20.1175
20.1049
20.1034
20.1034
20.103
20.103
20.1011
20.1011
20.1008
20.1008
20.1076
20.1175
20.1073
20.1175
20.1051
20.1174
20.1048
20.1175
20.1157
20.0576
20.1158
20.0567
20.1598
20.0058
20.1606
20.0043
20.0595
20.1155
20.0585
20.1156
20.009
20.1583
20.0073
20.1591
20.1175
20.1082
20.1175
20.1079
20.1173
20.1057
20.1174
20.1054
20.1042
20.1042
20.1038
20.1038
20.1019
20.1019
20.1015
20.1015
20.1082
20.1175
20.1079
20.1175
20.1057
20.1173
20.1054
20.1174
20.1155
20.0596
20.1156
20.0586
20.1582
20.0091
20.1591
20.0073
20.0616
20.1153
20.0605
20.1154
20.0128
20.1563
20.0108
20.1573
20.1176
20.1089
20.1176
20.1086
20.1173
20.1064
20.1173
20.106
20.1051
20.1051
20.1046
20.1046
20.1027
20.1027
20.1023
20.1023
20.1089
20.1176
20.1085
20.1176
20.1064
20.1173
20.106
20.1173
20.1153
20.0616
20.1154
20.0606
20.1563
20.0129
20.1573
20.0109
20.0631
20.1157
20.0625
20.1153
20.0174
20.1538
20.015
20.1551
20.1178
20.1097
20.1177
20.1093
20.1174
20.1072
20.1173
20.1068
20.106
20.106
20.1055
20.1055
20.1036
20.1036
20.1031
20.1031
20.1097
20.1178
20.1093
20.1177
20.1072
20.1174
20.1068
20.1173
20.1157
20.0631
20.1153
20.0625
20.1538
20.0174
20.1551
20.015
20.0645
20.116
20.063
20.1169
20.0227
20.1503
20.0199
20.1522
20.1185
20.1107
20.1181
20.1102
20.1178
20.1082
20.1176
20.1077
20.107
20.107
20.1065
20.1065
20.1046
20.1046
20.1041
20.1041
20.1107
20.1185
20.1102
20.1181
20.1082
20.1178
20.1077
20.1175
20.116
20.0646
20.1169
20.063
20.1503
20.0228
20.1522
20.02
20.1353
20.074
20.1211
20.0837
20.1296
20.077
20.1171
20.0855
20.0968
20.1
20.0987
20.1001
20.0978
20.0998
20.0987
20.0996
20.1001
20.1001
20.1001
20.1001
20.0999
20.0999
20.0996
20.0996
20.1
20.0968
20.1001
20.0987
20.0998
20.0978
20.0996
20.0987
20.074
20.1353
20.0837
20.121
20.077
20.1296
20.0855
20.1171
20.1334
20.0795
20.1343
20.0769
20.1275
20.0819
20.1289
20.0794
20.0942
20.0992
20.0954
20.0998
20.0963
20.0994
20.097
20.0997
20.0999
20.0999
20.1
20.1
20.0997
20.0997
20.0999
20.0999
20.0992
20.0942
20.0998
20.0954
20.0994
20.0963
20.0997
20.097
20.0795
20.1334
20.0769
20.1343
20.0819
20.1275
20.0794
20.1289
20.131
20.0835
20.1323
20.0817
20.1235
20.0863
20.1256
20.0842
20.0937
20.0982
20.0937
20.0987
20.0965
20.0987
20.0962
20.099
20.0992
20.0992
20.0996
20.0996
20.0991
20.0991
20.0994
20.0994
20.0982
20.0937
20.0987
20.0937
20.0987
20.0965
20.099
20.0962
20.0835
20.1309
20.0817
20.1322
20.0863
20.1235
20.0842
20.1256
20.1285
20.0857
20.1297
20.0848
20.1192
20.0892
20.1214
20.0879
20.0948
20.0977
20.0942
20.0979
20.0979
20.0984
20.0971
20.0985
20.0984
20.0984
20.0988
20.0988
20.0983
20.0983
20.0987
20.0987
20.0977
20.0948
20.0979
20.0942
20.0984
20.0979
20.0985
20.0971
20.0857
20.1284
20.0848
20.1297
20.0892
20.1192
20.0879
20.1213
20.1263
20.0866
20.1273
20.0863
20.1153
20.091
20.1172
20.0902
20.0961
20.0977
20.0954
20.0976
20.1
20.0985
20.0989
20.0984
20.0976
20.0976
20.098
20.098
20.0976
20.0976
20.0979
20.0979
20.0977
20.0961
20.0976
20.0954
20.0985
20.1
20.0984
20.0989
20.0866
20.1262
20.0863
20.1273
20.091
20.1153
20.0902
20.1172
20.1243
20.0868
20.1253
20.0868
20.1119
20.0918
20.1136
20.0915
20.0976
20.0981
20.0969
20.0979
20.1022
20.0991
20.1012
20.0988
20.0971
20.0971
20.0973
20.0973
20.0972
20.0972
20.0973
20.0973
20.0981
20.0976
20.0979
20.0969
20.0991
20.1022
20.0988
20.1012
20.0868
20.1243
20.0868
20.1253
20.0918
20.1119
20.0915
20.1135
20.1226
20.0864
20.1235
20.0866
20.1089
20.092
20.1103
20.092
20.0988
20.0987
20.0982
20.0984
20.1041
20.0998
20.1032
20.0994
20.097
20.097
20.097
20.097
20.097
20.097
20.097
20.097
20.0987
20.0988
20.0984
20.0982
20.0998
20.1041
20.0994
20.1032
20.0864
20.1226
20.0866
20.1234
20.092
20.1089
20.0919
20.1103
20.1211
20.0859
20.1218
20.0862
20.1062
20.0919
20.1075
20.092
20.0999
20.0994
20.0994
20.0991
20.1057
20.1006
20.1049
20.1002
20.097
20.097
20.097
20.097
20.097
20.097
20.097
20.097
20.0994
20.0999
20.0991
20.0994
20.1006
20.1056
20.1002
20.1049
20.0859
20.1211
20.0862
20.1218
20.092
20.1062
20.092
20.1075
20.1197
20.0852
20.1204
20.0856
20.1039
20.0916
20.105
20.0918
20.1007
20.1002
20.1003
20.0998
20.1068
20.1015
20.1063
20.1011
20.0973
20.0973
20.0972
20.0971
20.0972
20.0972
20.0971
20.0971
20.1002
20.1007
20.0998
20.1003
20.1015
20.1068
20.101
20.1063
20.0852
20.1197
20.0856
20.1203
20.0917
20.1039
20.0918
20.105
20.1184
20.0846
20.119
20.0849
20.1019
20.0912
20.1029
20.0915
20.1014
20.1009
20.1011
20.1005
20.1078
20.1023
20.1074
20.1019
20.0977
20.0977
20.0975
20.0975
20.0976
20.0976
20.0974
20.0974
20.1009
20.1014
20.1005
20.1011
20.1023
20.1078
20.1019
20.1074
20.0846
20.1183
20.0849
20.119
20.0912
20.1019
20.0915
20.1029
20.1171
20.0839
20.1177
20.0842
20.1001
20.0908
20.1009
20.091
20.1019
20.1015
20.1016
20.1012
20.1087
20.103
20.1083
20.1027
20.0981
20.0981
20.0979
20.0979
20.0979
20.0979
20.0977
20.0977
20.1015
20.1019
20.1012
20.1016
20.103
20.1086
20.1026
20.1082
20.0839
20.1171
20.0842
20.1177
20.0908
20.1001
20.091
20.1009
20.116
20.0834
20.1165
20.0836
20.0985
20.0903
20.0992
20.0906
20.1022
20.1021
20.102
20.1018
20.1093
20.1037
20.109
20.1033
20.0985
20.0985
20.0983
20.0983
20.0984
20.0984
20.0981
20.0981
20.1021
20.1022
20.1018
20.102
20.1036
20.1093
20.1033
20.109
20.0834
20.1159
20.0836
20.1165
20.0903
20.0985
20.0906
20.0992
20.1149
20.0828
20.1154
20.0831
20.097
20.0899
20.0977
20.0901
20.1025
20.1026
20.1024
20.1024
20.1098
20.1042
20.1096
20.1039
20.0989
20.0989
20.0987
20.0987
20.0988
20.0988
20.0986
20.0986
20.1026
20.1025
20.1024
20.1023
20.1042
20.1098
20.1039
20.1096
20.0829
20.1148
20.0831
20.1154
20.0899
20.097
20.0901
20.0977
20.1139
20.0824
20.1144
20.0826
20.0958
20.0895
20.0964
20.0897
20.1027
20.1031
20.1026
20.1029
20.1101
20.1047
20.11
20.1045
20.0994
20.0994
20.0992
20.0992
20.0991
20.0991
20.0989
20.0989
20.1031
20.1027
20.1028
20.1026
20.1047
20.1101
20.1044
20.11
20.0824
20.1138
20.0826
20.1143
20.0895
20.0958
20.0897
20.0964
20.1129
20.082
20.1134
20.0822
20.0946
20.0891
20.0952
20.0893
20.1029
20.1034
20.1028
20.1033
20.1104
20.1051
20.1103
20.1049
20.0997
20.0997
20.0995
20.0995
20.0995
20.0995
20.0993
20.0993
20.1034
20.1029
20.1033
20.1028
20.105
20.1104
20.1049
20.1103
20.082
20.1129
20.0822
20.1134
20.0891
20.0946
20.0893
20.0952
20.1121
20.0817
20.1125
20.0818
20.0937
20.0888
20.0941
20.089
20.103
20.1037
20.1029
20.1036
20.1105
20.1054
20.1104
20.1052
20.1
20.1
20.0999
20.0999
20.0998
20.0998
20.0996
20.0996
20.1037
20.1029
20.1036
20.1029
20.1053
20.1105
20.1052
20.1104
20.0817
20.112
20.0818
20.1124
20.0888
20.0936
20.089
20.0941
20.1113
20.0814
20.1117
20.0815
20.0928
20.0885
20.0932
20.0886
20.103
20.104
20.103
20.1039
20.1107
20.1056
20.1106
20.1055
20.1003
20.1003
20.1002
20.1002
20.1
20.1
20.0999
20.0999
20.104
20.103
20.1039
20.103
20.1056
20.1107
20.1055
20.1106
20.0814
20.1112
20.0815
20.1116
20.0885
20.0928
20.0886
20.0932
20.1106
20.0812
20.1109
20.0813
20.092
20.0882
20.0924
20.0884
20.103
20.1042
20.103
20.1041
20.1108
20.1057
20.1107
20.1057
20.1006
20.1006
20.1005
20.1005
20.1002
20.1002
20.1001
20.1001
20.1042
20.103
20.1041
20.103
20.1057
20.1108
20.1057
20.1107
20.0812
20.1105
20.0813
20.1109
20.0882
20.092
20.0884
20.0924
20.11
20.081
20.1103
20.0811
20.0914
20.088
20.0917
20.0881
20.103
20.1043
20.103
20.1043
20.1108
20.1058
20.1108
20.1058
20.1008
20.1008
20.1007
20.1007
20.1004
20.1004
20.1003
20.1003
20.1043
20.103
20.1043
20.103
20.1058
20.1108
20.1058
20.1108
20.081
20.1099
20.0811
20.1102
20.088
20.0914
20.0881
20.0917
20.1094
20.0809
20.1097
20.0809
20.0908
20.0878
20.0911
20.0879
20.103
20.1045
20.103
20.1044
20.1108
20.1059
20.1108
20.1059
20.1009
20.1009
20.1009
20.1009
20.1005
20.1005
20.1004
20.1004
20.1044
20.103
20.1044
20.103
20.1059
20.1107
20.1059
20.1108
20.0809
20.1094
20.081
20.1096
20.0878
20.0908
20.0879
20.0911
20.109
20.0808
20.1092
20.0808
20.0904
20.0877
20.0906
20.0878
20.103
20.1045
20.103
20.1045
20.1107
20.1059
20.1107
20.1059
20.1011
20.1011
20.101
20.101
20.1006
20.1006
20.1005
20.1005
20.1045
20.103
20.1045
20.103
20.1059
20.1107
20.1059
20.1107
20.0808
20.1089
20.0809
20.1092
20.0877
20.0904
20.0878
20.0906
20.1086
20.0808
20.1088
20.0808
20.0901
20.0876
20.0902
20.0876
20.103
20.1046
20.103
20.1046
20.1106
20.1059
20.1107
20.1059
20.1012
20.1012
20.1012
20.1012
20.1007
20.1007
20.1006
20.1006
20.1046
20.103
20.1046
20.103
20.1059
20.1106
20.1059
20.1107
20.0808
20.1086
20.0808
20.1088
20.0876
20.0901
20.0877
20.0902
20.1084
20.0808
20.1085
20.0808
20.0899
20.0875
20.09
20.0876
20.103
20.1047
20.103
20.1046
20.1105
20.1059
20.1106
20.1059
20.1014
20.1014
20.1013
20.1013
20.1008
20.1008
20.1007
20.1007
20.1047
20.103
20.1046
20.103
20.1059
20.1105
20.1059
20.1106
20.0809
20.1083
20.0808
20.1084
20.0875
20.0898
20.0876
20.0899
20.1082
20.0809
20.1083
20.0809
20.0897
20.0875
20.0898
20.0875
20.103
20.1047
20.103
20.1047
20.1105
20.1059
20.1105
20.1059
20.1015
20.1015
20.1014
20.1014
20.1009
20.1009
20.1008
20.1008
20.1047
20.103
20.1047
20.103
20.1059
20.1104
20.1059
20.1105
20.0809
20.1081
20.0809
20.1082
20.0875
20.0897
20.0875
20.0898
20.1081
20.0811
20.1081
20.081
20.0897
20.0875
20.0897
20.0875
20.103
20.1048
20.103
20.1048
20.1104
20.1059
20.1104
20.1059
20.1017
20.1017
20.1016
20.1016
20.101
20.101
20.1009
20.1009
20.1048
20.103
20.1048
20.103
20.1059
20.1104
20.1059
20.1104
20.0811
20.1081
20.081
20.1081
20.0875
20.0897
20.0875
20.0897
20.1081
20.0812
20.1081
20.0811
20.0898
20.0876
20.0898
20.0875
20.1031
20.1049
20.1031
20.1049
20.1103
20.1059
20.1103
20.1059
20.1019
20.1019
20.1018
20.1018
20.1011
20.1011
20.101
20.101
20.1049
20.1031
20.1049
20.103
20.1059
20.1103
20.1059
20.1103
20.0812
20.1081
20.0811
20.1081
20.0876
20.0898
20.0876
20.0898
20.1082
20.0816
20.1081
20.0814
20.09
20.0877
20.0899
20.0876
20.1032
20.1051
20.1031
20.105
20.1102
20.106
20.1102
20.1059
20.1021
20.1021
20.102
20.102
20.1013
20.1013
20.1012
20.1012
20.105
20.1032
20.105
20.1031
20.106
20.1102
20.1059
20.1102
20.0816
20.1082
20.0814
20.1081
20.0877
20.09
20.0876
20.0899
20.1084
20.0821
20.1083
20.0818
20.0904
20.0878
20.0902
20.0877
20.1033
20.1052
20.1032
20.1051
20.1102
20.1061
20.1102
20.106
20.1024
20.1024
20.1023
20.1023
20.1016
20.1016
20.1014
20.1014
20.1052
20.1033
20.1051
20.1032
20.106
20.1101
20.106
20.1102
20.0821
20.1083
20.0819
20.1082
20.0878
20.0904
20.0877
20.0902
20.1086
20.0826
20.1085
20.0823
20.0908
20.0879
20.0906
20.0879
20.1034
20.1054
20.1033
20.1053
20.1101
20.1062
20.1101
20.1061
20.1028
20.1028
20.1026
20.1026
20.1019
20.1019
20.1017
20.1017
20.1054
20.1034
20.1053
20.1033
20.1062
20.1101
20.1061
20.1101
20.0826
20.1086
20.0824
20.1085
20.0879
20.0908
20.0879
20.0906
20.109
20.0832
20.1088
20.083
20.0914
20.088
20.0911
20.088
20.1036
20.1057
20.1035
20.1056
20.1101
20.1064
20.1101
20.1063
20.1032
20.1032
20.103
20.103
20.1023
20.1023
20.1021
20.1021
20.1057
20.1036
20.1056
20.1035
20.1064
20.1101
20.1063
20.1101
20.0833
20.1089
20.083
20.1088
20.088
20.0913
20.088
20.0911
20.1094
20.0834
20.1092
20.0833
20.092
20.0885
20.0917
20.0883
20.1038
20.1061
20.1037
20.1059
20.1102
20.1066
20.1101
20.1065
20.1037
20.1037
20.1034
20.1034
20.1027
20.1027
20.1025
20.1025
20.1061
20.1038
20.1059
20.1037
20.1066
20.1102
20.1065
20.1101
20.0834
20.1094
20.0833
20.1092
20.0885
20.092
20.0883
20.0917
20.1099
20.0837
20.1097
20.0836
20.0927
20.089
20.0924
20.0888
20.1041
20.1065
20.1039
20.1063
20.1102
20.107
20.1102
20.1068
20.1043
20.1042
20.104
20.104
20.1032
20.1032
20.103
20.103
20.1065
20.1041
20.1063
20.1039
20.107
20.1102
20.1068
20.1102
20.0837
20.1099
20.0836
20.1096
20.089
20.0927
20.0888
20.0923
20.1104
20.0841
20.1102
20.0839
20.0936
20.0895
20.0931
20.0892
20.1044
20.107
20.1042
20.1067
20.1104
20.1074
20.1103
20.1072
20.1049
20.1049
20.1046
20.1046
20.1039
20.1039
20.1035
20.1035
20.107
20.1044
20.1067
20.1042
20.1074
20.1103
20.1072
20.1103
20.0841
20.1104
20.0839
20.1101
20.0895
20.0935
20.0892
20.0931
20.1109
20.0846
20.1107
20.0844
20.0944
20.09
20.094
20.0897
20.1048
20.1075
20.1046
20.1072
20.1105
20.1079
20.1104
20.1076
20.1056
20.1056
20.1052
20.1052
20.1045
20.1045
20.1042
20.1042
20.1075
20.1048
20.1072
20.1046
20.1079
20.1105
20.1076
20.1104
20.0846
20.1109
20.0844
20.1106
20.09
20.0944
20.0897
20.094
20.1112
20.0853
20.1111
20.0849
20.0953
20.0905
20.0949
20.0902
20.1053
20.1081
20.105
20.1078
20.1108
20.1084
20.1107
20.1081
20.1063
20.1063
20.106
20.106
20.1053
20.1053
20.1049
20.1049
20.1081
20.1053
20.1078
20.105
20.1084
20.1108
20.1081
20.1106
20.0853
20.1112
20.0849
20.1111
20.0905
20.0953
20.0902
20.0949
20.1113
20.0861
20.1113
20.0856
20.0961
20.0911
20.0957
20.0908
20.1059
20.1088
20.1056
20.1085
20.1111
20.1091
20.111
20.1087
20.1071
20.1071
20.1067
20.1067
20.1061
20.1061
20.1057
20.1057
20.1088
20.1059
20.1085
20.1056
20.1091
20.1111
20.1087
20.1109
20.0861
20.1113
20.0857
20.1113
20.0911
20.0961
20.0908
20.0957
20.1108
20.0875
20.1112
20.0867
20.0966
20.092
20.0964
20.0915
20.1065
20.1096
20.1062
20.1092
20.1115
20.1098
20.1113
20.1094
20.108
20.108
20.1075
20.1075
20.1069
20.1069
20.1065
20.1065
20.1096
20.1065
20.1092
20.1062
20.1098
20.1115
20.1094
20.1113
20.0875
20.1108
20.0867
20.1111
20.092
20.0966
20.0915
20.0964
20.1083
20.0907
20.1101
20.0886
20.0958
20.0942
20.0966
20.0928
20.1073
20.1105
20.1069
20.11
20.112
20.1106
20.1118
20.1102
20.1088
20.1088
20.1084
20.1084
20.1078
20.1078
20.1073
20.1073
20.1105
20.1073
20.11
20.1069
20.1106
20.112
20.1102
20.1117
20.0907
20.1083
20.0886
20.1101
20.0942
20.0958
20.0928
20.0966
20.1137
20.0856
20.1058
20.0936
20.1002
20.0909
20.0944
20.0963
20.1083
20.1116
20.1079
20.111
20.1129
20.1117
20.1125
20.1111
20.1096
20.1096
20.1092
20.1092
20.1087
20.1087
20.1083
20.1083
20.1116
20.1083
20.111
20.1079
20.1117
20.1129
20.1111
20.1125
20.0856
20.1137
20.0936
20.1058
20.0909
20.1002
20.0963
20.0944
20.1423
20.0694
20.1257
20.0804
20.1394
20.0709
20.1237
20.0815
20.0945
20.0998
20.0975
20.1
20.0955
20.0998
20.0979
20.0999
20.1001
20.1001
20.1001
20.1001
20.1
20.1
20.0999
20.0999
20.0998
20.0945
20.1
20.0975
20.0999
20.0954
20.0999
20.0979
20.0694
20.1423
20.0804
20.1257
20.0709
20.1393
20.0815
20.1237
20.1391
20.0788
20.1403
20.0746
20.137
20.0785
20.1379
20.0751
20.0905
20.0981
20.0923
20.0992
20.092
20.0987
20.0937
20.0995
20.0999
20.0999
20.1001
20.1001
20.0999
20.0999
20.1
20.1
20.0981
20.0905
20.0992
20.0923
20.0987
20.092
20.0995
20.0937
20.0788
20.139
20.0746
20.1402
20.0785
20.137
20.0751
20.1379
20.1369
20.0846
20.138
20.082
20.1349
20.0833
20.136
20.0812
20.0892
20.0962
20.0895
20.0971
20.0911
20.0972
20.0913
20.0979
20.0991
20.0991
20.0996
20.0996
20.0992
20.0992
20.0996
20.0996
20.0962
20.0892
20.0971
20.0895
20.0972
20.0911
20.0979
20.0913
20.0846
20.1369
20.082
20.138
20.0833
20.1349
20.0812
20.136
20.135
20.0878
20.1359
20.0865
20.1329
20.0859
20.1339
20.0849
20.0895
20.0952
20.0893
20.0956
20.0916
20.0964
20.0912
20.0967
20.098
20.098
20.0986
20.0986
20.0983
20.0983
20.0987
20.0987
20.0952
20.0895
20.0956
20.0893
20.0964
20.0916
20.0967
20.0912
20.0878
20.1349
20.0865
20.1358
20.086
20.1329
20.0849
20.1339
20.1335
20.0894
20.1342
20.0888
20.1313
20.0871
20.1321
20.0867
20.0903
20.0948
20.0899
20.0949
20.0926
20.0963
20.0921
20.0963
20.097
20.097
20.0975
20.0975
20.0974
20.0974
20.0978
20.0978
20.0948
20.0903
20.0949
20.0899
20.0963
20.0926
20.0963
20.0921
20.0894
20.1334
20.0888
20.1342
20.0871
20.1313
20.0867
20.1321
20.1322
20.09
20.1328
20.0898
20.1299
20.0874
20.1306
20.0873
20.0911
20.0949
20.0907
20.0948
20.0935
20.0965
20.0931
20.0964
20.0964
20.0964
20.0966
20.0966
20.0969
20.0969
20.0971
20.0971
20.0949
20.0911
20.0948
20.0907
20.0965
20.0935
20.0964
20.0931
20.09
20.1322
20.0898
20.1328
20.0874
20.1299
20.0873
20.1306
20.1311
20.0901
20.1317
20.0901
20.1287
20.0872
20.1293
20.0873
20.0918
20.0951
20.0915
20.095
20.0944
20.097
20.094
20.0968
20.0961
20.0961
20.0962
20.0962
20.0966
20.0966
20.0967
20.0967
20.0951
20.0918
20.095
20.0915
20.097
20.0944
20.0968
20.094
20.0901
20.1311
20.0901
20.1316
20.0872
20.1286
20.0873
20.1293
20.1301
20.0899
20.1306
20.09
20.1275
20.0867
20.1281
20.087
20.0923
20.0956
20.0921
20.0953
20.0951
20.0976
20.0948
20.0973
20.0961
20.0961
20.096
20.096
20.0967
20.0967
20.0966
20.0966
20.0956
20.0923
20.0953
20.0921
20.0976
20.0951
20.0973
20.0948
20.0899
20.1301
20.09
20.1306
20.0867
20.1275
20.087
20.1281
20.1292
20.0895
20.1296
20.0897
20.1264
20.0862
20.127
20.0865
20.0927
20.096
20.0925
20.0958
20.0956
20.0982
20.0954
20.0979
20.0963
20.0963
20.0961
20.0961
20.0969
20.0969
20.0968
20.0968
20.096
20.0927
20.0958
20.0925
20.0982
20.0956
20.0979
20.0954
20.0895
20.1291
20.0897
20.1296
20.0862
20.1264
20.0865
20.127
20.1282
20.0891
20.1287
20.0893
20.1254
20.0856
20.1259
20.0859
20.093
20.0965
20.0929
20.0963
20.0961
20.0988
20.0959
20.0985
20.0966
20.0966
20.0964
20.0964
20.0973
20.0973
20.0971
20.0971
20.0965
20.093
20.0963
20.0929
20.0987
20.0961
20.0985
20.0959
20.0891
20.1282
20.0893
20.1286
20.0856
20.1254
20.0859
20.1259
20.1273
20.0887
20.1278
20.0889
20.1244
20.085
20.1249
20.0853
20.0932
20.097
20.0931
20.0967
20.0964
20.0993
20.0962
20.099
20.097
20.097
20.0968
20.0968
20.0977
20.0977
20.0975
20.0975
20.097
20.0932
20.0967
20.0931
20.0993
20.0964
20.099
20.0962
20.0886
20.1273
20.0889
20.1277
20.085
20.1244
20.0853
20.1249
20.1264
20.0882
20.1268
20.0884
20.1234
20.0845
20.1239
20.0847
20.0934
20.0974
20.0933
20.0972
20.0966
20.0998
20.0965
20.0996
20.0975
20.0975
20.0972
20.0972
20.0982
20.0982
20.0979
20.0979
20.0974
20.0934
20.0972
20.0933
20.0998
20.0966
20.0996
20.0965
20.0882
20.1264
20.0884
20.1268
20.0845
20.1234
20.0847
20.1239
20.1255
20.0878
20.126
20.088
20.1225
20.084
20.1229
20.0842
20.0935
20.0978
20.0935
20.0976
20.0968
20.1003
20.0967
20.1001
20.0979
20.0979
20.0977
20.0977
20.0986
20.0986
20.0984
20.0984
20.0978
20.0935
20.0976
20.0935
20.1003
20.0968
20.1001
20.0967
20.0878
20.1255
20.088
20.1259
20.084
20.1225
20.0842
20.1229
20.1247
20.0874
20.1251
20.0876
20.1216
20.0835
20.122
20.0837
20.0937
20.0982
20.0936
20.098
20.0969
20.1007
20.0968
20.1005
20.0983
20.0983
20.0981
20.0981
20.099
20.099
20.0988
20.0988
20.0982
20.0937
20.098
20.0936
20.1007
20.0969
20.1005
20.0968
20.0874
20.1247
20.0876
20.1251
20.0835
20.1216
20.0837
20.122
20.1239
20.087
20.1243
20.0872
20.1208
20.0831
20.1212
20.0833
20.0937
20.0985
20.0937
20.0984
20.097
20.1011
20.0969
20.1009
20.0987
20.0987
20.0985
20.0985
20.0994
20.0994
20.0992
20.0992
20.0985
20.0938
20.0984
20.0937
20.1011
20.097
20.1009
20.0969
20.087
20.1239
20.0872
20.1243
20.0831
20.1207
20.0833
20.1211
20.1232
20.0867
20.1236
20.0869