/*--------------------------------*- C++ -*----------------------------------*\
  =========                 |
  \\      /  F ield         | OpenFOAM: The Open Source CFD Toolbox
   \\    /   O peration     | Website:  https://openfoam.org
    \\  /    A nd           | Version:  9
     \\/     M anipulation  |
\*---------------------------------------------------------------------------*/
FoamFile
{
    format      ascii;
    class       volVectorField;
    location    "3.3";
    object      U;
}
// * * * * * * * * * * * * * * * * * * * * * * * * * * * * * * * * * * * * * //

dimensions      [0 1 -1 0 0 0 0];

internalField   nonuniform List<vector> 
36360
(
(0.0041745 -0.124645 -0.497012)
(-0.0009318 -0.090323 0.000215087)
(0.00449475 -0.12916 -0.499751)
(-0.00236806 -0.0826689 0.000131433)
(0.00357569 -0.143533 -0.500694)
(0.00461714 -0.0697525 -7.13959e-06)
(0.0085573 -0.154088 -0.501796)
(0.00372319 -0.071264 -1.57677e-06)
(0.00287175 -0.0960401 -0.000139967)
(0.000631068 -0.100021 -6.98033e-06)
(0.000759976 -0.0944206 -9.22273e-05)
(-0.00134003 -0.0983903 -4.26141e-06)
(0.00641113 -0.0958315 1.87499e-05)
(0.00445279 -0.104982 -4.191e-06)
(0.00695362 -0.102715 -3.55384e-06)
(0.00624384 -0.10894 -7.16593e-06)
(-0.00167595 -0.101864 1.01953e-07)
(-0.00167397 -0.101866 -1.02318e-07)
(-0.00293166 -0.0997449 -2.15105e-07)
(-0.00293049 -0.0997465 2.14063e-07)
(0.00413181 -0.1055 -3.70586e-07)
(0.0041312 -0.105502 3.72632e-07)
(0.00647552 -0.108109 -1.94132e-06)
(0.00647499 -0.108112 1.94406e-06)
(0.000632597 -0.100024 6.9865e-06)
(0.00287174 -0.0960445 0.000139995)
(-0.00133808 -0.0983939 4.26287e-06)
(0.000760517 -0.0944256 9.22532e-05)
(0.00445209 -0.104985 4.19848e-06)
(0.00640976 -0.0958362 -1.87346e-05)
(0.00624304 -0.108944 7.16738e-06)
(0.00695256 -0.102719 3.55395e-06)
(-0.000931601 -0.0903251 -0.000215096)
(0.00417474 -0.124637 0.497012)
(-0.00236817 -0.0826722 -0.000131437)
(0.00449498 -0.129151 0.499751)
(0.0046158 -0.0697583 7.10025e-06)
(0.00357531 -0.143518 0.500694)
(0.0037209 -0.0712674 1.56483e-06)
(0.00855711 -0.154072 0.501796)
(0.00638613 -0.121273 -0.494922)
(-0.00495345 -0.0936595 0.000153334)
(0.00570381 -0.123846 -0.496028)
(-0.00293885 -0.0916863 0.000189268)
(0.00330054 -0.137016 -0.500706)
(-0.0020256 -0.0681426 -0.000141492)
(0.00296477 -0.140361 -0.500936)
(0.0013511 -0.0664978 -6.71038e-05)
(0.00229552 -0.0963025 -6.42877e-05)
(0.00203706 -0.100165 -9.06448e-06)
(0.00299342 -0.0961302 -0.000105)
(0.00193709 -0.100317 -7.71234e-06)
(0.00371422 -0.0866355 0.000171147)
(0.00279944 -0.0982452 -5.45718e-08)
(0.00543677 -0.0895693 9.10833e-05)
(0.00376843 -0.100999 -2.76285e-06)
(0.00139831 -0.102085 -1.93311e-06)
(0.00139837 -0.102086 1.93813e-06)
(0.000606278 -0.102361 5.23612e-08)
(0.00060688 -0.102362 -5.05711e-08)
(0.00222092 -0.101749 -1.90618e-06)
(0.00222067 -0.10175 1.91193e-06)
(0.00272144 -0.10354 -5.47443e-07)
(0.00272126 -0.103541 5.51016e-07)
(0.00203693 -0.100168 9.08026e-06)
(0.00229549 -0.0963056 6.43094e-05)
(0.00193737 -0.10032 7.72401e-06)
(0.00299324 -0.0961337 0.000105024)
(0.00279865 -0.0982485 7.08091e-08)
(0.00371361 -0.0866419 -0.000171103)
(0.0037677 -0.101001 2.77581e-06)
(0.0054355 -0.0895751 -9.10565e-05)
(-0.00495228 -0.0936601 -0.000153383)
(0.00638578 -0.121265 0.494923)
(-0.00293816 -0.0916872 -0.000189296)
(0.0057037 -0.123838 0.496029)
(-0.00202497 -0.0681483 0.000141377)
(0.00329985 -0.137001 0.500706)
(0.00135089 -0.0665041 6.70306e-05)
(0.0029642 -0.140346 0.500936)
(0.00695436 -0.116911 -0.493126)
(-0.00707725 -0.0958843 5.64388e-05)
(0.00672053 -0.118915 -0.493947)
(-0.00625751 -0.0949092 0.000107957)
(0.00393805 -0.129734 -0.500366)
(-0.0047556 -0.0736199 -0.000309389)
(0.00363831 -0.133246 -0.50052)
(-0.00381518 -0.0706465 -0.000223708)
(0.000948801 -0.0959831 2.31402e-05)
(0.00139254 -0.0992082 7.63841e-06)
(0.00153991 -0.0961363 -1.99737e-05)
(0.00176453 -0.0997466 -3.64914e-06)
(0.00189826 -0.0835458 0.0003304)
(0.00130495 -0.0942413 2.07828e-05)
(0.00258131 -0.0845688 0.00025297)
(0.00189345 -0.0959246 8.14148e-06)
(0.0012013 -0.101074 -2.69203e-06)
(0.00120132 -0.101075 2.71274e-06)
(0.00143836 -0.101631 -3.13781e-06)
(0.00143829 -0.101631 3.14082e-06)
(0.00108648 -0.0982564 -2.15515e-06)
(0.00108635 -0.0982576 2.17107e-06)
(0.00163043 -0.0997692 -2.53742e-06)
(0.00163019 -0.0997703 2.54528e-06)
(0.00139241 -0.0992104 -7.65333e-06)
(0.000948904 -0.0959856 -2.31438e-05)
(0.00176433 -0.099749 3.66043e-06)
(0.00154002 -0.0961389 1.99945e-05)
(0.00130471 -0.0942453 -2.07513e-05)
(0.00189816 -0.0835522 -0.000330312)
(0.00189294 -0.0959284 -8.12006e-06)
(0.00258104 -0.0845753 -0.000252906)
(-0.00707558 -0.0958844 -5.6521e-05)
(0.00695327 -0.116904 0.493128)
(-0.00625606 -0.0949095 -0.000108027)
(0.00671978 -0.118907 0.493949)
(-0.00475408 -0.0736245 0.000309178)
(0.00393675 -0.129719 0.500366)
(-0.00381409 -0.0706518 0.000223544)
(0.00363726 -0.133231 0.50052)
(0.00730868 -0.113673 -0.49166)
(-0.00791792 -0.0974326 -5.30642e-05)
(0.00714316 -0.11518 -0.49233)
(-0.00758723 -0.0967138 1.90728e-06)
(0.00430963 -0.123524 -0.500096)
(-0.00559786 -0.0793937 -0.000478979)
(0.00415289 -0.126497 -0.50022)
(-0.00526331 -0.0766096 -0.000395193)
(0.000259955 -0.0960776 9.57002e-05)
(0.00084071 -0.0983987 4.02156e-05)
(0.000531036 -0.0959658 6.20515e-05)
(0.00107919 -0.0987484 2.29525e-05)
(0.00118971 -0.083457 0.000462823)
(0.000704683 -0.0922987 5.50558e-05)
(0.0014531 -0.0832612 0.000400678)
(0.000943591 -0.0930907 3.68209e-05)
(0.000758601 -0.100067 1.66683e-06)
(0.000758565 -0.100068 -1.62961e-06)
(0.000951709 -0.100534 -1.06436e-06)
(0.000951559 -0.100535 1.05823e-06)
(0.000576736 -0.0963871 1.81679e-06)
(0.000576692 -0.0963884 -1.77533e-06)
(0.000763129 -0.0971855 -6.74579e-07)
(0.000763039 -0.0971868 7.09068e-07)
(0.000840704 -0.0984007 -4.01313e-05)
(0.000260251 -0.0960795 -9.56263e-05)
(0.00107904 -0.0987505 -2.27889e-05)
(0.000531547 -0.095968 -6.19231e-05)
(0.000704677 -0.0923027 -5.49741e-05)
(0.00118969 -0.0834629 -0.00046266)
(0.000943496 -0.0930948 -3.67495e-05)
(0.0014531 -0.0832674 -0.000400531)
(-0.00791576 -0.0974322 5.29396e-05)
(0.00730692 -0.113666 0.491663)
(-0.00758522 -0.0967136 -2.04662e-06)
(0.00714173 -0.115173 0.492333)
(-0.00559569 -0.0793969 0.000478672)
(0.00430779 -0.123509 0.500097)
(-0.00526145 -0.0766135 0.000394943)
(0.00415122 -0.126482 0.500221)
(0.00757822 -0.111213 -0.490432)
(-0.00829631 -0.0986082 -0.000159115)
(0.00745029 -0.112362 -0.490986)
(-0.0081382 -0.0980613 -0.000107081)
(0.00449483 -0.118397 -0.499868)
(-0.00597106 -0.0841221 -0.000635294)
(0.00440897 -0.120829 -0.499973)
(-0.00581204 -0.0819055 -0.000559265)
(-6.48788e-06 -0.0965261 0.000146994)
(0.000538425 -0.0980148 7.7149e-05)
(9.79708e-05 -0.0962745 0.000123938)
(0.000666772 -0.09816 5.85337e-05)
(0.000966551 -0.0845885 0.000562907)
(0.000403578 -0.0914251 9.44107e-05)
(0.00104236 -0.0839333 0.000516678)
(0.000533595 -0.091764 7.44916e-05)
(0.000527397 -0.0993889 9.48647e-06)
(0.000527422 -0.0993896 -9.50171e-06)
(0.000622588 -0.099688 5.26031e-06)
(0.000622579 -0.0996887 -5.23992e-06)
(0.000398981 -0.095256 8.97366e-06)
(0.000398982 -0.0952572 -9.25714e-06)
(0.000467202 -0.095762 5.14864e-06)
(0.000467182 -0.0957632 -5.13291e-06)
(0.000538556 -0.0980164 -7.70479e-05)
(-6.31116e-06 -0.0965277 -0.000146891)
(0.000666772 -0.0981619 -5.84744e-05)
(9.81406e-05 -0.0962762 -0.000123874)
(0.00040374 -0.0914289 -9.39894e-05)
(0.000966481 -0.0845936 -0.000562345)
(0.000533634 -0.0917678 -7.43788e-05)
(0.00104232 -0.083939 -0.000516464)
(-0.00829383 -0.0986074 0.000158918)
(0.00757584 -0.111207 0.490436)
(-0.00813591 -0.0980607 0.000106941)
(0.00744811 -0.112356 0.49099)
(-0.0059685 -0.0841243 0.000634657)
(0.0044925 -0.118383 0.499869)
(-0.00580965 -0.0819083 0.000558894)
(0.00440679 -0.120815 0.499973)
(0.00779357 -0.109292 -0.4894)
(-0.00849291 -0.0994695 -0.000254661)
(0.00768894 -0.110197 -0.489855)
(-0.00840754 -0.0990756 -0.000208468)
(0.00460998 -0.114231 -0.499673)
(-0.0061519 -0.0877019 -0.000771847)
(0.00455119 -0.116207 -0.499761)
(-0.00606948 -0.0860466 -0.000706039)
(-7.72689e-05 -0.097116 0.000179526)
(0.000385549 -0.0979249 0.000112601)
(-5.7183e-05 -0.0968137 0.000165351)
(0.000447718 -0.0979427 9.52811e-05)
(0.000940955 -0.0861546 0.000634126)
(0.000216673 -0.0911401 0.000132209)
(0.000935057 -0.0853457 0.00060148)
(0.000300335 -0.0912299 0.000113545)
(0.000407925 -0.0989788 1.91353e-05)
(0.000407966 -0.0989794 -1.90904e-05)
(0.000459186 -0.0991572 1.41436e-05)
(0.000459191 -0.0991578 -1.42024e-05)
(0.000317257 -0.0944849 1.81438e-05)
(0.000317231 -0.0944862 -1.82503e-05)
(0.000352133 -0.0948368 1.36079e-05)
(0.000352141 -0.094838 -1.3441e-05)
(0.000385673 -0.0979264 -0.00011246)
(-7.68868e-05 -0.0971171 -0.000179553)
(0.000447718 -0.0979444 -9.53981e-05)
(-5.68352e-05 -0.096815 -0.000165161)
(0.000216898 -0.0911435 -0.000132071)
(0.000940853 -0.0861588 -0.000633798)
(0.000300342 -0.0912335 -0.000113675)
(0.000935168 -0.0853504 -0.000601464)
(-0.00848998 -0.0994686 0.000254395)
(0.00779075 -0.109286 0.489406)
(-0.00840481 -0.0990748 0.000208304)
(0.00768626 -0.110192 0.489861)
(-0.00614897 -0.0877034 0.00077124)
(0.00460732 -0.114219 0.499674)
(-0.00606673 -0.0860484 0.000705693)
(0.00454855 -0.116194 0.499762)
(0.00797243 -0.107744 -0.488536)
(-0.0086042 -0.100061 -0.000337195)
(0.00788465 -0.108479 -0.488906)
(-0.00855506 -0.0997951 -0.00029749)
(0.00468725 -0.110832 -0.499508)
(-0.00625363 -0.0903073 -0.000887814)
(0.00464356 -0.112447 -0.499581)
(-0.00620174 -0.0891118 -0.000831813)
(-4.97588e-05 -0.0976916 0.00019848)
(0.000325019 -0.0979869 0.000143226)
(-7.27902e-05 -0.0974112 0.000190371)
(0.000347273 -0.0979438 0.000128474)
(0.00102615 -0.0877609 0.00068288)
(0.000102414 -0.0911703 0.000166588)
(0.000977367 -0.0869682 0.000660775)
(0.000152298 -0.0911264 0.000148852)
(0.000336345 -0.0987388 2.90968e-05)
(0.000336782 -0.0987393 -2.89573e-05)
(0.000367825 -0.0988425 2.41669e-05)
(0.000367678 -0.098843 -2.40523e-05)
(0.00026011 -0.0939325 2.7594e-05)
(0.000260568 -0.0939336 -2.78418e-05)
(0.000287628 -0.0941864 2.32742e-05)
(0.000287468 -0.0941872 -2.2678e-05)
(0.000324843 -0.0979881 -0.000142867)
(-4.98933e-05 -0.0976924 -0.000198282)
(0.00034735 -0.0979451 -0.000128455)
(-7.20909e-05 -0.0974122 -0.000190405)
(0.000102362 -0.0911732 -0.000163975)
(0.00102547 -0.0877645 -0.000682644)
(0.00015248 -0.0911299 -0.00015)
(0.000977426 -0.0869726 -0.000660775)
(-0.00860113 -0.10006 0.000336801)
(0.00796907 -0.107739 0.488542)
(-0.00855186 -0.0997942 0.000297277)
(0.00788153 -0.108474 0.488912)
(-0.00625056 -0.0903082 0.00088606)
(0.00468421 -0.11082 0.499508)
(-0.00619861 -0.0891132 0.000831856)
(0.00464061 -0.112436 0.499582)
(0.00812 -0.106453 -0.487814)
(-0.00866982 -0.100433 -0.00040679)
(0.00804767 -0.107072 -0.488115)
(-0.0086392 -0.100271 -0.000373501)
(0.00474219 -0.108021 -0.499368)
(-0.00631804 -0.0921549 -0.000982589)
(0.00470828 -0.109363 -0.499429)
(-0.00628106 -0.0913127 -0.000937037)
(3.07046e-05 -0.0981862 0.00020778)
(0.000317061 -0.0981083 0.000167797)
(-1.27728e-05 -0.0979514 0.000204042)
(0.000315888 -0.0980445 0.000156178)
(0.00115366 -0.0892052 0.000714898)
(3.83477e-05 -0.0913607 0.000192387)
(0.00108546 -0.0885104 0.000700734)
(6.50997e-05 -0.0912524 0.000179124)
(0.000295326 -0.0985971 3.82419e-05)
(0.000295412 -0.0985975 -3.81564e-05)
(0.00031301 -0.0986595 3.37957e-05)
(0.000312889 -0.09866 -3.37005e-05)
(0.000213669 -0.0935311 3.66521e-05)
(0.000213764 -0.093532 -3.66057e-05)
(0.000235767 -0.0937155 3.2451e-05)
(0.00023566 -0.0937169 -3.21412e-05)
(0.000317085 -0.0981092 -0.000167654)
(3.09508e-05 -0.0981867 -0.00020774)
(0.00031605 -0.0980455 -0.000156111)
(-1.22147e-05 -0.097952 -0.000204003)
(3.8551e-05 -0.0913634 -0.000192138)
(0.00115358 -0.0892082 -0.000714649)
(6.54043e-05 -0.091255 -0.000180001)
(0.00108546 -0.0885131 -0.000700329)
(-0.00866621 -0.100432 0.00040645)
(0.00811641 -0.106448 0.487822)
(-0.00863569 -0.10027 0.000373243)
(0.00804413 -0.107067 0.488123)
(-0.00631449 -0.0921554 0.000981829)
(0.00473898 -0.10801 0.499369)
(-0.00627765 -0.0913131 0.000936851)
(0.00470501 -0.109352 0.49943)
(0.00823972 -0.105338 -0.487207)
(-0.0087027 -0.100626 -0.00046437)
(0.00818029 -0.105878 -0.487449)
(-0.00868872 -0.10055 -0.000436935)
(0.00477891 -0.105659 -0.49925)
(-0.00635521 -0.0934307 -0.0010599)
(0.00475285 -0.106791 -0.4993)
(-0.0063312 -0.0928544 -0.00102329)
(0.00012524 -0.0985569 0.000210939)
(0.000342339 -0.0982264 0.000186448)
(7.724e-05 -0.0983885 0.000209971)
(0.000326556 -0.0981705 0.000177786)
(0.00129691 -0.0903982 0.000734734)
(1.01184e-05 -0.0916081 0.000213147)
(0.00122834 -0.0898346 0.000726084)
(2.08415e-05 -0.0914817 0.000203474)
(0.000276541 -0.0984993 4.60797e-05)
(0.000276601 -0.0984996 -4.59812e-05)
(0.000283397 -0.0985453 4.23474e-05)
(0.000283459 -0.0985457 -4.22551e-05)
(0.000176792 -0.0932339 4.43889e-05)
(0.00017686 -0.0932348 -4.42906e-05)
(0.000194202 -0.0933715 4.07008e-05)
(0.00019427 -0.0933725 -4.061e-05)
(0.000342355 -0.098227 -0.000186297)
(0.000125534 -0.0985571 -0.000210905)
(0.000326578 -0.0981712 -0.000177641)
(7.75005e-05 -0.0983888 -0.000209934)
(1.03258e-05 -0.0916102 -0.000212976)
(0.00129669 -0.0904003 -0.000734446)
(2.10507e-05 -0.091484 -0.000203313)
(0.00122819 -0.089837 -0.000725803)
(-0.00869879 -0.100625 0.000463993)
(0.00823582 -0.105334 0.487216)
(-0.00868498 -0.100549 0.000436576)
(0.00817641 -0.105873 0.487458)
(-0.00635142 -0.0934307 0.0010591)
(0.00477549 -0.10565 0.499251)
(-0.00632756 -0.0928546 0.00102253)
(0.00474932 -0.106782 0.499301)
(0.00833745 -0.10434 -0.486699)
(-0.00870452 -0.100665 -0.000511517)
(0.00828839 -0.104828 -0.486895)
(-0.0087054 -0.100664 -0.000489207)
(0.00480172 -0.103637 -0.499151)
(-0.00636575 -0.0942674 -0.00112183)
(0.00478189 -0.104611 -0.499192)
(-0.00635473 -0.0938971 -0.0010926)
(0.000228299 -0.0987944 0.000210202)
(0.000389292 -0.0983031 0.000200088)
(0.000176693 -0.098692 0.000210949)
(0.000363811 -0.0982715 0.000193827)
(0.00142302 -0.0913263 0.000745877)
(5.70863e-06 -0.0918455 0.00022848)
(0.00136357 -0.0908943 0.000741192)
(5.75026e-06 -0.0917306 0.000221437)
(0.000277414 -0.0984074 5.23491e-05)
(0.000277466 -0.0984076 -5.22394e-05)
(0.000274696 -0.0984543 4.94068e-05)
(0.000274752 -0.0984546 -4.93025e-05)
(0.000147606 -0.0930016 5.06706e-05)
(0.000147679 -0.0930023 -5.05606e-05)
(0.000161377 -0.0931115 4.7712e-05)
(0.000161448 -0.0931123 -4.76076e-05)
(0.000389296 -0.0983036 -0.000199928)
(0.000228649 -0.0987944 -0.000210173)
(0.000363819 -0.098272 -0.000193672)
(0.000177011 -0.0986921 -0.000210917)
(5.90381e-06 -0.0918471 -0.000228296)
(0.00142268 -0.0913278 -0.000745575)
(5.95112e-06 -0.0917324 -0.00022126)
(0.00136328 -0.090896 -0.000740897)
(-0.00870035 -0.100664 0.00051111)
(0.00833332 -0.104336 0.486708)
(-0.00870138 -0.100663 0.000488815)
(0.00828423 -0.104824 0.486904)
(-0.00636177 -0.094267 0.00112097)
(0.00479813 -0.103628 0.499153)
(-0.00635088 -0.0938969 0.00109177)
(0.00477815 -0.104603 0.499194)
(0.00841793 -0.103415 -0.486266)
(-0.00868051 -0.100567 -0.00055036)
(0.00837662 -0.103871 -0.486421)
(-0.00869356 -0.100633 -0.000531785)
(0.00481239 -0.10187 -0.499068)
(-0.00635561 -0.0947575 -0.00117083)
(0.00479762 -0.102726 -0.4991)
(-0.00635294 -0.0945509 -0.00114777)
(0.000336377 -0.0989008 0.000207175)
(0.000451 -0.0983148 0.00020959)
(0.000282389 -0.0988639 0.0002089)
(0.000418757 -0.0983182 0.000205284)
(0.00153211 -0.0920022 0.00075093)
(1.69199e-05 -0.0920305 0.000239228)
(0.00148085 -0.0916942 0.000749013)
(9.93971e-06 -0.0919459 0.000234362)
(0.000296413 -0.0982931 5.71399e-05)
(0.000296458 -0.0982932 -5.70204e-05)
(0.000284797 -0.0983546 5.49135e-05)
(0.000284845 -0.0983548 -5.47988e-05)
(0.000129243 -0.0927992 5.55163e-05)
(0.000129307 -0.0927998 -5.53961e-05)
(0.000136861 -0.0928979 5.32639e-05)
(0.000136929 -0.0928986 -5.31486e-05)
(0.000450991 -0.098315 -0.000209421)
(0.000336784 -0.0989005 -0.00020715)
(0.000418754 -0.0983185 -0.00020512)
(0.000282764 -0.0988637 -0.000208872)
(1.70997e-05 -0.0920317 -0.000239034)
(0.00153171 -0.0920031 -0.000750618)
(1.01252e-05 -0.0919473 -0.000234173)
(0.00148047 -0.0916954 -0.000748706)
(-0.00867614 -0.100566 0.000549926)
(0.00841361 -0.103411 0.486276)
(-0.0086893 -0.100631 0.000531364)
(0.00837224 -0.103867 0.486431)
(-0.00635146 -0.0947567 0.00116992)
(0.00480866 -0.101862 0.499069)
(-0.00634892 -0.0945503 0.00114688)
(0.00479371 -0.102718 0.499102)
(0.00848621 -0.102528 -0.485893)
(-0.00863615 -0.100345 -0.000581618)
(0.00845048 -0.102969 -0.486021)
(-0.00865869 -0.100471 -0.000566799)
(0.00481513 -0.100291 -0.498996)
(-0.00632581 -0.0949685 -0.00120915)
(0.00480359 -0.10106 -0.499024)
(-0.0063334 -0.094894 -0.00119117)
(0.000447546 -0.0988761 0.000202868)
(0.000523105 -0.0982447 0.000215782)
(0.000393005 -0.0989047 0.000205136)
(0.000486248 -0.0982907 0.000213035)
(0.00162949 -0.0924414 0.000751801)
(3.97303e-05 -0.0921358 0.000246316)
(0.00158343 -0.09225 0.000751775)
(2.71375e-05 -0.0920939 0.00024317)
(0.000331779 -0.0981324 6.06244e-05)
(0.000331812 -0.0981325 -6.04965e-05)
(0.000312204 -0.0982197 5.90282e-05)
(0.000312244 -0.0982198 -5.89044e-05)
(0.000122519 -0.0925977 5.90772e-05)
(0.000122584 -0.0925981 -5.89482e-05)
(0.000124567 -0.0926996 5.74443e-05)
(0.00012463 -0.0927001 -5.73196e-05)
(0.000523058 -0.0982447 -0.000215606)
(0.000447889 -0.0988756 -0.000202846)
(0.000486227 -0.0982908 -0.000212863)
(0.000393413 -0.0989044 -0.000205113)
(3.99125e-05 -0.0921366 -0.000246113)
(0.00162906 -0.0924417 -0.000751481)
(2.73139e-05 -0.0920949 -0.000242971)
(0.00158301 -0.0922506 -0.000751459)
(-0.00863163 -0.100344 0.000581161)
(0.00848175 -0.102525 0.485904)
(-0.00865425 -0.10047 0.000566354)
(0.00844593 -0.102965 0.486031)
(-0.00632151 -0.0949674 0.00120819)
(0.00481131 -0.100285 0.498998)
(-0.00632922 -0.094893 0.00119023)
(0.00479955 -0.101054 0.499025)
(0.0085478 -0.101652 -0.485565)
(-0.00857653 -0.100005 -0.000606632)
(0.00851421 -0.102091 -0.485666)
(-0.00860633 -0.100189 -0.000594789)
(0.00481363 -0.0988466 -0.498935)
(-0.0062785 -0.0949524 -0.00123762)
(0.00480271 -0.0995553 -0.498957)
(-0.00629234 -0.0949837 -0.00122407)
(0.000539834 -0.0987215 0.00019793)
(0.000600372 -0.0980804 0.00021937)
(0.000495168 -0.0988147 0.000200447)
(0.000560971 -0.0981749 0.000217834)
(0.00171757 -0.0926683 0.000749836)
(7.17488e-05 -0.0921444 0.000250489)
(0.00167597 -0.0925786 0.000751088)
(5.53819e-05 -0.092152 0.000248712)
(0.000382297 -0.0979066 6.29867e-05)
(0.000382324 -0.0979066 -6.28516e-05)
(0.00035513 -0.0980286 6.19253e-05)
(0.000355159 -0.0980286 -6.17937e-05)
(0.000126001 -0.0923703 6.1551e-05)
(0.000126068 -0.0923706 -6.14149e-05)
(0.000123042 -0.0924883 6.04358e-05)
(0.000123108 -0.0924886 -6.0303e-05)
(0.000600303 -0.0980802 -0.000219188)
(0.000540133 -0.0987209 -0.000197912)
(0.000560905 -0.0981748 -0.000217656)
(0.00049545 -0.0988141 -0.000200427)
(7.1922e-05 -0.0921449 -0.000250277)
(0.00171712 -0.0926681 -0.000749511)
(5.5564e-05 -0.0921526 -0.000248502)
(0.00167552 -0.0925787 -0.000750766)
(-0.00857189 -0.100003 0.000606155)
(0.00854325 -0.10165 0.485576)
(-0.00860177 -0.100188 0.000594322)
(0.00850955 -0.102088 0.485677)
(-0.00627412 -0.0949509 0.00123664)
(0.00480976 -0.0988409 0.498936)
(-0.00628804 -0.0949824 0.0012231)
(0.0047986 -0.0995492 0.498958)
(0.008609 -0.100761 -0.485274)
(-0.00849859 -0.0995474 -0.000626542)
(0.00857524 -0.101209 -0.485354)
(-0.0085379 -0.0997906 -0.000617118)
(0.00481126 -0.0974905 -0.498881)
(-0.00621838 -0.0947372 -0.00126114)
(0.0048012 -0.0981592 -0.498898)
(-0.00624052 -0.0948692 -0.00125043)
(0.000635525 -0.098439 0.000192854)
(0.000687037 -0.0978112 0.000221069)
(0.000587509 -0.0985961 0.000195394)
(0.000642664 -0.0979593 0.0002204)
(0.00179916 -0.0927045 0.000745913)
(0.000111242 -0.0920441 0.000252772)
(0.0017604 -0.0927093 0.000748083)
(9.08347e-05 -0.0921084 0.00025184)
(0.000448367 -0.097599 6.44798e-05)
(0.000448387 -0.097599 -6.43393e-05)
(0.000413452 -0.0977638 6.38202e-05)
(0.000413476 -0.0977638 -6.36822e-05)
(0.000139444 -0.0920924 6.3158e-05)
(0.000139513 -0.0920926 -6.30164e-05)
(0.00013143 -0.0922385 6.24495e-05)
(0.000131498 -0.0922387 -6.23104e-05)
(0.000686962 -0.0978109 -0.000220881)
(0.00063587 -0.0984382 -0.000192839)
(0.000642592 -0.097959 -0.000220215)
(0.000587825 -0.0985954 -0.000195377)
(0.000111412 -0.0920442 -0.000252557)
(0.0017987 -0.092704 -0.000745587)
(9.10143e-05 -0.0921087 -0.000251628)
(0.00175993 -0.092709 -0.000747758)
(-0.00849386 -0.099546 0.000626048)
(0.00860439 -0.100758 0.485286)
(-0.00853323 -0.0997893 0.000616633)
(0.0085705 -0.101206 0.485365)
(-0.00621392 -0.0947354 0.00126012)
(0.00480734 -0.0974855 0.498883)
(-0.00623612 -0.0948675 0.00124942)
(0.00479703 -0.0981538 0.4989)
(0.00867503 -0.0998313 -0.484998)
(-0.00840446 -0.0989725 -0.000642037)
(0.00863869 -0.100303 -0.48507)
(-0.00845159 -0.0992744 -0.000634724)
(0.00481151 -0.0961819 -0.498831)
(-0.0061493 -0.0943464 -0.00127773)
(0.00480031 -0.0968327 -0.498847)
(-0.00617454 -0.094562 -0.00127006)
(0.000738348 -0.0980259 0.000187813)
(0.000783556 -0.0974281 0.000221326)
(0.00068669 -0.098249 0.000190315)
(0.00073411 -0.0976344 0.000221322)
(0.00187365 -0.0925608 0.000741029)
(0.000154674 -0.0918243 0.000253346)
(0.00183832 -0.0926549 0.000743512)
(0.000132697 -0.0919492 0.000253224)
(0.000529798 -0.0971947 6.52984e-05)
(0.000529813 -0.0971946 -6.51544e-05)
(0.000487135 -0.0974098 6.49539e-05)
(0.000487152 -0.0974097 -6.48115e-05)
(0.000162986 -0.0917423 6.40695e-05)
(0.000163057 -0.0917423 -6.39242e-05)
(0.000150005 -0.0919269 6.36884e-05)
(0.000150075 -0.091927 -6.35447e-05)
(0.000783471 -0.0974276 -0.000221139)
(0.000738695 -0.0980249 -0.000187799)
(0.000734028 -0.097634 -0.000221134)
(0.00068703 -0.0982482 -0.0001903)
(0.000154825 -0.0918241 -0.000253129)
(0.00187313 -0.0925599 -0.000740702)
(0.000132857 -0.0919491 -0.000253008)
(0.00183783 -0.0926541 -0.000743186)
(-0.00839968 -0.098971 0.000641532)
(0.00867038 -0.0998291 0.485009)
(-0.00844686 -0.099273 0.000634224)
(0.00863391 -0.1003 0.485081)
(-0.00614483 -0.0943443 0.00127669)
(0.00480756 -0.0961775 0.498833)
(-0.00617012 -0.0945601 0.00126903)
(0.00479612 -0.096828 0.498849)
(0.00874943 -0.0988424 -0.484741)
(-0.00829312 -0.0982751 -0.00065396)
(0.00870787 -0.0993457 -0.484803)
(-0.00834872 -0.0986394 -0.000648354)
(0.00481503 -0.0948848 -0.498787)
(-0.00606982 -0.0937938 -0.00128957)
(0.00480037 -0.0955341 -0.4988)
(-0.00609917 -0.0940893 -0.00128416)
(0.000849446 -0.0974773 0.000183046)
(0.000891602 -0.0969204 0.000220582)
(0.000793485 -0.0977686 0.000185392)
(0.000836188 -0.0971902 0.000221041)
(0.00194262 -0.0922437 0.000735422)
(0.000202476 -0.0914758 0.000252745)
(0.00191017 -0.0924231 0.000738264)
(0.000178143 -0.0916662 0.000253164)
(0.000627291 -0.0966783 6.56077e-05)
(0.0006273 -0.0966781 -6.54615e-05)
(0.000576522 -0.0969513 6.5503e-05)
(0.000576534 -0.0969511 -6.53578e-05)
(0.000195505 -0.0913013 6.44457e-05)
(0.000195569 -0.0913013 -6.42981e-05)
(0.000178328 -0.0915337 6.43139e-05)
(0.000178395 -0.0915337 -6.41673e-05)
(0.000891509 -0.0969198 -0.000220395)
(0.000849795 -0.0974762 -0.000183035)
(0.000836097 -0.0971897 -0.000220853)
(0.00079383 -0.0977676 -0.00018538)
(0.000202612 -0.0914753 -0.000252527)
(0.00194206 -0.0922424 -0.000735096)
(0.000178285 -0.0916658 -0.000252947)
(0.00190962 -0.0924219 -0.000737938)
(-0.00828833 -0.0982736 0.000653447)
(0.00874477 -0.0988403 0.484753)
(-0.00834396 -0.0986379 0.000647845)
(0.00870306 -0.0993436 0.484815)
(-0.00606535 -0.0937914 0.00128852)
(0.00481109 -0.0948809 0.498789)
(-0.00609474 -0.094087 0.00128311)
(0.00479615 -0.09553 0.498802)
(0.00883632 -0.0977719 -0.484495)
(-0.00816488 -0.097449 -0.000662839)
(0.00878819 -0.0983185 -0.48455)
(-0.00822904 -0.0978786 -0.000658686)
(0.00482437 -0.0935638 -0.498745)
(-0.0059821 -0.0930872 -0.00129751)
(0.00480653 -0.094229 -0.498756)
(-0.00601549 -0.0934593 -0.00129395)
(0.000970558 -0.0967878 0.000178621)
(0.00101266 -0.0962777 0.000219097)
(0.000909339 -0.0971505 0.000180789)
(0.000950556 -0.0966165 0.000219895)
(0.00200874 -0.0917584 0.000729508)
(0.000254945 -0.0909889 0.000251299)
(0.00197732 -0.0920215 0.00073247)
(0.000228235 -0.0912497 0.000252106)
(0.000741423 -0.0960357 6.5516e-05)
(0.000741427 -0.0960355 -6.53686e-05)
(0.00068223 -0.0963735 6.55974e-05)
(0.000682236 -0.0963733 -6.54505e-05)
(0.000235042 -0.0907503 6.44199e-05)
(0.0002351 -0.0907501 -6.42711e-05)
(0.000214337 -0.0910401 6.44751e-05)
(0.000214397 -0.09104 -6.43268e-05)
(0.00101256 -0.096277 -0.00021891)
(0.000970903 -0.0967866 -0.000178612)
(0.000950457 -0.0966158 -0.000219708)
(0.000909682 -0.0971493 -0.000180779)
(0.000255067 -0.0909882 -0.000251082)
(0.00200815 -0.0917568 -0.000729185)
(0.000228362 -0.0912491 -0.000251889)
(0.00197674 -0.0920201 -0.000732145)
(-0.00816009 -0.0974474 0.000662319)
(0.00883167 -0.0977701 0.484507)
(-0.00822426 -0.0978771 0.00065817)
(0.00878339 -0.0983166 0.484562)
(-0.00597765 -0.0930847 0.00129645)
(0.00482043 -0.0935605 0.498747)
(-0.00601108 -0.0934568 0.00129289)
(0.00480232 -0.0942254 0.498759)
(0.00893842 -0.0965993 -0.484254)
(-0.00801906 -0.0964847 -0.000669142)
(0.00888242 -0.0971995 -0.484304)
(-0.00809212 -0.0969847 -0.00066622)
(0.00484087 -0.0921879 -0.498706)
(-0.00588607 -0.0922284 -0.00130221)
(0.00481921 -0.0928843 -0.498716)
(-0.00592353 -0.0926766 -0.0013002)
(0.00110373 -0.0959491 0.000174588)
(0.00114829 -0.0954884 0.000217076)
(0.00103619 -0.0963876 0.000176556)
(0.00107868 -0.095902 0.00021812)
(0.00207461 -0.0911055 0.000723502)
(0.000312609 -0.0903533 0.000249241)
(0.00204301 -0.0914526 0.000726489)
(0.000283198 -0.0906898 0.00025033)
(0.000873187 -0.0952525 6.51242e-05)
(0.000873186 -0.0952522 -6.49765e-05)
(0.000805026 -0.0956625 6.53445e-05)
(0.000805027 -0.0956622 -6.51969e-05)
(0.000282112 -0.0900707 6.40898e-05)
(0.000282167 -0.0900704 -6.39408e-05)
(0.000257547 -0.0904271 6.42865e-05)
(0.000257603 -0.0904268 -6.41375e-05)
(0.00114818 -0.0954876 -0.000216891)
(0.00110407 -0.0959478 -0.000174581)
(0.00107857 -0.0959013 -0.000217934)
(0.00103652 -0.0963863 -0.000176548)
(0.000312718 -0.0903523 -0.000249025)
(0.00207401 -0.0911036 -0.000723182)
(0.000283313 -0.090689 -0.000250114)
(0.00204241 -0.0914508 -0.000726167)
(-0.0080143 -0.0964832 0.000668618)
(0.00893379 -0.0965977 0.484266)
(-0.00808737 -0.0969831 0.000665698)
(0.00887762 -0.0971978 0.484317)
(-0.00588165 -0.0922257 0.00130115)
(0.00483695 -0.092185 0.498708)
(-0.00591915 -0.092674 0.00129914)
(0.00481502 -0.0928812 0.498718)
(0.00905811 -0.0953042 -0.484013)
(-0.00785466 -0.0953719 -0.000673252)
(0.00899297 -0.0959682 -0.484059)
(-0.00793713 -0.0959476 -0.000671376)
(0.00486532 -0.0907282 -0.498668)
(-0.00578125 -0.091215 -0.00130421)
(0.00483922 -0.0914699 -0.498676)
(-0.00582283 -0.091741 -0.00130349)
(0.00125103 -0.0949513 0.000170961)
(0.00130007 -0.09454 0.000214666)
(0.00117619 -0.0954706 0.000172724)
(0.0012222 -0.0950348 0.000215888)
(0.00214215 -0.0902822 0.000717533)
(0.000376073 -0.0895575 0.000246733)
(0.00210955 -0.090715 0.000720489)
(0.000343682 -0.0899756 0.00024803)
(0.00102372 -0.0943137 6.45097e-05)
(0.00102371 -0.0943134 -6.4362e-05)
(0.000946028 -0.0948033 6.48324e-05)
(0.000946025 -0.094803 -6.46847e-05)
(0.000337226 -0.089245 6.35307e-05)
(0.000337277 -0.0892447 -6.33819e-05)
(0.000308569 -0.0896766 6.38337e-05)
(0.000308622 -0.0896763 -6.36848e-05)
(0.00129995 -0.0945391 -0.000214483)
(0.00125135 -0.0949499 -0.000170956)
(0.00122209 -0.0950339 -0.000215703)
(0.00117652 -0.0954693 -0.000172718)
(0.00037617 -0.0895563 -0.000246519)
(0.00214153 -0.0902801 -0.000717217)
(0.000343784 -0.0899745 -0.000247815)
(0.00210893 -0.090713 -0.000720172)
(-0.00784995 -0.0953703 0.000672726)
(0.0090535 -0.0953027 0.484026)
(-0.00793242 -0.095946 0.000670851)
(0.0089882 -0.0959666 0.484071)
(-0.00577688 -0.0912122 0.00130315)
(0.00486143 -0.0907257 0.49867)
(-0.00581849 -0.0917382 0.00130243)
(0.00483505 -0.0914673 0.498678)
(0.00919762 -0.0938663 -0.483775)
(-0.00767027 -0.0940978 -0.000675483)
(0.00912245 -0.0946042 -0.483819)
(-0.00776301 -0.0947557 -0.00067451)
(0.00489901 -0.0891564 -0.498631)
(-0.0056675 -0.0900414 -0.0013039)
(0.00486836 -0.0899576 -0.498639)
(-0.00571375 -0.0906484 -0.00130429)
(0.00141444 -0.0937829 0.000167732)
(0.00146913 -0.093419 0.000211971)
(0.00133122 -0.094389 0.000169298)
(0.00138251 -0.0940017 0.000213324)
(0.0022124 -0.0892831 0.000711666)
(0.000445751 -0.0885894 0.000243885)
(0.00217826 -0.0898047 0.000714566)
(0.000410183 -0.0890953 0.000245341)
(0.00119415 -0.0932039 6.37308e-05)
(0.00119414 -0.0932036 -6.3584e-05)
(0.00110636 -0.0937809 6.413e-05)
(0.00110636 -0.0937806 -6.39828e-05)
(0.000400807 -0.0882557 6.27967e-05)
(0.000400856 -0.0882553 -6.2649e-05)
(0.000367842 -0.0887713 6.31819e-05)
(0.000367892 -0.0887709 -6.30336e-05)
(0.00146901 -0.093418 -0.00021179)
(0.00141474 -0.0937814 -0.000167728)
(0.00138239 -0.0940008 -0.000213142)
(0.00133153 -0.0943876 -0.000169293)
(0.000445837 -0.0885881 -0.000243675)
(0.00221175 -0.0892807 -0.000711354)
(0.000410273 -0.089094 -0.000245129)
(0.00217762 -0.0898024 -0.000714253)
(-0.0076656 -0.0940962 0.000674958)
(0.00919304 -0.093865 0.483788)
(-0.00775834 -0.0947541 0.000673985)
(0.00911772 -0.0946028 0.483832)
(-0.0056632 -0.0900385 0.00130285)
(0.00489514 -0.0891543 0.498633)
(-0.00570947 -0.0906455 0.00130323)
(0.00486422 -0.0899554 0.498641)
(0.00935833 -0.0922656 -0.483537)
(-0.00746412 -0.0926491 -0.000676085)
(0.00927242 -0.0930873 -0.483578)
(-0.00756793 -0.093396 -0.000675894)
(0.0049421 -0.0874463 -0.498595)
(-0.00554381 -0.0886995 -0.00130159)
(0.00490655 -0.0883199 -0.498602)
(-0.00559499 -0.0893918 -0.00130295)
(0.00159562 -0.0924314 0.00016489)
(0.00165677 -0.092112 0.000209061)
(0.00150341 -0.0931306 0.000166264)
(0.00156063 -0.0927894 0.000210515)
(0.00228635 -0.0881007 0.000705922)
(0.000522065 -0.0874367 0.000240773)
(0.00225024 -0.0887149 0.00070876)
(0.000483091 -0.0880365 0.000242354)
(0.00138551 -0.091908 6.28144e-05)