/*--------------------------------*- C++ -*----------------------------------*\
  =========                 |
  \\      /  F ield         | OpenFOAM: The Open Source CFD Toolbox
   \\    /   O peration     | Website:  https://openfoam.org
    \\  /    A nd           | Version:  9
     \\/     M anipulation  |
\*---------------------------------------------------------------------------*/
FoamFile
{
    format      ascii;
    class       volScalarField;
    location    "0.3";
    object      p;
}
// * * * * * * * * * * * * * * * * * * * * * * * * * * * * * * * * * * * * * //

dimensions      [0 2 -2 0 0 0 0];

internalField   nonuniform List<scalar> 
4545
(
20.0952
20.0952
20.0952
20.0952
20.0952
20.0858
20.0858
20.0858
20.0858
20.0858
20.0766
20.0766
20.0766
20.0766
20.0766
20.0675
20.0675
20.0675
20.0675
20.0675
20.0587
20.0587
20.0587
20.0587
20.0587
20.0501
20.0501
20.0501
20.0501
20.0501
20.0417
20.0417
20.0417
20.0417
20.0417
20.0336
20.0336
20.0336
20.0336
20.0336
20.0257
20.0257
20.0257
20.0257
20.0257
20.0181
20.0181
20.0181
20.0181
20.0181
20.0107
20.0107
20.0107
20.0107
20.0107
20.0037
20.0036
20.0037
20.0036
20.0037
19.9969
19.9969
19.9969
19.9969
19.9969
19.9904
19.9904
19.9904
19.9904
19.9904
19.9843
19.9843
19.9843
19.9843
19.9843
19.9785
19.9785
19.9785
19.9785
19.9785
19.973
19.973
19.973
19.973
19.973
19.9679
19.9679
19.9679
19.9679
19.9679
19.9631
19.9631
19.9631
19.9631
19.9631
19.9588
19.9587
19.9587
19.9587
19.9588
19.9548
19.9548
19.9548
19.9548
19.9548
19.9512
19.9512
19.9512
19.9512
19.9512
19.948
19.9479
19.948
19.9479
19.948
19.9451
19.9451
19.9451
19.9451
19.9451
19.9427
19.9427
19.9427
19.9427
19.9427
19.9407
19.9407
19.9407
19.9407
19.9407
19.939
19.939
19.939
19.939
19.939
19.9377
19.9377
19.9377
19.9377
19.9377
19.9367
19.9367
19.9367
19.9367
19.9367
19.9361
19.9361
19.9361
19.9361
19.9361
19.9358
19.9357
19.9357
19.9357
19.9358
19.9357
19.9357
19.9357
19.9357
19.9357
19.9359
19.9359
19.9359
19.9359
19.9359
19.9364
19.9363
19.9363
19.9363
19.9364
19.937
19.937
19.937
19.937
19.937
19.9378
19.9378
19.9378
19.9378
19.9378
19.9388
19.9388
19.9388
19.9388
19.9388
19.9399
19.9399
19.9399
19.9399
19.9399
19.9411
19.9411
19.9411
19.9411
19.9411
20.0952
20.0952
20.0952
20.0952
20.0952
20.0858
20.0858
20.0858
20.0858
20.0858
20.0766
20.0766
20.0766
20.0766
20.0766
20.0676
20.0676
20.0676
20.0676
20.0676
20.0588
20.0588
20.0588
20.0588
20.0588
20.0502
20.0502
20.0502
20.0502
20.0502
20.0418
20.0418
20.0418
20.0418
20.0418
20.0337
20.0337
20.0337
20.0337
20.0337
20.0259
20.0259
20.0259
20.0259
20.0259
20.0183
20.0183
20.0183
20.0183
20.0183
20.011
20.011
20.011
20.011
20.011
20.004
20.004
20.004
20.004
20.004
19.9973
19.9973
19.9973
19.9973
19.9973
19.9909
19.9909
19.9909
19.9909
19.9909
19.9848
19.9848
19.9848
19.9848
19.9848
19.9791
19.9791
19.9791
19.9791
19.9791
19.9737
19.9737
19.9737
19.9737
19.9737
19.9687
19.9687
19.9687
19.9687
19.9687
19.9641
19.9641
19.9641
19.9641
19.9641
19.9599
19.9599
19.9599
19.9599
19.9599
19.956
19.9561
19.9561
19.9561
19.956
19.9526
19.9526
19.9526
19.9526
19.9526
19.9496
19.9496
19.9496
19.9496
19.9496
19.947
19.947
19.947
19.947
19.947
19.9447
19.9448
19.9448
19.9448
19.9447
19.9429
19.9429
19.9429
19.9429
19.9429
19.9415
19.9415
19.9415
19.9415
19.9415
19.9404
19.9404
19.9404
19.9404
19.9404
19.9397
19.9397
19.9397
19.9397
19.9397
19.9393
19.9394
19.9393
19.9394
19.9393
19.9392
19.9393
19.9393
19.9393
19.9392
19.9395
19.9395
19.9395
19.9395
19.9395
19.9399
19.94
19.94
19.94
19.9399
19.9406
19.9407
19.9406
19.9407
19.9406
19.9415
19.9415
19.9415
19.9415
19.9415
19.9426
19.9426
19.9426
19.9426
19.9426
19.9438
19.9438
19.9438
19.9438
19.9438
19.9451
19.9451
19.9451
19.9451
19.9451
19.9465
19.9465
19.9465
19.9465
19.9465
20.0952
20.0952
20.0952
20.0952
20.0952
20.0858
20.0858
20.0858
20.0858
20.0858
20.0766
20.0766
20.0766
20.0766
20.0766
20.0675
20.0675
20.0675
20.0675
20.0675
20.0587
20.0587
20.0587
20.0587
20.0587
20.0501
20.0501
20.0501
20.0501
20.0501
20.0418
20.0418
20.0418
20.0418
20.0418
20.0337
20.0337
20.0337
20.0337
20.0337
20.0258
20.0258
20.0258
20.0258
20.0258
20.0182
20.0182
20.0182
20.0182
20.0182
20.0109
20.0109
20.0109
20.0109
20.0109
20.0039
20.0039
20.0039
20.0039
20.0039
19.9971
19.9971
19.9971
19.9971
19.9971
19.9907
19.9907
19.9907
19.9907
19.9907
19.9847
19.9847
19.9847
19.9847
19.9847
19.9789
19.9789
19.9789
19.9789
19.9789
19.9735
19.9735
19.9735
19.9735
19.9735
19.9685
19.9685
19.9685
19.9685
19.9685
19.9639
19.9639
19.9639
19.9639
19.9639
19.9597
19.9597
19.9597
19.9597
19.9597
19.9558
19.9558
19.9558
19.9558
19.9558
19.9524
19.9524
19.9524
19.9524
19.9524
19.9494
19.9494
19.9494
19.9494
19.9494
19.9468
19.9468
19.9468
19.9468
19.9468
19.9446
19.9446
19.9446
19.9446
19.9446
19.9429
19.9428
19.9428
19.9428
19.9429
19.9415
19.9415
19.9415
19.9415
19.9415
19.9405
19.9405
19.9405
19.9405
19.9405
19.9399
19.9398
19.9398
19.9398
19.9399
19.9396
19.9396
19.9396
19.9396
19.9396
19.9396
19.9396
19.9396
19.9396
19.9396
19.94
19.9399
19.9399
19.9399
19.94
19.9406
19.9405
19.9405
19.9405
19.9406
19.9414
19.9413
19.9413
19.9413
19.9414
19.9424
19.9424
19.9424
19.9424
19.9424
19.9436
19.9436
19.9435
19.9436
19.9436
19.9449
19.9449
19.9449
19.9449
19.9449
19.9463
19.9463
19.9463
19.9463
19.9463
19.9479
19.9478
19.9478
19.9478
19.9479
20.0952
20.0952
20.0952
20.0952
20.0952
20.0858
20.0858
20.0858
20.0858
20.0858
20.0765
20.0765
20.0765
20.0765
20.0765
20.0675
20.0675
20.0675
20.0675
20.0675
20.0586
20.0586
20.0586
20.0586
20.0586
20.05
20.05
20.05
20.05
20.05
20.0416
20.0416
20.0416
20.0416
20.0416
20.0335
20.0335
20.0335
20.0335
20.0335
20.0256
20.0256
20.0256
20.0256
20.0256
20.018
20.018
20.018
20.018
20.018
20.0106
20.0106
20.0106
20.0106
20.0106
20.0035
20.0035
20.0035
20.0035
20.0035
19.9967
19.9968
19.9968
19.9968
19.9967
19.9903
19.9903
19.9903
19.9903
19.9903
19.9841
19.9841
19.9841
19.9841
19.9841
19.9783
19.9783
19.9783
19.9783
19.9783
19.9729
19.9729
19.9729
19.9729
19.9729
19.9678
19.9678
19.9678
19.9678
19.9678
19.9631
19.9631
19.9631
19.9631
19.9631
19.9588
19.9588
19.9588
19.9588
19.9588
19.9549
19.9549
19.9549
19.9549
19.9549
19.9514
19.9514
19.9514
19.9514
19.9514
19.9484
19.9484
19.9484
19.9484
19.9484
19.9457
19.9457
19.9457
19.9457
19.9457
19.9435
19.9435
19.9435
19.9435
19.9435
19.9417
19.9417
19.9417
19.9417
19.9417
19.9403
19.9403
19.9403
19.9403
19.9403
19.9394
19.9394
19.9394
19.9394
19.9394
19.9388
19.9388
19.9388
19.9388
19.9388
19.9385
19.9385
19.9385
19.9385
19.9385
19.9386
19.9386
19.9386
19.9386
19.9386
19.9391
19.9391
19.9391
19.9391
19.9391
19.9397
19.9397
19.9397
19.9397
19.9397
19.9407
19.9407
19.9407
19.9407
19.9407
19.9418
19.9418
19.9418
19.9418
19.9418
19.9431
19.9431
19.9431
19.9431
19.9431
19.9446
19.9446
19.9446
19.9446
19.9446
19.9462
19.9461
19.9461
19.9461
19.9462
19.9478
19.9478
19.9478
19.9478
19.9478
20.0952
20.0952
20.0952
20.0952
20.0952
20.0857
20.0857
20.0857
20.0857
20.0857
20.0764
20.0764
20.0764
20.0764
20.0764
20.0673
20.0673
20.0673
20.0673
20.0673
20.0585
20.0585
20.0585
20.0585
20.0585
20.0498
20.0498
20.0498
20.0498
20.0498
20.0414
20.0414
20.0414
20.0414
20.0414
20.0332
20.0332
20.0332
20.0332
20.0332
20.0252
20.0253
20.0253
20.0253
20.0252
20.0176
20.0176
20.0176
20.0176
20.0176
20.0101
20.0101
20.0101
20.0101
20.0101
20.003
20.003
20.003
20.003
20.003
19.9961
19.9961
19.9961
19.9961
19.9961
19.9895
19.9895
19.9895
19.9895
19.9895
19.9833
19.9833
19.9833
19.9833
19.9833
19.9774
19.9774
19.9774
19.9774
19.9774
19.9718
19.9718
19.9718
19.9718
19.9718
19.9666
19.9666
19.9666
19.9666
19.9666
19.9618
19.9618
19.9618
19.9618
19.9618
19.9573
19.9573
19.9573
19.9573
19.9573
19.9533
19.9533
19.9533
19.9533
19.9533
19.9496
19.9496
19.9496
19.9496
19.9496
19.9464
19.9464
19.9464
19.9464
19.9464
19.9436
19.9436
19.9436
19.9436
19.9436
19.9413
19.9413
19.9413
19.9413
19.9413
19.9394
19.9394
19.9394
19.9394
19.9394
19.9379
19.9379
19.9379
19.9379
19.9379
19.9368
19.9368
19.9368
19.9368
19.9368
19.9362
19.9362
19.9361
19.9362
19.9362
19.9359
19.9359
19.9359
19.9359
19.9359
19.9359
19.9359
19.9359
19.9359
19.9359
19.9363
19.9363
19.9363
19.9363
19.9363
19.937
19.937
19.937
19.937
19.937
19.938
19.938
19.938
19.938
19.938
19.9392
19.9392
19.9392
19.9392
19.9392
19.9406
19.9405
19.9405
19.9405
19.9406
19.9421
19.9421
19.9421
19.9421
19.9421
19.9437
19.9437
19.9437
19.9437
19.9437
19.9454
19.9454
19.9454
19.9454
19.9454
20.0952
20.0952
20.0952
20.0952
20.0952
20.0856
20.0856
20.0856
20.0856
20.0856
20.0763
20.0763
20.0763
20.0763
20.0763
20.0672
20.0672
20.0672
20.0672
20.0672
20.0583
20.0583
20.0583
20.0583
20.0583
20.0496
20.0496
20.0496
20.0496
20.0496
20.0411
20.0411
20.0411
20.0411
20.0411
20.0328
20.0328
20.0328
20.0328
20.0328
20.0248
20.0248
20.0248
20.0248
20.0248
20.017
20.017
20.017
20.017
20.017
20.0095
20.0095
20.0095
20.0095
20.0095
20.0022
20.0022
20.0022
20.0022
20.0022
19.9952
19.9953
19.9953
19.9953
19.9952
19.9885
19.9886
19.9886
19.9886
19.9885
19.9821
19.9822
19.9822
19.9822
19.9821
19.9761
19.9761
19.9761
19.9761
19.9761
19.9703
19.9703
19.9703
19.9703
19.9703
19.9649
19.9649
19.9649
19.9649
19.9649
19.9599
19.9599
19.9599
19.9599
19.9599
19.9552
19.9552
19.9552
19.9552
19.9552
19.9509
19.9509
19.9509
19.9509
19.9509
19.947
19.947
19.947
19.947
19.947
19.9436
19.9436
19.9436
19.9436
19.9436
19.9406
19.9406
19.9406
19.9406
19.9406
19.938
19.938
19.938
19.938
19.938
19.9358
19.9358
19.9358
19.9358
19.9358
19.9341
19.9341
19.9341
19.9341
19.9341
19.9328
19.9328
19.9328
19.9328
19.9328
19.932
19.932
19.932
19.932
19.932
19.9315
19.9315
19.9315
19.9315
19.9315
19.9314
19.9314
19.9314
19.9314
19.9314
19.9317
19.9317
19.9317
19.9317
19.9317
19.9323
19.9323
19.9323
19.9323
19.9323
19.9332
19.9332
19.9332
19.9332
19.9332
19.9344
19.9344
19.9344
19.9344
19.9344
19.9357
19.9357
19.9357
19.9357
19.9357
19.9372
19.9372
19.9372
19.9372
19.9372
19.9389
19.9389
19.9389
19.9389
19.9389
19.9406
19.9406
19.9406
19.9406
19.9406
20.0951
20.0951
20.0951
20.0951
20.0951
20.0856
20.0856
20.0856
20.0856
20.0856
20.0762
20.0762
20.0762
20.0762
20.0762
20.067
20.067
20.067
20.067
20.067
20.058
20.058
20.058
20.058
20.058
20.0493
20.0493
20.0493
20.0493
20.0493
20.0407
20.0407
20.0407
20.0407
20.0407
20.0324
20.0324
20.0324
20.0324
20.0324
20.0243
20.0243
20.0243
20.0243
20.0243
20.0164
20.0164
20.0164
20.0164
20.0164
20.0087
20.0087
20.0087
20.0087
20.0087
20.0013
20.0013
20.0013
20.0013
20.0013
19.9942
19.9942
19.9942
19.9942
19.9942
19.9873
19.9873
19.9873
19.9873
19.9873
19.9807
19.9807
19.9807
19.9807
19.9807
19.9744
19.9744
19.9744
19.9744
19.9744
19.9684
19.9684
19.9684
19.9684
19.9684
19.9628
19.9628
19.9628
19.9628
19.9628
19.9574
19.9574
19.9574
19.9574
19.9574
19.9525
19.9525
19.9525
19.9525
19.9525
19.9479
19.9479
19.9479
19.9479
19.9479
19.9437
19.9437
19.9437
19.9437
19.9437
19.9399
19.9399
19.9399
19.9399
19.9399
19.9365
19.9365
19.9365
19.9365
19.9365
19.9335
19.9335
19.9335
19.9335
19.9335
19.931
19.931
19.931
19.931
19.931
19.9289
19.9289
19.9289
19.9289
19.9289
19.9273
19.9273
19.9273
19.9273
19.9273
19.9261
19.9261
19.9261
19.9261
19.9261
19.9254
19.9254
19.9254
19.9254
19.9254
19.925
19.925
19.925
19.925
19.925
19.9251
19.9251
19.9251
19.9251
19.9251
19.9255
19.9255
19.9255
19.9255
19.9255
19.9262
19.9262
19.9262
19.9262
19.9262
19.9272
19.9272
19.9272
19.9272
19.9272
19.9285
19.9284
19.9284
19.9284
19.9285
19.9299
19.9299
19.9299
19.9299
19.9299
19.9315
19.9315
19.9315
19.9315
19.9315
19.9332
19.9332
19.9332
19.9332
19.9332
20.0951
20.0951
20.0951
20.0951
20.0951
20.0855
20.0855
20.0855
20.0855
20.0855
20.0761
20.0761
20.0761
20.0761
20.0761
20.0668
20.0668
20.0668
20.0668
20.0668
20.0578
20.0578
20.0578
20.0578
20.0578
20.0489
20.0489
20.0489
20.0489
20.0489
20.0403
20.0403
20.0403
20.0403
20.0403
20.0319
20.0319
20.0319
20.0319
20.0319
20.0236
20.0236
20.0236
20.0236
20.0236
20.0156
20.0156
20.0156
20.0156
20.0156
20.0079
20.0079
20.0079
20.0079
20.0079
20.0003
20.0003
20.0003
20.0003
20.0003
19.993
19.993
19.993
19.993
19.993
19.9859
19.9859
19.9859
19.9859
19.9859
19.9791
19.9791
19.9791
19.9791
19.9791
19.9725
19.9725
19.9725
19.9725
19.9725
19.9662
19.9662
19.9662
19.9662
19.9662
19.9602
19.9602
19.9602
19.9602
19.9602
19.9545
19.9545
19.9545
19.9545
19.9545
19.9492
19.9492
19.9492
19.9492
19.9492
19.9442
19.9442
19.9442
19.9442
19.9442
19.9395
19.9395
19.9395
19.9395
19.9395
19.9353
19.9353
19.9353
19.9353
19.9353
19.9314
19.9314
19.9314
19.9314
19.9314
19.928
19.928
19.928
19.928
19.928
19.9249
19.9249
19.9249
19.9249
19.9249
19.9224
19.9224
19.9224
19.9224
19.9224
19.9202
19.9202
19.9202
19.9202
19.9202
19.9186
19.9186
19.9186
19.9186
19.9186
19.9174
19.9173
19.9173
19.9173
19.9174
19.9166
19.9166
19.9166
19.9166
19.9166
19.9162
19.9162
19.9162
19.9162
19.9162
19.9163
19.9162
19.9162
19.9162
19.9163
19.9167
19.9166
19.9166
19.9166
19.9167
19.9174
19.9174
19.9174
19.9174
19.9174
19.9185
19.9184
19.9184
19.9184
19.9185
19.9197
19.9197
19.9197
19.9197
19.9197
19.9212
19.9212
19.9212
19.9212
19.9212
19.9229
19.9229
19.9229
19.9229
19.9229
20.0951
20.0951
20.0951
20.0951
20.0951
20.0854
20.0854
20.0854
20.0854
20.0854
20.0759
20.0759
20.0759
20.0759
20.0759
20.0666
20.0666
20.0666
20.0666
20.0666
20.0575
20.0575
20.0575
20.0575
20.0575
20.0486
20.0486
20.0486
20.0486
20.0486
20.0398
20.0398
20.0398
20.0398
20.0398
20.0313
20.0313
20.0313
20.0313
20.0313
20.023
20.023
20.023
20.023
20.023
20.0148
20.0148
20.0148
20.0148
20.0148
20.0069
20.0069
20.0069
20.0069
20.0069
19.9991
19.9991
19.9991
19.9991
19.9991
19.9916
19.9916
19.9916
19.9916
19.9916
19.9843
19.9843
19.9843
19.9843
19.9843
19.9772
19.9772
19.9772
19.9772
19.9772
19.9703
19.9703
19.9703
19.9703
19.9703
19.9637
19.9637
19.9637
19.9637
19.9637
19.9573
19.9573
19.9573
19.9573
19.9573
19.9512
19.9512
19.9512
19.9512
19.9512
19.9454
19.9454
19.9454
19.9454
19.9454
19.9399
19.9399
19.9399
19.9399
19.9399
19.9347
19.9347
19.9347
19.9347
19.9347
19.9299
19.9299
19.9299
19.9299
19.9299
19.9254
19.9254
19.9254
19.9254
19.9254
19.9213
19.9213
19.9213
19.9213
19.9213
19.9176
19.9176
19.9176
19.9176
19.9176
19.9143
19.9143
19.9143
19.9143
19.9143
19.9115
19.9115
19.9115
19.9115
19.9115
19.9091
19.9091
19.9091
19.9091
19.9091
19.9072
19.9072
19.9072
19.9072
19.9072
19.9058
19.9058
19.9058
19.9058
19.9058
19.9049
19.9048
19.9048
19.9048
19.9049
19.9043
19.9043
19.9043
19.9043
19.9043
19.9043
19.9042
19.9042
19.9042
19.9043
19.9046
19.9045
19.9045
19.9045
19.9046
19.9053
19.9052
19.9052
19.9052
19.9053
19.9063
19.9062
19.9062
19.9062
19.9063
19.9076
19.9075
19.9075
19.9075
19.9076
19.9091
19.909
19.909
19.909
19.9091
20.0951
20.0951
20.0951
20.0951
20.0951
20.0853
20.0853
20.0853
20.0853
20.0853
20.0758
20.0758
20.0758
20.0758
20.0758
20.0664
20.0664
20.0664
20.0664
20.0664
20.0572
20.0572
20.0572
20.0572
20.0572
20.0482
20.0482
20.0482
20.0482
20.0482
20.0394
20.0394
20.0394
20.0394
20.0394
20.0307
20.0307
20.0307
20.0307
20.0307
20.0223
20.0223
20.0223
20.0223
20.0223
20.014
20.014
20.014
20.014
20.014
20.0058
20.0058
20.0058
20.0058
20.0058
19.9979
19.9979
19.9979
19.9979
19.9979
19.9901
19.9901
19.9901
19.9901
19.9901
19.9826
19.9826
19.9826
19.9826
19.9826
19.9752
19.9752
19.9752
19.9752
19.9752
19.968
19.968
19.968
19.968
19.968
19.9609
19.9609
19.9609
19.9609
19.9609
19.9541
19.9541
19.9541
19.9541
19.9541
19.9475
19.9475
19.9475
19.9475
19.9475
19.9412
19.9412
19.9412
19.9412
19.9412
19.9351
19.9351
19.9351
19.9351
19.9351
19.9292
19.9292
19.9292
19.9292
19.9292
19.9237
19.9237
19.9237
19.9237
19.9237
19.9184
19.9184
19.9184
19.9184
19.9184
19.9135
19.9135
19.9135
19.9135
19.9135
19.9089
19.9089
19.9089
19.9089
19.9089
19.9048
19.9048
19.9048
19.9048
19.9048
19.901
19.901
19.901
19.901
19.901
19.8977
19.8977
19.8977
19.8977
19.8977
19.8949
19.8949
19.8949
19.8949
19.8949
19.8925
19.8925
19.8925
19.8925
19.8925
19.8907
19.8906
19.8906
19.8906
19.8907
19.8893
19.8893
19.8893
19.8893
19.8893
19.8885
19.8884
19.8884
19.8884
19.8885
19.8881
19.8881
19.8881
19.8881
19.8881
19.8882
19.8882
19.8882
19.8882
19.8882
19.8888
19.8888
19.8888
19.8888
19.8888
19.8898
19.8898
19.8898
19.8898
19.8898
19.8911
19.8911
19.8911
19.8911
19.8911
20.095
20.095
20.095
20.095
20.095
20.0852
20.0852
20.0852
20.0852
20.0852
20.0756
20.0756
20.0756
20.0756
20.0756
20.0662
20.0662
20.0662
20.0662
20.0662
20.0569
20.0569
20.0569
20.0569
20.0569
20.0478
20.0478
20.0478
20.0478
20.0478
20.0389
20.0389
20.0389
20.0389
20.0389
20.0301
20.0301
20.0301
20.0301
20.0301
20.0215
20.0215
20.0215
20.0215
20.0215
20.0131
20.0131
20.0131
20.0131
20.0131
20.0048
20.0048
20.0048
20.0048
20.0048
19.9966
19.9966
19.9966
19.9966
19.9966
19.9886
19.9886
19.9886
19.9886
19.9886
19.9808
19.9808
19.9808
19.9808
19.9808
19.973
19.9731
19.9731
19.9731
19.973
19.9655
19.9655
19.9655
19.9655
19.9655
19.958
19.958
19.958
19.958
19.958
19.9507
19.9507
19.9507
19.9507
19.9507
19.9436
19.9436
19.9436
19.9436
19.9436
19.9366
19.9366
19.9366
19.9366
19.9366
19.9298
19.9298
19.9298
19.9298
19.9298
19.9232
19.9232
19.9232
19.9232
19.9232
19.9168
19.9168
19.9168
19.9168
19.9168
19.9106
19.9106
19.9106
19.9106
19.9106
19.9046
19.9047
19.9047
19.9047
19.9046
19.899
19.899
19.899
19.899
19.899
19.8937
19.8937
19.8937
19.8937
19.8937
19.8887
19.8887
19.8887
19.8887
19.8887
19.8841
19.8841
19.8841
19.8841
19.8841
19.88
19.88
19.88
19.88
19.88
19.8763
19.8763
19.8763
19.8763
19.8763
19.8732
19.8732
19.8732
19.8732
19.8732
19.8706
19.8706
19.8706
19.8706
19.8706
19.8686
19.8686
19.8686
19.8686
19.8686
19.8672
19.8672
19.8672
19.8672
19.8672
19.8664
19.8664
19.8664
19.8664
19.8664
19.8662
19.8662
19.8662
19.8662
19.8662
19.8666
19.8666
19.8665
19.8666
19.8666
19.8676
19.8675
19.8675
19.8675
19.8676
20.095
20.095
20.095
20.095
20.095
20.0851
20.0851
20.0851
20.0851
20.0851
20.0754
20.0754
20.0754
20.0754
20.0754
20.0659
20.0659
20.0659
20.0659
20.0659
20.0566
20.0566
20.0566
20.0566
20.0566
20.0474
20.0474
20.0474
20.0474
20.0474
20.0384
20.0384
20.0384
20.0384
20.0384
20.0295
20.0295
20.0295
20.0295
20.0295
20.0208
20.0208
20.0208
20.0208
20.0208
20.0122
20.0122
20.0122
20.0122
20.0122
20.0037
20.0037
20.0037
20.0037
20.0037
19.9954
19.9954
19.9954
19.9954
19.9954
19.9871
19.9871
19.9871
19.9871
19.9871
19.979
19.979
19.979
19.979
19.979
19.9709
19.9709
19.9709
19.9709
19.9709
19.9629
19.9629
19.9629
19.9629
19.9629
19.9551
19.9551
19.9551
19.9551
19.9551
19.9472
19.9472
19.9472
19.9472
19.9472
19.9395
19.9395
19.9395
19.9395
19.9395
19.9318
19.9318
19.9318
19.9318
19.9318
19.9243
19.9243
19.9243
19.9243
19.9243
19.9168
19.9168
19.9168
19.9168
19.9168
19.9093
19.9094
19.9094
19.9094
19.9093
19.9021
19.9021
19.9021
19.9021
19.9021
19.8949
19.8949
19.8949
19.8949
19.8949
19.8879
19.8879
19.8879
19.8879
19.8879
19.8811
19.8811
19.8811
19.8811
19.8811
19.8745
19.8746
19.8746
19.8746
19.8745
19.8683
19.8683
19.8683
19.8683
19.8683
19.8624
19.8624
19.8624
19.8624
19.8624
19.8569
19.8569
19.8569
19.8569
19.8569
19.8519
19.8519
19.8519
19.8519
19.8519
19.8475
19.8475
19.8475
19.8475
19.8475
19.8437
19.8437
19.8437
19.8437
19.8437
19.8407
19.8407
19.8407
19.8407
19.8407
19.8386
19.8386
19.8386
19.8386
19.8386
19.8373
19.8374
19.8374
19.8374
19.8373
19.8371
19.8372
19.8372
19.8372
19.8371
19.8379
19.838
19.8381
19.838
19.8379
20.095
20.095
20.095
20.095
20.095
20.0851
20.0851
20.0851
20.0851
20.0851
20.0753
20.0753
20.0753
20.0753
20.0753
20.0657
20.0657
20.0657
20.0657
20.0657
20.0563
20.0563
20.0563
20.0563
20.0563
20.0471
20.0471
20.0471
20.0471
20.0471
20.038
20.038
20.038
20.038
20.038
20.029
20.029
20.029
20.029
20.029
20.0201
20.0201
20.0201
20.0201
20.0201
20.0114
20.0114
20.0114
20.0114
20.0114
20.0027
20.0027
20.0027
20.0027
20.0027
19.9942
19.9942
19.9942
19.9942
19.9942
19.9857
19.9857
19.9857
19.9857
19.9857
19.9772
19.9772
19.9772
19.9772
19.9772
19.9688
19.9688
19.9688
19.9688
19.9688
19.9605
19.9605
19.9605
19.9605
19.9605
19.9521
19.9521
19.9521
19.9521
19.9521
19.9438
19.9438
19.9438
19.9438
19.9438
19.9354
19.9354
19.9354
19.9354
19.9354
19.927
19.927
19.927
19.927
19.927
19.9186
19.9186
19.9186
19.9186
19.9186
19.9101
19.9101
19.9101
19.9101
19.9101
19.9016
19.9016
19.9016
19.9016
19.9016
19.893
19.893
19.893
19.893
19.893
19.8844
19.8844
19.8844
19.8844
19.8844
19.8758
19.8758
19.8758
19.8758
19.8758
19.8672
19.8672
19.8672
19.8672
19.8672
19.8586
19.8586
19.8586
19.8586
19.8586
19.8501
19.8501
19.8501
19.8501
19.8501
19.8418
19.8419
19.8419
19.8419
19.8418
19.8338
19.8338
19.8338
19.8338
19.8338
19.8261
19.8261
19.8261
19.8261
19.8261
19.8189
19.8189
19.8189
19.8189
19.8189
19.8123
19.8123
19.8123
19.8123
19.8123
19.8065
19.8064
19.8064
19.8064
19.8065
19.8015
19.8013
19.8013
19.8013
19.8015
19.7975
19.7971
19.7971
19.7971
19.7975
19.7946
19.7941
19.794
19.7941
19.7946
19.7932
19.7925
19.7924
19.7925
19.7932
20.095
20.095
20.095
20.095
20.095
20.085
20.085
20.085
20.085
20.085
20.0752
20.0752
20.0752
20.0752
20.0752
20.0655
20.0655
20.0655
20.0655
20.0655
20.0561
20.0561
20.0561
20.0561
20.0561
20.0467
20.0467
20.0467
20.0467
20.0467
20.0375
20.0375
20.0375
20.0375
20.0375
20.0285
20.0285
20.0285
20.0285
20.0285
20.0195
20.0195
20.0195
20.0195
20.0195
20.0106
20.0106
20.0106
20.0106
20.0106
20.0018
20.0018
20.0018
20.0018
20.0018
19.993
19.993
19.993
19.993
19.993
19.9843
19.9843
19.9843
19.9843
19.9843
19.9756
19.9756
19.9756
19.9756
19.9756
19.9669
19.9669
19.9669
19.9669
19.9669
19.9581
19.9581
19.9581
19.9581
19.9581
19.9493
19.9493
19.9493
19.9493
19.9493
19.9404
19.9404
19.9404
19.9404
19.9404
19.9314
19.9314
19.9314
19.9314
19.9314
19.9223
19.9223
19.9223
19.9223
19.9223
19.913
19.913
19.913
19.913
19.913
19.9035
19.9035
19.9035
19.9035
19.9035
19.8937
19.8937
19.8937
19.8937
19.8937
19.8837
19.8838
19.8838
19.8838
19.8837
19.8735
19.8735
19.8735
19.8735
19.8735
19.863
19.863
19.863
19.863
19.863
19.8521
19.8522
19.8522
19.8522
19.8521
19.8411
19.8411
19.8411
19.8411
19.8411
19.8297
19.8298
19.8298
19.8298
19.8297
19.8183
19.8183
19.8183
19.8183
19.8183
19.8067
19.8068
19.8068
19.8068
19.8067
19.7952
19.7953
19.7953
19.7953
19.7952
19.784
19.7841
19.7841
19.7841
19.784
19.7733
19.7735
19.7735
19.7735
19.7733
19.7636
19.7639
19.764
19.7639
19.7636
19.7555
19.756
19.756
19.756
19.7555
19.7495
19.7503
19.7503
19.7503
19.7495
19.7465
19.7475
19.7476
19.7475
19.7465
19.7471
19.7483
19.7484
19.7483
19.7471
20.095
20.095
20.095
20.095
20.095
20.0849
20.0849
20.0849
20.0849
20.0849
20.0751
20.0751
20.0751
20.0751
20.0751
20.0654
20.0654
20.0654
20.0654
20.0654
20.0558
20.0558
20.0558
20.0558
20.0558
20.0465
20.0465
20.0465
20.0465
20.0465
20.0372
20.0372
20.0372
20.0372
20.0372
20.028
20.028
20.028
20.028
20.028
20.0189
20.0189
20.0189
20.0189
20.0189
20.0099
20.0099
20.0099
20.0099
20.0099
20.001
20.001
20.001
20.001
20.001
19.992
19.992
19.992
19.992
19.992
19.9831
19.9831
19.9831
19.9831
19.9831
19.9742
19.9742
19.9742
19.9742
19.9742
19.9651
19.9651
19.9651
19.9651
19.9651
19.956
19.956
19.956
19.956
19.956
19.9468
19.9468
19.9468
19.9468
19.9468
19.9374
19.9374
19.9374
19.9374
19.9374
19.9278
19.9278
19.9278
19.9278
19.9278
19.9179
19.9179
19.9179
19.9179
19.9179
19.9077
19.9077
19.9077
19.9077
19.9077
19.8972
19.8972
19.8972
19.8972
19.8972
19.8862
19.8862
19.8862
19.8862
19.8862
19.8747
19.8747
19.8747
19.8747
19.8747
19.8626
19.8626
19.8626
19.8626
19.8626
19.8499
19.8499
19.8499
19.8499
19.8499
19.8365
19.8366
19.8366
19.8366
19.8365
19.8224
19.8224
19.8224
19.8224
19.8224
19.8075
19.8076
19.8076
19.8076
19.8075
19.7918
19.7919
19.7919
19.7919
19.7918
19.7754
19.7755
19.7755
19.7755
19.7754
19.7582
19.7583
19.7583
19.7583
19.7582
19.7404
19.7405
19.7404
19.7405
19.7404
19.7221
19.7219
19.7219
19.7219
19.7221
19.7031
19.7027
19.7027
19.7027
19.7031
19.6835
19.6826
19.6825
19.6826
19.6835
19.663
19.6615
19.6614
19.6615
19.663
19.6427
19.6406
19.6405
19.6406
19.6427
19.6259
19.6231
19.6232
19.6231
19.6259
20.0949
20.0949
20.0949
20.0949
20.0949
20.0849
20.0849
20.0849
20.0849
20.0849
20.075
20.075
20.075
20.075
20.075
20.0652
20.0652
20.0652
20.0652
20.0652
20.0557
20.0557
20.0557
20.0557
20.0557
20.0462
20.0462
20.0462
20.0462
20.0462
20.0369
20.0369
20.0369
20.0369
20.0369
20.0277
20.0277
20.0277
20.0277
20.0277
20.0185
20.0185
20.0185
20.0185
20.0185
20.0094
20.0094
20.0094
20.0094
20.0094
20.0003
20.0003
20.0003
20.0003
20.0003
19.9913
19.9913
19.9913
19.9913
19.9913
19.9822
19.9822
19.9822
19.9822
19.9822
19.973
19.973
19.973
19.973
19.973
19.9637
19.9637
19.9637
19.9637
19.9637
19.9543
19.9543
19.9543
19.9543
19.9543
19.9447
19.9447
19.9447
19.9447
19.9447
19.9349
19.9349
19.9349
19.9349
19.9349
19.9247
19.9247
19.9247
19.9247
19.9247
19.9142
19.9141
19.9141
19.9141
19.9142
19.9032
19.9031
19.9031
19.9031
19.9032
19.8916
19.8916
19.8916
19.8916
19.8916
19.8793
19.8793
19.8793
19.8793
19.8793
19.8663
19.8663
19.8663
19.8663
19.8663
19.8524
19.8524
19.8524
19.8524
19.8524
19.8374
19.8374
19.8374
19.8374
19.8374
19.8211
19.8212
19.8212
19.8212
19.8211
19.8035
19.8036
19.8036
19.8036
19.8035
19.7843
19.7844
19.7844
19.7844
19.7843
19.7633
19.7635
19.7635
19.7635
19.7633
19.7405
19.7407
19.7407
19.7407
19.7405
19.7158
19.7161
19.7161
19.7161
19.7158
19.6894
19.6899
19.6899
19.6899
19.6894
19.6618
19.6626
19.6626
19.6626
19.6618
19.6342
19.6355
19.6355
19.6355
19.6342
19.6086
19.6106
19.6106
19.6106
19.6086
19.5875
19.5903
19.5904
19.5903
19.5875
19.5701
19.5734
19.5734
19.5734
19.5701
19.5649
19.5685
19.5685
19.5685
19.5649
20.0949
20.0949
20.0949
20.0949
20.0949
20.0848
20.0848
20.0848
20.0848
20.0848
20.0749
20.0749
20.0749
20.0749
20.0749
20.0651
20.0651
20.0651
20.0651
20.0651
20.0555
20.0555
20.0555
20.0555
20.0555
20.0461
20.0461
20.0461
20.0461
20.0461
20.0367
20.0367
20.0367
20.0367
20.0367
20.0274
20.0274
20.0274
20.0274
20.0274
20.0182
20.0182
20.0182
20.0182
20.0182
20.009
20.009
20.009
20.009
20.009
19.9999
19.9999
19.9999
19.9999
19.9999
19.9907
19.9907
19.9907
19.9907
19.9907
19.9815
19.9815
19.9815
19.9815
19.9815
19.9722
19.9722
19.9722
19.9722
19.9722
19.9627
19.9627
19.9627
19.9627
19.9627
19.9531
19.9531
19.9531
19.9531
19.9531
19.9432
19.9432
19.9432
19.9432
19.9432
19.933
19.933
19.933
19.933
19.933
19.9224
19.9224
19.9224
19.9224
19.9224
19.9113
19.9113
19.9113
19.9113
19.9113
19.8997
19.8996
19.8996
19.8996
19.8997
19.8872
19.8872
19.8872
19.8872
19.8872
19.8739
19.8739
19.8739
19.8739
19.8739
19.8595
19.8595
19.8595
19.8595
19.8595
19.8439
19.8438
19.8439
19.8438
19.8439
19.8266
19.8266
19.8266
19.8266
19.8266
19.8075
19.8075
19.8075
19.8075
19.8075
19.7861
19.7861
19.7861
19.7861
19.7861
19.762
19.762
19.762
19.762
19.762
19.7346
19.7347
19.7347
19.7347
19.7346
19.7034
19.7036
19.7036
19.7036
19.7034
19.6677
19.6679
19.6679
19.6679
19.6677
19.6266
19.6268
19.6268
19.6268
19.6266
19.5789
19.5789
19.5789
19.5789
19.5789
19.5226
19.5221
19.522
19.5221
19.5226
19.4537
19.4522
19.452
19.4522
19.4537
19.3636
19.3607
19.3605
19.3607
19.3636
19.2506
19.247
19.2469
19.247
19.2506
19.1103
19.1046
19.1047
19.1046
19.1103
20.0949
20.0949
20.0949
20.0949
20.0949
20.0848
20.0848
20.0848
20.0848
20.0848
20.0749
20.0749
20.0749
20.0749
20.0749
20.0651
20.0651
20.0651
20.0651
20.0651
20.0555
20.0555
20.0555
20.0555
20.0555
20.046
20.046
20.046
20.046
20.046
20.0366
20.0366
20.0366
20.0366
20.0366
20.0273
20.0273
20.0273
20.0273
20.0273
20.0181
20.0181
20.0181
20.0181
20.0181
20.0089
20.0089
20.0089
20.0089
20.0089
19.9997
19.9997
19.9997
19.9997
19.9997
19.9905
19.9905
19.9905
19.9905
19.9905
19.9812
19.9812
19.9812
19.9812
19.9812
19.9718
19.9718
19.9718
19.9718
19.9718
19.9623
19.9622
19.9622
19.9622
19.9623
19.9525
19.9525
19.9525
19.9525
19.9525
19.9425
19.9424
19.9424
19.9424
19.9425
19.9321
19.932
19.932
19.932
19.9321
19.9212
19.9212
19.9212
19.9212
19.9212
19.9098
19.9097
19.9097
19.9097
19.9098
19.8977
19.8976
19.8976
19.8976
19.8977
19.8847
19.8846
19.8846
19.8846
19.8847
19.8707
19.8706
19.8706
19.8706
19.8707
19.8553
19.8552
19.8552
19.8552
19.8553
19.8383
19.8382
19.8382
19.8382
19.8383
19.8193
19.8191
19.8191
19.8191
19.8193
19.7978
19.7975
19.7976
19.7975
19.7978
19.7731
19.7728
19.7728
19.7728
19.7731
19.7443
19.744
19.744
19.744
19.7443
19.7104
19.71
19.7101
19.71
19.7104
19.67
19.6696
19.6697
19.6696
19.67
19.6211
19.6207
19.6208
19.6207
19.6211
19.5615
19.5614
19.5615
19.5614
19.5615
19.4888
19.4893
19.4895
19.4893
19.4888
19.4029
19.4046
19.4049
19.4046
19.4029
19.3057
19.309
19.3092
19.309
19.3057
19.2137
19.2206
19.2208
19.2206
19.2137
19.0985
19.1043
19.1042
19.1043
19.0985
19.0524
19.0662
19.0663
19.0662
19.0524
20.0949
20.0949
20.0949
20.0949
20.0949
20.0848
20.0848
20.0848
20.0848
20.0848
20.0749
20.0749
20.0749
20.0749
20.0749
20.0651
20.0651
20.0651
20.0651
20.0651
20.0556
20.0556
20.0556
20.0556
20.0556
20.0461
20.0461
20.0461
20.0461
20.0461
20.0367
20.0367
20.0367
20.0367
20.0367
20.0275
20.0275
20.0275
20.0275
20.0275
20.0183
20.0183
20.0183
20.0183
20.0183
20.0091
20.0091
20.0091
20.0091
20.0091
20
20
20
20
20
19.9908
19.9908
19.9908
19.9908
19.9908
19.9816
19.9816
19.9816
19.9816
19.9816
19.9723
19.9723
19.9723
19.9723
19.9723
19.9628
19.9628
19.9628
19.9628
19.9628
19.9532
19.9532
19.9532
19.9532
19.9532
19.9433
19.9432
19.9432
19.9432
19.9433
19.933
19.933
19.933
19.933
19.933
19.9223
19.9223
19.9223
19.9223
19.9223
19.9111
19.911
19.911
19.911
19.9111
19.8991
19.8991
19.8991
19.8991
19.8991
19.8864
19.8864
19.8863
19.8864
19.8864
19.8725
19.8725
19.8725
19.8725
19.8725
19.8574
19.8574
19.8574
19.8574
19.8574
19.8406
19.8406
19.8406
19.8406
19.8406
19.8217
19.8217
19.8217
19.8217
19.8217
19.8002
19.8002
19.8002
19.8002
19.8002
19.7753
19.7752
19.7752
19.7752
19.7753
19.7458
19.7457
19.7457
19.7457
19.7458
19.7102
19.7102
19.7102
19.7102
19.7102
19.6663
19.6662
19.6663
19.6662
19.6663
19.6106
19.6104
19.6105
19.6104
19.6106
19.5373
19.537
19.5371
19.537
19.5373
19.4368
19.4361
19.4363
19.4361
19.4368
19.289
19.288
19.2882
19.288
19.289
19.0584
19.0576
19.0577
19.0576
19.0584
18.6427
18.642
18.6418
18.642
18.6427
17.9386
17.9414
17.9402
17.9414
17.9386
16.4242
16.417
16.4146
16.417
16.4242
19.9461
19.9461
19.9461
19.9461
19.9461
19.9519
19.9519