/*--------------------------------*- C++ -*----------------------------------*\
  =========                 |
  \\      /  F ield         | OpenFOAM: The Open Source CFD Toolbox
   \\    /   O peration     | Website:  https://openfoam.org
    \\  /    A nd           | Version:  9
     \\/     M anipulation  |
\*---------------------------------------------------------------------------*/
FoamFile
{
    format      ascii;
    class       surfaceScalarField;
    location    "0.3";
    object      phi;
}
// * * * * * * * * * * * * * * * * * * * * * * * * * * * * * * * * * * * * * //

dimensions      [0 3 -1 0 0 0 0];

internalField   nonuniform List<scalar> 
12376
(
2.7791e-10
0.000342701
9.63605e-08
1.20112e-11
0.000342699
9.65897e-08
7.45374e-12
0.000342698
9.6672e-08
-2.65687e-10
0.000342699
9.70745e-08
0.000342701
9.72055e-08
-3.25102e-10
0.000342565
1.36024e-07
-1.69128e-11
0.000342563
1.35468e-07
3.02939e-11
0.000342563
1.35408e-07
3.4018e-10
0.000342563
1.35724e-07
0.000342565
1.36427e-07
-2.09823e-10
0.000342322
2.43072e-07
-2.71045e-11
0.00034232
2.42933e-07
3.15703e-11
0.00034232
2.42812e-07
2.18258e-10
0.00034232
2.42899e-07
0.000342322
2.42989e-07
-1.10638e-10
0.000341932
3.90144e-07
-6.78018e-11
0.00034193
3.90133e-07
6.46731e-11
0.00034193
3.89931e-07
1.12521e-10
0.00034193
3.90001e-07
0.000341932
3.89923e-07
-9.10669e-11
0.00034138
5.51744e-07
-8.90801e-11
0.000341378
5.51694e-07
8.43895e-11
0.000341378
5.51478e-07
8.93438e-11
0.000341378
5.51653e-07
0.00034138
5.5168e-07
-7.41787e-11
0.000340659
7.21835e-07
-9.69246e-11
0.000340656
7.2186e-07
9.53485e-11
0.000340656
7.21658e-07
7.14685e-11
0.000340656
7.21911e-07
0.000340658
7.21916e-07
-5.46955e-11
0.000339756
9.03126e-07
-1.02814e-10
0.000339753
9.03215e-07
1.0489e-10
0.000339753
9.02975e-07
5.22077e-11
0.000339753
9.03267e-07
0.000339755
9.03206e-07
-3.33104e-11
0.000338657
1.0989e-06
-1.09324e-10
0.000338654
1.09901e-06
1.12459e-10
0.000338654
1.0987e-06
3.16311e-11
0.000338654
1.09902e-06
0.000338656
1.0989e-06
-4.79704e-12
0.000337344
1.31271e-06
-1.14789e-10
0.000337342
1.31288e-06
1.17492e-10
0.000337341
1.31252e-06
4.32259e-12
0.000337341
1.31287e-06
0.000337344
1.31271e-06
3.42375e-11
0.000335797
1.54723e-06
-1.16624e-10
0.000335794
1.54748e-06
1.20627e-10
0.000335794
1.54709e-06
-3.28674e-11
0.000335794
1.5475e-06
0.000335797
1.54727e-06
8.32249e-11
0.000333992
1.80517e-06
-1.15067e-10
0.000333989
1.80547e-06
1.18865e-10
0.000333989
1.80501e-06
-7.99634e-11
0.000333989
1.80546e-06
0.000333991
1.80514e-06
1.40978e-10
0.000331903
2.08887e-06
-1.13548e-10
0.0003319
2.08922e-06
1.13339e-10
0.0003319
2.08867e-06
-1.36721e-10
0.0003319
2.08917e-06
0.000331902
2.08878e-06
2.08753e-10
0.000329504
2.3987e-06
-1.15243e-10
0.000329501
2.39914e-06
1.15525e-10
0.000329501
2.39854e-06
-2.03852e-10
0.000329501
2.39915e-06
0.000329503
2.39871e-06
2.86878e-10
0.000326765
2.73831e-06
-1.15128e-10
0.000326763
2.73885e-06
1.16411e-10
0.000326763
2.73817e-06
-2.81467e-10
0.000326763
2.7389e-06
0.000326765
2.73838e-06
3.73671e-10
0.00032366
3.10507e-06
-1.14696e-10
0.000323658
3.10568e-06
1.14664e-10
0.000323658
3.10487e-06
-3.69208e-10
0.000323657
3.10564e-06
0.000323659
3.105e-06
4.69581e-10
0.000320158
3.50107e-06
-1.13322e-10
0.000320156
3.50178e-06
1.12306e-10
0.000320156
3.50082e-06
-4.67156e-10
0.000320156
3.50168e-06
0.000320158
3.50089e-06
5.76426e-10
0.000316232
3.92546e-06
-1.10192e-10
0.000316231
3.92633e-06
1.10695e-10
0.000316231
3.92528e-06
-5.75276e-10
0.000316231
3.92629e-06
0.000316232
3.92539e-06
6.94103e-10
0.000311855
4.37615e-06
-1.05734e-10
0.000311854
4.3772e-06
1.08736e-10
0.000311855
4.37605e-06
-6.93192e-10
0.000311854
4.37722e-06
0.000311855
4.37618e-06
8.22476e-10
0.000307001
4.85283e-06
-1.00033e-10
0.000307001
4.85408e-06
1.05745e-10
0.000307002
4.85279e-06
-8.21456e-10
0.000307001
4.85409e-06
0.000307001
4.85287e-06
9.61889e-10
0.000301651
5.34971e-06
-9.26182e-11
0.000301651
5.35118e-06
1.02009e-10
0.000301652
5.34977e-06
-9.60182e-10
0.000301651
5.35121e-06
0.000301651
5.34977e-06
1.11279e-09
0.000295784
5.86581e-06
-8.39275e-11
0.000295785
5.86754e-06
9.72855e-11
0.000295786
5.86601e-06
-1.1095e-09
0.000295785
5.86761e-06
0.000295784
5.86592e-06
1.27321e-09
0.000289387
6.396e-06
-7.48219e-11
0.000289388
6.39801e-06
9.04948e-11
0.000289389
6.39634e-06
-1.2681e-09
0.000289388
6.39807e-06
0.000289386
6.3961e-06
1.44011e-09
0.00028245
6.93483e-06
-6.57004e-11
0.000282453
6.93712e-06
8.12893e-11
0.000282454
6.93527e-06
-1.43366e-09
0.000282452
6.93709e-06
0.00028245
6.9348e-06
1.61045e-09
0.000274972
7.47684e-06
-5.64572e-11
0.000274975
7.47942e-06
7.05369e-11
0.000274976
7.4774e-06
-1.603e-09
0.000274975
7.47932e-06
0.000274972
7.47669e-06
1.78096e-09
0.000266954
8.01611e-06
-4.69859e-11
0.000266958
8.01903e-06
5.95163e-11
0.000266959
8.01689e-06
-1.77236e-09
0.000266958
8.01895e-06
0.000266954
8.01598e-06
1.94801e-09
0.000258406
8.54619e-06
-3.72966e-11
0.00025841
8.54949e-06
4.91614e-11
0.000258412
8.54727e-06
-1.938e-09
0.00025841
8.54948e-06
0.000258406
8.54617e-06
2.10841e-09
0.000249343
9.06135e-06
-2.73557e-11
0.000249347
9.06504e-06
3.99594e-11
0.000249349
9.06274e-06
-2.09702e-09
0.000249347
9.06509e-06
0.000249343
9.06143e-06
2.25977e-09
0.000239785
9.55521e-06
-1.70019e-11
0.00023979
9.55928e-06
3.21218e-11
0.000239792
9.55689e-06
-2.24718e-09
0.00023979
9.55934e-06
0.000239785
9.55531e-06
2.40043e-09
0.000229762
1.0021e-05
-6.18106e-12
0.000229767
1.00254e-05
2.56453e-11
0.000229769
1.00229e-05
-2.38671e-09
0.000229767
1.00255e-05
0.000229762
1.00211e-05
2.52962e-09
0.000219305
1.04544e-05
4.79173e-12
0.000219311
1.04592e-05
2.02613e-11
0.000219313
1.04566e-05
-2.51464e-09
0.00021931
1.04592e-05
0.000219305
1.04544e-05
2.64608e-09
0.000208452
1.08502e-05
1.51647e-11
0.000208458
1.08553e-05
1.54809e-11
0.00020846
1.08526e-05
-2.62976e-09
0.000208458
1.08553e-05
0.000208452
1.08502e-05
2.74848e-09
0.000197245
1.12046e-05
2.39585e-11
0.000197251
1.12099e-05
1.08769e-11
0.000197253
1.12073e-05
-2.73112e-09
0.000197251
1.121e-05
0.000197244
1.12046e-05
2.83559e-09
0.000185726
1.15152e-05
3.0369e-11
0.000185733
1.15209e-05
6.42576e-12
0.000185735
1.15182e-05
-2.81792e-09
0.000185732
1.15209e-05
0.000185726
1.15152e-05
2.90629e-09
0.000173944
1.17797e-05
3.40837e-11
0.00017395
1.17856e-05
2.67171e-12
0.000173952
1.17829e-05
-2.88933e-09
0.00017395
1.17856e-05
0.000173944
1.17798e-05
2.96057e-09
0.000161943
1.19977e-05
3.52951e-11
0.000161949
1.20038e-05
5.64544e-13
0.000161951
1.20011e-05
-2.94529e-09
0.000161949
1.20038e-05
0.000161943
1.19977e-05
2.9996e-09
0.000149771
1.21695e-05
3.45153e-11
0.000149776
1.21758e-05
9.78326e-13
0.000149778
1.21731e-05
-2.98678e-09
0.000149776
1.21758e-05
0.00014977
1.21696e-05
3.02392e-09
0.000137472
1.22959e-05
3.25552e-11
0.000137477
1.23024e-05
4.12342e-12
0.000137478
1.22996e-05
-3.01416e-09
0.000137477
1.23024e-05
0.000137471
1.22959e-05
3.02592e-09
0.000125089
1.23798e-05
3.02295e-11
0.000125093
1.23866e-05
9.66879e-12
0.000125094
1.23838e-05
-3.01961e-09
0.000125093
1.23865e-05
0.000125089
1.23797e-05
2.99089e-09
1.24276e-05
0.000112658
2.68214e-11
1.24347e-05
0.000112661
1.79576e-11
1.2432e-05
0.000112662
-2.98741e-09
1.24346e-05
0.000112661
1.24275e-05
0.000112658
2.65739e-10
0.000743603
2.39638e-07
8.39187e-12
0.000743601
2.39336e-07
-1.88469e-12
0.0007436
2.39405e-07
-2.59642e-10
0.000743601
2.39955e-07
0.000743603
2.40709e-07
-4.90432e-10
0.000743359
3.80143e-07
-2.84309e-12
0.000743356
3.79617e-07
1.0434e-11
0.000743355
3.79619e-07
4.97821e-10
0.000743356
3.79994e-07
0.000743359
3.80755e-07
-3.93414e-10
0.000742916
6.86835e-07
-3.011e-12
0.000742912
6.86443e-07
8.87017e-12
0.000742912
6.86451e-07
3.98677e-10
0.000742912
6.8644e-07
0.000742915
6.86806e-07
-3.79861e-10
0.000742208
1.09878e-06
-2.83713e-11
0.000742204
1.0983e-06
2.8387e-11
0.000742203
1.09833e-06
3.81273e-10
0.000742203
1.09813e-06
0.000742207
1.0985e-06
-4.78392e-10
0.000741199
1.56079e-06
-4.05394e-11
0.000741195
1.56015e-06
3.72085e-11
0.000741194
1.56029e-06
4.76114e-10
0.000741194
1.56009e-06
0.000741199
1.5607e-06
-5.6956e-10
0.000739868
2.05387e-06
-4.0035e-11
0.000739863
2.05314e-06
3.80485e-11
0.000739862
2.05343e-06
5.66608e-10
0.000739863
2.05321e-06
0.000739867
2.05396e-06
-6.63201e-10
0.00073819
2.58147e-06
-3.74849e-11
0.000738185
2.58065e-06
3.87819e-11
0.000738184
2.58102e-06
6.61458e-10
0.000738185
2.58073e-06
0.00073819
2.58158e-06
-7.66264e-10
0.000736138
3.15184e-06
-3.52034e-11
0.000736132
3.15089e-06
3.77391e-11
0.000736132
3.1513e-06
7.6613e-10
0.000736132
3.15091e-06
0.000736137
3.15188e-06
-8.72746e-10
0.000733676
3.77515e-06
-3.27732e-11
0.00073367
3.77405e-06
3.38825e-11
0.00073367
3.77451e-06
8.74117e-10
0.00073367
3.77403e-06
0.000733676
3.77515e-06
-9.81297e-10
0.000730765
4.45907e-06
-2.7911e-11
0.000730759
4.4578e-06
2.94001e-11
0.000730758
4.45835e-06
9.83718e-10
0.000730759
4.45781e-06
0.000730765
4.45907e-06
-1.09357e-09
0.00072736
5.21184e-06
-2.07574e-11
0.000727353
5.21039e-06
2.28206e-11
0.000727352
5.21099e-06
1.09705e-09
0.000727353
5.21036e-06
0.000727359
5.21177e-06
-1.21042e-09
0.000723409
6.04131e-06
-1.22182e-11
0.000723402
6.03964e-06
1.24895e-11
0.000723401
6.04028e-06
1.21414e-09
0.000723401
6.03957e-06
0.000723408
6.04118e-06
-1.3306e-09
0.000718859
6.94938e-06
-4.76582e-13
0.000718852
6.94751e-06
5.70492e-13
0.000718851
6.94824e-06
1.33392e-09
0.000718852
6.94751e-06
0.000718859
6.94938e-06
-1.45556e-09
0.000713651
7.9476e-06
1.47888e-11
0.000713644
7.9455e-06
-1.34999e-11
0.000713643
7.94632e-06
1.45903e-09
0.000713643
7.94556e-06
0.000713651
7.94769e-06
-1.58414e-09
0.000707728
9.02974e-06
3.16937e-11
0.00070772
9.02738e-06
-3.11688e-11
0.000707719
9.0282e-06
1.58707e-09
0.00070772
9.02733e-06
0.000707728
9.02967e-06
-1.71669e-09
0.000701028
1.02035e-05
5.03892e-11
0.000701019
1.02008e-05
-5.06518e-11
0.000701019
1.02017e-05
1.71798e-09
0.000701019
1.02007e-05
0.000701027
1.02033e-05
-1.8504e-09
0.000693487
1.14675e-05
7.15153e-11
0.000693479
1.14647e-05
-7.05226e-11
0.000693479
1.14656e-05
1.85099e-09
0.000693479
1.14646e-05
0.000693487
1.14674e-05
-1.98388e-09
0.000685048
1.28173e-05
9.47708e-11
0.00068504
1.28142e-05
-9.18811e-11
0.00068504
1.28152e-05
1.98505e-09
0.00068504
1.28142e-05
0.000685048
1.28173e-05
-2.11654e-09
0.000675649
1.42542e-05
1.20353e-10
0.000675641
1.42509e-05
-1.15195e-10
0.000675641
1.42519e-05
2.11849e-09
0.000675641
1.42509e-05
0.000675649
1.42542e-05
-2.24358e-09
0.000665238
1.57632e-05
1.48377e-10
0.00066523
1.57597e-05
-1.39588e-10
0.00066523
1.57608e-05
2.24677e-09
0.00066523
1.57598e-05
0.000665237
1.57633e-05
-2.36383e-09
0.000653763
1.73432e-05
1.7808e-10
0.000653755
1.73396e-05
-1.65303e-10
0.000653756
1.73408e-05
2.36922e-09
0.000653755
1.73397e-05
0.000653762
1.73433e-05
-2.47646e-09
0.00064118
1.89807e-05
2.08551e-10
0.000641174
1.89771e-05
-1.93374e-10
0.000641174
1.89783e-05
2.4841e-09
0.000641174
1.89771e-05
0.00064118
1.89809e-05
-2.58102e-09
0.000627456
2.06616e-05
2.39549e-10
0.00062745
2.06579e-05
-2.23944e-10
0.000627451
2.06591e-05
2.59e-09
0.00062745
2.06578e-05
0.000627456
2.06616e-05
-2.67683e-09
0.000612564
2.23714e-05
2.70969e-10
0.000612559
2.23676e-05
-2.56004e-10
0.00061256
2.23688e-05
2.68641e-09
0.000612559
2.23675e-05
0.000612564
2.23712e-05
-2.76357e-09
0.00059649
2.40934e-05
3.02242e-10
0.000596485
2.40897e-05
-2.88225e-10
0.000596487
2.40909e-05
2.77366e-09
0.000596485
2.40896e-05
0.00059649
2.40932e-05
-2.84149e-09
0.00057923
2.58086e-05
3.33061e-10
0.000579227
2.58051e-05
-3.19561e-10
0.000579228
2.58064e-05
2.85216e-09
0.000579227
2.5805e-05
0.00057923
2.58086e-05
-2.91079e-09
0.000560795
2.74996e-05
3.63297e-10
0.000560792
2.74963e-05
-3.49191e-10
0.000560794
2.74977e-05
2.92204e-09
0.000560792
2.74963e-05
0.000560795
2.74997e-05
-2.9706e-09
0.000541207
2.91465e-05
3.93093e-10
0.000541205
2.91434e-05
-3.76584e-10
0.000541206
2.9145e-05
2.98249e-09
0.000541204
2.91435e-05
0.000541206
2.91467e-05
-3.01949e-09
0.000520503
3.07276e-05
4.22056e-10
0.000520502
3.07248e-05
-4.01521e-10
0.000520504
3.07264e-05
3.03228e-09
0.000520502
3.07248e-05
0.000520503
3.07277e-05
-3.05696e-09
0.000498733
3.22278e-05
4.49372e-10
0.000498732
3.22253e-05
-4.24197e-10
0.000498734
3.2227e-05
3.07097e-09
0.000498732
3.22253e-05
0.000498733
3.22279e-05
-3.08258e-09
0.000475958
3.36279e-05
4.73939e-10
0.000475958
3.36257e-05
-4.44832e-10
0.00047596
3.36274e-05
3.09786e-09
0.000475958
3.36257e-05
0.000475958
3.36279e-05
-3.09663e-09
0.000452253
3.49129e-05
4.94835e-10
0.000452254
3.4911e-05
-4.63455e-10
0.000452256
3.49128e-05
3.11281e-09
0.000452253
3.4911e-05
0.000452253
3.4913e-05
-3.09951e-09
0.000427699
3.60717e-05
5.11569e-10
0.000427701
3.607e-05
-4.79699e-10
0.000427703
3.60719e-05
3.11599e-09
0.000427701
3.607e-05
0.000427699
3.60717e-05
-3.09093e-09
0.00040239
3.70923e-05
5.24105e-10
0.000402392
3.70909e-05
-4.92776e-10
0.000402394
3.70928e-05
3.10709e-09
0.000402392
3.7091e-05
0.00040239
3.70924e-05
-3.07022e-09
0.000376421
3.79695e-05
5.32744e-10
0.000376424
3.79682e-05
-5.01901e-10
0.000376426
3.79702e-05
3.0857e-09
0.000376424
3.79683e-05
0.000376421
3.79695e-05
-3.03657e-09
0.000349894
3.86998e-05
5.37554e-10
0.000349897
3.86987e-05
-5.06423e-10
0.000349899
3.87006e-05
3.05132e-09
0.000349897
3.86987e-05
0.000349894
3.86998e-05
-2.98764e-09
0.000322912
3.92807e-05
5.37439e-10
0.000322917
3.92796e-05
-5.05282e-10
0.000322919
3.92815e-05
3.00179e-09
0.000322916
3.92795e-05
0.000322912
3.92806e-05
-2.9073e-09
0.000295577
3.97179e-05
5.29948e-10
0.000295583
3.97165e-05
-4.96508e-10
0.000295585
3.97183e-05
2.92091e-09
0.000295583
3.97163e-05
0.000295577
3.97177e-05
-2.76211e-09
4.00116e-05
0.000267996
5.13193e-10
4.00098e-05
0.000268005
-4.78431e-10
4.00115e-05
0.000268007
2.77527e-09
4.00095e-05
0.000268005
4.00111e-05
0.000267996
3.11264e-10
0.000895983
3.88072e-07
2.05416e-12
0.000895982
3.87362e-07
-4.85346e-12
0.000895981
3.87259e-07
-3.09439e-10
0.000895981
3.87769e-07
0.000895982
3.88782e-07
-4.0646e-10
0.000895728
6.35313e-07
-3.56212e-12
0.000895726
6.3496e-07
6.26031e-12
0.000895726
6.3494e-07
4.08169e-10
0.000895726
6.3521e-07
0.000895728
6.35723e-07
-2.1987e-10
0.000895262
1.15343e-06
-1.34815e-12
0.000895259
1.15311e-06
6.44223e-12
0.000895259
1.15313e-06
2.2219e-10
0.000895259
1.15308e-06
0.000895261
1.15338e-06
-1.25e-10
0.000894513
1.84802e-06
-2.39472e-11
0.00089451
1.84753e-06
2.42155e-11
0.00089451
1.84759e-06
1.25789e-10
0.00089451
1.84737e-06
0.000894512
1.84775e-06
-1.42029e-10
0.000893437
2.63618e-06
-3.72502e-11
0.000893434
2.63555e-06
3.34978e-11
0.000893434
2.63576e-06
1.40421e-10
0.000893434
2.63549e-06
0.000893437
2.63607e-06
-1.37369e-10
0.000892007
3.48408e-06
-4.24372e-11
0.000892004
3.4834e-06
3.85349e-11
0.000892004
3.48373e-06
1.35016e-10
0.000892004
3.48345e-06
0.000892007
3.48415e-06
-1.27538e-10
0.000890195
4.39409e-06
-4.80923e-11
0.000890191
4.39332e-06
5.07131e-11
0.000890191
4.39371e-06
1.26825e-10
0.000890191
4.39338e-06
0.000890194
4.39418e-06
-1.2011e-10
0.000887968
5.37896e-06
-5.01528e-11
0.000887964
5.37806e-06
5.30736e-11
0.000887964
5.37848e-06
1.21673e-10
0.000887964
5.37807e-06
0.000887967
5.37898e-06
-1.07782e-10
0.000885287
6.45591e-06
-5.19232e-11
0.000885283
6.45486e-06
5.15824e-11
0.000885283
6.45531e-06
1.09983e-10
0.000885283
6.45484e-06
0.000885287
6.45588e-06
-8.74968e-11
0.000882108
7.63828e-06
-4.95159e-11
0.000882104
7.63707e-06
5.05273e-11
0.000882104
7.63757e-06
8.95186e-11
0.000882104
7.63706e-06
0.000882108
7.63825e-06
-5.8778e-11
0.000878379
8.94093e-06
-4.33991e-11
0.000878375
8.93954e-06
4.66225e-11
0.000878374
8.94007e-06
6.16684e-11
0.000878375
8.93951e-06
0.000878379
8.94087e-06
-2.15457e-11
0.000874042
1.03784e-05
-3.52443e-11
0.000874038
1.03768e-05
3.63012e-11
0.000874037
1.03774e-05
2.4578e-11
0.000874037
1.03768e-05
0.000874041
1.03783e-05
2.54502e-11
0.000869036
1.19552e-05
-1.94716e-11
0.000869032
1.19534e-05
1.96497e-11
0.000869032
1.1954e-05
-2.33614e-11
0.000869031
1.19534e-05
0.000869036
1.19552e-05
8.30745e-11
0.000863291
1.36923e-05
-7.64433e-12
0.000863287
1.36903e-05
9.3335e-12
0.000863287
1.36909e-05
-8.08986e-11
0.000863287
1.36903e-05
0.000863291
1.36924e-05
1.51306e-10
0.00085674
1.55809e-05
5.21391e-12
0.000856736
1.55786e-05
-4.10031e-12
0.000856736
1.55792e-05
-1.49157e-10
0.000856736
1.55786e-05
0.000856739
1.55808e-05
2.30551e-10
0.000849307
1.76359e-05
1.92385e-11
0.000849304
1.76334e-05
-1.90241e-11
0.000849304
1.76339e-05
-2.29325e-10
0.000849303
1.76333e-05
0.000849307
1.76358e-05
3.2263e-10
0.000840917
1.98571e-05
3.52804e-11
0.000840914
1.98543e-05
-3.39988e-11
0.000840915
1.98548e-05
-3.2149e-10
0.000840914
1.98543e-05
0.000840917
1.9857e-05
4.2741e-10
0.000831496
2.22382e-05
5.30456e-11
0.000831494
2.22353e-05
-5.01991e-11
0.000831494
2.22358e-05
-4.25294e-10
0.000831493
2.22353e-05
0.000831495
2.22382e-05
5.45231e-10
0.000820965
2.47844e-05
7.28019e-11
0.000820964
2.47814e-05
-6.8085e-11
0.000820964
2.47818e-05
-5.42087e-10
0.000820963
2.47814e-05
0.000820965
2.47844e-05
6.7749e-10
0.000809256
2.74722e-05
9.48038e-11
0.000809255
2.74691e-05
-8.67607e-11
0.000809256
2.74695e-05
-6.72905e-10
0.000809254
2.74691e-05
0.000809255
2.74722e-05
8.2392e-10
0.000796296
3.03017e-05
1.18074e-10
0.000796297
3.02986e-05
-1.06375e-10
0.000796298
3.02989e-05
-8.17131e-10
0.000796296
3.02986e-05
0.000796296
3.03018e-05
9.81674e-10
0.000782025
3.32515e-05
1.41606e-10
0.000782026
3.32485e-05
-1.27968e-10
0.000782028
3.32487e-05
-9.72996e-10
0.000782026
3.32485e-05
0.000782024
3.32516e-05
1.14849e-09
0.000766386
3.6299e-05
1.66006e-10
0.000766389
3.62961e-05
-1.51475e-10
0.000766391
3.62963e-05
-1.1388e-09
0.000766389
3.62961e-05
0.000766386
3.62989e-05
1.32242e-09
0.000749335
3.94208e-05
1.90577e-10
0.000749339
3.94182e-05
-1.76185e-10
0.000749342
3.94182e-05
-1.31232e-09
0.000749339
3.94181e-05
0.000749335
3.94206e-05
1.50111e-09
0.000730838
4.25888e-05
2.17035e-10
0.000730844
4.25867e-05
-2.00765e-10
0.000730847
4.25867e-05
-1.4901e-09
0.000730843
4.25866e-05
0.000730838
4.25887e-05
1.6798e-09
0.000710876
4.57699e-05
2.41217e-10
0.000710882
4.57682e-05
-2.25468e-10
0.000710885
4.57683e-05
-1.66842e-09
0.000710882
4.57682e-05
0.000710875
4.57699e-05
1.85578e-09
0.00068944
4.89328e-05
2.66805e-10
0.000689448
4.89318e-05
-2.4894e-10
0.000689452
4.89318e-05
-1.84378e-09
0.000689448
4.89318e-05
0.00068944
4.89329e-05
2.0258e-09
0.000666543
5.20414e-05
2.90904e-10
0.000666552
5.20411e-05
-2.71276e-10
0.000666556
5.20412e-05
-2.01348e-09
0.000666552
5.20411e-05
0.000666543
5.20416e-05
2.18753e-09
0.000642214
5.50554e-05
3.13759e-10
0.000642223
5.50557e-05
-2.92099e-10
0.000642227
5.50558e-05
-2.17475e-09
0.000642223
5.50557e-05
0.000642213
5.50555e-05
2.33883e-09
0.000616494
5.7945e-05
3.34945e-10
0.000616504
5.79461e-05
-3.11367e-10
0.000616509
5.79463e-05
-2.32543e-09
0.000616504
5.79461e-05
0.000616494
5.79451e-05
2.47724e-09
0.000589447
6.06722e-05
3.5374e-10
0.000589458
6.0674e-05
-3.28975e-10
0.000589462
6.06742e-05
-2.46326e-09
0.000589458
6.0674e-05
0.000589447
6.06722e-05
2.60096e-09
0.000561152
6.32056e-05
3.69687e-10
0.000561163
6.32082e-05
-3.44605e-10
0.000561167
6.32084e-05
-2.58665e-09
0.000561163
6.32082e-05
0.000561151
6.32056e-05
2.70922e-09
0.000531701
6.55199e-05
3.82486e-10
0.000531712
6.55232e-05
-3.57847e-10
0.000531716
6.55235e-05
-2.69475e-09
0.000531712
6.55232e-05
0.000531701
6.552e-05
2.80163e-09
0.000501202
6.75885e-05
3.92277e-10
0.000501213
6.75924e-05
-3.67862e-10
0.000501217
6.75928e-05
-2.78722e-09
0.000501213
6.75924e-05
0.000501202
6.75886e-05
2.87866e-09
0.000469773
6.93959e-05
3.98888e-10
0.000469784
6.94002e-05
-3.74035e-10
0.000469788
6.94007e-05
-2.86438e-09
0.000469783
6.94003e-05
0.000469772
6.93959e-05
2.94083e-09
0.000437539
7.09304e-05
4.01731e-10
0.00043755
7.09352e-05
-3.76114e-10
0.000437553
7.09356e-05
-2.92666e-09
0.000437549
7.09352e-05
0.000437539
7.09304e-05
2.98713e-09
0.000404635
7.21818e-05
4.0016e-10
0.000404645
7.21869e-05
-3.74084e-10
0.000404648
7.21873e-05
-2.97319e-09
0.000404645
7.21868e-05
0.000404635
7.21817e-05
3.00978e-09
0.000371195
7.31547e-05
3.94415e-10
0.000371204
7.31602e-05
-3.68727e-10
0.000371207
7.31606e-05
-2.99633e-09
0.000371204
7.316e-05
0.000371195
7.31545e-05
2.9883e-09
7.38502e-05
0.000337353
3.85152e-10
7.38563e-05
0.00033736
-3.60641e-10
7.38566e-05
0.000337362
-2.97557e-09
7.3856e-05
0.00033736
7.38498e-05
0.000337353
3.03308e-10
0.000939258
5.28411e-07
-4.02129e-13
0.000939258
5.27385e-07
-4.66813e-12
0.000939257
5.27114e-07
-3.04113e-10
0.000939257
5.27531e-07
0.000939257
5.28662e-07
-3.79372e-10
0.000939021
8.72374e-07
-7.40957e-12
0.00093902
8.72294e-07
8.6998e-12
0.00093902
8.72255e-07
3.78459e-10
0.000939019
8.7235e-07
0.000939021
8.72477e-07
-1.90012e-10
0.000938588
1.58692e-06
-7.64447e-12
0.000938586
1.58681e-06
1.19971e-11
0.000938586
1.58684e-06
1.9094e-10
0.000938586
1.58672e-06
0.000938587
1.58678e-06
-1.0524e-10
0.00093789
2.54652e-06
-4.58881e-11
0.000937887
2.54615e-06
4.59692e-11
0.000937887
2.54623e-06
1.05768e-10
0.000937887
2.54601e-06
0.000937889
2.54628e-06
-1.34531e-10
0.000936883
3.64287e-06
-6.80238e-11
0.00093688
3.64237e-06
6.41609e-11
0.00093688
3.64256e-06
1.33346e-10
0.00093688
3.6423e-06
0.000936882
3.64275e-06
-1.3957e-10
0.000935539
4.82836e-06
-7.43218e-11
0.000935536
4.82779e-06
7.24067e-11
0.000935536
4.82808e-06
1.38167e-10
0.000935536
4.8278e-06
0.000935538
4.82837e-06
-1.41142e-10
0.000933829
6.10394e-06
-8.02852e-11
0.000933826
6.10326e-06
8.24845e-11
0.000933826
6.10361e-06
1.41752e-10
0.000933826
6.10328e-06
0.000933829
6.10398e-06
-1.48938e-10
0.000931722
7.48642e-06
-8.75872e-11
0.000931718
7.4856e-06
8.93591e-11
0.000931718
7.48597e-06
1.51526e-10
0.000931718
7.4856e-06
0.000931721
7.48643e-06
-1.55436e-10
0.000929178
8.99978e-06
-9.48009e-11
0.000929174
8.99878e-06
9.29612e-11
0.000929174
8.99917e-06
1.57589e-10
0.000929174
8.99876e-06
0.000929178
8.99974e-06
-1.57541e-10
0.000926154
1.06631e-05
-9.79684e-11
0.00092615
1.06619e-05
9.81639e-11
0.000926149
1.06623e-05
1.58854e-10
0.000926149
1.06619e-05
0.000926153
1.0663e-05
-1.55372e-10
0.000922597
1.24979e-05
-9.89956e-11
0.000922592
1.24965e-05
1.01933e-10
0.000922592
1.2497e-05
1.57605e-10
0.000922592
1.24965e-05
0.000922596
1.24979e-05
-1.49672e-10
0.000918449
1.45261e-05
-1.01045e-10
0.000918445
1.45244e-05
1.0134e-10
0.000918444
1.45248e-05
1.51878e-10
0.000918444
1.45244e-05
0.000918449
1.4526e-05
-1.39001e-10
0.000913649
1.67552e-05
-1.00514e-10
0.000913645
1.67533e-05
1.00692e-10
0.000913644
1.67537e-05
1.39924e-10
0.000913644
1.67533e-05
0.000913649
1.67552e-05
-1.22227e-10
0.000908125
1.92165e-05
-9.66872e-11
0.000908121
1.92144e-05
9.97303e-11
0.00090812
1.92147e-05
1.23461e-10
0.00090812
1.92144e-05
0.000908125
1.92165e-05
-1.00288e-10
0.000901806
2.18997e-05
-9.2776e-11
0.000901802
2.18973e-05
9.49062e-11
0.000901802
2.18976e-05
1.02173e-10
0.000901802
2.18973e-05
0.000901806
2.18997e-05
-7.38576e-11
0.000894614
2.48284e-05
-8.79963e-11
0.00089461
2.48256e-05
8.81557e-11
0.00089461
2.48259e-05
7.52612e-11
0.000894609
2.48256e-05
0.000894614
2.48283e-05
-4.14983e-11
0.000886467
2.80043e-05
-8.01384e-11
0.000886463
2.80013e-05
8.15758e-11
0.000886463
2.80015e-05
4.31303e-11
0.000886462
2.80013e-05
0.000886466
2.80043e-05
-4.01689e-12
0.000877283
3.14217e-05
-6.89836e-11
0.00087728
3.14185e-05
7.30672e-11
0.00087728
3.14186e-05
6.97561e-12
0.000877279
3.14184e-05
0.000877283
3.14217e-05
3.77313e-11
0.000866977
3.50907e-05
-5.32978e-11
0.000866974
3.50872e-05
6.06622e-11
0.000866974
3.50873e-05
-3.34423e-11
0.000866974
3.50872e-05
0.000866977
3.50907e-05
8.44944e-11
0.000855468
3.89814e-05
-4.14023e-11
0.000855465
3.89778e-05
4.86844e-11
0.000855466
3.89777e-05
-7.88489e-11
0.000855465
3.89778e-05
0.000855467
3.89814e-05
1.36385e-10
0.000842673
4.30968e-05
-3.10232e-11
0.000842671
4.30932e-05
4.1876e-11
0.000842672
4.3093e-05
-1.28691e-10
0.000842671
4.30932e-05
0.000842672
4.30968e-05
1.91749e-10
0.000828514
4.74094e-05
-2.0254e-11
0.000828514
4.74059e-05
3.36687e-11
0.000828515
4.74055e-05
-1.82251e-10
0.000828513
4.74059e-05
0.000828514
4.74094e-05
2.49148e-10
0.000812924
5.18895e-05
-8.42403e-12
0.000812924
5.18862e-05
2.36663e-11
0.000812925
5.18858e-05
-2.38699e-10
0.000812924
5.18862e-05
0.000812923
5.18895e-05
3.08047e-10
0.000795838
5.65063e-05
4.90621e-12
0.000795839
5.65033e-05
1.24265e-11
0.000795841
5.65027e-05
-2.96907e-10
0.000795839
5.65032e-05
0.000795837
5.65062e-05
3.67048e-10
0.000777205
6.12209e-05
1.91433e-11
0.000777208
6.12184e-05
3.52801e-13
0.00077721
6.12177e-05
-3.54956e-10
0.000777207
6.12183e-05
0.000777205
6.12208e-05
4.23572e-10
0.000756989
6.59862e-05
3.36844e-11
0.000756992
6.59843e-05
-1.26299e-11
0.000756995
6.59837e-05
-4.10635e-10
0.000756992
6.59843e-05
0.000756988
6.59862e-05
4.75289e-10
0.000735164
7.0757e-05
4.80626e-11
0.000735168
7.07558e-05
-2.6384e-11
0.000735171
7.07552e-05
-4.62028e-10
0.000735168
7.07558e-05
0.000735164
7.0757e-05
5.20694e-10
0.000711725
7.54796e-05
6.2086e-11
0.000711731
7.54792e-05
-4.03189e-11
0.000711734
7.54787e-05
-5.07643e-10
0.00071173
7.54793e-05
0.000711725
7.54797e-05
5.58606e-10
0.000686687
8.0093e-05
7.54859e-11
0.000686693
8.00935e-05
-5.40208e-11
0.000686697
8.00931e-05
-5.45855e-10
0.000686693
8.00936e-05
0.000686687
8.00931e-05
5.87737e-10
0.000660081
8.45506e-05
8.77762e-11
0.000660088
8.45521e-05
-6.72744e-11
0.000660091
8.45518e-05
-5.75274e-10
0.000660088
8.45521e-05
0.000660081
8.45506e-05
6.06939e-10
0.000631961
8.87918e-05
9.47513e-11
0.000631968
8.87943e-05
-7.97404e-11
0.000631972
8.87941e-05
-5.94842e-10
0.000631968
8.87943e-05
0.00063196
8.87918e-05
6.15607e-10
0.000602401
9.2765e-05
9.77392e-11
0.000602408
9.27685e-05
-9.06145e-11
0.000602412
9.27684e-05
-6.04612e-10
0.000602408
9.27685e-05
0.0006024
9.2765e-05
6.16074e-10
0.000571494
9.64265e-05
1.06075e-10
0.000571501
9.64308e-05
-9.19172e-11
0.000571505
9.64309e-05
-6.03348e-10
0.000571501
9.64308e-05
0.000571493
9.64265e-05
6.07449e-10
0.000539351
9.97301e-05
1.11195e-10
0.000539359
9.97353e-05
-9.43294e-11
0.000539362
9.97355e-05
-5.93706e-10
0.000539358
9.97353e-05
0.000539351
9.97302e-05
5.90866e-10
0.000506101
0.000102646
1.13715e-10
0.000506107
0.000102652
-9.82704e-11
0.000506111
0.000102652
-5.77326e-10
0.000506107
0.000102652
0.0005061
0.000102646
5.68185e-10
0.00047188
0.000105151
1.1593e-10
0.000471886
0.000105157
-1.00251e-10
0.000471889
0.000105157
-5.54773e-10
0.000471886
0.000105157
0.00047188
0.000105151
5.41066e-10
0.000436838
0.000107222
1.17176e-10
0.000436844
0.000107229
-1.00996e-10
0.000436847
0.00010723
-5.27893e-10
0.000436844
0.000107229
0.000436838
0.000107222
5.13269e-10
0.000401129
0.000108863
1.1679e-10
0.000401135
0.00010887
-1.01221e-10
0.000401137
0.000108871
-5.00836e-10
0.000401135
0.00010887
0.000401129
0.000108863
4.91143e-10
0.00011007
0.000364909
1.13343e-10
0.000110077
0.000364915
-9.91277e-11
0.000110077
0.000364917
-4.797e-10
0.000110076
0.000364915
0.00011007
0.000364909
2.69202e-10
0.000949694
6.54362e-07
2.15766e-12
0.000949694
6.53117e-07
-5.34651e-12
0.000949694
6.52774e-07
-2.70887e-10
0.000949693
6.5313e-07
0.000949693
6.54373e-07
-3.48139e-10
0.000949483
1.08338e-06
-5.3403e-12
0.000949482
1.08355e-06
6.59121e-12
0.000949482
1.08355e-06
3.46686e-10
0.000949482
1.08351e-06
0.000949483
1.08331e-06
-1.76646e-10
0.000949098
1.97259e-06
-6.61585e-12
0.000949096
1.97268e-06
1.01765e-11
0.000949096
1.97276e-06
1.76516e-10
0.000949096
1.97256e-06
0.000949097
1.9724e-06
-1.07729e-10
0.000948476
3.16861e-06
-3.22061e-11
0.000948474
3.16836e-06
3.45169e-11
0.000948474
3.16851e-06
1.07776e-10
0.000948474
3.16823e-06
0.000948475
3.16839e-06
-1.41693e-10
0.000947579
4.54037e-06
-4.69658e-11
0.000947576
4.53998e-06
4.33111e-11
0.000947576
4.54023e-06
1.41112e-10
0.000947576
4.5399e-06
0.000947578
4.54023e-06
-1.50303e-10
0.000946378
6.02859e-06
-5.42216e-11
0.000946376
6.02811e-06
5.20069e-11
0.000946376
6.02844e-06
1.50103e-10
0.000946375
6.02809e-06
0.000946378
6.02856e-06
-1.57299e-10
0.000944849
7.63343e-06
-6.19549e-11
0.000944846
7.63281e-06
6.26637e-11
0.000944846
7.6332e-06
1.58789e-10
0.000944846
7.6328e-06
0.000944849
7.63342e-06
-1.72169e-10
0.00094296
9.37557e-06
-6.61056e-11
0.000942957
9.37478e-06
6.44767e-11
0.000942957
9.37522e-06
1.74737e-10
0.000942957
9.37478e-06
0.00094296
9.37555e-06
-1.86892e-10
0.000940675
1.12854e-05
-6.69107e-11
0.000940671
1.12844e-05
5.68064e-11
0.000940671
1.12848e-05
1.88323e-10
0.000940671
1.12843e-05
0.000940674
1.12853e-05
-1.98721e-10
0.000937951
1.33875e-05
-5.59414e-11
0.000937947
1.33862e-05
5.50614e-11
0.000937946
1.33867e-05
1.99295e-10
0.000937946
1.33862e-05
0.00093795
1.33874e-05
-2.08216e-10
0.000934738
1.57103e-05
-5.08729e-11
0.000934734
1.57089e-05
5.27785e-11
0.000934734
1.57094e-05
2.09655e-10
0.000934734
1.57088e-05
0.000934738
1.57103e-05
-2.15621e-10
0.000930982
1.82828e-05
-4.86361e-11
0.000930977
1.82811e-05
4.88047e-11
0.000930977
1.82816e-05
2.16848e-10
0.000930977
1.8281e-05
0.000930981
1.82828e-05
-2.18738e-10
0.000926621
2.11166e-05
-4.55942e-11
0.000926616
2.11145e-05
4.61774e-11
0.000926615
2.1115e-05
2.18765e-10
0.000926616
2.11145e-05
0.00092662
2.11165e-05
-2.16114e-10
0.000921584
2.42533e-05
-4.14667e-11
0.000921579
2.42509e-05
4.38672e-11
0.000921579
2.42514e-05
2.17023e-10
0.000921579
2.42509e-05
0.000921584
2.42533e-05
-2.08859e-10
0.000915801
2.76828e-05
-3.79268e-11
0.000915796
2.76801e-05
3.93414e-11
0.000915796
2.76804e-05
2.10765e-10
0.000915796
2.76801e-05
0.000915801
2.76828e-05
-1.97377e-10
0.000909192
3.14379e-05
-3.42795e-11
0.000909187
3.14348e-05
3.35857e-11
0.000909187
3.1435e-05
1.98466e-10
0.000909187
3.14347e-05
0.000909191
3.14379e-05
-1.78438e-10
0.000901672
3.55243e-05
-2.74223e-11
0.000901667
3.55208e-05
2.98219e-11
0.000901667
3.5521e-05
1.80184e-10
0.000901667
3.55208e-05
0.000901672
3.55243e-05
-1.52772e-10
0.000893156
3.99383e-05
-2.1224e-11
0.000893151
3.99345e-05
2.33827e-11
0.000893151
3.99346e-05
1.55728e-10
0.000893151
3.99345e-05
0.000893155
3.99383e-05