/*--------------------------------*- C++ -*----------------------------------*\
  =========                 |
  \\      /  F ield         | OpenFOAM: The Open Source CFD Toolbox
   \\    /   O peration     | Website:  https://openfoam.org
    \\  /    A nd           | Version:  9
     \\/     M anipulation  |
\*---------------------------------------------------------------------------*/
FoamFile
{
    format      ascii;
    class       volVectorField;
    location    "0.3";
    object      U;
}
// * * * * * * * * * * * * * * * * * * * * * * * * * * * * * * * * * * * * * //

dimensions      [0 1 -1 0 0 0 0];

internalField   nonuniform List<vector> 
4545
(
(1.67469e-05 -0.162828 -0.969137)
(1.66585e-05 -0.162827 4.42039e-08)
(1.66713e-05 -0.162826 2.98493e-09)
(1.6794e-05 -0.162827 -3.93558e-08)
(1.69836e-05 -0.162828 0.969137)
(2.15417e-05 -0.16276 -0.961089)
(2.10783e-05 -0.162758 -5.31903e-08)
(2.10168e-05 -0.162758 2.09286e-09)
(2.11312e-05 -0.162758 5.76274e-08)
(2.16237e-05 -0.16276 0.961089)
(3.8529e-05 -0.162673 -0.960246)
(3.79421e-05 -0.162673 -3.75981e-08)
(3.78341e-05 -0.162673 7.12423e-10)
(3.7909e-05 -0.162673 3.9648e-08)
(3.84675e-05 -0.162673 0.960246)
(6.25755e-05 -0.162527 -0.959394)
(6.17199e-05 -0.162526 -2.63814e-08)
(6.15553e-05 -0.162526 -3.09083e-10)
(6.1671e-05 -0.162526 2.63771e-08)
(6.24951e-05 -0.162526 0.959394)
(8.88145e-05 -0.162304 -0.958541)
(8.7601e-05 -0.162304 -2.62845e-08)
(8.73921e-05 -0.162304 -5.13857e-10)
(8.75875e-05 -0.162304 2.54863e-08)
(8.87926e-05 -0.162304 0.958541)
(0.000116859 -0.162003 -0.957678)
(0.000115292 -0.162003 -2.51501e-08)
(0.000115042 -0.162003 -1.19957e-10)
(0.000115309 -0.162003 2.4574e-08)
(0.000116887 -0.162003 0.957678)
(0.000147624 -0.161619 -0.956809)
(0.000145661 -0.161619 -2.3383e-08)
(0.000145347 -0.161619 3.19278e-10)
(0.000145677 -0.161619 2.32751e-08)
(0.00014765 -0.161619 0.956809)
(0.00018188 -0.161146 -0.955934)
(0.000179459 -0.161146 -2.13967e-08)
(0.000179065 -0.161145 4.1755e-10)
(0.000179457 -0.161145 2.15202e-08)
(0.000181877 -0.161146 0.955934)
(0.000220319 -0.160575 -0.955055)
(0.000217403 -0.160575 -1.8096e-08)
(0.000216933 -0.160575 3.16756e-10)
(0.000217401 -0.160575 1.8328e-08)
(0.000220322 -0.160575 0.955055)
(0.000263678 -0.159899 -0.954166)
(0.000260207 -0.159899 -1.25818e-08)
(0.000259659 -0.159899 4.04686e-10)
(0.000260217 -0.159899 1.3236e-08)
(0.000263698 -0.159899 0.954166)
(0.000312567 -0.159106 -0.953268)
(0.000308459 -0.159106 -4.91562e-09)
(0.000307809 -0.159106 3.01e-10)
(0.000308456 -0.159106 5.8227e-09)
(0.00031256 -0.159106 0.953268)
(0.000367477 -0.158185 -0.952366)
(0.000362657 -0.158185 5.07033e-09)
(0.000361891 -0.158185 -4.00109e-11)
(0.000362641 -0.158185 -4.30358e-09)
(0.000367451 -0.158185 0.952366)
(0.0004289 -0.157122 -0.951451)
(0.000423295 -0.157123 1.79488e-08)
(0.000422416 -0.157122 5.4921e-11)
(0.000423304 -0.157122 -1.69463e-08)
(0.000428913 -0.157122 0.951451)
(0.000497275 -0.155906 -0.950538)
(0.000490794 -0.155906 3.37269e-08)
(0.00048978 -0.155906 2.54408e-10)
(0.000490811 -0.155906 -3.24057e-08)
(0.000497301 -0.155906 0.950538)
(0.000572853 -0.154522 -0.949606)
(0.000565391 -0.154523 5.19553e-08)
(0.000564204 -0.154523 -6.46423e-12)
(0.000565371 -0.154522 -5.1064e-08)
(0.000572819 -0.154522 0.949606)
(0.000655776 -0.152957 -0.948669)
(0.000647244 -0.152958 7.29554e-08)
(0.000645874 -0.152958 -2.09687e-10)
(0.000647204 -0.152958 -7.26675e-08)
(0.000655709 -0.152957 0.948669)
(0.000746183 -0.151197 -0.947725)
(0.000736502 -0.151198 9.74282e-08)
(0.000734957 -0.151198 1.05863e-10)
(0.000736488 -0.151198 -9.70816e-08)
(0.000746161 -0.151197 0.947725)
(0.000843986 -0.149229 -0.946767)
(0.000833059 -0.14923 1.25467e-07)
(0.000831322 -0.149231 6.44704e-10)
(0.000833068 -0.14923 -1.24628e-07)
(0.000844002 -0.149229 0.946767)
(0.000948793 -0.147041 -0.945806)
(0.00093652 -0.147042 1.57151e-07)
(0.000934565 -0.147043 1.2509e-09)
(0.000936528 -0.147042 -1.55678e-07)
(0.000948808 -0.147041 0.945806)
(0.00106004 -0.144621 -0.944827)
(0.00104635 -0.144623 1.92938e-07)
(0.00104416 -0.144623 2.09807e-09)
(0.00104636 -0.144623 -1.90461e-07)
(0.00106007 -0.144621 0.944827)
(0.00117709 -0.141961 -0.94384)
(0.00116189 -0.141962 2.32953e-07)
(0.00115947 -0.141963 3.04384e-09)
(0.00116192 -0.141962 -2.29165e-07)
(0.00117714 -0.141961 0.94384)
(0.00129906 -0.139051 -0.942842)
(0.00128228 -0.139053 2.76787e-07)
(0.0012796 -0.139053 3.64265e-09)
(0.0012823 -0.139053 -2.71964e-07)
(0.0012991 -0.139051 0.942842)
(0.00142478 -0.135887 -0.941829)
(0.00140635 -0.135889 3.23825e-07)
(0.00140338 -0.135889 3.69561e-09)
(0.00140633 -0.135889 -3.18608e-07)
(0.00142476 -0.135887 0.941829)
(0.00155288 -0.132465 -0.940801)
(0.00153275 -0.132467 3.73488e-07)
(0.00152948 -0.132468 3.40461e-09)
(0.0015327 -0.132467 -3.68293e-07)
(0.00155281 -0.132465 0.940801)
(0.00168194 -0.128786 -0.939758)
(0.00166009 -0.128789 4.25103e-07)
(0.00165655 -0.128789 3.09057e-09)
(0.00166005 -0.128789 -4.19904e-07)
(0.00168189 -0.128786 0.939758)
(0.00181053 -0.124852 -0.938697)
(0.00178696 -0.124855 4.77833e-07)
(0.00178315 -0.124856 2.98496e-09)
(0.00178696 -0.124855 -4.72347e-07)
(0.00181053 -0.124852 0.938697)
(0.00193714 -0.120669 -0.937617)
(0.00191185 -0.120672 5.30859e-07)
(0.00190777 -0.120673 3.23425e-09)
(0.00191187 -0.120672 -5.2472e-07)
(0.00193718 -0.120669 0.937617)
(0.0020602 -0.116246 -0.936517)
(0.0020332 -0.116249 5.83562e-07)
(0.00202884 -0.11625 3.95744e-09)
(0.00203322 -0.116249 -5.7633e-07)
(0.00206024 -0.116246 0.936517)
(0.00217818 -0.111594 -0.935392)
(0.0021495 -0.111597 6.35483e-07)
(0.00214487 -0.111598 5.19658e-09)
(0.00214951 -0.111597 -6.26644e-07)
(0.0021782 -0.111594 0.935392)
(0.00228972 -0.106727 -0.934242)
(0.00225942 -0.10673 6.86149e-07)
(0.00225452 -0.106731 6.82233e-09)
(0.00225942 -0.10673 -6.75269e-07)
(0.00228972 -0.106727 0.934242)
(0.00239369 -0.101663 -0.933064)
(0.00236185 -0.101666 7.34916e-07)
(0.0023567 -0.101667 8.51219e-09)
(0.00236185 -0.101666 -7.21898e-07)
(0.00239369 -0.101663 0.933064)
(0.00248921 -0.0964203 -0.931855)
(0.00245592 -0.0964231 7.80963e-07)
(0.00245053 -0.0964241 9.86955e-09)
(0.00245593 -0.0964231 -7.66205e-07)
(0.00248922 -0.0964202 0.931855)
(0.00257561 -0.0910189 -0.930613)
(0.00254098 -0.0910216 8.23456e-07)
(0.00253538 -0.0910226 1.0633e-08)
(0.00254099 -0.0910216 -8.07749e-07)
(0.00257564 -0.0910189 0.930613)
(0.00265248 -0.0854805 -0.929333)
(0.00261661 -0.0854831 8.61758e-07)
(0.00261081 -0.085484 1.08342e-08)
(0.00261663 -0.0854831 -8.45954e-07)
(0.00265251 -0.0854804 0.929333)
(0.00271963 -0.0798272 -0.928015)
(0.00268267 -0.0798297 8.95591e-07)
(0.00267669 -0.0798305 1.07816e-08)
(0.00268268 -0.0798296 -8.80242e-07)
(0.00271965 -0.0798271 0.928015)
(0.00277714 -0.0740811 -0.926655)
(0.00273924 -0.0740834 9.25156e-07)
(0.00273311 -0.0740842 1.08848e-08)
(0.00273925 -0.0740834 -9.10364e-07)
(0.00277717 -0.074081 0.926655)
(0.00282537 -0.0682643 -0.925249)
(0.00278674 -0.0682664 9.50637e-07)
(0.00278047 -0.068267 1.14734e-08)
(0.00278673 -0.0682663 -9.36129e-07)
(0.00282539 -0.0682642 0.925249)
(0.00286472 -0.0623983 -0.923796)
(0.00282566 -0.0624 9.69534e-07)
(0.00281931 -0.0624005 1.27299e-08)
(0.00282563 -0.0624 -9.54803e-07)
(0.00286471 -0.0623982 0.923796)
(0.00289541 -0.0565011 -0.921049)
(0.00285637 -0.0565026 9.76505e-07)
(0.00284997 -0.056503 1.4573e-08)
(0.00285629 -0.0565026 -9.60806e-07)
(0.00289536 -0.0565011 0.921048)
(6.4482e-05 -0.35328 -0.978884)
(6.44996e-05 -0.353278 4.17913e-08)
(6.45543e-05 -0.353278 9.97876e-10)
(6.47815e-05 -0.353278 -3.98641e-08)
(6.49714e-05 -0.35328 0.978884)
(9.86334e-05 -0.353173 -0.967835)
(9.83617e-05 -0.353171 -7.66914e-08)
(9.83533e-05 -0.353171 1.18726e-09)
(9.85303e-05 -0.353171 7.90274e-08)
(9.89059e-05 -0.353173 0.967835)
(0.000180479 -0.353016 -0.966985)
(0.000180335 -0.353015 -6.28662e-08)
(0.000180308 -0.353015 9.34715e-10)
(0.000180336 -0.353015 6.46355e-08)
(0.000180469 -0.353015 0.966985)
(0.000294786 -0.35275 -0.966126)
(0.000294634 -0.352749 -6.60722e-08)
(0.000294586 -0.352749 2.55844e-12)
(0.000294564 -0.352749 6.63031e-08)
(0.000294669 -0.35275 0.966126)
(0.000425644 -0.352346 -0.965266)
(0.000425407 -0.352345 -8.56515e-08)
(0.000425381 -0.352345 -5.52826e-10)
(0.000425385 -0.352345 8.47228e-08)
(0.000425612 -0.352346 0.965266)
(0.000569166 -0.351793 -0.964396)
(0.000568888 -0.351792 -1.02635e-07)
(0.000568898 -0.351792 -3.36328e-10)
(0.000568919 -0.351792 1.01802e-07)
(0.000569216 -0.351793 0.964396)
(0.000727427 -0.351082 -0.96352)
(0.000727093 -0.351081 -1.20322e-07)
(0.000727113 -0.35108 2.23984e-10)
(0.000727127 -0.351081 1.20247e-07)
(0.000727476 -0.351081 0.96352)
(0.00090383 -0.3502 -0.962638)
(0.000903417 -0.350199 -1.40377e-07)
(0.000903427 -0.350199 4.46684e-10)
(0.000903421 -0.350199 1.408e-07)
(0.000903837 -0.3502 0.962638)
(0.00110208 -0.349133 -0.961752)
(0.00110159 -0.349132 -1.61743e-07)
(0.0011016 -0.349132 1.99294e-10)
(0.00110158 -0.349132 1.62187e-07)
(0.00110208 -0.349133 0.961752)
(0.00132596 -0.347863 -0.960856)
(0.00132537 -0.347862 -1.83872e-07)
(0.0013254 -0.347861 2.72875e-10)
(0.00132538 -0.347861 1.84586e-07)
(0.00132597 -0.347863 0.960856)
(0.00157899 -0.346369 -0.959952)
(0.0015783 -0.346368 -2.07089e-07)
(0.00157833 -0.346367 3.85678e-10)
(0.00157828 -0.346368 2.08121e-07)
(0.00157896 -0.346369 0.959952)
(0.00186453 -0.344629 -0.959044)
(0.0018637 -0.344628 -2.3172e-07)
(0.00186371 -0.344627 5.17076e-11)
(0.00186365 -0.344627 2.32477e-07)
(0.00186446 -0.344629 0.959044)
(0.00218577 -0.342618 -0.958121)
(0.00218481 -0.342616 -2.57372e-07)
(0.00218484 -0.342616 1.82667e-11)
(0.00218481 -0.342616 2.58031e-07)
(0.00218578 -0.342618 0.958121)
(0.00254581 -0.340309 -0.957202)
(0.00254469 -0.340307 -2.84031e-07)
(0.00254474 -0.340307 2.5562e-10)
(0.00254473 -0.340307 2.84972e-07)
(0.00254586 -0.340308 0.957202)
(0.00294723 -0.337674 -0.956265)
(0.00294592 -0.337672 -3.12222e-07)
(0.00294594 -0.337671 1.0621e-10)
(0.0029459 -0.337672 3.12917e-07)
(0.00294719 -0.337673 0.956265)
(0.00339214 -0.334684 -0.955321)
(0.00339062 -0.334682 -3.41798e-07)
(0.0033906 -0.334682 -5.42055e-11)
(0.00339055 -0.334682 3.42009e-07)
(0.00339202 -0.334684 0.955321)
(0.00388247 -0.331311 -0.954371)
(0.00388075 -0.331309 -3.72149e-07)
(0.00388073 -0.331309 2.0896e-10)
(0.00388072 -0.331309 3.72482e-07)
(0.00388241 -0.331311 0.954371)
(0.00441938 -0.327525 -0.953408)
(0.00441746 -0.327523 -4.03137e-07)
(0.00441745 -0.327523 6.20519e-10)
(0.00441747 -0.327523 4.04008e-07)
(0.0044194 -0.327525 0.953408)
(0.00500307 -0.323298 -0.952441)
(0.00500093 -0.323296 -4.34409e-07)
(0.0050009 -0.323296 1.12963e-09)
(0.00500094 -0.323296 4.35963e-07)
(0.0050031 -0.323298 0.952441)
(0.00563286 -0.318602 -0.951457)
(0.00563049 -0.3186 -4.65118e-07)
(0.00563046 -0.3186 1.96341e-09)
(0.00563052 -0.3186 4.67791e-07)
(0.0056329 -0.318601 0.951457)
(0.0063073 -0.313412 -0.950465)
(0.00630472 -0.31341 -4.94874e-07)
(0.00630469 -0.31341 2.91153e-09)
(0.00630477 -0.31341 4.99007e-07)
(0.0063074 -0.313412 0.950465)
(0.00702404 -0.307706 -0.949462)
(0.00702124 -0.307705 -5.23696e-07)
(0.00702119 -0.307705 3.52746e-09)
(0.00702128 -0.307705 5.28989e-07)
(0.00702412 -0.307706 0.949462)
(0.00777935 -0.301466 -0.948445)
(0.0077763 -0.301464 -5.51474e-07)
(0.00777621 -0.301464 3.69931e-09)
(0.00777628 -0.301464 5.57288e-07)
(0.00777932 -0.301465 0.948445)
(0.00856834 -0.294675 -0.947413)
(0.00856505 -0.294674 -5.77944e-07)
(0.00856492 -0.294674 3.6188e-09)
(0.00856496 -0.294674 5.83864e-07)
(0.00856821 -0.294675 0.947413)
(0.00938531 -0.287325 -0.946366)
(0.00938181 -0.287324 -6.03055e-07)
(0.00938169 -0.287325 3.45726e-09)
(0.00938173 -0.287324 6.08987e-07)
(0.00938519 -0.287325 0.946366)
(0.0102238 -0.279412 -0.945301)
(0.0102201 -0.279411 -6.26867e-07)
(0.01022 -0.279412 3.39639e-09)
(0.0102201 -0.279411 6.32933e-07)
(0.0102238 -0.279412 0.945301)
(0.0110766 -0.270936 -0.944217)
(0.0110727 -0.270936 -6.49323e-07)
(0.0110727 -0.270936 3.61982e-09)
(0.0110728 -0.270936 6.55813e-07)
(0.0110766 -0.270936 0.944217)
(0.0119356 -0.261906 -0.943113)
(0.0119317 -0.261905 -6.70062e-07)
(0.0119316 -0.261906 4.32118e-09)
(0.0119317 -0.261905 6.77477e-07)
(0.0119357 -0.261906 0.943113)
(0.0127926 -0.252335 -0.941983)
(0.0127885 -0.252335 -6.88735e-07)
(0.0127885 -0.252336 5.48245e-09)
(0.0127885 -0.252335 6.97615e-07)
(0.0127926 -0.252335 0.941983)
(0.013639 -0.242244 -0.940828)
(0.0136347 -0.242244 -7.05207e-07)
(0.0136347 -0.242245 6.85549e-09)
(0.0136348 -0.242244 7.15857e-07)
(0.013639 -0.242244 0.940828)
(0.0144667 -0.23166 -0.939645)
(0.0144624 -0.23166 -7.19569e-07)
(0.0144624 -0.231661 8.08473e-09)
(0.0144624 -0.23166 7.31871e-07)
(0.0144667 -0.23166 0.939645)
(0.0152681 -0.220615 -0.938429)
(0.0152636 -0.220615 -7.32011e-07)
(0.0152637 -0.220616 8.89065e-09)
(0.0152637 -0.220615 7.4546e-07)
(0.0152681 -0.220614 0.938429)
(0.0160362 -0.209145 -0.93718)
(0.0160317 -0.209146 -7.4264e-07)
(0.0160318 -0.209147 9.20989e-09)
(0.0160317 -0.209146 7.56584e-07)
(0.0160362 -0.209145 0.93718)
(0.0167649 -0.197294 -0.935892)
(0.0167604 -0.197294 -7.51301e-07)
(0.0167605 -0.197295 9.23454e-09)
(0.0167604 -0.197294 7.65271e-07)
(0.016765 -0.197294 0.935892)
(0.0174493 -0.185105 -0.934564)
(0.0174447 -0.185106 -7.57549e-07)
(0.0174448 -0.185107 9.27337e-09)
(0.0174447 -0.185106 7.71449e-07)
(0.0174493 -0.185105 0.934564)
(0.0180855 -0.172627 -0.933194)
(0.0180809 -0.172628 -7.60958e-07)
(0.0180811 -0.172629 9.54698e-09)
(0.0180809 -0.172628 7.75001e-07)
(0.0180855 -0.172627 0.933194)
(0.0186714 -0.159907 -0.931775)
(0.0186667 -0.159909 -7.61021e-07)
(0.0186669 -0.15991 1.0059e-08)
(0.0186667 -0.159908 7.75479e-07)
(0.0186713 -0.159907 0.931775)
(0.0192059 -0.146994 -0.930308)
(0.0192013 -0.146996 -7.53144e-07)
(0.0192015 -0.146997 1.06693e-08)
(0.0192012 -0.146996 7.68128e-07)
(0.0192058 -0.146994 0.930308)
(0.0196897 -0.133938 -0.927675)
(0.0196851 -0.133941 -7.26699e-07)
(0.0196852 -0.133942 1.13131e-08)
(0.0196849 -0.133942 7.42273e-07)
(0.0196895 -0.133938 0.927675)
(0.000126414 -0.425658 -0.980003)
(0.000126421 -0.425657 4.77576e-08)
(0.000126436 -0.425657 -4.29269e-10)
(0.000126646 -0.425657 -4.79086e-08)
(0.000126796 -0.425657 0.980003)
(0.000208976 -0.425548 -0.967856)
(0.000209175 -0.425546 -6.37481e-08)
(0.000209206 -0.425546 4.22006e-10)
(0.000209324 -0.425546 6.44358e-08)
(0.000209218 -0.425547 0.967856)
(0.000386635 -0.425382 -0.967006)
(0.00038716 -0.425382 -3.50807e-08)
(0.000387218 -0.425382 8.12652e-10)
(0.000387164 -0.425382 3.62612e-08)
(0.000386641 -0.425382 0.967006)
(0.000631887 -0.425103 -0.966147)
(0.000632686 -0.425103 -2.50419e-08)
(0.000632787 -0.425103 2.14103e-11)
(0.000632617 -0.425103 2.5191e-08)
(0.000631774 -0.425103 0.966147)
(0.000917731 -0.424674 -0.965287)
(0.000918818 -0.424674 -3.07578e-08)
(0.000919008 -0.424674 -6.46767e-10)
(0.00091879 -0.424674 2.98458e-08)
(0.000917685 -0.424674 0.965287)
(0.00123511 -0.424082 -0.964418)
(0.00123654 -0.424082 -3.06935e-08)
(0.00123683 -0.424082 -4.19492e-10)
(0.00123657 -0.424082 2.98779e-08)
(0.00123514 -0.424082 0.964418)
(0.00158649 -0.423316 -0.963542)
(0.00158828 -0.423316 -2.92562e-08)
(0.00158865 -0.423316 2.55544e-10)
(0.00158832 -0.423316 2.93893e-08)
(0.00158653 -0.423316 0.963542)
(0.00197864 -0.422362 -0.962659)
(0.00198082 -0.422361 -2.84327e-08)
(0.00198125 -0.422361 4.14251e-10)
(0.00198083 -0.422361 2.91207e-08)
(0.00197866 -0.422362 0.962659)
(0.00241968 -0.421202 -0.961773)
(0.00242227 -0.421202 -2.67242e-08)
(0.00242278 -0.421201 -2.01613e-13)
(0.00242227 -0.421201 2.7117e-08)
(0.00241968 -0.421202 0.961773)
(0.00291799 -0.419817 -0.960877)
(0.00292104 -0.419816 -2.29569e-08)
(0.00292163 -0.419816 1.43868e-10)
(0.00292104 -0.419816 2.3469e-08)
(0.00291798 -0.419816 0.960877)
(0.00348175 -0.418183 -0.959972)
(0.0034853 -0.418183 -1.70727e-08)
(0.00348598 -0.418183 4.3789e-10)
(0.00348528 -0.418183 1.80477e-08)
(0.00348171 -0.418183 0.959972)
(0.00411905 -0.416276 -0.959064)
(0.00412314 -0.416276 -9.31973e-09)
(0.00412391 -0.416275 9.85071e-11)
(0.00412311 -0.416275 9.99289e-09)
(0.00411899 -0.416276 0.959064)
(0.00483772 -0.414066 -0.958141)
(0.00484241 -0.414065 1.13343e-09)
(0.00484329 -0.414065 3.46357e-11)
(0.0048424 -0.414065 -6.94912e-10)
(0.00483772 -0.414065 0.958141)
(0.00564533 -0.411522 -0.957221)
(0.00565067 -0.411522 1.48619e-08)
(0.00565167 -0.411522 3.3501e-10)
(0.0056507 -0.411522 -1.40979e-08)
(0.00564537 -0.411522 0.957221)
(0.00654888 -0.408612 -0.956284)
(0.00655491 -0.408612 3.14884e-08)
(0.006556 -0.408612 2.25327e-10)
(0.00655489 -0.408612 -3.08309e-08)
(0.00654885 -0.408612 0.956284)
(0.00755439 -0.405301 -0.95534)
(0.00756116 -0.405301 5.12701e-08)
(0.00756234 -0.405302 4.42529e-11)
(0.00756109 -0.405301 -5.09744e-08)
(0.00755429 -0.405301 0.95534)
(0.00866742 -0.401554 -0.95439)
(0.00867499 -0.401555 7.49373e-08)
(0.0086763 -0.401555 2.69779e-10)
(0.00867495 -0.401555 -7.44291e-08)
(0.00866736 -0.401554 0.95439)
(0.00989207 -0.397336 -0.953426)
(0.0099005 -0.397336 1.02627e-07)
(0.00990196 -0.397337 6.11249e-10)
(0.00990051 -0.397336 -1.01564e-07)
(0.00989208 -0.397335 0.953426)
(0.0112309 -0.392609 -0.952459)
(0.0112402 -0.39261 1.34637e-07)
(0.0112418 -0.39261 1.03297e-09)
(0.0112402 -0.39261 -1.3292e-07)
(0.0112309 -0.392608 0.952459)
(0.0126845 -0.387338 -0.951476)
(0.0126948 -0.387339 1.71639e-07)
(0.0126965 -0.38734 1.79689e-09)
(0.0126948 -0.387339 -1.68824e-07)
(0.0126845 -0.387338 0.951476)
(0.0142517 -0.38149 -0.950484)
(0.014263 -0.381492 2.13536e-07)
(0.0142649 -0.381493 2.6658e-09)
(0.014263 -0.381492 -2.09333e-07)
(0.0142518 -0.38149 0.950484)
(0.0159292 -0.375034 -0.949482)
(0.0159415 -0.375036 2.59794e-07)
(0.0159436 -0.375037 3.24647e-09)
(0.0159416 -0.375036 -2.54542e-07)
(0.0159293 -0.375033 0.949482)
(0.017711 -0.36794 -0.948466)
(0.0177244 -0.367943 3.10091e-07)
(0.0177265 -0.367944 3.52368e-09)
(0.0177244 -0.367942 -3.04284e-07)
(0.017711 -0.36794 0.948466)
(0.0195884 -0.360185 -0.947435)
(0.0196029 -0.360188 3.64303e-07)
(0.0196051 -0.360189 3.81503e-09)
(0.0196028 -0.360188 -3.58061e-07)
(0.0195883 -0.360185 0.947435)
(0.0215504 -0.35175 -0.94639)
(0.021566 -0.351754 4.21585e-07)
(0.0215684 -0.351755 4.01298e-09)
(0.0215659 -0.351754 -4.14873e-07)
(0.0215503 -0.35175 0.94639)
(0.0235836 -0.342622 -0.945327)
(0.0236003 -0.342626 4.81228e-07)
(0.0236029 -0.342628 4.38956e-09)
(0.0236003 -0.342626 -4.73993e-07)
(0.0235836 -0.342622 0.945327)
(0.0256723 -0.332795 -0.944246)
(0.0256901 -0.332799 5.41942e-07)
(0.025693 -0.3328 4.65383e-09)
(0.0256902 -0.332799 -5.34228e-07)
(0.0256724 -0.332794 0.944246)
(0.0277989 -0.322268 -0.943145)
(0.0278178 -0.322273 6.03246e-07)
(0.0278209 -0.322274 5.13722e-09)
(0.0278179 -0.322273 -5.94902e-07)
(0.027799 -0.322268 0.943145)
(0.0299439 -0.311052 -0.942019)
(0.0299639 -0.311057 6.64363e-07)
(0.0299672 -0.311059 5.78297e-09)
(0.029964 -0.311057 -6.5519e-07)
(0.029944 -0.311052 0.942019)
(0.0320871 -0.299163 -0.940868)
(0.0321081 -0.299168 7.24371e-07)
(0.0321115 -0.29917 6.42062e-09)
(0.0321082 -0.299168 -7.14323e-07)
(0.0320872 -0.299163 0.940868)
(0.0342079 -0.286627 -0.939689)
(0.0342298 -0.286632 7.82302e-07)
(0.0342334 -0.286634 6.87855e-09)
(0.0342298 -0.286632 -7.71561e-07)
(0.0342078 -0.286627 0.939689)
(0.0362857 -0.273477 -0.938479)
(0.0363085 -0.273482 8.37328e-07)
(0.0363122 -0.273484 7.10611e-09)
(0.0363085 -0.273482 -8.26191e-07)
(0.0362857 -0.273477 0.938479)
(0.0383011 -0.259754 -0.937235)
(0.0383247 -0.259759 8.88868e-07)
(0.0383286 -0.259761 7.12004e-09)
(0.0383247 -0.259759 -8.77592e-07)
(0.0383011 -0.259754 0.937235)
(0.040236 -0.245506 -0.935952)
(0.0402603 -0.245511 9.3663e-07)
(0.0402643 -0.245513 7.19678e-09)
(0.0402603 -0.245511 -9.25211e-07)
(0.0402361 -0.245506 0.935952)
(0.0420745 -0.230786 -0.93463)
(0.0420992 -0.230791 9.80383e-07)
(0.0421034 -0.230793 7.47227e-09)
(0.0420993 -0.230791 -9.68643e-07)
(0.0420745 -0.230786 0.93463)
(0.0438029 -0.215653 -0.933264)
(0.043828 -0.215657 1.01981e-06)
(0.0438322 -0.215659 7.85607e-09)
(0.043828 -0.215657 -1.00763e-06)
(0.0438029 -0.215653 0.933264)
(0.0454107 -0.200168 -0.93185)
(0.0454359 -0.200173 1.05414e-06)
(0.0454401 -0.200174 8.15675e-09)
(0.0454359 -0.200173 -1.04165e-06)
(0.0454106 -0.200168 0.93185)
(0.0468905 -0.184397 -0.930388)
(0.0469157 -0.184401 1.08056e-06)
(0.0469198 -0.184403 8.19611e-09)
(0.0469155 -0.184401 -1.0681e-06)
(0.0468902 -0.184397 0.930388)
(0.0482383 -0.168403 -0.927823)
(0.0482631 -0.168406 1.09224e-06)
(0.0482671 -0.168407 7.97667e-09)
(0.0482628 -0.168406 -1.08014e-06)
(0.0482378 -0.168403 0.927823)
(0.000186001 -0.446218 -0.980318)
(0.000185715 -0.446217 4.61691e-08)
(0.000185614 -0.446217 -7.7753e-10)
(0.000185789 -0.446217 -4.70692e-08)
(0.00018612 -0.446217 0.980318)
(0.000312145 -0.446114 -0.96786)
(0.000312206 -0.446113 -6.01398e-08)
(0.000312177 -0.446113 2.01799e-10)
(0.000312251 -0.446113 6.01995e-08)
(0.000312217 -0.446114 0.96786)
(0.00057887 -0.445961 -0.96701)
(0.000579037 -0.445961 -3.1351e-08)
(0.000579025 -0.445961 6.9438e-10)
(0.000579003 -0.445961 3.21926e-08)
(0.000578817 -0.44596 0.96701)
(0.000947273 -0.445701 -0.966149)
(0.000947437 -0.445702 -2.31858e-08)
(0.000947439 -0.445702 7.95523e-11)
(0.000947364 -0.445701 2.33509e-08)
(0.000947149 -0.445701 0.966149)
(0.00138038 -0.445301 -0.965288)
(0.00138057 -0.445301 -3.12012e-08)
(0.00138061 -0.445301 -4.58582e-10)
(0.00138053 -0.4453 3.05471e-08)
(0.00138031 -0.4453 0.965288)
(0.00186426 -0.444746 -0.964418)
(0.0018645 -0.444746 -3.33927e-08)
(0.00186458 -0.444746 -2.44367e-10)
(0.0018645 -0.444745 3.29123e-08)
(0.00186426 -0.444745 0.964418)
(0.00240142 -0.444025 -0.963541)
(0.00240169 -0.444024 -3.49775e-08)
(0.0024018 -0.444024 3.03847e-10)
(0.00240171 -0.444024 3.53862e-08)
(0.00240145 -0.444024 0.963541)
(0.00300168 -0.443123 -0.962657)
(0.00300196 -0.443122 -3.79954e-08)
(0.00300207 -0.443122 2.63095e-10)
(0.00300197 -0.443122 3.87117e-08)
(0.0030017 -0.443123 0.962657)
(0.00367731 -0.442024 -0.96177)
(0.00367757 -0.442023 -4.0886e-08)
(0.00367767 -0.442023 -2.41543e-10)
(0.00367757 -0.442023 4.10288e-08)
(0.0036773 -0.442023 0.96177)
(0.00444123 -0.440708 -0.960872)
(0.00444147 -0.440707 -4.24988e-08)
(0.00444157 -0.440707 2.01314e-11)
(0.00444147 -0.440707 4.27582e-08)
(0.00444122 -0.440707 0.960872)
(0.00530638 -0.439152 -0.959965)
(0.00530657 -0.439151 -4.30522e-08)
(0.00530666 -0.439151 4.20351e-10)
(0.00530656 -0.439151 4.38875e-08)
(0.00530636 -0.439151 0.959965)
(0.00628575 -0.43733 -0.959055)
(0.00628586 -0.43733 -4.30823e-08)
(0.00628592 -0.437329 5.08462e-11)
(0.00628584 -0.43733 4.35512e-08)
(0.00628571 -0.43733 0.959055)
(0.00739202 -0.435214 -0.958129)
(0.00739203 -0.435214 -4.17699e-08)
(0.00739208 -0.435213 3.40106e-11)
(0.00739203 -0.435213 4.19823e-08)
(0.00739201 -0.435213 0.958129)
(0.00863771 -0.432772 -0.957207)
(0.00863759 -0.432771 -3.86839e-08)
(0.0086376 -0.432771 4.72666e-10)
(0.00863759 -0.432771 3.93997e-08)
(0.00863771 -0.432771 0.957207)
(0.0100347 -0.429969 -0.956268)
(0.0100344 -0.429969 -3.44831e-08)
(0.0100344 -0.429969 3.44793e-10)
(0.0100344 -0.429969 3.5207e-08)
(0.0100347 -0.429969 0.956268)
(0.0115937 -0.426771 -0.95532)
(0.0115931 -0.426772 -2.91254e-08)
(0.011593 -0.426771 4.8434e-11)
(0.0115931 -0.426771 2.94618e-08)
(0.0115936 -0.426771 0.95532)
(0.0133245 -0.42314 -0.954367)
(0.0133237 -0.42314 -2.20004e-08)
(0.0133235 -0.42314 2.23285e-10)
(0.0133237 -0.42314 2.25652e-08)
(0.0133244 -0.42314 0.954367)
(0.0152352 -0.419036 -0.9534)
(0.0152341 -0.419036 -1.32376e-08)
(0.0152338 -0.419036 5.78207e-10)
(0.0152341 -0.419036 1.44474e-08)
(0.0152352 -0.419036 0.9534)
(0.0173317 -0.41442 -0.952431)
(0.0173303 -0.41442 -2.90544e-09)
(0.0173299 -0.414421 9.29757e-10)
(0.0173303 -0.41442 4.76892e-09)
(0.0173317 -0.41442 0.952431)
(0.0196173 -0.409251 -0.951444)
(0.0196155 -0.409252 9.51544e-09)
(0.019615 -0.409252 1.62691e-09)
(0.0196155 -0.409252 -6.63473e-09)
(0.0196173 -0.409251 0.951444)
(0.0220922 -0.403492 -0.950449)
(0.0220899 -0.403493 2.38248e-08)
(0.0220893 -0.403493 2.47303e-09)
(0.02209 -0.403493 -1.96089e-08)
(0.0220922 -0.403491 0.950449)
(0.0247535 -0.397103 -0.949445)
(0.0247508 -0.397104 3.9595e-08)
(0.0247501 -0.397105 3.11783e-09)
(0.0247508 -0.397104 -3.42828e-08)
(0.0247535 -0.397102 0.949445)
(0.0275943 -0.390049 -0.948426)
(0.0275911 -0.390051 5.67194e-08)
(0.0275902 -0.390051 3.61348e-09)
(0.0275911 -0.390051 -5.06434e-08)
(0.0275942 -0.390049 0.948426)
(0.0306033 -0.3823 -0.947394)
(0.0305996 -0.382301 7.52365e-08)
(0.0305985 -0.382302 4.19127e-09)
(0.0305995 -0.382301 -6.83673e-08)
(0.0306032 -0.382299 0.947394)
(0.0337652 -0.373826 -0.946347)
(0.033761 -0.373829 9.47191e-08)
(0.0337598 -0.37383 4.80865e-09)
(0.033761 -0.373828 -8.69455e-08)
(0.0337651 -0.373826 0.946347)
(0.0370604 -0.364608 -0.945283)
(0.0370559 -0.364611 1.14411e-07)
(0.0370546 -0.364612 5.297e-09)
(0.0370559 -0.36461 -1.05879e-07)
(0.0370604 -0.364608 0.945283)
(0.0404654 -0.35463 -0.944202)
(0.0404605 -0.354633 1.33582e-07)
(0.0404591 -0.354634 5.56304e-09)
(0.0404605 -0.354633 -1.24636e-07)
(0.0404655 -0.35463 0.944202)
(0.0439528 -0.343884 -0.943102)
(0.0439474 -0.343887 1.51736e-07)
(0.043946 -0.343889 5.69729e-09)
(0.0439475 -0.343887 -1.42642e-07)
(0.0439529 -0.343884 0.943102)
(0.0474916 -0.332373 -0.941977)
(0.0474859 -0.332377 1.68417e-07)
(0.0474844 -0.332378 5.73086e-09)
(0.047486 -0.332376 -1.59302e-07)
(0.0474917 -0.332373 0.941977)
(0.0510487 -0.320108 -0.940829)
(0.0510427 -0.320111 1.8315e-07)
(0.0510411 -0.320113 5.7166e-09)
(0.0510427 -0.320111 -1.74059e-07)
(0.0510487 -0.320107 0.940829)
(0.0545892 -0.307107 -0.939654)
(0.0545829 -0.30711 1.95497e-07)
(0.0545813 -0.307112 5.74907e-09)
(0.0545829 -0.30711 -1.86407e-07)
(0.0545892 -0.307107 0.939653)
(0.0580779 -0.293402 -0.938447)
(0.0580714 -0.293406 2.05204e-07)
(0.0580697 -0.293407 6.13553e-09)
(0.0580714 -0.293406 -1.95972e-07)
(0.0580779 -0.293402 0.938447)
(0.06148 -0.279033 -0.937207)
(0.0614732 -0.279036 2.12034e-07)
(0.0614716 -0.279038 5.6182e-09)
(0.0614733 -0.279036 -2.02759e-07)
(0.06148 -0.279033 0.937207)
(0.0647625 -0.264048 -0.93593)
(0.0647555 -0.264051 2.16253e-07)
(0.0647539 -0.264053 5.56691e-09)
(0.0647555 -0.264051 -2.06658e-07)
(0.0647625 -0.264048 0.93593)
(0.067895 -0.248504 -0.934612)
(0.0678879 -0.248507 2.17765e-07)
(0.0678862 -0.248509 6.12789e-09)
(0.0678879 -0.248507 -2.0759e-07)
(0.0678951 -0.248504 0.934612)
(0.0708512 -0.232465 -0.933253)
(0.0708438 -0.232468 2.16677e-07)
(0.0708421 -0.232469 6.49843e-09)
(0.0708438 -0.232467 -2.06089e-07)
(0.0708512 -0.232465 0.933253)
(0.0736088 -0.215999 -0.931845)
(0.0736012 -0.216001 2.13218e-07)
(0.0735995 -0.216003 6.45577e-09)
(0.0736012 -0.216001 -2.02665e-07)
(0.0736088 -0.215999 0.931845)
(0.0761508 -0.199178 -0.930388)
(0.076143 -0.199181 2.08435e-07)
(0.0761412 -0.199182 6.10527e-09)
(0.0761429 -0.199181 -1.98386e-07)
(0.0761506 -0.199178 0.930388)
(0.0784645 -0.182077 -0.927855)
(0.0784566 -0.182079 2.03973e-07)
(0.0784548 -0.18208 5.59953e-09)
(0.0784564 -0.182079 -1.94671e-07)
(0.0784641 -0.182077 0.927855)
(0.000240256 -0.45116 -0.980394)
(0.00023983 -0.451159 4.13624e-08)
(0.000239688 -0.451159 -4.89005e-10)
(0.000239841 -0.451159 -4.21081e-08)
(0.000240264 -0.45116 0.980394)
(0.000405052 -0.451067 -0.967859)
(0.000405165 -0.451066 -5.49592e-08)
(0.000405147 -0.451065 1.95646e-10)
(0.000405157 -0.451065 5.49289e-08)
(0.000405039 -0.451066 0.967859)
(0.000751956 -0.45093 -0.967007)
(0.000752126 -0.450931 -2.90669e-08)
(0.000752138 -0.450931 5.68031e-10)
(0.000752077 -0.450931 2.96142e-08)
(0.000751877 -0.45093 0.967007)
(0.00123186 -0.4507 -0.966145)
(0.00123198 -0.4507 -2.29592e-08)
(0.00123201 -0.4507 2.01695e-10)
(0.00123192 -0.4507 2.31685e-08)
(0.00123175 -0.4507 0.966145)
(0.00179882 -0.450343 -0.965283)
(0.00179897 -0.450343 -3.12449e-08)
(0.00179905 -0.450343 -2.28612e-10)
(0.00179894 -0.450342 3.09203e-08)
(0.00179877 -0.450342 0.965283)
(0.00243476 -0.449848 -0.96441)
(0.00243495 -0.449848 -3.3887e-08)
(0.00243507 -0.449847 -1.75441e-10)
(0.00243495 -0.449847 3.36779e-08)
(0.00243476 -0.449847 0.96441)
(0.00314237 -0.449203 -0.963531)
(0.00314258 -0.449203 -3.63654e-08)
(0.00314272 -0.449203 1.64129e-10)
(0.00314259 -0.449203 3.67854e-08)
(0.00314238 -0.449203 0.963531)
(0.00393427 -0.448396 -0.962645)
(0.00393449 -0.448396 -4.05151e-08)
(0.00393465 -0.448395 3.69802e-11)
(0.00393449 -0.448395 4.10017e-08)
(0.00393427 -0.448396 0.962645)
(0.00482671 -0.44741 -0.961755)
(0.00482691 -0.447409 -4.46898e-08)
(0.00482708 -0.447409 -4.10847e-10)
(0.0048269 -0.447409 4.45345e-08)
(0.00482669 -0.447409 0.961755)
(0.00583704 -0.446226 -0.960855)
(0.00583722 -0.446225 -4.77939e-08)
(0.00583739 -0.446225 -6.79743e-11)
(0.00583721 -0.446225 4.78306e-08)
(0.00583702 -0.446226 0.960855)
(0.00698289 -0.444823 -0.959945)
(0.00698302 -0.444822 -5.01429e-08)
(0.0069832 -0.444822 3.92291e-10)
(0.00698301 -0.444822 5.08025e-08)
(0.00698287 -0.444823 0.959945)
(0.00828221 -0.443176 -0.959031)
(0.00828227 -0.443175 -5.22871e-08)
(0.00828245 -0.443175 5.22995e-11)
(0.00828226 -0.443175 5.25719e-08)
(0.00828218 -0.443175 0.959031)
(0.0097528 -0.441256 -0.958101)
(0.00975276 -0.441256 -5.3292e-08)
(0.00975293 -0.441255 1.41798e-10)
(0.00975275 -0.441256 5.34389e-08)
(0.00975278 -0.441256 0.958101)
(0.0114124 -0.439034 -0.957175)
(0.0114123 -0.439033 -5.27408e-08)
(0.0114124 -0.439033 6.32752e-10)
(0.0114123 -0.439033 5.35527e-08)
(0.0114124 -0.439034 0.957175)
(0.0132784 -0.436474 -0.95623)
(0.0132781 -0.436474 -5.13244e-08)
(0.0132782 -0.436474 3.78165e-10)
(0.0132781 -0.436474 5.20859e-08)
(0.0132784 -0.436474 0.95623)
(0.0153666 -0.433543 -0.955277)
(0.0153661 -0.433542 -4.8765e-08)
(0.0153662 -0.433542 -2.02003e-11)
(0.0153661 -0.433542 4.89682e-08)
(0.0153666 -0.433542 0.955277)
(0.0176923 -0.430199 -0.954318)
(0.0176916 -0.430199 -4.40702e-08)
(0.0176916 -0.430199 5.72318e-11)
(0.0176916 -0.430198 4.44928e-08)
(0.0176923 -0.430199 0.954318)
(0.0202684 -0.426403 -0.953346)
(0.0202675 -0.426403 -3.71687e-08)