/*--------------------------------*- C++ -*----------------------------------*\
  =========                 |
  \\      /  F ield         | OpenFOAM: The Open Source CFD Toolbox
   \\    /   O peration     | Website:  https://openfoam.org
    \\  /    A nd           | Version:  9
     \\/     M anipulation  |
\*---------------------------------------------------------------------------*/
FoamFile
{
    format      ascii;
    class       volScalarField;
    location    "3.8";
    object      epsilon;
}
// * * * * * * * * * * * * * * * * * * * * * * * * * * * * * * * * * * * * * //

dimensions      [0 2 -3 0 0 0 0];

internalField   nonuniform List<scalar> 
36360
(
0.405984
0.325139
0.205617
0.178684
0.201078
0.154554
0.0364825
0.0437162
0.126393
0.0447065
0.0487814
0.0118693
0.052165
0.0145667
0.0117747
0.00568281
0.0176276
0.0176252
0.00552321
0.0055235
0.00663654
0.00663792
0.00469514
0.00469528
0.044689
0.126343
0.0118672
0.0487624
0.0145691
0.0521548
0.00568356
0.0117742
0.325058
0.405909
0.178638
0.205571
0.1545
0.200997
0.0437025
0.0364673
0.671453
0.541638
0.553901
0.442808
0.539467
0.405982
0.378878
0.280003
0.275728
0.150713
0.202699
0.0946021
0.217373
0.119653
0.128225
0.0517814
0.101498
0.10148
0.0532475
0.0532378
0.0817253
0.0817198
0.0257848
0.0257867
0.150651
0.27561
0.0945633
0.202618
0.119619
0.217275
0.0517767
0.12818
0.541476
0.6713
0.442688
0.553789
0.405783
0.539191
0.279886
0.378708
0.866276
0.713263
0.77352
0.630675
0.832432
0.654034
0.688814
0.530409
0.414634
0.268059
0.346326
0.209233
0.412304
0.285262
0.312949
0.199381
0.208212
0.208177
0.154112
0.154086
0.234144
0.234112
0.154306
0.154288
0.267948
0.414442
0.209146
0.346171
0.285151
0.412073
0.19931
0.312788
0.713011
0.866039
0.630468
0.773324
0.653636
0.831901
0.530115
0.688414
1.03231
0.864222
0.952192
0.790902
1.10731
0.897017
0.971748
0.77642
0.54399
0.382909
0.480594
0.326193
0.614843
0.464639
0.513396
0.374248
0.315718
0.315667
0.262396
0.262353
0.402683
0.402623
0.317512
0.317466
0.382753
0.543728
0.326059
0.480366
0.46444
0.614463
0.374093
0.513091
0.863888
1.032
0.790609
0.951918
0.896402
1.1065
0.775913
0.971076
1.17732
0.998489
1.10731
0.933457
1.36338
1.12787
1.23799
1.01437
0.662289
0.490383
0.604688
0.437825
0.812939
0.643499
0.715005
0.554727
0.417667
0.417602
0.367683
0.367625
0.572354
0.572264
0.487967
0.487892
0.490186
0.661966
0.437648
0.604394
0.643212
0.812411
0.554484
0.71455
0.998087
1.17696
0.933087
1.10697
1.12704
1.3623
1.01364
1.23704
1.30286
1.11598
1.24251
1.05938
1.5948
1.33935
1.48232
1.23625
0.767709
0.587552
0.716742
0.540435
0.997821
0.812617
0.907345
0.729627
0.510621
0.510544
0.46547
0.465399
0.733908
0.73379
0.654508
0.654404
0.587321
0.767336
0.540221
0.716393
0.812247
0.997153
0.729298
0.906746
1.11552
1.30246
1.05895
1.24212
1.33832
1.59348
1.23532
1.48111
1.40961
1.21665
1.35858
1.16845
1.79796
1.52687
1.69989
1.43614
0.859245
0.672796
0.815308
0.631793
1.16395
0.966002
1.08336
0.891439
0.592648
0.592561
0.553144
0.553062
0.881181
0.881038
0.809506
0.809375
0.672538
0.858831
0.631548
0.814914
0.965556
1.16316
0.891029
1.08262
1.21615
1.40917
1.16797
1.35816
1.52567
1.79641
1.43502
1.69845
1.49857
1.30104
1.4563
1.2609
1.97163
1.68841
1.88833
1.61078
0.936785
0.745568
0.899833
0.710833
1.30849
1.10037
1.23889
1.03557
0.662975
0.662881
0.629376
0.629285
1.01068
1.01052
0.948172
0.948018
0.745287
0.936337
0.710562
0.899402
1.09986
1.30758
1.03509
1.23804
1.30051
1.49812
1.26039
1.45586
1.68705
1.96989
1.6095
1.88667
1.571
1.37011
1.53683
1.3375
2.11623
1.82369
2.0473
1.7591
1.00081
0.806039
0.970536
0.77741
1.43049
1.2144
1.37216
1.15981
0.721614
0.721512
0.693831
0.693733
1.1209
1.12071
1.0681
1.06792
0.805739
1.00034
0.777119
0.970075
1.21383
1.42949
1.15927
1.3712
1.36955
1.57054
1.33695
1.53638
1.8222
2.11432
1.75767
2.04547
1.62852
1.42521
1.60162
1.39942
2.23351
1.93393
2.17796
1.88164
1.05231
0.854955
1.02817
0.832003
1.53055
1.30834
1.48304
1.26369
0.769184
0.769077
0.746849
0.746744
1.21189
1.21169
1.16861
1.16842
0.85464
1.05182
0.831695
1.02769
1.30772
1.52947
1.26309
1.482
1.42463
1.62806
1.39885
1.60116
1.93232
2.23145
1.88009
2.17597
1.67279
1.46783
1.65232
1.44809
2.32581
2.02106
2.28241
1.98002
1.0925
0.893339
1.07387
0.875524
1.61009
1.3833
1.57261
1.34794
0.806617
0.806506
0.789231
0.789122
1.28466
1.28445
1.25031
1.25011
0.893012
1.09199
0.875202
1.07336
1.38264
1.60894
1.3473
1.57149
1.46723
1.67232
1.44751
1.65184
2.01935
2.32364
1.97837
2.28028
1.70553
1.49955
1.69063
1.48509
2.39597
2.08754
2.36328
2.05651
1.12274
0.922405
1.10893
0.909108
1.67113
1.44105
1.64262
1.41405
0.83505
0.834935
0.822031
0.821918
1.34083
1.34061
1.31455
1.31433
0.922068
1.12221
0.908776
1.10841
1.44036
1.66993
1.41337
1.64144
1.49894
1.70506
1.48449
1.69016
2.08577
2.3937
2.05477
2.36104
1.72836
1.52189
1.71822
1.51194
2.44682
2.13594
2.42341
2.11362
1.14437
0.943384
1.1347
0.933987
1.71589
1.48359
1.69523
1.46393
0.855655
0.855538
0.846414
0.846298
1.3823
1.38206
1.36311
1.36288
0.943039
1.14383
0.933646
1.13417
1.48287
1.71464
1.46322
1.694
1.52128
1.72789
1.51133
1.71775
2.1341
2.44447
2.1118
2.42108
1.74284
1.53631
1.7367
1.53016
2.48117
2.16885
2.46566
2.15395
1.15871
0.957487
1.15254
0.951393
1.74664
1.513
1.7327
1.49964
0.869596
0.869477
0.863556
0.863438
1.41105
1.41081
1.39797
1.39773
0.957138
1.15816
0.951045
1.152
1.51226
1.74536
1.49891
1.73143
1.53569
1.74237
1.52954
1.73623
2.16697
2.47876
2.15208
2.46327
1.75028
1.54406
1.74752
1.5411
2.50156
2.18862
2.49274
2.18001
1.16692
0.965819
1.16369
0.962489
1.76552
1.53128
1.75726
1.52324
0.877943
0.877822
0.874583
0.874463
1.42902
1.42877
1.4211
1.42085
0.965466
1.16637
0.962138
1.16314
1.53052
1.76422
1.52249
1.75597
1.54344
1.74982
1.54048
1.74705
2.18671
2.49912
2.1781
2.49029
1.75186
1.54629
1.75191
1.54597
2.51028
2.19742
2.50704
2.19404
1.17005
0.969367
1.16925
0.968322
1.77448
1.54025
1.77095
1.53664
0.881652
0.881531
0.880507
0.880386
1.43798
1.43773
1.43434
1.4341
0.969013
1.1695
0.967968
1.1687
1.53949
1.77316
1.53589
1.76963
1.54567
1.7514
1.54535
1.75145
2.19549
2.50781
2.19211
2.50456
1.74881
1.54412
1.75105
1.54587
2.50956
2.19725
2.51066
2.19802
1.16911
0.969051
1.1702
0.969808
1.77526
1.54149
1.77557
1.54156
0.881603
0.881482
0.882215
0.882094
1.43941
1.43916
1.43938
1.43913
0.968697
1.16856
0.969454
1.16965
1.54073
1.77394
1.54079
1.77425
1.54351
1.74836
1.54526
1.7506
2.19531
2.50707
2.19608
2.50818
1.74167
1.53816
1.74588
1.54175
2.50076
2.18958
2.50589
2.19412
1.16472
0.965529
1.16751
0.967865
1.76941
1.5366
1.77304
1.53973
0.878469
0.878348
0.880597
0.880476
1.43496
1.43471
1.43786
1.43761
0.965177
1.16417
0.967512
1.16696
1.53584
1.76809
1.53897
1.77172
1.53755
1.74123
1.54114
1.74543
2.18764
2.49828
2.19218
2.5034
1.73122
1.52911
1.73701
1.53416
2.4854
2.1757
2.4936
2.1831
1.15752
0.959362
1.16164
0.962942
1.75793
1.5264
1.76411
1.53191
0.872769
0.87265
0.876102
0.875982
1.42534
1.42509
1.43053
1.43028
0.959013
1.15698
0.962591
1.16109
1.52564
1.75662
1.53114
1.76279
1.5285
1.73079
1.53356
1.73657
2.17377
2.48294
2.18116
2.49111
1.71799
1.5175
1.72512
1.52378
2.46457
2.1567
2.47539
2.16656
1.148
0.951041
1.15323
0.955652
1.74188
1.51195
1.75025
1.51949
0.864993
0.864875
0.869319
0.8692
1.41161
1.41136
1.41877
1.41852
0.950695
1.14747
0.955305
1.15269
1.5112
1.74058
1.51873
1.74894
1.5169
1.71757
1.52318
1.72469
2.15479
2.46213
2.16464
2.47293
1.70235
1.50369
1.71064
1.51104
2.43907
2.13335
2.45214
2.1453
1.13653
0.940905
1.1427
0.946389
1.72198
1.49391
1.7322
1.50317
0.855472
0.855355
0.860636
0.860519
1.39441
1.39417
1.40324
1.40299
0.940564
1.136
0.946045
1.14217
1.49317
1.7207
1.50242
1.73091
1.50311
1.70194
1.51045
1.71022
2.13147
2.43667
2.14341
2.44971
1.68459
1.48797
1.69391
1.49625
2.40951
2.10621
2.42456
2.12
1.12336
0.929206
1.13035
0.935445
1.69876
1.47279
1.71059
1.48354
0.844451
0.844336
0.85034
0.850224
1.37425
1.37401
1.38451
1.38427
0.92887
1.12284
0.935107
1.12983
1.47206
1.6975
1.4828
1.70932
1.4874
1.68418
1.49567
1.6935
2.10437
2.40715
2.11814
2.42216
1.66488
1.47052
1.67516
1.47964
2.3763
2.0757
2.39313
2.09115
1.10867
0.916116
1.1164
0.923033
1.67258
1.44894
1.68585
1.46102
0.832101
0.831989
0.838638
0.838524
1.35145
1.35122
1.363
1.36276
0.915788
1.10816
0.922701
1.11589
1.44822
1.67135
1.4603
1.68461
1.46996
1.66448
1.47907
1.67475
2.07389
2.37399
2.08931
2.39078
1.64336
1.45146
1.65453
1.46138
2.33973
2.04208
2.35822
2.05906
1.09258
0.901749
1.101
0.909294
1.6437
1.42259
1.6583
1.43591
0.818532
0.818422
0.825667
0.825555
1.32626
1.32603
1.33899
1.33875
0.901427
1.09208
0.908968
1.1005
1.42189
1.64249
1.4352
1.65708
1.45091
1.64297
1.46082
1.65414
2.04031
2.33747
2.05727
2.35592
1.62009
1.43087
1.63213
1.44154
2.29994
2.00549
2.32003
2.02394
1.07515
0.886165
1.08423
0.894311
1.61224
1.39387
1.62813
1.40837
0.803802
0.803695
0.81151
0.811401
1.29879
1.29856
1.31265
1.31242
0.885851
1.07466
0.893993
1.08374
1.39319
1.61107
1.40768
1.62694
1.43033
1.61971
1.441
1.63174
2.00376
2.29774
2.02219
2.31779
1.59511
1.40876
1.608
1.42019
2.257
1.96598
2.27867
1.9859
1.05641
0.869386
1.06615
0.878127
1.57826
1.36284
1.59541
1.37849
0.787932
0.787827
0.796208
0.796101
1.26909
1.26887
1.28406
1.28384
0.869079
1.05593
0.877816
1.06567
1.36218
1.57712
1.37782
1.59426
1.40824
1.59475
1.41966
1.60763
1.96431
2.25486
1.9842
2.27649
1.56843
1.38515
1.58217
1.39733
2.21091
1.92358
2.23417
1.94496
1.03634
0.851398
1.04674
0.860744
1.54175
1.32947
1.56018
1.3463
0.770909
0.770807
0.779762
0.779658
1.23714
1.23693
1.25325
1.25304
0.8511
1.03588
0.860441
1.04628
1.32883
1.54065
1.34565
1.55906
1.38464
1.56808
1.39681
1.58181
1.92195
2.20884
1.9433
2.23205
1.54003
1.35999
1.55463
1.37294
2.1616
1.87818
2.18649
1.90107
1.01492
0.832163
1.026
0.842135
1.50264
1.29369
1.52239
1.31175
0.752691
0.752592
0.762144
0.762043
1.20289
1.20269
1.22017
1.21996
0.831873
1.01447
0.84184
1.02555
1.29307
1.50157
1.31112
1.5213
1.3595
1.53968
1.37244
1.55427
1.87661
2.15959
1.89947
2.18443
1.50986
1.33324
1.52534
1.34699
2.10894
1.82965
2.13553
1.85414
0.992067
0.811614
1.00387
0.822247
1.46079
1.2554
1.48193
1.27474
0.733215
0.733119
0.743301
0.743204
1.16622
1.16603
1.18473
1.18453
0.811333
0.991635
0.821962
1.00343
1.25481
1.45976
1.27413
1.48088
1.33276
1.50953
1.3465
1.525
1.82814
2.10701
1.85259
2.13355
1.47788
1.30481
1.49427
1.31941
2.05279
1.77785
2.08115
1.80399
0.967711
0.789667
0.980271
0.801006
1.41606
1.21445
1.43867
1.23514
0.712393
0.712301
0.723159
0.723065
1.12699
1.12681
1.14681
1.14662
0.789396
0.967294
0.80073
0.979847
1.21388
1.41507
1.23456
1.43766
1.30435
1.47756
1.31894
1.49394
1.7764
2.05093
1.80251
2.07925
1.44401
1.27461
1.46135
1.2901
1.99297
1.72273
2.0232
1.75056
0.941742
0.766215
0.955117
0.778315
1.36829
1.17066
1.39245
1.1928
0.690122
0.690033
0.701621
0.70153
1.08505
1.08487
1.10625
1.10607
0.765954
0.94134
0.778049
0.954707
1.17012
1.36734
1.19225
1.39148
1.27416
1.4437
1.28965
1.46103
1.72134
1.99119
1.74914
2.02137
1.40817
1.24253
1.4265
1.25896
1.92922
1.66395
1.96146
1.69366
0.914038
0.741134
0.92829
0.754059
1.31723
1.12384
1.34307
1.14753
0.666276
0.66619
0.678572
0.678485
1.04018
1.04001
1.06288
1.0627
0.740883
0.913652
0.753802
0.927896
1.12332
1.31633
1.147
1.34215
1.2421
1.40787
1.25853
1.42619
1.66263
1.92753
1.69231
1.95971
1.37025
1.20844
1.38962
1.22589
1.86123
1.60124
1.89563
1.63296
0.884458
0.714279
0.89966
0.728102
1.26265
1.07375
1.29029
1.09911
0.640712
0.64063
0.653879
0.653795
0.99219
0.99203
1.01648
1.01632
0.714038
0.884088
0.727856
0.899282
1.07326
1.26179
1.09861
1.28941
1.20803
1.36995
1.22547
1.38932
1.59999
1.85963
1.63167
1.89398
1.33013
1.17221
1.35061
1.19074
1.78866
1.53433
1.82541
1.56819
0.852844
0.685489
0.869075
0.700293
1.20427
1.02016
1.23384
1.04731
0.613268
0.61319
0.627389
0.627309
0.94084
0.940691
0.966849
0.966694
0.68526
0.852491
0.700058
0.868713
1.0197
1.20347
1.04683
1.23302
1.17182
1.32985
1.19034
1.35032
1.53315
1.78716
1.56697
1.82385
1.28773
1.13371
1.30935
1.15338
1.71116
1.46298
1.75043
1.49909
0.819033
0.654578
0.836375
0.67046
1.14183
0.962802
1.17348
0.991876
0.583751
0.583677
0.598928
0.598852
0.885876
0.885738
0.913735
0.913591
0.654362
0.818699
0.670237
0.836031
0.962377
1.14109
0.991434
1.17271
1.13334
1.28746
1.153
1.30907
1.46188
1.70975
1.49795
1.74896
1.24316
1.09291
1.26582
1.11372
1.62843
1.38709
1.67034
1.42548
0.782838
0.621282
0.80139
0.63839
1.07506
0.901345
1.10892
0.932529
0.551869
0.5518
0.568265
0.568194
0.826952
0.826827
0.856851
0.856719
0.621079
0.782523
0.63818
0.801066
0.900957
1.07438
0.932122
1.10821
1.09256
1.2429
1.11335
1.26555
1.38608
1.62713
1.42442
1.66898
1.19727
1.0499
1.22037
1.07179
1.54096
1.30691
1.58508
1.3474
0.743832
0.585052
0.763874
0.603721
1.00343
0.835192
1.03983
0.868835
0.517091
0.517027
0.535017
0.53495
0.76353
0.763418
0.795768
0.795649
0.584864
0.743539
0.603525
0.76357
0.834845
1.00282
0.868467
1.03918
1.04957
1.19703
1.07145
1.22012
1.30599
1.53978
1.34643
1.58383
1.15443
1.00333
1.17492
1.02749
1.45335
1.22221
1.49636
1.26522
0.699892
0.544393
0.722911
0.565555
0.924935
0.76309
0.965244
0.799924
0.478417
0.478359
0.498437
0.498376
0.694963
0.694866
0.729841
0.729737
0.544221
0.699622
0.565375
0.72263
0.76279
0.924401
0.7996
0.96467
1.00302
1.1542
1.02717
1.17469
1.2214
1.45231
1.26436
1.49524
1.14225
0.93023
1.14058
0.975064
1.37884
1.10791
1.41477
1.17382
0.641161
0.496167
0.673693
0.521532
0.831381
0.683832
0.880851
0.724213
0.434715
0.434663
0.457328
0.457273
0.622021
0.621941
0.658761
0.658673
0.496013
0.640918
0.521369
0.673437
0.683581
0.830934
0.723938
0.88036
0.929949
1.14203
0.97477
1.14036
1.10723
1.37794
1.17307
1.41379
0.61072
0.490852
0.377679
0.307401
0.526335
0.420773
0.306245
0.250645
0.236889
0.113856
0.117237
0.0395717
0.187513
0.0807269
0.0844861
0.0233014
0.0642429
0.0642264
0.015295
0.0152915
0.0389155
0.0389068
0.0093209
0.00932035
0.113795
0.236773
0.0395461
0.117163
0.0806874
0.18743
0.0232921
0.0844414
0.490702
0.610596
0.307282
0.377567
0.420657
0.526235
0.250563
0.306166
0.908424
0.747852
0.778684
0.632846
0.805765
0.657135
0.683845
0.551181
0.439129
0.274466
0.343675
0.19477
0.364206
0.214811
0.280275
0.147223
0.204078
0.204041
0.132616
0.132588
0.152892
0.152864
0.0934288
0.0934094
0.274354
0.43895
0.194681
0.343525
0.214722
0.364056
0.147158
0.280158
0.747653
0.908273
0.632668
0.778542
0.656954
0.805617
0.551032
0.68372
1.11156
0.935361
1.01715
0.847214
0.999513
0.832789
0.908865
0.749639
0.606568
0.424002
0.526303
0.351139
0.514776
0.345762
0.442005
0.281322
0.343619
0.343569
0.274992
0.274947
0.273522
0.273478
0.213552
0.213515
0.423855
0.606349
0.351007
0.526101
0.345631
0.514569
0.281211
0.441824
0.935138
1.11141
0.846999
1.017
0.832556
0.999334
0.74943
0.908698
1.27024
1.08678
1.19521
1.01476
1.15546
0.978792
1.08107
0.908796
0.74942
0.55745
0.680832
0.492883
0.647234
0.466587
0.583153
0.407682
0.471367
0.471309
0.409288
0.409233
0.387867
0.387812
0.331876
0.331826
0.557284
0.749184
0.492725
0.680602
0.466424
0.646985
0.407534
0.582923
1.08657
1.27012
1.01453
1.19507
0.978528
1.15527
0.908544
1.08088
1.39917
1.21214
1.33797
1.15243
1.28601
1.10304
1.22362
1.04346
0.871156
0.673878
0.812864
0.617876
0.763153
0.574834
0.707291
0.522435
0.584323
0.584261
0.529849
0.529789
0.491701
0.491637
0.441307
0.441247
0.673706
0.870922
0.617706
0.812627
0.574649
0.762879
0.52226
0.707028
1.21195
1.39912
1.15222
1.33789
1.10276
1.28584
1.04319
1.22343
1.50458
1.31584
1.45459
1.26654
1.39533
1.2082
1.34319
1.15794
0.973725
0.773447
0.924808
0.72582
0.862999
0.669454
0.815123
0.623951
0.681748
0.681686
0.635064
0.635002
0.58324
0.58317
0.539141
0.539074
0.773277
0.973505
0.725648
0.924579
0.669254
0.86271
0.623758
0.81484
1.31569
1.50459
1.26637
1.45457
1.20793
1.39518
1.15766
1.34303
1.5902
1.40081
1.54972
1.36058
1.48589
1.296
1.44288
1.25424
1.05889
0.856999
1.01848
0.817267
0.947422
0.750292
0.907179
0.711677
0.763993
0.763932
0.724832
0.724771
0.661915
0.661842
0.624286
0.624214
0.856836
1.05869
0.8171
1.01826
0.750084
0.947127
0.711473
0.906886
1.4007
1.59029
1.36045
1.54978
1.29573
1.48578
1.25396
1.44275
1.65887
1.46943
1.62658
1.43711
1.55976
1.36805
1.52487
1.33398
1.12843
0.925806
1.09562
0.89329
1.01742
0.817858
0.984267
0.785804
0.83204
0.831982
0.79985
0.79979
0.727972
0.727896
0.696603
0.696528
0.925653
1.12825
0.893132
1.09544
0.817646
1.01712
0.785593
0.983971
1.46937
1.65904
1.43704
1.62671
1.3678
1.55969
1.33372
1.52478
1.71287
1.52376
1.68766
1.49835
1.61876
1.42593
1.59109
1.39876
1.1841
0.981303
1.15803
0.955271
1.07419
0.873036
1.0475
0.847062
0.887144
0.887088
0.861271
0.861215
0.782119
0.782042
0.756609
0.756533
0.981161
1.18395
0.955123
1.15786
0.872821
1.0739
0.846848
1.04721
1.52375
1.71311
1.49832
1.68786
1.42569
1.61872
1.39851
1.59104
1.75427
1.56573
1.73513
1.5463
1.66475
1.47129
1.64339
1.45019
1.22764
1.02505
1.20744
1.00471
1.11913
0.91701
1.0982
0.896498
0.930753
0.930701
0.91046
0.910406
0.825421
0.825343
0.805206
0.805128
1.02492
1.22751
1.00458
1.2073
0.916794
1.11884
0.896283
1.09791
1.56577
1.75457
1.54631
1.73541
1.47107
1.66476
1.44997
1.64337
1.78488
1.59709
1.77092
1.58276
1.69941
1.50572
1.68351
1.4899
1.2607
1.05857
1.24555
1.04317
1.15365
0.951045
1.13776
0.935353
0.96431
0.964261
0.948876
0.948825
0.859058
0.85898
0.843535
0.843457
1.05845
1.26059
1.04305
1.24543
0.95083
1.15337
0.935137
1.13748
1.59716
1.78524
1.58281
1.77126
1.50551
1.69945
1.48969
1.68353
1.80637
1.61943
1.7968
1.60943
1.72436
1.53074
1.71314
1.51946
1.28481
1.08333
1.27396
1.07215
1.17918
0.976455
1.16763
0.964929
0.989235
0.989188
0.977959
0.977911
0.884283
0.884206
0.872825
0.872748
1.08322
1.28472
1.07203
1.27386
0.976241
1.1789
0.964714
1.16735
1.61953
1.80679
1.60952
1.79719
1.53056
1.72443
1.51927
1.7132
1.82017
1.63416
1.81428
1.6278
1.74105
1.54777
1.73379
1.54032
1.30136
1.10066
1.29414
1.09304
1.19704
0.994483
1.18918
0.986506
1.00683
1.00679
0.999072
0.999027
0.902295
0.902217
0.894308
0.89423
1.10055
1.30128
1.09293
1.29405
0.99427
1.19676
0.986293
1.1889
1.6343
1.82062
1.62793
1.81471
1.5476
1.74114
1.54015
1.73388
1.82756
1.64257
1.82473
1.63924
1.75082
1.55811
1.74688
1.55387
1.3116
1.11177
1.30739
1.10713
1.20845
1.0063
1.20367
1.0013
1.01829
1.01824
1.01347
1.01342
0.914227
0.91415
0.909155
0.909077
1.11168
1.31154
1.10703
1.30733
1.00609
1.20818
1.00109
1.2034
1.64273
1.82805
1.63939
1.8252
1.55795
1.75095
1.5537
1.74699
1.82958
1.6457
1.82933
1.64489
1.7548
1.56284
1.75363
1.56128
1.31659
1.11773
1.3149
1.11556
1.21448
1.01293
1.21228
1.01041
1.02465
1.02461
1.02226
1.02222
0.921087
0.92101
0.918441
0.918364
1.11764
1.31655
1.11546
1.31485
1.01272
1.21421
1.0102
1.21201
1.64588
1.8301
1.64506
1.82983
1.5627
1.75494
1.56113
1.75376
1.82727
1.64454
1.82907
1.64575
1.75403
1.56299
1.7551
1.5636
1.31729
1.11944
1.31763
1.11929
1.21607
1.01528
1.21599
1.01481
1.0268
1.02676
1.02642
1.02638
0.923759
0.923683
0.923111
0.923035
1.11936
1.31726
1.1192
1.31759
1.01508
1.21581
1.0146
1.21573
1.64473
1.82782
1.64594
1.8296
1.56286
1.75419
1.56346
1.75525
1.8213
1.63982
1.82485
1.64274
1.74934
1.5594
1.7523
1.5618
1.3145
1.11775
1.3165
1.1192
1.21412
1.01421
1.2157
1.01533
1.0256
1.02556
1.02679
1.02676
0.923067
0.922992
0.923989
0.923913
1.11767
1.31447
1.11912
1.31647
1.014
1.21386
1.01513
1.21545
1.64003
1.82186
1.64295
1.82541
1.55927
1.74951
1.56167
1.75246
1.81228
1.63213
1.8173
1.63648
1.74134
1.55265
1.74589
1.55657
1.30877
1.11317
1.31219
1.11602
1.20913
1.01024
1.21218
1.01277
1.02155
1.02152
1.02413
1.02409
0.91956
0.919485
0.921857
0.921783
1.1131
1.30875
1.11594
1.31217
1.01004
1.20888
1.01257
1.21193
1.63235
1.81285
1.6367
1.81786
1.55253
1.74152
1.55645
1.74607
1.80067
1.62197
1.80692
1.6275
1.73057
1.54329
1.73645
1.54845
1.30063
1.10625
1.3052
1.11021
1.20168
1.00391
1.20591
1.00757
1.01519
1.01516
1.01887
1.01883
0.913749
0.913675
0.917139
0.917065
1.10617
1.30062
1.11013
1.30518
1.00371
1.20144
1.00737
1.20566
1.62219
1.80125
1.62772
1.8075
1.54318
1.73076
1.54833
1.73663
1.78687
1.60972
1.79419
1.61626
1.71747
1.53175
1.72447
1.53796
1.29047
1.09736
1.29601
1.10226
1.19218
0.995631
1.19739
1.00022
1.00691
1.00688
1.0115
1.01147
0.906043
0.905971
0.910339
0.910266
1.09729
1.29046
1.10219
1.296
0.995436
1.19194
1.00002
1.19715
1.60995
1.78746
1.61649
1.79477
1.53164
1.71766
1.53785
1.72466
1.77115
1.59567
1.7794
1.60307
1.70232
1.51832
1.71032
1.52544
1.27859
1.08682
1.28495
1.09251
1.18094
0.985705
1.18699
0.991087
0.997008
0.996976
1.00238
1.00235
0.896741
0.89667
0.901804
0.901732
1.08675
1.27858
1.09245
1.28495
0.985514
1.1807
0.990894
1.18675
1.5959
1.77173
1.60331
1.77998
1.51822
1.70252
1.52534
1.71051
1.75368
1.58
1.76278
1.5882
1.68535
1.50324
1.69423
1.51116
1.26518
1.07482
1.27228
1.08122
1.16816
0.97435
1.17495
0.980423
0.985692
0.985661
0.991748
0.991716
0.886057
0.885987
0.891787
0.891717
1.07476
1.26518
1.08116
1.27228
0.974162
1.16794
0.980234
1.17472
1.58024
1.75427
1.58843
1.76336
1.50314
1.68555
1.51107
1.69443
1.73462
1.56288
1.7445
1.57179
1.6667
1.48664
1.67641
1.49531
1.25041
1.06153
1.25818
1.06856
1.15402
0.961715
1.16148
0.968411
0.973113
0.973083
0.979783
0.979753
0.874141
0.874073
0.880471
0.880402
1.06147
1.25041
1.0685
1.25818
0.961531
1.1538
0.968225
1.16125
1.56312
1.7352
1.57202
1.74508
1.48655
1.6669
1.49521
1.6766
1.71404
1.54438
1.72467
1.55396
1.64647
1.46864
1.65695
1.47799
1.23435
1.04703
1.24275
1.05465
1.1386
0.947897
1.14669
0.955173
0.959364
0.959334
0.966607
0.966577
0.861089
0.861022
0.867975
0.867907
1.04697
1.23435
1.05459
1.24275
0.947717
1.13838
0.954991
1.14647
1.54461
1.71461
1.5542
1.72524
1.46855
1.64666
1.47791
1.65715
1.69201
1.52456
1.70335
1.53479
1.62471
1.44928
1.63595
1.4593
1.21708
1.03137
1.22608
1.03957
1.12196
0.932949
1.13065
0.940782
0.944496
0.944467
0.952291
0.952262
0.846951
0.846885
0.854372
0.854306
1.03131
1.21708
1.03951
1.22608
0.932773
1.12175
0.940604
1.13043
1.52479
1.69257
1.53503
1.70392
1.4492
1.62491
1.45922
1.63615
1.66856
1.50346
1.6806
1.51432
1.60147
1.4286
1.61345
1.43928
1.1986
1.01458
1.2082
1.02334
1.10412
0.916889
1.1134
0.925274
0.928526
0.928498
0.936868
0.93684
0.831745
0.831681
0.839697
0.839632
1.01452
1.1986
1.02328
1.2082
0.916717
1.10392
0.9251
1.1132
1.50368
1.6691
1.51456
1.68116
1.42852
1.60166
1.4392
1.61364
1.64371
1.48107
1.65644
1.49257
1.57676
1.40659
1.58946
1.41793
1.17892
0.996644
1.18912
1.00597
1.08508
0.899707
1.09496
0.908652
0.911442
0.911414
0.92034
0.920312
0.815459
0.815396
0.823949
0.823886
0.996588
1.17892
1.00592
1.18912
0.899539
1.08488
0.908482
1.09476
1.48129
1.64424
1.4928
1.65699
1.40651
1.57694
1.41785
1.58965
1.61748
1.45739
1.6309
1.46954
1.55057
1.38325
1.56401
1.39525
1.158
0.977526
1.16882
0.987445
1.0648
0.881368
1.0753
0.890892
0.893207
0.89318
0.902681
0.902654
0.798055
0.797993
0.807105
0.807043
0.97747
1.158
0.987388
1.16882
0.881205
1.06461
0.890726
1.0751
1.45761
1.618
1.46976
1.63143
1.38317
1.55074
1.39517
1.56419
1.58987
1.43241
1.60398
1.44521
1.52289
1.35854
1.53707
1.37122
1.13582
0.957174
1.14727
0.967712
1.04325
0.861817
1.05439
0.87195
0.873763
0.873736
0.883845
0.883818
0.779474
0.779415
0.789116
0.789055
0.957119
1.13582
0.967656
1.14727
0.861658
1.04306
0.871788
1.05419
1.43262
1.59037
1.44542
1.60449
1.35846
1.52306
1.37115
1.53724
1.56089
1.40609
1.57568
1.41955
1.49371
1.33242
1.50864
1.34581
1.1123
0.935518
1.12442
0.946711
1.02035
0.840979
1.03216
0.85176
0.85303
0.853004
0.863761
0.863734
0.759642
0.759584
0.769914
0.769855
0.935462
1.1123
0.946656
1.12442
0.840823
1.02016
0.851602
1.03197
1.40629
1.56137
1.41976
1.57616
1.33235
1.49387
1.34574
1.5088
1.53053
1.37843
1.546
1.39256
1.46299
1.30481
1.47868
1.31895
1.0874
0.912468
1.10021
0.924364
0.996005
0.818757
1.00855
0.830236
0.830914
0.830887
0.842343
0.842316
0.738459
0.738403
0.749413
0.749356
0.912412
1.08739
0.924308
1.10021
0.818606
0.995821
0.830082
1.00836
1.37862
1.53098
1.39275
1.54647
1.30473
1.46314
1.31888
1.47884
1.49875
1.34935
1.51493
1.36419
1.43069
1.27565
1.44718
1.29057
1.061
0.887916
1.07456
0.90057
0.97013
0.795041
0.983444
0.807274
0.807301
0.807274
0.819486
0.819459
0.715809
0.715754
0.727504
0.727449
0.887858
1.06098
0.900513
1.07455
0.794893
0.96995
0.807125
0.983262
1.34952
1.49918
1.36437
1.51537
1.27557
1.43083
1.29049
1.44732
1.46557
1.31879
1.48244
1.33437
1.39677
1.24486
1.41406
1.26059
1.03301
0.86174
1.04737
0.875214
0.942608
0.769701
0.956753
0.782755
0.782058
0.782031
0.795068
0.795041
0.691558
0.691505
0.704064
0.70401
0.861681
1.03299
0.875156
1.04736
0.769557
0.942431
0.78261
0.956575
1.31895
1.46597
1.33453
1.48286
1.24478
1.39689
1.26052
1.41419
1.43103
1.28674
1.44857
1.30306
1.36119
1.21238
1.37931
1.22896
1.00334
0.833807
1.01855
0.848169
0.913316
0.742592
0.928352
0.756542
0.755035
0.755008
0.768948
0.768921
0.665551
0.6655
0.678948
0.678895
0.833747
1.00331
0.84811
1.01853
0.742452
0.913143
0.7564
0.928178
1.28689
1.4314
1.30321
1.44895
1.21229
1.3613
1.22888
1.37942
1.39529
1.25329
1.41338
1.27028
1.32402
1.17817
1.3429
1.1956
0.971918
0.803959
0.988002
0.819294
0.882138
0.713541
0.898123
0.728478
0.726032
0.726004
0.740957
0.74093
0.637591
0.637541
0.651985
0.651934
0.803896
0.971886
0.819232
0.987973
0.713405
0.881969
0.72834
0.897952
1.25341
1.39563
1.27042
1.41374
1.17809
1.32412
1.19552
1.343
1.35892
1.21872
1.3772
1.2362
1.28562
1.14238
1.30503
1.16056
0.93869
0.771925
0.955681
0.788393
0.848943
0.682275
0.86595
0.698357
0.694694
0.694665
0.71084
0.710811
0.607351
0.607302
0.622931
0.622881
0.771859
0.938649
0.788328
0.955645
0.682143
0.848777
0.698223
0.865782
1.21882
1.35923
1.23632
1.37752
1.14229
1.28569
1.16047
1.30512
1.32399
1.18374
1.34111
1.20131
1.24737
1.10533
1.26639
1.12409
0.903329
0.736997
0.921469
0.755046
0.813318
0.648138
0.831631
0.665776
0.660233
0.660203
0.678074
0.678045
0.574149
0.574102
0.591321
0.591274
0.736926
0.903276
0.754977
0.921422
0.648009
0.813154
0.665646
0.831466
1.18382
1.32425
1.2014
1.34139
1.10524
1.24743
1.12399
1.26645
1.29883
1.14816
1.30908
1.16633
1.21575
1.06611
1.22987
1.08637
0.863441
0.697058
0.884443
0.718013
0.772856
0.609227
0.794171
0.62961
0.620991
0.620961
0.641481
0.641451
0.536588
0.536543
0.556155
0.556109
0.696981
0.863373
0.71794
0.884383
0.609103
0.772693
0.629484
0.794008
1.1482
1.29905
1.16639
1.30933
1.066
1.21579
1.08627
1.22992
1.32781
1.08924
1.30056
1.12686
1.22936
1.0016
1.21151
1.04215
0.807502
0.647793
0.83899
0.673968
0.716536
0.561658
0.748114
0.586869
0.575004
0.574972
0.599007
0.598976
0.493019
0.492976
0.515706
0.515662
0.64771
0.807415
0.673889
0.838913
0.561539
0.716375
0.586748
0.747952
1.08925
1.32798
1.12688
1.30075
1.00148
1.22936
1.04203
1.21153
0.723507
0.587808
0.476461
0.38926
0.673923
0.544697
0.432736
0.352365
0.311471
0.169884
0.170561
0.0711255
0.277514
0.143664
0.14576
0.0556986
0.111243
0.111212
0.0338593
0.0338459
0.0889792
0.0889547
0.0233758
0.0233684
0.16978
0.311293
0.0710643
0.170426
0.143581
0.277366
0.055655
0.145655
0.587594
0.723336
0.389066
0.476283
0.544514
0.673774
0.352207
0.432591
1.04956
0.876488
0.906332
0.746296
0.987138
0.819057
0.85013
0.695846
0.552418
0.371882
0.438462
0.272395
0.500989
0.326766
0.395488
0.236385
0.292289
0.292238
0.200881
0.200838
0.250878
0.250834
0.16872
0.168684
0.371732
0.552193
0.272264
0.438255
0.326634
0.500785
0.236274
0.395308
0.876258
1.0494
0.746069
0.906163
0.818841
0.986983
0.695641
0.849973
1.27399
1.08866
1.16998
0.98921
1.20123
1.0194
1.10197
0.925452
0.750683
0.555112
0.656098
0.466445
0.684743
0.494139
0.596962
0.412962
0.466422
0.466363
0.38147
0.381414
0.408689
0.408634
0.331486
0.331436
0.554946
0.750453
0.466284
0.655866
0.493981
0.684516
0.412814
0.596743
1.08846
1.2739
0.98899
1.16985
1.01918
1.20111
0.925232
1.10183
1.4459
1.25671
1.3652
1.17731
1.36614
1.17898
1.28854
1.10341
0.916011
0.714234
0.837178
0.637803
0.839129
0.640889
0.765328
0.570208
0.621161
0.621103
0.546528
0.546469
0.550439
0.55038
0.481875
0.481817
0.714074
0.915808
0.637638
0.836958
0.640725
0.838908
0.570044
0.765101
1.25658
1.44592
1.17714
1.36516
1.17881
1.36609
1.10321
1.28845
1.58174
1.39218
1.51774
1.3281
1.49777
1.30889
1.43557
1.24728
1.05327
0.849387
0.98799
0.784823
0.968569
0.766829
0.906844
0.706501
0.754283
0.75423
0.690527
0.690471
0.673695
0.673637
0.6145
0.614441
0.84925
1.05311
0.784673
0.987809
0.766673
0.968374
0.70634
0.906635
1.39214
1.58188
1.32801
1.51782
1.30877
1.49781
1.24713
1.43557
1.68984
1.50144
1.63892
1.44983
1.60363
1.41472
1.55362
1.3646
1.16612
0.962191
1.11263
0.908563
1.07604
0.872974
1.02497
0.822384
0.866317
0.866273
0.812962
0.812913
0.778459
0.778405
0.72844
0.728384
0.962083
1.16603
0.908439
1.11251
0.872834
1.07588
0.822235
1.0248
1.50149
1.69011
1.44984
1.63912
1.41467
1.60378
1.36452
1.55372
1.77553
1.58891
1.73527
1.54773
1.6884
1.50026
1.64847
1.45989
1.25783
1.05486
1.21455
1.01103
1.16414
0.960938
1.12247
0.919238
0.95891
0.958876
0.915057
0.915018
0.865804
0.865756
0.824344
0.824293
1.05478
1.25779
1.01094
1.21448
0.960819
1.16403
0.919109
1.12233
1.58906
1.77593
1.54783
1.7356
1.50029
1.68865
1.45988
1.64867
1.84275
1.65812
1.81132
1.6257
1.75552
1.56852
1.72405
1.53647
1.33132
1.1298
1.29682
1.09455
1.23531
1.03262
1.20183
0.998835
1.03415
1.03412
0.998721
0.998692
0.937316
0.937276
0.903577
0.903533
1.12976
1.33134
1.09449
1.29681
1.03252
1.23524
0.998727
1.20174
1.65836
1.84327
1.6259
1.81178
1.56863
1.75587
1.53654
1.72436
1.89449
1.71186
1.87046
1.68686
1.80765
1.62197
1.78338
1.59705
1.38916
1.1893
1.36219
1.16151
1.29172
1.0899
1.26537
1.0631
1.09414
1.09413
1.06609
1.06607
0.994715
0.994681
0.967829
0.967791
1.18928
1.38924
1.16148
1.36225
1.08983
1.29169
1.06301
1.26532
1.71218
1.89511
1.68714
1.87104
1.62214
1.8081
1.59719
1.78379
1.93329
1.75259
1.91546
1.73383
1.84714
1.66282
1.82895
1.64396
1.43371
1.23554
1.41313
1.21413
1.33546
1.13471
1.31521
1.11393
1.14099
1.14098
1.11927
1.11926
1.03979
1.03977
1.01886
1.01883
1.23556
1.43383
1.21413
1.41323
1.13465
1.33546
1.11386
1.3152
1.75299
1.93401
1.73419
1.91614
1.66305
1.84767
1.64416
1.82944
1.96124
1.78236
1.9486
1.76884
1.87591
1.69296
1.86285