/*--------------------------------*- C++ -*----------------------------------*\
  =========                 |
  \\      /  F ield         | OpenFOAM: The Open Source CFD Toolbox
   \\    /   O peration     | Website:  https://openfoam.org
    \\  /    A nd           | Version:  9
     \\/     M anipulation  |
\*---------------------------------------------------------------------------*/
FoamFile
{
    format      ascii;
    class       volScalarField;
    location    "2.7";
    object      nut;
}
// * * * * * * * * * * * * * * * * * * * * * * * * * * * * * * * * * * * * * //

dimensions      [0 2 -1 0 0 0 0];

internalField   nonuniform List<scalar> 
36360
(
0.00253707
0.00219471
0.00134446
0.00119534
0.000438339
0.000392025
0.00024269
0.000234349
0.00134724
0.00058993
0.000446
0.00022279
0.000239814
0.000161372
0.000173405
0.000158814
0.000248575
0.00024878
0.000151078
0.00015111
0.000136544
0.000136548
0.00016112
0.00016112
0.000590731
0.00134809
0.000222974
0.00044641
0.000161408
0.000239886
0.000158813
0.000173427
0.00219525
0.00253729
0.00119587
0.00134471
0.000392102
0.000438389
0.000234397
0.000242713
0.00387047
0.00346617
0.00331717
0.00292132
0.000653083
0.000576669
0.000572827
0.000502865
0.00259267
0.00192583
0.00203064
0.00128751
0.00042956
0.00029201
0.000347455
0.000208835
0.00157082
0.00157146
0.000700739
0.000701505
0.000196723
0.000196786
0.000143394
0.000143426
0.00192681
0.00259342
0.00128867
0.00203145
0.000292123
0.000429642
0.000208928
0.000347548
0.00346662
0.00387056
0.00292182
0.00331732
0.000576723
0.000653118
0.000502926
0.000572867
0.00464397
0.00425914
0.00429633
0.00389928
0.000746507
0.000668838
0.000706851
0.000629021
0.00346458
0.00297526
0.00306408
0.00249673
0.00053421
0.00042554
0.000488718
0.000367258
0.00281852
0.0028188
0.00227492
0.0022753
0.000361019
0.000361061
0.000284625
0.000284686
0.00297591
0.00346518
0.00249752
0.00306476
0.000425621
0.000534281
0.000367352
0.000488793
0.00425945
0.0046439
0.00389967
0.00429635
0.000668886
0.000746536
0.000629072
0.000706883
0.00518106
0.00482028
0.00493452
0.00456234
0.00080243
0.000726094
0.000777443
0.000700399
0.00409039
0.00369245
0.0038034
0.00336819
0.00059967
0.000506121
0.000570363
0.000470659
0.00358409
0.00358428
0.00324278
0.003243
0.000457317
0.000457346
0.000416118
0.000416152
0.00369292
0.00409082
0.00336874
0.00380392
0.000506187
0.000599732
0.000470732
0.00057043
0.0048204
0.00518072
0.00456256
0.00493432
0.000726134
0.00080245
0.000700443
0.000777468
0.00556522
0.00522195
0.00538916
0.00503798
0.000839535
0.000764414
0.000822804
0.000747118
0.00453288
0.00417995
0.00433097
0.003959
0.000642955
0.000556692
0.000623499
0.000534213
0.00408795
0.00408809
0.00386044
0.00386061
0.000513663
0.000513688
0.000488906
0.000488933
0.00418029
0.00453313
0.0039594
0.00433132
0.000556749
0.000643009
0.000534274
0.000623557
0.00522184
0.00556457
0.00503798
0.00538866
0.000764443
0.000839543
0.000747153
0.000822818
0.00583361
0.00550186
0.00571165
0.00537472
0.000864216
0.000789943
0.000853148
0.000778491
0.00483754
0.00450932
0.00469951
0.00436048
0.000671435
0.000588938
0.000658701
0.000574611
0.00442496
0.00442507
0.00427277
0.00427289
0.000548534
0.000548556
0.000533121
0.000533145
0.00450956
0.00483764
0.00436077
0.00469969
0.000588989
0.000671481
0.000574665
0.000658751
0.00550153
0.00583266
0.0053745
0.00571084
0.000789962
0.000864211
0.000778516
0.000853149
0.00601305
0.0056888
0.0059324
0.00560481
0.000880052
0.000806327
0.000873037
0.000799068
0.0050394
0.00472584
0.00494885
0.00462871
0.000689568
0.000609105
0.000681551
0.000600222
0.00464594
0.00464602
0.00454668
0.00454677
0.000570033
0.000570054
0.000560587
0.000560609
0.00472599
0.00503937
0.00462891
0.00494889
0.000609152
0.000689608
0.000600271
0.000681594
0.00568828
0.00601183
0.00560439
0.0059313
0.000806338
0.000880037
0.000799083
0.000873027
0.00612685
0.00580702
0.00607636
0.00575459
0.000889641
0.000816241
0.000885468
0.000811926
0.00516631
0.00486177
0.00511007
0.00480138
0.000700506
0.000621143
0.00069575
0.00061592
0.00478492
0.00478498
0.00472298
0.00472305
0.00058277
0.00058279
0.00057725
0.00057727
0.00486187
0.00516618
0.00480151
0.00510998
0.000621188
0.000700542
0.000615966
0.000695788
0.00580636
0.00612542
0.005754
0.00607502
0.000816246
0.000889618
0.000811933
0.000885448
0.00619387
0.00587645
0.00616461
0.00584614
0.000894955
0.000821733
0.000892705
0.000819406
0.00524056
0.00494153
0.00520813
0.00490651
0.000706584
0.000627799
0.000704007
0.000624978
0.0048669
0.00486695
0.00483068
0.00483074
0.000589787
0.000589806
0.000586812
0.000586832
0.0049416
0.00524036
0.00490659
0.00520797
0.000627843
0.000706618
0.000625023
0.000704043
0.00587569
0.0061923
0.00584542
0.00616309
0.000821734
0.000894926
0.000819408
0.000892678
0.0062292
0.00591295
0.00621413
0.00589736
0.000897483
0.000824349
0.00089647
0.000823297
0.00527946
0.00498373
0.0052628
0.00496544
0.00070953
0.000631033
0.000708339
0.00062972
0.00491072
0.00491076
0.00489151
0.00489156
0.000593198
0.000593218
0.000591808
0.000591828
0.00498377
0.00527922
0.0049655
0.00526259
0.000631077
0.000709563
0.000629764
0.000708372
0.00591213
0.00622753
0.00589656
0.00621249
0.000824348
0.000897451
0.000823297
0.000896438
0.00624397
0.00592833
0.00623804
0.00592204
0.000898248
0.000825157
0.000898019
0.000824906
0.00529589
0.00500203
0.00528907
0.00499421
0.000710536
0.000632181
0.000710196
0.000631779
0.00493019
0.00493023
0.00492166
0.00492171
0.000594431
0.000594451
0.00059399
0.00059401
0.00500207
0.00529564
0.00499426
0.00528883
0.000632225
0.000710569
0.000631823
0.00071023
0.00592748
0.00624226
0.0059212
0.00623633
0.000825156
0.000898215
0.000824904
0.000897986
0.00624618
0.00593064
0.00624545
0.00592978
0.000898033
0.000824953
0.000898217
0.000825127
0.00529835
0.00500546
0.0052975
0.00500419
0.000710448
0.000632148
0.000710563
0.000632239
0.00493437
0.00493441
0.00493269
0.00493273
0.000594428
0.000594448
0.000594507
0.000594527
0.0050055
0.00529811
0.00500423
0.00529726
0.000632193
0.000710482
0.000632283
0.000710597
0.00592978
0.00624444
0.00592893
0.00624372
0.000824953
0.000898001
0.000825126
0.000898184
0.00624061
0.00592523
0.00624348
0.00592801
0.000897153
0.00082408
0.000897626
0.000824548
0.0052929
0.00500055
0.0052957
0.005003
0.000709666
0.000631395
0.000710098
0.000631819
0.00493002
0.00493006
0.0049321
0.00493214
0.000593689
0.000593709
0.000594109
0.000594129
0.00500059
0.00529265
0.00500305
0.00529546
0.00063144
0.000709701
0.000631864
0.000710133
0.00592437
0.00623887
0.00592716
0.00624174
0.00082408
0.000897121
0.000824547
0.000897593
0.00623051
0.00591529
0.00623538
0.00592002
0.00089591
0.000822842
0.000896545
0.000823471
0.00528263
0.00499041
0.00528742
0.00499494
0.000708502
0.000630239
0.000709098
0.000630829
0.0049202
0.00492025
0.0049244
0.00492444
0.000592531
0.000592551
0.000593118
0.000593139
0.00499046
0.0052824
0.00499499
0.00528719
0.000630285
0.000708538
0.000630874
0.000709134
0.00591444
0.00622879
0.00591917
0.00623363
0.000822842
0.000895879
0.000823471
0.000896513
0.00621749
0.00590251
0.00622367
0.00590851
0.000894415
0.000821354
0.000895167
0.000822099
0.00526948
0.0049772
0.00527556
0.00498311
0.000707086
0.000628824
0.000707798
0.000629532
0.0049072
0.00490725
0.00491282
0.00491287
0.000591109
0.00059113
0.000591817
0.000591838
0.00497725
0.00526925
0.00498316
0.00527534
0.00062887
0.000707123
0.000629579
0.000707835
0.00590168
0.00621579
0.00590768
0.00622195
0.000821356
0.000894385
0.0008221
0.000895136
0.00620234
0.00588772
0.00620952
0.00589467
0.000892724
0.000819673
0.00089357
0.000820511
0.00525427
0.00496181
0.00526131
0.00496873
0.000705478
0.000627211
0.000706282
0.000628014
0.00489193
0.00489198
0.00489861
0.00489866
0.000589485
0.000589506
0.00059029
0.000590311
0.00496187
0.00525406
0.00496879
0.00526109
0.000627258
0.000705515
0.000628061
0.000706319
0.00588691
0.00620066
0.00589385
0.00620782
0.000819677
0.000892696
0.000820513
0.00089354
0.00618542
0.00587127
0.00619346
0.00587902
0.000890857
0.000817821
0.00089179
0.000818743
0.00523738
0.00494463
0.00524523
0.00495241
0.000703699
0.000625425
0.000704587
0.000626313
0.00487481
0.00487486
0.00488237
0.00488243
0.000587684
0.000587705
0.000588577
0.000588598
0.0049447
0.00523718
0.00495248
0.00524503
0.000625473
0.000703738
0.000626361
0.000704625
0.00587048
0.00618376
0.00587822
0.00619178
0.000817825
0.000890831
0.000818747
0.000891762
0.00616684
0.00585328
0.0061757
0.00586179
0.000888819
0.0008158
0.000889838
0.000816807
0.00521893
0.00492581
0.00522755
0.0049344
0.000701756
0.00062347
0.000702726
0.000624443
0.00485599
0.00485604
0.00486439
0.00486444
0.000585711
0.000585733
0.00058669
0.000586712
0.00492589
0.00521874
0.00493448
0.00522737
0.000623518
0.000701795
0.000624491
0.000702766
0.0058525
0.00616521
0.00586101
0.00617405
0.000815806
0.000888794
0.000816812
0.000889812
0.00614663
0.00583376
0.00615631
0.00584303
0.000886606
0.000813607
0.000887713
0.000814701
0.00519893
0.00490538
0.00520833
0.00491477
0.000699645
0.000621344
0.0007007
0.000622403
0.00483551
0.00483556
0.00484474
0.00484479
0.000583564
0.000583586
0.000584631
0.000584653
0.00490546
0.00519877
0.00491486
0.00520816
0.000621393
0.000699686
0.000622453
0.000700741
0.00583301
0.00614503
0.00584227
0.00615468
0.000813614
0.000886583
0.000814707
0.000887688
0.00612477
0.0058127
0.00613528
0.00582275
0.000884215
0.000811239
0.000885413
0.000812421
0.00517737
0.00488329
0.00518756
0.00489352
0.000697363
0.000619041
0.000698505
0.00062019
0.00481333
0.0048134
0.00482341
0.00482347
0.000581237
0.000581259
0.000582395
0.000582417
0.00488339
0.00517721
0.00489361
0.0051874
0.000619092
0.000697405
0.00062024
0.000698546
0.00581197
0.0061232
0.00582201
0.00613368
0.000811248
0.000884194
0.000812429
0.000885389
0.00610122
0.00579006
0.00611258
0.00580091
0.00088164
0.000808689
0.00088293
0.000809963
0.00515418
0.00485951
0.00516519
0.00487059
0.000694902
0.000616556
0.000696135
0.000617797
0.00478943
0.0047895
0.00480038
0.00480044
0.000578722
0.000578744
0.000579975
0.000579997
0.00485962
0.00515405
0.00487069
0.00516505
0.000616607
0.000694946
0.000617848
0.000696177
0.00578936
0.00609968
0.00580019
0.00611101
0.000808699
0.00088162
0.000809973
0.000882909
0.00607594
0.0057658
0.00608817
0.00577746
0.000878876
0.00080595
0.000880261
0.00080732
0.00512933
0.00483399
0.00514118
0.00484594
0.000692259
0.000613881
0.000693583
0.000615218
0.00476376
0.00476383
0.00477559
0.00477566
0.000576014
0.000576036
0.000577364
0.000577387
0.00483411
0.00512922
0.00484606
0.00514105
0.000613933
0.000692304
0.00061527
0.000693628
0.00576512
0.00607443
0.00577677
0.00608663
0.000805962
0.000878858
0.000807331
0.000880242
0.00604893
0.00573989
0.00606203
0.00575238
0.00087592
0.00080302
0.000877402
0.000804486
0.00510281
0.00480672
0.00511549
0.00481955
0.000689429
0.000611014
0.000690847
0.000612448
0.00473631
0.00473638
0.00474903
0.0047491
0.000573108
0.000573131
0.000574558
0.000574581
0.00480685
0.00510271
0.00481968
0.00511539
0.000611067
0.000689475
0.000612501
0.000690893
0.00573924
0.00604746
0.00575172
0.00606052
0.000803034
0.000875904
0.000804499
0.000877384
0.00602018
0.00571234
0.00603415
0.00572566
0.000872774
0.000799898
0.000874351
0.000801461
0.00507459
0.00477769
0.00508812
0.0047914
0.000686411
0.000607953
0.000687924
0.000609485
0.00470706
0.00470713
0.00472068
0.00472075
0.000570003
0.000570026
0.000571553
0.000571577
0.00477783
0.00507451
0.00479154
0.00508804
0.000608007
0.000686459
0.000609539
0.000687971
0.00571172
0.00601875
0.00572502
0.00603268
0.000799914
0.00087276
0.000801475
0.000874336
0.00598973
0.00568317
0.00600455
0.00569729
0.00086944
0.000796585
0.000871111
0.000798243
0.00504472
0.00474692
0.00505908
0.0047615
0.000683208
0.0006047
0.000684813
0.000606328
0.00467606
0.00467613
0.00469055
0.00469063
0.0005667
0.000566724
0.000568349
0.000568373
0.00474707
0.00504466
0.00476165
0.00505901
0.000604755
0.000683257
0.000606383
0.000684862
0.00568257
0.00598833
0.00569668
0.00600312
0.000796602
0.000869428
0.000798259
0.000871097
0.00595764
0.00565242
0.00597327
0.00566733
0.000865925
0.000793085
0.000867685
0.000794835
0.00501323
0.00471446
0.00502839
0.00472988
0.000679825
0.000601259
0.000681519
0.000602981
0.00464334
0.00464342
0.00465868
0.00465876
0.000563203
0.000563228
0.000564949
0.000564974
0.00471463
0.00501319
0.00473004
0.00502835
0.000601315
0.000679875
0.000603036
0.000681569
0.00565186
0.00595628
0.00566675
0.00597188
0.000793104
0.000865915
0.000794853
0.000867674
0.00592398
0.00562022
0.00594038
0.00563584
0.000862239
0.000789425
0.000864084
0.000791253
0.00498023
0.00468038
0.00499614
0.0046966
0.00067627
0.000597636
0.00067805
0.000599448
0.00460896
0.00460905
0.00462513
0.00462522
0.000559518
0.000559543
0.000561358
0.000561383
0.00468055
0.00498021
0.00469678
0.00499612
0.000597693
0.000676321
0.000599505
0.000678101
0.00561968
0.00592266
0.00563529
0.00593903
0.000789446
0.000862232
0.000791273
0.000864075
0.00588876
0.00558654
0.00590596
0.00560292
0.000858389
0.000785602
0.000860316
0.000787513
0.00494568
0.00464466
0.00496237
0.00466171
0.000672546
0.000593834
0.000674411
0.000595736
0.00457294
0.00457303
0.00458994
0.00459003
0.000555648
0.000555673
0.000557581
0.000557606
0.00464485
0.00494568
0.0046619
0.00496237
0.000593892
0.000672599
0.000595793
0.000674463
0.00558603
0.00588749
0.0056024
0.00590465
0.000785625
0.000858384
0.000787535
0.000860309
0.00585194
0.00555129
0.00586995
0.00556847
0.000854379
0.000781613
0.000856386
0.000783608
0.00490952
0.00460724
0.00492704
0.00462517
0.000668654
0.000589855
0.000670604
0.000591846
0.00453518
0.00453527
0.00455307
0.00455316
0.000551595
0.00055162
0.00055362
0.000553645
0.00460744
0.00490954
0.00462536
0.00492706
0.000589914
0.000668709
0.000591905
0.000670658
0.00555081
0.00585071
0.00556798
0.00586869
0.000781638
0.000854376
0.000783632
0.000856381
0.00581337
0.0055143
0.00583229
0.00553239
0.000850206
0.000777455
0.000852296
0.000779536
0.00487156
0.00456792
0.00489002
0.00458684
0.000664589
0.000585691
0.000666627
0.000587777
0.00449548
0.00449558
0.00451439
0.00451448
0.00054735
0.000547376
0.000549473
0.000549499
0.00456813
0.00487161
0.00458705
0.00489006
0.000585751
0.000664645
0.000587837
0.000666683
0.00551385
0.00581218
0.00553193
0.00583107
0.000777482
0.000850206
0.000779562
0.000852294
0.00577268
0.00547518
0.00579273
0.00549441
0.000845852
0.00077311
0.000848037
0.000775289
0.00483139
0.00452623
0.00485103
0.00454641
0.000660324
0.000581315
0.000662467
0.000583513
0.00445337
0.00445347
0.00447357
0.00447367
0.000542885
0.000542911
0.000545124
0.00054515
0.00452645
0.00483146
0.00454664
0.0048511
0.000581376
0.000660381
0.000583573
0.000662524
0.00547477
0.00577154
0.00549398
0.00579155
0.000773138
0.000845854
0.000775316
0.000848037
0.00572919
0.00543323
0.00575075
0.005454
0.000841269
0.000768525
0.000843576
0.000770833
0.00478825
0.00448136
0.00480951
0.00450327
0.000655805
0.000576668
0.000658085
0.000579011
0.00440798
0.00440808
0.00442996
0.00443006
0.000538138
0.000538164
0.000540529
0.000540555
0.0044816
0.00478834
0.00450351
0.00480959
0.00057673
0.000655863
0.000579073
0.000658143
0.00543286
0.0057281
0.00545361
0.00574963
0.000768555
0.000841273
0.000770862
0.000843579
0.00568184
0.00538728
0.0057055
0.00541024
0.000836375
0.000763607
0.000838851
0.000766095
0.00474094
0.00443205
0.00476447
0.00445638
0.000650935
0.000571644
0.000653405
0.000574193
0.004358
0.00435811
0.00438248
0.00438259
0.000532996
0.000533023
0.000535603
0.00053563
0.00443231
0.00474106
0.00445663
0.00476458
0.000571707
0.000650995
0.000574255
0.000653465
0.00538695
0.0056808
0.00540989
0.00570443
0.000763639
0.000836382
0.000766126
0.000838856
0.0056291
0.00533583
0.00565569
0.00536175
0.00083104
0.000758239
0.000833757
0.000760971
0.00468784
0.00437656
0.00471451
0.00440425
0.000645569
0.000566078
0.00064831
0.000568923
0.00430163
0.00430175
0.00432958
0.00432969
0.000527283
0.00052731
0.000530202
0.000530229
0.00437683
0.00468799
0.00440451
0.00471465
0.000566142
0.000645631
0.000568986
0.000648371
0.00533554
0.00562813
0.00536144
0.00565468
0.000758273
0.00083105
0.000761004
0.000833765
0.00556885
0.00527681
0.00559952
0.00530683
0.000825076
0.000752241
0.000828136
0.000755314
0.00462678
0.00431267
0.00465775
0.00434488
0.000639498
0.000559733
0.000642622
0.000563003
0.00423657
0.00423669
0.0042692
0.00426932
0.000520743
0.00052077
0.000524113
0.000524141
0.00431296
0.00462697
0.00434516
0.00465793
0.000559799
0.000639562
0.000563067
0.000642685
0.00527657
0.00556796
0.00530657
0.00559857
0.000752278
0.000825089
0.000755349
0.000828146
0.00549816
0.00520745
0.00553449
0.00524305
0.000818227
0.000745393
0.000821766
0.000748922
0.0045549
0.00423748
0.00459172
0.00427577
0.000632436
0.000552286
0.000636098
0.000556154
0.00416004
0.00416018
0.00419878
0.00419892
0.000513034
0.000513063
0.000517038
0.000517066
0.00423781
0.00455515
0.00427609
0.00459194
0.000552353
0.000632503
0.00055622
0.000636163
0.00520729
0.00549735
0.00524285
0.00553362
0.000745433
0.000818244
0.00074896
0.00082178
0.00541326
0.00512388
0.0054572
0.00516719
0.000810196
0.000737418
0.000814361
0.00074155
0.00446808
0.00414747
0.00451302
0.00419365
0.00062395
0.000543279
0.000628396
0.000547996
0.00406939
0.00406954
0.00411548
0.00411563
0.000503723
0.000503752
0.000508588
0.000508617
0.00414785
0.00446839
0.004194
0.0045133
0.000543349
0.000624022
0.000548065
0.000628465
0.00512381
0.00541256
0.00516708
0.00545643
0.000737464
0.000810219
0.000741593
0.00081438
0.00531265
0.00501887
0.00536405
0.00507429
0.000801019
0.00072771
0.000805681
0.000732853
0.00435984
0.00404063
0.00441646
0.00409513
0.000613066
0.000532014
0.000618904
0.000537966
0.0039652
0.00396537
0.00401751
0.00401768
0.000492376
0.000492408
0.0004983
0.00049833
0.00404106
0.00436026
0.00409554
0.00441682
0.000532089
0.000613144
0.000538039
0.000618978
0.00501893
0.0053121
0.00507428
0.00536342
0.000727763
0.00080105
0.000732902
0.000805708
0.00521895
0.00486355
0.00526114
0.00495134
0.000791726
0.00070927
0.000796541
0.000720946
0.00422977
0.00393006
0.00429526
0.00398263
0.000596696
0.000517827
0.000605892
0.000525255
0.00386168
0.00386185
0.00391045
0.00391062
0.000479228
0.000479261
0.000485924
0.000485956
0.00393052
0.00423026
0.00398309
0.00429573
0.000517905
0.000596779
0.000525332
0.000605972
0.00486376
0.00521862
0.00495148
0.00526068
0.000709332
0.000791771
0.000721003
0.000796578
0.00392395
0.00341803
0.0022998
0.00197651
0.00339394
0.00294164
0.00191197
0.00164437
0.00232193
0.00135751
0.00102375
0.000354218
0.00191645
0.00100396
0.000764527
0.000272847
0.000639566
0.00064057
0.00019268
0.000192832
0.000406775
0.000407452
0.000168843
0.000168904
0.00135939
0.00232325
0.000354831
0.00102505
0.00100557
0.00191754
0.000273131
0.000765609
0.00341892
0.00392431
0.00197744
0.00230023
0.00294237
0.00339425
0.00164514
0.00191233
0.00612946
0.0055251
0.00514764
0.00456888
0.00528194
0.00473437
0.00446062
0.00393699
0.00441155
0.00357146
0.00343502
0.00247697
0.00368383
0.00287653
0.00287189
0.0019637
0.00318261
0.00318326
0.00187905
0.00188014
0.00247916
0.00247976
0.00130944
0.00131059
0.00357277
0.00441267
0.00247859
0.00343629
0.00287772
0.00368483
0.00196509
0.00287296
0.00552578
0.00612959
0.00456969
0.0051479
0.00473498
0.00528207
0.00393768
0.00446085
0.00766049
0.00705828
0.00695199
0.00634396
0.00651294
0.00596946
0.00594943
0.00539937
0.00603448
0.00540253
0.00527337
0.00454882
0.00500282
0.0043994
0.00438807
0.00369242
0.00520428
0.00520466
0.00427845
0.00427894
0.00420719
0.00420757
0.00342347
0.00342393
0.0054034
0.00603525
0.00454989
0.00527434
0.00440025
0.00500358
0.00369343
0.00438896
0.0070586
0.00766018
0.00634448
0.00695191
0.00596984
0.00651277
0.00539987
0.00594942
0.00881008
0.0082268
0.00827477
0.00768177
0.00741051
0.00688665
0.00699477
0.00646097
0.00728167
0.00677192
0.00670048
0.00613823
0.0059961
0.00551369
0.00553543
0.00500137
0.00665029
0.00665054
0.00598568
0.005986
0.00539855
0.00539881
0.004856
0.00485631
0.00677246
0.00728201
0.00613894
0.00670105
0.00551428
0.00599657
0.00500209
0.00553606
0.0082266
0.00880911
0.00768184
0.00827414
0.00688667
0.00740986
0.00646118
0.00699437
0.00966968
0.00910334
0.00927198
0.00869771
0.0080706
0.00756364
0.00776628
0.00725147
0.00821182
0.00777095
0.00778211
0.00731131
0.00672471
0.00630874
0.00638944
0.00594485
0.00768567
0.00768581
0.00721066
0.00721086
0.00622747
0.00622766
0.00584951
0.00584973
0.00777118
0.0082117
0.0073117
0.00778222
0.00630912
0.00672487
0.00594534
0.00638976
0.00910254
0.00966796
0.00869721
0.00927062
0.00756324
0.0080694
0.00725128
0.00776535
0.0102902
0.0097362
0.0100061
0.00944646
0.00854134
0.00804625
0.00832635
0.00782593
0.00887939
0.0084787
0.00857409
0.00815562
0.00724032
0.00686234
0.00700529
0.0066106
0.00841286
0.00841291
0.00808119
0.00808128
0.00679853
0.00679865
0.0065391
0.00653926
0.00847865
0.00887882
0.00815571
0.00857374
0.00686253
0.00724017
0.00661089
0.00700529
0.00973481
0.0102877
0.00944535
0.010004
0.00804543
0.00853957
0.00782531
0.00832484
0.0107176
0.0101718
0.0105244
0.00997487
0.00886244
0.00837481
0.00871757
0.00822662
0.00933704
0.00896051
0.00913019
0.00874277
0.00758945
0.00723405
0.00743208
0.00706655
0.00890599
0.00890596
0.00868303
0.00868304
0.00718037
0.00718043
0.0070082
0.00700829
0.00896022
0.00933607
0.0087426
0.00912942
0.00723408
0.00758904
0.00706666
0.0074318
0.0101699
0.0107144
0.0099732
0.0105215
0.00837361
0.00886017
0.0082256
0.00871552
0.0109956
0.0104552
0.0108717
0.0103289
0.00906913
0.00858612
0.0089772
0.00849213
0.00963409
0.00927225
0.00950159
0.00913298
0.00781332
0.00747155
0.0077137
0.00736568
0.00922463
0.00922454
0.00908202
0.00908196
0.0074241
0.00742413
0.00731522
0.00731527
0.00927176
0.00963281
0.00913259
0.00950046
0.00747146
0.0078127
0.00736565
0.00771318
0.0104529
0.0109919
0.0103267
0.0108682
0.00858463
0.00906646
0.00849078
0.00897469
0.0111641
0.010627
0.0110903
0.0105517
0.00919277
0.0087125
0.00913869
0.0086572
0.00981411
0.00946106
0.00973501
0.00937777
0.00794712
0.00761345
0.00788846
0.00755096
0.00941771
0.00941757
0.00933224
0.00933212
0.00756991
0.00756991
0.00750542
0.00750544
0.00946044
0.00981261
0.00937722
0.00973362
0.00761328
0.00794635
0.00755084
0.00788777
0.0106244
0.0111601
0.0105492
0.0110864
0.0087108
0.00918981
0.00865559
0.00913583
0.0112568
0.0107217
0.0112171
0.010681
0.00925948
0.00878076
0.00923095
0.00875153
0.00991349
0.00956552
0.00987063
0.00952009
0.00801954
0.00769053
0.00798837
0.00765703
0.00952476
0.00952459
0.00947787
0.00947772
0.00764939
0.00764938
0.00761455
0.00761455
0.00956483
0.00991185
0.00951944
0.00986906
0.00769031
0.00801869
0.00765684
0.00798756
0.0107188
0.0112525
0.0106783
0.0112128
0.00877894
0.00925635
0.00874975
0.00922786
0.0112994
0.0107657
0.0112821
0.0107476
0.0092889
0.00881127
0.00927706
0.00879878
0.00996024
0.00961505
0.00994068
0.00959392
0.00805236
0.00772586
0.00803865
0.00771076
0.0095758
0.00957562
0.00955366
0.00955349
0.00768617
0.00768615
0.00767013
0.00767012
0.00961432
0.00995854
0.0095932
0.00993901
0.00772562
0.00805147
0.00771053
0.00803778
0.0107627
0.0112949
0.0107447
0.0112777
0.00880938
0.00928568
0.00879691
0.00927384
0.0113114
0.0107782
0.0113069
0.0107734
0.00929581
0.00881849
0.00929329
0.00881571
0.00997384
0.00962996
0.00996876
0.00962426
0.00806046
0.00773513
0.00805742
0.00773158
0.00959146
0.00959127
0.00958522
0.00958504
0.00769615
0.00769613
0.00769214
0.00769212
0.00962921
0.0099721
0.00962352
0.00996704
0.00773489
0.00805956
0.00773134
0.00805653
0.0107752
0.0113068
0.0107704
0.0113023
0.00881658
0.00929255
0.0088138
0.00929001
0.0113045
0.010772
0.0113087
0.0107759
0.00928867
0.00881185
0.0092926
0.00881556
0.00996867
0.00962551
0.00997203
0.00962829
0.00805452
0.00772982
0.00805787
0.00773268
0.00958737
0.00958719
0.00958974
0.00958956
0.00769126
0.00769124
0.00769372
0.0076937
0.00962475
0.00996693
0.00962754
0.00997029
0.00772958
0.00805362
0.00773244
0.00805698
0.010769
0.0112999
0.0107729
0.0113041
0.00880993
0.00928541
0.00881364
0.0092893
0.0112865
0.0107546
0.0112955
0.0107632
0.00927349
0.00879704
0.00928091
0.00880422
0.00995164
0.00960856
0.00995984
0.00961633
0.00803991
0.00771526
0.00804682
0.00772181
0.00957049
0.0095703
0.00957789
0.00957771
0.0076768
0.00767679
0.007683
0.00768298
0.00960782
0.00994991
0.00961558
0.00995811
0.00771503
0.00803903
0.00772157
0.00804593
0.0107517
0.011282
0.0107602
0.0112909
0.00879515
0.00927024
0.00880231
0.00927761
0.0112619
0.0107306
0.0112738
0.0107421
0.00925331
0.00877728
0.00926296
0.00878667
0.00992779
0.00958457
0.00993901
0.00959545
0.00802023
0.00769543
0.00802939
0.00770432
0.00954641
0.00954623
0.00955699
0.00955681
0.00765695
0.00765694
0.00766555
0.00766553
0.00958383
0.00992609
0.00959472
0.0099373
0.00769521
0.00801936
0.0077041
0.00802852
0.0107276
0.0112574
0.0107392
0.0112693
0.00877541
0.00925009
0.00878479
0.00925969
0.0112328
0.010702
0.0112468
0.0107157
0.00922966
0.00875411
0.00924092
0.00876508
0.00989935
0.00955584
0.00991268
0.0095689
0.00799706
0.00767198
0.00800783
0.00768254
0.00951751
0.00951733
0.0095303
0.00953013
0.00763339
0.00763338
0.00764369
0.00764368
0.00955512
0.00989768
0.00956818
0.009911
0.00767177
0.00799621
0.00768233
0.00800698
0.0106991
0.0112283
0.0107127
0.0112423
0.00875227
0.00922648
0.00876323
0.00923769
0.0112001
0.01067
0.0112158
0.0106853
0.00920322
0.00872821
0.00921582
0.00874049
0.00986738
0.00952347
0.0098824
0.00953826
0.00797112
0.00764567
0.00798322
0.0076576
0.0094849
0.00948473
0.00949946
0.00949929
0.00760692
0.00760692
0.00761862
0.00761861
0.00952277
0.00986574
0.00953756
0.00988075
0.00764547
0.0079703
0.0076574
0.0079824
0.0106672
0.0111957
0.0106824
0.0112113
0.00872641
0.00920009
0.00873867
0.00921264
0.0111642
0.0106349
0.0111815
0.0106517
0.00917424
0.00869986
0.0091881
0.00871336
0.00983229
0.0094879
0.00984884
0.00950426
0.0079427
0.0076168
0.00795603
0.00762999
0.00944904
0.00944888
0.0094652
0.00946504
0.00757785
0.00757785
0.00759082
0.00759082
0.00948722
0.00983069
0.00950358
0.00984723
0.00761662
0.00794191
0.0076298
0.00795523
0.0106321
0.0111599
0.0106489
0.0111771
0.00869809
0.00917116
0.00871157
0.00918497
0.0111254
0.0105968
0.0111441
0.0106151
0.00914281
0.00866911
0.0091579
0.00868381
0.00979422
0.00944927
0.00981226
0.00946717
0.00791187
0.00758545
0.0079264
0.00759988
0.00941009
0.00940994
0.00942779
0.00942764
0.00754626
0.00754627
0.00756049
0.0075605
0.00944862
0.00979266
0.00946651
0.00981069
0.00758529
0.0079111
0.00759971
0.00792563
0.0105941
0.0111211
0.0106124
0.0111398
0.00866739
0.00913978
0.00868206
0.00915482
0.0110835
0.0105558
0.0111038
0.0105756
0.00910889
0.00863596
0.00912524
0.00865187
0.00975315
0.00940757
0.0097727
0.00942701
0.00787859
0.0075516
0.00789436
0.00756729
0.00936802
0.00936787
0.00938729
0.00938714
0.00751213
0.00751214
0.00752764
0.00752765
0.00940694
0.00975162
0.00942638
0.00977117
0.00755145
0.00787785
0.00756714
0.00789361
0.0105531
0.0110793
0.0105729
0.0110995
0.00863428
0.00910592
0.00865017
0.00912221
0.0110385
0.0105117
0.0110603
0.0105331
0.00907242
0.00860033
0.00909006
0.00861749
0.009709
0.00936272
0.00973011
0.00938375
0.0078428
0.00751517
0.00785984
0.00753216
0.00932275
0.00932261
0.00934364
0.0093435
0.00747539
0.0074754
0.00749222
0.00749223
0.00936212
0.00970753
0.00938314
0.00972862
0.00751504
0.0078421
0.00753202
0.00785913
0.0105091
0.0110344
0.0105304
0.0110562
0.00859869
0.00906951
0.00861583
0.00908708
0.0109903
0.0104646
0.0110138
0.0104875
0.00903334
0.00856217
0.0090523
0.00858061
0.00966171
0.00931465
0.00968441
0.00933731
0.00780445
0.0074761
0.00782278
0.00749442
0.00927422
0.00927409
0.00929675
0.00929662
0.00743597
0.007436
0.00745415
0.00745417
0.00931407
0.00966028
0.00933672
0.00968296
0.00747599
0.00780378
0.00749431
0.0078221
0.010462
0.0109863
0.0104849
0.0110097
0.00856058
0.00903049
0.00857899
0.00904938
0.0109389
0.0104142
0.010964
0.0104387
0.00899163
0.00852143
0.00901191
0.00854117
0.00961123
0.00926329
0.00963553
0.00928761
0.00776348
0.00743436
0.00778313
0.00745403
0.00922236
0.00922224
0.00924657
0.00924645
0.00739385
0.00739388
0.00741339
0.00741342
0.00926274
0.00960984
0.00928705
0.00963413
0.00743426
0.00776285
0.00745393
0.00778248
0.0104118
0.010935
0.0104362
0.01096
0.00851989
0.00898884
0.0085396
0.00900905
0.0108842
0.0103607
0.010911
0.0103868
0.00894726
0.00847812
0.00896887
0.00849915
0.00955752
0.00920863
0.00958344
0.00923461
0.00771989
0.00738992
0.00774086
0.00741094
0.00916715
0.00916704
0.00919305
0.00919294
0.007349
0.00734903
0.00736991
0.00736994
0.00920811
0.00955619
0.00923408
0.0095821
0.00738984
0.00771929
0.00741086
0.00774025
0.0103583
0.0108804
0.0103844
0.0109071
0.00847663
0.00894453
0.00849764
0.00896608
0.0108263
0.0103041
0.0108547
0.0103317
0.00890026
0.00843224
0.00892319
0.00845456
0.0095006
0.00915067
0.00952814
0.00917831
0.0076737
0.0073428
0.00769597
0.00736517
0.0091086
0.0091085
0.00913618
0.00913608
0.00730144
0.00730148
0.00732371
0.00732375
0.00915018
0.00949932
0.00917781
0.00952684
0.00734275
0.00767313
0.00736511
0.00769539
0.0103017
0.0108226
0.0103294
0.0108509
0.00843081
0.00889761
0.0084531
0.00892047
0.0107653
0.0102442
0.0107952
0.0102735
0.00885071
0.00838386
0.00887491
0.00840743
0.00944051
0.00908945
0.00946964
0.00911872
0.00762494
0.00729306
0.00764849
0.00731674
0.00904674
0.00904664
0.00907598
0.00907588
0.00725122
0.00725127
0.00727482
0.00727487
0.00908899
0.00943928
0.00911825
0.00946839
0.00729303
0.00762442
0.0073167
0.00764795
0.010242
0.0107617
0.0102712
0.0107915
0.00838248
0.00884813
0.00840602
0.00887227
0.0107011
0.0101814
0.0107326
0.0102121
0.00879869
0.00833309
0.00882413
0.00835785
0.00937728
0.00902497
0.00940798
0.00905588
0.00757372
0.00724074
0.0075985
0.00726571
0.00898155
0.00898147
0.00901247
0.00901238
0.00719837
0.00719842
0.00722329
0.00722335
0.00902454
0.00937611
0.00905544
0.00940679
0.00724073
0.00757324
0.0072657
0.00759801
0.0101792