/*--------------------------------*- C++ -*----------------------------------*\
  =========                 |
  \\      /  F ield         | OpenFOAM: The Open Source CFD Toolbox
   \\    /   O peration     | Website:  https://openfoam.org
    \\  /    A nd           | Version:  9
     \\/     M anipulation  |
\*---------------------------------------------------------------------------*/
FoamFile
{
    format      ascii;
    class       surfaceScalarField;
    location    "0.4";
    object      phi;
}
// * * * * * * * * * * * * * * * * * * * * * * * * * * * * * * * * * * * * * //

dimensions      [0 3 -1 0 0 0 0];

internalField   nonuniform List<scalar> 
104044
(
-2.82716e-11
-3.86356e-05
-2.56543e-09
3.86298e-05
8.44341e-09
-3.86358e-05
-2.54072e-09
-9.5974e-13
3.86299e-05
8.41103e-09
3.0316e-11
-3.71127e-09
9.63911e-09
-3.74731e-09
1.64515e-12
9.66658e-09
-1.9337e-11
-1.37156e-05
1.3713e-05
-1.37156e-05
-1.64221e-12
1.37131e-05
2.87416e-11
1.97947e-12
3.20848e-14
-3.86359e-05
-2.53467e-09
3.863e-05
8.40324e-09
-3.8636e-05
-2.53418e-09
-5.17225e-14
3.86301e-05
8.40182e-09
-3.11981e-13
-3.75152e-09
9.67738e-09
-3.75238e-09
-1.22886e-13
9.67993e-09
-2.29204e-13
-1.37157e-05
1.37131e-05
-1.37157e-05
-7.5964e-14
1.37132e-05
-1.83759e-13
-7.7838e-14
1.31019e-13
-3.86361e-05
-2.53453e-09
3.86302e-05
8.40278e-09
-3.86361e-05
-2.53553e-09
3.10524e-13
3.86302e-05
8.40576e-09
1.5618e-13
-3.75305e-09
9.68187e-09
-3.75446e-09
4.1869e-13
9.68537e-09
1.73302e-13
-1.37157e-05
1.37132e-05
-1.37157e-05
3.68931e-13
1.37132e-05
1.80819e-13
4.28176e-13
1.70093e-13
-3.8636e-05
-2.53704e-09
3.86301e-05
8.41047e-09
-3.86359e-05
-2.53909e-09
1.16327e-12
3.863e-05
8.41664e-09
5.78204e-13
-3.75648e-09
9.69012e-09
-3.75787e-09
-1.426e-12
9.69316e-09
4.40182e-13
-1.37157e-05
1.37132e-05
-1.37157e-05
1.85431e-12
1.37131e-05
4.68344e-13
-1.75471e-12
2.83442e-11
-3.86358e-05
-2.5464e-09
3.86299e-05
8.42787e-09
-3.86357e-05
-2.57173e-09
3.86298e-05
8.46218e-09
-3.02952e-11
-3.75537e-09
9.68651e-09
-3.7201e-09
9.66132e-09
1.94551e-11
-1.37157e-05
1.37131e-05
-1.37156e-05
1.3713e-05
-2.86552e-11
-6.92654e-12
-3.86235e-05
-2.69269e-09
3.86157e-05
1.0463e-08
-3.86236e-05
-2.69726e-09
-1.61725e-12
3.86158e-05
1.04631e-08
-1.05314e-11
-2.28315e-09
8.58794e-09
-2.28523e-09
3.50432e-13
8.58234e-09
-3.08197e-12
-1.37108e-05
1.37081e-05
-1.37108e-05
-2.28172e-12
1.37081e-05
-7.35057e-12
-5.78586e-13
-6.60269e-13
-3.86237e-05
-2.69552e-09
3.86159e-05
1.04634e-08
-3.86238e-05
-2.69598e-09
-4.55317e-13
3.86161e-05
1.04633e-08
4.04634e-13
-2.28657e-09
8.58361e-09
-2.28836e-09
-2.5223e-14
8.58488e-09
-8.153e-13
-1.37108e-05
1.37081e-05
-1.37109e-05
-3.55163e-13
1.37082e-05
1.40006e-14
-6.18409e-14
1.51159e-13
-3.86239e-05
-2.69635e-09
3.86161e-05
1.04639e-08
-3.86239e-05
-2.6969e-09
7.22699e-13
3.86161e-05
1.04657e-08
1.5358e-13
-2.28924e-09
8.58625e-09
-2.28998e-09
3.38659e-13
8.58864e-09
1.76238e-13
-1.37109e-05
1.37082e-05
-1.37109e-05
6.65665e-13
1.37082e-05
1.89167e-13
4.34427e-13
8.52492e-13
-3.86238e-05
-2.69755e-09
3.86161e-05
1.04687e-08
-3.86237e-05
-2.69795e-09
1.74343e-12
3.8616e-05
1.04718e-08
-1.1745e-13
-2.29051e-09
8.59183e-09
-2.28981e-09
-1.51907e-13
8.5944e-09
1.07948e-12
-1.37109e-05
1.37082e-05
-1.37108e-05
2.51141e-12
1.37081e-05
2.30315e-13
7.87155e-13
6.9574e-12
-3.86236e-05
-2.70037e-09
3.86158e-05
1.04736e-08
-3.86235e-05
-2.69611e-09
3.86158e-05
1.04746e-08
1.0597e-11
-2.28935e-09
8.59591e-09
-2.28767e-09
8.60301e-09
3.16415e-12
-1.37108e-05
1.37081e-05
-1.37108e-05
1.37081e-05
7.51208e-12
-7.54458e-12
-3.86059e-05
-4.52179e-09
3.85931e-05
1.72678e-08
-3.86059e-05
-4.52614e-09
-2.43067e-12
3.85932e-05
1.72641e-08
-7.27135e-12
-3.44327e-09
1.3315e-08
-3.44626e-09
-2.18808e-12
1.33124e-08
-8.48644e-13
-1.37046e-05
1.37001e-05
-1.37047e-05
-4.11995e-12
1.37001e-05
-2.00614e-12
-3.52478e-12
-1.88294e-12
-3.86061e-05
-4.521e-09
3.85933e-05
1.72633e-08
-3.86062e-05
-4.52062e-09
-1.08888e-12
3.85934e-05
1.72618e-08
-1.20677e-12
-3.44213e-09
1.33114e-08
-3.442e-09
-6.77524e-13
1.33103e-08
-2.49305e-12
-1.37047e-05
1.37002e-05
-1.37047e-05
-1.04533e-12
1.37002e-05
-1.6021e-12
-6.05588e-13
1.3317e-13
-3.86063e-05
-4.52071e-09
3.85935e-05
1.72613e-08
-3.86063e-05
-4.52095e-09
1.34294e-12
3.85935e-05
1.72622e-08
1.41418e-13
-3.4422e-09
1.33103e-08
-3.44257e-09
9.40167e-13
1.33116e-08
1.4529e-13
-1.37048e-05
1.37002e-05
-1.37048e-05
1.32787e-12
1.37002e-05
1.54047e-13
8.92089e-13
2.10845e-12
-3.86062e-05
-4.52131e-09
3.85934e-05
1.72644e-08
-3.86061e-05
-4.52206e-09
2.57926e-12
3.85933e-05
1.72674e-08
1.41641e-12
-3.44306e-09
1.33141e-08
-3.4438e-09
2.34046e-12
1.33174e-08
2.7445e-12
-1.37047e-05
1.37002e-05
-1.37047e-05
4.33183e-12
1.37002e-05
1.88532e-12
3.75062e-12
7.57891e-12
-3.8606e-05
-4.52752e-09
3.85932e-05
1.72692e-08
-3.86059e-05
-4.52327e-09
3.85931e-05
1.72734e-08
7.36539e-12
-3.44839e-09
1.33199e-08
-3.44561e-09
1.33233e-08
9.41319e-13
-1.37047e-05
1.37001e-05
-1.37046e-05
1.37001e-05
2.14122e-12
-9.02203e-12
-3.85774e-05
-7.00604e-09
3.85581e-05
2.63213e-08
-3.85775e-05
-7.01375e-09
-2.87909e-12
3.85582e-05
2.63158e-08
-7.96899e-12
-5.6638e-09
2.14103e-08
-5.66979e-09
-2.63927e-12
2.14059e-08
1.06836e-12
-1.36944e-05
1.36874e-05
-1.36945e-05
-5.01839e-12
1.36875e-05
2.53625e-13
-4.54704e-12
-3.12364e-12
-3.85776e-05
-7.00651e-09
3.85583e-05
2.63154e-08
-3.85777e-05
-7.00577e-09
-1.88006e-12
3.85584e-05
2.6313e-08
-2.58092e-12
-5.66368e-09
2.14054e-08
-5.66312e-09
-1.49564e-12
2.14034e-08
-3.71064e-12
-1.36945e-05
1.36875e-05
-1.36945e-05
-1.84886e-12
1.36875e-05
-3.12287e-12
-1.46521e-12
1.0746e-13
-3.85778e-05
-7.00551e-09
3.85585e-05
2.63119e-08
-3.85778e-05
-7.00557e-09
2.08802e-12
3.85585e-05
2.63121e-08
1.19436e-13
-5.663e-09
2.14026e-08
-5.66314e-09
1.72483e-12
2.14031e-08
1.1146e-13
-1.36946e-05
1.36876e-05
-1.36946e-05
2.06274e-12
1.36876e-05
1.26031e-13
1.70549e-12
3.301e-12
-3.85777e-05
-7.00595e-09
3.85584e-05
2.63138e-08
-3.85776e-05
-7.00678e-09
2.99613e-12
3.85583e-05
2.63167e-08
2.77538e-12
-5.66349e-09
2.14049e-08
-5.66426e-09
2.77242e-12
2.14078e-08
3.90525e-12
-1.36945e-05
1.36875e-05
-1.36945e-05
5.18682e-12
1.36875e-05
3.34023e-12
4.7406e-12
9.04183e-12
-3.85775e-05
-7.01412e-09
3.85582e-05
2.63174e-08
-3.85774e-05
-7.00643e-09
3.85581e-05
2.6323e-08
8.04909e-12
-5.67055e-09
2.14089e-08
-5.66461e-09
2.14136e-08
-1.00411e-12
-1.36945e-05
1.36875e-05
-1.36944e-05
1.36874e-05
-1.09576e-13
-1.14024e-11
-3.85354e-05
-9.73007e-09
3.85088e-05
3.63518e-08
-3.85355e-05
-9.7411e-09
-3.27757e-12
3.85089e-05
3.63447e-08
-9.98098e-12
-8.26343e-09
3.09322e-08
-8.27267e-09
-3.04309e-12
3.09261e-08
2.51315e-12
-1.36792e-05
1.36694e-05
-1.36792e-05
-5.80854e-12
1.36695e-05
1.85803e-12
-5.36166e-12
-3.92615e-12
-3.85356e-05
-9.73179e-09
3.8509e-05
3.63447e-08
-3.85357e-05
-9.7308e-09
-2.49053e-12
3.85091e-05
3.63418e-08
-3.51768e-12
-8.26449e-09
3.09259e-08
-8.26362e-09
-2.18125e-12
3.09233e-08
-4.63086e-12
-1.36792e-05
1.36695e-05
-1.36793e-05
-2.45647e-12
1.36695e-05
-4.15466e-12
-2.15017e-12
8.87337e-14
-3.85358e-05
-9.73036e-09
3.85092e-05
3.63403e-08
-3.85358e-05
-9.73037e-09
2.66143e-12
3.85092e-05
3.63403e-08
9.54374e-14
-8.26326e-09
3.09219e-08
-8.26328e-09
2.36664e-12
3.0922e-08
8.6505e-14
-1.36793e-05
1.36696e-05
-1.36793e-05
2.62288e-12
1.36696e-05
9.55868e-14
2.33377e-12
4.07411e-12
-3.85357e-05
-9.7308e-09
3.85091e-05
3.6342e-08
-3.85356e-05
-9.73178e-09
3.38066e-12
3.8509e-05
3.63449e-08
3.67526e-12
-8.26367e-09
3.09237e-08
-8.26456e-09
3.15335e-12
3.09265e-08
4.78472e-12
-1.36793e-05
1.36695e-05
-1.36792e-05
5.94779e-12
1.36695e-05
4.32193e-12
5.51533e-12
1.14018e-11
-3.85355e-05
-9.74112e-09
3.85089e-05
3.63449e-08
-3.85354e-05
-9.73005e-09
3.85088e-05
3.63521e-08
1.00476e-11
-8.27278e-09
3.09268e-08
-8.26353e-09
3.0933e-08
-2.46361e-12
-1.36792e-05
1.36695e-05
-1.36792e-05
1.36694e-05
-1.74302e-12
-1.42078e-11
-3.84786e-05
-1.26638e-08
3.84441e-05
4.72215e-08
-3.84787e-05
-1.26782e-08
-3.71468e-12
3.84442e-05
4.72127e-08
-1.25735e-11
-1.10568e-08
4.12572e-08
-1.10693e-08
-3.4523e-12
4.12494e-08
3.83937e-12
-1.36584e-05
1.36457e-05
-1.36584e-05
-6.60277e-12
1.36457e-05
3.19134e-12
-6.1427e-12
-4.57028e-12
-3.84788e-05
-1.26668e-08
3.84443e-05
4.72131e-08
-3.84789e-05
-1.26656e-08
-2.98052e-12
3.84444e-05
4.72099e-08
-4.21803e-12
-1.1059e-08
4.12497e-08
-1.1058e-08
-2.71855e-12
4.12467e-08
-5.4104e-12
-1.36584e-05
1.36458e-05
-1.36585e-05
-2.93934e-12
1.36458e-05
-4.98176e-12
-2.68217e-12
7.76282e-14
-3.8479e-05
-1.26651e-08
3.84445e-05
4.72081e-08
-3.8479e-05
-1.26651e-08
3.13338e-12
3.84445e-05
4.72082e-08
8.25935e-14
-1.10575e-08
4.1245e-08
-1.10575e-08
2.8774e-12
4.1245e-08
7.58327e-14
-1.36585e-05
1.36458e-05
-1.36585e-05
3.08783e-12
1.36458e-05
7.93026e-14
2.83374e-12
4.70637e-12
-3.84789e-05
-1.26656e-08
3.84444e-05
4.721e-08
-3.84788e-05
-1.26667e-08
3.80971e-12
3.84443e-05
4.72132e-08
4.35697e-12
-1.1058e-08
4.12467e-08
-1.1059e-08
3.55702e-12
4.12498e-08
5.55063e-12
-1.36585e-05
1.36458e-05
-1.36584e-05
6.73139e-12
1.36458e-05
5.12266e-12
6.27581e-12
1.41879e-11
-3.84787e-05
-1.26783e-08
3.84442e-05
4.72127e-08
-3.84786e-05
-1.26638e-08
3.84441e-05
4.72215e-08
1.26299e-11
-1.10693e-08
4.12495e-08
-1.10567e-08
4.12573e-08
-3.80362e-12
-1.36584e-05
1.36457e-05
-1.36584e-05
1.36457e-05
-3.08887e-12
-1.72583e-11
-3.84057e-05
-1.58901e-08
3.83624e-05
5.91922e-08
-3.84057e-05
-1.59082e-08
-4.16842e-12
3.83624e-05
5.91816e-08
-1.54767e-11
-1.40997e-08
5.25432e-08
-1.41158e-08
-3.89674e-12
5.25338e-08
5.29519e-12
-1.36316e-05
1.36157e-05
-1.36316e-05
-7.40073e-12
1.36157e-05
4.56115e-12
-6.93429e-12
-5.13497e-12
-3.84058e-05
-1.58944e-08
3.83626e-05
5.91825e-08
-3.8406e-05
-1.58931e-08
-3.39579e-12
3.83627e-05
5.91791e-08
-4.81184e-12
-1.41033e-08
5.25345e-08
-1.4102e-08
-3.16215e-12
5.25312e-08
-6.12701e-12
-1.36317e-05
1.36158e-05
-1.36317e-05
-3.35016e-12
1.36158e-05
-5.71825e-12
-3.11976e-12
7.47954e-14
-3.8406e-05
-1.58925e-08
3.83627e-05
5.91772e-08
-3.8406e-05
-1.58925e-08
3.53944e-12
3.83627e-05
5.91772e-08
7.65602e-14
-1.41015e-08
5.25294e-08
-1.41015e-08
3.3112e-12
5.25294e-08
7.57153e-14
-1.36317e-05
1.36158e-05
-1.36317e-05
3.4972e-12
1.36158e-05
7.54523e-14
3.26614e-12
5.26048e-12
-3.8406e-05
-1.58931e-08
3.83627e-05
5.91791e-08
-3.84058e-05
-1.58944e-08
4.25051e-12
3.83626e-05
5.91825e-08
4.94352e-12
-1.4102e-08
5.25312e-08
-1.41033e-08
3.99449e-12
5.25345e-08
6.26513e-12
-1.36317e-05
1.36158e-05
-1.36317e-05
7.52528e-12
1.36158e-05
5.85555e-12
7.06585e-12
1.7222e-11
-3.84057e-05
-1.59082e-08
3.83624e-05
5.91816e-08
-3.84057e-05
-1.58901e-08
3.83624e-05
5.91922e-08
1.55235e-11
-1.41158e-08
5.25338e-08
-1.40997e-08
5.25432e-08
-5.26702e-12
-1.36316e-05
1.36157e-05
-1.36316e-05
1.36157e-05
-4.45204e-12
-2.05723e-11
-3.83148e-05
-1.95035e-08
3.82617e-05
7.25949e-08
-3.83149e-05
-1.95258e-08
-4.61986e-12
3.82618e-05
7.25825e-08
-1.86053e-11
-1.74731e-08
6.50575e-08
-1.7493e-08
-4.34686e-12
6.50464e-08
6.99689e-12
-1.35982e-05
1.35787e-05
-1.35983e-05
-8.1636e-12
1.35787e-05
6.13454e-12
-7.70809e-12
-5.64154e-12
-3.8315e-05
-1.95095e-08
3.82619e-05
7.25839e-08
-3.83151e-05
-1.9508e-08
-3.76349e-12
3.8262e-05
7.25803e-08
-5.34204e-12
-1.74781e-08
6.50476e-08
-1.74767e-08
-3.54831e-12
6.50441e-08
-6.79807e-12
-1.35983e-05
1.35788e-05
-1.35983e-05
-3.71866e-12
1.35788e-05
-6.40616e-12
-3.50518e-12
6.85079e-14
-3.83152e-05
-1.95075e-08
3.82621e-05
7.25782e-08
-3.83152e-05
-1.95074e-08
3.89511e-12
3.82621e-05
7.25782e-08
7.1211e-14
-1.74761e-08
6.50421e-08
-1.74761e-08
3.6851e-12
6.50421e-08
6.89044e-14
-1.35984e-05
1.35788e-05
-1.35984e-05
3.85333e-12
1.35788e-05
7.11644e-14
3.64353e-12
5.75726e-12
-3.83151e-05
-1.9508e-08
3.8262e-05
7.25803e-08
-3.8315e-05
-1.95095e-08
4.70095e-12
3.82619e-05
7.25839e-08
5.46102e-12
-1.74767e-08
6.50441e-08
-1.7478e-08
4.43487e-12
6.50475e-08
6.9259e-12
-1.35983e-05
1.35788e-05
-1.35983e-05
8.28238e-12
1.35788e-05
6.53607e-12
7.83835e-12
2.05239e-11
-3.83149e-05
-1.95258e-08
3.82618e-05
7.25824e-08
-3.83148e-05
-1.95035e-08
3.82617e-05
7.25948e-08
1.86497e-11
-1.7493e-08
6.50463e-08
-1.74731e-08
6.50575e-08
-6.97314e-12
-1.35983e-05
1.35787e-05
-1.35982e-05
1.35787e-05
-6.00878e-12
-2.42075e-11
-3.82039e-05
-2.35784e-08
3.81398e-05
8.76979e-08
-3.8204e-05
-2.36053e-08
-5.06553e-12
3.81399e-05
8.76835e-08
-2.20218e-11
-2.1263e-08
7.91078e-08
-2.12871e-08
-4.79798e-12
7.90949e-08
8.98321e-12
-1.35574e-05
1.35339e-05
-1.35575e-05
-8.87714e-12
1.35339e-05
7.95364e-12
-8.43619e-12
-6.08855e-12
-3.82041e-05
-2.35862e-08
3.814e-05
8.76855e-08
-3.82042e-05
-2.35846e-08
-4.08648e-12
3.81401e-05
8.76818e-08
-5.81358e-12
-2.12696e-08
7.90966e-08
-2.12681e-08
-3.88853e-12
7.9093e-08
-7.4178e-12
-1.35575e-05
1.35339e-05
-1.35575e-05
-4.04456e-12
1.3534e-05
-7.0419e-12
-3.84749e-12
6.36283e-14
-3.82043e-05
-2.35841e-08
3.81402e-05
8.76797e-08
-3.82043e-05
-2.35841e-08
4.20823e-12
3.81402e-05
8.76797e-08
6.48682e-14
-2.12675e-08
7.90909e-08
-2.12675e-08
4.01382e-12
7.90909e-08
6.11417e-14
-1.35576e-05
1.3534e-05
-1.35576e-05
4.16376e-12
1.3534e-05
6.30035e-14
3.97006e-12
6.1961e-12
-3.82042e-05
-2.35846e-08
3.81401e-05
8.76818e-08
-3.82041e-05
-2.35862e-08
5.1433e-12
3.814e-05
8.76855e-08
5.92159e-12
-2.12681e-08
7.9093e-08
-2.12696e-08
4.87576e-12
7.90966e-08
7.53185e-12
-1.35575e-05
1.3534e-05
-1.35575e-05
8.98893e-12
1.35339e-05
7.15789e-12
8.55701e-12
2.41486e-11
-3.8204e-05
-2.36053e-08
3.81399e-05
8.76834e-08
-3.82039e-05
-2.35784e-08
3.81398e-05
8.76978e-08
2.20622e-11
-2.12871e-08
7.90948e-08
-2.12629e-08
7.91078e-08
-8.95688e-12
-1.35575e-05
1.35339e-05
-1.35575e-05
1.35339e-05
-7.83163e-12
-2.82096e-11
-3.80704e-05
-2.81751e-08
3.79939e-05
1.04723e-07
-3.80705e-05
-2.82072e-08
-5.51558e-12
3.79939e-05
1.04707e-07
-2.57827e-11
-2.55519e-08
9.49969e-08
-2.55808e-08
-5.22934e-12
9.4982e-08
1.12382e-11
-1.35083e-05
1.34801e-05
-1.35083e-05
-9.56267e-12
1.34801e-05
1.00481e-11
-9.12848e-12
-6.47568e-12
-3.80706e-05
-2.81851e-08
3.7994e-05
1.04709e-07
-3.80707e-05
-2.81834e-08
-4.36459e-12
3.79941e-05
1.04706e-07
-6.22501e-12
-2.55605e-08
9.49844e-08
-2.55588e-08
-4.18567e-12
9.49807e-08
-7.98804e-12
-1.35084e-05
1.34802e-05
-1.35084e-05
-4.32302e-12
1.34802e-05
-7.63068e-12
-4.14726e-12
6.44338e-14
-3.80707e-05
-2.81829e-08
3.79942e-05
1.04703e-07
-3.80707e-05
-2.81829e-08
4.48822e-12
3.79942e-05
1.04703e-07
6.15987e-14
-2.55583e-08
9.49785e-08
-2.55583e-08
4.30347e-12
9.49785e-08
6.37798e-14
-1.35084e-05
1.34802e-05
-1.35084e-05
4.44781e-12
1.34802e-05
5.94758e-14
4.26265e-12
6.58953e-12
-3.80707e-05
-2.81834e-08
3.79942e-05
1.04706e-07
-3.80706e-05
-2.81851e-08
5.62115e-12
3.7994e-05
1.04709e-07
6.32445e-12
-2.55588e-08
9.49807e-08
-2.55604e-08
5.29161e-12
9.49843e-08
8.10551e-12
-1.35084e-05
1.34802e-05
-1.35084e-05
9.66906e-12
1.34802e-05
7.7392e-12
9.24178e-12
2.81545e-11
-3.80705e-05
-2.82072e-08
3.79939e-05
1.04707e-07
-3.80704e-05
-2.81751e-08
3.79939e-05
1.04723e-07
2.58228e-11
-2.55808e-08
9.49819e-08
-2.55518e-08
9.49968e-08
-1.12155e-11
-1.35083e-05
1.34801e-05
-1.35083e-05
1.34801e-05
-9.93387e-12
-3.26307e-11
-3.79114e-05
-3.33776e-08
3.78208e-05
1.23983e-07
-3.79114e-05
-3.34155e-08
-5.78237e-12
3.78208e-05
1.23963e-07
-2.99518e-11
-3.04e-08
1.12947e-07
-3.04344e-08
-5.62583e-12
1.1293e-07
1.38114e-11
-1.34497e-05
1.34163e-05
-1.34497e-05
-1.0234e-11
1.34163e-05
1.24506e-11
-9.79844e-12
-6.76567e-12
-3.79115e-05
-3.339e-08
3.78209e-05
1.23967e-07
-3.79116e-05
-3.33882e-08
-4.59965e-12
3.7821e-05
1.23963e-07
-6.56588e-12
-3.04109e-08
1.12933e-07
-3.04091e-08
-4.43974e-12
1.12929e-07
-8.5095e-12
-1.34498e-05
1.34164e-05
-1.34498e-05
-4.55941e-12
1.34164e-05
-8.17339e-12
-4.40176e-12
7.15178e-14
-3.79117e-05
-3.33877e-08
3.78211e-05
1.23961e-07
-3.79117e-05
-3.33877e-08
4.73711e-12
3.78211e-05
1.23961e-07
6.68045e-14
-3.04086e-08
1.12927e-07
-3.04086e-08
4.5694e-12
1.12927e-07
7.5108e-14
-1.34498e-05
1.34164e-05
-1.34498e-05
4.7063e-12
1.34164e-05
6.83518e-14
4.5349e-12
6.89378e-12
-3.79116e-05
-3.33882e-08
3.78211e-05
1.23963e-07
-3.79115e-05
-3.339e-08
5.89922e-12
3.78209e-05
1.23967e-07
6.68372e-12
-3.04091e-08
1.12929e-07
-3.04109e-08
5.72585e-12
1.12933e-07
8.64731e-12
-1.34498e-05
1.34164e-05
-1.34498e-05
1.03506e-11
1.34164e-05
8.29729e-12
9.92192e-12
3.25644e-11
-3.79114e-05
-3.34155e-08
3.78208e-05
1.23964e-07
-3.79114e-05
-3.33775e-08
3.78208e-05
1.23983e-07
3.00048e-11
-3.04344e-08
1.1293e-07
-3.04e-08
1.12947e-07
-1.38004e-11
-1.34497e-05
1.34163e-05
-1.34497e-05
1.34163e-05
-1.23175e-11
-3.74137e-11
-3.77235e-05
-3.9222e-08
3.76172e-05
1.45611e-07
-3.77235e-05
-3.92665e-08
-5.95998e-12
3.76172e-05
1.45589e-07
-3.4519e-11
-3.58706e-08
1.33193e-07
-3.5911e-08
-5.84051e-12
1.33174e-07
1.682e-11
-1.33804e-05
1.33412e-05
-1.33805e-05
-1.08328e-11
1.33412e-05
1.52238e-11
-1.04279e-11
-6.99299e-12
-3.77236e-05
-3.92373e-08
3.76173e-05
1.45594e-07
-3.77238e-05
-3.92354e-08
-4.80935e-12
3.76174e-05
1.4559e-07
-6.82146e-12
-3.5884e-08
1.33178e-07
-3.58821e-08
-4.65922e-12
1.33174e-07
-8.98597e-12
-1.33805e-05
1.33412e-05
-1.33805e-05
-4.77429e-12
1.33413e-05
-8.66824e-12
-4.62451e-12
6.82703e-14
-3.77238e-05
-3.9235e-08
3.76175e-05
1.45588e-07
-3.77238e-05
-3.9235e-08
4.94115e-12
3.76175e-05
1.45588e-07
6.97145e-14
-3.58817e-08
1.33172e-07
-3.58817e-08
4.79526e-12
1.33172e-07
6.8859e-14
-1.33805e-05
1.33413e-05
-1.33805e-05
4.91099e-12
1.33413e-05
7.23618e-14
4.76652e-12
7.11599e-12
-3.77238e-05
-3.92354e-08
3.76174e-05
1.4559e-07
-3.77237e-05
-3.92373e-08
6.07703e-12
3.76173e-05
1.45594e-07
6.94286e-12
-3.58821e-08
1.33174e-07
-3.5884e-08
5.93636e-12
1.33178e-07
9.11668e-12
-1.33805e-05
1.33413e-05
-1.33805e-05
1.09474e-11
1.33413e-05
8.8019e-12
1.05669e-11
3.73572e-11
-3.77236e-05
-3.92665e-08
3.76172e-05
1.45589e-07
-3.77235e-05
-3.9222e-08
3.76172e-05
1.45611e-07
3.45687e-11
-3.5911e-08
1.33174e-07
-3.58706e-08
1.33193e-07
-1.68056e-11
-1.33805e-05
1.33412e-05
-1.33804e-05
1.33412e-05
-1.50773e-11
-4.26457e-11
-3.75033e-05
-4.58064e-08
3.73792e-05
1.69977e-07
-3.75034e-05
-4.58583e-08
-6.09166e-12
3.73792e-05
1.69952e-07
-3.94598e-11
-4.20015e-08
1.55878e-07
-4.20488e-08
-5.99455e-12
1.55856e-07
2.03044e-11
-1.32992e-05
1.32533e-05
-1.32992e-05
-1.13721e-11
1.32534e-05
1.84057e-11
-1.09907e-11
-7.17794e-12
-3.75035e-05
-4.5825e-08
3.73793e-05
1.69958e-07
-3.75036e-05
-4.5823e-08
-5.00518e-12
3.73794e-05
1.69954e-07
-7.02254e-12
-4.20179e-08
1.55861e-07
-4.20159e-08
-4.85829e-12
1.55857e-07
-9.43737e-12
-1.32992e-05
1.32534e-05
-1.32993e-05
-4.9774e-12
1.32534e-05
-9.12307e-12
-4.82986e-12
5.77237e-14
-3.75036e-05
-4.58227e-08
3.73795e-05
1.69952e-07
-3.75036e-05
-4.58227e-08
5.11683e-12
3.73795e-05
1.69952e-07
6.17396e-14
-4.20156e-08
1.55855e-07
-4.20156e-08
4.97798e-12
1.55855e-07
5.2681e-14
-1.32993e-05
1.32535e-05
-1.32993e-05
5.08247e-12
1.32535e-05
5.9801e-14
4.94653e-12
7.28558e-12
-3.75036e-05
-4.5823e-08
3.73794e-05
1.69954e-07
-3.75035e-05
-4.5825e-08
6.20987e-12
3.73793e-05
1.69958e-07
7.12992e-12
-4.20159e-08
1.55857e-07
-4.20179e-08
6.08179e-12
1.55861e-07
9.53876e-12
-1.32993e-05
1.32534e-05
-1.32992e-05
1.14652e-11
1.32534e-05
9.23318e-12
1.11037e-11
4.26185e-11
-3.75034e-05
-4.58583e-08
3.73792e-05
1.69952e-07
-3.75033e-05
-4.58064e-08
3.73792e-05
1.69977e-07
3.95145e-11
-4.20488e-08
1.55856e-07
-4.20015e-08
1.55878e-07
-2.02733e-11
-1.32992e-05
1.32534e-05
-1.32992e-05
1.32533e-05
-1.82899e-11
-4.83433e-11
-3.72468e-05
-5.31104e-08
3.71029e-05
1.97009e-07
-3.72468e-05
-5.31704e-08
-6.18651e-12
3.7103e-05
1.96981e-07
-4.4878e-11
-4.88745e-08
1.81309e-07
-4.89293e-08
-6.11363e-12
1.81284e-07
2.41745e-11
-1.32044e-05
1.31513e-05
-1.32045e-05
-1.18381e-11
1.31513e-05
2.20202e-11
-1.14955e-11
-7.29669e-12
-3.72469e-05
-5.31328e-08
3.71031e-05
1.96989e-07
-3.7247e-05
-5.31306e-08
-5.16231e-12
3.71032e-05
1.96985e-07
-7.17644e-12
-4.88942e-08
1.81291e-07
-4.88921e-08
-5.03459e-12
1.81287e-07
-9.82965e-12
-1.32045e-05
1.31514e-05
-1.32045e-05
-5.13855e-12
1.31514e-05
-9.54315e-12
-5.01168e-12
5.35516e-14
-3.72471e-05
-5.31304e-08
3.71032e-05
1.96982e-07
-3.72471e-05
-5.31304e-08
5.26682e-12
3.71032e-05
1.96982e-07
5.56173e-14
-4.88919e-08
1.81285e-07
-4.88919e-08
5.14156e-12
1.81285e-07
4.77893e-14
-1.32046e-05
1.31514e-05
-1.32046e-05
5.23418e-12
1.31514e-05
4.92299e-14
5.10793e-12
7.3988e-12
-3.7247e-05
-5.31306e-08
3.71032e-05
1.96985e-07
-3.72469e-05
-5.31328e-08
6.30042e-12
3.71031e-05
1.96989e-07
7.27286e-12
-4.88921e-08
1.81287e-07
-4.88942e-08
6.19261e-12
1.81291e-07
9.92178e-12
-1.32045e-05
1.31514e-05
-1.32045e-05
1.19232e-11
1.31514e-05
9.63206e-12
1.15832e-11
4.83148e-11
-3.72468e-05
-5.31704e-08
3.7103e-05
1.96981e-07
-3.72468e-05
-5.31104e-08
3.7103e-05
1.97009e-07
4.49325e-11
-4.89293e-08
1.81284e-07
-4.88745e-08
1.8131e-07
-2.41391e-11
-1.32045e-05
1.31513e-05
-1.32044e-05
1.31513e-05
-2.19322e-11
-5.45311e-11
-3.695e-05
-6.12201e-08
3.67842e-05
2.27038e-07
-3.695e-05
-6.1289e-08
-6.22114e-12
3.67843e-05
2.27007e-07
-5.07519e-11
-5.64891e-08
2.09493e-07
-5.65522e-08
-6.18031e-12
2.09465e-07
2.8476e-11
-1.30948e-05
1.30335e-05
-1.30948e-05
-1.2204e-11
1.30336e-05
2.6058e-11
-1.19049e-11
-7.33648e-12
-3.69501e-05
-6.12467e-08
3.67843e-05
2.27015e-07
-3.69502e-05
-6.12443e-08
-5.27904e-12
3.67844e-05
2.27011e-07
-7.25411e-12
-5.65127e-08
2.09473e-07
-5.65104e-08
-5.16852e-12
2.09469e-07
-1.01438e-11
-1.30949e-05
1.30336e-05
-1.30949e-05
-5.25235e-12
1.30336e-05
-9.89273e-12
-5.14681e-12
4.91016e-14
-3.69503e-05
-6.12442e-08
3.67845e-05
2.27009e-07
-3.69503e-05
-6.12442e-08
5.37544e-12
3.67845e-05
2.27009e-07
5.30351e-14
-5.65103e-08
2.09467e-07
-5.65103e-08
5.27007e-12
2.09467e-07
4.70928e-14
-1.30949e-05
1.30337e-05
-1.30949e-05
5.34768e-12
1.30337e-05
4.79444e-14
5.24144e-12
7.43024e-12
-3.69502e-05
-6.12443e-08
3.67844e-05
2.27011e-07
-3.69501e-05
-6.12467e-08
6.32788e-12
3.67843e-05
2.27015e-07
7.34515e-12
-5.65104e-08
2.09469e-07
-5.65126e-08
6.25048e-12
2.09473e-07
1.02377e-11
-1.30949e-05
1.30336e-05
-1.30949e-05
1.22891e-11
1.30336e-05
9.98055e-12
1.19973e-11
5.45019e-11
-3.695e-05
-6.1289e-08
3.67843e-05
2.27007e-07
-3.695e-05
-6.12201e-08
3.67842e-05
2.27038e-07
5.08021e-11
-5.65522e-08
2.09465e-07
-5.64891e-08
2.09493e-07
-2.84499e-11
-1.30948e-05
1.30336e-05
-1.30948e-05
1.30335e-05
-2.59677e-11
-6.11717e-11
-3.66085e-05
-7.01121e-08
3.64187e-05
2.59986e-07
-3.66085e-05
-7.01907e-08
-6.18563e-12
3.64187e-05
2.59951e-07
-5.71084e-11
-6.49178e-08
2.40709e-07
-6.499e-08
-6.18312e-12
2.40678e-07
3.31928e-11
-1.29686e-05
1.28985e-05
-1.29686e-05
-1.24197e-11
1.28985e-05
3.05442e-11
-1.21978e-11
-7.30185e-12
-3.66086e-05
-7.01433e-08
3.64188e-05
2.59961e-07
-3.66087e-05
-7.01408e-08
-5.36416e-12
3.64189e-05
2.59957e-07
-7.25384e-12
-6.49456e-08
2.40687e-07
-6.49432e-08
-5.26792e-12
2.40683e-07
-1.03799e-11
-1.29687e-05
1.28985e-05
-1.29687e-05
-5.33316e-12
1.28985e-05
-1.01636e-11
-5.24139e-12
4.40225e-14
-3.66088e-05
-7.01408e-08
3.64189e-05
2.59955e-07
-3.66088e-05
-7.01408e-08
5.45195e-12
3.64189e-05
2.59955e-07
4.45012e-14
-6.49432e-08
2.40681e-07
-6.49432e-08
5.35759e-12
2.40681e-07
4.56949e-14
-1.29687e-05
1.28986e-05
-1.29687e-05
5.42788e-12
1.28986e-05
4.58379e-14
5.33337e-12
7.38851e-12
-3.66087e-05
-7.01408e-08
3.64189e-05
2.59957e-07
-3.66086e-05
-7.01433e-08
6.29224e-12
3.64188e-05
2.59961e-07
7.33654e-12
-6.49432e-08
2.40683e-07
-6.49456e-08
6.2464e-12
2.40687e-07
1.04783e-11
-1.29687e-05
1.28985e-05
-1.29687e-05
1.25173e-11
1.28985e-05
1.02523e-11
1.22957e-11
6.11457e-11
-3.66085e-05
-7.01907e-08
3.64187e-05
2.59951e-07
-3.66085e-05
-7.01121e-08
3.64187e-05
2.59986e-07
5.71617e-11
-6.499e-08
2.40678e-07
-6.49178e-08
2.40709e-07
-3.31818e-11
-1.29686e-05
1.28985e-05
-1.29686e-05
1.28985e-05
-3.04576e-11
-6.83329e-11
-3.6218e-05
-7.98477e-08
3.60018e-05
2.96097e-07
-3.6218e-05
-7.99369e-08
-6.07632e-12
3.60018e-05
2.96059e-07
-6.39643e-11
-7.4155e-08
2.74949e-07
-7.42371e-08
-6.11174e-12
2.74914e-07
3.82762e-11
-1.28243e-05
1.27444e-05
-1.28243e-05
-1.28426e-11
1.27444e-05
3.54127e-11
-1.24127e-11
-7.23917e-12
-3.62181e-05
-7.98838e-08
3.60019e-05
2.96071e-07
-3.62181e-05
-7.98812e-08
-5.44602e-12
3.6002e-05
2.96067e-07
-7.19896e-12
-7.41874e-08
2.74925e-07
-7.41849e-08
-5.34918e-12
2.74921e-07
-1.06955e-11
-1.28243e-05
1.27444e-05
-1.28244e-05
-5.42547e-12
1.27445e-05
-1.04147e-11
-5.3285e-12
3.98132e-14
-3.62182e-05
-7.98814e-08
3.6002e-05
2.96064e-07
-3.62182e-05
-7.98814e-08
5.52711e-12
3.6002e-05
2.96064e-07
4.13036e-14
-7.4185e-08
2.74919e-07
-7.4185e-08
5.43371e-12
2.74919e-07
4.25732e-14
-1.28244e-05
1.27445e-05
-1.28244e-05
5.51243e-12
1.27445e-05
4.38923e-14
5.41668e-12
7.32154e-12
-3.62181e-05
-7.98812e-08
3.6002e-05
2.96067e-07
-3.62181e-05
-7.98838e-08
6.18353e-12
3.60019e-05
2.96071e-07
7.28074e-12
-7.41849e-08
2.74921e-07
-7.41875e-08
6.18205e-12
2.74925e-07
1.07856e-11
-1.28244e-05
1.27445e-05
-1.28243e-05
1.29236e-11
1.27444e-05
1.04933e-11
1.24714e-11
6.83025e-11
-3.6218e-05
-7.99369e-08
3.60018e-05
2.96059e-07
-3.6218e-05
-7.98477e-08
3.60018e-05
2.96098e-07
6.40118e-11
-7.42371e-08
2.74914e-07
-7.4155e-08
2.7495e-07
-3.82879e-11
-1.28243e-05
1.27444e-05
-1.28243e-05
1.27444e-05
-3.53409e-11
-7.58548e-11
-3.57739e-05
-9.035e-08
3.55292e-05
3.35102e-07
-3.57739e-05
-9.04507e-08
-5.9053e-12
3.55292e-05
3.35059e-07
-7.12332e-11
-8.41645e-08
3.12093e-07
-8.42573e-08
-5.96962e-12
3.12054e-07
4.37581e-11
-1.26602e-05
1.25698e-05
-1.26602e-05
-1.34791e-11
1.25698e-05
4.06238e-11
-1.30414e-11
-7.14714e-12
-3.5774e-05
-9.03912e-08
3.55293e-05
3.35073e-07
-3.57741e-05
-9.03886e-08
-5.51931e-12
3.55294e-05
3.35069e-07
-7.12506e-12
-8.42017e-08
3.12067e-07
-8.41991e-08
-5.42764e-12
3.12063e-07
-1.10579e-11
-1.26602e-05
1.25698e-05
-1.26603e-05
-5.50245e-12
1.25699e-05
-1.07757e-11
-5.41489e-12
2.93124e-14
-3.57741e-05
-9.0389e-08
3.55295e-05
3.35067e-07
-3.57741e-05
-9.0389e-08
5.58078e-12
3.55295e-05
3.35067e-07
3.52484e-14
-8.41994e-08
3.12061e-07
-8.41994e-08
5.4977e-12
3.12061e-07
3.1962e-14
-1.26603e-05
1.25699e-05
-1.26603e-05
5.56908e-12
1.25699e-05
3.45068e-14
5.48677e-12
7.21004e-12
-3.57741e-05
-9.03886e-08
3.55294e-05
3.35069e-07
-3.5774e-05
-9.03912e-08
5.99622e-12
3.55293e-05
3.35073e-07
7.1933e-12
-8.41991e-08
3.12063e-07
-8.42017e-08
6.02676e-12
3.12067e-07
1.11295e-11
-1.26603e-05
1.25699e-05
-1.26602e-05
1.35425e-11
1.25698e-05
1.08404e-11
1.30948e-11
7.58412e-11
-3.57739e-05
-9.04507e-08
3.55292e-05
3.3506e-07
-3.57739e-05
-9.035e-08
3.55292e-05
3.35102e-07
7.12787e-11
-8.42574e-08
3.12054e-07
-8.41645e-08
3.12094e-07
-4.37727e-11
-1.26602e-05
1.25698e-05
-1.26602e-05
1.25698e-05
-4.05684e-11
-8.38164e-11
-3.5272e-05
-1.01646e-07
3.49966e-05
3.77123e-07
-3.5272e-05
-1.01759e-07
-5.67652e-12
3.49966e-05
3.77076e-07
-7.89182e-11
-9.49918e-08
3.52332e-07
-9.50964e-08
-5.77449e-12
3.5229e-07
4.96381e-11
-1.24747e-05
1.2373e-05
-1.24748e-05
-1.41073e-11
1.23731e-05
4.62701e-11
-1.36702e-11
-7.0029e-12
-3.52721e-05
-1.01693e-07
3.49967e-05
3.77091e-07
-3.52721e-05
-1.0169e-07
-5.56447e-12
3.49967e-05
3.77087e-07
-7.00996e-12
-9.50342e-08
3.52304e-07
-9.50316e-08
-5.49064e-12
3.523e-07
-1.13934e-11
-1.24748e-05
1.23731e-05
-1.24748e-05
-5.54387e-12
1.23731e-05
-1.11253e-11
-5.47644e-12
3.5192e-14
-3.52722e-05
-1.01691e-07
3.49968e-05
3.77085e-07
-3.52722e-05
-1.01691e-07
5.63735e-12
3.49968e-05
3.77085e-07
2.86979e-14
-9.50321e-08
3.52297e-07
-9.50321e-08
5.54917e-12
3.52297e-07
3.43231e-14
-1.24749e-05
1.23732e-05
-1.24749e-05
5.61766e-12
1.23732e-05
2.87833e-14
5.53776e-12
7.07357e-12
-3.52721e-05
-1.0169e-07
3.49967e-05
3.77087e-07
-3.52721e-05
-1.01693e-07
5.7728e-12
3.49967e-05
3.77091e-07
7.06868e-12
-9.50316e-08
3.523e-07
-9.50342e-08
5.82502e-12
3.52304e-07
1.14707e-11
-1.24748e-05
1.23731e-05
-1.24748e-05
1.41744e-11
1.23731e-05
1.11814e-11
1.37194e-11
8.37902e-11
-3.5272e-05
-1.01759e-07
3.49966e-05
3.77076e-07
-3.5272e-05
-1.01646e-07
3.49966e-05
3.77123e-07
7.89781e-11
-9.50964e-08
3.5229e-07
-9.49918e-08
3.52333e-07
-4.96412e-11
-1.24748e-05
1.23731e-05
-1.24747e-05
1.2373e-05
-4.6213e-11
-9.2173e-11
-3.4708e-05
-1.13644e-07
3.43999e-05
4.21845e-07
-3.4708e-05
-1.1377e-07
-5.36599e-12
3.43999e-05
4.21794e-07
-8.69419e-11
-1.06509e-07
3.95211e-07
-1.06626e-07
-5.49783e-12
3.95164e-07
5.57775e-11
-1.22665e-05
1.21528e-05
-1.22665e-05
-1.47064e-11
1.21528e-05
5.22467e-11
-1.42607e-11
-6.82601e-12
-3.4708e-05
-1.13697e-07
3.43999e-05
4.2181e-07
-3.47081e-05
-1.13694e-07
-5.58395e-12
3.44e-05
4.21806e-07
-6.83702e-12
-1.06557e-07
3.9518e-07
-1.06555e-07
-5.51748e-12
3.95176e-07
-1.17007e-11
-1.22666e-05
1.21529e-05
-1.22666e-05
-5.55159e-12
1.21529e-05
-1.14305e-11
-5.49424e-12
6.67126e-14
-3.47082e-05
-1.13695e-07
3.44001e-05
4.21804e-07
-3.47082e-05
-1.13695e-07
5.71815e-12
3.44001e-05
4.21804e-07
4.82554e-14
-1.06555e-07
3.95173e-07
-1.06555e-07
5.61663e-12
3.95174e-07
6.21727e-14
-1.22666e-05
1.21529e-05
-1.22666e-05
5.68156e-12
1.21529e-05
4.63201e-14
5.59325e-12
6.95287e-12
-3.47081e-05
-1.13694e-07
3.44e-05
4.21806e-07
-3.4708e-05
-1.13697e-07
5.50606e-12
3.43999e-05
4.2181e-07
6.9369e-12
-1.06555e-07
3.95176e-07
-1.06557e-07
5.58607e-12
3.9518e-07
1.1833e-11
-1.22666e-05
1.21529e-05
-1.22666e-05
1.48202e-11
1.21529e-05
1.15282e-11
1.43558e-11
9.21003e-11
-3.4708e-05
-1.1377e-07
3.43999e-05
4.21794e-07
-3.4708e-05
-1.13644e-07
3.43999e-05
4.21845e-07
8.70181e-11
-1.06626e-07
3.95164e-07
-1.06509e-07
3.95211e-07
-5.57786e-11
-1.22665e-05
1.21528e-05
-1.22665e-05
1.21528e-05
-5.21347e-11
-1.0082e-10
-3.40779e-05
-1.26265e-07
3.37353e-05
4.68993e-07
-3.40779e-05
-1.26404e-07
-5.0193e-12
3.37353e-05
4.68937e-07
-9.53201e-11
-1.18711e-07
4.40735e-07
-1.18841e-07
-5.16272e-12
4.40684e-07
6.20962e-11
-1.2034e-05
1.19077e-05
-1.20341e-05
-1.53022e-11
1.19077e-05
5.8473e-11
-1.48485e-11
-6.64672e-12
-3.4078e-05
-1.26323e-07
3.37354e-05
4.68956e-07
-3.40781e-05
-1.26321e-07
-5.60208e-12
3.37354e-05
4.68952e-07
-6.65811e-12
-1.18765e-07
4.40701e-07
-1.18762e-07
-5.53341e-12
4.40698e-07
-1.20136e-11
-1.20341e-05
1.19078e-05
-1.20341e-05
-5.5513e-12
1.19078e-05
-1.17374e-11
-5.49877e-12
1.00284e-13