/*--------------------------------*- C++ -*----------------------------------*\
  =========                 |
  \\      /  F ield         | OpenFOAM: The Open Source CFD Toolbox
   \\    /   O peration     | Website:  https://openfoam.org
    \\  /    A nd           | Version:  9
     \\/     M anipulation  |
\*---------------------------------------------------------------------------*/
FoamFile
{
    format      ascii;
    class       volVectorField;
    location    "0.4";
    object      U;
}
// * * * * * * * * * * * * * * * * * * * * * * * * * * * * * * * * * * * * * //

dimensions      [0 1 -1 0 0 0 0];

internalField   nonuniform List<vector> 
36360
(
(7.41807e-06 -0.0734019 -0.935977)
(7.36022e-06 -0.0734018 -1.72275e-08)
(9.66827e-06 -0.0734187 -0.945796)
(9.71862e-06 -0.0734188 1.88324e-08)
(1.21773e-06 -0.0260569 -0.923549)
(1.16992e-06 -0.0260568 -1.23724e-08)
(2.39964e-06 -0.0260664 -0.932472)
(2.40844e-06 -0.0260664 1.81072e-08)
(7.34772e-06 -0.073402 -5.52869e-10)
(7.34624e-06 -0.0734022 -9.79702e-12)
(9.7317e-06 -0.073419 7.94298e-10)
(9.73455e-06 -0.0734193 -2.473e-10)
(1.16053e-06 -0.0260568 -1.11533e-09)
(1.1595e-06 -0.0260569 -1.72081e-10)
(2.40975e-06 -0.0260665 1.06988e-09)
(2.40975e-06 -0.0260666 -1.4519e-10)
(7.3472e-06 -0.0734023 3.90362e-11)
(7.34999e-06 -0.0734023 2.13863e-10)
(9.73649e-06 -0.0734194 2.30098e-11)
(9.74012e-06 -0.0734194 3.08877e-10)
(1.15963e-06 -0.0260569 5.63352e-11)
(1.16016e-06 -0.0260569 2.9204e-10)
(2.41002e-06 -0.0260666 6.13087e-11)
(2.41095e-06 -0.0260666 3.14086e-10)
(7.35431e-06 -0.0734022 2.4728e-10)
(7.36018e-06 -0.073402 7.94663e-10)
(9.74512e-06 -0.0734193 5.57848e-10)
(9.74805e-06 -0.0734191 -5.16203e-10)
(1.16102e-06 -0.0260569 5.04617e-10)
(1.16285e-06 -0.0260568 1.40953e-09)
(2.41246e-06 -0.0260666 4.9611e-10)
(2.41395e-06 -0.0260666 -7.66414e-10)
(7.37602e-06 -0.0734019 1.73916e-08)
(7.43569e-06 -0.073402 0.935977)
(9.73932e-06 -0.0734189 -1.86895e-08)
(9.69121e-06 -0.0734188 0.945796)
(1.17297e-06 -0.0260568 1.25684e-08)
(1.22119e-06 -0.0260569 0.923549)
(2.4138e-06 -0.0260665 -1.79224e-08)
(2.40553e-06 -0.0260664 0.932472)
(8.44006e-06 -0.0733782 -0.935167)
(8.43248e-06 -0.0733784 -5.26725e-09)
(7.08245e-06 -0.0733909 -0.935408)
(7.07097e-06 -0.0733912 -6.11245e-09)
(8.85405e-07 -0.0260482 -0.922759)
(8.61507e-07 -0.0260483 -3.11634e-09)
(8.1964e-07 -0.0260526 -0.922995)
(7.98013e-07 -0.0260527 -4.76714e-09)
(8.43136e-06 -0.0733786 -1.59415e-09)
(8.43222e-06 -0.0733788 -7.23709e-10)
(7.07401e-06 -0.0733914 4.06891e-10)
(7.07741e-06 -0.0733916 1.78638e-10)
(8.56083e-07 -0.0260483 -1.86326e-09)
(8.55923e-07 -0.0260484 -8.37642e-10)
(7.96618e-07 -0.0260528 -3.43048e-10)
(7.981e-07 -0.0260529 -2.90684e-11)
(8.43309e-06 -0.073379 -1.52342e-10)
(8.43473e-06 -0.073379 4.69339e-10)
(7.0794e-06 -0.0733918 6.80837e-11)
(7.08157e-06 -0.0733918 2.42179e-10)
(8.56167e-07 -0.0260485 -1.40503e-10)
(8.5641e-07 -0.0260485 5.2365e-10)
(7.98864e-07 -0.0260529 6.46816e-11)
(7.99218e-07 -0.0260529 3.09548e-10)
(8.43693e-06 -0.0733788 1.01829e-09)
(8.43866e-06 -0.0733786 1.88899e-09)
(7.08369e-06 -0.0733916 9.31265e-11)
(7.08366e-06 -0.0733914 -1.57943e-10)
(8.56603e-07 -0.0260484 1.20185e-09)
(8.57119e-07 -0.0260484 2.17427e-09)
(7.99119e-07 -0.0260529 3.84279e-10)
(7.98108e-07 -0.0260528 6.55272e-10)
(8.44168e-06 -0.0733784 5.43726e-09)
(8.45024e-06 -0.0733782 0.935167)
(7.08314e-06 -0.0733912 6.27252e-09)
(7.09597e-06 -0.073391 0.935408)
(8.62872e-07 -0.0260483 3.29918e-09)
(8.86959e-07 -0.0260482 0.922759)
(7.99938e-07 -0.0260527 4.99089e-09)
(8.2181e-07 -0.0260526 0.922995)
(1.43294e-05 -0.0733405 -0.93433)
(1.43096e-05 -0.0733406 -6.46988e-09)
(1.09724e-05 -0.0733617 -0.934571)
(1.09569e-05 -0.0733619 -6.11041e-09)
(1.60519e-06 -0.026035 -0.921942)
(1.56175e-06 -0.0260351 -2.51009e-09)
(1.17643e-06 -0.0260425 -0.922178)
(1.14262e-06 -0.0260425 -2.97115e-09)
(1.43036e-05 -0.0733409 -3.04721e-09)
(1.43025e-05 -0.0733411 -1.79887e-09)
(1.09519e-05 -0.0733621 -2.54093e-09)
(1.09513e-05 -0.0733623 -1.28915e-09)
(1.54991e-06 -0.0260352 -3.38126e-09)
(1.54833e-06 -0.0260352 -2.03592e-09)
(1.13336e-06 -0.0260426 -2.7928e-09)
(1.13231e-06 -0.0260427 -1.48326e-09)
(1.43024e-05 -0.0733412 -5.21941e-10)
(1.43031e-05 -0.0733412 8.20739e-10)
(1.09516e-05 -0.0733624 -3.2209e-10)
(1.09528e-05 -0.0733625 6.37232e-10)
(1.54831e-06 -0.0260353 -5.60767e-10)
(1.5484e-06 -0.0260353 8.89347e-10)
(1.13241e-06 -0.0260427 -3.41239e-10)
(1.13257e-06 -0.0260427 7.02445e-10)
(1.43046e-05 -0.0733411 2.07488e-09)
(1.4307e-05 -0.0733409 3.28963e-09)
(1.09546e-05 -0.0733623 1.58268e-09)
(1.09571e-05 -0.0733621 2.80117e-09)
(1.54857e-06 -0.0260352 2.33997e-09)
(1.55029e-06 -0.0260352 3.63436e-09)
(1.13274e-06 -0.0260427 1.82223e-09)
(1.13403e-06 -0.0260426 3.0749e-09)
(1.43139e-05 -0.0733407 6.60323e-09)
(1.43341e-05 -0.0733405 0.93433)
(1.09634e-05 -0.0733619 6.28825e-09)
(1.09796e-05 -0.0733618 0.934571)
(1.56228e-06 -0.0260351 2.67678e-09)
(1.60577e-06 -0.026035 0.921942)
(1.14351e-06 -0.0260426 3.17654e-09)
(1.17746e-06 -0.0260425 0.922178)
(2.2487e-05 -0.0732804 -0.933467)
(2.24586e-05 -0.0732805 -7.84955e-09)
(1.82327e-05 -0.0733136 -0.933706)
(1.8209e-05 -0.0733137 -7.02622e-09)
(2.65468e-06 -0.0260134 -0.9211)
(2.58817e-06 -0.0260135 -1.78857e-09)
(2.11052e-06 -0.0260254 -0.921333)
(2.05617e-06 -0.0260254 -2.06946e-09)
(2.24505e-05 -0.0732808 -3.94871e-09)
(2.24484e-05 -0.073281 -2.73295e-09)
(1.8202e-05 -0.0733139 -3.52888e-09)
(1.82003e-05 -0.0733142 -2.29059e-09)
(2.57039e-06 -0.0260135 -4.46196e-09)
(2.56771e-06 -0.0260136 -3.04509e-09)
(2.04145e-06 -0.0260255 -3.94172e-09)
(2.03933e-06 -0.0260256 -2.56264e-09)
(2.24475e-05 -0.0732811 -9.31748e-10)
(2.24477e-05 -0.0732811 1.17784e-09)
(1.81998e-05 -0.0733143 -7.35323e-10)
(1.82002e-05 -0.0733143 1.00887e-09)
(2.5673e-06 -0.0260136 -9.73615e-10)
(2.56731e-06 -0.0260136 1.23196e-09)
(2.0391e-06 -0.0260256 -7.74487e-10)
(2.03914e-06 -0.0260256 1.06623e-09)
(2.2449e-05 -0.073281 2.96017e-09)
(2.24514e-05 -0.0732808 4.15023e-09)
(1.82016e-05 -0.0733142 2.542e-09)
(1.82039e-05 -0.0733139 3.74883e-09)
(2.56773e-06 -0.0260136 3.28386e-09)
(2.57041e-06 -0.0260135 4.6617e-09)
(2.03944e-06 -0.0260256 2.83157e-09)
(2.04161e-06 -0.0260255 4.16813e-09)
(2.24598e-05 -0.0732806 7.95611e-09)
(2.24883e-05 -0.0732804 0.933467)
(1.82115e-05 -0.0733137 7.178e-09)
(1.82355e-05 -0.0733136 0.933706)
(2.58824e-06 -0.0260135 1.91618e-09)
(2.65477e-06 -0.0260134 0.9211)
(2.05641e-06 -0.0260255 2.25977e-09)
(2.1108e-06 -0.0260254 0.921333)
(3.17753e-05 -0.0731939 -0.932577)
(3.17371e-05 -0.073194 -9.78255e-09)
(2.70096e-05 -0.0732406 -0.932831)
(2.69765e-05 -0.0732407 -8.73246e-09)
(3.81582e-06 -0.0259819 -0.920232)
(3.72272e-06 -0.0259819 -1.30494e-09)
(3.22376e-06 -0.0259989 -0.920479)
(3.14434e-06 -0.025999 -1.49574e-09)
(3.17269e-05 -0.0731943 -4.68497e-09)
(3.17243e-05 -0.0731945 -3.49523e-09)
(2.69673e-05 -0.073241 -4.33265e-09)
(2.6965e-05 -0.0732412 -3.12946e-09)
(3.69844e-06 -0.025982 -5.43183e-09)
(3.69467e-06 -0.0259821 -3.89972e-09)
(3.12338e-06 -0.025999 -4.9541e-09)
(3.12015e-06 -0.0259991 -3.48764e-09)
(3.17229e-05 -0.0731946 -1.27056e-09)
(3.17229e-05 -0.0731946 1.47621e-09)
(2.69638e-05 -0.0732413 -1.10855e-09)
(2.69638e-05 -0.0732413 1.33222e-09)
(3.69398e-06 -0.0259821 -1.32317e-09)
(3.69397e-06 -0.0259821 1.52772e-09)
(3.1196e-06 -0.0259992 -1.15597e-09)
(3.11959e-06 -0.0259992 1.38309e-09)
(3.17243e-05 -0.0731945 3.68697e-09)
(3.17269e-05 -0.0731943 4.86111e-09)
(2.69652e-05 -0.0732412 3.3366e-09)
(2.69676e-05 -0.073241 4.51197e-09)
(3.69463e-06 -0.0259821 4.0903e-09)
(3.69837e-06 -0.025982 5.59627e-09)
(3.12012e-06 -0.0259991 3.69678e-09)
(3.12332e-06 -0.025999 5.13309e-09)
(3.17372e-05 -0.0731941 9.86677e-09)
(3.17754e-05 -0.0731939 0.932577)
(2.69769e-05 -0.0732407 8.85595e-09)
(2.70101e-05 -0.0732406 0.932831)
(3.72267e-06 -0.0259819 1.41066e-09)
(3.81576e-06 -0.0259819 0.920232)
(3.14429e-06 -0.025999 1.64993e-09)
(3.22372e-06 -0.0259989 0.920479)
(4.21449e-05 -0.0730787 -0.931658)
(4.20957e-05 -0.0730788 -1.20568e-08)
(3.68093e-05 -0.07314 -0.931916)
(3.67659e-05 -0.0731401 -1.08524e-08)
(5.08857e-06 -0.0259396 -0.919335)
(4.96576e-06 -0.0259397 -8.89669e-10)
(4.43518e-06 -0.0259621 -0.919587)
(4.32767e-06 -0.0259622 -1.06749e-09)
(4.20832e-05 -0.073079 -5.37426e-09)
(4.20803e-05 -0.0730792 -4.16274e-09)
(3.67546e-05 -0.0731404 -5.04201e-09)
(3.67518e-05 -0.0731406 -3.83462e-09)
(4.93433e-06 -0.0259398 -6.38732e-09)
(4.92942e-06 -0.0259398 -4.66646e-09)
(4.29992e-06 -0.0259623 -5.90839e-09)
(4.29559e-06 -0.0259623 -4.28949e-09)
(4.20787e-05 -0.0730794 -1.55608e-09)
(4.20787e-05 -0.0730794 1.7467e-09)
(3.67503e-05 -0.0731407 -1.41754e-09)
(3.67503e-05 -0.0731407 1.61362e-09)
(4.92852e-06 -0.0259399 -1.61789e-09)
(4.92852e-06 -0.0259399 1.8071e-09)
(4.29479e-06 -0.0259624 -1.47559e-09)
(4.29478e-06 -0.0259624 1.66705e-09)
(4.20803e-05 -0.0730792 4.34004e-09)
(4.20832e-05 -0.073079 5.54643e-09)
(3.67518e-05 -0.0731406 4.01926e-09)
(3.67545e-05 -0.0731404 5.20331e-09)
(4.92941e-06 -0.0259398 4.84419e-09)
(4.93431e-06 -0.0259398 6.54232e-09)
(4.29556e-06 -0.0259623 4.46792e-09)
(4.29987e-06 -0.0259623 6.06583e-09)
(4.20957e-05 -0.0730788 1.21311e-08)
(4.21449e-05 -0.0730787 0.931658)
(3.67659e-05 -0.0731402 1.09613e-08)
(3.68094e-05 -0.07314 0.931916)
(4.96579e-06 -0.0259397 9.82906e-10)
(5.08859e-06 -0.0259396 0.919335)
(4.32766e-06 -0.0259622 1.20699e-09)
(4.43514e-06 -0.0259621 0.919587)
(5.3917e-05 -0.072932 -0.930708)
(5.38553e-05 -0.0729321 -1.4579e-08)
(4.78344e-05 -0.0730094 -0.930983)
(4.77792e-05 -0.0730095 -1.32487e-08)
(6.52432e-06 -0.0258858 -0.918408)
(6.36796e-06 -0.0258858 -3.82732e-10)
(5.78272e-06 -0.0259142 -0.918677)
(5.64372e-06 -0.0259143 -6.14712e-10)
(5.38403e-05 -0.0729323 -6.04749e-09)
(5.38371e-05 -0.0729325 -4.77877e-09)
(4.77655e-05 -0.0730098 -5.72261e-09)
(4.77625e-05 -0.07301 -4.47213e-09)
(6.32851e-06 -0.0258859 -7.36228e-09)
(6.32235e-06 -0.025886 -5.40062e-09)
(5.60841e-06 -0.0259144 -6.873e-09)
(5.60289e-06 -0.0259144 -5.0341e-09)
(5.38354e-05 -0.0729327 -1.81179e-09)
(5.38353e-05 -0.0729327 1.99711e-09)
(4.77608e-05 -0.0730101 -1.68439e-09)
(4.77607e-05 -0.0730101 1.87484e-09)
(6.32124e-06 -0.025886 -1.88536e-09)
(6.32124e-06 -0.025886 2.07795e-09)
(5.60189e-06 -0.0259145 -1.75253e-09)
(5.60189e-06 -0.0259145 1.94355e-09)
(5.38371e-05 -0.0729325 4.94699e-09)
(5.38402e-05 -0.0729323 6.21991e-09)
(4.77624e-05 -0.07301 4.64933e-09)
(4.77655e-05 -0.0730098 5.88584e-09)
(6.32233e-06 -0.025886 5.58192e-09)
(6.32849e-06 -0.0258859 7.51408e-09)
(5.60289e-06 -0.0259144 5.21394e-09)
(5.6084e-06 -0.0259144 7.02709e-09)
(5.38552e-05 -0.0729321 1.46477e-08)
(5.39169e-05 -0.072932 0.930708)
(4.77792e-05 -0.0730096 1.33574e-08)
(4.78344e-05 -0.0730094 0.930983)
(6.36799e-06 -0.0258859 4.65795e-10)
(6.52437e-06 -0.0258858 0.918408)
(5.64376e-06 -0.0259143 7.54793e-10)
(5.78277e-06 -0.0259142 0.918677)
(6.74611e-05 -0.0727504 -0.929737)
(6.73852e-05 -0.0727505 -1.73346e-08)
(6.04462e-05 -0.0728458 -0.930009)
(6.03777e-05 -0.0728459 -1.58758e-08)
(8.17337e-06 -0.0258191 -0.91746)
(7.97866e-06 -0.0258191 3.14876e-10)
(7.31905e-06 -0.0258541 -0.917727)
(7.14423e-06 -0.0258542 -1.02173e-11)
(6.73675e-05 -0.0727507 -6.6748e-09)
(6.73642e-05 -0.0727509 -5.35834e-09)
(6.03614e-05 -0.0728461 -6.37753e-09)
(6.03581e-05 -0.0728463 -5.07055e-09)
(7.93014e-06 -0.0258192 -8.3453e-09)
(7.92257e-06 -0.0258193 -6.11794e-09)
(7.10039e-06 -0.0258543 -7.85794e-09)
(7.09355e-06 -0.0258543 -5.76137e-09)
(6.73624e-05 -0.0727511 -2.05299e-09)
(6.73623e-05 -0.0727511 2.22798e-09)
(6.03563e-05 -0.0728465 -1.93286e-09)
(6.03563e-05 -0.0728465 2.11407e-09)
(7.92127e-06 -0.0258193 -2.14655e-09)
(7.92126e-06 -0.0258193 2.32671e-09)
(7.09234e-06 -0.0258544 -2.01714e-09)
(7.09234e-06 -0.0258544 2.20347e-09)
(6.73641e-05 -0.0727509 5.51645e-09)
(6.73674e-05 -0.0727507 6.84734e-09)
(6.03581e-05 -0.0728463 5.23651e-09)
(6.03613e-05 -0.0728461 6.53691e-09)
(7.92256e-06 -0.0258193 6.28906e-09)
(7.93011e-06 -0.0258192 8.49128e-09)
(7.09353e-06 -0.0258543 5.93778e-09)
(7.10036e-06 -0.0258543 8.00176e-09)
(6.73851e-05 -0.0727505 1.73996e-08)
(6.74611e-05 -0.0727504 0.929737)
(6.03776e-05 -0.0728459 1.59854e-08)
(6.04461e-05 -0.0728458 0.930009)
(7.97867e-06 -0.0258191 -2.35931e-10)
(8.1734e-06 -0.0258191 0.91746)
(7.14424e-06 -0.0258542 1.53474e-10)
(7.31909e-06 -0.0258541 0.917727)
(8.31441e-05 -0.0725296 -0.928735)
(8.30518e-05 -0.0725297 -2.03785e-08)
(7.50147e-05 -0.0726451 -0.929005)
(7.4931e-05 -0.0726453 -1.87591e-08)
(1.00816e-05 -0.0257378 -0.916484)
(9.8428e-06 -0.0257379 1.23774e-09)
(9.09204e-06 -0.0257804 -0.916747)
(8.87612e-06 -0.0257804 7.98111e-10)
(8.30312e-05 -0.0725299 -7.24972e-09)
(8.30278e-05 -0.0725301 -5.89722e-09)
(7.49119e-05 -0.0726455 -6.97815e-09)
(7.49085e-05 -0.0726457 -5.63171e-09)
(9.78397e-06 -0.025738 -9.33686e-09)
(9.77481e-06 -0.025738 -6.81331e-09)
(8.82261e-06 -0.0257805 -8.84393e-09)
(8.81427e-06 -0.0257806 -6.4679e-09)
(8.3026e-05 -0.0725302 -2.27823e-09)
(8.30259e-05 -0.0725302 2.44491e-09)
(7.49067e-05 -0.0726458 -2.16683e-09)
(7.49067e-05 -0.0726458 2.33693e-09)
(9.7733e-06 -0.0257381 -2.39691e-09)
(9.77329e-06 -0.0257381 2.56029e-09)
(8.81286e-06 -0.0257806 -2.274e-09)
(8.81286e-06 -0.0257806 2.44253e-09)
(8.30277e-05 -0.0725301 6.0447e-09)
(8.30311e-05 -0.0725299 7.43878e-09)
(7.49085e-05 -0.0726457 5.78519e-09)
(7.49118e-05 -0.0726455 7.14195e-09)
(9.77479e-06 -0.025738 6.969e-09)
(9.78393e-06 -0.025738 9.47792e-09)
(8.81425e-06 -0.0257806 6.6279e-09)
(8.82257e-06 -0.0257805 8.97982e-09)
(8.30518e-05 -0.0725297 2.04587e-08)
(8.3144e-05 -0.0725296 0.928735)
(7.49309e-05 -0.0726453 1.88786e-08)
(7.50146e-05 -0.0726451 0.929005)
(9.8428e-06 -0.0257379 -1.15378e-09)
(1.00816e-05 -0.0257378 0.916484)
(8.8761e-06 -0.0257804 -6.55446e-10)
(9.09206e-06 -0.0257804 0.916747)
(0.000101332 -0.0722645 -0.92769)
(0.000101221 -0.0722646 -2.37877e-08)
(9.19053e-05 -0.0724029 -0.927978)
(9.18041e-05 -0.072403 -2.19814e-08)
(1.22931e-05 -0.0256402 -0.915465)
(1.20034e-05 -0.0256403 2.38108e-09)
(1.11465e-05 -0.0256912 -0.915745)
(1.08832e-05 -0.0256913 1.82811e-09)
(0.000101197 -0.0722648 -7.79719e-09)
(0.000101193 -0.072265 -6.39687e-09)
(9.17818e-05 -0.0724032 -7.55017e-09)
(9.17784e-05 -0.0724034 -6.1449e-09)
(1.19328e-05 -0.0256404 -1.03524e-08)
(1.19219e-05 -0.0256404 -7.48957e-09)
(1.08187e-05 -0.0256913 -9.84422e-09)
(1.08086e-05 -0.0256914 -7.15264e-09)
(0.000101192 -0.0722651 -2.48177e-09)
(0.000101191 -0.0722651 2.65673e-09)
(9.17767e-05 -0.0724035 -2.38181e-09)
(9.17766e-05 -0.0724035 2.54745e-09)
(1.19202e-05 -0.0256405 -2.6245e-09)
(1.19201e-05 -0.0256405 2.80036e-09)
(1.0807e-05 -0.0256914 -2.514e-09)
(1.0807e-05 -0.0256914 2.67698e-09)
(0.000101193 -0.072265 6.55719e-09)
(0.000101197 -0.0722648 7.97738e-09)
(9.17784e-05 -0.0724034 6.29078e-09)
(9.17818e-05 -0.0724032 7.72202e-09)
(1.19219e-05 -0.0256404 7.65806e-09)
(1.19328e-05 -0.0256404 1.04948e-08)
(1.08086e-05 -0.0256914 7.30713e-09)
(1.08186e-05 -0.0256913 9.97999e-09)
(0.00010122 -0.0722646 2.38522e-08)
(0.000101332 -0.0722645 0.92769)
(9.1804e-05 -0.072403 2.21151e-08)
(9.19052e-05 -0.0724029 0.927978)
(1.20034e-05 -0.0256403 -2.30458e-09)
(1.22931e-05 -0.0256402 0.915465)
(1.08832e-05 -0.0256913 -1.68607e-09)
(1.11465e-05 -0.0256912 0.915745)
(0.000122393 -0.0719494 -0.926625)
(0.00012226 -0.0719495 -2.7629e-08)
(0.000111482 -0.0721136 -0.926918)
(0.000111361 -0.0721137 -2.55918e-08)
(1.48515e-05 -0.0255241 -0.914426)
(1.45035e-05 -0.0255242 3.77595e-09)
(1.35257e-05 -0.0255846 -0.914712)
(1.32079e-05 -0.0255847 3.0994e-09)
(0.000122232 -0.0719497 -8.32261e-09)
(0.000122229 -0.0719499 -6.83608e-09)
(0.000111335 -0.0721139 -8.08481e-09)
(0.000111332 -0.0721141 -6.61924e-09)
(1.44194e-05 -0.0255243 -1.14019e-08)
(1.44064e-05 -0.0255243 -8.14497e-09)
(1.31308e-05 -0.0255848 -1.08811e-08)
(1.31189e-05 -0.0255848 -7.81783e-09)
(0.000122228 -0.0719501 -2.66088e-09)
(0.000122228 -0.0719501 2.86001e-09)
(0.00011133 -0.0721142 -2.57158e-09)
(0.00011133 -0.0721142 2.75906e-09)
(1.44044e-05 -0.0255244 -2.83142e-09)
(1.44044e-05 -0.0255244 3.04354e-09)
(1.3117e-05 -0.0255849 -2.72921e-09)
(1.3117e-05 -0.0255849 2.92256e-09)
(0.000122229 -0.0719499 7.01935e-09)
(0.000122232 -0.0719497 8.49626e-09)
(0.000111332 -0.0721141 6.79204e-09)
(0.000111335 -0.0721139 8.24055e-09)
(1.44064e-05 -0.0255243 8.34862e-09)
(1.44194e-05 -0.0255243 1.15523e-08)
(1.31189e-05 -0.0255848 8.00393e-09)
(1.31308e-05 -0.0255848 1.10167e-08)
(0.00012226 -0.0719496 2.76663e-08)
(0.000122393 -0.0719494 0.926625)
(0.000111361 -0.0721137 2.57025e-08)
(0.000111482 -0.0721136 0.926918)
(1.45035e-05 -0.0255242 -3.71709e-09)
(1.48516e-05 -0.0255241 0.914426)
(1.32079e-05 -0.0255847 -2.95921e-09)
(1.35257e-05 -0.0255846 0.914712)
(0.000146701 -0.071578 -0.925509)
(0.000146544 -0.0715781 -3.18253e-08)
(0.000134121 -0.0717711 -0.925825)
(0.000133977 -0.0717712 -2.96045e-08)
(1.78001e-05 -0.0253871 -0.913336)
(1.73853e-05 -0.0253872 5.53581e-09)
(1.62738e-05 -0.0254584 -0.913645)
(1.58936e-05 -0.0254584 4.67402e-09)
(0.000146512 -0.0715783 -8.76821e-09)
(0.000146509 -0.0715785 -7.24187e-09)
(0.000133948 -0.0717714 -8.5669e-09)
(0.000133945 -0.0717716 -7.04165e-09)
(1.72857e-05 -0.0253873 -1.24816e-08)
(1.72705e-05 -0.0253873 -8.79371e-09)
(1.5802e-05 -0.0254585 -1.19507e-08)
(1.57879e-05 -0.0254586 -8.46755e-09)
(0.000146508 -0.0715786 -2.83851e-09)
(0.000146508 -0.0715786 3.03403e-09)
(0.000133943 -0.0717718 -2.74801e-09)
(0.000133943 -0.0717718 2.94925e-09)
(1.72683e-05 -0.0253874 -3.04848e-09)
(1.72683e-05 -0.0253874 3.25177e-09)
(1.57859e-05 -0.0254586 -2.93874e-09)
(1.57859e-05 -0.0254586 3.15073e-09)
(0.000146509 -0.0715785 7.4204e-09)
(0.000146512 -0.0715783 8.94129e-09)
(0.000133945 -0.0717716 7.22412e-09)
(0.000133948 -0.0717714 8.72523e-09)
(1.72705e-05 -0.0253873 8.98845e-09)
(1.72857e-05 -0.0253873 1.26252e-08)
(1.57879e-05 -0.0254586 8.67268e-09)
(1.5802e-05 -0.0254585 1.20825e-08)
(0.000146544 -0.0715781 3.18706e-08)
(0.000146701 -0.071578 0.925509)
(0.000133977 -0.0717712 2.97119e-08)
(0.000134122 -0.0717712 0.925825)
(1.73853e-05 -0.0253872 -5.47665e-09)
(1.78002e-05 -0.0253871 0.913336)
(1.58936e-05 -0.0254584 -4.53633e-09)
(1.62739e-05 -0.0254584 0.913645)
(0.000174624 -0.0711433 -0.924387)
(0.00017444 -0.0711434 -3.64527e-08)
(0.000160189 -0.071369 -0.924683)
(0.000160019 -0.0713691 -3.40134e-08)
(2.11812e-05 -0.0252267 -0.912242)
(2.06902e-05 -0.0252267 7.69054e-09)
(1.9433e-05 -0.02531 -0.912531)
(1.89813e-05 -0.0253101 6.61827e-09)
(0.000174404 -0.0711436 -9.16135e-09)
(0.000174401 -0.0711438 -7.62142e-09)
(0.000159985 -0.0713693 -8.98872e-09)
(0.000159982 -0.0713695 -7.43373e-09)
(2.05732e-05 -0.0252268 -1.36088e-08)
(2.05553e-05 -0.0252269 -9.44955e-09)
(1.88733e-05 -0.0253101 -1.30474e-08)
(1.88568e-05 -0.0253102 -9.12054e-09)
(0.0001744 -0.0711439 -3.01764e-09)
(0.0001744 -0.0711439 3.18663e-09)
(0.000159981 -0.0713696 -2.92822e-09)
(0.000159981 -0.0713696 3.10882e-09)
(2.05528e-05 -0.0252269 -3.27608e-09)
(2.05528e-05 -0.0252269 3.4379e-09)
(1.88545e-05 -0.0253102 -3.1629e-09)
(1.88545e-05 -0.0253102 3.34329e-09)
(0.000174401 -0.0711438 7.77752e-09)
(0.000174404 -0.0711436 9.32673e-09)
(0.000159982 -0.0713695 7.59841e-09)
(0.000159986 -0.0713693 9.13328e-09)
(2.05553e-05 -0.0252269 9.60258e-09)
(2.05732e-05 -0.0252268 1.37308e-08)
(1.88568e-05 -0.0253102 9.2895e-09)
(1.88733e-05 -0.0253101 1.31659e-08)
(0.00017444 -0.0711434 3.65218e-08)
(0.000174625 -0.0711433 0.924387)
(0.000160019 -0.0713691 3.41202e-08)
(0.00016019 -0.071369 0.924683)
(2.06902e-05 -0.0252267 -7.6187e-09)
(2.11813e-05 -0.0252267 0.912242)
(1.89814e-05 -0.0253101 -6.49394e-09)
(1.94331e-05 -0.02531 0.912531)
(0.000206531 -0.0706378 -0.923198)
(0.000206315 -0.0706379 -4.16075e-08)
(0.000190064 -0.0708998 -0.923521)
(0.000189864 -0.0708999 -3.89105e-08)
(2.50339e-05 -0.02504 -0.911082)
(2.44566e-05 -0.02504 1.02195e-08)
(2.30454e-05 -0.0251368 -0.911397)
(2.25126e-05 -0.0251368 8.94445e-09)
(0.000206275 -0.070638 -9.50482e-09)
(0.000206272 -0.0706382 -7.95417e-09)
(0.000189826 -0.0709001 -9.36535e-09)
(0.000189823 -0.0709003 -7.79351e-09)
(2.432e-05 -0.0250401 -1.47753e-08)
(2.42991e-05 -0.0250402 -1.00918e-08)
(2.23861e-05 -0.0251369 -1.41916e-08)
(2.23667e-05 -0.025137 -9.77389e-09)
(0.000206271 -0.0706383 -3.17578e-09)
(0.000206271 -0.0706384 3.33443e-09)
(0.000189822 -0.0709004 -3.09788e-09)
(0.000189822 -0.0709004 3.26081e-09)
(2.42964e-05 -0.0250402 -3.48349e-09)
(2.42964e-05 -0.0250402 3.63315e-09)
(2.23642e-05 -0.025137 -3.3809e-09)
(2.23642e-05 -0.025137 3.53544e-09)
(0.000206272 -0.0706382 8.10108e-09)
(0.000206275 -0.0706381 9.66505e-09)
(0.000189823 -0.0709003 7.94238e-09)
(0.000189826 -0.0709001 9.49739e-09)
(2.42991e-05 -0.0250402 1.02343e-08)
(2.43199e-05 -0.0250401 1.48796e-08)
(2.23667e-05 -0.025137 9.91231e-09)
(2.2386e-05 -0.0251369 1.42924e-08)
(0.000206315 -0.0706379 4.16735e-08)
(0.000206531 -0.0706378 0.923198)
(0.000189864 -0.0708999 3.90129e-08)
(0.000190064 -0.0708998 0.923521)
(2.44566e-05 -0.02504 -1.01569e-08)
(2.5034e-05 -0.02504 0.911082)
(2.25126e-05 -0.0251368 -8.83925e-09)
(2.30455e-05 -0.0251368 0.911397)
(0.000242751 -0.0700537 -0.921988)
(0.0002425 -0.0700537 -4.72705e-08)
(0.000224085 -0.070356 -0.922301)
(0.000223852 -0.0703561 -4.43194e-08)
(2.9393e-05 -0.0248242 -0.909901)
(2.87186e-05 -0.0248242 1.31611e-08)
(2.71466e-05 -0.0249359 -0.910208)
(2.65222e-05 -0.0249359 1.16718e-08)
(0.000242455 -0.0700539 -9.75614e-09)
(0.000242452 -0.0700541 -8.21521e-09)
(0.000223809 -0.0703563 -9.66746e-09)
(0.000223807 -0.0703564 -8.09155e-09)
(2.856e-05 -0.0248243 -1.5958e-08)
(2.85359e-05 -0.0248243 -1.06889e-08)
(2.63749e-05 -0.024936 -1.5372e-08)
(2.63524e-05 -0.0249361 -1.03947e-08)
(0.000242452 -0.0700542 -3.31013e-09)
(0.000242452 -0.0700542 3.45804e-09)
(0.000223806 -0.0703566 -3.24366e-09)
(0.000223806 -0.0703566 3.39796e-09)
(2.85328e-05 -0.0248244 -3.66623e-09)
(2.85328e-05 -0.0248244 3.81603e-09)
(2.63495e-05 -0.0249361 -3.57519e-09)
(2.63495e-05 -0.0249361 3.72802e-09)
(0.000242452 -0.0700541 8.35197e-09)
(0.000242455 -0.0700539 9.90763e-09)
(0.000223807 -0.0703564 8.23214e-09)
(0.000223809 -0.0703563 9.79048e-09)
(2.85358e-05 -0.0248244 1.08357e-08)
(2.85599e-05 -0.0248243 1.60563e-08)
(2.63524e-05 -0.0249361 1.05358e-08)
(2.63748e-05 -0.024936 1.54525e-08)
(0.0002425 -0.0700537 4.73316e-08)
(0.000242751 -0.0700537 0.921988)
(0.000223852 -0.0703561 4.44137e-08)
(0.000224085 -0.070356 0.922301)
(2.87186e-05 -0.0248242 -1.31146e-08)
(2.93931e-05 -0.0248242 0.909901)
(2.65221e-05 -0.024936 -1.15866e-08)
(2.71466e-05 -0.0249359 0.910208)
(0.0002836 -0.0693826 -0.920725)
(0.00028331 -0.0693827 -5.34659e-08)
(0.000262585 -0.0697294 -0.921062)
(0.000262316 -0.0697295 -5.02418e-08)
(3.42889e-05 -0.0245762 -0.908669)
(3.35058e-05 -0.0245762 1.6549e-08)
(3.17708e-05 -0.0247043 -0.908999)
(3.10435e-05 -0.0247044 1.48375e-08)
(0.000283259 -0.0693828 -9.91268e-09)
(0.000283257 -0.069383 -8.41538e-09)
(0.000262267 -0.0697297 -9.871e-09)
(0.000262265 -0.0697298 -8.31798e-09)
(3.33228e-05 -0.0245763 -1.71563e-08)
(3.3295e-05 -0.0245764 -1.12567e-08)
(3.0873e-05 -0.0247045 -1.65686e-08)
(3.08471e-05 -0.0247045 -1.09721e-08)
(0.000283257 -0.0693831 -3.42773e-09)
(0.000283257 -0.0693831 3.56542e-09)
(0.000262265 -0.0697299 -3.36981e-09)
(0.000262265 -0.0697299 3.50909e-09)
(3.32916e-05 -0.0245764 -3.83782e-09)
(3.32916e-05 -0.0245764 3.98745e-09)
(3.08438e-05 -0.0247046 -3.75185e-09)
(3.08438e-05 -0.0247046 3.9014e-09)
(0.000283257 -0.069383 8.54543e-09)
(0.000283259 -0.0693828 1.00626e-08)
(0.000262265 -0.0697298 8.44863e-09)
(0.000262268 -0.0697297 9.98552e-09)
(3.3295e-05 -0.0245764 1.14085e-08)
(3.33228e-05 -0.0245763 1.72694e-08)
(3.08471e-05 -0.0247045 1.11156e-08)
(3.0873e-05 -0.0247045 1.66461e-08)
(0.00028331 -0.0693827 5.35308e-08)
(0.0002836 -0.0693826 0.920725)
(0.000262316 -0.0697295 5.03348e-08)
(0.000262586 -0.0697294 0.921062)
(3.35059e-05 -0.0245762 -1.65034e-08)
(3.42889e-05 -0.0245762 0.908669)
(3.10435e-05 -0.0247044 -1.47594e-08)
(3.17708e-05 -0.0247043 0.908999)
(0.000329338 -0.0686162 -0.919439)
(0.000329006 -0.0686162 -6.02268e-08)
(0.000305848 -0.0690118 -0.919785)
(0.000305537 -0.0690118 -5.6723e-08)
(3.97442e-05 -0.0242929 -0.907415)
(3.88409e-05 -0.024293 2.04523e-08)
(3.69435e-05 -0.0244391 -0.907753)
(3.61018e-05 -0.0244392 1.84879e-08)
(0.000328948 -0.0686164 -9.98366e-09)
(0.000328947 -0.0686166 -8.591e-09)
(0.000305483 -0.069012 -9.98055e-09)
(0.000305481 -0.0690122 -8.49966e-09)
(3.86305e-05 -0.024293 -1.83269e-08)
(3.85988e-05 -0.0242931 -1.18862e-08)
(3.59055e-05 -0.0244392 -1.77507e-08)
(3.58758e-05 -0.0244393 -1.15657e-08)
(0.000328947 -0.0686167 -3.54374e-09)
(0.000328947 -0.0686167 3.67086e-09)
(0.000305481 -0.0690123 -3.48377e-09)
(0.000305481 -0.0690123 3.61687e-09)
(3.8595e-05 -0.0242931 -4.0289e-09)
(3.8595e-05 -0.0242931 4.16718e-09)
(3.58722e-05 -0.0244393 -3.93113e-09)
(3.58722e-05 -0.0244393 4.07605e-09)
(0.000328947 -0.0686166 8.71259e-09)
(0.000328948 -0.0686164 1.01328e-08)
(0.000305482 -0.0690122 8.62891e-09)
(0.000305483 -0.069012 1.01026e-08)
(3.85988e-05 -0.0242931 1.20245e-08)
(3.86306e-05 -0.024293 1.84622e-08)
(3.58758e-05 -0.0244393 1.17023e-08)
(3.59056e-05 -0.0244393 1.7863e-08)
(0.000329006 -0.0686162 6.02899e-08)
(0.000329339 -0.0686162 0.919439)
(0.000305537 -0.0690118 5.68189e-08)
(0.000305848 -0.0690118 0.919785)
(3.8841e-05 -0.024293 -2.03955e-08)
(3.97443e-05 -0.0242929 0.907415)
(3.61019e-05 -0.0244392 -1.83819e-08)
(3.69436e-05 -0.0244391 0.907753)
(0.000380154 -0.0677461 -0.918093)
(0.000379775 -0.0677461 -6.75072e-08)
(0.000354108 -0.0681945 -0.918449)
(0.000353753 -0.0681945 -6.37479e-08)
(4.577e-05 -0.0239714 -0.906102)
(4.47349e-05 -0.0239715 2.4858e-08)
(4.26829e-05 -0.0241371 -0.906449)
(4.17152e-05 -0.0241372 2.2637e-08)
(0.00037971 -0.0677463 -9.98075e-09)
(0.00037971 -0.0677464 -8.74187e-09)
(0.000353692 -0.0681947 -1.00155e-08)
(0.000353691 -0.0681949 -8.66722e-09)
(4.44941e-05 -0.0239715 -1.95335e-08)
(4.44581e-05 -0.0239716 -1.25458e-08)
(4.149e-05 -0.0241372 -1.89378e-08)
(4.14562e-05 -0.0241373 -1.22183e-08)
(0.00037971 -0.0677465 -3.66288e-09)
(0.000379711 -0.0677465 3.75985e-09)
(0.000353691 -0.068195 -3.60472e-09)
(0.000353691 -0.068195 3.71308e-09)
(4.4454e-05 -0.0239716 -4.23341e-09)
(4.4454e-05 -0.0239716 4.3399e-09)
(4.14522e-05 -0.0241373 -4.1321e-09)
(4.14522e-05 -0.0241373 4.25338e-09)
(0.00037971 -0.0677464 8.83416e-09)
(0.00037971 -0.0677463 1.01035e-08)
(0.000353691 -0.0681949 8.77284e-09)
(0.000353692 -0.0681947 1.01169e-08)
(4.44581e-05 -0.0239716 1.2655e-08)
(4.44941e-05 -0.0239715 1.96416e-08)
(4.14562e-05 -0.0241373 1.23314e-08)
(4.14901e-05 -0.0241372 1.90353e-08)
(0.000379775 -0.0677461 6.75718e-08)
(0.000380154 -0.0677461 0.918093)
(0.000353753 -0.0681946 6.38331e-08)
(0.000354108 -0.0681945 0.918449)
(4.4735e-05 -0.0239715 -2.48173e-08)
(4.57701e-05 -0.0239714 0.906102)
(4.17153e-05 -0.0241372 -2.25467e-08)
(4.26831e-05 -0.0241371 0.906449)
(0.00043617 -0.0667639 -0.91672)
(0.000435742 -0.0667639 -7.53551e-08)
(0.000407513 -0.0672694 -0.917092)
(0.00040711 -0.0672694 -7.1304e-08)
(5.2369e-05 -0.0236086 -0.904762)
(5.11902e-05 -0.0236086 2.97666e-08)
(4.89957e-05 -0.0237953 -0.905125)
(4.78901e-05 -0.0237954 2.72992e-08)
(0.000435668 -0.066764 -9.88203e-09)
(0.000435669 -0.0667642 -8.8302e-09)
(0.000407041 -0.0672696 -9.96589e-09)
(0.000407041 -0.0672697 -8.78856e-09)
(5.09161e-05 -0.0236087 -2.07507e-08)
(5.08755e-05 -0.0236088 -1.31874e-08)
(4.7633e-05 -0.0237954 -2.01491e-08)
(4.75948e-05 -0.0237955 -1.2871e-08)
(0.00043567 -0.0667643 -3.74733e-09)
(0.00043567 -0.0667643 3.87088e-09)
(0.000407042 -0.0672698 -3.71212e-09)
(0.000407042 -0.0672698 3.80591e-09)
(5.08711e-05 -0.0236088 -4.41152e-09)
(5.08711e-05 -0.0236088 4.53733e-09)
(4.75905e-05 -0.0237955 -4.32698e-09)
(4.75905e-05 -0.0237955 4.43384e-09)
(0.000435669 -0.0667642 8.94682e-09)
(0.000435668 -0.066764 1.00205e-08)
(0.000407041 -0.0672697 8.88292e-09)
(0.000407041 -0.0672696 1.00573e-08)
(5.08755e-05 -0.0236088 1.3316e-08)
(5.09161e-05 -0.0236087 2.08723e-08)
(4.75948e-05 -0.0237955 1.29727e-08)
(4.76331e-05 -0.0237954 2.02388e-08)
(0.000435742 -0.0667639 7.5415e-08)
(0.00043617 -0.0667639 0.91672)
(0.00040711 -0.0672694 7.13974e-08)
(0.000407513 -0.0672694 0.917092)
(5.11902e-05 -0.0236086 -2.97122e-08)
(5.2369e-05 -0.0236086 0.904762)
(4.78901e-05 -0.0237954 -2.72094e-08)
(4.89957e-05 -0.0237953 0.905125)
(0.000497392 -0.0656618 -0.915295)
(0.00049691 -0.0656618 -8.3763e-08)
(0.000466138 -0.0662282 -0.915669)
(0.000465683 -0.0662282 -7.93913e-08)
(5.95258e-05 -0.0232017 -0.903372)
(5.81918e-05 -0.0232018 3.51113e-08)
(5.58755e-05 -0.0234108 -0.903737)
(5.46205e-05 -0.0234108 3.24688e-08)
(0.000496828 -0.0656619 -9.67376e-09)
(0.00049683 -0.0656621 -8.86781e-09)
(0.000465606 -0.0662283 -9.79774e-09)
(0.000465607 -0.0662285 -8.83935e-09)
(5.78819e-05 -0.0232018 -2.19652e-08)
(5.78363e-05 -0.0232019 -1.38133e-08)
(5.43288e-05 -0.0234109 -2.13469e-08)
(5.42857e-05 -0.023411 -1.34947e-08)
(0.000496832 -0.0656622 -3.79328e-09)
(0.000496832 -0.0656622 4.02604e-09)
(0.000465609 -0.0662286 -3.77183e-09)
(0.000465609 -0.0662286 3.94295e-09)
(5.78316e-05 -0.0232019 -4.55784e-09)
(5.78316e-05 -0.0232019 4.78486e-09)
(5.42811e-05 -0.023411 -4.48435e-09)
(5.42811e-05 -0.023411 4.65881e-09)
(0.00049683 -0.0656621 9.08955e-09)
(0.000496828 -0.0656619 9.90138e-09)
(0.000465607 -0.0662285 9.01285e-09)
(0.000465606 -0.0662284 9.96112e-09)
(5.78363e-05 -0.0232019 1.40437e-08)
(5.78819e-05 -0.0232018 2.21787e-08)
(5.42857e-05 -0.023411 1.36699e-08)
(5.43288e-05 -0.0234109 2.15154e-08)
(0.00049691 -0.0656618 8.38222e-08)
(0.000497392 -0.0656618 0.915295)
(0.000465684 -0.0662282 7.95333e-08)
(0.000466138 -0.0662282 0.915669)
(5.81918e-05 -0.0232018 -3.50135e-08)
(5.95257e-05 -0.0232017 0.903372)
(5.46204e-05 -0.0234109 -3.22902e-08)
(5.58754e-05 -0.0234108 0.903737)
(0.000563724 -0.0644325 -0.913822)
(0.000563186 -0.0644325 -9.27058e-08)