/*--------------------------------*- C++ -*----------------------------------*\
  =========                 |
  \\      /  F ield         | OpenFOAM: The Open Source CFD Toolbox
   \\    /   O peration     | Website:  https://openfoam.org
    \\  /    A nd           | Version:  9
     \\/     M anipulation  |
\*---------------------------------------------------------------------------*/
FoamFile
{
    format      ascii;
    class       volScalarField;
    location    "1.4";
    object      epsilon;
}
// * * * * * * * * * * * * * * * * * * * * * * * * * * * * * * * * * * * * * //

dimensions      [0 2 -3 0 0 0 0];

internalField   nonuniform List<scalar> 
36360
(
0.604938
0.614425
0.06846
0.107223
0.0447228
0.0470616
0.00858877
0.00769984
0.0729789
0.00715976
0.00908421
0.00522386
0.00810226
0.00502535
0.00599619
0.00628549
0.00350385
0.00350384
0.00571387
0.00571387
0.00519896
0.00519894
0.00622371
0.00622371
0.00715971
0.0729778
0.00522384
0.00908422
0.00502531
0.00810221
0.00628548
0.00599615
0.614417
0.604923
0.107224
0.0684584
0.0470611
0.0447208
0.00769983
0.00858871
2.69315
2.10269
1.77328
1.42574
1.20387
0.869671
0.370952
0.317438
0.722116
0.187751
0.344953
0.0468654
0.229681
0.0286748
0.0456924
0.00677767
0.029394
0.0293962
0.00503501
0.00503512
0.00538113
0.00538131
0.00422596
0.00422596
0.187757
0.722122
0.0468664
0.344952
0.0286774
0.229693
0.00677776
0.0456936
2.1027
2.69316
1.42573
1.77327
0.869691
1.20387
0.317439
0.370939
3.84193
3.01821
3.35523
2.6204
2.5937
1.87021
1.97561
1.40717
1.32757
0.571893
1.0505
0.380091
0.821366
0.302994
0.525811
0.123163
0.277491
0.277501
0.121434
0.121441
0.10219
0.1022
0.0212817
0.021284
0.571918
1.32761
0.380106
1.05052
0.303028
0.821424
0.123177
0.525842
3.01827
3.842
2.62043
3.35527
1.87029
2.59377
1.40722
1.97564
4.50132
3.5797
4.21076
3.32913
3.49554
2.6008
3.08819
2.26348
1.7599
0.918005
1.56131
0.753387
1.34629
0.716919
1.09639
0.510707
0.58672
0.586738
0.436835
0.436849
0.467269
0.467295
0.276453
0.27647
0.918052
1.75998
0.753425
1.56136
0.716994
1.34641
0.510761
1.09648
3.57981
4.50145
3.32921
4.21086
2.60094
3.49568
2.26359
3.08829
4.91922
3.9487
4.7324
3.78247
4.11952
3.13546
3.83493
2.88928
2.06818
1.1859
1.9275
1.06229
1.76151
1.07452
1.56814
0.906683
0.836073
0.836096
0.720497
0.720519
0.804857
0.804894
0.646266
0.646298
1.18597
2.06828
1.06235
1.92759
1.07463
1.76167
0.906774
1.56828
3.94885
4.91942
3.7826
4.73256
3.13566
4.11972
2.88945
3.83511
5.18713
4.19057
5.0679
4.08243
4.54906
3.51296
4.35513
3.34174
2.27931
1.3749
2.18431
1.28949
2.06418
1.33972
1.92619
1.21859
1.01401
1.01404
0.933461
0.933488
1.05508
1.05513
0.940844
0.940887
1.37498
2.27944
1.28956
2.18443
1.33986
2.06438
1.21871
1.92638
4.19076
5.18739
4.0826
5.06812
3.51321
4.5493
3.34196
4.35536
5.35061
4.34068
5.27923
4.27486
4.82812
3.76157
4.70465
3.65124
2.4149
1.49844
2.3552
1.44385
2.26733
1.51887
2.17692
1.43906
1.13114
1.13117
1.0793
1.07933
1.22404
1.2241
1.14876
1.14881
1.49854
2.41505
1.44395
2.35534
1.51903
2.26756
1.43921
2.17714
4.34091
5.35092
4.27508
5.2795
3.76183
4.82837
3.65149
4.7049
5.43995
4.42442
5.40234
4.38895
4.99304
3.91001
4.92229
3.84617
2.49391
1.57197
2.46026
1.54049
2.39069
1.62838
2.33751
1.58111
1.20148
1.20151
1.17129
1.17132
1.3275
1.32756
1.2828
1.28286
1.57206
2.49406
1.54059
2.46042
1.62854
2.39092
1.58127
2.33775
4.42466
5.44028
4.38918
5.40264
3.91028
4.99328
3.84643
4.92256
5.47802
4.46189
5.46357
4.44733
5.07602
3.98564
5.04254
3.95498
2.5328
1.60973
2.51736
1.59451
2.45527
1.68649
2.42896
1.6627
1.23824
1.23827
1.22332
1.22335
1.38273
1.38278
1.36006
1.36011
1.60981
2.53293
1.59461
2.51751
1.68665
2.4555
1.66287
2.42919
4.4621
5.47832
4.44757
5.46386
3.9859
5.07624
3.95524
5.04279
5.48122
4.46763
5.48267
4.46762
5.10227
4.01069
5.09473
4.00311
2.54441
1.62334
2.54129
1.61894
2.47932
1.70948
2.47128
1.70143
1.2524
1.25241
1.24758
1.24761
1.40516
1.40521
1.39715
1.3972
1.62336
2.54439
1.61901
2.54138
1.7096
2.47944
1.70158
2.47149
4.46765
5.48125
4.46775
5.48283
4.01066
5.10214
4.00334
5.09491
5.46082
4.45256
5.47357
4.4623
5.09481
4.00529
5.10164
4.01051
2.53918
1.62221
2.5434
1.62403
2.47883
1.71098
2.4809
1.71189
1.25274
1.25272
1.25376
1.25376
1.40743
1.40747
1.40791
1.40796
1.62208
2.53881
1.62399
2.54325
1.71105
2.47874
1.71198
2.48093
4.45178
5.46008
4.46216
5.47345
4.00471
5.09399
4.01031
5.10131
5.42511
4.42433
5.44387
4.43918
5.06298
3.97886
5.08042
3.99345
2.52291
1.61174
2.53192
1.61786
2.46232
1.69949
2.47203
1.70669
1.24469
1.24462
1.24961
1.24956
1.398
1.39801
1.40414
1.40417
1.61144
2.52216
1.61764
2.53135
1.69945
2.46191
1.7067
2.47175
4.42242
5.42293
4.43778
5.44234
3.97764
5.06138
3.9925
5.07916
5.38529
4.39225
5.40504
4.40831
5.02142
3.9438
5.04263
3.96174
2.50203
1.59683
2.51277
1.60466
2.43834
1.68123
2.45085
1.69084
1.23235
1.23225
1.23889
1.2388
1.38211
1.38211
1.3905
1.3905
1.59641
2.50098
1.60429
2.51186
1.6811
2.43771
1.69075
2.45031
4.39025
5.38264
4.40612
5.40229
3.94213
5.01921
3.96024
5.04069
5.34175
4.35726
5.36318
4.37434
4.97495
3.9043
4.99826
3.9241
2.479
1.57994
2.49062
1.58857
2.41087
1.66002
2.4248
1.67082
1.21814
1.21803
1.22543
1.22532
1.3635
1.36349
1.37299
1.37298
1.57948
2.47787
1.58811
2.4895
1.65986
2.41017
1.67066
2.42409
4.35607
5.34022
4.37261
5.36076
3.90251
4.9725
3.92228
4.99584
5.29797
4.32221
5.31927
4.33929
4.92585
3.86262
4.95025
3.8833
2.45498
1.56221
2.46699
1.57116
2.38188
1.63751
2.39641
1.64883
1.20315
1.20305
1.21074
1.21064
1.34369
1.34368
1.35366
1.35365
1.56181
2.45398
1.57074
2.46593
1.63738
2.38128
1.64868
2.39575
4.32037
5.29583
4.3378
5.31769
3.86107
4.92371
3.8816
4.94793
5.25295
4.28624
5.2748
4.30364
4.87535
3.81983
4.90039
3.84102
2.43048
1.54407
2.44272
1.5532
2.35209
1.61435
2.36698
1.62596
1.18778
1.18771
1.19554
1.19546
1.32329
1.32329
1.33352
1.33351
1.54374
2.42959
1.55284
2.44177
1.61428
2.35162
1.62586
2.36643
4.28422
5.25072
4.30202
5.27289
3.81841
4.87337
3.83951
4.89833
5.20567
4.24871
5.22906
4.26709
4.82357
3.77605
4.84928
3.79776
2.40545
1.52559
2.41797
1.5349
2.32168
1.5907
2.33689
1.60255
1.17214
1.1721
1.18004
1.17999
1.30245
1.30248
1.31289
1.31291
1.5254
2.4049
1.53464
2.41724
1.59073
2.32145
1.60253
2.33652
4.24709
5.20374
4.26516
5.22676
3.77523
4.8223
3.79657
4.84759
5.15749
4.21064
5.18129
4.22945
4.77024
3.73106
4.79676
3.75339
2.37986
1.5067
2.39267
1.51622
2.29052
1.56651
2.30611
1.57864
1.15617
1.15617
1.16424
1.16422
1.28114
1.28119
1.29183
1.29187
1.50662
2.37951
1.5161
2.39225
1.56662
2.29049
1.57871
2.30601
4.2098
5.15624
4.22809
5.17952
3.7306
4.76949
3.75282
4.79583
5.10646
4.17082
5.13167
4.1903
4.71536
3.68484
4.74267
3.70781
2.3536
1.48738
2.36676
1.49713
2.25857
1.54171
2.27457
1.55416
1.13983
1.13984
1.14809
1.1481
1.2593
1.25936
1.27026
1.27032
1.48739
2.35352
1.4971
2.36655
1.54189
2.25873
1.5543
2.27463
4.17147
5.10717
4.19012
5.13108
3.68482
4.71515
3.70755
4.74217
5.05489
4.1309
5.08021
4.15048
4.65867
3.63719
4.68691
3.66088
2.32663
1.46754
2.34015
1.47755
2.22574
1.51624
2.2422
1.52903
1.12305
1.12308
1.13153
1.13156
1.23685
1.23692
1.24812
1.24819
1.4676
2.32668
1.4776
2.34016
1.51643
2.22599
1.52922
2.24241
4.13099
5.05517
4.15092
5.081
3.63742
4.65883
3.66101
4.68692
5.00156
4.08964
5.02772
4.10983
4.60014
3.58805
4.62934
3.61253
2.29883
1.44712
2.31279
1.45744
2.19193
1.49002
2.2089
1.5032
1.10579
1.10582
1.11453
1.11456
1.21374
1.2138
1.22535
1.22542
1.44718
2.29889
1.45751
2.31286
1.4902
2.19218
1.50339
2.20915
4.08933
5.00144
4.10999
5.02807
3.58834
4.60038
3.61279
4.62955
4.94471
4.04573
4.973
4.06738
4.53942
3.53709
4.56969
3.56245
2.27004
1.42605
2.28448
1.43669
2.15701
1.46299
2.17453
1.47657
1.08801
1.08804
1.097
1.09703
1.18994
1.19001
1.2019
1.20196
1.42611
2.27012
1.43675
2.28456
1.46316
2.15723
1.47675
2.17476
4.0456
4.94449
4.06704
4.9726
3.53737
4.53967
3.56274
4.56995
4.88774
4.00283
4.91472
4.02298
4.47752
3.48543
4.5079
3.51069
2.24093
1.40455
2.25533
1.41535
2.12135
1.43529
2.13913
1.44918
1.06981
1.06983
1.07899
1.07901
1.16552
1.16558
1.17778
1.17784
1.4046
2.24098
1.4154
2.2554
1.43545
2.12155
1.44934
2.13934
4.00303
4.8881
4.02312
4.9148
3.48562
4.47768
3.51092
4.50813
4.83267
3.96102
4.85967
3.98143
4.41586
3.43379
4.44648
3.45943
2.21187
1.38276
2.22639
1.39373
2.08519
1.40699
2.10329
1.42119
1.05124
1.05127
1.06061
1.06064
1.1405
1.14057
1.15307
1.15313
1.38282
2.21194
1.39379
2.22645
1.40716
2.08541
1.42136
2.1035
3.96107
4.83278
3.98144
4.8598
3.43398
4.41602
3.4596
4.44662
4.77333
3.91582
4.80317
3.93843
4.35111
3.37938
4.38373
3.40673
2.18148
1.36025
2.19686
1.37166
2.04775
1.37782
2.06662
1.39251
1.03212
1.03216
1.04181
1.04184
1.11472
1.11479
1.1277
1.12777
1.36035
2.18162
1.37174
2.19697
1.37801
2.04802
1.39269
2.06686
3.91601
4.7736
3.93856
4.80335
3.37968
4.3514
3.40697
4.38395
4.70912
3.86708
4.74119
3.89135
4.28223
3.32168
4.31687
3.35065
2.14919
1.33662
2.16553
1.34862
2.00843
1.34741
2.02827
1.36276
1.01217
1.01221
1.0223
1.02234
1.08793
1.088
1.10144
1.10151
1.33674
2.14938
1.34873
2.16571
1.34762
2.00875
1.36295
2.02857
3.86736
4.70951
3.89159
4.7415
3.32207
4.28263
3.35101
4.31722
4.64141
3.81566
4.67509
3.84117
4.2099
3.26119
4.24616
3.29148
2.11517
1.31181
2.13233
1.32438
1.96727
1.31569
1.98801
1.33168
0.991282
0.991329
1.00188
1.00192
1.06003
1.06011
1.0741
1.07417
1.31194
2.11539
1.32451
2.13255
1.31591
1.96761
1.3319
1.98834
3.81598
4.64185
3.84148
4.67549
3.26161
4.21034
3.29189
4.24659
4.57112
3.76224
4.60601
3.78869
4.13488
3.19843
4.17241
3.22981
2.07976
1.28596
2.09758
1.29903
1.92456
1.28278
1.94604
1.29935
0.969544
0.969593
0.980548
0.980597
1.0311
1.03118
1.04567
1.04574
1.28611
2.07999
1.29917
2.09781
1.283
1.9249
1.29957
1.94638
3.76258
4.57159
3.78903
4.60644
3.19886
4.13534
3.23023
4.17287
4.4989
3.70729
4.53469
3.73445
4.05772
3.13378
4.09628
3.16608
2.04326
1.25928
2.0616
1.27274
1.88056
1.24887
1.90265
1.26592
0.947084
0.947134
0.958432
0.958482
1.00128
1.00135
1.01627
1.01635
1.25942
2.04349
1.27289
2.06183
1.24909
1.8809
1.26614
1.903
3.70764
4.49936
3.7348
4.53513
3.13422
4.05818
3.16651
4.09674
4.42512
3.6511
4.46166
3.67887
3.9788
3.0676
4.0182
3.10061
2.00584
1.23187
2.02462
1.24568
1.83549
1.21412
1.85809
1.23157
0.924006
0.924055
0.935652
0.935703
0.970704
0.970778
0.98606
0.986134
1.23202
2.00607
1.24583
2.02486
1.21433
1.83583
1.23179
1.85844
3.65144
4.42559
3.67922
4.46211
3.06803
3.97926
3.10104
4.01867
4.35001
3.59368
4.38721
3.62207
3.89828
3.00031
3.93849
3.03387
1.96756
1.20379
1.98678
1.21795
1.78945
1.17858
1.81255
1.19643
0.900337
0.900387
0.912281
0.912332
0.939427
0.939501
0.955138
0.955211
1.20394
1.96779
1.21809
1.98702
1.17879
1.78979
1.19665
1.81289
3.59402
4.35047
3.62242
4.38765
3.00074
3.89874
3.0343
3.93896
4.27359
3.53501
4.31147
3.56404
3.81585
2.93141
3.8571
2.96588
1.9283
1.17492
1.94804
1.1895
1.74221
1.14209
1.76597
1.16045
0.875971
0.87602
0.888287
0.888337
0.907323
0.907395
0.923478
0.923551
1.17506
1.92853
1.18964
1.94827
1.14231
1.74255
1.16067
1.7663
3.53535
4.27404
3.56439
4.3119
2.93183
3.81631
2.96631
3.85757
4.19554
3.47478
4.23431
3.50468
3.73065
2.86
3.77345
2.89587
1.88769
1.14491
1.90818
1.16011
1.69319
1.10422
1.71794
1.12336
0.850582
0.850631
0.863466
0.863516
0.873986
0.874058
0.890831
0.890903
1.14505
1.88792
1.16026
1.90841
1.10443
1.69352
1.12357
1.71827
3.47511
4.19598
3.50501
4.23474
2.86042
3.7311
2.89629
3.77391
4.11489
3.41207
4.15513
3.44336
3.64092
2.78464
3.68628
2.82273
1.84493
1.11304
1.86662
1.12929
1.64126
1.06403
1.66765
1.08447
0.823518
0.823566
0.837346
0.837395
0.838598
0.838668
0.856604
0.856674
1.11318
1.84515
1.12944
1.86685
1.06423
1.64159
1.08468
1.66798
3.4124
4.11532
3.44369
4.15555
2.78506
3.64137
2.82314
3.68673
4.02975
3.34518
4.07256
3.37885
3.54354
2.70287
3.59323
2.74455
1.79855
1.07807
1.82229
1.09607
1.5845
1.01997
1.6136
1.04259
0.793645
0.793692
0.809054
0.809103
0.799783
0.799851
0.819713
0.819781
1.07821
1.79877
1.09621
1.82251
1.02017
1.58482
1.04279
1.61392
3.3455
4.03017
3.37917
4.07297
2.70328
3.54399
2.74497
3.59368
3.93619
3.27073
3.9839
3.30876
3.4331
2.61073
3.4902
2.65821
1.74585
1.03787
1.77321
1.05882
1.51984
0.969703
1.55337
0.995775
0.759156
0.759203
0.777145
0.777194
0.755552
0.755619
0.778472
0.778539
1.03801
1.74607
1.05896
1.77343
0.969902
1.52016
0.995975
1.55368
3.27105
3.9366
3.30908
3.9843
2.61114
3.43355
2.65862
3.49065
3.82557
3.18103
3.88341
3.22816
3.30001
2.50179
3.37002
2.55872
1.68126
0.988771
1.71557
1.01478
1.44237
0.909988
1.48309
0.941242
0.717423
0.717471
0.739412
0.739461
0.703557
0.703623
0.730647
0.730713
0.98891
1.68148
1.01492
1.7158
0.910185
1.44269
0.941439
1.48341
3.18134
3.82599
3.22848
3.8838
2.5022
3.30047
2.55913
3.37048
3.677
3.05115
3.7576
3.12387
3.12687
2.36231
3.21971
2.43726
1.59003
0.923827
1.64062
0.958909
1.343
0.837008
1.39624
0.875352
0.665155
0.665202
0.692812
0.69286
0.642342
0.642406
0.674057
0.674122
0.923966
1.59025
0.95905
1.64085
0.837201
1.34332
0.875547
1.39655
3.05146
3.67742
3.12419
3.75799
2.36273
3.12735
2.43768
3.22017
3.44576
2.75471
3.57627
2.94371
2.87224
2.1204
3.01598
2.26559
1.42853
0.833107
1.52254
0.882033
1.20257
0.74991
1.27954
0.794815
0.601857
0.601904
0.634517
0.634564
0.575468
0.57553
0.608982
0.609045
0.833242
1.42875
0.882173
1.52276
0.750096
1.20288
0.795005
1.27985
2.75501
3.44619
2.94402
3.57668
2.12081
2.87273
2.26602
3.01647
1.26429
1.06581
0.156663
0.178864
0.982212
0.864792
0.112976
0.135979
0.195077
0.0207121
0.0144878
0.00555042
0.13367
0.0125767
0.011103
0.00541772
0.0043855
0.00438552
0.00555435
0.00555436
0.00385423
0.00385421
0.00578411
0.00578411
0.0207123
0.195073
0.0055504
0.0144877
0.0125766
0.133667
0.0054177
0.0111028
1.06579
1.26426
0.178863
0.156657
0.864774
0.98217
0.135977
0.11297
3.79127
2.95285
2.73381
2.12371
3.38108
2.62608
2.37397
1.85111
1.24948
0.458654
0.705458
0.155486
1.03554
0.338422
0.551203
0.101301
0.135879
0.135886
0.021396
0.0213978
0.0790953
0.0791004
0.0111406
0.0111413
0.458663
1.24948
0.15549
0.705456
0.338431
1.03555
0.101304
0.551202
2.95286
3.79132
2.12371
2.73381
2.62609
3.3811
1.85111
2.37396
5.06783
4.02919
4.53274
3.56713
4.59263
3.6298
4.0851
3.19923
2.06955
1.06718
1.69998
0.774388
1.76176
0.848701
1.43503
0.602074
0.64417
0.644182
0.384978
0.384989
0.47349
0.473502
0.259351
0.259361
1.06721
2.06959
0.77441
1.70001
0.84873
1.7618
0.602095
1.43505
4.02926
5.06795
3.56717
4.53281
3.62986
4.59271
3.19927
4.08515
5.76514
4.65794
5.46309
4.38165
5.25914
4.21868
4.96909
3.95905
2.62222
1.5478
2.3724
1.32526
2.25289
1.26103
2.03015
1.06888
1.08963
1.08965
0.881127
0.881144
0.850478
0.850497
0.672679
0.672695
1.54785
2.6223
1.3253
2.37246
1.26108
2.25296
1.06893
2.03021
4.65807
5.76534
4.38175
5.46324
4.21879
5.25929
3.95914
4.9692
6.17729
5.04677
5.99642
4.8744
5.66179
4.58874
5.48388
4.42386
2.99567
1.89444
2.82735
1.73641
2.58916
1.56392
2.43704
1.42534
1.42028
1.42031
1.26879
1.26881
1.13596
1.13599
1.0047
1.00472
1.89451
2.99578
1.73647
2.82745
1.56399
2.58927
1.4254
2.43714
5.04697
6.1776
4.87457
5.99665
4.58891
5.66202
4.424
5.48406
6.42325
5.28728
6.31564
5.18119
5.90849
4.82201
5.79981
4.71859
3.2417
2.13136
3.13197
2.02494
2.81328
1.77295
2.71303
1.67886
1.64983
1.64985
1.54638
1.54641
1.33587
1.3359
1.24564
1.24566
2.13145
3.24185
2.02502
3.13211
1.77303
2.81342
1.67894
2.71316
5.28755
6.42365
5.18142
6.31597
4.82223
5.9088
4.71879
5.80005
6.56263
5.42869
6.50286
5.36748
6.0524
4.96181
5.99019
4.90097
3.39539
2.28385
3.32816
2.21669
2.95447
1.90806
2.89256
1.84849
1.79944
1.79947
1.73334
1.73337
1.46646
1.46649
1.40874
1.40877
2.28395
3.39558
2.21679
3.32833
1.90815
2.95463
1.84858
2.89271
5.42902
6.56313
5.36778
6.50328
4.96207
6.05277
4.90121
5.9905
6.63115
5.50242
6.60321
5.4718
6.12626
5.0365
6.09567
5.0052
3.48297
2.37404
3.44594
2.33552
3.0354
1.98797
3.00108
1.95382
1.88927
1.8893
1.85072
1.85075
1.54468
1.54472
1.51112
1.51115
2.37414
3.48317
2.33562
3.44613
1.98807
3.03557
1.95392
3.00125
5.50279
6.63171
5.47214
6.6037
5.03679
6.12666
5.00548
6.09603
6.65244
5.53037
6.6457
5.52033
6.15275
5.06667
6.14347
5.05544
3.52459
2.42022
3.50837
2.40169
3.07417
2.02876
3.05896
2.01237
1.93655
1.93659
1.91736
1.91739
1.5856
1.58563
1.569
1.56903
2.42033
3.52479
2.4018
3.50857
2.02885
3.07433
2.01247
3.05913
5.53075
6.65303
5.52071
6.64624
5.06695
6.15315
5.05573
6.14384
6.64339
5.52833
6.65017
5.5316
6.14818
5.06724
6.15267
5.0692
3.53543
2.43672
3.53302
2.4315
3.08456
2.04317
3.08209
2.0386
1.95507
1.95509
1.94878
1.94881
1.60135
1.60137
1.59601
1.59604
2.43679
3.53558
2.4316
3.5332
2.0432
3.08461
2.03867
3.08222
5.52864
6.6439
5.53195
6.65069
5.06736
6.14839
5.06943
6.15298
6.61382
5.50665
6.62999
5.51902
6.12217
5.04804
6.13706
5.05948
3.52684
2.43454
3.53309
2.4374
3.07707
2.04117
3.08261
2.04365
1.95542
1.95543
1.95699
1.95701
1.60146
1.60144
1.60282
1.60283
2.43455
3.52686
2.43745
3.53319
2.0411
3.0769
2.04364
3.08257
5.50673
6.61403
5.51922
6.63033
5.04781
6.12191
5.05942
6.137
6.56857
5.46993
6.59255
5.48954
6.08016
5.01424
6.10216
5.03205
3.50461
2.42006
3.51707
2.42857
3.05721
2.02848
3.06819
2.03583
1.94435
1.94433
1.95114
1.95114
1.59181
1.59176
1.59764
1.59761
2.42001
3.50457
2.42854
3.51701
2.02827
3.05677
2.03569
3.06789
5.47044
6.56901
5.48952
6.59244
5.01337
6.07921
5.03166
6.10176
6.51254
5.42405
6.54086
5.44721
6.03109
4.97449
6.0555
4.99418
3.47479
2.3989
3.49031
2.41013
3.03183
2.01053
3.04487
2.01996
1.92691
1.92686
1.93627
1.93625
1.57705
1.57695
1.58489
1.58482
2.39874
3.47463
2.41004
3.49027
2.01014
3.03097
2.01967
3.04426
5.42489
6.51386
5.44813
6.5419
4.97291
6.02925
4.99306
6.0541
6.45604
5.37744
6.48364
5.40038
5.9823
4.93495
6.00582
4.95416
3.44252
2.37488
3.45882
2.38721
3.00439
1.9903
3.01819
2.00062
1.9066
1.90652
1.9171
1.91703
1.56003
1.5599
1.56877
1.56865
2.37457
3.44183
2.38695
3.45834
1.98979
3.00318
2.00015
3.01709
5.3764
6.45486
5.40011
6.48372
4.93255
5.97949
4.95206
6.00332
6.39914
5.33053
6.42681
5.35329
5.93233
4.89397
5.95679
4.91399
3.40955
2.34978
3.42604
2.3625
2.97604
1.9691
2.9902
1.9798
1.88511
1.88503
1.89606
1.89598
1.54205
1.54194
1.55117
1.55105
2.34943
3.40868
2.36218
3.42532
1.96863
2.97492
1.97931
2.98903
5.32983
6.3985
5.35265
6.42577
4.89218
5.92998
4.91164
5.95377
6.34254
5.28423
6.37002
5.30674
5.88039
4.85193
5.90583
4.87239
3.37622
2.32427
3.39291
2.33718
2.9472
1.94747
2.9616
1.95837
1.86316
1.86305
1.8743
1.8742
1.52365
1.52355
1.53295
1.53283
2.32381
3.37499
2.33675
3.39179
1.94704
2.94611
1.95791
2.96046
5.28138
6.33929
5.30472
6.36805
4.85018
5.87826
4.87056
5.90356
6.28455
5.2367
6.31284
5.25996
5.82797
4.80972
5.85343
4.83032
3.34201
2.29821
3.3592
2.3114
2.91767
1.92539
2.93244
1.93652
1.84083
1.84075
1.85216
1.85206
1.5049
1.50484
1.51437
1.51429
2.29789
3.34108
2.311
3.35809
1.92511
2.91694
1.93616
2.93154
5.2341
6.28157
5.25744
6.30987
4.80814
5.82625
4.82891
5.85182
6.22333
5.18699
6.25346
5.21122
5.77267
4.76551
5.79985
4.78699
3.30729
2.27179
3.32469
2.28516
2.88759
1.9029
2.90264
1.91423
1.81815
1.81812
1.82966
1.82961
1.4858
1.48577
1.49545
1.49541
2.27162
3.30667
2.28492
3.32396
1.9027
2.88695
1.914
2.90196
5.18485
6.2212
5.20906
6.2509
4.76395
5.7709
4.78552
5.79809
6.1613
5.13665
6.192
5.16167
5.71655
4.72109
5.744
4.74285
3.27169
2.24473
3.2896
2.25844
2.85665
1.87984
2.87215
1.89147
1.79499
1.79499
1.80675
1.80674
1.46626
1.46627
1.47614
1.47613
2.24471
3.27135
2.25834
3.28907
1.87979
2.85636
1.89135
2.87167
5.13418
6.15782
5.15877
6.18883
4.72008
5.71545
4.74147
5.74241
6.0955
5.08406
6.128
5.10981
5.65834
4.67482
5.68712
4.69763
3.23529
2.2171
3.25358
2.2311
2.82494
1.85622
2.84084
1.86814
1.77128
1.77131
1.78333
1.78334
1.44623
1.44625
1.45636
1.45638
2.21715
3.23534
2.23112
3.25347
1.85626
2.82492
1.86815
2.84071
5.08482
6.0964
5.10921
6.12637
4.6749
5.65821
4.69695
5.68611
6.02955
5.03149
6.06187
5.0574
5.59655
4.62636
5.62705
4.65013
3.19778
2.18863
3.21666
2.20307
2.79218
1.83189
2.80862
1.84418
1.74691
1.74695
1.7593
1.75933
1.42562
1.42565
1.43605
1.43608
2.18872
3.19787
2.20313
3.21673
1.83195
2.79221
1.84424
2.80864
5.03105
6.02917
5.05748
6.06254
4.62659
5.59687
4.65033
5.62727
5.96026
4.97648
5.99428
5.00338
5.53368
4.57727
5.56446
4.60135
3.15908
2.15935
3.17857
2.17419
2.75843
1.80683
2.77536
1.81948
1.72186
1.7219
1.73459
1.73463
1.40441
1.40443
1.41513
1.41516
2.15947
3.15931
2.1743
3.17874
1.8069
2.75848
1.81955
2.77541
4.97678
5.96072
5.00355
5.99437
4.57719
5.53374
4.6016
5.56486
5.88855
4.91959
5.92392
4.94758
5.46811
4.52643
5.50007
4.55098
3.1193
2.12929
3.13924
2.14448
2.72397
1.7812
2.74114
1.79409
1.69618
1.69623
1.7092
1.70924
1.38268
1.38271
1.39364
1.39367
2.12945
3.11959
2.14462
3.1395
1.78127
2.72404
1.79416
2.7412
4.9205
5.88942
4.9479
5.92417
4.52626
5.46803
4.55094
5.50008
5.81695
4.86359
5.85143
4.89047
5.40456
4.47767
5.43499
4.50099
3.07964
2.09892
3.09939
2.11423
2.68961
1.75527
2.70665
1.7683
1.67004
1.67009
1.68328
1.68333
1.36056
1.36059
1.37172
1.37175
2.09908
3.07996
2.1144
3.09971
1.75537
2.68977
1.76838
2.70677
4.86455
5.81826
4.89155
5.85271
4.47779
5.40471
4.50086
5.4348
5.7453
4.80727
5.78065
4.83506
5.33968
4.42749
5.37193
4.45236
3.03911
2.06776
3.05957
2.08358
2.65444
1.72866
2.67219
1.74213
1.64317
1.64323
1.65683
1.65689
1.33782
1.33786
1.34934
1.34938
2.06793
3.03942
2.08375
3.05988
1.72878
2.65465
1.74225
2.67238
4.80786
5.74619
4.83585
5.78176
4.42782
5.34009
4.4525
5.37209
5.66839
4.74669
5.70689
4.77695
5.26877
4.37268
5.30428
4.40003
2.99626
2.03511
3.01802
2.05174
2.61694
1.70068
2.63594
1.71489
1.61513
1.61519
1.62943
1.62949
1.31406
1.31411
1.32613
1.32617
2.03528
2.99657
2.05192
3.01833
1.70082
2.61717
1.71503
2.63617
4.74719
5.66912
4.77749
5.70764
4.37304
5.26927
4.40038
5.30472
5.58593
4.68184
5.62704
4.71413
5.19315
4.31434
5.23072
4.34327
2.95082
2.00073
2.97383
2.01822
2.57724
1.67125
2.59727
1.68617
1.58573
1.58579
1.6007
1.60076
1.28916
1.28921
1.30179
1.30184
2.00091
2.95113
2.01839
2.97413
1.67139
2.57748
1.68631
2.59752
4.68233
5.58662
4.71461
5.62769
4.31472
5.19368
4.34364
5.2312
5.49988
4.61418
5.54257
4.64773
5.11452
4.25364
5.15346
4.28366
2.9034
1.96488
2.92732
1.98306
2.53588
1.64059
2.55669
1.65609
1.55509
1.55515
1.57066
1.57071
1.26322
1.26327
1.27635
1.2764
1.96506
2.90371
1.98324
2.92763
1.64074
2.53613
1.65624
2.55694
4.61468
5.50057
4.64822
5.54322
4.25403
5.11506
4.28405
5.15396
5.41147
4.54457
5.45524
4.57902
5.03373
4.19125
5.07368
4.22205
2.85449
1.92784
2.87911
1.94659
2.49325
1.60894
2.51466
1.62491
1.5234
1.52346
1.53946
1.53952
1.2364
1.23645
1.24995
1.25
1.92802
2.8548
1.94676
2.87942
1.60909
2.49351
1.62506
2.51491
4.54506
5.41216
4.57951
5.45589
4.19164
5.03427
4.22244
5.07418
5.32137
4.47343
5.36593
4.5086
4.95128
4.12754
4.99203
4.15898
2.80437
1.88978
2.82957
1.90902
2.44959
1.57644
2.4715
1.59282
1.49078
1.49084
1.5073
1.50736
1.20883
1.20888
1.22275
1.2228
1.88996
2.80468
1.9092
2.82988
1.57659
2.44984
1.59298
2.47176
4.47391
5.32205
4.50909
5.36658
4.12794
4.95182
4.15938
4.99253
5.22989
4.4012
5.27514
4.43689
4.86752
4.06253
4.90889
4.09463
2.75315
1.85072
2.7789
1.87047
2.40494
1.54313
2.42735
1.55992
1.45723
1.45729
1.47422
1.47428
1.18051
1.18057
1.19481
1.19486
1.8509
2.75346
1.87064
2.77921
1.54328
2.4052
1.56007
2.42761
4.40168
5.23056
4.43737
5.27578
4.06292
4.86805
4.09503
4.90939
5.13702
4.32768
5.18298
4.36408
4.78255
3.99628
4.82455
4.02901
2.70064
1.81047
2.72708
1.83085
2.3592
1.50884
2.38218
1.52615
1.42254
1.4226
1.44014
1.4402
1.1513
1.15135
1.16608
1.16613
1.81065
2.70094
1.83103
2.72739
1.509
2.35945
1.52631
2.38244
4.32815
5.13767
4.36455
5.18361
3.99667
4.78307
4.02939
4.82504
5.04265
4.25248
5.08941
4.28978
4.6961
3.92853
4.73891
3.96209
2.64634
1.76849
2.67376
1.78982
2.31193
1.47318
2.33576
1.49125
1.3862
1.38626
1.40471
1.40477
1.12079
1.12084
1.13628
1.13633
1.76867
2.64664
1.79
2.67407
1.47333
2.31218
1.49141
2.33601
4.25294
5.04328
4.29025
5.09003
3.92891
4.69661
3.96247
4.73939
4.94601
4.17477
4.99406
4.21349
4.60736
3.85841
4.65147
3.8933
2.58924
1.72378
2.61824
1.74664
2.26224
1.43527
2.28743
1.4546
1.34722
1.34727
1.3672
1.36726
1.08817
1.08822
1.10484
1.10489
1.72396
2.58954
1.74682
2.61853
1.43542
2.26249
1.45476
2.28768
4.17523
4.94663
4.21394
4.99466
3.85877
4.60786
3.89367
4.65194
4.84525
4.09272
4.89572
4.13394
4.51455
3.78419
4.56102
3.82143
2.5274
1.67453
2.5591
1.69995
2.20842
1.39363
2.23596
1.41508
1.30391
1.30397
1.32632
1.32638
1.05206
1.05211
1.0707
1.07075
1.6747
2.52769
1.70013
2.55939
1.39378
2.20866
1.41523
2.23621
4.09315
4.84585
4.13439
4.89629
3.78455
4.51503
3.8218
4.56148
4.73561
4.00182
4.79141
4.0483
4.41347
3.70201
4.46485
3.74394
2.45684
1.61746
2.49359
1.64733
2.14714
1.34557
2.17899
1.37066
1.25346
1.25352
1.27988
1.27994
1.01022
1.01027
1.03207
1.03212
1.61763
2.45713
1.6475
2.49388
1.34571
2.14738
1.37081
2.17923
4.00225
4.73619
4.04873
4.79197
3.70236
4.41394
3.7443
4.4653
4.60482
3.89029
4.67355
3.94943
4.29355
3.60187
4.35639
3.65477
2.36845
1.54631
2.41582
1.58428
2.07088
1.28599
2.11163
1.3177
1.19131
1.19137
1.22428
1.22433
0.958978
0.959029
0.986093
0.986144
1.54648
2.36874
1.58445
2.4161
1.28614
2.07113
1.31785
2.11188
3.89071
4.60537
3.94985
4.67409
3.60222
4.294
3.65512
4.35683
4.42213
3.72067
4.52227
3.81675
4.12729
3.45063
4.21833
3.53626
2.23845
1.44914
2.31119
1.50203
1.9592
1.20487
2.02169
1.24902
1.11131
1.11137
1.15395
1.154
0.893277
0.893328
0.928258
0.928309
1.44932
2.23875
1.50221
2.31148
1.20502
1.95945
1.24917
2.02194
3.72109
4.42268
3.81717
4.5228
3.45097
4.12775
3.53661
4.21876
4.12946
3.33575
4.29474
3.57803
3.8566
3.09851
4.01068
3.32206
2.00907
1.31228
2.14117
1.38578
1.75784
1.08909
1.87473
1.15159
1.01289
1.01295
1.0637
1.06376
0.812028
0.81208
0.854061
0.854113
1.31247
2.00938
1.38596
2.14147
1.08924
1.75809
1.15174
1.87498
3.33618
4.13005
3.57845
4.29529
3.09886
3.85709
3.32241
4.01112
1.57038
1.28869
0.211128
0.228703
1.45011
1.19705
0.188737
0.205237
0.272992
0.0343922
0.0195491
0.00595961
0.23925
0.0278624
0.0170684
0.00578345
0.00578548
0.00578574
0.00530954
0.00530954
0.00512617
0.00512627
0.00545909
0.0054591
0.0343944
0.272995
0.00595966
0.0195497
0.0278632
0.239249
0.00578345
0.0170685
1.28869
1.57038
0.228707
0.211127
1.19704
1.45009
0.205237
0.188734
4.21124
3.29723
3.10398
2.4138
4.04547
3.1597
2.95856
2.29784
1.49281
0.60872
0.883869
0.229668
1.39391
0.545706
0.810783
0.197126
0.228492
0.228504
0.0426656
0.0426707
0.186037
0.186047
0.0321531
0.0321563
0.608735
1.49281
0.229679
0.883874
0.545722
1.39393
0.197134
0.810788
3.29725
4.21132
2.41381
3.10401
3.15973
4.04552
2.29785
2.95857
5.57426
4.46876
4.99832
3.96147
5.37113
4.29067
4.81315
3.80305
2.43382
1.35144
2.00601
0.994686
2.28357
1.23098
1.88089
0.902025
0.884315
0.88433
0.560706
0.56072
0.780365
0.78038
0.48521
0.485224
1.35148
2.43387
0.994715
2.00605
1.23102
2.28362
0.902054
1.88093
4.46885
5.57444
3.96153
4.99843
4.29076
5.37126
3.80311
4.81323
6.33108
5.16737
6.00298
4.85968
6.10031
4.95737
5.78455
4.66425
3.0814
1.93694
2.78799
1.66594
2.88872
1.7696
2.61501
1.52047
1.43594
1.43596
1.17813
1.17815
1.28435
1.28437
1.04884
1.04886
1.937
3.0815
1.66599
2.78808
1.76966
2.88881
1.52053
2.61509
5.16755
6.33137
4.85982
6.00319
4.95753
6.10054
4.66437
5.78471
6.77601
5.59977
6.58145
5.40841
6.52867
5.36867
6.34119
5.18662
3.52026
2.35846
3.32256
2.16641
3.29723
2.15661
3.11325
1.98033
1.84403
1.84406
1.65715
1.65717
1.65673
1.65676
1.48625
1.48627
2.35854
3.52042
2.16648
3.32269
2.15669
3.29737
1.9804
3.11337
5.60005
6.77643
5.40864
6.58178
5.36891
6.529
5.18682
6.34145
7.03723
5.86514
6.92355
5.74842
6.78121
5.62131
6.6711
5.51009
3.80882
2.64633
3.68023
2.51702
3.56553
2.42053
3.44595
2.302
2.12742
2.12746
1.99965
1.99968
1.91485
1.91488
1.79852
1.79855
2.64645
3.80904
2.51712
3.68041
2.42063
3.56571
2.30209
3.44611
5.86553
7.03781
5.74875
6.92401
5.62163
6.78166
5.51037
6.67146
7.1821
6.01966
7.1204
5.95299
6.92216
5.76867
6.86196
5.705
3.98902
2.83215
3.9102
2.75022
3.73282
2.59044
3.65964
2.51556
2.31294
2.31298
2.23085
2.23089
2.08331
2.08334
2.00881
2.00884
2.83229
3.98929
2.75035
3.91044
2.59056
3.73305
2.51567
3.65984
6.02014
7.18281
5.95342
7.121
5.76906
6.92272
5.70536
6.86242
7.25092
6.09928
7.22324
6.06638
6.98981
5.84472
6.96243
5.81322
4.09207
2.94291
4.04847
2.89548
3.82817
2.69126
3.78783
2.64811
2.42537
2.42542
2.37698
2.37703
2.18488
2.18492
2.1412
2.14124
2.94307
4.09238
2.89563
4.04875
2.69139
3.82842
2.64824
3.78806
6.09984
7.25174
6.0669
7.22396
5.84517
6.99045
5.81364
6.96298
7.2697
6.12861
7.26442
6.1183
7.00904
5.87281
7.00336
5.86285
4.14159
3.00056
4.12223
2.97729
3.87363
2.74327
3.85586
2.7223
2.48561
2.48566
2.461
2.46105
2.2388
2.23885
2.21681
2.21685
3.00073
4.14192
2.97746
4.12255
2.7434
3.87389
2.72244
3.85612
6.12922
7.2706
6.11888
7.26523
5.8733
7.00973
5.86332
7.00397
7.25674
6.12518
7.26569
6.12941
6.99744
5.86965
7.00555
5.87355
4.15519
3.02218
4.15195
3.01511
3.88566
2.76227
3.88289
2.75612
2.51025
2.5103
2.50166
2.50171
2.26038
2.26042
2.25291
2.25296
3.02235
4.15554
3.01528
4.15229
2.7624
3.88591
2.75626
3.88315
6.12582
7.25768
6.13003
7.26656
5.87013
6.99811
5.87403
7.00619
7.22274
6.10049
7.24102
6.11436
6.96523
5.84614
6.98256
5.85933
4.14596
3.02074
4.15284
3.02374
3.87654
2.76033
3.88316
2.76328
2.51199
2.51204
2.51344
2.51349
2.26133
2.26136
2.26285
2.26288
3.02092
4.14631
3.02392
4.15318
2.76043
3.87674
2.7634
3.88339
6.10112
7.22366
6.11499
7.24189
5.84651
6.96579
5.85975
6.98312
7.17409
6.06109
7.19925
6.08174
6.91819
5.80808
6.94262
5.82806
4.12126
3.0043
4.13517
3.01418
3.85286
2.74465
3.8661
2.75391
2.49927
2.49933
2.50731
2.50737
2.24924
2.24926
2.25672
2.25675
3.00449
4.12164
3.01436
4.13551
2.74473
3.85303
2.754
3.86626
6.06175
7.17507
6.08235
7.20011
5.80842
6.91871
5.82837
6.94305
7.11367
6.01016
7.14508
6.03676
6.85966
5.75932
6.88976
5.78446
4.08649
2.97864
4.10498
2.9925
3.82008
2.72089
3.83733
2.73358
2.47772
2.4778
2.48948
2.48954
2.22949
2.22952
2.24013
2.24016
2.97888
4.08693
2.99272
4.10539
2.72098
3.82024
2.73367
3.83751
6.01107
7.11477
6.03747
7.14599
5.75967
6.86025
5.78483
6.89027
7.04349
5.95159
7.07857
5.98079
6.79475
5.70527