/*--------------------------------*- C++ -*----------------------------------*\
  =========                 |
  \\      /  F ield         | OpenFOAM: The Open Source CFD Toolbox
   \\    /   O peration     | Website:  https://openfoam.org
    \\  /    A nd           | Version:  9
     \\/     M anipulation  |
\*---------------------------------------------------------------------------*/
FoamFile
{
    format      ascii;
    class       volScalarField;
    location    "1.4";
    object      p;
}
// * * * * * * * * * * * * * * * * * * * * * * * * * * * * * * * * * * * * * //

dimensions      [0 2 -2 0 0 0 0];

internalField   nonuniform List<scalar> 
36360
(
20.1199
20.0864
20.1058
20.0955
20.0999
20.1006
20.1031
20.094
20.1001
20.1011
20.1009
20.101
20.0996
20.0999
20.0988
20.0992
20.101
20.101
20.101
20.101
20.1
20.1
20.0991
20.0991
20.1011
20.1001
20.101
20.1009
20.0999
20.0996
20.0992
20.0988
20.0864
20.1199
20.0955
20.1058
20.1006
20.0999
20.094
20.1031
20.1411
20.082
20.1366
20.0795
20.0834
20.1191
20.0923
20.109
20.0998
20.1013
20.0995
20.1011
20.1008
20.1
20.1003
20.1003
20.1015
20.1015
20.1011
20.1011
20.1006
20.1006
20.1006
20.1006
20.1013
20.0998
20.1011
20.0995
20.1
20.1008
20.1003
20.1003
20.082
20.1411
20.0795
20.1366
20.1191
20.0834
20.109
20.0923
20.1288
20.0945
20.1362
20.088
20.0573
20.1464
20.0713
20.1327
20.1017
20.1015
20.1003
20.1016
20.1044
20.0996
20.102
20.0998
20.1021
20.1021
20.1019
20.1019
20.1
20.1
20.1002
20.1002
20.1015
20.1017
20.1016
20.1003
20.0996
20.1044
20.0998
20.102
20.0945
20.1288
20.088
20.1362
20.1464
20.0573
20.1327
20.0713
20.1142
20.1047
20.1213
20.1002
20.0317
20.1685
20.0439
20.1584
20.1069
20.1015
20.104
20.1014
20.1113
20.1
20.1076
20.0997
20.1014
20.1014
20.1019
20.1019
20.0997
20.0997
20.0999
20.0999
20.1015
20.1069
20.1014
20.104
20.1
20.1113
20.0997
20.1076
20.1047
20.1142
20.1002
20.1213
20.1685
20.0317
20.1584
20.0439
20.102
20.1108
20.1077
20.1082
20.0117
20.1833
20.021
20.1767
20.113
20.1027
20.11
20.102
20.119
20.1015
20.1152
20.1006
20.1006
20.1006
20.1009
20.1009
20.0995
20.0995
20.0996
20.0996
20.1027
20.113
20.102
20.11
20.1015
20.119
20.1006
20.1152
20.1108
20.102
20.1082
20.1077
20.1833
20.0117
20.1767
20.021
20.0925
20.1142
20.097
20.1128
19.9968
20.1925
20.0036
20.1885
20.1186
20.1047
20.1159
20.1037
20.1258
20.1036
20.1226
20.1025
20.1005
20.1005
20.1004
20.1004
20.0997
20.0997
20.0996
20.0996
20.1047
20.1186
20.1037
20.1159
20.1037
20.1258
20.1025
20.1226
20.1142
20.0925
20.1128
20.097
20.1926
19.9968
20.1885
20.0037
20.0852
20.116
20.0886
20.1152
19.9859
20.1981
19.9909
20.1957
20.1233
20.1071
20.1211
20.1059
20.1312
20.1061
20.1287
20.1048
20.101
20.101
20.1006
20.1006
20.1004
20.1004
20.1
20.1
20.1071
20.1233
20.1059
20.1211
20.1061
20.1312
20.1048
20.1287
20.116
20.0852
20.1152
20.0886
20.1981
19.9859
20.1957
19.9909
20.0796
20.1169
20.0822
20.1165
19.9781
20.2013
19.9817
20.2
20.1269
20.1094
20.1252
20.1083
20.1353
20.1084
20.1334
20.1073
20.102
20.102
20.1014
20.1014
20.1015
20.1015
20.1009
20.1009
20.1094
20.1269
20.1083
20.1252
20.1084
20.1353
20.1073
20.1334
20.1169
20.0796
20.1165
20.0822
20.2013
19.9781
20.2
19.9817
20.0753
20.1175
20.0773
20.1173
19.9726
20.2031
19.9751
20.2023
20.1297
20.1115
20.1284
20.1105
20.1383
20.1106
20.1369
20.1095
20.1032
20.1032
20.1026
20.1026
20.1028
20.1028
20.1021
20.1021
20.1115
20.1297
20.1105
20.1284
20.1106
20.1383
20.1095
20.1369
20.1175
20.0753
20.1173
20.0773
20.2031
19.9726
20.2023
19.9751
20.072
20.1178
20.0736
20.1177
19.9688
20.2039
19.9705
20.2036
20.1318
20.1134
20.1309
20.1125
20.1405
20.1125
20.1395
20.1116
20.1047
20.1047
20.1039
20.1039
20.1042
20.1042
20.1035
20.1035
20.1134
20.1318
20.1125
20.1309
20.1125
20.1405
20.1116
20.1395
20.1178
20.0721
20.1177
20.0736
20.2039
19.9688
20.2036
19.9706
20.0696
20.118
20.0707
20.1179
19.9664
20.2041
19.9675
20.204
20.1334
20.1151
20.1327
20.1143
20.142
20.1141
20.1413
20.1133
20.1061
20.1061
20.1054
20.1054
20.1056
20.1056
20.1049
20.1049
20.1151
20.1334
20.1143
20.1327
20.1141
20.142
20.1133
20.1413
20.118
20.0696
20.1179
20.0707
20.2041
19.9663
20.204
19.9675
20.0678
20.1181
20.0687
20.118
19.9649
20.2039
19.9655
20.204
20.1344
20.1165
20.1339
20.1158
20.143
20.1155
20.1426
20.1149
20.1076
20.1076
20.1069
20.1069
20.107
20.107
20.1063
20.1063
20.1165
20.1344
20.1158
20.1339
20.1155
20.143
20.1149
20.1425
20.118
20.0679
20.118
20.0687
20.2039
19.9648
20.204
19.9655
20.0666
20.1182
20.0671
20.1182
19.9639
20.2037
19.9643
20.2038
20.1353
20.1178
20.1349
20.1171
20.1438
20.1168
20.1435
20.1162
20.1089
20.1089
20.1083
20.1083
20.1082
20.1082
20.1076
20.1076
20.1178
20.1353
20.1171
20.1349
20.1168
20.1438
20.1162
20.1435
20.1183
20.0666
20.1182
20.0672
20.2037
19.9638
20.2038
19.9643
20.0658
20.1183
20.0662
20.1183
19.9635
20.2033
19.9636
20.2035
20.136
20.1189
20.1357
20.1183
20.1444
20.1178
20.1441
20.1173
20.1102
20.1102
20.1096
20.1096
20.1094
20.1094
20.1089
20.1089
20.1189
20.136
20.1183
20.1357
20.1178
20.1444
20.1173
20.1441
20.1183
20.0658
20.1183
20.0661
20.2033
19.9635
20.2035
19.9636
20.0652
20.1186
20.0655
20.1184
19.9634
20.203
19.9634
20.2031
20.1367
20.1198
20.1364
20.1194
20.1449
20.1188
20.1447
20.1183
20.1114
20.1114
20.1108
20.1108
20.1105
20.1105
20.11
20.11
20.1198
20.1366
20.1194
20.1363
20.1188
20.1449
20.1183
20.1447
20.1185
20.0653
20.1184
20.0655
20.203
19.9635
20.2032
19.9635
20.0651
20.1187
20.0651
20.1186
19.9637
20.2027
19.9635
20.2028
20.1372
20.1207
20.1369
20.1203
20.1453
20.1196
20.1451
20.1192
20.1124
20.1124
20.1119
20.1119
20.1115
20.1115
20.111
20.111
20.1207
20.1372
20.1203
20.1369
20.1196
20.1452
20.1192
20.1451
20.1187
20.0651
20.1186
20.0651
20.2027
19.9637
20.2028
19.9636
20.0651
20.1189
20.0651
20.1188
19.9642
20.2024
19.9639
20.2025
20.1376
20.1215
20.1374
20.1211
20.1456
20.1203
20.1454
20.12
20.1134
20.1134
20.1129
20.1129
20.1124
20.1124
20.112
20.112
20.1215
20.1376
20.1211
20.1374
20.1203
20.1456
20.12
20.1454
20.1189
20.0651
20.1188
20.0651
20.2024
19.9642
20.2025
19.9639
20.0652
20.1193
20.0651
20.1191
19.9648
20.2021
19.9645
20.2023
20.1381
20.1223
20.1379
20.1219
20.1459
20.121
20.1457
20.1207
20.1144
20.1144
20.1139
20.1139
20.1133
20.1133
20.1129
20.1129
20.1223
20.1381
20.1219
20.1379
20.121
20.1459
20.1207
20.1457
20.1194
20.0652
20.1191
20.0651
20.2021
19.9647
20.2022
19.9644
20.0656
20.1197
20.0654
20.1195
19.9656
20.2019
19.9652
20.202
20.1386
20.1231
20.1384
20.1227
20.1461
20.1217
20.146
20.1213
20.1152
20.1152
20.1148
20.1148
20.1141
20.1141
20.1137
20.1137
20.1231
20.1386
20.1227
20.1384
20.1217
20.1461
20.1213
20.146
20.1197
20.0656
20.1195
20.0653
20.202
19.9656
20.202
19.9651
20.0659
20.1203
20.0658
20.12
19.9665
20.2018
19.966
20.2019
20.1391
20.1238
20.1389
20.1234
20.1464
20.1223
20.1463
20.122
20.1161
20.1161
20.1157
20.1157
20.1148
20.1148
20.1144
20.1144
20.1238
20.1391
20.1234
20.1388
20.1223
20.1464
20.122
20.1463
20.1202
20.066
20.1199
20.0658
20.2018
19.9666
20.2019
19.9661
20.0666
20.1208
20.0662
20.1205
19.9676
20.2017
19.967
20.2018
20.1396
20.1245
20.1394
20.1241
20.1467
20.1228
20.1466
20.1226
20.1169
20.1169
20.1165
20.1165
20.1155
20.1155
20.1152
20.1152
20.1245
20.1396
20.1241
20.1393
20.1228
20.1467
20.1226
20.1466
20.1208
20.0666
20.1205
20.0663
20.2017
19.9676
20.2018
19.9671
20.0673
20.1214
20.0669
20.1211
19.9688
20.2017
19.9682
20.2017
20.1401
20.1252
20.1399
20.1248
20.147
20.1234
20.1469
20.1231
20.1177
20.1177
20.1173
20.1173
20.1162
20.1162
20.1159
20.1159
20.1252
20.1401
20.1248
20.1399
20.1234
20.147
20.1231
20.1469
20.1214
20.0673
20.1211
20.067
20.2017
19.9688
20.2017
19.9682
20.0681
20.1221
20.0676
20.1217
19.9701
20.2017
19.9695
20.2017
20.1407
20.1259
20.1404
20.1255
20.1473
20.124
20.1472
20.1237
20.1186
20.1186
20.1181
20.1181
20.1169
20.1169
20.1166
20.1166
20.1259
20.1407
20.1255
20.1404
20.124
20.1473
20.1237
20.1472
20.1221
20.068
20.1218
20.0676
20.2017
19.97
20.2017
19.9694
20.069
20.1229
20.0685
20.1225
19.9715
20.2018
19.9708
20.2017
20.1413
20.1266
20.141
20.1263
20.1477
20.1246
20.1475
20.1243
20.1194
20.1194
20.119
20.119
20.1176
20.1176
20.1173
20.1173
20.1266
20.1413
20.1263
20.141
20.1246
20.1476
20.1243
20.1475
20.1229
20.069
20.1225
20.0685
20.2018
19.9715
20.2017
19.9707
20.07
20.1237
20.0695
20.1233
19.973
20.2019
19.9722
20.2018
20.1419
20.1274
20.1416
20.127
20.148
20.1252
20.1478
20.1249
20.1202
20.1202
20.1198
20.1198
20.1183
20.1183
20.118
20.118
20.1274
20.1419
20.127
20.1416
20.1252
20.148
20.1249
20.1478
20.1237
20.07
20.1233
20.0695
20.2019
19.973
20.2018
19.9722
20.0711
20.1247
20.0705
20.1242
19.9747
20.202
19.9739
20.2019
20.1425
20.1282
20.1422
20.1278
20.1484
20.1258
20.1482
20.1255
20.1211
20.1211
20.1207
20.1207
20.119
20.119
20.1187
20.1187
20.1282
20.1425
20.1278
20.1422
20.1258
20.1484
20.1255
20.1482
20.1247
20.0711
20.1242
20.0705
20.202
19.9747
20.2019
19.9739
20.0723
20.1256
20.0717
20.1251
19.9766
20.2021
19.9756
20.202
20.1432
20.1289
20.1429
20.1285
20.1487
20.1264
20.1485
20.1261
20.122
20.122
20.1216
20.1216
20.1198
20.1198
20.1194
20.1194
20.1289
20.1432
20.1285
20.1429
20.1264
20.1487
20.1261
20.1485
20.1256
20.0723
20.1251
20.0717
20.2021
19.9766
20.202
19.9756
20.0736
20.1266
20.073
20.1261
19.9785
20.2022
19.9775
20.2021
20.1439
20.1298
20.1435
20.1294
20.1491
20.1271
20.1489
20.1268
20.123
20.123
20.1225
20.1225
20.1206
20.1206
20.1202
20.1202
20.1298
20.1439
20.1294
20.1435
20.1271
20.1491
20.1268
20.1489
20.1266
20.0737
20.1261
20.073
20.2022
19.9785
20.2021
19.9775
20.0751
20.1277
20.0744
20.1272
19.9807
20.2023
19.9796
20.2023
20.1446
20.1306
20.1442
20.1302
20.1495
20.1278
20.1493
20.1274
20.124
20.124
20.1235
20.1235
20.1215
20.1215
20.121
20.121
20.1306
20.1446
20.1302
20.1442
20.1278
20.1495
20.1274
20.1493
20.1277
20.0751
20.1272
20.0744
20.2023
19.9807
20.2023
19.9796
20.0767
20.1288
20.0759
20.1282
19.983
20.2025
19.9818
20.2024
20.1452
20.1315
20.1449
20.131
20.1498
20.1285
20.1496
20.1281
20.125
20.125
20.1245
20.1245
20.1224
20.1224
20.1219
20.1219
20.1315
20.1452
20.131
20.1449
20.1285
20.1498
20.1281
20.1496
20.1288
20.0767
20.1282
20.0759
20.2025
19.983
20.2024
19.9818
20.0784
20.1299
20.0775
20.1293
19.9854
20.2026
19.9842
20.2025
20.1459
20.1324
20.1456
20.1319
20.1502
20.1292
20.15
20.1289
20.1261
20.1261
20.1256
20.1256
20.1233
20.1233
20.1228
20.1228
20.1324
20.1459
20.1319
20.1456
20.1292
20.1502
20.1289
20.15
20.1299
20.0784
20.1293
20.0775
20.2026
19.9854
20.2025
19.9842
20.0802
20.131
20.0793
20.1304
19.9881
20.2026
19.9867
20.2026
20.1465
20.1333
20.1462
20.1328
20.1505
20.13
20.1503
20.1296
20.1273
20.1273
20.1267
20.1267
20.1244
20.1244
20.1238
20.1238
20.1333
20.1465
20.1328
20.1462
20.13
20.1505
20.1296
20.1503
20.131
20.0802
20.1304
20.0793
20.2027
19.9881
20.2026
19.9867
20.0822
20.1321
20.0812
20.1315
19.991
20.2026
19.9895
20.2027
20.1471
20.1342
20.1468
20.1338
20.1508
20.1309
20.1506
20.1304
20.1285
20.1285
20.1279
20.1279
20.1255
20.1255
20.1249
20.1249
20.1342
20.1471
20.1338
20.1468
20.1309
20.1508
20.1304
20.1506
20.1321
20.0822
20.1315
20.0812
20.2026
19.991
20.2027
19.9895
20.0844
20.1331
20.0833
20.1326
19.9942
20.2025
19.9926
20.2026
20.1476
20.1352
20.1474
20.1347
20.151
20.1317
20.1509
20.1313
20.1298
20.1298
20.1292
20.1292
20.1267
20.1267
20.1261
20.1261
20.1352
20.1476
20.1347
20.1474
20.1317
20.151
20.1313
20.1509
20.1331
20.0844
20.1326
20.0833
20.2025
19.9942
20.2026
19.9926
20.0867
20.1341
20.0855
20.1336
19.9977
20.2022
19.9959
20.2024
20.1482
20.1362
20.1479
20.1357
20.1512
20.1327
20.1511
20.1322
20.1312
20.1312
20.1305
20.1305
20.128
20.128
20.1273
20.1273
20.1362
20.1482
20.1357
20.1479
20.1327
20.1512
20.1322
20.1511
20.1341
20.0867
20.1336
20.0855
20.2022
19.9977
20.2024
19.9959
20.089
20.1351
20.0879
20.1346
20.0017
20.2017
19.9996
20.202
20.1487
20.1373
20.1484
20.1368
20.1514
20.1337
20.1513
20.1332
20.1326
20.1326
20.1319
20.1319
20.1293
20.1293
20.1286
20.1286
20.1373
20.1487
20.1368
20.1484
20.1337
20.1514
20.1332
20.1513
20.1351
20.089
20.1346
20.0879
20.2017
20.0017
20.202
19.9996
20.0912
20.1364
20.0901
20.1357
20.0062
20.2008
20.0038
20.2013
20.1491
20.1383
20.1489
20.1378
20.1515
20.1348
20.1515
20.1342
20.1339
20.1339
20.1332
20.1332
20.1307
20.1307
20.13
20.13
20.1383
20.1491
20.1378
20.1489
20.1348
20.1515
20.1342
20.1515
20.1364
20.0912
20.1357
20.0901
20.2008
20.0062
20.2013
20.0038
20.0922
20.1386
20.092
20.1372
20.0116
20.1991
20.0087
20.2001
20.1494
20.1394
20.1492
20.1388
20.1515
20.1358
20.1515
20.1353
20.1354
20.1354
20.1346
20.1346
20.1321
20.1321
20.1314
20.1314
20.1394
20.1494
20.1388
20.1492
20.1358
20.1515
20.1353
20.1515
20.1386
20.0922
20.1372
20.092
20.1991
20.0116
20.2001
20.0087
20.0928
20.1406
20.0918
20.1407
20.0182
20.196
20.0147
20.1978
20.1498
20.1406
20.1496
20.1399
20.1514
20.137
20.1514
20.1364
20.1368
20.1368
20.1361
20.1361
20.1335
20.1335
20.1328
20.1328
20.1406
20.1498
20.1399
20.1496
20.137
20.1514
20.1364
20.1514
20.1406
20.0928
20.1407
20.0918
20.196
20.0182
20.1978
20.0147
20.1425
20.0686
20.1124
20.0883
20.1341
20.0722
20.1089
20.0895
20.0981
20.1009
20.1007
20.1007
20.0985
20.1005
20.0997
20.0998
20.101
20.101
20.1006
20.1006
20.1005
20.1005
20.0998
20.0998
20.1009
20.0981
20.1007
20.1007
20.1005
20.0985
20.0998
20.0997
20.0686
20.1425
20.0883
20.1124
20.0722
20.1341
20.0895
20.1089
20.1757
20.0618
20.1665
20.0596
20.1694
20.0614
20.1588
20.0618
20.089
20.1002
20.0932
20.1008
20.0923
20.1008
20.0956
20.101
20.1016
20.1016
20.1013
20.1013
20.1016
20.1016
20.1012
20.1012
20.1002
20.089
20.1008
20.0932
20.1008
20.0923
20.101
20.0956
20.0618
20.1757
20.0596
20.1665
20.0614
20.1694
20.0618
20.1588
20.1736
20.0731
20.176
20.0675
20.1671
20.0702
20.17
20.0656
20.0867
20.0982
20.087
20.0991
20.0905
20.0997
20.0906
20.1002
20.1019
20.1019
20.1019
20.1019
20.1016
20.1016
20.1017
20.1017
20.0982
20.0867
20.0991
20.087
20.0997
20.0905
20.1002
20.0906
20.0731
20.1736
20.0675
20.176
20.0702
20.1671
20.0656
20.17
20.1676
20.0802
20.1706
20.0773
20.1595
20.0768
20.1633
20.0741
20.089
20.0975
20.0877
20.0976
20.0932
20.0997
20.0915
20.0996
20.1011
20.1011
20.1015
20.1015
20.1012
20.1012
20.1015
20.1015
20.0975
20.089
20.0976
20.0877
20.0997
20.0932
20.0996
20.0915
20.0802
20.1676
20.0773
20.1706
20.0768
20.1595
20.0741
20.1633
20.1623
20.0831
20.1649
20.082
20.1525
20.0799
20.1559
20.0787
20.0921
20.0983
20.0905
20.0978
20.0976
20.1006
20.0952
20.1
20.1004
20.1004
20.1007
20.1007
20.1006
20.1006
20.1008
20.1008
20.0983
20.0921
20.0978
20.0905
20.1006
20.0976
20.1
20.0952
20.0831
20.1624
20.082
20.1649
20.0799
20.1525
20.0787
20.1559
20.158
20.0841
20.1601
20.0838
20.1468
20.0811
20.1495
20.0807
20.0951
20.1001
20.0936
20.0991
20.1018
20.1025
20.0998
20.1015
20.1004
20.1004
20.1003
20.1003
20.1006
20.1006
20.1005
20.1005
20.1001
20.0951
20.0991
20.0936
20.1025
20.1018
20.1015
20.0998
20.0841
20.158
20.0838
20.1601
20.0811
20.1468
20.0807
20.1495
20.1542
20.0843
20.156
20.0843
20.142
20.0815
20.1443
20.0813
20.0978
20.102
20.0965
20.101
20.1052
20.1046
20.1036
20.1035
20.1011
20.1011
20.1006
20.1006
20.1013
20.1013
20.1009
20.1009
20.102
20.0978
20.101
20.0965
20.1046
20.1052
20.1035
20.1036
20.0843
20.1542
20.0843
20.156
20.0815
20.142
20.0813
20.1443
20.1509
20.0843
20.1525
20.0843
20.1381
20.0815
20.1399
20.0815
20.1
20.1041
20.0989
20.103
20.1079
20.1068
20.1066
20.1057
20.1022
20.1022
20.1016
20.1016
20.1025
20.1025
20.1018
20.1018
20.1041
20.1
20.103
20.0989
20.1068
20.1079
20.1057
20.1066
20.0843
20.1509
20.0843
20.1525
20.0815
20.1381
20.0815
20.14
20.1481
20.0842
20.1495
20.0842
20.1348
20.0816
20.1363
20.0815
20.1018
20.106
20.101
20.105
20.1099
20.1089
20.109
20.1078
20.1037
20.1037
20.1029
20.1029
20.1039
20.1039
20.1031
20.1031
20.106
20.1018
20.105
20.101
20.1088
20.1099
20.1078
20.109
20.0842
20.1481
20.0842
20.1495
20.0816
20.1348
20.0815
20.1363
20.1456
20.0842
20.1468
20.0842
20.132
20.0817
20.1333
20.0816
20.1034
20.1078
20.1026
20.1069
20.1114
20.1107
20.1107
20.1098
20.1053
20.1053
20.1045
20.1045
20.1054
20.1054
20.1046
20.1046
20.1078
20.1034
20.1069
20.1026
20.1107
20.1114
20.1098
20.1107
20.0842
20.1456
20.0842
20.1468
20.0817
20.132
20.0816
20.1333
20.1436
20.0842
20.1446
20.0842
20.1299
20.0818
20.1309
20.0817
20.1047
20.1095
20.1041
20.1087
20.1128
20.1124
20.1121
20.1116
20.1069
20.1069
20.1061
20.1061
20.1069
20.1069
20.1062
20.1062
20.1095
20.1047
20.1087
20.1041
20.1124
20.1128
20.1116
20.1121
20.0842
20.1436
20.0842
20.1446
20.0818
20.1299
20.0817
20.1309
20.142
20.0842
20.1427
20.0842
20.1282
20.0819
20.129
20.0818
20.1059
20.111
20.1054
20.1103
20.114
20.1139
20.1134
20.1132
20.1084
20.1084
20.1076
20.1076
20.1084
20.1084
20.1077
20.1077
20.111
20.1059
20.1103
20.1054
20.1139
20.114
20.1132
20.1135
20.0843
20.1419
20.0842
20.1427
20.0819
20.1282
20.0819
20.1289
20.1407
20.0843
20.1413
20.0842
20.1269
20.0821
20.1275
20.082
20.107
20.1124
20.1065
20.1117
20.115
20.1153
20.1145
20.1146
20.1098
20.1098
20.1091
20.1091
20.1098
20.1098
20.1091
20.1091
20.1124
20.107
20.1117
20.1065
20.1152
20.1149
20.1146
20.1145
20.0843
20.1407
20.0843
20.1412
20.082
20.127
20.0819
20.1276
20.1397
20.0846
20.1401
20.0844
20.1259
20.0824
20.1264
20.0822
20.1081
20.1136
20.1075
20.113
20.1157
20.1165
20.1154
20.1159
20.1111
20.1111
20.1105
20.1105
20.1111
20.1111
20.1104
20.1104
20.1136
20.1081
20.113
20.1075
20.1164
20.1157
20.1159
20.1154
20.0844
20.1398
20.0843
20.1403
20.0823
20.126
20.0822
20.1265
20.1393
20.0846
20.1395
20.0846
20.1254
20.0826
20.1256
20.0825
20.1087
20.1147
20.1085
20.1141
20.1166
20.1175
20.1162
20.117
20.1124
20.1124
20.1118
20.1118
20.1123
20.1123
20.1117
20.1117
20.1147
20.1088
20.1141
20.1085
20.1175
20.1166
20.117
20.1162
20.0848
20.1392
20.0846
20.1394
20.0826
20.1253
20.0825
20.1256
20.1388
20.0852
20.139
20.0849
20.125
20.0829
20.1252
20.0827
20.1093
20.1157
20.109
20.1152
20.1175
20.1185
20.1171
20.118
20.1135
20.1135
20.113
20.113
20.1134
20.1134
20.1128
20.1128
20.1157
20.1093
20.1152
20.109
20.1185
20.1175
20.118
20.1171
20.0852
20.1388
20.0849
20.139
20.083
20.125
20.0828
20.1251
20.1386
20.0856
20.1386
20.0854
20.1248
20.0834
20.1249
20.0831
20.11
20.1167
20.1097
20.1162
20.1183
20.1194
20.1179
20.119
20.1146
20.1146
20.1141
20.1141
20.1144
20.1144
20.1139
20.1139
20.1167
20.11
20.1162
20.1097
20.1194
20.1183
20.119
20.1179
20.0856
20.1386
20.0854
20.1386
20.0834
20.1248
20.0832
20.1249
20.1386
20.0861
20.1386
20.0858
20.1249
20.0839
20.1249
20.0836
20.1106
20.1177
20.1103
20.1172
20.1191
20.1203
20.1187
20.1199
20.1157
20.1157
20.1152
20.1152
20.1154
20.1154
20.1149
20.1149
20.1176
20.1106
20.1172
20.1103
20.1203
20.1191
20.1199
20.1187
20.086
20.1388
20.0858
20.1387
20.0837
20.125
20.0835
20.1249
20.1387
20.0868
20.1386
20.0865
20.125
20.0844
20.1249
20.0842
20.1114
20.1186
20.111
20.1181
20.1199
20.1211
20.1195
20.1207
20.1167
20.1167
20.1162
20.1162
20.1164
20.1164
20.1159
20.1159
20.1186
20.1114
20.1181
20.111
20.1211
20.1199
20.1207
20.1195
20.0867
20.1388
20.0863
20.1388
20.0844
20.1251
20.0841
20.125
20.1392
20.0873
20.139
20.087
20.1253
20.0851
20.1251
20.0848
20.1121
20.1194
20.1117
20.119
20.1206
20.1219
20.1202
20.1215
20.1176
20.1176
20.1172
20.1172
20.1173
20.1173
20.1168
20.1168
20.1194
20.1121
20.119
20.1118
20.122
20.1206
20.1215
20.1202
20.0875
20.1391
20.0871
20.1389
20.0851
20.1254
20.0848
20.1252
20.1395
20.0882
20.1394
20.0878
20.1258
20.0857
20.1256
20.0854
20.1129
20.1203
20.1125
20.1199
20.1214
20.1228
20.121
20.1224
20.1186
20.1186
20.1181
20.1181
20.1182
20.1182
20.1177
20.1177
20.1203
20.1129
20.1199
20.1125
20.1228
20.1214
20.1224
20.121
20.0881
20.1397
20.0878
20.1394
20.0858
20.1258
20.0854
20.1256
20.14
20.0891
20.1397
20.0887
20.1263
20.0866
20.1261
20.0861
20.1138
20.1212
20.1134
20.1208
20.1222
20.1236
20.1218
20.1232
20.1195
20.1195
20.1191
20.119
20.1191
20.1191
20.1186
20.1186
20.1212
20.1138
20.1208
20.1133
20.1236
20.1222
20.1232
20.1218
20.0892
20.1399
20.0886
20.1398
20.0866
20.1263
20.0862
20.126
20.1406
20.09
20.1403
20.0896
20.1269
20.0875
20.1266
20.087
20.1147
20.1221
20.1142
20.1217
20.1231
20.1244
20.1226
20.124
20.1205
20.1205
20.12
20.12
20.12
20.12
20.1195
20.1195
20.1221
20.1147
20.1217
20.1143
20.1244
20.1231
20.124
20.1226
20.09
20.1406
20.0896
20.1402
20.0873
20.1271
20.087
20.1267
20.1414
20.0909
20.1411
20.0904
20.1277
20.0884
20.1273
20.0879
20.1156
20.1231
20.1151
20.1226
20.124
20.1253
20.1235
20.1248
20.1214
20.1214
20.121
20.121
20.1209
20.1209
20.1204
20.1204
20.1231
20.1157
20.1226
20.1152
20.1253
20.124
20.1248
20.1235
20.091
20.1414
20.0905
20.141
20.0884
20.1277
20.0879
20.1274
20.1422
20.0923
20.1418
20.0916
20.1285
20.0894
20.1281
20.0889
20.1167
20.124
20.1162
20.1236
20.1249
20.1261
20.1244
20.1257
20.1224
20.1224
20.1219
20.1219
20.1218
20.1218
20.1214
20.1214
20.124
20.1167
20.1236
20.1162
20.1261
20.1249
20.1257
20.1244
20.0922
20.1422
20.0916
20.1418
20.0894
20.1285
20.0889
20.1281
20.1431
20.0935
20.1426
20.0929
20.1294
20.0905
20.129
20.0899
20.1177
20.125
20.1172
20.1245
20.1259
20.127
20.1254
20.1266
20.1234
20.1234
20.1229
20.1229
20.1228
20.1228
20.1223
20.1223
20.125
20.1177
20.1245
20.1172
20.127
20.1259
20.1266
20.1254
20.0935
20.1431
20.0929
20.1426
20.0905
20.1294
20.0899
20.129
20.144
20.0949
20.1435
20.0942
20.1304
20.0916
20.1299
20.091
20.1188
20.126
20.1183
20.1255
20.1268
20.128
20.1263
20.1275
20.1245
20.1245
20.124
20.124
20.1238
20.1238
20.1233
20.1233
20.126
20.1188
20.1255
20.1183
20.128
20.1268
20.1275
20.1263
20.0949
20.144
20.0942
20.1435
20.0916
20.1304
20.091
20.1299
20.1451
20.0963
20.1445
20.0956
20.1315
20.0927
20.131
20.0921
20.1199
20.1271
20.1194
20.1266
20.1278
20.1289
20.1273
20.1284
20.1256
20.1256
20.125
20.125
20.1248
20.1248
20.1243
20.1243
20.1271
20.1199
20.1265
20.1194
20.1289
20.1278
20.1284
20.1273
20.0963
20.1451
20.0956
20.1445
20.0927
20.1315
20.0921
20.131
20.1462
20.0979
20.1456
20.0971
20.1328
20.0938
20.1321
20.0932
20.1211
20.1281
20.1205
20.1276
20.1288
20.1299
20.1283
20.1294
20.1267
20.1267
20.1261
20.1261
20.1259
20.1259
20.1254
20.1254
20.1281
20.1211
20.1276
20.1205
20.1299
20.1288
20.1294
20.1283
20.0979
20.1462
20.0971
20.1456
20.0938
20.1328
20.0932
20.1321
20.1474
20.0997
20.1467
20.0988
20.1341
20.0947
20.1334
20.0943
20.1222
20.1292
20.1216
20.1287
20.1299
20.1309
20.1293
20.1304
20.1279
20.1279
20.1273
20.1273
20.1271
20.1271
20.1265
20.1265
20.1292
20.1222
20.1287
20.1216
20.1309
20.1299
20.1304
20.1293
20.0997
20.1474
20.0988
20.1468
20.0947
20.1341
20.0943
20.1334
20.1487
20.1008
20.148
20.1003
20.1355
20.0963
20.1348
20.0954
20.1233
20.1303
20.1228
20.1298
20.1308
20.1319
20.1304
20.1314
20.1291
20.1291
20.1285
20.1285
20.1282
20.1282
20.1276
20.1276
20.1303
20.1233
20.1298
20.1228
20.1319
20.1308
20.1314
20.1304
20.1008
20.1487
20.1003
20.148
20.0963
20.1355
20.0954
20.1348
20.1501
20.1018
20.1494
20.1013
20.137
20.0979
20.1362
20.0971
20.1245
20.1315
20.1239
20.1309
20.1318
20.133
20.1313
20.1324
20.1304
20.1304
20.1297
20.1297
20.1295
20.1295
20.1288
20.1288
20.1315
20.1245
20.1309
20.1239
20.133
20.1318
20.1324
20.1313
20.1018
20.1501
20.1013
20.1494
20.0979
20.137
20.0971
20.1362
20.1516
20.1028
20.1509
20.1023
20.1386
20.0994
20.1378
20.0986
20.1256
20.1327
20.1251
20.1321
20.1328
20.134
20.1323
20.1335
20.1317
20.1317
20.131
20.131
20.1307
20.1307
20.1301
20.1301
20.1327
20.1256
20.1321
20.1251
20.134
20.1328
20.1335
20.1323
20.1028
20.1516
20.1023
20.1509
20.0994
20.1386
20.0986
20.1378
20.1531
20.1039
20.1523
20.1034
20.1403
20.1008
20.1395
20.1001
20.1268
20.1338
20.1262
20.1332
20.1337
20.1351
20.1332
20.1346
20.133
20.133
20.1323
20.1323
20.132
20.132
20.1314
20.1314
20.1338
20.1268
20.1332
20.1262
20.1351
20.1337
20.1346
20.1332
20.1039
20.1531
20.1034
20.1523
20.1008
20.1403
20.1001
20.1395
20.1544
20.1052
20.1537
20.1045
20.1419
20.1023
20.1411
20.1016
20.1279
20.135
20.1273
20.1344
20.1347
20.1362
20.1342
20.1357
20.1344
20.1344
20.1337
20.1337
20.1334
20.1334
20.1327
20.1327
20.135
20.1279
20.1344
20.1273
20.1362
20.1347
20.1357
20.1342
20.1052
20.1544
20.1045
20.1537
20.1023
20.1419
20.1016
20.1411
20.1552
20.1067
20.1549
20.1059
20.1433
20.1039
20.1426
20.1031
20.1292
20.1363
20.1285
20.1357
20.1356
20.1374
20.1351
20.1368
20.1358
20.1358
20.1351
20.1351
20.1348
20.1348
20.1341
20.1341
20.1363
20.1292
20.1357
20.1285
20.1374
20.1356
20.1368
20.1351
20.1067
20.1552
20.1059
20.1549
20.1039
20.1433
20.1031
20.1426
20.1551
20.1091
20.1553
20.1078
20.1439
20.106
20.1437
20.1049
20.1305
20.1375
20.1298
20.1369
20.1366
20.1385
20.1361
20.1379
20.1372
20.1372
20.1365
20.1365
20.1362
20.1362
20.1355
20.1355
20.1375
20.1305
20.1369
20.1298
20.1385
20.1366
20.1379
20.1361
20.1091
20.1551
20.1078
20.1553
20.106
20.1439
20.1049
20.1437
20.1521
20.1141
20.1542
20.111
20.1425
20.1101
20.1437
20.1076
20.1318
20.1387
20.1311
20.1381
20.1375
20.1396
20.137
20.139
20.1387
20.1387
20.138
20.138
20.1376
20.1376
20.1369
20.1369
20.1387
20.1318
20.1381
20.1311
20.1396
20.1375
20.139
20.137
20.1141
20.1521
20.111
20.1542
20.1101
20.1425
20.1076
20.1437
20.1546
20.1129
20.1497
20.1177
20.1451
20.1095
20.1409
20.1131
20.1325
20.1403
20.1325
20.1394
20.138
20.141
20.138
20.1403
20.1403
20.1403
20.1395
20.1395
20.1391
20.1391
20.1384
20.1384
20.1403
20.1325
20.1394
20.1325
20.141
20.138
20.1403
20.138
20.1128
20.1546
20.1177
20.1497
20.1095
20.1451
20.1131
20.1409
20.1501
20.0632
20.1169
20.0839
20.1472
20.0646
20.1149
20.0851
20.0967
20.1006
20.1005
20.1005
20.0971
20.1006
20.1001
20.1002
20.1008
20.1008
20.1004
20.1004
20.1006
20.1006
20.1001
20.1001
20.1006
20.0967
20.1005
20.1005
20.1006
20.0971
20.1002
20.1001
20.0632
20.1501
20.0839
20.1169
20.0646
20.1472
20.0851
20.1149
20.1794
20.0649
20.173
20.0583
20.1785
20.0629
20.1708
20.0582
20.0846
20.0985
20.09
20.1001
20.0862
20.0993
20.0913
20.1005
20.1015
20.1015
20.1012
20.1012
20.1018
20.1018
20.1013
20.1013
20.0984
20.0846
20.1001
20.09
20.0993
20.0862
20.1005
20.0913
20.0649
20.1794
20.0583
20.173
20.0629
20.1785
20.0582
20.1708
20.1744
20.0819
20.1779
20.074
20.1751
20.0774
20.1779
20.0706
20.0815
20.0946
20.082
20.0963
20.0831
20.0962
20.0836
20.0976
20.1011
20.1011
20.1016
20.1016
20.1016
20.1016
20.1019
20.1019
20.0946
20.0815
20.0963
20.082
20.0962
20.0831
20.0976
20.0836
20.0819
20.1744
20.074
20.1779
20.0774
20.1751
20.0706
20.1779
20.1677
20.0916
20.1709
20.0876
20.1688
20.0859
20.1718
20.0825
20.0837
20.0932
20.0823
20.0936
20.0851
20.095
20.0838
20.0953
20.0994
20.0994
20.1003
20.1003
20.1004
20.1004
20.101
20.101
20.0932
20.0837
20.0936
20.0823
20.095
20.0851
20.0953
20.0838
20.0916
20.1677
20.0876
20.1709
20.0859
20.1688
20.0825
20.1718
20.1625
20.096
20.1649
20.0943
20.1638
20.0897
20.1662
20.0882
20.0867
20.0934
20.0852
20.0932
20.0882
20.0955
20.0867
20.0951
20.0982
20.0982
20.0987
20.0987
20.0995
20.0995
20.0998
20.0998
20.0934
20.0867
20.0932
20.0852
20.0955
20.0882
20.0951
20.0867
20.096
20.1625
20.0943
20.1649
20.0897
20.1638
20.0882
20.1662
20.1585
20.0978
20.1604
20.0971
20.1597
20.0911
20.1617
20.0906
20.0895
20.0946
20.0882
20.0939
20.091
20.0968
20.0896
20.0961
20.098
20.098
20.098
20.098
20.0994
20.0994
20.0993
20.0993
20.0946
20.0895
20.0939
20.0882
20.0968
20.091
20.0961
20.0896
20.0978
20.1585
20.0971
20.1604
20.0911
20.1597
20.0906
20.1617
20.1551
20.0985
20.1567
20.0982
20.1562
20.0915
20.1579
20.0914
20.0917
20.0961
20.0906
20.0953
20.0933
20.0986
20.0922
20.0977
20.0986
20.0986
20.0982
20.0982
20.1001
20.1001
20.0996
20.0996
20.0961
20.0917
20.0953
20.0906
20.0986
20.0933
20.0977
20.0922
20.0985
20.1551
20.0982
20.1567
20.0915
20.1562
20.0914
20.1579
20.1522
20.0987
20.1536
20.0986
20.1532
20.0916
20.1547
20.0916
20.0936
20.0978
20.0927
20.0969
20.0952
20.1004
20.0943
20.0995
20.0998
20.0998
20.0992
20.0992
20.1012
20.1012
20.1006
20.1006
20.0978
20.0936
20.0969
20.0927
20.1004
20.0952
20.0995
20.0943
20.0987
20.1522
20.0986
20.1536
20.0916
20.1532
20.0916
20.1547
20.1496
20.0987
20.1508
20.0987
20.1505
20.0915
20.1518
20.0916
20.0951
20.0995
20.0944
20.0987
20.0969
20.1023
20.0961
20.1014
20.1013
20.1013
20.1006
20.1006
20.1027
20.1027
20.102
20.1019
20.0995
20.0951
20.0987
20.0944
20.1023
20.0969
20.1014
20.0961
20.0987
20.1496
20.0987
20.1508
20.0915
20.1505
20.0916
20.1518
20.1473
20.0986
20.1484
20.0986
20.1482
20.0915
20.1493
20.0915
20.0965
20.1012
20.0958
20.1004
20.0983
20.104
20.0976
20.1032
20.103
20.103
20.1022
20.1022
20.1043
20.1043
20.1035
20.1035
20.1012
20.0965
20.1004
20.0958
20.104
20.0983
20.1032
20.0976
20.0986
20.1473
20.0986
20.1484
20.0915
20.1482
20.0915
20.1493
20.1455
20.0985
20.1464
20.0986
20.1463
20.0915
20.1472
20.0915
20.0977
20.1028
20.0972
20.102
20.0996
20.1057
20.099
20.1049
20.1046
20.1046
20.1038
20.1038
20.1059
20.1059
20.1051
20.1051
20.1028
20.0977
20.102
20.0971
20.1057
20.0996
20.1049
20.099
20.0985
20.1455
20.0986
20.1464
20.0914
20.1463
20.0915
20.1472
20.144
20.0985
20.1447
20.0985
20.1447
20.0915
20.1455
20.0914
20.0988
20.1043
20.0983
20.1035
20.1007
20.1072
20.1001
20.1064
20.1062
20.1062
20.1054
20.1054
20.1075
20.1075
20.1067
20.1067
20.1042
20.0988
20.1035
20.0983
20.1072
20.1007
20.1064
20.1001
20.0985
20.144
20.0985
20.1447
20.0915
20.1447
20.0914
20.1455
20.1428
20.0986
20.1433
20.0986
20.1435
20.0915
20.1441
20.0915
20.0998
20.1056
20.0993
20.1049
20.1016
20.1085
20.1012
20.1079
20.1077
20.1077
20.107
20.107
20.109
20.109
20.1082
20.1082
20.1056
20.0998
20.1049
20.0993
20.1085
20.1016
20.1079
20.1012
20.0986
20.1428
20.0985
20.1433
20.0915
20.1435
20.0915
20.144
20.1422
20.0985
20.1425
20.0985
20.1427
20.0916
20.1431
20.0916
20.1007
20.1068
20.1003
20.1062
20.1025
20.1097
20.1021
20.1092
20.1091
20.1091
20.1084
20.1084
20.1103
20.1103
20.1097
20.1097
20.1069
20.1007
20.1062
20.1003
20.1098
20.1025
20.1092
20.1021
20.0986
20.142
20.0986
20.1424
20.0916
20.1427
20.0915
20.1431
20.1416
20.0988
20.1418
20.0987
20.1421
20.0918
20.1425
20.0916
20.1015
20.108
20.1011
20.1074
20.1033
20.1109
20.1029
20.1103
20.1104
20.1104
20.1098
20.1098
20.1116
20.1116
20.111
20.111
20.108
20.1015
20.1074
20.1011
20.1109
20.1033
20.1103
20.1029
20.0987
20.1416
20.0986
20.1418
20.0918
20.1421
20.0917