/*--------------------------------*- C++ -*----------------------------------*\
  =========                 |
  \\      /  F ield         | OpenFOAM: The Open Source CFD Toolbox
   \\    /   O peration     | Website:  https://openfoam.org
    \\  /    A nd           | Version:  9
     \\/     M anipulation  |
\*---------------------------------------------------------------------------*/
FoamFile
{
    format      ascii;
    class       volVectorField;
    location    "1.4";
    object      U;
}
// * * * * * * * * * * * * * * * * * * * * * * * * * * * * * * * * * * * * * //

dimensions      [0 1 -1 0 0 0 0];

internalField   nonuniform List<vector> 
36360
(
(-0.00337267 -0.282445 -0.988138)
(-0.00138828 -0.161751 0.000487817)
(-0.0111556 -0.279338 -1.002)
(0.00166201 -0.147595 0.000122398)
(-0.00291679 -0.294779 -0.994334)
(0.026995 -0.16258 5.21323e-06)
(-0.00165102 -0.284804 -1.00344)
(0.0322203 -0.189386 0.000108655)
(-0.00206714 -0.193199 -0.000364435)
(-0.00669239 -0.207425 -2.32335e-05)
(-0.00666755 -0.192931 -0.000137751)
(-0.00655781 -0.204737 -3.62398e-06)
(0.0140674 -0.214688 1.77114e-05)
(0.00952024 -0.221076 -9.53988e-06)
(0.0149118 -0.220152 -0.0001281)
(0.0126308 -0.223812 -9.59926e-06)
(-0.00574426 -0.210825 2.29903e-06)
(-0.00574428 -0.210824 -2.28772e-06)
(-0.0060148 -0.208514 -3.70306e-07)
(-0.0060148 -0.208513 3.74292e-07)
(0.00944659 -0.221148 -3.42258e-06)
(0.00944658 -0.221147 3.43413e-06)
(0.0123522 -0.224075 1.51081e-07)
(0.0123521 -0.224074 -1.47555e-07)
(-0.00669228 -0.207424 2.32425e-05)
(-0.00206693 -0.193197 0.000364433)
(-0.00655777 -0.204735 3.62715e-06)
(-0.00666749 -0.192929 0.000137749)
(0.00952021 -0.221074 9.54877e-06)
(0.0140674 -0.214685 -1.77131e-05)
(0.0126307 -0.22381 9.60186e-06)
(0.0149117 -0.220148 0.000128097)
(-0.00138787 -0.161749 -0.00048783)
(-0.00337288 -0.282444 0.988138)
(0.00166194 -0.147592 -0.0001224)
(-0.011155 -0.279337 1.002)
(0.0269952 -0.162576 -5.23379e-06)
(-0.00291659 -0.29478 0.994334)
(0.0322201 -0.189382 -0.000108657)
(-0.00165054 -0.284806 1.00344)
(0.0136163 -0.260684 -0.96671)
(-0.0146435 -0.193967 0.000985682)
(0.00794325 -0.271307 -0.977403)
(-0.00890236 -0.183086 0.000896909)
(0.0105392 -0.288375 -0.992493)
(-0.00395696 -0.15454 -0.000429711)
(0.00759594 -0.296604 -0.992416)
(0.00900049 -0.147029 -0.000198619)
(0.00451141 -0.200557 -0.000468915)
(0.00129035 -0.209465 -4.32809e-05)
(0.00397377 -0.19718 -0.000529108)
(-0.00351806 -0.208725 -3.90022e-05)
(0.0156289 -0.190745 0.000473368)
(0.00819225 -0.214358 5.51568e-06)
(0.0169492 -0.202525 0.000218669)
(0.0077595 -0.217824 -8.62355e-06)
(-0.00382747 -0.214827 -4.76739e-06)
(-0.00382725 -0.214826 4.79404e-06)
(-0.00598149 -0.213929 -6.52511e-07)
(-0.00598144 -0.213928 6.71584e-07)
(0.00551958 -0.217113 -1.29537e-05)
(0.00551951 -0.217112 1.29819e-05)
(0.00726532 -0.217463 -9.66839e-06)
(0.00726525 -0.217462 9.68864e-06)
(0.00129068 -0.209463 4.33024e-05)
(0.00451147 -0.200555 0.000468926)
(-0.00351779 -0.208723 3.90171e-05)
(0.00397399 -0.197178 0.000529117)
(0.00819232 -0.214356 -5.49496e-06)
(0.0156289 -0.190741 -0.000473379)
(0.00775949 -0.217822 8.63828e-06)
(0.0169493 -0.202522 -0.000218676)
(-0.0146436 -0.193965 -0.000985731)
(0.0136165 -0.260683 0.966709)
(-0.00890229 -0.183084 -0.000896938)
(0.00794341 -0.271306 0.977403)
(-0.0039578 -0.154537 0.000429664)
(0.0105393 -0.288376 0.992493)
(0.00899997 -0.147024 0.000198584)
(0.00759593 -0.296604 0.992416)
(0.0198834 -0.248044 -0.953289)
(-0.019963 -0.205191 0.000636027)
(0.0176999 -0.253897 -0.958957)
(-0.0179539 -0.200807 0.00084759)
(0.0157369 -0.267336 -0.99198)
(-0.0165018 -0.16823 -0.00115869)
(0.0136606 -0.276648 -0.993295)
(-0.0120099 -0.160996 -0.000757831)
(0.00195915 -0.204097 -0.00016689)
(0.00355793 -0.210109 -9.44768e-06)
(0.00332386 -0.202799 -0.000325616)
(0.00321387 -0.210096 -3.74292e-05)
(0.0074075 -0.180476 0.00115619)
(0.0061614 -0.203098 0.000107685)
(0.0110187 -0.183749 0.000816217)
(0.00791595 -0.20855 4.45062e-05)
(0.00210196 -0.214295 -1.29664e-05)
(0.00210208 -0.214295 1.30049e-05)
(1.62452e-05 -0.214814 -7.23631e-06)
(1.64968e-05 -0.214813 7.27025e-06)
(0.00450688 -0.213387 -1.00183e-05)
(0.00450702 -0.213386 1.00593e-05)
(0.00440942 -0.216002 -1.16187e-05)
(0.00440954 -0.216001 1.16544e-05)
(0.00355805 -0.210107 9.47606e-06)
(0.00195912 -0.204095 0.000166893)
(0.00321411 -0.210094 3.74552e-05)
(0.00332389 -0.202796 0.000325623)
(0.00616149 -0.203096 -0.000107657)
(0.00740736 -0.180473 -0.00115622)
(0.0079161 -0.208548 -4.44807e-05)
(0.0110186 -0.183746 -0.000816238)
(-0.0199631 -0.205189 -0.000636106)
(0.0198838 -0.248042 0.953288)
(-0.0179539 -0.200805 -0.000847656)
(0.0177003 -0.253895 0.958956)
(-0.0165025 -0.168228 0.00115863)
(0.0157372 -0.267336 0.99198)
(-0.0120105 -0.160993 0.000757775)
(0.0136609 -0.276648 0.993295)
(0.0217778 -0.238606 -0.944667)
(-0.022052 -0.21004 0.00016917)
(0.0210775 -0.242948 -0.948436)
(-0.0212268 -0.208086 0.000402458)
(0.0173869 -0.250283 -0.990094)
(-0.0205018 -0.181449 -0.00195733)
(0.0167946 -0.258431 -0.990916)
(-0.0190198 -0.175304 -0.00156801)
(0.00019246 -0.205667 7.43968e-05)
(0.0027045 -0.209215 0.000128536)
(0.000922704 -0.204953 -2.89953e-05)
(0.00327604 -0.209757 4.87569e-05)
(0.00426902 -0.180337 0.00168994)
(0.00305018 -0.19644 0.000287332)
(0.00535189 -0.179651 0.00145057)
(0.00440142 -0.199114 0.00019089)
(0.00259643 -0.212592 3.06994e-06)
(0.00259643 -0.212592 -3.03216e-06)
(0.00274423 -0.213509 -1.17241e-05)
(0.00274427 -0.213508 1.17657e-05)
(0.00289966 -0.206094 7.41427e-06)
(0.00289967 -0.206093 -7.38474e-06)
(0.00395548 -0.209321 -5.07057e-06)
(0.00395554 -0.20932 5.11318e-06)
(0.00270448 -0.209214 -0.000128512)
(0.000192412 -0.205665 -7.44077e-05)
(0.00327609 -0.209755 -4.87298e-05)
(0.000922686 -0.204951 2.89912e-05)
(0.00305018 -0.196438 -0.000287304)
(0.0042689 -0.180334 -0.00168998)
(0.00440146 -0.199112 -0.000190864)
(0.0053518 -0.179648 -0.00145061)
(-0.022052 -0.210038 -0.000169273)
(0.0217782 -0.238603 0.944667)
(-0.0212268 -0.208083 -0.000402548)
(0.021078 -0.242946 0.948436)
(-0.0205024 -0.181447 0.00195724)
(0.0173872 -0.250282 0.990094)
(-0.0190203 -0.175301 0.00156793)
(0.0167951 -0.25843 0.990916)
(0.0225041 -0.231814 -0.938394)
(-0.0230506 -0.212336 -0.00025303)
(0.0222101 -0.234933 -0.941121)
(-0.0226275 -0.211388 -5.2406e-05)
(0.0179583 -0.237221 -0.988756)
(-0.0220862 -0.190603 -0.00263504)
(0.0177164 -0.243222 -0.989344)
(-0.0214242 -0.186522 -0.0023145)
(-0.000658336 -0.207115 0.000188893)
(0.00172141 -0.208478 0.000290993)
(-0.000308896 -0.206394 0.000145061)
(0.00215706 -0.208774 0.000213286)
(0.00359169 -0.183948 0.00201516)
(0.00149046 -0.193929 0.000481743)
(0.00371706 -0.181919 0.00187559)
(0.00211411 -0.194813 0.000386947)
(0.00185018 -0.210844 4.95167e-05)
(0.00185016 -0.210843 -4.95171e-05)
(0.0022207 -0.211662 2.46759e-05)
(0.00222068 -0.211661 -2.46505e-05)
(0.00157563 -0.201871 4.84595e-05)
(0.00157558 -0.20187 -4.85176e-05)
(0.00210321 -0.203682 2.61302e-05)
(0.0021032 -0.203681 -2.61222e-05)
(0.00172136 -0.208477 -0.00029098)
(-0.000658355 -0.207113 -0.000188971)
(0.00215702 -0.208773 -0.000213273)
(-0.000308912 -0.206392 -0.000145088)
(0.00149044 -0.193927 -0.000481779)
(0.0035916 -0.183945 -0.00201523)
(0.00211409 -0.194811 -0.000386937)
(0.00371698 -0.181916 -0.00187564)
(-0.0230504 -0.212334 0.000252881)
(0.0225043 -0.231811 0.938393)
(-0.0226273 -0.211386 5.22847e-05)
(0.0222105 -0.23493 0.94112)
(-0.0220865 -0.190601 0.00263489)
(0.0179583 -0.237219 0.988756)
(-0.0214246 -0.18652 0.00231438)
(0.0177168 -0.24322 0.989344)
(0.0229183 -0.226875 -0.933726)
(-0.0235784 -0.213457 -0.000594737)
(0.0227244 -0.229157 -0.935682)
(-0.0233593 -0.213002 -0.00043316)
(0.0182478 -0.227839 -0.987759)
(-0.022894 -0.196363 -0.00316402)
(0.0181008 -0.232147 -0.988187)
(-0.0225459 -0.193835 -0.00291746)
(-0.00091251 -0.208346 0.000218193)
(0.00122047 -0.208288 0.000420614)
(-0.00084857 -0.207764 0.000211256)
(0.00141164 -0.208323 0.000359822)
(0.00381782 -0.188136 0.00218758)
(0.000799201 -0.193523 0.000641483)
(0.0036847 -0.186081 0.00211623)
(0.00107363 -0.193555 0.000567322)
(0.00132022 -0.209695 9.95693e-05)
(0.00131987 -0.209695 -9.97813e-05)
(0.00154959 -0.210189 7.51106e-05)
(0.00154957 -0.210189 -7.51975e-05)
(0.000988532 -0.199494 9.57605e-05)
(0.000988179 -0.199493 -9.64518e-05)
(0.00123042 -0.200512 7.21979e-05)
(0.00123039 -0.200511 -7.24544e-05)
(0.00122094 -0.208286 -0.000420841)
(-0.000912143 -0.208344 -0.000218227)
(0.00141164 -0.208322 -0.000359886)
(-0.000848476 -0.207762 -0.000211345)
(0.000799665 -0.193522 -0.000643378)
(0.00381808 -0.188135 -0.00218662)
(0.00107366 -0.193553 -0.000567579)
(0.00368472 -0.186078 -0.00211628)
(-0.0235778 -0.213455 0.000594671)
(0.0229185 -0.226872 0.933726)
(-0.0233589 -0.212999 0.000433016)
(0.0227248 -0.229154 0.935682)
(-0.0228942 -0.196361 0.00316453)
(0.0182478 -0.227835 0.98776)
(-0.022546 -0.193833 0.00291738)
(0.0181011 -0.232144 0.988187)
(0.0232366 -0.223164 -0.930271)
(-0.0238126 -0.213899 -0.000864135)
(0.0230835 -0.224898 -0.931657)
(-0.0237225 -0.213746 -0.000737957)
(0.0184315 -0.220976 -0.987018)
(-0.0232896 -0.199771 -0.00356096)
(0.0183327 -0.224155 -0.987326)
(-0.0231085 -0.198307 -0.00337763)
(-0.00081234 -0.209316 0.000203977)
(0.00108773 -0.208427 0.000514675)
(-0.000889379 -0.208866 0.000214492)
(0.00112232 -0.208334 0.000472262)
(0.00410185 -0.191728 0.00226277)
(0.000536003 -0.194026 0.000758231)
(0.00395877 -0.190032 0.00223363)
(0.000631113 -0.19371 0.000706206)
(0.0010434 -0.209079 0.000141502)
(0.00104336 -0.209079 -0.000141466)
(0.00115619 -0.209337 0.000121942)
(0.00115631 -0.209336 -0.000121918)
(0.000671551 -0.198153 0.000138739)
(0.000671529 -0.198152 -0.000138702)
(0.000808127 -0.19873 0.000118581)
(0.000808261 -0.198729 -0.000118479)
(0.00108762 -0.208425 -0.00051464)
(-0.000812393 -0.209314 -0.000204007)
(0.00112203 -0.208333 -0.000472223)
(-0.000889441 -0.208864 -0.000214585)
(0.000535944 -0.194024 -0.000758225)
(0.00410178 -0.191726 -0.00226278)
(0.000630884 -0.193709 -0.000705616)
(0.00395872 -0.190031 -0.00223418)
(-0.0238121 -0.213896 0.000863953)
(0.0232368 -0.22316 0.930272)
(-0.023722 -0.213743 0.000737753)
(0.0230839 -0.224894 0.931657)
(-0.0232898 -0.199769 0.00356073)
(0.0184313 -0.220971 0.987018)
(-0.0231085 -0.198305 0.00337721)
(0.0183328 -0.224151 0.987326)
(0.0234801 -0.220249 -0.927724)
(-0.0238664 -0.213891 -0.00107121)
(0.0233638 -0.221627 -0.928672)
(-0.0238554 -0.213941 -0.000974463)
(0.0185233 -0.215771 -0.98647)
(-0.0234831 -0.201609 -0.00385021)
(0.0184674 -0.218207 -0.986685)
(-0.0233899 -0.200848 -0.00371715)
(-0.00057017 -0.209965 0.000172272)
(0.00113547 -0.208637 0.000574312)
(-0.000700226 -0.209684 0.000189322)
(0.00109745 -0.208535 0.00054823)
(0.0043801 -0.194446 0.00228252)
(0.000481808 -0.194786 0.000832511)
(0.00424838 -0.1932 0.00227766)
(0.000492262 -0.194399 0.000800012)
(0.000925067 -0.208747 0.000171627)
(0.000925015 -0.208747 -0.000171577)
(0.000969632 -0.208891 0.000158016)
(0.000969599 -0.20889 -0.000157972)
(0.000482243 -0.197376 0.000170948)
(0.000482216 -0.197375 -0.000170901)
(0.000565896 -0.197713 0.000156232)
(0.000565887 -0.197712 -0.000156189)
(0.00113529 -0.208636 -0.000574248)
(-0.000570379 -0.209963 -0.000172274)
(0.00109732 -0.208534 -0.000548177)
(-0.000700305 -0.209683 -0.000189338)
(0.000481715 -0.194785 -0.000832448)
(0.00437993 -0.194445 -0.00228252)
(0.000492202 -0.194397 -0.000799954)
(0.00424831 -0.193198 -0.00227767)
(-0.0238659 -0.213889 0.001071)
(0.0234807 -0.220244 0.927725)
(-0.0238548 -0.213939 0.00097427)
(0.0233643 -0.221623 0.928672)
(-0.0234835 -0.201607 0.00384994)
(0.0185235 -0.215765 0.98647)
(-0.0233899 -0.200846 0.0037169)
(0.0184677 -0.218202 0.986685)
(0.0236534 -0.217845 -0.925821)
(-0.0238167 -0.213556 -0.00122906)
(0.0235707 -0.218996 -0.926453)
(-0.0238476 -0.21376 -0.00115539)
(0.0185402 -0.211664 -0.986063)
(-0.023529 -0.202401 -0.00405678)
(0.0185161 -0.213607 -0.986209)
(-0.0235018 -0.202111 -0.00396221)
(-0.000273406 -0.21027 0.000135575)
(0.00126376 -0.208763 0.0006077)
(-0.000425961 -0.210158 0.000154106)
(0.00119331 -0.208717 0.000593703)
(0.00460655 -0.196308 0.00227126)
(0.000522648 -0.195482 0.000874172)
(0.00450117 -0.195477 0.00227955)
(0.000495015 -0.195154 0.000856771)
(0.000900871 -0.208516 0.00019065)
(0.000900746 -0.208516 -0.00019065)
(0.000903705 -0.208628 0.000182363)
(0.000903632 -0.208627 -0.000182314)
(0.00036402 -0.196907 0.000192345)
(0.000363912 -0.196907 -0.00019231)
(0.000416012 -0.197115 0.000182906)
(0.000415959 -0.197114 -0.000182859)
(0.00126333 -0.208762 -0.000607819)
(-0.000273988 -0.210268 -0.000135536)
(0.00119303 -0.208716 -0.000593632)
(-0.00042632 -0.210156 -0.000154097)
(0.000522302 -0.195481 -0.000874129)
(0.00460581 -0.196308 -0.00227125)
(0.000494852 -0.195152 -0.000856709)
(0.00450092 -0.195476 -0.00227954)
(-0.0238164 -0.213553 0.00122896)
(0.0236553 -0.21784 0.925822)
(-0.023847 -0.213757 0.00115515)
(0.023572 -0.218992 0.926454)
(-0.0235313 -0.202402 0.00405644)
(0.0185426 -0.211654 0.986063)
(-0.0235025 -0.202111 0.00396191)
(0.0185174 -0.2136 0.986209)
(0.0237638 -0.215763 -0.923575)
(-0.0237164 -0.212953 -0.00134863)
(0.0237115 -0.216772 -0.924783)
(-0.0237711 -0.213286 -0.00129296)
(0.0184818 -0.208288 -0.985754)
(-0.023441 -0.202489 -0.00419622)
(0.0185042 -0.2099 -0.985856)
(-0.0234865 -0.202519 -0.00413473)
(7.40653e-06 -0.210252 9.97703e-05)
(0.00141986 -0.208723 0.000622238)
(-0.000126866 -0.210301 0.000117399)
(0.00134054 -0.208767 0.000616968)
(0.00481407 -0.197426 0.00224372)
(0.000607396 -0.195967 0.000892458)
(0.0047142 -0.196954 0.00225873)
(0.000561467 -0.195756 0.000885715)
(0.000940046 -0.208266 0.000201037)
(0.000939821 -0.208266 -0.000200978)
(0.000913867 -0.208399 0.000196761)
(0.000913679 -0.208399 -0.000196688)
(0.000297707 -0.196578 0.000204745)
(0.000297541 -0.196578 -0.000204683)
(0.000325004 -0.196733 0.000199529)
(0.000324851 -0.196733 -0.000199458)
(0.00141916 -0.208721 -0.000622094)
(6.52362e-06 -0.21025 -9.95304e-05)
(0.0013399 -0.208765 -0.000616849)
(-0.000127758 -0.210299 -0.000117249)
(0.00060685 -0.195967 -0.000892373)
(0.00481286 -0.197428 -0.00224368)
(0.000560949 -0.195755 -0.000885631)
(0.00471283 -0.196954 -0.00225869)
(-0.0237162 -0.21295 0.00134827)
(0.0237667 -0.215758 0.924352)
(-0.0237709 -0.213283 0.00129257)
(0.0237144 -0.216767 0.924783)
(-0.0234425 -0.202493 0.00419592)
(0.0184826 -0.208272 0.985755)
(-0.023491 -0.202521 0.00413443)
(0.0185091 -0.209887 0.985856)
(0.0238393 -0.21387 -0.923166)
(-0.0235833 -0.212111 -0.0014354)
(0.0238034 -0.21481 -0.922681)
(-0.0236506 -0.212555 -0.00139539)
(0.0183458 -0.205415 -0.985515)
(-0.0232441 -0.202073 -0.00429726)
(0.0184119 -0.206801 -0.985584)
(-0.0233434 -0.202344 -0.00424979)
(0.000231634 -0.209937 6.58041e-05)
(0.00157964 -0.20848 0.000622646)
(0.000130181 -0.210131 8.24834e-05)
(0.00150041 -0.208628 0.000623906)
(0.00502422 -0.197915 0.00220795)
(0.000716083 -0.196183 0.000894836)
(0.00491766 -0.197743 0.00222646)
(0.000660106 -0.19611 0.000895173)
(0.00102472 -0.207918 0.000204939)
(0.00102457 -0.207918 -0.000205034)
(0.000977635 -0.208108 0.000203597)
(0.000977434 -0.208108 -0.000203642)
(0.000273239 -0.196267 0.000210382)
(0.000273145 -0.196267 -0.000210374)
(0.000281696 -0.196426 0.000208243)
(0.000281543 -0.196426 -0.000208228)
(0.0015792 -0.208478 -0.000622918)
(0.000231045 -0.209934 -6.68125e-05)
(0.00149978 -0.208626 -0.00062396)
(0.000129422 -0.210128 -8.27948e-05)
(0.000715769 -0.196184 -0.000894809)
(0.00502389 -0.197918 -0.00220784)
(0.000659589 -0.196111 -0.000895135)
(0.00491632 -0.197745 -0.00222642)
(-0.0235836 -0.212104 0.00143628)
(0.0238394 -0.213867 0.920455)
(-0.0236505 -0.212554 0.00139572)
(0.023806 -0.214805 0.923469)
(-0.0232495 -0.202079 0.00429916)
(0.0183455 -0.205397 0.985513)
(-0.023348 -0.202349 0.00425017)
(0.0184155 -0.206784 0.985584)
(0.0238865 -0.212054 -0.922145)
(-0.0234177 -0.211076 -0.00149881)
(0.0238608 -0.212966 -0.922372)
(-0.0235033 -0.211623 -0.00146915)
(0.0182008 -0.202917 -0.98532)
(-0.0229966 -0.201242 -0.00436058)
(0.0182559 -0.204136 -0.985369)
(-0.0231105 -0.201704 -0.00433204)
(0.000425497 -0.209321 3.60211e-05)
(0.0017438 -0.208005 0.000614317)
(0.000327971 -0.209666 5.04432e-05)
(0.0016601 -0.208272 0.000618945)
(0.00519841 -0.197872 0.0021683)
(0.000824817 -0.196115 0.000886757)
(0.00512249 -0.197949 0.00218748)
(0.000771625 -0.196182 0.000891327)
(0.00114458 -0.207419 0.000204616)
(0.0011446 -0.207418 -0.000204489)
(0.00108051 -0.20769 0.000205154)
(0.00108044 -0.207689 -0.000205114)
(0.000276924 -0.195891 0.000211488)
(0.000277148 -0.195891 -0.000211392)
(0.00027101 -0.196091 0.000211375)
(0.000271051 -0.196092 -0.000211305)
(0.00174373 -0.208004 -0.00061415)
(0.000424642 -0.209319 -3.51279e-05)
(0.0016598 -0.20827 -0.000618987)
(0.000327228 -0.209663 -5.03865e-05)
(0.000825346 -0.196116 -0.000886613)
(0.00519946 -0.197876 -0.00216795)
(0.000771609 -0.196183 -0.000891236)
(0.00512237 -0.197953 -0.00218724)
(-0.0234197 -0.211073 0.00149708)
(0.0238857 -0.212048 0.918625)
(-0.0235045 -0.211613 0.00146839)
(0.0238606 -0.212968 0.91961)
(-0.0229959 -0.201246 0.0043615)
(0.0181896 -0.2029 0.985318)
(-0.0231119 -0.20171 0.00433329)
(0.0182498 -0.204122 0.985367)
(0.0239381 -0.210262 -0.918228)
(-0.0232228 -0.209825 -0.00154654)
(0.023906 -0.211172 -0.921393)
(-0.0233218 -0.210488 -0.00152419)
(0.018112 -0.200628 -0.985149)
(-0.022775 -0.200104 -0.00440338)
(0.0181304 -0.201766 -0.985183)
(-0.0228655 -0.20071 -0.00438383)
(0.000633242 -0.208437 1.11715e-05)
(0.00192334 -0.207291 0.000603177)
(0.000527924 -0.208911 2.30703e-05)
(0.00183204 -0.207678 0.000608894)
(0.00533491 -0.197397 0.00213288)
(0.000937394 -0.195753 0.000874807)
(0.0052728 -0.197682 0.00215084)
(0.000882662 -0.195969 0.000881512)
(0.00129537 -0.206732 0.000201863)
(0.00129565 -0.206732 -0.000201931)
(0.0012167 -0.2071 0.000203383)
(0.00121686 -0.2071 -0.000203355)
(0.000309353 -0.195384 0.000209691)
(0.000309694 -0.195384 -0.000209802)
(0.000290548 -0.195657 0.000210849)
(0.000290912 -0.195657 -0.000210858)
(0.00192415 -0.207291 -0.00060322)
(0.00063392 -0.208436 -1.15318e-05)
(0.00183241 -0.207678 -0.000608815)
(0.000527655 -0.208911 -2.28735e-05)
(0.000938503 -0.195753 -0.000874956)
(0.0053376 -0.197398 -0.00213303)
(0.000883769 -0.19597 -0.000881477)
(0.00527556 -0.197686 -0.00215062)
(-0.0232247 -0.209831 0.00154655)
(0.0239369 -0.210252 0.917689)
(-0.0233239 -0.21049 0.00152315)
(0.023905 -0.211166 0.917809)
(-0.0227741 -0.200104 0.00440459)
(0.018105 -0.200617 0.985149)
(-0.022863 -0.200714 0.00438523)
(0.0181191 -0.201754 0.985182)
(0.0240086 -0.20842 -0.916754)
(-0.023004 -0.20838 -0.00157687)
(0.0239649 -0.209376 -0.91742)
(-0.0231136 -0.209124 -0.00156243)
(0.0180055 -0.198421 -0.98499)
(-0.0225132 -0.198717 -0.00442607)
(0.0180279 -0.199528 -0.985019)
(-0.0226216 -0.199445 -0.00441599)
(0.000854711 -0.207298 -1.30084e-05)
(0.00211631 -0.206333 0.000589737)
(0.000744644 -0.207901 -1.42543e-06)
(0.00201876 -0.206843 0.00059639)
(0.0054537 -0.196558 0.00209779)
(0.00104652 -0.195104 0.000859662)
(0.00539822 -0.197022 0.00211481)
(0.00099204 -0.195465 0.000867345)
(0.00147133 -0.205831 0.000198185)
(0.00147153 -0.20583 -0.000198164)
(0.0013805 -0.206309 0.000200031)
(0.00138081 -0.206309 -0.000200112)
(0.000364638 -0.194696 0.000206456)
(0.000364727 -0.194696 -0.000206466)
(0.000334159 -0.195065 0.000208183)
(0.000334401 -0.195065 -0.000208269)
(0.00211715 -0.206333 -0.000590052)
(0.000856099 -0.207298 1.19294e-05)
(0.00201984 -0.206843 -0.000596702)
(0.000746207 -0.2079 4.0737e-07)
(0.00104683 -0.195103 -0.00085995)
(0.00545482 -0.196557 -0.00209866)
(0.000992913 -0.195464 -0.000867608)
(0.00540116 -0.197022 -0.00211537)
(-0.0230042 -0.208375 0.00157883)
(0.0240085 -0.208423 0.920329)
(-0.0231144 -0.20913 0.00156403)
(0.0239637 -0.209369 0.91687)
(-0.0225215 -0.198715 0.00442614)
(0.0180144 -0.19842 0.984993)
(-0.0226271 -0.199444 0.00441748)
(0.0180314 -0.199526 0.98502)
(0.0241051 -0.206477 -0.915832)
(-0.0227747 -0.206731 -0.00160346)
(0.0240483 -0.207484 -0.915924)
(-0.0228897 -0.207591 -0.00159105)
(0.0179448 -0.196217 -0.984838)
(-0.0222562 -0.197104 -0.00444044)
(0.0179459 -0.197335 -0.98486)
(-0.0223639 -0.197942 -0.00443439)
(0.00103507 -0.205911 -2.9095e-05)
(0.00231432 -0.205122 0.000577144)
(0.000948874 -0.206636 -2.12819e-05)
(0.00221419 -0.20576 0.000583343)
(0.00555966 -0.195405 0.00206694)
(0.00115845 -0.194171 0.000844395)
(0.00550927 -0.196018 0.00208182)
(0.00110224 -0.194672 0.000851983)
(0.00166972 -0.20469 0.000194111)
(0.00166974 -0.20469 -0.000193909)
(0.00156766 -0.205292 0.000196173)
(0.00156773 -0.205292 -0.000196011)
(0.000441274 -0.193788 0.000202579)
(0.000441437 -0.193788 -0.000202471)
(0.000400776 -0.194271 0.000204576)
(0.000400839 -0.194271 -0.000204496)
(0.00231452 -0.205122 -0.000576554)
(0.00103572 -0.20591 3.08131e-05)
(0.00221458 -0.20576 -0.000583135)
(0.000949719 -0.206636 2.16186e-05)
(0.00115897 -0.194169 -0.000844297)
(0.00556083 -0.195403 -0.00206702)
(0.0011024 -0.194671 -0.000852085)
(0.00551001 -0.196017 -0.00208239)
(-0.0227733 -0.206726 0.00160152)
(0.0241049 -0.20648 0.919444)
(-0.0228891 -0.207579 0.00159107)
(0.0240488 -0.207485 0.919568)
(-0.0222459 -0.197102 0.00443703)
(0.017933 -0.196221 0.984844)
(-0.0223622 -0.197941 0.00443254)
(0.0179447 -0.197339 0.984864)
(0.0242247 -0.204394 -0.918524)
(-0.0225208 -0.204859 -0.00161626)
(0.0241549 -0.205481 -0.914989)
(-0.0226496 -0.205825 -0.00161047)
(0.0178841 -0.193941 -0.984692)
(-0.021975 -0.195278 -0.00444055)
(0.0178869 -0.195103 -0.984711)
(-0.0220955 -0.196222 -0.00444174)
(0.00122817 -0.204273 -4.68305e-05)
(0.00253141 -0.203647 0.000563793)
(0.001128 -0.205125 -3.81523e-05)
(0.00241989 -0.204418 0.000570309)
(0.00566803 -0.193972 0.00203875)
(0.00127421 -0.192954 0.000829086)
(0.00561589 -0.194725 0.00205234)
(0.00121614 -0.193598 0.000836635)
(0.00189326 -0.20329 0.000189579)
(0.00189331 -0.203289 -0.000189712)
(0.00177822 -0.204024 0.000191795)
(0.00177828 -0.204023 -0.000191768)
(0.000534176 -0.192631 0.000198308)
(0.000534333 -0.192631 -0.000198318)
(0.000486011 -0.193243 0.000200435)
(0.00048621 -0.193242 -0.000200404)
(0.0025318 -0.203646 -0.000564142)
(0.0012295 -0.204271 4.55318e-05)
(0.00242026 -0.204417 -0.000570132)
(0.00112919 -0.205123 3.8557e-05)
(0.00127475 -0.192951 -0.000829048)
(0.00566926 -0.193967 -0.00203855)
(0.0012168 -0.193596 -0.000836578)
(0.00561724 -0.194721 -0.00205236)
(-0.0225179 -0.204857 0.00161769)
(0.0242223 -0.20439 0.915524)
(-0.0226469 -0.20583 0.00160997)
(0.0241543 -0.205473 0.91867)
(-0.0219711 -0.195273 0.00444162)
(0.0178782 -0.193953 0.984693)
(-0.0220859 -0.19622 0.00443967)
(0.0178765 -0.195113 0.984715)
(0.0243778 -0.202113 -0.917614)
(-0.0222399 -0.202766 -0.00162678)
(0.024292 -0.203299 -0.917749)
(-0.0223826 -0.203845 -0.0016217)
(0.0178322 -0.19154 -0.98455)
(-0.0216791 -0.193231 -0.00443635)
(0.0178292 -0.192772 -0.984566)
(-0.0218059 -0.194288 -0.00443875)
(0.00145295 -0.202369 -5.9028e-05)
(0.00277441 -0.201892 0.000551915)
(0.00133716 -0.203356 -5.3169e-05)
(0.00264973 -0.202805 0.000557546)
(0.00577743 -0.192253 0.00201315)
(0.00139336 -0.191444 0.000814658)
(0.0057247 -0.193149 0.00202554)
(0.0013335 -0.192236 0.000821723)
(0.00214389 -0.20161 0.000185547)
(0.00214376 -0.201609 -0.00018542)
(0.00201518 -0.202485 0.00018747)
(0.00201515 -0.202485 -0.000187481)
(0.000640565 -0.191199 0.000194254)
(0.000640451 -0.191199 -0.000194116)
(0.000585854 -0.191951 0.00019625)
(0.000585927 -0.19195 -0.000196191)
(0.00277415 -0.201891 -0.000551731)
(0.00145316 -0.202368 5.99631e-05)
(0.00264978 -0.202804 -0.000557676)
(0.00133785 -0.203355 5.31507e-05)
(0.00139266 -0.191441 -0.000814368)
(0.00577531 -0.192248 -0.0020125)
(0.00133368 -0.192233 -0.00082155)
(0.00572544 -0.193144 -0.00202499)
(-0.0222387 -0.202767 0.00162515)
(0.024375 -0.202108 0.913963)
(-0.0223806 -0.20384 0.00162119)
(0.0242892 -0.203305 0.914695)
(-0.0216807 -0.193223 0.00443682)
(0.0178317 -0.191551 0.984549)
(-0.0217993 -0.19428 0.00443943)
(0.0178208 -0.192785 0.984566)
(0.0245586 -0.199609 -0.913763)
(-0.0219275 -0.200418 -0.00163391)
(0.0244578 -0.200912 -0.916797)
(-0.0220865 -0.201636 -0.00163034)
(0.0178111 -0.188965 -0.9844)
(-0.0213868 -0.190951 -0.00442929)
(0.0177907 -0.190289 -0.984418)
(-0.0215105 -0.192125 -0.00443287)
(0.00170777 -0.200187 -6.7739e-05)
(0.00304372 -0.199845 0.000541545)
(0.0015772 -0.201314 -6.37221e-05)
(0.00290589 -0.200906 0.00054649)
(0.00588925 -0.190248 0.00199023)
(0.00151678 -0.18963 0.000801076)
(0.00583542 -0.191288 0.00200134)
(0.00145468 -0.190575 0.00080774)
(0.00242208 -0.199633 0.000181701)
(0.0024221 -0.199632 -0.000181712)
(0.00227957 -0.200659 0.000183549)
(0.0022795 -0.200659 -0.000183469)
(0.00075929 -0.189471 0.000190264)
(0.000759266 -0.189471 -0.000190264)
(0.000698514 -0.190373 0.000192235)
(0.000698378 -0.190373 -0.000192148)
(0.00304413 -0.199843 -0.000541521)
(0.00170999 -0.200185 6.71851e-05)
(0.00290586 -0.200905 -0.000546332)
(0.00157821 -0.201313 6.38104e-05)
(0.00151679 -0.189628 -0.000801031)
(0.00588985 -0.190243 -0.00199022)
(0.00145399 -0.190573 -0.00080753)
(0.00583328 -0.191283 -0.00200092)
(-0.0219248 -0.200424 0.00163378)
(0.0245529 -0.199604 0.912991)
(-0.0220847 -0.201639 0.0016293)
(0.0244534 -0.200912 0.913079)
(-0.0213847 -0.190943 0.00443004)
(0.017809 -0.18897 0.9844)
(-0.0215132 -0.192118 0.00443376)
(0.0177928 -0.190295 0.984417)
(0.0247718 -0.196846 -0.912023)
(-0.0215823 -0.197806 -0.00163275)
(0.0246545 -0.198295 -0.912901)
(-0.0217577 -0.199146 -0.00163285)
(0.017784 -0.186168 -0.984258)
(-0.0210578 -0.188418 -0.00441481)
(0.0177639 -0.187608 -0.984271)
(-0.0211983 -0.189722 -0.00442201)
(0.00199231 -0.19771 -7.70476e-05)
(0.00334012 -0.197487 0.000531328)
(0.00184678 -0.198988 -7.2704e-05)
(0.00318859 -0.198706 0.000536144)
(0.00600699 -0.187947 0.00196907)
(0.00164627 -0.187503 0.000788318)
(0.00594992 -0.189136 0.00197922)
(0.00158095 -0.188607 0.000794512)
(0.0027281 -0.197341 0.000178145)
(0.00272797 -0.19734 -0.000178121)
(0.0025716 -0.198527 0.000179812)
(0.00257159 -0.198527 -0.000179857)
(0.000889631 -0.187428 0.00018659)
(0.000889547 -0.187427 -0.000186549)
(0.000823112 -0.18849 0.000188371)
(0.000823073 -0.188489 -0.00018837)
(0.00333988 -0.197486 -0.000531624)
(0.001993 -0.197708 7.57163e-05)
(0.00318885 -0.198704 -0.000536412)
(0.00184872 -0.198986 7.13618e-05)
(0.00164606 -0.1875 -0.000788448)
(0.00600657 -0.187942 -0.00196986)
(0.00158094 -0.188604 -0.000794586)
(0.0059503 -0.189131 -0.00197965)
(-0.0215799 -0.197798 0.0016343)
(0.0247697 -0.196857 0.91571)
(-0.0217546 -0.199151 0.00163447)
(0.0246495 -0.198295 0.91211)
(-0.02107 -0.18841 0.0044144)
(0.0177989 -0.186174 0.98426)
(-0.0212073 -0.189714 0.00442305)
(0.0177754 -0.187614 0.984271)
(0.0250188 -0.193801 -0.911036)
(-0.0212053 -0.194897 -0.00163577)
(0.0248839 -0.195393 -0.911106)
(-0.0213964 -0.1964 -0.00163401)
(0.0177939 -0.183118 -0.984112)
(-0.0207318 -0.185611 -0.00440029)
(0.0177566 -0.184686 -0.984123)
(-0.0208719 -0.187053 -0.00440767)
(0.00230638 -0.19492 -7.91855e-05)
(0.00366466 -0.194803 0.000523425)
(0.002146 -0.196356 -7.82426e-05)
(0.00349889 -0.196187 0.000527115)
(0.00613071 -0.18534 0.00195107)
(0.00178274 -0.185048 0.000777062)
(0.0060705 -0.186683 0.00195966)
(0.00171369 -0.186317 0.000782515)
(0.00306288 -0.194716 0.00017511)
(0.00306266 -0.194715 -0.0001749)
(0.00289186 -0.196071 0.000176549)
(0.00289166 -0.19607 -0.000176405)
(0.00103131 -0.185051 0.000183313)
(0.00103131 -0.18505 -0.00018318)
(0.000959061 -0.186281 0.000184915)
(0.000959018 -0.186281 -0.000184806)
(0.00366395 -0.194802 -0.000522805)
(0.00230553 -0.194918 8.09846e-05)
(0.00349832 -0.196186 -0.000526919)
(0.0021457 -0.196354 7.85238e-05)
(0.00178281 -0.185047 -0.000776929)
(0.0061312 -0.185337 -0.00195134)
(0.0017136 -0.186315 -0.000782521)
(0.00607046 -0.186679 -0.00196029)
(-0.0212045 -0.194889 0.00163319)
(0.025019 -0.193811 0.914731)
(-0.021395 -0.196385 0.00163366)
(0.0248845 -0.195398 0.914859)
(-0.020726 -0.185607 0.0043966)
(0.0177873 -0.183126 0.984116)
(-0.0208751 -0.187048 0.00440546)
(0.0177616 -0.184694 0.984125)
(0.0252942 -0.19046 -0.913731)
(-0.0207924 -0.191656 -0.00163071)
(0.0251451 -0.192207 -0.910099)
(-0.0210021 -0.193324 -0.00163367)
(0.0178042 -0.179783 -0.983969)
(-0.0203778 -0.182511 -0.00437822)
(0.0177706 -0.181498 -0.983976)
(-0.0205353 -0.184102 -0.00438996)
(0.00265205 -0.191798 -8.38198e-05)
(0.00401877 -0.191775 0.000515399)
(0.00247565 -0.193403 -8.13317e-05)
(0.00383805 -0.193333 0.000519259)
(0.00626384 -0.182415 0.00193455)
(0.0019283 -0.182254 0.000766418)
(0.0061984 -0.183919 0.0019425)
(0.00185448 -0.183694 0.000771615)
(0.00342749 -0.191739 0.000172111)
(0.00342733 -0.191739 -0.000172137)
(0.0032414 -0.193272 0.000173545)
(0.00324121 -0.193272 -0.000173436)
(0.00118488 -0.182323 0.000180163)
(0.00118487 -0.182323 -0.000180165)
(0.00110662 -0.183732 0.0001817)
(0.00110661 -0.183731 -0.000181636)
(0.00401821 -0.191774 -0.000515503)
(0.00265134 -0.191796 8.29345e-05)
(0.00383739 -0.193332 -0.000518921)
(0.00247483 -0.1934 8.20842e-05)
(0.00192826 -0.182253 -0.000766352)
(0.00626358 -0.182413 -0.00193454)
(0.00185451 -0.183693 -0.000771516)
(0.00619872 -0.183916 -0.00194269)
(-0.0207912 -0.191656 0.0016315)
(0.0252928 -0.190456 0.911163)
(-0.0210011 -0.193326 0.00163196)
(0.0251459 -0.192201 0.91386)
(-0.0203821 -0.182508 0.00437847)
(0.0178056 -0.179791 0.983968)
(-0.0205307 -0.184099 0.00438727)
(0.0177649 -0.181507 0.983978)
(0.0255975 -0.18677 -0.911099)
(-0.0203426 -0.188089 -0.00162614)
(0.0254354 -0.188687 -0.912842)
(-0.020571 -0.189921 -0.00162796)
(0.0178079 -0.176145 -0.983824)
(-0.0199895 -0.17909 -0.00435544)
(0.0177704 -0.178013 -0.983831)
(-0.0201578 -0.180847 -0.00436643)
(0.00303023 -0.188328 -8.52819e-05)
(0.00440363 -0.188387 0.000508458)
(0.00283742 -0.190109 -8.46839e-05)
(0.00420746 -0.190127 0.000511666)
(0.00641086 -0.179155 0.00191895)