/*--------------------------------*- C++ -*----------------------------------*\
  =========                 |
  \\      /  F ield         | OpenFOAM: The Open Source CFD Toolbox
   \\    /   O peration     | Website:  https://openfoam.org
    \\  /    A nd           | Version:  9
     \\/     M anipulation  |
\*---------------------------------------------------------------------------*/
FoamFile
{
    format      ascii;
    class       volScalarField;
    location    "2";
    object      epsilon;
}
// * * * * * * * * * * * * * * * * * * * * * * * * * * * * * * * * * * * * * //

dimensions      [0 2 -3 0 0 0 0];

internalField   nonuniform List<scalar> 
36360
(
1.35412
1.1924
0.175567
0.266369
0.183097
0.200966
0.0110145
0.0136234
0.249365
0.0322185
0.0221912
0.00595316
0.0272923
0.00660827
0.00659333
0.00589209
0.00569345
0.00569362
0.00515333
0.00515331
0.00485268
0.00485269
0.00627153
0.00627153
0.03222
0.249368
0.00595326
0.0221928
0.00660843
0.0272939
0.00589209
0.0065934
1.19241
1.35415
0.266391
0.175576
0.200974
0.183105
0.0136243
0.0110147
3.42987
2.71496
2.55357
2.04227
2.02546
1.52328
0.990857
0.815014
1.12961
0.441324
0.700769
0.179768
0.589142
0.149884
0.196921
0.0269356
0.180575
0.180572
0.0371769
0.037178
0.0422638
0.0422657
0.00662021
0.00662049
0.441305
1.12956
0.179767
0.700757
0.149888
0.589129
0.0269374
0.196923
2.7149
3.4298
2.04225
2.55355
1.52322
2.02539
0.815008
0.990863
4.63362
3.71797
4.09384
3.25721
3.69551
2.83015
2.91717
2.19529
1.88856
1.03373
1.52316
0.732848
1.5127
0.844678
1.03981
0.457393
0.696928
0.696907
0.426537
0.426526
0.579421
0.57941
0.226793
0.226793
1.03366
1.88844
0.732807
1.52308
0.84463
1.51258
0.457378
1.03976
3.71781
4.63345
3.2571
4.09372
2.82991
3.6952
2.19516
2.91701
5.49791
4.48595
5.0929
4.12213
5.06449
4.01861
4.4035
3.43623
2.54647
1.61435
2.229
1.33007
2.46605
1.67932
1.99122
1.2592
1.2383
1.23825
0.971264
0.971232
1.3658
1.36575
0.969006
0.968978
1.61422
2.54624
1.32997
2.22883
1.67917
2.46574
1.2591
1.99101
4.48567
5.49762
4.12191
5.09266
4.01808
5.06383
3.43586
4.40304
6.18373
5.11311
5.85877
4.81429
6.25987
5.09994
5.68236
4.57369
3.11342
2.13467
2.84097
1.88303
3.37449
2.49649
2.92888
2.09389
1.73349
1.73342
1.49317
1.49311
2.14112
2.14103
1.7585
1.75843
2.13446
3.11308
1.88285
2.84069
2.49618
3.37392
2.09366
2.92844
5.11271
6.18332
4.81396
5.8584
5.09905
6.25877
4.57299
5.6815
6.73157
5.62692
6.47227
5.38269
7.29023
6.05047
6.79547
5.59224
3.59193
2.58328
3.36342
2.36818
4.19475
3.24577
3.7973
2.88151
2.16533
2.16524
1.9578
1.95771
2.85694
2.85678
2.50835
2.50823
2.583
3.59148
2.36794
3.36303
3.24529
4.19389
2.88112
3.79659
5.62641
6.73105
5.38223
6.47178
6.04917
7.28865
5.59115
6.79415
7.16579
6.03992
6.96109
5.84469
8.15178
6.85625
7.74134
6.47115
3.98541
2.958
3.79884
2.77979
4.90365
3.90114
4.56366
3.58604
2.52902
2.5289
2.35576
2.35565
3.48688
3.48667
3.18357
3.18338
2.95765
3.98487
2.77948
3.79835
3.90049
4.9025
3.58546
4.56266
6.03931
7.16517
5.84413
6.96049
6.85453
8.14971
6.46965
7.73953
7.5023
6.36352
7.34456
6.21152
8.85009
7.51643
8.51991
7.20349
4.29989
3.26139
4.15192
3.1183
5.49317
4.45142
5.21308
4.18945
2.82545
2.82531
2.68544
2.68531
4.01846
4.01819
3.76511
3.76487
3.26099
4.29926
3.11792
4.15134
4.45059
5.49174
4.1887
5.21178
6.36283
7.50161
6.21087
7.34387
7.51432
8.84756
7.20158
8.51763
7.75493
6.60904
7.63746
6.49465
9.39781
8.03872
9.14103
7.79334
4.5433
3.49911
4.42982
3.38804
5.96552
4.896
5.74326
4.68646
3.05911
3.05895
2.94979
2.94964
4.44967
4.44935
4.24624
4.24594
3.49866
4.5426
3.38761
4.42916
4.895
5.96382
4.68554
5.74169
6.60828
7.75418
6.49393
7.6367
8.03624
9.39486
7.79105
9.13832
7.93604
6.78725
7.85293
6.70525
9.81088
8.4356
9.61935
8.25117
4.72434
3.67834
4.64097
3.5956
6.32898
5.24082
6.15989
5.08014
3.23639
3.23622
3.15443
3.15426
4.78541
4.78503
4.62882
4.62847
3.67784
4.72358
3.59512
4.64025
5.23968
6.32706
5.07907
6.15808
6.78643
7.93525
6.70446
7.85211
8.43281
9.80756
8.24854
9.61624
8.05692
6.90839
8.00259
6.85371
10.1067
8.72213
9.97155
8.5909
4.85178
3.8068
4.79415
3.74848
6.59514
5.49555
6.47312
5.37854
3.36447
3.36428
3.3062
3.30602
5.03446
5.03404
4.91994
4.91954
3.80627
4.85098
3.74797
4.79337
5.49429
6.59301
5.37734
6.47109
6.90753
8.0561
6.85287
8.00173
8.71907
10.103
8.58798
9.96811
8.12737
6.98158
8.09716
6.94982
10.3022
8.9137
10.2152
8.82806
4.93395
3.89214
4.89798
3.85447
6.77681
5.67158
6.69541
5.59246
3.4506
3.45041
3.41243
3.41225
5.20753
5.20708
5.12961
5.12917
3.89157
4.93311
3.85393
4.89716
5.67022
6.77453
5.59114
6.6932
6.98069
8.12653
6.94895
8.09626
8.91043
10.2983
8.82489
10.2114
8.15634
7.01531
8.14575
7.00225
10.4139
9.02555
10.3667
8.97785
4.97858
3.94154
4.96046
3.92099
6.88705
5.78074
6.83974
5.73357
3.5017
3.5015
3.48023
3.48003
5.3159
5.31542
5.26891
5.26844
3.94095
4.97771
3.92042
4.95961
5.7793
6.88463
5.73217
6.83738
7.0144
8.15549
7.00135
8.14483
9.02209
10.4098
8.97448
10.3628
8.15127
7.01652
8.15677
7.01891
10.4555
9.07082
10.442
9.055
4.9923
3.96138
4.98891
3.95489
6.93785
5.83427
6.91887
5.81359
3.52398
3.52377
3.51622
3.51601
5.37038
5.36987
5.34904
5.34855
3.96078
4.9914
3.9543
4.98803
5.83275
6.93531
5.81211
6.91639
7.0156
8.15042
7.018
8.15585
9.0672
10.4512
9.05147
10.4378
8.11851
6.99174
8.13743
7.00664
10.4434
9.06413
10.4548
9.07211
4.98149
3.95764
4.98965
3.96207
6.94081
5.84218
6.94383
5.84288
3.52315
3.52294
3.52611
3.5259
5.38037
5.37984
5.38011
5.37959
3.95703
4.98059
3.96147
4.98876
5.84059
6.93816
5.84132
6.94122
6.99082
8.11767
7.00572
8.13651
9.06035
10.4389
9.06841
10.4504
8.06151
6.94404
8.09207
6.9699
10.3816
9.01109
10.417
9.04211
4.94943
3.93409
4.96786
3.94825
6.90409
5.81436
6.92732
5.83317
3.50339
3.50318
3.51566
3.51545
5.35649
5.35594
5.3732
5.37266
3.93348
4.94854
3.94765
4.96696
5.81271
6.90133
5.83154
6.9246
6.94315
8.06068
6.96899
8.09116
9.00717
10.377
9.03824
10.4125
7.98556
6.87876
8.02481
6.91263
10.2835
8.92337
10.3357
8.97012
4.90124
3.89538
4.92702
3.91643
6.83611
5.75695
6.87304
5.78845
3.4689
3.46869
3.48781
3.4876
5.30369
5.30313
5.33278
5.33222
3.89479
4.90039
3.91584
4.92614
5.75525
6.83329
5.78677
6.87024
6.87794
7.9848
6.91178
8.02392
8.91936
10.2788
8.96615
10.331
7.89683
6.80185
7.94177
6.84087
10.1596
8.81122
10.2234
8.86907
4.84207
3.84612
4.87279
3.87198
6.74625
5.67896
6.79321
5.71995
3.42408
3.42389
3.44772
3.44752
5.23097
5.2304
5.26929
5.26871
3.84558
4.8413
3.87141
4.87197
5.67725
6.7434
5.71824
6.79036
6.80118
7.8963
6.8401
7.94102
8.80717
10.1548
8.86502
10.2187
7.79967
6.7173
7.8485
6.75984
10.0172
8.68145
10.0897
8.74751
4.77531
3.78935
4.80952
3.81867
6.64034
5.5858
6.69477
5.63383
3.37183
3.37167
3.3989
3.39872
5.14348
5.14292
5.18864
5.18807
3.7889
4.77473
3.81818
4.80884
5.58415
6.63763
5.63214
6.69197
6.71692
7.79958
6.7593
7.84811
8.67765
10.0127
8.74355
10.085
7.69609
6.62701
7.74797
6.67226
9.86095
8.5385
9.93994
8.61071
4.7029
3.72698
4.73977
3.75891
6.52244
5.48134
6.58243
5.53462
3.31406
3.31392
3.3437
3.34355
5.04498
5.04446
5.09526
5.09472
3.72662
4.70246
3.75852
4.73927
5.47977
6.51987
5.53301
6.57979
6.62683
7.69615
6.67198
7.74788
8.53488
9.85668
8.60701
9.93559
7.58591
6.53104
7.64112
6.57909
9.69258
8.38427
9.77746
8.46194
4.62556
3.66011
4.66481
3.69418
6.39505
5.3681
6.45955
5.42552
3.25195
3.25184
3.28364
3.28352
4.93802
4.93752
4.99228
4.99176
3.65983
4.62526
3.69387
4.66445
5.36664
6.39268
5.42401
6.45708
6.53108
7.58622
6.57902
7.64125
8.38094
9.68864
8.45846
9.77342
7.47019
6.43053
7.528
6.48072
9.51438
8.22106
9.60389
8.30295
4.54427
3.58962
4.58538
3.62541
6.26016
5.24796
6.32821
5.30865
3.18638
3.18627
3.2197
3.2196
4.82441
4.82393
4.8818
4.88132
3.58937
4.54404
3.62515
4.58515
5.24656
6.25789
5.30721
6.3259
6.43076
7.47074
6.48091
7.52837
8.21792
9.51069
8.29977
9.60015
7.34981
6.32614
7.40995
6.37825
9.32805
8.05034
9.42153
8.13592
4.45966
3.51613
4.50239
3.55336
6.11903
5.12218
6.19009
5.18556
3.11795
3.11784
3.15264
3.15254
4.70541
4.70494
4.76538
4.7649
3.51585
4.45933
3.5531
4.50211
5.1208
6.11678
5.18417
6.18782
6.3261
7.35009
6.37833
7.41032
8.04715
9.32428
8.13274
9.41786
7.22491
6.21819
7.28722
6.272
9.1344
7.873
9.23143
7.96174
4.37216
3.44011
4.41626
3.47854
5.97262
4.99169
6.0462
5.05733
3.04712
3.047
3.08296
3.08285
4.58193
4.58147
4.64405
4.64359
3.43977
4.37173
3.47824
4.41591
4.99032
5.97037
5.05596
6.04396
6.21804
7.22497
6.27193
7.28732
7.86984
9.13063
7.9586
9.2277
7.09626
6.10737
7.16039
6.16253
8.93454
7.69016
9.03456
7.78158
4.28223
3.36189
4.32751
3.40139
5.8217
4.85709
5.89748
4.92475
2.9742
2.97405
3.01106
3.01092
4.45451
4.45405
4.51856
4.5181
3.36145
4.28161
3.401
4.32699
4.85571
5.8194
4.92336
5.8952
6.10685
7.09591
6.16219
7.16019
7.68685
8.93067
7.77833
9.03078
6.96382
5.99357
7.02995
6.05035
8.72871
7.50181
8.83186
7.59612
4.18982
3.28145
4.23641
3.3221
5.66635
4.7185
5.74443
4.78819
2.89918
2.89901
2.93711
2.93695
4.32326
4.32282
4.38926
4.3888
3.28096
4.1891
3.32163
4.23573
4.71716
5.66411
4.78682
5.74213
5.99289
6.96323
6.04973
7.02937
7.4986
8.72492
7.59283
8.82803
6.82641
5.8757
6.89518
5.93465
8.51545
7.30679
8.62252
7.40459
4.09419
3.19832
4.14247
3.24037
5.50578
4.5754
5.58658
4.64742
2.82171
2.82154
2.86091
2.86074
4.18783
4.18741
4.25598
4.25555
3.19783
4.09348
3.23988
4.14175
4.57415
5.50369
4.64613
5.58441
5.87501
6.82581
5.93395
6.8945
7.30382
8.51193
7.4015
8.61889
6.68357
5.75335
6.75504
5.81453
8.29414
7.10461
8.40525
7.20602
3.99497
3.11217
4.04506
3.15574
5.33952
4.4274
5.4232
4.50192
2.7415
2.74134
2.78209
2.78192
4.04782
4.04743
4.1183
4.1179
3.11171
3.99431
3.15527
4.04437
4.42623
5.33757
4.50071
5.42118
5.75271
6.68302
5.81386
6.7544
7.10183
8.29085
7.20315
8.40188
6.53578
5.62683
6.60965
5.69004
8.06509
6.89542
8.18004
7.00032
3.89224
3.02293
3.94407
3.06805
5.16753
4.27433
5.25408
4.3514
2.65841
2.65826
2.70044
2.70029
3.90304
3.90267
3.97594
3.97556
3.0225
3.89161
3.0676
3.94342
4.27323
5.16568
4.35027
5.25218
5.62623
6.53527
5.68943
6.60906
6.8928
8.06198
6.99763
8.17687
6.38354
5.49645
6.4596
5.56157
7.82851
6.67928
7.94724
6.78769
3.78607
2.93055
3.83961
2.97725
4.98971
4.116
5.07921
4.19574
2.57233
2.57219
2.61587
2.61572
3.75324
3.75289
3.82869
3.82833
2.93014
3.78547
2.97683
3.839
4.11495
4.98796
4.19466
5.07741
5.49588
6.38306
5.56099
6.45905
6.67679
7.82555
6.78514
7.94424
6.22707
5.36225
6.30524
5.42929
7.58416
6.45583
7.70685
6.56799
3.67634
2.83484
3.73168
2.88323
4.80569
3.95202
4.89836
4.03466
2.48305
2.48291
2.52822
2.52808
3.59802
3.59769
3.67625
3.67591
2.83445
3.67577
2.88283
3.7311
3.95102
4.80403
4.03363
4.89666
5.36172
6.22662
5.42875
6.30472
6.45348
7.58136
6.56557
7.704
6.06631
5.22403
6.14667
5.29315
7.3314
6.22448
7.45842
6.34068
3.56272
2.73542
3.62007
2.78572
4.61482
3.78172
4.71103
3.86762
2.39015
2.39002
2.43719
2.43705
3.43673
3.43642
3.5181
3.51778
2.73504
3.56218
2.78534
3.61952
3.78079
4.61327
3.86666
4.70942
5.22353
6.06589
5.29263
6.14618
6.22227
7.32876
6.3384
7.45573
5.90086
5.08116
5.98365
5.1527
7.06918
5.98468
7.20114
6.10528
3.44456
2.63161
3.50428
2.6842
4.41615
3.60414
4.51642
3.69384
2.29297
2.29285
2.34224
2.34212
3.26842
3.26813
3.35345
3.35315
2.63126
3.44405
2.68384
3.50376
3.60327
4.4147
3.69294
4.51492
5.0807
5.90047
5.15222
5.9832
5.98261
7.06671
6.10313
7.19861
5.72972
4.93266
5.81554
5.00719
6.79533
5.7343
6.93347
5.86054
3.32077
2.52235
3.38347
2.57783
4.20802
3.41781
4.31328
3.5121
2.19048
2.19037
2.24256
2.24244
3.09171
3.09144
3.18114
3.18086
2.52203
3.3203
2.57749
3.38299
3.417
4.20667
3.51127
4.31188
4.93223
5.72936
5.00674
5.81512
5.73238
6.79305
5.85854
6.93112
5.55077
4.77648
5.64087
4.8552
6.50628
5.47039
6.65261
5.60384
3.18946
2.40596
3.25623
2.46526
3.988
3.22064
4.09957
3.32066
2.08111
2.081
2.13686
2.13675
2.9047
2.90446
2.99956
2.9993
2.40566
3.18902
2.46495
3.25578
3.21991
3.98677
3.31989
4.09829
4.77608
5.55044
4.85479
5.64049
5.46863
6.50419
5.602
6.65044
5.35935
4.60837
5.45651
4.6938
6.19576
5.18854
6.35387
5.33167
3.04712
2.2796
3.11999
2.34433
3.75242
3.00974
3.87235
3.11707
1.96244
1.96235
2.0232
2.0231
2.70495
2.70473
2.80653
2.8063
2.27933
3.04673
2.34404
3.11958
3.00909
3.75131
3.11637
3.87119
4.60802
5.35906
4.69343
5.45616
5.18696
6.19388
5.33
6.3519
5.14505
4.41853
5.25556
4.5167
5.85216
4.88095
6.02878
5.03831
2.88641
2.13833
2.96979
2.21132
3.49486
2.78092
3.62687
2.89783
1.83091
1.83082
1.89862
1.89853
2.4896
2.48941
2.59933
2.59913
2.13808
2.88606
2.21106
2.96943
2.78035
3.49389
2.89721
3.62583
4.41823
5.14481
4.51637
5.25526
4.87955
5.85049
5.03682
6.02701
4.88391
4.17687
5.02203
4.30743
5.45457
4.52784
5.66141
4.71221
2.68877
1.97336
2.7942
2.05956
3.20166
2.52865
3.35401
2.65799
1.68244
1.68237
1.75902
1.75894
2.25715
2.25698
2.37536
2.37518
1.97315
2.68848
2.05934
2.79389
2.52816
3.20083
2.65746
3.35311
4.17664
4.88373
4.30716
5.02178
4.52663
5.45314
4.71091
5.65987
4.53396
3.74155
4.72355
4.00527
4.95181
4.01479
5.22514
4.30926
2.40639
1.77553
2.56259
1.87851
2.84122
2.25186
3.03241
2.39253
1.51887
1.51881
1.60178
1.60172
2.01466
2.01453
2.13594
2.1358
1.77537
2.40617
1.87833
2.56234
2.25146
2.84055
2.39209
3.03166
3.7414
4.53389
4.00508
4.72339
4.01382
4.95061
4.30816
5.22383
2.44381
1.95037
0.555402
0.652985
1.9937
1.62919
0.338138
0.454882
0.62793
0.145191
0.0860318
0.0120047
0.449305
0.0826164
0.0483554
0.00841655
0.0285642
0.0285654
0.00569511
0.00569521
0.01266
0.0126607
0.00530709
0.00530711
0.145191
0.627918
0.0120052
0.0860359
0.0826188
0.449307
0.00841678
0.0483589
1.95035
2.44382
0.653012
0.555457
1.6292
1.99372
0.454909
0.338154
4.73729
3.77217
3.78661
2.98814
4.22048
3.34202
3.30198
2.60449
1.89472
0.95147
1.30249
0.510081
1.56629
0.716633
1.04353
0.352162
0.561116
0.561097
0.199061
0.199058
0.373278
0.373268
0.107804
0.107804
0.951405
1.89461
0.510058
1.30244
0.716594
1.56622
0.352155
1.0435
3.77205
4.73721
2.98808
3.78656
3.34194
4.22039
2.60445
3.30194
5.97004
4.87099
5.43175
4.37974
5.42004
4.38461
4.89237
3.9154
2.85583
1.78058
2.40748
1.38008
2.42622
1.42881
2.02196
1.08051
1.32036
1.32031
0.946977
0.946946
1.01507
1.01504
0.695398
0.695377
1.78046
2.85564
1.37999
2.40733
1.42871
2.42606
1.08045
2.02185
4.87081
5.96993
4.37959
5.43163
4.38445
5.41988
3.91528
4.89224
6.75379
5.62067
6.39949
5.27671
6.21525
5.12203
5.85064
4.77966
3.59809
2.48317
3.24977
2.14831
3.11399
2.05875
2.78795
1.75544
1.99479
1.99472
1.67083
1.67077
1.61117
1.61112
1.32191
1.32187
2.483
3.59786
2.14816
3.24955
2.05859
3.11376
1.75531
2.78776
5.62051
6.75372
5.27654
6.39936
5.12181
6.21505
4.77947
5.85045
7.29493
6.16414
7.04692
5.9125
6.79387
5.68152
6.52487
5.41934
4.17735
3.05805
3.90556
2.78588
3.6712
2.5927
3.40722
2.33774
2.55979
2.55972
2.29107
2.291
2.12789
2.12781
1.88014
1.88007
3.05785
4.17711
2.7857
3.90531
2.5925
3.67091
2.33756
3.40696
6.16404
7.29498
5.91235
7.04687
5.68128
6.79368
5.4191
6.52465
7.68025
6.56525
7.50268
6.37906
7.23055
6.11356
7.02657
5.91078
4.62686
3.51797
4.41649
3.30143
4.1187
3.03293
3.90744
2.82407
3.01875
3.01868
2.80197
2.8019
2.55973
2.55964
2.35428
2.3542
3.51778
4.62666
3.30123
4.41626
3.03269
4.11837
2.82385
3.90713
6.56526
7.68046
6.379
7.50276
6.11332
7.2304
5.91053
7.02635
7.95494
6.86008
7.82853
6.72357
7.55849
6.44446
7.40567
6.28968
4.97115
3.87858
4.81077
3.70979
4.47203
3.38732
4.30612
3.22028
3.38277
3.3827
3.21195
3.21187
2.91084
2.91074
2.74499
2.7449
3.87841
4.971
3.7096
4.81058
3.38706
4.47169
3.22003
4.30578
6.86023
7.95534
6.72363
7.82879
6.44426
7.55841
6.28945
7.4055
8.14664
7.0724
8.05889
6.97463
7.79991
6.69255
7.68793
6.57712
5.22953
4.15504
5.10994
4.02652
4.74467
3.66546
4.61749
3.5353
3.66463
3.66456
3.53329
3.53322
3.18872
3.18862
3.05844
3.05834
4.1549
5.22945
4.02636
5.10981
3.66518
4.74433
3.53502
4.61714
7.07269
8.14724
6.97483
8.05933
6.69239
7.7999
6.57692
7.68782
8.27423
7.21948
8.21655
7.15247
7.97133
6.8724
7.89252
6.78943
5.41783
4.36119
5.33153
4.26624
4.94893
3.87746
4.85451
3.77914
3.87691
3.87686
3.77889
3.77883
3.40223
3.40212
3.30302
3.30292
4.36108
5.41783
4.26611
5.33147
3.87717
4.94859
3.77885
4.85416
7.21991
8.27503
7.15281
8.21719
6.87229
7.97141
6.78928
7.89249
8.35119
7.31429
8.31746
7.27205
8.08549
6.99581
8.03396
6.93977
5.54894
4.50911
5.48983
4.44192
5.09568
4.03305
5.02878
3.96179
4.03109
4.03105
3.96083
3.96078
3.56038
3.56028
3.48778
3.48767
4.50903
5.54902
4.44182
5.48985
4.03277
5.09536
3.96151
5.02844
7.31486
8.35218
7.27253
8.31829
6.99575
8.08566
6.93967
8.034
8.38783
7.36715
8.37319
7.34479
8.15299
7.07281
8.12359
7.03884
5.63354
4.60916
5.59652
4.56475
5.19457
4.14123
5.15049
4.09263
4.13723
4.13719
4.08984
4.0898
3.67173
3.67162
3.62152
3.62141
4.60912
5.63369
4.56468
5.59661
4.14094
5.19426
4.09234
5.15017
7.36785
8.38899
7.3454
8.37419
7.0728
8.15324
7.0388
8.12371
8.39184
7.38597
8.39272
7.3798
8.18214
7.11156
8.17107
7.09583
5.68032
4.67011
5.66126
4.64428
5.25389
4.21001
5.22866
4.18019
4.20397
4.20395
4.17531
4.17528
3.74407
3.74396
3.71246
3.71235
4.6701
5.68053
4.64424
5.66141
4.20973
5.25359
4.1799
5.22835
7.38678
8.39315
7.38053
8.39388
7.11161
8.18247
7.09583
8.17126
8.3703
7.37787
8.38327
7.38437
8.18026
7.11932
8.18374
7.11824
5.69662
4.69936
5.692
4.68855
5.28091
4.24648
5.271
4.232
4.23869
4.23868
4.22522
4.2252
3.78433
3.78422
3.76796
3.76785
4.69937
5.69689
4.68855
5.69221
4.24621
5.28063
4.23172
5.27071
7.37878
8.37174
7.38521
8.38457
7.11941
8.18067
7.1183
8.18401
8.32727
7.34739
8.35046
7.36458
8.15291
7.10189
8.16876
7.11295
5.6883
4.70293
5.69532
4.70428
5.28165
4.25659
5.28421
4.25464
4.24743
4.24742
4.2463
4.24628
3.7984
3.79829
3.79448
3.79437
4.70297
5.68863
4.7043
5.69559
4.25632
5.28141
4.25437
5.28394
7.34839
8.32884
7.36551
8.35188
7.10204
8.15339
7.11306
8.1691
8.26598
7.29813
8.29806
7.32443
8.10393
7.06322
8.13014
7.08439
5.6595
4.68573
5.67639
4.69706
5.26096
4.24564
5.27382
4.25367
4.23544
4.23544
4.24418
4.24417
3.79164
3.79154
3.79748
3.79738
4.68581
5.65988
4.69711
5.67671
4.24539
5.26074
4.25341
5.27357
7.29923
8.26766
7.32545
8.29959
7.06341
8.10447
7.08455
8.13056
8.1873
7.23145
8.22841
7.26658
8.03514
7.0051
8.07154
7.03614
5.61308
4.65098
5.63851
4.67063
5.22172
4.21673
5.24351
4.23333
4.20597
4.20599
4.22296
4.22297
3.76733
3.76723
3.78159
3.7815
4.65111
5.61355
4.67072
5.6389
4.21651
5.22156
4.23309
5.2433
7.23268
8.1892
7.26771
8.23009
7.00565
8.0359
7.03634
8.07192
8.09415
7.15108
8.14137
7.1921
7.94907
6.93136
7.99309
6.96917
5.55304
4.60291
5.58457
4.62862
5.16816
4.17424
5.19642
4.19705
4.16337
4.16341
4.18638
4.18641
3.72978
3.7297
3.75012
3.75003
4.60309
5.5536
4.62877
5.58507
4.17405
5.16807
4.19684
5.19629
7.15243
8.09618
7.19336
8.14327
6.93247
7.95072
6.97004
7.99415
7.99423
7.06364
8.04419
7.10753
7.85526
6.85033
7.90201
6.89093
5.48499
4.54612
5.51995
4.57571
5.10563
4.12256
5.1378
4.14949
4.11177
4.11181
4.13884
4.13888
3.68302
3.68295
3.70754
3.70746
4.54631
5.48559
4.57589
5.5205
4.12241
5.10557
4.14932
5.13771
7.06536
7.99626
7.10889
8.04599
6.85072
7.85642
6.89171
7.90342
7.89126
6.97326
7.94214
7.01812
7.75799
6.76528
7.80617
6.80762
5.41181
4.48331
5.44913
4.51569
5.03744
4.06455
5.07217
4.09439
4.05383
4.05388
4.08383
4.08387
3.62975
3.6297
3.65727
3.65721
4.48355
5.41268
4.51589
5.44985
4.06447
5.03749
4.09427
5.07215
6.97595
7.89514
7.02063
7.9452
6.76475
7.75764
6.80744
7.80657
7.78705
6.8807
7.83873
6.92685
7.65664
6.67629
7.70697
6.72048
5.33458
4.41581
5.37387
4.45042
4.96493
4.00175
5.00175
4.03386
3.99103
3.9911
4.02332
4.02337
3.57156
3.57153
3.60138
3.60135
4.41611
5.3353
4.45067
5.37466
4.00174
4.96507
4.0338
5.00183
6.88168
7.78886
6.92876
7.84194
6.67703
7.6578
6.72065
7.70699
7.67694
6.78281
7.73224
6.83189
7.55014
6.5829
7.60313
6.62941
5.25308
4.34427
5.29447
4.38081
4.88789
3.93483
4.92691
3.96891
3.92422
3.92431
3.95841
3.9585
3.50938
3.50938
3.5411
3.54109
4.34463
5.25399
4.38112
5.2952
3.9349
4.88821
3.96894
4.92712
6.78484
7.67942
6.83297
7.73347
6.58351
7.55106
6.62994
7.60416
7.56426
6.68277
7.61997
6.73258
7.44013
6.48637
7.4947
6.53436
5.1684
4.26943
5.21129
4.30755
4.80753
3.86462
4.84813
3.90026
3.85411
3.85419
3.88988
3.88997
3.44396
3.44396
3.47722
3.47722
4.26979
5.16942
4.30791
5.21229
3.86471
4.80803
3.90035
4.8486
6.6851
7.56718
6.73477
7.62293
6.48764
7.44225
6.53568
7.49642
7.44586
6.57798
7.50509
6.63018
7.3254
6.38579
7.3826
6.43585
5.08061
4.19169
5.12505
4.23121
4.72414
3.79158
4.76625
3.82858
3.78117
3.78123
3.81829
3.81836
3.37581
3.37579
3.41037
3.41036
4.19198
5.08146
4.2315
5.12591
3.79158
4.72427
3.82862
4.7665
6.58061
7.4492
6.63276
7.50813
6.38568
7.32551
6.43633
7.38367
7.32582
6.47201
7.38529
6.52478
7.20661
6.28208
7.26573
6.33374
4.9902
4.11147
5.03583
4.15215
4.63803
3.7161
4.68142
3.75427
3.70583
3.70589
3.7441
3.74416
3.30534
3.30531
3.34101
3.34099
4.11175
4.9912
4.15244
5.03677
3.71606
4.63821
3.75425
4.68159
6.475
7.32982
6.5275
7.3888
6.28291
7.20775
6.33402
7.26594
7.20254
6.36304
7.26405
6.41735
7.08448
6.17609
7.14482
6.22845
4.89784
4.0292
4.94445
4.07087
4.54979
3.63856
4.59416
3.67772
3.62841
3.62844
3.66769
3.66772
3.23285
3.23279
3.2695
3.26945
4.02938
4.8986
4.07109
4.94526
3.63842
4.54972
3.67762
4.59418
6.36575
7.20576
6.41986
7.26729
6.17625
7.08479
6.22877
7.14549
7.07732
6.2533
7.13897
6.30747
6.96043
6.06839
7.02219
6.12203
4.8035
3.94484
4.85104
3.98758
4.45939
3.55892
4.50495
3.59918
3.54889
3.54889
3.58924
3.58925
3.15832
3.15823
3.19602
3.19594
3.94494
4.80408
3.98771
4.85175
3.55872
4.45925
3.59899
4.50483
6.25576
7.08098
6.31053
7.1429
6.06875
6.96105
6.12237
7.02256
6.94981
6.1407
7.01371
6.19722
6.83094
5.9562
6.89573
6.01231
4.70621
3.8577
4.75551
3.90195
4.36574
3.47657
4.41306
3.51826
3.46673
3.46673
3.50847
3.50846
3.0813
3.08122
3.1203
3.12022
3.85777
4.70656
3.90201
4.75592
3.47636
4.36557
3.51805
4.41288
6.14177
6.95156
6.19883
7.01627
5.95642
6.83148
6.01257
6.89622
6.81485
6.0219
6.88253
6.08146
6.69573
5.83928
6.76328
5.8977
4.60468
3.76714
4.6561
3.8131
4.26834
3.39108
4.31753
3.43435
3.38148
3.38149
3.42478
3.42478
3.00144
3.00137
3.04189
3.0418
3.76723
4.60505
3.81317
4.65643
3.3909
4.26821
3.43415
4.31737
6.02288
6.81629
6.08241
6.88393
5.83953
6.69628
5.89792
6.76373
6.6748
5.89886
6.74469
5.96034
6.55587
5.71841
6.62561
5.77871
4.49944
3.67322
4.55263
3.72083
4.16745
3.30246
4.21834
3.34728
3.29305
3.29306
3.33793
3.33794
2.91864
2.91857
2.96055
2.96048
3.67332
4.49982
3.72092
4.55298
3.30229
4.16734
3.3471
4.21821
5.89985
6.67623
5.9613
6.74607
5.71868
6.55643
5.77896
6.62609
6.53126
5.77259
6.60279
5.83561
6.41223
5.59418
6.48379
5.65612
4.39089
3.57604
4.4457
3.62527
4.0633
3.21073
4.1158
3.2571
3.20142
3.20144
3.2479
3.24791
2.83284
2.83277
2.87625
2.87618
3.57614
4.39126
3.62536
4.44605
3.21057
4.0632
3.25694
4.11569
5.77356
6.53265
5.83657
6.60414
5.59445
6.41278
5.65637
6.48427
6.38493
5.64349
6.4578
5.7079
6.26529
5.46687
6.33847
5.53032
4.27913
3.47554
4.33554
3.52645
3.9559
3.11579
4.01004
3.16379
3.10644
3.10646
3.15461
3.15462
2.74386
2.74379
2.78889
2.78882
3.47564
4.27949
3.52654
4.33589
3.11564
3.95581
3.16363
4.00993
5.64443
6.38627
5.70883
6.45911
5.46713
6.26581
5.53058
6.33893
6.23615
5.51165
6.31023
5.57743
6.1152
5.33646
6.18997
5.40151
4.16397
3.37137
4.22211
3.42416
3.84502
3.01728
3.90095
3.06712
3.00772
3.00773
3.05781
3.05782
2.65132
2.65125
2.69818
2.69812
3.37147
4.16431
3.42425
4.22245
3.01713
3.84494
3.06697
3.90085
5.51255
6.23743
5.57832
6.31149
5.33671
6.11571
5.40175
6.19041
6.08474
5.37689
6.16022
5.44422
5.96194
5.20246
6.03834
5.26939
4.04483
3.26282
4.10507
3.31791
3.73006
2.91453
3.78813
2.96659
2.90448
2.90449
2.95694
2.95695
2.55452
2.55446
2.60362
2.60356
3.26291
4.04516
3.31799
4.10538
2.91439
3.72998
2.96645
3.78803
5.37774
6.08594
5.44507
6.16141
5.20271
5.96242
5.26963
6.03877
5.92971
5.23797
6.00717
5.30758
5.80464
5.06399
5.88325
5.13332
3.92042
3.14856
3.9835
3.2067
3.60987
2.80638
3.67073
2.86132
2.7954
2.79541
2.85098
2.85099
2.45231
2.45226
2.50429
2.50423
3.14864
3.92073
3.20678
3.9838
2.80625
3.60979
2.86118
3.67064
5.23878
5.93084
5.3084
6.00829
5.06423
5.8051
5.13355
5.88366
5.76877
5.09245
5.84963
5.1658
5.64104
4.91886
5.7232
4.99192
3.78824
3.02622
3.85561
3.08877
3.4823
2.69082
3.54721
2.74978
2.67824
2.67824
2.7382
2.73821
2.3428
2.34275
2.39872
2.39866
3.02629
3.78853
3.08884
3.8559
2.6907
3.48223
2.74965
3.54713
5.09321
5.76983
5.16656
5.85068
4.91909
5.64147
4.99214
5.72359
5.5961
4.93469
5.68388
5.01516
5.4659
4.76205
5.55479
4.84186
3.64329
2.89157
3.7179
2.96096
3.34302
2.56427
3.41453
2.6293
2.54926
2.54927
2.6157
2.6157
2.22289
2.22284
2.28449
2.28443
2.89164
3.64356
2.96102
3.71817
2.56416
3.34296
2.62919
3.41446
4.93541
5.59709
5.01588
5.68487
4.76227
5.4663
4.84207
5.55516
5.39842
4.7515
5.50108
4.84714
5.26687
4.58145
5.36999
4.67546
3.47501
2.73705
3.56316
2.81758
3.18264
2.42018
3.26641
2.49506
2.40274
2.40275
2.47877
2.47878
2.08771
2.08767
2.15765
2.1576
2.73712
3.47527
2.81765
3.56341
2.42008
3.18259
2.49495
3.26635
4.75218
5.39936
4.84783
5.50201
4.58166
5.26726
4.67567
5.37034
5.14895
4.50709
5.2817
4.64053
5.01627
4.34151
5.14982
4.47257
3.25943
2.5504
3.37555
2.64875
2.97823
2.24713
3.0883
2.33821
2.23236
2.23237
2.3209
2.32091
1.93153
1.93149
2.01255
2.01252
2.55047
3.25969
2.64881
3.37579
2.24705
2.97821
2.33812
3.08826
4.50774
5.14985
4.64119
5.28258
4.34174
5.01667
4.47278
5.15017
4.81801
4.06347
4.99515
4.33008
4.67337
3.89581
4.85925
4.16576
2.94772
2.32311
3.11927
2.4413
2.67813
2.03506
2.84432
2.14567
2.04169
2.0417
2.1384
2.13841
1.7565
1.75648
1.84537
1.84534
2.3232
2.94798
2.44138
3.11952
2.03502
2.67815
2.14561
2.84432
4.06411
4.81892
4.33071
4.99602
3.89607
4.67382
4.16599
4.85963
3.00496
2.3749
1.13734
1.01686
2.7625
2.18758
0.883839
0.84517
0.89765
0.261061
0.17214
0.0230988
0.774308
0.2045
0.127949
0.0168196
0.0763733
0.076374
0.00812455
0.00812484
0.0504206
0.0504217
0.00669801
0.00669821
0.261052
0.897607
0.0231003
0.172145
0.204498
0.774288
0.0168203
0.127955
2.37484
3.00495
1.01689
1.13739
2.18755
2.76249
0.845205
0.883899
5.35294
4.30516
4.3689
3.46626
5.09227
4.07673
4.12128
3.26029
2.33978
1.30585
1.65821
0.758859
2.14445
1.14567
1.5008
0.644057
0.866161
0.866126
0.384064
0.384051
0.725705
0.725679
0.293486
0.293479
1.30574
2.33961
0.758804
1.6581
1.14559
2.14432
0.644023
1.50073
4.305
5.35284
3.46615
4.36882
4.0766
5.09216
3.26021
4.12121
6.64645
5.4967
6.08241
4.96406
6.35843
5.22671
5.80645
4.7131
3.45315
2.31456
2.9347
1.8305
3.18996
2.07363
2.70315
1.62749
1.81214
1.81208
1.35118
1.35113
1.58677
1.58672
1.16584
1.1658
2.31439
3.45292
1.83036
2.9345
2.07348
3.18975
1.62738
2.70298
5.49654
6.6464
4.96389
6.08229
5.22655
6.35832
4.71294
5.80631
7.4459
6.29297
7.08921
5.93138
7.14793
5.99953
6.79395
5.64728
4.29518
3.14474
3.90345
2.75251
3.98549
2.84468
3.61422
2.4792
2.62481
2.62474
2.23786
2.2378
2.33524
2.33517
1.97768
1.97762
3.14456
4.29498
2.75233
3.90323
2.84451
3.98527
2.47904
3.61399
6.29294
7.44604
5.93126
7.08921
5.99942
7.14792
5.64713
6.79385
7.96744
6.8449
7.73248
6.59276
7.67437
6.5443
7.43552
6.29406
4.92893
3.80105
4.63466
3.49323
4.59251
3.46234
4.30944
3.17153
3.28309
3.28303
2.9728
2.97273
2.94945
2.94938
2.65885
2.65878
3.80091
4.92883
3.49307
4.6345
3.46216
4.59233
3.17135
4.30923
6.84509
7.96786
6.59281
7.7327
6.54433
7.67456
6.294
7.43555
8.31361
7.23105
8.15712
7.05441
8.03396
6.93374
7.87003
6.75445
5.40171
4.30817
5.18281
4.07161
5.05263
3.94642
4.83859
3.71968
3.8004
3.80036
3.55819
3.55814
3.43874
3.43869
3.20877
3.2087
4.30811
5.40177
4.0715
5.18277
3.94628
5.05254
3.71952
4.83844
7.23151
8.31437
7.05471
8.15766
6.93396
8.0344
6.75455
7.87028
8.54184
7.49922
8.439
7.37695
8.27925
7.2108
8.16762
7.08357
5.74993
4.69273
5.58943
4.51433
5.39716
4.31872
5.23758
4.14529
4.198
4.19799
4.01298
4.01295
3.81986
3.81981
3.64181
3.64175
4.69276
5.75017
4.51431
5.58956
4.31864
5.39719
4.14517
5.23753
7.49997
8.54297
7.37752
8.43989
7.21123
8.27997
7.08386
8.16813
8.6869
7.68061
8.6222
7.59853
8.44204
7.40351
8.36847
7.31555
6.00131
4.97832
5.88624
4.84673
5.65011
4.59905
5.53369
4.46932
4.49693
4.49695
4.35877
4.35878
4.11007
4.11005
3.97539
3.97536
4.97846
6.00174
4.8468
5.88655
4.59904
5.65027
4.46926
5.53377
7.68166
8.68839
7.5994
8.62345
7.40417
8.44304
7.31607
8.36925
8.77127
7.79672
8.73464
7.74505
8.54321
7.53147
8.4983
7.47382
6.17707
5.18466
6.09754
5.09052
5.83028
4.80444
5.74821
4.71027
4.71577
4.71582
4.61557
4.6156
4.32522
4.32522
4.22626
4.22625
5.18489
6.17769
5.09069
6.09804
4.8045
5.83057
4.71027
5.74841
7.79804
8.77309
7.7462
8.73623
7.53234
8.54448
7.47455
8.49935
8.80999
7.86272
8.79473
7.83457
8.59707
7.60882
8.57441
7.57502
6.29341
5.32768
6.24188
5.26347
5.95233
4.94906
5.89775
4.88371
4.87004
4.87013
4.80042
4.80048
4.47895
4.47897
4.40918
4.40918
5.32801
6.29419
5.26374
6.24255
4.94917
5.95275
4.88378
5.89807
7.86429
8.81212
7.83598
8.79663
7.60989
8.5986
7.57595
8.57571
8.81384
7.88992
8.81491
7.88
8.61412
7.64636
8.60879
7.63134
6.36288
5.42016
6.33344
5.37983
6.02794
5.04454
5.99531
5.00246
4.97246
4.97257
4.92736
4.92746
4.58273
4.58276
4.53665
4.53667
5.42057
6.36381
5.38018
6.33427
5.04472
6.02847
5.0026
5.99575
7.89171
8.81623
7.88164
8.8171
7.64761
8.61587
7.63245
8.61032
8.79066
7.88661
8.80465
7.89109
8.60214
7.6521
8.61062
7.65218
6.39518
5.47228
6.3833
5.45103
6.06629
5.10039
6.05131
5.07709
5.03331
5.03344
5.00788
5.008
4.64607
4.64612
4.61915
4.61919
5.47277
6.39623
5.45146
6.38426
5.10062
6.06692
5.07728
6.05185
7.88859
8.79328
7.89294
8.80709
7.6535
8.60408
7.65346
8.61236
8.74602
7.85925
8.76991
7.87507
8.56713
7.6329
8.58634
7.64478
6.39793
5.49216
6.39998
5.48614
6.07486
5.12439
6.07398
5.11616
5.06085
5.06101
5.05117
5.05131
4.67681
4.67688
4.66533
4.66538
5.49271
6.3991
5.48664
6.40106
5.12466
6.07558
5.1164
6.07461
7.8614
8.74884
7.87709
8.77255
7.63445
8.56924
7.6462
8.58826
8.68382
7.81226
8.7162
7.83747
8.51308
7.59301
8.54146
7.61468
6.377
5.48631
6.39035
5.49238
6.05952
5.1228
6.07001
5.12663
5.06179
5.06196
5.06463
5.06479
4.6813
4.68138
4.68223
4.6823
5.48693
6.37827
5.49295
6.39153
5.12313
6.06031
5.12691
6.07073
7.81454
8.6868
7.83964
8.71902
7.59467
8.51534
7.61623
8.54353
8.60632
7.74855
8.64617
7.78187
8.44257