/*--------------------------------*- C++ -*----------------------------------*\
  =========                 |
  \\      /  F ield         | OpenFOAM: The Open Source CFD Toolbox
   \\    /   O peration     | Website:  https://openfoam.org
    \\  /    A nd           | Version:  9
     \\/     M anipulation  |
\*---------------------------------------------------------------------------*/
FoamFile
{
    format      ascii;
    class       volScalarField;
    location    "2";
    object      k;
}
// * * * * * * * * * * * * * * * * * * * * * * * * * * * * * * * * * * * * * //

dimensions      [0 2 -2 0 0 0 0];

internalField   nonuniform List<scalar> 
36360
(
0.231734
0.206865
0.0351039
0.0523225
0.0331019
0.0352319
0.00507752
0.00585856
0.0655985
0.0134207
0.00807442
0.00343295
0.00931284
0.00361278
0.00360634
0.00334474
0.00364128
0.00364142
0.00301901
0.003019
0.00293903
0.00293903
0.00348692
0.00348692
0.0134216
0.0656007
0.00343301
0.00807496
0.00361284
0.00931321
0.00334474
0.00360637
0.206867
0.231737
0.0523266
0.0351054
0.0352328
0.0331029
0.00585882
0.00507759
0.527348
0.446058
0.405652
0.341731
0.164229
0.135824
0.101995
0.0895385
0.24876
0.134428
0.163023
0.0615742
0.0721258
0.0289901
0.0347583
0.00923397
0.0782423
0.0782426
0.0194372
0.0194381
0.0124813
0.0124817
0.00362035
0.00362045
0.134426
0.248754
0.0615755
0.163022
0.0289907
0.0721247
0.00923438
0.0347586
0.446047
0.527334
0.341727
0.405647
0.135821
0.164226
0.089538
0.101996
0.69636
0.603359
0.619805
0.530681
0.24519
0.205255
0.209429
0.173282
0.394512
0.276586
0.325276
0.207778
0.135213
0.091721
0.10532
0.0609512
0.223918
0.223914
0.154033
0.154031
0.0713675
0.0713666
0.0382217
0.0382217
0.276573
0.394489
0.207771
0.325262
0.0917175
0.135206
0.0609499
0.105316
0.603328
0.696324
0.530661
0.619781
0.205243
0.245177
0.173275
0.209421
0.82169
0.725349
0.762681
0.667574
0.30252
0.259307
0.275585
0.233603
0.514663
0.397312
0.457396
0.339707
0.187288
0.144996
0.162401
0.11968
0.345415
0.345406
0.287551
0.287545
0.126353
0.12635
0.100523
0.100521
0.397286
0.51462
0.339687
0.457364
0.144987
0.187272
0.119673
0.16239
0.725293
0.821627
0.667532
0.762632
0.259284
0.302494
0.233586
0.275566
0.921819
0.82439
0.874397
0.777357
0.348438
0.303965
0.326657
0.282672
0.613963
0.497319
0.566697
0.449709
0.230846
0.18886
0.210045
0.167968
0.445675
0.445662
0.397961
0.397949
0.170499
0.170494
0.149531
0.149527
0.497278
0.613898
0.449676
0.566643
0.188845
0.230821
0.167955
0.210024
0.824309
0.921727
0.777288
0.87432
0.303929
0.348397
0.282643
0.326624
1.00223
0.904575
0.964206
0.866596
0.385709
0.340662
0.368047
0.323231
0.695175
0.579294
0.656661
0.540398
0.266892
0.224977
0.249751
0.207811
0.527883
0.527865
0.488866
0.48885
0.206646
0.206638
0.189475
0.189468
0.57924
0.695089
0.540351
0.656585
0.224955
0.266855
0.207792
0.24972
0.904468
1.00211
0.866501
0.9641
0.340612
0.385653
0.323188
0.367999
1.066
0.968578
1.03596
0.938385
0.415544
0.370287
0.401468
0.356281
0.760547
0.645497
0.729686
0.614225
0.296182
0.25433
0.282324
0.24044
0.594384
0.59436
0.562958
0.562937
0.236007
0.235997
0.222112
0.222103
0.645429
0.760441
0.614164
0.72959
0.254301
0.296136
0.240414
0.282282
0.968447
1.06586
0.938266
1.03582
0.370225
0.415473
0.356226
0.401405
1.11567
1.0187
1.09238
0.995167
0.438964
0.393705
0.427969
0.382693
0.812143
0.697948
0.787916
0.673305
0.31948
0.277726
0.30852
0.266715
0.647175
0.647147
0.622361
0.622336
0.259429
0.259417
0.248404
0.248393
0.697869
0.812019
0.673231
0.787801
0.277691
0.319425
0.266684
0.308469
1.01854
1.1155
0.995025
1.09222
0.393631
0.43888
0.382625
0.427893
1.15342
1.05699
1.13583
1.03913
0.456909
0.411752
0.44854
0.403323
0.851904
0.738551
0.833361
0.719604
0.337554
0.295933
0.329111
0.287423
0.688127
0.688096
0.669007
0.668978
0.277681
0.277667
0.269147
0.269134
0.738461
0.851765
0.719519
0.83323
0.295893
0.33749
0.287385
0.329051
1.05682
1.15323
1.03896
1.13565
0.411668
0.456813
0.403244
0.448451
1.18115
1.08529
1.16835
1.07221
0.470216
0.42521
0.464069
0.418983
0.881606
0.769058
0.867886
0.754952
0.351142
0.30968
0.344854
0.303313
0.718978
0.718944
0.704704
0.704671
0.291489
0.291474
0.28509
0.285075
0.768959
0.881453
0.754858
0.867739
0.309636
0.351071
0.30327
0.344786
1.0851
1.18094
1.07203
1.16816
0.425116
0.47011
0.418894
0.463969
1.2005
1.10522
1.1917
1.09613
0.479635
0.434799
0.475344
0.43042
0.902849
0.791058
0.893169
0.781018
0.360931
0.319647
0.35646
0.315088
0.741311
0.741275
0.731108
0.731073
0.301528
0.301511
0.296932
0.296916
0.790952
0.902685
0.780915
0.893011
0.319598
0.360854
0.315041
0.356385
1.10502
1.20028
1.09594
1.19149
0.434697
0.47952
0.430322
0.475234
1.2129
1.11818
1.20742
1.11242
0.485815
0.441156
0.483068
0.438319
0.917041
0.805967
0.910723
0.799308
0.367542
0.326449
0.364587
0.3234
0.75654
0.756501
0.749725
0.749687
0.30841
0.308392
0.30532
0.305303
0.805854
0.916867
0.799198
0.910555
0.326396
0.367459
0.323349
0.364507
1.11797
1.21267
1.11221
1.20719
0.441047
0.485693
0.438214
0.482951
1.21958
1.12542
1.21681
1.12237
0.489332
0.444851
0.487847
0.443276
0.925425
0.815028
0.921866
0.811147
0.371528
0.330635
0.36982
0.328829
0.765908
0.765867
0.761877
0.761837
0.312685
0.312666
0.310834
0.310816
0.81491
0.925244
0.811031
0.921688
0.33058
0.371441
0.328775
0.369734
1.1252
1.21933
1.12216
1.21657
0.444737
0.489203
0.443165
0.487723
1.22154
1.12795
1.22102
1.12715
0.490645
0.446348
0.490217
0.445823
0.929049
0.819303
0.927753
0.817695
0.373364
0.332683
0.372677
0.331892
0.770483
0.770441
0.768728
0.768686
0.314827
0.314808
0.313988
0.313969
0.81918
0.92886
0.817575
0.927568
0.332625
0.373273
0.331835
0.372588
1.12772
1.22128
1.12692
1.22077
0.446229
0.49051
0.445707
0.490087
1.21976
1.12674
1.22103
1.1277
0.490274
0.446137
0.490626
0.446394
0.928855
0.819715
0.929344
0.81992
0.373478
0.332992
0.373583
0.333015
0.771177
0.771133
0.771252
0.771208
0.315226
0.315205
0.315212
0.315192
0.819587
0.92866
0.819795
0.929152
0.332932
0.373383
0.332956
0.373489
1.1265
1.21949
1.12747
1.22077
0.446012
0.490135
0.446273
0.490491
1.21466
1.12225
1.21751
1.12479
0.488349
0.444403
0.489454
0.445419
0.925447
0.81699
0.927508
0.81873
0.372168
0.331943
0.372999
0.332654
0.768781
0.768736
0.770363
0.770318
0.314301
0.31428
0.31495
0.314929
0.816859
0.925247
0.8186
0.92731
0.33188
0.372069
0.332592
0.372901
1.122
1.21439
1.12455
1.21724
0.444274
0.488203
0.445292
0.489312
1.207
1.11523
1.21103
1.11894
0.485271
0.44152
0.486909
0.443058
0.919526
0.811755
0.922733
0.814627
0.369728
0.32976
0.371055
0.330959
0.763876
0.76383
0.766585
0.766539
0.312238
0.312216
0.313376
0.313354
0.811622
0.919323
0.814496
0.922532
0.329695
0.369626
0.330895
0.370954
1.11498
1.20672
1.11869
1.21076
0.441388
0.485123
0.442927
0.486764
1.1975
1.10644
1.20236
1.11095
0.481369
0.437817
0.483382
0.439729
0.911811
0.804718
0.91584
0.808421
0.366484
0.32678
0.368181
0.328348
0.757165
0.757118
0.760709
0.760662
0.309382
0.30936
0.310889
0.310867
0.804582
0.911604
0.808287
0.915635
0.326714
0.366381
0.328282
0.368078
1.10618
1.19722
1.1107
1.20209
0.437682
0.481218
0.439595
0.483234
1.18672
1.0964
1.19218
1.10148
0.476866
0.43351
0.479161
0.435705
0.902791
0.796344
0.907427
0.800671
0.362642
0.323199
0.364619
0.325048
0.749103
0.749056
0.753276
0.753229
0.305926
0.305904
0.307713
0.30769
0.796209
0.902585
0.800535
0.90722
0.323135
0.362543
0.324983
0.364517
1.09614
1.18645
1.10123
1.1919
0.433383
0.47672
0.435573
0.479013
1.17492
1.08537
1.18087
1.09093
0.471894
0.42874
0.47441
0.431153
0.892744
0.786931
0.897866
0.791747
0.358339
0.319159
0.360532
0.321223
0.739997
0.739952
0.744661
0.744616
0.30201
0.301989
0.304012
0.303991
0.786802
0.892545
0.791615
0.897663
0.319098
0.358244
0.321161
0.360434
1.08513
1.17465
1.09068
1.1806
0.428617
0.471756
0.431029
0.47427
1.16214
1.07343
1.16858
1.07944
0.466507
0.423562
0.469227
0.426174
0.881838
0.776675
0.887371
0.781893
0.353658
0.314749
0.356032
0.31699
0.730053
0.730011
0.735115
0.735072
0.297727
0.297707
0.299904
0.299883
0.776553
0.881652
0.781768
0.887179
0.314692
0.353569
0.31693
0.35594
1.07321
1.16189
1.0792
1.16831
0.423448
0.466379
0.426055
0.469096
1.14856
1.06077
1.15537
1.06712
0.46077
0.418046
0.463656
0.420818
0.870226
0.765723
0.876097
0.771273
0.348667
0.310036
0.351189
0.312421
0.719419
0.719377
0.724811
0.724769
0.293143
0.293124
0.295463
0.295444
0.765605
0.87005
0.771155
0.87592
0.30998
0.348582
0.312364
0.351103
1.06057
1.14834
1.06691
1.15514
0.417938
0.46065
0.420709
0.463535
1.13428
1.04746
1.14144
1.05413
0.454733
0.412237
0.457767
0.415154
0.858004
0.754176
0.864174
0.760015
0.343406
0.305061
0.34606
0.307573
0.708196
0.708155
0.713872
0.713831
0.288302
0.288283
0.290747
0.290727
0.754055
0.857815
0.759895
0.863989
0.305006
0.34332
0.307517
0.345974
1.04723
1.13402
1.0539
1.1412
0.412127
0.454609
0.415045
0.457647
1.11931
1.03356
1.12681
1.04051
0.448415
0.406158
0.451587
0.409206
0.845227
0.7421
0.851667
0.748196
0.337904
0.299856
0.340675
0.30248
0.696456
0.696414
0.702384
0.702343
0.283235
0.283216
0.28579
0.285771
0.741979
0.845041
0.748075
0.851479
0.299801
0.337818
0.302425
0.34059
1.03333
1.11906
1.04028
1.12655
0.406048
0.44829
0.409097
0.451463
1.10374
1.01912
1.11153
1.02633
0.441846
0.399842
0.44514
0.403006
0.831953
0.72954
0.838636
0.735875
0.332185
0.294439
0.335063
0.297168
0.684236
0.684194
0.690402
0.69036
0.277958
0.277938
0.280617
0.280597
0.729418
0.831765
0.735753
0.838448
0.294383
0.332097
0.297112
0.334975
1.0189
1.10349
1.02611
1.11128
0.399726
0.441718
0.402893
0.445014
1.08758
1.00416
1.09568
1.01165
0.435029
0.393282
0.438452
0.396573
0.818176
0.716489
0.825119
0.723075
0.326246
0.288809
0.329237
0.291647
0.671533
0.671492
0.677945
0.677903
0.272468
0.27245
0.275235
0.275216
0.716371
0.817994
0.722954
0.824933
0.288754
0.326159
0.291591
0.329149
1.00395
1.08734
1.01143
1.09543
0.393169
0.434903
0.396458
0.438325
1.0707
0.988559
1.07917
0.996384
0.42791
0.386432
0.431491
0.389875
0.803807
0.702882
0.811058
0.709755
0.320049
0.282937
0.323175
0.2859
0.658289
0.658251
0.66498
0.66494
0.266745
0.266728
0.269633
0.269615
0.70277
0.803636
0.70964
0.810882
0.282885
0.319968
0.285847
0.323091
0.988355
1.07047
0.996172
1.07894
0.386327
0.427791
0.389766
0.43137
1.05303
0.972243
1.0619
0.980426
0.420458
0.379265
0.424207
0.382868
0.788784
0.688658
0.796367
0.695846
0.31357
0.276799
0.316839
0.279898
0.64445
0.644413
0.651444
0.651406
0.260764
0.260747
0.263784
0.263766
0.688552
0.788623
0.695737
0.796201
0.27675
0.313493
0.279848
0.31676
0.972051
1.05282
0.980228
1.06168
0.379166
0.420347
0.382766
0.424094
1.03459
0.955217
1.04384
0.963754
0.412676
0.371779
0.416591
0.375543
0.773085
0.673784
0.781008
0.681301
0.306795
0.270379
0.310214
0.273621
0.629971
0.629935
0.63729
0.637254
0.254505
0.254489
0.257666
0.257649
0.673683
0.772932
0.681198
0.780852
0.270332
0.306722
0.273573
0.310139
0.955035
1.03439
0.963568
1.04364
0.371684
0.41257
0.375446
0.416483
1.01539
0.937473
1.02503
0.946373
0.40456
0.363963
0.408643
0.367894
0.756684
0.658217
0.764964
0.666087
0.299712
0.263656
0.303287
0.267052
0.614805
0.614772
0.622475
0.622441
0.247947
0.247932
0.251261
0.251245
0.65812
0.756537
0.665988
0.764814
0.263611
0.299642
0.267007
0.303216
0.937299
1.0152
0.946195
1.02483
0.363873
0.404458
0.367802
0.40854
0.995407
0.918968
1.00544
0.928257
0.396092
0.355795
0.400355
0.359907
0.739522
0.641891
0.748192
0.650151
0.292292
0.256602
0.29604
0.260169
0.598883
0.598851
0.606942
0.606909
0.24106
0.241045
0.244543
0.244528
0.641798
0.739381
0.650056
0.748048
0.256559
0.292225
0.260125
0.295972
0.918801
0.995224
0.928086
1.00525
0.355708
0.395994
0.359818
0.400256
0.974568
0.899622
0.985039
0.909345
0.387235
0.347237
0.391698
0.351548
0.721509
0.624707
0.730619
0.633411
0.284496
0.249173
0.288439
0.252934
0.582099
0.582068
0.590605
0.590573
0.233797
0.233783
0.237475
0.23746
0.624617
0.721374
0.633319
0.730481
0.249132
0.284432
0.252892
0.288373
0.899462
0.974392
0.909182
0.98486
0.347155
0.387142
0.351464
0.391604
0.952767
0.879308
0.963738
0.889536
0.377939
0.338255
0.382631
0.342787
0.702504
0.606514
0.712132
0.615745
0.276266
0.241306
0.280435
0.245295
0.564301
0.564272
0.573336
0.573306
0.226096
0.226083
0.230003
0.229989
0.606429
0.702376
0.615657
0.712
0.241267
0.276205
0.245255
0.280372
0.879156
0.952601
0.88938
0.963568
0.338176
0.377851
0.342706
0.382542
0.929806
0.85782
0.941391
0.868667
0.368108
0.328747
0.373083
0.333557
0.682293
0.587095
0.692557
0.596972
0.267511
0.232911
0.271956
0.237178
0.545271
0.545243
0.554955
0.554926
0.217868
0.217855
0.222051
0.222038
0.587014
0.682172
0.596889
0.692432
0.232874
0.267454
0.23714
0.271897
0.857677
0.929649
0.86852
0.941229
0.328673
0.368025
0.333482
0.372999
0.905342
0.834825
0.917735
0.84648
0.357587
0.318575
0.362932
0.323738
0.660545
0.566129
0.671629
0.576828
0.258098
0.223861
0.262893
0.228474
0.524696
0.52467
0.535198
0.535171
0.208988
0.208976
0.213515
0.213503
0.566054
0.660432
0.57675
0.671511
0.223827
0.258045
0.228439
0.262837
0.834691
0.905195
0.846341
0.917583
0.318507
0.35751
0.323667
0.362853
0.878737
0.809734
0.892308
0.822535
0.34611
0.30753
0.351977
0.313163
0.636721
0.543132
0.64893
0.55492
0.247826
0.213975
0.253082
0.219033
0.502133
0.502108
0.513694
0.513669
0.19929
0.199279
0.20425
0.204239
0.543062
0.636616
0.554848
0.64882
0.213943
0.247777
0.219001
0.25303
0.80961
0.878602
0.822406
0.892167
0.307467
0.34604
0.313097
0.351904
0.84874
0.781357
0.864225
0.796017
0.333186
0.295247
0.33986
0.301562
0.609806
0.517332
0.623737
0.530642
0.236347
0.202984
0.242265
0.208635
0.476976
0.476954
0.489918
0.489894
0.188564
0.188554
0.194066
0.194056
0.517268
0.60971
0.530575
0.623636
0.202955
0.236304
0.208605
0.242218
0.781245
0.848618
0.7959
0.864096
0.29519
0.333123
0.301502
0.339793
0.812901
0.746433
0.831694
0.765049
0.317914
0.280824
0.325903
0.2884
0.577484
0.487527
0.594552
0.503015
0.222933
0.190511
0.229952
0.196955
0.448632
0.448612
0.463218
0.463197
0.176634
0.176625
0.182749
0.18274
0.487471
0.5774
0.502955
0.594462
0.190487
0.222894
0.196929
0.22991
0.746335
0.812793
0.764944
0.831579
0.280774
0.317858
0.288346
0.325844
0.768153
0.690361
0.791857
0.723258
0.298062
0.259186
0.308933
0.27171
0.534327
0.452798
0.557712
0.47072
0.205868
0.17634
0.215004
0.183611
0.417578
0.417561
0.4333
0.433282
0.163743
0.163736
0.170251
0.170244
0.452751
0.534256
0.470668
0.557635
0.176319
0.205835
0.183588
0.214968
0.690279
0.768061
0.723168
0.791757
0.259144
0.298014
0.271664
0.308881
0.411203
0.344509
0.113798
0.124886
0.337785
0.286123
0.0657543
0.0885096
0.154975
0.0514119
0.0260205
0.00588428
0.113661
0.030993
0.0157113
0.00436338
0.0153149
0.0153161
0.00342903
0.00342912
0.00736932
0.00736984
0.00313593
0.00313595
0.0514143
0.154976
0.00588466
0.0260221
0.0309947
0.113663
0.00436351
0.0157123
0.344506
0.411198
0.124892
0.113809
0.286124
0.337786
0.0885139
0.0657572
0.791938
0.673565
0.626888
0.525699
0.688159
0.581759
0.53935
0.450805
0.430604
0.279638
0.299772
0.158819
0.353217
0.213858
0.240859
0.11289
0.206803
0.2068
0.0856258
0.0856269
0.146002
0.146001
0.0493056
0.0493067
0.279628
0.430585
0.158818
0.299764
0.213852
0.353204
0.112891
0.240854
0.673538
0.791905
0.525685
0.626871
0.58174
0.688136
0.450796
0.539339
1.03923
0.908086
0.925432
0.798653
0.903793
0.78436
0.805275
0.690302
0.655347
0.500225
0.548498
0.394236
0.544169
0.400562
0.45351
0.310741
0.427603
0.427593
0.321451
0.321444
0.334441
0.334434
0.24402
0.244016
0.500195
0.655299
0.394217
0.548465
0.40054
0.544134
0.310728
0.453487
0.908026
1.03916
0.79861
0.925382
0.784314
0.903741
0.690271
0.805238
1.22662
1.09221
1.13848
1.00513
1.0654
0.942254
0.989377
0.867551
0.840288
0.685922
0.752252
0.597293
0.701257
0.558109
0.626423
0.482892
0.613728
0.613711
0.52487
0.524856
0.492569
0.492556
0.41712
0.41711
0.685871
0.840208
0.597252
0.752188
0.55807
0.701195
0.482862
0.626375
1.09211
1.22651
1.00505
1.1384
0.942176
1.06531
0.86749
0.989308
1.37492
1.2403
1.30491
1.17018
1.1938
1.06973
1.1331
1.00929
0.992069
0.839573
0.919988
0.766498
0.830692
0.688727
0.769148
0.62656
0.767993
0.767968
0.69459
0.694569
0.623588
0.623568
0.561223
0.561206
0.839501
0.991959
0.766436
0.919893
0.688669
0.830603
0.626512
0.769073
1.24016
1.37478
1.17007
1.30478
1.06962
1.19368
1.0092
1.13299
1.49246
1.35883
1.43704
1.30284
1.29607
1.17226
1.24779
1.12377
1.1151
0.964861
1.05689
0.905514
0.936073
0.79557
0.886156
0.744914
0.894073
0.894041
0.834316
0.834287
0.730906
0.73088
0.680004
0.679981
0.96477
1.11496
0.905432
1.05676
0.795495
0.935957
0.744848
0.886054
1.35867
1.49228
1.30269
1.43688
1.17212
1.29592
1.12365
1.24765
1.58467
1.45248
1.54133
1.40841
1.37669
1.25364
1.33876
1.2153
1.21327
1.06538
1.16703
1.01798
1.02051
0.881581
0.980695
0.840988
0.99548
0.995443
0.947636
0.947601
0.817477
0.817445
0.7766
0.776571
1.06527
1.21311
1.01788
1.16688
0.88149
1.02037
0.840905
0.980568
1.4523
1.58446
1.40823
1.54114
1.25347
1.37651
1.21514
1.33859
1.65578
1.52517
1.62249
1.49112
1.43914
1.31704
1.40988
1.28731
1.29016
1.14453
1.25413
1.1074
1.08688
0.949512
1.05575
0.917622
1.07553
1.07549
1.03796
1.03792
0.886005
0.885969
0.853818
0.853784
1.1444
1.28998
1.10729
1.25396
0.949408
1.08672
0.917524
1.0556
1.52496
1.65555
1.49092
1.62228
1.31685
1.43893
1.28713
1.40968
1.70932
1.58025
1.68441
1.5546
1.48635
1.36526
1.46437
1.34279
1.34902
1.20546
1.32162
1.17707
1.13784
1.00195
1.1141
0.977498
1.13733
1.13728
1.10851
1.10847
0.939039
0.938999
0.914295
0.914256
1.20533
1.34882
1.17694
1.32143
1.00184
1.13767
0.977388
1.11393
1.58002
1.70907
1.55439
1.68418
1.36505
1.48612
1.34259
1.46415
1.74824
1.62061
1.73032
1.602
1.52082
1.40072
1.50493
1.38435
1.39272
1.25104
1.37257
1.22999
1.17578
1.04126
1.15827
1.0231
1.18371
1.18366
1.16228
1.16223
0.978916
0.978872
0.960476
0.960434
1.2509
1.39251
1.22985
1.37236
1.04113
1.17559
1.02298
1.15809
1.62038
1.74798
1.60177
1.73006
1.4005
1.52058
1.38413
1.50469
1.77506
1.64876
1.7629
1.63597
1.5447
1.42555
1.53386
1.41425
1.42378
1.28377
1.40966
1.26885
1.20283
1.06954
1.19052
1.05664
1.21717
1.21712
1.2019
1.20185
1.00774
1.00769
0.994576
0.994531
1.28362
1.42356
1.2687
1.40944
1.06941
1.20262
1.05651
1.19032
1.64852
1.7748
1.63572
1.76264
1.42532
1.54445
1.41402
1.5336
1.79187
1.66679
1.78448
1.65882
1.5598
1.44156
1.55314
1.43446
1.44436
1.30584
1.43523
1.296
1.22081
1.08866
1.21282
1.08013
1.23991
1.23985
1.22975
1.22969
1.02735
1.0273
1.01858
1.01853
1.30568
1.44414
1.29585
1.43501
1.08852
1.2206
1.08
1.21261
1.66654
1.7916
1.65857
1.78421
1.44131
1.55953
1.43422
1.55288
1.80048
1.67654
1.79697
1.67249
1.56769
1.45032
1.56444
1.44665
1.45634
1.31915
1.4513
1.31347
1.23135
1.10024
1.22689
1.09529
1.25382
1.25376
1.24785
1.2478
1.03939
1.03934
1.03422
1.03417
1.31899
1.45611
1.31331
1.45106
1.10009
1.23113
1.09515
1.22668
1.67627
1.8002
1.67223
1.79669
1.45006
1.56741
1.4464
1.56417
1.80234
1.67946
1.80206
1.67866
1.56964
1.45312
1.56923
1.4523
1.46127
1.32528
1.45958
1.32301
1.23578
1.10563
1.23422
1.10362
1.26051
1.26045
1.25797
1.25792
1.04523
1.04517
1.043
1.04295
1.32512
1.46103
1.32285
1.45934
1.10548
1.23555
1.10347
1.234
1.67919
1.80205
1.6784
1.80177
1.45286
1.56936
1.45204
1.56895
1.7987
1.67685
1.80107
1.6787
1.56681
1.45112
1.56871
1.45259
1.46049
1.3256
1.46149
1.32608
1.23529
1.10603
1.23605
1.10637
1.26135
1.26129
1.26157
1.26152
1.04604
1.04598
1.04618
1.04613
1.32544
1.46025
1.32591
1.46125
1.10588
1.23505
1.10622
1.23582
1.67658
1.79841
1.67843
1.80078
1.45085
1.56651
1.45233
1.56842
1.79018
1.66938
1.79492
1.67359
1.55969
1.44485
1.56368
1.44842
1.45487
1.32114
1.45821
1.32392
1.23062
1.10234
1.23341
1.10466
1.25744
1.25738
1.25995
1.25989
1.0428
1.04275
1.0449
1.04485
1.32097
1.45462
1.32375
1.45797
1.10218
1.23038
1.10451
1.23318
1.6691
1.7899
1.67332
1.79463
1.44462
1.55941
1.44814
1.56337
1.77778
1.65813
1.78426
1.66405
1.54906
1.43522
1.55465
1.4403
1.44547
1.3129
1.45054
1.31741
1.22268
1.0954
1.22697
1.0992
1.24975
1.24969
1.25399
1.25393
1.03633
1.03627
1.0399
1.03985
1.31273
1.44522
1.31724
1.4503
1.09524
1.22245
1.09904
1.22674
1.65785
1.77749
1.66377
1.78398
1.43504
1.54887
1.4401
1.55441
1.76282
1.6443
1.77047
1.65139
1.53632
1.42353
1.54279
1.4295
1.43343
1.30195
1.4397
1.30771
1.21247
1.08613
1.21779
1.091
1.23932
1.23926
1.24483
1.24476
1.0275
1.02744
1.03216
1.0321
1.30178
1.43319
1.30754
1.43946
1.08596
1.21222
1.09084
1.21755
1.64408
1.76253
1.65111
1.77015
1.42323
1.53604
1.42927
1.54258
1.74614
1.62881
1.75452
1.63661
1.5222
1.41038
1.5293
1.41702
1.41949
1.289
1.42665
1.29569
1.20062
1.07514
1.2067
1.08081
1.22683
1.22677
1.2333
1.23324
1.01692
1.01687
1.0224
1.02234
1.28883
1.41928
1.29552
1.42643
1.07497
1.20037
1.08065
1.20645
1.62869
1.74608
1.63649
1.75438
1.40993
1.5217
1.41663
1.52893
1.72827
1.61201
1.73724
1.62047
1.50678
1.39596
1.51453
1.4032
1.40405
1.27446
1.41193
1.2819
1.1875
1.06281
1.19419
1.06912
1.21275
1.21269
1.21997
1.21991
1.00499
1.00493
1.0111
1.01105
1.27429
1.4038
1.28174
1.4117
1.06265
1.18725
1.06895
1.19394
1.61165
1.7279
1.62024
1.73709
1.39567
1.50646
1.40285
1.51408
1.70883
1.59374
1.71865
1.60295
1.49019
1.38045
1.49851
1.38824
1.38727
1.25862
1.39579
1.26668
1.17323
1.04937
1.18047
1.0562
1.19736
1.19731
1.2052
1.20514
0.99195
0.991898
0.998588
0.998535
1.25846
1.38705
1.26652
1.39555
1.04922
1.173
1.05605
1.18023
1.59352
1.70857
1.6026
1.71822
1.38014
1.48982
1.38791
1.49817
1.68841
1.57453
1.69858
1.58415
1.47269
1.36407
1.48143
1.37227
1.36944
1.24171
1.37846
1.25028
1.15806
1.03502
1.16573
1.04229
1.18091
1.18085
1.18926
1.1892
0.978011
0.97796
0.985081
0.985029
1.24156
1.36925
1.25013
1.37826
1.03488
1.15786
1.04215
1.16553
1.57436
1.6882
1.58395
1.69839
1.36383
1.47246
1.37204
1.48118
1.66666
1.55414
1.67758
1.56434
1.45419
1.34675
1.46346
1.35542
1.35067
1.22388
1.36015
1.2329
1.1421
1.0199
1.15016
1.02755
1.16355
1.16349
1.17233
1.17228
0.963303
0.96325
0.970744
0.970691
1.22372
1.35046
1.23274
1.35994
1.01975
1.14186
1.0274
1.14993
1.55405
1.66657
1.56423
1.67743
1.34637
1.45375
1.3551
1.46313
1.64427
1.53315
1.65543
1.54365
1.43483
1.32868
1.44451
1.33773
1.33106
1.20525
1.34094
1.21466
1.12542
1.00409
1.13382
1.01208
1.14538
1.14533
1.15456
1.1545
0.947918
0.947865
0.955688
0.955635
1.2051
1.33089
1.2145
1.34075
1.00394
1.1252
1.01192
1.1336
1.53311
1.64427
1.54356
1.65536
1.32844
1.43455
1.3374
1.44411
1.62094
1.51126
1.63264
1.52221
1.41471
1.30997
1.42472
1.31928
1.31074
1.18588
1.32098
1.19565
1.10811
0.987657
1.11682
0.995947
1.12648
1.12643
1.13602
1.13597
0.931908
0.931855
0.939987
0.939934
1.18573
1.31056
1.1955
1.3208
0.987506
1.10788
0.995796
1.1166
1.51123
1.62089
1.52213
1.63256
1.30968
1.41438
1.319
1.42442
1.59689
1.48881
1.60883
1.49997
1.39399
1.29068
1.40435
1.30033
1.28969
1.16577
1.30029
1.17592
1.09016
0.970585
1.0992
0.979201
1.10684
1.10678
1.11676
1.1167
0.915265
0.915214
0.923667
0.923615
1.16561
1.2895
1.17576
1.30011
0.970438
1.08995
0.979052
1.09899
1.48877
1.59694
1.50001
1.6089
1.29046
1.39374
1.30009
1.40407
1.57209
1.46552
1.58455
1.47723
1.37229
1.2705
1.38319
1.28063
1.26778
1.1448
1.27885
1.1554
1.07144
0.952781
1.08089
0.961777
1.08635
1.08629
1.09671
1.09665
0.897913
0.897863
0.906681
0.906631
1.14465
1.26756
1.15524
1.27864
0.952641
1.07123
0.961633
1.08068
1.4653
1.57189
1.47708
1.58446
1.27026
1.37204
1.28039
1.38294
1.54581
1.44091
1.55902
1.45328
1.34952
1.24934
1.36094
1.25995
1.24478
1.12285
1.2564
1.13395
1.05183
0.934157
1.06173
0.943571
1.06491
1.06486
1.07575
1.0757
0.879768
0.879722
0.888941
0.888893
1.1227
1.24457
1.1338
1.25619
0.934025
1.05163
0.943435
1.06153
1.44069
1.54558
1.45305
1.55879
1.24912
1.34928
1.25972
1.3607
1.51829
1.41516
1.53209
1.42808
1.32573
1.22724
1.33765
1.23832
1.22071
1.09986
1.23286
1.11148
1.03133
0.914671
1.04168
0.924521
1.04246
1.04241
1.05382
1.05377
0.860777
0.860732
0.87038
0.870334
1.09972
1.22051
1.11134
1.23266
0.914545
1.03114
0.924392
1.04149
1.41495
1.51807
1.42787
1.53186
1.22703
1.3255
1.23811
1.33742
1.48965
1.38833
1.50401
1.4018
1.30098
1.20422
1.31339
1.21577
1.19554
1.07578
1.20825
1.08796
1.00991
0.894268
1.02072
0.904585
1.01892
1.01888
1.03083
1.03079
0.840874
0.840832
0.850942
0.850899
1.07565
1.19536
1.08783
1.20806
0.894147
1.00973
0.904462
1.02054
1.38813
1.48944
1.40159
1.5038
1.20402
1.30076
1.21556
1.31317
1.45985
1.36036
1.4748
1.37441
1.27522
1.18023
1.28814
1.19227
1.1692
1.05051
1.18252
1.0633
0.987488
0.872861
0.998816
0.883694
0.994183
0.994138
1.00671
1.00667
0.819965
0.819924
0.830551
0.830509
1.05038
1.16902
1.06317
1.18233
0.872744
0.987317
0.883575
0.998641
1.36017
1.45965
1.37421
1.4746
1.18004
1.27502
1.19207
1.28793
1.42882
1.33113
1.44441
1.34582
1.24839
1.15515
1.26186
1.16776
1.14154
1.02387
1.15553
1.03737
0.963949
0.850311
0.975856
0.861736
0.968066
0.968022
0.981309
0.981264
0.797906
0.797866
0.809088
0.809048
1.02375
1.14136
1.03725
1.15536
0.850199
0.963785
0.861622
0.975689
1.33094
1.42863
1.34563
1.44421
1.15497
1.24819
1.16757
1.26166
1.39638
1.30046
1.4127
1.31591
1.22034
1.12884
1.23444
1.14209
1.11232
0.995632
1.12713
1.00997
0.939099
0.826415
0.951692
0.838545
0.940319
0.940277
0.954415
0.954372
0.774486
0.774448
0.78638
0.786341
0.995514
1.11215
1.00985
1.12696
0.826308
0.938943
0.838435
0.951531
1.30028
1.3962
1.31573
1.41251
1.12866
1.22015
1.14191
1.23425
1.36222
1.26802
1.37945
1.28441
1.19082
1.101
1.20571
1.11505
1.0812
0.965417
1.09701
0.980798
0.912644
0.80087
0.926084
0.813869
0.910574
0.910533
0.925723
0.925682
0.749401
0.749365
0.762173
0.762136
0.965305
1.08104
0.980682
1.09685
0.800768
0.912495
0.813765
0.925931
1.26785
1.36205
1.28423
1.37927
1.10084
1.19065
1.11488
1.20552
1.32584
1.23327
1.34426
1.25089
1.1594
1.07121
1.17531
1.08631
1.04762
0.932688
1.06475
0.949408
0.884128
0.773228
0.89867
0.787343
0.8783
0.878261
0.894792
0.894753
0.722215
0.722181
0.736102
0.736067
0.932582
1.04747
0.949298
1.06459
0.773132
0.883988
0.787244
0.898526
1.23311
1.32567
1.25073
1.34409
1.07106
1.15923
1.08615
1.17513
1.28628
1.19527
1.30645
1.21468
1.12524
1.03866
1.14265
1.05528
1.01068
0.896624
1.02964
0.915135
0.85279
0.742804
0.868866
0.758415
0.842742
0.842706
0.860986
0.860948
0.692299
0.692267
0.707642
0.70761
0.896524
1.01054
0.915032
1.02949
0.742715
0.852661
0.758322
0.868731
1.19512
1.28613
1.21452
1.30629
1.03852
1.12509
1.05513
1.14249
1.24168
1.15213
1.2647
1.17445
1.08671
1.0017
1.1066
1.02082
0.968737
0.855972
0.990474
0.876965
0.81721
0.708528
0.835652
0.726229
0.802915
0.802882
0.823424
0.82339
0.658819
0.65879
0.676058
0.676028
0.855881
0.968609
0.87687
0.99034
0.708447
0.817092
0.726144
0.835528
1.15199
1.24155
1.1743
1.26455
1.00157
1.08658
1.02068
1.10645
1.18852
1.09911
1.21637
1.12731
1.04047
0.95596
1.06476
0.980361
0.918442
0.809032
0.944937
0.833391
0.774336
0.66885
0.796973
0.689464
0.757996
0.757967
0.7811
0.781069
0.62102
0.620994
0.640472
0.640445
0.808952
0.91833
0.833305
0.944817
0.668778
0.774232
0.689388
0.796862
1.099
1.1884
1.12718
1.21624
0.955846
1.04035
0.980239
1.06463
1.12274
1.0182
1.15742
1.06474
0.981691
0.883952
1.013
0.925779
0.853581
0.755216
0.888247
0.782817
0.718011
0.622987
0.748297
0.646568
0.709122
0.709097
0.733802
0.733775
0.579755
0.579733
0.600611
0.600587
0.755148
0.853488
0.782743
0.888144
0.622926
0.717924
0.646501
0.748201
1.01811
1.12265
1.06463
1.15732
0.883859
0.981592
0.925675
1.01289
0.509613
0.425679
0.215964
0.193159
0.466707
0.38959
0.173129
0.161734
0.217211
0.0887076
0.049212
0.0103705
0.188928
0.0703634
0.0373072
0.00785609
0.0374036
0.0374056
0.00461865
0.00461886
0.0257096
0.025711
0.00400456
0.00400467
0.0887111
0.217209
0.0103717
0.0492162
0.0703654
0.188928
0.00785664
0.0373093
0.425671
0.509601
0.193165
0.215969
0.389586
0.466699
0.161739
0.173137
0.922381
0.793342
0.738091
0.624216
0.86598
0.741007
0.689931
0.581057
0.538773
0.378761
0.383297
0.231065
0.490686
0.333831
0.345974
0.197992
0.30176
0.301753
0.153713
0.153712
0.258177
0.258173
0.121665
0.121665
0.378741
0.538739
0.231058
0.38328
0.333816
0.49066
0.197988
0.345961
0.793296
0.922328
0.624191
0.73806
0.740971
0.865938
0.581038
0.689907
1.21238
1.07232
1.07742
0.94099
1.13712
1.00022
1.01157
0.878689
0.811998
0.649201
0.681517
0.519088
0.742219
0.581854
0.622373
0.462657
0.571962
0.571946
0.441879
0.441868
0.506117
0.506104
0.386911
0.386902
0.649154
0.811924
0.519055
0.681463
0.581816
0.742158
0.462631
0.62233
1.07223
1.21228
0.940922
1.07735
1.00014
1.13703
0.878634
1.01151
1.43694
1.29497
1.33118
1.18958
1.34493
1.20544
1.24714
1.10836
1.03849
0.877553
0.930682
0.768557
0.949844
0.790754
0.851031
0.691061
0.800886
0.80086
0.691518
0.691497
0.715467
0.715445
0.61549
0.615473
0.87748
1.03838
0.768497
0.930589
0.790691
0.949748
0.69101
0.850953
1.29484
1.4368
1.18947
1.33106
1.20533
1.34481
1.10826
1.24703
1.61464
1.47385
1.53084
1.38925
1.50926
1.37028
1.43174
1.2923
1.22387
1.06617
1.13594
0.976547
1.11988
0.963366
1.0392
0.881321
0.990631
0.990597
0.900399
0.90037
0.888947
0.888917
0.806432
0.806406
1.06607
1.22372
0.976462
1.13582
0.963281
1.11975
0.881247
1.03908
1.47368
1.61446
1.3891
1.53067
1.37013
1.50909
1.29216
1.43159
1.75484
1.61636
1.68883
1.54914
1.6391
1.50182
1.57793
1.43974
1.37337
1.21934
1.30274
1.14687
1.25728
1.10377
1.19232
1.03731
1.14521
1.14517
1.07202
1.07199
1.03046
1.03042
0.96343
0.963397
1.21922
1.3732
1.14676
1.30258
1.10366
1.25712
1.03721
1.19218
1.61617
1.75463
1.54895
1.68863
1.50164
1.6389
1.43957
1.57775
1.86428
1.72843
1.81292
1.67576
1.74063
1.60544
1.69295
1.55671
1.49209
1.34168
1.43624
1.28406
1.36659
1.21611
1.31514
1.16318
1.26904
1.26899
1.21068
1.21064
1.14401
1.14397
1.09047
1.09043
1.34155
1.4919
1.28393
1.43606
1.21599
1.36641
1.16306
1.31497
1.72821
1.86405
1.67555
1.81269
1.60523
1.74041
1.55652
1.69274
1.9483
1.81502
1.90903
1.7745
1.8187
1.68563
1.78219
1.64809
1.58467
1.43762
1.54133
1.39266
1.45198
1.30436
1.41199
1.26299
1.36642
1.36637
1.32076
1.32071
1.23345
1.2334
1.1915
1.19145
1.43748
1.58446
1.39252
1.54113
1.30423
1.45179
1.26286
1.4118
1.81479
1.94806
1.77428
1.90879
1.68541
1.81846
1.64788
1.78196
2.01131
1.8804
1.98204
1.85
1.87733
1.74627