/*--------------------------------*- C++ -*----------------------------------*\
  =========                 |
  \\      /  F ield         | OpenFOAM: The Open Source CFD Toolbox
   \\    /   O peration     | Website:  https://openfoam.org
    \\  /    A nd           | Version:  9
     \\/     M anipulation  |
\*---------------------------------------------------------------------------*/
FoamFile
{
    format      ascii;
    class       volScalarField;
    location    "2";
    object      nut;
}
// * * * * * * * * * * * * * * * * * * * * * * * * * * * * * * * * * * * * * //

dimensions      [0 2 -1 0 0 0 0];

internalField   nonuniform List<scalar> 
36360
(
0.00356915
0.00322992
0.0006317
0.000924986
0.000538603
0.000555894
0.00021066
0.000226745
0.00155309
0.000503135
0.000264414
0.000178168
0.000286
0.000177762
0.00017753
0.000170883
0.000209592
0.000209602
0.000159178
0.000159178
0.000160202
0.000160202
0.000174483
0.000174483
0.000503185
0.00155317
0.000178172
0.00026443
0.000177763
0.000286006
0.000170883
0.00017753
0.00322995
0.00356916
0.000925058
0.000631723
0.000555901
0.000538611
0.00022675
0.000210661
0.00729727
0.00659571
0.00579966
0.00514634
0.00119845
0.00108998
0.000944913
0.000885313
0.00493034
0.00368525
0.00341325
0.00189814
0.000794701
0.000504647
0.000552164
0.000284901
0.00305118
0.00305125
0.000914606
0.000914674
0.000331738
0.000331742
0.000178185
0.000178188
0.00368529
0.00493028
0.00189822
0.00341325
0.000504652
0.000794695
0.000284907
0.000552166
0.00659553
0.007297
0.00514627
0.00579955
0.00108997
0.00119843
0.00088531
0.000944915
0.00941868
0.00881228
0.00844544
0.00778152
0.00146412
0.00133973
0.00135318
0.001231
0.00741705
0.00666036
0.00625176
0.00530188
0.00108774
0.000896373
0.000960083
0.000731001
0.00647492
0.00647488
0.00500628
0.00500627
0.000791133
0.000791128
0.000579739
0.000579739
0.00666018
0.00741669
0.00530179
0.00625154
0.000896355
0.00108771
0.000730993
0.000960065
0.00881176
0.00941804
0.00778118
0.00844502
0.0013397
0.00146408
0.00123098
0.00135315
0.0110525
0.0105556
0.0102793
0.00973017
0.00162636
0.00150589
0.00155223
0.00142928
0.0093616
0.00880049
0.00844729
0.00780865
0.00128015
0.00112673
0.00119206
0.00102373
0.0086716
0.00867147
0.00766188
0.00766179
0.00105203
0.00105202
0.000938522
0.000938512
0.00880007
0.00936088
0.00780833
0.00844674
0.00112669
0.00128009
0.00102371
0.00119202
0.0105546
0.0110514
0.00972943
0.0102784
0.00150583
0.00162629
0.00142922
0.00155218
0.0123675
0.0119625
0.011745
0.0112967
0.00174553
0.00163051
0.00169004
0.00157232
0.0108966
0.0104275
0.0101737
0.00966608
0.00142128
0.00128586
0.00135571
0.00121266
0.0103124
0.0103121
0.00954584
0.00954566
0.00122193
0.00122191
0.00114437
0.00114435
0.0104268
0.0108955
0.00966551
0.0101727
0.00128581
0.0014212
0.00121262
0.00135564
0.0119611
0.0123659
0.0112955
0.0117437
0.00163042
0.00174543
0.00157224
0.00168995
0.0134294
0.0130876
0.0129278
0.0125567
0.00183662
0.00172623
0.00179403
0.00168144
0.0121089
0.0116915
0.0115383
0.0110983
0.00152829
0.00140346
0.00147837
0.00134884
0.0115823
0.011582
0.0109864
0.0109861
0.00134522
0.0013452
0.00128812
0.0012881
0.0116905
0.0121074
0.0110974
0.011537
0.00140339
0.00152819
0.00134878
0.00147827
0.0130857
0.0134273
0.012555
0.012926
0.00172611
0.00183649
0.00168133
0.00179391
0.0142723
0.0139791
0.0138755
0.0135595
0.00190644
0.00179983
0.00187382
0.00176542
0.0130624
0.0126775
0.0126143
0.0122148
0.00161006
0.00149227
0.0015719
0.00145091
0.0125726
0.0125722
0.0121077
0.0121074
0.00143766
0.00143763
0.00139467
0.00139464
0.0126763
0.0130605
0.0122137
0.0126126
0.00149218
0.00160993
0.00145084
0.00157178
0.0139768
0.0142696
0.0135573
0.0138732
0.00179968
0.00190628
0.00176528
0.00187368
0.0149321
0.0146769
0.0146226
0.0143495
0.00195953
0.00185598
0.00193479
0.00182979
0.0138054
0.0134427
0.0134572
0.0130842
0.00167228
0.00155947
0.0016433
0.0015282
0.0133413
0.0133408
0.0129811
0.0129807
0.00150737
0.00150734
0.00147496
0.00147493
0.0134413
0.0138032
0.0130829
0.0134551
0.00155937
0.00167213
0.00152811
0.00164316
0.0146741
0.0149289
0.0143469
0.0146197
0.0018558
0.00195935
0.00182962
0.00193461
0.0154398
0.015214
0.0152027
0.0149631
0.00199929
0.00189814
0.00198084
0.00187856
0.0143765
0.0140296
0.0141099
0.0137556
0.00171902
0.00160986
0.00169734
0.0015865
0.0139311
0.0139305
0.0136557
0.0136552
0.00155957
0.00155954
0.00153538
0.00153535
0.014028
0.014374
0.0137541
0.0141075
0.00160975
0.00171886
0.00158639
0.00169718
0.0152109
0.0154362
0.0149601
0.0151995
0.00189794
0.00199908
0.00187837
0.00198065
0.0158215
0.0156184
0.0156445
0.0154307
0.00202829
0.00192901
0.00201494
0.00191478
0.0148065
0.0144713
0.0146069
0.0142663
0.00175337
0.00164691
0.00173756
0.00162985
0.0143752
0.0143746
0.0141689
0.0141683
0.00159796
0.00159792
0.00158028
0.00158024
0.0144696
0.0148037
0.0142646
0.0146043
0.0016468
0.00175319
0.00162973
0.00173738
0.0156149
0.0158175
0.0154274
0.0156408
0.00192879
0.00202806
0.00191458
0.00201472
0.0160991
0.0159133
0.0159716
0.0157776
0.00204859
0.00195073
0.00203936
0.00194084
0.0151207
0.0147945
0.0149761
0.0146456
0.00177774
0.0016733
0.00176665
0.00166128
0.0147004
0.0146997
0.0145505
0.0145498
0.00162534
0.00162529
0.00161286
0.00161282
0.0147926
0.0151177
0.0146438
0.0149732
0.00167317
0.00177755
0.00166115
0.00176646
0.0159095
0.0160948
0.015774
0.0159675
0.0019505
0.00204835
0.00194061
0.00203913
0.0162908
0.016118
0.0162041
0.0160252
0.00206184
0.00196503
0.00205596
0.00195865
0.01534
0.0150207
0.0152405
0.0149178
0.00179404
0.0016911
0.00178677
0.00168314
0.0149283
0.0149276
0.0148246
0.0148239
0.00164387
0.00164382
0.00163557
0.00163553
0.0150186
0.0153368
0.0149158
0.0152374
0.00169096
0.00179383
0.001683
0.00178657
0.016114
0.0162862
0.0160213
0.0161998
0.00196478
0.00206158
0.00195842
0.00205571
0.0164122
0.016249
0.0163589
0.0161912
0.00206936
0.00197332
0.00206618
0.00196978
0.0154817
0.0151678
0.015419
0.0151024
0.00180382
0.00170199
0.00179963
0.00169729
0.015077
0.0150763
0.0150108
0.0150101
0.00165531
0.00165526
0.00165036
0.00165031
0.0151656
0.0154784
0.0151003
0.0154157
0.00170185
0.00180361
0.00169715
0.00179942
0.0162448
0.0164073
0.016187
0.0163543
0.00197306
0.00206909
0.00196954
0.00206592
0.0164752
0.0163193
0.0164501
0.0162904
0.00207221
0.00197671
0.00207127
0.00197551
0.0155603
0.0152505
0.0155275
0.0152157
0.00180835
0.00170733
0.00180665
0.00170526
0.0151613
0.0151605
0.0151256
0.0151248
0.00166105
0.001661
0.0016588
0.00165875
0.0152483
0.0155568
0.0152134
0.015524
0.00170718
0.00180813
0.00170512
0.00180643
0.0163148
0.0164701
0.0162861
0.0164453
0.00197644
0.00207192
0.00197525
0.00207099
0.0164935
0.0163419
0.0164894
0.016335
0.00207148
0.0019763
0.00207219
0.00197684
0.0155876
0.0152803
0.0155785
0.0152709
0.00180868
0.00170819
0.00180891
0.00170822
0.0151921
0.0151913
0.0151823
0.0151815
0.00166217
0.00166211
0.0016621
0.00166205
0.0152779
0.0155839
0.0152685
0.0155748
0.00170803
0.00180845
0.00170807
0.00180869
0.0163371
0.0164881
0.0163304
0.0164844
0.00197602
0.00207118
0.00197657
0.0020719
0.0164717
0.0163232
0.0164864
0.0163364
0.00206746
0.00197251
0.00206977
0.00197474
0.0155736
0.0152697
0.0155851
0.0152798
0.00180557
0.00170556
0.00180756
0.00170736
0.0151831
0.0151822
0.0151924
0.0151915
0.00165979
0.00165974
0.00166147
0.00166142
0.0152672
0.0155697
0.0152774
0.0155812
0.0017054
0.00180533
0.0017072
0.00180732
0.0163183
0.0164661
0.0163316
0.0164811
0.00197222
0.00206715
0.00197446
0.00206947
0.0164191
0.0162727
0.0164482
0.0163008
0.00206097
0.00196614
0.00206443
0.00196954
0.0155262
0.0152245
0.0155529
0.01525
0.00179969
0.00169999
0.00180289
0.00170305
0.015139
0.0151381
0.0151639
0.015163
0.00165439
0.00165433
0.00165737
0.00165732
0.0152218
0.015522
0.0152474
0.0155488
0.00169982
0.00179944
0.00170289
0.00180265
0.0162675
0.0164132
0.0162958
0.0164426
0.00196585
0.00206065
0.00196925
0.00206412
0.0163432
0.0161982
0.0163831
0.0162374
0.00205269
0.0019579
0.00205697
0.00196216
0.0154533
0.0151533
0.0154919
0.015191
0.00179181
0.00169233
0.00179594
0.00169637
0.0150688
0.0150678
0.0151059
0.015105
0.00164684
0.00164678
0.00165083
0.00165077
0.0151503
0.0154487
0.0151881
0.0154875
0.00169215
0.00179155
0.00169619
0.00179568
0.0161924
0.0163368
0.0162319
0.0163771
0.0019576
0.00205237
0.00196186
0.00205665
0.0162503
0.0161058
0.0162981
0.0161533
0.00204308
0.00194827
0.00204799
0.00195319
0.0153608
0.0150619
0.0154086
0.0151091
0.00178241
0.00168305
0.00178725
0.00168785
0.0149782
0.0149771
0.0150249
0.0150238
0.00163764
0.00163758
0.0016424
0.00164234
0.0150586
0.0153557
0.0151059
0.0154038
0.00168289
0.00178216
0.00168768
0.001787
0.0160993
0.0162431
0.0161472
0.0162915
0.00194798
0.00204277
0.00195289
0.00204767
0.0161433
0.0159986
0.0161979
0.0160533
0.00203242
0.00193753
0.00203782
0.00194297
0.0152521
0.0149541
0.0153077
0.0150091
0.00177182
0.00167252
0.00177723
0.00167791
0.0148711
0.0148699
0.0149256
0.0149244
0.00162714
0.00162709
0.00163252
0.00163246
0.0149506
0.0152468
0.0150056
0.0153023
0.00167235
0.00177158
0.00167774
0.00177698
0.0159918
0.0161356
0.0160465
0.0161906
0.00193725
0.00203211
0.00194268
0.00203751
0.0160234
0.0158786
0.0160842
0.0159393
0.00202078
0.0019258
0.00202667
0.00193173
0.0151306
0.0148329
0.0151922
0.0148942
0.00176021
0.00166093
0.00176611
0.00166683
0.0147505
0.0147493
0.0148115
0.0148103
0.00161557
0.00161552
0.00162146
0.00162141
0.0148294
0.0151252
0.0148907
0.0151868
0.00166077
0.00175999
0.00166667
0.00176588
0.0158718
0.0160158
0.0159325
0.0160767
0.00192553
0.00202049
0.00193145
0.00202637
0.0158934
0.0157484
0.015959
0.015814
0.00200831
0.00191321
0.0020146
0.00191955
0.0149983
0.0147007
0.0150651
0.0147673
0.00174775
0.00164845
0.00175406
0.00165478
0.0146187
0.0146175
0.0146851
0.0146839
0.00160309
0.00160304
0.00160942
0.00160937
0.0146972
0.014993
0.0147638
0.0150598
0.00164829
0.00174753
0.00165462
0.00175384
0.0157419
0.0158861
0.0158075
0.0159518
0.00191296
0.00200804
0.00191929
0.00201432
0.0157545
0.0156092
0.0158245
0.0156793
0.0019951
0.00189986
0.00200175
0.00190658
0.0148566
0.0145587
0.014928
0.0146301
0.0017345
0.00163516
0.0017412
0.00164188
0.0144771
0.0144759
0.0145482
0.014547
0.00158979
0.00158974
0.00159652
0.00159647
0.0145552
0.0148511
0.0146266
0.0149225
0.00163501
0.00173428
0.00164173
0.00174097
0.0156022
0.0157467
0.0156724
0.0158171
0.0018996
0.00199482
0.00190632
0.00200148
0.0156068
0.0154613
0.0156812
0.0155357
0.00198117
0.00188579
0.00198818
0.00189286
0.014706
0.0144077
0.0147818
0.0144836
0.00172054
0.00162114
0.00172758
0.00162823
0.0143265
0.0143253
0.0144021
0.0144009
0.00157575
0.0015757
0.00158285
0.00158279
0.0144044
0.0147009
0.0144801
0.0147765
0.00162099
0.00172031
0.00162807
0.00172736
0.015455
0.0155997
0.015529
0.0156738
0.00188552
0.00198089
0.0018926
0.0019879
0.0154508
0.0153053
0.0155293
0.0153837
0.00196658
0.00187104
0.00197391
0.00187844
0.0145469
0.0142481
0.0146269
0.0143283
0.00170589
0.00160642
0.00171328
0.00161385
0.0141672
0.0141662
0.0142471
0.014246
0.00156099
0.00156093
0.00156844
0.00156839
0.0142452
0.0145424
0.0143252
0.0146221
0.00160626
0.00170566
0.0016137
0.00171305
0.0152997
0.0154445
0.0153777
0.0155227
0.00187076
0.00196629
0.00187817
0.00197363
0.0152868
0.0151414
0.0153693
0.0152238
0.00195132
0.0018556
0.001959
0.00186336
0.0143794
0.0140798
0.0144636
0.0141644
0.00169055
0.00159096
0.0016983
0.00159877
0.0139991
0.0139983
0.0140835
0.0140826
0.00154548
0.00154543
0.00155332
0.00155326
0.0140772
0.0143755
0.0141616
0.0144595
0.00159081
0.00169032
0.00159862
0.00169807
0.0151366
0.0152813
0.0152186
0.0153636
0.00185533
0.00195104
0.00186309
0.00195871
0.0151142
0.0149688
0.0152012
0.0150557
0.00193526
0.00183934
0.00194336
0.00184753
0.0142029
0.0139023
0.0142918
0.0139915
0.00167439
0.00157468
0.00168256
0.00158292
0.0138218
0.013821
0.0139109
0.01391
0.00152914
0.00152909
0.00153741
0.00153735
0.0138999
0.0141994
0.0139891
0.0142881
0.00157454
0.00167418
0.00158277
0.00168234
0.0149644
0.0151091
0.0150511
0.0151961
0.00183909
0.00193499
0.00184727
0.00194308
0.0149319
0.0147867
0.0150238
0.0148784
0.0019183
0.00182217
0.00192685
0.00183082
0.0140167
0.0137147
0.0141106
0.0138091
0.00165733
0.00155748
0.00166596
0.00156619
0.0136343
0.0136335
0.0137286
0.0137278
0.00151188
0.00151183
0.00152062
0.00152057
0.0137125
0.0140133
0.0138069
0.0141071
0.00155734
0.00165712
0.00156605
0.00166575
0.0147825
0.0149272
0.0148741
0.0150191
0.00182193
0.00191805
0.00183058
0.00192659
0.0147395
0.0145943
0.0148366
0.0146913
0.00190043
0.00180406
0.00190944
0.00181319
0.0138197
0.0135162
0.0139191
0.0136163
0.00163929
0.00153929
0.00164842
0.0015485
0.0134357
0.013435
0.0135357
0.013535
0.00149359
0.00149355
0.00150285
0.00150281
0.0135141
0.0138164
0.0136141
0.0139157
0.00153915
0.0016391
0.00154836
0.00164822
0.0145903
0.014735
0.0146872
0.0148321
0.00180383
0.00190018
0.00181295
0.00190919
0.0145362
0.0143906
0.0146389
0.0144934
0.00188161
0.00178496
0.0018911
0.00179459
0.0136108
0.0133055
0.0137163
0.0134119
0.00162022
0.00152
0.00162988
0.00152977
0.0132249
0.0132241
0.0133312
0.0133305
0.0014742
0.00147415
0.00148403
0.00148398
0.0133034
0.0136076
0.0134098
0.0137131
0.00151987
0.00162003
0.00152964
0.00162968
0.0143867
0.0145318
0.0144894
0.0146345
0.00178474
0.00188137
0.00179437
0.00189086
0.0143206
0.0141741
0.0144296
0.0142835
0.00186177
0.00176478
0.00187179
0.00177497
0.0133884
0.0130809
0.0135009
0.0131944
0.00160001
0.00149949
0.00161025
0.00150989
0.013
0.0129993
0.0131136
0.0131129
0.00145355
0.0014535
0.00146403
0.00146398
0.0130789
0.0133854
0.0131924
0.0134978
0.00149937
0.00159982
0.00150977
0.00161006
0.0141704
0.0143163
0.0142797
0.0144254
0.00176456
0.00186154
0.00177475
0.00187155
0.014091
0.013943
0.0142072
0.01406
0.0018408
0.00174338
0.0018514
0.00175419
0.0131506
0.0128402
0.0132711
0.0129621
0.00157848
0.00147759
0.00158941
0.00148872
0.0127589
0.0127582
0.0128809
0.0128802
0.00143145
0.0014314
0.00144268
0.00144264
0.0128382
0.0131476
0.0129601
0.0132681
0.00147747
0.00157831
0.00148859
0.00158922
0.0139394
0.0140869
0.0140563
0.0142032
0.00174317
0.00184057
0.00175398
0.00185117
0.0138453
0.013695
0.0139699
0.0138208
0.00181852
0.00172064
0.0018298
0.00173215
0.0128946
0.0125806
0.0130246
0.0127124
0.00155544
0.00145404
0.00156716
0.00146603
0.0124987
0.0124981
0.0126308
0.0126301
0.00140764
0.0014076
0.00141977
0.00141972
0.0125788
0.0128917
0.0127105
0.0130217
0.00145392
0.00155527
0.00146591
0.00156698
0.0136915
0.0138413
0.0138173
0.0139661
0.00172044
0.00181831
0.00173194
0.00182958
0.0135798
0.0134262
0.0137149
0.013563
0.00179466
0.00169623
0.00180677
0.00170862
0.0126167
0.0122985
0.0127582
0.0124422
0.00153055
0.00142848
0.00154324
0.00144153
0.012216
0.0122153
0.0123599
0.0123592
0.00138175
0.00138171
0.00139497
0.00139493
0.0122968
0.012614
0.0124403
0.0127555
0.00142837
0.00153039
0.00144141
0.00154307
0.0134229
0.0135761
0.0135596
0.0137112
0.00169604
0.00179446
0.00170843
0.00180657
0.0132897
0.0131318
0.0134379
0.0132822
0.00176878
0.00166974
0.00178197
0.00168324
0.0123121
0.0119891
0.0124677
0.0121471
0.00150334
0.00140042
0.00151726
0.00141479
0.0119059
0.0119053
0.0120641
0.0120635
0.00135327
0.00135323
0.00136786
0.00136782
0.0119874
0.0123095
0.0121453
0.0124651
0.00140031
0.00150318
0.00141468
0.0015171
0.0131287
0.0132862
0.0132789
0.0134344
0.00166955
0.00176859
0.00168305
0.00178178
0.0129673
0.012805
0.0131328
0.0129726
0.00174011
0.00164049
0.00175482
0.00165547
0.0119743
0.0116465
0.0121474
0.0118219
0.00147308
0.00136911
0.00148864
0.00138522
0.0115633
0.0115627
0.0117385
0.0117379
0.00132146
0.00132142
0.00133782
0.00133778
0.0116449
0.0119719
0.0118202
0.0121449
0.00136901
0.00147293
0.00138511
0.00148848
0.0128021
0.012964
0.0129695
0.0131295
0.00164032
0.00173993
0.00165529
0.00175464
0.0126009
0.0124355
0.0127902
0.012626
0.00170726
0.00160734
0.0017243
0.00162446
0.0115949
0.0112644
0.0117901
0.0114603
0.00143852
0.00133345
0.00145643
0.0013519
0.0111833
0.0111828
0.0113776
0.0113771
0.00128538
0.00128535
0.00130401
0.00130398
0.0112629
0.0115927
0.0114587
0.0117878
0.00133335
0.00143838
0.0013518
0.00145629
0.0124328
0.0125979
0.0126232
0.0127871
0.00160719
0.0017071
0.0016243
0.00172413
0.0121773
0.0120053
0.0123963
0.0122294
0.00166763
0.00156755
0.00168848
0.00158857
0.0111627
0.0108401
0.0113858
0.0110568
0.00139706
0.0012918
0.0014189
0.00131348
0.0107667
0.0107662
0.0109785
0.010978
0.00124403
0.001244
0.00126539
0.00126536
0.0108387
0.0111606
0.0110553
0.0113837
0.00129172
0.00139694
0.00131339
0.00141877
0.0120028
0.0121745
0.0122268
0.0123934
0.00156741
0.00166748
0.00158842
0.00168832
0.0117128
0.0114642
0.0119472
0.0117543
0.0016147
0.00150592
0.00164389
0.00154188
0.010678
0.0103926
0.010924
0.0106159
0.0013425
0.00124281
0.00137198
0.00126818
0.0103323
0.0103318
0.0105491
0.0105486
0.00119775
0.00119772
0.00122133
0.0012213
0.0103914
0.0106761
0.0106145
0.0109221
0.00124273
0.0013424
0.0012681
0.00137186
0.0114619
0.0117102
0.0117519
0.0119446
0.0015058
0.00161457
0.00154175
0.00164375
0.0062271
0.00547678
0.00209849
0.00214966
0.00515067
0.00452248
0.00115079
0.00154997
0.00344233
0.00163844
0.000708293
0.000259584
0.00258777
0.00104642
0.000459431
0.000203589
0.000739004
0.000739089
0.000185816
0.000185822
0.000386066
0.000386101
0.000166771
0.000166772
0.00163859
0.00344245
0.000259606
0.000708351
0.0010465
0.00258785
0.000203596
0.000459457
0.00547678
0.00622696
0.00214976
0.00209867
0.00452248
0.00515064
0.00155003
0.00115084
0.011915
0.0108246
0.00934055
0.00832367
0.0100986
0.0091142
0.00792882
0.00702258
0.00880751
0.00739673
0.00620939
0.00445051
0.00716889
0.00574375
0.00500336
0.00325697
0.00685968
0.00685973
0.00331485
0.003315
0.00513959
0.00513965
0.00202955
0.00202964
0.0073967
0.00880724
0.00445064
0.00620934
0.00574374
0.00716872
0.00325705
0.00500332
0.010824
0.0119142
0.00832344
0.00934015
0.00911385
0.0100981
0.00702243
0.0079286
0.0162812
0.0152363
0.0141903
0.0131072
0.0135637
0.0126282
0.0119292
0.0109533
0.0135348
0.0126477
0.0112468
0.0101356
0.0109845
0.0101067
0.00915469
0.00804285
0.0124633
0.0124632
0.00982047
0.0098204
0.00991711
0.009917
0.00770659
0.00770654
0.0126471
0.0135337
0.0101353
0.0112462
0.0101063
0.0109838
0.00804264
0.00915424
0.0152348
0.0162794
0.0131063
0.0141891
0.0126272
0.0135625
0.0109526
0.0119284
0.0200501
0.0191015
0.0182285
0.0172316
0.0164365
0.0156004
0.0150578
0.0141721
0.0176614
0.0170524
0.0156717
0.0149458
0.0142128
0.0136169
0.0126676
0.0119552
0.0169941
0.0169937
0.0148393
0.014839
0.013553
0.0135527
0.0118458
0.0118456
0.017051
0.0176593
0.0149449
0.0156701
0.013616
0.0142114
0.0119545
0.0126665
0.0190987
0.0200467
0.0172295
0.0182261
0.0155985
0.0164344
0.0141707
0.0150562
0.0233226
0.0224605
0.0217472
0.0208439
0.0188795
0.0181271
0.0177095
0.0169173
0.0212044
0.0207451
0.019504
0.0189802
0.0169167
0.0164658
0.0156265
0.0151137
0.0207373
0.0207365
0.0189523
0.0189517
0.0164471
0.0164466
0.0150773
0.0150769
0.0207428
0.0212009
0.0189785
0.0195012
0.0164644
0.0169144
0.0151126
0.0156246
0.0224562
0.0233176
0.0208403
0.0217431
0.0181241
0.0188762
0.0169149
0.0177068
0.026102
0.0253116
0.0247721
0.0239478
0.0209089
0.0202301
0.0199426
0.0192288
0.0241869
0.0238166
0.0227627
0.0223527
0.019147
0.0187818
0.0180872
0.0176839
0.023832
0.0238309
0.0223583
0.0223574
0.0187833
0.0187826
0.0176769
0.0176763
0.0238134
0.0241821
0.02235
0.0227585
0.0187797
0.0191438
0.0176822
0.0180844
0.0253055
0.0260951
0.0239426
0.0247663
0.020226
0.0209044
0.0192254
0.0199388
0.0284107
0.0276781
0.0273119
0.0265521
0.0225673
0.0219483
0.0217811
0.0211338
0.0266502
0.0263377
0.0254794
0.0251405
0.0209592
0.0206495
0.0201013
0.0197664
0.0263655
0.026364
0.0251627
0.0251614
0.0206621
0.0206612
0.0197741
0.0197733
0.0263336
0.026644
0.0251368
0.0254738
0.0206469
0.0209551
0.0197641
0.0200977
0.0276704
0.0284019
0.0265453
0.0273043
0.0219432
0.0225616
0.0211293
0.0217762
0.0302877
0.0296013
0.0293991
0.0286909
0.0238978
0.0233265
0.02327
0.0226762
0.0286463
0.0283738
0.0277019
0.0274108
0.0224079
0.0221368
0.0217249
0.021436
0.0284091
0.0284073
0.0274424
0.0274408
0.0221564
0.0221553
0.0214523
0.0214513
0.0283688
0.0286387
0.0274062
0.027695
0.0221336
0.022403
0.0214331
0.0217204
0.029592
0.0302773
0.0286824
0.0293896
0.0233204
0.0238909
0.0226706
0.0232639
0.0317805
0.0311306
0.0310778
0.0304106
0.0249434
0.0244098
0.0244527
0.0239014
0.0302311
0.0299878
0.0294851
0.029228
0.0235448
0.0233018
0.0230115
0.0227553
0.0300283
0.0300262
0.0292658
0.0292639
0.0233263
0.023325
0.0227774
0.0227762
0.029982
0.0302223
0.0292226
0.029477
0.0232981
0.0235392
0.0227518
0.0230062
0.0311199
0.0317684
0.0304007
0.0310667
0.0244028
0.0249355
0.0238949
0.0244456
0.032938
0.0323169
0.0323968
0.0317621
0.025745
0.0252412
0.0253714
0.0248536
0.03146
0.0312386
0.0308852
0.0306532
0.0244172
0.024195
0.0240105
0.0237785
0.0312831
0.0312808
0.0306955
0.0306933
0.0242235
0.024222
0.0238049
0.0238035
0.0312321
0.0314502
0.0306471
0.030876
0.0241909
0.0244109
0.0237746
0.0240046
0.0323049
0.0329244
0.0317508
0.0323842
0.0252333
0.0257362
0.0248462
0.0253633
0.0338082
0.0332093
0.0334047
0.0327954
0.02634
0.0258594
0.0260654
0.0255737
0.0323852
0.0321804
0.0319559
0.0317429
0.0250668
0.0248606
0.0247665
0.0245527
0.0322282
0.0322257
0.0317888
0.0317864
0.0248923
0.0248907
0.0245826
0.0245811
0.0321733
0.0323744
0.0317361
0.0319456
0.0248561
0.0250599
0.0245483
0.0247599
0.0331962
0.0337933
0.0327829
0.0333907
0.0258508
0.0263304
0.0255656
0.0260564
0.034435
0.0338531
0.0341479
0.033558
0.0267616
0.0262991
0.0265696
0.0260986
0.0330539
0.032862
0.0327471
0.0325487
0.0255304
0.0253366
0.0253188
0.025119
0.0329125
0.0329098
0.0325976
0.032595
0.0253711
0.0253694
0.0251519
0.0251503
0.0328543
0.0330423
0.0325413
0.032736
0.0253317
0.025523
0.0251143
0.0253117
0.033839
0.034419
0.0335444
0.0341327
0.0262898
0.0267513
0.0260897
0.0265599
0.0348562
0.0342877
0.0346666
0.0340923
0.0270393
0.0265908
0.0269159
0.0264606
0.0335083
0.0333265
0.0333034
0.0331165
0.0258401
0.0256558
0.0257017
0.0255127
0.0333796
0.0333767
0.033168
0.0331652
0.0256928
0.025691
0.0255482
0.0255465
0.0333183
0.033496
0.0331086
0.0332916
0.0256507
0.0258323
0.0255077
0.0256941
0.0342727
0.0348393
0.0340777
0.0346504
0.026581
0.0270283
0.0264511
0.0269056
0.0351085
0.0345501
0.035
0.0344368
0.0271977
0.0267592
0.0271306
0.0266872
0.0337849
0.0336117
0.033665
0.0334871
0.0260228
0.0258466
0.0259448
0.0257644
0.0336674
0.0336644
0.0335409
0.033538
0.0258859
0.025884
0.0258024
0.0258005
0.033603
0.0337719
0.0334787
0.0336524
0.0258411
0.0260144
0.0257591
0.0259368
0.0345343
0.0350907
0.0344214
0.034983
0.0267489
0.0271861
0.0266772
0.0271197
0.0352261
0.0346752
0.0351827
0.0346272
0.0272633
0.0268317
0.0272414
0.0268058
0.0339205
0.0337514
0.033866
0.0336941
0.0261043
0.0259321
0.026073
0.025899
0.0338075
0.0338044
0.03375
0.033747
0.0259724
0.0259703
0.0259395
0.0259375
0.0337424
0.0339069
0.0336853
0.0338528
0.0259263
0.0260956
0.0258934
0.0260645
0.0346587
0.0352076
0.0346111
0.0351648
0.0268209
0.0272511
0.0267953
0.0272299
0.0352285
0.0346838
0.0352384
0.0346905
0.0272476
0.026821
0.0272636
0.0268346
0.0339381
0.0337749
0.0339405
0.0337747
0.026102
0.0259356
0.0261118
0.025943
0.0338335
0.0338302
0.0338323
0.0338291
0.0259785
0.0259764
0.0259849
0.0259828
0.0337654
0.0339239
0.0337655
0.0339268
0.0259296
0.0260929
0.0259371
0.0261029
0.0346665
0.0352092
0.0346738
0.0352199
0.0268101
0.027235
0.0268236
0.0272514
0.0351422
0.0346025
0.0351936
0.0346514
0.0271683
0.0267461
0.027214
0.0267896
0.0338631
0.0337034
0.0339088
0.0337469
0.0260336
0.0258707
0.026074
0.0259092
0.0337632
0.0337597
0.0338058
0.0338024
0.0259151
0.0259128
0.0259526
0.0259505
0.0336935
0.0338482
0.0337373
0.0338944
0.0258644
0.026024
0.025903
0.0260647
0.0345844
0.0351219
0.0346337
0.0351741
0.0267353
0.027156
0.0267788
0.0272019
0.034985
0.0344489
0.03507
0.034532
0.0270424
0.0266233
0.0271093
0.0266889
0.0337148
0.0335578
0.033795
0.0336362
0.0259139
0.0257535
0.0259784
0.0258166
0.0336186
0.033615
0.0336961
0.0336926
0.025799
0.0257966
0.0258613
0.025859
0.0335476
0.0336996
0.0336262
0.0337801
0.0257467
0.0259036
0.02581
0.0259685
0.0344312
0.0349648
0.0345139
0.0350497
0.0266106
0.0270286
0.0266774
0.0270969
0.034774
0.0342409
0.0348834
0.0343489
0.0268806
0.0264625
0.0269645
0.026546
0.0335093
0.033354
0.0336163
0.0334597
0.0257541
0.0255951
0.0258374
0.0256775
0.0334156
0.0334119
0.0335206
0.033517
0.0256414
0.0256389
0.0257233
0.0257208
0.0333435
0.033494
0.0334495
0.0336013
0.0255878
0.0257431
0.0256705
0.0258268
0.0342229
0.0347547
0.0343317
0.0348646
0.0264477
0.026864
0.0265323
0.0269498
0.0345216
0.0339897
0.0346511
0.0341185
0.0266873
0.0262696
0.0267865
0.0263683
0.033259
0.0331043
0.0333872
0.0332316
0.0255621
0.0254039
0.0256606
0.0255018
0.0331664
0.0331626
0.0332932
0.0332894
0.025451
0.0254484
0.0255484
0.0255458
0.0330934
0.0332427
0.0332211
0.0333716
0.0253964
0.0255507
0.0254944
0.0256495
0.0339694
0.034499
0.0340995
0.0346308
0.0262559
0.0266718
0.0263543
0.0267706
0.0342334
0.0337028
0.0343804
0.0338489
0.0264709
0.0260536
0.0265808
0.0261635
0.0329725
0.0328181
0.0331179
0.0329628
0.0253446
0.0251866
0.0254552
0.0252969
0.0328807
0.0328768
0.0330248
0.0330209
0.0252343
0.0252317
0.0253441
0.0253415
0.0328071
0.0329563
0.0329518
0.0331016
0.025179
0.0253332
0.0252893
0.0254437
0.0336834
0.034212
0.0338287
0.0343578
0.0260392
0.0264548
0.0261492
0.0265653
0.0339179
0.0333879
0.034077
0.0335468
0.0262351
0.0258174
0.0263543
0.0259368
0.0326569
0.0325023
0.0328161
0.0326611
0.0251064
0.024948
0.0252269
0.0250685
0.0325652
0.0325613
0.0327234
0.0327196
0.0249961
0.0249935
0.0251162
0.0251136
0.0324915
0.0326411
0.0326503
0.0328002
0.0249405
0.0250952
0.025061
0.0252157
0.0333689
0.0338965
0.0335274
0.034056
0.0258034
0.0262197
0.025923
0.0263393
0.0335754
0.0330466
0.0337484
0.0332184
0.0259807
0.0255625
0.0261092
0.0256911
0.0323163
0.0321613
0.0324876
0.0323323
0.02485
0.0246911
0.0249794
0.0248205
0.0322244
0.0322206
0.0323949
0.0323911
0.0247395
0.0247369
0.0248686
0.0248659
0.0321507
0.032301
0.0323217
0.0324722
0.0246836
0.0248389
0.024813
0.0249682
0.0330296
0.0335569
0.033201
0.0337288
0.0255483
0.0259647
0.025677
0.0260938
0.033215
0.0326869
0.033396
0.0328679
0.0257106
0.0252919
0.0258468
0.0254283
0.0319538
0.0317978
0.0321359
0.0319798
0.0245774
0.0244176
0.0247148
0.0245552
0.0318609
0.0318573
0.0320426
0.0320389
0.0244663
0.0244638
0.0246035
0.024601
0.0317877
0.0319392
0.0319696
0.032121
0.0244106
0.0245671
0.0245479
0.024704
0.03267
0.0331967
0.0328506
0.0333776
0.0252795
0.0256966
0.0254148
0.0258318
0.0328315
0.0323038
0.033025
0.0324965
0.0254255
0.0250064
0.0255689
0.02515
0.0315699
0.0314126
0.0317628
0.0316056
0.0242893
0.0241282
0.0244344
0.0242737
0.0314757
0.0314723
0.0316683
0.0316648
0.024177
0.0241748
0.0243223
0.0243199
0.0314031
0.0315562
0.0315959
0.0317487
0.0241218
0.0242798
0.024267
0.0244246
0.0322887
0.0328149
0.0324804
0.0330074
0.0249949
0.0254125
0.025138
0.0255558
0.0324285
0.0319015
0.0326308
0.0321036
0.0251263
0.0247064
0.0252769
0.0248574
0.0311642
0.0310053
0.031368
0.0312095
0.0239855
0.0238227
0.0241385
0.0239763
0.0310683
0.0310651
0.0312722
0.0312689
0.0238716
0.0238695
0.024025
0.0240229
0.0309964
0.0311514
0.0312003
0.031355
0.0238168
0.0239768
0.0239703
0.0241295
0.0318875
0.0324135
0.0320895
0.0326158
0.0246962
0.0251149
0.0248468
0.0252651
0.0320054
0.0314781
0.0322186
0.0316913
0.0248117
0.0243906
0.0249703
0.0245497
0.0307367
0.0305755
0.0309516
0.0307911
0.0236656
0.0235005
0.0238268
0.0236627
0.030638
0.0306349
0.0308535
0.0308504
0.0235492
0.0235473
0.0237113
0.0237093
0.0305667
0.0307239
0.0307823
0.0309389
0.023495
0.0236573
0.023657
0.0238184
0.0314632
0.0319891
0.0316769
0.0322032
0.0243806
0.0248006
0.0245397
0.0249595
0.0315572
0.0310301
0.0317834
0.0312559
0.0244794
0.0240571
0.0246471
0.0242253
0.030285
0.0301211
0.0305124
0.0303493
0.0233278
0.0231603
0.0234982
0.0233317
0.0301831
0.0301801
0.0304113
0.0304083
0.0232086
0.0232067
0.0233801
0.0233782
0.0301127
0.0302725
0.0303408
0.0304999
0.023155
0.0233199
0.0233264
0.0234902
0.0310153
0.031541
0.0312411
0.0317672
0.0240475
0.0244687
0.0242156
0.0246365
0.0310824
0.0305554
0.0313221
0.0307949
0.0241281
0.0237044
0.0243055
0.0238825
0.0298063
0.0296395
0.0300476
0.0298819
0.0229703
0.0228
0.0231509
0.0229818
0.0297006
0.0296977
0.0299431
0.0299401
0.0228477
0.0228459
0.0230297
0.0230278
0.0296313
0.0297942
0.0298736
0.0300355
0.0227949
0.0229627
0.0229766
0.0231432
0.0305412
0.0310667
0.0307805
0.0313064
0.0236952
0.0241178
0.0238731
0.0242953
0.0305782
0.030051
0.0308331
0.0303059
0.0237559
0.0233303
0.0239441
0.0235194
0.0292969
0.0291265
0.0295542
0.0293852
0.0225906
0.0224168
0.0227827
0.0226105
0.0291866
0.0291837
0.0294455
0.0294426
0.0224638
0.022462
0.0226577
0.0226559
0.0291185
0.0292852
0.0293772
0.0295424
0.0224119
0.0225832
0.0226055
0.0227752
0.0300372
0.0305631
0.030292
0.0308179
0.0233214
0.023746
0.0235104
0.0239343
0.0300404
0.0295122
0.0303128
0.029785
0.02336
0.0229316
0.0235605
0.0231335
0.0287519
0.0285772
0.0290278
0.0288548
0.0221851
0.0220072
0.0223906
0.0222146
0.028636
0.0286332
0.028914
0.0289112
0.0220532
0.0220515
0.022261
0.0222593
0.0285694
0.0287405
0.028847
0.0290163
0.0220024
0.0221779
0.0222097
0.0223833
0.0294989
0.0300258
0.0297716
0.0302981
0.0229231
0.0233505
0.0231249
0.023551
0.0294635
0.0289334
0.0297562
0.029227
0.0229367
0.0225045
0.0231514
0.0227212
0.0281653
0.0279852
0.0284628
0.0282851
0.0217496
0.0215667
0.0219707
0.0217902
0.0280424
0.0280398
0.0283428
0.0283401
0.0216115
0.0216098
0.0218355
0.0218338
0.0279777
0.0281543
0.0282776
0.0284518
0.021562
0.0217427
0.0217855
0.0219637
0.0289206
0.0294495
0.029214
0.0297421
0.0224963
0.0229275
0.0227129
0.0231423
0.028841
0.0283078
0.0291574
0.0286258
0.0224811
0.0220443
0.0227127
0.0222783
0.0275297
0.0273431
0.0278528
0.0276692
0.0212789
0.0210897
0.0215184
0.0213323
0.0273984
0.0273958
0.0277252
0.0277226
0.021133