/*--------------------------------*- C++ -*----------------------------------*\
  =========                 |
  \\      /  F ield         | OpenFOAM: The Open Source CFD Toolbox
   \\    /   O peration     | Website:  https://openfoam.org
    \\  /    A nd           | Version:  9
     \\/     M anipulation  |
\*---------------------------------------------------------------------------*/
FoamFile
{
    format      ascii;
    class       volScalarField;
    location    "2";
    object      p;
}
// * * * * * * * * * * * * * * * * * * * * * * * * * * * * * * * * * * * * * //

dimensions      [0 2 -2 0 0 0 0];

internalField   nonuniform List<scalar> 
36360
(
20.1349
20.0746
20.1109
20.0909
20.0956
20.1026
20.1022
20.0956
20.0995
20.1009
20.1003
20.1009
20.0996
20.0995
20.0979
20.099
20.1008
20.1008
20.1008
20.1008
20.0996
20.0996
20.0991
20.0991
20.1009
20.0995
20.1009
20.1003
20.0995
20.0996
20.099
20.0979
20.0746
20.1349
20.0909
20.1109
20.1026
20.0956
20.0956
20.1022
20.1395
20.0824
20.1445
20.0752
20.0692
20.1316
20.0847
20.1151
20.1002
20.1015
20.0996
20.101
20.1022
20.0994
20.101
20.0997
20.1013
20.1013
20.1009
20.1009
20.0994
20.0994
20.0998
20.0998
20.1015
20.1002
20.101
20.0996
20.0994
20.1022
20.0997
20.101
20.0824
20.1395
20.0752
20.1445
20.1316
20.0692
20.1151
20.0847
20.12
20.0967
20.1299
20.0903
20.0316
20.165
20.0505
20.1491
20.1046
20.1013
20.1017
20.1015
20.1093
20.099
20.105
20.0991
20.1011
20.1011
20.1016
20.1016
20.0985
20.0985
20.0989
20.0989
20.1013
20.1046
20.1015
20.1017
20.099
20.1093
20.0991
20.105
20.0967
20.12
20.0903
20.1299
20.165
20.0317
20.1491
20.0505
20.1021
20.1051
20.1107
20.1016
19.998
20.1898
20.014
20.1785
20.1122
20.1021
20.1084
20.1014
20.1197
20.1002
20.1143
20.0994
20.0995
20.0995
20.1003
20.1003
20.0976
20.0976
20.098
20.098
20.1021
20.1122
20.1014
20.1083
20.1002
20.1197
20.0994
20.1143
20.1051
20.1021
20.1016
20.1107
20.1898
19.998
20.1785
20.014
20.0873
20.1089
20.0943
20.1074
19.9705
20.2066
19.9835
20.1991
20.1198
20.1046
20.116
20.1032
20.1301
20.1029
20.125
20.1014
20.0988
20.0988
20.099
20.099
20.0974
20.0974
20.0974
20.0974
20.1046
20.1198
20.1032
20.116
20.1029
20.1301
20.1014
20.125
20.1089
20.0873
20.1074
20.0943
20.2066
19.9705
20.199
19.9835
20.0755
20.11
20.0811
20.1097
19.9486
20.2177
19.9589
20.2127
20.1265
20.1079
20.1233
20.1062
20.139
20.1063
20.1348
20.1045
20.0993
20.0993
20.0989
20.0989
20.0981
20.0981
20.0976
20.0976
20.1078
20.1265
20.1062
20.1233
20.1063
20.139
20.1045
20.1348
20.11
20.0755
20.1097
20.0811
20.2177
19.9487
20.2127
19.959
20.0659
20.1097
20.0704
20.11
19.9313
20.225
19.9395
20.2218
20.1318
20.1112
20.1293
20.1095
20.1461
20.1099
20.1428
20.1081
20.1007
20.1007
20.0999
20.0999
20.0995
20.0995
20.0987
20.0987
20.1112
20.1318
20.1095
20.1293
20.1099
20.1461
20.1081
20.1427
20.1097
20.0659
20.11
20.0704
20.225
19.9313
20.2217
19.9395
20.0582
20.1088
20.0618
20.1093
19.9176
20.2298
19.9241
20.2277
20.1359
20.1144
20.134
20.1128
20.1515
20.1133
20.149
20.1117
20.1026
20.1026
20.1016
20.1016
20.1015
20.1015
20.1005
20.1005
20.1144
20.1359
20.1128
20.134
20.1133
20.1515
20.1117
20.149
20.1088
20.0582
20.1093
20.0618
20.2298
19.9177
20.2277
19.9241
20.0519
20.1076
20.0549
20.1082
19.9069
20.2329
19.9119
20.2315
20.1389
20.1172
20.1375
20.1158
20.1556
20.1164
20.1537
20.1149
20.1047
20.1047
20.1037
20.1037
20.1035
20.1035
20.1025
20.1025
20.1172
20.1389
20.1158
20.1375
20.1163
20.1555
20.1149
20.1537
20.1076
20.0519
20.1082
20.0549
20.2328
19.9069
20.2315
19.912
20.0467
20.1064
20.0492
20.107
19.8984
20.2347
19.9024
20.2339
20.1412
20.1197
20.1401
20.1185
20.1585
20.1189
20.1572
20.1177
20.1068
20.1068
20.1058
20.1058
20.1056
20.1056
20.1046
20.1046
20.1197
20.1412
20.1185
20.1401
20.1189
20.1585
20.1177
20.1571
20.1064
20.0468
20.107
20.0492
20.2347
19.8985
20.2339
19.9024
20.0426
20.1052
20.0445
20.1058
19.8919
20.2357
19.8949
20.2353
20.1428
20.1218
20.1421
20.1208
20.1607
20.1211
20.1597
20.1201
20.1088
20.1088
20.1079
20.1078
20.1075
20.1075
20.1066
20.1066
20.1218
20.1428
20.1208
20.1421
20.1211
20.1607
20.1201
20.1597
20.1052
20.0426
20.1058
20.0446
20.2357
19.8919
20.2353
19.895
20.0391
20.1042
20.0407
20.1047
19.8868
20.2361
19.8892
20.236
20.1441
20.1235
20.1435
20.1227
20.1622
20.1228
20.1615
20.122
20.1106
20.1106
20.1097
20.1097
20.1093
20.1092
20.1084
20.1084
20.1235
20.1441
20.1227
20.1435
20.1228
20.1622
20.122
20.1615
20.1042
20.0391
20.1047
20.0408
20.2361
19.8869
20.2359
19.8893
20.0363
20.1033
20.0376
20.1037
19.8831
20.236
19.8848
20.2361
20.145
20.1249
20.1446
20.1242
20.1632
20.1242
20.1627
20.1236
20.1121
20.1121
20.1114
20.1114
20.1107
20.1107
20.11
20.11
20.1248
20.1449
20.1242
20.1445
20.1242
20.1632
20.1235
20.1627
20.1033
20.0363
20.1037
20.0377
20.236
19.8831
20.2361
19.8849
20.034
20.1025
20.0351
20.1029
19.8803
20.2356
19.8816
20.2359
20.1456
20.1259
20.1453
20.1254
20.1638
20.1252
20.1635
20.1247
20.1134
20.1134
20.1128
20.1128
20.1119
20.1119
20.1113
20.1113
20.1259
20.1456
20.1254
20.1453
20.1252
20.1637
20.1247
20.1635
20.1025
20.0341
20.1029
20.0351
20.2356
19.8804
20.2358
19.8817
20.0322
20.1019
20.0331
20.1022
19.8784
20.2349
19.8793
20.2353
20.146
20.1267
20.1458
20.1263
20.164
20.1259
20.1639
20.1256
20.1144
20.1144
20.1139
20.1139
20.1128
20.1128
20.1124
20.1124
20.1267
20.146
20.1263
20.1458
20.1259
20.164
20.1256
20.1639
20.1019
20.0322
20.1022
20.0331
20.2349
19.8785
20.2353
19.8793
20.0307
20.1014
20.0314
20.1017
19.8772
20.2341
19.8777
20.2345
20.1462
20.1273
20.1461
20.127
20.1641
20.1264
20.1641
20.1262
20.1152
20.1152
20.1148
20.1148
20.1135
20.1135
20.1132
20.1132
20.1273
20.1462
20.127
20.1461
20.1264
20.164
20.1262
20.1641
20.1014
20.0308
20.1017
20.0314
20.234
19.8772
20.2345
19.8778
20.0296
20.1011
20.0301
20.1012
19.8765
20.2331
19.8768
20.2336
20.1464
20.1277
20.1463
20.1275
20.1639
20.1266
20.164
20.1265
20.1158
20.1158
20.1156
20.1156
20.114
20.114
20.1138
20.1138
20.1277
20.1464
20.1275
20.1463
20.1266
20.1638
20.1265
20.164
20.1011
20.0296
20.1013
20.0301
20.2331
19.8766
20.2336
19.8769
20.0287
20.1008
20.0291
20.1009
19.8763
20.232
19.8764
20.2326
20.1464
20.1279
20.1464
20.1278
20.1635
20.1267
20.1637
20.1267
20.1163
20.1163
20.1161
20.1161
20.1143
20.1143
20.1142
20.1142
20.1279
20.1464
20.1278
20.1464
20.1267
20.1635
20.1267
20.1637
20.1008
20.0288
20.1009
20.0291
20.232
19.8764
20.2325
19.8765
20.0281
20.1007
20.0284
20.1008
19.8765
20.2309
19.8764
20.2315
20.1463
20.128
20.1464
20.128
20.1629
20.1266
20.1632
20.1267
20.1166
20.1166
20.1165
20.1165
20.1144
20.1144
20.1144
20.1144
20.128
20.1463
20.128
20.1463
20.1266
20.1629
20.1267
20.1632
20.1007
20.0281
20.1008
20.0284
20.2308
19.8766
20.2314
19.8765
20.0277
20.1007
20.0279
20.1007
19.8771
20.2297
19.8768
20.2303
20.1459
20.1281
20.1461
20.1281
20.1623
20.1264
20.1626
20.1265
20.1168
20.1168
20.1167
20.1167
20.1145
20.1144
20.1145
20.1145
20.128
20.1459
20.128
20.1461
20.1264
20.1622
20.1265
20.1626
20.1007
20.0278
20.1007
20.0279
20.2297
19.8772
20.2303
19.8769
20.0276
20.1007
20.0276
20.1007
19.8779
20.2286
19.8775
20.2292
20.1455
20.128
20.1457
20.128
20.1615
20.1261
20.1619
20.1263
20.117
20.117
20.1169
20.1169
20.1144
20.1144
20.1144
20.1144
20.128
20.1455
20.128
20.1457
20.1261
20.1615
20.1263
20.1619
20.1007
20.0276
20.1007
20.0277
20.2285
19.878
20.2291
19.8776
20.0276
20.1009
20.0276
20.1008
19.8791
20.2274
19.8784
20.228
20.1452
20.1279
20.1453
20.128
20.1607
20.1258
20.1611
20.126
20.117
20.117
20.117
20.117
20.1142
20.1142
20.1143
20.1143
20.1279
20.1452
20.1279
20.1453
20.1258
20.1607
20.126
20.1611
20.1009
20.0277
20.1008
20.0276
20.2274
19.8792
20.228
19.8786
20.0279
20.1012
20.0277
20.101
19.8805
20.2263
19.8797
20.2269
20.1449
20.1278
20.145
20.1279
20.1599
20.1254
20.1603
20.1256
20.1171
20.1171
20.1171
20.1171
20.114
20.114
20.1141
20.1141
20.1278
20.1449
20.1278
20.145
20.1254
20.1599
20.1256
20.1603
20.1012
20.028
20.101
20.0278
20.2263
19.8806
20.2268
19.8798
20.0284
20.1016
20.0281
20.1014
19.8821
20.2252
19.8813
20.2257
20.1446
20.1277
20.1448
20.1278
20.1591
20.125
20.1595
20.1252
20.1171
20.1171
20.1171
20.1171
20.1137
20.1137
20.1139
20.1139
20.1277
20.1446
20.1277
20.1447
20.125
20.1591
20.1252
20.1595
20.1016
20.0284
20.1014
20.0282
20.2251
19.8822
20.2257
19.8814
20.0292
20.1021
20.0288
20.1018
19.8841
20.2241
19.8831
20.2246
20.1445
20.1277
20.1446
20.1277
20.1583
20.1246
20.1587
20.1248
20.1172
20.1172
20.1172
20.1172
20.1135
20.1135
20.1136
20.1136
20.1277
20.1445
20.1277
20.1445
20.1246
20.1583
20.1248
20.1587
20.1021
20.0292
20.1019
20.0288
20.2241
19.8842
20.2246
19.8832
20.0301
20.1028
20.0296
20.1024
19.8863
20.2231
19.8852
20.2236
20.1444
20.1277
20.1444
20.1276
20.1576
20.1242
20.158
20.1244
20.1174
20.1174
20.1173
20.1173
20.1133
20.1133
20.1134
20.1134
20.1277
20.1444
20.1276
20.1444
20.1242
20.1576
20.1244
20.158
20.1028
20.0301
20.1025
20.0296
20.2231
19.8864
20.2236
19.8852
20.0313
20.1036
20.0307
20.1032
19.8889
20.2222
19.8876
20.2226
20.1444
20.1277
20.1444
20.1277
20.1569
20.1239
20.1572
20.1241
20.1176
20.1176
20.1175
20.1175
20.1132
20.1132
20.1133
20.1133
20.1277
20.1443
20.1277
20.1444
20.1239
20.1569
20.1241
20.1572
20.1036
20.0313
20.1032
20.0307
20.2221
19.8889
20.2226
19.8876
20.0328
20.1046
20.032
20.1041
19.8917
20.2213
19.8903
20.2217
20.1444
20.1279
20.1444
20.1278
20.1563
20.1237
20.1566
20.1238
20.118
20.1179
20.1178
20.1178
20.1132
20.1132
20.1132
20.1132
20.1279
20.1444
20.1278
20.1444
20.1237
20.1562
20.1238
20.1566
20.1046
20.0328
20.1041
20.032
20.2213
19.8918
20.2217
19.8903
20.0345
20.1057
20.0336
20.1051
19.895
20.2205
19.8933
20.2209
20.1446
20.1282
20.1445
20.128
20.1557
20.1236
20.156
20.1236
20.1184
20.1184
20.1182
20.1182
20.1134
20.1134
20.1133
20.1133
20.1282
20.1446
20.128
20.1445
20.1236
20.1557
20.1236
20.156
20.1057
20.0345
20.1052
20.0336
20.2204
19.895
20.2208
19.8934
20.0366
20.107
20.0355
20.1063
19.8986
20.2197
19.8967
20.2201
20.1449
20.1286
20.1447
20.1284
20.1552
20.1236
20.1554
20.1236
20.1191
20.1191
20.1188
20.1188
20.1137
20.1137
20.1135
20.1135
20.1286
20.1449
20.1284
20.1447
20.1236
20.1552
20.1236
20.1554
20.107
20.0366
20.1063
20.0355
20.2197
19.8987
20.2201
19.8968
20.0389
20.1084
20.0377
20.1077
19.9027
20.219
19.9006
20.2194
20.1452
20.1292
20.1451
20.1289
20.1548
20.1238
20.155
20.1237
20.12
20.12
20.1195
20.1195
20.1143
20.1143
20.114
20.114
20.1292
20.1452
20.1289
20.145
20.1238
20.1548
20.1237
20.155
20.1084
20.039
20.1077
20.0377
20.219
19.9027
20.2193
19.9006
20.0416
20.11
20.0402
20.1092
19.9072
20.2183
19.9049
20.2187
20.1457
20.1299
20.1455
20.1295
20.1544
20.1242
20.1546
20.124
20.121
20.121
20.1205
20.1205
20.115
20.115
20.1146
20.1146
20.1299
20.1457
20.1295
20.1454
20.1242
20.1544
20.124
20.1546
20.11
20.0417
20.1092
20.0403
20.2183
19.9073
20.2186
19.9049
20.0446
20.1117
20.0431
20.1108
19.9123
20.2177
19.9097
20.218
20.1462
20.1308
20.1459
20.1303
20.1542
20.1248
20.1543
20.1244
20.1223
20.1223
20.1217
20.1217
20.1161
20.1161
20.1155
20.1155
20.1308
20.1462
20.1303
20.1459
20.1247
20.1542
20.1244
20.1543
20.1117
20.0447
20.1108
20.0431
20.2177
19.9123
20.218
19.9097
20.048
20.1135
20.0463
20.1126
19.9179
20.217
19.915
20.2173
20.1467
20.1319
20.1464
20.1313
20.154
20.1255
20.1541
20.1251
20.1239
20.1239
20.1231
20.1231
20.1174
20.1174
20.1167
20.1167
20.1318
20.1467
20.1313
20.1464
20.1255
20.154
20.1251
20.154
20.1135
20.048
20.1126
20.0463
20.217
19.918
20.2173
19.9151
20.0517
20.1153
20.0498
20.1144
19.9243
20.2162
19.921
20.2166
20.1473
20.1331
20.147
20.1324
20.1538
20.1266
20.1539
20.126
20.1256
20.1256
20.1247
20.1247
20.119
20.119
20.1182
20.1182
20.1331
20.1473
20.1324
20.147
20.1266
20.1538
20.126
20.1539
20.1153
20.0517
20.1144
20.0498
20.2161
19.9243
20.2166
19.9211
20.0557
20.1172
20.0537
20.1163
19.9315
20.2151
19.9278
20.2157
20.1479
20.1344
20.1476
20.1337
20.1537
20.1278
20.1538
20.1272
20.1276
20.1276
20.1266
20.1266
20.121
20.121
20.12
20.12
20.1344
20.1479
20.1337
20.1476
20.1278
20.1537
20.1272
20.1537
20.1172
20.0557
20.1163
20.0537
20.215
19.9315
20.2156
19.9278
20.0599
20.1193
20.0578
20.1182
19.9398
20.2134
19.9355
20.2144
20.1485
20.136
20.1482
20.1352
20.1535
20.1293
20.1536
20.1286
20.1298
20.1298
20.1287
20.1287
20.1231
20.1231
20.122
20.122
20.136
20.1484
20.1352
20.1482
20.1293
20.1535
20.1286
20.1536
20.1193
20.0599
20.1182
20.0578
20.2134
19.9398
20.2143
19.9355
20.0629
20.1225
20.0617
20.1206
19.9498
20.2106
19.9446
20.2122
20.1491
20.1377
20.1487
20.1368
20.1532
20.1311
20.1534
20.1302
20.1323
20.1322
20.131
20.131
20.1256
20.1256
20.1243
20.1243
20.1377
20.1491
20.1368
20.1487
20.1311
20.1532
20.1302
20.1533
20.1225
20.0629
20.1206
20.0617
20.2106
19.9499
20.2122
19.9446
20.0654
20.1255
20.063
20.1253
19.9622
20.2056
19.9556
20.2085
20.1503
20.1399
20.1497
20.1387
20.153
20.1332
20.1531
20.1321
20.135
20.135
20.1336
20.1336
20.1283
20.1283
20.1269
20.1269
20.1399
20.1503
20.1387
20.1497
20.1332
20.153
20.1321
20.153
20.1255
20.0654
20.1252
20.063
20.2055
19.9622
20.2085
19.9557
20.1673
20.0523
20.1275
20.0754
20.1553
20.0566
20.1162
20.0794
20.0938
20.1005
20.0991
20.1006
20.0956
20.1001
20.0984
20.0997
20.1008
20.1008
20.1005
20.1005
20.1004
20.1004
20.0998
20.0998
20.1005
20.0938
20.1006
20.0991
20.1001
20.0956
20.0997
20.0984
20.0523
20.1673
20.0754
20.1275
20.0566
20.1553
20.0794
20.1162
20.1828
20.0614
20.1823
20.0542
20.1751
20.0593
20.1738
20.0546
20.0845
20.0982
20.0879
20.0997
20.0891
20.0997
20.0918
20.1003
20.1011
20.1011
20.1009
20.1009
20.101
20.101
20.1009
20.1009
20.0982
20.0845
20.0997
20.0879
20.0997
20.0891
20.1003
20.0918
20.0614
20.1828
20.0542
20.1823
20.0593
20.1751
20.0546
20.1738
20.1774
20.0725
20.1802
20.068
20.1678
20.0685
20.1719
20.0646
20.084
20.0957
20.0836
20.0967
20.0891
20.0986
20.0884
20.099
20.1003
20.1003
20.1009
20.1009
20.1005
20.1005
20.1009
20.1009
20.0957
20.084
20.0967
20.0836
20.0986
20.0891
20.099
20.0884
20.0725
20.1774
20.068
20.1802
20.0685
20.1678
20.0646
20.1719
20.1728
20.0762
20.1749
20.0751
20.1603
20.0715
20.1639
20.0707
20.0859
20.0953
20.0848
20.0953
20.093
20.099
20.0907
20.0986
20.0988
20.0988
20.0995
20.0995
20.0994
20.0994
20.1
20.1
20.0953
20.0859
20.0953
20.0848
20.099
20.093
20.0986
20.0907
20.0762
20.1728
20.0751
20.1749
20.0715
20.1603
20.0707
20.1639
20.1697
20.0758
20.1712
20.0763
20.1542
20.0708
20.157
20.0715
20.0881
20.0962
20.0871
20.0956
20.0976
20.1006
20.0954
20.0997
20.098
20.098
20.0983
20.0983
20.0989
20.0989
20.099
20.099
20.0962
20.0881
20.0956
20.0871
20.1006
20.0976
20.0997
20.0954
20.0758
20.1697
20.0763
20.1712
20.0708
20.1542
20.0715
20.157
20.1675
20.0738
20.1685
20.0749
20.1494
20.0684
20.1516
20.0697
20.0896
20.0979
20.0889
20.097
20.101
20.103
20.0994
20.1017
20.0984
20.0984
20.0981
20.0981
20.0994
20.0994
20.099
20.099
20.0979
20.0896
20.097
20.0889
20.103
20.101
20.1017
20.0994
20.0738
20.1675
20.0749
20.1685
20.0684
20.1494
20.0697
20.1516
20.1656
20.0713
20.1665
20.0725
20.1454
20.0655
20.1473
20.067
20.0905
20.0999
20.0901
20.0989
20.1035
20.1056
20.1023
20.1043
20.0997
20.0997
20.099
20.099
20.1009
20.1009
20.1001
20.1001
20.0999
20.0905
20.0989
20.0901
20.1056
20.1035
20.1043
20.1023
20.0713
20.1656
20.0725
20.1665
20.0655
20.1454
20.067
20.1473
20.164
20.0687
20.1648
20.07
20.1422
20.0628
20.1437
20.0641
20.091
20.1018
20.0908
20.1009
20.105
20.1082
20.1043
20.1069
20.1015
20.1015
20.1006
20.1006
20.1028
20.1028
20.1018
20.1018
20.1018
20.091
20.1009
20.0908
20.1082
20.105
20.1069
20.1043
20.0688
20.164
20.07
20.1648
20.0628
20.1422
20.0641
20.1437
20.1625
20.0664
20.1632
20.0676
20.1394
20.0603
20.1407
20.0615
20.0913
20.1036
20.0912
20.1028
20.106
20.1106
20.1056
20.1094
20.1036
20.1036
20.1025
20.1025
20.1049
20.1049
20.1039
20.1039
20.1036
20.0913
20.1028
20.0912
20.1106
20.106
20.1094
20.1056
20.0664
20.1625
20.0676
20.1632
20.0603
20.1394
20.0615
20.1407
20.1611
20.0644
20.1618
20.0654
20.137
20.058
20.1381
20.0591
20.0915
20.1053
20.0914
20.1045
20.1067
20.1128
20.1064
20.1117
20.1056
20.1056
20.1046
20.1046
20.1071
20.1071
20.106
20.106
20.1053
20.0915
20.1045
20.0914
20.1128
20.1067
20.1117
20.1064
20.0644
20.161
20.0654
20.1618
20.0581
20.1369
20.0591
20.1381
20.1597
20.0627
20.1604
20.0635
20.1348
20.0562
20.1359
20.0571
20.0917
20.1068
20.0916
20.1061
20.1072
20.1147
20.107
20.1137
20.1076
20.1076
20.1066
20.1066
20.1091
20.1091
20.1081
20.1081
20.1068
20.0917
20.1061
20.0916
20.1146
20.1072
20.1137
20.107
20.0627
20.1597
20.0635
20.1604
20.0562
20.1348
20.0571
20.1358
20.1584
20.0612
20.159
20.0619
20.1329
20.0546
20.1338
20.0554
20.0918
20.1081
20.0918
20.1075
20.1075
20.1163
20.1074
20.1155
20.1094
20.1094
20.1085
20.1085
20.1109
20.1109
20.11
20.11
20.1081
20.0918
20.1075
20.0918
20.1163
20.1075
20.1155
20.1074
20.0612
20.1583
20.0619
20.159
20.0547
20.1329
20.0554
20.1338
20.157
20.0601
20.1577
20.0606
20.1312
20.0534
20.132
20.054
20.092
20.1093
20.0919
20.1087
20.1077
20.1177
20.1076
20.1171
20.1109
20.1109
20.1102
20.1102
20.1125
20.1125
20.1117
20.1117
20.1093
20.092
20.1087
20.0919
20.1177
20.1077
20.1171
20.1076
20.0601
20.157
20.0606
20.1577
20.0534
20.1312
20.054
20.132
20.1558
20.0592
20.1564
20.0596
20.1296
20.0525
20.1304
20.0529
20.0923
20.1103
20.0921
20.1098
20.1078
20.1189
20.1077
20.1184
20.1123
20.1123
20.1117
20.1117
20.1139
20.1139
20.1132
20.1132
20.1103
20.0923
20.1098
20.0921
20.1189
20.1078
20.1183
20.1077
20.0592
20.1558
20.0596
20.1564
20.0525
20.1296
20.0529
20.1304
20.1546
20.0586
20.1552
20.0589
20.1283
20.0518
20.1289
20.0521
20.0925
20.1113
20.0924
20.1108
20.1078
20.1198
20.1078
20.1194
20.1135
20.1135
20.113
20.113
20.115
20.115
20.1145
20.1145
20.1113
20.0925
20.1108
20.0924
20.1198
20.1078
20.1194
20.1078
20.0586
20.1546
20.0589
20.1552
20.0518
20.1282
20.0521
20.1289
20.1535
20.0581
20.1541
20.0583
20.127
20.0514
20.1276
20.0516
20.0928
20.1121
20.0927
20.1117
20.1078
20.1206
20.1078
20.1202
20.1146
20.1146
20.1141
20.1141
20.116
20.116
20.1155
20.1155
20.1121
20.0928
20.1117
20.0927
20.1206
20.1078
20.1202
20.1078
20.0582
20.1535
20.0584
20.154
20.0514
20.127
20.0516
20.1276
20.1526
20.0579
20.153
20.058
20.1262
20.051
20.1266
20.0511
20.0931
20.1128
20.093
20.1124
20.1076
20.1212
20.1077
20.1209
20.1154
20.1154
20.115
20.115
20.1168
20.1168
20.1164
20.1164
20.1128
20.0931
20.1124
20.093
20.1212
20.1076
20.1209
20.1077
20.0579
20.1526
20.058
20.153
20.0511
20.1259
20.0512
20.1264
20.1517
20.0577
20.1521
20.0578
20.1251
20.0509
20.1256
20.0509
20.0935
20.1134
20.0933
20.1131
20.1076
20.1217
20.1076
20.1215
20.1162
20.1162
20.1158
20.1158
20.1174
20.1174
20.1171
20.1171
20.1134
20.0936
20.1131
20.0933
20.1217
20.1076
20.1215
20.1076
20.0578
20.1517
20.0578
20.1521
20.0509
20.1251
20.051
20.1255
20.1511
20.0577
20.1514
20.0577
20.1244
20.051
20.1247
20.0509
20.094
20.114
20.0938
20.1137
20.1078
20.1221
20.1077
20.1219
20.1168
20.1168
20.1165
20.1165
20.1179
20.1179
20.1176
20.1176
20.114
20.0941
20.1137
20.0938
20.1221
20.1078
20.1219
20.1077
20.0579
20.1508
20.0578
20.1512
20.0511
20.1243
20.051
20.1247
20.1502
20.058
20.1506
20.0578
20.1238
20.0513
20.1241
20.0511
20.0947
20.1145
20.0943
20.1143
20.1082
20.1224
20.108
20.1223
20.1173
20.1173
20.117
20.117
20.1182
20.1182
20.1181
20.1181
20.1145
20.0947
20.1143
20.0944
20.1224
20.1082
20.1223
20.108
20.0579
20.1504
20.0578
20.1506
20.0512
20.1238
20.0511
20.124
20.1498
20.0583
20.15
20.0582
20.1232
20.0517
20.1235
20.0514
20.0951
20.115
20.095
20.1148
20.109
20.1227
20.1085
20.1225
20.1178
20.1178
20.1175
20.1175
20.1186
20.1186
20.1184
20.1184
20.115
20.0952
20.1148
20.095
20.1226
20.109
20.1225
20.1085
20.0585
20.1496
20.0582
20.15
20.0516
20.1232
20.0514
20.1235
20.1495
20.0589
20.1496
20.0586
20.1229
20.0522
20.123
20.0519
20.0955
20.1155
20.0953
20.1152
20.1099
20.1229
20.1095
20.1228
20.1183
20.1183
20.118
20.118
20.1188
20.1188
20.1187
20.1187
20.1155
20.0956
20.1152
20.0954
20.1229
20.1098
20.1227
20.1095
20.0589
20.1495
20.0586
20.1495
20.0522
20.1228
20.0519
20.123
20.1492
20.0595
20.1493
20.0592
20.1227
20.0529
20.1228
20.0525
20.0962
20.116
20.0958
20.1157
20.1106
20.1231
20.1102
20.123
20.1187
20.1187
20.1185
20.1185
20.1191
20.1191
20.119
20.119
20.116
20.0962
20.1157
20.0959
20.1231
20.1105
20.123
20.1102
20.0596
20.1491
20.0592
20.1493
20.0528
20.1228
20.0525
20.1228
20.1493
20.0604
20.1492
20.06
20.1228
20.0537
20.1228
20.0533
20.0969
20.1165
20.0965
20.1163
20.1113
20.1234
20.1109
20.1232
20.1192
20.1192
20.119
20.119
20.1194
20.1194
20.1193
20.1193
20.1165
20.0969
20.1163
20.0965
20.1234
20.1113
20.1232
20.1109
20.0604
20.1492
20.06
20.1491
20.0537
20.1229
20.0532
20.1228
20.1494
20.0614
20.1494
20.0608
20.1232
20.0546
20.123
20.0541
20.0977
20.1172
20.0973
20.1169
20.112
20.1237
20.1116
20.1235
20.1198
20.1198
20.1195
20.1195
20.1197
20.1197
20.1196
20.1196
20.1172
20.0978
20.1169
20.0973
20.1237
20.112
20.1235
20.1116
20.0614
20.1493
20.0609
20.1493
20.0547
20.1231
20.0541
20.123
20.1499
20.0624
20.1496
20.0619
20.1236
20.0558
20.1234
20.0552
20.0987
20.1179
20.0982
20.1175
20.1128
20.1241
20.1124
20.1239
20.1204
20.1204
20.1201
20.1201
20.1202
20.1202
20.1199
20.1199
20.1179
20.0988
20.1175
20.0982
20.1241
20.1128
20.1239
20.1124
20.0626
20.1497
20.062
20.1494
20.0558
20.1235
20.0553
20.1233
20.1502
20.0641
20.15
20.0632
20.1242
20.0571
20.1239
20.0564
20.0999
20.1187
20.0993
20.1183
20.1137
20.1246
20.1132
20.1243
20.1211
20.1211
20.1207
20.1207
20.1207
20.1207
20.1204
20.1204
20.1187
20.0999
20.1183
20.0993
20.1246
20.1137
20.1243
20.1132
20.0641
20.1502
20.0633
20.1499
20.0571
20.1242
20.0564
20.1239
20.1509
20.0657
20.1505
20.0649
20.1251
20.0585
20.1246
20.0578
20.1011
20.1196
20.1005
20.1192
20.1147
20.1252
20.1142
20.1249
20.1219
20.1219
20.1215
20.1215
20.1213
20.1213
20.121
20.121
20.1196
20.1011
20.1192
20.1005
20.1251
20.1147
20.1248
20.1142
20.0657
20.1509
20.0649
20.1505
20.0585
20.1251
20.0578
20.1246
20.1519
20.0675
20.1514
20.0665
20.1262
20.0601
20.1256
20.0593
20.1025
20.1207
20.1018
20.1201
20.1157
20.1259
20.1152
20.1255
20.1229
20.1229
20.1224
20.1224
20.122
20.122
20.1216
20.1216
20.1207
20.1025
20.1201
20.1018
20.1258
20.1157
20.1255
20.1152
20.0675
20.1518
20.0666
20.1514
20.0601
20.1262
20.0593
20.1256
20.1529
20.0695
20.1524
20.0685
20.1275
20.0618
20.1268
20.0609
20.104
20.1218
20.1032
20.1212
20.1169
20.1267
20.1163
20.1262
20.124
20.124
20.1234
20.1234
20.123
20.123
20.1225
20.1225
20.1218
20.104
20.1212
20.1032
20.1267
20.1169
20.1262
20.1163
20.0695
20.1529
20.0685
20.1523
20.0618
20.1275
20.0609
20.1268
20.1541
20.0719
20.1535
20.0706
20.129
20.0635
20.1282
20.0626
20.1056
20.123
20.1047
20.1224
20.1182
20.1276
20.1175
20.1271
20.1252
20.1252
20.1246
20.1246
20.1241
20.1241
20.1235
20.1235
20.123
20.1056
20.1224
20.1047
20.1276
20.1182
20.1271
20.1175
20.0719
20.1541
20.0706
20.1535
20.0635
20.129
20.0627
20.1282
20.1554
20.0745
20.1548
20.0732
20.1307
20.0652
20.1299
20.0643
20.1073
20.1244
20.1064
20.1237
20.1195
20.1287
20.1188
20.1282
20.1266
20.1266
20.1259
20.1259
20.1253
20.1253
20.1247
20.1247
20.1244
20.1073
20.1237
20.1064
20.1287
20.1195
20.1282
20.1188
20.0745
20.1554
20.0732
20.1547
20.0652
20.1307
20.0643
20.1298
20.1568
20.0762
20.1561
20.0754
20.1326
20.068
20.1316
20.0665
20.1091
20.126
20.1082
20.1252
20.121
20.1299
20.1202
20.1294
20.1282
20.1282
20.1274
20.1274
20.1268
20.1268
20.126
20.126
20.126
20.1091
20.1252
20.1082
20.1299
20.121
20.1294
20.1202
20.0762
20.1568
20.0754
20.1561
20.068
20.1326
20.0666
20.1316
20.1582
20.078
20.1576
20.077
20.1345
20.0708
20.1335
20.0694
20.1109
20.1277
20.11
20.1268
20.1225
20.1313
20.1216
20.1307
20.1299
20.1299
20.129
20.129
20.1284
20.1284
20.1276
20.1276
20.1277
20.1109
20.1268
20.11
20.1313
20.1225
20.1307
20.1216
20.0781
20.1582
20.0771
20.1575
20.0708
20.1345
20.0694
20.1335
20.1594
20.0803
20.1589
20.0791
20.1365
20.0736
20.1355
20.0722
20.113
20.1295
20.1119
20.1286
20.1241
20.1328
20.1232
20.1321
20.1318
20.1318
20.1308
20.1308
20.1302
20.1302
20.1293
20.1293
20.1295
20.113
20.1286
20.1119
20.1328
20.1241
20.1321
20.1232
20.0803
20.1594
20.0791
20.1588
20.0736
20.1365
20.0722
20.1355
20.1601
20.0831
20.1599
20.0816
20.1383
20.0767
20.1375
20.0751
20.1152
20.1314
20.1141
20.1304
20.1258
20.1344
20.1248
20.1337
20.1338
20.1338
20.1328
20.1328
20.1322
20.1322
20.1312
20.1312
20.1314
20.1152
20.1304
20.1141
20.1344
20.1257
20.1337
20.1248
20.0831
20.1601
20.0816
20.1598
20.0767
20.1383
20.0751
20.1374
20.1596
20.0869
20.1601
20.0848
20.1394
20.0804
20.139
20.0784
20.1176
20.1333
20.1164
20.1323
20.1274
20.1361
20.1265
20.1353
20.1361
20.1361
20.1349
20.1349
20.1344
20.1344
20.1333
20.1333
20.1333
20.1175
20.1323
20.1163
20.1361
20.1274
20.1353
20.1265
20.0869
20.1596
20.0848
20.16
20.0804
20.1394
20.0784
20.139
20.1548
20.0944
20.1582
20.0898
20.1376
20.0867
20.1392
20.0828
20.1201
20.1352
20.1188
20.1343
20.1291
20.138
20.1283
20.1371
20.1386
20.1386
20.1373
20.1373
20.1369
20.1369
20.1356
20.1356
20.1352
20.1201
20.1343
20.1188
20.138
20.1291
20.1371
20.1282
20.0944
20.1548
20.0898
20.1581
20.0867
20.1376
20.0828
20.1392
20.1613
20.0911
20.1511
20.0998
20.1435
20.0852
20.1354
20.0911
20.1209
20.1379
20.1213
20.1364
20.1301
20.1405
20.1301
20.1392
20.1413
20.1413
20.14
20.1399
20.1396
20.1396
20.1382
20.1382
20.1379
20.1208
20.1364
20.1213
20.1405
20.1301
20.1392
20.1301
20.0911
20.1613
20.0998
20.1511
20.0852
20.1435
20.0911
20.1354
20.1819
20.0476
20.1421
20.0684
20.176
20.049
20.1365
20.0708
20.0891
20.0998
20.0966
20.1005
20.0909
20.1
20.0973
20.1001
20.1006
20.1006
20.1003
20.1003
20.1005
20.1005
20.1
20.1
20.0998
20.0891
20.1005
20.0966
20.1
20.0909
20.1001
20.0973
20.0476
20.1819
20.0684
20.1421
20.049
20.176
20.0708
20.1365
20.1861
20.0691
20.1886
20.0571
20.1854
20.0651
20.1865
20.0551
20.0782
20.0943
20.0822
20.0975
20.0803
20.0961
20.0843
20.0986
20.1005
20.1005
20.1008
20.1008
20.101
20.101
20.101
20.101
20.0943
20.0782
20.0975
20.0822
20.0961
20.0803
20.0986
20.0843
20.0691
20.1861
20.0571
20.1886
20.0651
20.1854
20.0551
20.1864
20.1791
20.0855
20.1825
20.0787
20.1794
20.0792
20.1824
20.0734
20.0774
20.0899
20.077
20.0917
20.0793
20.0924
20.079
20.0939
20.0978
20.0978
20.0994
20.0994
20.0992
20.0992
20.1003
20.1003
20.0899
20.0774
20.0917
20.077
20.0924
20.0793
20.0939
20.079
20.0855
20.1791
20.0787
20.1825
20.0792
20.1794
20.0734
20.1824
20.1743
20.0928
20.1764
20.09
20.175
20.0848
20.1769
20.0828
20.0796
20.0883
20.0784
20.0889
20.0813
20.0913
20.0803
20.0916
20.0949
20.0949
20.0963
20.0963
20.097
20.097
20.0981
20.0981
20.0883
20.0796
20.0889
20.0784
20.0913
20.0813
20.0916
20.0803
20.0927
20.1743
20.09
20.1764
20.0848
20.175
20.0828
20.1769
20.1713
20.0952
20.1726
20.0944
20.1722
20.086
20.1734
20.0857
20.0815
20.0881
20.0806
20.0881
20.0831
20.0915
20.0823
20.0913
20.0932
20.0932
20.0939
20.0939
20.0959
20.0959
20.0963
20.0963
20.0881
20.0815
20.0881
20.0806
20.0915
20.0831
20.0913
20.0823
20.0952
20.1713
20.0944
20.1726
20.086
20.1722
20.0857
20.1734
20.1692
20.0955
20.1702
20.0956
20.1703
20.0853
20.1712
20.0858
20.0828
20.0886
20.0822
20.0883
20.0842
20.0923
20.0837
20.0919
20.0929
20.0929
20.0929
20.0929
20.096
20.096
20.0958
20.0958
20.0886
20.0828
20.0883
20.0822
20.0923
20.0842
20.0919
20.0837
20.0955
20.1692
20.0956
20.1702
20.0853
20.1703
20.0858
20.1712
20.1676
20.0949
20.1684
20.0953
20.1688
20.0838
20.1695
20.0846
20.0835
20.0894
20.0832
20.089
20.0848
20.0935
20.0845
20.0929
20.0935
20.0935
20.0931
20.0931
20.097
20.097
20.0964
20.0964
20.0894
20.0835
20.089
20.0832
20.0935
20.0848
20.0929
20.0845
20.0949
20.1676
20.0953
20.1684
20.0838
20.1687
20.0846
20.1695
20.1661
20.0939
20.1668
20.0944
20.1674
20.0822
20.1681
20.083
20.0838
20.0904
20.0837
20.0899
20.085
20.0948
20.0849
20.0941
20.0947
20.0947
20.0941
20.0941
20.0985
20.0985
20.0977
20.0977
20.0904
20.0838
20.0899
20.0837
20.0948
20.085
20.0941
20.0849
20.0939
20.1661
20.0944
20.1668
20.0822
20.1674
20.083
20.168
20.1647
20.0928
20.1654
20.0934
20.1661
20.0805
20.1667
20.0813
20.084
20.0915
20.0839
20.0909
20.0851
20.0961
20.0851
20.0955
20.0963
20.0963
20.0955
20.0955
20.1004
20.1004
20.0994
20.0994
20.0915
20.084
20.0909
20.0839
20.0961
20.0851
20.0955
20.0851
20.0928
20.1647
20.0934
20.1654
20.0805
20.1661
20.0813
20.1667
20.1635
20.0918
20.1641
20.0923
20.1648
20.079
20.1655
20.0798
20.0841
20.0925
20.084
20.092
20.0852
20.0974
20.0851
20.0968
20.0979
20.0979
20.0971
20.0971
20.1022
20.1022
20.1013
20.1013
20.0925
20.0841
20.092
20.0841
20.0974
20.0852
20.0968
20.0851
20.0918
20.1634
20.0923
20.1641
20.079
20.1648
20.0798
20.1654
20.1622
20.0908
20.1628
20.0913
20.1636
20.0777
20.1642
20.0784
20.0842
20.0936
20.0842
20.0931
20.0852
20.0986
20.0852
20.098
20.0995
20.0995
20.0987
20.0987
20.104
20.104
20.1031
20.1031
20.0936
20.0842
20.0931
20.0842
20.0986
20.0852
20.098
20.0852
20.0908
20.1622
20.0913
20.1628
20.0777
20.1636
20.0784
20.1642
20.161
20.0899
20.1616
20.0903
20.1624
20.0766
20.163
20.0771
20.0844
20.0946
20.0843
20.0941
20.0853
20.0998
20.0853
20.0992
20.1011
20.1011
20.1003
20.1003
20.1057
20.1057
20.1049
20.1049
20.0946
20.0844
20.0941
20.0843
20.0998
20.0853
20.0992
20.0853
20.0899
20.161
20.0903
20.1616
20.0766
20.1624
20.0771
20.163
20.1599
20.0891
20.1604
20.0895
20.1612
20.0757
20.1618
20.0761
20.0846
20.0956
20.0845
20.0951
20.0855
20.1009
20.0854
20.1003
20.1025
20.1025
20.1018
20.1018
20.1072
20.1072
20.1065
20.1065
20.0956
20.0846
20.0951
20.0845
20.1009
20.0855
20.1004
20.0854
20.0891
20.1598
20.0895
20.1604
20.0757
20.1612
20.0761
20.1618
20.1588
20.0885
20.1593
20.0888
20.1601
20.0749
20.1607
20.0753
20.0849
20.0965
20.0847
20.0961
20.0857
20.1019
20.0856
20.1014
20.1038
20.1038
20.1032
20.1032
20.1086
20.1086
20.1079
20.1079
20.0965
20.0849
20.0961
20.0848
20.1019
20.0857
20.1014
20.0856
20.0885
20.1587
20.0888
20.1593
20.0749
20.1601
20.0753
20.1606
20.1578
20.0881
20.1583
20.0883
20.159
20.0743
20.1596
20.0746
20.0852
20.0974
20.085
20.0969
20.086
20.1027
20.0858
20.1023
20.105
20.105
20.1044
20.1044
20.1098
20.1098
20.1092
20.1092
20.0974
20.0852
20.097
20.085
20.1027
20.086
20.1023
20.0858
20.0881
20.1577
20.0883
20.1582
20.0743
20.159
20.0746