/*--------------------------------*- C++ -*----------------------------------*\
  =========                 |
  \\      /  F ield         | OpenFOAM: The Open Source CFD Toolbox
   \\    /   O peration     | Website:  https://openfoam.org
    \\  /    A nd           | Version:  9
     \\/     M anipulation  |
\*---------------------------------------------------------------------------*/
FoamFile
{
    format      ascii;
    class       surfaceScalarField;
    location    "2";
    object      phi;
}
// * * * * * * * * * * * * * * * * * * * * * * * * * * * * * * * * * * * * * //

dimensions      [0 3 -1 0 0 0 0];

internalField   nonuniform List<scalar> 
104044
(
2.45264e-06
-0.000147339
-3.24167e-06
0.000142922
5.20587e-06
-8.1478e-05
-2.21411e-06
-1.01787e-06
9.11611e-05
-3.99842e-06
8.336e-07
2.8358e-06
7.67036e-07
-7.06124e-06
-3.91397e-07
-1.29089e-06
-2.91002e-07
-0.000165113
0.000162162
-7.42603e-05
1.23162e-07
7.16321e-05
2.75499e-07
-9.80623e-08
-5.59034e-08
-9.67498e-05
-6.36237e-06
9.83367e-05
3.81358e-06
-0.000103015
-1.66825e-06
2.19136e-09
0.000103682
9.42709e-07
-2.54606e-08
-4.36177e-06
2.64662e-06
-1.75579e-06
1.45494e-09
4.86282e-07
4.50688e-09
-0.000106497
0.000100254
-0.000113232
-4.6758e-09
0.000111573
-3.63608e-08
-4.11462e-09
4.5547e-12
-0.000105521
-6.53594e-07
0.000106304
-1.26659e-07
-0.000105521
-6.53569e-07
-2.18181e-09
0.000106304
-1.26714e-07
1.56495e-12
-1.68237e-06
3.12276e-07
-1.68236e-06
-1.45276e-09
3.12244e-07
5.79817e-12
-0.000113601
0.000112943
-0.000113601
4.69331e-09
0.000112943
1.34066e-12
4.11794e-09
5.59179e-08
-0.000103015
-1.66819e-06
0.000103683
9.42596e-07
-9.67502e-05
-6.36219e-06
1.01787e-06
9.83369e-05
3.81349e-06
2.54648e-08
-1.75575e-06
4.86212e-07
-4.36173e-06
3.91417e-07
2.64657e-06
-4.492e-09
-0.000113233
0.000111574
-0.000106498
-1.23165e-07
0.000100254
3.63663e-08
9.80519e-08
-2.45272e-06
-8.14775e-05
-2.21382e-06
9.11602e-05
-3.99832e-06
-0.000147335
-3.2422e-06
0.000142918
5.20624e-06
-8.3362e-07
-7.06069e-06
-1.29118e-06
2.835e-06
7.68314e-07
2.90905e-07
-7.42598e-05
7.16319e-05
-0.000165109
0.000162158
-2.75492e-07
2.22025e-06
-0.000138069
-8.60892e-06
0.000133659
1.07987e-05
-9.77618e-05
8.65329e-06
-6.91215e-07
0.000101899
-9.87885e-06
2.73011e-06
-6.04951e-06
8.17287e-06
4.6553e-06
-9.66117e-07
-7.55976e-06
-2.534e-06
-0.000157348
0.000151273
-7.44804e-05
1.19266e-06
7.9407e-05
-1.23519e-06
5.71804e-07
-5.07952e-08
-0.000100583
-4.78194e-06
0.000101928
2.79711e-06
-0.000104593
-4.06029e-06
5.75249e-09
0.000105252
3.34509e-06
-5.66942e-08
-6.89573e-06
3.73983e-06
-3.42484e-06
4.70553e-09
2.45238e-06
1.15775e-07
-9.3876e-05
9.01709e-05
-0.000108204
6.271e-10
0.000104259
5.36856e-08
-2.29655e-09
1.64598e-11
-0.000107082
-2.34012e-06
0.000107366
2.06164e-06
-0.000107082
-2.34008e-06
-5.70529e-09
0.000107366
2.06163e-06
9.22712e-12
-9.35882e-07
1.62462e-07
-9.35875e-07
-4.6831e-09
1.62448e-07
1.52272e-11
-0.000112004
0.000109665
-0.000112005
-5.89426e-10
0.000109665
9.36e-12
2.31913e-09
5.08372e-08
-0.000104594
-4.06015e-06
0.000105252
3.34508e-06
-0.000100583
-4.78191e-06
6.91183e-07
0.000101927
2.79731e-06
5.67217e-08
-3.42472e-06
2.45231e-06
-6.89556e-06
9.66101e-07
3.73989e-06
-1.15727e-07
-0.000108205
0.00010426
-9.38769e-05
-1.19264e-06
9.01719e-05
-5.36552e-08
-5.71798e-07
-2.22042e-06
-9.77607e-05
8.6528e-06
0.000101898
-9.87808e-06
-0.000138065
-8.60882e-06
0.000133655
1.07985e-05
-2.73022e-06
4.65505e-06
-7.55922e-06
-6.0498e-06
8.173e-06
2.53365e-06
-7.44801e-05
7.94067e-05
-0.000157343
0.000151268
1.23498e-06
8.71925e-07
-0.000130069
-1.09712e-05
0.000127073
1.30951e-05
-0.000104389
1.18134e-05
-2.93151e-07
0.000105934
-1.21934e-05
1.49878e-06
-1.00455e-05
1.21361e-05
1.05987e-05
-4.32013e-07
-1.1158e-05
-5.28863e-06
-0.000145146
0.000139463
-8.43369e-05
2.2107e-06
8.8651e-05
-3.91775e-06
1.75101e-06
1.25136e-07
-0.000102648
-1.81273e-06
0.000103181
8.61162e-07
-0.000105335
-2.53328e-06
5.84411e-09
0.000105103
2.88421e-06
8.45851e-09
-2.87237e-06
1.71127e-06
-3.36838e-06
-3.60011e-09
3.29719e-06
3.91148e-07
-8.88106e-05
8.88174e-05
-0.000101125
2.14519e-08
9.89617e-05
2.38976e-07
4.30035e-09
2.53835e-11
-0.000107267
-2.46829e-06
0.00010685
2.89066e-06
-0.000107267
-2.46826e-06
-5.79943e-09
0.00010685
2.89068e-06
1.65603e-11
-2.80209e-06
2.89791e-06
-2.80205e-06
3.71441e-09
2.89783e-06
2.39415e-11
-0.000106867
0.00010442
-0.000106867
-2.13883e-08
0.00010442
2.13805e-11
-4.2465e-09
-1.2508e-07
-0.000105335
-2.5333e-06
0.000105104
2.88431e-06
-0.000102648
-1.81292e-06
2.93073e-07
0.000103181
8.61624e-07
-8.42494e-09
-3.36835e-06
3.29737e-06
-2.8725e-06
4.31942e-07
1.71165e-06
-3.91072e-07
-0.000101126
9.89625e-05
-8.88115e-05
-2.21063e-06
8.88181e-05
-2.38912e-07
-1.75097e-06
-8.72184e-07
-0.000104388
1.18125e-05
0.000105933
-1.21922e-05
-0.000130065
-1.09706e-05
0.000127069
1.30942e-05
-1.499e-06
1.05979e-05
-1.1157e-05
-1.00453e-05
1.21356e-05
5.28793e-06
-8.43363e-05
8.86502e-05
-0.00014514
0.000139457
3.91724e-06
-1.07918e-07
-0.000124572
-1.16711e-05
0.000122433
1.39187e-05
-0.000106899
1.28855e-05
-3.00143e-07
0.000107538
-1.33318e-05
3.30549e-07
-1.12879e-05
1.34585e-05
1.2318e-05
-2.44751e-07
-1.2708e-05
-7.44284e-06
-0.000134562
0.000130333
-9.20899e-05
2.71961e-06
9.48129e-05
-6.38656e-06
2.49256e-06
4.55879e-07
-0.000103701
-9.09508e-07
0.000104138
-2.82741e-07
-0.000104849
-1.29134e-06
7.95488e-08
0.000104665
1.85177e-06
3.0605e-07
-1.18456e-06
1.1394e-07
-1.79276e-06
4.25118e-08
2.31093e-06
6.33089e-07
-8.96155e-05
9.07926e-05
-9.76239e-05
1.01943e-07
9.68637e-05
5.09858e-07
5.49493e-08
2.07526e-11
-0.000106322
-1.46018e-06
0.000105829
2.03255e-06
-0.000106322
-1.46019e-06
-7.95036e-08
0.000105829
2.03258e-06
2.32857e-11
-1.88878e-06
2.45958e-06
-1.88878e-06
-4.24653e-08
2.4596e-06
2.17538e-11
-0.000102586
0.000101228
-0.000102587
-1.01879e-07
0.000101228
1.91623e-11
-5.48917e-08
-4.55822e-07
-0.000104849
-1.29143e-06
0.000104665
1.85193e-06
-0.000103701
-9.09662e-07
2.99929e-07
0.000104137
-2.82276e-07
-3.06008e-07
-1.79283e-06
2.31109e-06
-1.18479e-06
2.44662e-07
1.14454e-07
-6.33004e-07
-9.76246e-05
9.68643e-05
-8.9616e-05
-2.71952e-06
9.07929e-05
-5.09798e-07
-2.49248e-06
1.07583e-07
-0.000106898
1.28842e-05
0.000107536
-1.33303e-05
-0.000124568
-1.16699e-05
0.000122429
1.39172e-05
-3.30844e-07
1.23168e-05
-1.27066e-05
-1.12872e-05
1.34575e-05
7.44174e-06
-9.20889e-05
9.48119e-05
-0.000134555
0.000130327
6.38568e-06
-7.55653e-07
-0.00012063
-1.1983e-05
0.000119079
1.42896e-05
-0.000107959
1.34829e-05
-4.8993e-07
0.000108238
-1.40276e-05
-4.62041e-07
-1.1725e-05
1.39895e-05
1.30826e-05
-3.84137e-07
-1.35817e-05
-8.96203e-06
-0.000126799
0.000123778
-9.68929e-05
2.90373e-06
9.85101e-05
-8.19039e-06
2.81217e-06
6.66446e-07
-0.00010453
-7.83683e-07
0.0001049
-7.43314e-07
-0.000104577
-7.06233e-07
1.6595e-07
0.000104576
1.20704e-06
5.67833e-07
-7.9768e-07
-5.46489e-07
-9.30061e-07
1.20145e-07
1.46602e-06
8.33764e-07
-9.20742e-05
9.33605e-05
-9.65145e-05
1.91902e-07
9.64501e-05
7.32798e-07
1.51926e-07
2.95542e-11
-0.000105443
-9.00368e-07
0.000105165
1.34407e-06
-0.000105443
-9.00391e-07
-1.65868e-07
0.000105165
1.34409e-06
2.4994e-11
-1.12634e-06
1.6325e-06
-1.12635e-06
-1.20094e-07
1.63253e-06
2.38165e-11
-0.000100254
9.95451e-05
-0.000100254
-1.91864e-07
9.95453e-05
6.94095e-11
-1.51768e-07
-6.66372e-07
-0.000104576
-7.06289e-07
0.000104576
1.20718e-06
-0.000104529
-7.83833e-07
4.89649e-07
0.0001049
-7.42738e-07
-5.67767e-07
-9.30157e-07
1.46617e-06
-7.97846e-07
3.83898e-07
-5.4595e-07
-8.3365e-07
-9.6515e-05
9.64505e-05
-9.20744e-05
-2.90362e-06
9.33606e-05
-7.32641e-07
-2.81205e-06
7.55266e-07
-0.000107958
1.34813e-05
0.000108237
-1.40258e-05
-0.000120626
-1.19814e-05
0.000119075
1.42875e-05
4.61679e-07
1.30811e-05
-1.35801e-05
-1.17238e-05
1.39879e-05
8.96055e-06
-9.68917e-05
9.85089e-05
-0.000126792
0.000123772
8.18912e-06
-1.17542e-06
-0.00011776
-1.21914e-05
0.000116612
1.45148e-05
-0.000108421
1.38705e-05
-7.10842e-07
0.000108537
-1.44507e-05
-9.78212e-07
-1.19696e-05
1.42673e-05
1.35564e-05
-5.93616e-07
-1.41242e-05
-9.99688e-06
-0.000121244
0.000119049
-9.97327e-05
2.92386e-06
0.000100682
-9.43564e-06
2.89809e-06
7.84196e-07
-0.000105242
-8.51834e-07
0.000105556
-9.57139e-07
-0.000104645
-4.67022e-07
2.57012e-07
0.000104764
8.75507e-07
7.28472e-07
-8.01476e-07
-8.62378e-07
-5.52148e-07
2.09231e-07
1.00275e-06
9.78493e-07
-9.45532e-05
9.56467e-05
-9.65761e-05
2.60457e-07
9.68271e-05
9.0395e-07
2.25805e-07
4.2773e-11
-0.000104992
-5.77332e-07
0.000104902
9.2419e-07
-0.000104991
-5.77349e-07
-2.56892e-07
0.000104902
9.24196e-07
3.56503e-11
-7.12049e-07
1.09473e-06
-7.12069e-07
-2.09133e-07
1.09475e-06
4.00532e-11
-9.90588e-05
9.87419e-05
-9.9059e-05
-2.6036e-07
9.8742e-05
3.41673e-11
-2.25718e-07
-7.84118e-07
-0.000104645
-4.67048e-07
0.000104763
8.7563e-07
-0.000105241
-8.51997e-07
7.10485e-07
0.000105555
-9.56494e-07
-7.28394e-07
-5.52193e-07
1.00288e-06
-8.0162e-07
5.93298e-07
-8.61772e-07
-9.7832e-07
-9.65764e-05
9.68273e-05
-9.45531e-05
-2.92374e-06
9.56465e-05
-9.03801e-07
-2.89797e-06
1.175e-06
-0.00010842
1.38685e-05
0.000108535
-1.44486e-05
-0.000117756
-1.21893e-05
0.000116608
1.45122e-05
9.77806e-07
1.35545e-05
-1.41223e-05
-1.1968e-05
1.42651e-05
9.99504e-06
-9.97314e-05
0.000100681
-0.000121238
0.000119043
9.434e-06
-1.44993e-06
-0.000115618
-1.23288e-05
0.000114742
1.4655e-05
-0.000108605
1.41089e-05
-9.17088e-07
0.000108635
-1.46716e-05
-1.31424e-06
-1.2144e-05
1.44514e-05
1.38664e-05
-8.09265e-07
-1.44398e-05
-1.06826e-05
-0.000117182
0.000115536
-0.000101398
2.87025e-06
0.000101954
-1.02764e-05
2.87471e-06
8.31286e-07
-0.000105832
-9.41114e-07
0.000106074
-1.04902e-06
-0.000104911
-4.02143e-07
3.61074e-07
0.000105069
7.14865e-07
8.06642e-07
-8.88115e-07
-1.00361e-06
-4.14824e-07
3.01363e-07
7.72473e-07
1.0715e-06
-9.66123e-05
9.74699e-05
-9.71479e-05
3.11064e-07
9.75062e-05
1.02104e-06
2.85424e-07
5.92213e-11
-0.00010488
-3.70415e-07
0.000104916
6.94844e-07
-0.000104879
-3.70438e-07
-3.60899e-07
0.000104916
6.94833e-07
5.05205e-11
-4.59638e-07
7.83011e-07
-4.59661e-07
-3.01215e-07
7.83008e-07
5.00544e-11
-9.85676e-05
9.85082e-05
-9.85677e-05
-3.10946e-07
9.85083e-05
4.49287e-11
-2.85316e-07
-8.3121e-07
-0.000104911
-4.02128e-07
0.000105068
7.14984e-07
-0.000105831
-9.41291e-07
9.16659e-07
0.000106073
-1.04831e-06
-8.06565e-07
-4.14831e-07
7.72593e-07
-8.88294e-07
8.08873e-07
-1.00294e-06
-1.07129e-06
-9.7148e-05
9.75062e-05
-9.6612e-05
-2.87012e-06
9.74695e-05
-1.02085e-06
-2.87459e-06
1.44948e-06
-0.000108604
1.41066e-05
0.000108634
-1.46693e-05
-0.000115615
-1.23263e-05
0.000114739
1.4652e-05
1.3138e-06
1.38642e-05
-1.44377e-05
-1.2142e-05
1.44488e-05
1.06805e-05
-0.000101396
0.000101952
-0.000117176
0.00011553
1.02744e-05
-1.6316e-06
-0.00011397
-1.23995e-05
0.000113278
1.47233e-05
-0.000108641
1.42342e-05
-1.08882e-06
0.000108622
-1.47578e-05
-1.53485e-06
-1.2244e-05
1.45508e-05
1.40399e-05
-9.97337e-07
-1.4583e-05
-1.11215e-05
-0.000114113
0.000112835
-0.000102369
2.7883e-06
0.000102694
-1.0821e-05
2.80353e-06
8.30814e-07
-0.00010628
-1.02623e-06
0.000106455
-1.06828e-06
-0.00010523
-4.11653e-07
4.24694e-07
0.000105392
6.56373e-07
8.2735e-07
-9.76981e-07
-1.05447e-06
-3.98766e-07
3.95114e-07
6.69359e-07
1.12191e-06
-9.82059e-05
9.8846e-05
-9.78718e-05
3.4367e-07
9.82384e-05
1.09059e-06
3.26213e-07
6.66725e-11
-0.000104988
-2.51501e-07
0.000105084
5.80713e-07
-0.000104988
-2.51511e-07
-4.24517e-07
0.000105083
5.80693e-07
6.1927e-11
-2.975e-07
6.20515e-07
-2.97519e-07
-3.94943e-07
6.20504e-07
5.78583e-11
-9.85369e-05
9.8629e-05
-9.85369e-05
-3.43532e-07
9.8629e-05
5.37201e-11
-3.26085e-07
-8.30745e-07
-0.00010523
-4.11617e-07
0.000105391
6.56469e-07
-0.000106279
-1.02642e-06
1.08833e-06
0.000106454
-1.06752e-06
-8.27279e-07
-3.98746e-07
6.69475e-07
-9.77168e-07
9.96879e-07
-1.05374e-06
-1.12166e-06
-9.78717e-05
9.82382e-05
-9.82054e-05
-2.78817e-06
9.88455e-05
-1.09036e-06
-2.8034e-06
1.63113e-06
-0.000108639
1.42316e-05
0.00010862
-1.47553e-05
-0.000113967
-1.23967e-05
0.000113275
1.47201e-05
1.53439e-06
1.40375e-05
-1.45806e-05
-1.22417e-05
1.45478e-05
1.11191e-05
-0.000102368
0.000102692
-0.000114107
0.000112829
1.08188e-05
-1.75115e-06
-0.000112655
-1.24047e-05
0.000112086
1.47247e-05
-0.000108587
1.42528e-05
-1.22293e-06
0.000108532
-1.47258e-05
-1.68028e-06
-1.22748e-05
1.45779e-05
1.41042e-05
-1.14796e-06
-1.46018e-05
-1.13779e-05
-0.000111714
0.000110687
-0.000102929
2.69642e-06
0.000103107
-1.11539e-05
2.71487e-06
8.03019e-07
-0.000106599
-1.09218e-06
0.000106715
-1.04891e-06
-0.000105543
-4.45952e-07
4.52553e-07
0.000105684
6.56013e-07
8.10739e-07
-1.0521e-06
-1.05077e-06
-4.22747e-07
4.37118e-07
6.44673e-07
1.14039e-06
-9.93859e-05
9.98498e-05
-9.8588e-05
3.61311e-07
9.89211e-05
1.12288e-06
3.50525e-07
7.45305e-11
-0.00010519
-1.99952e-07
0.000105301
5.41055e-07
-0.00010519
-1.99952e-07
-4.52366e-07
0.000105301
5.41026e-07
6.99144e-11
-2.17262e-07
5.4795e-07
-2.17269e-07
-4.36938e-07
5.47927e-07
6.40213e-11
-9.87622e-05
9.89235e-05
-9.87621e-05
-3.61157e-07
9.89234e-05
6.05125e-11
-3.5038e-07
-8.02958e-07
-0.000105543
-4.45892e-07
0.000105683
6.56096e-07
-0.000106599
-1.09238e-06
1.22239e-06
0.000106714
-1.04811e-06
-8.10676e-07
-4.22701e-07
6.44762e-07
-1.0523e-06
1.14745e-06
-1.05e-06
-1.14011e-06
-9.85878e-05
9.89208e-05
-9.93853e-05
-2.69628e-06
9.98491e-05
-1.12261e-06
-2.71473e-06
1.75067e-06
-0.000108586
1.425e-05
0.00010853
-1.47232e-05
-0.000112652
-1.24017e-05
0.000112083
1.47212e-05
1.6798e-06
1.41016e-05
-1.45992e-05
-1.22723e-05
1.45747e-05
1.13753e-05
-0.000102928
0.000103106
-0.000111709
0.000110682
1.11515e-05
-1.82779e-06
-0.000111563
-1.23498e-05
0.000111075
1.46654e-05
-0.000108465
1.41731e-05
-1.32254e-06
0.000108379
-1.45922e-05
-1.7757e-06
-1.22511e-05
1.45504e-05
1.40738e-05
-1.26319e-06
-1.45193e-05
-1.14959e-05
-0.000109772
0.000108918
-0.000103222
2.60225e-06
0.000103297
-1.13363e-05
2.62258e-06
7.62047e-07
-0.000106803
-1.14082e-06
0.000106864
-1.00472e-06
-0.000105807
-4.90943e-07
4.60271e-07
0.000105912
6.87267e-07
7.75505e-07
-1.1082e-06
-1.01872e-06
-4.63133e-07
4.53543e-07
6.61906e-07
1.13692e-06
-0.000100235
0.000100559
-9.92255e-05
3.67495e-07
9.95039e-05
1.12937e-06
3.61925e-07
8.11269e-11
-0.000105408
-1.89152e-07
0.000105508
5.49817e-07
-0.000105408
-1.89145e-07
-4.60073e-07
0.000105508
5.49781e-07
7.70981e-11
-1.88762e-07
5.35215e-07
-1.88762e-07
-4.53352e-07
5.35184e-07
6.89723e-11
-9.90966e-05
9.92749e-05
-9.90965e-05
-3.67329e-07
9.92747e-05
6.59788e-11
-3.61766e-07
-7.61993e-07
-0.000105806
-4.90868e-07
0.000105912
6.87344e-07
-0.000106802
-1.14104e-06
1.32197e-06
0.000106863
-1.00387e-06
-7.75449e-07
-4.63067e-07
6.61985e-07
-1.10841e-06
1.26264e-06
-1.01791e-06
-1.13662e-06
-9.92251e-05
9.95035e-05
-0.000100234
-2.60211e-06
0.000100559
-1.12908e-06
-2.62244e-06
1.82731e-06
-0.000108463
1.41703e-05
0.000108377
-1.45894e-05
-0.00011156
-1.23466e-05
0.000111072
1.46617e-05
1.77521e-06
1.4071e-05
-1.45166e-05
-1.22484e-05
1.4547e-05
1.14931e-05
-0.000103221
0.000103296
-0.000109767
0.000108914
1.13336e-05
-1.87586e-06
-0.000110615
-1.22547e-05
0.000110177
1.45684e-05
-0.000108281
1.40259e-05
-1.39385e-06
0.000108163
-1.43897e-05
-1.83643e-06
-1.21776e-05
1.44742e-05
1.39616e-05
-1.34731e-06
-1.43531e-05
-1.15183e-05
-0.000108145
0.000107408
-0.000103324
2.51141e-06
0.00010332
-1.14042e-05
2.53117e-06
7.16874e-07
-0.0001069
-1.17966e-06
0.000106909
-9.39829e-07
-0.000105996
-5.41248e-07
4.56242e-07
0.000106057
7.41005e-07
7.32245e-07
-1.15089e-06
-9.6478e-07
-5.10857e-07
4.54677e-07
7.04786e-07
1.12022e-06
-0.000100821
0.000101032
-9.9748e-05
3.65967e-07
9.9961e-05
1.11878e-06
3.63902e-07
8.65353e-11
-0.000105593
-2.04516e-07
0.000105662
5.91609e-07
-0.000105593
-2.04505e-07
-4.56036e-07
0.000105662
5.91571e-07
8.29149e-11
-1.92464e-07
5.61868e-07
-1.92459e-07
-4.54477e-07
5.61833e-07
7.31472e-11
-9.94462e-05
9.96076e-05
-9.94461e-05
-3.6579e-07
9.96074e-05
7.04573e-11
-3.63731e-07
-7.16827e-07
-0.000105996
-5.41167e-07
0.000106056
7.41091e-07
-0.000106899
-1.17989e-06
1.39325e-06
0.000106908
-9.38956e-07
-7.32195e-07
-5.10783e-07
7.0487e-07
-1.15112e-06
1.34673e-06
-9.63926e-07
-1.11991e-06
-9.97474e-05
9.99604e-05
-0.00010082
-2.51127e-06
0.000101031
-1.11847e-06
-2.53103e-06
1.87536e-06
-0.00010828
1.40229e-05
0.000108162
-1.43869e-05
-0.000110612
-1.22514e-05
0.000110174
1.45645e-05
1.83594e-06
1.39587e-05
-1.43503e-05
-1.21748e-05
1.44706e-05
1.15153e-05
-0.000103322
0.000103318
-0.000108141
0.000107404
1.14014e-05
-1.90232e-06
-0.000109754
-1.21182e-05
0.000109342
1.4432e-05
-0.000108032
1.38142e-05
-1.44077e-06
0.000107879
-1.41226e-05
-1.87282e-06
-1.20643e-05
1.43602e-05
1.3785e-05
-1.40548e-06
-1.41216e-05
-1.14611e-05
-0.000106731
0.000106074
-0.000103275
2.42354e-06
0.000103205
-1.13865e-05
2.44304e-06
6.71599e-07
-0.000106893
-1.21378e-06
0.000106849
-8.54516e-07
-0.000106093
-5.91788e-07
4.45361e-07
0.000106104
8.07461e-07
6.8717e-07
-1.18666e-06
-8.90257e-07
-5.61416e-07
4.46863e-07
7.65582e-07
1.09491e-06
-0.000101191
0.000101306
-0.000100138
3.5927e-07
0.000100281
1.09763e-06
3.59598e-07
9.10303e-11
-0.00010571
-2.36316e-07
0.000105737
6.55354e-07
-0.00010571
-2.36302e-07
-4.45147e-07
0.000105736
6.55312e-07
8.78882e-11
-2.16793e-07
6.1529e-07
-2.16784e-07
-4.46655e-07
6.15253e-07
7.67581e-11
-9.97503e-05
9.98732e-05
-9.97501e-05
-3.59085e-07
9.9873e-05
7.431e-11
-3.59419e-07
-6.71556e-07
-0.000106093
-5.91701e-07
0.000106103
8.07546e-07
-0.000106892
-1.21401e-06
1.44015e-06
0.000106848
-8.53638e-07
-6.87126e-07
-5.61336e-07
7.65673e-07
-1.1869e-06
1.40487e-06
-8.89389e-07
-1.09459e-06
-0.000100137
0.000100281
-0.00010119
-2.42339e-06
0.000101305
-1.09731e-06
-2.4429e-06
1.90183e-06
-0.000108031
1.38111e-05
0.000107878
-1.41197e-05
-0.000109751
-1.21148e-05
0.00010934
1.4428e-05
1.87233e-06
1.37819e-05
-1.41188e-05
-1.20613e-05
1.43565e-05
1.14581e-05
-0.000103274
0.000103203
-0.000106727
0.00010607
1.13836e-05
-1.91528e-06
-0.000108935
-1.19665e-05
0.000108531
1.42854e-05
-0.000107712
1.35684e-05
-1.46971e-06
0.000107518
-1.38208e-05
-1.89093e-06
-1.19148e-05
1.42128e-05
1.35509e-05
-1.44184e-06
-1.38327e-05
-1.13569e-05
-0.000105459
0.000104849
-0.000103097
2.34213e-06
0.000102967
-1.13001e-05
2.35824e-06
6.29866e-07
-0.00010678
-1.24698e-06
0.000106682
-7.5427e-07
-0.000106088
-6.42778e-07
4.31207e-07
0.000106043
8.85819e-07
6.43607e-07
-1.2194e-06
-7.97566e-07
-6.11206e-07
4.34016e-07
8.36704e-07
1.06616e-06
-0.000101375
0.000101404
-0.000100389
3.49829e-07
0.000100463
1.07005e-06
3.51271e-07
9.49244e-11
-0.000105738
-2.79257e-07
0.000105712
7.35875e-07
-0.000105738
-2.79241e-07
-4.30989e-07
0.000105712
7.35831e-07
9.20641e-11
-2.54185e-07
6.86926e-07
-2.54173e-07
-4.33803e-07
6.86886e-07
8.0124e-11
-9.99702e-05
0.000100041
-9.997e-05
-3.49637e-07
0.00010004
7.76838e-11
-3.51085e-07
-6.29826e-07
-0.000106087
-6.42687e-07
0.000106043
8.85904e-07
-0.00010678
-1.24723e-06
1.46909e-06
0.000106681
-7.53384e-07
-6.43567e-07
-6.11119e-07
8.3679e-07
-1.21964e-06
1.44123e-06
-7.96691e-07
-1.06583e-06
-0.000100388
0.000100462
-0.000101374
-2.34197e-06
0.000101403
-1.06972e-06
-2.35809e-06
1.9148e-06
-0.000107711
1.35653e-05
0.000107517
-1.38178e-05
-0.000108933
-1.19629e-05
0.00010853
1.42813e-05
1.89044e-06
1.35478e-05
-1.38297e-05
-1.19116e-05
1.42089e-05
1.13538e-05
-0.000103096
0.000102966
-0.000105456
0.000104846
1.1297e-05
-1.91574e-06
-0.000108124
-1.17849e-05
0.000107712
1.41129e-05
-0.000107309
1.32746e-05
-1.48178e-06
0.000107071
-1.34703e-05
-1.89718e-06
-1.17497e-05
1.40544e-05
1.32831e-05
-1.46169e-06
-1.3509e-05
-1.12014e-05
-0.00010427
0.000103686
-0.000102802
2.26136e-06
0.000102614
-1.11701e-05
2.27729e-06
5.91906e-07
-0.000106558
-1.27832e-06
0.000106402
-6.39241e-07
-0.00010597
-6.95678e-07
4.14732e-07
0.000105866
9.77218e-07
6.04038e-07
-1.25096e-06
-6.91005e-07
-6.62211e-07
4.18678e-07
9.20419e-07
1.03417e-06
-0.00010139
0.000101339
-0.000100499
3.38238e-07
0.0001005
1.03979e-06
3.40796e-07
9.98007e-11
-0.000105659
-3.29728e-07
0.000105575
8.28144e-07
-0.000105658
-3.29714e-07
-4.14508e-07
0.000105575
8.28099e-07
9.53713e-11
-3.00709e-07
7.73008e-07
-3.00695e-07
-4.1846e-07
7.72964e-07
8.49275e-11
-0.000100081
0.000100089
-0.00010008
-3.38037e-07
0.000100089
8.12654e-11
-3.40603e-07
-5.91876e-07
-0.00010597
-6.956e-07
0.000105866
9.77322e-07
-0.000106557
-1.27858e-06
1.48114e-06
0.000106401
-6.38335e-07
-6.04004e-07
-6.62127e-07
9.20513e-07
-1.25122e-06
1.46107e-06
-6.90121e-07
-1.03383e-06
-0.000100498
0.000100499
-0.000101389
-2.2612e-06
0.000101338
-1.03945e-06
-2.27712e-06
1.9153e-06
-0.000107308
1.32714e-05
0.00010707
-1.34673e-05
-0.000108122
-1.17812e-05
0.00010771
1.41087e-05
1.89672e-06
1.32799e-05
-1.35061e-05
-1.17464e-05
1.40505e-05
1.11983e-05
-0.000102801
0.000102613
-0.000104267
0.000103684
1.1167e-05
-1.90769e-06
-0.000107289
-1.1599e-05
0.000106854
1.39413e-05
-0.000106814
1.29603e-05
-1.48287e-06
0.000106524
-1.30957e-05
-1.89268e-06
-1.15652e-05
1.38807e-05
1.29781e-05
-1.4675e-06
-1.31466e-05
-1.10187e-05
-0.00010312
0.00010254
-0.00010239
2.1896e-06
0.000102142
-1.09993e-05
2.20278e-06
5.59093e-07
-0.00010622
-1.31404e-06
0.000106004
-5.11096e-07
-0.000105731
-7.52354e-07
3.97982e-07
0.000105562
1.08304e-06
5.69007e-07
-1.28461e-06
-5.70251e-07
-7.1602e-07
4.01982e-07
1.01791e-06
1.00383e-06
-0.000101249
0.000101121
-0.000100463
3.26249e-07
0.000100388
1.0083e-06
3.28694e-07
1.11995e-10
-0.00010546
-3.85967e-07
0.000105311
9.32651e-07
-0.00010546
-3.85956e-07
-3.9774e-07
0.000105311
9.32609e-07
1.03943e-10
-3.53075e-07
8.69724e-07
-3.53065e-07
-4.01754e-07
8.69683e-07
9.68345e-11
-0.000100065
0.000100005
-0.000100064
-3.2603e-07
0.000100005
8.88869e-11
-3.28488e-07
-5.59079e-07
-0.000105731
-7.5229e-07
0.000105561
1.08316e-06
-0.00010622
-1.31431e-06
1.48218e-06
0.000106003
-5.10195e-07
-5.68987e-07
-7.15955e-07
1.01803e-06
-1.2849e-06
1.46685e-06
-5.69346e-07
-1.00349e-06
-0.000100462
0.000100387
-0.000101248
-2.18944e-06
0.000101119
-1.00797e-06
-2.20261e-06
1.90739e-06
-0.000106813
1.29569e-05
0.000106524
-1.30928e-05
-0.000107287
-1.15953e-05
0.000106853
1.39374e-05
1.89229e-06
1.29748e-05
-1.31436e-05
-1.15619e-05
1.38768e-05
1.10156e-05
-0.000102389
0.000102141
-0.000103118
0.000102539
1.09961e-05
-1.89318e-06
-0.000106403
-1.13983e-05
0.000105934
1.37601e-05
-0.000106214
1.26165e-05
-1.47313e-06
0.000105866
-1.26889e-05
-1.88169e-06
-1.13755e-05
1.37087e-05
1.26552e-05
-1.46322e-06
-1.27628e-05
-1.08087e-05
-0.000101971
0.000101381
-0.000101859
2.11911e-06
0.000101548
-1.08063e-05
2.13214e-06
5.30549e-07
-0.000105758
-1.34844e-06
0.000105473
-3.70359e-07
-0.00010536
-8.13173e-07
3.81324e-07
0.000105119
1.20273e-06
5.38636e-07
-1.31846e-06
-4.37421e-07
-7.74562e-07
3.85498e-07
1.12961e-06
9.73671e-07
-0.000100956
0.000100753
-0.000100276
3.14297e-07
0.000100122
9.78831e-07
3.17152e-07
1.09579e-10
-0.000105129
-4.49372e-07
0.00010491
1.05038e-06
-0.000105129
-4.49352e-07
-3.81065e-07
0.000104909
1.05032e-06
1.16795e-10
-4.12922e-07
9.80058e-07
-4.12913e-07
-3.85237e-07
9.80015e-07
9.69425e-11
-9.9909e-05
9.97738e-05
-9.99086e-05
-3.14066e-07
9.97734e-05
1.00701e-10
-3.16922e-07
-5.30477e-07
-0.000105359
-8.13071e-07
0.000105119
1.20283e-06
-0.000105757
-1.34873e-06
1.47247e-06
0.000105472
-3.69307e-07
-5.38594e-07
-7.74493e-07
1.12973e-06
-1.31874e-06
1.46253e-06
-4.36465e-07
-9.73285e-07
-0.000100274
0.000100121
-0.000100954
-2.11891e-06
0.000100751
-9.78478e-07
-2.13198e-06
1.89249e-06
-0.000106213
1.26127e-05
0.000105866
-1.26851e-05
-0.000106401
-1.13942e-05
0.000105932
1.37553e-05
1.88121e-06
1.26517e-05
-1.27597e-05
-1.13722e-05
1.37049e-05
1.08052e-05
-0.000101858
0.000101547
-0.00010197
0.000101381
1.0803e-05
-1.87325e-06
-0.000105444
-1.11978e-05
0.000104931
1.35841e-05
-0.000105494
1.22596e-05
-1.45746e-06
0.000105081
-1.22626e-05
-1.86483e-06
-1.11783e-05
1.35333e-05
1.23103e-05
-1.45063e-06
-1.23523e-05
-1.05863e-05
-0.000100797
0.000100186
-0.000101199
2.05381e-06
0.000100818
-1.05939e-05
2.06537e-06
5.07317e-07
-0.000105158
-1.38812e-06
0.000104803
-2.21625e-07
-0.000104845
-8.78969e-07
3.65318e-07
0.000104529
1.33703e-06
5.13147e-07
-1.35579e-06
-2.92841e-07
-8.37643e-07
3.69398e-07
1.25602e-06
9.4427e-07
-0.000100513
0.000100234
-9.99283e-05
3.02529e-07
9.96911e-05
9.49555e-07
3.05337e-07
5.77169e-11
-0.000104654
-5.19591e-07
0.000104357
1.18181e-06
-0.000104654
-5.19566e-07
-3.65177e-07
0.000104357
1.18173e-06
8.00695e-11
-4.79149e-07
1.10375e-06
-4.79124e-07
-3.69198e-07
1.10368e-06
7.2938e-11
-9.95999e-05
9.93828e-05
-9.95995e-05
-3.02341e-07
9.93824e-05
8.14401e-11
-3.05133e-07
-5.07428e-07
-0.000104844
-8.7883e-07
0.000104528
1.33705e-06
-0.000105157
-1.38836e-06
1.45692e-06
0.000104802
-2.21261e-07
-5.13139e-07
-8.37509e-07
1.25605e-06
-1.35605e-06
1.45e-06
-2.91961e-07
-9.43883e-07
-9.99271e-05
9.96898e-05
-0.000100511
-2.05353e-06
0.000100232
-9.4917e-07
-2.06513e-06
1.87348e-06
-0.000105493
1.22556e-05
0.000105081
-1.22595e-05
-0.000105442
-1.11934e-05
0.000104929
1.35799e-05
1.8648e-06
1.23065e-05
-1.23492e-05
-1.11746e-05
1.35295e-05
1.05829e-05
-0.000101197
0.000100816
-0.000100797
0.000100186
1.05906e-05
-1.84958e-06
-0.000104391
-1.09966e-05
0.000103822
1.34152e-05
-0.000104642
1.18858e-05
-1.43356e-06
0.000104156
-1.18166e-05
-1.84288e-06
-1.09766e-05
1.33593e-05
1.19455e-05
-1.43166e-06
-1.19175e-05
-1.03489e-05
-9.95726e-05
9.89249e-05
-0.000100398
1.99245e-06
9.99423e-05
-1.03637e-05
2.00212e-06
4.8661e-07
-0.000104421
-1.43974e-06
0.000103989
-4.85659e-08
-0.000104177
-9.46519e-07
3.50474e-07
0.00010378
1.48011e-06
4.92271e-07
-1.39823e-06
-1.43679e-07
-9.03605e-07
3.53927e-07
1.39366e-06
9.14009e-07
-9.99178e-05
9.95565e-05
-9.94137e-05
2.91213e-07
9.909e-05
9.20055e-07
2.9383e-07
1.14112e-10
-0.000104023
-5.94401e-07
0.000103643
1.32482e-06
-0.000104023
-5.944e-07
-3.50195e-07
0.000103643
1.32476e-06
8.29475e-11
-5.50976e-07
1.23939e-06
-5.50977e-07
-3.53715e-07
1.23933e-06
1.06826e-10
-9.91256e-05
9.88223e-05
-9.91251e-05
-2.90954e-07
9.88218e-05
8.7424e-11
-2.93609e-07
-4.86487e-07
-0.000104177
-9.46457e-07
0.000103779
1.48016e-06
-0.00010442
-1.44021e-06
1.43286e-06
0.000103988
-4.7356e-08
-4.92213e-07
-9.03562e-07
1.39373e-06
-1.39881e-06
1.43104e-06
-1.42398e-07
-9.13543e-07
-9.94123e-05
9.90884e-05
-9.99154e-05
-1.99218e-06
9.95539e-05
-9.19622e-07
-2.00185e-06
1.84886e-06
-0.000104642
1.18814e-05
0.000104157
-1.18126e-05
-0.00010439
-1.09923e-05
0.00010382
1.34104e-05
1.84249e-06
1.19409e-05
-1.19132e-05
-1.0972e-05
1.33543e-05
1.0345e-05
-0.000100396
9.99398e-05
-9.9574e-05
9.89267e-05
1.036e-05
-1.824e-06
-0.00010322
-1.081e-05
0.000102581
1.32731e-05
-0.000103641
1.15092e-05
-1.40098e-06
0.000103076
-1.13671e-05
-1.81897e-06
-1.07876e-05
1.32086e-05
1.15777e-05
-1.40344e-06
-1.14776e-05
-1.01082e-05
-9.82672e-05
9.75655e-05
-9.9445e-05
1.93701e-06
9.89089e-05
-1.013e-05
1.94503e-06
4.66593e-07
-0.000103522
-1.50466e-06
0.000103015
1.44309e-07
-0.000103344
-1.01785e-06
3.37001e-07
0.000102858
1.63261e-06
4.71793e-07
-1.45707e-06
4.82349e-08
-9.72333e-07
3.40077e-07
1.54007e-06
8.83017e-07
-9.91546e-05
9.87039e-05
-9.87245e-05
2.80557e-07
9.83091e-05
8.89936e-07
2.8305e-07
1.05053e-10
-0.000103223
-6.74945e-07
0.000102753
1.4817e-06
-0.000103223
-6.74855e-07
-3.36737e-07
0.000102753
1.48157e-06
1.14402e-10
-6.27944e-07
1.38804e-06
-6.27902e-07
-3.39798e-07
1.38795e-06
1.13912e-10
-9.84772e-05
9.80827e-05
-9.84768e-05
-2.80297e-07
9.80823e-05
1.12767e-10
-2.82784e-07
-4.66435e-07
-0.000103343
-1.01743e-06
0.000102858
1.63233e-06
-0.000103522
-1.50423e-06
1.40064e-06
0.000103015
1.44424e-07
-4.71642e-07
-9.72103e-07
1.53994e-06
-1.45709e-06
1.40296e-06
4.87934e-08
-8.82564e-07
-9.8723e-05
9.83078e-05
-9.9152e-05
-1.93663e-06
9.87018e-05
-8.89466e-07
-1.94469e-06
1.82346e-06
-0.000103641
1.15052e-05
0.000103075
-1.13622e-05
-0.000103218
-1.08073e-05
0.000102579
1.32698e-05
1.8183e-06
1.15734e-05
-1.14731e-05
-1.07845e-05
1.3205e-05
1.01041e-05
-9.94426e-05
9.89071e-05
-9.82681e-05
9.75648e-05
1.01259e-05
-1.79464e-06
-0.000101903
-1.06364e-05
0.000101181
1.31523e-05
-0.000102476
1.11271e-05
-1.35823e-06
0.000101819
-1.09069e-05
-1.79119e-06
-1.06064e-05
1.30759e-05
1.11989e-05
-1.36533e-06
-1.10249e-05
-9.86178e-06
-9.68449e-05
9.60703e-05
-9.83301e-05
1.88592e-06
9.77095e-05
-9.88586e-06
1.8919e-06
4.43596e-07
-0.000102456
-1.59431e-06
0.000101838
4.10653e-07
-0.000102331
-1.0936e-06
3.2511e-07
0.000101747
1.79537e-06
4.50207e-07
-1.53619e-06
2.79683e-07
-1.04474e-06
3.27532e-07
1.69513e-06
8.51111e-07
-9.82012e-05
9.76417e-05
-9.78501e-05
2.70425e-07
9.73372e-05
8.58396e-07
2.72689e-07
1.27238e-10
-0.00010224
-7.61496e-07
0.000101673
1.65356e-06
-0.00010224
-7.61462e-07
-3.24794e-07
0.000101673
1.65347e-06
1.10784e-10
-7.10269e-07
1.55021e-06
-7.10198e-07
-3.27256e-07
1.55011e-06
1.18537e-10
-9.7645e-05
9.71539e-05
-9.76447e-05
-2.70165e-07
9.71535e-05
1.16629e-10
-2.72435e-07
-4.43384e-07
-0.00010233
-1.09345e-06
0.000101747
1.79541e-06
-0.000102456
-1.5947e-06
1.35719e-06
0.000101837
4.1251e-07
-4.50042e-07
-1.04441e-06
1.69499e-06
-1.53607e-06
1.36455e-06
2.80677e-07
-8.50688e-07
-9.78489e-05
9.7336e-05
-9.81994e-05
-1.88571e-06
9.76397e-05
-8.57974e-07
-1.89163e-06
1.79306e-06
-0.000102475
1.11215e-05
0.000101819
-1.09008e-05
-0.000101901
-1.06308e-05
0.000101181
1.31446e-05
1.79025e-06
1.11942e-05
-1.10199e-05
-1.06028e-05
1.3071e-05
9.85691e-06
-9.83283e-05
9.77071e-05
-9.68434e-05
9.60695e-05
9.88142e-06
-1.76221e-06
-0.000100417
-1.04662e-05
9.96038e-05
1.30417e-05
-0.000101124
1.07337e-05
-1.31448e-06
0.000100369
-1.04255e-05
-1.76046e-06
-1.04365e-05
1.29612e-05
1.08149e-05
-1.322e-06
-1.05586e-05
-9.61155e-06
-9.52737e-05
9.4419e-05
-9.70415e-05
1.83766e-06
9.6326e-05
-9.63988e-06
1.84292e-06
4.24891e-07
-0.000101177
-1.67623e-06
0.000100458
6.56069e-07
-0.000101119
-1.1768e-06
3.13176e-07
0.000100431
1.97663e-06
4.29218e-07
-1.62089e-06
5.30371e-07
-1.12317e-06
3.15809e-07
1.86482e-06
8.20734e-07
-9.70364e-05
9.63771e-05
-9.67785e-05
2.6076e-07