/*--------------------------------*- C++ -*----------------------------------*\
  =========                 |
  \\      /  F ield         | OpenFOAM: The Open Source CFD Toolbox
   \\    /   O peration     | Website:  https://openfoam.org
    \\  /    A nd           | Version:  9
     \\/     M anipulation  |
\*---------------------------------------------------------------------------*/
FoamFile
{
    format      ascii;
    class       volVectorField;
    location    "2";
    object      U;
}
// * * * * * * * * * * * * * * * * * * * * * * * * * * * * * * * * * * * * * //

dimensions      [0 1 -1 0 0 0 0];

internalField   nonuniform List<vector> 
36360
(
(0.00584538 -0.278896 -0.976848)
(-0.00868996 -0.167104 0.000856854)
(-0.00642626 -0.288338 -0.999117)
(-0.00405828 -0.13658 0.000263309)
(0.00755859 -0.311681 -0.990342)
(0.0134499 -0.134906 -0.000100603)
(-0.00103206 -0.309022 -1.00312)
(0.0271691 -0.153554 0.000105687)
(0.00303353 -0.184384 -0.000643405)
(-0.00502881 -0.195614 -3.2166e-05)
(-0.00267582 -0.181281 -0.000248882)
(-0.00732926 -0.193394 -1.43184e-05)
(0.0179792 -0.199427 7.61456e-05)
(0.0108219 -0.215522 3.19949e-07)
(0.0176297 -0.210658 -8.47835e-05)
(0.0135467 -0.218498 -2.87911e-05)
(-0.00768762 -0.200398 1.31066e-06)
(-0.00768766 -0.200399 -1.29935e-06)
(-0.00720568 -0.197911 8.67831e-07)
(-0.00720572 -0.197911 -8.64886e-07)
(0.0100626 -0.216381 -2.36654e-06)
(0.0100626 -0.216381 2.38048e-06)
(0.0131539 -0.219009 -2.45063e-06)
(0.0131539 -0.219009 2.45435e-06)
(-0.0050288 -0.195615 3.21803e-05)
(0.00303336 -0.184385 0.000643418)
(-0.00732928 -0.193395 1.43223e-05)
(-0.00267576 -0.181282 0.000248896)
(0.0108218 -0.215523 -3.03569e-07)
(0.0179788 -0.199428 -7.61382e-05)
(0.0135466 -0.218499 2.87955e-05)
(0.0176295 -0.210659 8.47797e-05)
(-0.00868988 -0.167103 -0.000856897)
(0.0058465 -0.278889 0.976849)
(-0.00405896 -0.13658 -0.00026331)
(-0.00642472 -0.288332 0.999117)
(0.013449 -0.134906 0.000100542)
(0.00755939 -0.311672 0.990343)
(0.0271677 -0.153552 -0.00010569)
(-0.00103134 -0.309015 1.00312)
(0.0188217 -0.256791 -0.956534)
(-0.01942 -0.191005 0.000924973)
(0.0131448 -0.264874 -0.966637)
(-0.0151425 -0.182174 0.0010697)
(0.0157265 -0.291837 -0.992913)
(-0.014067 -0.147359 -0.000815404)
(0.0117108 -0.305226 -0.99138)
(-0.00363193 -0.137886 -0.000404817)
(0.00366578 -0.192661 -0.000453708)
(0.00401484 -0.199733 -2.75558e-05)
(0.00494932 -0.189382 -0.000625506)
(0.00116417 -0.198111 -3.18175e-05)
(0.0128277 -0.173273 0.00079647)
(0.0100394 -0.201253 7.08538e-05)
(0.0183209 -0.181459 0.000380632)
(0.0105471 -0.208962 3.12706e-05)
(0.00118239 -0.204151 3.51659e-06)
(0.00118238 -0.204152 -3.46781e-06)
(-0.00454988 -0.203098 2.87522e-06)
(-0.00454978 -0.203098 -2.85034e-06)
(0.00699891 -0.210834 3.90833e-07)
(0.00699879 -0.210834 -3.49242e-07)
(0.00788618 -0.213503 -1.39056e-06)
(0.00788606 -0.213503 1.4167e-06)
(0.00401475 -0.199734 2.76101e-05)
(0.00366593 -0.192661 0.000453714)
(0.00116407 -0.198112 3.18479e-05)
(0.00494927 -0.189382 0.000625513)
(0.010039 -0.201254 -7.08015e-05)
(0.0128274 -0.173274 -0.000796428)
(0.0105469 -0.208963 -3.12384e-05)
(0.0183205 -0.181461 -0.00038061)
(-0.0194189 -0.191002 -0.000925091)
(0.0188216 -0.256784 0.956535)
(-0.0151418 -0.182172 -0.00106977)
(0.0131454 -0.264866 0.966638)
(-0.0140663 -0.147358 0.000815206)
(0.0157261 -0.291826 0.992913)
(-0.00363169 -0.137886 0.000404694)
(0.0117111 -0.305216 0.991381)
(0.0240633 -0.244008 -0.941654)
(-0.0234114 -0.20013 0.000355419)
(0.0221329 -0.250004 -0.948369)
(-0.0218352 -0.19661 0.00065663)
(0.0204295 -0.269728 -0.98956)
(-0.0231453 -0.164836 -0.00190673)
(0.0186247 -0.280447 -0.991039)
(-0.0198106 -0.15633 -0.00134273)
(0.000857375 -0.19565 -0.000105312)
(0.00398326 -0.199936 8.13363e-05)
(0.00208558 -0.19452 -0.000264236)
(0.00445432 -0.200175 3.03307e-06)
(0.00574433 -0.16856 0.00162575)
(0.00518544 -0.189608 0.000266963)
(0.00819092 -0.169467 0.00123525)
(0.00760077 -0.19446 0.000150995)
(0.00385069 -0.203434 3.64845e-06)
(0.00385069 -0.203434 -3.58662e-06)
(0.00352456 -0.204087 -2.22839e-06)
(0.00352448 -0.204088 2.31999e-06)
(0.00501407 -0.200389 1.33203e-05)
(0.005014 -0.200389 -1.32495e-05)
(0.00650983 -0.205754 2.68071e-06)
(0.00650973 -0.205755 -2.62081e-06)
(0.00398335 -0.199937 -8.12735e-05)
(0.000857855 -0.19565 0.000105298)
(0.00445445 -0.200176 -2.94156e-06)
(0.00208598 -0.194519 0.000264213)
(0.0051854 -0.189609 -0.000266891)
(0.00574444 -0.168561 -0.00162567)
(0.00760057 -0.194461 -0.000150922)
(0.00819094 -0.169469 -0.00123519)
(-0.0234096 -0.200127 -0.000355626)
(0.0240623 -0.244001 0.941658)
(-0.0218337 -0.196608 -0.00065681)
(0.0221326 -0.249997 0.948372)
(-0.0231435 -0.164834 0.00190634)
(0.020428 -0.269717 0.989561)
(-0.0198091 -0.156329 0.00134243)
(0.018624 -0.280436 0.99104)
(0.026189 -0.234498 -0.929902)
(-0.0254811 -0.203818 -0.000228045)
(0.025296 -0.23887 -0.935303)
(-0.0245497 -0.202363 5.31206e-05)
(0.0223337 -0.251335 -0.987055)
(-0.0267511 -0.177772 -0.0029828)
(0.0215189 -0.259912 -0.988211)
(-0.0252024 -0.172021 -0.00246052)
(-0.000780993 -0.197478 6.88893e-05)
(0.00249399 -0.199004 0.00029119)
(-6.62355e-05 -0.196596 4.16727e-06)
(0.00320175 -0.199431 0.000187631)
(0.00417601 -0.171411 0.00220195)
(0.00244748 -0.184568 0.000545123)
(0.00454033 -0.169464 0.00194731)
(0.00352189 -0.186441 0.000403805)
(0.00280272 -0.201494 5.91958e-05)
(0.00280275 -0.201494 -5.91197e-05)
(0.00339997 -0.202493 2.69828e-05)
(0.00339999 -0.202493 -2.69176e-05)
(0.00255742 -0.193386 6.44969e-05)
(0.00255741 -0.193387 -6.44223e-05)
(0.00352875 -0.196328 3.47839e-05)
(0.00352873 -0.196329 -3.47178e-05)
(0.00249419 -0.199004 -0.000291115)
(-0.000780173 -0.197477 -6.89438e-05)
(0.00320192 -0.199431 -0.000187574)
(-6.55839e-05 -0.196595 -4.20003e-06)
(0.00244755 -0.184569 -0.000545005)
(0.00417583 -0.171411 -0.00220182)
(0.00352196 -0.186443 -0.000403706)
(0.00454057 -0.169465 -0.00194719)
(-0.0254787 -0.203816 0.000227751)
(0.0261869 -0.23449 0.92991)
(-0.0245475 -0.20236 -5.33617e-05)
(0.0252947 -0.238863 0.935309)
(-0.0267483 -0.17777 0.00298217)
(0.0223311 -0.251323 0.987056)
(-0.0252 -0.172019 0.00246001)
(0.0215172 -0.2599 0.988213)
(0.0275247 -0.227619 -0.92009)
(-0.0269755 -0.205426 -0.000725753)
(0.0268977 -0.23078 -0.924554)
(-0.0262766 -0.204783 -0.000488191)
(0.0235184 -0.237861 -0.984983)
(-0.0290847 -0.185739 -0.00390134)
(0.022948 -0.244035 -0.985938)
(-0.0279854 -0.182267 -0.00346387)
(-0.00159376 -0.198978 9.67359e-05)
(0.00157427 -0.198665 0.000474879)
(-0.00127805 -0.198258 9.66119e-05)
(0.00195606 -0.198745 0.00038802)
(0.00437995 -0.176226 0.00254269)
(0.00132944 -0.183248 0.000803426)
(0.00422241 -0.173777 0.00239676)
(0.0017663 -0.183596 0.000680321)
(0.00187366 -0.200027 0.000130643)
(0.00187369 -0.200027 -0.000130535)
(0.00228537 -0.200655 9.49771e-05)
(0.0022854 -0.200655 -9.48896e-05)
(0.00150932 -0.189695 0.000135149)
(0.00150934 -0.189695 -0.000135036)
(0.00193743 -0.19125 9.90138e-05)
(0.00193744 -0.19125 -9.89315e-05)
(0.00157443 -0.198665 -0.000474775)
(-0.00159281 -0.198977 -9.68362e-05)
(0.00195627 -0.198745 -0.000387935)
(-0.00127712 -0.198256 -9.6689e-05)
(0.00132944 -0.183249 -0.000803244)
(0.00437967 -0.176226 -0.00254252)
(0.00176636 -0.183597 -0.000680223)
(0.00422216 -0.173778 -0.00239658)
(-0.0269726 -0.205423 0.000725367)
(0.0275215 -0.227612 0.920101)
(-0.0262738 -0.20478 0.000487849)
(0.0268953 -0.230773 0.924563)
(-0.029081 -0.185737 0.00390045)
(0.0235147 -0.237849 0.984985)
(-0.0279819 -0.182265 0.00346313)
(0.0229454 -0.244023 0.98594)
(0.0285943 -0.222585 -0.911877)
(-0.0281264 -0.206129 -0.00112837)
(0.0280765 -0.224917 -0.915546)
(-0.0275848 -0.205853 -0.000938794)
(0.0245145 -0.228169 -0.983241)
(-0.0308899 -0.190451 -0.00464542)
(0.0240106 -0.232632 -0.984034)
(-0.0300168 -0.188406 -0.00429408)
(-0.00190363 -0.200273 4.73471e-05)
(0.00115388 -0.198924 0.000608611)
(-0.00178521 -0.199652 7.81753e-05)
(0.00131933 -0.198738 0.000548656)
(0.0047442 -0.180745 0.00272505)
(0.000897921 -0.183711 0.00100216)
(0.00456416 -0.178578 0.00264897)
(0.0010563 -0.183338 0.000910858)
(0.00130534 -0.199365 0.000191947)
(0.00130534 -0.199365 -0.000191807)
(0.0015519 -0.199607 0.000163451)
(0.00155192 -0.199607 -0.000163327)
(0.000926992 -0.187849 0.000202277)
(0.000927026 -0.187849 -0.000202125)
(0.00118597 -0.188591 0.000170174)
(0.001186 -0.188592 -0.000170041)
(0.001154 -0.198923 -0.000608487)
(-0.00190255 -0.200272 -4.74883e-05)
(0.00131948 -0.198738 -0.000548541)
(-0.00178418 -0.19965 -7.82968e-05)
(0.000897851 -0.183712 -0.00100194)
(0.00474387 -0.180745 -0.00272484)
(0.00105628 -0.183338 -0.000910659)
(0.00456391 -0.178578 -0.00264878)
(-0.0281228 -0.206127 0.00112791)
(0.0285901 -0.222578 0.911891)
(-0.0275815 -0.20585 0.000938366)
(0.0280732 -0.22491 0.915558)
(-0.0308853 -0.190448 0.00464429)
(0.0245098 -0.228157 0.983244)
(-0.0300125 -0.188403 0.00429307)
(0.024007 -0.23262 0.984037)
(0.0295009 -0.218797 -0.905017)
(-0.0290162 -0.20639 -0.00144351)
(0.0290613 -0.220564 -0.908026)
(-0.028597 -0.206299 -0.00129554)
(0.0253519 -0.221014 -0.981789)
(-0.0323255 -0.193216 -0.00523375)
(0.0249259 -0.224336 -0.982441)
(-0.0316258 -0.192017 -0.00495712)
(-0.00200925 -0.201324 -3.26896e-05)
(0.00100049 -0.199477 0.00068866)
(-0.00197179 -0.200833 9.33396e-06)
(0.00105378 -0.199183 0.000654558)
(0.0051193 -0.184421 0.00281165)
(0.000830276 -0.184922 0.00113811)
(0.00493713 -0.182694 0.0027772)
(0.000828265 -0.184268 0.00107743)
(0.000982221 -0.199287 0.000232536)
(0.000982201 -0.199287 -0.000232367)
(0.00111983 -0.199267 0.000214957)
(0.00111983 -0.199267 -0.000214803)
(0.000514295 -0.187189 0.000254194)
(0.000514362 -0.187189 -0.000254008)
(0.000709245 -0.187399 0.000230366)
(0.000709299 -0.187399 -0.000230197)
(0.00100058 -0.199477 -0.000688522)
(-0.00200805 -0.201323 3.25079e-05)
(0.00105389 -0.199182 -0.000654428)
(-0.00197064 -0.200831 -9.4966e-06)
(0.000830077 -0.184922 -0.00113784)
(0.00511886 -0.184421 -0.00281141)
(0.00082814 -0.184268 -0.00107719)
(0.00493677 -0.182694 -0.00277697)
(-0.029012 -0.206387 0.00144298)
(0.0294959 -0.218791 0.905035)
(-0.0285931 -0.206296 0.00129504)
(0.0290571 -0.220557 0.908042)
(-0.0323201 -0.193213 0.0052324)
(0.0253463 -0.221004 0.981792)
(-0.0316207 -0.192015 0.00495588)
(0.0249215 -0.224325 0.982444)
(0.0302515 -0.215856 -0.899293)
(-0.0297089 -0.206407 -0.0016887)
(0.0298886 -0.21724 -0.901731)
(-0.0293816 -0.206421 -0.00157347)
(0.0260286 -0.215557 -0.980583)
(-0.0334573 -0.194827 -0.00569289)
(0.0256799 -0.218114 -0.981112)
(-0.0328993 -0.19413 -0.0054774)
(-0.00200515 -0.202111 -0.000122141)
(0.00099052 -0.200094 0.0007299)
(-0.00201512 -0.201749 -7.69449e-05)
(0.000983245 -0.199784 0.000713063)
(0.00544304 -0.187232 0.00284194)
(0.000910498 -0.186314 0.00122237)
(0.00529369 -0.185929 0.00283189)
(0.000865129 -0.185614 0.0011857)
(0.000824555 -0.199561 0.000258386)
(0.000824511 -0.199561 -0.000258191)
(0.000886179 -0.199397 0.000246895)
(0.000886155 -0.199397 -0.000246712)
(0.000241073 -0.187294 0.000290122)
(0.00024112 -0.187294 -0.000289904)
(0.000357605 -0.18717 0.000273989)
(0.000357667 -0.18717 -0.000273786)
(0.000990568 -0.200093 -0.00072975)
(-0.00200384 -0.20211 0.000121921)
(0.000983323 -0.199784 -0.000712919)
(-0.00201386 -0.201748 7.67421e-05)
(0.000910242 -0.186313 -0.00122207)
(0.00544252 -0.187231 -0.00284167)
(0.000864914 -0.185614 -0.00118542)
(0.00529323 -0.185928 -0.00283164)
(-0.0297042 -0.206404 0.00168812)
(0.0302458 -0.21585 0.899314)
(-0.0293771 -0.206418 0.00157291)
(0.0298836 -0.217234 0.90175)
(-0.0334511 -0.194824 0.00569134)
(0.0260223 -0.215547 0.980587)
(-0.0328933 -0.194128 0.00547595)
(0.0256747 -0.218103 0.981116)
(0.0308625 -0.213485 -0.894498)
(-0.0302214 -0.20627 -0.00187954)
(0.0305656 -0.214613 -0.89646)
(-0.0299826 -0.206355 -0.00178962)
(0.026552 -0.211254 -0.979582)
(-0.0343071 -0.195748 -0.00604813)
(0.0262742 -0.213288 -0.980008)
(-0.0338854 -0.195355 -0.0058816)
(-0.00195583 -0.20266 -0.000209326)
(0.00105325 -0.200672 0.000745172)
(-0.00198266 -0.202414 -0.000166326)
(0.00101617 -0.200393 0.000739917)
(0.00568873 -0.189299 0.00283976)
(0.00102181 -0.187646 0.00126911)
(0.00557847 -0.188348 0.00284362)
(0.000964235 -0.186995 0.00124952)
(0.000781419 -0.199967 0.000273019)
(0.000781354 -0.199967 -0.000272802)
(0.000791701 -0.199757 0.000266862)
(0.000791653 -0.199757 -0.000266655)
(9.9097e-05 -0.187799 0.00031272)
(9.91266e-05 -0.187799 -0.000312474)
(0.000157719 -0.187514 0.000302873)
(0.000157761 -0.187514 -0.00030264)
(0.00105326 -0.200671 -0.000745011)
(-0.00195439 -0.202658 0.000209074)
(0.0010162 -0.200392 -0.000739761)
(-0.00198127 -0.202412 0.000166087)
(0.00102148 -0.187645 -0.00126878)
(0.00568817 -0.189298 -0.00283947)
(0.000963949 -0.186995 -0.00124921)
(0.00557796 -0.188347 -0.00284334)
(-0.0302162 -0.206267 0.00187891)
(0.0308561 -0.213479 0.894522)
(-0.0299775 -0.206352 0.00178901)
(0.0305599 -0.214607 0.896482)
(-0.0343003 -0.195745 0.0060464)
(0.0265451 -0.211245 0.979587)
(-0.0338788 -0.195353 0.00587996)
(0.0262685 -0.213278 0.980013)
(0.0313553 -0.211494 -0.89045)
(-0.0305722 -0.206008 -0.00202862)
(0.0311149 -0.212452 -0.892045)
(-0.0304106 -0.206153 -0.00195814)
(0.0269391 -0.20774 -0.978751)
(-0.0349058 -0.196205 -0.00632107)
(0.0267263 -0.209416 -0.979095)
(-0.0346027 -0.196025 -0.00619331)
(-0.00187987 -0.202994 -0.000288233)
(0.00115396 -0.201142 0.000744376)
(-0.00191969 -0.202852 -0.000249789)
(0.00110017 -0.200924 0.000746088)
(0.00587082 -0.190775 0.00281958)
(0.00114415 -0.188807 0.00129037)
(0.00578991 -0.190102 0.0028311)
(0.00108289 -0.188252 0.00128222)
(0.000814344 -0.200376 0.000279356)
(0.000814263 -0.200376 -0.000279121)
(0.00079019 -0.200177 0.000276945)
(0.000790124 -0.200177 -0.000276719)
(3.94803e-05 -0.188458 0.000325169)
(3.94957e-05 -0.188458 -0.000324899)
(6.13028e-05 -0.188121 0.000319994)
(6.13294e-05 -0.18812 -0.000319736)
(0.00115396 -0.201142 -0.000744207)
(-0.0018783 -0.202993 0.000287953)
(0.00110018 -0.200923 -0.000745923)
(-0.00191817 -0.202851 0.00024952)
(0.00114375 -0.188806 -0.00129002)
(0.00587023 -0.190774 -0.00281927)
(0.00108253 -0.188251 -0.00128188)
(0.00578935 -0.190101 -0.0028308)
(-0.0305666 -0.206006 0.00202795)
(0.0313484 -0.211489 0.890476)
(-0.0304051 -0.206151 0.00195749)
(0.0311087 -0.212446 0.89207)
(-0.0348985 -0.196202 0.00631919)
(0.0269316 -0.207731 0.978756)
(-0.0345954 -0.196022 0.00619151)
(0.02672 -0.209407 0.9791)
(0.0317499 -0.209746 -0.887046)
(-0.0307879 -0.20563 -0.00214552)
(0.0315561 -0.210596 -0.888322)
(-0.0306906 -0.205834 -0.00209005)
(0.0272124 -0.204767 -0.978064)
(-0.0353014 -0.196322 -0.00652858)
(0.0270527 -0.206198 -0.978338)
(-0.0350933 -0.1963 -0.00643167)
(-0.0017759 -0.20313 -0.000356662)
(0.00128159 -0.201461 0.000734532)
(-0.0018303 -0.203087 -0.000323556)
(0.0012151 -0.201323 0.000740066)
(0.0060082 -0.191778 0.00278981)
(0.00126687 -0.189738 0.00129507)
(0.00594754 -0.19133 0.00280532)
(0.0012064 -0.189303 0.00129428)
(0.000900222 -0.200701 0.000280253)
(0.000900132 -0.200701 -0.000280001)
(0.000851909 -0.200553 0.000280251)
(0.000851832 -0.200553 -0.000280007)
(3.42941e-05 -0.189111 0.000330485)
(3.42975e-05 -0.18911 -0.000330194)
(3.16914e-05 -0.188792 0.000328534)
(3.17058e-05 -0.188792 -0.000328253)
(0.00128161 -0.20146 -0.000734354)
(-0.00177421 -0.203128 0.000356359)
(0.00121511 -0.201322 -0.000739892)
(-0.00182866 -0.203085 0.000323262)
(0.00126643 -0.189737 -0.0012947)
(0.00600759 -0.191777 -0.00278948)
(0.00120599 -0.189302 -0.00129391)
(0.00594697 -0.191328 -0.002805)
(-0.0307819 -0.205627 0.00214483)
(0.0317425 -0.209741 0.887074)
(-0.0306847 -0.205832 0.00208937)
(0.0315494 -0.210591 0.888349)
(-0.0352936 -0.196319 0.00652657)
(0.0272043 -0.204759 0.97807)
(-0.0350855 -0.196298 0.00642973)
(0.0270459 -0.20619 0.978343)
(0.032063 -0.20814 -0.884127)
(-0.0308872 -0.205125 -0.00223714)
(0.0319075 -0.208931 -0.885166)
(-0.0308459 -0.205394 -0.00219351)
(0.0273846 -0.202161 -0.977491)
(-0.0355247 -0.196166 -0.00668364)
(0.0272729 -0.203426 -0.97771)
(-0.0353983 -0.196275 -0.00661151)
(-0.00163689 -0.203067 -0.000414213)
(0.00142467 -0.201599 0.000720193)
(-0.00170933 -0.203123 -0.0003865)
(0.00135184 -0.201554 0.000727509)
(0.00611832 -0.192389 0.00275544)
(0.00138179 -0.190413 0.00128944)
(0.00606933 -0.192129 0.00277277)
(0.00132605 -0.190108 0.00129317)
(0.00102259 -0.200886 0.000277891)
(0.00102249 -0.200886 -0.000277626)
(0.000957654 -0.200814 0.000279286)
(0.000957569 -0.200814 -0.000279027)
(6.48836e-05 -0.189654 0.000331083)
(6.48758e-05 -0.189654 -0.000330773)
(4.626e-05 -0.1894 0.000331232)
(4.62626e-05 -0.1894 -0.000330931)
(0.00142468 -0.201598 -0.000720008)
(-0.00163514 -0.203065 0.000413894)
(0.00135186 -0.201553 -0.000727329)
(-0.00170761 -0.203121 0.000386187)
(0.00138132 -0.190412 -0.00128904)
(0.00611768 -0.192387 -0.0027551)
(0.0013256 -0.190107 -0.00129278)
(0.00606873 -0.192127 -0.00277244)
(-0.0308809 -0.205123 0.00223642)
(0.0320551 -0.208136 0.884158)
(-0.0308397 -0.205392 0.0021928)
(0.0319003 -0.208926 0.885196)
(-0.0355165 -0.196164 0.00668152)
(0.0273762 -0.202154 0.977497)
(-0.0353901 -0.196273 0.00660945)
(0.0272657 -0.203419 0.977716)
(0.032317 -0.206596 -0.881669)
(-0.0308889 -0.204479 -0.00230894)
(0.0321878 -0.207364 -0.882452)
(-0.0308934 -0.204821 -0.00227453)
(0.0274837 -0.199794 -0.977019)
(-0.0356114 -0.195772 -0.00679663)
(0.0274014 -0.200955 -0.977182)
(-0.035546 -0.195998 -0.00674433)
(-0.00146602 -0.202802 -0.000461323)
(0.00158386 -0.201538 0.000704327)
(-0.00155375 -0.20296 -0.000438695)
(0.00150219 -0.201594 0.000712128)
(0.00621186 -0.192656 0.00271961)
(0.00148807 -0.190825 0.00127772)
(0.00617047 -0.192563 0.00273735)
(0.00143614 -0.190652 0.00128406)
(0.00117321 -0.200891 0.000273674)
(0.00117311 -0.200891 -0.000273395)
(0.00109474 -0.200913 0.000275863)
(0.00109465 -0.200912 -0.00027559)
(0.000119001 -0.190024 0.000328666)
(0.000118985 -0.190024 -0.000328338)
(8.97894e-05 -0.189864 0.000330153)
(8.97815e-05 -0.189863 -0.000329834)
(0.00158388 -0.201537 -0.000704135)
(-0.00146417 -0.202801 0.000460994)
(0.0015022 -0.201593 -0.000711941)
(-0.00155195 -0.202959 0.000438369)
(0.00148757 -0.190823 -0.00127731)
(0.00621123 -0.192654 -0.00271925)
(0.00143565 -0.19065 -0.00128366)
(0.00616986 -0.192561 -0.002737)
(-0.0308824 -0.204477 0.00230822)
(0.0323088 -0.206593 0.881702)
(-0.030887 -0.204819 0.0022738)
(0.0321802 -0.20736 0.882483)
(-0.0356029 -0.19577 0.00679442)
(0.0274747 -0.199788 0.977026)
(-0.0355375 -0.195995 0.00674217)
(0.0273938 -0.200949 0.977189)
(0.0325248 -0.20505 -0.879503)
(-0.0308034 -0.203673 -0.00236477)
(0.032417 -0.205826 -0.880137)
(-0.0308499 -0.204098 -0.00233788)
(0.0275113 -0.197563 -0.976619)
(-0.0355759 -0.195158 -0.00687547)
(0.0274654 -0.198665 -0.976748)
(-0.0355701 -0.195492 -0.00683935)
(-0.00126101 -0.202327 -0.000498699)
(0.00176613 -0.20126 0.000688467)
(-0.00136664 -0.202592 -0.000480806)
(0.00167197 -0.201427 0.000696089)
(0.00629723 -0.192611 0.0026792)
(0.00159092 -0.190964 0.00126172)
(0.00626014 -0.192668 0.00269733)
(0.00153964 -0.19093 0.00127036)
(0.00134683 -0.200687 0.000268382)
(0.00134672 -0.200686 -0.000268087)
(0.00125764 -0.200816 0.000271016)
(0.00125754 -0.200816 -0.00027073)
(0.000189653 -0.190176 0.000324217)
(0.000189637 -0.190175 -0.000323866)
(0.000152531 -0.19013 0.00032666)
(0.000152519 -0.19013 -0.000326323)
(0.00176619 -0.201259 -0.000688269)
(-0.00125903 -0.202325 0.000498354)
(0.001672 -0.201426 -0.000695895)
(-0.00136473 -0.20259 0.000480468)
(0.00159043 -0.190963 -0.00126127)
(0.00629666 -0.192608 -0.00267884)
(0.00153914 -0.190928 -0.00126994)
(0.00625955 -0.192666 -0.00269697)
(-0.0307966 -0.203672 0.00236406)
(0.0325162 -0.205047 0.879538)
(-0.0308432 -0.204096 0.00233715)
(0.032409 -0.205822 0.880171)
(-0.035567 -0.195156 0.00687318)
(0.0275019 -0.197559 0.976626)
(-0.0355612 -0.19549 0.00683711)
(0.0274573 -0.19866 0.976754)
(0.0327055 -0.203444 -0.877619)
(-0.0306444 -0.202685 -0.00240735)
(0.032611 -0.204259 -0.87809)
(-0.0307273 -0.203203 -0.00238666)
(0.0274998 -0.195385 -0.976282)
(-0.0354501 -0.194319 -0.0069267)
(0.0274718 -0.196474 -0.976376)
(-0.0354829 -0.194766 -0.00690366)
(-0.00101647 -0.201629 -0.000527769)
(0.00197541 -0.200745 0.000673883)
(-0.00114217 -0.202006 -0.000513781)
(0.00186753 -0.201033 0.000680832)
(0.00638629 -0.192268 0.00264962)
(0.00169303 -0.190827 0.00124572)
(0.00634553 -0.192474 0.00266572)
(0.00164043 -0.190932 0.00125297)
(0.00154392 -0.200249 0.000262794)
(0.00154382 -0.200249 -0.000262466)
(0.00144175 -0.200499 0.000265497)
(0.00144165 -0.200498 -0.000265189)
(0.000269452 -0.190084 0.000318689)
(0.000269444 -0.190084 -0.000318296)
(0.000226549 -0.190162 0.000321259)
(0.000226539 -0.190161 -0.00032089)
(0.00197551 -0.200744 -0.000673672)
(-0.00101435 -0.201628 0.000527385)
(0.00186761 -0.201032 -0.00068063)
(-0.00114011 -0.202005 0.00051342)
(0.00169255 -0.190825 -0.00124525)
(0.00638586 -0.192265 -0.00264924)
(0.00163996 -0.19093 -0.00125252)
(0.0063451 -0.192472 -0.00266534)
(-0.0306376 -0.202684 0.0024067)
(0.032697 -0.203441 0.877656)
(-0.0307203 -0.203201 0.00238596)
(0.0326028 -0.204256 0.878125)
(-0.0354406 -0.194317 0.00692434)
(0.0274898 -0.195382 0.976289)
(-0.0354735 -0.194764 0.00690135)
(0.0274631 -0.19647 0.976382)
(0.0328582 -0.201731 -0.875938)
(-0.0304118 -0.201492 -0.00243967)
(0.0327773 -0.202604 -0.876312)
(-0.0305318 -0.202117 -0.00242379)
(0.0274415 -0.193194 -0.975995)
(-0.0352373 -0.193252 -0.00695545)
(0.0274329 -0.194294 -0.976065)
(-0.0353139 -0.193815 -0.00694306)
(-0.000724325 -0.200686 -0.000549283)
(0.0022142 -0.199974 0.000660706)
(-0.00087579 -0.20119 -0.00053899)
(0.00209102 -0.200393 0.000666835)
(0.00647451 -0.191641 0.00261704)
(0.00179678 -0.190396 0.00122965)
(0.00643506 -0.19199 0.00263283)
(0.00174521 -0.190648 0.00123787)
(0.00176913 -0.199556 0.000257226)
(0.00176901 -0.199555 -0.000256884)
(0.00165314 -0.199936 0.000259893)
(0.00165305 -0.199936 -0.000259539)
(0.000364183 -0.189717 0.00031333)
(0.000364147 -0.189717 -0.000312904)
(0.000316204 -0.189935 0.000316217)
(0.00031619 -0.189934 -0.000315795)
(0.00221429 -0.199973 -0.00066045)
(-0.000721815 -0.200685 0.000548941)
(0.00209113 -0.200392 -0.000666584)
(-0.000873516 -0.201189 0.00053864)
(0.00179615 -0.190394 -0.00122912)
(0.00647391 -0.191638 -0.00261659)
(0.00174469 -0.190646 -0.00123737)
(0.00643465 -0.191987 -0.00263244)
(-0.030403 -0.201491 0.00243872)
(0.0328483 -0.201728 0.875978)
(-0.0305246 -0.202116 0.00242301)
(0.0327692 -0.202601 0.876349)
(-0.0352267 -0.19325 0.0069528)
(0.0274311 -0.193192 0.976002)
(-0.0353037 -0.193814 0.00694058)
(0.0274239 -0.194292 0.976072)
(0.0329892 -0.19987 -0.874453)
(-0.0301078 -0.200064 -0.00246284)
(0.0329153 -0.200822 -0.874731)
(-0.0302615 -0.200809 -0.0024512)
(0.0273544 -0.190946 -0.975753)
(-0.0349542 -0.191933 -0.00696513)
(0.027357 -0.19208 -0.975801)
(-0.0350635 -0.192625 -0.00696185)
(-0.000384491 -0.199482 -0.000564604)
(0.00248352 -0.198925 0.000649658)
(-0.000557488 -0.200117 -0.000557252)
(0.00234592 -0.199485 0.000654691)
(0.00654614 -0.190728 0.00258657)
(0.00190317 -0.189658 0.00121309)
(0.00651646 -0.191221 0.00260132)
(0.00185011 -0.190067 0.00122128)
(0.00202287 -0.198581 0.000251859)
(0.00202271 -0.198581 -0.000251675)
(0.00189269 -0.199105 0.000254396)
(0.00189254 -0.199105 -0.00025414)
(0.000471509 -0.189054 0.000307467)
(0.000471485 -0.189053 -0.000307092)
(0.000416567 -0.189424 0.00031037)
(0.000416527 -0.189423 -0.000309976)
(0.0024835 -0.198924 -0.000649703)
(-0.000381827 -0.199481 0.000564073)
(0.0023459 -0.199484 -0.000654548)
(-0.000554978 -0.200116 0.000556804)
(0.00190249 -0.189656 -0.00121258)
(0.00654541 -0.190725 -0.00258605)
(0.00184941 -0.190064 -0.00122076)
(0.00651579 -0.191217 -0.00260083)
(-0.0301 -0.200063 0.00246264)
(0.0329811 -0.199867 0.874495)
(-0.0302538 -0.200808 0.00245074)
(0.0329077 -0.200819 0.874771)
(-0.0349423 -0.19193 0.00696257)
(0.0273426 -0.190946 0.975761)
(-0.035052 -0.192623 0.00695931)
(0.0273472 -0.192079 0.975808)
(0.0331322 -0.197819 -0.873058)
(-0.0297569 -0.198378 -0.00247849)
(0.0330503 -0.198872 -0.873268)
(-0.0299322 -0.199256 -0.00247118)
(0.0272534 -0.188589 -0.975534)
(-0.034607 -0.190342 -0.0069594)
(0.0272602 -0.189785 -0.975568)
(-0.0347465 -0.191173 -0.00696356)
(-3.87124e-05 -0.19801 -0.000574161)
(0.00277131 -0.197581 0.00063985)
(-0.000206988 -0.198782 -0.000569606)
(0.00262602 -0.198291 0.000644916)
(0.00663681 -0.189521 0.00255834)
(0.00201463 -0.1886 0.00119649)
(0.00658918 -0.190164 0.00257194)
(0.00195791 -0.18917 0.00120478)
(0.00230247 -0.197304 0.000247095)
(0.00230234 -0.197304 -0.000246712)
(0.00215941 -0.197982 0.000249347)
(0.00215929 -0.197982 -0.000249065)
(0.000588979 -0.188072 0.00030186)
(0.000589024 -0.188071 -0.00030137)
(0.000529037 -0.188603 0.000304611)
(0.000529087 -0.188602 -0.00030418)
(0.00277131 -0.19758 -0.000639514)
(-3.62638e-05 -0.198009 0.000573851)
(0.00262609 -0.19829 -0.000644734)
(-0.000204136 -0.198781 0.000569204)
(0.00201422 -0.188597 -0.00119585)
(0.00663676 -0.189517 -0.00255775)
(0.00195754 -0.189167 -0.0012042)
(0.00658948 -0.190159 -0.00257137)
(-0.0297472 -0.198379 0.00247747)
(0.033121 -0.197817 0.873105)
(-0.0299221 -0.199256 0.00247044)
(0.0330395 -0.198869 0.873312)
(-0.0345934 -0.190338 0.00695635)
(0.0272412 -0.188592 0.975543)
(-0.0347328 -0.191169 0.0069607)
(0.027248 -0.189787 0.975576)
(0.0333086 -0.195531 -0.871766)
(-0.0293734 -0.196403 -0.0024857)
(0.0332068 -0.196709 -0.871935)
(-0.0295634 -0.197429 -0.00248207)
(0.0271519 -0.186059 -0.975341)
(-0.0342064 -0.188458 -0.00694065)
(0.027158 -0.18735 -0.975363)
(-0.0343727 -0.189438 -0.00695098)
(0.00029525 -0.196234 -0.000578451)
(0.00307673 -0.195916 0.00062937)
(0.000130745 -0.197158 -0.000576443)
(0.00292176 -0.196789 0.000634401)
(0.00677191 -0.187989 0.00253272)
(0.00213981 -0.187206 0.00117963)
(0.00669875 -0.188797 0.002545)
(0.00207506 -0.187946 0.001188)
(0.0026116 -0.195701 0.00024261)
(0.00261129 -0.195701 -0.000242234)
(0.00245311 -0.196545 0.000244708)
(0.00245289 -0.196545 -0.000244314)
(0.00071905 -0.186755 0.000296512)
(0.000718818 -0.186755 -0.000296012)
(0.000652519 -0.187457 0.000299134)
(0.000652443 -0.187456 -0.000298627)
(0.00307604 -0.195916 -0.000629025)
(0.000296032 -0.196234 0.000578383)
(0.00292138 -0.196789 -0.00063404)
(0.000132135 -0.197158 0.000576297)
(0.00213823 -0.187203 -0.00117897)
(0.00676863 -0.187985 -0.00253201)
(0.00207416 -0.187943 -0.00118734)
(0.00669732 -0.188792 -0.00254432)
(-0.029365 -0.196403 0.00248504)
(0.0332997 -0.195528 0.871817)
(-0.0295543 -0.19743 0.00248123)
(0.0331971 -0.196706 0.871983)
(-0.0341944 -0.188454 0.00693743)
(0.0271448 -0.18606 0.97535)
(-0.0343593 -0.189434 0.00694784)
(0.0271495 -0.187353 0.975371)
(0.0335209 -0.192953 -0.870522)
(-0.0289573 -0.194106 -0.00248285)
(0.0334015 -0.194282 -0.870636)
(-0.0291655 -0.195299 -0.00248396)
(0.0270647 -0.183292 -0.975161)
(-0.0337599 -0.186261 -0.00691017)
(0.0270606 -0.184711 -0.975171)
(-0.0339453 -0.1874 -0.00692608)
(0.000610054 -0.194106 -0.000579197)
(0.00340298 -0.193901 0.000615912)
(0.000449609 -0.195223 -0.000578872)
(0.00323577 -0.194955 0.000622324)
(0.00697883 -0.186076 0.00250916)
(0.00228092 -0.185453 0.00116243)
(0.00688148 -0.187085 0.00252041)
(0.00220926 -0.186375 0.00117091)
(0.00295455 -0.193744 0.000238378)
(0.00295433 -0.193744 -0.00023789)
(0.00277833 -0.194768 0.000240365)
(0.00277806 -0.194768 -0.000239949)
(0.000862168 -0.185084 0.000291446)
(0.000862099 -0.185084 -0.000290935)
(0.000788594 -0.185965 0.000293928)
(0.000788398 -0.185964 -0.000293425)
(0.00340287 -0.1939 -0.000615486)
(0.000613226 -0.194105 0.000578657)
(0.00323533 -0.194955 -0.000621962)
(0.000451476 -0.195222 0.000578474)
(0.00228004 -0.185451 -0.00116179)
(0.00697765 -0.186073 -0.00250862)
(0.00220784 -0.186373 -0.00117027)
(0.0068788 -0.187081 -0.00251982)
(-0.028942 -0.194105 0.00248081)
(0.0335025 -0.192951 0.870579)
(-0.0291543 -0.195298 0.00248263)
(0.0333892 -0.19428 0.87069)
(-0.0337437 -0.186257 0.00690612)
(0.0270515 -0.18329 0.975171)
(-0.0339313 -0.187396 0.00692247)
(0.0270524 -0.184709 0.97518)
(0.0337436 -0.190046 -0.869328)
(-0.0284816 -0.191446 -0.00247538)
(0.0336188 -0.191544 -0.869406)
(-0.0287185 -0.192823 -0.00247831)
(0.0269725 -0.180232 -0.974995)
(-0.0332601 -0.183725 -0.00687037)
(0.0269716 -0.1818 -0.974996)
(-0.0334722 -0.185038 -0.00689067)
(0.000931306 -0.191581 -0.000576208)
(0.00376534 -0.191501 0.000604599)
(0.000774222 -0.192891 -0.000577683)
(0.0035796 -0.19275 0.000609662)
(0.00715323 -0.183769 0.00248771)
(0.00243883 -0.18332 0.00114605)
(0.00707297 -0.184968 0.00249794)
(0.00235759 -0.184435 0.00115401)
(0.00333915 -0.191405 0.000234219)
(0.00333887 -0.191404 -0.000233736)
(0.00314133 -0.192624 0.00023619)
(0.0031411 -0.192624 -0.000235674)
(0.00102698 -0.183032 0.000286576)
(0.00102688 -0.183031 -0.000286122)
(0.000941782 -0.184108 0.000288966)
(0.000941733 -0.184107 -0.000288473)
(0.00376487 -0.1915 -0.000604168)
(0.000932633 -0.191579 0.000575884)
(0.00357944 -0.192749 -0.000609193)
(0.000776988 -0.192889 0.000577284)
(0.00243761 -0.183318 -0.00114545)
(0.00715052 -0.183765 -0.00248714)
(0.00235669 -0.184433 -0.00115337)
(0.00707145 -0.184964 -0.00249739)
(-0.02847 -0.191444 0.00247374)
(0.0337305 -0.190046 0.869385)
(-0.0287035 -0.192822 0.00247634)
(0.0336014 -0.191543 0.869463)
(-0.0332457 -0.183719 0.00686654)
(0.0269617 -0.180231 0.975005)
(-0.0334561 -0.185033 0.00688661)
(0.0269599 -0.181799 0.975006)
(0.034015 -0.186768 -0.86817)
(-0.0279544 -0.188399 -0.00246439)
(0.0338644 -0.188457 -0.868216)
(-0.0282206 -0.189973 -0.00246923)
(0.0268957 -0.176841 -0.97484)
(-0.0327227 -0.180819 -0.00682294)
(0.0268847 -0.178583 -0.974833)
(-0.0329513 -0.18232 -0.00684692)
(0.00130108 -0.188667 -0.00057006)
(0.00417604 -0.188692 0.000595457)
(0.00110698 -0.190175 -0.000572999)
(0.00396418 -0.19015 0.000599567)
(0.00732826 -0.181083 0.00246812)
(0.00261196 -0.180781 0.00113088)
(0.00724278 -0.182475 0.00247748)
(0.002524 -0.182103 0.00113823)