/*--------------------------------*- C++ -*----------------------------------*\
  =========                 |
  \\      /  F ield         | OpenFOAM: The Open Source CFD Toolbox
   \\    /   O peration     | Website:  https://openfoam.org
    \\  /    A nd           | Version:  9
     \\/     M anipulation  |
\*---------------------------------------------------------------------------*/
FoamFile
{
    format      ascii;
    class       volScalarField;
    location    "3.25";
    object      k;
}
// * * * * * * * * * * * * * * * * * * * * * * * * * * * * * * * * * * * * * //

dimensions      [0 2 -2 0 0 0 0];

internalField   nonuniform List<scalar> 
36360
(
0.106009
0.0884686
0.0551274
0.0487264
0.028023
0.0229622
0.00839326
0.00872478
0.042158
0.016567
0.0159289
0.0049138
0.00947307
0.00390613
0.00415938
0.00297314
0.00617993
0.00618475
0.00290712
0.00290783
0.0023983
0.002399
0.00294643
0.00294635
0.0165783
0.0421647
0.00491661
0.0159376
0.00390835
0.00947693
0.00297344
0.00416043
0.088472
0.106009
0.0487338
0.0551311
0.022965
0.0280251
0.00872742
0.00839418
0.167237
0.142314
0.141005
0.118555
0.0568702
0.0455991
0.0446179
0.0353647
0.0860986
0.0538015
0.0655628
0.0350118
0.0276126
0.0157711
0.0189589
0.00812609
0.0388786
0.0388804
0.0198401
0.0198456
0.00974609
0.00974836
0.00407687
0.00407867
0.0538032
0.0860951
0.0350187
0.0655653
0.0157745
0.0276138
0.00813058
0.0189622
0.142304
0.167222
0.118552
0.140999
0.0455971
0.0568657
0.0353656
0.044617
0.207086
0.179932
0.188664
0.162375
0.0746946
0.0616703
0.0665343
0.0541815
0.1209
0.0875095
0.104413
0.0714125
0.0422897
0.0302975
0.0353366
0.0233473
0.0726053
0.0726029
0.0565422
0.0565418
0.0248609
0.024861
0.0177012
0.0177023
0.0875006
0.120882
0.0714089
0.104403
0.0302964
0.042285
0.0233485
0.0353351
0.179905
0.207051
0.162357
0.18864
0.0616605
0.074681
0.0541758
0.0665255
0.237718
0.209504
0.223284
0.195527
0.0881808
0.0743251
0.0818279
0.068331
0.149175
0.115236
0.13576
0.102077
0.0542478
0.0421758
0.0485652
0.0365494
0.100144
0.100138
0.0870902
0.0870859
0.0368305
0.036829
0.0311924
0.0311917
0.115217
0.149141
0.102063
0.135734
0.0421702
0.0542364
0.036546
0.0485572
0.209457
0.237662
0.195489
0.223238
0.0743065
0.0881567
0.0683169
0.0818091
0.262073
0.233205
0.250584
0.22201
0.0989146
0.0845455
0.0938465
0.0797073
0.172063
0.137697
0.161236
0.127072
0.0639835
0.0517539
0.0593702
0.0472231
0.122384
0.122375
0.111868
0.11186
0.0463529
0.0463499
0.0418566
0.0418543
0.137669
0.172014
0.127049
0.161195
0.0517442
0.0639653
0.0472154
0.0593554
0.233139
0.261996
0.221953
0.250517
0.084518
0.0988798
0.0796843
0.0938169
0.281282
0.251977
0.27226
0.243152
0.107412
0.0926917
0.103416
0.0888553
0.190285
0.155595
0.181712
0.147172
0.0717713
0.0593831
0.0681016
0.0557903
0.140096
0.140084
0.13176
0.13175
0.0539049
0.0539006
0.0503503
0.0503466
0.155558
0.190223
0.147139
0.181656
0.0593694
0.0717469
0.0557785
0.0680802
0.251894
0.281186
0.243077
0.272172
0.0926558
0.107367
0.0888235
0.103376
0.296099
0.266504
0.289186
0.259721
0.113981
0.0990195
0.110914
0.0960606
0.204443
0.169525
0.197829
0.163015
0.0778396
0.065321
0.0750011
0.0625437
0.153891
0.153876
0.147442
0.147429
0.0597761
0.0597706
0.05703
0.0570251
0.16948
0.204368
0.162974
0.197761
0.0653038
0.0778095
0.0625282
0.0749738
0.266405
0.295986
0.259629
0.28908
0.098976
0.113927
0.0960207
0.110864
0.30721
0.277427
0.302067
0.272368
0.11891
0.103789
0.116627
0.101577
0.215127
0.180059
0.210177
0.175177
0.0824234
0.0698068
0.0802971
0.0677255
0.164335
0.164318
0.159493
0.159477
0.0642113
0.0642048
0.0621531
0.0621471
0.180008
0.215041
0.175129
0.210097
0.0697866
0.0823884
0.0677068
0.0802644
0.277315
0.307081
0.272262
0.301945
0.103738
0.118848
0.10153
0.116568
0.315244
0.285352
0.311563
0.281718
0.122474
0.107249
0.120839
0.10566
0.222905
0.187748
0.219338
0.184221
0.0857584
0.0730729
0.0842266
0.0715722
0.171968
0.171949
0.168465
0.168447
0.0674418
0.0674345
0.065957
0.0659501
0.187691
0.222812
0.184166
0.219249
0.0730501
0.0857193
0.0715507
0.0841894
0.285228
0.315103
0.2816
0.311427
0.107193
0.122405
0.105607
0.120773
0.320794
0.290847
0.318286
0.288361
0.124934
0.109646
0.12382
0.108559
0.228327
0.193124
0.225873
0.190689
0.0880771
0.0753469
0.0870252
0.0743146
0.177315
0.177294
0.174892
0.174872
0.0696928
0.0696848
0.0686703
0.0686626
0.193062
0.228226
0.19063
0.225776
0.0753222
0.0880346
0.0742907
0.0869843
0.290715
0.320643
0.288232
0.318139
0.109586
0.12486
0.108501
0.123748
0.324381
0.294423
0.322793
0.292836
0.126525
0.111202
0.125817
0.110509
0.231882
0.196668
0.230303
0.195092
0.089592
0.0768374
0.0889165
0.0761718
0.18085
0.180829
0.179277
0.179256
0.0711705
0.0711619
0.0705099
0.0705016
0.196603
0.231775
0.195029
0.2302
0.0768111
0.0895469
0.0761462
0.0888726
0.294284
0.324222
0.2927
0.322636
0.111139
0.126446
0.110447
0.125741
0.326459
0.296525
0.325574
0.295625
0.127451
0.112114
0.127053
0.11172
0.234005
0.198807
0.233093
0.197885
0.090492
0.077729
0.0901022
0.0773416
0.182995
0.182973
0.182069
0.182047
0.0720574
0.0720484
0.0716711
0.0716624
0.198739
0.233895
0.197819
0.232985
0.0777015
0.090445
0.0773146
0.0900561
0.296381
0.326294
0.295483
0.325411
0.112048
0.127369
0.111655
0.126972
0.327402
0.29752
0.327042
0.297132
0.12788
0.112545
0.127711
0.112374
0.235055
0.199893
0.23464
0.199458
0.0909334
0.0781751
0.0907553
0.0779931
0.1841
0.184077
0.183655
0.183632
0.0725053
0.0724961
0.0723214
0.0723123
0.199824
0.234942
0.19939
0.234528
0.0781469
0.0908853
0.0779653
0.0907077
0.297373
0.327233
0.296986
0.326875
0.112477
0.127797
0.112306
0.127628
0.327506
0.2977
0.327531
0.297687
0.127942
0.11262
0.127941
0.112612
0.235316
0.20021
0.235265
0.20013
0.0910372
0.0782944
0.0910156
0.0782642
0.184444
0.18442
0.184349
0.184325
0.072632
0.0726226
0.0725973
0.072588
0.200139
0.235202
0.20006
0.235151
0.0782658
0.0909884
0.0782358
0.0909671
0.29755
0.327336
0.297538
0.327361
0.112551
0.127858
0.112544
0.127856
0.327021
0.297313
0.327327
0.297568
0.127756
0.112457
0.127877
0.112565
0.235033
0.199994
0.235235
0.200158
0.0909178
0.0781977
0.0910027
0.0782688
0.184261
0.184237
0.184406
0.184383
0.0725458
0.0725364
0.0726101
0.0726008
0.199923
0.234918
0.200088
0.23512
0.0781689
0.0908687
0.0782401
0.0909538
0.297163
0.32685
0.297418
0.327155
0.112388
0.127672
0.112496
0.127792
0.326081
0.296491
0.326589
0.296937
0.127376
0.112105
0.127578
0.112292
0.234333
0.199372
0.234721
0.19972
0.0906199
0.0779288
0.0907798
0.0780733
0.183678
0.183654
0.184006
0.183982
0.0722906
0.0722812
0.0724275
0.0724181
0.199301
0.234218
0.199649
0.234606
0.0779
0.0905709
0.0780445
0.0907307
0.29634
0.32591
0.296787
0.326417
0.112036
0.127291
0.112223
0.127493
0.324818
0.295362
0.325476
0.295951
0.126859
0.111624
0.127125
0.111871
0.233344
0.198471
0.233865
0.198948
0.0902027
0.0775461
0.0904181
0.0777436
0.182822
0.182798
0.183276
0.183252
0.0719242
0.0719148
0.0721129
0.0721036
0.198401
0.233229
0.198877
0.23375
0.0775175
0.0901539
0.0777149
0.0903692
0.295213
0.324647
0.295801
0.325305
0.111555
0.126775
0.111802
0.12704
0.323301
0.294
0.324079
0.294699
0.126239
0.111043
0.126554
0.111337
0.232136
0.197361
0.23276
0.197936
0.0896946
0.0770771
0.0899527
0.077315
0.18176
0.181737
0.18231
0.182287
0.0714735
0.0714642
0.0717017
0.0716924
0.197291
0.232022
0.197866
0.232646
0.0770487
0.0896462
0.0772865
0.0899041
0.293852
0.323133
0.29455
0.323909
0.110975
0.126155
0.111269
0.12647
0.321577
0.292449
0.322454
0.293238
0.125533
0.110382
0.125889
0.110715
0.230754
0.196085
0.231461
0.196739
0.0891137
0.0765393
0.0894065
0.07681
0.180537
0.180514
0.181164
0.181141
0.0709559
0.0709468
0.071216
0.0712069
0.196016
0.230641
0.19667
0.231348
0.0765113
0.0890659
0.0767819
0.0893585
0.292303
0.32141
0.293091
0.322286
0.110315
0.12545
0.110647
0.125805
0.319672
0.290736
0.320638
0.291604
0.124753
0.109651
0.125145
0.110018
0.229223
0.19467
0.230003
0.195391
0.0884705
0.0759428
0.0887937
0.0762421
0.179177
0.179155
0.17987
0.179848
0.0703813
0.0703723
0.0706692
0.0706601
0.194602
0.229112
0.195323
0.229891
0.0759152
0.0884234
0.0762143
0.0887463
0.290592
0.319508
0.291459
0.320472
0.109585
0.124672
0.109951
0.125063
0.3176
0.288875
0.318648
0.289816
0.123905
0.108857
0.124331
0.109255
0.227559
0.193128
0.228404
0.193912
0.0877704
0.075293
0.0881217
0.0756186
0.177696
0.177673
0.178449
0.178426
0.0697548
0.069746
0.0700683
0.0700593
0.193061
0.22745
0.193844
0.228294
0.0752658
0.087724
0.0755912
0.088075
0.288733
0.317438
0.289672
0.318484
0.108791
0.123825
0.109189
0.12425
0.315366
0.286873
0.316494
0.287884
0.122991
0.108
0.12345
0.108429
0.225767
0.191468
0.226676
0.19231
0.087016
0.0745922
0.0873944
0.0749432
0.176099
0.176077
0.176909
0.176887
0.069079
0.0690704
0.0694171
0.0694083
0.191401
0.22566
0.192244
0.226567
0.0745655
0.0869705
0.0749163
0.0873484
0.286733
0.315207
0.287742
0.316333
0.107936
0.122912
0.108364
0.12337
0.312974
0.284732
0.314182
0.285812
0.122013
0.107084
0.122504
0.107543
0.223851
0.189691
0.224822
0.190591
0.0862084
0.0738417
0.0866135
0.0742176
0.17439
0.174368
0.175256
0.175234
0.0683549
0.0683464
0.0687172
0.0687086
0.189626
0.223746
0.190526
0.224715
0.0738155
0.0861637
0.0741912
0.0865683
0.284595
0.312818
0.285673
0.314023
0.107021
0.121936
0.107479
0.122425
0.310425
0.282455
0.311712
0.283603
0.12097
0.106107
0.121494
0.106597
0.221812
0.187799
0.222844
0.188757
0.0853478
0.0730415
0.0857795
0.0734424
0.172569
0.172548
0.173491
0.17347
0.0675827
0.0675743
0.0679692
0.0679607
0.187735
0.221708
0.188693
0.22274
0.0730158
0.0853039
0.0734165
0.0857352
0.28232
0.310272
0.283467
0.311556
0.106045
0.120894
0.106534
0.121417
0.307719
0.280039
0.309084
0.281257
0.119863
0.10507
0.120419
0.10559
0.219648
0.185791
0.220743
0.186808
0.0844339
0.0721913
0.0848924
0.0726174
0.170636
0.170616
0.171615
0.171594
0.066762
0.0667538
0.0671729
0.0671646
0.185729
0.219547
0.186745
0.220641
0.0721661
0.0843909
0.072592
0.084849
0.279907
0.307569
0.281123
0.308931
0.10501
0.119789
0.105529
0.120343
0.304854
0.277484
0.306299
0.278772
0.118692
0.103972
0.11928
0.104523
0.217359
0.183665
0.218517
0.184741
0.0834658
0.0712903
0.0839517
0.071742
0.168589
0.168569
0.169626
0.169605
0.0658921
0.0658841
0.0663279
0.0663198
0.183604
0.217259
0.184679
0.218417
0.0712657
0.0834239
0.0717172
0.0839093
0.277355
0.304707
0.278641
0.306149
0.103913
0.118619
0.104463
0.119206
0.301828
0.274785
0.303354
0.276146
0.117454
0.102811
0.118075
0.103394
0.214938
0.181416
0.216163
0.182554
0.082442
0.0703368
0.0829562
0.0708152
0.166423
0.166403
0.16752
0.1675
0.0649713
0.0649635
0.0654329
0.065425
0.181356
0.214841
0.182494
0.216065
0.0703129
0.0824011
0.070791
0.0829148
0.274659
0.301685
0.276018
0.303208
0.102754
0.117382
0.103335
0.118003
0.298636
0.271936
0.300246
0.273373
0.116147
0.101584
0.116804
0.1022
0.21238
0.179036
0.213674
0.180241
0.0813594
0.069328
0.0819036
0.0698347
0.164131
0.164111
0.165292
0.165272
0.0639968
0.0639892
0.0644858
0.0644782
0.178978
0.212285
0.180182
0.213579
0.0693048
0.0813196
0.0698111
0.0818632
0.271813
0.298496
0.273248
0.300103
0.101528
0.116078
0.102143
0.116733
0.295268
0.268925
0.296967
0.270445
0.114768
0.100289
0.115461
0.100939
0.209671
0.176514
0.211043
0.177792
0.0802138
0.0682592
0.0807903
0.0687968
0.161699
0.16168
0.162931
0.162912
0.0629638
0.0629565
0.063483
0.0634756
0.176457
0.209579
0.177735
0.210949
0.0682366
0.0801752
0.0687739
0.0807511
0.268806
0.295132
0.270323
0.296829
0.100234
0.114701
0.100883
0.115393
0.291708
0.265734
0.293506
0.267347
0.113309
0.0989193
0.114044
0.0996085
0.206793
0.173828
0.208253
0.175191
0.0789975
0.0671224
0.0796108
0.0676953
0.159108
0.159089
0.160423
0.160404
0.0618645
0.0618574
0.0624182
0.0624111
0.173774
0.206704
0.175136
0.208162
0.0671005
0.07896
0.0676732
0.0795728
0.265618
0.291576
0.267229
0.293371
0.0988664
0.113244
0.0995547
0.113978
0.287932
0.262335
0.289842
0.264056
0.111759
0.0974608
0.112542
0.0981967
0.203716
0.170952
0.20528
0.172415
0.0776978
0.0659057
0.0783547
0.0665205
0.156329
0.156311
0.157743
0.157725
0.0606874
0.0606806
0.0612819
0.061275
0.170899
0.20363
0.172361
0.205192
0.0658847
0.0776617
0.0664991
0.078318
0.262223
0.287804
0.263942
0.289712
0.0974097
0.111696
0.0981447
0.112477
0.283902
0.258689
0.285944
0.260539
0.1101
0.0958965
0.11094
0.0966878
0.200403
0.167844
0.20209
0.169428
0.0762984
0.064593
0.0770077
0.0652583
0.153324
0.153307
0.154856
0.154839
0.0594164
0.0594099
0.0600603
0.0600537
0.167793
0.20032
0.169376
0.202006
0.0645729
0.0762638
0.0652377
0.0769724
0.258581
0.28378
0.260429
0.285819
0.0958475
0.11004
0.0966377
0.110878
0.27957
0.254745
0.281771
0.256751
0.10831
0.0942052
0.109219
0.0950633
0.1968
0.164455
0.198639
0.166187
0.0747776
0.0631629
0.0755509
0.0638901
0.150041
0.150024
0.151719
0.151703
0.0580305
0.0580243
0.0587351
0.0587287
0.164406
0.19672
0.166137
0.198558
0.0631437
0.0747446
0.0638705
0.0755171
0.254642
0.279453
0.256646
0.28165
0.0941584
0.108252
0.0950153
0.109159
0.274868
0.250436
0.277263
0.252634
0.106358
0.0923589
0.107352
0.0932986
0.192841
0.160716
0.194868
0.162633
0.0731072
0.0615876
0.0739594
0.0623915
0.146413
0.146397
0.148273
0.148257
0.0565021
0.0564963
0.057282
0.057276
0.16067
0.192766
0.162585
0.194791
0.0615696
0.073076
0.0623729
0.0739273
0.250338
0.274757
0.252534
0.277148
0.0923145
0.106303
0.093253
0.107295
0.269711
0.245679
0.272346
0.248113
0.104202
0.0903214
0.105304
0.091362
0.188443
0.156544
0.190702
0.158689
0.0712511
0.0598315
0.0722014
0.060731
0.142355
0.14234
0.144442
0.144428
0.054796
0.0547906
0.0556699
0.0556643
0.156501
0.188372
0.158645
0.190629
0.0598148
0.071222
0.0607136
0.0721712
0.245586
0.269607
0.248018
0.272237
0.0902798
0.104151
0.091319
0.105251
0.264
0.240372
0.266924
0.243094
0.101795
0.0880531
0.103029
0.0892139
0.183495
0.151822
0.186045
0.154259
0.0691637
0.0578479
0.0702363
0.0588682
0.137751
0.137737
0.140128
0.140114
0.0528658
0.0528609
0.0538586
0.0538535
0.151782
0.18343
0.154218
0.185976
0.0578326
0.069137
0.0588521
0.0702084
0.240286
0.263902
0.243005
0.266823
0.0880146
0.101747
0.0891738
0.102979
0.257674
0.234384
0.260905
0.237468
0.0990966
0.0855162
0.100479
0.0868167
0.17782
0.146374
0.180764
0.149203
0.0667768
0.055569
0.0680107
0.0567476
0.132437
0.132425
0.135194
0.135181
0.0506498
0.0506455
0.0517945
0.0517899
0.146338
0.17776
0.149165
0.180701
0.0555555
0.0667529
0.0567331
0.0679853
0.234306
0.257585
0.237386
0.260811
0.0854814
0.0990532
0.08678
0.100433
0.251074
0.227298
0.254329
0.231038
0.0962014
0.082621
0.0976473
0.084125
0.170932
0.139871
0.174585
0.143282
0.0639301
0.0528859
0.0654265
0.0542836
0.126199
0.126188
0.129445
0.129434
0.0480783
0.0480746
0.0494084
0.0494044
0.139839
0.17088
0.143248
0.174529
0.0528744
0.0639093
0.054271
0.0654041
0.227229
0.250994
0.230964
0.254244
0.0825904
0.096163
0.0840922
0.0976062
0.247751
0.215353
0.248478
0.22268
0.0935398
0.077988
0.0948653
0.0807916
0.16118
0.131871
0.166592
0.136066
0.0601048
0.0496886
0.062192
0.051347
0.118958
0.118949
0.122686
0.122677
0.0451635
0.0451606
0.0466505
0.0466472
0.131844
0.161136
0.136037
0.166544
0.0496791
0.0600877
0.0513365
0.0621731
0.215294
0.247681
0.222616
0.248403
0.0779626
0.0935071
0.0807635
0.0948295
0.164323
0.137772
0.0988388
0.083026
0.141279
0.117875
0.0809563
0.0682346
0.0774568
0.0407009
0.0362535
0.01158
0.0623963
0.0294984
0.0268784
0.00791703
0.0212798
0.0212877
0.00494632
0.0049487
0.0131468
0.0131539
0.00387118
0.00387291
0.0407114
0.077461
0.0115907
0.0362637
0.029511
0.0624025
0.00792286
0.0268887
0.13777
0.164316
0.0830315
0.0988382
0.117877
0.141275
0.068242
0.0809586
0.251279
0.216603
0.212743
0.18092
0.217961
0.186557
0.184463
0.155836
0.145873
0.102118
0.113722
0.0720385
0.120535
0.0805653
0.093364
0.0553619
0.0813333
0.0813321
0.051789
0.0517917
0.0617219
0.0617223
0.036631
0.0366355
0.102112
0.145858
0.0720408
0.113717
0.0805631
0.120526
0.0553671
0.0933632
0.216578
0.251248
0.180907
0.212725
0.18654
0.217938
0.155829
0.184451
0.312478
0.274917
0.283934
0.247523
0.270134
0.236009
0.245903
0.212856
0.200812
0.155286
0.174732
0.129895
0.166662
0.125162
0.144794
0.103874
0.133956
0.133949
0.108808
0.108804
0.106052
0.106047
0.0849047
0.0849024
0.155263
0.200773
0.129881
0.174704
0.125146
0.166632
0.103865
0.144775
0.274865
0.312418
0.247484
0.283888
0.235969
0.270086
0.212828
0.245868
0.360292
0.321339
0.337739
0.299378
0.310555
0.275114
0.291501
0.256624
0.245701
0.19928
0.224386
0.178359
0.204237
0.161966
0.1864
0.144476
0.177539
0.177527
0.156813
0.156803
0.14255
0.14254
0.125214
0.125207
0.199242
0.245639
0.178329
0.224335
0.161937
0.204188
0.144454
0.186361
0.321258
0.360201
0.299311
0.337663
0.275049
0.310479
0.256571
0.291438
0.398322
0.358583
0.380393
0.340997
0.342678
0.306461
0.327533
0.291659
0.282122
0.235125
0.264892
0.218155
0.234701
0.191891
0.22029
0.177728
0.213064
0.213047
0.196242
0.196227
0.172194
0.17218
0.158165
0.158153
0.235073
0.282039
0.218109
0.264819
0.191849
0.234633
0.177692
0.220231
0.358477
0.398204
0.340903
0.380288
0.306372
0.342578
0.291582
0.327444
0.428258
0.388052
0.414203
0.374203
0.367961
0.331259
0.35609
0.319604
0.311141
0.263772
0.297488
0.250285
0.258964
0.215778
0.247549
0.204534
0.241483
0.241461
0.2281
0.22808
0.195863
0.195845
0.18472
0.184704
0.263708
0.311039
0.250227
0.297395
0.215725
0.258879
0.204487
0.247472
0.387924
0.428116
0.374085
0.414072
0.331149
0.367837
0.319505
0.355977
0.451345
0.410867
0.440572
0.400213
0.387451
0.350446
0.378357
0.341486
0.333729
0.286133
0.323174
0.275678
0.277833
0.234398
0.269017
0.225694
0.263691
0.263666
0.253304
0.25328
0.21433
0.214309
0.205695
0.205676
0.286058
0.333611
0.275608
0.323063
0.234335
0.277733
0.225636
0.268924
0.410719
0.451183
0.400074
0.440418
0.350318
0.387307
0.341367
0.378222
0.468692
0.428064
0.460659
0.420095
0.402076
0.364887
0.395305
0.358197
0.350836
0.303114
0.342906
0.295238
0.292098
0.24851
0.285487
0.241967
0.280579
0.28055
0.272743
0.272716
0.228343
0.228319
0.221843
0.221821
0.30303
0.350703
0.295158
0.34278
0.24844
0.291986
0.2419
0.285381
0.427899
0.468511
0.419938
0.460486
0.364743
0.401915
0.358061
0.395151
0.481284
0.440591
0.475509
0.434842
0.41267
0.375383
0.407813
0.370568
0.363363
0.315588
0.357613
0.309859
0.302516
0.258845
0.297737
0.254101
0.293002
0.29297
0.287293
0.287264
0.238618
0.238592
0.233899
0.233874
0.315496
0.363219
0.309771
0.357474
0.258768
0.302393
0.254027
0.297618
0.440413
0.481089
0.43467
0.47532
0.375226
0.412494
0.370417
0.407644
0.490039
0.449338
0.486077
0.445376
0.420008
0.382684
0.416689
0.379379
0.372167
0.324389
0.368177
0.320397
0.309809
0.266105
0.306506
0.262815
0.301783
0.301749
0.297798
0.297765
0.24585
0.245822
0.24257
0.242543
0.324291
0.372014
0.320302
0.368028
0.266022
0.309676
0.262734
0.306378
0.449148
0.489832
0.445191
0.485875
0.382517
0.419821
0.379216
0.416507
0.495751
0.455087
0.493217
0.452531
0.424771
0.387458
0.42266
0.385337
0.378013
0.330269
0.375413
0.327649
0.314622
0.270926
0.312483
0.268781
0.307667
0.307632
0.305043
0.305008
0.250665
0.250635
0.24852
0.248491
0.330166
0.377853
0.327549
0.375256
0.270839
0.314483
0.268695
0.312347
0.454889
0.495536
0.452337
0.493004
0.387282
0.424576
0.385165
0.422467
0.499116
0.458521
0.497678
0.457047
0.427552
0.390284
0.426365
0.389072
0.381575
0.333891
0.380041
0.332325
0.317527
0.273867
0.316278
0.272598
0.31131
0.311274
0.309732
0.309696
0.253618
0.253587
0.252341
0.252311
0.333785
0.381409
0.332221
0.379877
0.273777
0.317383
0.272509
0.316136
0.458317
0.498895
0.456845
0.497458
0.390103
0.42735
0.388893
0.426165
0.500701
0.460204
0.500088
0.459541
0.428833
0.391643
0.428341
0.39111
0.383409
0.335808
0.382676
0.335033
0.318995
0.275395
0.318411
0.27478
0.313262
0.313225
0.312468
0.312431
0.255171
0.25514
0.254542
0.254511
0.3357
0.38324
0.334925
0.382508
0.275303
0.318848
0.274688
0.318265
0.459996
0.500475
0.459335
0.499863
0.391457
0.428627
0.390926
0.428135
0.500968
0.460594
0.500963
0.460527
0.429008
0.39192
0.429025
0.391885
0.383969
0.336469
0.383823
0.336272
0.319405
0.275885
0.319308
0.275748
0.313969
0.313931
0.313748
0.313711
0.255698
0.255666
0.255541
0.25551
0.336359
0.383798
0.336163
0.383653
0.275791
0.319256
0.275654
0.31916
0.460383
0.50074
0.460317
0.500734
0.391732
0.4288
0.391698
0.428816
0.50029
0.460059
0.500729
0.460423
0.428396
0.391432
0.428784
0.391756
0.383622
0.336236
0.383893
0.336446
0.319072
0.275645
0.319318
0.275841
0.313789
0.313751
0.31397
0.313932
0.255502
0.25547
0.255674
0.255642
0.336126
0.38345
0.336336
0.383722
0.275551
0.318922
0.275747
0.319169
0.459848
0.500061
0.460212
0.500499
0.391244
0.428186
0.391568
0.428574
0.498893
0.458827
0.499656
0.459506
0.427182
0.390365
0.42784
0.390949
0.382594
0.335335
0.383178
0.335855
0.318176
0.274857
0.318678
0.275305
0.312949
0.312911
0.313438
0.3134
0.254765
0.254733
0.255187
0.255155
0.335225
0.382422
0.335745
0.383006
0.274762
0.318027
0.275211
0.318529
0.458616
0.498665
0.459295
0.499425
0.390177
0.426973
0.39076
0.427629
0.496976
0.457095
0.497981
0.458006
0.425535
0.388886
0.426394
0.38966
0.381083
0.333963
0.38189
0.3347
0.316886
0.273685
0.317571
0.27431
0.311644
0.311606
0.312347
0.31231
0.253651
0.253619
0.254247
0.254215
0.333853
0.380912
0.33459
0.381718
0.273591
0.316737
0.274216
0.317421
0.456885
0.496749
0.457796
0.497751
0.388699
0.425327
0.389472
0.426184
0.494658
0.454983
0.495852
0.456073
0.423554
0.387092
0.424571
0.388015
0.379208
0.332239
0.380185
0.333141
0.315299
0.272228
0.316123
0.272986
0.309993
0.309956
0.310858
0.31082
0.252256
0.252225
0.252983
0.252951
0.33213
0.379039
0.333031
0.380015
0.272135
0.315151
0.272893
0.315974
0.454776
0.494434
0.455864
0.495624
0.386907
0.423348
0.387828
0.424363
0.492016
0.452569
0.493364
0.453802
0.421299
0.385047
0.422447
0.386088
0.377048
0.33024
0.37816
0.331272
0.313476
0.270545
0.314412
0.271411
0.308074
0.308037
0.309065
0.309028
0.250642
0.250611
0.251473
0.251442
0.330133
0.37688
0.331164
0.377992
0.270453
0.31333
0.271318
0.314265
0.452363
0.491794
0.453595
0.493138
0.384863
0.421096
0.385904
0.422241
0.489095
0.449898
0.490579
0.451255
0.418809
0.382786
0.420071
0.383933
0.374648
0.328013
0.375876
0.329155
0.311454
0.268674
0.312486
0.269631
0.305931
0.305895
0.30703
0.306994
0.248844
0.248814
0.249764
0.249733
0.327907
0.374482
0.329048
0.37571
0.268583
0.31131
0.269539
0.312341
0.449696
0.488876
0.451051
0.490356
0.382605
0.418609
0.38375
0.419868
0.485922
0.446997
0.487529
0.448467
0.416102
0.380331
0.417471
0.381573
0.372035
0.325584
0.373368
0.326825
0.309255
0.266635
0.310374
0.267674
0.303592
0.303556
0.304787
0.304751
0.246884
0.246853
0.247883
0.247852
0.325479
0.371872
0.326719
0.373203
0.266546
0.309112
0.267584
0.310231
0.446798
0.485706
0.448266
0.48731
0.380153
0.415905
0.381393
0.417271
0.482507
0.443879
0.484235
0.445457
0.413189
0.377692
0.414661
0.379025
0.369223
0.322967
0.370654
0.324301
0.306887
0.264439
0.308089
0.265556
0.30107
0.301035
0.302356
0.30232
0.244771
0.244741
0.245845
0.245815
0.322864
0.369062
0.324197
0.370492
0.264351
0.306747
0.265467
0.307948
0.443683
0.482296
0.445259
0.484019
0.377516
0.412995
0.378848
0.414463
0.478859
0.440549
0.480703
0.442232
0.410073
0.374873
0.411646
0.376296
0.366216
0.320168
0.367744
0.321592
0.304356
0.26209
0.30564
0.263283
0.298372
0.298337
0.299745
0.29971
0.242509
0.24248
0.243658
0.243628
0.320066
0.366059
0.32149
0.367585
0.262003
0.304219
0.263195
0.305501
0.440356
0.478651
0.442038
0.480491
0.3747
0.409883
0.376122
0.411452
0.474977
0.43701
0.476937
0.438798
0.406757
0.371875
0.40843
0.373387
0.363018
0.317187
0.364642
0.318702
0.301664
0.259589
0.303029
0.260858
0.295498
0.295464
0.296959
0.296925
0.240101
0.240072
0.241323
0.241294
0.317087
0.362863
0.318601
0.364486
0.259503
0.301529
0.260772
0.302892
0.436821
0.474773
0.438607
0.47673
0.371706
0.406569
0.373217
0.40824
0.47086
0.433259
0.472938
0.435154
0.403238
0.368698
0.405012
0.3703
0.359626
0.314024
0.361348
0.315631
0.298807
0.256934
0.300254
0.25828
0.292447
0.292413
0.293997
0.293963
0.237545
0.237517
0.238841
0.238813
0.313926
0.359474
0.315532
0.361194
0.256851
0.298675
0.258196
0.300121
0.433074
0.47066
0.434966
0.472735
0.368532
0.403055
0.370133
0.404826
0.466506
0.429291
0.468704
0.431295
0.399515
0.365337
0.401392
0.367031
0.356034
0.310672
0.357856
0.312374
0.295784
0.254123
0.297315
0.255548
0.289212
0.289179
0.290855
0.290821
0.234836
0.234809
0.23621
0.236182
0.310576
0.355885
0.312277
0.357706
0.254041
0.295654
0.255465
0.297184
0.42911
0.466311
0.431111
0.468504
0.365174
0.399336
0.366867
0.40121
0.461908
0.425099
0.464229
0.427217
0.395585
0.361787
0.397567
0.363577
0.352234
0.307121
0.354162
0.308924
0.292587
0.251147
0.294206
0.252656
0.285783
0.285751
0.287525
0.287492
0.231968
0.231941
0.233423
0.233395
0.307027
0.352088
0.308829
0.354014
0.251067
0.29246
0.252575
0.294078
0.424922
0.461717
0.427037
0.464034
0.361629
0.39541
0.363417
0.397388
0.457054
0.420668
0.459505
0.422907
0.391437
0.35804
0.393529
0.359931
0.348209
0.303356
0.350251
0.305269
0.289205
0.247996
0.290919
0.249594
0.282145
0.282114
0.283994
0.283962
0.228929
0.228903
0.230471
0.230444
0.303264
0.348066
0.305176
0.350107
0.247918
0.289082
0.249515
0.290794
0.420495
0.456868
0.422732
0.459315
0.357886
0.391267
0.359774
0.393355
0.451928
0.415979
0.454517
0.418349
0.387059
0.354078
0.389268
0.356079
0.343937
0.299352
0.346106
0.301388
0.285621
0.24465
0.287438
0.246348
0.278273
0.278242
0.280242
0.280211
0.225699
0.225673
0.227339
0.227313
0.299263
0.343799
0.301297
0.345966
0.244574
0.2855
0.246271
0.287317
0.415811
0.451747
0.418178
0.454332
0.353927
0.386893
0.355926
0.389099
0.446498
0.411005
0.449244
0.413523
0.382428
0.349871
0.384767
0.351998
0.339386
0.295074
0.341701
0.297252
0.281806
0.241081
0.283743
0.242895
0.27413
0.274101
0.27624
0.27621
0.222251
0.222226
0.224004
0.223979
0.294988
0.339252
0.297164
0.341564
0.241007
0.281689
0.24282
0.283624
0.410842
0.446323
0.413358
0.449065
0.349726
0.382268
0.35185
0.384603
0.44072
0.405691
0.443647
0.408387
0.37751
0.345387
0.379999
0.347658
0.334504
0.290472
0.336991
0.292819
0.27772
0.237249
0.279798
0.239201
0.269667
0.269638
0.271944
0.271915
0.218543
0.218519
0.220432
0.220407
0.290388
0.334374
0.292734
0.336859
0.237178
0.277608
0.239128
0.279684
0.405533
0.440551
0.408226
0.443473
0.345246
0.377355
0.347515
0.37984
0.434537
0.399975
0.437675
0.40288
0.372255
0.340571
0.374919
0.343016
0.329225
0.285478
0.331919
0.288031
0.273312
0.2331
0.275559
0.235218
0.264815
0.264787
0.267296
0.267268
0.214522
0.214498
0.216575
0.216551
0.285397
0.329099
0.287948
0.331791
0.233031
0.273203
0.235148
0.275448
0.399823
0.434374
0.402725
0.437507
0.340436
0.372106
0.342877
0.374766
0.427872
0.393777
0.431261
0.396934
0.366599
0.335357
0.369473
0.338011
0.323466
0.280008
0.326412
0.28281
0.26851
0.228563
0.270964
0.230885
0.259489
0.259462
0.262219
0.262192
0.210116
0.210094
0.212371
0.212349
0.27993
0.323345
0.282731
0.326289
0.228497
0.268406
0.230817
0.270858
0.393631
0.427715
0.396785
0.4311
0.335227
0.366456
0.337878
0.369325
0.420629
0.386997
0.42432
0.390459
0.360457
0.329658
0.363585
0.332566
0.31712
0.273951
0.320374
0.277062
0.263226
0.223547
0.265933
0.226121
0.253579
0.253553
0.256616
0.25659
0.205234
0.205213
0.207741
0.207719
0.273877
0.317006
0.276986
0.320257
0.223485
0.263127
0.226057
0.265832
0.386858
0.42048
0.390316
0.424166
0.329535
0.360321
0.332439
0.363445
0.412698
0.379515
0.416748
0.383344
0.353729
0.323368
0.357164
0.326586
0.310059
0.267172
0.313689
0.270663
0.257347
0.217937
0.260368
0.220824
0.246944
0.24692
0.250363
0.250339
0.19976
0.19974
0.202579
0.202559
0.267102
0.309951
0.270591
0.313577
0.217878
0.257254
0.220763
0.260271
0.379383
0.412558
0.383208
0.416602
0.323251
0.353601
0.326466
0.357031
0.403981
0.371199
0.408433
0.375461
0.346313
0.31636
0.350103
0.319953
0.302115
0.259486
0.30621
0.263457
0.250727
0.211576
0.254139
0.214861
0.239398
0.239376
0.2433
0.243277
0.193535
0.193516
0.196752
0.196733
0.259421
0.302014
0.26339
0.306105
0.211521
0.25064
0.214805
0.254049
0.371076
0.403849
0.375334
0.408295
0.316252
0.346193
0.319841
0.349978
0.394515
0.361905
0.399315
0.366678
0.33819
0.308482
0.342322
0.312535
0.29303
0.25062
0.29774
0.255225
0.243132
0.204226
0.247072
0.208044
0.23068
0.230659
0.235206
0.235185
0.186339
0.186322
0.190074
0.190057
0.25056
0.292938
0.255162
0.297643
0.204176
0.243053
0.207991
0.246989
0.361792
0.394394
0.36656
0.399188
0.308383
0.33808
0.312431
0.342207
0.38518
0.351176
0.38967
0.356785
0.329948
0.299234
0.333964
0.304097
0.282144
0.240087
0.28789
0.245604
0.233952
0.195465
0.238811
0.200057
0.220447
0.220429
0.225774
0.225755
0.177886
0.177872
0.182286
0.18227
0.240034
0.282061
0.245547
0.287802
0.195421
0.233882
0.20001
0.238736
0.351074
0.385072
0.356678
0.389554
0.299145
0.32985
0.304003
0.333859
0.382603
0.334344
0.382074
0.34449
0.32679
0.284245
0.326946
0.293332
0.26732
0.227264
0.275454
0.233977
0.221257
0.184763
0.228246
0.190365
0.208534
0.208519
0.214683
0.214666
0.168064
0.168052
0.173127
0.173113
0.227218
0.267248
0.233928
0.275376
0.184725
0.221196
0.190325
0.228181
0.334256
0.382507
0.344395
0.38197
0.284169
0.326703
0.29325
0.326853
0.192705
0.162987
0.1215
0.102378
0.180635
0.152165
0.111842
0.0939631
0.097778
0.0569937
0.0495329
0.0197728
0.0889053
0.049638
0.0436146
0.0158403
0.0362391
0.0362463
0.00801536
0.00802146
0.0292222
0.0292299
0.00634719
0.00635178
0.0570012
0.0977767
0.0197907
0.0495416
0.0496469
0.0889069
0.0158569
0.0436241
0.162976
0.192688
0.102378
0.121493
0.152159
0.180622
0.0939663
0.111837
0.292981
0.255289
0.247651
0.212775
0.275074
0.23854
0.232746
0.19906
0.18047
0.133519
0.14122
0.0962347
0.165277
0.119501
0.129198
0.0854525
0.111112
0.111108
0.0744635
0.0744637
0.0976799
0.0976772
0.0642296
0.0642309
0.133504
0.180441
0.0962305
0.141206
0.11949
0.165255
0.0854515
0.129189
0.255248
0.292933
0.21275
0.24762
0.238508
0.275034
0.199042
0.232721
0.367258
0.326658
0.332345
0.292908
0.343455
0.304005
0.311429
0.273144
0.248665
0.199827
0.216154
0.168073
0.227445
0.179806
0.197872
0.150971
0.176628