/*--------------------------------*- C++ -*----------------------------------*\
  =========                 |
  \\      /  F ield         | OpenFOAM: The Open Source CFD Toolbox
   \\    /   O peration     | Website:  https://openfoam.org
    \\  /    A nd           | Version:  9
     \\/     M anipulation  |
\*---------------------------------------------------------------------------*/
FoamFile
{
    format      ascii;
    class       surfaceScalarField;
    location    "3.25";
    object      phi;
}
// * * * * * * * * * * * * * * * * * * * * * * * * * * * * * * * * * * * * * //

dimensions      [0 3 -1 0 0 0 0];

internalField   nonuniform List<scalar> 
104044
(
5.85906e-07
-6.73365e-05
-2.06112e-06
6.59744e-05
2.8373e-06
-4.51686e-05
-1.50856e-06
-2.23377e-07
4.7422e-05
6.44074e-08
3.663e-07
-3.67644e-06
3.77232e-06
-6.305e-07
-1.46652e-07
-4.82174e-07
-4.60761e-08
-7.70021e-05
7.4987e-05
-3.72191e-05
4.04299e-08
3.5624e-05
-2.9247e-09
1.63306e-09
-1.17747e-08
-5.03038e-05
-2.87091e-06
5.05934e-05
2.36977e-06
-5.24808e-05
-1.52653e-06
1.08214e-10
5.27449e-05
1.25057e-06
-6.72278e-09
-2.33247e-06
1.62292e-06
-1.4498e-06
-3.61702e-10
7.94739e-07
-6.38427e-09
-5.193e-05
4.9106e-05
-5.58884e-05
-7.90751e-10
5.43562e-05
-1.16737e-08
-2.61431e-09
-1.43054e-13
-5.33504e-05
-7.03503e-07
5.37894e-05
2.64638e-07
-5.33512e-05
-7.03946e-07
-1.08177e-10
5.379e-05
2.65232e-07
-5.5471e-13
-1.04948e-06
2.29647e-07
-1.04966e-06
3.6111e-10
2.29867e-07
2.00529e-12
-5.57876e-05
5.50833e-05
-5.57886e-05
7.91911e-10
5.50839e-05
2.52615e-12
2.61519e-09
1.17855e-08
-5.24826e-05
-1.52684e-06
5.27466e-05
1.251e-06
-5.03063e-05
-2.87047e-06
2.23424e-07
5.05954e-05
2.36967e-06
6.72635e-09
-1.45017e-06
7.95161e-07
-2.33231e-06
1.46696e-07
1.62292e-06
6.3957e-09
-5.589e-05
5.43576e-05
-5.19321e-05
-4.0423e-08
4.91085e-05
1.16758e-08
-1.63574e-09
-5.85976e-07
-4.51698e-05
-1.50806e-06
4.74228e-05
6.45012e-08
-6.73323e-05
-2.06117e-06
6.59703e-05
2.83727e-06
-3.66355e-07
-6.29543e-07
-4.82425e-07
-3.67656e-06
3.7722e-06
4.59972e-08
-3.72214e-05
3.5627e-05
-7.69946e-05
7.49794e-05
2.90862e-09
3.54282e-07
-6.44852e-05
-2.53138e-06
6.31592e-05
3.50306e-06
-4.8793e-05
1.79593e-06
-9.59964e-08
4.96369e-05
-2.18953e-06
4.77407e-07
-2.26754e-06
3.27935e-06
3.05644e-07
-1.61685e-07
-1.03756e-06
-5.02781e-07
-7.29769e-05
7.09483e-05
-3.55121e-05
2.8748e-07
3.65178e-05
-2.57383e-07
1.6018e-07
-1.22443e-08
-5.07792e-05
-1.80829e-06
5.07309e-05
1.77281e-06
-5.28424e-05
-1.44139e-06
-2.73867e-09
5.27132e-05
1.5611e-06
-1.28011e-08
-2.56057e-06
2.22585e-06
-1.70062e-06
2.16594e-11
1.59031e-06
2.27154e-09
-4.67095e-05
4.51864e-05
-5.26525e-05
-4.07388e-09
5.12175e-05
-3.91333e-09
-8.5158e-10
1.15966e-12
-5.38416e-05
-1.04708e-06
5.36977e-05
1.18829e-06
-5.38421e-05
-1.04704e-06
2.74135e-09
5.36981e-05
1.18829e-06
-1.31706e-13
-9.50958e-07
8.98771e-07
-9.51111e-07
-1.82946e-11
8.98995e-07
1.34377e-12
-5.41315e-05
5.30803e-05
-5.41319e-05
4.0899e-09
5.30808e-05
3.38825e-14
8.54546e-10
1.22648e-08
-5.28439e-05
-1.44112e-06
5.27145e-05
1.56101e-06
-5.07809e-05
-1.80807e-06
9.60159e-08
5.07324e-05
1.77282e-06
1.28187e-08
-1.70052e-06
1.59037e-06
-2.5601e-06
1.61713e-07
2.22575e-06
-2.24954e-09
-5.2654e-05
5.12192e-05
-4.67125e-05
-2.87458e-07
4.51896e-05
3.92983e-09
-1.6017e-07
-3.54387e-07
-4.87935e-05
1.79552e-06
4.96372e-05
-2.18881e-06
-6.44811e-05
-2.53122e-06
6.31553e-05
3.50266e-06
-4.77486e-07
3.05615e-07
-1.03715e-06
-2.26747e-06
3.27912e-06
5.02554e-07
-3.55152e-05
3.65207e-05
-7.29692e-05
7.09406e-05
2.57241e-07
7.91077e-08
-6.20191e-05
-2.77773e-06
6.10296e-05
3.68814e-06
-5.02296e-05
3.08433e-06
1.78309e-08
5.07194e-05
-3.51286e-06
2.14002e-07
-2.64826e-06
3.57436e-06
2.61025e-06
-3.29033e-08
-2.9561e-06
-9.83754e-07
-6.90418e-05
6.72478e-05
-3.79863e-05
5.02442e-07
3.95844e-05
-7.41793e-07
3.99941e-07
2.00366e-08
-5.0641e-05
-8.19984e-07
5.05917e-05
8.671e-07
-5.246e-05
-7.8529e-07
-4.88833e-09
5.21958e-05
1.07445e-06
-1.86679e-09
-1.20299e-06
1.26184e-06
-1.06797e-06
-7.08481e-09
1.32634e-06
3.52604e-08
-4.43674e-05
4.40146e-05
-5.01699e-05
-3.99099e-09
4.94239e-05
1.59648e-08
-4.39924e-09
1.59253e-11
-5.34458e-05
-6.60563e-07
5.31546e-05
9.46804e-07
-5.34462e-05
-6.60504e-07
4.8815e-09
5.3155e-05
9.46805e-07
2.35781e-12
-8.82438e-07
1.12727e-06
-8.82346e-07
7.0979e-09
1.12722e-06
4.21068e-12
-5.21935e-05
5.15289e-05
-5.2194e-05
4.00611e-09
5.15295e-05
2.03847e-12
4.40946e-09
-1.99981e-08
-5.24612e-05
-7.85177e-07
5.21969e-05
1.07437e-06
-5.06424e-05
-8.20011e-07
-1.77916e-08
5.05929e-05
8.67227e-07
1.89053e-09
-1.06776e-06
1.32622e-06
-1.20293e-06
3.29166e-08
1.26195e-06
-3.5222e-08
-5.01718e-05
4.94258e-05
-4.43706e-05
-5.0239e-07
4.40178e-05
-1.59367e-08
-3.99904e-07
-7.92506e-08
-5.02298e-05
3.08354e-06
5.07195e-05
-3.51178e-06
-6.20153e-05
-2.77721e-06
6.1026e-05
3.68733e-06
-2.14132e-07
2.60965e-06
-2.95519e-06
-2.64791e-06
3.57375e-06
9.83326e-07
-3.79889e-05
3.95868e-05
-6.90341e-05
6.72402e-05
7.4147e-07
-1.66003e-07
-6.01839e-05
-2.88819e-06
5.94435e-05
3.79459e-06
-5.11273e-05
3.44461e-06
1.05993e-07
5.14851e-05
-4.07439e-06
-4.86524e-08
-2.81513e-06
3.70947e-06
3.28162e-06
7.70495e-08
-3.81516e-06
-1.39158e-06
-6.56193e-05
6.41227e-05
-4.11044e-05
6.45431e-07
4.2512e-05
-1.18658e-06
5.75108e-07
7.33163e-08
-5.06169e-05
-3.92787e-07
5.06971e-05
3.45258e-07
-5.19808e-05
-4.37513e-07
1.68532e-09
5.18228e-05
6.67154e-07
4.47616e-08
-5.49988e-07
5.57106e-07
-5.75167e-07
-2.39416e-09
8.37326e-07
8.16567e-08
-4.39826e-05
4.41536e-05
-4.89076e-05
1.94588e-09
4.85498e-05
5.7131e-08
-1.78877e-09
1.1067e-11
-5.28905e-05
-3.7751e-07
5.26668e-05
6.02908e-07
-5.28909e-05
-3.77488e-07
-1.64385e-09
5.26672e-05
6.02887e-07
1.48037e-12
-4.85305e-07
7.47005e-07
-4.85266e-07
2.42277e-09
7.46945e-07
1.318e-11
-5.10418e-05
5.06663e-05
-5.10424e-05
-1.90077e-09
5.06669e-05
8.05931e-12
1.81888e-09
-7.32169e-08
-5.19819e-05
-4.37507e-07
5.18238e-05
6.67159e-07
-5.0618e-05
-3.92861e-07
-1.0601e-07
5.06981e-05
3.45555e-07
-4.46607e-08
-5.75122e-07
8.37266e-07
-5.50065e-07
-7.70565e-08
5.5742e-07
-8.15643e-08
-4.89096e-05
4.85518e-05
-4.39857e-05
-6.45269e-07
4.41566e-05
-5.70696e-08
-5.75039e-07
1.65781e-07
-5.11272e-05
3.44355e-06
5.14849e-05
-4.07303e-06
-6.01804e-05
-2.88737e-06
5.94401e-05
3.79341e-06
4.84576e-08
3.2807e-06
-3.81393e-06
-2.81443e-06
3.70846e-06
1.39094e-06
-4.11064e-05
4.25137e-05
-6.56119e-05
6.41154e-05
1.18605e-06
-3.62308e-07
-5.88019e-05
-2.92609e-06
5.8233e-05
3.85729e-06
-5.17946e-05
3.54334e-06
1.25196e-07
5.20639e-05
-4.30013e-06
-2.67756e-07
-2.8818e-06
3.7911e-06
3.475e-06
1.18777e-07
-4.17108e-06
-1.70934e-06
-6.27868e-05
6.157e-05
-4.37496e-05
7.38357e-07
4.48452e-05
-1.54592e-06
6.91488e-07
1.31051e-07
-5.08128e-05
-2.44684e-07
5.09508e-05
1.00898e-07
-5.17199e-05
-2.58247e-07
1.34244e-08
5.16597e-05
4.36119e-07
1.01538e-07
-2.95424e-07
1.96922e-07
-3.31122e-07
7.04377e-09
5.28504e-07
1.26423e-07
-4.44449e-05
4.48122e-05
-4.83165e-05
1.25919e-08
4.81721e-05
1.04686e-07
6.89808e-09
-1.0943e-11
-5.24885e-05
-2.57015e-07
5.23465e-05
4.1241e-07
-5.24888e-05
-2.57056e-07
-1.34066e-08
5.23469e-05
4.12416e-07
1.01455e-11
-3.01913e-07
4.87258e-07
-3.01906e-07
-6.99667e-09
4.87247e-07
-2.13858e-10
-5.03712e-05
5.0127e-05
-5.03718e-05
-1.31409e-08
5.01277e-05
-9.6158e-13
-6.86228e-09
-1.3078e-07
-5.17208e-05
-2.58504e-07
5.16605e-05
4.36158e-07
-5.08138e-05
-2.44507e-07
-1.25222e-07
5.09515e-05
1.01201e-07
-1.01406e-07
-3.31145e-07
5.28523e-07
-2.9546e-07
-1.18815e-07
1.97202e-07
-1.27617e-07
-4.83182e-05
4.81742e-05
-4.44479e-05
-7.38667e-07
4.48145e-05
-1.04452e-07
-6.91305e-07
3.62005e-07
-5.17943e-05
3.5422e-06
5.20635e-05
-4.29861e-06
-5.87987e-05
-2.92497e-06
5.82299e-05
3.85577e-06
2.67504e-07
3.47388e-06
-4.16965e-06
-2.8808e-06
3.78972e-06
1.70833e-06
-4.37511e-05
4.48463e-05
-6.27798e-05
6.15632e-05
1.54518e-06
-5.11505e-07
-5.77323e-05
-2.93421e-06
5.72814e-05
3.89661e-06
-5.22899e-05
3.54464e-06
1.34337e-07
5.24794e-05
-4.38002e-06
-4.37777e-07
-2.90065e-06
3.83921e-06
3.51344e-06
1.30705e-07
-4.3079e-06
-1.9457e-06
-6.04875e-05
5.9499e-05
-4.57799e-05
7.88972e-07
4.65899e-05
-1.81816e-06
7.60529e-07
1.81135e-07
-5.11024e-05
-2.11002e-07
5.12586e-05
8.0083e-09
-5.16326e-05
-1.59629e-07
2.53942e-08
5.16295e-05
3.18456e-07
1.55917e-07
-2.16351e-07
3.95174e-08
-1.99772e-07
2.01158e-08
3.62655e-07
1.53323e-07
-4.52163e-05
4.5641e-05
-4.8093e-05
2.6038e-08
4.80607e-05
1.40041e-07
1.933e-08
-5.04911e-12
-5.22373e-05
-1.99546e-07
5.21513e-05
3.10975e-07
-5.22376e-05
-1.99546e-07
-2.5448e-08
5.21516e-05
3.11009e-07
2.53618e-11
-2.21562e-07
3.5085e-07
-2.21539e-07
-2.00463e-08
3.50856e-07
1.56234e-12
-4.99247e-05
4.97512e-05
-4.99252e-05
-2.6172e-08
4.97519e-05
1.11946e-10
-1.89647e-08
-1.81022e-07
-5.16334e-05
-1.5976e-07
5.16302e-05
3.18487e-07
-5.1103e-05
-2.11059e-07
-1.34381e-07
5.12591e-05
8.31579e-09
-1.55856e-07
-1.99703e-07
3.6268e-07
-2.16567e-07
-1.30707e-07
3.98911e-08
-1.53714e-07
-4.80946e-05
4.80624e-05
-4.52188e-05
-7.88871e-07
4.56429e-05
-1.3912e-07
-7.60045e-07
5.1116e-07
-5.22895e-05
3.54323e-06
5.2479e-05
-4.37827e-06
-5.77293e-05
-2.93297e-06
5.72785e-05
3.89488e-06
4.37482e-07
3.5121e-06
-4.30626e-06
-2.89946e-06
3.83756e-06
1.94467e-06
-4.5781e-05
4.65907e-05
-6.04811e-05
5.94928e-05
1.81733e-06
-6.22246e-07
-5.68773e-05
-2.92507e-06
5.65076e-05
3.91702e-06
-5.26347e-05
3.50548e-06
1.30069e-07
5.27593e-05
-4.3824e-06
-5.65194e-07
-2.89833e-06
3.86759e-06
3.48971e-06
1.3206e-07
-4.34227e-06
-2.11421e-06
-5.86169e-05
5.78061e-05
-4.72687e-05
8.1031e-07
4.78496e-05
-2.01625e-06
7.94711e-07
2.18908e-07
-5.14065e-05
-2.34317e-07
5.15465e-05
5.4631e-09
-5.16423e-05
-1.09359e-07
3.55693e-08
5.16651e-05
2.69862e-07
1.99339e-07
-2.16077e-07
8.96156e-10
-1.28555e-07
3.01188e-08
2.84983e-07
1.7225e-07
-4.6056e-05
4.64598e-05
-4.80633e-05
3.46529e-08
4.80916e-05
1.63596e-07
3.23617e-08
2.35726e-11
-5.20852e-05
-1.64192e-07
5.20331e-05
2.51775e-07
-5.20854e-05
-1.64629e-07
-3.51086e-08
5.20334e-05
2.5182e-07
3.50069e-11
-1.78674e-07
2.74894e-07
-1.78538e-07
-3.01798e-08
2.74929e-07
-1.16345e-09
-4.96044e-05
4.9476e-05
-4.96045e-05
-3.84918e-08
4.94772e-05
4.79015e-10
-3.06566e-08
-2.18545e-07
-5.16429e-05
-1.09226e-07
5.16657e-05
2.69907e-07
-5.14071e-05
-2.33857e-07
-1.30191e-07
5.15468e-05
5.77472e-09
-1.99301e-07
-1.286e-07
2.85009e-07
-2.16376e-07
-1.32061e-07
1.1978e-09
-1.75344e-07
-4.8065e-05
4.80927e-05
-4.60586e-05
-8.11227e-07
4.64607e-05
-1.61886e-07
-7.93965e-07
6.218e-07
-5.26343e-05
3.50412e-06
5.27588e-05
-4.38055e-06
-5.68746e-05
-2.9236e-06
5.6505e-05
3.91508e-06
5.64856e-07
3.4882e-06
-4.34046e-06
-2.89698e-06
3.86574e-06
2.11268e-06
-4.72696e-05
4.78498e-05
-5.86111e-05
5.78002e-05
2.01533e-06
-7.03307e-07
-5.61698e-05
-2.90597e-06
5.58557e-05
3.92341e-06
-5.28562e-05
3.45069e-06
1.19688e-07
5.29276e-05
-4.34509e-06
-6.59439e-07
-2.8854e-06
3.88265e-06
3.4429e-06
1.24096e-07
-4.32326e-06
-2.2298e-06
-5.70769e-05
5.64007e-05
-4.83291e-05
8.15186e-07
4.87348e-05
-2.1562e-06
8.07248e-07
2.44638e-07
-5.16749e-05
-2.82411e-07
5.17858e-05
4.65041e-08
-5.16928e-05
-8.83308e-08
4.42895e-08
5.17216e-05
2.59811e-07
2.30834e-07
-2.53802e-07
1.86839e-08
-9.49662e-08
3.9414e-08
2.58733e-07
1.87755e-07
-4.6832e-05
4.7177e-05
-4.81354e-05
4.44878e-08
4.81903e-05
1.81218e-07
4.24302e-08
4.54404e-12
-5.19921e-05
-1.40691e-07
5.19575e-05
2.1958e-07
-5.19923e-05
-1.40795e-07
-4.422e-08
5.19577e-05
2.19629e-07
9.93874e-12
-1.4998e-07
2.30447e-07
-1.49682e-07
-3.9718e-08
2.30495e-07
-1.88858e-10
-4.93673e-05
4.92713e-05
-4.93675e-05
-4.53925e-08
4.92719e-05
1.12448e-09
-3.89088e-08
-2.44487e-07
-5.16933e-05
-8.83691e-08
5.17221e-05
2.59847e-07
-5.16753e-05
-2.82425e-07
-1.1977e-07
5.17861e-05
4.69094e-08
-2.30858e-07
-9.52747e-08
2.58792e-07
-2.5428e-07
-1.24055e-07
1.89945e-08
-1.88338e-07
-4.8137e-05
4.81916e-05
-4.6834e-05
-8.15121e-07
4.71783e-05
-1.78492e-07
-8.06082e-07
7.02874e-07
-5.28557e-05
3.44903e-06
5.29271e-05
-4.34304e-06
-5.61673e-05
-2.90447e-06
5.58533e-05
3.92137e-06
6.59086e-07
3.44119e-06
-4.32126e-06
-2.88395e-06
3.88066e-06
2.22849e-06
-4.83296e-05
4.87351e-05
-5.70715e-05
5.63956e-05
2.15529e-06
-7.61111e-07
-5.55632e-05
-2.87687e-06
5.52867e-05
3.91456e-06
-5.2977e-05
3.38455e-06
1.07096e-07
5.30039e-05
-4.27964e-06
-7.27363e-07
-2.86053e-06
3.88032e-06
3.38222e-06
1.12423e-07
-4.27142e-06
-2.3033e-06
-5.57885e-05
5.52149e-05
-4.90639e-05
8.08431e-07
4.93367e-05
-2.24832e-06
8.04759e-07
2.60502e-07
-5.18788e-05
-3.36766e-07
5.19551e-05
1.07031e-07
-5.1748e-05
-8.57885e-08
5.17271e-08
5.17699e-05
2.72622e-07
2.51033e-07
-3.07185e-07
7.56243e-08
-8.45183e-08
4.7715e-08
2.61496e-07
1.97045e-07
-4.74833e-05
4.77579e-05
-4.8249e-05
5.17311e-08
4.83085e-05
1.91247e-07
4.80912e-08
2.0329e-11
-5.19272e-05
-1.26281e-07
5.18981e-05
2.07011e-07
-5.19274e-05
-1.2631e-07
-5.16669e-08
5.18983e-05
2.07045e-07
1.56543e-11
-1.31164e-07
2.09151e-07
-1.31192e-07
-4.76654e-08
2.09189e-07
1.87723e-11
-4.91882e-05
4.91137e-05
-4.91887e-05
-5.16808e-08
4.91141e-05
1.60616e-11
-4.7975e-08
-2.60334e-07
-5.17484e-05
-8.58485e-08
5.17702e-05
2.72639e-07
-5.1879e-05
-3.36807e-07
-1.07177e-07
5.19552e-05
1.07385e-07
-2.50875e-07
-8.45816e-08
2.61519e-07
-3.07234e-07
-1.12499e-07
7.59789e-08
-1.96937e-07
-4.82501e-05
4.83095e-05
-4.74845e-05
-8.08188e-07
4.7759e-05
-1.91101e-07
-8.04523e-07
7.60652e-07
-5.29765e-05
3.3828e-06
5.30033e-05
-4.2775e-06
-5.5561e-05
-2.87528e-06
5.52845e-05
3.91239e-06
7.26922e-07
3.38054e-06
-4.26935e-06
-2.85892e-06
3.87817e-06
2.30193e-06
-4.90641e-05
4.93368e-05
-5.57836e-05
5.52103e-05
2.24699e-06
-8.01369e-07
-5.50241e-05
-2.84229e-06
5.47717e-05
3.89612e-06
-5.30123e-05
3.31026e-06
9.41808e-08
5.30001e-05
-4.1936e-06
-7.75795e-07
-2.83027e-06
3.86857e-06
3.31418e-06
9.9665e-08
-4.19808e-06
-2.34582e-06
-5.46906e-05
5.41941e-05
-4.95502e-05
7.95231e-07
4.97194e-05
-2.30592e-06
7.94845e-07
2.69279e-07
-5.20135e-05
-3.87742e-07
5.20547e-05
1.71485e-07
-5.17851e-05
-9.45954e-08
5.756e-08
5.17924e-05
2.99047e-07
2.63122e-07
-3.59912e-07
1.38046e-07
-8.83537e-08
5.4326e-08
2.81925e-07
2.01855e-07
-4.79949e-05
4.82005e-05
-4.83641e-05
5.69191e-08
4.84145e-05
1.98016e-07
5.40085e-08
2.50434e-11
-5.18688e-05
-1.19915e-07
5.1837e-05
2.09242e-07
-5.1869e-05
-1.19937e-07
-5.74903e-08
5.18372e-05
2.09269e-07
2.29153e-11
-1.2096e-07
2.04573e-07
-1.20986e-07
-5.42609e-08
2.04603e-07
2.49485e-11
-4.90467e-05
4.89837e-05
-4.90471e-05
-5.68527e-08
4.8984e-05
2.23712e-11
-5.39474e-08
-2.69104e-07
-5.17854e-05
-9.46496e-08
5.17926e-05
2.99054e-07
-5.20136e-05
-3.87773e-07
-9.42693e-08
5.20547e-05
1.71838e-07
-2.62952e-07
-8.84097e-08
2.81935e-07
-3.59943e-07
-9.97483e-08
1.38391e-07
-2.01732e-07
-4.83651e-05
4.84153e-05
-4.79957e-05
-7.9498e-07
4.82012e-05
-1.97899e-07
-7.94599e-07
8.0089e-07
-5.30117e-05
3.30844e-06
5.29995e-05
-4.19138e-06
-5.50221e-05
-2.84064e-06
5.47698e-05
3.89388e-06
7.7533e-07
3.31242e-06
-4.19592e-06
-2.82857e-06
3.86632e-06
2.34437e-06
-4.95501e-05
4.97191e-05
-5.46862e-05
5.419e-05
2.30452e-06
-8.28353e-07
-5.45277e-05
-2.80285e-06
5.42893e-05
3.86955e-06
-5.2972e-05
3.22862e-06
8.21441e-08
5.29249e-05
-4.09199e-06
-8.082e-07
-2.79215e-06
3.84437e-06
3.23538e-06
8.71567e-08
-4.10264e-06
-2.36409e-06
-5.37363e-05
5.32975e-05
-4.98411e-05
7.78156e-07
4.99275e-05
-2.33431e-06
7.79281e-07
2.72713e-07
-5.20783e-05
-4.34131e-07
5.20845e-05
2.37361e-07
-5.17903e-05
-1.10456e-07
6.18283e-08
5.17778e-05
3.3385e-07
2.6886e-07
-4.07912e-07
2.02575e-07
-1.00915e-07
5.92851e-08
3.12578e-07
2.03434e-07
-4.83709e-05
4.85115e-05
-4.84562e-05
6.05648e-08
4.84886e-05
2.00988e-07
5.83425e-08
2.75941e-11
-5.18016e-05
-1.19976e-07
5.17603e-05
2.23118e-07
-5.18017e-05
-1.19999e-07
-6.17532e-08
5.17604e-05
2.2314e-07
2.61558e-11
-1.18116e-07
2.1279e-07
-1.1814e-07
-5.92131e-08
2.12815e-07
2.79319e-11
-4.89239e-05
4.88644e-05
-4.89242e-05
-6.04928e-08
4.88647e-05
2.63532e-11
-5.82736e-08
-2.72536e-07
-5.17905e-05
-1.10504e-07
5.17779e-05
3.33846e-07
-5.20782e-05
-4.34161e-07
-8.22398e-08
5.20844e-05
2.37718e-07
-2.68685e-07
-1.00965e-07
3.1258e-07
-4.07938e-07
-8.72482e-08
2.02924e-07
-2.03305e-07
-4.84569e-05
4.84892e-05
-4.83714e-05
-7.77903e-07
4.85119e-05
-2.00863e-07
-7.7903e-07
8.27857e-07
-5.29714e-05
3.22676e-06
5.29243e-05
-4.08972e-06
-5.45258e-05
-2.80117e-06
5.42876e-05
3.86726e-06
8.07717e-07
3.23357e-06
-4.10042e-06
-2.7904e-06
3.84205e-06
2.36259e-06
-4.98408e-05
4.99271e-05
-5.37324e-05
5.32938e-05
2.33285e-06
-8.44748e-07
-5.4055e-05
-2.76079e-06
5.38227e-05
3.83789e-06
-5.28637e-05
3.14206e-06
7.1432e-08
5.27843e-05
-3.97885e-06
-8.29739e-07
-2.7526e-06
3.81663e-06
3.15313e-06
7.58982e-08
-3.9976e-06
-2.36408e-06
-5.28885e-05
5.24918e-05
-4.99756e-05
7.59014e-07
4.99946e-05
-2.34359e-06
7.61462e-07
2.72251e-07
-5.20737e-05
-4.75087e-07
5.2045e-05
3.02914e-07
-5.17542e-05
-1.30926e-07
6.468e-08
5.17182e-05
3.74496e-07
2.70279e-07
-4.51969e-07
2.68417e-07
-1.19217e-07
6.2817e-08
3.50267e-07
2.02635e-07
-4.86196e-05
4.87009e-05
-4.85095e-05
6.28604e-08
4.85183e-05
2.01356e-07
6.12804e-08
2.95517e-11
-5.17125e-05
-1.25857e-07
5.16561e-05
2.46863e-07
-5.17125e-05
-1.25878e-07
-6.46007e-08
5.16562e-05
2.46882e-07
2.8357e-11
-1.21056e-07
2.31632e-07
-1.21078e-07
-6.27404e-08
2.31652e-07
2.99713e-11
-4.88046e-05
4.87416e-05
-4.88049e-05
-6.27848e-08
4.87418e-05
2.87591e-11
-6.12071e-08
-2.72072e-07
-5.17543e-05
-1.30967e-07
5.17182e-05
3.74484e-07
-5.20735e-05
-4.75087e-07
-7.15339e-08
5.20448e-05
3.03246e-07
-2.70103e-07
-1.19261e-07
3.50257e-07
-4.51994e-07
-7.59961e-08
2.68766e-07
-2.02504e-07
-4.851e-05
4.85187e-05
-4.86199e-05
-7.5876e-07
4.8701e-05
-2.01227e-07
-7.6121e-07
8.44239e-07
-5.28631e-05
3.14017e-06
5.27837e-05
-3.97653e-06
-5.40534e-05
-2.75909e-06
5.38212e-05
3.83558e-06
8.29241e-07
3.15129e-06
-3.99534e-06
-2.75084e-06
3.81429e-06
2.36255e-06
-4.99751e-05
4.99939e-05
-5.28851e-05
5.24885e-05
2.34209e-06
-8.52971e-07
-5.35906e-05
-2.71819e-06
5.33571e-05
3.80461e-06
-5.26917e-05
3.05264e-06
6.21424e-08
5.25806e-05
-3.8566e-06
-8.41334e-07
-2.70912e-06
3.78255e-06
3.06449e-06
6.59752e-08
-3.8792e-06
-2.3497e-06
-5.21175e-05
5.1749e-05
-4.99827e-05
7.38685e-07
4.9947e-05
-2.33486e-06
7.4146e-07
2.691e-07
-5.19998e-05
-5.09678e-07
5.1937e-05
3.65595e-07
-5.16697e-05
-1.54315e-07
6.62917e-08
5.16071e-05
4.19762e-07
2.6824e-07
-4.88377e-07
3.31317e-07
-1.40921e-07
6.49732e-08
3.92714e-07
2.00139e-07
-4.87544e-05
4.87833e-05
-4.8514e-05
6.40224e-08
4.84958e-05
1.99555e-07
6.29316e-08
3.10122e-11
-5.15911e-05
-1.37283e-07
5.15151e-05
2.7952e-07
-5.15911e-05
-1.37304e-07
-6.62092e-08
5.15151e-05
2.79537e-07
3.00366e-11
-1.29593e-07
2.59563e-07
-1.29613e-07
-6.48928e-08
2.59581e-07
3.14503e-11
-4.86749e-05
4.86016e-05
-4.86751e-05
-6.39446e-08
4.86017e-05
3.04644e-11
-6.28555e-08
-2.68922e-07
-5.16697e-05
-1.54353e-07
5.1607e-05
4.19747e-07
-5.19996e-05
-5.09674e-07
-6.22487e-08
5.19366e-05
3.65918e-07
-2.68062e-07
-1.40958e-07
3.92699e-07
-4.88368e-07
-6.60785e-08
3.31636e-07
-2.00008e-07
-4.85143e-05
4.8496e-05
-4.87544e-05
-7.38436e-07
4.87832e-05
-1.99426e-07
-7.41211e-07
8.52452e-07
-5.26911e-05
3.05075e-06
5.25799e-05
-3.85427e-06
-5.35891e-05
-2.7165e-06
5.33558e-05
3.80231e-06
8.40824e-07
3.06263e-06
-3.87691e-06
-2.70735e-06
3.78019e-06
2.34816e-06
-4.9982e-05
4.99462e-05
-5.21145e-05
5.17462e-05
2.33334e-06
-8.55384e-07
-5.31208e-05
-2.6781e-06
5.28799e-05
3.77439e-06
-5.24572e-05
2.95986e-06
5.4314e-08
5.23152e-05
-3.72761e-06
-8.46234e-07
-2.66746e-06
3.75003e-06
2.97359e-06
5.74965e-08
-3.75396e-06
-2.32739e-06
-5.13978e-05
5.10471e-05
-4.98829e-05
7.1879e-07
4.97965e-05
-2.31625e-06
7.21465e-07
2.64288e-07
-5.18583e-05
-5.42716e-07
5.17612e-05
4.29929e-07
-5.15311e-05
-1.80926e-07
6.69557e-08
5.14395e-05
4.69834e-07
2.64161e-07
-5.21589e-07
3.93548e-07
-1.6576e-07
6.60563e-08
4.39802e-07
1.96654e-07
-4.87866e-05
4.87661e-05
-4.8463e-05
6.43635e-08
4.84143e-05
1.96529e-07
6.36483e-08
3.20697e-11
-5.14287e-05
-1.53928e-07
5.1329e-05
3.20501e-07
-5.14286e-05
-1.53946e-07
-6.68714e-08
5.1329e-05
3.20515e-07
3.12714e-11
-1.43538e-07
2.96038e-07
-1.43557e-07
-6.59737e-08
2.96053e-07
3.24878e-11
-4.85217e-05
4.84321e-05
-4.85218e-05
-6.42841e-08
4.84322e-05
3.17034e-11
-6.35703e-08
-2.64111e-07
-5.1531e-05
-1.8096e-07
5.14394e-05
4.69815e-07
-5.1858e-05
-5.42712e-07
-5.44233e-08
5.17608e-05
4.30255e-07
-2.63985e-07
-1.65796e-07
4.39784e-07
-5.21584e-07
-5.76033e-08
3.9386e-07
-1.96523e-07
-4.84631e-05
4.84144e-05
-4.87864e-05
-7.18544e-07
4.87657e-05
-1.96399e-07
-7.21219e-07
8.54858e-07
-5.24565e-05
2.95798e-06
5.23145e-05
-3.7253e-06
-5.31195e-05
-2.67642e-06
5.28787e-05
3.7721e-06
8.45718e-07
2.97173e-06
-3.75168e-06
-2.6657e-06
3.74769e-06
2.32585e-06
-4.9882e-05
4.97956e-05
-5.13952e-05
5.10446e-05
2.31472e-06
-8.52062e-07
-5.26334e-05
-2.63867e-06
5.23793e-05
3.7449e-06
-5.21607e-05
2.86351e-06
4.76448e-08
5.19869e-05
-3.58938e-06
-8.45613e-07
-2.62836e-06
3.72045e-06
2.88024e-06
5.03333e-08
-3.62165e-06
-2.29515e-06
-5.07075e-05
5.0364e-05
-4.96866e-05
6.98433e-07
4.95565e-05
-2.28877e-06
7.01405e-07
2.58093e-07
-5.16477e-05
-5.73524e-07
5.15152e-05
4.95638e-07
-5.13335e-05
-2.09564e-07
6.68005e-08
5.12103e-05
5.24057e-07
2.5864e-07
-5.53146e-07
4.58258e-07
-1.93082e-07
6.62823e-08
4.91437e-07
1.92242e-07
-4.87218e-05
4.86544e-05
-4.83502e-05
6.39533e-08
4.82689e-05
1.9256e-07
6.35859e-08
3.2691e-11
-5.12172e-05
-1.74802e-07
5.10898e-05
3.68924e-07
-5.12171e-05
-1.74818e-07
-6.67156e-08
5.10898e-05
3.68935e-07
3.21061e-11
-1.62264e-07
3.40348e-07
-1.62281e-07
-6.61984e-08
3.40361e-07
3.30505e-11
-4.83334e-05
4.82225e-05
-4.83334e-05
-6.38735e-08
4.82225e-05
3.24943e-11
-6.3507e-08
-2.57919e-07
-5.13333e-05
-2.09593e-07
5.12101e-05
5.24032e-07
-5.16473e-05
-5.73513e-07
-4.77558e-08
5.15147e-05
4.9595e-07
-2.58466e-07
-1.93113e-07
4.91415e-07
-5.53138e-07
-5.04424e-08
4.58573e-07
-1.92113e-07
-4.83502e-05
4.82688e-05
-4.87213e-05
-6.98193e-07
4.86539e-05
-1.92431e-07
-7.01164e-07
8.51534e-07
-5.216e-05
2.86166e-06
5.19861e-05
-3.5871e-06
-5.26323e-05
-2.63702e-06
5.23782e-05
3.74265e-06
8.45092e-07
2.87841e-06
-3.61939e-06
-2.62663e-06
3.71814e-06
2.29362e-06
-4.96856e-05
4.95554e-05
-5.07053e-05
5.03618e-05
2.28724e-06
-8.45385e-07
-5.21167e-05
-2.60435e-06
5.18437e-05
3.72279e-06
-5.18004e-05
2.76603e-06
4.21623e-08
5.15934e-05
-3.44655e-06
-8.40736e-07
-2.59206e-06
3.69534e-06
2.78455e-06
4.4352e-08
-3.48319e-06
-2.25851e-06
-5.00269e-05
4.96811e-05
-4.94044e-05
6.78906e-07
4.9233e-05
-2.25493e-06
6.81797e-07
2.51328e-07
-5.13664e-05
-6.03702e-07
5.11974e-05
5.63519e-07
-5.10718e-05
-2.40858e-07
6.60738e-08
5.09143e-05
5.83537e-07
2.52235e-07
-5.83366e-07
5.24292e-07
-2.22746e-07
6.58438e-08
5.47731e-07
1.87442e-07
-4.85648e-05
4.84526e-05
-4.81713e-05
6.30611e-08
4.80548e-05
1.88014e-07
6.29343e-08
3.28927e-11
-5.09486e-05
-2.00414e-07
5.07899e-05
4.25194e-07
-5.09485e-05
-2.00429e-07
-6.59888e-08
5.07898e-05
4.25202e-07
3.25007e-11
-1.85178e-07
3.92209e-07
-1.85194e-07
-6.57596e-08
3.92219e-07
3.3285e-11
-4.81002e-05
4.79628e-05
-4.81002e-05
-6.29816e-08
4.79628e-05
3.28819e-11
-6.28553e-08
-2.51157e-07
-5.10715e-05
-2.40882e-07
5.0914e-05
5.83507e-07
-5.13659e-05
-6.03684e-07
-4.2274e-08
5.11968e-05
5.63815e-07
-2.52065e-07
-2.22771e-07
5.47704e-07
-5.83349e-07
-4.44623e-08
5.24591e-07
-1.87316e-07
-4.81711e-05
4.80545e-05
-4.85642e-05
-6.78673e-07
4.84519e-05
-1.87887e-07
-6.81562e-07
8.44859e-07
-5.17997e-05
2.76421e-06
5.15926e-05
-3.44431e-06
-5.21157e-05
-2.60273e-06
5.18427e-05
3.72057e-06
8.40214e-07
2.78275e-06
-3.48096e-06
-2.59035e-06
3.69307e-06
2.25699e-06
-4.94032e-05
4.92317e-05
-5.00249e-05
4.96792e-05
2.25342e-06
-8.35773e-07
-5.15596e-05
-2.5748e-06
5.12621e-05
3.70809e-06
-5.13732e-05
2.66667e-06
3.76695e-08
5.11309e-05
-3.29788e-06
-8.32581e-07
-2.56044e-06
3.67706e-06
2.68717e-06
3.94279e-08
-3.33895e-06
-2.21808e-06
-4.93373e-05
4.89805e-05
-4.90407e-05
6.60091e-07
4.88292e-05
-2.21664e-06
6.62811e-07
2.44186e-07
-5.10117e-05
-6.34107e-07
5.08044e-05
6.3486e-07
-5.07404e-05
-2.74855e-07
6.48868e-08
5.05459e-05
6.48714e-07
2.45322e-07
-6.13223e-07
5.93047e-07
-2.5504e-07
6.48798e-08
6.09376e-07
1.82391e-07
-4.83191e-05
4.81627e-05
-4.7921e-05
6.18044e-08
4.77667e-05
1.83118e-07
6.18562e-08
3.28285e-11
-5.06157e-05
-2.30565e-07
5.04218e-05
4.89307e-07
-5.06156e-05
-2.30578e-07
-6.48026e-08
5.04217e-05
4.89313e-07
3.25663e-11
-2.12819e-07
4.51804e-07
-2.12833e-07
-6.4796e-08
4.51811e-07
3.32069e-11
-4.78118e-05
4.7643e-05
-4.78118e-05
-6.17257e-08
4.76429e-05
3.29549e-11
-6.17778e-08
-2.4402e-07
-5.07401e-05
-2.74874e-07
5.05455e-05
6.48679e-07
-5.10111e-05
-6.34083e-07
-3.77807e-08
5.08038e-05
6.35141e-07
-2.45155e-07
-2.5506e-07
6.09344e-07
-6.13199e-07
-3.95382e-08
5.93331e-07
-1.82267e-07
-4.79207e-05
4.77664e-05
-4.83183e-05
-6.59865e-07
4.81618e-05
-1.82993e-07
-6.62583e-07
8.3525e-07
-5.13724e-05
2.66489e-06
5.11301e-05
-3.29569e-06
-5.15587e-05
-2.57322e-06
5.12612e-05
3.70592e-06
8.32061e-07
2.68541e-06
-3.33676e-06
-2.55877e-06
3.67483e-06
2.21658e-06
-4.90394e-05
4.88279e-05
-4.93356e-05
4.89789e-05
2.21514e-06
-8.2393e-07
-5.09512e-05
-2.55056e-06
5.06238e-05
3.70186e-06
-5.08746e-05
2.56539e-06
3.40559e-08
5.05946e-05
-3.14334e-06
-8.21894e-07
-2.53386e-06
3.6667e-06
2.58794e-06
3.54282e-08
-3.18893e-06
-2.17499e-06
-4.86219e-05
4.82463e-05
-4.85973e-05
6.42058e-07
4.83457e-05
-2.17521e-06
6.44575e-07
2.36876e-07
-5.05796e-05
-6.65709e-07
5.03317e-05
7.10846e-07
-5.03337e-05
-3.11821e-07
6.33645e-08
5.00988e-05
7.20187e-07
2.38151e-07
-6.43807e-07
6.65844e-07
-2.90136e-07
6.35261e-08
6.76963e-07
1.77227e-07
-4.79854e-05
4.77845e-05
-4.75942e-05
6.02899e-08
4.73993e-05
1.7805e-07
6.04739e-08
3.25107e-11
-5.0211e-05
-2.65154e-07
4.99781e-05
5.6141e-07
-5.02109e-05
-2.65165e-07
-6.32817e-08
4.99779e-05
5.61414e-07
3.23757e-11
-2.44873e-07
5.19229e-07
-2.44885e-07
-6.34433e-08
5.19234e-07
3.28554e-11
-4.74586e-05
4.72537e-05
-4.74585e-05
-6.02127e-08
4.72536e-05
3.27384e-11
-6.03967e-08
-2.36714e-07
-5.03333e-05
-3.11836e-07
5.00984e-05
7.20148e-07
-5.0579e-05
-6.65679e-07
-3.41658e-08
5.0331e-05
7.11112e-07
-2.37988e-07
-2.90152e-07
6.76926e-07
-6.43777e-07
-3.55376e-08
6.66113e-07
-1.77107e-07
-4.75937e-05
4.73988e-05
-4.79845e-05
-6.41839e-07
4.77835e-05
-1.77929e-07
-6.44355e-07
8.23412e-07
-5.08738e-05
2.56367e-06
5.05938e-05
-3.1412e-06
-5.09503e-05
-2.54902e-06
5.0623e-05
3.69974e-06
8.21379e-07
2.58622e-06
-3.1868e-06
-2.53223e-06
3.66452e-06
2.17353e-06
-4.8596e-05
4.83443e-05
-4.86204e-05
4.82449e-05
2.17374e-06
-8.10222e-07
-5.02807e-05
-2.53134e-06
4.99182e-05
3.70405e-06
-5.02995e-05
2.46151e-06
3.12109e-08
4.99787e-05
-2.98219e-06
-8.08963e-07
-2.51164e-06
3.66366e-06
2.48572e-06
3.22339e-08
-3.03185e-06
-2.12964e-06
-4.78655e-05
4.74638e-05
-4.80738e-05
6.24683e-07
4.77809e-05
-2.13077e-06
6.26879e-07
2.29484e-07
-5.00654e-05
-6.99082e-07
4.9774e-05
7.92168e-07
-4.98452e-05
-3.51928e-07
6.15895e-08
4.95667e-05
7.98276e-07
2.30795e-07
-6.75731e-07
7.4345e-07
-3.28183e-07
6.18667e-08
7.50764e-07
1.72007e-07
-4.75628e-05
4.73164e-05
-4.71851e-05
5.8585e-08
4.69466e-05
1.72854e-07
5.8856e-08
3.19595e-11
-4.97267e-05
-3.04102e-07
4.94508e-05
6.41506e-07
-4.97265e-05
-3.04111e-07
-6.15085e-08
4.94507e-05
6.41507e-07
3.19324e-11
-2.81208e-07
5.94416e-07
-2.81218e-07
-6.17856e-08
5.94419e-07
3.22601e-11
-4.70313e-05
4.67858e-05
-4.70312e-05
-5.85098e-08
4.67856e-05
3.22563e-11
-5.87804e-08
-2.29328e-07
-4.98447e-05
-3.51938e-07
4.95663e-05
7.98232e-07
-5.00647e-05
-6.99046e-07
-3.13189e-08
4.97733e-05
7.92417e-07
-2.30638e-07
-3.28195e-07
7.50723e-07
-6.75696e-07
-3.23417e-08
7.43704e-07
-1.7189e-07
-4.71846e-05
4.6946e-05
-4.75617e-05
-6.24471e-07
4.73153e-05
-1.72737e-07
-6.26666e-07
8.09713e-07
-5.02987e-05
2.45984e-06
4.99779e-05
-2.98012e-06
-5.028e-05
-2.52983e-06
4.99176e-05
3.70198e-06
8.08455e-07
2.48405e-06
-3.02977e-06
-2.51005e-06
3.66153e-06
2.12821e-06
-4.80723e-05
4.77795e-05
-4.78642e-05
4.74626e-05
2.12933e-06
-7.95288e-07
-4.95378e-05
-2.51811e-06
4.9135e-05
3.71617e-06
-4.96416e-05
2.35557e-06
2.9043e-08
4.92768e-05
-2.8151e-06
-7.94919e-07
-2.49623e-06
3.67158e-06
2.38252e-06
2.97708e-08
-2.87013e-06
-2.08319e-06
-4.70533e-05
4.66183e-05
-4.74675e-05
6.08109e-07
4.71318e-05
-2.08574e-06
6.10218e-07
2.22161e-07
-4.94632e-05
-7.34775e-07
4.91255e-05
8.79431e-07
-4.92681e-05
-3.95418e-07
5.9651e-08
4.89425e-05
8.83487e-07
2.23555e-07
-7.10005e-07
8.27003e-07
-3.69615e-07
6.00346e-08
8.31736e-07
1.6683e-07
-4.70489e-05
4.67554e-05
-4.66876e-05
5.67643e-08
4.64023e-05
1.67741e-07
5.71177e-08
3.12265e-11
-4.91549e-05
-3.47462e-07
4.88322e-05
7.29838e-07
-4.91548e-05
-3.47469e-07
-5.95724e-08
4.8832e-05
7.29837e-07
3.12975e-11
-3.22017e-07
6.77923e-07
-3.22025e-07
-5.99555e-08
6.77923e-07
3.14739e-11
-4.65208e-05
4.62301e-05
-4.65206e-05
-5.66913e-08
4.62299e-05
3.15735e-11
-5.70442e-08
-2.2201e-07
-4.92676e-05
-3.95423e-07
4.89421e-05
8.83438e-07
-4.94625e-05
-7.34734e-07
-2.91486e-08
4.91247e-05
8.79663e-07
-2.23403e-07
-3.69622e-07
8.3169e-07
-7.09964e-07
-2.98765e-08
8.27239e-07
-1.66718e-07
-4.6687e-05
4.64016e-05
-4.70477e-05
-6.07905e-07
4.67542e-05
-1.67627e-07
-6.10012e-07
7.94789e-07
-4.96409e-05
2.35395e-06
4.92761e-05
-2.81309e-06
-4.95372e-05
-2.51664e-06
4.91344e-05
3.71415e-06
7.9442e-07
2.3809e-06
-2.86812e-06
-2.49468e-06
3.6695e-06
2.08179e-06
-4.74661e-05
4.71303e-05
-4.70523e-05
4.66174e-05
2.08434e-06
-7.79362e-07
-4.87122e-05
-2.5106e-06
4.82641e-05
3.73808e-06
-4.88944e-05
2.24701e-06
2.74599e-08
4.8482e-05
-2.64142e-06
-7.79574e-07
-2.4859e-06
3.68831e-06
2.27628e-06
2.79222e-08
-2.70136e-06
-2.03588e-06
-4.61716e-05
4.56969e-05
-4.67747e-05
5.92238e-07
4.63936e-05
-2.0392e-06
5.94139e-07
2.14923e-07
-4.87672e-05
-7.73076e-07
4.83799e-05
9.72957e-07
-4.85956e-05
-4.42376e-07
5.75994e-08
4.82193e-05
9.75934e-07
2.16336e-07
-7.46563e-07
9.16419e-07
-4.14365e-07
5.80508e-08
9.1964e-07
1.61708e-07
-4.64403e-05
4.60978e-05
-4.60953e-05
5.48646e-08
4.57597e-05
1.62634e-07
5.52693e-08
3.03983e-11
-4.84879e-05