/*--------------------------------*- C++ -*----------------------------------*\
  =========                 |
  \\      /  F ield         | OpenFOAM: The Open Source CFD Toolbox
   \\    /   O peration     | Website:  https://openfoam.org
    \\  /    A nd           | Version:  9
     \\/     M anipulation  |
\*---------------------------------------------------------------------------*/
FoamFile
{
    format      ascii;
    class       volVectorField;
    location    "2.6";
    object      U;
}
// * * * * * * * * * * * * * * * * * * * * * * * * * * * * * * * * * * * * * //

dimensions      [0 1 -1 0 0 0 0];

internalField   nonuniform List<vector> 
36360
(
(0.0192701 -0.273701 -0.958253)
(-0.0164117 -0.180258 0.00150472)
(0.0165085 -0.291035 -0.982705)
(-0.017584 -0.157568 0.000854625)
(0.0247838 -0.344046 -0.989431)
(-0.01107 -0.131713 -0.000300739)
(0.0325186 -0.375553 -0.999894)
(-0.0126614 -0.10804 -0.000199449)
(0.00492605 -0.187244 -0.000949718)
(0.00304611 -0.194407 -8.39862e-05)
(0.00173495 -0.182981 -0.000631234)
(-0.00170363 -0.190596 -3.67054e-05)
(0.015951 -0.178553 0.000320899)
(0.0122724 -0.210552 -5.53563e-06)
(0.0162903 -0.19195 0.000115694)
(0.0140394 -0.21897 -4.09051e-05)
(-0.000769417 -0.198232 3.06711e-06)
(-0.000770041 -0.198233 -3.06527e-06)
(-0.00530344 -0.194324 1.05902e-06)
(-0.00530383 -0.194324 -1.05627e-06)
(0.0104049 -0.217843 2.79331e-06)
(0.0104048 -0.217844 -2.798e-06)
(0.0133121 -0.222414 -1.22292e-05)
(0.0133121 -0.222414 1.22221e-05)
(0.00304505 -0.194409 8.3981e-05)
(0.00492656 -0.187245 0.000949633)
(-0.00170486 -0.190598 3.67048e-05)
(0.001735 -0.182983 0.000631152)
(0.0122719 -0.210557 5.55416e-06)
(0.0159515 -0.178562 -0.000320733)
(0.0140392 -0.218973 4.09095e-05)
(0.0162908 -0.19196 -0.000115594)
(-0.0164072 -0.180254 -0.00150455)
(0.0192656 -0.273691 0.958263)
(-0.0175796 -0.157567 -0.00085449)
(0.0165039 -0.291021 0.982711)
(-0.0110638 -0.131716 0.000300483)
(0.0247786 -0.344023 0.989433)
(-0.0126541 -0.10805 0.000199296)
(0.0325115 -0.375524 0.999895)
(0.0293795 -0.255961 -0.937457)
(-0.0239329 -0.193734 0.000888337)
(0.0262529 -0.264526 -0.948458)
(-0.0203747 -0.187164 0.00128456)
(0.0271728 -0.301035 -0.989042)
(-0.0257381 -0.150899 -0.00156723)
(0.0254522 -0.317041 -0.99157)
(-0.0189013 -0.139268 -0.000806779)
(0.00241302 -0.190372 -0.000410448)
(0.00593863 -0.195674 -1.82339e-05)
(0.0044745 -0.188587 -0.00066677)
(0.00611549 -0.195586 -7.20411e-05)
(0.00861956 -0.16286 0.00146519)
(0.00842867 -0.189519 0.000197186)
(0.0128517 -0.165964 0.00088181)
(0.0114658 -0.197422 7.29072e-05)
(0.00558524 -0.199295 -3.36184e-07)
(0.00558526 -0.199296 3.32684e-07)
(0.0044848 -0.199657 4.58752e-06)
(0.00448458 -0.199658 -4.58383e-06)
(0.00773704 -0.200878 1.28512e-05)
(0.00773707 -0.20088 -1.2868e-05)
(0.00954938 -0.208764 8.46863e-06)
(0.00954918 -0.208765 -8.47302e-06)
(0.00593903 -0.195675 1.82802e-05)
(0.00241495 -0.190371 0.000410427)
(0.0061154 -0.195588 7.20574e-05)
(0.00447602 -0.188587 0.000666743)
(0.0084291 -0.189524 -0.000197083)
(0.00862077 -0.162865 -0.0014648)
(0.0114659 -0.197428 -7.28506e-05)
(0.0128529 -0.165971 -0.000881513)
(-0.0239279 -0.19373 -0.000888446)
(0.029374 -0.255953 0.937472)
(-0.0203698 -0.18716 -0.00128454)
(0.0262482 -0.264517 0.94847)
(-0.0257309 -0.150896 0.0015665)
(0.027166 -0.301019 0.989045)
(-0.0188941 -0.139268 0.000806315)
(0.0254467 -0.317022 0.991572)
(0.0317545 -0.240854 -0.919102)
(-0.0280861 -0.200049 6.83634e-05)
(0.0308767 -0.247717 -0.927556)
(-0.0263264 -0.197666 0.000472652)
(0.0287755 -0.270648 -0.985078)
(-0.0323996 -0.169573 -0.00313678)
(0.0281538 -0.284843 -0.9869)
(-0.0298272 -0.161144 -0.00236329)
(-0.000812506 -0.192751 -0.000107289)
(0.00350457 -0.194596 0.000243775)
(0.000594933 -0.191623 -0.000221641)
(0.00480777 -0.195201 0.000103299)
(0.00481608 -0.164128 0.00238512)
(0.0037158 -0.180707 0.000572672)
(0.00604345 -0.162514 0.00197693)
(0.00561672 -0.184107 0.000373709)
(0.00394959 -0.19721 5.37364e-05)
(0.00394974 -0.19721 -5.37942e-05)
(0.0050037 -0.198427 1.72412e-05)
(0.00500383 -0.198428 -1.72578e-05)
(0.00365189 -0.190321 7.02721e-05)
(0.003652 -0.190322 -7.04852e-05)
(0.00536114 -0.194772 3.42778e-05)
(0.00536123 -0.194774 -3.43627e-05)
(0.00350538 -0.194596 -0.000243753)
(-0.000810202 -0.192749 0.000107156)
(0.00480846 -0.195202 -0.000103205)
(0.000597037 -0.191622 0.000221565)
(0.00371627 -0.180709 -0.000572672)
(0.00481618 -0.164128 -0.00238464)
(0.00561726 -0.184111 -0.000373554)
(0.0060445 -0.162517 -0.00197647)
(-0.0280806 -0.200045 -6.86573e-05)
(0.0317483 -0.240847 0.919123)
(-0.0263211 -0.197662 -0.000472884)
(0.0308712 -0.24771 0.927574)
(-0.0323922 -0.169568 0.00313564)
(0.0287681 -0.270636 0.985083)
(-0.0298198 -0.161139 0.0023623)
(0.0281474 -0.284829 0.986904)
(0.0329284 -0.230682 -0.904287)
(-0.0305861 -0.202602 -0.000648777)
(0.0323742 -0.235269 -0.911059)
(-0.0294683 -0.201577 -0.000305545)
(0.0297753 -0.249489 -0.981886)
(-0.0357354 -0.181369 -0.00451518)
(0.0292661 -0.258995 -0.983366)
(-0.0342299 -0.176243 -0.00385777)
(-0.00247156 -0.194839 -4.62424e-05)
(0.00180372 -0.194228 0.000493654)
(-0.00181703 -0.193825 -5.30413e-05)
(0.00249834 -0.194267 0.000375012)
(0.00463554 -0.170045 0.00291235)
(0.00182873 -0.17833 0.000949395)
(0.00458748 -0.166908 0.00269195)
(0.00254497 -0.178969 0.000768368)
(0.00233418 -0.195505 0.000147128)
(0.00233436 -0.195505 -0.000147107)
(0.00303506 -0.196206 9.9762e-05)
(0.00303496 -0.196206 -9.99332e-05)
(0.00191235 -0.185221 0.000165882)
(0.00191255 -0.185221 -0.000165897)
(0.00260148 -0.187281 0.00011578)
(0.00260134 -0.187282 -0.000116342)
(0.00180421 -0.194227 -0.000493569)
(-0.00246959 -0.194836 4.60395e-05)
(0.00249944 -0.194267 -0.000375147)
(-0.00181458 -0.193823 5.29227e-05)
(0.00182892 -0.178331 -0.000948991)
(0.00463528 -0.170044 -0.00291209)
(0.00254571 -0.17897 -0.000769731)
(0.00458759 -0.166907 -0.00269072)
(-0.0305804 -0.202597 0.000648342)
(0.0329214 -0.230677 0.904311)
(-0.0294626 -0.201573 0.000305258)
(0.032368 -0.235263 0.911081)
(-0.0357278 -0.181363 0.00451358)
(0.0297674 -0.24948 0.981891)
(-0.0342222 -0.176237 0.00385698)
(0.0292594 -0.258985 0.983371)
(0.0339675 -0.223825 -0.892262)
(-0.0322925 -0.203796 -0.00122587)
(0.0334486 -0.226922 -0.897679)
(-0.0315058 -0.203304 -0.000955295)
(0.0307091 -0.235348 -0.979262)
(-0.038061 -0.188155 -0.00562469)
(0.0302151 -0.241725 -0.980469)
(-0.0369524 -0.185243 -0.0051031)
(-0.00313799 -0.196745 -0.000119709)
(0.00105796 -0.194825 0.000666556)
(-0.0028786 -0.195822 -7.23383e-05)
(0.00134971 -0.194441 0.000591067)
(0.00508448 -0.176084 0.00316333)
(0.00122771 -0.178974 0.00123678)
(0.00483522 -0.173162 0.00306394)
(0.00141681 -0.178432 0.00110583)
(0.00142843 -0.195011 0.000225742)
(0.00142848 -0.19501 -0.000225604)
(0.00181579 -0.195118 0.000190181)
(0.00181588 -0.195118 -0.000190086)
(0.00100387 -0.183118 0.000260542)
(0.00100403 -0.183118 -0.00026038)
(0.00141299 -0.183887 0.000215158)
(0.00141314 -0.183887 -0.000215055)
(0.00105827 -0.194824 -0.000666412)
(-0.00313623 -0.196742 0.000119491)
(0.00135012 -0.19444 -0.000590943)
(-0.00287675 -0.195819 7.21365e-05)
(0.00122767 -0.178974 -0.00123643)
(0.00508398 -0.176081 -0.0031629)
(0.00141691 -0.178433 -0.00110552)
(0.00483482 -0.173159 -0.00306351)
(-0.0322868 -0.203792 0.00122536)
(0.0339602 -0.223821 0.892289)
(-0.0315001 -0.203299 0.000954814)
(0.0334418 -0.226918 0.897705)
(-0.0380533 -0.188149 0.00562292)
(0.0307011 -0.235341 0.979267)
(-0.0369446 -0.185236 0.00510142)
(0.0302082 -0.241717 0.980474)
(0.0349151 -0.219142 -0.882438)
(-0.0335482 -0.204412 -0.00166809)
(0.034447 -0.221267 -0.886793)
(-0.032959 -0.20415 -0.00146211)
(0.031566 -0.225707 -0.977097)
(-0.0398612 -0.191997 -0.00648507)
(0.0311164 -0.230086 -0.978082)
(-0.0389812 -0.190346 -0.00608269)
(-0.00342739 -0.198383 -0.000250735)
(0.000763408 -0.195901 0.000761331)
(-0.00330537 -0.197598 -0.000180905)
(0.000875133 -0.195325 0.000722342)
(0.00554811 -0.181066 0.00325294)
(0.00113778 -0.180808 0.00142436)
(0.00533503 -0.178726 0.00322248)
(0.00115142 -0.179812 0.00134237)
(0.000924937 -0.195429 0.000280162)
(0.000924924 -0.195429 -0.000279974)
(0.00113788 -0.195136 0.000255646)
(0.0011379 -0.195135 -0.000255479)
(0.000424551 -0.182851 0.000334927)
(0.000424656 -0.18285 -0.000334702)
(0.000675926 -0.182807 0.000300636)
(0.00067606 -0.182807 -0.000300438)
(0.000763551 -0.195899 -0.000761177)
(-0.00342572 -0.198379 0.000250468)
(0.000875355 -0.195323 -0.00072219)
(-0.00330365 -0.197595 0.000180663)
(0.00113755 -0.180806 -0.00142398)
(0.00554757 -0.181061 -0.00325256)
(0.00115129 -0.179811 -0.001342)
(0.00533451 -0.178723 -0.00322208)
(-0.0335425 -0.204408 0.00166753)
(0.0349077 -0.219138 0.882466)
(-0.0329533 -0.204145 0.00146156)
(0.03444 -0.221263 0.88682)
(-0.0398535 -0.191991 0.00648317)
(0.0315582 -0.225702 0.977103)
(-0.0389735 -0.190339 0.00608085)
(0.0311095 -0.230079 0.978088)
(0.035717 -0.215886 -0.874292)
(-0.0345209 -0.204784 -0.00200099)
(0.0353277 -0.21737 -0.877849)
(-0.034056 -0.204613 -0.00184599)
(0.0322947 -0.218951 -0.975302)
(-0.0412847 -0.194243 -0.0071435)
(0.0319109 -0.222041 -0.97611)
(-0.0405803 -0.193262 -0.00683585)
(-0.0035738 -0.199766 -0.00039738)
(0.000666912 -0.197171 0.000797897)
(-0.00351407 -0.199104 -0.000323706)
(0.00070067 -0.196524 0.000785304)
(0.00588371 -0.184911 0.00325701)
(0.00121767 -0.183021 0.00153032)
(0.00573332 -0.183118 0.00326197)
(0.00116593 -0.181895 0.00148577)
(0.000664417 -0.196348 0.000312572)
(0.000664366 -0.196347 -0.000312359)
(0.000772628 -0.195845 0.000298819)
(0.000772595 -0.195845 -0.000298616)
(8.97366e-05 -0.183649 0.000385916)
(8.98017e-05 -0.183648 -0.000385657)
(0.000235976 -0.183151 0.00036323)
(0.000236063 -0.183151 -0.000362985)
(0.000666977 -0.197169 -0.000797751)
(-0.00357221 -0.199763 0.000397075)
(0.000700761 -0.196522 -0.000785153)
(-0.00351243 -0.1991 0.000323417)
(0.0012173 -0.183019 -0.00152994)
(0.00588318 -0.184906 -0.00325669)
(0.00116562 -0.181893 -0.00148539)
(0.0057328 -0.183114 -0.00326163)
(-0.0345152 -0.20478 0.00200041)
(0.0357097 -0.215883 0.874321)
(-0.0340503 -0.204609 0.00184541)
(0.0353208 -0.217367 0.877878)
(-0.0412772 -0.194237 0.00714154)
(0.0322871 -0.218946 0.975308)
(-0.0405726 -0.193256 0.00683392)
(0.0319042 -0.222036 0.976116)
(0.0363682 -0.213594 -0.867462)
(-0.0352779 -0.205082 -0.00225208)
(0.0360497 -0.214641 -0.870368)
(-0.0349176 -0.204938 -0.00213473)
(0.0328837 -0.214106 -0.973803)
(-0.04239 -0.195638 -0.00764745)
(0.0325649 -0.216335 -0.974466)
(-0.041836 -0.195016 -0.0074116)
(-0.00365493 -0.20094 -0.000537163)
(0.000650073 -0.198475 0.000797804)
(-0.00361571 -0.200376 -0.000468513)
(0.000652049 -0.197825 0.000801038)
(0.00610812 -0.187838 0.00322012)
(0.00135561 -0.185261 0.00158031)
(0.00601284 -0.186472 0.00324159)
(0.00128348 -0.18415 0.00156072)
(0.000538414 -0.197506 0.0003272)
(0.000538329 -0.197505 -0.000326979)
(0.000589293 -0.196908 0.000321653)
(0.00058923 -0.196908 -0.000321434)
(-0.00010047 -0.185016 0.000416109)
(-0.000100456 -0.185015 -0.000415833)
(-1.90039e-05 -0.184283 0.000403263)
(-1.89606e-05 -0.184283 -0.000402993)
(0.000650063 -0.198473 -0.000797671)
(-0.00365341 -0.200937 0.000536831)
(0.000652078 -0.197823 -0.000800898)
(-0.00361415 -0.200372 0.000468192)
(0.0013551 -0.185258 -0.00157995)
(0.00610762 -0.187834 -0.00321986)
(0.00128305 -0.184147 -0.00156035)
(0.00601234 -0.186467 -0.0032413)
(-0.0352724 -0.205079 0.00225148)
(0.036361 -0.213592 0.867491)
(-0.034912 -0.204934 0.00213413)
(0.036043 -0.214639 0.870397)
(-0.0423828 -0.195632 0.00764546)
(0.0328764 -0.214102 0.973809)
(-0.0418285 -0.19501 0.00740962)
(0.0325584 -0.216331 0.974471)
(0.0368909 -0.211966 -0.861644)
(-0.0358581 -0.205364 -0.00244258)
(0.0366329 -0.212712 -0.864035)
(-0.0355794 -0.205224 -0.00235312)
(0.0333407 -0.210557 -0.972539)
(-0.043226 -0.196575 -0.00803423)
(0.0330819 -0.212198 -0.973085)
(-0.0427956 -0.196147 -0.0078529)
(-0.00371693 -0.201958 -0.000661416)
(0.000670907 -0.199733 0.000777684)
(-0.00368561 -0.201465 -0.000601007)
(0.000658011 -0.199113 0.000789239)
(0.00624312 -0.190112 0.00316593)
(0.00150745 -0.187371 0.00159528)
(0.00618897 -0.189042 0.00319395)
(0.00143201 -0.186337 0.001591)
(0.000493235 -0.198747 0.000329747)
(0.000493117 -0.198747 -0.000329528)
(0.000508139 -0.198123 0.000329513)
(0.000508039 -0.198123 -0.000329292)
(-0.000194616 -0.186647 0.00043084)
(-0.000194665 -0.186646 -0.000430562)
(-0.0001571 -0.185812 0.000425028)
(-0.000157117 -0.185812 -0.00042475)
(0.000670822 -0.199731 -0.000777567)
(-0.00371548 -0.201955 0.000661067)
(0.000657962 -0.199111 -0.000789114)
(-0.00368412 -0.201462 0.000600665)
(0.00150682 -0.187369 -0.00159494)
(0.00624264 -0.190107 -0.00316571)
(0.00143145 -0.186335 -0.00159066)
(0.0061885 -0.189037 -0.00319371)
(-0.0358527 -0.205361 0.00244199)
(0.0368839 -0.211963 0.861674)
(-0.0355739 -0.20522 0.00235251)
(0.0366264 -0.212709 0.864064)
(-0.0432191 -0.196569 0.00803224)
(0.0333336 -0.210554 0.972545)
(-0.0427884 -0.196142 0.00785091)
(0.0330758 -0.212195 0.973091)
(0.0373043 -0.210798 -0.856595)
(-0.0362976 -0.205649 -0.00258727)
(0.0370983 -0.211335 -0.858612)
(-0.0360856 -0.205506 -0.00251924)
(0.0336784 -0.207909 -0.97146)
(-0.0438411 -0.197261 -0.00833116)
(0.0334761 -0.209139 -0.971917)
(-0.043514 -0.19694 -0.00819189)
(-0.00376269 -0.202863 -0.000768386)
(0.000709935 -0.200902 0.000747715)
(-0.00373987 -0.202423 -0.000716397)
(0.000689222 -0.200331 0.000763382)
(0.00632371 -0.191941 0.00310657)
(0.00164816 -0.189289 0.00158962)
(0.00629119 -0.191072 0.00313613)
(0.00158207 -0.188356 0.00159424)
(0.00049946 -0.199976 0.000325799)
(0.000499319 -0.199976 -0.000325583)
(0.000491395 -0.199368 0.00032806)
(0.000491266 -0.199367 -0.000327844)
(-0.000222731 -0.18835 0.000435475)
(-0.000222809 -0.188349 -0.000435201)
(-0.000214734 -0.187498 0.000434079)
(-0.000214804 -0.187497 -0.000433802)
(0.000709797 -0.2009 -0.00074762)
(-0.0037613 -0.20286 0.000768018)
(0.000689107 -0.200329 -0.000763275)
(-0.00373845 -0.20242 0.000716038)
(0.00164751 -0.189286 -0.0015893)
(0.00632319 -0.191937 -0.00310639)
(0.0015814 -0.188354 -0.00159392)
(0.00629073 -0.191067 -0.00313594)
(-0.0362924 -0.205646 0.00258669)
(0.0372975 -0.210796 0.856625)
(-0.0360802 -0.205503 0.00251864)
(0.037092 -0.211332 0.858642)
(-0.0438344 -0.197256 0.00832918)
(0.0336715 -0.207906 0.971467)
(-0.0435071 -0.196935 0.00818991)
(0.0334702 -0.209136 0.971924)
(0.0376311 -0.209949 -0.852194)
(-0.0366213 -0.205931 -0.00269618)
(0.0374654 -0.210341 -0.85389)
(-0.0364643 -0.205792 -0.00264457)
(0.0339201 -0.205896 -0.970536)
(-0.0442765 -0.197802 -0.00855825)
(0.0337619 -0.206836 -0.970917)
(-0.0440333 -0.197545 -0.00845168)
(-0.00378716 -0.203663 -0.000859419)
(0.000758739 -0.201972 0.000713489)
(-0.00377557 -0.203277 -0.000815446)
(0.000733555 -0.201449 0.000730448)
(0.0064049 -0.193446 0.00304823)
(0.00173436 -0.191008 0.00157273)
(0.00637001 -0.192729 0.00307672)
(0.00169584 -0.190171 0.00158199)
(0.000538285 -0.201142 0.000320096)
(0.000538131 -0.201141 -0.000319891)
(0.00051572 -0.200569 0.000323077)
(0.000515575 -0.200568 -0.000322867)
(-0.000215093 -0.190016 0.000434283)
(-0.000215182 -0.190016 -0.00043402)
(-0.000222079 -0.189192 0.000435394)
(-0.000222159 -0.189191 -0.000435125)
(0.000758571 -0.201971 -0.00071341)
(-0.00378581 -0.20366 0.000859043)
(0.000733402 -0.201447 -0.000730362)
(-0.0037742 -0.203274 0.000815072)
(0.00173372 -0.191006 -0.00157244)
(0.00640435 -0.193442 -0.00304808)
(0.00169522 -0.190169 -0.00158169)
(0.00636948 -0.192725 -0.00307655)
(-0.0366162 -0.205928 0.0026956)
(0.0376244 -0.209947 0.852225)
(-0.0364591 -0.205789 0.00264398)
(0.0374592 -0.210339 0.85392)
(-0.0442699 -0.197797 0.00855629)
(0.0339133 -0.205893 0.970542)
(-0.0440266 -0.197541 0.00844971)
(0.0337561 -0.206833 0.970923)
(0.0378879 -0.209312 -0.848262)
(-0.0368448 -0.206196 -0.00277901)
(0.037755 -0.209609 -0.849728)
(-0.036736 -0.206067 -0.00273948)
(0.0340758 -0.204331 -0.96973)
(-0.0445609 -0.198244 -0.00873056)
(0.0339583 -0.205066 -0.970054)
(-0.044389 -0.198033 -0.00864976)
(-0.00378691 -0.204359 -0.000933871)
(0.000819108 -0.202936 0.000680491)
(-0.00378809 -0.204023 -0.000897971)
(0.000787758 -0.202469 0.000696496)
(0.0064681 -0.194693 0.00299414)
(0.00180456 -0.192543 0.00155091)
(0.00644305 -0.194097 0.00302024)
(0.00177086 -0.191799 0.00156205)
(0.000600378 -0.202211 0.000312825)
(0.000600213 -0.20221 -0.000312634)
(0.000566895 -0.20169 0.000316457)
(0.000566738 -0.20169 -0.000316259)
(-0.000183384 -0.191585 0.000429776)
(-0.000183487 -0.191584 -0.000429529)
(-0.000201299 -0.190816 0.000432295)
(-0.000201394 -0.190815 -0.00043204)
(0.000818912 -0.202934 -0.000680427)
(-0.00378561 -0.204356 0.000933489)
(0.000787575 -0.202467 -0.000696425)
(-0.00378676 -0.204021 0.00089759)
(0.0018039 -0.192541 -0.00155064)
(0.00646756 -0.19469 -0.00299401)
(0.00177021 -0.191797 -0.00156177)
(0.00644252 -0.194094 -0.00302011)
(-0.0368397 -0.206193 0.00277845)
(0.0378813 -0.20931 0.848292)
(-0.0367309 -0.206064 0.00273891)
(0.0377488 -0.209607 0.849758)
(-0.0445545 -0.19824 0.00872861)
(0.0340692 -0.204328 0.969736)
(-0.0443824 -0.198029 0.00864781)
(0.0339526 -0.205064 0.97006)
(0.0380984 -0.208804 -0.844788)
(-0.036983 -0.206424 -0.00284193)
(0.0379849 -0.209046 -0.84599)
(-0.0369145 -0.206316 -0.00281159)
(0.0341727 -0.203075 -0.969029)
(-0.0447287 -0.198606 -0.00885931)
(0.0340773 -0.203673 -0.969295)
(-0.0446075 -0.198434 -0.00879901)
(-0.00375997 -0.20495 -0.000993495)
(0.000892997 -0.203774 0.0006507)
(-0.00377465 -0.204668 -0.000964679)
(0.000854615 -0.203371 0.000664945)
(0.00651551 -0.195735 0.00294564)
(0.00186881 -0.193889 0.00152777)
(0.00649796 -0.195237 0.00296886)
(0.00183772 -0.193239 0.00153924)
(0.000681725 -0.203156 0.000305078)
(0.000681553 -0.203156 -0.000304901)
(0.000638741 -0.2027 0.00030883)
(0.000638575 -0.202699 -0.000308647)
(-0.000136066 -0.193013 0.000423637)
(-0.000136178 -0.193012 -0.000423407)
(-0.000161021 -0.192318 0.000426801)
(-0.000161128 -0.192317 -0.000426563)
(0.000892779 -0.203772 -0.000650648)
(-0.0037587 -0.204948 0.000993111)
(0.000854408 -0.20337 -0.000664887)
(-0.00377336 -0.204666 0.000964295)
(0.00186814 -0.193886 -0.00152752)
(0.00651497 -0.195732 -0.00294553)
(0.00183705 -0.193237 -0.00153898)
(0.00649744 -0.195234 -0.00296873)
(-0.036978 -0.206422 0.00284138)
(0.0380919 -0.208802 0.844819)
(-0.0369094 -0.206314 0.00281103)
(0.0379788 -0.209044 0.84602)
(-0.0447225 -0.198602 0.00885737)
(0.0341662 -0.203072 0.969036)
(-0.0446011 -0.19843 0.00879707)
(0.0340718 -0.20367 0.969301)
(0.0382751 -0.208356 -0.841586)
(-0.0370395 -0.206588 -0.00288882)
(0.0381765 -0.208576 -0.842647)
(-0.0370115 -0.206515 -0.00286598)
(0.0342149 -0.202011 -0.968402)
(-0.0447809 -0.198888 -0.00895236)
(0.0341435 -0.202525 -0.968632)
(-0.0447176 -0.198758 -0.00890906)
(-0.00370079 -0.205424 -0.00103988)
(0.000984799 -0.204469 0.000624901)
(-0.00373232 -0.205203 -0.00101747)
(0.000936906 -0.20414 0.000637076)
(0.00655478 -0.196596 0.00290283)
(0.00193078 -0.195042 0.00150518)
(0.00654029 -0.196187 0.00292321)
(0.0019004 -0.19449 0.00151621)
(0.000786308 -0.203955 0.000297495)
(0.00078613 -0.203955 -0.000297319)
(0.000731251 -0.203576 0.000301095)
(0.000731079 -0.203575 -0.000300922)
(-7.66118e-05 -0.19427 0.000416923)
(-7.67292e-05 -0.194269 -0.000416693)
(-0.000107227 -0.193664 0.000420273)
(-0.000107341 -0.193664 -0.000420048)
(0.000984561 -0.204468 -0.000624852)
(-0.00369955 -0.205422 0.00103951)
(0.000936679 -0.204139 -0.000637028)
(-0.00373106 -0.205201 0.00101708)
(0.00193009 -0.19504 -0.00150494)
(0.00655423 -0.196593 -0.00290272)
(0.00189972 -0.194488 -0.00151596)
(0.00653976 -0.196184 -0.0029231)
(-0.0370346 -0.206586 0.00288825)
(0.0382686 -0.208355 0.841618)
(-0.0370065 -0.206513 0.00286543)
(0.0381705 -0.208575 0.842677)
(-0.0447747 -0.198886 0.00895042)
(0.0342085 -0.202009 0.968409)
(-0.0447113 -0.198755 0.00890713)
(0.0341381 -0.202522 0.968638)
(0.0384376 -0.207908 -0.838686)
(-0.0370219 -0.206656 -0.00291336)
(0.0383437 -0.208137 -0.839566)
(-0.0370296 -0.206638 -0.00290608)
(0.0342219 -0.201035 -0.967845)
(-0.0447108 -0.199072 -0.00901189)
(0.0341679 -0.201519 -0.968035)
(-0.0447113 -0.19899 -0.00898654)
(-0.00360712 -0.205757 -0.0010759)
(0.00109654 -0.205 0.000603673)
(-0.00365618 -0.205609 -0.00105793)
(0.0010384 -0.204756 0.00061347)
(0.00658774 -0.197282 0.00286545)
(0.00199132 -0.195996 0.00148398)
(0.00657607 -0.19696 0.00288318)
(0.00196153 -0.195544 0.00149426)
(0.000912403 -0.204583 0.000290534)
(0.000912213 -0.204582 -0.00029034)
(0.000846597 -0.204292 0.000293779)
(0.000846417 -0.204292 -0.000293596)
(-8.57851e-06 -0.195332 0.000410238)
(-8.70074e-06 -0.195332 -0.000409957)
(-4.33478e-05 -0.194826 0.000413519)
(-4.34667e-05 -0.194826 -0.000413271)
(0.00109627 -0.205 -0.000603644)
(-0.00360592 -0.205756 0.00107532)
(0.00103815 -0.204755 -0.000613426)
(-0.00365495 -0.205608 0.00105753)
(0.00199062 -0.195995 -0.0014837)
(0.00658715 -0.19728 -0.0028653)
(0.00196084 -0.195543 -0.001494)
(0.00657552 -0.196958 -0.00288308)
(-0.0370171 -0.206655 0.00291295)
(0.0384313 -0.207906 0.838486)
(-0.0370246 -0.206637 0.00290552)
(0.0383377 -0.208136 0.839597)
(-0.0447054 -0.19907 0.0090104)
(0.0342162 -0.201032 0.967852)
(-0.0447051 -0.198987 0.0089846)
(0.0341625 -0.201516 0.968041)
(0.0385912 -0.207401 -0.833613)
(-0.036929 -0.206564 -0.00294818)
(0.0385038 -0.207662 -0.836766)
(-0.0369773 -0.206631 -0.00292538)
(0.0341435 -0.200048 -0.967341)
(-0.0445739 -0.199164 -0.00904224)
(0.0341626 -0.200546 -0.967505)
(-0.0446224 -0.199133 -0.00903296)
(-0.00346892 -0.205922 -0.00109862)
(0.00123644 -0.205344 0.00058634)
(-0.00354301 -0.205863 -0.00108843)
(0.00116178 -0.205197 0.000594384)
(0.00662526 -0.197788 0.00283197)
(0.00205722 -0.19674 0.00146438)
(0.00660704 -0.19756 0.00284805)
(0.00202254 -0.196395 0.00147386)
(0.00106732 -0.205012 0.00028438)
(0.00106714 -0.205012 -0.000284106)
(0.000985383 -0.204824 0.000287229)
(0.000985196 -0.204823 -0.00028697)
(6.93127e-05 -0.196178 0.000403843)
(6.92182e-05 -0.196178 -0.000403633)
(2.90962e-05 -0.195784 0.000406974)
(2.8981e-05 -0.195783 -0.00040668)
(0.00123621 -0.205343 -0.000585889)
(-0.00346757 -0.205921 0.00109976)
(0.00116152 -0.205196 -0.000594174)
(-0.00354179 -0.205862 0.00108832)
(0.0020566 -0.196738 -0.00146411)
(0.00662503 -0.197786 -0.00283214)
(0.00202187 -0.196394 -0.00147355)
(0.00660656 -0.197559 -0.00284791)
(-0.0369232 -0.206569 0.00294641)
(0.0385848 -0.207396 0.836022)
(-0.0369724 -0.206628 0.00292429)
(0.0384981 -0.207663 0.836562)
(-0.0445617 -0.199162 0.00903733)
(0.0341326 -0.200045 0.967348)
(-0.0446165 -0.19913 0.00903115)
(0.0341579 -0.200542 0.967511)
(0.0387229 -0.206759 -0.83041)
(-0.0367487 -0.20633 -0.00296006)
(0.0386525 -0.207112 -0.831764)
(-0.0368445 -0.206463 -0.00295313)
(0.0339451 -0.199028 -0.96689)
(-0.0442851 -0.199082 -0.00906375)
(0.0340111 -0.19954 -0.967027)
(-0.0444041 -0.199156 -0.0090495)
(-0.00326623 -0.205883 -0.00111587)
(0.0014397 -0.205463 0.000572021)
(-0.00337508 -0.20593 -0.00110764)
(0.00133163 -0.205434 0.000578416)
(0.00667831 -0.198067 0.00280188)
(0.0021452 -0.197237 0.00144652)
(0.00665199 -0.197959 0.00281593)
(0.0020991 -0.197022 0.00145503)
(0.00126741 -0.205209 0.000278374)
(0.00126724 -0.205209 -0.000278784)
(0.00116169 -0.205142 0.000281118)
(0.00116152 -0.205141 -0.000281241)
(0.000161754 -0.196775 0.000397812)
(0.00016164 -0.196775 -0.000397856)
(0.00011358 -0.19651 0.000400708)
(0.000113475 -0.19651 -0.000400679)
(0.00143946 -0.205462 -0.000573148)
(-0.00326505 -0.205882 0.00111256)
(0.00133141 -0.205433 -0.000578833)
(-0.00337376 -0.205928 0.00110649)
(0.00214443 -0.197236 -0.00144656)
(0.00667752 -0.198066 -0.00280153)
(0.0020984 -0.197021 -0.00145496)
(0.00665144 -0.197957 -0.00281616)
(-0.0367467 -0.206326 0.002965)
(0.0387192 -0.206762 0.827384)
(-0.0368394 -0.206476 0.00295498)
(0.038647 -0.207096 0.831126)
(-0.0443025 -0.199081 0.0090694)
(0.0339633 -0.199024 0.966893)
(-0.0444074 -0.199155 0.00904815)
(0.0340166 -0.199539 0.967031)
(0.0388639 -0.205929 -0.827177)
(-0.0364834 -0.205883 -0.00297176)
(0.0387658 -0.206369 -0.825494)
(-0.0366097 -0.206143 -0.00296591)
(0.0338232 -0.197974 -0.966473)
(-0.0439857 -0.198732 -0.00906505)
(0.0338036 -0.198516 -0.966588)
(-0.0440718 -0.198937 -0.00906548)
(-0.00299829 -0.205598 -0.00112392)
(0.00168895 -0.205316 0.000562361)
(-0.00313562 -0.205775 -0.00111876)
(0.00155926 -0.205425 0.000566758)
(0.00673992 -0.198061 0.0027619)
(0.00224542 -0.197445 0.00143087)
(0.00671795 -0.198099 0.0027773)
(0.00219467 -0.197379 0.00143829)
(0.00151291 -0.205134 0.000273886)
(0.00151274 -0.205134 -0.000273457)
(0.00138447 -0.205208 0.000275936)
(0.00138431 -0.205208 -0.000275839)
(0.000270595 -0.197083 0.000392658)
(0.000270502 -0.197083 -0.000392318)
(0.000214641 -0.196968 0.000395142)
(0.000214551 -0.196967 -0.000394942)
(0.00168883 -0.205316 -0.000561933)
(-0.00299655 -0.205598 0.00112467)
(0.0015591 -0.205425 -0.000566791)
(-0.00313413 -0.205775 0.00111876)
(0.00224483 -0.197444 -0.00143053)
(0.00673952 -0.19806 -0.00276151)
(0.00219405 -0.197378 -0.00143806)
(0.00671763 -0.198098 -0.00277662)
(-0.0364735 -0.205881 0.00296838)
(0.0388531 -0.205927 0.828071)
(-0.0366042 -0.20613 0.00296571)
(0.0387603 -0.206381 0.828615)
(-0.0439815 -0.198731 0.00906193)
(0.0338192 -0.197976 0.96648)
(-0.0440678 -0.198935 0.00906586)
(0.0338029 -0.198514 0.966594)
(0.0390715 -0.204879 -0.828037)
(-0.0361458 -0.205128 -0.00297539)
(0.0389504 -0.205439 -0.828586)
(-0.0363171 -0.205551 -0.0029724)
(0.0337279 -0.19672 -0.966095)
(-0.0436354 -0.19814 -0.00904751)
(0.03374 -0.197381 -0.966193)
(-0.0437822 -0.198471 -0.0090564)
(-0.00266843 -0.205009 -0.00112676)
(0.00199115 -0.204857 0.000556062)
(-0.00284089 -0.205344 -0.00112552)
(0.00183252 -0.205128 0.000558502)
(0.00680885 -0.197758 0.0027546)
(0.00235721 -0.197331 0.00141611)
(0.00677431 -0.197948 0.00276166)
(0.00229798 -0.197429 0.0014223)
(0.00181012 -0.204741 0.000269685)
(0.00180988 -0.204741 -0.000269765)
(0.00165419 -0.20498 0.000271486)
(0.00165399 -0.20498 -0.000271385)
(0.000396251 -0.197062 0.000387134)
(0.000396105 -0.197062 -0.000387046)
(0.000332458 -0.197114 0.000389574)
(0.000332338 -0.197114 -0.000389433)
(0.00199063 -0.204857 -0.000556588)
(-0.00266786 -0.20501 0.00112486)
(0.0018322 -0.205128 -0.000558791)
(-0.00283973 -0.205344 0.00112418)
(0.00235637 -0.197331 -0.00141599)
(0.00680806 -0.197757 -0.00275448)
(0.00229725 -0.197428 -0.00142215)
(0.00677366 -0.197947 -0.00276141)
(-0.0361462 -0.205125 0.00297798)
(0.0390699 -0.204881 0.825872)
(-0.0363121 -0.205551 0.00297273)
(0.0389435 -0.205439 0.826342)
(-0.0436298 -0.198139 0.00904763)
(0.0337209 -0.196718 0.9661)
(-0.0437789 -0.198471 0.00905624)
(0.0337363 -0.197382 0.966198)
(0.0393229 -0.203488 -0.820617)
(-0.035716 -0.204064 -0.00297999)
(0.0391773 -0.204232 -0.823197)
(-0.0359339 -0.204643 -0.00297669)
(0.0335581 -0.195208 -0.965738)
(-0.0431483 -0.1972 -0.00902286)
(0.0335423 -0.196001 -0.965819)
(-0.0433082 -0.19772 -0.00903541)
(-0.00225376 -0.204076 -0.001121)
(0.00236201 -0.204036 0.000553874)
(-0.00247039 -0.204589 -0.00112351)
(0.00216797 -0.204494 0.000554372)
(0.00690742 -0.197096 0.00273563)
(0.00249754 -0.196847 0.00140641)
(0.00686343 -0.197477 0.00274389)
(0.00242613 -0.197137 0.00141169)
(0.0021719 -0.20398 0.000266859)
(0.0021717 -0.20398 -0.000266134)
(0.00198283 -0.20441 0.000268041)
(0.0019826 -0.20441 -0.000267742)
(0.000550298 -0.196662 0.000383897)
(0.00055025 -0.196662 -0.000383332)
(0.000470933 -0.196912 0.000385601)
(0.00047083 -0.196912 -0.000385276)
(0.00236177 -0.204036 -0.000552398)
(-0.00225201 -0.204076 0.00112425)
(0.00216757 -0.204495 -0.000553969)
(-0.00246916 -0.20459 0.00112367)
(0.0024971 -0.196847 -0.00140568)
(0.00690774 -0.197095 -0.00273513)
(0.00242547 -0.197137 -0.00141129)
(0.00686317 -0.197476 -0.00274378)
(-0.0357031 -0.204064 0.00297365)
(0.0393099 -0.203489 0.826922)
(-0.035927 -0.204631 0.00297535)
(0.0391693 -0.204248 0.824161)
(-0.0431157 -0.1972 0.00901385)
(0.0335263 -0.19521 0.965751)
(-0.043296 -0.197719 0.00903131)
(0.0335311 -0.195998 0.965827)
(0.0396327 -0.201714 -0.821808)
(-0.0351743 -0.202591 -0.00296751)
(0.0394546 -0.202671 -0.822092)
(-0.0354477 -0.203375 -0.00297176)
(0.033538 -0.19332 -0.965413)
(-0.0427045 -0.195881 -0.0089786)
(0.0334981 -0.194325 -0.965476)
(-0.0428882 -0.196589 -0.00900025)
(-0.00174276 -0.202727 -0.00111746)
(0.00281021 -0.202795 0.00055237)
(-0.00200952 -0.203458 -0.00111926)
(0.00257592 -0.203472 0.000552398)
(0.00701025 -0.196026 0.00272085)
(0.00265735 -0.195942 0.00139653)
(0.00695931 -0.196614 0.00272737)
(0.00257417 -0.19645 0.00140106)
(0.002605 -0.202793 0.000263674)
(0.00260478 -0.202793 -0.000263957)
(0.00237887 -0.203443 0.000265058)
(0.00237867 -0.203443 -0.000264748)
(0.000728212 -0.19583 0.000379924)
(0.000728105 -0.19583 -0.000379866)
(0.00063575 -0.196304 0.000381842)
(0.000635672 -0.196304 -0.000381452)
(0.00280982 -0.202795 -0.000553352)
(-0.00174176 -0.202728 0.00111424)
(0.0025756 -0.203471 -0.000552044)
(-0.00200825 -0.203458 0.00111939)
(0.0026566 -0.195941 -0.00139654)
(0.00700932 -0.196025 -0.0027211)
(0.00257359 -0.19645 -0.00140063)
(0.00695896 -0.196613 -0.00272723)
(-0.0351725 -0.202593 0.00297214)
(0.0396284 -0.201717 0.818676)
(-0.0354419 -0.203396 0.00297039)
(0.0394483 -0.20265 0.822111)
(-0.0427151 -0.195882 0.00898048)
(0.0335473 -0.193323 0.965417)
(-0.0428785 -0.196589 0.00899681)
(0.0334887 -0.194331 0.965484)
(0.040014 -0.199491 -0.822832)
(-0.0345285 -0.200642 -0.0029625)
(0.0397981 -0.200679 -0.820173)
(-0.0348547 -0.201686 -0.00296433)
(0.033513 -0.190955 -0.96511)
(-0.0421753 -0.194123 -0.00893047)
(0.0334644 -0.192204 -0.965157)
(-0.042393 -0.195065 -0.0089554)
(-0.00111652 -0.200907 -0.00110547)
(0.00334747 -0.201074 0.000555945)
(-0.00144241 -0.201879 -0.00111013)
(0.00306766 -0.201997 0.000553641)
(0.00713866 -0.194503 0.00270919)
(0.00284734 -0.194555 0.00138891)
(0.00707794 -0.195324 0.00271472)
(0.00274887 -0.195312 0.00139248)