/*--------------------------------*- C++ -*----------------------------------*\
  =========                 |
  \\      /  F ield         | OpenFOAM: The Open Source CFD Toolbox
   \\    /   O peration     | Website:  https://openfoam.org
    \\  /    A nd           | Version:  9
     \\/     M anipulation  |
\*---------------------------------------------------------------------------*/
FoamFile
{
    format      ascii;
    class       volScalarField;
    location    "2.4";
    object      epsilon;
}
// * * * * * * * * * * * * * * * * * * * * * * * * * * * * * * * * * * * * * //

dimensions      [0 2 -3 0 0 0 0];

internalField   nonuniform List<scalar> 
36360
(
2.11644
1.75849
0.602844
0.724285
0.495693
0.57671
0.0304007
0.064276
0.55615
0.128068
0.0961907
0.0120803
0.112797
0.0164524
0.00995097
0.00617657
0.0284765
0.0284726
0.00566285
0.00566278
0.00670629
0.00670621
0.005954
0.005954
0.128041
0.556068
0.012079
0.0961758
0.0164504
0.112777
0.00617656
0.0099504
1.75835
2.11629
0.724232
0.602805
0.576627
0.495633
0.0642667
0.0303987
4.15387
3.3352
3.2624
2.622
2.96968
2.32285
1.74529
1.42308
1.6025
0.806602
1.08567
0.423189
1.1238
0.513816
0.520629
0.125792
0.499623
0.499576
0.183172
0.18315
0.279451
0.279426
0.0417033
0.0416996
0.806449
1.60223
0.423106
1.0855
0.513708
1.12354
0.125765
0.520521
3.33484
4.15349
2.62176
3.26213
2.32237
2.9691
1.42283
1.74502
5.51576
4.5157
4.88211
3.95499
5.11138
4.11557
4.07483
3.22058
2.5851
1.65078
2.10281
1.22423
2.53215
1.72013
1.80679
1.08158
1.27269
1.2726
0.87549
0.87542
1.39564
1.39553
0.795557
0.795491
1.65049
2.58463
1.22401
2.10244
1.71977
2.53146
1.08135
1.80633
4.51512
5.51514
3.95452
4.88159
4.11448
5.11006
3.21981
4.07391
6.60168
5.50878
6.08512
5.03036
7.05182
5.86734
6.10078
5.00036
3.48391
2.4786
3.04588
2.0713
4.0209
3.07095
3.27563
2.39011
2.06201
2.06187
1.67152
1.6714
2.6817
2.68148
2.03151
2.03134
2.47819
3.48327
2.07095
3.04532
3.07028
4.01971
2.38959
3.27469
5.50802
6.60087
5.02969
6.08437
5.86555
7.04968
4.99892
6.09908
7.50301
6.35925
7.07183
5.95045
8.81321
7.50369
7.95684
6.70365
4.283
3.23591
3.89655
2.86779
5.46214
4.40717
4.75286
3.74682
2.79589
2.79572
2.43812
2.43796
3.96742
3.9671
3.33058
3.33031
3.23541
4.28224
2.86734
3.89584
4.4062
5.46048
3.74599
4.75143
6.35837
7.5021
5.94962
7.07093
7.50127
8.81034
6.70155
7.95435
8.2528
7.07766
7.89476
6.73363
10.3603
8.96703
9.61387
8.25832
4.97382
3.90201
4.64191
3.58095
6.78089
5.64766
6.13945
5.04247
3.44757
3.44738
3.13287
3.13269
5.17049
5.17008
4.58256
4.5822
3.90146
4.97298
3.58042
4.64111
5.64644
6.77883
5.04137
6.13758
7.07672
8.25185
6.73271
7.89378
8.96409
10.3568
8.25563
9.61071
8.86985
7.67463
8.57604
7.38995
11.6825
10.2334
11.0485
9.6244
5.55731
4.47147
5.27855
4.19881
7.94108
6.75084
7.38154
6.2176
4.00836
4.00817
3.73949
3.7393
6.24652
6.24605
5.72578
5.72534
4.47089
5.55644
4.19824
5.27769
6.74943
7.93873
6.21628
7.37932
7.67368
8.8689
7.38899
8.57504
10.23
11.6786
9.62126
11.0448
9.3699
8.16085
9.13271
7.93009
12.788
11.3023
12.2603
10.7908
6.0399
4.94712
5.81053
4.72065
8.93227
7.70104
8.45726
7.24497
4.47915
4.47895
4.25476
4.25456
7.17723
7.17672
6.73012
6.72962
4.94654
6.03903
4.72007
5.80966
7.6995
8.9297
7.24349
8.45479
8.15993
9.369
7.92915
9.13173
11.2986
12.7837
10.7874
12.2562
9.76776
8.54988
9.57977
8.36589
13.694
12.1846
13.2636
11.7648
6.43131
5.33625
6.24623
5.152
9.75865
8.49852
9.365
8.11814
4.86596
4.86576
4.68265
4.68244
7.96096
7.96041
7.58686
7.58632
5.33567
6.43045
5.15142
6.24536
8.49688
9.75593
8.11654
9.36235
8.549
9.76692
8.36499
9.57883
12.1808
13.6895
11.7611
13.2593
10.0772
8.85437
9.93188
8.71125
14.4204
12.8961
14.0773
12.5595
6.74197
5.64779
6.59602
5.50122
10.4314
9.15175
10.1129
8.84214
5.17694
5.17674
5.0305
5.0303
8.6049
8.60433
8.29947
8.29891
5.64722
6.74114
5.50065
6.59518
9.15005
10.4286
8.84046
10.1101
8.85354
10.0764
8.71038
9.93101
12.8922
14.4158
12.5556
14.0728
10.3104
9.08561
10.2018
8.97778
14.9884
13.4553
14.7218
13.1925
6.98201
5.89093
6.87015
5.77744
10.9652
9.67329
10.7142
9.42779
5.42077
5.42057
5.30683
5.30664
9.12058
9.11999
8.87766
8.87708
5.89037
6.9812
5.77688
6.86933
9.67154
10.9623
9.42606
10.7113
9.08482
10.3097
8.97696
10.201
13.4513
14.9836
13.1885
14.7172
10.4778
9.25359
10.4009
9.17627
15.4174
13.8801
15.218
13.6823
7.16071
6.07438
7.07845
5.98972
11.3754
10.077
11.1843
9.88869
5.60584
5.60565
5.5203
5.52011
9.52113
9.52053
9.33412
9.33353
6.07384
7.15993
5.98917
7.07766
10.0753
11.3725
9.88693
11.1814
9.25285
10.4771
9.17549
10.4002
13.876
15.4126
13.6783
15.2133
10.5887
9.36718
10.5389
9.31594
15.7259
14.1878
15.5845
14.0463
7.28651
6.20611
7.22971
6.14636
11.6772
10.3769
11.5385
10.2387
5.7399
5.73972
5.67894
5.67876
9.81985
9.81924
9.68209
9.68149
6.20559
7.28575
6.14583
7.22894
10.3751
11.6743
10.237
11.5355
9.36648
10.5882
9.31521
10.5382
14.1837
15.7211
14.0422
15.5797
10.6507
9.4335
10.6246
9.40514
15.9297
14.3938
15.8389
14.3016
7.36655
6.29316
7.33184
6.25497
11.8843
10.5856
11.7914
10.4916
5.82985
5.82966
5.79017
5.78999
10.0293
10.0287
9.93469
9.93408
6.29264
7.36581
6.25445
7.3311
10.5838
11.8814
10.4898
11.7884
9.43283
10.6502
9.40446
10.624
14.3896
15.9248
14.2975
15.8341
10.6701
9.45883
10.6646
9.45024
16.0422
14.511
15.9953
14.4614
7.40698
6.34155
7.39137
6.32199
12.009
10.7151
11.9558
10.6593
5.88162
5.88144
5.86035
5.86017
10.1607
10.1601
10.1038
10.1032
6.34104
7.40626
6.32148
7.39065
10.7132
12.006
10.6574
11.9528
9.45818
10.6696
9.44959
10.664
14.5068
16.0373
14.4573
15.9905
10.6522
9.44815
10.6651
9.45718
16.0742
14.5497
16.0667
14.5387
7.41279
6.35626
7.414
6.35302
12.0614
10.7752
12.0432
10.7529
5.90024
5.90006
5.895
5.89482
10.2242
10.2236
10.2001
10.1995
6.35575
7.41207
6.35252
7.41328
10.7734
12.0583
10.7511
12.0402
9.44756
10.6518
9.45652
10.6645
14.5455
16.0692
14.5345
16.0618
10.5984
9.40315
10.6298
9.42986
16.0375
14.5211
16.0649
14.5437
7.38785
6.34193
7.40432
6.35269
12.0516
10.7753
12.0627
10.7811
5.89048
5.89029
5.89874
5.89856
10.2286
10.2279
10.2323
10.2317
6.34141
7.38708
6.35218
7.40359
10.7734
12.0485
10.7793
12.0596
9.40206
10.5974
9.42922
10.6293
14.5168
16.0324
14.5394
16.0599
10.5098
9.32762
10.5562
9.36718
15.9328
14.4278
15.9905
14.4793
7.33557
6.30162
7.36457
6.32483
11.9845
10.7224
12.0239
10.7552
5.8554
5.85523
5.87602
5.87583
10.1819
10.1813
10.2117
10.2111
6.30112
7.33485
6.3243
7.36379
10.7205
11.9814
10.7533
12.0208
9.32788
10.5102
9.36659
10.5553
14.4234
15.9276
14.4749
15.9854
10.4078
9.23656
10.4609
9.28458
15.7848
14.2921
15.8635
14.3648
7.26361
6.24096
7.30209
6.27382
11.8738
10.6255
11.9339
10.6786
5.7999
5.79978
5.83018
5.83002
10.0914
10.0908
10.1412
10.1406
6.24068
7.26351
6.2734
7.30158
10.6239
11.8713
10.6769
11.931
9.23756
10.4091
9.28475
10.4613
14.2895
15.7812
14.3608
15.8586
10.2817
9.12505
10.3447
9.18072
15.5925
14.1131
15.6919
14.2054
7.17392
6.16318
7.22062
6.20419
11.7248
10.4918
11.8031
10.5626
5.72743
5.72734
5.76583
5.76572
9.96445
9.96391
10.0318
10.0313
6.16301
7.17404
6.20399
7.22078
10.4903
11.7225
10.5611
11.8008
9.12558
10.283
9.18276
10.3476
14.1105
15.5894
14.2033
15.6894
10.1424
8.99942
10.2144
9.06416
15.3656
13.9002
15.4826
14.01
7.06973
6.07086
7.12371
6.11893
11.5435
10.3265
11.6376
10.4126
5.64047
5.64043
5.68586
5.6858
9.80619
9.80569
9.8887
9.88819
6.0709
7.07058
6.11888
7.1242
10.3251
11.5419
10.4111
11.6356
9.00311
10.1473
9.06576
10.2161
13.9005
15.3653
14.0088
15.4806
9.98786
8.86042
10.0662
8.93104
15.1064
13.6564
15.2387
13.7807
6.95248
5.96576
7.01268
6.02
11.3331
10.1332
11.4413
10.2328
5.54085
5.54078
5.59236
5.59231
9.62054
9.62002
9.7163
9.71579
5.96567
6.9529
6.01999
7.01332
10.1317
11.331
10.2314
11.4395
8.86301
9.99099
8.93356
10.0699
13.6544
15.104
13.7798
15.2378
9.8212
8.71028
9.90519
8.78601
14.8196
13.3859
14.9652
13.5231
6.8241
5.84945
6.88967
5.90911
11.0972
9.91544
11.2178
10.0269
5.43013
5.43003
5.48701
5.48694
9.41087
9.41034
9.51827
9.51775
5.84925
6.82424
5.90901
6.8901
9.91392
11.0951
10.0254
11.2158
8.71275
9.82516
8.78919
9.90918
13.3843
14.8177
13.5218
14.9633
9.64334
8.55035
9.73254
8.63065
14.5075
13.0911
14.6657
13.2404
6.68541
5.72319
6.75605
5.78769
10.8389
9.6761
10.9704
9.79805
5.30958
5.3094
5.37123
5.37109
9.17997
9.17937
9.29767
9.2971
5.72261
6.68428
5.78729
6.7555
9.67428
10.8356
9.79636
10.9676
8.54753
9.64062
8.63054
9.73376
13.0851
14.501
13.2364
14.6617
9.45496
8.38064
9.54949
8.46584
14.1714
12.7735
14.3411
12.9336
6.53748
5.588
6.61259
5.65684
10.5605
9.41749
10.7017
9.54882
5.18029
5.18011
5.24619
5.246
8.93014
8.92955
9.05706
9.05646
5.58745
6.53662
5.65624
6.61148
9.41573
10.5576
9.547
10.6985
8.37921
9.45337
8.4634
9.54628
12.7695
14.1664
12.9283
14.3348
9.25554
8.20131
9.35562
8.29117
13.8149
12.4364
13.9947
12.6062
6.38118
5.44467
6.4604
5.51752
10.264
9.14132
10.4141
9.28128
5.04296
5.04279
5.11282
5.11264
8.66303
8.66246
8.79844
8.79786
5.44417
6.38039
5.517
6.45958
9.13963
10.2612
9.27956
10.4112
8.20035
9.25442
8.2898
9.35407
12.4321
13.8099
12.602
13.9898
9.04502
8.01222
9.15133
8.10764
13.4371
12.0786
13.628
12.2593
6.21619
5.2933
6.29992
5.37019
9.94969
8.84848
10.1088
8.99673
4.89785
4.89769
4.97158
4.97142
8.37967
8.37912
8.52312
8.52256
5.29286
6.21556
5.36973
6.29922
8.84685
9.94703
8.99507
10.106
8.01165
9.04459
8.10691
9.15055
12.0749
13.4326
12.2554
13.6234
8.82158
7.81201
8.93417
7.91283
13.0367
11.6997
13.2388
11.8908
6.0421
5.13384
6.13034
5.21475
9.61774
8.53948
9.78556
8.69573
4.74506
4.74492
4.8226
4.82245
8.08076
8.08023
8.2319
8.23136
5.13342
6.04153
5.21432
6.12975
8.53791
9.61518
8.69413
9.78295
7.81156
8.82132
7.91234
8.93377
11.6962
13.0325
11.8872
13.2345
8.58725
7.60234
8.70502
7.70769
12.6163
11.3022
12.8281
11.5023
5.85964
4.96669
5.95194
5.05137
9.26946
8.21536
9.44525
8.37903
4.58492
4.58478
4.66608
4.66594
7.76724
7.76673
7.92557
7.92505
4.9663
5.8591
5.05097
5.95139
8.21384
9.26698
8.37748
9.44273
7.60193
8.58704
7.70726
8.7047
11.2988
12.6122
11.4988
12.824
8.34382
7.38456
8.46597
7.49383
12.1783
10.888
12.3986
11.0963
5.66963
4.7924
5.76561
4.88058
8.90634
7.87724
9.08941
8.04779
4.41782
4.41768
4.5024
4.50226
7.44008
7.43959
7.60513
7.60462
4.79202
5.66911
4.8802
5.76509
7.87577
8.90394
8.0463
9.08697
7.38417
8.34362
7.49344
8.46568
10.8847
12.1743
11.0929
12.3947
8.09243
7.15951
8.21846
7.27234
11.7243
10.4585
11.9525
10.6743
5.47259
4.61129
5.57204
4.70285
8.52936
7.52595
8.71929
7.70302
4.24402
4.24389
4.33193
4.33179
7.10004
7.09956
7.27147
7.27098
4.61092
5.47209
4.70248
5.57154
7.52452
8.52705
7.70157
8.71693
7.15914
8.09223
7.27197
8.21818
10.4553
11.7205
10.6711
11.9487
7.8337
6.92753
7.96337
7.04384
11.2551
10.0145
11.4909
10.2374
5.26871
4.42344
5.37158
4.51838
8.13908
7.1619
8.33562
7.34534
4.06356
4.06343
4.15481
4.15467
6.74749
6.74702
6.92516
6.92468
4.42308
5.26822
4.51801
5.37109
7.16053
8.13685
7.34394
8.33334
6.92716
7.8335
7.04347
7.96309
10.0115
11.2515
10.2343
11.4872
7.56791
6.68857
7.70112
6.80839
10.7711
9.55695
11.0144
9.78681
5.05775
4.22856
5.16421
4.32706
7.73556
6.78503
7.93879
6.97495
3.87611
3.87599
3.9709
3.97078
6.3823
6.38185
6.56635
6.56589
4.22821
5.05727
4.32671
5.16373
6.7837
7.73341
6.97359
7.9366
6.68821
7.5677
6.80802
7.70083
9.554
10.7676
9.7838
11.0109
7.29462
6.44208
7.43171
6.56581
10.2711
9.08432
10.5227
9.32195
4.83895
4.02586
4.94947
4.12841
7.31789
6.39453
7.52838
6.59141
3.68087
3.68074
3.77969
3.77957
6.00375
6.00332
6.19463
6.19419
4.02551
4.83848
4.12806
4.949
6.39326
7.31583
6.59012
7.52628
6.44172
7.2944
6.56545
7.43142
9.0815
10.2678
9.31906
10.5193
7.01211
6.18624
7.15414
6.31497
9.75207
8.59456
10.0137
8.84113
4.61054
3.81368
4.72617
3.92123
6.88414
5.98872
7.10301
6.19355
3.47629
3.47617
3.58002
3.57989
5.61031
5.6099
5.8089
5.80848
3.81334
4.61009
3.92089
4.72571
5.98751
6.88219
6.19231
7.101
6.18589
7.01188
6.31462
7.15385
8.59188
9.7489
8.83838
10.0105
6.716
5.91686
6.86563
6.05311
9.20786
8.08365
9.48315
8.34151
4.36895
3.58905
4.49177
3.7033
6.43064
5.56456
6.66001
5.77906
3.25977
3.25965
3.36986
3.36974
5.19935
5.19897
5.4071
5.4067
3.58873
4.36852
3.70297
4.49133
5.56343
6.42881
5.77789
6.65812
5.91653
6.71578
6.05277
6.86534
8.08114
9.20491
8.33891
9.48012
6.39624
5.62401
6.55953
5.7739
8.6263
7.54352
8.92234
7.81745
4.10638
3.34657
4.24111
3.47061
5.94994
5.11691
6.19424
5.34398
3.02737
3.02727
3.14595
3.14584
4.76728
4.76693
4.98607
4.98571
3.34628
4.10598
3.47031
4.24069
5.11587
5.94826
5.34289
6.19248
5.62371
6.39604
5.77358
6.55926
7.54121
8.62359
7.81504
8.91952
6.03022
5.27692
6.22049
5.46057
7.987
6.95135
8.31478
7.25647
3.80331
3.07704
3.96202
3.21599
5.42441
4.638
5.69449
4.88176
2.77496
2.77487
2.9039
2.9038
4.31167
4.31136
4.54221
4.54187
3.07677
3.80296
3.21571
3.96165
4.63708
5.42291
4.88077
5.69289
5.27667
6.03007
5.46029
6.22026
6.94928
7.98457
7.25428
8.31223
5.585
4.72901
5.81967
5.05079
7.23891
6.15701
7.63708
6.60354
3.41137
2.7725
3.62277
2.92888
4.81094
4.12564
5.13214
4.38491
2.50624
2.50615
2.64166
2.64157
3.84202
3.84175
4.07685
4.07656
2.77228
3.41108
2.92864
3.62245
4.12484
4.80965
4.38405
5.13074
4.72883
5.58495
5.05057
5.81951
6.15523
7.23674
6.6016
7.63481
3.5118
2.79729
1.78804
1.52173
2.95443
2.35955
1.29357
1.15611
1.20669
0.473404
0.420262
0.0759477
0.912235
0.289945
0.239012
0.0330535
0.203402
0.20337
0.0187438
0.0187412
0.0971689
0.0971545
0.00943295
0.00943238
0.473277
1.20645
0.0759228
0.420153
0.289877
0.912084
0.0330454
0.238961
2.79697
3.5115
1.52152
1.78781
2.35933
2.95419
1.15599
1.29344
5.6043
4.5571
4.72419
3.7893
5.00793
4.03705
4.13573
3.29975
2.60384
1.57571
1.94647
1.02053
2.15382
1.20994
1.56343
0.735786
1.14085
1.14076
0.640167
0.640099
0.823784
0.823714
0.40514
0.405096
1.57543
2.60341
1.02032
1.94612
1.20973
2.15347
0.735644
1.56318
4.55667
5.60394
3.78892
4.72382
4.03666
5.00754
3.29945
4.13539
6.81584
5.6954
6.2766
5.17727
6.25286
5.16883
5.68911
4.64568
3.70382
2.59912
3.18603
2.10555
3.18101
2.13055
2.69027
1.67923
2.11349
2.11338
1.63836
1.63825
1.68375
1.68365
1.25635
1.25626
2.59879
3.70337
2.10524
3.18558
2.13023
3.18054
1.67896
2.68985
5.69505
6.81562
5.17685
6.27625
5.16836
6.25243
4.64524
5.68866
7.62722
6.51117
7.25624
6.13328
7.14623
6.03133
6.7289
5.62498
4.57333
3.46508
4.1638
3.0524
4.03907
2.95483
3.62922
2.55683
2.96658
2.96646
2.55747
2.55735
2.48271
2.48258
2.09461
2.0945
3.46477
4.57296
3.05207
4.16338
2.95447
4.03856
2.55649
3.62873
6.51103
7.6273
6.13301
7.25611
6.0309
7.14588
5.62452
6.72845
8.21061
7.12254
7.94041
6.83717
7.83593
6.71702
7.51134
6.39251
5.26076
4.17476
4.9372
3.83853
4.75166
3.6619
4.41222
3.32317
3.67911
3.67902
3.34031
3.34021
3.18042
3.18029
2.84508
2.84495
4.17454
5.26057
3.83826
4.93691
3.66155
4.75119
3.32281
4.41172
7.12267
8.21105
6.83715
7.9406
6.7167
7.83573
6.39211
7.51101
8.64347
7.58867
8.44173
7.37041
8.37756
7.26579
8.12185
7.00592
5.80245
4.74646
5.54779
4.47661
5.33672
4.25365
5.05888
3.97168
4.25985
4.25979
3.9851
3.98502
3.77056
3.77044
3.48877
3.48865
4.74634
5.80244
4.47643
5.54767
4.25332
5.33632
3.97133
5.05843
7.58909
8.64427
7.37067
8.44228
7.26561
8.37756
7.00565
8.12168
8.9678
7.94515
8.81634
7.77826
8.80388
7.70311
8.60296
7.49643
6.22696
5.20158
6.02782
4.98747
5.81136
4.7401
5.58674
4.50934
4.72596
4.72594
4.50631
4.50627
4.25922
4.25911
4.02707
4.02696
5.20157
6.22713
4.9874
6.02789
4.73982
5.81104
4.50903
5.58637
7.94584
8.96893
7.7788
8.81724
7.70308
8.80409
7.4963
8.60297
9.20993
8.21575
9.09708
8.08935
9.13522
8.04747
8.97922
7.88511
6.55652
5.55965
6.40242
5.39182
6.19114
5.13359
6.01207
4.94772
5.0951
5.09511
4.92182
4.92181
4.65677
4.65667
4.46876
4.46866
5.55973
6.55685
5.39184
6.40266
5.13336
6.19092
4.94746
6.0118
8.21666
9.21134
8.09013
9.09828
8.04759
9.13562
7.88513
8.97944
9.38651
8.41713
9.30467
8.32355
9.3888
8.31395
9.26986
8.18884
6.80854
5.83731
6.69132
5.70783
6.49014
5.44664
6.34984
5.29951
5.38319
5.38322
5.24863
5.24865
4.97468
4.97461
4.8251
4.82501
5.83748
6.80901
5.70794
6.69171
5.44646
6.49001
5.2993
6.34966
8.41825
9.38816
8.32454
9.30613
8.3142
9.38937
8.189
9.27025
9.5091
8.56158
9.45308
8.49519
9.57722
8.51459
9.48956
8.42109
6.99665
6.04826
6.90993
5.95064
6.72045
5.69072
6.61315
5.57676
5.60371
5.60377
5.50145
5.50149
5.22394
5.22388
5.10741
5.10735
6.0485
6.99724
5.95083
6.91044
5.69058
6.7204
5.5766
6.61305
8.56286
9.51097
8.49637
9.45476
8.51497
9.57795
8.42138
9.49011
9.58729
8.6589
9.55248
8.61504
9.71054
8.6595
9.64931
8.59275
7.13177
6.20368
7.07035
6.13258
6.89244
5.87592
6.81313
5.79024
5.76782
5.7679
5.69252
5.69259
5.41439
5.41434
5.32612
5.32607
6.20398
7.13247
6.13284
7.07098
5.87583
6.89246
5.79013
6.81311
8.66032
9.58933
8.61636
9.55435
8.65999
9.71142
8.59316
9.65
9.62795
8.71653
9.61122
8.69174
9.79669
8.75659
9.7582
8.71286
7.22255
6.31263
7.18237
6.26377
7.01471
6.01091
6.9593
5.94936
5.88471
5.88481
5.83201
5.8321
5.55461
5.55458
5.49049
5.49045
6.31298
7.22333
6.26409
7.18309
6.01086
7.0148
5.94929
6.95935
8.71808
9.63015
8.6932
9.61325
8.75718
9.7977
8.71338
9.75903
9.63702
8.74089
9.63538
8.73199
9.8429
8.81339
9.82347
8.78891
7.27615
6.38258
7.25375
6.35239
7.09481
6.10318
7.05961
6.06213
5.96192
5.96203
5.92821
5.92832
5.65203
5.65201
5.60845
5.60842
6.38298
7.277
6.35275
7.25455
6.10316
7.09496
6.06209
7.05972
8.74253
9.63935
8.73356
9.63756
8.81406
9.84402
8.78952
9.82441
9.61895
8.73666
9.63057
8.74155
9.85444
8.83538
9.8519
8.82775
7.29819
6.41956
7.29098
6.40521
7.1388
6.15896
7.12101
6.13547
6.00561
6.00573
5.988
5.98811
5.71291
5.71289
5.68691
5.68689
6.42
7.29911
6.40562
7.29185
6.15897
7.139
6.13546
7.12117
8.7384
9.6214
8.74322
9.63287
8.83612
9.85566
8.82844
9.85294
9.57718
8.70787
9.6001
8.7246
9.8363
8.82758
9.84811
8.83424
7.29336
6.42845
7.29901
6.4276
7.15178
6.18344
7.14893
6.17502
6.02076
6.0209
6.01687
6.017
5.74244
5.74244
5.73153
5.73152
6.42892
7.29434
6.42805
7.29994
6.18347
7.15201
6.17503
7.14913
8.70968
9.57972
8.72635
9.6025
8.82837
9.83759
8.835
9.84923
9.51422
8.65726
9.54763
8.68471
9.79123
8.7931
9.81626
8.81291
7.26504
6.4133
7.28216
6.42409
7.13786
6.18094
7.14808
6.18549
6.01162
6.01176
6.0194
6.01954
5.745
5.74499
5.74706
5.74705
6.41379
7.26604
6.42456
7.28313
6.18098
7.13811
6.18552
7.14831
8.65911
9.5168
8.68652
9.5501
8.79394
9.79258
8.8137
9.81742
9.43061
8.58558
9.47465
8.62384
9.72016
8.73327
9.75855
8.76599
7.21535
6.37661
7.24305
6.39786
7.09926
6.15447
7.12167
6.17076
5.98092
5.98107
5.99918
5.99932
5.72404
5.72403
5.73757
5.73756
6.3771
7.21634
6.39834
7.24404
6.1545
7.09944
6.1708
7.12189
8.58738
9.43314
8.62565
9.47714
8.73366
9.72119
8.76678
9.75987
9.32491
8.49359
9.37918
8.54089
9.62467
8.65065
9.67402
8.69361
7.14678
6.32141
7.18329
6.35145
7.03918
6.10726
7.07159
6.13339
5.93185
5.93201
5.95888
5.95903
5.68262
5.68263
5.70588
5.70587
6.32192
7.1478
6.35193
7.18424
6.1073
7.03934
6.1334
7.07167
8.4954
9.32739
8.54261
9.3815
8.65093
9.62525
8.69355
9.6742
9.20999
8.39156
9.26782
8.44343
9.51468
8.5535
9.57074
8.60322
7.06458
6.25159
7.10743
6.28851
6.96337
6.04373
7.00314
6.07755
5.86786
5.86805
5.90195
5.90211
5.62472
5.62478
5.65578
5.6558
6.25221
7.06589
6.28907
7.10856
6.044
6.96428
6.07769
7.00361
8.394
9.21329
8.44549
9.27052
8.55552
9.5173
8.60416
9.57201
9.08562
8.27952
9.14849
8.33625
9.39327
8.44524
9.45437
8.49996
6.97158
6.17006
7.01957
6.21255
6.87505
5.96696
6.92073
6.00709
5.79178
5.79198
5.83162
5.83181
5.55333
5.55341
5.59082
5.59089
6.17073
6.97293
6.2132
7.02091
5.96728
6.87591
6.0074
6.92171
8.28191
9.08904
8.33872
9.15191
8.44814
9.39711
8.50279
9.45781
8.95396
8.16
9.02004
8.22035
9.2629
8.32778
9.32847
8.38722
6.86924
6.07859
6.92179
6.12589
6.77564
5.87883
6.82677
5.92446
5.7055
5.70571
5.75025
5.75045
5.47048
5.47057
5.5135
5.51358
6.07928
6.8706
6.12656
6.92312
5.87919
6.77653
5.92479
6.82761
8.16241
8.95723
8.22274
9.02328
8.32955
9.26581
8.38963
9.33207
8.81307
8.03154
8.88425
8.09645
9.12008
8.19868
9.19213
8.26369
6.7583
5.9783
6.81505
6.02988
6.66608
5.78061
6.72213
5.83113
5.61029
5.61049
5.65936
5.65957
5.37755
5.37764
5.42545
5.42554
5.97898
6.75966
6.03056
6.8164
5.78096
6.66698
5.83149
6.72303
8.03389
8.81631
8.09878
8.88741
8.20089
9.12307
8.26566
9.19467
8.66506
7.89644
8.73921
7.96441
8.96857
8.06168
9.04469
8.13068
6.6397
5.87016
6.70017
5.92555
6.54768
5.67354
6.60802
5.72835
5.50715
5.50734
5.56007
5.56027
5.27577
5.27583
5.32796
5.32803
5.87079
6.64099
5.92621
6.70151
5.6738
6.54848
5.72867
6.60893
7.89881
8.66834
7.96683
8.74245
8.06396
8.97221
8.13314
9.04805
8.50943
7.75404
8.58786
7.82577
8.80864
7.91662
8.88901
7.98958
6.51418
5.75498
6.57803
5.81379
6.42142
5.55858
6.48559
5.61722
5.39692
5.39708
5.45329
5.45346
5.16612
5.16612
5.22212
5.22215
5.75552
6.51525
5.81436
6.57917
5.55863
6.42161
5.61736
6.48601
7.7559
8.51203
7.8278
8.59064
7.91734
8.80941
7.99051
8.89064
8.34803
7.6065
8.4287
7.6805
8.64167
7.76531
8.72501
7.84109
6.38255
5.6335
6.44934
5.69537
6.28813
5.43655
6.3557
5.49862
5.28032
5.28048
5.33979
5.33994
5.04942
5.04942
5.10885
5.10884
5.63401
6.38359
5.69588
6.45036
5.43659
6.28837
5.49864
6.35588
7.6084
8.35063
7.68236
8.43123
7.76587
8.64291
7.84214
8.72643
8.18126
7.45398
8.26463
7.53029
8.46699
7.60735
8.55423
7.68613
6.24552
5.50621
6.31492
5.57094
6.1486
5.30807
6.21919
5.37331
5.15779
5.15795
5.22018
5.22033
4.92622
4.92623
4.98885
4.98886
5.50674
6.24658
5.57145
6.31594
5.30815
6.14891
5.37337
6.21945
7.45585
8.18387
7.53213
8.26711
7.60845
8.46847
7.68672
8.55496
8.01
7.2968
8.09585
7.37581
8.28688
7.44407
8.37726
7.5262
6.10281
5.37305
6.1752
5.44076
6.00252
5.17309
6.07657
5.24163
5.02933
5.02949
5.0947
5.09486
4.7966
4.79661
4.86245
4.86246
5.37358
6.10386
5.44128
6.17624
5.17319
6.00286
5.24171
6.07689
7.29869
8.01259
7.37768
8.09838
7.44499
8.28838
7.52723
8.3788
7.82957
7.13135
7.92051
7.21471
8.09562
7.27088
8.19201
7.35808
5.95321
5.23357
6.02911
5.30445
5.84876
5.03127
5.9267
5.10324
4.89479
4.89494
4.96319
4.96335
4.66046
4.66048
4.72956
4.72957
5.2341
5.95426
5.30497
6.03015
5.03137
5.8491
5.10333
5.92702
7.13322
7.83212
7.21657
7.92299
7.27179
8.09704
7.35897
8.19331
7.64128
6.95907
7.73574
7.04559
7.89512
7.08983
7.99568
7.18068
5.79721
5.08801
5.87619
5.16186
5.68792
4.88289
5.76926
4.95806
4.75431
4.75446
4.82563
4.82578
4.51801
4.51803
4.59022
4.59023
5.08852
5.79825
5.16237
5.87721
4.883
5.68827
4.95816
5.76959
6.96091
7.64378
7.04742
7.73819
7.09074
7.89653
7.18157
7.99697
7.44737
6.78148
7.54446
6.87052
7.68779
6.90253
7.79158
6.99636
5.63566
4.93683
5.71732
5.01342
5.52089
4.72846
5.60523
4.80659
4.60822
4.60837
4.68229
4.68244
4.36961
4.36963
4.44474
4.44476
4.93733
5.63668
5.01392
5.71833
4.72857
5.52124
4.8067
5.60557
6.78328
7.44981
6.87232
7.54685
6.90342
7.68916
6.99725
7.79286
7.24902
6.5994
7.34821
6.69061
7.47481
6.70988
7.58132
6.80631
5.46904
4.78032
5.55318
4.85954
5.3482
4.56829
5.43533
4.64927
4.4567
4.45684
4.53346
4.53361
4.21546
4.21548
4.29344
4.29346
4.78081
5.47003
4.86003
5.55416
4.5684
5.34854
4.64937
5.43565
6.60115
7.25137
6.69236
7.35053
6.71075
7.47613
6.80717
7.58256
7.04696
6.41331
7.14795
6.50647
7.25687
6.51227
7.3658
6.61119
5.29752
4.61847
5.3841
4.70037
5.17
4.40239
5.25988
4.48624
4.29967
4.29981
4.3792
4.37935
4.05549
4.05551
4.13641
4.13642
4.61894
5.29847
4.70084
5.38505
4.40248
5.17032
4.48634
5.26019
6.415
7.04922
6.50816
7.15019
6.5131
7.25813
6.61202
7.36699
6.84132
6.22324
6.94412
6.31845
7.03438
6.30961
7.1456
6.41106
5.1208
4.45086
5.21004
4.53571
4.986
4.2303
5.07884
4.31733
4.13668
4.13681
4.21927
4.2194
3.88918
3.88919
3.97335
3.97337
4.45131
5.12171
4.53616
5.21096
4.23039
4.98629
4.31741
5.07913
6.22486
6.84347
6.32008
6.94627
6.3104
7.03558
6.41186
7.14674
6.63156
6.02829
6.73655
6.12609
6.80681
6.10135
6.92071
6.20575
4.93785
4.27642
5.03038
4.36486
4.79531
4.05102
4.89165
4.14179
3.96659
3.96672
4.0529
4.05303
3.71556
3.71557
3.80353
3.80354
4.27685
4.93872
4.36529
5.03125
4.05109
4.79559
4.14187
4.89192
6.02984
6.63362
6.12766
6.7386
6.10209
6.80794
6.20651
6.92178
6.41582
5.82643
6.52416
5.92806
6.57233
5.88551
6.69003
5.99407
4.74651
4.09298
4.8436
4.18626
4.59595
3.8627
4.69697
3.9583
3.78731
3.78743
3.87854
3.87866
3.53286
3.53287
3.62566
3.62566
4.09339
4.74734
4.18667
4.84443
3.86276
4.5962
3.95836
4.69722
5.82791
6.41777
5.92955
6.52611
5.88621
6.5734
5.99478
6.69105
6.18931
5.61289
6.30389
5.72119
6.32624
5.65739
6.45062
5.77293
4.54239
3.89668
4.64659
3.997
4.38362
3.66177
4.49186
3.76425
3.59536
3.59548
3.69345
3.69356
3.33793
3.33793
3.43732
3.43732
3.89706
4.54317
3.99738
4.64738
3.66183
4.38386
3.7643
4.49209
5.6143
6.19115
5.72262
6.30573
5.65805
6.32723
5.7736
6.45157
5.94167
5.3769
6.0686
5.4984
6.05759
5.40588
6.19522
5.53521
4.31642
3.68083
4.43313
3.79196
4.14939
3.44184
4.27017
3.55484
3.38562
3.38572
3.4933
3.4934
3.12596
3.12596
3.23455
3.23455
3.68119
4.31717
3.79232
4.43388
3.44189
4.14961
3.55489
4.27038
5.37825
5.94342
5.49975
6.07034
5.40652
6.05853
5.53585
6.19612
5.65479
5.09006
5.80382
5.24268
5.74383
5.0991
5.90755
5.26267
4.04878
3.43542
4.18986
3.56268
3.8721
3.19243
4.01832
3.32169
3.15321
3.15331
3.27255
3.27265
2.8919
2.8919
3.01196
3.01196
3.43576
4.04948
3.56302
4.19056
3.19248
3.87231
3.32173
4.01852
5.09133
5.65646
5.24397
5.80549
5.09971
5.74473
5.26328
5.90841
5.32206
4.63807
5.49344
4.9017
5.36321
4.60352
5.56257
4.8947
3.70034
3.15589
3.88757
3.29921
3.50575
2.90643
3.70368
3.05347
2.90405
2.90414
3.0295
3.02959
2.64014
2.64015
2.76707
2.76707
3.1562
3.70099
3.29953
3.88823
2.90649
3.50596
3.05352
3.70388
4.63925
5.32369
4.90292
5.49504
4.60411
5.36414
4.8953
5.56342
4.23896
3.40112
2.47228
2.06523
3.92038
3.13198
2.16877
1.81882
1.66807
0.810817
0.739969
0.204554
1.45524
0.649463
0.588554
0.131263
0.461475
0.461399
0.0653589
0.0653412
0.327807
0.327755
0.0368592
0.0368513
0.810572
1.66766
0.20445
0.739713
0.649281
1.45492
0.13121
0.588383
3.40064
4.23851
2.06484
2.47183
3.13159
3.91998
1.81853
2.16842
6.37084
5.26153
5.47844
4.45073
6.03766
4.95054
5.14983
4.15796
3.27169
2.17168
2.52174
1.49917
2.9693
1.89506
2.25964
1.27478
1.68997
1.68984
1.06473
1.06462
1.43121
1.4311
0.862739
0.862652
2.17131
3.27117
1.49884
2.52124
1.89473
2.96883
1.27451
2.25923
5.26109
6.37054
4.45023
5.47799
4.9501
6.03729
4.15753
5.14939
7.56295
6.43345
7.041
5.90731
7.23709
6.10643
6.7086
5.58479
4.4896
3.36021
3.9239
2.79552
4.13463
3.00935
3.59056
2.47679
2.8469
2.84678
2.29067
2.29054
2.50453
2.50441
1.98517
1.98505
3.3599
4.48924
2.79516
3.92343
3.00902
4.13421
2.47645
3.59009
6.43335
7.5631
5.907
7.04084
6.10619
7.237
5.58441
6.70829
8.3039
7.22233
7.97313
6.86393
8.00469
6.90357
7.65867
6.53855
5.39986
4.30939
4.97798
3.86392
5.02497
3.92
4.60958
3.48985
3.80298
3.80291
3.35138
3.35128
3.4131
3.41301
2.98118
2.98107
4.30925
5.39982
3.86368
4.97776
3.91976
5.02476
3.48956
4.60924
7.22274
8.30465
6.86405
7.97351
6.90369
8.00505
6.53845
7.65873
8.78962
7.77095
8.57012
7.51993
8.52766
7.47535
8.2887
7.21141
6.07739
5.04467
5.76354
4.70136
5.70448
4.64227
5.3875
4.30285
4.55852
4.55852
4.20432
4.20428
4.14805
4.148
3.80134
3.80126
5.04474
6.07772
4.70131
5.76367
4.64218
5.70453
4.30268
5.3874
7.77187
8.79098
7.52057
8.57112
7.47587
8.52851
7.2117
8.28923
9.11771
8.15921
8.96837
7.98084
8.89629
7.89359
8.72654
7.69969
6.5813
5.60672
6.34794
5.34499
6.22275
5.20712
5.98105
4.94243
5.14382
5.14389
4.87049
4.87052
4.73012
4.73012
4.45666
4.45663
5.607
6.58198
5.34515
6.34842
5.20719
6.22307
4.94241
5.98122
8.16059
9.1196
7.98196
8.96993
7.89449
8.8976
7.70038
8.72754
9.34134
8.43522
9.23946
8.30842
9.15946
8.20132
9.03801
8.05859
6.95533
6.03307
6.78238
5.83503
6.61705
5.645
6.43343
5.44034
5.59232
5.59246
5.38351
5.3836
5.18551
5.18557
4.97224
4.97227
6.03353
6.95629
5.83538
6.78318
5.64522
6.61761
5.44047
6.43385
8.43698
9.34366
8.30996
9.2415
8.20256
9.16117
8.05962
9.03944
9.49118
8.62918
9.42324
8.54041
9.34588
8.42597
9.26003
8.32201
7.23073
6.35359
7.10383
6.20521
6.91472
5.9812
6.77651
5.82457
5.93257
5.93275
5.77471
5.77486
5.5379
5.53799
5.37343
5.3735
6.35419
7.23193
6.20573
7.10488
5.98154
6.91549
5.82484
6.77715
8.63124
9.49384
8.54228
9.42568
8.42749
9.34791
8.32335
9.26181
9.58606
8.76091
9.54375
8.70124
9.47333
8.58592
9.41516
8.51241
7.42992
6.59108
7.33879
6.48179
7.13594
6.23578
7.03382
6.11778
6.18717
6.18739
6.06969
6.06989
5.80689
5.80702
5.68196
5.68207
6.59181
7.43131
6.48244
7.34005
6.23624
7.13689
6.11817
7.03465
8.76321
9.58901
8.70339
9.54649
8.58766
9.47564
8.514
9.41724
9.63828
8.84394
9.61614
8.80728
9.55409
8.69412
9.5181
8.64517
7.56911
6.76274
7.5063
6.68455
7.29576
6.42435
7.22276
6.33769
6.37354
6.37379
6.28832
6.28855
6.00812
6.00829
5.91538
5.91552
6.76356
7.57064
6.68531
7.50773
6.4249
7.29685
6.33817
7.22375
8.84642
9.64145
8.80964
9.61913
8.69604
9.55661
8.64697
9.52041
9.65644
8.88807
9.65048
8.86986
9.59687
8.76027
9.57897
8.73135
7.66031
6.88156
7.62023
6.82839
7.40567
6.55908
7.3564
6.49801
6.505
6.50528
6.44579
6.44605
6.15394
6.15412
6.08755
6.08771
6.88246
7.66197
6.82924
7.6218
6.55969
7.40687
6.49857
7.35751
8.89071
9.65979
8.87239
9.65367
8.76236
9.59959
8.73331
9.58149
9.64663
8.90028
9.65409
8.89734
9.60777
8.79143
9.60525
8.77928
7.71249
6.95742
7.69097
6.92467
7.47441
6.64944
7.44479
6.60953
6.59181
6.59211
6.55382
6.55411
6.25408
6.25428
6.20946
6.20965
6.95839
7.71425
6.92559
7.69266
6.65012
7.47571
6.61015
7.44601
8.90305
9.65013
8.90001
9.65744
8.79364
9.61065
8.78139
9.60793
9.61362
8.88635
9.63209
8.89588
9.59227
8.79357
9.60234
8.79526
7.73264
6.99805
7.72639
6.98208
7.50905
6.70303
7.4957
6.68067
6.64196
6.64228
6.62143
6.62174
6.31632
6.31655
6.28979
6.29
6.99907
7.73449
6.98306
7.72817
6.70376
7.51043
6.68135
7.49701
8.88923
9.61725
8.89867
9.63559
8.79589
9.59529
8.79749
9.60517
9.56066
8.85007
9.58884
8.87034
9.55386
8.77091
9.57502
8.78463
7.7261
7.00936
7.73258
7.00741
7.51493
6.72579
7.51541
6.71821
6.66169
6.66203
6.6557
6.65603
6.34685
6.34709
6.33551
6.33574
7.01043
7.72802
7.00844
7.73443
6.72657
7.51639
6.71894
7.5168
8.85304
9.5644
8.87323
9.59245
8.77333
9.55699
8.78696
9.57798
9.49051
8.79483
9.52694
8.8242
9.49567
8.72702
9.52631
8.75088
7.69694
6.99621
7.71431
7.00597
7.49656
6.72259
7.50871
6.7274
6.65604