/*--------------------------------*- C++ -*----------------------------------*\
  =========                 |
  \\      /  F ield         | OpenFOAM: The Open Source CFD Toolbox
   \\    /   O peration     | Website:  https://openfoam.org
    \\  /    A nd           | Version:  9
     \\/     M anipulation  |
\*---------------------------------------------------------------------------*/
FoamFile
{
    format      ascii;
    class       volScalarField;
    location    "2.4";
    object      k;
}
// * * * * * * * * * * * * * * * * * * * * * * * * * * * * * * * * * * * * * //

dimensions      [0 2 -2 0 0 0 0];

internalField   nonuniform List<scalar> 
36360
(
0.352887
0.304894
0.123058
0.13455
0.0643691
0.0711631
0.0100326
0.0165064
0.137363
0.0466108
0.0283822
0.00591815
0.0239968
0.00665084
0.00475036
0.00345244
0.0158996
0.0158985
0.00344648
0.00344647
0.00365141
0.00365138
0.00336781
0.00336781
0.0466042
0.137347
0.00591774
0.0283786
0.00665031
0.0239939
0.00345244
0.00475018
0.304868
0.352857
0.13454
0.123048
0.0711562
0.0643638
0.0165048
0.0100321
0.640457
0.553576
0.515775
0.441209
0.211993
0.179984
0.148776
0.129853
0.347806
0.231323
0.246314
0.134671
0.110966
0.065915
0.0664696
0.0258169
0.179317
0.179307
0.0813364
0.0813307
0.0439625
0.0439599
0.0123881
0.0123874
0.231292
0.347755
0.134652
0.246281
0.0659057
0.110949
0.0258131
0.0664604
0.55351
0.640382
0.441164
0.515724
0.179959
0.211966
0.129837
0.148761
0.835026
0.740083
0.743933
0.651634
0.30444
0.263514
0.261753
0.223777
0.52915
0.411391
0.441917
0.324249
0.19067
0.147387
0.152264
0.1082
0.359369
0.35935
0.272239
0.272224
0.128239
0.128232
0.0881991
0.0881942
0.411336
0.529063
0.324205
0.441848
0.147366
0.190636
0.108185
0.152239
0.739973
0.834903
0.651546
0.743834
0.263467
0.304387
0.223742
0.261714
0.990907
0.893982
0.916743
0.820475
0.377285
0.333783
0.342553
0.300038
0.683671
0.566773
0.609593
0.492187
0.259497
0.216858
0.226359
0.183502
0.514879
0.514853
0.440202
0.44018
0.198142
0.198131
0.164676
0.164667
0.566697
0.683553
0.492121
0.60949
0.216826
0.259446
0.183475
0.226316
0.893836
0.990745
0.820346
0.9166
0.333715
0.377209
0.299981
0.34249
1.11887
1.0218
1.05799
0.960851
0.437742
0.393257
0.408908
0.364787
0.813609
0.698046
0.751539
0.635283
0.318274
0.27588
0.290095
0.247595
0.646536
0.646504
0.583553
0.583524
0.257227
0.257213
0.228919
0.228907
0.697955
0.813468
0.635199
0.751408
0.27584
0.318209
0.247559
0.290037
1.02162
1.11868
0.96069
1.05781
0.393172
0.437647
0.36471
0.408823
1.22338
1.12694
1.17374
1.07692
0.48757
0.442842
0.463864
0.419195
0.921383
0.807356
0.870071
0.755274
0.367619
0.32546
0.344061
0.301783
0.756431
0.756397
0.704042
0.704009
0.306876
0.30686
0.283159
0.283144
0.807256
0.921228
0.755178
0.869921
0.325413
0.367545
0.301739
0.343991
1.12675
1.22317
1.07674
1.17353
0.442745
0.487461
0.419104
0.463762
1.30804
1.21254
1.26791
1.17192
0.528211
0.483602
0.508924
0.464225
1.0097
0.897249
0.967774
0.854552
0.408426
0.366554
0.389013
0.346995
0.846989
0.846952
0.803958
0.803922
0.348079
0.348062
0.328463
0.328446
0.897143
1.00953
0.854448
0.967614
0.366503
0.408345
0.346946
0.388935
1.21234
1.30782
1.17172
1.26769
0.483497
0.528092
0.464124
0.508812
1.37599
1.2815
1.34384
1.24884
0.561022
0.51671
0.545482
0.501006
1.08125
0.970308
1.04737
0.935706
0.441731
0.400177
0.425933
0.384222
0.920711
0.920673
0.885783
0.885746
0.381834
0.381816
0.365813
0.365795
0.970199
1.08108
0.935598
1.04721
0.400123
0.441646
0.38417
0.42585
1.28129
1.37577
1.24864
1.34362
0.5166
0.560897
0.500898
0.545362
1.42989
1.33637
1.40446
1.31046
0.587213
0.54326
0.574846
0.530709
1.13851
1.02897
1.11149
1.00128
0.468565
0.427338
0.455881
0.414494
0.980002
0.979964
0.952005
0.951967
0.409137
0.409118
0.396222
0.396203
1.02886
1.13834
1.00117
1.11132
0.427283
0.468478
0.414439
0.455795
1.33616
1.42966
1.31026
1.40423
0.543146
0.587085
0.530598
0.574721
1.47194
1.37933
1.45218
1.35913
0.607799
0.564205
0.598119
0.554345
1.18365
1.07539
1.16244
1.05357
0.489854
0.448958
0.479834
0.438777
1.02701
1.02698
1.00491
1.00487
0.430906
0.430887
0.420651
0.420632
1.07528
1.18348
1.05346
1.16227
0.448902
0.489766
0.438722
0.479746
1.37913
1.47171
1.35893
1.45196
0.56409
0.607669
0.554231
0.597992
1.50404
1.41225
1.48905
1.39686
0.623654
0.580397
0.616239
0.572814
1.21853
1.11145
1.20224
1.0946
0.506423
0.465853
0.498667
0.457939
1.06361
1.06357
1.0465
1.04646
0.44795
0.447931
0.439962
0.439943
1.11134
1.21836
1.09449
1.20207
0.465797
0.506335
0.457883
0.498578
1.41205
1.50381
1.39666
1.48882
0.580281
0.623523
0.572699
0.61611
1.5277
1.43666
1.51676
1.42535
0.6355
0.59255
0.630008
0.586907
1.24473
1.13871
1.2326
1.12608
0.518977
0.478726
0.513149
0.472743
1.09137
1.09133
1.07849
1.07846
0.460969
0.46095
0.454914
0.454894
1.1386
1.24456
1.12597
1.23244
0.47867
0.518889
0.472686
0.51306
1.43646
1.52747
1.42515
1.51653
0.592433
0.635368
0.586791
0.629879
1.54423
1.45388
1.5367
1.44601
0.643953
0.601278
0.640084
0.597271
1.26356
1.15852
1.25496
1.14946
0.528118
0.488176
0.523925
0.483834
1.11163
1.1116
1.10235
1.10231
0.470561
0.470542
0.46615
0.46613
1.15842
1.26339
1.14935
1.2548
0.48812
0.528029
0.483778
0.523836
1.45368
1.54401
1.44581
1.53647
0.601162
0.643821
0.597155
0.639954
1.55465
1.46494
1.55006
1.46004
0.649507
0.607086
0.647036
0.60449
1.27611
1.17198
1.27053
1.16597
0.534346
0.494705
0.531554
0.491767
1.12552
1.12548
1.1193
1.11926
0.47723
0.47721
0.474224
0.474204
1.17187
1.27594
1.16587
1.27037
0.494648
0.534257
0.491711
0.531465
1.46474
1.55443
1.45984
1.54984
0.606969
0.649374
0.604374
0.646906
1.5598
1.4707
1.55775
1.46835
0.652567
0.610381
0.651293
0.608989
1.28328
1.18
1.28029
1.17661
0.538079
0.498731
0.536486
0.496997
1.13394
1.1339
1.13035
1.13031
0.481394
0.481374
0.479592
0.479572
1.1799
1.28311
1.1765
1.28013
0.498675
0.53799
0.496941
0.536397
1.4705
1.55958
1.46815
1.55753
0.610263
0.652433
0.608872
0.651161
1.56035
1.47184
1.56054
1.47175
0.653438
0.611472
0.653234
0.61116
1.28578
1.18334
1.28505
1.18221
0.539648
0.500601
0.539104
0.499907
1.13766
1.13762
1.13634
1.1363
0.483401
0.483382
0.482639
0.482619
1.18323
1.28561
1.1821
1.28489
0.500544
0.539558
0.499851
0.539014
1.47164
1.56013
1.47155
1.56032
0.611353
0.653303
0.611043
0.653101
1.55673
1.46881
1.55906
1.47084
0.652449
0.610676
0.653187
0.611305
1.2842
1.18262
1.28547
1.18342
0.539361
0.500608
0.539689
0.500786
1.13734
1.1373
1.13794
1.1379
0.483543
0.483523
0.48366
0.48364
1.18251
1.28403
1.18331
1.2853
0.500551
0.53927
0.500729
0.539598
1.46857
1.55645
1.47064
1.55885
0.610554
0.65231
0.611185
0.653053
1.5491
1.46198
1.55321
1.46566
0.64961
0.608062
0.651176
0.609506
1.27897
1.1783
1.28195
1.18086
0.537362
0.498973
0.538537
0.499988
1.13345
1.13342
1.13581
1.13577
0.482077
0.482058
0.483016
0.482997
1.1782
1.27881
1.18075
1.28178
0.498916
0.537271
0.49993
0.538445
1.46188
1.54896
1.46547
1.55295
0.60794
0.649471
0.609382
0.651038
1.53929
1.45279
1.54446
1.45769
0.645589
0.604248
0.647728
0.606293
1.27094
1.17106
1.27528
1.17501
0.534053
0.49597
0.535851
0.497618
1.12659
1.12656
1.13036
1.13032
0.479221
0.479203
0.480796
0.480777
1.17097
1.27084
1.17491
1.27513
0.495919
0.53398
0.497563
0.535766
1.45273
1.53921
1.45758
1.54434
0.604174
0.645491
0.606182
0.647598
1.52663
1.44097
1.53303
1.44694
0.640337
0.599197
0.643054
0.601804
1.26041
1.16131
1.26592
1.16646
0.529582
0.491806
0.531934
0.494013
1.11721
1.11718
1.12219
1.12216
0.475199
0.475182
0.477337
0.477319
1.16123
1.26032
1.16638
1.26584
0.491758
0.529513
0.493964
0.531866
1.44085
1.52654
1.44698
1.5331
0.599123
0.640253
0.601747
0.642986
1.51206
1.42712
1.51963
1.43429
0.634117
0.593162
0.637329
0.596278
1.24775
1.14937
1.25432
1.15559
0.524112
0.486629
0.526954
0.489328
1.10562
1.1056
1.11167
1.11164
0.470159
0.470143
0.472791
0.472774
1.14931
1.24771
1.15552
1.25425
0.486586
0.524063
0.489283
0.526896
1.42723
1.5122
1.43423
1.51953
0.59317
0.634108
0.596244
0.637273
1.49546
1.41135
1.50393
1.4194
0.626968
0.586207
0.630622
0.589759
1.23314
1.13548
1.24066
1.14265
0.517731
0.480542
0.521017
0.483684
1.09207
1.09204
1.09907
1.09905
0.464211
0.464194
0.467284
0.467268
1.13541
1.23307
1.14258
1.2406
0.480496
0.517667
0.48364
0.520961
1.41141
1.49551
1.41943
1.50399
0.586151
0.626904
0.589734
0.630596
1.47711
1.39389
1.48642
1.40274
0.619009
0.578444
0.623055
0.582388
1.21679
1.11983
1.22516
1.12785
0.510525
0.473637
0.514214
0.477178
1.07676
1.07673
1.08462
1.08459
0.457446
0.457428
0.460917
0.4609
1.11974
1.2167
1.12778
1.22509
0.473589
0.51046
0.477132
0.514153
1.39395
1.47723
1.40286
1.48655
0.5784
0.618958
0.582354
0.623005
1.45716
1.37495
1.46721
1.3845
0.610288
0.569921
0.614715
0.574244
1.19884
1.10257
1.20799
1.11138
0.502574
0.465988
0.506627
0.469893
1.05984
1.0598
1.06848
1.06845
0.449936
0.449916
0.453772
0.453753
1.10246
1.19864
1.11128
1.20783
0.465929
0.502473
0.469839
0.506542
1.37457
1.45678
1.38435
1.46715
0.569747
0.610108
0.57413
0.614607
1.43574
1.35455
1.44654
1.36483
0.600831
0.56067
0.605616
0.565344
1.17941
1.08383
1.18928
1.09337
0.493933
0.45765
0.498324
0.461894
1.04143
1.04139
1.05081
1.05077
0.441738
0.441719
0.445912
0.445893
1.08372
1.17924
1.09326
1.18909
0.457593
0.493842
0.461835
0.498225
1.35428
1.43542
1.36449
1.44612
0.560551
0.600688
0.56519
0.605437
1.41272
1.33268
1.42432
1.34368
0.590712
0.550762
0.595825
0.555764
1.1586
1.06369
1.16916
1.07392
0.484645
0.448661
0.489357
0.453228
1.02161
1.02158
1.03169
1.03165
0.432888
0.432869
0.437385
0.437366
1.06358
1.15843
1.07382
1.16899
0.448606
0.484556
0.453172
0.489268
1.33247
1.41246
1.34342
1.42402
0.550637
0.590568
0.55564
0.595686
1.38819
1.30936
1.4006
1.32115
0.579891
0.540148
0.585372
0.54552
1.13637
1.04214
1.14765
1.05309
0.474702
0.439029
0.479747
0.443918
1.00041
1.00037
1.01118
1.01114
0.423398
0.423379
0.428215
0.428196
1.04205
1.13621
1.05299
1.14749
0.438975
0.474617
0.443864
0.47966
1.30918
1.38798
1.32095
1.40038
0.540037
0.579762
0.545405
0.585239
1.36194
1.28444
1.3752
1.29702
0.568315
0.528794
0.574173
0.534534
1.11265
1.01918
1.12468
1.03083
0.464085
0.428749
0.469467
0.433963
0.977803
0.977769
0.989274
0.98924
0.41327
0.413252
0.418406
0.418388
1.01909
1.1125
1.03074
1.12453
0.428697
0.464002
0.43391
0.469384
1.28427
1.36174
1.29684
1.375
0.528686
0.568192
0.534426
0.57405
1.33409
1.25804
1.34813
1.27134
0.556029
0.516745
0.562235
0.522827
1.0875
0.994822
1.10024
1.00717
0.452812
0.417831
0.458519
0.423362
0.95382
0.953787
0.965978
0.965945
0.402511
0.402493
0.407962
0.407944
0.994727
1.08736
1.00707
1.10009
0.417779
0.452732
0.42331
0.458438
1.25787
1.3339
1.27117
1.34794
0.516641
0.555909
0.522721
0.562115
1.3048
1.23026
1.31955
1.24424
0.543082
0.504041
0.549615
0.510448
1.06098
0.969096
1.0744
0.982124
0.440908
0.406287
0.44693
0.41213
0.928474
0.928442
0.941313
0.94128
0.391128
0.391111
0.396891
0.396874
0.969003
1.06084
0.98203
1.07425
0.406236
0.440829
0.412079
0.44685
1.23009
1.30461
1.24407
1.31936
0.503939
0.542965
0.510345
0.549498
1.27414
1.20114
1.28957
1.21579
0.529497
0.490695
0.536349
0.497424
1.0331
0.942003
1.0472
0.955717
0.428376
0.394116
0.434713
0.400274
0.901758
0.901726
0.915286
0.915253
0.379119
0.379102
0.385197
0.385179
0.941911
1.03297
0.955624
1.04706
0.394067
0.428299
0.400224
0.434634
1.20097
1.27395
1.21562
1.28939
0.490595
0.529383
0.497323
0.536234
1.24211
1.17067
1.25823
1.186
0.515274
0.476706
0.522446
0.483756
1.00384
0.913502
1.01864
0.927928
0.415206
0.381302
0.421864
0.387785
0.873622
0.873591
0.887868
0.887837
0.366462
0.366446
0.372867
0.37285
0.913412
1.00371
0.927837
1.0185
0.381253
0.41513
0.387736
0.421788
1.17051
1.24193
1.18584
1.25805
0.476609
0.515163
0.483657
0.522334
1.20868
1.13879
1.22551
1.15484
0.500392
0.46207
0.507899
0.469451
0.973114
0.883496
0.988659
0.898692
0.401366
0.367805
0.408366
0.374637
0.843965
0.843934
0.858989
0.858958
0.353118
0.353101
0.359874
0.359858
0.883407
0.97298
0.898602
0.988524
0.367757
0.401292
0.374589
0.408291
1.13863
1.20851
1.15468
1.22533
0.461975
0.500283
0.469355
0.507791
1.17372
1.10534
1.19134
1.12221
0.484779
0.446705
0.492664
0.454463
0.940744
0.851805
0.957137
0.867871
0.386784
0.353554
0.394166
0.360774
0.812604
0.812573
0.828509
0.828478
0.339014
0.338997
0.346161
0.346145
0.851718
0.940613
0.867783
0.957005
0.353507
0.386712
0.360727
0.394093
1.10518
1.17355
1.12205
1.19117
0.446613
0.484674
0.454369
0.492559
1.13692
1.07003
1.15551
1.08787
0.468304
0.4305
0.476643
0.438696
0.906436
0.818133
0.923847
0.835237
0.371344
0.338433
0.379174
0.346106
0.779247
0.779217
0.796195
0.796165
0.324036
0.324021
0.331638
0.331622
0.818048
0.906309
0.835151
0.923717
0.338387
0.371274
0.34606
0.379103
1.06988
1.13676
1.08772
1.15534
0.43041
0.468203
0.438605
0.476541
1.09772
1.0323
1.11761
1.05145
0.450713
0.413263
0.459653
0.422006
0.869664
0.781995
0.888394
0.800408
0.35485
0.322258
0.363239
0.330487
0.743441
0.743412
0.761682
0.761653
0.308014
0.307998
0.316164
0.316149
0.781913
0.869542
0.800325
0.888269
0.322215
0.354783
0.330443
0.363171
1.03215
1.09756
1.0513
1.11745
0.413177
0.450616
0.421919
0.459555
1.05491
0.990975
1.07681
1.01214
0.431527
0.394641
0.441345
0.404139
0.829397
0.742581
0.850056
0.762761
0.336939
0.304736
0.3461
0.313685
0.704535
0.704508
0.724418
0.72439
0.290705
0.290691
0.299532
0.299518
0.742504
0.829281
0.762681
0.849936
0.304694
0.336875
0.313642
0.346034
0.99084
1.05476
1.012
1.07666
0.394561
0.431436
0.404056
0.441252
1.00634
0.942791
1.03144
0.968076
0.409933
0.373708
0.421074
0.384565
0.783232
0.698605
0.807292
0.721253
0.316796
0.285414
0.327225
0.295327
0.661863
0.661838
0.683688
0.683662
0.271878
0.271864
0.281483
0.281469
0.698533
0.783125
0.721179
0.80718
0.285376
0.316737
0.295288
0.327164
0.942667
1.0062
0.967946
1.0313
0.373634
0.40985
0.384487
0.420987
0.950418
0.872578
0.979327
0.912768
0.383922
0.34467
0.397872
0.361137
0.725534
0.649108
0.756286
0.674479
0.292439
0.26399
0.305313
0.274936
0.615935
0.615912
0.639148
0.639124
0.251761
0.251749
0.261916
0.261904
0.649043
0.725438
0.674411
0.756184
0.263956
0.292387
0.2749
0.305258
0.872467
0.950291
0.91265
0.979195
0.344604
0.383846
0.361066
0.397793
0.59932
0.506952
0.322049
0.283023
0.497492
0.419967
0.236455
0.214317
0.288313
0.155221
0.113208
0.0301921
0.219173
0.0992746
0.0682822
0.0144125
0.0900808
0.0900729
0.0105254
0.0105246
0.0471106
0.0471065
0.00538177
0.00538157
0.155194
0.288265
0.0301852
0.113183
0.0992582
0.219141
0.0144099
0.0682695
0.506886
0.599243
0.282981
0.321999
0.419923
0.497439
0.214292
0.236426
0.9855
0.858881
0.811684
0.696089
0.845224
0.730877
0.690923
0.588535
0.609517
0.457207
0.455066
0.307757
0.494272
0.353102
0.362171
0.226149
0.386262
0.386239
0.238755
0.23874
0.288175
0.288158
0.161468
0.161458
0.457141
0.609414
0.30771
0.45499
0.353054
0.494194
0.226116
0.362117
0.858754
0.985358
0.695993
0.811575
0.73078
0.845115
0.588465
0.690843
1.2675
1.13369
1.13499
1.00336
1.09193
0.969377
0.976158
0.856272
0.88311
0.729633
0.751942
0.598269
0.728922
0.586116
0.616231
0.473548
0.657885
0.657851
0.52665
0.526621
0.520777
0.52075
0.408318
0.408296
0.729534
0.882959
0.598186
0.751814
0.586037
0.728801
0.473483
0.616131
1.13351
1.2673
1.00321
1.13482
0.969228
1.09177
0.856148
0.97602
1.49207
1.35799
1.38571
1.25134
1.28901
1.165
1.19552
1.07181
1.11309
0.962187
1.00327
0.850856
0.927635
0.786336
0.832549
0.690325
0.891126
0.891084
0.779338
0.7793
0.721321
0.721285
0.625074
0.625043
0.962066
1.11291
0.850745
1.0031
0.786234
0.927479
0.690234
0.832409
1.35777
1.49184
1.25114
1.38549
1.16482
1.2888
1.07164
1.19533
1.67323
1.54114
1.58738
1.45416
1.44916
1.32594
1.37312
1.24937
1.30362
1.15643
1.21295
1.06386
1.09349
0.95465
1.01442
0.874301
1.08672
1.08667
0.993424
0.993379
0.890438
0.890398
0.809648
0.80961
1.1563
1.30341
1.06373
1.21276
0.954533
1.09331
0.87419
1.01425
1.5409
1.67297
1.45393
1.58713
1.32573
1.44892
1.24917
1.3729
1.81907
1.68965
1.75
1.61923
1.57894
1.45731
1.51739
1.39492
1.45951
1.31628
1.38553
1.24035
1.23009
1.09399
1.16517
1.0277
1.24815
1.2481
1.17142
1.17137
1.03082
1.03077
0.963994
0.963952
1.31614
1.4593
1.24021
1.38532
1.09386
1.2299
1.02758
1.16498
1.6894
1.8188
1.61899
1.74974
1.45708
1.5787
1.3947
1.51714
1.93586
1.80917
1.88062
1.7526
1.68345
1.5636
1.63396
1.51323
1.58581
1.44636
1.52602
1.38473
1.34135
1.20796
1.28861
1.1539
1.37983
1.37978
1.31742
1.31737
1.14589
1.14585
1.09128
1.09124
1.44621
1.5856
1.38459
1.52581
1.20783
1.34116
1.15377
1.28842
1.80893
1.9356
1.75236
1.88036
1.56337
1.6832
1.513
1.63371
2.02863
1.90449
1.98483
1.85946
1.76687
1.64875
1.72744
1.60848
1.68713
1.55111
1.63928
1.50161
1.43102
1.30014
1.38862
1.25653
1.48609
1.48604
1.43586
1.43581
1.23915
1.23911
1.19502
1.19497
1.55097
1.68692
1.50147
1.63907
1.30001
1.43082
1.2564
1.38843
1.90426
2.02838
1.85922
1.98457
1.64852
1.76662
1.60825
1.72718
2.1015
1.97965
2.06718
1.94424
1.83267
1.71617
1.80165
1.68438
1.76751
1.63454
1.72966
1.59524
1.50243
1.37385
1.46878
1.33909
1.57089
1.57084
1.53093
1.53088
1.31386
1.31382
1.27862
1.27858
1.6344
1.76731
1.5951
1.72946
1.37372
1.50224
1.33896
1.46858
1.97942
2.10126
1.94401
2.06693
1.71594
1.83242
1.68415
1.8014
2.15777
2.03794
2.13139
2.0106
1.88373
1.76869
1.85977
1.74403
1.83034
1.70006
1.80089
1.66933
1.55848
1.43194
1.53218
1.40467
1.63763
1.63758
1.60631
1.60627
1.37287
1.37283
1.34516
1.34511
1.69993
1.83015
1.6692
1.8007
1.43182
1.55829
1.40454
1.53199
2.03773
2.15754
2.01038
2.13115
1.76847
1.88349
1.7438
1.85952
2.20017
2.08213
2.18042
2.06153
1.92242
1.80869
1.90437
1.79001
1.87846
1.75054
1.85605
1.727
1.60159
1.47688
1.58148
1.4559
1.68919
1.68915
1.66514
1.66509
1.41863
1.41859
1.39726
1.39722
1.75041
1.87828
1.72688
1.85586
1.47675
1.6014
1.45578
1.5813
2.08192
2.19995
2.06132
2.1802
1.80847
1.92218
1.78979
1.90413
2.23086
2.1144
2.21673
2.09951
1.95066
1.83811
1.93762
1.82451
1.91418
1.78834
1.89771
1.77088
1.63376
1.51069
1.6189
1.49504
1.72796
1.72791
1.71003
1.70999
1.45319
1.45314
1.43719
1.43714
1.78821
1.914
1.77075
1.89753
1.51056
1.63358
1.49492
1.61871
2.1142
2.23065
2.09931
2.21651
1.83789
1.95042
1.82429
1.93739
2.25167
2.13663
2.24226
2.12655
1.97006
1.8586
1.96125
1.84927
1.93943
1.81543
1.92797
1.8031
1.6567
1.53508
1.64626
1.52395
1.75591
1.75587
1.74316
1.74312
1.47826
1.47822
1.4668
1.46676
1.81531
1.93926
1.80298
1.9278
1.53496
1.65651
1.52383
1.64608
2.13644
2.25147
2.12635
2.24205
1.85839
1.96983
1.84905
1.96101
2.26404
2.15029
2.2587
2.14434
1.98191
1.87145
1.97674
1.8658
1.95579
1.83344
1.94861
1.82547
1.67176
1.55148
1.66511
1.54419
1.7747
1.77466
1.76636
1.76632
1.49528
1.49524
1.48769
1.48765
1.83333
1.95562
1.82536
1.94844
1.55136
1.67158
1.54407
1.66493
2.15011
2.26385
2.14415
2.2585
1.87124
1.98169
1.86559
1.97652
2.26918
2.15663
2.26731
2.15419
1.98728
1.87776
1.98522
1.87525
1.96455
1.8437
1.96102
1.83946
1.68009
1.56103
1.67667
1.55704
1.78567
1.78563
1.78108
1.78104
1.50541
1.50537
1.50113
1.50109
1.84359
1.96439
1.83934
1.96085
1.56092
1.67991
1.55692
1.67649
2.15646
2.26899
2.15401
2.26712
1.87755
1.98705
1.87504
1.985
2.26807
2.15663
2.26922
2.15725
1.987
1.87838
1.98768
1.87863
1.96676
1.84729
1.96639
1.84626
1.68259
1.5647
1.68199
1.56354
1.78991
1.78987
1.78856
1.78852
1.50961
1.50957
1.50819
1.50815
1.84718
1.9666
1.84615
1.96623
1.56458
1.68242
1.56342
1.68182
2.15646
2.26788
2.15708
2.26903
1.87818
1.98678
1.87843
1.98745
2.26126
2.15091
2.26526
2.1544
1.98157
1.87389
1.98485
1.87671
1.96322
1.84511
1.96567
1.84687
1.68
1.56327
1.6819
1.56456
1.78839
1.78835
1.78981
1.78977
1.50874
1.5087
1.50974
1.5097
1.845
1.96306
1.84676
1.96551
1.56315
1.67982
1.56444
1.68172
2.15073
2.26106
2.15422
2.26507
1.87363
1.98131
1.8765
1.98465
2.24893
2.13988
2.25555
2.14582
1.97141
1.86478
1.97688
1.86973
1.95455
1.83783
1.95943
1.84204
1.67285
1.55733
1.6769
1.5608
1.78176
1.78172
1.78565
1.78561
1.50336
1.50332
1.50655
1.50651
1.83772
1.95439
1.84193
1.95926
1.55721
1.67267
1.56068
1.67671
2.1397
2.24874
2.14563
2.25534
1.86451
1.97111
1.86941
1.97653
2.23308
2.12525
2.24128
2.13289
1.9578
1.85221
1.9649
1.8588
1.9418
1.82634
1.94862
1.83256
1.6621
1.54768
1.66787
1.55292
1.77087
1.77084
1.7768
1.77676
1.49424
1.4942
1.49922
1.49918
1.82624
1.94168
1.83246
1.94848
1.54759
1.662
1.55281
1.66772
2.12514
2.23297
2.13274
2.24111
1.85211
1.95769
1.8586
1.96469
2.21389
2.10721
2.22378
2.11651
1.94134
1.8368
1.94978
1.84472
1.92561
1.81129
1.93408
1.81922
1.64835
1.53491
1.65555
1.54165
1.75638
1.75634
1.76404
1.764
1.48195
1.48192
1.48846
1.48842
1.8112
1.92549
1.81913
1.93396
1.53482
1.64823
1.54157
1.65546
2.10709
2.21378
2.11641
2.22369
1.83684
1.94139
1.84474
1.94977
2.19194
2.08643
2.20311
2.09706
1.92251
1.81899
1.9321
1.82811
1.90641
1.79314
1.91635
1.80257
1.63191
1.51941
1.64042
1.52748
1.73875
1.73872
1.74793
1.74789
1.4669
1.46687
1.47475
1.47471
1.79305
1.90628
1.80248
1.91622
1.51932
1.63178
1.52739
1.6403
2.0863
2.19181
2.09693
2.20298
1.81885
1.92239
1.82807
1.93212
2.16713
2.06282
2.17978
2.07485
1.90096
1.79855
1.91194
1.80894
1.88447
1.77223
1.89574
1.78301
1.61303
1.50146
1.62273
1.51072
1.71835
1.71831
1.72887
1.72884
1.4494
1.44937
1.45844
1.4584
1.77214
1.88434
1.78292
1.89561
1.50137
1.61291
1.51063
1.62261
2.06268
2.16699
2.07472
2.17965
1.79847
1.90088
1.80882
1.9118
2.13991
2.03689
2.15366
2.05003
1.87728
1.77605
1.88928
1.78747
1.86005
1.74883
1.87253
1.76082
1.59195
1.4813
1.60273
1.49164
1.69544
1.6954
1.70719
1.70715
1.42968
1.42965
1.4398
1.43977
1.74874
1.85993
1.76073
1.87241
1.48121
1.59183
1.49155
1.60262
2.03678
2.1398
2.04992
2.15355
1.77601
1.8773
1.78743
1.88927
2.11029
2.0086
2.12531
2.02293
1.85156
1.75155
1.86457
1.76395
1.83338
1.72315
1.84697
1.73626
1.56888
1.45914
1.58063
1.47045
1.67024
1.67021
1.68311
1.68308
1.40796
1.40792
1.41906
1.41902
1.72305
1.83323
1.73616
1.84683
1.45902
1.56871
1.47035
1.58048
2.00844
2.11013
2.02278
2.12517
1.75136
1.8513
1.76376
1.86439
2.07864
1.97839
2.09457
1.99363
1.82404
1.72534
1.83788
1.73855
1.80463
1.69537
1.81923
1.70951
1.54398
1.43512
1.55663
1.44735
1.64293
1.6429
1.65684
1.65681
1.38437
1.38433
1.39638
1.39634
1.69527
1.80449
1.70941
1.81909
1.43501
1.54382
1.44723
1.55647
1.97825
2.07849
1.99348
2.09442
1.72512
1.82384
1.73841
1.83773
2.04503
1.94627
2.06195
1.96243
1.79464
1.69736
1.80943
1.71141
1.77394
1.6656
1.7895
1.68072
1.51738
1.40935
1.53087
1.42244
1.61361
1.61358
1.62852
1.62848
1.35901
1.35897
1.3719
1.37186
1.6655
1.7738
1.68062
1.78936
1.40924
1.51722
1.42234
1.53071
1.94612
2.04489
1.96229
2.06179
1.69722
1.79446
1.7112
1.80916
2.00963
1.91235
2.02746
1.92946
1.76371
1.66786
1.7793
1.68276
1.74131
1.63384
1.75786
1.64997
1.48905
1.38184
1.50342
1.39581
1.5823
1.58227
1.59821
1.59817
1.33191
1.33187
1.34568
1.34564
1.63375
1.74117
1.64987
1.75772
1.38174
1.4889
1.39571
1.50327
1.91221
2.00948
1.92932
2.02732
1.66769
1.76353
1.6826
1.77915
1.97182
1.87613
1.99092
1.89442
1.73055
1.63624
1.74731
1.65221
1.70656
1.60005
1.72418
1.6172
1.45885
1.35254
1.47417
1.36741
1.54898
1.54895
1.56589
1.56586
1.30305
1.30301
1.3177
1.31766
1.59996
1.70643
1.6171
1.72405
1.35243
1.4587
1.3673
1.47401
1.876
1.97168
1.89429
1.99078
1.63607
1.73036
1.65204
1.74712
1.93176
1.83782
1.95194
1.85713
1.69535
1.60274
1.71308
1.61962
1.66977
1.56425
1.6884
1.58239
1.42683
1.32147
1.44304
1.33722
1.51366
1.51363
1.53157
1.53154
1.27244
1.2724
1.28796
1.28792
1.56415
1.66964
1.5823
1.68827
1.32136
1.42668
1.33711
1.44289
1.83769
1.93163
1.857
1.9518
1.60258
1.69517
1.61945
1.7129
1.88972
1.79756
1.91088
1.81784
1.65837
1.56752
1.67698
1.58525
1.631
1.52645
1.65062
1.54559
1.39308
1.28866
1.41015
1.30527
1.47635
1.47632
1.49525
1.49522
1.24009
1.24005
1.25648
1.25644
1.52636
1.63087
1.5455
1.65049
1.28855
1.39293
1.30517
1.41001
1.79743
1.88958
1.8177
1.91074
1.56736
1.6582
1.58509
1.6768
1.84577
1.75541
1.86788
1.77663
1.6197
1.53063
1.63915
1.5492
1.59027
1.48664
1.61087
1.5068
1.35761
1.2541
1.37555
1.27159
1.43701
1.43698
1.45693
1.4569
1.20599
1.20595
1.22326
1.22322
1.48655
1.59014
1.50671
1.61074
1.254
1.35746
1.27149
1.3754
1.75528
1.84564
1.7765
1.86774
1.53047
1.61952
1.54904
1.63898
1.79992
1.71133
1.82299
1.73352
1.57933
1.49206
1.59963
1.51147
1.5475
1.44474
1.56913
1.46596
1.32037
1.21773
1.3392
1.23615
1.39554
1.39551
1.41655
1.41652
1.17005
1.17001
1.18825
1.18821
1.44465
1.54737
1.46587
1.569
1.21763
1.32023
1.23605
1.33906
1.7112
1.79979
1.73339
1.82285
1.4919
1.57916
1.51131
1.59946
1.75207
1.66521
1.77616
1.68845
1.53722
1.45169
1.55841
1.47202
1.50253
1.40056
1.52529
1.42295
1.28124
1.17941
1.30104
1.19882
1.35176
1.35173
1.37396
1.37392
1.13213
1.13209
1.15135
1.15131
1.40047
1.50241
1.42286
1.52516
1.17931
1.2811
1.19873
1.3009
1.66509
1.75194
1.68832
1.77603
1.45154
1.53706
1.47187
1.55824
1.70201
1.61679
1.72724
1.64123
1.49319
1.40934
1.51538
1.4307
1.45508
1.35379
1.47913
1.37752
1.23997
1.13887
1.26088
1.15943
1.30534
1.30531
1.3289
1.32887
1.09196
1.09193
1.11234
1.11231
1.3537
1.45496
1.37743
1.47901
1.13877
1.23983
1.15933
1.26074
1.61666
1.70188
1.6411
1.72711
1.40918
1.49303
1.43055
1.51521
1.64929
1.5656
1.67593
1.59149
1.44686
1.36459
1.47026
1.38722
1.40465
1.30393
1.43027
1.32928
1.19615
1.0957
1.2184
1.11764
1.2558
1.25577
1.281
1.28097
1.04914
1.0491
1.07091
1.07088
1.30385
1.40453
1.3292
1.43015
1.09561
1.19601
1.11755
1.21826
1.56547
1.64917
1.59137
1.6758
1.36444
1.4467
1.38707
1.4701
1.5931
1.51078
1.62161
1.53863
1.39747
1.31671
1.42253
1.34103
1.3504
1.25021
1.37806
1.27761
1.14904
1.04923
1.17306
1.07293
1.2024
1.20237
1.22963
1.2296
1.00303
1.003
1.02654
1.02651
1.25012
1.35028
1.27753
1.37794
1.04914
1.14891
1.07283
1.17292
1.51067
1.59298
1.53851
1.62149
1.31657
1.39732
1.34088
1.42237
1.53182
1.45066
1.56314
1.48146
1.34356
1.26412
1.37114
1.29108
1.2908
1.19142
1.32139
1.22153
1.09727
0.998378
1.12385
1.02443
1.14418
1.14415
1.17395
1.17392
0.952783
0.952753
0.97848
0.978448
1.19134
1.29069
1.22145
1.32128
0.998293
1.09714
1.02434
1.12373
1.45055
1.53171
1.48135
1.56303
1.26399
1.34341
1.29094
1.37099
1.46279
1.38101
1.49836
1.41742
1.28228
1.20269
1.31397
1.23492
1.22277
1.12597
1.25811
1.15962
1.03784
0.941601
1.06879
0.970828
1.08036
1.08033
1.11297
1.11294
0.897615
0.897586
0.925825
0.925796
1.1259
1.22267
1.15954
1.25801
0.941522
1.03772
0.970745
1.06867
1.38091
1.46269
1.41731
1.49826
1.20256
1.28215
1.23479
1.31383
1.38463
1.28507
1.42479
1.3388
1.2109
1.11523
1.24796
1.16474
1.1406
1.05344
1.18383
1.09042
0.964758
0.878183
1.00343
0.910587
1.01215
1.01213
1.04655
1.04652
0.838444
0.838419
0.868308
0.868281
1.05337
1.14051
1.09035
1.18374
0.878112
0.964657
0.910512
1.00332
1.28499
1.38456
1.33871
1.4247
1.11512
1.21079
1.16463
1.24784
0.743861
0.636546
0.447191
0.390354
0.678594
0.577244
0.390446
0.340769
0.400836
0.255699
0.191669
0.0780667
0.348223
0.207823
0.15419
0.0508741
0.186595
0.186578
0.0338142
0.0338086
0.138987
0.138974
0.0199471
0.0199443
0.255645
0.400748
0.0780382
0.191612
0.207783
0.348155
0.0508563
0.15415
0.636432
0.74373
0.390271
0.447092
0.577154
0.67849
0.340707
0.390373
1.1801
1.0436
0.980508
0.852946
1.09275
0.959856
0.90451
0.781551
0.786341
0.626362
0.600448
0.444132
0.70501
0.547507
0.533146
0.380002
0.550881
0.550847
0.37056
0.370533
0.473549
0.47352
0.307925
0.307904
0.626263
0.786189
0.444054
0.600326
0.547424
0.704882
0.379939
0.533048
1.04342
1.1799
0.852797
0.98034
0.9597
1.09258
0.781429
0.904373
1.50975
1.36883
1.35451
1.2145
1.4014
1.26271
1.25619
1.11904
1.11539
0.956254
0.957882
0.797526
1.00928
0.851552
0.863549
0.70513
0.880382
0.880336
0.721469
0.721429
0.776897
0.776857
0.630481
0.630446
0.956122
1.11519
0.797408
0.957704
0.851436
1.00911
0.705029
0.863395
1.3686
1.5095
1.21429
1.35428
1.2625
1.40117
1.11885
1.25599
1.77208
1.63319
1.64807
1.50776
1.64699
1.50923
1.53081
1.39217
1.38962
1.23527
1.25901
1.10204
1.26375
1.10972
1.14242
0.986308
1.16103
1.16097
1.02684
1.02679
1.03621
1.03617
0.912092
0.912047
1.23512
1.38939
1.1019
1.2588
1.10959
1.26354
0.98618
1.14222
1.63293
1.7718
1.50752
1.6478
1.50899
1.64673
1.39194
1.53057
1.98203
1.84714
1.88275
1.74578
1.84412
1.70945
1.75083
1.6145
1.61452
1.46605
1.50777
1.35634
1.47332
1.32418
1.37374
1.22212
1.39418
1.39412
1.28324
1.28318
1.25255
1.2525
1.1495
1.14945
1.46589
1.61429
1.35618
1.50754
1.32403
1.4731
1.22197
1.37352
1.84688
1.98175
1.74552
1.88247
1.7092
1.84385
1.61425
1.75056
2.1497
2.01919
2.07045
1.93778
2.00205
1.871
1.92734
1.79449
1.79689
1.65427
1.71053
1.56505
1.64391
1.49977
1.56306
1.41646
1.58492
1.58487
1.49445
1.49439
1.43024
1.43018
1.34588
1.34583
1.65412
1.79667
1.5649
1.7103
1.49962
1.64369
1.41631
1.56284
2.01894
2.14943
1.93752
2.07017
1.87075
2.00178
1.79424
1.92708
2.28306
2.15669
2.22009
2.09173
2.128
2.00047
2.06849
1.93926
1.94354
1.80627
1.87424
1.73439
1.78153
1.64204
1.71645
1.57471
1.73932
1.73926
1.66627
1.66622
1.57455
1.5745
1.50622
1.50617
1.80612
1.94333
1.73424
1.87402
1.6419
1.78132
1.57456
1.71623
2.15646
2.28281
2.09149
2.21984
2.00024
2.12775
1.93901
2.06823
2.38836
2.26568
2.33872
2.21428
2.22771
2.10338
2.18067
2.05481
2.06043
1.92789
2.00531
1.87051
1.89153
1.75621
1.83963
1.70231
1.8631
1.86305
1.80468
1.80463
1.69058
1.69053
1.63578
1.63573
1.92775
2.06024
1.87037
2.00511
1.75607
1.89132
1.70217
1.83942
2.26547
2.38814
2.21406
2.33849
2.10315
2.22747
2.05458
2.18043
2.47061
2.35114
2.43194
2.31095
2.30576
2.18425
2.26903
2.14618
2.15263
2.02419
2.10929
1.9789
1.97851
1.84683
1.93759
1.80418
1.9613
1.96126
1.9151
1.91505
1.78288
1.78283
1.73942
1.73938
2.02406
2.15245
1.97877
2.10911
1.8467
1.97831
1.80404
1.9374
2.35095
2.47041
2.31075
2.43173
2.18404
2.30554
2.14596
2.2688
2.53374
2.41705
2.5042
2.38619
2.36582
2.24677
2.33769
2.21747
2.2243
2.0994
2.19077
2.06418
2.04628
1.91779
2.01455
1.88454
2.03817
2.03813
2.00216
2.00212
1.8553
1.85526
1.82135
1.8213
2.09928
2.22414
2.06406
2.1906
1.91766
2.0461
1.88441
2.01436
2.41688
2.53356
2.38601
2.50401
2.24657
2.36561
2.21727
2.33748
2.58095
2.46667
2.55902
2.4436
2.41087
2.29397
2.38992
2.272
2.27884
2.15699
2.25349
2.13019
2.098
1.97226
2.07394
1.94689
2.09721
2.09717
2.06972
2.06968
1.91107
1.91103
1.88508
1.88503