/*--------------------------------*- C++ -*----------------------------------*\
  =========                 |
  \\      /  F ield         | OpenFOAM: The Open Source CFD Toolbox
   \\    /   O peration     | Website:  https://openfoam.org
    \\  /    A nd           | Version:  9
     \\/     M anipulation  |
\*---------------------------------------------------------------------------*/
FoamFile
{
    format      ascii;
    class       volScalarField;
    location    "2.4";
    object      nut;
}
// * * * * * * * * * * * * * * * * * * * * * * * * * * * * * * * * * * * * * //

dimensions      [0 2 -1 0 0 0 0];

internalField   nonuniform List<scalar> 
36360
(
0.00529553
0.00475773
0.00226076
0.00224959
0.000752287
0.000790304
0.000297978
0.000381502
0.00305345
0.00152678
0.000753703
0.000260937
0.000459463
0.000241973
0.000204094
0.000173679
0.000798964
0.000798962
0.000188781
0.000188782
0.000178929
0.000178929
0.000171447
0.000171447
0.00152666
0.00305318
0.000260931
0.00075363
0.000241963
0.000459435
0.000173679
0.00020409
0.00475731
0.00529498
0.0022494
0.00226055
0.000790265
0.000752256
0.000381483
0.000297971
0.00888728
0.00826942
0.00733882
0.00668189
0.001362
0.00125513
0.00114141
0.00106639
0.00679388
0.00597064
0.00502947
0.00385704
0.000986133
0.000761032
0.000763766
0.000476866
0.0057922
0.00579209
0.00325052
0.00325045
0.000622445
0.000622427
0.000331195
0.000331185
0.00597016
0.00679305
0.00385671
0.0050289
0.000760978
0.000986057
0.000476831
0.000763712
0.00826833
0.00888602
0.00668113
0.00733795
0.00125504
0.00136191
0.00106632
0.00114135
0.0113772
0.0109164
0.0102024
0.00966286
0.00163195
0.00151851
0.00151327
0.0013994
0.00974815
0.00922709
0.00835842
0.00772924
0.00129217
0.00113658
0.00115487
0.000974181
0.0091327
0.00913242
0.00761889
0.00761868
0.0010605
0.00106047
0.000880035
0.00088001
0.00922622
0.00974672
0.00772854
0.00835725
0.0011365
0.00129205
0.000974112
0.00115477
0.0109145
0.0113752
0.00966139
0.0102008
0.00151838
0.00163181
0.00139928
0.00151316
0.0133861
0.013057
0.0124299
0.0120441
0.00181669
0.00170895
0.00173107
0.0016203
0.0120745
0.0116642
0.0109802
0.0105259
0.00150725
0.00137822
0.00140781
0.00126796
0.0115708
0.0115704
0.0104337
0.0104333
0.0013176
0.00131756
0.0012014
0.00120136
0.011663
0.0120726
0.0105249
0.0109785
0.00137812
0.0015071
0.00126787
0.00140767
0.0130546
0.0133833
0.0120419
0.0124276
0.00170878
0.0018165
0.00162014
0.0017309
0.0150164
0.0147763
0.0142453
0.0139638
0.00195679
0.0018549
0.00189127
0.00178653
0.01391
0.0135523
0.0130456
0.0126657
0.0016691
0.00155426
0.00159356
0.00147253
0.0134557
0.0134553
0.0125704
0.0125699
0.00150095
0.00150091
0.00141607
0.00141604
0.0135509
0.0139076
0.0126643
0.0130435
0.00155415
0.00166893
0.00147242
0.0015934
0.0147734
0.0150131
0.0139611
0.0142423
0.0018547
0.00195658
0.00178634
0.00189107
0.0163216
0.0161493
0.0157053
0.0155011
0.00206511
0.0019683
0.00201431
0.00191506
0.0153615
0.0150343
0.0146776
0.0143368
0.00179371
0.00168799
0.00173534
0.0016255
0.0149372
0.0149366
0.0142396
0.0142391
0.00163922
0.00163918
0.00157469
0.00157465
0.0150327
0.0153589
0.0143353
0.0146751
0.00168787
0.00179353
0.00162538
0.00173516
0.0161459
0.0163179
0.015498
0.0157018
0.00196809
0.00206488
0.00191485
0.00201409
0.0173609
0.0172415
0.0168706
0.0167261
0.00214941
0.00205684
0.00210983
0.00201523
0.0165105
0.0162039
0.0159689
0.0156528
0.00189055
0.00179127
0.00184512
0.00174288
0.0161076
0.016107
0.0155559
0.0155554
0.00174566
0.00174562
0.00169582
0.00169578
0.0162021
0.0165077
0.0156511
0.0159662
0.00179114
0.00189037
0.00174275
0.00184493
0.0172379
0.0173568
0.0167227
0.0168668
0.00205661
0.00214917
0.00201501
0.0021096
0.0181862
0.018111
0.0177967
0.0177003
0.00221513
0.00212604
0.00218426
0.0020935
0.0174205
0.0171281
0.0169914
0.0166924
0.00196606
0.00187153
0.00193061
0.00183388
0.0170331
0.0170325
0.0165967
0.0165961
0.00182824
0.0018282
0.00178952
0.00178948
0.0171263
0.0174176
0.0166906
0.0169885
0.0018714
0.00196587
0.00183376
0.00193042
0.0181072
0.0181819
0.0176966
0.0177927
0.00212581
0.00221489
0.00209327
0.00218402
0.0188387
0.018799
0.0185313
0.0184748
0.00226623
0.00217994
0.00224225
0.00215463
0.018139
0.0178571
0.0178006
0.0175137
0.00202485
0.00193394
0.00199727
0.00190468
0.0177635
0.0177628
0.0174193
0.0174186
0.00189241
0.00189237
0.00186233
0.00186229
0.0178552
0.018136
0.0175118
0.0177976
0.00193381
0.00202466
0.00190455
0.00199709
0.0187951
0.0188343
0.018471
0.0185271
0.00217972
0.00226598
0.0021544
0.00224201
0.0193502
0.0193385
0.0191097
0.0190847
0.0023056
0.00222155
0.00228717
0.00220206
0.0187025
0.0184289
0.0184375
0.0181599
0.0020703
0.00198221
0.00204903
0.00195963
0.0183367
0.0183361
0.0180669
0.0180663
0.00194205
0.00194201
0.00191883
0.00191878
0.018427
0.0186994
0.018158
0.0184345
0.00198209
0.00207012
0.0019595
0.00204885
0.0193345
0.0193456
0.0190808
0.0191054
0.00222133
0.00230535
0.00220184
0.00228693
0.0197462
0.0197566
0.0195606
0.0195605
0.00233548
0.0022532
0.00232155
0.00223843
0.0191397
0.0188728
0.0189346
0.0186645
0.00210501
0.00201914
0.00208883
0.00200193
0.0187821
0.0187814
0.018573
0.0185723
0.00198006
0.00198002
0.00196234
0.0019623
0.0188709
0.0191367
0.0186626
0.0189316
0.00201902
0.00210483
0.0020018
0.00208865
0.0197526
0.0197416
0.0195566
0.0195562
0.00225297
0.00233523
0.00223821
0.00232131
0.020047
0.0200743
0.0199068
0.0199261
0.00235756
0.00227667
0.00234735
0.0022658
0.019473
0.0192118
0.0193175
0.0190534
0.00213094
0.00204684
0.00211894
0.00203401
0.0191224
0.0191218
0.0189633
0.0189627
0.00200862
0.00200858
0.00199539
0.00199534
0.0192099
0.01947
0.0190515
0.0193144
0.00204672
0.00213076
0.00203389
0.00211876
0.0200703
0.0200423
0.0199221
0.0199023
0.00227644
0.00235732
0.00226558
0.00234711
0.0202686
0.0203091
0.0201662
0.0202003
0.0023732
0.00229339
0.00236605
0.00228573
0.0197203
0.019464
0.0196057
0.019347
0.00214963
0.00206695
0.00214108
0.00205773
0.0193758
0.0193752
0.0192582
0.0192575
0.00202941
0.00202937
0.00201987
0.00201983
0.019462
0.0197172
0.019345
0.0196026
0.00206683
0.00214945
0.00205761
0.00214089
0.020305
0.0202638
0.0201963
0.0201616
0.00229317
0.00237296
0.0022855
0.00236581
0.0204234
0.0204742
0.0203531
0.0203989
0.00238343
0.00230446
0.00237889
0.00229951
0.0198954
0.0196433
0.0198154
0.0195612
0.00216229
0.00208074
0.00215662
0.00207454
0.0195564
0.0195557
0.0194736
0.0194729
0.00204375
0.00204371
0.0020373
0.00203726
0.0196414
0.0198923
0.0195592
0.0198122
0.00208062
0.00216211
0.00207442
0.00215644
0.0204701
0.0204186
0.0203948
0.0203484
0.00230423
0.00238319
0.00229929
0.00237865
0.0205216
0.0205805
0.0204782
0.0205332
0.00238907
0.00231072
0.00238672
0.00230807
0.0200098
0.0197613
0.0199588
0.0197085
0.00216985
0.00208921
0.00216662
0.00208556
0.0196755
0.0196748
0.0196221
0.0196214
0.00205267
0.00205263
0.00204881
0.00204877
0.0197593
0.0200067
0.0197065
0.0199557
0.00208909
0.00216967
0.00208544
0.00216644
0.0205763
0.0205166
0.0205291
0.0204735
0.0023105
0.00238882
0.00230785
0.00238648
0.0205705
0.0206356
0.0205508
0.0206133
0.00239069
0.00231281
0.0023903
0.00231221
0.0200721
0.019827
0.0200462
0.0197993
0.00217304
0.00209315
0.00217193
0.00209168
0.0197423
0.0197416
0.019714
0.0197133
0.00205697
0.00205693
0.00205534
0.00205529
0.019825
0.0200689
0.0197973
0.0200431
0.00209303
0.00217285
0.00209156
0.00217174
0.0206314
0.0205655
0.0206091
0.020546
0.00231259
0.00239044
0.00231199
0.00239006
0.0205793
0.0206491
0.0205799
0.0206475
0.0023889
0.00231134
0.00239024
0.00231251
0.0200906
0.0198479
0.0200853
0.019841
0.00217249
0.00209319
0.00217313
0.00209355
0.019764
0.0197633
0.019757
0.0197563
0.0020573
0.00205726
0.00205754
0.0020575
0.0198459
0.0200874
0.019839
0.0200821
0.00209307
0.0021723
0.00209343
0.00217295
0.0206446
0.0205739
0.0206433
0.0205752
0.0023111
0.00238865
0.00231228
0.00238999
0.0205498
0.0206232
0.0205682
0.0206395
0.00238373
0.00230642
0.00238659
0.00230914
0.0200692
0.0198292
0.0200835
0.0198422
0.00216849
0.00208981
0.00217084
0.00209191
0.0197467
0.019746
0.0197592
0.0197585
0.00205422
0.00205418
0.0020562
0.00205616
0.0198272
0.020066
0.0198402
0.0200802
0.00208969
0.00216831
0.00209179
0.00217066
0.0206196
0.0205453
0.0206354
0.0205631
0.00230619
0.00238348
0.00230891
0.00238633
0.020489
0.0205653
0.0205224
0.0205974
0.00237638
0.0022992
0.00238029
0.00230308
0.0200143
0.0197765
0.0200449
0.0198059
0.00216184
0.00208354
0.00216546
0.00208698
0.019695
0.0196943
0.0197239
0.0197232
0.00204816
0.00204812
0.0020515
0.00205146
0.0197745
0.0200113
0.019804
0.0200418
0.00208344
0.00216169
0.00208687
0.00216529
0.0205616
0.0204845
0.0205938
0.0205184
0.00229907
0.0023762
0.00230287
0.00238006
0.0204008
0.0204794
0.0204469
0.0205242
0.00236671
0.0022896
0.00237171
0.00229455
0.0199301
0.0196939
0.0199748
0.0197378
0.0021528
0.00207481
0.00215756
0.00207944
0.0196133
0.0196126
0.0196567
0.019656
0.00203958
0.00203954
0.00204415
0.00204411
0.0196918
0.0199268
0.0197358
0.0199717
0.00207471
0.00215266
0.00207934
0.00215742
0.0204747
0.0203956
0.0205207
0.020443
0.00228946
0.00236655
0.00229445
0.00237159
0.0202881
0.0203679
0.0203473
0.0204262
0.00235522
0.00227807
0.00236117
0.00228404
0.0198197
0.0195845
0.0198772
0.0196415
0.00214168
0.00206389
0.00214747
0.00206959
0.0195047
0.019504
0.0195612
0.0195605
0.00202877
0.00202873
0.00203442
0.00203439
0.0195823
0.019816
0.0196393
0.0198737
0.0020638
0.00214158
0.0020695
0.00214735
0.020363
0.020282
0.020421
0.0203412
0.00227808
0.00235519
0.00228396
0.00236105
0.0201521
0.0202328
0.0202223
0.0203025
0.00234192
0.00226469
0.00234873
0.00227154
0.0196847
0.0194507
0.0197544
0.0195196
0.00212863
0.00205097
0.00213536
0.00205765
0.0193717
0.019371
0.0194402
0.0194394
0.00201592
0.00201589
0.00202257
0.00202253
0.0194485
0.0196812
0.0195174
0.0197508
0.00205087
0.0021285
0.00205756
0.00213525
0.0202288
0.020147
0.0202975
0.0202165
0.0022646
0.00234181
0.00227149
0.00234868
0.0199941
0.0200755
0.0200752
0.020156
0.00232702
0.00224966
0.00233461
0.00225731
0.0195267
0.0192943
0.0196077
0.0193743
0.00211379
0.00203621
0.0021214
0.00204379
0.0192162
0.0192155
0.0192957
0.019295
0.0020012
0.00200117
0.00200877
0.00200873
0.0192921
0.0195233
0.0193721
0.0196043
0.0020361
0.00211365
0.00204369
0.00212127
0.0200717
0.0199894
0.0201523
0.0200706
0.00224958
0.00232693
0.00225726
0.00233453
0.0198167
0.0198991
0.0199068
0.0199887
0.00231058
0.00223304
0.00231894
0.00224148
0.0193479
0.0191169
0.019439
0.0192072
0.00209728
0.00201972
0.00210571
0.00202815
0.0190397
0.019039
0.0191296
0.0191289
0.00198473
0.00198469
0.00199316
0.00199312
0.0191149
0.0193448
0.0192052
0.0194357
0.00201959
0.00209707
0.00202804
0.00210554
0.0198947
0.0198119
0.0199846
0.0199027
0.0022327
0.00231024
0.00224127
0.00231874
0.0196215
0.019704
0.0197208
0.0198031
0.00229263
0.00221486
0.00230173
0.00222407
0.0191498
0.0189194
0.0192505
0.0190197
0.00207919
0.00200159
0.0020884
0.00201084
0.0188429
0.0188423
0.0189428
0.0189422
0.00196659
0.00196655
0.00197585
0.00197581
0.0189175
0.0191467
0.0190178
0.0192475
0.00200146
0.002079
0.00201071
0.00208819
0.0196996
0.0196161
0.0197988
0.0197159
0.00221462
0.00229235
0.00222376
0.00230139
0.0194069
0.0194898
0.0195158
0.0195983
0.00227324
0.00219521
0.00228306
0.00220515
0.0189324
0.0187024
0.0190426
0.0188125
0.00205956
0.00198185
0.00206954
0.0019919
0.0186264
0.0186258
0.0187361
0.0187355
0.00194681
0.00194676
0.00195689
0.00195684
0.0187005
0.0189294
0.0188106
0.0190396
0.00198173
0.00205937
0.00199178
0.00206935
0.0194859
0.0194021
0.019594
0.0195107
0.00219496
0.00227296
0.00220491
0.00228279
0.0191749
0.019258
0.0192925
0.0193754
0.00225233
0.00217396
0.00226294
0.00218474
0.0186962
0.018466
0.018816
0.0185858
0.00203833
0.00196047
0.00204913
0.00197135
0.0183903
0.0183896
0.0185099
0.0185092
0.00192536
0.00192532
0.00193628
0.00193624
0.018464
0.0186932
0.0185839
0.018813
0.00196035
0.00203815
0.00197123
0.00204894
0.0192539
0.01917
0.0193715
0.019288
0.00217374
0.00225208
0.00218451
0.00226269
0.0189238
0.0190068
0.0190512
0.019134
0.00222973
0.00215099
0.00224119
0.00216263
0.0184404
0.0182097
0.0185701
0.0183395
0.00201541
0.00193739
0.00202706
0.00194913
0.0181344
0.0181337
0.0182639
0.0182632
0.00190221
0.00190216
0.00191399
0.00191394
0.0182078
0.0184373
0.0183375
0.018567
0.00193727
0.00201523
0.00194901
0.00202688
0.0190027
0.0189189
0.0191299
0.0190465
0.00215077
0.00222949
0.00216241
0.00224095
0.0186535
0.0187363
0.0187904
0.0188731
0.00220549
0.00212634
0.00221777
0.00213882
0.0181648
0.0179335
0.0183044
0.0180733
0.00199079
0.00191257
0.00200329
0.00192518
0.0178584
0.0178578
0.017998
0.0179973
0.00187729
0.00187725
0.00188996
0.00188991
0.0179315
0.0181617
0.0180713
0.0183012
0.00191245
0.00199061
0.00192507
0.00200311
0.0187321
0.0186485
0.018869
0.0187857
0.00212612
0.00220525
0.0021386
0.00221753
0.018364
0.0184463
0.0185106
0.018593
0.00217966
0.00210003
0.00219273
0.00211334
0.0178691
0.0176369
0.0180188
0.017787
0.00196444
0.00188597
0.00197781
0.00189948
0.017562
0.0175613
0.017712
0.0177113
0.00185056
0.00185052
0.00186414
0.0018641
0.0176349
0.017866
0.017785
0.0180157
0.00188585
0.00196427
0.00189936
0.00197764
0.0184422
0.0183592
0.0185889
0.0185059
0.00209982
0.00217942
0.00211313
0.0021925
0.018055
0.0181361
0.0182114
0.0182931
0.00215221
0.00207203
0.00216609
0.0020862
0.0175525
0.0173191
0.0177128
0.01748
0.00193632
0.00185751
0.00195059
0.00187196
0.0172443
0.0172436
0.017405
0.0174043
0.00182193
0.00182189
0.00183648
0.00183643
0.0173171
0.0175493
0.0174779
0.0177097
0.00185739
0.00193615
0.00187184
0.00195041
0.0181321
0.0180502
0.018289
0.0182068
0.00207182
0.00215198
0.00208599
0.00216586
0.0177254
0.0178046
0.0178923
0.0179724
0.00212309
0.00204227
0.00213782
0.00205732
0.0172136
0.0169786
0.0173852
0.017151
0.00190632
0.00182706
0.00192154
0.00184253
0.0169038
0.0169031
0.0170761
0.0170754
0.00179126
0.00179122
0.00180685
0.00180681
0.0169766
0.0172105
0.017149
0.0173821
0.00182694
0.00190614
0.00184241
0.00192137
0.0178006
0.0177207
0.0179683
0.0178877
0.00204206
0.00212286
0.00205711
0.00213759
0.0173736
0.0174499
0.0175519
0.0176297
0.00209219
0.00201066
0.00210783
0.00202667
0.0168505
0.0166134
0.0170346
0.0167985
0.00187427
0.00179443
0.00189054
0.00181102
0.0165385
0.0165378
0.0167236
0.0167229
0.00175835
0.00175831
0.00177509
0.00177505
0.0166114
0.0168475
0.0167965
0.0170315
0.00179431
0.00187409
0.0018109
0.00189037
0.017446
0.0173691
0.0176257
0.0175475
0.00201046
0.00209196
0.00202646
0.00210761
0.0169968
0.0170689
0.0171881
0.0172623
0.00205927
0.00197693
0.00207596
0.00199403
0.0164602
0.0162205
0.0166584
0.0164199
0.0018399
0.00175932
0.00185738
0.00177719
0.0161454
0.0161448
0.0163448
0.0163442
0.00172288
0.00172284
0.00174094
0.0017409
0.0162186
0.0164572
0.016418
0.0166553
0.0017592
0.00183973
0.00177708
0.00185721
0.0170651
0.0169923
0.0172584
0.0171837
0.00197673
0.00205905
0.00199383
0.00207574
0.0165904
0.0166573
0.0167971
0.0168666
0.00202396
0.00194073
0.00204191
0.00195912
0.0160385
0.015796
0.016253
0.0160118
0.00180279
0.00172129
0.00182171
0.00174069
0.0157209
0.0157202
0.0159366
0.015936
0.00168439
0.00168435
0.00170403
0.00170399
0.0157941
0.0160356
0.0160099
0.01625
0.00172117
0.00180262
0.00174058
0.00182153
0.0166536
0.0165861
0.0168629
0.0167929
0.00194053
0.00202374
0.00195892
0.00204169
0.0161477
0.0162091
0.0163737
0.0164377
0.00198556
0.00190146
0.00200517
0.00192148
0.01558
0.0153346
0.0158138
0.0155696
0.0017623
0.00167965
0.00178301
0.00170096
0.0152598
0.0152592
0.0154945
0.0154939
0.00164223
0.00164219
0.00166381
0.00166377
0.0153327
0.0155772
0.0155677
0.0158109
0.00167954
0.00176213
0.00170085
0.00178284
0.0162055
0.0161436
0.016434
0.0163696
0.00190127
0.00198535
0.00192128
0.00200495
0.0156584
0.0157153
0.0159092
0.0159681
0.00194282
0.00185812
0.00196481
0.00188035
0.0150768
0.0148296
0.0153341
0.0150873
0.00171724
0.00163336
0.00174043
0.00165716
0.0147565
0.0147558
0.015013
0.0150124
0.00159543
0.00159539
0.00161946
0.00161942
0.0148278
0.015074
0.0150855
0.0153313
0.00163325
0.00171708
0.00165705
0.00174027
0.0157118
0.0156545
0.0159645
0.0159053
0.00185793
0.00194262
0.00188016
0.0019646
0.0151146
0.0151598
0.0153924
0.0154463
0.00189359
0.00180816
0.00191914
0.00183424
0.0145165
0.0142749
0.0148043
0.014558
0.00166513
0.00158075
0.00169231
0.00160795
0.0142076
0.014207
0.0144869
0.0144863
0.00154292
0.00154288
0.00156993
0.00156989
0.0142732
0.0145139
0.0145563
0.0148016
0.00158064
0.00166498
0.00160785
0.00169215
0.0151565
0.0151109
0.0154429
0.0153887
0.00180798
0.00189339
0.00183405
0.00191895
0.0145562
0.0144904
0.014832
0.0148458
0.00183255
0.00173652
0.00186553
0.0017775
0.0138877
0.0136774
0.0142093
0.013979
0.00159987
0.00152029
0.00163469
0.00155147
0.0136235
0.013623
0.0139177
0.0139172
0.00148477
0.00148474
0.00151441
0.00151437
0.0136758
0.0138852
0.0139774
0.0142068
0.00152019
0.00159973
0.00155137
0.00163454
0.0144873
0.0145525
0.0148426
0.0148284
0.00173635
0.00183237
0.00177732
0.00186534
0.00920514
0.00826872
0.00522045
0.00473748
0.00753947
0.00672736
0.00388999
0.00357566
0.00619976
0.00458051
0.00274456
0.00108022
0.00473923
0.00305916
0.00175565
0.000565592
0.00359047
0.00359041
0.000531939
0.000531931
0.00205566
0.00205562
0.000276341
0.000276337
0.00458011
0.00619893
0.00108008
0.0027441
0.00305887
0.00473867
0.00056553
0.00175537
0.0082675
0.00920356
0.00473675
0.00521951
0.00672655
0.00753847
0.00357521
0.00388947
0.0155968
0.0145687
0.0125513
0.0115083
0.0128389
0.0119088
0.0103884
0.00944726
0.012841
0.0119397
0.00957512
0.00835283
0.0102086
0.00927425
0.00755076
0.00625575
0.01177
0.0117696
0.00801411
0.00801391
0.00907279
0.00907253
0.00579179
0.00579163
0.0119383
0.0128388
0.00835198
0.00957361
0.00927333
0.010207
0.00625513
0.0075497
0.0145657
0.0155933
0.0115063
0.0125489
0.0119067
0.0128366
0.00944589
0.0103869
0.0212137
0.0203098
0.0184716
0.0175008
0.0171616
0.016362
0.0150743
0.0142042
0.0189505
0.0184342
0.0159721
0.0152992
0.0150328
0.0145117
0.0127038
0.0120188
0.0184307
0.0184298
0.0152362
0.0152356
0.0144966
0.0144961
0.0119434
0.011943
0.0184316
0.0189464
0.0152973
0.0159689
0.01451
0.01503
0.0120174
0.0127017
0.0203046
0.0212077
0.0174968
0.018467
0.0163584
0.0171576
0.0142014
0.0150713
0.0262698
0.0254905
0.0238165
0.0229773
0.0209257
0.0202528
0.0191166
0.0183803
0.0243822
0.0240463
0.0217563
0.0213459
0.0191741
0.0188333
0.0171889
0.0167744
0.0240916
0.0240902
0.0213739
0.0213728
0.0188614
0.0188605
0.0167881
0.0167874
0.0240424
0.0243761
0.0213426
0.0217511
0.0188307
0.0191701
0.0167722
0.0171855
0.0254829
0.0262611
0.0229709
0.0238093
0.0202477
0.0209199
0.018376
0.0191118
0.0306888
0.0300117
0.0285603
0.027835
0.0241204
0.0235567
0.0225914
0.0219762
0.0290732
0.0288306
0.0268194
0.0265366
0.022648
0.0223988
0.0209904
0.0207019
0.0288891
0.0288873
0.0265904
0.0265888
0.022437
0.0224359
0.0207368
0.0207357
0.0288254
0.0290653
0.026532
0.0268124
0.0223954
0.0226428
0.020699
0.0209858
0.0300019
0.0306777
0.0278263
0.0285506
0.0235503
0.0241132
0.0219704
0.0225851
0.0344549
0.0338586
0.0326503
0.032016
0.026783
0.0263065
0.025514
0.0249964
0.0330403
0.0328526
0.0311424
0.03093
0.0255178
0.0253225
0.0241526
0.0239332
0.0329142
0.032912
0.0309903
0.0309883
0.0253629
0.0253616
0.0239728
0.0239715
0.0328464
0.0330309
0.0309243
0.0311337
0.0253186
0.0255117
0.0239295
0.024147
0.0338469
0.0344417
0.0320053
0.0326383
0.0262989
0.0267745
0.0249894
0.0255064
0.03761
0.0370765
0.0361041
0.0355406
0.0289714
0.0285645
0.0279305
0.0274914
0.0363469
0.0361957
0.0347696
0.0346014
0.0278645
0.027705
0.0267503
0.0265744
0.036258
0.0362556
0.0346632
0.0346609
0.027746
0.0277445
0.026615
0.0266136
0.0361887
0.0363363
0.0345948
0.0347597
0.0277007
0.0278578
0.0265703
0.026744
0.0370634
0.0375952
0.0355283
0.0360904
0.0285561
0.028962
0.0274834
0.0279218
0.0402154
0.0397332
0.0389749
0.0384683
0.0307562
0.0304015
0.0299094
0.0295303
0.0390719
0.0389475
0.0377749
0.0376376
0.0297688
0.0296349
0.0288661
0.0287201
0.0390104
0.0390078
0.0376999
0.0376974
0.0296763
0.0296747
0.0287611
0.0287596
0.03894
0.0390605
0.0376304
0.037764
0.0296303
0.0297616
0.0287156
0.0288592
0.039719
0.0401993
0.0384548
0.0389597
0.0303925
0.030746
0.0295216
0.0298999
0.0423444
0.0419038
0.0413331
0.0408727
0.0321961
0.0318828
0.0315145
0.0311816
0.0412962
0.0411927
0.0402397
0.0401259
0.0313025
0.0311882
0.0305767
0.030453
0.0412566
0.0412538
0.0401889
0.0401862
0.0312303
0.0312286
0.0304945
0.0304929
0.0411848
0.0412841
0.0401182
0.040228
0.0311834
0.031295
0.0304483
0.0305694
0.0418887
0.0423272
0.0408582
0.0413168
0.0318733
0.0321853
0.0311724
0.0315044
0.044067
0.0436589
0.0432508
0.0428272
0.0333459
0.033066
0.0328029
0.0325072
0.043094
0.0430072
0.042242
0.0421468
0.0325273
0.0324286
0.0319489
0.0318426
0.0430724
0.0430695
0.042211
0.0422082
0.0324717
0.03247
0.031885
0.0318833
0.0429989
0.0430814
0.0421388
0.0422298
0.0324236
0.0325195
0.0318377
0.0319414
0.0436432
0.044049
0.042812
0.0432336
0.0330562
0.0333346
0.0324977
0.0327923
0.0454422
0.0450603
0.0447926
0.0443982
0.0342529
0.0339999
0.0338259
0.0335601
0.0445296
0.0444565
0.0438511
0.043771
0.0334943
0.0334084
0.0330389
0.0329467
0.0445233
0.0445203
0.0438367
0.0438338
0.0334527
0.033451
0.0329903
0.0329885
0.044448
0.0445165
0.0437627
0.0438383
0.0334032
0.0334864
0.0329416
0.0330311
0.045044
0.0454234
0.0443823
0.0447746
0.0339898
0.0342412
0.0335502
0.0338149
0.0465213
0.0461606
0.0460138
0.0456429
0.0349562
0.0347256
0.0346267
0.0343854
0.0456579
0.0455964
0.0451267
0.0450592
0.0342461
0.0341705
0.0338935
0.0338128
0.0456649
0.0456619
0.0451265
0.0451235
0.0342162
0.0342144
0.0338577
0.0338559
0.0455877
0.0456445
0.0450506
0.0451136
0.0341652
0.0342379
0.0338076
0.0338855
0.0461438
0.0465019
0.0456265
0.0459951
0.0347152
0.0349442
0.0343752
0.0346153
0.0473489
0.0470053
0.0469617
0.04661
0.0354879
0.0352752
0.0352404
0.0350192
0.0465254
0.0464736
0.0461191
0.0460622
0.0348167
0.0347497
0.0345508
0.0344794
0.0465439
0.0465408
0.0461313
0.0461282
0.0347969
0.034795
0.0345257
0.0345239
0.0464646
0.0465117
0.0460534
0.0461057
0.0347443
0.0348083
0.0344741
0.0345426
0.0469881
0.047329
0.0465931
0.0469425
0.0352646
0.0354756
0.0350088
0.0352288
0.0479606
0.0476313
0.0476769
0.0473413
0.035874
0.0356756
0.0356963
0.0354912
0.0471706
0.0471272
0.0468711
0.0468231
0.0352341
0.0351744
0.0350416
0.0349782
0.0471994
0.0471962
0.0468941
0.0468909
0.0352232
0.0352213
0.035026
0.0350242
0.0471181
0.0471567
0.0468142
0.0468573
0.035169
0.0352257
0.0349728
0.0350333
0.0476138
0.0479402
0.047324
0.0476571
0.0356648
0.0358614
0.0354805
0.0356843
0.0483887
0.048071
0.0481936
0.0478702
0.0361349
0.0359484
0.036017
0.0358253
0.0476256
0.0475901
0.0474178
0.0473775
0.0355215
0.0354681
0.0353913
0.0353347
0.0476642
0.0476609
0.0474503
0.0474471
0.0355185
0.0355166
0.0353841
0.0353822
0.0475808
0.0476113
0.0473684
0.0474037
0.0354626
0.0355129
0.0353293
0.0353829
0.0480531
0.0483678
0.0478526
0.0481734
0.0359374
0.0361221
0.0358145
0.0360048
0.048661
0.0483521
0.0485398
0.0482269
0.036291
0.0361133
0.0362233
0.0360417
0.0479187
0.0478884
0.0477882
0.0477547
0.035697
0.0356491
0.0356206
0.0355703
0.047964
0.0479607
0.0478298
0.0478265
0.0357014
0.0356995
0.0356213
0.0356194
0.047879
0.0479043
0.0477454
0.0477739
0.0356435
0.0356883
0.0355648
0.035612
0.0483339
0.0486398
0.048209
0.0485193
0.0361022
0.0362781
0.0360307
0.0362109
0.0487981
0.0484974
0.0487434
0.0484389
0.036357
0.0361872
0.036334
0.0361605
0.0480754
0.0480506
0.048011
0.0479821
0.0357807
0.0357373
0.0357486
0.0357017
0.048128
0.0481247
0.0480577
0.0480544
0.0357905
0.0357885
0.0357537
0.0357517
0.0480411
0.0480609
0.0479727
0.0479967
0.0357317
0.0357719
0.0356962
0.03574
0.048479
0.0487766
0.0484208
0.0487226
0.0361755
0.0363435
0.0361494
0.0363216
0.0488148
0.0485211
0.0488183
0.0485206
0.0363421
0.0361783
0.0363576
0.0361908
0.048109
0.0480884
0.0481035
0.0480803
0.0357796
0.03574
0.0357883
0.0357466
0.0481669
0.0481636
0.048158
0.0481547
0.0357946
0.0357927
0.0358005
0.0357985
0.0480788
0.0480943
0.0480709
0.048089
0.0357344
0.0357708
0.035741
0.0357795
0.0485026
0.0487931
0.0485023
0.0487971
0.0361667
0.0363287
0.0361789
0.0363442
0.0487297
0.0484416
0.0487816
0.048491
0.0362565
0.0360975
0.036306
0.0361447
0.0480359
0.0480191
0.0480821
0.0480629
0.0357058
0.0356698
0.0357497
0.0357117
0.0480991
0.0480957
0.0481419
0.0481385
0.0357258
0.0357238
0.0357669
0.0357649
0.0480094
0.0480209
0.0480534
0.0480675
0.035664
0.0356968
0.0357061
0.035741
0.0484227
0.0487074
0.0484725
0.0487603
0.0360853
0.0362422
0.0361331
0.0362933
0.048551
0.0482675
0.0486492
0.048363
0.0361101
0.0359546
0.0361893
0.0360319
0.0478684
0.0478551
0.0479604
0.0479448
0.0355683
0.0355351
0.0356431
0.0356083
0.0479364
0.0479329
0.0480252
0.0480217
0.0355923
0.0355903
0.0356648
0.0356628
0.047845
0.0478529
0.047935
0.0479453
0.035529
0.0355589
0.0356025
0.035634
0.048248
0.0485283
0.0483439
0.0486272
0.035944
0.0360972
0.0360207
0.0361759
0.0482932
0.0480131
0.0484289
0.0481474
0.0359114
0.0357582
0.0360155
0.0358616
0.0476174
0.0476068
0.0477498
0.0477374
0.035374
0.0353429
0.0354764
0.0354441
0.0476896
0.047686
0.0478192
0.0478156
0.0354014
0.0353992
0.0355018
0.0354996
0.0475965
0.0476015
0.0477273
0.0477342
0.0353365
0.0353638
0.0354378
0.0354666
0.0479931
0.0482696
0.0481276
0.0484062
0.0357448
0.0358958
0.0358498
0.0360025
0.0479605
0.0476832
0.0481337
0.0478545
0.0356609
0.0355092
0.0357911
0.0356383
0.0472913
0.0472833
0.0474604
0.0474506
0.0351282
0.0350991
0.0352558
0.0352255
0.0473673
0.0473637
0.0475337
0.0475301
0.0351588
0.0351566
0.0352844
0.0352822
0.047273
0.0472754
0.0474403
0.0474446
0.0350928
0.0351182
0.0352191
0.0352457
0.0476631
0.0479371
0.0478345
0.0481106
0.0354968
0.0356461
0.0356251
0.0357758
0.0475622
0.0472872
0.0477666
0.0474906
0.0353653
0.0352152
0.0355173
0.0353665
0.0468969
0.0468909
0.0470994
0.0470919
0.0348348
0.0348077
0.0349858
0.0349574
0.0469764
0.0469728
0.0471763
0.0471728
0.0348688
0.0348667
0.0350176
0.0350155
0.0468809
0.0468815
0.0470818
0.0470839
0.0348016
0.0348254
0.0349512
0.0349761
0.047268
0.0475395
0.047471
0.047744
0.0352033
0.0353517
0.0353544
0.0355037
0.0471007
0.0468276
0.0473371
0.0470626
0.0350275
0.0348777
0.0352004
0.0350503
0.0464394
0.0464351
0.0466729
0.0466673
0.0344978
0.0344724
0.0346701
0.0346436
0.0465218
0.0465184
0.0467531
0.0467496
0.0345348
0.0345328
0.0347053
0.0347032
0.0464253
0.0464244
0.0466575
0.0466579
0.0344667
0.0344891
0.0346378
0.0346611
0.0468089
0.047079
0.0470437
0.0473154
0.0348671
0.0350146
0.0350386
0.0351871
0.0465821
0.0463105
0.0468458
0.0465736
0.034651
0.0345011
0.0348425
0.0346928
0.0459222
0.0459191
0.0461853
0.0461811
0.0341198
0.0340953
0.0343124
0.0342873
0.0460069
0.0460035
0.046268
0.0462647
0.0341589
0.0341569
0.0343501
0.0343482
0.0459095
0.0459076
0.0461715
0.0461707
0.0340898
0.0341113
0.0342818
0.0343041
0.0462924
0.0465608
0.0465554
0.046825
0.03449
0.0346382
0.0346829
0.0348314
0.0460068
0.045736
0.0462994
0.0460279
0.0342347
0.0340845
0.0344463
0.034296
0.0453474
0.045345
0.0456391
0.0456359
0.0337019
0.0336779
0.0339143
0.0338899
0.0454337
0.0454304
0.0457238
0.0457205
0.0337424
0.0337404
0.0339538
0.0339519
0.0453353
0.0453327
0.0456264
0.0456246
0.0336723
0.0336932
0.0338844
0.0339058
0.0457177
0.0459856
0.0460097
0.0462785
0.0340739
0.0342221
0.0342849
0.0344334
0.0453775
0.0451069
0.0456967
0.045426
0.0337835
0.0336318
0.0340125
0.0338617
0.044716
0.0447139
0.045036
0.0450332
0.0332451
0.0332207
0.033477
0.0334526
0.0448035
0.0448002
0.0451221
0.0451188
0.0332859
0.0332839
0.0335173
0.0335154
0.0447043
0.0447014
0.0450237
0.0450215
0.0332151
0.0332364
0.033447
0.0334684
0.0450887
0.0453564
0.0454078
0.045676
0.0336208
0.0337707
0.0338509
0.0340005
0.0446928
0.044422
0.04504
0.0447691
0.0332934
0.0331398
0.0335422
0.0333894
0.0440288
0.0440264
0.0443768
0.044374
0.032749
0.0327239
0.0330006
0.0329757
0.0441167
0.0441133
0.0444637
0.0444604
0.0327896
0.0327876
0.033041
0.033039
0.0440168
0.0440142
0.0443645
0.0443623
0.0327182
0.0327403
0.03297
0.032992
0.044404
0.0446718
0.044751
0.0450194
0.0331288
0.0332805
0.0333784
0.0335298
0.0439526
0.0436814
0.0443277
0.0440566
0.0327645
0.0326088
0.0330327
0.0328779
0.043285
0.0432817
0.0436615
0.0436582
0.0322132
0.0321868
0.0324848
0.0324589
0.0433724
0.0433691
0.0437484
0.0437451
0.0322528
0.0322508
0.0325246
0.0325226
0.0432721
0.0432704
0.0436487
0.0436471
0.0321811
0.0322045
0.0324532
0.0324762
0.0436635
0.0439319
0.0440387
0.0443073
0.0325978
0.0327517
0.032867
0.0330203
0.0431553
0.0428831
0.0435593
0.0432875
0.0321963
0.0320377
0.0324843
0.0323271
0.0424822
0.0424775
0.0428887
0.0428842
0.0316362
0.031608
0.0319287
0.0319012
0.0425685
0.0425651
0.0429748
0.0429714
0.0316742
0.0316722
0.0319672
0.0319652
0.042468
0.0424678
0.0428748
0.0428743
0.0316023
0.0316276
0.0318955
0.0319201
0.0428655
0.043135
0.0432698
0.0435392
0.0320269
0.0321837
0.0323163
0.0324721
0.0422978
0.0420236
0.0427325
0.0424592
0.0315871
0.0314246
0.0318959
0.0317355
0.041617
0.0416102
0.0420553
0.0420491
0.0310159
0.0309851
0.0313305
0.0313008
0.0417012
0.0416979
0.0421398
0.0421365
0.0310514
0.0310494
0.0313669
0.0313649
0.0416008
0.0416028
0.0420397
0.0420411
0.0309795
0.0310073
0.0312952
0.0313219
0.0420063
0.042278
0.0424418
0.0427128
0.031414
0.0315747
0.0317248
0.0318839
0.0413759
0.0410985
0.0418435
0.0415675
0.0309341
0.0307667
0.0312652
0.0311003
0.0406845
0.0406748
0.0411572
0.0411486
0.030349
0.030315
0.0306873
0.0306548
0.0407657
0.0407624
0.0412393
0.041236
0.0303813
0.0303794
0.030721
0.030719
0.0406655
0.0406705
0.0411393
0.0411433
0.0303095
0.0303405
0.0306493
0.0306789
0.0410816
0.0413567
0.0415505
0.0418243
0.0307562
0.0309221
0.0310898
0.0312534
0.0403838
0.040102
0.0408874
0.0406078
0.0302337
0.03006
0.0305892
0.0304187
0.0396783
0.0396646
0.0401889
0.0401768
0.0296312
0.0295936
0.0299957
0.0299597
0.0397549
0.0397517
0.0402672
0.040264
0.0296603
0.0296584
0.030026
0.0300241
0.0396555
0.0396646
0.0401677
0.0401752
0.0295882
0.029623
0.0299543