/*--------------------------------*- C++ -*----------------------------------*\
  =========                 |
  \\      /  F ield         | OpenFOAM: The Open Source CFD Toolbox
   \\    /   O peration     | Website:  https://openfoam.org
    \\  /    A nd           | Version:  9
     \\/     M anipulation  |
\*---------------------------------------------------------------------------*/
FoamFile
{
    format      ascii;
    class       volScalarField;
    location    "2.4";
    object      p;
}
// * * * * * * * * * * * * * * * * * * * * * * * * * * * * * * * * * * * * * //

dimensions      [0 2 -2 0 0 0 0];

internalField   nonuniform List<scalar> 
36360
(
20.1505
20.0662
20.1239
20.0813
20.091
20.1068
20.0943
20.0995
20.0983
20.1006
20.0998
20.1007
20.0989
20.0989
20.0972
20.0984
20.1006
20.1006
20.1007
20.1007
20.0989
20.0989
20.0988
20.0988
20.1006
20.0983
20.1007
20.0998
20.0989
20.0989
20.0984
20.0972
20.0662
20.1505
20.0813
20.1239
20.1068
20.091
20.0995
20.0943
20.1389
20.0832
20.1504
20.0739
20.0536
20.1461
20.0767
20.1253
20.0999
20.101
20.0987
20.101
20.1036
20.0983
20.101
20.099
20.101
20.101
20.1007
20.1007
20.098
20.098
20.0987
20.0987
20.101
20.0999
20.101
20.0987
20.0983
20.1036
20.099
20.101
20.0832
20.1389
20.0739
20.1504
20.1461
20.0536
20.1253
20.0767
20.1145
20.0964
20.1263
20.0908
20.0068
20.183
20.0296
20.1659
20.107
20.1004
20.1028
20.1005
20.1143
20.098
20.1082
20.0978
20.099
20.099
20.1003
20.1003
20.0962
20.0962
20.0971
20.0971
20.1004
20.107
20.1005
20.1028
20.098
20.1143
20.0978
20.1082
20.0964
20.1145
20.0908
20.1263
20.183
20.0068
20.1658
20.0296
20.0937
20.1027
20.1036
20.1003
19.967
20.2087
19.9859
20.1972
20.116
20.1023
20.1114
20.1011
20.1276
20.1003
20.1209
20.0989
20.0973
20.0973
20.098
20.098
20.0952
20.0952
20.0956
20.0956
20.1023
20.116
20.1011
20.1114
20.1004
20.1276
20.0989
20.1209
20.1027
20.0937
20.1003
20.1036
20.2087
19.967
20.1972
19.9859
20.0766
20.1046
20.0847
20.1041
19.9349
20.2255
19.95
20.218
20.1247
20.106
20.1205
20.1041
20.1398
20.1044
20.1339
20.1022
20.0972
20.0972
20.097
20.097
20.0956
20.0956
20.0953
20.0953
20.106
20.1247
20.1041
20.1205
20.1044
20.1398
20.1022
20.1339
20.1046
20.0766
20.1041
20.0847
20.2254
19.9349
20.218
19.9501
20.0628
20.1039
20.0693
20.1045
19.9094
20.236
19.9214
20.2313
20.1318
20.1103
20.1285
20.1081
20.1498
20.109
20.1451
20.1067
20.0987
20.0987
20.0978
20.0978
20.0972
20.0972
20.0963
20.0963
20.1103
20.1318
20.1081
20.1285
20.109
20.1498
20.1067
20.1451
20.1039
20.0628
20.1045
20.0694
20.236
19.9095
20.2313
19.9215
20.0516
20.1021
20.0569
20.1031
19.8893
20.2426
19.8988
20.2397
20.1371
20.1145
20.1346
20.1124
20.1574
20.1136
20.1539
20.1114
20.1011
20.1011
20.0998
20.0998
20.0996
20.0996
20.0983
20.0983
20.1145
20.1371
20.1124
20.1346
20.1136
20.1574
20.1113
20.1539
20.1021
20.0517
20.1031
20.057
20.2426
19.8894
20.2397
19.8989
20.0425
20.0998
20.0469
20.101
19.8733
20.2467
19.8808
20.2449
20.141
20.1183
20.1392
20.1165
20.1631
20.1178
20.1605
20.1158
20.1038
20.1038
20.1024
20.1024
20.1023
20.1023
20.1009
20.1009
20.1183
20.141
20.1165
20.1392
20.1178
20.163
20.1158
20.1604
20.0998
20.0426
20.101
20.0469
20.2467
19.8734
20.2449
19.8809
20.0351
20.0973
20.0386
20.0985
19.8605
20.2491
19.8666
20.2481
20.1437
20.1216
20.1425
20.12
20.1671
20.1214
20.1653
20.1197
20.1066
20.1066
20.1052
20.1052
20.1051
20.1051
20.1037
20.1037
20.1216
20.1437
20.12
20.1424
20.1213
20.1671
20.1196
20.1653
20.0973
20.0351
20.0986
20.0386
20.2491
19.8606
20.248
19.8666
20.0289
20.0949
20.0318
20.0961
19.8504
20.2503
19.8552
20.2498
20.1456
20.1242
20.1447
20.123
20.1701
20.1243
20.1687
20.1229
20.1091
20.1091
20.1079
20.1079
20.1076
20.1076
20.1064
20.1064
20.1242
20.1456
20.123
20.1447
20.1243
20.17
20.1229
20.1687
20.0949
20.0289
20.0961
20.0319
20.2503
19.8504
20.2498
19.8552
20.0238
20.0927
20.0262
20.0938
19.8422
20.2508
19.846
20.2507
20.1468
20.1263
20.1463
20.1254
20.172
20.1265
20.1711
20.1255
20.1114
20.1114
20.1103
20.1103
20.1098
20.1098
20.1087
20.1087
20.1263
20.1468
20.1253
20.1463
20.1265
20.172
20.1255
20.1711
20.0927
20.0238
20.0938
20.0262
20.2508
19.8423
20.2506
19.8461
20.0195
20.0906
20.0215
20.0916
19.8356
20.2507
19.8387
20.2508
20.1475
20.1279
20.1473
20.1272
20.1733
20.1282
20.1727
20.1275
20.1132
20.1132
20.1123
20.1123
20.1116
20.1116
20.1107
20.1107
20.1279
20.1475
20.1272
20.1473
20.1282
20.1732
20.1274
20.1727
20.0906
20.0195
20.0916
20.0215
20.2507
19.8357
20.2508
19.8388
20.0158
20.0887
20.0175
20.0897
19.8304
20.2503
19.8329
20.2505
20.1478
20.1291
20.1477
20.1286
20.1739
20.1294
20.1736
20.1289
20.1146
20.1146
20.114
20.114
20.1129
20.1129
20.1123
20.1123
20.1291
20.1478
20.1286
20.1477
20.1294
20.1739
20.1289
20.1736
20.0888
20.0158
20.0897
20.0176
20.2503
19.8304
20.2505
19.8329
20.0127
20.087
20.0142
20.0879
19.8263
20.2494
19.8282
20.2499
20.1478
20.1298
20.1478
20.1295
20.174
20.1301
20.174
20.1298
20.1156
20.1156
20.1152
20.1152
20.1139
20.1139
20.1135
20.1135
20.1298
20.1478
20.1295
20.1478
20.1301
20.174
20.1298
20.174
20.087
20.0127
20.0879
20.0142
20.2494
19.8263
20.2499
19.8282
20.0101
20.0855
20.0113
20.0863
19.8231
20.2482
19.8246
20.2488
20.1475
20.1302
20.1477
20.1301
20.1738
20.1304
20.1739
20.1303
20.1162
20.1162
20.116
20.116
20.1144
20.1144
20.1142
20.1142
20.1302
20.1475
20.1301
20.1477
20.1304
20.1737
20.1303
20.1739
20.0855
20.0101
20.0863
20.0114
20.2482
19.8232
20.2488
19.8247
20.0078
20.0841
20.0089
20.0848
19.8207
20.2467
19.8218
20.2475
20.147
20.1302
20.1473
20.1302
20.1731
20.1303
20.1735
20.1304
20.1165
20.1165
20.1164
20.1164
20.1145
20.1145
20.1145
20.1145
20.1302
20.147
20.1302
20.1473
20.1303
20.1731
20.1304
20.1735
20.0841
20.0079
20.0848
20.0089
20.2467
19.8208
20.2474
19.8219
20.0059
20.0827
20.0068
20.0834
19.819
20.245
19.8197
20.2459
20.1464
20.1299
20.1467
20.1301
20.1722
20.1298
20.1727
20.1301
20.1164
20.1164
20.1165
20.1165
20.1143
20.1143
20.1144
20.1144
20.1299
20.1464
20.1301
20.1467
20.1298
20.1722
20.1301
20.1727
20.0828
20.0059
20.0834
20.0069
20.245
19.819
20.2459
19.8198
20.0041
20.0818
20.005
20.0822
19.8175
20.2432
19.8182
20.2441
20.1457
20.1294
20.146
20.1297
20.171
20.1291
20.1716
20.1295
20.1161
20.1161
20.1163
20.1163
20.1138
20.1138
20.1141
20.1141
20.1294
20.1456
20.1297
20.146
20.1291
20.171
20.1295
20.1716
20.0817
20.0041
20.0823
20.005
20.2432
19.8178
20.2441
19.8183
20.0027
20.0806
20.0033
20.0812
19.8168
20.2412
19.8171
20.2422
20.1448
20.1287
20.1452
20.129
20.1697
20.1281
20.1704
20.1286
20.1155
20.1155
20.1158
20.1158
20.113
20.113
20.1134
20.1134
20.1286
20.1448
20.129
20.1452
20.1281
20.1697
20.1286
20.1704
20.0806
20.0027
20.0811
20.0034
20.2413
19.8168
20.2422
19.8173
20.0015
20.0796
20.0021
20.0801
19.8164
20.2392
19.8166
20.2402
20.1439
20.1277
20.1443
20.1282
20.1681
20.1269
20.1689
20.1275
20.1148
20.1148
20.1152
20.1152
20.1119
20.1119
20.1125
20.1125
20.1277
20.1439
20.1282
20.1443
20.1269
20.1681
20.1275
20.1689
20.0796
20.0016
20.0801
20.0021
20.2392
19.8164
20.2403
19.8166
20.0004
20.0789
20.0009
20.0792
19.8163
20.2371
19.8163
20.2382
20.143
20.1268
20.1435
20.1273
20.1665
20.1255
20.1673
20.1262
20.1139
20.1139
20.1144
20.1144
20.1107
20.1107
20.1114
20.1114
20.1268
20.1431
20.1273
20.1435
20.1255
20.1665
20.1262
20.1673
20.0789
20.0004
20.0793
20.0009
20.2372
19.8161
20.2382
19.8162
19.9994
20.0783
19.9998
20.0786
19.8164
20.235
19.8163
20.2361
20.1421
20.1257
20.1426
20.1262
20.1647
20.124
20.1657
20.1248
20.1129
20.1129
20.1134
20.1134
20.1094
20.1094
20.1101
20.1101
20.1257
20.142
20.1262
20.1426
20.124
20.1647
20.1248
20.1656
20.0782
19.9996
20.0786
19.9999
20.235
19.8164
20.2361
19.8162
19.9992
20.0776
19.9993
20.078
19.817
20.2329
19.8167
20.2339
20.1407
20.1246
20.1414
20.1251
20.1628
20.1224
20.1638
20.1232
20.1119
20.1119
20.1124
20.1124
20.108
20.108
20.1087
20.1087
20.1246
20.1407
20.1251
20.1415
20.1224
20.1628
20.1232
20.1638
20.0778
19.999
20.078
19.9992
20.2329
19.8169
20.234
19.8167
19.9987
20.0774
19.9989
20.0775
19.8178
20.2308
19.8174
20.2318
20.1395
20.1235
20.14
20.124
20.1608
20.1208
20.1618
20.1216
20.1109
20.1109
20.1114
20.1114
20.1065
20.1065
20.1072
20.1072
20.1234
20.1394
20.124
20.1401
20.1208
20.1608
20.1216
20.1618
20.0773
19.9989
20.0775
19.9989
20.2308
19.8179
20.2318
19.8174
19.9988
20.0773
19.9986
20.0774
19.8191
20.2288
19.8184
20.2298
20.1383
20.1224
20.1389
20.1229
20.1589
20.1192
20.1598
20.12
20.11
20.11
20.1105
20.1105
20.1051
20.1051
20.1058
20.1058
20.1224
20.1384
20.1229
20.1389
20.1192
20.1589
20.12
20.1598
20.0774
19.9987
20.0774
19.9987
20.2288
19.8191
20.2298
19.8185
19.9991
20.0774
19.9989
20.0773
19.8209
20.2269
19.82
20.2278
20.1374
20.1215
20.1379
20.1219
20.157
20.1176
20.1579
20.1184
20.1092
20.1092
20.1096
20.1096
20.1037
20.1037
20.1044
20.1044
20.1215
20.1374
20.1219
20.1379
20.1176
20.157
20.1184
20.1579
20.0775
19.9992
20.0774
19.9988
20.2269
19.8209
20.2278
19.8199
19.9998
20.0779
19.9994
20.0776
19.8231
20.2251
19.8219
20.226
20.1367
20.1207
20.1371
20.1211
20.1552
20.1162
20.1561
20.1169
20.1086
20.1086
20.1089
20.1089
20.1025
20.1025
20.1031
20.1031
20.1207
20.1367
20.1211
20.137
20.1162
20.1552
20.1169
20.1561
20.0779
19.9999
20.0776
19.9995
20.225
19.8231
20.2259
19.822
20.001
20.0787
20.0003
20.0783
19.8259
20.2233
19.8244
20.2242
20.1362
20.1202
20.1365
20.1204
20.1536
20.1149
20.1544
20.1155
20.1082
20.1082
20.1083
20.1083
20.1014
20.1014
20.1019
20.1019
20.1202
20.1362
20.1204
20.1365
20.1149
20.1536
20.1155
20.1544
20.0787
20.001
20.0783
20.0003
20.2233
19.8259
20.2242
19.8245
20.0025
20.0798
20.0017
20.0792
19.8292
20.2218
19.8275
20.2226
20.136
20.1198
20.1361
20.12
20.1522
20.1138
20.1529
20.1143
20.108
20.108
20.1081
20.1081
20.1007
20.1007
20.101
20.101
20.1198
20.136
20.12
20.1361
20.1138
20.1521
20.1143
20.1528
20.0798
20.0025
20.0792
20.0017
20.2218
19.8293
20.2225
19.8275
20.0046
20.0812
20.0035
20.0804
19.8332
20.2205
19.8312
20.2211
20.136
20.1198
20.136
20.1198
20.1509
20.1131
20.1515
20.1134
20.1082
20.1082
20.1081
20.1081
20.1002
20.1002
20.1004
20.1004
20.1198
20.136
20.1198
20.136
20.1131
20.1509
20.1134
20.1515
20.0812
20.0046
20.0805
20.0035
20.2204
19.8333
20.2211
19.8312
20.0072
20.083
20.0058
20.082
19.838
20.2193
19.8355
20.2199
20.1363
20.12
20.1361
20.1199
20.1499
20.1126
20.1504
20.1128
20.1088
20.1088
20.1084
20.1084
20.1002
20.1002
20.1002
20.1002
20.12
20.1362
20.1199
20.1361
20.1126
20.1499
20.1128
20.1503
20.083
20.0072
20.0821
20.0058
20.2193
19.838
20.2198
19.8356
20.0104
20.0851
20.0087
20.084
19.8435
20.2184
19.8406
20.2188
20.1367
20.1206
20.1365
20.1203
20.1491
20.1125
20.1494
20.1125
20.1097
20.1097
20.1092
20.1092
20.1006
20.1006
20.1003
20.1003
20.1206
20.1367
20.1203
20.1365
20.1125
20.1491
20.1125
20.1494
20.0851
20.0104
20.084
20.0087
20.2184
19.8435
20.2188
19.8407
20.0141
20.0875
20.0121
20.0863
19.8498
20.2177
19.8465
20.218
20.1374
20.1215
20.1371
20.121
20.1485
20.1128
20.1488
20.1126
20.1111
20.1111
20.1104
20.1104
20.1015
20.1015
20.101
20.101
20.1215
20.1374
20.121
20.137
20.1128
20.1485
20.1126
20.1487
20.0875
20.0141
20.0863
20.0121
20.2177
19.8498
20.218
19.8466
20.0184
20.0902
20.0161
20.0888
19.857
20.2171
19.8533
20.2174
20.1383
20.1228
20.1378
20.1221
20.1482
20.1135
20.1483
20.1131
20.113
20.113
20.112
20.112
20.1029
20.1029
20.1021
20.1021
20.1228
20.1383
20.1221
20.1378
20.1135
20.1481
20.1131
20.1483
20.0902
20.0184
20.0888
20.0161
20.2171
19.8571
20.2174
19.8533
20.0234
20.0931
20.0208
20.0917
19.8654
20.2165
19.8611
20.2168
20.1393
20.1244
20.1388
20.1235
20.148
20.1147
20.1481
20.1141
20.1152
20.1152
20.1141
20.114
20.1049
20.1049
20.1038
20.1038
20.1243
20.1393
20.1235
20.1388
20.1147
20.148
20.1141
20.1481
20.0931
20.0234
20.0917
20.0208
20.2165
19.8654
20.2168
19.8611
20.029
20.0962
20.0261
20.0946
19.875
20.2158
19.87
20.2162
20.1404
20.1263
20.1398
20.1253
20.148
20.1164
20.148
20.1155
20.118
20.118
20.1165
20.1165
20.1075
20.1075
20.1061
20.1061
20.1263
20.1404
20.1253
20.1398
20.1164
20.148
20.1155
20.148
20.0962
20.029
20.0946
20.0261
20.2158
19.8751
20.2162
19.8701
20.0351
20.0995
20.032
20.0978
19.8864
20.2145
19.8805
20.2152
20.1415
20.1285
20.1409
20.1274
20.148
20.1185
20.148
20.1174
20.1211
20.1211
20.1195
20.1195
20.1106
20.1106
20.1089
20.1089
20.1285
20.1415
20.1273
20.1409
20.1185
20.148
20.1174
20.148
20.0995
20.0351
20.0978
20.032
20.2144
19.8865
20.2152
19.8805
20.04
20.104
20.038
20.1014
19.9003
20.2117
19.893
20.2133
20.1427
20.1311
20.1421
20.1298
20.148
20.1211
20.148
20.1197
20.1247
20.1247
20.1228
20.1228
20.1142
20.1142
20.1123
20.1123
20.1311
20.1427
20.1298
20.142
20.1211
20.148
20.1197
20.148
20.104
20.04
20.1014
20.038
20.2116
19.9003
20.2133
19.893
20.0441
20.1088
20.0406
20.108
19.9174
20.2059
19.9083
20.2093
20.1448
20.1345
20.1437
20.1327
20.1482
20.1244
20.148
20.1227
20.1288
20.1288
20.1267
20.1267
20.1184
20.1184
20.1162
20.1162
20.1345
20.1448
20.1327
20.1437
20.1244
20.1482
20.1227
20.148
20.1088
20.0441
20.108
20.0406
20.2058
19.9174
20.2093
19.9084
20.1933
20.0404
20.1501
20.0628
20.1794
20.0446
20.1389
20.0677
20.0864
20.0996
20.0946
20.1005
20.0907
20.0992
20.0957
20.0989
20.1005
20.1005
20.1005
20.1005
20.0997
20.0997
20.0993
20.0993
20.0996
20.0864
20.1005
20.0946
20.0992
20.0907
20.0989
20.0957
20.0404
20.1933
20.0628
20.1501
20.0446
20.1794
20.0677
20.1389
20.1917
20.0608
20.1951
20.0514
20.1822
20.0571
20.1855
20.0505
20.079
20.0949
20.0815
20.0976
20.0852
20.098
20.0873
20.0991
20.1
20.1
20.1005
20.1005
20.1
20.1
20.1003
20.1003
20.0949
20.079
20.0976
20.0815
20.098
20.0852
20.0991
20.0873
20.0608
20.1917
20.0514
20.1951
20.0571
20.1822
20.0505
20.1855
20.1865
20.0694
20.1888
20.0665
20.1735
20.0637
20.1778
20.0615
20.079
20.0921
20.0787
20.0931
20.0863
20.0967
20.0851
20.0971
20.0977
20.0977
20.0989
20.0989
20.0986
20.0986
20.0995
20.0995
20.0921
20.079
20.0931
20.0787
20.0967
20.0863
20.0971
20.0851
20.0694
20.1864
20.0665
20.1888
20.0637
20.1735
20.0615
20.1778
20.183
20.07
20.1846
20.0704
20.1658
20.0634
20.1695
20.0641
20.0807
20.0917
20.0798
20.0916
20.0911
20.0974
20.0887
20.0968
20.0957
20.0957
20.0965
20.0965
20.097
20.097
20.0977
20.0977
20.0917
20.0807
20.0916
20.0798
20.0974
20.0911
20.0968
20.0887
20.07
20.183
20.0704
20.1845
20.0634
20.1658
20.0641
20.1695
20.1806
20.0673
20.1817
20.0689
20.1596
20.0599
20.1626
20.0619
20.0819
20.0928
20.0814
20.0921
20.0951
20.0996
20.0932
20.0984
20.0952
20.0952
20.0953
20.0953
20.097
20.097
20.0968
20.0968
20.0928
20.0819
20.0921
20.0814
20.0996
20.0951
20.0984
20.0932
20.0673
20.1806
20.0689
20.1817
20.06
20.1596
20.0619
20.1625
20.1788
20.0635
20.1797
20.0655
20.1545
20.0554
20.157
20.0577
20.0823
20.0945
20.0822
20.0936
20.0978
20.1025
20.0966
20.101
20.0963
20.0963
20.0956
20.0956
20.0984
20.0984
20.0975
20.0975
20.0945
20.0823
20.0936
20.0822
20.1025
20.0978
20.101
20.0966
20.0635
20.1788
20.0655
20.1797
20.0554
20.1545
20.0577
20.1569
20.1773
20.0594
20.178
20.0614
20.1504
20.0507
20.1524
20.053
20.0822
20.0964
20.0823
20.0954
20.0994
20.1056
20.0988
20.1041
20.0982
20.0982
20.0972
20.0972
20.1007
20.1007
20.0994
20.0994
20.0964
20.0822
20.0954
20.0823
20.1056
20.0995
20.1041
20.0988
20.0594
20.1772
20.0614
20.178
20.0507
20.1504
20.053
20.1524
20.1759
20.0555
20.1766
20.0574
20.1469
20.0463
20.1486
20.0484
20.0817
20.0982
20.082
20.0973
20.1001
20.1085
20.0999
20.1071
20.1006
20.1006
20.0994
20.0994
20.1033
20.1033
20.102
20.102
20.0982
20.0817
20.0973
20.082
20.1085
20.1001
20.1071
20.0999
20.0555
20.1758
20.0574
20.1765
20.0463
20.1469
20.0485
20.1485
20.1745
20.0519
20.1752
20.0536
20.1439
20.0423
20.1453
20.0443
20.081
20.0998
20.0814
20.099
20.1002
20.1112
20.1002
20.1099
20.103
20.103
20.1018
20.1018
20.106
20.106
20.1046
20.1046
20.0998
20.081
20.099
20.0814
20.1112
20.1003
20.1099
20.1002
20.0519
20.1745
20.0537
20.1752
20.0423
20.1439
20.0443
20.1453
20.1733
20.0487
20.1739
20.0502
20.1413
20.0387
20.1426
20.0405
20.0802
20.1012
20.0806
20.1005
20.1001
20.1134
20.1002
20.1123
20.1053
20.1053
20.1041
20.1041
20.1085
20.1085
20.1073
20.1073
20.1012
20.0802
20.1005
20.0806
20.1134
20.1001
20.1123
20.1002
20.0487
20.1732
20.0503
20.1739
20.0388
20.1413
20.0405
20.1425
20.172
20.0458
20.1727
20.0472
20.139
20.0356
20.1401
20.0371
20.0794
20.1023
20.0798
20.1018
20.0997
20.1152
20.0999
20.1143
20.1073
20.1073
20.1063
20.1063
20.1107
20.1107
20.1096
20.1096
20.1023
20.0794
20.1018
20.0798
20.1152
20.0997
20.1143
20.0999
20.0459
20.172
20.0472
20.1726
20.0356
20.139
20.0371
20.1401
20.1708
20.0433
20.1714
20.0445
20.1369
20.0328
20.138
20.0341
20.0786
20.1031
20.079
20.1027
20.0992
20.1166
20.0995
20.1159
20.109
20.109
20.1082
20.1082
20.1126
20.1126
20.1117
20.1117
20.1031
20.0786
20.1027
20.079
20.1166
20.0992
20.1159
20.0995
20.0434
20.1708
20.0446
20.1714
20.0328
20.1369
20.0342
20.1379
20.1696
20.0411
20.1702
20.0422
20.1351
20.0304
20.136
20.0316
20.0779
20.1036
20.0782
20.1034
20.0986
20.1176
20.0989
20.1171
20.1103
20.1103
20.1097
20.1097
20.114
20.114
20.1133
20.1133
20.1036
20.0779
20.1034
20.0783
20.1176
20.0986
20.1171
20.0989
20.0412
20.1696
20.0422
20.1702
20.0304
20.1351
20.0316
20.136
20.1685
20.0392
20.1691
20.0401
20.1334
20.0283
20.1342
20.0293
20.0771
20.1041
20.0775
20.1039
20.0979
20.1183
20.0983
20.118
20.1113
20.1113
20.1109
20.1109
20.1151
20.1151
20.1146
20.1146
20.1041
20.0772
20.1039
20.0775
20.1183
20.0979
20.118
20.0983
20.0392
20.1684
20.0402
20.169
20.0284
20.1333
20.0294
20.1342
20.1673
20.0375
20.1679
20.0383
20.1318
20.0265
20.1326
20.0274
20.0765
20.1044
20.0768
20.1043
20.0972
20.1186
20.0976
20.1185
20.1121
20.1121
20.1117
20.1117
20.1158
20.1158
20.1155
20.1155
20.1044
20.0765
20.1043
20.0768
20.1186
20.0972
20.1185
20.0976
20.0376
20.1672
20.0384
20.1678
20.0265
20.1317
20.0274
20.1325
20.1661
20.0361
20.1667
20.0368
20.1303
20.025
20.131
20.0257
20.0758
20.1046
20.0761
20.1045
20.0965
20.1187
20.0968
20.1187
20.1125
20.1125
20.1123
20.1123
20.1162
20.1162
20.116
20.116
20.1046
20.0759
20.1045
20.0762
20.1187
20.0965
20.1187
20.0969
20.0362
20.166
20.0368
20.1666
20.025
20.1303
20.0257
20.131
20.1649
20.0349
20.1655
20.0355
20.1289
20.0236
20.1296
20.0242
20.0753
20.1045
20.0755
20.1046
20.0956
20.1186
20.0961
20.1187
20.1128
20.1128
20.1127
20.1127
20.1163
20.1163
20.1163
20.1163
20.1045
20.0753
20.1046
20.0756
20.1186
20.0957
20.1187
20.0961
20.0349
20.1649
20.0355
20.1654
20.0236
20.1289
20.0243
20.1296
20.1639
20.0337
20.1644
20.0342
20.1276
20.0224
20.1282
20.023
20.0747
20.1044
20.075
20.1045
20.0948
20.1183
20.0952
20.1185
20.1129
20.1129
20.1128
20.1128
20.1162
20.1162
20.1163
20.1163
20.1044
20.0747
20.1045
20.075
20.1183
20.0948
20.1185
20.0952
20.0338
20.1638
20.0342
20.1644
20.0223
20.1277
20.0229
20.1283
20.163
20.0328
20.1635
20.0332
20.1265
20.0214
20.127
20.0219
20.0742
20.1042
20.0745
20.1043
20.0939
20.1179
20.0944
20.1181
20.1128
20.1128
20.1128
20.1128
20.116
20.116
20.1161
20.1161
20.1042
20.0742
20.1043
20.0745
20.1179
20.0939
20.1181
20.0944
20.0328
20.1629
20.0332
20.1634
20.0215
20.1265
20.0219
20.1271
20.1616
20.0324
20.1623
20.0326
20.1253
20.0208
20.1259
20.021
20.074
20.1041
20.0741
20.1042
20.093
20.1174
20.0935
20.1177
20.1126
20.1127
20.1127
20.1127
20.1156
20.1156
20.1158
20.1158
20.1041
20.074
20.1042
20.0741
20.1175
20.093
20.1177
20.0935
20.0324
20.1615
20.0326
20.1622
20.0208
20.1252
20.0211
20.1258
20.1609
20.0319
20.1612
20.0321
20.1243
20.0202
20.1248
20.0205
20.0738
20.1039
20.0739
20.104
20.092
20.1169
20.0925
20.1172
20.1124
20.1124
20.1126
20.1126
20.1151
20.1151
20.1153
20.1153
20.1039
20.0738
20.104
20.0739
20.1169
20.092
20.1172
20.0925
20.0318
20.161
20.0321
20.1613
20.0203
20.1242
20.0205
20.1247
20.1599
20.0318
20.1604
20.0318
20.1233
20.02
20.1238
20.0201
20.074
20.1038
20.0738
20.1039
20.0912
20.1164
20.0915
20.1167
20.1122
20.1122
20.1123
20.1123
20.1145
20.1145
20.1148
20.1148
20.1038
20.074
20.1039
20.0738
20.1164
20.0912
20.1166
20.0915
20.0318
20.1599
20.0317
20.1605
20.0199
20.1235
20.02
20.1239
20.1594
20.0317
20.1596
20.0318
20.1228
20.0198
20.1231
20.0199
20.0744
20.1038
20.0742
20.1038
20.0911
20.1159
20.0909
20.1161
20.112
20.112
20.1121
20.1121
20.1139
20.1139
20.1142
20.1142
20.1038
20.0744
20.1038
20.0742
20.1159
20.0912
20.1161
20.091
20.0317
20.1595
20.0317
20.1596
20.0201
20.1225
20.0199
20.123
20.1587
20.032
20.159
20.0318
20.1219
20.0202
20.1224
20.02
20.0743
20.1038
20.0743
20.1037
20.0921
20.1154
20.0917
20.1156
20.1119
20.1119
20.1119
20.1119
20.1134
20.1134
20.1137
20.1137
20.1038
20.0744
20.1038
20.0743
20.1154
20.0921
20.1156
20.0917
20.0321
20.1585
20.0318
20.159
20.0201
20.1221
20.02
20.1223
20.1587
20.0324
20.1586
20.0322
20.1218
20.0207
20.1218
20.0204
20.0747
20.1039
20.0745
20.1038
20.0927
20.1151
20.0924
20.1152
20.1118
20.1118
20.1118
20.1118
20.113
20.113
20.1132
20.1132
20.1039
20.0747
20.1038
20.0745
20.1151
20.0927
20.1152
20.0924
20.0325
20.1587
20.0323
20.1585
20.0208
20.1216
20.0205
20.1218
20.1584
20.0334
20.1586
20.0328
20.1216
20.0216
20.1218
20.021
20.0755
20.1043
20.0751
20.1041
20.0933
20.1149
20.093
20.115
20.112
20.112
20.1119
20.1119
20.1127
20.1127
20.1128
20.1128
20.1043
20.0755
20.1041
20.0751
20.1149
20.0933
20.115
20.093
20.0334
20.1584
20.0328
20.1586
20.0215
20.1217
20.0211
20.1217
20.1586
20.0347
20.1585
20.034
20.1218
20.0228
20.1217
20.0222
20.0766
20.1049
20.076
20.1046
20.0942
20.1149
20.0937
20.1149
20.1123
20.1123
20.1121
20.1121
20.1126
20.1126
20.1126
20.1126
20.1049
20.0766
20.1046
20.0761
20.1149
20.0942
20.1149
20.0937
20.0347
20.1585
20.034
20.1584
20.0229
20.1217
20.0222
20.1217
20.159
20.0365
20.1588
20.0356
20.1223
20.0243
20.122
20.0235
20.078
20.1058
20.0773
20.1053
20.0951
20.1152
20.0946
20.115
20.1129
20.1129
20.1126
20.1126
20.1128
20.1128
20.1126
20.1126
20.1058
20.078
20.1053
20.0773
20.1152
20.0951
20.115
20.0946
20.0365
20.159
20.0356
20.1587
20.0244
20.1222
20.0236
20.1219
20.1598
20.0386
20.1594
20.0375
20.1231
20.0262
20.1227
20.0252
20.0796
20.1068
20.0788
20.1063
20.0963
20.1156
20.0957
20.1154
20.1138
20.1138
20.1133
20.1133
20.1132
20.1132
20.1129
20.1129
20.1068
20.0796
20.1063
20.0788
20.1156
20.0963
20.1154
20.0957
20.0386
20.1597
20.0375
20.1593
20.0262
20.1231
20.0252
20.1226
20.1607
20.0411
20.1602
20.0397
20.1243
20.0283
20.1237
20.0272
20.0815
20.1082
20.0805
20.1075
20.0978
20.1164
20.097
20.116
20.1149
20.1149
20.1143
20.1143
20.1139
20.1139
20.1135
20.1135
20.1082
20.0815
20.1075
20.0806
20.1164
20.0978
20.116
20.097
20.0411
20.1607
20.0398
20.1602
20.0283
20.1242
20.0272
20.1236
20.1619
20.0443
20.1613
20.0425
20.1258
20.0306
20.125
20.0294
20.0837
20.1098
20.0826
20.109
20.0995
20.1174
20.0986
20.1169
20.1163
20.1163
20.1156
20.1156
20.115
20.115
20.1144
20.1144
20.1098
20.0837
20.109
20.0826
20.1174
20.0995
20.1169
20.0986
20.0443
20.1619
20.0426
20.1613
20.0306
20.1258
20.0295
20.125
20.1634
20.0476
20.1626
20.0462
20.1277
20.0333
20.1267
20.0316
20.0862
20.1116
20.0849
20.1107
20.1014
20.1187
20.1004
20.1181
20.118
20.118
20.1171
20.1171
20.1164
20.1164
20.1156
20.1156
20.1116
20.0862
20.1107
20.085
20.1187
20.1014
20.118
20.1004
20.0476
20.1633
20.0462
20.1626
20.0333
20.1277
20.0316
20.1267
20.165
20.0498
20.1641
20.0486
20.1299
20.0373
20.1287
20.0353
20.0888
20.1138
20.0875
20.1127
20.1036
20.1203
20.1025
20.1195
20.12
20.12
20.119
20.119
20.1181
20.1181
20.1172
20.1172
20.1138
20.0888
20.1127
20.0875
20.1203
20.1036
20.1195
20.1025
20.0498
20.1649
20.0486
20.1641
20.0373
20.1298
20.0353
20.1287
20.1666
20.0528
20.1658
20.0512
20.1323
20.0412
20.1311
20.0392
20.0917
20.1162
20.0902
20.115
20.1059
20.1222
20.1047
20.1212
20.1223
20.1223
20.1211
20.1211
20.1202
20.1202
20.1191
20.1191
20.1162
20.0917
20.115
20.0902
20.1222
20.1059
20.1212
20.1047
20.0528
20.1665
20.0512
20.1657
20.0412
20.1323
20.0392
20.131
20.1681
20.0562
20.1674
20.0544
20.1349
20.0453
20.1336
20.0432
20.0947
20.1188
20.0932
20.1175
20.1084
20.1243
20.1071
20.1232
20.1249
20.1249
20.1236
20.1236
20.1227
20.1227
20.1214
20.1214
20.1188
20.0947
20.1175
20.0932
20.1243
20.1084
20.1232
20.1071
20.0562
20.168
20.0544
20.1673
20.0453
20.1349
20.0432
20.1336
20.169
20.0601
20.1686
20.058
20.1374
20.0497
20.1362
20.0474
20.0981
20.1216
20.0964
20.1202
20.1111
20.1266
20.1097
20.1255
20.1277
20.1277
20.1262
20.1262
20.1254
20.1254
20.124
20.124
20.1216
20.0981
20.1202
20.0964
20.1266
20.111
20.1254
20.1097
20.0601
20.1689
20.058
20.1686
20.0497
20.1374
20.0474
20.1362
20.1684
20.0652
20.169
20.0624
20.1393
20.0548
20.1385
20.0521
20.1016
20.1244
20.0998
20.123
20.1138
20.1292
20.1124
20.1279
20.1308
20.1308
20.1292
20.1292
20.1285
20.1285
20.1269
20.1269
20.1244
20.1016
20.123
20.0998
20.1291
20.1138
20.1279
20.1124
20.0652
20.1683
20.0624
20.1689
20.0548
20.1392
20.0521
20.1385
20.1621
20.0752
20.1666
20.0691
20.1372
20.0633
20.1392
20.0582
20.1054
20.1273
20.1035
20.1258
20.1166
20.1319
20.1151
20.1305
20.1343
20.1343
20.1325
20.1325
20.132
20.132
20.1302
20.1302
20.1273
20.1054
20.1258
20.1035
20.1319
20.1166
20.1305
20.1151
20.0752
20.162
20.0691
20.1665
20.0633
20.1372
20.0582
20.1392
20.1719
20.0705
20.157
20.0824
20.1461
20.0613
20.1344
20.0692
20.1064
20.1311
20.1072
20.1291
20.1182
20.1355
20.1181
20.1336
20.1382
20.1382
20.1362
20.1362
20.1359
20.1359
20.1339
20.1339
20.1311
20.1064
20.1291
20.1072
20.1355
20.1182
20.1336
20.1181
20.0705
20.1718
20.0824
20.1569
20.0613
20.1461
20.0692
20.1344
20.2084
20.037
20.1622
20.0578
20.202
20.0379
20.1572
20.0594
20.0778
20.0974
20.0894
20.0998
20.0813
20.0983
20.0915
20.0997
20.1004
20.1004
20.1003
20.1003
20.1002
20.1002
20.0997
20.0997
20.0974
20.0779
20.0998
20.0894
20.0983
20.0813
20.0997
20.0915
20.037
20.2084
20.0578
20.1622
20.0379
20.202
20.0594
20.1572
20.1958
20.0722
20.2026
20.0572
20.1947
20.0666
20.1997
20.054
20.071
20.0886
20.0734
20.0929
20.0737
20.0914
20.0765
20.095
20.0978
20.0978
20.0998
20.0998
20.0991
20.0991
20.1002
20.1002
20.0886
20.071
20.0929
20.0734
20.0914
20.0737
20.095
20.0765
20.0722
20.1958
20.0572
20.2025
20.0666
20.1947
20.054
20.1997
20.1886
20.0875
20.1916
20.0817
20.1888
20.0789
20.1913
20.0744
20.0718
20.0838
20.0709
20.0857
20.0739
20.0874
20.0733
20.089
20.0929
20.0929
20.0953
20.0953
20.0955
20.0955
20.0973
20.0973
20.0838
20.0718
20.0857
20.0709
20.0874
20.0739
20.089
20.0733
20.0875
20.1885
20.0817
20.1916
20.0789
20.1888
20.0744
20.1913
20.1846
20.093
20.1863
20.0911
20.1855
20.0822
20.1869
20.0813
20.0737
20.082
20.0728
20.0827
20.0754
20.0861
20.0747
20.0865
20.089
20.089
20.0907
20.0907
20.0926
20.0926
20.0938
20.0938
20.0821
20.0737
20.0827
20.0728
20.0861
20.0754
20.0865
20.0747
20.093
20.1846
20.0911
20.1863
20.0822
20.1855
20.0813
20.1869
20.1823
20.094
20.1833
20.0938
20.1836
20.0816
20.1845
20.0822
20.0749
20.0817
20.0744
20.0817
20.0762
20.0862
20.0759
20.086
20.0873
20.0873
20.0879
20.0879
20.0916
20.0916
20.0919
20.0919
20.0817
20.0749
20.0817
20.0744
20.0862
20.0762
20.086
20.0759
20.094
20.1822
20.0938
20.1833
20.0816
20.1836
20.0822
20.1844
20.1805
20.0932
20.1813
20.0938
20.1821
20.0795
20.1828
20.0806
20.0752
20.0819
20.0751
20.0817
20.0762
20.0869
20.0763
20.0864
20.0872
20.0872
20.0871
20.0871
20.0921
20.0921
20.0917
20.0917
20.0819
20.0752
20.0817
20.0751
20.0869
20.0762
20.0864
20.0763
20.0932
20.1804
20.0938
20.1813
20.0795
20.1821
20.0806
20.1828
20.1789
20.0917
20.1797
20.0925
20.1809
20.0768
20.1815
20.0782
20.0751
20.0824
20.0752
20.0821
20.0757
20.0878
20.076
20.0873
20.088
20.088
20.0875
20.0875
20.0935
20.0935
20.0927
20.0927
20.0824
20.0751
20.0821
20.0752
20.0878
20.0758
20.0873
20.076
20.0917
20.1789
20.0925
20.1796
20.0768
20.1809
20.0782
20.1815
20.1775
20.0898
20.1782
20.0907
20.1798
20.0741
20.1803
20.0754
20.0746
20.083
20.0749
20.0827
20.075
20.0889
20.0754
20.0884
20.0893
20.0893
20.0886
20.0886
20.0954
20.0954
20.0944
20.0944
20.083
20.0747
20.0827
20.0749
20.0889
20.075
20.0884
20.0754
20.0898
20.1775
20.0907
20.1782
20.0741
20.1797
20.0754
20.1803
20.1763
20.0878
20.1769
20.0888
20.1787
20.0714
20.1792
20.0727
20.0741
20.0837
20.0744
20.0834
20.0742
20.0899
20.0746
20.0894
20.0909
20.0909
20.0901
20.0901
20.0973
20.0973
20.0964
20.0964
20.0837
20.0741
20.0834
20.0744
20.0899
20.0742
20.0894
20.0746
20.0878
20.1762
20.0888
20.1769
20.0714
20.1786
20.0727
20.1792
20.1751
20.0859
20.1757
20.0868
20.1776
20.069
20.1781
20.0702
20.0734
20.0843
20.0738
20.084
20.0733
20.0907
20.0738
20.0903
20.0924
20.0924
20.0916
20.0916
20.0992
20.0992
20.0983
20.0983
20.0843
20.0734
20.084
20.0738
20.0908
20.0734
20.0903
20.0738
20.0859
20.175
20.0868
20.1756
20.069
20.1775
20.0702
20.1781
20.1739
20.0842
20.1745
20.0851
20.1765
20.0668
20.1771
20.0678
20.0727
20.0848
20.0731
20.0846
20.0725
20.0915
20.0729
20.0911
20.0937
20.0937
20.0931
20.0931
20.1009
20.1009
20.1001
20.1001
20.0848
20.0727
20.0846
20.0731
20.0915
20.0725
20.0911
20.0729
20.0842
20.1739
20.0851
20.1745
20.0668
20.1765
20.0679
20.177
20.1729
20.0827
20.1734
20.0834
20.1755
20.0648
20.176
20.0657
20.072
20.0852
20.0724
20.0851
20.0717
20.0921
20.0721
20.0918
20.0948
20.0948
20.0943
20.0943
20.1023
20.1023
20.1016
20.1016
20.0853
20.072
20.0851
20.0724
20.0921
20.0717
20.0918
20.0721
20.0827
20.1728
20.0834
20.1734
20.0648
20.1755
20.0658
20.176
20.1718
20.0812
20.1724
20.0819
20.1745
20.063
20.175
20.0638
20.0714
20.0856
20.0717
20.0854
20.0709
20.0925
20.0713
20.0923
20.0958
20.0958
20.0954
20.0954
20.1034
20.1034
20.1029
20.1029
20.0856
20.0714
20.0854
20.0717
20.0925
20.0709
20.0923
20.0713
20.0812
20.1718
20.0819
20.1723
20.063
20.1744
20.0639
20.175
20.1708
20.0799
20.1713
20.0805
20.1734
20.0614
20.174
20.0622
20.0708
20.0858
20.0711
20.0857
20.0702
20.0928
20.0706
20.0926
20.0966
20.0966
20.0963
20.0963
20.1043
20.1043
20.1039
20.1039
20.0858
20.0708
20.0857
20.0711
20.0928
20.0702
20.0927
20.0706
20.0799
20.1708
20.0805
20.1713
20.0614
20.1734
20.0622
20.1739
20.1699
20.0787
20.1704
20.0793
20.1724
20.06
20.1729
20.0606
20.0702
20.0859
20.0705
20.0858
20.0696
20.093
20.0699
20.0929
20.0972
20.0972
20.0969
20.0969
20.105
20.105
20.1047
20.1047
20.0859
20.0702
20.0859
20.0705
20.093
20.0696
20.0929
20.0699
20.0787
20.1698
20.0793
20.1703
20.06
20.1724