/*--------------------------------*- C++ -*----------------------------------*\
  =========                 |
  \\      /  F ield         | OpenFOAM: The Open Source CFD Toolbox
   \\    /   O peration     | Website:  https://openfoam.org
    \\  /    A nd           | Version:  9
     \\/     M anipulation  |
\*---------------------------------------------------------------------------*/
FoamFile
{
    format      ascii;
    class       volScalarField;
    location    "2.2";
    object      k;
}
// * * * * * * * * * * * * * * * * * * * * * * * * * * * * * * * * * * * * * //

dimensions      [0 2 -2 0 0 0 0];

internalField   nonuniform List<scalar> 
36360
(
0.28457
0.249307
0.0546998
0.087016
0.0435492
0.0493953
0.00578121
0.00919416
0.0953223
0.0246556
0.0145406
0.00413782
0.0145255
0.00438576
0.00395999
0.0033639
0.00613427
0.00613447
0.00306914
0.00306915
0.00305082
0.00305083
0.00346858
0.00346858
0.0246558
0.0953211
0.00413789
0.0145411
0.00438583
0.0145255
0.00336391
0.00396002
0.249303
0.284565
0.0870179
0.0547015
0.049395
0.0435493
0.00919443
0.00578137
0.575567
0.491595
0.452886
0.384202
0.184557
0.154486
0.122068
0.106635
0.289864
0.174231
0.197421
0.0901264
0.0880868
0.0434634
0.0474602
0.01484
0.120754
0.12075
0.0399681
0.0399676
0.0233213
0.0233209
0.0056657
0.00566575
0.174219
0.289843
0.0901224
0.19741
0.0434611
0.0880807
0.0148397
0.0474583
0.491564
0.575531
0.384186
0.452866
0.154475
0.184545
0.106631
0.122065
0.755822
0.661821
0.672667
0.581974
0.270342
0.229916
0.231575
0.19455
0.451699
0.333883
0.3742
0.256624
0.158501
0.115177
0.124817
0.080548
0.281706
0.281696
0.204056
0.204049
0.0956092
0.095606
0.0595743
0.0595726
0.333853
0.451649
0.256603
0.374165
0.115167
0.158483
0.0805417
0.124806
0.661757
0.755749
0.581927
0.672614
0.229891
0.270313
0.194533
0.231556
0.896059
0.799336
0.829518
0.733756
0.334987
0.291614
0.304321
0.262037
0.588498
0.471289
0.522945
0.405374
0.218449
0.176013
0.189613
0.146882
0.419415
0.419397
0.353389
0.353375
0.157394
0.157387
0.127999
0.127994
0.471238
0.588418
0.405333
0.522881
0.175993
0.218417
0.146867
0.189587
0.799237
0.895948
0.733674
0.829426
0.29157
0.334938
0.262002
0.304283
1.01081
0.913388
0.956202
0.858987
0.388326
0.343796
0.362866
0.318802
0.703649
0.587357
0.64861
0.531841
0.269673
0.227453
0.245098
0.202805
0.535715
0.535691
0.480073
0.480052
0.208949
0.208939
0.184275
0.184267
0.587289
0.703543
0.531782
0.648516
0.227424
0.269626
0.20278
0.245059
0.913256
1.01066
0.858871
0.956073
0.343734
0.388257
0.318749
0.362807
1.10458
1.00732
1.06004
0.962627
0.432406
0.387425
0.411425
0.366604
0.799383
0.684186
0.753781
0.638031
0.31281
0.270706
0.292201
0.250041
0.632905
0.632876
0.586556
0.586529
0.25222
0.252208
0.231547
0.231536
0.684102
0.799253
0.637955
0.753663
0.270669
0.312752
0.250008
0.292148
1.00716
1.1044
0.96248
1.05987
0.387348
0.432319
0.366535
0.411347
1.18041
1.08373
1.14449
1.04749
0.468369
0.423325
0.451309
0.406263
0.877853
0.763842
0.840617
0.726019
0.348533
0.306578
0.331541
0.289508
0.713023
0.71299
0.674964
0.674933
0.288133
0.288118
0.27104
0.271027
0.763746
0.877705
0.725929
0.840478
0.306534
0.348463
0.289468
0.331477
1.08354
1.18021
1.04732
1.1443
0.423234
0.468267
0.406179
0.451215
1.24091
1.14497
1.21235
1.11603
0.497279
0.452366
0.483614
0.438619
0.941179
0.828363
0.911248
0.797851
0.3776
0.335842
0.363834
0.321976
0.778041
0.778005
0.747281
0.747246
0.317467
0.31745
0.303564
0.303548
0.828258
0.941017
0.79775
0.911093
0.335792
0.377522
0.321929
0.36376
1.14477
1.24069
1.11584
1.21214
0.452264
0.497165
0.438522
0.483507
1.28837
1.19321
1.26606
1.17051
0.52012
0.475427
0.509371
0.464561
0.991415
0.879747
0.967783
0.855562
0.400821
0.359294
0.389877
0.348236
0.82992
0.829881
0.805493
0.805455
0.341008
0.34099
0.329904
0.329886
0.879634
0.991242
0.855453
0.967615
0.35924
0.400736
0.348184
0.389795
1.193
1.28814
1.1703
1.26583
0.475317
0.519995
0.464454
0.509253
1.32477
1.23038
1.30776
1.21299
0.537782
0.493346
0.529519
0.48495
1.03044
0.919843
1.01219
0.901086
0.418982
0.377704
0.410474
0.369075
0.870489
0.870448
0.851501
0.851462
0.35952
0.3595
0.350839
0.35082
0.919725
1.03026
0.900971
1.01202
0.377646
0.418891
0.369018
0.410386
1.23016
1.32453
1.21277
1.30752
0.493228
0.537649
0.484836
0.529392
1.35182
1.25816
1.33929
1.24527
0.551055
0.506886
0.544895
0.500591
1.05991
0.950311
1.04625
0.936173
0.432807
0.391781
0.426381
0.385233
0.9014
0.901357
0.887047
0.887005
0.373704
0.373684
0.367103
0.367083
0.950189
1.05973
0.936053
1.04606
0.39172
0.432711
0.385174
0.426288
1.25793
1.35157
1.24504
1.33904
0.506762
0.550915
0.50047
0.54476
1.37094
1.27797
1.36221
1.2689
0.5606
0.516688
0.556229
0.512188
1.08128
0.972599
1.07151
0.962384
0.44293
0.402158
0.438282
0.397387
0.924104
0.924061
0.913687
0.913644
0.384194
0.384172
0.379366
0.379345
0.972473
1.08109
0.96226
1.07132
0.402095
0.442831
0.397325
0.438184
1.27773
1.37069
1.26867
1.36196
0.516559
0.560455
0.512062
0.556088
1.3834
1.29107
1.37785
1.28521
0.566997
0.523326
0.56413
0.520338
1.09581
0.987972
1.08931
0.981067
0.449915
0.409395
0.446769
0.406127
0.939867
0.939822
0.932772
0.932728
0.391544
0.391522
0.38822
0.388198
0.987844
1.09562
0.980939
1.08911
0.40933
0.449812
0.406063
0.446668
1.29083
1.38313
1.28497
1.37759
0.523193
0.566848
0.520208
0.563984
1.39019
1.29848
1.38737
1.29535
0.570729
0.527282
0.569141
0.525582
1.10456
0.997509
1.10083
0.9934
0.454243
0.413976
0.452371
0.411981
0.949772
0.949727
0.945483
0.945438
0.396241
0.396218
0.394188
0.394165
0.997379
1.10436
0.993271
1.10063
0.413909
0.454138
0.411915
0.452267
1.29824
1.38992
1.29511
1.3871
0.527146
0.570576
0.525447
0.568992
1.39218
1.30109
1.39166
1.30026
0.572192
0.528964
0.571697
0.528356
1.10841
1.00212
1.10702
1.00037
0.456326
0.416315
0.455529
0.415393
0.954739
0.954693
0.952814
0.952768
0.398697
0.398674
0.397717
0.397693
1.00199
1.10821
1.00024
1.10682
0.416247
0.456219
0.415325
0.455423
1.30085
1.39191
1.30002
1.39139
0.528825
0.572035
0.528218
0.571544
1.39019
1.2997
1.3916
1.30079
0.571823
0.528779
0.572187
0.529042
1.10819
1.0026
1.10874
1.00282
0.456524
0.416748
0.456614
0.41674
0.955547
0.9555
0.955609
0.955562
0.399244
0.39922
0.399186
0.399162
1.00247
1.10798
1.00268
1.10853
0.416678
0.456415
0.416671
0.456506
1.29945
1.38991
1.30054
1.39133
0.528638
0.571664
0.528902
0.572031
1.38452
1.29466
1.38771
1.29754
0.569722
0.526888
0.570945
0.528015
1.10437
0.99957
1.1067
1.00152
0.455115
0.415643
0.456027
0.416411
0.952889
0.952841
0.954655
0.954607
0.39828
0.398255
0.398972
0.398947
0.999432
1.10416
1.00138
1.10649
0.415572
0.455004
0.416341
0.455917
1.2944
1.38424
1.29728
1.38743
0.526744
0.569559
0.527872
0.570785
1.37572
1.28654
1.38042
1.29088
0.566225
0.523597
0.568103
0.525368
1.09759
0.993576
1.10128
0.996884
0.452339
0.413161
0.45386
0.414536
0.947269
0.94722
0.950393
0.950345
0.395933
0.395908
0.397239
0.397215
0.993436
1.09737
0.996746
1.10107
0.413088
0.452225
0.414464
0.453747
1.28629
1.37547
1.29062
1.38013
0.523447
0.566057
0.525222
0.56794
1.36467
1.27626
1.37037
1.28158
0.561679
0.519254
0.564048
0.521521
1.08857
0.985306
1.09331
0.989691
0.448536
0.409646
0.450544
0.411512
0.939351
0.939302
0.943563
0.943515
0.392552
0.392526
0.394352
0.394326
0.985165
1.08835
0.98955
1.09309
0.409571
0.448419
0.411438
0.450427
1.27589
1.36426
1.28126
1.37006
0.5191
0.561505
0.521368
0.563878
1.35178
1.26417
1.35837
1.27034
0.556268
0.514048
0.559045
0.516718
1.07771
0.975169
1.08333
0.980441
0.443877
0.405275
0.446291
0.407549
0.929555
0.929503
0.934661
0.934611
0.388314
0.388287
0.390522
0.390496
0.975021
1.07748
0.980298
1.08311
0.405197
0.443754
0.407472
0.446172
1.26393
1.3515
1.27004
1.358
0.513888
0.556089
0.516563
0.558873
1.33761
1.2508
1.34477
1.25758
0.550205
0.508185
0.553292
0.511174
1.06536
0.963488
1.0717
0.969503
0.438522
0.400197
0.441272
0.40281
0.918198
0.918145
0.924052
0.924
0.383367
0.38334
0.385915
0.385887
0.963332
1.06511
0.96935
1.07146
0.400117
0.438394
0.40273
0.441145
1.25047
1.33726
1.25732
1.34451
0.508015
0.550013
0.511006
0.553107
1.32179
1.23586
1.32981
1.2434
0.543452
0.501636
0.546881
0.504954
1.0516
0.950449
1.05862
0.957117
0.432527
0.394502
0.435584
0.397412
0.905498
0.905447
0.911999
0.911946
0.377812
0.377785
0.380652
0.380625
0.9503
1.05137
0.956964
1.05837
0.394426
0.432406
0.397333
0.435458
1.23556
1.32145
1.24308
1.32946
0.501477
0.543271
0.504788
0.546694
1.30494
1.21998
1.31343
1.22799
0.536176
0.494574
0.539856
0.498146
1.03672
0.936254
1.04429
0.943485
0.426018
0.388285
0.429326
0.391449
0.891636
0.891587
0.8987
0.898651
0.371731
0.371706
0.374826
0.374801
0.936113
1.0365
0.943341
1.04406
0.388213
0.425904
0.391374
0.429209
1.21967
1.30461
1.22769
1.31309
0.494425
0.536008
0.497993
0.539684
1.28684
1.20287
1.29596
1.21147
0.52833
0.486948
0.532293
0.490792
1.02074
0.921001
1.02884
0.928744
0.41901
0.38159
0.422559
0.384986
0.876729
0.876683
0.884301
0.884254
0.36518
0.365156
0.368504
0.36848
0.920866
1.02054
0.928607
1.02862
0.381521
0.418901
0.384915
0.422448
1.20264
1.28656
1.21117
1.29561
0.486808
0.528172
0.490648
0.532131
1.26783
1.18501
1.27729
1.1939
0.520095
0.478954
0.524222
0.482958
1.0039
0.90483
1.01241
0.913021
0.411598
0.374475
0.415342
0.378077
0.860887
0.86084
0.868918
0.868871
0.358204
0.358181
0.361737
0.361713
0.904695
1.00369
0.912887
1.0122
0.374408
0.411491
0.378008
0.415235
1.18475
1.26756
1.19367
1.27704
0.478815
0.519939
0.48282
0.524068
1.24799
1.16627
1.25799
1.1757
0.511448
0.470531
0.515811
0.474778
0.986163
0.887755
0.995137
0.896402
0.403774
0.366952
0.40773
0.370758
0.844141
0.844095
0.852623
0.852577
0.350821
0.350798
0.354557
0.354534
0.887621
0.985948
0.896266
0.99492
0.366885
0.403668
0.370691
0.407623
1.16599
1.24768
1.17543
1.2577
0.470391
0.511291
0.474637
0.515656
1.22689
1.14641
1.23753
1.15641
0.502285
0.461603
0.506911
0.466105
0.967439
0.869748
0.976915
0.878866
0.395514
0.359012
0.399691
0.363028
0.826481
0.826437
0.835424
0.835379
0.343029
0.343007
0.346971
0.346948
0.869621
0.967243
0.878735
0.976709
0.358948
0.395413
0.362963
0.399587
1.14617
1.22662
1.15615
1.23724
0.461473
0.502138
0.46597
0.506759
1.20457
1.12542
1.21581
1.13598
0.492606
0.452179
0.497488
0.456928
0.947693
0.850774
0.95768
0.860378
0.386805
0.350645
0.391207
0.354877
0.807878
0.807835
0.817295
0.817252
0.334818
0.334796
0.338971
0.338949
0.850653
0.94751
0.860255
0.957492
0.350582
0.386707
0.354813
0.391108
1.12521
1.20433
1.13575
1.21556
0.452055
0.492466
0.456802
0.497347
1.18113
1.1034
1.19292
1.11447
0.482436
0.442276
0.487561
0.447263
0.926945
0.830826
0.937431
0.840918
0.377647
0.341843
0.382274
0.346293
0.788314
0.788273
0.798214
0.798172
0.326178
0.326157
0.330547
0.330525
0.830708
0.926767
0.840798
0.93725
0.341782
0.377552
0.346231
0.382178
1.10319
1.18089
1.11426
1.19268
0.442155
0.482301
0.447141
0.487425
1.15663
1.08037
1.16894
1.09194
0.471792
0.431904
0.477154
0.437127
0.905201
0.80989
0.916186
0.820479
0.368041
0.332599
0.372893
0.337272
0.767768
0.767728
0.778163
0.778123
0.317099
0.317078
0.321689
0.321668
0.809774
0.905028
0.820362
0.91601
0.33254
0.367949
0.337211
0.372799
1.08017
1.1564
1.09174
1.16871
0.431787
0.471661
0.437007
0.477021
1.13109
1.05633
1.14392
1.06841
0.460672
0.421053
0.466274
0.426518
0.882436
0.787926
0.893938
0.799037
0.357971
0.322894
0.363058
0.327801
0.746193
0.746153
0.757111
0.757071
0.30756
0.30754
0.312384
0.312363
0.787814
0.882266
0.798923
0.893766
0.322836
0.357882
0.327742
0.362967
1.05613
1.13087
1.06821
1.1437
0.42094
0.460545
0.426403
0.466146
1.10447
1.03123
1.11785
1.04385
0.449055
0.409702
0.45491
0.41542
0.858581
0.764857
0.870639
0.776533
0.347409
0.312694
0.352747
0.317854
0.723506
0.723467
0.734992
0.734953
0.297524
0.297505
0.302602
0.302582
0.764748
0.858416
0.776422
0.870472
0.312638
0.347322
0.317797
0.352659
1.03104
1.10426
1.04366
1.11764
0.409592
0.448932
0.415309
0.454786
1.07671
1.00496
1.09068
1.01819
0.436902
0.397826
0.443032
0.403814
0.83352
0.740555
0.846201
0.752868
0.336306
0.301946
0.341923
0.307389
0.699573
0.699536
0.711703
0.711665
0.286937
0.286919
0.292299
0.29228
0.740449
0.833361
0.75276
0.846039
0.301893
0.336223
0.307334
0.341838
1.00478
1.0765
1.018
1.09047
0.397721
0.436784
0.403706
0.442913
1.04761
0.977347
1.06228
0.991276
0.424127
0.385336
0.430583
0.391645
0.807056
0.714816
0.82047
0.727878
0.324581
0.290568
0.330522
0.296338
0.67419
0.674154
0.687076
0.68704
0.275717
0.275699
0.281409
0.28139
0.714713
0.806903
0.727774
0.820313
0.290516
0.324502
0.296285
0.330441
0.977168
1.04742
0.991093
1.06208
0.385235
0.424015
0.391542
0.430468
1.01687
0.948061
1.03242
0.962878
0.410585
0.372101
0.417449
0.378803
0.778867
0.687325
0.793194
0.701311
0.312107
0.278435
0.318442
0.284601
0.647049
0.647015
0.660861
0.660826
0.263743
0.263726
0.269829
0.269812
0.687227
0.778721
0.701211
0.793044
0.278385
0.312031
0.284551
0.318364
0.94789
1.01668
0.962702
1.03223
0.372006
0.410479
0.378705
0.41734
0.983852
0.916521
1.00064
0.932563
0.396012
0.35792
0.403435
0.365128
0.748411
0.657589
0.76396
0.672774
0.298681
0.265362
0.305524
0.272027
0.617695
0.617662
0.632681
0.632647
0.250843
0.250827
0.257417
0.257401
0.657496
0.748272
0.672679
0.763817
0.265316
0.298609
0.271979
0.30545
0.916359
0.983674
0.932396
1.00046
0.35783
0.395912
0.365035
0.403333
0.947316
0.881525
0.966081
0.899514
0.379914
0.342427
0.388183
0.350354
0.714648
0.624805
0.732032
0.64164
0.283944
0.251066
0.291504
0.258386
0.585488
0.585458
0.60199
0.601958
0.23679
0.236776
0.243972
0.243957
0.624718
0.714519
0.64155
0.731898
0.251023
0.283878
0.258341
0.291435
0.881375
0.947152
0.899357
0.96591
0.342343
0.379821
0.350268
0.388087
0.904905
0.839763
0.92697
0.86183
0.361412
0.324692
0.371017
0.33394
0.675192
0.587712
0.69587
0.606886
0.267116
0.23513
0.275866
0.243328
0.549788
0.54976
0.568092
0.568063
0.221379
0.221366
0.229255
0.229241
0.587633
0.675074
0.606803
0.695746
0.235091
0.267056
0.243287
0.275803
0.839627
0.904757
0.861686
0.926813
0.324617
0.361328
0.33386
0.370929
0.854188
0.776267
0.880718
0.813011
0.338338
0.299261
0.350832
0.313808
0.624485
0.545372
0.6517
0.567134
0.246346
0.217295
0.257381
0.226421
0.511094
0.511069
0.530663
0.530637
0.20485
0.204838
0.213193
0.21318
0.545303
0.624383
0.56706
0.65159
0.217261
0.246293
0.226385
0.257325
0.77615
0.854059
0.812884
0.880578
0.299195
0.338264
0.313737
0.350754
0.499102
0.418171
0.223224
0.200744
0.410185
0.345012
0.145222
0.143013
0.213521
0.0894149
0.0557448
0.0113963
0.158995
0.0544468
0.0305735
0.00633152
0.038309
0.0383092
0.00473071
0.00473084
0.017605
0.0176052
0.00355753
0.00355758
0.0894121
0.213509
0.0113968
0.055745
0.0544455
0.158989
0.00633163
0.0305737
0.418151
0.499076
0.20074
0.223218
0.345001
0.410171
0.143014
0.145226
0.875636
0.753019
0.708599
0.599868
0.7556
0.645288
0.605536
0.510139
0.506156
0.354178
0.365573
0.220417
0.41232
0.27189
0.291677
0.158885
0.282319
0.282309
0.148401
0.148396
0.205964
0.205957
0.0920556
0.0920532
0.354147
0.506105
0.2204
0.365543
0.271868
0.412284
0.158875
0.291657
0.752954
0.875561
0.599826
0.70855
0.645241
0.755546
0.510111
0.605503
1.13867
1.006
1.01594
0.886601
0.985105
0.864046
0.878554
0.761129
0.753611
0.59911
0.635142
0.481006
0.623246
0.479973
0.52229
0.379519
0.526977
0.526956
0.408936
0.40892
0.414375
0.414359
0.3138
0.313789
0.599049
0.753517
0.48096
0.635069
0.479926
0.623173
0.379485
0.522236
1.00588
1.13854
0.886512
1.01584
0.863955
0.985004
0.76106
0.878477
1.34536
1.21077
1.24755
1.11341
1.1646
1.0408
1.07955
0.956651
0.961499
0.80849
0.862137
0.708166
0.800996
0.65855
0.715912
0.572896
0.736754
0.736723
0.636161
0.636135
0.59324
0.593216
0.507427
0.507407
0.808402
0.961365
0.708091
0.862023
0.658479
0.800887
0.572838
0.71582
1.21061
1.34519
1.11328
1.2474
1.04067
1.16445
0.956538
1.07942
1.51196
1.37818
1.433
1.29864
1.31015
1.1862
1.24105
1.117
1.13442
0.984104
1.05204
0.900314
0.94977
0.80903
0.878779
0.737133
0.913255
0.913217
0.828978
0.828943
0.744226
0.744194
0.672049
0.672021
0.983995
1.13425
0.900214
1.05189
0.808938
0.949629
0.737052
0.878653
1.37798
1.51175
1.29846
1.43281
1.18604
1.30996
1.11685
1.24088
1.64603
1.51408
1.58256
1.44964
1.42806
1.305
1.37214
1.24858
1.27635
1.12913
1.20896
1.06019
1.07264
0.933961
1.01421
0.874494
1.05944
1.05939
0.989907
0.989865
0.86987
0.869833
0.81003
0.809995
1.12901
1.27616
1.06008
1.20878
0.933853
1.07247
0.874393
1.01406
1.51386
1.6458
1.44943
1.58233
1.30481
1.42784
1.2484
1.37194
1.75308
1.62326
1.70251
1.57163
1.52276
1.40099
1.47796
1.35554
1.39133
1.24723
1.33692
1.1913
1.17273
1.03621
1.12531
0.987723
1.17879
1.17874
1.12223
1.12219
0.972939
0.972897
0.924039
0.923999
1.24709
1.39113
1.19117
1.33673
1.03609
1.17255
0.987608
1.12513
1.62303
1.75283
1.5714
1.70227
1.40078
1.52253
1.35533
1.47774
1.83754
1.70984
1.79775
1.66903
1.59787
1.47749
1.56244
1.44138
1.4832
1.34202
1.43989
1.2973
1.25308
1.11864
1.21516
1.07971
1.27481
1.27476
1.22948
1.22943
1.05622
1.05617
1.01686
1.01682
1.34188
1.48299
1.29716
1.43968
1.11851
1.25289
1.07958
1.21497
1.7096
1.83728
1.66879
1.79749
1.47726
1.59762
1.44116
1.5622
1.90309
1.77739
1.87233
1.74568
1.65645
1.53743
1.62893
1.50925
1.55543
1.41691
1.52153
1.38174
1.31652
1.18402
1.28672
1.15328
1.35085
1.3508
1.31512
1.31507
1.12241
1.12237
1.09128
1.09123
1.41676
1.55522
1.38159
1.52132
1.18389
1.31632
1.15315
1.28652
1.77714
1.90283
1.74543
1.87207
1.53719
1.65619
1.50901
1.62867
1.95279
1.8289
1.92962
1.80486
1.7011
1.58335
1.68026
1.5619
1.61106
1.47491
1.58512
1.44784
1.36558
1.23484
1.34267
1.21109
1.40991
1.40985
1.38232
1.38227
1.174
1.17395
1.14988
1.14983
1.47477
1.61084
1.44769
1.5849
1.2347
1.36537
1.21096
1.34246
1.82866
1.95253
1.80462
1.92936
1.5831
1.70083
1.56165
1.67999
1.98921
1.86695
1.97239
1.84935
1.73402
1.61745
1.71879
1.60165
1.6527
1.51865
1.63345
1.49841
1.40245
1.27331
1.38538
1.25548
1.45459
1.45454
1.43389
1.43384
1.21316
1.21311
1.195
1.19495
1.51851
1.65248
1.49826
1.63323
1.27316
1.40223
1.25534
1.38516
1.86671
1.98895
1.84911
1.97212
1.61719
1.73374
1.6014
1.71851
2.01444
1.89365
2.00298
1.88149
1.75703
1.64154
1.74655
1.63054
1.68255
1.55037
1.66894
1.53588
1.42902
1.30132
1.41689
1.2885
1.48716
1.48711
1.47226
1.47221
1.24182
1.24177
1.22869
1.22864
1.55022
1.68233
1.53573
1.66872
1.30117
1.4288
1.28836
1.41667
1.89341
2.01419
1.88125
2.00272
1.64129
1.75675
1.63029
1.74627
2.03031
1.91086
2.02331
1.90323
1.77172
1.65725
1.7652
1.65025
1.7025
1.57198
1.69363
1.56232
1.44692
1.32052
1.43893
1.31192
1.50954
1.50948
1.49951
1.49946
1.26161
1.26156
1.25272
1.25267
1.57184
1.70229
1.56217
1.69341
1.32037
1.4467
1.31177
1.43871
1.91062
2.03006
1.90298
2.02305
1.65699
1.77144
1.65
1.76493
2.03825
1.92003
2.03506
1.91625
1.77937
1.66585
1.77624
1.66226
1.71413
1.5851
1.70924
1.57951
1.45752
1.3323
1.45303
1.32725
1.52334
1.52329
1.51742
1.51736
1.27394
1.27388
1.26862
1.26857
1.58495
1.71391
1.57936
1.70903
1.33215
1.45729
1.3271
1.45281
1.91979
2.038
1.91601
2.03481
1.66559
1.77909
1.662
1.77596
2.0395
1.92243
2.03951
1.92189
1.78105
1.66845
1.78077
1.66774
1.71874
1.59105
1.71721
1.58889
1.46194
1.33783
1.46041
1.33577
1.52993
1.52988
1.52746
1.5274
1.27997
1.27992
1.27767
1.27761
1.5909
1.71852
1.58874
1.71699
1.33767
1.46172
1.33562
1.46018
1.92219
2.03925
1.92165
2.03926
1.66819
1.78076
1.66748
1.78049
2.03508
1.91911
2.03788
1.92136
1.77769
1.666
1.7799
1.66774
1.71745
1.59101
1.71874
1.5917
1.4612
1.3381
1.46213
1.33855
1.53047
1.53041
1.53088
1.53083
1.28072
1.28067
1.28094
1.28088
1.59085
1.71723
1.59155
1.71853
1.33795
1.46097
1.3384
1.46191
1.91887
2.03483
1.92113
2.03763
1.66574
1.77741
1.66748
1.77961
2.0254
1.91051
2.03078
1.91537
1.76966
1.65888
1.77416
1.66293
1.7109
1.58576
1.71477
1.58899
1.45585
1.33386
1.45905
1.33652
1.52585
1.52579
1.52877
1.52872
1.277
1.27695
1.2794
1.27935
1.58561
1.71068
1.58884
1.71455
1.33371
1.45562
1.33636
1.45882
1.91027
2.02515
1.91513
2.03053
1.65858
1.76936
1.66267
1.7739
2.01091
1.8974
2.01846
1.90422
1.75757
1.64791
1.7639
1.65366
1.70006
1.57624
1.7059
1.58146
1.44675
1.32588
1.45167
1.33027
1.51694
1.51689
1.52186
1.52181
1.26954
1.26949
1.27368
1.27362
1.57609
1.69984
1.58131
1.70568
1.32572
1.44652
1.33011
1.45143
1.89716
2.01067
1.90398
2.01821
1.64757
1.75721
1.65334
1.76356
1.99436
1.88194
2.00281
1.88992
1.74335
1.63468
1.75061
1.64149
1.68617
1.56344
1.69346
1.57021
1.43496
1.31503
1.44115
1.32077
1.50468
1.50462
1.51118
1.51113
1.25916
1.2591
1.26467
1.26462
1.56329
1.68596
1.57006
1.69324
1.31488
1.43474
1.32062
1.44092
1.88172
1.99412
1.88969
2.00255
1.6344
1.74303
1.64118
1.75025
1.97474
1.86356
1.98476
1.87291
1.72648
1.6189
1.73509
1.62691
1.66959
1.54792
1.67815
1.55598
1.4208
1.30181
1.42812
1.30868
1.48967
1.48961
1.49748
1.49743
1.24638
1.24633
1.25304
1.25298
1.54777
1.66936
1.55583
1.67793
1.30165
1.42055
1.30853
1.42789
1.8633
1.97448
1.87268
1.98452
1.6186
1.72619
1.62667
1.73482
1.95365
1.84354
1.96431
1.85373
1.70826
1.60168
1.71748
1.61045
1.65089
1.53016
1.66049
1.53931
1.40478
1.28664
1.41301
1.29445
1.47238
1.47232
1.48129
1.48123
1.23162
1.23156
1.23923
1.23917
1.53
1.65064
1.53915
1.66025
1.28646
1.40449
1.29428
1.41273
1.84326
1.95334
1.85346
1.964
1.60123
1.70773
1.61003
1.71704
1.92986
1.82107
1.94189
1.83238
1.68777
1.58236
1.69813
1.5921
1.63013
1.51042
1.6407
1.52051
1.38696
1.26973
1.39604
1.27837
1.45312
1.45306
1.46298
1.46292
1.21515
1.21509
1.22358
1.22352
1.51026
1.6299
1.52035
1.64047
1.26956
1.38671
1.2782
1.39577
1.82082
1.9296
1.83211
1.9416
1.58211
1.68746
1.59172
1.69765
1.90504
1.79742
1.91754
1.80941
1.66616
1.56187
1.67703
1.57222
1.60777
1.48898
1.61915
1.49991
1.36773
1.25135
1.37751
1.26071
1.43215
1.43209
1.44284
1.44278
1.1972
1.19714
1.20635
1.20629
1.48883
1.60755
1.49975
1.61893
1.25119
1.3675
1.26055
1.37727
1.79719
1.90479
1.80916
1.91729
1.56156
1.66584
1.57197
1.67678
1.87781
1.7717
1.8915
1.78458
1.64257
1.53964
1.65442
1.55076
1.58377
1.46599
1.59592
1.47766
1.34709
1.23162
1.35754
1.24164
1.40964
1.40959
1.42108
1.42102
1.17791
1.17785
1.18771
1.18765
1.46584
1.58355
1.47751
1.5957
1.23147
1.34685
1.24148
1.3573
1.77146
1.87758
1.78434
1.89126
1.53939
1.6423
1.55047
1.65408
1.84995
1.74516
1.86395
1.75856
1.61838
1.51672
1.6305
1.52827
1.5585
1.44163
1.5713
1.45398
1.32535
1.21072
1.33635
1.22131
1.38574
1.38569
1.39786
1.39781
1.15742
1.15737
1.16781
1.16775
1.44148
1.55828
1.45383
1.57109
1.21057
1.3251
1.22116
1.33611
1.74492
1.8497
1.75832
1.86371
1.51637
1.61801
1.52799
1.63023
1.82017
1.71697
1.83506
1.73104
1.5926
1.49241
1.60549
1.50454
1.53186
1.41593
1.54531
1.42894
1.30243
1.18866
1.31401
1.19983
1.3605
1.36045
1.37329
1.37323
1.13578
1.13573
1.14674
1.14669
1.41578
1.53164
1.42879
1.54509
1.1885
1.30218
1.19967
1.31375
1.71673
1.81991
1.73079
1.8348
1.49209
1.59223
1.50417
1.60506
1.78958
1.68785
1.80496
1.70252
1.56589
1.46713
1.57933
1.47987
1.50395
1.38889
1.51807
1.40259
1.27837
1.16543
1.29055
1.1772
1.3339
1.33385
1.34738
1.34732
1.11297
1.11292
1.12452
1.12447
1.38875
1.50375
1.40244
1.51787
1.16528
1.27815
1.17704
1.29031
1.68764
1.78936
1.70229
1.80471
1.46686
1.56559
1.47957
1.579
1.75705
1.65692
1.77345
1.67251
1.53747
1.44028
1.55179
1.4538
1.47449
1.3604
1.48941
1.37483
1.25296
1.14095
1.26582
1.15334
1.30589
1.30584
1.32008
1.32003
1.08894
1.08889
1.1011
1.10106
1.36026
1.47431
1.37469
1.48921
1.14081
1.25276
1.1532
1.26561
1.65672
1.75684
1.6723
1.77324
1.44005
1.53723
1.45356
1.55152
1.72279
1.6244
1.74001
1.64076
1.50758
1.41207
1.5226
1.42625
1.44351
1.33042
1.45918
1.34559
1.22625
1.1152
1.23975
1.12823
1.27641
1.27636
1.29133
1.29129
1.06366
1.06361
1.07645
1.0764
1.33029
1.44333
1.34546
1.45899
1.11506
1.22606
1.12809
1.23955
1.62421
1.7226
1.64056
1.73981
1.41185
1.50735
1.42603
1.52236
1.68702
1.5904
1.70499
1.60749
1.47637
1.38258
1.49205
1.3974
1.41104
1.29895
1.42745
1.31487
1.19826
1.08817
1.2124
1.10184
1.24543
1.24539
1.26111
1.26107
1.0371
1.03705
1.05054
1.05049
1.29882
1.41086
1.31474
1.42727
1.08803
1.19807
1.10171
1.21221
1.59022
1.68683
1.6073
1.7048
1.38237
1.47614
1.39718
1.49181
1.64977
1.55493
1.66849
1.57277
1.44385
1.35182
1.46018
1.36728
1.37704
1.26591
1.39423
1.28263
1.16895
1.0598
1.18376
1.07415
1.21288
1.21284
1.22936
1.22932
1.0092
1.00916
1.02332
1.02328
1.26578
1.37686
1.2825
1.39405
1.05967
1.16876
1.07402
1.18357
1.55475
1.64959
1.57258
1.6683
1.35161
1.44363
1.36707
1.45995
1.611
1.51791
1.63049
1.53654
1.40998
1.31971
1.427
1.33586
1.34139
1.23118
1.35942
1.24876
1.13823
1.02999
1.15376
1.04508
1.17861
1.17857
1.19597
1.19593
0.979844
0.979799
0.994712
0.994667
1.23105
1.34121
1.24864
1.35924
1.02986
1.13805
1.04495
1.15358
1.51773
1.61082
1.53636
1.6303
1.31951
1.40977
1.33565
1.42678
1.57056
1.47919
1.59091
1.4987
1.37468
1.28612
1.39243
1.30303
1.3039
1.19453
1.32288
1.21311
1.10593
0.99855
1.12228
1.01448
1.1424
1.14235
1.16077
1.16072
0.948839
0.948796
0.96456
0.964516
1.19441
1.30373
1.21299
1.32271
0.998429
1.10576
1.01436
1.1221
1.47902
1.57038
1.49852
1.59072
1.28592
1.37447
1.30283
1.39222
1.52817
1.43845
1.54954
1.45902
1.3377
1.25079
1.35633
1.26861
1.26423
1.15562
1.28435
1.17538
1.07179
0.965204
1.0891
0.982135
1.10388
1.10384
1.12345
1.12341
0.9159
0.915858
0.932632
0.932589
1.1555
1.26407
1.17526
1.28419
0.965086
1.07162
0.982015
1.08893
1.43829
1.528
1.45885
1.54936
1.25061
1.3375
1.26842
1.35613
1.48337
1.39519
1.50603
1.4171
1.29864
1.21332
1.31838
1.23228
1.22186
1.11392
1.24342
1.13516
1.03536
0.929505
1.05389
0.947681
1.06255
1.06251
1.08361
1.08357
0.880594
0.880553
0.898575
0.898534
1.1138
1.2217
1.13504
1.24326
0.929392
1.03519
0.947565
1.05372
1.39503
1.48321
1.41693
1.50586
1.21314
1.29844
1.2321
1.31818
1.43524
1.34849
1.45971
1.37227
1.25668
1.17289
1.27801
1.19346
1.17589
1.0686
1.19939
1.09177
0.995866
0.890762
1.01605
0.910567
1.01764
1.0176
1.0406
1.04056
0.84228
0.842241
0.861858
0.861819
1.06849
1.17573
1.09166
1.19923
0.890654
0.995709
0.910456
1.01589
1.34833
1.43508
1.37211
1.45955
1.17271
1.2565
1.19329
1.27782
1.38199
1.2965
1.40933
1.32325
1.21024
1.12787
1.23409
1.15104
1.12468
1.01842
1.15107
1.04421
0.951888
0.847882
0.974559
0.869923
0.968141
0.968103
0.993524
0.993485
0.800093
0.800057
0.821726
0.821688
1.01832
1.12454
1.04411
1.15093
0.84778
0.951742
0.869818
0.974408
1.29636
1.38184
1.3231
1.40917
1.12771
1.21007
1.15087
1.23391
1.32046
1.23469
1.35241
1.26726
1.15615
1.07394
1.18433
1.10244
1.065
0.96169
1.09619
0.990974
0.900365
0.799285
0.927357
0.824398
0.913234
0.9132
0.941372
0.941336
0.753247
0.753215
0.777266
0.777231
0.961597
1.06487
0.990876
1.09606
0.799193
0.900233
0.824301
0.927218
1.23457
1.32033
1.26712
1.35227
1.07379
1.156
1.10229
1.18416
1.24786
1.14552
1.28562
1.19608
1.09054
0.99363
1.12502
1.03963
0.990795
0.897882
1.03011
0.9305
0.835177
0.744217
0.869914
0.772428
0.854085
0.854056
0.883935
0.883903
0.702631
0.702602
0.728193
0.728162
0.897801
0.990686
0.930413
1.02999
0.744136
0.835063
0.772342
0.86979
1.14542
1.24777
1.19596
1.2855
0.993509
1.09042
1.0395
1.12488
0.617451
0.520564
0.327295
0.285184
0.565615
0.474921
0.282141
0.247195
0.29589
0.155912
0.111339
0.0286245
0.25809
0.123894
0.0852032
0.0193421
0.0871748
0.0871723
0.0097708
0.00977102
0.0622041
0.0622028
0.00670189
0.00670201
0.155899
0.295861
0.0286235
0.11133
0.123886
0.25807
0.0193418
0.0851987
0.520522
0.617399
0.285164
0.327268
0.47489
0.565577
0.247183
0.282126
1.03472
0.901518
0.84539
0.72401
0.964527
0.835295
0.785133
0.668642
0.644422
0.484005
0.475724
0.320511
0.581734
0.424139
0.425581
0.273838
0.407996
0.407978
0.246304
0.246293
0.349474
0.34946
0.200075
0.200068
0.483952
0.64434
0.320478
0.475669
0.424097
0.581668
0.273813
0.425539
0.901416
1.0346
0.723939
0.845308
0.835211
0.964433
0.668586
0.785069
1.34369
1.20272
1.19849
1.05985
1.25307
1.11493
1.11788
0.982583
0.944695
0.783266
0.800699
0.638927
0.858274
0.69889
0.725776
0.566425
0.706616
0.706585
0.56232
0.562295
0.623669
0.623643
0.491298
0.491278
0.783178
0.944561
0.638856
0.80059
0.698815
0.85816
0.566367
0.725685
1.20256
1.34351
1.05972
1.19835
1.1148
1.25292
0.982473
1.11776
1.58905
1.44803
1.473
1.33151
1.48109
1.34199
1.37324
1.23411
1.1968
1.03852
1.07649
0.916386
1.09039
0.933325
0.97956
0.82109
0.962812
0.962771
0.840078
0.840042
0.858741
0.858705
0.746083
0.746052
1.03841
1.19663
0.916283
1.07634
0.933222
1.09024
0.821001
0.979424
1.44783
1.58883
1.33133
1.4728
1.34181
1.48089
1.23395
1.37306
1.78581
1.64737
1.69274
1.55285
1.66425
1.52689
1.57755
1.43914
1.40495
1.2512
1.30601
1.14993
1.28261
1.12919
1.19116
1.03584
1.17717
1.17712
1.07501
1.07496
1.0559
1.05586
0.961856
0.961816
1.25106
1.40476
1.1498
1.30582
1.12907
1.28242
1.03573
1.19099
1.64714
1.78557
1.55263
1.6925
1.52668
1.66402
1.43894
1.57733
1.94297
1.80795
1.86872
1.73196
1.81096
1.6763
1.74159
1.60554
1.5744
1.42547
1.49412
1.3428
1.43962
1.29023
1.36516
1.21377
1.35342
1.35336
1.26975
1.2697
1.21853
1.21848
1.14126
1.14121
1.42532
1.57419
1.34266
1.49391
1.29009
1.43941
1.21364
1.36497
1.80771
1.94272
1.73173
1.86847
1.67607
1.81071
1.60532
1.74134
2.06756
1.93603
2.00882
1.87558
1.9276
1.79582
1.87256
1.73936
1.71065
1.56634
1.64631
1.49975
1.56627
1.42082
1.50641
1.35904
1.49628
1.49622
1.4287
1.42865
1.35076
1.35071
1.28817
1.28812
1.56619
1.71044
1.4996
1.64609
1.42067
1.56606
1.35889
1.5062
1.93579
2.06731
1.87534
2.00857
1.79558
1.92734
1.73913
1.87231
2.16522
2.03695
2.1193
1.98945
2.01926
1.89025
1.97612
1.84578
1.8188
1.67868
1.7679
1.62576
1.66708
1.52526
1.6196
1.47603
1.61048
1.61043
1.55666
1.55661
1.45678
1.45673
1.40678
1.40673
1.67853
1.81859
1.62561
1.76769
1.52511
1.66686
1.47588
1.61938
2.03672
2.16498
1.98922
2.11905
1.89001
2.01901
1.84553
1.97587
2.24057
2.11522
2.20528
2.07853
2.09015
1.96366
2.05692
1.92922
1.90334
1.76693
1.86372
1.72555
1.74607
1.6075
1.70903
1.56891
1.70041
1.70036
1.65822
1.65816
1.54047
1.54041
1.50117
1.50112
1.76679
1.90313
1.7254
1.86352
1.60735
1.74586
1.56876
1.70882
2.115
2.24034
2.07831
2.20504
1.96342
2.0899
1.92898
2.05667
2.29736
2.17458
2.27094
2.14694
2.14371
2.01946
2.11877
1.99345
1.96809
1.83493
1.93794
1.80323
1.80672
1.67101