/*--------------------------------*- C++ -*----------------------------------*\
  =========                 |
  \\      /  F ield         | OpenFOAM: The Open Source CFD Toolbox
   \\    /   O peration     | Website:  https://openfoam.org
    \\  /    A nd           | Version:  9
     \\/     M anipulation  |
\*---------------------------------------------------------------------------*/
FoamFile
{
    format      ascii;
    class       volVectorField;
    location    "2.2";
    object      U;
}
// * * * * * * * * * * * * * * * * * * * * * * * * * * * * * * * * * * * * * //

dimensions      [0 1 -1 0 0 0 0];

internalField   nonuniform List<vector> 
36360
(
(0.0111891 -0.278124 -0.971999)
(-0.0119531 -0.171072 0.00101196)
(0.00546731 -0.29319 -0.995914)
(-0.0112277 -0.141959 0.00032915)
(0.0136071 -0.325018 -0.993003)
(0.00457234 -0.130154 -0.000145647)
(0.00491415 -0.333451 -1.00283)
(0.0149655 -0.132672 1.90596e-05)
(0.00392486 -0.183765 -0.000744482)
(-0.0029691 -0.193234 -4.52686e-05)
(-0.000831031 -0.178579 -0.000360234)
(-0.0066444 -0.190754 -1.96654e-05)
(0.0185607 -0.192362 0.000121092)
(0.0112455 -0.213792 1.11071e-06)
(0.0182447 -0.205737 -2.20158e-05)
(0.0137625 -0.217734 -3.45228e-05)
(-0.00724557 -0.198364 -2.32431e-07)
(-0.0072456 -0.198364 2.38634e-07)
(-0.00749437 -0.195449 3.64134e-07)
(-0.00749439 -0.19545 -3.63285e-07)
(0.0101637 -0.21588 -1.7085e-06)
(0.0101636 -0.215881 1.71729e-06)
(0.0133955 -0.21857 -5.28094e-06)
(0.0133955 -0.21857 5.28249e-06)
(-0.00296928 -0.193236 4.52834e-05)
(0.00392464 -0.183767 0.000744498)
(-0.00664443 -0.190756 1.96694e-05)
(-0.000831139 -0.178581 0.000360256)
(0.0112452 -0.213795 -1.09245e-06)
(0.0185601 -0.192366 -0.000121058)
(0.0137624 -0.217736 3.45264e-05)
(0.0182445 -0.205741 2.20258e-05)
(-0.0119522 -0.171072 -0.00101199)
(0.0111895 -0.278115 0.972)
(-0.0112273 -0.14196 -0.00032917)
(0.00546955 -0.29318 0.995914)
(0.00457204 -0.130157 0.00014557)
(0.0136071 -0.325005 0.993004)
(0.0149643 -0.132673 -1.90716e-05)
(0.00491429 -0.33344 1.00283)
(0.021983 -0.256483 -0.95196)
(-0.0208792 -0.19099 0.000908538)
(0.0177284 -0.263972 -0.962138)
(-0.0171417 -0.182745 0.0011449)
(0.0190071 -0.294639 -0.991947)
(-0.0176816 -0.146405 -0.000999296)
(0.016809 -0.308546 -0.994441)
(-0.008666 -0.136462 -0.000486582)
(0.00327748 -0.19097 -0.000436485)
(0.00481606 -0.197544 -2.83889e-05)
(0.00486862 -0.187957 -0.000633737)
(0.00286416 -0.196152 -3.83103e-05)
(0.0114365 -0.16851 0.000960991)
(0.00993659 -0.196708 9.88737e-05)
(0.0171435 -0.175078 0.000487954)
(0.0114256 -0.205299 4.29082e-05)
(0.00299601 -0.201713 2.12674e-06)
(0.00299593 -0.201714 -2.09754e-06)
(-0.00198743 -0.200765 4.03768e-06)
(-0.0019875 -0.200766 -4.02207e-06)
(0.00785064 -0.207837 2.85418e-06)
(0.00785043 -0.207838 -2.82576e-06)
(0.00803943 -0.212464 1.67363e-06)
(0.00803926 -0.212464 -1.65591e-06)
(0.00481598 -0.197545 2.84391e-05)
(0.00327799 -0.190971 0.0004365)
(0.00286387 -0.196154 3.8341e-05)
(0.00486881 -0.187958 0.000633752)
(0.0099362 -0.196711 -9.88113e-05)
(0.0114366 -0.168514 -0.000960873)
(0.0114251 -0.205301 -4.28712e-05)
(0.0171431 -0.175082 -0.000487881)
(-0.0208772 -0.190988 -0.000908642)
(0.021982 -0.256474 0.951964)
(-0.01714 -0.182743 -0.00114496)
(0.0177283 -0.263963 0.962141)
(-0.0176794 -0.146406 0.000999019)
(0.0190055 -0.294625 0.991948)
(-0.0086644 -0.136464 0.000486414)
(0.0168084 -0.308532 0.994441)
(0.0260822 -0.243015 -0.935998)
(-0.0248466 -0.199267 0.000258826)
(0.0244981 -0.249286 -0.943317)
(-0.0232439 -0.196087 0.00059142)
(0.0226326 -0.270442 -0.98842)
(-0.0258584 -0.164922 -0.00223676)
(0.0211472 -0.282076 -0.99001)
(-0.0228093 -0.156178 -0.00160739)
(0.000296862 -0.193814 -9.38033e-05)
(0.00386802 -0.197405 0.000126622)
(0.00159128 -0.192646 -0.00024292)
(0.00465653 -0.197718 2.46968e-05)
(0.00526279 -0.165816 0.00183206)
(0.00468738 -0.185804 0.000344541)
(0.00735176 -0.165873 0.00142813)
(0.00701865 -0.190187 0.000202944)
(0.0040039 -0.200721 1.54174e-05)
(0.00400393 -0.200721 -1.53601e-05)
(0.00425913 -0.201411 -4.1534e-07)
(0.00425912 -0.201412 4.58664e-07)
(0.00460216 -0.196369 2.64012e-05)
(0.00460215 -0.19637 -2.63442e-05)
(0.00651539 -0.201533 8.69699e-06)
(0.0065153 -0.201534 -8.65553e-06)
(0.0038683 -0.197405 -0.000126531)
(0.000297824 -0.193814 9.37953e-05)
(0.00465667 -0.197719 -2.4626e-05)
(0.00159204 -0.192646 0.000242925)
(0.00468751 -0.185807 -0.000344414)
(0.0052631 -0.165819 -0.00183185)
(0.00701859 -0.19019 -0.000202851)
(0.007352 -0.165876 -0.00142797)
(-0.0248438 -0.199265 -0.000259032)
(0.0260799 -0.243007 0.936006)
(-0.0232414 -0.196085 -0.000591577)
(0.0244967 -0.249278 0.943323)
(-0.0258549 -0.164921 0.00223621)
(0.0226295 -0.270429 0.988422)
(-0.0228062 -0.156178 0.00160699)
(0.0211453 -0.282063 0.990011)
(0.0280735 -0.233316 -0.922968)
(-0.0270616 -0.202657 -0.000362148)
(0.0271898 -0.237743 -0.928983)
(-0.0260549 -0.201306 -6.28284e-05)
(0.0244354 -0.251367 -0.985654)
(-0.0294521 -0.177795 -0.00341749)
(0.0236332 -0.260159 -0.986939)
(-0.0278613 -0.172113 -0.0028463)
(-0.00136641 -0.195788 4.52545e-05)
(0.0022323 -0.196636 0.000351491)
(-0.000668317 -0.194847 -1.08803e-06)
(0.00295012 -0.196934 0.00024157)
(0.00429105 -0.169849 0.00241137)
(0.00219248 -0.181661 0.000657975)
(0.00440211 -0.167422 0.00215796)
(0.00314077 -0.183102 0.000501581)
(0.00263107 -0.19878 8.44743e-05)
(0.00263113 -0.19878 -8.43824e-05)
(0.00328844 -0.199688 4.63415e-05)
(0.0032885 -0.199689 -4.6268e-05)
(0.00232914 -0.190005 9.17296e-05)
(0.00232915 -0.190006 -9.16338e-05)
(0.00319339 -0.192632 5.53381e-05)
(0.00319339 -0.192633 -5.52627e-05)
(0.00223262 -0.196636 -0.000351377)
(-0.00136513 -0.195787 -4.53047e-05)
(0.00295047 -0.196935 -0.000241474)
(-0.000667062 -0.194846 1.06074e-06)
(0.00219262 -0.181663 -0.000657783)
(0.00429078 -0.16985 -0.00241109)
(0.00314094 -0.183105 -0.000501421)
(0.00440197 -0.167423 -0.00215771)
(-0.0270581 -0.202654 0.000361862)
(0.0280699 -0.233309 0.92298)
(-0.0260516 -0.201304 6.25869e-05)
(0.0271871 -0.237736 0.928993)
(-0.0294476 -0.177793 0.00341665)
(0.0244312 -0.251354 0.985657)
(-0.0278572 -0.172111 0.00284561)
(0.02363 -0.260146 0.986941)
(0.0294833 -0.226445 -0.911997)
(-0.0286775 -0.204192 -0.000887938)
(0.0288116 -0.229597 -0.917004)
(-0.0279217 -0.20357 -0.00063811)
(0.0257382 -0.237739 -0.983327)
(-0.0319282 -0.185561 -0.00441658)
(0.0250867 -0.243967 -0.984406)
(-0.0307542 -0.182192 -0.00394145)
(-0.00210545 -0.197457 3.88028e-05)
(0.0013887 -0.196618 0.000539678)
(-0.00182049 -0.196643 5.49256e-05)
(0.00173018 -0.196533 0.000452257)
(0.00457852 -0.175167 0.00274126)
(0.00124299 -0.181022 0.000933354)
(0.00441251 -0.172523 0.00260155)
(0.00160821 -0.181053 0.000803811)
(0.00172145 -0.197615 0.000161782)
(0.00172148 -0.197615 -0.000161652)
(0.00211598 -0.19808 0.000124156)
(0.00211602 -0.198081 -0.000124046)
(0.00137181 -0.186821 0.000172035)
(0.00137185 -0.186822 -0.000171894)
(0.00177062 -0.188135 0.000131835)
(0.00177066 -0.188135 -0.000131719)
(0.00138893 -0.196617 -0.000539535)
(-0.00210416 -0.197455 -3.89014e-05)
(0.00173046 -0.196533 -0.000452127)
(-0.00181918 -0.196642 -5.50006e-05)
(0.00124303 -0.181023 -0.000933098)
(0.00457822 -0.175167 -0.00274094)
(0.00160832 -0.181054 -0.000803589)
(0.00441226 -0.172523 -0.00260124)
(-0.0286734 -0.204189 0.000887572)
(0.0294787 -0.226438 0.912013)
(-0.0279178 -0.203567 0.00063778)
(0.0288078 -0.22959 0.917018)
(-0.0319228 -0.185558 0.00441547)
(0.0257329 -0.237727 0.98333)
(-0.0307491 -0.182189 0.00394047)
(0.0250825 -0.243955 0.984408)
(0.0306618 -0.221472 -0.902791)
(-0.0299319 -0.204903 -0.00130714)
(0.0300899 -0.223765 -0.906918)
(-0.0293391 -0.204616 -0.00111009)
(0.0268463 -0.228008 -0.981362)
(-0.0338824 -0.190092 -0.00522343)
(0.0262866 -0.23248 -0.98226)
(-0.0329331 -0.18813 -0.00484262)
(-0.00239855 -0.198905 -3.82643e-05)
(0.00102754 -0.197169 0.000664834)
(-0.00228181 -0.198216 5.59975e-06)
(0.00116769 -0.196846 0.000610184)
(0.00501054 -0.179894 0.00290951)
(0.000949841 -0.181959 0.00113792)
(0.00479062 -0.177642 0.00284059)
(0.00104002 -0.181366 0.00104472)
(0.00118855 -0.197286 0.000221368)
(0.00118854 -0.197286 -0.0002212)
(0.00141963 -0.197361 0.000194653)
(0.00141964 -0.197361 -0.000194503)
(0.000790563 -0.185434 0.00024313)
(0.000790648 -0.185434 -0.000242944)
(0.00105861 -0.185948 0.000209614)
(0.00105868 -0.185949 -0.00020945)
(0.00102768 -0.197169 -0.000664673)
(-0.0023972 -0.198904 3.81203e-05)
(0.00116787 -0.196846 -0.000610032)
(-0.00228049 -0.198214 -5.72315e-06)
(0.000949703 -0.181959 -0.00113762)
(0.00501007 -0.179894 -0.00290916)
(0.00103998 -0.181367 -0.00104443)
(0.00479025 -0.177641 -0.00284025)
(-0.0299273 -0.2049 0.0013067)
(0.0306563 -0.221466 0.902811)
(-0.0293347 -0.204613 0.00110968)
(0.0300852 -0.223759 0.906936)
(-0.0338763 -0.190089 0.00522208)
(0.0268402 -0.227997 0.981365)
(-0.0329272 -0.188127 0.00484139)
(0.0262816 -0.232469 0.982264)
(0.0316556 -0.217789 -0.895061)
(-0.0309209 -0.205213 -0.00163394)
(0.0311752 -0.2195 -0.898471)
(-0.0304505 -0.205093 -0.00148062)
(0.0277732 -0.220879 -0.979711)
(-0.0354511 -0.192742 -0.005861)
(0.027302 -0.224181 -0.980457)
(-0.0346828 -0.191592 -0.0055611)
(-0.00252303 -0.200071 -0.00014256)
(0.00090639 -0.197947 0.000734385)
(-0.00247368 -0.199522 -8.83039e-05)
(0.000947273 -0.197544 0.000705166)
(0.00541409 -0.183666 0.00298156)
(0.000972479 -0.183482 0.00127268)
(0.00522669 -0.181901 0.00295434)
(0.0009467 -0.182685 0.00121306)
(0.000888807 -0.197544 0.0002602)
(0.000888761 -0.197543 -0.000259999)
(0.00101472 -0.19736 0.000242498)
(0.00101469 -0.19736 -0.000242313)
(0.000372578 -0.185238 0.000296572)
(0.000372644 -0.185238 -0.000296345)
(0.000554635 -0.185217 0.000272074)
(0.000554719 -0.185218 -0.000271867)
(0.000906441 -0.197947 -0.000734212)
(-0.00252163 -0.200069 0.000142374)
(0.000947359 -0.197543 -0.000704999)
(-0.0024723 -0.19952 8.81365e-05)
(0.000972223 -0.183482 -0.00127234)
(0.00541354 -0.183664 -0.0029812)
(0.000946502 -0.182685 -0.00121273)
(0.00522619 -0.1819 -0.00295398)
(-0.0309158 -0.20521 0.00163345)
(0.0316496 -0.217784 0.895084)
(-0.0304456 -0.20509 0.00148015)
(0.0311698 -0.219494 0.898492)
(-0.0354445 -0.192739 0.00585946)
(0.0277665 -0.220869 0.979716)
(-0.0346764 -0.191589 0.00555965)
(0.0272964 -0.224171 0.980461)
(0.0324682 -0.214985 -0.88856)
(-0.0317104 -0.205317 -0.00188726)
(0.0320755 -0.216297 -0.891353)
(-0.0313355 -0.205283 -0.00176824)
(0.0285199 -0.215501 -0.978328)
(-0.0366983 -0.194319 -0.00635971)
(0.0281338 -0.218011 -0.978941)
(-0.0360844 -0.193626 -0.00612544)
(-0.00256272 -0.200981 -0.000252732)
(0.000900707 -0.198784 0.000764994)
(-0.00254671 -0.200555 -0.0001977)
(0.000894706 -0.198366 0.000753472)
(0.00572294 -0.186536 0.00299844)
(0.00107124 -0.185136 0.00135307)
(0.00558421 -0.185203 0.0029948)
(0.00101659 -0.184308 0.00131852)
(0.000747964 -0.198103 0.000284436)
(0.00074789 -0.198102 -0.000284208)
(0.000802902 -0.197799 0.000273982)
(0.000802847 -0.197799 -0.000273767)
(0.000134537 -0.185752 0.000332941)
(0.00013458 -0.185752 -0.00033268)
(0.000236479 -0.185432 0.000316722)
(0.000236537 -0.185432 -0.000316477)
(0.00090071 -0.198783 -0.000764813)
(-0.00256123 -0.200979 0.000252511)
(0.000894732 -0.198365 -0.000753295)
(-0.00254526 -0.200553 0.000197494)
(0.00107089 -0.185135 -0.0013527)
(0.00572236 -0.186534 -0.00299808)
(0.0010163 -0.184308 -0.00131816)
(0.00558367 -0.185201 -0.00299445)
(-0.031705 -0.205314 0.00188673)
(0.0324618 -0.21498 0.888585)
(-0.0313303 -0.20528 0.00176773)
(0.0320696 -0.216292 0.891376)
(-0.0366913 -0.194316 0.00635801)
(0.0285128 -0.215493 0.978333)
(-0.0360774 -0.193623 0.00612381)
(0.0281278 -0.218002 0.978946)
(0.0331301 -0.212782 -0.883055)
(-0.0323082 -0.205303 -0.00208394)
(0.0328071 -0.213822 -0.885338)
(-0.0320261 -0.205322 -0.00199126)
(0.029104 -0.211327 -0.977167)
(-0.0376415 -0.195268 -0.006748)
(0.0287931 -0.213291 -0.977669)
(-0.0371694 -0.194855 -0.00656557)
(-0.00257091 -0.201676 -0.000356575)
(0.000948111 -0.199578 0.000770354)
(-0.00256852 -0.201353 -0.000305605)
(0.000920326 -0.19919 0.00076988)
(0.00594278 -0.188687 0.0029853)
(0.00119935 -0.186717 0.00139521)
(0.00584615 -0.187689 0.0029943)
(0.00113409 -0.185943 0.00137793)
(0.000709708 -0.198777 0.000296644)
(0.000709611 -0.198777 -0.000296397)
(0.000718733 -0.198434 0.000291697)
(0.000718653 -0.198433 -0.000291458)
(1.10019e-05 -0.186622 0.000355139)
(1.10215e-05 -0.186622 -0.000354851)
(6.15081e-05 -0.186159 0.000345559)
(6.15438e-05 -0.186158 -0.000345283)
(0.000948077 -0.199577 -0.000770169)
(-0.00256937 -0.201674 0.000356325)
(0.000920308 -0.199189 -0.000769697)
(-0.002567 -0.201351 0.000305367)
(0.0011989 -0.186716 -0.00139482)
(0.00594217 -0.188685 -0.00298494)
(0.0011337 -0.185942 -0.00137754)
(0.00584558 -0.187687 -0.00299395)
(-0.0323025 -0.2053 0.00208338)
(0.0331232 -0.212778 0.883082)
(-0.0320205 -0.205319 0.00199071)
(0.0328009 -0.213817 0.885364)
(-0.0376342 -0.195264 0.00674617)
(0.0290967 -0.211319 0.977173)
(-0.0371621 -0.194852 0.0065638)
(0.0287869 -0.213283 0.977674)
(0.0336672 -0.210991 -0.87834)
(-0.0327394 -0.2052 -0.002237)
(0.0334042 -0.211845 -0.880236)
(-0.0325373 -0.205261 -0.00216464)
(0.0295419 -0.207984 -0.976188)
(-0.0383323 -0.195807 -0.00704903)
(0.0293001 -0.20957 -0.976602)
(-0.0379784 -0.195579 -0.0069077)
(-0.00254654 -0.202186 -0.000449133)
(0.00101931 -0.200272 0.000761023)
(-0.0025613 -0.201953 -0.000404093)
(0.000981999 -0.19994 0.000766797)
(0.00610041 -0.190291 0.00295658)
(0.00132979 -0.188129 0.0014121)
(0.00603141 -0.189548 0.00297201)
(0.00126597 -0.187447 0.00140606)
(0.000738316 -0.19945 0.000300657)
(0.000738204 -0.199449 -0.000300395)
(0.00071747 -0.199119 0.000299373)
(0.000717372 -0.199119 -0.000299117)
(-3.54985e-05 -0.187623 0.000366781)
(-3.55002e-05 -0.187623 -0.000366473)
(-1.96707e-05 -0.187117 0.000362045)
(-1.96579e-05 -0.187117 -0.000361745)
(0.00101926 -0.200271 -0.000760837)
(-0.00254498 -0.202184 0.000448855)
(0.000981961 -0.199939 -0.000766612)
(-0.00255975 -0.201951 0.000403828)
(0.00132927 -0.188128 -0.0014117)
(0.00609975 -0.190289 -0.00295623)
(0.00126549 -0.187446 -0.00140566)
(0.00603081 -0.189546 -0.00297166)
(-0.0327336 -0.205198 0.00223642)
(0.0336601 -0.210987 0.878369)
(-0.0325315 -0.205259 0.00216406)
(0.0333977 -0.211841 0.880264)
(-0.0383247 -0.195803 0.0070471)
(0.0295344 -0.207977 0.976194)
(-0.0379708 -0.195575 0.00690582)
(0.0292937 -0.209562 0.976607)
(0.0341007 -0.209472 -0.874303)
(-0.0330319 -0.205016 -0.00235659)
(0.0338864 -0.210205 -0.875862)
(-0.0328952 -0.205119 -0.00229979)
(0.0298627 -0.205218 -0.975364)
(-0.0388214 -0.19606 -0.00728076)
(0.029675 -0.206542 -0.975701)
(-0.0385621 -0.195963 -0.00717207)
(-0.00249204 -0.202525 -0.000528602)
(0.00111292 -0.200833 0.000744184)
(-0.0025212 -0.202376 -0.000490198)
(0.00106297 -0.200571 0.000753018)
(0.00621551 -0.191466 0.00292083)
(0.00145357 -0.189332 0.00141315)
(0.00616628 -0.190926 0.00293899)
(0.00139275 -0.188758 0.00141406)
(0.000811337 -0.200044 0.000299282)
(0.000811202 -0.200043 -0.000299011)
(0.000770783 -0.19976 0.000300412)
(0.000770668 -0.19976 -0.000300145)
(-3.18508e-05 -0.188608 0.000371007)
(-3.18768e-05 -0.188608 -0.000370684)
(-3.81006e-05 -0.188124 0.000369629)
(-3.81096e-05 -0.188124 -0.000369313)
(0.00111285 -0.200832 -0.000743998)
(-0.00249045 -0.202523 0.000528305)
(0.00106291 -0.20057 -0.000752832)
(-0.00251961 -0.202374 0.000489908)
(0.00145297 -0.18933 -0.00141274)
(0.00621483 -0.191464 -0.00292048)
(0.0013922 -0.188757 -0.00141365)
(0.00616564 -0.190924 -0.00293864)
(-0.0330259 -0.205014 0.002356)
(0.0340934 -0.209468 0.874334)
(-0.0328892 -0.205116 0.00229919)
(0.0338797 -0.210201 0.875892)
(-0.0388136 -0.196056 0.00727875)
(0.029855 -0.205211 0.97537)
(-0.0385543 -0.19596 0.00717011)
(0.0296684 -0.206535 0.975707)
(0.034449 -0.208119 -0.870782)
(-0.0332074 -0.204741 -0.00245013)
(0.0342749 -0.20878 -0.872088)
(-0.0331268 -0.204891 -0.00240551)
(0.0300799 -0.202849 -0.974662)
(-0.0391349 -0.196093 -0.0074569)
(0.0299414 -0.203993 -0.97494)
(-0.0389591 -0.196101 -0.00737451)
(-0.00240717 -0.202697 -0.000594771)
(0.00123177 -0.201234 0.00072433)
(-0.00245172 -0.202632 -0.000562898)
(0.00117003 -0.201055 0.000734225)
(0.00630219 -0.192293 0.00288275)
(0.00157261 -0.1903 0.00140473)
(0.00626554 -0.191919 0.00290165)
(0.00151425 -0.189846 0.00140973)
(0.000915191 -0.200508 0.000294679)
(0.000915038 -0.200508 -0.000294403)
(0.000859745 -0.200294 0.00029716)
(0.000859607 -0.200294 -0.000296886)
(1.75705e-06 -0.189486 0.000370371)
(1.70966e-06 -0.189485 -0.000370041)
(-1.78459e-05 -0.189064 0.000371137)
(-1.78796e-05 -0.189064 -0.00037081)
(0.00123166 -0.201233 -0.000724143)
(-0.00240554 -0.202695 0.00059446)
(0.00116994 -0.201054 -0.000734039)
(-0.0024501 -0.20263 0.000562593)
(0.00157196 -0.190299 -0.00140431)
(0.0063015 -0.192291 -0.00288241)
(0.00151363 -0.189845 -0.00140931)
(0.00626488 -0.191917 -0.0029013)
(-0.0332012 -0.204739 0.00244952)
(0.0344416 -0.208115 0.870815)
(-0.0331206 -0.204888 0.0024049)
(0.034268 -0.208776 0.872119)
(-0.0391269 -0.19609 0.00745483)
(0.0300721 -0.202843 0.974668)
(-0.0389511 -0.196098 0.00737247)
(0.0299347 -0.203986 0.974946)
(0.0347356 -0.20685 -0.867756)
(-0.0332837 -0.204358 -0.00252319)
(0.0345887 -0.207478 -0.868784)
(-0.0332501 -0.204564 -0.0024881)
(0.0302211 -0.200743 -0.97407)
(-0.0393078 -0.195936 -0.00758813)
(0.0301137 -0.201771 -0.974288)
(-0.0391949 -0.196037 -0.00752696)
(-0.00229166 -0.202697 -0.000648644)
(0.00137088 -0.201454 0.000704161)
(-0.00235148 -0.202719 -0.000622697)
(0.00129924 -0.201368 0.000713968)
(0.00637045 -0.19282 0.00284497)
(0.0016851 -0.191021 0.00139099)
(0.00634236 -0.192591 0.00286347)
(0.00163008 -0.190692 0.00139824)
(0.00104593 -0.200808 0.000288496)
(0.00104577 -0.200807 -0.00028822)
(0.000977501 -0.200681 0.000291602)
(0.000977347 -0.20068 -0.000291326)
(5.60003e-05 -0.190197 0.000366824)
(5.59366e-05 -0.190196 -0.000366491)
(2.70395e-05 -0.189865 0.00036884)
(2.6987e-05 -0.189864 -0.000368508)
(0.00137073 -0.201453 -0.000703977)
(-0.00229001 -0.202695 0.000648323)
(0.00129911 -0.201367 -0.000713783)
(-0.00234983 -0.202717 0.000622379)
(0.00168439 -0.191019 -0.00139056)
(0.00636973 -0.192818 -0.00284462)
(0.00162941 -0.19069 -0.00139782)
(0.00634168 -0.192589 -0.00286313)
(-0.0332774 -0.204355 0.00252258)
(0.034728 -0.206847 0.86779)
(-0.0332438 -0.204562 0.00248749)
(0.0345817 -0.207474 0.868817)
(-0.0392997 -0.195933 0.00758601)
(0.0302131 -0.200737 0.974077)
(-0.0391867 -0.196034 0.00752486)
(0.0301069 -0.201765 0.974294)
(0.0349732 -0.205598 -0.865047)
(-0.0332696 -0.203843 -0.00257928)
(0.0348493 -0.206226 -0.865913)
(-0.03328 -0.204118 -0.00255229)
(0.0302918 -0.198791 -0.973558)
(-0.0393515 -0.195599 -0.00768233)
(0.0302172 -0.199753 -0.973737)
(-0.0393005 -0.195791 -0.00763882)
(-0.00214162 -0.202516 -0.000691758)
(0.00153294 -0.201472 0.000684762)
(-0.00221938 -0.20263 -0.000670908)
(0.00144881 -0.201489 0.000694151)
(0.00643162 -0.193078 0.00280861)
(0.00179244 -0.191483 0.00137437)
(0.00640522 -0.192981 0.0028263)
(0.00173996 -0.191285 0.00138283)
(0.0012021 -0.200912 0.000281974)
(0.00120191 -0.200912 -0.000281698)
(0.0011209 -0.200886 0.000285062)
(0.00112073 -0.200886 -0.000284788)
(0.000124745 -0.1907 0.000361786)
(0.000124675 -0.1907 -0.000361456)
(8.91265e-05 -0.190476 0.000364393)
(8.90612e-05 -0.190476 -0.000364061)
(0.00153276 -0.20147 -0.000684585)
(-0.00213995 -0.202515 0.000691426)
(0.00144865 -0.201488 -0.00069397)
(-0.00221772 -0.202628 0.00067058)
(0.00179171 -0.191482 -0.00137395)
(0.00643085 -0.193076 -0.00280826)
(0.00173924 -0.191284 -0.00138241)
(0.00640452 -0.192979 -0.00282595)
(-0.0332632 -0.203841 0.00257867)
(0.0349655 -0.205595 0.865082)
(-0.0332736 -0.204116 0.00255167)
(0.0348422 -0.206222 0.865947)
(-0.0393433 -0.195597 0.00768016)
(0.0302837 -0.198785 0.973565)
(-0.0392922 -0.195788 0.00763667)
(0.0302104 -0.199747 0.973744)
(0.0351802 -0.2043 -0.862671)
(-0.0331746 -0.203171 -0.00262125)
(0.0350689 -0.204957 -0.863344)
(-0.0332238 -0.203529 -0.00260076)
(0.0303102 -0.196908 -0.973121)
(-0.0392899 -0.195079 -0.00774588)
(0.030259 -0.197845 -0.973258)
(-0.0392871 -0.195362 -0.00771689)
(-0.00195479 -0.202131 -0.00072571)
(0.00171866 -0.201271 0.000666575)
(-0.0020512 -0.202351 -0.00070935)
(0.00162305 -0.201399 0.000675144)
(0.00650064 -0.193067 0.00276656)
(0.0018837 -0.191679 0.0013565)
(0.00647124 -0.193104 0.00278523)
(0.00183985 -0.191614 0.00136538)
(0.0013836 -0.200799 0.000276229)
(0.00138342 -0.200798 -0.000275964)
(0.00128961 -0.200884 0.00027895)
(0.00128943 -0.200883 -0.000278678)
(0.00020316 -0.190968 0.000356197)
(0.000203094 -0.190967 -0.000355876)
(0.000162923 -0.190865 0.000359009)
(0.000162858 -0.190864 -0.000358682)
(0.00171847 -0.20127 -0.000666412)
(-0.0019531 -0.20213 0.000725359)
(0.00162287 -0.201398 -0.000674973)
(-0.00204952 -0.20235 0.000709009)
(0.00188297 -0.191678 -0.00135609)
(0.00649983 -0.193066 -0.0027662)
(0.00183913 -0.191613 -0.00136496)
(0.00647047 -0.193102 -0.00278488)
(-0.033168 -0.203169 0.00262066)
(0.0351725 -0.204297 0.862708)
(-0.0332172 -0.203527 0.00260014)
(0.0350616 -0.204954 0.86338)
(-0.0392817 -0.195077 0.00774368)
(0.0303021 -0.196903 0.973128)
(-0.0392787 -0.19536 0.0077147)
(0.0302521 -0.197839 0.973265)
(0.0353713 -0.202902 -0.860516)
(-0.0330053 -0.202309 -0.00265228)
(0.0352684 -0.203618 -0.86108)
(-0.0330921 -0.202764 -0.00263686)
(0.0302941 -0.19501 -0.972738)
(-0.0391401 -0.194355 -0.0077841)
(0.0302614 -0.195966 -0.97285)
(-0.0391789 -0.194744 -0.00776726)
(-0.00172402 -0.20152 -0.000751028)
(0.00193345 -0.200834 0.000651246)
(-0.00184337 -0.201854 -0.000738815)
(0.00182223 -0.201083 0.000658344)
(0.00657456 -0.192786 0.00274229)
(0.00197132 -0.191606 0.00133717)
(0.00654149 -0.19296 0.00275562)
(0.00192747 -0.191675 0.00134584)
(0.00159344 -0.200443 0.000270749)
(0.00159325 -0.200443 -0.000270489)
(0.00148467 -0.200653 0.000273325)
(0.00148449 -0.200652 -0.000273061)
(0.000291479 -0.190973 0.000349641)
(0.000291414 -0.190972 -0.000349339)
(0.000247416 -0.191002 0.000352774)
(0.000247351 -0.191002 -0.00035246)
(0.0019333 -0.200833 -0.00065107)
(-0.00172216 -0.201518 0.000750693)
(0.00182205 -0.201082 -0.000658181)
(-0.00184163 -0.201853 0.000738453)
(0.00197059 -0.191604 -0.00133676)
(0.00657374 -0.192785 -0.00274193)
(0.00192675 -0.191674 -0.00134543)
(0.00654069 -0.192959 -0.00275528)
(-0.0329982 -0.202307 0.00265146)
(0.0353628 -0.202899 0.860554)
(-0.0330854 -0.202762 0.0026362)
(0.0352611 -0.203615 0.861117)
(-0.0391318 -0.194353 0.00778182)
(0.0302858 -0.195004 0.972745)
(-0.0391704 -0.194741 0.00776503)
(0.0302544 -0.195961 0.972857)
(0.0355344 -0.201356 -0.858611)
(-0.0327515 -0.201225 -0.00267437)
(0.0354498 -0.202151 -0.85905)
(-0.0328846 -0.201797 -0.00266328)
(0.0302332 -0.193032 -0.972412)
(-0.0389021 -0.19341 -0.00780053)
(0.0302242 -0.194033 -0.972494)
(-0.0389895 -0.193912 -0.00779417)
(-0.00143431 -0.200658 -0.000768679)
(0.00218778 -0.200131 0.0006385)
(-0.00158692 -0.201122 -0.000760159)
(0.00205527 -0.200517 0.000644299)
(0.00665614 -0.192223 0.0027124)
(0.00207006 -0.191239 0.00132163)
(0.00661684 -0.192542 0.00272683)
(0.00202011 -0.191459 0.00133003)
(0.00183921 -0.199816 0.000265621)
(0.001839 -0.199816 -0.000265436)
(0.00171177 -0.200165 0.000268012)
(0.00171158 -0.200165 -0.000267799)
(0.000396616 -0.190689 0.000344666)
(0.000396529 -0.190688 -0.00034441)
(0.00034269 -0.190869 0.000347224)
(0.000342623 -0.190868 -0.00034695)
(0.00218754 -0.20013 -0.000638498)
(-0.00143262 -0.200657 0.00076802)
(0.00205509 -0.200516 -0.000644184)
(-0.00158506 -0.201121 0.00075979)
(0.00206925 -0.191238 -0.00132128)
(0.00665517 -0.192221 -0.00271208)
(0.00201938 -0.191458 -0.00132964)
(0.00661603 -0.19254 -0.00272645)
(-0.0327464 -0.201223 0.00267449)
(0.0355277 -0.201353 0.858461)
(-0.0328775 -0.201796 0.00266264)
(0.0354418 -0.202148 0.859088)
(-0.0388944 -0.193408 0.00779875)
(0.0302256 -0.193027 0.97242)
(-0.038981 -0.19391 0.00779199)
(0.0302172 -0.194028 0.972502)
(0.0356902 -0.199622 -0.85505)
(-0.0324162 -0.199877 -0.00269082)
(0.0355955 -0.200518 -0.857194)
(-0.032583 -0.200587 -0.00268173)
(0.0301173 -0.190945 -0.972122)
(-0.0385638 -0.192199 -0.00780009)
(0.0301382 -0.192005 -0.972184)
(-0.0387046 -0.192841 -0.00780133)
(-0.00108043 -0.199511 -0.000778587)
(0.00248443 -0.199131 0.000629008)
(-0.00126126 -0.200122 -0.000774225)
(0.00233203 -0.19967 0.000633098)
(0.00675627 -0.191342 0.00268442)
(0.00218034 -0.190552 0.00130577)
(0.00670922 -0.191824 0.0026979)
(0.00212458 -0.190938 0.0013134)
(0.00212177 -0.198888 0.00026122)
(0.00212153 -0.198888 -0.00026064)
(0.0019762 -0.199391 0.000263225)
(0.00197598 -0.199391 -0.000262873)
(0.000515065 -0.190086 0.000339283)
(0.000514941 -0.190086 -0.000338787)
(0.00045444 -0.190429 0.000341903)
(0.000454326 -0.190429 -0.000341561)
(0.00248412 -0.19913 -0.000628331)
(-0.00107886 -0.19951 0.000779289)
(0.00233177 -0.199669 -0.000632907)
(-0.00125956 -0.200121 0.000773662)
(0.00217941 -0.190551 -0.00130516)
(0.00675524 -0.191341 -0.00268389)
(0.00212368 -0.190937 -0.001313)
(0.00670807 -0.191822 -0.00269762)
(-0.0324098 -0.199871 0.00268791)
(0.0356815 -0.199624 0.856894)
(-0.0325768 -0.200581 0.00268114)
(0.0355879 -0.200519 0.857041)
(-0.0385475 -0.192198 0.00779639)
(0.0301005 -0.190941 0.972131)
(-0.0386969 -0.19284 0.00779916)
(0.0301321 -0.192 0.972191)
(0.0359069 -0.197645 -0.855251)
(-0.0320316 -0.198238 -0.00269807)
(0.0357868 -0.19868 -0.853691)
(-0.0322279 -0.199094 -0.00269466)
(0.0299612 -0.188677 -0.971872)
(-0.0381293 -0.190689 -0.00778115)
(0.0300053 -0.189842 -0.971914)
(-0.0383218 -0.191483 -0.00779244)
(-0.00067938 -0.198055 -0.000784071)
(0.00281722 -0.197806 0.000621053)
(-0.000886822 -0.198824 -0.000780857)
(0.00264567 -0.198511 0.00062471)
(0.00685652 -0.190146 0.00265883)
(0.00229709 -0.189524 0.00129109)
(0.00681009 -0.190781 0.00267114)
(0.00223771 -0.190081 0.00129824)
(0.00244049 -0.197628 0.000256729)
(0.00244011 -0.197628 -0.000256828)
(0.00227618 -0.198301 0.000258872)
(0.00227588 -0.198301 -0.000258523)
(0.000646553 -0.189136 0.000333943)
(0.000646454 -0.189135 -0.000333539)
(0.000579019 -0.189655 0.000336599)
(0.000578908 -0.189655 -0.000336083)
(0.00281612 -0.197805 -0.000621576)
(-0.000680244 -0.198054 0.000781583)
(0.00264502 -0.19851 -0.000624371)
(-0.000886239 -0.198822 0.000780722)
(0.00229609 -0.189523 -0.00129041)
(0.00685472 -0.190145 -0.00265761)
(0.0022368 -0.19008 -0.00129751)
(0.00680897 -0.19078 -0.00267012)
(-0.0320321 -0.198245 0.0027002)
(0.0359051 -0.197636 0.848847)
(-0.0322246 -0.199098 0.00269293)
(0.0357821 -0.198667 0.852337)
(-0.0381288 -0.190687 0.00778352)
(0.0299563 -0.188671 0.971874)
(-0.0383074 -0.191481 0.00779087)
(0.0299895 -0.189839 0.97192)
(0.0361313 -0.195345 -0.853746)
(-0.0315683 -0.196292 -0.00270198)
(0.0360004 -0.196548 -0.853938)
(-0.0317962 -0.19731 -0.00269931)
(0.0298239 -0.186172 -0.971643)
(-0.0376528 -0.188835 -0.00775149)
(0.0298418 -0.18746 -0.97167)
(-0.037852 -0.189809 -0.00776681)
(-0.000233208 -0.19627 -0.000784715)
(0.00318977 -0.196126 0.000615253)
(-0.000453439 -0.197206 -0.000784481)
(0.00300038 -0.197012 0.000617841)
(0.0069744 -0.188629 0.00263536)
(0.00242864 -0.188129 0.00127693)
(0.00691203 -0.189431 0.0026465)
(0.002361 -0.188874 0.00128388)
(0.00280128 -0.196005 0.000253116)
(0.00280112 -0.196005 -0.000253004)
(0.00261576 -0.196864 0.000254686)
(0.00261543 -0.196864 -0.000254751)
(0.000795106 -0.18781 0.00032899)
(0.000795098 -0.187809 -0.000328571)
(0.000718887 -0.188521 0.000331372)
(0.000718814 -0.188521 -0.000330982)
(0.00318975 -0.196125 -0.000615394)
(-0.00023059 -0.19627 0.000783532)
(0.00299948 -0.197012 -0.000618264)
(-0.000453725 -0.197206 0.000782371)
(0.0024281 -0.188129 -0.00127633)
(0.00697435 -0.18863 -0.00263469)
(0.00236009 -0.188874 -0.00128323)
(0.00691052 -0.189432 -0.00264545)
(-0.0315556 -0.196293 0.00270199)
(0.0361145 -0.195343 0.853782)
(-0.0317926 -0.197313 0.00270068)
(0.0359951 -0.196546 0.850678)
(-0.0376534 -0.188836 0.00775102)
(0.0298241 -0.186162 0.971648)
(-0.0378522 -0.189808 0.00776812)
(0.0298408 -0.187449 0.971673)
(0.0364018 -0.192705 -0.852324)
(-0.0310594 -0.193968 -0.00269717)
(0.0362544 -0.194084 -0.852461)
(-0.0313172 -0.195189 -0.00269937)
(0.0297776 -0.183344 -0.971431)
(-0.0371907 -0.186625 -0.00771302)
(0.0297485 -0.18481 -0.971448)
(-0.0373823 -0.187775 -0.00773272)
(0.000209905 -0.194116 -0.000779275)
(0.0035925 -0.194055 0.000608666)
(-1.31044e-05 -0.195241 -0.000781884)
(0.00338643 -0.195141 0.000611826)
(0.00714131 -0.186739 0.00261537)
(0.00257798 -0.186338 0.00126254)
(0.0070504 -0.187733 0.00262478)
(0.00249995 -0.187285 0.00126972)
(0.00320643 -0.193982 0.000249824)
(0.00320638 -0.193982 -0.00024972)
(0.00299774 -0.195045 0.000251309)
(0.00299773 -0.195045 -0.00025119)
(0.000961477 -0.186078 0.000324361)
(0.000961524 -0.186078 -0.000323927)
(0.000875871 -0.186996 0.000326631)
(0.000875922 -0.186996 -0.000326199)
(0.00359294 -0.194054 -0.000608786)
(0.00021393 -0.194115 0.000777729)
(0.00338705 -0.195141 -0.00061194)
(-8.47183e-06 -0.19524 0.000780697)
(0.00257778 -0.186336 -0.00126196)
(0.00714268 -0.186737 -0.00261487)
(0.00249973 -0.187284 -0.00126915)
(0.00705162 -0.187732 -0.00262427)
(-0.0310497 -0.193958 0.00269899)
(0.0363864 -0.19271 0.849853)
(-0.0313027 -0.195186 0.00269998)
(0.0362347 -0.194082 0.852498)
(-0.0371883 -0.186623 0.00771257)
(0.029774 -0.183343 0.971437)
(-0.0373797 -0.187775 0.00773194)
(0.029747 -0.184806 0.971454)
(0.0366769 -0.189672 -0.844491)
(-0.030487 -0.191213 -0.0026851)
(0.0365189 -0.191253 -0.847809)
(-0.0307673 -0.192653 -0.00268977)
(0.0296899 -0.180136 -0.971238)
(-0.0366195 -0.184003 -0.00766566)
(0.0296681 -0.181793 -0.971242)
(-0.0368501 -0.185372 -0.00768985)
(0.000626477 -0.191506 -0.000769461)
(0.00402854 -0.191545 0.000598145)
(0.000428424 -0.192876 -0.000774291)
(0.00380721 -0.192858 0.000602973)
(0.0074113 -0.184373 0.00259664)
(0.00275964 -0.184104 0.00124697)
(0.0072902 -0.185622 0.00260542)
(0.00266694 -0.185278 0.00125468)