/*--------------------------------*- C++ -*----------------------------------*\
  =========                 |
  \\      /  F ield         | OpenFOAM: The Open Source CFD Toolbox
   \\    /   O peration     | Website:  https://openfoam.org
    \\  /    A nd           | Version:  9
     \\/     M anipulation  |
\*---------------------------------------------------------------------------*/
FoamFile
{
    format      ascii;
    class       volScalarField;
    location    "3.9";
    object      epsilon;
}
// * * * * * * * * * * * * * * * * * * * * * * * * * * * * * * * * * * * * * //

dimensions      [0 2 -3 0 0 0 0];

internalField   nonuniform List<scalar> 
36360
(
10.6992
9.6251
8.38444
7.87195
16.6133
15.7093
10.1259
11.9175
7.63483
6.58339
6.10369
5.16578
13.1095
11.7211
9.42937
8.10608
6.12604
6.12595
4.76271
4.76261
11.1277
11.1273
7.58318
7.58286
6.58311
7.63443
5.16548
6.10325
11.7201
13.1077
8.10513
9.42774
9.62475
10.6989
7.87152
8.38401
15.7068
16.6103
11.9152
10.1235
12.8888
11.5784
12.0434
10.7925
20.8549
19.3018
19.2695
17.8302
9.38878
8.24243
8.66024
7.54427
16.4075
14.9065
15.0305
13.574
7.74364
7.74357
7.05899
7.05891
14.2573
14.2569
12.9462
12.9459
8.24223
9.38852
7.54404
8.65991
14.9055
16.4059
13.5729
15.0288
11.5783
12.8887
10.7923
12.0432
19.2995
20.8522
17.8278
19.2667
13.956
12.6087
13.4906
12.1563
22.9881
21.3465
22.0343
20.4283
10.3803
9.21237
9.94114
8.78028
18.3695
16.8299
17.486
15.9601
8.70394
8.70389
8.27504
8.27498
16.1619
16.1616
15.2989
15.2986
9.21224
10.3801
8.78011
9.94093
16.8291
18.3681
15.9592
17.4845
12.6087
13.9561
12.1562
13.4905
21.3445
22.9858
20.4262
22.0318
14.6346
13.2749
14.3268
12.9722
24.4477
22.7659
23.7771
22.1112
11.04
9.86837
10.7391
9.56862
19.7453
18.1907
19.11
17.5623
9.35788
9.35785
9.05878
9.05874
17.5168
17.5165
16.8906
16.8904
9.86829
11.0399
9.56852
10.739
18.19
19.7441
17.5616
19.1088
13.275
14.6348
12.9722
14.3269
22.7642
24.4457
22.1094
23.775
15.1105
13.7452
14.8907
13.528
25.5185
23.8188
25.0201
23.3274
11.5139
10.344
11.2949
10.1239
20.7724
19.2098
20.2933
18.7342
9.83383
9.83382
9.61345
9.61342
18.5341
18.5339
18.0592
18.059
10.3439
11.5139
10.1238
11.2948
19.2092
20.7714
18.7336
20.2923
13.7453
15.1107
13.528
14.8909
23.8174
25.5167
23.3258
25.0182
15.4591
14.091
15.2966
13.9298
26.3311
24.6238
25.9502
24.2458
11.867
10.7011
11.7027
10.5348
21.5615
19.9959
21.1914
19.6271
10.1926
10.1926
10.0254
10.0254
19.3201
19.3199
18.9511
18.9509
10.7011
11.867
10.5348
11.7027
19.9954
21.5606
19.6265
21.1904
14.0912
15.4594
13.93
15.2968
24.6226
26.3296
24.2444
25.9486
15.7185
14.3494
15.5973
14.2286
26.9561
25.247
26.6627
24.9537
12.1346
10.9739
12.0098
10.8466
22.176
20.6106
21.8871
20.3216
10.4676
10.4676
10.3392
10.3392
19.9358
19.9357
19.6463
19.6461
10.9739
12.1347
10.8466
12.0099
20.6102
22.1753
20.3211
21.8864
14.3497
15.7192
14.2288
15.5977
25.2461
26.9556
24.9526
26.6616
15.9112
14.5423
15.8209
14.452
27.4377
25.7297
27.2112
25.5024
12.3375
11.1826
12.243
11.0853
22.6555
21.0925
22.4301
20.866
10.679
10.679
10.5804
10.5804
20.4194
20.4192
20.192
20.1919
11.1827
12.3377
11.0853
12.2431
21.0921
22.6549
20.8656
22.4295
14.5426
15.9123
14.4524
15.8219
25.7291
27.4377
25.5016
27.2112
16.0521
14.6836
15.9861
14.6176
27.8042
26.0999
27.6322
25.9258
12.4895
11.3408
12.4191
11.2674
23.0264
21.4674
22.8527
21.2917
10.84
10.84
10.7652
10.7652
20.7966
20.7965
20.6198
20.6197
11.3408
12.4897
11.2674
12.4192
21.4671
23.026
21.2914
22.8522
14.6841
16.0532
14.6181
15.9873
26.0995
27.8053
25.9253
27.6328
16.1515
14.7833
16.1054
14.7372
28.0805
26.3775
27.9517
26.2478
12.6
11.4576
12.5493
11.4039
23.3076
21.7536
23.1768
21.6204
10.9598
10.9598
10.9047
10.9047
21.0856
21.0856
20.951
20.9509
11.4576
12.6001
11.404
12.5495
21.7534
23.3072
21.6202
23.1764
14.7837
16.1525
14.7376
16.1063
26.377
28.0804
26.2473
27.9522
16.2154
14.8477
16.1863
14.8186
28.276
26.5758
28.186
26.4843
12.6754
11.5394
12.6416
11.5025
23.5122
21.9644
23.4183
21.8675
11.0447
11.0448
11.0063
11.0063
21.2998
21.2997
21.2012
21.2012
11.5395
12.6755
11.5026
12.6417
21.9642
23.5119
21.8673
23.4179
14.8481
16.2163
14.819
16.1874
26.5755
28.2763
26.4839
28.1861
16.2489
14.8813
16.2345
14.8671
28.4032
26.7052
28.3463
26.647
12.7204
11.5912
12.7013
11.5689
23.6503
22.1094
23.5886
22.0444
11.0997
11.0997
11.0758
11.0758
21.4487
21.4486
21.3817
21.3817
11.5912
12.7205
11.5689
12.7014
22.1093
23.65
22.0442
23.5883
14.8817
16.2491
14.8675
16.2352
26.7048
28.4025
26.6468
28.3465
16.2545
14.8873
16.2541
14.8868
28.4687
26.7727
28.4423
26.7449
12.7383
11.6161
12.7324
11.6068
23.729
22.1962
23.6963
22.1595
11.128
11.128
11.1171
11.1171
21.5397
21.5396
21.5009
21.5009
11.6162
12.7386
11.6069
12.7326
22.1961
23.7288
22.1594
23.696
14.8878
16.2551
14.8871
16.2542
26.7725
28.4676
26.7443
28.4407
16.233
14.8663
16.2469
14.8798
28.4751
26.7817
28.4778
26.7832
12.7312
11.6167
12.7376
11.6193
23.7529
22.2297
23.7473
22.2192
11.1322
11.1322
11.133
11.1331
21.5781
21.5781
21.565
21.565
11.6169
12.7319
11.6195
12.738
22.2297
23.7533
22.2191
23.7473
14.8685
16.2351
14.8806
16.2475
26.7831
28.4757
26.7833
28.4772
16.183
14.8187
16.2101
14.8449
28.4251
26.7358
28.4571
26.7654
12.7
11.5946
12.7183
11.6085
23.7271
22.2151
23.7461
22.2277
11.1143
11.1144
11.1261
11.1262
21.5686
21.5687
21.5785
21.5785
11.5951
12.7014
11.6089
12.7196
22.2153
23.7282
22.2279
23.7469
14.8228
16.1882
14.8486
16.2146
26.7395
28.4289
26.7686
28.4599
16.1098
14.7505
16.1457
14.7838
28.3261
26.6417
28.3793
26.6915
12.6483
11.5519
12.676
11.5756
23.6535
22.1536
23.6949
22.1895
11.0757
11.0758
11.0975
11.0976
21.5129
21.5129
21.5462
21.5462
11.5522
12.649
11.576
12.6772
22.1537
23.6538
22.1897
23.6957
14.7522
16.1131
14.7882
16.1518
26.6427
28.3291
26.6946
28.3835
16.0282
14.6695
16.0712
14.7122
28.1898
26.5092
28.2618
26.5799
12.5796
11.491
12.6162
11.5238
23.5394
22.0508
23.6014
22.1072
11.0185
11.0186
11.0494
11.0495
21.4154
21.4154
21.4692
21.4692
11.4912
12.5802
11.524
12.6167
22.0509
23.5397
22.1073
23.6015
14.6719
16.0311
14.7133
16.0724
26.5105
28.1907
26.5803
28.2625
15.924
14.567
15.9781
14.6204
28.0062
26.3302
28.1028
26.4241
12.492
11.4119
12.538
11.4537
23.3831
21.9072
23.4661
21.9839
10.9433
10.9433
10.9832
10.9832
21.2772
21.2772
21.3512
21.3512
11.412
12.4919
11.4539
12.5382
21.9072
23.3828
21.9839
23.466
14.5674
15.923
14.6211
15.9788
26.3285
28.0047
26.4235
28.1026
15.792
14.4419
15.8588
14.505
27.7747
26.1049
27.895
26.2218
12.3854
11.315
12.4409
11.3657
23.1852
21.7234
23.289
21.8202
10.8504
10.8504
10.8991
10.8991
21.0989
21.0989
21.1929
21.1929
11.3152
12.3863
11.3658
12.4413
21.7235
23.1855
21.8202
23.2889
14.4461
15.7982
14.5083
15.8621
26.1068
27.7775
26.2218
27.8958
15.6447
14.2999
15.7206
14.373
27.4991
25.8358
27.6413
25.9742
12.2609
11.2004
12.3253
11.2599
22.9462
21.4999
23.0704
21.6165
10.74
10.74
10.7974
10.7975
20.8809
20.8809
20.9948
20.9948
11.2007
12.262
11.2602
12.3264
21.5
22.9467
21.6166
23.0709
14.3036
15.65
14.3764
15.7259
25.8382
27.5033
25.9768
27.6448
15.4756
14.1387
15.5617
14.2207
27.1781
25.5236
27.3425
25.6836
12.1186
11.0684
12.1918
11.1365
22.6666
21.2367
22.8112
21.3732
10.6124
10.6125
10.6783
10.6784
20.6235
20.6235
20.7567
20.7567
11.0686
12.1192
11.1368
12.1927
21.2367
22.6667
21.3732
22.8115
14.1411
15.4794
14.224
15.5664
25.5242
27.1801
25.6854
27.3469
15.2869
13.959
15.3826
14.0503
26.8149
25.1676
27.001
25.3499
11.9584
10.9192
12.0407
10.996
22.3459
20.9331
22.5111
21.0898
10.4682
10.4682
10.5425
10.5425
20.3278
20.3277
20.4805
20.4805
10.9193
11.9588
10.9962
12.0411
20.933
22.3456
21.0897
22.5109
13.96
15.2882
14.0515
15.3847
25.1673
26.8134
25.3497
27.0006
15.0773
13.76
15.1833
13.8606
26.4035
24.7658
26.6141
24.9708
11.7799
10.7524
11.8712
10.838
21.9834
20.5892
22.1695
20.766
10.3068
10.3068
10.3897
10.3897
19.9922
19.9922
20.1649
20.1649
10.7525
11.7799
10.8381
11.8715
20.5891
21.983
20.766
22.1693
13.7596
15.0765
13.8614
15.1841
24.7647
26.4022
24.9705
26.6124
14.8428
13.5386
14.9626
13.6511
25.9454
24.3187
26.1792
24.5469
11.5829
10.5681
11.6836
10.6625
21.5791
20.2049
21.7863
20.402
10.1282
10.1282
10.2197
10.2197
19.6168
19.6168
19.8094
19.8094
10.5681
11.583
10.6625
11.6836
20.2048
21.5789
20.4019
21.7858
13.5406
14.8451
13.6517
14.9625
24.3179
25.9462
24.5455
26.1795
14.5853
13.2989
14.7144
13.4193
25.4392
23.8246
25.697
24.0755
11.3672
10.3659
11.4771
10.4692
21.1329
19.78
21.3609
19.9974
9.93213
9.93217
10.0324
10.0324
19.2015
19.2015
19.4141
19.4141
10.366
11.3673
10.4693
11.4774
19.7801
21.1329
19.9974
21.3609
13.2992
14.5874
13.4215
14.7181
23.8244
25.4383
24.0756
25.6966
14.3102
13.0408
14.4497
13.1718
24.8875
23.2861
25.168
23.5602
11.1332
10.146
11.2525
10.2582
20.6448
19.3146
20.894
19.5523
9.71861
9.71863
9.82759
9.82762
18.7461
18.7461
18.9787
18.9787
10.146
11.1329
10.2583
11.2522
19.3146
20.6446
19.5523
20.8939
13.0377
14.3059
13.1696
14.4486
23.2847
24.8857
23.5589
25.1674
14.0063
12.7595
14.1601
12.9013
24.2856
22.7007
24.5911
22.9971
10.8803
9.9081
11.0088
10.0293
20.1137
18.8085
20.3841
19.0665
9.48756
9.48758
9.6053
9.60532
18.2508
18.2507
18.5033
18.5033
9.90818
10.8807
10.0293
11.0089
18.8085
20.1137
19.0664
20.384
12.7609
14.0077
12.9006
14.1574
22.7014
24.2858
22.9969
24.5895
13.6848
12.4624
13.8472
12.6127
23.6388
22.0729
23.9673
22.3912
10.6095
9.6524
10.7472
9.78251
19.5417
18.2623
19.8325
18.5403
9.23895
9.23896
9.36549
9.3655
17.7158
17.7158
17.9881
17.9881
9.65242
10.6095
9.78256
10.7473
18.2622
19.5416
18.5402
19.8325
12.4619
13.6841
12.6125
13.8476
22.0726
23.6384
22.3912
23.9674
13.3346
12.1402
13.5124
12.3035
22.9407
21.3961
23.2954
21.7396
10.3185
9.37834
10.4664
9.51769
18.9277
17.6761
19.2397
17.9741
8.97262
8.97262
9.10803
9.10804
17.1417
17.1416
17.4335
17.4335
9.37836
10.3185
9.51771
10.4665
17.676
18.9275
17.974
19.2396
12.1403
13.3347
12.3035
13.5123
21.3959
22.9404
21.7393
23.295
12.9568
11.7946
13.148
11.9693
22.1921
20.6714
22.5716
21.0383
10.0074
9.08593
10.1653
9.23441
18.2718
17.0504
18.6046
17.368
8.68859
8.68859
8.83281
8.83282
16.5289
16.5289
16.8399
16.8399
9.08595
10.0075
9.23443
10.1653
17.0504
18.2717
17.3679
18.6045
11.7947
12.957
11.9694
13.1481
20.6711
22.1918
21.0381
22.5712
12.5554
11.4283
12.7579
11.6131
21.398
19.9032
21.7996
20.2914
9.67758
8.77579
9.84467
8.93303
17.5766
16.387
17.9287
16.7232
8.38731
8.38731
8.54009
8.5401
15.879
15.879
16.2084
16.2084
8.77581
9.67763
8.93306
9.84472
16.3869
17.5764
16.7231
17.9286
11.4285
12.5556
11.6132
12.7581
19.9029
21.3977
20.2911
21.7993
12.1332
11.0433
12.3459
11.2372
20.563
19.0964
20.9846
19.5034
9.33011
8.44864
9.50589
8.61431
16.8445
15.6877
17.2148
16.0416
8.06928
8.06929
8.23038
8.23039
15.1935
15.1935
15.5405
15.5405
8.44866
9.33016
8.61433
9.50595
15.6876
16.8443
16.0415
17.2146
11.0434
12.1334
11.2373
12.3461
19.0961
20.5627
19.5032
20.9843
11.6926
10.6411
11.9143
10.8435
19.6899
18.2528
20.1303
18.6781
8.96582
8.10491
9.14996
8.27884
16.0773
14.9538
16.465
15.3249
7.7348
7.73481
7.90412
7.90412
14.4737
14.4737
14.8378
14.8378
8.10493
8.96587
8.27887
9.15001
14.9537
16.0771
15.3248
16.4648
10.6412
11.6928
10.8436
11.9145
18.2526
19.6896
18.6779
20.13
11.235
10.2225
11.4651
10.4331
18.7806
17.3743
19.239
17.8169
8.58492
7.74455
8.77738
7.92684
15.276
14.1863
15.6807
14.5742
7.3837
7.3837
7.56137
7.56138
13.7203
13.7203
14.1011
14.1011
7.74457
8.58496
7.92686
8.77742
14.1862
15.2759
14.5741
15.6805
10.2226
11.2352
10.4332
11.4652
17.374
18.7803
17.8167
19.2387
10.7609
9.78733
10.9993
10.0063
17.8353
16.4618
18.3118
16.9214
8.18676
7.36675
8.38801
7.55794
14.4409
13.3849
14.8626
13.7898
7.01511
7.01511
7.2017
7.2017
12.933
12.9329
13.3309
13.3308
7.36677
8.1868
7.55795
8.38805
13.3848
14.4407
13.7897
14.8624
9.78743
10.7611
10.0064
10.9994
16.4615
17.835
16.9211
18.3115
10.2691
9.33356
10.5167
9.56224
16.851
15.5144
17.3477
15.9917
7.769
6.96927
7.98051
7.1707
13.5699
12.5475
14.0099
12.9709
6.62694
6.62694
6.82367
6.82367
12.1097
12.1097
12.526
12.5259
6.96929
7.76903
7.17071
7.98054
12.5474
13.5697
12.9708
14.0098
9.33365
10.2692
9.56233
10.5168
15.5141
16.8507
15.9915
17.3474
9.75422
8.85438
10.0144
9.0972
15.8202
14.5277
16.3415
15.0257
7.32513
6.54721
7.55095
6.76177
12.656
11.6683
13.1189
12.1137
6.21542
6.21542
6.4244
6.42441
11.2459
11.2459
11.6832
11.6832
6.54722
7.32516
6.76178
7.55099
11.6683
12.6559
12.1136
13.1188
8.85446
9.75436
9.09729
10.0145
14.5274
15.8199
15.0254
16.3411
9.20457
8.32297
9.48388
8.59816
14.7358
13.481
15.2837
14.0144
6.83615
6.09102
7.08836
6.32416
11.6764
10.7346
12.177
11.2093
5.77601
5.77601
5.99937
5.99937
10.3356
10.3355
10.7967
10.7967
6.09103
6.83618
6.32417
7.08839
10.7345
11.6762
11.2092
12.1769
8.32305
9.20471
8.59824
9.48401
13.4807
14.7355
14.0142
15.2834
8.62206
7.5838
8.91532
8.00462
13.5736
12.1628
14.1772
12.8929
6.2496
5.59165
6.55992
5.8464
10.5598
9.73374
11.1419
10.2419
5.31257
5.31257
5.54608
5.54608
9.38489
9.38487
9.86336
9.86333
5.59166
6.24963
5.84641
6.55995
9.73366
10.5597
10.2418
11.1417
7.58388
8.62222
8.0047
8.91545
12.1626
13.5734
12.8927
14.1769
9.59976
8.77149
8.62312
7.9194
9.84279
8.89251
8.49091
7.7579
7.40929
6.57363
6.58825
5.78957
7.27347
6.33276
6.23461
5.36499
6.17961
6.1797
5.41896
5.41902
5.90353
5.90353
4.97364
4.97362
6.57392
7.40988
5.78977
6.58867
6.3328
7.27365
5.36496
6.23466
8.77257
9.60128
7.92025
8.62429
8.89301
9.84357
7.75821
8.49134
10.8402
9.97223
10.3192
9.4599
11.4082
10.3647
10.7718
9.75265
8.56857
7.70221
8.06383
7.2053
8.64645
7.64439
8.06083
7.07724
7.29137
7.29149
6.79914
6.79925
7.18521
7.18525
6.62746
6.62749
7.70261
8.56932
7.20564
8.0645
7.64453
8.64677
7.07733
8.06108
9.9735
10.8419
9.46108
10.3208
10.3654
11.4092
9.75325
10.7727
11.5214
10.6568
11.226
10.3581
12.2206
11.167
11.8687
10.8172
9.26671
8.40513
8.95922
8.09346
9.4433
8.43479
9.09251
8.08448
7.99539
7.99553
7.68217
7.6823
7.97157
7.97162
7.62187
7.62192
8.40556
9.26751
8.09386
8.95998
8.43498
9.4437
8.08464
9.09287
10.6581
11.5232
10.3594
11.2277
11.1677
12.2217
10.818
11.8696
11.9306
11.077
11.7489
10.8896
12.7165
11.6662
12.4943
11.4419
9.71155
8.86323
9.51217
8.65705
9.95695
8.95507
9.72516
8.71948
8.45914
8.45928
8.24997
8.25011
8.49431
8.49437
8.25719
8.25725
8.86366
9.71234
8.65748
9.51296
8.95528
9.95738
8.71968
9.72556
11.0782
11.9323
10.8909
11.7506
11.667
12.7176
11.4427
12.4954
12.1932
11.3512
12.0747
11.2272
13.0475
12.0033
12.8964
11.8492
10.0111
9.1771
9.87523
9.03429
10.3125
9.32024
10.1498
9.15276
8.77939
8.77953
8.63344
8.63357
8.86352
8.86358
8.69397
8.69404
9.17752
10.0119
9.03472
9.876
9.32046
10.3129
9.15297
10.1502
11.3524
12.1949
11.2284
12.0764
12.0041
13.0486
11.85
12.8974
12.3675
11.5362
12.2882
11.4519
13.2783
12.2406
13.1718
12.1311
10.2196
9.39917
10.1245
9.29756
10.5684
9.58615
10.4504
9.46336
9.00762
9.00775
8.90303
8.90316
9.1338
9.13387
9.00886
9.00893
9.39958
10.2203
9.29797
10.1252
9.58638
10.5688
9.46359
10.4508
11.5374
12.3691
11.4531
12.2898
12.2414
13.2794
12.1319
13.1728
12.4833
11.6615
12.4306
11.6044
13.4417
12.41
13.3661
12.3316
10.3663
9.5584
10.2994
9.48553
10.7555
9.78309
10.6691
9.69199
9.17257
9.17269
9.09693
9.09706
9.3351
9.33517
9.24188
9.24195
9.55879
10.367
9.48592
10.3001
9.78332
10.7559
9.69222
10.6695
11.6626
12.4848
11.6055
12.4321
12.4108
13.4427
12.3324
13.3671
12.5575
11.7441
12.524
11.7067
13.5558
12.5297
13.5029
12.4744
10.4683
9.67181
10.4221
9.62018
10.8919
9.92893
10.8291
9.86163
9.29127
9.29139
9.23709
9.23721
9.48515
9.48522
9.41581
9.41588
9.67218
10.4689
9.62055
10.4228
9.92915
10.8923
9.86185
10.8295
11.7451
12.5589
11.7077
12.5254
12.5304
13.5568
12.4751
13.5039
12.6003
11.7942
12.5815
11.7719
13.6321
12.6111
13.597
12.5737
10.5361
9.75017
10.5059
9.71498
10.9891
10.0351
10.9447
9.98646
9.37452
9.37463
9.33697
9.33709
9.59535
9.59542
9.54478
9.54485
9.75052
10.5367
9.71534
10.5065
10.0353
10.9895
9.98668
10.9451
11.7952
12.6017
11.7729
12.5828
12.6118
13.6332
12.5744
13.598
12.6183
11.8185
12.6113
11.8085
13.6783
12.6617
13.6576
12.639
10.5768
9.80058
10.5595
9.77864
11.0546
10.1092
11.0253
10.0758
9.42947
9.42957
9.40534
9.40544
9.67335
9.67341
9.63809
9.63816
9.8009
10.5774
9.77897
10.5601
10.1094
11.055
10.076
11.0257
11.8194
12.6196
11.8095
12.6125
12.6624
13.6793
12.6397
13.6585
12.6159
11.8217
12.6186
11.8219
13.6994
12.6867
13.6907
12.6763
10.595
9.82788
10.5884
9.81698
11.0937
10.1565
11.0771
10.136
9.46102
9.46112
9.44806
9.44817
9.72448
9.72454
9.70209
9.70215
9.82819
10.5956
9.8173
10.589
10.1567
11.0941
10.1362
11.0775
11.8225
12.6171
11.8227
12.6198
12.6873
13.7004
12.6769
13.6916
12.5959
11.8066
12.6072
11.8157
13.6986
12.6893
13.7006
12.6898
10.594
9.83544
10.5967
9.83406
11.1101
10.1809
11.1045
10.1714
9.4726
9.4727
9.46927
9.46936
9.75254
9.7526
9.74128
9.74134
9.83573
10.5945
9.83436
10.5972
10.1811
11.1105
10.1716
11.1048
11.8074
12.597
11.8165
12.6083
12.6899
13.6995
12.6904
13.7015
12.5599
11.7751
12.579
11.7921
13.6782
12.672
13.69
12.6824
10.576
9.82567
10.587
9.83271
11.1063
10.1849
11.1105
10.1853
9.46671
9.46681
9.47182
9.47192
9.76021
9.76028
9.75887
9.75893
9.82596
10.5765
9.83299
10.5875
10.1851
11.1067
10.1855
11.1109
11.7759
12.5611
11.7929
12.58
12.6728
13.6792
12.683
13.6907
12.5088
11.7282
12.5354
11.7529
13.6386
12.6357
13.6599
12.6554
10.5423
9.80003
10.561
9.81483
11.0837
10.1704
11.0972
10.18
9.44489
9.44499
9.45781
9.45791
9.74953
9.74962
9.75718
9.75726
9.80035
10.5429
9.81514
10.5616
10.1708
11.0843
10.1803
11.0977
11.7291
12.5101
11.7538
12.5366
12.637
13.6402
12.6564
13.661
12.4428
11.6664
12.477
11.6986
13.5795
12.58
13.6108
12.6097
10.4938
9.75973
10.5198
9.78173
11.0431
10.1386
11.0655
10.1566
9.40847
9.40858
9.42855
9.42866
9.72171
9.72182
9.73775
9.73786
9.76009
10.4945
9.78208
10.5205
10.139
11.044
10.157
11.0663
11.6677
12.4444
11.6996
12.4782
12.5818
13.582
12.6114
13.6131
12.3636
11.5914
12.4036
11.6297
13.5027
12.5083
13.5405
12.5441
10.432
9.70603
10.4644
9.73453
10.9866
10.0911
11.0163
10.1166
9.35864
9.35874
9.38524
9.38535
9.67826
9.67835
9.70187
9.70198
9.70635
10.4325
9.73487
10.465
10.0914
10.9873
10.117
11.0171
11.5921
12.3646
11.6309
12.4053
12.5094
13.5044
12.5458
13.5429
12.2717
11.5042
12.3182
11.5483
13.4167
12.4254
13.4607
12.4677
10.3582
9.64025
10.3964
9.67467
10.9173
10.0298
10.9535
10.0621
9.2966
9.29669
9.3292
9.32929
9.62072
9.6208
9.65126
9.65134
9.64054
10.3588
9.67496
10.3969
10.03
10.9178
10.0624
10.9541
11.5055
12.2733
11.5491
12.3189
12.4263
13.418
12.4686
13.4619
12.1712
11.4078
12.2217
11.4567
13.3173
12.3298
13.3675
12.3784
10.2734
9.56293
10.3172
9.6031
10.8344
9.95488
10.8775
9.99403
9.22291
9.223
9.26129
9.26138
9.54962
9.54969
9.58691
9.58698
9.56319
10.2738
9.60337
10.3176
9.95507
10.8347
9.99424
10.8778
11.4079
12.1715
11.4574
12.2232
12.3301
13.3179
12.3789
13.3683
12.0573
11.2986
12.1153
11.354
13.2013
12.2184
13.2604
12.2751
10.1768
9.47407
10.2265
9.52
10.7377
9.86651
10.7877
9.9124
9.13772
9.13781
9.18183
9.18192
9.46516
9.46524
9.50911
9.50918
9.47436
10.1774
9.52027
10.227
9.86679
10.7383
9.91263
10.7881
11.3
12.059
11.3547
12.1157
12.2196
13.2031
12.2758
13.2616
11.9325
11.1789
11.9953
11.2395
13.0718
12.0945
13.1371
12.1573
10.0689
9.37381
10.1242
9.42542
10.6273
9.76478
10.6841
9.81733
9.04118
9.04128
9.09095
9.09105
9.36747
9.36756
9.41801
9.4181
9.37412
10.0694
9.42573
10.1248
9.76511
10.628
9.81765
10.6848
11.1793
11.9332
11.2404
11.9972
12.0958
13.074
12.1586
13.1391
11.794
11.0463
11.8644
11.1135
12.9259
11.9551
13.0002
12.0257
9.94935
9.2622
10.0105
9.31949
10.5034
9.64984
10.5669
9.70898
8.93337
8.93346
8.98876
8.98886
9.25672
9.2568
9.31376
9.31385
9.26248
9.94988
9.31979
10.0111
9.65011
10.5039
9.70929
10.5676
11.0477
11.7956
11.1143
11.8649
11.9561
12.9274
12.0269
13.002
11.6436
10.9028
11.7194
10.9755
12.766
11.803
12.8466
11.88
9.8182
9.13917
9.8852
9.20218
10.3659
9.5217
10.4363
9.58746
8.81427
8.81435
8.87531
8.8754
9.13297
9.13304
9.19653
9.1966
9.13942
9.8186
9.20244
9.88566
9.52191
10.3663
9.58769
10.4367
10.9029
11.644
10.9762
11.721
11.8037
12.7671
11.8808
12.8477
11.4783
10.7457
11.5623
10.8252
12.5887
11.6348
12.6788
11.72
9.67511
9.0046
9.7481
9.07339
10.2145
9.38017
10.2919
9.45264
8.68379
8.68387
8.75054
8.75062
8.99609
8.99615
9.06622
9.06629
9.00482
9.67552
9.07363
9.74852
9.38034
10.2148
9.45283
10.2922
10.7469
11.4797
10.8259
11.5625
11.6352
12.5892
11.7206
12.6797
11.3003
10.5773
11.3901
10.6625
12.3952
11.4529
12.4929
11.5449
9.52008
8.85838
9.59907
8.93301
10.0491
9.22513
10.1335
9.30437
8.54185
8.54192
8.61434
8.61441
8.84596
8.84602
8.92273
8.92278
8.8586
9.52043
8.93323
9.59944
9.22529
10.0493
9.30452
10.1337
10.5773
11.3007
10.6631
11.3915
11.4533
12.3961
11.5452
12.4934
11.1072
10.395
11.2052
10.4873
12.1841
11.2547
12.2911
11.355
9.35282
8.70038
9.43796
8.78092
9.86939
9.05646
9.96093
9.14253
8.3883
8.38837
8.4666
8.46667
8.68247
8.68253
8.76593
8.76599
8.70059
9.35322
8.78114
9.43834
9.05663
9.8697
9.14271
9.96125
10.396
11.1083
10.4877
11.2054
11.2552
12.1848
11.3556
12.2922
10.9
10.2005
11.0044
10.2987
11.9564
11.0423
12.0713
11.1496
9.17329
8.5305
9.26455
8.61698
9.67545
8.87406
9.77413
8.967
8.22308
8.22314
8.30722
8.30729
8.50553
8.50557
8.59572
8.59577
8.53069
9.1736
8.61718
9.2649
8.87418
9.67559
8.96714
9.77431
10.2006
10.9004
10.2994
11.0058
11.0423
11.956
11.1497
12.0713
10.6783
9.99294
10.7903
10.0977
11.7104
10.8136
11.835
10.9292
8.98162
8.34876
9.07893
8.44117
9.4673
8.67796
9.57305
8.77774
8.04614
8.0462
8.13615
8.1362
8.3151
8.31514
8.41204
8.41208
8.34893
8.98195
8.44135
9.07925
8.6781
9.46759
8.77787
9.57328
9.99368
10.6791
10.098
10.7905
10.8143
11.7114
10.9296
11.8353
10.4434
9.77315
10.5618
9.88407
11.4491
10.572
11.5804
10.6936
8.77764
8.15502
8.88116
8.25345
9.24514
8.46809
9.3579
8.57478
7.8574
7.85744
7.95332
7.95337
8.11111
8.11114
8.21484
8.21488
8.15517
8.77792
8.25361
8.88147
8.46819
9.24531
8.5749
9.35812
9.77361
10.4441
9.8847
10.5627
10.5721
11.4493
10.6939
11.5809
10.1925
9.53894
10.3194
9.65731
11.1696
10.3133
11.3112
10.4441
8.56074
7.94905
8.67079
8.05362
9.0079
8.24406
9.12839
8.35789
7.65673
7.65678
7.75862
7.75866
7.89337
7.8934
8.004
8.00403
7.9492
8.561
8.05377
8.67106
8.24415
9.00807
8.35798
9.12856
9.53937
10.1931
9.65775
10.32
10.3136
11.17
10.4444
11.3115
9.92573
9.29082
10.0603
9.416
10.8691
10.0368
11.021
10.1764
8.33105
7.73098
8.44742
7.84155
8.75522
8.0058
8.88337
8.1267
7.44427
7.44431
7.55201
7.55206
7.6619
7.66193
7.77937
7.77939
7.73112
8.33131
7.84169
8.44768
8.00589
8.75539
8.12679
8.88354
9.29125
9.92634
9.41643
10.0609
10.0371
10.8696
10.1767
11.0214
9.6455
9.03034
9.78655
9.1615
10.551
9.74474
10.7113
9.89186
8.08945
7.50133
8.21165
7.61761
8.48818
7.75388
8.62335
7.88152
7.22039
7.22043
7.33378
7.33383
7.4171
7.41712
7.54117
7.54119
7.50147
8.08971
7.61775
8.21191
7.75397
8.48835
7.88161
8.62352
9.03076
9.6461
9.16193
9.78715
9.74504
10.5515
9.89216
10.7117
9.3537
8.75897
9.50036
8.89543
10.2182
9.43898
10.3855
9.59279
7.83687
7.26069
7.96447
7.3824
8.20784
7.48893
8.34955
7.62302
6.98553
6.98557
7.10436
7.10441
7.15941
7.15943
7.28986
7.28989
7.26082
7.83713
7.38254
7.96472
7.48902
8.20801
7.6231
8.34972
8.75939
9.35429
8.89585
9.50094
9.43928
10.2186
9.5931
10.386
9.05198
8.47782
9.20342
8.61907
9.87254
9.12096
10.0461
9.28079
7.57396
7.00944
7.70666
7.13642
7.91496
7.21137
8.06288
7.35174
6.73995
6.73999
6.86413
6.86417
6.88908
6.88911
7.02585
7.02587
7.00957
7.57421
7.13656
7.70691
7.21146
7.91513
7.35182
8.06305
8.47822
9.05256
8.61949
9.20399
9.12125
9.87297
9.28108
10.0466
8.74159
8.18759
8.89726
8.33333
9.51536
8.79133
9.69462
8.95693
7.30099
6.74758
7.43872
6.87989
7.60976
6.92115
7.76385
7.06788
6.48354
6.48358
6.61318
6.61322
6.60596
6.60599
6.74918
6.74921
6.74771
7.30123
6.88003
7.43896
6.92123
7.60992
7.06797
7.76401
8.18799
8.74215
8.33373
8.89782
8.79161
9.51577
8.95722
9.69502
8.42304
7.88834
8.5828
8.03866
9.14716
8.44997
9.33196
8.62154
7.01751
6.47445
7.16061
6.61254
7.29163
6.61746
7.45234
6.77109
6.21556
6.2156
6.35113
6.35117
6.30918
6.3092
6.4594
6.45942
6.47458
7.01774
6.61267
7.16085
6.61753
7.29178
6.77117
7.45249
7.88872
8.42358
8.03905
8.58334
8.45024
9.14755
8.62182
9.33234
8.09538
7.57859
8.25995
7.73448
8.76658
8.09492
8.95792
8.27377
6.72171
6.18826
6.87133
6.3332
6.95834
6.29813
7.12707
6.45997
5.93428
5.93432
6.07678
6.07682
5.99671
5.99673
6.15511
6.15513
6.18838
6.72193
6.33332
6.87156
6.29821
6.95848
6.46004
7.12721
7.57896
8.09591
7.73486
8.26047
8.09518
8.76696
8.27404
8.95829
7.75549
7.2536
7.92673
7.41808
8.36874
7.71968
8.56965
7.90997
6.40874
5.88523
6.56786
6.03922
6.60375
5.95853
6.7843
6.1313
5.63682
5.63686
5.78782
5.78786
5.66499
5.66501
5.83354
5.83356
5.88535
6.40896
6.03934
6.56808
5.9586
6.60389
6.13137
6.78444
7.25395
7.756
7.41844
7.92723
7.71993
8.3691
7.91022
8.57
7.4007
6.89716
7.57911
7.08094
7.94497
7.30143
8.15976
7.51828
6.06577
5.55909
6.24236
5.72551
6.21101
5.59021
6.41393
5.77861
5.32063
5.32066
5.4811
5.48113
5.31021
5.31023
5.49057
5.49059
5.5592
6.06598
5.72562
6.24257
5.59027
6.21114
5.77867
6.41406
6.8975
7.40119
7.08129
7.57959
7.30167
7.94532
7.51852
8.16009
7.05658
6.42201
7.22422
6.68852
7.5103
6.72219
7.72623
7.05058
5.66285
5.20793
5.87416
5.38584
5.73859
5.18755
5.98819
5.39253
4.99267
4.99271
5.15676
5.15679
4.93782
4.93784
5.12491
5.12493
5.20803
5.66304
5.38595
5.87435
5.18761
5.73871
5.39259
5.98832
6.42233
7.05705
6.68885
7.22469
6.72241
7.51065
7.05081
7.72656
9.53041
8.87259
8.85228
8.26121
9.53113
8.79973
8.74333
8.09855
7.8315
7.16356
7.20683
6.54342
7.62235
6.87878
6.9221
6.19482
6.83895
6.83915
6.22566
6.22583
6.52136
6.52151
5.85067
5.85079
7.1642
7.83263
6.54395
7.20779
6.87926
7.62324
6.19519
6.92281
8.87432
9.53262
8.26273
8.85419
8.80118
9.533
8.09977
8.74485
10.4437
9.78439
10.0483
9.38569
10.5734
9.82752
10.127
9.38199
8.75002
8.08376
8.34254
7.67248
8.63998
7.88594
8.19143
7.43797
7.75845
7.75868
7.34593
7.34615
7.52148
7.52166
7.07461
7.07478
8.08449
8.75128
7.67316
8.34375
7.88652
8.64102
7.4385
8.1924
9.78626
10.446
9.3875
10.0506
9.82914
10.5754
9.38354
10.129
10.9797
10.3346
10.7456
10.093
11.1694
10.434
10.9099
10.1685
9.32919
8.67919
9.07275
8.41402
9.27025
8.52824
8.99186
8.24275
8.361
8.36124
8.09187
8.09211
8.16858
8.16877
7.88004
7.88023
8.67992
9.33044
8.41474
9.074
8.52884
9.27131
8.24334
8.99289
10.3364
10.982
10.0948
10.7479
10.4356
11.1715
10.1701
10.9119
11.3007
10.6716
11.1594
10.5225
11.5261
10.8052
11.3685
10.6405
9.69759
9.0664
9.53351
8.89312
9.67092
8.94585
9.49199
8.7585
8.75695
8.75718
8.57933
8.57956
8.59383
8.59402
8.40261
8.4028
9.06711
9.69879
8.89383
9.53474
8.94644
9.67194
8.75909
9.49302
10.6734
11.3029
10.5243
11.1616
10.8068
11.5281
10.6421
11.3705
11.4962
10.8821
11.4097
10.7885
11.7484
11.0415
11.6491
10.9356
9.93698
9.32351
9.82986
9.2079
9.9353
9.22692
9.81621
9.09981
9.02243
9.02265
8.90277
8.90299
8.88261
8.88279
8.75174
8.75192
9.32418
9.93812
9.20858
9.83102
9.22748
9.93628
9.10037
9.8172
10.8837
11.4983
10.7902
11.4118
11.043
11.7503
10.9371
11.651
11.6144
11.0135
11.5622
10.9551
11.8889
11.1946
11.8259
11.1257
10.0941
9.49651
10.0238
9.41865
10.1137
9.4206
10.0331
9.33267
9.20298
9.20319
9.12149
9.1217
9.08341
9.08358
8.99205
8.99223
9.49714
10.0952
9.41929
10.0249
9.42113
10.1146
9.33321
10.034
11.015
11.6164
10.9567
11.5642
11.196
11.8907
11.1271
11.8276
11.6821
11.0926
11.6528
11.0579
11.976
11.2926
11.9372
11.2487
10.1959
9.6124
10.1507
9.56054
10.2343
9.55486
10.1799
9.49403
9.3256
9.3258
9.27051
9.27071
9.22412
9.22428
9.16019
9.16035
9.61298
10.1969
9.56114
10.1517
9.55536
10.2351
9.49454
10.1808
11.0941
11.6839
11.0594
11.6546
11.2939
11.9777
11.25
11.9389
11.7147
11.1351
11.7015
11.1172
12.0255
11.3515
12.0039
11.3256
10.2584
9.68744
10.2313
9.65441
10.3134
9.64633
10.2782
9.60527
9.40666
9.40684
9.37074
9.37092
9.3214
9.32155
9.27755
9.2777
9.68798
10.2593
9.65497
10.2322
9.64679
10.3142
9.60575
10.279
11.1364
11.7164
11.1186
11.7032
11.3528
12.027
11.3268
12.0055
11.7216
11.1504
11.7202
11.1451
12.0471
11.3814
12.0385
11.369
10.2916
9.7319
10.2782
9.71313
10.3613
9.70543
10.3407
9.67952
9.45651
9.45667
9.43515
9.43532
9.38578
9.38592
9.35732
9.35747
9.7324
10.2924
9.71365
10.279
9.70587
10.3621
9.67996
10.3415
11.1517
11.7231
11.1464
11.7218
11.3825
12.0486
11.3701
12.0399
11.7086
11.1448
11.7167
11.1494
12.0469
11.3883
12.0487
11.3868
10.302
9.75246
10.2993
9.74496
10.3848
9.739
10.3757
9.72516
9.48194
9.48209
9.4721
9.47225
9.42416
9.4243
9.408
9.40814
9.75292
10.3028
9.74544
10.3002
9.73941
10.3855
9.72558
10.3765
11.146
11.71
11.1506
11.7182
11.3894
12.0483
11.3879
12.05
11.6796
11.1223
11.6953
11.135
12.0292
11.3768
12.0393
11.3841
10.294
9.75363
10.3001
9.75535
10.3881
9.75167
10.3887
9.7478
9.48752
9.48766
9.48713
9.48727
9.44126
9.44138
9.43525
9.43538
9.75406
10.2948
9.7558
10.3009
9.75205
10.3888
9.74819
10.3894
11.1233
11.681
11.1361
11.6967
11.3778
12.0304
11.3851
12.0406
11.637
11.0853
11.6593
11.105
11.9961
11.3492
12.0137
11.3643
10.2704
9.73844
10.284
9.74805
10.3744
9.74663
10.3832
9.75126
9.47645
9.47658
9.48407
9.48421
9.44034
9.44046
9.44298
9.44309
9.73885
10.271
9.74846
10.2847
9.74699
10.3751
9.75163
10.3839
11.0862
11.6382
11.106
11.6606
11.3501
11.9973
11.3652
12.0149
11.5823
11.0356
11.6104
11.0614
11.9494
11.3075
11.9737
11.3294
10.2331
9.709
10.2533
9.72549
10.3457
9.726
10.3618
9.73821
9.45081
9.45094
9.46546
9.46559
9.42362
9.42373
9.43394
9.43405
9.70938
10.2337
9.72588
10.254
9.72634
10.3463
9.73856
10.3624
11.0365
11.5835
11.0624
11.6116
11.3084
11.9506
11.3303
11.9748
11.5164
10.9743
11.5501
11.0059
11.89
11.2526
11.9206
11.281
10.1834
9.66677
10.2097
9.68949
10.3032
9.69131
10.326
9.7104
9.41219
9.41232
9.43316
9.43328
9.39269
9.39281
9.40994
9.41005
9.66714
10.184
9.68987
10.2103
9.69166
10.3038
9.71074
10.3266
10.9752
11.5176
11.0068
11.5513
11.2535
11.8912
11.2819
11.9217
11.44
10.9022
11.4789
10.9391
11.8185
11.1854
11.855
11.2199
10.1224
9.61285
10.1542
9.64129
10.248
9.64371
10.2771
9.66912
9.36174
9.36185
9.38849
9.38861
9.34876
9.34887
9.37237
9.37248
9.61321
10.123
9.64166
10.1548
9.64406
10.2486
9.66947
10.2777
10.9031
11.4412
10.94
11.48
11.1863
11.8197
11.2208