/*--------------------------------*- C++ -*----------------------------------*\
  =========                 |
  \\      /  F ield         | OpenFOAM: The Open Source CFD Toolbox
   \\    /   O peration     | Website:  https://openfoam.org
    \\  /    A nd           | Version:  9
     \\/     M anipulation  |
\*---------------------------------------------------------------------------*/
FoamFile
{
    format      ascii;
    class       volScalarField;
    location    "3.9";
    object      p;
}
// * * * * * * * * * * * * * * * * * * * * * * * * * * * * * * * * * * * * * //

dimensions      [0 2 -2 0 0 0 0];

internalField   nonuniform List<scalar> 
36360
(
20.2362
19.9993
20.2251
20.0105
20.0019
20.1794
20.0224
20.1483
20.0824
20.0985
20.0884
20.1054
20.109
20.095
20.0982
20.092
20.1004
20.1004
20.1074
20.1074
20.0937
20.0937
20.0918
20.0918
20.0985
20.0824
20.1054
20.0884
20.095
20.109
20.092
20.0982
19.9993
20.2362
20.0105
20.2251
20.1793
20.0019
20.1483
20.0224
20.1179
20.071
20.1613
20.0488
19.9091
20.2482
19.9535
20.2217
20.1105
20.1016
20.0982
20.099
20.1416
20.1021
20.1264
20.0986
20.0966
20.0966
20.0975
20.0975
20.0946
20.0946
20.0944
20.0944
20.1016
20.1105
20.099
20.0982
20.1021
20.1416
20.0986
20.1264
20.071
20.1179
20.0489
20.1613
20.2482
19.9091
20.2216
19.9536
20.0693
20.0856
20.0901
20.0811
19.8518
20.2724
19.8763
20.2637
20.1307
20.1113
20.1217
20.1061
20.1652
20.1119
20.1545
20.1068
20.0988
20.0988
20.0973
20.0973
20.0974
20.0974
20.0957
20.0957
20.1113
20.1307
20.1061
20.1217
20.1119
20.1652
20.1068
20.1545
20.0856
20.0693
20.0811
20.0901
20.2724
19.8518
20.2637
19.8763
20.0411
20.0867
20.0534
20.087
19.8184
20.2788
19.833
20.2768
20.143
20.1206
20.1377
20.1161
20.1793
20.1219
20.1733
20.117
20.1038
20.1038
20.1011
20.1011
20.1023
20.1023
20.0997
20.0997
20.1206
20.143
20.1161
20.1377
20.1219
20.1793
20.117
20.1733
20.0867
20.0411
20.087
20.0534
20.2788
19.8184
20.2768
19.8331
20.0235
20.0837
20.0313
20.0854
19.7975
20.2791
19.8069
20.2793
20.1496
20.128
20.1469
20.1245
20.1869
20.1301
20.1837
20.1262
20.1095
20.1095
20.1066
20.1066
20.1079
20.1079
20.1051
20.1051
20.128
20.1496
20.1245
20.1469
20.1301
20.1869
20.1262
20.1837
20.0837
20.0235
20.0854
20.0313
20.2791
19.7976
20.2793
19.8069
20.0117
20.0799
20.0171
20.0819
19.7836
20.2773
19.7899
20.2783
20.1527
20.1337
20.1514
20.1311
20.1909
20.1362
20.1892
20.1334
20.115
20.115
20.1123
20.1123
20.1133
20.1133
20.1107
20.1107
20.1337
20.1527
20.1311
20.1514
20.1362
20.1909
20.1334
20.1892
20.08
20.0118
20.0819
20.0171
20.2774
19.7837
20.2783
19.79
20.0035
20.0763
20.0073
20.0781
19.7738
20.2751
19.7782
20.2763
20.154
20.1378
20.1535
20.1359
20.193
20.1405
20.1921
20.1385
20.1195
20.1195
20.1173
20.1173
20.1179
20.1179
20.1157
20.1157
20.1378
20.154
20.1359
20.1535
20.1405
20.193
20.1385
20.1921
20.0763
20.0035
20.0781
20.0073
20.2751
19.774
20.2763
19.7784
19.9974
20.073
20.0002
20.0746
19.7661
20.2731
19.7698
20.274
20.1544
20.1405
20.1543
20.1393
20.1941
20.1435
20.1936
20.1421
20.123
20.123
20.1214
20.1214
20.1216
20.1215
20.1199
20.1198
20.1405
20.1544
20.1393
20.1543
20.1434
20.194
20.1421
20.1936
20.073
19.9974
20.0746
20.0002
20.2729
19.767
20.274
19.7703
19.9925
20.07
19.9948
20.0715
19.7621
20.2705
19.7639
20.2718
20.1541
20.1422
20.1544
20.1414
20.1941
20.1453
20.1942
20.1445
20.1255
20.1255
20.1244
20.1244
20.1242
20.1242
20.123
20.123
20.1422
20.1542
20.1414
20.1543
20.1453
20.1942
20.1445
20.1942
20.0701
19.9926
20.0715
19.9948
20.2707
19.7617
20.2717
19.7642
19.9888
20.0675
19.9906
20.0688
19.7571
20.2688
19.7595
20.2696
20.1535
20.143
20.1539
20.1427
20.194
20.1464
20.1941
20.1459
20.1271
20.1271
20.1264
20.1264
20.126
20.126
20.1252
20.1252
20.143
20.1535
20.1427
20.1539
20.1463
20.194
20.1459
20.1942
20.0675
19.9888
20.0688
19.9906
20.2687
19.7576
20.2698
19.7593
19.9856
20.0651
19.9871
20.0663
19.7536
20.2668
19.7553
20.2678
20.1526
20.1433
20.1531
20.1432
20.1934
20.1468
20.1938
20.1466
20.1279
20.1279
20.1275
20.1275
20.127
20.127
20.1266
20.1266
20.1433
20.1526
20.1432
20.1531
20.1467
20.1934
20.1466
20.1937
20.0652
19.9856
20.0663
19.9871
20.2667
19.7544
20.2675
19.7563
19.9827
20.0628
19.9841
20.064
19.7512
20.2645
19.7522
20.2657
20.1512
20.1429
20.152
20.1432
20.1924
20.1466
20.193
20.1467
20.128
20.128
20.128
20.128
20.1273
20.1273
20.1273
20.1272
20.1429
20.1513
20.1432
20.152
20.1466
20.1924
20.1467
20.193
20.0629
19.9828
20.0641
19.9842
20.2646
19.7514
20.2658
19.7525
19.9802
20.0606
19.9814
20.0618
19.7488
20.2624
19.7498
20.2635
20.1496
20.142
20.1505
20.1425
20.191
20.1458
20.1918
20.1463
20.1274
20.1274
20.1278
20.1278
20.127
20.127
20.1272
20.1272
20.142
20.1496
20.1425
20.1505
20.1458
20.1909
20.1462
20.1917
20.0606
19.9802
20.0618
19.9815
20.2622
19.7498
20.2634
19.7505
19.9778
20.0584
19.9789
20.0595
19.7476
20.2597
19.7483
20.261
20.1477
20.1406
20.1487
20.1413
20.1891
20.1445
20.1901
20.1452
20.1263
20.1263
20.1269
20.1269
20.126
20.126
20.1265
20.1265
20.1406
20.1477
20.1414
20.1487
20.1445
20.1892
20.1452
20.1901
20.0584
19.9778
20.0595
19.979
20.2598
19.7479
20.261
19.7488
19.9754
20.0561
19.9765
20.0573
19.746
20.257
19.7468
20.2583
20.1455
20.1388
20.1467
20.1397
20.187
20.1427
20.1881
20.1437
20.1247
20.1247
20.1256
20.1256
20.1245
20.1245
20.1253
20.1253
20.1388
20.1455
20.1397
20.1467
20.1427
20.1869
20.1436
20.1881
20.056
19.9754
20.0572
19.9766
20.2568
19.7466
20.2583
19.7473
19.9731
20.0538
19.9743
20.0549
19.7447
20.2539
19.7455
20.2554
20.1431
20.1365
20.1443
20.1377
20.1843
20.1404
20.1857
20.1416
20.1226
20.1226
20.1237
20.1237
20.1224
20.1224
20.1235
20.1235
20.1366
20.1433
20.1377
20.1444
20.1405
20.1846
20.1416
20.1857
20.054
19.973
20.055
19.9742
20.2544
19.7434
20.2556
19.7451
19.9705
20.0513
19.9717
20.0526
19.7424
20.2509
19.7435
20.2525
20.1405
20.1339
20.1419
20.1353
20.1815
20.1377
20.183
20.1391
20.1201
20.1201
20.1214
20.1214
20.1199
20.1199
20.1212
20.1212
20.1339
20.1405
20.1353
20.1419
20.1377
20.1815
20.1392
20.183
20.0512
19.9704
20.0526
19.9716
20.2508
19.7426
20.2525
19.7431
19.9681
20.0484
19.9693
20.0499
19.7412
20.2472
19.7416
20.2492
20.1376
20.1309
20.1391
20.1324
20.1781
20.1346
20.1799
20.1362
20.1171
20.1171
20.1186
20.1187
20.1168
20.1168
20.1184
20.1184
20.1309
20.1377
20.1325
20.1391
20.1346
20.1782
20.1362
20.1799
20.0487
19.9678
20.05
19.9692
20.2475
19.7405
20.2492
19.7415
19.9655
20.0458
19.9669
20.0471
19.7392
20.2435
19.7403
20.2453
20.1346
20.1276
20.1361
20.1293
20.1744
20.131
20.1762
20.1328
20.1138
20.1138
20.1155
20.1155
20.1133
20.1133
20.1151
20.1151
20.1276
20.1345
20.1293
20.1362
20.1309
20.1743
20.1328
20.1763
20.0458
19.9653
20.0473
19.9665
20.2434
19.7395
20.2455
19.74
19.9626
20.0432
19.9639
20.0446
19.7384
20.239
19.7384
20.2415
20.1313
20.124
20.133
20.1258
20.1701
20.1269
20.1724
20.129
20.1103
20.1103
20.1121
20.1121
20.1093
20.1093
20.1113
20.1113
20.124
20.1313
20.1258
20.1329
20.127
20.1703
20.129
20.1723
20.0429
19.9627
20.0443
19.964
20.2393
19.7375
20.2413
19.7386
19.9601
20.0401
19.9613
20.0416
19.7369
20.2346
19.7381
20.2366
20.1279
20.1202
20.1296
20.1221
20.1657
20.1225
20.1679
20.1247
20.1064
20.1064
20.1084
20.1084
20.105
20.105
20.1072
20.1072
20.1202
20.1279
20.1222
20.1296
20.1226
20.1658
20.1249
20.1682
20.0401
19.9598
20.0416
19.9613
20.2347
19.7361
20.2373
19.7363
19.9571
20.0375
19.9587
20.0388
19.7347
20.2301
19.7353
20.2326
20.1246
20.1161
20.1263
20.1181
20.1611
20.1179
20.1635
20.1203
20.1024
20.1024
20.1044
20.1044
20.1004
20.1004
20.1027
20.1027
20.116
20.1245
20.1181
20.1262
20.1179
20.1611
20.1203
20.1634
20.0374
19.9572
20.0388
19.9585
20.23
19.7347
20.2323
19.7356
19.9546
20.0346
19.9557
20.0361
19.7333
20.2253
19.7341
20.2277
20.1211
20.1119
20.1229
20.114
20.1562
20.1131
20.1587
20.1155
20.0983
20.0983
20.1003
20.1003
20.0956
20.0956
20.098
20.098
20.1119
20.1211
20.114
20.1228
20.1131
20.1562
20.1155
20.1587
20.0345
19.9546
20.036
19.9558
20.2252
19.7333
20.2276
19.734
19.9525
20.0318
19.9536
20.0332
19.7326
20.2201
19.733
20.2227
20.1178
20.1078
20.1194
20.1099
20.1512
20.108
20.1537
20.1105
20.0942
20.0942
20.0962
20.0962
20.0906
20.0906
20.0931
20.0931
20.1079
20.1179
20.1099
20.1194
20.1081
20.1513
20.1106
20.1538
20.0321
19.9523
20.0333
19.9534
20.2206
19.7316
20.223
19.7322
19.9501
20.03
19.9513
20.0309
19.7298
20.216
19.7312
20.2179
20.115
20.104
20.1163
20.1059
20.1465
20.1031
20.1488
20.1056
20.0903
20.0903
20.0922
20.0922
20.0857
20.0857
20.0881
20.0881
20.104
20.1149
20.1059
20.1163
20.1031
20.1463
20.1056
20.1488
20.0297
19.9503
20.0308
19.9512
20.2154
19.7312
20.2179
19.7315
19.9485
20.0279
19.9492
20.0289
19.7301
20.2109
19.7298
20.2134
20.1121
20.1004
20.1137
20.1022
20.1415
20.0981
20.144
20.1006
20.0866
20.0866
20.0884
20.0884
20.0807
20.0807
20.0832
20.0832
20.1004
20.1121
20.1021
20.1136
20.0981
20.1415
20.1006
20.1439
20.028
19.9485
20.0288
19.9494
20.211
19.7298
20.2131
19.7306
19.9475
20.0264
19.9478
20.0272
19.7299
20.2066
19.73
20.2087
20.1088
20.097
20.1104
20.0987
20.1367
20.0933
20.1391
20.0957
20.0832
20.0832
20.0849
20.0849
20.076
20.076
20.0783
20.0783
20.0971
20.1089
20.0987
20.1104
20.0933
20.1367
20.0957
20.1391
20.0266
19.9475
20.0273
19.9479
20.2066
19.7298
20.2087
19.7297
19.9471
20.0257
19.9473
20.026
19.7302
20.2027
19.7298
20.2046
20.1064
20.0942
20.1075
20.0956
20.1323
20.0889
20.1345
20.0911
20.0804
20.0804
20.0817
20.0817
20.0717
20.0717
20.0738
20.0738
20.0942
20.1063
20.0956
20.1075
20.0889
20.1323
20.0911
20.1345
20.0256
19.9473
20.026
19.9473
20.2027
19.7302
20.2047
19.7298
19.9475
20.0256
19.9472
20.0256
19.7316
20.1991
19.7308
20.2008
20.1045
20.092
20.1054
20.093
20.1283
20.0849
20.1303
20.0869
20.0782
20.0782
20.0792
20.0792
20.0679
20.0679
20.0698
20.0698
20.092
20.1046
20.093
20.1054
20.0849
20.1283
20.0869
20.1303
20.0256
19.9475
20.0256
19.9472
20.1991
19.7316
20.2008
19.7308
19.9488
20.0263
19.948
20.0259
19.7341
20.1961
19.7327
20.1975
20.1035
20.0904
20.1039
20.0911
20.1249
20.0816
20.1266
20.0832
20.0767
20.0767
20.0773
20.0773
20.0648
20.0648
20.0663
20.0663
20.0904
20.1035
20.0911
20.1039
20.0816
20.1249
20.0832
20.1266
20.0264
19.9488
20.0259
19.948
20.1961
19.7341
20.1975
19.7327
19.9511
20.0279
19.9498
20.0271
19.7378
20.1938
19.7358
20.1949
20.1031
20.0896
20.1032
20.0899
20.1221
20.0789
20.1234
20.0801
20.076
20.076
20.0762
20.0762
20.0625
20.0625
20.0635
20.0635
20.0896
20.1031
20.0899
20.1032
20.0789
20.1221
20.0801
20.1234
20.028
19.9512
20.0271
19.9498
20.1938
19.7378
20.1949
19.7358
19.9546
20.0305
19.9527
20.0291
19.7429
20.1922
19.7402
20.1929
20.1035
20.0896
20.1033
20.0895
20.12
20.0771
20.121
20.0779
20.0763
20.0763
20.076
20.076
20.0611
20.0611
20.0617
20.0617
20.0896
20.1035
20.0895
20.1033
20.0771
20.12
20.0779
20.121
20.0305
19.9546
20.0291
19.9527
20.1922
19.7429
20.1929
19.7402
19.9593
20.0339
19.9567
20.0321
19.7495
20.1914
19.746
20.1917
20.1047
20.0905
20.104
20.09
20.1187
20.0762
20.1193
20.0765
20.0776
20.0776
20.0768
20.0768
20.0608
20.0608
20.0608
20.0608
20.0905
20.1047
20.09
20.1041
20.0762
20.1187
20.0765
20.1193
20.0339
19.9593
20.0321
19.9568
20.1914
19.7495
20.1917
19.746
19.9653
20.0381
19.9621
20.0359
19.7578
20.1914
19.7534
20.1913
20.1066
20.0923
20.1056
20.0913
20.1182
20.0763
20.1183
20.0761
20.08
20.08
20.0787
20.0787
20.0618
20.0618
20.0612
20.0612
20.0923
20.1066
20.0913
20.1056
20.0763
20.1182
20.0761
20.1183
20.0381
19.9653
20.0359
19.9621
20.1914
19.7578
20.1913
19.7534
19.9728
20.043
19.9688
20.0405
19.7681
20.1919
19.7627
20.1916
20.1092
20.095
20.1078
20.0936
20.1184
20.0776
20.1182
20.0768
20.0834
20.0834
20.0816
20.0816
20.064
20.064
20.0627
20.0627
20.095
20.1092
20.0936
20.1078
20.0776
20.1184
20.0768
20.1182
20.043
19.9728
20.0405
19.9688
20.1919
19.7681
20.1916
19.7627
19.9817
20.0485
19.9771
20.0457
19.7807
20.1929
19.7741
20.1924
20.1122
20.0986
20.1106
20.0967
20.1192
20.08
20.1187
20.0786
20.088
20.088
20.0856
20.0856
20.0676
20.0676
20.0656
20.0656
20.0986
20.1122
20.0967
20.1106
20.08
20.1192
20.0786
20.1187
20.0485
19.9817
20.0457
19.9771
20.1929
19.7807
20.1924
19.7741
19.9919
20.0545
19.9867
20.0515
19.7964
20.1936
19.7881
20.1933
20.1156
20.103
20.1139
20.1007
20.1206
20.0835
20.1198
20.0816
20.0935
20.0935
20.0906
20.0906
20.0725
20.0725
20.0699
20.0699
20.103
20.1156
20.1007
20.1139
20.0835
20.1205
20.0816
20.1198
20.0545
19.9919
20.0515
19.9867
20.1936
19.7964
20.1933
19.7881
20.0012
20.0625
19.9971
20.0579
19.8162
20.1926
19.8057
20.1934
20.1194
20.1083
20.1174
20.1055
20.1222
20.0883
20.1213
20.0858
20.1002
20.1002
20.0967
20.0967
20.0787
20.0787
20.0754
20.0754
20.1083
20.1194
20.1055
20.1174
20.0883
20.1222
20.0858
20.1213
20.0625
20.0012
20.0579
19.9971
20.1926
19.8162
20.1934
19.8057
20.0088
20.0722
20.0031
20.0693
19.8412
20.1878
19.828
20.191
20.125
20.1149
20.1219
20.1115
20.1246
20.0945
20.1233
20.0912
20.1079
20.1079
20.1039
20.1039
20.0863
20.0863
20.0824
20.0824
20.1149
20.125
20.1115
20.1219
20.0945
20.1246
20.0912
20.1232
20.0722
20.0088
20.0693
20.0031
20.1878
19.8412
20.1909
19.828
20.408
19.9497
20.3153
19.9824
20.3655
19.9379
20.2942
19.9726
19.9987
20.0652
20.0337
20.0826
20.0251
20.0818
20.0499
20.0925
20.0953
20.0953
20.102
20.102
20.0991
20.0991
20.103
20.103
20.0652
19.9987
20.0826
20.0337
20.0818
20.0251
20.0925
20.0499
19.9497
20.408
19.9824
20.3153
19.9379
20.3654
19.9726
20.2942
20.2791
20.0399
20.321
20.0175
20.2454
20.0178
20.2866
19.9967
20.0362
20.0675
20.0226
20.0662
20.0582
20.0846
20.0455
20.0826
20.0861
20.0861
20.0901
20.0901
20.0939
20.0939
20.0962
20.0962
20.0675
20.0363
20.0662
20.0226
20.0846
20.0582
20.0826
20.0455
20.0399
20.279
20.0175
20.321
20.0178
20.2454
19.9967
20.2865
20.2439
20.0455
20.2583
20.0454
20.206
20.0256
20.2226
20.0243
20.0522
20.0756
20.0458
20.0714
20.0755
20.0934
20.068
20.0889
20.0871
20.0871
20.0857
20.0857
20.0953
20.0953
20.0939
20.0939
20.0756
20.0522
20.0715
20.0458
20.0934
20.0755
20.0889
20.068
20.0455
20.2439
20.0454
20.2582
20.0256
20.206
20.0243
20.2226
20.2253
20.0409
20.2334
20.0435
20.1838
20.0224
20.1935
20.0245
20.059
20.0831
20.0564
20.0796
20.0846
20.102
20.0809
20.0979
20.0922
20.0922
20.0895
20.0895
20.1003
20.1003
20.0975
20.0975
20.0831
20.059
20.0796
20.0564
20.102
20.0846
20.0979
20.0809
20.0409
20.2253
20.0435
20.2334
20.0224
20.1838
20.0245
20.1935
20.214
20.0353
20.219
20.038
20.1702
20.0174
20.1763
20.0199
20.0612
20.0888
20.0605
20.0862
20.0883
20.1088
20.087
20.1056
20.0981
20.0981
20.0952
20.0952
20.1061
20.1061
20.1032
20.1032
20.0888
20.0613
20.0862
20.0605
20.1088
20.0883
20.1056
20.087
20.0353
20.214
20.0381
20.219
20.0174
20.1702
20.0199
20.1763
20.2064
20.0301
20.2098
20.0326
20.1612
20.0126
20.1653
20.0149
20.0616
20.0927
20.0616
20.0909
20.0893
20.1137
20.089
20.1115
20.1033
20.1033
20.1008
20.1008
20.1115
20.1115
20.1089
20.1089
20.0927
20.0616
20.0909
20.0616
20.1137
20.0893
20.1115
20.089
20.0301
20.2064
20.0326
20.2098
20.0126
20.1613
20.015
20.1653
20.2009
20.0255
20.2035
20.0277
20.1548
20.0083
20.1578
20.0103
20.0611
20.0954
20.0614
20.0942
20.0892
20.1172
20.0893
20.1156
20.1074
20.1075
20.1055
20.1055
20.1159
20.1159
20.1139
20.1139
20.0954
20.0611
20.0942
20.0614
20.1172
20.0892
20.1156
20.0893
20.0256
20.201
20.0277
20.2035
20.0083
20.1549
20.0103
20.1578
20.1968
20.0216
20.1987
20.0235
20.15
20.0045
20.1522
20.0063
20.0601
20.0971
20.0606
20.0964
20.0885
20.1195
20.0889
20.1185
20.1105
20.1105
20.1091
20.1091
20.1193
20.1193
20.1177
20.1177
20.0971
20.0601
20.0964
20.0606
20.1195
20.0885
20.1185
20.0889
20.0216
20.1968
20.0235
20.1988
20.0044
20.1502
20.0063
20.1524
20.1934
20.0182
20.195
20.0199
20.1461
20.0012
20.148
20.0028
20.0589
20.0979
20.0595
20.0976
20.0876
20.1209
20.0881
20.1203
20.1125
20.1125
20.1116
20.1116
20.1216
20.1216
20.1206
20.1205
20.0979
20.0589
20.0976
20.0595
20.1209
20.0875
20.1203
20.0881
20.0182
20.1935
20.0198
20.1951
20.0011
20.1464
20.0027
20.1482
20.1907
20.0151
20.192
20.0166
20.1431
19.9982
20.1445
19.9997
20.0574
20.0982
20.0582
20.0981
20.0864
20.1216
20.087
20.1213
20.1137
20.1137
20.1132
20.1132
20.123
20.123
20.1224
20.1224
20.0982
20.0574
20.0981
20.0582
20.1216
20.0864
20.1213
20.087
20.0151
20.1908
20.0166
20.1921
19.9981
20.1433
19.9995
20.1448
20.1883
20.0122
20.1894
20.0136
20.1406
19.9953
20.1418
19.9967
20.0558
20.0979
20.0567
20.0981
20.085
20.1216
20.0857
20.1217
20.1141
20.1141
20.114
20.114
20.1237
20.1237
20.1235
20.1235
20.0979
20.0558
20.0981
20.0567
20.1216
20.085
20.1217
20.0857
20.0122
20.1883
20.0136
20.1895
19.9953
20.1406
19.9967
20.1419
20.1861
20.0094
20.1872
20.0108
20.1384
19.9926
20.1394
19.9939
20.054
20.0971
20.055
20.0975
20.0833
20.1211
20.0842
20.1214
20.1139
20.1139
20.1141
20.1141
20.1236
20.1237
20.1238
20.1238
20.0971
20.0541
20.0975
20.055
20.1211
20.0834
20.1214
20.0842
20.0094
20.186
20.0108
20.1872
19.9927
20.1383
19.994
20.1395
20.1839
20.0067
20.185
20.008
20.1363
19.9899
20.1374
19.9912
20.0521
20.0959
20.0531
20.0965
20.0815
20.12
20.0824
20.1206
20.1131
20.1131
20.1136
20.1136
20.123
20.123
20.1234
20.1234
20.0959
20.0521
20.0966
20.0531
20.1201
20.0815
20.1206
20.0825
20.0067
20.1839
20.0081
20.185
19.99
20.1362
19.9913
20.1373
20.1817
20.0041
20.1828
20.0054
20.1341
19.9873
20.1352
19.9886
20.0501
20.0944
20.0511
20.0952
20.0795
20.1186
20.0805
20.1194
20.1119
20.1119
20.1126
20.1126
20.1218
20.1218
20.1225
20.1225
20.0944
20.0501
20.0952
20.0511
20.1186
20.0795
20.1194
20.0806
20.0041
20.1817
20.0054
20.1828
19.9874
20.1341
19.9886
20.1352
20.1792
20.0016
20.1805
20.0028
20.1319
19.9848
20.133
19.986
20.048
20.0926
20.049
20.0935
20.0773
20.1168
20.0784
20.1177
20.1103
20.1103
20.1111
20.1111
20.1202
20.1202
20.121
20.121
20.0926
20.0479
20.0935
20.049
20.1168
20.0773
20.1178
20.0785
20.0015
20.1793
20.0027
20.1806
19.9849
20.1318
19.9861
20.1329
20.177
19.9988
20.178
20.0003
20.1296
19.9821
20.1308
19.9835
20.0456
20.0906
20.0468
20.0916
20.0749
20.1146
20.0762
20.1157
20.1083
20.1083
20.1093
20.1093
20.1181
20.1181
20.1192
20.1192
20.0906
20.0456
20.0916
20.0468
20.1146
20.0749
20.1158
20.0762
19.9988
20.1771
20.0001
20.1782
19.982
20.1298
19.9834
20.1308
20.1747
19.9961
20.176
19.9973
20.1274
19.9795
20.1285
19.9808
20.0432
20.0883
20.0444
20.0895
20.0724
20.1122
20.0737
20.1134
20.1061
20.1061
20.1073
20.1073
20.1157
20.1157
20.117
20.117
20.0883
20.0431
20.0895
20.0444
20.1122
20.0725
20.1135
20.0737
19.9959
20.175
19.9973
20.1761
19.9796
20.1272
19.9808
20.1285
20.1724
19.9934
20.1736
19.9947
20.125
19.9767
20.1263
19.978
20.0407
20.0859
20.042
20.0871
20.0697
20.1094
20.0711
20.1108
20.1037
20.1037
20.1049
20.1049
20.113
20.113
20.1144
20.1144
20.0859
20.0407
20.0871
20.0419
20.1094
20.0697
20.1109
20.0711
19.9935
20.1724
19.9946
20.1737
19.9767
20.1249
19.9782
20.126
20.1695
19.9911
20.1709
19.9923
20.1221
19.9743
20.1235
19.9755
20.0384
20.0834
20.0396
20.0846
20.067
20.1065
20.0684
20.108
20.1011
20.1011
20.1024
20.1024
20.11
20.11
20.1116
20.1116
20.0833
20.0382
20.0846
20.0395
20.1064
20.067
20.108
20.0684
19.9908
20.17
19.992
20.1712
19.9743
20.1221
19.9755
20.1235
20.1675
19.9884
20.1686
19.9897
20.1195
19.9717
20.1209
19.973
20.0359
20.0808
20.0371
20.0821
20.0642
20.1032
20.0656
20.1049
20.0984
20.0984
20.0997
20.0997
20.1069
20.1069
20.1085
20.1085
20.0808
20.036
20.0821
20.0371
20.1032
20.064
20.1049
20.0655
19.9886
20.1673
19.9896
20.1686
19.9714
20.1199
19.9728
20.121
20.1646
19.9865
20.166
19.9874
20.1167
19.9694
20.1181
19.9705
20.0338
20.0783
20.0348
20.0796
20.0614
20.0999
20.0628
20.1016
20.0957
20.0957
20.0971
20.0971
20.1037
20.1036
20.1053
20.1053
20.0783
20.0336
20.0795
20.0348
20.0999
20.0613
20.1015
20.0627
19.9861
20.1652
19.9873
20.1662
19.9692
20.117
19.9702
20.1186
20.1631
19.9841
20.1639
19.9852
20.1146
19.9668
20.1157
19.9681
20.0316
20.0759
20.0327
20.0771
20.0585
20.0972
20.06
20.0986
20.0931
20.0931
20.0945
20.0945
20.1004
20.1004
20.102
20.102
20.0759
20.0316
20.0771
20.0326
20.0972
20.0585
20.0986
20.0599
19.9843
20.1628
19.9852
20.1639
19.9668
20.1146
19.968
20.1157
20.1608
19.9826
20.162
19.9832
20.1122
19.9648
20.1134
19.9657
20.0299
20.0739
20.0307
20.0748
20.0559
20.0944
20.0572
20.0958
20.0907
20.0907
20.0919
20.0919
20.0972
20.0972
20.0988
20.0988
20.0738
20.0298
20.0748
20.0307
20.0944
20.0559
20.0958
20.0572
19.9825
20.1611
19.9833
20.162
19.9648
20.1123
19.9658
20.1134
20.1595
19.9813
20.16
19.9819
20.1105
19.963
20.1113
19.9638
20.0284
20.0721
20.0291
20.073
20.0532
20.0916
20.0545
20.0929
20.0886
20.0886
20.0896
20.0896
20.0942
20.0942
20.0957
20.0957
20.0721
20.0285
20.0729
20.0291
20.0916
20.0532
20.0929
20.0545
19.9814
20.1593
19.9818
20.1602
19.9628
20.1107
19.9637
20.1115
20.1581
19.9807
20.1588
19.9809
20.1087
19.9618
20.1095
19.9623
20.0276
20.0708
20.0279
20.0714
20.0506
20.0891
20.052
20.0903
20.0868
20.0868
20.0877
20.0877
20.0915
20.0915
20.0928
20.0928
20.0707
20.0275
20.0714
20.0279
20.0891
20.0506
20.0903
20.0519
19.9806
20.1585
19.9809
20.1588
19.9617
20.1088
19.9622
20.1097
20.1581
19.9803
20.158
19.9804
20.1079
19.9608
20.1083
19.9612
20.0274
20.0698
20.0275
20.0703
20.0485
20.087
20.0492
20.088
20.0855
20.0855
20.0861
20.0861
20.0891
20.0891
20.0903
20.0903
20.0699
20.0275
20.0702
20.0274
20.087
20.0485
20.088
20.0491
19.9805
20.1577
19.9804
20.158
19.9608
20.1079
19.9612
20.1083
20.1575
19.9809
20.1578
19.9804
20.1071
19.9608
20.1075
19.9607
20.0274
20.0694
20.0273
20.0695
20.0492
20.0855
20.0489
20.0862
20.0847
20.0847
20.085
20.085
20.0872
20.0872
20.0881
20.0881
20.0694
20.0274
20.0696
20.0273
20.0855
20.0493
20.0862
20.049
19.9808
20.1578
19.9805
20.1577
19.9609
20.1071
19.9608
20.1074
20.1583
19.9821
20.1578
19.9813
20.1073
19.9614
20.1072
19.9609
20.0283
20.0696
20.0278
20.0694
20.0497
20.0845
20.0495
20.0849
20.0844
20.0844
20.0845
20.0845
20.0858
20.0858
20.0864
20.0864
20.0696
20.0284
20.0694
20.0278
20.0845
20.0497
20.0849
20.0495
19.9822
20.1582
19.9813
20.1579
19.9614
20.1073
19.961
20.1071
20.1596
19.9843
20.1589
19.9831
20.1078
19.963
20.1075
19.9621
20.03
20.0705
20.0291
20.07
20.0507
20.0842
20.0501
20.0842
20.0849
20.0849
20.0846
20.0846
20.0851
20.0851
20.0853
20.0853
20.0705
20.03
20.07
20.0291
20.0842
20.0507
20.0842
20.0501
19.9843
20.1596
19.9831
20.1588
19.963
20.1078
19.9621
20.1074
20.1615
19.9875
20.1605
19.9857
20.1093
19.9651
20.1084
19.9639
20.0325
20.0721
20.0312
20.0712
20.0522
20.0845
20.0514
20.0842
20.0861
20.0861
20.0854
20.0854
20.0852
20.0852
20.085
20.085
20.0721
20.0325
20.0712
20.0312
20.0845
20.0522
20.0843
20.0514
19.9876
20.1615
19.9858
20.1605
19.9651
20.1093
19.964
20.1084
20.1642
19.9924
20.1628
19.9898
20.1115
19.9677
20.1103
19.9663
20.0358
20.0745
20.034
20.0732
20.0544
20.0856
20.0532
20.085
20.088
20.088
20.0869
20.0869
20.0861
20.0861
20.0855
20.0855
20.0745
20.0358
20.0732
20.034
20.0857
20.0544
20.085
20.0532
19.9924
20.1642
19.9898
20.1628
19.9677
20.1115
19.9663
20.1103
20.1675
19.9956
20.1658
19.9938
20.1147
19.9727
20.1131
19.9701
20.0396
20.0776
20.0376
20.076
20.0574
20.0875
20.0559
20.0865
20.0907
20.0907
20.0893
20.0893
20.0878
20.0878
20.0868
20.0868
20.0776
20.0396
20.076
20.0376
20.0875
20.0575
20.0865
20.0559
19.9956
20.1675
19.9938
20.1658
19.9727
20.1147
19.9701
20.1131
20.1714
20.0003
20.1694
19.9978
20.1188
19.9782
20.1167
19.9754
20.0442
20.0814
20.0418
20.0795
20.0612
20.0902
20.0592
20.0888
20.0942
20.0942
20.0924
20.0924
20.0904
20.0904
20.089
20.089
20.0814
20.0442
20.0795
20.0418
20.0902
20.0612
20.0888
20.0592
20.0003
20.1714
19.9978
20.1694
19.9782
20.1188
19.9754
20.1167
20.1758
20.0059
20.1736
20.003
20.1236
19.9842
20.1211
19.9811
20.0494
20.0859
20.0467
20.0836
20.0655
20.0936
20.0632
20.0918
20.0983
20.0983
20.0962
20.0962
20.0939
20.0939
20.0921
20.0921
20.0859
20.0494
20.0836
20.0467
20.0936
20.0655
20.0918
20.0633
20.0059
20.1758
20.003
20.1736
19.9842
20.1236
19.9811
20.1211
20.1803
20.0121
20.1781
20.0089
20.1291
19.991
20.1263
19.9875
20.0551
20.0908
20.0521
20.0883
20.0704
20.0977
20.0679
20.0956
20.1031
20.1031
20.1006
20.1006
20.0982
20.0982
20.096
20.096
20.0908
20.0551
20.0883
20.0522
20.0977
20.0704
20.0956
20.0679
20.0121
20.1803
20.0089
20.1781
19.991
20.1291
19.9875
20.1263
20.1842
20.019
20.1824
20.0154
20.135
19.9986
20.1321
19.9946
20.0612
20.0961
20.0581
20.0934
20.0757
20.1023
20.073
20.0999
20.1084
20.1084
20.1057
20.1057
20.1033
20.1033
20.1007
20.1007
20.0961
20.0612
20.0934
20.0581
20.1023
20.0757
20.0999
20.073
20.019
20.1842
20.0154
20.1824
19.9986
20.135
19.9947
20.1321
20.1863
20.0274
20.1857
20.0229
20.1403
20.0074
20.1378
20.0028
20.0678
20.1017
20.0645
20.0989
20.0814
20.1074
20.0785
20.1048
20.1142
20.1142
20.1112
20.1112
20.1091
20.1091
20.1061
20.1061
20.1017
20.0678
20.0989
20.0645
20.1074
20.0814
20.1048
20.0785
20.0274
20.1863
20.0229
20.1857
20.0074
20.1403
20.0028
20.1378
20.18
20.0423
20.1852
20.0332
20.1404
20.0206
20.1418
20.013
20.0748
20.1075
20.0712
20.1046
20.0873
20.113
20.0842
20.1101
20.1206
20.1206
20.1173
20.1173
20.1156
20.1156
20.1123
20.1123
20.1075
20.0748
20.1046
20.0712
20.113
20.0873
20.1101
20.0842
20.0423
20.18
20.0332
20.1852
20.0206
20.1404
20.013
20.1418
20.1971
20.0364
20.1739
20.0528
20.1561
20.018
20.1377
20.0291
20.0772
20.1143
20.0782
20.1107
20.0915
20.1199
20.0905
20.1163
20.1276
20.1276
20.124
20.124
20.1229
20.1229
20.1192
20.1192
20.1143
20.0772
20.1107
20.0782
20.1199
20.0915
20.1163
20.0905
20.0364
20.1971
20.0528
20.1739
20.018
20.1561
20.0291
20.1376
20.4256
19.9863
20.3234
20.0076
20.4204
19.9702
20.3212
19.9967
19.9824
20.0434
20.0234
20.0693
19.9867
20.0522
20.026
20.0746
20.0805
20.0805
20.0943
20.0943
20.088
20.088
20.0986
20.0986
20.0434
19.9824
20.0693
20.0234
20.0522
19.9867
20.0746
20.0261
19.9863
20.4255
20.0076
20.3234
19.9702
20.4204
19.9967
20.3211
20.2725
20.0939
20.3201
20.0683
20.2791
20.0705
20.3237
20.0458
20.0329
20.047
20.015
20.0453
20.0306
20.0549
20.0153
20.0535
20.0653
20.0653
20.0719
20.0719
20.0756
20.0756
20.0809
20.0809
20.047
20.0329
20.0454
20.015
20.0549
20.0306
20.0535
20.0153
20.0939
20.2725
20.0683
20.3201
20.0705
20.2791
20.0458
20.3237
20.238
20.0993
20.2514
20.0995
20.245
20.0756
20.2585
20.076
20.0503
20.0546
20.0439
20.0507
20.047
20.0627
20.0406
20.0587
20.0645
20.0645
20.0637
20.0637
20.0754
20.0754
20.0744
20.0744
20.0546
20.0503
20.0507
20.044
20.0627
20.047
20.0587
20.0406
20.0993
20.238
20.0995
20.2514
20.0756
20.245
20.076
20.2585
20.2215
20.0945
20.2286
20.0972
20.228
20.0706
20.2353
20.0733
20.0555
20.061
20.0537
20.0581
20.0529
20.0693
20.0508
20.0662
20.0693
20.0693
20.0666
20.0666
20.0805
20.0805
20.0777
20.0777
20.061
20.0556
20.0581
20.0537
20.0693
20.0529
20.0663
20.0509
20.0945
20.2215
20.0972
20.2285
20.0706
20.2279
20.0733
20.2353
20.2116
20.0891
20.216
20.0917
20.2176
20.0651
20.2223
20.0678
20.0567
20.0654
20.0564
20.0634
20.0545
20.0741
20.054
20.0719
20.0746
20.0746
20.072
20.072
20.0861
20.0861
20.0834
20.0834
20.0654
20.0567
20.0634
20.0564
20.0741
20.0545
20.0719
20.054
20.0891
20.2116
20.0917
20.216
20.0651
20.2176
20.0678
20.2222
20.2049
20.0843
20.208
20.0866
20.2107
20.0601
20.2139
20.0625
20.0565
20.0682
20.0567
20.067
20.0545
20.0773
20.0546
20.0759
20.0791
20.0791
20.077
20.077
20.091
20.091
20.0887
20.0887
20.0683
20.0565
20.067
20.0567
20.0774
20.0545
20.0759
20.0546
20.0843
20.2049
20.0866
20.208
20.0601
20.2107
20.0625
20.2139
20.2
20.0802
20.2023
20.0821
20.2056
20.0559
20.208
20.0579
20.0558
20.0699
20.0562
20.0692
20.0537
20.0795
20.0541
20.0785
20.0824
20.0824
20.0809
20.0809
20.0947
20.0947
20.093
20.093
20.07
20.0558
20.0692
20.0562
20.0795
20.0537
20.0785
20.0541
20.0802
20.2001
20.0822
20.2023
20.0559
20.2056
20.0579
20.208
20.1963
20.0767
20.1981
20.0784
20.2017
20.0522
20.2036
20.054
20.0548
20.0709
20.0553
20.0705
20.0526
20.0807
20.0532
20.0802
20.0846
20.0846
20.0836
20.0836
20.0973
20.0973
20.0961
20.0961
20.0709
20.0548
20.0705
20.0553
20.0807
20.0526
20.0802
20.0532
20.0767
20.1963
20.0784
20.1981
20.0522
20.2018
20.054
20.2036
20.1932
20.0736
20.1947
20.0751
20.1986
20.0489
20.2001
20.0505
20.0535
20.0712
20.0542
20.0711
20.0513
20.0812
20.0519
20.081
20.086
20.086
20.0854
20.0854
20.099
20.099
20.0983
20.0983
20.0711
20.0535
20.0711
20.0542
20.0812
20.0513
20.081
20.0519
20.0736
20.1932
20.0751
20.1947
20.0489
20.1986
20.0505
20.2001
20.1906
20.0707
20.1918
20.0721
20.1959
20.046
20.1972
20.0474
20.052
20.0709
20.0528
20.0711
20.0497
20.0812
20.0505
20.0813
20.0866
20.0866
20.0864
20.0864
20.0998
20.0998
20.0995
20.0995
20.0709
20.052
20.0711
20.0528
20.0812
20.0497
20.0813
20.0505
20.0707
20.1906
20.0721
20.1919
20.046
20.196
20.0474
20.1973
20.1882
20.0681
20.1894
20.0694
20.1936
20.0432
20.1947
20.0445
20.0504
20.0702
20.0512
20.0706
20.048
20.0807
20.0489
20.081
20.0866
20.0866
20.0867
20.0867
20.1
20.1
20.1
20.1
20.0702
20.0504
20.0706
20.0512
20.0807
20.0481
20.081
20.0489
20.0681
20.1882
20.0694
20.1894
20.0432
20.1936
20.0445
20.1948
20.186
20.0655
20.1871
20.0667
20.1914
20.0405
20.1925
20.0418
20.0486
20.0692
20.0495
20.0698
20.0462
20.0797
20.0471
20.0802
20.0861
20.0861
20.0864
20.0864
20.0997
20.0997
20.0999
20.0999
20.0692
20.0486
20.0698
20.0495
20.0797
20.0462
20.0802
20.0472
20.0655
20.186
20.0668
20.1871
20.0405
20.1914
20.0418
20.1925
20.1839
20.063
20.185
20.0642
20.1892
20.0379
20.1903
20.0392
20.0467
20.0679
20.0476
20.0686
20.0442
20.0785
20.0452
20.0791
20.0852
20.0852
20.0857
20.0857
20.0988
20.0988
20.0993
20.0993
20.0679
20.0467
20.0686
20.0476
20.0785
20.0443
20.0791
20.0453
20.063
20.1839
20.0642
20.185
20.0379
20.1892
20.0392
20.1903
20.1817
20.0605
20.1828
20.0617
20.187
20.0353
20.1881
20.0366
20.0446
20.0663
20.0456
20.0671
20.0422
20.0769
20.0432
20.0777
20.0839
20.0839
20.0846
20.0846
20.0976
20.0976
20.0982
20.0982
20.0663
20.0446
20.0671
20.0456
20.0769
20.0422
20.0777
20.0432
20.0605
20.1817
20.0617
20.1828
20.0353
20.187
20.0366
20.1882
20.1795
20.058
20.1806
20.0593
20.1847
20.0328
20.1859
20.034
20.0425
20.0645
20.0435
20.0655
20.04
20.0751
20.0411
20.0761
20.0824
20.0824
20.0832
20.0832
20.096
20.096
20.0968
20.0968
20.0645
20.0425
20.0654
20.0435
20.0751
20.04
20.076
20.0411
20.0581
20.1795
20.0592
20.1807
20.0328
20.1848