/*--------------------------------*- C++ -*----------------------------------*\
  =========                 |
  \\      /  F ield         | OpenFOAM: The Open Source CFD Toolbox
   \\    /   O peration     | Website:  https://openfoam.org
    \\  /    A nd           | Version:  9
     \\/     M anipulation  |
\*---------------------------------------------------------------------------*/
FoamFile
{
    format      ascii;
    class       surfaceScalarField;
    location    "0.9";
    object      phi;
}
// * * * * * * * * * * * * * * * * * * * * * * * * * * * * * * * * * * * * * //

dimensions      [0 3 -1 0 0 0 0];

internalField   nonuniform List<scalar> 
104044
(
-3.73245e-11
-2.87569e-05
-3.63448e-09
2.87491e-05
1.14656e-08
-2.8757e-05
-3.60487e-09
-2.6347e-13
2.87491e-05
1.14287e-08
4.03656e-11
-5.15019e-09
1.32177e-08
-5.19501e-09
2.37615e-12
1.32457e-08
-2.55192e-11
-1.00209e-05
1.00173e-05
-1.00209e-05
-1.17947e-12
1.00173e-05
3.86701e-11
2.80247e-12
1.11577e-12
-2.8757e-05
-3.59856e-09
2.87491e-05
1.14222e-08
-2.8757e-05
-3.59859e-09
4.65138e-13
2.87491e-05
1.14219e-08
-1.91158e-13
-5.19936e-09
1.32579e-08
-5.20014e-09
-3.73841e-14
1.32606e-08
5.97875e-13
-1.00209e-05
1.00173e-05
-1.00209e-05
4.56673e-13
1.00173e-05
-2.86498e-14
-7.8797e-15
1.12003e-14
-2.8757e-05
-3.59909e-09
2.87491e-05
1.14225e-08
-2.8757e-05
-3.59919e-09
-4.39329e-13
2.87491e-05
1.14228e-08
1.40147e-14
-5.20035e-09
1.32614e-08
-5.2005e-09
6.16159e-14
1.32618e-08
1.82843e-14
-1.00209e-05
1.00173e-05
-1.00209e-05
-4.17695e-13
1.00173e-05
1.76064e-14
4.42102e-14
-1.09052e-12
-2.8757e-05
-3.59889e-09
2.87491e-05
1.14228e-08
-2.8757e-05
-3.59904e-09
2.74705e-13
2.87491e-05
1.14236e-08
2.19692e-13
-5.20057e-09
1.32616e-08
-5.20005e-09
-2.35024e-12
1.32596e-08
-5.49783e-13
-1.00209e-05
1.00173e-05
-1.00209e-05
1.21468e-12
1.00173e-05
5.98656e-14
-2.77261e-12
3.73618e-11
-2.8757e-05
-3.60548e-09
2.87492e-05
1.14306e-08
-2.87569e-05
-3.63516e-09
2.87491e-05
1.14676e-08
-4.03405e-11
-5.19589e-09
1.32479e-08
-5.15115e-09
1.322e-08
2.55463e-11
-1.00209e-05
1.00173e-05
-1.00209e-05
1.00173e-05
-3.86901e-11
-7.2127e-12
-2.87414e-05
-3.1007e-09
2.87332e-05
1.13777e-08
-2.87415e-05
-3.10693e-09
-4.38066e-13
2.87332e-05
1.13796e-08
-1.23812e-11
-3.05188e-09
1.07282e-08
-3.05696e-09
2.02825e-12
1.07241e-08
-2.76722e-12
-1.00142e-05
1.00111e-05
-1.00142e-05
-6.01204e-13
1.00111e-05
-8.40601e-12
8.58739e-13
1.06307e-12
-2.87415e-05
-3.10676e-09
2.87332e-05
1.1383e-08
-2.87415e-05
-3.10812e-09
7.11011e-13
2.87332e-05
1.13852e-08
2.09463e-12
-3.06044e-09
1.07291e-08
-3.06366e-09
6.64613e-13
1.07328e-08
8.42313e-13
-1.00142e-05
1.00111e-05
-1.00142e-05
6.97615e-13
1.00111e-05
1.72928e-12
7.49721e-13
6.47526e-14
-2.87415e-05
-3.10884e-09
2.87332e-05
1.13863e-08
-2.87415e-05
-3.10891e-09
-5.86692e-13
2.87332e-05
1.13866e-08
2.4781e-14
-3.06502e-09
1.07345e-08
-3.0651e-09
-6.22337e-13
1.07348e-08
6.86775e-14
-1.00142e-05
1.00111e-05
-1.00142e-05
-5.64192e-13
1.00111e-05
2.7986e-14
-6.90199e-13
-9.48529e-13
-2.87415e-05
-3.10833e-09
2.87332e-05
1.13859e-08
-2.87415e-05
-3.10708e-09
5.05821e-13
2.87332e-05
1.13841e-08
-2.05785e-12
-3.0639e-09
1.07336e-08
-3.06081e-09
-1.98908e-12
1.07304e-08
-7.09412e-13
-1.00142e-05
1.00111e-05
-1.00142e-05
7.03996e-13
1.00111e-05
-1.66797e-12
-7.86021e-13
7.08493e-12
-2.87415e-05
-3.10732e-09
2.87332e-05
1.1381e-08
-2.87414e-05
-3.10106e-09
2.87332e-05
1.13794e-08
1.24035e-11
-3.05742e-09
1.07257e-08
-3.05233e-09
1.073e-08
2.751e-12
-1.00142e-05
1.00111e-05
-1.00142e-05
1.00111e-05
8.48272e-12
-6.46553e-12
-2.87239e-05
-4.02581e-09
2.87129e-05
1.50491e-08
-2.87239e-05
-4.03011e-09
-9.36898e-13
2.87129e-05
1.50485e-08
-6.90929e-12
-3.40554e-09
1.27029e-08
-3.40888e-09
-9.9497e-13
1.27025e-08
-2.13654e-13
-1.00077e-05
1.00037e-05
-1.00077e-05
-1.50827e-12
1.00037e-05
-1.42226e-12
-1.52141e-12
4.14363e-13
-2.87239e-05
-4.02709e-09
2.87129e-05
1.50497e-08
-2.87239e-05
-4.02777e-09
5.61988e-13
2.87129e-05
1.50508e-08
6.46073e-13
-3.4064e-09
1.27038e-08
-3.40718e-09
6.66388e-13
1.27051e-08
1.17922e-13
-1.00077e-05
1.00037e-05
-1.00077e-05
4.94094e-13
1.00037e-05
3.39114e-13
6.09344e-13
1.08484e-13
-2.87239e-05
-4.02831e-09
2.87129e-05
1.50516e-08
-2.87239e-05
-4.02836e-09
-3.47621e-13
2.87129e-05
1.50518e-08
1.0096e-13
-3.40778e-09
1.2706e-08
-3.40784e-09
-4.67923e-13
1.27063e-08
1.13082e-13
-1.00077e-05
1.00037e-05
-1.00077e-05
-2.68957e-13
1.00037e-05
1.02973e-13
-4.00963e-13
-2.08485e-13
-2.87239e-05
-4.02792e-09
2.87129e-05
1.50514e-08
-2.87239e-05
-4.0273e-09
1.06168e-12
2.87129e-05
1.50506e-08
-4.4399e-13
-3.40737e-09
1.27058e-08
-3.40666e-09
1.17512e-12
1.27048e-08
9.34592e-14
-1.00077e-05
1.00037e-05
-1.00077e-05
1.69423e-12
1.00037e-05
-1.31599e-13
1.75536e-12
6.18469e-12
-2.87239e-05
-4.03036e-09
2.87129e-05
1.50496e-08
-2.87239e-05
-4.02592e-09
2.87129e-05
1.50505e-08
6.91314e-12
-3.40919e-09
1.27038e-08
-3.40572e-09
1.27045e-08
2.24951e-13
-1.00077e-05
1.00037e-05
-1.00077e-05
1.00037e-05
1.72332e-12
-6.16147e-12
-2.86999e-05
-5.76152e-09
2.86842e-05
2.13948e-08
-2.86999e-05
-5.76838e-09
-6.06158e-13
2.86842e-05
2.13933e-08
-5.89859e-12
-4.76441e-09
1.77563e-08
-4.76992e-09
-7.60238e-13
1.77555e-08
2.23074e-12
-9.99892e-06
9.99316e-06
-9.99893e-06
-1.09092e-12
9.99316e-06
1.23957e-12
-1.2904e-12
1.63511e-13
-2.86999e-05
-5.76423e-09
2.86843e-05
2.13946e-08
-2.86999e-05
-5.76459e-09
3.4499e-13
2.86843e-05
2.13952e-08
2.25241e-13
-4.76641e-09
1.77568e-08
-4.7669e-09
4.25531e-13
1.77576e-08
-1.37894e-13
-9.99893e-06
9.99316e-06
-9.99893e-06
2.49257e-13
9.99317e-06
-4.19134e-14
3.52809e-13
6.25157e-14
-2.86999e-05
-5.76498e-09
2.86843e-05
2.13958e-08
-2.86999e-05
-5.76502e-09
-2.27089e-13
2.86843e-05
2.13959e-08
8.2876e-14
-4.76735e-09
1.77583e-08
-4.76739e-09
-2.61377e-13
1.77584e-08
5.73113e-14
-9.99893e-06
9.99317e-06
-9.99893e-06
-1.36987e-13
9.99317e-06
8.71849e-14
-1.76359e-13
-5.5621e-14
-2.86999e-05
-5.7647e-09
2.86843e-05
2.13956e-08
-2.86999e-05
-5.76438e-09
6.84604e-13
2.86843e-05
2.13951e-08
-6.5971e-14
-4.76702e-09
1.7758e-08
-4.76658e-09
9.18579e-13
1.77575e-08
2.37556e-13
-9.99893e-06
9.99317e-06
-9.99893e-06
1.19714e-12
9.99317e-06
2.31011e-13
1.50476e-12
6.1317e-12
-2.86999e-05
-5.76858e-09
2.86842e-05
2.1394e-08
-2.86999e-05
-5.7617e-09
2.86842e-05
2.13956e-08
5.92191e-12
-4.77013e-09
1.77564e-08
-4.76449e-09
1.77575e-08
-2.20797e-12
-9.99893e-06
9.99316e-06
-9.99892e-06
9.99316e-06
-9.61933e-13
-7.34019e-12
-2.86659e-05
-8.04832e-09
2.86443e-05
2.97176e-08
-2.86659e-05
-8.0581e-09
-2.21991e-13
2.86443e-05
2.9715e-08
-6.45596e-12
-6.78065e-09
2.50959e-08
-6.78885e-09
-4.00825e-13
2.5094e-08
4.20698e-12
-9.98637e-06
9.97832e-06
-9.98638e-06
-9.14781e-13
9.97832e-06
3.2716e-12
-9.6744e-13
2.15324e-13
-2.86659e-05
-8.05242e-09
2.86443e-05
2.97165e-08
-2.86659e-05
-8.0527e-09
3.08446e-13
2.86443e-05
2.97171e-08
1.6719e-13
-6.78402e-09
2.50954e-08
-6.78433e-09
3.03337e-13
2.5096e-08
-1.70609e-13
-9.98638e-06
9.97833e-06
-9.98638e-06
1.92343e-13
9.97833e-06
-1.54323e-13
1.93171e-13
1.11575e-13
-2.86659e-05
-8.05303e-09
2.86443e-05
2.97175e-08
-2.86659e-05
-8.05306e-09
-1.07022e-13
2.86443e-05
2.97176e-08
6.4003e-14
-6.78468e-09
2.50965e-08
-6.78472e-09
-1.84853e-13
2.50966e-08
8.89289e-14
-9.98638e-06
9.97833e-06
-9.98638e-06
-3.13256e-14
9.97833e-06
4.61768e-14
-9.97207e-14
-4.41929e-14
-2.86659e-05
-8.05276e-09
2.86443e-05
2.97173e-08
-2.86659e-05
-8.05251e-09
3.55894e-13
2.86443e-05
2.97168e-08
-5.88317e-14
-6.78442e-09
2.50962e-08
-6.78414e-09
4.86841e-13
2.50958e-08
3.12463e-13
-9.98638e-06
9.97833e-06
-9.98638e-06
1.02812e-12
9.97833e-06
2.53244e-13
1.04642e-12
7.36179e-12
-2.86659e-05
-8.05821e-09
2.86443e-05
2.97154e-08
-2.86659e-05
-8.0484e-09
2.86443e-05
2.97181e-08
6.53064e-12
-6.78899e-09
2.50946e-08
-6.7808e-09
2.50966e-08
-4.15343e-12
-9.98638e-06
9.97832e-06
-9.98637e-06
9.97832e-06
-3.2161e-12
-9.36957e-12
-2.86194e-05
-1.07357e-08
2.85906e-05
3.95322e-08
-2.86194e-05
-1.07489e-08
1.40098e-14
2.85906e-05
3.95283e-08
-8.18765e-12
-9.25692e-09
3.41202e-08
-9.26813e-09
-9.5062e-14
3.41171e-08
5.88929e-12
-9.96906e-06
9.95832e-06
-9.96906e-06
-9.09294e-13
9.95832e-06
5.0826e-12
-8.7653e-13
2.90531e-13
-2.86194e-05
-1.07414e-08
2.85906e-05
3.95302e-08
-2.86194e-05
-1.07416e-08
2.75511e-13
2.85906e-05
3.95308e-08
2.64294e-13
-9.26165e-09
3.41188e-08
-9.26189e-09
3.04581e-13
3.41194e-08
-2.29871e-13
-9.96907e-06
9.95832e-06
-9.96907e-06
1.62883e-13
9.95833e-06
-1.85398e-13
1.77093e-13
1.1383e-13
-2.86194e-05
-1.0742e-08
2.85906e-05
3.95311e-08
-2.86194e-05
-1.0742e-08
-6.80682e-14
2.85906e-05
3.95311e-08
1.24492e-13
-9.26222e-09
3.41198e-08
-9.26225e-09
-6.78306e-14
3.41198e-08
1.14249e-13
-9.96907e-06
9.95833e-06
-9.96907e-06
4.89119e-14
9.95833e-06
1.02857e-13
3.05953e-14
-1.09062e-13
-2.86194e-05
-1.07416e-08
2.85906e-05
3.95308e-08
-2.86194e-05
-1.07414e-08
1.19053e-13
2.85906e-05
3.95303e-08
-4.19798e-14
-9.26193e-09
3.41195e-08
-9.26168e-09
2.56938e-13
3.4119e-08
4.21171e-13
-9.96907e-06
9.95833e-06
-9.96907e-06
1.06913e-12
9.95832e-06
3.93135e-13
1.04465e-12
9.32372e-12
-2.86194e-05
-1.07488e-08
2.85906e-05
3.95283e-08
-2.86194e-05
-1.07356e-08
2.85906e-05
3.95323e-08
8.20795e-12
-9.26815e-09
3.41173e-08
-9.25684e-09
3.41205e-08
-5.87867e-12
-9.96906e-06
9.95832e-06
-9.96906e-06
9.95832e-06
-4.94457e-12
-1.14942e-11
-2.85582e-05
-1.37496e-08
2.85214e-05
5.05883e-08
-2.85582e-05
-1.37664e-08
2.68563e-13
2.85214e-05
5.0583e-08
-1.02831e-11
-1.20881e-08
4.44828e-08
-1.21028e-08
1.22098e-13
4.44784e-08
7.84804e-12
-9.94622e-06
9.93247e-06
-9.94623e-06
-9.35437e-13
9.93247e-06
6.85186e-12
-9.11223e-13
3.97329e-13
-2.85582e-05
-1.3757e-08
2.85214e-05
5.05855e-08
-2.85582e-05
-1.37572e-08
2.34051e-13
2.85214e-05
5.05861e-08
3.41224e-13
-1.20945e-08
4.44806e-08
-1.20947e-08
2.5262e-13
4.44812e-08
-2.87627e-13
-9.94623e-06
9.93247e-06
-9.94623e-06
1.03317e-13
9.93247e-06
-2.54606e-13
1.22776e-13
3.91526e-14
-2.85583e-05
-1.37576e-08
2.85214e-05
5.05864e-08
-2.85583e-05
-1.37576e-08
-1.75622e-13
2.85214e-05
5.05864e-08
6.41212e-14
-1.20951e-08
4.44815e-08
-1.20951e-08
-1.27586e-13
4.44815e-08
2.91988e-14
-9.94623e-06
9.93247e-06
-9.94623e-06
-5.04237e-14
9.93248e-06
6.29537e-14
1.7827e-14
-3.46204e-13
-2.85582e-05
-1.37572e-08
2.85214e-05
5.0586e-08
-2.85582e-05
-1.3757e-08
-2.09108e-13
2.85214e-05
5.05855e-08
-2.13665e-13
-1.20947e-08
4.44811e-08
-1.20944e-08
-3.04728e-14
4.44806e-08
3.39155e-13
-9.94623e-06
9.93247e-06
-9.94623e-06
9.97577e-13
9.93247e-06
4.13393e-13
1.0425e-12
1.15608e-11
-2.85582e-05
-1.37664e-08
2.85214e-05
5.05829e-08
-2.85583e-05
-1.37496e-08
2.85214e-05
5.05883e-08
1.031e-11
-1.21027e-08
4.44783e-08
-1.2088e-08
4.44827e-08
-7.83166e-12
-9.94623e-06
9.93247e-06
-9.94622e-06
9.93247e-06
-6.74094e-12
-1.38617e-11
-2.84806e-05
-1.70882e-08
2.84349e-05
6.2881e-08
-2.84806e-05
-1.71089e-08
5.81499e-13
2.84348e-05
6.28741e-08
-1.26163e-11
-1.52284e-08
5.60244e-08
-1.52468e-08
3.84887e-13
5.60186e-08
1.01751e-11
-9.91723e-06
9.90013e-06
-9.91723e-06
-9.38642e-13
9.90013e-06
8.79929e-12
-9.39114e-13
5.66227e-13
-2.84806e-05
-1.70973e-08
2.84348e-05
6.28772e-08
-2.84806e-05
-1.70976e-08
2.37203e-13
2.84349e-05
6.28778e-08
4.8962e-13
-1.52365e-08
5.60214e-08
-1.52367e-08
2.45004e-13
5.6022e-08
-2.97395e-13
-9.91723e-06
9.90014e-06
-9.91724e-06
9.03269e-14
9.90014e-06
-2.86618e-13
8.00119e-14
-9.53849e-15
-2.84806e-05
-1.70981e-08
2.84349e-05
6.28782e-08
-2.84806e-05
-1.70981e-08
-2.82134e-13
2.84349e-05
6.28782e-08
1.28741e-15
-1.52371e-08
5.60223e-08
-1.52372e-08
-2.44978e-13
5.60224e-08
-5.29726e-14
-9.91724e-06
9.90014e-06
-9.91724e-06
-1.99244e-13
9.90014e-06
-3.65452e-14
-1.2478e-13
-6.06108e-13
-2.84806e-05
-1.70977e-08
2.84349e-05
6.28779e-08
-2.84806e-05
-1.70974e-08
-5.55343e-13
2.84349e-05
6.28773e-08
-4.67774e-13
-1.52368e-08
5.6022e-08
-1.52365e-08
-3.68918e-13
5.60215e-08
1.93163e-13
-9.91724e-06
9.90014e-06
-9.91724e-06
8.74031e-13
9.90014e-06
2.82008e-13
9.15337e-13
1.40217e-11
-2.84806e-05
-1.7109e-08
2.84348e-05
6.28742e-08
-2.84806e-05
-1.70883e-08
2.84349e-05
6.28812e-08
1.26111e-11
-1.52469e-08
5.60187e-08
-1.52284e-08
5.60246e-08
-1.00379e-11
-9.91723e-06
9.90013e-06
-9.91723e-06
9.90013e-06
-8.88402e-12
-1.64175e-11
-2.83848e-05
-2.07841e-08
2.8329e-05
7.65254e-08
-2.83847e-05
-2.08094e-08
8.16519e-13
2.8329e-05
7.65169e-08
-1.50984e-11
-1.86987e-08
6.88187e-08
-1.87213e-08
6.25293e-13
6.88114e-08
1.23562e-11
-9.88142e-06
9.86062e-06
-9.88142e-06
-1.05107e-12
9.86063e-06
1.09099e-11
-1.00689e-12
6.73595e-13
-2.83847e-05
-2.07955e-08
2.8329e-05
7.65208e-08
-2.83847e-05
-2.07957e-08
1.94252e-13
2.8329e-05
7.65214e-08
6.1068e-13
-1.87086e-08
6.88149e-08
-1.87089e-08
2.03001e-13
6.88155e-08
-3.56633e-13
-9.88143e-06
9.86063e-06
-9.88143e-06
7.12857e-14
9.86063e-06
-3.28434e-13
4.93036e-14
-1.12143e-13
-2.83847e-05
-2.07963e-08
2.8329e-05
7.65218e-08
-2.83848e-05
-2.07963e-08
-4.37943e-13
2.8329e-05
7.65217e-08
-9.72821e-14
-1.87094e-08
6.88159e-08
-1.87094e-08
-4.01682e-13
6.88159e-08
-1.07573e-13
-9.88143e-06
9.86063e-06
-9.88143e-06
-2.8861e-13
9.86063e-06
-1.28266e-13
-2.75025e-13
-8.83326e-13
-2.83847e-05
-2.07957e-08
2.8329e-05
7.65213e-08
-2.83847e-05
-2.07954e-08
-8.96157e-13
2.8329e-05
7.65206e-08
-7.7122e-13
-1.87089e-08
6.88155e-08
-1.87087e-08
-7.57523e-13
6.88149e-08
1.54662e-13
-9.88143e-06
9.86063e-06
-9.88143e-06
8.97061e-13
9.86063e-06
1.51816e-13
8.02973e-13
1.67646e-11
-2.83847e-05
-2.08094e-08
2.8329e-05
7.65167e-08
-2.83848e-05
-2.07842e-08
2.8329e-05
7.6525e-08
1.50904e-11
-1.87213e-08
6.88115e-08
-1.86988e-08
6.88188e-08
-1.22999e-11
-9.88142e-06
9.86063e-06
-9.88142e-06
9.86062e-06
-1.12252e-11
-1.9951e-11
-2.82685e-05
-2.48814e-08
2.82018e-05
9.168e-08
-2.82685e-05
-2.49115e-08
9.89337e-13
2.82017e-05
9.16701e-08
-1.80807e-11
-2.25538e-08
8.30634e-08
-2.25809e-08
8.13023e-13
8.30547e-08
1.44052e-11
-9.83805e-06
9.81316e-06
-9.83806e-06
-1.18288e-12
9.81316e-06
1.3139e-11
-1.12023e-12
8.76118e-13
-2.82685e-05
-2.48949e-08
2.82017e-05
9.16748e-08
-2.82685e-05
-2.48952e-08
3.21865e-13
2.82017e-05
9.16755e-08
7.50145e-13
-2.25658e-08
8.30589e-08
-2.25661e-08
2.36079e-13
8.30596e-08
-3.24234e-13
-9.83806e-06
9.81317e-06
-9.83806e-06
2.10809e-13
9.81317e-06
-3.34692e-13
1.27577e-13
-6.99493e-15
-2.82685e-05
-2.48958e-08
2.82018e-05
9.16759e-08
-2.82685e-05
-2.48958e-08
-3.62921e-13
2.82018e-05
9.16758e-08
-9.53717e-14
-2.25666e-08
8.30599e-08
-2.25666e-08
-4.31246e-13
8.30598e-08
3.32511e-14
-9.83806e-06
9.81317e-06
-9.83807e-06
-1.56206e-13
9.81317e-06
-5.58958e-14
-2.23879e-13
-9.18422e-13
-2.82685e-05
-2.48951e-08
2.82017e-05
9.16754e-08
-2.82685e-05
-2.48947e-08
-9.74451e-13
2.82017e-05
9.16745e-08
-9.17491e-13
-2.2566e-08
8.30593e-08
-2.25656e-08
-9.58723e-13
8.30586e-08
3.60667e-13
-9.83806e-06
9.81317e-06
-9.83806e-06
1.20849e-12
9.81317e-06
2.67485e-13
1.00313e-12
2.00486e-11
-2.82685e-05
-2.49113e-08
2.82017e-05
9.16698e-08
-2.82685e-05
-2.48812e-08
2.82018e-05
9.16798e-08
1.80735e-11
-2.25807e-08
8.30543e-08
-2.25536e-08
8.30629e-08
-1.4465e-11
-9.83806e-06
9.81316e-06
-9.83806e-06
9.81316e-06
-1.33571e-11
-2.3468e-11
-2.81297e-05
-2.94515e-08
2.80505e-05
1.08612e-07
-2.81297e-05
-2.94867e-08
1.30497e-12
2.80505e-05
1.086e-07
-2.16244e-11
-2.68421e-08
9.89372e-08
-2.6874e-08
1.10381e-12
9.89269e-08
1.72323e-11
-9.7863e-06
9.75683e-06
-9.78631e-06
-1.24464e-12
9.75684e-06
1.56185e-11
-1.18596e-12
1.15827e-12
-2.81297e-05
-2.94672e-08
2.80505e-05
1.08606e-07
-2.81297e-05
-2.94676e-08
4.67796e-13
2.80505e-05
1.08607e-07
1.04616e-12
-2.68562e-08
9.8932e-08
-2.68565e-08
4.30584e-13
9.89327e-08
-2.97577e-13
-9.78631e-06
9.75684e-06
-9.78631e-06
2.73426e-13
9.75684e-06
-2.68916e-13
2.69197e-13
5.26918e-14
-2.81297e-05
-2.94683e-08
2.80505e-05
1.08607e-07
-2.81297e-05
-2.94684e-08
-3.97236e-13
2.80505e-05
1.08607e-07
4.63918e-14
-2.68572e-08
9.89331e-08
-2.68572e-08
-3.53737e-13
9.89331e-08
1.7195e-14
-9.78631e-06
9.75684e-06
-9.78631e-06
-2.51924e-13
9.75684e-06
4.66438e-14
-1.70047e-13
-1.10826e-12
-2.81297e-05
-2.94676e-08
2.80505e-05
1.08607e-07
-2.81297e-05
-2.94673e-08
-1.22047e-12
2.80505e-05
1.08606e-07
-9.73593e-13
-2.68565e-08
9.89326e-08
-2.68561e-08
-1.04737e-12
9.89318e-08
3.01187e-13
-9.78631e-06
9.75684e-06
-9.78631e-06
1.25521e-12
9.75684e-06
3.84569e-13
1.25577e-12
2.354e-11
-2.81297e-05
-2.94869e-08
2.80505e-05
1.086e-07
-2.81297e-05
-2.94515e-08
2.80505e-05
1.08612e-07
2.15382e-11
-2.68739e-08
9.89268e-08
-2.68418e-08
9.89371e-08
-1.71528e-11
-9.78631e-06
9.75684e-06
-9.7863e-06
9.75683e-06
-1.5611e-11
-2.69002e-11
-2.79655e-05
-3.45245e-08
2.78727e-05
1.27436e-07
-2.79655e-05
-3.45657e-08
1.57863e-12
2.78726e-05
1.27422e-07
-2.50074e-11
-3.16177e-08
1.16643e-07
-3.16553e-08
1.38182e-12
1.16631e-07
2.04612e-11
-9.7252e-06
9.69065e-06
-9.7252e-06
-1.44341e-12
9.69066e-06
1.83666e-11
-1.35963e-12
1.26689e-12
-2.79655e-05
-3.4543e-08
2.78726e-05
1.27428e-07
-2.79655e-05
-3.45433e-08
4.00097e-13
2.78726e-05
1.27429e-07
1.21592e-12
-3.16345e-08
1.16637e-07
-3.16348e-08
4.26329e-13
1.16638e-07
-4.65908e-13
-9.72521e-06
9.69066e-06
-9.72521e-06
1.50589e-13
9.69066e-06
-3.85947e-13
1.79032e-13
-6.90412e-14
-2.79655e-05
-3.45443e-08
2.78726e-05
1.2743e-07
-2.79655e-05
-3.45443e-08
-5.49596e-13
2.78726e-05
1.2743e-07
-4.61238e-14
-3.16357e-08
1.16638e-07
-3.16357e-08
-5.26538e-13
1.16638e-07
-1.31941e-13
-9.72521e-06
9.69066e-06
-9.72521e-06
-4.1261e-13
9.69066e-06
-1.08731e-13
-3.89725e-13
-1.37442e-12
-2.79655e-05
-3.45435e-08
2.78726e-05
1.27429e-07
-2.79655e-05
-3.45432e-08
-1.54358e-12
2.78726e-05
1.27428e-07
-1.29762e-12
-3.1635e-08
1.16638e-07
-3.16346e-08
-1.42731e-12
1.16637e-07
2.29031e-13
-9.72521e-06
9.69066e-06
-9.72521e-06
1.29014e-12
9.69066e-06
2.16382e-13
1.1877e-12
2.72742e-11
-2.79655e-05
-3.4566e-08
2.78726e-05
1.27422e-07
-2.79655e-05
-3.45248e-08
2.78727e-05
1.27436e-07
2.50175e-11
-3.16556e-08
1.16631e-07
-3.1618e-08
1.16644e-07
-2.02086e-11
-9.7252e-06
9.69066e-06
-9.7252e-06
9.69065e-06
-1.86272e-11
-3.1474e-11
-2.77733e-05
-4.01814e-08
2.76651e-05
1.48457e-07
-2.77733e-05
-4.02291e-08
1.70579e-12
2.7665e-05
1.48441e-07
-2.89681e-11
-3.69112e-08
1.36297e-07
-3.69549e-08
1.52426e-12
1.36283e-07
2.33611e-11
-9.65372e-06
9.61351e-06
-9.65372e-06
-1.72222e-12
9.61352e-06
2.13434e-11
-1.63674e-12
1.39198e-12
-2.77733e-05
-4.02028e-08
2.7665e-05
1.48449e-07
-2.77733e-05
-4.02032e-08
4.52289e-13
2.7665e-05
1.4845e-07
1.27439e-12
-3.69307e-08
1.3629e-07
-3.69311e-08
3.91057e-13
1.36291e-07
-5.57916e-13
-9.65373e-06
9.61352e-06
-9.65373e-06
2.30834e-13
9.61352e-06
-5.47205e-13
1.56073e-13
6.21732e-15
-2.77733e-05
-4.02042e-08
2.7665e-05
1.4845e-07
-2.77733e-05
-4.02042e-08
-4.43049e-13
2.7665e-05
1.4845e-07
-5.07274e-14
-3.6932e-08
1.36291e-07
-3.6932e-08
-4.94965e-13
1.36291e-07
2.15037e-14
-9.65373e-06
9.61353e-06
-9.65373e-06
-1.95734e-13
9.61353e-06
-7.56317e-14
-3.17657e-13
-1.34794e-12
-2.77733e-05
-4.02032e-08
2.7665e-05
1.4845e-07
-2.77733e-05
-4.02028e-08
-1.59571e-12
2.7665e-05
1.48449e-07
-1.35273e-12
-3.69311e-08
1.36291e-07
-3.69308e-08
-1.56734e-12
1.3629e-07
5.87336e-13
-9.65373e-06
9.61353e-06
-9.65373e-06
1.7627e-12
9.61352e-06
3.96911e-13
1.46137e-12
3.15975e-11
-2.77733e-05
-4.02291e-08
2.7665e-05
1.48441e-07
-2.77733e-05
-4.01813e-08
2.76651e-05
1.48457e-07
2.90039e-11
-3.69551e-08
1.36283e-07
-3.69115e-08
1.36297e-07
-2.32197e-11
-9.65372e-06
9.61352e-06
-9.65372e-06
9.61351e-06
-2.16287e-11
-3.58925e-11
-2.75497e-05
-4.63939e-08
2.74246e-05
1.71585e-07
-2.75497e-05
-4.6449e-08
2.11933e-12
2.74245e-05
1.71567e-07
-3.34388e-11
-4.27865e-08
1.58146e-07
-4.28368e-08
1.84445e-12
1.5813e-07
2.67467e-11
-9.5707e-06
9.52428e-06
-9.57071e-06
-1.79737e-12
9.52429e-06
2.47339e-11
-1.74619e-12
1.74676e-12
-2.75497e-05
-4.64188e-08
2.74246e-05
1.71575e-07
-2.75497e-05
-4.64192e-08
6.15903e-13
2.74246e-05
1.71576e-07
1.55481e-12
-4.28088e-08
1.58137e-07
-4.28092e-08
5.53853e-13
1.58138e-07
-4.67836e-13
-9.57071e-06
9.52429e-06
-9.57072e-06
3.79857e-13
9.5243e-06
-4.9008e-13
3.37273e-13
1.04311e-14
-2.75497e-05
-4.64203e-08
2.74246e-05
1.71577e-07
-2.75497e-05
-4.64203e-08
-6.04198e-13
2.74246e-05
1.71577e-07
5.80301e-14
-4.28103e-08
1.58139e-07
-4.28102e-08
-4.4382e-13
1.58139e-07
5.91617e-14
-9.57072e-06
9.5243e-06
-9.57072e-06
-2.67867e-13
9.5243e-06
9.5047e-14
-1.63957e-13
-1.72894e-12
-2.75497e-05
-4.64191e-08
2.74246e-05
1.71576e-07
-2.75497e-05
-4.64187e-08
-2.08266e-12
2.74246e-05
1.71575e-07
-1.44508e-12
-4.28092e-08
1.58138e-07
-4.28087e-08
-1.74878e-12
1.58137e-07
5.68215e-13
-9.57072e-06
9.5243e-06
-9.57071e-06
1.87332e-12
9.52429e-06
6.44288e-13
1.85088e-12
3.59798e-11
-2.75497e-05
-4.64488e-08
2.74246e-05
1.71566e-07
-2.75497e-05
-4.63938e-08
2.74246e-05
1.71584e-07
3.33847e-11
-4.28366e-08
1.58129e-07
-4.27863e-08
1.58145e-07
-2.67969e-11
-9.57071e-06
9.52429e-06
-9.5707e-06
9.52428e-06
-2.47328e-11
-4.05489e-11
-2.72917e-05
-5.32251e-08
2.71479e-05
1.97067e-07
-2.72917e-05
-5.32881e-08
2.52454e-12
2.71479e-05
1.97047e-07
-3.77688e-11
-4.92317e-08
1.8216e-07
-4.92895e-08
2.31783e-12
1.82142e-07
3.0676e-11
-9.47502e-06
9.42176e-06
-9.47503e-06
-1.93795e-12
9.42177e-06
2.84794e-11
-1.80347e-12
2.02969e-12
-2.72917e-05
-5.32537e-08
2.71479e-05
1.97056e-07
-2.72917e-05
-5.32541e-08
6.78057e-13
2.71479e-05
1.97057e-07
1.8975e-12
-4.92576e-08
1.8215e-07
-4.9258e-08
6.332e-13
1.82151e-07
-4.91978e-13
-9.47503e-06
9.42178e-06
-9.47504e-06
3.89655e-13
9.42178e-06
-4.47006e-13
3.79188e-13
-9.02903e-14
-2.72917e-05
-5.32554e-08
2.71479e-05
1.97058e-07
-2.72917e-05
-5.32554e-08
-8.62413e-13
2.71479e-05
1.97058e-07
-8.57368e-14
-4.92591e-08
1.82152e-07
-4.92591e-08
-7.9501e-13
1.82152e-07
-6.04338e-14
-9.47504e-06
9.42178e-06
-9.47504e-06
-4.99518e-13
9.42178e-06
-2.46587e-14
-4.16684e-13
-2.19853e-12
-2.72917e-05
-5.32541e-08
2.71479e-05
1.97057e-07
-2.72917e-05
-5.32536e-08
-2.64084e-12
2.71479e-05
1.97056e-07
-2.02272e-12
-4.92579e-08
1.82151e-07
-4.92574e-08
-2.41103e-12
1.8215e-07
4.00712e-13
-9.47504e-06
9.42178e-06
-9.47504e-06
1.87022e-12
9.42178e-06
4.47049e-13
1.80643e-12
4.07338e-11
-2.72917e-05
-5.32879e-08
2.71479e-05
1.97046e-07
-2.72917e-05
-5.32251e-08
2.71479e-05
1.97067e-07
3.77922e-11
-4.92892e-08
1.82141e-07
-4.92315e-08
1.82159e-07
-3.07782e-11
-9.47503e-06
9.42178e-06
-9.47502e-06
9.42176e-06
-2.85565e-11
-4.62534e-11
-2.69957e-05
-6.06396e-08
2.68316e-05
2.24788e-07
-2.69957e-05
-6.07107e-08
2.69268e-12
2.68315e-05
2.24765e-07
-4.29626e-11
-5.62964e-08
2.08539e-07
-5.6362e-08
2.59995e-12
2.08519e-07
3.47117e-11
-9.36543e-06
9.30476e-06
-9.36545e-06
-2.29826e-12
9.30477e-06
3.24012e-11
-2.05992e-12
2.15274e-12
-2.69957e-05
-6.06718e-08
2.68315e-05
2.24776e-07
-2.69957e-05
-6.06723e-08
7.21138e-13
2.68316e-05
2.24777e-07
2.08617e-12
-5.63258e-08
2.08529e-07
-5.63262e-08
6.86162e-13
2.0853e-07
-6.86133e-13
-9.36545e-06
9.30478e-06
-9.36545e-06
3.9538e-13
9.30478e-06
-5.64454e-13
3.80074e-13
1.85267e-14
-2.69957e-05
-6.06737e-08
2.68316e-05
2.24777e-07
-2.69957e-05
-6.06737e-08
-6.92809e-13
2.68316e-05
2.24777e-07
-7.03236e-14
-5.63275e-08
2.0853e-07
-5.63275e-08
-8.18424e-13
2.0853e-07
3.18863e-14
-9.36545e-06
9.30478e-06
-9.36546e-06
-3.32944e-13
9.30478e-06
-3.59952e-14
-4.36912e-13
-2.13033e-12
-2.69957e-05
-6.06723e-08
2.68316e-05
2.24777e-07
-2.69957e-05
-6.06718e-08
-2.69214e-12
2.68316e-05
2.24776e-07
-2.18368e-12
-5.63262e-08
2.0853e-07
-5.63257e-08
-2.65673e-12
2.08528e-07
7.18186e-13
-9.36545e-06
9.30478e-06
-9.36545e-06
2.30907e-12
9.30478e-06
5.37728e-13
2.06724e-12
4.6191e-11
-2.69957e-05
-6.07107e-08
2.68316e-05
2.24765e-07
-2.69957e-05
-6.06395e-08
2.68316e-05
2.24788e-07
4.29308e-11
-5.63618e-08
2.08518e-07
-5.62962e-08
2.08539e-07
-3.47359e-11
-9.36545e-06
9.30477e-06
-9.36544e-06
9.30476e-06
-3.2401e-11
-5.17983e-11
-2.66584e-05
-6.86726e-08
2.64722e-05
2.54901e-07
-2.66583e-05
-6.87528e-08
3.00713e-12
2.64722e-05
2.54875e-07
-4.85166e-11
-6.39594e-08
2.37223e-07
-6.40335e-08
2.7829e-12
2.37199e-07
3.92163e-11
-9.24076e-06
9.17205e-06
-9.24078e-06
-2.616e-12
9.17207e-06
3.65396e-11
-2.44277e-12
2.32819e-12
-2.66583e-05
-6.8709e-08
2.64722e-05
2.54886e-07
-2.66583e-05
-6.87095e-08
7.40796e-13
2.64722e-05
2.54888e-07
2.18809e-12
-6.39926e-08
2.37211e-07
-6.3993e-08
7.32048e-13
2.37212e-07
-8.74356e-13
-9.24078e-06
9.17207e-06
-9.24079e-06
3.57817e-13
9.17208e-06
-7.74389e-13
3.84716e-13
3.84091e-14
-2.66583e-05
-6.87111e-08
2.64722e-05
2.54888e-07
-2.66583e-05
-6.87111e-08
-6.72937e-13
2.64722e-05
2.54888e-07
6.97209e-14
-6.39945e-08
2.37212e-07
-6.39945e-08
-6.11204e-13
2.37212e-07
3.12956e-14
-9.24079e-06
9.17208e-06
-9.24079e-06
-3.09273e-13
9.17208e-06
6.23197e-14
-2.79687e-13
-2.26771e-12
-2.66583e-05
-6.87096e-08
2.64722e-05
2.54888e-07
-2.66583e-05
-6.87091e-08
-2.98773e-12
2.64722e-05
2.54887e-07
-2.10945e-12
-6.39931e-08
2.37212e-07
-6.39926e-08
-2.76171e-12
2.37211e-07
8.70677e-13
-9.24079e-06
9.17208e-06
-9.24079e-06
2.57472e-12
9.17207e-06
8.13322e-13
2.43976e-12
5.1833e-11
-2.66583e-05
-6.87529e-08
2.64722e-05
2.54875e-07
-2.66584e-05
-6.86727e-08
2.64722e-05
2.54901e-07
4.84818e-11
-6.40335e-08
2.372e-07
-6.39594e-08
2.37223e-07
-3.9183e-11
-9.24078e-06
9.17207e-06
-9.24077e-06
9.17205e-06
-3.65534e-11
-5.76216e-11
-2.62764e-05
-7.72383e-08
2.60666e-05
2.87103e-07
-2.62763e-05
-7.73279e-08
3.57227e-12
2.60665e-05
2.87074e-07
-5.40734e-11
-7.21708e-08
2.68044e-07
-7.2254e-08
3.2502e-12
2.68018e-07
4.41094e-11
-9.09984e-06
9.02256e-06
-9.09986e-06
-2.70572e-12
9.02257e-06
4.10942e-11
-2.64329e-12
2.76496e-12
-2.62763e-05
-7.72791e-08
2.60665e-05
2.87088e-07
-2.62763e-05
-7.72796e-08
9.44215e-13
2.60665e-05
2.87089e-07
2.49018e-12
-7.22082e-08
2.6803e-07
-7.22087e-08
8.21305e-13
2.68031e-07
-8.18521e-13
-9.09986e-06
9.02258e-06
-9.09987e-06
4.58504e-13
9.02258e-06
-8.55824e-13
3.90759e-13
6.39726e-14
-2.62763e-05
-7.72813e-08
2.60665e-05
2.87089e-07
-2.62763e-05
-7.72814e-08
-8.27175e-13
2.60665e-05
2.8709e-07
5.74111e-14
-7.22104e-08
2.68032e-07
-7.22104e-08
-7.32168e-13
2.68032e-07
1.18679e-15
-9.09987e-06
9.02259e-06
-9.09987e-06
-4.60832e-13
9.02259e-06
8.74693e-15
-4.04119e-13
-2.67905e-12
-2.62763e-05
-7.72797e-08
2.60665e-05
2.87089e-07
-2.62763e-05
-7.72793e-08
-3.55842e-12
2.60665e-05
2.87088e-07
-2.44563e-12
-7.22088e-08
2.68032e-07
-7.22084e-08
-3.23815e-12
2.6803e-07
7.99437e-13
-9.09987e-06
9.02258e-06
-9.09986e-06
2.67388e-12
9.02258e-06
7.84776e-13
2.57731e-12
5.76e-11
-2.62763e-05
-7.73281e-08
2.60665e-05
2.87075e-07
-2.62764e-05
-7.72384e-08
2.60666e-05
2.87103e-07
5.41286e-11
-7.22543e-08
2.68018e-07
-7.21711e-08
2.68044e-07
-4.39365e-11
-9.09986e-06
9.02258e-06
-9.09984e-06
9.02256e-06
-4.11389e-11
-6.37013e-11
-2.58465e-05
-8.63382e-08
2.56115e-05
3.21429e-07
-2.58464e-05
-8.6438e-08
4.04147e-12
2.56114e-05
3.21397e-07
-5.99026e-11
-8.09498e-08
3.01097e-07
-8.10426e-08
3.86421e-12
3.01068e-07
4.89806e-11
-8.94156e-06
8.85517e-06
-8.94158e-06
-2.92902e-12
8.85519e-06
4.59947e-11
-2.74154e-12
3.09405e-12
-2.58464e-05
-8.63839e-08
2.56114e-05
3.21412e-07
-2.58464e-05
-8.63844e-08
1.07169e-12
2.56114e-05
3.21413e-07
2.9402e-12
-8.09917e-08
3.01082e-07
-8.09922e-08
1.01735e-12
3.01083e-07
-8.78085e-13
-8.94159e-06
8.8552e-06
-8.94159e-06
5.32181e-13
8.8552e-06
-8.3109e-13
4.84608e-13
1.11352e-13
-2.58464e-05
-8.63863e-08
2.56114e-05
3.21414e-07
-2.58464e-05
-8.63863e-08
-8.44193e-13
2.56114e-05
3.21414e-07
8.48938e-14
-8.0994e-08
3.01084e-07
-8.09941e-08
-8.60118e-13
3.01084e-07
5.9827e-14
-8.94159e-06
8.8552e-06
-8.94159e-06
-4.16568e-13
8.8552e-06
6.56506e-15
-4.82153e-13
-2.88299e-12
-2.58464e-05
-8.63845e-08
2.56114e-05
3.21413e-07
-2.58464e-05
-8.6384e-08
-3.92966e-12
2.56114e-05
3.21412e-07
-2.80728e-12
-8.09924e-08
3.01083e-07
-8.09919e-08
-3.74649e-12
3.01082e-07
9.90727e-13
-8.94159e-06
8.8552e-06
-8.94159e-06
3.0066e-12
8.8552e-06
8.30971e-13
2.80366e-12
6.3728e-11
-2.58464e-05
-8.64382e-08
2.56114e-05
3.21397e-07
-2.58465e-05
-8.63384e-08
2.56115e-05
3.21429e-07
6.00128e-11
-8.10429e-08
3.01068e-07
-8.09501e-08
3.01097e-07
-4.88256e-11
-8.94158e-06
8.85519e-06
-8.94156e-06
8.85518e-06
-4.5918e-11
-7.02057e-11
-2.53658e-05
-9.58727e-08
2.51042e-05
3.5753e-07
-2.53657e-05
-9.59829e-08
4.29309e-12
2.51041e-05
3.57496e-07
-6.61412e-11
-9.01653e-08
3.35917e-07
-9.02681e-08
4.14479e-12
3.35886e-07
5.37181e-11
-8.76496e-06
8.66903e-06
-8.76498e-06
-3.37704e-12
8.66905e-06
5.08192e-11
-3.10042e-12
3.17231e-12
-2.53657e-05
-9.59233e-08
2.51041e-05
3.57512e-07
-2.53657e-05
-9.59238e-08
9.84852e-13
2.51041e-05
3.57513e-07
3.09414e-12
-9.02118e-08
3.35901e-07
-9.02123e-08
1.02682e-12
3.35902e-07
-1.15329e-12
-8.76499e-06
8.66906e-06
-8.76499e-06
4.62437e-13
8.66906e-06
-1.00139e-12
5.12876e-13
3.28307e-14
-2.53657e-05
-9.59258e-08
2.51041e-05
3.57513e-07
-2.53657e-05
-9.59258e-08
-8.97114e-13
2.51041e-05
3.57513e-07
1.09939e-13
-9.02142e-08
3.35903e-07
-9.02142e-08
-8.0982e-13
3.35903e-07
6.16875e-14
-8.76499e-06
8.66907e-06
-8.76499e-06
-3.38672e-13
8.66907e-06
8.60378e-14
-3.45275e-13
-3.03117e-12
-2.53657e-05
-9.59238e-08
2.51041e-05
3.57513e-07
-2.53657e-05
-9.59233e-08
-4.16894e-12
2.51041e-05
3.57512e-07
-2.86448e-12
-9.02124e-08
3.35902e-07
-9.02119e-08
-3.947e-12
3.35901e-07
1.29254e-12
-8.76499e-06
8.66906e-06
-8.76499e-06
3.50952e-12
8.66906e-06
1.14906e-12
3.24373e-12
7.02146e-11
-2.53657e-05
-9.59829e-08
2.51041e-05
3.57496e-07
-2.53658e-05
-9.58726e-08
2.51042e-05
3.5753e-07
6.62867e-11
-9.02682e-08
3.35886e-07
-9.01655e-08
3.35917e-07
-5.36396e-11
-8.76498e-06
8.66906e-06
-8.76496e-06
8.66903e-06
-5.07269e-11
-7.637e-11
-2.48316e-05
-1.05751e-07
2.45423e-05
3.95097e-07
-2.48316e-05
-1.05872e-07
4.8658e-12
2.45423e-05
3.95059e-07
-7.25511e-11
-9.97904e-08
3.72433e-07
-9.99034e-08
4.53427e-12
3.72399e-07
5.90156e-11
-8.56919e-06
8.46338e-06
-8.56921e-06
-3.57297e-12
8.4634e-06
5.5756e-11
-3.44195e-12
3.50532e-12
-2.48316e-05
-1.05807e-07
2.45423e-05
3.95076e-07
-2.48316e-05
-1.05807e-07
1.07735e-12
2.45423e-05
3.95077e-07
3.29814e-12
-9.98417e-08
3.72415e-07
-9.98422e-08
1.02362e-12
3.72417e-07
-1.2193e-12
-8.56922e-06
8.46341e-06
-8.56922e-06
4.72864e-13