/*--------------------------------*- C++ -*----------------------------------*\
  =========                 |
  \\      /  F ield         | OpenFOAM: The Open Source CFD Toolbox
   \\    /   O peration     | Website:  https://openfoam.org
    \\  /    A nd           | Version:  9
     \\/     M anipulation  |
\*---------------------------------------------------------------------------*/
FoamFile
{
    format      ascii;
    class       volVectorField;
    location    "0.9";
    object      U;
}
// * * * * * * * * * * * * * * * * * * * * * * * * * * * * * * * * * * * * * //

dimensions      [0 1 -1 0 0 0 0];

internalField   nonuniform List<vector> 
36360
(
(1.03612e-05 -0.0546301 -0.936001)
(1.0292e-05 -0.0546298 -2.21458e-08)
(1.33892e-05 -0.0546531 -0.945542)
(1.34463e-05 -0.054653 2.51859e-08)
(1.85002e-06 -0.0190358 -0.923574)
(1.78739e-06 -0.0190355 -1.57393e-08)
(3.36666e-06 -0.0190491 -0.932385)
(3.37433e-06 -0.0190491 2.44451e-08)
(1.02797e-05 -0.0546297 3.61295e-10)
(1.02795e-05 -0.0546297 7.85181e-10)
(1.34609e-05 -0.054653 1.30182e-09)
(1.34638e-05 -0.0546531 -1.41265e-10)
(1.77597e-06 -0.0190355 -3.77121e-10)
(1.77506e-06 -0.0190355 5.49442e-10)
(3.37488e-06 -0.0190491 1.65264e-09)
(3.37455e-06 -0.0190491 -2.07787e-11)
(1.02805e-05 -0.0546297 2.743e-10)
(1.02808e-05 -0.0546297 -2.44675e-10)
(1.34646e-05 -0.0546531 -1.83566e-11)
(1.3465e-05 -0.0546531 5.40107e-11)
(1.77539e-06 -0.0190355 2.35001e-10)
(1.77545e-06 -0.0190355 -1.91359e-10)
(3.37446e-06 -0.0190491 7.00016e-12)
(3.37456e-06 -0.0190491 3.49073e-11)
(1.02804e-05 -0.0546297 -7.6099e-10)
(1.02811e-05 -0.0546297 -3.45156e-10)
(1.3465e-05 -0.0546531 1.75886e-10)
(1.34627e-05 -0.0546531 -1.26938e-09)
(1.77521e-06 -0.0190355 -5.15476e-10)
(1.77621e-06 -0.0190355 4.11202e-10)
(3.37484e-06 -0.0190491 5.98657e-11)
(3.37533e-06 -0.0190491 -1.61624e-09)
(1.02937e-05 -0.0546298 2.21745e-08)
(1.03631e-05 -0.0546301 0.936001)
(1.34486e-05 -0.0546531 -2.51556e-08)
(1.33917e-05 -0.0546531 0.945542)
(1.7877e-06 -0.0190356 1.57762e-08)
(1.85037e-06 -0.0190358 0.923574)
(3.37491e-06 -0.0190491 -2.44391e-08)
(3.36729e-06 -0.0190491 0.932385)
(9.50494e-06 -0.0546013 -0.935226)
(9.49984e-06 -0.0546014 -4.59976e-09)
(9.2303e-06 -0.0546159 -0.93545)
(9.22123e-06 -0.054616 -6.20403e-09)
(1.199e-06 -0.0190242 -0.922819)
(1.17306e-06 -0.0190242 -2.11068e-09)
(1.29229e-06 -0.0190297 -0.923037)
(1.26613e-06 -0.0190298 -4.52783e-09)
(9.5026e-06 -0.0546014 2.41339e-10)
(9.50596e-06 -0.0546014 8.6421e-10)
(9.2293e-06 -0.0546161 2.28813e-09)
(9.23598e-06 -0.0546161 1.5279e-09)
(1.16857e-06 -0.0190242 -3.4139e-11)
(1.16899e-06 -0.0190242 7.56535e-10)
(1.26574e-06 -0.0190298 1.35277e-09)
(1.26833e-06 -0.0190298 1.26495e-09)
(9.50769e-06 -0.0546014 3.95376e-10)
(9.5079e-06 -0.0546014 -2.44635e-10)
(9.23892e-06 -0.0546161 4.87312e-10)
(9.23917e-06 -0.0546161 -4.29882e-10)
(1.16953e-06 -0.0190242 3.83872e-10)
(1.16956e-06 -0.0190242 -2.24421e-10)
(1.26961e-06 -0.0190298 4.51631e-10)
(1.26965e-06 -0.0190298 -3.81266e-10)
(9.50659e-06 -0.0546014 -7.27182e-10)
(9.50358e-06 -0.0546014 -1.36342e-10)
(9.23669e-06 -0.0546161 -1.47988e-09)
(9.23041e-06 -0.0546161 -2.24343e-09)
(1.16908e-06 -0.0190242 -6.07667e-10)
(1.1687e-06 -0.0190242 1.69902e-10)
(1.26844e-06 -0.0190298 -1.19674e-09)
(1.2659e-06 -0.0190298 -1.2754e-09)
(9.50108e-06 -0.0546014 4.56417e-09)
(9.50631e-06 -0.0546014 0.935226)
(9.22265e-06 -0.0546161 6.2412e-09)
(9.23183e-06 -0.0546159 0.93545)
(1.17321e-06 -0.0190242 2.1652e-09)
(1.1991e-06 -0.0190242 0.922819)
(1.26631e-06 -0.0190298 4.61809e-09)
(1.29244e-06 -0.0190297 0.923037)
(1.2641e-05 -0.0545658 -0.934423)
(1.2626e-05 -0.0545658 -4.54272e-09)
(1.06951e-05 -0.0545848 -0.934647)
(1.06826e-05 -0.0545849 -4.85064e-09)
(1.53184e-06 -0.0190111 -0.922035)
(1.49395e-06 -0.0190112 -8.71004e-10)
(1.29799e-06 -0.0190181 -0.922255)
(1.26537e-06 -0.0190181 -1.60497e-09)
(1.26237e-05 -0.0545658 -3.54254e-10)
(1.26255e-05 -0.0545658 5.04367e-10)
(1.06809e-05 -0.0545849 -2.75598e-10)
(1.0683e-05 -0.0545849 6.72699e-10)
(1.48504e-06 -0.0190112 -6.66961e-10)
(1.48445e-06 -0.0190112 3.18121e-10)
(1.25781e-06 -0.0190181 -5.23092e-10)
(1.25748e-06 -0.0190181 5.11501e-10)
(1.26268e-05 -0.0545658 3.4476e-10)
(1.2627e-05 -0.0545658 -8.42528e-11)
(1.06844e-05 -0.0545849 3.93497e-10)
(1.06846e-05 -0.0545849 -1.51141e-10)
(1.48477e-06 -0.0190112 3.15264e-10)
(1.4848e-06 -0.0190112 -4.64778e-11)
(1.25788e-06 -0.0190181 3.6469e-10)
(1.2579e-06 -0.0190181 -1.15946e-10)
(1.2626e-05 -0.0545658 -2.69204e-10)
(1.26245e-05 -0.0545658 5.4011e-10)
(1.06835e-05 -0.0545849 -4.412e-10)
(1.06818e-05 -0.0545849 5.00381e-10)
(1.48451e-06 -0.0190112 -5.87862e-11)
(1.48511e-06 -0.0190112 9.06934e-10)
(1.25756e-06 -0.0190181 -2.60931e-10)
(1.2579e-06 -0.0190181 7.9283e-10)
(1.26269e-05 -0.0545658 4.44798e-09)
(1.26421e-05 -0.0545658 0.934423)
(1.06836e-05 -0.0545849 4.96467e-09)
(1.06963e-05 -0.0545849 0.934647)
(1.49403e-06 -0.0190112 9.86864e-10)
(1.5318e-06 -0.0190112 0.922035)
(1.26547e-06 -0.0190181 1.93058e-09)
(1.29797e-06 -0.0190181 0.922255)
(1.83911e-05 -0.0545162 -0.933594)
(1.83699e-05 -0.0545162 -4.2343e-09)
(1.52381e-05 -0.0545432 -0.933816)
(1.52205e-05 -0.0545432 -4.1688e-09)
(2.27774e-06 -0.018993 -0.921227)
(2.22402e-06 -0.018993 7.17299e-10)
(1.86614e-06 -0.0190029 -0.921444)
(1.82127e-06 -0.0190029 7.46975e-11)
(1.83665e-05 -0.0545162 -2.79877e-10)
(1.83677e-05 -0.0545162 2.75809e-10)
(1.52177e-05 -0.0545432 -3.3838e-10)
(1.52191e-05 -0.0545432 3.56094e-10)
(2.21146e-06 -0.018993 -7.64356e-10)
(2.21007e-06 -0.018993 4.31861e-11)
(1.81071e-06 -0.0190029 -7.26939e-10)
(1.80972e-06 -0.0190029 1.54354e-10)
(1.83687e-05 -0.0545163 2.12793e-10)
(1.83688e-05 -0.0545163 -6.88904e-11)
(1.52202e-05 -0.0545432 2.66062e-10)
(1.52204e-05 -0.0545432 -6.57922e-11)
(2.21016e-06 -0.018993 1.66439e-10)
(2.21018e-06 -0.018993 -5.05488e-11)
(1.80992e-06 -0.0190029 2.34859e-10)
(1.80994e-06 -0.0190029 -3.25218e-11)
(1.8368e-05 -0.0545163 -1.44428e-10)
(1.83669e-05 -0.0545162 3.97693e-10)
(1.52195e-05 -0.0545432 -1.59949e-10)
(1.52183e-05 -0.0545432 5.39266e-10)
(2.21012e-06 -0.018993 9.1495e-11)
(2.21151e-06 -0.018993 9.00112e-10)
(1.80977e-06 -0.0190029 5.95944e-11)
(1.81076e-06 -0.0190029 9.60661e-10)
(1.83705e-05 -0.0545162 4.26529e-09)
(1.83918e-05 -0.0545162 0.933594)
(1.52212e-05 -0.0545432 4.28352e-09)
(1.52389e-05 -0.0545432 0.933816)
(2.22409e-06 -0.018993 -6.5823e-10)
(2.27777e-06 -0.018993 0.921227)
(1.82134e-06 -0.0190029 2.13032e-10)
(1.86608e-06 -0.0190029 0.921444)
(2.61398e-05 -0.0544463 -0.932737)
(2.61104e-05 -0.0544463 -4.82285e-09)
(2.20451e-05 -0.0544841 -0.932974)
(2.20201e-05 -0.0544841 -4.37445e-09)
(3.28929e-06 -0.0189671 -0.920392)
(3.21374e-06 -0.0189671 2.09256e-09)
(2.75551e-06 -0.0189811 -0.920623)
(2.69156e-06 -0.0189811 1.46215e-09)
(2.61055e-05 -0.0544463 -2.21327e-11)
(2.61067e-05 -0.0544463 2.86369e-10)
(2.2016e-05 -0.0544841 -1.55589e-10)
(2.20172e-05 -0.0544841 2.61063e-10)
(3.19617e-06 -0.0189671 -7.31989e-10)
(3.19401e-06 -0.0189671 -2.46853e-11)
(2.67665e-06 -0.0189811 -7.46422e-10)
(2.67489e-06 -0.0189811 -1.32615e-11)
(2.61076e-05 -0.0544463 2.3772e-10)
(2.61077e-05 -0.0544463 1.95064e-11)
(2.20181e-05 -0.0544841 1.99188e-10)
(2.20182e-05 -0.0544841 -5.47131e-11)
(3.19396e-06 -0.0189671 1.74337e-10)
(3.19398e-06 -0.0189671 3.68107e-11)
(2.67491e-06 -0.0189811 1.37336e-10)
(2.67493e-06 -0.0189811 -3.61956e-11)
(2.61069e-05 -0.0544463 -8.13858e-11)
(2.61058e-05 -0.0544463 2.01029e-10)
(2.20174e-05 -0.0544841 -1.337e-10)
(2.20164e-05 -0.0544841 2.76041e-10)
(3.19405e-06 -0.0189671 2.24286e-10)
(3.1962e-06 -0.0189671 9.07566e-10)
(2.67494e-06 -0.0189811 1.38621e-10)
(2.6767e-06 -0.0189811 8.77817e-10)
(2.61108e-05 -0.0544463 4.92298e-09)
(2.61402e-05 -0.0544463 0.932737)
(2.20206e-05 -0.0544841 4.47754e-09)
(2.20456e-05 -0.0544841 0.932974)
(3.21377e-06 -0.0189671 -1.98531e-09)
(3.28929e-06 -0.0189671 0.920392)
(2.69161e-06 -0.0189811 -1.37582e-09)
(2.75554e-06 -0.0189811 0.920623)
(3.55213e-05 -0.0543514 -0.93185)
(3.54822e-05 -0.0543514 -6.08431e-09)
(3.0643e-05 -0.0544022 -0.932093)
(3.0609e-05 -0.0544022 -5.38739e-09)
(4.50212e-06 -0.0189317 -0.919527)
(4.40013e-06 -0.0189317 3.23248e-09)
(3.87315e-06 -0.0189506 -0.919763)
(3.78489e-06 -0.0189507 2.72931e-09)
(3.54756e-05 -0.0543514 1.60899e-10)
(3.5477e-05 -0.0543514 3.05472e-10)
(3.06033e-05 -0.0544022 8.0486e-11)
(3.06045e-05 -0.0544022 3.13813e-10)
(4.37649e-06 -0.0189317 -7.85057e-10)
(4.37347e-06 -0.0189317 -7.96771e-11)
(3.76441e-06 -0.0189507 -7.3296e-10)
(3.76183e-06 -0.0189507 -4.04306e-11)
(3.54779e-05 -0.0543515 2.3008e-10)
(3.54779e-05 -0.0543515 4.43288e-11)
(3.06054e-05 -0.0544023 2.52634e-10)
(3.06055e-05 -0.0544023 4.86359e-11)
(4.3733e-06 -0.0189317 1.81233e-10)
(4.3733e-06 -0.0189317 1.06252e-10)
(3.76172e-06 -0.0189507 1.82444e-10)
(3.76174e-06 -0.0189507 8.6707e-11)
(3.54769e-05 -0.0543514 -8.65931e-11)
(3.54756e-05 -0.0543514 2.36919e-11)
(3.06046e-05 -0.0544023 -6.08302e-11)
(3.06034e-05 -0.0544022 1.4142e-10)
(4.37345e-06 -0.0189317 3.49078e-10)
(4.37645e-06 -0.0189317 1.02028e-09)
(3.76185e-06 -0.0189507 3.21708e-10)
(3.76441e-06 -0.0189507 9.88851e-10)
(3.54822e-05 -0.0543514 6.14203e-09)
(3.55213e-05 -0.0543514 0.93185)
(3.06092e-05 -0.0544022 5.50709e-09)
(3.06432e-05 -0.0544022 0.932093)
(4.40007e-06 -0.0189317 -3.12041e-09)
(4.50199e-06 -0.0189317 0.919527)
(3.78487e-06 -0.0189507 -2.52893e-09)
(3.87303e-06 -0.0189506 0.919763)
(4.63825e-05 -0.0542278 -0.930932)
(4.63322e-05 -0.0542278 -7.44561e-09)
(4.07699e-05 -0.0542934 -0.931191)
(4.07255e-05 -0.0542934 -6.73805e-09)
(5.88907e-06 -0.0188855 -0.918632)
(5.75662e-06 -0.0188855 4.57979e-09)
(5.17423e-06 -0.01891 -0.918884)
(5.0575e-06 -0.01891 3.93362e-09)
(4.63238e-05 -0.0542278 3.92858e-10)
(4.63254e-05 -0.0542278 3.52318e-10)
(4.0718e-05 -0.0542934 2.6481e-10)
(4.07194e-05 -0.0542934 3.30941e-10)
(5.726e-06 -0.0188855 -8.56592e-10)
(5.72202e-06 -0.0188856 -1.60468e-10)
(5.03049e-06 -0.0189101 -8.15787e-10)
(5.027e-06 -0.0189101 -1.22073e-10)
(4.63264e-05 -0.0542278 1.66651e-10)
(4.63264e-05 -0.0542278 -8.00122e-11)
(4.07204e-05 -0.0542934 1.90452e-10)
(4.07204e-05 -0.0542934 -3.09956e-11)
(5.72177e-06 -0.0188856 8.70346e-11)
(5.72178e-06 -0.0188856 -1.51219e-11)
(5.0268e-06 -0.0189101 1.23049e-10)
(5.0268e-06 -0.0189101 5.26389e-11)
(4.63253e-05 -0.0542278 -3.00994e-10)
(4.63238e-05 -0.0542278 -3.34375e-10)
(4.07193e-05 -0.0542934 -1.88009e-10)
(4.07179e-05 -0.0542934 -1.35054e-10)
(5.72202e-06 -0.0188856 2.33487e-10)
(5.72598e-06 -0.0188855 9.36843e-10)
(5.02698e-06 -0.0189101 3.30732e-10)
(5.03043e-06 -0.0189101 1.01819e-09)
(4.63322e-05 -0.0542278 7.52974e-09)
(4.63824e-05 -0.0542278 0.930932)
(4.07253e-05 -0.0542934 6.81731e-09)
(4.07697e-05 -0.0542934 0.931191)
(5.7566e-06 -0.0188855 -4.52722e-09)
(5.88902e-06 -0.0188855 0.918632)
(5.05742e-06 -0.01891 -3.77197e-09)
(5.17404e-06 -0.01891 0.918884)
(5.87759e-05 -0.0540721 -0.929992)
(5.87128e-05 -0.0540721 -8.98094e-09)
(5.23787e-05 -0.0541542 -0.930249)
(5.23223e-05 -0.0541542 -8.27279e-09)
(7.45458e-06 -0.0188274 -0.917715)
(7.28747e-06 -0.0188274 6.24315e-09)
(6.64805e-06 -0.018858 -0.917965)
(6.49883e-06 -0.018858 5.31177e-09)
(5.87023e-05 -0.0540721 7.20015e-10)
(5.87042e-05 -0.0540721 4.9013e-10)
(5.2313e-05 -0.0541542 5.40885e-10)
(5.23147e-05 -0.0541542 4.39455e-10)
(7.2489e-06 -0.0188274 -8.83563e-10)
(7.24385e-06 -0.0188274 -1.88975e-10)
(6.46436e-06 -0.018858 -8.7307e-10)
(6.45987e-06 -0.018858 -1.8287e-10)
(5.87054e-05 -0.0540721 1.62851e-10)
(5.87055e-05 -0.0540721 -2.03907e-10)
(5.23158e-05 -0.0541542 1.62396e-10)
(5.23159e-05 -0.0541542 -1.61524e-10)
(7.24356e-06 -0.0188274 1.5391e-11)
(7.24359e-06 -0.0188274 -1.73126e-10)
(6.45962e-06 -0.018858 2.07311e-11)
(6.45964e-06 -0.018858 -1.12108e-10)
(5.87043e-05 -0.0540721 -5.62142e-10)
(5.87025e-05 -0.0540721 -7.43597e-10)
(5.23148e-05 -0.0541542 -4.36505e-10)
(5.23131e-05 -0.0541542 -5.27088e-10)
(7.24393e-06 -0.0188274 3.79072e-11)
(7.249e-06 -0.0188274 7.72498e-10)
(6.45993e-06 -0.018858 1.51064e-10)
(6.46442e-06 -0.018858 8.62959e-10)
(5.87131e-05 -0.0540721 9.10709e-09)
(5.87761e-05 -0.0540721 0.929992)
(5.23225e-05 -0.0541542 8.28026e-09)
(5.2379e-05 -0.0541542 0.930249)
(7.28759e-06 -0.0188274 -6.19452e-09)
(7.45465e-06 -0.0188274 0.917715)
(6.4989e-06 -0.018858 -5.38539e-09)
(6.64808e-06 -0.018858 0.917965)
(7.29066e-05 -0.0538808 -0.929022)
(7.28294e-05 -0.0538808 -1.07588e-08)
(6.56095e-05 -0.0539811 -0.929275)
(6.55397e-05 -0.0539811 -9.98562e-09)
(9.22444e-06 -0.0187559 -0.916768)
(9.01832e-06 -0.0187559 7.79382e-09)
(8.31175e-06 -0.0187934 -0.917016)
(8.12578e-06 -0.0187934 6.82903e-09)
(7.28166e-05 -0.0538808 9.61625e-10)
(7.28188e-05 -0.0538808 5.45929e-10)
(6.55281e-05 -0.0539811 7.94466e-10)
(6.55301e-05 -0.0539811 5.16179e-10)
(8.97077e-06 -0.0187559 -1.02329e-09)
(8.9645e-06 -0.0187559 -2.57258e-10)
(8.08285e-06 -0.0187934 -9.68716e-10)
(8.07722e-06 -0.0187934 -2.46908e-10)
(7.28202e-05 -0.0538808 7.80443e-11)
(7.28202e-05 -0.0538808 -3.96969e-10)
(6.55315e-05 -0.0539811 9.01268e-11)
(6.55315e-05 -0.0539811 -3.59631e-10)
(8.96412e-06 -0.0187559 -3.95824e-11)
(8.96411e-06 -0.0187559 -2.73407e-10)
(8.0769e-06 -0.0187934 -7.06723e-11)
(8.07692e-06 -0.0187934 -2.81439e-10)
(7.28186e-05 -0.0538808 -8.71432e-10)
(7.28164e-05 -0.0538808 -1.1762e-09)
(6.55302e-05 -0.0539811 -7.7136e-10)
(6.55282e-05 -0.0539811 -1.0089e-09)
(8.96448e-06 -0.0187559 -4.62202e-11)
(8.97072e-06 -0.0187559 7.81397e-10)
(8.07727e-06 -0.0187934 -3.87708e-11)
(8.08289e-06 -0.0187934 7.13966e-10)
(7.28291e-05 -0.0538808 1.09426e-08)
(7.29063e-05 -0.0538808 0.929022)
(6.55398e-05 -0.0539811 9.88776e-09)
(6.56097e-05 -0.0539811 0.929275)
(9.01828e-06 -0.0187559 -7.86252e-09)
(9.22447e-06 -0.0187559 0.916768)
(8.12582e-06 -0.0187934 -7.18914e-09)
(8.31185e-06 -0.0187934 0.917016)
(8.90523e-05 -0.0536498 -0.928007)
(8.8959e-05 -0.0536498 -1.33412e-08)
(8.07119e-05 -0.0537705 -0.928279)
(8.06269e-05 -0.0537705 -1.215e-08)
(1.12326e-05 -0.0186697 -0.915779)
(1.0982e-05 -0.0186698 9.30057e-09)
(1.01965e-05 -0.0187148 -0.916045)
(9.9688e-06 -0.0187148 8.45359e-09)
(8.89436e-05 -0.0536498 1.23254e-09)
(8.89462e-05 -0.0536498 7.84906e-10)
(8.06129e-05 -0.0537705 1.02935e-09)
(8.06152e-05 -0.0537705 6.44932e-10)
(1.09243e-05 -0.0186698 -1.11842e-09)
(1.09166e-05 -0.0186698 -1.49974e-10)
(9.91628e-06 -0.0187148 -1.07611e-09)
(9.90933e-06 -0.0187148 -2.10367e-10)
(8.89479e-05 -0.0536498 2.53704e-10)
(8.89478e-05 -0.0536498 -2.85581e-10)
(8.06168e-05 -0.0537705 1.26819e-10)
(8.06167e-05 -0.0537705 -3.94384e-10)
(1.09162e-05 -0.0186698 1.54598e-10)
(1.09161e-05 -0.0186698 -8.27054e-11)
(9.9089e-06 -0.0187148 3.15272e-11)
(9.90887e-06 -0.0187148 -1.95884e-10)
(8.89459e-05 -0.0536498 -8.53106e-10)
(8.89432e-05 -0.0536498 -1.26469e-09)
(8.06149e-05 -0.0537705 -9.04532e-10)
(8.06124e-05 -0.0537705 -1.26065e-09)
(1.09165e-05 -0.0186698 2.00386e-10)
(1.09241e-05 -0.0186698 1.17225e-09)
(9.90925e-06 -0.0187148 8.52805e-11)
(9.91611e-06 -0.0187148 9.59086e-10)
(8.89585e-05 -0.0536498 1.34205e-08)
(8.90518e-05 -0.0536498 0.928007)
(8.06263e-05 -0.0537705 1.20412e-08)
(8.07111e-05 -0.0537705 0.928279)
(1.09819e-05 -0.0186698 -9.3244e-09)
(1.12324e-05 -0.0186697 0.915779)
(9.96857e-06 -0.0187148 -8.69054e-09)
(1.01962e-05 -0.0187148 0.916045)
(0.000107518 -0.0533746 -0.926972)
(0.000107406 -0.0533746 -1.59026e-08)
(9.79778e-05 -0.053518 -0.92725)
(9.78756e-05 -0.053518 -1.47249e-08)
(1.35149e-05 -0.0185672 -0.914769)
(1.32138e-05 -0.0185672 1.14709e-08)
(1.23369e-05 -0.0186206 -0.915041)
(1.20617e-05 -0.0186206 1.03546e-08)
(0.000107388 -0.0533746 1.67611e-09)
(0.000107391 -0.0533746 1.10488e-09)
(9.78588e-05 -0.053518 1.46016e-09)
(9.78617e-05 -0.053518 1.00626e-09)
(1.31444e-05 -0.0185672 -1.17105e-09)
(1.31352e-05 -0.0185672 -9.78345e-11)
(1.19983e-05 -0.0186206 -1.10198e-09)
(1.19899e-05 -0.0186207 -7.43373e-11)
(0.000107393 -0.0533746 4.16383e-10)
(0.000107393 -0.0533746 -2.8107e-10)
(9.78636e-05 -0.053518 3.81581e-10)
(9.78636e-05 -0.053518 -2.50725e-10)
(1.31347e-05 -0.0185672 1.85372e-10)
(1.31347e-05 -0.0185672 -1.66832e-10)
(1.19895e-05 -0.0186207 2.03833e-10)
(1.19894e-05 -0.0186207 -8.5952e-11)
(0.000107391 -0.0533746 -1.02497e-09)
(0.000107388 -0.0533746 -1.59051e-09)
(9.78616e-05 -0.053518 -8.98567e-10)
(9.78587e-05 -0.053518 -1.37476e-09)
(1.31353e-05 -0.0185672 9.7836e-11)
(1.31445e-05 -0.0185672 1.19247e-09)
(1.19899e-05 -0.0186207 2.17066e-10)
(1.19983e-05 -0.0186207 1.25264e-09)
(0.000107406 -0.0533746 1.60156e-08)
(0.000107518 -0.0533746 0.926972)
(9.78754e-05 -0.053518 1.4704e-08)
(9.79776e-05 -0.053518 0.92725)
(1.32139e-05 -0.0185672 -1.14061e-08)
(1.3515e-05 -0.0185672 0.914769)
(1.20616e-05 -0.0186206 -1.02985e-08)
(1.23366e-05 -0.0186206 0.915041)
(0.000128613 -0.0530501 -0.925884)
(0.00012848 -0.0530501 -1.85369e-08)
(0.000117721 -0.0532188 -0.926185)
(0.000117599 -0.0532188 -1.72893e-08)
(1.6107e-05 -0.0184464 -0.913709)
(1.57487e-05 -0.0184465 1.39222e-08)
(1.47696e-05 -0.0185092 -0.914003)
(1.44409e-05 -0.0185092 1.24447e-08)
(0.000128458 -0.0530501 1.97976e-09)
(0.000128462 -0.0530501 1.15371e-09)
(0.000117579 -0.0532188 1.80712e-09)
(0.000117583 -0.0532188 1.14337e-09)
(1.56662e-05 -0.0184465 -1.47297e-09)
(1.56553e-05 -0.0184465 -3.23215e-10)
(1.43652e-05 -0.0185092 -1.34504e-09)
(1.43552e-05 -0.0185092 -2.38601e-10)
(0.000128464 -0.0530501 2.93869e-10)
(0.000128464 -0.0530501 -4.99604e-10)
(0.000117585 -0.0532188 3.24927e-10)
(0.000117585 -0.0532188 -4.62055e-10)
(1.56547e-05 -0.0184465 -1.40799e-11)
(1.56547e-05 -0.0184465 -3.99979e-10)
(1.43547e-05 -0.0185092 2.13236e-11)
(1.43547e-05 -0.0185092 -3.66671e-10)
(0.000128462 -0.0530501 -1.34921e-09)
(0.000128459 -0.0530501 -2.04334e-09)
(0.000117583 -0.0532188 -1.27756e-09)
(0.00011758 -0.0532188 -1.90767e-09)
(1.56555e-05 -0.0184465 -6.67532e-11)
(1.56665e-05 -0.0184465 1.19504e-09)
(1.43554e-05 -0.0185092 -6.02496e-11)
(1.43654e-05 -0.0185092 1.10822e-09)
(0.00012848 -0.0530501 1.88369e-08)
(0.000128613 -0.0530501 0.925884)
(0.0001176 -0.0532188 1.7263e-08)
(0.000117722 -0.0532188 0.926185)
(1.5749e-05 -0.0184465 -1.38507e-08)
(1.61073e-05 -0.0184464 0.913709)
(1.44412e-05 -0.0185092 -1.27629e-08)
(1.477e-05 -0.0185092 0.914003)
(0.000152626 -0.0526707 -0.924791)
(0.00015247 -0.0526707 -2.22182e-08)
(0.000140238 -0.0528676 -0.925072)
(0.000140095 -0.0528676 -2.04919e-08)
(1.90409e-05 -0.0183054 -0.912643)
(1.86182e-05 -0.0183054 1.61492e-08)
(1.75285e-05 -0.0183786 -0.912918)
(1.71391e-05 -0.0183786 1.47124e-08)
(0.000152445 -0.0526707 2.19545e-09)
(0.000152449 -0.0526707 1.30648e-09)
(0.000140071 -0.0528676 1.98185e-09)
(0.000140075 -0.0528676 1.17938e-09)
(1.85208e-05 -0.0183054 -1.78959e-09)
(1.85079e-05 -0.0183054 -3.42313e-10)
(1.70494e-05 -0.0183786 -1.71086e-09)
(1.70375e-05 -0.0183786 -3.88126e-10)
(0.000152452 -0.0526707 4.06156e-10)
(0.000152452 -0.0526707 -3.81596e-10)
(0.000140078 -0.0528676 3.1111e-10)
(0.000140078 -0.0528676 -4.60129e-10)
(1.85071e-05 -0.0183054 1.66727e-10)
(1.8507e-05 -0.0183054 -1.27335e-10)
(1.70368e-05 -0.0183786 3.23005e-11)
(1.70368e-05 -0.0183786 -2.93514e-10)
(0.000152449 -0.0526707 -1.26851e-09)
(0.000152445 -0.0526707 -2.08595e-09)
(0.000140075 -0.0528676 -1.31555e-09)
(0.000140072 -0.0528676 -2.07837e-09)
(1.85079e-05 -0.0183054 3.72509e-10)
(1.85208e-05 -0.0183054 1.85204e-09)
(1.70376e-05 -0.0183786 1.34925e-10)
(1.70495e-05 -0.0183786 1.47946e-09)
(0.00015247 -0.0526707 2.23937e-08)
(0.000152626 -0.0526707 0.924791)
(0.000140095 -0.0528676 2.04861e-08)
(0.000140239 -0.0528676 0.925072)
(1.86182e-05 -0.0183054 -1.6013e-08)
(1.90408e-05 -0.0183054 0.912643)
(1.71392e-05 -0.0183786 -1.50581e-08)
(1.75287e-05 -0.0183786 0.912918)
(0.000179829 -0.0522303 -0.92363)
(0.000179647 -0.0522303 -2.57175e-08)
(0.000165818 -0.0524585 -0.923939)
(0.00016565 -0.0524584 -2.40595e-08)
(2.23424e-05 -0.0181419 -0.911511)
(2.18475e-05 -0.018142 1.89993e-08)
(2.06436e-05 -0.0182266 -0.911812)
(2.01857e-05 -0.0182266 1.75047e-08)
(0.000179618 -0.0522303 2.819e-09)
(0.000179623 -0.0522303 1.73034e-09)
(0.000165622 -0.0524584 2.46834e-09)
(0.000165627 -0.0524584 1.53887e-09)
(2.17335e-05 -0.018142 -1.82271e-09)
(2.17183e-05 -0.018142 -1.67356e-10)
(2.00802e-05 -0.0182266 -1.79371e-09)
(2.00662e-05 -0.0182266 -2.13839e-10)
(0.000179626 -0.0522303 5.54594e-10)
(0.000179626 -0.0522303 -5.21679e-10)
(0.00016563 -0.0524584 5.38479e-10)
(0.00016563 -0.0524584 -3.5528e-10)
(2.17173e-05 -0.018142 3.1835e-10)
(2.17173e-05 -0.018142 -1.58076e-10)
(2.00653e-05 -0.0182266 3.12654e-10)
(2.00653e-05 -0.0182266 -4.7647e-11)
(0.000179622 -0.0522303 -1.70807e-09)
(0.000179617 -0.0522303 -2.78199e-09)
(0.000165627 -0.0524584 -1.3683e-09)
(0.000165622 -0.0524584 -2.3147e-09)
(2.17182e-05 -0.018142 3.14814e-10)
(2.17333e-05 -0.018142 1.96522e-09)
(2.00661e-05 -0.0182266 4.51964e-10)
(2.00801e-05 -0.0182266 2.00498e-09)
(0.000179647 -0.0522303 2.58123e-08)
(0.000179828 -0.0522303 0.92363)
(0.00016565 -0.0524584 2.4092e-08)
(0.000165817 -0.0524585 0.923939)
(2.18473e-05 -0.018142 -1.89791e-08)
(2.23422e-05 -0.0181419 0.911511)
(2.01855e-05 -0.0182266 -1.74232e-08)
(2.06433e-05 -0.0182266 0.911812)
(0.000210445 -0.0517228 -0.922448)
(0.000210235 -0.0517228 -2.95289e-08)
(0.0001947 -0.0519853 -0.922747)
(0.000194505 -0.0519853 -2.75421e-08)
(2.60319e-05 -0.0179538 -0.910358)
(2.54564e-05 -0.0179539 2.23206e-08)
(2.41365e-05 -0.0180511 -0.910651)
(2.36023e-05 -0.0180511 2.07274e-08)
(0.000210201 -0.0517228 3.40451e-09)
(0.000210206 -0.0517228 2.03754e-09)
(0.000194473 -0.0519853 3.14658e-09)
(0.000194478 -0.0519853 1.90027e-09)
(2.53238e-05 -0.0179539 -1.99758e-09)
(2.53062e-05 -0.0179539 -1.83814e-10)
(2.34792e-05 -0.0180511 -1.85022e-09)
(2.34628e-05 -0.0180511 -1.54132e-10)
(0.00021021 -0.0517228 5.48025e-10)
(0.00021021 -0.0517228 -8.274e-10)
(0.000194482 -0.0519853 5.09552e-10)
(0.000194481 -0.0519853 -7.64864e-10)
(2.5305e-05 -0.0179539 2.41358e-10)
(2.5305e-05 -0.0179539 -4.41664e-10)
(2.34618e-05 -0.0180511 2.59942e-10)
(2.34617e-05 -0.0180511 -3.45542e-10)
(0.000210206 -0.0517228 -2.31442e-09)
(0.000210201 -0.0517228 -3.63252e-09)
(0.000194478 -0.0519853 -2.12565e-09)
(0.000194472 -0.0519853 -3.32382e-09)
(2.53061e-05 -0.0179539 1.36272e-11)
(2.53237e-05 -0.0179539 1.87648e-09)
(2.34627e-05 -0.0180511 1.11675e-10)
(2.3479e-05 -0.0180511 1.85999e-09)
(0.000210235 -0.0517228 2.95812e-08)
(0.000210445 -0.0517228 0.922448)
(0.000194504 -0.0519853 2.7487e-08)
(0.000194699 -0.0519853 0.922747)
(2.54563e-05 -0.0179539 -2.24533e-08)
(2.60319e-05 -0.0179538 0.910358)
(2.3602e-05 -0.0180511 -2.07851e-08)
(2.41362e-05 -0.0180511 0.910651)
(0.00024467 -0.0511416 -0.921212)
(0.000244428 -0.0511416 -3.45161e-08)
(0.000227102 -0.0514418 -0.921536)
(0.000226876 -0.0514417 -3.1981e-08)
(3.01243e-05 -0.0177387 -0.909153)
(2.94593e-05 -0.0177388 2.56847e-08)
(2.80261e-05 -0.0178498 -0.909469)
(2.74068e-05 -0.0178498 2.40435e-08)
(0.000244389 -0.0511416 3.69417e-09)
(0.000244395 -0.0511416 2.21242e-09)
(0.00022684 -0.0514417 3.57361e-09)
(0.000226846 -0.0514417 2.13169e-09)
(2.93061e-05 -0.0177388 -2.49257e-09)
(2.92857e-05 -0.0177388 -3.38277e-10)
(2.72642e-05 -0.0178498 -2.19714e-09)
(2.72452e-05 -0.0178498 -2.51194e-10)
(0.000244399 -0.0511416 6.93416e-10)
(0.000244399 -0.0511416 -6.35649e-10)
(0.00022685 -0.0514417 5.87116e-10)
(0.000226849 -0.0514417 -8.00565e-10)
(2.92843e-05 -0.0177388 3.3518e-10)
(2.92843e-05 -0.0177388 -2.42875e-10)
(2.72439e-05 -0.0178498 2.62351e-10)
(2.72439e-05 -0.0178498 -3.81902e-10)
(0.000244395 -0.0511416 -2.1691e-09)
(0.000244389 -0.0511416 -3.67706e-09)
(0.000226845 -0.0514417 -2.31586e-09)
(0.000226839 -0.0514417 -3.70225e-09)
(2.92857e-05 -0.0177388 4.11056e-10)
(2.93061e-05 -0.0177388 2.53002e-09)
(2.72451e-05 -0.0178498 1.78218e-10)
(2.7264e-05 -0.0178498 2.18661e-09)
(0.000244428 -0.0511416 3.44671e-08)
(0.00024467 -0.0511416 0.921212)
(0.000226876 -0.0514417 3.19102e-08)
(0.000227101 -0.0514418 0.921536)
(2.94592e-05 -0.0177388 -2.56953e-08)
(3.01242e-05 -0.0177387 0.909153)
(2.74066e-05 -0.0178498 -2.40375e-08)
(2.80258e-05 -0.0178498 0.909469)
(0.000282636 -0.0504803 -0.919953)
(0.00028236 -0.0504802 -3.94268e-08)
(0.000263183 -0.0508213 -0.920285)
(0.000262924 -0.0508213 -3.69564e-08)
(3.46251e-05 -0.0174944 -0.907925)
(3.3862e-05 -0.0174944 2.95771e-08)
(3.23219e-05 -0.0176203 -0.90825)
(3.16089e-05 -0.0176204 2.75538e-08)
(0.000282315 -0.0504802 4.15728e-09)
(0.000282322 -0.0504802 2.41916e-09)
(0.000262882 -0.0508213 3.86362e-09)
(0.000262889 -0.0508213 2.29422e-09)
(3.36863e-05 -0.0174945 -2.96569e-09)
(3.36628e-05 -0.0174945 -5.33385e-10)
(3.14447e-05 -0.0176204 -2.73602e-09)
(3.14228e-05 -0.0176204 -4.23399e-10)
(0.000282327 -0.0504802 7.53836e-10)
(0.000282327 -0.0504802 -6.31214e-10)
(0.000262893 -0.0508213 7.65486e-10)
(0.000262893 -0.0508213 -5.45232e-10)
(3.36613e-05 -0.0174945 3.17718e-10)
(3.36613e-05 -0.0174945 -2.27899e-10)
(3.14213e-05 -0.0176204 3.64779e-10)
(3.14213e-05 -0.0176204 -1.78642e-10)
(0.000282322 -0.0504802 -2.31076e-09)
(0.000282315 -0.0504802 -4.09083e-09)
(0.000262889 -0.0508213 -2.13139e-09)
(0.000262882 -0.0508213 -3.78625e-09)
(3.36629e-05 -0.0174945 5.70828e-10)
(3.36864e-05 -0.0174945 2.92967e-09)
(3.14228e-05 -0.0176204 5.42987e-10)
(3.14447e-05 -0.0176204 2.76725e-09)
(0.00028236 -0.0504802 3.94707e-08)
(0.000282636 -0.0504803 0.919953)
(0.000262925 -0.0508213 3.69455e-08)
(0.000263183 -0.0508213 0.920285)
(3.38622e-05 -0.0174944 -2.95839e-08)
(3.46252e-05 -0.0174944 0.907925)
(3.1609e-05 -0.0176204 -2.75675e-08)
(3.23219e-05 -0.0176204 0.90825)
(0.000324395 -0.0497325 -0.918633)
(0.000324082 -0.0497325 -4.45566e-08)
(0.000303045 -0.0501175 -0.918975)
(0.000302751 -0.0501174 -4.18979e-08)
(3.95283e-05 -0.0172187 -0.906638)
(3.86585e-05 -0.0172187 3.41376e-08)
(3.70248e-05 -0.0173606 -0.906972)
(3.62095e-05 -0.0173606 3.17016e-08)
(0.000324031 -0.0497325 5.07105e-09)
(0.000324039 -0.0497325 3.01054e-09)
(0.000302703 -0.0501174 4.57394e-09)
(0.000302711 -0.0501174 2.67172e-09)
(3.84583e-05 -0.0172187 -3.06253e-09)
(3.84316e-05 -0.0172187 -4.22201e-10)
(3.60218e-05 -0.0173606 -3.03654e-09)
(3.59967e-05 -0.0173606 -5.04835e-10)
(0.000324044 -0.0497325 9.76461e-10)
(0.000324045 -0.0497325 -7.67526e-10)
(0.000302716 -0.0501175 8.59731e-10)
(0.000302716 -0.0501175 -6.84486e-10)
(3.84298e-05 -0.0172187 3.83993e-10)
(3.84298e-05 -0.0172187 -3.83129e-10)
(3.59951e-05 -0.0173606 3.32433e-10)
(3.59951e-05 -0.0173606 -3.30837e-10)
(0.000324039 -0.0497325 -2.83946e-09)
(0.000324031 -0.0497325 -4.98503e-09)
(0.000302711 -0.0501174 -2.56343e-09)
(0.000302703 -0.0501174 -4.53108e-09)
(3.84317e-05 -0.0172187 4.0187e-10)
(3.84585e-05 -0.0172187 3.01757e-09)
(3.59969e-05 -0.0173606 4.31889e-10)
(3.6022e-05 -0.0173606 2.91969e-09)
(0.000324082 -0.0497325 4.45503e-08)
(0.000324395 -0.0497325 0.918633)
(0.000302751 -0.0501174 4.19535e-08)
(0.000303045 -0.0501175 0.918975)
(3.86588e-05 -0.0172187 -3.40215e-08)
(3.95285e-05 -0.0172187 0.906638)
(3.62098e-05 -0.0173606 -3.17935e-08)
(3.70252e-05 -0.0173606 0.906972)
(0.000369932 -0.0488922 -0.917284)
(0.00036958 -0.0488922 -5.01597e-08)
(0.0003467 -0.0493242 -0.917644)
(0.000346368 -0.0493242 -4.71056e-08)
(4.48188e-05 -0.0169095 -0.905323)
(4.38343e-05 -0.0169095 3.87263e-08)
(4.21241e-05 -0.0170683 -0.905674)
(4.11981e-05 -0.0170684 3.63664e-08)
(0.000369523 -0.0488922 5.84684e-09)
(0.000369532 -0.0488922 3.4694e-09)
(0.000346314 -0.0493242 5.56277e-09)
(0.000346322 -0.0493242 3.28165e-09)
(4.36076e-05 -0.0169095 -3.37275e-09)
(4.35773e-05 -0.0169095 -4.27183e-10)
(4.09849e-05 -0.0170684 -3.1681e-09)
(4.09565e-05 -0.0170684 -4.23055e-10)
(0.000369538 -0.0488922 1.16113e-09)
(0.000369538 -0.0488922 -7.73188e-10)
(0.000346328 -0.0493242 1.08384e-09)
(0.000346328 -0.0493242 -7.99131e-10)
(4.35753e-05 -0.0169095 5.04788e-10)
(4.35753e-05 -0.0169095 -2.9528e-10)
(4.09545e-05 -0.0170684 4.20058e-10)
(4.09546e-05 -0.0170684 -3.94798e-10)
(0.000369532 -0.0488922 -3.09414e-09)
(0.000369523 -0.0488922 -5.56602e-09)
(0.000346323 -0.0493242 -3.04237e-09)
(0.000346314 -0.0493242 -5.35403e-09)
(4.35775e-05 -0.0169095 6.25212e-10)
(4.36078e-05 -0.0169095 3.53107e-09)
(4.09566e-05 -0.0170684 4.26251e-10)
(4.09852e-05 -0.0170684 3.21432e-09)
(0.00036958 -0.0488922 5.02773e-08)
(0.000369932 -0.0488922 0.917284)
(0.000346368 -0.0493242 4.72985e-08)
(0.0003467 -0.0493242 0.917644)
(4.38345e-05 -0.0169095 -3.85299e-08)
(4.48189e-05 -0.0169095 0.905323)
(4.11984e-05 -0.0170684 -3.6249e-08)
(4.21245e-05 -0.0170683 0.905674)
(0.000419119 -0.0479541 -0.915884)
(0.000418726 -0.047954 -5.65259e-08)
(0.000394084 -0.0484356 -0.916246)
(0.000393712 -0.0484356 -5.31686e-08)
(5.0465e-05 -0.016565 -0.903957)
(4.93582e-05 -0.016565 4.31777e-08)
(4.75966e-05 -0.0167417 -0.90431)
(4.65519e-05 -0.0167418 4.09313e-08)
(0.000418662 -0.047954 6.24272e-09)
(0.000418672 -0.047954 3.54152e-09)
(0.000393651 -0.0484356 6.04683e-09)
(0.000393661 -0.0484356 3.49986e-09)
(4.91034e-05 -0.0165651 -4.07642e-09)
(4.90693e-05 -0.0165651 -7.43699e-10)
(4.63114e-05 -0.0167418 -3.6995e-09)
(4.62792e-05 -0.0167418 -5.62959e-10)
(0.000418678 -0.047954 1.05829e-09)
(0.000418678 -0.047954 -9.16839e-10)
(0.000393667 -0.0484356 1.15018e-09)
(0.000393667 -0.0484356 -7.67164e-10)
(4.90668e-05 -0.0165651 4.56109e-10)
(4.90668e-05 -0.0165651 -2.39267e-10)
(4.62769e-05 -0.0167418 5.23095e-10)
(4.6277e-05 -0.0167418 -2.21827e-10)
(0.000418672 -0.047954 -3.33978e-09)
(0.000418662 -0.047954 -6.00862e-09)
(0.000393661 -0.0484356 -3.12001e-09)
(0.000393651 -0.0484356 -5.6798e-09)
(4.90692e-05 -0.0165651 9.69959e-10)
(4.91033e-05 -0.0165651 4.31025e-09)
(4.62793e-05 -0.0167418 8.30256e-10)
(4.63114e-05 -0.0167418 3.94571e-09)
(0.000418726 -0.047954 5.66413e-08)
(0.000419119 -0.0479541 0.915884)
(0.000393712 -0.0484356 5.34651e-08)
(0.000394084 -0.0484356 0.916246)
(4.93581e-05 -0.016565 -4.29953e-08)
(5.04649e-05 -0.016565 0.903957)
(4.6552e-05 -0.0167418 -4.07276e-08)
(4.75968e-05 -0.0167417 0.90431)
(0.000471733 -0.0469132 -0.914434)