/*--------------------------------*- C++ -*----------------------------------*\
  =========                 |
  \\      /  F ield         | OpenFOAM: The Open Source CFD Toolbox
   \\    /   O peration     | Website:  https://openfoam.org
    \\  /    A nd           | Version:  9
     \\/     M anipulation  |
\*---------------------------------------------------------------------------*/
FoamFile
{
    format      ascii;
    class       volScalarField;
    location    "1.7";
    object      k;
}
// * * * * * * * * * * * * * * * * * * * * * * * * * * * * * * * * * * * * * //

dimensions      [0 2 -2 0 0 0 0];

internalField   nonuniform List<scalar> 
36360
(
0.169852
0.1551
0.0229541
0.030792
0.0215614
0.0219956
0.00460123
0.00445909
0.0379016
0.00621252
0.00510451
0.00312735
0.00560906
0.00314542
0.00342839
0.00344431
0.00267646
0.00267649
0.00319224
0.00319223
0.00301873
0.00301872
0.00346415
0.00346416
0.00621282
0.0379026
0.00312735
0.00510458
0.00314543
0.00560916
0.0034443
0.00342839
0.155102
0.169854
0.0307925
0.0229545
0.0219959
0.0215615
0.00445912
0.00460124
0.468177
0.391392
0.344742
0.288023
0.138162
0.11271
0.0752643
0.0664547
0.20166
0.0921234
0.120973
0.0332827
0.0533569
0.0161888
0.0210532
0.00510559
0.0351075
0.0351095
0.00650958
0.00651017
0.00505998
0.00506027
0.00285019
0.00285022
0.0921264
0.201661
0.0332845
0.120974
0.0161898
0.053358
0.0051058
0.0210537
0.391392
0.468175
0.288024
0.344742
0.112711
0.138162
0.0664554
0.0752646
0.628392
0.5371
0.558019
0.471596
0.216503
0.177518
0.183081
0.148627
0.330811
0.212624
0.270576
0.15383
0.109518
0.0656991
0.0834739
0.0398206
0.158443
0.158443
0.0974576
0.0974591
0.0438142
0.043815
0.0177973
0.017798
0.212624
0.330808
0.153832
0.270576
0.0657002
0.109518
0.0398221
0.0834747
0.537094
0.628384
0.471594
0.558015
0.177516
0.216501
0.148626
0.18308
0.735991
0.640478
0.68641
0.592469
0.265671
0.222883
0.243186
0.201801
0.430748
0.313109
0.38384
0.265792
0.152477
0.110147
0.132316
0.0893248
0.260821
0.26082
0.212834
0.212834
0.0910846
0.0910845
0.0692224
0.0692227
0.313104
0.430739
0.26579
0.383834
0.110147
0.152475
0.089325
0.132315
0.640464
0.735974
0.59246
0.686398
0.222878
0.265664
0.201798
0.243182
0.815968
0.718876
0.77874
0.682263
0.301888
0.257619
0.285024
0.241349
0.508504
0.391611
0.472092
0.354865
0.186056
0.144328
0.170301
0.128367
0.339929
0.339926
0.302959
0.302956
0.126025
0.126024
0.109817
0.109816
0.3916
0.508486
0.354857
0.472078
0.144325
0.186049
0.128365
0.170297
0.718852
0.815941
0.682244
0.778717
0.257609
0.301876
0.241341
0.285014
0.876046
0.77837
0.84814
0.750677
0.329221
0.284287
0.316521
0.271849
0.568175
0.451838
0.540366
0.423775
0.21201
0.170438
0.199894
0.158274
0.400421
0.400415
0.372245
0.37224
0.15231
0.152308
0.140089
0.140088
0.451821
0.568147
0.423761
0.540343
0.170432
0.212
0.158269
0.199885
0.778335
0.876008
0.750648
0.848107
0.284272
0.329203
0.271836
0.316506
0.920356
0.822563
0.899903
0.802134
0.349485
0.304274
0.340123
0.295022
0.612903
0.497062
0.592215
0.476139
0.231582
0.190051
0.222518
0.180974
0.445843
0.445835
0.424824
0.424817
0.171963
0.17196
0.162872
0.16287
0.49704
0.612867
0.476119
0.592183
0.190043
0.231568
0.180966
0.222505
0.822519
0.920308
0.802094
0.899859
0.304254
0.349461
0.295004
0.340102
0.951949
0.854267
0.937512
0.839758
0.364049
0.318723
0.357389
0.312106
0.645304
0.529952
0.630473
0.514887
0.245826
0.204331
0.2393
0.197788
0.478934
0.478925
0.463768
0.46376
0.186261
0.186258
0.179709
0.179706
0.529925
0.645262
0.514862
0.630434
0.20432
0.245808
0.197778
0.239284
0.854216
0.951893
0.839709
0.937458
0.318699
0.36402
0.312084
0.357363
0.973331
0.875896
0.963706
0.866139
0.373992
0.328652
0.369515
0.324172
0.667695
0.55283
0.657596
0.542499
0.255703
0.214269
0.251245
0.20978
0.502026
0.502015
0.491589
0.491579
0.196226
0.196222
0.191722
0.191718
0.552799
0.667647
0.54247
0.657551
0.214256
0.255682
0.209768
0.251225
0.875838
0.973268
0.866084
0.963644
0.328623
0.373959
0.324145
0.369484
0.986654
0.889546
0.980815
0.883539
0.380272
0.334979
0.377515
0.332193
0.682127
0.567742
0.675771
0.561157
0.26209
0.220746
0.259274
0.217885
0.517157
0.517145
0.510465
0.510454
0.202743
0.202739
0.199861
0.199856
0.567708
0.682075
0.561125
0.675721
0.220732
0.262067
0.217871
0.259252
0.889484
0.986587
0.883478
0.980748
0.334948
0.380236
0.332163
0.377481
0.993741
0.897015
0.990813
0.893894
0.38372
0.338513
0.382284
0.337031
0.690376
0.576465
0.686908
0.572771
0.265766
0.224536
0.264215
0.222929
0.526099
0.526087
0.522297
0.522285
0.206585
0.20658
0.204951
0.204946
0.57643
0.690322
0.572737
0.686855
0.224521
0.265742
0.222914
0.264191
0.896951
0.993672
0.89383
0.990743
0.33848
0.383683
0.336998
0.382248
0.996063
0.89977
0.995353
0.898841
0.384999
0.33991
0.384579
0.339425
0.693925
0.580494
0.69264
0.578978
0.267383
0.226296
0.266789
0.225629
0.530354
0.530342
0.528726
0.528714
0.20841
0.208405
0.207709
0.207704
0.580459
0.693872
0.578942
0.692586
0.226281
0.267359
0.225614
0.266764
0.899707
0.995995
0.898777
0.995283
0.339878
0.384962
0.339392
0.384541
0.994941
0.89908
0.995826
0.899733
0.384773
0.33979
0.385022
0.339977
0.694037
0.58107
0.694317
0.581137
0.267511
0.226566
0.26758
0.226576
0.53115
0.531138
0.531116
0.531104
0.208747
0.208742
0.208729
0.208724
0.581037
0.693986
0.581102
0.694265
0.226552
0.267489
0.226561
0.267557
0.899017
0.994865
0.899671
0.995759
0.339761
0.384739
0.339946
0.384986
0.99082
0.895519
0.99315
0.89755
0.383246
0.33842
0.384127
0.339225
0.691532
0.579161
0.693073
0.580418
0.266526
0.225802
0.267154
0.226327
0.52952
0.52951
0.530638
0.530627
0.208085
0.20808
0.208557
0.208552
0.579133
0.69149
0.580387
0.693027
0.22579
0.266507
0.226313
0.267133
0.89553
0.990833
0.897523
0.993102
0.338396
0.383219
0.339198
0.384096
0.984931
0.890257
0.988002
0.893024
0.380927
0.336277
0.382151
0.337411
0.687209
0.575441
0.689539
0.577472
0.264768
0.224264
0.265716
0.225101
0.526084
0.526077
0.527972
0.527963
0.206647
0.206644
0.207432
0.207428
0.575421
0.687179
0.577448
0.689503
0.224255
0.264756
0.22509
0.2657
0.890198
0.984877
0.893002
0.988003
0.336264
0.380912
0.337392
0.38213
0.977897
0.883859
0.981465
0.887108
0.378113
0.333652
0.379548
0.334991
0.681776
0.570617
0.684582
0.573131
0.262538
0.222268
0.26369
0.223306
0.521552
0.521546
0.523923
0.523916
0.20476
0.204757
0.205744
0.205741
0.570599
0.681749
0.573113
0.684557
0.22226
0.262529
0.223298
0.263682
0.883817
0.977859
0.887072
0.981422
0.333642
0.378103
0.334982
0.379538
0.970193
0.87685
0.974055
0.880357
0.37504
0.330766
0.376584
0.332216
0.675725
0.565149
0.678799
0.567943
0.260047
0.220003
0.261312
0.221158
0.516361
0.51635
0.519019
0.519011
0.2026
0.202595
0.203703
0.2037
0.565118
0.675678
0.56792
0.678763
0.21999
0.260027
0.221148
0.261299
0.876751
0.970092
0.880279
0.973981
0.330742
0.375012
0.332201
0.376567
0.962177
0.869544
0.96615
0.873176
0.371778
0.327695
0.373411
0.329231
0.669285
0.559278
0.672532
0.562252
0.257387
0.217569
0.258728
0.2188
0.51076
0.510744
0.513601
0.513588
0.200269
0.200263
0.201449
0.201443
0.559234
0.669218
0.562214
0.672474
0.217549
0.257355
0.218783
0.258702
0.869434
0.962042
0.873069
0.966034
0.327654
0.371732
0.329197
0.373374
0.953683
0.861827
0.957919
0.865651
0.368384
0.324499
0.370081
0.326096
0.662563
0.553121
0.665947
0.556231
0.254606
0.215014
0.256006
0.216302
0.504871
0.504853
0.507847
0.50783
0.197817
0.19781
0.199054
0.199047
0.55307
0.662486
0.556182
0.665873
0.21499
0.254568
0.21628
0.255969
0.861825
0.95368
0.86559
0.957816
0.324451
0.368329
0.32605
0.370029
0.94497
0.853942
0.949298
0.85786
0.364833
0.321154
0.36661
0.322824
0.655572
0.546717
0.659087
0.549946
0.251706
0.212352
0.253164
0.213692
0.498743
0.498726
0.501835
0.501817
0.195264
0.195256
0.19655
0.196542
0.546666
0.655495
0.549895
0.659011
0.212328
0.251668
0.213668
0.253126
0.853824
0.944872
0.857803
0.949277
0.321105
0.364779
0.322776
0.366555
0.935896
0.845717
0.940434
0.849825
0.361163
0.317701
0.362998
0.319426
0.64834
0.540088
0.651977
0.543429
0.248708
0.209596
0.250215
0.210983
0.492401
0.492383
0.495599
0.495581
0.192621
0.192613
0.193951
0.193943
0.540034
0.648253
0.543376
0.651895
0.209573
0.248669
0.210959
0.250176
0.845577
0.935751
0.849696
0.940304
0.317649
0.361104
0.319375
0.362941
0.926327
0.837109
0.931106
0.841389
0.357331
0.314097
0.35925
0.315898
0.640847
0.533234
0.644614
0.536687
0.245597
0.206745
0.247161
0.20818
0.485849
0.485831
0.489151
0.489133
0.189889
0.189882
0.191263
0.191256
0.533183
0.640764
0.536634
0.644528
0.206724
0.245561
0.208157
0.247123
0.836972
0.926175
0.841247
0.930954
0.314048
0.357275
0.315846
0.359191
0.91652
0.828314
0.921394
0.832693
0.353378
0.310384
0.355353
0.312237
0.633113
0.526163
0.637
0.529724
0.242389
0.203803
0.244
0.205283
0.479091
0.479076
0.482495
0.482479
0.187067
0.187061
0.188487
0.18848
0.526117
0.633036
0.529675
0.636919
0.203785
0.242359
0.205263
0.243967
0.828183
0.916366
0.832558
0.921247
0.310343
0.353329
0.312191
0.3553
0.906352
0.81929
0.911331
0.82368
0.349308
0.306572
0.351325
0.308455
0.62519
0.518891
0.629152
0.522549
0.239088
0.200768
0.240742
0.202294
0.472131
0.472118
0.475637
0.475623
0.184155
0.18415
0.18562
0.185615
0.518853
0.625127
0.522507
0.629082
0.200754
0.239064
0.202278
0.240715
0.81927
0.906321
0.823603
0.911215
0.30654
0.34927
0.308419
0.351283
0.896277
0.810298
0.901292
0.814779
0.345187
0.302704
0.347246
0.304637
0.617089
0.511406
0.621162
0.515178
0.235701
0.197638
0.237404
0.199214
0.46495
0.464938
0.468571
0.468559
0.181145
0.18114
0.182661
0.182656
0.511373
0.617035
0.515143
0.621103
0.197625
0.235679
0.199201
0.237382
0.810226
0.896207
0.814723
0.901247
0.302674
0.345152
0.304606
0.34721
0.885544
0.800712
0.890951
0.805526
0.340849
0.298622
0.343037
0.300678
0.608626
0.503626
0.612902
0.507557
0.232166
0.194383
0.23395
0.196025
0.457496
0.457485
0.46126
0.46125
0.178018
0.178014
0.179595
0.179591
0.503596
0.60858
0.507525
0.612852
0.194371
0.232146
0.196013
0.233929
0.800656
0.885484
0.805463
0.890882
0.298595
0.340818
0.30065
0.343004
0.87414
0.790574
0.879858
0.795649
0.336265
0.29432
0.33857
0.296481
0.599747
0.495502
0.604229
0.499607
0.228464
0.190987
0.230331
0.192701
0.449727
0.449718
0.453652
0.453642
0.174759
0.174755
0.176403
0.176399
0.495474
0.599705
0.499578
0.604185
0.190975
0.228444
0.192689
0.230312
0.790526
0.874088
0.795597
0.879801
0.294294
0.336236
0.296455
0.338541
0.862217
0.779988
0.868183
0.78528
0.331475
0.289827
0.33388
0.292081
0.59048
0.48703
0.595153
0.491309
0.2246
0.187445
0.226548
0.189232
0.44163
0.44162
0.44572
0.445711
0.171362
0.171358
0.173076
0.173072
0.487002
0.590439
0.491281
0.595111
0.187434
0.224582
0.18922
0.226529
0.779942
0.862168
0.785232
0.868132
0.289803
0.331447
0.292056
0.333852
0.849834
0.768991
0.856027
0.774486
0.326497
0.285155
0.328996
0.287499
0.580838
0.478205
0.585698
0.482662
0.220579
0.183756
0.222606
0.185617
0.433191
0.433182
0.437454
0.437445
0.167821
0.167817
0.169608
0.169604
0.478179
0.580798
0.482635
0.585658
0.183745
0.220561
0.185606
0.222588
0.768947
0.849787
0.774441
0.855978
0.285131
0.32647
0.287474
0.328968
0.837001
0.757578
0.843421
0.763285
0.321331
0.280297
0.323925
0.282736
0.570805
0.469006
0.575865
0.473654
0.216393
0.179909
0.218504
0.181851
0.424385
0.424376
0.428836
0.428827
0.164127
0.164123
0.165992
0.165988
0.46898
0.570767
0.473628
0.575826
0.179899
0.216376
0.18184
0.218486
0.757535
0.836956
0.76324
0.843374
0.280275
0.321306
0.282712
0.323899
0.823688
0.74571
0.830354
0.751652
0.315961
0.275235
0.31866
0.277779
0.560334
0.459379
0.565621
0.46425
0.212023
0.175886
0.214229
0.17792
0.415157
0.415148
0.419828
0.419819
0.160258
0.160254
0.162214
0.16221
0.459355
0.560298
0.464224
0.565584
0.175876
0.212006
0.177909
0.214212
0.74567
0.823645
0.751609
0.830309
0.275214
0.315937
0.277757
0.318635
0.809829
0.733309
0.81678
0.73953
0.310358
0.269949
0.313179
0.272608
0.549343
0.449237
0.554904
0.454379
0.207436
0.17165
0.209756
0.173796
0.405416
0.405408
0.410358
0.41035
0.156177
0.156174
0.158245
0.158242
0.449214
0.549309
0.454356
0.554868
0.17164
0.207421
0.173786
0.20974
0.73327
0.809789
0.73949
0.816737
0.269929
0.310335
0.272587
0.313155
0.795304
0.720242
0.802609
0.726818
0.304464
0.264386
0.30744
0.267195
0.537692
0.438434
0.543605
0.443929
0.202575
0.167142
0.205042
0.169433
0.395015
0.395007
0.400309
0.400301
0.151826
0.151823
0.154039
0.154036
0.438412
0.537659
0.443907
0.543571
0.167133
0.202561
0.169423
0.205027
0.720206
0.795266
0.72678
0.802569
0.264367
0.304443
0.267175
0.307418
0.779897
0.706296
0.787677
0.713344
0.298181
0.25844
0.301367
0.261455
0.525161
0.426753
0.531546
0.432719
0.197348
0.162272
0.200011
0.164757
0.383739
0.383732
0.389503
0.389495
0.147117
0.147114
0.149521
0.149519
0.426733
0.525131
0.432698
0.531515
0.162264
0.197335
0.164749
0.199998
0.706262
0.779863
0.713309
0.78764
0.258422
0.298161
0.261437
0.301346
0.763261
0.691135
0.771712
0.698843
0.291356
0.251976
0.294837
0.255271
0.511425
0.413881
0.518463
0.420489
0.191623
0.156917
0.194555
0.159663
0.371286
0.37128
0.377683
0.377676
0.141929
0.141927
0.14459
0.144588
0.413863
0.511398
0.42047
0.518434
0.156909
0.191612
0.159655
0.194543
0.691105
0.763231
0.698812
0.771678
0.251961
0.291338
0.255254
0.294818
0.744773
0.674187
0.754254
0.682883
0.283733
0.244789
0.287655
0.248478
0.495966
0.399355
0.503948
0.40686
0.185206
0.1509
0.188514
0.154003
0.357234
0.357229
0.364491
0.364485
0.136102
0.1361
0.139105
0.139103
0.39934
0.495944
0.406843
0.503923
0.150894
0.185196
0.153996
0.188503
0.674162
0.744747
0.682855
0.754225
0.244776
0.283718
0.248463
0.287638
0.723213
0.65432
0.734442
0.664681
0.274839
0.236522
0.279477
0.240811
0.47783
0.382459
0.487316
0.39126
0.177769
0.143973
0.181641
0.147567
0.341028
0.341024
0.349437
0.349432
0.129443
0.129442
0.132887
0.132885
0.382447
0.477813
0.391246
0.487296
0.143969
0.177761
0.147562
0.181632
0.654301
0.723194
0.664659
0.734419
0.236512
0.274828
0.240799
0.279464
0.696114
0.628426
0.710516
0.64245
0.263768
0.226347
0.269641
0.231761
0.454837
0.362078
0.467161
0.372785
0.16865
0.135803
0.173483
0.140064
0.322129
0.322126
0.331931
0.331927
0.121802
0.121801
0.125745
0.125744
0.36207
0.454827
0.372775
0.467147
0.1358
0.168646
0.14006
0.173476
0.628416
0.696105
0.642436
0.710501
0.226341
0.263761
0.231752
0.269632
0.65979
0.582718
0.679413
0.610137
0.248284
0.209768
0.256927
0.219573
0.421815
0.337317
0.440017
0.350199
0.156331
0.126215
0.163022
0.131162
0.300957
0.300956
0.3117
0.311698
0.113412
0.113412
0.11765
0.11765
0.337314
0.421812
0.350194
0.44001
0.126215
0.15633
0.13116
0.163019
0.582719
0.659797
0.610133
0.679411
0.209767
0.248284
0.219569
0.256923
0.310922
0.262703
0.0532441
0.0599274
0.252372
0.217198
0.038654
0.0439057
0.0932738
0.022118
0.010329
0.00387377
0.0660073
0.0127925
0.00715973
0.00339093
0.00497626
0.00497674
0.00305234
0.00305236
0.00349055
0.00349068
0.00306694
0.00306694
0.0221204
0.093278
0.0038739
0.0103298
0.0127935
0.0660094
0.00339097
0.00715997
0.262707
0.310925
0.0599315
0.0532458
0.217201
0.252375
0.043907
0.038655
0.695066
0.583022
0.531314
0.440515
0.608255
0.507718
0.458932
0.37976
0.347208
0.198237
0.227874
0.09627
0.286985
0.150782
0.183197
0.0660137
0.120851
0.120854
0.0342363
0.034239
0.0782974
0.0783
0.0178283
0.01783
0.19824
0.347208
0.096275
0.227877
0.150785
0.286986
0.0660172
0.1832
0.583019
0.695061
0.440517
0.531314
0.507717
0.608252
0.379761
0.458932
0.925193
0.796656
0.821776
0.698977
0.810745
0.693872
0.720684
0.609467
0.544941
0.388947
0.452163
0.297709
0.455713
0.311588
0.376867
0.234405
0.314861
0.31486
0.222475
0.222476
0.2439
0.2439
0.165004
0.165005
0.388942
0.544932
0.297709
0.452159
0.311586
0.455708
0.234405
0.376865
0.796644
0.925178
0.69897
0.821766
0.693863
0.810733
0.609462
0.720677
1.08678
0.953388
1.01207
0.880415
0.949865
0.828057
0.885677
0.765685
0.699622
0.543832
0.626956
0.47083
0.586727
0.442755
0.525209
0.380948
0.470879
0.470875
0.397425
0.397423
0.376608
0.376606
0.314226
0.314224
0.543819
0.699601
0.470822
0.626941
0.442746
0.586711
0.380943
0.525199
0.953362
1.08675
0.880396
1.01205
0.828037
0.949842
0.765671
0.88566
1.20723
1.07252
1.1512
1.01692
1.05326
0.929794
1.00516
0.882307
0.820251
0.665649
0.763745
0.608521
0.688808
0.54572
0.64099
0.497459
0.593328
0.593321
0.535914
0.535908
0.480204
0.480198
0.431685
0.43168
0.665627
0.820218
0.608503
0.763718
0.545704
0.688782
0.497446
0.640969
1.07248
1.20719
1.01689
1.15117
0.929762
1.05323
0.882281
1.00513
1.29733
1.16263
1.25551
1.12072
1.13074
1.00684
1.09476
0.970986
0.912836
0.759604
0.869694
0.715785
0.767189
0.625015
0.730658
0.588042
0.687808
0.687798
0.643735
0.643726
0.559882
0.559874
0.522733
0.522726
0.759574
0.912792
0.715759
0.869655
0.624991
0.767152
0.588021
0.730626
1.16258
1.29728
1.12067
1.25546
1.00679
1.13069
0.970947
1.09471
1.36349
1.22937
1.33298
1.19854
1.18774
1.06396
1.16145
1.03757
0.982207
0.830358
0.950125
0.797604
0.825939
0.684675
0.798767
0.657062
0.759076
0.759063
0.726069
0.726057
0.619879
0.619868
0.592101
0.592091
0.830321
0.982154
0.79757
0.950076
0.684644
0.825892
0.657034
0.798725
1.22931
1.36344
1.19849
1.33292
1.0639
1.18768
1.03752
1.16139
1.41049
1.27716
1.38902
1.25529
1.22823
1.10486
1.20973
1.08614
1.03249
0.881964
1.00947
0.858307
0.868502
0.728136
0.849016
0.708219
0.811193
0.811178
0.787285
0.787271
0.663679
0.663666
0.643594
0.643582
0.881922
1.03243
0.858267
1.00941
0.7281
0.868448
0.708185
0.848966
1.2771
1.41042
1.25523
1.38895
1.1048
1.22816
1.08608
1.20966
1.44222
1.30976
1.42793
1.29505
1.25557
1.13273
1.24326
1.12016
1.06733
0.918024
1.05161
0.901721
0.897948
0.75844
0.884662
0.744746
0.847743
0.847727
0.831202
0.831186
0.694324
0.69431
0.680463
0.680449
0.917978
1.06727
0.901676
1.05154
0.7584
0.897888
0.744707
0.884604
1.30969
1.44216
1.29498
1.42786
1.13267
1.2555
1.12009
1.24319
1.46194
1.33034
1.4533
1.32128
1.27256
1.15031
1.26511
1.14257
1.0899
0.941696
1.07995
0.931224
0.91697
0.778268
0.908587
0.769503
0.871879
0.871861
0.861182
0.861165
0.714487
0.714471
0.705558
0.705543
0.941647
1.08983
0.931176
1.07988
0.778224
0.916906
0.76946
0.908524
1.33027
1.46188
1.32121
1.45323
1.15024
1.27248
1.1425
1.26503
1.47237
1.34161
1.46807
1.33691
1.28153
1.1599
1.27783
1.15589
1.10292
0.955705
1.09743
0.949753
0.927885
0.789935
0.92329
0.784984
0.886323
0.886305
0.880159
0.880141
0.726482
0.726466
0.72137
0.721355
0.955655
1.10285
0.949703
1.09736
0.78989
0.927818
0.784939
0.923225
1.34154
1.4723
1.33683
1.46799
1.15983
1.28145
1.15582
1.27775
1.4757
1.34577
1.4747
1.34437
1.28438
1.16341
1.28352
1.16223
1.10864
0.96235
1.10655
0.95982
0.932624
0.795398
0.930897
0.793327
0.893381
0.893363
0.89065
0.890632
0.73227
0.732254
0.73004
0.730024
0.962299
1.10857
0.959769
1.10648
0.795353
0.932558
0.793282
0.930831
1.34571
1.47564
1.3443
1.47463
1.16333
1.28431
1.16215
1.28344
1.47383
1.34472
1.47523
1.34571
1.28279
1.16248
1.28399
1.16333
1.10898
0.96352
1.10936
0.963518
0.932835
0.796276
0.933182
0.796316
0.894937
0.89492
0.894751
0.894733
0.733457
0.733441
0.733351
0.733335
0.963471
1.10892
0.963468
1.10929
0.796232
0.932772
0.796271
0.933118
1.34466
1.47378
1.34564
1.47517
1.16241
1.28272
1.16326
1.28391
1.46779
1.33954
1.47118
1.34251
1.27761
1.15804
1.2805
1.16057
1.10525
0.960695
1.10757
0.962581
0.929618
0.793826
0.9316
0.795445
0.892543
0.892526
0.894209
0.894191
0.73137
0.731356
0.732806
0.732791
0.960649
1.10518
0.962533
1.1075
0.793787
0.929562
0.795403
0.93154
1.33948
1.46774
1.34245
1.47112
1.15798
1.27755
1.1605
1.28043
1.45856
1.33122
1.46349
1.33568
1.2698
1.15102
1.27393
1.15475
1.0985
0.954913
1.10218
0.958101
0.923907
0.788928
0.927005
0.791615
0.887215
0.8872
0.890171
0.890155
0.726854
0.726843
0.729346
0.729334
0.954873
1.09845
0.958057
1.10212
0.788897
0.923867
0.791579
0.926955
1.33119
1.45855
1.33562
1.46342
1.15098
1.26976
1.1547
1.27388
1.44716
1.32094
1.45291
1.32612
1.26018
1.1423
1.26508
1.14674
1.08989
0.947291
1.09434
0.951277
0.916641
0.782515
0.920395
0.785861
0.880056
0.880041
0.883818
0.883804
0.720838
0.720827
0.72399
0.72398
0.947251
1.08984
0.95124
1.09429
0.782485
0.916602
0.785833
0.920361
1.32086
1.44709
1.32607
1.45288
1.14232
1.26019
1.14671
1.26503
1.43549
1.3102
1.4413
1.31561
1.24994
1.133
1.25504
1.13765
1.08037
0.93861
1.08522
0.943061
0.908591
0.775228
0.912684
0.778955
0.87179
0.871771
0.876038
0.87602
0.713919
0.713903
0.717466
0.717453
0.938553
1.08028
0.943012
1.08515
0.775183
0.908516
0.778918
0.912627
1.31011
1.43538
1.31551
1.44119
1.13289
1.24982
1.13761
1.25502
1.42262
1.29844
1.42902
1.30425
1.23925
1.12324
1.24455
1.12809
1.07012
0.929241
1.07529
0.933996
0.899994
0.767391
0.904328
0.771362
0.862835
0.862812
0.867389
0.867368
0.706442
0.706422
0.710237
0.710219
0.929178
1.07003
0.933937
1.07521
0.767336
0.899906
0.771312
0.904246
1.29843
1.42265
1.30424
1.429
1.12313
1.23911
1.12797
1.24441
1.40987
1.28669
1.41621
1.29258
1.22819
1.11315
1.23365
1.11814
1.05949
0.919411
1.06486
0.924387
0.891048
0.759176
0.895552
0.763326
0.853404
0.853378
0.85818
0.858155
0.698577
0.698555
0.702553
0.702532
0.919339
1.05938
0.924315
1.06475
0.759112
0.890944
0.763265
0.895454
1.28654
1.40974
1.29246
1.41612
1.11298
1.22804
1.11805
1.23356
1.39604
1.27403
1.40295
1.28032
1.21659
1.10258
1.22236
1.10783
1.04835
0.909169
1.05395
0.91434
0.881729
0.750629
0.886414
0.75494
0.843583
0.84356
0.848546
0.848522
0.690395
0.690373
0.694524
0.694502
0.909106
1.04827
0.914275
1.05387
0.750568
0.881637
0.754878
0.88632
1.27391
1.39593
1.28019
1.40283
1.10234
1.21635
1.10763
1.22218
1.38219
1.26133
1.38905
1.26767
1.20464
1.09171
1.2106
1.09713
1.03692
0.89859
1.04268
0.903929
0.872116
0.741791
0.876951
0.746246
0.833422
0.833395
0.838552
0.838527
0.681927
0.681904
0.686197
0.686174
0.898509
1.03678
0.903855
1.04256
0.741721
0.871996
0.74618
0.876843
1.26112
1.38192
1.2675
1.38886
1.09148
1.20435
1.09687
1.21029
1.36731
1.24781
1.37474
1.25451
1.19205
1.08032
1.19833
1.08598
1.02505
0.887652
1.03102
0.89317
0.862155
0.732655
0.867163
0.737259
0.822929
0.822903
0.828224
0.828197
0.673182
0.673159
0.67759
0.677567
0.887575
1.02493
0.89309
1.03089
0.732587
0.862048
0.737189
0.867049
1.24776
1.36729
1.25441
1.37459
1.08026
1.19197
1.08582
1.1981
1.35244
1.23427
1.35982
1.24103
1.17921
1.06874
1.18557
1.0745
1.01284
0.876379
1.01899
0.882064
0.851889
0.723233
0.857048
0.727979
0.812112
0.812085
0.817568
0.817541
0.664165
0.664144
0.668708
0.668686
0.876297
1.0127
0.881982
1.01885
0.723167
0.851769
0.72791
0.856933
1.23405
1.3522
1.24087
1.35968
1.06852
1.17896
1.07436
1.18546
1.33677
1.22008
1.34454
1.22709
1.16587
1.05676
1.17246
1.06265
1.00026
0.864772
1.00657
0.870619
0.841349
0.713542
0.846631
0.718419
0.800972
0.800948
0.806589
0.806564
0.654881
0.654863
0.659558
0.659537
0.864702
1.00015
0.870544
1.00645
0.713485
0.841254
0.718357
0.846524
1.21993
1.33663
1.22692
1.34435
1.05671
1.16582
1.06253
1.17227
1.32105
1.20582
1.32886
1.21292
1.15251
1.04476
1.15911
1.05071
0.987393
0.852832
0.993866
0.858854
0.830552
0.703566
0.835975
0.708593
0.789492
0.789471
0.795285
0.795263
0.645309
0.645293
0.650135
0.650118
0.852768
0.98728
0.858785
0.993749
0.703518
0.830472
0.70854
0.835887
1.20565
1.32086
1.21273
1.32865
1.04461
1.15235
1.05058
1.15901
1.30461
1.1909
1.31283
1.19836
1.1385
1.03214
1.14553
1.03846
0.974028
0.840454
0.980774
0.846709
0.819325
0.693215
0.824992
0.698443
0.777595
0.777578
0.783608
0.783589
0.635382
0.635368
0.640395
0.64038
0.840404
0.973955
0.846654
0.980684
0.693174
0.819264
0.698399
0.824922
1.19082
1.30453
1.19825
1.31271
1.03207
1.13842
1.03836
1.1454
1.28726
1.1752
1.29596
1.18307
1.12362
1.0188
1.13108
1.02548
0.960043
0.827542
0.967109
0.834073
0.807557
0.682411
0.813498
0.687871
0.765201
0.765186
0.77147
0.771454
0.625038
0.625025
0.630265
0.630251
0.8275
0.959987
0.834028
0.967047
0.682375
0.807505
0.687833
0.813443
1.17515
1.28722
1.18301
1.2959
1.01875
1.12357
1.02542
1.13101
1.2691
1.15879
1.27819
1.16701
1.10806
1.00486
1.11584
1.01183
0.945434
0.814064
0.952809
0.820879
0.795268
0.671139
0.801466
0.676833
0.752269
0.752255
0.75881
0.758795
0.614249
0.614237
0.619701
0.619688
0.814026
0.945385
0.82084
0.952757
0.671104
0.795219
0.676798
0.801416
1.15875
1.26907
1.16696
1.27814
1.00481
1.10801
1.01178
1.11578
1.25023
1.14174
1.25967
1.15027
1.09189
0.990378
1.09997
0.997615
0.930217
0.800007
0.937897
0.807115
0.782474
0.659389
0.788925
0.665324
0.738772
0.738758
0.745599
0.745586
0.602998
0.602986
0.608684
0.608672
0.79997
0.93017
0.807077
0.937849
0.659355
0.782427
0.66529
0.788877
1.1417
1.2502
1.15023
1.25963
0.99033
1.09184
0.997565
1.09992
1.23068
1.12402
1.24046
1.13289
1.07514
0.975348
1.08351
0.982862
0.914361
0.785324
0.922367
0.792752
0.769154
0.647128
0.775873
0.653325
0.724657
0.724643
0.731802
0.731788
0.591244
0.591232
0.597188
0.597176
0.785288
0.914316
0.792716
0.922321
0.647095
0.769108
0.653292
0.775827
1.12399
1.23065
1.13285
1.24043
0.975302
1.07509
0.982815
1.08346
1.21039
1.10559
1.22055
1.11483
1.05776
0.959722
1.06646
0.967544
0.897785
0.769922
0.906165
0.777725
0.755243
0.634282
0.762269
0.640784
0.709826
0.709813
0.717344
0.717331
0.578909
0.578898
0.585156
0.585145
0.769888
0.897742
0.77769
0.906121
0.634251
0.755199
0.640752
0.762224
1.10556
1.21037
1.11479
1.22052
0.959678
1.05772
0.967499
1.06641
1.18927
1.08633
1.19987
1.096
1.03967
0.94339
1.04874
0.951584
0.880348
0.753648
0.889181
0.761911
0.740622
0.620725
0.748022
0.627602
0.694117
0.694105
0.702099
0.702087
0.565864
0.565853
0.572486
0.572475
0.753615
0.880307
0.761877
0.889138
0.620695
0.74058
0.627571
0.747979
1.0863
1.18925
1.09596
1.19984
0.943349
1.03963
0.951541
1.04869
1.16712
1.06603
1.17826
1.07626
1.02072
0.926178
1.03025
0.93484
0.861819
0.736254
0.871234
0.745114
0.7251
0.606256
0.732981
0.61362
0.677282
0.67727
0.685865
0.685853
0.551903
0.551893
0.559014
0.559003
0.736223
0.86178
0.745082
0.871194
0.606227
0.725061
0.613591
0.73294
1.066
1.1671
1.07623
1.17824
0.92614
1.02069
0.9348
1.03021
1.14361
1.04435
1.15548
1.05532
1.00063
0.907808
1.01077
0.917094
0.841835
0.717378
0.852031
0.727033
0.708379
0.590574
0.716904
0.598589
0.658955
0.658944
0.668337
0.668326
0.536728
0.536718
0.54449
0.54448
0.717349
0.841799
0.727003
0.851994
0.590548
0.708343
0.598562
0.716866
1.04432
1.14359
1.05529
1.15546
0.907774
1.0006
0.917056
1.01073
1.11823
1.02075
1.13112
1.03276
0.978943
0.887832
0.989951
0.897992
0.819855
0.696486
0.831133
0.707228
0.690008
0.57324
0.699428
0.582147
0.638617
0.638607
0.64908
0.64907
0.519911
0.519902
0.528557
0.528548
0.69646
0.819823
0.707201
0.831099
0.573216
0.689975
0.582122
0.699394
1.02073
1.11822
1.03274
1.1311
0.887801
0.978914
0.897958
0.989918
1.09003
0.994313
1.10449
1.0079
0.954853
0.865466
0.9672
0.876951
0.794994
0.672782
0.807855
0.68505
0.66925
0.553597
0.679982
0.563758
0.615543
0.615534
0.627479
0.627469
0.500855
0.500848
0.510707
0.510699
0.67276
0.794967
0.685026
0.807824
0.553577
0.669222
0.563736
0.679952
0.994295
1.09003
1.00788
1.10448
0.865441
0.95483
0.876922
0.967172
1.05714
0.963162
1.07428
0.979442
0.926735
0.839117
0.941382
0.852883
0.76564
0.64506
0.78102
0.659519
0.644744
0.530631
0.657584
0.542609
0.588793
0.588787
0.602691
0.602683
0.478779
0.478773
0.490246
0.490239
0.645043
0.76562
0.659499
0.780996
0.530616
0.644723
0.542591
0.657559
0.963152
1.05714
0.979427
1.07427
0.839099
0.926719
0.85286
0.941361
1.01575
0.922513
1.03775
0.944496
0.891163
0.80452
0.910116
0.82328
0.728463
0.61164
0.74834
0.629171
0.613544
0.502862
0.630263
0.517446
0.557568
0.557564
0.573755
0.573749
0.452975
0.452971
0.466358
0.466353
0.61163
0.728455
0.629157
0.748326
0.502852
0.613532
0.517433
0.630247
0.922517
1.01576
0.944491
1.03776
0.804514
0.891161
0.823267
0.910105
0.96027
0.854242
0.99018
0.894427
0.842352
0.744639
0.868901
0.780212
0.677102
0.571809
0.704997
0.592382
0.569567
0.469454
0.593604
0.486757
0.522871
0.52287
0.540426
0.540423
0.424197
0.424196
0.438769
0.438766
0.571808
0.677109
0.592377
0.704996
0.469451
0.569567
0.486751
0.593599
0.854266
0.960317
0.894439
0.990205
0.744649
0.842374
0.780212
0.868908
0.382336
0.318895
0.075395
0.0925152
0.352227
0.294808
0.0653592
0.0771569
0.131223
0.0383149
0.0173297
0.0046823
0.114358
0.0306433
0.0137551
0.00425451
0.0095104
0.00951182
0.00318214
0.0031822
0.00705644
0.00705724
0.00312071
0.00312074
0.0383197
0.13123
0.00468266
0.0173318
0.0306465
0.114363
0.00425469
0.0137564
0.318901
0.382342
0.092523
0.0753985
0.294814
0.352232
0.0771632
0.0653619
0.79544
0.673005
0.615435
0.513135
0.753638
0.635142
0.580459
0.482612
0.424262
0.265164
0.284898
0.1394
0.391245
0.235692
0.260467
0.120215
0.185318
0.185321
0.0642948
0.0642988
0.156414
0.156417
0.0499586
0.0499617
0.265166
0.42426
0.139407
0.284902
0.235695
0.391244
0.12022
0.26047
0.673
0.795433
0.513136
0.615435
0.635138
0.753633
0.482613
0.580459
1.06117
0.923327
0.939942
0.807405
1.00386
0.869392
0.890457
0.761528
0.662084
0.497702
0.549636
0.386327
0.611402
0.449798
0.507686
0.347384
0.419124
0.419121
0.307187
0.307187
0.372677
0.372675
0.269472
0.269472
0.497693
0.662068
0.386324
0.549628
0.449792
0.61139
0.347382
0.50768
0.923307
1.06115
0.807393
0.939927
0.869375
1.00384
0.761518
0.890445
1.25469
1.11275
1.16477
1.02419
1.18309
1.04412
1.10001
0.962598
0.851676
0.688085
0.762375
0.59815
0.785247
0.624111
0.703484
0.541875
0.61032
0.610313
0.520007
0.520002
0.547902
0.547896
0.465273
0.465269
0.688065
0.851646
0.598136
0.762352
0.624094
0.785221
0.541863
0.703465
1.11271
1.25466
1.02416
1.16474
1.04409
1.18305
0.962575
1.09999
1.40055
1.25811
1.33262
1.19019
1.31738
1.17751
1.25489
1.11523
1.0005
0.838843
0.930722
0.768049
0.921187
0.76161
0.857487
0.697089
0.761847
0.761836
0.690666
0.690657
0.686086
0.686077
0.621233
0.621225
0.838813
1.00046
0.768024
0.930685
0.761584
0.921149
0.697067
0.857455
1.25807
1.4005
1.19015
1.33258
1.17747
1.31733
1.11519
1.25484
1.50997
1.3684
1.45917
1.31709
1.41791
1.27851
1.37125
1.23153
1.11503
0.955586
1.06164
0.901097
1.02561
0.867845
0.976946
0.818282
0.879418
0.879404
0.824513
0.8245
0.792998
0.792986
0.743098
0.743087