/*--------------------------------*- C++ -*----------------------------------*\
  =========                 |
  \\      /  F ield         | OpenFOAM: The Open Source CFD Toolbox
   \\    /   O peration     | Website:  https://openfoam.org
    \\  /    A nd           | Version:  9
     \\/     M anipulation  |
\*---------------------------------------------------------------------------*/
FoamFile
{
    format      ascii;
    class       volVectorField;
    location    "1.7";
    object      U;
}
// * * * * * * * * * * * * * * * * * * * * * * * * * * * * * * * * * * * * * //

dimensions      [0 1 -1 0 0 0 0];

internalField   nonuniform List<vector> 
36360
(
(-0.000691038 -0.279482 -0.982465)
(-0.0048785 -0.163774 0.000713376)
(-0.0136109 -0.281078 -1.00074)
(0.00295799 -0.14117 0.000240228)
(0.000840763 -0.303092 -0.992943)
(0.0219154 -0.146803 -3.33518e-05)
(-0.00324464 -0.291767 -1.00319)
(0.0331925 -0.176182 0.000153611)
(0.000625386 -0.187564 -0.000492152)
(-0.00648588 -0.201014 -2.78945e-05)
(-0.00526559 -0.186949 -0.000198114)
(-0.0071802 -0.198558 -1.03473e-05)
(0.0161063 -0.208007 4.32493e-05)
(0.0101477 -0.21813 -5.91774e-06)
(0.0163 -0.21587 -0.000138195)
(0.0131474 -0.220851 -1.9041e-05)
(-0.00666972 -0.205041 1.4029e-06)
(-0.00666982 -0.205041 -1.39979e-06)
(-0.0066157 -0.202775 1.09516e-07)
(-0.00661571 -0.202775 -1.09043e-07)
(0.00989924 -0.218429 -3.9163e-06)
(0.0098992 -0.218429 3.92204e-06)
(0.0127848 -0.22118 -6.16971e-07)
(0.0127847 -0.22118 6.17945e-07)
(-0.00648585 -0.201014 2.78988e-05)
(0.000625414 -0.187564 0.000492161)
(-0.00718022 -0.198558 1.03484e-05)
(-0.00526551 -0.186949 0.000198114)
(0.0101475 -0.218129 5.92532e-06)
(0.0161062 -0.208006 -4.3248e-05)
(0.0131474 -0.220851 1.90432e-05)
(0.0162999 -0.215869 0.000138193)
(-0.00487865 -0.163773 -0.000713393)
(-0.000690389 -0.279479 0.982465)
(0.00295788 -0.141168 -0.000240233)
(-0.0136105 -0.281075 1.00074)
(0.0219148 -0.146801 3.33224e-05)
(0.000841544 -0.30309 0.992942)
(0.0331921 -0.17618 -0.000153616)
(-0.00324441 -0.291765 1.00319)
(0.0158969 -0.258554 -0.961976)
(-0.0170246 -0.192315 0.000966668)
(0.00984604 -0.267407 -0.972195)
(-0.0119816 -0.18261 0.00100122)
(0.0130703 -0.29065 -0.99316)
(-0.00893416 -0.150411 -0.000595895)
(0.00928331 -0.301291 -0.992899)
(0.00298246 -0.141341 -0.000282359)
(0.00421574 -0.196158 -0.000460573)
(0.00258284 -0.203997 -3.52468e-05)
(0.00475487 -0.192707 -0.000577494)
(-0.00150903 -0.202502 -3.6303e-05)
(0.0146832 -0.181545 0.000619606)
(0.00953214 -0.20819 3.43497e-05)
(0.0184151 -0.192126 0.000288565)
(0.00902483 -0.213848 8.60468e-06)
(-0.0021614 -0.208812 -8.29171e-07)
(-0.00216115 -0.208812 8.42349e-07)
(-0.00601437 -0.20819 4.24584e-07)
(-0.00601426 -0.20819 -4.17555e-07)
(0.00582111 -0.2142 -6.00069e-06)
(0.00582106 -0.2142 6.01715e-06)
(0.00758201 -0.214956 -7.1512e-06)
(0.00758196 -0.214956 7.16231e-06)
(0.0025829 -0.203997 3.52662e-05)
(0.0042157 -0.196157 0.000460587)
(-0.00150888 -0.202502 3.63137e-05)
(0.00475482 -0.192707 0.000577506)
(0.00953202 -0.20819 -3.43294e-05)
(0.0146829 -0.181545 -0.000619599)
(0.00902474 -0.213848 -8.59159e-06)
(0.0184148 -0.192125 -0.000288562)
(-0.0170243 -0.192313 -0.000966719)
(0.0158973 -0.25855 0.961976)
(-0.0119815 -0.182609 -0.00100125)
(0.0098466 -0.267403 0.972195)
(-0.00893457 -0.15041 0.000595819)
(0.0130705 -0.290646 0.99316)
(0.00298184 -0.141339 0.000282307)
(0.00928345 -0.301288 0.992898)
(0.0218671 -0.245972 -0.94811)
(-0.0215296 -0.202368 0.000508601)
(0.019761 -0.251834 -0.954183)
(-0.0197922 -0.198453 0.000764768)
(0.0179918 -0.268849 -0.990893)
(-0.0196511 -0.165994 -0.00149234)
(0.016082 -0.278902 -0.992267)
(-0.0157743 -0.158095 -0.00101541)
(0.00149219 -0.199457 -0.000127679)
(0.0039141 -0.204612 2.76947e-05)
(0.00278026 -0.198264 -0.000289983)
(0.00392455 -0.204717 -2.05486e-05)
(0.00659115 -0.173908 0.00137783)
(0.0058579 -0.196154 0.000176229)
(0.00968298 -0.176023 0.00101168)
(0.00812593 -0.201506 9.11184e-05)
(0.00325091 -0.20844 -8.1821e-06)
(0.00325091 -0.20844 8.21268e-06)
(0.00182272 -0.20896 -4.84874e-06)
(0.00182279 -0.20896 4.87018e-06)
(0.00524742 -0.207076 -1.24808e-06)
(0.00524738 -0.207076 1.27839e-06)
(0.00574884 -0.211852 -4.44082e-06)
(0.00574883 -0.211851 4.46363e-06)
(0.00391412 -0.204612 -2.76603e-05)
(0.00149232 -0.199456 0.000127687)
(0.00392457 -0.204717 2.05759e-05)
(0.00278035 -0.198263 0.000289995)
(0.00585779 -0.196154 -0.000176191)
(0.00659108 -0.173908 -0.00137781)
(0.0081258 -0.201506 -9.10892e-05)
(0.00968283 -0.176023 -0.00101166)
(-0.0215289 -0.202366 -0.000508688)
(0.0218672 -0.245968 0.948111)
(-0.0197917 -0.198451 -0.000764839)
(0.0197614 -0.25183 0.954184)
(-0.0196508 -0.165993 0.0014922)
(0.0179916 -0.268844 0.990893)
(-0.0157742 -0.158094 0.00101531)
(0.0160822 -0.278897 0.992267)
(0.023908 -0.23649 -0.938038)
(-0.0235422 -0.206508 -2.11886e-05)
(0.0230982 -0.240867 -0.942584)
(-0.0226864 -0.204875 0.000240269)
(0.0197492 -0.251042 -0.98872)
(-0.0233781 -0.178989 -0.00242535)
(0.0190465 -0.259463 -0.989701)
(-0.0218906 -0.173108 -0.00197084)
(-0.000119742 -0.201029 8.48452e-05)
(0.00276182 -0.203596 0.000207673)
(0.000572654 -0.200277 -1.04018e-06)
(0.00342466 -0.20415 0.000110304)
(0.00416952 -0.175108 0.00193712)
(0.00283138 -0.19 0.000404707)
(0.00497867 -0.173867 0.00168762)
(0.00408065 -0.192424 0.000284998)
(0.00291565 -0.206557 2.72652e-05)
(0.00291565 -0.206557 -2.72194e-05)
(0.00333693 -0.207576 3.773e-06)
(0.00333693 -0.207576 -3.73548e-06)
(0.00287019 -0.199378 3.14562e-05)
(0.00287015 -0.199378 -3.14039e-05)
(0.00396082 -0.202682 1.06824e-05)
(0.00396077 -0.202681 -1.06416e-05)
(0.00276186 -0.203596 -0.000207623)
(-0.000119515 -0.201028 -8.48465e-05)
(0.00342469 -0.20415 -0.000110263)
(0.000572861 -0.200276 1.04256e-06)
(0.00283136 -0.189999 -0.000404647)
(0.00416956 -0.175107 -0.00193707)
(0.00408061 -0.192424 -0.000284952)
(0.00497868 -0.173867 -0.00168758)
(-0.0235413 -0.206506 2.10699e-05)
(0.0239076 -0.236486 0.93804)
(-0.0226855 -0.204873 -0.000240374)
(0.0230981 -0.240863 0.942586)
(-0.0233772 -0.178988 0.00242513)
(0.0197484 -0.251037 0.98872)
(-0.0218899 -0.173107 0.00197066)
(0.0190462 -0.259457 0.989701)
(0.0249427 -0.229571 -0.929992)
(-0.0248136 -0.208335 -0.000479073)
(0.024481 -0.232758 -0.933598)
(-0.0242318 -0.207599 -0.000260964)
(0.0206615 -0.237642 -0.987015)
(-0.0253857 -0.187396 -0.00322298)
(0.0202344 -0.243795 -0.987788)
(-0.0244718 -0.183694 -0.0028438)
(-0.000999242 -0.202445 0.000159688)
(0.00175665 -0.202943 0.000382133)
(-0.000639366 -0.201773 0.000136231)
(0.00219169 -0.20319 0.000299094)
(0.00399913 -0.179267 0.00227687)
(0.00145132 -0.187869 0.000633655)
(0.00392984 -0.177057 0.00213053)
(0.00200022 -0.188584 0.000523258)
(0.00199881 -0.204816 8.7505e-05)
(0.00199881 -0.204816 -8.74085e-05)
(0.00242451 -0.205604 5.63656e-05)
(0.00242452 -0.205604 -5.63091e-05)
(0.0016405 -0.195116 8.76671e-05)
(0.00164048 -0.195115 -8.75085e-05)
(0.00213166 -0.196934 5.8112e-05)
(0.00213163 -0.196934 -5.80351e-05)
(0.00175668 -0.202943 -0.000382048)
(-0.000998878 -0.202444 -0.000159685)
(0.00219176 -0.203189 -0.000299063)
(-0.000639002 -0.201772 -0.000136232)
(0.00145128 -0.187869 -0.000633483)
(0.00399893 -0.179267 -0.00227679)
(0.00200021 -0.188584 -0.000523174)
(0.00392972 -0.177057 -0.00213046)
(-0.0248124 -0.208333 0.000478934)
(0.0249417 -0.229567 0.929996)
(-0.0242307 -0.207597 0.000260861)
(0.0244804 -0.232754 0.933601)
(-0.0253844 -0.187395 0.00322264)
(0.0206601 -0.237636 0.987016)
(-0.0244706 -0.183693 0.00284354)
(0.0202336 -0.243789 0.987789)
(0.0257109 -0.224481 -0.92352)
(-0.0257122 -0.209143 -0.000852629)
(0.0253385 -0.226838 -0.92635)
(-0.0252999 -0.208825 -0.000676201)
(0.0213237 -0.227981 -0.985644)
(-0.0267783 -0.192519 -0.00386186)
(0.020994 -0.232427 -0.986256)
(-0.026119 -0.190283 -0.00356163)
(-0.001316 -0.203626 0.000150936)
(0.00125515 -0.202884 0.0005177)
(-0.00120787 -0.20306 0.000162405)
(0.00145334 -0.202851 0.000455461)
(0.00433801 -0.183582 0.00246138)
(0.000858341 -0.187762 0.000816957)
(0.00416134 -0.181483 0.00238401)
(0.00109034 -0.187644 0.000732368)
(0.00139128 -0.203803 0.000145803)
(0.00139125 -0.203803 -0.000145719)
(0.00165603 -0.20422 0.000117919)
(0.00165614 -0.20422 -0.000117762)
(0.00102466 -0.192808 0.00014663)
(0.00102463 -0.192807 -0.000146537)
(0.00129041 -0.193776 0.000117944)
(0.00129051 -0.193776 -0.000117601)
(0.00125523 -0.202883 -0.000517624)
(-0.00131554 -0.203625 -0.000150947)
(0.00145321 -0.202851 -0.000455307)
(-0.00120755 -0.203058 -0.000162433)
(0.000858337 -0.187761 -0.000816951)
(0.00433782 -0.183581 -0.00246116)
(0.00109016 -0.187644 -0.000731623)
(0.00416109 -0.181482 -0.00238427)
(-0.0257107 -0.209141 0.00085247)
(0.0257094 -0.224476 0.923525)
(-0.0252985 -0.208823 0.000676016)
(0.0253374 -0.226834 0.926355)
(-0.0267765 -0.192517 0.00386149)
(0.0213219 -0.227974 0.985645)
(-0.0261174 -0.190281 0.00356103)
(0.0209927 -0.232421 0.986256)
(0.0263579 -0.220646 -0.918317)
(-0.0263378 -0.209431 -0.00114676)
(0.0260457 -0.222437 -0.92054)
(-0.0260532 -0.209334 -0.00100882)
(0.0218486 -0.22086 -0.984544)
(-0.0278074 -0.195566 -0.00435716)
(0.0215768 -0.224165 -0.985026)
(-0.0273122 -0.194244 -0.00412572)
(-0.0013578 -0.204582 0.000103954)
(0.00107819 -0.203171 0.00060852)
(-0.00135749 -0.204135 0.000130249)
(0.001138 -0.203002 0.000568362)
(0.00468461 -0.187211 0.00254962)
(0.000651941 -0.188569 0.00094587)
(0.00451828 -0.1855 0.00251444)
(0.000721411 -0.1881 0.000887991)
(0.00105276 -0.203375 0.000190397)
(0.00105275 -0.203375 -0.000190328)
(0.0011947 -0.203533 0.00017009)
(0.0011947 -0.203533 -0.000170019)
(0.000651428 -0.191676 0.000195384)
(0.000651433 -0.191676 -0.000195311)
(0.000816828 -0.192129 0.000172711)
(0.000816835 -0.192129 -0.000172634)
(0.00107823 -0.203171 -0.000608453)
(-0.00135728 -0.20458 -0.000104003)
(0.00113805 -0.203001 -0.000568292)
(-0.00135698 -0.204134 -0.000130286)
(0.000651885 -0.188568 -0.000945763)
(0.0046844 -0.18721 -0.00254949)
(0.000721377 -0.188099 -0.000887883)
(0.00451811 -0.185499 -0.00251431)
(-0.026336 -0.209429 0.00114657)
(0.026356 -0.220642 0.918323)
(-0.0260515 -0.209332 0.00100864)
(0.0260441 -0.222433 0.920546)
(-0.0278052 -0.195564 0.00435665)
(0.0218463 -0.220854 0.984545)
(-0.02731 -0.194243 0.00412527)
(0.021575 -0.224159 0.985027)
(0.0268836 -0.217631 -0.914145)
(-0.0267558 -0.209411 -0.00137451)
(0.0266305 -0.219057 -0.915852)
(-0.0265657 -0.209453 -0.0012677)
(0.022267 -0.21542 -0.983665)
(-0.0285497 -0.197311 -0.00473387)
(0.0220476 -0.217972 -0.984037)
(-0.0281897 -0.196568 -0.00455841)
(-0.00126898 -0.205273 4.49539e-05)
(0.00107424 -0.203561 0.000660965)
(-0.0013259 -0.204961 7.49727e-05)
(0.0010608 -0.203365 0.000638811)
(0.00498751 -0.189989 0.00258132)
(0.000651932 -0.189654 0.00102701)
(0.00484354 -0.188705 0.0025706)
(0.000633629 -0.189102 0.000991627)
(0.00089422 -0.203278 0.000218478)
(0.000894195 -0.203277 -0.000218408)
(0.000955608 -0.203298 0.00020641)
(0.000955595 -0.203298 -0.000206341)
(0.000407244 -0.191252 0.000229618)
(0.000407256 -0.191251 -0.000229542)
(0.000518044 -0.191397 0.00021431)
(0.000518056 -0.191397 -0.000214236)
(0.00107426 -0.20356 -0.0006609)
(-0.00126842 -0.205271 -4.50206e-05)
(0.00106084 -0.203364 -0.000638746)
(-0.00132533 -0.20496 -7.50327e-05)
(0.000651835 -0.189654 -0.0010269)
(0.00498728 -0.189988 -0.00258119)
(0.000633567 -0.189102 -0.000991516)
(0.00484336 -0.188704 -0.00257047)
(-0.0267537 -0.209409 0.0013743)
(0.0268814 -0.217627 0.914153)
(-0.0265636 -0.209451 0.0012675)
(0.0266286 -0.219053 0.91586)
(-0.0285471 -0.197309 0.00473329)
(0.0222643 -0.215414 0.983666)
(-0.0281871 -0.196566 0.00455786)
(0.0220455 -0.217966 0.984038)
(0.0272965 -0.215155 -0.910803)
(-0.02702 -0.209168 -0.00155083)
(0.0270976 -0.216339 -0.912091)
(-0.0269035 -0.209314 -0.00146795)
(0.0225632 -0.211096 -0.982966)
(-0.0290535 -0.198214 -0.00501673)
(0.0224021 -0.213144 -0.983249)
(-0.0288049 -0.197847 -0.00488532)
(-0.00109719 -0.205681 -1.43144e-05)
(0.00116524 -0.203886 0.000685732)
(-0.00118788 -0.205512 1.52725e-05)
(0.00111217 -0.203739 0.000675777)
(0.00525545 -0.191971 0.00258016)
(0.00075941 -0.19068 0.00107238)
(0.00513018 -0.191073 0.00258369)
(0.000700411 -0.190188 0.00105334)
(0.000853646 -0.203334 0.000233374)
(0.00085361 -0.203334 -0.000233299)
(0.000862395 -0.203295 0.000226846)
(0.000862372 -0.203295 -0.000226774)
(0.000238172 -0.191233 0.000250818)
(0.000238184 -0.191233 -0.000250737)
(0.000312681 -0.191206 0.000241583)
(0.000312702 -0.191206 -0.000241505)
(0.00116525 -0.203885 -0.000685667)
(-0.00109656 -0.205679 1.42333e-05)
(0.00111219 -0.203738 -0.000675713)
(-0.00118726 -0.205511 -1.53479e-05)
(0.000759274 -0.190679 -0.00107225)
(0.00525518 -0.191969 -0.00258002)
(0.000700298 -0.190187 -0.00105322)
(0.00512996 -0.191072 -0.00258355)
(-0.0270177 -0.209166 0.0015506)
(0.0272939 -0.215151 0.910813)
(-0.0269012 -0.209312 0.00146773)
(0.0270954 -0.216335 0.9121)
(-0.0290506 -0.198212 0.00501608)
(0.0225601 -0.211091 0.982968)
(-0.028802 -0.197845 0.0048847)
(0.0223996 -0.213139 0.98325)
(0.0276142 -0.213026 -0.9081)
(-0.0271472 -0.208734 -0.00168758)
(0.0274605 -0.214057 -0.90908)
(-0.0270963 -0.208974 -0.00162318)
(0.0227475 -0.207531 -0.982411)
(-0.0293491 -0.198541 -0.00522615)
(0.0226397 -0.209237 -0.982626)
(-0.0292001 -0.198438 -0.00512923)
(-0.000894487 -0.205815 -7.01092e-05)
(0.00130214 -0.204073 0.000693763)
(-0.00099741 -0.205781 -4.27854e-05)
(0.00122997 -0.203999 0.000691242)
(0.00546864 -0.193274 0.00255982)
(0.000877213 -0.191493 0.00109313)
(0.00537208 -0.192699 0.00257159)
(0.000819623 -0.191117 0.00108519)
(0.000892095 -0.203398 0.000241339)
(0.000892049 -0.203398 -0.000241257)
(0.000864823 -0.203373 0.000238074)
(0.000864789 -0.203373 -0.000237995)
(0.000156436 -0.191396 0.000262598)
(0.000156437 -0.191395 -0.000262509)
(0.000187843 -0.191304 0.000257684)
(0.000187854 -0.191304 -0.000257598)
(0.00130214 -0.204072 -0.000693697)
(-0.000893818 -0.205814 7.00146e-05)
(0.00122997 -0.203998 -0.000691176)
(-0.000996741 -0.205779 4.26961e-05)
(0.000877053 -0.191492 -0.00109299)
(0.00546834 -0.193272 -0.00255967)
(0.000819486 -0.191116 -0.00108506)
(0.00537183 -0.192697 -0.00257144)
(-0.0271447 -0.208732 0.00168735)
(0.0276113 -0.213023 0.90811)
(-0.0270938 -0.208972 0.00162294)
(0.027458 -0.214053 0.90909)
(-0.0293459 -0.198539 0.00522544)
(0.0227441 -0.207526 0.982413)
(-0.0291969 -0.198436 0.00512855)
(0.0226369 -0.209231 0.982628)
(0.0278576 -0.211109 -0.905918)
(-0.027163 -0.20812 -0.00179391)
(0.027738 -0.212048 -0.906645)
(-0.0271642 -0.208449 -0.00174367)
(0.0228448 -0.20448 -0.981972)
(-0.0294768 -0.198436 -0.00537855)
(0.022776 -0.205954 -0.98213)
(-0.0294051 -0.198536 -0.00530826)
(-0.000674751 -0.205695 -0.000119432)
(0.00146367 -0.204082 0.000691455)
(-0.000785557 -0.205786 -9.5543e-05)
(0.00138078 -0.204102 0.000693417)
(0.00562606 -0.194021 0.00252911)
(0.000986539 -0.192048 0.00109766)
(0.00555682 -0.193709 0.00254521)
(0.000933331 -0.191804 0.00109694)
(0.000984434 -0.203369 0.000243985)
(0.000984382 -0.203369 -0.000243892)
(0.000932895 -0.203399 0.000243145)
(0.000932852 -0.203399 -0.000243058)
(0.000136233 -0.191567 0.000267722)
(0.000136233 -0.191567 -0.000267619)
(0.0001406 -0.191488 0.000265829)
(0.000140603 -0.191488 -0.000265734)
(0.00146366 -0.204081 -0.000691386)
(-0.000674046 -0.205693 0.000119322)
(0.00138077 -0.204101 -0.00069335)
(-0.000784843 -0.205785 9.54395e-05)
(0.00098637 -0.192047 -0.00109752)
(0.00562576 -0.194019 -0.00252896)
(0.000933173 -0.191803 -0.0010968)
(0.00555655 -0.193708 -0.00254506)
(-0.0271604 -0.208118 0.00179366)
(0.0278544 -0.211106 0.905929)
(-0.0271616 -0.208447 0.00174342)
(0.0277352 -0.212044 0.906656)
(-0.0294734 -0.198433 0.00537779)
(0.0228411 -0.204476 0.981974)
(-0.0294016 -0.198533 0.00530753)
(0.0227729 -0.205949 0.982132)
(0.0280414 -0.209308 -0.904101)
(-0.0270895 -0.207325 -0.00187694)
(0.0279491 -0.210197 -0.904655)
(-0.0271326 -0.207745 -0.00183752)
(0.022868 -0.201768 -0.981619)
(-0.0294746 -0.197983 -0.00548675)
(0.0228371 -0.203088 -0.981736)
(-0.0294648 -0.198249 -0.00543717)
(-0.000437644 -0.20533 -0.00016125)
(0.00164246 -0.203886 0.00068347)
(-0.000557564 -0.205542 -0.000141183)
(0.0015513 -0.204011 0.000687768)
(0.00573666 -0.194315 0.0024934)
(0.00108828 -0.192329 0.00109206)
(0.00568813 -0.194219 0.00251148)
(0.00103827 -0.192223 0.00109577)
(0.00111393 -0.203188 0.000243124)
(0.00111386 -0.203188 -0.000243027)
(0.00104548 -0.2033 0.000243822)
(0.00104543 -0.2033 -0.000243724)
(0.000155204 -0.191638 0.000267421)
(0.000155203 -0.191638 -0.000267318)
(0.000142184 -0.191621 0.000268482)
(0.00014219 -0.191621 -0.000268373)
(0.00164242 -0.203885 -0.000683381)
(-0.000436954 -0.205329 0.000161197)
(0.00155128 -0.20401 -0.000687693)
(-0.000556826 -0.205541 0.00014107)
(0.00108811 -0.192328 -0.0010919)
(0.00573636 -0.194313 -0.00249323)
(0.00103812 -0.192222 -0.00109562)
(0.00568792 -0.194217 -0.00251133)
(-0.0270869 -0.207323 0.00187657)
(0.028038 -0.209305 0.904113)
(-0.0271298 -0.207743 0.00183724)
(0.027946 -0.210194 0.904666)
(-0.029471 -0.197979 0.00548593)
(0.022864 -0.201765 0.981621)
(-0.029461 -0.198246 0.00543638)
(0.0228335 -0.203085 0.981738)
(0.0281894 -0.207554 -0.902591)
(-0.0269526 -0.206339 -0.00194036)
(0.0281157 -0.208432 -0.902975)
(-0.0270247 -0.206854 -0.00191049)
(0.0228269 -0.19927 -0.981333)
(-0.0293618 -0.197241 -0.00556001)
(0.0228365 -0.200501 -0.981414)
(-0.0294071 -0.197644 -0.00552693)
(-0.000187813 -0.204732 -0.000196004)
(0.00183438 -0.203469 0.00067256)
(-0.000312487 -0.205059 -0.000179211)
(0.00173713 -0.203706 0.000678204)
(0.00581573 -0.194233 0.00245131)
(0.00118554 -0.192325 0.0010784)
(0.00578108 -0.194312 0.00247057)
(0.00113899 -0.192361 0.00108555)
(0.00127279 -0.202817 0.000240121)
(0.00127273 -0.202817 -0.000240032)
(0.00118971 -0.203029 0.000241789)
(0.00118966 -0.203028 -0.000241719)
(0.000201485 -0.191545 0.000265796)
(0.000201482 -0.191544 -0.000265754)
(0.000173483 -0.191617 0.000266232)
(0.000173483 -0.191617 -0.000266161)
(0.00183427 -0.203468 -0.000672395)
(-0.00018731 -0.204731 0.000195516)
(0.00173707 -0.203705 -0.000678159)
(-0.000311833 -0.205057 0.000179103)
(0.00118532 -0.192324 -0.0010783)
(0.00581535 -0.19423 -0.0024512)
(0.0011388 -0.19236 -0.0010854)
(0.00578072 -0.19431 -0.00247036)
(-0.02695 -0.206338 0.00194054)
(0.0281861 -0.207551 0.901779)
(-0.027022 -0.206854 0.00191026)
(0.0281125 -0.208429 0.902987)
(-0.0293602 -0.197237 0.00555965)
(0.0228254 -0.199267 0.981335)
(-0.0294033 -0.19764 0.00552617)
(0.022833 -0.200498 0.981416)
(0.0283057 -0.20577 -0.896873)
(-0.0267676 -0.205176 -0.00198964)
(0.0282444 -0.206671 -0.899459)
(-0.026862 -0.205782 -0.00196613)
(0.0226984 -0.196913 -0.981093)
(-0.0291288 -0.196225 -0.0056074)
(0.0227465 -0.19808 -0.981152)
(-0.0292378 -0.19677 -0.00558641)
(5.09104e-05 -0.203908 -0.000222882)
(0.00203521 -0.202818 0.000659936)
(-6.50337e-05 -0.20435 -0.000210248)
(0.0019343 -0.203174 0.000666493)
(0.00591438 -0.193802 0.00241762)
(0.00128814 -0.192031 0.00106432)
(0.00586623 -0.194058 0.00243592)
(0.00123665 -0.192214 0.00107194)
(0.00145557 -0.202226 0.000236029)
(0.00145551 -0.202226 -0.000235766)
(0.00136173 -0.20255 0.000238105)
(0.00136168 -0.20255 -0.000237997)
(0.000267132 -0.191236 0.000262222)
(0.000267169 -0.191236 -0.000262139)
(0.000232922 -0.191418 0.000264285)
(0.000232933 -0.191418 -0.000264265)
(0.00203516 -0.202817 -0.000659546)
(5.16019e-05 -0.203907 0.00022372)
(0.00193424 -0.203173 -0.000666374)
(-6.43875e-05 -0.204348 0.000210232)
(0.00128812 -0.192031 -0.00106431)
(0.00591453 -0.1938 -0.002418)
(0.00123649 -0.192213 -0.00107195)
(0.00586599 -0.194056 -0.00243612)
(-0.0267644 -0.205171 0.00198854)
(0.0283033 -0.205771 0.901263)
(-0.026859 -0.205777 0.0019661)
(0.0282417 -0.206673 0.900719)
(-0.0291206 -0.196221 0.005604)
(0.022692 -0.196912 0.981099)
(-0.029235 -0.196766 0.0055849)
(0.0227454 -0.198077 0.981155)
(0.0284068 -0.203912 -0.900076)
(-0.0265416 -0.203818 -0.00202479)
(0.0283539 -0.204863 -0.897928)
(-0.0266575 -0.204524 -0.00200792)
(0.0225828 -0.194633 -0.980895)
(-0.0288526 -0.194941 -0.00562997)
(0.022616 -0.195773 -0.98093)
(-0.0289749 -0.195616 -0.00562065)
(0.000280025 -0.202845 -0.000245342)
(0.00224431 -0.201916 0.000645387)
(0.000167184 -0.203405 -0.000234748)
(0.00213873 -0.202399 0.000652554)
(0.00602192 -0.193047 0.00238193)
(0.00139409 -0.191447 0.0010464)
(0.00596541 -0.193464 0.00239921)
(0.00134048 -0.191776 0.00105545)
(0.00165954 -0.201392 0.000231206)
(0.00165934 -0.201392 -0.000230904)
(0.00155499 -0.201841 0.000233599)
(0.00155489 -0.201841 -0.000233281)
(0.000347891 -0.190686 0.00025748)
(0.000347863 -0.190686 -0.000257248)
(0.000306153 -0.190993 0.00025991)
(0.000306186 -0.190993 -0.000259739)
(0.00224375 -0.201915 -0.000644985)
(0.000279672 -0.202844 0.000245875)
(0.00213852 -0.202398 -0.000652138)
(0.000167595 -0.203404 0.000235346)
(0.00139371 -0.191446 -0.00104613)
(0.00602068 -0.193045 -0.00238176)
(0.00134041 -0.191775 -0.00105533)
(0.00596529 -0.193462 -0.00239942)
(-0.0265396 -0.203816 0.00202328)
(0.0284052 -0.203909 0.90009)
(-0.0266544 -0.20452 0.00200667)
(0.0283519 -0.20486 0.900284)
(-0.0288453 -0.194939 0.00562746)
(0.0225757 -0.194631 0.980899)
(-0.0289668 -0.195613 0.00561752)
(0.0226098 -0.195773 0.980935)
(0.0285006 -0.20195 -0.898094)
(-0.0262847 -0.202226 -0.00204559)
(0.0284442 -0.202958 -0.898261)
(-0.0264129 -0.203058 -0.00203659)
(0.0224823 -0.192351 -0.980716)
(-0.0285522 -0.19341 -0.00563728)
(0.0225018 -0.193503 -0.980743)
(-0.0286797 -0.194208 -0.0056356)
(0.00048456 -0.201516 -0.000262409)
(0.00246181 -0.200745 0.000628373)
(0.000382428 -0.20222 -0.000253777)
(0.00235123 -0.201366 0.000636937)
(0.00617437 -0.19196 0.00234936)
(0.00150712 -0.190563 0.00102735)
(0.00610284 -0.192547 0.0023652)
(0.00145067 -0.191043 0.00103693)
(0.00188465 -0.200295 0.000225974)
(0.00188439 -0.200295 -0.000225906)
(0.00176929 -0.200878 0.000228581)
(0.00176903 -0.200877 -0.000228361)
(0.00044026 -0.189872 0.000252239)
(0.000440137 -0.189872 -0.000252074)
(0.000392657 -0.190313 0.000254896)
(0.000392577 -0.190313 -0.000254674)
(0.00246118 -0.200744 -0.00062863)
(0.000484286 -0.201515 0.000261216)
(0.00235049 -0.201365 -0.000636723)
(0.000381799 -0.202218 0.000254044)
(0.00150651 -0.190563 -0.00102712)
(0.00617314 -0.19196 -0.00234902)
(0.00145013 -0.191042 -0.00103664)
(0.00610154 -0.192546 -0.00236488)
(-0.0262822 -0.202228 0.0020458)
(0.0284972 -0.201942 0.896143)
(-0.0264108 -0.203063 0.00203531)
(0.0284427 -0.202951 0.899151)
(-0.0285526 -0.193409 0.00563784)
(0.022482 -0.192347 0.980717)
(-0.0286712 -0.194206 0.00563364)
(0.022494 -0.1935 0.980746)
(0.0286245 -0.199822 -0.897926)
(-0.025997 -0.200405 -0.00205684)
(0.0285526 -0.200926 -0.898063)
(-0.0261431 -0.201346 -0.00205094)
(0.0223822 -0.189989 -0.980555)
(-0.0282168 -0.191637 -0.00563139)
(0.022394 -0.191191 -0.980573)
(-0.028355 -0.192556 -0.00563483)
(0.000718927 -0.199898 -0.000276162)
(0.00270071 -0.199288 0.000612319)
(0.000596553 -0.200743 -0.000269751)
(0.00257814 -0.200053 0.000619861)
(0.00630857 -0.190545 0.00231914)
(0.00162135 -0.189375 0.00100853)
(0.0062456 -0.191293 0.00233375)
(0.00156402 -0.190008 0.00101775)
(0.00213368 -0.198916 0.000220693)
(0.00213358 -0.198916 -0.000220793)
(0.00200607 -0.199642 0.000223217)
(0.00200589 -0.199642 -0.000223224)
(0.000544973 -0.188775 0.000246952)
(0.000544919 -0.188775 -0.000246737)
(0.000491147 -0.18936 0.000249565)
(0.000491036 -0.18936 -0.000249387)
(0.00270053 -0.199288 -0.000612313)
(0.000719515 -0.199897 0.000276017)
(0.00257775 -0.200052 -0.000620036)
(0.000596733 -0.200742 0.000268989)
(0.00162091 -0.189376 -0.00100812)
(0.00630776 -0.190545 -0.00231837)
(0.00156341 -0.190008 -0.00101744)
(0.00624435 -0.191293 -0.00233314)
(-0.0259953 -0.200405 0.00205637)
(0.0286205 -0.199816 0.894473)
(-0.0261413 -0.201344 0.00205091)
(0.0285494 -0.200926 0.895186)
(-0.0282201 -0.191636 0.00563292)
(0.0223838 -0.189983 0.980554)
(-0.0283561 -0.192555 0.00563604)
(0.0223948 -0.191187 0.980572)
(0.028768 -0.197495 -0.896866)
(-0.0256722 -0.198321 -0.00206577)
(0.0286854 -0.198703 -0.896991)
(-0.0258339 -0.199405 -0.00206141)
(0.0223056 -0.187491 -0.980391)
(-0.0278674 -0.189612 -0.00562106)
(0.0223048 -0.188766 -0.980408)
(-0.0280124 -0.190659 -0.0056266)
(0.000962005 -0.197989 -0.000283969)
(0.00296014 -0.197534 0.000598842)
(0.000848296 -0.19898 -0.000280178)
(0.00282911 -0.198449 0.000605164)
(0.00643327 -0.188819 0.00229217)
(0.00174383 -0.187876 0.000991068)
(0.00637663 -0.18972 0.00230522)
(0.00168149 -0.188665 0.000999607)
(0.00240751 -0.197238 0.000215949)
(0.00240752 -0.197238 -0.000216155)
(0.00226758 -0.198115 0.000218216)
(0.00226755 -0.198115 -0.000218403)
(0.000663786 -0.187377 0.000241828)
(0.000663869 -0.187377 -0.000241692)
(0.000602624 -0.188115 0.000244357)
(0.000602645 -0.188115 -0.000244177)
(0.0029601 -0.197533 -0.00059931)
(0.000963045 -0.197988 0.000282243)
(0.00282901 -0.198449 -0.000605383)
(0.000849105 -0.198979 0.000279375)
(0.00174389 -0.187876 -0.000990769)
(0.00643365 -0.188819 -0.00229165)
(0.00168131 -0.188665 -0.000999202)
(0.00637649 -0.18972 -0.00230445)
(-0.0256668 -0.198321 0.00206762)
(0.0287598 -0.19749 0.893393)
(-0.0258302 -0.199406 0.00206183)
(0.0286789 -0.1987 0.893475)
(-0.0278696 -0.18961 0.00562265)
(0.0223062 -0.187484 0.980391)
(-0.0280148 -0.190658 0.0056284)
(0.0223057 -0.188759 0.980406)
(0.028945 -0.194932 -0.888866)
(-0.0253168 -0.195954 -0.00207028)
(0.0288455 -0.196259 -0.892458)
(-0.0254976 -0.19718 -0.00206748)
(0.0222551 -0.184797 -0.980234)
(-0.0275056 -0.187326 -0.00560481)
(0.0222404 -0.186182 -0.980247)
(-0.0276554 -0.188504 -0.0056133)
(0.00120838 -0.195786 -0.000287959)
(0.00324431 -0.195465 0.000587117)
(0.00107927 -0.196926 -0.000286464)
(0.00309792 -0.19654 0.000592549)
(0.00655327 -0.186802 0.00226696)
(0.00187619 -0.186058 0.000974629)
(0.00649462 -0.187848 0.00227895)
(0.00180904 -0.187007 0.00098259)
(0.00271 -0.19524 0.000211553)
(0.00271001 -0.19524 -0.00021113)
(0.00255476 -0.19628 0.000213608)
(0.00255481 -0.19628 -0.000213586)
(0.000796361 -0.185656 0.000236964)
(0.000796498 -0.185656 -0.000236675)
(0.000728556 -0.186558 0.00023933)
(0.00072868 -0.186558 -0.000239152)
(0.00324433 -0.195465 -0.000586564)
(0.00120915 -0.195785 0.000289242)
(0.00309799 -0.19654 -0.000592702)
(0.00108048 -0.196926 0.000285553)
(0.00187641 -0.186057 -0.000974488)
(0.00655395 -0.186801 -0.00226757)
(0.00180925 -0.187007 -0.000982423)
(0.00649531 -0.187847 -0.00227912)
(-0.0253129 -0.195945 0.00206799)
(0.0289415 -0.194937 0.895836)
(-0.0254922 -0.197172 0.00206828)
(0.0288388 -0.19627 0.892412)
(-0.027497 -0.187324 0.00560007)
(0.022249 -0.184794 0.980241)
(-0.0276579 -0.188503 0.00561255)
(0.0222445 -0.186175 0.98025)
(0.0291491 -0.192088 -0.89477)
(-0.0249083 -0.193282 -0.00206731)
(0.0290347 -0.193574 -0.89131)
(-0.0251142 -0.194657 -0.00206857)
(0.0221795 -0.181866 -0.980086)
(-0.0270817 -0.184756 -0.00557562)
(0.0221772 -0.183368 -0.98009)
(-0.0272623 -0.186082 -0.00559067)
(0.00150985 -0.193263 -0.000292027)
(0.00356541 -0.193061 0.000576219)
(0.00135403 -0.194567 -0.000290063)
(0.00340056 -0.194306 0.000581324)
(0.00669156 -0.184471 0.00224514)
(0.00201826 -0.183902 0.000959855)
(0.00662465 -0.185678 0.00225548)
(0.00194648 -0.185023 0.000966974)
(0.0030458 -0.192901 0.000207402)
(0.00304571 -0.1929 -0.000206804)
(0.00287375 -0.194114 0.000209386)
(0.0028737 -0.194114 -0.000208768)
(0.000941539 -0.183592 0.000232503)
(0.000941665 -0.183592 -0.000232128)
(0.00086752 -0.184668 0.000234677)
(0.00086765 -0.184668 -0.000234307)
(0.0035652 -0.193061 -0.000575497)
(0.00150986 -0.193262 0.000292915)
(0.00340036 -0.194306 -0.000580577)
(0.00135402 -0.194566 0.000291183)
(0.00201838 -0.183901 -0.000959549)
(0.00669196 -0.184471 -0.00224529)
(0.00194661 -0.185022 -0.000966776)
(0.00662497 -0.185678 -0.00225606)
(-0.0249065 -0.193281 0.00206465)
(0.0291438 -0.192085 0.894783)
(-0.0251121 -0.194654 0.00206592)
(0.0290312 -0.193569 0.894883)
(-0.0270733 -0.184757 0.00557254)
(0.0221698 -0.181864 0.980091)
(-0.0272539 -0.186081 0.0055863)
(0.0221699 -0.183369 0.980096)
(0.0293941 -0.18893 -0.893703)
(-0.0244645 -0.190277 -0.00206012)
(0.02926 -0.190571 -0.893798)
(-0.0246892 -0.19183 -0.00206402)
(0.0221449 -0.178657 -0.979938)
(-0.0266655 -0.18188 -0.00554284)
(0.0221272 -0.18031 -0.97994)
(-0.0268468 -0.183359 -0.00555971)
(0.00185453 -0.190396 -0.000292887)
(0.00392205 -0.190301 0.000566553)
(0.00167726 -0.191874 -0.000292193)
(0.00373924 -0.191727 0.000571145)
(0.00683253 -0.181807 0.00222567)
(0.00216789 -0.181391 0.000946253)
(0.00676376 -0.183182 0.00223513)
(0.002092 -0.182692 0.000952915)
(0.00341569 -0.190199 0.000203353)
(0.00341567 -0.190199 -0.000203359)
(0.00322637 -0.191596 0.000205282)
(0.00322633 -0.191596 -0.000204957)
(0.00109902 -0.181164 0.000228245)
(0.00109906 -0.181164 -0.000228141)
(0.0010187 -0.182425 0.000230337)
(0.0010188 -0.182424 -0.000230079)
(0.00392217 -0.190301 -0.000566879)
(0.00185584 -0.190395 0.000291584)
(0.00373926 -0.191726 -0.000570836)
(0.00167825 -0.191874 0.000292447)
(0.0021678 -0.181391 -0.000946058)
(0.00683247 -0.181807 -0.00222529)
(0.00209209 -0.182691 -0.000952615)
(0.00676423 -0.183182 -0.00223491)
(-0.0244607 -0.190281 0.00206115)
(0.0293867 -0.188923 0.891178)
(-0.0246853 -0.191836 0.00206219)
(0.0292524 -0.190564 0.893812)
(-0.0266668 -0.18188 0.00554376)
(0.0221445 -0.178656 0.979939)
(-0.0268387 -0.18336 0.00555791)
(0.0221184 -0.180308 0.979943)
(0.0296634 -0.185414 -0.892632)
(-0.0239702 -0.186934 -0.00204926)
(0.029516 -0.187246 -0.892716)
(-0.0242191 -0.188652 -0.00205399)
(0.0220832 -0.175125 -0.979792)
(-0.0261896 -0.178672 -0.00550543)
(0.0220712 -0.17694 -0.979791)
(-0.0263941 -0.180323 -0.00552403)
(0.00224518 -0.187164 -0.000292305)
(0.00431661 -0.187165 0.000558061)
(0.00204543 -0.188828 -0.00029265)
(0.00411482 -0.188781 0.000561913)
(0.00699137 -0.178789 0.00220703)
(0.00232951 -0.178507 0.00093344)
(0.006914 -0.180345 0.00221602)