/*--------------------------------*- C++ -*----------------------------------*\
  =========                 |
  \\      /  F ield         | OpenFOAM: The Open Source CFD Toolbox
   \\    /   O peration     | Website:  https://openfoam.org
    \\  /    A nd           | Version:  9
     \\/     M anipulation  |
\*---------------------------------------------------------------------------*/
FoamFile
{
    format      ascii;
    class       volVectorField;
    location    "2.75";
    object      U;
}
// * * * * * * * * * * * * * * * * * * * * * * * * * * * * * * * * * * * * * //

dimensions      [0 1 -1 0 0 0 0];

internalField   nonuniform List<vector> 
36360
(
(0.00332672 -0.123138 -0.497751)
(-0.000574104 -0.0906347 0.0001905)
(0.0033314 -0.127018 -0.500322)
(-0.00192736 -0.082439 0.000105783)
(0.00262136 -0.137242 -0.500877)
(0.00629924 -0.0743037 3.6987e-06)
(0.00630013 -0.145023 -0.501909)
(0.00613545 -0.0783915 6.44024e-06)
(0.00208547 -0.0973578 -0.000121657)
(-0.000790808 -0.101476 -6.11104e-06)
(-0.000283428 -0.0953607 -7.22899e-05)
(-0.00249537 -0.0996677 -3.3082e-06)
(0.00656364 -0.100035 7.72442e-06)
(0.00443251 -0.105872 -4.84459e-06)
(0.00730788 -0.106226 -1.05708e-05)
(0.006481 -0.10893 -6.2737e-06)
(-0.00281114 -0.103052 -1.52309e-07)
(-0.00280998 -0.103053 1.53398e-07)
(-0.00330186 -0.100949 1.87463e-08)
(-0.00330173 -0.100949 -1.82764e-08)
(0.00449018 -0.104816 -1.55064e-06)
(0.00448969 -0.104817 1.55771e-06)
(0.00670221 -0.107258 -1.33236e-06)
(0.00670203 -0.107259 1.33634e-06)
(-0.000788039 -0.101477 6.11486e-06)
(0.00208673 -0.0973602 0.000121701)
(-0.00249344 -0.099669 3.30921e-06)
(-0.000281414 -0.0953635 7.23256e-05)
(0.00443192 -0.105873 4.8509e-06)
(0.00656289 -0.100033 -7.72217e-06)
(0.00648031 -0.108931 6.27746e-06)
(0.00730692 -0.106225 1.0562e-05)
(-0.000574469 -0.0906369 -0.000190537)
(0.00332806 -0.123134 0.497751)
(-0.00192848 -0.0824423 -0.000105806)
(0.00333254 -0.127014 0.500322)
(0.0062961 -0.0743027 -3.7262e-06)
(0.00262295 -0.137242 0.500877)
(0.00613048 -0.0783846 -6.44535e-06)
(0.00630246 -0.145026 0.501909)
(0.0055092 -0.119875 -0.495849)
(-0.00417467 -0.0947107 0.000162969)
(0.00484433 -0.122115 -0.496843)
(-0.0022477 -0.0926441 0.000184622)
(0.00241873 -0.131638 -0.500882)
(-0.000787898 -0.0712838 -9.17494e-05)
(0.0021573 -0.134434 -0.501097)
(0.00262128 -0.0702073 -3.75476e-05)
(0.00222925 -0.0982539 -7.07551e-05)
(0.00149093 -0.102079 -1.09215e-05)
(0.00271499 -0.0979145 -0.000101084)
(0.00101273 -0.102051 -7.72834e-06)
(0.00401392 -0.090531 0.000125794)
(0.00272296 -0.100585 -5.06763e-06)
(0.00577628 -0.0937886 6.26112e-05)
(0.00348699 -0.102889 -4.90171e-06)
(0.000426221 -0.103935 -2.26934e-06)
(0.000426736 -0.103935 2.26295e-06)
(-0.000894793 -0.104039 -7.11056e-07)
(-0.000893184 -0.104039 7.16642e-07)
(0.00173604 -0.102844 -2.65983e-06)
(0.00173606 -0.102844 2.67576e-06)
(0.00269061 -0.103455 -1.65551e-06)
(0.0026901 -0.103456 1.66657e-06)
(0.00149118 -0.10208 1.09798e-05)
(0.00222916 -0.098255 7.08177e-05)
(0.00101399 -0.102052 7.74006e-06)
(0.00271512 -0.097916 0.000101119)
(0.00272249 -0.100584 5.09353e-06)
(0.00401298 -0.0905307 -0.000125789)
(0.00348668 -0.102889 4.9155e-06)
(0.00577514 -0.0937873 -6.26137e-05)
(-0.00417501 -0.094711 -0.000163029)
(0.00551014 -0.119872 0.495849)
(-0.00224821 -0.0926445 -0.000184664)
(0.00484553 -0.122111 0.496843)
(-0.000789273 -0.0712851 9.16973e-05)
(0.00241965 -0.131635 0.500882)
(0.00261948 -0.070207 3.75081e-05)
(0.00215852 -0.134432 0.501097)
(0.00604218 -0.115993 -0.494367)
(-0.00627704 -0.0970032 9.28768e-05)
(0.00583555 -0.117791 -0.495023)
(-0.005457 -0.0960031 0.000131105)
(0.0030431 -0.12542 -0.500595)
(-0.00358509 -0.0757391 -0.000217651)
(0.00275375 -0.128454 -0.50072)
(-0.00260476 -0.0731608 -0.000153172)
(0.00103446 -0.0980786 3.67025e-06)
(0.0012168 -0.101445 -4.73693e-06)
(0.00157544 -0.0982095 -3.40237e-05)
(0.0014426 -0.101847 -1.03353e-05)
(0.00200744 -0.0869412 0.000257425)
(0.00132495 -0.0968412 5.33444e-06)
(0.00276827 -0.0882094 0.00019304)
(0.00191302 -0.0984425 -1.60647e-06)
(0.000910009 -0.103204 -5.24654e-06)
(0.000910009 -0.103204 5.27136e-06)
(0.000888752 -0.103616 -4.17989e-06)
(0.000888892 -0.103616 4.18569e-06)
(0.00106092 -0.100188 -4.67538e-06)
(0.00106083 -0.100188 4.7014e-06)
(0.00142262 -0.101502 -3.88182e-06)
(0.00142256 -0.101501 3.90127e-06)
(0.00121672 -0.101445 4.76711e-06)
(0.00103432 -0.0980792 -3.64417e-06)
(0.00144263 -0.101848 1.03664e-05)
(0.00157522 -0.0982102 3.40676e-05)
(0.00132469 -0.0968409 -5.30572e-06)
(0.00200714 -0.0869421 -0.000257416)
(0.00191258 -0.0984419 1.63232e-06)
(0.00276772 -0.0882098 -0.000193034)
(-0.00627688 -0.0970034 -9.29501e-05)
(0.00604256 -0.115989 0.494367)
(-0.00545712 -0.0960033 -0.000131171)
(0.00583617 -0.117787 0.495023)
(-0.00358561 -0.0757415 0.000217557)
(0.00304341 -0.125416 0.500595)
(-0.0026057 -0.0731628 0.0001531)
(0.00275431 -0.12845 0.50072)
(0.00630783 -0.113066 -0.493264)
(-0.00707774 -0.0985783 9.1442e-06)
(0.0061915 -0.114432 -0.493754)
(-0.00677632 -0.0978469 5.14358e-05)
(0.00336927 -0.119938 -0.500391)
(-0.00438995 -0.0810531 -0.000344855)
(0.00323705 -0.122577 -0.500482)
(-0.00409952 -0.0784543 -0.000282171)
(0.000351977 -0.0980925 7.01972e-05)
(0.000762126 -0.100694 1.6706e-05)
(0.000631471 -0.0980297 3.89004e-05)
(0.000969759 -0.10104 4.8437e-06)
(0.0011908 -0.0864018 0.000368169)
(0.000713755 -0.094911 2.73188e-05)
(0.00151406 -0.0864165 0.00031618)
(0.000952758 -0.0957101 1.52677e-05)
(0.000614377 -0.102354 -4.13929e-06)
(0.000614355 -0.102354 4.17844e-06)
(0.000766459 -0.102768 -5.20492e-06)
(0.000766439 -0.102768 5.23698e-06)
(0.000503606 -0.0985275 -3.77628e-06)
(0.000503596 -0.0985272 3.81544e-06)
(0.000719216 -0.0992224 -4.66796e-06)
(0.000719197 -0.0992221 4.70003e-06)
(0.000762052 -0.100694 -1.6666e-05)
(0.000351973 -0.0980931 -7.01688e-05)
(0.000969675 -0.101041 -4.80969e-06)
(0.000631402 -0.0980303 -3.88752e-05)
(0.000713683 -0.094911 -2.72774e-05)
(0.00119069 -0.0864031 -0.000368136)
(0.000952611 -0.0957099 -1.52338e-05)
(0.0015139 -0.0864177 -0.000316161)
(-0.0070771 -0.0985784 -9.23385e-06)
(0.00630773 -0.113062 0.493265)
(-0.00677592 -0.097847 -5.1518e-05)
(0.0061916 -0.114428 0.493754)
(-0.00438981 -0.0810559 0.000344716)
(0.00336905 -0.119932 0.500391)
(-0.00409974 -0.078457 0.000282053)
(0.00323703 -0.122571 0.500482)
(0.00646914 -0.110819 -0.492407)
(-0.00735174 -0.099777 -7.27381e-05)
(0.00639545 -0.111872 -0.49278)
(-0.00725284 -0.0992186 -3.25337e-05)
(0.0034921 -0.115343 -0.500233)
(-0.00463804 -0.0855848 -0.000460298)
(0.00344109 -0.117529 -0.500303)
(-0.0045449 -0.0834446 -0.000404457)
(7.26084e-05 -0.0984459 0.000119813)
(0.000494752 -0.100251 4.30873e-05)
(0.00017463 -0.0982421 9.71095e-05)
(0.000605352 -0.100431 2.96683e-05)
(0.000883344 -0.087193 0.000451214)
(0.000422422 -0.0939637 5.45156e-05)
(0.000991258 -0.0866979 0.000413059)
(0.00054776 -0.094348 4.06364e-05)
(0.000426719 -0.101696 3.93709e-07)
(0.000426703 -0.101696 -3.3409e-07)
(0.000501643 -0.101995 -2.17378e-06)
(0.000501624 -0.101995 2.22175e-06)
(0.000315807 -0.0975759 2.63325e-07)
(0.000315802 -0.0975756 -2.00729e-07)
(0.000382251 -0.0980003 -2.07458e-06)
(0.000382244 -0.098 2.12398e-06)
(0.000494684 -0.100251 -4.30201e-05)
(7.26809e-05 -0.0984465 -0.00011976)
(0.000605281 -0.100431 -2.96179e-05)
(0.000174667 -0.0982427 -9.70728e-05)
(0.000422393 -0.0939637 -5.4433e-05)
(0.000883209 -0.0871946 -0.00045113)
(0.000547745 -0.094348 -4.05825e-05)
(0.000991123 -0.0866994 -0.000413006)
(-0.00735069 -0.0997769 7.26414e-05)
(0.00646859 -0.110816 0.492408)
(-0.007252 -0.0992186 3.24386e-05)
(0.00639507 -0.111868 0.492781)
(-0.00463733 -0.0855874 0.000460118)
(0.00349141 -0.115336 0.500233)
(-0.0045445 -0.0834472 0.000404298)
(0.00344055 -0.117523 0.500303)
(0.00658055 -0.109052 -0.491743)
(-0.00741295 -0.100659 -0.00014668)
(0.00652728 -0.109887 -0.492022)
(-0.00739783 -0.100255 -0.000110897)
(0.00352772 -0.111579 -0.500107)
(-0.00469357 -0.0890786 -0.000559523)
(0.00351049 -0.113367 -0.500162)
(-0.00467586 -0.0874592 -0.000511932)
(-1.1554e-06 -0.0989162 0.000153892)
(0.000371096 -0.100064 6.93076e-05)
(2.16021e-05 -0.0986767 0.000138591)
(0.000420692 -0.100135 5.6425e-05)
(0.000838388 -0.088431 0.000509827)
(0.000264488 -0.0935532 8.22745e-05)
(0.00084015 -0.0877883 0.000483113)
(0.000331664 -0.0937106 6.84351e-05)
(0.000356969 -0.101248 6.67133e-06)
(0.000356998 -0.101248 -6.66217e-06)
(0.000381445 -0.101451 3.4044e-06)
(0.000381432 -0.101451 -3.34041e-06)
(0.000258494 -0.0968993 5.81246e-06)
(0.000258519 -0.0968991 -6.48036e-06)
(0.000279318 -0.0972166 3.05197e-06)
(0.000279316 -0.0972163 -3.0257e-06)
(0.000371281 -0.100064 -6.91124e-05)
(-1.25229e-06 -0.0989166 -0.000153693)
(0.000420652 -0.100135 -5.63234e-05)
(2.17154e-05 -0.0986773 -0.000138496)
(0.00026467 -0.0935534 -8.13361e-05)
(0.000838019 -0.0884323 -0.000508806)
(0.000331637 -0.0937105 -6.82529e-05)
(0.000839985 -0.0877902 -0.000482911)
(-0.00741165 -0.100659 0.000146546)
(0.00657953 -0.109049 0.491745)
(-0.00739662 -0.100255 0.000110802)
(0.00652643 -0.109883 0.492023)
(-0.0046925 -0.0890805 0.000558774)
(0.0035266 -0.111572 0.500107)
(-0.00467497 -0.0874616 0.000511719)
(0.00350949 -0.11336 0.500162)
(0.00666168 -0.107614 -0.491227)
(-0.00737781 -0.101252 -0.000210573)
(0.00662241 -0.1083 -0.491433)
(-0.00740239 -0.10099 -0.000179903)
(0.00352284 -0.108492 -0.500007)
(-0.00465104 -0.0916191 -0.000641089)
(0.00352155 -0.109961 -0.500049)
(-0.00467521 -0.090458 -0.000602031)
(2.90139e-05 -0.0993661 0.000175394)
(0.000327872 -0.0999996 9.27141e-05)
(3.66313e-06 -0.0991488 0.000165908)
(0.000342396 -0.100023 8.13616e-05)
(0.000901369 -0.0897131 0.00054794)
(0.000174793 -0.0934065 0.000106484)
(0.000864493 -0.0890805 0.00053041)
(0.000214283 -0.0934588 9.42967e-05)
(0.000343718 -0.100923 1.36692e-05)
(0.000343707 -0.100923 -1.35351e-05)
(0.000346411 -0.101075 1.01799e-05)
(0.000346347 -0.101075 -1.00414e-05)
(0.000237216 -0.0963374 1.2733e-05)
(0.000237166 -0.0963371 -1.27845e-05)
(0.000245829 -0.0966087 9.74191e-06)
(0.000245773 -0.0966085 -9.10623e-06)
(0.000327886 -0.0999998 -9.24978e-05)
(2.91488e-05 -0.0993664 -0.000175442)
(0.000342188 -0.100023 -8.13299e-05)
(4.01481e-06 -0.0991492 -0.000165931)
(0.000174878 -0.0934065 -0.000106196)
(0.00090124 -0.0897146 -0.00054766)
(0.000214105 -0.0934591 -9.47692e-05)
(0.000864549 -0.0890818 -0.000530919)
(-0.00737614 -0.101252 0.000210383)
(0.00666035 -0.107611 0.49123)
(-0.00740079 -0.10099 0.000179793)
(0.00662122 -0.108297 0.491435)
(-0.00464963 -0.0916206 0.000640659)
(0.00352144 -0.108486 0.500007)
(-0.00467391 -0.0904596 0.000602164)
(0.00352021 -0.109955 0.50005)
(0.00671829 -0.106397 -0.490828)
(-0.00729699 -0.101587 -0.000264108)
(0.00669072 -0.106983 -0.49098)
(-0.00733958 -0.101449 -0.000238564)
(0.00349717 -0.105935 -0.499928)
(-0.00456532 -0.0933671 -0.000707063)
(0.00350454 -0.107156 -0.49996)
(-0.00460438 -0.0925811 -0.000675731)
(0.000118052 -0.0997235 0.000188282)
(0.000331578 -0.0999701 0.000112123)
(6.98331e-05 -0.0995594 0.00018279)
(0.000325294 -0.0999842 0.000102856)
(0.000997908 -0.0908512 0.000571922)
(0.00012059 -0.0933711 0.000127315)
(0.000948216 -0.0903068 0.000561279)
(0.000143895 -0.0933798 0.000117111)
(0.000350549 -0.100651 2.03627e-05)
(0.000350691 -0.100651 -2.0311e-05)
(0.000345871 -0.100783 1.70733e-05)
(0.000345852 -0.100783 -1.70073e-05)
(0.000226051 -0.0958313 1.90857e-05)
(0.000226184 -0.0958313 -1.94204e-05)
(0.000231391 -0.0960792 1.61774e-05)
(0.000231369 -0.0960788 -1.59423e-05)
(0.000331547 -0.0999703 -0.000111955)
(0.000118032 -0.0997236 -0.000188141)
(0.000325204 -0.0999843 -0.000102835)
(7.00566e-05 -0.0995596 -0.000182653)
(0.000120598 -0.0933711 -0.000126185)
(0.000997603 -0.0908518 -0.000571525)
(0.000143818 -0.0933799 -0.000117069)
(0.000948132 -0.0903082 -0.000561275)
(-0.00729519 -0.101587 0.000263904)
(0.00671664 -0.106394 0.490831)
(-0.00733781 -0.101449 0.000238427)
(0.00668915 -0.10698 0.490982)
(-0.00456374 -0.0933679 0.000706209)
(0.00349548 -0.105929 0.499928)
(-0.00460289 -0.0925823 0.000675491)
(0.00350287 -0.10715 0.49996)
(0.00675508 -0.105327 -0.49051)
(-0.00720034 -0.101703 -0.000308054)
(0.00673643 -0.105847 -0.490621)
(-0.00724813 -0.10167 -0.000287134)
(0.00346004 -0.103787 -0.499864)
(-0.00446534 -0.0944875 -0.000759322)
(0.00347145 -0.104816 -0.499888)
(-0.00450911 -0.0939957 -0.000733835)
(0.000214942 -0.0999514 0.000195079)
(0.0003622 -0.0999221 0.000127392)
(0.000167347 -0.0998544 0.000192181)
(0.000344397 -0.0999509 0.000120126)
(0.00110487 -0.0917642 0.000585449)
(9.60186e-05 -0.0933724 0.000144117)
(0.00105186 -0.0913364 0.000579525)
(0.000105227 -0.0933701 0.000134347)
(0.000364208 -0.100389 2.63011e-05)
(0.000364614 -0.100389 -2.61746e-05)
(0.000357173 -0.10052 2.34814e-05)
(0.000356855 -0.10052 -2.33444e-05)
(0.000215003 -0.0953559 2.48554e-05)
(0.000215431 -0.0953556 -2.52119e-05)
(0.00022091 -0.0955902 2.26604e-05)
(0.000220602 -0.0955898 -2.1841e-05)
(0.000361903 -0.0999221 -0.000127062)
(0.000214492 -0.0999514 -0.000194879)
(0.000344381 -0.099951 -0.00012016)
(0.000167906 -0.0998545 -0.000192226)
(9.58187e-05 -0.0933725 -0.000141384)
(0.00110428 -0.0917653 -0.000585278)
(0.000105298 -0.0933705 -0.000136204)
(0.00105214 -0.0913377 -0.000579646)
(-0.00719855 -0.101702 0.000307762)
(0.00675312 -0.105324 0.490513)
(-0.00724605 -0.10167 0.00028703)
(0.00673466 -0.105844 0.490624)
(-0.00446371 -0.094488 0.000757729)
(0.00345812 -0.103782 0.499864)
(-0.0045073 -0.0939964 0.000734451)
(0.0034696 -0.104811 0.499889)
(0.00677904 -0.104352 -0.490252)
(-0.0071029 -0.101632 -0.000343501)
(0.00676589 -0.10483 -0.490337)
(-0.00715031 -0.101688 -0.000326692)
(0.00341928 -0.101954 -0.499811)
(-0.00436613 -0.0951258 -0.000799148)
(0.00343163 -0.102836 -0.49983)
(-0.00440804 -0.0948588 -0.000779975)
(0.000318486 -0.100039 0.000197743)
(0.000412551 -0.09982 0.000138629)
(0.0002662 -0.100013 0.000196785)
(0.000385457 -0.0998792 0.00013336)
(0.00120876 -0.0924375 0.00059205)
(9.3018e-05 -0.0933571 0.000154815)
(0.00115841 -0.0921312 0.000589465)
(9.23141e-05 -0.0933691 0.000148807)
(0.000381457 -0.100112 3.115e-05)
(0.000381477 -0.100112 -3.10678e-05)
(0.000372515 -0.100254 2.88535e-05)
(0.000372357 -0.100254 -2.87368e-05)
(0.000204071 -0.0949003 2.9893e-05)
(0.000204108 -0.0949001 -2.98394e-05)
(0.000209576 -0.0951254 2.77755e-05)
(0.000209432 -0.0951257 -2.73672e-05)
(0.000412465 -0.0998201 -0.000138526)
(0.000318596 -0.100039 -0.000197691)
(0.000385423 -0.0998793 -0.000133305)
(0.000266488 -0.100013 -0.000196737)
(9.30371e-05 -0.0933572 -0.000154592)
(0.00120865 -0.0924382 -0.00059192)
(9.23886e-05 -0.0933689 -0.000149567)
(0.00115848 -0.0921313 -0.000589288)
(-0.00710077 -0.101632 0.000343279)
(0.00677706 -0.104349 0.490255)
(-0.0071482 -0.101688 0.000326526)
(0.00676389 -0.104828 0.490341)
(-0.00436424 -0.0951258 0.000798693)
(0.00341733 -0.10195 0.499812)
(-0.00440619 -0.0948587 0.000780025)
(0.0034296 -0.102832 0.499831)
(0.00679889 -0.103432 -0.490031)
(-0.00700396 -0.101405 -0.000371797)
(0.0067867 -0.103888 -0.490096)
(-0.00705198 -0.101537 -0.000358451)
(0.00338055 -0.100357 -0.499766)
(-0.00427147 -0.0953964 -0.000830217)
(0.00339099 -0.10113 -0.499781)
(-0.00431039 -0.0953009 -0.000815691)
(0.000423004 -0.099985 0.000197773)
(0.00047297 -0.0996434 0.000146742)
(0.000371731 -0.10003 0.000198022)
(0.000441964 -0.0997418 0.000143043)
(0.00130593 -0.0928711 0.000593994)
(0.000104349 -0.0932885 0.000163362)
(0.00125971 -0.092683 0.000593478)
(9.74385e-05 -0.0933304 0.000159439)
(0.000407498 -0.0997998 3.50299e-05)
(0.000407495 -0.0997998 -3.49494e-05)
(0.000393106 -0.0999616 3.32092e-05)
(0.000393103 -0.0999617 -3.31289e-05)
(0.000197098 -0.0944538 3.37771e-05)
(0.000197106 -0.0944538 -3.36951e-05)
(0.000199777 -0.0946764 3.19612e-05)
(0.000199788 -0.0946764 -3.18772e-05)
(0.000472895 -0.0996434 -0.000146643)
(0.000423133 -0.0999848 -0.000197726)
(0.000441884 -0.0997418 -0.000142944)
(0.000371852 -0.100029 -0.000197974)
(0.000104382 -0.0932885 -0.000163256)
(0.00130583 -0.0928714 -0.000593854)
(9.74676e-05 -0.0933305 -0.000159345)
(0.00125961 -0.0926834 -0.000593337)
(-0.00700178 -0.101404 0.000371552)
(0.00679682 -0.10343 0.490035)
(-0.00704985 -0.101536 0.000358217)
(0.00678457 -0.103885 0.4901)
(-0.00426954 -0.0953959 0.000829769)
(0.00337855 -0.100354 0.499766)
(-0.00430852 -0.0953006 0.00081526)
(0.00338885 -0.101126 0.499782)
(0.00682195 -0.102536 -0.489834)
(-0.00690241 -0.101036 -0.000394103)
(0.00680679 -0.102983 -0.48989)
(-0.00695167 -0.101237 -0.000383624)
(0.00334708 -0.098931 -0.499726)
(-0.00418056 -0.0953791 -0.000853705)
(0.00335353 -0.0996265 -0.49974)
(-0.00421568 -0.0954181 -0.000842742)
(0.000526282 -0.0997925 0.000196105)
(0.000541682 -0.0993803 0.00015223)
(0.000475219 -0.0999056 0.000197114)
(0.000506337 -0.0995232 0.000149769)
(0.00139146 -0.0930818 0.000592927)
(0.000124814 -0.0931456 0.000169172)
(0.00135139 -0.0930022 0.000593742)
(0.000113803 -0.0932268 0.00016657)
(0.000445404 -0.0994336 3.79808e-05)
(0.000445401 -0.0994336 -3.78966e-05)
(0.000424898 -0.0996243 3.66122e-05)
(0.000424895 -0.0996243 -3.653e-05)
(0.000196904 -0.0939985 3.67417e-05)
(0.00019691 -0.0939985 -3.66564e-05)
(0.000196164 -0.094228 3.53654e-05)
(0.000196171 -0.0942279 -3.52821e-05)
(0.000541615 -0.0993802 -0.000152128)
(0.000526421 -0.0997921 -0.000196059)
(0.000506266 -0.0995231 -0.000149668)
(0.000475348 -0.0999053 -0.000197068)
(0.000124856 -0.0931456 -0.000169062)
(0.00139134 -0.0930818 -0.000592785)
(0.000113841 -0.0932268 -0.000166462)
(0.00135127 -0.0930024 -0.000593601)
(-0.00690022 -0.101036 0.000393841)
(0.00681983 -0.102534 0.489838)
(-0.0069495 -0.101237 0.000383371)
(0.00680461 -0.102981 0.489894)
(-0.00417865 -0.0953783 0.000853236)
(0.00334504 -0.0989281 0.499727)
(-0.00421381 -0.0954175 0.000842282)
(0.00335137 -0.0996234 0.49974)
(0.00685403 -0.101633 -0.489648)
(-0.00679872 -0.100542 -0.000411458)
(0.00683435 -0.102086 -0.489694)
(-0.00684951 -0.100804 -0.000403306)
(0.00332189 -0.0976178 -0.49969)
(-0.00409578 -0.0951324 -0.00087167)
(0.00332436 -0.098263 -0.499701)
(-0.00412979 -0.0952814 -0.000863339)
(0.000630742 -0.0994664 0.000193392)
(0.000619472 -0.0990208 0.000155656)
(0.000578824 -0.0996459 0.000194835)
(0.00057955 -0.0992131 0.000154158)
(0.0014682 -0.0930887 0.000589981)
(0.000152256 -0.0929133 0.000172813)
(0.00143222 -0.0931088 0.000591642)
(0.000137889 -0.0930408 0.000171227)
(0.000496484 -0.0989987 4.01238e-05)
(0.000496482 -0.0989986 -4.00356e-05)
(0.000469259 -0.0992255 3.91414e-05)
(0.000469257 -0.0992255 -3.90551e-05)
(0.000203855 -0.0935153 3.89125e-05)
(0.000203861 -0.0935152 -3.88231e-05)
(0.000199405 -0.0937611 3.79174e-05)
(0.000199411 -0.093761 -3.78301e-05)
(0.000619409 -0.0990207 -0.000155551)
(0.000630881 -0.0994659 -0.000193346)
(0.000579485 -0.0992129 -0.000154054)
(0.000578959 -0.0996455 -0.000194789)
(0.0001523 -0.0929132 -0.000172699)
(0.00146805 -0.0930885 -0.000589839)
(0.000137931 -0.0930408 -0.000171115)
(0.00143208 -0.0931088 -0.0005915)
(-0.00679652 -0.100541 0.000411183)
(0.00685191 -0.101632 0.489652)
(-0.00684733 -0.100803 0.000403037)
(0.00683214 -0.102085 0.489698)
(-0.00409388 -0.0951314 0.000871185)
(0.00331986 -0.0976155 0.499691)
(-0.00412793 -0.0952805 0.000862862)
(0.00332219 -0.0982604 0.499702)
(0.00689934 -0.100701 -0.489471)
(-0.00669082 -0.099927 -0.000424856)
(0.00687261 -0.101172 -0.489511)
(-0.00674389 -0.100249 -0.000418576)
(0.00330749 -0.0963682 -0.499656)
(-0.00401601 -0.0946969 -0.000884887)
(0.0033044 -0.0969879 -0.499666)
(-0.00404729 -0.094936 -0.000878764)
(0.000738195 -0.0990074 0.000190149)
(0.000707224 -0.0985557 0.00015752)
(0.000684576 -0.0992533 0.000191816)
(0.000662182 -0.0988019 0.000156745)
(0.0015391 -0.0929076 0.0005861)
(0.000186397 -0.0925784 0.00017481)
(0.00150521 -0.093021 0.000588094)
(0.000168735 -0.0927589 0.000173985)
(0.000562047 -0.0984807 4.15994e-05)
(0.000562047 -0.0984807 -4.15077e-05)
(0.00052742 -0.0987508 4.09334e-05)
(0.000527419 -0.0987508 -4.08433e-05)
(0.000218863 -0.0929838 4.04211e-05)
(0.00021887 -0.0929838 -4.03282e-05)
(0.0002104 -0.0932563 3.97406e-05)
(0.000210407 -0.0932562 -3.96494e-05)
(0.000707162 -0.0985555 -0.000157412)
(0.00073833 -0.0990069 -0.000190104)
(0.000662119 -0.0988017 -0.000156638)
(0.000684709 -0.0992529 -0.000191771)
(0.000186442 -0.0925783 -0.000174694)
(0.00153894 -0.0929074 -0.000585959)
(0.00016878 -0.0927588 -0.00017387)
(0.00150504 -0.0930208 -0.000587953)
(-0.00668863 -0.0999261 0.000424571)
(0.00689722 -0.1007 0.489475)
(-0.00674172 -0.100248 0.000418296)
(0.0068704 -0.101171 0.489515)
(-0.00401415 -0.0946959 0.000884393)
(0.00330548 -0.0963664 0.499657)
(-0.00404546 -0.094935 0.000878274)
(0.00330224 -0.0969858 0.499666)
(0.00695947 -0.099717 -0.489289)
(-0.00657588 -0.0991933 -0.000435058)
(0.00692517 -0.100217 -0.48933)
(-0.00663277 -0.0995749 -0.000430285)
(0.0033027 -0.0951391 -0.499623)
(-0.00393793 -0.0940988 -0.000894504)
(0.00329476 -0.0957532 -0.499632)
(-0.00396858 -0.0944168 -0.000890075)
(0.00084985 -0.0984156 0.000186686)
(0.000805574 -0.097976 0.00015822)
(0.000793928 -0.0987281 0.000188427)
(0.000755135 -0.0982805 0.000157983)
(0.0016052 -0.0925502 0.000581636)
(0.000225967 -0.0921299 0.000175581)
(0.00157377 -0.09275 0.000583899)
(0.00020564 -0.0923685 0.000175323)
(0.000642789 -0.0978661 4.25364e-05)
(0.000642788 -0.0978661 -4.24419e-05)
(0.000600492 -0.0981862 4.21242e-05)
(0.000600492 -0.0981861 -4.2031e-05)
(0.000241451 -0.0923845 4.13938e-05)
(0.000241458 -0.0923845 -4.1298e-05)
(0.000229176 -0.0926933 4.09663e-05)
(0.000229183 -0.0926932 -4.08718e-05)
(0.000805511 -0.0979758 -0.00015811)
(0.000849978 -0.0984151 -0.000186642)
(0.000755071 -0.0982803 -0.000157874)
(0.000794055 -0.0987276 -0.000188382)
(0.000226011 -0.0921298 -0.000175463)
(0.00160502 -0.0925498 -0.000581498)
(0.000205684 -0.0923684 -0.000175206)
(0.00157358 -0.0927497 -0.000583759)
(-0.00657371 -0.0991924 0.000434766)
(0.00695737 -0.099716 0.489294)
(-0.00663061 -0.099574 0.000429997)
(0.00692297 -0.100216 0.489335)
(-0.00393611 -0.0940976 0.000894004)
(0.00330071 -0.0951376 0.499624)
(-0.00396679 -0.0944157 0.000889577)
(0.00329261 -0.0957516 0.499633)
(0.00703619 -0.0986593 -0.48911)
(-0.0064518 -0.0983381 -0.000442722)
(0.00699346 -0.0991985 -0.48915)
(-0.00651356 -0.0987811 -0.000439144)
(0.00330833 -0.093894 -0.499592)
(-0.00386012 -0.0933526 -0.000901289)
(0.00329519 -0.0945204 -0.4996)
(-0.00389086 -0.0937433 -0.000898192)
(0.000967678 -0.0976881 0.000183237)
(0.000915394 -0.0972725 0.000158072)
(0.000908401 -0.098069 0.000184947)
(0.000859093 -0.0976402 0.000158224)
(0.00166846 -0.0920245 0.000576973)
(0.000270704 -0.0915575 0.000175458)
(0.0016382 -0.0923076 0.000579304)
(0.000247797 -0.0918593 0.000175611)
(0.000739284 -0.0971413 4.30503e-05)
(0.000739283 -0.0971413 -4.29538e-05)
(0.000689035 -0.0975182 4.28365e-05)
(0.000689035 -0.0975181 -4.27409e-05)
(0.000271626 -0.0916985 4.1943e-05)
(0.000271634 -0.0916984 -4.18451e-05)
(0.000255548 -0.0920529 4.17143e-05)
(0.000255556 -0.0920528 -4.16174e-05)
(0.000915328 -0.0972722 -0.000157962)
(0.000967799 -0.0976876 -0.000183194)
(0.000859028 -0.0976399 -0.000158114)
(0.00090852 -0.0980685 -0.000184904)
(0.000270746 -0.0915573 -0.000175339)
(0.00166827 -0.092024 -0.000576837)
(0.00024784 -0.0918591 -0.000175492)
(0.00163801 -0.0923072 -0.000579167)
(-0.00644965 -0.0983373 0.000442425)
(0.00703411 -0.0986586 0.489115)
(-0.00651142 -0.0987803 0.000438849)
(0.00699128 -0.0991976 0.489154)
(-0.00385833 -0.0933515 0.000900786)
(0.00330636 -0.093893 0.499592)
(-0.00388911 -0.0937422 0.00089769)
(0.00329307 -0.0945192 0.499601)
(0.0071303 -0.0975089 -0.48893)
(-0.00631628 -0.0973557 -0.00044836)
(0.00707883 -0.0980968 -0.488968)
(-0.00638404 -0.0978632 -0.000445736)
(0.00332362 -0.0926011 -0.499561)
(-0.00378036 -0.092465 -0.000905818)
(0.00330567 -0.0932551 -0.499569)
(-0.00381223 -0.092926 -0.000903787)
(0.00109374 -0.09682 0.000179946)
(0.00103765 -0.0964355 0.000157318)
(0.00103008 -0.0972719 0.000181563)
(0.000975002 -0.0968712 0.000157747)
(0.00173059 -0.0913354 0.000572303)
(0.000320499 -0.0908513 0.000174692)
(0.00170068 -0.0916998 0.00057462)
(0.000295055 -0.0912212 0.00017514)
(0.000852016 -0.096293 4.32357e-05)
(0.000852014 -0.0962929 -4.3138e-05)
(0.000793587 -0.0967333 4.31753e-05)
(0.000793586 -0.0967332 -4.30781e-05)
(0.000309333 -0.0909076 4.21622e-05)
(0.000309341 -0.0909075 -4.20629e-05)
(0.000289482 -0.0913166 4.20881e-05)
(0.000289491 -0.0913165 -4.19895e-05)
(0.00103758 -0.0964352 -0.000157207)
(0.00109385 -0.0968195 -0.000179904)
(0.000974933 -0.0968709 -0.000157636)
(0.0010302 -0.0972714 -0.000181521)
(0.000320539 -0.0908511 -0.000174574)
(0.00173039 -0.0913348 -0.00057217)
(0.000295096 -0.091221 -0.000175021)
(0.00170048 -0.0916993 -0.000574485)
(-0.00631416 -0.0973549 0.00044806)
(0.00712824 -0.0975084 0.488934)
(-0.00638192 -0.0978624 0.000445437)
(0.00707668 -0.0980961 0.488972)
(-0.00377862 -0.0924639 0.000905314)
(0.00332168 -0.0926004 0.499562)
(-0.00381052 -0.0929249 0.000903283)
(0.00330357 -0.0932542 0.499569)
(0.00724219 -0.0962478 -0.488747)
(-0.00616735 -0.0962379 -0.000452369)
(0.00718183 -0.0968931 -0.488785)
(-0.0062421 -0.0968142 -0.000450514)
(0.00334796 -0.0912329 -0.499531)
(-0.00369705 -0.0914367 -0.000908521)
(0.00332553 -0.0919277 -0.499538)
(-0.00373087 -0.0919683 -0.000907357)
(0.00122991 -0.0958046 0.000176895)
(0.00117327 -0.0954548 0.000156135)
(0.00116095 -0.096331 0.000178385)
(0.00110381 -0.0959636 0.000156759)
(0.00179294 -0.090484 0.000567733)
(0.000375364 -0.0900017 0.000173467)
(0.00176274 -0.0909296 0.00056999)
(0.000347357 -0.0904446 0.000174125)
(0.0009814 -0.0953078 4.31686e-05)
(0.000981397 -0.0953077 -4.30702e-05)
(0.00091459 -0.0958182 4.32261e-05)
(0.000914588 -0.0958181 -4.31279e-05)
(0.000354513 -0.0899949 4.21261e-05)
(0.00035452 -0.0899948 -4.20262e-05)
(0.000330916 -0.0904669 4.21714e-05)
(0.000330924 -0.0904668 -4.20718e-05)
(0.00117319 -0.0954545 -0.000156025)
(0.00123001 -0.0958041 -0.000176855)
(0.00110374 -0.0959633 -0.000156649)
(0.00116106 -0.0963305 -0.000178344)
(0.000375401 -0.0900014 -0.000173349)
(0.00179274 -0.0904834 -0.000567603)
(0.000347394 -0.0904443 -0.000174007)
(0.00176253 -0.0909291 -0.000569859)
(-0.00616526 -0.0962372 0.000452069)
(0.00724015 -0.0962475 0.488751)
(-0.00624001 -0.0968135 0.000450214)
(0.00717971 -0.0968927 0.488789)
(-0.00369534 -0.0914356 0.000908019)
(0.00334603 -0.0912324 0.499531)
(-0.0037292 -0.0919672 0.000906854)
(0.00332345 -0.0919271 0.499538)
(0.00737211 -0.0948593 -0.48856)
(-0.00600303 -0.0949757 -0.00045505)
(0.0073027 -0.0955704 -0.488596)
(-0.00608565 -0.0956254 -0.000453823)
(0.00338063 -0.0897657 -0.499501)
(-0.00360853 -0.0902642 -0.000909716)
(0.00335386 -0.0905127 -0.499507)
(-0.00364488 -0.0908685 -0.000909271)
(0.00137779 -0.0946344 0.000174124)
(0.00132306 -0.0943203 0.000154649)
(0.00130281 -0.0952392 0.00017547)
(0.00124643 -0.0949073 0.000155411)
(0.00185669 -0.089469 0.000563311)
(0.000435414 -0.088999 0.000171911)
(0.00182567 -0.0899967 0.000565491)
(0.000404782 -0.0895196 0.000172721)
(0.00112774 -0.0941732 4.2907e-05)
(0.00112773 -0.0941731 -4.28083e-05)
(0.00105242 -0.0947598 4.30552e-05)
(0.00105241 -0.0947597 -4.29566e-05)
(0.000407099 -0.0889446 4.18923e-05)
(0.000407106 -0.0889445 -4.17922e-05)
(0.000379791 -0.0894873 4.20303e-05)
(0.000379799 -0.0894872 -4.19302e-05)
(0.00132298 -0.09432 -0.00015454)
(0.00137789 -0.0946339 -0.000174084)
(0.00124635 -0.094907 -0.000155301)
(0.00130291 -0.0952387 -0.00017543)
(0.000435447 -0.0889988 -0.000171794)
(0.00185647 -0.0894684 -0.000563185)
(0.000404816 -0.0895193 -0.000172603)
(0.00182545 -0.0899961 -0.000565362)
(-0.00600095 -0.0949752 0.00045475)
(0.00737011 -0.0948591 0.488564)
(-0.00608358 -0.0956248 0.000453523)
(0.0073006 -0.0955701 0.4886)
(-0.00360686 -0.0902632 0.000909217)
(0.00337872 -0.0897655 0.499501)
(-0.00364324 -0.0908675 0.00090877)
(0.00335181 -0.0905124 0.499508)
(0.00752009 -0.0933274 -0.488371)
(-0.00582308 -0.0935583 -0.000456628)
(0.0074418 -0.094112 -0.488408)
(-0.00591342 -0.0942869 -0.000455928)
(0.00342159 -0.0881779 -0.499471)
(-0.00351504 -0.0889417 -0.000909637)
(0.00339085 -0.0889878 -0.499477)
(-0.00355383 -0.0896217 -0.000909805)
(0.00153841 -0.0933004 0.00017164)
(0.00148769 -0.0930211 0.000152943)
(0.00145696 -0.0939882 0.000172843)
(0.00140356 -0.0936918 0.000153807)
(0.0019226 -0.0882869 0.00055905)
(0.00050084 -0.0878335 0.000170112)
(0.00189038 -0.0888987 0.00056115)
(0.000467468 -0.0884368 0.000171035)
(0.00129128 -0.0928764 4.24935e-05)
(0.00129127 -0.0928763 -4.23951e-05)
(0.00120732 -0.0935457 4.27133e-05)
(0.00120731 -0.0935455 -4.26147e-05)
(0.000467042 -0.0877417 4.15033e-05)
(0.000467049 -0.0877416 -4.14034e-05)
(0.000436041 -0.0883625 4.17144e-05)
(0.000436049 -0.0883624 -4.16144e-05)
(0.00148761 -0.0930208 -0.000152835)
(0.0015385 -0.0932999 -0.000171601)
(0.00140348 -0.0936915 -0.000153698)
(0.00145705 -0.0939877 -0.000172804)
(0.00050087 -0.0878333 -0.000169996)
(0.00192238 -0.0882863 -0.000558927)
(0.000467499 -0.0884365 -0.000170918)
(0.00189015 -0.0888981 -0.000561025)
(-0.00582104 -0.0935578 0.00045633)
(0.00751811 -0.0933273 0.488375)
(-0.00591138 -0.0942864 0.000455629)
(0.00743972 -0.0941119 0.488412)
(-0.00351341 -0.0889408 0.000909142)
(0.00341971 -0.088178 0.499472)
(-0.00355223 -0.0896208 0.000909308)
(0.00338883 -0.0889878 0.499478)
(0.00768598 -0.0916375 -0.488179)
(-0.00562707 -0.0919763 -0.000457265)
(0.00759866 -0.0925029 -0.488215)
(-0.00572582 -0.0927884 -0.000457016)
(0.00347031 -0.086451 -0.499441)
(-0.00341607 -0.0874639 -0.000908449)
(0.00343562 -0.0873327 -0.499447)
(-0.00345776 -0.0882223 -0.000909154)
(0.00171275 -0.0917939 0.000169434)
(0.00166771 -0.091547 0.000151069)
(0.00162424 -0.0925691 0.000170499)
(0.00157581 -0.0923064 0.000152012)
(0.00199139 -0.0869332 0.000554936)
(0.000571831 -0.0864957 0.000168123)
(0.00195764 -0.0876315 0.000556965)
(0.000535647 -0.0871863 0.000169136)
(0.00147217 -0.0914054 4.19584e-05)