/*--------------------------------*- C++ -*----------------------------------*\
  =========                 |
  \\      /  F ield         | OpenFOAM: The Open Source CFD Toolbox
   \\    /   O peration     | Website:  https://openfoam.org
    \\  /    A nd           | Version:  9
     \\/     M anipulation  |
\*---------------------------------------------------------------------------*/
FoamFile
{
    format      ascii;
    class       volScalarField;
    location    "1.15";
    object      nut;
}
// * * * * * * * * * * * * * * * * * * * * * * * * * * * * * * * * * * * * * //

dimensions      [0 2 -1 0 0 0 0];

internalField   nonuniform List<scalar> 
36360
(
0.00125104
0.00103245
0.000488344
0.00044958
0.000274275
0.000224433
0.000192254
0.000177108
0.00037097
0.000181729
0.000205752
0.000157478
0.000153762
0.000139334
0.000162075
0.000162099
0.000147659
0.000147655
0.000159424
0.000159426
0.000138518
0.000138518
0.000162174
0.000162174
0.000181682
0.000370875
0.000157488
0.000205744
0.000139332
0.000153751
0.000162099
0.000162076
0.00103241
0.00125125
0.000449546
0.000488397
0.000224429
0.00027429
0.000177107
0.000192256
0.00224391
0.0018749
0.00184841
0.00152464
0.000448873
0.000366012
0.000383326
0.000308187
0.00102589
0.000380021
0.000728029
0.00024109
0.00021301
0.000126929
0.000173912
0.000126784
0.000168908
0.000168857
0.000147881
0.000147852
0.000112614
0.00011261
0.000122049
0.000122048
0.000379633
0.00102557
0.000240945
0.000727794
0.00012689
0.000212949
0.000126777
0.000173884
0.00187502
0.0022446
0.00152467
0.00184886
0.00036601
0.000448949
0.000308181
0.000383373
0.00263018
0.0022292
0.00248837
0.0020983
0.000505773
0.00041903
0.00048593
0.000400113
0.00133875
0.000581348
0.00122268
0.000502858
0.000257424
0.000136567
0.000241334
0.000131337
0.000204955
0.000204716
0.000187159
0.000186981
0.000107077
0.000107064
0.000108432
0.000108423
0.000580537
0.00133837
0.000502222
0.00122232
0.000136473
0.000257326
0.000131272
0.00024125
0.00222949
0.00263129
0.00209851
0.00248929
0.00041904
0.000505895
0.000400117
0.000486031
0.00274656
0.00233694
0.00270799
0.0023013
0.000520375
0.000433081
0.000515816
0.000428696
0.00143249
0.000644974
0.00140199
0.0006247
0.000269361
0.000141084
0.000265681
0.000139641
0.000219042
0.000218712
0.000214597
0.000214299
0.000106721
0.000106704
0.000106759
0.000106742
0.000643988
0.00143207
0.000623778
0.00140158
0.000140966
0.000269252
0.000139531
0.000265576
0.00233732
0.0027479
0.00230164
0.00270924
0.000433098
0.000520521
0.00042871
0.000515953
0.00277168
0.00236
0.00276499
0.00235395
0.000522942
0.000435542
0.000522355
0.000434993
0.00145158
0.000656538
0.00144676
0.000653963
0.000271389
0.000141836
0.000270953
0.000141696
0.000221353
0.000221004
0.000220906
0.000220561
0.000106719
0.0001067
0.000106718
0.000106699
0.000655507
0.00145115
0.000652945
0.00144633
0.000141713
0.000271277
0.000141574
0.000270842
0.00236041
0.00277312
0.00235435
0.0027664
0.000435561
0.000523096
0.000435011
0.000522507
0.00277432
0.00236226
0.00277459
0.00236259
0.000523035
0.000435605
0.000523133
0.000435719
0.0014533
0.000657184
0.0014537
0.00065758
0.000271495
0.000141843
0.000271564
0.000141885
0.000221346
0.000220995
0.000221479
0.000221128
0.000106699
0.00010668
0.000106714
0.000106695
0.000656149
0.00145286
0.000656544
0.00145326
0.00014172
0.000271382
0.000141762
0.000271452
0.00236267
0.00277577
0.00236301
0.00277604
0.000435624
0.00052319
0.000435738
0.000523288
0.00277321
0.00236106
0.00277444
0.0023623
0.000522773
0.000435294
0.000522983
0.000435532
0.0014525
0.000656421
0.00145352
0.000657204
0.000271326
0.000141738
0.000271481
0.000141823
0.000221066
0.000220716
0.000221297
0.000220946
0.000106648
0.00010663
0.000106674
0.000106655
0.000655383
0.00145206
0.000656166
0.00145308
0.000141614
0.000271214
0.000141699
0.000271369
0.00236148
0.00277466
0.00236272
0.00277589
0.000435313
0.000522929
0.000435551
0.000523138
0.00277096
0.00235887
0.0027727
0.00236055
0.00052237
0.00043484
0.000522649
0.000435147
0.0014507
0.000655035
0.00145213
0.000656107
0.000271027
0.000141572
0.000271245
0.000141686
0.00022063
0.000220281
0.000220941
0.000220591
0.000106592
0.000106573
0.00010662
0.000106602
0.000653997
0.00145027
0.000655068
0.00145169
0.000141449
0.000270914
0.000141563
0.000271133
0.00235928
0.00277241
0.00236096
0.00277416
0.000434859
0.000522525
0.000435166
0.000522805
0.00276801
0.00235612
0.00277013
0.00235809
0.00052188
0.000434312
0.000522207
0.000434657
0.00144839
0.00065331
0.00145007
0.000654547
0.000270652
0.000141373
0.000270911
0.000141504
0.000220134
0.000219787
0.000220474
0.000220125
0.000106526
0.000106508
0.00010656
0.000106541
0.000652273
0.00144795
0.00065351
0.00144963
0.00014125
0.000270539
0.000141381
0.000270798
0.00235653
0.00276946
0.0023585
0.00277158
0.00043433
0.000522035
0.000434676
0.000522362
0.00276454
0.00235299
0.00276693
0.00235517
0.00052132
0.00043373
0.000521683
0.000434101
0.00144573
0.000651343
0.0014476
0.000652719
0.000270222
0.000141146
0.000270512
0.000141293
0.000219574
0.000219228
0.000219955
0.000219608
0.00010645
0.000106431
0.000106489
0.00010647
0.000650307
0.00144529
0.000651682
0.00144716
0.000141023
0.000270109
0.000141171
0.000270399
0.0023534
0.00276598
0.00235557
0.00276838
0.000433749
0.000521474
0.00043412
0.000521838
0.00276056
0.00234949
0.00276321
0.00235186
0.000520685
0.000433086
0.000521087
0.000433494
0.00144274
0.000649157
0.00144479
0.000650658
0.000269738
0.000140893
0.000270059
0.000141054
0.000218971
0.000218627
0.000219372
0.000219028
0.000106362
0.000106344
0.000106406
0.000106388
0.000648122
0.00144229
0.000649622
0.00144435
0.000140771
0.000269625
0.000140932
0.000269946
0.00234989
0.002762
0.00235226
0.00276465
0.000433104
0.000520839
0.000433512
0.000521241
0.00275607
0.00234561
0.00275898
0.00234817
0.000519979
0.000432385
0.000520417
0.000432821
0.00143942
0.000646741
0.00144166
0.000648376
0.000269201
0.00014061
0.00026955
0.000140788
0.000218301
0.000217959
0.000218745
0.000218402
0.000106261
0.000106243
0.000106312
0.000106294
0.000645706
0.00143898
0.000647341
0.00144121
0.000140488
0.000269087
0.000140666
0.000269437
0.00234601
0.00275751
0.00234858
0.00276042
0.000432402
0.000520132
0.000432839
0.000520571
0.00275108
0.00234135
0.00275425
0.00234411
0.000519192
0.000431615
0.000519672
0.000432088
0.00143578
0.000644088
0.00143819
0.000645854
0.000268605
0.000140297
0.000268985
0.000140491
0.000217581
0.000217242
0.000218048
0.000217707
0.000106146
0.000106128
0.000106204
0.000106186
0.000643055
0.00143533
0.00064482
0.00143774
0.000140176
0.000268491
0.000140369
0.000268871
0.00234175
0.00275251
0.00234451
0.00275568
0.000431632
0.000519345
0.000432105
0.000519825
0.00274555
0.00233667
0.00274899
0.00233965
0.000518322
0.000430766
0.000518844
0.00043128
0.00143177
0.000641178
0.00143436
0.000643082
0.000267945
0.00013995
0.000268358
0.000140161
0.000216797
0.000216461
0.000217301
0.000216963
0.000106015
0.000105998
0.000106082
0.000106064
0.000640147
0.00143131
0.000642049
0.00143391
0.000139829
0.000267831
0.00014004
0.000268244
0.00233706
0.00274697
0.00234004
0.00275042
0.000430782
0.000518474
0.000431296
0.000518997
0.00273943
0.00233151
0.00274317
0.00233474
0.000517358
0.000429828
0.000517928
0.000430387
0.00142736
0.000637987
0.00143016
0.000640034
0.000267217
0.000139565
0.000267665
0.000139796
0.00021594
0.000215607
0.00021648
0.000216145
0.000105868
0.00010585
0.000105943
0.000105925
0.000636959
0.00142691
0.000639005
0.00142971
0.000139445
0.000267103
0.000139675
0.000267551
0.0023319
0.00274085
0.00233512
0.00274459
0.000429844
0.00051751
0.000430403
0.00051808
0.0027327
0.00232588
0.00273676
0.00232935
0.000516298
0.000428801
0.000516917
0.000429405
0.00142255
0.000634502
0.00142556
0.0006367
0.000266418
0.000139142
0.000266902
0.000139392
0.000215008
0.000214679
0.000215586
0.000215254
0.000105701
0.000105684
0.000105786
0.000105768
0.000633478
0.00142209
0.000635673
0.0014251
0.000139023
0.000266303
0.000139272
0.000266788
0.00232626
0.00273411
0.00232973
0.00273817
0.000428817
0.000516449
0.000429421
0.000517069
0.00272531
0.00231972
0.0027297
0.00232346
0.000515135
0.000427688
0.000515807
0.000428335
0.00141729
0.000630706
0.00142053
0.000633062
0.000265544
0.000138678
0.000266066
0.000138949
0.000213997
0.000213672
0.000214614
0.000214286
0.000105515
0.000105497
0.000105609
0.000105592
0.000629685
0.00141683
0.000632038
0.00142007
0.000138559
0.000265429
0.000138829
0.000265952
0.0023201
0.00272671
0.00232384
0.00273111
0.000427703
0.000515285
0.00042835
0.000515957
0.00271724
0.00231302
0.00272198
0.00231703
0.000513864
0.000426476
0.000514591
0.000427175
0.00141158
0.000626583
0.00141505
0.000629104
0.00026459
0.00013817
0.000265153
0.000138463
0.000212905
0.000212583
0.000213561
0.000213237
0.000105306
0.000105289
0.000105412
0.000105395
0.000625566
0.00141112
0.000628084
0.00141459
0.000138052
0.000264476
0.000138344
0.000265039
0.00231339
0.00271864
0.00231741
0.00272338
0.000426491
0.000514014
0.000427189
0.000514741
0.00270847
0.00230575
0.00271357
0.00231005
0.000512482
0.000425156
0.000513265
0.000425909
0.00140538
0.00062212
0.00140909
0.000624811
0.000263553
0.000137615
0.000264158
0.000137932
0.00021173
0.000211413
0.000212426
0.000212107
0.000105074
0.000105058
0.000105192
0.000105175
0.000621106
0.00140491
0.000623795
0.00140863
0.000137498
0.000263438
0.000137814
0.000264044
0.00230612
0.00270986
0.00231042
0.00271496
0.00042517
0.000512631
0.000425924
0.000513414
0.00269899
0.00229789
0.00270444
0.00230249
0.000510985
0.000423725
0.000511826
0.000424534
0.00139868
0.000617305
0.00140264
0.000620172
0.000262429
0.000137014
0.000263078
0.000137354
0.000210472
0.00021016
0.000211209
0.000210893
0.000104818
0.000104801
0.000104948
0.000104931
0.000616296
0.00139821
0.00061916
0.00140218
0.000136898
0.000262315
0.000137237
0.000262963
0.00229825
0.00270037
0.00230285
0.00270583
0.000423738
0.000511133
0.000424548
0.000511974
0.00268878
0.00228942
0.0026946
0.00229432
0.00050937
0.000422181
0.000510271
0.000423047
0.00139146
0.000612132
0.00139569
0.000615178
0.000261218
0.000136363
0.000261911
0.000136727
0.000209132
0.000208825
0.000209908
0.000209597
0.000104535
0.000104519
0.000104678
0.000104662
0.000611128
0.00139099
0.000614171
0.00139522
0.000136248
0.000261103
0.000136612
0.000261796
0.00228977
0.00269015
0.00229468
0.00269597
0.000422194
0.000509517
0.00042306
0.000510418
0.00267784
0.00228034
0.00268403
0.00228555
0.000507632
0.00042053
0.000508595
0.000421448
0.00138371
0.000606598
0.00138821
0.000609823
0.000259918
0.000135662
0.000260655
0.000136051
0.000207713
0.000207411
0.000208526
0.000208221
0.000104225
0.000104209
0.000104382
0.000104366
0.000605599
0.00138324
0.00060882
0.00138773
0.000135548
0.000259803
0.000135936
0.00026054
0.00228069
0.0026792
0.0022859
0.00268539
0.000420542
0.000507778
0.00042146
0.000508741
0.00266612
0.00227064
0.0026727
0.00227617
0.000505774
0.000418784
0.000506797
0.000419748
0.00137542
0.000600704
0.00138019
0.000604105
0.00025853
0.000134911
0.000259311
0.000135324
0.000206219
0.000205923
0.000207066
0.000206767
0.000103886
0.000103871
0.000104057
0.000104042
0.000599711
0.00137495
0.000603109
0.00137972
0.000134798
0.000258414
0.000135211
0.000259195
0.00227099
0.00266747
0.00227652
0.00267405
0.000418795
0.000505918
0.000419759
0.000506942
0.00265363
0.00226029
0.0026606
0.00226615
0.000503798
0.000416963
0.000504879
0.00041796
0.00136657
0.000594466
0.00137163
0.000598035
0.000257057
0.000134111
0.000257879
0.000134548
0.000204658
0.000204368
0.000205535
0.000205242
0.000103519
0.000103503
0.000103704
0.000103689
0.000593479
0.00136609
0.000597044
0.00137115
0.000133999
0.000256941
0.000134436
0.000257764
0.00226063
0.00265497
0.00226649
0.00266194
0.000416973
0.000503942
0.00041797
0.000505023
0.00264038
0.00224913
0.00264772
0.00225543
0.000501715
0.000415106
0.000502848
0.000416113
0.00135717
0.000587918
0.00136249
0.000591633
0.000255504
0.000133264
0.000256366
0.000133724
0.000203041
0.000202758
0.000203943
0.000203656
0.000103121
0.000103106
0.000103321
0.000103306
0.000586938
0.00135668
0.000590649
0.00136201
0.000133153
0.000255389
0.000133613
0.00025625
0.00224946
0.00264171
0.00225576
0.00264906
0.000415115
0.000501857
0.000416122
0.000502991
0.00262652
0.00223728
0.00263415
0.00224386
0.000499534
0.000413203
0.000500716
0.000414242
0.00134731
0.000581105
0.00135284
0.000584944
0.000253876
0.000132372
0.000254775
0.000132854
0.000201378
0.000201101
0.000202299
0.000202018
0.000102694
0.000102679
0.000102909
0.000102894
0.000580133
0.00134682
0.000583967
0.00135236
0.000132263
0.000253761
0.000132744
0.00025466
0.0022376
0.00262784
0.00224418
0.00263547
0.000413211
0.000499675
0.000414251
0.000500857
0.00261214
0.00222501
0.00262002
0.0022318
0.000497266
0.00041122
0.00049849
0.000412298
0.00133709
0.000574068
0.0013428
0.000578011
0.000252177
0.000131439
0.00025311
0.00013194
0.000199679
0.000199409
0.000200613
0.000200339
0.000102237
0.000102223
0.000102466
0.000102452
0.000573103
0.0013366
0.000577041
0.00134231
0.000131331
0.000252062
0.000131832
0.000252995
0.00222532
0.00261344
0.00223211
0.00262133
0.000411227
0.000497405
0.000412306
0.00049863
0.00259732
0.00221238
0.00260541
0.00221934
0.000494922
0.000409167
0.000496182
0.000410279
0.00132656
0.000566854
0.00133242
0.000570875
0.000250417
0.000130468
0.000251379
0.000130987
0.000197959
0.000197695
0.000198899
0.000198632
0.000101751
0.000101737
0.000101994
0.00010198
0.000565898
0.00132607
0.000569914
0.00133192
0.000130362
0.000250301
0.00013088
0.000251264
0.00221268
0.00259861
0.00221965
0.0026067
0.000409173
0.00049506
0.000410285
0.000496321
0.00258217
0.00219946
0.0025904
0.00220655
0.000492521
0.000407057
0.000493807
0.000408196
0.0013158
0.000559519
0.00132176
0.000563589
0.000248605
0.000129465
0.000249591
0.000129999
0.000196232
0.000195975
0.000197171
0.000196911
0.000101236
0.000101222
0.000101494
0.00010148
0.000558571
0.00131529
0.000562636
0.00132126
0.000129361
0.00024849
0.000129894
0.000249476
0.00219976
0.00258344
0.00220685
0.00259168
0.000407062
0.000492657
0.000408201
0.000493945
0.00256679
0.00218636
0.00257512
0.00219353
0.00049008
0.000404906
0.000491384
0.000406063
0.00130488
0.000552122
0.0013109
0.000556211
0.000246756
0.000128436
0.000247759
0.000128982
0.000194514
0.000194264
0.000195444
0.00019519
0.000100694
0.000100681
0.000100965
0.000100952
0.000551183
0.00130437
0.000555267
0.0013104
0.000128333
0.00024664
0.000128878
0.000247643
0.00218664
0.00256805
0.00219381
0.00257639
0.00040491
0.000490215
0.000406068
0.00049152
0.00255132
0.00217317
0.00255968
0.00218036
0.000487619
0.00040273
0.00048893
0.000403898
0.00129389
0.000544728
0.00129994
0.000548803
0.000244882
0.000127386
0.000245895
0.000127941
0.000192819
0.000192576
0.000193733
0.000193486
0.000100127
0.000100114
0.00010041
0.000100397
0.000543798
0.00129338
0.000547868
0.00129943
0.000127285
0.000244766
0.000127838
0.00024578
0.00217345
0.00255256
0.00218064
0.00256093
0.000402733
0.000487753
0.000403901
0.000489065
0.00253588
0.00216002
0.00254421
0.00216718
0.00048516
0.000400547
0.000486468
0.000401716
0.00128294
0.000537403
0.00128896
0.000541432
0.000242998
0.000126322
0.000244015
0.000126883
0.000191163
0.000190926
0.000192053
0.000191812
9.95368e-05
9.9524e-05
9.98312e-05
9.98183e-05
0.000536482
0.00128243
0.000540505
0.00128845
0.000126223
0.000242883
0.000126782
0.000243899
0.00216028
0.00253711
0.00216745
0.00254544
0.000400549
0.000485292
0.000401718
0.000486601
0.00252059
0.002147
0.00252883
0.00215408
0.000482725
0.000398375
0.000484018
0.000399536
0.00127212
0.000530214
0.00127806
0.000534162
0.000241121
0.000125252
0.000242132
0.000125814
0.000189558
0.000189328
0.000190418
0.000190184
9.89253e-05
9.89129e-05
9.92298e-05
9.92172e-05
0.000529302
0.0012716
0.000533245
0.00127754
0.000125154
0.000241005
0.000125715
0.000242016
0.00214726
0.00252181
0.00215434
0.00253005
0.000398376
0.000482855
0.000399537
0.00048415
0.00250556
0.00213422
0.00251366
0.00214117
0.000480332
0.000396232
0.000481602
0.000397376
0.00126152
0.000523225
0.00126734
0.000527061
0.000239264
0.000124182
0.000240262
0.000124743
0.000188019
0.000187795
0.000188843
0.000188615
9.82954e-05
9.82833e-05
9.86086e-05
9.85963e-05
0.000522322
0.001261
0.000526153
0.00126682
0.000124085
0.000239148
0.000124645
0.000240146
0.00213447
0.00250675
0.00214142
0.00251486
0.000396232
0.000480461
0.000397377
0.000481732
0.00249068
0.00212166
0.00249874
0.00212852
0.000477992
0.000394129
0.000479236
0.000395253
0.00125118
0.000516483
0.00125687
0.000520188
0.000237441
0.000123119
0.00023842
0.000123674
0.000186555
0.000186337
0.000187338
0.000187117
9.76498e-05
9.7638e-05
9.79703e-05
9.79583e-05
0.000515589
0.00125065
0.000519289
0.00125635
0.000123023
0.000237325
0.000123578
0.000238305
0.0021219
0.00249186
0.00212876
0.00249993
0.000394128
0.000478119
0.000395252
0.000479364
0.00247502
0.00210865
0.0024837
0.0021159
0.000475658
0.000392039
0.000476913
0.000393166
0.00124075
0.000509927
0.00124658
0.00051356
0.000235645
0.000122065
0.000236615
0.000122616
0.000185168
0.000184956
0.000185912
0.000185697
9.69915e-05
9.69799e-05
9.73179e-05
9.73062e-05
0.000509043
0.00124023
0.000512671
0.00124605
0.000121971
0.00023553
0.000122521
0.000236499
0.00210888
0.00247618
0.00211613
0.00248487
0.000392037
0.000475783
0.000393165
0.00047704
0.00245446
0.00209183
0.00246644
0.00210172
0.00047302
0.000389716
0.000474499
0.000391019
0.00122802
0.000502785
0.00123553
0.000506907
0.000233741
0.000120997
0.000234801
0.000121562
0.000183792
0.000183586
0.000184549
0.000184339
9.63223e-05
9.6311e-05
9.66539e-05
9.66425e-05
0.000501915
0.00122749
0.000506029
0.001235
0.000120904
0.000233627
0.000121469
0.000234686
0.00209204
0.00245559
0.00210194
0.00246759
0.000389713
0.000473143
0.000391017
0.000474624
0.00241765
0.00205974
0.00243972
0.00207954
0.000468915
0.000385971
0.000471355
0.000388254
0.00120384
0.000490937
0.00121897
0.00049834
0.000230908
0.000119709
0.000232628
0.000120435
0.000181951
0.000181755
0.000183054
0.000182851
9.56343e-05
9.56233e-05
9.5978e-05
9.59668e-05
0.000490094
0.00120332
0.00049748
0.00121845
0.00011962
0.000230795
0.000120344
0.000232514
0.00205993
0.00241873
0.00207974
0.00244083
0.000385966
0.000469033
0.000388251
0.000471476
0.00234628
0.00197602
0.0023882
0.00202956
0.000460383
0.000375209
0.000465681
0.000382414
0.0011442
0.000461868
0.00118089
0.000479871
0.000223319
0.000117136
0.000228286
0.000118745
0.000177923
0.000177748
0.000180404
0.000180216
9.48514e-05
9.48413e-05
9.52688e-05
9.52581e-05
0.000461074
0.00114367
0.000479052
0.00118037
0.000117053
0.000223208
0.000118657
0.000228174
0.00197617
0.00234729
0.00202974
0.00238925
0.0003752
0.000460495
0.000382407
0.000465797
0.00167572
0.00137452
0.000616005
0.000532032
0.00155137
0.00127309
0.000579582
0.00050431
0.000522411
0.000207488
0.000212998
0.000154262
0.000472164
0.000202718
0.000210599
0.000153913
0.000148003
0.000148006
0.000158881
0.000158883
0.000148105
0.000148105
0.000159311
0.000159314
0.000207461
0.000522215
0.000154254
0.000212979
0.000202679
0.000472007
0.000153918
0.000210585
0.00137448
0.00167614
0.000531953
0.000616138
0.00127305
0.0015517
0.000504244
0.00057968
0.00308928
0.00259598
0.00251196
0.00208499
0.0028231
0.00236686
0.00230814
0.00191225
0.00154801
0.000646938
0.0011068
0.000359756
0.00137634
0.000553064
0.000984757
0.000316933
0.000203061
0.000202845
0.000165466
0.000165371
0.000188841
0.0001887
0.000159421
0.000159348
0.000646113
0.00154755
0.00035939
0.0011064
0.000552413
0.00137594
0.000316647
0.000984422
0.00259625
0.00309053
0.00208509
0.00251278
0.00236706
0.00282412
0.00191232
0.0023088
0.00369373
0.00314291
0.00346453
0.0029346
0.00335023
0.00284346
0.00315243
0.00266376
0.00202819
0.00101126
0.00184557
0.000868858
0.00179423
0.000859015
0.00163688
0.000740391
0.000322719
0.000321999
0.000273867
0.000273379
0.000276404
0.00027588
0.000241626
0.000241274
0.00100988
0.00202767
0.000867712
0.00184507
0.00085785
0.00179375
0.00073944
0.00163644
0.00314349
0.00369574
0.00293503
0.00346619
0.00284391
0.00335188
0.0026641
0.0031538
0.0038951
0.00332577
0.00382603
0.00326323
0.00351982
0.00299746
0.00346237
0.00294544
0.00218585
0.00113261
0.0021326
0.00109244
0.00192665
0.000957782
0.00188254
0.00092556
0.000369195
0.000368236
0.000353646
0.000352774
0.000308995
0.000308293
0.000298272
0.000297634
0.00113098
0.00218529
0.0010909
0.00213205
0.000956393
0.00192614
0.000924255
0.00188204
0.00332652
0.00389755
0.00326391
0.0038283
0.00299804
0.00352182
0.00294598
0.00346424
0.00394394
0.00336959
0.00393008
0.00335728
0.0035592
0.00303279
0.00354829
0.00302311
0.00222206
0.00115827
0.00221221
0.0011518
0.00195569
0.000977569
0.00194801
0.000972781
0.000378583
0.000377562
0.000376447
0.000375443
0.000315198
0.000314452
0.000313843
0.000313108
0.00115656
0.00222147
0.00115012
0.00221163
0.000976113
0.00195515
0.000971346
0.00194748
0.0033704
0.00394656
0.00335807
0.00393265
0.00303343
0.00356134
0.00302373
0.00355038
0.00395048
0.00337516
0.00395044
0.00337535
0.00356402
0.00303694
0.00356417
0.00303719
0.00222632
0.00116067
0.00222666
0.00116124
0.00195878
0.000979151
0.00195918
0.000979692
0.000379185
0.000378156
0.000379514
0.000378484
0.000315512
0.000314762
0.000315747
0.000314995
0.00115894
0.00222573
0.00115951
0.00222607
0.000977682
0.00195823
0.000978225
0.00195864
0.00337598
0.00395314
0.00337617
0.0039531
0.00303759
0.00356619
0.00303783
0.00356634
0.00394898
0.00337399
0.00395101
0.00337583
0.00356254
0.00303561
0.00356432
0.00303726
0.00222538
0.00115986
0.00222694
0.00116113
0.00195781
0.000978339
0.00195919
0.000979427
0.000378749
0.000377718
0.000379309
0.000378277
0.000315129
0.000314378
0.000315545
0.000314792
0.00115813
0.00222478
0.00115939
0.00222635
0.000976868
0.00195727
0.000977956
0.00195864
0.00337481
0.00395165
0.00337665
0.00395368
0.00303625
0.00356471
0.0030379
0.0035665
0.00394544
0.00337086
0.00394829
0.00337344
0.00355938
0.00303278
0.00356187
0.00303504
0.00222282
0.00115782
0.002225
0.00115957
0.0019555
0.000976523
0.00195741
0.000978016
0.000377807
0.000376778
0.000378572
0.000377541
0.000314401
0.000313651
0.00031497
0.000314219
0.00115609
0.00222222
0.00115783
0.0022244
0.000975051
0.00195496
0.000976544
0.00195686
0.00337168
0.0039481
0.00337426
0.00395096
0.00303341
0.00356155
0.00303568
0.00356404
0.00394088
0.00336686
0.00394427
0.00336985
0.00355533
0.00302919
0.0035583
0.00303182
0.00221953
0.00115522
0.00222205
0.00115722
0.00195255
0.00097423
0.00195476
0.000975946
0.000376639
0.000375612
0.000377502
0.000376473
0.000313517
0.00031277
0.000314154
0.000313405
0.00115348
0.00221893
0.00115548
0.00222145
0.000972758
0.001952
0.000974473
0.00195421
0.00336767
0.00394354
0.00337066
0.00394693
0.00302982
0.0035575
0.00303246
0.00356047
0.00393569
0.00336231
0.00393942
0.00336561
0.00355069
0.0030251
0.00355397
0.00302802
0.00221578
0.00115226
0.00221854
0.00115445
0.00194918
0.000971624
0.00195162
0.000973511
0.000375333
0.00037431
0.000376273
0.000375247
0.000312526
0.000311782
0.000313227
0.00031248
0.00115052
0.00221517
0.00115271
0.00221794
0.000970152
0.00194862
0.000972038
0.00195107
0.00336312
0.00393834
0.00336642
0.00394208
0.00302573
0.00355285
0.00302865
0.00355613
0.00392992
0.00335727
0.00393396
0.00336085
0.00354548
0.00302055
0.00354905
0.00302371
0.00221162
0.00114901
0.00221461
0.00115136
0.00194542
0.000968742
0.00194807
0.000970782
0.000373925
0.000372905
0.00037492
0.000373898
0.000311457
0.000310716
0.000312199
0.000311456
0.00114727
0.00221101
0.00114962
0.002214
0.00096727
0.00194486
0.00096931
0.00194751
0.00335807
0.00393257
0.00336165
0.0039366
0.00302118
0.00354764
0.00302434
0.00355121
0.00392356
0.00335173
0.0039279
0.00335557
0.00353971
0.00301555
0.00354357
0.00301895
0.00220706
0.00114545
0.00221028
0.00114798
0.00194127
0.000965576
0.00194415
0.000967783
0.000372399
0.000371383
0.000373467
0.000372448
0.000310291
0.000309553
0.000311095
0.000310355
0.00114371
0.00220645
0.00114624
0.00220967
0.000964104
0.00194071
0.00096631
0.00194359
0.00335253
0.00392619
0.00335637
0.00393054
0.00301617
0.00354186
0.00301957
0.00354572
0.00391658
0.00334568
0.00392123
0.00334978
0.00353334
0.00301006
0.0035375
0.00301371
0.00220206
0.00114158
0.00220554
0.00114429
0.00193673
0.000962116
0.00193982
0.00096449
0.00037076
0.00036975
0.000371892
0.000370878
0.000309038
0.000308304
0.00030989
0.000309154
0.00113984
0.00220145
0.00114255
0.00220492
0.000960646
0.00193617
0.000963018
0.00193926
0.00334647
0.00391921
0.00335058
0.00392386
0.00301067
0.00353548
0.00301433
0.00353965
0.00390897
0.00333908
0.00391395
0.00334347
0.00352637
0.00300406
0.00353084
0.00300797
0.00219663
0.00113736
0.00220034
0.00114027
0.00193177
0.000958334
0.00193508
0.000960896
0.000368989
0.000367985
0.000370203
0.000369194
0.000307677
0.000306948
0.000308597
0.000307865
0.00113563
0.00219601
0.00113853
0.00219972
0.000956865
0.0019312
0.000959426
0.00193452
0.00333986
0.00391158
0.00334426
0.00391657
0.00300467
0.0035285
0.00300859
0.00353298
0.00390064
0.0033319
0.00390599
0.00333659
0.00351872
0.00299751
0.00352354
0.00300171
0.00219071
0.00113278
0.00219467
0.00113589
0.00192635
0.000954216
0.0019299
0.000956956
0.000367085
0.000366087
0.000368374
0.000367372
0.000306211
0.000305488
0.000307188
0.000306461
0.00113105
0.00219009
0.00113416
0.00219405
0.000952749
0.00192578
0.000955488
0.00192933
0.00333268
0.00390325
0.00333737
0.0039086
0.00299811
0.00352084
0.00300231
0.00352566
0.00389157
0.00332407
0.00389729
0.00332909
0.00351035
0.00299037
0.00351554
0.00299487
0.00218427
0.00112782
0.0021885
0.00113114
0.00192045
0.000949742
0.00192424
0.000952668
0.000365051
0.000364059
0.000366416
0.00036542
0.000304641
0.000303924
0.000305675
0.000304955
0.00112609
0.00218365
0.00112941
0.00218788
0.000948278
0.00191988
0.000951203
0.00192368
0.00332485
0.00389416
0.00332987
0.00389989
0.00299097
0.00351247
0.00299547
0.00351766
0.00388173
0.00331561
0.00388784
0.00332094
0.00350121
0.00298259
0.00350679
0.00298742
0.00217731
0.00112246
0.00218181
0.00112599
0.00191403
0.000944882
0.00191809
0.000948007
0.000362867
0.000361883
0.000364314
0.000363324
0.000302948
0.000302237
0.000304044
0.000303329
0.00112073
0.00217668
0.00112426
0.00218118
0.000943421
0.00191345
0.000946544
0.00191752
0.00331638
0.00388431
0.00332171
0.00389043
0.00298319
0.00350331
0.00298802
0.0035089
0.00387104
0.00330647
0.00387759
0.00331216
0.00349126
0.00297412
0.00349725
0.0029793
0.00216976
0.00111665
0.00217456
0.00112041
0.00190705
0.000939615
0.0019114
0.000942947
0.000360525
0.000359548
0.000362052
0.00036107
0.000301126
0.000300422
0.000302285
0.000301577
0.00111493
0.00216913
0.00111868
0.00217393
0.000938156
0.00190647
0.000941486
0.00191082
0.00330723
0.00387361
0.00331293
0.00388017
0.00297471
0.00349335
0.00297989
0.00349935
0.00385946
0.00329657
0.00386646
0.00330265
0.00348048
0.00296495
0.00348689
0.00297048
0.0021616
0.0011104
0.00216671
0.00111438
0.0018995
0.000933924
0.00190414
0.000937469
0.000358026
0.000357057
0.000359629
0.000358655
0.000299177
0.000298481
0.000300398
0.000299697
0.00110868
0.00216096
0.00111266
0.00216607
0.000932469
0.00189892
0.000936012
0.00190356
0.00329732
0.00386201
0.0033034
0.00386902
0.00296553
0.00348256
0.00297107
0.00348898
0.00384696
0.0032859
0.00385442
0.00329236
0.00346885
0.00295507
0.00347569
0.00296096
0.0021528
0.00110367
0.00215823
0.0011079
0.00189135
0.000927796
0.00189629
0.000931561
0.000355363
0.000354404
0.000357047
0.000356082
0.000297101
0.000296413
0.000298384
0.00029769
0.00110195
0.00215216
0.00110617
0.0021576
0.000926344
0.00189077
0.000930107
0.00189571
0.00328663
0.00384949
0.00329311
0.00385697
0.00295564
0.00347091
0.00296154
0.00347777
0.00383351
0.00327441
0.00384145
0.00328129
0.0034563
0.00294443
0.0034636
0.00295071
0.00214335
0.00109647
0.00214911
0.00110093
0.00188258
0.000921219
0.00188784
0.000925209
0.000352538
0.000351589
0.000354299
0.000353344
0.000294899
0.000294219
0.000296242
0.000295557
0.00109475
0.00214271
0.00109921
0.00214847
0.000919772
0.00188199
0.000923759
0.00188725
0.00327514
0.00383603
0.00328202
0.00384398
0.00294499
0.00345835
0.00295128
0.00346566
0.00381912
0.00326212
0.00382753
0.00326939
0.00344284
0.00293297
0.00345059
0.00293965
0.00213325
0.00108878
0.00213933
0.00109348
0.00187318
0.000914194
0.00187875
0.000918407
0.000349556
0.000348617
0.000351392
0.000350447
0.000292573
0.000291902
0.000293975
0.000293298
0.00108706
0.0021326
0.00109176
0.00213869
0.000912751
0.00187258
0.00091696
0.00187816
0.00326283
0.00382162
0.00327012
0.00383004
0.00293352
0.00344487
0.00294021
0.00345264
0.00380379
0.00324902
0.00381266
0.0032567
0.0034285
0.00292077
0.00343669
0.00292782
0.00212249
0.00108061
0.0021289
0.00108555
0.00186315
0.000906727
0.00186903
0.000911158
0.000346422
0.000345495
0.00034833
0.000347395
0.000290131
0.000289469
0.000291587
0.00029092
0.0010789
0.00212184
0.00108384
0.00212825
0.000905288
0.00186256
0.000909716
0.00186844
0.00324973
0.00380627
0.00325741
0.00381516
0.00292131
0.00343052
0.00292837
0.00343872
0.00378755
0.00323515
0.00379687
0.00324321
0.00341328
0.00290783
0.00342191
0.00291525
0.00211109
0.00107198
0.00211782
0.00107715
0.00185252
0.000898833
0.0018587
0.000903472
0.000343147
0.000342232
0.00034512
0.000344197
0.000287581
0.00028693
0.000289085
0.000288428
0.00107027
0.00211043
0.00107544
0.00211716
0.000897399
0.00185191
0.000902035
0.0018581
0.00323584
0.00379001
0.00324391
0.00379935
0.00290836
0.00341528
0.00291579
0.00342392
0.00377043
0.00322053
0.00378018
0.00322895
0.00339723
0.00289416
0.00340626
0.00290194
0.00209909
0.00106291
0.00210611
0.00106829
0.0018413
0.000890542
0.00184777
0.000895373
0.000339745
0.000338841
0.000341775
0.000340864
0.000284936
0.000284296
0.000286483
0.000285836
0.00106121
0.00209842
0.00106659
0.00210545
0.000889114
0.00184069
0.000893942
0.00184716
0.0032212
0.00377287
0.00322964
0.00378264
0.00289468
0.00339922