/*--------------------------------*- C++ -*----------------------------------*\
  =========                 |
  \\      /  F ield         | OpenFOAM: The Open Source CFD Toolbox
   \\    /   O peration     | Website:  https://openfoam.org
    \\  /    A nd           | Version:  9
     \\/     M anipulation  |
\*---------------------------------------------------------------------------*/
FoamFile
{
    format      ascii;
    class       volScalarField;
    location    "3.75";
    object      p;
}
// * * * * * * * * * * * * * * * * * * * * * * * * * * * * * * * * * * * * * //

dimensions      [0 2 -2 0 0 0 0];

internalField   nonuniform List<scalar> 
36360
(
20.1187
20.0874
20.1124
20.0914
20.0974
20.1024
20.098
20.0995
20.0995
20.1002
20.0999
20.1003
20.0992
20.0996
20.0988
20.0992
20.1002
20.1002
20.1003
20.1003
20.0996
20.0996
20.0994
20.0994
20.1002
20.0995
20.1003
20.0999
20.0996
20.0992
20.0992
20.0988
20.0874
20.1187
20.0914
20.1124
20.1024
20.0974
20.0995
20.098
20.111
20.095
20.115
20.0913
20.0835
20.1168
20.0911
20.1094
20.0994
20.0997
20.0994
20.1001
20.0996
20.099
20.0994
20.0994
20.0999
20.0999
20.1001
20.1001
20.0991
20.0991
20.0994
20.0994
20.0997
20.0994
20.1001
20.0994
20.099
20.0996
20.0994
20.0994
20.095
20.111
20.0912
20.115
20.1168
20.0836
20.1094
20.0911
20.1022
20.1023
20.1066
20.0987
20.0682
20.1313
20.0758
20.1242
20.1008
20.099
20.0999
20.0993
20.1015
20.0985
20.1004
20.0987
20.099
20.099
20.0995
20.0995
20.0984
20.0984
20.0987
20.0987
20.099
20.1008
20.0993
20.0999
20.0985
20.1015
20.0987
20.1004
20.1023
20.1022
20.0987
20.1066
20.1313
20.0682
20.1242
20.0759
20.0936
20.1083
20.0978
20.1055
20.054
20.1435
20.0609
20.1377
20.1036
20.0988
20.1021
20.0989
20.1047
20.0984
20.103
20.0983
20.0981
20.0981
20.0985
20.0985
20.0977
20.0977
20.098
20.098
20.0988
20.1036
20.0989
20.1021
20.0984
20.1047
20.0983
20.103
20.1083
20.0937
20.1055
20.0978
20.1435
20.054
20.1377
20.0609
20.086
20.1128
20.0897
20.1108
20.0414
20.153
20.0475
20.1486
20.1068
20.0991
20.1052
20.0989
20.1082
20.0987
20.1064
20.0985
20.0974
20.0974
20.0978
20.0978
20.0971
20.0971
20.0974
20.0974
20.0991
20.1068
20.0989
20.1052
20.0987
20.1082
20.0985
20.1064
20.1128
20.086
20.1108
20.0897
20.153
20.0415
20.1486
20.0475
20.0793
20.1159
20.0825
20.1145
20.0308
20.1603
20.0359
20.1569
20.11
20.0998
20.1084
20.0994
20.1118
20.0994
20.11
20.099
20.097
20.097
20.0972
20.0972
20.0967
20.0968
20.0969
20.0969
20.0997
20.1099
20.0994
20.1084
20.0993
20.1116
20.099
20.11
20.1159
20.0793
20.1145
20.0825
20.1602
20.0308
20.1569
20.0359
20.0736
20.118
20.0763
20.117
20.0218
20.1656
20.0261
20.1631
20.1128
20.1006
20.1114
20.1002
20.1149
20.1002
20.1133
20.0997
20.0968
20.0968
20.0968
20.0968
20.0966
20.0966
20.0967
20.0966
20.1006
20.1128
20.1002
20.1114
20.1002
20.1149
20.0997
20.1133
20.1179
20.0736
20.117
20.0763
20.1656
20.0218
20.1631
20.0261
20.0687
20.1192
20.071
20.1187
20.0143
20.1696
20.0179
20.1678
20.1153
20.1016
20.1141
20.1011
20.1175
20.1011
20.1163
20.1006
20.0968
20.0968
20.0967
20.0967
20.0966
20.0966
20.0966
20.0966
20.1016
20.1153
20.1011
20.1141
20.1011
20.1175
20.1006
20.1162
20.1192
20.0687
20.1187
20.071
20.1695
20.0143
20.1677
20.0179
20.0646
20.12
20.0665
20.1197
20.0081
20.1724
20.011
20.1711
20.1173
20.1025
20.1164
20.102
20.1197
20.102
20.1187
20.1015
20.0969
20.0969
20.0968
20.0968
20.0968
20.0968
20.0967
20.0967
20.1025
20.1173
20.102
20.1163
20.102
20.1197
20.1015
20.1187
20.12
20.0646
20.1197
20.0666
20.1724
20.0081
20.1711
20.0111
20.0611
20.1204
20.0628
20.1203
20.0029
20.1745
20.0054
20.1735
20.119
20.1034
20.1182
20.103
20.1215
20.1029
20.1207
20.1024
20.0972
20.0972
20.097
20.097
20.097
20.097
20.0969
20.0969
20.1034
20.1189
20.103
20.1182
20.1029
20.1215
20.1024
20.1207
20.1204
20.0611
20.1203
20.0628
20.1744
20.003
20.1735
20.0055
20.0581
20.1206
20.0595
20.1205
19.9987
20.1758
20.0007
20.1752
20.1202
20.1042
20.1196
20.1038
20.1228
20.1036
20.1222
20.1033
20.0975
20.0975
20.0973
20.0973
20.0974
20.0974
20.0972
20.0972
20.1042
20.1202
20.1038
20.1196
20.1036
20.1228
20.1032
20.1222
20.1206
20.0582
20.1205
20.0596
20.1758
19.9988
20.1752
20.0008
20.0556
20.1206
20.0568
20.1206
19.9953
20.1767
19.9969
20.1763
20.1211
20.1049
20.1207
20.1045
20.1239
20.1043
20.1234
20.104
20.0979
20.0979
20.0977
20.0977
20.0977
20.0977
20.0975
20.0975
20.1049
20.1211
20.1045
20.1207
20.1043
20.1238
20.104
20.1234
20.1205
20.0557
20.1206
20.0569
20.1767
19.9953
20.1763
19.997
20.0535
20.1204
20.0545
20.1205
19.9925
20.1773
19.9938
20.177
20.1217
20.1054
20.1214
20.1052
20.1246
20.1048
20.1242
20.1046
20.0982
20.0982
20.0981
20.0981
20.0981
20.0981
20.0979
20.0979
20.1054
20.1217
20.1052
20.1214
20.1048
20.1246
20.1046
20.1242
20.1204
20.0536
20.1205
20.0546
20.1772
19.9925
20.177
19.9939
20.0518
20.1202
20.0526
20.1203
19.9902
20.1775
19.9913
20.1774
20.1222
20.1059
20.122
20.1057
20.1251
20.1053
20.1248
20.1051
20.0986
20.0986
20.0984
20.0984
20.0984
20.0984
20.0982
20.0982
20.1059
20.1222
20.1057
20.122
20.1053
20.125
20.1051
20.1248
20.1202
20.0518
20.1203
20.0526
20.1775
19.9903
20.1774
19.9914
20.0503
20.12
20.051
20.1201
19.9884
20.1775
19.9893
20.1775
20.1225
20.1063
20.1224
20.1061
20.1254
20.1056
20.1252
20.1054
20.0989
20.0989
20.0987
20.0987
20.0986
20.0986
20.0985
20.0985
20.1063
20.1225
20.1061
20.1223
20.1056
20.1253
20.1054
20.1252
20.12
20.0503
20.1201
20.051
20.1775
19.9885
20.1775
19.9893
20.049
20.1197
20.0496
20.1198
19.987
20.1773
19.9877
20.1774
20.1226
20.1065
20.1226
20.1064
20.1255
20.1058
20.1254
20.1057
20.0991
20.0991
20.099
20.099
20.0988
20.0988
20.0987
20.0987
20.1065
20.1226
20.1064
20.1225
20.1058
20.1255
20.1057
20.1254
20.1197
20.0491
20.1198
20.0496
20.1773
19.9871
20.1774
19.9877
20.048
20.1194
20.0485
20.1195
19.9859
20.177
19.9864
20.1772
20.1226
20.1067
20.1226
20.1066
20.1255
20.1059
20.1255
20.1059
20.0993
20.0993
20.0992
20.0992
20.099
20.099
20.0989
20.0989
20.1067
20.1226
20.1066
20.1226
20.1059
20.1255
20.1059
20.1255
20.1194
20.048
20.1195
20.0485
20.1769
19.986
20.1771
19.9865
20.0471
20.119
20.0475
20.1192
19.9851
20.1765
19.9855
20.1768
20.1226
20.1068
20.1226
20.1067
20.1254
20.106
20.1254
20.106
20.0995
20.0995
20.0994
20.0994
20.0991
20.099
20.099
20.099
20.1068
20.1225
20.1067
20.1226
20.106
20.1253
20.106
20.1254
20.119
20.0472
20.1192
20.0476
20.1765
19.9852
20.1767
19.9855
20.0465
20.1187
20.0468
20.1189
19.9845
20.176
19.9848
20.1763
20.1224
20.1068
20.1225
20.1068
20.1251
20.106
20.1253
20.106
20.0996
20.0996
20.0995
20.0995
20.0991
20.0991
20.0991
20.0991
20.1068
20.1224
20.1068
20.1225
20.1059
20.1251
20.106
20.1252
20.1187
20.0465
20.1189
20.0468
20.176
19.9846
20.1762
19.9848
20.0459
20.1184
20.0462
20.1186
19.9842
20.1754
19.9843
20.1757
20.1222
20.1068
20.1223
20.1068
20.1248
20.1059
20.125
20.1059
20.0996
20.0996
20.0996
20.0996
20.0991
20.0991
20.0991
20.0991
20.1068
20.1222
20.1068
20.1223
20.1059
20.1248
20.1059
20.125
20.1184
20.046
20.1185
20.0462
20.1754
19.9842
20.1757
19.9844
20.0456
20.1181
20.0457
20.1182
19.984
20.1747
19.984
20.1751
20.1219
20.1067
20.1221
20.1068
20.1245
20.1057
20.1247
20.1058
20.0997
20.0997
20.0996
20.0996
20.099
20.099
20.099
20.099
20.1067
20.1219
20.1067
20.122
20.1057
20.1245
20.1058
20.1246
20.1181
20.0456
20.1182
20.0458
20.1747
19.9841
20.175
19.9841
20.0453
20.1178
20.0454
20.1179
19.984
20.174
19.984
20.1744
20.1216
20.1066
20.1218
20.1067
20.124
20.1055
20.1243
20.1056
20.0997
20.0997
20.0997
20.0997
20.0989
20.0989
20.099
20.099
20.1066
20.1216
20.1067
20.1218
20.1055
20.124
20.1056
20.1242
20.1178
20.0454
20.1179
20.0455
20.174
19.9841
20.1743
19.9841
20.0452
20.1175
20.0453
20.1176
19.9842
20.1732
19.9841
20.1736
20.1213
20.1065
20.1214
20.1065
20.1236
20.1053
20.1238
20.1054
20.0997
20.0996
20.0997
20.0997
20.0988
20.0988
20.0988
20.0988
20.1065
20.1212
20.1065
20.1214
20.1053
20.1235
20.1054
20.1238
20.1175
20.0453
20.1176
20.0453
20.1732
19.9843
20.1736
19.9842
20.0453
20.1172
20.0452
20.1174
19.9846
20.1724
19.9844
20.1728
20.1209
20.1063
20.1211
20.1064
20.123
20.105
20.1233
20.1052
20.0996
20.0996
20.0996
20.0996
20.0987
20.0987
20.0987
20.0987
20.1063
20.1209
20.1064
20.1211
20.105
20.123
20.1051
20.1233
20.1172
20.0453
20.1174
20.0453
20.1724
19.9846
20.1728
19.9844
20.0454
20.117
20.0453
20.1171
19.9851
20.1716
19.9848
20.172
20.1205
20.1062
20.1207
20.1063
20.1225
20.1048
20.1228
20.1049
20.0997
20.0997
20.0997
20.0997
20.0986
20.0986
20.0986
20.0986
20.1062
20.1205
20.1063
20.1207
20.1048
20.1225
20.1049
20.1228
20.117
20.0455
20.1171
20.0454
20.1716
19.9852
20.172
19.9849
20.0458
20.1168
20.0456
20.1169
19.9858
20.1708
19.9854
20.1712
20.1201
20.1061
20.1203
20.1061
20.1219
20.1045
20.1222
20.1046
20.0997
20.0997
20.0997
20.0997
20.0985
20.0985
20.0985
20.0985
20.1061
20.1201
20.1061
20.1203
20.1045
20.1219
20.1046
20.1222
20.1167
20.0458
20.1169
20.0456
20.1707
19.9859
20.1712
19.9855
20.0462
20.1166
20.046
20.1167
19.9867
20.1699
19.9863
20.1703
20.1198
20.106
20.1199
20.106
20.1213
20.1043
20.1216
20.1044
20.0998
20.0998
20.0997
20.0997
20.0984
20.0984
20.0984
20.0984
20.106
20.1197
20.106
20.1199
20.1043
20.1213
20.1044
20.1216
20.1165
20.0462
20.1166
20.046
20.1698
19.9868
20.1703
19.9863
20.0468
20.1164
20.0465
20.1165
19.9878
20.1689
19.9873
20.1694
20.1194
20.1059
20.1196
20.1059
20.1208
20.1041
20.1211
20.1042
20.0999
20.0999
20.0999
20.0999
20.0984
20.0984
20.0984
20.0984
20.1059
20.1194
20.1059
20.1196
20.1041
20.1208
20.1042
20.121
20.1164
20.0469
20.1165
20.0465
20.1689
19.9879
20.1694
19.9873
20.0476
20.1162
20.0472
20.1163
19.9892
20.168
19.9885
20.1685
20.119
20.1059
20.1192
20.1059
20.1202
20.1039
20.1205
20.104
20.1002
20.1002
20.1
20.1
20.0985
20.0985
20.0984
20.0984
20.1059
20.119
20.1059
20.1192
20.1039
20.1202
20.104
20.1205
20.1162
20.0477
20.1163
20.0472
20.1679
19.9892
20.1684
19.9886
20.0486
20.1161
20.0481
20.1161
19.9907
20.167
19.9899
20.1675
20.1187
20.106
20.1189
20.1059
20.1197
20.1039
20.1199
20.1039
20.1005
20.1005
20.1003
20.1003
20.0986
20.0986
20.0985
20.0985
20.106
20.1187
20.1059
20.1189
20.1039
20.1196
20.1039
20.1199
20.1161
20.0486
20.1161
20.0481
20.1669
19.9908
20.1674
19.99
20.0497
20.1159
20.0491
20.116
19.9925
20.1659
19.9916
20.1665
20.1184
20.1061
20.1186
20.1061
20.1191
20.1039
20.1194
20.1039
20.1008
20.1008
20.1006
20.1006
20.0989
20.0989
20.0987
20.0987
20.1061
20.1184
20.106
20.1186
20.1039
20.1191
20.1038
20.1194
20.1159
20.0497
20.116
20.0492
20.1659
19.9926
20.1664
19.9917
20.051
20.1158
20.0503
20.1159
19.9946
20.1648
19.9936
20.1654
20.1182
20.1064
20.1183
20.1062
20.1187
20.104
20.1189
20.1039
20.1013
20.1013
20.1011
20.1011
20.0992
20.0992
20.099
20.099
20.1064
20.1181
20.1062
20.1183
20.104
20.1186
20.1039
20.1189
20.1158
20.051
20.1159
20.0504
20.1648
19.9947
20.1654
19.9936
20.0525
20.1157
20.0517
20.1158
19.997
20.1636
19.9958
20.1642
20.1179
20.1067
20.118
20.1065
20.1183
20.1042
20.1184
20.1041
20.1019
20.1019
20.1016
20.1016
20.0997
20.0997
20.0994
20.0994
20.1067
20.1179
20.1065
20.118
20.1042
20.1182
20.1041
20.1184
20.1157
20.0525
20.1158
20.0518
20.1636
19.9971
20.1642
19.9958
20.0542
20.1156
20.0533
20.1156
19.9997
20.1623
19.9983
20.163
20.1178
20.1071
20.1179
20.1069
20.1179
20.1046
20.1181
20.1044
20.1026
20.1026
20.1022
20.1022
20.1002
20.1002
20.0999
20.0999
20.1071
20.1178
20.1069
20.1179
20.1045
20.1179
20.1044
20.1181
20.1156
20.0542
20.1156
20.0533
20.1623
19.9997
20.163
19.9984
20.0561
20.1154
20.0551
20.1155
20.0027
20.1609
20.0011
20.1616
20.1178
20.1076
20.1178
20.1074
20.1177
20.105
20.1178
20.1048
20.1033
20.1033
20.1029
20.1029
20.1009
20.1009
20.1006
20.1006
20.1076
20.1177
20.1074
20.1178
20.105
20.1177
20.1048
20.1178
20.1154
20.0561
20.1155
20.0551
20.1608
20.0028
20.1616
20.0012
20.0581
20.1152
20.0571
20.1153
20.0061
20.1592
20.0044
20.1601
20.1178
20.1083
20.1178
20.108
20.1176
20.1056
20.1176
20.1053
20.1042
20.1042
20.1037
20.1037
20.1017
20.1017
20.1013
20.1013
20.1083
20.1178
20.1079
20.1177
20.1056
20.1176
20.1053
20.1176
20.1152
20.0581
20.1153
20.0571
20.1592
20.0062
20.16
20.0044
20.0602
20.1151
20.0591
20.1151
20.0101
20.1572
20.0081
20.1583
20.1179
20.109
20.1178
20.1086
20.1176
20.1064
20.1176
20.106
20.1051
20.1051
20.1046
20.1046
20.1026
20.1026
20.1021
20.1021
20.109
20.1179
20.1086
20.1178
20.1064
20.1175
20.106
20.1175
20.1151
20.0602
20.1151
20.0592
20.1572
20.0102
20.1582
20.0081
20.0618
20.1155
20.0612
20.1151
20.0149
20.1546
20.0124
20.156
20.1181
20.1098
20.118
20.1094
20.1177
20.1072
20.1176
20.1068
20.106
20.106
20.1055
20.1055
20.1036
20.1036
20.1031
20.1031
20.1098
20.1181
20.1094
20.118
20.1072
20.1176
20.1068
20.1176
20.1155
20.0618
20.1151
20.0612
20.1546
20.0149
20.156
20.0124
20.0633
20.1159
20.0617
20.1167
20.0204
20.1511
20.0175
20.153
20.1187
20.1108
20.1184
20.1103
20.1181
20.1082
20.1178
20.1077
20.1071
20.1071
20.1065
20.1065
20.1046
20.1046
20.1041
20.1041
20.1108
20.1187
20.1103
20.1184
20.1082
20.1181
20.1077
20.1178
20.1159
20.0633
20.1167
20.0617
20.151
20.0205
20.153
20.0176
20.1359
20.0735
20.1215
20.0834
20.1301
20.0766
20.1174
20.0853
20.0967
20.1
20.0986
20.1001
20.0977
20.0998
20.0987
20.0996
20.1001
20.1001
20.1001
20.1001
20.0998
20.0998
20.0996
20.0996
20.1
20.0967
20.1001
20.0986
20.0998
20.0977
20.0996
20.0987
20.0735
20.1359
20.0834
20.1215
20.0766
20.13
20.0853
20.1174
20.1338
20.0793
20.1348
20.0766
20.1277
20.0817
20.1292
20.0792
20.0941
20.0992
20.0953
20.0997
20.0962
20.0994
20.0969
20.0997
20.0998
20.0998
20.1
20.1
20.0997
20.0997
20.0999
20.0999
20.0992
20.0941
20.0997
20.0953
20.0994
20.0962
20.0997
20.0969
20.0793
20.1337
20.0766
20.1347
20.0817
20.1277
20.0792
20.1292
20.1313
20.0833
20.1326
20.0815
20.1237
20.0861
20.1258
20.0841
20.0936
20.0981
20.0936
20.0986
20.0965
20.0987
20.0961
20.099
20.0992
20.0992
20.0995
20.0995
20.099
20.099
20.0994
20.0994
20.0981
20.0936
20.0986
20.0935
20.0987
20.0965
20.099
20.0961
20.0833
20.1313
20.0815
20.1326
20.0861
20.1236
20.0841
20.1258
20.1288
20.0854
20.13
20.0845
20.1193
20.089
20.1215
20.0877
20.0947
20.0976
20.0941
20.0978
20.098
20.0984
20.0971
20.0984
20.0983
20.0983
20.0987
20.0987
20.0982
20.0982
20.0986
20.0986
20.0976
20.0947
20.0978
20.0941
20.0984
20.098
20.0984
20.0971
20.0854
20.1288
20.0845
20.13
20.089
20.1193
20.0877
20.1215
20.1267
20.0863
20.1277
20.086
20.1154
20.0907
20.1173
20.09
20.096
20.0977
20.0953
20.0976
20.1001
20.0985
20.099
20.0984
20.0975
20.0975
20.0979
20.0979
20.0975
20.0975
20.0978
20.0978
20.0977
20.096
20.0976
20.0953
20.0985
20.1001
20.0984
20.099
20.0863
20.1266
20.086
20.1277
20.0907
20.1154
20.09
20.1173
20.1248
20.0863
20.1257
20.0864
20.1119
20.0914
20.1136
20.0912
20.0975
20.0981
20.0968
20.0978
20.1024
20.0991
20.1013
20.0988
20.0971
20.0971
20.0973
20.0973
20.0971
20.0971
20.0973
20.0973
20.0981
20.0975
20.0978
20.0968
20.0991
20.1023
20.0988
20.1013
20.0863
20.1247
20.0864
20.1256
20.0914
20.1119
20.0912
20.1136
20.1231
20.0859
20.1239
20.0862
20.1088
20.0916
20.1103
20.0916
20.0987
20.0987
20.0981
20.0984
20.1043
20.0999
20.1034
20.0995
20.0969
20.0969
20.097
20.097
20.0969
20.0969
20.097
20.097
20.0987
20.0987
20.0984
20.0981
20.0999
20.1042
20.0995
20.1033
20.0859
20.123
20.0862
20.1239
20.0916
20.1088
20.0916
20.1103
20.1215
20.0853
20.1223
20.0856
20.1062
20.0915
20.1075
20.0916
20.0998
20.0995
20.0993
20.0991
20.1058
20.1007
20.1051
20.1003
20.097
20.097
20.0969
20.0969
20.097
20.097
20.0969
20.0969
20.0995
20.0998
20.0991
20.0993
20.1007
20.1058
20.1003
20.1051
20.0853
20.1215
20.0856
20.1223
20.0915
20.1062
20.0916
20.1074
20.1201
20.0846
20.1208
20.0849
20.1038
20.0911
20.105
20.0913
20.1006
20.1002
20.1002
20.0998
20.107
20.1016
20.1064
20.1012
20.0973
20.0973
20.0971
20.0971
20.0972
20.0972
20.0971
20.0971
20.1002
20.1006
20.0998
20.1002
20.1016
20.107
20.1012
20.1064
20.0846
20.1201
20.0849
20.1208
20.0911
20.1038
20.0913
20.1049
20.1188
20.0838
20.1195
20.0842
20.1018
20.0906
20.1028
20.0909
20.1012
20.1009
20.1009
20.1006
20.108
20.1024
20.1075
20.102
20.0977
20.0977
20.0975
20.0975
20.0976
20.0976
20.0974
20.0974
20.1009
20.1012
20.1006
20.1009
20.1024
20.1079
20.102
20.1075
20.0838
20.1188
20.0842
20.1194
20.0906
20.1018
20.0909
20.1028
20.1176
20.0831
20.1182
20.0835
20.1
20.0901
20.1008
20.0904
20.1016
20.1016
20.1014
20.1013
20.1087
20.1032
20.1084
20.1028
20.0981
20.0981
20.0979
20.0979
20.098
20.098
20.0978
20.0978
20.1016
20.1016
20.1013
20.1014
20.1032
20.1087
20.1028
20.1084
20.0831
20.1176
20.0835
20.1182
20.0901
20.0999
20.0904
20.1008
20.1165
20.0825
20.117
20.0828
20.0983
20.0896
20.0991
20.0899
20.102
20.1022
20.1018
20.1019
20.1094
20.1038
20.1091
20.1035
20.0986
20.0986
20.0983
20.0983
20.0984
20.0984
20.0982
20.0982
20.1022
20.102
20.1019
20.1018
20.1038
20.1094
20.1035
20.1091
20.0825
20.1164
20.0828
20.117
20.0896
20.0983
20.0899
20.0991
20.1154
20.0819
20.1159
20.0822
20.0969
20.0891
20.0976
20.0893
20.1022
20.1027
20.1021
20.1025
20.1099
20.1044
20.1097
20.1041
20.099
20.099
20.0988
20.0988
20.0988
20.0988
20.0986
20.0986
20.1027
20.1022
20.1024
20.1021
20.1044
20.1099
20.1041
20.1096
20.0819
20.1153
20.0822
20.1159
20.0891
20.0969
20.0894
20.0976
20.1144
20.0814
20.1149
20.0817
20.0956
20.0886
20.0962
20.0889
20.1024
20.1031
20.1023
20.1029
20.1102
20.1049
20.1101
20.1046
20.0994
20.0994
20.0992
20.0992
20.0992
20.0992
20.099
20.099
20.1031
20.1024
20.1029
20.1023
20.1049
20.1102
20.1046
20.11
20.0814
20.1143
20.0817
20.1148
20.0887
20.0956
20.0889
20.0962
20.1134
20.081
20.1139
20.0812
20.0945
20.0882
20.095
20.0884
20.1025
20.1035
20.1025
20.1033
20.1104
20.1052
20.1103
20.1051
20.0998
20.0998
20.0996
20.0996
20.0995
20.0995
20.0994
20.0994
20.1035
20.1025
20.1033
20.1025
20.1052
20.1104
20.1051
20.1103
20.081
20.1134
20.0812
20.1139
20.0882
20.0944
20.0884
20.095
20.1126
20.0806
20.113
20.0808
20.0934
20.0879
20.0939
20.088
20.1026
20.1038
20.1026
20.1037
20.1106
20.1055
20.1105
20.1054
20.1001
20.1001
20.1
20.1
20.0998
20.0998
20.0997
20.0997
20.1038
20.1026
20.1037
20.1026
20.1055
20.1105
20.1054
20.1105
20.0806
20.1125
20.0808
20.113
20.0879
20.0934
20.088
20.0939
20.1118
20.0803
20.1122
20.0805
20.0926
20.0875
20.093
20.0877
20.1026
20.1041
20.1026
20.1039
20.1107
20.1058
20.1106
20.1057
20.1004
20.1004
20.1003
20.1003
20.1001
20.1001
20.1
20.1
20.104
20.1026
20.1039
20.1026
20.1057
20.1107
20.1057
20.1106
20.0803
20.1117
20.0805
20.1121
20.0875
20.0925
20.0877
20.093
20.1111
20.0801
20.1114
20.0802
20.0918
20.0872
20.0922
20.0874
20.1026
20.1042
20.1026
20.1042
20.1108
20.1059
20.1107
20.1058
20.1006
20.1006
20.1005
20.1005
20.1003
20.1003
20.1002
20.1002
20.1042
20.1026
20.1041
20.1026
20.1059
20.1108
20.1058
20.1107
20.0801
20.111
20.0802
20.1114
20.0872
20.0918
20.0874
20.0921
20.1104
20.0799
20.1107
20.0799
20.0911
20.087
20.0914
20.0871
20.1026
20.1044
20.1026
20.1043
20.1108
20.106
20.1108
20.106
20.1008
20.1008
20.1007
20.1007
20.1004
20.1004
20.1003
20.1003
20.1044
20.1026
20.1043
20.1026
20.106
20.1108
20.106
20.1108
20.0799
20.1104
20.08
20.1107
20.087
20.0911
20.0871
20.0914
20.1099
20.0797
20.1101
20.0798
20.0906
20.0868
20.0908
20.0869
20.1026
20.1045
20.1026
20.1044
20.1107
20.1061
20.1108
20.106
20.101
20.101
20.1009
20.1009
20.1005
20.1005
20.1005
20.1005
20.1045
20.1026
20.1044
20.1026
20.106
20.1107
20.106
20.1107
20.0797
20.1098
20.0798
20.1101
20.0868
20.0905
20.0869
20.0908
20.1094
20.0796
20.1096
20.0797
20.0901
20.0866
20.0903
20.0867
20.1026
20.1046
20.1026
20.1045
20.1107
20.1061
20.1107
20.1061
20.1011
20.1011
20.101
20.101
20.1006
20.1006
20.1006
20.1006
20.1045
20.1026
20.1045
20.1026
20.1061
20.1107
20.1061
20.1107
20.0796
20.1094
20.0797
20.1096
20.0866
20.0901
20.0867
20.0903
20.109
20.0796
20.1092
20.0796
20.0898
20.0865
20.0899
20.0866
20.1025
20.1046
20.1026
20.1046
20.1106
20.1061
20.1106
20.1061
20.1012
20.1012
20.1012
20.1012
20.1007
20.1007
20.1007
20.1007
20.1046
20.1025
20.1046
20.1025
20.106
20.1106
20.1061
20.1106
20.0796
20.109
20.0796
20.1092
20.0865
20.0897
20.0866
20.0899
20.1088
20.0796
20.1089
20.0796
20.0895
20.0864
20.0896
20.0865
20.1025
20.1047
20.1025
20.1046
20.1105
20.106
20.1105
20.106
20.1014
20.1014
20.1013
20.1013
20.1008
20.1008
20.1007
20.1007
20.1047
20.1025
20.1046
20.1025
20.106
20.1105
20.106
20.1105
20.0796
20.1087
20.0796
20.1089
20.0864
20.0895
20.0865
20.0896
20.1086
20.0797
20.1087
20.0797
20.0894
20.0864
20.0894
20.0864
20.1026
20.1047
20.1025
20.1047
20.1104
20.106
20.1104
20.106
20.1015
20.1015
20.1014
20.1014
20.1008
20.1008
20.1008
20.1008
20.1047
20.1025
20.1047
20.1025
20.106
20.1104
20.106
20.1104
20.0797
20.1085
20.0797
20.1086
20.0864
20.0894
20.0864
20.0894
20.1085
20.0798
20.1085
20.0798
20.0894
20.0864
20.0894
20.0864
20.1026
20.1048
20.1026
20.1047
20.1103
20.106
20.1103
20.106
20.1016
20.1016
20.1016
20.1016
20.1009
20.1009
20.1009
20.1009
20.1048
20.1026
20.1047
20.1026
20.106
20.1103
20.106
20.1103
20.0798
20.1084
20.0798
20.1085
20.0864
20.0893
20.0864
20.0893
20.1085
20.08
20.1085
20.0799
20.0895
20.0865
20.0894
20.0864
20.1026
20.1049
20.1026
20.1048
20.1102
20.106
20.1102
20.106
20.1018
20.1018
20.1017
20.1017
20.1011
20.1011
20.101
20.101
20.1049
20.1026
20.1048
20.1026
20.106
20.1102
20.106
20.1102
20.08
20.1084
20.0799
20.1084
20.0865
20.0894
20.0865
20.0894
20.1085
20.0804
20.1085
20.0802
20.0897
20.0866
20.0895
20.0865
20.1027
20.105
20.1027
20.1049
20.1101
20.106
20.1101
20.106
20.1021
20.1021
20.102
20.102
20.1013
20.1013
20.1012
20.1012
20.105
20.1027
20.1049
20.1027
20.106
20.1101
20.106
20.1101
20.0804
20.1085
20.0802
20.1085
20.0866
20.0896
20.0865
20.0895
20.1087
20.0809
20.1086
20.0806
20.09
20.0867
20.0898
20.0866
20.1028
20.1052
20.1028
20.1051
20.11
20.1061
20.1101
20.106
20.1024
20.1024
20.1022
20.1022
20.1015
20.1015
20.1014
20.1014
20.1052
20.1028
20.1051
20.1028
20.1061
20.11
20.106
20.1101
20.0809
20.1087
20.0806
20.1086
20.0867
20.09
20.0866
20.0898
20.109
20.0814
20.1088
20.0811
20.0904
20.0868
20.0902
20.0868
20.103
20.1054
20.1029
20.1053
20.11
20.1062
20.11
20.1061
20.1027
20.1027
20.1025
20.1025
20.1018
20.1018
20.1016
20.1016
20.1054
20.103
20.1053
20.1029
20.1062
20.11
20.1061
20.11
20.0815
20.1089
20.0811
20.1088
20.0869
20.0904
20.0868
20.0902
20.1093
20.0821
20.1091
20.0818
20.091
20.087
20.0907
20.0869
20.1031
20.1057
20.103
20.1055
20.11
20.1064
20.11
20.1063
20.1032
20.1032
20.1029
20.1029
20.1022
20.1022
20.102
20.102
20.1057
20.1031
20.1055
20.103
20.1064
20.11
20.1063
20.11
20.0821
20.1093
20.0818
20.1091
20.087
20.091
20.0869
20.0907
20.1097
20.0823
20.1095
20.0822
20.0916
20.0875
20.0913
20.0872
20.1034
20.106
20.1033
20.1058
20.1101
20.1067
20.11
20.1065
20.1037
20.1037
20.1034
20.1034
20.1027
20.1026
20.1024
20.1024
20.106
20.1034
20.1058
20.1033
20.1067
20.1101
20.1065
20.11
20.0823
20.1097
20.0822
20.1095
20.0875
20.0916
20.0872
20.0913
20.1102
20.0826
20.11
20.0825
20.0924
20.088
20.092
20.0877
20.1037
20.1065
20.1035
20.1062
20.1101
20.107
20.1101
20.1068
20.1042
20.1042
20.1039
20.1039
20.1032
20.1032
20.1029
20.1029
20.1064
20.1037
20.1062
20.1035
20.107
20.1101
20.1068
20.1101
20.0827
20.1102
20.0825
20.11
20.088
20.0924
20.0878
20.092
20.1107
20.0831
20.1105
20.0828
20.0932
20.0885
20.0928
20.0883
20.104
20.107
20.1039
20.1067
20.1103
20.1074
20.1102
20.1072
20.1049
20.1049
20.1046
20.1046
20.1038
20.1038
20.1035
20.1035
20.107
20.104
20.1067
20.1039
20.1074
20.1103
20.1072
20.1102
20.0831
20.1107
20.0829
20.1105
20.0885
20.0932
20.0883
20.0928
20.1112
20.0836
20.111
20.0833
20.0941
20.089
20.0937
20.0888
20.1045
20.1075
20.1043
20.1072
20.1105
20.1079
20.1104
20.1077
20.1056
20.1056
20.1053
20.1053
20.1045
20.1045
20.1042
20.1042
20.1075
20.1045
20.1072
20.1043
20.1079
20.1105
20.1077
20.1104
20.0836
20.1112
20.0833
20.111
20.089
20.0941
20.0888
20.0936
20.1115
20.0843
20.1114
20.0839
20.095
20.0896
20.0946
20.0893
20.105
20.1082
20.1047
20.1078
20.1107
20.1085
20.1106
20.1082
20.1064
20.1064
20.106
20.106
20.1053
20.1053
20.1049
20.1049
20.1082
20.105
20.1078
20.1047
20.1085
20.1107
20.1082
20.1106
20.0843
20.1115
20.0839
20.1114
20.0896
20.095
20.0893
20.0946
20.1116
20.0852
20.1116
20.0847
20.0958
20.0903
20.0954
20.0899
20.1056
20.1089
20.1053
20.1085
20.1111
20.1092
20.1109
20.1088
20.1072
20.1072
20.1068
20.1068
20.1061
20.1061
20.1057
20.1057
20.1089
20.1056
20.1085
20.1053
20.1092
20.1111
20.1088
20.1109
20.0852
20.1115
20.0847
20.1116
20.0903
20.0958
20.0899
20.0954
20.111
20.0867
20.1114
20.0859
20.0963
20.0913
20.0961
20.0907
20.1063
20.1097
20.106
20.1093
20.1115
20.1099
20.1113
20.1095
20.1081
20.1081
20.1077
20.1077
20.107
20.107
20.1066
20.1066
20.1097
20.1063
20.1093
20.106
20.1099
20.1115
20.1095
20.1113
20.0867
20.111
20.0859
20.1114
20.0913
20.0963
20.0907
20.0961
20.1083
20.0901
20.1102
20.0879
20.0955
20.0935
20.0963
20.092
20.1071
20.1106
20.1067
20.1101
20.112
20.1108
20.1117
20.1103
20.109
20.109
20.1085
20.1085
20.1079
20.1079
20.1075
20.1075
20.1106
20.1071
20.1101
20.1067
20.1108
20.112
20.1103
20.1117
20.0901
20.1083
20.0879
20.1102
20.0935
20.0955
20.092
20.0963
20.114
20.0848
20.1058
20.093
20.1
20.0901
20.094
20.0957
20.1082
20.1118
20.1078
20.1112
20.1129
20.1119
20.1125
20.1113
20.1098
20.1098
20.1094
20.1094
20.1089
20.1089
20.1084
20.1084
20.1118
20.1082
20.1112
20.1078
20.1118
20.1129
20.1113
20.1125
20.0848
20.114
20.093
20.1058
20.0901
20.1
20.0957
20.094
20.1432
20.0688
20.1263
20.0799
20.1401
20.0703
20.1242
20.0811
20.0942
20.0998
20.0974
20.1
20.0953
20.0998
20.0978
20.0999
20.1001
20.1001
20.1001
20.1001
20.1
20.1
20.0999
20.0999
20.0998
20.0942
20.1
20.0974
20.0998
20.0953
20.0999
20.0978
20.0688
20.1432
20.0799
20.1263
20.0703
20.1401
20.0811
20.1242
20.1396
20.0786
20.1409
20.0743
20.1375
20.0783
20.1385
20.0748
20.0902
20.098
20.092
20.0991
20.0918
20.0986
20.0934
20.0994
20.0999
20.0999
20.1001
20.1001
20.0998
20.0998
20.1
20.1
20.098
20.0902
20.0991
20.0921
20.0986
20.0918
20.0994
20.0934
20.0786
20.1396
20.0743
20.1409
20.0783
20.1374
20.0748
20.1385
20.1374
20.0845
20.1385
20.0819
20.1354
20.0832
20.1365
20.081
20.089
20.0961
20.0893
20.0969
20.0909
20.0971
20.0911
20.0978
20.099
20.099
20.0995
20.0995
20.0991
20.0991
20.0996
20.0996
20.0961
20.089
20.0969
20.0893
20.0971
20.0909
20.0978
20.0911
20.0845
20.1374
20.0819
20.1385
20.0832
20.1354
20.081
20.1364
20.1355
20.0877
20.1364
20.0864
20.1334
20.0857
20.1343
20.0847
20.0893
20.095
20.089
20.0954
20.0914
20.0963
20.091
20.0966
20.0979
20.0979
20.0985
20.0985
20.0982
20.0982
20.0987
20.0987
20.095
20.0893
20.0954
20.089
20.0963
20.0914
20.0966
20.091
20.0877
20.1355
20.0864
20.1364
20.0857
20.1334
20.0847
20.1343
20.134
20.0893
20.1347
20.0887
20.1318
20.0868
20.1326
20.0864
20.0901
20.0946
20.0897
20.0948
20.0924
20.0962
20.0919
20.0962
20.0969
20.0969
20.0973
20.0973
20.0973
20.0973
20.0977
20.0977
20.0946
20.0901
20.0948
20.0897
20.0961
20.0924
20.0962
20.0919
20.0893
20.134
20.0887
20.1347
20.0868
20.1318
20.0864
20.1325
20.1328
20.0898
20.1334
20.0896
20.1304
20.087
20.1311
20.087
20.0909
20.0947
20.0905
20.0946
20.0933
20.0965
20.0929
20.0963
20.0962
20.0962
20.0965
20.0965
20.0968
20.0968
20.097
20.097
20.0947
20.0909
20.0946
20.0905
20.0964
20.0933
20.0963
20.0929
20.0898
20.1328
20.0896
20.1333
20.087
20.1304
20.087
20.1311
20.1317
20.0899
20.1322
20.0899
20.1292
20.0868
20.1298
20.0869
20.0915
20.095
20.0912
20.0948
20.0942
20.0969
20.0938
20.0967
20.0959
20.0959
20.096
20.096
20.0965
20.0965
20.0966
20.0966
20.095
20.0915
20.0948
20.0912
20.0969
20.0942
20.0967
20.0938
20.0899
20.1317
20.0899
20.1322
20.0868
20.1292
20.0869
20.1298
20.1307
20.0896
20.1312
20.0898
20.1281
20.0863
20.1287
20.0865
20.092
20.0954
20.0918
20.0952
20.0948
20.0975
20.0945
20.0972
20.0959
20.0959
20.0959
20.0959
20.0966
20.0966
20.0965
20.0965
20.0954
20.092
20.0952
20.0918
20.0975
20.0948
20.0972
20.0945
20.0896
20.1307
20.0898
20.1312
20.0863
20.1281
20.0865
20.1286
20.1298
20.0892
20.1303
20.0894
20.1271
20.0856
20.1276
20.086
20.0924
20.0958
20.0922
20.0956
20.0953
20.0981
20.0951
20.0978
20.0962
20.0962
20.096
20.096
20.0969
20.0969
20.0967
20.0967
20.0958
20.0924
20.0956
20.0922
20.0981
20.0953
20.0978
20.0951
20.0892
20.1298
20.0894
20.1302
20.0856
20.127
20.086
20.1275
20.1289
20.0887
20.1293
20.089
20.126
20.085
20.1265
20.0853
20.0926
20.0963
20.0925
20.0961
20.0957
20.0987
20.0955
20.0984
20.0965
20.0965
20.0963
20.0963
20.0972
20.0972
20.097
20.097
20.0963
20.0926
20.0961
20.0925
20.0987
20.0957
20.0984
20.0955
20.0887
20.1288
20.089
20.1293
20.085
20.126
20.0853
20.1265
20.128
20.0882
20.1284
20.0885
20.125
20.0844
20.1255
20.0847
20.0928
20.0968
20.0927
20.0965
20.096
20.0993
20.0959
20.099
20.097
20.097
20.0967
20.0967
20.0977
20.0977
20.0975
20.0975
20.0968
20.0928
20.0965
20.0927
20.0993
20.096
20.099
20.0959
20.0882
20.1279
20.0885
20.1284
20.0844
20.125
20.0847
20.1255
20.1271
20.0878
20.1275
20.088
20.1241
20.0838
20.1246
20.0841
20.0929
20.0972
20.0929
20.097
20.0962
20.0998
20.0961
20.0995
20.0974
20.0974
20.0972
20.0972
20.0982
20.0982
20.0979
20.0979
20.0972
20.0929
20.097
20.0929
20.0998
20.0962
20.0995
20.0961
20.0878
20.1271
20.088
20.1275
20.0838
20.1241
20.0841
20.1245
20.1262
20.0873
20.1267
20.0875
20.1232
20.0832
20.1236
20.0835
20.093
20.0976
20.093
20.0974
20.0963
20.1002
20.0962
20.1
20.0979
20.0979
20.0976
20.0976
20.0986
20.0986
20.0984
20.0984
20.0976
20.0931
20.0974
20.093
20.1002
20.0963
20.1
20.0962
20.0873
20.1262
20.0875
20.1266
20.0832
20.1231
20.0835
20.1236
20.1254
20.0869
20.1258
20.0871
20.1223
20.0827
20.1227
20.083
20.0931
20.098
20.0931
20.0978
20.0964
20.1007
20.0964
20.1005
20.0983
20.0983
20.0981
20.0981
20.0991
20.0991
20.0988
20.0988
20.098
20.0931
20.0978
20.0931
20.1006
20.0964
20.1005
20.0964
20.0869
20.1254
20.0871
20.1258
20.0828
20.1223
20.083
20.1227
20.1247
20.0865
20.125
20.0867
20.1215
20.0823
20.1219
20.0825
20.0932
20.0983
20.0932
20.0981
20.0965
20.101
20.0965
20.1008
20.0987
20.0987
20.0985
20.0985
20.0994
20.0994
20.0993
20.0993
20.0983
20.0932
20.0981
20.0932
20.101
20.0965
20.1008
20.0965
20.0865
20.1246
20.0867
20.125
20.0823
20.1214
20.0825
20.1218
20.1239
20.0861
20.1243
20.0863
20.1207
20.082
20.1211
20.0821