/*--------------------------------*- C++ -*----------------------------------*\
  =========                 |
  \\      /  F ield         | OpenFOAM: The Open Source CFD Toolbox
   \\    /   O peration     | Website:  https://openfoam.org
    \\  /    A nd           | Version:  9
     \\/     M anipulation  |
\*---------------------------------------------------------------------------*/
FoamFile
{
    format      ascii;
    class       volVectorField;
    location    "3.75";
    object      U;
}
// * * * * * * * * * * * * * * * * * * * * * * * * * * * * * * * * * * * * * //

dimensions      [0 1 -1 0 0 0 0];

internalField   nonuniform List<vector> 
36360
(
(0.004764 -0.126499 -0.496246)
(-0.00158047 -0.0901722 0.000236651)
(0.00530835 -0.131689 -0.49918)
(-0.00302613 -0.0827099 0.000154343)
(0.00418375 -0.149448 -0.500522)
(0.00352588 -0.066224 -2.26042e-05)
(0.0101639 -0.161897 -0.501678)
(0.00192264 -0.0656058 -1.01336e-05)
(0.00326006 -0.0951086 -0.000157741)
(0.00168832 -0.0991308 -8.26977e-06)
(0.00135649 -0.093742 -0.000111015)
(-0.000247797 -0.097725 -5.04082e-06)
(0.00627751 -0.0923086 3.50357e-05)
(0.00454917 -0.103848 -4.22422e-06)
(0.00677001 -0.0996098 3.09532e-06)
(0.00607443 -0.108742 -7.32076e-06)
(7.59731e-05 -0.101159 4.61461e-07)
(7.66957e-05 -0.10116 -4.60935e-07)
(-0.00185751 -0.0994044 -8.09671e-08)
(-0.00185652 -0.099406 7.99458e-08)
(0.00393333 -0.106216 -2.44897e-08)
(0.00393298 -0.106218 2.55459e-08)
(0.00610902 -0.109508 -1.92837e-06)
(0.00610852 -0.10951 1.92917e-06)
(0.00168845 -0.0991342 8.2762e-06)
(0.0032598 -0.0951123 0.000157743)
(-0.000247077 -0.0977287 5.04187e-06)
(0.00135626 -0.0937462 0.000111015)
(0.00454841 -0.103852 4.232e-06)
(0.00627663 -0.0923168 -3.49975e-05)
(0.00607376 -0.108746 7.32163e-06)
(0.00676951 -0.0996172 -3.08346e-06)
(-0.00157875 -0.0901726 -0.000236609)
(0.00476295 -0.126489 0.496248)
(-0.0030249 -0.0827113 -0.000154306)
(0.00530689 -0.131678 0.499181)
(0.00352665 -0.0662322 2.25491e-05)
(0.004182 -0.149426 0.500522)
(0.00192363 -0.0656157 1.01065e-05)
(0.010161 -0.161872 0.501678)
(0.00720452 -0.122893 -0.493826)
(-0.00585922 -0.0932013 0.000141304)
(0.00639499 -0.125772 -0.495096)
(-0.00379674 -0.0911827 0.000191774)
(0.00418481 -0.142345 -0.500514)
(-0.0033495 -0.0660817 -0.000199928)
(0.00361279 -0.14618 -0.50077)
(2.1078e-06 -0.063698 -0.000103252)
(0.0022398 -0.0949564 -5.85423e-05)
(0.00237982 -0.0988173 -5.81191e-06)
(0.00308914 -0.0948885 -0.000108567)
(0.00255846 -0.0991023 -8.27136e-06)
(0.00349265 -0.0836683 0.000221819)
(0.00275233 -0.096343 6.54522e-06)
(0.00508104 -0.0863194 0.000125148)
(0.00385698 -0.0992468 -6.59191e-07)
(0.00199595 -0.100804 -1.714e-06)
(0.00199589 -0.100805 1.72424e-06)
(0.00174309 -0.101203 -5.10703e-08)
(0.00174316 -0.101204 5.59375e-08)
(0.00243325 -0.100571 -1.33834e-06)
(0.00243301 -0.100572 1.34558e-06)
(0.00309335 -0.103093 -4.28825e-07)
(0.0030931 -0.103095 4.32512e-07)
(0.00237966 -0.09882 5.83406e-06)
(0.00224019 -0.0949592 5.85682e-05)
(0.00255824 -0.0991052 8.28498e-06)
(0.00308916 -0.0948918 0.000108583)
(0.00275179 -0.0963481 -6.51995e-06)
(0.00349255 -0.0836767 -0.00022171)
(0.00385615 -0.0992513 6.74484e-07)
(0.00508045 -0.086328 -0.000125076)
(-0.0058566 -0.0932005 -0.000141332)
(0.00720256 -0.122885 0.493829)
(-0.0037945 -0.0911825 -0.000191769)
(0.00639338 -0.125762 0.495098)
(-0.00334681 -0.0660869 0.000199751)
(0.00418226 -0.142325 0.500514)
(4.04739e-06 -0.0637049 0.000103141)
(0.00361063 -0.146159 0.500771)
(0.0079275 -0.118074 -0.491684)
(-0.0079604 -0.095492 1.64622e-05)
(0.00762756 -0.120267 -0.4927)
(-0.00715018 -0.0944854 8.20802e-05)
(0.00491727 -0.134019 -0.500106)
(-0.00600752 -0.0726123 -0.000414183)
(0.00459079 -0.138021 -0.500295)
(-0.00509961 -0.0692182 -0.000305141)
(0.000809159 -0.0946677 3.94038e-05)
(0.00146198 -0.097658 2.25173e-05)
(0.00142434 -0.0947615 -7.90858e-06)
(0.00191593 -0.0982334 5.33622e-06)
(0.00180438 -0.0811321 0.000408564)
(0.00127501 -0.0922719 3.94708e-05)
(0.00244299 -0.0818841 0.000318308)
(0.00184507 -0.0939438 2.04682e-05)
(0.00134314 -0.0995633 4.2845e-07)
(0.00134314 -0.0995642 -4.13952e-07)
(0.00171918 -0.100217 -1.50211e-06)
(0.00171913 -0.100217 1.51683e-06)
(0.00109675 -0.096804 9.90044e-07)
(0.0010967 -0.0968057 -9.78574e-07)
(0.00163345 -0.0983888 -8.40016e-07)
(0.00163332 -0.0983905 8.50752e-07)
(0.00146204 -0.0976602 -2.24755e-05)
(0.000809772 -0.0946696 -3.93634e-05)
(0.00191589 -0.0982358 -5.30203e-06)
(0.0014249 -0.0947639 7.94411e-06)
(0.00127499 -0.0922771 -3.94229e-05)
(0.0018046 -0.0811393 -0.00040839)
(0.00184485 -0.093949 -2.04309e-05)
(0.0024431 -0.081892 -0.000318164)
(-0.0079575 -0.0954904 -1.65612e-05)
(0.00792481 -0.118066 0.491689)
(-0.00714741 -0.0944842 -8.21424e-05)
(0.00762517 -0.12026 0.492704)
(-0.00600445 -0.0726145 0.000413859)
(0.00491442 -0.134002 0.500107)
(-0.00509672 -0.0692218 0.000304892)
(0.00458795 -0.138003 0.500295)
(0.00838003 -0.114566 -0.489817)
(-0.00885008 -0.0970982 -0.00012046)
(0.00817002 -0.116192 -0.490683)
(-0.00848514 -0.0963505 -5.19512e-05)
(0.00531625 -0.127048 -0.499762)
(-0.00691221 -0.0788948 -0.000629906)
(0.00513816 -0.130367 -0.499923)
(-0.00654804 -0.0758954 -0.000523297)
(0.00013477 -0.0949237 0.000115585)
(0.000850169 -0.0969058 6.6482e-05)
(0.00039487 -0.094734 8.08449e-05)
(0.00110875 -0.0972119 4.34855e-05)
(0.00120234 -0.0815294 0.000561042)
(0.000674413 -0.0904354 8.68725e-05)
(0.00141923 -0.0811253 0.000489683)
(0.000917366 -0.0911661 6.21036e-05)
(0.000820367 -0.0985243 8.32093e-06)
(0.000820398 -0.0985251 -8.33441e-06)
(0.00103942 -0.0989893 3.78542e-06)
(0.00103943 -0.0989901 -3.77529e-06)
(0.00061697 -0.0948409 8.38725e-06)
(0.000616974 -0.0948426 -8.3876e-06)
(0.000792977 -0.0956825 4.12547e-06)
(0.000792965 -0.0956842 -4.11729e-06)
(0.000850314 -0.0969074 -6.64456e-05)
(0.00013543 -0.0949249 -0.000115537)
(0.00110886 -0.0972138 -4.34381e-05)
(0.000395483 -0.0947355 -8.0804e-05)
(0.000674525 -0.0904401 -8.68281e-05)
(0.00120251 -0.081535 -0.000560838)
(0.000917435 -0.0911711 -6.2049e-05)
(0.0014194 -0.0811316 -0.000489487)
(-0.0088469 -0.0970961 0.00012029)
(0.00837683 -0.114559 0.489823)
(-0.00848212 -0.0963487 5.18132e-05)
(0.00816697 -0.116185 0.490688)
(-0.0069089 -0.0788951 0.000629434)
(0.00531312 -0.127034 0.499763)
(-0.00654484 -0.0758965 0.000522896)
(0.00513505 -0.130351 0.499924)
(0.00873375 -0.111927 -0.4882)
(-0.00933274 -0.0982989 -0.000251396)
(0.0085628 -0.113157 -0.488941)
(-0.00911856 -0.0977454 -0.000187503)
(0.00555343 -0.12139 -0.499459)
(-0.00732992 -0.0838516 -0.000829278)
(0.00543941 -0.124064 -0.499601)
(-0.00714591 -0.0815473 -0.000732208)
(-0.000147739 -0.0955573 0.000165509)
(0.000525369 -0.0966527 0.000113537)
(-3.39285e-05 -0.0952113 0.000143688)
(0.000662742 -0.0967283 9.02612e-05)
(0.00103326 -0.083099 0.000675365)
(0.000351279 -0.089727 0.000138202)
(0.00106891 -0.0822309 0.000622674)
(0.000493462 -0.0899801 0.000112511)
(0.000547454 -0.0979121 1.99997e-05)
(0.000547521 -0.0979127 -1.99828e-05)
(0.000663204 -0.0981708 1.37616e-05)
(0.000663246 -0.0981714 -1.38674e-05)
(0.000433704 -0.0936748 1.92457e-05)
(0.000433706 -0.0936765 -1.94385e-05)
(0.000507731 -0.0941888 1.35656e-05)
(0.000507786 -0.0941903 -1.35077e-05)
(0.000525628 -0.0966541 -0.000113399)
(-0.000147047 -0.0955578 -0.000165516)
(0.000662864 -0.0967298 -9.04086e-05)
(-3.33267e-05 -0.0952121 -0.000143463)
(0.00035159 -0.0897311 -0.00013804)
(0.00103307 -0.0831028 -0.000674929)
(0.000493547 -0.0899845 -0.000112591)
(0.00106914 -0.0822358 -0.000622545)
(-0.00932922 -0.0982967 0.000251135)
(0.00873014 -0.111922 0.488207)
(-0.00911524 -0.0977433 0.00018735)
(0.00855927 -0.113151 0.488948)
(-0.00732649 -0.0838507 0.000828579)
(0.00555012 -0.121377 0.499461)
(-0.00714257 -0.0815469 0.000731749)
(0.00543601 -0.124051 0.499602)
(0.00903447 -0.109898 -0.486801)
(-0.00965372 -0.0991612 -0.000368408)
(0.00888683 -0.110851 -0.48743)
(-0.00950553 -0.0987667 -0.00031167)
(0.00572284 -0.116857 -0.499195)
(-0.00759192 -0.0875108 -0.00100532)
(0.0056341 -0.118999 -0.499316)
(-0.00746275 -0.0858267 -0.000919636)
(-0.000239974 -0.0962824 0.000194288)
(0.000359409 -0.0967112 0.000156525)
(-0.000213926 -0.0959189 0.00018208)
(0.000426958 -0.0966535 0.000135522)
(0.00112675 -0.0850168 0.000756477)
(0.00015042 -0.0896409 0.00018763)
(0.00106909 -0.0840463 0.000719347)
(0.000239723 -0.0896253 0.000161944)
(0.000387072 -0.0976134 3.34037e-05)
(0.000387609 -0.0976139 -3.31802e-05)
(0.000458698 -0.0977312 2.66464e-05)
(0.000458489 -0.0977318 -2.65153e-05)
(0.000326233 -0.0929441 3.19085e-05)
(0.000326801 -0.0929453 -3.20228e-05)
(0.00037628 -0.0932666 2.59721e-05)
(0.000376059 -0.0932676 -2.51705e-05)
(0.000359215 -0.0967122 -0.000156047)
(-0.000239969 -0.0962825 -0.000194058)
(0.000427149 -0.0966546 -0.00013555)
(-0.000212809 -0.0959192 -0.000182126)
(0.000150342 -0.0896443 -0.000184371)
(0.00112581 -0.0850201 -0.000756289)
(0.000239983 -0.0896295 -0.000163601)
(0.00106912 -0.0840505 -0.000719393)
(-0.00965022 -0.099159 0.000367985)
(0.00903034 -0.109894 0.486808)
(-0.00950175 -0.0987647 0.000311485)
(0.00888294 -0.110845 0.487438)
(-0.00758854 -0.0875096 0.00100323)
(0.00571928 -0.116847 0.499195)
(-0.00745915 -0.0858259 0.000919858)
(0.00563054 -0.118988 0.499318)
(0.00929376 -0.108296 -0.485587)
(-0.00989482 -0.0997664 -0.000469814)
(0.00916619 -0.109053 -0.486121)
(-0.00977952 -0.0994908 -0.000421011)
(0.0058597 -0.113208 -0.498961)
(-0.00780401 -0.0901467 -0.00115449)
(0.00578414 -0.114937 -0.499067)
(-0.00769221 -0.0889375 -0.00108253)
(-0.000203979 -0.0969779 0.000207756)
(0.000292944 -0.0969354 0.000192725)
(-0.000233314 -0.096638 0.000202532)
(0.000316734 -0.0968097 0.000175436)
(0.0012626 -0.0868826 0.000812421)
(2.48506e-05 -0.0899044 0.000226997)
(0.00119429 -0.0859694 0.000787246)
(7.99891e-05 -0.0897413 0.000207252)
(0.000282229 -0.0975203 4.62874e-05)
(0.000282309 -0.0975207 -4.61716e-05)
(0.000329716 -0.0975468 3.99709e-05)
(0.000329667 -0.0975472 -3.98109e-05)
(0.000241558 -0.0925071 4.449e-05)
(0.000241641 -0.0925082 -4.43638e-05)
(0.000281792 -0.0926939 3.84932e-05)
(0.000281751 -0.0926955 -3.81173e-05)
(0.000293074 -0.096936 -0.000192555)
(-0.000203334 -0.0969776 -0.000207691)
(0.00031692 -0.0968104 -0.000175274)
(-0.000232577 -0.0966378 -0.000202431)
(2.51276e-05 -0.0899071 -0.0002268)
(0.00126214 -0.0868847 -0.000812086)
(8.03014e-05 -0.089744 -0.000207602)
(0.00119396 -0.0859712 -0.000786774)
(-0.00989071 -0.0997642 0.000469477)
(0.00928952 -0.108292 0.485596)
(-0.00977559 -0.0994885 0.000420734)
(0.0091619 -0.109049 0.48613)
(-0.0078002 -0.0901449 0.00115369)
(0.00585613 -0.113199 0.498962)
(-0.00768852 -0.0889356 0.00108206)
(0.00578036 -0.114927 0.499068)
(0.00951692 -0.106993 -0.484538)
(-0.0100803 -0.100179 -0.000555928)
(0.0094066 -0.107614 -0.484992)
(-0.00999214 -0.0999939 -0.000514701)
(0.0059743 -0.110231 -0.498759)
(-0.00798515 -0.0920343 -0.00128016)
(0.00590873 -0.111647 -0.49885)
(-0.00788897 -0.0911694 -0.00122018)
(-0.000108034 -0.0975873 0.000211318)
(0.00028485 -0.097228 0.000221688)
(-0.000159272 -0.0972952 0.000210517)
(0.000283758 -0.0970775 0.00020811)
(0.00139619 -0.0885356 0.000849619)
(-4.71883e-05 -0.0903415 0.00025985)
(0.00133262 -0.0877395 0.000832969)
(-1.65887e-05 -0.0901087 0.00024442)
(0.000212932 -0.0975512 5.76757e-05)
(0.000213009 -0.0975514 -5.7566e-05)
(0.000243719 -0.0975243 5.22162e-05)
(0.000243799 -0.0975246 -5.21089e-05)
(0.000173636 -0.0922845 5.56178e-05)
(0.000173728 -0.0922854 -5.55068e-05)
(0.000205812 -0.0923727 5.02614e-05)
(0.0002059 -0.0923738 -5.01497e-05)
(0.000284946 -0.0972283 -0.000221521)
(-0.00010741 -0.0975868 -0.000211284)
(0.000283874 -0.0970779 -0.000207943)
(-0.000158642 -0.0972948 -0.000210471)
(-4.69107e-05 -0.0903436 -0.000259653)
(0.00139561 -0.0885369 -0.000849285)
(-1.63073e-05 -0.0901111 -0.000244229)
(0.0013321 -0.0877412 -0.000832634)
(-0.0100759 -0.100177 0.000555533)
(0.00951246 -0.10699 0.484548)
(-0.00998792 -0.0999917 0.000514332)
(0.00940208 -0.10761 0.485002)
(-0.00798116 -0.0920324 0.00127925)
(0.00597064 -0.110223 0.49876)
(-0.0078851 -0.0911676 0.00121932)
(0.00590484 -0.111639 0.498851)
(0.00970782 -0.1059 -0.483624)
(-0.0102176 -0.100439 -0.000627963)
(0.0096129 -0.106426 -0.484007)
(-0.0101522 -0.100326 -0.000593557)
(0.00606884 -0.107762 -0.498583)
(-0.00813205 -0.093371 -0.00138405)
(0.00601197 -0.108942 -0.49866)
(-0.00805202 -0.0927611 -0.00133461)
(8.24585e-06 -0.098088 0.000208727)
(0.000310523 -0.0975283 0.000243623)
(-5.03067e-05 -0.0978515 0.000210606)
(0.000294717 -0.0973798 0.000233458)
(0.00150903 -0.0899309 0.000873362)
(-7.9911e-05 -0.0908418 0.000284983)
(0.00145713 -0.089265 0.000862873)
(-6.73724e-05 -0.0905882 0.000273322)
(0.00017283 -0.0976479 6.69584e-05)
(0.000172891 -0.097648 -6.68363e-05)
(0.000189572 -0.097594 6.25845e-05)
(0.000189642 -0.0975941 -6.24694e-05)
(0.000117821 -0.0922123 6.48886e-05)
(0.000117912 -0.092213 -6.47651e-05)
(0.000144615 -0.0922329 6.04991e-05)
(0.000144708 -0.0922337 -6.03829e-05)
(0.000310568 -0.0975283 -0.000243447)
(8.84228e-06 -0.0980873 -0.000208707)
(0.000294788 -0.0973799 -0.000233287)
(-4.96985e-05 -0.0978509 -0.00021058)
(-7.96583e-05 -0.0908432 -0.000284771)
(0.00150834 -0.0899316 -0.000873024)
(-6.7108e-05 -0.09059 -0.000273118)
(0.00145648 -0.089266 -0.000862538)
(-0.010213 -0.100437 0.00062753)
(0.00970315 -0.105897 0.483636)
(-0.0101477 -0.100324 0.000593142)
(0.00960815 -0.106422 0.484018)
(-0.00812788 -0.093369 0.00138306)
(0.00606509 -0.107755 0.498584)
(-0.00804797 -0.0927592 0.00133366)
(0.00600795 -0.108934 0.498662)
(0.00987024 -0.104951 -0.482832)
(-0.0103165 -0.100572 -0.000687645)
(0.00978923 -0.105411 -0.483157)
(-0.0102687 -0.10052 -0.000659626)
(0.00614634 -0.105673 -0.49843)
(-0.00824538 -0.0942965 -0.001469)
(0.00609751 -0.106677 -0.498497)
(-0.00818185 -0.0938778 -0.00142873)
(0.000122267 -0.0984813 0.000202606)
(0.000355436 -0.0977999 0.000259477)
(6.86299e-05 -0.098298 0.000206019)
(0.000331715 -0.0976694 0.000252661)
(0.00161313 -0.0910735 0.000887576)
(-8.40976e-05 -0.0913364 0.000303309)
(0.00156067 -0.0905325 0.000881433)
(-8.47907e-05 -0.0910924 0.00029496)
(0.000158919 -0.0977683 7.41594e-05)
(0.000158959 -0.0977684 -7.40257e-05)
(0.000162909 -0.0977076 7.0862e-05)
(0.00016296 -0.0977077 -7.07273e-05)
(8.049e-05 -0.0922361 7.21729e-05)
(8.05695e-05 -0.0922365 -7.20374e-05)
(9.67922e-05 -0.0922145 6.87871e-05)
(9.68771e-05 -0.0922151 -6.86539e-05)
(0.00035541 -0.0977998 -0.000259288)
(0.000122724 -0.0984806 -0.000202596)
(0.000331723 -0.0976693 -0.000252456)
(6.91692e-05 -0.0982972 -0.000206002)
(-8.38643e-05 -0.0913373 -0.000303085)
(0.00161256 -0.0910738 -0.000887232)
(-8.45485e-05 -0.0910935 -0.000294739)
(0.00156002 -0.090533 -0.000881092)
(-0.0103117 -0.10057 0.000687179)
(0.0098654 -0.104948 0.482843)
(-0.0102641 -0.100518 0.000659156)
(0.00978427 -0.105408 0.483169)
(-0.00824104 -0.0942945 0.00146794)
(0.0061425 -0.105666 0.498433)
(-0.00817763 -0.0938758 0.0014277)
(0.00609338 -0.10667 0.498499)
(0.0100073 -0.104097 -0.482138)
(-0.0103863 -0.100595 -0.000736242)
(0.00993809 -0.104515 -0.482408)
(-0.0103523 -0.100596 -0.000713146)
(0.00620763 -0.103868 -0.498298)
(-0.00832603 -0.094909 -0.00153764)
(0.00616562 -0.10474 -0.498354)
(-0.00827756 -0.0946364 -0.00150515)
(0.000215999 -0.0987619 0.000194698)
(0.000410132 -0.0980166 0.000269835)
(0.000173075 -0.0986356 0.000198798)
(0.000382188 -0.0979162 0.000265226)
(0.00173345 -0.0919723 0.000895094)
(-6.80122e-05 -0.0917815 0.000315928)
(0.00167173 -0.0915523 0.000892003)
(-7.78558e-05 -0.0915665 0.000310245)
(0.000167741 -0.0978769 7.94475e-05)
(0.000167761 -0.0978769 -7.93064e-05)
(0.000160799 -0.0978257 7.70092e-05)
(0.000160829 -0.0978257 -7.68723e-05)
(5.83696e-05 -0.0923111 7.76254e-05)
(5.84406e-05 -0.0923114 -7.74823e-05)
(6.80058e-05 -0.0922692 7.51083e-05)
(6.80807e-05 -0.0922696 -7.49693e-05)
(0.000410033 -0.0980163 -0.000269635)
(0.000216239 -0.0987611 -0.000194697)
(0.00038213 -0.097916 -0.000265034)
(0.000173446 -0.0986348 -0.000198793)
(-6.779e-05 -0.0917819 -0.000315694)
(0.00173314 -0.0919721 -0.000894746)
(-7.76292e-05 -0.0915671 -0.000310016)
(0.00167126 -0.0915523 -0.000891658)
(-0.0103813 -0.100594 0.000735749)
(0.0100023 -0.104094 0.48215)
(-0.0103475 -0.100595 0.000712668)
(0.00993297 -0.104512 0.482421)
(-0.00832153 -0.0949069 0.00153654)
(0.00620371 -0.103862 0.498301)
(-0.00827317 -0.0946344 0.00150407)
(0.00616138 -0.104733 0.498356)
(0.0101248 -0.103299 -0.481527)
(-0.0104269 -0.100517 -0.000775353)
(0.0100646 -0.103693 -0.481758)
(-0.0104082 -0.100568 -0.000756753)
(0.00625539 -0.102273 -0.498184)
(-0.00837645 -0.0952776 -0.00159256)
(0.00621964 -0.103048 -0.498231)
(-0.00834254 -0.0951202 -0.00156663)
(0.000292674 -0.0989185 0.000186148)
(0.000472135 -0.0981588 0.000275746)
(0.000255179 -0.0988563 0.000190465)
(0.000440158 -0.0980979 0.000273179)
(0.00185597 -0.0926388 0.00089794)
(-3.92892e-05 -0.0921504 0.000324039)
(0.00179946 -0.0923327 0.000896976)
(-5.45376e-05 -0.0919761 0.000320463)
(0.0001964 -0.0979479 8.31188e-05)
(0.000196406 -0.0979478 -8.29704e-05)
(0.000179755 -0.0979184 8.14576e-05)
(0.000179767 -0.0979183 -8.13127e-05)
(4.71531e-05 -0.0923985 8.15204e-05)
(4.72211e-05 -0.0923986 -8.13699e-05)
(5.15384e-05 -0.0923549 7.97488e-05)
(5.16072e-05 -0.0923551 -7.96019e-05)
(0.000472014 -0.0981583 -0.000275543)
(0.000292948 -0.0989174 -0.000186153)
(0.000440044 -0.0980975 -0.000272977)
(0.000255416 -0.0988552 -0.000190467)
(-3.90927e-05 -0.0921505 -0.000323798)
(0.00185555 -0.0926382 -0.000897589)
(-5.43301e-05 -0.0919764 -0.000320225)
(0.0017991 -0.0923322 -0.000896627)
(-0.0104217 -0.100515 0.000774845)
(0.0101197 -0.103296 0.48154)
(-0.0104032 -0.100567 0.000756252)
(0.0100594 -0.10369 0.481771)
(-0.00837182 -0.0952756 0.00159141)
(0.00625141 -0.102267 0.498186)
(-0.00833802 -0.0951182 0.0015655)
(0.00621531 -0.103042 0.498233)
(0.0102285 -0.102525 -0.480984)
(-0.0104352 -0.10034 -0.000807034)
(0.0101743 -0.102911 -0.481176)
(-0.0104324 -0.10044 -0.000791964)
(0.00629179 -0.10083 -0.498084)
(-0.00839772 -0.0954449 -0.00163599)
(0.00626038 -0.101536 -0.498123)
(-0.00837762 -0.0953841 -0.00161554)
(0.000373416 -0.0989546 0.000177636)
(0.000543826 -0.0982137 0.000278825)
(0.000333184 -0.0989509 0.000181869)
(0.00050698 -0.0981977 0.000277552)
(0.00195719 -0.093098 0.00089755)
(-3.1455e-06 -0.0924247 0.000328764)
(0.00191055 -0.0928923 0.000898051)
(-2.16683e-05 -0.0922998 0.000326756)
(0.000243079 -0.0979603 8.54726e-05)
(0.000243074 -0.0979601 -8.53186e-05)
(0.000217644 -0.0979625 8.44283e-05)
(0.000217645 -0.0979623 -8.42768e-05)
(4.57958e-05 -0.0924649 8.4131e-05)
(4.58612e-05 -0.0924648 -8.39747e-05)
(4.53343e-05 -0.0924356 8.29666e-05)
(4.54009e-05 -0.0924357 -8.28129e-05)
(0.000543696 -0.0982131 -0.000278619)
(0.000373748 -0.0989534 -0.000177646)
(0.000506853 -0.0981971 -0.000277347)
(0.000333484 -0.0989497 -0.000181877)
(-2.97526e-06 -0.0924244 -0.000328518)
(0.00195668 -0.0930969 -0.000897195)
(-2.14858e-05 -0.0922997 -0.000326512)
(0.00191007 -0.0928915 -0.000897698)
(-0.0104299 -0.100338 0.000806515)
(0.0102233 -0.102523 0.480997)
(-0.0104272 -0.100439 0.00079145)
(0.0101689 -0.102908 0.481189)
(-0.00839298 -0.0954428 0.00163482)
(0.00628776 -0.100825 0.498086)
(-0.00837297 -0.095382 0.00161437)
(0.00625598 -0.101531 0.498126)
(0.0103241 -0.101749 -0.480502)
(-0.0104139 -0.100063 -0.000832486)
(0.0102732 -0.102139 -0.48066)
(-0.0104255 -0.100214 -0.000820388)
(0.00632 -0.0994853 -0.497997)
(-0.00839276 -0.0954423 -0.00166755)
(0.00629148 -0.100149 -0.49803)
(-0.00838471 -0.095461 -0.00165241)
(0.000460915 -0.0988733 0.000169537)
(0.000625469 -0.0981705 0.000279848)
(0.000417056 -0.0989287 0.000173523)
(0.000583539 -0.0982049 0.000279517)
(0.00204387 -0.0933695 0.00089492)
(3.76745e-05 -0.0925908 0.000330988)
(0.00200365 -0.0932556 0.000896447)
(1.697e-05 -0.0925214 0.000330131)
(0.000306419 -0.0978958 8.68248e-05)
(0.000306406 -0.0978956 -8.6667e-05)
(0.000272749 -0.0979386 8.62432e-05)
(0.00027274 -0.0979384 -8.60871e-05)
(5.3529e-05 -0.092482 8.56616e-05)
(5.35889e-05 -0.0924819 -8.55018e-05)
(4.87034e-05 -0.0924806 8.50392e-05)
(4.87671e-05 -0.0924805 -8.48806e-05)
(0.000625331 -0.0981698 -0.000279641)
(0.000461297 -0.098872 -0.000169551)
(0.000583403 -0.0982042 -0.00027931)
(0.00041741 -0.0989275 -0.000173535)
(3.78179e-05 -0.0925902 -0.000330738)
(0.0020433 -0.0933681 -0.000894562)
(1.71254e-05 -0.0925209 -0.000329883)
(0.00200309 -0.0932544 -0.00089609)
(-0.0104084 -0.100061 0.000831959)
(0.0103189 -0.101746 0.480516)
(-0.0104201 -0.100212 0.000819866)
(0.0102677 -0.102137 0.480674)
(-0.00838796 -0.09544 0.00166635)
(0.00631592 -0.0994805 0.498)
(-0.00837996 -0.0954587 0.00165122)
(0.00628703 -0.100144 0.498032)
(0.0104172 -0.100945 -0.480057)
(-0.0103635 -0.0996813 -0.000852645)
(0.0103669 -0.101352 -0.480195)
(-0.0103895 -0.0998855 -0.000843077)
(0.00634352 -0.0981993 -0.497919)
(-0.0083716 -0.0952782 -0.00169562)
(0.00631672 -0.0988364 -0.497947)
(-0.00837181 -0.095382 -0.00168287)
(0.000558564 -0.0986707 0.000162127)
(0.000718419 -0.0980182 0.000279392)
(0.000509161 -0.0987874 0.000165752)
(0.000670702 -0.0981086 0.000279738)
(0.00212271 -0.0934652 0.000890738)
(8.29475e-05 -0.0926369 0.000331265)
(0.00208574 -0.0934385 0.000892951)
(5.99675e-05 -0.0926293 0.000331373)
(0.000386665 -0.0977373 8.74259e-05)
(0.000386644 -0.097737 -8.72659e-05)
(0.000344478 -0.0978292 8.71938e-05)
(0.000344462 -0.0978289 -8.70348e-05)
(7.1127e-05 -0.0924261 8.65432e-05)
(7.11845e-05 -0.0924258 -8.63807e-05)
(6.094e-05 -0.0924647 8.61464e-05)
(6.10009e-05 -0.0924645 -8.59854e-05)
(0.000718274 -0.0980173 -0.000279184)
(0.000558991 -0.0986693 -0.000162144)
(0.00067056 -0.0981078 -0.000279531)
(0.000509562 -0.098786 -0.000165768)
(8.30637e-05 -0.092636 -0.000331014)
(0.00212209 -0.0934635 -0.000890378)
(6.0098e-05 -0.0926285 -0.000331123)
(0.00208514 -0.0934369 -0.000892592)
(-0.010358 -0.0996795 0.000852112)
(0.0104119 -0.100942 0.480072)
(-0.0103841 -0.0998838 0.000842548)
(0.0103614 -0.101349 0.48021)
(-0.00836672 -0.0952757 0.00169441)
(0.00633942 -0.0981948 0.497922)
(-0.008367 -0.0953796 0.00168166)
(0.00631221 -0.0988318 0.49795)
(0.0105113 -0.100089 -0.479654)
(-0.0102857 -0.0991865 -0.000868347)
(0.0104601 -0.100525 -0.47977)
(-0.0103253 -0.0994487 -0.000860912)
(0.00636377 -0.0969365 -0.49785)
(-0.00832592 -0.0949591 -0.00171464)
(0.00633901 -0.0975671 -0.497873)
(-0.00833782 -0.0951374 -0.00170586)
(0.000666245 -0.0983393 0.000155495)
(0.000823411 -0.0977447 0.000277888)
(0.000612719 -0.0985217 0.000158723)
(0.000769613 -0.0978973 0.000278715)
(0.00219664 -0.0933905 0.000885566)
(0.00013262 -0.0925538 0.000330436)
(0.00216152 -0.093449 0.000888213)
(0.000106438 -0.0926126 0.000330918)
(0.000483946 -0.0974686 8.74786e-05)
(0.000483916 -0.0974683 -8.73177e-05)
(0.000433114 -0.0976176 8.74954e-05)
(0.000433089 -0.0976173 -8.73348e-05)
(9.94036e-05 -0.0922743 8.67857e-05)
(9.94603e-05 -0.0922739 -8.66222e-05)
(8.36905e-05 -0.092363 8.67281e-05)
(8.37471e-05 -0.0923627 -8.65649e-05)
(0.000823236 -0.0977437 -0.00027768)
(0.00066656 -0.0983378 -0.000155514)
(0.00076946 -0.0978964 -0.000278508)
(0.000613132 -0.0985203 -0.000158741)
(0.00013273 -0.0925526 -0.000330186)
(0.00219599 -0.0933884 -0.000885206)
(0.000106551 -0.0926116 -0.000330667)
(0.00216087 -0.0934472 -0.000887854)
(-0.0102802 -0.0991847 0.00086781)
(0.0105059 -0.100087 0.479669)
(-0.0103198 -0.0994469 0.000860378)
(0.0104546 -0.100522 0.479785)
(-0.00832099 -0.0949564 0.00171341)
(0.00635965 -0.0969323 0.497853)
(-0.00833296 -0.0951349 0.00170463)
(0.00633446 -0.0975627 0.497876)
(0.0106126 -0.0991582 -0.47928)
(-0.0101832 -0.0985664 -0.000880145)
(0.0105572 -0.099635 -0.479379)
(-0.0102351 -0.0988927 -0.000874588)
(0.00638593 -0.0956576 -0.497788)
(-0.00825913 -0.0944893 -0.00172797)
(0.00635948 -0.0963013 -0.497808)
(-0.00827992 -0.0947425 -0.00172191)
(0.000771623 -0.09787 0.000149668)
(0.000940419 -0.0973369 0.000275635)
(0.000718181 -0.0981222 0.0001525)
(0.000880145 -0.0975583 0.000276797)
(0.00226952 -0.0931511 0.000879826)
(0.000189196 -0.0923294 0.000328568)
(0.00223487 -0.0932904 0.000882734)
(0.000160419 -0.0924594 0.000329597)
(0.000599727 -0.0970726 8.71261e-05)
(0.000599692 -0.0970722 -8.69659e-05)
(0.000539406 -0.0972875 8.73299e-05)
(0.000539374 -0.0972872 -8.71692e-05)
(0.000141138 -0.0920057 8.65766e-05)
(0.000141191 -0.0920053 -8.64137e-05)
(0.0001186 -0.0921552 8.67273e-05)
(0.000118655 -0.0921548 -8.65639e-05)
(0.000940239 -0.0973358 -0.000275428)
(0.000771987 -0.0978684 -0.000149689)
(0.000879965 -0.0975573 -0.00027659)
(0.00071851 -0.0981207 -0.000152519)
(0.000189291 -0.092328 -0.000328317)
(0.00226885 -0.0931488 -0.000879465)
(0.000160523 -0.0924581 -0.000329346)
(0.0022342 -0.0932883 -0.000882373)
(-0.0101776 -0.0985646 0.000879606)
(0.0106073 -0.099156 0.479295)
(-0.0102295 -0.0988908 0.00087405)
(0.0105516 -0.0996328 0.479395)
(-0.00825419 -0.0944865 0.00172673)
(0.00638178 -0.0956537 0.49779)
(-0.00827502 -0.0947397 0.00172068)
(0.00635493 -0.0962973 0.49781)
(0.0107248 -0.0981269 -0.478929)
(-0.0100517 -0.0978081 -0.00088866)
(0.0106631 -0.0986564 -0.479014)
(-0.0101183 -0.0982055 -0.000884672)
(0.00640978 -0.0943297 -0.497731)
(-0.00817323 -0.0938655 -0.00173643)
(0.00638114 -0.0950017 -0.497748)
(-0.00820327 -0.0941969 -0.00173271)
(0.000895824 -0.0972513 0.000144663)
(0.00107491 -0.0967795 0.000272887)
(0.00083196 -0.0975801 0.000147077)
(0.00100547 -0.0970777 0.000274276)
(0.0023438 -0.0927455 0.000873722)
(0.000251264 -0.0919513 0.000326007)
(0.00230835 -0.0929692 0.000876779)
(0.000219666 -0.0921599 0.000327353)
(0.000735611 -0.0965304 8.64797e-05)
(0.000735571 -0.09653 -8.63209e-05)
(0.000665091 -0.0968207 8.68224e-05)
(0.000665054 -0.0968203 -8.66628e-05)
(0.000192333 -0.0916007 8.60419e-05)
(0.000192382 -0.0916002 -8.58805e-05)
(0.000165763 -0.091821 8.63414e-05)
(0.000165814 -0.0918205 -8.61791e-05)
(0.00107472 -0.0967784 -0.000272684)
(0.00089622 -0.0972496 -0.000144685)
(0.00100529 -0.0970766 -0.000274071)
(0.000832342 -0.0975785 -0.000147098)
(0.00025134 -0.0919497 -0.000325758)
(0.00234309 -0.092743 -0.000873362)
(0.00021975 -0.0921584 -0.000327103)
(0.00230766 -0.0929668 -0.000876418)
(-0.0100461 -0.0978062 0.000888122)
(0.0107194 -0.0981248 0.478944)
(-0.0101127 -0.0982037 0.000884134)
(0.0106576 -0.0986543 0.47903)
(-0.00816829 -0.0938624 0.00173519)
(0.00640563 -0.094326 0.497734)
(-0.00819837 -0.094194 0.00173147)
(0.00637657 -0.0949979 0.49775)
(0.0108526 -0.096971 -0.478592)
(-0.00989091 -0.0968958 -0.000894281)
(0.0107826 -0.097566 -0.478665)
(-0.00997218 -0.0973721 -0.000891684)
(0.00643814 -0.0929194 -0.497679)
(-0.00806995 -0.0930791 -0.00174068)
(0.00640653 -0.0936365 -0.497692)
(-0.00810816 -0.093493 -0.00173899)
(0.0010413 -0.0964685 0.000140434)
(0.00122952 -0.0960567 0.000269775)
(0.000966773 -0.0968812 0.000142469)
(0.00114974 -0.0964396 0.000271329)
(0.00241961 -0.092164 0.000867432)
(0.000319616 -0.091405 0.000322926)
(0.0023833 -0.0924769 0.000870565)
(0.000284776 -0.0916996 0.000324516)
(0.000893318 -0.0958247 8.56032e-05)
(0.000893274 -0.0958243 -8.54466e-05)
(0.000811612 -0.096199 8.60517e-05)
(0.00081157 -0.0961986 -8.58939e-05)
(0.000251859 -0.0910378 8.5265e-05)
(0.000251904 -0.0910372 -8.51061e-05)
(0.000220942 -0.0913397 8.56783e-05)
(0.000220988 -0.0913392 -8.5518e-05)
(0.00122933 -0.0960554 -0.000269574)
(0.00104171 -0.0964668 -0.000140456)
(0.00114955 -0.0964385 -0.000271126)
(0.00096717 -0.0968795 -0.000142491)
(0.000319676 -0.0914032 -0.00032268)
(0.00241887 -0.0921612 -0.000867073)
(0.000284843 -0.0916979 -0.000324268)
(0.00238258 -0.0924743 -0.000870205)
(-0.00988529 -0.0968939 0.000893746)
(0.0108472 -0.096969 0.478608)
(-0.00996658 -0.0973702 0.000891148)
(0.010777 -0.0975639 0.478681)
(-0.00806503 -0.0930759 0.00173944)
(0.00643399 -0.092916 0.497681)
(-0.00810328 -0.0934898 0.00173775)
(0.00640196 -0.093633 0.497695)
(0.0110001 -0.0956654 -0.478272)
(-0.00969984 -0.0958119 -0.000897339)
(0.0109199 -0.0963384 -0.478336)
(-0.00979643 -0.0963763 -0.000895985)
(0.0064737 -0.0913939 -0.49763)
(-0.00794987 -0.0921191 -0.00174123)
(0.00643835 -0.0921728 -0.497642)
(-0.00799655 -0.0926213 -0.00174133)
(0.00120917 -0.0955053 0.000136912)
(0.00140662 -0.0951505 0.000266383)
(0.00112318 -0.0960104 0.000138603)
(0.00131527 -0.0956275 0.00026807)
(0.00249864 -0.0913957 0.000861053)
(0.000395301 -0.090674 0.000319428)
(0.0024604 -0.0918035 0.000864222)
(0.000356585 -0.0910631 0.000321216)
(0.00107513 -0.0949358 8.45471e-05)
(0.00107508 -0.0949353 -8.43938e-05)
(0.000981064 -0.0954042 8.50811e-05)
(0.000981019 -0.0954038 -8.49261e-05)
(0.000321084 -0.0902952 8.42911e-05)
(0.000321126 -0.0902945 -8.41357e-05)
(0.000285111 -0.0906897 8.47987e-05)
(0.000285155 -0.090689 -8.46415e-05)
(0.00140642 -0.0951492 -0.000266185)
(0.00120957 -0.0955034 -0.000136935)
(0.00131508 -0.0956262 -0.00026787)
(0.00112358 -0.0960086 -0.000138625)
(0.000395349 -0.090672 -0.000319185)
(0.00249789 -0.0913927 -0.000860696)
(0.000356638 -0.0910612 -0.000320972)
(0.00245965 -0.0918006 -0.000863865)
(-0.00969425 -0.0958099 0.000896807)
(0.0109947 -0.0956634 0.478288)
(-0.00979084 -0.0963743 0.000895452)
(0.0109143 -0.0963364 0.478352)
(-0.00794499 -0.0921157 0.00174)
(0.00646956 -0.0913908 0.497633)
(-0.0079917 -0.0926179 0.0017401)
(0.00643378 -0.0921695 0.497645)
(0.0111705 -0.0941842 -0.477962)
(-0.00947733 -0.0945375 -0.000898089)
(0.0110784 -0.0949481 -0.478017)
(-0.00958977 -0.0951996 -0.000897852)
(0.0065179 -0.0897204 -0.497584)
(-0.00781261 -0.090972 -0.00173851)
(0.00647776 -0.0905773 -0.497594)
(-0.00786764 -0.0915695 -0.00174021)
(0.00140142 -0.0943436 0.000134022)
(0.00160862 -0.0940419 0.000262751)
(0.00130297 -0.0949502 0.000135406)
(0.00150451 -0.0946226 0.000264554)
(0.00258281 -0.0904274 0.000854626)
(0.000479634 -0.0897404 0.000315571)
(0.0025418 -0.090937 0.000857817)
(0.000436419 -0.0902332 0.000317534)
(0.00128338 -0.0938431 8.33364e-05)
(0.00128333 -0.0938426 -8.31869e-05)