/*--------------------------------*- C++ -*----------------------------------*\
  =========                 |
  \\      /  F ield         | OpenFOAM: The Open Source CFD Toolbox
   \\    /   O peration     | Website:  https://openfoam.org
    \\  /    A nd           | Version:  9
     \\/     M anipulation  |
\*---------------------------------------------------------------------------*/
FoamFile
{
    format      ascii;
    class       volScalarField;
    location    "2.1";
    object      epsilon;
}
// * * * * * * * * * * * * * * * * * * * * * * * * * * * * * * * * * * * * * //

dimensions      [0 2 -3 0 0 0 0];

internalField   nonuniform List<scalar> 
36360
(
1.49568
1.30426
0.21097
0.357767
0.22206
0.255767
0.0117215
0.0185731
0.303612
0.044889
0.0315132
0.00660984
0.037434
0.00739813
0.00703948
0.00589735
0.00714905
0.00714923
0.00509634
0.00509634
0.0049304
0.00493043
0.00626218
0.00626218
0.0448899
0.303613
0.00661
0.0315155
0.00739836
0.0374357
0.00589736
0.00703962
1.30426
1.49569
0.357791
0.210981
0.255774
0.222068
0.0185746
0.0117218
3.57528
2.83884
2.6942
2.15897
2.20435
1.67238
1.12972
0.926552
1.21969
0.506675
0.774168
0.221369
0.681713
0.203223
0.247892
0.0379611
0.236171
0.236162
0.0558576
0.0558571
0.0682465
0.0682472
0.00871246
0.00871278
0.506638
1.21961
0.221361
0.774137
0.203219
0.681674
0.0379621
0.247889
2.83873
3.57517
2.15892
2.69415
1.67228
2.20422
0.926525
1.12971
4.81013
3.87638
4.25139
3.39559
3.96324
3.07034
3.13569
2.3859
2.02325
1.15056
1.63406
0.823737
1.69718
0.99937
1.17608
0.562711
0.804888
0.804854
0.508383
0.508362
0.722396
0.722371
0.319911
0.319904
1.15045
2.02306
0.823669
1.63393
0.999276
1.69697
0.56267
1.17597
3.87613
4.80987
3.39542
4.25121
3.06997
3.96278
2.38567
3.13541
5.72333
4.69305
5.29249
4.30392
5.4509
4.37469
4.72831
3.73233
2.73314
1.78396
2.38919
1.47308
2.75859
1.93703
2.22813
1.46412
1.39864
1.39857
1.10516
1.10511
1.60773
1.60765
1.16022
1.16017
1.78376
2.73282
1.47293
2.38894
1.93678
2.75811
1.46396
2.22779
4.69265
5.72291
4.30361
5.29214
4.37391
5.44995
3.73177
4.72763
6.46137
5.37323
6.11128
5.04762
6.77437
5.58043
6.13175
4.99157
3.35425
2.35857
3.05468
2.07974
3.78346
2.86546
3.27913
2.40655
1.94789
1.9478
1.68046
1.68038
2.49122
2.49107
2.05367
2.05356
2.35828
3.35379
2.07949
3.05429
2.865
3.78264
2.4062
3.27848
5.37268
6.4608
5.04715
6.11077
5.57917
6.77285
4.99056
6.13054
7.06102
5.93897
6.77599
5.66907
7.93108
6.65412
7.37383
6.13471
3.88574
2.86053
3.63103
2.61902
4.7204
3.7277
4.26488
3.30711
2.43311
2.43298
2.19913
2.19902
3.31797
3.31775
2.91398
2.9138
2.86015
3.88515
2.61869
3.63051
3.72702
4.71921
3.30654
4.26387
5.93829
7.06033
5.66846
6.77533
6.65236
7.92896
6.1332
7.37203
7.5445
6.40103
7.31556
6.18168
8.91188
7.57727
8.4428
7.13439
4.32924
3.28575
4.11811
3.08274
5.54134
4.49228
5.14613
4.12327
2.84745
2.8473
2.6493
2.64916
4.05572
4.05543
3.69916
3.6989
3.2853
4.32854
3.08233
4.11747
4.49138
5.5398
4.12248
5.14476
6.40024
7.5437
6.18094
7.31477
7.57501
8.90919
7.13238
8.44042
7.92665
6.76998
7.74656
6.59578
9.72018
8.34607
9.33619
7.97997
4.68983
3.63573
4.51933
3.46988
6.23503
5.14455
5.90393
4.83261
3.19064
3.19047
3.02779
3.02763
4.6882
4.68783
4.3854
4.38507
3.63522
4.68905
3.4694
4.51859
5.14345
6.23315
4.8316
5.90222
6.76911
7.92577
6.59495
7.74567
8.34337
9.71697
7.97748
9.33327
8.2208
7.05663
8.08309
6.92221
10.3673
8.96662
10.0621
8.67339
4.97495
3.91556
4.84118
3.78402
6.80191
5.68191
6.53362
5.42718
3.46658
3.46638
3.33672
3.33654
5.21133
5.21091
4.96312
4.96273
3.91499
4.97409
3.78349
4.84037
5.68062
6.79975
5.42598
6.5316
7.05569
8.21987
6.9213
8.08213
8.96353
10.3636
8.67049
10.0587
8.43898
7.27143
8.33789
7.17171
10.8685
9.45066
10.6343
9.224
5.19299
4.13212
5.09173
4.03133
7.24933
6.10924
7.03958
5.90861
3.68134
3.68113
3.58126
3.58106
5.62888
5.6284
5.43267
5.43222
4.13152
5.19208
4.03075
5.09085
6.1078
7.24691
5.90724
7.03729
7.27044
8.43801
7.17074
8.33688
9.44723
10.8644
9.22073
10.6304
8.59234
7.42441
8.52234
7.3544
11.2408
9.81289
11.0688
9.64517
5.35259
4.293
5.2795
4.21911
7.5884
6.43568
7.43128
6.28416
3.84193
3.84171
3.76805
3.76783
5.94903
5.9485
5.80029
5.79978
4.29236
5.35163
4.21849
5.27856
6.4341
7.58577
6.28265
7.42875
7.42338
8.59134
7.35338
8.52129
9.80918
11.2364
9.6416
11.0646
8.69035
7.52447
8.64696
7.47991
11.5013
10.0686
11.3831
9.95225
5.46196
4.40574
5.41302
4.35501
7.83178
6.67237
7.72089
6.56428
3.95556
3.95533
3.9043
3.90407
6.18224
6.18167
6.0756
6.07505
4.40507
5.46096
4.35436
5.41204
6.67068
7.82898
6.56264
7.71817
7.52342
8.68933
7.47886
8.64588
10.0647
11.4966
9.94842
11.3786
8.74181
7.57982
8.72058
7.55656
11.6663
10.2332
11.5938
10.1605
5.52878
4.47754
5.50019
4.44643
7.99253
6.8311
7.92131
6.76049
4.02913
4.02889
3.99707
3.99683
6.33972
6.33913
6.2695
6.26892
4.47686
5.52776
4.44575
5.49919
6.82932
7.98957
6.75875
7.91842
7.57876
8.74078
7.5555
8.71948
10.229
11.6615
10.1564
11.5891
8.7539
7.59766
8.75169
7.59242
11.7506
10.3203
11.7168
10.2847
5.5598
4.51487
5.54837
4.50026
8.08291
6.92331
8.04542
6.8846
4.06895
4.0687
4.05304
4.0528
6.43251
6.43189
6.39332
6.39271
4.51416
5.55875
4.49957
5.54734
6.92145
8.07983
6.88277
8.0424
7.59657
8.75287
7.59135
8.75059
10.3159
11.7455
10.2804
11.7118
8.73377
7.58471
8.74701
7.59414
11.7663
10.3414
11.765
10.3373
5.56106
4.52332
5.56376
4.52252
8.11346
6.95916
8.10479
6.94751
4.08047
4.08022
4.07809
4.07785
6.47058
6.46993
6.45762
6.45698
4.5226
5.55999
4.52181
5.56271
6.95722
8.11026
6.94561
8.10165
7.5836
8.73272
7.59304
8.74589
10.3369
11.761
10.3329
11.7599
8.68563
7.54539
8.71239
7.56763
11.7276
10.3107
11.7542
10.3326
5.53773
4.50859
5.55243
4.51892
8.09719
6.95028
8.11065
6.95903
4.0694
4.06913
4.07772
4.07746
6.4648
6.46413
6.47164
6.47098
4.50782
5.53657
4.51818
5.55133
6.94827
8.09384
6.95706
8.10739
7.54414
8.68442
7.56647
8.71121
10.306
11.722
10.3281
11.7489
8.61359
7.48353
8.6516
7.51641
11.6393
10.2323
11.6879
10.2756
5.49324
4.47364
5.51781
4.49341
8.03771
6.90121
8.07143
6.92968
4.03867
4.0384
4.05628
4.05601
6.42048
6.41979
6.44662
6.44593
4.47284
5.49202
4.49262
5.51659
6.89914
8.03425
6.92762
8.06798
7.48219
8.61225
7.51505
8.65016
10.2274
11.6335
10.2707
11.6822
8.52343
7.40504
8.56954
7.44526
11.5147
10.1195
11.58
10.1786
5.43324
4.42392
5.46484
4.45049
7.9476
6.82317
7.99563
6.86513
3.99353
3.99326
4.01782
4.01755
6.3478
6.34711
6.38703
6.38633
4.42315
5.43209
4.44972
5.46369
6.8211
7.94417
6.86306
7.99219
7.40388
8.52232
7.44407
8.56826
10.1147
11.5091
10.1738
11.5743
8.42206
7.31613
8.47335
7.36126
11.3645
9.98179
11.4416
10.0526
5.3625
4.36339
5.39912
4.39499
7.83437
6.72287
7.89324
6.77525
3.93762
3.93735
3.96693
3.96666
6.25329
6.25258
6.30273
6.30203
4.36257
5.36117
4.3942
5.39788
6.72074
7.83078
6.77315
7.88973
7.31443
8.42057
7.35981
8.47203
9.97661
11.3584
10.0476
11.4359
8.31038
7.21775
8.3667
7.26733
11.1928
9.82361
11.2802
9.9041
5.283
4.29443
5.32374
4.33
7.7027
6.60517
7.77027
6.66574
3.87341
3.87312
3.90662
3.90633
6.14178
6.14105
6.19922
6.1985
4.29355
5.28159
4.32916
5.32238
6.60296
7.69897
6.66358
7.76662
7.21598
8.30867
7.26562
8.36496
9.81824
11.1865
9.89885
11.2741
8.19051
7.11228
8.25076
7.16537
11.0041
9.64914
11.0997
9.73748
5.19657
4.2187
5.24067
4.2575
7.5562
6.47356
7.63083
6.54072
3.80257
3.80225
3.83892
3.83861
6.01677
6.01602
6.0806
6.07985
4.21776
5.19501
4.25659
5.23916
6.47128
7.55229
6.53847
7.62697
7.11028
8.18847
7.16343
8.24878
9.64339
10.9973
9.73188
11.0932
8.06224
6.99937
8.12668
7.05602
10.7998
9.46024
10.9029
9.5555
5.10381
4.13725
5.15093
4.17877
7.39751
6.33065
7.47794
6.40319
3.72626
3.72596
3.76521
3.7649
5.88084
5.88011
5.94986
5.94911
4.13637
5.10241
4.17786
5.14945
6.32845
7.39377
6.40094
7.47409
6.99772
8.06058
7.05418
8.1247
9.45487
10.7934
9.5499
10.8963
7.92748
6.88111
7.99497
6.94037
10.583
9.25972
10.6921
9.36059
5.00606
4.05111
5.05559
4.09488
7.22879
6.17843
7.31404
6.25542
3.64542
3.64515
3.68653
3.68625
5.73593
5.73524
5.80923
5.80852
4.0503
5.00477
4.09403
5.05422
6.17635
7.22527
6.25327
7.31039
6.8795
7.92596
6.93869
7.9933
9.25463
10.577
9.3553
10.686
7.78636
6.75745
7.85699
6.81922
10.3551
9.04896
10.4696
9.15471
4.90385
3.96097
4.95548
4.00664
7.05154
6.01841
7.14087
6.09914
3.56079
3.56055
3.60371
3.60346
5.58354
5.5829
5.66043
5.65977
3.96031
4.90292
4.00592
4.95439
6.01652
7.04847
6.09715
7.13758
6.75654
7.78555
6.81798
7.8557
9.04472
10.3501
9.15006
10.4641
7.64043
6.63011
7.7133
6.6937
10.1183
8.82995
10.2371
8.9397
4.79813
3.86746
4.85146
3.91477
6.86718
5.85174
6.95995
5.9357
3.47286
3.47264
3.51738
3.51716
5.42469
5.42408
5.50472
5.5041
3.86684
4.79724
3.91414
4.85058
5.84995
6.86428
5.93387
6.957
6.62919
7.63977
6.69283
7.71257
8.82595
10.1137
8.93565
10.2324
7.48963
6.49864
7.56504
6.56431
9.87309
8.60308
9.99613
8.7168
4.68889
3.77073
4.744
3.81965
6.67619
5.6789
6.77229
5.76593
3.38182
3.38159
3.42789
3.42767
5.25985
5.25926
5.34286
5.34226
3.7701
4.688
3.81903
4.74312
5.67715
6.67332
5.76416
6.76941
6.49776
7.48887
6.56341
7.56425
8.59912
9.86846
8.71284
9.99154
7.33323
6.36253
7.41159
6.43069
9.61846
8.36759
9.74641
8.48581
4.57573
3.67051
4.6329
3.72122
6.47811
5.49971
6.57786
5.58998
3.2875
3.28728
3.33524
3.33502
5.08897
5.08841
5.17504
5.17446
3.66988
4.57482
3.72059
4.63199
5.49802
6.47533
5.58825
6.57502
6.36162
7.3324
6.42978
7.4107
8.36373
9.61392
8.48187
9.74184
7.17048
6.22108
7.25202
6.29191
9.35357
8.12282
9.48667
8.2457
4.45817
3.5665
4.51755
3.61913
6.27248
5.31388
6.37603
5.40749
3.18969
3.18948
3.23919
3.23898
4.91186
4.91133
5.00107
5.00052
3.56592
4.45731
3.61852
4.51666
5.3123
6.26988
5.40586
6.37334
6.22023
7.1697
6.29103
7.25114
8.11919
9.3493
8.24195
9.4823
7.00186
6.07465
7.08624
6.1479
9.07893
7.86916
9.21684
7.99644
4.33632
3.45867
4.39781
3.5132
6.05943
5.1214
6.16667
5.21834
3.08827
3.08807
3.13958
3.13938
4.72842
4.72792
4.82081
4.82029
3.45812
4.33552
3.51263
4.39699
5.11992
6.05699
5.21681
6.16416
6.07387
7.00116
6.1471
7.08544
7.86575
9.07492
7.99293
9.21274
6.82802
5.92365
6.91496
5.99916
8.79509
7.60696
8.93759
7.73852
4.21034
3.34702
4.27389
3.40345
5.83908
4.92224
5.94999
5.02254
2.98319
2.98301
3.03633
3.03614
4.53857
4.5381
4.63419
4.6337
3.3465
4.20959
3.40292
4.27312
4.92083
5.83677
5.0211
5.94762
5.92293
6.82737
5.99842
6.91423
7.60374
8.79131
7.73521
8.93373
6.64931
5.76824
6.73867
5.84596
8.50209
7.33612
8.64922
7.47207
4.08019
3.23142
4.14583
3.28985
5.61125
4.71615
5.72596
4.81997
2.87428
2.87411
2.92936
2.92918
4.34203
4.34158
4.44105
4.44059
3.23092
4.07948
3.28934
4.14511
4.71482
5.60906
4.8186
5.72371
5.76756
6.6487
5.84526
6.73798
7.33308
8.49851
7.46894
8.64557
6.46575
5.60825
6.55757
5.68831
8.19951
7.05621
8.35153
7.19676
3.94559
3.11152
4.01351
3.17215
5.37541
4.5026
5.49421
4.61024
2.76117
2.76101
2.81841
2.81824
4.13827
4.13785
4.24099
4.24056
3.11105
3.94492
3.17167
4.01282
4.50134
5.37334
4.60895
5.49208
5.6076
6.46517
5.68765
6.55692
7.05333
8.19612
7.1938
8.34808
6.27704
5.44312
6.3715
5.52584
7.88648
6.76689
8.04391
6.9123
3.80596
2.98672
3.87649
3.04989
5.13075
4.28072
5.25411
4.39267
2.64324
2.64309
2.70298
2.70282
3.92644
3.92605
4.03334
4.03293
2.98627
3.80532
3.04944
3.87583
4.27954
5.12881
4.39145
5.25211
5.44251
6.27649
5.5252
6.37089
6.76419
7.8833
6.90951
8.04065
6.08226
5.27196
6.17994
5.35786
7.56099
6.46618
7.72501
6.61763
3.66024
2.85596
3.73398
2.92227
4.87572
4.04913
5.00452
4.16615
2.51947
2.51933
2.58228
2.58213
3.70523
3.70487
3.81702
3.81664
2.85554
3.65964
2.92184
3.73336
4.04803
4.8739
4.16501
5.00264
5.27139
6.08175
5.35727
6.17936
6.46365
7.55802
6.61501
7.72196
5.87934
5.09275
5.98147
5.18303
7.21952
6.15119
7.39213
6.31022
3.50652
2.71754
3.58457
2.78794
4.60793
3.80579
4.74348
3.929
2.38827
2.38813
2.45503
2.45488
3.4728
3.47246
3.59048
3.59012
2.71714
3.50596
2.78754
3.58399
3.80477
4.60626
3.92794
4.74174
5.09221
5.87886
5.18248
5.98092
6.14885
7.21677
6.30779
7.38928
5.66363
4.90117
5.77298
4.99839
6.85568
5.8175
7.04054
5.98661
3.34122
2.56853
3.42566
2.64468
4.32365
3.54771
4.46805
3.67874
2.24712
2.24699
2.31922
2.31909
3.22659
3.22628
3.35152
3.35119
2.56817
3.3407
2.64431
3.42512
3.54678
4.32213
3.67777
4.46645
4.90068
5.6632
4.99788
5.77248
5.81537
6.85316
5.98437
7.03793
5.42472
4.68725
5.54759
4.79754
6.4575
5.4571
6.66155
5.64097
3.15677
2.40381
3.25215
2.48865
4.01615
3.27044
4.17331
3.41174
2.09231
2.0922
2.17177
2.17165
2.96358
2.9633
3.0973
3.097
2.40348
3.15631
2.48831
3.25166
3.26962
4.01478
3.41087
4.17186
4.68682
5.42434
4.79708
5.54714
5.45518
6.45525
5.63894
6.65918
5.13859
4.42046
5.28922
4.56375
6.00384
5.04925
6.23886
5.26135
2.93423
2.2144
3.0523
2.31297
3.67073
2.96795
3.84957
3.12265
1.91971
1.91961
2.00847
2.00836
2.68207
2.68183
2.82497
2.82471
2.21411
2.93382
2.31266
3.05187
2.96724
3.66954
3.12188
3.84829
4.4201
5.13828
4.56336
5.28884
5.04757
6.00187
5.25955
6.23676
4.76498
3.95737
4.96594
4.23552
5.44274
4.47107
5.74597
4.8008
2.6255
1.99143
2.79501
2.107
3.25316
2.63899
3.47372
2.80592
1.73164
1.73156
1.82679
1.8267
2.38977
2.38957
2.53592
2.5357
1.99119
2.62518
2.10674
2.79465
2.63839
3.25218
2.80526
3.47264
3.95711
4.76479
4.23521
4.96565
4.46968
5.44106
4.79926
5.74416
2.69021
2.13566
0.889946
0.852366
2.20861
1.78243
0.444718
0.582342
0.747306
0.193922
0.127782
0.0164234
0.538742
0.112629
0.0696766
0.0100531
0.0469094
0.0469094
0.00651366
0.00651381
0.0196812
0.0196815
0.00547596
0.00547599
0.193913
0.74727
0.0164238
0.127784
0.112627
0.538731
0.0100533
0.0696794
2.1356
2.69018
0.852387
0.889989
1.78241
2.20861
0.582363
0.444746
4.92329
3.93738
3.9922
3.15898
4.3849
3.48523
3.47855
2.7492
2.0369
1.07204
1.43133
0.605031
1.68188
0.80982
1.14564
0.42153
0.671811
0.671779
0.272183
0.272172
0.458326
0.458307
0.1513
0.151296
1.07194
2.03673
0.604982
1.43123
0.809754
1.68176
0.421506
1.14558
3.9372
4.92315
3.15886
3.99211
3.48509
4.38477
2.74912
3.47847
6.15346
5.04675
5.61302
4.54791
5.5945
4.5469
5.05825
4.06559
3.03092
1.94608
2.56545
1.52355
2.578
1.5671
2.15454
1.19623
1.4792
1.47914
1.08236
1.08231
1.14569
1.14564
0.802912
0.80288
1.9459
3.03065
1.52341
2.56523
1.56695
2.57778
1.19613
2.15438
5.04651
6.15329
4.54769
5.61283
4.54667
5.59428
4.0654
5.05805
6.94892
5.81645
6.58809
5.4621
6.41484
5.31484
6.03709
4.95666
3.80753
2.69057
3.44223
2.33519
3.3064
2.24233
2.95994
1.91644
2.19827
2.19819
1.85244
1.85237
1.78829
1.78821
1.47588
1.47582
2.69034
3.80722
2.33498
3.44194
2.24211
3.30608
1.91626
2.95967
5.81624
6.94882
5.46186
6.58792
5.31454
6.41457
4.95639
6.03681
7.50512
6.38121
7.2492
6.11885
7.0231
5.90728
6.7382
5.62835
4.4187
3.3035
4.13132
3.01284
3.90369
2.81997
3.61986
2.54345
2.80397
2.80388
2.51546
2.51537
2.35001
2.34992
2.08004
2.07995
3.30327
4.41842
3.0126
4.13102
2.81971
3.90331
2.54321
3.61951
6.3811
7.50518
6.11868
7.24914
5.90696
7.02285
5.62804
6.7379
7.9065
6.80314
7.72087
6.60665
7.48936
6.3716
7.27075
6.15288
4.89717
3.79745
4.67271
3.5644
4.38902
3.30114
4.1592
3.07222
3.29931
3.29922
3.0649
3.06481
2.82412
2.82401
2.59795
2.59785
3.79723
4.89694
3.56417
4.67244
3.30085
4.38862
3.07193
4.1588
6.80317
7.90677
6.60659
7.72098
6.37131
7.48917
6.15256
7.27047
8.19731
7.11777
8.06287
6.9715
7.84555
6.73295
7.67878
6.56319
5.26762
4.18836
5.0945
4.00488
4.7773
3.69315
4.5943
3.50775
3.69563
3.69555
3.50916
3.50908
3.21406
3.21394
3.02926
3.02915
4.18818
5.26748
4.00467
5.09431
3.69284
4.77689
3.50744
4.59389
7.11798
8.19781
6.9716
8.06319
6.7327
7.84543
6.56291
7.67856
8.40478
7.3487
8.30923
7.2418
8.11353
7.00929
7.98849
6.88002
5.54964
4.49182
5.41855
4.35022
5.08182
4.0054
4.9391
3.85864
4.00614
4.00608
3.86094
3.86087
3.52708
3.52696
3.37971
3.37959
4.49169
5.5496
4.35005
5.41845
4.00508
5.08142
3.85832
4.93869
7.34908
8.40552
7.24207
8.30978
7.0091
8.11352
6.87978
7.98837
8.54718
7.51292
8.48229
7.43755
8.30956
7.21493
8.21867
7.11937
5.7592
4.72197
5.66259
4.61541
5.3148
4.24796
5.20643
4.13481
4.24379
4.24374
4.13351
4.13345
3.77202
3.7719
3.65758
3.65746
4.72189
5.75926
4.61529
5.66258
4.24764
5.31443
4.13449
5.20603
7.51347
8.54815
7.438
8.48307
7.21481
8.30966
7.11921
8.21863
8.63755
7.62313
8.59731
7.57343
8.44609
7.36142
8.38371
7.29419
5.90919
4.89105
5.84096
4.81366
5.48704
4.43056
5.40782
4.34626
4.42024
4.42021
4.33924
4.3392
3.95789
3.95778
3.87191
3.87179
4.89101
5.90935
4.81359
5.84105
4.43025
5.4867
4.34595
5.40745
7.62384
8.63873
7.57404
8.5983
7.36137
8.4463
7.29409
8.38377
8.68633
7.68952
8.6658
7.66065
8.53263
7.45842
8.49416
7.41486
6.01025
5.00947
5.96532
4.95624
5.60808
4.56216
5.55337
4.50232
4.54567
4.54565
4.48903
4.489
4.09326
4.09315
4.03152
4.0314
5.00948
6.01049
4.95622
5.9655
4.56187
5.60776
4.50201
5.55303
7.69038
8.68769
7.66141
8.66699
7.45844
8.53295
7.41483
8.49433
8.70076
7.71982
8.69669
7.70819
8.57762
7.51397
8.55899
7.49023
6.071
5.08599
6.04529
5.05274
5.68612
4.65077
5.65197
4.61151
4.62876
4.62875
4.59232
4.5923
4.18592
4.18581
4.14464
4.14452
5.08604
6.07132
5.05276
6.04555
4.65049
5.68583
4.61121
5.65166
7.7208
8.70229
7.70908
8.69805
7.51406
8.57803
7.49026
8.55925
8.68743
7.72078
8.69653
7.72305
8.58845
7.53539
8.58605
7.52787
6.09869
5.12799
6.0887
5.11118
5.72843
4.70347
5.71131
4.68134
4.67688
4.67689
4.6571
4.6571
4.24281
4.2427
4.21861
4.2185
5.12807
6.09907
5.11124
6.08903
4.70319
5.72816
4.68105
5.71103
7.72187
8.6891
7.72406
8.69805
7.53553
8.58895
7.52797
8.5864
8.65058
7.69724
8.67099
7.71133
8.57092
7.52826
8.58229
7.53442
6.09907
5.14146
6.1021
5.13827
5.74093
4.72624
5.7381
4.71842
4.69612
4.69614
4.69013
4.69013
4.26991
4.2698
4.25994
4.25983
5.14157
6.09951
5.13836
6.10249
4.72597
5.74069
4.71814
5.73783
7.69841
8.65237
7.71244
8.67262
7.52845
8.57148
7.53456
8.58271
8.59379
7.65303
8.62375
7.67697
8.5291
7.49708
8.55197
7.51476
6.07678
5.13159
6.09069
5.13948
5.72886
4.72435
5.73774
4.72818
4.69175
4.69177
4.69688
4.69689
4.27237
4.27226
4.27407
4.27396
5.13173
6.07725
5.1396
6.09113
4.72408
5.72862
4.72791
5.73749
7.65425
8.59564
7.67814
8.62548
7.49726
8.52968
7.51495
8.55244
8.51896
7.59045
8.55798
7.62349
8.46589
7.44485
8.49941
7.47293
6.035
5.10178
6.05835
5.11929
5.69567
4.70173
5.71477
4.71562
4.66739
4.66741
4.68219
4.68221
4.2545
4.25438
4.26604
4.26592
5.1019
6.03543
5.11941
6.05878
4.70142
5.69534
4.71533
5.71449
7.59161
8.52075
7.62467
8.55972
7.44496
8.46633
7.47305
8.49979
8.42757
7.5112
8.47487
7.55259
8.38332
7.37379
8.42657
7.41127
5.97653
5.05559
6.00791
5.08087
5.64456
4.66187
5.67225
4.68389
4.62683
4.62684
4.64928
4.64929
4.21969
4.21956
4.23915
4.23902
5.0557
5.97695
5.08096
6.00829
4.66155
5.6442
4.68355
5.67184
7.51228
8.42912
7.55366
8.47651
7.37369
8.3835
7.41124
8.42682
8.32147
7.41897
8.37478
7.46526
8.28508
7.2889
8.33449
7.33163
5.90592
4.99726
5.94247
5.02798
5.58036
4.60924
5.61368
4.63703
4.57411
4.57414
4.60211
4.60213
4.17225
4.17213
4.19751
4.19739
4.9974
5.90639
5.0281
5.94292
4.60894
5.58013
4.63673
5.61345
7.42055
8.32395
7.46676
8.37673
7.28982
8.28691
7.33211
8.33507
8.21587
7.32528
8.26827
7.37235
8.18466
7.20035
8.2346
7.24492
5.82891
4.93091
5.86842
4.96533
5.50864
4.54783
5.54551
4.5797
4.51282
4.51284
4.54478
4.5448
4.11569
4.11555
4.14518
4.14505
4.93101
5.82922
4.96543
5.86876
4.54741
5.50775
4.57933
5.54489
7.32597
8.217
7.37321
8.26978
7.19769
8.18186
7.24383
8.23446
8.10259
7.22425
8.15956
7.27498
8.07367
7.10261
8.1292
7.15125
5.74558
4.85805
5.78812
4.89555
5.4296
4.47935
5.46988
4.51455
4.44486
4.44487
4.47997
4.47998
4.05206
4.05191
4.08487
4.08473
4.85813
5.7459
4.89564
5.78842
4.47889
5.42873
4.51411
5.46902
7.22487
8.10354
7.27545
8.1604
7.10096
8.07204
7.14951
8.12695
7.98744
7.12085
8.04457
7.17265
7.9615
7.00284
8.01744
7.05304
5.65757
4.7799
5.70246
4.81998
5.34542
4.40523
5.38832
4.44316
4.37145
4.37145
4.40918
4.40917
3.98271
3.98254
4.01826
4.01809
4.77993
5.65776
4.82001
5.70266
4.40471
5.34448
4.44265
5.38732
7.12134
7.9882
7.1733
8.04552
7.00106
7.95947
7.05098
8.01515
7.86267
7.00966
7.92516
7.06497
7.83862
6.89405
7.90024
6.94831
5.56418
4.69686
5.61153
4.73925
5.25536
4.326
5.30099
4.36636
4.2933
4.29331
4.33329
4.33329
3.9085
3.90835
3.94636
3.9462
4.69696
5.56457
4.73931
5.61183
4.32558
5.25474
4.36589
5.30022
7.01095
7.86464
7.06596
7.9264
6.89345
7.83838
6.9471
7.89878
7.73911
6.89851
7.80063
6.95442
7.71419
6.78359
7.77607
6.83891
5.46748
4.60997
5.5166
4.65424
5.1616
4.24274
5.2091
4.28504
4.2112
4.21123
4.25309
4.2531
3.83025
3.83012
3.87004
3.8699
4.61008
5.4678
4.65432
5.51688
4.24235
5.16088
4.28462
5.20834
6.89919
7.74005
6.9552
7.80195
6.78158
7.71196
6.83737
7.77492
7.6064
6.7803
7.67256
6.83892
7.58114
6.66648
7.64734
6.72441
5.36667
4.51949
5.41758
4.56543
5.0636
4.15582
5.11299
4.19985
4.12567
4.12572
4.16919
4.16922
3.74853
3.74846
3.78998
3.78988
4.51972
5.36728
4.5656
5.41804
4.15565
5.06347
4.19957
5.11259
6.78166
7.6085
6.84005
7.67404
6.6668
7.5818
6.72375
7.64625
7.47506
6.66269
7.54034
6.72153
7.4491
6.54996
7.51452
6.60804
5.26355
4.42618
5.3157
4.47352
4.96319
4.06602
5.01383
4.11146
4.03717
4.03723
4.08213
4.08219
3.66385
3.66378
3.70674
3.70667
4.42643
5.26414
4.47376
5.31628
4.06586
4.96295
4.11129
5.01366
6.66348
7.47629
6.72256
7.54206
6.5489
7.44846
6.60789
7.51507
7.33853
6.54088
7.40637
6.60137
7.31123
6.42843
7.3799
6.48885
5.15738
4.32993
5.21095
4.37873
4.8595
3.97325
4.91176
4.02018
3.94575
3.9458
3.99217
3.99223
3.57627
3.57619
3.62061
3.62054
4.3302
5.15804
4.37898
5.21155
3.9731
4.85943
4.02001
4.91158
6.54191
7.34003
6.60225
7.40757
6.42848
7.31134
6.48803
7.3789
7.19923
6.41635
7.26897
6.47881
7.1688
6.30303
7.24012
6.36584
5.04804
4.23047
5.10341
4.28096
4.75226
3.8772
4.80647
3.92584
3.85112
3.85116
3.89919
3.89924
3.48555
3.48547
3.53151
3.53142
4.23067
5.04864
4.28119
5.10403
3.87701
4.75216
3.92566
4.80637
6.41769
7.20102
6.47991
7.27042
6.30336
7.16945
6.36602
7.24049
7.05303
6.28591
7.12638
6.35137
7.01982
6.17214
7.09438
6.23765
4.93413
4.12709
4.99184
4.17957
4.64064
3.77741
4.69705
3.82794
3.75288
3.75292
3.80278
3.80281
3.39139
3.3913
3.43908
3.439
4.12727
4.93466
4.17975
4.99237
3.77722
4.64052
3.82774
4.69691
6.28716
7.05481
6.35264
7.12814
6.17246
7.0205
6.23796
7.09498
6.90135
6.15078
6.97715
6.2184
6.86548
6.03667
6.94254
6.10435
4.81598
4.01984
4.87572
4.07422
4.52489
3.67388
4.58331
3.72625
3.65094
3.65098
3.70267
3.7027
3.29369
3.29361
3.34314
3.34306
4.02002
4.8165
4.07439
4.87622
3.67371
4.5248
3.72607
4.58318
6.15199
6.90306
6.21959
6.97882
6.03701
6.86617
6.10466
6.94313
6.74581
6.01206
6.82341
6.08138
6.70689
5.89737
6.78599
5.9669
4.6941
3.90888
4.75565
3.96509
4.40538
3.56672
4.46565
3.62089
3.54534
3.54538
3.59889
3.59892
3.19245
3.19238
3.24367
3.24359
3.90906
4.69461
3.96526
4.75614
3.56656
4.4053
3.62073
4.46555
6.01325
6.74747
6.08255
6.82503
5.89771
6.70757
5.96723
6.78659
6.58722
5.87026
6.66627
5.94108
6.54465
5.75462
6.62553
5.82585
4.56867
3.7942
4.63198
3.85227
4.28218
3.45586
4.34429
3.5119
3.43598
3.43601
3.49142
3.49145
3.08754
3.08747
3.14061
3.14054
3.79438
4.56917
3.85244
4.63247
3.45571
4.28211
3.51174
4.3442
5.8714
6.58882
5.94222
6.66785
5.75496
6.54531
5.82618
6.62612
6.426
5.7255
6.50635
5.79779
6.37901
5.60848
6.46159
5.68144
4.43956
3.67551
4.50474
3.73563
4.15512
3.34101
4.2192
3.39909
3.32248
3.32252
3.38004
3.38007
2.97862
2.97855
3.03375
3.03368
3.67568
4.44003
3.73579
4.5052
3.34086
4.15505
3.39894
4.21912
5.7266
6.42752
5.79889
6.50786
5.60881
6.37964
5.68176
6.46216
6.26202
5.57764
6.34382
5.65156
6.20995
5.45851
6.29428
5.53346
4.30621
3.55212
4.3736
3.6147
4.02363
3.22152
4.09002
3.28202
3.20413
3.20416
3.26422
3.26425
2.86501
2.86495
2.92258
2.92252
3.55228
4.30666
3.61484
4.37405
3.22138
4.02356
3.28187
4.08994
5.57869
6.26347
5.65261
6.34525
5.45881
6.21055
5.53377
6.29483
6.09437
5.42548
6.17818
5.50176
6.03662
5.30381
6.12328
5.3813
4.16734
3.42271
4.2377
3.48849
3.88658
3.09623
3.95593
3.15981
3.07959
3.07962
3.14297
3.143
2.74557
2.74551
2.80624
2.80617
3.42285
4.16776
3.48863
4.23812
3.0961
3.88651
3.15966
3.95585
5.42647
6.09574
5.50275
6.17953
5.3041
6.03718
5.38158
6.12379
5.92074
5.26657
6.00798
5.34665
5.85679
5.14217
5.94711
5.22353
4.02047
3.28489
4.09524
3.35525
3.7418
2.96312
3.81538
3.03093
2.94659
2.94662
3.01455
3.01457
2.61838
2.61832
2.68322
2.68316
3.28502
4.02086
3.35537
4.09563
2.96299
3.74173
3.03079
3.8153
5.26751
5.92202
5.34759
6.00925
5.14244
5.85731
5.2238
5.94759
5.73546
5.09536
5.82954
5.18258
5.66509
4.96851
5.76234
5.0568
3.86059
3.13442
3.94271
3.21178
3.58489
2.81852
3.66529
2.89266
2.80137
2.8014
2.87601
2.87603
2.48024
2.48019
2.55104
2.55098
3.13454
3.86096
3.2119
3.94307
2.81839
3.58483
2.89253
3.66521
5.09624
5.73665
5.18347
5.83073
4.96877
5.66556
5.05705
5.76278
5.52578
4.89901
5.63434
5.00117
5.44919
4.77078
5.56074
4.87339
3.67733
2.9638
3.77297
3.05242
3.40641
2.65579
3.4993
2.74007
2.63822
2.63824
2.72263
2.72264
2.3262
2.32615
2.40567
2.40561
2.96391
3.67768
3.05252
3.77331
2.65567
3.40636
2.73995
3.49923
4.89984
5.52691
5.002
5.63546
4.77103
5.44964
4.87363
5.56115
5.26659
4.64323
5.40372
4.78196
5.18268
4.51405
5.32393
4.65339
3.44754
2.76118
3.57059
2.86746
3.18363
2.46361
3.30289
2.56431
2.45108
2.4511
2.548
2.54802
2.15062
2.15057
2.24141
2.24136
2.76128
3.44787
2.86756
3.57091
2.46352
3.1836
2.5642
3.30284
4.64401
5.26765
4.78275
5.40478
4.51431
5.18313
4.65363
5.32433
4.93399
4.19573
5.11034
4.46262
4.82924
4.05468
5.01918
4.3307
3.12477
2.51913
3.30124
2.64449
2.86616
2.23265
3.04076
2.3526
2.24422
2.24424
2.34892
2.34894
1.95623
1.9562
2.05472
2.05468
2.51924
3.12509
2.64459
3.30155
2.23258
2.86616
2.35252
3.04073
4.19647
4.93505
4.46337
5.11136
4.05496
4.82973
4.33096
5.0196
3.30906
2.61784
1.49116
1.27536
3.04409
2.4071
1.23512
1.08745
1.06268
0.354318
0.273578
0.040207
0.923332
0.274654
0.193742
0.0261027
0.124863
0.124859
0.0109672
0.0109674
0.0831848
0.0831833
0.00851748
0.00851762
0.354285
1.06259
0.0402078
0.273575
0.274637
0.923275
0.0261033
0.193743
2.61772
3.30899
1.27534
1.49115
2.40702
3.04403
1.08745
1.23513
5.58115
4.5138
4.62519
3.68646
5.30009
4.26433
4.35436
3.45752
2.53212
1.47739
1.83759
0.901866
2.31257
1.29252
1.65687
0.76557
1.02604
1.02598
0.509589
0.509561
0.86111
0.861069
0.395372
0.395353
1.47723
2.53187
0.901767
1.83741
1.29239
2.31236
0.765502
1.65675
4.51357
5.581
3.68628
4.62504
4.26412
5.29992
3.45738
4.35422
6.85524
5.70483
6.29748
5.17036
6.55422
5.41859
6.00479
4.9006
3.67492
2.53309
3.14173
2.02677
3.38888
2.26632
2.88629
1.79806
2.02593
2.02585
1.53967
1.53961
1.77376
1.77369
1.32835
1.3283
2.53287
3.67463
2.02657
3.14145
2.26612
3.3886
1.79789
2.88604
5.70463
6.85517
5.17012
6.29731
5.41837
6.55407
4.90037
6.00458
7.64936
6.50803
7.29465
6.14279
7.34578
6.20404
6.99011
5.84521
4.54318
3.40124
4.13902
2.9911
4.21429
3.07714
3.82854
2.69254
2.88176
2.88168
2.47441
2.47433
2.56609
2.56601
2.18743
2.18735
3.40103
4.54295
2.99088
4.13874
3.07691
4.21402
2.69232
3.82825
6.50801
7.64955
6.14266
7.29464
6.20391
7.34578
5.84502
6.98998
8.1692
7.06716
7.93477
6.81146
7.87756
6.76203
7.63575
6.5052
5.19798
4.08776
4.8938
3.76573
4.84721
3.72862
4.5517
3.42161
3.57466
3.5746
3.24805
3.24797
3.21778
3.2177
2.90922
2.90914
4.08762
5.19792
3.76554
4.89363
3.72842
4.84702
3.42139
4.55145
7.06744
8.16975
6.81156
7.93508
6.7621
7.87781
6.50514
7.63582
8.51595
7.46035
8.35892
7.2802
8.24413
7.16434
8.07654
6.97868
5.6879
4.61913
5.46085
4.37109
5.32971
4.24141
5.10488
4.00091
4.11982
4.1198
3.86444
3.86439
3.73889
3.73883
3.49366
3.49359
4.6191
5.68805
4.371
5.46086
4.24128
5.32965
4.00073
5.10474
7.46096
8.51691
7.28062
8.35962
7.16465
8.2447
6.97883
8.07689
8.74659
7.73563
8.64236
7.6098
8.49749
7.45388
8.38172
7.32047
6.05073
5.02378
5.8832
4.83579
5.69394
4.63845
5.52482
4.4531
4.54037
4.54038
4.34441
4.3444
4.14726
4.14723
3.95611
3.95606
5.02388
6.0511
4.83581
5.88343
4.6384
5.69404
4.453
5.52482
7.73659
8.74797
7.61055
8.64347
7.45445
8.49839
7.32087
8.38238
8.89538
7.92426
8.8287
7.83858
8.66894
7.65861
8.591
7.56472
6.31505
5.32657
6.1937
5.1867
5.96453
4.9404
5.83954
4.80021
4.85874
4.85879
4.71126
4.71128
4.46114
4.46113
4.31505
4.31502
5.32679
6.31565
5.18685
6.19416
4.94043
5.9648
4.80019
5.8397
7.92555
8.89716
7.83967
8.83022
7.65944
8.67016
7.56539
8.59198
8.98419
8.04752
8.94531
7.99232
8.77882
7.79791
8.7296
7.7347
6.50248
5.54795
6.41728
5.44655
6.16055
5.16485
6.07079
5.06146
5.09441
5.0945
4.98611
4.98617
4.697
4.69702
4.58804
4.58805
5.5483
6.50328
5.44682
6.41795
5.16498
6.16098
5.06153
6.07111
8.0491
8.98632
7.99372
8.9472
7.79898
8.78034
7.73562
8.73088
9.02751
8.12027
9.00998
8.08883
8.84093
7.88563
8.81423
7.84679
6.6293
5.70421
6.57269
5.63361
6.29675
5.32625
6.23533
5.2528
5.26338
5.26351
5.18668
5.18678
4.86886
4.8689
4.79035
4.79038
5.70467
6.6303
5.634
6.57356
5.32645
6.29732
5.25295
6.23579
8.12212
9.02996
8.09051
9.0122
7.88692
8.84272
7.84794
8.8158
9.03565
8.15354
9.03468
8.14071
8.86549
7.93237
8.85652
7.91292
6.70804
5.80825
6.67414
5.76237
6.38475
5.43633
6.34617
5.38724
5.37855
5.37872
5.32733
5.32747
4.98835
4.98842
4.93473
4.93478
5.80881
6.70919
5.76286
6.67518
5.43661
6.38545
5.38747
6.34677
8.15562
9.03838
8.14264
9.0372
7.93385
8.86752
7.91426
8.85833
9.01611
8.15532
9.0284
8.15745
8.85983
7.9459
8.8652
7.94225
6.74824
5.87024
6.7326
5.84429
6.43365
5.50459
6.41364
5.47538
5.45027
5.45046
5.41966
5.41983
5.06504
5.06513
5.03176
5.03184
5.87088
6.74953
5.84487
6.73379
5.50494
6.43446
5.47567
6.41436
8.1576
9.01908
8.15959
9.03116
7.94754
8.86206
7.94377
8.86723
8.97425
8.13201
8.99691
8.14603
8.82979
7.93283
8.84674
7.94181
6.75741
5.89824
6.7565
5.8884
6.45084
5.53878
6.44589
5.52575
5.48679
5.487
5.47287
5.47307
5.10675
5.10686
5.09009
5.09019
5.89895
6.75883
5.88906
6.75782
5.53918
6.45175
5.52611
6.44672
8.13446
8.97741
8.14835
8.9999
7.93462
8.8322
7.94349
8.84896
8.91385
8.08786
8.94547
8.11181
8.77929
7.89744
8.80608
7.91706
6.74145
5.89864
6.75252
5.90189
6.44206
5.54502
6.44944
5.5453
5.49463
5.49487
5.49436
5.49457
5.11978
5.1199
5.11679
5.1169
5.89941
6.74297
5.90262
6.75395
5.54547
6.44305
5.54571
6.45035
8.09044
8.91717
8.11428
8.94863
7.89936
8.78185
7.91887
8.80846
8.83772
8.0263
8.87689
8.05859
8.71143
7.84341
8.74657
7.87198
6.70448