/*--------------------------------*- C++ -*----------------------------------*\
  =========                 |
  \\      /  F ield         | OpenFOAM: The Open Source CFD Toolbox
   \\    /   O peration     | Website:  https://openfoam.org
    \\  /    A nd           | Version:  9
     \\/     M anipulation  |
\*---------------------------------------------------------------------------*/
FoamFile
{
    format      ascii;
    class       volScalarField;
    location    "2.1";
    object      k;
}
// * * * * * * * * * * * * * * * * * * * * * * * * * * * * * * * * * * * * * //

dimensions      [0 2 -2 0 0 0 0];

internalField   nonuniform List<scalar> 
36360
(
0.255285
0.226471
0.0420308
0.0687901
0.0376492
0.041383
0.00529342
0.00720759
0.079108
0.0180869
0.0107371
0.00374364
0.0114993
0.00389657
0.00376803
0.00334691
0.00447366
0.00447386
0.00302699
0.00302699
0.00297067
0.00297068
0.00348337
0.00348337
0.0180878
0.0791093
0.00374375
0.0107378
0.00389664
0.0114997
0.00334692
0.00376808
0.226471
0.255285
0.0687939
0.0420327
0.0413838
0.03765
0.00720796
0.00529352
0.549861
0.467248
0.427656
0.361517
0.173766
0.144553
0.111317
0.0975322
0.267711
0.152689
0.178797
0.0743627
0.0794983
0.0355126
0.0405234
0.0116084
0.0980075
0.0980062
0.0279386
0.0279391
0.0171765
0.0171766
0.00435088
0.00435099
0.152683
0.267698
0.0743621
0.178792
0.0355122
0.0794952
0.0116086
0.040523
0.467229
0.549838
0.361508
0.427645
0.144547
0.173759
0.0975302
0.111316
0.724103
0.6306
0.644443
0.554538
0.256904
0.216718
0.219768
0.183179
0.421079
0.303226
0.347918
0.230389
0.146001
0.102605
0.114336
0.069982
0.250854
0.250847
0.17732
0.177316
0.082669
0.0826671
0.0480662
0.0480655
0.303205
0.421044
0.230375
0.347894
0.102599
0.145989
0.0699786
0.114329
0.630554
0.724051
0.554506
0.644407
0.216701
0.256884
0.183168
0.219755
0.856658
0.760104
0.793966
0.698522
0.31773
0.274417
0.288987
0.246847
0.549277
0.431992
0.487983
0.37036
0.201829
0.159479
0.175047
0.132339
0.380121
0.380109
0.318319
0.318309
0.140868
0.140863
0.113347
0.113343
0.431954
0.549216
0.37033
0.487936
0.159465
0.201806
0.132329
0.175029
0.760027
0.856571
0.698462
0.793897
0.274385
0.317693
0.246822
0.288959
0.964079
0.866619
0.913037
0.815891
0.367288
0.322778
0.343671
0.299648
0.656443
0.539939
0.605294
0.488395
0.249147
0.207042
0.226482
0.184303
0.488287
0.488269
0.436639
0.436623
0.188615
0.188607
0.165831
0.165825
0.539884
0.656356
0.488348
0.60522
0.20702
0.249111
0.184284
0.226452
0.866511
0.963958
0.815799
0.912933
0.32273
0.367233
0.299607
0.343626
1.05131
0.953801
1.00994
0.912387
0.408002
0.362966
0.388654
0.343818
0.745023
0.62943
0.702892
0.586841
0.288751
0.24673
0.26986
0.227803
0.578061
0.578037
0.535321
0.535299
0.228318
0.228308
0.209388
0.20938
0.62936
0.744912
0.586778
0.702793
0.2467
0.288702
0.227777
0.269817
0.953664
1.05115
0.912264
1.0098
0.362901
0.407929
0.343761
0.38859
1.12135
1.02424
1.08824
0.990899
0.440993
0.395815
0.425374
0.380232
0.817169
0.702574
0.782997
0.667908
0.321334
0.279411
0.305864
0.263891
0.651576
0.651547
0.616719
0.616692
0.261019
0.261006
0.245486
0.245475
0.702489
0.817038
0.66783
0.782876
0.279373
0.321274
0.263857
0.30581
1.02408
1.12117
0.990749
1.08807
0.395736
0.440905
0.380161
0.425294
1.17672
1.0802
1.15064
1.05382
0.467283
0.422165
0.454888
0.409722
0.874915
0.761339
0.847689
0.733617
0.347628
0.305847
0.335206
0.293352
0.710755
0.710722
0.682826
0.682795
0.287498
0.287483
0.27498
0.274966
0.761243
0.874766
0.733526
0.847549
0.305803
0.347558
0.293312
0.335141
1.08002
1.17652
1.05365
1.15045
0.422074
0.46718
0.409637
0.454793
1.21962
1.12377
1.19952
1.10334
0.487811
0.442851
0.478185
0.433137
0.920214
0.807631
0.898977
0.785916
0.3684
0.326796
0.358644
0.316951
0.757466
0.757429
0.735545
0.73551
0.308512
0.308495
0.298633
0.298617
0.807525
0.92005
0.785814
0.898821
0.326747
0.368322
0.316905
0.35857
1.12357
1.2194
1.10315
1.19931
0.442749
0.487696
0.433041
0.478077
1.25195
1.15677
1.23692
1.1414
0.50342
0.45866
0.496155
0.451291
0.954855
0.843214
0.938738
0.826646
0.384393
0.342991
0.376937
0.335436
0.793457
0.793417
0.776689
0.776651
0.324785
0.324767
0.31719
0.317172
0.8431
0.954679
0.826535
0.938568
0.342937
0.384307
0.335384
0.376855
1.15655
1.25171
1.1412
1.23669
0.458549
0.503295
0.451184
0.496036
1.27537
1.18084
1.2646
1.16975
0.514864
0.470317
0.509592
0.464937
0.980449
0.869689
0.968665
0.857485
0.396297
0.355111
0.390803
0.349511
0.82032
0.820278
0.807927
0.807887
0.336995
0.336975
0.33135
0.33133
0.869568
0.980263
0.857367
0.968485
0.355053
0.396206
0.349455
0.390714
1.18062
1.27512
1.16953
1.26436
0.470198
0.51473
0.464822
0.509464
1.2913
1.1974
1.28412
1.18991
0.522798
0.478464
0.519206
0.474765
0.998411
0.888472
0.99028
0.87995
0.404736
0.363775
0.400902
0.359831
0.839471
0.839427
0.83077
0.830727
0.345754
0.345733
0.341762
0.341741
0.888346
0.998217
0.879826
0.99009
0.363714
0.404639
0.359771
0.400807
1.19717
1.29104
1.18968
1.28386
0.478339
0.522657
0.474643
0.51907
1.30098
1.20769
1.29677
1.20318
0.5278
0.483675
0.525605
0.481375
1.00998
0.900808
1.0049
0.895364
0.410266
0.369531
0.40782
0.366976
0.852155
0.85211
0.846542
0.846497
0.35161
0.351588
0.349005
0.348983
0.900677
1.00978
0.895235
1.0047
0.369467
0.410164
0.366913
0.407721
1.20745
1.30071
1.20294
1.29651
0.483544
0.527653
0.481246
0.525462
1.30541
1.21271
1.30371
1.21072
0.530349
0.486425
0.529326
0.485301
1.01622
0.907763
1.01369
0.904889
0.413362
0.372858
0.412078
0.371462
0.859444
0.859397
0.856407
0.856361
0.355042
0.355019
0.353594
0.353571
0.907628
1.01601
0.904755
1.01348
0.372791
0.413257
0.371397
0.411975
1.21246
1.30513
1.21048
1.30344
0.486289
0.530196
0.485167
0.529177
1.30547
1.21335
1.30583
1.21344
0.53083
0.487097
0.530787
0.486966
1.01799
0.910234
1.01759
0.9095
0.414413
0.374154
0.414113
0.373731
0.862242
0.862193
0.861347
0.861299
0.35645
0.356427
0.35597
0.355946
0.910094
1.01778
0.909362
1.01738
0.374084
0.414304
0.373663
0.414006
1.21309
1.30518
1.21319
1.30555
0.486956
0.530672
0.486827
0.530633
1.30187
1.21038
1.30406
1.21226
0.529674
0.486144
0.530472
0.486827
1.01615
0.909081
1.0175
0.910057
0.413867
0.373843
0.41432
0.374152
0.861412
0.861361
0.862211
0.862161
0.356246
0.356221
0.356493
0.356469
0.908934
1.01593
0.909914
1.01728
0.373771
0.413753
0.374082
0.414209
1.2101
1.30156
1.21199
1.30377
0.485995
0.529507
0.486683
0.530311
1.2951
1.20424
1.29877
1.20759
0.527021
0.483683
0.528482
0.485043
1.01115
0.904784
1.01398
0.907262
0.411845
0.372089
0.412992
0.373108
0.857457
0.857405
0.859765
0.859713
0.354623
0.354598
0.355582
0.355557
0.904632
1.01091
0.907111
1.01374
0.372015
0.411727
0.373034
0.412875
1.20395
1.29477
1.2073
1.29845
0.483527
0.526845
0.484889
0.52831
1.28585
1.1957
1.29065
1.20013
0.523257
0.480126
0.52523
0.481992
1.00376
0.898119
1.00768
0.901699
0.408766
0.369284
0.410409
0.370794
0.851137
0.851085
0.85455
0.854498
0.351948
0.351922
0.353394
0.353368
0.897967
1.00353
0.901548
1.00745
0.36921
0.408649
0.37072
0.410292
1.19542
1.28554
1.19986
1.29033
0.479973
0.523086
0.48184
0.525059
1.27496
1.18553
1.28053
1.19074
0.5187
0.475765
0.521044
0.478011
0.994639
0.889653
0.999383
0.89408
0.404879
0.365661
0.406903
0.367556
0.84299
0.842935
0.847261
0.847208
0.348451
0.348424
0.350283
0.350257
0.88949
0.994373
0.893923
0.999133
0.365584
0.404755
0.36748
0.406782
1.18517
1.27458
1.19041
1.28019
0.4756
0.518515
0.477852
0.520869
1.26255
1.17388
1.26886
1.17979
0.513466
0.470728
0.516135
0.473295
0.984051
0.879732
0.989489
0.884849
0.400333
0.361384
0.40267
0.363589
0.833387
0.83333
0.838348
0.838292
0.344299
0.344272
0.346441
0.346414
0.879562
0.983775
0.884683
0.989219
0.361304
0.400204
0.36351
0.402543
1.17351
1.26215
1.17943
1.26846
0.470556
0.513273
0.473127
0.515947
1.24894
1.16109
1.25582
1.16756
0.507679
0.465139
0.510615
0.467974
0.972276
0.868618
0.978287
0.874306
0.395243
0.35657
0.39784
0.359031
0.82259
0.82253
0.828121
0.828062
0.339614
0.339586
0.34201
0.341982
0.868441
0.971987
0.874131
0.978001
0.356486
0.395106
0.358948
0.397706
1.16071
1.24852
1.16718
1.2554
0.464954
0.50747
0.467793
0.510414
1.23412
1.14716
1.2416
1.15417
0.501375
0.459049
0.504563
0.462125
0.959449
0.856483
0.965963
0.862662
0.38969
0.351304
0.39251
0.353982
0.810785
0.810727
0.816799
0.81674
0.334481
0.334453
0.337092
0.337064
0.856314
0.95918
0.862488
0.965684
0.351222
0.389559
0.353899
0.392375
1.14682
1.23375
1.15381
1.2412
0.458875
0.501178
0.461945
0.504359
1.21838
1.13239
1.22629
1.13981
0.494642
0.452539
0.498037
0.455819
0.94576
0.843483
0.952695
0.85008
0.383742
0.34565
0.386754
0.348516
0.798118
0.798063
0.804548
0.804491
0.328964
0.328938
0.331761
0.331734
0.843323
0.945501
0.849914
0.952427
0.345573
0.383618
0.348436
0.386625
1.13204
1.21801
1.13947
1.22592
0.452372
0.494454
0.455647
0.497846
1.20169
1.11675
1.21007
1.12458
0.487514
0.445644
0.491102
0.44911
0.931271
0.829714
0.93859
0.836683
0.377443
0.339656
0.380624
0.342687
0.784694
0.784645
0.791491
0.79144
0.323112
0.323087
0.326071
0.326046
0.829574
0.931059
0.836533
0.938355
0.339585
0.377333
0.342612
0.380507
1.11649
1.20141
1.12428
1.20974
0.445504
0.487357
0.448958
0.49093
1.18427
1.10046
1.193
1.10862
0.480052
0.438422
0.483801
0.442048
0.916113
0.815262
0.923762
0.822567
0.370834
0.333355
0.374167
0.336536
0.770583
0.770536
0.777718
0.777671
0.316953
0.31693
0.320063
0.320039
0.815128
0.915909
0.822432
0.923557
0.333287
0.370729
0.336467
0.374061
1.1002
1.184
1.10836
1.19273
0.43829
0.479904
0.441915
0.483654
1.16606
1.08344
1.1752
1.09197
0.47226
0.430877
0.476177
0.434667
0.900265
0.800136
0.908262
0.807779
0.363923
0.326756
0.367409
0.330087
0.755801
0.755756
0.763274
0.763227
0.310498
0.310475
0.313757
0.313734
0.800005
0.90007
0.807648
0.908062
0.326689
0.363819
0.33002
0.367304
1.08321
1.1658
1.09172
1.17494
0.430745
0.472112
0.434535
0.476031
1.147
1.06565
1.15658
1.07458
0.464101
0.422974
0.468209
0.426951
0.883681
0.784296
0.892059
0.792305
0.356686
0.319844
0.36034
0.323335
0.74032
0.740274
0.748148
0.748102
0.303734
0.303712
0.30715
0.307127
0.784166
0.883485
0.792174
0.891863
0.319778
0.356584
0.323269
0.360236
1.06542
1.14675
1.07435
1.15633
0.422844
0.463955
0.426819
0.468064
1.127
1.04699
1.13705
1.05636
0.455536
0.414681
0.45985
0.418855
0.866286
0.767689
0.875074
0.776087
0.349094
0.312595
0.352928
0.316257
0.72409
0.724046
0.732298
0.732253
0.296643
0.296622
0.300225
0.300203
0.767563
0.866096
0.775958
0.87488
0.312533
0.348998
0.316193
0.352828
1.04677
1.12675
1.05613
1.1368
0.414557
0.455397
0.418728
0.459709
1.10607
1.02747
1.11658
1.03727
0.44657
0.405997
0.451083
0.410366
0.84807
0.750285
0.857269
0.759084
0.34114
0.304997
0.345156
0.308835
0.707078
0.707036
0.715681
0.715638
0.289208
0.289188
0.292964
0.292943
0.750165
0.847888
0.758961
0.857083
0.304938
0.341049
0.308775
0.345062
1.02726
1.10583
1.03705
1.11634
0.40588
0.446438
0.410246
0.45095
1.08424
1.00711
1.0952
1.01733
0.437207
0.396923
0.44192
0.401489
0.829018
0.732056
0.838639
0.741273
0.332815
0.297034
0.337018
0.301058
0.689246
0.689205
0.698265
0.698224
0.281411
0.281391
0.285351
0.285331
0.731941
0.828844
0.741155
0.838461
0.296978
0.332727
0.301
0.336929
1.0069
1.08401
1.01712
1.09497
0.396811
0.437082
0.401374
0.441793
1.06151
0.985869
1.07293
0.996537
0.427437
0.387439
0.432357
0.392214
0.809087
0.712944
0.819156
0.722612
0.324096
0.288681
0.3285
0.292904
0.67053
0.670491
0.680001
0.679961
0.273223
0.273205
0.277363
0.277344
0.712833
0.808919
0.722499
0.818985
0.288626
0.324012
0.292848
0.328414
0.985672
1.06129
0.996335
1.0727
0.387332
0.427317
0.392104
0.432235
1.03782
0.963685
1.04973
0.974838
0.417228
0.377514
0.422373
0.382514
0.788191
0.692857
0.798755
0.703026
0.314945
0.279895
0.319571
0.284341
0.650835
0.650797
0.66081
0.660772
0.264604
0.264586
0.268967
0.268948
0.69275
0.78803
0.702917
0.798591
0.279843
0.314865
0.284287
0.319489
0.963496
1.03761
0.974644
1.04952
0.377412
0.417113
0.382409
0.422256
1.01309
0.940441
1.02553
0.952143
0.406534
0.367117
0.41193
0.372361
0.766203
0.671653
0.777334
0.682402
0.30531
0.270619
0.310187
0.275319
0.630013
0.629977
0.640573
0.640537
0.255492
0.255475
0.26011
0.260093
0.67155
0.766048
0.682297
0.777177
0.270569
0.305233
0.275268
0.310108
0.940259
1.01289
0.951957
1.02533
0.36702
0.406424
0.372261
0.411818
0.98711
0.915938
1.00021
0.928301
0.395263
0.356153
0.400962
0.361696
0.742912
0.64912
0.754727
0.660566
0.295102
0.260764
0.300279
0.265767
0.607853
0.607818
0.619114
0.619079
0.2458
0.245784
0.250721
0.250704
0.649021
0.742764
0.660465
0.754576
0.260717
0.295029
0.265718
0.300204
0.915765
0.986921
0.928124
1.00002
0.35606
0.39516
0.3616
0.400857
0.95956
0.889849
0.973503
0.903059
0.383265
0.344485
0.389353
0.3504
0.717992
0.624938
0.730672
0.637257
0.284191
0.250205
0.289739
0.255579
0.584042
0.58401
0.596175
0.596142
0.235406
0.235391
0.240696
0.240681
0.624845
0.717852
0.637161
0.730529
0.250161
0.284122
0.255533
0.289668
0.889686
0.959382
0.90289
0.973319
0.344397
0.383167
0.35031
0.389253
0.929802
0.861583
0.944957
0.87598
0.37027
0.331905
0.376901
0.338309
0.690898
0.598617
0.704754
0.612081
0.272374
0.238759
0.278407
0.244604
0.55813
0.558099
0.571381
0.571349
0.224141
0.224127
0.229892
0.229877
0.59853
0.690768
0.611991
0.704619
0.238717
0.27231
0.244561
0.278341
0.861431
0.929635
0.875822
0.944784
0.331824
0.37018
0.338225
0.376807
0.896581
0.829941
0.913685
0.846245
0.355785
0.318046
0.363244
0.325153
0.660601
0.569368
0.676239
0.58442
0.259297
0.226148
0.266021
0.232617
0.529493
0.529465
0.544193
0.544163
0.211787
0.211774
0.218111
0.218098
0.569287
0.660481
0.584336
0.676113
0.22611
0.259238
0.232577
0.265959
0.829801
0.896428
0.846098
0.913525
0.317971
0.355702
0.325075
0.363158
0.85748
0.791623
0.877901
0.811955
0.338915
0.30199
0.347705
0.310391
0.624742
0.535956
0.643602
0.553269
0.244205
0.211977
0.252075
0.219281
0.497512
0.497487
0.513937
0.51391
0.198151
0.198139
0.205129
0.205117
0.535884
0.624634
0.553192
0.643487
0.211943
0.244152
0.219245
0.252019
0.791498
0.857342
0.811822
0.877755
0.301923
0.338841
0.31032
0.347627
0.809724
0.731827
0.83486
0.76666
0.317453
0.278471
0.329138
0.291999
0.577823
0.497453
0.603118
0.51728
0.225313
0.196007
0.235386
0.204188
0.462678
0.462656
0.480303
0.480279
0.183478
0.183468
0.190885
0.190874
0.49739
0.57773
0.517212
0.603017
0.195977
0.225268
0.204157
0.235337
0.73172
0.809605
0.766543
0.834732
0.278413
0.317388
0.291937
0.329069
0.453704
0.379223
0.172582
0.161898
0.372327
0.313726
0.0894732
0.11106
0.182401
0.0671004
0.0371222
0.00768913
0.134387
0.0409783
0.0214862
0.00505456
0.0241975
0.0241986
0.003938
0.00393812
0.011018
0.0110185
0.00325828
0.00325831
0.0671013
0.182398
0.00768965
0.0371239
0.0409791
0.134386
0.00505471
0.0214871
0.379215
0.453693
0.161902
0.172586
0.313722
0.372321
0.111064
0.0894808
0.830984
0.710487
0.66531
0.560257
0.71962
0.611285
0.570422
0.478472
0.465475
0.31398
0.330056
0.187072
0.380484
0.240633
0.264224
0.133634
0.241642
0.241636
0.11416
0.114159
0.174295
0.174291
0.0671023
0.0671022
0.313961
0.465442
0.187065
0.330039
0.240621
0.380461
0.13363
0.264214
0.710444
0.830933
0.560233
0.665281
0.611255
0.719584
0.478457
0.570403
1.08579
0.953861
0.967665
0.839602
0.941793
0.821545
0.839432
0.723248
0.701168
0.546337
0.588684
0.43448
0.580969
0.437535
0.485371
0.342624
0.473991
0.473976
0.362108
0.362097
0.371726
0.371715
0.276523
0.276516
0.546293
0.701098
0.434449
0.588634
0.437502
0.580916
0.342601
0.485334
0.953776
1.0857
0.839538
0.967592
0.821479
0.941717
0.723201
0.839377
1.2828
1.14823
1.18981
1.05602
1.11218
0.988679
1.03169
0.909314
0.897454
0.743699
0.80378
0.649272
0.748152
0.605323
0.668278
0.524993
0.671723
0.671699
0.577066
0.577047
0.539904
0.539885
0.459396
0.459381
0.74363
0.897347
0.649215
0.803692
0.605268
0.748067
0.524949
0.668209
1.1481
1.28266
1.05591
1.18969
0.988574
1.11207
0.909228
1.0316
1.44047
1.30617
1.36585
1.23122
1.24926
1.12519
1.1843
1.06031
1.05997
0.908456
0.982627
0.829928
0.887292
0.745869
0.82098
0.678808
0.8372
0.837168
0.758278
0.75825
0.680875
0.680849
0.613587
0.613564
0.908363
1.05983
0.829847
0.982503
0.745793
0.887176
0.678743
0.820879
1.306
1.44029
1.23107
1.36569
1.12505
1.2491
1.06019
1.18416
1.56665
1.43374
1.507
1.37333
1.3596
1.23609
1.30736
1.1835
1.1928
1.04395
1.12981
0.97962
1.00164
0.861964
0.947338
0.806777
0.973658
0.973619
0.908828
0.908792
0.797548
0.797516
0.742059
0.742029
1.04384
1.19263
0.979518
1.12965
0.86187
1.0015
0.806692
0.947207
1.43355
1.56643
1.37315
1.5068
1.23592
1.35941
1.18334
1.30719
1.66673
1.53562
1.61954
1.48753
1.44762
1.32512
1.40606
1.28304
1.29985
1.15373
1.24928
1.10182
1.09426
0.956437
1.05045
0.911714
1.0845
1.08446
1.03206
1.03201
0.892703
0.892665
0.847634
0.847599
1.15361
1.29966
1.1017
1.2491
0.956327
1.0941
0.911612
1.0503
1.5354
1.66649
1.48732
1.61932
1.32492
1.4474
1.28285
1.40586
1.74499
1.61574
1.70821
1.57806
1.51679
1.39546
1.48424
1.36234
1.38475
1.24123
1.34481
1.20004
1.16803
1.03203
1.13329
0.996405
1.17306
1.17301
1.13134
1.1313
0.969012
0.968969
0.933033
0.932993
1.24109
1.38454
1.1999
1.34462
1.03191
1.16784
0.996289
1.13312
1.6155
1.74473
1.57783
1.70797
1.39524
1.51655
1.36213
1.48402
1.805
1.67753
1.77694
1.64861
1.57007
1.44994
1.54513
1.42442
1.4508
1.30966
1.4199
1.27762
1.22564
1.09136
1.19866
1.06355
1.2425
1.24245
1.20997
1.20992
1.02904
1.029
1.0009
1.00085
1.30951
1.45058
1.27747
1.41969
1.09122
1.22544
1.06342
1.19847
1.67728
1.80473
1.64837
1.77668
1.4497
1.56981
1.42419
1.54488
1.84973
1.7239
1.82898
1.70236
1.60998
1.49099
1.59144
1.4719
1.50093
1.36193
1.47765
1.33763
1.26952
1.13681
1.24913
1.11567
1.29571
1.29565
1.27096
1.27091
1.07517
1.07512
1.0537
1.05365
1.36177
1.5007
1.33748
1.47743
1.13667
1.26931
1.11553
1.24892
1.72364
1.84946
1.70211
1.82871
1.49074
1.60971
1.47166
1.59118
1.88171
1.75736
1.86705
1.74199
1.63868
1.52076
1.6255
1.50706
1.53767
1.40057
1.5208
1.3828
1.30181
1.17052
1.28696
1.155
1.33519
1.33514
1.31701
1.31696
1.1095
1.10944
1.09367
1.09362
1.40042
1.53744
1.38264
1.52057
1.17037
1.30159
1.15485
1.28675
1.7571
1.88143
1.74173
1.86677
1.5205
1.6384
1.50681
1.62522
1.90299
1.78001
1.89345
1.76981
1.65796
1.54104
1.64929
1.53189
1.5632
1.42779
1.55169
1.41548
1.32434
1.19435
1.31416
1.18355
1.36317
1.36312
1.35049
1.35044
1.1339
1.13384
1.12282
1.12277
1.42763
1.56296
1.41532
1.55145
1.1942
1.32411
1.1834
1.31393
1.77974
1.90271
1.76955
1.89316
1.54078
1.65767
1.53162
1.649
1.91541
1.79367
1.91008
1.78775
1.66941
1.55344
1.66446
1.54804
1.57938
1.44547
1.57232
1.43771
1.33873
1.20991
1.33243
1.20306
1.38154
1.38149
1.37345
1.37339
1.14999
1.14993
1.14288
1.14282
1.44531
1.57914
1.43754
1.57208
1.20975
1.33849
1.2029
1.3322
1.7934
1.91513
1.78748
1.90979
1.55316
1.66911
1.54777
1.66416
1.9204
1.79981
1.91863
1.79749
1.67428
1.55921
1.67248
1.55698
1.58777
1.45522
1.58443
1.45124
1.34632
1.21858
1.34327
1.21502
1.39191
1.39186
1.38764
1.38758
1.15915
1.1591
1.15535
1.15529
1.45505
1.58752
1.45107
1.58419
1.21842
1.34608
1.21486
1.34304
1.79954
1.92011
1.79722
1.91834
1.55893
1.67397
1.5567
1.67218
1.91922
1.79972
1.92037
1.80035
1.67369
1.55949
1.67447
1.55986
1.58968
1.45836
1.58943
1.45753
1.34826
1.22152
1.3479
1.22069
1.39564
1.39558
1.39453
1.39447
1.16256
1.1625
1.1615
1.16145
1.45819
1.58943
1.45736
1.58918
1.22136
1.34801
1.22053
1.34766
1.79944
1.91892
1.80008
1.92007
1.5592
1.67338
1.55958
1.67417
1.91271
1.7943
1.91649
1.79755
1.66842
1.55512
1.67153
1.55779
1.5862
1.45608
1.58857
1.45784
1.34553
1.21978
1.34743
1.22118
1.39392
1.39386
1.39539
1.39533
1.16128
1.16122
1.16244
1.16238
1.4559
1.58594
1.45767
1.58831
1.21961
1.34526
1.22101
1.34718
1.79401
1.9124
1.79727
1.91619
1.55482
1.66808
1.55749
1.6712
1.9016
1.78426
1.9076
1.78974
1.65904
1.54666
1.66414
1.5513
1.57809
1.44917
1.58265
1.45313
1.33874
1.21402
1.34257
1.21733
1.38759
1.38753
1.39126
1.3912
1.156
1.15594
1.15907
1.15901
1.44899
1.57782
1.45295
1.58238
1.21384
1.33847
1.21716
1.3423
1.78395
1.90125
1.78944
1.90728
1.54633
1.65867
1.55099
1.66381
1.88656
1.77053
1.89431
1.7776
1.64636
1.53507
1.65289
1.54105
1.56642
1.43873
1.57259
1.44432
1.32889
1.20521
1.3341
1.20993
1.37772
1.37765
1.38304
1.38297
1.14767
1.14761
1.15216
1.1521
1.43854
1.56615
1.44414
1.57233
1.20503
1.32863
1.20976
1.33385
1.77028
1.88633
1.77735
1.89402
1.53485
1.64616
1.54078
1.65257
1.8699
1.75497
1.87834
1.76293
1.63215
1.52181
1.63934
1.52859
1.55233
1.42564
1.55964
1.43248
1.31693
1.19411
1.32314
1.19991
1.36513
1.36506
1.37172
1.37166
1.137
1.13693
1.14259
1.14253
1.42545
1.55203
1.43229
1.55935
1.19391
1.31657
1.19972
1.32283
1.75459
1.86948
1.76257
1.87798
1.52113
1.63139
1.52812
1.63893
1.85086
1.73708
1.86055
1.74617
1.61569
1.50643
1.62403
1.51419
1.53609
1.41041
1.54442
1.41826
1.30308
1.18114
1.31018
1.18783
1.35037
1.3503
1.35799
1.35793
1.12445
1.12438
1.13093
1.13086
1.41021
1.53579
1.41807
1.54412
1.18093
1.30272
1.18762
1.30983
1.73667
1.8504
1.74575
1.86009
1.50589
1.61508
1.51363
1.62335
1.83043
1.71777
1.84068
1.72752
1.59825
1.48999
1.60704
1.49832
1.51816
1.39341
1.52732
1.40211
1.28777
1.16666
1.29559
1.17407
1.33383
1.33376
1.34231
1.34224
1.11037
1.1103
1.11759
1.11751
1.39321
1.51785
1.40191
1.52701
1.16645
1.28741
1.17386
1.29522
1.71738
1.82998
1.72714
1.84025
1.48945
1.59761
1.49774
1.60637
1.80785
1.69653
1.81924
1.70718
1.57888
1.47178
1.58865
1.48093
1.49863
1.37487
1.50854
1.38431
1.27106
1.15085
1.27954
1.1589
1.31577
1.31571
1.32498
1.32491
1.09499
1.09492
1.10283
1.10276
1.37468
1.49835
1.38411
1.50825
1.15065
1.27074
1.15869
1.27921
1.69625
1.80756
1.70686
1.81886
1.47138
1.57844
1.48045
1.58808
1.78466
1.67456
1.79628
1.68564
1.55871
1.45278
1.56881
1.46234
1.47791
1.35506
1.48842
1.36512
1.25331
1.13394
1.26231
1.14252
1.29643
1.29636
1.30625
1.30619
1.0785
1.07843
1.08687
1.0868
1.35487
1.47762
1.36493
1.48812
1.13374
1.25298
1.14232
1.26198
1.6742
1.78424
1.6853
1.79592
1.45219
1.55804
1.46182
1.56828
1.75957
1.65093
1.77215
1.66273
1.53699
1.43243
1.54787
1.44257
1.45595
1.33409
1.46703
1.34471
1.2345
1.11603
1.24399
1.12509
1.27594
1.27588
1.28631
1.28625
1.06103
1.06097
1.06987
1.06981
1.33392
1.4557
1.34453
1.46677
1.11586
1.23424
1.12491
1.2437
1.65065
1.7593
1.66242
1.77181
1.43213
1.53665
1.44215
1.54733
1.73401
1.62676
1.74679
1.6389
1.5149
1.41167
1.52593
1.42207
1.43304
1.3121
1.44461
1.32322
1.21489
1.09725
1.22479
1.10674
1.25441
1.25435
1.2653
1.26524
1.04267
1.04262
1.05196
1.0519
1.31194
1.4328
1.32306
1.44437
1.0971
1.21463
1.10658
1.22453
1.62641
1.73362
1.63858
1.74647
1.4112
1.51442
1.42172
1.5256
1.70711
1.60137
1.72056
1.61406
1.4916
1.38978
1.50327
1.40073
1.4091
1.28909
1.42118
1.30072
1.19437
1.0776
1.20472
1.08753
1.23186
1.2318
1.24326
1.24321
1.02345
1.0234
1.03317
1.03311
1.28894
1.40888
1.30057
1.42094
1.07745
1.19414
1.08738
1.20447
1.60107
1.70677
1.61374
1.72019
1.38947
1.49123
1.40029
1.50276
1.67918
1.57497
1.69321
1.58825
1.46725
1.36692
1.47949
1.37841
1.38409
1.265
1.39673
1.27719
1.17291
1.05703
1.18375
1.06743
1.20823
1.20818
1.22019
1.22013
1.00331
1.00326
1.0135
1.01344
1.26485
1.38388
1.27704
1.39652
1.05688
1.17269
1.06729
1.18353
1.57475
1.67892
1.58797
1.69289
1.36667
1.46698
1.37813
1.47918
1.6497
1.54715
1.66453
1.56115
1.44162
1.34289
1.4545
1.35496
1.35781
1.23972
1.3711
1.25251
1.15037
1.03544
1.16176
1.04636
1.18345
1.18339
1.19599
1.19593
0.98219
0.982138
0.992874
0.992821
1.23957
1.3576
1.25236
1.37089
1.0353
1.15016
1.04621
1.16154
1.54692
1.64946
1.56092
1.66429
1.34264
1.44136
1.35472
1.45424
1.61879
1.51799
1.63431
1.53264
1.41477
1.31773
1.42825
1.33036
1.33025
1.2132
1.34417
1.22662
1.12676
1.01281
1.13869
1.02426
1.15744
1.15739
1.1706
1.17055
0.960043
0.959993
0.971246
0.971194
1.21306
1.33004
1.22647
1.34396
1.01267
1.12655
1.02411
1.13847
1.51777
1.61856
1.53241
1.63408
1.31749
1.41452
1.33012
1.42799
1.58658
1.48757
1.60274
1.50285
1.3868
1.29148
1.40084
1.30466
1.30141
1.18541
1.31598
1.19947
1.10205
0.9891
1.11453
1.00109
1.13017
1.13012
1.14397
1.14392
0.936817
0.936769
0.948567
0.948518
1.18526
1.30121
1.19932
1.31578
0.988963
1.10185
1.00095
1.11433
1.48735
1.58636
1.50263
1.60252
1.29126
1.38656
1.30443
1.40059
1.55306
1.45585
1.56989
1.47179
1.35768
1.26412
1.3723
1.27786
1.27123
1.15624
1.28649
1.171
1.0762
0.964228
1.08926
0.976812
1.10151
1.10146
1.11602
1.11597
0.912428
0.912381
0.924773
0.924725
1.1561
1.27104
1.17086
1.28629
0.964096
1.07601
0.976678
1.08907
1.45564
1.55285
1.47158
1.56967
1.26391
1.35745
1.27764
1.37206
1.51818
1.42273
1.5357
1.43939
1.32736
1.23556
1.34259
1.24992
1.23958
1.12556
1.25559
1.1411
1.0491
0.93807
1.0628
0.951316
1.07132
1.07127
1.08662
1.08657
0.886742
0.886697
0.899756
0.89971
1.12542
1.23939
1.14096
1.2554
0.937942
1.04891
0.951186
1.06261
1.42253
1.51797
1.43918
1.53549
1.23535
1.32714
1.24971
1.34236
1.48176
1.38806
1.50008
1.40552
1.29573
1.20564
1.31164
1.2207
1.20623
1.09312
1.22312
1.10957
1.02055
0.910431
1.03501
0.924448
1.03934
1.03929
1.05557
1.05552
0.859558
0.859514
0.873351
0.873306
1.09299
1.20605
1.10944
1.22294
0.910308
1.02037
0.924322
1.03483
1.38787
1.48156
1.40533
1.49988
1.20544
1.29551
1.2205
1.31142
1.44352
1.35149
1.4628
1.36996
1.26252
1.1741
1.27926
1.19002
1.17085
1.05856
1.18882
1.07613
0.990287
0.881015
1.00565
0.895965
1.00521
1.00517
1.02257
1.02253
0.830576
0.830534
0.845312
0.845269
1.05844
1.17068
1.076
1.18864
0.880897
0.990115
0.895844
1.00547
1.35131
1.44333
1.36977
1.4626
1.17391
1.26232
1.18982
1.27905
1.40295
1.31251
1.42348
1.33226
1.22732
1.14051
1.24512
1.15752
1.13289
1.02135
1.15223
1.04033
0.957844
0.849375
0.974364
0.865505
0.968416
0.968373
0.987189
0.987145
0.79936
0.79932
0.815279
0.815238
1.02123
1.13272
1.04021
1.15206
0.849263
0.957681
0.86539
0.974196
1.31233
1.40277
1.33208
1.42329
1.14032
1.22712
1.15733
1.24492
1.35913
1.27017
1.38144
1.29176
1.18931
1.10405
1.20865
1.12263
1.09144
0.980664
1.11267
1.00151
0.922461
0.814821
0.940575
0.832514
0.928181
0.92814
0.948783
0.948741
0.765275
0.765237
0.782721
0.782682
0.980551
1.09128
1.00139
1.1125
0.814715
0.922307
0.832405
0.940416
1.27001
1.35896
1.29159
1.38127
1.10388
1.18912
1.12246
1.20847
1.31022
1.22261
1.33539
1.24715
1.14685
1.06309
1.16871
1.08423
1.04486
0.935241
1.06893
0.958639
0.882706
0.776266
0.903252
0.796126
0.883514
0.883476
0.906465
0.906425
0.727466
0.727431
0.74689
0.746854
0.935136
1.04471
0.95853
1.06877
0.776168
0.882564
0.796024
0.903104
1.22246
1.31006
1.24699
1.33522
1.06294
1.14669
1.08406
1.16853
1.25284
1.16517
1.28276
1.19557
1.0967
1.01326
1.12293
1.03972
0.989838
0.883382
1.0187
0.910217
0.835513
0.732141
0.860328
0.755
0.833582
0.833548
0.859214
0.859178
0.685161
0.68513
0.706889
0.706856
0.883288
0.989706
0.910117
1.01856
0.732053
0.835386
0.754907
0.860193
1.16504
1.25271
1.19543
1.28261
1.01312
1.09655
1.03957
1.12277
1.18358
1.08003
1.21984
1.12864
1.03445
0.93705
1.06738
0.981002
0.920242
0.824529
0.957269
0.85466
0.774736
0.681677
0.807261
0.707573
0.779543
0.779513
0.806822
0.80679
0.639233
0.639206
0.662436
0.662406
0.824448
0.920131
0.854573
0.957147
0.681601
0.774627
0.707491
0.807142
1.07992
1.18347
1.12852
1.21972
0.936934
1.03433
0.980873
1.06724
0.562611
0.471571
0.273097
0.238934
0.515212
0.430736
0.230242
0.204611
0.253907
0.118408
0.077703
0.0171337
0.221816
0.0934199
0.0561178
0.0115859
0.0579388
0.0579398
0.00621445
0.0062148
0.0404285
0.0404293
0.00482374
0.00482389
0.118407
0.253895
0.0171353
0.077705
0.0934196
0.221808
0.0115867
0.05612
0.47155
0.562583
0.23893
0.273089
0.430722
0.515193
0.204611
0.230241
0.975092
0.843869
0.789134
0.671275
0.912097
0.784948
0.735042
0.622211
0.587757
0.427375
0.426204
0.271915
0.53283
0.375516
0.382929
0.232754
0.350852
0.350841
0.195988
0.195983
0.300354
0.300345
0.157456
0.157453
0.427341
0.587701
0.271897
0.426172
0.37549
0.532786
0.232741
0.382904
0.843798
0.975011
0.67123
0.789082
0.784891
0.912032
0.622177
0.735002
1.27413
1.13352
1.13415
0.99653
1.19153
1.05396
1.06128
0.927149
0.874115
0.711918
0.736985
0.574801
0.796444
0.636518
0.670419
0.510844
0.634966
0.634943
0.497901
0.497883
0.561052
0.561033
0.435436
0.435422
0.711851
0.874013
0.574751
0.736906
0.636463
0.796358
0.510803
0.670354
1.1334
1.27399
0.996433
1.13404
1.05385
1.19141
0.927068
1.06119
1.5093
1.36768
1.39824
1.25659
1.40953
1.27014
1.30663
1.1676
1.11355
0.953812
0.999375
0.838152
1.01632
0.858135
0.911449
0.752153
0.877574
0.877541
0.76145
0.761421
0.78317
0.783141
0.676854
0.67683
0.953716
1.11341
0.83807
0.999251
0.858052
1.01619
0.752083
0.911342
1.36751
1.50911
1.25644
1.39808
1.26999
1.40937
1.16747
1.30649
1.69701
1.55724
1.60831
1.46743
1.58362
1.44534
1.50132
1.36228
1.31076
1.15487
1.21708
1.05919
1.19774
1.04264
1.11149
0.95478
1.08002
1.07998
0.983589
0.983551
0.96873
0.968693
0.880294
0.880261
1.15475
1.31059
1.05908
1.21692
1.04254
1.19758
0.954684
1.11135
1.55704
1.69679
1.46724
1.6081
1.44515
1.58342
1.36211
1.50113
1.84628
1.70939
1.77584
1.63747
1.72239
1.58629
1.65686
1.51962
1.47086
1.31921
1.39508
1.24132
1.34544
1.19384
1.27547
1.12212
1.24604
1.24599
1.16729
1.16725
1.12127
1.12122
1.04886
1.04882
1.31908
1.47066
1.24119
1.39489
1.19372
1.34525
1.12201
1.2753
1.70916
1.84604
1.63726
1.77561
1.58608
1.72216
1.51942
1.65665
1.96393
1.83011
1.90856
1.77322
1.83202
1.69842
1.78039
1.64554
1.59904
1.45153
1.53859
1.38906
1.46401
1.3159
1.40805
1.25824
1.3801
1.38005
1.31677
1.31672
1.24475
1.24471
1.18638
1.18633
1.45138
1.59883
1.38892
1.53838
1.31577
1.46381
1.25811
1.40785
1.82987
1.96368
1.77299
1.90831
1.69819
1.83178
1.64532
1.78015
2.0554
1.92451
2.01249
1.88019
1.91745
1.7863
1.87735
1.74501
1.7001
1.5564
1.65264
1.5071
1.55772
1.41288
1.51368
1.36726
1.48663
1.48657
1.43652
1.43646
1.34311
1.34306
1.29682
1.29677
1.55625
1.69989
1.50695
1.65242
1.41273
1.55751
1.36712
1.51347
1.92427
2.05515
1.87995
2.01224
1.78606
1.91719
1.74477
1.87709
2.12516
1.99695
2.0926
1.96311
1.98274
1.85387
1.95224
1.82228
1.77835
1.63803
1.74179
1.59986
1.63042
1.48852
1.59644
1.45313
1.56977
1.56971
1.53087
1.53081
1.42004
1.41998
1.38402
1.38397
1.63787
1.77812
1.5997
1.74157
1.48836
1.6302
1.45298
1.59622