/*--------------------------------*- C++ -*----------------------------------*\
  =========                 |
  \\      /  F ield         | OpenFOAM: The Open Source CFD Toolbox
   \\    /   O peration     | Website:  https://openfoam.org
    \\  /    A nd           | Version:  9
     \\/     M anipulation  |
\*---------------------------------------------------------------------------*/
FoamFile
{
    format      ascii;
    class       volScalarField;
    location    "0.5";
    object      p;
}
// * * * * * * * * * * * * * * * * * * * * * * * * * * * * * * * * * * * * * //

dimensions      [0 2 -2 0 0 0 0];

internalField   nonuniform List<scalar> 
4545
(
20.1008
20.095
20.1006
20.095
20.1007
20.1004
20.1044
20.1067
20.1043
20.1001
20.0944
20.1179
20.1132
20.1177
20.0937
20.0909
20.1288
20.1182
20.1287
20.0912
20.0846
20.1424
20.1244
20.1425
20.0865
20.0765
20.156
20.1322
20.156
20.0782
20.0706
20.1668
20.1404
20.1668
20.0713
20.0657
20.1749
20.148
20.1749
20.0662
20.0625
20.1814
20.155
20.1816
20.0621
20.0614
20.1866
20.1612
20.1871
20.0597
20.0609
20.1905
20.1663
20.1908
20.0608
20.0626
20.1941
20.1709
20.1943
20.062
20.0643
20.1976
20.1754
20.1978
20.0636
20.0668
20.2003
20.1792
20.2007
20.0662
20.0703
20.2027
20.1827
20.2031
20.0697
20.0733
20.2057
20.186
20.2055
20.0731
20.0765
20.2089
20.1895
20.2085
20.0762
20.08
20.212
20.1931
20.2118
20.0804
20.0842
20.215
20.1967
20.2151
20.0842
20.0885
20.2182
20.2003
20.2184
20.0879
20.0928
20.2219
20.2041
20.222
20.0912
20.0971
20.2256
20.2079
20.2254
20.0963
20.1007
20.2295
20.2119
20.2293
20.1007
20.105
20.2338
20.2162
20.2337
20.105
20.1109
20.2378
20.2204
20.2381
20.1098
20.1163
20.242
20.2248
20.2422
20.1153
20.1207
20.2464
20.2292
20.2464
20.1207
20.1262
20.2507
20.2337
20.2508
20.1257
20.1314
20.2552
20.2382
20.2551
20.1314
20.1364
20.2599
20.2427
20.2594
20.1373
20.142
20.2644
20.2472
20.264
20.1425
20.148
20.2691
20.2517
20.269
20.1476
20.1535
20.2734
20.2562
20.2734
20.1539
20.1578
20.2776
20.2604
20.2774
20.1587
20.1642
20.2812
20.2644
20.2812
20.164
20.1697
20.2846
20.2682
20.2846
20.1701
20.1748
20.2881
20.2719
20.288
20.1752
20.1806
20.2913
20.2753
20.2913
20.1795
20.1855
20.2941
20.2786
20.2943
20.1834
20.0963
20.104
20.106
20.104
20.0963
20.1138
20.0947
20.1095
20.0948
20.1141
20.1499
20.083
20.1081
20.0829
20.1496
20.1728
20.0885
20.1076
20.0885
20.1725
20.1739
20.1018
20.1113
20.1018
20.1736
20.1657
20.1143
20.1182
20.1144
20.1655
20.1571
20.1248
20.1262
20.1249
20.157
20.1507
20.133
20.1341
20.133
20.1507
20.1465
20.14
20.1415
20.1398
20.1468
20.1443
20.1459
20.148
20.1455
20.1447
20.1432
20.1504
20.1533
20.15
20.1437
20.1435
20.1541
20.1581
20.1539
20.1437
20.1447
20.1576
20.1627
20.1581
20.1445
20.1461
20.1612
20.167
20.1619
20.1457
20.1479
20.1651
20.1709
20.1652
20.1477
20.1503
20.1686
20.1747
20.1684
20.15
20.1529
20.1719
20.1784
20.1718
20.1525
20.1556
20.1758
20.1822
20.1754
20.1559
20.1587
20.1797
20.1859
20.1793
20.1588
20.1621
20.1834
20.1898
20.1835
20.1617
20.1661
20.1874
20.1937
20.1876
20.1656
20.1698
20.1916
20.1977
20.1917
20.1699
20.1736
20.1966
20.202
20.196
20.1736
20.1777
20.2017
20.2065
20.201
20.1777
20.1814
20.2063
20.2111
20.207
20.1818
20.186
20.2115
20.2158
20.2119
20.186
20.1908
20.2166
20.2204
20.2163
20.1909
20.1953
20.2211
20.2251
20.2209
20.1951
20.2004
20.2255
20.2298
20.225
20.2005
20.2045
20.2299
20.2345
20.2292
20.2055
20.2091
20.2349
20.2393
20.2344
20.2101
20.2146
20.2395
20.2439
20.2391
20.215
20.2194
20.2442
20.2483
20.2435
20.2193
20.2241
20.2492
20.2525
20.2489
20.2247
20.229
20.2538
20.2568
20.254
20.2293
20.2338
20.2581
20.2608
20.2583
20.234
20.2384
20.2623
20.2646
20.2624
20.2387
20.2427
20.2664
20.2682
20.2667
20.2426
20.2468
20.27
20.2716
20.2704
20.2464
20.0964
20.0982
20.1029
20.0982
20.0964
20.1217
20.0811
20.1044
20.0812
20.1218
20.1744
20.0604
20.0986
20.0603
20.1744
20.211
20.0583
20.0906
20.0584
20.2109
20.2188
20.0696
20.0889
20.0698
20.2185
20.2132
20.0824
20.0935
20.0826
20.213
20.2053
20.0935
20.1012
20.0936
20.2052
20.199
20.1019
20.1093
20.102
20.1991
20.1946
20.1086
20.1171
20.1082
20.1952
20.192
20.1142
20.1241
20.1133
20.1932
20.1908
20.1184
20.1304
20.1182
20.1919
20.1906
20.1222
20.136
20.1223
20.1915
20.1914
20.1256
20.141
20.1257
20.1921
20.1925
20.1294
20.1458
20.1289
20.1929
20.1942
20.1331
20.1502
20.1322
20.1943
20.1965
20.1354
20.1544
20.1354
20.196
20.1988
20.1384
20.1585
20.1387
20.1982
20.2011
20.1429
20.1627
20.1425
20.2012
20.2037
20.1472
20.1668
20.1466
20.2042
20.2065
20.1514
20.1709
20.1506
20.2073
20.2101
20.1551
20.1752
20.1548
20.2105
20.2139
20.1586
20.1795
20.1594
20.2135
20.217
20.1632
20.1841
20.1637
20.2172
20.2211
20.168
20.1888
20.1679
20.2212
20.2249
20.1725
20.1936
20.1722
20.2254
20.2285
20.1776
20.1984
20.1772
20.2289
20.2329
20.1833
20.2033
20.1832
20.2327
20.237
20.1885
20.2081
20.1888
20.237
20.242
20.1933
20.213
20.1937
20.2417
20.2469
20.1984
20.218
20.1988
20.2464
20.251
20.2037
20.2229
20.204
20.2509
20.2557
20.2091
20.2277
20.209
20.2555
20.2606
20.2145
20.2324
20.2142
20.2602
20.2649
20.2195
20.237
20.2194
20.2648
20.2694
20.2238
20.2414
20.2242
20.2695
20.274
20.2278
20.2455
20.2284
20.274
20.2784
20.2319
20.2495
20.2324
20.2784
20.2825
20.2361
20.2532
20.2362
20.2826
20.2865
20.2394
20.2565
20.2393
20.2868
20.0962
20.0996
20.1044
20.0996
20.0963
20.1212
20.0843
20.1059
20.0843
20.1212
20.1722
20.0655
20.0988
20.0655
20.1722
20.2088
20.0652
20.09
20.0652
20.2088
20.2163
20.0785
20.0886
20.0785
20.2162
20.21
20.0925
20.094
20.0925
20.2099
20.2016
20.1043
20.102
20.1042
20.2016
20.1947
20.113
20.1103
20.113
20.195
20.1902
20.1195
20.1177
20.1194
20.1907
20.1874
20.1249
20.1243
20.1246
20.1878
20.1858
20.1295
20.1304
20.1298
20.186
20.1854
20.1346
20.1359
20.134
20.1856
20.1859
20.1385
20.1406
20.1371
20.1862
20.1872
20.1412
20.1447
20.1408
20.1872
20.1888
20.1446
20.1487
20.1449
20.1885
20.1906
20.149
20.1528
20.1489
20.1905
20.1927
20.153
20.1569
20.1523
20.1932
20.1955
20.1557
20.1609
20.156
20.1957
20.1985
20.1586
20.1648
20.1595
20.1984
20.2018
20.1625
20.1688
20.1625
20.2017
20.2053
20.1662
20.1729
20.1664
20.2052
20.2085
20.1698
20.1771
20.17
20.2083
20.2118
20.1739
20.1813
20.1734
20.212
20.2164
20.1783
20.1858
20.1781
20.2159
20.2205
20.1828
20.1904
20.1829
20.2202
20.2238
20.1872
20.195
20.1872
20.2245
20.229
20.1913
20.1995
20.1913
20.2284
20.233
20.1958
20.2041
20.1954
20.2323
20.2365
20.201
20.2091
20.2009
20.2369
20.2415
20.2058
20.214
20.2063
20.2412
20.2471
20.21
20.2187
20.2105
20.2462
20.2515
20.2147
20.2233
20.2144
20.2521
20.2558
20.22
20.2279
20.2192
20.2561
20.2611
20.2248
20.2324
20.2244
20.2596
20.2655
20.2287
20.2367
20.229
20.265
20.2695
20.2322
20.2408
20.2331
20.2703
20.2747
20.2363
20.2447
20.2366
20.2745
20.2788
20.2401
20.2483
20.2398
20.2791
20.283
20.2428
20.2515
20.2427
20.2835
20.0961
20.098
20.1035
20.098
20.0961
20.1201
20.0832
20.1044
20.0831
20.1201
20.1693
20.0664
20.0971
20.0664
20.1693
20.2051
20.068
20.0873
20.068
20.2051
20.2119
20.083
20.0851
20.083
20.2118
20.2047
20.0982
20.0903
20.0982
20.2046
20.1958
20.1103
20.0984
20.1103
20.1958
20.1886
20.1194
20.1068
20.1186
20.1889
20.1837
20.1256
20.115
20.1252
20.1842
20.1807
20.1307
20.1224
20.1313
20.1807
20.1786
20.1355
20.1287
20.1364
20.1789
20.1783
20.1397
20.1343
20.1398
20.1784
20.1789
20.1432
20.1391
20.1432
20.1786
20.18
20.1459
20.1433
20.1466
20.1794
20.1815
20.1488
20.147
20.1496
20.1814
20.183
20.1531
20.1509
20.1526
20.1832
20.1852
20.1566
20.1548
20.1562
20.1853
20.188
20.1591
20.1584
20.1595
20.188
20.1907
20.1623
20.1621
20.1625
20.1906
20.194
20.1659
20.1662
20.1664
20.1936
20.1968
20.1699
20.1704
20.1703
20.1969
20.1996
20.174
20.1744
20.1737
20.2001
20.2033
20.1778
20.1784
20.1777
20.2029
20.2075
20.1816
20.1826
20.1821
20.2069
20.2119
20.1855
20.1869
20.1863
20.2113
20.2155
20.1892
20.1911
20.19
20.2149
20.2197
20.1936
20.1955
20.1938
20.2192
20.2238
20.1984
20.2001
20.1985
20.2236
20.2275
20.2029
20.2047
20.2035
20.2274
20.2322
20.2077
20.2095
20.2079
20.232
20.237
20.2129
20.2142
20.2122
20.2367
20.2417
20.2177
20.2188
20.2167
20.2415
20.2462
20.2217
20.2232
20.2209
20.2465
20.2507
20.2251
20.2274
20.2251
20.2507
20.2557
20.2295
20.2316
20.23
20.255
20.26
20.2341
20.2358
20.2346
20.2601
20.2651
20.2376
20.2396
20.2382
20.2648
20.27
20.2407
20.243
20.2413
20.2696
20.2735
20.2435
20.2463
20.244
20.2738
20.0959
20.0985
20.1039
20.0985
20.0959
20.1191
20.0843
20.1052
20.0843
20.1191
20.167
20.0682
20.0981
20.0682
20.167
20.202
20.0706
20.0886
20.0706
20.2019
20.208
20.0864
20.0868
20.0865
20.208
20.2002
20.1022
20.0921
20.1023
20.2002
20.1907
20.115
20.0999
20.115
20.1907
20.1831
20.1242
20.1087
20.1242
20.1831
20.178
20.1309
20.117
20.1308
20.1779
20.1745
20.1362
20.1242
20.1357
20.1751
20.1725
20.1405
20.1303
20.1397
20.1736
20.1726
20.1435
20.1355
20.1439
20.1726
20.1734
20.1463
20.1399
20.1473
20.1729
20.1739
20.1497
20.144
20.1499
20.1741
20.1751
20.1529
20.1478
20.1532
20.1752
20.1768
20.156
20.1515
20.1568
20.1764
20.179
20.1595
20.1551
20.1598
20.1783
20.1814
20.1624
20.1584
20.1622
20.1815
20.1837
20.165
20.1615
20.1647
20.1841
20.1863
20.1686
20.1653
20.1685
20.1866
20.189
20.1722
20.1694
20.1723
20.1897
20.1926
20.1751
20.173
20.1755
20.1927
20.1961
20.1784
20.1767
20.1794
20.1954
20.1993
20.1822
20.1805
20.183
20.1988
20.2027
20.186
20.1844
20.1863
20.2031
20.2069
20.1901
20.1885
20.1899
20.2069
20.2101
20.1943
20.1925
20.1938
20.2104
20.2144
20.1986
20.1968
20.1981
20.2142
20.2187
20.2024
20.2012
20.2027
20.2182
20.2235
20.2062
20.2056
20.207
20.2233
20.2274
20.2107
20.2099
20.2114
20.2271
20.2309
20.2158
20.2143
20.2157
20.2311
20.2357
20.22
20.2185
20.219
20.2362
20.2405
20.2235
20.2225
20.223
20.2407
20.2455
20.2276
20.2267
20.2281
20.245
20.2505
20.2315
20.2308
20.2327
20.2496
20.2545
20.2354
20.2345
20.2362
20.2541
20.2581
20.2392
20.2379
20.2393
20.2587
20.2626
20.2418
20.241
20.2418
20.2629
20.0957
20.0982
20.1036
20.0982
20.0957
20.1183
20.0842
20.105
20.0843
20.1183
20.1653
20.0686
20.0981
20.0686
20.1652
20.1997
20.0717
20.0888
20.0717
20.1996
20.2053
20.088
20.0873
20.088
20.2052
20.197
20.1042
20.0928
20.1042
20.1969
20.1871
20.1173
20.1009
20.117
20.1871
20.1792
20.1263
20.1101
20.1262
20.1791
20.174
20.1326
20.1188
20.1328
20.1735
20.1706
20.1378
20.126
20.1376
20.1707
20.1688
20.1419
20.132
20.1418
20.169
20.1682
20.145
20.1369
20.1455
20.1682
20.1686
20.1481
20.1411
20.1482
20.1686
20.1689
20.1514
20.1449
20.1508
20.1697
20.1701
20.1543
20.1485
20.1537
20.1709
20.1721
20.1567
20.1518
20.1569
20.1721
20.1739
20.1595
20.1551
20.1601
20.1735
20.1761
20.1627
20.1583
20.1627
20.1759
20.1779
20.1656
20.1613
20.165
20.1784
20.1805
20.1681
20.1643
20.1679
20.1806
20.1834
20.1705
20.1675
20.1713
20.1834
20.1861
20.1735
20.1709
20.1747
20.1863
20.1891
20.177
20.1743
20.1777
20.189
20.192
20.1809
20.1779
20.1804
20.1924
20.1943
20.1849
20.1817
20.1839
20.1951
20.1982
20.1886
20.1854
20.188
20.1978
20.2015
20.1922
20.189
20.1917
20.2018
20.2051
20.1953
20.1928
20.1955
20.2062
20.2097
20.1986
20.1968
20.199
20.2088
20.2139
20.2025
20.2007
20.2025
20.213
20.2172
20.2069
20.2046
20.2067
20.2178
20.2211
20.2111
20.2087
20.211
20.2216
20.2255
20.2154
20.2129
20.2151
20.2256
20.2299
20.2199
20.217
20.2187
20.2293
20.2345
20.2235
20.2208
20.2225
20.2344
20.2383
20.2262
20.2244
20.2265
20.239
20.2425
20.2302
20.2279
20.2305
20.2427
20.2464
20.2341
20.2311
20.2339
20.2469
20.2513
20.2361
20.2342
20.2366
20.2519
20.0956
20.0985
20.1037
20.0985
20.0956
20.1176
20.0847
20.1052
20.0847
20.1176
20.1641
20.0691
20.0986
20.0691
20.1641
20.1982
20.0723
20.0894
20.0722
20.1982
20.2035
20.0888
20.088
20.0888
20.2036
20.1949
20.1051
20.0936
20.1052
20.195
20.1848
20.1182
20.1018
20.1181
20.1846
20.1767
20.1271
20.111
20.1267
20.1769
20.1716
20.1328
20.1195
20.1325
20.1714
20.1683
20.1374
20.1267
20.1379
20.1676
20.1661
20.1421
20.133
20.1429
20.1655
20.1647
20.1463
20.1381
20.1465
20.1647
20.1648
20.1489
20.1422
20.1494
20.1649
20.1657
20.1512
20.1455
20.1514
20.1657
20.1667
20.1537
20.1485
20.1533
20.1674
20.1678
20.1566
20.1515
20.156
20.1687
20.1694
20.1593
20.1545
20.1583
20.1703
20.1718
20.1611
20.1571
20.1607
20.1723
20.1744
20.1632
20.1599
20.1639
20.1734
20.1762
20.1655
20.1626
20.1663
20.1751
20.1784
20.1683
20.1654
20.1683
20.1776
20.1794
20.1717
20.1686
20.1715
20.1802
20.1822
20.1747
20.1716
20.1745
20.1827
20.1849
20.1778
20.1747
20.1773
20.1857
20.1874
20.1809
20.1777
20.1802
20.1885
20.1908
20.1835
20.1808
20.183
20.1902
20.1938
20.1866
20.1841
20.1867
20.1926
20.1968
20.1894
20.1874
20.1902
20.197
20.2005
20.1922
20.1908
20.1933
20.2002
20.2032
20.1966
20.1944
20.1966
20.2026
20.2066
20.2007
20.1979
20.1998
20.2066
20.21
20.2038
20.2016
20.2037
20.2108
20.214
20.2078
20.2054
20.2077
20.2147
20.2184
20.2118
20.2091
20.2112
20.2183
20.2224
20.2152
20.2126
20.2151
20.222
20.2266
20.2183
20.2159
20.218
20.2261
20.2303
20.2215
20.219
20.2215
20.2308
20.2336
20.2248
20.2222
20.2253
20.2347
20.2392
20.227
20.2251
20.2277
20.239
20.0954
20.0985
20.1037
20.0985
20.0954
20.1171
20.0849
20.1053
20.0849
20.1171
20.1633
20.0692
20.0987
20.0692
20.1633
20.1973
20.0724
20.0896
20.0723
20.1973
20.2026
20.0889
20.0882
20.0889
20.2026
20.1938
20.1053
20.094
20.1054
20.1938
20.1833
20.1184
20.1022
20.1183
20.1832
20.175
20.1272
20.1115
20.1266
20.1753
20.1696
20.1329
20.1199
20.1323
20.1699
20.1663
20.1372
20.1269
20.1378
20.1657
20.1639
20.1416
20.1329
20.1419
20.1639
20.1628
20.1455
20.1379
20.1451
20.1631
20.1624
20.1483
20.142
20.1489
20.1626
20.1629
20.151
20.1455
20.1518
20.1625
20.1638
20.153
20.1481
20.1534
20.1635
20.1651
20.1546
20.1504
20.1547
20.1653
20.1667
20.1566
20.1528
20.1564
20.1671
20.1681
20.1591
20.1554
20.1589
20.1682
20.1701
20.1611
20.1579
20.1612
20.1697
20.1714
20.1629
20.1602
20.1634
20.1706
20.1727
20.166
20.1629
20.1662
20.172
20.1739
20.169
20.1656
20.1683
20.1739
20.176
20.1712
20.1679
20.1704
20.1764
20.1785
20.1726
20.1701
20.1729
20.1783
20.1809
20.1741
20.1722
20.1747
20.1814
20.1829
20.1769
20.1747
20.1768
20.1833
20.185
20.1796
20.1775
20.18
20.184
20.1877
20.182
20.1803
20.1828
20.1875
20.1907
20.1852
20.1832
20.1856
20.1907
20.1928
20.1879
20.186
20.1883
20.1931
20.1962
20.1904
20.1887
20.1902
20.1948
20.1991
20.1939
20.1918
20.1932
20.1984
20.2017
20.1975
20.1952
20.1969
20.2018
20.2041
20.2003
20.1984
20.2005
20.2047
20.2089
20.2039
20.2015
20.2036
20.2084
20.2123
20.2071
20.2044
20.206
20.212
20.2161
20.2095
20.2072
20.2092
20.2155
20.2203
20.2121
20.2101
20.213
20.2209
20.225
20.2144
20.2128
20.2154
20.2238
20.0954
20.0987
20.1037
20.0987
20.0954
20.1168
20.0851
20.1053
20.0851
20.1168
20.1627
20.0693
20.0987
20.0693
20.1627
20.1967
20.0722
20.0896
20.0722
20.1967
20.2021
20.0887
20.0882
20.0887
20.2021
20.1933
20.105
20.0938
20.1051
20.1932
20.1828
20.1178
20.1019
20.1178
20.1826
20.1744
20.1267
20.1112
20.1263
20.1744
20.1686
20.1325
20.1197
20.1323
20.1688
20.1649
20.1369
20.1266
20.1374
20.1645
20.1625
20.1411
20.1324
20.1412
20.1624
20.1611
20.1448
20.1372
20.1444
20.1615
20.1605
20.1475
20.141
20.1473
20.161
20.161
20.1495
20.1441
20.1498
20.1613
20.1617
20.1513
20.1466
20.1516
20.1614
20.1627
20.1528
20.1487
20.1529
20.1625
20.164
20.1542
20.1509
20.155
20.1634
20.1649
20.1565
20.1532
20.1572
20.1643
20.166
20.1583
20.155
20.158
20.1661
20.1668
20.1603
20.1568
20.159
20.1674
20.1672
20.1625
20.1589
20.1616
20.1679
20.1694
20.1636
20.161
20.1642
20.1687
20.1709
20.165
20.1627
20.1658
20.17
20.1716
20.1663
20.1641
20.1669
20.1716
20.1732
20.1675
20.1657
20.1685
20.1729
20.1747
20.1694
20.1675
20.1698
20.1754
20.1769
20.1715
20.1693
20.1708
20.1763
20.1769
20.1737
20.1715
20.1736
20.1776
20.1791
20.1756
20.1736
20.1763
20.1786
20.1827
20.1769
20.1753
20.1773
20.1813
20.1841
20.1792
20.1772
20.1781
20.1825
20.1849
20.182
20.1795
20.1803
20.1844
20.1865
20.1845
20.182
20.1831
20.1874
20.1886
20.1872
20.1847
20.1864
20.1893
20.1926
20.1897
20.1871
20.189
20.1921
20.1968
20.1919
20.1894
20.1908
20.1966
20.2002
20.1936
20.1918
20.1932
20.1996
20.2041
20.1958
20.1946
20.197
20.203
20.2071
20.1984
20.1975
20.2002
20.2067
20.0953
20.0988
20.1037
20.0988
20.0953
20.1165
20.0852
20.1053
20.0852
20.1165
20.1623
20.0693
20.0986
20.0693
20.1623
20.1966
20.0719
20.0894
20.072
20.1965
20.2021
20.0883
20.0878
20.0883
20.202
20.1933
20.1044
20.0932
20.1045
20.1932
20.1828
20.117
20.1011
20.117
20.1828
20.1744
20.1256
20.1103
20.1255
20.1741
20.1685
20.1315
20.1188
20.132
20.168
20.1643
20.1365
20.1258
20.1369
20.1641
20.1615
20.1407
20.1313
20.1405
20.1615
20.1605
20.1435
20.1356
20.1429
20.1607
20.16
20.1457
20.1389
20.1448
20.1605
20.1595
20.1479
20.1421
20.1474
20.1601
20.1603
20.1494
20.1445
20.1495
20.1601
20.1611
20.1504
20.1463
20.1506
20.1606
20.161
20.1524
20.1482
20.1522
20.1609
20.1616
20.1538
20.1498
20.1535
20.1619
20.1627
20.1542
20.151
20.1544
20.1629
20.1637
20.1555
20.1524
20.1554
20.1637
20.1641
20.1568
20.1538
20.1563
20.1639
20.1643
20.1577
20.1552
20.1582
20.1647
20.165
20.1583
20.1562
20.1592
20.1644
20.1649
20.1594
20.1571
20.1595
20.1653
20.1653
20.161
20.1581
20.1607
20.1655
20.1658
20.1614
20.1589
20.1611
20.1663
20.1662
20.1621
20.1596
20.161
20.1665
20.1669
20.1629
20.1607
20.1628
20.1663
20.1675
20.1631
20.1615
20.1647
20.1675
20.1676
20.1642
20.1621
20.1643
20.1683
20.169
20.1657
20.1631
20.1644
20.1698
20.1693
20.1669
20.1644
20.1658
20.1693
20.1702
20.1679
20.1655
20.1668
20.1696
20.1719
20.1689
20.1667
20.1679
20.1702
20.1729
20.1696
20.168
20.1692
20.1725
20.1758
20.1706
20.1696
20.1713
20.1758
20.1796
20.1724
20.1715
20.1739
20.1794
20.1828
20.175
20.1739
20.1763
20.1823
20.1845
20.1773
20.1766
20.1782
20.1859
20.0953
20.099
20.1038
20.099
20.0953
20.1164
20.0854
20.1052
20.0854
20.1164
20.1623
20.0692
20.0984
20.0692
20.1622
20.1968
20.0715
20.089
20.0715
20.1967
20.2026
20.0875
20.0871
20.0875
20.2025
20.1939
20.1035
20.0922
20.1036
20.1938
20.1832
20.1162
20.1
20.1162
20.1831
20.1747
20.125
20.109
20.1248
20.1746
20.1688
20.1307
20.1174
20.1308
20.1685
20.1648
20.1348
20.124
20.1352
20.1645
20.162
20.1386
20.1293
20.1385
20.1619
20.1605
20.1418
20.1335
20.1411
20.1604
20.1602
20.1433
20.1366
20.1433
20.1599
20.1597
20.1449
20.1394
20.1454
20.1591
20.1592
20.1471
20.1417
20.1472
20.159
20.1592
20.1486
20.1436
20.1484
20.1589
20.1593
20.1497
20.145
20.149
20.1594
20.1595
20.15
20.1459
20.1491
20.1603
20.16
20.15
20.1466
20.1498
20.1604
20.1608
20.1507
20.1475
20.1511
20.16
20.1601
20.1517
20.1484
20.1519
20.1599
20.1595
20.1526
20.149
20.1516
20.1601
20.1596
20.1518
20.1489
20.1514
20.1604
20.159
20.1512
20.1489
20.1515
20.159
20.1582
20.1517
20.1489
20.1512
20.1586
20.1575
20.1514
20.1488
20.1513
20.1578
20.1561
20.1505
20.1483
20.151
20.1565
20.1556
20.1501
20.1477
20.1496
20.1556
20.1553
20.1491
20.147
20.1494
20.1545
20.1533
20.1476
20.1463
20.1491
20.1527
20.1523
20.1473
20.1458
20.1482
20.1519
20.1502
20.1475
20.1454
20.1471
20.1521
20.1488
20.1468
20.1447
20.1463
20.1504
20.1493
20.1453
20.144
20.1457
20.1483
20.1485
20.144
20.1435
20.145
20.1478
20.1499
20.1445
20.1438
20.1456
20.1495
20.1509
20.1462
20.1449
20.1464
20.1513
20.1521
20.1481
20.1468
20.1481
20.1539
20.155
20.1501
20.1493
20.1499
20.1561
20.0953
20.0989
20.1036
20.0989
20.0953
20.1165
20.0853
20.1049
20.0853
20.1165
20.1626
20.0688
20.098
20.0688
20.1626
20.1975
20.0706
20.0883
20.0706
20.1975
20.2038
20.0863
20.0861
20.0862
20.2038
20.1953
20.102
20.0908
20.1019
20.1954
20.1846
20.1147
20.0984
20.1145
20.1847
20.176
20.1233
20.107
20.1231
20.176
20.1702
20.1287
20.1151
20.1289
20.1699
20.166
20.133
20.1216
20.1333
20.1655
20.1631
20.1365
20.1268
20.1368
20.1627
20.1617
20.1388
20.1307
20.1394
20.1608
20.1607
20.1405
20.1337
20.141
20.1602
20.1601
20.1421
20.136
20.1421
20.1596
20.1595
20.1436
20.138
20.1431
20.1593
20.1589
20.1451
20.1398
20.1444
20.1588
20.1585
20.1459
20.1412
20.1458
20.1583
20.1582
20.1463
20.1419
20.146
20.1585
20.1582
20.1463
20.1421
20.146
20.1578
20.1581
20.1454
20.142
20.1457
20.1577
20.1574
20.1457
20.1421
20.1453
20.158
20.1557
20.146
20.1421
20.1451
20.1565
20.1545
20.1445
20.1413
20.1442
20.1555
20.1535
20.1429
20.1401
20.1427
20.1538
20.1514
20.1423
20.1391
20.1416
20.1518
20.1492
20.1404
20.1376
20.1403
20.1483
20.1471
20.1378
20.1355
20.1386
20.1469
20.1438
20.136
20.1331
20.1353
20.1436
20.1401
20.133
20.1303
20.1319
20.1414
20.1361
20.1289
20.1276
20.13
20.137
20.1323
20.1261
20.1249
20.128
20.1331
20.1293
20.1236
20.122
20.1244
20.1293
20.1252
20.1201
20.1185
20.1211
20.1262
20.1231
20.1159
20.115
20.1175
20.1245
20.1174
20.112
20.1118
20.1139
20.1197
20.1133
20.1105
20.1096
20.1115
20.1149
20.1136
20.1105
20.1083
20.1093
20.1115
20.112
20.1096
20.108
20.1087
20.1118
20.1131
20.1091
20.109
20.1091
20.1137
20.0954
20.0996
20.104
20.0996
20.0954
20.1168
20.0857
20.1052
20.0857
20.1168
20.1635
20.0683
20.0978
20.0683
20.1635
20.1992
20.0692
20.0877
20.0692
20.1992
20.2061
20.0842
20.085
20.0842
20.2061
20.1979
20.0993
20.0893
20.0993
20.198
20.1876
20.1115
20.0964
20.1113
20.1878
20.1791
20.1201
20.1045
20.1198
20.1792
20.1729
20.1259
20.1119
20.1256
20.1729
20.1685
20.1301
20.1182
20.1297
20.1687
20.1658
20.133
20.1233
20.1334
20.1654
20.164
20.1351
20.1272
20.1361
20.1633
20.1624
20.1376
20.1302
20.1373
20.1623
20.1615
20.139
20.1325
20.1378
20.1618
20.1612
20.1392
20.1341
20.1387
20.1609
20.16
20.1404
20.1357
20.1397
20.1602
20.1589
20.1417
20.1367
20.1405
20.1595
20.1589
20.141
20.1371
20.1412
20.1581
20.1586
20.1394
20.1371
20.1413
20.1569
20.1576
20.1386
20.1365
20.1404
20.1563
20.1557
20.1387
20.1358
20.139
20.1555
20.1533
20.1379
20.135
20.1377
20.1535
20.1508
20.1358
20.1334
20.1358
20.1516
20.1485
20.1338
20.1312
20.1332
20.1501
20.1457
20.1316
20.1291
20.131
20.1452
20.1413
20.1279
20.126
20.1285
20.1409
20.1372
20.1241
20.122
20.1239
20.1374
20.1327
20.1202
20.1173
20.1186
20.1336
20.1267
20.1138
20.1121
20.1146
20.1272
20.12
20.1072
20.1065
20.1094
20.1194
20.1118
20.1018
20.1004
20.1019
20.1146
20.1024
20.095
20.0934
20.0947
20.1061
20.0974
20.0874
20.086
20.0883
20.0987
20.0895
20.0795
20.0783
20.0796
20.0892
20.0813
20.0713
20.0708
20.0719
20.0789
20.0706
20.0647
20.0641
20.066
20.0683
20.0626
20.0607
20.0587
20.0603
20.0617
20.0579
20.0568
20.0551
20.0555
20.0574
20.0554
20.0532
20.0543
20.0531
20.0564
20.0955
20.0989
20.1034
20.0989
20.0955
20.1174
20.0848
20.1044
20.0848
20.1174
20.1651
20.0668
20.0971
20.0668
20.1651
20.2019
20.0665
20.0869
20.0665
20.2019
20.2096
20.0804
20.0839
20.0804
20.2097
20.2021
20.0948
20.0879
20.0947
20.2022
20.1922
20.1062
20.0949
20.1061
20.1922
20.1839
20.1144
20.1025
20.1142
20.184
20.1777
20.12
20.1095
20.1203
20.1777
20.1735
20.1242
20.1154
20.1248
20.1731
20.1701
20.1278
20.1203
20.1273
20.1702
20.1676
20.1309
20.1244
20.1292
20.1685
20.1659
20.1326
20.1276
20.1314
20.1665
20.165
20.1334
20.1298
20.1327
20.1652
20.1641
20.1339
20.1313
20.1333
20.164
20.1631
20.1343
20.1324
20.1341
20.1629
20.1624
20.1344
20.133
20.1345
20.1616
20.1612
20.1338
20.1331
20.1342
20.1604
20.1597
20.1327
20.1325
20.1327
20.1596
20.1581
20.1318
20.1314
20.1312
20.1583
20.1556
20.1303
20.1301
20.1306
20.1556
20.153
20.1279
20.1283
20.1289
20.1533
20.1501
20.125
20.1257
20.1254
20.1508
20.1476
20.1216
20.1225
20.1226
20.1463
20.1418
20.1181
20.1189
20.1187
20.1408
20.1361
20.1131
20.1137
20.1126
20.1365
20.1311
20.107
20.1076
20.1066
20.1302
20.1234
20.101
20.101
20.101
20.1217
20.1132
20.0923
20.0929
20.0934
20.1121
20.1049
20.0817
20.0832
20.0839
20.1031
20.0903
20.0718
20.0727
20.073
20.0927
20.0746
20.0605
20.0603
20.0604
20.0779
20.0621
20.0468
20.0464
20.0459
20.065
20.0461
20.031
20.0311
20.0312
20.0491
20.0343
20.0161
20.0156
20.0166
20.0288
20.0111
19.9995
19.9992
19.9999
20.0069
19.9879
19.9824
19.9827
19.9826
19.9893
19.9718
19.9672
19.9679
19.9669
19.9729
19.9596
19.9552
19.9573
19.9551
19.9606
20.0956
20.101
20.1047
20.101
20.0956
20.1182
20.0865
20.1059
20.0865
20.1182
20.1675
20.0659
20.0985
20.0659
20.1675
20.2052
20.0634
20.089
20.0633
20.2053
20.2139
20.0754
20.0863
20.0753
20.2139
20.2072
20.0885
20.0898
20.0884
20.2071
20.1978
20.0989
20.0963
20.0991
20.1975
20.1899
20.1064
20.1034
20.1067
20.1895
20.1836
20.1122
20.1101
20.1126
20.1833
20.1787
20.1169
20.1159
20.1169
20.1785
20.1752
20.1201
20.1204
20.1195
20.1754
20.1726
20.1223
20.1243
20.122
20.1727
20.1708
20.1236
20.1271
20.1243
20.1704
20.1697
20.1241
20.1288
20.1251
20.1687
20.1676
20.1251
20.1302
20.1252
20.1668
20.1665
20.1254
20.1309
20.1255
20.1654
20.1661
20.1246
20.1312
20.1257
20.1643
20.1642
20.1242
20.1309
20.1248
20.1639
20.1619
20.1239
20.13
20.1227
20.1628
20.1604
20.1226
20.1285
20.1209
20.1607
20.1577
20.1194
20.1264
20.1194
20.1582
20.1546
20.1166
20.1238
20.1175
20.1545
20.1513
20.114
20.1207
20.1141
20.1507
20.1458
20.109
20.1161
20.109
20.1459
20.1406
20.1026
20.1104
20.1031
20.1395
20.1339
20.0963
20.1036
20.0964
20.1334
20.1258
20.089
20.0959
20.0896
20.1241
20.115
20.0799
20.0866
20.0813
20.114
20.1028
20.0688
20.0746
20.068
20.1022
20.087
20.0556
20.0603
20.0529
20.0889
20.0678
20.0402
20.0441
20.0375
20.0695
20.0495
20.0206
20.0248
20.0196
20.0482
20.0237
19.9949
20.0014
19.9976
20.0268
19.9969
19.9682
19.9746
19.9722
19.9996
19.9654
19.9411
19.9446
19.9423
19.9648
19.9288
19.9087
19.9114
19.9085
19.9301
19.8912
19.8729
19.8764
19.8729
19.8922
19.8517
19.8383
19.8426
19.8383
19.8522
19.8142
19.8078
19.8144
19.8075
19.8143
20.0957
20.0993
20.1028
20.0993
20.0957
20.1187
20.0833
20.1042
20.0832
20.1187
20.1694
20.0611
20.0981
20.0611
20.1695
20.2073
20.0568
20.0892
20.0566
20.2076
20.2165
20.0668
20.0861
20.0665
20.2168
20.211
20.0786
20.0895
20.0786
20.2108
20.2024
20.0885
20.0957
20.0884
20.2023
20.195
20.0956
20.1026
20.0955
20.195
20.1896
20.101
20.1092
20.101
20.1892
20.1853
20.1057
20.1152
20.1059
20.1843
20.1816
20.109
20.1201
20.1095
20.181
20.179
20.1109
20.1236
20.1116
20.1787
20.1775
20.1122
20.1264
20.1131
20.177
20.177
20.1132
20.1282
20.1142
20.1759
20.1764
20.1144
20.1296
20.1149
20.1754
20.1752
20.115
20.1304
20.1152
20.1742
20.1735
20.1143
20.1305
20.1149
20.1726
20.1706
20.1132
20.1301
20.1142
20.1712
20.1689
20.1123
20.129
20.1125
20.1683
20.1664
20.1104
20.1273
20.1105
20.1648
20.1611
20.1084
20.125
20.1078
20.162
20.1575
20.1059
20.1218
20.1044
20.1587
20.1533
20.1008
20.1175
20.1008
20.1543
20.1478
20.0946
20.1118
20.0948
20.1475
20.1399
20.0884
20.105
20.0876
20.1414
20.1303
20.0817
20.0971
20.0806
20.1315
20.1204
20.0713
20.0871
20.0717
20.1203
20.1091
20.0575
20.0741
20.0582
20.1093
20.093
20.0435
20.0585
20.0421
20.0914
20.0701
20.0266
20.0392
20.0234
20.0731
20.0478
20.0045
20.0161
20.0008
20.0488
20.0225
19.9756
19.9869
19.9727
20.0227
19.9848
19.9385
19.9502
19.9372
19.9888
19.9385
19.8934
19.9046
19.8935
19.9398
19.8797
19.8382
19.8491
19.8391
19.8811
19.8156
19.7707
19.7808
19.7712
19.8161
19.7325
19.6873
19.6988
19.6877
19.7324
19.6274
19.5878
19.6012
19.5881
19.6268
19.503
19.4772
19.4947
19.4773
19.5022
20.0957
20.1053
20.1059
20.1053
20.0957
20.1109
20.0964
20.1092
20.0963
20.1109
20.1459
20.0829
20.1073
20.0829
20.1458
20.1698
20.0863
20.1061
20.0865
20.1698
20.172
20.0983
20.1087
20.0985
20.172
20.1634
20.1099
20.1145
20.1099
20.1633
20.1537
20.1194
20.1217
20.1194
20.1536
20.146
20.1265
20.1284
20.1265
20.146
20.1403
20.1319
20.1341
20.1315
20.1404
20.1361
20.1363
20.1387
20.1356
20.1363
20.1332
20.1392
20.1422
20.1386
20.1338
20.1314
20.1408
20.1448
20.1404
20.1321
20.1303
20.142
20.147
20.1422
20.1307
20.1292
20.143
20.1485
20.1434
20.1295
20.1286
20.1435
20.1491
20.1436
20.1285
20.1281
20.1429
20.1488
20.1429
20.1277
20.1271
20.1419
20.1482
20.142
20.127
20.1251
20.1413
20.1475
20.1415
20.1248
20.1232
20.1402
20.1463
20.1407
20.1228
20.1211
20.1378
20.1439
20.138
20.1211
20.1173
20.1348
20.1406
20.1343
20.1188
20.1142
20.1311
20.1368
20.131
20.1159
20.1113
20.1259
20.1318
20.1264
20.1105
20.1058
20.1196
20.1252
20.1199
20.104
20.0978
20.1124
20.1175
20.1122
20.0966
20.0866
20.1036
20.1078
20.103
20.087
20.0747
20.0922
20.0962
20.0917
20.076
20.0643
20.0769
20.0806
20.0768
20.0605
20.0433
20.0595
20.0629
20.0598
20.0441
20.0178
20.0363
20.0383
20.0363
20.0258
19.9937
20.009
20.0089
20.0079
19.9938
19.9552
19.9709
19.9683
19.9681
19.9518
19.9041
19.9212
19.917
19.9196
19.908
19.8428
19.8529
19.8451
19.8526
19.8403
19.759
19.762
19.7511
19.7616
19.7526
19.6475
19.6391
19.6207
19.6388
19.6447
19.4883
19.4722
19.4497
19.4721
19.4865
19.3002
19.2661
19.2373
19.2661
19.2986
18.9951
18.9867
18.9945
18.9868
18.9937
20.1006
20.0951
20.1005
20.095
20.1006
20.0994
20.1038
20.1061
20.1037
20.0992
20.0925
20.1167
20.1121
20.1167
20.0925
20.0887
20.1263
20.1163
20.1268
20.0894
20.0833
20.1389
20.1216
20.1394
20.0832
20.0744
20.1517
20.1286
20.1518
20.0737
20.066
20.1618
20.1359
20.1619
20.066
20.0607
20.1692
20.1425
20.1693
20.0599
20.0561
20.1744
20.1479
20.1741
20.0564
20.0524
20.1783
20.1524
20.1775
20.0542
20.0515
20.1804
20.1558
20.1799
20.0521
20.0522
20.1814
20.1581
20.181
20.0519
20.0516
20.1826
20.1603
20.1825
20.0508
20.0508
20.1833
20.1622
20.184
20.0493
20.0499
20.1836
20.163
20.184
20.0497
20.0495
20.183
20.1627
20.1827
20.051
20.0494
20.1821
20.162
20.1813
20.0511
20.0489
20.1805
20.161
20.1804
20.0497
20.0486
20.1785
20.1596
20.1794
20.0475
20.0463
20.1767
20.1574
20.1767
20.0459
20.0433
20.173
20.154
20.173
20.045
20.0406
20.1688
20.1501
20.1689
20.0411
20.037
20.1642
20.1453
20.1643
20.0362
20.0325
20.1568
20.1382
20.1575
20.0307
20.026
20.1482
20.1296
20.1485
20.0238
20.0188
20.1383
20.1195
20.1387
20.018
20.0103
20.1253
20.1062
20.1255
20.0094
19.998
20.109
20.0908
20.1111
19.9982
19.9831
20.0907
20.0714
20.0937
19.9855
19.9649
20.0682
20.046
20.0678
19.9629
19.9336
20.0353
20.0112
20.0337
19.9314
19.8892
19.9905
19.9665
19.9903
19.8939
19.8363
19.9309
19.9036
19.9317
19.8409
19.7676
19.8474
19.8133
19.8465
19.7611
19.6493
19.7206
19.6751
19.7189
19.6436
19.4559
19.5124
19.4496
19.5117
19.4575
19.1384
19.1571
19.0644
19.1569
19.1396
18.5782
18.5102
18.3505
18.5104
18.5786
17.518
17.3039
17.0754
17.3047
17.5182
20.2008
20.3021
20.2887
20.302
20.2005
20.2616
20.2782
20.2817
20.2782
20.2612
20.3024
20.2457